/*--------------------------------*- C++ -*----------------------------------*\
  =========                 |
  \\      /  F ield         | OpenFOAM: The Open Source CFD Toolbox
   \\    /   O peration     | Website:  https://openfoam.org
    \\  /    A nd           | Version:  8
     \\/     M anipulation  |
\*---------------------------------------------------------------------------*/
FoamFile
{
    version     2.0;
    format      ascii;
    class       volScalarField;
    location    "100";
    object      p;
}
// * * * * * * * * * * * * * * * * * * * * * * * * * * * * * * * * * * * * * //

dimensions      [0 2 -2 0 0 0 0];

internalField   nonuniform List<scalar> 
404911
(
-5.99641
-5.98997
-5.98128
-5.95098
-6.00982
-5.9946
-5.97851
-5.96427
-5.96085
-5.95623
-6.07828
-6.0667
-6.0521
-6.03076
-6.01192
-5.99084
-6.09723
-6.08371
-6.07107
-6.05819
-6.12665
-6.10928
-6.09285
-6.15255
-6.13928
-6.12842
-6.17328
-6.16054
-6.14705
-6.22084
-6.20428
-6.18635
-6.16965
-6.14782
-6.23961
-6.21936
-6.20277
-6.29319
-6.27587
-6.2608
-6.24135
-6.31897
-6.30551
-6.28704
-6.27206
-6.2606
-6.33159
-6.3186
-6.30009
-6.28146
-6.35903
-6.34626
-6.33174
-6.3157
-6.3616
-6.35548
-6.44525
-5.99588
-6.00805
-5.99895
-6.06161
-6.04642
-6.09866
-6.08368
-6.07101
-6.12612
-6.1087
-6.09178
-6.1503
-6.13723
-6.17479
-6.16034
-6.1477
-6.20281
-6.18593
-6.16805
-6.15491
-6.23827
-6.21674
-6.27396
-6.2554
-6.30681
-6.28933
-6.2726
-6.33358
-6.31914
-6.36333
-6.34951
-6.32756
-6.37152
-6.35753
-6.46081
-6.46614
-6.45093
-6.51414
-6.49644
-6.47665
-6.54664
-6.53213
-6.50927
-6.5674
-6.55908
-6.54561
-6.56498
-3.19525
-3.15851
-3.1174
-3.36175
-3.30543
-3.2876
-3.2435
-3.21479
-3.17751
-3.13708
-3.08382
-3.4553
-3.42655
-3.33415
-3.29785
-3.26015
-3.22978
-3.19892
-3.14241
-3.01178
-3.57772
-3.54607
-3.50635
-3.47288
-3.43973
-3.40783
-3.34979
-3.31204
-3.27642
-3.24792
-3.20241
-3.15147
-3.12485
-3.10469
-3.04953
-2.99771
-3.66806
-3.63179
-3.59639
-3.5625
-3.52807
-3.49215
-3.45572
-3.41979
-3.39103
-3.32374
-3.29002
-3.27213
-3.22285
-3.20592
-3.05879
-3.74648
-3.7144
-3.67667
-3.64408
-3.60901
-3.57663
-3.54453
-3.5094
-3.47324
-3.43217
-3.39798
-3.35816
-3.31123
-3.28944
-3.24895
-3.79378
-3.76751
-3.73409
-3.70009
-3.6651
-3.62522
-3.58721
-3.55657
-3.52589
-3.48712
-3.4486
-3.40598
-3.37263
-3.33722
-3.30351
-3.25163
-3.87346
-3.84442
-3.81506
-3.78448
-3.75228
-3.72077
-3.68698
-3.6453
-3.60445
-3.56889
-3.54243
-3.50696
-3.46867
-3.42968
-3.39323
-3.35753
-3.31698
-3.98244
-3.95484
-3.9338
-3.89873
-3.86259
-3.82909
-3.79792
-3.76935
-3.73931
-3.7082
-3.66602
-3.62225
-3.58983
-3.56068
-3.52444
-3.4898
-3.44995
-3.40751
-4.03607
-3.99888
-3.97634
-3.95049
-3.91732
-3.88319
-3.84822
-3.81545
-3.78551
-3.75389
-3.72265
-3.68633
-3.63628
-3.61165
-3.58096
-3.54597
-3.50262
-3.46858
-4.12178
-4.09039
-4.05859
-4.02607
-3.99759
-3.96903
-3.93825
-3.90125
-3.86797
-3.83401
-3.80105
-3.77336
-3.74107
-3.70783
-3.66533
-3.62725
-3.59938
-3.56773
-4.16965
-4.13804
-4.10725
-4.07853
-4.04613
-4.0152
-3.98779
-3.95697
-3.92541
-3.89133
-3.85468
-3.82243
-3.79065
-3.76124
-3.72755
-3.68927
-3.65492
-4.25424
-4.22553
-4.19453
-4.16112
-4.12704
-4.09515
-4.06535
-4.03758
-4.00639
-3.97879
-3.94467
-3.91
-3.8747
-3.8412
-3.80808
-3.77865
-3.74803
-4.30512
-4.28971
-4.26834
-4.23989
-4.21338
-4.17812
-4.14436
-4.11118
-4.08499
-4.06303
-4.03099
-3.99583
-3.96203
-3.92614
-3.89342
-3.85826
-3.82268
-3.79312
-4.38775
-4.35973
-4.32548
-4.30509
-4.27492
-4.25463
-4.22636
-4.19519
-4.15791
-4.12993
-4.10359
-4.07664
-4.0476
-4.01362
-3.97871
-3.94383
-3.90928
-3.87786
-4.44991
-4.42583
-4.40108
-4.37291
-4.34194
-4.31679
-4.28902
-4.26501
-4.24045
-4.20812
-4.17203
-4.13989
-4.11868
-4.0875
-4.05615
-4.02913
-3.99762
-3.96498
-4.49528
-4.466
-4.44217
-4.41669
-4.39185
-4.35562
-4.32822
-4.30175
-4.27199
-4.25094
-4.21609
-4.18157
-4.15543
-4.13144
-4.09447
-4.0621
-4.03629
-4.01513
-4.56662
-4.54139
-4.5141
-4.48227
-4.45602
-4.42979
-4.40173
-4.37554
-4.34225
-4.31545
-4.28412
-4.26281
-4.23474
-4.20238
-4.16763
-4.14482
-4.11301
-4.07782
-4.5932
-4.57481
-4.55207
-4.5278
-4.49456
-4.46579
-4.44427
-4.41443
-4.37859
-4.35648
-4.33306
-4.30232
-4.27072
-4.24465
-4.21825
-4.18165
-4.15207
-4.12463
-4.66733
-4.64093
-4.61611
-4.5967
-4.56683
-4.54325
-4.51486
-4.48194
-4.45505
-4.42793
-4.39107
-4.36951
-4.34648
-4.31648
-4.28229
-4.25408
-4.22465
-4.20071
-4.69591
-4.67915
-4.65793
-4.6323
-4.61203
-4.58571
-4.55774
-4.532
-4.5014
-4.47325
-4.44318
-4.40697
-4.3863
-4.36206
-4.33327
-4.30216
-4.27319
-4.75264
-4.73549
-4.71513
-4.69272
-4.67419
-4.65491
-4.6326
-4.60761
-4.57955
-4.55001
-4.51905
-4.48646
-4.45752
-4.42267
-4.40422
-4.38011
-4.34978
-4.32245
-4.78657
-4.76797
-4.74286
-4.72453
-4.70635
-4.69069
-4.67095
-4.65335
-4.6291
-4.60056
-4.56856
-4.53859
-4.50325
-4.4724
-4.44072
-4.41742
-4.39567
-4.36647
-4.82022
-4.79848
-4.77898
-4.7566
-4.73715
-4.71908
-4.70191
-4.68537
-4.66268
-4.64478
-4.62438
-4.58774
-4.55219
-4.52153
-4.48944
-4.44764
-4.4321
-4.40259
-4.8737
-4.85877
-4.8358
-4.81107
-4.78695
-4.76955
-4.75331
-4.73149
-4.71117
-4.69315
-4.67322
-4.65632
-4.63487
-4.6067
-4.56522
-4.53326
-4.50692
-4.48403
-4.93352
-4.9123
-4.89029
-4.86754
-4.8463
-4.82287
-4.79785
-4.7805
-4.76526
-4.74639
-4.72605
-4.70906
-4.68568
-4.6693
-4.64976
-4.6217
-4.59003
-4.55896
-4.963
-4.94837
-4.92667
-4.90581
-4.88454
-4.86223
-4.83773
-4.8123
-4.78994
-4.77389
-4.75734
-4.73988
-4.72173
-4.69868
-4.68156
-4.66423
-4.63874
-4.61351
-5.01859
-5.00096
-4.98112
-4.96202
-4.94245
-4.92113
-4.89915
-4.87811
-4.8557
-4.82905
-4.7961
-4.78496
-4.7681
-4.74931
-4.73071
-4.71311
-4.70839
-4.6719
-5.04867
-5.03215
-5.01632
-4.99718
-4.97738
-4.95717
-4.9362
-4.91434
-4.8929
-4.87241
-4.84954
-4.81953
-4.79686
-4.7796
-4.76106
-4.74106
-4.72561
-4.70705
-5.07006
-5.05698
-5.04505
-5.02996
-5.01033
-4.99063
-4.9707
-4.9508
-4.92925
-4.90697
-4.88634
-4.86452
-4.83879
-4.81447
-4.79366
-4.77631
-4.7577
-4.7392
-5.09775
-5.08028
-5.06739
-5.05476
-5.03992
-5.02219
-5.00276
-4.98231
-4.96295
-4.94354
-4.92146
-4.9
-4.87917
-4.85574
-4.83358
-4.81199
-4.79034
-4.76704
-5.15315
-5.12807
-5.11347
-5.09545
-5.07804
-5.06513
-5.05107
-5.03672
-5.01574
-4.99994
-4.97419
-4.95718
-4.93574
-4.91397
-4.89342
-4.87151
-4.85099
-4.83397
-5.18105
-5.16319
-5.14663
-5.12768
-5.1123
-5.09699
-5.08043
-5.06525
-5.05178
-5.02776
-5.01226
-4.9877
-4.97087
-4.95004
-4.92904
-4.90779
-4.8895
-4.8664
-5.20318
-5.19308
-5.17583
-5.15758
-5.14083
-5.12449
-5.11003
-5.0952
-5.07839
-5.06246
-5.04468
-5.02373
-5.0033
-4.98491
-4.96277
-4.94173
-4.91814
-4.89955
-5.2371
-5.21756
-5.20306
-5.18824
-5.17312
-5.15739
-5.14124
-5.12245
-5.10783
-5.09151
-5.07436
-5.05605
-5.03632
-5.01628
-4.99785
-4.97834
-4.95537
-5.27612
-5.26506
-5.24605
-5.22889
-5.21488
-5.20046
-5.18705
-5.17322
-5.15813
-5.13636
-5.12009
-5.10532
-5.08817
-5.06937
-5.04913
-5.03032
-5.01041
-4.99469
-5.30079
-5.29037
-5.27302
-5.2536
-5.23811
-5.22604
-5.21304
-5.1983
-5.18475
-5.17116
-5.15136
-5.13217
-5.11866
-5.10192
-5.08243
-5.06271
-5.04539
-5.01992
-5.33674
-5.31728
-5.30131
-5.28368
-5.26541
-5.2483
-5.23771
-5.22899
-5.21186
-5.1965
-5.18477
-5.16872
-5.14642
-5.13176
-5.11471
-5.09362
-5.07004
-5.05287
-5.37457
-5.36597
-5.34765
-5.33012
-5.31199
-5.2956
-5.27949
-5.26091
-5.25121
-5.24057
-5.22539
-5.20814
-5.19536
-5.17931
-5.15857
-5.14257
-5.12655
-5.1055
-5.40803
-5.39208
-5.3752
-5.35919
-5.34169
-5.32479
-5.3094
-5.29457
-5.27497
-5.26337
-5.25414
-5.23818
-5.22103
-5.20944
-5.19208
-5.17229
-5.15516
-5.13968
-5.43751
-5.42232
-5.4057
-5.38796
-5.37073
-5.35393
-5.33692
-5.3212
-5.3083
-5.29518
-5.28395
-5.26952
-5.25354
-5.23443
-5.22203
-5.20586
-5.18588
-5.16646
-5.4796
-5.45164
-5.43618
-5.41858
-5.40121
-5.38394
-5.3668
-5.34914
-5.33212
-5.3178
-5.30774
-5.29432
-5.28099
-5.26607
-5.24846
-5.23477
-5.21501
-5.19925
-5.49965
-5.484
-5.46822
-5.45028
-5.43286
-5.41618
-5.39885
-5.38087
-5.36253
-5.34445
-5.32671
-5.3142
-5.30194
-5.29044
-5.27594
-5.26109
-5.24907
-5.54068
-5.5325
-5.51344
-5.49828
-5.48129
-5.46322
-5.4466
-5.43111
-5.41436
-5.39598
-5.37712
-5.35966
-5.33804
-5.32404
-5.31247
-5.30259
-5.28923
-5.27319
-5.57336
-5.55763
-5.54296
-5.52563
-5.51016
-5.49336
-5.47526
-5.45714
-5.44243
-5.4275
-5.41025
-5.39306
-5.37476
-5.35212
-5.3342
-5.32417
-5.31272
-5.29995
-5.59994
-5.58547
-5.5716
-5.55584
-5.54049
-5.52458
-5.50781
-5.49059
-5.46952
-5.45812
-5.43834
-5.42364
-5.40712
-5.38931
-5.36997
-5.35235
-5.33896
-5.32662
-5.63288
-5.61447
-5.6005
-5.58605
-5.56998
-5.55479
-5.53926
-5.52373
-5.50789
-5.4837
-5.47146
-5.45212
-5.43676
-5.42006
-5.40294
-5.38442
-5.36902
-5.3543
-5.6542
-5.64579
-5.63092
-5.61551
-5.60051
-5.58491
-5.56922
-5.55374
-5.53849
-5.52285
-5.50459
-5.48535
-5.46789
-5.45194
-5.43465
-5.41841
-5.39953
-5.38695
-5.68196
-5.6683
-5.6583
-5.64531
-5.63055
-5.6151
-5.59925
-5.58327
-5.56765
-5.55176
-5.53544
-5.51802
-5.49959
-5.48276
-5.46626
-5.44878
-5.43129
-5.41576
-5.7042
-5.69085
-5.67977
-5.66907
-5.65776
-5.64347
-5.62763
-5.61134
-5.59495
-5.58012
-5.56555
-5.54942
-5.53211
-5.51396
-5.49628
-5.47922
-5.46387
-5.4504
-5.72605
-5.71305
-5.69854
-5.68749
-5.67791
-5.6663
-5.65332
-5.63881
-5.62257
-5.60612
-5.58999
-5.57682
-5.56339
-5.54634
-5.52751
-5.51023
-5.49386
-5.47396
-5.76636
-5.75238
-5.73782
-5.72172
-5.70749
-5.69323
-5.68704
-5.6753
-5.66216
-5.65004
-5.63749
-5.62292
-5.608
-5.58829
-5.57631
-5.55986
-5.54142
-5.52216
-5.50732
-5.78798
-5.77347
-5.75965
-5.74314
-5.73228
-5.71873
-5.70376
-5.69517
-5.68594
-5.67303
-5.65994
-5.64727
-5.63338
-5.61714
-5.59983
-5.58731
-5.57167
-5.55444
-5.79907
-5.78593
-5.77184
-5.75848
-5.74526
-5.73323
-5.72198
-5.71158
-5.69724
-5.68157
-5.66731
-5.65338
-5.64268
-5.62782
-5.61225
-5.59871
-5.58014
-5.84376
-5.82704
-5.81187
-5.79753
-5.78282
-5.76951
-5.75698
-5.7458
-5.73678
-5.72419
-5.707
-5.69146
-5.6769
-5.66385
-5.65213
-5.6379
-5.62294
-5.6106
-5.8725
-5.85727
-5.83862
-5.82429
-5.80943
-5.7947
-5.78046
-5.76601
-5.75432
-5.74433
-5.73101
-5.71513
-5.7013
-5.68585
-5.674
-5.66217
-5.6484
-5.63727
-5.9057
-5.88523
-5.86949
-5.85248
-5.83708
-5.82187
-5.8068
-5.79274
-5.77512
-5.76044
-5.74972
-5.73798
-5.72449
-5.70994
-5.69647
-5.6846
-5.67196
-5.65676
-5.91043
-5.89737
-5.88172
-5.86508
-5.84954
-5.83435
-5.82068
-5.80854
-5.79081
-5.77431
-5.75869
-5.74908
-5.73582
-5.72168
-5.70831
-5.69653
-5.68298
-5.93394
-5.92325
-5.90664
-5.89359
-5.87761
-5.86137
-5.8463
-5.83322
-5.82029
-5.80376
-5.78655
-5.77085
-5.75952
-5.7458
-5.73147
-5.71928
-5.70848
-5.96223
-5.94808
-5.94107
-5.93347
-5.91665
-5.9047
-5.88956
-5.87265
-5.85473
-5.84292
-5.82874
-5.81418
-5.79632
-5.78292
-5.77079
-5.75678
-5.74152
-5.72788
-5.98826
-5.976
-5.96252
-5.9527
-5.94279
-5.92934
-5.91588
-5.90174
-5.88519
-5.86802
-5.85416
-5.83927
-5.8259
-5.80929
-5.79405
-5.78267
-5.7665
-6.01493
-5.99906
-5.98617
-5.97201
-5.96249
-5.95086
-5.93769
-5.92534
-5.91318
-5.89978
-5.88226
-5.86705
-5.8497
-5.83589
-5.82079
-5.80514
-5.79286
-6.05052
-6.03868
-6.02425
-6.0094
-5.99691
-5.98306
-5.97142
-5.96247
-5.94631
-5.93354
-5.92038
-5.90574
-5.89265
-5.87931
-5.8636
-5.8484
-5.83293
-5.81981
-6.06834
-6.05921
-6.04625
-6.03343
-6.0201
-6.00594
-5.99188
-5.97821
-5.96702
-5.95347
-5.94345
-5.93142
-5.91374
-5.90102
-5.89001
-5.87652
-5.85995
-5.84567
-6.09618
-6.07959
-6.06811
-6.05727
-6.04258
-6.02752
-6.01215
-5.999
-5.987
-5.9746
-5.96258
-5.95097
-5.93955
-5.92645
-5.91228
-5.89889
-5.88622
-5.87056
-6.11319
-6.10586
-6.09174
-6.07814
-6.06573
-6.05185
-6.03651
-6.01971
-6.00556
-5.99539
-5.98296
-5.96945
-5.95628
-5.94438
-5.93167
-5.92002
-5.90787
-5.89422
-6.15326
-6.14308
-6.12832
-6.11387
-6.10172
-6.08656
-6.07398
-6.06042
-6.04816
-6.03142
-6.01674
-6.00427
-5.98899
-5.97404
-5.96101
-5.94703
-5.93551
-5.92259
-5.9116
-6.16731
-6.16348
-6.15272
-6.13979
-6.1262
-6.11352
-6.09805
-6.08332
-6.07049
-6.05744
-6.04163
-6.0272
-6.01474
-6.00071
-5.98566
-5.97081
-5.95582
-5.94638
-5.93187
-6.19193
-6.17674
-6.16403
-6.15118
-6.13807
-6.12443
-6.11067
-6.09462
-6.07957
-6.06614
-6.05157
-6.03975
-6.02682
-6.01228
-5.99768
-5.98342
-5.9666
-5.95204
-6.21828
-6.20311
-6.18856
-6.17514
-6.16125
-6.14917
-6.1365
-6.12326
-6.10808
-6.09254
-6.07935
-6.06347
-6.05187
-6.03822
-6.02374
-6.01077
-5.99735
-6.2538
-6.23522
-6.217
-6.20107
-6.18601
-6.17337
-6.16025
-6.14947
-6.13563
-6.11961
-6.10548
-6.09113
-6.07802
-6.06369
-6.04918
-6.03483
-6.0269
-6.29496
-6.27221
-6.25218
-6.2324
-6.21612
-6.20212
-6.18769
-6.17303
-6.1612
-6.14708
-6.13201
-6.11688
-6.10374
-6.09094
-6.07733
-6.06142
-6.04976
-6.34639
-6.32749
-6.31186
-6.29199
-6.27091
-6.25109
-6.23467
-6.21886
-6.20246
-6.18812
-6.17562
-6.16007
-6.14454
-6.12753
-6.11523
-6.10172
-6.08634
-6.06833
-6.37351
-6.35741
-6.34038
-6.32476
-6.30808
-6.28913
-6.27074
-6.25595
-6.23685
-6.21864
-6.20359
-6.18811
-6.17095
-6.15505
-6.14003
-6.12757
-6.11095
-6.40596
-6.38938
-6.37357
-6.35627
-6.34038
-6.3235
-6.30576
-6.28701
-6.27168
-6.25261
-6.2328
-6.21552
-6.19905
-6.18451
-6.16682
-6.15364
-6.1423
-6.43918
-6.4204
-6.40546
-6.38814
-6.36889
-6.35363
-6.3363
-6.32158
-6.30353
-6.2858
-6.26659
-6.24716
-6.22989
-6.21308
-6.19663
-6.17919
-6.16606
-6.47387
-6.45426
-6.43679
-6.41909
-6.40154
-6.38255
-6.36775
-6.35361
-6.33571
-6.31741
-6.29824
-6.28012
-6.26094
-6.24336
-6.22714
-6.20795
-6.19422
-6.51449
-6.48948
-6.47085
-6.45314
-6.43654
-6.41814
-6.39972
-6.38097
-6.36601
-6.35006
-6.33277
-6.31306
-6.2928
-6.27533
-6.25776
-6.24158
-6.22205
-6.5386
-6.52639
-6.50959
-6.48559
-6.46708
-6.45157
-6.43615
-6.41686
-6.39658
-6.38112
-6.364
-6.34644
-6.32861
-6.30882
-6.28906
-6.27269
-6.25322
-6.55778
-6.53691
-6.52152
-6.50097
-6.48156
-6.46358
-6.44887
-6.43367
-6.41301
-6.39432
-6.37614
-6.36053
-6.34139
-6.32292
-6.29827
-6.28625
-6.59013
-6.57112
-6.54993
-6.53206
-6.51406
-6.49729
-6.47944
-6.46358
-6.44711
-6.43
-6.41016
-6.39008
-6.37393
-6.35553
-6.33704
-6.66134
-6.64137
-6.61503
-6.58955
-6.56576
-6.5482
-6.53103
-6.51563
-6.49645
-6.47605
-6.45746
-6.44078
-6.42497
-6.40734
-6.38608
-6.36882
-6.71784
-6.68397
-6.65868
-6.63871
-6.61346
-6.58541
-6.56533
-6.54934
-6.53098
-6.51487
-6.49606
-6.47549
-6.45479
-6.43927
-6.4225
-6.40651
-6.77221
-6.74125
-6.71228
-6.68513
-6.66164
-6.63869
-6.61041
-6.58512
-6.56612
-6.54839
-6.53211
-6.51862
-6.49492
-6.47323
-6.44907
-6.43485
-6.86478
-6.84095
-6.80751
-6.7738
-6.74165
-6.71408
-6.6897
-6.66658
-6.64153
-6.61472
-6.59187
-6.56602
-6.54536
-6.53133
-6.51262
-6.4881
-6.94657
-6.9037
-6.86923
-6.8392
-6.80779
-6.77392
-6.74285
-6.7191
-6.69281
-6.67022
-6.64495
-6.61738
-6.59082
-6.56803
-6.55069
-6.53333
-7.01152
-6.97003
-6.93383
-6.89803
-6.86683
-6.83651
-6.8013
-6.7703
-6.74575
-6.72282
-6.7025
-6.67141
-6.63744
-6.61158
-6.59119
-6.5718
-7.06788
-7.03594
-6.99839
-6.94878
-6.91753
-6.88802
-6.85495
-6.81876
-6.78942
-6.76618
-6.74646
-6.72642
-6.69524
-6.66203
-6.62994
-6.60948
-7.12163
-7.09932
-7.06241
-7.02848
-6.98483
-6.94101
-6.91275
-6.88216
-6.84284
-6.80995
-6.78644
-6.76853
-6.74586
-6.72113
-6.6911
-6.66402
-7.18473
-7.15076
-7.12013
-7.08556
-7.0519
-7.01597
-6.97428
-6.94102
-6.91223
-6.87241
-6.83335
-6.80735
-6.7875
-6.77095
-6.74756
-7.24042
-7.21436
-7.18057
-7.14505
-7.11442
-7.08053
-7.04537
-7.00639
-6.97423
-6.9407
-6.90562
-6.86785
-6.83225
-6.81473
-6.79048
-6.77641
-7.28943
-7.26104
-7.23537
-7.20654
-7.16698
-7.13603
-7.10574
-7.07385
-7.04065
-7.00214
-6.96847
-6.93104
-6.89445
-6.8588
-6.83211
-6.80359
-7.32426
-7.30573
-7.27907
-7.25367
-7.22219
-7.18835
-7.15572
-7.12681
-7.0987
-7.06407
-7.02956
-6.9963
-6.96228
-6.92174
-6.89368
-7.3451
-7.32294
-7.29763
-7.26914
-7.23798
-7.20826
-7.1743
-7.14297
-7.11437
-7.08241
-7.05174
-7.01989
-6.98641
-6.9555
-7.39183
-7.36997
-7.34331
-7.31657
-7.28365
-7.26033
-7.22612
-7.19415
-7.16644
-7.13539
-7.1066
-7.07557
-7.04221
-7.47892
-7.45168
-7.42387
-7.39987
-7.36746
-7.33389
-7.30791
-7.27375
-7.24883
-7.21711
-7.18818
-7.1604
-7.12903
-7.10304
-7.53936
-7.5064
-7.47509
-7.44969
-7.42171
-7.39284
-7.35396
-7.32516
-7.29863
-7.26745
-7.24002
-7.21127
-7.18513
-7.14918
-7.60389
-7.56862
-7.53338
-7.49299
-7.47071
-7.44388
-7.41466
-7.38439
-7.34892
-7.31886
-7.28731
-7.25652
-7.23394
-7.19693
-7.67333
-7.63305
-7.60038
-7.55893
-7.51992
-7.49212
-7.46302
-7.43676
-7.40443
-7.37454
-7.34398
-7.3132
-7.28347
-7.2459
-7.73543
-7.69503
-7.65604
-7.62961
-7.58536
-7.5583
-7.51269
-7.48518
-7.45402
-7.42419
-7.39739
-7.36869
-7.33283
-7.30594
-7.79278
-7.75838
-7.7079
-7.67727
-7.64495
-7.60849
-7.57896
-7.53896
-7.50266
-7.46984
-7.44402
-7.41647
-7.38207
-7.69148
-7.671
-7.62841
-7.59029
-7.55789
-7.52827
-7.48831
-7.46198
-7.43487
-7.70886
-7.69272
-7.64718
-7.60576
-7.56856
-7.54408
-7.51112
-7.48225
-7.77595
-7.72896
-7.70617
-7.67389
-7.63303
-7.59399
-7.56077
-7.85064
-7.8077
-7.76622
-7.72216
-7.69199
-7.65931
-7.63034
-7.83126
-7.79862
-7.75928
-7.71636
-7.67154
-7.95217
-7.90271
-7.84577
-7.82054
-7.79019
-7.75237
-8.17697
-8.14812
-8.0303
-7.98377
-7.85137
-8.18988
-8.15118
-8.1205
-8.09728
-8.06677
-7.93377
-8.26938
-8.11345
-8.10172
-8.06107
-8.00651
-8.30285
-8.22382
-8.14733
-1.12391
-1.02545
-0.902912
-1.46025
-1.41098
-1.35422
-1.27163
-1.19979
-1.13765
-1.08425
-0.929593
-0.722993
-1.71925
-1.65185
-1.61694
-1.54036
-1.48534
-1.4351
-1.36443
-1.29423
-1.21411
-1.13992
-1.10482
-1.01816
-0.913255
-0.847508
-0.749725
-1.94882
-1.8797
-1.79824
-1.7494
-1.66558
-1.62396
-1.56419
-1.49772
-1.44507
-1.39531
-1.32536
-1.26234
-1.16735
-1.09918
-1.03864
-0.949918
-0.862558
-0.812387
-0.648028
-0.55966
-0.454416
-0.307843
-2.17074
-2.07573
-2.02323
-1.95474
-1.90135
-1.83789
-1.77021
-1.70956
-1.63982
-1.57814
-1.51882
-1.46211
-1.41158
-1.35382
-1.33378
-1.16784
-1.11379
-1.0447
-0.970522
-0.886566
-0.796331
-0.717002
-0.612219
-2.3155
-2.29607
-2.22319
-2.16989
-2.09146
-2.04255
-1.98035
-1.92424
-1.86061
-1.80195
-1.73787
-1.66645
-1.59921
-1.5373
-1.50116
-1.43159
-1.38371
-1.28726
-1.19716
-1.12008
-1.06775
-0.993772
-0.912311
-0.821686
-0.737528
-2.42503
-2.40503
-2.34787
-2.2987
-2.25225
-2.20602
-2.13088
-2.06852
-2.01163
-1.93819
-1.89093
-1.82764
-1.76302
-1.69297
-1.62458
-1.56471
-1.5112
-1.45659
-1.40505
-1.32665
-1.21345
-1.13837
-1.08606
-1.01246
-0.941149
-2.52834
-2.49493
-2.4468
-2.41355
-2.37175
-2.31641
-2.27263
-2.22492
-2.15541
-2.10094
-2.03653
-1.95132
-1.9091
-1.85513
-1.7969
-1.72994
-1.6636
-1.59198
-1.54129
-1.4824
-1.41913
-1.36095
-1.24563
-1.16284
-1.10823
-2.6102
-2.58484
-2.55246
-2.51571
-2.46344
-2.42956
-2.39515
-2.33461
-2.28217
-2.24697
-2.18206
-2.11777
-2.05018
-1.989
-1.92483
-1.87572
-1.83611
-1.74856
-1.69137
-1.62224
-1.563
-1.50709
-1.43555
-1.36509
-1.29752
-2.7626
-2.74488
-2.67799
-2.63576
-2.60085
-2.56778
-2.52028
-2.48337
-2.44243
-2.41132
-2.36401
-2.29841
-2.26088
-2.21234
-2.13518
-2.05794
-2.00033
-1.93985
-1.90334
-1.84683
-1.78382
-1.71536
-1.66273
-1.58799
-1.53152
-1.48194
-2.91446
-2.8731
-2.8294
-2.79323
-2.7459
-2.70204
-2.66015
-2.61464
-2.57537
-2.53825
-2.50589
-2.45817
-2.41996
-2.3743
-2.32632
-2.27831
-2.22457
-2.163
-2.08463
-2.02873
-1.96298
-1.91192
-1.86208
-1.80277
-1.74318
-1.69534
-1.61179
-2.95685
-2.92448
-2.88313
-2.84637
-2.81161
-2.76895
-2.71587
-2.68031
-2.63569
-2.59513
-2.55651
-2.51695
-2.47696
-2.44092
-2.3865
-2.34921
-2.30093
-2.24258
-2.18097
-2.10393
-2.04881
-2.01012
-1.92643
-1.89494
-1.82219
-3.07302
-3.04248
-3.00751
-2.96319
-2.93393
-2.8938
-2.86146
-2.82559
-2.7859
-2.74307
-2.69951
-2.65457
-2.61431
-2.57283
-2.5328
-2.49205
-2.45755
-2.40324
-2.36847
-2.3217
-2.26355
-2.19862
-2.13364
-2.09825
-2.01472
-3.12065
-3.08748
-3.05768
-3.022
-2.99003
-2.96631
-2.91566
-2.87643
-2.83873
-2.79581
-2.75812
-2.7204
-2.67094
-2.62869
-2.58851
-2.54651
-2.50895
-2.47304
-2.42284
-2.38746
-2.34133
-2.28002
-2.21429
-2.15956
-3.26687
-3.22467
-3.19685
-3.14196
-3.10631
-3.06569
-3.03275
-3.0038
-2.97014
-2.92695
-2.88765
-2.85026
-2.81067
-2.76445
-2.7324
-2.68453
-2.64149
-2.6017
-2.56368
-2.52735
-2.48906
-2.44343
-2.40669
-2.35471
-2.30755
-3.3529
-3.32665
-3.29115
-3.24624
-3.21017
-3.16934
-3.12617
-3.08686
-3.04792
-3.00888
-2.97773
-2.93883
-2.89919
-2.85727
-2.82266
-2.78811
-2.74437
-2.69918
-2.65681
-2.61885
-2.58373
-2.54716
-2.49184
-2.46033
-2.42778
-3.45063
-3.41637
-3.37727
-3.34003
-3.30109
-3.26371
-3.22389
-3.19039
-3.15306
-3.11458
-3.06546
-3.02298
-2.98976
-2.95235
-2.9074
-2.87288
-2.83412
-2.79456
-2.75654
-2.7135
-2.66991
-2.63167
-2.59805
-2.56298
-2.52156
-3.57862
-3.54443
-3.5057
-3.46932
-3.43533
-3.39633
-3.35997
-3.31205
-3.27945
-3.24425
-3.21136
-3.177
-3.13954
-3.08685
-3.03735
-3.00585
-2.96662
-2.92456
-2.88916
-2.84711
-2.79534
-2.76558
-2.72538
-2.68111
-2.64435
-2.60626
-3.66603
-3.61777
-3.59029
-3.55557
-3.52184
-3.49002
-3.45576
-3.42118
-3.38182
-3.33778
-3.30136
-3.26152
-3.22923
-3.19431
-3.15963
-3.11117
-3.06389
-3.02365
-2.98173
-2.93985
-2.90217
-2.86463
-2.81377
-2.76978
-2.73099
-2.69013
-3.735
-3.71707
-3.68281
-3.64303
-3.6079
-3.57626
-3.54119
-3.50843
-3.4758
-3.44353
-3.40857
-3.35984
-3.31897
-3.2776
-3.24737
-3.20825
-3.16832
-3.12926
-3.09045
-3.04844
-2.99637
-2.95273
-2.9143
-2.87683
-2.8226
-2.7744
-2.73843
-3.82687
-3.7865
-3.75914
-3.73089
-3.69887
-3.66501
-3.62735
-3.59224
-3.55854
-3.52573
-3.49184
-3.4595
-3.42654
-3.38389
-3.33815
-3.29807
-3.26707
-3.22673
-3.17669
-3.13961
-3.09878
-3.05529
-3.01514
-2.97011
-2.92909
-2.88229
-2.84407
-3.86787
-3.84067
-3.80854
-3.77839
-3.74792
-3.71373
-3.67843
-3.64156
-3.60611
-3.57228
-3.5402
-3.50632
-3.47201
-3.43881
-3.40128
-3.361
-3.32246
-3.28894
-3.24666
-3.19473
-3.14786
-3.11797
-3.07111
-3.03712
-2.9926
-2.94798
-3.93734
-3.92713
-3.89223
-3.8589
-3.82814
-3.79546
-3.76445
-3.73088
-3.69613
-3.66025
-3.62336
-3.58577
-3.55365
-3.52187
-3.48709
-3.45215
-3.4165
-3.37936
-3.34253
-3.30583
-3.26115
-3.21501
-3.17057
-3.13003
-3.09263
-3.05304
-4.02201
-3.99937
-3.96498
-3.93871
-3.90922
-3.87579
-3.84355
-3.81295
-3.78139
-3.74811
-3.71416
-3.67847
-3.64212
-3.60507
-3.56838
-3.53841
-3.50454
-3.46889
-3.43238
-3.39682
-3.36171
-3.32222
-3.28129
-3.23564
-3.1913
-3.1577
-4.08109
-4.04436
-4.01378
-3.98531
-3.95493
-3.92741
-3.89523
-3.86319
-3.83005
-3.79777
-3.76591
-3.73214
-3.69563
-3.65848
-3.62091
-3.58683
-3.55644
-3.52291
-3.48798
-3.45208
-3.41645
-3.38066
-3.34076
-3.30193
-3.26063
-4.16554
-4.13295
-4.0961
-4.06413
-4.0334
-4.0031
-3.97483
-3.94585
-3.91424
-3.88104
-3.84797
-3.81573
-3.78402
-3.75112
-3.71506
-3.67801
-3.63906
-3.60745
-3.57701
-3.54273
-3.5074
-3.47152
-3.43756
-3.40378
-3.36101
-3.32133
-4.24546
-4.21503
-4.18555
-4.1521
-4.11856
-4.08477
-4.05475
-4.02362
-3.99378
-3.96417
-3.93278
-3.90007
-3.86665
-3.83446
-3.80285
-3.77113
-3.73846
-3.70401
-3.66425
-3.62838
-3.59834
-3.56247
-3.52864
-3.49433
-3.45669
-3.41447
-4.30576
-4.29169
-4.266
-4.23403
-4.20348
-4.17004
-4.13759
-4.1046
-4.07378
-4.04324
-4.01364
-3.98437
-3.95252
-3.91982
-3.88744
-3.85473
-3.82201
-3.78994
-3.75814
-3.72539
-3.68684
-3.64977
-3.61701
-3.58167
-3.54574
-3.50667
-3.47231
-4.35217
-4.32813
-4.30166
-4.27988
-4.25162
-4.22052
-4.18751
-4.15582
-4.12322
-4.09124
-4.06335
-4.03424
-4.00467
-3.9724
-3.93935
-3.90729
-3.87469
-3.84139
-3.80877
-3.77658
-3.74312
-3.70585
-3.66846
-3.63357
-3.59715
-3.55786
-4.41905
-4.39441
-4.36529
-4.33934
-4.31344
-4.29135
-4.26582
-4.23612
-4.20513
-4.17343
-4.13921
-4.11082
-4.08571
-4.05817
-4.02492
-3.99041
-3.95657
-3.92295
-3.89155
-3.85979
-3.82749
-3.79589
-3.75911
-3.72686
-3.69682
-3.64921
-4.46228
-4.43354
-4.40827
-4.38363
-4.35569
-4.32995
-4.30508
-4.27774
-4.25156
-4.22143
-4.18815
-4.15413
-4.12603
-4.1042
-4.07716
-4.0409
-4.00736
-3.97466
-3.94025
-3.91057
-3.87877
-3.84805
-3.8209
-3.77535
-3.73919
-4.52853
-4.50102
-4.47572
-4.45049
-4.4243
-4.40048
-4.37498
-4.34674
-4.3158
-4.28799
-4.26411
-4.23582
-4.20297
-4.16871
-4.13964
-4.11678
-4.0887
-4.05461
-4.0231
-3.99474
-3.96159
-3.92902
-3.89758
-3.86934
-3.84302
-4.57058
-4.54857
-4.52023
-4.49139
-4.46423
-4.43895
-4.41495
-4.38914
-4.36093
-4.32849
-4.29997
-4.27509
-4.24899
-4.2174
-4.18273
-4.1539
-4.12871
-4.09909
-4.06898
-4.03946
-4.01324
-3.98257
-3.95244
-3.91972
-3.87753
-4.63796
-4.61128
-4.58692
-4.56533
-4.53627
-4.50752
-4.47939
-4.45227
-4.42622
-4.39978
-4.37149
-4.34239
-4.31464
-4.28823
-4.26211
-4.23258
-4.19928
-4.16811
-4.14304
-4.11057
-4.08214
-4.05498
-4.03098
-3.99923
-3.97655
-4.67394
-4.6498
-4.6228
-4.59906
-4.57593
-4.54979
-4.52331
-4.49489
-4.46592
-4.43716
-4.41025
-4.38151
-4.35577
-4.32979
-4.30235
-4.27513
-4.24551
-4.21287
-4.18237
-4.15771
-4.1275
-4.09896
-4.07322
-4.03879
-4.01006
-4.73632
-4.71033
-4.68898
-4.66517
-4.63945
-4.6179
-4.59303
-4.56516
-4.54025
-4.51202
-4.4811
-4.45059
-4.42299
-4.39411
-4.36901
-4.34415
-4.31685
-4.28779
-4.25924
-4.22617
-4.19745
-4.17112
-4.14162
-4.11054
-4.08476
-4.76279
-4.74259
-4.72206
-4.7016
-4.67949
-4.65892
-4.63827
-4.6127
-4.58341
-4.55691
-4.52898
-4.49894
-4.46679
-4.43681
-4.40943
-4.38442
-4.36069
-4.33497
-4.30535
-4.27476
-4.24181
-4.21148
-4.18484
-4.16409
-4.81773
-4.79927
-4.77725
-4.75593
-4.73454
-4.71471
-4.69468
-4.67558
-4.65716
-4.63509
-4.60773
-4.57808
-4.5477
-4.51685
-4.48246
-4.45282
-4.42458
-4.40016
-4.37666
-4.3505
-4.32141
-4.29178
-4.26091
-4.22541
-4.19849
-4.85249
-4.83229
-4.8105
-4.78789
-4.76609
-4.74493
-4.72596
-4.70761
-4.68948
-4.67288
-4.65394
-4.63047
-4.60306
-4.57043
-4.53783
-4.50162
-4.4688
-4.43892
-4.41508
-4.39133
-4.36444
-4.33479
-4.30616
-4.2804
-4.90469
-4.88648
-4.86534
-4.84389
-4.82214
-4.79987
-4.77794
-4.75711
-4.73831
-4.72013
-4.70109
-4.68353
-4.66554
-4.64535
-4.62037
-4.58783
-4.55599
-4.5214
-4.48875
-4.45731
-4.43077
-4.40572
-4.38086
-4.35178
-4.32362
-4.9352
-4.91863
-4.89876
-4.87748
-4.85521
-4.83357
-4.81136
-4.78931
-4.77001
-4.75141
-4.73357
-4.71321
-4.69499
-4.67652
-4.65715
-4.63456
-4.60481
-4.57176
-4.53977
-4.50926
-4.47822
-4.44954
-4.4206
-4.39485
-4.98733
-4.96893
-4.95075
-4.93265
-4.91106
-4.89024
-4.86804
-4.84561
-4.82256
-4.80043
-4.78211
-4.76426
-4.74635
-4.72658
-4.70923
-4.69048
-4.6711
-4.65043
-4.62458
-4.59254
-4.56067
-4.53092
-4.50279
-4.46516
-4.43725
-5.0169
-5.00239
-4.98436
-4.9651
-4.94489
-4.92489
-4.90425
-4.88191
-4.85908
-4.83578
-4.8125
-4.79444
-4.77702
-4.75887
-4.73953
-4.72227
-4.70376
-4.68623
-4.66599
-4.64018
-4.61135
-4.58302
-4.54653
-4.52097
-5.04667
-5.02983
-5.01547
-4.99806
-4.97962
-4.96007
-4.94012
-4.91917
-4.89665
-4.87375
-4.85105
-4.8264
-4.80563
-4.78823
-4.77042
-4.75126
-4.73247
-4.71529
-4.69916
-4.67813
-4.65204
-4.62546
-4.59889
-4.56466
-5.08994
-5.0757
-5.0604
-5.04632
-5.02995
-5.01257
-4.99425
-4.97538
-4.95556
-4.93449
-4.91201
-4.88902
-4.86709
-4.84312
-4.81966
-4.8002
-4.78173
-4.76289
-4.74321
-4.72666
-4.71019
-4.69081
-4.66533
-4.63883
-4.60969
-5.11784
-5.10303
-5.08811
-5.07237
-5.05876
-5.04354
-5.02628
-5.008
-4.98953
-4.97018
-4.94949
-4.92747
-4.90448
-4.88223
-4.85986
-4.83705
-4.81613
-4.79709
-4.77774
-4.75887
-4.74094
-4.72256
-4.70172
-4.6803
-5.1477
-5.13504
-5.11483
-5.09941
-5.08414
-5.07121
-5.0559
-5.03886
-5.0211
-5.00338
-4.98418
-4.9636
-4.94253
-4.92011
-4.89759
-4.87552
-4.8539
-4.83295
-4.81318
-4.79439
-4.77457
-4.7564
-4.73271
-4.71347
-5.18231
-5.16237
-5.14654
-5.12945
-5.1131
-5.09704
-5.08271
-5.06742
-5.0509
-5.0338
-5.01622
-4.99852
-4.97714
-4.95687
-4.9353
-4.91337
-4.89166
-4.87043
-4.85017
-4.83025
-4.81074
-4.788
-4.76992
-5.22403
-5.21113
-5.19324
-5.17831
-5.16035
-5.14348
-5.12756
-5.11151
-5.09589
-5.07973
-5.06311
-5.04598
-5.02732
-5.01027
-4.9902
-4.97066
-4.94988
-4.92886
-4.90781
-4.88705
-4.86727
-4.8461
-4.82817
-4.80968
-5.25391
-5.23818
-5.22203
-5.20663
-5.19094
-5.17405
-5.15707
-5.14098
-5.12573
-5.11002
-5.09337
-5.07602
-5.05855
-5.04053
-5.02236
-5.00332
-4.98411
-4.96394
-4.94395
-4.9237
-4.90118
-4.88246
-4.85931
-4.8406
-5.28271
-5.26513
-5.24825
-5.23346
-5.21829
-5.20325
-5.18748
-5.17159
-5.15601
-5.14136
-5.12411
-5.10723
-5.08979
-5.0717
-5.05358
-5.03525
-5.01643
-4.99722
-4.97784
-4.95871
-4.93913
-4.91825
-4.89751
-5.3272
-5.31244
-5.29536
-5.27919
-5.26106
-5.24487
-5.23005
-5.21552
-5.20051
-5.18533
-5.17018
-5.15542
-5.13797
-5.12086
-5.10408
-5.08602
-5.06744
-5.04862
-5.02992
-5.01131
-4.99192
-4.97244
-4.95247
-4.93847
-5.35125
-5.341
-5.32387
-5.30607
-5.28917
-5.27168
-5.25562
-5.24102
-5.22773
-5.21345
-5.19831
-5.18424
-5.16912
-5.15226
-5.13459
-5.118
-5.10028
-5.08154
-5.06247
-5.04413
-5.02566
-5.00586
-4.98809
-4.96193
-5.38583
-5.36821
-5.35089
-5.33478
-5.31795
-5.30084
-5.2834
-5.26686
-5.25282
-5.24069
-5.22653
-5.2115
-5.19775
-5.18269
-5.16661
-5.14846
-5.13095
-5.1132
-5.09444
-5.07591
-5.05726
-5.03931
-5.01901
-4.99818
-5.41484
-5.39406
-5.37953
-5.36314
-5.34631
-5.32958
-5.31213
-5.29574
-5.27945
-5.26526
-5.25387
-5.23884
-5.22325
-5.20921
-5.19461
-5.17832
-5.16018
-5.14247
-5.12504
-5.1065
-5.0885
-5.07266
-5.04842
-5.46081
-5.44203
-5.42794
-5.40946
-5.39217
-5.37535
-5.35819
-5.34119
-5.32405
-5.30822
-5.29249
-5.27823
-5.26793
-5.25349
-5.23716
-5.22185
-5.20704
-5.19086
-5.17283
-5.1553
-5.13802
-5.11869
-5.09883
-5.08153
-5.4845
-5.47488
-5.45673
-5.44004
-5.42226
-5.40531
-5.38834
-5.37103
-5.35383
-5.33638
-5.32026
-5.30522
-5.29153
-5.2814
-5.26791
-5.25159
-5.23603
-5.22092
-5.20448
-5.18662
-5.16795
-5.14928
-5.1307
-5.1122
-5.52373
-5.50234
-5.48742
-5.47137
-5.45346
-5.43606
-5.419
-5.40188
-5.38445
-5.36691
-5.34892
-5.33181
-5.3167
-5.30361
-5.29227
-5.27945
-5.2648
-5.24948
-5.23424
-5.21781
-5.20005
-5.18327
-5.16373
-5.54501
-5.53313
-5.51673
-5.50027
-5.48441
-5.46731
-5.44999
-5.43324
-5.41618
-5.39856
-5.38053
-5.36211
-5.3446
-5.32883
-5.31495
-5.30241
-5.29038
-5.27677
-5.26175
-5.2466
-5.23002
-5.21094
-5.196
-5.57544
-5.55995
-5.5443
-5.52835
-5.51305
-5.49721
-5.48069
-5.46378
-5.44724
-5.43046
-5.4129
-5.39446
-5.37615
-5.35837
-5.34245
-5.32856
-5.31506
-5.30289
-5.28937
-5.27427
-5.25991
-5.24449