/*--------------------------------*- C++ -*----------------------------------*\
  =========                 |
  \\      /  F ield         | OpenFOAM: The Open Source CFD Toolbox
   \\    /   O peration     | Website:  https://openfoam.org
    \\  /    A nd           | Version:  8
     \\/     M anipulation  |
\*---------------------------------------------------------------------------*/
FoamFile
{
    version     2.0;
    format      ascii;
    class       volScalarField;
    location    "135";
    object      epsilon;
}
// * * * * * * * * * * * * * * * * * * * * * * * * * * * * * * * * * * * * * //

dimensions      [0 2 -3 0 0 0 0];

internalField   nonuniform List<scalar> 
12225
(
285.519
270.703
257.908
243.823
232.437
223.121
216.756
212.715
212.744
213.968
217.237
220.911
228.139
232.891
241.377
246.788
255.338
263.337
52.4832
91.9124
106.941
114.798
124.795
136.863
152.633
170.003
191.121
211.049
235.361
255.63
281.429
299.563
325.608
339.841
366.493
375.612
20.3164
34.8739
44.6541
50.4973
55.3656
59.6492
64.6232
69.6983
76.2803
83.263
91.4221
99.4488
108.19
117.195
125.617
135.864
142.842
155.222
15.3444
19.7046
24.1011
27.5823
30.4822
32.8886
35.1374
37.3172
39.4833
41.9491
44.3221
47.2493
49.6791
53.1147
55.4527
59.3622
61.6147
66.0258
14.6495
15.8631
17.3628
19.0807
20.6314
22.034
23.2387
24.4406
25.4373
26.6058
27.5192
28.773
29.6348
31.007
31.8338
33.3033
34.1417
35.7586
14.7065
14.8767
15.2001
15.8695
16.5634
17.29
17.9207
18.5878
19.117
19.738
20.1927
20.804
21.2112
21.8303
22.2076
22.8407
23.2032
23.8968
14.7421
14.6201
14.6246
14.737
14.9287
15.2203
15.4902
15.8101
16.0703
16.384
16.6183
16.9221
17.1326
17.4304
17.6202
17.919
18.0915
18.4216
14.7626
14.5867
14.4636
14.3814
14.3667
14.39
14.4379
14.5341
14.6184
14.7371
14.831
14.9572
15.0485
15.1777
15.263
15.3949
15.4743
15.6264
14.7666
14.5909
14.4345
14.2964
14.1849
14.1044
14.0396
14.0067
13.9814
13.9786
13.9809
13.9918
14.0043
14.03
14.0479
14.0807
14.1052
14.1489
14.7663
14.594
14.432
14.2821
14.1429
14.0219
13.9115
13.8193
13.7369
13.6698
13.6102
13.5633
13.5181
13.4873
13.4518
13.4346
13.4028
13.4023
14.7658
14.5945
14.4321
14.2803
14.1361
14.0032
13.8781
13.7644
13.6581
13.5628
13.4734
13.3951
13.3197
13.256
13.1915
13.1409
13.084
13.0456
14.7657
14.5943
14.4321
14.2798
14.1353
13.9998
13.8715
13.7518
13.6384
13.5336
13.434
13.3429
13.2556
13.177
13.1002
13.0328
12.9647
12.9075
14.7657
14.5941
14.432
14.2794
14.1349
13.9989
13.8698
13.7484
13.6331
13.5249
13.4219
13.3256
13.2337
13.1483
13.0662
12.9905
12.9172
12.8503
14.7657
14.5939
14.4318
14.279
14.1346
13.9983
13.8691
13.7472
13.6315
13.5222
13.4184
13.3203
13.227
13.1389
13.055
12.9759
12.9003
12.8293
14.7657
14.5938
14.4317
14.2787
14.1342
13.9977
13.8686
13.7464
13.6306
13.521
13.417
13.3185
13.2248
13.1361
13.0516
12.9715
12.8953
12.8229
14.7657
14.5937
14.4316
14.2785
14.1339
13.9973
13.8681
13.7458
13.63
13.5202
13.4161
13.3174
13.2237
13.1347
13.0501
12.9698
12.8933
12.8207
14.7657
14.5937
14.4315
14.2783
14.1337
13.997
13.8677
13.7453
13.6294
13.5196
13.4154
13.3166
13.2228
13.1337
13.049
12.9686
12.892
12.8193
14.7657
14.5937
14.4314
14.2782
14.1335
13.9968
13.8674
13.745
13.629
13.5191
13.4149
13.316
13.2221
13.133
13.0482
12.9677
12.8911
12.8182
14.7657
14.5937
14.4314
14.2782
14.1335
13.9967
13.8673
13.7449
13.6288
13.5189
13.4146
13.3157
13.2218
13.1326
13.0478
12.9672
12.8905
12.8176
14.7657
14.5937
14.4314
14.2783
14.1336
13.9968
13.8674
13.745
13.629
13.5191
13.4148
13.316
13.222
13.1328
13.048
12.9675
12.8908
12.8179
14.7657
14.5937
14.4315
14.2784
14.1338
13.997
13.8678
13.7453
13.6295
13.5196
13.4155
13.3167
13.223
13.1339
13.0494
12.969
12.8928
12.82
14.7657
14.5937
14.4316
14.2785
14.1341
13.9975
13.8685
13.7464
13.6312
13.5221
13.4191
13.3214
13.2294
13.1419
13.0595
12.9811
12.9074
12.8369
14.7658
14.5937
14.4318
14.2788
14.1353
14.0002
13.8742
13.756
13.6464
13.5435
13.4485
13.3592
13.277
13.1993
13.1283
13.0602
12.9989
12.9387
14.7655
14.5928
14.4328
14.2844
14.1515
14.0321
13.929
13.8375
13.7593
13.6894
13.6307
13.5769
13.5328
13.4905
13.4574
13.423
13.3989
13.3693
14.7592
14.5932
14.4603
14.3602
14.3029
14.2766
14.2805
14.2921
14.321
14.3531
14.3959
14.4345
14.4824
14.5216
14.5719
14.6089
14.6616
14.6938
14.7213
14.6911
14.754
14.9176
15.1828
15.461
15.7475
16.0119
16.2722
16.5037
16.7359
16.9384
17.1505
17.3307
17.5308
17.6935
17.8887
18.036
14.7477
15.5124
16.5472
17.6841
18.7043
19.5674
20.337
20.9965
21.6191
22.1657
22.7185
23.2104
23.7395
24.2039
24.7323
25.1824
25.7249
26.1661
15.9872
20.992
25.0238
27.7603
29.7845
31.3581
32.7766
34.0572
35.3586
36.6153
37.9743
39.2959
40.7604
42.1445
43.7168
45.1729
46.8835
48.3591
29.9032
47.218
54.8691
58.6728
61.613
64.4305
67.5786
70.9749
74.7354
78.7106
82.9811
87.3399
91.9006
96.4457
101.097
105.62
110.175
114.579
165.798
160.075
154.899
149.564
144.479
139.677
135.614
132.108
129.27
126.973
125.319
124.043
123.339
122.824
122.84
122.958
123.283
123.828
1.9191
1.43288
2.28759
3.08325
3.86815
4.63998
5.39163
6.10742
6.76392
7.32762
7.75117
7.96145
7.83984
7.18869
7.22744
7.47628
7.73599
8.11199
8.70503
43.0011
42.63
41.7776
44.9455
45.1272
41.5927
47.2639
51.409
56.1635
61.06
66.1936
71.5201
77.0534
82.7644
88.6736
94.7545
101.039
107.496
114.16
121.002
128.063
135.311
142.795
150.484
158.427
166.588
175.01
183.645
192.549
201.684
211.103
220.766
230.729
240.95
251.486
262.296
273.435
284.86
296.627
308.69
321.108
333.831
346.915
360.313
374.079
388.162
402.611
417.379
432.506
447.946
463.731
479.819
496.229
512.921
529.898
547.127
564.589
582.251
600.076
618.028
636.048
654.108
672.132
690.126
708.054
726.067
744.154
762.103
779.865
797.428
814.668
831.525
847.961
863.886
879.242
893.925
907.873
920.968
933.138
944.261
954.298
963.173
970.91
977.51
982.924
986.38
988.216
986.379
985.822
983.678
980.038
974.819
968.228
960.343
951.205
940.939
929.577
917.199
903.582
889.33
874.415
859.008
843.218
827.211
811.076
794.941
778.85
762.915
747.17
731.708
716.552
701.772
687.385
673.437
659.94
646.918
634.38
622.329
610.763
599.671
589.064
578.947
569.309
560.144
551.42
543.118
535.203
527.653
520.425
513.494
506.825
500.396
494.179
488.179
482.684
478.852
475.512
472.337
469.233
466.184
463.033
459.072
455.05
451.565
448.383
445.3
442.333
439.495
436.791
434.228
431.798
429.499
427.315
425.23
423.208
421.203
419.124
416.828
413.981
409.739
387.223
5.36819
3.15363
3.05278
3.34835
3.82281
4.40328
5.05739
5.76175
6.49481
7.23515
7.9863
8.78301
9.69826
10.7437
12.0062
13.3801
14.6263
17.0212
20.4218
23.9979
26.1039
27.2851
28.6831
29.7648
30.8307
33.3246
35.7473
38.2348
40.779
43.3882
46.0594
48.7982
51.607
54.4955
57.4656
60.5105
63.63
66.8302
70.1109
73.4787
76.9335
80.4822
84.124
87.8651
91.7031
95.6418
99.6784
103.82
108.064
112.417
116.876
121.449
126.132
130.932
135.845
140.878
146.026
151.295
156.681
162.189
167.815
173.561
179.425
185.407
191.504
197.715
204.036
210.465
216.996
223.627
230.349
237.159
244.046
251.004
258.021
265.088
272.19
279.316
286.452
293.586
300.708
307.81
314.902
322.003
329.164
336.459
343.791
351.039
358.196
365.227
372.113
378.833
385.36
391.667
397.721
403.493
408.948
414.054
418.772
423.076
426.935
430.331
433.231
435.585
437.241
438.207
438.349
438.528
438.014
436.899
435.134
432.804
429.928
426.538
422.662
418.331
413.568
408.389
402.896
397.119
391.11
384.923
378.609
372.214
365.777
359.328
352.902
346.524
340.223
334.018
327.932
321.979
316.176
310.53
305.053
299.749
294.621
289.671
284.9
280.31
275.906
271.682
267.637
263.761
260.05
256.49
253.076
249.793
246.632
243.582
240.635
237.785
235.042
232.49
230.361
228.431
226.584
224.732
222.818
220.865
218.788
216.747
214.873
213.094
211.37
209.698
208.085
206.53
205.039
203.607
202.234
200.913
199.643
198.415
197.221
196.058
194.903
193.876
192.856
191.276
9.7806
5.06956
4.43926
4.49323
4.82191
5.32285
5.95344
6.69258
7.52919
8.46268
9.48728
10.5981
11.803
13.0731
14.3648
15.6646
17.0243
18.6051
20.3699
22.1823
23.8381
25.3982
26.9981
28.6417
30.4122
32.3702
34.3702
36.4158
38.5136
40.6671
42.8765
45.1431
47.4679
49.8577
52.3093
54.8225
57.398
60.0379
62.7434
65.5168
68.3593
71.2731
74.2591
77.3191
80.4534
83.6634
86.9498
90.3144
93.758
97.2822
100.888
104.576
108.347
112.203
116.143
120.169
124.28
128.476
132.758
137.125
141.576
146.112
150.73
155.43
160.21
165.07
170.005
175.014
180.093
185.239
190.45
195.72
201.045
206.42
211.84
217.3
222.795
228.318
233.866
239.434
245.021
250.626
256.253
261.906
267.59
273.303
279.004
284.659
290.252
295.765
301.18
306.479
311.644
316.65
321.476
326.095
330.483
334.61
338.45
341.977
345.164
347.985
350.413
352.415
353.951
354.987
355.511
355.764
355.64
354.981
353.829
352.223
350.181
347.727
344.883
341.676
338.13
334.277
330.161
325.816
321.28
316.593
311.793
306.915
301.987
297.039
292.093
287.174
282.302
277.494
272.766
268.132
263.6
259.181
254.881
250.704
246.654
242.732
238.939
235.277
231.747
228.347
225.074
221.924
218.89
215.967
213.148
210.426
207.793
205.242
202.766
200.361
198.03
195.804
193.745
191.792
189.898
188.027
186.154
184.282
182.388
180.52
178.719
176.972
175.264
173.595
171.966
170.379
168.837
167.334
165.87
164.444
163.053
161.699
160.38
159.112
157.906
156.905
156.138
156.032
14.4008
7.164
6.01026
5.8727
6.11304
6.57359
7.19389
7.94593
8.81294
9.78259
10.8413
11.9719
13.1501
14.3987
15.6645
16.9298
18.2326
19.6369
21.1439
22.7048
24.2903
25.9149
27.5914
29.3221
31.1141
32.9838
34.902
36.8669
38.883
40.9502
43.0684
45.2371
47.4541
49.7253
52.0529
54.4383
56.8826
59.3871
61.9528
64.5811
67.273
70.03
72.8529
75.7426
78.6998
81.7256
84.8206
87.9862
91.223
94.5322
97.9143
101.37
104.901
108.506
112.187
115.943
119.775
123.682
127.665
131.722
135.854
140.059
144.337
148.685
153.107
157.599
162.158
166.782
171.47
176.219
181.026
185.888
190.803
195.768
200.78
205.835
210.932
216.066
221.237
226.441
231.678
236.945
242.243
247.569
252.922
258.286
263.64
268.966
274.251
279.477
284.629
289.691
294.643
299.466
304.137
308.632
312.926
316.994
320.808
324.342
327.569
330.463
332.997
335.144
336.88
338.19
339.058
339.505
339.622
339.257
338.431
337.164
335.475
333.385
330.914
328.089
324.937
321.488
317.777
313.839
309.709
305.423
301.016
296.52
291.965
287.377
282.781
278.199
273.65
269.152
264.72
260.366
256.1
251.931
247.864
243.905
240.055
236.318
232.695
229.186
225.79
222.508
219.334
216.265
213.297
210.424
207.641
204.94
202.316
199.761
197.271
194.84
192.467
190.161
187.942
185.788
183.68
181.604
179.549
177.51
175.478
173.465
171.488
169.546
167.637
165.759
163.915
162.106
160.335
158.59
156.877
155.198
153.554
151.947
150.384
148.886
147.482
146.303
145.416
145.211
18.9082
9.27992
7.60687
7.28423
7.43063
7.84078
8.43102
9.16245
10.0119
10.9622
11.9977
13.1029
14.2617
15.4619
16.7043
17.9944
19.335
20.7251
22.1774
23.6892
25.2562
26.8786
28.5554
30.286
32.0705
33.9093
35.7976
37.7344
39.7191
41.755
43.8435
45.9865
48.186
50.4435
52.7586
55.1318
57.564
60.0561
62.609
65.2241
67.9022
70.6449
73.4535
76.3279
79.2689
82.2772
85.3538
88.4996
91.7155
95.0024
98.361
101.792
105.296
108.874
112.526
116.252
120.053
123.928
127.877
131.9
135.997
140.166
144.407
148.717
153.101
157.555
162.078
166.667
171.321
176.038
180.817
185.655
190.551
195.502
200.506
205.562
210.667
215.82
221.018
226.26
231.543
236.864
242.221
247.61
253.024
258.451
263.877
269.291
274.68
280.028
285.321
290.542
295.673
300.695
305.585
310.319
314.872
319.218
323.329
327.175
330.73
333.963
336.849
339.358
341.47
343.163
344.429
345.235
345.609
345.57
345.052
344.072
342.649
340.801
338.551
335.923
332.947
329.653
326.075
322.247
318.207
313.99
309.632
305.166
300.623
296.03
291.415
286.8
282.207
277.653
273.155
268.725
264.376
260.114
255.947
251.88
247.915
244.057
240.305
236.66
233.121
229.687
226.353
223.117
219.974
216.918
213.945
211.047
208.22
205.456
202.75
200.096
197.492
194.938
192.437
189.982
187.564
185.176
182.814
180.472
178.145
175.837
173.553
171.296
169.066
166.864
164.694
162.557
160.457
158.388
156.354
154.358
152.403
150.493
148.641
146.869
145.215
143.792
142.666
142.056
23.1196
11.3017
9.12554
8.61783
8.66402
9.01338
9.55955
10.2533
11.0664
11.9797
12.9782
14.0491
15.1818
16.3687
17.606
18.8928
20.2298
21.6192
23.0643
24.5663
26.1249
27.7397
29.41
31.135
32.9143
34.7477
36.6343
38.574
40.5673
42.6154
44.7195
46.8809
49.1007
51.38
53.7193
56.1193
58.5808
61.1048
63.6921
66.3436
69.0602
71.8427
74.6915
77.6082
80.5937
83.6491
86.7754
89.9737
93.2448
96.5898
100.01
103.505
107.077
110.726
114.453
118.258
122.141
126.104
130.145
134.266
138.465
142.742
147.098
151.532
156.042
160.629
165.29
170.024
174.831
179.708
184.654
189.669
194.749
199.893
205.101
210.37
215.698
221.085
226.527
232.022
237.568
243.16
248.795
254.465
260.163
265.883
271.615
277.348
283.071
288.77
294.431
300.038
305.571
311.011
316.336
321.521
326.539
331.362
335.96
340.302
344.358
348.094
351.481
354.488
357.088
359.257
360.976
362.23
362.964
363.25
363.06
362.363
361.181
359.534
357.442
354.933
352.036
348.782
345.208
341.35
337.245
332.934
328.453
323.838
319.123
314.338
309.513
304.673
299.842
295.039
290.283
285.587
280.964
276.423
271.973
267.618
263.362
259.208
255.158
251.212
247.368
243.625
239.978
236.425
232.96
229.58
226.278
223.048
219.884
216.78
213.731
210.729
207.772
204.856
201.98
199.139
196.328
193.544
190.784
188.045
185.324
182.621
179.939
177.281
174.648
172.044
169.471
166.934
164.434
161.973
159.555
157.182
154.861
152.598
150.409
148.319
146.366
144.648
143.214
142.172
26.8906
13.1439
10.4965
9.80242
9.75015
10.0325
10.5282
11.178
11.9497
12.8228
13.7826
14.818
15.9205
17.0839
18.3043
19.5795
20.909
22.2933
23.7334
25.23
26.7835
28.394
30.0615
31.786
33.5673
35.4057
37.3013
39.2547
41.2663
43.3372
45.4682
47.6607
49.9155
52.2336
54.6158
57.0631
59.5763
62.1564
64.8042
67.5209
70.3071
73.1641
76.0927
79.0941
82.1694
85.3199
88.5467
91.851
95.2339
98.6967
102.24
105.866
109.575
113.368
117.246
121.209
125.259
129.396
133.62
137.93
142.329
146.814
151.387
156.046
160.791
165.621
170.534
175.531
180.61
185.769
191.007
196.322
201.714
207.18
212.72
218.33
224.01
229.757
235.569
241.443
247.377
253.366
259.405
265.49
271.614
277.77
283.95
290.146
296.346
302.537
308.705
314.833
320.905
326.897
332.789
338.554
344.163
349.587
354.793
359.747
364.414
368.76
372.748
376.343
379.514
382.229
384.463
386.195
387.393
388.043
388.191
387.789
386.85
385.393
383.437
381.011
378.145
374.874
371.234
367.267
363.012
358.513
353.808
348.939
343.941
338.851
333.699
328.515
323.324
318.15
313.013
307.927
302.908
297.967
293.11
288.346
283.679
279.112
274.646
270.283
266.019
261.854
257.783
253.804
249.911
246.099
242.363
238.697
235.095
231.551
228.058
224.611
221.204
217.834
214.497
211.191
207.91
204.653
201.418
198.203
195.007
191.831
188.676
185.546
182.442
179.369
176.332
173.335
170.383
167.479
164.629
161.837
159.111
156.462
153.904
151.464
149.179
147.132
145.349
143.876
30.1357
14.7517
11.6776
10.8021
10.6563
10.8722
11.3165
11.9219
12.6523
13.4862
14.4087
15.4097
16.4814
17.6183
18.8167
20.0743
21.3897
22.7628
24.1936
25.6825
27.2299
28.8363
30.5018
32.2271
34.0126
35.8588
37.7663
39.7361
41.7687
43.8656
46.0276
48.2561
50.5521
52.917
55.3516
57.8571
60.4346
63.0851
65.8098
68.6097
71.486
74.4398
77.4724
80.5852
83.7792
87.0561
90.4172
93.8639
97.3976
101.02
104.732
108.535
112.431
116.421
120.506
124.687
128.965
133.341
137.814
142.387
147.058
151.828
156.697
161.664
166.728
171.89
177.147
182.499
187.945
193.482
199.111
204.828
210.633
216.523
222.496
228.551
234.685
240.896
247.181
253.537
259.961
266.449
272.996
279.598
286.248
292.941
299.669
306.424
313.196
319.971
326.736
333.475
340.17
346.799
353.339
359.763
366.041
372.141
378.028
383.665
389.014
394.034
398.685
402.927
406.722
410.032
412.827
415.076
416.758
417.836
418.331
418.24
417.551
416.28
414.449
412.086
409.224
405.899
402.152
398.025
393.564
388.814
383.819
378.624
373.269
367.794
362.235
356.623
350.988
345.356
339.749
334.185
328.679
323.246
317.893
312.63
307.461
302.39
297.418
292.547
287.775
283.099
278.517
274.023
269.614
265.285
261.03
256.843
252.717
248.647
244.627
240.651
236.713
232.809
228.935
225.088
221.265
217.465
213.686
209.927
206.189
202.472
198.78
195.114
191.481
187.884
184.33
180.825
177.375
173.987
170.666
167.421
164.26
161.195
158.242
155.429
152.788
150.388
148.234
146.341
32.8192
16.0994
12.653
11.6115
11.3776
11.5303
11.9253
12.4881
13.1795
13.9766
14.8643
15.8325
16.874
17.9837
19.158
20.3945
21.692
23.0497
24.4673
25.9451
27.4836
29.0835
30.7454
32.4703
34.259
36.1123
38.0314
40.0172
42.0708
44.1936
46.3873
48.6537
50.9941
53.41
55.9028
58.4739
61.1245
63.856
66.6699
69.5674
72.5499
75.619
78.776
82.0226
85.3604
88.791
92.316
95.9374
99.6568
103.476
107.397
111.421
115.55
119.785
124.128
128.581
133.144
137.818
142.605
147.504
152.516
157.641
162.879
168.229
173.691
179.264
184.947
190.739
196.637
202.641
208.748
214.956
221.263
227.667
234.165
240.754
247.432
254.195
261.041
267.966
274.965
282.036
289.173
296.372
303.626
310.931
318.278
325.659
333.066
340.485
347.904
355.306
362.673
369.984
377.215
384.338
391.323
398.134
404.736
411.087
417.146
422.869
428.21
433.123
437.565
441.493
444.867
447.654
449.824
451.349
452.215
452.434
451.993
450.902
449.184
446.867
443.987
440.582
436.695
432.373
427.665
422.62
417.287
411.714
405.948
400.031
394.003
387.902
381.758
375.602
369.458
363.347
357.288
351.293
345.374
339.541
333.799
328.152
322.604
317.154
311.801
306.543
301.376
296.297
291.3
286.381
281.535
276.754
272.033
267.365
262.746
258.169
253.629
249.121
244.643
240.19
235.76
231.353
226.967
222.604
218.264
213.95
209.664
205.412
201.199
197.031
192.916
188.862
184.877
180.969
177.147
173.42
169.799
166.297
162.931
159.725
156.709
153.94
151.407
149.11
34.9407
17.1837
13.4261
12.2388
11.9243
12.0187
12.3678
12.891
13.5462
14.3091
15.1643
16.1017
17.1141
18.1968
19.3462
20.5602
21.8378
23.1786
24.5805
26.0443
27.5711
29.162
30.8182
32.5409
34.3314
36.191
38.1209
40.1225
42.1966
44.3439
46.5691
48.8746
51.262
53.733
56.2895
58.9332
61.6658
64.4891
67.4047
70.4144
73.5198
76.723
80.0256
83.4297
86.9371
90.55
94.2704
98.1004
102.042
106.098
110.27
114.559
118.969
123.501
128.156
132.937
137.844
142.879
148.043
153.336
158.759
164.311
169.993
175.804
181.743
187.808
193.999
200.314
206.75
213.305
219.977
226.762
233.659
240.663
247.771
254.979
262.285
269.683
277.169
284.74
292.391
300.117
307.913
315.773
323.693
331.664
339.68
347.733
355.814
363.911
372.011
380.097
388.153
396.158
404.086
411.91
419.599
427.117
434.425
441.481
448.239
454.652
460.669
466.24
471.316
475.848
479.791
483.104
485.75
487.702
488.939
489.456
489.248
488.322
486.695
484.403
481.482
477.972
473.919
469.372
464.384
459.009
453.3
447.31
441.09
434.687
428.146
421.507
414.807
408.077
401.346
394.637
387.969
381.36
374.822
368.364
361.993
355.716
349.534
343.448
337.457
331.558
325.749
320.025
314.382
308.814
303.316
297.881
292.505
287.18
281.901
276.663
271.46
266.29
261.147
256.031
250.938
245.869
240.824
235.805
230.813
225.853
220.928
216.045
211.21
206.432
201.721
197.085
192.535
188.081
183.733
179.504
175.404
171.448
167.654
164.043
160.641
157.495
154.581
151.896
36.5247
18.015
14.0102
12.7003
12.3144
12.3567
12.6637
13.1505
13.7723
14.5037
15.3288
16.2372
17.2222
18.279
19.4035
20.5941
21.8503
23.1731
24.5588
26.0088
27.5241
29.106
30.7562
32.4762
34.2679
36.1329
38.0732
40.0906
42.1864
44.3616
46.6221
48.9704
51.4097
53.9425
56.5711
59.2977
62.1246
65.0539
68.0878
71.2285
74.4782
77.8392
81.3139
84.9046
88.6137
92.4438
96.3973
100.477
104.685
109.024
113.497
118.106
122.853
127.74
132.77
137.944
143.264
148.73
154.344
160.107
166.019
172.079
178.287
184.642
191.143
197.788
204.574
211.501
218.564
225.76
233.086
240.539
248.113
255.804
263.608
271.52
279.534
287.645
295.848
304.137
312.507
320.951
329.463
338.038
346.667
355.344
364.061
372.81
381.58
390.362
399.142
407.904
416.632
425.305
433.899
442.387
450.736
458.912
466.874
474.579
481.977
489.02
495.653
501.823
507.474
512.555
517.013
520.803
523.882
526.218
527.785
528.568
528.558
527.767
526.199
523.902
520.911
517.269
513.022
508.222
502.926
497.191
491.075
484.637
477.93
471.008
463.919
456.708
449.415
442.075
434.719
427.374
420.062
412.799
405.601
398.478
391.439
384.489
377.63
370.865
364.192
357.608
351.111
344.697
338.36
332.096
325.899
319.763
313.682
307.65
301.663
295.715
289.801
283.918
278.064
272.236
266.435
260.659
254.91
249.192
243.508
237.862
232.261
226.712
221.223
215.805
210.469
205.226
200.089
195.069
190.179
185.432
180.841
176.422
172.19
168.167
164.374
160.848
157.556
154.503
37.6035
18.6099
14.4234
13.0162
12.5698
12.5671
12.836
13.2896
13.8812
14.5843
15.3815
16.263
17.2227
18.2578
19.3612
20.5316
21.7679
23.0688
24.4345
25.8673
27.3687
28.9407
30.5851
32.3044
34.1008
35.9771
37.9353
39.9781
42.1078
44.3264
46.6309
49.0313
51.5324
54.1393
56.8549
59.6819
62.6231
65.6811
68.8587
72.1586
75.5836
79.1367
82.8206
86.6385
90.5932
94.6878
98.9253
103.309
107.841
112.525
117.364
122.359
127.515
132.833
138.315
143.963
149.778
155.762
161.915
168.239
174.731
181.393
188.222
195.218
202.379
209.701
217.181
224.817
232.604
240.538
248.614
256.826
265.169
273.637
282.222
290.919
299.721
308.62
317.609
326.68
335.827
345.041
354.315
363.64
373.008
382.41
391.838
401.281
410.731
420.176
429.603
438.998
448.343
457.62
466.806
475.873
484.792
493.527
502.038
510.281
518.208
525.766
532.9
539.553
545.67
551.192
556.065
560.239
563.665
566.306
568.132
569.125
569.253
568.545
566.984
564.637
561.539
557.731
553.259
548.178
542.546
536.425
529.878
522.966
515.749
508.284
500.623
492.817
484.907
476.933
468.93
460.924
452.941
445
437.116
429.302
421.566
413.915
406.351
398.877
391.491
384.191
376.973
369.835
362.771
355.776
348.844
341.97
335.148
328.373
321.64
314.944
308.281
301.649
295.046
288.47
281.923
275.405
268.92
262.47
256.062
249.701
243.396
237.155
230.989
224.91
218.931
213.064
207.325
201.727
196.285
191.013
185.925
181.037
176.366
171.93
167.745
163.843
160.186
156.784
38.2504
18.9973
14.6879
13.2079
12.7105
12.6714
12.9082
13.333
13.898
14.5771
15.3523
16.2124
17.1497
18.1584
19.2369
20.3845
21.6007
22.8861
24.241
25.6665
27.1644
28.7367
30.3861
32.1156
33.9288
35.8296
37.819
39.8997
42.0754
44.3489
46.7178
49.1927
51.7814
54.4887
57.3189
60.2773
63.3672
66.5919
69.9544
73.4584
77.1074
80.9051
84.8549
88.9606
93.2257
97.6537
102.248
107.013
111.95
117.064
122.358
127.833
133.494
139.341
145.377
151.604
158.022
164.633
171.436
178.431
185.618
192.995
200.56
208.311
216.243
224.354
232.638
241.092
249.709
258.483
267.408
276.476
285.679
295.01
304.459
314.018
323.678
333.428
343.26
353.163
363.128
373.145
383.204
393.293
403.402
413.522
423.64
433.746
443.829
453.879
463.88
473.821
483.685
493.454
503.105
512.615
521.956
531.093
539.989
548.6
556.879
564.774
572.231
579.192
585.602
591.402
596.536
600.949
604.591
607.418
609.395
610.5
610.682
609.974
608.348
605.893
602.639
598.622
593.891
588.499
582.507
575.979
568.982
561.579
553.837
545.815
537.571
529.157
520.62
512.002
503.339
494.662
485.998
477.367
468.786
460.268
451.822
443.455
435.171
426.97
418.853
410.818
402.861
394.978
387.165
379.416
371.726
364.091
356.503
348.96
341.455
333.985
326.548
319.141
311.763
304.414
297.096
289.812
282.566
275.363
268.211
261.116
254.089
247.14
240.283
233.53
226.897
220.4
214.053
207.873
201.876
196.079
190.496
185.142
180.035
175.191
170.622
166.355
162.345
158.619
38.4078
19.1733
14.8143
13.2919
12.7594
12.6929
12.9051
13.3095
13.8539
14.5103
15.2618
16.0999
17.0187
18.0136
19.0816
20.2215
21.4328
22.7166
24.0741
25.5081
27.0189
28.6089
30.2818
32.0414
33.8918
35.8369
37.874
40.011
42.2538
44.6078
47.0787
49.6729
52.3965
55.2556
58.2556
61.4024
64.7017
68.1576
71.7744
75.5565
79.5086
83.635
87.9402
92.4284
97.1036
101.97
107.031
112.292
117.754
123.421
129.297
135.383
141.682
148.195
154.924
161.869
169.032
176.411
184.006
191.815
199.836
208.067
216.503
225.14
233.974
242.998
252.207
261.594
271.15
280.868
290.738
300.751
310.897
321.166
331.545
342.024
352.59
363.232
373.936
384.691
395.483
406.3
417.129
427.957
438.769
449.553
460.296
470.985
481.607
492.149
502.599
512.944
523.168
533.254
543.184
552.936
562.484
571.799
580.847
589.587
597.973
605.958
613.49
620.515
626.981
632.83
638.008
642.458
646.129
648.975
650.954
652.036
652.156
651.331
649.552
646.917
643.446
639.174
634.147
628.417
622.044
615.095
607.637
599.739
591.468
582.889
574.062
565.043
555.882
546.623
537.305
527.961
518.619
509.302
500.026
490.806
481.65
472.567
463.56
454.631
445.779
437.003
428.299
419.664
411.093
402.58
394.122
385.713
377.348
369.022
360.732
352.475
344.248
336.051
327.884
319.748
311.646
303.583
295.564
287.596
279.689
271.851
264.095
256.434
248.881
241.452
234.166
227.038
220.087
213.33
206.786
200.472
194.402
188.594
183.063
177.823
172.884
168.267
163.923
159.893
38.3017
19.19
14.8305
13.2919
12.7427
12.6605
12.8557
13.239
13.7656
14.4095
15.1539
15.9887
16.9079
17.9066
18.9819
20.1333
21.3609
22.666
24.0502
25.5158
27.0608
28.6914
30.4127
32.2298
34.1477
36.1718
38.3075
40.5606
42.9373
45.4443
48.0887
50.8775
53.8175
56.9157
60.1789
63.6144
67.2279
71.0261
75.0151
79.2007
83.5881
88.1827
92.9893
98.0128
103.257
108.727
114.426
120.358
126.524
132.929
139.573
146.458
153.586
160.955
168.568
176.421
184.515
192.846
201.412
210.21
219.235
228.481
237.943
247.615
257.489
267.556
277.808
288.236
298.829
309.576
320.467
331.488
342.628
353.872
365.207
376.619
388.092
399.612
411.162
422.728
434.295
445.845
457.363
468.834
480.24
491.565
502.793
513.91
524.899
535.748
546.444
556.973
567.321
577.475
587.418
597.132
606.598
615.791
624.68
633.231
641.403
649.155
656.439
663.211
669.422
675.024
679.964
684.19
687.651
690.301
692.099
692.977
692.89
691.796
689.771
686.878
683.127
678.552
673.194
667.105
660.341
652.968
645.053
636.668
627.881
618.761
609.369
599.764
589.999
580.12
570.168
560.178
550.179
540.195
530.243
520.338
510.489
500.704
490.987
481.34
471.763
462.254
452.81
443.427
434.102
424.829
415.603
406.421
397.277
388.168
379.091
370.043
361.025
352.035
343.075
334.149
325.26
316.415
307.622
298.889
290.227
281.649
273.167
264.798
256.556
248.46
240.53
232.785
225.242
217.924
210.849
204.035
197.497
191.252
185.316
179.693
174.394
169.443
164.798
160.517
37.9295
19.0984
14.7757
13.2381
12.6764
12.5842
12.7745
13.1608
13.6947
14.3492
15.1086
15.9632
16.9069
17.932
19.0392
20.229
21.5027
22.8623
24.3108
25.8518
27.4892
29.2278
31.0733
33.032
35.1106
37.3161
39.6563
42.1385
44.7705
47.5608
50.5176
53.6494
56.9644
60.471
64.1766
68.0883
72.2145
76.5651
81.1496
85.9742
91.044
96.364
101.939
107.773
113.87
120.233
126.864
133.765
140.937
148.381
156.095
164.08
172.332
180.849
189.629
198.666
207.957
217.496
227.277
237.292
247.535
257.996
268.667
279.537
290.597
301.835
313.239
324.797
336.497
348.324
360.264
372.304
384.428
396.619
408.862
421.14
433.435
445.728
458.004
470.242
482.425
494.535
506.552
518.457
530.233
541.858
553.316
564.588
575.658
586.511
597.133
607.513
617.637
627.494
637.071
646.359
655.342
664.004
672.322
680.264
687.802
694.899
701.519
707.627
713.188
718.164
722.509
726.177
729.126
731.313
732.717
733.156
732.651
731.123
728.749
725.507
721.408
716.477
710.753
704.283
697.119
689.323
680.961
672.104
662.821
653.181
643.249
633.085
622.741
612.268
601.708
591.098
580.466
569.837
559.23
548.658
538.133
527.661
517.247
506.893
496.599
486.364
476.185
466.058
455.98
445.946
435.952
425.995
416.07
406.174
396.306
386.465
376.65
366.863
357.107
347.388
337.71
328.083
318.516
309.019
299.607
290.292
281.092
272.024
263.104
254.355
245.798
237.453
229.34
221.481
213.899
206.6
199.608
192.943
186.63
180.676
175.075
169.848
164.948
160.441
37.2087
18.8844
14.6407
13.1298
12.5902
12.5256
12.7466
13.1649
13.7309
14.4232
15.228
16.1375
17.1468
18.2542
19.4588
20.7622
22.1666
23.6759
25.2945
27.0281
28.8831
30.8662
32.9851
35.2482
37.6643
40.2428
42.9934
45.9257
49.0498
52.3762
55.915
59.6765
63.6704
67.9065
72.3937
77.1413
82.1593
87.4596
93.0481
98.9299
105.11
111.591
118.376
125.467
132.862
140.562
148.564
156.866
165.465
174.354
183.53
192.986
202.715
212.71
222.962
233.461
244.2
255.166
266.351
277.743
289.33
301.101
313.042
325.141
337.386
349.76
362.252
374.846
387.528
400.283
413.095
425.949
438.827
451.713
464.589
477.436
490.237
502.972
515.62
528.163
540.58
552.853
564.959
576.88
588.592
600.077
611.314
622.283
632.967
643.351
653.421
663.167
672.576
681.64
690.354
698.714
706.713
714.344
721.591
728.432
734.846
740.807
746.291
751.277
755.753
759.695
763.064
765.822
767.947
769.398
770.104
769.928
768.771
766.781
763.977
760.337
755.864
750.574
744.498
737.677
730.16
722.002
713.262
704.009
694.312
684.238
673.853
663.215
652.381
641.4
630.317
619.167
607.982
596.785
585.597
574.43
563.295
552.199
541.147
530.142
519.183
508.271
497.403
486.575
475.785
465.028
454.302
443.603
432.928
422.277
411.647
401.039
390.456
379.899
369.374
358.888
348.448
338.065
327.75
317.519
307.385
297.365
287.478
277.744
268.182
258.815
249.668
240.752
232.095
223.725
215.675
207.964
200.593
193.585
186.97
180.715
174.839
169.361
164.219
159.528
36.3218
18.5294
14.4411
13.0177
12.5492
12.5464
12.8253
13.31
13.9598
14.7521
15.675
16.7223
17.8916
19.1835
20.5998
22.1442
23.8219
25.6392
27.6037
29.7239
32.009
34.4692
37.1153
39.9589
43.0117
46.2859
49.7934
53.5466
57.5579
61.8392
66.402
71.2574
76.4154
81.8857
87.6769
93.7969
100.253
107.05
114.202
121.706
129.558
137.755
146.291
155.158
164.351
173.859
183.672
193.781
204.173
214.838
225.762
236.933
248.337
259.96
271.788
283.808
296.006
308.366
320.877
333.523
346.292
359.168
372.138
385.189
398.305
411.475
424.681
437.912
451.152
464.389
477.605
490.788
503.921
516.987
529.969
542.851
555.612
568.235
580.7
592.987
605.076
616.949
628.583
639.957
651.05
661.839
672.305
682.429
692.192
701.581
710.585
719.192
727.39
735.174
742.548
749.514
756.078
762.243
767.999
773.331
778.223
782.665
786.65
790.177
793.26
795.899
798.042
799.665
800.785
801.38
801.249
800.239
798.498
796.046
792.838
788.847
784.065
778.497