/*--------------------------------*- C++ -*----------------------------------*\
  =========                 |
  \\      /  F ield         | OpenFOAM: The Open Source CFD Toolbox
   \\    /   O peration     | Website:  https://openfoam.org
    \\  /    A nd           | Version:  8
     \\/     M anipulation  |
\*---------------------------------------------------------------------------*/
FoamFile
{
    version     2.0;
    format      ascii;
    class       volScalarField;
    location    "135";
    object      k;
}
// * * * * * * * * * * * * * * * * * * * * * * * * * * * * * * * * * * * * * //

dimensions      [0 2 -2 0 0 0 0];

internalField   nonuniform List<scalar> 
12225
(
0.362833
0.343998
0.327736
0.309835
0.295367
0.283528
0.275441
0.270305
0.270341
0.27191
0.27604
0.280751
0.289881
0.29587
0.306922
0.312943
0.325676
0.328041
0.440285
0.468731
0.461616
0.448367
0.450352
0.458324
0.474368
0.498863
0.524195
0.552534
0.580647
0.606664
0.633988
0.654474
0.680507
0.693822
0.720589
0.726244
0.390419
0.417849
0.420243
0.416823
0.41164
0.4078
0.408002
0.410043
0.414454
0.421574
0.43065
0.439937
0.451168
0.461496
0.472963
0.484254
0.493942
0.507898
0.377049
0.387163
0.391468
0.391342
0.39026
0.387883
0.385656
0.384085
0.382867
0.382897
0.383368
0.384378
0.386282
0.38857
0.390974
0.394439
0.396831
0.401643
0.374436
0.376091
0.378429
0.378664
0.378275
0.377201
0.375486
0.373738
0.372005
0.370454
0.369249
0.368118
0.367369
0.366833
0.366455
0.366406
0.366453
0.366908
0.37378
0.372703
0.372659
0.372365
0.371773
0.370818
0.369552
0.368082
0.366568
0.364976
0.363521
0.362065
0.360746
0.359533
0.358394
0.357444
0.356459
0.355844
0.373775
0.371739
0.370388
0.369283
0.368235
0.367114
0.365914
0.364586
0.363235
0.361807
0.360417
0.359022
0.357671
0.356379
0.355113
0.353964
0.352792
0.351814
0.373819
0.371559
0.369635
0.367976
0.3665
0.365107
0.363774
0.362428
0.361105
0.359764
0.358446
0.35714
0.355857
0.354616
0.353393
0.352242
0.351091
0.350049
0.373832
0.371553
0.369449
0.367525
0.365776
0.364153
0.362643
0.361198
0.359815
0.358471
0.357166
0.355899
0.354662
0.353469
0.3523
0.351188
0.350089
0.349066
0.373831
0.37156
0.369418
0.367405
0.365528
0.363772
0.362132
0.360584
0.35912
0.357726
0.356392
0.355114
0.353884
0.352705
0.351563
0.350475
0.349413
0.348415
0.373829
0.37156
0.369413
0.367378
0.365458
0.363645
0.361936
0.360323
0.358797
0.357351
0.355977
0.354669
0.353421
0.352231
0.35109
0.350004
0.348955
0.347966
0.373828
0.371558
0.369409
0.36737
0.365439
0.363608
0.361875
0.360233
0.358676
0.3572
0.355798
0.354466
0.353198
0.351992
0.350839
0.349744
0.348693
0.347699
0.373827
0.371556
0.369405
0.367365
0.36543
0.363593
0.36185
0.360196
0.358625
0.357133
0.355714
0.354366
0.353083
0.351862
0.350699
0.349593
0.348534
0.347532
0.373827
0.371555
0.369401
0.367359
0.365422
0.363583
0.361837
0.360177
0.3586
0.3571
0.355673
0.354316
0.353023
0.351794
0.350621
0.349506
0.34844
0.347429
0.373826
0.371553
0.369398
0.367355
0.365416
0.363575
0.361826
0.360164
0.358584
0.357081
0.35565
0.354289
0.352992
0.351758
0.350581
0.34946
0.34839
0.347371
0.373826
0.371552
0.369396
0.367351
0.36541
0.363567
0.361817
0.360153
0.358571
0.357066
0.355634
0.354271
0.352972
0.351735
0.350556
0.349431
0.34836
0.347337
0.373825
0.371551
0.369394
0.367348
0.365406
0.363562
0.36181
0.360145
0.358562
0.357055
0.355622
0.354257
0.352956
0.351718
0.350537
0.349411
0.348337
0.347313
0.373825
0.371551
0.369393
0.367346
0.365403
0.363558
0.361805
0.360139
0.358555
0.357048
0.355613
0.354247
0.352945
0.351705
0.350523
0.349396
0.34832
0.347294
0.373825
0.37155
0.369393
0.367346
0.365402
0.363557
0.361804
0.360137
0.358552
0.357044
0.355609
0.354242
0.352939
0.351699
0.350515
0.349387
0.348311
0.347284
0.373825
0.371551
0.369393
0.367347
0.365404
0.363559
0.361806
0.36014
0.358555
0.357048
0.355612
0.354246
0.352943
0.351702
0.350519
0.349391
0.348314
0.347287
0.373826
0.371551
0.369395
0.367349
0.365407
0.363563
0.361812
0.360146
0.358563
0.357056
0.355622
0.354257
0.352956
0.351717
0.350536
0.349409
0.348335
0.347309
0.373826
0.371552
0.369397
0.367352
0.365412
0.363571
0.361822
0.360162
0.358584
0.357084
0.355657
0.3543
0.353008
0.351776
0.350604
0.349485
0.348418
0.347399
0.373826
0.371554
0.369399
0.367359
0.365429
0.363603
0.361875
0.360241
0.358691
0.357221
0.355824
0.354495
0.353228
0.35202
0.350867
0.349764
0.348712
0.347702
0.373828
0.371551
0.369412
0.367417
0.365556
0.363819
0.36219
0.360651
0.359189
0.357794
0.356457
0.355172
0.353937
0.352746
0.351601
0.350496
0.349437
0.34841
0.373823
0.371554
0.369604
0.367893
0.366339
0.364892
0.363495
0.362122
0.360761
0.359414
0.358081
0.35677
0.355489
0.354238
0.353029
0.351856
0.350734
0.349645
0.373781
0.37199
0.371113
0.370265
0.36936
0.368311
0.367048
0.36563
0.364121
0.362575
0.36103
0.359522
0.358073
0.356682
0.355381
0.354141
0.353009
0.351924
0.374297
0.375564
0.377778
0.377858
0.377291
0.375885
0.373835
0.371641
0.369505
0.367482
0.365663
0.364084
0.362709
0.361534
0.360609
0.359817
0.359288
0.358801
0.378732
0.394394
0.398294
0.396566
0.392559
0.387608
0.383641
0.380454
0.378264
0.37685
0.376494
0.376746
0.377396
0.378693
0.380439
0.382419
0.384824
0.387136
0.408344
0.427538
0.422423
0.411049
0.402225
0.39792
0.398552
0.401111
0.405977
0.413028
0.420984
0.429815
0.438821
0.448177
0.457293
0.466541
0.475313
0.484178
0.366033
0.353411
0.341988
0.330209
0.318982
0.308382
0.299408
0.291674
0.285402
0.280331
0.27668
0.273864
0.272307
0.27118
0.271172
0.271517
0.272151
0.273383
0.00663001
0.0226227
0.0360695
0.0485593
0.0608125
0.0727756
0.0842531
0.094951
0.104418
0.112169
0.117659
0.120205
0.12003
0.11726
0.121689
0.128691
0.134501
0.139779
0.142275
0.14002
0.143878
0.146716
0.149876
0.15093
0.149427
0.161534
0.170271
0.180466
0.190582
0.200997
0.211511
0.222174
0.23291
0.243761
0.254676
0.26571
0.276808
0.288029
0.299321
0.310748
0.322262
0.333931
0.345706
0.357655
0.369719
0.381945
0.394276
0.406781
0.419406
0.432216
0.445157
0.458293
0.471568
0.485048
0.498675
0.512515
0.526506
0.540713
0.555075
0.569655
0.58439
0.59934
0.614445
0.629761
0.645226
0.660892
0.6767
0.692692
0.708814
0.7251
0.741498
0.758032
0.774655
0.791376
0.808155
0.824984
0.841826
0.858655
0.875436
0.892126
0.908695
0.925085
0.941286
0.957257
0.973079
0.988826
1.00443
1.01972
1.03474
1.04937
1.06359
1.07738
1.09066
1.10341
1.11554
1.12701
1.13775
1.14772
1.15682
1.165
1.1722
1.17842
1.18363
1.18789
1.19114
1.1929
1.19314
1.19052
1.18901
1.18614
1.18184
1.17637
1.16976
1.16206
1.15335
1.14364
1.13301
1.1213
1.10879
1.09561
1.08186
1.06764
1.05309
1.03828
1.02332
1.00826
0.993194
0.978161
0.963252
0.948491
0.933956
0.919666
0.90568
0.89201
0.878696
0.865752
0.853196
0.841031
0.829262
0.817905
0.806974
0.796471
0.786396
0.776727
0.767457
0.758565
0.750047
0.741917
0.73451
0.728459
0.722897
0.717605
0.712534
0.707641
0.702896
0.698328
0.693863
0.68914
0.683796
0.678429
0.673481
0.669034
0.664903
0.660787
0.656763
0.652874
0.649129
0.645521
0.642055
0.638731
0.635548
0.632493
0.62956
0.626716
0.623923
0.621099
0.618103
0.614605
0.609687
0.586821
0.0185816
0.0472881
0.0657884
0.0803826
0.0935412
0.106143
0.118369
0.130105
0.141071
0.150957
0.15952
0.166851
0.173931
0.183372
0.194431
0.205535
0.216692
0.227635
0.237867
0.245135
0.255406
0.267751
0.280763
0.296869
0.319529
0.339746
0.356777
0.373891
0.391514
0.409585
0.427977
0.446635
0.465509
0.48459
0.50386
0.523331
0.54299
0.56285
0.582907
0.603184
0.623684
0.644436
0.665454
0.686778
0.708435
0.730358
0.752539
0.775003
0.797749
0.8208
0.844157
0.867842
0.891853
0.916212
0.940919
0.965993
0.991431
1.01725
1.04345
1.07005
1.09703
1.12442
1.15221
1.18041
1.20902
1.23804
1.26746
1.2973
1.32753
1.35817
1.3892
1.42061
1.4524
1.48454
1.51702
1.54982
1.58292
1.61629
1.64988
1.68365
1.71756
1.75155
1.78553
1.81941
1.85307
1.88636
1.91941
1.95229
1.98491
2.0172
2.04905
2.0804
2.11112
2.14113
2.17029
2.19848
2.22557
2.25144
2.27595
2.29893
2.32017
2.33955
2.35695
2.37224
2.38535
2.39609
2.40441
2.4095
2.41227
2.41396
2.41263
2.40867
2.40224
2.39344
2.38238
2.36918
2.35397
2.33688
2.31808
2.29773
2.27602
2.25314
2.22928
2.20465
2.1794
2.15369
2.12767
2.10148
2.07523
2.04905
2.02304
1.9973
1.97189
1.9469
1.92238
1.89837
1.87493
1.85207
1.82982
1.80821
1.78727
1.76701
1.74744
1.72852
1.71027
1.69264
1.67563
1.65922
1.64347
1.62846
1.61399
1.59996
1.58628
1.57285
1.55955
1.54643
1.53351
1.52076
1.50817
1.49578
1.48375
1.47198
1.46037
1.44889
1.43759
1.42648
1.41558
1.40485
1.39432
1.38398
1.37381
1.3638
1.35392
1.34414
1.33439
1.32463
1.31468
1.30481
1.29336
1.26313
0.0338339
0.0727975
0.0953289
0.112684
0.128095
0.142687
0.156899
0.170871
0.184591
0.198031
0.211255
0.224539
0.238387
0.253267
0.268779
0.284568
0.300532
0.316597
0.332627
0.348681
0.366217
0.385141
0.405329
0.4271
0.450288
0.473204
0.495745
0.518402
0.541384
0.564727
0.588403
0.612386
0.636646
0.661169
0.685941
0.71096
0.736219
0.761725
0.787478
0.813489
0.839766
0.866324
0.89317
0.920321
0.947779
0.975549
1.00364
1.03206
1.06082
1.08993
1.11941
1.14927
1.17952
1.21016
1.24121
1.27267
1.30454
1.33685
1.36958
1.40275
1.43635
1.47039
1.50487
1.53979
1.57514
1.61093
1.64715
1.6838
1.72086
1.75834
1.79622
1.8345
1.87315
1.91216
1.95152
1.99121
2.0312
2.07147
2.11198
2.15271
2.19363
2.23468
2.27583
2.31703
2.35824
2.39939
2.44043
2.48131
2.52194
2.56222
2.60204
2.64128
2.67982
2.71753
2.75425
2.78983
2.82409
2.85687
2.88799
2.91724
2.94445
2.96944
2.99202
3.01205
3.02939
3.0439
3.05554
3.06391
3.06893
3.07134
3.07118
3.06762
3.06096
3.05134
3.03888
3.02374
3.00605
2.98602
2.96383
2.93969
2.9138
2.88642
2.85776
2.82806
2.79752
2.76635
2.73471
2.70279
2.67073
2.6387
2.6068
2.57515
2.54387
2.51302
2.48268
2.45292
2.42377
2.39528
2.36749
2.34041
2.31409
2.28852
2.26371
2.23966
2.21633
2.19371
2.17177
2.15049
2.12986
2.10987
2.09042
2.07146
2.0529
2.03465
2.01664
1.99887
1.98133
1.96405
1.94705
1.93028
1.91374
1.89738
1.88114
1.86506
1.84915
1.83344
1.81793
1.80262
1.78752
1.77262
1.75791
1.74338
1.729
1.71476
1.70064
1.68664
1.67275
1.6594
1.64537
1.62045
0.0498
0.0970983
0.123868
0.144105
0.161781
0.178353
0.194485
0.210496
0.226533
0.24268
0.259032
0.275737
0.292978
0.310877
0.329364
0.34835
0.367793
0.387703
0.40812
0.429163
0.451069
0.473898
0.497658
0.522348
0.547806
0.57367
0.599803
0.626238
0.653013
0.68014
0.707608
0.735405
0.763512
0.791917
0.82061
0.849588
0.878846
0.908387
0.938213
0.96833
0.998745
1.02947
1.06051
1.09187
1.12357
1.15561
1.18801
1.22077
1.25391
1.28744
1.32137
1.3557
1.39046
1.42565
1.46127
1.49734
1.53386
1.57083
1.60826
1.64615
1.6845
1.72332
1.76259
1.80233
1.84252
1.88316
1.92426
1.96579
2.00776
2.05015
2.09296
2.13617
2.17978
2.22376
2.26811
2.3128
2.35782
2.40315
2.44877
2.49464
2.54074
2.58704
2.6335
2.68008
2.72674
2.7734
2.82001
2.8665
2.91276
2.9587
3.00419
3.04911
3.09332
3.13668
3.17902
3.22017
3.25993
3.29811
3.33451
3.36891
3.40111
3.43088
3.45805
3.4824
3.50378
3.52203
3.53703
3.54864
3.55662
3.5609
3.56234
3.56012
3.55435
3.54517
3.53271
3.51711
3.49856
3.47725
3.4534
3.42723
3.39899
3.36894
3.33734
3.30444
3.27047
3.23566
3.20023
3.16436
3.12825
3.09206
3.05593
3.02
2.98438
2.94917
2.91446
2.88032
2.8468
2.81395
2.78181
2.75041
2.71978
2.68993
2.66085
2.63255
2.605
2.57817
2.55204
2.52658
2.50176
2.47754
2.45386
2.43066
2.40788
2.38545
2.36331
2.34142
2.31979
2.29841
2.27728
2.25637
2.23563
2.21505
2.19459
2.17429
2.15415
2.1342
2.11445
2.09492
2.07559
2.0565
2.03762
2.01896
2.0005
1.98227
1.96427
1.94658
1.92933
1.913
1.8967
1.87423
0.0653528
0.119949
0.150788
0.173884
0.193796
0.212252
0.230099
0.247788
0.265571
0.283601
0.301986
0.320832
0.340237
0.360275
0.380969
0.402319
0.424326
0.447005
0.470373
0.494458
0.519295
0.544909
0.571294
0.598422
0.626216
0.654564
0.683381
0.712628
0.742282
0.772329
0.802751
0.833535
0.864665
0.896135
0.927934
0.96006
0.992508
1.02528
1.05837
1.09179
1.12555
1.15965
1.19409
1.22889
1.26406
1.2996
1.33553
1.37186
1.4086
1.44575
1.48334
1.52137
1.55984
1.59878
1.63819
1.67807
1.71842
1.75926
1.80059
1.84241
1.88471
1.9275
1.97078
2.01454
2.05878
2.10349
2.14868
2.19432
2.24042
2.28696
2.33393
2.38133
2.42915
2.47736
2.52595
2.57492
2.62425
2.67392
2.7239
2.77419
2.82474
2.87554
2.92655
2.97773
3.02903
3.0804
3.13176
3.18305
3.23418
3.28503
3.3355
3.38544
3.43473
3.48321
3.53071
3.57703
3.62198
3.66534
3.70689
3.74641
3.78365
3.81838
3.85037
3.8794
3.90526
3.92777
3.94676
3.96209
3.97365
3.98111
3.98479
3.98484
3.98095
3.97322
3.96178
3.94678
3.92842
3.90688
3.8824
3.85524
3.82565
3.79391
3.76031
3.72512
3.68861
3.65101
3.61259
3.57354
3.53409
3.49441
3.45469
3.41505
3.37565
3.33659
3.29796
3.25985
3.22233
3.18546
3.14927
3.1138
3.07908
3.04512
3.01193
2.97948
2.94778
2.9168
2.8865
2.85685
2.82782
2.79936
2.77143
2.74396
2.7169
2.6902
2.66379
2.63765
2.61176
2.58609
2.56064
2.53538
2.51028
2.48532
2.46049
2.43581
2.41129
2.38697
2.36285
2.33896
2.31532
2.29193
2.26882
2.24598
2.22344
2.20123
2.17941
2.15813
2.13757
2.11828
2.09953
2.07722
0.0798651
0.140609
0.17514
0.200899
0.222903
0.243094
0.262458
0.281547
0.300693
0.320111
0.339944
0.360302
0.381269
0.402915
0.425281
0.448393
0.472263
0.496903
0.52231
0.548486
0.575421
0.603109
0.631529
0.660651
0.690429
0.720808
0.751735
0.783168
0.815076
0.847433
0.880218
0.913417
0.947015
0.981001
1.01537
1.0501
1.08521
1.12069
1.15653
1.19275
1.22934
1.26631
1.30366
1.34141
1.37957
1.41813
1.45712
1.49654
1.53641
1.57673
1.61751
1.65878
1.70052
1.74277
1.78551
1.82876
1.87253
1.91681
1.96161
2.00693
2.05277
2.09914
2.14601
2.19341
2.24131
2.28971
2.3386
2.38798
2.43784
2.48817
2.53895
2.59018
2.64184
2.69393
2.74643
2.79932
2.8526
2.90625
2.96025
3.01457
3.06921
3.12413
3.17929
3.23468
3.29023
3.34591
3.40165
3.45738
3.51302
3.56847
3.62362
3.67833
3.73248
3.78591
3.83843
3.88986
3.94
3.9886
4.03544
4.08027
4.12282
4.16284
4.20007
4.23426
4.26515
4.29253
4.31618
4.33592
4.35164
4.36317
4.37023
4.37321
4.37208
4.36668
4.35714
4.34363
4.3263
4.30538
4.28109
4.2537
4.2235
4.19078
4.15585
4.11899
4.08049
4.04065
3.99971
3.95792
3.91553
3.87272
3.82971
3.78664
3.74368
3.70095
3.65856
3.61661
3.57516
3.5343
3.49406
3.4545
3.41563
3.37748
3.34005
3.30332
3.2673
3.23196
3.19728
3.16321
3.12973
3.09678
3.06433
3.03231
3.00069
2.96941
2.93842
2.90769
2.87719
2.84689
2.81678
2.78683
2.75704
2.72739
2.69788
2.66851
2.63932
2.61034
2.58159
2.5531
2.52491
2.49703
2.4695
2.44235
2.4156
2.38934
2.36365
2.33871
2.31479
2.2924
2.27091
2.24741
0.0928497
0.158576
0.196299
0.224416
0.248301
0.270062
0.290781
0.311086
0.33137
0.351897
0.372845
0.394346
0.416493
0.439356
0.462982
0.487404
0.512637
0.538688
0.565553
0.593224
0.621682
0.650909
0.680877
0.711558
0.742916
0.774912
0.807507
0.840669
0.874366
0.908574
0.943269
0.978437
1.01406
1.05013
1.08664
1.12357
1.16092
1.1987
1.2369
1.27551
1.31455
1.35402
1.39392
1.43426
1.47504
1.51629
1.558
1.60018
1.64286
1.68603
1.72971
1.77391
1.81863
1.8639
1.9097
1.95606
2.00298
2.05045
2.09848
2.14708
2.19623
2.24595
2.29621
2.34703
2.39839
2.45028
2.50269
2.55562
2.60906
2.66299
2.7174
2.77229
2.82763
2.88341
2.93962
2.99625
3.05329
3.11072
3.16851
3.22667
3.28516
3.34396
3.40305
3.46239
3.52196
3.5817
3.64157
3.7015
3.76143
3.82126
3.88089
3.9402
3.99907
4.05733
4.11481
4.17133
4.22666
4.28058
4.33284
4.38317
4.43129
4.47692
4.51977
4.55955
4.59597
4.62876
4.65768
4.68251
4.70305
4.71916
4.73067
4.7374
4.73975
4.73747
4.73064
4.71938
4.70387
4.68429
4.6609
4.63397
4.60379
4.57067
4.53495
4.49692
4.45691
4.41523
4.37215
4.32796
4.2829
4.23722
4.19111
4.14478
4.09838
4.05206
4.00595
3.96016
3.91477
3.86986
3.82549
3.78171
3.73854
3.69602
3.65414
3.61292
3.57233
3.53238
3.49302
3.45423
3.41597
3.37821
3.3409
3.30399
3.26745
3.23122
3.19527
3.15955
3.12405
3.08873
3.05358
3.01859
2.98375
2.94905
2.9145
2.88012
2.84594
2.81199
2.77832
2.74497
2.71198
2.6794
2.64726
2.61563
2.58455
2.55412
2.52447
2.49581
2.46842
2.44277
2.41829
2.39266
0.104018
0.173625
0.213994
0.244115
0.269637
0.292792
0.314722
0.336107
0.35738
0.37884
0.400696
0.423097
0.446152
0.469936
0.494503
0.519886
0.546106
0.573168
0.601071
0.629804
0.65935
0.689688
0.720793
0.752637
0.785191
0.818424
0.852307
0.886811
0.92191
0.95758
0.993802
1.03056
1.06784
1.10562
1.1439
1.18267
1.22193
1.26167
1.30189
1.34258
1.38376
1.42542
1.46757
1.51021
1.55336
1.59702
1.64119
1.6859
1.73115
1.77695
1.82331
1.87025
1.91776
1.96586
2.01456
2.06386
2.11377
2.16429
2.21542
2.26716
2.31951
2.37246
2.426
2.48014
2.53486
2.59015
2.646
2.7024
2.75933
2.81678
2.87474
2.93318
2.9921
3.05149
3.11131
3.17157
3.23224
3.29331
3.35477
3.41659
3.47877
3.54127
3.60409
3.66719
3.73055
3.79413
3.8579
3.9218
3.98578
4.04976
4.11364
4.17734
4.24071
4.30362
4.36591
4.42739
4.48785
4.54705
4.60474
4.66064
4.71445
4.76588
4.81459
4.86027
4.90259
4.94123
4.97592
5.00636
5.03233
5.05363
5.07008
5.08155
5.08801
5.08958
5.08619
5.07793
5.06493
5.0474
5.02557
4.99972
4.97016
4.93721
4.90121
4.8625
4.82141
4.77828
4.73342
4.68713
4.63968
4.59133
4.54232
4.49286
4.44313
4.39329
4.34349
4.29385
4.24448
4.19546
4.14685
4.09873
4.05111
4.00404
3.95752
3.91157
3.86617
3.82132
3.777
3.73319
3.68985
3.64694
3.60444
3.56229
3.52047
3.47893
3.43764
3.39656
3.35568
3.31497
3.27442
3.23402
3.19378
3.15369
3.11378
3.07407
3.0346
2.99541
2.95657
2.91812
2.88012
2.84264
2.80574
2.76949
2.73396
2.69929
2.6656
2.63315
2.6022
2.57318
2.54553
2.51749
0.113249
0.185754
0.228231
0.259995
0.286899
0.311257
0.33425
0.356586
0.378725
0.400984
0.423592
0.446713
0.470466
0.494938
0.520187
0.546253
0.573158
0.600914
0.629522
0.658973
0.689255
0.720351
0.75224
0.784899
0.818305
0.852434
0.887261
0.922765
0.958924
0.995717
1.03313
1.07113
1.10973
1.1489
1.18864
1.22894
1.26979
1.31119
1.35314
1.39564
1.43868
1.48228
1.52643
1.57114
1.61643
1.66229
1.70873
1.75578
1.80343
1.85169
1.90058
1.95011
2.00028
2.05111
2.1026
2.15475
2.20757
2.26106
2.31522
2.37004
2.42553
2.48167
2.53847
2.5959
2.65395
2.71262
2.77188
2.83172
2.89212
2.95307
3.01454
3.07652
3.13898
3.20191
3.26529
3.3291
3.39332
3.45794
3.52294
3.5883
3.654
3.72004
3.78639
3.85304
3.91996
3.98713
4.05453
4.12211
4.18984
4.25765
4.32547
4.39321
4.46077
4.52803
4.59482
4.66099
4.72631
4.79058
4.85353
4.91488
4.97432
5.03153
5.08616
5.13786
5.18627
5.23103
5.27181
5.30826
5.34012
5.36711
5.38904
5.40574
5.41711
5.42316
5.42387
5.41928
5.40949
5.39467
5.37505
5.3509
5.32255
5.29033
5.25459
5.21569
5.17398
5.12982
5.08355
5.03548
4.98594
4.93518
4.88348
4.83106
4.77813
4.72488
4.67146
4.61802
4.56466
4.5115
4.45861
4.40605
4.35387
4.30211
4.2508
4.19993
4.14952
4.09956
4.05005
4.00095
3.95225
3.90392
3.85592
3.80823
3.76081
3.71364
3.66668
3.61992
3.57333
3.5269
3.48062
3.43451
3.38856
3.3428
3.29725
3.25194
3.20693
3.16228
3.11804
3.0743
3.03113
2.98861
2.94682
2.90585
2.86581
2.82683
2.78907
2.75278
2.71822
2.68575
2.65484
2.62414
0.120539
0.195105
0.239196
0.272261
0.300288
0.325647
0.349541
0.37269
0.395566
0.418495
0.441715
0.465401
0.489679
0.514644
0.540361
0.566876
0.594217
0.622403
0.651438
0.681322
0.712046
0.743599
0.775968
0.809137
0.843088
0.877805
0.91327
0.949467
0.986377
1.02399
1.06228
1.10124
1.14085
1.18112
1.22203
1.26357
1.30574
1.34854
1.39196
1.43601
1.48069
1.526
1.57194
1.61853
1.66577
1.71366
1.76222
1.81146
1.86138
1.91199
1.96331
2.01535
2.06811
2.12159
2.17581
2.23077
2.28647
2.34291
2.40009
2.458
2.51663
2.57598
2.63603
2.69677
2.75818
2.82025
2.88294
2.94625
3.01015
3.0746
3.1396
3.20511
3.27111
3.33757
3.40447
3.47178
3.53948
3.60756
3.67599
3.74475
3.81383
3.88321
3.95288
4.02283
4.09303
4.16349
4.23417
4.30507
4.37614
4.44735
4.51866
4.58998
4.66125
4.73235
4.80317
4.87354
4.94328
5.01218
5.07999
5.14643
5.21119
5.27395
5.33432
5.39194
5.44641
5.49734
5.54433
5.58701
5.62503
5.65808
5.68591
5.70829
5.72507
5.7362
5.74163
5.74136
5.73545
5.72399
5.70722
5.68542
5.6589
5.628
5.59307
5.5545
5.51267
5.46793
5.42066
5.37121
5.31991
5.26705
5.21293
5.15779
5.10187
5.04537
4.98847
4.93132
4.87405
4.81679
4.75962
4.70262
4.64584
4.58933
4.53312
4.47723
4.42168
4.36646
4.31157
4.25701
4.20275
4.14878
4.09507
4.04159
3.98834
3.93528
3.8824
3.82969
3.77713
3.72472
3.67247
3.6204
3.56851
3.51685
3.46543
3.41433
3.36359
3.3133
3.26352
3.21436
3.1659
3.11825
3.0715
3.02577
2.98118
2.93788
2.89604
2.8559
2.81771
2.78179
2.7476
2.71415
0.125969
0.201903
0.247172
0.28122
0.31012
0.336273
0.360891
0.3847
0.408169
0.431631
0.455324
0.479427
0.504073
0.52936
0.55536
0.582126
0.609691
0.638083
0.667312
0.697385
0.7283
0.760056
0.792643
0.826055
0.860281
0.895314
0.931142
0.967756
1.00514
1.04329
1.08219
1.12184
1.16221
1.20331
1.24513
1.28766
1.33091
1.37488
1.41955
1.46495
1.51106
1.5579
1.60546
1.65377
1.70281
1.75261
1.80317
1.8545
1.90661
1.9595
2.0132
2.0677
2.12302
2.17915
2.2361
2.29388
2.35248
2.41189
2.47212
2.53316
2.59499
2.65759
2.72096
2.78507
2.8499
2.91542
2.98161
3.04844
3.11587
3.18388
3.25243
3.32149
3.39103
3.46101
3.5314
3.60216
3.67328
3.74471
3.81645
3.88846
3.96072
4.03323
4.10596
4.17891
4.25207
4.32542
4.39897
4.47271
4.54661
4.62068
4.69487
4.76915
4.84346
4.91774
4.99188
5.06576
5.13922
5.21207
5.28408
5.355
5.42451
5.49229
5.55796
5.62113
5.68137
5.73826
5.79137
5.84026
5.88453
5.92383
5.95781
5.98621
6.00883
6.02553
6.03622
6.04089
6.0395
6.03207
6.01881
6.00001
5.97595
5.94699
5.91348
5.87581
5.83438
5.78959
5.74181
5.69142
5.63876
5.58418
5.52798
5.47044
5.41181
5.35231
5.29213
5.23147
5.17045
5.10922
5.04787
4.9865
4.92517
4.86393
4.80283
4.74189
4.68115
4.62061
4.56027
4.50014
4.44021
4.38047
4.3209
4.2615
4.20225
4.14314
4.08416
4.02533
3.96662
3.90807
3.84967
3.79146
3.73348
3.67575
3.61834
3.56131
3.50472
3.44869
3.39329
3.33863
3.28484
3.23202
3.1803
3.12981
3.08068
3.03308
2.9872
2.94325
2.90146
2.86212
2.8247
2.78851
0.129651
0.206397
0.25247
0.287218
0.316753
0.343495
0.368654
0.392955
0.416864
0.44071
0.464732
0.489106
0.513968
0.53942
0.565541
0.592386
0.619997
0.648407
0.677633
0.707692
0.73859
0.770331
0.802915
0.836342
0.870612
0.905724
0.941678
0.978472
1.0161
1.05456
1.09384
1.13394
1.17485
1.21656
1.25908
1.3024
1.34653
1.39147
1.43722
1.48379
1.53118
1.5794
1.62846
1.67837
1.72913
1.78075
1.83324
1.88662
1.94089
1.99606
2.05213
2.10911
2.16701
2.22582
2.28556
2.34621
2.40777
2.47024
2.53361
2.59786
2.66297
2.72892
2.79569
2.86326
2.93159
3.00065
3.07041
3.14082
3.21185
3.28346
3.35559
3.42822
3.50129
3.57477
3.6486
3.72275
3.79718
3.87185
3.94673
4.0218
4.09702
4.17237
4.24785
4.32343
4.39912
4.47491
4.5508
4.62679
4.7029
4.77912
4.85545
4.93189
5.00841
5.08498
5.16153
5.23798
5.31421
5.39007
5.46536
5.53984
5.61324
5.68523
5.75545
5.8235
5.88895
5.95134
6.0102
6.06506
6.11546
6.16098
6.20123
6.23586
6.26462
6.28728
6.30372
6.31391
6.31756
6.31491
6.30581
6.29066
6.26973
6.24337
6.21192
6.17579
6.13538
6.0911
6.04336
5.99254
5.93904
5.8832
5.82535
5.7658
5.70482
5.64266
5.57953
5.51562
5.4511
5.38612
5.32079
5.25521
5.18946
5.12362
5.05772
4.99182
4.92594
4.8601
4.79433
4.72864
4.66302
4.59748
4.53201
4.46662
4.40131
4.33608
4.27093
4.20588
4.14095
4.07616
4.01153
3.94711
3.88294
3.81909
3.75561
3.6926
3.63013
3.56832
3.50728
3.44714
3.38802
3.33006
3.27341
3.2182
3.1646
3.11278
3.06291
3.01523
2.96993
2.92726
2.88672
2.84789
0.13184
0.208866
0.255405
0.290597
0.320548
0.347678
0.373197
0.397819
0.422006
0.446083
0.470284
0.494787
0.519726
0.545202
0.571295
0.598066
0.625564
0.653827
0.682886
0.712764
0.743481
0.775054
0.807463
0.840723
0.874851
0.909859
0.945754
0.982543
1.02023
1.05882
1.09831
1.13869
1.17997
1.22215
1.26521
1.30914
1.35401
1.3998
1.44651
1.49415
1.54272
1.59225
1.64274
1.6942
1.74665
1.80009
1.85452
1.90997
1.96644
2.02393
2.08244
2.14198
2.20256
2.26416
2.32678
2.39042
2.45507
2.52072
2.58734
2.65492
2.72343
2.79285
2.86314
2.93427
3.0062
3.07888
3.15227
3.22633
3.30099
3.37622
3.45194
3.52812
3.60468
3.68159
3.75877
3.83618
3.91376
3.99148
4.06928
4.14712
4.22498
4.30282
4.38063
4.45839
4.53609
4.61374
4.69132
4.76887
4.8464
4.92394
5.00151
5.07914
5.15683
5.23459
5.31242
5.39027
5.46808
5.54573
5.62308
5.69994
5.77606
5.85115
5.92488
5.99686
6.06665
6.13379
6.1978
6.25814
6.31433
6.36586
6.41229
6.45321
6.48827
6.51718
6.53971
6.55574
6.5652
6.56781
6.56375
6.55293
6.53584
6.51278
6.4841
6.4502
6.41148
6.36838
6.3213
6.27067
6.21689
6.16033
6.10136
6.04029
5.97743
5.91304
5.84735
5.78058
5.71291
5.6445
5.57548
5.50596
5.43604
5.3658
5.29531
5.22461
5.15375
5.08276
5.01167
4.94051
4.86928
4.79801
4.7267
4.65537
4.58403
4.5127
4.44141
4.37016
4.29901
4.22798
4.15712
4.0865
4.01616
3.94619
3.87668
3.8077
3.73939
3.67185
3.60522
3.53965
3.47529
3.41228
3.35079
3.29098
3.23302
3.17709
3.12337
3.07207
3.02338
2.97753
2.93401
2.89272
0.132308
0.209377
0.256174
0.291627
0.321817
0.349162
0.374868
0.399647
0.423958
0.448117
0.472354
0.496842
0.521715
0.547076
0.573007
0.599574
0.626831
0.654821
0.683583
0.713152
0.743561
0.774847
0.806974
0.839973
0.873865
0.908672
0.944409
0.98109
1.01873
1.05733
1.0969
1.13746
1.17901
1.22155
1.26508
1.30961
1.3552
1.40184
1.4495
1.49817
1.54792
1.59877
1.65072
1.70379
1.75799
1.81333
1.86982
1.92746
1.98625
2.04621
2.10732
2.16959
2.23301
2.29756
2.36325
2.43006
2.49796
2.56694
2.63698
2.70804
2.78009
2.8531
2.92701
3.00179
3.07739
3.15374
3.2308
3.3085
3.38678
3.46557
3.54481
3.62443
3.70435
3.78451
3.86485
3.94528
4.02575
4.10619
4.18655
4.26678
4.34683
4.42667
4.50627
4.5856
4.66466
4.74343
4.82194
4.90019
4.97822
5.05607
5.1338
5.21146
5.2891
5.36677
5.44453
5.52239
5.60034
5.67833
5.75628
5.83404
5.91144
5.98824
6.06415
6.13881
6.21181
6.28268
6.35094
6.41602
6.47739
6.53451
6.58685
6.63394
6.67534
6.71066
6.73958
6.76186
6.77741
6.78609
6.78763
6.78211
6.76959
6.7506
6.72547
6.69456
6.65829
6.6171
6.57141
6.52166
6.46826
6.41163
6.35214
6.29014
6.22595
6.15986
6.09212
6.02296
5.95258
5.88116
5.80884
5.73575
5.662
5.58769
5.51289
5.43767
5.36208
5.28617
5.20999
5.13355
5.05691
4.98007
4.90308
4.82595
4.74872
4.67142
4.59408
4.51675
4.43947
4.36231
4.28532
4.20859
4.13218
4.0562
3.98074
3.90592
3.83186
3.75872
3.68664
3.61578
3.54632
3.47841
3.41224
3.34798
3.28584
3.22597
3.16857
3.11383
3.06193
3.01307
2.96678
2.9232
0.1319
0.208697
0.255424
0.290867
0.321061
0.348414
0.374121
0.398884
0.423156
0.447249
0.471392
0.495755
0.52047
0.54564
0.571348
0.597661
0.624634
0.652318
0.680752
0.709974
0.740013
0.770882
0.802612
0.835242
0.868806
0.903334
0.938853
0.975386
1.01295
1.05158
1.09128
1.13207
1.17397
1.21699
1.26114
1.3064
1.35279
1.40034
1.44906
1.4989
1.54996
1.60229
1.65589
1.71077
1.76694
1.82442
1.8832
1.94329
2.00468
2.06737
2.13136
2.19662
2.26314
2.33091
2.3999
2.47009
2.54146
2.61397
2.68758
2.76227
2.83797
2.91464
2.99223
3.07068
3.14993
3.2299
3.31054
3.39176
3.47349
3.55565
3.63817
3.72095
3.80392
3.88698
3.97007
4.05309
4.13596
4.21862
4.30098
4.38299
4.46459
4.54573
4.62636
4.70646
4.78601
4.865
4.94344
5.02135
5.09877
5.17575
5.25238
5.32875
5.40494
5.48105
5.5572
5.63348
5.70995
5.78662
5.86348
5.94043
6.01745
6.09432
6.17083
6.24667
6.32147
6.3948
6.46615
6.53499
6.60072
6.66277
6.72056
6.77353
6.82116
6.86297
6.89848
6.92738
6.94944
6.96453
6.97249
6.97307
6.96615
6.95206
6.9313
6.90424
6.87127
6.83281
6.78932
6.74123
6.68898
6.63301
6.57372
6.51147
6.4466
6.37944
6.31024
6.23927
6.16672
6.0928
6.01767
5.94147
5.86434
5.78637
5.70766
5.62829
5.54832
5.46783
5.38685
5.30545
5.22366
5.14154
5.05911
4.97642
4.89352
4.81046
4.72729
4.64408
4.56088
4.47777
4.39484
4.31217
4.22988
4.14806
4.06685
3.98637
3.90677
3.82822
3.75088
3.67495
3.6006
3.52801
3.45738
3.38891
3.32276
3.25911
3.19817
3.14016
3.0852
3.03353
2.98467
2.93912
0.130682
0.206792
0.253139
0.288378
0.31841
0.345606
0.37115
0.395737
0.419816
0.443696
0.467599
0.491696
0.516118
0.540967
0.566327
0.592269
0.618852
0.646132
0.674158
0.702975
0.732628
0.76316
0.794608
0.82701
0.860403
0.894829
0.930323
0.966916
1.00464
1.04352
1.08359
1.12488
1.16742
1.21125
1.25634
1.3027
1.35035
1.3993
1.44957
1.50109
1.55397
1.60828
1.66402
1.7212
1.77985
1.83997
1.90156
1.96464
2.02916
2.0951
2.16245
2.23117
2.30124
2.37263
2.44529
2.51921
2.59432
2.6706
2.74798
2.82642
2.90586
2.98622
3.06746
3.14949
3.23224
3.31563
3.39958
3.48401
3.56881
3.65392
3.73922
3.82463
3.91005
3.99538
4.08052
4.16539
4.24989
4.33392
4.41741
4.50027
4.58243
4.66384
4.74444
4.82419
4.90307
4.98105
5.05815
5.13439
5.20981
5.28447
5.35849
5.43199
5.50509
5.57792
5.65069
5.72359
5.79674
5.87023
5.9441
6.01821
6.0926
6.16738
6.24242
6.31753
6.3924
6.46664
6.53978
6.61129
6.68058
6.74703
6.81002
6.86891
6.92296
6.97137
7.01371
7.04961
7.07874
7.10085
7.11574
7.12328
7.12317
7.11507
7.09967
7.07742
7.0487
7.01392
6.97352
6.92797
6.87771
6.82321
6.76487
6.70311
6.63828
6.57071
6.5007
6.4285
6.35436
6.27848
6.20105
6.12223
6.04216
5.96096
5.87874
5.79559
5.7116
5.62685
5.54141
5.45533
5.36868
5.28152
5.19391
5.10591
5.01757
4.92898
4.84019
4.7513
4.66238
4.57354
4.48486
4.39646
4.30848
4.22104
4.13429
4.04837
3.96344
3.87971
3.79734
3.7165
3.63742
3.56031
3.48541
3.4129
3.34309
3.27611
3.2121
3.15125
3.09369
3.03964
2.98862
2.94152
0.12803
0.203142
0.248973
0.283843
0.313551
0.340445
0.365704
0.390016
0.413824
0.437433
0.461068
0.484898
0.509055
0.533647
0.558761
0.584473
0.610848
0.637948
0.665829
0.694549
0.72416
0.754711
0.786249
0.818825
0.852491
0.887303
0.923321
0.960555
0.999036
1.03881
1.07992
1.1224
1.16629
1.21159
1.25823
1.30627
1.35576
1.40675
1.45925
1.51331
1.56895
1.62618
1.68501
1.74545
1.80748
1.87111
1.93631
2.00306
2.07133
2.14106
2.21224
2.2848
2.35871
2.43392
2.51038
2.58803
2.66682
2.7467
2.82758
2.90942
2.99214
3.07566
3.15991
3.24481
3.33027
3.4162
3.50252
3.58913
3.67594
3.76284
3.84975
3.93654
4.02313
4.1094
4.19525
4.28057
4.36526
4.44923
4.53237
4.61459
4.69582
4.77599
4.85503
4.93289
5.00952
5.08494
5.15913
5.23211
5.30391
5.37461
5.4444
5.51338
5.5817
5.64949
5.71681
5.78405
5.85151
5.91939
5.98785
6.05687
6.12705
6.19824
6.27036
6.34323
6.41664
6.49026
6.56367
6.63638
6.7078
6.77733
6.84433
6.90816
6.96814
7.02332
7.07296
7.11653
7.15356
7.18365
7.20647
7.22176
7.22915
7.22854
7.21953
7.20312
7.17967
7.14956
7.11327
7.07125
7.02397
6.97189
6.91547
6.85513
6.79124
6.72415
6.65418
6.5816