/*--------------------------------*- C++ -*----------------------------------*\
  =========                 |
  \\      /  F ield         | OpenFOAM: The Open Source CFD Toolbox
   \\    /   O peration     | Website:  https://openfoam.org
    \\  /    A nd           | Version:  8
     \\/     M anipulation  |
\*---------------------------------------------------------------------------*/
FoamFile
{
    version     2.0;
    format      ascii;
    class       volScalarField;
    location    "135";
    object      nut;
}
// * * * * * * * * * * * * * * * * * * * * * * * * * * * * * * * * * * * * * //

dimensions      [0 2 -1 0 0 0 0];

internalField   nonuniform List<scalar> 
12225
(
4.14975e-05
3.93423e-05
3.74822e-05
3.54348e-05
3.37801e-05
3.24261e-05
3.15014e-05
3.09138e-05
3.09179e-05
3.10987e-05
3.15685e-05
3.21121e-05
3.31498e-05
3.38291e-05
3.51238e-05
3.57148e-05
3.7385e-05
3.6778e-05
0.000332421
0.000215137
0.000179333
0.000157606
0.000146268
0.000138134
0.000132685
0.000131749
0.000129396
0.00013019
0.000128924
0.000129577
0.000128539
0.000128689
0.000128001
0.000127486
0.000127512
0.000126377
0.000675239
0.000450591
0.000355944
0.000309654
0.000275447
0.000250918
0.000231835
0.00021711
0.000202667
0.000192104
0.000182575
0.000175155
0.000169329
0.000163557
0.000160268
0.00015534
0.000153723
0.000149569
0.000833848
0.000684638
0.000572265
0.000499716
0.000449681
0.000411717
0.000380954
0.000355786
0.000334136
0.000314546
0.000298438
0.000281426
0.000270319
0.000255839
0.000248094
0.00023588
0.000230022
0.000219892
0.00086134
0.000802493
0.00074232
0.000676327
0.000624207
0.000581158
0.000546032
0.000514359
0.000489633
0.000464231
0.00044591
0.000423869
0.000409869
0.000390587
0.000379661
0.000362811
0.000353992
0.000338825
0.000855002
0.000840353
0.00082228
0.000786352
0.000751012
0.000715761
0.000685867
0.000656002
0.000632605
0.000607392
0.000588988
0.000567113
0.00055218
0.000532918
0.000520548
0.000503442
0.000492849
0.000476894
0.000852915
0.000850687
0.00084425
0.000832824
0.000817465
0.000796932
0.000777934
0.000756671
0.000738914
0.000719079
0.0007035
0.000685534
0.000672027
0.000655782
0.000644117
0.000629286
0.000619162
0.000604702
0.000851927
0.000851809
0.000850181
0.000847384
0.000841464
0.000833724
0.000824901
0.000813389
0.000802806
0.000790439
0.000779685
0.000767486
0.000757356
0.000745685
0.000736407
0.000725352
0.000716918
0.000705734
0.000851754
0.000851538
0.000851039
0.000850334
0.000848883
0.000846165
0.000843037
0.000838295
0.000833397
0.000827347
0.000821195
0.000814744
0.000808367
0.000801468
0.00079516
0.000788311
0.000782028
0.00077506
0.000851771
0.000851388
0.000851048
0.000850631
0.000850248
0.000849366
0.000848406
0.000846777
0.000844952
0.000842523
0.000839913
0.000836784
0.000833773
0.000830121
0.00082693
0.000822868
0.000819831
0.000815188
0.000851788
0.000851358
0.000851012
0.000850613
0.000850329
0.000849904
0.000849525
0.000848927
0.000848301
0.00084739
0.000846461
0.000845169
0.00084398
0.000842336
0.000840978
0.000839005
0.000837609
0.000835319
0.000851789
0.000851359
0.000850996
0.000850605
0.000850292
0.000849938
0.000849645
0.000849279
0.000848953
0.000848502
0.000848096
0.000847503
0.000846992
0.000846236
0.000845633
0.000844709
0.000844045
0.00084296
0.000851786
0.000851363
0.000850986
0.000850604
0.000850269
0.000849926
0.000849629
0.000849312
0.000849041
0.000848727
0.00084846
0.000848123
0.000847841
0.000847462
0.000847152
0.000846721
0.000846382
0.000845897
0.000851783
0.000851364
0.000850978
0.000850602
0.000850256
0.000849916
0.000849607
0.000849299
0.000849022
0.000848739
0.000848487
0.000848223
0.000847987
0.000847733
0.000847507
0.000847257
0.000847033
0.000846784
0.000851781
0.000851364
0.000850973
0.000850598
0.000850246
0.000849908
0.000849591
0.000849286
0.000848999
0.000848722
0.000848463
0.000848211
0.000847975
0.000847745
0.000847528
0.000847317
0.000847117
0.000846922
0.00085178
0.000851363
0.000850969
0.000850594
0.000850239
0.000849901
0.00084958
0.000849274
0.000848984
0.000848707
0.000848443
0.000848191
0.000847951
0.000847722
0.000847504
0.000847295
0.000847096
0.000846905
0.000851779
0.000851362
0.000850967
0.000850591
0.000850234
0.000849894
0.000849572
0.000849265
0.000848973
0.000848694
0.000848429
0.000848175
0.000847934
0.000847703
0.000847483
0.000847272
0.000847071
0.000846879
0.000851779
0.000851362
0.000850965
0.000850588
0.000850231
0.00084989
0.000849567
0.000849259
0.000848966
0.000848686
0.000848419
0.000848164
0.000847921
0.000847689
0.000847467
0.000847255
0.000847052
0.000846858
0.000851779
0.000851362
0.000850965
0.000850588
0.00085023
0.000849889
0.000849565
0.000849257
0.000848963
0.000848682
0.000848415
0.000848159
0.000847915
0.000847682
0.000847459
0.000847246
0.000847042
0.000846847
0.000851779
0.000851362
0.000850966
0.000850589
0.000850231
0.000849892
0.000849568
0.00084926
0.000848966
0.000848686
0.000848418
0.000848163
0.000847918
0.000847685
0.000847461
0.000847248
0.000847043
0.000846847
0.000851779
0.000851363
0.000850967
0.000850592
0.000850235
0.000849897
0.000849573
0.000849267
0.000848973
0.000848695
0.000848425
0.00084817
0.000847921
0.000847685
0.000847453
0.000847233
0.000847014
0.000846807
0.000851778
0.000851366
0.000850968
0.000850599
0.00085024
0.000849908
0.00084958
0.000849275
0.000848965
0.000848672
0.000848366
0.000848073
0.000847757
0.000847457
0.000847124
0.000846812
0.000846458
0.000846137
0.000851777
0.000851374
0.000850971
0.000850615
0.000850241
0.00084989
0.000849479
0.000849054
0.00084853
0.000847979
0.000847302
0.000846606
0.000845768
0.000844941
0.000843956
0.00084303
0.000841918
0.00084094
0.000851802
0.00085141
0.00085097
0.000850549
0.000849861
0.000848967
0.000847607
0.00084598
0.000843904
0.000841637
0.000838956
0.000836216
0.000833118
0.000830115
0.000826765
0.000823681
0.000820184
0.000817177
0.000852138
0.000851403
0.000850234
0.000848252
0.000844472
0.000839356
0.000832713
0.000825765
0.000817916
0.000810003
0.000801619
0.000793631
0.000785335
0.00077771
0.000769746
0.000762702
0.000755123
0.000748793
0.000854142
0.000847718
0.000840126
0.000827123
0.000808709
0.000789649
0.000769975
0.000751421
0.000733308
0.0007169
0.000700939
0.000686786
0.000672835
0.000660676
0.000648382
0.000637943
0.000626953
0.000618017
0.00085497
0.000818336
0.00077623
0.000726636
0.000684941
0.000649861
0.000618464
0.000592027
0.000568387
0.000548318
0.000529695
0.000514
0.000498756
0.000486022
0.000473206
0.000462711
0.000451622
0.000442802
0.000807487
0.00066688
0.000570553
0.000509857
0.000465652
0.000431198
0.000404137
0.000382506
0.000364199
0.000349073
0.000335945
0.000325083
0.000314484
0.000306251
0.000297964
0.000291369
0.00028428
0.000278928
0.000501854
0.000348405
0.000292691
0.000259175
0.000236325
0.000221178
0.000211545
0.000204017
0.000198481
0.00019506
0.000192218
0.000190367
0.000188581
0.000187438
0.000186163
0.000185472
0.000184552
0.000184139
7.27285e-05
7.0223e-05
6.79539e-05
6.56135e-05
6.33827e-05
6.12764e-05
5.94928e-05
5.79571e-05
5.67101e-05
5.57026e-05
5.49771e-05
5.44177e-05
5.41078e-05
5.3886e-05
5.38757e-05
5.39606e-05
5.40702e-05
5.43211e-05
2.06145e-06
3.21455e-05
5.1185e-05
6.88302e-05
8.60446e-05
0.00010273
0.000118493
0.000132857
0.000145075
0.000154535
0.000160741
0.00016334
0.000165393
0.000172144
0.000184399
0.000199366
0.000210464
0.000216769
0.000209281
4.1034e-05
4.37035e-05
4.63719e-05
4.498e-05
4.54312e-05
4.83153e-05
4.9687e-05
5.07558e-05
5.21889e-05
5.35362e-05
5.49295e-05
5.62963e-05
5.76551e-05
5.89895e-05
6.03084e-05
6.16052e-05
6.28884e-05
6.41519e-05
6.54033e-05
6.66382e-05
6.78636e-05
6.90759e-05
7.02817e-05
7.14772e-05
7.26679e-05
7.38485e-05
7.50208e-05
7.61839e-05
7.73433e-05
7.84947e-05
7.96437e-05
8.07861e-05
8.1927e-05
8.30623e-05
8.41971e-05
8.5327e-05
8.64571e-05
8.75826e-05
8.87086e-05
8.98304e-05
9.09527e-05
9.20707e-05
9.31892e-05
9.43035e-05
9.5418e-05
9.6528e-05
9.76378e-05
9.87425e-05
9.98462e-05
0.000100944
0.00010204
0.00010313
0.000104216
0.000105295
0.000106369
0.000107435
0.000108493
0.000109541
0.000110579
0.000111605
0.000112617
0.000113613
0.000114591
0.000115547
0.000116475
0.000117371
0.000118255
0.000119143
0.000120001
0.00012084
0.000121652
0.000122439
0.000123198
0.000123927
0.000124625
0.000125288
0.000125914
0.000126501
0.000127048
0.000127549
0.000128001
0.000128394
0.000128725
0.000128988
0.000129203
0.000129457
0.000129598
0.000129891
0.000129395
0.000129348
0.000129202
0.000128954
0.000128632
0.000128237
0.000127769
0.000127234
0.00012663
0.000125964
0.000125233
0.000124417
0.000123548
0.000122628
0.000121662
0.000120658
0.000119621
0.000118558
0.000117471
0.000116368
0.000115251
0.000114126
0.000112996
0.000111866
0.00011074
0.000109621
0.000108512
0.000107417
0.000106336
0.000105274
0.00010423
0.000103208
0.000102208
0.000101233
0.000100285
9.93631e-05
9.84686e-05
9.76014e-05
9.67631e-05
9.59558e-05
9.51909e-05
9.45588e-05
9.42311e-05
9.39899e-05
9.37839e-05
9.35998e-05
9.33696e-05
9.28588e-05
9.22997e-05
9.17356e-05
9.10895e-05
9.02688e-05
8.94622e-05
8.89227e-05
8.85279e-05
8.81126e-05
8.76429e-05
8.71783e-05
8.67266e-05
8.62881e-05
8.58596e-05
8.54416e-05
8.5035e-05
8.46401e-05
8.42571e-05
8.38866e-05
8.35277e-05
8.31788e-05
8.28364e-05
8.24912e-05
8.21211e-05
8.16486e-05
8.00374e-05
5.78867e-06
6.38169e-05
0.000127598
0.000173675
0.000205999
0.000230278
0.000249341
0.000264409
0.000275773
0.000283466
0.000286764
0.000285269
0.00028074
0.000281682
0.000283379
0.000284154
0.000288929
0.000273987
0.000249355
0.000225361
0.000224905
0.000236472
0.000247341
0.000266483
0.000298043
0.000311735
0.000320474
0.000329058
0.000338299
0.000347984
0.000357902
0.000367911
0.000377911
0.00038782
0.000397608
0.000407347
0.000417027
0.000426633
0.00043617
0.000445637
0.000455047
0.000464411
0.00047376
0.000483123
0.00049256
0.000501957
0.000511328
0.000520678
0.000530024
0.000539371
0.000548735
0.000558123
0.000567549
0.000577018
0.000586547
0.000596141
0.000605813
0.000615568
0.000625419
0.00063537
0.000645434
0.000655614
0.000665923
0.000676367
0.000686958
0.000697701
0.000708608
0.000719684
0.000730941
0.000742385
0.000754025
0.000765871
0.000777931
0.000790214
0.000802731
0.000815489
0.000828494
0.000841749
0.000855249
0.000868984
0.000882926
0.000897023
0.000911173
0.000925213
0.000938883
0.000951833
0.000964461
0.000977177
0.000989932
0.00100271
0.00101549
0.00102822
0.00104088
0.00105344
0.00106585
0.00107808
0.00109008
0.00110181
0.00111324
0.00112428
0.0011348
0.00114474
0.00115405
0.00116275
0.00117118
0.00117915
0.00118697
0.00119152
0.00119566
0.00120039
0.00120393
0.00120644
0.00120803
0.00120873
0.00120857
0.00120759
0.00120586
0.00120349
0.00120034
0.00119652
0.00119205
0.00118698
0.00118136
0.00117524
0.00116869
0.00116176
0.00115451
0.00114699
0.00113923
0.0011313
0.00112323
0.00111506
0.00110683
0.00109856
0.0010903
0.00108205
0.00107386
0.00106574
0.00105771
0.00104979
0.00104199
0.00103433
0.00102683
0.00101949
0.00101231
0.00100532
0.000998503
0.00099191
0.000985639
0.000979831
0.000974287
0.000968893
0.000963513
0.000957666
0.000950231
0.000942207
0.000934087
0.000926185
0.000918738
0.000911694
0.000905607
0.000899697
0.000893278
0.000886629
0.000879976
0.000873338
0.000866699
0.000860043
0.00085336
0.000846659
0.000839933
0.000833177
0.000826375
0.00081951
0.000812552
0.000805461
0.00079811
0.000790341
0.000780636
0.000750716
1.05337e-05
9.40817e-05
0.000184239
0.000254334
0.00030626
0.000344245
0.000372149
0.000392633
0.000407301
0.000417061
0.000423363
0.000428154
0.000433326
0.000441592
0.00045262
0.000465259
0.000477481
0.000484868
0.000488841
0.000493277
0.000506348
0.00052563
0.000547676
0.000573196
0.000600033
0.000622578
0.000643542
0.000664181
0.000684919
0.00070579
0.000726729
0.000747655
0.000768491
0.000789106
0.000809538
0.0008298
0.000849885
0.000869787
0.00088951
0.000909062
0.000928457
0.000947714
0.000966855
0.000985903
0.00100488
0.00102378
0.00104262
0.00106143
0.00108023
0.00109903
0.00111786
0.00113673
0.00115567
0.00117469
0.00119381
0.00121305
0.00123242
0.00125194
0.00127162
0.00129147
0.00131152
0.00133175
0.0013522
0.00137287
0.00139377
0.00141491
0.00143631
0.00145797
0.00147992
0.00150216
0.00152469
0.00154754
0.0015707
0.00159419
0.00161801
0.00164217
0.00166665
0.00169145
0.00171656
0.00174193
0.00176752
0.00179327
0.00181908
0.00184484
0.00187045
0.00189582
0.00192116
0.00194661
0.00197214
0.0019977
0.00202322
0.00204866
0.00207394
0.00209899
0.00212374
0.00214809
0.00217196
0.00219526
0.00221788
0.00223971
0.00226061
0.0022805
0.00229928
0.00231693
0.0023335
0.00234905
0.00236355
0.00237482
0.00238344
0.00239163
0.00239916
0.00240452
0.00240804
0.00240982
0.00240989
0.00240833
0.00240521
0.00240061
0.00239455
0.00238711
0.00237837
0.00236842
0.00235737
0.00234532
0.00233239
0.00231869
0.00230432
0.00228939
0.002274
0.00225822
0.00224216
0.00222588
0.00220945
0.00219295
0.00217644
0.00215996
0.00214357
0.00212731
0.00211121
0.00209531
0.00207964
0.00206422
0.00204908
0.00203424
0.0020197
0.00200546
0.00199154
0.00197797
0.00196478
0.00195203
0.00193962
0.00192745
0.00191534
0.00190284
0.00188917
0.00187491
0.00186053
0.00184641
0.00183284
0.00181971
0.00180723
0.00179484
0.00178202
0.00176898
0.00175588
0.00174277
0.00172964
0.00171647
0.00170325
0.00169001
0.00167674
0.00166344
0.00165007
0.0016366
0.00162298
0.00160912
0.0015948
0.00157945
0.00156049
0.00151461
1.54993e-05
0.000118443
0.000229758
0.000318244
0.000385337
0.000435513
0.000473206
0.000501863
0.000524063
0.000541824
0.000557015
0.000571571
0.000587467
0.000604083
0.000623275
0.00064509
0.000667728
0.000688917
0.00070898
0.000730078
0.00075387
0.000779941
0.000807851
0.000837464
0.000868039
0.00089798
0.000927704
0.000957382
0.000987021
0.00101668
0.00104633
0.00107597
0.00110561
0.00113507
0.00116432
0.00119331
0.00122205
0.00125052
0.00127875
0.00130672
0.00133448
0.00136202
0.00138938
0.00141659
0.00144367
0.00147065
0.00149754
0.00152439
0.00155121
0.00157803
0.00160488
0.00163178
0.00165875
0.00168583
0.00171302
0.00174036
0.00176785
0.00179553
0.00182341
0.00185149
0.00187981
0.00190837
0.00193718
0.00196627
0.00199559
0.00202519
0.00205509
0.00208529
0.00211581
0.00214665
0.00217783
0.00220934
0.0022412
0.0022734
0.00230595
0.00233883
0.00237205
0.00240557
0.00243938
0.00247344
0.00250772
0.00254214
0.00257667
0.00261121
0.00264571
0.0026802
0.00271478
0.00274947
0.00278423
0.00281902
0.00285376
0.00288837
0.00292278
0.00295689
0.00299062
0.00302384
0.00305645
0.00308832
0.00311933
0.00314933
0.00317819
0.00320576
0.00323195
0.00325664
0.00327976
0.00330117
0.00332083
0.00333825
0.00335213
0.00336383
0.00337476
0.00338322
0.00338925
0.00339291
0.00339424
0.00339331
0.00339018
0.00338494
0.00337764
0.00336838
0.00335729
0.00334447
0.00333007
0.00331423
0.00329709
0.00327881
0.00325952
0.00323937
0.00321848
0.00319698
0.00317499
0.00315262
0.00312998
0.00310715
0.00308423
0.00306128
0.0030384
0.00301563
0.00299303
0.00297064
0.00294852
0.0029267
0.00290522
0.00288409
0.00286333
0.00284296
0.00282297
0.00280339
0.00278422
0.00276549
0.00274713
0.00272907
0.00271117
0.00269316
0.00267461
0.00265573
0.00263679
0.002618
0.00259951
0.0025813
0.00256343
0.00254565
0.00252765
0.0025095
0.00249129
0.00247307
0.00245482
0.00243655
0.00241824
0.00240006
0.00238192
0.00236379
0.00234564
0.00232742
0.00230909
0.00229053
0.00227151
0.00225122
0.00222652
0.00217714
2.03292e-05
0.000139538
0.000269012
0.000373575
0.000454889
0.000517117
0.000565188
0.000603105
0.000634001
0.00066033
0.0006841
0.000707022
0.000730522
0.000755522
0.000781976
0.000809554
0.000838106
0.000867703
0.000897878
0.000928861
0.000960954
0.000994225
0.00102867
0.00106418
0.00110049
0.00113718
0.00117412
0.00121124
0.00124848
0.0012857
0.00132281
0.00135975
0.00139642
0.00143279
0.00146887
0.00150465
0.00154014
0.00157532
0.00161021
0.00164481
0.00167914
0.00171322
0.00174705
0.00178068
0.00181416
0.0018475
0.00188074
0.00191391
0.00194703
0.00198014
0.00201326
0.00204643
0.00207966
0.00211299
0.00214643
0.00218002
0.00221376
0.00224769
0.00228182
0.00231616
0.00235073
0.00238556
0.00242064
0.00245603
0.00249163
0.00252751
0.00256367
0.00260012
0.00263688
0.00267394
0.00271132
0.00274901
0.00278701
0.00282533
0.00286395
0.00290288
0.00294209
0.00298158
0.00302132
0.0030613
0.00310148
0.00314183
0.00318231
0.00322289
0.00326354
0.00330429
0.00334517
0.00338616
0.00342724
0.00346833
0.00350938
0.0035503
0.00359101
0.00363142
0.00367142
0.00371089
0.00374972
0.00378777
0.00382489
0.00386093
0.00389574
0.00392917
0.00396107
0.00399128
0.00401968
0.00404607
0.00407027
0.00409239
0.00411185
0.00412777
0.00414161
0.00415351
0.00416262
0.00416895
0.00417252
0.00417339
0.00417159
0.00416721
0.00416032
0.00415102
0.00413945
0.00412573
0.00411002
0.00409249
0.00407329
0.0040526
0.00403057
0.00400738
0.00398318
0.00395812
0.00393233
0.00390597
0.00387914
0.00385198
0.00382458
0.00379705
0.00376947
0.00374193
0.00371449
0.00368723
0.00366019
0.00363343
0.00360698
0.0035809
0.00355519
0.00352987
0.00350496
0.00348047
0.0034564
0.00343274
0.00340948
0.00338655
0.00336387
0.00334129
0.0033186
0.00329583
0.00327309
0.00325045
0.00322798
0.00320567
0.00318356
0.00316153
0.00313945
0.00311733
0.00309519
0.00307306
0.00305097
0.0030289
0.00300681
0.00298486
0.00296299
0.0029412
0.00291945
0.00289772
0.00287596
0.00285408
0.00283187
0.00280848
0.00278077
0.00273367
2.483e-05
0.000157445
0.000302521
0.000421503
0.000516123
0.000590071
0.000648521
0.000695793
0.000735333
0.000769834
0.00080139
0.000831623
0.000861753
0.000892596
0.000924558
0.000957777
0.000992248
0.00102789
0.00106453
0.00110213
0.00114067
0.00118014
0.00122049
0.00126165
0.00130345
0.00134572
0.0013883
0.00143106
0.00147388
0.00151665
0.00155929
0.00160172
0.00164387
0.00168573
0.00172726
0.00176846
0.00180933
0.00184985
0.00189005
0.00192993
0.0019695
0.00200881
0.00204787
0.0020867
0.00212533
0.00216379
0.0022021
0.00224029
0.0022784
0.00231646
0.00235449
0.00239253
0.00243059
0.00246872
0.00250692
0.00254523
0.00258366
0.00262223
0.00266096
0.00269987
0.00273896
0.00277825
0.00281774
0.00285744
0.00289736
0.0029375
0.00297789
0.00301852
0.00305939
0.00310051
0.00314189
0.00318352
0.00322539
0.00326751
0.00330988
0.00335247
0.0033953
0.00343835
0.0034816
0.00352505
0.00356869
0.0036125
0.00365648
0.00370064
0.00374499
0.00378949
0.00383414
0.00387893
0.00392382
0.00396875
0.00401368
0.00405853
0.00410323
0.00414769
0.0041918
0.00423547
0.00427857
0.00432097
0.00436251
0.00440306
0.00444244
0.00448049
0.00451704
0.00455192
0.00458496
0.00461597
0.00464475
0.00467113
0.00469552
0.00471674
0.00473449
0.00475007
0.00476314
0.00477315
0.00478013
0.0047841
0.00478508
0.00478311
0.00477827
0.00477065
0.00476038
0.0047476
0.00473247
0.00471514
0.0046958
0.00467463
0.00465179
0.00462747
0.00460183
0.00457505
0.00454729
0.0045187
0.00448942
0.00445959
0.00442933
0.00439876
0.00436799
0.0043371
0.0043062
0.00427536
0.00424465
0.00421412
0.00418385
0.00415386
0.0041242
0.00409489
0.00406595
0.0040374
0.00400924
0.00398147
0.00395408
0.00392704
0.0039003
0.00387378
0.00384736
0.00382105
0.00379486
0.0037688
0.00374288
0.00371709
0.00369146
0.00366595
0.0036405
0.00361509
0.00358974
0.00356448
0.00353932
0.00351427
0.00348933
0.00346455
0.00343995
0.0034155
0.0033912
0.00336703
0.00334297
0.00331896
0.00329479
0.00326971
0.00324086
0.00319737
2.88538e-05
0.000172184
0.000330395
0.000462397
0.000569098
0.000654273
0.000722806
0.000779181
0.000827012
0.00086914
0.000907755
0.000944512
0.000980621
0.00101692
0.00105395
0.00109199
0.00113117
0.0011715
0.00121291
0.00125534
0.00129871
0.00134294
0.00138794
0.0014336
0.00147981
0.00152642
0.0015733
0.00162032
0.00166738
0.00171436
0.00176119
0.00180779
0.00185411
0.00190011
0.00194577
0.00199107
0.002036
0.00208055
0.00212474
0.00216858
0.00221207
0.00225525
0.00229813
0.00234074
0.0023831
0.00242524
0.0024672
0.00250899
0.00255065
0.00259221
0.0026337
0.00267514
0.00271657
0.00275801
0.00279948
0.002841
0.0028826
0.00292429
0.00296608
0.003008
0.00305005
0.00309224
0.00313458
0.00317707
0.00321973
0.00326256
0.00330556
0.00334875
0.00339211
0.00343566
0.00347938
0.00352329
0.00356738
0.00361165
0.0036561
0.00370072
0.00374552
0.00379049
0.00383562
0.00388093
0.00392642
0.00397207
0.00401791
0.00406394
0.00411016
0.00415658
0.00420317
0.00424993
0.00429685
0.00434388
0.00439099
0.00443812
0.00448522
0.00453222
0.00457903
0.00462555
0.00467169
0.0047173
0.00476226
0.00480642
0.00484962
0.00489168
0.00493242
0.00497166
0.00500921
0.00504486
0.00507841
0.00510967
0.00513866
0.00516526
0.0051885
0.00520867
0.00522649
0.00524121
0.00525276
0.00526109
0.00526616
0.005268
0.00526665
0.00526219
0.00525474
0.00524443
0.00523141
0.00521583
0.00519789
0.00517774
0.00515559
0.00513162
0.005106
0.00507893
0.00505056
0.00502108
0.00499064
0.00495938
0.00492746
0.00489501
0.00486214
0.00482896
0.00479559
0.00476211
0.00472862
0.00469518
0.00466186
0.00462872
0.00459581
0.00456316
0.00453082
0.0044988
0.00446711
0.00443577
0.00440478
0.00437412
0.00434378
0.0043137
0.00428386
0.00425421
0.00422477
0.00419551
0.00416643
0.00413752
0.0041088
0.00408025
0.00405184
0.00402358
0.00399548
0.00396755
0.00393982
0.00391229
0.00388499
0.00385794
0.00383117
0.00380466
0.00377843
0.00375247
0.00372678
0.00370133
0.00367598
0.00365006
0.00362116
0.0035811
3.23133e-05
0.000183919
0.000352934
0.000496505
0.000614037
0.000709645
0.000787744
0.000852812
0.000908518
0.000957782
0.00100287
0.00104551
0.00108696
0.00112812
0.0011696
0.00121177
0.00125485
0.00129891
0.00134398
0.00139
0.00143691
0.0014846
0.00153298
0.00158195
0.00163137
0.00168114
0.00173113
0.00178123
0.00183133
0.00188135
0.00193119
0.00198078
0.00203007
0.00207902
0.0021276
0.00217578
0.00222357
0.00227094
0.00231792
0.00236449
0.00241069
0.00245653
0.00250202
0.0025472
0.00259209
0.00263671
0.00268109
0.00272527
0.00276926
0.00281311
0.00285684
0.00290047
0.00294404
0.00298756
0.00303106
0.00307456
0.00311808
0.00316163
0.00320524
0.0032489
0.00329265
0.00333647
0.00338038
0.00342439
0.0034685
0.00351272
0.00355705
0.00360148
0.00364603
0.00369069
0.00373546
0.00378034
0.00382534
0.00387045
0.00391568
0.00396102
0.00400649
0.00405208
0.00409781
0.00414369
0.00418972
0.00423591
0.0042823
0.00432888
0.00437567
0.00442269
0.00446994
0.00451742
0.00456513
0.00461307
0.00466121
0.00470953
0.00475799
0.00480655
0.00485514
0.00490369
0.0049521
0.00500029
0.00504811
0.00509543
0.0051421
0.00518794
0.00523276
0.00527638
0.00531858
0.00535915
0.00539785
0.00543449
0.00546886
0.00550101
0.00553035
0.0055566
0.00557994
0.00560044
0.00561768
0.00563154
0.00564195
0.00564885
0.00565228
0.00565228
0.00564894
0.00564239
0.00563276
0.00562021
0.00560491
0.00558703
0.00556676
0.0055443
0.00551983
0.00549355
0.00546564
0.00543628
0.00540565
0.0053739
0.00534121
0.0053077
0.00527353
0.00523883
0.0052037
0.00516826
0.0051326
0.00509683
0.00506102
0.00502523
0.00498955
0.00495401
0.00491866
0.00488355
0.00484869
0.00481412
0.00477984
0.00474586
0.00471219
0.0046788
0.00464569
0.00461284
0.00458025
0.00454791
0.0045158
0.00448394
0.00445233
0.00442095
0.00438983
0.00435895
0.00432833
0.004298
0.00426797
0.00423827
0.00420892
0.00417994
0.00415136
0.00412317
0.00409541
0.00406808
0.0040412
0.00401479
0.00398874
0.00396251
0.00393414
0.00389773
3.51709e-05
0.00019289
0.000370507
0.000523943
0.000651102
0.000756203
0.000843174
0.000916381
0.000979467
0.00103537
0.00108641
0.00113435
0.00118054
0.00122593
0.00127119
0.00131679
0.00136299
0.00140995
0.00145773
0.00150634
0.00155571
0.00160578
0.00165644
0.00170759
0.00175913
0.00181096
0.00186296
0.00191504
0.00196712
0.00201909
0.00207085
0.00212234
0.00217349
0.00222426
0.00227463
0.00232456
0.00237406
0.0024231
0.00247171
0.00251989
0.00256764
0.00261499
0.00266196
0.00270857
0.00275485
0.00280083
0.00284652
0.00289197
0.00293719
0.00298222
0.00302709
0.00307182
0.00311643
0.00316095
0.00320541
0.00324982
0.00329419
0.00333856
0.00338292
0.0034273
0.00347169
0.00351612
0.00356058
0.00360509
0.00364964
0.00369424
0.00373889
0.00378359
0.00382833
0.00387313
0.00391798
0.00396289
0.00400784
0.00405286
0.00409793
0.00414308
0.0041883
0.00423361
0.00427902
0.00432455
0.00437022
0.00441605
0.00446207
0.0045083
0.00455477
0.00460151
0.00464855
0.0046959
0.00474359
0.00479164
0.00484005
0.00488882
0.00493795
0.00498743
0.00503721
0.00508726
0.00513751
0.00518787
0.00523825
0.00528852
0.00533853
0.00538811
0.00543709
0.00548524
0.00553236
0.0055782
0.00562252
0.00566507
0.00570561
0.00574396
0.00577991
0.00581296
0.00584314
0.00587036
0.00589435
0.00591489
0.00593178
0.00594491
0.00595427
0.00595988
0.00596182
0.00596017
0.00595505
0.00594661
0.00593501
0.00592043
0.00590305
0.00588306
0.00586067
0.00583607
0.00580946
0.00578103
0.00575097
0.00571946
0.00568668
0.00565278
0.00561792
0.00558225
0.00554589
0.00550898
0.00547163
0.00543395
0.00539603
0.00535796
0.00531982
0.00528169
0.00524361
0.00520565
0.00516785
0.00513024
0.00509287
0.00505574
0.00501889
0.00498232
0.00494603
0.00491004
0.00487436
0.00483897
0.00480389
0.00476913
0.00473469
0.00470059
0.00466683
0.00463343
0.00460042
0.00456781
0.00453564
0.00450392
0.00447269
0.00444198
0.0044118
0.00438218
0.00435314
0.00432471
0.00429694
0.00426985
0.00424341
0.00421719
0.0041896
0.00415633
3.7425e-05
0.000199372
0.000383532
0.000545097
0.000680592
0.000794106
0.000889093
0.000969737
0.00103959
0.00110157
0.00115799
0.00121067
0.00126099
0.00130997
0.00135836
0.00140667
0.00145521
0.00150417
0.00155381
0.00160411
0.00165502
0.00170649
0.00175842
0.00181074
0.00186336
0.00191619
0.00196914
0.00202215
0.00207516
0.00212812
0.00218082
0.00223316
0.00228511
0.00233662
0.00238768
0.00243825
0.00248834
0.00253794
0.00258706
0.0026357
0.0026839
0.00273165
0.002779
0.00282595
0.00287254
0.0029188
0.00296475
0.00301042
0.00305585
0.00310105
0.00314605
0.00319089
0.00323559
0.00328017
0.00332464
0.00336904
0.00341338
0.00345767
0.00350193
0.00354617
0.0035904
0.00363462
0.00367885
0.00372307
0.00376731
0.00381155
0.0038558
0.00390006
0.00394433
0.0039886
0.00403288
0.00407716
0.00412145
0.00416576
0.00421008
0.00425443
0.00429882
0.00434327
0.00438778
0.0044324
0.00447713
0.00452203
0.00456711
0.00461243
0.00465801
0.00470391
0.00475018
0.00479685
0.00484397
0.0048916
0.00493976
0.00498849
0.00503783
0.00508778
0.00513835
0.00518953
0.00524129
0.00529357
0.00534629
0.00539936
0.00545264
0.00550598
0.0055592
0.00561207
0.00566436
0.00571583
0.00576618
0.00581515
0.00586245
0.00590782
0.00595096
0.00599157
0.00602942
0.00606437
0.00609615
0.00612442
0.00614889
0.00616931
0.00618568
0.00619799
0.00620625
0.00621053
0.00621094
0.00620761
0.00620067
0.0061903
0.00617669
0.00616002
0.00614051
0.00611836
0.00609378
0.00606697
0.00603814
0.00600749
0.00597519
0.00594144
0.00590639
0.00587023
0.00583308
0.00579511
0.00575643
0.00571718
0.00567746
0.00563738
0.00559705
0.00555654
0.00551594
0.00547531
0.00543472
0.00539422
0.00535387
0.0053137
0.00527376
0.00523407
0.00519467
0.00515557
0.0051168
0.00507839
0.00504034
0.00500268
0.00496543
0.0049286
0.00489224
0.00485635
0.00482097
0.00478614
0.00475188
0.00471822
0.00468521
0.00465287
0.00462122
0.00459031
0.00456016
0.00453082
0.00450235
0.00447478
0.00444813
0.00442208
0.00439536
0.0043648
3.91008e-05
0.000203653
0.000392461
0.00056043
0.000702893
0.000823617
0.000925621
0.00101285
0.00108872
0.00115608
0.00121724
0.00127402
0.00132782
0.00137972
0.00143058
0.00148093
0.0015311
0.00158129
0.0016319
0.00168293
0.00173441
0.00178628
0.0018385
0.00189101
0.00194373
0.0019966
0.00204953
0.00210248
0.00215539
0.00220825
0.00226079
0.00231296
0.00236465
0.00241583
0.00246647
0.00251657
0.00256613
0.00261515
0.00266365
0.00271165
0.00275917
0.00280623
0.00285285
0.00289908
0.00294493
0.00299044
0.00303564
0.00308056
0.00312522
0.00316966
0.0032139
0.00325798
0.00330191
0.00334572
0.00338942
0.00343305
0.00347662
0.00352014
0.00356362
0.00360708
0.00365052
0.00369396
0.00373738
0.00378081
0.00382422
0.00386764
0.00391104
0.00395444
0.00399782
0.00404118
0.00408453
0.00412785
0.00417116
0.00421444
0.00425771
0.00430098
0.00434426
0.00438756
0.00443091
0.00447433
0.00451785
0.00456152
0.00460538
0.00464947
0.00469386
0.00473861
0.00478378
0.00482943
0.00487565
0.00492251
0.00497007
0.00501841
0.0050676
0.00511768
0.00516871
0.0052207
0.00527368
0.00532762
0.00538247
0.00543818
0.00549462
0.00555166
0.00560913
0.00566682
0.00572446
0.0057818
0.00583852
0.00589431
0.00594885
0.0060018
0.00605283
0.00610162
0.00614793
0.00619142
0.00623194
0.00626895
0.00630203
0.00633081
0.00635519
0.00637518
0.00639076
0.00640196
0.00640885
0.00641154
0.00641015
0.00640486
0.00639584
0.00638329
0.00636741
0.00634842
0.00632655
0.006302
0.006275
0.00624576
0.00621449
0.00618138
0.00614662
0.00611039
0.00607285
0.00603418
0.00599452
0.00595401
0.00591278
0.00587095
0.00582865
0.00578598
0.00574303
0.0056999
0.00565667
0.0056134
0.00557018
0.00552706
0.00548411
0.00544137
0.00539889
0.00535671
0.00531488
0.00527344
0.00523241
0.00519185
0.00515177
0.00511223
0.00507324
0.00503486
0.00499712
0.00496007
0.00492374
0.00488818
0.00485343
0.00481952
0.00478649
0.00475438
0.00472323
0.0046931
0.00466404
0.00463612
0.00460939
0.00458358
0.00455775
0.00452951
4.02313e-05
0.000206018
0.000397734
0.000570404
0.000718384
0.000844983
0.000952907
0.00104572
0.00112669
0.00119857
0.00126371
0.00132388
0.00138042
0.00143433
0.00148675
0.00153826
0.0015893
0.00164026
0.00169133
0.00174253
0.00179388
0.00184539
0.00189702
0.00194872
0.00200044
0.00205215
0.0021038
0.00215535
0.00220675
0.00225799
0.00230928
0.0023602
0.0024106
0.00246036
0.00250946
0.00255792
0.00260578
0.00265306
0.00269979
0.00274599
0.00279169
0.00283694
0.00288177
0.00292621
0.0029703
0.00301407
0.00305756
0.00310081
0.00314384
0.00318668
0.00322937
0.00327192
0.00331437
0.00335675
0.00339906
0.00344133
0.00348358
0.00352582
0.00356807
0.00361033
0.00365261
0.00369491
0.00373724
0.00377958
0.00382195
0.00386433
0.00390672
0.00394911
0.00399149
0.00403386
0.0040762
0.00411852
0.0041608
0.00420305
0.00424526