/*--------------------------------*- C++ -*----------------------------------*\
  =========                 |
  \\      /  F ield         | OpenFOAM: The Open Source CFD Toolbox
   \\    /   O peration     | Website:  https://openfoam.org
    \\  /    A nd           | Version:  8
     \\/     M anipulation  |
\*---------------------------------------------------------------------------*/
FoamFile
{
    version     2.0;
    format      ascii;
    class       volScalarField;
    location    "135";
    object      p;
}
// * * * * * * * * * * * * * * * * * * * * * * * * * * * * * * * * * * * * * //

dimensions      [0 2 -2 0 0 0 0];

internalField   nonuniform List<scalar> 
12225
(
-1.95468
-4.14264
-5.2423
-5.56259
-5.74329
-5.91163
-6.04237
-6.13639
-6.21158
-6.2771
-6.33469
-6.3863
-6.43165
-6.47161
-6.50559
-6.52552
-6.5482
-6.46533
-5.11714
-5.88574
-6.04605
-5.9534
-5.94035
-6.00753
-6.08423
-6.14886
-6.20708
-6.2627
-6.31495
-6.36269
-6.40631
-6.44533
-6.48026
-6.5045
-6.53352
-6.5294
-5.51779
-5.5034
-5.63057
-5.70858
-5.80295
-5.92248
-6.02882
-6.11261
-6.18304
-6.24665
-6.30447
-6.35639
-6.40356
-6.44579
-6.48437
-6.51539
-6.55309
-6.58189
-5.3964
-5.33963
-5.58099
-5.73896
-5.84018
-5.94573
-6.04257
-6.12159
-6.18899
-6.25041
-6.30683
-6.35809
-6.40514
-6.44804
-6.48822
-6.52449
-6.56684
-6.61308
-5.3865
-5.41076
-5.63854
-5.77971
-5.86282
-5.95423
-6.04463
-6.12134
-6.18763
-6.24827
-6.30442
-6.35592
-6.40365
-6.44796
-6.49038
-6.53129
-6.57749
-6.63126
-5.44464
-5.49333
-5.66731
-5.79083
-5.87184
-5.95904
-6.0463
-6.12185
-6.18763
-6.24789
-6.3039
-6.3557
-6.40407
-6.44966
-6.49396
-6.53809
-6.58669
-6.64271
-5.50502
-5.54904
-5.68394
-5.79988
-5.88314
-5.96668
-6.04985
-6.12359
-6.1886
-6.24831
-6.30405
-6.35602
-6.40492
-6.45156
-6.49732
-6.54355
-6.59335
-6.64902
-5.55856
-5.59604
-5.70574
-5.81367
-5.89621
-5.97524
-6.05397
-6.12564
-6.18972
-6.24882
-6.30423
-6.35629
-6.40562
-6.45309
-6.49989
-6.54729
-6.5973
-6.65133
-5.60832
-5.64133
-5.73202
-5.82964
-5.90928
-5.98413
-6.05868
-6.12807
-6.19105
-6.24943
-6.30441
-6.35643
-6.40603
-6.45402
-6.50139
-6.54919
-6.59868
-6.6505
-5.65542
-5.68458
-5.75989
-5.8468
-5.92261
-5.99369
-6.06426
-6.13114
-6.19277
-6.25026
-6.30467
-6.35646
-6.4061
-6.45427
-6.50176
-6.54936
-6.5978
-6.64726
-5.69981
-5.72523
-5.78824
-5.86514
-5.93648
-6.00389
-6.07066
-6.13485
-6.19491
-6.25136
-6.30504
-6.35639
-6.40581
-6.45383
-6.50105
-6.54799
-6.59508
-6.64217
-5.73793
-5.76021
-5.81425
-5.88283
-5.94965
-6.01369
-6.07715
-6.1388
-6.19725
-6.2526
-6.30546
-6.35622
-6.4052
-6.45281
-6.49948
-6.54555
-6.59123
-6.63629
-5.77315
-5.79281
-5.83951
-5.90069
-5.96293
-6.02364
-6.08396
-6.14311
-6.19984
-6.25399
-6.30593
-6.35596
-6.40433
-6.45132
-6.49724
-6.54227
-6.58652
-6.62966
-5.81009
-5.82724
-5.86715
-5.921
-5.97814
-6.0351
-6.09204
-6.14838
-6.20307
-6.25572
-6.30646
-6.35548
-6.40295
-6.44904
-6.49388
-6.53759
-6.58016
-6.62133
-5.8475
-5.86225
-5.89618
-5.94317
-5.99493
-6.04781
-6.1012
-6.15451
-6.20684
-6.25768
-6.30692
-6.35463
-6.40088
-6.44571
-6.48917
-6.53129
-6.57202
-6.61115
-5.88342
-5.89604
-5.92494
-5.96586
-6.01239
-6.0611
-6.11088
-6.16107
-6.21084
-6.25958
-6.30704
-6.35313
-6.39784
-6.44111
-6.48294
-6.52325
-6.56206
-6.59914
-5.91497
-5.92585
-5.95083
-5.9868
-6.02873
-6.07355
-6.11995
-6.16713
-6.2143
-6.26081
-6.30629
-6.35055
-6.39347
-6.43498
-6.47497
-6.51341
-6.55025
-6.58539
-5.93778
-5.94746
-5.96978
-6.00233
-6.0409
-6.08271
-6.1264
-6.17108
-6.21596
-6.2604
-6.30395
-6.34636
-6.38746
-6.42715
-6.46531
-6.50189
-6.53684
-6.57015
-5.94494
-5.95413
-5.97543
-6.00671
-6.04397
-6.08446
-6.12679
-6.17008
-6.21355
-6.25658
-6.29868
-6.3396
-6.37916
-6.41726
-6.4538
-6.48877
-6.52209
-6.55384
-5.92911
-5.93892
-5.96161
-5.99483
-6.034
-6.07592
-6.11914
-6.16299
-6.2067
-6.24971
-6.2915
-6.33194
-6.37081
-6.40814
-6.44377
-6.47779
-6.51008
-6.54084
-5.90245
-5.91328
-5.93864
-5.9758
-6.01875
-6.06348
-6.10882
-6.15432
-6.19929
-6.24298
-6.28515
-6.32564
-6.36445
-6.40146
-6.43675
-6.47025
-6.5021
-6.53227
-5.86736
-5.87921
-5.90866
-5.95238
-6.00083
-6.04902
-6.09707
-6.14505
-6.19188
-6.23677
-6.27962
-6.3205
-6.35944
-6.39643
-6.43153
-6.46478
-6.4963
-6.52614
-5.82691
-5.83884
-5.87338
-5.92679
-5.9825
-6.03466
-6.08576
-6.13644
-6.18521
-6.23135
-6.27504
-6.31651
-6.35575
-6.39286
-6.42789
-6.46106
-6.49237
-6.52204
-5.78328
-5.79428
-5.83614
-5.90069
-5.96303
-6.0199
-6.07572
-6.1298
-6.1803
-6.22736
-6.27172
-6.31363
-6.3531
-6.39023
-6.42523
-6.45826
-6.48944
-6.51889
-5.73643
-5.74192
-5.80466
-5.883
-5.94509
-6.00353
-6.06487
-6.12343
-6.17617
-6.22445
-6.26968
-6.31214
-6.35186
-6.38903
-6.42397
-6.45688
-6.48794
-6.51727
-5.6932
-5.65679
-5.76641
-5.87751
-5.93991
-5.99538
-6.05778
-6.11773
-6.17115
-6.22008
-6.26599
-6.30897
-6.34899
-6.38634
-6.42136
-6.4543
-6.48536
-6.51466
-5.70732
-5.54836
-5.67738
-5.8316
-5.92186
-5.99341
-6.06253
-6.12364
-6.17664
-6.22512
-6.27059
-6.31299
-6.35243
-6.38921
-6.42366
-6.45609
-6.4867
-6.51572
-5.83006
-5.65009
-5.66439
-5.73667
-5.82519
-5.92459
-6.01547
-6.08945
-6.15135
-6.20669
-6.25716
-6.30308
-6.34502
-6.38362
-6.41938
-6.45275
-6.48419
-6.51424
-5.53737
-6.12899
-6.21794
-6.09382
-6.03963
-6.06697
-6.11414
-6.15757
-6.19933
-6.2417
-6.28335
-6.32282
-6.35991
-6.39475
-6.42737
-6.45796
-6.48669
-6.51531
-2.54913
-4.31194
-5.31672
-5.61598
-5.7653
-5.9091
-6.02332
-6.10447
-6.16889
-6.22594
-6.27736
-6.32354
-6.36534
-6.40367
-6.43902
-6.4712
-6.50002
-6.5237
-7.58879
-7.58837
-7.58896
-7.5913
-7.5948
-7.59915
-7.60419
-7.60984
-7.61606
-7.6229
-7.62997
-7.6363
-7.64157
-7.6474
-7.65576
-7.66732
-7.68124
-7.69614
-7.71154
-7.72997
-7.75228
-7.7741
-7.79318
-7.80953
-7.8256
-7.84483
-7.86703
-7.89104
-7.91634
-7.94272
-7.9699
-7.99777
-8.0261
-8.05482
-8.08374
-8.11281
-8.14185
-8.17084
-8.19962
-8.22818
-8.25637
-8.28418
-8.31146
-8.33822
-8.36432
-8.38974
-8.41435
-8.43814
-8.46096
-8.48278
-8.50345
-8.52293
-8.54103
-8.55769
-8.57272
-8.58605
-8.59745
-8.60683
-8.61395
-8.61868
-8.62075
-8.62001
-8.61617
-8.60904
-8.59833
-8.5838
-8.56514
-8.54206
-8.51422
-8.48128
-8.44283
-8.39848
-8.34779
-8.29028
-8.22558
-8.15333
-8.07333
-7.9852
-7.8886
-7.78297
-7.66791
-7.54274
-7.40697
-7.25985
-7.10098
-6.92977
-6.74616
-6.54991
-6.34104
-6.11939
-5.88465
-5.63688
-5.37617
-5.10283
-4.81716
-4.51968
-4.21092
-3.89166
-3.56269
-3.22502
-2.87966
-2.52782
-2.17075
-1.80989
-1.44672
-1.08277
-0.719554
-0.358502
-0.0010183
0.351594
0.698037
1.03716
1.36787
1.68927
2.00051
2.30095
2.59001
2.86734
3.13268
3.38599
3.62722
3.85645
4.07379
4.27952
4.474
4.65772
4.83121
4.99504
5.14981
5.29614
5.43468
5.56603
5.6909
5.80987
5.92364
6.03277
6.13792
6.23969
6.33868
6.43542
6.53042
6.62419
6.71725
6.81012
6.90327
6.99716
7.09219
7.18878
7.28725
7.38797
7.49122
7.5973
7.70644
7.81885
7.93465
8.05394
8.17684
8.30346
8.43376
8.56776
8.70548
8.84695
8.99218
9.14113
9.29366
9.44982
9.60965
9.77306
9.93987
10.1099
10.2829
10.4586
10.6367
10.8171
10.9994
11.1836
11.3705
11.56
11.7659
11.9759
-7.58483
-7.58549
-7.58659
-7.5884
-7.59043
-7.59264
-7.59525
-7.59844
-7.60215
-7.60619
-7.61011
-7.61362
-7.61776
-7.62407
-7.63265
-7.64252
-7.65268
-7.66322
-7.67547
-7.68981
-7.7042
-7.71926
-7.73675
-7.75749
-7.78185
-7.80737
-7.8326
-7.85814
-7.88425
-7.91102
-7.93839
-7.9663
-7.99461
-8.02322
-8.05201
-8.08089
-8.10974
-8.13849
-8.16704
-8.19533
-8.22325
-8.25078
-8.2778
-8.30428
-8.33013
-8.3553
-8.37969
-8.40326
-8.42591
-8.44757
-8.46814
-8.48753
-8.5056
-8.52227
-8.53738
-8.55083
-8.56243
-8.57205
-8.5795
-8.58462
-8.58718
-8.58699
-8.58382
-8.57743
-8.56758
-8.55401
-8.53642
-8.51454
-8.48805
-8.45661
-8.41987
-8.37745
-8.32894
-8.27392
-8.21197
-8.14269
-8.06565
-7.98042
-7.8866
-7.78371
-7.67128
-7.54877
-7.41573
-7.27167
-7.11631
-6.94924
-6.77016
-6.57875
-6.37493
-6.15838
-5.92893
-5.6865
-5.43121
-5.16327
-4.88298
-4.59075
-4.28712
-3.97275
-3.64842
-3.31505
-2.97363
-2.6253
-2.27127
-1.91297
-1.55182
-1.18937
-0.827061
-0.466377
-0.108658
0.244703
0.592453
0.933354
1.26634
1.5904
1.90472
2.20855
2.5013
2.78252
3.05194
3.30944
3.55494
3.78847
4.01012
4.2201
4.41876
4.60655
4.78395
4.95152
5.10984
5.25952
5.40116
5.53542
5.66292
5.78432
5.90024
6.01132
6.11816
6.22141
6.32164
6.41942
6.51523
6.60963
6.70311
6.79623
6.88943
6.98323
7.07801
7.17423
7.27222
7.37236
7.47493
7.58027
7.68861
7.80018
7.9151
8.03351
8.15551
8.28121
8.41062
8.54378
8.68065
8.82125
8.96558
9.11355
9.26511
9.42032
9.5792
9.74165
9.90752
10.0766
10.2487
10.4236
10.6011
10.7809
10.9629
11.1471
11.3347
11.5252
11.7332
11.9353
-7.57463
-7.57757
-7.58146
-7.58481
-7.58719
-7.58907
-7.59092
-7.593
-7.59536
-7.59797
-7.60067
-7.60353
-7.60723
-7.61287
-7.62083
-7.6307
-7.64173
-7.65364
-7.66657
-7.68029
-7.69383
-7.70739
-7.72245
-7.74025
-7.76128
-7.78453
-7.80889
-7.834
-7.85972
-7.88602
-7.9128
-7.94002
-7.96757
-7.99538
-8.02335
-8.0514
-8.07942
-8.10737
-8.13514
-8.16268
-8.1899
-8.21675
-8.24314
-8.26903
-8.29434
-8.31901
-8.34295
-8.36612
-8.38841
-8.40977
-8.43007
-8.44925
-8.46718
-8.48375
-8.49883
-8.51231
-8.52401
-8.53381
-8.54151
-8.54695
-8.54993
-8.55025
-8.54768
-8.542
-8.53296
-8.52031
-8.50377
-8.48304
-8.45784
-8.42782
-8.39266
-8.352
-8.30546
-8.25266
-8.19322
-8.12673
-8.05278
-7.97089
-7.88058
-7.78137
-7.67275
-7.55423
-7.42534
-7.28569
-7.13496
-6.97281
-6.7989
-6.61295
-6.41474
-6.20403
-5.98055
-5.74421
-5.49515
-5.23345
-4.95942
-4.67335
-4.37579
-4.06728
-3.7486
-3.42054
-3.08409
-2.74028
-2.39034
-2.03563
-1.6775
-1.31746
-0.956883
-0.597274
-0.239976
0.113571
0.46215
0.804467
1.13946
1.46604
1.78339
2.09067
2.38729
2.6727
2.94662
3.2088
3.45916
3.69764
3.92429
4.1393
4.34296
4.53566
4.71785
4.89006
5.0528
5.20669
5.35227
5.49023
5.62113
5.74564
5.86436
5.97795
6.08699
6.19213
6.29395
6.393
6.48983
6.58494
6.67892
6.77223
6.86542
6.95892
7.05324
7.14875
7.2459
7.34501
7.44646
7.55051
7.6575
7.76761
7.88102
7.99787
8.11832
8.24243
8.37027
8.50189
8.63735
8.77662
8.91971
9.06655
9.21711
9.37136
9.5293
9.6908
9.85573
10.0239
10.1952
10.3694
10.5462
10.7256
10.9075
11.0919
11.2805
11.4718
11.6813
11.8692
-7.55824
-7.56384
-7.57158
-7.57758
-7.58141
-7.58401
-7.58601
-7.58782
-7.58963
-7.59164
-7.59396
-7.59682
-7.60063
-7.606
-7.61329
-7.62242
-7.63301
-7.64475
-7.65748
-7.67111
-7.68541
-7.70041
-7.71659
-7.73453
-7.75449
-7.77628
-7.79942
-7.82356
-7.84846
-7.87399
-7.90003
-7.92649
-7.95328
-7.98033
-8.00752
-8.0348
-8.06208
-8.0893
-8.11637
-8.14324
-8.16983
-8.19609
-8.22194
-8.24733
-8.27218
-8.29645
-8.32004
-8.34291
-8.36496
-8.38611
-8.40628
-8.42537
-8.44327
-8.45987
-8.47505
-8.48869
-8.50062
-8.51071
-8.51879
-8.52468
-8.52819
-8.52912
-8.52726
-8.52238
-8.51424
-8.50258
-8.48713
-8.4676
-8.4437
-8.41511
-8.38149
-8.34249
-8.29774
-8.24688
-8.18951
-8.12525
-8.05368
-7.97435
-7.88678
-7.79048
-7.68496
-7.56973
-7.44434
-7.30837
-7.1615
-7.00335
-6.83357
-6.65187
-6.45806
-6.25177
-6.03281
-5.80109
-5.55663
-5.29957
-5.03007
-4.74849
-4.45524
-4.15091
-3.83615
-3.51176
-3.17866
-2.83789
-2.49065
-2.13823
-1.78202
-1.42339
-1.06376
-0.704539
-0.347167
0.006955
0.356523
0.700296
1.03713
1.36597
1.68591
1.99611
2.29592
2.58479
2.86236
3.12836
3.38264
3.6251
3.85577
4.0748
4.28247
4.47912
4.66518
4.84112
5.00746
5.16476
5.31359
5.45456
5.58826
5.71535
5.83641
5.95209
6.06302
6.16977
6.27296
6.37313
6.47084
6.56663
6.66108
6.75466
6.84793
6.94132
7.03535
7.13041
7.22696
7.32533
7.42591
7.52899
7.63491
7.74385
7.85604
7.97158
8.09068
8.21342
8.33987
8.47007
8.60409
8.74193
8.88363
9.02914
9.17843
9.33147
9.48818
9.64846
9.81219
9.97921
10.1494
10.3225
10.4983
10.6769
10.8582
11.0421
11.2302
11.4205
11.6273
11.801
-7.53982
-7.54815
-7.56012
-7.56925
-7.57512
-7.5791
-7.58207
-7.58451
-7.58678
-7.58919
-7.59201
-7.59552
-7.60004
-7.6059
-7.6133
-7.62229
-7.63269
-7.64436
-7.65711
-7.67091
-7.68567
-7.7015
-7.71851
-7.73691
-7.75675
-7.77797
-7.80035
-7.82372
-7.84787
-7.87266
-7.89796
-7.92369
-7.94974
-7.97605
-8.00252
-8.0291
-8.05569
-8.08225
-8.10868
-8.13496
-8.16099
-8.18674
-8.21211
-8.23709
-8.26157
-8.28551
-8.30884
-8.33149
-8.35337
-8.37441
-8.39452
-8.4136
-8.43155
-8.44827
-8.46362
-8.47748
-8.4897
-8.50015
-8.50866
-8.51505
-8.51913
-8.52072
-8.51959
-8.51552
-8.50828
-8.49762
-8.48325
-8.46491
-8.44229
-8.41508
-8.38294
-8.34553
-8.3025
-8.25345
-8.198
-8.13577
-8.06632
-7.98921
-7.904
-7.8102
-7.70731
-7.59486
-7.47237
-7.33943
-7.19563
-7.04059
-6.87395
-6.69542
-6.50467
-6.30156
-6.08561
-5.85692
-5.61535
-5.3611
-5.09422
-4.81513
-4.52413
-4.22185
-3.90884
-3.58595
-3.25404
-2.91417
-2.56756
-2.21546
-1.8593
-1.50035
-1.14014
-0.77995
-0.421359
-0.0656788
0.285611
0.631374
0.970326
1.3015
1.62385
1.93663
2.23906
2.53067
2.81098
3.07975
3.33674
3.58188
3.81516
4.03674
4.24687
4.44589
4.63423
4.8123
4.98066
5.13979
5.29034
5.43282
5.56793
5.6962
5.81832
5.93488
6.04652
6.15384
6.25741
6.35782
6.4556
6.5514
6.64567
6.73904
6.83193
6.92491
7.01839
7.11287
7.2087
7.30635
7.40611
7.50837
7.61334
7.72135
7.83253
7.9471
8.06514
8.18682
8.31217
8.44131
8.57425
8.71106
8.8517
8.99619
9.14446
9.29649
9.45219
9.61146
9.77419
9.94022
10.1094
10.2816
10.4567
10.6344
10.8149
10.998
11.185
11.373
11.5756
11.7365
-7.52332
-7.53412
-7.54978
-7.56183
-7.56986
-7.57558
-7.57997
-7.58361
-7.58693
-7.59035
-7.59416
-7.59868
-7.60415
-7.6108
-7.61877
-7.62811
-7.63875
-7.65064
-7.66366
-7.67777
-7.69291
-7.70914
-7.72648
-7.745
-7.7647
-7.78553
-7.80736
-7.83009
-7.85357
-7.87768
-7.90231
-7.92738
-7.95277
-7.97844
-8.00428
-8.03025
-8.05625
-8.08225
-8.10816
-8.13395
-8.15954
-8.18488
-8.2099
-8.23456
-8.25878
-8.28251
-8.30568
-8.32821
-8.35004
-8.37108
-8.39123
-8.41042
-8.42852
-8.44544
-8.46106
-8.47524
-8.48785
-8.49875
-8.50776
-8.51473
-8.51946
-8.52176
-8.52143
-8.51823
-8.51193
-8.50229
-8.48904
-8.4719
-8.45057
-8.42474
-8.39409
-8.35826
-8.3169
-8.26962
-8.21604
-8.15574
-8.08832
-8.01332
-7.93028
-7.83874
-7.73821
-7.62819
-7.5082
-7.3778
-7.23656
-7.08406
-6.91991
-6.74376
-6.55545
-6.35441
-6.14063
-5.91381
-5.67402
-5.42125
-5.15571
-4.87762
-4.58741
-4.28556
-3.97272
-3.64964
-3.31725
-2.97663
-2.62897
-2.27559
-1.91783
-1.55711
-1.19484
-0.832494
-0.471513
-0.113367
0.240529
0.588873
0.930467
1.26423
1.58916
1.90442
2.20929
2.50324
2.7858
3.05668
3.31562
3.56255
3.79746
4.02054
4.23202
4.43225
4.62162
4.80059
4.96968
5.12941
5.28038
5.42316
5.5584
5.68668
5.80867
5.925
6.03628
6.14313
6.24611
6.34584
6.44287
6.53784
6.63126
6.72372
6.81567
6.90768
7.00017
7.09364
7.18845
7.28506
7.38379
7.48501
7.58897
7.69597
7.80616
7.91976
8.03686
8.15762
8.28209
8.41039
8.54253
8.67857
8.81847
8.96222
9.10977
9.26106
9.41603
9.57458
9.7366
9.90194
10.0705
10.242
10.4165
10.5936
10.7735
10.9558
11.1414
11.3269
11.5251
11.675
-7.51166
-7.52439
-7.54271
-7.55706
-7.56704
-7.57448
-7.5804
-7.58542
-7.59
-7.59458
-7.59951
-7.60508
-7.6115
-7.61897
-7.62759
-7.63741
-7.64844
-7.66065
-7.67397
-7.68839
-7.70386
-7.72037
-7.73791
-7.75651
-7.7761
-7.79668
-7.81814
-7.84041
-7.86338
-7.88696
-7.91104
-7.93556
-7.96041
-7.98554
-8.01087
-8.03634
-8.06188
-8.08744
-8.11296
-8.13838
-8.16364
-8.1887
-8.21349
-8.23796
-8.26205
-8.28569
-8.30882
-8.33137
-8.35325
-8.3744
-8.39472
-8.41412
-8.43249
-8.44973
-8.46571
-8.48032
-8.49341
-8.50484
-8.51445
-8.52207
-8.52751
-8.53059
-8.5311
-8.52882
-8.52351
-8.51493
-8.50281
-8.48688
-8.46685
-8.4424
-8.4132
-8.37892
-8.33919
-8.29362
-8.24182
-8.18338
-8.11787
-8.04485
-7.96384
-7.87437
-7.77594
-7.66807
-7.55025
-7.42201
-7.2829
-7.13246
-6.97027
-6.79603
-6.60933
-6.40994
-6.19745
-5.97172
-5.73282
-5.48063
-5.21541
-4.93728
-4.64674
-4.34417
-4.03029
-3.70581
-3.37171
-3.02911
-2.67917
-2.32329
-1.96275
-1.5991
-1.23371
-0.868214
-0.503984
-0.142646
0.214484
0.565912
0.910532
1.2471
1.57474
1.89247
2.19969
2.49573
2.78022
3.05274
3.31313
3.56123
3.79713
4.02098
4.23305
4.43368
4.62325
4.80227
4.97121
5.13066
5.28115
5.42337
5.55785
5.68531
5.80634
5.92162
6.03178
6.13738
6.23907
6.33741
6.43308
6.52661
6.61865
6.70965
6.80021
6.89076
6.98187
7.07392
7.16742
7.26269
7.36018
7.46015
7.56296
7.66881
7.77796
7.89052
8.0067
8.12655
8.25022
8.37774
8.50918
8.64454
8.78382
8.92695
9.07392
9.22463
9.37904
9.53704
9.69853
9.86337
10.0314
10.2025
10.3765
10.5532
10.7325
10.9139
11.0982
11.2813
11.4755
11.6164
-7.50644
-7.52032
-7.54017
-7.55604
-7.56751
-7.57641
-7.5837
-7.59
-7.59579
-7.60152
-7.6075
-7.61404
-7.62133
-7.62954
-7.63876
-7.64908
-7.6605
-7.67303
-7.68663
-7.7013
-7.71698
-7.73368
-7.75133
-7.76995
-7.78947
-7.80987
-7.83106
-7.853
-7.87559
-7.89877
-7.92243
-7.94653
-7.97096
-7.9957
-8.02064
-8.04575
-8.07096
-8.09622
-8.12147
-8.14667
-8.17175
-8.19667
-8.22136
-8.24579
-8.26987
-8.29356
-8.31678
-8.33947
-8.36154
-8.38292
-8.40352
-8.42324
-8.44198
-8.45964
-8.4761
-8.49122
-8.50487
-8.51692
-8.52719
-8.53553
-8.54175
-8.54566
-8.54706
-8.54574
-8.54144
-8.53395
-8.52298
-8.50828
-8.48953
-8.46645
-8.43869
-8.40591
-8.36775
-8.32383
-8.27374
-8.21706
-8.15336
-8.08217
-8.00304
-7.91545
-7.81893
-7.71294
-7.59699
-7.47058
-7.33322
-7.18444
-7.0238
-6.8509
-6.66544
-6.46691
-6.25512
-6.02989
-5.79107
-5.53874
-5.27295
-4.99398
-4.70215
-4.39796
-4.08204
-3.75519
-3.41841
-3.07281
-2.71966
-2.36027
-1.99608
-1.62857
-1.2593
-0.889839
-0.521784
-0.156658
0.204062
0.558966
0.906778
1.24634
1.57666
1.89686
2.20623
2.50415
2.79019
3.06399
3.32535
3.57415
3.81048
4.03453
4.24656
4.44692
4.63604
4.81438
4.98249
5.14093
5.29028
5.4312
5.5643
5.69026
5.80973
5.92336
6.03181
6.13564
6.23552
6.33204
6.42588
6.51759
6.60781
6.69704
6.78585
6.87472
6.96417
7.05464
7.1466
7.24042
7.33651
7.43516
7.53672
7.64139
7.74943
7.86098
7.97621
8.0952
8.21806
8.34484
8.47559
8.61031
8.74898
8.89155
9.03797
9.18817
9.34208
9.4996
9.66062
9.82503
9.99265
10.1634
10.3369
10.5132
10.6918
10.8725
11.0553
11.2361
11.4269
11.5605
-7.50795
-7.52221
-7.5425
-7.55907
-7.57147
-7.5814
-7.58975
-7.59709
-7.60389
-7.61057
-7.61745
-7.6248
-7.63281
-7.64164
-7.65138
-7.66212
-7.67387
-7.68666
-7.70048
-7.71531
-7.73113
-7.74791
-7.7656
-7.7842
-7.80364
-7.8239
-7.84489
-7.86659
-7.88891
-7.9118
-7.93517
-7.95897
-7.98312
-8.00759
-8.03228
-8.05717
-8.08218
-8.10728
-8.13241
-8.15752
-8.18256
-8.20748
-8.23222
-8.25673
-8.28094
-8.30481
-8.32824
-8.35119
-8.37356
-8.39529
-8.41627
-8.43642
-8.45563
-8.4738
-8.4908
-8.50651
-8.5208
-8.53352
-8.54452
-8.55363
-8.56066
-8.56545
-8.56777
-8.56742
-8.56417
-8.55776
-8.54796
-8.53447
-8.517
-8.49526
-8.4689
-8.43759
-8.40096
-8.35861
-8.31014
-8.25513
-8.19313
-8.12366
-8.04625
-7.96039
-7.86556
-7.76124
-7.6469
-7.52203
-7.38611
-7.23863
-7.07913
-6.90719
-6.72233
-6.52436
-6.31266
-6.08729
-5.84796
-5.5948
-5.32774
-5.04716
-4.75325
-4.44661
-4.12784
-3.79778
-3.45749
-3.10807
-2.75089
-2.3872
-2.0186
-1.64651
-1.27271
-0.898723
-0.526343
-0.157005
0.207613
0.566218
0.91733
1.25992
1.59289
1.91548
2.22683
2.52642
2.8137
3.0884
3.35025
3.59926
3.83547
4.05912
4.27049
4.46993
4.65793
4.83494
5.00156
5.15832
5.30592
5.44492
5.57605
5.69994
5.8173
5.92877
6.03496
6.13656
6.23415
6.32848
6.42009
6.5097
6.59779
6.68501
6.77182
6.85882
6.94644
7.03521
7.1255
7.2178
7.31241
7.40973
7.50999
7.61351
7.72045
7.83102
7.94532
8.0635
8.1856
8.31171
8.44182
8.57597
8.7141
8.85617
9.00211
9.15186
9.30534
9.46245
9.62309
9.78712
9.9544
10.1247
10.298
10.4738
10.6519
10.8316
11.0131
11.1917
11.3795
11.5075
-7.51561
-7.52959
-7.54938
-7.56587
-7.57861
-7.5891
-7.59812
-7.60617
-7.61369
-7.62107
-7.62862
-7.63658
-7.64513
-7.65442
-7.66455
-7.6756
-7.68759
-7.70056
-7.71451
-7.72943
-7.7453
-7.7621
-7.77978
-7.79833
-7.81768
-7.83782
-7.85867
-7.8802
-7.90234
-7.92504
-7.94823
-7.97186
-7.99585
-8.02017
-8.04474
-8.06954
-8.09449
-8.11957
-8.14471
-8.16987
-8.195
-8.22006
-8.24496
-8.26969
-8.29415
-8.31831
-8.34208
-8.36539
-8.38817
-8.41033
-8.43179
-8.45244
-8.47219
-8.49093
-8.50853
-8.52489
-8.53985
-8.55328
-8.56503
-8.57493
-8.5828
-8.58846
-8.59171
-8.59233
-8.5901
-8.58477
-8.57609
-8.56379
-8.54757
-8.52712
-8.50213
-8.47222
-8.43704
-8.39619
-8.34926
-8.29581
-8.23539
-8.16752
-8.09169
-8.00738
-7.91407
-7.81121
-7.69826
-7.57467
-7.4399
-7.29341
-7.1347
-6.96327
-6.77884
-6.5807
-6.36879
-6.14269
-5.90236
-5.64769
-5.37882
-5.0959
-4.7993
-4.48949
-4.16716
-3.83322
-3.48868
-3.1348
-2.77284
-2.40425
-2.03055
-1.65339
-1.27448
-0.895589
-0.518421
-0.144615
0.224252
0.586694
0.94133
1.28699
1.62267
1.94748
2.26063
2.56153
2.84969
3.12479
3.38666
3.6353
3.87081
4.09345
4.30352
4.50143
4.68765
4.86271
5.0272
5.18171
5.32691
5.46344
5.59202
5.71334
5.82806
5.93688
6.04041
6.13936
6.23435
6.32612
6.41525
6.50243
6.5882
6.67317
6.75784
6.84279
6.92847
7.01541
7.10399
7.19468
7.28781
7.38374
7.48273
7.58508
7.69097
7.80058
7.91402
8.03143
8.15284
8.27832
8.40788
8.5415
8.67915
8.82078
8.96631
9.11567
9.26878
9.42554
9.58585
9.74956
9.91654
10.0866
10.2595
10.4348
10.6124
10.7913
10.9715
11.148
11.3333
11.457
-7.52832
-7.54148
-7.56003
-7.5758
-7.58833
-7.5989
-7.60816
-7.61657
-7.6245
-7.63232
-7.64029
-7.64864
-7.65753
-7.66712
-7.67748
-7.68871
-7.70084
-7.7139
-7.72789
-7.74283
-7.75868
-7.77544
-7.79307
-7.81154
-7.83081
-7.85085
-7.87159
-7.89301
-7.91504
-7.93765
-7.96076
-7.98433
-8.00827
-8.03257
-8.05714
-8.08197
-8.10699
-8.13218
-8.15745
-8.1828
-8.20814
-8.23345
-8.25864
-8.28369
-8.30852
-8.33306
-8.35725
-8.38101
-8.40426
-8.42693
-8.44891
-8.47012
-8.49044
-8.50978
-8.52801
-8.54502
-8.56066
-8.5748
-8.58728
-8.59795
-8.60663
-8.61314
-8.61727
-8.61882
-8.61757
-8.61327
-8.60566
-8.59448
-8.57943
-8.56021
-8.53648
-8.5079
-8.47408
-8.43463
-8.38913
-8.33713
-8.27817
-8.21174
-8.13734
-8.05442
-7.96245
-7.86086
-7.74907
-7.62652
-7.49264
-7.34686
-7.18861
-7.01746
-6.83284
-6.63443
-6.42172
-6.19447
-5.95263
-5.696
-5.42476
-5.13898
-4.83909
-4.52556
-4.19911
-3.8607
-3.51137
-3.15244
-2.78516
-2.41114
-2.03183
-1.64911
-1.26461
-0.88035
-0.497958
-0.119339
0.254023
0.620432
0.978638
1.32731
1.66552
1.99227
2.30687
2.60863
2.89718
3.17214
3.43346
3.68113
3.91533
4.13633
4.34447
4.54021
4.72403
4.89654
5.05828
5.20998
5.35223
5.4858
5.61134
5.72961
5.84128
5.947
6.04752
6.14343
6.23554
6.32443
6.41085
6.49535
6.57861
6.66112
6.74352
6.82625
6.90992
6.9949
7.08173
7.17073
7.26235
7.35686
7.45461
7.55579
7.66066
7.76933
7.88198
7.99866
8.11946
8.24438
8.37346
8.50664
8.6439
8.78516
8.93036
9.07942
9.23224
9.38874
9.54879
9.71228
9.87901
10.0488
10.2214
10.3964
10.5734
10.7515
10.9305
11.1053
11.2883
11.4089
-7.54474
-7.55668
-7.57345
-7.58797
-7.59982
-7.61004
-7.61918
-7.62759
-7.63563
-7.64359
-7.65173
-7.66025
-7.66929
-7.679
-7.68945
-7.70073
-7.71288
-7.72593
-7.73988
-7.75477
-7.77055
-7.78724
-7.80479
-7.82318
-7.84237
-7.86233
-7.88301
-7.90439
-7.92638
-7.94897
-7.97208
-7.99567
-8.01967
-8.04405
-8.06874
-8.09372
-8.11892
-8.14432
-8.16984
-8.19547
-8.22112
-8.24678
-8.27235
-8.29781
-8.32306
-8.34806
-8.37272
-8.39698
-8.42074
-8.44393
-8.46644
-8.48821
-8.50909
-8.52902
-8.54784
-8.56546
-8.58174
-8.59654
-8.6097
-8.62108
-8.63049
-8.63776
-8.6427
-8.6451
-8.64473
-8.64135
-8.63472
-8.62456
-8.61058
-8.59247
-8.56991
-8.54252
-8.50994
-8.47177
-8.42756
-8.37687
-8.31921
-8.25407
-8.18093
-8.09923
-8.00841
-7.90788
-7.79705
-7.6753
-7.54206
-7.3967
-7.23867
-7.0674
-6.88244
-6.68318
-6.46935
-6.24064
-5.99683
-5.73788
-5.46378
-5.17475
-4.87112
-4.55344
-4.22245
-3.8791
-3.52454
-3.15999
-2.78691
-2.40684
-2.0215
-1.63267
-1.24228
-0.852252
-0.464494
-0.0808396
0.296992
0.667401
1.02898
1.38049
1.72088
2.0492
2.36473
2.66685
2.95516
3.22941
3.48956
3.73565
3.96791
4.18664
4.39225
4.58521
4.76608
4.93544
5.09395
5.24229
5.38115
5.51126
5.63337
5.74817
5.8564
5.95872
6.05587
6.14852
6.23745
6.32328
6.40674
6.48841
6.56896
6.64891
6.72887
6.80933
6.89085
6.97386
7.05884
7.14616
7.23623
7.32935
7.42582
7.52587
7.62973
7.73752
7.84939
7.96541
8.08562
8.21005
8.33869
8.47149
8.60842
8.74938
8.89431
9.04313
9.19573
9.35202
9.51187
9.67517
9.84171
10.0113
10.1836
10.3583
10.5348
10.7122
10.8901
11.0633
11.2444
11.3628
-7.56349
-7.57396
-7.58859
-7.60147
-7.61226
-7.62178
-7.63043
-7.63854
-7.64638
-7.65424
-7.6623
-7.67077
-7.67976
-7.68942
-7.69981
-7.71101
-7.72306
-7.73601
-7.74986
-7.76464
-7.78033
-7.79692
-7.81438
-7.8327
-7.85183
-7.87176
-7.89242
-7.91378
-7.93579
-7.9584
-7.98156
-8.00525
-8.02938
-8.05394
-8.07884
-8.10406
-8.12953
-8.15523
-8.18108
-8.20706
-8.23309
-8.25915
-8.28515
-8.31105
-8.33675
-8.36222
-8.38736
-8.4121
-8.43634
-8.46002
-8.48303
-8.50528
-8.52667
-8.54709
-8.56643
-8.58457
-8.60137
-8.61671
-8.63044
-8.6424
-8.65242
-8.66034
-8.66594
-8.66904
-8.66942
-8.66683
-8.66102
-8.65174
-8.63868
-8.62155
-8.59999
-8.57366
-8.54217
-8.5051
-8.46203
-8.41247
-8.35595
-8.29192
-8.21986
-8.13919
-8.04932
-7.94965
-7.83956
-7.71841
-7.58558
-7.44043
-7.28234
-7.11077
-6.92507
-6.72493
-6.50966
-6.27919
-6.03316
-5.77154
-5.49428
-5.20161
-4.89386
-4.5716
-4.23565
-3.88692
-3.52667
-3.15608
-2.77678
-2.39027
-1.99852
-1.60329
-1.20678
-0.810836
-0.417666
-0.0290142
0.353155
0.727373
1.09206
1.44608
1.7882
2.1176
2.43344
2.7353
3.02272
3.29564
3.55395
3.79783
4.02751
4.24335
4.44582
4.63542
4.81277
4.97847
5.13325
5.27776
5.41279
5.53905
5.65732
5.76833
5.87276
5.9714
6.06489
6.15407
6.23956
6.32217
6.40248
6.4812
6.55888
6.63619
6.71361
6.79175
6.87105
6.95206
7.03516
7.1208
7.20931
7.30105
7.39626
7.49522
7.5981
7.70506
7.8162
7.9316
8.05129
8.17529
8.30355
8.43605
8.57271
8.71345
8.8582
9.00684
9.1593
9.31545
9.47519
9.63837
9.8048
9.97425
10.1464
10.3208
10.4969
10.6736
10.8504
11.0224
11.2017
11.3188
-7.5833
-7.59215
-7.60445
-7.61547
-7.62492
-7.63342
-7.6413
-7.64881
-7.65618
-7.66366
-7.67141
-7.67961
-7.68836
-7.6978
-7.70799
-7.719
-7.73087
-7.74365
-7.75735
-7.77198
-7.78753
-7.804
-7.82136
-7.8396
-7.85867
-7.87856
-7.8992
-7.92058
-7.94263
-7.96532
-7.9886
-8.01244
-8.03677
-8.06157
-8.08674
-8.11225
-8.13804
-8.16408
-8.19028
-8.21663
-8.24305
-8.26951
-8.29591
-8.32223
-8.34835
-8.37422
-8.39976
-8.42489
-8.44952
-8.47358
-8.49695
-8.51956
-8.5413
-8.56208
-8.58176
-8.60025
-8.61742
-8.63313
-8.64723
-8.6596
-8.67005
-8.67841
-8.68451
-8.68813
-8.68907
-8.6871
-8.68196
-8.67339
-8.66109
-8.64477
-8.62407
-8.59864
-8.56808
-8.53199
-8.4899
-8.44134
-8.3858
-8.32276
-8.25164
-8.17186
-8.08282
-7.98388
-7.87439
-7.75368
-7.62111
-7.47601
-7.31771
-7.1456
-6.95917
-6.75765
-6.54086
-6.30831
-6.05981
-5.79519
-5.51447
-5.21781
-4.90558
-4.57839
-4.23704
-3.88259
-3.5162
-3.13929
-2.75338
-2.36027
-1.96183
-1.56016
-1.15738
-0.755667
-0.357129
0.0362234
0.422531
0.800146
1.1676
1.52359
1.86694
2.19675
2.51229
2.81312
3.09898
3.36981
3.62562
3.86661
4.09305
4.30538
4.50411
4.6898
4.8631
5.02466
5.17522
5.31551
5.4463
5.56837
5.68248
5.78937
5.88978
5.98447
6.07416
6.15965
6.24162
6.32084
6.39792
6.47356
6.54836
6.62292
6.6978
6.77355
6.85066
6.92964
7.01089
7.09485
7.18184
7.27222
7.36623
7.46412
7.56608
7.67225
7.78271
7.89754
8.01677
8.14038
8.26833
8.40057
8.53702
8.67759
8.8222
8.97073
9.1231
9.27917
9.43885
9.60195
9.76831
9.93766
10.1097
10.2838
10.4595
10.6356
10.8116
10.9824
11.1602
11.2767
-7.6031
-7.6103
-7.62022
-7.62924
-7.63715
-7.6444
-7.65124
-7.65788
-7.66451
-7.67135
-7.67856
-7.68627
-7.6946
-7.70366
-7.71351
-7.72421
-7.7358
-7.74833
-7.76179
-7.77621
-7.79157
-7.80788
-7.8251
-7.84324
-7.86224
-7.88208
-7.90271
-7.92411
-7.94622
-7.96903
-7.99245
-8.01647
-8.04101
-8.06604
-8.09147
-8.11728
-8.14337
-8.16971
-8.19624
-8.22291
-8.24966
-8.27643
-8.30314
-8.32973
-8.35613
-8.38226
-8.40803
-8.43337
-8.4582
-8.48243
-8.50597
-8.52873
-8.5506
-8.57151
-8.59132
-8.60994
-8.62724
-8.6431
-8.65738
-8.66993
-8.6806
-8.68922
-8.69561
-8.69958
-8.70091
-8.69938
-8.69474
-8.68672
-8.67504
-8.65937
-8.6394
-8.61473
-8.58498
-8.54973
-8.50851
-8.46083
-8.40619
-8.34403
-8.27376
-8.19479
-8.10647
-8.00815
-7.89913
-7.77875
-7.64631
-7.50111
-7.34243
-7.16963
-6.98202
-6.77913
-6.56042
-6.32554
-6.07429
-5.80641
-5.52193
-5.22101
-4.90404
-4.57167
-4.22469
-3.86428
-3.49159
-3.10819
-2.7156
-2.31584
-1.91077
-1.50277
-1.09393
-0.686733
-0.283195
0.114419
0.504388
0.884875
1.25451
1.6118
1.9557
2.28517
2.59968
2.89871
3.18225
3.45024
3.70284
3.94024
4.16282
4.37105
4.56549
4.74679
4.91556
5.07259
5.21856
5.3543
5.48057
5.59818
5.70791
5.81048
5.90671
5.9973
6.0831
6.1648
6.2432
6.31895
6.39279
6.46532
6.53723
6.60905
6.68141
6.75479
6.82976
6.90673
6.98619
7.06849
7.15403
7.24307
7.33594
7.43282
7.53391
7.63933
7.74918
7.86349
7.9823
8.10557
8.23327
8.3653
8.5016
8.64206
8.78659
8.93507
9.0874
9.24346
9.40312
9.56622
9.73255
9.90186
10.0737
10.2477
10.4231
10.5987
10.7739
10.9437
11.1202
11.2366
-7.62282
-7.62841
-7.63604
-7.643
-7.64917
-7.65491
-7.6604
-7.66583
-7.67139
-7.67728
-7.68363
-7.69059
-7.69825
-7.7067
-7.716
-7.72621
-7.73736
-7.74948
-7.76257
-7.77667
-7.79174
-7.80779
-7.8248
-7.84275
-7.8616
-7.88133
-7.90188
-7.92325
-7.94535
-7.96818
-7.99166
-8.01577
-8.04041
-8.06557
-8.09113
-8.11708
-8.14334
-8.16987
-8.19658
-8.22345
-8.25036
-8.27728
-8.30409
-8.33076
-8.35718
-8.38331
-8.40905
-8.43434
-8.45907
-8.4832
-8.50662
-8.52925
-8.55099
-8.57176
-8.59144
-8.60994
-8.62713
-8.6429
-8.65711
-8.66965
-8.68032
-8.68901
-8.69551
-8.69965
-8.7012
-8.69997
-8.69568
-8.68809
-8.67688
-8.66177
-8.64239
-8.61838
-8.58934
-8.55483
-8.51439
-8.46752
-8.4137
-8.35231
-8.28282
-8.20452
-8.11682
-8.01895
-7.9103
-7.79008
-7.65763
-7.51207
-7.35284
-7.17912
-6.99028
-6.7857
-6.56491
-6.32759
-6.07336
-5.80206
-5.51365
-5.20832
-4.88649
-4.5488
-4.19618
-3.82973
-3.45082
-3.06093
-2.66187
-2.25557
-1.84423
-1.43016
-1.01583
-0.603593
-0.195756
0.205558
0.598426
0.981128
1.35209
1.70991
2.05344
2.3818
2.6944
2.99091
3.27131
3.53571
3.78435
4.01749
4.23559
4.43917
4.62885
4.80529
4.9692
5.12132
5.26244
5.39337
5.51494
5.62792
5.73312
5.83129
5.92324
6.00973
6.09157
6.16951
6.2443
6.31663
6.38722
6.45671
6.52574
6.59489
6.66474
6.73583
6.80867
6.88371
6.96141
7.04213
7.12624
7.21404
7.30579
7.40171
7.50197
7.60669
7.71594
7.82977
7.94819
8.07115
8.19861
8.33047
8.46664
8.60702
8.75149
8.89995
9.05228
9.20835
9.36804
9.53116
9.69751
9.8668