/*--------------------------------*- C++ -*----------------------------------*\
  =========                 |
  \\      /  F ield         | OpenFOAM: The Open Source CFD Toolbox
   \\    /   O peration     | Website:  https://openfoam.org
    \\  /    A nd           | Version:  8
     \\/     M anipulation  |
\*---------------------------------------------------------------------------*/
FoamFile
{
    version     2.0;
    format      ascii;
    class       surfaceScalarField;
    location    "135";
    object      phi;
}
// * * * * * * * * * * * * * * * * * * * * * * * * * * * * * * * * * * * * * //

dimensions      [0 3 -1 0 0 0 0];

internalField   nonuniform List<scalar> 
24170
(
3.12889e-06
5.95181e-08
3.04662e-06
8.22662e-08
2.97351e-06
7.31139e-08
2.90483e-06
6.86712e-08
2.84047e-06
6.43651e-08
2.78308e-06
5.73817e-08
2.73371e-06
4.93775e-08
2.69168e-06
4.20228e-08
2.65591e-06
3.57664e-08
2.62534e-06
3.05711e-08
2.59897e-06
2.63686e-08
2.57594e-06
2.3027e-08
2.55554e-06
2.0391e-08
2.53713e-06
1.84082e-08
2.52019e-06
1.69387e-08
2.5033e-06
1.68904e-08
2.48653e-06
1.67682e-08
2.76254e-08
2.4589e-06
3.45314e-06
2.36273e-08
3.45702e-06
7.83867e-08
3.45053e-06
7.95946e-08
3.43907e-06
8.0137e-08
3.42427e-06
7.91627e-08
3.407e-06
7.46442e-08
3.38774e-06
6.86356e-08
3.36716e-06
6.25938e-08
3.34595e-06
5.69719e-08
3.32469e-06
5.18256e-08
3.30386e-06
4.71967e-08
3.28372e-06
4.31617e-08
3.26446e-06
3.96493e-08
3.24609e-06
3.67751e-08
3.22871e-06
3.43129e-08
3.21217e-06
3.34211e-08
3.19695e-06
3.19905e-08
3.81906e-08
3.18638e-06
3.66826e-06
1.78863e-08
3.67918e-06
6.74665e-08
3.6854e-06
7.33727e-08
3.68942e-06
7.6112e-08
3.691e-06
7.75854e-08
3.69001e-06
7.56362e-08
3.68684e-06
7.18068e-08
3.68195e-06
6.74802e-08
3.67574e-06
6.31841e-08
3.66852e-06
5.90431e-08
3.66057e-06
5.51472e-08
3.65212e-06
5.16073e-08
3.64335e-06
4.84182e-08
3.6344e-06
4.57254e-08
3.6253e-06
4.34165e-08
3.61646e-06
4.22569e-08
3.60722e-06
4.12278e-08
4.35808e-08
3.60183e-06
3.92587e-06
1.74044e-08
3.93591e-06
5.74264e-08
3.94255e-06
6.67339e-08
3.94807e-06
7.05866e-08
3.95246e-06
7.3192e-08
3.95538e-06
7.27162e-08
3.95701e-06
7.01717e-08
3.9576e-06
6.68926e-08
3.95732e-06
6.34557e-08
3.95633e-06
6.00327e-08
3.95475e-06
5.67244e-08
3.95269e-06
5.36584e-08
3.95024e-06
5.08608e-08
3.9475e-06
4.84628e-08
3.94448e-06
4.64318e-08
3.94154e-06
4.51965e-08
3.93844e-06
4.43235e-08
4.4795e-08
3.93723e-06
4.20819e-06
1.63404e-08
4.21597e-06
4.96439e-08
4.22166e-06
6.10492e-08
4.22674e-06
6.55029e-08
4.23147e-06
6.84694e-08
4.23541e-06
6.87775e-08
4.23853e-06
6.7044e-08
4.24096e-06
6.4467e-08
4.24279e-06
6.16274e-08
4.2441e-06
5.8718e-08
4.24498e-06
5.58466e-08
4.2455e-06
5.31398e-08
4.24571e-06
5.06481e-08
4.2457e-06
4.84756e-08
4.2455e-06
4.66294e-08
4.24537e-06
4.53252e-08
4.24534e-06
4.43544e-08
4.38833e-08
4.24625e-06
4.51069e-06
1.47416e-08
4.51687e-06
4.34557e-08
4.52211e-06
5.58129e-08
4.5269e-06
6.07064e-08
4.53159e-06
6.37817e-08
4.5358e-06
6.45607e-08
4.53944e-06
6.34098e-08
4.54255e-06
6.13553e-08
4.5452e-06
5.89657e-08
4.54747e-06
5.64471e-08
4.5494e-06
5.39169e-08
4.55104e-06
5.14931e-08
4.55245e-06
4.92407e-08
4.55368e-06
4.72372e-08
4.55481e-06
4.55022e-08
4.55601e-06
4.41256e-08
4.55738e-06
4.29789e-08
4.19596e-08
4.5593e-06
4.8343e-06
1.3157e-08
4.83962e-06
3.81442e-08
4.84473e-06
5.07035e-08
4.84941e-06
5.60256e-08
4.85401e-06
5.91768e-08
4.8583e-06
6.02783e-08
4.86213e-06
5.95801e-08
4.86554e-06
5.79419e-08
4.8686e-06
5.59124e-08
4.87133e-06
5.3709e-08
4.87379e-06
5.14564e-08
4.87602e-06
4.92638e-08
4.87806e-06
4.72012e-08
4.87997e-06
4.53257e-08
4.88182e-06
4.36543e-08
4.88374e-06
4.22084e-08
4.88583e-06
4.08896e-08
3.954e-08
4.88825e-06
5.18103e-06
1.17094e-08
5.18574e-06
3.34304e-08
5.19073e-06
4.5715e-08
5.19536e-06
5.13944e-08
5.19992e-06
5.46172e-08
5.20424e-06
5.5952e-08
5.2082e-06
5.56239e-08
5.2118e-06
5.43393e-08
5.21509e-06
5.26161e-08
5.21812e-06
5.06821e-08
5.22091e-06
4.86657e-08
5.2235e-06
4.66691e-08
5.22594e-06
4.47616e-08
5.22827e-06
4.29861e-08
5.23057e-06
4.13528e-08
5.23293e-06
3.98504e-08
5.23542e-06
3.83969e-08
3.6853e-08
5.23811e-06
5.55268e-06
1.03661e-08
5.55688e-06
2.92368e-08
5.56167e-06
4.09237e-08
5.56626e-06
4.68075e-08
5.57079e-06
5.00807e-08
5.57517e-06
5.15811e-08
5.57923e-06
5.15595e-08
5.58298e-06
5.05859e-08
5.58647e-06
4.91348e-08
5.58971e-06
4.74406e-08
5.59274e-06
4.5633e-08
5.5956e-06
4.38089e-08
5.59833e-06
4.20335e-08
5.60097e-06
4.03415e-08
5.60359e-06
3.87372e-08
5.60624e-06
3.71977e-08
5.60898e-06
3.56557e-08
3.40146e-08
5.61182e-06
5.95103e-06
9.1104e-09
5.95477e-06
2.54951e-08
5.95933e-06
3.63637e-08
5.96387e-06
4.22705e-08
5.96839e-06
4.55578e-08
5.9728e-06
4.71663e-08
5.97697e-06
4.73912e-08
5.98086e-06
4.66901e-08
5.98451e-06
4.54839e-08
5.98794e-06
4.40072e-08
5.99118e-06
4.239e-08
5.99427e-06
4.07231e-08
5.99723e-06
3.90674e-08
6.00012e-06
3.74529e-08
6.00297e-06
3.58815e-08
6.00584e-06
3.43304e-08
6.00874e-06
3.27488e-08
3.10763e-08
6.01168e-06
6.37798e-06
7.94382e-09
6.38133e-06
2.21422e-08
6.38565e-06
3.20498e-08
6.39011e-06
3.78041e-08
6.39461e-06
4.10577e-08
6.39906e-06
4.27227e-08
6.40331e-06
4.3134e-08
6.40734e-06
4.26643e-08
6.41115e-06
4.16769e-08
6.41475e-06
4.03983e-08
6.41819e-06
3.89562e-08
6.42147e-06
3.74358e-08
6.42465e-06
3.58937e-08
6.42774e-06
3.43581e-08
6.43079e-06
3.28313e-08
6.43382e-06
3.12967e-08
6.43685e-06
2.97182e-08
2.80695e-08
6.43986e-06
5.74176e-06
7.02079e-09
5.74433e-06
1.95664e-08
5.74779e-06
2.85908e-08
5.7515e-06
3.409e-08
5.75529e-06
3.72724e-08
5.75906e-06
3.89507e-08
5.76272e-06
3.94738e-08
5.76622e-06
3.9166e-08
5.76955e-06
3.83436e-08
5.77273e-06
3.72184e-08
5.77577e-06
3.59142e-08
5.77869e-06
3.45129e-08
5.78152e-06
3.30666e-08
5.78428e-06
3.16024e-08
5.78698e-06
3.01263e-08
5.78965e-06
2.86272e-08
5.79229e-06
2.70826e-08
2.54835e-08
5.79487e-06
6.99914e-06
6.03927e-09
7.00186e-06
1.68417e-08
7.00562e-06
2.48375e-08
7.00977e-06
2.99369e-08
7.01407e-06
3.29687e-08
7.01841e-06
3.46148e-08
7.02266e-06
3.5219e-08
7.02677e-06
3.50586e-08
7.03071e-06
3.43997e-08
7.03449e-06
3.34333e-08
7.03813e-06
3.22784e-08
7.04163e-06
3.10083e-08
7.04503e-06
2.96734e-08
7.04833e-06
2.83005e-08
7.05156e-06
2.68983e-08
7.05473e-06
2.54651e-08
7.05782e-06
2.39862e-08
2.24755e-08
7.06083e-06
8.53188e-06
5.00841e-09
8.53473e-06
1.3993e-08
8.53875e-06
2.08165e-08
8.54334e-06
2.5351e-08
8.54818e-06
2.81268e-08
8.55312e-06
2.96759e-08
8.55802e-06
3.0313e-08
8.56281e-06
3.02709e-08
8.56745e-06
2.9764e-08
8.57192e-06
2.89581e-08
8.57624e-06
2.79577e-08
8.58042e-06
2.68339e-08
8.58447e-06
2.56295e-08
8.5884e-06
2.43731e-08
8.59222e-06
2.30767e-08
8.59594e-06
2.17455e-08
8.59956e-06
2.03764e-08
1.89905e-08
8.60304e-06
1.04003e-05
3.93601e-09
1.04032e-05
1.10403e-08
1.04075e-05
1.65474e-08
1.04125e-05
2.03385e-08
1.04179e-05
2.27276e-08
1.04235e-05
2.40935e-08
1.04291e-05
2.46979e-08
1.04347e-05
2.47291e-08
1.04401e-05
2.4352e-08
1.04454e-05
2.36977e-08
1.04505e-05
2.28594e-08
1.04554e-05
2.18943e-08
1.04602e-05
2.08453e-08
1.04648e-05
1.97361e-08
1.04693e-05
1.85852e-08
1.04737e-05
1.73995e-08
1.04779e-05
1.61859e-08
1.49695e-08
1.04819e-05
1.26779e-05
2.82788e-09
1.2681e-05
7.97484e-09
1.26855e-05
1.20269e-08
1.26909e-05
1.48902e-08
1.26969e-05
1.6739e-08
1.27032e-05
1.78134e-08
1.27096e-05
1.83037e-08
1.2716e-05
1.83495e-08
1.27223e-05
1.80673e-08
1.27284e-05
1.7554e-08
1.27344e-05
1.68789e-08
1.27402e-05
1.60916e-08
1.27458e-05
1.52241e-08
1.27513e-05
1.43016e-08
1.27565e-05
1.33384e-08
1.27616e-05
1.23491e-08
1.27664e-05
1.13378e-08
1.03375e-08
1.2771e-05
1.54543e-05
1.67152e-09
1.54576e-05
4.75049e-09
1.54624e-05
7.19317e-09
1.54684e-05
8.94159e-09
1.5475e-05
1.00817e-08
1.54821e-05
1.07394e-08
1.54894e-05
1.10238e-08
1.54967e-05
1.10186e-08
1.5504e-05
1.07932e-08
1.55111e-05
1.04059e-08
1.55181e-05
9.9013e-09
1.55249e-05
9.312e-09
1.55314e-05
8.66123e-09
1.55378e-05
7.96681e-09
1.55439e-05
7.24194e-09
1.55497e-05
6.49825e-09
1.55553e-05
5.74218e-09
5.00139e-09
1.55607e-05
1.88389e-05
4.26911e-10
1.88424e-05
1.23868e-09
1.88477e-05
1.86882e-09
1.88544e-05
2.29732e-09
1.88619e-05
2.55374e-09
1.887e-05
2.66629e-09
1.88783e-05
2.65636e-09
1.88868e-05
2.54314e-09
1.88953e-05
2.34581e-09
1.89036e-05
2.08152e-09
1.89117e-05
1.76432e-09
1.89196e-05
1.40557e-09
1.89273e-05
1.01477e-09
1.89346e-05
6.00164e-10
1.89417e-05
1.68918e-10
1.89485e-05
-2.71874e-10
1.89549e-05
-7.18111e-10
-1.14783e-09
1.89611e-05
2.29648e-05
-1.00848e-09
2.29689e-05
-2.85121e-09
2.29751e-05
-4.36744e-09
2.29829e-05
-5.52012e-09
2.29918e-05
-6.32336e-09
2.30013e-05
-6.86185e-09
2.30112e-05
-7.22548e-09
2.30212e-05
-7.46692e-09
2.30312e-05
-7.62636e-09
2.3041e-05
-7.73264e-09
2.30506e-05
-7.81343e-09
2.30599e-05
-7.88073e-09
2.30688e-05
-7.94586e-09
2.30774e-05
-8.01049e-09
2.30857e-05
-8.07955e-09
2.30935e-05
-8.15008e-09
2.31011e-05
-8.22475e-09
-8.28657e-09
2.31082e-05
1.68118e-05
-2.13584e-09
1.6815e-05
-6.03847e-09
1.68199e-05
-9.22505e-09
1.68259e-05
-1.15545e-08
1.68327e-05
-1.30799e-08
1.68398e-05
-1.40316e-08
1.68472e-05
-1.45942e-08
1.68546e-05
-1.48764e-08
1.68619e-05
-1.49519e-08
1.68691e-05
-1.48996e-08
1.6876e-05
-1.47661e-08
1.68827e-05
-1.45912e-08
1.68892e-05
-1.43891e-08
1.68954e-05
-1.41803e-08
1.69013e-05
-1.39664e-08
1.69069e-05
-1.37582e-08
1.69122e-05
-1.35517e-08
-1.33436e-08
1.69172e-05
1.46357e-05
-3.21845e-09
1.46388e-05
-9.1405e-09
1.46435e-05
-1.39643e-08
1.46493e-05
-1.7331e-08
1.46556e-05
-1.94078e-08
1.46622e-05
-2.06441e-08
1.46689e-05
-2.1312e-08
1.46756e-05
-2.15454e-08
1.46821e-05
-2.14793e-08
1.46884e-05
-2.12265e-08
1.46945e-05
-2.08665e-08
1.47004e-05
-2.04411e-08
1.4706e-05
-1.99831e-08
1.47113e-05
-1.9511e-08
1.47164e-05
-1.90401e-08
1.47212e-05
-1.85748e-08
1.47258e-05
-1.81221e-08
-1.76719e-08
1.47301e-05
1.27411e-05
-4.23121e-09
1.27443e-05
-1.22798e-08
1.27491e-05
-1.88176e-08
1.27548e-05
-2.30056e-08
1.27608e-05
-2.54227e-08
1.2767e-05
-2.68421e-08
1.27732e-05
-2.75279e-08
1.27793e-05
-2.76295e-08
1.27852e-05
-2.73538e-08
1.27908e-05
-2.68668e-08
1.27962e-05
-2.62584e-08
1.28013e-05
-2.55791e-08
1.28062e-05
-2.48682e-08
1.28109e-05
-2.41479e-08
1.28153e-05
-2.34375e-08
1.28194e-05
-2.27397e-08
1.28234e-05
-2.20639e-08
-2.14005e-08
1.28271e-05
1.10918e-05
-5.07627e-09
1.1095e-05
-1.5512e-08
1.11002e-05
-2.39615e-08
1.11058e-05
-2.86541e-08
1.11116e-05
-3.11858e-08
1.11174e-05
-3.2688e-08
1.11232e-05
-3.32909e-08
1.11287e-05
-3.31781e-08
1.1134e-05
-3.26519e-08
1.11391e-05
-3.19097e-08
1.11438e-05
-3.10431e-08
1.11484e-05
-3.011e-08
1.11526e-05
-2.91511e-08
1.11567e-05
-2.81982e-08
1.11605e-05
-2.72615e-08
1.11641e-05
-2.63541e-08
1.11675e-05
-2.54742e-08
-2.46227e-08
1.11708e-05
9.65582e-06
-5.67819e-09
9.65926e-06
-1.89494e-08
9.66462e-06
-2.93239e-08
9.67014e-06
-3.41705e-08
9.67572e-06
-3.67659e-08
9.6813e-06
-3.82707e-08
9.68666e-06
-3.86498e-08
9.69171e-06
-3.82336e-08
9.69649e-06
-3.7425e-08
9.70099e-06
-3.64188e-08
9.70524e-06
-3.52929e-08
9.70924e-06
-3.41083e-08
9.71299e-06
-3.29114e-08
9.71653e-06
-3.17312e-08
9.71985e-06
-3.05833e-08
9.72297e-06
-2.94735e-08
9.7259e-06
-2.84041e-08
-2.73712e-08
9.72864e-06
8.4053e-06
-5.62686e-09
8.40965e-06
-2.32945e-08
8.4149e-06
-3.4573e-08
8.41994e-06
-3.92133e-08
8.42533e-06
-4.21483e-08
8.43075e-06
-4.36977e-08
8.43586e-06
-4.37551e-08
8.44059e-06
-4.29603e-08
8.44498e-06
-4.18153e-08
8.44905e-06
-4.04957e-08
8.45283e-06
-3.9073e-08
8.45633e-06
-3.76085e-08
8.45957e-06
-3.61517e-08
8.46257e-06
-3.47291e-08
8.46534e-06
-3.33564e-08
8.46791e-06
-3.20395e-08
8.47028e-06
-3.07803e-08
-2.95734e-08
8.47249e-06
7.3145e-06
-2.84577e-09
7.3212e-06
-2.99906e-08
7.32677e-06
-4.01371e-08
7.33173e-06
-4.41732e-08
7.33714e-06
-4.75594e-08
7.34248e-06
-4.90329e-08
7.34737e-06
-4.86485e-08
7.3518e-06
-4.73894e-08
7.3558e-06
-4.58095e-08
7.35937e-06
-4.40674e-08
7.36254e-06
-4.22434e-08
7.36534e-06
-4.04137e-08
7.36782e-06
-3.86253e-08
7.36999e-06
-3.69044e-08
7.3719e-06
-3.52661e-08
7.37358e-06
-3.37131e-08
7.37504e-06
-3.22459e-08
-3.08531e-08
7.37632e-06
6.36244e-06
4.78491e-09
6.37191e-06
-3.94589e-08
6.37934e-06
-4.757e-08
6.38599e-06
-5.08212e-08
6.39228e-06
-5.38518e-08
6.39761e-06
-5.43583e-08
6.40192e-06
-5.29556e-08
6.40541e-06
-5.08831e-08
6.40823e-06
-4.86229e-08
6.41042e-06
-4.62637e-08
6.41207e-06
-4.3889e-08
6.41323e-06
-4.15705e-08
6.41396e-06
-3.93608e-08
6.41434e-06
-3.72769e-08
6.4144e-06
-3.53322e-08
6.41422e-06
-3.35246e-08
6.41383e-06
-3.18533e-08
-3.03007e-08
6.41327e-06
5.54129e-06
8.95493e-09
5.55033e-06
-4.84921e-08
5.55835e-06
-5.55898e-08
5.56606e-06
-5.85356e-08
5.57254e-06
-6.03214e-08
5.57687e-06
-5.86932e-08
5.57913e-06
-5.52071e-08
5.5797e-06
-5.14532e-08
5.57896e-06
-4.78803e-08
5.57718e-06
-4.44902e-08
5.5746e-06
-4.13053e-08
5.5714e-06
-3.83658e-08
5.56772e-06
-3.56797e-08
5.56369e-06
-3.32411e-08
5.5594e-06
-3.10415e-08
5.55494e-06
-2.90696e-08
5.55042e-06
-2.73277e-08
-2.57588e-08
5.54587e-06
4.86019e-06
-2.36279e-08
4.86538e-06
-5.36846e-08
4.86524e-06
-5.54449e-08
4.86218e-06
-5.54782e-08
4.85702e-06
-5.51554e-08
4.84953e-06
-5.11982e-08
4.83985e-06
-4.55231e-08
4.82847e-06
-4.00697e-08
4.8159e-06
-3.53134e-08
4.80263e-06
-3.1223e-08
4.78905e-06
-2.77173e-08
4.77542e-06
-2.47362e-08
4.76194e-06
-2.22021e-08
4.74875e-06
-2.00485e-08
4.73593e-06
-1.82186e-08
4.72356e-06
-1.66899e-08
4.71173e-06
-1.54989e-08
-1.51556e-08
4.70112e-06
4.17905e-06
4.12536e-06
4.06992e-06
4.01444e-06
3.95929e-06
3.90809e-06
3.86257e-06
3.8225e-06
3.78718e-06
3.75596e-06
3.72824e-06
3.70351e-06
3.68131e-06
3.66126e-06
3.64304e-06
3.62635e-06
3.61085e-06
3.5957e-06
2.13703e-08
-2.14345e-08
3.89625e-08
-1.77269e-08
4.78407e-08
-8.90316e-09
4.80994e-08
-3.63331e-10
4.11624e-08
6.9399e-09
2.8438e-08
1.26309e-08
1.16727e-08
1.67947e-08
-8.11245e-09
1.97044e-08
-2.97914e-08
2.17165e-08
-5.3016e-08
2.31652e-08
-7.74621e-08
2.44785e-08
-1.03954e-07
2.64347e-08
-1.34131e-07
3.02164e-08
-1.64918e-07
3.07085e-08
-1.91819e-07
2.69621e-08
-2.22124e-07
3.0207e-08
-2.56771e-07
3.47328e-08
-2.94971e-07
3.81187e-08
-3.28123e-07
3.32242e-08
-3.64724e-07
3.65405e-08
-4.07043e-07
4.23707e-08
-4.51263e-07
4.41758e-08
-4.99377e-07
4.81653e-08
-5.56171e-07
5.67486e-08
-6.08544e-07
5.24296e-08
-6.49008e-07
4.04216e-08
-6.92951e-07
4.40146e-08
-7.39659e-07
4.66788e-08
-7.87661e-07
4.80736e-08
-8.36336e-07
4.86574e-08
-8.85052e-07
4.8795e-08
-9.33722e-07
4.8662e-08
-9.82016e-07
4.8371e-08
-1.02999e-06
4.79754e-08
-1.07743e-06
4.75242e-08
-1.12446e-06
4.70368e-08
-1.17092e-06
4.65403e-08
-1.21696e-06
4.60388e-08
-1.26243e-06
4.55509e-08
-1.30751e-06
4.50749e-08
-1.35207e-06
4.46248e-08
-1.39627e-06
4.41948e-08
-1.44001e-06
4.37958e-08
-1.48343e-06
4.34184e-08
-1.52644e-06
4.30703e-08
-1.56918e-06
4.27384e-08
-1.61155e-06
4.24293e-08
-1.65368e-06
4.21313e-08
-1.69548e-06
4.18508e-08
-1.73706e-06
4.15743e-08
-1.77832e-06
4.13088e-08
-1.81937e-06
4.10394e-08
-1.86011e-06
4.07729e-08
-1.90062e-06
4.04959e-08
-1.94078e-06
4.02148e-08
-1.98071e-06
3.99131e-08
-2.02026e-06
3.95978e-08
-2.05951e-06
3.9254e-08
-2.09834e-06
3.8889e-08
-2.13682e-06
3.84851e-08
-2.17481e-06
3.80505e-08
-2.21236e-06
3.75696e-08
-2.24933e-06
3.70497e-08
-2.28576e-06
3.6473e-08
-2.32152e-06
3.58472e-08
-2.35663e-06
3.51546e-08
-2.39095e-06
3.4402e-08
-2.42448e-06
3.35725e-08
-2.45707e-06
3.26719e-08
-2.4887e-06
3.16841e-08
-2.51924e-06
3.06136e-08
-2.54863e-06
2.94448e-08
-2.57674e-06
2.818e-08
-2.60349e-06
2.68057e-08
-2.62875e-06
2.53189e-08
-2.6524e-06
2.37033e-08
-2.67428e-06
2.19525e-08
-2.69427e-06
2.00508e-08
-2.71219e-06
1.79883e-08
-2.72785e-06
1.5748e-08
-2.74109e-06
1.331e-08
-2.75164e-06
1.06539e-08
-2.75933e-06
7.7621e-09
-2.76388e-06
4.66957e-09
-2.76528e-06
1.48278e-09
-2.76358e-06
-1.58619e-09
-2.75899e-06
-4.5299e-09
-2.75144e-06
-7.48992e-09
-2.74093e-06
-1.05296e-08
-2.72734e-06
-1.36616e-08
-2.71054e-06
-1.68709e-08
-2.69045e-06
-2.01501e-08
-2.66702e-06
-2.3487e-08
-2.64021e-06
-2.68769e-08
-2.60997e-06
-3.03023e-08
-2.5763e-06
-3.37518e-08
-2.53917e-06
-3.72002e-08
-2.49862e-06
-4.06323e-08
-2.45465e-06
-4.40188e-08
-2.40736e-06
-4.73411e-08
-2.35679e-06
-5.05675e-08
-2.30307e-06
-5.36669e-08
-2.24631e-06
-5.6627e-08
-2.1867e-06
-5.94028e-08
-2.12443e-06
-6.2002e-08
-2.05972e-06
-6.43871e-08
-1.9928e-06
-6.65942e-08
-1.92389e-06
-6.85618e-08
-1.85335e-06
-7.02305e-08
-1.78141e-06
-7.16311e-08
-1.70837e-06
-7.27741e-08
-1.63451e-06
-7.36062e-08
-1.56016e-06
-7.41568e-08
-1.48559e-06
-7.43877e-08
-1.41114e-06
-7.4339e-08
-1.33707e-06
-7.39767e-08
-1.26369e-06
-7.33471e-08
-1.19126e-06
-7.24309e-08
-1.12007e-06
-7.12781e-08
-1.05028e-06
-6.98646e-08
-9.8209e-07
-6.82286e-08
-9.1568e-07
-6.63599e-08
-8.51315e-07
-6.43104e-08
-7.89183e-07
-6.20845e-08
-7.29493e-07
-5.97503e-08
-6.72318e-07
-5.73003e-08
-6.17779e-07
-5.47874e-08
-5.65888e-07
-5.21997e-08
-5.16717e-07
-4.95837e-08
-4.7024e-07
-4.69343e-08
-4.26485e-07
-4.42924e-08
-3.85388e-07
-4.16605e-08
-3.46932e-07
-3.9068e-08
-3.11025e-07
-3.65219e-08
-2.77602e-07
-3.40449e-08
-2.46543e-07
-3.16571e-08
-2.17729e-07
-2.93695e-08
-1.91006e-07
-2.71956e-08
-1.66229e-07
-2.5123e-08
-1.43259e-07
-2.3183e-08
-1.21978e-07
-2.13889e-08
-1.02202e-07
-1.97829e-08
-8.37737e-08
-1.83681e-08
-6.64867e-08
-1.7151e-08
-5.01846e-08
-1.61136e-08
-3.46633e-08
-1.52751e-08
-1.97507e-08
-1.46288e-08
-5.2192e-09
-1.42037e-08
9.10109e-09
-1.3962e-08
2.33837e-08
-1.38865e-08
3.77586e-08
-1.395e-08
5.23749e-08
-1.41575e-08
6.72754e-08
-1.44148e-08
8.24798e-08
-1.46921e-08
9.8072e-08
-1.50631e-08
1.14246e-07
-1.56295e-08
1.31096e-07
-1.62966e-08
1.48679e-07
-1.70203e-08
1.67048e-07
-1.78016e-08
1.86298e-07
-1.86795e-08
2.06495e-07
-1.96277e-08
2.27713e-07
-2.06524e-08
2.5001e-07
-2.1739e-08
2.73462e-07
-2.29011e-08
2.9814e-07
-2.41413e-08
3.24142e-07
-2.54768e-08
3.51512e-07
-2.68636e-08
3.80284e-07
-2.82793e-08
4.10465e-07
-2.97101e-08
4.42086e-07
-3.11639e-08
4.75151e-07
-3.26315e-08
5.09672e-07
-3.41008e-08
5.45603e-07
-3.55353e-08
5.8285e-07
-3.68663e-08
6.21167e-07
-3.79621e-08
6.6004e-07
-3.8537e-08
6.98321e-07
-3.79782e-08
7.33112e-07
-3.45218e-08
7.57881e-07
-2.45466e-08
2.06436e-08
7.37409e-07
1.08649e-08
-3.23552e-08
1.22162e-08
-1.91599e-08
7.63322e-09
-4.34264e-09
-1.23908e-09
8.45681e-09
-1.37668e-08
1.94604e-08
-2.98861e-08
2.87062e-08
-4.9382e-08
3.62929e-08
-7.21794e-08
4.24647e-08
-9.80456e-08
4.75905e-08
-1.27022e-07
5.21135e-08
-1.59048e-07
5.65145e-08
-1.93822e-07
6.11857e-08
-2.29687e-07
6.60913e-08
-2.68945e-07
6.99416e-08
-3.13895e-07
7.19245e-08
-3.58542e-07
7.48228e-08
-4.01908e-07
7.81198e-08
-4.44625e-07
8.08069e-08
-4.93606e-07
8.22282e-08
-5.41832e-07
8.47424e-08
-5.89014e-07
8.95757e-08
-6.38777e-07
9.39274e-08
-6.88494e-07
9.79032e-08
-7.32809e-07
1.01058e-07
-7.80707e-07
1.00349e-07
-8.37342e-07
9.70564e-08
-8.89413e-07
9.61087e-08
-9.38597e-07
9.58639e-08
-9.86104e-07
9.56043e-08
-1.03257e-06
9.51249e-08
-1.07818e-06
9.44293e-08
-1.12307e-06
9.35666e-08
-1.16727e-06
9.25912e-08
-1.21083e-06
9.15461e-08
-1.25374e-06
9.04679e-08
-1.29608e-06
8.93821e-08
-1.33782e-06
8.83105e-08
-1.37903e-06
8.72661e-08
-1.41972e-06
8.62604e-08
-1.45993e-06
8.52983e-08
-1.49967e-06
8.43848e-08
-1.53899e-06
8.35191e-08
-1.57787e-06
8.27016e-08
-1.61637e-06
8.19275e-08
-1.65447e-06
8.11943e-08
-1.69222e-06
8.04948e-08
-1.72959e-06
7.98246e-08
-1.76663e-06
7.91749e-08
-1.80329e-06
7.85405e-08
-1.83962e-06
7.79115e-08
-1.87558e-06
7.72826e-08
-1.91118e-06
7.66441e-08
-1.94638e-06
7.59911e-08
-1.98119e-06
7.53135e-08
-2.01556e-06
7.46058e-08
-2.0495e-06
7.38575e-08
-2.08294e-06
7.30637e-08
-2.11589e-06
7.22138e-08
-2.14828e-06
7.13026e-08
-2.1801e-06
7.03191e-08
-2.21128e-06
6.92591e-08
-2.2418e-06
6.81112e-08
-2.27158e-06
6.68708e-08
-2.3006e-06
6.55265e-08
-2.32879e-06
6.40732e-08
-2.3561e-06
6.24988e-08
-2.38245e-06
6.07986e-08
-2.4078e-06
5.89606e-08
-2.43207e-06
5.69797e-08
-2.45519e-06
5.48442e-08
-2.47708e-06
5.25481e-08
-2.49768e-06
5.00794e-08
-2.51689e-06
4.74306e-08
-2.53463e-06
4.45871e-08
-2.55081e-06
4.15385e-08
-2.56534e-06
3.82701e-08
-2.57812e-06
3.47732e-08
-2.58907e-06
3.10407e-08
-2.59811e-06
2.70706e-08
-2.60517e-06
2.28619e-08
-2.61023e-06
1.84191e-08
-2.61327e-06
1.37537e-08
-2.61435e-06
8.88648e-09
-2.61346e-06
3.84737e-09
-2.61057e-06
-1.34525e-09
-2.60539e-06
-6.71283e-09
-2.59759e-06
-1.22812e-08
-2.58701e-06
-1.80424e-08
-2.57356e-06
-2.40025e-08
-2.55712e-06
-3.01469e-08
-2.53758e-06
-3.6457e-08
-2.51486e-06
-4.29109e-08
-2.48891e-06
-4.94804e-08
-2.45968e-06
-5.615e-08
-2.42714e-06
-6.28834e-08
-2.39129e-06
-6.96552e-08
-2.35212e-06
-7.64169e-08
-2.30966e-06
-8.31364e-08
-2.26395e-06
-8.97565e-08
-2.21507e-06
-9.62398e-08
-2.16311e-06
-1.02522e-07
-2.10817e-06
-1.08555e-07
-2.05042e-06
-1.14281e-07
-1.99003e-06
-1.19657e-07
-1.92721e-06
-1.24645e-07
-1.86219e-06
-1.2922e-07
-1.79522e-06
-1.33358e-07
-1.72661e-06
-1.36988e-07
-1.6566e-06
-1.40052e-07
-1.58551e-06
-1.42563e-07
-1.51361e-06
-1.44513e-07
-1.44123e-06
-1.45865e-07
-1.36865e-06
-1.46619e-07
-1.29619e-06
-1.46768e-07
-1.22413e-06
-1.46328e-07
-1.15276e-06
-1.45304e-07
-1.08235e-06
-1.43727e-07
-1.01319e-06
-1.41621e-07
-9.45475e-07
-1.39024e-07
-8.79425e-07
-1.35954e-07
-8.15201e-07
-1.32452e-07
-7.52989e-07
-1.28541e-07
-6.92965e-07
-1.24283e-07
-6.35301e-07
-1.19725e-07
-5.80118e-07
-1.14943e-07
-5.27503e-07
-1.09975e-07
-4.77506e-07
-1.04883e-07
-4.30153e-07
-9.96935e-08
-3.85449e-07
-9.44619e-08
-3.43371e-07
-8.92145e-08
-3.03886e-07
-8.40046e-08
-2.66931e-07
-7.88593e-08
-2.32435e-07
-7.38222e-08
-2.00298e-07
-6.89172e-08
-1.70418e-07
-6.41845e-08
-1.42665e-07
-5.96533e-08
-1.16906e-07
-5.53562e-08
-9.2977e-08
-5.12981e-08
-7.07279e-08
-4.75001e-08
-4.99961e-08
-4.39731e-08
-3.06408e-08
-4.07712e-08
-1.24879e-08
-3.79142e-08
4.62722e-09
-3.54479e-08
2.09027e-08
-3.33471e-08
3.65125e-08
-3.16353e-08
5.16519e-08
-3.02875e-08
6.64785e-08
-2.93267e-08
8.11512e-08
-2.87132e-08
9.58135e-08
-2.84633e-08
1.10664e-07
-2.85442e-08
1.25869e-07
-2.89646e-08
1.41586e-07
-2.96541e-08
1.57976e-07
-3.05894e-08
1.75243e-07
-3.17133e-08
1.93491e-07
-3.3072e-08
2.12775e-07
-3.46487e-08
2.33151e-07
-3.64148e-08
2.5471e-07
-3.82993e-08
2.77514e-07
-4.03337e-08
3.01609e-07
-4.24832e-08
3.27015e-07
-4.47542e-08
3.53769e-07
-4.71097e-08
3.81888e-07
-4.95756e-08
4.11417e-07
-5.21348e-08
4.4238e-07
-5.48236e-08
4.74815e-07
-5.76236e-08
5.08751e-07
-6.05266e-08
5.44232e-07
-6.34819e-08
5.81277e-07
-6.64938e-08
6.19912e-07
-6.95346e-08
6.60129e-07
-7.26002e-08
7.01911e-07
-7.56324e-08
7.45177e-07
-7.85668e-08
7.89786e-07
-8.12424e-08
8.35435e-07
-8.33938e-08
8.81595e-07
-8.44863e-08
9.2713e-07
-8.33224e-08
9.70476e-07
-7.76956e-08
1.0072e-06
-6.11286e-08
-1.12154e-08
1.03917e-06
-4.3612e-09
-2.80322e-08
-1.5606e-08
-7.96751e-09
-2.97575e-08
9.79569e-09
-4.61791e-08
2.4845e-08
-6.46983e-08
3.79739e-08
-8.55059e-08
4.94845e-08
-1.08769e-07
5.95542e-08
-1.34719e-07
6.83907e-08
-1.63402e-07
7.62742e-08
-1.94835e-07
8.35283e-08
-2.28769e-07
9.0451e-08
-2.64794e-07
9.71967e-08
-3.02337e-07
1.03637e-07
-3.41722e-07
1.09311e-07
-3.8369e-07
1.13897e-07
-4.26851e-07
1.17966e-07
-4.70392e-07
1.21668e-07
-5.14539e-07
1.24938e-07
-5.60137e-07
1.27837e-07
-6.06271e-07
1.30866e-07
-6.51081e-07
1.34399e-07
-6.94796e-07
1.37639e-07
-7.3705e-07
1.40173e-07
-7.77629e-07
1.41636e-07
-8.18854e-07
1.41591e-07
-8.62177e-07
1.40382e-07
-9.05184e-07
1.39132e-07
-9.47277e-07
1.3796e-07
-9.88433e-07
1.36775e-07
-1.02881e-06
1.3551e-07
-1.06852e-06
1.34149e-07
-1.10765e-06
1.32704e-07
-1.14625e-06
1.31201e-07
-1.18437e-06
1.29669e-07
-1.22202e-06
1.28133e-07
-1.25925e-06
1.26614e-07
-1.29605e-06
1.2513e-07
-1.33247e-06
1.23692e-07
-1.36851e-06
1.2231e-07
-1.40419e-06
1.20988e-07
-1.43953e-06
1.19728e-07
-1.47453e-06
1.18529e-07
-1.50921e-06
1.17389e-07
-1.54358e-06
1.16301e-07
-1.57763e-06
1.15259e-07
-1.61138e-06
1.14257e-07
-1.64483e-06
1.13284e-07
-1.67798e-06
1.12333e-07
-1.71081e-06
1.11392e-07
-1.74334e-06
1.10451e-07
-1.77555e-06
1.09501e-07
-1.80743e-06
1.0853e-07
-1.83895e-06
1.07528e-07
-1.87011e-06
1.06484e-07
-1.90088e-06
1.05389e-07
-1.93124e-06
1.04231e-07
-1.96116e-06
1.02999e-07
-1.99062e-06
1.01683e-07
-2.01958e-06
1.00273e-07
-2.048e-06
9.87575e-08
-2.07585e-06
9.7126e-08
-2.1031e-06
9.53675e-08
-2.12968e-06
9.34716e-08
-2.15556e-06
9.14268e-08
-2.18068e-06
8.92227e-08
-2.20501e-06
8.68469e-08
-2.22847e-06
8.42889e-08
-2.25103e-06
8.15366e-08
-2.2726e-06
7.85792e-08
-2.29313e-06
7.54042e-08
-2.31256e-06
7.20006e-08
-2.3308e-06
6.83549e-08
-2.3478e-06
6.44549e-08
-2.36347e-06
6.02867e-08
-2.37774e-06
5.58362e-08
-2.39054e-06
5.10898e-08
-2.40177e-06
4.60382e-08
-2.41138e-06
4.06744e-08
-2.41928e-06
3.49965e-08
-2.42539e-06
2.90056e-08
-2.42964e-06
2.27061e-08
-2.43196e-06
1.61056e-08
-2.43225e-06
9.21153e-09
-2.43039e-06
2.02727e-09
-2.42624e-06
-5.46008e-09
-2.41965e-06
-1.32702e-08
-2.41049e-06
-2.14074e-08
-2.39866e-06
-2.98609e-08
-2.38406e-06
-3.86146e-08
-2.36659e-06
-4.7648e-08
-2.34616e-06
-5.69295e-08
-2.32268e-06
-6.64222e-08
-2.29611e-06
-7.60955e-08
-2.26638e-06
-8.5903e-08
-2.2335e-06
-9.58073e-08
-2.19744e-06
-1.05748e-07
-2.15822e-06
-1.15676e-07
-2.11586e-06
-1.25518e-07
-2.07042e-06
-1.35214e-07
-2.02198e-06
-1.44684e-07
-1.97062e-06
-1.53852e-07
-1.91649e-06
-1.62636e-07
-1.85972e-06
-1.70955e-07
-1.80052e-06
-1.78746e-07
-1.73908e-06
-1.85944e-07
-1.67566e-06
-1.92505e-07
-1.6105e-06
-1.9837e-07
-1.54389e-06
-2.03477e-07
-1.47607e-06
-2.07742e-07
-1.40736e-06
-2.11161e-07
-1.33804e-06
-2.1372e-07
-1.26843e-06
-2.15397e-07
-1.19879e-06
-2.16173e-07
-1.12944e-06
-2.16065e-07
-1.06064e-06
-2.15078e-07
-9.92673e-07
-2.13248e-07
-9.25782e-07
-2.10602e-07
-8.60224e-07
-2.07196e-07
-7.96195e-07
-2.03072e-07
-7.3389e-07
-1.9828e-07
-6.73457e-07
-1.92869e-07
-6.15066e-07
-1.86902e-07
-5.58853e-07
-1.80448e-07
-5.04963e-07
-1.73597e-07
-4.53477e-07
-1.66428e-07
-4.0447e-07
-1.59022e-07
-3.57965e-07
-1.51446e-07
-3.13982e-07
-1.4377e-07
-2.72497e-07
-1.36054e-07
-2.33486e-07
-1.2836e-07
-1.96888e-07
-1.20746e-07
-1.62639e-07
-1.13269e-07
-1.30647e-07
-1.05979e-07
-1.0081e-07
-9.89237e-08
-7.30119e-08
-9.21493e-08
-4.71241e-08
-8.57012e-08
-2.30029e-08
-7.96162e-08
-4.97632e-10
-7.3917e-08
2.05546e-08
-6.86262e-08
4.03036e-08
-6.37732e-08
5.89083e-08
-5.93989e-08
7.65148e-08
-5.55408e-08
9.32966e-08
-5.22293e-08
1.09429e-07
-4.9478e-08
1.25106e-07
-4.72907e-08
1.40495e-07
-4.56576e-08
1.55775e-07
-4.45718e-08
1.71108e-07
-4.40156e-08
1.86669e-07
-4.39789e-08
2.02606e-07
-4.44419e-08
2.19075e-07
-4.53792e-08
2.3621e-07
-4.67413e-08
2.54166e-07
-4.84841e-08
2.73079e-07
-5.05699e-08
2.93064e-07
-5.29879e-08
3.1419e-07
-5.57115e-08
3.36547e-07
-5.86977e-08
3.60216e-07
-6.1901e-08
3.85264e-07
-6.53038e-08
4.11718e-07
-6.88676e-08
4.3961e-07
-7.25695e-08
4.68959e-07
-7.63878e-08
4.99787e-07
-8.03283e-08
5.32113e-07
-8.43923e-08
5.65956e-07
-8.85936e-08
6.01328e-07
-9.293e-08
6.38257e-07
-9.73864e-08
6.76769e-07
-1.01932e-07
7.1689e-07
-1.06551e-07
7.58628e-07
-1.11216e-07
8.01978e-07
-1.15892e-07
8.46902e-07
-1.20504e-07
8.93319e-07
-1.2493e-07
9.4107e-07
-1.28946e-07
9.89875e-07
-1.32151e-07
1.03926e-06
-1.33824e-07
1.08844e-06
-1.32468e-07
1.13639e-06
-1.25602e-07
1.18195e-06
-1.0666e-07
-6.0051e-08
1.2308e-06
-1.67834e-08
-1.12742e-08
-3.70057e-08
1.22179e-08
-5.83132e-08
3.10953e-08
-8.06132e-08
4.71203e-08
-1.04003e-07
6.13591e-08
-1.28752e-07
7.42116e-08
-1.55075e-07
8.58741e-08
-1.83204e-07
9.65007e-08
-2.13193e-07
1.06261e-07
-2.4501e-07
1.1533e-07
-2.78406e-07
1.23847e-07
-3.1308e-07
1.31857e-07
-3.48718e-07
1.39276e-07
-3.85345e-07
1.45924e-07
-4.23125e-07
1.5168e-07
-4.6183e-07
1.56657e-07
-5.01127e-07
1.60971e-07
-5.40903e-07
1.64704e-07
-5.81011e-07
1.67953e-07
-6.21015e-07
1.70863e-07
-6.60104e-07
1.73499e-07
-6.98132e-07
1.75665e-07
-7.35119e-07
1.77173e-07
-7.71362e-07
1.77881e-07
-8.07495e-07
1.77736e-07
-8.43997e-07
1.76886e-07
-8.80503e-07
1.75651e-07
-9.1675e-07
1.74209e-07
-9.52594e-07
1.72631e-07
-9.88026e-07
1.70945e-07
-1.02304e-06
1.69176e-07
-1.05768e-06
1.67345e-07
-1.09195e-06
1.65478e-07
-1.12588e-06
1.63601e-07
-1.15948e-06
1.61737e-07
-1.19276e-06
1.59904e-07
-1.22574e-06
1.58116e-07
-1.25843e-06
1.56385e-07
-1.29083e-06
1.54718e-07
-1.32296e-06
1.53118e-07
-1.35481e-06
1.51588e-07
-1.38641e-06
1.50124e-07
-1.41773e-06
1.48723e-07
-1.44881e-06
1.47377e-07
-1.47962e-06
1.4608e-07
-1.51017e-06
1.44821e-07
-1.54047e-06
1.4359e-07
-1.5705e-06
1.42377e-07
-1.60027e-06
1.41168e-07
-1.62976e-06
1.39951e-07
-1.65896e-06
1.38715e-07
-1.68787e-06
1.37445e-07
-1.71646e-06
1.36129e-07
-1.74472e-06
1.34755e-07
-1.77262e-06
1.33308e-07
-1.80016e-06
1.31776e-07
-1.82729e-06
1.30145e-07
-1.854e-06
1.28404e-07
-1.88025e-06
1.26537e-07
-1.90602e-06
1.24533e-07
-1.93126e-06
1.22378e-07
-1.95594e-06
1.20059e-07
-1.98002e-06
1.17562e-07
-2.00345e-06
1.14874e-07
-2.02619e-06
1.11981e-07
-2.0482e-06
1.08868e-07
-2.06942e-06
1.05522e-07
-2.08979e-06
1.01928e-07
-2.10926e-06
9.80714e-08
-2.12777e-06
9.39373e-08
-2.14526e-06
8.95106e-08
-2.16166e-06
8.4776e-08
-2.1769e-06
7.97179e-08
-2.19091e-06
7.43196e-08
-2.20362e-06
6.85659e-08
-2.21495e-06
6.24421e-08
-2.22482e-06
5.59357e-08
-2.23316e-06
4.90372e-08
-2.23988e-06
4.17403e-08
-2.2449e-06
3.4041e-08
-2.2481e-06
2.59373e-08
-2.2494e-06
1.74278e-08
-2.24867e-06
8.50912e-09
-2.24579e-06
-8.24603e-10
-2.24064e-06
-1.05848e-08
-2.23311e-06
-2.0779e-08
-2.22309e-06
-3.14042e-08
-2.2105e-06
-4.24458e-08
-2.19524e-06
-5.38847e-08
-2.17724e-06
-6.56839e-08
-2.15639e-06
-7.7815e-08
-2.13262e-06
-9.02248e-08
-2.10588e-06
-1.02869e-07
-2.07613e-06
-1.15689e-07
-2.04334e-06
-1.28626e-07
-2.00751e-06
-1.41606e-07
-1.96866e-06
-1.54557e-07
-1.92681e-06
-1.67387e-07
-1.88202e-06
-1.80012e-07
-1.83437e-06
-1.92327e-07
-1.78395e-06
-2.04231e-07
-1.7309e-06
-2.15618e-07
-1.67538e-06
-2.26386e-07
-1.61756e-06
-2.36446e-07
-1.55767e-06
-2.45712e-07
-1.49594e-06
-2.54111e-07
-1.43263e-06
-2.61561e-07
-1.368e-06
-2.67998e-07
-1.3023e-06
-2.7333e-07
-1.23585e-06
-2.77525e-07
-1.16892e-06
-2.80559e-07
-1.10182e-06
-2.82429e-07
-1.03482e-06
-2.83111e-07
-9.68206e-07
-2.82633e-07
-9.02244e-07
-2.81004e-07
-8.37193e-07
-2.7828e-07