/*--------------------------------*- C++ -*----------------------------------*\
  =========                 |
  \\      /  F ield         | OpenFOAM: The Open Source CFD Toolbox
   \\    /   O peration     | Website:  https://openfoam.org
    \\  /    A nd           | Version:  8
     \\/     M anipulation  |
\*---------------------------------------------------------------------------*/
FoamFile
{
    version     2.0;
    format      ascii;
    class       volVectorField;
    location    "135";
    object      U;
}
// * * * * * * * * * * * * * * * * * * * * * * * * * * * * * * * * * * * * * //

dimensions      [0 1 -1 0 0 0 0];

internalField   nonuniform List<vector> 
12225
(
(9.85701 -0.88658 0)
(9.66626 -0.740732 0)
(9.45572 -0.429399 0)
(9.22435 -0.222144 0)
(9.00626 -0.106373 0)
(8.81397 -0.0457832 0)
(8.64685 -0.0151021 0)
(8.50454 0.000541632 0)
(8.38249 0.00848304 0)
(8.27947 0.0123937 0)
(8.19045 0.0141301 0)
(8.1137 0.0151949 0)
(8.04586 0.0156862 0)
(7.98557 0.0159967 0)
(7.92989 0.0162939 0)
(7.8805 0.0168729 0)
(7.81772 0.0194784 0)
(7.80713 0.0198133 0)
(10.0545 0.227682 0)
(10.1213 0.327 0)
(10.1196 0.261658 0)
(10.0855 0.186631 0)
(10.0433 0.134731 0)
(9.99657 0.101188 0)
(9.9438 0.0793764 0)
(9.88486 0.064663 0)
(9.82339 0.0543875 0)
(9.7606 0.0468401 0)
(9.69892 0.041144 0)
(9.63869 0.0366889 0)
(9.58097 0.0331843 0)
(9.52592 0.0306038 0)
(9.47317 0.0285464 0)
(9.42486 0.0287483 0)
(9.37459 0.0271285 0)
(9.3437 0.0425501 0)
(10.0035 0.0581582 0)
(10.0305 0.0559589 0)
(10.056 0.0338061 0)
(10.0703 0.0329232 0)
(10.0769 0.0406958 0)
(10.0776 0.0466113 0)
(10.0723 0.0494502 0)
(10.061 0.0504277 0)
(10.0456 0.0503743 0)
(10.027 0.0497246 0)
(10.0062 0.0487756 0)
(9.98364 0.0477509 0)
(9.96007 0.0467806 0)
(9.93581 0.0460722 0)
(9.91103 0.0455719 0)
(9.88666 0.046333 0)
(9.86182 0.0471641 0)
(9.84002 0.0540159 0)
(9.99772 0.0109535 0)
(10.0111 0.026636 0)
(10.035 0.0371587 0)
(10.0524 0.0481188 0)
(10.0642 0.0555108 0)
(10.0732 0.0582699 0)
(10.0792 0.0584755 0)
(10.082 0.0577796 0)
(10.0822 0.0567932 0)
(10.0805 0.0556845 0)
(10.0772 0.0545366 0)
(10.0725 0.0534914 0)
(10.0667 0.0525769 0)
(10.0601 0.0519713 0)
(10.0527 0.051654 0)
(10.0451 0.0523363 0)
(10.0373 0.0534149 0)
(10.0307 0.0571592 0)
(9.99935 0.00710649 0)
(10.009 0.0317201 0)
(10.0274 0.0439545 0)
(10.0417 0.0499778 0)
(10.0526 0.0536948 0)
(10.0627 0.0553513 0)
(10.0713 0.0556751 0)
(10.0779 0.0554406 0)
(10.0829 0.0549741 0)
(10.0866 0.0543757 0)
(10.0891 0.0537163 0)
(10.0908 0.0531146 0)
(10.0916 0.0526223 0)
(10.0918 0.0523821 0)
(10.0915 0.0524288 0)
(10.0911 0.053158 0)
(10.0908 0.0543109 0)
(10.0913 0.0565181 0)
(10.0003 0.00915831 0)
(10.0083 0.031243 0)
(10.0227 0.0410033 0)
(10.0349 0.0454714 0)
(10.0449 0.0491462 0)
(10.0546 0.0515182 0)
(10.0635 0.0525495 0)
(10.071 0.0528478 0)
(10.0773 0.0528029 0)
(10.0828 0.0525618 0)
(10.0874 0.0522164 0)
(10.0913 0.0518786 0)
(10.0947 0.0516183 0)
(10.0976 0.0515465 0)
(10.1002 0.0517147 0)
(10.1027 0.0523197 0)
(10.1054 0.0532274 0)
(10.1089 0.0544558 0)
(10.0004 0.00893476 0)
(10.0071 0.0271503 0)
(10.019 0.0364861 0)
(10.0301 0.0414896 0)
(10.0395 0.0455462 0)
(10.0485 0.0482542 0)
(10.057 0.0495799 0)
(10.0646 0.0501237 0)
(10.0712 0.0502966 0)
(10.0772 0.0502546 0)
(10.0825 0.0500912 0)
(10.0874 0.049906 0)
(10.0918 0.0497728 0)
(10.0958 0.0497737 0)
(10.0997 0.049953 0)
(10.1035 0.0503924 0)
(10.1076 0.05099 0)
(10.1122 0.0515792 0)
(10.0004 0.0079138 0)
(10.0059 0.0234341 0)
(10.0161 0.0328197 0)
(10.0262 0.0382182 0)
(10.035 0.0422511 0)
(10.0434 0.044983 0)
(10.0515 0.0464571 0)
(10.0588 0.0471729 0)
(10.0655 0.0475036 0)
(10.0715 0.0476044 0)
(10.0771 0.0475683 0)
(10.0823 0.0474847 0)
(10.0872 0.0474242 0)
(10.0918 0.0474462 0)
(10.0962 0.0475802 0)
(10.1007 0.0478436 0)
(10.1053 0.0481433 0)
(10.1103 0.0482896 0)
(10.0004 0.00696605 0)
(10.005 0.0204785 0)
(10.0136 0.0295474 0)
(10.0228 0.0349934 0)
(10.0311 0.0388883 0)
(10.039 0.0416047 0)
(10.0466 0.0432061 0)
(10.0537 0.0440691 0)
(10.0602 0.0445247 0)
(10.0662 0.0447327 0)
(10.0719 0.0447866 0)
(10.0772 0.044768 0)
(10.0822 0.0447401 0)
(10.087 0.0447465 0)
(10.0917 0.0448017 0)
(10.0964 0.044892 0)
(10.1013 0.0449311 0)
(10.1063 0.044765 0)
(10.0004 0.0061408 0)
(10.0043 0.0179151 0)
(10.0116 0.0263787 0)
(10.0198 0.031728 0)
(10.0275 0.0355024 0)
(10.035 0.0381887 0)
(10.0422 0.0398755 0)
(10.049 0.0408475 0)
(10.0554 0.0413956 0)
(10.0613 0.0416813 0)
(10.0669 0.0417969 0)
(10.0722 0.0418158 0)
(10.0773 0.0417932 0)
(10.0822 0.0417612 0)
(10.087 0.0417241 0)
(10.0918 0.041656 0)
(10.0966 0.0414827 0)
(10.1015 0.0410968 0)
(10.0003 0.00538454 0)
(10.0036 0.0156108 0)
(10.0099 0.0233498 0)
(10.0172 0.0285056 0)
(10.0244 0.0321426 0)
(10.0314 0.0347569 0)
(10.0382 0.0364732 0)
(10.0447 0.0375133 0)
(10.0509 0.0381249 0)
(10.0567 0.0384634 0)
(10.0622 0.038618 0)
(10.0675 0.038654 0)
(10.0725 0.0386189 0)
(10.0774 0.0385372 0)
(10.0822 0.0384079 0)
(10.087 0.0382041 0)
(10.0917 0.0378669 0)
(10.0965 0.0373305 0)
(10.0003 0.00472203 0)
(10.0032 0.013676 0)
(10.0086 0.0207118 0)
(10.0152 0.0256055 0)
(10.0219 0.02908 0)
(10.0284 0.0315921 0)
(10.0349 0.033292 0)
(10.0412 0.0343604 0)
(10.0471 0.0350058 0)
(10.0528 0.0353722 0)
(10.0582 0.0355445 0)
(10.0634 0.0355818 0)
(10.0684 0.0355249 0)
(10.0733 0.0353936 0)
(10.078 0.035186 0)
(10.0827 0.0348793 0)
(10.0873 0.0344294 0)
(10.0919 0.0338021 0)
(10.0003 0.00410881 0)
(10.0028 0.0119118 0)
(10.0075 0.0182198 0)
(10.0134 0.0227746 0)
(10.0196 0.0260511 0)
(10.0258 0.0284343 0)
(10.0319 0.0300838 0)
(10.0379 0.0311513 0)
(10.0437 0.0318093 0)
(10.0492 0.032187 0)
(10.0545 0.0323642 0)
(10.0596 0.0323936 0)
(10.0645 0.0323107 0)
(10.0693 0.0321326 0)
(10.074 0.0318583 0)
(10.0786 0.0314716 0)
(10.083 0.0309405 0)
(10.0874 0.0302563 0)
(10.0002 0.00347518 0)
(10.0024 0.0100784 0)
(10.0064 0.0155465 0)
(10.0117 0.0196369 0)
(10.0174 0.0226312 0)
(10.0231 0.0248245 0)
(10.0289 0.0263712 0)
(10.0346 0.0273977 0)
(10.0402 0.0280402 0)
(10.0455 0.0284086 0)
(10.0507 0.0285745 0)
(10.0557 0.0285844 0)
(10.0605 0.0284683 0)
(10.0651 0.0282419 0)
(10.0697 0.027906 0)
(10.0741 0.0274525 0)
(10.0784 0.0268608 0)
(10.0826 0.026142 0)
(10.0002 0.00281704 0)
(10.002 0.0081736 0)
(10.0055 0.0127011 0)
(10.0101 0.0161966 0)
(10.0153 0.0188054 0)
(10.0206 0.0207319 0)
(10.026 0.0221093 0)
(10.0314 0.0230399 0)
(10.0367 0.0236262 0)
(10.0418 0.0239553 0)
(10.0468 0.0240875 0)
(10.0516 0.0240625 0)
(10.0563 0.0239058 0)
(10.0608 0.0236314 0)
(10.0652 0.0232441 0)
(10.0695 0.0227415 0)
(10.0736 0.0221157 0)
(10.0776 0.0213873 0)
(10.0002 0.00213353 0)
(10.0017 0.00619829 0)
(10.0047 0.00969031 0)
(10.0087 0.0124561 0)
(10.0134 0.0145585 0)
(10.0183 0.0161229 0)
(10.0233 0.017249 0)
(10.0284 0.0180138 0)
(10.0334 0.0184894 0)
(10.0383 0.0187385 0)
(10.0431 0.0188085 0)
(10.0477 0.0187305 0)
(10.0522 0.0185257 0)
(10.0566 0.0182067 0)
(10.0608 0.0177807 0)
(10.0649 0.0172511 0)
(10.0688 0.0166161 0)
(10.0725 0.015905 0)
(10.0002 0.00142142 0)
(10.0015 0.00413722 0)
(10.0041 0.00649578 0)
(10.0076 0.00839512 0)
(10.0118 0.00985755 0)
(10.0163 0.0109481 0)
(10.021 0.0117278 0)
(10.0257 0.0122456 0)
(10.0305 0.0125457 0)
(10.0352 0.012668 0)
(10.0397 0.0126432 0)
(10.0442 0.0124937 0)
(10.0485 0.0122343 0)
(10.0527 0.0118763 0)
(10.0567 0.011426 0)
(10.0606 0.0108907 0)
(10.0643 0.0102706 0)
(10.0678 0.00959782 0)
(10.0001 0.000663717 0)
(10.0013 0.001937 0)
(10.0036 0.00304228 0)
(10.0069 0.00392972 0)
(10.0107 0.00460724 0)
(10.0149 0.00509766 0)
(10.0193 0.00542349 0)
(10.0238 0.00560425 0)
(10.0283 0.00565803 0)
(10.0328 0.00560166 0)
(10.0371 0.00544849 0)
(10.0414 0.00520897 0)
(10.0455 0.00489046 0)
(10.0495 0.00449932 0)
(10.0534 0.0040403 0)
(10.057 0.00351912 0)
(10.0606 0.00293759 0)
(10.0639 0.00232337 0)
(10.0001 -0.000183018 0)
(10.0013 -0.000526268 0)
(10.0035 -0.000845813 0)
(10.0066 -0.00113499 0)
(10.0103 -0.00138784 0)
(10.0144 -0.00161782 0)
(10.0186 -0.00184408 0)
(10.023 -0.00207872 0)
(10.0273 -0.00233102 0)
(10.0317 -0.00260704 0)
(10.0359 -0.00291364 0)
(10.04 -0.003254 0)
(10.044 -0.00363152 0)
(10.0478 -0.00404634 0)
(10.0515 -0.00449942 0)
(10.055 -0.00498828 0)
(10.0583 -0.00551378 0)
(10.0615 -0.00605439 0)
(10.0001 -0.000993861 0)
(10.0013 -0.00289307 0)
(10.0037 -0.00458785 0)
(10.007 -0.00599961 0)
(10.0109 -0.00712087 0)
(10.0151 -0.00801213 0)
(10.0194 -0.00873481 0)
(10.0239 -0.00933267 0)
(10.0283 -0.00983972 0)
(10.0326 -0.0102898 0)
(10.0368 -0.0107075 0)
(10.0409 -0.0111122 0)
(10.0448 -0.0115143 0)
(10.0485 -0.0119242 0)
(10.0521 -0.0123458 0)
(10.0555 -0.0127838 0)
(10.0588 -0.013239 0)
(10.0619 -0.0136993 0)
(10.0002 -0.00169335 0)
(10.0015 -0.00496055 0)
(10.0041 -0.00785814 0)
(10.0078 -0.0101847 0)
(10.0121 -0.0119583 0)
(10.0165 -0.0133298 0)
(10.0211 -0.0144054 0)
(10.0257 -0.0152436 0)
(10.0302 -0.0159011 0)
(10.0346 -0.0164383 0)
(10.0389 -0.0168995 0)
(10.043 -0.0173155 0)
(10.0469 -0.0177046 0)
(10.0506 -0.0180829 0)
(10.0542 -0.0184586 0)
(10.0576 -0.0188388 0)
(10.0608 -0.0192265 0)
(10.0638 -0.0196128 0)
(10.0002 -0.00235728 0)
(10.0017 -0.00700192 0)
(10.0047 -0.011124 0)
(10.009 -0.0142747 0)
(10.0138 -0.0165533 0)
(10.0186 -0.0182702 0)
(10.0235 -0.0195867 0)
(10.0283 -0.0205736 0)
(10.033 -0.0213136 0)
(10.0376 -0.0218876 0)
(10.0419 -0.0223543 0)
(10.046 -0.022749 0)
(10.05 -0.0231011 0)
(10.0537 -0.0234281 0)
(10.0573 -0.023746 0)
(10.0606 -0.0240597 0)
(10.0638 -0.0243778 0)
(10.0668 -0.0246901 0)
(10.0002 -0.0029779 0)
(10.0018 -0.00906775 0)
(10.0054 -0.0144102 0)
(10.0106 -0.0182856 0)
(10.016 -0.0210161 0)
(10.0212 -0.023026 0)
(10.0264 -0.024471 0)
(10.0315 -0.025477 0)
(10.0365 -0.0261986 0)
(10.0411 -0.026746 0)
(10.0456 -0.0271764 0)
(10.0498 -0.027526 0)
(10.0537 -0.0278246 0)
(10.0575 -0.0280951 0)
(10.061 -0.0283515 0)
(10.0644 -0.0286026 0)
(10.0675 -0.0288537 0)
(10.0705 -0.0291006 0)
(10.0001 -0.00352332 0)
(10.0018 -0.0115314 0)
(10.0063 -0.0178597 0)
(10.0123 -0.0219461 0)
(10.0184 -0.025002 0)
(10.0241 -0.0274021 0)
(10.0298 -0.0290324 0)
(10.0352 -0.0300368 0)
(10.0403 -0.030686 0)
(10.0451 -0.0311455 0)
(10.0496 -0.0314826 0)
(10.0539 -0.0317392 0)
(10.0579 -0.0319484 0)
(10.0617 -0.0321355 0)
(10.0652 -0.0323126 0)
(10.0686 -0.0324888 0)
(10.0717 -0.0326654 0)
(10.0746 -0.0328407 0)
(9.99991 -0.00336863 0)
(10.0016 -0.014969 0)
(10.0073 -0.0227115 0)
(10.0143 -0.026211 0)
(10.0207 -0.0287878 0)
(10.0269 -0.0311456 0)
(10.0332 -0.0328611 0)
(10.0392 -0.0339451 0)
(10.0446 -0.0346429 0)
(10.0496 -0.0351069 0)
(10.0543 -0.0354083 0)
(10.0586 -0.0356016 0)
(10.0626 -0.0357327 0)
(10.0663 -0.0358321 0)
(10.0698 -0.0359186 0)
(10.0729 -0.0360018 0)
(10.0759 -0.0360865 0)
(10.0786 -0.0361706 0)
(9.99859 -0.000377248 0)
(9.99904 -0.0157845 0)
(10.0076 -0.0274162 0)
(10.0166 -0.0324651 0)
(10.0238 -0.0348352 0)
(10.0307 -0.0361857 0)
(10.0377 -0.0369336 0)
(10.0442 -0.0373982 0)
(10.05 -0.0377459 0)
(10.0552 -0.0379936 0)
(10.0598 -0.0381414 0)
(10.0638 -0.038216 0)
(10.0674 -0.0382452 0)
(10.0706 -0.0382504 0)
(10.0734 -0.0382474 0)
(10.0758 -0.0382445 0)
(10.078 -0.0382462 0)
(10.0798 -0.0382483 0)
(9.99487 0.00140883 0)
(9.99288 -0.00811446 0)
(10.0061 -0.020316 0)
(10.0202 -0.0322432 0)
(10.0307 -0.0404462 0)
(10.0393 -0.0441165 0)
(10.0468 -0.0450272 0)
(10.053 -0.0448822 0)
(10.0579 -0.0444155 0)
(10.0618 -0.04382 0)
(10.0648 -0.0431784 0)
(10.067 -0.0425474 0)
(10.0685 -0.0419597 0)
(10.0693 -0.0414238 0)
(10.0697 -0.0409491 0)
(10.0696 -0.0405337 0)
(10.0691 -0.0401737 0)
(10.0683 -0.0398441 0)
(9.9947 -0.0305752 0)
(9.99944 -0.0228431 0)
(10.0147 -0.00260788 0)
(10.0304 -0.00188528 0)
(10.0435 -0.0116344 0)
(10.0534 -0.0208982 0)
(10.0595 -0.0272552 0)
(10.062 -0.0314816 0)
(10.0616 -0.0342564 0)
(10.0592 -0.0359534 0)
(10.0552 -0.0368884 0)
(10.05 -0.0373256 0)
(10.0437 -0.0374561 0)
(10.0367 -0.0373998 0)
(10.0292 -0.0372457 0)
(10.0212 -0.037052 0)
(10.0131 -0.036882 0)
(10.0049 -0.0367038 0)
(10.0274 -0.183005 0)
(10.0766 -0.28832 0)
(10.0871 -0.247814 0)
(10.0777 -0.186549 0)
(10.0664 -0.14031 0)
(10.0538 -0.108228 0)
(10.0366 -0.0858789 0)
(10.0146 -0.070419 0)
(9.98951 -0.0596469 0)
(9.9625 -0.0518714 0)
(9.93455 -0.0460504 0)
(9.90626 -0.0415542 0)
(9.87811 -0.0380007 0)
(9.85042 -0.0351284 0)
(9.82345 -0.0327702 0)
(9.7973 -0.0308526 0)
(9.77221 -0.0293427 0)
(9.74822 -0.0285359 0)
(9.93575 0.689542 0)
(9.86829 0.609598 0)
(9.76462 0.380611 0)
(9.62668 0.217418 0)
(9.48598 0.119251 0)
(9.35732 0.0631697 0)
(9.24284 0.0315583 0)
(9.1413 0.0136072 0)
(9.05167 0.00325365 0)
(8.97272 -0.00280807 0)
(8.90284 -0.00636279 0)
(8.84068 -0.00848211 0)
(8.785 -0.00973046 0)
(8.7349 -0.0104907 0)
(8.68947 -0.0109745 0)
(8.64811 -0.011255 0)
(8.60989 -0.0114849 0)
(8.57452 -0.0121299 0)
(0.0120142 -0.0230749 -6.45453e-19)
(0.0295153 -0.0240645 3.76632e-19)
(0.0397364 -0.0141395 0)
(0.0439563 -0.00265132 0)
(0.0408094 0.00729258 0)
(0.031726 0.0146627 -1.52218e-19)
(0.0182965 0.0195595 0)
(0.00179524 0.0225078 0)
(-0.0168162 0.0241902 0)
(-0.0370386 0.0253538 0)
(-0.0585718 0.026984 1.01733e-19)
(-0.0804918 0.0305388 0)
(-0.101221 0.0381241 0)
(-0.128198 0.0296569 0)
(-0.161332 0.00218125 0)
(-0.183419 -0.00180343 2.07375e-19)
(-0.212768 -0.000649765 0)
(-0.243363 -0.000594687 0)
(-0.281985 -0.0162814 0)
(-0.315941 0.0099793 0)
(-0.345975 0.0420891 0)
(-0.383909 0.0599123 0)
(-0.425676 0.0814703 0)
(-0.468105 0.112166 6.44237e-20)
(-0.517575 0.0932552 -8.72282e-20)
(-0.567848 0.0393548 9.78797e-20)
(-0.602226 0.0396624 9.25014e-20)
(-0.642996 0.0421811 0)
(-0.685887 0.0435817 0)
(-0.72972 0.0440572 -7.97881e-20)
(-0.773922 0.0440341 -7.6363e-20)
(-0.818168 0.0437146 0)
(-0.862267 0.0432248 0)
(-0.906101 0.0426269 -6.78959e-20)
(-0.949598 0.0419735 0)
(-0.992721 0.0412889 0)
(-1.03545 0.040599 6.14562e-20)
(-1.07779 0.0399102 0)
(-1.11973 0.0392405 5.79579e-20)
(-1.1613 0.0385905 1.12788e-19)
(-1.2025 0.0379734 0)
(-1.24336 0.0373856 0)
(-1.2839 0.0368366 0)
(-1.32415 0.036319 0)
(-1.36412 0.0358374 0)
(-1.40384 0.0353789 9.77611e-20)
(-1.44333 0.0349476 9.57252e-20)
(-1.4826 0.0345355 9.37889e-20)
(-1.52166 0.034148 0)
(-1.56053 0.0337744 -9.01877e-20)
(-1.59922 0.03342 0)
(-1.63773 0.0330732 8.68966e-20)
(-1.67606 0.0327392 8.53524e-20)
(-1.7142 0.0324078 0)
(-1.75214 0.0320833 0)
(-1.78987 0.0317533 0)
(-1.82738 0.0314232 7.97321e-20)
(-1.86465 0.0310822 0)
(-1.90165 0.0307354 0)
(-1.93836 0.0303704 0)
(-1.97475 0.0299935 0)
(-2.01077 0.0295938 0)
(-2.04639 0.0291769 0)
(-2.08156 0.028731 0)
(-2.11624 0.028262 0)
(-2.15037 0.027758 -6.94311e-20)
(-2.1839 0.0272241 0)
(-2.21677 0.0266473 0)
(-2.24891 0.0260303 6.64831e-20)
(-2.28024 0.0253577 6.5538e-20)
(-2.31068 0.0246268 0)
(-2.34016 0.0238176 -6.36936e-20)
(-2.36857 0.022921 6.27896e-20)
(-2.39581 0.0219134 0)
(-2.42179 0.0207841 -6.10049e-20)
(-2.44638 0.0195209 0)
(-2.46948 0.0181344 0)
(-2.49093 0.0166355 5.83526e-20)
(-2.5106 0.0150417 0)
(-2.52832 0.0133622 -5.65887e-20)
(-2.54392 0.0116055 0)
(-2.55719 0.0097743 5.48225e-20)
(-2.56793 0.00786435 5.39333e-20)
(-2.57588 0.00589264 5.30349e-20)
(-2.58087 0.00389578 1.04219e-19)
(-2.5828 0.0019683 -1.02244e-19)
(-2.58213 0.000100413 0)
(-2.57874 -0.00180163 0)
(-2.57261 -0.00377575 0)
(-2.56365 -0.00582146 -9.34357e-20)
(-2.55173 -0.0079379 -9.09481e-20)
(-2.53674 -0.010123 8.832e-20)
(-2.51863 -0.0123724 0)
(-2.49733 -0.0146849 -8.25839e-20)
(-2.4728 -0.0170514 -7.94458e-20)
(-2.44501 -0.0194651 -7.6107e-20)
(-2.41392 -0.0219101 0)
(-2.37954 -0.0243752 0)
(-2.34187 -0.0268405 0)
(-2.30095 -0.0292948 -6.04578e-20)
(-2.25683 -0.0317158 0)
(-2.20959 -0.0340791 0)
(-2.15933 -0.0363879 4.59481e-20)
(-2.10616 -0.0385756 0)
(-2.05029 -0.0406437 0)
(-1.99188 -0.0425557 2.87298e-20)
(-1.93119 -0.0444123 0)
(-1.86835 -0.0461864 0)
(-1.80367 -0.0477024 -8.74809e-21)
(-1.7374 -0.0490341 -1.46761e-21)
(-1.66983 -0.0501743 0)
(-1.60121 -0.0511023 -1.39879e-20)
(-1.53182 -0.0518242 0)
(-1.46196 -0.0523169 3.05815e-20)
(-1.39191 -0.0525974 0)
(-1.32195 -0.0526437 4.8224e-20)
(-1.25237 -0.0524777 5.74021e-20)
(-1.18345 -0.0520927 0)
(-1.11545 -0.0515156 0)
(-1.04857 -0.0507275 0)
(-0.98299 -0.0497519 0)
(-0.918907 -0.0485839 0)
(-0.85654 -0.0472547 0)
(-0.79612 -0.0457702 0)
(-0.737842 -0.0441714 1.36898e-19)
(-0.681848 -0.0424578 -1.47199e-19)
(-0.628237 -0.0406621 0)
(-0.577082 -0.0387824 0)
(-0.52843 -0.0368483 0)
(-0.482313 -0.0348619 0)
(-0.438739 -0.0328506 -3.95165e-19)
(-0.397701 -0.030822 0)
(-0.359167 -0.0287972 4.33124e-19)
(-0.32309 -0.0267864 -4.51333e-19)
(-0.2894 -0.0248067 0)
(-0.258019 -0.0228762 0)
(-0.228837 -0.0210055 0)
(-0.201725 -0.0192053 5.17925e-19)
(-0.176536 -0.0174733 5.32899e-19)
(-0.153137 -0.0158283 0)
(-0.131411 -0.0142837 5.60804e-19)
(-0.111218 -0.0128635 5.73758e-19)
(-0.0923968 -0.011578 -5.86081e-19)
(-0.0747656 -0.010429 0)
(-0.0581442 -0.00941403 0)
(-0.0423555 -0.00853887 -6.19981e-19)
(-0.0272134 -0.00780554 0)
(-0.0125194 -0.00722454 0)
(0.00191511 -0.00679046 0)
(0.0162681 -0.00649273 0)
(0.0306962 -0.00631765 6.72345e-19)
(0.045346 -0.00625431 6.83312e-19)
(0.0604146 -0.00626248 0)
(0.0758176 -0.00627488 7.01057e-19)
(0.0914558 -0.00627575 0)
(0.107653 -0.00634836 0)
(0.124659 -0.00650101 6.76207e-19)
(0.142434 -0.00670445 0)
(0.160964 -0.00691998 6.58727e-19)
(0.180441 -0.00716171 0)
(0.20095 -0.00742713 0)
(0.222556 -0.00770136 6.34158e-19)
(0.245332 -0.00799838 0)
(0.269328 -0.00833177 6.16253e-19)
(0.294639 -0.00870461 0)
(0.321355 -0.00912721 0)
(0.349555 -0.00957813 0)
(0.379299 -0.0100375 -5.81035e-19)
(0.410622 -0.0104956 0)
(0.443555 -0.0109558 5.63487e-19)
(0.478126 -0.011418 0)
(0.514357 -0.0118815 0)
(0.552247 -0.0123365 0)
(0.591734 -0.0127608 0)
(0.632713 -0.0131066 0)
(0.674624 -0.0132757 0)
(0.717501 -0.013015 0)
(0.75602 -0.0117268 -1.00813e-18)
(0.799098 -0.00809623 0)
(0.786897 0.0096974 0)
(0.00614899 -0.0591264 1.44697e-18)
(0.0118664 -0.04214 -6.65692e-19)
(0.00955751 -0.0181147 0)
(0.00355393 0.00290423 1.98271e-19)
(-0.00588528 0.0206079 0)
(-0.0186949 0.0347655 7.33983e-20)
(-0.0346298 0.0455834 -1.33928e-19)
(-0.0535213 0.0536057 -1.2502e-19)
(-0.0752221 0.0595571 0)
(-0.0996189 0.0642062 -1.15721e-19)
(-0.126546 0.0683359 -5.80796e-20)
(-0.15563 0.0727238 0)
(-0.186008 0.0779919 0)
(-0.221282 0.0828094 0)
(-0.26 0.0843857 0)
(-0.300208 0.0880325 -7.08524e-20)
(-0.339852 0.0929352 0)
(-0.378795 0.097143 1.17255e-19)
(-0.421169 0.0989678 0)
(-0.462931 0.099546 0)
(-0.50432 0.103577 -7.7697e-20)
(-0.548408 0.106786 0)
(-0.593048 0.109914 7.60985e-20)
(-0.635173 0.113528 -3.90501e-20)
(-0.679109 0.114763 4.05396e-20)
(-0.726447 0.113361 -3.97226e-20)
(-0.775059 0.113681 -3.84175e-20)
(-0.820687 0.114008 0)
(-0.864477 0.113759 0)
(-0.90714 0.112921 3.49801e-20)
(-0.949013 0.111653 -3.37717e-20)
(-0.990234 0.110093 0)
(-1.03087 0.108352 0)
(-1.07095 0.106503 3.14878e-20)
(-1.1105 0.10461 0)
(-1.14955 0.102708 0)
(-1.18812 0.100832 -2.94738e-20)
(-1.22624 0.0989989 0)
(-1.26392 0.0972262 2.81349e-20)
(-1.30121 0.0955177 -5.56249e-20)
(-1.33812 0.0938839 0)
(-1.37467 0.0923206 0)
(-1.41089 0.0908322 -1.0524e-19)
(-1.44679 0.0894095 -1.03541e-19)
(-1.48239 0.0880529 -1.01913e-19)
(-1.51769 0.0867499 4.99823e-20)
(-1.55272 0.0854987 -4.96202e-20)
(-1.58747 0.0842858 -1.46318e-19)
(-1.62196 0.0831093 9.60342e-20)
(-1.65618 0.0819549 4.75402e-20)
(-1.69013 0.0808212 0)
(-1.7238 0.0796939 -4.6269e-20)
(-1.75718 0.0785724 4.52882e-20)
(-1.79025 0.0774431 0)
(-1.823 0.0763052 0)
(-1.85541 0.0751436 0)
(-1.88745 0.0739585 -4.33876e-20)
(-1.91909 0.0727361 0)
(-1.9503 0.071477 8.42931e-20)
(-1.98104 0.0701663 0)
(-2.01129 0.0688057 8.22485e-20)
(-2.041 0.0673818 0)
(-2.07012 0.0658961 -8.02632e-20)
(-2.09861 0.0643343 0)
(-2.12642 0.0626981 7.83222e-20)
(-2.15349 0.0609739 -3.8521e-20)
(-2.17978 0.0591639 0)
(-2.20521 0.0572557 -7.54635e-20)
(-2.22973 0.0552521 -3.74106e-20)
(-2.25328 0.0531421 -3.69351e-20)
(-2.27578 0.050928 0)
(-2.29717 0.0485993 -3.56986e-20)
(-2.31736 0.0461552 -3.54996e-20)
(-2.33628 0.0435821 0)
(-2.35385 0.0408715 3.45214e-20)
(-2.36996 0.0380036 -6.78088e-20)
(-2.38454 0.0349676 0)
(-2.39749 0.0317506 -3.29938e-20)
(-2.40874 0.0283487 0)
(-2.41822 0.0247571 9.56359e-20)
(-2.42588 0.0209771 0)
(-2.43169 0.0170165 -9.23508e-20)
(-2.43564 0.0128986 -3.02448e-20)
(-2.43778 0.00867352 2.95881e-20)
(-2.43813 0.00441859 5.79578e-20)
(-2.43661 0.000201444 -5.66894e-20)
(-2.43271 -0.0040096 0)
(-2.42627 -0.00827355 0)
(-2.4172 -0.01262 0)
(-2.40538 -0.0170472 1.53059e-19)
(-2.3907 -0.0215371 4.9338e-20)
(-2.37305 -0.0260728 -4.76475e-20)
(-2.35236 -0.0306364 0)
(-2.32859 -0.035217 -4.459e-20)
(-2.30169 -0.0397916 4.2075e-20)
(-2.27162 -0.0443427 4.00354e-20)
(-2.23838 -0.0488391 0)
(-2.20197 -0.0532598 0)
(-2.16241 -0.0575686 0)
(-2.11975 -0.0617409 3.08765e-20)
(-2.07404 -0.0657357 0)
(-2.02539 -0.0695222 -5.28825e-20)
(-1.97389 -0.0730658 -7.04237e-20)
(-1.91971 -0.0763476 4.19023e-20)
(-1.86302 -0.0793558 0)
(-1.80403 -0.0820783 1.60594e-20)
(-1.74295 -0.0844862 0)
(-1.68004 -0.0865174 1.76783e-20)
(-1.61556 -0.0881808 -6.75412e-21)
(-1.54976 -0.0894903 -3.49937e-21)
(-1.48293 -0.0904393 0)
(-1.41536 -0.0909943 1.4507e-20)
(-1.34732 -0.0911705 -1.57008e-20)
(-1.27911 -0.0909607 -1.2582e-20)
(-1.21102 -0.090388 0)
(-1.14331 -0.0894513 -1.95328e-20)
(-1.07626 -0.0881818 -6.64018e-20)
(-1.01013 -0.0865915 0)
(-0.94517 -0.0847142 -5.71246e-20)
(-0.881579 -0.0825584 -6.38771e-20)
(-0.819535 -0.0801542 -7.05359e-20)
(-0.759212 -0.0775126 0)
(-0.700794 -0.0746763 0)
(-0.644459 -0.0716713 0)
(-0.590355 -0.0685521 4.68511e-20)
(-0.53859 -0.0653369 5.191e-20)
(-0.489236 -0.0620687 0)
(-0.442337 -0.0587582 1.13001e-19)
(-0.397915 -0.0554425 1.18307e-19)
(-0.35597 -0.0521323 0)
(-0.316482 -0.0488624 1.298e-19)
(-0.279413 -0.0456449 2.65779e-19)
(-0.244705 -0.0425074 -1.38617e-19)
(-0.212281 -0.039461 -1.40233e-19)
(-0.18205 -0.0365298 0)
(-0.153904 -0.0337291 0)
(-0.127722 -0.0310773 0)
(-0.103367 -0.0285771 -1.56609e-19)
(-0.0806824 -0.0262355 1.58078e-19)
(-0.0595175 -0.0240598 3.23219e-19)
(-0.0397303 -0.0220747 -1.64765e-19)
(-0.0211727 -0.0202954 1.66117e-19)
(-0.00368478 -0.0187405 1.69213e-19)
(0.0129137 -0.0173997 0)
(0.0288113 -0.0162773 0)
(0.0441904 -0.0153634 -1.74124e-19)
(0.0592311 -0.0146628 0)
(0.0740957 -0.0141589 0)
(0.0889017 -0.0138404 3.55465e-19)
(0.103836 -0.0136883 0)
(0.119107 -0.0137034 1.7752e-19)
(0.134871 -0.013857 -1.77328e-19)
(0.15129 -0.0141215 0)
(0.168547 -0.0144645 1.76381e-19)
(0.186805 -0.0149109 0)
(0.206155 -0.0154712 0)
(0.226661 -0.0161088 -1.74135e-19)
(0.248399 -0.0167863 3.46768e-19)
(0.271447 -0.0175269 -1.72881e-19)
(0.295879 -0.0183109 0)
(0.321746 -0.0191309 0)
(0.349072 -0.0199853 1.70962e-19)
(0.377889 -0.0208871 0)
(0.408248 -0.0218332 1.69421e-19)
(0.440187 -0.0228333 0)
(0.473736 -0.0238813 0)
(0.508944 -0.0249637 0)
(0.545867 -0.0260555 1.67057e-19)
(0.584554 -0.0271532 0)
(0.62504 -0.0282487 -1.66078e-19)
(0.667347 -0.0293394 0)
(0.711476 -0.0304058 0)
(0.757396 -0.0314218 3.29763e-19)
(0.805007 -0.0323274 -3.29457e-19)
(0.854136 -0.0330157 0)
(0.904265 -0.0332826 0)
(0.955105 -0.032607 0)
(1.00323 -0.0301255 9.97886e-19)
(1.05346 -0.0226609 0)
(1.07705 0.000683035 -6.92757e-19)
(-0.00410931 -0.0616548 -1.40126e-21)
(-0.0092657 -0.0290761 6.52405e-19)
(-0.01974 0.00200488 0)
(-0.0331503 0.028238 -2.66276e-19)
(-0.0487009 0.0506152 0)
(-0.066206 0.0695705 0)
(-0.0857987 0.085432 1.16965e-22)
(-0.107678 0.0986569 8.38242e-20)
(-0.131977 0.109875 7.99826e-20)
(-0.158718 0.119813 7.76632e-20)
(-0.187773 0.129182 0)
(-0.218852 0.138453 0)
(-0.251668 0.147507 -7.6211e-20)
(-0.286516 0.155176 -1.52771e-19)
(-0.323382 0.160854 1.49623e-19)
(-0.361807 0.166192 0)
(-0.400896 0.171272 1.36374e-19)
(-0.440351 0.175533 -6.40274e-20)
(-0.480554 0.178513 0)
(-0.521228 0.181616 1.12917e-19)
(-0.561858 0.18595 5.42549e-20)
(-0.60179 0.189782 -1.0528e-19)
(-0.640666 0.192707 -5.15209e-20)
(-0.678242 0.194245 0)
(-0.715643 0.192786 9.91621e-20)
(-0.754017 0.189125 9.66475e-20)
(-0.793045 0.186227 0)
(-0.831583 0.183685 9.14828e-20)
(-0.869369 0.18112 0)
(-0.906451 0.178381 8.6854e-20)
(-0.942934 0.175462 4.24788e-20)
(-0.978903 0.172407 0)
(-1.01442 0.169275 0)
(-1.04952 0.166117 0)
(-1.08424 0.162977 0)
(-1.1186 0.159889 0)
(-1.15263 0.156878 0)
(-1.18633 0.153961 7.3373e-20)
(-1.21974 0.15115 -1.08272e-19)
(-1.25286 0.148451 0)
(-1.2857 0.145865 0)
(-1.31828 0.143389 0)
(-1.35061 0.141018 2.06672e-22)
(-1.3827 0.138743 6.69284e-20)
(-1.41455 0.136556 1.31775e-19)
(-1.44617 0.134444 -1.29975e-19)
(-1.47756 0.132399 -6.40166e-20)
(-1.50872 0.130406 6.3392e-20)
(-1.53965 0.128454 -2.10658e-22)
(-1.57035 0.12653 6.15923e-20)
(-1.60082 0.124623 0)
(-1.63103 0.122718 6.00944e-20)
(-1.66098 0.120807 -2.09082e-22)
(-1.69065 0.118878 0)
(-1.72003 0.116919 0)
(-1.74909 0.11492 -5.73044e-20)
(-1.77781 0.112871 0)
(-1.80617 0.110761 0)
(-1.83413 0.108582 5.51384e-20)
(-1.86168 0.106323 1.09401e-19)
(-1.88876 0.103976 -5.42642e-20)
(-1.91535 0.101531 0)
(-1.94141 0.0989817 5.30087e-20)
(-1.96689 0.0963171 0)
(-1.99176 0.0935308 5.13974e-20)
(-2.01595 0.0906124 5.11427e-20)
(-2.03943 0.087556 -1.00691e-19)
(-2.06214 0.0843521 -4.95556e-20)
(-2.08403 0.0809952 0)
(-2.10503 0.0774764 9.69595e-20)
(-2.12508 0.0737905 0)
(-2.14413 0.0699288 1.41795e-19)
(-2.16209 0.0658856 9.31445e-20)
(-2.1789 0.061652 9.1843e-20)
(-2.1945 0.0572212 -9.05222e-20)
(-2.20879 0.0525852 1.33892e-19)
(-2.22172 0.0477401 0)
(-2.2332 0.0426843 0)
(-2.24317 0.0374217 -8.50043e-20)
(-2.25155 0.0319594 -1.2541e-19)
(-2.25826 0.026309 0)
(-2.26323 0.020486 4.03265e-20)
(-2.26637 0.0145058 0)
(-2.26759 0.00838062 -1.16072e-19)
(-2.26676 0.00210267 -4.16537e-24)
(-2.26375 -0.0043445 -3.21516e-23)
(-2.25839 -0.0109602 7.19649e-20)
(-2.25058 -0.0177273 0)
(-2.24023 -0.0246359 -6.80434e-20)
(-2.22723 -0.0316648 2.04528e-22)
(-2.21149 -0.0387871 0)
(-2.1929 -0.0459717 0)
(-2.1714 -0.0531901 0)
(-2.14693 -0.060411 5.63949e-20)
(-2.11946 -0.0676013 0)
(-2.08896 -0.074721 0)
(-2.05543 -0.0817282 0)
(-2.01887 -0.0885768 0)
(-1.9793 -0.0952192 0)
(-1.9368 -0.101606 4.00798e-20)
(-1.89141 -0.107681 0)
(-1.84325 -0.113395 3.2658e-20)
(-1.79242 -0.118694 2.92055e-20)
(-1.73909 -0.123542 -2.56526e-20)
(-1.68344 -0.127906 0)
(-1.62569 -0.131766 -1.82782e-20)
(-1.56604 -0.135103 0)
(-1.50476 -0.13786 -1.06232e-20)
(-1.44209 -0.13999 6.71332e-21)
(-1.3783 -0.141518 1.11334e-20)
(-1.31367 -0.14245 0)
(-1.24847 -0.14277 -1.26697e-20)
(-1.18299 -0.142481 -6.19862e-21)
(-1.11751 -0.141601 0)
(-1.0523 -0.14015 -3.127e-20)
(-0.987616 -0.138156 -3.91276e-20)
(-0.923722 -0.135652 7.18763e-20)
(-0.860857 -0.132679 0)
(-0.799245 -0.129278 3.25491e-20)
(-0.739074 -0.125485 3.62269e-20)
(-0.680511 -0.121341 1.16603e-19)
(-0.623715 -0.116886 0)
(-0.568841 -0.112174 0)
(-0.516033 -0.107263 0)
(-0.465408 -0.102211 5.06672e-20)
(-0.417047 -0.0970681 0)
(-0.371005 -0.0918805 0)
(-0.327309 -0.0866858 -6.19656e-20)
(-0.285964 -0.0815245 -6.46445e-20)
(-0.246954 -0.0764288 0)
(-0.210245 -0.0714357 0)
(-0.175784 -0.0665741 -1.43827e-19)
(-0.143501 -0.0618735 0)
(-0.113308 -0.0573559 1.52245e-19)
(-0.0851043 -0.0530474 1.54784e-19)
(-0.0587746 -0.0489696 0)
(-0.0341936 -0.04514 0)
(-0.0112233 -0.0415648 -1.65201e-19)
(0.010291 -0.0382537 -8.41817e-22)
(0.0305013 -0.0352174 -7.41149e-22)
(0.0495547 -0.0324783 0)
(0.067598 -0.0300512 -3.52247e-19)
(0.0847769 -0.0279513 0)
(0.101266 -0.026173 0)
(0.117257 -0.0247146 0)
(0.132928 -0.023562 1.81333e-19)
(0.148451 -0.0227104 0)
(0.163996 -0.0221408 -3.65044e-19)
(0.179729 -0.0218486 -1.8314e-19)
(0.195817 -0.0218159 0)
(0.212419 -0.0220275 -1.83662e-19)
(0.229684 -0.0224457 0)
(0.247762 -0.0230449 0)
(0.266803 -0.0238007 -5.50796e-19)
(0.286938 -0.0247141 3.66742e-19)
(0.308269 -0.0257693 0)
(0.330883 -0.0269444 3.65393e-19)
(0.354874 -0.0282075 -1.82399e-19)
(0.380333 -0.0295486 0)
(0.407312 -0.0309429 0)
(0.435851 -0.0323845 0)
(0.465978 -0.0338624 -5.44236e-19)
(0.497722 -0.0353859 0)
(0.531125 -0.0369542 -1.80898e-19)
(0.566209 -0.0385786 0)
(0.602992 -0.0402532 0)
(0.641508 -0.0419674 0)
(0.681802 -0.0436998 0)
(0.723916 -0.045445 0)
(0.76788 -0.0471897 0)
(0.81371 -0.0489228 -3.61346e-19)
(0.861398 -0.0506126 0)
(0.910902 -0.0522122 -1.81631e-19)
(0.962111 -0.053628 5.45914e-19)
(1.01484 -0.0546968 0)
(1.06865 -0.0551124 0)
(1.12324 -0.0542219 -3.69292e-19)
(1.17624 -0.0508869 -3.73426e-19)
(1.23168 -0.0419755 3.78097e-19)
(1.2723 -0.0187981 3.89477e-19)
(-0.013086 -0.039714 -2.08038e-18)
(-0.025883 0.00117506 -7.80921e-19)
(-0.042149 0.0356332 -2.88937e-19)
(-0.0612242 0.0645329 -1.0451e-19)
(-0.0815979 0.0895836 0)
(-0.103023 0.111508 1.51994e-19)
(-0.125718 0.130722 -6.94963e-20)
(-0.149929 0.147607 0)
(-0.175801 0.162609 -6.20623e-20)
(-0.203354 0.176204 0)
(-0.232464 0.188796 1.15283e-19)
(-0.262898 0.200573 0)
(-0.294413 0.211385 5.46894e-20)
(-0.326924 0.220788 1.06665e-19)
(-0.360446 0.228508 -1.03656e-19)
(-0.394896 0.23492 0)
(-0.430003 0.240234 -9.68778e-20)
(-0.465538 0.244508 0)
(-0.501369 0.2479 0)
(-0.537282 0.250898 -8.65217e-20)
(-0.572822 0.25375 0)
(-0.607602 0.255918 4.62317e-23)
(-0.641525 0.257005 0)
(-0.674716 0.256685 0)
(-0.707584 0.25469 7.26092e-23)
(-0.740556 0.251399 -7.23987e-20)
(-0.773682 0.247707 -7.05334e-20)
(-0.806723 0.243884 -6.87963e-20)
(-0.839509 0.239964 0)
(-0.871975 0.235945 -1.31081e-19)
(-0.904111 0.231841 0)
(-0.935932 0.227685 -6.26402e-20)
(-0.967456 0.223517 0)
(-0.998699 0.219376 0)
(-1.02968 0.215296 5.89389e-20)
(-1.06041 0.211306 0)
(-1.0909 0.207425 -5.68232e-20)
(-1.12116 0.20367 -7.90411e-23)
(-1.15121 0.200048 1.09959e-19)
(-1.18104 0.196562 -1.08142e-19)
(-1.21066 0.193212 0)
(-1.24008 0.189993 0)
(-1.2693 0.186897 -5.16241e-20)
(-1.29833 0.183914 0)
(-1.32717 0.181031 -5.04058e-20)
(-1.35582 0.178236 4.97475e-20)
(-1.38427 0.175514 4.91131e-20)
(-1.41253 0.17285 0)
(-1.4406 0.170228 -4.79072e-20)
(-1.46846 0.167633 -4.73315e-20)
(-1.4961 0.165049 9.33471e-20)
(-1.52353 0.162463 -4.62256e-20)
(-1.55072 0.159858 -4.56923e-20)
(-1.57766 0.157222 0)
(-1.60433 0.15454 0)
(-1.63071 0.151799 4.41539e-20)