/*--------------------------------*- C++ -*----------------------------------*\
  =========                 |
  \\      /  F ield         | OpenFOAM: The Open Source CFD Toolbox
   \\    /   O peration     | Website:  https://openfoam.org
    \\  /    A nd           | Version:  8
     \\/     M anipulation  |
\*---------------------------------------------------------------------------*/
FoamFile
{
    version     2.0;
    format      ascii;
    class       volScalarField;
    location    "130";
    object      p;
}
// * * * * * * * * * * * * * * * * * * * * * * * * * * * * * * * * * * * * * //

dimensions      [0 2 -2 0 0 0 0];

internalField   nonuniform List<scalar> 
404911
(
2.92256
2.91764
2.91485
2.90069
2.92598
2.91727
2.91266
2.91039
2.90614
2.90335
2.95334
2.94974
2.94441
2.93213
2.92399
2.91917
2.96385
2.95733
2.95318
2.94772
2.97479
2.96786
2.96098
2.98433
2.9785
2.97047
2.99336
2.98444
2.98036
3.01443
3.00597
2.99567
2.98556
2.98252
3.02386
3.0128
3.00207
3.04987
3.0398
3.02933
3.0206
3.06399
3.05565
3.04573
3.03536
3.02458
3.06915
3.06077
3.0517
3.04198
3.08667
3.07611
3.06568
3.05732
3.08911
3.08149
3.11949
2.92024
2.92858
2.92121
2.94923
2.94023
2.96332
2.9573
2.95239
2.97477
2.9674
2.96205
2.98373
2.97777
2.99292
2.98623
2.98121
3.00526
2.99661
2.99273
2.98614
3.02071
3.01171
3.03687
3.02724
3.05402
3.04532
3.03543
3.06926
3.05999
3.08475
3.07508
3.06643
3.08663
3.08027
3.11779
3.12654
3.11862
3.1501
3.13836
3.13099
3.16651
3.15585
3.14423
3.18229
3.17402
3.16444
3.17997
1.60415
1.58365
1.5645
1.68846
1.67947
1.64482
1.6361
1.61504
1.59251
1.56679
1.55088
1.73941
1.71686
1.67881
1.66219
1.64082
1.62391
1.59877
1.57742
1.53005
1.7988
1.78102
1.76589
1.74639
1.72723
1.70956
1.69031
1.67029
1.64877
1.62943
1.61052
1.58958
1.56013
1.52389
1.5204
1.5091
1.83838
1.82324
1.80638
1.78912
1.77173
1.7544
1.7354
1.71514
1.6935
1.6828
1.66019
1.6366
1.61971
1.59171
1.52733
1.88082
1.8627
1.8478
1.83032
1.81239
1.79525
1.77947
1.76264
1.74439
1.72515
1.70253
1.68289
1.6686
1.64175
1.62204
1.90604
1.89124
1.87443
1.85834
1.84025
1.82101
1.80222
1.7854
1.76924
1.75353
1.73427
1.71672
1.69555
1.67445
1.65161
1.63529
1.94798
1.92957
1.9142
1.89867
1.88385
1.86871
1.85147
1.83272
1.8131
1.79276
1.77665
1.761
1.74237
1.7236
1.70339
1.68303
1.66355
1.993
1.97977
1.96787
1.95305
1.93652
1.92054
1.90612
1.89039
1.87519
1.8579
1.84218
1.81873
1.80115
1.78536
1.76934
1.7497
1.73256
1.71363
2.01676
2.0049
1.98934
1.97682
1.96144
1.94394
1.92869
1.91226
1.89789
1.88109
1.86721
1.85049
1.8229
1.80888
1.79496
1.77715
1.76096
1.7408
2.05886
2.04054
2.0262
2.0117
1.99945
1.98409
1.96801
1.95205
1.93642
1.92033
1.90438
1.88964
1.87462
1.85835
1.83626
1.81801
1.80348
1.78697
2.08795
2.06876
2.05132
2.03475
2.02047
2.00684
1.99187
1.97812
1.96224
1.94407
1.92859
1.91316
1.89892
1.88359
1.86812
1.84847
1.82168
2.13018
2.11262
2.09384
2.07834
2.0608
2.0444
2.03006
2.0154
2.00009
1.98725
1.97149
1.95462
1.93708
1.92036
1.90544
1.88945
1.87498
2.16231
2.14741
2.13379
2.12143
2.10637
2.0871
2.06855
2.05356
2.03914
2.02763
2.0115
1.99497
1.97846
1.96211
1.94701
1.92959
1.91328
1.89802
2.18989
2.17854
2.16808
2.15512
2.13906
2.12767
2.11178
2.09449
2.07775
2.06309
2.04963
2.03558
2.01967
2.00309
1.98687
1.96784
1.95447
1.94061
2.22181
2.20659
2.19632
2.18736
2.17557
2.16024
2.14544
2.13122
2.11688
2.09996
2.08224
2.06766
2.05887
2.04513
2.02749
2.0101
1.99655
1.97887
2.24555
2.22932
2.21421
2.20165
2.19059
2.17862
2.16352
2.14977
2.13449
2.12206
2.10378
2.08518
2.07056
2.06238
2.05066
2.03614
2.0163
2.00169
2.27809
2.26535
2.2504
2.23578
2.22193
2.20711
2.19414
2.18277
2.16719
2.1541
2.14042
2.12941
2.11274
2.09539
2.07488
2.06318
2.04975
2.0334
2.2984
2.28427
2.27172
2.25897
2.24363
2.22746
2.2168
2.2017
2.18376
2.17106
2.15854
2.14693
2.13402
2.11858
2.10285
2.08303
2.0709
2.05656
2.32621
2.31661
2.30573
2.29455
2.27968
2.26609
2.25152
2.2369
2.22273
2.20926
2.18908
2.17542
2.16308
2.15057
2.14144
2.12519
2.10683
2.08865
2.34583
2.33268
2.32616
2.31743
2.30389
2.28771
2.27265
2.25897
2.24406
2.22885
2.21658
2.19611
2.18246
2.16908
2.15658
2.1458
2.13022
2.3664
2.35474
2.3462
2.33818
2.33131
2.32459
2.31066
2.29651
2.28204
2.26716
2.25146
2.23577
2.22192
2.2033
2.1906
2.17763
2.16409
2.14977
2.38121
2.36999
2.36066
2.35081
2.34205
2.33534
2.32874
2.31853
2.30407
2.29083
2.27535
2.26016
2.24274
2.22686
2.21131
2.19693
2.18348
2.17183
2.39658
2.38479
2.37396
2.36513
2.35535
2.34635
2.33961
2.3338
2.32232
2.31167
2.29999
2.28428
2.26888
2.25098
2.23512
2.22429
2.20328
2.19342
2.4263
2.41098
2.4
2.38906
2.37933
2.37071
2.3616
2.35387
2.34463
2.33737
2.32632
2.31532
2.30381
2.2927
2.27767
2.2611
2.24375
2.22872
2.45021
2.43923
2.42908
2.4179
2.40508
2.39346
2.38557
2.37659
2.36898
2.36061
2.35174
2.34503
2.33246
2.32156
2.31009
2.29868
2.28393
2.27004
2.46954
2.45613
2.44579
2.43412
2.42148
2.40837
2.3977
2.39166
2.38435
2.37326
2.36586
2.35832
2.35007
2.33861
2.32848
2.31719
2.30548
2.29302
2.49206
2.48304
2.47383
2.46369
2.45181
2.44012
2.42761
2.41361
2.40122
2.39364
2.39443
2.38394
2.37396
2.36375
2.35602
2.34526
2.32943
2.32915
2.50267
2.49846
2.49007
2.48067
2.47038
2.45935
2.4477
2.43521
2.42123
2.40677
2.39457
2.39051
2.38791
2.38074
2.37061
2.36255
2.35095
2.34388
2.51517
2.50916
2.50367
2.49609
2.4871
2.47721
2.46684
2.45536
2.44331
2.42993
2.41493
2.40172
2.3931
2.3881
2.38202
2.37444
2.36664
2.35577
2.52655
2.51955
2.51395
2.50828
2.50114
2.4928
2.48397
2.47378
2.46224
2.45095
2.43836
2.42459
2.41103
2.40027
2.39188
2.38548
2.37899
2.37189
2.5455
2.5405
2.53118
2.52303
2.51825
2.51253
2.50531
2.49739
2.48973
2.48034
2.46859
2.45802
2.44631
2.4341
2.42133
2.41025
2.40052
2.38916
2.56182
2.55295
2.54412
2.53652
2.52926
2.523
2.51634
2.5088
2.50055
2.49302
2.48506
2.47445
2.46417
2.45311
2.44148
2.43027
2.41952
2.41146
2.57527
2.56685
2.55939
2.55191
2.54334
2.53591
2.52847
2.5217
2.51414
2.50603
2.49719
2.48848
2.47951
2.46983
2.4594
2.44917
2.43963
2.42875
2.58398
2.57996
2.57287
2.565
2.55825
2.55088
2.54389
2.53467
2.5275
2.52007
2.51131
2.50238
2.49367
2.48498
2.47498
2.46487
2.457
2.60432
2.59485
2.59022
2.58471
2.57798
2.57046
2.56415
2.55744
2.55131
2.54082
2.53299
2.52583
2.51723
2.50787
2.49909
2.48994
2.48059
2.46856
2.61714
2.60622
2.59888
2.59434
2.58964
2.58364
2.5751
2.5687
2.5634
2.55715
2.54675
2.53874
2.53174
2.52339
2.51383
2.50429
2.49581
2.48973
2.62563
2.61853
2.60873
2.60088
2.59603
2.59434
2.5901
2.58213
2.57397
2.56778
2.56214
2.55567
2.54519
2.5374
2.52886
2.52005
2.51246
2.50249
2.64909
2.63824
2.63014
2.62172
2.612
2.60326
2.59722
2.59516
2.59574
2.58719
2.58034
2.57225
2.56692
2.55869
2.55
2.54169
2.533
2.52496
2.6609
2.652
2.64448
2.63514
2.62609
2.61641
2.60738
2.59998
2.59611
2.59923
2.59114
2.5842
2.57645
2.57063
2.56431
2.55583
2.54709
2.53626
2.67483
2.66613
2.65746
2.64928
2.64091
2.63204
2.62301
2.61453
2.60639
2.60107
2.60208
2.5957
2.59011
2.58243
2.57582
2.56889
2.56109
2.55263
2.68495
2.68229
2.67253
2.66345
2.65524
2.64696
2.63838
2.63018
2.62266
2.61451
2.6076
2.60689
2.60078
2.59505
2.58766
2.5812
2.57539
2.56557
2.7031
2.6955
2.68637
2.67859
2.66988
2.66153
2.65296
2.6439
2.63598
2.63038
2.62205
2.61587
2.61199
2.60534
2.5995
2.59336
2.5861
2.72454
2.71323
2.70812
2.69979
2.69159
2.68411
2.6766
2.66815
2.65897
2.64883
2.64034
2.63612
2.63256
2.62534
2.61726
2.61098
2.60471
2.59967
2.73405
2.72719
2.71997
2.7129
2.7045
2.69689
2.68988
2.68352
2.67435
2.66471
2.65443
2.6441
2.63782
2.6367
2.63208
2.62313
2.61675
2.61038
2.74829
2.74039
2.73283
2.72528
2.71714
2.70896
2.70154
2.69513
2.69046
2.68078
2.67081
2.66047
2.64978
2.64201
2.63748
2.6335
2.62755
2.62105
2.76022
2.75409
2.74665
2.73894
2.73167
2.72336
2.7149
2.7067
2.6991
2.69444
2.68777
2.6777
2.66777
2.65728
2.6483
2.64181
2.63614
2.63112
2.77456
2.76624
2.76078
2.75341
2.74621
2.739
2.73103
2.72249
2.71375
2.70577
2.699
2.6921
2.68439
2.67547
2.66548
2.65577
2.64908
2.63977
2.78467
2.78029
2.77435
2.76799
2.76082
2.75377
2.74658
2.73892
2.73061
2.72192
2.713
2.7052
2.69822
2.69085
2.68239
2.67317
2.66509
2.65663
2.79234
2.78907
2.78522
2.78055
2.77393
2.76708
2.76022
2.75288
2.74539
2.73785
2.72951
2.72058
2.71203
2.70447
2.69691
2.68862
2.67996
2.67095
2.80147
2.79515
2.79255
2.78974
2.78539
2.77817
2.77142
2.7649
2.75797
2.75048
2.74328
2.73549
2.72749
2.7189
2.71075
2.70228
2.69469
2.68804
2.81657
2.80997
2.80247
2.79763
2.79374
2.7925
2.79101
2.78209
2.77512
2.76909
2.76403
2.75705
2.74996
2.74093
2.7334
2.72532
2.71666
2.70889
2.70109
2.82933
2.82242
2.81462
2.8077
2.79868
2.79351
2.79134
2.79385
2.7863
2.77952
2.77329
2.76793
2.76101
2.75402
2.74627
2.73847
2.7307
2.7234
2.83478
2.82665
2.81763
2.80904
2.80134
2.79541
2.79287
2.79351
2.7883
2.78128
2.77579
2.76932
2.76423
2.75844
2.75111
2.7438
2.7377
2.85499
2.84671
2.83966
2.83132
2.8232
2.81499
2.8073
2.80068
2.79631
2.79573
2.79085
2.78472
2.77889
2.77249
2.76757
2.76177
2.75501
2.74752
2.86973
2.86048
2.85326
2.84452
2.83673
2.82937
2.82195
2.81429
2.80743
2.80301
2.79977
2.79365
2.78898
2.78316
2.7773
2.77128
2.76536
2.75674
2.88138
2.87591
2.86746
2.85861
2.85033
2.84278
2.83616
2.82908
2.82012
2.81364
2.80908
2.80459
2.79825
2.79348
2.78736
2.78149
2.77567
2.77088
2.88728
2.88135
2.8735
2.86495
2.85671
2.84925
2.84307
2.83633
2.82721
2.82022
2.81337
2.8079
2.80264
2.79712
2.7914
2.78599
2.78035
2.89925
2.8936
2.88633
2.87907
2.87107
2.86272
2.85519
2.84888
2.84219
2.83256
2.82522
2.81788
2.81205
2.80642
2.80099
2.79571
2.78956
2.90719
2.90348
2.90286
2.8977
2.89103
2.88394
2.8764
2.86814
2.8604
2.85297
2.84622
2.83773
2.82963
2.82325
2.81689
2.81122
2.8057
2.8003
2.91583
2.91059
2.90561
2.90498
2.9008
2.89496
2.88817
2.88131
2.87369
2.86551
2.85754
2.84871
2.84197
2.83483
2.82813
2.82128
2.81695
2.92884
2.92252
2.9151
2.91076
2.90787
2.90453
2.89826
2.89141
2.88557
2.87886
2.86993
2.86243
2.85322
2.84652
2.83944
2.83268
2.82586
2.94708
2.94021
2.93399
2.92756
2.92067
2.91541
2.91118
2.90841
2.90108
2.8947
2.88838
2.88106
2.87393
2.86708
2.85907
2.85123
2.84403
2.83705
2.95527
2.94954
2.94376
2.93792
2.93172
2.9248
2.91819
2.91255
2.90859
2.90279
2.89912
2.89325
2.88396
2.87749
2.87187
2.86479
2.85759
2.84994
2.96293
2.95768
2.95274
2.94779
2.94149
2.93405
2.92751
2.921
2.91472
2.90979
2.90547
2.90067
2.89586
2.88977
2.88199
2.87543
2.86965
2.86314
2.97551
2.96839
2.96163
2.95596
2.95057
2.94436
2.93662
2.92996
2.92375
2.91827
2.91275
2.90736
2.90244
2.89759
2.89276
2.88533
2.87858
2.87439
2.98636
2.98181
2.97685
2.97275
2.96476
2.95842
2.95325
2.94705
2.94145
2.9333
2.92695
2.9208
2.9153
2.90943
2.90369
2.89838
2.89223
2.88499
2.88034
2.99759
2.99007
2.98541
2.98072
2.97596
2.96908
2.96262
2.95653
2.95101
2.94489
2.93723
2.9293
2.9229
2.91734
2.91137
2.90536
2.90063
2.89308
2.88857
2.99727
2.99475
2.98962
2.98473
2.97933
2.97341
2.96744
2.9607
2.95386
2.94805
2.94023
2.93344
2.9268
2.92083
2.91471
2.9094
2.90404
2.89813
3.01407
3.0069
3.00076
2.99434
2.9884
2.98275
2.97767
2.97221
2.96538
2.95839
2.95266
2.94512
2.93858
2.93174
2.92504
2.91908
2.91398
3.03347
3.02208
3.01418
3.00598
2.99881
2.99291
2.98709
2.98241
2.97593
2.96975
2.96275
2.95699
2.95005
2.94373
2.93707
2.93112
2.9212
3.05227
3.03968
3.02974
3.01984
3.01204
3.005
2.99843
2.99188
2.98683
2.98087
2.9742
2.96752
2.96175
2.95513
2.94814
2.94214
2.93603
3.0751
3.06858
3.05857
3.04652
3.03647
3.02714
3.01964
3.01203
3.00425
2.99786
2.99208
2.98626
2.97924
2.97284
2.96625
2.95965
2.95347
2.94923
3.0886
3.08232
3.07504
3.06493
3.0543
3.04505
3.03623
3.02914
3.01951
3.01107
3.00465
2.99776
2.99161
2.98458
2.97712
2.97096
2.96566
3.10038
3.09408
3.08667
3.0792
3.071
3.0613
3.05275
3.04365
3.03658
3.02709
3.01771
3.00972
3.00213
2.99508
2.9887
2.98114
2.97382
3.11568
3.10754
3.09966
3.0919
3.08333
3.07629
3.06716
3.06017
3.0511
3.04307
3.03385
3.02435
3.01521
3.00638
2.99902
2.99289
2.98635
3.13183
3.12275
3.11387
3.10467
3.09678
3.08828
3.08106
3.07459
3.06579
3.05655
3.04809
3.03918
3.02987
3.02109
3.01213
3.00568
2.99783
3.14647
3.13798
3.12864
3.12058
3.11224
3.10246
3.094
3.08656
3.07958
3.0717
3.0632
3.05462
3.04518
3.03626
3.02745
3.01872
3.01233
3.16259
3.15241
3.14364
3.13498
3.12663
3.11829
3.10904
3.09942
3.09184
3.08534
3.07783
3.06929
3.06098
3.05175
3.04252
3.03468
3.02544
3.16774
3.1587
3.14983
3.14049
3.13208
3.1238
3.11624
3.10803
3.09804
3.09069
3.08222
3.07489
3.06689
3.05816
3.05154
3.03974
3.18471
3.1763
3.16453
3.15555
3.14638
3.13856
3.13024
3.12264
3.11521
3.10613
3.09704
3.08793
3.07978
3.07161
3.06368
3.21695
3.20543
3.19417
3.18216
3.17129
3.16264
3.15441
3.14653
3.13792
3.1276
3.11886
3.10954
3.10249
3.0947
3.0863
3.07679
3.24173
3.23112
3.21906
3.20582
3.19191
3.1811
3.17109
3.16288
3.15268
3.14453
3.13505
3.1249
3.11373
3.10665
3.10033
3.0922
3.27294
3.25817
3.24501
3.22952
3.21676
3.2046
3.19353
3.1815
3.17086
3.16114
3.15174
3.14398
3.13166
3.12035
3.11296
3.10507
3.32597
3.3029
3.28593
3.27125
3.25812
3.24315
3.2298
3.21694
3.20342
3.19068
3.18075
3.1687
3.15677
3.1497
3.13732
3.12688
3.35471
3.3371
3.3189
3.30095
3.28379
3.26884
3.25532
3.24283
3.23046
3.2178
3.20786
3.19581
3.18126
3.16843
3.15534
3.1472
3.39357
3.37035
3.34809
3.33111
3.31421
3.29692
3.28079
3.26596
3.25266
3.24007
3.2272
3.2224
3.2151
3.20095
3.18283
3.16574
3.43062
3.40946
3.38529
3.35899
3.34251
3.32758
3.30935
3.29341
3.27803
3.26295
3.24859
3.23544
3.22709
3.22186
3.21269
3.19426
3.45843
3.44221
3.42319
3.40142
3.37845
3.35726
3.34082
3.32166
3.30603
3.28932
3.27436
3.25976
3.2483
3.23703
3.22646
3.21664
3.48372
3.47028
3.45425
3.43288
3.41313
3.3926
3.3732
3.35625
3.33822
3.31827
3.30056
3.28612
3.27504
3.25992
3.24937
3.50863
3.49549
3.48048
3.46179
3.4455
3.4264
3.40651
3.3863
3.37034
3.35367
3.33543
3.31528
3.29745
3.28611
3.27347
3.25908
3.53253
3.51796
3.50491
3.48975
3.47237
3.45459
3.44003
3.42137
3.40037
3.3836
3.36728
3.35041
3.33195
3.31273
3.29914
3.28709
3.55208
3.54014
3.52771
3.514
3.49764
3.47983
3.46229
3.44824
3.43162
3.41436
3.39635
3.37867
3.36312
3.34664
3.32461
3.5589
3.54846
3.53471
3.52049
3.50438
3.48908
3.47137
3.45783
3.44283
3.42661
3.4084
3.39147
3.37477
3.3584
3.57678
3.57038
3.55779
3.54071
3.52634
3.50586
3.49676
3.48174
3.4652
3.45154
3.43716
3.41955
3.40568
3.61785
3.60126
3.58886
3.58026
3.56756
3.54999
3.5339
3.52161
3.5051
3.48906
3.47492
3.45967
3.44645
3.42649
3.65226
3.63141
3.61515
3.60142
3.58974
3.57622
3.56015
3.54662
3.53071
3.51478
3.49948
3.48437
3.47123
3.45952
3.68735
3.66708
3.64808
3.62892
3.61419
3.6031
3.58837
3.56999
3.55362
3.54027
3.52519
3.50898
3.49494
3.48348
3.72216
3.70157
3.68219
3.6604
3.63906
3.62655
3.61542
3.59752
3.58285
3.56689
3.55355
3.53441
3.51997
3.50813
3.75378
3.73142
3.71401
3.69651
3.67018
3.64418
3.64087
3.62672
3.61015
3.59292
3.57796
3.56424
3.55004
3.53118
3.78616
3.76602
3.73695
3.72216
3.70557
3.68475
3.6564
3.65332
3.64132
3.62477
3.60382
3.58799
3.57847
3.7268
3.71226
3.69113
3.67037
3.65379
3.64734
3.63294
3.61302
3.59519
3.73089
3.71377
3.69789
3.67597
3.65985
3.64801
3.63817
3.62073
3.76684
3.73929
3.71992
3.70666
3.68413
3.66508
3.65396
3.80527
3.78225
3.75844
3.73202
3.70993
3.68669
3.66816
3.79386
3.77498
3.74762
3.72268
3.70253
3.8553
3.83091
3.80155
3.78898
3.7638
3.73795
3.95285
3.94273
3.88972
3.87069
3.7954
3.96853
3.9554
3.93726
3.91657
3.90146
3.82196
4.01168
3.92693
3.90238
3.89008
3.87645
4.03457
3.99535
3.93612
0.515648
0.502925
0.501076
0.728716
0.684986
0.641514
0.61508
0.575849
0.533736
0.48464
0.514906
0.335057
0.866646
0.840016
0.791972
0.774427
0.736816
0.699109
0.669803
0.627641
0.587583
0.555989
0.497244
0.475996
0.439002
0.371457
0.343996
0.971981
0.940107
0.916963
0.878546
0.855632
0.810747
0.781084
0.756546
0.718488
0.678308
0.634654
0.583201
0.562496
0.529558
0.491961
0.455817
0.404099
0.339034
0.325229
0.246835
0.197971
0.171676
1.09139
1.06625
1.02842
0.992705
0.952711
0.923121
0.89333
0.859051
0.82838
0.797433
0.767552
0.735625
0.693092
0.640551
0.575994
0.586345
0.54094
0.513998
0.47465
0.429475
0.379086
0.316803
0.255679
1.20076
1.16159
1.14037
1.1062
1.07818
1.03713
1.00217
0.969591
0.938774
0.905487
0.871641
0.840616
0.809856
0.781574
0.740599
0.706505
0.65519
0.62649
0.580079
0.548456
0.520822
0.486391
0.444177
0.395843
0.343254
1.24627
1.22436
1.20717
1.17693
1.14685
1.1134
1.08594
1.05126
1.01545
0.976013
0.948288
0.918567
0.887015
0.852632
0.821566
0.792059
0.759615
0.720774
0.675828
0.633304
0.589802
0.557356
0.529612
0.496567
0.453779
1.28562
1.26851
1.25101
1.23514
1.21132
1.1834
1.15592
1.13395
1.09947
1.06468
1.02708
0.981836
0.956764
0.931782
0.910314
0.87281
0.831962
0.802428
0.772171
0.734591
0.690852
0.650956
0.613187
0.575187
0.536584
1.3331
1.31593
1.2983
1.28063
1.25922
1.24191
1.21903
1.19473
1.16224
1.14009
1.10577
1.06848
1.03539
0.998947
0.963466
0.94441
0.919977
0.891626
0.847988
0.815118
0.784875
0.746535
0.710093
0.666723
0.623089
1.4121
1.38261
1.3583
1.3445
1.32626
1.30746
1.28509
1.2661
1.2483
1.22825
1.20313
1.17003
1.1443
1.1162
1.07917
1.04315
1.00693
0.971554
0.947815
0.926468
0.900415
0.862513
0.829338
0.802551
0.763857
0.718979
1.48095
1.46454
1.44319
1.41819
1.39451
1.37291
1.35424
1.33146
1.31215
1.29268
1.27454
1.25532
1.23355
1.2103
1.18304
1.15329
1.11984
1.08482
1.05193
1.01139
0.979164
0.957326
0.932872
0.904904
0.881027
0.848063
0.824741
1.49875
1.48428
1.46801
1.44955
1.42673
1.40387
1.37834
1.36153
1.34042
1.32097
1.30224
1.28078
1.26121
1.24416
1.21805
1.19346
1.16532
1.13077
1.09429
1.06247
1.03018
0.992656
0.973484
0.950278
0.917534
1.55597
1.54483
1.52457
1.50838
1.48829
1.47161
1.45525
1.43454
1.41378
1.39343
1.37064
1.34816
1.32866
1.30814
1.28752
1.26834
1.25096
1.22631
1.20303
1.17615
1.14177
1.10706
1.07421
1.04246
1.0119
1.57812
1.56069
1.54532
1.53047
1.51487
1.49254
1.47759
1.45944
1.43846
1.41798
1.40114
1.3816
1.35614
1.33507
1.31423
1.29415
1.27586
1.25818
1.23422
1.21255
1.18668
1.1539
1.11958
1.08278
1.64652
1.62912
1.60562
1.58561
1.56668
1.54994
1.53861
1.52402
1.50261
1.48221
1.46288
1.44428
1.42503
1.40243
1.38718
1.36171
1.34054
1.32076
1.3024
1.285
1.26626
1.24146
1.22254
1.19974
1.16209
1.69866
1.67397
1.65195
1.63619
1.61502
1.59362
1.57209
1.55475
1.54345
1.53409
1.51148
1.48833
1.46831
1.44713
1.43003
1.41418
1.39141
1.36846
1.34695
1.32766
1.31108
1.2938
1.26813
1.25002
1.22918
1.74179
1.72171
1.70302
1.68385
1.6637
1.64416
1.62546
1.60327
1.5804
1.55776
1.54595
1.54079
1.52092
1.49582
1.47208
1.45356
1.43417
1.41657
1.39691
1.37467
1.35185
1.33285
1.31672
1.30109
1.28138
1.79729
1.78035
1.76613
1.74908
1.73025
1.7121
1.69154
1.67482
1.65355
1.63378
1.61337
1.5911
1.56485
1.54611
1.54023
1.53014
1.50522
1.48016
1.46017
1.4389
1.41515
1.40088
1.37995
1.35591
1.33697
1.32009
1.83747
1.82834
1.80714
1.79065
1.7737
1.75503
1.73756
1.71975
1.70214
1.68471
1.66248
1.64166
1.62248
1.60179
1.57476
1.54678
1.53144
1.52344
1.51065
1.48904
1.46335
1.44441
1.42131
1.40197
1.38147
1.3585
1.88549
1.86194
1.84432
1.83225
1.81523
1.79613
1.7793
1.7623
1.74519
1.72761
1.70962
1.69262
1.6713
1.65064
1.63087
1.61088
1.5874
1.55932
1.53511
1.52151
1.50904
1.49127
1.46838
1.44982
1.42179
1.4007
1.38192
1.91905
1.9064
1.88899
1.87136
1.85421
1.83773
1.82065
1.80302
1.78611
1.76933
1.75225
1.73481
1.71652
1.69759
1.67858
1.65898
1.63862
1.61776
1.60022
1.58024
1.54972
1.53176
1.51518
1.49599
1.47269
1.45048
1.42536
1.94607
1.92821
1.91246
1.89636
1.8792
1.86282
1.8458
1.828
1.80998
1.79258
1.776
1.75878
1.74162
1.72359
1.7048
1.68578
1.66603
1.64466
1.62367
1.60835
1.59121
1.56715
1.54182
1.5226
1.50227
1.47701
1.98536
1.96386
1.95124
1.93563
1.9195
1.90415
1.88816
1.87139
1.85438
1.83668
1.81854
1.80082
1.78317
1.76618
1.74897
1.73148
1.71352
1.69486
1.67489
1.65239
1.63059
1.61219
1.5966
1.57562
1.55301
1.5304
2.01717
1.99755
1.98666
1.97294
1.95886
1.94381
1.92784
1.9119
1.89599
1.88004
1.86348
1.84579
1.82734
1.80897
1.79107
1.774
1.7569
1.73965
1.72217
1.70403
1.68383
1.66183
1.63873
1.61882
1.60271
1.58084
2.04292
2.02447
2.00766
1.99288
1.98056
1.96739
1.95157
1.93536
1.91959
1.90408
1.88863
1.87229
1.85449
1.8356
1.81636
1.79874
1.78204
1.76524
1.74834
1.73077
1.7124
1.69298
1.6713
1.65066
1.63164
2.086
2.06941
2.05143
2.03288
2.01617
2.00234
1.98867
1.97454
1.95941
1.94375
1.92791
1.91237
1.89709
1.88091
1.86367
1.84477
1.8248
1.80731
1.79144
1.77474
1.75747
1.73969
1.72052
1.70091
1.68375
1.66382
2.12576
2.11171
2.09389
2.0777
2.0591
2.04121
2.02526
2.01133
1.99707
1.98265
1.96786
1.9523
1.93647
1.92069
1.90522
1.88964
1.8734
1.8557
1.83568
1.81746
1.80158
1.78478
1.76538
1.74657
1.73059
1.713
2.16128
2.14399
2.13321
2.11969
2.10236
2.08506
2.06737
2.05002
2.03437
2.02007
2.00584
1.99129
1.97645
1.96101
1.94528
1.92937
1.9135
1.89798
1.88207
1.8661
1.84713
1.82764
1.81142
1.79338
1.77585
1.75908
1.73984
2.17936
2.16551
2.15342
2.14093
2.12697
2.11063
2.0933
2.07593
2.05892
2.04373
2.02936
2.01488
2.00041
1.98513
1.96935
1.95375
1.93802
1.92205
1.90595
1.88978
1.87465
1.85766
1.83938
1.82177
1.80356
1.78735
2.20775
2.197
2.18638
2.17375
2.16105
2.14796
2.13385
2.11834
2.10122
2.08398
2.0672
2.05235
2.03922
2.02498
2.00916
1.99323
1.97734
1.96145
1.94644
1.93053
1.91468
1.89908
1.88281
1.86643
1.84589
1.83354
2.22474
2.21399
2.20272
2.19184
2.1815
2.16802
2.15325
2.1396
2.12474
2.10861
2.09137
2.07431
2.06062
2.04827
2.03406
2.01723
2.00122
1.98559
1.96875
1.95411
1.9393
1.9227
1.90517
1.89405
1.87591
2.26096
2.24765
2.23353
2.21904
2.20757
2.19743
2.18726
2.17398
2.15801
2.14445
2.13016
2.11479
2.0978
2.08112
2.06768
2.0557
2.04167
2.02484
2.00925
1.99514
1.97956
1.96451
1.94873
1.93232
1.91156
2.28233
2.26944
2.25586
2.24099
2.22609
2.21327
2.20244
2.19154
2.17845
2.16221
2.14836
2.13526
2.12107
2.10472
2.08714
2.07209
2.06014
2.04834
2.03342
2.01803
2.00404
1.98937
1.97503
1.95991
1.94768
2.31291
2.30153
2.28996
2.27646
2.26309
2.2479
2.23363
2.22016
2.20795
2.19563
2.18217
2.16723
2.15382
2.14114
2.12726
2.1115
2.09273
2.0766
2.06377
2.05123
2.03786
2.02385
2.00885
1.99733
1.98269
2.33363
2.3201
2.30995
2.29767
2.28395
2.26983
2.25569
2.24149
2.22711
2.21333
2.19992
2.18607
2.17261
2.15985
2.14722
2.1337
2.11809
2.09995
2.08322
2.06915
2.05622
2.04206
2.0298
2.01883
2.00486
2.35501
2.34771
2.33753
2.32735
2.31847
2.30599
2.29119
2.27693
2.26325
2.2494
2.23464
2.21975
2.20553
2.19092
2.1774
2.1645
2.15168
2.13958
2.12561
2.10862
2.09131
2.0763
2.06408
2.05307
2.03892
2.37232
2.36186
2.35224
2.34257
2.33427
2.32621
2.31535
2.30095
2.28574
2.27144
2.25773
2.24283
2.22711
2.21212
2.19685
2.18296
2.16967
2.15699
2.14517
2.13126
2.11583
2.09943
2.08441
2.06559
2.39699
2.38545
2.37598
2.3653
2.35566
2.34689
2.33882
2.33156
2.32315
2.31107
2.29641
2.28123
2.26669
2.25135
2.23454
2.21871
2.20343
2.18988
2.17691
2.16411
2.15126
2.13656
2.12134
2.10812
2.09476
2.41261
2.40126
2.39084
2.38086
2.37006
2.36029
2.35155
2.34337
2.33629
2.32886
2.31875
2.30608
2.29137
2.27601
2.26041
2.24324
2.22621
2.21081
2.19708
2.18418
2.17124
2.15754
2.14342
2.12517
2.43793
2.42806
2.41816
2.40615
2.39522
2.3851
2.37504
2.36582
2.35714
2.34856
2.34087
2.33339
2.32411
2.31314
2.29988
2.28495
2.26949
2.25255
2.23547
2.21963
2.20546
2.19196
2.17713
2.16306
2.15006
2.45412
2.44381
2.43401
2.4232
2.41126
2.3998
2.38935
2.38018
2.37157
2.36322
2.35464
2.34621
2.33809
2.32884
2.31837
2.30621
2.29243
2.27771
2.26202
2.24555
2.22951
2.21402
2.20078
2.18635
2.47698
2.4689
2.45977
2.44908
2.43932
2.42831
2.41636
2.40458
2.39399
2.38554
2.37731
2.36894
2.36047
2.352
2.34363
2.33423
2.32378
2.31261
2.30023
2.28627
2.27074
2.2544
2.23799
2.22515
2.21057
2.49183
2.48393
2.47525
2.46597
2.45545
2.44468
2.43364
2.42168
2.4092
2.39862
2.39141
2.38388
2.37516
2.3665
2.35791
2.34933
2.34003
2.32989
2.3194
2.30778
2.29371
2.27807
2.2642
2.24797
2.50539
2.49908
2.49068
2.48181
2.47221
2.46181
2.45103
2.43976
2.42735
2.41425
2.40271
2.39556
2.38993
2.38176
2.37314
2.36425
2.35548
2.34627
2.33612
2.32627
2.31538
2.30161
2.28736
2.2743
2.52338
2.51614
2.5105
2.50393
2.4967
2.48782
2.47854
2.46866
2.45809
2.44673
2.43418
2.42071
2.40747
2.39775
2.39211
2.38649
2.37931
2.37033
2.36137
2.35206
2.34262
2.33294
2.32232
2.30937
2.29615
2.538
2.52852
2.52108
2.5152
2.50954
2.50248
2.49404
2.48493
2.47557
2.46548
2.45429
2.44206
2.42884
2.41508
2.403
2.39472
2.38871
2.38257
2.37508
2.3665
2.35753
2.34798
2.33955
2.32856
2.55483
2.542
2.53396
2.52618
2.52022
2.51489
2.50805
2.49982
2.49103
2.48226
2.47262
2.46171
2.45007
2.43754
2.42438
2.41185
2.40162
2.39378
2.38707
2.37969
2.37192
2.36323
2.35499
2.34481
2.56469
2.55847
2.54826
2.53903
2.53149
2.52507
2.51979
2.51273
2.50458
2.49611
2.48789
2.47841
2.46823
2.45736
2.44578
2.4337
2.42183
2.41117
2.40179
2.39349
2.3857
2.37833
2.36972
2.58304
2.57598
2.57034
2.56226
2.55381
2.54483
2.53711
2.53044
2.52407
2.51675
2.50863
2.50022
2.49237
2.48349
2.47391
2.4637
2.45301
2.44196
2.43105
2.42066
2.41081
2.40181
2.3932
2.38373
2.59659
2.58807
2.58067
2.57412
2.56726
2.55944
2.55137
2.54368
2.53656
2.52949
2.52178
2.51344
2.50489
2.49656
2.48811
2.47908
2.46937
2.45929
2.44915
2.43894
2.42955
2.4194
2.41078
2.40083
2.60689
2.6005
2.59295
2.58529
2.57898
2.57242
2.56516
2.5578
2.55056
2.54338
2.53585
2.52782
2.51919
2.51025
2.5016
2.49315
2.48433
2.47483
2.46521
2.45547
2.44565
2.43596
2.42597
2.6265
2.61768
2.61093
2.60322
2.59628
2.5899
2.58424
2.57774
2.57057
2.56365
2.5567
2.54968
2.5419
2.53379
2.52518
2.51607
2.50717
2.49869
2.49004
2.48076
2.4713
2.46185
2.45234
2.43955
2.64079
2.63025
2.62225
2.61476
2.60661
2.59948
2.59397
2.58949
2.58321
2.57588
2.56907
2.5623
2.55551
2.54785
2.53961
2.53113
2.5221
2.51306
2.50459
2.49588
2.48709
2.47796
2.4685
2.4614
2.64899
2.64287
2.63515
2.62662
2.61826
2.60961
2.60223
2.59729
2.59411
2.5884
2.58126
2.57445
2.5677
2.56088
2.55357
2.54543
2.53692
2.528
2.51903
2.51026
2.50178
2.49264
2.48483
2.47614
2.66278
2.65627
2.64758
2.63914
2.63076
2.62212
2.6131
2.60488
2.59978
2.59775
2.5931
2.58618
2.57934
2.57257
2.56568
2.55851
2.55059
2.54202
2.53333
2.5244
2.51522
2.50535
2.49905
2.68403
2.67726
2.66811
2.66042
2.65227
2.64408
2.63561
2.62674
2.61745
2.60872
2.60263
2.6006
2.59757
2.59106
2.58427
2.57746
2.57062
2.56352
2.55573
2.5471
2.53815
2.52932
2.52089
2.51013
2.70092
2.68971
2.683
2.67428
2.66597
2.65762
2.64964
2.64125
2.63233
2.62326
2.61453
2.60763
2.60447
2.60199
2.59607
2.58975
2.58293
2.57595
2.56877
2.56068
2.55219
2.54332
2.53397
2.52611
2.71036
2.70561
2.69654
2.68849
2.68035
2.6718
2.66363
2.65566
2.64725
2.63846
2.62986
2.62176
2.61462
2.61008
2.60656
2.60104
2.59509
2.58855
2.58154
2.57411
2.56579
2.55641
2.54763
2.72489
2.71708
2.70979
2.70202
2.69433
2.68621
2.67794
2.66981
2.66175
2.65314
2.64428
2.63623
2.62919
2.62231
2.61673
2.61162
2.60611
2.60044
2.59434
2.58742
2.57965
2.57112
2.56191
2.73528
2.72905
2.72207
2.71476
2.707
2.69945
2.69166
2.68389
2.67616
2.66793
2.65883
2.64946
2.64142
2.63568
2.62996
2.62373
2.61757
2.61177
2.60615
2.60009
2.5928
2.5844
2.57823
2.74913
2.74295
2.73453
2.72695
2.71942
2.71197
2.70455
2.69699
2.68981
2.6826
2.67412
2.66463
2.65471
2.64568
2.63962
2.63526
2.62976
2.62354
2.61749
2.61123
2.60535
2.59819
2.59435
2.76242
2.75467
2.74711
2.73983
2.73224
2.72492
2.71728
2.70961
2.70207
2.69542
2.6888
2.68014
2.67087
2.66078
2.65087
2.64324
2.63802
2.63328
2.62798
2.62208
2.61585
2.60977
2.602
2.77409
2.76739
2.76014
2.75295
2.74561
2.7384
2.73112
2.72327
2.7152
2.70725
2.70038
2.69437
2.6863
2.67733
2.66762
2.65776
2.64921
2.64245
2.63722
2.63197
2.6262
2.61998
2.61505
2.78817
2.78411
2.77918
2.77339
2.76646
2.75919
2.75218
2.74519
2.73796
2.73011
2.72189
2.71363
2.70602
2.69911
2.69182
2.68372
2.67482
2.66552
2.65698
2.64932
2.64301
2.63757
2.63217
2.80128
2.7939
2.79023
2.78473
2.7791
2.77279
2.76602
2.75917
2.75224
2.74508
2.73742
2.72929
2.72089
2.71273
2.70514
2.69782
2.69017
2.68184
2.67328
2.6649
2.6571
2.65003
2.64415
2.81019
2.80451
2.79796
2.7933
2.78914
2.78458
2.77884
2.77236
2.76559
2.75867
2.75156
2.74416
2.73648
2.72819
2.71974
2.71173
2.70415
2.69656
2.68858
2.68053
2.67217
2.66369
2.6574
2.82283
2.81469
2.80791
2.80081
2.79617
2.7928
2.7894
2.78404
2.77742
2.77068
2.76395
2.75714
2.75019
2.74288
2.73502
2.72666
2.71838
2.71049
2.70277
2.69483
2.68704
2.67891
2.67152
2.83055
2.82547
2.81836
2.81052
2.80353
2.79817
2.79491
2.79288
2.78812
2.78146
2.77472
2.76839
2.76206
2.75556
2.74845
2.74099
2.73302
2.72486
2.71682
2.70898
2.70094
2.6932
2.6864
2.84277
2.83658
2.82916
2.82181
2.81394
2.80628
2.79977
2.79559
2.7943
2.79144
2.78507
2.77853
2.77243
2.76618
2.76002
2.75339
2.74634
2.73879
2.73101
2.72307
2.71506
2.70697
2.69923
2.85828
2.84831
2.84163
2.83379
2.82605
2.81805
2.80996
2.80264
2.79752
2.79565
2.79385
2.78828
2.78182
2.77576
2.7699
2.7639
2.75764
2.7509
2.74383
2.7363
2.72884
2.72129
2.71344
2.87006
2.86225
2.85316
2.84595
2.83846
2.83095
2.8232
2.81533
2.80783
2.80212
2.7992
2.79678
2.79137
2.78538
2.77945
2.7736
2.76762
2.76139
2.75495
2.74807
2.74072
2.73375
2.72664
2.8814
2.87532
2.86706
2.85895
2.85093
2.84362
2.83631
2.82897
2.82149
2.81419
2.80811
2.80399
2.80004
2.79489
2.78953
2.78383
2.77793
2.77184
2.76548
2.75897
2.75252
2.74603
2.73851
2.89258
2.88688
2.88005
2.8724
2.86434
2.85657
2.84925
2.84213
2.83519
2.82787
2.82046
2.81415
2.80899
2.80402
2.79894
2.79379
2.78821
2.78244
2.77635
2.77014
2.76365
2.75667
2.90622
2.89889
2.89795
2.8921
2.88542
2.87787
2.87025
2.86274
2.85531
2.84817
2.84136
2.83419
2.8267
2.81991
2.81378
2.80814
2.80289
2.79769
2.79234
2.78665
2.78071
2.77465
2.76856
2.91483
2.90889
2.90379
2.90145
2.8966
2.89029
2.88358
2.87634
2.86893
2.86126
2.85398
2.84715
2.83977
2.83234
2.82529
2.81858
2.81249
2.80691
2.80159
2.79625
2.79067
2.785
2.77883
2.92623
2.9196
2.91258
2.90768
2.90508
2.90099
2.89531
2.8887
2.88177
2.87449
2.86672
2.85921
2.85201
2.84455
2.83736
2.83043
2.82363
2.81738
2.81153
2.80578
2.80027
2.79463
2.78862
2.94019
2.93118
2.92432
2.91754
2.91192
2.90823
2.90454
2.89928
2.89296
2.88635
2.8794
2.87188
2.86408
2.85648
2.84877
2.84189
2.83518
2.82851
2.82228
2.81641
2.8101
2.80411
2.79834
2.94746
2.94272
2.93592
2.9286
2.92201
2.91648
2.912
2.90785
2.90278
2.89671
2.89022
2.88361