/*--------------------------------*- C++ -*----------------------------------*\
  =========                 |
  \\      /  F ield         | OpenFOAM: The Open Source CFD Toolbox
   \\    /   O peration     | Website:  https://openfoam.org
    \\  /    A nd           | Version:  8
     \\/     M anipulation  |
\*---------------------------------------------------------------------------*/
FoamFile
{
    version     2.0;
    format      ascii;
    class       volScalarField;
    location    "140";
    object      epsilon;
}
// * * * * * * * * * * * * * * * * * * * * * * * * * * * * * * * * * * * * * //

dimensions      [0 2 -3 0 0 0 0];

internalField   nonuniform List<scalar> 
12225
(
285.53
270.705
257.91
243.821
232.438
223.118
216.759
212.713
212.742
213.979
217.222
220.972
228.113
232.883
241.408
246.954
256.489
260.329
52.4819
91.9155
106.943
114.799
124.795
136.862
152.635
170.001
191.119
211.047
235.351
255.631
281.394
299.573
325.475
340.035
365.107
381.501
20.5234
34.8907
44.6544
50.4972
55.3653
59.6488
64.6238
69.6973
76.281
83.2606
91.4222
99.4435
108.188
117.179
125.609
135.831
142.738
155.303
16.0039
19.492
24.0694
27.5774
30.4815
32.8883
35.1375
37.3169
39.4836
41.9484
44.322
47.2482
49.6774
53.1126
55.4445
59.3678
61.5249
66.0354
15.0388
15.7146
17.3936
19.0853
20.6322
22.0341
23.2388
24.4405
25.4374
26.6055
27.5192
28.7724
29.6345
31.0062
31.8303
33.3092
34.0936
35.7707
14.7898
14.8261
15.249
15.8697
16.5641
17.2902
17.9208
18.5877
19.1171
19.7378
20.1928
20.8038
21.211
21.83
22.2061
22.8436
23.1809
23.9037
14.7657
14.6147
14.6409
14.7263
14.9337
15.2211
15.4905
15.8101
16.0703
16.3839
16.6183
16.922
17.1325
17.4303
17.6195
17.9207
18.0799
18.4257
14.7686
14.5867
14.4659
14.3804
14.3675
14.3895
14.4395
14.5337
14.6183
14.737
14.831
14.9571
15.0484
15.1776
15.2625
15.3962
15.4666
15.6296
14.768
14.5911
14.4348
14.2964
14.185
14.1044
14.0398
14.0067
13.9814
13.9786
13.9809
13.9919
14.0039
14.0304
14.0469
14.0823
14.0985
14.1546
14.7665
14.5941
14.432
14.2821
14.1429
14.0219
13.9115
13.8193
13.7369
13.6698
13.6101
13.5633
13.5181
13.4873
13.4517
13.4348
13.4023
13.4022
14.7659
14.5945
14.4321
14.2803
14.1361
14.0032
13.8781
13.7644
13.6581
13.5628
13.4734
13.3951
13.3197
13.256
13.1915
13.1408
13.0839
13.0455
14.7657
14.5943
14.4321
14.2798
14.1353
13.9998
13.8715
13.7518
13.6384
13.5336
13.434
13.3429
13.2556
13.177
13.1001
13.0327
12.9647
12.9075
14.7657
14.5941
14.432
14.2794
14.1349
13.9989
13.8698
13.7484
13.6331
13.5249
13.4219
13.3256
13.2337
13.1482
13.0662
12.9905
12.9171
12.8503
14.7657
14.5939
14.4318
14.279
14.1346
13.9983
13.8691
13.7472
13.6315
13.5222
13.4184
13.3203
13.227
13.1389
13.0549
12.9758
12.9002
12.8292
14.7657
14.5938
14.4317
14.2787
14.1342
13.9977
13.8686
13.7464
13.6306
13.521
13.417
13.3185
13.2248
13.136
13.0516
12.9715
12.8952
12.8229
14.7657
14.5937
14.4316
14.2785
14.1339
13.9973
13.8681
13.7458
13.63
13.5202
13.4161
13.3174
13.2237
13.1347
13.0501
12.9697
12.8933
12.8206
14.7657
14.5937
14.4315
14.2783
14.1337
13.997
13.8677
13.7453
13.6294
13.5196
13.4154
13.3166
13.2228
13.1337
13.049
12.9686
12.892
12.8192
14.7657
14.5937
14.4314
14.2782
14.1335
13.9968
13.8674
13.745
13.629
13.5191
13.4149
13.316
13.2221
13.133
13.0482
12.9677
12.891
12.8182
14.7657
14.5937
14.4314
14.2782
14.1335
13.9967
13.8673
13.7449
13.6288
13.5189
13.4146
13.3157
13.2218
13.1326
13.0478
12.9672
12.8905
12.8176
14.7657
14.5937
14.4314
14.2783
14.1336
13.9968
13.8674
13.745
13.629
13.5191
13.4148
13.316
13.222
13.1328
13.048
12.9675
12.8908
12.8179
14.7657
14.5937
14.4315
14.2784
14.1338
13.997
13.8678
13.7453
13.6295
13.5196
13.4155
13.3167
13.223
13.1339
13.0495
12.969
12.8928
12.8201
14.7657
14.5937
14.4316
14.2785
14.1341
13.9975
13.8685
13.7464
13.6312
13.5221
13.4191
13.3214
13.2294
13.1419
13.0596
12.9811
12.9074
12.8369
14.7658
14.5937
14.4318
14.2788
14.1353
14.0002
13.8742
13.756
13.6464
13.5435
13.4485
13.3592
13.277
13.1993
13.1283
13.0602
12.9989
12.9387
14.7661
14.5928
14.4329
14.2844
14.1515
14.0321
13.9289
13.8376
13.7593
13.6894
13.6307
13.5769
13.5328
13.4905
13.4574
13.423
13.3988
13.3693
14.7641
14.5936
14.461
14.3604
14.3029
14.2767
14.2796
14.2939
14.3202
14.3529
14.3958
14.4344
14.4823
14.5216
14.5719
14.6088
14.6615
14.6937
14.757
14.6921
14.7579
14.9172
15.1828
15.4611
15.7475
16.012
16.2722
16.5036
16.7358
16.9383
17.1504
17.3306
17.5306
17.6933
17.8885
18.0356
14.9575
15.4344
16.5693
17.6883
18.7052
19.5676
20.337
20.9965
21.6191
22.1656
22.7183
23.2102
23.7392
24.2035
24.7319
25.1818
25.7241
26.1652
16.2579
20.9389
25.0149
27.7586
29.7842
31.3581
32.7761
34.0575
35.3582
36.6149
37.9738
39.2953
40.7594
42.1433
43.7153
45.1709
46.8811
48.356
29.9428
47.2248
54.87
58.6728
61.6128
64.4304
67.5772
70.9759
74.7339
78.7089
82.9792
87.3371
91.8971
96.4413
101.091
105.613
110.166
114.569
165.79
160.073
154.899
149.564
144.479
139.678
135.613
132.11
129.269
126.973
125.319
124.043
123.338
122.827
122.823
122.979
123.266
123.824
1.76974
1.35078
2.16954
2.93357
3.69045
4.43964
5.1751
5.88582
6.5551
7.16561
7.69901
8.14095
8.46807
8.67579
8.81425
8.86507
8.83892
8.72182
8.87092
9.05011
9.05695
8.72029
7.91109
8.48867
9.0317
43.2211
46.675
50.9653
55.2878
59.887
64.6442
69.6108
74.7361
80.0581
85.5404
91.2249
97.0711
103.126
109.351
115.796
122.423
129.286
136.342
143.641
151.127
158.863
166.801
175.003
183.42
192.116
201.04
210.257
219.715
229.48
239.5
249.843
260.45
271.392
282.611
294.177
306.027
318.234
330.735
343.602
356.768
370.306
384.145
398.357
412.871
427.755
442.939
458.484
474.321
490.505
506.965
523.747
540.781
558.098
575.631
593.395
611.32
629.402
647.569
665.799
684.03
702.239
720.423
738.633
757.038
775.309
793.47
811.458
829.225
846.709
863.837
880.542
896.738
912.353
927.292
941.479
954.81
967.207
978.569
988.795
997.8
1005.53
1012.02
1017.35
1020.4
1020.87
1020.84
1019.27
1016.61
1011.75
1005.37
997.369
987.909
977.013
964.719
950.592
935.406
919.183
902.153
884.431
866.2
847.537
828.613
809.496
790.348
771.223
752.262
733.509
715.077
697.002
679.379
662.247
645.76
630.298
617.34
606.696
596.474
585.875
575.099
564.552
554.476
544.86
535.665
526.879
518.557
510.778
503.471
496.557
489.977
483.666
477.514
471.543
465.781
460.214
454.789
449.549
444.6
439.962
435.556
431.329
427.264
423.372
419.644
416.089
412.696
409.479
406.421
403.538
400.816
398.253
395.808
393.43
390.979
388.138
383.85
363.505
5.07714
2.9702
2.88084
3.16592
3.61846
4.16968
4.7881
5.44966
6.13318
6.82046
7.49589
8.14721
8.77183
9.38874
10.0304
10.7183
11.4727
12.3109
13.2411
14.2629
15.4908
17.1686
19.4502
22.2543
25.6171
30.4468
32.6214
34.855
37.1395
39.4948
41.9133
44.4028
46.9637
49.6073
52.3229
55.1134
57.9774
60.9219
63.9455
67.0556
70.2505
73.5372
76.9126
80.3821
83.9415
87.5987
91.351
95.2059
99.1602
103.222
107.386
111.662
116.045
120.542
125.15
129.876
134.715
139.675
144.749
149.946
155.258
160.694
166.246
171.922
177.713
183.625
189.651
195.796
202.05
208.417
214.889
221.467
228.141
234.912
241.769
248.707
255.716
262.789
269.914
277.082
284.277
291.491
298.708
305.92
313.12
320.309
327.507
334.752
342.111
349.594
357.002
364.343
371.592
378.728
385.727
392.563
399.207
405.633
411.806
417.699
423.274
428.501
433.344
437.77
441.735
445.216
448.175
450.552
452.16
453.024
453.304
453.262
452.509
450.967
448.757
445.891
442.396
438.297
433.596
428.279
422.477
416.24
409.632
402.712
395.532
388.142
380.591
372.927
365.196
357.44
349.701
342.012
334.41
326.922
319.578
312.407
305.464
298.871
292.902
287.486
282.247
277.029
271.869
266.858
262.071
257.508
253.15
248.98
245
241.216
237.62
234.19
230.91
227.756
224.691
221.712
218.828
216.042
213.351
210.758
208.282
205.921
203.654
201.466
199.351
197.309
195.342
193.449
191.631
189.888
188.223
186.638
185.136
183.718
182.385
181.144
179.982
178.99
177.987
176.893
9.26894
4.78029
4.18351
4.23305
4.53844
5.00042
5.57517
6.23662
6.96548
7.74743
8.57364
9.44316
10.3591
11.3228
12.3332
13.3926
14.5074
15.679
16.918
18.2497
19.722
21.3827
23.2303
25.2364
27.3526
29.5098
31.386
33.2552
35.1674
37.1333
39.1537
41.2305
43.3642
45.5568
47.8127
50.1301
52.5091
54.9521
57.4598
60.0347
62.6776
65.3904
68.1738
71.0294
73.9577
76.961
80.0399
83.1968
86.4321
89.7479
93.1447
96.6242
100.187
103.834
107.566
111.384
115.288
119.28
123.357
127.522
131.773
136.11
140.533
145.042
149.633
154.308
159.064
163.9
168.813
173.801
178.861
183.991
189.187
194.446
199.763
205.134
210.554
216.018
221.521
227.058
232.624
238.215
243.827
249.457
255.107
260.779
266.478
272.21
277.981
283.761
289.504
295.202
300.838
306.398
311.864
317.217
322.437
327.5
332.384
337.062
341.508
345.695
349.593
353.171
356.399
359.244
361.674
363.648
365.113
366.072
366.479
366.618
366.162
365.141
363.581
361.5
358.915
355.846
352.308
348.325
343.95
339.228
334.202
328.919
323.418
317.743
311.93
306.019
300.046
294.047
288.05
282.086
276.18
270.355
264.634
259.036
253.595
248.366
243.43
238.777
234.298
229.933
225.68
221.561
217.601
213.802
210.157
206.659
203.305
200.094
197.021
194.075
191.246
188.523
185.888
183.335
180.864
178.472
176.156
173.914
171.748
169.658
167.633
165.669
163.76
161.906
160.107
158.362
156.673
155.042
153.469
151.96
150.516
149.143
147.847
146.646
145.556
144.681
144.046
144.043
13.649
6.75253
5.65676
5.5219
5.73933
6.15842
6.71948
7.39253
8.15807
9.00173
9.9126
10.883
11.9072
12.9807
14.0999
15.2626
16.4686
17.7232
19.0291
20.3945
21.8323
23.3493
24.9361
26.6325
28.389
30.1696
31.9397
33.7367
35.5791
37.4732
39.4186
41.4158
43.4642
45.5628
47.7147
49.9233
52.1899
54.5164
56.9035
59.3528
61.8652
64.4421
67.0843
69.7934
72.5701
75.416
78.3317
81.3186
84.3776
87.51
90.7165
93.9982
97.3556
100.79
104.301
107.889
111.556
115.3
119.122
123.021
126.998
131.052
135.181
139.386
143.665
148.016
152.438
156.93
161.49
166.115
170.803
175.552
180.358
185.219
190.133
195.095
200.104
205.154
210.244
215.371
220.531
225.724
230.946
236.196
241.475
246.782
252.116
257.477
262.856
268.231
273.584
278.904
284.179
289.395
294.537
299.588
304.529
309.342
314.002
318.487
322.77
326.826
330.625
334.137
337.332
340.179
342.646
344.702
346.317
347.478
348.096
348.4
348.171
347.419
346.154
344.39
342.141
339.426
336.265
332.687
328.73
324.433
319.839
314.989
309.921
304.677
299.294
293.81
288.26
282.677
277.091
271.53
266.018
260.576
255.226
249.985
244.876
239.929
235.177
230.627
226.243
221.998
217.885
213.908
210.071
206.376
202.818
199.395
196.101
192.934
189.889
186.958
184.134
181.408
178.771
176.217
173.739
171.335
168.998
166.726
164.517
162.369
160.276
158.235
156.244
154.3
152.404
150.556
148.756
147.008
145.313
143.678
142.099
140.587
139.153
137.818
136.612
135.63
134.933
134.829
17.912
8.74111
7.15301
6.84226
6.97054
7.34315
7.87994
8.54284
9.30891
10.1618
11.0886
12.079
13.1248
14.2199
15.36
16.5426
17.7673
19.0359
20.3514
21.718
23.1395
24.6183
26.1558
27.7545
29.4054
31.0992
32.8307
34.605
36.4258
38.2959
40.2176
42.1924
44.2216
46.307
48.4507
50.6523
52.9124
55.2322
57.6125
60.0546
62.5595
65.1284
67.7625
70.4631
73.2319
76.0696
78.9767
81.9546
85.004
88.1262
91.3219
94.5922
97.9377
101.359
104.857
108.432
112.085
115.814
119.621
123.505
127.466
131.502
135.615
139.802
144.062
148.394
152.797
157.269
161.809
166.413
171.081
175.809
180.595
185.437
190.333
195.279
200.273
205.313
210.397
215.521
220.685
225.885
231.121
236.39
241.69
247.018
252.373
257.75
263.138
268.524
273.897
279.247
284.563
289.833
295.043
300.177
305.219
310.148
314.944
319.582
324.038
328.284
332.292
336.03
339.467
342.57
345.307
347.647
349.563
351.031
352.002
352.497
352.553
352.071
351.063
349.539
347.513
345.003
342.032
338.626
334.823
330.66
326.178
321.418
316.423
311.232
305.888
300.427
294.889
289.306
283.71
278.13
272.593
267.119
261.73
256.443
251.276
246.247
241.378
236.676
232.132
227.735
223.478
219.361
215.382
211.54
207.832
204.254
200.801
197.47
194.256
191.151
188.148
185.242
182.423
179.686
177.026
174.435
171.91
169.444
167.036
164.683
162.38
160.125
157.915
155.75
153.63
151.555
149.527
147.547
145.62
143.752
141.944
140.206
138.552
137.006
135.601
134.424
133.532
133.103
21.8893
10.6393
8.5759
8.09039
8.12468
8.44155
8.94024
9.57383
10.3155
11.1471
12.0553
13.0294
14.0612
15.1449
16.2764
17.4537
18.676
19.9442
21.26
22.6254
24.0421
25.5118
27.0351
28.6126
30.2425
31.9226
33.6518
35.4312
37.2621
39.146
41.0842
43.0782
45.1291
47.2383
49.4068
51.6355
53.9251
56.2767
58.6913
61.17
63.7139
66.3241
69.0018
71.7479
74.5634
77.4497
80.4082
83.4403
86.547
89.7297
92.9893
96.327
99.7436
103.24
106.817
110.475
114.215
118.036
121.94
125.925
129.992
134.14
138.369
142.677
147.064
151.529
156.069
160.684
165.372
170.13
174.958
179.851
184.808
189.828
194.906
200.041
205.231
210.473
215.764
221.102
226.485
231.911
237.377
242.88
248.417
253.984
259.575
265.183
270.804
276.428
282.046
287.651
293.231
298.776
304.272
309.706
315.059
320.314
325.449
330.44
335.262
339.886
344.283
348.419
352.261
355.774
358.923
361.674
363.994
365.856
367.232
368.052
368.396
368.217
367.47
366.171
364.332
361.972
359.112
355.781
352.014
347.85
343.332
338.501
333.403
328.082
322.582
316.945
311.21
305.417
299.598
293.785
288.006
282.285
276.642
271.097
265.665
260.362
255.203
250.197
245.343
240.638
236.079
231.663
227.389
223.253
219.252
215.382
211.638
208.015
204.507
201.108
197.811
194.609
191.496
188.464
185.508
182.622
179.799
177.036
174.327
171.67
169.062
166.5
163.982
161.507
159.077
156.691
154.352
152.062
149.827
147.651
145.542
143.508
141.566
139.741
138.069
136.626
135.454
134.607
25.4464
12.3675
9.86014
9.19863
9.14116
9.39569
9.84828
10.443
11.1494
11.9481
12.8254
13.7713
14.7782
15.8406
16.955
18.1193
19.3326
20.5951
21.9074
23.2708
24.6861
26.1545
27.6766
29.253
30.8837
32.5684
34.3073
36.1011
37.9507
39.8572
41.8217
43.8457
45.9301
48.0763
50.2853
52.5582
54.896
57.2999
59.7709
62.3104
64.9194
67.5993
70.3512
73.1765
76.0764
79.0525
82.1061
85.239
88.4522
91.7475
95.126
98.5891
102.138
105.774
109.497
113.309
117.211
121.202
125.283
129.454
133.716
138.067
142.508
147.036
151.653
156.355
161.142
166.013
170.964
175.995
181.102
186.284
191.538
196.862
202.252
207.705
213.22
218.793
224.421
230.102
235.832
241.61
247.431
253.291
259.189
265.118
271.074
277.051
283.044
289.045
295.047
301.042
307.02
312.972
318.884
324.742
330.531
336.232
341.824
347.282
352.582
357.693
362.584
367.22
371.565
375.58
379.226
382.467
385.262
387.58
389.386
390.634
391.311
391.446
390.977
389.909
388.252
386.023
383.243
379.942
376.156
371.924
367.291
362.303
357.007
351.454
345.689
339.76
333.711
327.583
321.414
315.238
309.086
302.984
296.955
291.019
285.193
279.492
273.928
268.51
263.242
258.124
253.156
248.336
243.66
239.127
234.731
230.47
226.337
222.327
218.433
214.65
210.969
207.385
203.889
200.476
197.139
193.871
190.668
187.523
184.433
181.394
178.404
175.458
172.558
169.701
166.889
164.123
161.406
158.742
156.135
153.593
151.123
148.738
146.454
144.298
142.305
140.54
139.027
137.753
28.502
13.8735
10.9652
10.1334
9.98833
10.1807
10.5856
11.1394
11.8083
12.5718
13.4161
14.3316
15.3112
16.35
17.4445
18.5926
19.7933
21.0463
22.3518
23.7103
25.1227
26.5898
28.1124
29.6912
31.3268
33.0198
34.7708
36.5809
38.4508
40.382
42.3757
44.4332
46.5559
48.7451
51.0021
53.3281
55.7245
58.1925
60.7335
63.3489
66.0399
68.8083
71.6552
74.5825
77.5916
80.6843
83.8622
87.1272
90.4809
93.925
97.4613
101.091
104.816
108.638
112.558
116.577
120.695
124.915
129.235
133.657
138.181
142.806
147.532
152.359
157.284
162.307
167.427
172.64
177.947
183.343
188.827
194.396
200.046
205.774
211.578
217.454
223.399
229.408
235.479
241.607
247.79
254.023
260.303
266.625
272.985
279.378
285.8
292.246
298.71
305.184
311.663
318.138
324.6
331.041
337.448
343.807
350.104
356.32
362.435
368.424
374.261
379.917
385.357
390.546
395.444
400.009
404.199
407.971
411.282
414.091
416.36
418.053
419.117
419.577
419.402
418.573
417.098
414.992
412.277
408.983
405.146
400.808
396.016
390.818
385.268
379.418
373.321
367.028
360.586
354.043
347.439
340.813
334.198
327.624
321.117
314.699
308.387
302.198
296.144
290.233
284.472
278.863
273.406
268.1
262.943
257.933
253.064
248.333
243.734
239.26
234.905
230.662
226.523
222.483
218.532
214.665
210.875
207.156
203.501
199.905
196.365
192.876
189.436
186.043
182.696
179.394
176.139
172.934
169.781
166.686
163.654
160.693
157.813
155.028
152.356
149.823
147.462
145.329
143.433
141.728
31.0208
15.1324
11.8754
10.8884
10.6608
10.7942
11.153
11.6674
12.3003
13.0301
13.8428
14.7289
15.6816
16.6962
17.7696
18.8996
20.085
21.3255
22.6208
23.9714
25.3779
26.8413
28.3625
29.9426
31.5824
33.283
35.0453
36.8706
38.7601
40.7156
42.7386
44.831
46.9941
49.2297
51.5393
53.9246
56.3869
58.928
61.5494
64.2528
67.0399
69.9125
72.8723
75.9213
79.0614
82.2946
85.6229
89.0485
92.5733
96.1996
99.9293
103.764
107.707
111.758
115.921
120.195
124.583
129.085
133.702
138.435
143.284
148.249
153.329
158.523
163.831
169.251
174.781
180.419
186.163
192.01
197.957
204
210.135
216.36
222.67
229.06
235.526
242.064
248.669
255.337
262.062
268.84
275.667
282.536
289.443
296.384
303.352
310.343
317.35
324.368
331.387
338.403
345.405
352.385
359.331
366.231
373.071
379.832
386.495
393.036
399.43
405.644
411.647
417.398
422.857
427.98
432.72
437.03
440.862
444.168
446.905
449.032
450.502
451.303
451.417
450.825
449.525
447.531
444.869
441.565
437.658
433.19
428.211
422.773
416.932
410.746
404.272
397.564
390.678
383.663
376.566
369.428
362.288
355.178
348.127
341.16
334.297
327.554
320.945
314.478
308.162
302
295.992
290.139
284.438
278.887
273.483
268.218
263.089
258.088
253.209
248.444
243.785
239.226
234.759
230.377
226.072
221.839
217.672
213.566
209.516
205.519
201.572
197.674
193.824
190.023
186.273
182.576
178.937
175.362
171.859
168.435
165.103
161.877
158.776
155.827
153.059
150.522
148.21
146.069
33.0007
16.14
12.593
11.4702
11.1674
11.2465
11.5626
12.0403
12.6399
13.3384
14.1217
14.98
15.9069
16.8977
17.9493
19.06
20.2289
21.4559
22.7388
24.0786
25.4764
26.9336
28.4514
30.031
31.6738
33.381
35.1539
36.9935
38.9006
40.8794
42.9319
45.0601
47.266
49.5516
51.9188
54.3696
56.9058
59.5296
62.2427
65.0474
67.9455
70.9394
74.0312
77.2232
80.5178
83.9173
87.4243
91.0412
94.7706
98.615
102.577
106.658
110.862
115.19
119.644
124.226
128.937
133.78
138.754
143.861
149.1
154.472
159.976
165.611
171.376
177.269
183.289
189.432
195.696
202.076
208.571
215.174
221.882
228.69
235.592
242.584
249.659
256.812
264.037
271.327
278.677
286.081
293.532
301.024
308.552
316.108
323.687
331.283
338.889
346.497
354.102
361.694
369.265
376.807
384.309
391.759
399.142
406.443
413.643
420.72
427.646
434.394
440.928
447.21
453.196
458.84
464.094
468.906
473.224
476.996
480.172
482.704
484.549
485.678
486.061
485.688
484.543
482.645
480.018
476.69
472.698
468.084
462.899
457.199
451.045
444.496
437.615
430.462
423.096
415.572
407.942
400.251
392.542
384.852
377.212
369.65
362.187
354.843
347.632
340.563
333.645
326.883
320.277
313.828
307.535
301.395
295.404
289.556
283.846
278.267
272.812
267.473
262.243
257.114
252.078
247.128
242.257
237.459
232.729
228.06
223.45
218.895
214.392
209.941
205.542
201.195
196.904
192.673
188.506
184.411
180.396
176.471
172.651
168.949
165.387
161.99
158.785
155.815
153.065
150.482
34.4639
16.9057
13.1299
11.8936
11.5245
11.5552
11.8324
12.2764
12.8453
13.5152
14.2713
15.1041
16.0071
16.9747
18.0042
19.0945
20.2452
21.4568
22.7263
24.055
25.444
26.8947
28.4085
29.9872
31.6324
33.346
35.1295
36.9845
38.912
40.9187
43.0028
45.17
47.4233
49.7652
52.1981
54.7243
57.3461
60.0661
62.8866
65.8102
68.8395
71.977
75.2255
78.5878
82.0667
85.6652
89.3862
93.2326
97.2074
101.314
105.554
109.932
114.449
119.109
123.913
128.863
133.962
139.211
144.611
150.162
155.866
161.72
167.726
173.882
180.186
186.636
193.229
199.962
206.832
213.834
220.963
228.214
235.582
243.06
250.641
258.32
266.088
273.938
281.863
289.855
297.906
306.007
314.152
322.333
330.54
338.768
347.008
355.253
363.495
371.725
379.936
388.119
396.265
404.366
412.41
420.386
428.282
436.082
443.77
451.324
458.72
465.93
472.92
479.652
486.083
492.165
497.848
503.079
507.803
511.964
515.507
518.381
520.538
521.94
522.552
522.36
521.334
519.499
516.883
513.511
509.415
504.64
499.236
493.261
486.778
479.851
472.546
464.93
457.064
449.01
440.823
432.555
424.252
415.954
407.697
399.51
391.418
383.442
375.597
367.895
360.344
352.948
345.711
338.633
331.713
324.947
318.332
311.863
305.534
299.338
293.266
287.313
281.47
275.729
270.082
264.523
259.044
253.639
248.303
243.031
237.819
232.665
227.566
222.523
217.535
212.605
207.736
202.934
198.205
193.557
189
184.545
180.207
176.004
171.954
168.083
164.417
160.993
157.79
154.763
35.4392
17.4444
13.5031
12.1774
11.7522
11.7416
11.9835
12.3968
12.9378
13.5818
14.3127
15.1216
16.0032
16.951
17.9624
19.0355
20.1694
21.3632
22.6165
23.9314
25.3097
26.7532
28.2637
29.8436
31.4951
33.2206
35.0222
36.9022
38.8624
40.9049
43.0287
45.2441
47.5552
49.966
52.4791
55.0978
57.8247
60.6628
63.6151
66.6848
69.875
73.189
76.63
80.2015
83.9068
87.7494
91.7328
95.8605
100.136
104.562
109.143
113.882
118.781
123.843
129.071
134.467
140.033
145.77
151.679
157.761
164.016
170.443
177.042
183.81
190.745
197.844
205.105
212.522
220.091
227.807
235.663
243.653
251.769
260.005
268.351
276.799
285.34
293.965
302.664
311.427
320.244
329.105
338
346.919
355.852
364.79
373.722
382.64
391.533
400.392
409.207
417.968
426.666
435.29
443.831
452.277
460.617
468.837
476.922
484.853
492.608
500.162
507.483
514.535
521.275
527.657
533.632
539.145
544.142
548.565
552.357
555.464
557.836
559.427
560.196
560.114
559.15
557.327
554.682
551.235
547.016
542.063
536.428
530.169
523.35
516.039
508.306
500.22
491.85
483.259
474.509
465.656
456.748
447.832
438.946
430.122
421.388
412.766
404.272
395.919
387.717
379.671
371.783
364.055
356.485
349.071
341.808
334.693
327.717
320.876
314.16
307.563
301.077
294.694
288.405
282.205
276.086
270.042
264.068
258.16
252.315
246.53
240.804
235.137
229.531
223.989
218.515
213.116
207.798
202.573
197.45
192.443
187.567
182.841
178.285
173.924
169.781
165.89
162.226
158.757
36.0035
17.7858
13.7338
12.3417
11.8695
11.8254
12.0377
12.4242
12.9409
13.5641
14.2751
15.0641
15.9236
16.8489
17.8388
18.8923
20.009
21.1893
22.4337
23.7435
25.1203
26.566
28.083
29.6742
31.3429
33.0929
34.9249
36.8415
38.8459
40.9408
43.1258
45.412
47.805
50.3093
52.9295
55.6708
58.5363
61.5293
64.6536
67.913
71.3114
74.8528
78.5412
82.3807
86.3752
90.5288
94.8454
99.3292
103.984
108.813
113.82
119.009
124.382
129.943
135.693
141.636
147.771
154.102
160.627
167.348
174.263
181.372
188.672
196.161
203.836
211.692
219.725
227.929
236.298
244.826
253.504
262.324
271.277
280.354
289.545
298.838
308.222
317.686
327.218
336.806
346.436
356.097
365.776
375.461
385.139
394.797
404.424
414.008
423.536
432.997
442.379
451.671
460.859
469.935
478.887
487.704
496.376
504.89
513.234
521.392
529.346
537.073
544.545
551.729
558.587
565.075
571.147
576.751
581.834
586.339
590.212
593.395
595.839
597.493
598.307
598.24
597.245
595.364
592.638
589.075
584.703
579.555
573.68
567.133
559.981
552.291
544.138
535.591
526.726
517.608
508.305
498.874
489.372
479.845
470.335
460.879
451.506
442.239
433.097
424.094
415.239
406.538
397.995
389.61
381.383
373.311
365.39
357.615
349.98
342.477
335.101
327.843
320.695
313.649
306.699
299.837
293.056
286.351
279.718
273.152
266.651
260.213
253.839
247.528
241.283
235.109
229.011
222.996
217.074
211.255
205.551
199.978
194.552
189.292
184.22
179.358
174.729
170.366
166.24
162.336
36.0653
17.9168
13.8313
12.4025
11.8979
11.829
12.0209
12.3877
12.8845
13.4842
14.1731
14.942
15.7854
16.699
17.68
18.7273
19.8406
21.0205
22.2684
23.5864
24.9775
26.4422
27.9833
29.6046
31.3099
33.1029
34.9811
36.9522
39.0218
41.1954
43.4785
45.8774
48.3979
51.0454
53.8257
56.7443
59.8067
63.0172
66.3806
69.9019
73.5857
77.4369
81.4601
85.6601
90.0415
94.6088
99.3663
104.318
109.469
114.822
120.38
126.147
132.126
138.319
144.728
151.353
158.197
165.259
172.539
180.036
187.748
195.672
203.805
212.144
220.682
229.415
238.336
247.437
256.711
266.148
275.74
285.475
295.343
305.331
315.428
325.621
335.894
346.236
356.63
367.063
377.519
387.983
398.44
408.875
419.273
429.618
439.895
450.09
460.188
470.175
480.036
489.756
499.324
508.725
517.949
526.983
535.82
544.448
552.856
561.034
568.966
576.636
584.022
591.094
597.82
604.161
610.077
615.521
620.445
624.796
628.523
631.575
633.902
635.456
636.159
635.975
634.822
632.801
629.928
626.203
621.644
616.283
610.163
603.335
595.863
587.814
579.262
570.282
560.948
551.332
541.503
531.524
521.453
511.341
501.234
491.169
481.178
471.287
461.515
451.878
442.384
433.042
423.853
414.82
405.942
397.216
388.639
380.205
371.908
363.743
355.702
347.776
339.959
332.244
324.622
317.088
309.635
302.259
294.954
287.719
280.55
273.448
266.413
259.446
252.552
245.736
239.004
232.365
225.829
219.409
213.119
206.975
200.994
195.197
189.604
184.241
179.127
174.294
169.712
165.385
35.933
17.9134
13.8295
12.3877
11.8665
11.7812
11.952
12.2995
12.7803
13.3696
14.0517
14.817
15.6599
16.5773
17.566
18.6249
19.7541
20.955
22.229
23.5784
25.0048
26.5087
28.0964
29.7728
31.543
33.4119
35.385
37.4675
39.6656
41.9858
44.4347
47.0192
49.7456
52.6206
55.6511
58.8438
62.205
65.7412
69.4587
73.3641
77.4628
81.7604
86.2621
90.9731
95.8982
101.042
106.409
112.003
117.828
123.886
130.181
136.714
143.487
150.501
157.757
165.254
172.991
180.967
189.179
197.625
206.3
215.2
224.32
233.651
243.189
252.924
262.847
272.95
283.221
293.65
304.224
314.932
325.759
336.692
347.715
358.815
369.974
381.176
392.405
403.643
414.872
426.076
437.236
448.335
459.354
470.276
481.084
491.758
502.283
512.64
522.814
532.787
542.544
552.07
561.351
570.377
579.14
587.63
595.84
603.763
611.389
618.709
625.707
632.361
638.644
644.526
649.972
654.949
659.412
663.318
666.624
669.289
671.266
672.532
672.925
672.437
670.991
668.743
665.652
661.715
656.94
651.355
644.994
637.904
630.14
621.769
612.861
603.494
593.741
583.678
573.374
562.897
552.307
541.658
530.998
520.368
509.802
499.326
488.961
478.723
468.623
458.668
448.861
439.203
429.695
420.334
411.117
402.039
393.093
384.275
375.576
366.99
358.509
350.127
341.836
333.632
325.507
317.458
309.481
301.574
293.736
285.968
278.27
270.646
263.101
255.642
248.275
241.013
233.865
226.847
219.973
213.261
206.729
200.4
194.294
188.436
182.846
177.553
172.528
167.798
35.5543
17.8206
13.7622
12.3139
11.7794
11.6844
11.8522
12.201
12.6876
13.2865
13.9822
14.766
15.6324
16.578
17.597
18.6916
19.8636
21.1152
22.4493
23.8694
25.38
26.9853
28.6902
30.5009
32.4237
34.4655
36.6335
38.9349
41.3772
43.9683
46.7162
49.6291
52.7149
55.9813
59.4359
63.0856
66.939
71.0056
75.2953
79.8159
84.5723
89.57
94.8138
100.308
106.058
112.067
118.336
124.87
131.67
138.736
146.069
153.668
161.532
169.66
178.048
186.694
195.592
204.738
214.127
223.752
233.606
243.681
253.967
264.456
275.138
286
297.032
308.222
319.557
331.022
342.605
354.29
366.062
377.905
389.802
401.737
413.692
425.649
437.588
449.49
461.337
473.109
484.785
496.347
507.774
519.046
530.143
541.045
551.732
562.186
572.387
582.316
591.956
601.288
610.299
618.979
627.32
635.316
642.962
650.255
657.194
663.778
670.001
675.846
681.292
686.32
690.912
695.041
698.674
701.778
704.328
706.295
707.637
708.314
708.188
707.162
705.34
702.756
699.372
695.171
690.154
684.336
677.745
670.42
662.407
653.764
644.559
634.866
624.758
614.312
603.599
592.687
581.64
570.514
559.359
548.217
537.126
526.112
515.198
504.401
493.731
483.197
472.801
462.547
452.433
442.459
432.62
422.912
413.331
403.87
394.522
385.283
376.143
367.098
358.141
349.267
340.471
331.75
323.101
314.522
306.015
297.579
289.219
280.939
272.744
264.643
256.646
248.763
241.009
233.398
225.948
218.678
211.606
204.755
198.149
191.811
185.759
180.023
174.57
169.454
34.7741
17.5527
13.5925
12.1817
11.6736
11.6043
11.8003
12.1796
12.6992
13.3325
14.0691
14.902
15.8273
16.8432
17.9499
19.1482
20.4406
21.8306
23.3228
24.9227
26.6364
28.4708
30.4331
32.5313
34.7739
37.1701
39.7291
42.4602
45.3734
48.4786
51.7858
55.3049
59.0453
63.0165
67.2275
71.6874
76.4057
81.3933
86.66
92.2111
98.0516
104.185
110.614
117.341
124.365
131.686
139.304
147.216
155.419
163.908
172.68
181.729
191.047
200.628
210.465
220.547
230.867
241.415
252.179
263.151
274.318
285.669
297.192
308.873
320.702
332.662
344.742
356.926
369.201
381.552
393.963
406.42
418.906
431.405
443.9
456.373
468.807
481.182
493.48
505.681
517.765
529.711
541.499
553.109
564.519
575.708
586.655
597.338
607.737
617.832
627.602
637.028
646.087
654.763
663.038
670.908
678.367
685.41
692.034
698.241
704.041
709.444
714.455
719.057
723.238
726.991
730.32
733.216
735.641
737.584
739.05
740.028
740.467
740.299
739.357
737.709
735.426
732.447
728.735
724.266
719.029
713.023
706.266
698.785
690.618
681.811
672.425
662.527
652.19
641.487
630.491
619.269
607.887
596.402
584.867
573.324
561.813
550.362
538.995
527.728
516.575
505.542
494.633
483.852
473.199
462.672
452.269
441.985
431.817
421.759
411.807
401.952
392.192
382.518
372.927
363.415
353.976
344.61
335.315
326.09
316.937
307.858
298.859
289.945
281.124
272.405
263.8
255.322
246.986
238.807
230.807
223.004
215.419
208.074
200.996
194.195
187.702
181.543
175.705
170.261
33.893
17.2021
13.388
12.0578
11.6144
11.6051
11.8538
12.2919
12.8824
13.6047
14.4474
15.4049
16.4753
17.6592
18.9592
20.379
21.9234
23.5988
25.4126
27.3733
29.49
31.7729
34.2325
36.8803
39.7279
42.7871
46.0701
49.5889
53.3559
57.383
61.6816
66.2627
71.1364
76.3124
81.7993
87.605
93.7366
100.2
107.003
114.155
121.651
129.487
137.656
146.152
154.967
164.092
173.518
183.235
193.231
203.495
214.015
224.778
235.771
246.979
258.389
269.987
281.759
293.692
305.771
317.983
330.315
342.752
355.282
367.891
380.564
393.29
406.052
418.84
431.637
444.433
457.212
469.962
482.666
495.311
507.88
520.36
532.733
544.981
557.087
569.031
580.794
592.357
603.7
614.802
625.643
636.2
646.453
656.379
665.956
675.166
683.99
692.407
700.393
707.926
714.993
721.594
727.73
733.396
738.582
743.3
747.573
751.426
754.878
757.896
760.476
762.64
764.426
765.841
766.81
767.363
767.564
767.422
766.74
765.467
763.78
761.581
758.838
755.503
751.527
746.873