/*--------------------------------*- C++ -*----------------------------------*\
  =========                 |
  \\      /  F ield         | OpenFOAM: The Open Source CFD Toolbox
   \\    /   O peration     | Website:  https://openfoam.org
    \\  /    A nd           | Version:  8
     \\/     M anipulation  |
\*---------------------------------------------------------------------------*/
FoamFile
{
    version     2.0;
    format      ascii;
    class       volScalarField;
    location    "140";
    object      k;
}
// * * * * * * * * * * * * * * * * * * * * * * * * * * * * * * * * * * * * * //

dimensions      [0 2 -2 0 0 0 0];

internalField   nonuniform List<scalar> 
12225
(
0.362822
0.343992
0.327736
0.309833
0.295369
0.283524
0.275446
0.270302
0.270341
0.271894
0.276054
0.280718
0.289904
0.295944
0.30672
0.313584
0.324433
0.334561
0.440199
0.468689
0.461606
0.448364
0.450354
0.458316
0.474384
0.498841
0.524214
0.552502
0.580664
0.606627
0.633981
0.65446
0.680359
0.694103
0.719192
0.731168
0.390551
0.417863
0.420231
0.416819
0.411635
0.407799
0.408005
0.41004
0.414463
0.421561
0.430658
0.439924
0.451163
0.461488
0.472927
0.484245
0.493807
0.507894
0.377546
0.386979
0.391409
0.391342
0.390222
0.387895
0.385659
0.384085
0.382868
0.382896
0.383381
0.384356
0.386285
0.388567
0.390964
0.394432
0.396762
0.401602
0.374562
0.376087
0.378414
0.378665
0.378263
0.377204
0.375488
0.373738
0.372006
0.370454
0.369251
0.368116
0.367368
0.366831
0.366453
0.3664
0.366434
0.366887
0.373815
0.372708
0.372645
0.372383
0.371761
0.370816
0.369552
0.368082
0.366568
0.364976
0.363521
0.362065
0.360746
0.359533
0.358393
0.357442
0.356456
0.355836
0.373783
0.371742
0.370386
0.369286
0.368234
0.367113
0.365914
0.364586
0.363235
0.361807
0.360417
0.359022
0.357671
0.356379
0.355114
0.353964
0.352791
0.351811
0.37382
0.37156
0.369634
0.367976
0.3665
0.365107
0.363774
0.362428
0.361105
0.359765
0.358446
0.35714
0.355857
0.354617
0.353393
0.352242
0.351091
0.350048
0.373832
0.371553
0.369449
0.367525
0.365776
0.364153
0.362644
0.361198
0.359815
0.358471
0.357166
0.355899
0.354662
0.353469
0.3523
0.351188
0.350089
0.349066
0.373831
0.37156
0.369418
0.367405
0.365529
0.363772
0.362132
0.360584
0.35912
0.357726
0.356392
0.355114
0.353884
0.352705
0.351563
0.350475
0.349413
0.348415
0.373829
0.37156
0.369413
0.367378
0.365458
0.363645
0.361937
0.360323
0.358797
0.357351
0.355977
0.354669
0.353421
0.352231
0.35109
0.350004
0.348955
0.347965
0.373828
0.371558
0.369409
0.367371
0.365439
0.363608
0.361875
0.360233
0.358676
0.3572
0.355798
0.354466
0.353197
0.351991
0.350839
0.349744
0.348692
0.347699
0.373827
0.371556
0.369405
0.367365
0.36543
0.363593
0.361851
0.360196
0.358625
0.357133
0.355714
0.354366
0.353082
0.351862
0.350698
0.349592
0.348534
0.347531
0.373827
0.371555
0.369401
0.36736
0.365422
0.363583
0.361837
0.360177
0.3586
0.3571
0.355673
0.354316
0.353023
0.351793
0.350621
0.349505
0.34844
0.347428
0.373826
0.371553
0.369398
0.367355
0.365416
0.363575
0.361826
0.360164
0.358584
0.357081
0.35565
0.354289
0.352992
0.351757
0.35058
0.349459
0.348389
0.34737
0.373826
0.371552
0.369396
0.367351
0.36541
0.363567
0.361817
0.360153
0.358572
0.357066
0.355634
0.35427
0.352972
0.351734
0.350555
0.349431
0.348359
0.347336
0.373825
0.371551
0.369394
0.367348
0.365406
0.363562
0.36181
0.360145
0.358562
0.357055
0.355622
0.354257
0.352956
0.351717
0.350536
0.34941
0.348336
0.347312
0.373825
0.371551
0.369393
0.367346
0.365403
0.363558
0.361806
0.36014
0.358555
0.357048
0.355613
0.354247
0.352945
0.351705
0.350522
0.349395
0.348319
0.347294
0.373825
0.37155
0.369393
0.367346
0.365402
0.363557
0.361804
0.360137
0.358552
0.357044
0.355609
0.354242
0.352939
0.351699
0.350515
0.349387
0.348311
0.347284
0.373825
0.371551
0.369393
0.367347
0.365404
0.36356
0.361806
0.360141
0.358555
0.357048
0.355612
0.354246
0.352943
0.351702
0.350519
0.349391
0.348314
0.347288
0.373826
0.371551
0.369395
0.367349
0.365407
0.363563
0.361812
0.360146
0.358563
0.357056
0.355623
0.354257
0.352957
0.351717
0.350536
0.349409
0.348335
0.347309
0.373826
0.371552
0.369397
0.367352
0.365412
0.363571
0.361823
0.360162
0.358584
0.357084
0.355657
0.3543
0.353008
0.351777
0.350604
0.349485
0.348419
0.3474
0.373826
0.371554
0.369399
0.36736
0.365429
0.363603
0.361875
0.360241
0.358691
0.357221
0.355824
0.354495
0.353228
0.35202
0.350867
0.349765
0.348712
0.347702
0.373828
0.371551
0.369412
0.367417
0.365556
0.36382
0.36219
0.360651
0.359189
0.357794
0.356457
0.355172
0.353937
0.352746
0.351602
0.350497
0.349437
0.348411
0.373823
0.371554
0.369604
0.367893
0.366339
0.364892
0.363495
0.362122
0.360762
0.359414
0.358081
0.35677
0.355489
0.354238
0.35303
0.351856
0.350735
0.349646
0.373788
0.371991
0.371113
0.370266
0.36936
0.368312
0.367048
0.36563
0.364121
0.362575
0.36103
0.359523
0.358073
0.356682
0.355382
0.354141
0.35301
0.351924
0.374355
0.375572
0.377775
0.377858
0.377288
0.375886
0.373835
0.371641
0.369505
0.367482
0.365664
0.364083
0.36271
0.361534
0.360608
0.359817
0.359287
0.3588
0.379125
0.394296
0.398249
0.396573
0.392539
0.387603
0.383645
0.380447
0.378266
0.376851
0.376494
0.376737
0.37741
0.378685
0.380435
0.382415
0.384819
0.387131
0.408394
0.42754
0.422415
0.411054
0.402225
0.39792
0.398621
0.400956
0.40606
0.413042
0.420984
0.42981
0.438815
0.448167
0.457282
0.466525
0.475296
0.484157
0.36605
0.353415
0.341988
0.33021
0.318982
0.308381
0.299411
0.29167
0.285403
0.280332
0.27668
0.273863
0.272308
0.271169
0.271204
0.271465
0.272181
0.273382
0.00608398
0.0212842
0.0342393
0.0463233
0.058301
0.0701647
0.0818454
0.0932028
0.104034
0.114147
0.123372
0.131619
0.13885
0.145169
0.15049
0.154877
0.159569
0.162976
0.166918
0.168715
0.168773
0.164723
0.158688
0.151866
0.155707
0.147589
0.16004
0.16866
0.178271
0.187909
0.197681
0.207603
0.217598
0.22773
0.237935
0.248281
0.258699
0.269264
0.27991
0.290718
0.30162
0.312698
0.323879
0.33523
0.346669
0.358285
0.370005
0.381911
0.393932
0.40615
0.418492
0.43104
0.443718
0.456608
0.469638
0.482887
0.496277
0.50989
0.523648
0.53763
0.551756
0.566106
0.580601
0.595318
0.610176
0.625251
0.64046
0.655876
0.67142
0.687158
0.703014
0.719048
0.735186
0.75148
0.767859
0.784366
0.800933
0.81759
0.834275
0.851003
0.867713
0.884402
0.901012
0.917525
0.933886
0.950071
0.96606
0.981875
0.997609
1.01329
1.02869
1.04384
1.0587
1.07322
1.08736
1.10107
1.1143
1.12699
1.13909
1.15053
1.16125
1.17121
1.18033
1.18856
1.19585
1.20213
1.20742
1.21178
1.21397
1.21521
1.21495
1.21368
1.21137
1.20782
1.20273
1.19635
1.18871
1.17983
1.16976
1.15831
1.14558
1.13191
1.1174
1.10214
1.08628
1.06988
1.05306
1.03589
1.0185
1.00095
0.983352
0.965758
0.94828
0.930958
0.913894
0.89718
0.88113
0.866826
0.855204
0.843945
0.832338
0.82084
0.809672
0.798886
0.788596
0.77875
0.769281
0.760119
0.751222
0.742519
0.734051
0.725839
0.717904
0.710221
0.702751
0.695483
0.688449
0.681693
0.675284
0.669195
0.663389
0.657796
0.652369
0.647104
0.642013
0.637098
0.632359
0.627788
0.623387
0.619154
0.615091
0.611192
0.607459
0.603876
0.600419
0.597019
0.593546
0.589713
0.584326
0.562417
0.0175237
0.04533
0.0632598
0.0774296
0.0902786
0.102726
0.115031
0.127191
0.139082
0.150552
0.161475
0.171808
0.181611
0.191065
0.200385
0.209805
0.219588
0.229666
0.23926
0.247932
0.256472
0.266467
0.28065
0.293859
0.305864
0.317906
0.333528
0.349688
0.36625
0.383083
0.400169
0.417496
0.435037
0.452796
0.47076
0.488944
0.507336
0.525956
0.544799
0.563892
0.583239
0.602877
0.622823
0.64306
0.66354
0.684289
0.705304
0.726607
0.748196
0.770095
0.792298
0.814829
0.837679
0.860874
0.884407
0.908298
0.932539
0.95715
0.982122
1.00747
1.03319
1.0593
1.08578
1.11265
1.1399
1.16755
1.19557
1.22399
1.25278
1.28196
1.31152
1.34146
1.37176
1.40243
1.43345
1.46483
1.49654
1.52857
1.56091
1.59355
1.62644
1.65957
1.6929
1.7264
1.76
1.79364
1.82724
1.86071
1.8939
1.9268
1.95961
1.99228
2.02474
2.05692
2.08874
2.12012
2.15094
2.1811
2.21049
2.23897
2.26641
2.29267
2.31763
2.34113
2.36307
2.38316
2.40123
2.41712
2.43065
2.44181
2.44977
2.45561
2.45803
2.45924
2.45701
2.45192
2.44406
2.43353
2.4204
2.40476
2.38674
2.36656
2.34442
2.32053
2.29507
2.26827
2.24031
2.21138
2.18167
2.15137
2.12066
2.08969
2.05861
2.02758
1.99671
1.96614
1.93603
1.90665
1.87811
1.85014
1.82276
1.7961
1.77024
1.74518
1.7209
1.69742
1.67473
1.65282
1.63167
1.61122
1.59148
1.57241
1.55402
1.53628
1.51918
1.50267
1.48673
1.47131
1.4564
1.44196
1.42794
1.41428
1.40096
1.38797
1.37528
1.3629
1.3508
1.33899
1.32746
1.31622
1.30528
1.29463
1.28429
1.27426
1.26453
1.25509
1.2458
1.23688
1.22613
1.19616
0.0320068
0.0698239
0.0916561
0.108467
0.123418
0.13763
0.15157
0.165413
0.179183
0.192848
0.206381
0.219816
0.23326
0.246872
0.260801
0.275141
0.28989
0.304899
0.32008
0.335533
0.351669
0.368972
0.38752
0.406254
0.425162
0.444635
0.465004
0.485938
0.507298
0.529012
0.551043
0.573375
0.59599
0.618884
0.642044
0.665472
0.689165
0.71313
0.73737
0.761895
0.78671
0.811829
0.837254
0.86299
0.88904
0.915415
0.942125
0.969183
0.996597
1.02438
1.05254
1.08108
1.11002
1.13936
1.16911
1.19927
1.22984
1.26084
1.29226
1.32411
1.35639
1.38909
1.42222
1.45577
1.48974
1.52413
1.55894
1.59415
1.62977
1.66578
1.70218
1.73897
1.77612
1.81364
1.85151
1.88971
1.92824
1.96708
2.00621
2.04562
2.08529
2.12519
2.16529
2.20558
2.24602
2.28658
2.32723
2.36792
2.40862
2.44926
2.48981
2.53023
2.57044
2.61036
2.64987
2.68889
2.72727
2.7649
2.80162
2.83728
2.87171
2.90472
2.93613
2.96576
2.99338
3.0188
3.04177
3.06212
3.07966
3.09423
3.10563
3.11372
3.11783
3.11981
3.11809
3.11281
3.10408
3.09202
3.07671
3.0583
3.03697
3.01293
2.98641
2.95768
2.92696
2.89452
2.86058
2.82541
2.78924
2.75229
2.71479
2.67692
2.63889
2.60086
2.56299
2.52544
2.48834
2.45186
2.41611
2.38112
2.34696
2.31366
2.28124
2.24971
2.21907
2.18933
2.16051
2.1326
2.1056
2.07947
2.05419
2.02972
2.00606
1.98315
1.96099
1.93951
1.91869
1.89845
1.87877
1.8596
1.8409
1.82262
1.80474
1.78723
1.77009
1.75329
1.73682
1.7207
1.70491
1.68947
1.6744
1.65969
1.64539
1.63151
1.61808
1.60512
1.59264
1.58087
1.56842
1.54429
0.0470984
0.0930147
0.118912
0.138448
0.15549
0.171462
0.187024
0.202495
0.21802
0.233662
0.249452
0.265437
0.281682
0.298273
0.315289
0.332779
0.350748
0.369186
0.38811
0.407599
0.427805
0.44886
0.470737
0.493201
0.516152
0.539606
0.56358
0.588019
0.612874
0.638109
0.663699
0.689627
0.715879
0.742447
0.769323
0.796506
0.823995
0.851793
0.879904
0.908334
0.937089
0.966177
0.995606
1.02538
1.05552
1.08602
1.1169
1.14817
1.17984
1.21193
1.24443
1.27737
1.31074
1.34455
1.37882
1.41354
1.44872
1.48436
1.52046
1.55702
1.59405
1.63153
1.66947
1.70786
1.7467
1.78598
1.82569
1.86582
1.90637
1.94733
1.98868
2.03041
2.07252
2.11499
2.15781
2.20095
2.24442
2.2882
2.33226
2.3766
2.4212
2.46604
2.5111
2.55637
2.60181
2.64741
2.69313
2.73894
2.78479
2.83062
2.87639
2.92203
2.96746
3.01259
3.05733
3.10155
3.14513
3.18792
3.22978
3.27051
3.30995
3.34788
3.3841
3.41839
3.45052
3.48023
3.50731
3.53151
3.55262
3.57047
3.58489
3.59567
3.60216
3.60531
3.60495
3.6005
3.59212
3.57991
3.56398
3.5445
3.52165
3.49566
3.46678
3.43528
3.40144
3.36555
3.32787
3.28871
3.24831
3.20696
3.16489
3.12233
3.07952
3.03663
2.99386
2.95137
2.90932
2.86784
2.82705
2.78706
2.74794
2.70971
2.6724
2.63605
2.60064
2.5662
2.53274
2.50025
2.46874
2.43817
2.40851
2.37973
2.3518
2.32468
2.29833
2.27271
2.24777
2.22346
2.19972
2.17651
2.15379
2.13153
2.10969
2.08825
2.06719
2.04651
2.02619
2.00625
1.98668
1.96751
1.94874
1.93042
1.91258
1.89526
1.87852
1.86246
1.84717
1.83295
1.81875
1.79771
0.061776
0.114772
0.144567
0.16681
0.185938
0.20363
0.220713
0.237624
0.254606
0.271795
0.28927
0.307093
0.325319
0.344012
0.363223
0.382995
0.403352
0.424313
0.445893
0.468135
0.491092
0.514801
0.539235
0.564318
0.589977
0.616164
0.642846
0.669992
0.69757
0.725559
0.753938
0.782692
0.811808
0.841279
0.871099
0.901268
0.931783
0.962649
0.993867
1.02544
1.05738
1.08969
1.12238
1.15546
1.18893
1.22281
1.25711
1.29184
1.32701
1.36264
1.39872
1.43528
1.47231
1.50982
1.54783
1.58633
1.62533
1.66483
1.70482
1.74532
1.78631
1.8278
1.86977
1.91222
1.95514
1.99853
2.04237
2.08665
2.13137
2.1765
2.22204
2.26797
2.31428
2.36095
2.40796
2.45531
2.50298
2.55095
2.59921
2.64774
2.69653
2.74556
2.79482
2.84428
2.89393
2.94374
2.99368
3.04372
3.09382
3.14392
3.19397
3.2439
3.29365
3.34312
3.39222
3.44084
3.48884
3.53608
3.58241
3.62763
3.67157
3.714
3.7547
3.79343
3.82994
3.86396
3.89523
3.9235
3.94851
3.97005
3.98791
4.0019
4.01163
4.01704
4.01872
4.01604
4.00903
3.99777
3.98237
3.96298
3.9398
3.91306
3.88302
3.84998
3.81423
3.77607
3.73582
3.6938
3.6503
3.60561
3.56001
3.51377
3.46714
3.42032
3.37352
3.32694
3.28072
3.23501
3.18996
3.14565
3.10219
3.05962
3.01798
2.9773
2.9376
2.8989
2.8612
2.82451
2.7888
2.75407
2.72027
2.68738
2.65536
2.62416
2.59375
2.56408
2.5351
2.50675
2.47898
2.45176
2.42505
2.39879
2.37298
2.34757
2.32257
2.29795
2.27372
2.24989
2.22647
2.20349
2.18097
2.15895
2.13748
2.11665
2.09653
2.07729
2.0591
2.04226
2.02598
2.00563
0.0754751
0.134446
0.167775
0.192547
0.213643
0.232949
0.251418
0.269586
0.287772
0.306173
0.324918
0.344096
0.363775
0.384012
0.404855
0.42634
0.448491
0.471326
0.494856
0.519099
0.544065
0.569755
0.596145
0.623196
0.650859
0.679091
0.707852
0.737112
0.766845
0.797031
0.82765
0.858691
0.890141
0.921995
0.954245
0.98689
1.01993
1.05336
1.08719
1.12142
1.15605
1.1911
1.22657
1.26248
1.29882
1.33561
1.37287
1.41059
1.4488
1.48751
1.52672
1.56644
1.60668
1.64745
1.68876
1.7306
1.77299
1.81592
1.85939
1.9034
1.94795
1.99303
2.03863
2.08474
2.13136
2.17847
2.22607
2.27413
2.32264
2.37159
2.42096
2.47073
2.52088
2.57141
2.62228
2.67348
2.725
2.77681
2.82891
2.88127
2.93388
2.98672
3.03978
3.09303
3.14646
3.20005
3.25376
3.30757
3.36144
3.41532
3.46917
3.52293
3.57653
3.62989
3.68293
3.73553
3.78759
3.83894
3.88945
3.93893
3.98718
4.03399
4.07912
4.12233
4.16332
4.20184
4.23759
4.27027
4.29962
4.32536
4.34725
4.36507
4.37858
4.38742
4.39183
4.39182
4.38711
4.37776
4.36385
4.34553
4.323
4.29647
4.26622
4.23256
4.19578
4.15623
4.11425
4.07016
4.0243
3.977
3.92855
3.87925
3.82938
3.77916
3.72883
3.67859
3.62861
3.57906
3.53007
3.48177
3.43424
3.38756
3.34179
3.29695
3.25309
3.21022
3.16834
3.12747
3.08758
3.04867
3.01069
2.97361
2.93741
2.90202
2.86742
2.83354
2.80035
2.7678
2.73583
2.7044
2.67347
2.64302
2.613
2.5834
2.55421
2.52543
2.49705
2.46909
2.44158
2.41454
2.38802
2.36206
2.33675
2.31218
2.28847
2.26582
2.24444
2.22468
2.20584
2.18461
0.0877362
0.151563
0.187948
0.214959
0.237832
0.258611
0.27834
0.297626
0.316847
0.336252
0.356008
0.376236
0.397019
0.418421
0.44049
0.463259
0.486749
0.510975
0.535941
0.561649
0.588095
0.615268
0.643146
0.671702
0.700898
0.730703
0.761081
0.792007
0.823454
0.855405
0.887841
0.920751
0.954123
0.98795
1.02223
1.05695
1.09211
1.12772
1.16378
1.20029
1.23725
1.27468
1.31257
1.35095
1.38981
1.42917
1.46905
1.50944
1.55037
1.59184
1.63386
1.67645
1.71961
1.76335
1.80768
1.8526
1.89811
1.94421
1.9909
2.03819
2.08605
2.1345
2.18351
2.23308
2.28319
2.33383
2.38499
2.43665
2.48878
2.54137
2.5944
2.64784
2.70168
2.75589
2.81046
2.86535
2.92054
2.97603
3.03178
3.08778
3.14401
3.20044
3.25707
3.31387
3.37083
3.42792
3.48511
3.5424
3.59973
3.65709
3.71441
3.77167
3.8288
3.88573
3.94239
3.99869
4.05451
4.10973
4.16419
4.21774
4.27016
4.32126
4.37079
4.41849
4.46408
4.50725
4.54771
4.58513
4.61919
4.6496
4.67605
4.69828
4.71605
4.72915
4.73724
4.74059
4.73903
4.73244
4.72091
4.70454
4.68352
4.65806
4.62844
4.59496
4.55794
4.51774
4.47471
4.42923
4.38164
4.33229
4.28153
4.22965
4.17697
4.12374
4.07022
4.01663
3.96316
3.90998
3.85726
3.80512
3.75367
3.70299
3.65315
3.60419
3.55617
3.5091
3.463
3.41786
3.37369
3.33046
3.28815
3.24672
3.20614
3.16636
3.12734
3.08904
3.0514
3.01438
2.97794
2.94203
2.90661
2.87167
2.83716
2.80307
2.7694
2.73615
2.70332
2.67094
2.63903
2.60765
2.57684
2.54667
2.51724
2.48866
2.46108
2.43474
2.40987
2.38682
2.36496
2.34179
0.0982765
0.165894
0.20481
0.233723
0.258143
0.280233
0.301097
0.321389
0.341528
0.361798
0.382398
0.40347
0.425114
0.447404
0.470391
0.494109
0.518581
0.543816
0.569819
0.596585
0.624105
0.652367
0.681351
0.711034
0.74139
0.772392
0.804014
0.836232
0.869025
0.902376
0.936267
0.970689
1.00563
1.04108
1.07704
1.1135
1.15047
1.18793
1.2259
1.26438
1.30336
1.34287
1.3829
1.42347
1.46459
1.50626
1.5485
1.59131
1.63472
1.67873
1.72336
1.7686
1.81448
1.861
1.90817
1.95598
2.00445
2.05358
2.10335
2.15377
2.20483
2.25653
2.30884
2.36176
2.41527
2.46935
2.52399
2.57916
2.63484
2.691
2.74762
2.80467
2.86213
2.91997
2.97815
3.03665
3.09545
3.15452
3.21383
3.27336
3.33308
3.39298
3.45303
3.51321
3.5735
3.63389
3.69436
3.75488
3.81542
3.87598
3.9365
3.99695
4.05729
4.11748
4.17744
4.23711
4.29638
4.35515
4.41328
4.47061
4.52698
4.58217
4.63595
4.68805
4.73819
4.78606
4.83132
4.87365
4.91268
4.94807
4.97949
5.00662
5.02918
5.04692
5.05957
5.06703
5.06933
5.06629
5.05793
5.04433
5.02563
5.00205
4.97383
4.9413
4.90477
4.86463
4.82124
4.77499
4.72625
4.67541
4.62281
4.5688
4.51371
4.45783
4.40142
4.34475
4.28801
4.23141
4.17512
4.11927
4.06399
4.00938
3.95551
3.90245
3.85024
3.79892
3.74851
3.69901
3.65042
3.60273
3.55591
3.50994
3.46478
3.42038
3.37671
3.33373
3.29139
3.24964
3.20844
3.16777
3.12757
3.08784
3.04854
3.00967
2.97121
2.93319
2.89561
2.8585
2.82192
2.7859
2.75052
2.71586
2.68203
2.64918
2.61747
2.58716
2.5585
2.53181
2.50652
2.48062
0.106968
0.177419
0.218346
0.248816
0.27454
0.297762
0.319624
0.340811
0.361762
0.382785
0.404097
0.425856
0.448175
0.471137
0.494799
0.5192
0.544363
0.570303
0.597022
0.624518
0.652783
0.681805
0.711569
0.742058
0.773251
0.805129
0.837672
0.870861
0.904678
0.939107
0.974136
1.00975
1.04595
1.08272
1.12006
1.15797
1.19644
1.23547
1.27508
1.31526
1.35601
1.39735
1.43928
1.48182
1.52496
1.56873
1.61314
1.65819
1.7039
1.75028
1.79735
1.84511
1.89357
1.94275
1.99264
2.04325
2.09459
2.14665
2.19942
2.25292
2.30711
2.36201
2.41758
2.47382
2.5307
2.5882
2.6463
2.70497
2.76419
2.82392
2.88413
2.94479
3.00586
3.06731
3.1291
3.1912
3.25357
3.31618
3.379
3.44199
3.50513
3.5684
3.63175
3.69518
3.75866
3.82218
3.88571
3.94924
4.01274
4.07621
4.13962
4.20294
4.26615
4.32921
4.39208
4.4547
4.517
4.57889
4.64026
4.70098
4.7609
4.81981
4.87751
4.93374
4.9882
5.04059
5.09056
5.13776
5.18181
5.22232
5.25893
5.29126
5.31899
5.34181
5.35946
5.37174
5.37855
5.37974
5.3753
5.36523
5.34963
5.3287
5.30267
5.27185
5.23657
5.1972
5.15412
5.10774
5.05845
5.00665
4.95273
4.89705
4.83996
4.7818
4.72285
4.66338
4.60363
4.54383
4.48414
4.42474
4.36576
4.3073
4.24947
4.19233
4.13594
4.08034
4.02557
3.97163
3.91852
3.86625
3.81478
3.7641
3.71417
3.66496
3.61644
3.56855
3.52127
3.47455
3.42836
3.38265
3.33742
3.29263
3.24827
3.20433
3.16082
3.11776
3.07516
3.03307
2.99154
2.95063
2.91043
2.87103
2.83257
2.7952
2.75912
2.72459
2.69187
2.66126
2.63223
2.60317
0.113798
0.186261
0.228721
0.260417
0.287197
0.31136
0.334071
0.356024
0.377673
0.399334
0.421235
0.443542
0.466378
0.489833
0.513969
0.538831
0.564449
0.590839
0.618011
0.645965
0.674697
0.704199
0.734462
0.765474
0.797221
0.829691
0.862869
0.896743
0.931297
0.96652
1.0024
1.03893
1.07611
1.11392
1.15237
1.19146
1.23118
1.27154
1.31254
1.35419
1.39649
1.43945
1.48308
1.52739
1.57238
1.61809
1.66451
1.71165
1.75954
1.80818
1.85758
1.90776
1.95873
2.01048
2.06304
2.1164
2.17056
2.22553
2.28129
2.33784
2.39517
2.45326
2.5121
2.57167
2.63195
2.69289
2.75449
2.8167
2.87949
2.94282
3.00665
3.07094
3.13565
3.20073
3.26615
3.33185
3.39779
3.46393
3.53023
3.59665
3.66315
3.7297
3.79626
3.86281
3.92932
3.99578
4.06216
4.12845
4.19464
4.26071
4.32666
4.39245
4.4581
4.52357
4.58884
4.65389
4.71867
4.78311
4.84714
4.91066
4.97353
5.03561
5.09668
5.15651
5.21483
5.27134
5.32568
5.37748
5.42636
5.4719
5.51369
5.55132
5.5844
5.61259
5.63557
5.65309
5.66497
5.67103
5.67118
5.66538
5.65365
5.63614
5.61308
5.58474
5.55146
5.51359
5.47153
5.42569
5.37648
5.32432
5.26963
5.21279
5.15419
5.09416
5.03305
4.97114
4.9087
4.84596
4.78313
4.72038
4.65787
4.59572
4.53403
4.4729
4.41239
4.35254
4.2934
4.235
4.17733
4.1204
4.06419
4.00869
3.95388
3.89972
3.84618
3.79322
3.74082
3.68894
3.63755
3.58662
3.53613
3.48607
3.43643
3.38721
3.33843
3.2901
3.24226
3.19497
3.14828
3.10227
3.05705
3.01272
2.96944
2.92736
2.88672
2.84777
2.81077
2.77601
2.74299
2.71046
0.11884
0.192627
0.236195
0.268811
0.296407
0.321315
0.344707
0.367283
0.389498
0.411671
0.434031
0.456751
0.479958
0.503746
0.528183
0.55332
0.579191
0.60582
0.633223
0.661405
0.690367
0.720109
0.750627
0.781915
0.813967
0.846777
0.880338
0.914642
0.949681
0.985446
1.02193
1.05913
1.09704
1.13565
1.17498
1.21502
1.25577
1.29723
1.33942
1.38235
1.42601
1.47041
1.51558
1.56152
1.60823
1.65575
1.70407
1.75321
1.80319
1.85402
1.90571
1.95826
2.0117
2.06602
2.12123
2.17733
2.23433
2.29222
2.35099
2.41063
2.47113
2.53248
2.59464
2.65759
2.72131
2.78576
2.85091
2.91671
2.98313
3.05011
3.11762
3.18559
3.25398
3.32273
3.39179
3.4611
3.53061
3.60027
3.67002
3.73981
3.80959
3.87933
3.94897
4.01849
4.08786
4.15705
4.22603
4.2948
4.36334
4.43165
4.4997
4.56751
4.63508
4.7024
4.76947
4.83629
4.90284
4.96911
5.03503
5.10056
5.16561
5.23004
5.2937
5.35638
5.41783
5.47777
5.53587
5.59175
5.645
5.69521
5.74192
5.78469
5.8231
5.85673
5.88524
5.90831
5.92566
5.93709
5.94245
5.94165
5.93453
5.9212
5.90188
5.87681
5.84631
5.81072
5.77043
5.72585
5.67742
5.62556
5.57071
5.51329
5.45371
5.39234
5.32952
5.2656
5.20085
5.13553
5.06986
5.00405
4.93827
4.87264
4.80729
4.74232
4.67781
4.61383
4.5504
4.48758
4.42538
4.3638
4.30284
4.24249
4.18274
4.12355
4.06491
4.00679
3.94916
3.89199
3.83527
3.77898
3.72309
3.66761
3.61254
3.55789
3.50367
3.44993
3.3967
3.34406
3.29206
3.24082
3.19043
3.14103
3.09278
3.04587
3.00053
2.95701
2.91558
2.87652
2.83936
2.80315
0.122192
0.196753
0.241065
0.274327
0.302511
0.327967
0.351866
0.374907
0.397542
0.420087
0.442772
0.465767
0.489201
0.513174
0.537757
0.563005
0.58896
0.61565
0.643096
0.671313
0.700308
0.730089
0.760654
0.792007
0.824149
0.857083
0.890809
0.925327
0.960636
0.996732
1.03361
1.07127
1.10971
1.14893
1.18893
1.22973
1.27133
1.31374
1.35696
1.401
1.44588
1.49161
1.53821
1.58567
1.63403
1.68328
1.73345
1.78456
1.8366
1.88961
1.94357
1.99852
2.05445
2.11136
2.16927
2.22818
2.28807
2.34895
2.4108
2.47361
2.53736
2.60202
2.66758
2.734
2.80125
2.86927
2.93804
3.00751
3.07761
3.1483
3.21952
3.29121
3.3633
3.43573
3.50844
3.58135
3.65439
3.72751
3.80064
3.87371
3.94666
4.01944
4.09201
4.1643
4.23629
4.30794
4.37921
4.45011
4.5206
4.59068
4.66035
4.72961
4.79849
4.86698
4.93512
5.00293
5.07042
5.1376
5.20449
5.27105
5.33725
5.40301
5.46823
5.53274
5.59634
5.65877
5.71972
5.77885
5.83575
5.88999
5.9411
5.98863
6.03211
6.07108
6.10513
6.13389
6.157
6.17419
6.18524
6.19003
6.18834
6.17993
6.16512
6.14413
6.11722
6.08473
6.04701
6.00449
5.95759
5.90677
5.85247
5.79514
5.7352
5.67306
5.6091
5.54367
5.47708
5.40962
5.34153
5.27303
5.2043
5.1355
5.06677
4.99822
4.92993
4.86199
4.79444
4.72734
4.66072
4.59458
4.52893
4.46378
4.39912
4.33492
4.27118
4.20788
4.14499
4.0825
4.0204
3.95868
3.89734
3.83637
3.77579
3.71563
3.6559
3.59666
3.53796
3.47988
3.42251
3.36594
3.31031
3.25577
3.20249
3.15067
3.10055
3.05238
3.00644
2.96299
2.9216
2.88162
0.124122
0.198921
0.243637
0.277294
0.305854
0.331666
0.355898
0.379242
0.402143
0.424915
0.447783
0.470917
0.494445
0.518464
0.543051
0.568264
0.594149
0.620743
0.648074
0.676168
0.705042
0.734716
0.765169
0.796419
0.828482
0.86137
0.895094
0.929661
0.965075
1.00134
1.03846
1.07643
1.11526
1.15494
1.19547
1.23689
1.27923
1.32247
1.36662
1.4117
1.45773
1.50472
1.55269
1.60166
1.65163
1.70264
1.75468
1.80777
1.86193
1.91717
1.97349
2.03091
2.08942
2.14903
2.20975
2.27156
2.33446
2.39844
2.46348
2.52956
2.59667
2.66477
2.73383
2.8038
2.87465
2.94633
3.01878
3.09195
3.16578
3.2402
3.31514
3.39053
3.4663
3.54236
3.61865
3.69507
3.77155
3.848
3.92435
4.00052
4.07645
4.15205
4.22726
4.30203
4.37631
4.45005
4.52321
4.59578
4.66772
4.73903
4.8097
4.87976
4.94921
5.01809
5.08644
5.1543
5.22174
5.2888
5.35553
5.42196
5.48812
5.55398
5.6195
5.68458
5.74908
5.81279
5.87545
5.93674
5.99629
6.05367
6.10842
6.16007
6.20812
6.25208
6.2915
6.32591
6.3549
6.3781
6.39523
6.40622
6.41041
6.40791
6.39838
6.38229
6.35983
6.3313
6.29704
6.25743
6.21292
6.16394
6.11098
6.05448
5.99491
5.93268
5.86822
5.80189
5.73404
5.66497
5.59496
5.52423
5.453
5.38143
5.30968
5.23788
5.16612
5.09451
5.0231
4.95195
4.88111
4.81059
4.74042
4.67061
4.60116
4.53205
4.4633
4.39488
4.32679
4.25903
4.19159
4.12447
4.05769
3.99124
3.92517
3.85949
3.79425
3.72951
3.66534
3.60182
3.53905
3.47716
3.41629
3.3566
3.29828
3.24154
3.18663
3.13381
3.08334
3.03548
2.98986
2.9461
0.124295
0.199112
0.24406
0.277952
0.306727
0.332733
0.35714
0.380633
0.403654
0.426509
0.44942
0.472552
0.496035
0.519967
0.544427
0.569477
0.595167
0.621541
0.648634
0.67648
0.70511
0.73456
0.764795
0.795847
0.827738
0.860489
0.894117
0.928636
0.964057
1.00039
1.03765
1.07585
1.11498
1.15507
1.19611
1.23817
1.28124
1.32531
1.37037
1.41648
1.46368
1.51197
1.56138
1.61192
1.66361
1.71646
1.77049
1.82571
1.88214
1.93977
1.99861
2.05866
2.11994
2.18242
2.24611
2.311
2.37708
2.44432
2.5127
2.5822
2.65279
2.72443
2.79708
2.87068
2.94519
3.02055
3.0967
3.17357
3.25108
3.32917
3.40775
3.48674
3.56604
3.64558
3.72526
3.80498
3.88464
3.96417
4.04345
4.12241
4.20094
4.27898
4.35644
4.43324
4.50933
4.58464
4.65914
4.73277
4.80552
4.87736
4.9483
5.01834
5.08751
5.15585
5.22341
5.29027
5.35653
5.42226
5.48758
5.55257
5.6173
5.68184
5.74622
5.81043
5.87438
5.93795
6.00094
6.06307
6.12403
6.18342
6.24079
6.29567
6.34756
6.39594
6.44033
6.48018
6.51501
6.54434
6.5678
6.58511
6.59608
6.60003
6.59697
6.58659
6.56948
6.54584
6.51598
6.48024
6.43904
6.39283
6.34208
6.28727
6.22887
6.16735
6.10312
6.03661
5.96816
5.89812
5.82678
5.75439
5.68118
5.60734
5.53304
5.45843
5.38361
5.3087
5.23377
5.1589
5.08414
5.00952
4.93508
4.86084
4.7868
4.71299
4.63939
4.56603
4.49289
4.41999
4.34733
4.27493
4.2028
4.13097
4.05949
3.98838
3.91771
3.84755
3.77797
3.70908
3.641
3.57386
3.50781
3.44304
3.37975
3.31815
3.2585
3.20107
3.14612
3.09392
3.04413
2.99666
0.123834
0.198343
0.243174
0.277022
0.305777
0.331771
0.356162
0.379627
0.402602
0.425391
0.448212
0.47123
0.49457
0.518332
0.542595
0.567422
0.592868
0.618976
0.645788
0.673339
0.701657
0.730757
0.760671
0.791435
0.823079
0.855633
0.889124
0.923574
0.959006
0.99544
1.03289
1.07139
1.11094
1.15156
1.19324
1.23601
1.27989
1.3249
1.371
1.4183
1.46683
1.51662
1.56767
1.62001
1.67365
1.72861
1.78491
1.84254
1.90151
1.96182
2.02347
2.08646
2.15077
2.21639
2.28331
2.35151
2.42097
2.49166
2.56356
2.63661
2.71079
2.78604
2.86232
2.93955
3.0177
3.09667
3.17641
3.25683
3.33785
3.41938
3.50134
3.58363
3.66614
3.74878
3.83145
3.91404
3.99643
4.07853
4.16022
4.2414
4.32197
4.40182
4.48087
4.55904
4.63623
4.71238
4.78743
4.86132
4.93403
5.00552
5.07578
5.14483
5.21269
5.27941
5.34505
5.40971
5.47351
5.5366
5.59913
5.66123
5.72306
5.78472
5.8464
5.90815
5.96997
6.03183
6.09359
6.15508
6.21601
6.27606
6.33482
6.39183
6.44661
6.49866
6.54742
6.59234
6.63282
6.6683
6.69826
6.7223
6.74012
6.75152
6.75558
6.75227
6.7414
6.72365
6.69921
6.66837
6.6315
6.58906
6.54151
6.48934
6.43304
6.3731
6.30996
6.24406
6.17579
6.10551
6.03353
5.96015
5.88559
5.81008
5.73379
5.65689
5.57951
5.50178
5.42378
5.3456
5.26731
5.18896
5.11059
5.03224
4.95393
4.87569
4.79752
4.71946
4.64151
4.56369
4.48602
4.40853
4.33125
4.25423
4.1775
4.10113
4.02519
3.94975
3.87493
3.80082
3.72756
3.65531
3.58422
3.51451
3.44637
3.38004
3.31579
3.25387
3.19456
3.13814
3.0843
3.03326
0.122439
0.196241
0.240675
0.274302
0.302878
0.328702
0.352921
0.376206
0.39899
0.421571
0.444164
0.466932
0.490001
0.51347
0.53742
0.561917
0.587018
0.612775
0.639236
0.666444
0.694441
0.723271
0.752969
0.783572
0.815116
0.847642
0.881183
0.91577
0.951433
0.988202
1.02611
1.06518
1.10545
1.14696
1.18967
1.23361
1.2788
1.32526
1.37292
1.42191
1.47229
1.52408
1.57729
1.63196
1.68809
1.74571
1.80484
1.86545
1.92753
1.99107
2.05606
2.12247
2.19028
2.25948
2.33002
2.40189
2.47504
2.54944
2.62503
2.70178
2.77963
2.85852
2.93838
3.01916
3.10077
3.18313
3.26617
3.3498
3.43392
3.51844
3.60327
3.68829
3.7734
3.85849
3.94344
4.02814
4.11247
4.19631
4.27955
4.36205
4.44372
4.52443
4.60409
4.68258
4.75983
4.83573
4.91023
4.98325
5.05475
5.12469
5.19304
5.25983
5.32507
5.38883
5.45117
5.51219
5.57204
5.63097
5.68916
5.74679
5.80406
5.86101
5.91784
5.97491
6.03239
6.09036
6.14881
6.20766
6.26674
6.32581
6.38452
6.44248
6.49925
6.55431
6.6071
6.657
6.70333
6.74542
6.78262
6.81435
6.83997
6.859
6.87138
6.87594
6.87303
6.86225
6.84441
6.81964
6.78827
6.75072
6.70747
6.659
6.60583
6.54843
6.48731
6.42291
6.35565
6.28593
6.21408
6.1404
6.06517
5.98861
5.91093
5.8323
5.75289
5.67282
5.59221
5.51116
5.42975
5.34804
5.2661
5.18398
5.10171
5.01933
4.93687
4.85436
4.77184
4.68933
4.60688
4.52451
4.44229
4.36025
4.27847
4.19702
4.11598
4.03545
3.95555
3.8764
3.79813
3.72094
3.64499
3.5705
3.49769
3.4268
3.35811
3.29187
3.22833
3.16778
3.10999
3.05551
0.119776
0.192578
0.236477
0.269711
0.297947
0.323458
0.347385
0.370392
0.392906
0.415223
0.437555
0.460065
0.482882
0.506108
0.529827
0.554112
0.579027
0.60463
0.630977
0.658121
0.686116
0.715008
0.744845
0.775675
0.807548
0.840521
0.874652
0.909951
0.946448
0.98419
1.02322
1.06356
1.10524
1.14825
1.19257
1.23827
1.2854
1.334
1.38412
1.43578
1.48899
1.54378
1.60017
1.65816
1.71775
1.77894
1.84172
1.90605
1.97192
2.0393
2.10814
2.17841
2.25008
2.32311
2.39744
2.47303
2.54984
2.62781
2.70687
2.78698
2.86806
2.95005
3.03288
3.11647
3.20074
3.2856
3.37098
3.45677
3.54288
3.62922
3.71568
3.80215
3.88852
3.97468
4.06051
4.14588
4.23069
4.31479
4.39806
4.48038
4.56162
4.64166
4.72039
4.7977
4.87347
4.9476
5.02002
5.09067
5.15946
5.22636
5.29132
5.35435
5.41553
5.47487
5.53247
5.5884
5.64264
5.69552
5.74737
5.79848
5.84913
5.89959
5.95052
6.00202
6.05427
6.10741
6.16154
6.21668
6.27277
6.32964
6.38706
6.44471
6.5022
6.55905
6.61471
6.6685
6.7197
6.76757
6.81135
6.85039
6.88412
6.9118
6.93288
6.94662
6.95314
6.95189
6.94179
6.92424
6.89954
6.86807
6.83029
6.78669
6.73778
6.68406
6.62603
6.56418