/*--------------------------------*- C++ -*----------------------------------*\
  =========                 |
  \\      /  F ield         | OpenFOAM: The Open Source CFD Toolbox
   \\    /   O peration     | Website:  https://openfoam.org
    \\  /    A nd           | Version:  8
     \\/     M anipulation  |
\*---------------------------------------------------------------------------*/
FoamFile
{
    version     2.0;
    format      ascii;
    class       volScalarField;
    location    "140";
    object      nut;
}
// * * * * * * * * * * * * * * * * * * * * * * * * * * * * * * * * * * * * * //

dimensions      [0 2 -1 0 0 0 0];

internalField   nonuniform List<scalar> 
12225
(
4.14934e-05
3.93407e-05
3.7482e-05
3.54345e-05
3.37805e-05
3.24256e-05
3.1502e-05
3.09135e-05
3.09181e-05
3.10935e-05
3.15737e-05
3.20955e-05
3.31589e-05
3.38474e-05
3.50731e-05
3.58372e-05
3.69338e-05
3.86964e-05
0.0003323
0.000215092
0.000179322
0.000157604
0.000146269
0.00013813
0.000132693
0.00013174
0.000129406
0.000130176
0.000128937
0.00012956
0.000128552
0.000128679
0.000127997
0.000127516
0.000127501
0.000126119
0.00066888
0.000450401
0.000355922
0.000309649
0.000275441
0.000250919
0.000231836
0.00021711
0.000202673
0.000192098
0.000182581
0.000175155
0.000169328
0.000163574
0.000160255
0.000155373
0.000153751
0.000149489
0.000801597
0.000691448
0.000572849
0.000499806
0.000449604
0.000411746
0.000380959
0.000355788
0.000334136
0.000314548
0.000298459
0.0002814
0.000270334
0.000255846
0.000248118
0.00023585
0.000230277
0.000219815
0.000839605
0.000810061
0.000740947
0.000676167
0.000624143
0.000581167
0.000546034
0.000514361
0.000489632
0.000464236
0.000445912
0.000423873
0.000409873
0.000390595
0.000379699
0.000362734
0.000354456
0.000338673
0.000850344
0.000843246
0.000819579
0.00078642
0.000750934
0.000715746
0.000685863
0.000656004
0.000632604
0.000607395
0.000588988
0.000567119
0.000552184
0.000532925
0.000520583
0.00050337
0.000493313
0.000476737
0.000851583
0.000851009
0.000843301
0.00083344
0.000817187
0.000796887
0.000777917
0.000756671
0.000738913
0.000719081
0.000703501
0.000685538
0.000672032
0.000655787
0.000644145
0.000629226
0.000619557
0.000604558
0.000851586
0.000851809
0.000850046
0.000847445
0.000841416
0.000833755
0.000824813
0.000813414
0.00080281
0.000790441
0.000779687
0.000767488
0.000757361
0.000745686
0.000736432
0.000725293
0.000717279
0.000705585
0.000851676
0.000851526
0.00085102
0.000850337
0.000848878
0.000846169
0.000843028
0.000838296
0.000833398
0.000827348
0.000821197
0.000814741
0.000808392
0.000801447
0.000795222
0.000788219
0.000782399
0.000774749
0.000851756
0.000851384
0.000851045
0.000850631
0.000850248
0.000849366
0.000848405
0.000846777
0.000844952
0.000842524
0.000839914
0.000836784
0.000833776
0.000830119
0.000826938
0.00082286
0.000819861
0.000815194
0.000851785
0.000851358
0.000851012
0.000850613
0.000850329
0.000849904
0.000849525
0.000848927
0.000848301
0.00084739
0.000846461
0.000845169
0.000843981
0.000842336
0.000840979
0.000839005
0.000837611
0.000835322
0.000851789
0.000851359
0.000850996
0.000850605
0.000850292
0.000849938
0.000849645
0.000849279
0.000848953
0.000848502
0.000848096
0.000847503
0.000846992
0.000846236
0.000845633
0.000844709
0.000844045
0.00084296
0.000851786
0.000851363
0.000850986
0.000850604
0.000850269
0.000849926
0.000849629
0.000849312
0.000849041
0.000848727
0.00084846
0.000848123
0.000847841
0.000847462
0.000847152
0.000846721
0.000846382
0.000845896
0.000851783
0.000851364
0.000850978
0.000850602
0.000850256
0.000849916
0.000849607
0.000849299
0.000849022
0.000848739
0.000848487
0.000848223
0.000847987
0.000847733
0.000847506
0.000847256
0.000847032
0.000846783
0.000851781
0.000851364
0.000850973
0.000850598
0.000850246
0.000849908
0.000849591
0.000849286
0.000848999
0.000848723
0.000848463
0.000848211
0.000847974
0.000847744
0.000847527
0.000847316
0.000847116
0.000846921
0.00085178
0.000851363
0.000850969
0.000850594
0.000850239
0.000849901
0.00084958
0.000849274
0.000848984
0.000848707
0.000848443
0.000848191
0.000847951
0.000847722
0.000847503
0.000847294
0.000847095
0.000846904
0.000851779
0.000851362
0.000850967
0.000850591
0.000850234
0.000849895
0.000849572
0.000849265
0.000848973
0.000848694
0.000848429
0.000848175
0.000847934
0.000847703
0.000847482
0.000847271
0.00084707
0.000846878
0.000851779
0.000851362
0.000850965
0.000850588
0.000850231
0.00084989
0.000849567
0.000849259
0.000848966
0.000848686
0.000848419
0.000848164
0.000847921
0.000847689
0.000847467
0.000847255
0.000847052
0.000846858
0.000851779
0.000851362
0.000850965
0.000850588
0.00085023
0.000849889
0.000849565
0.000849257
0.000848963
0.000848682
0.000848415
0.000848159
0.000847915
0.000847682
0.000847459
0.000847246
0.000847042
0.000846847
0.000851779
0.000851362
0.000850966
0.000850589
0.000850232
0.000849892
0.000849568
0.00084926
0.000848966
0.000848686
0.000848418
0.000848163
0.000847918
0.000847685
0.000847462
0.000847248
0.000847043
0.000846847
0.000851779
0.000851363
0.000850967
0.000850592
0.000850235
0.000849897
0.000849574
0.000849267
0.000848973
0.000848695
0.000848425
0.00084817
0.000847921
0.000847685
0.000847453
0.000847233
0.000847014
0.000846808
0.000851778
0.000851366
0.000850968
0.000850599
0.00085024
0.000849908
0.00084958
0.000849275
0.000848965
0.000848672
0.000848366
0.000848073
0.000847758
0.000847457
0.000847125
0.000846813
0.000846459
0.000846138
0.000851773
0.000851376
0.000850971
0.000850615
0.000850241
0.00084989
0.000849479
0.000849054
0.00084853
0.000847979
0.000847302
0.000846606
0.000845768
0.000844941
0.000843957
0.000843032
0.00084192
0.000840942
0.000851767
0.000851415
0.000850964
0.000850548
0.000849861
0.000848967
0.000847611
0.000845977
0.000843906
0.000841638
0.000838957
0.000836217
0.00083312
0.000830117
0.000826767
0.000823684
0.000820188
0.000817182
0.000851859
0.00085138
0.000850195
0.000848243
0.00084447
0.000839355
0.000832767
0.00082566
0.000817965
0.000810015
0.000801623
0.000793634
0.000785338
0.000777714
0.000769751
0.000762708
0.000755131
0.000748801
0.000852108
0.000847667
0.000839902
0.000827147
0.000808709
0.000789648
0.000769979
0.000751418
0.000733311
0.000716903
0.000700943
0.00068679
0.000672841
0.000660682
0.00064839
0.000637952
0.000626964
0.000618029
0.000843241
0.000822507
0.000775185
0.00072646
0.000684899
0.000649856
0.000618467
0.000592027
0.00056839
0.000548322
0.000529699
0.000514003
0.000498764
0.000486029
0.000473214
0.00046272
0.000451633
0.000442814
0.000795686
0.000668242
0.000570628
0.000509908
0.000465609
0.000431188
0.000404152
0.000382488
0.000364206
0.000349079
0.000335949
0.000325071
0.000314516
0.000306245
0.000297968
0.000291376
0.000284288
0.000278938
0.000501314
0.000348357
0.000292675
0.000259182
0.000236325
0.000221178
0.000211623
0.000203857
0.000198566
0.000195077
0.000192222
0.000190369
0.000188583
0.000187439
0.000186166
0.000185471
0.000184553
0.000184141
7.27385e-05
7.02255e-05
6.79542e-05
6.56137e-05
6.33828e-05
6.12762e-05
5.94943e-05
5.7955e-05
5.67107e-05
5.57029e-05
5.49772e-05
5.44174e-05
5.41088e-05
5.38803e-05
5.38958e-05
5.39312e-05
5.40899e-05
5.43223e-05
1.88239e-06
3.01837e-05
4.86324e-05
6.58334e-05
8.28925e-05
9.98005e-05
0.000116496
0.000132829
0.000148598
0.000163651
0.000177928
0.000191516
0.000204905
0.000218616
0.000231245
0.000243521
0.000259263
0.000274083
0.000282671
0.000283073
0.000283052
0.000280041
0.00028648
0.000244524
0.000241594
4.5358e-05
4.93871e-05
5.02334e-05
5.17339e-05
5.30646e-05
5.44056e-05
5.57226e-05
5.70195e-05
5.83014e-05
5.95645e-05
6.08157e-05
6.20498e-05
6.32747e-05
6.44851e-05
6.56889e-05
6.68806e-05
6.80678e-05
6.92434e-05
7.04124e-05
7.15698e-05
7.27238e-05
7.38682e-05
7.50104e-05
7.61445e-05
7.72775e-05
7.84035e-05
7.95291e-05
8.06486e-05
8.17682e-05
8.28826e-05
8.39975e-05
8.51074e-05
8.62179e-05
8.73237e-05
8.84302e-05
8.95319e-05
9.0634e-05
9.17315e-05
9.28293e-05
9.3922e-05
9.50146e-05
9.61018e-05
9.71883e-05
9.82691e-05
9.93484e-05
0.000100422
0.000101493
0.000102557
0.000103618
0.000104671
0.00010572
0.000106761
0.000107796
0.000108822
0.00010984
0.000110847
0.000111844
0.000112828
0.000113798
0.000114751
0.000115683
0.000116591
0.00011747
0.000118317
0.000119188
0.000120027
0.000120849
0.00012165
0.000122429
0.000123185
0.000123915
0.000124618
0.000125292
0.000125933
0.00012654
0.00012711
0.000127641
0.000128131
0.000128582
0.000128988
0.000129345
0.00012965
0.000129902
0.000129984
0.00013019
0.000130137
0.000130066
0.000129909
0.000129769
0.000129495
0.000129152
0.000128728
0.000128228
0.000127655
0.000127027
0.000126268
0.000125448
0.00012456
0.00012361
0.000122606
0.000121549
0.000120447
0.000119304
0.000118127
0.000116919
0.000115689
0.000114439
0.000113178
0.00011191
0.000110643
0.000109391
0.000108206
0.00010729
0.000106625
0.000105657
0.000104532
0.000103503
0.000102593
0.000101744
0.000100941
0.000100174
9.94303e-05
9.86949e-05
9.79451e-05
9.71463e-05
9.63207e-05
9.54893e-05
9.46672e-05
9.38609e-05
9.30807e-05
9.23197e-05
9.15808e-05
9.08783e-05
9.02412e-05
8.96543e-05
8.9086e-05
8.85137e-05
8.79398e-05
8.73738e-05
8.6823e-05
8.62846e-05
8.57607e-05
8.52475e-05
8.47477e-05
8.42573e-05
8.37809e-05
8.3313e-05
8.28574e-05
8.24098e-05
8.19722e-05
8.15364e-05
8.10956e-05
8.06377e-05
8.00556e-05
7.83159e-05
5.44346e-06
6.22626e-05
0.00012502
0.000170434
0.000202717
0.00022777
0.000248717
0.000267169
0.000283857
0.00029909
0.000313063
0.000326076
0.000338403
0.000349944
0.000360292
0.000369613
0.000378262
0.00038561
0.000389098
0.000387883
0.000382163
0.000372215
0.000364459
0.000349226
0.000328676
0.000298742
0.000306906
0.000315747
0.000325059
0.000334417
0.000343856
0.000353294
0.000362687
0.000371965
0.000381198
0.000390395
0.000399554
0.000408666
0.000417739
0.000426775
0.000435799
0.000444829
0.000453914
0.000463006
0.000472063
0.000481088
0.000490096
0.000499089
0.000508085
0.000517084
0.000526103
0.000535143
0.000544218
0.000553328
0.000562489
0.000571701
0.000580977
0.000590316
0.000599732
0.000609223
0.000618801
0.000628464
0.000638225
0.000648083
0.000658051
0.000668127
0.000678324
0.000688642
0.000699092
0.000709676
0.000720406
0.000731284
0.000742323
0.000753527
0.000764908
0.000776475
0.000788242
0.000800215
0.000812409
0.000824828
0.000837483
0.000850373
0.000863496
0.000876831
0.000890341
0.000903949
0.000917518
0.000930842
0.000943607
0.000955771
0.000968081
0.000980464
0.000992917
0.00100542
0.00101797
0.00103051
0.00104304
0.00105551
0.00106789
0.00108013
0.00109219
0.00110402
0.00111557
0.00112681
0.00113771
0.0011481
0.00115788
0.00116707
0.00117597
0.00118453
0.00119153
0.00119732
0.00120168
0.00120698
0.00121072
0.00121346
0.00121522
0.00121604
0.00121599
0.00121523
0.00121353
0.00121098
0.00120759
0.00120343
0.00119854
0.001193
0.00118686
0.00118017
0.00117299
0.00116539
0.00115741
0.00114912
0.00114055
0.00113176
0.00112278
0.00111365
0.00110436
0.00109471
0.00108383
0.00107161
0.00105943
0.00104804
0.00103741
0.00102717
0.00101704
0.001007
0.000997139
0.000987489
0.000978007
0.000968608
0.000959315
0.000950184
0.000941269
0.000932643
0.000924432
0.000916603
0.000909078
0.0009018
0.000894763
0.000887901
0.000881069
0.000874203
0.000867366
0.000860597
0.000853906
0.000847267
0.000840678
0.000834121
0.000827604
0.000821111
0.000814658
0.000808223
0.000801824
0.000795441
0.000789069
0.000782649
0.000776082
0.000769254
0.000760196
0.000727962
9.94713e-06
9.17903e-05
0.000180728
0.000250141
0.000302061
0.000340925
0.000370861
0.00039485
0.000414844
0.00043203
0.000447114
0.000460517
0.000472717
0.000484432
0.000496347
0.000508732
0.000521341
0.000533626
0.000545018
0.000555212
0.000564367
0.000573017
0.000581803
0.000588588
0.000594774
0.000602954
0.00062004
0.000639066
0.000658611
0.000678281
0.000697976
0.000717632
0.000737207
0.000756672
0.000775941
0.000795067
0.000814056
0.000832906
0.000851625
0.000870221
0.000888709
0.000907104
0.000925421
0.000943662
0.000961837
0.00097996
0.000998051
0.00101613
0.0010342
0.0010523
0.00107043
0.00108862
0.00110686
0.00112519
0.0011436
0.00116211
0.00118074
0.00119949
0.00121838
0.0012374
0.00125657
0.00127589
0.00129537
0.00131503
0.00133486
0.00135487
0.00137508
0.00139548
0.00141609
0.0014369
0.00145794
0.00147921
0.00150071
0.00152246
0.00154447
0.00156674
0.00158928
0.00161212
0.00163524
0.00165866
0.00168236
0.00170635
0.00173059
0.00175506
0.0017797
0.00180445
0.00182919
0.00185385
0.00187829
0.00190265
0.00192718
0.00195184
0.00197663
0.0020015
0.00202641
0.00205131
0.00207614
0.00210083
0.00212531
0.0021495
0.00217331
0.00219663
0.00221938
0.00224144
0.00226272
0.00228307
0.00230239
0.00232064
0.00233787
0.00235387
0.0023686
0.00238006
0.00238931
0.00239904
0.00240668
0.00241235
0.00241612
0.00241804
0.0024182
0.00241667
0.00241339
0.0024084
0.00240178
0.00239362
0.00238403
0.00237312
0.00236099
0.00234778
0.0023336
0.00231855
0.00230274
0.0022863
0.0022693
0.00225186
0.00223405
0.00221593
0.00219746
0.00217842
0.00215824
0.00213704
0.00211585
0.00209527
0.00207535
0.0020559
0.00203668
0.00201768
0.00199899
0.00198065
0.00196266
0.00194497
0.00192757
0.0019105
0.00189381
0.00187755
0.00186183
0.00184664
0.00183188
0.00181749
0.00180341
0.00178958
0.00177587
0.00176222
0.00174868
0.00173526
0.00172196
0.00170877
0.00169568
0.00168267
0.00166975
0.0016569
0.00164414
0.00163144
0.00161882
0.00160628
0.00159377
0.00158121
0.00156836
0.00155461
0.00153697
0.00149008
1.4627e-05
0.000115313
0.00022497
0.00031241
0.000379127
0.000429644
0.00046849
0.000499203
0.000524383
0.000545872
0.000564976
0.000582664
0.000599726
0.000616839
0.000634517
0.000653021
0.000672318
0.000692134
0.000712418
0.000733153
0.000754457
0.00077659
0.000799781
0.000822013
0.000844592
0.000868615
0.000895
0.000922408
0.000950144
0.000977938
0.00100573
0.00103349
0.00106118
0.00108884
0.00111637
0.00114372
0.00117086
0.0011978
0.00122454
0.0012511
0.00127749
0.00130373
0.00132983
0.00135582
0.0013817
0.00140752
0.00143329
0.00145904
0.00148479
0.00151056
0.00153638
0.00156226
0.00158823
0.00161429
0.00164047
0.00166679
0.00169324
0.00171985
0.00174663
0.00177359
0.00180073
0.00182806
0.0018556
0.00188334
0.0019113
0.00193948
0.00196789
0.00199653
0.00202541
0.00205453
0.0020839
0.00211352
0.00214341
0.00217357
0.00220399
0.00223469
0.00226567
0.00229693
0.00232848
0.00236031
0.0023924
0.00242474
0.00245732
0.0024901
0.00252303
0.00255606
0.00258915
0.00262221
0.00265527
0.00268843
0.00272175
0.00275523
0.00278882
0.00282249
0.00285619
0.00288985
0.00292341
0.00295678
0.00298989
0.00302261
0.00305486
0.0030865
0.00311742
0.00314747
0.00317653
0.00320444
0.00323105
0.00325627
0.00327995
0.00330191
0.00332272
0.00333983
0.0033541
0.00336724
0.00337887
0.0033878
0.00339421
0.00339814
0.00339964
0.00339873
0.00339544
0.0033898
0.00338191
0.00337188
0.00335983
0.00334591
0.00333026
0.00331303
0.00329438
0.00327444
0.00325338
0.00323134
0.00320846
0.00318487
0.00316068
0.003136
0.00311084
0.0030851
0.00305855
0.00303129
0.00300387
0.00297672
0.00294998
0.00292362
0.00289758
0.00287186
0.00284652
0.00282161
0.00279713
0.00277306
0.0027494
0.00272617
0.00270339
0.00268108
0.00265931
0.00263806
0.00261728
0.0025969
0.00257688
0.00255717
0.00253769
0.00251838
0.00249925
0.0024803
0.00246151
0.00244289
0.00242443
0.00240611
0.00238794
0.00236992
0.00235205
0.0023343
0.0023168
0.0022995
0.00228234
0.00226521
0.00224786
0.0022294
0.00220634
0.00215725
1.91751e-05
0.000135628
0.00026296
0.000366004
0.000446387
0.000508212
0.000556382
0.000594869
0.000626733
0.000654266
0.00067916
0.000702667
0.000725722
0.000749018
0.000773033
0.000798039
0.000824116
0.000851216
0.000879242
0.000908162
0.000938027
0.000968864
0.00100053
0.00103266
0.00106533
0.00109872
0.00113286
0.00116746
0.00120229
0.00123719
0.00127203
0.00130674
0.00134127
0.00137555
0.00140954
0.00144328
0.00147678
0.00151003
0.00154306
0.00157586
0.00160847
0.00164089
0.00167314
0.00170525
0.00173722
0.00176909
0.00180091
0.00183269
0.00186447
0.00189626
0.0019281
0.00196001
0.001992
0.0020241
0.00205632
0.00208868
0.00212119
0.00215387
0.00218673
0.00221978
0.00225302
0.00228646
0.00232012
0.00235399
0.00238808
0.0024224
0.00245694
0.00249171
0.00252672
0.00256196
0.00259744
0.00263316
0.00266912
0.00270532
0.00274176
0.00277844
0.00281536
0.00285252
0.00288991
0.00292754
0.00296538
0.00300342
0.00304165
0.00308006
0.0031186
0.00315727
0.00319603
0.00323485
0.00327378
0.00331286
0.0033521
0.00339148
0.00343098
0.00347055
0.00351015
0.00354971
0.00358916
0.00362842
0.00366741
0.00370601
0.00374412
0.0037816
0.00381833
0.00385415
0.00388891
0.00392246
0.00395461
0.0039852
0.00401407
0.00404099
0.0040662
0.00408903
0.00410827
0.004125
0.00414032
0.00415282
0.00416246
0.00416923
0.00417312
0.00417414
0.0041723
0.00416767
0.00416033
0.00415038
0.00413797
0.00412323
0.00410632
0.00408742
0.00406668
0.00404429
0.00402042
0.00399523
0.0039689
0.00394158
0.00391342
0.00388455
0.00385505
0.00382493
0.00379414
0.00376279
0.00373117
0.00369954
0.00366809
0.00363688
0.00360595
0.00357533
0.00354509
0.00351526
0.00348587
0.00345692
0.00342842
0.00340037
0.00337279
0.00334569
0.0033191
0.00329299
0.00326735
0.00324212
0.00321729
0.00319281
0.00316863
0.00314471
0.00312103
0.00309758
0.00307436
0.00305137
0.0030286
0.00300605
0.00298373
0.00296165
0.00293982
0.00291818
0.00289688
0.00287589
0.00285518
0.00283465
0.00281406
0.00279247
0.00276648
0.00271992
2.34216e-05
0.000152906
0.000295406
0.000412425
0.000505607
0.000578549
0.000636337
0.000683207
0.00072252
0.000756855
0.000788156
0.000817857
0.000847002
0.000876326
0.000906321
0.000937276
0.000969317
0.00100246
0.00103666
0.00107188
0.00110808
0.00114519
0.00118309
0.00122161
0.00126066
0.00130017
0.00134004
0.00138014
0.00142033
0.00146051
0.00150059
0.00154049
0.00158017
0.00161959
0.00165873
0.00169759
0.00173616
0.00177446
0.0018125
0.00185029
0.00188784
0.00192517
0.00196232
0.00199931
0.00203617
0.00207292
0.00210959
0.0021462
0.00218277
0.00221934
0.00225593
0.00229256
0.00232925
0.00236603
0.00240291
0.00243991
0.00247704
0.00251432
0.00255175
0.00258935
0.00262712
0.00266507
0.0027032
0.00274152
0.00278002
0.00281872
0.0028576
0.00289667
0.00293592
0.00297536
0.00301498
0.00305478
0.00309476
0.00313491
0.00317522
0.00321571
0.00325636
0.00329716
0.00333812
0.00337923
0.00342048
0.00346187
0.00350339
0.00354503
0.0035868
0.00362869
0.00367072
0.00371291
0.00375525
0.00379773
0.00384037
0.00388315
0.00392605
0.00396902
0.00401205
0.00405507
0.00409803
0.00414086
0.00418347
0.00422577
0.00426766
0.00430902
0.00434971
0.0043896
0.00442851
0.00446629
0.00450275
0.00453771
0.00457097
0.00460233
0.0046316
0.00465924
0.00468374
0.00470498
0.00472403
0.00474075
0.00475447
0.00476509
0.00477258
0.0047769
0.00477807
0.0047761
0.00477107
0.00476308
0.00475225
0.00473871
0.00472262
0.00470416
0.00468349
0.0046608
0.00463627
0.00461009
0.00458245
0.00455351
0.00452345
0.00449243
0.00446056
0.00442795
0.00439464
0.00436074
0.00432644
0.00429194
0.00425739
0.0042229
0.00418857
0.00415446
0.00412063
0.00408715
0.00405403
0.00402132
0.00398902
0.00395715
0.00392572
0.00389475
0.00386424
0.00383418
0.00380456
0.00377536
0.00374655
0.00371812
0.00369002
0.00366224
0.00363475
0.00360756
0.00358065
0.00355402
0.00352769
0.00350165
0.00347594
0.00345056
0.00342553
0.00340086
0.00337661
0.00335281
0.00332946
0.0033065
0.00328369
0.00326019
0.00323297
0.00319099
2.72254e-05
0.000167166
0.00032243
0.000452097
0.000556907
0.000640629
0.000708
0.00076341
0.000810381
0.000851674
0.00088939
0.000925099
0.00095994
0.000994711
0.00102995
0.00106598
0.00110297
0.00114098
0.00118001
0.00122001
0.00126091
0.00130264
0.00134508
0.00138811
0.00143161
0.00147546
0.00151956
0.00156379
0.00160806
0.00165226
0.00169633
0.0017402
0.00178383
0.00182718
0.00187023
0.00191297
0.00195541
0.00199753
0.00203937
0.00208091
0.00212219
0.00216323
0.00220404
0.00224465
0.0022851
0.0023254
0.00236558
0.00240568
0.0024457
0.00248569
0.00252566
0.00256564
0.00260566
0.00264572
0.00268586
0.00272609
0.00276641
0.00280685
0.00284741
0.00288811
0.00292894
0.00296991
0.00301103
0.00305229
0.00309369
0.00313524
0.00317692
0.00321874
0.00326069
0.00330276
0.00334496
0.00338727
0.00342969
0.00347221
0.00351483
0.00355754
0.00360033
0.00364321
0.00368616
0.00372919
0.0037723
0.00381547
0.00385873
0.00390206
0.00394548
0.00398901
0.00403264
0.00407641
0.0041203
0.00416435
0.00420854
0.00425287
0.00429734
0.00434193
0.00438662
0.00443139
0.00447618
0.00452096
0.00456565
0.00461019
0.00465448
0.00469843
0.00474191
0.0047848
0.00482694
0.00486816
0.00490828
0.00494711
0.00498446
0.0050201
0.00505382
0.0050857
0.00511538
0.00514206
0.00516585
0.00518733
0.00520603
0.00522156
0.00523383
0.00524276
0.00524831
0.00525047
0.0052493
0.00524485
0.00523723
0.00522657
0.005213
0.00519668
0.0051778
0.00515652
0.00513305
0.00510756
0.00508026
0.00505134
0.00502098
0.00498935
0.00495663
0.00492293
0.00488838
0.0048531
0.00481725
0.00478099
0.00474447
0.00470782
0.00467115
0.00463454
0.00459807
0.00456182
0.00452582
0.00449013
0.00445478
0.00441979
0.00438518
0.00435097
0.00431717
0.00428377
0.00425078
0.00421818
0.00418597
0.00415413
0.00412266
0.00409154
0.00406075
0.0040303
0.00400019
0.00397043
0.00394103
0.00391201
0.0038834
0.00385522
0.00382751
0.0038003
0.00377364
0.00374758
0.00372214
0.00369732
0.00367292
0.00364823
0.00362071
0.00358293
3.04976e-05
0.000178533
0.000344294
0.000485166
0.000600443
0.000694227
0.000770797
0.000834532
0.000889013
0.000937085
0.000980952
0.00102228
0.00106229
0.00110185
0.00114157
0.00118181
0.0012228
0.00126465
0.00130739
0.00135098
0.00139538
0.00144049
0.00148623
0.00153248
0.00157914
0.00162608
0.00167322
0.00172045
0.00176767
0.0018148
0.00186177
0.00190851
0.00195499
0.00200116
0.002047
0.00209251
0.00213768
0.00218252
0.00222702
0.0022712
0.00231509
0.00235869
0.00240203
0.00244514
0.00248805
0.00253077
0.00257334
0.00261577
0.00265811
0.00270038
0.00274259
0.00278477
0.00282696
0.00286916
0.00291139
0.00295367
0.00299602
0.00303844
0.00308095
0.00312355
0.00316625
0.00320904
0.00325194
0.00329493
0.00333802
0.0033812
0.00342447
0.00346781
0.00351123
0.00355472
0.00359826
0.00364184
0.00368547
0.00372912
0.0037728
0.0038165
0.0038602
0.00390391
0.00394763
0.00399134
0.00403506
0.00407879
0.00412253
0.0041663
0.00421011
0.00425397
0.00429791
0.00434195
0.00438611
0.0044304
0.00447483
0.00451944
0.00456422
0.00460918
0.00465433
0.00469966
0.00474516
0.00479079
0.00483654
0.00488235
0.00492816
0.00497389
0.00501945
0.00506472
0.00510956
0.00515382
0.00519732
0.00523988
0.00528128
0.0053213
0.00535973
0.00539635
0.00543127
0.00546365
0.00549338
0.00552049
0.00554505
0.00556652
0.0055847
0.00559944
0.00561064
0.00561825
0.00562228
0.00562276
0.00561976
0.00561338
0.00560374
0.00559099
0.00557529
0.00555681
0.00553574
0.00551229
0.00548664
0.005459
0.00542957
0.00539854
0.00536609
0.00533238
0.00529758
0.00526182
0.00522527
0.00518807
0.00515039
0.00511235
0.00507407
0.00503566
0.00499722
0.00495883
0.00492055
0.00488244
0.00484455
0.00480691
0.00476957
0.00473255
0.00469586
0.00465952
0.00462354
0.00458792
0.00455266
0.00451778
0.00448326
0.00444911
0.00441533
0.00438193
0.00434892
0.00431633
0.00428416
0.00425246
0.00422126
0.00419059
0.00416051
0.00413106
0.0041023
0.0040743
0.00404712
0.00402077
0.00399515
0.00396964
0.0039422
0.00390755
3.31966e-05
0.000187213
0.000361313
0.000511723
0.000636299
0.000739249
0.000824384
0.000895974
0.000957576
0.00101206
0.00106167
0.00110815
0.00115279
0.00119652
0.00124001
0.00128369
0.00132785
0.00137263
0.00141812
0.00146433
0.00151121
0.00155869
0.00160669
0.00165512
0.00170388
0.00175288
0.00180202
0.00185123
0.0019004
0.00194945
0.0019983
0.00204689
0.00209518
0.00214313
0.00219072
0.00223793
0.00228478
0.00233124
0.00237735
0.00242309
0.00246851
0.00251361
0.00255842
0.00260296
0.00264725
0.00269134
0.00273523
0.00277897
0.00282257
0.00286606
0.00290948
0.00295283
0.00299615
0.00303945
0.00308276
0.00312608
0.00316943
0.00321283
0.00325628
0.00329979
0.00334336
0.00338699
0.00343068
0.00347444
0.00351825
0.00356211
0.00360601
0.00364994
0.0036939
0.00373786
0.00378183
0.00382579
0.00386972
0.00391363
0.00395749
0.00400129
0.00404504
0.00408872
0.00413234
0.00417588
0.00421937
0.00426279
0.00430617
0.00434951
0.00439284
0.00443618
0.00447956
0.004523
0.00456653
0.00461019
0.00465402
0.00469803
0.00474227
0.00478678
0.00483157
0.00487667
0.0049221
0.00496788
0.00501399
0.00506043
0.00510717
0.00515416
0.00520133
0.0052486
0.00529586
0.00534296
0.00538973
0.005436
0.00548154
0.00552615
0.00556957
0.00561157
0.00565203
0.00569052
0.00572673
0.00576055
0.00579187
0.00582026
0.00584543
0.00586711
0.00588512
0.00589937
0.00590982
0.00591645
0.00591931
0.00591845
0.00591396
0.00590598
0.00589464
0.00588012
0.0058626
0.00584227
0.00581933
0.00579401
0.0057665
0.00573701
0.00570573
0.00567287
0.0056386
0.00560309
0.0055665
0.00552901
0.00549076
0.0054519
0.00541257
0.00537288
0.00533295
0.00529287
0.00525272
0.00521259
0.00517252
0.00513259
0.00509282
0.00505327
0.00501397
0.00497495
0.00493621
0.0048978
0.00485972
0.00482199
0.00478462
0.00474763
0.00471104
0.00467486
0.00463912
0.00460384
0.00456907
0.00453485
0.00450121
0.00446822
0.00443593
0.0044044
0.00437371
0.00434395
0.00431519
0.00428749
0.0042608
0.00423463
0.00420736
0.00417531
3.53171e-05
0.000193457
0.000373874
0.000532119
0.000664735
0.000775805
0.000868684
0.000947467
0.00101562
0.001076
0.00113085
0.00118195
0.00123065
0.00127794
0.00132455
0.00137096
0.00141748
0.00146432
0.0015117
0.00155966
0.00160813
0.00165706
0.00170639
0.00175604
0.00180593
0.00185599
0.00190616
0.00195638
0.00200661
0.00205665
0.00210642
0.00215589
0.00220499
0.0022537
0.00230199
0.00234987
0.00239734
0.00244438
0.00249103
0.00253729
0.00258318
0.00262873
0.00267396
0.00271889
0.00276356
0.00280799
0.0028522
0.00289624
0.00294012
0.00298388
0.00302754
0.00307111
0.00311464
0.00315813
0.0032016
0.00324508
0.00328857
0.00333209
0.00337564
0.00341924
0.00346288
0.00350656
0.00355029
0.00359406
0.00363786
0.00368169
0.00372553
0.00376938
0.00381322
0.00385703
0.00390081
0.00394453
0.00398819
0.00403176
0.00407524
0.00411862
0.00416187
0.004205
0.00424801
0.00429088
0.00433362
0.00437623
0.00441874
0.00446116
0.0045035
0.0045458
0.00458808
0.0046304
0.00467278
0.00471528
0.00475794
0.00480082
0.00484399
0.00488748
0.00493138
0.00497572
0.00502057
0.00506597
0.00511196
0.00515857
0.0052058
0.00525366
0.00530211
0.0053511
0.00540055
0.00545033
0.0055003
0.00555029
0.00560007
0.00564943
0.00569811
0.00574585
0.00579239
0.00583741
0.00588069
0.00592184
0.0059608
0.00599706
0.0060302
0.00605989
0.00608578
0.00610776
0.00612573
0.00613964
0.00614946
0.00615522
0.00615699
0.00615485
0.00614893
0.00613938
0.00612638
0.00611013
0.00609083
0.00606869
0.00604394
0.00601679
0.00598746
0.00595615
0.00592308
0.00588843
0.00585238
0.00581511
0.00577679
0.00573758
0.00569763
0.00565707
0.00561604
0.00557463
0.00553295
0.00549109
0.00544913
0.00540714
0.00536519
0.00532333
0.00528161
0.00524007
0.00519876
0.0051577
0.00511693
0.00507647
0.00503637
0.00499664
0.00495733
0.00491845
0.00488006
0.00484219
0.00480489
0.00476821
0.00473221
0.00469696
0.00466252
0.00462899
0.00459644
0.00456498
0.00453471
0.00450572
0.004478
0.00445118
0.004424
0.00439383
3.6881e-05
0.000197535
0.000382403
0.000546795
0.000686115
0.000804134
0.000903792
0.000988948
0.00106294
0.00112855
0.00118801
0.0012431
0.00129519
0.00134544
0.00139456
0.00144306
0.00149129
0.00153945
0.00158791
0.00163671
0.00168584
0.00173529
0.00178502
0.00183496
0.00188505
0.00193525
0.0019855
0.00203575
0.002086
0.00213593
0.00218569
0.00223507
0.00228399
0.00233243
0.00238039
0.00242787
0.00247489
0.00252145
0.00256756
0.00261326
0.00265857
0.00270351
0.00274812
0.00279242
0.00283644
0.00288023
0.0029238
0.00296719
0.00301043
0.00305354
0.00309656
0.0031395
0.0031824
0.00322528
0.00326815
0.00331103
0.00335394
0.00339688
0.00343988
0.00348292
0.00352602
0.00356918
0.00361239
0.00365565
0.00369895
0.00374228
0.00378563
0.00382897
0.0038723
0.0039156
0.00395885
0.00400202
0.00404511
0.00408808
0.00413093
0.00417363
0.00421617
0.00425853
0.00430071
0.0043427
0.0043845
0.00442612
0.00446756
0.00450884
0.00454999
0.00459103
0.004632
0.00467295
0.00471393
0.004755
0.00479622
0.00483768
0.00487944
0.0049216
0.00496425
0.00500748
0.00505137
0.00509601
0.0051415
0.00518789
0.00523525
0.00528361
0.00533301
0.00538342
0.0054348
0.00548707
0.0055401
0.00559373
0.00564775
0.00570194
0.00575602
0.0058097
0.0058627
0.0059147
0.00596543
0.00601449
0.00606178
0.00610668
0.00614868
0.00618739
0.00622219
0.00625288
0.00627938
0.00630158
0.00631939
0.0063328
0.00634182
0.00634652
0.00634697
0.00634334
0.00633577
0.00632445
0.00630961
0.00629145
0.00627021
0.00624612
0.00621941
0.00619031
0.00615903
0.00612579
0.0060908
0.00605424
0.00601631
0.00597717
0.00593699
0.00589593
0.00585412
0.0058117
0.00576878
0.00572546
0.00568186
0.00563805
0.00559411
0.00555012
0.00550615
0.00546225
0.00541848
0.00537489
0.00533153
0.00528845
0.00524569
0.0052033
0.00516132
0.00511981
0.0050788
0.00503837
0.00499857
0.00495946
0.00492112
0.00488363
0.00484707
0.00481154
0.00477715
0.004744
0.00471222
0.00468193
0.00465315
0.00462562
0.00459835
0.00456948
3.79177e-05
0.000199724
0.000387326
0.00055619
0.00070082
0.000824471
0.000929853
0.00102042
0.00109938
0.00116941
0.00123276
0.00129116
0.0013459
0.00139822
0.00144894
0.00149866
0.00154782
0.00159677
0.00164577
0.00169482
0.00174395
0.00179316
0.00184241
0.00189169
0.00194094
0.00199013
0.00203924
0.00208824
0.00213712
0.00218587
0.0022346
0.00228286
0.00233058
0.00237769
0.00242421
0.00247018
0.00251562
0.00256057
0.00260504
0.00264907
0.0026927
0.00273596
0.0027789
0.00282154
0.00286394
0.00290611
0.0029481
0.00298995
0.00303168
0.00307333
0.00311492
0.00315649
0.00319806
0.00323965
0.00328128
0.00332297
0.00336474
0.00340661
0.00344857
0.00349063
0.0035328
0.00357508
0.00361746
0.00365993
0.00370248
0.0037451
0.00378777
0.00383047
0.00387318
0.00391588
0.00395854
0.00400113
0.00404363
0.00408602
0.00412826
0.00417033