/*--------------------------------*- C++ -*----------------------------------*\
  =========                 |
  \\      /  F ield         | OpenFOAM: The Open Source CFD Toolbox
   \\    /   O peration     | Website:  https://openfoam.org
    \\  /    A nd           | Version:  8
     \\/     M anipulation  |
\*---------------------------------------------------------------------------*/
FoamFile
{
    version     2.0;
    format      ascii;
    class       volScalarField;
    location    "140";
    object      p;
}
// * * * * * * * * * * * * * * * * * * * * * * * * * * * * * * * * * * * * * //

dimensions      [0 2 -2 0 0 0 0];

internalField   nonuniform List<scalar> 
12225
(
-1.76193
-3.95054
-5.05016
-5.37041
-5.55108
-5.71938
-5.85011
-5.94413
-6.01936
-6.08496
-6.14269
-6.19455
-6.2403
-6.28093
-6.31593
-6.33774
-6.36287
-6.2867
-4.92547
-5.69371
-5.85397
-5.76125
-5.74816
-5.81531
-5.89199
-5.95662
-6.01487
-6.07056
-6.12295
-6.17092
-6.21492
-6.25454
-6.29036
-6.31614
-6.34683
-6.34681
-5.32664
-5.31143
-5.43853
-5.51646
-5.61079
-5.73028
-5.83659
-5.92038
-5.99084
-6.05451
-6.11246
-6.16459
-6.2121
-6.25485
-6.29416
-6.32632
-6.36501
-6.39514
-5.20468
-5.14765
-5.38895
-5.54685
-5.64802
-5.75353
-5.85035
-5.92936
-5.99678
-6.05826
-6.11479
-6.16623
-6.21357
-6.25688
-6.2976
-6.33456
-6.37726
-6.42326
-5.19435
-5.2187
-5.44645
-5.58758
-5.67065
-5.76202
-5.8524
-5.9291
-5.9954
-6.0561
-6.11233
-6.16398
-6.21193
-6.25653
-6.29929
-6.34051
-6.3866
-6.43947
-5.25235
-5.30121
-5.47519
-5.59867
-5.67965
-5.76682
-5.85405
-5.92959
-5.99538
-6.05567
-6.11175
-6.16366
-6.21217
-6.25794
-6.30238
-6.34653
-6.39472
-6.44957
-5.31273
-5.35688
-5.49179
-5.60771
-5.69094
-5.77444
-5.85759
-5.93132
-5.99632
-6.05605
-6.11183
-6.16385
-6.21283
-6.25954
-6.30528
-6.35131
-6.40051
-6.45494
-5.36632
-5.40388
-5.51358
-5.62149
-5.70399
-5.783
-5.8617
-5.93334
-5.99741
-6.05651
-6.11193
-6.164
-6.21334
-6.26077
-6.30742
-6.35447
-6.4038
-6.45664
-5.41613
-5.44917
-5.53985
-5.63745
-5.71706
-5.79188
-5.86639
-5.93576
-5.99871
-6.05706
-6.11202
-6.16401
-6.21356
-6.26142
-6.30856
-6.35592
-6.40469
-6.45544
-5.46327
-5.49244
-5.56773
-5.65461
-5.73039
-5.80143
-5.87196
-5.9388
-6.0004
-6.05784
-6.11221
-6.16392
-6.21345
-6.26143
-6.30862
-6.35575
-6.40349
-6.45199
-5.50768
-5.53309
-5.59609
-5.67295
-5.74426
-5.81163
-5.87836
-5.9425
-6.0025
-6.05889
-6.1125
-6.16374
-6.213
-6.2608
-6.30768
-6.35414
-6.40058
-6.44684
-5.54581
-5.56808
-5.6221
-5.69066
-5.75744
-5.82144
-5.88484
-5.94644
-6.00482
-6.0601
-6.11286
-6.16349
-6.21229
-6.25965
-6.30597
-6.35157
-6.39666
-6.441
-5.58104
-5.6007
-5.64737
-5.70852
-5.77072
-5.83139
-5.89166
-5.95074
-6.0074
-6.06146
-6.11328
-6.16316
-6.21134
-6.25807
-6.30364
-6.34823
-6.39195
-6.43448
-5.61799
-5.63513
-5.67502
-5.72885
-5.78594
-5.84286
-5.89974
-5.95601
-6.01062
-6.06317
-6.11378
-6.16265
-6.20991
-6.25573
-6.30026
-6.34357
-6.38568
-6.42633
-5.65542
-5.67016
-5.70407
-5.75102
-5.80275
-5.85558
-5.90891
-5.96215
-6.01439
-6.06512
-6.11423
-6.16179
-6.20783
-6.25242
-6.29559
-6.33738
-6.37773
-6.41645
-5.69136
-5.70397
-5.73286
-5.77374
-5.82024
-5.86889
-5.91862
-5.96873
-6.01842
-6.06705
-6.11438
-6.16032
-6.20485
-6.24791
-6.2895
-6.32955
-6.36808
-6.40485
-5.72295
-5.73381
-5.75877
-5.79471
-5.83661
-5.88138
-5.92773
-5.97485
-6.02193
-6.06835
-6.11372
-6.15786
-6.20064
-6.24198
-6.2818
-6.32006
-6.3567
-6.39166
-5.7458
-5.75547
-5.77777
-5.8103
-5.84883
-5.89061
-5.93425
-5.97888
-6.0237
-6.06807
-6.11155
-6.15388
-6.19489
-6.23448
-6.27254
-6.30902
-6.34388
-6.3771
-5.75302
-5.7622
-5.78349
-5.81475
-5.85199
-5.89247
-5.93477
-5.97803
-6.02148
-6.06447
-6.10654
-6.14744
-6.18696
-6.22504
-6.26156
-6.29652
-6.32984
-6.36161
-5.73725
-5.74705
-5.76974
-5.80295
-5.84212
-5.88404
-5.92725
-5.97109
-6.01481
-6.05782
-6.09962
-6.14008
-6.17897
-6.21634
-6.252
-6.28608
-6.31845
-6.34929
-5.71063
-5.72146
-5.74682
-5.78398
-5.82694
-5.87167
-5.91702
-5.96255
-6.00754
-6.05126
-6.09347
-6.134
-6.17287
-6.20996
-6.24533
-6.27893
-6.3109
-6.34119
-5.67558
-5.68744
-5.71689
-5.76062
-5.80908
-5.85729
-5.90535
-5.95336
-6.00023
-6.04518
-6.08808
-6.12904
-6.16807
-6.20515
-6.24037
-6.27375
-6.30541
-6.33542
-5.63516
-5.64709
-5.68164
-5.73506
-5.79079
-5.84297
-5.8941
-5.94482
-5.99365
-6.03986
-6.08362
-6.12518
-6.16452
-6.20176
-6.23692
-6.27025
-6.30172
-6.33158
-5.59154
-5.60255
-5.64443
-5.709
-5.77136
-5.82825
-5.88411
-5.93824
-5.9888
-6.03594
-6.08039
-6.1224
-6.16199
-6.19926
-6.23441
-6.26761
-6.29897
-6.32862
-5.54467
-5.55021
-5.61297
-5.69133
-5.75345
-5.81192
-5.8733
-5.93192
-5.98473
-6.03308
-6.07841
-6.12098
-6.16083
-6.19815
-6.23325
-6.26634
-6.2976
-6.32714
-5.5014
-5.46512
-5.57476
-5.68588
-5.7483
-5.8038
-5.86624
-5.92624
-5.97974
-6.02876
-6.07477
-6.11786
-6.15802
-6.19553
-6.23071
-6.26384
-6.29509
-6.32462
-5.51566
-5.35674
-5.48577
-5.63999
-5.73027
-5.80185
-5.87101
-5.93218
-5.98525
-6.03382
-6.07939
-6.12191
-6.16149
-6.19843
-6.23305
-6.26567
-6.29649
-6.32572
-5.63886
-5.45852
-5.4728
-5.54507
-5.63361
-5.73304
-5.82397
-5.898
-5.95997
-6.0154
-6.06598
-6.11201
-6.1541
-6.19286
-6.2288
-6.26236
-6.29401
-6.32427
-5.34625
-5.93738
-6.02631
-5.9022
-5.84803
-5.8754
-5.92262
-5.96611
-6.00794
-6.05041
-6.09217
-6.13176
-6.169
-6.20399
-6.2368
-6.26758
-6.29652
-6.32536
-2.35693
-4.12027
-5.12507
-5.42435
-5.57369
-5.71752
-5.83179
-5.91301
-5.9775
-6.03464
-6.08617
-6.13247
-6.17442
-6.21291
-6.24845
-6.28081
-6.30984
-6.33375
-7.36613
-7.36575
-7.36633
-7.36855
-7.37187
-7.37605
-7.38094
-7.38651
-7.3928
-7.40002
-7.40817
-7.41681
-7.42543
-7.43434
-7.44386
-7.45437
-7.46602
-7.47874
-7.49227
-7.50792
-7.52587
-7.54384
-7.56069
-7.57645
-7.59263
-7.61206
-7.63428
-7.65766
-7.68216
-7.70764
-7.73391
-7.76089
-7.78838
-7.81634
-7.84457
-7.87306
-7.90164
-7.93031
-7.95889
-7.98742
-8.01572
-8.04382
-8.07155
-8.09897
-8.12588
-8.15234
-8.17818
-8.20342
-8.2279
-8.25165
-8.27448
-8.2964
-8.31721
-8.3369
-8.35526
-8.37228
-8.38772
-8.40154
-8.4135
-8.42355
-8.4314
-8.43698
-8.43998
-8.44031
-8.43766
-8.43191
-8.42271
-8.40992
-8.3932
-8.37233
-8.34695
-8.3168
-8.28143
-8.24047
-8.19344
-8.13998
-8.07972
-8.01233
-7.93743
-7.85463
-7.7636
-7.6639
-7.55513
-7.43667
-7.30799
-7.16831
-7.01702
-6.85342
-6.67712
-6.48775
-6.28488
-6.06821
-5.83745
-5.59243
-5.33295
-5.05898
-4.77053
-4.46777
-4.15095
-3.82055
-3.47705
-3.12119
-2.75379
-2.37591
-1.98877
-1.59372
-1.19224
-0.785897
-0.376403
0.0345435
0.445158
0.853748
1.25859
1.65806
2.05052
2.43452
2.80865
3.17171
3.52266
3.86074
4.18524
4.49556
4.79123
5.07199
5.33777
5.5887
5.82504
6.04715
6.25546
6.4505
6.63285
6.80313
6.962
7.11016
7.24832
7.37718
7.49746
7.60987
7.71517
7.81403
7.907
7.99466
8.07756
8.15632
8.23151
8.30372
8.37348
8.44136
8.50784
8.57338
8.6384
8.70332
8.76852
8.83436
8.90112
8.96908
9.03851
9.10964
9.18265
9.25771
9.33497
9.41456
9.49659
9.58111
9.66816
9.7578
9.85009
9.94503
10.0426
10.1428
10.2456
10.3511
10.4593
10.5701
10.6839
10.8008
10.9221
11.0482
11.1916
11.3416
-7.36241
-7.36305
-7.36413
-7.36584
-7.36776
-7.36989
-7.37252
-7.37586
-7.37999
-7.38491
-7.39037
-7.396
-7.40195
-7.40868
-7.41615
-7.42455
-7.43383
-7.44363
-7.4549
-7.467
-7.47922
-7.4924
-7.50847
-7.52857
-7.55284
-7.57832
-7.60238
-7.62673
-7.65176
-7.67752
-7.70393
-7.73092
-7.75836
-7.7862
-7.81429
-7.84258
-7.87095
-7.89936
-7.92769
-7.95592
-7.98394
-8.01173
-8.03917
-8.06627
-8.0929
-8.11906
-8.14463
-8.16961
-8.19387
-8.21739
-8.24004
-8.26179
-8.28248
-8.30207
-8.32039
-8.33739
-8.35289
-8.36679
-8.3789
-8.38913
-8.39726
-8.40314
-8.40654
-8.40732
-8.40523
-8.40007
-8.39158
-8.37956
-8.36371
-8.34379
-8.31951
-8.29057
-8.25662
-8.21731
-8.17222
-8.12096
-8.06309
-7.99822
-7.92594
-7.84586
-7.75755
-7.66055
-7.55438
-7.43848
-7.31233
-7.17533
-7.02696
-6.86676
-6.69445
-6.50953
-6.31148
-6.0999
-5.87449
-5.63499
-5.38123
-5.1131
-4.83059
-4.53383
-4.22302
-3.89856
-3.5609
-3.21071
-2.84874
-2.47603
-2.09369
-1.70304
-1.30546
-0.902519
-0.4958
-0.0870626
0.322015
0.72967
1.13425
1.53407
1.92753
2.3131
2.68938
3.05509
3.40919
3.7508
4.0792
4.39372
4.69385
4.97925
5.24982
5.50563
5.74686
5.97384
6.18696
6.38672
6.57364
6.74834
6.91145
7.06366
7.20564
7.3381
7.46175
7.5773
7.68539
7.78668
7.88182
7.97144
8.05611
8.13648
8.21309
8.28655
8.35739
8.42619
8.49341
8.55955
8.62502
8.69026
8.75564
8.82154
8.88825
8.95608
9.02527
9.0961
9.16874
9.24339
9.32017
9.39922
9.48065
9.56452
9.65087
9.73981
9.83138
9.92559
10.0224
10.1219
10.2241
10.3289
10.4364
10.5468
10.6602
10.777
10.8987
11.0253
11.1706
11.3135
-7.3527
-7.35554
-7.35935
-7.3626
-7.36496
-7.36692
-7.369
-7.37151
-7.37457
-7.37824
-7.38237
-7.38675
-7.39143
-7.39685
-7.40337
-7.41134
-7.42075
-7.43124
-7.4428
-7.45526
-7.4682
-7.48195
-7.49746
-7.51548
-7.53608
-7.55829
-7.58108
-7.60463
-7.62899
-7.6541
-7.67983
-7.70611
-7.73281
-7.75987
-7.78716
-7.81465
-7.84223
-7.86986
-7.89743
-7.92492
-7.95223
-7.97933
-8.00613
-8.03261
-8.05867
-8.08428
-8.10936
-8.13387
-8.15771
-8.18084
-8.20316
-8.2246
-8.24504
-8.2644
-8.28257
-8.29945
-8.31489
-8.32877
-8.34095
-8.35129
-8.3596
-8.36572
-8.36947
-8.37066
-8.36906
-8.36448
-8.35668
-8.34541
-8.33043
-8.31147
-8.28824
-8.26045
-8.22779
-8.18992
-8.14649
-8.09715
-8.04149
-7.97911
-7.90959
-7.8325
-7.74739
-7.65378
-7.55114
-7.43895
-7.31666
-7.18375
-7.03971
-6.88416
-6.71676
-6.53707
-6.34455
-6.13878
-5.91948
-5.68632
-5.43913
-5.17772
-4.90213
-4.61233
-4.3086
-3.99116
-3.66049
-3.31714
-2.96184
-2.59555
-2.2193
-1.83435
-1.44198
-1.04372
-0.641056
-0.235717
0.170697
0.576386
0.979729
1.37899
1.77265
2.15911
2.53698
2.90493
3.26189
3.60691
3.93921
4.25805
4.56291
4.85336
5.12927
5.39061
5.63754
5.87028
6.08919
6.29471
6.48732
6.66761
6.83615
6.9936
7.1406
7.27782
7.40593
7.52562
7.63759
7.74247
7.84093
7.93357
8.02103
8.10386
8.18268
8.25802
8.33049
8.40061
8.46891
8.53583
8.60187
8.66743
8.73295
8.79876
8.86523
8.93265
9.00133
9.07151
9.14341
9.21725
9.29321
9.37141
9.45198
9.53499
9.62052
9.70863
9.79936
9.89271
9.98872
10.0874
10.1887
10.2928
10.3997
10.5095
10.6226
10.7392
10.8614
10.9879
11.1341
11.2635
-7.33711
-7.3425
-7.35008
-7.35597
-7.35984
-7.36265
-7.36505
-7.36743
-7.37004
-7.37303
-7.37645
-7.38029
-7.38458
-7.38956
-7.39554
-7.40281
-7.41146
-7.42144
-7.43273
-7.44538
-7.45932
-7.4746
-7.49131
-7.50959
-7.52933
-7.5503
-7.5722
-7.595
-7.61861
-7.64296
-7.66793
-7.69344
-7.71936
-7.74565
-7.77217
-7.7989
-7.82573
-7.85262
-7.87949
-7.9063
-7.93296
-7.95944
-7.98567
-8.01161
-8.03718
-8.06234
-8.08701
-8.11116
-8.13468
-8.15753
-8.1796
-8.20085
-8.22115
-8.24042
-8.25854
-8.27543
-8.29093
-8.30493
-8.31728
-8.32785
-8.33646
-8.34296
-8.34715
-8.34885
-8.34785
-8.34395
-8.33692
-8.32651
-8.31248
-8.29456
-8.27247
-8.24591
-8.21458
-8.17815
-8.13627
-8.0886
-8.03477
-7.97439
-7.90704
-7.8323
-7.74972
-7.65881
-7.55906
-7.44994
-7.33093
-7.2015
-7.06119
-6.90958
-6.74631
-6.57087
-6.3828
-6.18169
-5.96717
-5.73898
-5.49685
-5.24064
-4.97027
-4.68578
-4.3873
-4.0751
-3.74956
-3.4112
-3.06075
-2.69907
-2.32718
-1.94624
-1.55754
-1.16249
-0.762617
-0.359511
0.0451808
0.449747
0.852471
1.25167
1.64575
2.03318
2.4125
2.78242
3.14182
3.48968
3.82519
4.14755
4.45619
4.7507
5.03089
5.29668
5.54819
5.78559
6.00921
6.21942
6.41668
6.60153
6.77453
6.93629
7.08743
7.2286
7.36047
7.48371
7.59899
7.70694
7.80824
7.90348
7.99332
8.07829
8.15903
8.23606
8.30999
8.38131
8.4506
8.51828
8.58489
8.65081
8.7165
8.78232
8.84864
8.91576
8.98403
9.05368
9.12499
9.19811
9.27328
9.35062
9.43029
9.51238
9.59699
9.68415
9.77393
9.86632
9.96138
10.0591
10.1595
10.2627
10.3687
10.4777
10.59
10.7059
10.8272
10.9521
11.0953
11.2101
-7.31963
-7.32763
-7.33932
-7.34829
-7.3542
-7.35843
-7.36181
-7.36482
-7.36777
-7.37095
-7.3745
-7.37856
-7.38324
-7.38869
-7.39509
-7.40264
-7.41143
-7.42154
-7.43297
-7.4458
-7.46
-7.47564
-7.49266
-7.51103
-7.53058
-7.55119
-7.57269
-7.59501
-7.61807
-7.64181
-7.6661
-7.69091
-7.71612
-7.74169
-7.7675
-7.79353
-7.81968
-7.84591
-7.87214
-7.89834
-7.92443
-7.95038
-7.97611
-8.00159
-8.02674
-8.05152
-8.07586
-8.09971
-8.12299
-8.14563
-8.16755
-8.18867
-8.2089
-8.22814
-8.24629
-8.26324
-8.27885
-8.29303
-8.3056
-8.31645
-8.3254
-8.33229
-8.33694
-8.33918
-8.33879
-8.33557
-8.32929
-8.31973
-8.30663
-8.28973
-8.26877
-8.24343
-8.21343
-8.17843
-8.13809
-8.09206
-8.03998
-7.98146
-7.9161
-7.84348
-7.76314
-7.67462
-7.57741
-7.471
-7.35486
-7.22847
-7.09135
-6.94306
-6.78313
-6.6112
-6.4266
-6.22907
-6.01815
-5.7936
-5.55508
-5.30249
-5.03563
-4.75461
-4.45945
-4.15042
-3.82784
-3.49225
-3.14434
-2.78492
-2.41505
-2.03576
-1.64842
-1.25432
-0.855101
-0.45221
-0.0474266
0.357681
0.761234
1.16164
1.55716
1.94634
2.32764
2.69984
3.06169
3.41225
3.75051
4.07579
4.38738
4.68496
4.96825
5.23724
5.49193
5.73251
5.95925
6.17253
6.3728
6.56054
6.73632
6.9007
7.05433
7.19785
7.3319
7.45716
7.57426
7.68388
7.78664
7.88323
7.9742
8.06023
8.14183
8.21963
8.29413
8.36594
8.43553
8.50346
8.57013
8.63605
8.70159
8.76719
8.83318
8.89994
8.96774
9.03689
9.1076
9.18013
9.25463
9.33131
9.41026
9.49163
9.57547
9.66187
9.75086
9.84248
9.93675
10.0337
10.1333
10.2357
10.341
10.4491
10.5606
10.6755
10.7954
10.9176
11.0563
11.1578
-7.30398
-7.31435
-7.32959
-7.3414
-7.34942
-7.35533
-7.36005
-7.36412
-7.36795
-7.37186
-7.3761
-7.38088
-7.38632
-7.39259
-7.3998
-7.40809
-7.41752
-7.42819
-7.44009
-7.45326
-7.4677
-7.48342
-7.50037
-7.51852
-7.53775
-7.55797
-7.57904
-7.6009
-7.62344
-7.64663
-7.67034
-7.69455
-7.71914
-7.74409
-7.76929
-7.79472
-7.82028
-7.84595
-7.87164
-7.89734
-7.92295
-7.94846
-7.97379
-7.99891
-8.02374
-8.04825
-8.07235
-8.09601
-8.11913
-8.14166
-8.16351
-8.18461
-8.20485
-8.22415
-8.2424
-8.2595
-8.27531
-8.28972
-8.30259
-8.31378
-8.32312
-8.33047
-8.33564
-8.33845
-8.3387
-8.33619
-8.3307
-8.322
-8.30985
-8.29399
-8.27414
-8.25003
-8.22134
-8.18777
-8.14896
-8.10457
-8.05423
-7.99755
-7.93413
-7.86355
-7.78537
-7.6991
-7.60426
-7.50034
-7.38682
-7.26318
-7.12889
-6.98347
-6.82656
-6.65747
-6.47588
-6.28123
-6.07322
-5.85144
-5.61566
-5.36562
-5.10122
-4.82242
-4.52929
-4.22201
-3.90091
-3.56652
-3.21949
-2.86066
-2.49098
-2.11159
-1.72375
-1.32886
-0.928459
-0.524156
-0.117627
0.289408
0.695183
1.09794
1.49597
1.88771
2.27171
2.64664
3.01129
3.3646
3.7056
4.0335
4.34769
4.6478
4.93355
5.2049
5.46188
5.70465
5.93347
6.14869
6.35074
6.54012
6.71737
6.88309
7.03789
7.18244
7.31736
7.44336
7.56104
7.6711
7.77417
7.87096
7.96204
8.04807
8.12958
8.20721
8.28148
8.35299
8.4222
8.48968
8.55586
8.62124
8.68622
8.75122
8.81659
8.88271
8.94985
9.01835
9.08842
9.16031
9.23419
9.31024
9.38858
9.46933
9.55255
9.63834
9.72671
9.81772
9.91137
10.0077
10.1067
10.2085
10.313
10.4205
10.5311
10.6449
10.7631
10.8824
11.0167
11.1066
-7.29294
-7.30518
-7.32298
-7.33701
-7.34689
-7.35442
-7.36054
-7.36583
-7.37072
-7.3756
-7.38074
-7.38638
-7.39268
-7.39979
-7.40781
-7.41685
-7.42696
-7.4382
-7.45058
-7.46414
-7.47883
-7.49468
-7.51162
-7.52963
-7.54861
-7.56851
-7.58922
-7.61068
-7.63279
-7.65551
-7.67874
-7.70245
-7.72654
-7.75098
-7.77568
-7.80062
-7.82571
-7.85093
-7.8762
-7.9015
-7.92676
-7.95195
-7.97699
-8.00186
-8.02648
-8.05082
-8.07479
-8.09836
-8.12143
-8.14395
-8.16583
-8.187
-8.20735
-8.22681
-8.24525
-8.26258
-8.27866
-8.29339
-8.30662
-8.31822
-8.32802
-8.33587
-8.3416
-8.34503
-8.34596
-8.3442
-8.33952
-8.3317
-8.32051
-8.30568
-8.28695
-8.26405
-8.23666
-8.20448
-8.16716
-8.12437
-8.07571
-8.02082
-7.95928
-7.89067
-7.81454
-7.73041
-7.6378
-7.53619
-7.42506
-7.30389
-7.17212
-7.0293
-6.87488
-6.7084
-6.52927
-6.33702
-6.13134
-5.91173
-5.678
-5.42979
-5.16704
-4.88959
-4.59754
-4.291
-3.97032
-3.63602
-3.28868
-2.92921
-2.55846
-2.17766
-1.78799
-1.391
-0.988123
-0.581161
-0.171701
0.238344
0.647318
1.05327
1.45458
1.84952
2.23674
2.61477
2.98247
3.33863
3.68235
4.01273
4.32929
4.63159
4.91943
5.19264
5.45133
5.6956
5.92573
6.14206
6.34504
6.53516
6.71298
6.8791
7.03415
7.17879
7.3137
7.4395
7.55692
7.66655
7.76916
7.86534
7.9558
8.04108
8.12185
8.19863
8.27207
8.34266
8.41099
8.47752
8.5428
8.60723
8.67131
8.73538
8.79988
8.86511
8.93145
8.99912
9.06845
9.13959
9.21279
9.28817
9.36589
9.44602
9.52868
9.61388
9.70171
9.79216
9.88528
9.98106
10.0795
10.1807
10.2846
10.3913
10.501
10.6136
10.73
10.8465
10.9767
11.0569
-7.28806
-7.30141
-7.32067
-7.33617
-7.34747
-7.35634
-7.36372
-7.37015
-7.3761
-7.38195
-7.38801
-7.39451
-7.40163
-7.40951
-7.41825
-7.42795
-7.43863
-7.45037
-7.46316
-7.47702
-7.49193
-7.50788
-7.52483
-7.54274
-7.56155
-7.58121
-7.60163
-7.62276
-7.64452
-7.66688
-7.68972
-7.71304
-7.73673
-7.76078
-7.7851
-7.80967
-7.83442
-7.85932
-7.8843
-7.90934
-7.93436
-7.95936
-7.98424
-8.00899
-8.03352
-8.05781
-8.08177
-8.10536
-8.1285
-8.15112
-8.17313
-8.19447
-8.21502
-8.23471
-8.25342
-8.27106
-8.28749
-8.3026
-8.31625
-8.32831
-8.33862
-8.34702
-8.35335
-8.35743
-8.35907
-8.35807
-8.35422
-8.3473
-8.33706
-8.32327
-8.30566
-8.28395
-8.25783
-8.22701
-8.19115
-8.14989
-8.10287
-8.04969
-7.98996
-7.92322
-7.84904
-7.76694
-7.67641
-7.57695
-7.46802
-7.34907
-7.21957
-7.07899
-6.92685
-6.76249
-6.58543
-6.3952
-6.19131
-5.97341
-5.7411
-5.49415
-5.23233
-4.95553
-4.66376
-4.35715
-4.03604
-3.70087
-3.35233
-2.99117
-2.61839
-2.2351
-1.84263
-1.44245
-1.03617
-0.625527
-0.212309
0.201639
0.614463
1.02429
1.42935
1.82801
2.21876
2.60017
2.97098
3.33006
3.67643
4.00925
4.32799
4.63222
4.9217
5.19632
5.45613
5.70128
5.93205
6.14879
6.35197
6.54209
6.71973
6.88551
7.04009
7.18411
7.31829
7.44325
7.55973
7.66836
7.76989
7.86494
7.9542
8.03825
8.11777
8.1933
8.26547
8.3348
8.40189
8.46719
8.53126
8.59452
8.65745
8.72043
8.78388
8.84811
8.91349
8.98027
9.04875
9.1191
9.19156
9.26624
9.34331
9.42283
9.50489
9.58955
9.67683
9.76676
9.85935
9.95459
10.0525
10.1531
10.2563
10.3622
10.471
10.5823
10.6968
10.8104
10.937
11.0092
-7.28964
-7.30338
-7.32305
-7.33921
-7.35139
-7.36121
-7.36954
-7.37691
-7.38375
-7.39045
-7.3973
-7.40455
-7.41236
-7.42089
-7.43021
-7.44042
-7.45156
-7.46367
-7.47676
-7.49085
-7.5059
-7.52192
-7.53886
-7.5567
-7.57536
-7.59483
-7.61503
-7.63592
-7.65741
-7.67948
-7.70205
-7.72507
-7.74848
-7.77226
-7.79632
-7.82066
-7.84518
-7.86989
-7.89471
-7.91961
-7.94454
-7.96946
-7.99431
-8.01906
-8.04363
-8.06798
-8.09205
-8.11577
-8.13907
-8.16188
-8.18412
-8.20571
-8.22654
-8.24654
-8.26559
-8.2836
-8.30043
-8.31597
-8.33008
-8.34264
-8.35349
-8.36247
-8.36942
-8.37417
-8.37653
-8.3763
-8.37327
-8.36724
-8.35796
-8.34519
-8.32867
-8.30812
-8.28326
-8.25376
-8.2193
-8.17953
-8.13408
-8.08255
-8.02454
-7.9596
-7.88728
-7.80708
-7.71851
-7.62104
-7.51413
-7.39722
-7.26975
-7.13118
-6.9809
-6.81848
-6.64312
-6.4545
-6.25202
-6.03534
-5.80398
-5.55774
-5.29626
-5.01948
-4.72733
-4.41995
-4.09765
-3.76086
-3.41028
-3.0466
-2.67092
-2.28427
-1.88816
-1.48394
-1.07347
-0.658364
-0.240672
0.177848
0.595093
1.00929
1.41851
1.82124
2.2158
2.60085
2.97493
3.33698
3.68588
4.02096
4.34154
4.64732
4.93796
5.21345
5.47379
5.7192
5.94994
6.16643
6.36912
6.55856
6.73535
6.90013
7.05356
7.19635
7.32914
7.4527
7.56763
7.67475
7.77466
7.86813
7.95573
8.03819
8.11604
8.18999
8.26055
8.32836
8.39389
8.45776
8.52039
8.58232
8.64394
8.70572
8.76799
8.83116
8.89551
8.96137
9.02895
9.09851
9.17021
9.24422
9.32064
9.39959
9.4811
9.56525
9.65203
9.74148
9.83358
9.92832
10.0257
10.1257
10.2282
10.3334
10.4411
10.551
10.6636
10.7746
10.8979
10.9634
-7.29715
-7.31063
-7.32983
-7.34592
-7.3584
-7.36872
-7.37764
-7.38564
-7.39313
-7.40046
-7.40792
-7.41574
-7.42407
-7.43307
-7.44281
-7.45339
-7.46484
-7.47721
-7.49049
-7.50471
-7.51984
-7.53589
-7.55279
-7.57056
-7.58911
-7.60843
-7.62846
-7.64917
-7.67047
-7.69235
-7.71473
-7.73758
-7.76081
-7.78443
-7.80835
-7.83257
-7.857
-7.88165
-7.90642
-7.93132
-7.95627
-7.98125
-8.00618
-8.03105
-8.05576
-8.0803
-8.10456
-8.12851
-8.15206
-8.17515
-8.19768
-8.21959
-8.24076
-8.26112
-8.28056
-8.29897
-8.31623
-8.33222
-8.34682
-8.35988
-8.37127
-8.38083
-8.38839
-8.39379
-8.39684
-8.39736
-8.39514
-8.38996
-8.3816
-8.36981
-8.35434
-8.33492
-8.31124
-8.28302
-8.24991
-8.21156
-8.16761
-8.11765
-8.06128
-7.99804
-7.92747
-7.84907
-7.76233
-7.66671
-7.56166
-7.44661
-7.32097
-7.18414
-7.03566
-6.87468
-6.70084
-6.51344
-6.31205
-6.09615
-5.86537
-5.61931
-5.35771
-5.08039
-4.7873
-4.47855
-4.15442
-3.81537
-3.46201
-3.09516
-2.7158
-2.32516
-1.92462
-1.51577
-1.10035
-0.680239
-0.257402
0.166163
0.588435
1.00746
1.42139
1.82851
2.2272
2.61593
2.9933
3.35813
3.7094
4.04639
4.36847
4.67531
4.96664
5.24242
5.50272
5.74776
5.97786
6.19344
6.395
6.58312
6.75842
6.92158
7.07327
7.21423
7.34513
7.46671
7.57967
7.68477
7.78267
7.87411
7.95971
8.04017
8.11608
8.18812
8.25682
8.32283
8.38664
8.44885
8.50991
8.57034
8.63055
8.691
8.75204
8.81407
8.87737
8.94225
9.00896
9.07771
9.14868
9.22203
9.29785
9.37625
9.45726
9.54093
9.62727
9.71628
9.80793
9.9022
9.99907
10.0985
10.2004
10.3047
10.4114
10.5199
10.6307
10.7391
10.8593
10.9195
-7.30956
-7.32227
-7.34027
-7.35566
-7.36793
-7.37831
-7.38744
-7.39574
-7.40359
-7.4113
-7.41914
-7.42731
-7.43598
-7.44528
-7.45528
-7.46608
-7.4777
-7.4902
-7.50358
-7.51785
-7.53299
-7.54902
-7.56587
-7.58356
-7.60201
-7.62123
-7.64113
-7.66172
-7.6829
-7.70468
-7.72697
-7.74973
-7.77291
-7.79648
-7.82037
-7.84459
-7.86905
-7.89374
-7.9186
-7.94361
-7.96869
-7.99383
-8.01896
-8.04404
-8.06899
-8.09379
-8.11833
-8.14258
-8.16644
-8.18986
-8.21274
-8.235
-8.25654
-8.27729
-8.29711
-8.31593
-8.33361
-8.35005
-8.36511
-8.37865
-8.39055
-8.40064
-8.40877
-8.41478
-8.41847
-8.41968
-8.41819
-8.41381
-8.4063
-8.39542
-8.38093
-8.36255
-8.34
-8.31296
-8.28112
-8.24411
-8.20156
-8.15308
-8.09825
-8.0366
-7.96767
-7.89094
-7.8059
-7.71199
-7.60865
-7.49528
-7.37127
-7.23605
-7.08893
-6.92937
-6.75665
-6.5702
-6.36956
-6.15411
-5.92351
-5.67725
-5.41509
-5.13678
-4.84227
-4.53166
-4.20518
-3.86333
-3.50663
-3.13602
-2.75241
-2.3572
-1.95166
-1.5376
-1.11664
-0.690921
-0.262344
0.166807
0.594581
1.01881
1.43773
1.84943
2.25231
2.64465
3.02515
3.3925
3.74585
4.08432
4.40748
4.71486
5.00634
5.28183
5.5415
5.78556
6.0144
6.22846
6.42828
6.61448
6.78772
6.94869
7.09812
7.2367
7.36523
7.48435
7.59491
7.69755
7.79308
7.8821
7.96538
8.04351
8.11722
8.18705
8.2537
8.31766
8.37959
8.43995
8.49931
8.5581
8.61683
8.67585
8.73562
8.79644
8.85868
8.92257
8.98841
9.05636
9.12664
9.19935
9.27463
9.35252
9.43309
9.51634
9.60229
9.69091
9.78218
9.87605
9.97246
10.0713
10.1726
10.2762
10.3818
10.489
10.5979
10.7039
10.8213
10.8773
-7.3256
-7.33716
-7.35343
-7.36761
-7.37922
-7.38925
-7.39823
-7.40652
-7.41443
-7.42226
-7.43025
-7.43858
-7.44738
-7.4568
-7.4669
-7.47778
-7.48945
-7.50197
-7.51534
-7.52959
-7.54469
-7.56066
-7.57745
-7.59506
-7.61343
-7.63257
-7.65241
-7.67294
-7.69408
-7.71582
-7.73809
-7.76087
-7.78408
-7.8077
-7.83168
-7.856
-7.88058
-7.90543
-7.93047
-7.95568
-7.98099
-8.00639
-8.03179
-8.05716
-8.08242
-8.10753
-8.1324
-8.15698
-8.18119
-8.20495
-8.22817
-8.25079
-8.27268
-8.29379
-8.31397
-8.33316
-8.35121
-8.36803
-8.38348
-8.39744
-8.40976
-8.42031
-8.42892
-8.43544
-8.43969
-8.44149
-8.44064
-8.43695
-8.43018
-8.42011
-8.4065
-8.38906
-8.36752
-8.34157
-8.31088
-8.2751
-8.23385
-8.18673
-8.13331
-8.07313
-8.0057
-7.93051
-7.84702
-7.75466
-7.65286
-7.54099
-7.41844
-7.28454
-7.1387
-6.98015
-6.80832
-6.6226
-6.42237
-6.20712
-5.97632
-5.72956
-5.46647
-5.18682
-4.89054
-4.57767
-4.24849
-3.90337
-3.54296
-3.16807
-2.77979
-2.3794
-1.96842
-1.54852
-1.12161
-0.689749
-0.255104
0.180072
0.613577
1.04331
1.4673
1.88365
2.29059
2.68641
3.0697
3.43927
3.79423
4.13379
4.45747
4.76489
5.05593
5.33057
5.58899
5.83148
6.05846
6.27041
6.46793
6.65165
6.82229
6.98056
7.12722
7.263
7.38868
7.50499
7.61273
7.7126
7.80538
7.89172
7.97238
8.04796
8.11919
8.18665
8.25101
8.31282
8.37268
8.43109
8.48862
8.54571
8.60285
8.66042
8.71885
8.77846
8.8396
8.90251
8.96747
9.03465
9.10424
9.17636
9.25111
9.32854
9.4087
9.49159
9.57719
9.66548
9.7564
9.8499
9.94589
10.0443
10.1449
10.2477
10.3523
10.4582
10.5654
10.6692
10.7839
10.8367
-7.34393
-7.35408
-7.36829
-7.3809
-7.39148
-7.40081
-7.40931
-7.41728
-7.42499
-7.43269
-7.44059
-7.44885
-7.45761
-7.46698
-7.47703
-7.48784
-7.49944
-7.51189
-7.52519
-7.53936
-7.55439
-7.57028
-7.587
-7.60455
-7.62288
-7.64199
-7.6618
-7.68232
-7.70346
-7.72522
-7.74753
-7.77038
-7.7937
-7.81747
-7.84162
-7.86613
-7.89093
-7.91601
-7.9413
-7.96678
-7.99238
-8.01808
-8.04379
-8.06949
-8.09507
-8.12051
-8.1457
-8.17061
-8.19512
-8.21919
-8.24271
-8.26562
-8.2878
-8.30917
-8.32963
-8.34908
-8.3674
-8.38449
-8.40022
-8.41447
-8.42709
-8.43796
-8.44692
-8.45382
-8.45848
-8.46073
-8.46038
-8.45724
-8.45109
-8.4417
-8.42881
-8.41219
-8.39153
-8.36652
-8.33685
-8.30216
-8.26207
-8.21617
-8.16402
-8.10516
-8.03909
-7.96528
-7.88319
-7.79223
-7.6918
-7.58126
-7.45996
-7.32724
-7.18236
-7.02479
-6.85364
-6.66845
-6.46846
-6.25319
-6.02201
-5.77451
-5.51027
-5.22903
-4.93069
-4.61526
-4.28302
-3.93427
-3.56974
-3.19016
-2.79677
-2.39077
-1.97387
-1.54771
-1.11445
-0.676082
-0.2351
0.206305
0.645683
1.081
1.51004
1.93096
2.34171
2.74073
3.12641
3.49779
3.85381
4.19392
4.51751
4.82439
5.11435
5.38753
5.64408
5.8844
6.1089
6.31817
6.51281
6.69354
6.86106
7.01617
7.15959
7.29216
7.41458
7.52774
7.6323
7.72912
7.81883
7.90227
7.98003
8.05289
8.12143
8.18638
8.24829
8.30782
8.36548
8.42189
8.4775
8.53285
8.58834
8.64445
8.7015
8.75991
8.81993
8.88189
8.94598
9.01243
9.08137
9.15294
9.2272
9.30424
9.38404
9.46662
9.55194
9.63995
9.73058
9.82376
9.91938
10.0173
10.1174
10.2194
10.3231
10.4276
10.5332
10.635
10.7472
10.7975
-7.36333
-7.37193
-7.38388
-7.39468
-7.40396
-7.41231
-7.42005
-7.42743
-7.43466
-7.44199
-7.44957
-7.45757
-7.46608
-7.47524
-7.4851
-7.49575
-7.50719
-7.5195
-7.53266
-7.54672
-7.56164
-7.57744
-7.59408
-7.61157
-7.62985
-7.64893
-7.66874
-7.68927
-7.71045
-7.73229
-7.7547
-7.7777
-7.80118
-7.82515
-7.84952
-7.87428
-7.89933
-7.92468
-7.95025
-7.97602
-8.00191
-8.02791
-8.05392
-8.0799
-8.10577
-8.13147
-8.15692
-8.18206
-8.20679
-8.23105
-8.25475
-8.27781
-8.30012
-8.32162
-8.34219
-8.36175
-8.38017
-8.39736
-8.41319
-8.42755
-8.44029
-8.45131
-8.46044
-8.46754
-8.47244
-8.47498
-8.47497
-8.47223
-8.46653
-8.45766
-8.44538
-8.42942
-8.4095
-8.38532
-8.35655
-8.32282
-8.28377
-8.23898
-8.18799
-8.13034
-8.06553
-7.99301
-7.91222
-7.82256
-7.7234
-7.61409
-7.49394
-7.36226
-7.21841
-7.06147
-6.89098
-6.7061
-6.50625
-6.29074
-6.05902
-5.81057
-5.54496
-5.2619
-4.9612
-4.64292
-4.30719
-3.95446
-3.58534
-3.20073
-2.80177
-2.38985
-1.96663
-1.53398
-1.09403
-0.649084
-0.201582
0.246015
0.691314
1.13206
1.56604
1.99118
2.40545
2.80715
3.19481
3.56736
3.92391
4.26386
4.58673
4.89235
5.1806
5.45163
5.70569
5.94319
6.16464
6.37064
6.56188
6.7391
6.90304
7.05453
7.19434
7.3233
7.44219
7.55184
7.653
7.74648
7.83297
7.91325
7.988
8.05794
8.12371
8.186
8.2454
8.30255
8.358
8.41232
8.466
8.51956
8.57342
8.62804
8.68375
8.74095
8.79991
8.86092
8.92419
8.98992
9.05826
9.12931
9.20315
9.27982
9.35932
9.44164
9.52672
9.6145
9.70489
9.7978
9.89309
9.99061
10.0902
10.1915
10.2942
10.3975
10.5015
10.6014
10.7113
10.7599
-7.38275
-7.38975
-7.3994
-7.40826
-7.41604
-7.42318
-7.4299
-7.43642
-7.44294
-7.44964
-7.45668
-7.46421
-7.47233
-7.48113
-7.49067
-7.50103
-7.51222
-7.5243
-7.53726
-7.55114
-7.5659
-7.58157
-7.59811
-7.61552
-7.63375
-7.6528
-7.67261
-7.69317
-7.71443
-7.73637
-7.75892
-7.78207
-7.80575
-7.82992
-7.85451
-7.87949
-7.90479
-7.93038
-7.95619
-7.9822
-8.00832
-8.03452
-8.06072
-8.08686
-8.11287
-8.13869
-8.16423
-8.18943
-8.21419
-8.23845
-8.26212
-8.28513
-8.30737
-8.32878
-8.34925
-8.36869
-8.38699
-8.40406
-8.41979
-8.43404
-8.44672
-8.45768
-8.46679
-8.4739
-8.47888
-8.48153
-8.48171
-8.4792
-8.47383
-8.46534
-8.45353
-8.43812
-8.41884
-8.39537
-8.3674
-8.33456
-8.29646
-8.2527
-8.2028
-8.14631
-8.08269
-8.0114
-7.93184
-7.84342
-7.74546
-7.6373
-7.51822
-7.38749
-7.24434
-7.08808
-6.91795
-6.73323
-6.53329
-6.31735
-6.08487
-5.83524
-5.56803
-5.28291
-4.97962
-4.65819
-4.31872
-3.96173
-3.58774
-3.19785
-2.79308
-2.37507
-1.94538
-1.50618
-1.05954
-0.608091
-0.154218
0.299368
0.750339
1.19617
1.63469
2.06352
2.48076
2.88449
3.27351
3.64656
4.00295
4.34198
4.66341
4.96701
5.25286
5.52106
5.77199
6.00608
6.22391
6.42614
6.61351
6.78677
6.94676
7.09426
7.23017
7.35523
7.47036
7.57629
7.67388
7.76383
7.84699
7.92399
7.99565
8.06258
8.12554
8.18511
8.24199
8.29673
8.34997
8.4022
8.45398
8.50576
8.55803
8.61117
8.66559
8.72161
8.77955
8.83965
8.90216
8.96723
9.03502
9.1056
9.17907
9.25543
9.33469
9.41679
9.50169
9.5893
9.67951
9.77219
9.8672
9.96436
10.0634
10.164
10.2659
10.3681
10.4706
10.5688
10.6765
10.7239
-7.4021
-7.40756
-7.41499
-7.42185
-7.42795
-7.43361
-7.43902
-7.44437
-7.44984
-7.45563
-7.46185
-7.46865
-7.47612
-7.48435
-7.49338
-7.50328
-7.51407
-7.52579
-7.53842
-7.55202
-7.56653
-7.58198
-7.59834
-7.61561
-7.63372
-7.65269
-7.67244
-7.69299
-7.71425
-7.73622
-7.75882
-7.78205
-7.80581
-7.83008
-7.85476
-7.87986
-7.90527
-7.93098
-7.9569
-7.983
-8.00918
-8.03541
-8.06159
-8.08769
-8.11359
-8.13928
-8.16463
-8.18961
-8.21412
-8.23811
-8.26147
-8.28416
-8.30606
-8.32712
-8.34722
-8.3663
-8.38423
-8.40096
-8.41633
-8.43029
-8.44267
-8.45339
-8.4623
-8.46927
-8.47415
-8.47679
-8.477
-8.47462
-8.46944
-8.46125
-8.4498
-8.43487
-8.41613
-8.39331
-8.36607
-8.33405
-8.29688
-8.25407
-8.20525
-8.14983
-8.08736
-8.01721
-7.93883
-7.85153
-7.75469
-7.6475
-7.52936
-7.39942
-7.25692
-7.10108
-6.93116
-6.74647
-6.54623
-6.32973
-6.09629
-5.84532
-5.57635
-5.28897
-4.98297
-4.65823
-4.31495
-3.9535
-3.57461
-3.17924
-2.7687
-2.34452
-1.90853
-1.46285
-1.00986
-0.552164
-0.0923953
0.366814
0.822897
1.27332
1.71565
2.14749
2.5668
2.97188
3.3614
3.73425
4.08966
4.42705
4.74621
5.04706
5.32975
5.59448
5.84165
6.07176
6.28546
6.48346
6.66654
6.8355
6.99121
7.1345
7.26624
7.38726
7.49844
7.60056
7.69445
7.78086
7.86057
7.93431
8.00282
8.06677
8.12688
8.18378
8.23813
8.29052
8.34155
8.39174
8.44164
8.49171
8.54241
8.59415
8.6473
8.7022
8.75915
8.8184
8.88018
8.94463
9.01191
9.08208
9.15521
9.2313
9.31035
9.39229
9.47704
9.56451
9.65457
9.74707
9.84184
9.93866
10.0373
10.1373