/*--------------------------------*- C++ -*----------------------------------*\
  =========                 |
  \\      /  F ield         | OpenFOAM: The Open Source CFD Toolbox
   \\    /   O peration     | Website:  https://openfoam.org
    \\  /    A nd           | Version:  8
     \\/     M anipulation  |
\*---------------------------------------------------------------------------*/
FoamFile
{
    version     2.0;
    format      ascii;
    class       surfaceScalarField;
    location    "140";
    object      phi;
}
// * * * * * * * * * * * * * * * * * * * * * * * * * * * * * * * * * * * * * //

dimensions      [0 3 -1 0 0 0 0];

internalField   nonuniform List<scalar> 
24170
(
3.12901e-06
5.94003e-08
3.04661e-06
8.23968e-08
2.9735e-06
7.31113e-08
2.90483e-06
6.86623e-08
2.84047e-06
6.43657e-08
2.78308e-06
5.73812e-08
2.73371e-06
4.93773e-08
2.69169e-06
4.20215e-08
2.65592e-06
3.57632e-08
2.62536e-06
3.05641e-08
2.599e-06
2.63576e-08
2.57599e-06
2.30079e-08
2.55563e-06
2.03623e-08
2.53728e-06
1.83459e-08
2.52045e-06
1.6832e-08
2.5037e-06
1.67504e-08
2.48726e-06
1.64459e-08
2.66198e-08
2.46064e-06
3.45306e-06
2.35868e-08
3.457e-06
7.84546e-08
3.45053e-06
7.95822e-08
3.43906e-06
8.01294e-08
3.42426e-06
7.91624e-08
3.40699e-06
7.46448e-08
3.38773e-06
6.86352e-08
3.36716e-06
6.25932e-08
3.34595e-06
5.69689e-08
3.3247e-06
5.18186e-08
3.30387e-06
4.71844e-08
3.28374e-06
4.31389e-08
3.26449e-06
3.96097e-08
3.24613e-06
3.67009e-08
3.22876e-06
3.42032e-08
3.21228e-06
3.32295e-08
3.1971e-06
3.16245e-08
3.72809e-08
3.18644e-06
3.66815e-06
1.79491e-08
3.67919e-06
6.74194e-08
3.6854e-06
7.33669e-08
3.68942e-06
7.61125e-08
3.691e-06
7.75857e-08
3.69001e-06
7.56381e-08
3.68683e-06
7.18068e-08
3.68195e-06
6.74796e-08
3.67574e-06
6.31797e-08
3.66852e-06
5.90338e-08
3.66058e-06
5.51297e-08
3.65214e-06
5.15765e-08
3.64339e-06
4.83649e-08
3.63445e-06
4.56349e-08
3.62538e-06
4.32759e-08
3.6166e-06
4.20135e-08
3.6074e-06
4.08243e-08
4.28068e-08
3.60187e-06
3.92584e-06
1.74926e-08
3.93591e-06
5.73563e-08
3.94254e-06
6.67271e-08
3.94807e-06
7.05889e-08
3.95246e-06
7.31931e-08
3.95537e-06
7.27188e-08
3.95701e-06
7.01726e-08
3.95759e-06
6.68922e-08
3.95732e-06
6.34511e-08
3.95633e-06
6.00221e-08
3.95475e-06
5.67038e-08
3.95271e-06
5.36219e-08
3.95027e-06
5.07983e-08
3.94755e-06
4.83607e-08
3.94455e-06
4.62711e-08
3.94164e-06
4.49307e-08
3.93855e-06
4.39129e-08
4.41342e-08
3.93722e-06
4.2082e-06
1.64233e-08
4.21597e-06
4.95825e-08
4.22165e-06
6.10447e-08
4.22674e-06
6.55044e-08
4.23146e-06
6.84711e-08
4.2354e-06
6.87803e-08
4.23853e-06
6.70449e-08
4.24096e-06
6.44659e-08
4.24279e-06
6.16213e-08
4.2441e-06
5.87047e-08
4.24499e-06
5.58215e-08
4.24551e-06
5.30968e-08
4.24573e-06
5.0577e-08
4.24573e-06
4.83637e-08
4.24555e-06
4.64567e-08
4.24542e-06
4.50567e-08
4.24537e-06
4.39631e-08
4.33205e-08
4.24618e-06
4.51071e-06
1.48034e-08
4.51687e-06
4.3419e-08
4.5221e-06
5.58107e-08
4.5269e-06
6.07073e-08
4.53158e-06
6.37843e-08
4.5358e-06
6.45639e-08
4.53943e-06
6.34113e-08
4.54254e-06
6.13543e-08
4.5452e-06
5.89594e-08
4.54747e-06
5.64326e-08
4.5494e-06
5.38897e-08
4.55105e-06
5.14468e-08
4.55246e-06
4.91658e-08
4.5537e-06
4.71219e-08
4.55483e-06
4.53286e-08
4.55602e-06
4.38697e-08
4.55736e-06
4.26242e-08
4.14888e-08
4.55919e-06
4.83433e-06
1.31963e-08
4.83961e-06
3.81335e-08
4.84472e-06
5.07034e-08
4.8494e-06
5.60265e-08
4.85401e-06
5.91799e-08
4.85829e-06
6.02816e-08
4.86212e-06
5.95817e-08
4.86554e-06
5.79404e-08
4.86859e-06
5.59052e-08
4.87133e-06
5.36929e-08
4.87379e-06
5.1427e-08
4.87603e-06
4.92149e-08
4.87807e-06
4.71245e-08
4.87998e-06
4.52106e-08
4.88182e-06
4.34869e-08
4.88372e-06
4.19739e-08
4.88576e-06
4.05793e-08
3.91531e-08
4.8881e-06
5.18104e-06
1.1733e-08
5.18574e-06
3.34375e-08
5.19072e-06
4.5717e-08
5.19535e-06
5.13965e-08
5.19991e-06
5.46213e-08
5.20423e-06
5.59561e-08
5.20819e-06
5.56263e-08
5.21179e-06
5.43386e-08
5.21508e-06
5.26094e-08
5.21811e-06
5.06665e-08
5.2209e-06
4.86367e-08
5.22349e-06
4.66214e-08
5.22593e-06
4.46877e-08
5.22826e-06
4.28776e-08
5.23055e-06
4.11998e-08
5.23288e-06
3.96444e-08
5.23532e-06
3.81356e-08
3.65435e-08
5.23793e-06
5.55269e-06
1.03807e-08
5.55687e-06
2.92537e-08
5.56166e-06
4.09281e-08
5.56625e-06
4.68114e-08
5.57079e-06
5.00858e-08
5.57516e-06
5.15859e-08
5.57922e-06
5.15627e-08
5.58297e-06
5.05857e-08
5.58645e-06
4.91288e-08
5.5897e-06
4.74256e-08
5.59273e-06
4.56056e-08
5.59559e-06
4.3764e-08
5.59831e-06
4.19653e-08
5.60094e-06
4.02437e-08
5.60354e-06
3.86034e-08
5.60616e-06
3.70246e-08
5.60885e-06
3.54445e-08
3.37749e-08
5.61162e-06
5.95104e-06
9.12088e-09
5.95477e-06
2.55161e-08
5.95933e-06
3.63708e-08
5.96386e-06
4.2277e-08
5.96838e-06
4.55649e-08
5.97279e-06
4.71729e-08
5.97696e-06
4.73965e-08
5.98085e-06
4.6692e-08
5.9845e-06
4.54804e-08
5.98793e-06
4.39958e-08
5.99116e-06
4.23671e-08
5.99424e-06
4.06849e-08
5.9972e-06
3.90093e-08
6.00007e-06
3.73706e-08
6.0029e-06
3.57719e-08
6.00573e-06
3.41929e-08
6.00859e-06
3.25873e-08
3.09011e-08
6.01146e-06
6.37798e-06
7.95261e-09
6.38133e-06
2.21646e-08
6.38564e-06
3.20593e-08
6.39011e-06
3.7813e-08
6.39461e-06
4.10667e-08
6.39905e-06
4.27314e-08
6.4033e-06
4.31414e-08
6.40733e-06
4.26689e-08
6.41113e-06
4.16769e-08
6.41473e-06
4.03913e-08
6.41816e-06
3.89397e-08
6.42144e-06
3.74067e-08
6.4246e-06
3.58486e-08
6.42768e-06
3.42947e-08
6.4307e-06
3.27484e-08
6.4337e-06
3.11962e-08
6.43668e-06
2.96048e-08
2.7952e-08
6.43963e-06
5.74176e-06
7.02913e-09
5.74433e-06
1.95893e-08
5.74779e-06
2.86021e-08
5.7515e-06
3.41012e-08
5.75528e-06
3.72836e-08
5.75905e-06
3.89617e-08
5.76271e-06
3.94838e-08
5.7662e-06
3.91739e-08
5.76953e-06
3.83474e-08
5.77271e-06
3.72166e-08
5.77574e-06
3.59046e-08
5.77866e-06
3.44923e-08
5.78147e-06
3.30339e-08
5.78421e-06
3.15558e-08
5.78689e-06
3.0067e-08
5.78953e-06
2.85571e-08
5.79213e-06
2.70072e-08
2.54102e-08
5.79467e-06
6.99914e-06
6.04754e-09
7.00186e-06
1.6865e-08
7.00561e-06
2.48509e-08
7.00976e-06
2.99506e-08
7.01406e-06
3.29827e-08
7.01839e-06
3.46288e-08
7.02264e-06
3.52327e-08
7.02675e-06
3.50707e-08
7.03069e-06
3.44091e-08
7.03446e-06
3.34386e-08
7.03809e-06
3.2277e-08
7.04158e-06
3.09993e-08
7.04496e-06
2.96557e-08
7.04825e-06
2.82745e-08
7.05145e-06
2.68654e-08
7.05458e-06
2.54286e-08
7.05763e-06
2.39509e-08
2.24477e-08
7.0606e-06
8.53188e-06
5.01671e-09
8.53473e-06
1.40168e-08
8.53874e-06
2.08316e-08
8.54333e-06
2.53674e-08
8.54817e-06
2.81436e-08
8.5531e-06
2.96936e-08
8.558e-06
3.03306e-08
8.56279e-06
3.02885e-08
8.56742e-06
2.97799e-08
8.57188e-06
2.89714e-08
8.57619e-06
2.79669e-08
8.58035e-06
2.68389e-08
8.58438e-06
2.56301e-08
8.58829e-06
2.43711e-08
8.59208e-06
2.30737e-08
8.59576e-06
2.17452e-08
8.59933e-06
2.03827e-08
1.90084e-08
8.60277e-06
1.04003e-05
3.94436e-09
1.04032e-05
1.10641e-08
1.04075e-05
1.65645e-08
1.04125e-05
2.0357e-08
1.04179e-05
2.27477e-08
1.04235e-05
2.41145e-08
1.04291e-05
2.47206e-08
1.04346e-05
2.47521e-08
1.04401e-05
2.43757e-08
1.04453e-05
2.37205e-08
1.04504e-05
2.2882e-08
1.04553e-05
2.1916e-08
1.04601e-05
2.08684e-08
1.04647e-05
1.9761e-08
1.04691e-05
1.86152e-08
1.04735e-05
1.74369e-08
1.04776e-05
1.62346e-08
1.50321e-08
1.04816e-05
1.26779e-05
2.83601e-09
1.2681e-05
7.99835e-09
1.26855e-05
1.20451e-08
1.26909e-05
1.49112e-08
1.26969e-05
1.6762e-08
1.27032e-05
1.78388e-08
1.27096e-05
1.83314e-08
1.2716e-05
1.83798e-08
1.27222e-05
1.80998e-08
1.27284e-05
1.75893e-08
1.27343e-05
1.69168e-08
1.27401e-05
1.6134e-08
1.27457e-05
1.52715e-08
1.27511e-05
1.43563e-08
1.27563e-05
1.34018e-08
1.27613e-05
1.24241e-08
1.27661e-05
1.14264e-08
1.04422e-08
1.27707e-05
1.54543e-05
1.67931e-09
1.54576e-05
4.77271e-09
1.54624e-05
7.21252e-09
1.54683e-05
8.96481e-09
1.5475e-05
1.01082e-08
1.54821e-05
1.07696e-08
1.54893e-05
1.10579e-08
1.54967e-05
1.10573e-08
1.55039e-05
1.08366e-08
1.55111e-05
1.04549e-08
1.5518e-05
9.95672e-09
1.55248e-05
9.37505e-09
1.55313e-05
8.73308e-09
1.55376e-05
8.04901e-09
1.55437e-05
7.33603e-09
1.55495e-05
6.60596e-09
1.55551e-05
5.86501e-09
5.1405e-09
1.55604e-05
1.88389e-05
4.33992e-10
1.88424e-05
1.25894e-09
1.88477e-05
1.88912e-09
1.88544e-05
2.32261e-09
1.88619e-05
2.58386e-09
1.887e-05
2.70146e-09
1.88783e-05
2.69724e-09
1.88868e-05
2.59026e-09
1.88952e-05
2.3999e-09
1.89035e-05
2.14339e-09
1.89116e-05
1.83496e-09
1.89195e-05
1.48599e-09
1.89272e-05
1.10606e-09
1.89345e-05
7.03458e-10
1.89416e-05
2.85333e-10
1.89483e-05
-1.41284e-10
1.89547e-05
-5.72536e-10
-9.86846e-10
1.89609e-05
2.29648e-05
-1.00242e-09
2.29689e-05
-2.83349e-09
2.29751e-05
-4.3474e-09
2.29829e-05
-5.49383e-09
2.29918e-05
-6.29158e-09
2.30013e-05
-6.8237e-09
2.30112e-05
-7.18104e-09
2.30212e-05
-7.41495e-09
2.30312e-05
-7.56671e-09
2.3041e-05
-7.66394e-09
2.30505e-05
-7.73535e-09
2.30598e-05
-7.79196e-09
2.30688e-05
-7.84603e-09
2.30774e-05
-7.89846e-09
2.30856e-05
-7.95495e-09
2.30935e-05
-8.01207e-09
2.3101e-05
-8.07317e-09
-8.12118e-09
2.31081e-05
1.68118e-05
-2.13063e-09
1.6815e-05
-6.02322e-09
1.68199e-05
-9.20496e-09
1.68259e-05
-1.1529e-08
1.68327e-05
-1.30481e-08
1.68398e-05
-1.39946e-08
1.68472e-05
-1.45499e-08
1.68546e-05
-1.48259e-08
1.68619e-05
-1.48929e-08
1.68691e-05
-1.48327e-08
1.68761e-05
-1.46894e-08
1.68828e-05
-1.45053e-08
1.68892e-05
-1.42921e-08
1.68954e-05
-1.40728e-08
1.69013e-05
-1.3847e-08
1.69069e-05
-1.36275e-08
1.69122e-05
-1.34087e-08
-1.31894e-08
1.69173e-05
1.46357e-05
-3.21418e-09
1.46388e-05
-9.12705e-09
1.46435e-05
-1.39457e-08
1.46493e-05
-1.73063e-08
1.46556e-05
-1.93778e-08
1.46622e-05
-2.06082e-08
1.46689e-05
-2.12709e-08
1.46756e-05
-2.14975e-08
1.46821e-05
-2.14246e-08
1.46885e-05
-2.1164e-08
1.46946e-05
-2.07959e-08
1.47004e-05
-2.03615e-08
1.4706e-05
-1.98945e-08
1.47114e-05
-1.94126e-08
1.47164e-05
-1.8932e-08
1.47213e-05
-1.84565e-08
1.47258e-05
-1.79939e-08
-1.75335e-08
1.47302e-05
1.27411e-05
-4.22821e-09
1.27443e-05
-1.22698e-08
1.27491e-05
-1.87997e-08
1.27548e-05
-2.29824e-08
1.27608e-05
-2.53945e-08
1.2767e-05
-2.68097e-08
1.27732e-05
-2.74902e-08
1.27793e-05
-2.75862e-08
1.27852e-05
-2.73045e-08
1.27909e-05
-2.68106e-08
1.27963e-05
-2.61955e-08
1.28014e-05
-2.55084e-08
1.28063e-05
-2.47901e-08
1.28109e-05
-2.40613e-08
1.28153e-05
-2.3343e-08
1.28195e-05
-2.26364e-08
1.28235e-05
-2.19523e-08
-2.12804e-08
1.28272e-05
1.10918e-05
-5.07567e-09
1.1095e-05
-1.55049e-08
1.11002e-05
-2.3945e-08
1.11058e-05
-2.86323e-08
1.11116e-05
-3.11607e-08
1.11174e-05
-3.26589e-08
1.11232e-05
-3.32578e-08
1.11287e-05
-3.31403e-08
1.1134e-05
-3.26088e-08
1.11391e-05
-3.18613e-08
1.11439e-05
-3.09885e-08
1.11484e-05
-3.00494e-08
1.11527e-05
-2.90836e-08
1.11568e-05
-2.81246e-08
1.11606e-05
-2.71806e-08
1.11642e-05
-2.62666e-08
1.11677e-05
-2.53793e-08
-2.45214e-08
1.11709e-05
9.65582e-06
-5.68582e-09
9.65926e-06
-1.894e-08
9.66462e-06
-2.93073e-08
9.67014e-06
-3.415e-08
9.67572e-06
-3.67441e-08
9.68131e-06
-3.82465e-08
9.68667e-06
-3.86221e-08
9.69173e-06
-3.82019e-08
9.69651e-06
-3.7389e-08
9.70103e-06
-3.6378e-08
9.70529e-06
-3.52473e-08
9.70929e-06
-3.40574e-08
9.71306e-06
-3.28555e-08
9.71661e-06
-3.16697e-08
9.71994e-06
-3.05162e-08
9.72307e-06
-2.94008e-08
9.72602e-06
-2.83254e-08
-2.72874e-08
9.72879e-06
8.40533e-06
-5.659e-09
8.40965e-06
-2.32642e-08
8.4149e-06
-3.45558e-08
8.41994e-06
-3.91953e-08
8.42533e-06
-4.21308e-08
8.43076e-06
-4.36782e-08
8.43587e-06
-4.37331e-08
8.44061e-06
-4.29349e-08
8.445e-06
-4.17863e-08
8.44909e-06
-4.04631e-08
8.45288e-06
-3.90362e-08
8.45639e-06
-3.75677e-08
8.45964e-06
-3.61065e-08
8.46264e-06
-3.46796e-08
8.46543e-06
-3.33024e-08
8.46801e-06
-3.19808e-08
8.4704e-06
-3.07173e-08
-2.95057e-08
8.47262e-06
7.31455e-06
-2.92341e-09
7.3212e-06
-2.99154e-08
7.32676e-06
-4.01187e-08
7.33173e-06
-4.41608e-08
7.33714e-06
-4.75463e-08
7.34248e-06
-4.90183e-08
7.34738e-06
-4.8632e-08
7.35182e-06
-4.737e-08
7.35582e-06
-4.5787e-08
7.3594e-06
-4.40421e-08
7.36258e-06
-4.22148e-08
7.36539e-06
-4.03821e-08
7.36787e-06
-3.85905e-08
7.37006e-06
-3.6866e-08
7.37198e-06
-3.52244e-08
7.37367e-06
-3.36677e-08
7.37515e-06
-3.21968e-08
-3.08007e-08
7.37644e-06
6.36245e-06
4.6906e-09
6.3719e-06
-3.93636e-08
6.37934e-06
-4.7555e-08
6.38599e-06
-5.08149e-08
6.39229e-06
-5.38423e-08
6.39762e-06
-5.43475e-08
6.40193e-06
-5.29442e-08
6.40543e-06
-5.08691e-08
6.40825e-06
-4.8606e-08
6.41045e-06
-4.62452e-08
6.4121e-06
-4.38683e-08
6.41327e-06
-4.15473e-08
6.41401e-06
-3.93352e-08
6.4144e-06
-3.72484e-08
6.41448e-06
-3.53017e-08
6.4143e-06
-3.34912e-08
6.41392e-06
-3.18168e-08
-3.02626e-08
6.41337e-06
5.5412e-06
8.95159e-09
5.55033e-06
-4.84915e-08
5.55836e-06
-5.55814e-08
5.56607e-06
-5.85271e-08
5.57254e-06
-6.03154e-08
5.57688e-06
-5.86851e-08
5.57914e-06
-5.52001e-08
5.57971e-06
-5.14438e-08
5.57898e-06
-4.78684e-08
5.57721e-06
-4.44782e-08
5.57463e-06
-4.12914e-08
5.57144e-06
-3.83501e-08
5.56776e-06
-3.56627e-08
5.56374e-06
-3.3221e-08
5.55946e-06
-3.10216e-08
5.55502e-06
-2.90473e-08
5.5505e-06
-2.73023e-08
-2.57336e-08
5.54597e-06
4.86004e-06
-2.34848e-08
4.86539e-06
-5.38365e-08
4.86525e-06
-5.54419e-08
4.86219e-06
-5.54657e-08
4.85703e-06
-5.51539e-08
4.84954e-06
-5.11951e-08
4.83985e-06
-4.5516e-08
4.82848e-06
-4.00638e-08
4.81592e-06
-3.53098e-08
4.80265e-06
-3.12162e-08
4.78907e-06
-2.77096e-08
4.77545e-06
-2.4727e-08
4.76198e-06
-2.21931e-08
4.7488e-06
-2.00358e-08
4.73599e-06
-1.82079e-08
4.72362e-06
-1.66777e-08
4.7118e-06
-1.54832e-08
-1.51425e-08
4.7012e-06
4.17919e-06
4.12535e-06
4.06991e-06
4.01445e-06
3.95929e-06
3.9081e-06
3.86258e-06
3.82252e-06
3.78721e-06
3.75599e-06
3.72828e-06
3.70356e-06
3.68136e-06
3.66133e-06
3.64312e-06
3.62644e-06
3.61096e-06
3.59582e-06
2.0764e-08
-2.07769e-08
3.74931e-08
-1.67692e-08
4.59483e-08
-8.45629e-09
4.60079e-08
-8.95471e-11
3.88836e-08
7.1289e-09
2.60665e-08
1.27924e-08
9.09815e-09
1.69793e-08
-1.08942e-08
1.99711e-08
-3.29873e-08
2.21076e-08
-5.66978e-08
2.36882e-08
-8.16389e-08
2.49585e-08
-1.07775e-07
2.61071e-08
-1.34982e-07
2.72274e-08
-1.63292e-07
2.82738e-08
-1.92444e-07
2.91767e-08
-2.2278e-07
3.02935e-08
-2.54346e-07
3.15979e-08
-2.86283e-07
3.18942e-08
-3.18537e-07
3.22806e-08
-3.53982e-07
3.54026e-08
-3.9475e-07
4.08004e-08
-4.43574e-07
4.87689e-08
-4.90591e-07
4.70467e-08
-5.29795e-07
3.91299e-08
-5.71946e-07
4.2178e-08
-6.17392e-07
4.53737e-08
-6.6441e-07
4.70516e-08
-7.11904e-07
4.74252e-08
-7.59541e-07
4.76686e-08
-8.07361e-07
4.7758e-08
-8.55019e-07
4.77011e-08
-9.02587e-07
4.75163e-08
-9.49787e-07
4.72445e-08
-9.96734e-07
4.69041e-08
-1.0432e-06
4.6527e-08
-1.08936e-06
4.61205e-08
-1.135e-06
4.57083e-08
-1.18033e-06
4.52899e-08
-1.22515e-06
4.48847e-08
-1.26968e-06
4.44875e-08
-1.31374e-06
4.41145e-08
-1.35754e-06
4.37569e-08
-1.40091e-06
4.34273e-08
-1.44406e-06
4.31131e-08
-1.48683e-06
4.28243e-08
-1.52941e-06
4.25483e-08
-1.57166e-06
4.2296e-08
-1.61374e-06
4.20526e-08
-1.65552e-06
4.18273e-08
-1.69716e-06
4.16043e-08
-1.73852e-06
4.1394e-08
-1.77974e-06
4.11794e-08
-1.82069e-06
4.09707e-08
-1.86149e-06
4.07528e-08
-1.902e-06
4.05357e-08
-1.94234e-06
4.0301e-08
-1.98237e-06
4.00591e-08
-2.02221e-06
3.97938e-08
-2.06169e-06
3.9516e-08
-2.10093e-06
3.92065e-08
-2.13977e-06
3.88774e-08
-2.17831e-06
3.8512e-08
-2.21638e-06
3.81216e-08
-2.25407e-06
3.76867e-08
-2.29124e-06
3.72192e-08
-2.32794e-06
3.66999e-08
-2.36403e-06
3.61401e-08
-2.39955e-06
3.55206e-08
-2.43435e-06
3.48522e-08
-2.46846e-06
3.41154e-08
-2.50173e-06
3.332e-08
-2.53418e-06
3.24472e-08
-2.56563e-06
3.15058e-08
-2.59611e-06
3.04789e-08
-2.62544e-06
2.93742e-08
-2.6536e-06
2.81718e-08
-2.68044e-06
2.68749e-08
-2.70589e-06
2.54639e-08
-2.72979e-06
2.39378e-08
-2.75203e-06
2.22762e-08
-2.77246e-06
2.04745e-08
-2.79093e-06
1.85123e-08
-2.80725e-06
1.63782e-08
-2.82125e-06
1.40464e-08
-2.83269e-06
1.1498e-08
-2.84134e-06
8.70837e-09
-2.84697e-06
5.69116e-09
-2.84942e-06
2.50613e-09
-2.84876e-06
-6.20598e-10
-2.84513e-06
-3.59531e-09
-2.83852e-06
-6.5754e-09
-2.82884e-06
-9.62647e-09
-2.81599e-06
-1.27835e-08
-2.79987e-06
-1.60473e-08
-2.78037e-06
-1.9422e-08
-2.7574e-06
-2.28961e-08
-2.73086e-06
-2.64635e-08
-2.70069e-06
-3.01096e-08
-2.6668e-06
-3.38219e-08
-2.62916e-06
-3.75813e-08
-2.58773e-06
-4.13691e-08
-2.54249e-06
-4.51572e-08
-2.49345e-06
-4.89267e-08
-2.44065e-06
-5.26442e-08
-2.38418e-06
-5.63047e-08
-2.32411e-06
-5.98705e-08
-2.2606e-06
-6.3329e-08
-2.19379e-06
-6.66174e-08
-2.12387e-06
-6.97597e-08
-2.05096e-06
-7.27298e-08
-1.97534e-06
-7.54643e-08
-1.89728e-06
-7.7889e-08
-1.81708e-06
-8.00626e-08
-1.73499e-06
-8.19365e-08
-1.65135e-06
-8.3526e-08
-1.56644e-06
-8.47663e-08
-1.48064e-06
-8.5693e-08
-1.39429e-06
-8.62663e-08
-1.30776e-06
-8.6526e-08
-1.22129e-06
-8.64385e-08
-1.13519e-06
-8.60307e-08
-1.04973e-06
-8.52667e-08
-9.65301e-07
-8.42039e-08
-8.82214e-07
-8.28343e-08
-8.00814e-07
-8.12397e-08
-7.21291e-07
-7.93969e-08
-6.43903e-07
-7.7373e-08
-5.68778e-07
-7.51387e-08
-4.96131e-07
-7.27599e-08
-4.26047e-07
-7.02128e-08
-3.587e-07
-6.75621e-08
-2.94131e-07
-6.47898e-08
-2.32469e-07
-6.1951e-08
-1.73722e-07
-5.90363e-08
-1.18001e-07
-5.60619e-08
-6.52697e-08
-5.30665e-08
-1.55359e-08
-5.01066e-08
3.11617e-08
-4.70629e-08
7.48948e-08
-4.41199e-08
1.15725e-07
-4.11794e-08
1.53497e-07
-3.80947e-08
1.88326e-07
-3.50737e-08
2.20325e-07
-3.21913e-08
2.49677e-07
-2.94734e-08
2.76529e-07
-2.69371e-08
3.01093e-07
-2.45971e-08
3.23535e-07
-2.24541e-08
3.44071e-07
-2.05099e-08
3.6287e-07
-1.87587e-08
3.80145e-07
-1.72072e-08
3.96075e-07
-1.58541e-08
4.10878e-07
-1.47046e-08
4.24727e-07
-1.37469e-08
4.37833e-07
-1.29851e-08
4.50365e-07
-1.24085e-08
4.62524e-07
-1.20194e-08
4.74469e-07
-1.18034e-08
4.86385e-07
-1.17597e-08
4.98413e-07
-1.18722e-08
5.10719e-07
-1.21377e-08
5.23417e-07
-1.25312e-08
5.36639e-07
-1.3046e-08
5.50471e-07
-1.36581e-08
5.65013e-07
-1.43631e-08
5.80331e-07
-1.51426e-08
5.96502e-07
-1.5993e-08
6.13559e-07
-1.6886e-08
6.31547e-07
-1.78132e-08
6.50471e-07
-1.87569e-08
6.70355e-07
-1.97124e-08
6.91175e-07
-2.06557e-08
7.12911e-07
-2.15656e-08
7.35469e-07
-2.23954e-08
7.58717e-07
-2.30797e-08
7.82353e-07
-2.34769e-08
8.05823e-07
-2.33097e-08
8.27899e-07
-2.19275e-08
8.45571e-07
-1.75293e-08
8.51816e-07
-6.12341e-09
3.58371e-08
8.16059e-07
1.03183e-08
-3.11065e-08
1.12523e-08
-1.77245e-08
6.52414e-09
-3.73115e-09
-2.38155e-09
8.80344e-09
-1.49472e-08
1.96943e-08
-3.10501e-08
2.88858e-08
-5.05058e-08
3.64365e-08
-7.30876e-08
4.25443e-08
-9.84757e-08
4.74989e-08
-1.26417e-07
5.16188e-08
-1.56662e-07
5.52082e-08
-1.89097e-07
5.8528e-08
-2.23633e-07
6.17683e-08
-2.60384e-07
6.5007e-08
-2.99417e-07
6.8217e-08
-3.40544e-07
7.14019e-08
-3.83495e-07
7.45592e-08
-4.29175e-07
7.75585e-08
-4.77636e-07
8.07532e-08
-5.27036e-07
8.47877e-08
-5.7556e-07
8.93351e-08
-6.20122e-07
9.33185e-08
-6.6743e-07
9.43603e-08
-7.21286e-07
9.29674e-08
-7.72171e-07
9.3067e-08
-8.20561e-07
9.37474e-08
-8.67741e-07
9.4235e-08
-9.14535e-07
9.42e-08
-9.60694e-07
9.38321e-08
-1.00623e-06
9.32778e-08
-1.05111e-06
9.25867e-08
-1.0954e-06
9.17924e-08
-1.13907e-06
9.09271e-08
-1.1822e-06
9.00164e-08
-1.22474e-06
8.90846e-08
-1.26678e-06
8.81503e-08
-1.30828e-06
8.72308e-08
-1.34934e-06
8.63358e-08
-1.38991e-06
8.54758e-08
-1.43009e-06
8.46539e-08
-1.46984e-06
8.38753e-08
-1.50922e-06
8.31385e-08
-1.54823e-06
8.24451e-08
-1.58691e-06
8.17906e-08
-1.62525e-06
8.1174e-08
-1.66329e-06
8.05881e-08
-1.70101e-06
8.003e-08
-1.73845e-06
7.94912e-08
-1.77558e-06
7.8968e-08
-1.81243e-06
7.84512e-08
-1.84896e-06
7.79371e-08
-1.88521e-06
7.74168e-08
-1.92112e-06
7.68874e-08
-1.95672e-06
7.63401e-08
-1.99195e-06
7.57711e-08
-2.02683e-06
7.5171e-08
-2.06131e-06
7.45371e-08
-2.09538e-06
7.38601e-08
-2.129e-06
7.31371e-08
-2.16215e-06
7.23586e-08
-2.19479e-06
7.1523e-08
-2.2269e-06
7.06207e-08
-2.25842e-06
6.96493e-08
-2.28932e-06
6.85985e-08
-2.31955e-06
6.74658e-08
-2.34908e-06
6.62404e-08
-2.37784e-06
6.49199e-08
-2.40581e-06
6.34934e-08
-2.43289e-06
6.19582e-08
-2.45907e-06
6.03027e-08
-2.48425e-06
5.85237e-08
-2.5084e-06
5.66096e-08
-2.53143e-06
5.45565e-08
-2.55329e-06
5.23507e-08
-2.57388e-06
4.99858e-08
-2.59314e-06
4.74455e-08
-2.61097e-06
4.47215e-08
-2.62729e-06
4.1798e-08
-2.64199e-06
3.86663e-08
-2.65501e-06
3.53112e-08
-2.66623e-06
3.17256e-08
-2.67559e-06
2.78996e-08
-2.68301e-06
2.38318e-08
-2.68845e-06
1.95203e-08
-2.69189e-06
1.49734e-08
-2.69336e-06
1.02044e-08
-2.69286e-06
5.23793e-09
-2.69042e-06
9.72078e-11
-2.68578e-06
-5.23707e-09
-2.67857e-06
-1.08007e-08
-2.66853e-06
-1.65881e-08
-2.65553e-06
-2.26038e-08
-2.63943e-06
-2.88451e-08
-2.62013e-06
-3.53115e-08
-2.59752e-06
-4.199e-08
-2.57151e-06
-4.88688e-08
-2.54201e-06
-5.59239e-08
-2.50895e-06
-6.31348e-08
-2.47227e-06
-7.04669e-08
-2.43193e-06
-7.78915e-08
-2.3879e-06
-8.5361e-08
-2.34017e-06
-9.28341e-08
-2.28876e-06
-1.00257e-07
-2.23373e-06
-1.07584e-07
-2.17516e-06
-1.14767e-07
-2.11316e-06
-1.21755e-07
-2.04788e-06
-1.28492e-07
-1.97948e-06
-1.34918e-07
-1.90814e-06
-1.4099e-07
-1.83412e-06
-1.46665e-07
-1.75763e-06
-1.51855e-07
-1.67896e-06
-1.56471e-07
-1.59842e-06
-1.60509e-07
-1.51633e-06
-1.63959e-07
-1.433e-06
-1.6678e-07
-1.34878e-06
-1.68931e-07
-1.26399e-06
-1.70408e-07
-1.17903e-06
-1.71209e-07
-1.09421e-06
-1.71342e-07
-1.00984e-06
-1.70806e-07
-9.262e-07
-1.69609e-07
-8.43615e-07
-1.67754e-07
-7.6239e-07
-1.65292e-07
-6.82845e-07
-1.62264e-07
-6.0524e-07
-1.58748e-07
-5.2981e-07
-1.54778e-07
-4.56741e-07
-1.50417e-07
-3.86202e-07
-1.45692e-07
-3.1833e-07
-1.40666e-07
-2.53241e-07
-1.35364e-07
-1.91027e-07
-1.29854e-07
-1.31756e-07
-1.24158e-07
-7.5481e-08
-1.18335e-07
-2.22134e-08
-1.12424e-07
2.80619e-08
-1.06465e-07
7.53596e-08
-1.00495e-07
1.19666e-07
-9.45475e-08
1.61061e-07
-8.85921e-08
1.99536e-07
-8.27326e-08
2.35205e-07
-7.69743e-08
2.68316e-07
-7.1321e-08
2.99014e-07
-6.58554e-08
3.2742e-07
-6.06602e-08
3.53675e-07
-5.57616e-08
3.77918e-07
-5.1201e-08
4.00315e-07
-4.69899e-08
4.21026e-07
-4.31551e-08
4.40234e-07
-3.96873e-08
4.58112e-07
-3.66046e-08
4.74852e-07
-3.38964e-08
4.90629e-07
-3.15819e-08
5.05636e-07
-2.96444e-08
5.20046e-07
-2.80934e-08
5.34047e-07
-2.69058e-08
5.47803e-07
-2.60892e-08
5.61492e-07
-2.56152e-08
5.75261e-07
-2.54852e-08
5.89269e-07
-2.56635e-08
6.03644e-07
-2.6149e-08
6.18523e-07
-2.69022e-08
6.34013e-07
-2.79133e-08
6.50227e-07
-2.91373e-08
6.67246e-07
-3.0563e-08
6.85159e-07
-3.21476e-08
7.04022e-07
-3.38868e-08
7.23898e-07
-3.57383e-08
7.44822e-07
-3.76884e-08
7.66835e-07
-3.96944e-08
7.89951e-07
-4.17499e-08
8.14186e-07
-4.38135e-08
8.39524e-07
-4.58672e-08
8.65942e-07
-4.78432e-08
8.93356e-07
-4.96773e-08
9.21636e-07
-5.12154e-08
9.50502e-07
-5.22088e-08
9.79477e-07
-5.21434e-08
1.00754e-06
-4.98642e-08
1.0333e-06
-4.31575e-08
1.05353e-06
-2.62411e-08
2.09172e-08
1.06854e-06
-4.53356e-09
-2.658e-08
-1.56069e-08
-6.66409e-09
-2.95544e-08
1.02152e-08
-4.56799e-08
2.49218e-08
-6.38314e-08
3.78457e-08
-8.41312e-08
4.91797e-08
-1.06739e-07
5.90446e-08
-1.31792e-07
6.75914e-08
-1.59321e-07
7.50294e-08
-1.89317e-07
8.16069e-08
-2.21683e-07
8.7576e-08
-2.56321e-07
9.31553e-08
-2.93048e-07
9.84975e-08
-3.31721e-07
1.03668e-07
-3.72144e-07
1.08643e-07
-4.14116e-07
1.13364e-07
-4.57319e-07
1.17767e-07
-5.01564e-07
1.21796e-07
-5.46394e-07
1.25591e-07
-5.90829e-07
1.29217e-07
-6.33947e-07
1.3246e-07
-6.75535e-07
1.34902e-07
-7.17238e-07
1.3607e-07
-7.60392e-07
1.36114e-07
-8.03295e-07
1.35975e-07
-8.45348e-07
1.35793e-07
-8.8653e-07
1.3542e-07
-9.27118e-07
1.34779e-07
-9.67189e-07
1.33906e-07
-1.00678e-06
1.32861e-07
-1.04588e-06
1.31693e-07
-1.08454e-06
1.30442e-07
-1.12275e-06
1.2914e-07
-1.16055e-06
1.27814e-07
-1.19795e-06
1.26488e-07
-1.23499e-06
1.25178e-07
-1.27165e-06
1.23901e-07
-1.30799e-06
1.22667e-07
-1.34399e-06
1.21483e-07
-1.37969e-06
1.20353e-07
-1.41509e-06
1.19279e-07
-1.45022e-06
1.1826e-07
-1.48506e-06
1.17294e-07
-1.51965e-06
1.16375e-07
-1.55397e-06
1.15501e-07
-1.58804e-06
1.14662e-07
-1.62186e-06
1.13852e-07
-1.65543e-06
1.13062e-07
-1.68874e-06
1.12285e-07
-1.72179e-06
1.11509e-07
-1.75458e-06
1.10728e-07
-1.7871e-06
1.09933e-07
-1.81932e-06
1.09114e-07
-1.85124e-06
1.08264e-07
-1.88284e-06
1.07374e-07
-1.91411e-06
1.06435e-07
-1.94501e-06
1.0544e-07
-1.97553e-06
1.04379e-07
-2.00564e-06
1.03245e-07
-2.03531e-06
1.0203e-07
-2.06451e-06
1.00725e-07
-2.09321e-06
9.93224e-08
-2.12137e-06
9.78147e-08
-2.14896e-06
9.61923e-08
-2.17594e-06
9.44474e-08
-2.20226e-06
9.25702e-08
-2.22789e-06
9.05526e-08
-2.25277e-06
8.83844e-08
-2.27686e-06
8.60571e-08
-2.30011e-06
8.35598e-08
-2.32245e-06
8.08832e-08
-2.34385e-06
7.80157e-08
-2.36422e-06
7.49467e-08
-2.38353e-06
7.16629e-08
-2.40168e-06
6.81513e-08
-2.41862e-06
6.43966e-08
-2.43427e-06
6.03847e-08
-2.44856e-06
5.61001e-08
-2.46141e-06
5.15298e-08
-2.47274e-06
4.66604e-08
-2.48248e-06
4.14822e-08
-2.49055e-06
3.59875e-08
-2.49687e-06
3.01736e-08
-2.50137e-06
2.40397e-08
-2.50397e-06
1.75891e-08
-2.50456e-06
1.0824e-08
-2.50305e-06
3.74469e-09
-2.49927e-06
-3.66295e-09
-2.49307e-06
-1.14295e-08
-2.4843e-06
-1.95705e-08
-2.4728e-06
-2.80825e-08
-2.45844e-06
-3.69544e-08
-2.4411e-06
-4.61752e-08
-2.42066e-06
-5.5731e-08
-2.39703e-06
-6.56038e-08
-2.37012e-06
-7.57676e-08
-2.33984e-06
-8.61927e-08
-2.30612e-06
-9.68389e-08
-2.26891e-06
-1.07664e-07
-2.22817e-06
-1.18613e-07
-2.18388e-06
-1.29626e-07
-2.13604e-06
-1.40634e-07
-2.08468e-06
-1.51561e-07
-2.02986e-06
-1.62337e-07
-1.97167e-06
-1.72881e-07
-1.91023e-06
-1.83119e-07
-1.84568e-06
-1.92959e-07
-1.77821e-06
-2.02322e-07
-1.708e-06
-2.11117e-07
-1.63533e-06
-2.1928e-07
-1.5604e-06
-2.26709e-07
-1.48352e-06
-2.33297e-07
-1.40498e-06
-2.38981e-07
-1.32514e-06
-2.4376e-07
-1.24428e-06
-2.4758e-07
-1.16276e-06
-2.50407e-07
-1.08091e-06
-2.52217e-07
-9.9909e-07
-2.53023e-07
-9.17601e-07
-2.52824e-07
-8.36763e-07
-2.51637e-07
-7.56845e-07
-2.49474e-07
-6.78156e-07
-2.46369e-07
-6.00969e-07
-2.42375e-07
-5.25577e-07
-2.37579e-07
-4.52201e-07
-2.32053e-07
-3.81066e-07
-2.25882e-07
-3.12327e-07
-2.19133e-07
-2.46147e-07
-2.11884e-07
-1.82628e-07
-2.04202e-07
-1.21881e-07
-1.96155e-07
-6.39624e-08
-1.87819e-07
-8.91729e-09
-1.7927e-07
4.32442e-08
-1.70563e-07
9.2498e-08
-1.61759e-07
1.38864e-07
-1.5291e-07
1.82358e-07
-1.44078e-07
2.23046e-07
-1.3532e-07
2.61038e-07
-1.26674e-07
2.96431e-07
-1.18211e-07
3.29345e-07
-1.09974e-07
3.59951e-07
-1.02001e-07
3.88388e-07
-9.43548e-08
4.14792e-07
-8.71072e-08
4.39296e-07
-8.03005e-08
4.62051e-07
-7.39774e-08
4.83211e-07
-6.81656e-08
5.02941e-07
-6.28912e-08
5.2141e-07
-5.81607e-08
5.38796e-07
-5.39863e-08
5.55271e-07
-5.03683e-08
5.71014e-07
-4.73146e-08
5.86195e-07
-4.48173e-08
6.00988e-07
-4.28734e-08
6.15559e-07
-4.14667e-08
6.30073e-07
-4.05873e-08
6.4468e-07
-4.02102e-08
6.59529e-07
-4.03167e-08
6.74753e-07
-4.08735e-08
6.90479e-07
-4.18572e-08
7.0682e-07
-4.32293e-08
7.23884e-07
-4.49586e-08
7.41762e-07
-4.70007e-08
7.60539e-07
-4.93218e-08
7.80285e-07
-5.18786e-08
8.01059e-07
-5.46437e-08
8.2291e-07
-5.75755e-08
8.45879e-07
-6.06422e-08
8.69999e-07
-6.38023e-08
8.95291e-07
-6.70284e-08
9.21764e-07
-7.02762e-08
9.49412e-07
-7.3503e-08
9.78204e-07
-7.66271e-08
1.00808e-06
-7.95391e-08
1.0389e-06
-8.20322e-08
1.07045e-06
-8.37495e-08
1.10233e-06
-8.40185e-08
1.13392e-06
-8.145e-08
1.16444e-06
-7.36617e-08
1.19323e-06
-5.50384e-08
-1.09527e-08
1.22509e-06
-1.64668e-08
-1.01168e-08
-3.60892e-08
1.29503e-08
-5.68985e-08
3.10249e-08
-7.86481e-08
4.66664e-08
-1.01415e-07
6.06133e-08
-1.25416e-07
7.31761e-08
-1.50877e-07
8.45059e-08
-1.78011e-07
9.47202e-08
-2.06936e-07
1.03955e-07
-2.37703e-07
1.12367e-07
-2.7024e-07
1.20114e-07
-3.04418e-07
1.27325e-07
-3.39998e-07
1.34079e-07
-3.76735e-07
1.40396e-07
-4.14339e-07
1.46249e-07
-4.52574e-07
1.51591e-07
-4.91186e-07
1.56383e-07
-5.30006e-07
1.6061e-07
-5.68702e-07
1.64292e-07
-6.06919e-07
1.67429e-07
-6.44401e-07
1.69948e-07
-6.81234e-07
1.71732e-07
-7.17851e-07
1.72692e-07
-7.54652e-07
1.72911e-07
-7.91339e-07
1.72667e-07
-8.27673e-07
1.72124e-07
-8.63576e-07
1.71328e-07
-8.99102e-07
1.703e-07
-9.34271e-07
1.69078e-07
-9.69121e-07
1.67705e-07
-1.00365e-06
1.66223e-07
-1.03788e-06
1.64667e-07
-1.07181e-06
1.6307e-07
-1.10546e-06
1.6146e-07
-1.13883e-06
1.59858e-07
-1.17194e-06
1.58285e-07
-1.20479e-06
1.56753e-07
-1.2374e-06
1.55273e-07
-1.26977e-06
1.53852e-07
-1.30191e-06
1.52492e-07
-1.33382e-06
1.51194e-07
-1.36552e-06
1.49956e-07
-1.397e-06
1.48776e-07
-1.42828e-06
1.47646e-07
-1.45933e-06
1.46561e-07
-1.49018e-06
1.45512e-07
-1.52081e-06
1.4449e-07
-1.55124e-06
1.43485e-07
-1.58143e-06
1.42486e-07
-1.6114e-06
1.41484e-07
-1.64113e-06
1.40466e-07
-1.67062e-06
1.39423e-07
-1.69985e-06
1.38344e-07
-1.7288e-06
1.37219e-07
-1.75746e-06
1.36037e-07
-1.78581e-06
1.34787e-07
-1.81383e-06
1.3346e-07
-1.84149e-06
1.32045e-07
-1.86878e-06
1.30533e-07
-1.89566e-06
1.28912e-07
-1.92211e-06
1.27174e-07
-1.9481e-06
1.25308e-07
-1.97358e-06
1.23305e-07
-1.99854e-06
1.21153e-07
-2.02294e-06
1.18842e-07
-2.04672e-06
1.16361e-07
-2.06987e-06
1.13699e-07
-2.09232e-06
1.10845e-07
-2.11404e-06
1.07785e-07
-2.13498e-06
1.04508e-07
-2.15509e-06
1.01001e-07
-2.17432e-06
9.72496e-08
-2.1926e-06
9.32396e-08
-2.20988e-06
8.89548e-08
-2.2261e-06
8.43794e-08
-2.24119e-06
7.94962e-08
-2.25508e-06
7.42877e-08
-2.26771e-06
6.87364e-08
-2.27899e-06
6.28257e-08
-2.28886e-06
5.65399e-08
-2.29723e-06
4.98653e-08
-2.30402e-06
4.27905e-08
-2.30914e-06
3.53065e-08
-2.31249e-06
2.74058e-08
-2.31397e-06
1.90807e-08
-2.31345e-06
1.03225e-08
-2.31081e-06
1.11829e-09
-2.30591e-06
-8.55063e-09
-2.29863e-06
-1.87048e-08
-2.28886e-06
-2.93544e-08
-2.27645e-06
-4.04958e-08
-2.26129e-06
-5.2117e-08
-2.24327e-06
-6.42023e-08
-2.22227e-06
-7.673e-08
-2.1982e-06
-8.96744e-08
-2.17096e-06
-1.03e-07
-2.14049e-06
-1.16666e-07
-2.10671e-06
-1.30619e-07
-2.06957e-06
-1.44801e-07
-2.02904e-06
-1.5914e-07
-1.98509e-06
-1.73555e-07
-1.93774e-06
-1.87954e-07
-1.88701e-06
-2.02242e-07
-1.83296e-06
-2.16319e-07
-1.7757e-06
-2.30077e-07
-1.71534e-06
-2.43412e-07
-1.65204e-06
-2.56204e-07
-1.58596e-06
-2.68342e-07
-1.51731e-06
-2.79703e-07
-1.44635e-06
-2.90191e-07
-1.37332e-06
-2.99686e-07
-1.29849e-06
-3.08075e-07
-1.22217e-06
-3.15251e-07
-1.1447e-06
-3.21193e-07
-1.06639e-06
-3.25849e-07
-9.87572e-07
-3.29189e-07
-9.08586e-07
-3.31184e-07
-8.29759e-07
-3.31849e-07