/*--------------------------------*- C++ -*----------------------------------*\
  =========                 |
  \\      /  F ield         | OpenFOAM: The Open Source CFD Toolbox
   \\    /   O peration     | Website:  https://openfoam.org
    \\  /    A nd           | Version:  8
     \\/     M anipulation  |
\*---------------------------------------------------------------------------*/
FoamFile
{
    version     2.0;
    format      ascii;
    class       volVectorField;
    location    "140";
    object      U;
}
// * * * * * * * * * * * * * * * * * * * * * * * * * * * * * * * * * * * * * //

dimensions      [0 1 -1 0 0 0 0];

internalField   nonuniform List<vector> 
12225
(
(9.85699 -0.886384 0)
(9.66661 -0.740762 0)
(9.45565 -0.429463 0)
(9.22435 -0.222213 0)
(9.00625 -0.106436 0)
(8.81396 -0.0458405 0)
(8.64685 -0.0151524 0)
(8.50454 0.000496014 0)
(8.38252 0.00844608 0)
(8.27951 0.0123541 0)
(8.19053 0.0141121 0)
(8.11383 0.0151629 0)
(8.04608 0.0156367 0)
(7.98589 0.0159452 0)
(7.93047 0.0162364 0)
(7.88147 0.0166978 0)
(7.81973 0.0183953 0)
(7.80898 0.018672 0)
(10.0545 0.227539 0)
(10.1211 0.326947 0)
(10.1196 0.261577 0)
(10.0855 0.186578 0)
(10.0433 0.1347 0)
(9.99655 0.101167 0)
(9.94378 0.0793594 0)
(9.88485 0.06465 0)
(9.82338 0.0543739 0)
(9.7606 0.0468262 0)
(9.69894 0.0411212 0)
(9.63872 0.0366612 0)
(9.58104 0.0331473 0)
(9.52604 0.0305215 0)
(9.47333 0.0284428 0)
(9.42501 0.0285812 0)
(9.37511 0.0268672 0)
(9.34391 0.0412686 0)
(10.0035 0.0579197 0)
(10.0303 0.0560166 0)
(10.056 0.0338095 0)
(10.0703 0.0329304 0)
(10.0768 0.040702 0)
(10.0776 0.0466163 0)
(10.0723 0.049453 0)
(10.061 0.0504291 0)
(10.0456 0.0503721 0)
(10.027 0.049718 0)
(10.0062 0.0487612 0)
(9.98368 0.0477245 0)
(9.96014 0.0467326 0)
(9.93593 0.0459852 0)
(9.91122 0.0454155 0)
(9.88694 0.0460792 0)
(9.86226 0.0467781 0)
(9.84037 0.0530242 0)
(9.99779 0.0110602 0)
(10.011 0.0266258 0)
(10.035 0.0371863 0)
(10.0524 0.048137 0)
(10.0642 0.0555235 0)
(10.0732 0.0582805 0)
(10.0792 0.0584825 0)
(10.082 0.0577842 0)
(10.0822 0.0567932 0)
(10.0805 0.0556785 0)
(10.0772 0.054521 0)
(10.0725 0.0534598 0)
(10.0668 0.0525184 0)
(10.0602 0.0518686 0)
(10.0528 0.0514824 0)
(10.0453 0.0520278 0)
(10.0376 0.0529076 0)
(10.0309 0.0562597 0)
(9.99935 0.00720621 0)
(10.009 0.0316811 0)
(10.0274 0.0439679 0)
(10.0417 0.0499898 0)
(10.0526 0.0537038 0)
(10.0626 0.0553593 0)
(10.0713 0.0556804 0)
(10.0779 0.0554435 0)
(10.0829 0.0549722 0)
(10.0866 0.054367 0)
(10.0891 0.0536963 0)
(10.0908 0.0530764 0)
(10.0917 0.0525541 0)
(10.0919 0.052267 0)
(10.0916 0.0522404 0)
(10.0912 0.0528434 0)
(10.0909 0.0538149 0)
(10.0914 0.0557404 0)
(10.0003 0.00918889 0)
(10.0083 0.0312038 0)
(10.0227 0.0410007 0)
(10.0349 0.0454752 0)
(10.0449 0.0491506 0)
(10.0546 0.0515231 0)
(10.0635 0.0525527 0)
(10.071 0.0528488 0)
(10.0773 0.052799 0)
(10.0828 0.0525503 0)
(10.0874 0.0521925 0)
(10.0914 0.0518349 0)
(10.0947 0.0515432 0)
(10.0976 0.0514238 0)
(10.1002 0.0515191 0)
(10.1027 0.0520121 0)
(10.1055 0.0527708 0)
(10.1088 0.053803 0)
(10.0005 0.00895752 0)
(10.0071 0.0271269 0)
(10.019 0.0364817 0)
(10.0301 0.041489 0)
(10.0394 0.0455481 0)
(10.0485 0.048257 0)
(10.057 0.0495817 0)
(10.0645 0.0501232 0)
(10.0712 0.0502912 0)
(10.0772 0.0502411 0)
(10.0825 0.0500646 0)
(10.0874 0.0498589 0)
(10.0918 0.0496943 0)
(10.0958 0.049649 0)
(10.0997 0.0497607 0)
(10.1035 0.0501051 0)
(10.1075 0.0505848 0)
(10.112 0.0510388 0)
(10.0004 0.00793088 0)
(10.006 0.0234288 0)
(10.0161 0.0328163 0)
(10.0262 0.0382168 0)
(10.035 0.0422524 0)
(10.0434 0.044985 0)
(10.0515 0.0464583 0)
(10.0588 0.0471717 0)
(10.0655 0.0474974 0)
(10.0715 0.0475898 0)
(10.0771 0.0475404 0)
(10.0823 0.0474365 0)
(10.0872 0.0473458 0)
(10.0917 0.0473251 0)
(10.0962 0.0473997 0)
(10.1006 0.0475858 0)
(10.1052 0.0477961 0)
(10.11 0.0478517 0)
(10.0004 0.00697739 0)
(10.005 0.0204847 0)
(10.0136 0.029547 0)
(10.0228 0.0349937 0)
(10.0311 0.0388902 0)
(10.039 0.041607 0)
(10.0466 0.0432076 0)
(10.0537 0.044068 0)
(10.0602 0.0445185 0)
(10.0662 0.0447183 0)
(10.0719 0.0447593 0)
(10.0772 0.0447214 0)
(10.0822 0.044666 0)
(10.087 0.0446346 0)
(10.0917 0.0446403 0)
(10.0963 0.0446705 0)
(10.1011 0.0446448 0)
(10.106 0.0444204 0)
(10.0004 0.00614872 0)
(10.0043 0.0179273 0)
(10.0116 0.0263816 0)
(10.0198 0.0317307 0)
(10.0275 0.0355059 0)
(10.035 0.0381923 0)
(10.0422 0.0398782 0)
(10.049 0.0408476 0)
(10.0553 0.0413909 0)
(10.0613 0.0416687 0)
(10.0669 0.0417723 0)
(10.0722 0.041774 0)
(10.0772 0.0417273 0)
(10.0821 0.0416636 0)
(10.0869 0.0415872 0)
(10.0916 0.0414749 0)
(10.0964 0.0412574 0)
(10.1012 0.0408372 0)
(10.0003 0.0053908 0)
(10.0036 0.0156255 0)
(10.0099 0.0233553 0)
(10.0172 0.0285109 0)
(10.0244 0.0321482 0)
(10.0314 0.0347625 0)
(10.0382 0.036478 0)
(10.0447 0.0375157 0)
(10.0509 0.0381231 0)
(10.0567 0.0384547 0)
(10.0622 0.0385989 0)
(10.0674 0.0386203 0)
(10.0725 0.0385652 0)
(10.0773 0.0384585 0)
(10.0821 0.0383001 0)
(10.0868 0.0380658 0)
(10.0915 0.0377014 0)
(10.0962 0.037148 0)
(10.0003 0.00472742 0)
(10.0032 0.0136902 0)
(10.0086 0.0207183 0)
(10.0152 0.0256121 0)
(10.0218 0.0290868 0)
(10.0284 0.0315989 0)
(10.0349 0.0332983 0)
(10.0411 0.0343649 0)
(10.0471 0.0350066 0)
(10.0528 0.0353673 0)
(10.0582 0.0355313 0)
(10.0633 0.0355564 0)
(10.0683 0.0354839 0)
(10.0732 0.0353338 0)
(10.0779 0.035106 0)
(10.0825 0.03478 0)
(10.0871 0.0343156 0)
(10.0916 0.0336831 0)
(10.0003 0.00411416 0)
(10.0028 0.0119272 0)
(10.0075 0.0182283 0)
(10.0134 0.0227834 0)
(10.0196 0.0260604 0)
(10.0258 0.0284438 0)
(10.0319 0.0300933 0)
(10.0379 0.0311595 0)
(10.0437 0.0318149 0)
(10.0492 0.0321883 0)
(10.0545 0.0323587 0)
(10.0596 0.0323787 0)
(10.0645 0.0322846 0)
(10.0692 0.0320937 0)
(10.0738 0.031807 0)
(10.0784 0.0314105 0)
(10.0828 0.0308749 0)
(10.0871 0.0301947 0)
(10.0002 0.00348049 0)
(10.0024 0.0100943 0)
(10.0064 0.0155565 0)
(10.0117 0.0196477 0)
(10.0174 0.0226427 0)
(10.0231 0.0248368 0)
(10.0289 0.0263839 0)
(10.0346 0.0274102 0)
(10.0401 0.0280512 0)
(10.0455 0.028417 0)
(10.0506 0.0285781 0)
(10.0556 0.0285824 0)
(10.0604 0.0284595 0)
(10.065 0.0282272 0)
(10.0695 0.0278866 0)
(10.0739 0.0274324 0)
(10.0782 0.0268452 0)
(10.0823 0.0261385 0)
(10.0002 0.00282236 0)
(10.002 0.00818956 0)
(10.0055 0.0127123 0)
(10.0101 0.0162092 0)
(10.0153 0.0188193 0)
(10.0206 0.020747 0)
(10.026 0.0221256 0)
(10.0314 0.023057 0)
(10.0366 0.0236436 0)
(10.0418 0.0239717 0)
(10.0468 0.0241027 0)
(10.0516 0.0240758 0)
(10.0562 0.0239184 0)
(10.0607 0.0236444 0)
(10.0651 0.0232605 0)
(10.0693 0.0227649 0)
(10.0734 0.0221516 0)
(10.0773 0.0214414 0)
(10.0002 0.00213878 0)
(10.0017 0.00621404 0)
(10.0047 0.00970259 0)
(10.0087 0.0124703 0)
(10.0134 0.0145747 0)
(10.0183 0.0161409 0)
(10.0233 0.0172694 0)
(10.0283 0.0180363 0)
(10.0333 0.0185141 0)
(10.0382 0.0187652 0)
(10.043 0.0188376 0)
(10.0477 0.0187627 0)
(10.0522 0.0185628 0)
(10.0565 0.0182507 0)
(10.0607 0.0178349 0)
(10.0647 0.0173192 0)
(10.0686 0.0167027 0)
(10.0723 0.0160147 0)
(10.0002 0.00142647 0)
(10.0015 0.00415242 0)
(10.0041 0.0065088 0)
(10.0076 0.00841107 0)
(10.0118 0.00987612 0)
(10.0163 0.0109698 0)
(10.021 0.0117529 0)
(10.0257 0.0122749 0)
(10.0304 0.0125793 0)
(10.0351 0.012707 0)
(10.0397 0.0126883 0)
(10.0441 0.012547 0)
(10.0484 0.0122973 0)
(10.0526 0.0119518 0)
(10.0566 0.0115168 0)
(10.0605 0.0110006 0)
(10.0641 0.010403 0)
(10.0677 0.00975662 0)
(10.0001 0.000668417 0)
(10.0013 0.00195111 0)
(10.0036 0.00305606 0)
(10.0069 0.00394729 0)
(10.0107 0.00462864 0)
(10.0149 0.00512343 0)
(10.0193 0.00545437 0)
(10.0238 0.00564109 0)
(10.0283 0.00570176 0)
(10.0327 0.00565359 0)
(10.0371 0.00551014 0)
(10.0414 0.00528223 0)
(10.0455 0.00497738 0)
(10.0495 0.0046024 0)
(10.0533 0.0041622 0)
(10.057 0.00366282 0)
(10.0605 0.00310599 0)
(10.0638 0.00251915 0)
(10.0001 -0.000178896 0)
(10.0013 -0.000513581 0)
(10.0035 -0.0008317 0)
(10.0066 -0.00111616 0)
(10.0103 -0.00136427 0)
(10.0144 -0.00158866 0)
(10.0186 -0.00180866 0)
(10.023 -0.00203577 0)
(10.0273 -0.00227956 0)
(10.0316 -0.00254543 0)
(10.0359 -0.00284045 0)
(10.04 -0.00316722 0)
(10.044 -0.00352936 0)
(10.0478 -0.00392648 0)
(10.0515 -0.00435976 0)
(10.055 -0.00482635 0)
(10.0583 -0.00532746 0)
(10.0615 -0.00584156 0)
(10.0001 -0.000990332 0)
(10.0013 -0.00288219 0)
(10.0037 -0.00457395 0)
(10.007 -0.00598089 0)
(10.0109 -0.00709682 0)
(10.0151 -0.00798249 0)
(10.0194 -0.00869836 0)
(10.0239 -0.00928875 0)
(10.0283 -0.00978673 0)
(10.0326 -0.0102267 0)
(10.0368 -0.0106325 0)
(10.0409 -0.011024 0)
(10.0448 -0.0114109 0)
(10.0485 -0.0118041 0)
(10.0521 -0.0122069 0)
(10.0556 -0.0126246 0)
(10.0588 -0.0130574 0)
(10.0619 -0.0134942 0)
(10.0002 -0.00169037 0)
(10.0015 -0.00495117 0)
(10.0041 -0.00784486 0)
(10.0078 -0.0101666 0)
(10.0121 -0.0119351 0)
(10.0165 -0.0133012 0)
(10.0211 -0.0143705 0)
(10.0257 -0.0152017 0)
(10.0302 -0.0158506 0)
(10.0346 -0.0163786 0)
(10.0389 -0.0168287 0)
(10.043 -0.0172325 0)
(10.0469 -0.0176077 0)
(10.0506 -0.0179711 0)
(10.0542 -0.0183299 0)
(10.0576 -0.0186922 0)
(10.0608 -0.0190602 0)
(10.0639 -0.019426 0)
(10.0002 -0.00235506 0)
(10.0017 -0.00699441 0)
(10.0047 -0.0111114 0)
(10.009 -0.0142573 0)
(10.0138 -0.0165313 0)
(10.0186 -0.0182432 0)
(10.0235 -0.0195543 0)
(10.0283 -0.0205346 0)
(10.0331 -0.0212674 0)
(10.0376 -0.0218328 0)
(10.0419 -0.02229 0)
(10.0461 -0.0226738 0)
(10.05 -0.0230142 0)
(10.0538 -0.0233277 0)
(10.0573 -0.0236316 0)
(10.0607 -0.0239294 0)
(10.0639 -0.0242311 0)
(10.0669 -0.0245255 0)
(10.0002 -0.00297692 0)
(10.0018 -0.00906221 0)
(10.0054 -0.0143976 0)
(10.0106 -0.0182685 0)
(10.016 -0.0209952 0)
(10.0212 -0.0230012 0)
(10.0264 -0.0244415 0)
(10.0316 -0.025442 0)
(10.0365 -0.0261572 0)
(10.0412 -0.0266974 0)
(10.0456 -0.0271198 0)
(10.0498 -0.0274603 0)
(10.0538 -0.0277488 0)
(10.0575 -0.0280083 0)
(10.0611 -0.0282527 0)
(10.0645 -0.0284907 0)
(10.0677 -0.0287277 0)
(10.0707 -0.0289599 0)
(10.0001 -0.00352505 0)
(10.0018 -0.0115239 0)
(10.0063 -0.0178449 0)
(10.0123 -0.0219285 0)
(10.0184 -0.0249826 0)
(10.0241 -0.0273799 0)
(10.0298 -0.0290067 0)
(10.0352 -0.0300067 0)
(10.0403 -0.0306507 0)
(10.0451 -0.0311042 0)
(10.0497 -0.0314344 0)
(10.054 -0.0316837 0)
(10.058 -0.0318845 0)
(10.0618 -0.0320627 0)
(10.0653 -0.0322296 0)
(10.0687 -0.0323952 0)
(10.0718 -0.0325598 0)
(10.0748 -0.0327234 0)
(9.99991 -0.00337551 0)
(10.0016 -0.0149472 0)
(10.0073 -0.0226933 0)
(10.0143 -0.0261943 0)
(10.0207 -0.0287717 0)
(10.0269 -0.031128 0)
(10.0332 -0.0328408 0)
(10.0392 -0.0339212 0)
(10.0446 -0.0346147 0)
(10.0497 -0.0350738 0)
(10.0543 -0.0353696 0)
(10.0587 -0.0355567 0)
(10.0627 -0.035681 0)
(10.0664 -0.0357729 0)
(10.0698 -0.0358512 0)
(10.073 -0.0359256 0)
(10.076 -0.0360008 0)
(10.0787 -0.036075 0)
(9.9986 -0.000394154 0)
(9.99909 -0.0157409 0)
(10.0076 -0.0274049 0)
(10.0167 -0.0324574 0)
(10.0238 -0.034827 0)
(10.0307 -0.0361757 0)
(10.0377 -0.0369209 0)
(10.0443 -0.0373818 0)
(10.0501 -0.0377255 0)
(10.0552 -0.037969 0)
(10.0598 -0.0381119 0)
(10.0639 -0.0381815 0)
(10.0675 -0.0382051 0)
(10.0707 -0.0382041 0)
(10.0735 -0.0381947 0)
(10.076 -0.0381845 0)
(10.0781 -0.0381789 0)
(10.08 -0.038173 0)
(9.99488 0.00133837 0)
(9.99289 -0.00808157 0)
(10.0061 -0.0203336 0)
(10.0202 -0.0322522 0)
(10.0307 -0.0404491 0)
(10.0393 -0.0441153 0)
(10.0468 -0.0450223 0)
(10.053 -0.044873 0)
(10.058 -0.0444022 0)
(10.0619 -0.0438032 0)
(10.0649 -0.0431574 0)
(10.0671 -0.0425222 0)
(10.0686 -0.0419302 0)
(10.0694 -0.0413891 0)
(10.0698 -0.0409097 0)
(10.0697 -0.0404886 0)
(10.0692 -0.0401224 0)
(10.0685 -0.0397874 0)
(9.99473 -0.0305595 0)
(9.99926 -0.0228638 0)
(10.0147 -0.00262209 0)
(10.0304 -0.00189172 0)
(10.0435 -0.011637 0)
(10.0534 -0.020897 0)
(10.0595 -0.0272503 0)
(10.062 -0.0314748 0)
(10.0617 -0.0342469 0)
(10.0593 -0.0359408 0)
(10.0553 -0.0368729 0)
(10.05 -0.037307 0)
(10.0438 -0.0374345 0)
(10.0368 -0.0373745 0)
(10.0293 -0.0372177 0)
(10.0214 -0.0370193 0)
(10.0133 -0.0368451 0)
(10.0051 -0.0366641 0)
(10.0273 -0.182757 0)
(10.0763 -0.288308 0)
(10.0872 -0.247747 0)
(10.0777 -0.186509 0)
(10.0664 -0.140283 0)
(10.0538 -0.108206 0)
(10.0366 -0.085864 0)
(10.0147 -0.0704018 0)
(9.98954 -0.0596312 0)
(9.96254 -0.0518573 0)
(9.9346 -0.0460357 0)
(9.90632 -0.0415383 0)
(9.87818 -0.0379837 0)
(9.85051 -0.035111 0)
(9.82355 -0.0327477 0)
(9.79741 -0.0308307 0)
(9.77235 -0.0293209 0)
(9.74838 -0.0285085 0)
(9.93574 0.68932 0)
(9.86862 0.609608 0)
(9.76457 0.380628 0)
(9.6267 0.217448 0)
(9.48599 0.119275 0)
(9.35734 0.063196 0)
(9.24286 0.0315856 0)
(9.14136 0.0136267 0)
(9.05172 0.00327422 0)
(8.97279 -0.00278766 0)
(8.90293 -0.00634398 0)
(8.84079 -0.00846344 0)
(8.78513 -0.00971479 0)
(8.73505 -0.0104628 0)
(8.68965 -0.0109675 0)
(8.64832 -0.0112388 0)
(8.61013 -0.0114503 0)
(8.5748 -0.0121161 0)
(0.0117506 -0.0226791 -6.29926e-19)
(0.0283247 -0.0234775 3.53561e-19)
(0.0383508 -0.0140331 0)
(0.0422751 -0.00268675 0)
(0.0389935 0.00717567 0)
(0.0298473 0.0145034 -1.41114e-19)
(0.0163745 0.0193832 0)
(-0.000189254 0.0223215 0)
(-0.0189446 0.0238953 0)
(-0.0393787 0.0246622 0)
(-0.0611938 0.0251305 8.87022e-20)
(-0.0841494 0.0257188 0)
(-0.108093 0.0266353 0)
(-0.133001 0.0277934 0)
(-0.158838 0.0291507 0)
(-0.18539 0.031902 6.85221e-20)
(-0.212763 0.0352285 0)
(-0.241607 0.034817 0)
(-0.270643 0.0353046 0)
(-0.300238 0.0449693 0)
(-0.334092 0.0609762 0)
(-0.370708 0.0830462 0)
(-0.415035 0.0687089 0)
(-0.46125 0.030154 1.04412e-19)
(-0.494453 0.0325783 -9.65338e-20)
(-0.53284 0.0396737 9.06327e-20)
(-0.574575 0.0431135 8.58014e-20)
(-0.617805 0.0430069 0)
(-0.660771 0.0430733 0)
(-0.704052 0.0430222 -7.41923e-20)
(-0.74737 0.0428039 -7.10539e-20)
(-0.79063 0.0424296 0)
(-0.833727 0.0419528 0)
(-0.876592 0.0414026 -6.32508e-20)
(-0.919171 0.0408158 0)
(-0.961446 0.0402035 0)
(-1.0034 0.0395883 5.72915e-20)
(-1.04503 0.0389728 0)
(-1.08634 0.0383752 5.40468e-20)
(-1.12734 0.0377937 1.05188e-19)
(-1.16805 0.0372427 0)
(-1.20849 0.0367157 0)
(-1.24866 0.0362223 0)
(-1.2886 0.0357502 0)
(-1.32832 0.0353057 0)
(-1.36784 0.0348804 9.12376e-20)
(-1.40717 0.034483 8.93515e-20)
(-1.44634 0.0341016 8.75557e-20)
(-1.48535 0.0337433 0)
(-1.52422 0.0333964 -8.42192e-20)
(-1.56296 0.0330684 0)
(-1.60156 0.0327466 8.11708e-20)
(-1.64004 0.0324386 7.97415e-20)
(-1.67838 0.0321335 0)
(-1.71658 0.0318374 0)
(-1.75464 0.0315373 0)
(-1.79254 0.0312409 7.4537e-20)
(-1.83027 0.0309369 0)
(-1.86781 0.0306322 0)
(-1.90514 0.030314 0)
(-1.94224 0.0299911 0)
(-1.97908 0.0296522 0)
(-2.01563 0.0293048 0)
(-2.05186 0.028937 0)
(-2.08774 0.0285574 0)
(-2.12322 0.0281545 -6.49882e-20)
(-2.15828 0.0277374 0)
(-2.19285 0.027295 0)
(-2.2269 0.0268357 6.22499e-20)
(-2.26037 0.026347 6.13714e-20)
(-2.2932 0.025834 0)
(-2.32532 0.0252806 -5.9661e-20)
(-2.35667 0.0246853 5.88265e-20)
(-2.38718 0.0240247 0)
(-2.41675 0.0232902 -5.71894e-20)
(-2.44533 0.0224577 0)
(-2.47281 0.0215259 0)
(-2.49909 0.0204838 5.47819e-20)
(-2.52406 0.0193366 0)
(-2.5476 0.0180793 -5.31871e-20)
(-2.56958 0.0167244 0)
(-2.58988 0.0152771 5.15917e-20)
(-2.60832 0.0137535 5.07933e-20)
(-2.62474 0.012157 4.99944e-20)
(-2.63893 0.010493 9.83872e-20)
(-2.65069 0.00875121 -9.67774e-20)
(-2.65974 0.00694019 0)
(-2.66591 0.00506961 0)
(-2.66895 0.00324543 0)
(-2.66934 0.00150662 -8.98591e-20)
(-2.66699 -0.000254204 -8.79206e-20)
(-2.6618 -0.00207389 8.58866e-20)
(-2.65368 -0.00397613 0)
(-2.64254 -0.00596477 -8.14801e-20)
(-2.62827 -0.008046 -7.90793e-20)
(-2.61075 -0.0102173 -7.65259e-20)
(-2.58989 -0.0124787 0)
(-2.56561 -0.0148247 0)
(-2.53782 -0.0172505 0)
(-2.50646 -0.0197471 -6.44339e-20)
(-2.47148 -0.0223043 0)
(-2.43283 -0.0249079 0)
(-2.39051 -0.0275462 5.28523e-20)
(-2.34452 -0.0302023 0)
(-2.29492 -0.0328747 0)
(-2.24176 -0.0355425 3.85136e-20)
(-2.18515 -0.0381701 0)
(-2.12521 -0.0406891 0)
(-2.0621 -0.0431423 -2.09074e-20)
(-1.99595 -0.0455484 -1.42419e-20)
(-1.92696 -0.0478294 0)
(-1.85537 -0.0499494 -3.54282e-22)
(-1.7814 -0.0519199 0)
(-1.70538 -0.0536844 1.67076e-20)
(-1.62754 -0.0552735 0)
(-1.54819 -0.0566372 3.48806e-20)
(-1.46764 -0.0577904 4.46607e-20)
(-1.38623 -0.0587047 0)
(-1.30429 -0.059389 0)
(-1.22213 -0.0598292 0)
(-1.13998 -0.0600418 0)
(-1.05814 -0.0599967 0)
(-0.976936 -0.0597247 0)
(-0.89671 -0.059222 0)
(-0.817778 -0.0585311 1.40011e-19)
(-0.740404 -0.057639 -1.54087e-19)
(-0.664805 -0.0565808 0)
(-0.591179 -0.0553416 0)
(-0.519692 -0.053957 0)
(-0.450503 -0.052416 0)
(-0.38374 -0.0507546 -4.62777e-19)
(-0.31952 -0.0489663 0)
(-0.25793 -0.0470821 5.30628e-19)
(-0.199048 -0.0451022 -5.65657e-19)
(-0.142937 -0.0430372 0)
(-0.0896497 -0.0408849 0)
(-0.039199 -0.0386791 0)
(0.00834822 -0.0363911 7.10684e-19)
(0.0531601 -0.0339397 7.23436e-19)
(0.0952048 -0.0313693 0)
(0.134325 -0.0287796 7.03484e-19)
(0.170585 -0.0262754 6.95741e-19)
(0.204082 -0.0238903 -6.8891e-19)
(0.234947 -0.0216276 0)
(0.26334 -0.0195051 0)
(0.289422 -0.0175359 -6.71039e-19)
(0.313372 -0.0157249 0)
(0.335374 -0.0140654 0)
(0.355612 -0.0125513 0)
(0.374271 -0.011179 0)
(0.391545 -0.00995144 6.47668e-19)
(0.40763 -0.008868 6.43666e-19)
(0.422718 -0.00792581 0)
(0.437003 -0.00712494 6.35901e-19)
(0.450671 -0.00645732 0)
(0.463909 -0.00591202 0)
(0.476896 -0.00548006 6.24781e-19)
(0.489808 -0.00515558 0)
(0.502819 -0.00493401 6.16717e-19)
(0.516086 -0.00480928 0)
(0.529753 -0.00477043 0)
(0.543947 -0.00481183 6.02564e-19)
(0.558779 -0.00491836 0)
(0.574355 -0.00507618 5.92087e-19)
(0.590764 -0.00527256 0)
(0.608084 -0.00550244 0)
(0.626374 -0.00575198 0)
(0.645685 -0.00601028 -5.68793e-19)
(0.666049 -0.00626794 0)
(0.68749 -0.00652158 5.56124e-19)
(0.710013 -0.00676305 0)
(0.733603 -0.0069835 0)
(0.758215 -0.00716615 0)
(0.783731 -0.00728716 0)
(0.809989 -0.00729545 0)
(0.836375 -0.00709649 0)
(0.86281 -0.00644483 0)
(0.884068 -0.00472745 -1.0169e-18)
(0.908233 -0.000774649 0)
(0.879368 0.0151553 0)
(0.00596641 -0.0571816 1.39165e-18)
(0.0110541 -0.0397801 -6.00354e-19)
(0.00872813 -0.0171314 0)
(0.00262913 0.00346223 1.79105e-19)
(-0.00683319 0.0209818 0)
(-0.0196145 0.0350433 6.60612e-20)
(-0.0354842 0.0457982 -1.20135e-19)
(-0.0542302 0.0537499 -1.11283e-19)
(-0.0756274 0.0595541 0)
(-0.0994628 0.0638693 -9.892e-20)
(-0.125526 0.0672839 -4.72906e-20)
(-0.153608 0.0702782 0)
(-0.183567 0.0731793 0)
(-0.215409 0.0760657 0)
(-0.249269 0.0788169 0)
(-0.285089 0.0814588 -4.17327e-20)
(-0.32281 0.084294 0)
(-0.362656 0.0872923 8.03923e-20)
(-0.40484 0.0904828 0)
(-0.448544 0.0948868 0)
(-0.492307 0.100237 -7.81315e-20)
(-0.533955 0.105725 0)
(-0.577118 0.109084 8.1945e-20)
(-0.622915 0.109168 -3.98012e-20)
(-0.669476 0.110311 3.80002e-20)
(-0.713999 0.111619 -3.65608e-20)
(-0.75739 0.112453 -3.53374e-20)
(-0.800108 0.112336 0)
(-0.842249 0.111578 0)
(-0.883879 0.110492 3.22794e-20)
(-0.924992 0.109175 -3.12012e-20)
(-0.965598 0.107687 0)
(-1.00571 0.106086 0)
(-1.04535 0.10441 2.91558e-20)
(-1.08452 0.102705 0)
(-1.12326 0.100994 0)
(-1.16157 0.0993086 -2.73412e-20)
(-1.19949 0.0976582 0)
(-1.23704 0.0960616 2.61168e-20)
(-1.27425 0.0945195 -5.16748e-20)
(-1.31113 0.0930435 0)
(-1.3477 0.0916279 0)
(-1.38399 0.0902795 -9.78521e-20)
(-1.42001 0.0889882 -9.63005e-20)
(-1.45578 0.0877568 -9.48192e-20)
(-1.49131 0.0865724 4.65131e-20)
(-1.52661 0.0854365 -4.62106e-20)
(-1.56169 0.0843351 -1.36301e-19)
(-1.59656 0.0832687 8.94887e-20)
(-1.63121 0.0822225 4.43243e-20)
(-1.66564 0.0811979 0)
(-1.69985 0.0801802 -4.31715e-20)
(-1.73384 0.0791719 4.22579e-20)
(-1.76758 0.0781595 0)
(-1.80106 0.0771448 0)
(-1.83427 0.076113 0)
(-1.8672 0.0750669 -4.056e-20)
(-1.8998 0.0739933 0)
(-1.93208 0.0728953 7.88481e-20)
(-1.96398 0.0717587 0)
(-1.9955 0.070588 7.69988e-20)
(-2.02659 0.0693707 0)
(-2.05722 0.0681104 -7.52057e-20)
(-2.08736 0.0667929 0)
(-2.11696 0.0654221 7.34564e-20)
(-2.14598 0.063984 -3.61376e-20)
(-2.17439 0.0624832 0)
(-2.20212 0.060906 -7.08887e-20)
(-2.22914 0.0592575 -3.51731e-20)
(-2.25539 0.0575251 -3.47488e-20)
(-2.28082 0.0557143 0)
(-2.30537 0.0538145 -3.36128e-20)
(-2.32897 0.0518313 -3.34787e-20)
(-2.35157 0.0497532 0)
(-2.37309 0.0475812 3.26273e-20)
(-2.39345 0.0452968 -6.41256e-20)
(-2.41258 0.0428945 0)
(-2.43039 0.040355 -3.13197e-20)
(-2.4468 0.0376713 0)
(-2.46171 0.0348246 9.10228e-20)
(-2.47504 0.0318087 0)
(-2.48671 0.0286097 -8.82423e-20)
(-2.49665 0.0252254 -2.89907e-20)
(-2.50479 0.021649 2.83594e-20)
(-2.51109 0.017888 5.57486e-20)
(-2.51555 0.0139544 -5.47495e-20)
(-2.51819 0.00988767 0)
(-2.51901 0.00574654 0)
(-2.51808 0.001613 0)
(-2.51485 -0.00251422 1.51134e-19)
(-2.50907 -0.00670079 4.91386e-20)
(-2.50057 -0.0109762 -4.78048e-20)
(-2.48922 -0.015353 0)
(-2.4749 -0.0198296 -4.50752e-20)
(-2.45751 -0.0244008 4.34024e-20)
(-2.43693 -0.0290542 4.17818e-20)
(-2.41308 -0.0337756 0)
(-2.38587 -0.038548 0)
(-2.35522 -0.0433503 0)
(-2.32109 -0.0481611 3.43687e-20)
(-2.28342 -0.0529511 0)
(-2.24218 -0.0576911 -6.09708e-20)
(-2.19737 -0.0623498 -8.40546e-20)
(-2.149 -0.0668976 5.15623e-20)
(-2.09714 -0.0713097 0)
(-2.04187 -0.0755539 2.13073e-20)
(-1.9833 -0.0796063 0)
(-1.92156 -0.0834322 2.97107e-20)
(-1.8568 -0.0870139 -1.27386e-20)
(-1.78922 -0.0903154 -9.62888e-21)
(-1.71907 -0.0932724 0)
(-1.64654 -0.0958309 -4.65913e-21)
(-1.5719 -0.0980332 -3.1735e-21)
(-1.49548 -0.0998701 -6.43144e-21)
(-1.41756 -0.101309 0)
(-1.33845 -0.102324 -1.40022e-20)
(-1.25848 -0.102928 -5.09541e-20)
(-1.17798 -0.103116 0)
(-1.09729 -0.10291 -4.87776e-20)
(-1.01672 -0.102308 -5.67401e-20)
(-0.936542 -0.101321 -6.47455e-20)
(-0.857047 -0.0999466 0)
(-0.778544 -0.0982246 0)
(-0.701343 -0.0961779 0)
(-0.625731 -0.0938649 4.6947e-20)
(-0.551951 -0.0913004 5.36313e-20)
(-0.480212 -0.0885314 0)
(-0.410692 -0.0855648 1.19866e-19)
(-0.343547 -0.0824459 1.27335e-19)
(-0.278906 -0.0791812 0)
(-0.216879 -0.0758159 1.44143e-19)
(-0.157554 -0.0723572 2.97412e-19)
(-0.100995 -0.0688347 -1.57605e-19)
(-0.0472492 -0.0652553 -1.59867e-19)
(0.00366026 -0.0616493 0)
(0.0517935 -0.0580961 0)
(0.097097 -0.0546145 0)
(0.1396 -0.0511149 -1.79398e-19)
(0.179325 -0.0475344 1.78708e-19)
(0.216302 -0.0438926 3.64783e-19)
(0.250724 -0.0403252 -1.85853e-19)
(0.282778 -0.0369011 1.85625e-19)
(0.312585 -0.0336753 1.89677e-19)
(0.340266 -0.0306639 0)
(0.365952 -0.0278845 0)
(0.389787 -0.0253414 -1.92296e-19)
(0.411924 -0.0230408 0)
(0.43253 -0.0209728 0)
(0.451779 -0.0191372 3.91271e-19)
(0.46985 -0.0175242 0)
(0.486923 -0.0161347 1.96397e-19)
(0.503179 -0.0149577 -1.97447e-19)
(0.518801 -0.0139899 0)
(0.533972 -0.0132183 1.97348e-19)
(0.548871 -0.0126397 0)
(0.563667 -0.0122388 0)
(0.578526 -0.0120092 -1.97697e-19)
(0.593607 -0.011933 3.94744e-19)
(0.60906 -0.0120037 -1.97137e-19)
(0.625021 -0.0122041 0)
(0.64162 -0.0125243 0)
(0.658971 -0.0129434 1.95361e-19)
(0.67718 -0.0134499 0)
(0.696342 -0.0140258 1.93953e-19)
(0.716536 -0.014664 0)
(0.737826 -0.0153462 0)
(0.760271 -0.0160607 0)
(0.78392 -0.0167896 1.90682e-19)
(0.808811 -0.0175267 0)
(0.834965 -0.0182574 -1.88732e-19)
(0.862392 -0.0189718 0)
(0.891081 -0.0196449 0)
(0.920991 -0.0202493 3.71027e-19)
(0.952019 -0.0207271 -3.68937e-19)
(0.984004 -0.0209759 0)
(1.01646 -0.0207985 0)
(1.04915 -0.0196846 0)
(1.07892 -0.0167635 1.08921e-18)
(1.11022 -0.0090635 0)
(1.11958 0.0127603 -7.42398e-19)
(-0.00416813 -0.0590515 -1.243e-21)
(-0.00930181 -0.0265172 5.88024e-19)
(-0.0196145 0.00294526 0)
(-0.0328065 0.0285783 -2.39768e-19)
(-0.0480591 0.050624 0)
(-0.065162 0.06932 0)
(-0.0842326 0.0848987 -9.82419e-24)
(-0.105434 0.0977223 7.48522e-20)
(-0.128868 0.108291 7.11096e-20)
(-0.154563 0.117171 6.81757e-20)
(-0.182469 0.124912 0)
(-0.21247 0.131975 0)
(-0.244414 0.138695 -6.24459e-20)
(-0.278147 0.145244 -1.21956e-19)
(-0.313536 0.151607 1.19093e-19)
(-0.350455 0.157709 0)
(-0.38871 0.16342 1.13236e-19)
(-0.427997 0.168523 -5.52148e-20)
(-0.468036 0.173455 0)
(-0.508246 0.178513 1.04467e-19)
(-0.547721 0.183303 5.11817e-20)
(-0.585999 0.1869 -1.00139e-19)
(-0.623783 0.187708 -4.90705e-20)
(-0.662013 0.186067 0)
(-0.700742 0.184564 9.21326e-20)
(-0.73919 0.183247 8.93916e-20)
(-0.776977 0.18168 0)
(-0.814107 0.179691 8.45222e-20)
(-0.850756 0.177369 0)
(-0.886995 0.174818 8.03342e-20)
(-0.922843 0.172109 3.93121e-20)
(-0.958316 0.169297 0)
(-0.993431 0.166434 0)
(-1.0282 0.163559 0)
(-1.06266 0.160707 0)
(-1.09681 0.157903 0)
(-1.13067 0.15517 0)
(-1.16426 0.152522 6.82775e-20)
(-1.1976 0.149968 -1.00821e-19)
(-1.2307 0.147513 0)
(-1.26357 0.14516 0)
(-1.29622 0.142903 0)
(-1.32867 0.140741 2.00852e-22)
(-1.36092 0.138665 6.25045e-20)
(-1.39297 0.136671 1.23121e-19)
(-1.42485 0.134746 -1.21503e-19)
(-1.45654 0.132883 -5.98704e-20)
(-1.48804 0.131069 5.93244e-20)
(-1.51937 0.129294 -2.05557e-22)
(-1.55051 0.127546 5.76885e-20)
(-1.58146 0.125816 0)
(-1.61222 0.124093 5.63395e-20)
(-1.64276 0.12237 -2.04727e-22)
(-1.67309 0.120636 0)
(-1.70318 0.118883 0)
(-1.73302 0.1171 -5.38265e-20)
(-1.76259 0.115283 0)
(-1.79187 0.113421 0)
(-1.82084 0.111509 5.18587e-20)
(-1.84946 0.109537 1.02966e-19)
(-1.87773 0.107501 -5.11104e-20)
(-1.9056 0.105392 0)
(-1.93304 0.103207 4.99847e-20)
(-1.96003 0.100935 0)
(-1.98652 0.0985735 4.84981e-20)
(-2.01247 0.0961119 4.83167e-20)
(-2.03786 0.0935468 -9.51641e-20)
(-2.06263 0.0908689 -4.68537e-20)
(-2.08675 0.0880744 0)
(-2.11016 0.0851539 9.18501e-20)
(-2.13282 0.0821036 0)
(-2.15466 0.0789144 1.34589e-19)
(-2.17565 0.0755824 8.84909e-20)
(-2.19572 0.0720981 8.73536e-20)
(-2.2148 0.0684562 -8.62047e-20)
(-2.23283 0.0646458 1.27709e-19)
(-2.24974 0.06066 0)
(-2.26547 0.0564876 0)
(-2.27993 0.0521216 -8.14508e-20)
(-2.29306 0.0475532 -1.2044e-19)
(-2.30479 0.0427791 0)
(-2.31502 0.0377974 3.89346e-20)
(-2.3237 0.0326125 0)
(-2.33075 0.0272309 -1.12603e-19)
(-2.33608 0.0216647 -1.34548e-22)
(-2.33962 0.0159254 1.11695e-22)
(-2.34126 0.0100215 7.07694e-20)
(-2.34087 0.00394908 0)
(-2.33832 -0.00231746 -6.75623e-20)
(-2.33344 -0.00878739 2.06963e-24)
(-2.32608 -0.0154466 0)
(-2.31609 -0.0222848 0)
(-2.30335 -0.0292902 0)
(-2.28774 -0.0364512 5.82723e-20)
(-2.26915 -0.0437497 0)
(-2.24749 -0.0511644 0)
(-2.22266 -0.0586683 0)
(-2.19459 -0.0662312 0)
(-2.1632 -0.0738179 0)
(-2.12844 -0.0813896 4.45605e-20)
(-2.09026 -0.0889 0)
(-2.04866 -0.096301 3.83907e-20)
(-2.00362 -0.10354 3.53596e-20)
(-1.95519 -0.11057 -3.21951e-20)
(-1.90341 -0.117341 0)
(-1.84839 -0.123805 -2.54653e-20)
(-1.79023 -0.129908 0)
(-1.72908 -0.135599 -1.82111e-20)
(-1.66511 -0.140833 1.43965e-20)
(-1.59853 -0.145579 3.38824e-20)
(-1.52955 -0.149765 0)
(-1.45842 -0.153315 9.69128e-21)
(-1.3854 -0.156218 9.67601e-22)
(-1.31081 -0.158495 0)
(-1.23495 -0.160117 -1.79602e-20)
(-1.15813 -0.161064 -2.66378e-20)
(-1.08067 -0.161341 5.46897e-20)
(-1.0029 -0.160964 0)
(-0.925138 -0.159949 2.81452e-20)
(-0.847682 -0.158316 3.25481e-20)
(-0.770815 -0.156084 1.07405e-19)
(-0.694816 -0.153281 0)
(-0.619969 -0.149956 0)
(-0.546557 -0.146168 0)
(-0.474833 -0.141979 5.05719e-20)
(-0.405019 -0.137442 0)
(-0.337303 -0.132612 0)
(-0.271846 -0.127531 -6.56221e-20)
(-0.208783 -0.122251 -6.93233e-20)
(-0.148227 -0.11681 0)
(-0.0902648 -0.111253 0)
(-0.0349638 -0.105617 -1.59338e-19)
(0.0176529 -0.0999584 0)
(0.0675625 -0.094324 1.70223e-19)
(0.11474 -0.0887319 1.72095e-19)
(0.159201 -0.083176 0)
(0.200969 -0.0776886 0)
(0.240131 -0.0723118 -1.83308e-19)
(0.276775 -0.0670963 -1.72012e-21)
(0.311001 -0.0620595 -1.58627e-21)
(0.342951 -0.0572132 0)
(0.372768 -0.0525973 -3.92055e-19)
(0.400581 -0.0482521 0)
(0.426517 -0.0441969 0)
(0.45071 -0.0404511 0)
(0.473304 -0.0370241 2.04902e-19)
(0.494454 -0.0339252 0)
(0.514321 -0.0311498 -4.14086e-19)
(0.533076 -0.0286989 -2.08841e-19)
(0.550892 -0.0265646 0)
(0.567942 -0.0247463 -2.10693e-19)
(0.584398 -0.0232321 0)
(0.600433 -0.0220158 0)
(0.61622 -0.0210818 -6.36811e-19)
(0.631926 -0.0204221 4.25147e-19)
(0.647711 -0.0200175 0)
(0.663729 -0.0198555 4.26088e-19)
(0.680124 -0.0199133 -2.13253e-19)
(0.697034 -0.0201776 0)
(0.714585 -0.0206249 0)
(0.732893 -0.0212386 0)
(0.752064 -0.0219924 -6.37123e-19)
(0.772196 -0.0228691 0)
(0.793375 -0.0238443 -2.11635e-19)
(0.815672 -0.0249055 0)
(0.839149 -0.0260291 0)
(0.86386 -0.0271992 0)
(0.889852 -0.0283934 0)
(0.917163 -0.0296012 0)
(0.945816 -0.0308013 0)
(0.975822 -0.0319774 -4.14993e-19)
(1.00717 -0.0330932 0)
(1.03984 -0.0341053 -2.06297e-19)
(1.07372 -0.0349266 6.16604e-19)
(1.10867 -0.0354093 0)
(1.14432 -0.0352659 0)
(1.18047 -0.0338845 -4.07968e-19)
(1.21504 -0.0301618 -4.08358e-19)
(1.25186 -0.0214107 4.10251e-19)
(1.27683 0.000386323 4.18152e-19)
(-0.0129131 -0.0371946 -1.99242e-18)
(-0.025183 0.00308507 -7.05322e-19)
(-0.0411251 0.0359597 -2.60604e-19)
(-0.0597277 0.0641725 -9.42689e-20)
(-0.0795743 0.088749 0)
(-0.100384 0.110231 1.3697e-19)
(-0.122366 0.128942 -6.27067e-20)
(-0.145765 0.145189 0)
(-0.170752 0.159333 -5.58017e-20)
(-0.19741 0.171781 0)
(-0.225733 0.18293 1.03433e-19)
(-0.255616 0.193107 0)
(-0.286873 0.202508 4.86989e-20)
(-0.319277 0.211193 9.47139e-20)
(-0.352593 0.21912 -9.20719e-20)
(-0.386611 0.226204 0)
(-0.421115 0.232383 -8.67264e-20)
(-0.45592 0.237643 0)
(-0.490819 0.242104 0)
(-0.525493 0.245843 -7.91455e-20)
(-0.559662 0.248687 0)
(-0.593238 0.25028 -6.42665e-25)
(-0.62644 0.250264 0)
(-0.659603 0.248828 0)
(-0.692821 0.246734 -6.56679e-23)
(-0.725911 0.244291 -6.69247e-20)
(-0.758708 0.241512 -6.51395e-20)
(-0.791173 0.238392 -6.35821e-20)
(-0.823339 0.234999 0)
(-0.855237 0.231414 -1.21297e-19)
(-0.886885 0.227706 0)
(-0.918293 0.223934 -5.80709e-20)
(-0.949471 0.220145 0)
(-0.980427 0.216378 0)
(-1.01117 0.212668 5.47846e-20)
(-1.04171 0.209038 0)
(-1.07205 0.205509 -5.29021e-20)
(-1.10221 0.202093 -7.44252e-23)
(-1.13219 0.198797 1.02525e-19)
(-1.162 0.195624 -1.009e-19)
(-1.19164 0.192573 0)
(-1.22113 0.18964 0)
(-1.25046 0.186818 -4.82594e-20)
(-1.27964 0.184098 0)
(-1.30867 0.181471 -4.7184e-20)
(-1.33754 0.178924 4.65958e-20)
(-1.36627 0.176444 4.60286e-20)
(-1.39485 0.174018 0)
(-1.42327 0.171633 -4.49495e-20)
(-1.45154 0.169275 -4.4434e-20)
(-1.47963 0.166931 8.76727e-20)
(-1.50755 0.164589 -4.34429e-20)
(-1.53528 0.162238 -4.29645e-20)
(-1.56282 0.159865 0)
(-1.59014 0.15746 0)
(-1.61723 0.155011 4.15841e-20)
(-1.64407 0.152509 0)
(-1.67065 0.149943 0)