/*--------------------------------*- C++ -*----------------------------------*\
| =========                 |                                                 |
| \\      /  F ield         | OpenFOAM: The Open Source CFD Toolbox           |
|  \\    /   O peration     | Version:  2312                                  |
|   \\  /    A nd           | Website:  www.openfoam.com                      |
|    \\/     M anipulation  |                                                 |
\*---------------------------------------------------------------------------*/
FoamFile
{
    version     2.0;
    format      ascii;
    arch        "LSB;label=64;scalar=64";
    class       volScalarField;
    location    "120";
    object      p;
}
// * * * * * * * * * * * * * * * * * * * * * * * * * * * * * * * * * * * * * //

dimensions      [0 2 -2 0 0 0 0];

internalField   nonuniform List<scalar> 
404911
(
0.0512336
0.051257
0.0513126
0.0512896
0.0511573
0.0512062
0.0512679
0.0512836
0.0512842
0.0512867
0.0516729
0.0513018
0.0511992
0.0512412
0.0512522
0.0512726
0.0517932
0.0516124
0.0513845
0.0513327
0.0520318
0.0519007
0.0516224
0.0524289
0.052221
0.0518259
0.0528058
0.0526586
0.0525664
0.053227
0.0531208
0.0529823
0.0527844
0.0527654
0.0532836
0.0532244
0.0530422
0.0537933
0.0536101
0.0534382
0.0532621
0.0539509
0.053878
0.0537721
0.0536366
0.05339
0.0540369
0.0539722
0.0538787
0.0538107
0.0542851
0.0542012
0.0540257
0.0539874
0.0542963
0.0543047
0.0565084
0.0509724
0.0509386
0.0509586
0.0514584
0.0512347
0.0517883
0.0515887
0.0514145
0.0520801
0.0519122
0.0516465
0.0524856
0.0521595
0.0528115
0.0525355
0.0525737
0.0530955
0.0529471
0.0526586
0.0525961
0.0532438
0.0531785
0.0536896
0.05348
0.0539026
0.0537211
0.0537257
0.054073
0.0540279
0.0543396
0.0541484
0.054003
0.054303
0.0543548
0.0563101
0.0563873
0.0562948
0.056843
0.0566401
0.0565419
0.057095
0.0569164
0.0566725
0.0573514
0.0573121
0.0571362
0.0573055
0.0212158
0.0209989
0.0208068
0.0223757
0.0221907
0.0216845
0.0216756
0.0213717
0.0211701
0.0210144
0.0207061
0.0230487
0.0227977
0.0222194
0.0219033
0.0216538
0.0215007
0.0212681
0.0210979
0.0200838
0.0237843
0.0235422
0.0233812
0.0231649
0.0229819
0.0228371
0.0224549
0.0220578
0.0217712
0.021614
0.0214268
0.0211766
0.0207124
0.020191
0.0201268
0.0200903
0.0243493
0.0240926
0.0238698
0.0236354
0.0234337
0.0232444
0.0230628
0.0228789
0.022617
0.0223028
0.0220441
0.0217576
0.0215823
0.0213083
0.0200763
0.0251101
0.0247441
0.0244594
0.0241535
0.0238861
0.0236991
0.0234981
0.0233035
0.023112
0.0229346
0.0226593
0.0224008
0.022203
0.0219533
0.0218224
0.0255261
0.0253174
0.0249183
0.0246026
0.0243156
0.0239836
0.023789
0.023554
0.0233703
0.023217
0.023007
0.0228124
0.022544
0.0223142
0.022101
0.021983
0.0264099
0.0260237
0.0256443
0.0254094
0.0249745
0.0247892
0.0244924
0.0240502
0.0238294
0.0236297
0.023472
0.0232897
0.0230883
0.0228773
0.0226475
0.0224207
0.0222309
0.0274753
0.0271725
0.0269027
0.0265511
0.0261732
0.0258433
0.0255831
0.0252504
0.02496
0.0246235
0.024159
0.0239699
0.0237657
0.0235976
0.0234119
0.0231759
0.0229783
0.0227679
0.0280529
0.027772
0.0273285
0.0270348
0.0267059
0.0263551
0.02607
0.0257249
0.025408
0.0250724
0.0247593
0.0243663
0.0240838
0.0238948
0.0237282
0.023496
0.0233095
0.0230855
0.0288112
0.0285513
0.0282797
0.0279677
0.0275815
0.0272396
0.0269069
0.0265471
0.0262326
0.0258866
0.0255757
0.0252483
0.0249333
0.0245469
0.0242087
0.0240066
0.0238495
0.023658
0.0293012
0.0290298
0.0287324
0.0284729
0.0281711
0.027805
0.027481
0.0271218
0.0267634
0.0264458
0.0261075
0.025782
0.025403
0.0250851
0.0248479
0.0244265
0.0240581
0.0299816
0.0297338
0.0293871
0.0291889
0.0289413
0.0286547
0.0283402
0.0280152
0.0276838
0.027316
0.0269758
0.0266354
0.0262979
0.0259696
0.0255898
0.0252493
0.0250305
0.0305994
0.0303389
0.0300873
0.0299869
0.0297004
0.0294343
0.0291412
0.0288748
0.0285721
0.0282692
0.0279375
0.0275188
0.0271472
0.0268007
0.0265248
0.0261285
0.0257601
0.0254629
0.0315435
0.0312498
0.0307751
0.0304631
0.0302488
0.0301621
0.0298755
0.0296099
0.029327
0.0290673
0.0288376
0.0284849
0.0281011
0.0277028
0.0272923
0.0269052
0.0267236
0.026475
0.0320865
0.03193
0.0317512
0.0315825
0.031104
0.0306812
0.0304513
0.030346
0.0301609
0.0298527
0.029507
0.029265
0.0291051
0.028721
0.0282396
0.0278428
0.02751
0.0271259
0.0324164
0.0322188
0.0320438
0.0318771
0.0317092
0.0314201
0.0309692
0.0307125
0.0304889
0.0303181
0.0299643
0.0296048
0.0294262
0.0293059
0.0289338
0.0283717
0.0279813
0.0276478
0.0329643
0.0327609
0.0324648
0.032321
0.0321508
0.0319292
0.0317602
0.031508
0.0312325
0.0309152
0.0306742
0.0305065
0.0301372
0.0297372
0.0295234
0.0294161
0.0291069
0.0285685
0.0333386
0.0330912
0.032893
0.0326568
0.0324259
0.0322379
0.0320238
0.0317913
0.0315771
0.0314128
0.0312198
0.0308937
0.030621
0.0303086
0.0299057
0.0296667
0.0295289
0.0293259
0.0343211
0.0340423
0.0335243
0.0331987
0.0330716
0.0328068
0.0325686
0.0323314
0.0321587
0.0318759
0.0316438
0.0315214
0.031384
0.0312235
0.0309543
0.030595
0.0301649
0.0298264
0.0347619
0.0345651
0.0343511
0.033917
0.0335285
0.0332955
0.0330732
0.0328558
0.0325344
0.0323344
0.03196
0.0317801
0.0316328
0.0314874
0.0313049
0.0310972
0.0307668
0.0352359
0.0350399
0.0348552
0.0347106
0.0345665
0.0341543
0.0338401
0.0335128
0.0332794
0.032956
0.0326775
0.0324839
0.0321712
0.031942
0.0317851
0.0316077
0.0314252
0.0311967
0.0355826
0.0353671
0.035184
0.0349777
0.0348311
0.0346689
0.0343893
0.0340899
0.0338066
0.0335762
0.0332847
0.032937
0.032613
0.0323057
0.03207
0.0318982
0.0317217
0.0315265
0.0358948
0.0357183
0.0355227
0.0353294
0.0350894
0.03488
0.0347494
0.0345197
0.0342641
0.0340446
0.0338319
0.0335446
0.0331116
0.0327989
0.0324844
0.0323628
0.0320593
0.0318927
0.0364267
0.0362108
0.0360271
0.0358553
0.0356785
0.0355242
0.0352356
0.0349992
0.0348171
0.0345683
0.034331
0.0341794
0.033995
0.0337929
0.0333985
0.0329999
0.0326894
0.0324342
0.0369097
0.0367321
0.0365567
0.0363653
0.0361891
0.0359996
0.0358105
0.0356334
0.0354397
0.0351712
0.0349136
0.0346689
0.0344093
0.0342669
0.0340821
0.0338656
0.0335086
0.0332309
0.0372536
0.0370413
0.0368647
0.0366881
0.0365016
0.036342
0.036189
0.0359735
0.0357775
0.0355584
0.0353028
0.0350404
0.0348304
0.0345636
0.0343786
0.034199
0.0340021
0.0336976
0.037755
0.0375572
0.0373737
0.0371836
0.0369778
0.036813
0.0366512
0.0364994
0.0363728
0.0362188
0.0359523
0.0356855
0.0354257
0.0352305
0.0349928
0.0346974
0.03437
0.0343526
0.0380623
0.0378793
0.0376919
0.0375046
0.0372969
0.0371083
0.0369433
0.0367827
0.0366346
0.0365116
0.0364077
0.0361597
0.0358882
0.0355932
0.0353268
0.0351891
0.0349172
0.0346722
0.0384063
0.0381896
0.0379768
0.0377948
0.0376108
0.0373978
0.0372099
0.0370604
0.0369085
0.0367549
0.0366101
0.0364589
0.0362619
0.0360109
0.035746
0.035514
0.0353082
0.0350511
0.0388351
0.0385802
0.0383063
0.038064
0.0379405
0.037749
0.0375179
0.0372721
0.0371572
0.0370196
0.0368678
0.0367098
0.036537
0.0363339
0.0361041
0.0358817
0.0356445
0.0354765
0.0392711
0.0391607
0.0390439
0.0388359
0.0385319
0.0382948
0.0381319
0.0379416
0.0376744
0.0373708
0.037261
0.0371331
0.0369873
0.0368194
0.0366366
0.0364375
0.0362349
0.0359692
0.0396513
0.0394398
0.0392665
0.0391353
0.0389461
0.0386919
0.0384842
0.0383397
0.0382193
0.0379683
0.037573
0.0373908
0.0372681
0.0371246
0.0369399
0.036765
0.0365805
0.036382
0.0399961
0.0397986
0.0395953
0.039413
0.0391808
0.0389661
0.0387738
0.0386132
0.0384676
0.0383366
0.0381337
0.0378571
0.0376035
0.0374276
0.0372625
0.0370973
0.0369377
0.0367653
0.0402724
0.040117
0.0399468
0.0397321
0.0395767
0.0393173
0.0390757
0.038817
0.0387079
0.0385661
0.0384157
0.0382373
0.0380109
0.0378021
0.0375918
0.0374011
0.0372295
0.0408841
0.0406315
0.0404404
0.0402635
0.0400632
0.0398804
0.0397465
0.0394779
0.039175
0.0389413
0.038812
0.0386753
0.0385251
0.0383469
0.0381447
0.037941
0.0377394
0.0375335
0.041238
0.0410223
0.0408127
0.0406112
0.0403797
0.0401613
0.0399663
0.0398282
0.0396455
0.0393933
0.039166
0.0388823
0.0387917
0.0386448
0.0384743
0.0382885
0.0380873
0.0379171
0.0415319
0.0413658
0.0411775
0.0409765
0.0407897
0.0405621
0.0403577
0.0400503
0.039931
0.0398142
0.039582
0.0392357
0.0390446
0.0389204
0.0387765
0.0386239
0.0384674
0.0382832
0.0420221
0.0418228
0.0416718
0.0415108
0.0413453
0.0411889
0.0410505
0.0407457
0.0405401
0.0402584
0.0400397
0.0399414
0.0397809
0.0395043
0.0392506
0.0390742
0.0389165
0.0387565
0.0422972
0.0421243
0.0419792
0.0418199
0.0416646
0.0415129
0.0413747
0.0412651
0.0410325
0.0407532
0.0404476
0.0402295
0.040018
0.0399426
0.0397573
0.0394699
0.0392501
0.0390412
0.0426368
0.0424425
0.0422739
0.0421197
0.0419591
0.0418112
0.0416632
0.0415255
0.041412
0.041267
0.0408723
0.0406819
0.0403468
0.0401603
0.0400487
0.0398812
0.0396633
0.0394629
0.0428925
0.0427767
0.0426001
0.0424318
0.0422688
0.0421069
0.0419582
0.0418069
0.0416371
0.0414843
0.0413525
0.0411593
0.0408641
0.0405552
0.0403562
0.0401867
0.0400376
0.0398275
0.0432873
0.0431179
0.042914
0.0427486
0.0425686
0.0424085
0.0422572
0.0421231
0.0419799
0.0417778
0.0415854
0.0414103
0.0412495
0.041063
0.0407672
0.0405568
0.0403523
0.0437675
0.043574
0.0434206
0.0432336
0.0430297
0.0428685
0.0426904
0.0425362
0.0424019
0.0422848
0.0421851
0.0419848
0.0417748
0.0415009
0.0413743
0.0412091
0.0409819
0.0407725
0.0440363
0.0438771
0.0437284
0.0435678
0.0433905
0.0432046
0.0430003
0.0427871
0.0426314
0.0425268
0.0424295
0.0423528
0.0423131
0.0419952
0.0417207
0.0414981
0.0413452
0.0411641
0.0443616
0.0441888
0.0440294
0.0438818
0.0437071
0.0435582
0.0434114
0.0431987
0.0429951
0.0427289
0.0426216
0.0425482
0.0424619
0.0423629
0.0421791
0.0419158
0.0416918
0.041511
0.0446576
0.0444936
0.0443408
0.0441725
0.0440164
0.0438498
0.0437128
0.0435986
0.043492
0.0433329
0.0429365
0.0427658
0.0426766
0.0425712
0.0424425
0.042259
0.0420662
0.0418694
0.0450152
0.0448047
0.0446398
0.0444799
0.0443032
0.0441334
0.0439722
0.0438358
0.043715
0.0436072
0.0434265
0.0431891
0.042972
0.0428309
0.0426957
0.0425373
0.0423772
0.0421831
0.0453538
0.0451506
0.0449615
0.0447873
0.0446058
0.0444185
0.0442391
0.0440737
0.0439325
0.0438079
0.0436824
0.0435266
0.0433401
0.0431483
0.0429852
0.0428275
0.0426729
0.0424901
0.0457355
0.0454959
0.0452574
0.045078
0.0449026
0.0447222
0.0445325
0.0443315
0.0441573
0.0440142
0.0439032
0.0437789
0.0436407
0.0434732
0.0433003
0.0431398
0.0429728
0.0427806
0.0460755
0.0458934
0.0456851
0.0453898
0.0451383
0.0450026
0.044836
0.0446737
0.0444817
0.0442339
0.0440702
0.0439904
0.0438943
0.0437693
0.0436153
0.0434469
0.0432809
0.0431451
0.0465815
0.0464224
0.0462508
0.0461108
0.045942
0.0455449
0.0452671
0.0451944
0.0449631
0.0448315
0.0445756
0.0444447
0.0441933
0.0441056
0.0440227
0.0439085
0.0437571
0.0436066
0.0434367
0.0468913
0.0467575
0.0466107
0.0464519
0.0463096
0.0462115
0.0459628
0.0456746
0.0453573
0.0451046
0.0450226
0.0448597
0.0446822
0.0444186
0.0442814
0.0441813
0.0440521
0.0439079
0.0470505
0.0469003
0.0467518
0.0465944
0.0464727
0.0463698
0.0462245
0.0459547
0.0456724
0.0454631
0.0451658
0.0450198
0.0449186
0.0447199
0.0444944
0.0443365
0.0441992
0.0475249
0.0473718
0.0472244
0.0470588
0.0468975
0.0467392
0.046607
0.0465033
0.0463875
0.0460959
0.0459018
0.0456225
0.045397
0.0452038
0.0450463
0.0448867
0.0447006
0.044514
0.047879
0.0476756
0.047542
0.0473807
0.0472123
0.0470441
0.0468698
0.0467154
0.0466113
0.0465267
0.0463017
0.0460731
0.0457898
0.0455477
0.0453883
0.0452207
0.0450521
0.0448436
0.0480739
0.0480019
0.0478599
0.0476964
0.047537
0.047383
0.0472248
0.0470152
0.0468126
0.0466815
0.0466394
0.0464781
0.0462737
0.0459961
0.0457415
0.0455577
0.0453994
0.045249
0.0482635
0.0481342
0.0479952
0.0478429
0.0476934
0.0475541
0.0474305
0.0472364
0.0469874
0.0467656
0.0467362
0.0466556
0.0464501
0.0461702
0.045955
0.0457554
0.0455897
0.0486227
0.0483834
0.0482291
0.0481301
0.0479927
0.0478394
0.047703
0.0476018
0.0474463
0.0472399
0.046951
0.0468335
0.0467405
0.0465614
0.046347
0.0461479
0.045952
0.0495997
0.0492443
0.0489022
0.0486057
0.0484583
0.0483108
0.048156
0.0479664
0.0478152
0.0477179
0.0476342
0.0474012
0.0471265
0.0469755
0.0468508
0.0466928
0.0464945
0.0463035
0.0499739
0.0497715
0.049487
0.0491435
0.0488037
0.0486535
0.0485167
0.0483613
0.0481523
0.0479944
0.0478006
0.0477661
0.0475599
0.0473029
0.047127
0.0469638
0.0468417
0.0502416
0.0501014
0.0498665
0.0496167
0.0493217
0.0489946
0.0487902
0.0486902
0.0485704
0.0483139
0.0481716
0.047983
0.0478586
0.0477437
0.0475025
0.0472892
0.0471119
0.0507748
0.0505815
0.050418
0.0502469
0.0499827
0.0497598
0.0494743
0.0491343
0.0489972
0.0488517
0.0487037
0.0486107
0.0483928
0.0481724
0.0480075
0.0478571
0.0476611
0.0474637
0.0511065
0.0509082
0.0507055
0.0505703
0.0504006
0.0502122
0.0500065
0.0497135
0.0494078
0.0493176
0.0489963
0.0488745
0.0487114
0.0485145
0.0483546
0.0481842
0.0480208
0.0478415
0.0514609
0.0512261
0.0511101
0.0508437
0.0507664
0.0506261
0.0506225
0.0505472
0.0502642
0.049722
0.0494711
0.0492869
0.0490933
0.0488408
0.0485848
0.0484539
0.0483283
0.0481732
0.0519566
0.0517061
0.0514366
0.0512356
0.0510852
0.0509537
0.0509188
0.0507414
0.050579
0.0505209
0.0501119
0.0498173
0.0496104
0.0493545
0.0490827
0.0488077
0.0486371
0.0485025
0.0525269
0.0523461
0.0521364
0.0518816
0.0516657
0.0514788
0.051347
0.0512343
0.0512915
0.051018
0.0507955
0.0505888
0.0503466
0.0500794
0.0498653
0.0496799
0.0493541
0.0490431
0.0488475
0.0528119
0.0526574
0.0525054
0.0523374
0.0521227
0.051878
0.0517136
0.0515245
0.0514515
0.0512112
0.0510356
0.0508553
0.0506754
0.050494
0.050263
0.0500295
0.0498578
0.0495877
0.0493368
0.0529157
0.0527971
0.0526196
0.0524672
0.0522655
0.052076
0.0518219
0.0516143
0.0514829
0.0512667
0.0511095
0.0509434
0.0507831
0.0505997
0.0503818
0.0501847
0.0499904
0.0498014
0.0533576
0.0531675
0.0529758
0.0527855
0.0526272
0.0525016
0.0522999
0.0520468
0.0517246
0.051558
0.0513502
0.0512096
0.0510709
0.0509017
0.0507112
0.0505179
0.0503131
0.0537534
0.053555
0.0533671
0.0531627
0.0529654
0.0527906
0.052486
0.0525401
0.0522042
0.0519214
0.051678
0.051508
0.0513587
0.0512138
0.0510403
0.0508605
0.050626
0.054176
0.0539484
0.0537384
0.0535319
0.0533084
0.0530501
0.0528616
0.0526375
0.0525615
0.052422
0.0520889
0.051873
0.0516936
0.0515317
0.0513656
0.0511938
0.0509992
0.0547001
0.0545261
0.054345
0.054102
0.0538899
0.0536464
0.0533575
0.0532059
0.0530731
0.0529137
0.0527349
0.0525286
0.0522443
0.0520401
0.0518642
0.0516979
0.0515239
0.0513846
0.0551276
0.0549231
0.054689
0.0545024
0.05426
0.0540014
0.0538543
0.0538161
0.0534016
0.0532472
0.0530774
0.0529179
0.0527121
0.0524095
0.0522101
0.0520272
0.0518563
0.0555104
0.0553104
0.05508
0.0548561
0.0545993
0.054329
0.0540072
0.053851
0.053748
0.0535849
0.0534109
0.0532348
0.0530807
0.0528843
0.0526453
0.0524089
0.0522176
0.0558687
0.0556844
0.0555115
0.0552637
0.0549602
0.0545927
0.054437
0.0542971
0.0540287
0.0539097
0.0537606
0.0535892
0.0533803
0.0532081
0.0530229
0.0528141
0.0526106
0.0563212
0.0560829
0.0558541
0.0556457
0.0553547
0.055025
0.0547237
0.0546074
0.0542889
0.0541861
0.0540836
0.0539313
0.0537589
0.053577
0.053366
0.0531964
0.0529839
0.056662
0.0565255
0.0562923
0.0560355
0.0557966
0.0555147
0.0551331
0.0544619
0.0546109
0.0545495
0.0544531
0.0542763
0.0540921
0.0539201
0.0537307
0.0535276
0.0533455
0.0569978
0.0568315
0.0566813
0.0565247
0.0562563
0.0561348
0.0558959
0.0554248
0.0551078
0.0549057
0.054779
0.0546606
0.0544946
0.05427
0.0540955
0.0539092
0.0536987
0.0571247
0.0569772
0.0568113
0.0565855
0.0564194
0.056222
0.0561493
0.0557908
0.0554021
0.0551464
0.0549843
0.0548247
0.0546427
0.0544434
0.0542945
0.0540772
0.0577871
0.0574353
0.0571555
0.0570215
0.0568277
0.0566328
0.0565443
0.0561785
0.0559008
0.0556261
0.0553494
0.0551385
0.0549902
0.054792
0.0546042
0.0586566
0.0584612
0.0581362
0.0577849
0.0574005
0.0572778
0.0570487
0.0567195
0.0565911
0.0563066
0.056041
0.0557909
0.0556008
0.0553616
0.0551615
0.0549778
0.0590341
0.0588601
0.0586893
0.0584104
0.058086
0.0576356
0.0572669
0.0573803
0.0569858
0.056778
0.0564968
0.0562122
0.0558504
0.0557156
0.0555298
0.0553328
0.0594832
0.059288
0.0590802
0.0588059
0.058534
0.0582454
0.0578758
0.0577539
0.0574287
0.0571962
0.0570139
0.0567503
0.0563996
0.0560826
0.0558737
0.0557004
0.0601183
0.0598948
0.0596825
0.0594812
0.0593476
0.0590579
0.0587794
0.0585518
0.0583274
0.0580952
0.0577906
0.0574396
0.057174
0.0569529
0.0566791
0.0563836
0.0604471
0.060243
0.0600996
0.059934
0.0597084
0.0595378
0.0592412
0.0589607
0.0587037
0.0585523
0.0582818
0.0579992
0.0576624
0.0573877
0.0572213
0.0569814
0.0608887
0.0606299
0.0603983
0.0602462
0.0600985
0.0598695
0.0597087
0.0594849
0.0591747
0.0589974
0.0588287
0.0586363
0.0583624
0.05797
0.0576612
0.0573807
0.061401
0.0610646
0.0607141
0.0605276
0.0603827
0.0602391
0.0600471
0.0597712
0.0595809
0.059369
0.0592107
0.0590821
0.0589215
0.0586999
0.0582769
0.0579249
0.0619498
0.0615294
0.0612555
0.0609692
0.0606773
0.0605626
0.0603745
0.0602014
0.0598964
0.0597249
0.0595454
0.0593459
0.0592806
0.0591557
0.0589096
0.0586416
0.0624267
0.0621699
0.0618534
0.0615802
0.0613052
0.0610796
0.0608091
0.0605823
0.0604215
0.0600811
0.0598442
0.0597252
0.0595996
0.0594111
0.0592631
0.0629209
0.0627181
0.0624331
0.0621362
0.0617962
0.0615381
0.061322
0.0611064
0.0608568
0.0606287
0.0603652
0.0600048
0.0598421
0.0597318
0.05961
0.0594034
0.0633192
0.0631298
0.0629422
0.0627537
0.0624014
0.0620558
0.0617915
0.0615268
0.0613682
0.0611248
0.0609
0.0606741
0.0602924
0.0600699
0.0599394
0.059801
0.0636378
0.0635186
0.0633173
0.0631075
0.0628863
0.0625819
0.0623209
0.0620898
0.061824
0.0616078
0.0613962
0.061197
0.0610103
0.0606848
0.0603583
0.0638643
0.063654
0.063515
0.0633521
0.06311
0.0627942
0.0625262
0.062326
0.0621123
0.0618883
0.0616067
0.0614377
0.061187
0.0609442
0.0647162
0.0642485
0.0639761
0.0637998
0.0635599
0.0633025
0.0630077
0.0627942
0.0625586
0.0623881
0.0621596
0.0618572
0.0616523
0.0653576
0.0651855
0.0648864
0.064595
0.0643388
0.0640544
0.0637891
0.0635557
0.0632945
0.0630486
0.06279
0.0625442
0.0623439
0.062041
0.0657072
0.0654947
0.0653453
0.0651062
0.064882
0.064557
0.0643398
0.0639953
0.0637485
0.0635048
0.063231
0.0629881
0.0627642
0.0625484
0.0661332
0.065902
0.0656675
0.0654378
0.0653133
0.0650765
0.0648202
0.0645329
0.064263
0.0640216
0.0636744
0.0634284
0.0632058
0.0630165
0.0664904
0.0663379
0.0660987
0.0658813
0.0656979
0.065459
0.0653062
0.0650613
0.0647593
0.0644821
0.0642555
0.0639064
0.0636699
0.0634628
0.066876
0.0666901
0.0665227
0.0663481
0.066211
0.0660593
0.06573
0.0654781
0.0652173
0.0649289
0.0646813
0.0644756
0.0642155
0.0639212
0.0671989
0.0669992
0.0668325
0.0667323
0.0665988
0.0663202
0.0661827
0.0660251
0.0657727
0.0654428
0.0650621
0.0648404
0.0646694
0.0669203
0.0668692
0.0666779
0.0663553
0.0662616
0.0660585
0.0656869
0.0651914
0.064972
0.0671174
0.0670831
0.0668934
0.066593
0.066444
0.0662894
0.0660229
0.0655997
0.0675039
0.0672922
0.0672635
0.0672324
0.0669536
0.0666111
0.0664368
0.0681643
0.0679059
0.0675353
0.0674291
0.0673568
0.0671343
0.0668352
0.0682168
0.0679658
0.067717
0.0675381
0.0673575
0.0690362
0.0686884
0.0681984
0.068276
0.0679969
0.0677878
0.0712243
0.0710025
0.0698357
0.069387
0.0683083
0.0712462
0.0709486
0.0706989
0.0704311
0.0702678
0.0685789
0.0715497
0.0705804
0.0701979
0.0700926
0.0696583
0.071724
0.0711115
0.0706069
0.00561117
0.00541387
0.00529594
0.00728184
0.00691278
0.00659262
0.00633631
0.00602456
0.00572445
0.00545112
0.00531654
0.00390515
0.00868009
0.00837557
0.00796702
0.00769945
0.00735828
0.00701981
0.00672372
0.00641785
0.00610103
0.0057968
0.00545291
0.00522932
0.00491217
0.00445928
0.00414912
0.0097421
0.00941758
0.00914413
0.00878167
0.008495
0.00808795
0.00776934
0.00747442
0.00714324
0.00681572
0.00649518
0.00611808
0.00580572
0.00548954
0.00518391
0.00491209
0.00454847
0.00414177
0.00390988
0.00337089
0.00281073
0.00252794
0.010877
0.0106285
0.0102376
0.00990442
0.00952437
0.00921801
0.00890346
0.00854118
0.00819344
0.00785455
0.00755206
0.00724748
0.0069276
0.00660897
0.006229
0.00590134
0.00544282
0.00520341
0.00493733
0.00458508
0.00424695
0.00386402
0.00341357
0.0122323
0.0118289
0.0115473
0.0110972
0.010769
0.0103136
0.00997101
0.0096389
0.00934682
0.00901383
0.00863
0.0082515
0.00789524
0.00760969
0.00726568
0.00705499
0.00678815
0.00649796
0.00582948
0.00547721
0.00521454
0.00497474
0.00463824
0.00432557
0.00396453
0.0129836
0.0125664
0.0123879
0.0120479
0.0116898
0.0111488
0.0108507
0.0103746
0.0100274
0.00974197
0.00948159
0.0091606
0.0087851
0.00826126
0.0078855
0.00764536
0.00737482
0.00715231
0.00690344
0.00652439
0.00586983
0.00553674
0.0052867
0.00502828
0.00470253
0.0140855
0.0135675
0.0131032
0.0128527
0.0125155
0.0121199
0.011846
0.0116207
0.0111652
0.0105519
0.0100783
0.009844
0.00962942
0.00933336
0.00911348
0.00837271
0.00788289
0.00769075
0.0074466
0.0071988
0.00691696
0.0066091
0.0060163
0.00565221
0.00537586
0.0151439
0.014755
0.0142507
0.0136781
0.0132887
0.01304
0.0127122
0.0123603
0.0119679
0.0117977
0.0114412
0.0108556
0.0102928
0.00988212
0.00975319
0.00956024
0.00933175
0.00863298
0.00794744
0.00773006
0.00750545
0.00721502
0.00692748
0.0065635
0.00615578
0.0169485
0.0165151
0.0158339
0.0153772
0.0148555
0.0143065
0.0138815
0.0134858
0.0132042
0.0129209
0.0124757
0.0121449
0.0119575
0.0117131
0.0112113
0.0106966
0.0101479
0.00978886
0.00956849
0.00940545
0.00879269
0.00813292
0.00781995
0.00758743
0.00728204
0.00691951
0.0179498
0.0176573
0.0173626
0.0170571
0.0166595
0.0160871
0.0155545
0.0149964
0.0144419
0.014142
0.0137268
0.0133586
0.0129708
0.0125595
0.012263
0.0120439
0.0117853
0.0114282
0.011013
0.0103955
0.00995481
0.00964404
0.00923224
0.00873961
0.00839283
0.00794845
0.00769513
0.0183183
0.0180752
0.0177868
0.0175091
0.0171323
0.0167236
0.0162472
0.0157596
0.0152829
0.0147922
0.0143491
0.0138907
0.0134741
0.0130422
0.0126168
0.0124015
0.0121588
0.0118818
0.011562
0.0112422
0.0108056
0.0101757
0.00983295
0.00934609
0.00878371
0.0201082
0.0197043
0.0191561
0.0186725
0.0183015
0.0178733
0.0176525
0.0173261
0.0167701
0.0163549
0.0159253
0.015457
0.0150056
0.0144977
0.0140728
0.0136765
0.013145
0.0127303
0.0125204
0.0122843
0.0120026
0.0117482
0.0114746
0.0110854
0.0105492
0.0206174
0.0202224
0.0199171
0.0194877
0.0189634
0.0184071
0.0180745
0.0178545
0.0174127
0.0169831
0.0164867
0.016123
0.0156697
0.0152162
0.0146556
0.0142394
0.0137721
0.0133
0.0129073
0.0126358
0.0124039
0.01217
0.0119209
0.0116487
0.021753
0.0216061
0.0212632
0.0208232
0.0203624
0.0201169
0.0197892
0.0192907
0.0188651
0.0183575
0.0180587
0.0176702
0.0172167
0.0169165
0.0164122
0.0159064
0.0154082
0.0148786
0.0144031
0.0139326
0.0134797
0.0130934
0.0128105
0.0125492
0.0122717
0.0224112
0.0221055
0.021871
0.0217121
0.0215285
0.0209918
0.0206924
0.0204493
0.0201359
0.0197656
0.0191709
0.0186958
0.0183467
0.0179399
0.0175274
0.017122
0.0166741
0.0161771
0.0156641
0.0151944
0.0146092
0.0139562
0.0135096
0.0132343
0.0128733
0.0229899
0.022749
0.0225112
0.0222381
0.0219724
0.021754
0.0215654
0.0212358
0.0209852
0.020776
0.0205252
0.0200823
0.0195006
0.0190853
0.0185179
0.0181734
0.017771
0.0174482
0.0169791
0.016491
0.0160401
0.0155036
0.0149622
0.0142732
0.0136186
0.0237817
0.0235456
0.0233457
0.0231271
0.0229005
0.0226817
0.0223538
0.0221279
0.0217873
0.0216179
0.0213825
0.0211669
0.0209659
0.0206677
0.0203291
0.0198333
0.0193042
0.018787
0.0184814
0.0180135
0.0176722
0.0172275
0.0167343
0.0162744
0.0157939
0.015297
0.0244378
0.0242643
0.023944
0.0236971
0.0234807
0.0232426
0.0230364
0.0228126
0.0225489
0.0222509
0.0219365
0.0216866
0.0214927
0.0212848
0.0211153
0.0207759
0.0202871
0.0200431
0.0196543
0.0192189
0.0188418
0.0183064
0.0178859
0.0174279
0.0170144
0.016547
0.025291
0.0249096
0.02456
0.0243178
0.0240724
0.0237808
0.0235352
0.0233447
0.0231529
0.0229568
0.022628
0.0223314
0.0221291
0.0218203
0.0216129
0.0214011
0.0211403
0.0207559
0.0202632
0.0200658
0.0198765
0.0193532
0.0191028
0.0187949
0.0181986
0.0177128
0.0172839
0.0258457
0.0256426
0.0253441
0.0250207
0.0246837
0.0243696
0.0240961
0.0238598
0.0236386
0.023442
0.023248
0.0230548
0.0228534
0.0224981
0.022181
0.0219892
0.0217708
0.0215698
0.0212587
0.0207647
0.0202643
0.0200387
0.0197894
0.0194796
0.0192316
0.0190211
0.0187056
0.0263577
0.0260313
0.0257482
0.02546
0.0251223
0.0247585
0.0244443
0.0241634
0.0239041
0.0236904
0.0235045
0.0233201
0.0231288
0.0229236
0.0226777
0.0223999
0.0221664
0.0219758
0.0218071
0.0215746
0.0209767
0.0203993
0.0200878
0.0198641
0.0195823
0.0193121
0.0272164
0.0268019
0.0264903
0.0261734
0.0258557
0.025569
0.0251604
0.0249407
0.0246594
0.0243231
0.0240603
0.0237865
0.0235512
0.023387
0.0232027
0.0229959
0.0227698
0.0225288
0.0223067
0.0221174
0.0219971
0.0216642
0.0210391
0.0205607
0.0202386
0.0199709
0.0279455
0.0276253
0.0273356
0.027014
0.026675
0.0263469
0.0260488
0.0256372
0.0253457
0.0250806
0.0247217
0.0243905
0.0240387
0.0238817
0.0236442
0.023468
0.0232872
0.0230842
0.0228627
0.022635
0.0224234
0.022204
0.0219402
0.0216096
0.021275
0.0208206
0.0283922
0.028136
0.0278231
0.0274598
0.0271501
0.0267105
0.0265294
0.0261951
0.0257724
0.0254841
0.025214
0.0248418
0.024525
0.0241868
0.0239252
0.0237668
0.0235858
0.0233919
0.0231841
0.0229644
0.0227147
0.0224974
0.0222714
0.022009
0.0217329
0.0291786
0.02892
0.0286319
0.0283546
0.0280451
0.0276645
0.0274254
0.0269852
0.0266237
0.0262449
0.0259731
0.025697
0.0253453
0.0250168
0.024691
0.0243813
0.0241265
0.0239001
0.0237181
0.0235155
0.0233004
0.0230672
0.0228216
0.0225802
0.0223748
0.0221402
0.0299359
0.0296642
0.0293952
0.0291092
0.0288174
0.0285342
0.0282458
0.0277594
0.0275655
0.0272598
0.0268744
0.0265182
0.026159
0.0258241
0.0255325
0.0251985
0.0248255
0.0245145
0.0243531
0.0240213
0.023862
0.0236488
0.0234038
0.0231623
0.0229485
0.0227252
0.0306758
0.0303578
0.0300836
0.0298301
0.0295585
0.0293037
0.0290269
0.0287438
0.0284184
0.0280417
0.0277385
0.0274842
0.0270842
0.0267126
0.0263552
0.0260121
0.0256855
0.0254412
0.0251416
0.0246669
0.0243621
0.0241616
0.0240165
0.023782
0.0235424
0.0233125
0.0230725
0.0310596
0.0307737
0.0305074
0.0302197
0.0299881
0.0297299
0.0294789
0.0292209
0.0289585
0.0286718
0.0283296
0.0279945
0.0277196
0.0272938
0.0269203
0.0265501
0.0261883
0.0259209
0.0255428
0.025405
0.0249788
0.0246762
0.0243876
0.0241608
0.0239322
0.0237116
0.0317713
0.0315349
0.0312761
0.030936
0.0306247
0.0303497
0.0301372
0.0299623
0.0297303
0.0294493
0.0291476
0.0288354
0.0285337
0.028289
0.0279336
0.0275252
0.0271255
0.0267135
0.0262644
0.0263112
0.0257986
0.025429
0.0251766
0.0248563
0.0245201
0.0243116
0.0321337
0.0319354
0.031732
0.0314921
0.031134
0.0309412
0.0306337
0.0303722
0.0301242
0.029891
0.0296319
0.0293261
0.0290019
0.0286185
0.0284116
0.0281308
0.0276713
0.0272835
0.0271195
0.0267586
0.0263306
0.0259301
0.0256202
0.0253594
0.0250404
0.0327274
0.0325204
0.0323064
0.0320611
0.0318824
0.0317043
0.0313611
0.0309646
0.0308163
0.0306673
0.0303746
0.0300473
0.0298113
0.0295542
0.0292324
0.0289287
0.0285997
0.0283184
0.0280037
0.0274986
0.0271351
0.026864
0.0265135
0.0261756
0.0257953
0.0331227
0.032875
0.0326639
0.0324331
0.032206
0.0320252
0.0318481
0.0315553
0.0311492
0.0309813
0.0308911
0.0306267
0.0302804
0.0299864
0.0296881
0.0293918
0.0291383
0.0288058
0.0284922
0.0280779
0.0276481
0.0272966
0.0269784
0.0266808
0.0264244
0.0338098
0.0335399
0.0332705
0.0329855
0.0327682
0.0325397
0.0323144
0.0321117
0.031959
0.0317298
0.0313307
0.0310253
0.0308759
0.0308702
0.0305306
0.0301857
0.0298311
0.0295296
0.0293332
0.0292122
0.0286244
0.028198
0.0278249
0.0275282
0.0271595
0.0343222
0.0340419
0.0337254
0.0334134
0.0331178
0.0329174
0.0326979
0.0324653
0.0322495
0.0319029
0.0319124
0.0315928
0.0313109
0.0310374
0.0307934
0.0306316
0.0303827
0.0299748
0.0296655
0.0295366
0.0292212
0.0287191
0.0284226
0.0280725
0.0277183
0.0349025
0.0347339
0.0345091
0.0342533
0.0339076
0.0337302
0.0335568
0.0332048
0.0329093
0.0326696
0.0324166
0.0320774
0.0319326
0.0317756
0.0315011
0.0313178
0.0311224
0.0308032
0.0305141
0.0302091
0.0298526
0.0296262
0.0293324
0.0289513
0.0286235
0.0352861
0.0350919
0.0349045
0.0347103
0.0345185
0.0341392
0.0337646
0.0336448
0.0333979
0.0331488
0.0328006
0.0324902
0.0322372
0.0319945
0.0318412
0.031644
0.0314514
0.0313058
0.0310797
0.03077
0.0304482
0.0300989
0.0298014
0.0294027
0.0358254
0.0356061
0.0354157
0.0352108
0.0350254
0.0348645
0.0346771
0.0343906
0.033962
0.0338106
0.0336016
0.0333312
0.0330427
0.0327196
0.0324512
0.0322102
0.0320047
0.0318103
0.0316023
0.0314167
0.0311647
0.0309027
0.0306185
0.0303167
0.0300321
0.0361328
0.035932
0.0357584
0.035574
0.0353749
0.0351786
0.0350234
0.0348148
0.0345189
0.0342609
0.0340448
0.0338658
0.0336017
0.0332882
0.0329535
0.0326533
0.0323896
0.032087
0.0319021
0.0317436
0.0315205
0.0312753
0.0310575
0.0307821
0.0366482
0.0364511
0.0362712
0.0360621
0.0358837
0.0357205
0.0355243
0.0353324
0.0351647
0.0349831
0.0347237
0.0344317
0.0342259
0.0340099
0.0336474
0.0333751
0.0331085
0.0328735
0.0325369
0.0323035
0.0321032
0.0318852
0.0316399
0.0314367
0.0312035
0.0369779
0.0367765
0.036598
0.0364111
0.0362095
0.0360263
0.0358437
0.0356693
0.0354364
0.0351552
0.0350637
0.0348728
0.034614
0.0344356
0.0341757
0.0339561
0.0336747
0.0333019
0.033011
0.032727
0.0324868
0.0322631
0.0320576
0.0318226
0.0375123
0.0373152
0.0371148
0.0368916
0.0367163
0.0365568
0.0363626
0.0361919
0.0359943
0.0358138
0.0356235
0.0352702
0.0351255
0.0349281
0.0347727
0.0345567
0.0342822
0.0340819
0.0338676
0.0335563
0.0332111
0.0329366
0.032655
0.0324722
0.0322739
0.037824
0.0376289
0.037443
0.0372477
0.03704
0.0368592
0.0366746
0.0365149
0.0363364
0.0361654
0.0359169
0.0358229
0.0355627
0.0352835
0.0350103
0.0349061
0.0346731
0.034403
0.0341899
0.0339874
0.0336824
0.0333538
0.0331287
0.0328675
0.0381469
0.0379765
0.037766
0.0375531
0.0373785
0.0371742
0.0369992
0.0368073
0.0366463
0.0364874
0.036328
0.0360473
0.035888
0.0356601
0.0354495
0.0352204
0.0349116
0.0347038
0.034475
0.0343222
0.0341107
0.0338187
0.033561
0.0333251
0.0386456
0.0384767
0.0382972
0.0380801
0.0378756
0.0376924
0.0374884
0.0372978
0.0371068
0.0369403
0.0367763
0.0366251