/*--------------------------------*- C++ -*----------------------------------*\
| =========                 |                                                 |
| \\      /  F ield         | OpenFOAM: The Open Source CFD Toolbox           |
|  \\    /   O peration     | Version:  2312                                  |
|   \\  /    A nd           | Website:  www.openfoam.com                      |
|    \\/     M anipulation  |                                                 |
\*---------------------------------------------------------------------------*/
FoamFile
{
    version     2.0;
    format      ascii;
    arch        "LSB;label=64;scalar=64";
    class       volScalarField;
    location    "100";
    object      omega;
}
// * * * * * * * * * * * * * * * * * * * * * * * * * * * * * * * * * * * * * //

dimensions      [0 0 -1 0 0 0 0];

internalField   nonuniform List<scalar> 
404911
(
303.96
217.556
3452.49
1536.78
213.315
239.773
190.883
608.941
347.046
284.541
250.802
336.218
215.417
307.007
454.63
1126.24
281.303
223.507
245.52
384.73
555.767
268.944
712.608
509.45
227.864
987.717
280.225
207.876
273.933
1009.7
251.472
212.498
368.551
545.232
257.433
206.787
366.258
456.662
253.787
168.744
279.62
1026.28
241.707
156.999
186.379
409.961
349.152
159.579
188.606
911.651
396.414
298.676
226.482
1358.62
354.17
590.605
9403.83
183.202
328.788
227.464
270.301
168.451
173.787
96.6993
86.9056
169.224
164.553
253.177
117.174
126.186
146.784
54.453
185.236
108.198
56.1617
605.73
2271.64
249.252
92.9874
189.05
123.77
212.012
47.9405
124.968
183.971
91.7274
343.601
98.879
1141.38
304.117
223.254
2969.59
135.992
239.429
164.269
122.09
146.912
233.694
104.868
239.905
670.568
181.206
140.729
521.446
1311.41
545.121
283.055
728.784
373.353
301.338
238.137
241.615
231.95
248.998
2356.44
570.321
253.373
4615.82
648.088
215.627
217.123
214.871
218.159
301.375
1400.64
370.656
250.807
233.148
209.478
569.617
511.929
565.742
215.14
202.049
212.105
203.958
263.003
273.864
205.056
312.016
1262.66
362.073
238.61
217.229
213.486
205.925
204.501
192.586
553.183
492.41
200.907
192.845
213.567
1852
308.003
1052.6
295.411
209.704
195.505
203.794
201.504
203.066
200.344
195.603
189.145
183.996
186.021
188.554
207.238
290.12
444.277
638.211
486.824
451.686
447.309
457.1
544.861
196.304
196.529
186.679
186.199
185.582
198.47
217.725
230.559
233.352
328.101
754.196
501.571
425.41
423.246
308.345
370.59
563.797
479.795
184.939
188.21
184.699
195.092
206.557
218.827
257.877
1235.66
1054.19
294.924
634.628
325.271
281.87
256.449
459.486
433.971
326.773
366.865
451.978
473.137
172.977
191.468
200.948
204.046
235.443
542.332
921.553
646.25
299.133
281.547
213.313
236.755
236.331
276.003
412.25
430.963
395.553
306.018
154.76
197.368
206.508
231.427
334.734
1272.15
1291.2
322.825
154.997
217.255
199.968
193.23
176.334
202.845
444.624
325.942
240.393
229.833
253.948
308.113
503.037
197.598
246.993
1174.56
508.042
195.781
135.895
283.32
212.104
199.283
189.126
197.143
199.018
187.555
172.047
226.045
264.634
389.015
478.036
570.316
465.876
517.007
236.425
181.774
458.176
247.675
195.459
205.9
197.479
191.274
195.261
175.198
170.046
352.85
375.185
450.812
506.415
1757.65
397.1
206.029
178.211
163.084
174.279
191.761
200.175
173.114
188.866
192.502
199.425
193.927
204.815
460.702
407.488
468.331
279.07
1090.82
1036.8
936.677
326.376
279.381
160.487
139.406
199.341
177.178
198.793
189.685
191.621
183.933
192.105
210.205
262.763
369.25
215.002
591.654
1171.74
286.842
172.443
170.765
181.748
192.901
199.842
133.831
200.106
168.958
211.426
160.369
145.472
170.764
189.891
249.329
613.453
291.127
510.46
186.929
134.165
141.228
146.856
261.107
175.171
193.8
132.199
150.894
121.284
128.233
163.85
127.255
160.848
247.36
211.79
1051.08
1198.51
294.963
169.325
140.554
127.28
125.713
153.892
147.348
119.647
113.991
105.895
165.576
164.827
182.101
136.543
156.246
405.635
947.085
386.834
167.774
136.864
209.451
227.13
148.213
155.102
143.151
109.336
97.8331
100.068
121.715
153.549
175.47
205.513
163.766
324.33
777.867
1161.3
943.369
340.123
215.01
197.607
185.519
166.034
130.373
160.224
130.955
115.728
115.266
122.305
140.029
190.351
178.401
176.635
494.108
477.437
194.947
170.393
160.059
161.165
141.586
131.244
192.978
140.128
192.503
142.479
140.627
136.17
153.93
141.307
164.618
319.571
1033.46
218.161
146.821
176.753
134.709
135.273
139.32
112.206
136.458
163.227
172.904
189.123
197.99
166.003
155.293
201.954
186.137
360.912
474.423
164.846
194.017
166.95
130.643
122.221
139.35
111.667
95.4273
120.046
197.569
178.44
172.671
193.408
177.319
219.596
211.076
1062.63
283.578
138.88
133.456
118.626
117.289
114.324
124.4
151.326
84.6731
88.5533
105.286
137.254
166.566
198.314
256.525
198.074
333.177
1264.64
502.401
200.545
143.507
130.425
118.573
106.958
115.229
121.509
99.5397
92.6008
84.1495
98.7581
117.336
131.683
222.133
137.357
218.926
1084.98
1177.3
264
140.732
182.477
139.268
122.369
108.982
99.7311
95.1196
114.9
90.3681
100.3
130.936
132.768
140.644
145.452
182.885
339.96
461.126
173.36
139.502
127.003
121.223
116.658
109.955
108.394
115.541
87.7016
87.8808
99.8533
132.119
164.91
185.561
173.975
213.75
1070.77
1170.21
249.142
133.493
125.645
116.996
112.364
108.684
107.321
105.011
105.28
118.539
111.318
118.786
126.15
147.54
163.968
208.08
315.009
933.751
167.935
135.079
119.383
109.041
105.168
100.878
100.18
101.343
101.638
96.5253
104.214
109.764
120.268
135.631
163.126
228.233
366.94
295.25
138.318
158.241
127.527
108.403
98.982
96.5573
93.2765
92.1898
95.5894
100.022
106.249
115.297
123.571
152.295
170.3
193.573
556.547
273.411
158.383
158.289
128.933
111.877
98.5268
100.737
90.6574
88.7813
90.9687
97.7456
107.919
118.157
137.99
139.887
150.117
284.216
1180.41
1220.39
209.866
135.709
142.85
131.412
116.572
105.355
100.608
112.056
88.7154
89.9812
96.7077
109.143
121.199
133.17
180.346
192.312
506.51
985.066
191.349
137.043
120.764
115.183
110.832
103.722
95.0281
91.7251
102.032
94.9194
93.6411
105.329
123.109
132.311
160.53
199.974
1122.97
325.767
165.247
143.141
127.75
119.569
114.837
108.991
97.021
88.4249
83.6757
85.6523
94.1597
107.857
119.239
155.884
139.107
209.942
1160.5
309.151
146.884
124.318
120.317
114.794
118.709
120.777
90.412
92.105
91.1924
94.8896
101.556
113.972
126.963
136.719
151.659
308.068
1084.99
227.425
143.069
128.353
117.802
111.186
103.097
113.074
107.494
84.3475
89.4054
97.2065
106.366
116.856
129.412
155.017
176.447
493.425
471.16
172.136
173.172
165.366
124.377
110.404
100.731
85.7008
111.398
92.2548
73.3693
93.6619
110.603
118.551
129.738
150.719
195.222
1061.27
312.887
146.854
124.566
119.895
110.833
108.457
116.92
90.9793
92.6295
69.2553
98.8313
82.997
104.592
117.624
124.663
158.905
247.738
1195.34
1104.45
210.457
137.726
129.802
118.373
111.817
100.346
109.58
101.476
90.7559
82.9108
63.0175
103.36
116.724
117.98
132.588
141.597
280.762
1097.59
198.719
134.078
120.026
112.022
105.984
101.539
95.0236
106.655
103.319
100.245
81.3635
82.5898
103.137
117.256
126.207
157.178
464.652
1079.86
195.936
134.767
117.735
111.92
103.949
96.6282
92.7467
90.8919
89.3002
82.689
91.9579
74.9481
105.879
127.817
143.557
174.943
958.658
1072.39
190.017
133.253
116.879
109.824
104.272
96.9157
91.1403
87.9107
89.592
78.0131
73.4551
93.4836
106.666
132.403
168.325
241.482
1190.75
306.23
166.66
137.647
118.838
108.525
100.92
94.9143
91.7176
87.2273
83.8144
81.657
81.2397
86.1196
114.488
128.812
162.646
265.812
1201.2
280.621
142.344
124.149
116.46
104.287
94.9353
89.1642
86.5747
89.9376
85.2281
83.2671
84.1154
86.0692
116.016
120.571
157.799
259.238
1153.42
196.036
143.714
146.025
116.764
105.134
92.2484
85.1633
82.0234
81.7735
87.3191
89.1414
89.5021
103.99
119.791
137.416
147.593
275.152
1031.75
193.394
133.783
115.044
108.795
100.771
91.9897
87.8349
93.3295
82.6946
81.9722
85.7182
96.2094
105.486
114.687
139.251
138.854
288.139
1103.32
195.537
134.339
117.576
108.678
102.714
93.4822
86.1251
85.3516
98.2571
93.6165
82.3793
88.9507
104.133
114.594
137.589
146.441
307.062
1102.99
200.504
136.886
119.353
110.31
101.771
93.9834
86.4189
83.9566
81.0074
81.3157
82.0269
89.9307
101.802
117.128
129.15
161.646
463.68
1031.09
189.676
134.567
119.632
110.051
99.7942
88.1045
80.9509
75.821
78.1045
82.4196
88.0864
97.4513
107.491
118.385
141.612
191.618
1044.43
319.473
183.124
133.254
119.316
109.022
96.7198
83.3701
72.0301
69.1802
66.7541
74.3733
86.4138
98.7708
110.349
119.693
137.779
192.288
1127.83
324.637
176.855
129.356
120.006
110.072
91.2075
84.9287
70.1305
63.6542
59.1685
69.7146
86.2646
99.4518
108.318
119.156
137.785
188.957
1089.62
1221.05
230.325
170.356
133.46
115.504
113.364
99.0885
73.4199
84.7954
56.4214
56.7642
49.9309
64.736
98.9619
109.206
116.815
144.145
203.668
1075.01
1104.37
190.789
133.452
190.793
133.343
106.912
102.328
91.2663
64.6591
54.882
49.4961
46.8403
78.3426
111.408
115.229
119.903
137.382
253.262
196.101
133.756
118.43
112.214
106.055
98.3908
79.4292
75.4619
59.6898
61.1827
45.0159
75.615
98.5946
115.146
131.984
136.452
267.273
1028.77
192.73
128.482
112.373
108.788
105.435
102.124
94.1063
75.9236
89.402
51.0175
40.0566
58.9549
105.539
115.269
142.629
146.111
312.738
1062.57
179.208
123.656
108.7
106.643
105.437
98.893
97.4216
90.984
69.1582
78.1497
51.1278
63.5043
109.293
113.204
135.951
153.238
468.464
1159.97
174.659
125.674
111.353
106.284
104.473
99.1581
92.2241
93.7476
89.5597
60.9217
85.3727
100.606
109.831
119.631
127.125
160.843
896.96
162.146
146.208
125.14
109.988
102.29
101.481
95.3268
90.6106
85.0434
68.1285
84.9898
95.4508
104.08
119.797
144.956
184.356
1000.15
768.65
247.706
126.839
107.127
100.29
96.7037
98.3653
92.1168
79.1262
71.2871
69.4706
100.03
107.15
114.747
149.947
189.936
1098.07
2215.55
283.574
179.32
160.912
104.009
94.7059
94.0663
91.4246
95.8094
87.5763
83.9078
83.1516
102.289
108.85
119.946
136.402
212.868
1149.65
298.684
145.911
131.966
117.443
88.6599
85.5254
88.7952
85.7855
92.3656
90.4352
76.6169
75.8455
97.9649
104.812
122.051
144.335
287.67
278.862
139.676
126.881
100.487
81.1046
75.1831
81.7944
90.6422
77.0792
93.8488
64.7174
76.8996
97.772
103.954
119.732
149.438
308.329
1213.26
238.844
135.086
126.545
115.254
86.8586
85.1877
74.9304
71.0353
90.686
65.8744
62.715
79.0656
102.031
113.656
122.302
168.05
893.053
986.192
182.147
144.917
114.571
105.522
83.8503
146.65
131.455
69.9552
54.3672
73.9891
75.4498
85.5943
106.897
134.462
149.641
175.126
1017.84
858.658
143.696
245.598
167.655
102.828
61.898
76.9072
111.881
177.024
79.1606
54.7936
79.5202
108.047
130.634
159.198
186.41
180.932
1030.6
463.385
134.549
145.102
131.026
86.3406
54.0522
73.1446
56.92
81.6918
110.207
72.2457
96.1149
120.941
134.7
152.983
208.594
192.181
1077.57
1056.63
249.271
132.222
136.431
137.499
92.711
44.2815
42.7824
58.9718
75.4092
69.9739
104.64
120.707
124.964
119.965
138.829
168.799
332.564
1091.61
953.738
158.71
173.037
132.059
129.3
87.6673
37.6352
17.7891
25.6185
46.5929
63.883
96.9192
102.542
108.289
118.268
126.244
140.029
212.5
1126.98
237.012
151.158
128.548
124.752
70.7949
38.7607
20.3359
18.4427
35.8789
55.6585
87.7853
102.278
110.267
119.547
136.736
139.759
272.043
1255.09
274.795
150.697
152.802
134.597
65.3905
26.2892
42.4411
65.9752
32.5114
52.1737
70.6705
107.248
113.131
120.637
134.69
151.345
316.58
283.897
163.145
168.815
151.111
83.3542
23.0019
20.5339
49.1467
49.3073
44.7284
91.6366
111.523
116.268
122.166
139.284
158.146
475.608
252.252
262.299
195.594
162.083
98.0664
20.0573
14.335
19.6367
34.5849
53.1501
71.6429
115.999
120.934
129.278
135.617
165.96
927.978
1009.53
180.001
167.521
167.234
152.858
93.4154
32.3422
16.276
21.9774
39.3305
72.4451
97.6631
125.235
131.96
132.207
161.046
203.716
1034.88
958.154
185.88
174.35
158.248
143.562
86.6518
26.3532
20.1443
25.9679
45.2121
72.9332
114.94
132.738
132.73
144.846
142.281
291.738
893.788
158.383
128.71
131.447
136.74
89.3122
38.0679
23.2256
29.8267
52.4397
86.5719
128.163
125.152
128.675
147.208
151.58
331.671
906.808
155.427
128.143
126.526
136.228
89.0587
27.6832
25.6445
47.6675
72.3033
91.0925
128.555
125.809
125.546
145.178
161.329
334.946
921.831
159.287
132.041
127.285
124.717
96.1639
31.8932
26.5319
38.5059
67.8376
99.0778
124.685
121.202
125.585
135.221
171.516
930.576
936.838
161.736
143.049
138.426
132.734
78.5259
61.4052
36.1325
40.5835
63.4786
96.8503
122.766
118.077
125.784
139.913
198.893
1037.93
316.345
165.367
185.997
165.622
123.546
93.0369
148.285
128.854
71.1474
64.8467
88.0117
106.809
114.686
120.73
152.139
202.356
1110.84
369.452
372.397
191.825
114.063
52.7179
47.3855
83.6117
176.785
82.9586
80.0819
111.758
119.393
132.234
145.824
248.264
1240.04
355.557
230.759
192.966
173.688
44.6816
32.0714
48.823
82.3008
109.561
112.214
140.469
127.467
139.092
142.676
292.704
336.556
225.942
204.184
192.346
170.37
76.9465
43.9277
61.6038
88.5159
139.002
147.843
128.73
140.455
138.767
144.557
316.11
363.954
163.53
172.661
207.192
203.62
157.148
82.1488
89.8914
153.71
167.581
157.05
171.581
155.608
197.331
174.475
890.861
371.156
172.448
173.331
193.188
217.994
219.776
142.535
167.707
188.415
190.815
179.416
185.505
186.741
227.366
202.008
1087.13
1280.46
341.445
198.277
156.755
197.343
217.939
197.248
202.995
167.912
200.498
208.364
193.989
169.124
224.4
254.496
501.745
1325.79
251.906
161.37
184.603
153.616
240.645
218.046
171.339
122.759
167.583
172.93
177.377
190.62
217.678
305.903
263.135
1068.98
235.259
176.705
151.968
144.975
172.944
213.122
304.736
187.95
165.762
186.244
189.006
183.673
197.902
313.273
855.636
336.072
178.403
598.345
336.256
220.468
152.463
172.057
132.009
166.683
175.462
163.076
147.334
161.102
201.594
331.965
4172.04
338.76
591.755
285.076
217.94
203.702
173.28
164.122
208.853
191.147
180.609
189.024
180.746
175.461
213.033
331.77
854.227
1113.94
672.429
344.023
214.616
186.429
174.499
129.072
139.847
176.976
187.231
207.761
215.432
231.938
227.321
368.851
1233.64
218.634
468.379
243.984
175.347
145.283
127.31
150.083
159.955
176.472
194.265
212.8
155.093
225.737
273.256
1504.61
1223.22
239.899
177.697
329.912
225.959
193.307
139.853
121.267
161.742
176.512
198.618
201.134
197.291
185.122
369.887
1329.37
606.978
231.28
187.998
493.129
317.044
205.64
157.577
168.313
176.178
178.375
196.713
260.323
158.922
200.337
378.019
1180.27
579.525
493.041
356.247
263.536
174.821
162.106
151.311
190.185
187.28
249.424
182.941
259.834
1217.01
751.721
545.608
475.202
392.319
268.057
285.626
172.033
153.956
186.338
240.368
152.863
195.05
353.418
1228.62
231.897
185.772
520.034
349.502
197.46
264.233
273.155
176.383
202.02
225.595
179.225
227.776
566.498
1274.34
240.358
195.883
517.177
441.09
260.623
239.397
340.875
310.429
297.803
351.471
192.096
245.012
1252.06
1178.94
228.272
574.934
506.1
482.546
339.53
237.123
225.267
231.984
315.467
497.42
196.37
253.565
1338.2
1241.86
222.298
572.605
499.641
499.652
465.374
244.617
244.986
214.809
311.564
505.704
198.721
338.708
1388.38
1197.25
235.478
187.253
520.213
475.026
507.669
326.92
200.165
222.091
330.851
190.473
217.33
345.746
1500.26
1501.78
1198.04
200.639
180.308
488.622
487.176
614.056
324.662
263.759
372.558
540.034
225.52
370.007
189.983
530.876
476.355
490.225
180.141
546.975
554.061
581.45
548.976
195.098
176.639
494.282
583.78
210.752
233.867
313.488
1224.32
6363.36
616.002
183.324
533.147
578.047
251.767
418.86
2855.25
2154.06
533.084
829.409
239.457
272.829
1240.56
523.216
828.754
245.023
264.596
636.841
883.358
655.931
300.452
246.126
292.397
1242.99
1209.64
300.847
1969.78
846.983
562.01
374.108
216.561
200.132
228.783
226.786
686.531
320.132
217.375
389.172
720.2
1564.86
1390.4
6511.8
530.757
1545.66
621.449
587.978
1464.57
651.238
442.906
337.236
320.761
298.18
276.975
265.866
362.047
1509.12
672.136
435.732
325.121
307.357
284.328
270.165
267.878
274.51
271.654
266.277
252.498
254.797
263.053
256.188
1406.06
629.902
345.258
306.637
278.653
273.261
267.505
260.745
262.527
261.082
263.606
252.39
243.168
249.391
261.915
261.584
269.133
267.797
275.395
375.044
449.367
935.106
1053.69
575.944
316.954
281.094
272.546
258.116
251.251
251.485
250.604
249.375
249.426
251.903
257.293
236.501
624.324
620.475
267.048
277.048
258.247
267.857
266.478
297.679
661.221
600.957
356.044
277.701
255.11
232.183
219.669
225.2
231.615
235.767
232.75
232.011
228.209
238.341
238.094
244.484
246.903
229.257
574.821
624.614
242.63
267.133
270.346
286.114
327.273
1364.93
453.914
218.029
174.113
168.195
211.684
225.549
486.427
734.839
894.404
200.837
220.928
225.172
207.879
196.357
203.992
228.275
235.359
224.279
210.85
541.129
607.944
251.687
281.094
328.052
683.75
1569.11
413.989
308.844
270.777
216.091
212.821
207.066
229.444
257.287
264.287
264.037
493.087
198.848
215.77
245.337
227.549
695.202
208.176
231.824
243.171
245.559
613.286
618.135
299.573
663.317
1325.15
345.678
370.879
303.091
214.583
193.897
196.297
218.677
205.911
179.247
279.56
252.352
264.306
266.73
362.89
547.291
196.852
234.654
573.432
226.266
242.754
247.178
257.563
294.077
603.162
466.308
1423.27
346.441
273.534
248.187
243.003
164.57
171.493
182.735
189.742
207.231
195.594
151.426
263.012
241.441
252.619
256.853
231.313
209.334
175.843
215.989
196.071
247.29
274.183
401.699
669.211
1139.65
433.588
202.25
192.811
229.431
201.064
205.606
161.347
149.331
147.819
187.375
197.062
181.924
154.548
153.749
157.173
157.462
160.747
211.141
200.11
266.326
225.01
228.553
235.816
271.222
595.626
1232.24
246.849
160.91
241.17
215.927
185.361
198.192
159.311
174.565
171.619
180.543
175.611
171.473
170.322
199.739
155.47
161.502
161.685
168.988
180.991
311.461
198.08
642.769
612.484
743.12
4689.56
807.209
1419.05
322.28
230.451
182.022
175.742
163.764
190.517
200.225
175.607
164.426
178.916
178.296
167.458
192.281
192.331
174.162
159.833
178.929
182.729
186.381
188.588
168.759
627.854
1755.42
1327.89
359.469
228.12
173.125
154.781
167.114
162.398
144.446
103.638
110.367
198.986
188.036
170.118
133.453
239.623
218.885
199.415
200.058
232.686
216.098
200.437
153.29
232.73
502.659
491.833
209.965
200.995
213.37
197.743
155.468
140.203
151.303
162.212
125.565
106.241
102.473
108.599
93.5883
130.916
124.626
121.994
205.312
202.471
221.035
291.272
276.284
150.602
223.052
523
463.198
212.07
173.116
187.311
160.586
150.005
140.607
142.52
142.271
150.254
143.815
131.569
119.317
99.9181
99.1758
119.904
134.133
164.82
176.22
219.037
266.766
281.538
466.556
213.77
512.874
425.052
183.417
210.001
194.719
164.058
150.902
145.362
137.969
136.242
131.31
136.061
140.924
127.865
147.086
101.526
101.476
112.088
154.667
188.939
201.199
246.197
310.19
322.114
452.38
904.687
1219.37
417.303
182.464
189.05
163.622
157.03
152.278
152.729
144.604
126.231
117.674
107.068
106.875
122.352
138.622
131.691
124.479
117.915
123.343
123.678
140.641
176.027
255.346
291.232
422.186
437.233
1200
412.621
173.825
181.785
160.042
154.188
152.454
149.087
141.842
137.261
84.8205
79.1673
84.232
87.6307
93.7834
120.024
119.107
129.94
141.19
156.404
136.151
150.949
166.519
220.66
415.424
473.489
1085.38
286.472
167.737
191.266
161.985
151.217
146.001
140.776
135.411
126.401
107.458
92.5234
72.8017
79.1575
82.1163
90.8588
97.7028
95.0876
92.0378
111.139
140.959
137.766
154.468
184.892
245.016
349.413
1401.44
1295.31
306.267
163.197
155.161
148.442
144.935
139.163
125.044
108.612
99.6815
97.5969
95.0536
88.3085
85.4264
84.1424
86.8368
92.0344
107.006
116.029
113.105
97.0298
154.917
166.29
195.91
239.028
220.249
1606.5
447.534
172.896
195.696
160.026
147.027
142.92
127.421
88.099
76.2595
73.4895
74.2031
75.0432
78.4354
81.9503
83.0423
85.8386
95.5092
112.543
127.121
140.583
151.417
164.447
198.733
243.265
214.137
490.444
495.822
209.047
163.729
151.024
144.332
142.949
134.306
94.1055
52.1678
48.5915
52.6005
58.0269
64.5056
71.2161
79.9601
86.3019
91.7672
103.452
119.169
131.892
139.523
150.397
162.39
206.748
207.682
499.639
1061.1
264.81
163.449
167.521
147.673
142.008
141.023
115.024
61.182
38.5218
29.9133
33.3493
40.5591
51.7112
66.0732
80.9783
93.1735
103.893
116.798
129.013
139.503
151.469
164.897
182.213
173.614
437.63
441.272
172.623
158.886
144.201
137.23
130.099
109.801
59.4372
37.9193
30.4176
25.7473
25.2495
29.756
38.3725
53.9003
69.5113
88.9768
112.309
126.151
138.652
146.914
153.66
188.482
238.418
314.073
496.422
193.227
198.38
161.19
143.245
132.463
121.433
60.1676
36.2612
26.4334
23.3631
22.6716
22.7633
23.8346
27.8417
39.2196
57.0768
76.6994
107.389
131.965
145.107
153.684
158.769
173.476
190.946
878.273
994.469
247.981
162.147
167.077
144.584
134.692
123.726
107.155
51.8122
32.1981
24.0323
21.0336
21.3412
22.2129
24.2521
27.6408
31.9465
45.7901
65.5127
109.104
130.86
147.202
162.59
170.302
169.487
440.265
989.129
257.781
166.108
171.724
145.005
133.035
120.139
107.672
78.9466
48.2112
34.7005
29.8274
23.5064
21.4005
21.9234
26.7296
32.3616
39.2799
58.2499
103.517
132.874
145.3
156.117
184.922
221.832
285.113
1150.32
433.465
184.64
170.476
142.314
136.01
122.867
103.319
79.5565
55.8817
34.7512
28.7909
32.5892
34.5232
27.0448
26.3555
32.0162
45.3657
64.8124
98.9617
139.423
149.767
159.957
189.065
226.778
266.392
989.051
824.127
214.346
196.788
152.287
135.134
125.549
107.863
88.9083
69.0456
45.2203
29.5586
28.6046
39.2664
45.7987
43.0822
35.1584
38.2952
59.808
106.148
135.331
141.261
150.828
195.229
230.275
261.582
980.1
270.442
162.813
144.532
133.958
126.873
122.272
76.8489
55.564
60.1403
43.2002
30.9197
29.777
42.077
58.1627
55.4537
44.878
47.8406
73.9045
125.232
134.45
144.431
161.89
184.103
239.06
970.098
823.452
175.102
152.444
135.973
128.368
121.165
108.114
90.1054
50.7257
43.9453
50.3961
44.877
37.9095
44.6253
60.662
73.555
72.7966
66.1168
114.985
128.89
141.625
158.126
188.165
233.38
427.98
283.335
163.582
141.28
130.757
120.133
104.964
84.0821
68.7588
55.0587
38.5792
40.1325
43.629
44.7234
45.8451
55.6891
75.9063
89.3442
109.44
123.645
141.8
148.186
178.805
228.492
272.088
1014.91
984.902
218.823
152.226
132.053
124.36
109.332
80.2026
61.1937
48.6677
39.7182
33.7386
31.7353
35.4456
39.9786
43.0184
47.4229
64.0022
97.7121
113.58
130.57
145.945
161.847
171.945
184.351
915.575
355.005
177.422
162.588
136.852
121.147
92.3821
61.409
44.0396
34.7288
29.5047
28.2281
30.5994
36.1627
46.8434
63.1302
75.5713
84.173
112.762
120.232
130.341
149.244
169.693
217.34
295.784
1289.58
763.235
160.432
144.146
130.061
120.407
115.781
64.3054
38.7266
30.6491
24.8295
23.4154
23.3443
26.568
35.7352
50.0118
68.4515
91.4621
106.321
114.864
127.895
136.337
148.083
196.145
257.584
971.242
229.955
186.727
141.908
127.765
116.582
103.395
91.9898
48.7245
26.8358
22.8643
21.7867
22.1477
23.4971
29.2534
41.2237
59.7007
82.6219
110.665
124.456
136.106
150.353
170.893
162.749
452.284
744.075
162.492
141.355
125.338
117.482
108.987
97.763
83.9238
65.5317
36.0358
22.4716
21.9396
23.8118
23.4223
26.1379
35.8902
53.3152
78.288
109.666
129.394
140.949
151.648
198.315
252.605
1063.15
259.51
154.24
132.678
123.672
113.728
101.383
88.9015
64.3607
52.701
37.8203
25.2082
21.0554
24.2075
30.1147
29.1462
33.6047
52.3932
85.5516
113.58
132.008
144.231
167.181
197.504
430.129
747.624
159.305
140.066
128.848
119.063
105.415
91.199
71.969
53.2756
35.8986
30.8502
24.256
21.9701
25.4955
35.0053
48.0868
55.0756
66.9375
95.5926
127.601
139.638
153.29
162.525
193.236
954.956
255.855
149.302
129.768
122.245
114.234
98.5238
81.3676
65.0955
49.061
34.5721
24.2375
22.8678
21.6342
25.3513
37.2528
55.7426
82.2661
100.129
115.75
133.674
146.653
173.826
210.435
297.67
761.935
158.229
136.864
122.392
115.29
102.064
87.5331
75.4425
63.6576
48.2516
34.1015
26.5776
22.3466
21.7366
24.1448
32.7091
49.8479
71.3358
103.091
124.254
137.919
156.081
166.202
180.662
916.294
263.651
143.205
124.719
117.751
109.156
92.3167
69.8969
62.3808
59.1202
51.6426
38.4773
26.2392
23.2971
24.424
29.2003
40.285
58.3804
73.4536
101.173
126.781
142.196
153.054
221.821
285.343
221.774
180.163
131.312
116.188
104.368
83.2708
60.8975
51.0968
48.7219
49.7409
45.7731
36.861
27.8772
26.7767
33.342
50.6133
78.5588
100.487
112.585
130.96
152.356
175.835
159.954
764.965
790.997
153.899
135.855
120.614
111.229
100.269
75.8141
54.2104
43.5551
40.0347
41.517
45.2959
45.1611
42.1682
42.4669
48.9408
62.6149
83.4405
104.671
119.226
132.156
152.455
219.833
250.325
1062.29
758.072
171.77
133.004
117.337
109.58
98.4073
71.6672
49.9397
38.6394
34.1701
35.0269
38.6064
44.1338
48.932
53.3605
61.0755
71.475
85.3617
101.236
116.776
130.296
146.046
224.15
701.122
383.986
164.465
131.626
116.951
106.97
98.1247
70.3915
47.4721
36.7942
30.5765
28.4399
31.8829
37.3546
44.2129
53.6046
64.8083
77.9287
91.8561
107.854
121.174
135.707
156.991
196.978
841.637
224.736
183.626
137.136
117.382
101.736
90.0444
78.9183
56.2906
39.53
31.4664
25.8612
25.6701
31.4042
39.8285
49.6479
61.6231
76.1291
99.3828
116.301
130.008
136.254
190.181
262.631
763.195
181.42
157.86
125.895
114.83
97.3037
77.2937
64.3033
56.8749
45.2569
35.8335
29.8008
26.5698
29.6135
37.115
48.593
62.3397
78.0804
99.6571
119.436
131.175
162.838
155.716
775.334
397.609
160.375
130.046
117.227
107.697
94.3554
70.6584
55.628
44.6436
39.2892
36.3833
34.019
32.8822
34.2038
40.5095
51.3316
64.0482
82.5034
102.765
116.315
132.017
152.8
201.655
1024.79
216.52
183.73
135.416
117.681
103.326
86.4547
66.1279
51.9489
41.2181
30.0018
28.8911
31.6729
35.1552
39.8838
46.7833
56.6628
69.2514
85.5273
106.665
119.321
131.306
162.931
250.112
793.626
157.458
135.848
119.458
112.369
99.8504
82.4953
60.7406
46.6794
36.217
28.1195
23.0803
25.0094
30.8667
39.0539
48.8843
60.035
74.0651
93.2658
110.351
124.526
132.09
171.727
402.822
388.739
154.249
125.109
118.046
107.972
95.4272
81.9759
59.6551
42.2804
29.1017
23.7151
20.9503
20.2679
24.0367
31.8337
44.052
58.1025
74.3226
99.7245
113.352
124.681
156.114
151.724
749.557
272.091
139.577
121.066
112.8
102.75
87.7192
74.0678
59.0347
41.5936
25.2509
18.489
17.0029
17.8432
20.1026
26.0296
37.4916
55.2407
74.4546
100.103
115.231
124.228
155.905
205.15
1036.26
230.099
183.654
131.769
112.841
98.4426
84.0117
70.0776
57.7924
45.0947
29.717
17.9927
14.4941
14.7624
18.1057
25.5065
40.1547
57.6375
79.5795
104.775
116.588
132.815
146.503
222.237
962.543
163.336
130.571
120.145
111.637
93.1933
73.7655
63.888
56.775
48.9377
37.1395
24.7596
16.4984
13.8489
15.4753
22.1799
37.4695
59.7079
86.9021
110.61
123.242
131.99
183.045
386.358
769.686
151.41
136.97
120.913
112.756
96.6972
70.6636
56.8855
48.5861
45.9073
41.3429
32.0646
22.6064
16.7683
15.0459
19.7612
34.0249
59.1882
93.2561
113.342
124.908
155.186
159.889
795.06
715.084
163.137
129.281
120.044
111.661
96.5974
71.6636
56.0939
44.8234
39.7936
38.3019
33.5282
27.1256
21.0505
18.9221
21.525
35.0538
62.9214
96.9275
115.024
133.378
142.101
221.782
273.289
137.023
118.832
112.423
106.858
94.2577
69.8598
54.2565
43.1299
36.6912
36.5255
34.7745
27.8248
21.5672
20.1776
24.8331
40.4588
68.3063
99.4183
116.131
135.868
182.588
274.135
262.808
137.119
118.756
113.416
103.983
89.2972
67.2922
50.5875
39.3261
34.2158
34.1101
36.1983
34.579
28.1394
23.0728
27.3341
43.4002
68.1165
98.7657
117.741
132.083
189.387
700.768
230.815
182.023
130.875
112.848
99.9303
87.3066
67.6103
50.5677
36.8512
29.4181
28.9632
33.3275
37.8143
39.458
40.1332
46.0498
60.1509
78.5829
98.3218
115.736
152.046
185.015
734.992
228.814
145.225
120.808
111.184
97.3617
80.7305
66.4796
52.02
38.2516
28.3295
23.8308
25.3719
31.247
39.1068
47.3068
56.7074
68.8988
84.6426
98.7527
116.242
138.025
192.813
868.769
219.374
142.773
120.486
111.104
96.5598
77.8325
62.8439
51.5333
39.9102
31.3629
25.7485
23.9464
27.6146
32.432
40.7228
53.4924
68.0325
85.9634
99.2218
114.504
143.493
159.127
967.838
933.548
168.584
136.503
120.963
111.686
95.6448
73.6986
59.622
48.5992
38.7024
32.5029
30.3361
29.7913
30.6341
34.9736
41.4197
51.0892
65.7518
87.9823
103.96
115.008
140.885
198.414
744.952
180.923
159.891
125.976
111.714
93.4974
68.115
54.3675
44.2865
35.0846
29.3788
28.2977
30.9
35.1404
40.2181
46.9314
55.7377
68.0985
90.1266
107.988
116.807
143.324
208.735
735.45
164.212
125.786
113.586
105.714
89.8612
62.5775
47.971
37.8733
30.3582
25.6286
24.1348
25.993
31.598
39.6739
49.7158
60.0966
72.338
91.059
108.441
123.606
131.383
218.149
388.855
150.931
122.181
112.357
102.526
87.3178
65.1453
42.4207
30.3681
25.6618
21.8368
19.8704
20.4823
24.264
32.683
44.7449
58.4291
75.1601
94.1134
108.204
122.564
158.987
269.254
269.024
134.158
115.517
109.158
100.746
87.2789
67.9619
47.7712
25.9921
19.7917
17.5507
15.6871
15.2509
18.1521
25.2981
38.2576
55.0542
75.2585
96.2544
109.05
123.658
159.874
659.513
272.306
135.831
116.332
107.15
97.1221
87.1715
71.8279
51.8726
32.2562
17.4156
12.8015
11.704
11.8222
14.2921
22.1588
37.586
54.2126
75.1023
96.7537
108.676
122.211
163.695
697.34
233.412
138.253
119.061
107.967
95.6472
81.4792
67.3645
54.7286
38.9807
24.6759
14.2782
9.10869
9.14912
12.2136
19.8294
35.2863
55.0551
78.8153
99.0642
112.617
120.014
161.842
728.094
219.782
142.163
115.558
104.385
92.113
74.9104
61.301
52.3646
43.5284
32.2454
21.5443
13.3732
8.64276
10.6864
18.4784
34.4188
54.1976
80.296
101.271
115.779
136.249
150.226
798.457
227.889
143.058
113.059
100.418
86.5768
67.5868
56.3605
47.5568
40.0767
34.8599
28.1262
20.4495
14.5978
12.7719
19.4813
35.9275
55.9855
81.4266
103.814
117.065
144.078
195.971
992.812
218.59
148.455
117.294
98.2819
78.0998
59.2139
50.3682
44.0142
37.2588
29.7984
24.3695
21.7636
21.0453
22.2686
30.165
44.7945
62.0035
84.2359
104.277
119.36
148.346
210.285
929.196
160.487
142.29
126.026
99.6372
62.7055
49.438
43.3561
39.2737
35.2765
28.5369
21.37
17.5277
18.9855
25.9056
38.3837
54.519
70.1736
89.2779
104.093
117.603
151.523
213.148
743.334
184.214
149.373
117.208
98.5842
49.3667
39.1257
37.5767
35.749
33.0027
29.3643
23.2838
17.9407
16.4368
22.7798
36.9832
54.9244
73.0255
92.4768
106.471
114.49
146.643
218.938
751.453
170.042
129.573
111.529
99.6962
61.6938
34.9795
32.0982
32.9834
31.6598
27.6054
23.6835
20.8238
19.6288
22.4077
35.2459
53.6258
76.2209
96.1018
109.118
121.984
138.835
207.765
404.104
159.296
125.688
111.17
99.7393
77.0578
47.731
30.8087
29.8551
30.4768
27.0797
21.7048
18.2312
18.9124
24.4006
36.358
53.6206
77.4192
97.592
108.713
122.843
158.338
244.812
263.742
141.856
123.85
112.283