/*--------------------------------*- C++ -*----------------------------------*\
| =========                 |                                                 |
| \\      /  F ield         | OpenFOAM: The Open Source CFD Toolbox           |
|  \\    /   O peration     | Version:  2312                                  |
|   \\  /    A nd           | Website:  www.openfoam.com                      |
|    \\/     M anipulation  |                                                 |
\*---------------------------------------------------------------------------*/
FoamFile
{
    version     2.0;
    format      ascii;
    arch        "LSB;label=64;scalar=64";
    class       volScalarField;
    location    "100";
    object      p;
}
// * * * * * * * * * * * * * * * * * * * * * * * * * * * * * * * * * * * * * //

dimensions      [0 2 -2 0 0 0 0];

internalField   nonuniform List<scalar> 
404911
(
-0.720531
-0.718449
-0.712806
-0.717022
-0.724479
-0.720045
-0.714343
-0.713394
-0.715023
-0.716207
-0.728473
-0.735405
-0.731355
-0.727664
-0.721532
-0.715979
-0.734604
-0.734786
-0.734208
-0.732378
-0.741818
-0.739607
-0.73871
-0.74768
-0.744279
-0.754257
-0.751643
-0.749249
-0.744886
-0.753872
-0.756361
-0.753631
-0.752777
-0.737993
-0.760671
-0.758157
-0.757764
-0.769005
-0.766102
-0.764428
-0.763925
-0.771992
-0.771394
-0.768481
-0.766561
-0.77032
-0.774465
-0.7729
-0.770292
-0.76419
-0.780725
-0.777082
-0.774097
-0.773312
-0.779665
-0.780044
-0.788404
-0.722619
-0.726604
-0.723071
-0.73069
-0.728872
-0.736436
-0.735182
-0.733716
-0.74125
-0.738254
-0.736729
-0.746867
-0.744214
-0.750906
-0.749012
-0.746747
-0.755858
-0.753333
-0.750379
-0.747719
-0.761207
-0.758364
-0.766035
-0.76352
-0.771044
-0.768628
-0.765935
-0.776096
-0.773342
-0.781168
-0.778198
-0.775456
-0.781836
-0.780174
-0.796282
-0.797123
-0.794256
-0.802637
-0.800952
-0.798832
-0.806486
-0.804809
-0.803717
-0.814091
-0.809649
-0.806496
-0.812295
-0.365635
-0.358465
-0.350566
-0.384396
-0.374347
-0.380441
-0.364958
-0.366421
-0.36105
-0.355478
-0.348389
-0.395156
-0.391559
-0.381118
-0.37477
-0.371331
-0.366962
-0.363661
-0.356793
-0.337331
-0.405723
-0.404321
-0.399189
-0.396755
-0.392586
-0.386551
-0.382315
-0.377264
-0.374533
-0.369605
-0.364002
-0.357983
-0.353339
-0.351923
-0.340137
-0.333637
-0.417042
-0.413427
-0.408132
-0.405435
-0.40264
-0.398924
-0.394691
-0.390216
-0.386085
-0.378657
-0.375654
-0.372737
-0.366467
-0.360618
-0.347937
-0.426103
-0.422353
-0.418176
-0.414707
-0.410875
-0.407181
-0.404406
-0.400734
-0.396668
-0.391514
-0.38765
-0.383058
-0.378109
-0.374767
-0.369838
-0.434758
-0.428433
-0.42458
-0.420763
-0.416413
-0.411256
-0.407696
-0.405652
-0.402525
-0.397483
-0.393279
-0.388275
-0.384547
-0.381017
-0.377488
-0.36915
-0.441982
-0.44143
-0.439494
-0.432864
-0.429431
-0.42246
-0.417931
-0.415257
-0.410663
-0.407397
-0.403826
-0.399668
-0.395187
-0.39072
-0.386715
-0.383457
-0.377911
-0.457013
-0.453651
-0.451349
-0.445603
-0.443419
-0.439768
-0.434407
-0.430063
-0.425017
-0.420937
-0.417205
-0.413323
-0.409194
-0.40519
-0.401018
-0.397312
-0.392247
-0.386964
-0.466144
-0.459253
-0.4566
-0.453774
-0.449569
-0.445618
-0.441246
-0.436499
-0.432169
-0.427766
-0.422821
-0.418197
-0.413747
-0.41119
-0.407225
-0.404512
-0.398401
-0.395052
-0.477714
-0.473338
-0.469589
-0.464199
-0.459679
-0.45569
-0.451559
-0.447841
-0.443547
-0.439044
-0.434159
-0.429789
-0.425233
-0.420656
-0.416229
-0.412238
-0.408892
-0.40451
-0.484022
-0.478499
-0.475524
-0.47212
-0.46726
-0.462353
-0.458197
-0.454043
-0.449964
-0.445737
-0.441535
-0.4367
-0.43209
-0.428261
-0.423375
-0.419822
-0.418122
-0.494521
-0.490103
-0.487488
-0.481476
-0.477675
-0.473922
-0.469617
-0.465244
-0.460975
-0.45696
-0.452394
-0.448058
-0.443945
-0.439114
-0.434438
-0.430812
-0.427412
-0.499763
-0.497102
-0.496373
-0.491639
-0.488087
-0.483864
-0.480125
-0.476077
-0.471993
-0.467629
-0.463327
-0.459378
-0.455094
-0.450809
-0.447094
-0.441283
-0.43729
-0.432941
-0.513123
-0.510699
-0.503667
-0.500066
-0.497792
-0.494135
-0.49063
-0.486168
-0.482417
-0.478601
-0.474547
-0.469904
-0.466039
-0.461745
-0.457996
-0.455053
-0.449276
-0.442535
-0.519522
-0.516855
-0.515171
-0.510261
-0.506815
-0.50158
-0.499076
-0.49581
-0.492577
-0.488724
-0.484724
-0.481186
-0.476978
-0.472914
-0.467978
-0.464092
-0.459728
-0.455415
-0.525616
-0.521087
-0.519059
-0.517132
-0.514007
-0.509622
-0.504555
-0.501045
-0.498063
-0.494418
-0.490645
-0.48744
-0.483211
-0.479357
-0.475418
-0.471089
-0.465318
-0.464294
-0.531886
-0.529958
-0.529129
-0.523554
-0.521067
-0.518797
-0.515639
-0.511715
-0.507922
-0.50434
-0.500283
-0.496591
-0.492654
-0.489598
-0.485606
-0.482231
-0.477469
-0.474848
-0.536066
-0.533476
-0.53154
-0.528892
-0.525602
-0.52294
-0.52036
-0.517215
-0.513179
-0.510409
-0.507145
-0.50342
-0.498766
-0.494491
-0.491885
-0.486818
-0.483453
-0.479439
-0.547846
-0.543071
-0.540841
-0.535929
-0.533415
-0.53132
-0.527679
-0.524727
-0.521172
-0.518646
-0.515343
-0.512264
-0.50921
-0.505942
-0.502304
-0.496701
-0.493397
-0.489425
-0.550533
-0.5488
-0.545347
-0.54165
-0.538399
-0.535721
-0.53336
-0.529578
-0.526374
-0.52259
-0.519725
-0.51762
-0.51465
-0.512043
-0.507878
-0.504114
-0.501019
-0.55684
-0.55494
-0.553176
-0.550812
-0.5483
-0.544804
-0.541347
-0.538505
-0.535721
-0.531973
-0.528261
-0.52479
-0.521435
-0.519083
-0.515677
-0.513698
-0.510391
-0.506363
-0.56143
-0.559535
-0.556738
-0.555073
-0.552446
-0.550125
-0.547243
-0.544111
-0.541347
-0.538549
-0.534345
-0.530478
-0.526852
-0.52369
-0.520779
-0.517907
-0.514649
-0.512384
-0.565187
-0.562423
-0.560659
-0.558141
-0.556279
-0.554089
-0.551359
-0.548785
-0.546116
-0.544067
-0.541576
-0.537567
-0.532903
-0.529175
-0.525496
-0.519997
-0.520578
-0.515706
-0.572637
-0.570829
-0.567748
-0.564524
-0.562046
-0.559925
-0.557733
-0.555107
-0.552663
-0.550186
-0.547861
-0.545637
-0.543169
-0.539231
-0.536191
-0.530675
-0.52893
-0.526408
-0.57874
-0.576204
-0.573963
-0.572101
-0.569111
-0.566479
-0.563814
-0.561521
-0.559015
-0.556735
-0.554229
-0.551891
-0.549468
-0.547084
-0.545011
-0.541561
-0.539375
-0.533526
-0.582741
-0.580816
-0.577998
-0.576095
-0.573877
-0.571102
-0.568191
-0.565559
-0.56296
-0.560263
-0.558097
-0.555837
-0.553341
-0.55077
-0.547939
-0.546124
-0.544031
-0.541589
-0.588755
-0.586471
-0.584267
-0.582248
-0.579973
-0.577971
-0.575572
-0.572918
-0.570049
-0.567341
-0.56456
-0.561929
-0.559599
-0.55799
-0.554871
-0.552319
-0.554328
-0.545675
-0.59271
-0.590358
-0.588298
-0.585973
-0.583925
-0.581768
-0.57952
-0.577287
-0.57478
-0.572031
-0.569286
-0.566447
-0.564031
-0.561778
-0.559444
-0.555487
-0.554129
-0.551437
-0.596393
-0.593872
-0.592013
-0.589964
-0.587752
-0.585467
-0.583389
-0.58122
-0.578957
-0.576642
-0.574081
-0.571325
-0.568495
-0.565908
-0.563601
-0.560925
-0.557954
-0.555483
-0.600262
-0.598192
-0.596167
-0.594429
-0.591648
-0.589374
-0.586967
-0.585043
-0.582762
-0.580681
-0.578459
-0.576066
-0.573529
-0.570936
-0.568314
-0.565913
-0.563292
-0.559164
-0.609678
-0.60402
-0.601939
-0.600628
-0.598327
-0.595772
-0.593406
-0.591226
-0.588731
-0.586582
-0.584469
-0.582473
-0.580313
-0.578031
-0.575559
-0.573397
-0.571006
-0.568778
-0.61069
-0.609951
-0.607355
-0.604389
-0.602818
-0.600761
-0.598043
-0.595531
-0.593222
-0.590717
-0.588504
-0.586172
-0.58417
-0.582029
-0.579877
-0.577569
-0.575808
-0.572802
-0.612829
-0.612004
-0.610906
-0.608425
-0.60624
-0.604588
-0.602634
-0.600165
-0.597531
-0.59504
-0.592651
-0.590112
-0.587819
-0.585723
-0.583485
-0.581027
-0.577789
-0.575576
-0.618534
-0.615034
-0.613223
-0.612248
-0.610417
-0.608051
-0.60589
-0.604327
-0.601877
-0.599407
-0.5968
-0.594304
-0.591976
-0.58964
-0.587529
-0.585403
-0.58244
-0.621923
-0.622248
-0.619502
-0.616837
-0.61505
-0.61367
-0.612133
-0.610007
-0.607279
-0.605379
-0.603452
-0.601214
-0.598662
-0.596319
-0.593982
-0.591824
-0.5893
-0.587487
-0.625798
-0.624126
-0.622383
-0.620723
-0.618464
-0.616678
-0.615315
-0.613726
-0.611725
-0.609212
-0.606552
-0.605155
-0.602909
-0.600676
-0.598407
-0.596201
-0.594245
-0.590175
-0.630966
-0.628214
-0.625804
-0.6235
-0.621798
-0.619886
-0.618067
-0.616546
-0.614883
-0.613326
-0.611194
-0.608489
-0.60675
-0.604524
-0.602283
-0.59965
-0.596876
-0.594835
-0.634075
-0.634017
-0.632151
-0.630141
-0.627661
-0.625326
-0.623423
-0.621553
-0.619409
-0.617692
-0.616138
-0.614852
-0.612953
-0.610253
-0.608208
-0.60611
-0.603839
-0.601282
-0.639315
-0.637356
-0.635056
-0.633515
-0.631349
-0.629354
-0.627191
-0.625167
-0.623147
-0.621048
-0.619222
-0.617396
-0.616146
-0.614584
-0.612281
-0.609854
-0.608253
-0.605799
-0.641763
-0.640998
-0.639115
-0.637009
-0.635112
-0.632933
-0.630914
-0.628875
-0.626866
-0.624964
-0.623351
-0.620997
-0.619214
-0.617651
-0.615711
-0.613917
-0.611458
-0.60931
-0.649363
-0.644158
-0.642418
-0.640635
-0.638628
-0.636631
-0.634417
-0.632361
-0.630411
-0.628373
-0.62653
-0.624992
-0.622684
-0.620677
-0.619056
-0.617121
-0.614939
-0.613544
-0.64985
-0.647621
-0.646252
-0.644233
-0.642445
-0.640446
-0.638341
-0.635899
-0.633735
-0.631807
-0.629824
-0.627985
-0.626308
-0.624136
-0.622569
-0.620529
-0.619804
-0.653844
-0.654229
-0.652017
-0.650228
-0.647868
-0.64587
-0.644073
-0.642174
-0.640125
-0.637675
-0.635272
-0.633275
-0.631141
-0.629418
-0.628069
-0.625956
-0.624011
-0.621979
-0.659471
-0.657321
-0.655154
-0.653701
-0.651712
-0.649471
-0.647351
-0.645404
-0.643769
-0.641708
-0.63957
-0.63719
-0.634851
-0.632617
-0.630928
-0.629484
-0.627396
-0.625163
-0.662047
-0.660741
-0.659105
-0.657054
-0.655401
-0.653247
-0.651104
-0.649063
-0.646906
-0.645261
-0.643409
-0.64147
-0.639282
-0.636862
-0.634756
-0.632885
-0.631242
-0.629424
-0.666736
-0.664101
-0.662118
-0.660997
-0.658954
-0.657202
-0.655025
-0.65297
-0.650959
-0.649131
-0.647112
-0.645072
-0.643262
-0.64122
-0.638872
-0.636489
-0.634648
-0.632893
-0.668338
-0.668086
-0.666106
-0.664206
-0.66264
-0.66097
-0.659147
-0.657051
-0.654913
-0.652767
-0.650775
-0.648487
-0.646545
-0.644825
-0.642968
-0.640645
-0.638439
-0.63612
-0.672634
-0.670362
-0.668741
-0.66758
-0.665898
-0.664354
-0.662722
-0.660972
-0.658968
-0.65675
-0.654379
-0.652199
-0.650004
-0.648065
-0.646319
-0.64476
-0.642446
-0.640361
-0.675363
-0.673785
-0.67186
-0.670244
-0.668987
-0.667417
-0.665845
-0.664136
-0.662319
-0.66047
-0.658412
-0.656211
-0.653995
-0.6519
-0.649793
-0.647824
-0.646525
-0.645959
-0.678974
-0.67698
-0.675103
-0.673433
-0.671995
-0.670263
-0.668725
-0.667171
-0.665372
-0.663579
-0.661818
-0.659841
-0.657975
-0.655857
-0.653829
-0.651843
-0.64982
-0.64666
-0.684303
-0.682877
-0.68142
-0.678467
-0.676564
-0.67501
-0.672768
-0.67133
-0.669978
-0.668408
-0.667038
-0.665196
-0.663372
-0.661336
-0.659467
-0.657497
-0.655629
-0.653691
-0.651428
-0.686824
-0.684526
-0.683141
-0.682156
-0.680038
-0.678028
-0.676132
-0.674409
-0.672644
-0.671394
-0.669758
-0.668309
-0.666575
-0.664594
-0.662644
-0.660719
-0.658507
-0.656752
-0.689232
-0.6867
-0.684976
-0.683388
-0.681475
-0.679603
-0.677873
-0.676109
-0.674205
-0.672572
-0.671331
-0.669695
-0.668134
-0.666328
-0.664563
-0.66306
-0.659925
-0.695753
-0.692971
-0.690702
-0.688945
-0.68701
-0.685188
-0.683196
-0.681257
-0.679708
-0.678064
-0.675695
-0.674137
-0.672592
-0.671002
-0.669321
-0.66751
-0.665604
-0.664608
-0.698289
-0.697561
-0.694516
-0.692677
-0.690809
-0.688927
-0.687019
-0.684923
-0.682857
-0.681253
-0.679567
-0.677147
-0.675452
-0.673927
-0.672118
-0.670631
-0.668859
-0.667569
-0.705515
-0.700238
-0.698701
-0.696594
-0.694549
-0.692486
-0.690475
-0.688684
-0.686702
-0.684822
-0.682753
-0.680954
-0.678622
-0.677017
-0.675378
-0.673596
-0.672086
-0.669363
-0.704194
-0.702402
-0.700567
-0.69843
-0.696318
-0.694203
-0.692202
-0.690528
-0.688358
-0.686519
-0.684393
-0.682571
-0.680524
-0.678785
-0.677154
-0.675775
-0.6736
-0.709812
-0.705765
-0.704384
-0.702276
-0.700135
-0.698042
-0.695911
-0.693929
-0.69221
-0.689938
-0.687991
-0.686062
-0.684053
-0.682076
-0.680044
-0.677988
-0.676953
-0.713745
-0.710989
-0.709619
-0.707466
-0.705757
-0.70385
-0.701754
-0.69979
-0.697666
-0.695618
-0.693528
-0.691476
-0.689389
-0.687615
-0.685574
-0.68388
-0.68234
-0.679097
-0.718416
-0.716787
-0.713297
-0.711603
-0.709533
-0.707513
-0.70546
-0.703452
-0.701388
-0.699296
-0.697564
-0.695719
-0.693425
-0.691268
-0.689263
-0.68751
-0.684352
-0.722984
-0.71958
-0.718243
-0.71575
-0.713901
-0.711493
-0.709332
-0.707121
-0.705428
-0.703635
-0.701311
-0.699473
-0.697335
-0.695137
-0.693074
-0.691266
-0.688878
-0.727353
-0.725598
-0.723847
-0.72175
-0.719542
-0.717978
-0.71577
-0.713572
-0.710812
-0.708782
-0.706855
-0.704968
-0.703185
-0.701354
-0.699275
-0.69726
-0.695299
-0.693764
-0.729337
-0.728839
-0.727288
-0.725255
-0.723452
-0.721696
-0.719149
-0.716891
-0.715094
-0.712293
-0.710723
-0.708483
-0.706028
-0.704715
-0.702744
-0.700943
-0.698661
-0.697098
-0.735827
-0.732249
-0.73086
-0.728946
-0.727253
-0.725462
-0.724015
-0.720594
-0.717623
-0.716453
-0.71444
-0.712133
-0.709815
-0.707673
-0.706156
-0.704098
-0.702198
-0.700432
-0.740213
-0.737385
-0.734496
-0.732468
-0.730656
-0.729137
-0.727009
-0.725472
-0.723555
-0.720956
-0.717881
-0.715611
-0.713498
-0.711339
-0.709348
-0.707857
-0.705858
-0.702918
-0.743854
-0.744012
-0.742506
-0.73927
-0.736592
-0.734409
-0.732643
-0.730693
-0.728714
-0.726565
-0.724593
-0.722076
-0.719418
-0.717285
-0.715371
-0.713136
-0.71113
-0.70941
-0.706773
-0.74831
-0.74465
-0.745247
-0.74383
-0.741502
-0.738898
-0.736424
-0.734376
-0.732606
-0.730752
-0.728602
-0.726158
-0.723976
-0.721668
-0.719496
-0.717374
-0.714076
-0.713362
-0.711643
-0.755001
-0.748515
-0.747889
-0.745785
-0.743516
-0.740797
-0.738309
-0.73621
-0.734366
-0.732423
-0.730238
-0.72812
-0.725813
-0.723525
-0.721427
-0.719373
-0.716672
-0.713837
-0.758155
-0.75545
-0.751879
-0.749947
-0.747955
-0.745821
-0.743056
-0.740515
-0.73844
-0.736234
-0.734189
-0.731858
-0.729803
-0.727718
-0.725685
-0.72363
-0.721618
-0.763797
-0.760732
-0.757503
-0.754946
-0.752391
-0.750504
-0.748142
-0.7457
-0.743217
-0.74055
-0.738081
-0.735727
-0.733858
-0.731684
-0.729394
-0.727126
-0.726013
-0.769251
-0.766311
-0.763232
-0.760431
-0.757645
-0.755293
-0.75284
-0.750263
-0.747766
-0.745014
-0.742531
-0.740169
-0.737711
-0.735615
-0.733128
-0.731513
-0.729872
-0.778059
-0.773755
-0.772129
-0.768402
-0.765856
-0.763065
-0.760525
-0.757948
-0.755141
-0.752333
-0.749584
-0.747014
-0.744524
-0.741945
-0.739683
-0.737344
-0.735368
-0.731142
-0.781173
-0.77854
-0.776792
-0.773705
-0.771001
-0.768515
-0.765679
-0.763342
-0.760555
-0.757535
-0.754707
-0.752025
-0.749223
-0.74694
-0.74464
-0.742773
-0.739834
-0.786695
-0.784322
-0.782008
-0.779082
-0.776604
-0.773878
-0.771207
-0.768241
-0.765535
-0.762653
-0.75973
-0.75696
-0.754335
-0.751885
-0.749001
-0.746957
-0.745167
-0.793483
-0.789121
-0.786961
-0.784542
-0.781883
-0.779239
-0.776602
-0.773955
-0.77089
-0.767821
-0.765044
-0.762102
-0.759274
-0.756631
-0.753955
-0.751274
-0.748147
-0.797582
-0.79526
-0.792228
-0.790183
-0.787356
-0.784464
-0.781622
-0.779217
-0.776412
-0.773508
-0.770628
-0.767388
-0.764637
-0.761901
-0.75893
-0.755643
-0.753349
-0.804447
-0.799932
-0.797607
-0.795218
-0.792508
-0.78981
-0.786617
-0.783927
-0.78142
-0.778999
-0.776376
-0.773263
-0.769966
-0.767028
-0.764488
-0.762232
-0.758069
-0.806448
-0.805052
-0.802564
-0.800354
-0.797873
-0.794796
-0.79089
-0.788135
-0.785901
-0.783917
-0.781481
-0.778717
-0.775457
-0.772125
-0.768881
-0.766455
-0.764696
-0.811866
-0.806865
-0.804355
-0.80155
-0.799174
-0.796626
-0.794247
-0.790832
-0.788252
-0.786059
-0.783522
-0.780758
-0.777524
-0.774506
-0.769722
-0.769012
-0.818266
-0.812806
-0.809446
-0.805657
-0.803073
-0.800809
-0.798456
-0.795868
-0.792997
-0.790311
-0.788035
-0.785556
-0.782736
-0.780554
-0.777186
-0.830319
-0.824903
-0.822156
-0.816252
-0.812103
-0.808218
-0.805427
-0.802888
-0.800591
-0.797702
-0.794932
-0.79265
-0.790288
-0.787811
-0.785183
-0.781834
-0.840053
-0.833595
-0.82993
-0.824923
-0.821038
-0.816068
-0.811296
-0.808318
-0.805226
-0.802757
-0.800348
-0.797576
-0.795763
-0.792074
-0.789297
-0.788399
-0.844189
-0.841694
-0.836997
-0.833287
-0.829146
-0.824433
-0.820049
-0.81596
-0.811838
-0.809693
-0.806129
-0.80315
-0.80009
-0.797193
-0.793481
-0.791419
-0.849594
-0.849612
-0.84918
-0.845844
-0.841501
-0.837149
-0.832386
-0.828289
-0.823706
-0.819572
-0.81603
-0.812548
-0.810343
-0.806526
-0.802935
-0.799897
-0.863471
-0.857234
-0.852303
-0.85017
-0.848534
-0.845208
-0.839357
-0.835837
-0.832884
-0.828623
-0.824596
-0.819801
-0.815423
-0.812682
-0.809299
-0.805619
-0.868329
-0.864611
-0.861332
-0.857332
-0.853446
-0.851375
-0.847737
-0.843046
-0.838989
-0.836407
-0.83382
-0.829381
-0.824319
-0.819517
-0.815878
-0.812135
-0.873564
-0.870149
-0.867909
-0.86294
-0.860012
-0.856732
-0.853249
-0.850025
-0.846858
-0.843285
-0.840171
-0.837415
-0.835228
-0.829225
-0.823442
-0.820564
-0.879154
-0.879787
-0.874461
-0.869465
-0.865407
-0.862658
-0.860359
-0.855613
-0.851606
-0.849101
-0.845856
-0.844574
-0.839753
-0.836489
-0.835259
-0.82799
-0.891583
-0.886535
-0.881865
-0.876848
-0.872916
-0.869266
-0.866146
-0.863052
-0.859409
-0.854932
-0.850903
-0.848586
-0.845829
-0.844318
-0.840347
-0.898441
-0.894423
-0.891359
-0.885102
-0.8808
-0.876357
-0.873067
-0.869439
-0.866185
-0.862473
-0.857887
-0.8543
-0.851044
-0.848505
-0.843855
-0.844706
-0.906793
-0.901741
-0.897071
-0.892466
-0.889261
-0.883708
-0.879888
-0.876565
-0.872896
-0.869287
-0.865568
-0.861137
-0.85759
-0.852916
-0.850313
-0.84445
-0.90945
-0.908442
-0.904905
-0.900812
-0.896812
-0.891838
-0.887149
-0.883041
-0.879514
-0.875785
-0.872206
-0.868812
-0.865575
-0.86101
-0.85624
-0.914799
-0.913637
-0.907756
-0.903714
-0.899589
-0.895136
-0.890323
-0.886678
-0.882896
-0.878727
-0.875663
-0.871449
-0.869397
-0.863715
-0.920623
-0.921533
-0.915916
-0.911269
-0.906925
-0.902738
-0.898718
-0.894189
-0.890349
-0.886113
-0.882548
-0.878654
-0.873706
-0.935391
-0.931812
-0.928044
-0.924863
-0.919144
-0.915411
-0.911362
-0.906076
-0.902201
-0.897933
-0.893832
-0.890246
-0.885606
-0.882498
-0.944237
-0.939762
-0.934393
-0.931071
-0.926381
-0.92327
-0.918284
-0.914129
-0.910005
-0.905181
-0.901482
-0.897569
-0.893555
-0.888478
-0.951973
-0.947959
-0.943138
-0.939469
-0.934568
-0.930717
-0.925939
-0.921917
-0.917317
-0.912286
-0.908687
-0.903961
-0.900244
-0.894416
-0.964182
-0.95637
-0.952454
-0.946814
-0.941511
-0.938719
-0.933976
-0.929818
-0.924877
-0.920683
-0.916507
-0.912969
-0.908482
-0.903041
-0.970955
-0.967919
-0.962143
-0.955907
-0.947194
-0.942453
-0.941007
-0.937873
-0.932858
-0.929391
-0.923682
-0.918764
-0.914598
-0.912643
-0.979368
-0.974991
-0.97056
-0.966826
-0.959626
-0.956557
-0.950045
-0.94565
-0.941049
-0.937352
-0.931673
-0.927433
-0.921246
-0.971958
-0.965958
-0.959155
-0.955485
-0.950653
-0.946567
-0.940837
-0.936558
-0.931157
-0.974792
-0.971062
-0.965077
-0.959669
-0.952934
-0.949033
-0.943847
-0.941242
-0.982614
-0.976736
-0.974568
-0.966732
-0.965242
-0.960986
-0.951885
-0.988809
-0.985955
-0.987523
-0.974438
-0.972701
-0.970391
-0.968816
-0.985703
-0.987186
-0.983564
-0.977695
-0.972732
-1.00513
-0.99646
-1.00152
-0.985214
-0.985111
-0.98213
-1.04412
-1.02972
-1.01616
-1.01056
-0.998007
-1.04865
-1.04166
-1.0346
-1.02917
-1.01981
-1.01828
-1.05793
-1.03448
-1.03588
-1.0247
-1.01725
-1.05726
-1.05222
-1.04328
-0.101532
-0.0901798
-0.0748231
-0.134541
-0.135014
-0.126601
-0.116851
-0.111725
-0.105145
-0.0976652
-0.0786686
-0.0535522
-0.166588
-0.159219
-0.160016
-0.147911
-0.142022
-0.135997
-0.126398
-0.118875
-0.112793
-0.105742
-0.101552
-0.0889196
-0.0761909
-0.0678913
-0.0577318
-0.191279
-0.187024
-0.175253
-0.17114
-0.160147
-0.159311
-0.152534
-0.142887
-0.136388
-0.129668
-0.122725
-0.11607
-0.107355
-0.101354
-0.0938287
-0.0805106
-0.0718161
-0.0685235
-0.0452644
-0.0355452
-0.0328987
-0.0139119
-0.220523
-0.205285
-0.198485
-0.190651
-0.187649
-0.180017
-0.171974
-0.166196
-0.159768
-0.153837
-0.1462
-0.138747
-0.133162
-0.126903
-0.120859
-0.104448
-0.103534
-0.0932096
-0.0831037
-0.0758371
-0.0669192
-0.0584898
-0.0453552
-0.235264
-0.234805
-0.225626
-0.219874
-0.205914
-0.200919
-0.19483
-0.189954
-0.181538
-0.173616
-0.167872
-0.161811
-0.155947
-0.148532
-0.145165
-0.135817
-0.131542
-0.114932
-0.113042
-0.101392
-0.096144
-0.0854822
-0.0786333
-0.0692048
-0.0597133
-0.252351
-0.248923
-0.240124
-0.234697
-0.229864
-0.227685
-0.211178
-0.204191
-0.198879
-0.191879
-0.185598
-0.177777
-0.169211
-0.164372
-0.15851
-0.150871
-0.145675
-0.137767
-0.133017
-0.125053
-0.118821
-0.1021
-0.0967406
-0.0881333
-0.0790706
-0.267162
-0.262907
-0.256602
-0.250472
-0.245583
-0.238336
-0.232747
-0.225357
-0.215399
-0.207398
-0.202438
-0.195255
-0.187288
-0.183926
-0.173065
-0.167376
-0.163051
-0.152465
-0.147958
-0.140265
-0.134351
-0.124794
-0.118058
-0.106468
-0.0977076
-0.282586
-0.273125
-0.271159
-0.265328
-0.259667
-0.253986
-0.248544
-0.241714
-0.235655
-0.229255
-0.219163
-0.209919
-0.203624
-0.197947
-0.190098
-0.183438
-0.184567
-0.173039
-0.166892
-0.158211
-0.149461
-0.143926
-0.13594
-0.129363
-0.118607
-0.301546
-0.304568
-0.29392
-0.283559
-0.277171
-0.272823
-0.266934
-0.261906
-0.256393
-0.250805
-0.243961
-0.237645
-0.232272
-0.224705
-0.215339
-0.208591
-0.201608
-0.192717
-0.187235
-0.180957
-0.173913
-0.166087
-0.163015
-0.152196
-0.146008
-0.144081
-0.319685
-0.315774
-0.308145
-0.305417
-0.301708
-0.293995
-0.287111
-0.279952
-0.274656
-0.26954
-0.264334
-0.259116
-0.25264
-0.245812
-0.239876
-0.234278
-0.227315
-0.220829
-0.21387
-0.207635
-0.197311
-0.188229
-0.180698
-0.175066
-0.166457
-0.164453
-0.155446
-0.326436
-0.321504
-0.317026
-0.311503
-0.306473
-0.301729
-0.295888
-0.29033
-0.283426
-0.277311
-0.272045
-0.266115
-0.261099
-0.255317
-0.248326
-0.241961
-0.235876
-0.229966
-0.224426
-0.216607
-0.209677
-0.208717
-0.186099
-0.186109
-0.176822
-0.344288
-0.339249
-0.332479
-0.327762
-0.323366
-0.318786
-0.31354
-0.308601
-0.303407
-0.297791
-0.292147
-0.286138
-0.280607
-0.274353
-0.267978
-0.262124
-0.256527
-0.250787
-0.243904
-0.237762
-0.232615
-0.226649
-0.219185
-0.214838
-0.204268
-0.35367
-0.346301
-0.342024
-0.336585
-0.331279
-0.326305
-0.320218
-0.31557
-0.310381
-0.305684
-0.300207
-0.294387
-0.288058
-0.283046
-0.276882
-0.269506
-0.264195
-0.258058
-0.253271
-0.245835
-0.239651
-0.234648
-0.22949
-0.222666
-0.373547
-0.365503
-0.363349
-0.357555
-0.350578
-0.344101
-0.338937
-0.333697
-0.327979
-0.322284
-0.317305
-0.31237
-0.307473
-0.30158
-0.296847
-0.290638
-0.28529
-0.279706
-0.272379
-0.266392
-0.260252
-0.253953
-0.248491
-0.243201
-0.237784
-0.380628
-0.378719
-0.374337
-0.369184
-0.365503
-0.359828
-0.353663
-0.347369
-0.341908
-0.335305
-0.330038
-0.324386
-0.319553
-0.314386
-0.309755
-0.304842
-0.29899
-0.293215
-0.287929
-0.282503
-0.275436
-0.269026
-0.261756
-0.255737
-0.251684
-0.393799
-0.388729
-0.384287
-0.380169
-0.374992
-0.371209
-0.367072
-0.362937
-0.357815
-0.351858
-0.345428
-0.33867
-0.33319
-0.327013
-0.322003
-0.317177
-0.3125
-0.307559
-0.301131
-0.295958
-0.290984
-0.284802
-0.278234
-0.270951
-0.26912
-0.407823
-0.40483
-0.399035
-0.395569
-0.391847
-0.38701
-0.3824
-0.37661
-0.373156
-0.369492
-0.365414
-0.361244
-0.355765
-0.348759
-0.341624
-0.336449
-0.330825
-0.325053
-0.320444
-0.31538
-0.30909
-0.3041
-0.298581
-0.29289
-0.28713
-0.280722
-0.418994
-0.409767
-0.408212
-0.404743
-0.401323
-0.398158
-0.394591
-0.390705
-0.384815
-0.378584
-0.375033
-0.371254
-0.36731
-0.363039
-0.358116
-0.351584
-0.346044
-0.340328
-0.333156
-0.327933
-0.324319
-0.318985
-0.312776
-0.305977
-0.302439
-0.296911
-0.421238
-0.424097
-0.421583
-0.415126
-0.410264
-0.407037
-0.403884
-0.40065
-0.397104
-0.39295
-0.387969
-0.381475
-0.377223
-0.373158
-0.369409
-0.36451
-0.3587
-0.353393
-0.34915
-0.343926
-0.336464
-0.331149
-0.326296
-0.321686
-0.31447
-0.310867
-0.301979
-0.437954
-0.430484
-0.427908
-0.425106
-0.4211
-0.417022
-0.412554
-0.408968
-0.405781
-0.402514
-0.398823
-0.394689
-0.390094
-0.384814
-0.380022
-0.375698
-0.371946
-0.366773
-0.359742
-0.354635
-0.350441
-0.34536
-0.339639
-0.33407
-0.329258
-0.324259
-0.315829
-0.443667
-0.439277
-0.435584
-0.431764
-0.42735
-0.422725
-0.418353
-0.414462
-0.410754
-0.407432
-0.403983
-0.400286
-0.396175
-0.391719
-0.387008
-0.38269
-0.378587
-0.374977
-0.369446
-0.362414
-0.356059
-0.352815
-0.346469
-0.342379
-0.338282
-0.331254
-0.452602
-0.452191
-0.446775
-0.441802
-0.43775
-0.434
-0.42968
-0.424565
-0.42039
-0.416098
-0.412497
-0.409027
-0.405557
-0.40189
-0.397724
-0.393286
-0.388836
-0.384814
-0.381031
-0.377467
-0.372061
-0.366396
-0.359273
-0.354042
-0.350162
-0.344035
-0.462817
-0.460027
-0.455008
-0.453199
-0.448983
-0.444182
-0.440332
-0.436104
-0.432046
-0.427262
-0.422626
-0.418031
-0.414184
-0.410827
-0.407417
-0.403629
-0.399422
-0.395139
-0.390774
-0.386764
-0.383258
-0.379395
-0.374827
-0.369569
-0.362698
-0.355972
-0.474345
-0.467115
-0.462772
-0.458734
-0.454922
-0.451147
-0.446456
-0.442756
-0.438408
-0.433895
-0.429266
-0.424734
-0.420119
-0.415799
-0.412206
-0.40918
-0.40562
-0.401526
-0.397287
-0.392881
-0.388625
-0.384988
-0.380813
-0.377044
-0.371525
-0.483437
-0.477542
-0.474154
-0.470221
-0.46592
-0.461507
-0.456856
-0.453379
-0.449017
-0.444803
-0.440422
-0.435865
-0.431309
-0.426954
-0.422545
-0.417764
-0.414005
-0.410913
-0.407605
-0.403638
-0.399504
-0.395173
-0.390997
-0.387299
-0.383043
-0.377563
-0.491512
-0.487267
-0.48356
-0.480672
-0.476426
-0.472761
-0.468979
-0.464214
-0.459581
-0.455493
-0.451417
-0.44714
-0.44273
-0.438141
-0.433694
-0.429347
-0.425035
-0.420318
-0.416354
-0.413074
-0.409405
-0.405455
-0.401665
-0.397586
-0.393472
-0.386213
-0.496998
-0.497521
-0.494682
-0.490581
-0.486297
-0.482706
-0.479048
-0.475149
-0.471521
-0.46686
-0.462196
-0.458051
-0.453913
-0.449651
-0.445231
-0.440714
-0.436273
-0.431899
-0.427565
-0.422799
-0.418767
-0.414984
-0.411342
-0.407481
-0.403598
-0.399135
-0.395521
-0.508466
-0.502744
-0.498761
-0.496194
-0.492712
-0.488934
-0.485138
-0.481446
-0.477523
-0.473594
-0.469249
-0.464805
-0.460734
-0.456478
-0.452172
-0.447792
-0.443398
-0.438717
-0.43406
-0.430221
-0.425847
-0.421574
-0.417066
-0.412515
-0.408395
-0.404519
-0.514398
-0.512099
-0.509163
-0.505405
-0.5009
-0.498011
-0.495197
-0.491579
-0.487714
-0.483907
-0.479903
-0.475862
-0.471646
-0.46757
-0.463372
-0.459005
-0.454669
-0.450602
-0.446087
-0.441595
-0.436975
-0.433086
-0.428723
-0.424776
-0.422083
-0.414858
-0.521819
-0.517579
-0.514949
-0.511838
-0.508335
-0.50301
-0.500063
-0.497709
-0.49414
-0.490319
-0.486479
-0.482416
-0.478459
-0.474341
-0.470049
-0.465726
-0.461309
-0.456842
-0.453192
-0.448725
-0.444834
-0.440588
-0.436539
-0.432253
-0.428117
-0.528666
-0.525598
-0.52273
-0.520144
-0.517637
-0.514864
-0.511289
-0.505811
-0.501854
-0.499475
-0.496577
-0.492582
-0.488837
-0.485041
-0.481278
-0.477122
-0.471843
-0.467758
-0.463771
-0.459298
-0.455407
-0.451298
-0.446714
-0.443064
-0.441422
-0.533038
-0.530552
-0.527569
-0.524962
-0.522176
-0.519494
-0.517012
-0.513862
-0.508718
-0.504257
-0.501046
-0.498357
-0.494777
-0.490805
-0.487238
-0.483756
-0.479946
-0.474264
-0.46992
-0.465874
-0.462145
-0.458279
-0.455148
-0.449258
-0.442795
-0.54227
-0.537985
-0.534706
-0.532452
-0.52959
-0.52685
-0.524002
-0.521095
-0.518466
-0.515399
-0.511241
-0.507252
-0.503682
-0.500193
-0.496348
-0.492474
-0.489003
-0.485971
-0.482264
-0.4777
-0.472921
-0.468788
-0.465129
-0.460614
-0.458044
-0.547624
-0.543692
-0.540312
-0.536343
-0.534033
-0.531516
-0.528671
-0.525534
-0.522481
-0.519652
-0.516726
-0.513341
-0.510086
-0.506732
-0.50264
-0.498213
-0.494153
-0.490757
-0.487367
-0.483883
-0.479909
-0.475605
-0.471061
-0.466936
-0.463228
-0.554818
-0.551297
-0.549043
-0.545993
-0.542797
-0.538361
-0.535847
-0.533537
-0.53063
-0.527341
-0.523909
-0.520948
-0.518191
-0.51514
-0.512345
-0.509464
-0.505483
-0.501123
-0.496941
-0.492949
-0.489444
-0.485791
-0.481665
-0.477603
-0.474134
-0.557587
-0.555452
-0.553393
-0.551069
-0.548404
-0.545645
-0.54148
-0.538334
-0.536097
-0.533128
-0.529451
-0.52573
-0.522514
-0.519781
-0.517121
-0.514543
-0.511823
-0.508305
-0.50403
-0.499771
-0.495624
-0.491552
-0.487296
-0.485763
-0.563238
-0.562914
-0.5602
-0.557472
-0.555199
-0.553034
-0.550796
-0.548174
-0.545008
-0.541822
-0.539158
-0.535916
-0.532128
-0.528119
-0.524249
-0.521402
-0.51896
-0.516379
-0.513652
-0.510112
-0.506381
-0.502497
-0.498525
-0.49461
-0.490392
-0.569243
-0.56669
-0.563825
-0.56149
-0.55913
-0.556855
-0.554422
-0.552496
-0.550089
-0.547354
-0.544751
-0.542131
-0.538596
-0.534535
-0.530598
-0.526668
-0.523379
-0.520952
-0.518356
-0.515287
-0.511879
-0.508286
-0.504557
-0.500805
-0.574448
-0.573275
-0.570653
-0.56815
-0.565702
-0.563103
-0.560533
-0.558239
-0.555847
-0.553819
-0.551325
-0.548878
-0.546642
-0.544468
-0.541464
-0.5371
-0.532686
-0.528937
-0.52583
-0.52287
-0.520053
-0.516808
-0.513853
-0.510998
-0.507712
-0.57896
-0.576757
-0.574553
-0.572406
-0.569948
-0.567301
-0.564724
-0.562153
-0.559796
-0.55728
-0.555162
-0.552747
-0.55027
-0.547991
-0.545985
-0.54367
-0.539817
-0.534988
-0.531376
-0.528346
-0.525387
-0.52199
-0.519158
-0.515888
-0.584794
-0.583147
-0.580928
-0.578682
-0.576336
-0.574247
-0.571836
-0.569055
-0.566235
-0.563692
-0.561399
-0.558882
-0.556577
-0.554295
-0.551812
-0.549402
-0.547445
-0.545311
-0.542428
-0.537762
-0.534104
-0.530961
-0.528478
-0.52342
-0.518799
-0.588859
-0.586873
-0.584778
-0.582579
-0.580327
-0.578098
-0.576034
-0.573739
-0.570972
-0.568008
-0.565241
-0.562854
-0.560489
-0.558156
-0.555744
-0.55302
-0.550545
-0.548631
-0.546702
-0.543731
-0.540126
-0.536624
-0.533146
-0.530323
-0.593608
-0.590542
-0.588718
-0.586415
-0.584225
-0.582083
-0.579961
-0.577836
-0.57558
-0.572894
-0.569944
-0.567021
-0.564327
-0.562029
-0.559827
-0.557573
-0.55454
-0.551905
-0.549966
-0.54782
-0.544927
-0.541553
-0.538324
-0.534649
-0.598611
-0.596998
-0.594912
-0.59253
-0.590323
-0.588089
-0.585978
-0.583858
-0.581747
-0.579567
-0.577351
-0.574822
-0.571993
-0.569074
-0.56628
-0.563854
-0.561574
-0.559465
-0.556627
-0.553559
-0.551466
-0.54964