/*--------------------------------*- C++ -*----------------------------------*\
  =========                 |
  \\      /  F ield         | OpenFOAM: The Open Source CFD Toolbox
   \\    /   O peration     | Website:  https://openfoam.org
    \\  /    A nd           | Version:  8
     \\/     M anipulation  |
\*---------------------------------------------------------------------------*/
FoamFile
{
    version     2.0;
    format      ascii;
    class       volScalarField;
    location    "125";
    object      epsilon;
}
// * * * * * * * * * * * * * * * * * * * * * * * * * * * * * * * * * * * * * //

dimensions      [0 2 -3 0 0 0 0];

internalField   nonuniform List<scalar> 
12225
(
285.516
270.706
257.907
243.824
232.437
223.121
216.759
212.717
212.745
213.973
217.241
220.913
228.143
232.85
241.426
246.968
254.379
265.025
52.4854
91.9054
106.947
114.789
124.805
136.852
152.645
169.996
191.134
211.048
235.385
255.644
281.485
299.617
325.753
339.987
367.026
376.074
20.318
34.8696
44.6591
50.4912
55.3723
59.642
64.6309
69.6916
76.2885
83.2591
91.4323
99.453
108.207
117.221
125.658
135.958
142.969
155.544
15.3453
19.7028
24.1041
27.5791
30.4857
32.885
35.141
37.314
39.4867
41.9474
44.3253
47.2507
49.6836
53.123
55.4647
59.3875
61.6561
66.1014
14.6498
15.863
17.3639
19.079
20.633
22.0324
23.2401
24.4394
25.4383
26.6054
27.52
28.7738
29.6362
31.0102
31.8381
33.3117
34.1559
35.7803
14.7065
14.8767
15.2005
15.8688
16.5642
17.2894
17.9212
18.5874
19.1173
19.7379
20.1929
20.8044
21.2117
21.8316
22.2094
22.8439
23.2082
23.9047
14.7421
14.6201
14.6247
14.737
14.929
15.22
15.4904
15.81
16.0704
16.384
16.6184
16.9223
17.1328
17.4309
17.621
17.9204
18.0935
18.4249
14.7626
14.5867
14.4636
14.3813
14.3667
14.39
14.4379
14.5341
14.6184
14.7371
14.831
14.9572
15.0486
15.1779
15.2633
15.3955
15.4752
15.6278
14.7666
14.5908
14.4345
14.2964
14.1849
14.1044
14.0396
14.0067
13.9814
13.9786
13.981
13.9918
14.0044
14.0301
14.0481
14.0809
14.1056
14.1497
14.7663
14.594
14.432
14.2821
14.1429
14.0219
13.9115
13.8193
13.7369
13.6698
13.6102
13.5633
13.5181
13.4873
13.4519
13.4347
13.4031
13.4026
14.7658
14.5945
14.4321
14.2803
14.1361
14.0032
13.8781
13.7644
13.6581
13.5628
13.4734
13.3951
13.3197
13.256
13.1915
13.1409
13.0841
13.0458
14.7657
14.5943
14.4321
14.2798
14.1353
13.9998
13.8715
13.7518
13.6384
13.5336
13.434
13.3429
13.2556
13.177
13.1002
13.0328
12.9648
12.9077
14.7657
14.5941
14.432
14.2794
14.1349
13.9989
13.8698
13.7484
13.6331
13.5249
13.4219
13.3256
13.2337
13.1483
13.0662
12.9906
12.9173
12.8505
14.7657
14.5939
14.4318
14.279
14.1346
13.9983
13.8691
13.7472
13.6315
13.5222
13.4184
13.3203
13.227
13.1389
13.055
12.9759
12.9004
12.8294
14.7657
14.5938
14.4317
14.2787
14.1342
13.9977
13.8686
13.7464
13.6307
13.5211
13.4171
13.3185
13.2249
13.1361
13.0517
12.9716
12.8954
12.8231
14.7657
14.5938
14.4316
14.2785
14.1339
13.9973
13.8681
13.7458
13.63
13.5202
13.4162
13.3174
13.2237
13.1347
13.0502
12.9699
12.8935
12.8208
14.7657
14.5937
14.4315
14.2783
14.1337
13.997
13.8677
13.7453
13.6294
13.5196
13.4154
13.3166
13.2228
13.1338
13.0491
12.9687
12.8921
12.8194
14.7657
14.5937
14.4314
14.2782
14.1335
13.9968
13.8674
13.745
13.629
13.5191
13.4149
13.316
13.2221
13.133
13.0483
12.9678
12.8911
12.8183
14.7657
14.5937
14.4314
14.2782
14.1335
13.9967
13.8673
13.7449
13.6288
13.5189
13.4146
13.3157
13.2218
13.1326
13.0478
12.9672
12.8906
12.8176
14.7657
14.5937
14.4314
14.2783
14.1336
13.9968
13.8674
13.745
13.629
13.5191
13.4148
13.3159
13.222
13.1328
13.048
12.9674
12.8907
12.8178
14.7657
14.5937
14.4315
14.2784
14.1338
13.997
13.8678
13.7453
13.6295
13.5196
13.4155
13.3166
13.2229
13.1339
13.0494
12.969
12.8927
12.82
14.7657
14.5937
14.4316
14.2785
14.1341
13.9975
13.8685
13.7464
13.6312
13.522
13.4191
13.3214
13.2293
13.1419
13.0595
12.981
12.9074
12.8368
14.7658
14.5937
14.4318
14.2788
14.1353
14.0002
13.8742
13.756
13.6463
13.5435
13.4485
13.3592
13.277
13.1993
13.1282
13.0602
12.9988
12.9387
14.7655
14.5928
14.4328
14.2844
14.1515
14.0321
13.929
13.8375
13.7593
13.6894
13.6307
13.5769
13.5328
13.4905
13.4574
13.423
13.3989
13.3693
14.7592
14.5932
14.4603
14.3602
14.3029
14.2766
14.2805
14.2921
14.321
14.3531
14.3959
14.4345
14.4824
14.5217
14.5721
14.609
14.6618
14.6941
14.7213
14.6911
14.754
14.9176
15.1828
15.4611
15.7475
16.0119
16.2723
16.5038
16.7361
16.9386
17.1508
17.331
17.5312
17.694
17.8893
18.0367
14.7477
15.5124
16.5472
17.6841
18.7043
19.5675
20.3371
20.9967
21.6194
22.166
22.7189
23.2109
23.7402
24.2047
24.7334
25.1837
25.7265
26.168
15.9871
20.9921
25.0237
27.7604
29.7845
31.3584
32.7768
34.0578
35.3592
36.6163
37.9755
39.2976
40.7624
42.1472
43.7201
45.1772
46.8888
48.3654
29.9032
47.2182
54.8693
58.6733
61.6135
64.4316
67.5799
70.9771
74.7382
78.7148
82.9863
87.3472
91.9093
96.4573
101.111
105.637
110.195
114.602
165.798
160.075
154.899
149.564
144.479
139.677
135.614
132.108
129.27
126.973
125.319
124.044
123.34
122.825
122.843
122.962
123.287
123.832
2.24862
1.59709
2.50827
3.34621
4.15565
4.93565
5.67685
6.36616
6.99
7.53957
8.00028
8.39049
8.75151
39.1469
41.407
42.8083
43.5901
42.8825
41.206
40.7353
44.0272
43.8703
39.8933
46.3335
50.8677
56.2924
61.8712
67.8018
73.9973
80.4787
87.206
94.1887
101.392
108.828
116.465
124.322
132.371
140.641
149.103
157.784
166.661
175.764
185.071
194.614
204.376
214.388
224.637
235.155
245.93
256.993
268.336
279.981
291.911
304.141
316.661
329.488
342.613
356.048
369.785
383.833
398.183
412.836
427.786
443.024
458.548
474.334
490.384
506.66
523.165
539.844
556.699
573.658
590.719
607.787
624.861
641.83
658.706
675.399
692.013
708.627
725.011
741.113
756.944
772.356
787.392
801.879
815.861
829.171
841.81
853.653
864.606
874.679
883.782
891.923
899.035
905.162
910.317
914.729
917.57
919.048
918.216
917.624
916.148
913.848
910.449
906.23
901.239
895.532
889.21
882.319
874.967
867.2
859.13
850.799
842.314
833.714
825.081
816.454
807.924
799.53
791.338
783.386
775.714
768.331
761.226
754.428
747.888
741.649
735.663
729.96
724.495
719.313
714.261
709.38
704.602
699.995
695.436
690.965
686.481
682.052
677.63
673.219
668.757
664.176
659.445
654.511
649.355
643.928
638.219
632.187
625.83
619.118
612.053
604.624
596.832
588.703
580.249
571.44
562.295
552.884
543.111
533.184
523.193
516.404
512
507.683
503.169
498.406
493.364
488.041
482.366
476.422
470.072
463.259
456
448.318
439.949
430.187
421.355
385.752
5.97369
3.48921
3.36523
3.67297
4.16981
4.77895
5.46952
6.23063
7.07157
8.03884
9.25566
10.9913
13.7746
18.658
21.1051
22.671
23.8818
24.8854
25.9051
27.1106
28.6931
29.9983
31.4076
34.2812
37.1011
40.0157
43.0025
46.0723
49.2148
52.4317
55.7196
59.0815
62.5154
66.0263
69.6156
73.2929
77.0519
80.8907
84.8084
88.8101
92.8953
97.0693
101.332
105.689
110.141
114.692
119.344
124.101
128.964
133.936
139.017
144.208
149.506
154.912
160.424
166.045
171.771
177.602
183.538
189.574
195.71
201.94
208.263
214.671
221.161
227.725
234.356
241.044
247.782
254.556
261.355
268.164
274.972
281.76
288.519
295.235
301.912
308.556
315.208
321.931
328.68
335.315
341.831
348.198
354.399
360.402
366.19
371.729
377
381.964
386.605
390.9
394.833
398.388
401.549
404.306
406.642
408.543
409.914
410.776
411.021
411.232
410.997
410.396
409.367
407.992
406.293
404.299
402.038
399.54
396.834
393.95
390.918
387.768
384.526
381.22
377.873
374.511
371.159
367.835
364.562
361.354
358.226
355.18
352.224
349.354
346.572
343.877
341.27
338.748
336.308
333.947
331.644
329.403
327.213
325.075
322.971
320.897
318.841
316.809
314.799
312.798
310.789
308.75
306.672
304.536
302.337
300.058
297.694
295.232
292.671
289.998
287.217
284.318
281.305
278.18
274.948
271.606
268.151
264.601
260.949
257.222
253.513
250.336
247.655
245.009
242.275
239.419
236.423
233.287
229.993
226.559
222.972
219.206
215.27
211.193
206.935
202.562
199.135
193.726
10.8175
5.62141
4.91687
4.96658
5.31591
5.85182
6.53239
7.34132
8.28016
9.37063
10.6535
12.1837
14.0017
16.0429
17.8224
19.4171
20.9466
22.4901
24.1054
25.8155
27.6453
29.5612
31.6491
33.9373
36.267
38.6499
41.0924
43.5974
46.1627
48.7873
51.4707
54.2183
57.0264
59.8955
62.8261
65.8196
68.8752
71.9936
75.1752
78.4216
81.7336
85.1132
88.5613
92.0799
95.6701
99.3337
103.072
106.886
110.777
114.745
118.791
122.914
127.115
131.392
135.746
140.176
144.682
149.264
153.92
158.648
163.446
168.313
173.246
178.241
183.295
188.405
193.565
198.772
204.019
209.3
214.609
219.94
225.287
230.644
236.005
241.368
246.732
252.098
257.468
262.844
268.19
273.471
278.671
283.771
288.756
293.605
298.299
302.819
307.144
311.254
315.127
318.746
322.097
325.161
327.926
330.375
332.497
334.274
335.688
336.745
337.439
337.859
337.975
337.822
337.338
336.562
335.519
334.232
332.72
331.008
329.116
327.069
324.888
322.597
320.216
317.767
315.268
312.738
310.194
307.653
305.127
302.63
300.169
297.75
295.378
293.054
290.781
288.559
286.388
284.267
282.195
280.166
278.176
276.22
274.296
272.398
270.521
268.658
266.807
264.968
263.136
261.305
259.461
257.595
255.697
253.759
251.772
249.73
247.625
245.451
243.203
240.877
238.47
235.98
233.404
230.746
228.005
225.19
222.289
219.314
216.265
213.153
210.026
207.04
204.203
201.372
198.484
195.514
192.453
189.3
186.05
182.712
179.286
175.77
172.177
168.547
164.866
161.296
158.357
155.732
15.9387
7.97347
6.69092
6.53459
6.79763
7.30583
7.99393
8.83365
9.81128
10.9209
12.1608
13.5292
15.0147
16.5805
18.1605
19.7521
21.3771
23.0579
24.8092
26.6418
28.5562
30.5451
32.6108
34.7675
36.9839
39.2534
41.578
43.9616
46.4002
48.8902
51.4261
54.0147
56.6587
59.3598
62.1184
64.9351
67.8101
70.744
73.7372
76.7903
79.9038
83.0789
86.3161
89.6168
92.9815
96.4116
99.9076
103.47
107.101
110.799
114.565
118.4
122.303
126.274
130.313
134.419
138.592
142.836
147.147
151.525
155.968
160.475
165.045
169.675
174.363
179.107
183.904
188.751
193.646
198.585
203.562
208.575
213.62
218.694
223.793
228.914
234.054
239.209
244.375
249.539
254.681
259.78
264.822
269.79
274.668
279.439
284.085
288.586
292.924
297.078
301.028
304.756
308.243
311.472
314.426
317.091
319.451
321.494
323.21
324.599
325.666
326.433
326.869
327.015
326.877
326.444
325.74
324.786
323.601
322.207
320.624
318.873
316.975
314.952
312.824
310.609
308.328
305.997
303.631
301.247
298.856
296.469
294.095
291.741
289.412
287.11
284.84
282.601
280.394
278.219
276.075
273.958
271.866
269.794
267.739
265.698
263.666
261.64
259.617
257.595
255.571
253.537
251.485
249.408
247.298
245.149
242.955
240.708
238.404
236.038
233.605
231.101
228.524
225.873
223.147
220.347
217.471
214.526
211.495
208.393
205.223
201.998
198.743
195.525
192.352
189.17
185.947
182.667
179.324
175.921
172.458
168.939
165.371
161.762
158.128
154.508
150.934
147.561
144.652
142.428
20.9605
10.363
8.50343
8.14492
8.31251
8.7778
9.44883
10.2838
11.2588
12.3578
13.5678
14.8773
16.2739
17.7425
19.2683
20.8477
22.4841
24.1838
25.9516
27.7905
29.6993
31.6754
33.7177
35.8246
37.9898
40.2105
42.4854
44.8137
47.1968
49.6366
52.135
54.6928
57.3085
59.9824
62.7144
65.5053
68.3554
71.2657
74.2366
77.2676
80.3589
83.5113
86.7254
90.0019
93.3415
96.7451
100.213
103.747
107.346
111.012
114.745
118.546
122.413
126.349
130.352
134.422
138.558
142.766
147.045
151.393
155.809
160.293
164.845
169.463
174.146
178.892
183.701
188.571
193.5
198.486
203.523
208.611
213.748
218.931
224.156
229.42
234.717
240.042
245.388
250.741
256.086
261.409
266.695
271.93
277.096
282.177
287.153
292.006
296.715
301.259
305.616
309.766
313.686
317.358
320.76
323.877
326.69
329.186
331.353
333.188
334.688
335.858
336.699
337.196
337.372
337.244
336.819
336.116
335.153
333.951
332.532
330.915
329.124
327.179
325.102
322.913
320.631
318.275
315.861
313.405
310.919
308.416
305.906
303.396
300.892
298.399
295.921
293.459
291.015
288.588
286.178
283.782
281.399
279.024
276.656
274.29
271.924
269.554
267.177
264.792
262.394
259.978
257.537
255.065
252.556
250.006
247.408
244.758
242.052
239.284
236.453
233.555
230.588
227.552
224.446
221.272
218.028
214.722
211.346
207.908
204.415
200.875
197.308
193.746
190.196
186.637
183.051
179.43
175.769
172.065
168.321
164.549
160.758
156.961
153.175
149.441
145.803
142.4
139.401
137.043
25.6723
12.6568
10.2346
9.67082
9.73158
10.1366
10.7682
11.5724
12.5191
13.5881
14.7643
16.035
17.3895
18.8186
20.3153
21.8763
23.5012
25.1915
26.9485
28.7732
30.6651
32.623
34.6457
36.7319
38.8793
41.0868
43.3535
45.6796
48.0654
50.5119
53.0198
55.5896
58.2213
60.915
63.6708
66.489
69.3698
72.3132
75.3193
78.3892
81.5231
84.7217
87.9855
91.3152
94.7112
98.1744
101.706
105.305
108.974
112.714
116.523
120.405
124.359
128.385
132.485
136.659
140.908
145.234
149.635
154.114
158.67
163.302
168.011
172.797
177.66
182.598
187.612
192.701
197.864
203.098
208.404
213.778
219.219
224.723
230.287
235.906
241.575
247.286
253.029
258.794
264.571
270.346
276.105
281.833
287.513
293.127
298.654
304.074
309.366
314.504
319.466
324.227
328.762
333.048
337.06
340.778
344.18
347.25
349.973
352.338
354.341
355.977
357.246
358.151
358.675
358.847
358.685
358.204
357.423
356.36
355.039
353.481
351.71
349.748
347.62
345.346
342.948
340.446
337.859
335.203
332.494
329.744
326.966
324.168
321.359
318.544
315.728
312.914
310.103
307.296
304.492
301.691
298.891
296.088
293.28
290.465
287.639
284.799
281.944
279.071
276.175
273.252
270.297
267.305
264.272
261.193
258.066
254.885
251.649
248.352
244.995
241.574
238.088
234.538
230.924
227.248
223.511
219.718
215.871
211.977
208.042
204.076
200.092
196.111
192.137
188.163
184.181
180.186
176.176
172.148
168.116
164.083
160.057
156.051
152.086
148.2
144.439
140.923
137.759
135.123
29.9214
14.7614
11.8084
11.0365
10.9884
11.3223
11.9019
12.662
13.5671
14.5953
15.7308
16.9617
18.2784
19.6735
21.1417
22.6796
24.2856
25.9594
27.701
29.5107
31.3882
33.333
35.3446
37.4224
39.5655
41.7736
44.0465
46.3844
48.7876
51.2569
53.7928
56.3958
59.0662
61.8045
64.6109
67.4858
70.4294
73.442
76.524
79.6759
82.8981
86.1912
89.5557
92.9922
96.5014
100.084
103.741
107.473
111.281
115.166
119.128
123.17
127.292
131.494
135.779
140.147
144.599
149.137
153.761
158.472
163.271
168.159
173.136
178.203
183.359
188.606
193.944
199.371
204.888
210.494
216.188
221.969
227.833
233.78
239.805
245.903
252.069
258.296
264.575
270.897
277.251
283.624
290.002
296.369
302.708
309
315.222
321.352
327.366
333.237
338.938
344.441
349.717
354.738
359.476
363.903
367.997
371.732
375.093
378.061
380.628
382.785
384.528
385.858
386.775
387.265
387.373
387.108
386.493
385.545
384.288
382.746
380.945
378.911
376.667
374.24
371.652
368.926
366.083
363.143
360.121
357.035
353.897
350.719
347.51
344.277
341.026
337.762
334.486
331.2
327.905
324.599
321.281
317.949
314.601
311.234
307.846
304.434
300.996
297.53
294.032
290.498
286.925
283.309
279.647
275.937
272.175
268.36
264.489
260.561
256.574
252.528
248.423
244.262
240.045
235.776
231.46
227.103
222.709
218.287
213.844
209.391
204.939
200.5
196.081
191.679
187.292
182.916
178.552
174.199
169.865
165.555
161.277
157.045
152.88
148.815
144.897
141.224
137.859
134.921
33.6215
16.6197
13.1816
12.2047
12.0522
12.3132
12.8372
13.5491
14.4092
15.3936
16.4864
17.6761
18.9541
20.3139
21.7506
23.2611
24.8434
26.4963
28.2195
30.0128
31.8761
33.8092
35.8121
37.8849
40.0275
42.2402
44.5233
46.8773
49.3028
51.8005
54.3713
57.016
59.7353
62.5299
65.4003
68.3472
71.3709
74.472
77.6509
80.9082
84.2443
87.6599
91.1556
94.7321
98.3901
102.131
105.954
109.863
113.856
117.936
122.105
126.362
130.71
135.15
139.683
144.311
149.035
153.856
158.777
163.798
168.92
174.145
179.473
184.906
190.445
196.089
201.84
207.698
213.662
219.733
225.91
232.192
238.577
245.062
251.644
258.319
265.082
271.926
278.843
285.823
292.856
299.929
307.029
314.138
321.238
328.308
335.325
342.265
349.1
355.801
362.337
368.675
374.783
380.627
386.174
391.392
396.251
400.723
404.783
408.411
411.592
414.312
416.565
418.349
419.664
420.506
420.886
420.841
420.383
419.535
418.319
416.765
414.899
412.75
410.346
407.715
404.882
401.874
398.714
395.424
392.024
388.531
384.962
381.33
377.646
373.92
370.157
366.364
362.544
358.699
354.83
350.936
347.018
343.072
339.098
335.093
331.055
326.982
322.872
318.724
314.533
310.297
306.015
301.683
297.301
292.866
288.378
283.836
279.239
274.588
269.883
265.126
260.319
255.466
250.571
245.641
240.68
235.698
230.702
225.702
220.707
215.727
210.772
205.853
200.975
196.14
191.345
186.59
181.873
177.197
172.565
167.981
163.455
158.997
154.629
150.381
146.292
142.443
138.866
135.64
36.7377
18.2052
14.3382
13.1715
12.9193
13.1099
13.5793
14.2438
15.0598
16.0015
17.0526
18.2019
19.4412
20.7647
22.1679
23.6479
25.2026
26.8309
28.5322
30.3063
32.153
34.0726
36.0655
38.1324
40.2739
42.4908
44.7838
47.154
49.6021
52.1292
54.7363
57.4253
60.1974
63.0538
65.9954
69.0232
72.1377
75.3397
78.63
82.0092
85.4781
89.0374
92.6878
96.4304
100.266
104.196
108.221
112.342
116.561
120.879
125.298
129.819
134.444
139.174
144.012
148.958
154.015
159.185
164.468
169.866
175.382
181.016
186.769
192.644
198.64
204.76
211.003
217.37
223.861
230.477
237.217
244.08
251.065
258.168
265.387
272.718
280.157
287.695
295.327
303.042
310.831
318.679
326.573
334.496
342.427
350.346
358.228
366.044
373.766
381.362
388.795
396.031
403.03
409.755
416.167
422.227
427.9
433.152
437.952
442.276
446.101
449.411
452.196
454.448
456.169
457.36
458.022
458.19
457.879
457.113
455.917
454.323
452.361
450.063
447.46
444.582
441.46
438.122
434.594
430.903
427.069
423.115
419.057
414.912
410.693
406.41
402.072
397.686
393.256
388.785
384.274
379.724
375.134
370.503
365.83
361.113
356.351
351.54
346.681
341.771
336.808
331.791
326.718
321.588
316.402
311.16
305.863
300.511
295.108
289.654
284.155
278.613
273.034
267.424
261.789
256.138
250.48
244.825
239.184
233.568
227.988
222.453
216.975
211.562
206.219
200.949
195.749
190.62
185.56
180.569
175.649
170.803
166.038
161.364
156.799
152.37
148.109
144.082
140.295
136.803
39.2683
19.5138
15.281
13.9451
13.6005
13.7252
14.143
14.7627
15.537
16.4386
17.4504
18.5611
19.763
21.0505
22.4195
23.8675
25.3924
26.9936
28.6706
30.4239
32.2518
34.1552
36.1357
38.1945
40.3331
42.5526
44.8546
47.2403
49.7108
52.2668
54.9085
57.6415
60.4682
63.3899
66.4079
69.5235
72.7377
76.0517
79.4663
82.9828
86.602
90.325
94.1529
98.0869
102.128
106.278
110.538
114.909
119.393
123.992
128.707
133.54
138.494
143.569
148.768
154.092
159.544
165.126
170.838
176.683
182.662
188.777
195.029
201.42
207.95
214.621
221.433
228.386
235.481
242.718
250.097
257.615
265.272
273.065
280.992
289.047
297.227
305.525
313.933
322.442
331.041
339.718
348.457
357.24
366.048
374.858
383.642
392.373
401.017
409.538
417.901
426.062
433.98
441.61
448.909
455.832
462.337
468.384
473.937
478.964
483.44
487.342
490.656
493.373
495.491
497.013
497.944
498.309
498.126
497.418
496.212
494.546
492.454
489.972
487.132
483.969
480.516
476.806
472.867
468.729
464.416
459.952
455.357
450.649
445.844
440.954
435.989
430.956
425.861
420.708
415.498
410.233
404.913
399.537
394.103
388.611
383.058
377.445
371.768
366.028
360.223
354.353
348.418
342.418
336.356
330.234
324.055
317.824
311.544
305.221
298.862
292.473
286.062
279.638
273.212
266.794
260.396
254.031
247.712
241.451
235.262
229.155
223.14
217.226
211.418
205.715
200.119
194.626
189.235
183.944
178.751
173.659
168.671
163.796
159.047
154.447
150.022
145.823
141.838
138.109
41.2342
20.5544
16.0228
14.5417
14.114
14.1788
14.5487
15.1267
15.8624
16.7267
17.702
18.7769
19.9435
21.1967
22.5329
23.9498
25.4447
27.0173
28.6686
30.4009
32.2095
34.0969
36.065
38.1156
40.2504
42.4717
44.7812
47.1813
49.6738
52.2602
54.94
57.72
60.6047
63.5971
66.6988
69.9116
73.2371
76.6768
80.232
83.9044
87.6953
91.6063
95.6387
99.7941
104.074
108.48
113.015
117.679
122.474
127.403
132.467
137.669
143.01
148.492
154.117
159.887
165.805
171.871
178.087
184.455
190.977
197.653
204.485
211.474
218.62
225.924
233.387
241.008
248.787
256.724
264.817
273.066
281.468
290.02
298.72
307.562
316.541
325.652
334.885
344.232
353.681
363.22
372.832
382.5
392.202
401.916
411.612
421.26
430.826
440.271
449.555
458.632
467.457
475.978
484.147
491.914
499.23
506.05
512.331
518.036
523.134
527.599
531.412
534.562
537.044
538.863
540.025
540.55
540.458
539.769
538.51
536.732
534.471
531.762
528.645
525.156
521.331
517.207
512.816
508.189
503.355
498.339
493.165
487.852
482.418
476.876
471.239
465.514
459.708
453.826
447.87
441.842
435.742
429.569
423.322
417.001
410.604
404.131
397.581
390.953
384.247
377.465
370.607
363.677
356.678
349.616
342.496
335.325
328.11
320.861
313.588
306.3
299.008
291.726
284.467
277.244
270.073
262.969
255.948
249.023
242.21
235.52
228.963
222.547
216.277
210.152
204.17
198.329
192.625
187.051
181.607
176.289
171.099
166.041
161.127
156.372
151.796
147.44
143.277
139.344
42.6673
21.3426
16.5809
14.9808
14.4809
14.4928
14.8195
15.3595
16.0599
16.8904
17.8329
18.8755
20.0107
21.2335
22.5401
23.9301
25.3988
26.9464
28.5724
30.2767
32.0616
33.93
35.8843
37.927
40.0608
42.2882
44.6119
47.0352
49.5611
52.1928
54.9256
57.7609
60.7138
63.7881
66.9875
70.3143
73.7704
77.3579
81.0789
84.9353
88.9292
93.0625
97.3373
101.756
106.319
111.031
115.892
120.905
126.072
131.394
136.875
142.516
148.319
154.285
160.418
166.718
173.187
179.826
186.637
193.621
200.779
208.111
215.618
223.3
231.157
239.189
247.396
255.776
264.328
273.051
281.942
291
300.221
309.602
319.138
328.825
338.655
348.623
358.718
368.931
379.251
389.664
400.153
410.701
421.286
431.882
442.463
452.994
463.44
473.761
483.914
493.851
503.52
512.869
521.842
530.385
538.444
545.966
552.905
559.218
564.868
569.825
574.069
577.584
580.367
582.417
583.746
584.372
584.311
583.584
582.215
580.27
577.787
574.803
571.359
567.497
563.255
558.673
553.787
548.631
543.235
537.628
531.836
525.88
519.778
513.547
507.2
500.744
494.189
487.539
480.798
473.966
467.045
460.033
452.932
445.739
438.453
431.076
423.605
416.043
408.389
400.646
392.818
384.909
376.925
368.874
360.764
352.606
344.411
336.191
327.961
319.733
311.524
303.35
295.227
287.172
279.205
271.343
263.603
256.004
248.56
241.285
234.188
227.278
220.557
214.024
207.675
201.506
195.509
189.679
184.008
178.49
173.122
167.906
162.849
157.961
153.255
148.761
144.443
140.34
43.6145
21.8993
16.975
15.2837
14.7231
14.6916
14.98
15.4865
16.1562
16.9582
17.8737
18.8898
19.9994
21.1995
22.4811
23.8426
25.2835
26.8057
28.411
30.1003
31.8751
33.738
35.6922
37.7411
39.8891
42.1371
44.4884
46.9474
49.5183
52.2047
55.0013
57.9185
60.9664
64.1511
67.4769
70.9485
74.5701
78.3439
82.2725
86.3588
90.6052
95.0145
99.5894
104.333
109.246
114.334
119.597
125.039
130.661
136.465
142.455
148.631
154.995
161.55
168.295
175.233
182.365
189.69
197.211
204.926
212.835
220.939
229.237
237.727
246.408
255.278
264.336
273.579
283.004
292.607
302.386
312.336
322.453
332.73
343.163
353.744
364.466
375.321
386.298
397.386
408.572
419.843
431.182
442.57
453.985
465.401
476.791
488.12
499.351
510.446
521.357
532.036
542.428
552.478
562.127
571.316
579.987
588.083
595.552
602.347
608.428
613.761
618.322
622.094
625.072
627.256
628.656
629.289
629.176
628.324
626.769
624.587
621.815
618.494
614.666
610.375
605.666
600.578
595.152
589.423
583.426
577.191
570.744
564.11
557.307
550.354
543.263
536.046
528.71
521.261
513.701
506.034
498.259
490.376
482.386
474.287
466.079
457.762
449.337
440.803
432.166
423.427
414.591
405.666
396.66
387.584
378.449
369.269
360.06
350.837
341.619
332.424
323.272
314.182
305.176
296.274
287.498
278.869
270.408
262.134
254.062
246.209
238.583
231.194
224.042
217.122
210.43
203.959
197.7
191.64
185.774
180.086
174.569
169.223
164.05
159.055
154.244
149.638
145.192
140.954
44.1326
22.2492
17.2243
15.4686
14.861
14.7956
15.0544
15.5349
16.1817
16.9636
17.8612
18.8593
19.9509
21.1292
22.3956
23.7466
25.1809
26.6994
28.3038
29.9962
31.7793
33.6563
35.631
37.7076
39.8905
42.1767
44.5746
47.0904
49.7298
52.4982
55.4012
58.4459
61.6394
64.9884
68.4986
72.1759
76.0265
80.054
84.2623
88.655
93.2356
98.0076
102.974
108.139
113.506
119.077
124.855
130.843
137.043
143.457
150.086
156.932
163.996
171.278
178.78
186.501
194.441
202.6
210.975
219.567
228.373
237.391
246.619
256.052
265.689
275.525
285.555
295.775
306.179
316.762
327.518
338.44
349.522
360.754
372.129
383.638
395.272
407.018
418.866
430.803
442.815
454.886
466.999
479.136
491.274
503.388
515.449
527.425
539.279
550.969
562.453
573.68
584.596
595.143
605.262
614.892
623.971
632.44
640.243
647.33
653.657
659.19
663.9
667.77
670.793
672.97
674.312
674.823
674.546
673.45
671.615
669.108
665.966
662.233
657.953
653.172
647.937
642.292
636.278
629.934
623.296
616.395
609.26
601.916
594.383
586.679
578.819
570.813
562.67
554.396
545.994
537.466
528.812
520.034
511.13
502.1
492.944
483.662
474.255
464.726
455.078
445.317
435.449
425.483
415.431
405.305
395.121
384.897
374.653
364.408
354.185
344.008
333.9
323.885
313.989
304.237
294.653
285.262
276.087
267.151
258.467
250.054
241.922
234.072
226.505
219.22
212.211
205.467
198.979
192.726
186.713
180.901
175.28
169.847
164.598
159.534
154.654
149.973
145.441
141.109
44.1289
22.3762
17.3329
15.5491
14.9152
14.8295
15.0712
15.5377
16.1746
16.9492
17.8373
18.8314
19.9238
21.1095
22.3862
23.748
25.1967
26.7341
28.3624
30.0844
31.9037
33.8243
35.8509
37.9885
40.2424
42.6182
45.122
47.7609
50.5418
53.4723
56.56
59.8128
63.2382
66.8441
70.6378
74.6269
78.8173
83.2152
87.8262
92.6552
97.7066
102.985
108.493
114.237
120.219
126.442
132.909
139.622
146.582
153.792
161.25
168.958
176.916
185.121
193.573
202.269
211.209
220.388
229.803
239.451
249.327
259.427
269.745
280.274
291.01
301.944
313.069
324.377
335.86
347.509
359.314
371.266
383.353
395.566
407.893
420.321
432.838
445.431
458.084
470.784
483.515
496.259
509.001
521.719
534.393
546.998
559.508
571.89
584.11
596.13
607.906
619.392
630.536
641.28
651.568
661.339
670.531
679.084
686.942
694.053
700.371
705.86
710.491
714.247
717.118
719.106
720.227
720.454
719.858
718.379
716.153
713.217
709.611
705.381
700.573
695.234
689.414
683.157
676.508
669.506
662.189
654.589
646.736
638.654
630.365
621.888
613.237
604.422
595.453
586.335
577.072
567.665
558.116
548.423
538.588
528.609
518.487
508.223
497.818
487.277
476.603
465.804
454.889
443.868
432.755
421.568
410.324
399.047
387.758
376.485
365.253
354.093
343.03
332.095
321.318
310.729
300.353
290.219
280.348
270.754
261.467
252.511
243.891
235.648
227.745
220.169
212.914
205.965
199.309
192.921
186.806
180.904
175.214
169.728
164.436
159.335
154.417
149.69
145.096
140.726
43.9229
22.3619
17.341
15.5577
14.9178
14.8297
15.0728
15.5436
16.1878
16.9716
17.8769
18.8928
20.0123
21.231
22.5464
23.958
25.4665
27.0743
28.7842
30.6002
32.5269
34.5699
36.7351
39.0294
41.4598
44.0342
46.7606
49.6474
52.7036
55.9384
59.3611
62.9811
66.8076
70.8498
75.1162
79.6149
84.3532
89.3407
94.5866
100.095
105.871
111.918
118.241
124.843
131.727
138.894
146.347
154.086
162.11
170.419
179.01
187.88
197.027
206.447
216.134
226.084
236.29
246.747
257.448
268.385
279.55
290.935
302.53
314.327
326.314
338.481
350.816
363.308
375.944
388.712
401.598
414.588
427.668
440.824
454.041
467.303
480.594
493.898
507.199
520.477
533.718
546.902
560.013
573.031
585.936
598.705
611.316
623.739
635.943
647.894
659.554
670.881
681.828
692.343
702.374
711.865
720.758
728.995
736.523
743.289
749.251
754.372
758.622
761.982
764.441
765.999
766.656
766.425
765.281
763.284
760.518
757.019
752.83
747.996
742.564
736.581
730.097
723.159
715.811
708.094
700.046
691.699
683.084
674.224
665.141
655.854
646.377
636.72
626.891
616.897
606.741
596.424
585.946
575.309
564.511
553.553
542.436
531.16
519.729
508.148
496.421
484.559
472.573
460.475
448.283
436.016
423.698
411.354
399.013
386.704
374.463
362.321
350.311
338.465
326.805
315.369
304.2
293.323
282.809
272.658
262.871
253.474
244.469
235.899
227.689
219.856
212.391
205.276
198.491
192.01
185.814
179.871
174.161
168.67
163.381
158.288
153.369
148.642
144.052
139.708
43.4485
22.2315
17.2869
15.5329
14.9141
14.8515
15.1231
15.6284
16.3145
17.1514
18.1216
19.2149
20.4254
21.7499
23.1878
24.7397
26.4079
28.196
30.1083
32.1507
34.3295
36.6522
39.127
41.7626
44.5686
47.5548
50.7312
54.1087
57.6979
61.5103
65.5569
69.849
74.3972
79.2123
84.3046
89.6844
95.3637
101.35
107.645
114.255
121.183
128.434
136.009
143.908
152.132
160.679
169.546
178.73
188.226
198.027
208.126
218.518
229.192
240.141
251.354
262.822
274.534
286.479
298.646
311.023
323.598
336.358
349.292
362.385
375.623
388.992
402.478
416.064
429.734
443.472
457.262
471.086
484.928
498.769
512.592
526.377
540.108
553.766
567.331
580.785
594.109
607.287
620.3
633.133
645.764
658.179
670.355
682.272
693.904
705.223
716.199
726.798
736.979
746.701
755.919
764.588
772.659
780.081
786.804
792.782
797.976
802.35
805.876
808.533
810.306
811.19
811.164
810.225
808.383
805.734
802.31
798.148
793.292
787.785
781.675
775.006
767.827
760.184
752.123
743.683
734.901
725.809
716.436
706.806
696.939
686.853
676.56
666.073
655.397
644.538
633.5
622.283
610.888
599.315
587.564
575.636
563.531
551.254
538.806
526.194
513.426
500.514
487.47
474.311
461.057
447.73
434.361
420.978
407.613
394.301
381.067
367.951
355.007
342.264
329.816
317.669
305.847
294.376
283.341
272.674
262.428
252.628
243.282
234.399
225.957
217.944
210.347
203.142
196.3
189.794
183.598
177.678
172.007
166.57
161.334
156.298
151.448
146.792
142.271
138.016
42.6414
21.9812
17.168
15.4939
14.9477
14.9522
15.3033
15.9024
16.699
17.6657
18.7873
20.0556
21.4669
23.0204
24.7176
26.5618
28.5576
30.7112
33.0297
35.5215
38.1957
41.0625
44.133
47.4187
50.9313
54.6829
58.6858
62.9526
67.4956
72.3274
77.4597
82.904
88.6711
94.7715
101.215
108.01
115.168
122.695
130.589
138.848
147.471
156.452
165.789
175.475
185.502
195.862
206.545
217.541
228.836
240.418
252.274
264.391
276.754
289.349
302.16
315.174
328.375
341.748
355.28
368.955
382.759
396.677
410.695
424.797
438.968
453.192
467.452
481.73
496.009
510.271
524.497
538.67
552.769
566.778
580.674
594.442
608.058
621.506
634.766
647.819
660.648
673.235
685.567
697.628
709.404
720.878
732.042
742.878
753.369
763.495
773.237
782.568
791.457
799.873
807.785
815.163
821.969
828.163
833.702
838.545
842.661
846.019
848.586
850.343
851.269
851.307
850.454
848.703
846.149
842.802
838.694
833.86
828.341