/*--------------------------------*- C++ -*----------------------------------*\
  =========                 |
  \\      /  F ield         | OpenFOAM: The Open Source CFD Toolbox
   \\    /   O peration     | Website:  https://openfoam.org
    \\  /    A nd           | Version:  8
     \\/     M anipulation  |
\*---------------------------------------------------------------------------*/
FoamFile
{
    version     2.0;
    format      ascii;
    class       volScalarField;
    location    "125";
    object      k;
}
// * * * * * * * * * * * * * * * * * * * * * * * * * * * * * * * * * * * * * //

dimensions      [0 2 -2 0 0 0 0];

internalField   nonuniform List<scalar> 
12225
(
0.36283
0.344001
0.327734
0.309838
0.295367
0.28353
0.275443
0.270309
0.270343
0.271914
0.276043
0.280761
0.289895
0.29584
0.306938
0.312981
0.326301
0.323972
0.440281
0.468734
0.461615
0.44837
0.450353
0.458328
0.474375
0.498868
0.524193
0.552561
0.580642
0.606721
0.634013
0.654594
0.680526
0.694245
0.721165
0.72652
0.390416
0.417852
0.420243
0.416825
0.411639
0.407802
0.408004
0.410047
0.414459
0.421578
0.430655
0.439949
0.451187
0.461527
0.473008
0.484379
0.494114
0.508268
0.377047
0.387164
0.391468
0.391342
0.390261
0.387884
0.385656
0.384086
0.382868
0.3829
0.383369
0.384387
0.38629
0.38858
0.390994
0.394477
0.396902
0.401768
0.374435
0.376092
0.378429
0.378665
0.378275
0.377201
0.375486
0.373738
0.372006
0.370455
0.36925
0.36812
0.367371
0.366838
0.36646
0.366424
0.366478
0.366948
0.37378
0.372703
0.372659
0.372365
0.371773
0.370818
0.369552
0.368082
0.366568
0.364976
0.363521
0.362065
0.360746
0.359535
0.358395
0.357447
0.356466
0.355857
0.373775
0.371739
0.370388
0.369283
0.368235
0.367114
0.365914
0.364586
0.363235
0.361806
0.360416
0.359021
0.35767
0.356378
0.355113
0.353964
0.352793
0.351817
0.373819
0.371559
0.369635
0.367976
0.3665
0.365107
0.363774
0.362428
0.361105
0.359764
0.358446
0.35714
0.355856
0.354615
0.353392
0.352241
0.35109
0.350049
0.373832
0.371553
0.369449
0.367525
0.365776
0.364153
0.362644
0.361198
0.359815
0.358471
0.357166
0.355898
0.354661
0.353468
0.352299
0.351187
0.350089
0.349067
0.373831
0.37156
0.369418
0.367405
0.365529
0.363772
0.362132
0.360584
0.35912
0.357726
0.356391
0.355114
0.353883
0.352704
0.351563
0.350474
0.349413
0.348416
0.373829
0.37156
0.369413
0.367378
0.365458
0.363645
0.361937
0.360323
0.358797
0.357351
0.355976
0.354669
0.353421
0.352231
0.351089
0.350004
0.348955
0.347967
0.373828
0.371559
0.369409
0.367371
0.365439
0.363608
0.361875
0.360233
0.358676
0.3572
0.355798
0.354466
0.353198
0.351992
0.350839
0.349745
0.348694
0.347701
0.373827
0.371557
0.369405
0.367365
0.36543
0.363593
0.361851
0.360196
0.358625
0.357133
0.355714
0.354366
0.353083
0.351863
0.350699
0.349594
0.348536
0.347534
0.373826
0.371555
0.369401
0.36736
0.365422
0.363583
0.361837
0.360177
0.3586
0.3571
0.355673
0.354316
0.353024
0.351794
0.350622
0.349507
0.348442
0.347431
0.373826
0.371553
0.369398
0.367355
0.365416
0.363575
0.361826
0.360164
0.358584
0.357081
0.355651
0.35429
0.352993
0.351759
0.350582
0.349461
0.348392
0.347374
0.373826
0.371552
0.369396
0.367351
0.36541
0.363567
0.361817
0.360153
0.358572
0.357067
0.355635
0.354271
0.352973
0.351736
0.350557
0.349433
0.348362
0.34734
0.373825
0.371551
0.369394
0.367348
0.365406
0.363562
0.36181
0.360145
0.358562
0.357056
0.355622
0.354257
0.352957
0.351719
0.350538
0.349412
0.348338
0.347315
0.373825
0.371551
0.369393
0.367346
0.365403
0.363558
0.361806
0.36014
0.358555
0.357048
0.355613
0.354247
0.352945
0.351706
0.350523
0.349396
0.348321
0.347296
0.373825
0.37155
0.369393
0.367346
0.365402
0.363557
0.361804
0.360137
0.358552
0.357044
0.355609
0.354242
0.352939
0.351699
0.350515
0.349387
0.348311
0.347284
0.373825
0.371551
0.369393
0.367347
0.365404
0.363559
0.361806
0.36014
0.358555
0.357048
0.355612
0.354245
0.352942
0.351702
0.350518
0.34939
0.348314
0.347287
0.373825
0.371551
0.369395
0.367349
0.365407
0.363563
0.361812
0.360146
0.358563
0.357056
0.355622
0.354256
0.352956
0.351716
0.350535
0.349408
0.348334
0.347308
0.373826
0.371552
0.369397
0.367352
0.365412
0.363571
0.361822
0.360162
0.358584
0.357083
0.355657
0.354299
0.353007
0.351775
0.350603
0.349484
0.348417
0.347398
0.373826
0.371554
0.369399
0.36736
0.365429
0.363603
0.361875
0.36024
0.358691
0.357221
0.355823
0.354494
0.353227
0.352019
0.350866
0.349763
0.34871
0.3477
0.373828
0.371551
0.369412
0.367417
0.365556
0.363819
0.362189
0.360651
0.359189
0.357794
0.356456
0.355171
0.353936
0.352745
0.3516
0.350495
0.349435
0.348409
0.373823
0.371554
0.369604
0.367893
0.366339
0.364892
0.363495
0.362122
0.360761
0.359413
0.358081
0.35677
0.355488
0.354237
0.353029
0.351855
0.350734
0.349644
0.373781
0.37199
0.371113
0.370265
0.36936
0.368311
0.367048
0.36563
0.36412
0.362575
0.36103
0.359522
0.358073
0.356682
0.355381
0.354141
0.353009
0.351924
0.374297
0.375564
0.377778
0.377858
0.377291
0.375885
0.373835
0.371641
0.369505
0.367482
0.365663
0.364084
0.36271
0.361535
0.36061
0.359819
0.35929
0.358803
0.378732
0.394394
0.398293
0.396566
0.392559
0.387608
0.383641
0.380454
0.378265
0.376851
0.376496
0.376749
0.377399
0.378698
0.380446
0.382427
0.384834
0.387149
0.408344
0.427538
0.422424
0.41105
0.402226
0.397922
0.398555
0.401115
0.405984
0.413036
0.420996
0.42983
0.438841
0.448201
0.457322
0.466577
0.475355
0.484226
0.366033
0.353411
0.341988
0.330209
0.318982
0.308382
0.299409
0.291674
0.285403
0.280332
0.276681
0.273867
0.27231
0.271185
0.271176
0.271524
0.27216
0.273394
0.00767258
0.0251507
0.039579
0.0528383
0.0656857
0.078132
0.0900811
0.101352
0.111645
0.12053
0.127324
0.130984
0.129715
0.120202
0.12111
0.12554
0.130079
0.135403
0.140123
0.1434
0.146718
0.148329
0.146938
0.159556
0.169719
0.181194
0.192762
0.204714
0.216838
0.229168
0.24161
0.254188
0.266829
0.279565
0.292337
0.305186
0.318064
0.331024
0.344015
0.35709
0.370204
0.383414
0.396677
0.410051
0.423499
0.437076
0.450751
0.464576
0.478522
0.492638
0.506888
0.521303
0.535844
0.550546
0.565381
0.58038
0.595513
0.610808
0.626236
0.64182
0.657531
0.673383
0.689354
0.705445
0.721638
0.737924
0.754286
0.770704
0.787164
0.803629
0.82009
0.836493
0.852829
0.869025
0.885074
0.90089
0.916475
0.931753
0.946795
0.961646
0.976301
0.990562
1.00449
1.01797
1.03104
1.04357
1.05558
1.06696
1.0777
1.08771
1.09693
1.10536
1.11294
1.11966
1.12548
1.13042
1.13447
1.13765
1.13991
1.14109
1.14011
1.13923
1.13745
1.13512
1.13173
1.12761
1.12275
1.11722
1.1111
1.10442
1.09727
1.08968
1.08175
1.07352
1.06507
1.05645
1.04773
1.03895
1.03019
1.02148
1.01289
1.00447
0.996252
0.988256
0.980501
0.972978
0.965693
0.958656
0.95185
0.945296
0.938949
0.932831
0.926904
0.92122
0.915668
0.910303
0.905024
0.899851
0.894703
0.889643
0.88465
0.879707
0.874768
0.869779
0.864707
0.859508
0.854161
0.848623
0.842878
0.836889
0.830648
0.824126
0.817321
0.810215
0.8028
0.795074
0.787058
0.778751
0.77014
0.76123
0.752034
0.742499
0.733023
0.724994
0.720186
0.715708
0.711107
0.706327
0.701296
0.696029
0.690465
0.684584
0.67841
0.671797
0.664676
0.657075
0.648813
0.639254
0.629845
0.594634
0.0205354
0.0509762
0.0706506
0.0861245
0.0999965
0.11322
0.126076
0.138559
0.15051
0.161684
0.171792
0.180555
0.187821
0.19422
0.202805
0.213046
0.224315
0.236671
0.249873
0.264079
0.278633
0.296314
0.320735
0.343238
0.362774
0.382432
0.402715
0.423574
0.444872
0.466527
0.488466
0.510651
0.533039
0.555615
0.578351
0.601246
0.624288
0.647484
0.670824
0.694322
0.717975
0.741803
0.765809
0.790017
0.814436
0.839095
0.864006
0.889205
0.914712
0.94057
0.966782
0.993305
1.02014
1.0473
1.07479
1.10264
1.13083
1.15938
1.18829
1.21757
1.24722
1.27723
1.30761
1.33835
1.36944
1.40086
1.43261
1.46466
1.497
1.52958
1.56238
1.59537
1.62849
1.66169
1.69491
1.72807
1.7611
1.79388
1.8263
1.85818
1.88957
1.92057
1.95112
1.98114
2.01056
2.03929
2.06718
2.09411
2.11998
2.14464
2.16799
2.18991
2.21031
2.22911
2.24623
2.26158
2.27511
2.28678
2.29652
2.30425
2.30999
2.31342
2.3152
2.31593
2.31458
2.31147
2.30673
2.3005
2.29286
2.28395
2.27389
2.2628
2.25081
2.23804
2.22461
2.21066
2.1963
2.18164
2.16679
2.15184
2.1369
2.12205
2.10735
2.09284
2.07858
2.06459
2.05091
2.03756
2.02456
2.0119
1.99959
1.98762
1.97599
1.96469
1.95368
1.94293
1.93243
1.92212
1.91199
1.90204
1.89228
1.88265
1.87312
1.8636
1.85403
1.84436
1.83455
1.82451
1.81422
1.80362
1.79268
1.78135
1.76961
1.75743
1.7448
1.73169
1.71812
1.70407
1.68956
1.67456
1.65908
1.6431
1.62675
1.61041
1.59417
1.57748
1.56015
1.54216
1.52344
1.50398
1.48377
1.46278
1.44103
1.41846
1.3949
1.37057
1.34529
1.31957
1.29556
1.24575
0.0372732
0.078297
0.102222
0.120673
0.137029
0.152503
0.167626
0.18263
0.197594
0.212524
0.227405
0.242242
0.257111
0.2723
0.288338
0.305363
0.323426
0.342597
0.362832
0.384085
0.406456
0.430577
0.456354
0.482162
0.507768
0.533632
0.559952
0.586748
0.613973
0.641578
0.669511
0.697732
0.726206
0.754912
0.783828
0.812946
0.842255
0.871753
0.901436
0.93131
0.961379
0.991653
1.02214
1.05286
1.08382
1.11505
1.14654
1.17834
1.21045
1.24288
1.27565
1.30875
1.34221
1.37602
1.4102
1.44476
1.47971
1.51504
1.55077
1.5869
1.62342
1.66035
1.69766
1.73537
1.77345
1.8119
1.85069
1.88982
1.92925
1.96896
2.00892
2.04908
2.08941
2.12985
2.17036
2.21087
2.25132
2.29165
2.33178
2.37164
2.41116
2.45029
2.48892
2.52696
2.5643
2.6008
2.63634
2.67079
2.704
2.73583
2.76613
2.79476
2.82161
2.84654
2.86945
2.89024
2.90882
2.9251
2.93903
2.95054
2.95967
2.96637
2.97063
2.97265
2.97287
2.97082
2.96666
2.96056
2.95265
2.94308
2.93198
2.91951
2.90582
2.89107
2.87541
2.85898
2.84192
2.82439
2.80649
2.78836
2.77011
2.75184
2.73361
2.71551
2.69759
2.67988
2.66245
2.6453
2.62847
2.61195
2.59576
2.57989
2.56434
2.54907
2.53409
2.51934
2.50481
2.49046
2.47627
2.46224
2.44834
2.43454
2.42076
2.40696
2.39305
2.37899
2.3647
2.35014
2.33522
2.31992
2.30417
2.28794
2.27118
2.25387
2.23598
2.21751
2.19844
2.17877
2.1585
2.13763
2.11615
2.09406
2.07138
2.04836
2.02492
2.00086
1.97608
1.95055
1.92424
1.89714
1.86926
1.8406
1.81119
1.78104
1.75016
1.71874
1.68683
1.65521
1.6252
1.58122
0.0549303
0.104652
0.133148
0.154778
0.173693
0.191456
0.208824
0.2262
0.243804
0.261756
0.280114
0.298916
0.318208
0.338082
0.358661
0.380049
0.402341
0.425609
0.449867
0.475117
0.501439
0.528886
0.557331
0.586413
0.615953
0.645955
0.676432
0.707377
0.738757
0.770536
0.802672
0.835133
0.867887
0.900915
0.934196
0.967718
1.00147
1.03545
1.06965
1.10407
1.13872
1.1736
1.20873
1.2441
1.27975
1.31567
1.35188
1.3884
1.42524
1.46242
1.49994
1.53782
1.57606
1.61469
1.6537
1.69312
1.73294
1.77318
1.81384
1.85492
1.89642
1.93836
1.98071
2.02349
2.06668
2.11027
2.15426
2.19861
2.24332
2.28836
2.33369
2.3793
2.42513
2.47116
2.51732
2.56358
2.60987
2.65613
2.70229
2.74827
2.79398
2.83934
2.88424
2.92856
2.97218
3.01495
3.05675
3.0974
3.13677
3.17468
3.21098
3.24549
3.27808
3.30858
3.33686
3.36279
3.38626
3.40716
3.42541
3.44095
3.45378
3.46387
3.47128
3.4759
3.47796
3.47775
3.47504
3.46999
3.46276
3.45351
3.44239
3.42957
3.41521
3.3995
3.38259
3.36466
3.34587
3.32637
3.30631
3.28583
3.26506
3.2441
3.22304
3.20199
3.18099
3.16011
3.13939
3.11888
3.09859
3.07855
3.05876
3.03921
3.01991
3.00084
2.98199
2.96331
2.9448
2.92642
2.90815
2.88998
2.87188
2.8538
2.83569
2.8175
2.79914
2.78057
2.76172
2.74254
2.72295
2.7029
2.68235
2.66125
2.63955
2.61724
2.59429
2.57067
2.54639
2.52144
2.49581
2.46949
2.44249
2.4148
2.38647
2.35762
2.3282
2.29811
2.26731
2.23577
2.20348
2.17046
2.1367
2.10224
2.06713
2.03143
1.99523
1.95877
1.9223
1.8868
1.85313
1.81211
0.0722575
0.129658
0.162579
0.187378
0.208828
0.228771
0.248144
0.267471
0.287065
0.307118
0.327743
0.349012
0.37097
0.393664
0.417142
0.441463
0.466686
0.492859
0.520007
0.548148
0.577283
0.607387
0.638384
0.670149
0.702571
0.735589
0.769157
0.803238
0.83779
0.872779
0.908168
0.943929
0.980036
1.01647
1.0532
1.09023
1.12753
1.1651
1.20294
1.24104
1.27941
1.31804
1.35695
1.39613
1.43561
1.47538
1.51547
1.55589
1.59664
1.63774
1.67921
1.72106
1.76329
1.80593
1.84898
1.89245
1.93636
1.98071
2.02551
2.07077
2.11648
2.16266
2.20931
2.25642
2.30398
2.352
2.40047
2.44937
2.49868
2.54839
2.59847
2.6489
2.69965
2.75067
2.80194
2.85339
2.90498
2.95663
3.00829
3.05986
3.11126
3.16239
3.21314
3.26338
3.31298
3.36179
3.40966
3.45642
3.5019
3.54593
3.58831
3.62886
3.6674
3.70377
3.73777
3.76926
3.7981
3.82415
3.84731
3.86749
3.88466
3.89878
3.90985
3.91793
3.92289
3.92499
3.92442
3.92113
3.91526
3.90699
3.89648
3.8839
3.86944
3.85328
3.83561
3.8166
3.79646
3.77533
3.7534
3.7308
3.70769
3.68419
3.66041
3.63645
3.61239
3.58829
3.56423
3.54023
3.51633
3.49257
3.46894
3.44547
3.42214
3.39895
3.37588
3.35291
3.33003
3.30721
3.28443
3.26167
3.23891
3.2161
3.1932
3.17014
3.14687
3.12334
3.09948
3.07524
3.05056
3.02539
2.99967
2.97338
2.94646
2.91889
2.89066
2.86173
2.83211
2.80178
2.77075
2.73903
2.70662
2.67354
2.63983
2.60556
2.5707
2.53522
2.49907
2.46226
2.42478
2.38666
2.34792
2.3086
2.26877
2.22854
2.18805
2.14758
2.10752
2.06884
2.03209
1.99153
0.0885235
0.152437
0.189392
0.217151
0.240967
0.262907
0.28404
0.304983
0.326125
0.347716
0.369921
0.392849
0.41657
0.441136
0.466587
0.492962
0.520291
0.5486
0.577901
0.608191
0.639451
0.67165
0.704729
0.73862
0.773248
0.808553
0.844478
0.88098
0.918016
0.95555
0.993548
1.03198
1.07082
1.11005
1.14964
1.18958
1.22986
1.27045
1.31137
1.35259
1.39413
1.43597
1.47813
1.5206
1.56339
1.60652
1.64999
1.69381
1.73799
1.78256
1.82751
1.87287
1.91865
1.96486
2.01151
2.05861
2.10618
2.15423
2.20277
2.25181
2.30135
2.35139
2.40195
2.45303
2.50462
2.55672
2.60934
2.66245
2.71605
2.77013
2.82468
2.87966
2.93505
2.99082
3.04694
3.10335
3.16002
3.21687
3.27384
3.33084
3.38779
3.44459
3.50112
3.55726
3.61287
3.66778
3.72185
3.77488
3.82671
3.87711
3.92591
3.97287
4.01781
4.0605
4.10074
4.13836
4.17316
4.20499
4.23371
4.2592
4.28138
4.3002
4.31563
4.32768
4.33638
4.34164
4.34371
4.34277
4.33885
4.33209
4.32269
4.31081
4.29665
4.2804
4.26228
4.24247
4.22118
4.19859
4.17489
4.15026
4.12483
4.09877
4.07219
4.04522
4.01794
3.99044
3.9628
3.93505
3.90726
3.87945
3.85164
3.82384
3.79607
3.76832
3.74058
3.71284
3.68509
3.65731
3.62949
3.6016
3.57363
3.54553
3.51726
3.48878
3.46005
3.431
3.4016
3.37179
3.34152
3.31074
3.27941
3.2475
3.21496
3.18178
3.14793
3.11341
3.07821
3.04233
3.00581
2.96864
2.93085
2.89248
2.85355
2.81411
2.77416
2.73369
2.69266
2.6511
2.60899
2.56638
2.52328
2.47977
2.43592
2.39186
2.34779
2.30401
2.26095
2.21956
2.18011
2.13876
0.103187
0.172416
0.212878
0.243271
0.269221
0.292962
0.31566
0.338003
0.360432
0.383249
0.406659
0.430807
0.455791
0.481678
0.508514
0.536333
0.565155
0.594993
0.625846
0.657701
0.690534
0.724312
0.758987
0.794509
0.830822
0.867874
0.905615
0.944001
0.982992
1.02255
1.06265
1.10325
1.14433
1.18587
1.22784
1.27023
1.31301
1.35619
1.39974
1.44366
1.48795
1.53259
1.5776
1.62297
1.66871
1.71482
1.76132
1.80821
1.8555
1.9032
1.95133
1.99991
2.04893
2.09843
2.14841
2.19888
2.24987
2.30137
2.35341
2.40599
2.45912
2.51282
2.56708
2.62191
2.67733
2.73332
2.78989
2.84704
2.90476
2.96304
3.02188
3.08124
3.14113
3.2015
3.26233
3.32358
3.3852
3.44713
3.50932
3.57168
3.63414
3.69658
3.75891
3.82098
3.88267
3.94381
4.00422
4.06373
4.12213
4.17922
4.23475
4.2885
4.34024
4.38972
4.43672
4.48099
4.52232
4.56052
4.59541
4.62684
4.65467
4.67884
4.69926
4.71592
4.72882
4.738
4.7434
4.7453
4.74382
4.73907
4.73122
4.72044
4.70694
4.69092
4.6726
4.65221
4.62994
4.60601
4.58063
4.55398
4.52623
4.49755
4.46809
4.43797
4.40731
4.3762
4.34473
4.31297
4.28097
4.24878
4.21642
4.18392
4.1513
4.11855
4.08569
4.0527
4.01958
3.98634
3.95294
3.91939
3.88566
3.85172
3.81755
3.7831
3.74835
3.71326
3.67779
3.64189
3.60553
3.56867
3.53127
3.4933
3.45474
3.41557
3.37578
3.33539
3.29438
3.2528
3.21066
3.168
3.12485
3.08125
3.03723
2.99284
2.94808
2.90294
2.85743
2.81153
2.76527
2.71866
2.67175
2.62461
2.57731
2.53002
2.48293
2.43637
2.39079
2.34703
2.30518
2.26251
0.115935
0.189346
0.232746
0.265399
0.293217
0.31856
0.342656
0.366239
0.389788
0.413639
0.438027
0.463124
0.489051
0.515893
0.543706
0.572528
0.602378
0.633266
0.665187
0.698128
0.732063
0.766963
0.802788
0.839499
0.877049
0.915396
0.954497
0.994314
1.03481
1.07595
1.1177
1.16004
1.20293
1.24636
1.2903
1.33473
1.37964
1.425
1.47082
1.51707
1.56376
1.61087
1.6584
1.70636
1.75474
1.80355
1.8528
1.90249
1.95263
2.00324
2.05432
2.1059
2.15797
2.21056
2.26368
2.31735
2.37157
2.42637
2.48175
2.53772
2.5943
2.65151
2.70933
2.7678
2.8269
2.88665
2.94705
3.00811
3.06981
3.13217
3.19516
3.25879
3.32303
3.38787
3.45328
3.51923
3.58568
3.65259
3.71989
3.78752
3.85539
3.92342
3.9915
4.05949
4.12727
4.19467
4.26152
4.32761
4.39275
4.45669
4.5192
4.58002
4.63888
4.69552
4.74965
4.80102
4.84936
4.89444
4.93603
4.97393
5.00798
5.03805
5.06403
5.08587
5.10355
5.11706
5.12647
5.13174
5.13319
5.1309
5.12502
5.11573
5.10324
5.08775
5.0695
5.04873
5.02567
5.00054
4.97357
4.94496
4.91491
4.88359
4.85118
4.81783
4.78366
4.74878
4.7133
4.6773
4.64084
4.60399
4.56678
4.52924
4.49141
4.45329
4.41491
4.37625
4.33734
4.29817
4.25874
4.21904
4.17907
4.1388
4.09822
4.05731
4.01605
3.97442
3.93238
3.88992
3.847
3.8036
3.7597
3.71528
3.67033
3.62485
3.57885
3.53234
3.48536
3.43794
3.39011
3.34194
3.29346
3.24472
3.19576
3.14661
3.0973
3.04783
2.99817
2.94835
2.89836
2.84823
2.79799
2.74772
2.6975
2.64748
2.59787
2.54901
2.50131
2.4555
2.41152
2.36739
0.126643
0.203227
0.249004
0.283539
0.312948
0.339683
0.365008
0.389684
0.414213
0.438949
0.464147
0.489997
0.516637
0.544165
0.57265
0.602138
0.632655
0.664212
0.696809
0.730437
0.765075
0.8007
0.837279
0.874782
0.913171
0.952414
0.992473
1.03332
1.07491
1.11723
1.16024
1.20392
1.24824
1.29317
1.33871
1.38481
1.43148
1.47869
1.52644
1.5747
1.62347
1.67274
1.72252
1.77278
1.82355
1.87481
1.92658
1.97885
2.03164
2.08496
2.13882
2.19323
2.24819
2.30374
2.35987
2.4166
2.47395
2.53193
2.59054
2.64982
2.70975
2.77037
2.83167
2.89367
2.95637
3.01978
3.08391
3.14877
3.21435
3.28065
3.34768
3.41543
3.48389
3.55304
3.62288
3.69338
3.7645
3.8362
3.90845
3.98117
4.0543
4.12776
4.20144
4.27523
4.34899
4.42256
4.49577
4.56842
4.64028
4.71113
4.78069
4.8487
4.91485
4.97885
5.04038
5.09914
5.15483
5.20715
5.25583
5.30064
5.34136
5.37781
5.40984
5.43736
5.4603
5.47865
5.49243
5.50167
5.5065
5.50712
5.50364
5.49624
5.4851
5.47046
5.45257
5.43168
5.40803
5.38188
5.35347
5.32301
5.29074
5.25683
5.22149
5.18488
5.14715
5.10842
5.06882
5.02844
4.98736
4.94565
4.90336
4.86055
4.81724
4.77346
4.72924
4.68459
4.63953
4.59407
4.54822
4.50198
4.45535
4.40834
4.36093
4.31312
4.26492
4.2163
4.16728
4.11782
4.06793
4.01761
3.96684
3.91564
3.864
3.81195
3.75951
3.70672
3.65362
3.60027
3.54673
3.49306
3.43931
3.38554
3.3318
3.27812
3.22452
3.17101
3.11757
3.06421
3.01091
2.95769
2.90459
2.85166
2.799
2.74673
2.69508
2.64433
2.59489
2.54736
2.50158
2.45606
0.135308
0.214206
0.261846
0.297899
0.328622
0.356528
0.382901
0.408514
0.43388
0.459359
0.485217
0.511654
0.538818
0.566819
0.595737
0.625625
0.656519
0.688439
0.721391
0.755374
0.790376
0.826381
0.863367
0.901309
0.940182
0.979959
1.02061
1.06212
1.10445
1.14758
1.19149
1.23614
1.28153
1.32762
1.37439
1.42184
1.46994
1.51868
1.56803
1.618
1.66857
1.71974
1.77149
1.82382
1.87674
1.93024
1.98433
2.03901
2.09428
2.15016
2.20665
2.26376
2.32151
2.37991
2.43896
2.49868
2.55908
2.62017
2.68196
2.74447
2.80771
2.87168
2.93639
3.00186
3.06809
3.13509
3.20287
3.27143
3.34078
3.41091
3.48184
3.55357
3.62608
3.69937
3.77343
3.84825
3.92381
4.00007
4.077
4.15455
4.23266
4.31127
4.39027
4.46956
4.54903
4.62851
4.70785
4.78683
4.86524
4.94283
5.01933
5.09445
5.16786
5.23924
5.30823
5.3745
5.43769
5.49747
5.55351
5.60552
5.65323
5.69641
5.73488
5.76848
5.79711
5.82073
5.83931
5.85291
5.86161
5.86557
5.8649
5.85978
5.85037
5.83693
5.81971
5.79899
5.77503
5.74809
5.71844
5.68632
5.65196
5.61559
5.57741
5.53761
5.49635
5.45378
5.41004
5.36523
5.31945
5.27279
5.22531
5.17706
5.12811
5.07848
5.02821
4.97733
4.92587
4.87384
4.82127
4.76818
4.71458
4.66048
4.60591
4.55086
4.49536
4.43942
4.38305
4.32627
4.2691
4.21154
4.15363
4.09538
4.03682
3.978
3.91897
3.85977
3.80048
3.74117
3.68191
3.62279
3.56386
3.5052
3.44686
3.38888
3.33128
3.27404
3.21717
3.16064
3.10444
3.04857
2.99306
2.93794
2.88329
2.82924
2.77598
2.72377
2.67296
2.62405
2.5768
2.53014
0.142007
0.222506
0.271554
0.308788
0.340557
0.369407
0.396634
0.423014
0.449059
0.475133
0.501502
0.528371
0.555893
0.584186
0.613336
0.643409
0.674447
0.70648
0.739523
0.773585
0.808666
0.844756
0.881845
0.919918
0.958959
0.99895
1.03987
1.08171
1.12444
1.16805
1.21252
1.25783
1.30395
1.35088
1.39858
1.44706
1.49629
1.54625
1.59695
1.64835
1.70047
1.75328
1.80678
1.86097
1.91584
1.9714
2.02764
2.08457
2.1422
2.20052
2.25955
2.31929
2.37975
2.44094
2.50286
2.56553
2.62895
2.69313
2.75808
2.82381
2.89032
2.95762
3.02572
3.09463
3.16434
3.23487
3.30623
3.3784
3.45141
3.52526
3.59994
3.67547
3.75183
3.82903
3.90707
3.98594
4.06563
4.14611
4.22736
4.30935
4.39203
4.47535
4.55923
4.64358
4.7283
4.81323
4.89824
4.98312
5.06765
5.1516
5.23469
5.31661
5.39702
5.47557
5.55187
5.62555
5.69621
5.76346
5.82692
5.88626
5.94114
5.99129
6.03645
6.07643
6.11109
6.14033
6.16411
6.18244
6.1954
6.2031
6.20567
6.20327
6.19598
6.1841
6.1679
6.14768
6.1237
6.09627
6.06565
6.03211
5.9959
5.95726
5.91641
5.87356
5.82889
5.78258
5.73476
5.68557
5.63512
5.5835
5.5308
5.47708
5.42241
5.36684
5.31041
5.25316
5.19514
5.13637
5.0769
5.01676
4.95597
4.89457
4.83258
4.77005
4.70701
4.64349
4.57954
4.5152
4.45051
4.38551
4.32025
4.25478
4.18916
4.12345
4.05772
3.99205
3.92654
3.86128
3.79636
3.73187
3.6679
3.60452
3.54179
3.47975
3.41841
3.35778
3.29782
3.23851
3.17982
3.12173
3.06424
3.00738
2.9512
2.89582
2.84138
2.78812
2.73632
2.6864
2.63806
2.59056
0.146853
0.228375
0.278434
0.316545
0.349102
0.378672
0.406551
0.433515
0.460072
0.486582
0.51331
0.540459
0.568185
0.596611
0.625828
0.655906
0.686898
0.718843
0.751766
0.785683
0.820604
0.856534
0.893472
0.931416
0.970355
1.01028
1.05119
1.09307
1.13591
1.17971
1.22446
1.27013
1.31671
1.36418
1.41255
1.46179
1.51189
1.56283
1.61461
1.66723
1.72067
1.77492
1.82998
1.88585
1.94253
2.00001
2.05829
2.11738
2.17728
2.23798
2.2995
2.36183
2.42498
2.48895
2.55375
2.61937
2.68583
2.75312
2.82124
2.89021
2.96001
3.03066
3.10215
3.17448
3.24766
3.32169
3.39655
3.47227
3.54884
3.62625
3.70452
3.78365
3.86363
3.94447
4.02618
4.10874
4.19215
4.27642
4.36151
4.44742
4.53412
4.62156
4.7097
4.79846
4.88775
4.97747
5.06746
5.15755
5.24755
5.3372
5.42626
5.5144
5.60127
5.68652
5.76972
5.85045
5.9283
6.00281
6.07357
6.14017
6.20222
6.25939
6.31138
6.35792
6.39884
6.43397
6.46326
6.48667
6.50425
6.51608
6.5223
6.52297
6.51829
6.50835
6.49355
6.47419
6.45056
6.42296
6.39169
6.35703
6.31925
6.2786
6.23533
6.18966
6.14179
6.09191
6.04018
5.98674
5.93173
5.87525
5.8174
5.75826
5.6979
5.6364
5.5738
5.51016
5.44553
5.37997
5.31352
5.24623
5.17814
5.10932
5.0398
4.96966
4.89894
4.82771
4.75604
4.68401
4.61167
4.53911
4.46639
4.39361
4.32085
4.2482
4.17575
4.10362
4.03192
3.96077
3.89028
3.82056
3.75171
3.68381
3.61693
3.5511
3.48634
3.42264
3.35996
3.29826
3.23748
3.17759
3.11857
3.06042
3.00317
2.9469
2.89172
2.83782
2.78543
2.73489
2.68584
2.6379
0.150031
0.232064
0.282786
0.321498
0.3546
0.384669
0.412999
0.440359
0.467253
0.494035
0.520966
0.548249
0.576039
0.60446
0.633607
0.66355
0.694346
0.726039
0.758665
0.792253
0.826825
0.862401
0.898995
0.936623
0.975256
1.0149
1.05557
1.09727
1.13999
1.18375
1.22853
1.27433
1.32114
1.36896
1.41778
1.46759
1.51837
1.5701
1.62277
1.67642
1.73103
1.78659
1.84308
1.90053
1.95891
2.01824
2.07851
2.13972
2.20187
2.26496
2.32898
2.39393
2.45981
2.52662
2.59435
2.663
2.73256
2.80303
2.8744
2.94666
3.01982
3.09385
3.16876
3.24454
3.32117
3.39865
3.47698
3.55615
3.63615
3.71698
3.79864
3.88113
3.96444
4.04858
4.13356
4.21937
4.30602
4.39352
4.48185
4.57101
4.661
4.75179
4.84336
4.93567
5.02864
5.1222
5.21622
5.31057
5.40506
5.49949
5.59359
5.68706
5.77957
5.87073
5.96011
6.04728
6.13176
6.21307
6.29075
6.36433
6.43336
6.49745
6.55623
6.6094
6.65669
6.69791
6.73294
6.7617
6.78421
6.80051
6.81071
6.81491
6.81325
6.80571
6.79271
6.7746
6.75171
6.72433
6.69278
6.65736
6.61835
6.57603
6.53065
6.48246
6.43167
6.37848
6.32308
6.26563
6.20626
6.14511
6.08227
6.01786
5.95195
5.88462
5.81594
5.74599
5.67482
5.60251
5.52911
5.45469
5.37932
5.30307
5.22601
5.14823
5.06981
4.99084
4.91142
4.83165
4.75164
4.6715
4.59132
4.51123
4.43134
4.35177
4.27267
4.19415
4.11635
4.03943
3.96353
3.88877
3.81525
3.74307
3.6723
3.60298
3.53512
3.46871
3.40369
3.34
3.27756
3.21631
3.15621
3.09722
3.03935
2.98263
2.92715
2.87305
2.82048
2.76972
2.7204
2.67241
0.151678
0.233827
0.284882
0.323933
0.357353
0.387709
0.416292
0.443863
0.47092
0.497813
0.5248
0.552082
0.579813
0.608115
0.637086
0.66678
0.697259
0.728579
0.760785
0.793918
0.828011
0.863098
0.89921
0.936389
0.974599
1.01386
1.05417
1.09556
1.13804
1.18162
1.2263
1.27208
1.31898
1.36699
1.41611
1.46634
1.51768
1.57011
1.62362
1.67827
1.73402
1.79083
1.84872
1.90771
1.96781
2.02901
2.0913
2.15469
2.21917
2.28473
2.35136
2.41904
2.48778
2.55755
2.62834
2.70013
2.77292
2.84668
2.92141
2.99707
3.07365
3.15114
3.22951
3.30874
3.38882
3.46972
3.55143
3.63392
3.7172
3.80123
3.88602
3.97155
4.05783
4.14484
4.23259
4.3211
4.41035
4.50037
4.59117
4.68274
4.77511
4.86827
4.96223
5.05697
5.15247
5.24867
5.34549
5.44284
5.54056
5.63848
5.73637
5.83396
5.93093
6.0269
6.12144
6.21409
6.30437
6.39174
6.4757
6.55573
6.63133
6.70204
6.76742
6.8271
6.88076
6.92814
6.96906
7.00339
7.03109
7.05217
7.06671
7.07487
7.07652
7.07197
7.06118
7.04476
7.02303
6.99629
6.96488
6.92911
6.88928
6.84568
6.79858
6.74823
6.69488
6.63873
6.57999
6.51882
6.45539
6.38983
6.32228
6.25282
6.18158
6.10864
6.03408
5.95798
5.88044
5.80152
5.72131
5.63988
5.55734
5.47377
5.38926
5.30393
5.21789
5.13126
5.04416
4.95674
4.86913
4.78148
4.69392
4.60661
4.51969
4.43333
4.3477
4.26294
4.17922
4.09672
4.0156
3.93592
3.85788
3.7816
3.70716
3.63462
3.56398
3.49522
3.42826
3.36301
3.29938
3.23727
3.17659
3.11728
3.0593
3.00266
2.94739
2.89357
2.84131
2.79082
2.7417
2.69416
0.151609
0.233623
0.28477
0.323992
0.357558
0.388027
0.416689
0.444303
0.471365
0.498224
0.525133
0.55229
0.579849
0.60794
0.636677
0.666081
0.696226
0.72717
0.758965
0.791658
0.825286
0.859887
0.89549
0.932109
0.969765
1.0085
1.04836
1.08935
1.1315
1.17484
1.21939
1.26515
1.31215
1.36039
1.4099
1.46066
1.51267
1.56593
1.6204
1.67611
1.73305
1.79122
1.85061
1.91128
1.97323
2.03646
2.10096
2.16672
2.23372
2.30196
2.3714
2.44204
2.51383
2.58677
2.66081
2.73594
2.81212
2.88932
2.96752
3.04668
3.12676
3.20774
3.28958
3.37223
3.45568
3.53988
3.6248
3.71042
3.79669
3.88361
3.97114
4.05927
4.14798
4.23728
4.32715
4.41761
4.50865
4.6003
4.69258
4.78551
4.87911
4.97342
5.06846
5.16427
5.26084
5.35819
5.45628
5.55506
5.65441
5.75422
5.85431
5.95446
6.05438
6.15371
6.25204
6.34891
6.4438
6.53619
6.62551
6.7112
6.7927
6.86951
6.9411
7.00704
7.06693
7.12044
7.16731
7.20736
7.24046
7.2666
7.28578
7.29814
7.30373
7.30256
7.29459
7.28031
7.26019
7.23457
7.20378
7.16812
7.12794
7.08351
7.03514
6.98308
6.92759
6.86889
6.8072
6.74271
6.67558
6.60597
6.53403
6.45986
6.38359
6.30532
6.22516
6.14319
6.05952
5.97424
5.88744
5.79924
5.70973
5.61904
5.52728
5.4346
5.34112
5.247
5.1524
5.05749
4.96247
4.86749
4.77273
4.67839
4.58464
4.49163
4.3995
4.30854
4.21896
4.131
4.04481
3.96082
3.87891
3.79917
3.72171
3.64655
3.57372
3.50316
3.43479
3.3685
3.30416
3.24163
3.18081
3.1216
3.06392
3.00773
2.95303
2.89985
2.84825
2.7984
2.74986
2.70315
0.150861
0.232396
0.283416
0.322518
0.355973
0.38633
0.414874
0.442363
0.469287
0.49599
0.522721
0.549671
0.576986
0.604778
0.633128
0.662109
0.691794
0.72225
0.753534
0.785699
0.818796
0.852871
0.887972
0.924148
0.96143
0.999857
1.03947
1.08029
1.12235
1.1657
1.21035
1.25635
1.30371
1.35245
1.40262
1.45423
1.50723
1.56162
1.61742
1.67463
1.73324
1.79323
1.85458
1.91738
1.98163
2.04733
2.11445
2.183
2.25297
2.32432
2.39701
2.47099
2.54622
2.62267
2.70028
2.77902
2.85883
2.93968
3.0215
3.10426
3.18789
3.27236
3.3576
3.44356
3.5302
3.61746
3.70529
3.79365
3.88248
3.97176
4.06144
4.1515
4.2419
4.33265
4.42373
4.51513
4.60688
4.69899
4.79149
4.88441
4.97781
5.07173
5.16626
5.26144
5.35733
5.454
5.55149
5.6498
5.74887
5.84863
5.949
6.04983
6.15086
6.2518
6.35225
6.45177
6.54986
6.64596
6.73949
6.82985
6.91645
6.99869
7.07601
7.14788
7.21382
7.27343
7.32633
7.37226
7.41102
7.44251
7.46673
7.48374
7.49377
7.49633
7.49189
7.48026
7.46229
7.43829
7.4086
7.37356
7.33349
7.28871
7.23951
7.18617
7.12896
7.06812
7.00387
6.93641
6.86593
6.7926
6.71657
6.63798
6.55696
6.47363
6.3881
6.30049
6.21091
6.11947
6.02628
5.93148
5.8352
5.73756
5.63873
5.53886
5.43812
5.33668
5.23475
5.13253
5.03017
4.92786
4.82587
4.72449
4.62392
4.52459
4.42665
4.33022
4.23554
4.14289
4.05241
3.96459
3.87904
3.7961
3.71589
3.63846
3.5638
3.49185
3.42251
3.35563
3.29106
3.22864
3.1682
3.10962
3.05277
2.99757
2.94397
2.89197
2.84155
2.79282
2.74536
2.69998
0.149085
0.229693
0.280177
0.318932
0.35209
0.382168
0.410444
0.437668
0.464329
0.490767
0.517228
0.5439
0.570928
0.59843
0.626503
0.65524
0.684706
0.714964
0.746076
0.778102
0.811093
0.845104
0.88019
0.916407
0.953808
0.992451
1.0324
1.07366
1.11625
1.16025
1.20568
1.25259
1.30101
1.35097
1.40248
1.45553
1.51008
1.56618
1.62386
1.68314
1.74402
1.80653
1.87066
1.9364
2.00374
2.07266
2.14315
2.21515
2.28864
2.36356
2.43986
2.51748
2.59636
2.67644
2.75767
2.83998
2.9233
3.00757
3.09273
3.17871
3.26544
3.35285
3.44088
3.52946
3.61853
3.708
3.79783
3.88794
3.97829
4.0688
4.15945
4.25018
4.34096
4.43177
4.5226
4.61344
4.70431
4.79523
4.88623
4.97738
5.06872
5.16035
5.25237
5.3449
5.438
5.53183
5.62655
5.72218
5.81874
5.91614
6.0143
6.11328
6.21297
6.31312
6.41344
6.5135
6.61285
6.71092
6.80714
6.90086
6.99146
7.07829
7.16071
7.23808
7.30983
7.37541
7.43421
7.48597
7.53045
7.56748
7.59698
7.61896
7.63354
7.64068
7.64018
7.63201
7.61674
7.59496
7.56699
7.53318
7.49386
7.44936
7.39998
7.34601
7.28771
7.22535
7.15916
7.08934
7.01611
6.93965
6.86011
6.77765
6.69243
6.60457
6.5142
6.42146
6.32648
6.22939
6.13031
6.0294
5.92682
5.82272
5.71727
5.61061
5.50293
5.39447