/*--------------------------------*- C++ -*----------------------------------*\
  =========                 |
  \\      /  F ield         | OpenFOAM: The Open Source CFD Toolbox
   \\    /   O peration     | Website:  https://openfoam.org
    \\  /    A nd           | Version:  8
     \\/     M anipulation  |
\*---------------------------------------------------------------------------*/
FoamFile
{
    version     2.0;
    format      ascii;
    class       volScalarField;
    location    "125";
    object      nut;
}
// * * * * * * * * * * * * * * * * * * * * * * * * * * * * * * * * * * * * * //

dimensions      [0 2 -1 0 0 0 0];

internalField   nonuniform List<scalar> 
12225
(
4.14971e-05
3.93427e-05
3.7482e-05
3.54352e-05
3.37802e-05
3.24265e-05
3.15015e-05
3.09143e-05
3.09182e-05
3.1099e-05
3.15685e-05
3.21141e-05
3.31526e-05
3.38283e-05
3.51203e-05
3.56976e-05
3.76702e-05
3.56427e-05
0.000332402
0.000215156
0.000179322
0.000157622
0.000146257
0.000138148
0.000132679
0.000131758
0.000129386
0.000130203
0.000128908
0.000129594
0.000128524
0.000128712
0.000127951
0.000127587
0.000127531
0.000126318
0.000675176
0.000450651
0.000355905
0.000309695
0.000275412
0.000250952
0.00023181
0.000217135
0.00020265
0.000192117
0.000182558
0.000175158
0.000169317
0.000163543
0.000160247
0.000155314
0.000153693
0.000149477
0.000833792
0.000684707
0.000572195
0.000499776
0.000449631
0.000411765
0.000380915
0.000355818
0.00033411
0.000314563
0.000298418
0.00028143
0.000270306
0.000255812
0.000248065
0.000235825
0.00022995
0.000219777
0.000861319
0.000802501
0.00074227
0.00067639
0.000624159
0.000581201
0.000545998
0.000514383
0.000489613
0.00046424
0.000445897
0.000423861
0.000409854
0.00039056
0.000379619
0.000362755
0.000353893
0.000338693
0.000854996
0.000840351
0.000822261
0.000786387
0.000750977
0.000715786
0.000685846
0.000656014
0.000632595
0.000607392
0.000588981
0.000567101
0.000552166
0.000532891
0.00052051
0.000503381
0.000492763
0.00047677
0.000852913
0.000850687
0.000844247
0.000832824
0.000817453
0.000796944
0.000777925
0.000756674
0.00073891
0.000719076
0.000703497
0.000685524
0.000672016
0.00065576
0.000644087
0.000629237
0.000619097
0.000604606
0.000851926
0.00085181
0.000850179
0.000847387
0.000841461
0.000833723
0.0008249
0.000813389
0.000802805
0.000790436
0.000779683
0.00076748
0.000757348
0.00074567
0.000736388
0.00072532
0.000716876
0.000705671
0.000851753
0.000851539
0.000851038
0.000850335
0.000848882
0.000846165
0.000843036
0.000838294
0.000833396
0.000827345
0.000821193
0.00081474
0.000808362
0.00080146
0.000795149
0.000788293
0.000782003
0.000775022
0.000851771
0.000851388
0.000851047
0.000850631
0.000850248
0.000849366
0.000848405
0.000846777
0.000844952
0.000842523
0.000839912
0.000836782
0.00083377
0.000830117
0.000826924
0.000822861
0.000819817
0.000815173
0.000851787
0.000851358
0.000851012
0.000850613
0.000850329
0.000849904
0.000849525
0.000848927
0.000848301
0.000847389
0.00084646
0.000845168
0.000843979
0.000842335
0.000840976
0.000839002
0.000837606
0.000835315
0.000851789
0.000851359
0.000850996
0.000850605
0.000850292
0.000849938
0.000849645
0.000849279
0.000848953
0.000848502
0.000848096
0.000847503
0.000846992
0.000846236
0.000845632
0.000844708
0.000844045
0.00084296
0.000851786
0.000851363
0.000850986
0.000850604
0.000850269
0.000849926
0.000849629
0.000849312
0.000849041
0.000848727
0.00084846
0.000848124
0.000847841
0.000847462
0.000847153
0.000846722
0.000846384
0.0008459
0.000851783
0.000851364
0.000850978
0.000850602
0.000850256
0.000849916
0.000849607
0.000849299
0.000849022
0.00084874
0.000848487
0.000848223
0.000847987
0.000847734
0.000847508
0.000847258
0.000847035
0.000846787
0.000851781
0.000851364
0.000850973
0.000850598
0.000850246
0.000849908
0.000849591
0.000849286
0.000849
0.000848723
0.000848463
0.000848211
0.000847975
0.000847746
0.000847529
0.000847319
0.000847119
0.000846925
0.00085178
0.000851363
0.000850969
0.000850594
0.000850239
0.000849901
0.00084958
0.000849274
0.000848984
0.000848707
0.000848444
0.000848192
0.000847952
0.000847723
0.000847505
0.000847297
0.000847098
0.000846908
0.000851779
0.000851362
0.000850967
0.000850591
0.000850234
0.000849895
0.000849572
0.000849265
0.000848973
0.000848695
0.000848429
0.000848176
0.000847935
0.000847704
0.000847484
0.000847274
0.000847073
0.000846881
0.000851779
0.000851362
0.000850965
0.000850588
0.000850231
0.000849891
0.000849567
0.000849259
0.000848966
0.000848686
0.000848419
0.000848165
0.000847922
0.00084769
0.000847468
0.000847256
0.000847053
0.00084686
0.000851779
0.000851362
0.000850965
0.000850588
0.00085023
0.000849889
0.000849565
0.000849257
0.000848963
0.000848682
0.000848415
0.000848159
0.000847915
0.000847682
0.000847459
0.000847246
0.000847042
0.000846847
0.000851779
0.000851362
0.000850966
0.000850589
0.000850231
0.000849892
0.000849568
0.00084926
0.000848966
0.000848686
0.000848418
0.000848163
0.000847918
0.000847685
0.000847461
0.000847248
0.000847042
0.000846846
0.000851779
0.000851363
0.000850967
0.000850592
0.000850235
0.000849897
0.000849573
0.000849267
0.000848973
0.000848694
0.000848425
0.000848169
0.00084792
0.000847684
0.000847452
0.000847231
0.000847013
0.000846806
0.000851778
0.000851366
0.000850968
0.000850599
0.00085024
0.000849908
0.00084958
0.000849274
0.000848965
0.000848672
0.000848365
0.000848072
0.000847757
0.000847456
0.000847123
0.000846811
0.000846456
0.000846135
0.000851777
0.000851374
0.000850971
0.000850615
0.000850241
0.00084989
0.000849478
0.000849054
0.00084853
0.000847978
0.000847301
0.000846604
0.000845766
0.000844939
0.000843953
0.000843028
0.000841915
0.000840936
0.000851802
0.00085141
0.00085097
0.000850549
0.000849861
0.000848967
0.000847607
0.00084598
0.000843903
0.000841635
0.000838954
0.000836213
0.000833115
0.000830111
0.000826759
0.000823675
0.000820177
0.000817168
0.000852138
0.000851403
0.000850234
0.000848252
0.000844472
0.000839356
0.000832712
0.000825763
0.000817914
0.00081
0.000801614
0.000793625
0.000785328
0.000777701
0.000769735
0.000762689
0.000755108
0.000748775
0.000854143
0.000847718
0.000840126
0.000827122
0.000808708
0.000789647
0.000769973
0.000751417
0.000733304
0.000716894
0.000700931
0.000686777
0.000672824
0.000660662
0.000648366
0.000637924
0.000626932
0.000617993
0.000854971
0.000818336
0.000776231
0.000726635
0.00068494
0.000649858
0.000618462
0.000592022
0.000568382
0.00054831
0.000529686
0.000513988
0.000498742
0.000486007
0.000473188
0.00046269
0.000451599
0.000442777
0.000807488
0.000666878
0.000570554
0.000509855
0.000465651
0.000431194
0.000404135
0.0003825
0.000364195
0.000349065
0.000335938
0.000325074
0.000314474
0.00030624
0.000297952
0.000291354
0.000284264
0.00027891
0.000501854
0.000348404
0.000292691
0.000259174
0.000236323
0.000221177
0.000211544
0.000204015
0.00019848
0.000195058
0.000192217
0.000190365
0.000188581
0.000187436
0.000186162
0.00018547
0.000184552
0.000184139
7.27285e-05
7.0223e-05
6.79539e-05
6.56136e-05
6.33827e-05
6.12764e-05
5.94929e-05
5.79571e-05
5.67102e-05
5.57028e-05
5.49773e-05
5.44182e-05
5.41083e-05
5.38871e-05
5.38762e-05
5.39623e-05
5.40721e-05
5.43233e-05
2.35618e-06
3.56461e-05
5.6208e-05
7.50908e-05
9.34429e-05
0.000111316
0.000128648
0.000145222
0.000160487
0.000173415
0.000182373
0.000184031
0.000173038
3.32178e-05
3.18807e-05
3.31343e-05
3.49356e-05
3.84788e-05
4.28843e-05
4.54331e-05
4.40037e-05
4.51362e-05
4.87094e-05
4.94508e-05
5.09639e-05
5.24904e-05
5.40504e-05
5.56282e-05
5.71868e-05
5.87312e-05
6.02457e-05
6.17381e-05
6.31984e-05
6.46352e-05
6.60411e-05
6.74255e-05
6.87825e-05
7.01213e-05
7.14351e-05
7.27335e-05
7.40102e-05
7.52747e-05
7.65207e-05
7.77578e-05
7.898e-05
8.01966e-05
8.14016e-05
8.26042e-05
8.37983e-05
8.49917e-05
8.61763e-05
8.73564e-05
8.85256e-05
8.96923e-05
9.08511e-05
9.20084e-05
9.31583e-05
9.43068e-05
9.54486e-05
9.65887e-05
9.7722e-05
9.8853e-05
9.9977e-05
0.000101098
0.000102211
0.000103319
0.000104419
0.000105512
0.000106594
0.000107668
0.000108729
0.000109778
0.000110812
0.000111829
0.000112828
0.000113806
0.00011476
0.000115687
0.000116584
0.000117451
0.000118322
0.000119158
0.00011997
0.000120753
0.000121508
0.00012223
0.000122917
0.000123565
0.000124172
0.000124735
0.000125251
0.000125719
0.000126135
0.000126499
0.000126807
0.000127057
0.000127243
0.000127342
0.000127452
0.00012751
0.000127406
0.000127292
0.000127099
0.000126898
0.000126611
0.000126275
0.000125883
0.000125442
0.000124952
0.000124418
0.000123844
0.000123231
0.000122585
0.000121909
0.000121207
0.000120482
0.000119742
0.000118988
0.000118224
0.000117453
0.000116682
0.000115914
0.000115154
0.000114402
0.000113665
0.000112936
0.000112224
0.000111524
0.000110841
0.000110174
0.000109519
0.000108875
0.000108257
0.000107669
0.000107096
0.000106542
0.000106
0.00010547
0.000104947
0.000104438
0.000103942
0.000103458
0.000102982
0.000102513
0.000102048
0.000101584
0.000101121
0.000100655
0.000100185
9.97085e-05
9.92248e-05
9.87318e-05
9.82289e-05
9.77141e-05
9.71863e-05
9.66411e-05
9.6082e-05
9.55144e-05
9.49331e-05
9.43279e-05
9.37191e-05
9.30587e-05
9.24305e-05
9.16057e-05
9.11721e-05
9.08073e-05
9.04479e-05
9.00888e-05
8.97176e-05
8.9339e-05
8.89506e-05
8.8533e-05
8.81177e-05
8.76789e-05
8.71963e-05
8.66734e-05
8.61152e-05
8.54932e-05
8.47348e-05
8.24961e-05
6.35343e-06
6.70269e-05
0.000133493
0.000181752
0.000215822
0.000241411
0.00026155
0.000277319
0.000288307
0.000292675
0.000286974
0.000266941
0.000230489
0.000181955
0.000175394
0.000180184
0.000189623
0.000202577
0.000216918
0.00023151
0.000243518
0.00026342
0.000294783
0.000309298
0.000319247
0.000328943
0.000339425
0.000350479
0.000361923
0.000373597
0.000385393
0.000397227
0.000409047
0.000420798
0.000432433
0.0004439
0.000455228
0.000466447
0.000477552
0.000488542
0.000499422
0.000510197
0.000520878
0.000531477
0.000542011
0.000552498
0.000562959
0.000573418
0.000583907
0.000594467
0.000605106
0.000615769
0.000626473
0.000637236
0.000648071
0.000658994
0.000670016
0.00068115
0.000692407
0.000703802
0.000715342
0.000727041
0.000738905
0.000750945
0.000763164
0.000775574
0.000788176
0.000800978
0.00081398
0.000827187
0.000840596
0.000854206
0.000868006
0.000881984
0.000896106
0.000910327
0.000924551
0.000938635
0.000952333
0.000965286
0.000977674
0.00099003
0.00100231
0.00101449
0.00102656
0.00103851
0.00105025
0.00106174
0.00107292
0.00108375
0.00109418
0.00110415
0.00111362
0.00112254
0.00113086
0.00113856
0.00114561
0.001152
0.00115795
0.00116332
0.00116841
0.00117129
0.00117376
0.00117622
0.0011778
0.0011786
0.00117869
0.0011781
0.00117687
0.00117505
0.00117266
0.00116975
0.00116636
0.00116253
0.00115831
0.00115375
0.0011489
0.00114379
0.00113845
0.00113295
0.00112731
0.00112156
0.00111573
0.00110985
0.00110397
0.00109811
0.00109231
0.00108658
0.00108095
0.00107542
0.00107001
0.00106471
0.0010596
0.00105463
0.00104983
0.00104514
0.0010406
0.00103618
0.0010319
0.00102774
0.00102372
0.00101981
0.00101603
0.00101237
0.0010088
0.0010053
0.00100186
0.000998461
0.000995071
0.000991676
0.000988255
0.000984792
0.000981269
0.000977674
0.000973993
0.000970194
0.000966274
0.000962234
0.000958093
0.000953788
0.000949342
0.000944626
0.000939468
0.000932383
0.000923565
0.000914084
0.000904208
0.000894009
0.000883494
0.000872645
0.000861507
0.000850004
0.000838188
0.000826082
0.000813481
0.000800514
0.000787122
0.000773662
0.000758594
0.000720967
1.15587e-05
9.81493e-05
0.000191266
0.000263879
0.000317899
0.00035769
0.000387126
0.000408898
0.000424375
0.000433801
0.000436868
0.000433474
0.000424916
0.000415963
0.000419836
0.000432207
0.000449447
0.000469697
0.000491519
0.0005143
0.000537834
0.000564444
0.000592223
0.000616526
0.000639824
0.000663099
0.000686725
0.000710697
0.000734937
0.000759338
0.000783788
0.000808117
0.000832313
0.000856329
0.000880124
0.000903673
0.000926973
0.000950026
0.000972832
0.000995395
0.00101773
0.00103984
0.00106175
0.00108348
0.00110505
0.0011265
0.00114785
0.00116913
0.00119038
0.00121162
0.00123288
0.00125417
0.00127552
0.00129695
0.00131849
0.00134017
0.00136201
0.001384
0.00140619
0.00142859
0.00145122
0.00147409
0.00149721
0.00152061
0.00154429
0.00156826
0.00159252
0.00161707
0.00164192
0.00166705
0.00169246
0.00171813
0.00174403
0.00177011
0.00179632
0.00182259
0.00184881
0.00187486
0.00190061
0.00192594
0.00195098
0.0019759
0.00200066
0.00202522
0.0020495
0.00207345
0.00209698
0.00212002
0.00214246
0.00216424
0.00218525
0.00220539
0.00222458
0.00224273
0.00225978
0.00227564
0.00229028
0.00230368
0.00231587
0.00232673
0.00233633
0.002344
0.00234993
0.0023542
0.00235792
0.00236009
0.00236081
0.00236017
0.00235824
0.00235509
0.0023508
0.00234544
0.00233909
0.00233185
0.0023238
0.00231503
0.00230562
0.00229568
0.00228526
0.00227447
0.00226337
0.00225204
0.00224053
0.00222892
0.00221725
0.0022056
0.00219401
0.00218252
0.00217116
0.00215996
0.00214893
0.00213811
0.00212752
0.00211715
0.00210701
0.00209707
0.00208733
0.00207779
0.00206844
0.00205926
0.00205025
0.0020414
0.00203271
0.00202415
0.00201568
0.00200727
0.00199888
0.00199048
0.00198201
0.00197344
0.00196473
0.00195585
0.00194675
0.00193743
0.00192784
0.00191796
0.00190777
0.00189722
0.00188638
0.00187518
0.00186359
0.00185151
0.00183862
0.0018239
0.00180716
0.00178927
0.00177062
0.00175137
0.00173156
0.00171117
0.00169026
0.00166877
0.00164673
0.00162422
0.00160111
0.00157739
0.0015533
0.00152872
0.00150112
0.00144494
1.70379e-05
0.000123621
0.000238465
0.000329944
0.000399437
0.000451556
0.000490956
0.000521299
0.000545254
0.000564646
0.000580699
0.000594386
0.000606943
0.000620424
0.000637503
0.000658126
0.000681524
0.000707043
0.000734173
0.000762571
0.000792464
0.000824184
0.000857249
0.000890177
0.000923263
0.000956687
0.000990437
0.0010244
0.00105858
0.00109297
0.00112755
0.00116209
0.00119647
0.0012306
0.00126444
0.00129796
0.00133114
0.00136398
0.00139648
0.00142866
0.00146052
0.00149208
0.00152337
0.00155442
0.00158524
0.00161587
0.00164635
0.0016767
0.00170698
0.0017372
0.0017674
0.00179763
0.0018279
0.00185826
0.00188873
0.00191936
0.00195017
0.00198113
0.00201228
0.00204365
0.00207528
0.00210718
0.00213936
0.00217184
0.00220463
0.00223773
0.00227115
0.00230488
0.00233892
0.00237325
0.00240787
0.00244275
0.00247783
0.00251308
0.00254844
0.00258383
0.00261917
0.00265438
0.00268936
0.00272409
0.00275863
0.00279301
0.00282717
0.00286105
0.00289457
0.00292763
0.00296015
0.00299201
0.0030231
0.00305333
0.00308255
0.00311066
0.00313753
0.00316305
0.00318712
0.00320965
0.00323056
0.00324978
0.00326725
0.00328286
0.00329655
0.00330804
0.00331779
0.00332513
0.00333049
0.0033345
0.0033365
0.00333659
0.00333486
0.00333141
0.00332634
0.00331974
0.00331172
0.00330239
0.00329187
0.00328028
0.00326774
0.00325437
0.00324029
0.0032256
0.00321042
0.00319485
0.00317897
0.00316289
0.00314667
0.00313038
0.00311411
0.0030979
0.00308179
0.00306582
0.00305003
0.00303445
0.0030191
0.00300398
0.00298911
0.00297447
0.00296005
0.00294585
0.00293186
0.00291807
0.00290445
0.00289101
0.00287772
0.00286456
0.00285149
0.00283844
0.00282539
0.00281226
0.00279902
0.00278562
0.002772
0.00275811
0.00274392
0.00272939
0.00271448
0.00269916
0.00268343
0.00266722
0.00265072
0.00263375
0.00261625
0.00259812
0.00257906
0.00255851
0.00253622
0.00251266
0.00248814
0.00246284
0.00243682
0.00241005
0.00238257
0.00235438
0.0023255
0.00229599
0.0022658
0.00223491
0.00220343
0.00217132
0.00213663
0.002075
2.24186e-05
0.000146001
0.000279755
0.000387967
0.000472156
0.000536612
0.000586506
0.000626101
0.000658735
0.000686928
0.000712525
0.00073688
0.000761078
0.000786104
0.000812767
0.000841344
0.000871797
0.00090399
0.000937773
0.000973065
0.00100989
0.00104822
0.0010878
0.00112825
0.00116938
0.00121108
0.00125323
0.00129575
0.00133844
0.00138117
0.00142379
0.00146619
0.00150837
0.00155026
0.00159184
0.00163305
0.00167389
0.00171432
0.00175434
0.00179399
0.00183327
0.00187221
0.00191083
0.00194914
0.00198719
0.00202499
0.00206259
0.00210002
0.00213731
0.00217451
0.00221166
0.00224878
0.00228592
0.00232312
0.00236042
0.00239785
0.00243547
0.0024732
0.00251108
0.00254918
0.00258749
0.00262606
0.00266489
0.002704
0.0027434
0.00278309
0.00282307
0.00286335
0.0029039
0.00294472
0.00298583
0.00302717
0.00306871
0.00311039
0.00315217
0.00319399
0.00323581
0.00327755
0.00331916
0.00336064
0.00340198
0.00344314
0.00348407
0.0035247
0.00356492
0.00360464
0.00364377
0.00368217
0.00371972
0.00375631
0.0037918
0.00382604
0.00385891
0.00389028
0.00392001
0.00394799
0.00397411
0.00399826
0.00402036
0.00404029
0.00405796
0.00407327
0.00408622
0.00409706
0.00410531
0.00411125
0.00411526
0.00411695
0.00411643
0.0041138
0.00410916
0.00410262
0.00409429
0.00408429
0.00407277
0.00405986
0.00404569
0.00403042
0.00401416
0.00399707
0.00397926
0.00396086
0.00394198
0.00392273
0.0039032
0.00388348
0.00386365
0.00384377
0.00382391
0.00380412
0.00378444
0.0037649
0.00374555
0.0037264
0.00370745
0.00368873
0.00367021
0.00365191
0.00363382
0.00361592
0.00359821
0.00358069
0.00356332
0.00354608
0.00352892
0.0035118
0.00349467
0.00347747
0.00346014
0.00344263
0.00342489
0.00340686
0.00338849
0.00336975
0.0033506
0.003331
0.00331092
0.0032903
0.00326922
0.00324762
0.00322541
0.00320251
0.00317871
0.00315364
0.00312713
0.00309938
0.00307062
0.00304098
0.00301055
0.00297941
0.0029476
0.00291503
0.0028817
0.00284768
0.00281298
0.00277761
0.00274168
0.00270512
0.00266602
0.00260472
2.74723e-05
0.000165235
0.000315423
0.000438837
0.000537001
0.000613695
0.000674304
0.000723387
0.000764608
0.000800816
0.000834159
0.000866213
0.000898115
0.000930681
0.000964462
0.000999756
0.00103668
0.00107523
0.00111536
0.001157
0.00120009
0.00124453
0.00129014
0.00133672
0.00138408
0.00143205
0.00148045
0.00152916
0.00157802
0.00162688
0.00167565
0.00172422
0.00177254
0.00182055
0.00186821
0.00191549
0.00196237
0.00200883
0.00205488
0.00210049
0.00214569
0.00219048
0.00223488
0.00227892
0.00232261
0.002366
0.00240912
0.002452
0.00249468
0.00253719
0.00257958
0.00262189
0.00266414
0.00270638
0.00274864
0.00279096
0.00283334
0.00287582
0.00291842
0.00296116
0.00300409
0.0030472
0.00309053
0.00313408
0.00317787
0.00322191
0.00326618
0.00331071
0.00335547
0.00340046
0.00344567
0.00349109
0.00353668
0.00358242
0.00362828
0.00367422
0.00372022
0.00376626
0.0038123
0.0038583
0.00390422
0.00395001
0.00399561
0.00404094
0.00408591
0.00413042
0.00417437
0.00421764
0.00426011
0.00430163
0.00434208
0.0043813
0.00441915
0.00445548
0.00449014
0.00452301
0.00455393
0.00458279
0.00460945
0.00463381
0.00465575
0.00467518
0.00469207
0.00470638
0.00471841
0.0047276
0.00473425
0.00473855
0.00474033
0.00473967
0.00473668
0.00473144
0.00472408
0.00471473
0.00470351
0.00469057
0.00467608
0.00466017
0.004643
0.00462471
0.00460545
0.00458535
0.00456454
0.00454314
0.00452125
0.00449899
0.00447644
0.00445368
0.00443079
0.00440784
0.00438487
0.00436194
0.00433909
0.00431635
0.00429376
0.00427132
0.00424905
0.00422695
0.00420504
0.00418331
0.00416177
0.0041404
0.00411919
0.00409812
0.00407714
0.00405623
0.00403532
0.00401438
0.00399333
0.00397214
0.00395074
0.00392908
0.00390711
0.0038848
0.0038621
0.00383897
0.00381539
0.00379133
0.00376678
0.0037417
0.00371604
0.0036897
0.00366254
0.00363433
0.00360493
0.00357442
0.00354292
0.00351052
0.0034773
0.00344335
0.0034085
0.00337288
0.00333652
0.0032995
0.00326189
0.00322375
0.00318522
0.00314625
0.00310512
0.00304677
3.20263e-05
0.000181247
0.000345393
0.000482606
0.000593642
0.000682227
0.000753466
0.00081205
0.000861794
0.000905716
0.000946135
0.000984781
0.00102291
0.00106139
0.0011008
0.0011415
0.00118367
0.00122736
0.00127257
0.00131923
0.00136725
0.00141651
0.00146686
0.00151813
0.00157015
0.00162276
0.00167579
0.00172908
0.00178251
0.00183595
0.00188928
0.00194242
0.00199529
0.00204784
0.0021
0.00215176
0.00220307
0.00225392
0.00230431
0.00235422
0.00240366
0.00245264
0.00250117
0.00254928
0.00259699
0.00264433
0.00269134
0.00273804
0.00278447
0.00283067
0.00287667
0.00292252
0.00296824
0.00301387
0.00305946
0.00310502
0.00315058
0.00319618
0.00324184
0.00328758
0.00333344
0.00337943
0.00342557
0.00347188
0.00351838
0.00356507
0.00361196
0.00365905
0.00370635
0.00375386
0.00380158
0.00384949
0.00389759
0.00394586
0.0039943
0.00404287
0.00409158
0.00414039
0.00418928
0.00423823
0.00428719
0.00433611
0.00438495
0.00443363
0.00448207
0.00453018
0.00457786
0.004625
0.00467147
0.00471714
0.00476187
0.00480551
0.0048479
0.00488888
0.00492829
0.00496596
0.00500175
0.00503548
0.00506702
0.00509622
0.00512295
0.00514711
0.00516861
0.00518738
0.00520342
0.00521705
0.00522748
0.00523524
0.00524032
0.00524269
0.00524242
0.00523958
0.00523428
0.00522663
0.00521678
0.00520487
0.00519106
0.00517551
0.00515837
0.00513981
0.00511996
0.00509898
0.00507702
0.00505419
0.00503062
0.00500644
0.00498173
0.00495661
0.00493116
0.00490546
0.00487958
0.00485358
0.00482753
0.00480146
0.00477543
0.00474946
0.00472359
0.00469783
0.00467221
0.00464675
0.00462144
0.00459631
0.00457134
0.00454652
0.00452183
0.00449723
0.00447268
0.00444814
0.00442358
0.00439892
0.00437413
0.00434915
0.00432395
0.00429847
0.00427267
0.00424653
0.00422002
0.0041931
0.00416576
0.00413796
0.00410964
0.00408073
0.00405112
0.00402064
0.0039892
0.00395681
0.00392351
0.00388935
0.00385437
0.00381863
0.00378209
0.0037448
0.00370685
0.00366831
0.00362929
0.0035899
0.00355032
0.00351053
0.0034691
0.00341462
3.59794e-05
0.000194148
0.00036986
0.000519417
0.000642028
0.000741742
0.000823165
0.000890963
0.000948989
0.00100033
0.00104742
0.00109207
0.00113566
0.00117915
0.00122321
0.00126825
0.00131453
0.00136216
0.00141117
0.00146152
0.00151312
0.00156587
0.00161963
0.00167424
0.00172954
0.0017854
0.00184164
0.00189814
0.00195475
0.00201137
0.00206787
0.00212417
0.00218018
0.00223584
0.00229109
0.00234589
0.00240022
0.00245404
0.00250735
0.00256014
0.00261241
0.00266417
0.00271543
0.00276622
0.00281655
0.00286645
0.00291595
0.00296509
0.00301389
0.00306239
0.00311063
0.00315864
0.00320645
0.00325411
0.00330165
0.00334909
0.00339647
0.00344381
0.00349116
0.00353852
0.00358594
0.00363343
0.00368101
0.00372871
0.00377655
0.00382453
0.00387268
0.00392101
0.00396953
0.00401824
0.00406717
0.0041163
0.00416565
0.00421521
0.004265
0.004315
0.00436521
0.00441564
0.00446625
0.00451705
0.004568
0.00461906
0.0046702
0.00472135
0.00477246
0.00482345
0.00487422
0.00492467
0.00497468
0.00502413
0.00507287
0.00512075
0.00516761
0.00521327
0.00525755
0.00530026
0.00534124
0.00538028
0.0054172
0.00545185
0.00548404
0.00551365
0.00554054
0.00556461
0.00558579
0.00560418
0.00561973
0.00563189
0.0056412
0.00564757
0.00565101
0.00565155
0.00564926
0.00564425
0.00563667
0.00562666
0.00561437
0.00559998
0.00558364
0.00556551
0.00554575
0.00552453
0.00550199
0.00547827
0.00545352
0.00542786
0.00540141
0.00537428
0.00534658
0.0053184
0.00528984
0.00526096
0.00523186
0.00520259
0.00517321
0.00514378
0.00511434
0.00508493
0.00505561
0.00502638
0.0049973
0.00496836
0.00493959
0.00491099
0.00488254
0.00485424
0.00482605
0.00479796
0.00476991
0.00474188
0.00471382
0.00468568
0.00465742
0.00462901
0.00460041
0.00457159
0.00454252
0.00451318
0.00448353
0.00445354
0.00442315
0.00439231
0.00436091
0.00432885
0.00429603
0.00426243
0.00422804
0.00419289
0.00415698
0.00412036
0.00408304
0.00404506
0.00400652
0.0039675
0.00392814
0.0038886
0.00384908
0.00380961
0.00376904
0.0037187
3.92912e-05
0.000204178
0.00038919
0.000549328
0.000682254
0.00079212
0.000883018
0.00095949
0.00102535
0.0010837
0.00113701
0.00118717
0.00123563
0.00128345
0.00133136
0.00137988
0.00142932
0.00147986
0.00153156
0.00158444
0.00163843
0.00169346
0.00174941
0.00180612
0.00186347
0.00192132
0.00197952
0.00203794
0.00209648
0.00215501
0.00221343
0.00227162
0.00232948
0.00238696
0.00244398
0.00250052
0.00255654
0.00261201
0.00266693
0.00272129
0.00277508
0.00282832
0.00288102
0.00293319
0.00298486
0.00303604
0.00308678
0.0031371
0.00318702
0.0032366
0.00328585
0.00333481
0.00338352
0.00343201
0.00348032
0.00352848
0.00357651
0.00362446
0.00367235
0.0037202
0.00376806
0.00381594
0.00386387
0.00391187
0.00395998
0.0040082
0.00405657
0.00410511
0.00415383
0.00420276
0.00425191
0.0043013
0.00435096
0.0044009
0.00445114
0.00450168
0.00455256
0.00460376
0.0046553
0.00470718
0.00475939
0.00481192
0.00486473
0.0049178
0.00497107
0.00502449
0.00507798
0.00513145
0.00518479
0.00523788
0.00529059
0.00534274
0.00539419
0.00544473
0.00549417
0.00554231
0.00558893
0.00563381
0.00567674
0.0057175
0.0057559
0.00579174
0.00582486
0.0058551
0.00588234
0.00590651
0.00592769
0.00594547
0.00595996
0.00597129
0.00597939
0.00598424
0.00598586
0.00598435
0.00597986
0.00597253
0.00596252
0.00594999
0.00593511
0.00591805
0.00589897
0.00587805
0.00585543
0.00583128
0.00580576
0.00577899
0.00575111
0.00572227
0.00569257
0.00566213
0.00563105
0.00559945
0.0055674
0.00553499
0.00550231
0.00546943
0.00543642
0.00540334
0.00537025
0.0053372
0.00530425
0.00527142
0.00523875
0.00520627
0.00517398
0.00514189
0.00511
0.00507828
0.00504673
0.00501531
0.00498399
0.00495274
0.00492152
0.00489031
0.00485907
0.00482778
0.00479642
0.00476494
0.00473333
0.00470155
0.00466953
0.00463724
0.00460457
0.00457145
0.00453779
0.00450353
0.00446865
0.00443313
0.00439697
0.00436019
0.00432282
0.00428492
0.00424659
0.00420793
0.00416908
0.00413024
0.00409164
0.00405334
0.00401447
0.0039685
4.19613e-05
0.000211623
0.000403818
0.000572739
0.000714629
0.00083351
0.000932984
0.0010174
0.00109047
0.00115527
0.00121426
0.00126938
0.00132213
0.00137363
0.0014247
0.00147592
0.00152768
0.0015802
0.0016336
0.00168792
0.00174324
0.00179948
0.00185651
0.00191421
0.00197245
0.0020311
0.00209005
0.0021492
0.00220843
0.00226769
0.00232692
0.00238586
0.00244439
0.00250246
0.00256003
0.00261705
0.00267351
0.00272938
0.00278465
0.00283931
0.00289338
0.00294686
0.00299975
0.00305209
0.00310389
0.00315517
0.00320597
0.00325631
0.00330623
0.00335576
0.00340492
0.00345376
0.00350231
0.0035506
0.00359867
0.00364654
0.00369426
0.00374185
0.00378934
0.00383677
0.00388417
0.00393155
0.00397897
0.00402644
0.00407399
0.00412165
0.00416946
0.00421743
0.00426561
0.00431401
0.00436268
0.00441164
0.00446093
0.00451057
0.00456061
0.00461106
0.00466198
0.00471337
0.00476527
0.0048177
0.00487066
0.00492418
0.00497824
0.00503283
0.00508793
0.0051435
0.00519948
0.0052558
0.00531237
0.00536906
0.00542576
0.00548231
0.00553853
0.00559422
0.00564916
0.00570314
0.0057559
0.00580719
0.00585675
0.00590433
0.00594968
0.00599255
0.00603273
0.00607001
0.00610421
0.0061352
0.0061629
0.00618711
0.0062078
0.00622503
0.00623875
0.00624884
0.00625524
0.00625807
0.00625748
0.00625359
0.00624658
0.0062366
0.00622384
0.00620845
0.00619062
0.00617052
0.00614832
0.00612419
0.00609829
0.00607078
0.00604182
0.00601154
0.0059801
0.00594761
0.00591421
0.00588002
0.00584514
0.00580969
0.00577377
0.00573747
0.00570089
0.00566411
0.00562722
0.00559028
0.00555338
0.00551656
0.0054799
0.00544343
0.00540719
0.00537121
0.00533551
0.00530009
0.00526496
0.0052301
0.0051955
0.00516113
0.00512699
0.00509303
0.00505925
0.00502562
0.00499212
0.00495873
0.00492541
0.00489214
0.00485884
0.00482547
0.00479196
0.00475821
0.00472414
0.0046897
0.00465482
0.00461946
0.00458361
0.00454727
0.00451048
0.00447332
0.00443587
0.00439825
0.00436063
0.00432319
0.00428619
0.00424974
0.00421319
0.00417165
4.40155e-05
0.00021678
0.000414207
0.00059013
0.000739557
0.000866194
0.000973189
0.00106465
0.00114415
0.00121468
0.00127869
0.00133813
0.00139452
0.00144903
0.00150253
0.00155566
0.00160894
0.00166265
0.00171688
0.00177163
0.00182725
0.00188361
0.00194062
0.0019982
0.00205623
0.00211461
0.00217323
0.002232
0.00229082
0.00234962
0.00240843
0.00246694
0.00252499
0.00258247
0.00263937
0.00269566
0.00275132
0.00280634
0.00286072
0.00291446
0.00296757
0.00302007
0.00307198
0.0031233
0.00317408
0.00322433
0.00327409
0.00332338
0.00337224
0.0034207
0.0034688
0.00351656
0.00356402
0.00361122
0.00365818
0.00370495
0.00375154
0.003798
0.00384436
0.00389064
0.00393689
0.00398312
0.00402939
0.0040757
0.00412211
0.00416864
0.00421533
0.00426221
0.00430932
0.00435671
0.0044044
0.00445246
0.00450091
0.0045498
0.0045992
0.00464913
0.00469966
0.00475083
0.00480269
0.00485528
0.00490864
0.0049628
0.00501779
0.00507362
0.00513028
0.00518778
0.00524607
0.00530511
0.00536481
0.00542509
0.00548583
0.00554686
0.00560802
0.0056691
0.00572987
0.00579007
0.00584943
0.00590765
0.00596445
0.00601951
0.00607253
0.00612321
0.00617127
0.00621644
0.00625849
0.0062972
0.00633241
0.00636395
0.00639175
0.00641583
0.00643615
0.00645247
0.00646455
0.00647258
0.00647669
0.00647704
0.00647377
0.00646706
0.00645708
0.006444
0.00642801
0.00640929
0.00638803
0.00636439
0.00633857
0.00631073
0.00628105
0.00624968
0.00621679
0.00618252
0.00614703
0.00611046
0.00607293
0.00603457
0.00599552
0.00595589
0.00591579
0.00587535
0.00583465
0.00579381
0.00575293
0.00571208
0.00567136
0.00563083
0.00559056
0.00555061
0.00551102
0.00547182
0.00543304
0.00539468
0.00535676
0.00531926
0.00528218
0.00524551
0.00520924
0.00517336
0.00513785
0.00510269
0.00506787
0.00503333
0.00499903
0.0049649
0.00493086
0.00489684
0.00486275
0.00482852
0.00479407
0.00475934
0.00472428
0.0046889
0.00465322
0.00461734
0.00458136
0.00454537
0.00450956
0.00447411
0.0044393
0.00440525
0.00437155
0.00433455
4.54897e-05
0.000219933
0.000420804
0.000601975
0.000757445
0.000890461
0.00100378
0.00110122
0.00118619
0.00126158
0.00132978
0.00139273
0.00145198
0.0015087
0.00156386
0.00161801
0.00167191
0.00172588
0.00178017
0.00183497
0.00189027
0.00194602
0.00200217
0.00205864
0.00211536
0.00217225
0.00222923
0.00228621
0.00234311
0.00239986
0.00245672
0.00251363
0.00256999
0.00262572
0.00268075
0.00273507
0.00278869
0.0028416
0.00289382
0.0029454
0.00299634
0.00304667
0.0030964
0.00314558
0.00319422
0.00324237
0.00329006
0.00333732
0.00338418
0.00343067
0.00347684
0.00352271
0.00356831
0.00361368
0.00365886
0.00370386
0.00374873
0.00379349
0.00383818
0.00388283
0.00392747
0.00397212
0.00401684
0.00406163
0.00410655
0.00415162
0.00419689
0.00424239
0.00428817
0.00433427
0.00438074
0.00442763
0.00447499
0.0045229
0.0045714
0.00462056
0.00467045
0.00472114
0.0047727
0.00482519