/*--------------------------------*- C++ -*----------------------------------*\
  =========                 |
  \\      /  F ield         | OpenFOAM: The Open Source CFD Toolbox
   \\    /   O peration     | Website:  https://openfoam.org
    \\  /    A nd           | Version:  8
     \\/     M anipulation  |
\*---------------------------------------------------------------------------*/
FoamFile
{
    version     2.0;
    format      ascii;
    class       volScalarField;
    location    "125";
    object      p;
}
// * * * * * * * * * * * * * * * * * * * * * * * * * * * * * * * * * * * * * //

dimensions      [0 2 -2 0 0 0 0];

internalField   nonuniform List<scalar> 
12225
(
-2.08948
-4.27741
-5.3771
-5.6974
-5.8781
-6.0464
-6.17705
-6.27094
-6.34593
-6.41117
-6.46835
-6.51931
-6.56367
-6.60203
-6.63355
-6.64888
-6.6652
-6.56597
-5.25192
-6.02055
-6.18084
-6.08822
-6.07515
-6.1423
-6.21892
-6.28342
-6.34145
-6.3968
-6.44865
-6.49578
-6.53847
-6.57601
-6.60879
-6.62923
-6.65414
-6.63997
-5.65257
-5.6382
-5.76537
-5.84339
-5.93776
-6.05725
-6.16351
-6.24718
-6.31744
-6.38079
-6.43825
-6.4896
-6.53594
-6.57687
-6.61367
-6.64188
-6.67712
-6.70255
-5.53118
-5.47442
-5.71579
-5.87377
-5.97498
-6.0805
-6.17727
-6.25618
-6.32343
-6.38462
-6.4407
-6.49147
-6.53783
-6.57969
-6.61856
-6.65309
-6.69455
-6.74127
-5.52128
-5.54554
-5.77333
-5.91453
-5.99763
-6.08901
-6.17935
-6.25596
-6.32211
-6.38256
-6.43842
-6.48953
-6.53672
-6.58029
-6.62189
-6.66199
-6.70845
-6.76433
-5.57942
-5.62811
-5.80211
-5.92564
-6.00665
-6.09382
-6.18103
-6.2565
-6.32217
-6.38227
-6.43807
-6.48958
-6.53758
-6.58272
-6.62666
-6.67073
-6.72033
-6.77913
-5.63979
-5.68381
-5.81873
-5.93469
-6.01796
-6.10147
-6.18461
-6.25829
-6.32321
-6.38281
-6.43841
-6.4902
-6.53891
-6.58539
-6.63119
-6.67789
-6.72915
-6.78779
-5.69332
-5.7308
-5.84053
-5.94848
-6.03102
-6.11004
-6.18875
-6.26038
-6.32441
-6.38345
-6.4388
-6.4908
-6.54012
-6.58767
-6.63483
-6.68306
-6.73477
-6.79167
-5.74307
-5.77608
-5.86679
-5.96444
-6.0441
-6.11895
-6.19348
-6.26287
-6.32584
-6.3842
-6.4392
-6.49128
-6.54102
-6.5893
-6.63727
-6.68612
-6.73736
-6.79184
-5.79016
-5.81932
-5.89466
-5.98159
-6.05743
-6.12851
-6.19909
-6.26599
-6.32764
-6.38518
-6.43969
-6.49163
-6.54153
-6.59016
-6.6384
-6.68716
-6.73732
-6.78912
-5.83453
-5.85996
-5.92299
-5.99992
-6.07129
-6.13873
-6.20552
-6.26975
-6.32987
-6.38642
-6.44027
-6.49186
-6.54164
-6.59022
-6.63828
-6.68641
-6.73509
-6.78424
-5.87263
-5.89492
-5.94898
-6.01761
-6.08446
-6.14854
-6.21203
-6.27375
-6.33229
-6.38778
-6.44086
-6.49193
-6.54134
-6.58956
-6.63709
-6.6843
-6.73145
-6.77829
-5.90783
-5.9275
-5.97422
-6.03544
-6.09773
-6.15849
-6.21886
-6.27809
-6.33495
-6.38927
-6.44146
-6.49184
-6.54069
-6.58832
-6.63508
-6.68119
-6.72674
-6.77144
-5.94474
-5.96189
-6.00184
-6.05574
-6.11292
-6.16994
-6.22695
-6.28339
-6.33823
-6.39108
-6.4421
-6.49151
-6.53947
-6.58618
-6.63182
-6.67649
-6.7202
-6.76264
-5.98211
-5.99687
-6.03083
-6.07787
-6.12969
-6.18263
-6.23609
-6.28952
-6.34202
-6.39307
-6.4426
-6.49069
-6.53742
-6.58284
-6.62701
-6.66995
-6.71161
-6.75174
-6.01797
-6.0306
-6.05954
-6.1005
-6.14709
-6.19586
-6.24573
-6.29604
-6.34597
-6.39493
-6.44266
-6.48909
-6.53422
-6.578
-6.62041
-6.66138
-6.70088
-6.73872
-6.04944
-6.06034
-6.08534
-6.12135
-6.16333
-6.20821
-6.25469
-6.30198
-6.34929
-6.39599
-6.44169
-6.48622
-6.52948
-6.57136
-6.61179
-6.65068
-6.68798
-6.7236
-6.07214
-6.08183
-6.10417
-6.13675
-6.17535
-6.21721
-6.26095
-6.3057
-6.35067
-6.39524
-6.43894
-6.48152
-6.52282
-6.56273
-6.60113
-6.63796
-6.67313
-6.70666
-6.07915
-6.08834
-6.10966
-6.14094
-6.17821
-6.21871
-6.26105
-6.30435
-6.34784
-6.39088
-6.43302
-6.47397
-6.51356
-6.55171
-6.58829
-6.62327
-6.65659
-6.6883
-6.06317
-6.07298
-6.09567
-6.12886
-6.16802
-6.20991
-6.25309
-6.29688
-6.34054
-6.38347
-6.42521
-6.46555
-6.50434
-6.54155
-6.57708
-6.61094
-6.64307
-6.6736
-6.0364
-6.04722
-6.07257
-6.10969
-6.15259
-6.19727
-6.24253
-6.28795
-6.33279
-6.37636
-6.41837
-6.45871
-6.49733
-6.53415
-6.5692
-6.60246
-6.634
-6.66386
-6.00123
-6.01307
-6.04249
-6.08616
-6.13454
-6.18265
-6.23059
-6.27844
-6.32512
-6.36984
-6.41248
-6.45314
-6.49184
-6.52856
-6.56335
-6.59626
-6.6274
-6.65685
-5.96071
-5.97262
-6.00713
-6.06048
-6.11611
-6.16816
-6.21914
-6.26966
-6.31825
-6.36418
-6.40763
-6.44883
-6.48779
-6.52457
-6.55925
-6.592
-6.62289
-6.6521
-5.91703
-5.92802
-5.96984
-6.03431
-6.09657
-6.15332
-6.209
-6.2629
-6.31319
-6.36002
-6.40411
-6.44573
-6.48488
-6.52165
-6.55624
-6.58883
-6.61954
-6.6485
-5.87015
-5.87562
-5.93832
-6.01657
-6.07857
-6.13688
-6.19807
-6.25645
-6.30896
-6.35698
-6.40193
-6.44408
-6.48345
-6.52024
-6.55474
-6.58718
-6.61774
-6.64657
-5.8269
-5.79047
-5.90004
-6.01106
-6.07336
-6.12869
-6.19093
-6.25068
-6.30387
-6.35253
-6.39815
-6.44081
-6.48047
-6.51741
-6.55198
-6.58443
-6.61497
-6.64375
-5.841
-5.68202
-5.811
-5.96513
-6.05529
-6.12669
-6.19564
-6.25655
-6.30932
-6.35752
-6.40268
-6.44477
-6.48382
-6.52018
-6.55418
-6.58612
-6.61621
-6.64468
-5.96373
-5.78374
-5.798
-5.87019
-5.95861
-6.05787
-6.14857
-6.22234
-6.284
-6.33906
-6.38924
-6.43482
-6.47637
-6.51454
-6.54984
-6.58271
-6.61362
-6.64313
-5.67104
-6.26263
-6.35154
-6.22733
-6.17304
-6.20023
-6.24723
-6.29045
-6.33196
-6.37406
-6.41541
-6.45455
-6.49125
-6.52565
-6.5578
-6.58789
-6.61609
-6.64417
-2.68279
-4.44558
-5.45031
-5.7495
-5.89871
-6.04236
-6.1564
-6.23735
-6.30153
-6.35829
-6.40941
-6.45525
-6.49667
-6.53457
-6.56944
-6.60112
-6.62942
-6.65256
-7.78683
-7.78626
-7.78673
-7.78917
-7.79285
-7.79741
-7.80276
-7.80891
-7.81586
-7.82354
-7.83142
-7.83869
-7.84661
-7.85741
-7.8707
-7.8851
-7.89995
-7.91481
-7.93124
-7.95069
-7.9695
-7.98339
-7.99663
-8.0147
-8.03671
-8.06071
-8.08637
-8.11336
-8.14146
-8.17044
-8.20011
-8.23027
-8.26073
-8.29131
-8.32186
-8.3522
-8.38221
-8.41172
-8.44064
-8.46883
-8.49619
-8.5226
-8.54798
-8.5722
-8.5952
-8.61684
-8.63706
-8.65571
-8.67271
-8.6879
-8.7012
-8.71241
-8.72142
-8.72805
-8.73213
-8.73347
-8.73188
-8.72712
-8.71901
-8.70725
-8.69164
-8.67188
-8.64772
-8.61884
-8.58496
-8.54574
-8.50088
-8.45003
-8.39287
-8.32905
-8.25827
-8.18021
-8.09461
-8.00119
-7.8998
-7.79025
-7.67236
-7.54562
-7.40956
-7.26383
-7.10854
-6.94374
-6.76961
-6.58615
-6.3936
-6.19205
-5.98199
-5.76386
-5.53838
-5.30604
-5.06712
-4.82231
-4.57235
-4.3181
-4.06039
-3.80013
-3.53819
-3.27549
-3.01291
-2.75132
-2.49156
-2.23444
-1.98073
-1.73115
-1.48636
-1.24694
-1.01336
-0.78597
-0.565047
-0.350772
-0.143253
0.0574809
0.251475
0.438833
0.619718
0.794375
0.963132
1.12638
1.28457
1.4381
1.5874
1.73292
1.87526
2.01498
2.15277
2.28916
2.42487
2.56042
2.69656
2.83381
2.97294
3.11444
3.25908
3.40732
3.55987
3.71711
3.87972
4.04813
4.2229
4.40427
4.5925
4.78784
4.99058
5.20098
5.41918
5.64524
5.87911
6.12069
6.36978
6.62613
6.88938
7.15913
7.43489
7.71613
8.00224
8.29258
8.58645
8.88316
9.18195
9.48203
9.78261
10.0829
10.382
10.6787
10.9721
11.2611
11.545
11.823
12.0942
12.3579
12.6134
12.8599
13.0971
13.3245
13.5424
13.7513
13.9536
14.1519
14.3695
14.5958
-7.78294
-7.78354
-7.78453
-7.78648
-7.78872
-7.79113
-7.79401
-7.7976
-7.80191
-7.80671
-7.81166
-7.81696
-7.82428
-7.83368
-7.84313
-7.85217
-7.86098
-7.87055
-7.88238
-7.89512
-7.90712
-7.92383
-7.94804
-7.9739
-7.99886
-8.0244
-8.05087
-8.07832
-8.10668
-8.13582
-8.16559
-8.1958
-8.22627
-8.25684
-8.28734
-8.31761
-8.34751
-8.37692
-8.40571
-8.43377
-8.46101
-8.4873
-8.51257
-8.53671
-8.55965
-8.58126
-8.60148
-8.62018
-8.63727
-8.65262
-8.66612
-8.67761
-8.68697
-8.69402
-8.69862
-8.70055
-8.69966
-8.6957
-8.68849
-8.67776
-8.66329
-8.64481
-8.62205
-8.59472
-8.56253
-8.52517
-8.48233
-8.43367
-8.37888
-8.31762
-8.24958
-8.17442
-8.09185
-8.00155
-7.90322
-7.79653
-7.68111
-7.55667
-7.42315
-7.28051
-7.12869
-6.96757
-6.79717
-6.6175
-6.4287
-6.23089
-6.02441
-5.80972
-5.58749
-5.35805
-5.12187
-4.87949
-4.63166
-4.3792
-4.12294
-3.86373
-3.60246
-3.34001
-3.07728
-2.81516
-2.55451
-2.29614
-2.04085
-1.7894
-1.54247
-1.30068
-1.06452
-0.834399
-0.610625
-0.393429
-0.182956
0.0207463
0.217679
0.407932
0.591633
0.768996
0.940275
1.10588
1.26618
1.42163
1.57257
1.71954
1.86305
2.00375
2.1422
2.27906
2.41492
2.55044
2.68624
2.82299
2.96132
3.10189
3.24533
3.39224
3.54323
3.69882
3.85959
4.0261
4.1988
4.37804
4.56405
4.75712
4.95755
5.16562
5.3815
5.60527
5.8369
6.07631
6.32331
6.57767
6.83906
7.10706
7.38121
7.66097
7.94575
8.23489
8.5277
8.82348
9.12149
9.42092
9.72093
10.0206
10.3191
10.6152
10.908
11.1968
11.4806
11.7587
12.0303
12.2946
12.5508
12.7983
13.0367
13.2657
13.4855
13.6967
13.902
14.103
14.3202
14.5322
-7.77268
-7.77575
-7.77963
-7.78322
-7.78591
-7.78804
-7.79018
-7.79266
-7.7956
-7.79893
-7.80261
-7.80691
-7.81259
-7.81992
-7.82804
-7.83651
-7.84543
-7.85541
-7.86706
-7.87989
-7.89319
-7.90874
-7.92825
-7.9506
-7.97446
-7.99952
-8.02562
-8.05262
-8.08043
-8.10889
-8.13788
-8.16724
-8.19682
-8.22646
-8.25603
-8.28539
-8.31442
-8.343
-8.37102
-8.39837
-8.42495
-8.45066
-8.47542
-8.49912
-8.52168
-8.54299
-8.56298
-8.58152
-8.59852
-8.61386
-8.62742
-8.63907
-8.64866
-8.65604
-8.66105
-8.6635
-8.66322
-8.65999
-8.65362
-8.64385
-8.63046
-8.61319
-8.59178
-8.56595
-8.53541
-8.49985
-8.45897
-8.41246
-8.35999
-8.30123
-8.23586
-8.16357
-8.08404
-7.99694
-7.90196
-7.79875
-7.68695
-7.56629
-7.43665
-7.29796
-7.15016
-6.99316
-6.82692
-6.65145
-6.46686
-6.27323
-6.07082
-5.86008
-5.64151
-5.41557
-5.18256
-4.94309
-4.69791
-4.44772
-4.19336
-3.93563
-3.67543
-3.41361
-3.15109
-2.88874
-2.62743
-2.36798
-2.11124
-1.858
-1.60896
-1.36478
-1.12596
-0.892976
-0.66618
-0.445857
-0.232191
-0.0252832
0.174827
0.368177
0.554886
0.735122
0.909121
1.07723
1.2398
1.39724
1.5499
1.69832
1.84298
1.98453
2.12349
2.26058
2.39631
2.53144
2.66651
2.80229
2.93933
3.0784
3.22005
3.36499
3.51374
3.66694
3.82513
3.98889
4.1587
4.33488
4.51776
4.7076
4.90479
5.10954
5.32211
5.54254
5.77088
6.00704
6.25089
6.50218
6.76063
7.02581
7.29731
7.57457
7.85703
8.14405
8.43499
8.72914
9.02577
9.32414
9.6234
9.92267
10.221
10.5173
10.8107
11.1004
11.3854
11.6649
11.938
12.2041
12.4623
12.7121
12.9531
13.1849
13.4078
13.6225
13.8316
14.0354
14.2512
14.4425
-7.75587
-7.76185
-7.76978
-7.77619
-7.78047
-7.78342
-7.7858
-7.78806
-7.79043
-7.79311
-7.79621
-7.79999
-7.8048
-7.81089
-7.81809
-7.82624
-7.83533
-7.84564
-7.85749
-7.87093
-7.88585
-7.90259
-7.92159
-7.94277
-7.96565
-7.98986
-8.01519
-8.04143
-8.06846
-8.09613
-8.12431
-8.15283
-8.18158
-8.21039
-8.23916
-8.26774
-8.29604
-8.32392
-8.35129
-8.37804
-8.40408
-8.42932
-8.45365
-8.477
-8.49927
-8.52037
-8.5402
-8.55866
-8.57566
-8.59107
-8.60477
-8.61664
-8.62654
-8.63431
-8.63979
-8.64281
-8.64319
-8.64071
-8.63518
-8.62635
-8.61401
-8.59789
-8.57773
-8.55326
-8.52419
-8.49021
-8.45103
-8.40632
-8.35576
-8.29903
-8.2358
-8.16575
-8.08854
-8.00385
-7.91136
-7.81072
-7.70163
-7.58382
-7.45712
-7.32141
-7.17659
-7.02257
-6.8593
-6.68679
-6.50509
-6.31432
-6.11466
-5.9065
-5.69038
-5.46652
-5.23546
-4.99773
-4.75401
-4.50504
-4.25158
-3.99448
-3.73456
-3.47273
-3.20988
-2.9469
-2.68466
-2.42402
-2.16583
-1.9109
-1.65999
-1.41373
-1.17269
-0.937341
-0.708084
-0.485237
-0.269022
-0.0595774
0.143021
0.338767
0.527775
0.710191
0.886241
1.05621
1.22043
1.37929
1.53316
1.68257
1.82802
1.97009
2.10936
2.24648
2.38204
2.51673
2.65118
2.7861
2.92209
3.05991
3.20013
3.34346
3.49046
3.64176
3.79794
3.95955
4.12706
4.30082
4.48117
4.66846
4.86304
5.06517
5.27506
5.4928
5.71845
5.95193
6.19312
6.44179
6.69767
6.96035
7.22941
7.50435
7.7846
8.06953
8.35854
8.65093
8.94597
9.24289
9.54088
9.83909
10.1366
10.4325
10.7259
11.0158
11.3013
11.5816
11.8558
12.1231
12.3828
12.6343
12.8771
13.1111
13.3363
13.5532
13.7642
13.9684
14.1796
14.3523
-7.73667
-7.7456
-7.75803
-7.76777
-7.77422
-7.77866
-7.78205
-7.78493
-7.78769
-7.79063
-7.79401
-7.79807
-7.80306
-7.80916
-7.81641
-7.82483
-7.83446
-7.84544
-7.8579
-7.87195
-7.88765
-7.90509
-7.92432
-7.94524
-7.96765
-7.99132
-8.01606
-8.04169
-8.06807
-8.09505
-8.1225
-8.15027
-8.17825
-8.2063
-8.23432
-8.26218
-8.28977
-8.317
-8.34376
-8.36996
-8.39551
-8.42032
-8.44429
-8.46735
-8.4894
-8.51034
-8.5301
-8.54856
-8.56562
-8.58118
-8.5951
-8.60726
-8.61753
-8.62575
-8.63175
-8.63538
-8.63643
-8.63472
-8.63003
-8.62214
-8.6108
-8.59577
-8.57678
-8.55355
-8.5258
-8.49323
-8.45552
-8.41235
-8.36341
-8.30835
-8.24685
-8.17856
-8.10316
-8.02031
-7.92969
-7.83096
-7.72382
-7.608
-7.4833
-7.34953
-7.20657
-7.05433
-6.89273
-6.72179
-6.54155
-6.3521
-6.15361
-5.94647
-5.73104
-5.50783
-5.27703
-5.03943
-4.79561
-4.54636
-4.29238
-4.03456
-3.77373
-3.51081
-3.24669
-2.9823
-2.71853
-2.45627
-2.19641
-1.93975
-1.68707
-1.43901
-1.1962
-0.959092
-0.728124
-0.503615
-0.285834
-0.0749186
0.129026
0.325985
0.516047
0.69936
0.876142
1.04665
1.21125
1.37023
1.52411
1.6733
1.81844
1.95995
2.09858
2.2348
2.36943
2.50293
2.63618
2.76967
2.90425
3.04044
3.17907
3.32062
3.46587
3.61533
3.76967
3.92935
4.09487
4.26661
4.44492
4.63023
4.82283
5.02305
5.23101
5.44688
5.67066
5.90233
6.1417
6.38863
6.6428
6.90385
7.1713
7.44471
7.72349
8.00707
8.29477
8.58594
8.87984
9.17573
9.47281
9.77025
10.0672
10.3627
10.656
10.946
11.232
11.5129
11.7879
12.0562
12.3171
12.5699
12.8142
13.0496
13.2763
13.4945
13.7058
13.9084
14.1136
14.271
-7.71926
-7.73082
-7.74723
-7.76007
-7.76881
-7.77507
-7.77991
-7.78398
-7.78772
-7.79154
-7.79576
-7.80062
-7.80636
-7.81313
-7.82104
-7.83016
-7.84056
-7.85232
-7.86553
-7.88023
-7.89645
-7.91421
-7.93351
-7.95425
-7.9763
-7.9995
-8.0237
-8.04876
-8.07452
-8.10086
-8.12765
-8.15476
-8.18207
-8.20947
-8.23685
-8.2641
-8.29112
-8.31782
-8.3441
-8.36988
-8.39506
-8.41956
-8.4433
-8.46618
-8.48813
-8.50905
-8.52884
-8.54742
-8.56467
-8.58048
-8.59473
-8.60729
-8.61803
-8.62679
-8.63341
-8.63772
-8.63953
-8.63864
-8.63484
-8.62791
-8.61761
-8.60367
-8.58584
-8.56383
-8.53735
-8.5061
-8.46976
-8.42801
-8.38052
-8.32693
-8.26692
-8.20014
-8.12623
-8.04487
-7.95571
-7.85842
-7.75268
-7.63823
-7.51481
-7.38222
-7.24031
-7.08895
-6.92809
-6.7577
-6.57783
-6.38854
-6.19002
-5.98259
-5.76677
-5.54267
-5.31098
-5.07216
-4.82697
-4.57611
-4.32041
-4.06068
-3.79784
-3.5328
-3.2665
-2.99989
-2.73391
-2.4695
-2.20755
-1.94892
-1.69434
-1.44452
-1.20009
-0.96153
-0.729269
-0.503655
-0.284957
-0.0733375
0.131108
0.328371
0.518518
0.701709
0.878147
1.04812
1.21195
1.37
1.52275
1.6707
1.8144
1.95439
2.09132
2.22578
2.35849
2.49006
2.62124
2.75268
2.8851
3.01916
3.15559
3.29499
3.43807
3.58542
3.73763
3.89521
4.05863
4.22829
4.4046
4.588
4.7788
4.97729
5.1836
5.39787
5.62016
5.8504
6.08842
6.33403
6.58697
6.84686
7.11327
7.38571
7.66363
7.94642
8.23345
8.52404
8.81747
9.11298
9.4098
9.70708
10.004
10.2997
10.5933
10.8838
11.1704
11.4522
11.7282
11.9977
12.2598
12.514
12.7596
12.9964
13.2242
13.443
13.6539
13.8541
14.0535
14.198
-7.70673
-7.72036
-7.73969
-7.75496
-7.7657
-7.77375
-7.78016
-7.78558
-7.79055
-7.79548
-7.80074
-7.80658
-7.81325
-7.82089
-7.82963
-7.83955
-7.85073
-7.86323
-7.8771
-7.89236
-7.90902
-7.92706
-7.94644
-7.9671
-7.98892
-8.0118
-8.0356
-8.0602
-8.08548
-8.11131
-8.13757
-8.16415
-8.19093
-8.21781
-8.24469
-8.27147
-8.29806
-8.32437
-8.35032
-8.37581
-8.40077
-8.42511
-8.44876
-8.47161
-8.4936
-8.51463
-8.53461
-8.55343
-8.57099
-8.58718
-8.60189
-8.61497
-8.62628
-8.63569
-8.64302
-8.6481
-8.65074
-8.65075
-8.6479
-8.64197
-8.63273
-8.6199
-8.60322
-8.58241
-8.55717
-8.52718
-8.49213
-8.45169
-8.4055
-8.35323
-8.29452
-8.22901
-8.15635
-8.07617
-7.98813
-7.89188
-7.78711
-7.6735
-7.55081
-7.41879
-7.27728
-7.12612
-6.96524
-6.79461
-6.61426
-6.42426
-6.22476
-6.01615
-5.79873
-5.573
-5.33927
-5.09823
-4.85065
-4.59721
-4.3388
-4.07624
-3.81052
-3.54255
-3.27334
-3.00387
-2.73513
-2.46812
-2.20373
-1.94286
-1.68625
-1.43465
-1.18864
-0.948786
-0.715498
-0.489152
-0.269979
-0.0581765
0.146186
0.343098
0.532649
0.71499
0.890337
1.05899
1.22126
1.37761
1.52843
1.67438
1.81586
1.9536
2.08808
2.22013
2.35024
2.4793
2.60782
2.73669
2.86645
2.99797
3.13177
3.26868
3.40926
3.55421
3.70405
3.85929
4.02044
4.18787
4.36211
4.54352
4.73251
4.92926
5.13394
5.34663
5.56743
5.79626
6.03302
6.27747
6.52937
6.78832
7.05393
7.32568
7.60305
7.88541
8.17214
8.46256
8.75594
9.05153
9.34855
9.64617
9.94353
10.2398
10.5341
10.8256
11.1132
11.3962
11.6735
11.9443
12.2079
12.4635
12.7105
12.9485
13.1773
13.3965
13.6066
13.8043
13.9984
14.1325
-7.70086
-7.71572
-7.73676
-7.75361
-7.76589
-7.77542
-7.78324
-7.78996
-7.79612
-7.80217
-7.80847
-7.81529
-7.82287
-7.83137
-7.84091
-7.85159
-7.86347
-7.87661
-7.89102
-7.90673
-7.92373
-7.94199
-7.96146
-7.98207
-8.00376
-8.02641
-8.04992
-8.07418
-8.09909
-8.12453
-8.15039
-8.17657
-8.20297
-8.22948
-8.25601
-8.28248
-8.30881
-8.33489
-8.36066
-8.38604
-8.41094
-8.43528
-8.45898
-8.48197
-8.50415
-8.52544
-8.54574
-8.56495
-8.58297
-8.59968
-8.61496
-8.62867
-8.64069
-8.65085
-8.65899
-8.66493
-8.66848
-8.66945
-8.66761
-8.66274
-8.65458
-8.64287
-8.62735
-8.60772
-8.58367
-8.5549
-8.52106
-8.48183
-8.43684
-8.38573
-8.32814
-8.2637
-8.19203
-8.11277
-8.02554
-7.92999
-7.82579
-7.7126
-7.59014
-7.45817
-7.31649
-7.16492
-7.00339
-6.83184
-6.65029
-6.45881
-6.25757
-6.04689
-5.82723
-5.59882
-5.36225
-5.11818
-4.86734
-4.61054
-4.34862
-4.08252
-3.8132
-3.54168
-3.26899
-2.99617
-2.72429
-2.45435
-2.18732
-1.92405
-1.66538
-1.41199
-1.16453
-0.92356
-0.689546
-0.462813
-0.24359
-0.0320545
0.171718
0.367734
0.5561
0.736977
0.910604
1.07728
1.23738
1.39135
1.5397
1.68296
1.82169
1.95654
2.08812
2.21715
2.34428
2.47028
2.59582
2.72168
2.84853
2.97713
3.10814
3.2423
3.38026
3.52262
3.66997
3.82279
3.98158
4.1468
4.31891
4.49832
4.6854
4.88036
5.08337
5.29453
5.51391
5.74145
5.97702
6.22043
6.47141
6.72958
6.99453
7.26577
7.54275
7.82487
8.1115
8.40195
8.69549
8.99141
9.28887
9.58708
9.88518
10.1824
10.4777
10.7703
11.0592
11.3435
11.6223
11.8947
12.1598
12.4169
12.6653
12.9045
13.1341
13.3534
13.5627
13.7578
13.9473
14.0732
-7.702
-7.71727
-7.73887
-7.75643
-7.76964
-7.78024
-7.78913
-7.79691
-7.80409
-7.81111
-7.81833
-7.82602
-7.83439
-7.84363
-7.85385
-7.86515
-7.87759
-7.89121
-7.90605
-7.92209
-7.93933
-7.95774
-7.97728
-7.99787
-8.01945
-8.04194
-8.06524
-8.08926
-8.11391
-8.13907
-8.16466
-8.19058
-8.21673
-8.24301
-8.26936
-8.29567
-8.32188
-8.34791
-8.37367
-8.39908
-8.42408
-8.44858
-8.47251
-8.49578
-8.51831
-8.54001
-8.56078
-8.58052
-8.59913
-8.61649
-8.63247
-8.64694
-8.65976
-8.67077
-8.67981
-8.68669
-8.69123
-8.69322
-8.69244
-8.68865
-8.68161
-8.67104
-8.65667
-8.6382
-8.61532
-8.5877
-8.55501
-8.51689
-8.47297
-8.4229
-8.36627
-8.30271
-8.23183
-8.15323
-8.06653
-7.97137
-7.86737
-7.7542
-7.63155
-7.49916
-7.3568
-7.2043
-7.04153
-6.86845
-6.68507
-6.49144
-6.28774
-6.07432
-5.85151
-5.61984
-5.37965
-5.1318
-4.87699
-4.61612
-4.35003
-4.07975
-3.80627
-3.53068
-3.25407
-2.97755
-2.70225
-2.42918
-2.15937
-1.89367
-1.63294
-1.37787
-1.12917
-0.887367
-0.652955
-0.426196
-0.20735
0.00345146
0.20612
0.400708
0.587316
0.766142
0.937454
1.10156
1.25892
1.40993
1.55523
1.69525
1.83074
1.96217
2.0904
2.21595
2.33974
2.46229
2.58456
2.70708
2.83079
2.95623
3.08427
3.21551
3.35069
3.49034
3.63503
3.7853
3.94162
4.10456
4.27452
4.45197
4.63719
4.83045
5.03187
5.2416
5.45967
5.68605
5.92059
6.16312
6.41333
6.67089
6.93536
7.20625
7.48302
7.76506
8.05174
8.34239
8.63629
8.93268
9.23079
9.52978
9.82884
10.1271
10.4237
10.7176
11.008
11.2939
11.5743
11.8483
12.1151
12.3737
12.6236
12.864
13.0943
13.3137
13.5219
13.7146
13.9003
14.0197
-7.70956
-7.72455
-7.7457
-7.76317
-7.77671
-7.78788
-7.79745
-7.80596
-7.8139
-7.82166
-7.82959
-7.83795
-7.84695
-7.85675
-7.86748
-7.87924
-7.89208
-7.90605
-7.92116
-7.93742
-7.95481
-7.97331
-7.99287
-8.01343
-8.03493
-8.0573
-8.08045
-8.10431
-8.12878
-8.15378
-8.17922
-8.205
-8.23104
-8.25724
-8.28354
-8.30985
-8.3361
-8.36222
-8.38812
-8.41374
-8.439
-8.46382
-8.48812
-8.51183
-8.53485
-8.5571
-8.57848
-8.59888
-8.6182
-8.63632
-8.6531
-8.66843
-8.68214
-8.69409
-8.70409
-8.71198
-8.71755
-8.7206
-8.72091
-8.71822
-8.7123
-8.70286
-8.68962
-8.67228
-8.65051
-8.62399
-8.59236
-8.55526
-8.5123
-8.46311
-8.40729
-8.34443
-8.27412
-8.19596
-8.10953
-8.01445
-7.91034
-7.79683
-7.6736
-7.54037
-7.39688
-7.24294
-7.07842
-6.90326
-6.71746
-6.52109
-6.3143
-6.09744
-5.871
-5.63522
-5.39086
-5.13854
-4.87917
-4.6136
-4.3428
-4.0678
-3.7897
-3.50964
-3.22878
-2.94832
-2.6694
-2.39311
-2.12046
-1.85236
-1.58966
-1.33311
-1.08341
-0.841111
-0.606633
-0.380256
-0.162199
0.047399
0.248488
0.441133
0.625463
0.801704
0.970146
1.13116
1.2852
1.43279
1.57447
1.71082
1.8425
1.97015
2.09452
2.21629
2.33626
2.45512
2.5737
2.69267
2.81287
2.93495
3.05973
3.18786
3.32002
3.45678
3.59871
3.74635
3.90022
4.06087
4.22874
4.40424
4.58768
4.7793
4.97927
5.18769
5.4046
5.62996
5.86364
6.10543
6.35506
6.61217
6.87632
7.14702
7.42374
7.70585
7.99274
8.28373
8.57811
8.87513
9.17402
9.47395
9.7741
10.0736
10.3715
10.667
10.959
11.2466
11.5288
11.8045
12.073
12.3333
12.5846
12.8261
13.0571
13.2765
13.4838
13.6743
13.8567
13.9712
-7.72243
-7.73658
-7.75648
-7.77319
-7.7865
-7.79775
-7.80759
-7.81647
-7.82485
-7.83308
-7.84148
-7.85028
-7.8597
-7.86988
-7.88095
-7.893
-7.90608
-7.92025
-7.93551
-7.95188
-7.96933
-7.98785
-8.00739
-8.0279
-8.04933
-8.0716
-8.09465
-8.11841
-8.14279
-8.16772
-8.19311
-8.21888
-8.24493
-8.27118
-8.29757
-8.32402
-8.35046
-8.37681
-8.40301
-8.42897
-8.45463
-8.47991
-8.50473
-8.52901
-8.55265
-8.57557
-8.59767
-8.61884
-8.63896
-8.65793
-8.6756
-8.69184
-8.7065
-8.71943
-8.73044
-8.73935
-8.74598
-8.75009
-8.75147
-8.74988
-8.74504
-8.7367
-8.72454
-8.70826
-8.68754
-8.66202
-8.63135
-8.59515
-8.55303
-8.50458
-8.44939
-8.38704
-8.31709
-8.23913
-8.15271
-8.05744
-7.9529
-7.83872
-7.71455
-7.58008
-7.43504
-7.27923
-7.1125
-6.93477
-6.74604
-6.54638
-6.33596
-6.11516
-5.88437
-5.64411
-5.39493
-5.13763
-4.87317
-4.60242
-4.32645
-4.04633
-3.76325
-3.47842
-3.1931
-2.90855
-2.62591
-2.34633
-2.07081
-1.80036
-1.53579
-1.27795
-1.02748
-0.784963
-0.550752
-0.325154
-0.108326
0.0995884
0.298608
0.488789
0.670316
0.843441
1.00848
1.16589
1.31609
1.45973
1.59728
1.72948
1.85687
1.9803
2.10035
2.21795
2.33366
2.44849
2.56299
2.67814
2.79451
2.91304
3.03432
3.15916
3.28814
3.42187
3.56094
3.70587
3.85729
4.01565
4.18145
4.35505
4.53679
4.72687
4.92548
5.1327
5.34858
5.57305
5.806
6.04722
6.29642
6.55322
6.81721
7.08789
7.36469
7.64704
7.93428
8.22576
8.52076
8.81857
9.11837
9.41939
9.72077
10.0217
10.3211
10.6183
10.912
11.2014
11.4855
11.7631
12.0334
12.2953
12.5481
12.7907
13.0224
13.2418
13.4483
13.6369
13.8165
13.9273
-7.73925
-7.75214
-7.77021
-7.78562
-7.79821
-7.80909
-7.8188
-7.8277
-7.8362
-7.84462
-7.85323
-7.86225
-7.87188
-7.88225
-7.89348
-7.90565
-7.91884
-7.93306
-7.94836
-7.96472
-7.98215
-8.00062
-8.0201
-8.04055
-8.06191
-8.08412
-8.10711
-8.13082
-8.15518
-8.18011
-8.20554
-8.23138
-8.25755
-8.28398
-8.31059
-8.33731
-8.36406
-8.39078
-8.4174
-8.44384
-8.47003
-8.49588
-8.52133
-8.54627
-8.57063
-8.59431
-8.61721
-8.6392
-8.66019
-8.68005
-8.69863
-8.71582
-8.73144
-8.74533
-8.75734
-8.76726
-8.7749
-8.78003
-8.78244
-8.78187
-8.77806
-8.77072
-8.75956
-8.74425
-8.72446
-8.69983
-8.66999
-8.63454
-8.59309
-8.54521
-8.49047
-8.42842
-8.35862
-8.28062
-8.19396
-8.09821
-7.99296
-7.8778
-7.75235
-7.61629
-7.46934
-7.31125
-7.14189
-6.96116
-6.76908
-6.56568
-6.35117
-6.12593
-5.89043
-5.6451
-5.39066
-5.12798
-4.85797
-4.58165
-4.3001
-4.01451
-3.72613
-3.43626
-3.14625
-2.85739
-2.57091
-2.28796
-2.00964
-1.73691
-1.4707
-1.21179
-0.960875
-0.718485
-0.484989
-0.260638
-0.04559
0.160083
0.356429
0.54356
0.721686
0.891094
1.05216
1.20536
1.35121
1.49031
1.62325
1.75073
1.87343
1.99212
2.10752
2.22047
2.33171
2.44208
2.55233
2.66332
2.77574
2.89044
3.00812
3.1295
3.2552
3.38582
3.52197
3.66421
3.81316
3.96927
4.13303
4.30479
4.48487
4.67349
4.8708
5.07692
5.29185
5.51556
5.74789
5.98865
6.23754
6.49418
6.75812
7.02888
7.3059
7.58859
7.8763
8.16839
8.46413
8.76282
9.06366
9.36587
9.6686
9.97099
10.2721
10.571
10.8666
11.1579
11.4439
11.7235
11.9956
12.2593
12.5135
12.7574
12.9897
13.2092
13.415
13.602
13.7793
13.8875
-7.75861
-7.76995
-7.7858
-7.79952
-7.811
-7.82114
-7.83035
-7.83895
-7.84726
-7.85558
-7.86414
-7.87315
-7.88277
-7.89314
-7.90435
-7.9165
-7.92964
-7.9438
-7.95902
-7.9753
-7.99263
-8.01101
-8.03041
-8.05077
-8.07207
-8.09423
-8.1172
-8.14091
-8.1653
-8.19028
-8.21581
-8.24179
-8.26818
-8.29487
-8.3218
-8.34889
-8.37607
-8.40327
-8.43041
-8.45741
-8.48421
-8.51071
-8.53685
-8.56252
-8.58764
-8.61211
-8.63582
-8.65866
-8.68051
-8.70124
-8.72071
-8.73879
-8.75531
-8.77012
-8.78304
-8.79388
-8.80244
-8.8085
-8.81182
-8.81216
-8.80924
-8.80278
-8.79247
-8.77798
-8.75897
-8.73506
-8.70588
-8.67102
-8.63005
-8.58254
-8.52804
-8.46608
-8.39619
-8.3179
-8.23075
-8.13428
-8.02804
-7.91159
-7.78457
-7.6466
-7.4974
-7.33672
-7.16439
-6.98033
-6.78451
-6.57702
-6.35803
-6.12796
-5.88724
-5.63649
-5.37633
-5.10778
-4.8318
-4.54949
-4.26199
-3.97058
-3.67662
-3.3815
-3.08667
-2.79344
-2.50317
-2.21697
-1.93605
-1.66135
-1.39387
-1.13433
-0.883478
-0.641747
-0.409543
-0.18705
0.0255626
0.228332
0.421332
0.604759
0.778849
0.943923
1.10044
1.24885
1.38982
1.52385
1.65173
1.77404
1.89166
2.00521
2.11567
2.22363
2.33014
2.43579
2.54161
2.6482
2.75655
2.86727
2.98123
3.09904
3.22135
3.34881
3.48199
3.62155
3.76801
3.92192
4.08365
4.25363
4.43211
4.61934
4.81546
5.02056
5.23466
5.4577
5.68953
5.92994
6.17863
6.4352
6.69922
6.97018
7.24753
7.53067
7.81896
8.11174
8.40835
8.70801
9.01
9.3135
9.61769
9.92167
10.2245
10.5252
10.8228
11.1162
11.4042
11.6857
11.9598
12.2252
12.481
12.726
12.9591
13.1787
13.3839
13.5697
13.745
13.8514
-7.77919
-7.78885
-7.80229
-7.81407
-7.82414
-7.83322
-7.84162
-7.84959
-7.85742
-7.86536
-7.87362
-7.88237
-7.89177
-7.90193
-7.91296
-7.92492
-7.93788
-7.95186
-7.96691
-7.98303
-8.00022
-8.01846
-8.03772
-8.05798
-8.07919
-8.10129
-8.12424
-8.14797
-8.17241
-8.1975
-8.22318
-8.24939
-8.27604
-8.30307
-8.33038
-8.35792
-8.38558
-8.41331
-8.44102
-8.46863
-8.49606
-8.52323
-8.55005
-8.57644
-8.60229
-8.62751
-8.65197
-8.67558
-8.69819
-8.71969
-8.73993
-8.75878
-8.77608
-8.79165
-8.80533
-8.81693
-8.82625
-8.83305
-8.83712
-8.83819
-8.83598
-8.83022
-8.82058
-8.80672
-8.78831
-8.76495
-8.73624
-8.70178
-8.66111
-8.61379
-8.55934
-8.49727
-8.4271
-8.34833
-8.26048
-8.16306
-8.0556
-7.93764
-7.80878
-7.66863
-7.5169
-7.35331
-7.17769
-6.98994
-6.79005
-6.57808
-6.35424
-6.11892
-5.87268
-5.61599
-5.34978
-5.07498
-4.79271
-4.5041
-4.21042
-3.91303
-3.6134
-3.31304
-3.01343
-2.71603
-2.42216
-2.13308
-1.84993
-1.57377
-1.30552
-1.04597
-0.795757
-0.555349
-0.325072
-0.105139
0.104361
0.303509
0.492483
0.671535
0.840954
1.00112
1.15249
1.29564
1.43118
1.55975
1.68209
1.79892
1.91105
2.01924
2.12437
2.22721
2.32867
2.42952
2.53065
2.63281
2.73688
2.8436
2.95372
3.06791
3.18681
3.31108
3.44134
3.57824
3.7223
3.87402
4.03381
4.20206
4.37903
4.56493
4.75994
4.96411
5.17746
5.39992
5.63134
5.87149
6.12007
6.37667
6.64085
6.91209
7.18985
7.47351
7.76245
8.056
8.35351
8.65423
8.95742
9.26228
9.56799
9.87363
10.1783
10.4809
10.7805
11.0759
11.366
11.6496
11.9256
12.1928
12.4502
12.6964
12.9302
13.1501
13.3549
13.5397
13.7134
13.8187
-7.79992
-7.80788
-7.81884
-7.82853
-7.83699
-7.84475
-7.85206
-7.85911
-7.86617
-7.87344
-7.88112
-7.88936
-7.89831
-7.90806
-7.91871
-7.93032
-7.94296
-7.95665
-7.97142
-7.98728
-8.00424
-8.02226
-8.04135
-8.06145
-8.08254
-8.10457
-8.12748
-8.15122
-8.17574
-8.20096
-8.22682
-8.25325
-8.28019
-8.30755
-8.33525
-8.36321
-8.39134
-8.41958
-8.44782
-8.476
-8.50403
-8.53181
-8.55925
-8.58625
-8.61272
-8.63854
-8.66361
-8.6878
-8.711
-8.73308
-8.7539
-8.77331
-8.79116
-8.80729
-8.82152
-8.83367
-8.84353
-8.85087
-8.85547
-8.85706
-8.85537
-8.8501
-8.84094
-8.82753
-8.80953
-8.78653
-8.75812
-8.72388
-8.68333
-8.63601
-8.58143
-8.51908
-8.44845
-8.36903
-8.2803
-8.18174
-8.07286
-7.95318
-7.82226
-7.67972
-7.52519
-7.35845
-7.17925
-6.98753
-6.78325
-6.56653
-6.33753
-6.09671
-5.84455
-5.58178
-5.30923
-5.02801
-4.73931
-4.44433
-4.14444
-3.84114
-3.53597
-3.23059
-2.92651
-2.62529
-2.32826
-2.0368
-1.75199
-1.475
-1.20665
-0.947784
-0.698918
-0.460543
-0.232911
-0.0162603
0.189423
0.384256
0.568533
0.742574
0.906734
1.06145
1.2072
1.34465
1.47435
1.59713
1.71361
1.82471
1.93109
2.03376
2.13337
2.23099
2.32727
2.42327
2.51962
2.61735
2.71712
2.81982
2.92609
3.03666
3.15218
3.2733
3.40073
3.53501
3.67675
3.82636
3.98429
4.15089
4.32643
4.5111
4.70508
4.90841
5.12109
5.34306
5.57414
5.8141
6.06261
6.31929
6.58366
6.85523
7.1334
7.41763
7.70723
8.00159
8.30002
8.60182
8.90623
9.2125
9.51974
9.8271
10.1336
10.4382
10.7398
11.0373
11.3295
11.6152
11.8932
12.1622
12.4211
12.6686
12.9033
13.1235
13.3281
13.5121
13.6845
13.7893
-7.82077
-7.82705
-7.83562
-7.84317
-7.8498
-7.85594
-7.8618
-7.86758
-7.87348
-7.87972
-7.88648
-7.89389
-7.90208
-7.91114
-7.92117
-7.9322
-7.94431
-7.95751
-7.97183
-7.98727
-8.00384
-8.02152
-8.0403
-8.06014
-8.081
-8.10285
-8.12564
-8.1493
-8.17379
-8.19905
-8.22499
-8.25156
-8.27868
-8.30625
-8.33421
-8.36247
-8.39094
-8.41955
-8.44821
-8.47683
-8.50531
-8.53354
-8.56144
-8.58887
-8.61575
-8.64196
-8.66739
-8.69193
-8.71545
-8.73784
-8.75896
-8.77867
-8.79681
-8.81324
-8.82777
-8.84022
-8.85039
-8.85804
-8.86295
-8.86486
-8.86348
-8.85852
-8.84964
-8.83651
-8.81874
-8.79593
-8.76765
-8.73345
-8.69287
-8.6454
-8.59053
-8.52775
-8.45651
-8.37627
-8.28648
-8.1866
-8.07613
-7.95451
-7.82137
-7.67618
-7.5187
-7.34854
-7.16559
-6.96966
-6.76084
-6.53908
-6.30478
-6.05825
-5.80014
-5.53113
-5.25223
-4.96463
-4.66955
-4.36833
-4.06244
-3.75348
-3.44316
-3.13315
-2.82513
-2.52063
-2.22112
-1.92792
-1.64225
-1.36516
-1.09756
-0.840145
-0.593456
-0.357883
-0.133715
0.0788991
0.28001
0.469848
0.648765
0.817179
0.975533
1.12429
1.26402
1.39534
1.51894
1.63559
1.74605
1.85116
1.95174
2.04867
2.1428
2.23504
2.32621
2.41724
2.50893
2.60216
2.69773
2.79639
2.8989
3.0059
3.11812
3.23621
3.36087
3.49266
3.63213
3.77973
3.93586
4.10087
4.27503
4.45854
4.65152
4.85404
5.06609
5.28759
5.51834
5.75811
6.00656
6.26331
6.52786
6.79971
7.07829
7.36304
7.65329
7.94842
8.24776