/*--------------------------------*- C++ -*----------------------------------*\
  =========                 |
  \\      /  F ield         | OpenFOAM: The Open Source CFD Toolbox
   \\    /   O peration     | Website:  https://openfoam.org
    \\  /    A nd           | Version:  8
     \\/     M anipulation  |
\*---------------------------------------------------------------------------*/
FoamFile
{
    version     2.0;
    format      ascii;
    class       surfaceScalarField;
    location    "125";
    object      phi;
}
// * * * * * * * * * * * * * * * * * * * * * * * * * * * * * * * * * * * * * //

dimensions      [0 3 -1 0 0 0 0];

internalField   nonuniform List<scalar> 
24170
(
3.12889e-06
5.95184e-08
3.04662e-06
8.22635e-08
2.97351e-06
7.31112e-08
2.90483e-06
6.86677e-08
2.84047e-06
6.43629e-08
2.78308e-06
5.73797e-08
2.7337e-06
4.93787e-08
2.69166e-06
4.20278e-08
2.65588e-06
3.57761e-08
2.62529e-06
3.05892e-08
2.59888e-06
2.63985e-08
2.5758e-06
2.30767e-08
2.55532e-06
2.04729e-08
2.53678e-06
1.85364e-08
2.5196e-06
1.71739e-08
2.50226e-06
1.73374e-08
2.48467e-06
1.75849e-08
3.02105e-08
2.45446e-06
3.45314e-06
2.36282e-08
3.45701e-06
7.83845e-08
3.45053e-06
7.95893e-08
3.43906e-06
8.01317e-08
3.42426e-06
7.91578e-08
3.40699e-06
7.46407e-08
3.38773e-06
6.86348e-08
3.36715e-06
6.25978e-08
3.34594e-06
5.69834e-08
3.32467e-06
5.18486e-08
3.30382e-06
4.72372e-08
3.28366e-06
4.32296e-08
3.26436e-06
3.97573e-08
3.24594e-06
3.69541e-08
3.22849e-06
3.46158e-08
3.21184e-06
3.39812e-08
3.19648e-06
3.29452e-08
4.0456e-08
3.18623e-06
3.66826e-06
1.7887e-08
3.67918e-06
6.74642e-08
3.6854e-06
7.33662e-08
3.68942e-06
7.6105e-08
3.691e-06
7.75793e-08
3.69e-06
7.56318e-08
3.68683e-06
7.18063e-08
3.68194e-06
6.74857e-08
3.67572e-06
6.31997e-08
3.66849e-06
5.90734e-08
3.66052e-06
5.52006e-08
3.65205e-06
5.16962e-08
3.64325e-06
4.85594e-08
3.63424e-06
4.59584e-08
3.62506e-06
4.37952e-08
3.61612e-06
4.29203e-08
3.60674e-06
4.2319e-08
4.55062e-08
3.60169e-06
3.92587e-06
1.7405e-08
3.93591e-06
5.74234e-08
3.94254e-06
6.67258e-08
3.94807e-06
7.05779e-08
3.95246e-06
7.31843e-08
3.95537e-06
7.27107e-08
3.957e-06
7.01709e-08
3.95758e-06
6.68993e-08
3.9573e-06
6.34746e-08
3.9563e-06
6.00697e-08
3.9547e-06
5.67893e-08
3.95263e-06
5.37655e-08
3.95015e-06
5.10307e-08
3.94737e-06
4.87366e-08
3.94429e-06
4.68635e-08
3.94131e-06
4.59027e-08
3.9382e-06
4.54183e-08
4.64521e-08
3.93725e-06
4.20819e-06
1.6341e-08
4.21597e-06
4.96402e-08
4.22166e-06
6.10397e-08
4.22674e-06
6.54928e-08
4.23146e-06
6.84606e-08
4.2354e-06
6.87715e-08
4.23853e-06
6.70436e-08
4.24095e-06
6.44755e-08
4.24277e-06
6.16501e-08
4.24408e-06
5.87616e-08
4.24494e-06
5.59219e-08
4.24544e-06
5.32623e-08
4.24563e-06
5.08399e-08
4.24559e-06
4.87755e-08
4.24537e-06
4.70869e-08
4.24524e-06
4.60279e-08
4.24528e-06
4.53788e-08
4.5297e-08
4.24643e-06
4.51068e-06
1.47424e-08
4.51687e-06
4.3451e-08
4.52211e-06
5.58013e-08
4.5269e-06
6.06944e-08
4.53159e-06
6.37711e-08
4.5358e-06
6.45533e-08
4.53943e-06
6.34088e-08
4.54254e-06
6.13643e-08
4.54519e-06
5.89904e-08
4.54745e-06
5.64951e-08
4.54937e-06
5.39992e-08
4.551e-06
5.16256e-08
4.55239e-06
4.94453e-08
4.55362e-06
4.75478e-08
4.55474e-06
4.59604e-08
4.55597e-06
4.47918e-08
4.55745e-06
4.38977e-08
4.31441e-08
4.5596e-06
4.8343e-06
1.31579e-08
4.83961e-06
3.81388e-08
4.84473e-06
5.06902e-08
4.84941e-06
5.60117e-08
4.85401e-06
5.91645e-08
4.85829e-06
6.02697e-08
4.86212e-06
5.95784e-08
4.86554e-06
5.79512e-08
4.86859e-06
5.59386e-08
4.87132e-06
5.37598e-08
4.87378e-06
5.15429e-08
4.876e-06
4.94009e-08
4.87803e-06
4.74093e-08
4.87995e-06
4.56325e-08
4.88181e-06
4.4092e-08
4.88379e-06
4.28148e-08
4.886e-06
4.1685e-08
4.05097e-08
4.88863e-06
5.18103e-06
1.17104e-08
5.18574e-06
3.3424e-08
5.19073e-06
4.56995e-08
5.19536e-06
5.13781e-08
5.19992e-06
5.46025e-08
5.20424e-06
5.59412e-08
5.20819e-06
5.56202e-08
5.21179e-06
5.43472e-08
5.21509e-06
5.26413e-08
5.21811e-06
5.07324e-08
5.2209e-06
4.87515e-08
5.22349e-06
4.68041e-08
5.22593e-06
4.4963e-08
5.22829e-06
4.32753e-08
5.23062e-06
4.17521e-08
5.23306e-06
4.03804e-08
5.23568e-06
3.90611e-08
3.76262e-08
5.23856e-06
5.55268e-06
1.03672e-08
5.55687e-06
2.92299e-08
5.56167e-06
4.09062e-08
5.56625e-06
4.6789e-08
5.57079e-06
5.00636e-08
5.57516e-06
5.15678e-08
5.57923e-06
5.15533e-08
5.58298e-06
5.05913e-08
5.58647e-06
4.91573e-08
5.58971e-06
4.74875e-08
5.59275e-06
4.57138e-08
5.59561e-06
4.3935e-08
5.59836e-06
4.22186e-08
5.60103e-06
4.06008e-08
5.6037e-06
3.90842e-08
5.60643e-06
3.76407e-08
5.6093e-06
3.6188e-08
3.46075e-08
5.61232e-06
5.95103e-06
9.1117e-09
5.95477e-06
2.54871e-08
5.95933e-06
3.63438e-08
5.96387e-06
4.22492e-08
5.96839e-06
4.55374e-08
5.9728e-06
4.71492e-08
5.97697e-06
4.73809e-08
5.98087e-06
4.66906e-08
5.98452e-06
4.55006e-08
5.98796e-06
4.40466e-08
5.99121e-06
4.246e-08
5.9943e-06
4.08328e-08
5.99729e-06
3.92268e-08
6.00022e-06
3.76714e-08
6.00313e-06
3.61656e-08
6.00609e-06
3.468e-08
6.00913e-06
3.31517e-08
3.15057e-08
6.01222e-06
6.37798e-06
7.94504e-09
6.38133e-06
2.21335e-08
6.38565e-06
3.20278e-08
6.39011e-06
3.77797e-08
6.39462e-06
4.10335e-08
6.39906e-06
4.27011e-08
6.40332e-06
4.31183e-08
6.40735e-06
4.26581e-08
6.41116e-06
4.1685e-08
6.41478e-06
4.04262e-08
6.41823e-06
3.90101e-08
6.42154e-06
3.75222e-08
6.42474e-06
3.60191e-08
6.42788e-06
3.45271e-08
6.431e-06
3.30451e-08
6.43413e-06
3.15503e-08
6.43728e-06
2.99972e-08
2.83502e-08
6.44043e-06
5.74176e-06
7.02198e-09
5.74433e-06
1.9556e-08
5.74779e-06
2.8566e-08
5.7515e-06
3.40623e-08
5.75529e-06
3.72441e-08
5.75907e-06
3.89241e-08
5.76273e-06
3.94519e-08
5.76623e-06
3.91522e-08
5.76957e-06
3.83418e-08
5.77276e-06
3.72332e-08
5.77582e-06
3.59502e-08
5.77877e-06
3.45746e-08
5.78163e-06
3.31578e-08
5.78443e-06
3.17243e-08
5.78719e-06
3.02775e-08
5.78994e-06
2.87997e-08
5.79268e-06
2.72622e-08
2.56494e-08
5.79538e-06
6.99914e-06
6.04034e-09
7.00186e-06
1.683e-08
7.00561e-06
2.48098e-08
7.00977e-06
2.99053e-08
7.01407e-06
3.29353e-08
7.01841e-06
3.45817e-08
7.02267e-06
3.51889e-08
7.02679e-06
3.50342e-08
7.03074e-06
3.43842e-08
7.03454e-06
3.34298e-08
7.0382e-06
3.229e-08
7.04174e-06
3.10373e-08
7.04517e-06
2.97208e-08
7.04853e-06
2.83655e-08
7.05183e-06
2.6976e-08
7.05509e-06
2.55473e-08
7.05829e-06
2.40588e-08
2.25228e-08
7.06142e-06
8.53188e-06
5.00938e-09
8.53473e-06
1.39798e-08
8.53875e-06
2.0786e-08
8.54334e-06
2.5315e-08
8.54818e-06
2.80875e-08
8.55313e-06
2.96347e-08
8.55804e-06
3.02722e-08
8.56284e-06
3.02326e-08
8.56749e-06
2.973e-08
8.57199e-06
2.89305e-08
8.57634e-06
2.79374e-08
8.58056e-06
2.68217e-08
8.58465e-06
2.56239e-08
8.58865e-06
2.43712e-08
8.59255e-06
2.30726e-08
8.59637e-06
2.17306e-08
8.60009e-06
2.03391e-08
1.8918e-08
8.60369e-06
1.04003e-05
3.93616e-09
1.04032e-05
1.10261e-08
1.04075e-05
1.65138e-08
1.04125e-05
2.02977e-08
1.04179e-05
2.2681e-08
1.04235e-05
2.40423e-08
1.04292e-05
2.46437e-08
1.04347e-05
2.46728e-08
1.04402e-05
2.42948e-08
1.04454e-05
2.36394e-08
1.04506e-05
2.28005e-08
1.04556e-05
2.18327e-08
1.04604e-05
2.0779e-08
1.04651e-05
1.96602e-08
1.04697e-05
1.84944e-08
1.04741e-05
1.72855e-08
1.04784e-05
1.60401e-08
1.47823e-08
1.04826e-05
1.26779e-05
2.82692e-09
1.2681e-05
7.95901e-09
1.26855e-05
1.19904e-08
1.26909e-05
1.48439e-08
1.26969e-05
1.66841e-08
1.27032e-05
1.77503e-08
1.27096e-05
1.82333e-08
1.2716e-05
1.8272e-08
1.27224e-05
1.79823e-08
1.27285e-05
1.74608e-08
1.27346e-05
1.67757e-08
1.27404e-05
1.59764e-08
1.27461e-05
1.5093e-08
1.27516e-05
1.41507e-08
1.27569e-05
1.31618e-08
1.27621e-05
1.21412e-08
1.2767e-05
1.10912e-08
1.00472e-08
1.27718e-05
1.54543e-05
1.66858e-09
1.54576e-05
4.73349e-09
1.54624e-05
7.15403e-09
1.54684e-05
8.88977e-09
1.5475e-05
1.00178e-08
1.54821e-05
1.06635e-08
1.54894e-05
1.09358e-08
1.54968e-05
1.09181e-08
1.55041e-05
1.06789e-08
1.55112e-05
1.02762e-08
1.55183e-05
9.75382e-09
1.55251e-05
9.14411e-09
1.55317e-05
8.46936e-09
1.55381e-05
7.7472e-09
1.55443e-05
6.99017e-09
1.55502e-05
6.21011e-09
1.55559e-05
5.41294e-09
4.628e-09
1.55613e-05
1.88389e-05
4.21913e-10
1.88424e-05
1.2207e-09
1.88477e-05
1.82807e-09
1.88544e-05
2.24115e-09
1.88619e-05
2.48236e-09
1.887e-05
2.57929e-09
1.88784e-05
2.55311e-09
1.88869e-05
2.42265e-09
1.88953e-05
2.20639e-09
1.89037e-05
1.92125e-09
1.89118e-05
1.58073e-09
1.89198e-05
1.19614e-09
1.89275e-05
7.76509e-10
1.89349e-05
3.30161e-10
1.8942e-05
-1.35925e-10
1.89488e-05
-6.14301e-10
1.89554e-05
-1.10082e-09
-1.57215e-09
1.89615e-05
2.29648e-05
-1.01516e-09
2.29689e-05
-2.86911e-09
2.29751e-05
-4.407e-09
2.29829e-05
-5.57642e-09
2.29918e-05
-6.39663e-09
2.30013e-05
-6.95265e-09
2.30112e-05
-7.33482e-09
2.30212e-05
-7.59587e-09
2.30312e-05
-7.77667e-09
2.3041e-05
-7.90602e-09
2.30506e-05
-8.01208e-09
2.30599e-05
-8.10665e-09
2.30689e-05
-8.20122e-09
2.30775e-05
-8.2972e-09
2.30858e-05
-8.39946e-09
2.30936e-05
-8.5048e-09
2.31012e-05
-8.61554e-09
-8.71377e-09
2.31083e-05
1.68118e-05
-2.14281e-09
1.6815e-05
-6.05566e-09
1.68199e-05
-9.26172e-09
1.68259e-05
-1.16076e-08
1.68326e-05
-1.31493e-08
1.68398e-05
-1.41185e-08
1.68472e-05
-1.46989e-08
1.68546e-05
-1.50009e-08
1.68619e-05
-1.50967e-08
1.6869e-05
-1.50673e-08
1.6876e-05
-1.49574e-08
1.68827e-05
-1.48088e-08
1.68891e-05
-1.46336e-08
1.68953e-05
-1.44541e-08
1.69011e-05
-1.42698e-08
1.69067e-05
-1.40931e-08
1.6912e-05
-1.39178e-08
-1.37416e-08
1.6917e-05
1.46356e-05
-3.22516e-09
1.46387e-05
-9.15606e-09
1.46435e-05
-1.3997e-08
1.46492e-05
-1.73787e-08
1.46556e-05
-1.94707e-08
1.46622e-05
-2.07228e-08
1.46689e-05
-2.14074e-08
1.46755e-05
-2.16585e-08
1.4682e-05
-2.16116e-08
1.46883e-05
-2.13791e-08
1.46944e-05
-2.1041e-08
1.47002e-05
-2.06386e-08
1.47058e-05
-2.02051e-08
1.47111e-05
-1.97582e-08
1.47161e-05
-1.93137e-08
1.47209e-05
-1.8875e-08
1.47255e-05
-1.84497e-08
-1.8026e-08
1.47297e-05
1.27411e-05
-4.23728e-09
1.27443e-05
-1.22931e-08
1.27491e-05
-1.88456e-08
1.27548e-05
-2.30468e-08
1.27608e-05
-2.54773e-08
1.2767e-05
-2.69107e-08
1.27732e-05
-2.76113e-08
1.27792e-05
-2.77285e-08
1.27851e-05
-2.74695e-08
1.27907e-05
-2.70003e-08
1.27961e-05
-2.6411e-08
1.28012e-05
-2.57515e-08
1.2806e-05
-2.50618e-08
1.28106e-05
-2.43629e-08
1.2815e-05
-2.36751e-08
1.28191e-05
-2.29997e-08
1.2823e-05
-2.2347e-08
-2.17059e-08
1.28267e-05
1.10918e-05
-5.08152e-09
1.1095e-05
-1.55227e-08
1.11001e-05
-2.39844e-08
1.11058e-05
-2.86884e-08
1.11115e-05
-3.12315e-08
1.11174e-05
-3.27456e-08
1.11231e-05
-3.33611e-08
1.11286e-05
-3.32617e-08
1.11339e-05
-3.27498e-08
1.11389e-05
-3.20226e-08
1.11437e-05
-3.1172e-08
1.11482e-05
-3.02558e-08
1.11524e-05
-2.93142e-08
1.11564e-05
-2.83797e-08
1.11602e-05
-2.74612e-08
1.11638e-05
-2.6573e-08
1.11672e-05
-2.57116e-08
-2.4879e-08
1.11703e-05
9.65582e-06
-5.6825e-09
9.65925e-06
-1.89578e-08
9.66461e-06
-2.93421e-08
9.67011e-06
-3.4198e-08
9.67568e-06
-3.68029e-08
9.68125e-06
-3.83176e-08
9.6866e-06
-3.8707e-08
9.69163e-06
-3.8302e-08
9.69639e-06
-3.7505e-08
9.70087e-06
-3.65113e-08
9.7051e-06
-3.53986e-08
9.70907e-06
-3.42277e-08
9.71279e-06
-3.30451e-08
9.71629e-06
-3.18797e-08
9.71957e-06
-3.07469e-08
9.72265e-06
-2.96525e-08
9.72553e-06
-2.85981e-08
-2.75806e-08
9.72823e-06
8.4053e-06
-5.63022e-09
8.40964e-06
-2.33008e-08
8.41489e-06
-3.4587e-08
8.41992e-06
-3.92346e-08
8.4253e-06
-4.21772e-08
8.43071e-06
-4.37344e-08
8.4358e-06
-4.38002e-08
8.44051e-06
-4.30143e-08
8.44489e-06
-4.18788e-08
8.44894e-06
-4.05691e-08
8.4527e-06
-3.91569e-08
8.45617e-06
-3.77035e-08
8.45938e-06
-3.6258e-08
8.46235e-06
-3.48471e-08
8.46509e-06
-3.34865e-08
8.46762e-06
-3.21817e-08
8.46995e-06
-3.09348e-08
-2.97397e-08
8.47211e-06
7.3145e-06
-2.84823e-09
7.3212e-06
-2.99952e-08
7.32676e-06
-4.01475e-08
7.33171e-06
-4.4189e-08
7.33711e-06
-4.75812e-08
7.34244e-06
-4.90608e-08
7.34732e-06
-4.86828e-08
7.35174e-06
-4.74306e-08
7.35571e-06
-4.5858e-08
7.35927e-06
-4.41236e-08
7.36242e-06
-4.23076e-08
7.3652e-06
-4.04866e-08
7.36765e-06
-3.8707e-08
7.36979e-06
-3.69952e-08
7.37167e-06
-3.53662e-08
7.37331e-06
-3.38225e-08
7.37474e-06
-3.23647e-08
-3.0981e-08
7.37598e-06
6.36243e-06
4.78325e-09
6.3719e-06
-3.94621e-08
6.37933e-06
-4.75773e-08
6.38597e-06
-5.08324e-08
6.39226e-06
-5.38672e-08
6.39758e-06
-5.43785e-08
6.40187e-06
-5.29806e-08
6.40536e-06
-5.09131e-08
6.40816e-06
-4.86583e-08
6.41034e-06
-4.63047e-08
6.41196e-06
-4.39361e-08
6.4131e-06
-4.16238e-08
6.41381e-06
-3.94207e-08
6.41416e-06
-3.73435e-08
6.4142e-06
-3.54055e-08
6.41398e-06
-3.36048e-08
6.41356e-06
-3.19404e-08
-3.03947e-08
6.41297e-06
5.54129e-06
8.95378e-09
5.55033e-06
-4.84947e-08
5.55834e-06
-5.5595e-08
5.56605e-06
-5.85437e-08
5.57252e-06
-6.03323e-08
5.57685e-06
-5.87073e-08
5.57909e-06
-5.52247e-08
5.57965e-06
-5.14742e-08
5.5789e-06
-4.79049e-08
5.57711e-06
-4.45186e-08
5.57451e-06
-4.13378e-08
5.57129e-06
-3.84025e-08
5.56759e-06
-3.57208e-08
5.56354e-06
-3.32867e-08
5.55922e-06
-3.10916e-08
5.55474e-06
-2.91242e-08
5.55018e-06
-2.7387e-08
-2.58228e-08
5.54561e-06
4.86019e-06
-2.36292e-08
4.86538e-06
-5.3688e-08
4.86524e-06
-5.54498e-08
4.86218e-06
-5.54852e-08
4.85701e-06
-5.51639e-08
4.84951e-06
-5.12084e-08
4.83982e-06
-4.55353e-08
4.82843e-06
-4.00838e-08
4.81585e-06
-3.53294e-08
4.80258e-06
-3.12412e-08
4.78897e-06
-2.7738e-08
4.77533e-06
-2.47592e-08
4.76184e-06
-2.22275e-08
4.74863e-06
-2.00763e-08
4.73579e-06
-1.82488e-08
4.72339e-06
-1.67224e-08
4.71153e-06
-1.5534e-08
-1.5193e-08
4.7009e-06
4.17905e-06
4.12536e-06
4.06991e-06
4.01442e-06
3.95926e-06
3.90805e-06
3.86252e-06
3.82243e-06
3.7871e-06
3.75586e-06
3.72812e-06
3.70336e-06
3.68114e-06
3.66106e-06
3.64281e-06
3.62609e-06
3.61055e-06
3.59536e-06
2.16197e-08
-2.17028e-08
3.86679e-08
-1.71632e-08
4.76287e-08
-9.02668e-09
4.81799e-08
-6.30331e-10
4.13891e-08
6.74568e-09
2.86653e-08
1.26527e-08
1.15053e-08
1.7128e-08
-8.98336e-09
2.04189e-08
-3.18324e-08
2.28255e-08
-5.65162e-08
2.46163e-08
-8.25024e-08
2.59719e-08
-1.09507e-07
2.69392e-08
-1.37283e-07
2.77711e-08
-1.6624e-07
2.88907e-08
-1.96733e-07
3.04974e-08
-2.29251e-07
3.24491e-08
-2.64028e-07
3.47924e-08
-3.00932e-07
3.68378e-08
-3.39932e-07
3.90132e-08
-3.81361e-07
4.13689e-08
-4.28112e-07
4.67723e-08
-4.84375e-07
5.61926e-08
-5.37854e-07
5.34972e-08
-5.81267e-07
4.33271e-08
-6.28479e-07
4.72295e-08
-6.78732e-07
5.01792e-08
-7.30611e-07
5.19042e-08
-7.83404e-07
5.27318e-08
-8.36386e-07
5.30069e-08
-8.8936e-07
5.29227e-08
-9.41932e-07
5.26037e-08
-9.94083e-07
5.21097e-08
-1.04555e-06
5.15006e-08
-1.09639e-06
5.0804e-08
-1.14641e-06
5.00589e-08
-1.19571e-06
4.92782e-08
-1.24416e-06
4.84918e-08
-1.2919e-06
4.77038e-08
-1.33879e-06
4.69353e-08
-1.38501e-06
4.61823e-08
-1.43044e-06
4.54608e-08
-1.47523e-06
4.47625e-08
-1.5193e-06
4.40997e-08
-1.56279e-06
4.34608e-08
-1.60561e-06
4.2855e-08
-1.64791e-06
4.22685e-08
-1.68959e-06
4.17088e-08
-1.73077e-06
4.11606e-08
-1.77138e-06
4.063e-08
-1.8115e-06
4.0101e-08
-1.85107e-06
3.95795e-08
-1.89015e-06
3.90482e-08
-1.92866e-06
3.8511e-08
-1.96664e-06
3.79525e-08
-2.00401e-06
3.73773e-08
-2.04081e-06
3.6769e-08
-2.07694e-06
3.61314e-08
-2.11241e-06
3.54493e-08
-2.14713e-06
3.47261e-08
-2.18109e-06
3.39468e-08
-2.2142e-06
3.31137e-08
-2.24642e-06
3.22142e-08
-2.27765e-06
3.12494e-08
-2.30786e-06
3.02071e-08
-2.33693e-06
2.90878e-08
-2.36481e-06
2.78819e-08
-2.39139e-06
2.65873e-08
-2.41658e-06
2.51963e-08
-2.44029e-06
2.37046e-08
-2.46239e-06
2.2106e-08
-2.4828e-06
2.03932e-08
-2.50136e-06
1.85609e-08
-2.51798e-06
1.65974e-08
-2.53249e-06
1.45001e-08
-2.54477e-06
1.22486e-08
-2.55461e-06
9.83565e-09
-2.5619e-06
7.24488e-09
-2.5664e-06
4.49831e-09
-2.56811e-06
1.64485e-09
-2.56703e-06
-1.10012e-09
-2.56343e-06
-3.676e-09
-2.55727e-06
-6.1937e-09
-2.54865e-06
-8.72008e-09
-2.53745e-06
-1.12529e-08
-2.52377e-06
-1.38071e-08
-2.5075e-06
-1.63593e-08
-2.48875e-06
-1.8919e-08
-2.46746e-06
-2.14693e-08
-2.4437e-06
-2.3994e-08
-2.41756e-06
-2.6499e-08
-2.38901e-06
-2.89103e-08
-2.35817e-06
-3.12362e-08
-2.32513e-06
-3.34375e-08
-2.29004e-06
-3.55179e-08
-2.253e-06
-3.74464e-08
-2.21419e-06
-3.92235e-08
-2.17376e-06
-4.08154e-08
-2.13193e-06
-4.22153e-08
-2.08883e-06
-4.34168e-08
-2.04473e-06
-4.43978e-08
-1.9998e-06
-4.51606e-08
-1.95424e-06
-4.57074e-08
-1.90832e-06
-4.59802e-08
-1.86227e-06
-4.60204e-08
-1.81635e-06
-4.58438e-08
-1.77077e-06
-4.5447e-08
-1.72579e-06
-4.48605e-08
-1.6816e-06
-4.40698e-08
-1.63841e-06
-4.31114e-08
-1.59638e-06
-4.19695e-08
-1.5557e-06
-4.06862e-08
-1.51647e-06
-3.9249e-08
-1.47887e-06
-3.77027e-08
-1.44295e-06
-3.60415e-08
-1.40883e-06
-3.4311e-08
-1.37653e-06
-3.25098e-08
-1.34613e-06
-3.06786e-08
-1.31761e-06
-2.8818e-08
-1.29098e-06
-2.69642e-08
-1.26619e-06
-2.51323e-08
-1.2432e-06
-2.33636e-08
-1.22192e-06
-2.16796e-08
-1.20225e-06
-2.00951e-08
-1.18411e-06
-1.8625e-08
-1.16735e-06
-1.72739e-08
-1.15182e-06
-1.60655e-08
-1.13736e-06
-1.49959e-08
-1.12382e-06
-1.4101e-08
-1.11097e-06
-1.33614e-08
-1.09868e-06
-1.28195e-08
-1.08668e-06
-1.24395e-08
-1.07485e-06
-1.22665e-08
-1.06291e-06
-1.22522e-08
-1.05075e-06
-1.2453e-08
-1.03807e-06
-1.28098e-08
-1.02477e-06
-1.33795e-08
-1.01058e-06
-1.40919e-08
-9.95373e-07
-1.49875e-08
-9.789e-07
-1.59887e-08
-9.61097e-07
-1.71536e-08
-9.41867e-07
-1.84686e-08
-9.21092e-07
-1.99775e-08
-8.98641e-07
-2.16646e-08
-8.74334e-07
-2.35107e-08
-8.48071e-07
-2.54741e-08
-8.1973e-07
-2.75398e-08
-7.89264e-07
-2.96809e-08
-7.56586e-07
-3.18864e-08
-7.21682e-07
-3.41297e-08
-6.84497e-07
-3.64032e-08
-6.45045e-07
-3.8683e-08
-6.03309e-07
-4.09594e-08
-5.5933e-07
-4.32112e-08
-5.13115e-07
-4.54431e-08
-4.64725e-07
-4.7628e-08
-4.14196e-07
-4.97728e-08
-3.61587e-07
-5.18654e-08
-3.06963e-07
-5.3898e-08
-2.50344e-07
-5.59086e-08
-1.91812e-07
-5.78552e-08
-1.31559e-07
-5.95954e-08
-6.98512e-08
-6.11033e-08
-6.87308e-09
-6.24007e-08
5.76033e-08
-6.39807e-08
1.2406e-07
-6.60043e-08
1.92555e-07
-6.81285e-08
2.63101e-07
-7.02092e-08
3.35547e-07
-7.21879e-08
4.09786e-07
-7.39977e-08
4.85551e-07
-7.55923e-08
5.62625e-07
-7.69083e-08
6.40619e-07
-7.78847e-08
7.19176e-07
-7.8447e-08
7.97723e-07
-7.84844e-08
8.75587e-07
-7.78003e-08
9.51648e-07
-7.60374e-08
1.02392e-06
-7.2248e-08
1.0882e-06
-6.42783e-08
1.13311e-06
-4.49033e-08
1.80296e-08
1.11513e-06
1.08811e-08
-3.26484e-08
1.23592e-08
-1.87119e-08
7.9794e-09
-4.68532e-09
-8.24781e-10
8.13258e-09
-1.3521e-08
1.94156e-08
-2.99834e-08
2.9079e-08
-5.00402e-08
3.71626e-08
-7.34907e-08
4.38338e-08
-1.00026e-07
4.93415e-08
-1.29416e-07
5.39711e-08
-1.61468e-07
5.80073e-08
-1.96231e-07
6.16654e-08
-2.3361e-07
6.51373e-08
-2.73486e-07
6.87282e-08
-3.1568e-07
7.26842e-08
-3.6027e-07
7.70016e-08
-4.07052e-07
8.15735e-08
-4.5643e-07
8.6184e-08
-5.08107e-07
9.06917e-08
-5.62091e-07
9.53258e-08
-6.15576e-07
1.0026e-07
-6.641e-07
1.04696e-07
-7.16037e-07
1.05434e-07
-7.76088e-07
1.03356e-07
-8.31995e-07
1.03136e-07
-8.8515e-07
1.03315e-07
-9.3654e-07
1.03296e-07
-9.86749e-07
1.02922e-07
-1.03593e-06
1.02193e-07
-1.0842e-06
1.01171e-07
-1.13151e-06
9.99252e-08
-1.17793e-06
9.85149e-08
-1.22342e-06
9.69956e-08
-1.26804e-06
9.54093e-08
-1.31176e-06
9.37937e-08
-1.35467e-06
9.21746e-08
-1.39674e-06
9.05755e-08
-1.43806e-06
8.901e-08
-1.47861e-06
8.74917e-08
-1.51846e-06
8.60249e-08
-1.55761e-06
8.46155e-08
-1.59611e-06
8.32612e-08
-1.63397e-06
8.19626e-08
-1.67123e-06
8.07126e-08
-1.70787e-06
7.95083e-08
-1.74395e-06
7.83396e-08
-1.77943e-06
7.7201e-08
-1.81436e-06
7.60807e-08
-1.8487e-06
7.49719e-08
-1.88246e-06
7.38619e-08
-1.91562e-06
7.27433e-08
-1.94819e-06
7.16028e-08
-1.98011e-06
7.04329e-08
-2.01139e-06
6.92204e-08
-2.04197e-06
6.79573e-08
-2.07184e-06
6.66305e-08
-2.10095e-06
6.52323e-08
-2.12926e-06
6.37496e-08
-2.15671e-06
6.2175e-08
-2.18326e-06
6.04965e-08
-2.20885e-06
5.87073e-08
-2.23343e-06
5.67958e-08
-2.25694e-06
5.47553e-08
-2.2793e-06
5.25758e-08
-2.30046e-06
5.02505e-08
-2.32035e-06
4.77703e-08
-2.33888e-06
4.51293e-08
-2.356e-06
4.23198e-08
-2.37164e-06
3.93358e-08
-2.3857e-06
3.61715e-08
-2.39814e-06
3.28212e-08
-2.40886e-06
2.92825e-08
-2.41783e-06
2.55522e-08
-2.42497e-06
2.16318e-08
-2.43026e-06
1.75266e-08
-2.43369e-06
1.3254e-08
-2.4353e-06
8.83996e-09
-2.43514e-06
4.32806e-09
-2.43328e-06
-2.48582e-10
-2.42951e-06
-4.88973e-09
-2.4236e-06
-9.61868e-09
-2.4154e-06
-1.44251e-08
-2.40487e-06
-1.93006e-08
-2.39194e-06
-2.42245e-08
-2.37662e-06
-2.91834e-08
-2.35889e-06
-3.41526e-08
-2.33878e-06
-3.91153e-08
-2.3163e-06
-4.40406e-08
-2.29154e-06
-4.89194e-08
-2.26451e-06
-5.36852e-08
-2.23532e-06
-5.83148e-08
-2.20402e-06
-6.27521e-08
-2.17073e-06
-6.69544e-08
-2.13556e-06
-7.0904e-08
-2.09867e-06
-7.45572e-08
-2.0602e-06
-7.78958e-08
-2.02034e-06
-8.08748e-08
-1.97926e-06
-8.34788e-08
-1.93716e-06
-8.5674e-08
-1.89424e-06
-8.74539e-08
-1.8507e-06
-8.87874e-08
-1.80679e-06
-8.96707e-08
-1.76268e-06
-9.00779e-08
-1.71863e-06
-9.00254e-08
-1.67486e-06
-8.9538e-08
-1.63159e-06
-8.86344e-08
-1.58902e-06
-8.73402e-08
-1.54736e-06
-8.56711e-08
-1.50675e-06
-8.36584e-08
-1.46738e-06
-8.13214e-08
-1.42935e-06
-7.86998e-08
-1.39281e-06
-7.58178e-08
-1.35783e-06
-7.27216e-08
-1.3245e-06
-6.9441e-08
-1.29288e-06
-6.60274e-08
-1.26299e-06
-6.25134e-08
-1.23486e-06
-5.89508e-08
-1.20846e-06
-5.53694e-08
-1.18377e-06
-5.18221e-08
-1.16073e-06
-4.83485e-08
-1.13928e-06
-4.50101e-08
-1.11932e-06
-4.18442e-08
-1.10075e-06
-3.88907e-08
-1.08345e-06
-3.61718e-08
-1.06728e-06
-3.37154e-08
-1.05207e-06
-3.15451e-08
-1.03767e-06
-2.96833e-08
-1.02389e-06
-2.81547e-08
-1.01056e-06
-2.69703e-08
-9.97484e-07
-2.61509e-08
-9.84475e-07
-2.56942e-08
-9.71329e-07
-2.56167e-08
-9.57859e-07
-2.59027e-08
-9.43867e-07
-2.65692e-08
-9.29165e-07
-2.75938e-08
-9.1357e-07
-2.89874e-08
-8.96899e-07
-3.07162e-08
-8.78963e-07
-3.27568e-08
-8.59598e-07
-3.50849e-08
-8.38675e-07
-3.76951e-08
-8.16107e-07
-4.06268e-08
-7.91777e-07
-4.38774e-08
-7.65567e-07
-4.7469e-08
-7.37329e-07
-5.13248e-08
-7.06963e-07
-5.54332e-08
-6.74359e-07
-5.97144e-08
-6.39458e-07
-6.41724e-08
-6.02185e-07
-6.87311e-08
-5.62515e-07
-7.3394e-08
-5.20401e-07
-7.8091e-08
-4.75847e-07
-8.28321e-08
-4.28838e-07
-8.75451e-08
-3.79404e-07
-9.22424e-08
-3.27551e-07
-9.68771e-08
-2.73327e-07
-1.01454e-07
-2.16763e-07
-1.05931e-07
-1.57906e-07
-1.10339e-07
-9.68209e-08
-1.14601e-07
-3.36692e-08
-1.18704e-07
3.14517e-08
-1.22633e-07
9.86302e-08
-1.26463e-07
1.67991e-07
-1.30176e-07
2.39634e-07
-1.33786e-07
3.13318e-07
-1.37436e-07
3.88662e-07
-1.41145e-07
4.65485e-07
-1.44781e-07
5.43671e-07
-1.48245e-07
6.23054e-07
-1.51455e-07
7.03472e-07
-1.54316e-07
7.84691e-07
-1.56746e-07
8.66477e-07
-1.58638e-07
9.48502e-07
-1.59886e-07
1.03041e-06
-1.60334e-07
1.1117e-06
-1.59782e-07
1.19171e-06
-1.5782e-07
1.26942e-06
-1.53793e-07
1.34314e-06
-1.45999e-07
1.41032e-06
-1.31526e-07
1.46624e-06
-1.00874e-07
-2.71767e-08
1.51142e-06
-4.54597e-09
-2.81478e-08
-1.55792e-08
-7.72307e-09
-2.97282e-08
9.43992e-09
-4.62712e-08
2.46509e-08
-6.50469e-08
3.81747e-08
-8.61817e-08
5.01908e-08
-1.09852e-07
6.08188e-08
-1.36242e-07
7.01999e-08
-1.65433e-07
7.85185e-08
-1.97473e-07
8.5986e-08
-2.32287e-07
9.28088e-08
-2.69803e-07
9.91541e-08
-3.09835e-07
1.0516e-07
-3.52115e-07
1.10981e-07
-3.96185e-07
1.16748e-07
-4.41695e-07
1.22487e-07
-4.88232e-07
1.28109e-07
-5.35514e-07
1.33447e-07
-5.83127e-07
1.38306e-07
-6.30422e-07
1.42606e-07
-6.76392e-07
1.46233e-07
-7.2056e-07
1.48853e-07
-7.65047e-07
1.49924e-07
-8.11347e-07
1.49647e-07
-8.57259e-07
1.49049e-07
-9.02221e-07
1.48269e-07
-9.46179e-07
1.47254e-07
-9.89238e-07
1.45972e-07
-1.03147e-06
1.44427e-07
-1.07296e-06
1.42653e-07
-1.11373e-06
1.40696e-07
-1.15383e-06
1.38605e-07
-1.19326e-06
1.36425e-07
-1.23205e-06
1.34198e-07
-1.27022e-06
1.31959e-07
-1.30778e-06
1.29733e-07
-1.34475e-06
1.27544e-07
-1.38115e-06
1.25405e-07
-1.41698e-06
1.23327e-07
-1.45228e-06
1.21316e-07
-1.48704e-06
1.19376e-07
-1.52129e-06
1.17503e-07
-1.55502e-06
1.15696e-07
-1.58826e-06
1.13946e-07
-1.62099e-06
1.12247e-07
-1.65324e-06
1.10588e-07
-1.685e-06
1.08957e-07
-1.71626e-06
1.07343e-07
-1.74702e-06
1.05733e-07
-1.77727e-06
1.04113e-07
-1.807e-06
1.02469e-07
-1.83618e-06
1.00788e-07
-1.86481e-06
9.90551e-08
-1.89284e-06
9.72562e-08
-1.92027e-06
9.53775e-08
-1.94704e-06
9.34044e-08
-1.97314e-06
9.13232e-08
-1.99851e-06
8.91195e-08
-2.02312e-06
8.67802e-08
-2.04691e-06
8.4292e-08
-2.06985e-06
8.16427e-08
-2.09187e-06
7.88198e-08
-2.11293e-06
7.58121e-08
-2.13296e-06
7.26075e-08
-2.1519e-06
6.91962e-08
-2.1697e-06
6.5568e-08
-2.18628e-06
6.17141e-08
-2.20159e-06
5.76267e-08
-2.21555e-06
5.32988e-08
-2.2281e-06
4.8725e-08
-2.23919e-06
4.39019e-08
-2.24873e-06
3.88278e-08
-2.25669e-06
3.35043e-08
-2.263e-06
2.79388e-08
-2.26763e-06
2.21409e-08
-2.27051e-06
1.61294e-08
-2.27161e-06
9.92815e-09
-2.27085e-06
3.56029e-09
-2.26815e-06
-2.96352e-09
-2.26341e-06
-9.6481e-09
-2.25656e-06
-1.64938e-08
-2.24753e-06
-2.34791e-08
-2.23627e-06
-3.0578e-08
-2.22277e-06
-3.77587e-08
-2.207e-06
-4.49904e-08
-2.18895e-06
-5.22358e-08
-2.16865e-06
-5.94581e-08
-2.14614e-06
-6.66219e-08
-2.12145e-06
-7.36733e-08
-2.09468e-06
-8.05753e-08
-2.06587e-06
-8.72479e-08
-2.0351e-06
-9.36332e-08
-2.00249e-06
-9.96885e-08
-1.96816e-06
-1.0535e-07
-1.93225e-06
-1.10585e-07
-1.89491e-06
-1.15333e-07
-1.85632e-06
-1.19564e-07
-1.81665e-06
-1.23226e-07
-1.7761e-06
-1.26298e-07
-1.73485e-06
-1.28743e-07
-1.69311e-06
-1.30542e-07
-1.6511e-06
-1.31673e-07
-1.609e-06
-1.3213e-07
-1.56704e-06
-1.31922e-07
-1.52542e-06
-1.31074e-07
-1.48435e-06
-1.29626e-07
-1.44402e-06
-1.276e-07
-1.4046e-06
-1.25041e-07
-1.36623e-06
-1.21978e-07
-1.32907e-06
-1.18464e-07
-1.29322e-06
-1.14539e-07
-1.25879e-06
-1.10263e-07
-1.22585e-06
-1.05685e-07
-1.19447e-06
-1.00869e-07
-1.16469e-06
-9.58706e-08
-1.13652e-06
-9.07586e-08
-1.10997e-06
-8.55904e-08
-1.08501e-06
-8.04312e-08
-1.0616e-06
-7.53416e-08
-1.03967e-06
-7.03914e-08
-1.01916e-06
-6.56486e-08
-9.99967e-07
-6.11751e-08
-9.81988e-07
-5.70231e-08
-9.65091e-07
-5.32333e-08
-9.4914e-07
-4.98467e-08
-9.33971e-07
-4.6896e-08
-9.19431e-07
-4.44172e-08
-9.05335e-07
-4.24351e-08
-8.91521e-07
-4.09761e-08
-8.77789e-07
-4.00534e-08
-8.63971e-07
-3.9682e-08
-8.49862e-07
-3.98636e-08
-8.35291e-07
-4.06007e-08
-8.20056e-07
-4.18877e-08
-8.03992e-07
-4.3719e-08
-7.8691e-07
-4.60807e-08
-7.68642e-07
-4.89472e-08
-7.49013e-07
-5.22803e-08
-7.27866e-07
-5.60539e-08
-7.05081e-07
-6.02624e-08
-6.80548e-07
-6.49202e-08
-6.54173e-07
-7.00449e-08
-6.25824e-07
-7.56141e-08
-5.95394e-07
-8.15791e-08
-5.62765e-07
-8.78786e-08
-5.27861e-07
-9.44576e-08
-4.90599e-07
-1.01266e-07
-4.50934e-07
-1.0825e-07
-4.08815e-07
-1.15358e-07
-3.64228e-07
-1.22543e-07
-3.1715e-07
-1.29765e-07
-2.67593e-07
-1.36974e-07
-2.15566e-07
-1.44131e-07
-1.611e-07
-1.5122e-07
-1.04224e-07
-1.58199e-07
-4.50192e-08
-1.65019e-07
1.64376e-08
-1.71674e-07
8.01049e-08
-1.78163e-07
1.45987e-07
-1.8448e-07
2.14063e-07
-1.90618e-07
2.84272e-07
-1.9658e-07
3.56521e-07
-2.02348e-07
4.30738e-07
-2.07924e-07
5.06734e-07
-2.13363e-07
5.84266e-07
-2.18606e-07
6.63133e-07
-2.23588e-07
7.43162e-07
-2.28214e-07
8.24161e-07
-2.32402e-07
9.05934e-07
-2.36035e-07
9.88244e-07
-2.39009e-07
1.07083e-06
-2.41179e-07
1.15339e-06
-2.42401e-07
1.23556e-06
-2.42453e-07
1.31686e-06
-2.4104e-07
1.39669e-06
-2.37607e-07
1.47418e-06
-2.31248e-07
1.54817e-06
-2.19944e-07
1.61709e-06
-2.00414e-07
1.68004e-06
-1.63779e-07
-9.08122e-08
1.74373e-06
-1.71426e-08
-1.10392e-08
-3.73266e-08
1.24315e-08
-5.88321e-08
3.09296e-08
-8.14107e-08
4.72121e-08
-1.05151e-07
6.19034e-08
-1.30283e-07
7.53066e-08
-1.57051e-07
8.75761e-08
-1.85691e-07
9.88217e-08
-2.16336e-07
1.09154e-07
-2.49056e-07
1.18686e-07
-2.83777e-07
1.27521e-07
-3.20383e-07
1.3574e-07
-3.58641e-07
1.4341e-07
-3.98282e-07
1.50601e-07
-4.38903e-07
1.57364e-07
-4.80129e-07
1.63696e-07
-5.21555e-07
1.69532e-07
-5.62882e-07
1.7476e-07
-6.03839e-07
1.79263e-07
-6.44214e-07
1.82971e-07
-6.83803e-07
1.85824e-07
-7.22669e-07
1.87711e-07
-7.6131e-07
1.88567e-07
-8.00179e-07
1.8851e-07
-8.38957e-07
1.87829e-07
-8.77396e-07
1.86701e-07
-9.15353e-07
1.85213e-07
-9.52804e-07
1.83418e-07
-9.89736e-07
1.81359e-07
-1.02617e-06
1.79082e-07
-1.06211e-06
1.76635e-07
-1.09758e-06
1.74065e-07
-1.13257e-06
1.71416e-07
-1.16711e-06
1.68727e-07
-1.20118e-06
1.6603e-07
-1.2348e-06
1.63352e-07
-1.26797e-06
1.60714e-07
-1.30071e-06
1.5813e-07
-1.33299e-06
1.55613e-07
-1.36485e-06
1.53166e-07
-1.39627e-06
1.50794e-07
-1.42726e-06
1.48493e-07
-1.45782e-06
1.46259e-07
-1.48796e-06
1.44084e-07
-1.51768e-06
1.4196e-07
-1.54696e-06
1.39874e-07
-1.57582e-06
1.37813e-07
-1.60424e-06
1.35763e-07
-1.63221e-06
1.33708e-07
-1.65973e-06
1.31632e-07
-1.68677e-06
1.29518e-07
-1.71333e-06
1.27349e-07
-1.73939e-06
1.25108e-07
-1.76491e-06
1.22777e-07
-1.78987e-06
1.2034e-07
-1.81424e-06
1.17778e-07
-1.838e-06
1.15074e-07
-1.86109e-06
1.12211e-07
-1.88348e-06
1.09172e-07
-1.90513e-06
1.05942e-07
-1.92599e-06
1.02504e-07
-1.94602e-06
9.88429e-08
-1.96515e-06
9.49444e-08
-1.98334e-06
9.07948e-08
-2.00052e-06
8.63807e-08
-2.01664e-06
8.169e-08
-2.03164e-06
7.67124e-08
-2.04545e-06
7.14383e-08
-2.05801e-06
6.58602e-08
-2.06926e-06
5.99718e-08
-2.07912e-06
5.37695e-08
-2.08755e-06
4.72532e-08
-2.09447e-06
4.04255e-08
-2.09983e-06
3.32917e-08
-2.10356e-06
2.58636e-08
-2.10559e-06
1.81562e-08
-2.10586e-06
1.0186e-08
-2.10427e-06
1.969e-09
-2.10076e-06
-6.48416e-09
-2.09526e-06
-1.51646e-08
-2.08771e-06
-2.40565e-08
-2.07807e-06
-3.31324e-08
-2.06631e-06
-4.2357e-08
-2.0524e-06
-5.16896e-08
-2.03633e-06
-6.10854e-08
-2.0181e-06
-7.04958e-08
-1.99772e-06
-7.98694e-08
-1.97523e-06
-8.91478e-08
-1.95069e-06
-9.82814e-08
-1.92415e-06
-1.07175e-07
-1.89568e-06
-1.15785e-07
-1.86538e-06
-1.24012e-07
-1.83333e-06
-1.31798e-07
-1.79968e-06
-1.39069e-07
-1.76455e-06
-1.4577e-07
-1.72811e-06
-1.51831e-07
-1.69051e-06
-1.57207e-07
-1.65192e-06
-1.61837e-07
-1.61255e-06
-1.65689e-07
-1.57256e-06
-1.6872e-07
-1.53217e-06
-1.70906e-07
-1.49156e-06
-1.72226e-07
-1.45094e-06
-1.72674e-07
-1.41051e-06
-1.72268e-07
-1.37047e-06
-1.71031e-07
-1.331e-06
-1.69015e-07
-1.29228e-06
-1.66252e-07
-1.25447e-06
-1.62802e-07
-1.21771e-06
-1.58706e-07
-1.18211e-06
-1.54037e-07
-1.1478e-06
-1.4885e-07
-1.11484e-06
-1.43227e-07
-1.08332e-06
-1.37231e-07
-1.05327e-06
-1.30951e-07
-1.02473e-06
-1.24457e-07