/*--------------------------------*- C++ -*----------------------------------*\
  =========                 |
  \\      /  F ield         | OpenFOAM: The Open Source CFD Toolbox
   \\    /   O peration     | Website:  https://openfoam.org
    \\  /    A nd           | Version:  8
     \\/     M anipulation  |
\*---------------------------------------------------------------------------*/
FoamFile
{
    version     2.0;
    format      ascii;
    class       volVectorField;
    location    "125";
    object      U;
}
// * * * * * * * * * * * * * * * * * * * * * * * * * * * * * * * * * * * * * //

dimensions      [0 1 -1 0 0 0 0];

internalField   nonuniform List<vector> 
12225
(
(9.857 -0.886592 0)
(9.66626 -0.740728 0)
(9.45571 -0.429402 0)
(9.22435 -0.222141 0)
(9.00625 -0.106373 0)
(8.81396 -0.0457824 0)
(8.64682 -0.0151002 0)
(8.5045 0.000545781 0)
(8.38242 0.00848973 0)
(8.27935 0.0124068 0)
(8.19023 0.0141528 0)
(8.11337 0.0152289 0)
(8.04532 0.0157199 0)
(7.9847 0.0160897 0)
(7.92846 0.0165511 0)
(7.87836 0.0171915 0)
(7.81284 0.0206703 0)
(7.80235 0.0226029 0)
(10.0545 0.227688 0)
(10.1213 0.326992 0)
(10.1196 0.261658 0)
(10.0855 0.186625 0)
(10.0433 0.134729 0)
(9.99655 0.101186 0)
(9.94377 0.0793759 0)
(9.88482 0.064666 0)
(9.82334 0.0543966 0)
(9.76053 0.0468579 0)
(9.69883 0.0411768 0)
(9.63854 0.0367482 0)
(9.58075 0.0332904 0)
(9.5256 0.0307694 0)
(9.47261 0.0288336 0)
(9.42414 0.0293268 0)
(9.37329 0.0280003 0)
(9.34316 0.0454844 0)
(10.0035 0.0581585 0)
(10.0305 0.0559584 0)
(10.056 0.0338012 0)
(10.0703 0.0329197 0)
(10.0768 0.0406912 0)
(10.0776 0.0466083 0)
(10.0723 0.0494496 0)
(10.061 0.0504318 0)
(10.0456 0.0503858 0)
(10.0269 0.0497488 0)
(10.0061 0.0488198 0)
(9.98349 0.0478276 0)
(9.95984 0.0469081 0)
(9.93547 0.046292 0)
(9.9105 0.0459425 0)
(9.8859 0.047064 0)
(9.86076 0.0484049 0)
(9.839 0.0565489 0)
(9.99772 0.0109539 0)
(10.0111 0.0266348 0)
(10.035 0.0371536 0)
(10.0524 0.0481132 0)
(10.0642 0.0555057 0)
(10.0732 0.0582659 0)
(10.0792 0.0584749 0)
(10.082 0.0577845 0)
(10.0822 0.0568083 0)
(10.0805 0.0557152 0)
(10.0771 0.0545931 0)
(10.0724 0.053589 0)
(10.0665 0.0527385 0)
(10.0598 0.0522468 0)
(10.0523 0.052112 0)
(10.0445 0.0531411 0)
(10.0367 0.0547723 0)
(10.0303 0.0594784 0)
(9.99935 0.00710706 0)
(10.009 0.0317177 0)
(10.0274 0.0439484 0)
(10.0417 0.049971 0)
(10.0526 0.0536886 0)
(10.0627 0.0553467 0)
(10.0713 0.0556745 0)
(10.0779 0.055447 0)
(10.0829 0.0549923 0)
(10.0865 0.0544126 0)
(10.0891 0.0537832 0)
(10.0907 0.053229 0)
(10.0915 0.0528104 0)
(10.0916 0.0526932 0)
(10.0912 0.0529323 0)
(10.0908 0.0539878 0)
(10.0905 0.0556137 0)
(10.0914 0.0584761 0)
(10.0003 0.00915875 0)
(10.0083 0.03124 0)
(10.0227 0.0409959 0)
(10.0349 0.0454634 0)
(10.0449 0.0491389 0)
(10.0546 0.051513 0)
(10.0635 0.0525489 0)
(10.071 0.0528552 0)
(10.0773 0.0528237 0)
(10.0827 0.0526038 0)
(10.0873 0.0522918 0)
(10.0913 0.0520057 0)
(10.0946 0.0518245 0)
(10.0975 0.0518772 0)
(10.1 0.0522319 0)
(10.1026 0.0531239 0)
(10.1055 0.0544149 0)
(10.1092 0.0560986 0)
(10.0004 0.00893526 0)
(10.0071 0.0271469 0)
(10.019 0.0364775 0)
(10.0301 0.0414802 0)
(10.0395 0.0455376 0)
(10.0485 0.048248 0)
(10.057 0.0495788 0)
(10.0645 0.0501314 0)
(10.0712 0.050319 0)
(10.0771 0.0503 0)
(10.0825 0.050172 0)
(10.0873 0.0500405 0)
(10.0917 0.0499874 0)
(10.0958 0.050108 0)
(10.0996 0.0504582 0)
(10.1035 0.0511384 0)
(10.1078 0.0520336 0)
(10.1127 0.0529375 0)
(10.0004 0.0079144 0)
(10.0059 0.0234302 0)
(10.0161 0.0328097 0)
(10.0262 0.0382074 0)
(10.035 0.0422411 0)
(10.0434 0.0449754 0)
(10.0515 0.0464549 0)
(10.0588 0.0471802 0)
(10.0655 0.0475264 0)
(10.0715 0.047651 0)
(10.0771 0.0476509 0)
(10.0823 0.0476206 0)
(10.0872 0.047637 0)
(10.0918 0.0477687 0)
(10.0963 0.0480516 0)
(10.1008 0.0485085 0)
(10.1056 0.0490298 0)
(10.1109 0.0493859 0)
(10.0004 0.00696675 0)
(10.005 0.0204741 0)
(10.0136 0.0295361 0)
(10.0228 0.034981 0)
(10.0311 0.0388765 0)
(10.039 0.0415953 0)
(10.0466 0.0432022 0)
(10.0537 0.0440748 0)
(10.0602 0.0445459 0)
(10.0662 0.0447776 0)
(10.0719 0.0448666 0)
(10.0772 0.0448983 0)
(10.0822 0.044941 0)
(10.0871 0.045043 0)
(10.0919 0.0452214 0)
(10.0967 0.0454603 0)
(10.1017 0.045656 0)
(10.107 0.0456222 0)
(10.0004 0.00614158 0)
(10.0043 0.0179102 0)
(10.0116 0.026366 0)
(10.0198 0.0317139 0)
(10.0275 0.0354885 0)
(10.035 0.0381771 0)
(10.0422 0.0398691 0)
(10.049 0.0408503 0)
(10.0554 0.0414132 0)
(10.0613 0.0417213 0)
(10.0669 0.0418694 0)
(10.0722 0.0419338 0)
(10.0773 0.0419723 0)
(10.0823 0.0420194 0)
(10.0872 0.0420784 0)
(10.0921 0.0421179 0)
(10.0971 0.0420478 0)
(10.1023 0.0417364 0)
(10.0003 0.00538538 0)
(10.0036 0.0156054 0)
(10.0099 0.0233354 0)
(10.0172 0.0284894 0)
(10.0244 0.0321261 0)
(10.0314 0.0347421 0)
(10.0382 0.036463 0)
(10.0448 0.0375113 0)
(10.0509 0.0381363 0)
(10.0567 0.0384948 0)
(10.0623 0.0386779 0)
(10.0675 0.0387523 0)
(10.0726 0.0387671 0)
(10.0776 0.0387467 0)
(10.0825 0.0386873 0)
(10.0874 0.0385551 0)
(10.0923 0.0382781 0)
(10.0973 0.0377734 0)
(10.0003 0.00472273 0)
(10.0032 0.0136695 0)
(10.0086 0.0206955 0)
(10.0152 0.0255867 0)
(10.0219 0.0290602 0)
(10.0284 0.0315731 0)
(10.0349 0.0332766 0)
(10.0412 0.0343518 0)
(10.0472 0.0350084 0)
(10.0528 0.0353916 0)
(10.0583 0.0355872 0)
(10.0635 0.0356553 0)
(10.0686 0.0356367 0)
(10.0735 0.0355498 0)
(10.0783 0.0353895 0)
(10.0831 0.0351257 0)
(10.0879 0.0347043 0)
(10.0926 0.0340789 0)
(10.0003 0.00410956 0)
(10.0027 0.0119045 0)
(10.0075 0.0182017 0)
(10.0134 0.0227533 0)
(10.0196 0.0260281 0)
(10.0258 0.0284112 0)
(10.0319 0.0300629 0)
(10.038 0.0311353 0)
(10.0437 0.031802 0)
(10.0493 0.0321924 0)
(10.0546 0.0323871 0)
(10.0597 0.0324388 0)
(10.0647 0.0323824 0)
(10.0696 0.0322328 0)
(10.0743 0.0319853 0)
(10.079 0.0316177 0)
(10.0836 0.0310895 0)
(10.0882 0.0303851 0)
(10.0002 0.00347586 0)
(10.0024 0.0100703 0)
(10.0064 0.0155266 0)
(10.0117 0.0196128 0)
(10.0174 0.0226042 0)
(10.0232 0.0247959 0)
(10.0289 0.0263428 0)
(10.0347 0.0273716 0)
(10.0402 0.0280188 0)
(10.0456 0.0283948 0)
(10.0508 0.0285708 0)
(10.0558 0.028593 0)
(10.0607 0.0284897 0)
(10.0654 0.0282749 0)
(10.07 0.0279453 0)
(10.0746 0.0274885 0)
(10.079 0.026877 0)
(10.0833 0.0261192 0)
(10.0002 0.00281745 0)
(10.002 0.00816465 0)
(10.0055 0.0126791 0)
(10.0101 0.0161692 0)
(10.0153 0.0187735 0)
(10.0206 0.0206962 0)
(10.026 0.0220711 0)
(10.0314 0.0230003 0)
(10.0367 0.0235864 0)
(10.0419 0.0239162 0)
(10.0469 0.0240497 0)
(10.0518 0.0240254 0)
(10.0565 0.0238675 0)
(10.0611 0.0235872 0)
(10.0656 0.0231876 0)
(10.0699 0.0226611 0)
(10.0741 0.0219977 0)
(10.0782 0.0212142 0)
(10.0002 0.00213333 0)
(10.0017 0.00618844 0)
(10.0047 0.00966625 0)
(10.0087 0.012425 0)
(10.0134 0.0145207 0)
(10.0183 0.0160785 0)
(10.0233 0.0171986 0)
(10.0284 0.0179574 0)
(10.0334 0.0184268 0)
(10.0384 0.0186688 0)
(10.0432 0.0187305 0)
(10.0479 0.0186414 0)
(10.0524 0.0184215 0)
(10.0568 0.0180812 0)
(10.0611 0.017626 0)
(10.0652 0.0170567 0)
(10.0692 0.0163693 0)
(10.0731 0.0155927 0)
(10.0002 0.00142024 0)
(10.0015 0.00412639 0)
(10.0041 0.00646973 0)
(10.0076 0.00835987 0)
(10.0118 0.00981304 0)
(10.0163 0.0108938 0)
(10.021 0.0116632 0)
(10.0258 0.01217 0)
(10.0305 0.0124573 0)
(10.0352 0.0125648 0)
(10.0398 0.0125218 0)
(10.0443 0.0123507 0)
(10.0487 0.0120638 0)
(10.0529 0.0116721 0)
(10.057 0.0111796 0)
(10.0609 0.0105933 0)
(10.0646 0.00991101 0)
(10.0682 0.00916669 0)
(10.0001 0.00066126 0)
(10.0013 0.00192538 0)
(10.0036 0.00301457 0)
(10.0069 0.00389065 0)
(10.0107 0.00455624 0)
(10.0149 0.00503358 0)
(10.0193 0.00534503 0)
(10.0238 0.00550955 0)
(10.0283 0.00554455 0)
(10.0328 0.00546618 0)
(10.0372 0.00528698 0)
(10.0415 0.00501674 0)
(10.0456 0.00466183 0)
(10.0497 0.00422784 0)
(10.0535 0.00371866 0)
(10.0572 0.00313953 0)
(10.0608 0.00249162 0)
(10.0641 0.00180356 0)
(10.0001 -0.000186672 0)
(10.0013 -0.000538177 0)
(10.0035 -0.0008737 0)
(10.0066 -0.00117572 0)
(10.0103 -0.00144258 0)
(10.0144 -0.00168795 0)
(10.0186 -0.00193171 0)
(10.023 -0.00218596 0)
(10.0273 -0.00246118 0)
(10.0317 -0.00276338 0)
(10.0359 -0.00310065 0)
(10.04 -0.0034761 0)
(10.044 -0.00389425 0)
(10.0478 -0.00435505 0)
(10.0515 -0.00486041 0)
(10.055 -0.00540754 0)
(10.0584 -0.00599791 0)
(10.0616 -0.0066086 0)
(10.0001 -0.00099818 0)
(10.0013 -0.00290476 0)
(10.0037 -0.00461425 0)
(10.007 -0.00603918 0)
(10.0109 -0.00717464 0)
(10.0151 -0.00808198 0)
(10.0194 -0.00882242 0)
(10.0238 -0.00944085 0)
(10.0282 -0.00997096 0)
(10.0325 -0.0104479 0)
(10.0367 -0.0108959 0)
(10.0408 -0.0113354 0)
(10.0447 -0.0117763 0)
(10.0485 -0.0122302 0)
(10.052 -0.0126999 0)
(10.0555 -0.0131918 0)
(10.0587 -0.013705 0)
(10.0618 -0.0142281 0)
(10.0002 -0.00169767 0)
(10.0015 -0.00497143 0)
(10.0041 -0.00788207 0)
(10.0078 -0.0102211 0)
(10.012 -0.012008 0)
(10.0165 -0.0133947 0)
(10.0211 -0.0144871 0)
(10.0257 -0.0153446 0)
(10.0302 -0.0160237 0)
(10.0346 -0.016586 0)
(10.0388 -0.0170751 0)
(10.0429 -0.0175232 0)
(10.0468 -0.0179476 0)
(10.0505 -0.0183657 0)
(10.054 -0.0187845 0)
(10.0574 -0.0192124 0)
(10.0606 -0.0196514 0)
(10.0636 -0.0200926 0)
(10.0002 -0.00236132 0)
(10.0017 -0.00701144 0)
(10.0047 -0.0111449 0)
(10.009 -0.0143067 0)
(10.0137 -0.0165974 0)
(10.0186 -0.0183277 0)
(10.0235 -0.0196596 0)
(10.0283 -0.0206635 0)
(10.033 -0.0214234 0)
(10.0375 -0.0220192 0)
(10.0418 -0.022511 0)
(10.0459 -0.0229334 0)
(10.0498 -0.0233171 0)
(10.0535 -0.023678 0)
(10.0571 -0.024034 0)
(10.0604 -0.0243881 0)
(10.0635 -0.0247508 0)
(10.0665 -0.0251093 0)
(10.0002 -0.00298148 0)
(10.0018 -0.00907569 0)
(10.0054 -0.0144277 0)
(10.0105 -0.0183127 0)
(10.0159 -0.0210536 0)
(10.0212 -0.0230753 0)
(10.0264 -0.0245333 0)
(10.0315 -0.0255542 0)
(10.0364 -0.0262927 0)
(10.041 -0.0268592 0)
(10.0454 -0.027311 0)
(10.0496 -0.0276844 0)
(10.0536 -0.0280094 0)
(10.0573 -0.028309 0)
(10.0608 -0.0285972 0)
(10.0641 -0.0288828 0)
(10.0672 -0.0291708 0)
(10.0702 -0.029457 0)
(10.0001 -0.00352636 0)
(10.0018 -0.0115378 0)
(10.0063 -0.0178739 0)
(10.0123 -0.0219682 0)
(10.0183 -0.0250329 0)
(10.0241 -0.0274428 0)
(10.0297 -0.0290841 0)
(10.0351 -0.0301009 0)
(10.0402 -0.0307641 0)
(10.045 -0.0312395 0)
(10.0495 -0.0315944 0)
(10.0537 -0.0318711 0)
(10.0577 -0.0321019 0)
(10.0615 -0.0323133 0)
(10.065 -0.0325163 0)
(10.0683 -0.0327213 0)
(10.0714 -0.0329279 0)
(10.0742 -0.033136 0)
(9.99991 -0.00337108 0)
(10.0016 -0.0149739 0)
(10.0073 -0.0227226 0)
(10.0143 -0.0262284 0)
(10.0206 -0.0288123 0)
(10.0269 -0.0311781 0)
(10.0331 -0.0329025 0)
(10.0391 -0.0339967 0)
(10.0445 -0.0347058 0)
(10.0495 -0.0351826 0)
(10.0541 -0.0354985 0)
(10.0584 -0.0357078 0)
(10.0624 -0.0358566 0)
(10.0661 -0.0359754 0)
(10.0695 -0.0360831 0)
(10.0726 -0.0361892 0)
(10.0755 -0.0362983 0)
(10.0782 -0.0364083 0)
(9.99859 -0.000379101 0)
(9.99904 -0.0157881 0)
(10.0076 -0.0274245 0)
(10.0166 -0.0324784 0)
(10.0238 -0.0348541 0)
(10.0307 -0.0362108 0)
(10.0377 -0.0369657 0)
(10.0442 -0.0374384 0)
(10.0499 -0.0377952 0)
(10.055 -0.0380529 0)
(10.0596 -0.0382119 0)
(10.0637 -0.0382992 0)
(10.0672 -0.0383422 0)
(10.0704 -0.0383628 0)
(10.0731 -0.0383764 0)
(10.0755 -0.0383914 0)
(10.0776 -0.0384124 0)
(10.0794 -0.0384344 0)
(9.99487 0.00140752 0)
(9.99287 -0.00811698 0)
(10.0061 -0.0203219 0)
(10.0202 -0.0322526 0)
(10.0307 -0.0404599 0)
(10.0393 -0.0441349 0)
(10.0468 -0.0450508 0)
(10.0529 -0.0449119 0)
(10.0578 -0.0444521 0)
(10.0617 -0.0438643 0)
(10.0647 -0.0432313 0)
(10.0668 -0.0426098 0)
(10.0683 -0.0420327 0)
(10.0691 -0.0415084 0)
(10.0694 -0.0410464 0)
(10.0692 -0.0406446 0)
(10.0687 -0.0402993 0)
(10.0679 -0.0399852 0)
(9.9947 -0.0305761 0)
(9.99944 -0.0228451 0)
(10.0146 -0.00261258 0)
(10.0304 -0.00189249 0)
(10.0435 -0.0116446 0)
(10.0533 -0.0209119 0)
(10.0594 -0.0272727 0)
(10.0619 -0.0315032 0)
(10.0616 -0.0342829 0)
(10.0591 -0.0359851 0)
(10.0551 -0.0369263 0)
(10.0498 -0.0373701 0)
(10.0435 -0.037508 0)
(10.0365 -0.0374596 0)
(10.0289 -0.0373143 0)
(10.0209 -0.03713 0)
(10.0127 -0.0369704 0)
(10.0045 -0.0368032 0)
(10.0274 -0.183006 0)
(10.0766 -0.288322 0)
(10.0871 -0.247817 0)
(10.0777 -0.186554 0)
(10.0664 -0.140317 0)
(10.0538 -0.108237 0)
(10.0365 -0.0858906 0)
(10.0146 -0.0704336 0)
(9.98942 -0.0596645 0)
(9.96239 -0.0518926 0)
(9.93442 -0.0460756 0)
(9.90609 -0.0415837 0)
(9.87791 -0.038035 0)
(9.85019 -0.0351678 0)
(9.82317 -0.0328151 0)
(9.79697 -0.0309033 0)
(9.77183 -0.0293999 0)
(9.74779 -0.0285996 0)
(9.93575 0.689542 0)
(9.86828 0.609597 0)
(9.7646 0.380609 0)
(9.62665 0.217414 0)
(9.48592 0.119246 0)
(9.35725 0.063164 0)
(9.24274 0.031551 0)
(9.14116 0.0135985 0)
(9.0515 0.00324335 0)
(8.97251 -0.00282013 0)
(8.90258 -0.00637693 0)
(8.84037 -0.0084985 0)
(8.78463 -0.00974943 0)
(8.73446 -0.0105129 0)
(8.68897 -0.0109995 0)
(8.64754 -0.0112828 0)
(8.60924 -0.0115161 0)
(8.57378 -0.0121645 0)
(0.0127649 -0.0237451 -6.30335e-19)
(0.0292663 -0.0240514 3.43275e-19)
(0.0395727 -0.0149201 0)
(0.0439957 -0.00364655 0)
(0.0411964 0.00636738 0)
(0.0322961 0.0139659 -1.38919e-19)
(0.0188543 0.0191285 0)
(0.0020249 0.022286 0)
(-0.0174139 0.0239284 0)
(-0.0389062 0.0246229 0)
(-0.0618346 0.0248602 8.96329e-20)
(-0.0856859 0.024804 0)
(-0.110106 0.0252244 0)
(-0.13506 0.0268723 0)
(-0.161329 0.0296304 0)
(-0.189678 0.0330816 6.4432e-20)
(-0.219871 0.0381088 0)
(-0.252399 0.0431671 0)
(-0.286771 0.0508145 0)
(-0.322679 0.0603985 0)
(-0.362436 0.0787279 0)
(-0.403521 0.107423 0)
(-0.452973 0.091721 0)
(-0.505421 0.0427925 1.0222e-19)
(-0.542365 0.04317 -9.57183e-20)
(-0.586162 0.0458278 9.00567e-20)
(-0.632202 0.0477283 8.50617e-20)
(-0.679573 0.0485812 0)
(-0.727465 0.0487834 0)
(-0.775496 0.0485778 -7.31581e-20)
(-0.823388 0.0481161 -6.99987e-20)
(-0.870961 0.0474683 0)
(-0.918086 0.0467007 0)
(-0.964671 0.0458438 -6.2266e-20)
(-1.01065 0.0449398 0)
(-1.056 0.0440041 0)
(-1.10069 0.0430695 5.64719e-20)
(-1.14473 0.0421415 0)
(-1.18811 0.041241 5.33622e-20)
(-1.23087 0.0403642 1.03962e-19)
(-1.27302 0.0395272 0)
(-1.31459 0.0387223 0)
(-1.35559 0.0379613 0)
(-1.39606 0.0372335 0)
(-1.43602 0.0365479 0)
(-1.4755 0.0358916 9.08474e-20)
(-1.51451 0.035272 8.90872e-20)
(-1.55308 0.0346753 8.74154e-20)
(-1.59122 0.0341077 0)
(-1.62894 0.033555 -8.43078e-20)
(-1.66624 0.0330228 0)
(-1.70312 0.0324949 8.14655e-20)
(-1.73958 0.0319733 8.01305e-20)
(-1.7756 0.0314434 0)
(-1.81115 0.0309094 0)
(-1.84623 0.0303577 0)
(-1.88079 0.029792 7.52567e-20)
(-1.91481 0.0291996 0)
(-1.94824 0.0285835 0)
(-1.98104 0.0279307 0)
(-2.01315 0.0272434 0)
(-2.04453 0.0265105 0)
(-2.0751 0.0257326 0)
(-2.10481 0.0248988 0)
(-2.13358 0.0240088 0)
(-2.16133 0.0230522 -6.60885e-20)
(-2.18799 0.0220256 0)
(-2.21347 0.0209193 0)
(-2.23768 0.0197267 6.33176e-20)
(-2.26051 0.0184386 6.24028e-20)
(-2.28187 0.017046 0)
(-2.30164 0.0155415 -6.05691e-20)
(-2.31971 0.0139168 5.96452e-20)
(-2.33594 0.012173 0)
(-2.35021 0.01031 -5.77742e-20)
(-2.36237 0.00835025 0)
(-2.37227 0.00632272 0)
(-2.37972 0.00426464 5.48863e-20)
(-2.38458 0.00219348 0)
(-2.38665 0.000216822 -5.28259e-20)
(-2.38644 -0.0016572 0)
(-2.3839 -0.00351122 5.05689e-20)
(-2.37904 -0.00538321 4.93684e-20)
(-2.37183 -0.00727334 4.81148e-20)
(-2.36225 -0.00919176 9.36059e-20)
(-2.35029 -0.0111262 -9.08587e-20)
(-2.33595 -0.0130788 0)
(-2.31925 -0.0150327 0)
(-2.30021 -0.0169775 0)
(-2.27887 -0.0189002 -7.84838e-20)
(-2.25525 -0.0207599 -7.50269e-20)
(-2.22939 -0.0225626 7.14185e-20)
(-2.20138 -0.0242805 0)
(-2.17133 -0.0259141 -6.37421e-20)
(-2.13936 -0.0274407 -5.96739e-20)
(-2.10559 -0.0288554 -5.54543e-20)
(-2.07017 -0.0301306 0)
(-2.03326 -0.0312463 0)
(-1.99504 -0.0322272 0)
(-1.95568 -0.0330106 -3.71679e-20)
(-1.91541 -0.0336596 0)
(-1.87436 -0.034166 0)
(-1.83278 -0.0344076 2.223e-20)
(-1.79089 -0.0344853 0)
(-1.74894 -0.0343802 0)
(-1.70715 -0.0341036 6.6075e-21)
(-1.66574 -0.0336669 0)
(-1.62492 -0.0330628 0)
(-1.58488 -0.0323133 9.23316e-21)
(-1.54582 -0.0314123 1.44773e-20)
(-1.50788 -0.030388 0)
(-1.47122 -0.0292362 -2.48017e-20)
(-1.43598 -0.0279863 0)
(-1.40226 -0.0266362 3.47896e-20)
(-1.37015 -0.025213 0)
(-1.33975 -0.0237161 4.43065e-20)
(-1.31108 -0.0221748 4.88499e-20)
(-1.28418 -0.0205943 0)
(-1.25905 -0.0190037 0)
(-1.23568 -0.0174169 0)
(-1.21403 -0.0158652 0)
(-1.19405 -0.0143609 0)
(-1.17566 -0.0129116 0)
(-1.15876 -0.0115227 0)
(-1.14324 -0.010204 7.87921e-20)
(-1.12897 -0.00896625 -8.16807e-20)
(-1.1158 -0.00781435 0)
(-1.10358 -0.0067664 0)
(-1.09213 -0.00581748 0)
(-1.08127 -0.0049877 0)
(-1.07081 -0.00426214 -1.87466e-19)
(-1.06057 -0.00365636 0)
(-1.05034 -0.00315362 1.95452e-19)
(-1.03992 -0.00278219 -1.99239e-19)
(-1.02912 -0.00251421 0)
(-1.01775 -0.00237358 0)
(-1.00561 -0.00232588 0)
(-0.992496 -0.0023852 2.14218e-19)
(-0.978204 -0.00252148 2.18213e-19)
(-0.962594 -0.00277022 0)
(-0.945588 -0.00313381 2.26901e-19)
(-0.927074 -0.00363416 2.31709e-19)
(-0.906914 -0.00426376 -2.36919e-19)
(-0.884936 -0.00501113 0)
(-0.860991 -0.00585959 0)
(-0.834962 -0.00680126 -2.55897e-19)
(-0.806754 -0.00782665 0)
(-0.77629 -0.00892995 0)
(-0.743508 -0.010102 0)
(-0.70836 -0.0113384 0)
(-0.670816 -0.0126295 3.05072e-19)
(-0.630859 -0.0139706 3.18733e-19)
(-0.588492 -0.0153568 0)
(-0.543724 -0.0167923 3.51284e-19)
(-0.496582 -0.0182715 0)
(-0.447098 -0.0198009 0)
(-0.39531 -0.0213786 4.16911e-19)
(-0.341269 -0.0230052 0)
(-0.284993 -0.0247033 4.75758e-19)
(-0.226535 -0.0265518 0)
(-0.165994 -0.0285429 0)
(-0.1036 -0.0305581 5.97366e-19)
(-0.0393818 -0.0323831 0)
(0.0260047 -0.0333008 6.53897e-19)
(0.0933994 -0.0335295 0)
(0.163352 -0.033836 0)
(0.235687 -0.0341724 0)
(0.310342 -0.0345077 -5.88864e-19)
(0.387199 -0.0348076 0)
(0.466087 -0.0350535 5.64298e-19)
(0.54676 -0.0352122 0)
(0.628917 -0.0352558 0)
(0.712212 -0.0351631 0)
(0.796121 -0.0348897 0)
(0.8801 -0.034355 0)
(0.963004 -0.0334385 0)
(1.0443 -0.0317732 0)
(1.11672 -0.0285969 -1.01661e-18)
(1.1899 -0.0215548 0)
(1.187 0.00147116 0)
(0.0062709 -0.0600202 1.4059e-18)
(0.0118798 -0.0415441 -6.06783e-19)
(0.0099267 -0.0190251 0)
(0.0040417 0.00186252 1.8173e-19)
(-0.00540619 0.0198705 0)
(-0.0183757 0.0345406 6.76357e-20)
(-0.0346472 0.0459646 -1.23648e-19)
(-0.0540598 0.0545927 -1.15102e-19)
(-0.0764449 0.0610389 0)
(-0.101565 0.0659362 -1.02699e-19)
(-0.129098 0.0698389 -4.88894e-20)
(-0.158911 0.0730715 0)
(-0.191026 0.0758934 0)
(-0.225465 0.0789619 0)
(-0.262263 0.0828755 0)
(-0.301314 0.0875874 -4.0651e-20)
(-0.342244 0.0927627 0)
(-0.385282 0.0978377 7.74849e-20)
(-0.430392 0.102305 0)
(-0.478094 0.10713 0)
(-0.525719 0.112883 -7.53281e-20)
(-0.570997 0.119204 0)
(-0.618511 0.12266 7.93605e-20)
(-0.669209 0.122566 -3.9186e-20)
(-0.721113 0.123792 3.77491e-20)
(-0.770188 0.124689 -3.63759e-20)
(-0.817392 0.124779 -3.51067e-20)
(-0.863405 0.124124 0)
(-0.908496 0.122856 0)
(-0.952768 0.121124 3.18792e-20)
(-0.996251 0.119062 -3.07417e-20)
(-1.03895 0.116765 0)
(-1.08088 0.114323 0)
(-1.12205 0.111794 2.86453e-20)
(-1.16247 0.109237 0)
(-1.20217 0.106685 0)
(-1.24118 0.104176 -2.6806e-20)
(-1.27952 0.101725 0)
(-1.31722 0.0993545 2.55746e-20)
(-1.35431 0.0970666 -5.06313e-20)
(-1.39082 0.0948732 0)
(-1.42677 0.0927669 0)
(-1.46218 0.090753 -9.58937e-20)
(-1.49709 0.0888186 -9.44122e-20)
(-1.53149 0.0869645 -9.30019e-20)
(-1.56541 0.0851744 4.56292e-20)
(-1.59885 0.0834467 -4.53799e-20)
(-1.63182 0.0817632 -1.33885e-19)
(-1.66432 0.0801211 8.7931e-20)
(-1.69634 0.0785018 4.35802e-20)
(-1.72788 0.0769024 0)
(-1.75893 0.0753038 -4.24688e-20)
(-1.78946 0.0737029 4.15609e-20)
(-1.81945 0.0720828 0)
(-1.84888 0.0704406 0)
(-1.87772 0.0687595 0)
(-1.90594 0.0670368 -3.99156e-20)
(-1.93349 0.0652571 0)
(-1.96033 0.0634184 7.75671e-20)
(-1.98642 0.0615065 0)
(-2.0117 0.0595198 7.56929e-20)
(-2.03613 0.0574461 0)
(-2.05965 0.0552837 -7.38355e-20)
(-2.0822 0.0530225 0)
(-2.10371 0.0506606 7.19757e-20)
(-2.12413 0.0481899 -3.53864e-20)
(-2.14338 0.0456083 0)
(-2.1614 0.0429095 -6.91387e-20)
(-2.17812 0.0400902 -3.41942e-20)
(-2.19348 0.0371453 -3.36923e-20)
(-2.20739 0.0340697 0)
(-2.21979 0.0308602 -3.2501e-20)
(-2.23062 0.0275093 -3.21191e-20)
(-2.23982 0.0240157 0)
(-2.24735 0.0203729 3.10022e-20)
(-2.25318 0.0165892 -6.07977e-20)
(-2.25731 0.0126813 0)
(-2.25979 0.00870205 -2.92125e-20)
(-2.26066 0.00471368 0)
(-2.26001 0.000813142 8.37587e-20)
(-2.25742 -0.00300026 0)
(-2.25276 -0.00677953 -7.95491e-20)
(-2.24594 -0.0105508 -2.57183e-20)
(-2.23692 -0.0143041 2.51442e-20)
(-2.22566 -0.018039 4.87455e-20)
(-2.21214 -0.0217354 -4.71436e-20)
(-2.19637 -0.0253881 0)
(-2.17836 -0.0289774 0)
(-2.15815 -0.0324917 0)
(-2.1358 -0.0358967 1.18366e-19)
(-2.11134 -0.0391541 3.71187e-20)
(-2.08484 -0.0422349 -3.50459e-20)
(-2.05636 -0.0451073 0)
(-2.02603 -0.0477662 -3.2056e-20)
(-1.99395 -0.0501822 2.84851e-20)
(-1.96028 -0.0523492 2.61942e-20)
(-1.92515 -0.0542367 0)
(-1.88874 -0.0558407 0)
(-1.8512 -0.0571396 0)
(-1.81274 -0.0581416 1.66279e-20)
(-1.77353 -0.0588149 0)
(-1.73378 -0.0591613 -2.51653e-20)
(-1.69371 -0.0591762 -2.94229e-20)
(-1.6535 -0.0588737 1.52515e-20)
(-1.61338 -0.0582825 0)
(-1.57357 -0.0574082 3.5758e-21)
(-1.53427 -0.0562799 0)
(-1.49567 -0.0549058 -4.40257e-21)
(-1.45794 -0.0533158 3.74314e-21)
(-1.42124 -0.051519 6.12336e-21)
(-1.38571 -0.0495504 0)
(-1.35148 -0.0474219 3.53468e-20)
(-1.31864 -0.0451719 -2.746e-20)
(-1.2873 -0.0428166 -1.65722e-20)
(-1.25752 -0.0403961 0)
(-1.22934 -0.0379278 -2.05738e-20)
(-1.2028 -0.0354487 -6.62319e-20)
(-1.17789 -0.0329731 0)
(-1.15461 -0.0305367 -5.10154e-20)
(-1.1329 -0.0281625 -5.43902e-20)
(-1.11273 -0.0258912 -5.75944e-20)
(-1.09401 -0.0237435 0)
(-1.07667 -0.0217425 0)
(-1.06059 -0.0198978 0)
(-1.04565 -0.0182233 3.40878e-20)
(-1.0317 -0.016731 3.56803e-20)
(-1.01859 -0.0154298 0)
(-1.00616 -0.0143333 7.51076e-20)
(-0.994239 -0.0134416 7.6939e-20)
(-0.982636 -0.0127668 0)
(-0.971172 -0.0122994 8.02513e-20)
(-0.959654 -0.0120507 1.63146e-19)
(-0.947889 -0.0120009 -8.28669e-20)
(-0.935683 -0.0121633 -8.40737e-20)
(-0.922846 -0.0125147 0)
(-0.909195 -0.0130663 0)
(-0.894544 -0.013787 0)
(-0.8787 -0.0146706 -8.78265e-20)
(-0.861476 -0.0156871 8.89291e-20)
(-0.842725 -0.0168418 1.79285e-19)
(-0.82234 -0.0181469 -9.0351e-20)
(-0.800216 -0.0196109 9.14716e-20)
(-0.776226 -0.0212377 9.21183e-20)
(-0.750222 -0.0229904 0)
(-0.722068 -0.0248526 0)
(-0.691651 -0.0267882 -9.54205e-20)
(-0.658874 -0.0287919 0)
(-0.623659 -0.0308318 0)
(-0.585943 -0.0329037 1.99262e-19)
(-0.545678 -0.03498 0)
(-0.502829 -0.0370604 1.03323e-19)
(-0.457378 -0.0391173 -1.05886e-19)
(-0.409317 -0.041153 0)
(-0.358653 -0.0431532 1.10856e-19)
(-0.305401 -0.0451165 0)
(-0.249581 -0.0470327 0)
(-0.191227 -0.0489268 -1.22256e-19)
(-0.130378 -0.0507888 2.52313e-19)
(-0.0670676 -0.0526147 -1.3154e-19)
(-0.00155889 -0.0542867 0)
(0.0661866 -0.0557778 0)
(0.136387 -0.0571805 1.38062e-19)
(0.209178 -0.0585456 0)
(0.28447 -0.0598542 1.42414e-19)
(0.361928 -0.0610931 0)
(0.441272 -0.0622944 0)
(0.522382 -0.0634054 0)
(0.605127 -0.0643932 1.56008e-19)
(0.689348 -0.0652169 0)
(0.774855 -0.0658444 -1.6269e-19)
(0.861414 -0.0662352 0)
(0.948742 -0.0663494 0)
(1.0365 -0.0661331 3.44241e-19)
(1.12425 -0.0655137 -3.51498e-19)
(1.21144 -0.0643347 0)
(1.29709 -0.0623543 0)
(1.38041 -0.0588442 0)
(1.45698 -0.0526652 1.15032e-18)
(1.53131 -0.0392224 0)
(1.57066 -0.00529507 -8.25451e-19)
(-0.00459537 -0.0623933 -1.20473e-21)
(-0.0091793 -0.0288327 5.96953e-19)
(-0.0196459 0.000991265 0)
(-0.0330813 0.0273899 -2.46221e-19)
(-0.0487699 0.0503584 0)
(-0.0665199 0.0701037 0)
(-0.0864358 0.0868504 -7.37995e-23)
(-0.108719 0.100936 7.78025e-20)
(-0.133525 0.112805 7.42918e-20)
(-0.160911 0.122953 7.13524e-20)
(-0.19081 0.131856 0)
(-0.223106 0.139896 0)
(-0.257733 0.147411 -6.44637e-20)
(-0.294597 0.154794 -1.24672e-19)
(-0.333392 0.162371 1.20641e-19)
(-0.373656 0.170181 0)
(-0.414953 0.177989 1.13305e-19)
(-0.457004 0.185411 -5.51284e-20)
(-0.499639 0.192102 0)
(-0.542345 0.197967 1.03887e-19)
(-0.584255 0.202949 5.07883e-20)
(-0.624877 0.206529 -9.90797e-20)
(-0.665208 0.206917 -4.8534e-20)
(-0.706348 0.204694 0)
(-0.747985 0.202687 9.12008e-20)
(-0.789051 0.200631 8.84178e-20)
(-0.829315 0.198228 0)
(-0.86879 0.195383 8.33448e-20)
(-0.907547 0.192119 0)
(-0.945647 0.188514 7.89153e-20)
(-0.983135 0.184659 3.85638e-20)
(-1.02004 0.180636 0)
(-1.05639 0.176525 0)
(-1.0922 0.172388 0)
(-1.12748 0.16828 0)
(-1.16225 0.164239 0)
(-1.19652 0.160296 0)
(-1.23032 0.15647 6.63347e-20)
(-1.26365 0.152776 -9.78829e-20)
(-1.29652 0.149217 0)
(-1.32896 0.145797 0)
(-1.36096 0.142511 0)
(-1.39255 0.139352 2.124e-22)
(-1.42372 0.136309 6.05347e-20)
(-1.45449 0.133372 1.19188e-19)
(-1.48486 0.130524 -1.1759e-19)
(-1.51482 0.127753 -5.79215e-20)
(-1.54438 0.125041 5.7394e-20)
(-1.57354 0.122374 -2.10473e-22)
(-1.60228 0.119734 5.57759e-20)
(-1.6306 0.117106 0)
(-1.65848 0.114474 5.44463e-20)
(-1.6859 0.111824 -2.03426e-22)
(-1.71284 0.109139 0)
(-1.73929 0.106407 0)
(-1.7652 0.103612 -5.19482e-20)
(-1.79055 0.100743 0)
(-1.8153 0.0977852 0)
(-1.83942 0.0947279 4.99727e-20)
(-1.86286 0.0915592 9.91265e-20)
(-1.88557 0.0882703 -4.91437e-20)
(-1.90752 0.0848507 0)
(-1.92865 0.0812929 4.79447e-20)
(-1.94891 0.0775881 0)
(-1.96823 0.0737305 4.64394e-20)
(-1.98657 0.0697135 4.6108e-20)
(-2.00386 0.0655327 -9.07061e-20)
(-2.02004 0.0611842 -4.46068e-20)
(-2.03505 0.0566656 0)
(-2.04883 0.0519755 8.68588e-20)
(-2.06131 0.0471144 0)
(-2.07243 0.0420857 1.26303e-19)
(-2.08214 0.0368951 8.27542e-20)
(-2.09037 0.0315543 8.13166e-20)
(-2.09709 0.0260784 -7.98405e-20)
(-2.10225 0.0204924 1.17491e-19)
(-2.10579 0.014824 0)
(-2.10767 0.00910245 0)
(-2.10779 0.00334061 -7.34353e-20)
(-2.10609 -0.00247042 -1.07401e-19)
(-2.10247 -0.0083351 0)
(-2.09684 -0.0142279 3.38344e-20)
(-2.08917 -0.0201282 0)
(-2.07941 -0.0260086 -9.56709e-20)
(-2.06753 -0.0318465 3.72513e-22)
(-2.05353 -0.0376117 -4.23718e-22)
(-2.03738 -0.0432794 5.73519e-20)
(-2.01913 -0.0488193 0)
(-1.9988 -0.0542016 -5.26292e-20)
(-1.97646 -0.059383 6.35078e-22)
(-1.95215 -0.0643147 0)
(-1.92593 -0.0689492 0)
(-1.89789 -0.073254 0)
(-1.86812 -0.0771954 3.87895e-20)
(-1.83676 -0.0807482 0)
(-1.80394 -0.0838827 0)
(-1.76979 -0.0865757 0)
(-1.73449 -0.0888041 0)
(-1.69821 -0.0905543 0)
(-1.66113 -0.0918154 2.22415e-20)
(-1.62341 -0.0925774 0)
(-1.58528 -0.0928389 1.51712e-20)
(-1.54691 -0.0925973 1.21507e-20)
(-1.5085 -0.0918679 -9.14123e-21)
(-1.47025 -0.0906884 0)
(-1.43237 -0.0890942 -3.19084e-21)
(-1.39503 -0.0871104 0)
(-1.35842 -0.0847716 2.60953e-21)
(-1.32269 -0.0821089 -5.43492e-21)
(-1.28798 -0.0791607 -2.26902e-20)
(-1.25441 -0.0759637 0)
(-1.22209 -0.0725592 -3.88298e-20)
(-1.19111 -0.0689876 -1.44027e-20)
(-1.16154 -0.0652927 0)
(-1.13344 -0.0615182 -4.03989e-20)
(-1.10684 -0.0577074 -4.50978e-20)
(-1.08175 -0.0539021 7.50765e-20)
(-1.05816 -0.0501409 0)
(-1.03605 -0.0464653 2.95921e-20)
(-1.01536 -0.0429165 3.15116e-20)
(-0.996042 -0.0395403 9.91001e-20)
(-0.978017 -0.0363715 0)
(-0.961192 -0.03344 0)
(-0.945453 -0.0307649 0)
(-0.930674 -0.0283661 3.90804e-20)
(-0.916711 -0.0262585 0)
(-0.903412 -0.0244577 0)
(-0.890613 -0.0229745 -4.32541e-20)
(-0.878147 -0.0218167 -4.42877e-20)
(-0.865836 -0.0209883 0)
(-0.853502 -0.0204885 0)
(-0.840959 -0.0203152 -9.3779e-20)
(-0.82802 -0.0204588 0)
(-0.814501 -0.0209146 9.65176e-20)
(-0.800216 -0.0216683 9.77741e-20)
(-0.784991 -0.0227111 0)
(-0.768643 -0.0240178 0)
(-0.750996 -0.0255622 -1.0085e-19)
(-0.731874 -0.0273217 1.37625e-22)
(-0.711135 -0.0292893 1.40746e-22)
(-0.688662 -0.0314754 0)
(-0.664351 -0.0338835 -2.08419e-19)
(-0.638077 -0.0365055 0)
(-0.60971 -0.0393016 0)
(-0.579123 -0.0422415 0)
(-0.546211 -0.0452842 1.07987e-19)
(-0.51088 -0.0484094 0)
(-0.473057 -0.0515793 -2.21028e-19)
(-0.432679 -0.0547743 -1.12035e-19)
(-0.389702 -0.0579626 0)
(-0.344093 -0.0611322 -1.1566e-19)
(-0.295834 -0.06425 0)
(-0.244919 -0.0673066 0)
(-0.191356 -0.0702908 -3.68317e-19)
(-0.135166 -0.0731994 2.51284e-19)
(-0.0763665 -0.0760107 0)
(-0.0150504 -0.0787081 2.64429e-19)
(0.048712 -0.0812565 -1.35396e-19)
(0.11496 -0.0836702 0)
(0.183695 -0.0860011 0)
(0.254892 -0.0882786 0)
(0.328486 -0.0904657 -4.36442e-19)
(0.404401 -0.0925474 0)
(0.482543 -0.0945654 -1.53062e-19)
(0.562671 -0.0965018 0)
(0.644568 -0.0983163 0)
(0.728062 -0.0999644 0)
(0.812979 -0.101407 0)
(0.899128 -0.102593 0)
(0.986298 -0.10348 0)
(1.07424 -0.104008 -3.6761e-19)
(1.16267 -0.104121 0)
(1.25125 -0.103733 -1.95869e-19)
(1.33955 -0.102727 6.00979e-19)
(1.42705 -0.100875 0)
(1.51289 -0.0977997 0)
(1.59639 -0.0926087 -4.33737e-19)
(1.67464 -0.0837913 -4.48778e-19)
(1.75139 -0.0669745 4.60348e-19)
(1.80821 -0.0315234 4.84589e-19)
(-0.0140448 -0.0397476 -1.98621e-18)
(-0.0259479 0.0013863 -7.14778e-19)
(-0.0425405 0.0349688 -2.66285e-19)
(-0.0617686 0.0642801 -9.66594e-20)
(-0.0823927 0.0901232 0)
(-0.104143 0.113019 1.4105e-19)
(-0.127218 0.133298 -6.47939e-20)
(-0.151882 0.15125 0)
(-0.178325 0.16719 -5.78894e-20)
(-0.20664 0.181438 0)
(-0.236801 0.194284 1.07458e-19)
(-0.268699 0.205954 0)
(-0.302195 0.21664 5.02155e-20)
(-0.337113 0.226547 9.7175e-20)
(-0.373157 0.235827 -9.40024e-20)
(-0.409935 0.244497 0)
(-0.447063 0.252432 -8.78773e-20)
(-0.484239 0.259408 0)
(-0.521226 0.265204 0)
(-0.557841 0.269723 -7.92724e-20)
(-0.593894 0.272902 0)
(-0.629318 0.274443 -4.47269e-23)
(-0.664391 0.274023 0)
(-0.699486 0.271939 0)
(-0.734639 0.269014 -3.71619e-23)
(-0.769624 0.265543 -6.61624e-20)
(-0.804282 0.261616 -6.42844e-20)
(-0.838543 0.257282 -6.26455e-20)
(-0.872388 0.252601 0)
(-0.905819 0.247644 -1.19008e-19)
(-0.938845 0.242489 0)
(-0.971474 0.237214 -5.67301e-20)
(-1.00372 0.231888 0)
(-1.03558 0.226572 0)
(-1.06707 0.221314 5.32501e-20)
(-1.09819 0.216152 0)
(-1.12894 0.211115 -5.12832e-20)
(-1.15934 0.206221 -8.35045e-23)
(-1.18937 0.201483 9.91768e-20)
(-1.21905 0.196905 -9.75004e-20)
(-1.24837 0.192489 0)
(-1.27735 0.188228 0)
(-1.30598 0.184114 -4.65138e-20)
(-1.33426 0.180134 0)
(-1.3622 0.176274 -4.5434e-20)
(-1.3898 0.172517 4.48422e-20)
(-1.41704 0.168844 4.4273e-20)
(-1.44394 0.165236 0)
(-1.47047 0.161675 -4.31933e-20)
(-1.49664 0.158139 -4.26783e-20)
(-1.52243 0.154609 8.41717e-20)
(-1.54782 0.151065 -4.16879e-20)
(-1.5728 0.147489 -4.12091e-20)
(-1.59735 0.143861 0)