# vtk DataFile Version 2.0
track0
ASCII
DATASET POLYDATA
POINTS 12080 float
-0.0205 0.001 1e-05
-0.02052 0.000999985 1e-05
-0.02054 0.000999974 1e-05
-0.02056 0.000999965 1e-05
-0.02058 0.000999959 1e-05
-0.0206 0.000999956 1e-05
-0.0205 0.00367778 1e-05
-0.02052 0.00367778 1e-05
-0.02054 0.00367777 1e-05
-0.02056 0.00367777 1e-05
-0.02058 0.00367777 1e-05
-0.0206 0.00367777 1e-05
-0.0205 0.00635556 1e-05
-0.02052 0.00635555 1e-05
-0.02054 0.00635555 1e-05
-0.02056 0.00635555 1e-05
-0.02058 0.00635555 1e-05
-0.0206 0.00635555 1e-05
-0.0205 0.00903333 1e-05
-0.02052 0.00903333 1e-05
-0.02054 0.00903333 1e-05
-0.02056 0.00903333 1e-05
-0.02058 0.00903333 1e-05
-0.0206 0.00903333 1e-05
-0.0205 0.0117111 1e-05
-0.02052 0.0117111 1e-05
-0.02054 0.0117111 1e-05
-0.02056 0.0117111 1e-05
-0.02058 0.0117111 1e-05
-0.0206 0.0117111 1e-05
-0.0205 0.0143889 1e-05
-0.02052 0.0143889 1e-05
-0.02054 0.0143889 1e-05
-0.02056 0.0143889 1e-05
-0.02058 0.0143889 1e-05
-0.0206 0.0143889 1e-05
-0.0205 0.0170667 1e-05
-0.02052 0.0170667 1e-05
-0.02054 0.0170667 1e-05
-0.02056 0.0170667 1e-05
-0.02058 0.0170667 1e-05
-0.0206 0.0170667 1e-05
-0.0205 0.0197444 1e-05
-0.02052 0.0197444 1e-05
-0.02054 0.0197444 1e-05
-0.02056 0.0197444 1e-05
-0.02058 0.0197444 1e-05
-0.0206 0.0197444 1e-05
-0.0205 0.0224222 1e-05
-0.02052 0.0224222 1e-05
-0.02054 0.0224222 1e-05
-0.02056 0.0224222 1e-05
-0.02058 0.0224222 1e-05
-0.0206 0.0224222 1e-05
-0.0205 0.0251 1e-05
-0.02052 0.0250998 1e-05
-0.02054 0.0250997 1e-05
-0.02056 0.0250995 1e-05
-0.02058 0.0250995 1e-05
-0.0206 0.0250994 1e-05
-0.0205 0.001 1e-05
-0.0202034 0.00100022 1e-05
-0.0199069 0.00100067 1e-05
-0.0196103 0.00100132 1e-05
-0.0193137 0.00100219 1e-05
-0.0190172 0.00100326 1e-05
-0.0187132 0.00100466 1e-05
-0.0184093 0.00100588 1e-05
-0.0181054 0.0010071 1e-05
-0.0178015 0.00100832 1e-05
-0.0174976 0.00100954 1e-05
-0.0172058 0.00101083 1e-05
-0.016914 0.00101193 1e-05
-0.0166222 0.00101303 1e-05
-0.0163305 0.00101413 1e-05
-0.0160387 0.00101523 1e-05
-0.0157586 0.00101637 1e-05
-0.0154784 0.00101745 1e-05
-0.0151983 0.00101857 1e-05
-0.0149182 0.00101972 1e-05
-0.0146381 0.00102091 1e-05
-0.0143754 0.0010221 1e-05
-0.0141127 0.00102328 1e-05
-0.01385 0.00102449 1e-05
-0.0135873 0.00102574 1e-05
-0.0133655 0.00102682 1e-05
-0.0133511 0.00102689 1e-05
-0.0133367 0.00102696 1e-05
-0.0133223 0.00102703 1e-05
-0.0133079 0.0010271 1e-05
-0.0132934 0.00102718 1e-05
-0.0130353 0.00102847 1e-05
-0.0127771 0.00102977 1e-05
-0.0125189 0.00103109 1e-05
-0.0122607 0.00103243 1e-05
-0.0120025 0.00103378 1e-05
-0.0117547 0.00103509 1e-05
-0.0115068 0.00103641 1e-05
-0.0112589 0.00103774 1e-05
-0.0110111 0.00103906 1e-05
-0.0107632 0.0010404 1e-05
-0.0105252 0.00104168 1e-05
-0.0102873 0.00104296 1e-05
-0.0100493 0.00104424 1e-05
-0.00981133 0.00104553 1e-05
-0.00957337 0.00104681 1e-05
-0.00934491 0.00104803 1e-05
-0.00911645 0.00104926 1e-05
-0.00888799 0.00105049 1e-05
-0.00865954 0.00105171 1e-05
-0.00843108 0.00105293 1e-05
-0.00821175 0.00105409 1e-05
-0.00799242 0.00105526 1e-05
-0.00777309 0.00105642 1e-05
-0.00755376 0.00105758 1e-05
-0.00733443 0.00105873 1e-05
-0.00712387 0.00105983 1e-05
-0.0069133 0.00106093 1e-05
-0.00670273 0.00106203 1e-05
-0.00649216 0.00106312 1e-05
-0.0062816 0.00106421 1e-05
-0.00607944 0.00106525 1e-05
-0.00587729 0.00106629 1e-05
-0.00567514 0.00106733 1e-05
-0.00547298 0.00106836 1e-05
-0.00527083 0.00106939 1e-05
-0.00507675 0.00107037 1e-05
-0.00488267 0.00107135 1e-05
-0.0046886 0.00107234 1e-05
-0.00449452 0.00107332 1e-05
-0.00430044 0.0010743 1e-05
-0.00411412 0.00107523 1e-05
-0.0039278 0.00107616 1e-05
-0.00374147 0.0010771 1e-05
-0.00355515 0.00107803 1e-05
-0.00336883 0.00107897 1e-05
-0.00318995 0.00107986 1e-05
-0.00301107 0.00108076 1e-05
-0.00283219 0.00108166 1e-05
-0.00265331 0.00108256 1e-05
-0.00247443 0.00108347 1e-05
-0.0023027 0.00108434 1e-05
-0.00213097 0.00108522 1e-05
-0.00195924 0.0010861 1e-05
-0.0017875 0.00108699 1e-05
-0.00161577 0.00108789 1e-05
-0.0014509 0.00108875 1e-05
-0.00128603 0.00108962 1e-05
-0.00112116 0.00109051 1e-05
-0.00095629 0.00109142 1e-05
-0.000791418 0.00109234 1e-05
-0.000633135 0.00109323 1e-05
-0.000474851 0.00109415 1e-05
-0.000316568 0.00109509 1e-05
-0.000158284 0.00109604 1e-05
0 0.00109702 1e-05
0.000105677 0.00109768 1e-05
0.000211355 0.00109835 1e-05
0.000317032 0.00109902 1e-05
0.00042271 0.0010997 1e-05
0.000528387 0.00110037 1e-05
0.000634886 0.00110105 1e-05
0.000741385 0.00110173 1e-05
0.000847885 0.0011024 1e-05
0.000954384 0.00110306 1e-05
0.00106088 0.00110371 1e-05
0.00116821 0.00110436 1e-05
0.00127554 0.001105 1e-05
0.00138286 0.00110563 1e-05
0.00149019 0.00110624 1e-05
0.00159752 0.00110684 1e-05
0.00170568 0.00110743 1e-05
0.00181384 0.00110801 1e-05
0.001922 0.00110857 1e-05
0.00203016 0.00110913 1e-05
0.00213833 0.00110966 1e-05
0.00224733 0.00111019 1e-05
0.00235633 0.00111071 1e-05
0.00246533 0.00111121 1e-05
0.00257434 0.00111171 1e-05
0.00268334 0.00111219 1e-05
0.00279319 0.00111265 1e-05
0.00290304 0.00111312 1e-05
0.00301289 0.00111357 1e-05
0.00312274 0.001114 1e-05
0.00323259 0.00111443 1e-05
0.00334329 0.00111484 1e-05
0.003454 0.00111525 1e-05
0.0035647 0.00111564 1e-05
0.0036754 0.00111603 1e-05
0.00378611 0.0011164 1e-05
0.00389767 0.00111675 1e-05
0.00400924 0.0011171 1e-05
0.0041208 0.00111744 1e-05
0.00423237 0.00111777 1e-05
0.00434393 0.00111809 1e-05
0.00445636 0.00111839 1e-05
0.00456879 0.00111869 1e-05
0.00468123 0.00111897 1e-05
0.00479366 0.00111925 1e-05
0.00490609 0.00111951 1e-05
0.0050194 0.00111976 1e-05
0.0051327 0.00112 1e-05
0.00524601 0.00112023 1e-05
0.00535932 0.00112045 1e-05
0.00547262 0.00112066 1e-05
0.00558681 0.00112086 1e-05
0.005701 0.00112104 1e-05
0.00581518 0.00112122 1e-05
0.00592937 0.00112139 1e-05
0.00604356 0.00112155 1e-05
0.00615863 0.00112169 1e-05
0.00627371 0.00112182 1e-05
0.00638878 0.00112195 1e-05
0.00650386 0.00112207 1e-05
0.00661893 0.00112217 1e-05
0.0067349 0.00112226 1e-05
0.00685087 0.00112234 1e-05
0.00696684 0.00112242 1e-05
0.00708281 0.00112248 1e-05
0.00719878 0.00112253 1e-05
0.00731565 0.00112257 1e-05
0.00743252 0.0011226 1e-05
0.00754939 0.00112262 1e-05
0.00766626 0.00112263 1e-05
0.00778313 0.00112263 1e-05
0.00789814 0.00112262 1e-05
0.00801314 0.0011226 1e-05
0.00812814 0.00112256 1e-05
0.00824314 0.00112252 1e-05
0.0083503 0.00112247 1e-05
0.00835465 0.00112247 1e-05
0.00835899 0.00112247 1e-05
0.00836334 0.00112247 1e-05
0.00836769 0.00112247 1e-05
0.00837203 0.00112246 1e-05
0.00849073 0.0011224 1e-05
0.00860942 0.00112232 1e-05
0.00872812 0.00112223 1e-05
0.00884682 0.00112214 1e-05
0.00896551 0.00112203 1e-05
0.00908513 0.0011219 1e-05
0.00920475 0.00112177 1e-05
0.00932437 0.00112163 1e-05
0.00944398 0.00112148 1e-05
0.0095636 0.00112131 1e-05
0.00968415 0.00112113 1e-05
0.0098047 0.00112094 1e-05
0.00992525 0.00112074 1e-05
0.0100458 0.00112053 1e-05
0.0101663 0.0011203 1e-05
0.0102878 0.00112006 1e-05
0.0104093 0.00111981 1e-05
0.0105308 0.00111955 1e-05
0.0106523 0.00111928 1e-05
0.0107738 0.001119 1e-05
0.0108962 0.00111869 1e-05
0.0110186 0.00111838 1e-05
0.0111411 0.00111806 1e-05
0.0112635 0.00111773 1e-05
0.0113859 0.00111739 1e-05
0.0115093 0.00111702 1e-05
0.0116327 0.00111664 1e-05
0.0117561 0.00111626 1e-05
0.0118795 0.00111586 1e-05
0.0120028 0.00111546 1e-05
0.0121272 0.00111502 1e-05
0.0122515 0.00111458 1e-05
0.0123759 0.00111413 1e-05
0.0125002 0.00111367 1e-05
0.0126245 0.0011132 1e-05
0.0127498 0.0011127 1e-05
0.0128752 0.00111219 1e-05
0.0130005 0.00111168 1e-05
0.0131258 0.00111115 1e-05
0.0132511 0.0011106 1e-05
0.0133774 0.00111004 1e-05
0.0135036 0.00110946 1e-05
0.0136299 0.00110888 1e-05
0.0137562 0.00110828 1e-05
0.0138825 0.00110766 1e-05
0.0140098 0.00110703 1e-05
0.014137 0.00110638 1e-05
0.0142643 0.00110572 1e-05
0.0143915 0.00110505 1e-05
0.0145188 0.00110437 1e-05
0.0146471 0.00110366 1e-05
0.0147753 0.00110295 1e-05
0.0149036 0.00110221 1e-05
0.0150318 0.00110147 1e-05
0.0151601 0.00110071 1e-05
0.0152893 0.00109993 1e-05
0.0154186 0.00109914 1e-05
0.0155478 0.00109833 1e-05
0.0156771 0.00109751 1e-05
0.0158063 0.00109668 1e-05
0.0159366 0.00109583 1e-05
0.0160668 0.00109496 1e-05
0.0161971 0.00109408 1e-05
0.0163273 0.00109318 1e-05
0.0164576 0.00109227 1e-05
0.0165889 0.00109135 1e-05
0.0167201 0.0010904 1e-05
0.0168514 0.00108944 1e-05
0.0169827 0.00108846 1e-05
0.0171139 0.00108747 1e-05
0.0172462 0.00108647 1e-05
0.0173785 0.00108545 1e-05
0.0175108 0.0010844 1e-05
0.0176431 0.00108334 1e-05
0.0177754 0.00108227 1e-05
0.0179087 0.0010812 1e-05
0.018042 0.00108009 1e-05
0.0181753 0.00107896 1e-05
0.0183087 0.00107781 1e-05
0.018442 0.00107667 1e-05
0.0185763 0.00107551 1e-05
0.0187107 0.00107432 1e-05
0.018845 0.0010731 1e-05
0.0189794 0.00107187 1e-05
0.0191137 0.00107064 1e-05
0.0192491 0.0010694 1e-05
0.0193845 0.00106813 1e-05
0.0195199 0.00106682 1e-05
0.0196553 0.0010655 1e-05
0.0197907 0.00106418 1e-05
0.0199272 0.00106286 1e-05
0.0200636 0.0010615 1e-05
0.0202001 0.0010601 1e-05
0.0203365 0.00105869 1e-05
0.020473 0.00105729 1e-05
0.0206105 0.00105587 1e-05
0.020748 0.00105442 1e-05
0.0208855 0.00105293 1e-05
0.021023 0.00105143 1e-05
0.0211606 0.00104993 1e-05
0.0212991 0.00104843 1e-05
0.0214377 0.00104688 1e-05
0.0215763 0.0010453 1e-05
0.0217149 0.0010437 1e-05
0.0218535 0.00104211 1e-05
0.0219931 0.00104051 1e-05
0.0221328 0.00103887 1e-05
0.0222724 0.00103719 1e-05
0.0224121 0.0010355 1e-05
0.0225517 0.00103381 1e-05
0.0226925 0.00103211 1e-05
0.0228332 0.00103037 1e-05
0.022974 0.0010286 1e-05
0.0231147 0.0010268 1e-05
0.0232555 0.00102501 1e-05
0.0233973 0.00102321 1e-05
0.0235391 0.00102137 1e-05
0.023681 0.00101949 1e-05
0.0238228 0.0010176 1e-05
0.0239647 0.0010157 1e-05
0.0241076 0.00101379 1e-05
0.0242505 0.00101184 1e-05
0.0243935 0.00100986 1e-05
0.0245364 0.00100786 1e-05
0.0246794 0.00100585 1e-05
0.0248234 0.00100383 1e-05
0.0249675 0.00100177 1e-05
0.0251115 0.000999678 1e-05
0.0252556 0.000997567 1e-05
[...]
POINT_DATA 12080
 FIELD attributes 2
p 1 12080 float
-5.6106 -5.60728 -5.60396 -5.60065 -5.59734 -5.59402
-5.76321 -5.76318 -5.76316 -5.76314 -5.76312 -5.7631
-5.93785 -5.93773 -5.93761 -5.93748 -5.93736 -5.93725
-6.0318 -6.03175 -6.0317 -6.03164 -6.03159 -6.03154
-6.07749 -6.07737 -6.07726 -6.07715 -6.07703 -6.07692
-6.08449 -6.08433 -6.08417 -6.08401 -6.08385 -6.08368
-6.0579 -6.05783 -6.05776 -6.05769 -6.05762 -6.05754
-5.98854 -5.9885 -5.98846 -5.98842 -5.98838 -5.98834
-5.86736 -5.86736 -5.86737 -5.86737 -5.86738 -5.86739
-3.65478 -3.67412 -3.69332 -3.71239 -3.73132 -3.75012
-5.6106 -5.60987 -5.60624 -5.60253 -5.59875 -5.59035 -5.60416 -5.6191 -5.63403 -5.64896 -5.67334 -5.69505 -5.72491 -5.75478 -5.78465 -5.81733 -5.8329 -5.8545 -5.87611 -5.89772 -5.92094 -5.93964 -5.96035 -5.98106 -6.00177 -6.01926 -6.02039 -6.02153 -6.02266 -6.02379 -6.02492 -6.0464 -6.06788 -6.08935 -6.11083 -6.13203 -6.15055 -6.16888 -6.18721 -6.20553 -6.22328 -6.2386 -6.25362 -6.26865 -6.28367 -6.29813 -6.3115 -6.3246 -6.33771 -6.35081 -6.36345 -6.37564 -6.38753 -6.39942 -6.41131 -6.42275 -6.43386 -6.44462 -6.45537 -6.46613 -6.47643 -6.48649 -6.49618 -6.50588 -6.51557 -6.52488 -6.53401 -6.54271 -6.55141 -6.56012 -6.56847 -6.57669 -6.58451 -6.59233 -6.60015 -6.6078 -6.61526 -6.62203 -6.62879 -6.63556 -6.64224 -6.64914 -6.65598 -6.66282 -6.66967 -6.67744 -6.68575 -6.69312 -6.70049 -6.70786 -6.71617 -6.72738 -6.74243 -6.75748 -6.77254 -6.79103 -6.81064 -6.83578 -6.86092 -6.88606 -6.91096 -6.93403 -6.95809 -6.98216 -7.00622 -7.0272 -7.04279 -7.05771 -7.07264 -7.08756 -7.10182 -7.11298 -7.12325 -7.13352 -7.14379 -7.15387 -7.16395 -7.17248 -7.18102 -7.18956 -7.19684 -7.20562 -7.21277 -7.21992 -7.22707 -7.23262 -7.23953 -7.24503 -7.25053 -7.25603 -7.26023 -7.2652 -7.26909 -7.27299 -7.27688 -7.28001 -7.28359 -7.28641 -7.28923 -7.29205 -7.29448 -7.29725 -7.29944 -7.30163 -7.30382 -7.30579 -7.30813 -7.31002 -7.3119 -7.31379 -7.3155 -7.31762 -7.31937 -7.32113 -7.32288 -7.32448 -7.32643 -7.32811 -7.32979 -7.33147 -7.33303 -7.33486 -7.33651 -7.33816 -7.33981 -7.3414 -7.34319 -7.3449 -7.34661 -7.34832 -7.34992 -7.34998 -7.35005 -7.35011 -7.35018 -7.35025 -7.35226 -7.35428 -7.35631 -7.35833 -7.36071 -7.3627 -7.36505 -7.36739 -7.36974 -7.37283 -7.3747 -7.37728 -7.37985 -7.38242 -7.38612 -7.38784 -7.3906 -7.39335 -7.39611 -7.40035 -7.40199 -7.40497 -7.40795 -7.41093 -7.41573 -7.41737 -7.42062 -7.42387 -7.42712 -7.43246 -7.43417 -7.43769 -7.44121 -7.44473 -7.45053 -7.45236 -7.45613 -7.4599 -7.46367 -7.46982 -7.47183 -7.47582 -7.47982 -7.48381 -7.49023 -7.49247 -7.49668 -7.5009 -7.50519 -7.51172 -7.51439 -7.51867 -7.5231 -7.52783 -7.53425 -7.53742 -7.54174 -7.54637 -7.55147 -7.55778 -7.5614 -7.56581 -7.57063 -7.57602 -7.58225 -7.58629 -7.59082 -7.59581 -7.60141 -7.60756 -7.61197 -7.61665 -7.62179 -7.62755 -7.63363 -7.63836 -7.64322 -7.6485 -7.65436 -7.66036 -7.66537 -7.67042 -7.67583 -7.68171 -7.68762 -7.69286 -7.69811 -7.70362 -7.70943 -7.71524 -7.72067 -7.7261 -7.73163 -7.73728 -7.74292 -7.74842 -7.75392 -7.7594 -7.76488 -7.77035 -7.77584 -7.78134 -7.78678 -7.79218 -7.79758 -7.80308 -7.80858 -7.81404 -7.81939 -7.82475 -7.83025 -7.83575 -7.84119 -7.84648 -7.85177 -7.85723 -7.86268 -7.86806 -7.87328 -7.87848 -7.88384 -7.88919 -7.89447 -7.8996 -7.90469 -7.90992 -7.91513 -7.92028 -7.92532 -7.93027 -7.93536 -7.94041 -7.94541 -7.95033 -7.95511 -7.96005 -7.9649 -7.96972 -7.97451 -7.97911 -7.98386 -7.9885 -7.99313 -7.99776 -8.00215 -8.0067 -8.01111 -8.01552 -8.01993 -8.02413 -8.02842 -8.03259 -8.03675 -8.04093 -8.04492 -8.04893 -8.05283 -8.05674 -8.06064 -8.06444 -8.06811 -8.07171 -8.07531 -8.07892 -8.0825 -8.08355 -8.08457 -8.0856 -8.08663 -8.08764 -8.08989 -8.09214 -8.0944 -8.09665 -8.09887 -8.10186 -8.10477 -8.10768 -8.1106 -8.11342 -8.11614 -8.11866 -8.12119 -8.12373 -8.12607 -8.12851 -8.13061 -8.13271 -8.13481 -8.13661 -8.13875 -8.14037 -8.142 -8.14359 -8.14484 -8.14653 -8.14777 -8.14887 -8.14982 -8.1505 -8.15164 -8.15249 -8.15297 -8.15316 -8.15318 -8.1537 -8.15412 -8.15398 -8.1534 -8.15279 -8.15271 -8.15265 -8.1519 -8.15062 -8.14935 -8.14865 -8.14797 -8.1466 -8.14455 -8.14251 -8.14109 -8.13968 -8.1376 -8.13468 -8.13176 -8.12952 -8.12721 -8.12425 -8.12055 -8.11671 -8.11356 -8.11011 -8.10621 -8.10188 -8.09706 -8.09296 -8.08827 -8.08336 -8.07838 -8.07252 -8.06735 -8.06135 -8.05536 -8.04938 -8.04267 -8.03605 -8.02884 -8.02164 -8.01445 -8.00695 -8.00149 -7.99577 -7.99007 -7.98436 -7.97899 -7.97617 -7.97336 -7.97054 -7.96773 -7.96479 -7.9552 -7.94545 -7.93571 -7.92599 -7.91571 -7.90521 -7.89396 -7.88273 -7.87151 -7.85921 -7.8476 -7.83486 -7.822 -7.80873 -7.79463 -7.78136 -7.76758 -7.753 -7.7374 -7.72148 -7.70643 -7.69139 -7.67492 -7.65715 -7.6394 -7.6225 -7.60562 -7.58739 -7.56769 -7.54799 -7.52918 -7.51018 -7.48985 -7.46844 -7.44661 -7.42572 -7.40387 -7.38143 -7.35884 -7.33488 -7.31175 -7.28717 -7.2626 -7.23806 -7.21282 -7.19454 -7.17561 -7.15669 -7.13778 -7.12009 -7.11211 -7.10414 -7.09618 -7.08821 -7.08 -7.05154 -7.02282 -6.99412 -6.96545 -6.93565 -6.90582 -6.8747 -6.84361 -6.81202 -6.77935 -6.74712 -6.71456 -6.68104 -6.64606 -6.61096 -6.57627 -6.54161 -6.50556 -6.4681 -6.43064 -6.39352 -6.35616 -6.31761 -6.27841 -6.23868 -6.19923 -6.15862 -6.11782 -6.07705 -6.03557 -6.00724 -5.9783 -5.94938 -5.92047 -5.89324 -5.87895 -5.86466 -5.85038 -5.8361 -5.8216 -5.777 -5.73221 -5.68746 -5.64273 -5.59723 -5.5511 -5.50458 -5.45793 -5.41083 -5.36344 -5.3154 -5.26738 -5.21882 -5.16973 -5.12063 -5.07077 -5.0209 -4.97076 -4.92047 -4.87006 -4.8187 -4.76743 -4.71621 -4.66501 -4.61384 -4.59245 -4.57121 -4.54998 -4.52875 -4.50814 -4.47731 -4.44649 -4.41568 -4.38488 -4.35424 -4.3016 -4.24923 -4.1969 -4.14474 -4.09303 -4.03998 -3.98705 -3.93473 -3.8833 -3.83186 -3.77894 -3.72605 -3.67432 -3.62353 -3.5728 -3.52044 -3.46923 -3.41844 -3.36768 -3.31757 -3.29319 -3.26955 -3.24591 -3.22228 -3.19916 -3.17276 -3.14637 -3.11998 -3.09359 -3.06795 -3.0183 -2.9695 -2.92072 -2.87251 -2.82566 -2.77714 -2.72873 -2.68195 -2.63704 -2.5921 -2.54548 -2.49888 -2.45457 -2.41141 -2.36864 -2.32418 -2.28179 -2.23972 -2.19764 -2.15624 -2.14354 -2.13147 -2.11939 -2.10732 -2.09525 -2.0671 -2.03895 -2.0108 -1.98264 -1.95569 -1.91625 -1.87825 -1.84024 -1.80306 -1.76709 -1.72988 -1.69267 -1.65745 -1.62392 -1.59038 -1.55567 -1.52106 -1.48823 -1.45656 -1.42545 -1.39326 -1.36261 -1.33216 -1.30168 -1.27207 -1.25981 -1.24809 -1.23637 -1.22464 -1.21263 -1.19594 -1.17923 -1.16251 -1.14579 -1.12963 -1.10221 -1.07578 -1.04932 -1.02303 -0.997722 -0.971901 -0.946649 -0.922418 -0.899076 -0.875842 -0.852168 -0.828463 -0.805876 -0.78462 -0.76335 -0.741704 -0.720213 -0.699246 -0.679016 -0.659601 -0.639876 -0.620645 -0.601438 -0.582197 -0.563919 -0.550079 -0.536425 -0.522751 -0.509058 -0.494099 -0.490365 -0.486629 -0.482893 -0.479155 -0.475446 -0.458871 -0.442468 -0.42604 -0.409586 -0.393198 -0.377105 -0.36205 -0.346971 -0.331868 -0.316743 -0.301703 -0.28726 -0.273361 -0.259348 -0.245281 -0.231321 -0.217343 -0.204347 -0.191207 -0.178059 -0.165038 -0.152001 -0.139137 -0.126739 -0.114336 -0.102074 -0.0897946 -0.0770682 -0.0651548 -0.0533432 -0.0416901 -0.0297975 -0.0175702 -0.00567545 0.00575093 0.0170051 0.0287782 0.0406907 0.0526095 0.0638314 0.0749766 0.0867654 0.0985584 0.110355 0.12182 0.133268 0.145134 0.157003 0.168874 0.180657 0.186501 0.192498 0.198496 0.204494 0.210668 0.216776 0.222884 0.228992 0.235101 0.241358 0.253986 0.26658 0.279175 0.29177 0.304848 0.318148 0.331401 0.344655 0.357908 0.372011 0.386084 0.400192 0.4143 0.42849 0.4438 0.458817 0.473946 0.489107 0.504744 0.521168 0.537304 0.553554 0.569959 0.587297 0.605049 0.622521 0.640013 0.657886 0.677125 0.696372 0.715347 0.734326 0.75416 0.775094 0.796039 0.816722 0.837409 0.85934 0.882127 0.904929 0.927483 0.95022 0.974363 0.999022 1.02385 1.04844 1.07389 1.10013 1.12657 1.15358 1.18037 1.20876 1.23724 1.26573 1.29483 1.32467 1.35552 1.38638 1.41726 1.44827 1.45344 1.45876 1.46407 1.46939 1.47457 1.5024 1.53023 1.55807 1.58592 1.61454 1.64967 1.68535 1.72103 1.75673 1.79418 1.83155 1.86965 1.90804 1.94744 1.98767 2.02779 2.06792 2.10936 2.15233 2.19538 2.23833 2.28131 2.32584 2.37166 2.41759 2.46343 2.51031 2.55797 2.60565 2.65446 2.69702 2.74079 2.78458 2.82839 2.86686 2.87465 2.88245 2.89024 2.89804 2.90605 2.95877 3.01168 3.06462 3.11757 3.17221 3.22702 3.2824 3.33822 3.39536 3.45299 3.51067 3.56838 3.62739 3.68767 3.74814 3.80866 3.87022 3.93231 3.99444 4.05729 4.07818 4.09955 4.12093 4.14231 4.16284 4.20599 4.24915 4.29231 4.33551 4.37978 4.44562 4.51214 4.57883 4.64657 4.71492 4.78323 4.85155 4.921 4.9913 5.06198 5.12243 5.18372 5.24518 5.30667 5.3628 5.3742 5.38559 5.39699 5.40842 5.42003 5.49302 5.56627 5.63952 5.71322 5.78791 5.86236 5.93683 6.01206 6.08811 6.16448 6.22826 6.29252 6.35699 6.42146 6.48162 6.49499 6.50836 6.52172 6.53514 6.54866 6.62643 6.70443 6.78244 6.86083 6.93976 7.01847 7.09719 7.17632 7.25556 7.33533 7.36508 7.39487 7.4247 7.45454 7.48375 7.53382 7.58389 7.63396 7.68408 7.73436 7.81434 7.89433 7.97444 8.0546 8.13497 8.19144 8.24783 8.30415 8.36046 8.41555 8.43956 8.46356 8.48757 8.51154 8.53547 8.61544 8.69544 8.77544 8.85495 8.93455 9.00731 9.0798 9.15193 9.22405 9.29589 9.30274 9.30958 9.31643 9.32324 9.33003 9.40857 9.48708 9.56558 9.64346 9.72101 9.79857 9.87582 9.95232 10.0288 10.1051 10.1121 10.119 10.1259 10.1327 10.1396 10.2084 10.2772 10.346 10.4142 10.4817 10.5561 10.6304 10.7034 10.7763 10.8488 10.8713 10.8936 10.9157 10.9378 10.9603 11.0097 11.0591 11.1084 11.1573 11.2056 11.2756 11.3457 11.4148 11.4829 11.5507 11.5953 11.6394 11.6829 11.7264 11.7726 11.7949 11.8172 11.8395 11.8615 11.8833 11.9483 12.0128 12.0773 12.1404 12.2029 12.2652 12.327 12.3876 12.4481 12.508 12.5243 12.5402 12.556 12.5718 12.5882 12.6307 12.6733 12.7158 12.7579 12.7992 12.8555 12.9118 12.9673 13.0215 13.0755 13.1288 13.1815 13.2333 13.2851 13.3362 13.3528 13.3689 13.385 13.401 13.4179 13.451 13.4842 13.5174 13.5504 13.5825 13.6298 13.6767 13.7233 13.7688 13.8139 13.8583 13.9026 13.9457 13.9881 14.0304 14.0719 14.1123 14.1524 14.1926 14.2325 14.241 14.2492 14.2575 14.2658 14.2744 14.3041 14.3337 14.3634 14.393 14.422 14.4581 14.4938 14.5294 14.5646 14.5993 14.6331 14.6669 14.7002 14.7332 14.766 14.798 14.8299 14.8614 14.8923 14.923 14.9528 14.9832 15.0139 15.0445 15.0747 15.1031 15.1286 15.154 15.1794 15.2029 15.2207 15.2411 15.2614 15.2816 15.3192 15.3229 15.3265 15.3302 15.3339 15.3378 15.3581 15.3772 15.3961 15.4147 15.4091 15.4001 15.3913 15.3828 15.3731 15.3632 15.3508 15.3384 15.3286 15.3218 15.315 15.3059 15.2958 15.2845 15.2727 15.2595 15.243 15.2235 15.2039 15.1843 15.164 15.1572 15.15 15.1428 15.1356 15.1278 15.108 15.0882 15.0684 15.0485 15.0275 14.9944 14.9604 14.9264 14.8923 14.8561 14.8168 14.7762 14.735 14.6923 14.6486 14.6016 14.5545 14.5048 14.4526 14.4002 14.3444 14.2886 14.2301 14.1691 14.108 14.0434 13.9784 13.9103 13.8401 13.7693 13.6947 13.6186 13.5408 13.4621 13.3818 13.2973 13.2095 13.1212 13.0329 12.9417 12.8448 12.7447 12.6445 12.5444 12.4426 12.3314 12.2185 12.1055 11.9925 11.8792 11.8502 11.8208 11.7914 11.762 11.7305 11.6339 11.5374 11.4408 11.3442 11.2463 11.106 10.9642 10.8223 10.6804 10.5352 10.3796 10.2206 10.0616 9.90261 9.73869 9.56671 9.38719 9.20765 9.02795 8.83901 8.64388 8.44449 8.24449 8.04325 7.83808 7.62612 7.40154 7.16976 6.92857 6.67616 6.41529 6.15933 5.91031 5.66919 5.43232 5.1874 4.92645 4.60371 4.21056 3.80621 3.38753 2.96929 2.69194 2.54725 2.40265 2.2529 2.10331 1.61739 0.808103 0