# vtk DataFile Version 2.0
track0
ASCII
DATASET POLYDATA
POINTS 12080 float
-0.0205 0.001 1e-05
-0.02052 0.000999985 1e-05
-0.02054 0.000999974 1e-05
-0.02056 0.000999965 1e-05
-0.02058 0.000999959 1e-05
-0.0206 0.000999956 1e-05
-0.0205 0.00367778 1e-05
-0.02052 0.00367778 1e-05
-0.02054 0.00367777 1e-05
-0.02056 0.00367777 1e-05
-0.02058 0.00367777 1e-05
-0.0206 0.00367777 1e-05
-0.0205 0.00635556 1e-05
-0.02052 0.00635555 1e-05
-0.02054 0.00635555 1e-05
-0.02056 0.00635555 1e-05
-0.02058 0.00635555 1e-05
-0.0206 0.00635555 1e-05
-0.0205 0.00903333 1e-05
-0.02052 0.00903333 1e-05
-0.02054 0.00903333 1e-05
-0.02056 0.00903333 1e-05
-0.02058 0.00903333 1e-05
-0.0206 0.00903333 1e-05
-0.0205 0.0117111 1e-05
-0.02052 0.0117111 1e-05
-0.02054 0.0117111 1e-05
-0.02056 0.0117111 1e-05
-0.02058 0.0117111 1e-05
-0.0206 0.0117111 1e-05
-0.0205 0.0143889 1e-05
-0.02052 0.0143889 1e-05
-0.02054 0.0143889 1e-05
-0.02056 0.0143889 1e-05
-0.02058 0.0143889 1e-05
-0.0206 0.0143889 1e-05
-0.0205 0.0170667 1e-05
-0.02052 0.0170667 1e-05
-0.02054 0.0170667 1e-05
-0.02056 0.0170667 1e-05
-0.02058 0.0170667 1e-05
-0.0206 0.0170667 1e-05
-0.0205 0.0197444 1e-05
-0.02052 0.0197444 1e-05
-0.02054 0.0197444 1e-05
-0.02056 0.0197444 1e-05
-0.02058 0.0197444 1e-05
-0.0206 0.0197444 1e-05
-0.0205 0.0224222 1e-05
-0.02052 0.0224222 1e-05
-0.02054 0.0224222 1e-05
-0.02056 0.0224222 1e-05
-0.02058 0.0224222 1e-05
-0.0206 0.0224222 1e-05
-0.0205 0.0251 1e-05
-0.02052 0.0250998 1e-05
-0.02054 0.0250997 1e-05
-0.02056 0.0250995 1e-05
-0.02058 0.0250995 1e-05
-0.0206 0.0250994 1e-05
-0.0205 0.001 1e-05
-0.0202034 0.00100022 1e-05
-0.0199069 0.00100067 1e-05
-0.0196103 0.00100132 1e-05
-0.0193137 0.00100219 1e-05
-0.0190172 0.00100326 1e-05
-0.0187132 0.00100466 1e-05
-0.0184093 0.00100588 1e-05
-0.0181054 0.0010071 1e-05
-0.0178015 0.00100832 1e-05
-0.0174976 0.00100954 1e-05
-0.0172058 0.00101083 1e-05
-0.016914 0.00101193 1e-05
-0.0166222 0.00101303 1e-05
-0.0163305 0.00101413 1e-05
-0.0160387 0.00101523 1e-05
-0.0157586 0.00101637 1e-05
-0.0154784 0.00101745 1e-05
-0.0151983 0.00101857 1e-05
-0.0149182 0.00101972 1e-05
-0.0146381 0.00102091 1e-05
-0.0143754 0.0010221 1e-05
-0.0141127 0.00102328 1e-05
-0.01385 0.00102449 1e-05
-0.0135873 0.00102574 1e-05
-0.0133655 0.00102682 1e-05
-0.0133511 0.00102689 1e-05
-0.0133367 0.00102696 1e-05
-0.0133223 0.00102703 1e-05
-0.0133079 0.0010271 1e-05
-0.0132934 0.00102718 1e-05
-0.0130353 0.00102847 1e-05
-0.0127771 0.00102977 1e-05
-0.0125189 0.00103109 1e-05
-0.0122607 0.00103243 1e-05
-0.0120025 0.00103378 1e-05
-0.0117547 0.00103509 1e-05
-0.0115068 0.00103641 1e-05
-0.0112589 0.00103774 1e-05
-0.0110111 0.00103906 1e-05
-0.0107632 0.0010404 1e-05
-0.0105252 0.00104168 1e-05
-0.0102873 0.00104296 1e-05
-0.0100493 0.00104424 1e-05
-0.00981133 0.00104553 1e-05
-0.00957337 0.00104681 1e-05
-0.00934491 0.00104803 1e-05
-0.00911645 0.00104926 1e-05
-0.00888799 0.00105049 1e-05
-0.00865954 0.00105171 1e-05
-0.00843108 0.00105293 1e-05
-0.00821175 0.00105409 1e-05
-0.00799242 0.00105526 1e-05
-0.00777309 0.00105642 1e-05
-0.00755376 0.00105758 1e-05
-0.00733443 0.00105873 1e-05
-0.00712387 0.00105983 1e-05
-0.0069133 0.00106093 1e-05
-0.00670273 0.00106203 1e-05
-0.00649216 0.00106312 1e-05
-0.0062816 0.00106421 1e-05
-0.00607944 0.00106525 1e-05
-0.00587729 0.00106629 1e-05
-0.00567514 0.00106733 1e-05
-0.00547298 0.00106836 1e-05
-0.00527083 0.00106939 1e-05
-0.00507675 0.00107037 1e-05
-0.00488267 0.00107135 1e-05
-0.0046886 0.00107234 1e-05
-0.00449452 0.00107332 1e-05
-0.00430044 0.0010743 1e-05
-0.00411412 0.00107523 1e-05
-0.0039278 0.00107616 1e-05
-0.00374147 0.0010771 1e-05
-0.00355515 0.00107803 1e-05
-0.00336883 0.00107897 1e-05
-0.00318995 0.00107986 1e-05
-0.00301107 0.00108076 1e-05
-0.00283219 0.00108166 1e-05
-0.00265331 0.00108256 1e-05
-0.00247443 0.00108347 1e-05
-0.0023027 0.00108434 1e-05
-0.00213097 0.00108522 1e-05
-0.00195924 0.0010861 1e-05
-0.0017875 0.00108699 1e-05
-0.00161577 0.00108789 1e-05
-0.0014509 0.00108875 1e-05
-0.00128603 0.00108962 1e-05
-0.00112116 0.00109051 1e-05
-0.00095629 0.00109142 1e-05
-0.000791418 0.00109234 1e-05
-0.000633135 0.00109323 1e-05
-0.000474851 0.00109415 1e-05
-0.000316568 0.00109509 1e-05
-0.000158284 0.00109604 1e-05
0 0.00109702 1e-05
0.000105677 0.00109768 1e-05
0.000211355 0.00109835 1e-05
0.000317032 0.00109902 1e-05
0.00042271 0.0010997 1e-05
0.000528387 0.00110037 1e-05
0.000634886 0.00110105 1e-05
0.000741385 0.00110173 1e-05
0.000847885 0.0011024 1e-05
0.000954384 0.00110306 1e-05
0.00106088 0.00110371 1e-05
0.00116821 0.00110436 1e-05
0.00127554 0.001105 1e-05
0.00138286 0.00110563 1e-05
0.00149019 0.00110624 1e-05
0.00159752 0.00110684 1e-05
0.00170568 0.00110743 1e-05
0.00181384 0.00110801 1e-05
0.001922 0.00110857 1e-05
0.00203016 0.00110913 1e-05
0.00213833 0.00110966 1e-05
0.00224733 0.00111019 1e-05
0.00235633 0.00111071 1e-05
0.00246533 0.00111121 1e-05
0.00257434 0.00111171 1e-05
0.00268334 0.00111219 1e-05
0.00279319 0.00111265 1e-05
0.00290304 0.00111312 1e-05
0.00301289 0.00111357 1e-05
0.00312274 0.001114 1e-05
0.00323259 0.00111443 1e-05
0.00334329 0.00111484 1e-05
0.003454 0.00111525 1e-05
0.0035647 0.00111564 1e-05
0.0036754 0.00111603 1e-05
0.00378611 0.0011164 1e-05
0.00389767 0.00111675 1e-05
0.00400924 0.0011171 1e-05
0.0041208 0.00111744 1e-05
0.00423237 0.00111777 1e-05
0.00434393 0.00111809 1e-05
0.00445636 0.00111839 1e-05
0.00456879 0.00111869 1e-05
0.00468123 0.00111897 1e-05
0.00479366 0.00111925 1e-05
0.00490609 0.00111951 1e-05
0.0050194 0.00111976 1e-05
0.0051327 0.00112 1e-05
0.00524601 0.00112023 1e-05
0.00535932 0.00112045 1e-05
0.00547262 0.00112066 1e-05
0.00558681 0.00112086 1e-05
0.005701 0.00112104 1e-05
0.00581518 0.00112122 1e-05
0.00592937 0.00112139 1e-05
0.00604356 0.00112155 1e-05
0.00615863 0.00112169 1e-05
0.00627371 0.00112182 1e-05
0.00638878 0.00112195 1e-05
0.00650386 0.00112207 1e-05
0.00661893 0.00112217 1e-05
0.0067349 0.00112226 1e-05
0.00685087 0.00112234 1e-05
0.00696684 0.00112242 1e-05
0.00708281 0.00112248 1e-05
0.00719878 0.00112253 1e-05
0.00731565 0.00112257 1e-05
0.00743252 0.0011226 1e-05
0.00754939 0.00112262 1e-05
0.00766626 0.00112263 1e-05
0.00778313 0.00112263 1e-05
0.00789814 0.00112262 1e-05
0.00801314 0.0011226 1e-05
0.00812814 0.00112256 1e-05
0.00824314 0.00112252 1e-05
0.0083503 0.00112247 1e-05
0.00835465 0.00112247 1e-05
0.00835899 0.00112247 1e-05
0.00836334 0.00112247 1e-05
0.00836769 0.00112247 1e-05
0.00837203 0.00112246 1e-05
0.00849073 0.0011224 1e-05
0.00860942 0.00112232 1e-05
0.00872812 0.00112223 1e-05
0.00884682 0.00112214 1e-05
0.00896551 0.00112203 1e-05
0.00908513 0.0011219 1e-05
0.00920475 0.00112177 1e-05
0.00932437 0.00112163 1e-05
0.00944398 0.00112148 1e-05
0.0095636 0.00112131 1e-05
0.00968415 0.00112113 1e-05
0.0098047 0.00112094 1e-05
0.00992525 0.00112074 1e-05
0.0100458 0.00112053 1e-05
0.0101663 0.0011203 1e-05
0.0102878 0.00112006 1e-05
0.0104093 0.00111981 1e-05
0.0105308 0.00111955 1e-05
0.0106523 0.00111928 1e-05
0.0107738 0.001119 1e-05
0.0108962 0.00111869 1e-05
0.0110186 0.00111838 1e-05
0.0111411 0.00111806 1e-05
0.0112635 0.00111773 1e-05
0.0113859 0.00111739 1e-05
0.0115093 0.00111702 1e-05
0.0116327 0.00111664 1e-05
0.0117561 0.00111626 1e-05
0.0118795 0.00111586 1e-05
0.0120028 0.00111546 1e-05
0.0121272 0.00111502 1e-05
0.0122515 0.00111458 1e-05
0.0123759 0.00111413 1e-05
0.0125002 0.00111367 1e-05
0.0126245 0.0011132 1e-05
0.0127498 0.0011127 1e-05
0.0128752 0.00111219 1e-05
0.0130005 0.00111168 1e-05
0.0131258 0.00111115 1e-05
0.0132511 0.0011106 1e-05
0.0133774 0.00111004 1e-05
0.0135036 0.00110946 1e-05
0.0136299 0.00110888 1e-05
0.0137562 0.00110828 1e-05
0.0138825 0.00110766 1e-05
0.0140098 0.00110703 1e-05
0.014137 0.00110638 1e-05
0.0142643 0.00110572 1e-05
0.0143915 0.00110505 1e-05
0.0145188 0.00110437 1e-05
0.0146471 0.00110366 1e-05
0.0147753 0.00110295 1e-05
0.0149036 0.00110221 1e-05
0.0150318 0.00110147 1e-05
0.0151601 0.00110071 1e-05
0.0152893 0.00109993 1e-05
0.0154186 0.00109914 1e-05
0.0155478 0.00109833 1e-05
0.0156771 0.00109751 1e-05
0.0158063 0.00109668 1e-05
0.0159366 0.00109583 1e-05
0.0160668 0.00109496 1e-05
0.0161971 0.00109408 1e-05
0.0163273 0.00109318 1e-05
0.0164576 0.00109227 1e-05
0.0165889 0.00109135 1e-05
0.0167201 0.0010904 1e-05
0.0168514 0.00108944 1e-05
0.0169827 0.00108846 1e-05
0.0171139 0.00108747 1e-05
0.0172462 0.00108647 1e-05
0.0173785 0.00108545 1e-05
0.0175108 0.0010844 1e-05
0.0176431 0.00108334 1e-05
0.0177754 0.00108227 1e-05
0.0179087 0.0010812 1e-05
0.018042 0.00108009 1e-05
0.0181753 0.00107896 1e-05
0.0183087 0.00107781 1e-05
0.018442 0.00107667 1e-05
0.0185763 0.00107551 1e-05
0.0187107 0.00107432 1e-05
0.018845 0.0010731 1e-05
0.0189794 0.00107187 1e-05
0.0191137 0.00107064 1e-05
0.0192491 0.0010694 1e-05
0.0193845 0.00106813 1e-05
0.0195199 0.00106682 1e-05
0.0196553 0.0010655 1e-05
0.0197907 0.00106418 1e-05
0.0199272 0.00106286 1e-05
0.0200636 0.0010615 1e-05
0.0202001 0.0010601 1e-05
0.0203365 0.00105869 1e-05
0.020473 0.00105729 1e-05
0.0206105 0.00105587 1e-05
0.020748 0.00105442 1e-05
0.0208855 0.00105293 1e-05
0.021023 0.00105143 1e-05
0.0211606 0.00104993 1e-05
0.0212991 0.00104843 1e-05
0.0214377 0.00104688 1e-05
0.0215763 0.0010453 1e-05
0.0217149 0.0010437 1e-05
0.0218535 0.00104211 1e-05
0.0219931 0.00104051 1e-05
0.0221328 0.00103887 1e-05
0.0222724 0.00103719 1e-05
0.0224121 0.0010355 1e-05
0.0225517 0.00103381 1e-05
0.0226925 0.00103211 1e-05
0.0228332 0.00103037 1e-05
0.022974 0.0010286 1e-05
0.0231147 0.0010268 1e-05
0.0232555 0.00102501 1e-05
0.0233973 0.00102321 1e-05
0.0235391 0.00102137 1e-05
0.023681 0.00101949 1e-05
0.0238228 0.0010176 1e-05
0.0239647 0.0010157 1e-05
0.0241076 0.00101379 1e-05
0.0242505 0.00101184 1e-05
0.0243935 0.00100986 1e-05
0.0245364 0.00100786 1e-05
0.0246794 0.00100585 1e-05
0.0248234 0.00100383 1e-05
0.0249675 0.00100177 1e-05
0.0251115 0.000999678 1e-05
0.0252556 0.000997567 1e-05
[...]
POINT_DATA 12080
 FIELD attributes 1
U 3 12080 float
10.0004 	0.00731854 	0 10.0004 	0.00585483 	0 10.0003 	0.00439112 	0 10.0002 	0.00292741 	0 10.0001 	0.00146371 	0 10 	0 	0
10.0001 	0.000881433 	0 10 	0.000705146 	0 10 	0.00052886 	0 10 	0.000352573 	0 10 	0.000176287 	0 10 	0 	0
10.0001 	0.000469487 	0 10.0001 	0.000375399 	0 10.0001 	0.000281311 	0 10 	0.000187223 	0 10 	9.31346e-05 	0 10 	0 	0
10 	0.000269649 	0 10 	0.00021572 	0 10 	0.00016179 	0 10 	0.00010786 	0 10 	5.39299e-05 	0 10 	0 	0
10 	8.34585e-05 	0 10 	6.67668e-05 	0 10 	5.00751e-05 	0 10 	3.33834e-05 	0 10 	1.66917e-05 	0 10 	0 	0
10 	-2.38025e-05 	0 10 	-1.9042e-05 	0 10 	-1.42815e-05 	0 10 	-9.52098e-06 	0 10 	-4.76049e-06 	0 10 	0 	0
10 	-0.00021476 	0 10 	-0.000171808 	0 10 	-0.000128856 	0 10 	-8.59041e-05 	0 10 	-4.29521e-05 	0 10 	0 	0
10 	-0.00037708 	0 10 	-0.000301664 	0 10 	-0.000226248 	0 10 	-0.000150832 	0 10 	-7.5416e-05 	0 10 	0 	0
9.99999 	-0.000427168 	0 9.99999 	-0.000341734 	0 9.99999 	-0.000256301 	0 10 	-0.000170867 	0 10 	-8.54335e-05 	0 10 	0 	0
9.17387 	0.0870992 	0 9.1308 	0.0696794 	0 9.08741 	0.0522593 	0 9.04368 	0.0348389 	0 8.99962 	0.0174184 	0 8.95524 	0 	0
10.0004 	0.00731854 	0 10.0024 	0.0151701 	0 10.0045 	0.0221903 	0 10.0065 	0.0291662 	0 10.0085 	0.0360981 	0 10.0135 	0.0463146 	0 10.0163 	0.0402159 	0 10.0207 	0.040177 	0 10.0252 	0.0401382 	0 10.0296 	0.0400996 	0 10.0355 	0.0445625 	0 10.0384 	0.0379261 	0 10.0424 	0.0378853 	0 10.0464 	0.0378444 	0 10.0504 	0.0378034 	0 10.0545 	0.040906 	0 10.0566 	0.0388333 	0 10.0591 	0.0401461 	0 10.0615 	0.0414606 	0 10.0639 	0.0427767 	0 10.0661 	0.0452363 	0 10.0676 	0.0453506 	0 10.0689 	0.0465539 	0 10.0702 	0.0477583 	0 10.0715 	0.0489638 	0 10.0727 	0.0499827 	0 10.0727 	0.0500494 	0 10.0728 	0.050116 	0 10.0729 	0.0501827 	0 10.0729 	0.0502494 	0 10.073 	0.0503061 	0 10.0735 	0.0509395 	0 10.074 	0.0515664 	0 10.0745 	0.0521939 	0 10.075 	0.052822 	0 10.0755 	0.0532854 	0 10.0754 	0.0535904 	0 10.075 	0.0537895 	0 10.0746 	0.0539888 	0 10.0743 	0.0541881 	0 10.0737 	0.0541487 	0 10.0732 	0.0543069 	0 10.0721 	0.0542962 	0 10.071 	0.0542855 	0 10.0699 	0.0542749 	0 10.0683 	0.0539951 	0 10.0679 	0.054094 	0 10.0662 	0.0539787 	0 10.0646 	0.0538634 	0 10.0629 	0.0537481 	0 10.0603 	0.0533472 	0 10.0603 	0.0534279 	0 10.0582 	0.0532595 	0 10.0561 	0.0530911 	0 10.054 	0.0529226 	0 10.0504 	0.052457 	0 10.051 	0.0525488 	0 10.0486 	0.0523669 	0 10.0462 	0.052185 	0 10.0439 	0.052003 	0 10.0392 	0.0515182 	0 10.0405 	0.0516494 	0 10.0379 	0.0514827 	0 10.0353 	0.0513159 	0 10.0327 	0.0511491 	0 10.0268 	0.0506691 	0 10.0292 	0.0508586 	0 10.0265 	0.0507396 	0 10.0237 	0.0506206 	0 10.0209 	0.0505015 	0 10.0139 	0.0500695 	0 10.0174 	0.0503503 	0 10.0145 	0.0503014 	0 10.0116 	0.0502525 	0 10.0087 	0.0502036 	0 10.0004 	0.0498299 	0 10.0051 	0.0502423 	0 10.0022 	0.0503744 	0 9.99925 	0.0505066 	0 9.99632 	0.0506388 	0 9.98681 	0.0504836 	0 9.99294 	0.0511472 	0 9.99 	0.0514609 	0 9.98707 	0.0517748 	0 9.98414 	0.0520887 	0 9.97336 	0.0520326 	0 9.98102 	0.052944 	0 9.97834 	0.0538486 	0 9.97566 	0.0547533 	0 9.97299 	0.0556581 	0 9.96122 	0.0563232 	0 9.97088 	0.0578175 	9.58943e-22 9.96949 	0.059056 	7.1114e-21 9.96812 	0.0602946 	1.32623e-20 9.96675 	0.0615334 	1.94116e-20 9.95513 	0.0620677 	1.61105e-20 9.96679 	0.0630513 	1.17999e-19 9.96617 	0.0633555 	1.10021e-19 9.96555 	0.0636598 	1.02048e-19 9.96494 	0.063964 	9.40786e-20 9.95324 	0.063474 	-1.90049e-20 9.96523 	0.0632395 	-5.1858e-20 9.96464 	0.0625295 	-5.75493e-20 9.96405 	0.0618194 	-6.3236e-20 9.96346 	0.0611094 	-6.89181e-20 9.95154 	0.0601194 	-2.53319e-20 9.96307 	0.0593557 	-2.24882e-20 9.96176 	0.0580909 	-1.54979e-20 9.96044 	0.056826 	-8.50875e-21 9.95912 	0.0555609 	-1.52083e-21 9.94657 	0.0541954 	9.43973e-21 9.9576 	0.0535244 	-5.24251e-21 9.95558 	0.0521761 	-2.77806e-20 9.95356 	0.0508276 	-5.03228e-20 9.95153 	0.0494788 	-7.2869e-20 9.93833 	0.047824 	-1.05864e-19 9.94892 	0.0474147 	-1.57472e-19 9.9463 	0.0462193 	-1.42597e-19 9.94367 	0.0450235 	-1.27708e-19 9.94103 	0.0438274 	-1.12806e-19 9.92729 	0.0420659 	-3.55269e-20 9.93739 	0.0417917 	5.19861e-20 9.93418 	0.040702 	6.84619e-20 9.93096 	0.0396119 	8.49209e-20 9.92774 	0.0385215 	1.01363e-19 9.91353 	0.0367509 	4.4052e-20 9.92306 	0.0364558 	-7.40592e-20 9.91924 	0.0353927 	-8.15795e-20 9.91541 	0.0343293 	-8.90736e-20 9.91157 	0.0332655 	-9.65414e-20 9.89694 	0.0315552 	-3.10832e-22 9.90576 	0.0312148 	9.17018e-20 9.90129 	0.0301747 	8.05088e-20 9.89682 	0.0291342 	6.92899e-20 9.89234 	0.0280934 	5.80452e-20 9.87738 	0.0264824 	-3.148e-20 9.8853 	0.0261046 	-1.081e-19 9.88018 	0.0250851 	-1.35061e-19 9.87506 	0.0240652 	-1.62013e-19 9.86992 	0.0230449 	-1.88955e-19 9.85476 	0.0215297 	-1.59346e-19 9.86155 	0.021132 	-1.94846e-19 9.8558 	0.0201379 	-1.79795e-19 9.85003 	0.0191434 	-1.64737e-19 9.84425 	0.0181485 	-1.49671e-19 9.82911 	0.0167183 	-9.61556e-20 9.83445 	0.0163117 	-8.24776e-20 9.82808 	0.0153487 	-6.01055e-20 9.82169 	0.0143851 	-3.77364e-20 9.81529 	0.0134211 	-1.53703e-20 9.8005 	0.0120705 	3.85244e-21 9.80398 	0.0116406 	0 9.79701 	0.0107049 	0 9.79003 	0.00976875 	0 9.78304 	0.0088321 	0 9.76904 	0.00756501 	0 9.77017 	0.007083 	-1.76033e-20 9.76263 	0.00617061 	-4.04897e-20 9.75509 	0.00525768 	-6.3379e-20 9.74753 	0.0043442 	-8.62712e-20 9.73479 	0.00317903 	-1.11484e-19 9.73305 	0.00260926 	-1.24401e-19 9.72498 	0.00171746 	-1.25105e-19 9.7169 	0.000825063 	-1.25801e-19 9.70881 	-6.7939e-05 	-1.26487e-19 9.69789 	-0.00110222 	-1.20732e-19 9.69293 	-0.00178086 	-7.73276e-20 9.68457 	-0.00263645 	-4.30822e-20 9.6762 	-0.00349268 	-8.85224e-21 9.66781 	-0.00434953 	2.53622e-20 9.65998 	-0.00514851 	5.72282e-20 9.65966 	-0.00518114 	5.85222e-20 9.65934 	-0.00521377 	5.98162e-20 9.65902 	-0.0052464 	6.11102e-20 9.6587 	-0.00527904 	6.24042e-20 9.65813 	-0.0053229 	6.40033e-20 9.64923 	-0.00618432 	6.51915e-20 9.64009 	-0.00705627 	6.63851e-20 9.63093 	-0.00792899 	6.75751e-20 9.62176 	-0.00880248 	6.87613e-20 9.60583 	-0.0099589 	7.11577e-20 9.60234 	-0.0105821 	5.63853e-20 9.59277 	-0.011449 	4.16109e-20 9.58317 	-0.0123168 	2.68345e-20 9.57356 	-0.0131854 	1.20561e-20 9.55124 	-0.014538 	-8.22005e-22 9.55271 	-0.0149892 	-1.13737e-20 9.54274 	-0.0158555 	-2.54293e-20 9.53275 	-0.0167227 	-3.94829e-20 9.52274 	-0.0175907 	-5.35345e-20 9.49475 	-0.0190694 	-6.75992e-20 9.50059 	-0.0194151 	-6.94533e-20 9.49027 	-0.0202837 	-7.80064e-20 9.47992 	-0.0211532 	-8.65541e-20 9.46956 	-0.0220237 	-9.50965e-20 9.4367 	-0.0235572 	-1.14908e-19 9.44629 	-0.0238643 	-1.66383e-19 9.43565 	-0.0247377 	-1.55091e-19 9.42499 	-0.0256122 	-1.43821e-19 9.4143 	-0.0264876 	-1.32573e-19 9.37744 	-0.0280055 	-4.84223e-20 9.39012 	-0.0283437 	-3.18144e-20 9.3792 	-0.0292237 	-2.25054e-20 9.36826 	-0.0301049 	-1.3195e-20 9.3573 	-0.0309871 	-3.88336e-21 9.31729 	-0.032417 	0 9.33242 	-0.0328502 	0 9.32126 	-0.0337373 	0 9.31007 	-0.0346256 	0 9.29886 	-0.035515 	0 9.25652 	-0.036791 	0 9.27349 	-0.037375 	2.39328e-21 9.26212 	-0.0382689 	1.09594e-20 9.25073 	-0.039164 	1.95241e-20 9.23931 	-0.0400602 	2.80875e-20 9.19538 	-0.0411241 	4.86117e-20 9.21365 	-0.0419044 	1.82522e-19 9.20211 	-0.0428052 	1.8641e-19 9.19053 	-0.0437073 	1.90324e-19 9.17894 	-0.0446106 	1.94264e-19 9.1341 	-0.0454172 	4.89312e-20 9.15319 	-0.0464325 	2.63727e-20 9.14149 	-0.0473407 	1.84822e-20 9.12977 	-0.0482502 	1.05903e-20 9.11698 	-0.0491485 	3.47745e-21 9.07287 	-0.0496738 	1.96896e-20 9.08998 	-0.0509233 	1.2373e-19 9.08056 	-0.0518675 	1.34196e-19 9.06872 	-0.0527855 	1.36236e-19 9.05247 	-0.0536087 	1.20301e-19 9.01188 	-0.0539012 	4.67705e-21 9.02598 	-0.0553519 	-1.17964e-19 9.01956 	-0.0563892 	-1.53368e-19 9.00763 	-0.0573167 	-1.65431e-19 8.98864 	-0.0580141 	-1.51986e-19 8.95129 	-0.0581075 	-7.18236e-20 8.96268 	-0.0597275 	-2.10989e-19 8.95872 	-0.0609 	-2.61082e-19 8.94672 	-0.0618388 	-2.6458e-19 8.92566 	-0.0623716 	-2.05934e-19 8.89124 	-0.0623039 	-5.55082e-20 8.90021 	-0.0640717 	-2.9324e-20 8.89824 	-0.0654159 	-1.23705e-20 8.88619 	-0.066369 	-3.93112e-21 8.86361 	-0.0667072 	0 8.83187 	-0.0665087 	0 8.83868 	-0.0683998 	0 8.8383 	-0.069941 	0 8.82622 	-0.0709092 	0 8.80261 	-0.0710303 	2.58995e-21 8.77327 	-0.0707302 	6.46707e-21 8.77816 	-0.0727162 	2.80197e-21 8.77902 	-0.0744675 	0 8.76694 	-0.075451 	0 8.74271 	-0.0753458 	3.12673e-21 8.71555 	-0.0749768 	7.01e-21 8.71875 	-0.0770472 	3.34568e-21 8.72057 	-0.0790262 	6.51822e-22 8.7085 	-0.0800215 	8.17456e-21 8.684 	-0.0796645 	2.91122e-20 8.65879 	-0.0792297 	5.08193e-20 8.66052 	-0.0813506 	1.99036e-19 8.66218 	-0.0834738 	3.47255e-19 8.65003 	-0.0844275 	3.47917e-19 8.62654 	-0.0839743 	1.99783e-19 8.60306 	-0.0835209 	5.16455e-20 8.60352 	-0.0857115 	3.03336e-20 8.6039 	-0.0879043 	9.02407e-21 8.59231 	-0.0888446 	8.82441e-22 8.57036 	-0.0883791 	4.60301e-21 8.54842 	-0.0879134 	8.3235e-21 8.54778 	-0.0901619 	4.83236e-21 8.54707 	-0.0924126 	1.34272e-21 8.53608 	-0.0933294 	-3.19924e-22 8.51547 	-0.0928408 	-4.75392e-21 8.49487 	-0.092352 	-9.18721e-21 8.49329 	-0.0945994 	-6.0531e-20 8.49163 	-0.096849 	-1.11882e-19 8.48126 	-0.0977375 	-1.14594e-19 8.46184 	-0.0972737 	-6.77542e-20 8.44242 	-0.0968098 	-2.09121e-20 8.44003 	-0.0990545 	9.5039e-20 8.43755 	-0.101301 	2.10981e-19 8.42781 	-0.102173 	2.22642e-19 8.40945 	-0.101756 	1.25751e-19 8.39109 	-0.10134 	2.88585e-20 8.38797 	-0.103582 	1.52222e-20 8.38478 	-0.105826 	1.58016e-21 8.37568 	-0.106689 	-4.8032e-21 8.35826 	-0.106332 	7.48398e-22 8.34084 	-0.105975 	6.30064e-21 8.33709 	-0.108217 	-6.35279e-22 8.33311 	-0.110416 	-7.79618e-21 8.32426 	-0.111239 	-2.15156e-20 8.30823 	-0.111028 	-7.68138e-20 8.29165 	-0.110736 	-1.3534e-19 8.28734 	-0.112978 	-2.87778e-19 8.28209 	-0.114941 	-4.0401e-19 8.27336 	-0.115803 	-3.77702e-19 8.25934 	-0.115857 	-2.40689e-19 8.2435 	-0.115634 	-6.57082e-20 8.2387 	-0.117876 	7.96879e-20 8.23243 	-0.119614 	1.68959e-19 8.22379 	-0.120515 	1.65469e-19 8.21152 	-0.12083 	1.05553e-19 8.19636 	-0.120678 	6.179e-22 8.19111 	-0.122924 	-1.03357e-19 8.18403 	-0.124445 	-1.55081e-19 8.17548 	-0.125386 	-1.65004e-19 8.16473 	-0.125957 	-1.38588e-19 8.15017 	-0.125876 	-4.82716e-20 8.14453 	-0.128125 	-3.55595e-20 8.13681 	-0.12944 	-2.299e-20 8.12834 	-0.130423 	-1.04727e-20 8.11893 	-0.131246 	3.89974e-21 8.1049 	-0.131238 	2.77973e-20 8.09892 	-0.133496 	1.92546e-21 8.09071 	-0.134615 	-6.17435e-21 8.08229 	-0.135643 	-1.28465e-20 8.07384 	-0.136672 	-1.95201e-20 8.06049 	-0.136777 	-3.1618e-21 8.05396 	-0.138905 	-2.16454e-20 8.04563 	-0.139978 	-2.89328e-20 8.03726 	-0.141051 	-3.62248e-20 8.02885 	-0.142125 	-4.35214e-20 8.01691 	-0.142501 	-6.39639e-20 8.00981 	-0.144419 	2.22943e-20 8.00152 	-0.145542 	2.37532e-20 7.99319 	-0.146666 	2.51818e-20 7.98481 	-0.14779 	2.65802e-20 7.97409 	-0.148436 	-2.94324e-20 7.96654 	-0.150158 	2.26456e-20 7.95827 	-0.151333 	2.46935e-20 7.94996 	-0.152509 	2.67134e-20 7.9416 	-0.153685 	2.8705e-20 7.93197 	-0.154593 	3.30455e-21 7.92408 	-0.156127 	-2.61386e-22 7.91583 	-0.157353 	-1.94768e-22 7.90753 	-0.158581 	-1.2817e-22 7.89919 	-0.159808 	-6.15913e-23 7.89052 	-0.160972 	1.69448e-21 7.88798 	-0.161451 	0 7.88538 	-0.161856 	0 7.88278 	-0.162262 	0 7.88017 	-0.162667 	0 7.87761 	-0.163064 	0 7.87174 	-0.163941 	0 7.86584 	-0.164819 	0 7.85993 	-0.165697 	0 7.85399 	-0.166576 	0 7.84879 	-0.167299 	0 7.84002 	-0.168773 	0 7.83146 	-0.170111 	0 7.82285 	-0.17145 	0 7.81418 	-0.17279 	0 7.80735 	-0.173756 	0 7.79816 	-0.175485 	0 7.78957 	-0.176886 	0 7.78092 	-0.178288 	0 7.77223 	-0.17969 	0 7.76644 	-0.180507 	0 7.75683 	-0.182493 	0 7.74818 	-0.18396 	0 7.73948 	-0.185427 	0 7.73072 	-0.186894 	0 7.72595 	-0.187567 	0 7.71591 	-0.189802 	0 7.70719 	-0.191334 	0 7.69842 	-0.192867 	0 7.69015 	-0.194291 	0 7.6858 	-0.194937 	0 7.67569 	-0.197243 	0 7.66655 	-0.199018 	-7.924e-21 7.65769 	-0.200618 	-1.84724e-20 7.65045 	-0.20189 	-2.90355e-20 7.6459 	-0.202628 	-3.96268e-20 7.63575 	-0.20498 	-2.78483e-20 7.62614 	-0.20702 	-2.09021e-20 7.61718 	-0.20869 	-1.96698e-20 7.61094 	-0.209825 	-2.6094e-20 7.60619 	-0.210664 	-3.6741e-20 7.59599 	-0.213079 	-2.48516e-20 7.5859 	-0.215391 	-1.29485e-20 7.57683 	-0.217142 	-1.00067e-21 7.57153 	-0.218156 	0 7.56655 	-0.219103 	0 7.55627 	-0.221602 	0 7.54591 	-0.224101 	0 7.53728 	-0.225887 	-4.27293e-21 7.53207 	-0.226925 	-9.39962e-21 7.52682 	-0.227964 	-1.45253e-20 7.51645 	-0.230533 	-5.19159e-20 7.506 	-0.233103 	-8.93026e-20 7.49796 	-0.234956 	-9.93848e-20 7.49246 	-0.236084 	-8.11874e-20 7.48692 	-0.237212 	-6.29804e-20 7.47646 	-0.239842 	-3.46353e-20 7.4659 	-0.242472 	-6.27265e-21 7.45843 	-0.244393 	-1.12161e-20 7.45264 	-0.24562 	-3.72056e-20 7.4468 	-0.246847 	-6.3196e-20 7.43621 	-0.24954 	-7.78445e-20 7.42584 	-0.25217 	-9.11178e-20 7.41878 	-0.254122 	-8.98369e-20 7.41251 	-0.25556 	-6.02411e-20 7.40637 	-0.256893 	-2.48182e-20 7.39563 	-0.259659 	-2.09851e-20 7.38625 	-0.262135 	-1.48167e-20 7.37895 	-0.26418 	-5.15514e-21 7.37202 	-0.265944 	0 7.36555 	-0.267388 	0 7.35465 	-0.270234 	0 7.3462 	-0.272568 	0 7.33863 	-0.274708 	0 7.33106 	-0.276796 	0 7.32423 	-0.278345 	0 7.31336 	-0.281229 	0 7.30557 	-0.283462 	0 7.29771 	-0.285696 	0 7.28977 	-0.287929 	0 7.28232 	-0.289759 	-1.26308e-20 7.27236 	-0.292489 	3.84659e-23 7.26426 	-0.294818 	1.33723e-22 7.25608 	-0.297147 	2.29033e-22 7.24782 	-0.299475 	3.24397e-22 7.23969 	-0.301642 	1.55416e-21 7.23333 	-0.303428 	8.44028e-21 7.2277 	-0.305056 	6.44232e-21 7.22203 	-0.306683 	4.4331e-21 7.21632 	-0.30831 	2.41258e-21 7.2109 	-0.309843 	4.974e-22 7.20787 	-0.310659 	-5.53774e-22 7.20484 	-0.311476 	-1.6079e-21 7.20179 	-0.312292 	-2.66498e-21 7.19874 	-0.313108 	-3.72502e-21 7.19622 	-0.313854 	1.14679e-21 7.18693 	-0.316442 	7.52102e-21 7.1778 	-0.318957 	1.58048e-20 7.16857 	-0.321471 	2.40818e-20 7.15925 	-0.323985 	3.23519e-20 7.15201 	-0.326219 	4.07637e-20 7.1416 	-0.32912 	3.39753e-20 7.13206 	-0.331726 	3.24082e-20 7.12242 	-0.334331 	3.08272e-20 7.11268 	-0.336935 	2.92323e-20 7.10664 	-0.339055 	2.7972e-20 7.09525 	-0.342228 	2.60333e-20 7.08511 	-0.344976 	2.39569e-20 7.07502 	-0.347676 	2.18521e-20 7.0662 	-0.350202 	2.15324e-20 7.05997 	-0.352388 	2.47372e-20 7.04816 	-0.355654 	1.91271e-20 7.0368 	-0.358736 	1.50526e-20 7.02624 	-0.361528 	1.33937e-20 7.01861 	-0.363933 	1.5632e-20 7.01184 	-0.366219 	1.90664e-20 6.99958 	-0.369574 	1.31472e-20 6.98721 	-0.372929 	7.21501e-21 6.97672 	-0.37577 	-9.47939e-22 6.96943 	-0.378141 	-5.58295e-21 6.96207 	-0.380513 	-1.02221e-20 6.94932 	-0.383947 	-6.43588e-21 6.93646 	-0.387379 	-2.65421e-21 6.92639 	-0.39034 	0 6.91849 	-0.39279 	0 6.91049 	-0.395241 	0 6.89723 	-0.398749 	0 6.88433 	-0.402193 	-5.60802e-22 6.87456 	-0.405215 	-4.85866e-21 6.86563 	-0.407887 	-9.17161e-21 6.85697 	-0.410423 	-1.34937e-20 6.84316 	-0.414016 	-1.00324e-20 6.83147 	-0.417301 	-9.2421e-21 6.82109 	-0.420395 	-1.01215e-20 6.81072 	-0.423433 	-1.06209e-20 6.80134 	-0.426025 	-7.9601e-21 6.78735 	-0.429617 	-3.93567e-20 6.77641 	-0.432764 	-3.65618e-20 6.76536 	-0.43591 	-3.37439e-20 6.75419 	-0.439055 	-3.09029e-20 6.74345 	-0.44196 	-1.05198e-20 6.73401 	-0.4444 	-2.58673e-20 6.72581 	-0.446655 	-2.40246e-20 6.71755 	-0.448909 	-2.21704e-20 6.70923 	-0.451163 	-2.03045e-20 6.70139 	-0.453272 	-1.85471e-20 6.69767 	-0.454234 	-1.82692e-20 6.69394 	-0.455195 	-1.79906e-20 6.6902 	-0.456156 	-1.77113e-20 6.68645 	-0.457117 	-1.74312e-20 6.683 	-0.458006 	-1.52281e-20 6.67035 	-0.461323 	-1.13117e-20 6.65758 	-0.464537 	-4.11955e-21 6.64468 	-0.467751 	3.07257e-21 6.63166 	-0.470963 	1.02647e-20 6.61988 	-0.473858 	1.47604e-20 6.60645 	-0.477539 	3.72324e-20 6.59287 	-0.480768 	4.28963e-20 6.57917 	-0.483995 	4.85804e-20 6.56592 	-0.487085 	4.09054e-20 6.55382 	-0.489883 	4.58307e-21 6.53959 	-0.493596 	7.9525e-21 6.5252 	-0.497182 	9.12444e-21 6.51066 	-0.500414 	4.24408e-21 6.49766 	-0.503252 	-2.20969e-22 6.48469 	-0.506057 	-4.66239e-21 6.46961 	-0.509771 	-2.99214e-21 6.45439 	-0.513485 	-1.33573e-21 6.43996 	-0.516736 	3.66142e-21 6.42618 	-0.5195 	1.04097e-20 6.41227 	-0.522264 	1.7168e-20 6.39631 	-0.525938 	1.21678e-20 6.38052 	-0.529528 	9.69376e-21 6.36602 	-0.532756 	1.8139e-20 6.35133 	-0.535692 	3.08701e-20 6.33647 	-0.538406 	4.68796e-20 6.31958 	-0.542033 	5.70781e-20 6.30402 	-0.545273 	5.29444e-20 6.28857 	-0.548446 	4.62948e-20 6.27299 	-0.551617 	3.96378e-20 6.25717 	-0.554453 	2.96931e-20 6.24551 	-0.556751 	3.41778e-20 6.23457 	-0.558821 	3.25823e-20 6.22358 	-0.560891 	3.09801e-20 6.21252 	-0.56296 	2.93711e-20 6.20203 	-0.56491 	2.78481e-20 6.19676 	-0.565948 	2.59417e-20 6.19147 	-0.566986 	2.40306e-20 6.18617 	-0.568023 	2.21147e-20 6.18085 	-0.569061 	2.01942e-20 6.17548 	-0.56999 	2.15295e-20 6.15964 	-0.573136 	3.09942e-20 6.14321 	-0.576101 	3.2495e-20 6.12665 	-0.579067 	3.40088e-20 6.10996 	-0.582031 	3.55357e-20 6.09293 	-0.584539 	7.44927e-21 6.07716 	-0.587928 	1.16649e-20 6.06016 	-0.590891 	8.4162e-21 6.0426 	-0.593689 	2.27773e-21 6.02476 	-0.596163 	6.49667e-21 6.00668 	-0.598448 	1.68377e-20 5.98992 	-0.601653 	9.5197e-21 5.97302 	-0.604858 	2.21519e-21 5.95484 	-0.607466 	3.92375e-21 5.93591 	-0.609564 	1.8037e-20 5.91686 	-0.611663 	3.21833e-20 5.89912 	-0.614685 	-2.58298e-20 5.88121 	-0.617648 	-7.59383e-20 5.86296 	-0.62014 	-6.29264e-20 5.84362 	-0.622263 	-1.86005e-20 5.82357 	-0.624162 	4.50185e-20 5.80484 	-0.626993 	3.87393e-20 5.78577 	-0.629305 	3.62005e-20 5.76655 	-0.631547 	3.41855e-20 5.74719 	-0.633789 	3.21996e-20 5.72694 	-0.635729 	3.56272e-20 5.71886 	-0.636725 	3.30766e-20 5.71069 	-0.637515 	3.05184e-20 5.7025 	-0.638304 	2.7962e-20 5.6943 	-0.639093 	2.54075e-20 5.6863 	-0.639859 	2.29282e-20 5.67489 	-0.641047 	1.75029e-20 5.66343 	-0.642234 	1.20744e-20 5.65193 	-0.643422 	6.64279e-21 5.64039 	-0.644609 	1.20796e-21 5.62905 	-0.645485 	0 5.60988 	-0.647606 	-3.93272e-22 5.58989 	-0.649266 	-1.59136e-21 5.56978 	-0.650928 	-2.78755e-21 5.54971 	-0.65241 	-3.98304e-21 5.52994 	-0.653364 	-5.18129e-21 5.5103 	-0.655353 	-3.42023e-21 5.49037 	-0.65724 	-1.2198e-21 5.4695 	-0.6585 	4.00111e-21 5.44913 	-0.65906 	1.66146e-20 5.42866 	-0.65962 	2.92423e-20 5.40828 	-0.661228 	8.17564e-20 5.38778 	-0.662837 	1.34272e-19 5.36782 	-0.663743 	1.29229e-19 5.34691 	-0.663934 	8.04306e-20 5.32582 	-0.664066 	2.80992e-20 5.30478 	-0.665256 	-1.38185e-21 5.28424 	-0.665845 	-1.20697e-20 5.26383 	-0.666215 	-1.58783e-20 5.24334 	-0.666585 	-1.96655e-20 5.22214 	-0.666533 	-1.3863e-20 5.21194 	-0.66684 	-2.35019e-20 5.2021 	-0.666801 	-1.84225e-20 5.19224 	-0.666762 	-1.3337e-20 5.18236 	-0.666723 	-8.24531e-21 5.17268 	-0.666685 	-3.2575e-21 5.16218 	-0.666693 	2.31531e-21 5.15166 	-0.666701 	7.89554e-21 5.14111 	-0.666708 	1.34833e-20 5.13055 	-0.666716 	1.90785e-20 5.12058 	-0.666321 	1.25038e-20 5.1009 	-0.666336 	2.53871e-20 5.08076 	-0.665888 	3.06227e-20 5.06056 	-0.66544 	3.58756e-20 5.04071 	-0.664724 	3.33219e-20 5.02183 	-0.663329 	1.09821e-20 5.0022 	-0.663084 	6.26216e-21 4.98246 	-0.662804 	1.74154e-21 4.96231 	-0.661747 	1.11804e-21 4.94339 	-0.659859 	2.3115e-21 4.92444 	-0.657969 	3.50533e-21 4.90477 	-0.657223 	2.23901e-20 4.88504 	-0.656477 	4.12731e-20 4.86675 	-0.654761 	3.43698e-20 4.84801 	-0.652552 	1.50071e-20 4.82911 	-0.650168 	-8.77872e-21 4.80953 	-0.648914 	-2.30618e-20 4.79119 	-0.646824 	-2.12156e-20 4.77305 	-0.644604 	-1.68578e-20 4.75489 	-0.642384 	-1.24989e-20 4.7365 	-0.639903 	-4.62479e-21 4.73067 	-0.639333 	-3.35513e-21 4.72522 	-0.638512 	-2.56684e-21 4.71978 	-0.637691 	-1.77857e-21 4.71434 	-0.63687 	-9.90305e-22 4.7089 	-0.636049 	-2.02528e-22 4.69697 	-0.634241 	3.06065e-21 4.68505 	-0.632432 	6.32328e-21 4.67314 	-0.630623 	9.58534e-21 4.66123 	-0.628815 	1.28468e-20 4.65022 	-0.626457 	5.73299e-21 4.63376 	-0.623936 	4.6451e-21 4.61695 	-0.620884 	2.16919e-21 4.60016 	-0.617832 	-3.06571e-22 4.58399 	-0.614406 	-3.43702e-21 4.56874 	-0.610448 	-7.5034e-21 4.55277 	-0.607557 	-4.24826e-21 4.53682 	-0.