/*--------------------------------*- C++ -*----------------------------------*\
| =========                 |                                                 |
| \\      /  F ield         | OpenFOAM: The Open Source CFD Toolbox           |
|  \\    /   O peration     | Version:  2312                                  |
|   \\  /    A nd           | Website:  www.openfoam.com                      |
|    \\/     M anipulation  |                                                 |
\*---------------------------------------------------------------------------*/
FoamFile
{
    version     2.0;
    format      ascii;
    arch        "LSB;label=64;scalar=64";
    class       volScalarField;
    location    "190";
    object      omega;
}
// * * * * * * * * * * * * * * * * * * * * * * * * * * * * * * * * * * * * * //

dimensions      [0 0 -1 0 0 0 0];

internalField   nonuniform List<scalar> 
404911
(
248.761
198.668
3438.99
1536.58
171.6
186.355
159.383
603.397
341.352
281.75
222.816
292.592
170.409
221.771
403.038
1100.78
227.508
179.495
206.059
303.881
415.22
212.746
664.924
398.389
143.945
948.626
226.921
115.212
147.576
969.297
203.632
104.213
220.087
324.315
180.946
104.121
213.467
400.576
190.412
85.7367
204.911
1001.99
187.281
76.146
74.4167
360.505
307.145
75.4854
89.9058
472.337
377.463
322.476
132.593
1322.92
326.317
566.52
9402.18
133.496
305.858
204.293
199.863
118.941
162.658
77.1385
84.6568
196.295
139.862
338.776
167.216
79.5137
130.753
46.4123
130.296
89.7382
45.7128
589.031
2267.13
222.647
85.8437
186.986
74.3219
172.501
47.991
71.3455
63.848
78.9765
159.191
76.0612
1121.94
123.531
140.893
2954.09
119.396
175.091
128.74
69.8139
84.2687
160.765
60.8687
203.859
603.423
76.3292
79.0302
443.971
1218.95
472.149
224.812
659.349
314.001
243.671
185.509
191.252
185.93
197.41
2245.44
490.646
205.462
4521.71
567.746
165.877
167.702
165.813
164.326
236.06
1275.12
288.231
190.374
186.676
174.316
513.517
449.894
477.964
158.254
146.915
156.559
148.24
194.038
212.768
160.96
262.499
1150.47
282.804
176.457
162.434
165.741
165.38
166.4
153.046
474.881
408.245
151.227
144.15
165.083
1754.87
267.627
956.698
231.068
156.681
147.54
154.883
150.47
154.377
156.29
153.2
146.86
143.798
147.295
150.296
165.852
237.948
368.789
555.072
418.937
387.036
389.642
384.477
460.999
144.511
150.163
145.511
149.355
151.394
162.501
176.979
183.716
184.678
263.537
674.341
430.089
361.807
354.831
215.356
298.971
477.868
397.9
133.939
142.643
146.345
159.058
168.687
176.132
207.886
1145.01
955.311
228.531
552.469
279.27
235.265
211.402
284.087
370.835
264.299
311.161
382.556
395.777
127.227
148.833
160.694
162.516
187.185
473.832
824.923
563.955
243.035
229.462
146.419
189.437
211.063
215.263
279.781
288.018
293.25
220.97
116.27
152.201
160.223
180.345
271.536
1179.99
1177.03
248.123
111.659
169.331
148.673
127.119
122.222
155.028
359.422
223.561
187.37
142.024
154.946
265.37
440.817
153.15
190.857
1079.38
429.334
141.752
95.4606
210.883
134.717
121.952
110.605
139.535
141.829
149.536
149.218
165.368
203.613
351.205
432.782
501.661
394.381
446.174
187.551
138.067
340.339
164.918
122.205
130.631
114.27
116.158
138.423
130.114
143.65
285.011
318.73
398.599
443.998
1656.88
333.354
157.814
139.412
115.097
118.489
128.831
122.338
116.703
120.739
123.128
118.312
118.989
131.502
349.879
357.921
408.457
217.776
999.866
946.63
855.295
273.868
216.716
96.5796
86.4061
139.641
113.789
112.605
114.777
126.476
134.052
119.809
128.409
173.636
326.094
165.835
517.33
1076.12
224.753
127.958
140.958
137.626
127.526
117.458
71.7774
123.703
100.63
116.749
97.7649
99.9572
126.328
138.618
178.882
426.001
244.664
442.792
143.226
105.251
103.48
95.7319
168.167
106.626
116.093
67.8823
88.0083
74.6586
81.2449
113.571
98.8456
132.351
212.918
171.527
985.117
1113.56
243.17
136.495
104.575
89.1933
79.7346
90.6259
92.0568
84.3851
83.2034
75.6389
116.239
111.643
114.903
111.319
125.392
349.786
875.935
328.331
127.826
108.76
148.49
157.045
102.461
96.6252
77.362
61.893
62.5709
66.9984
89.145
123.715
131.3
153.191
126.771
263.978
698.069
1077.9
870.453
300.617
171.061
128.329
107.619
129.103
94.7959
80.5906
69.7149
65.2434
67.1856
74.4586
99.3703
151.749
147.665
140.138
427.397
406.932
150.458
137.213
126.334
114.799
99.5137
87.6999
116.3
76.2762
100.154
86.7425
78.3812
80.7607
102.154
104.906
130.581
265.665
942.598
167.423
108.817
134.297
91.3101
90.4787
90.9725
85.8716
89.7047
85.6796
88.192
100.443
99.9981
103.269
103.846
171.894
144.81
299.887
401.028
123.934
140.977
116.94
85.8954
80.3563
90.7994
78.7127
73.2833
96.8332
123.525
107.459
101.523
117.699
120.16
168.749
161.309
967.499
223.452
103.663
90.2293
75.43
76.2557
76.5109
83.1024
103.079
63.178
61.9192
74.1787
99.4131
132.948
140.086
185.186
148.799
262.148
1157.57
426.046
150.313
102.409
81.7168
72.1725
68.665
78.7388
79.5574
67.1618
64.9993
65.6798
69.5795
74.774
86.2443
170.719
100.618
166.267
981.225
1091.73
204.273
99.9465
128.428
86.5094
72.513
67.4065
68.2951
70.4758
77.0444
65.9041
73.2236
95.5396
89.9993
93.453
101.521
136.73
273.217
404.108
129.846
100.731
82.8027
71.7795
66.5805
64.1133
68.75
80.4131
72.5776
72.6489
75.9859
89.2347
113.922
135.48
133.039
157.874
973.373
1114.96
211.674
102.88
93.2673
78.5319
69.7685
64.8326
61.4621
59.4772
64.6948
78.4668
81.631
82.7039
82.3232
100.135
116.392
154.39
245.146
881.231
141.76
110.33
92.1979
77.8945
70.4413
64.6668
60.5966
57.2267
56.1986
58.2933
66.7461
72.5324
78.8987
87.8122
115.89
178.131
299.471
249.821
114.469
123.308
96.7338
80.3276
71.3156
66.7264
60.0832
54.5812
53.7827
56.2616
61.5135
69.3052
77.4657
96.7352
109.628
150.271
482.503
223.734
129.012
122.025
88.7103
79.9878
70.2775
67.9981
63.1764
56.3794
52.4186
55.6601
61.3761
68.471
86.47
96.7493
116.846
229.724
1092.62
1131.45
163.137
98.8282
101.467
86.4819
74.9116
68.4873
65.2988
69.9797
66.4393
58.4372
58.6641
63.6201
69.9522
82.2455
132.266
150.006
438.446
901.598
145.868
99.4434
78.4154
70.9325
67.601
63.0671
58.9
56.4055
62.5983
63.6874
62.4132
66.2653
73.1124
81.7566
114.969
154.162
1038.27
263.683
123.386
106.744
83.0158
72.4886
70.2718
65.6985
57.1731
51.4459
49.5211
53.1446
58.8064
65.7842
71.8428
99.578
100.573
159.751
1072.34
250.85
108.518
89.9943
77.3874
69.0985
73.0088
74.6785
56.5043
48.6243
48.9303
53.0173
59.0461
66.2192
75.546
88.9564
110.7
243.561
1008.42
180.943
107.624
89.0739
75.5662
71.1676
64.6012
67.9014
65.1392
46.4162
45.1084
51.8616
58.5053
65.5191
76.6957
100.588
132.476
419.703
410.546
134.946
128.144
116.307
80.3709
72.7036
70.1489
58.3236
62.9047
54.6567
42.2826
53.6321
62.1244
66.63
78.0633
104.393
148.865
974.757
260.308
114.242
88.2812
76.5401
68.3646
69.2756
78.0175
76.1429
64.6517
45.6912
55.0675
56.0418
64.019
70.5275
77.6977
116.279
191.259
1108.17
1027.78
166.715
105.582
90.7835
74.5205
67.4183
61.8416
70.4445
72.7286
67.3555
60.1744
43.9185
55.8771
66.2127
70.8647
93.4802
98.5264
216.749
1020.36
155.677
99.9099
80.0359
69.5273
64.9393
61.1539
57.3001
67.6796
69.211
65.0385
55.9198
56.0409
65.67
76.9219
87.979
110.502
386.454
1003.71
153.579
100.429
78.0819
69.3078
63.9863
59.7142
56.5121
54.4517
55.1524
51.3078
63.5948
60.9509
72.1679
87.5717
114.561
124.261
867.321
999.321
149.536
99.986
78.6922
69.2166
64.7838
59.5794
54.4447
53.7894
58.0957
55.4458
56.4264
64.9305
75.7657
89.8488
129.759
183.637
1095.94
256.019
131.334
103.557
81.647
70.8488
64.6342
59.5058
53.7755
49.6958
51.0955
61.5644
67.8639
71.523
77.0677
88.1764
124.561
209.293
1129.75
234.445
112.22
90.4039
78.2773
69.5817
64.3213
58.7351
52.7739
50.2895
48.8698
53.2424
67.1871
76.4482
79.3679
81.7689
120.644
206.293
1079.78
156.677
121.785
109.77
76.6843
68.0804
62.7037
58.8587
54.8467
49.1251
49.9384
52.6041
56.6779
66.4623
78.4382
87.5285
106.627
223.732
954.402
151.621
100.088
75.4111
66.754
62.4436
58.897
56.1314
60.8628
59.5546
52.3322
53.2886
57.9694
62.543
69.4674
85.2937
108.066
237.409
1017.7
149.422
97.9686
74.6606
64.4709
60.1275
54.9804
50.3295
46.146
52.5716
56.6313
54.1048
58.5615
63.6136
70.1722
87.2673
112.633
253.679
1014.32
150.83
108.39
76.9469
64.5046
58.4623
52.3294
46.1721
42.198
40.1784
43.9868
49.8824
57.2853
63.2088
71.9549
88.8922
121.134
397.016
944.385
141.466
97.6228
75.8616
64.791
57.9986
50.317
44.1913
39.0284
38.8648
42.9734
49.7871
57.1267
63.4449
72.2076
93.8134
145.019
958.578
256.086
136.648
94.2644
77.1867
68.4622
59.2381
50.6199
43.1318
37.5115
35.8988
41.6759
49.6773
56.7351
63.807
73.6955
94.0712
146.461
1041.11
257.855
131.068
92.0282
77.687
72.5674
65.5351
53.6739
43.3958
36.3241
32.9371
38.3673
52.1155
58.7227
63.7456
76.7533
100.494
143.699
1006.87
1128.01
171.317
123.613
91.6261
71.7062
72.0779
74.0405
56.7363
50.2479
37.4564
39.784
40.19
53.8068
64.3355
66.5947
76.5734
113.942
154.463
992.662
1013.8
136.759
92.8267
121.425
77.3194
62.6395
65.6099
65.902
54.7013
45.8364
40.5283
39.2299
52.0909
71.0921
72.0369
78.7601
108.567
196.495
141.958
89.6551
68.1592
60.2973
58.0971
56.5851
51.7738
48.1892
48.3079
47.3625
40.7842
55.287
60.5336
69.5515
93.033
96.7413
208.087
951.19
142.625
88.9482
65.8073
57.9671
55.9601
55.9194
53.2638
46.2268
50.329
42.1398
41.4147
56.761
64.9554
69.208
97.1504
104.62
250.759
996.174
137.428
88.3633
65.8808
57.9253
55.4474
52.3294
55.0887
52.3935
41.5312
46.3085
49.1401
61.7097
65.325
66.8488
87.2729
110.42
395.623
1098.44
138.817
92.4084
69.0957
58.5798
53.8983
50.7102
48.1046
54.0747
51.624
40.1547
49.9786
60.2164
61.5215
67.8542
82.9461
117.971
812.953
127.484
106.397
77.3674
61.0695
52.5026
49.2777
46.8511
45.0545
53.9345
48.572
48.7496
52.9087
57.5509
68.5217
90.0608
138.101
914.802
711.354
188.969
76.8059
59.4336
50.175
45.8749
44.8132
43.4074
41.9115
48.7393
52.2381
57.7867
61.27
69.1753
96.5701
141.874
1012.76
2132.38
305.134
143.661
89.5231
53.8952
45.3188
41.7208
40.0154
43.5781
46.2607
49.0397
56.1714
62.1274
68.4483
81.4126
94.8516
158.293
1061.19
240.156
103.576
98.9172
71.6266
46.171
40.1443
37.8057
37.1971
38.9572
49.6261
51.3728
57.2333
65.9571
69.8901
95.5763
99.261
223.407
226.03
105.432
86.1234
65.1708
47.6317
38.6732
36.4546
36.551
36.7143
47.2048
50.6427
63.1411
73.8256
80.1151
90.4334
105.606
244.287
1147.39
195.45
98.1005
88.4692
76.615
72.0502
71.7699
45.9056
34.5922
35.417
38.48
48.602
65.6199
77.714
91.2359
113.236
127.672
819.61
922.516
145.09
101.756
80.5811
72.604
69.8951
115.067
136.033
49.3765
33.3927
42.8879
57.3621
70.8754
81.8136
102.493
134.298
141.368
956.464
798.925
110.399
187.039
120.019
80.2888
62.7693
58.134
80.7501
141.173
60.7854
41.459
63.4027
82.5372
90.8355
107.266
149.307
147.176
971.702
414.147
105.58
118.954
94.4514
75.1533
60.0494
62.5573
73.2004
80.5389
80.1763
59.3734
74.692
84.6582
87.5744
100.302
159.254
154.707
1011.86
996.188
211.265
105.716
109.548
107.621
84.2574
56.2236
49.3009
79.0154
109.713
101.279
79.301
78.6787
80.2399
78.1341
97.7726
126.365
288.263
1021.23
886.969
129.667
144.214
102.393
95.434
91.5793
57.515
31.1547
38.0544
52.3914
62.0366
59.6496
65.5572
69.3059
76.0335
84.8434
105.102
170.806
1052.58
197.559
117.053
96.1405
92.9481
87.0794
53.2988
28.2831
27.5867
33.2269
42.5599
59.0943
66.6933
69.8523
76.9928
96.4381
107.166
221.756
1176.99
225.806
114.347
111.547
99.8737
87.6438
39.7598
31.5133
32.068
30.6426
39.4691
60.7552
72.5119
73.0099
78.4441
99.8203
115.514
261.274
229.983
120.898
119.612
102.794
89.1628
46.737
28.9251
35.438
39.8583
47.2162
76.8663
77.7786
76.2093
80.0393
102.93
121.26
411.107
205.369
192.704
133.798
102.92
89.081
32.807
24.7016
28.585
38.2351
53.4074
78.5356
80.9971
78.4136
86.1235
98.099
128.199
852.281
943.432
145.16
124.134
107.966
96.9969
89.5781
46.7598
24.2837
27.4992
38.2617
63.8358
82.8973
86.5283
82.3649
86.382
116.591
159.974
955.434
893.892
151.678
131.878
107.272
93.2059
89.04
39.4123
28.3055
29.1032
40.2324
63.4343
78.8697
81.6336
78.8162
88.3381
109.509
236.244
828.369
126.757
96.7492
90.1843
86.1064
84.2415
59.6584
27.8493
29.9931
41.3598
63.358
76.9513
69.6725
73.3766
87.94
116.498
272.27
842.686
123.638
100.706
90.8798
84.0742
77.1221
41.6228
35.3141
36.4721
45.3614
59.4364
72.6302
68.7204
72.0834
89.0567
121.115
272.744
863.044
129.942
109.853
94.714
87.2682
66.9806
36.3882
35.2421
38.0917
44.6774
54.936
69.146
67.7849
75.0162
89.3029
125.142
836.497
877.74
135.645
120.045
110.981
97.2431
74.4929
48.023
35.3001
41.8487
47.2125
53.7621
69.2669
69.4817
82.9433
100.644
145.215
938.157
273.13
137.947
152.393
129.899
106.152
77.222
108.842
96.278
54.2651
51.6145
57.9696
71.5645
75.9049
84.4755
122.543
148.073
1013.43
333.222
321.121
138.182
116.518
80.6821
45.1506
68.0747
103.485
76.4787
78.9791
83.2123
85.5441
104.403
118.193
188.145
1149.03
325.336
191.083
137.109
124.456
77.6759
47.2724
57.9162
88.6622
102.444
104.262
104.724
90.7549
106.43
105.623
235.822
285.758
203.69
157.113
135.662
121.146
77.5622
54.5784
77.0493
90.5921
103.265
100.894
89.0797
100.729
105.376
111.661
263.348
298.334
134.751
121.157
133.44
131.786
100.214
60.3124
77.9388
96.2773
109.486
102.01
109.508
109.562
154.456
139.02
825.84
292.285
137.28
128.036
131.919
134.037
138.334
79.0453
93.7247
100.893
99.2116
109.434
117.789
136.112
196.115
164.333
1021.85
1137.4
260.757
152.671
106.429
135.274
150.015
130.799
131.736
105.304
134.635
129.625
113.79
108.819
150.905
211.836
463.818
1185.07
183.411
121.382
118.885
84.0392
159.773
154.455
119.136
83.8534
105.92
131.187
125.044
134.777
159.903
257.53
228.221
949.835
174.977
133.802
100.994
71.4817
93.5254
117.522
190.083
115.937
100.39
127.038
141.805
155.946
176.894
281.506
801.423
258.165
129.488
498.616
230.504
117.922
62.6515
84.056
75.3627
74.6676
88.607
107.544
105.921
125.103
168.07
297.61
4091.34
271.856
507.438
231.564
137.288
120.672
81.0267
73.1843
99.5232
99.3134
96.9323
118.585
136.026
139.733
180.199
285.675
791.388
1033.2
598.118
282.635
154.131
115.213
93.4914
64.2467
74.3737
100.095
107.908
131.004
160.472
193.782
187.104
309.795
1154.4
177.78
417.968
212.839
134.027
87.7458
65.7315
79.9997
100.641
114.849
123.359
134.033
124.605
180.632
218.385
1400.49
1143.17
194.017
145.002
297.394
199.907
126.492
67.4243
60.4235
102.476
113.448
129.308
144.557
156.136
145.654
300.75
1226.54
539.003
182.413
147.502
451.775
290.153
137.161
91.7212
79.7883
99.3138
116.589
134.876
207.812
127.487
159.051
311.332
1092.16
503.86
425.724
308.41
202.884
102.224
100.743
106.029
126.321
140.416
216.442
149.251
212.203
1126.36
665.93
476.104
396.468
313.213
190.769
230.009
109.257
105.075
128.17
201.935
127.942
160.743
298.304
1099.79
163.761
136.987
447.404
428.829
145.854
222.558
295.321
130.202
157.247
195.42
149.951
190.641
501.126
1154.77
167.723
136.952
450.261
401.719
209.819
183.607
297.056
259.02
273.038
312.824
159.51
207.099
1180.91
1087.58
170.778
484.552
434.178
436.338
298.745
172.771
194.258
206.173
296.06
468.745
166.708
218.129
1273.14
1172.14
183.548
510.594
433.001
436.038
405.727
185.116
194.361
180.864
260.911
486.427
176.482
305.319
1328.6
1138.56
205.32
164.493
478.263
417.863
448.593
291.085
178.779
208.802
313.011
167.763
193.53
312.979
1445.77
1428.85
1130.16
179.936
165.048
455.913
445.983
564.847
290.3
239.986
349.133
516.494
199.791
335.511
173.822
503.467
450.568
458.988
154.567
507.47
528.106
553.61
517.103
173.799
158.16
466.335
548.364
180.553
203.081
280.915
1181.45
6254.03
571.719
161.313
491.723
529.28
215.467
372.189
2746.23
2050.88
481.369
769.226
206.635
233.699
1163.35
439.969
744.113
206.163
222.765
574.949
756.128
531.963
235.353
197.054
246.271
1156.76
1147.2
273.197
1867.78
731.048
500.978
323.761
194.785
182.889
214.282
208.14
633.764
264.74
213.844
377.837
688.059
1495.41
1299.92
6449.11
521.205
1502.13
592.337
564.285
1387.31
595.162
406.002
311.427
299.964
281.567
264.147
254.171
323.094
1369.66
574.489
374.372
283.465
273.985
256.156
245.367
244.784
252.285
251.764
248.06
234.053
234.748
238.599
227.526
1232.44
501.422
265.407
246.395
232.702
235.652
234.393
229.777
232.782
233.362
237.372
228.279
220.565
226.017
236.481
234.518
236.932
232.866
235.604
315.848
371.235
816.743
905.082
449.525
227.602
204.637
205.62
202.229
204.711
211.347
214.515
215.519
216.447
220.226
227.442
210.933
575.158
562.671
236.793
245.85
229.899
240.315
238.461
263.257
579.744
505.59
274.818
205.527
184.704
166.138
158.276
166.543
177.013
186.34
190.438
196.016
197.574
208.482
209.473
216.416
220.24
207.256
530.018
568.428
209.685
232.619
237.394
251.927
285.206
1258.08
403.39
186.316
145.418
134.574
165.048
170.179
385.746
543.88
661.526
153.136
168.666
180.261
177.37
177.318
186.668
209.966
217.348
208.084
197.144
513.652
564.508
214.957
239.794
278.64
604.517
1478.39
367.233
235.741
204.323
145.474
144.346
139.172
162.345
192.813
172.058
166.154
288.283
149.422
171.485
253.327
185.49
623.485
194.224
217.186
227.29
227.964
581.023
579.242
256.208
583.337
1222.05
288.549
268.662
183.129
129.488
111.734
116.021
140.308
143.014
133.26
216.519
168.469
150.39
141.36
203.963
348.903
159.85
168.86
473.427
214.573
225.036
222.458
225.368
249.458
523.294
376.123
1304.3
283.909
211.658
171
146.343
105.592
100.609
99.2718
110.477
129.684
137.856
111.712
206.528
180.284
172.935
176.675
156.177
138.43
137.542
192.138
176.459
218.282
233.869
331.726
570.917
1039.55
352.177
147.769
138.212
167.474
139.952
141.946
110.755
97.9421
87.1102
106.418
107.222
99.5377
97.4428
95.131
100.57
104.096
108.186
150.377
139.675
192.392
167.583
180.785
196.473
228.043
519.555
1103.28
196.838
119.812
159.489
140.797
120.279
133.276
123.218
122.65
119.609
116.493
103.993
99.8247
105.859
118.043
93.9599
98.8439
102.989
105.724
110.047
224.518
148.927
544.833
516.876
651.223
4537.17
753.685
1368.48
283.453
173.501
126.822
109.969
104.707
119.443
161.152
150.395
131.225
127.378
124.11
119.835
125.686
130.759
123.006
109.52
113.184
110.099
110.494
117.954
126.317
534.545
1619.15
1264.24
321.401
176.09
121.68
104.301
105.278
106.287
104.731
112.472
115.131
166.978
139.006
130.56
114.755
154.589
146.931
131.845
129.795
140.473
126.352
120.823
114.695
175.204
405.396
428.773
172.303
174.55
161.792
144.097
104.858
94.3205
95.1427
101.855
109.376
111.995
111.104
107.62
97.1058
124.604
117.288
110.13
146.599
143.238
148.965
176.406
174.175
110.534
164.728
423.344
405.916
176.138
131.837
131.094
107.134
100.9
96.6714
96.839
92.6535
94.1002
99.01
107.107
107.063
94.3887
89.3033
99.6962
111.158
118.536
119.52
147.997
176.015
182.396
334.873
152.951
413.678
364.027
149.443
159.302
139.274
110.014
98.3239
94.7371
91.323
92.7324
88.7318
85.518
89.8371
93.543
99.3011
85.6275
83.3987
94.4909
108.762
127.098
117.867
133.605
200.91
216.978
363.801
793.089
1120.85
348.939
142.723
146.121
109.341
99.4613
94.7487
93.141
91.9391
87.3315
82.7769
73.9323
69.2996
73.5482
86.8079
90.8951
89.3288
91.9083
93.1444
102.795
112.823
126.24
144.633
175.265
348.865
381.657
1099.83
342.507
133.017
139.037
105.825
91.4684
84.9007
80.203
78.6342
81.6253
79.4434
72.3395
63.4381
58.2042
61.9032
73.0635
75.6243
83.9229
95.4525
97.7126
95.6602
104.178
116.201
172.483
348.238
410.065
984.67
227.043
128.82
144.689
107.031
91.1584
83.1319
74.9641
66.7651
60.0726
58.5374
61.7506
59.6108
57.9092
55.6287
62.454
70.4304
77.1061
80.4781
87.5037
103.263
101.211
112.628
136.209
193.398
283.386
1305.95
1185.02
240.806
122.213
107.314
94.7243
87.4367
84.5463
76.8886
64.6194
52.5666
47.5024
46.6162
47.8487
49.8474
52.6536
57.8816
64.2852
74.9612
83.0099
89.9565
96.7036
109.787
116.79
144.993
187.133
168
1499.51
371.105
129.829
148.825
105.939
87.6956
82.6913
77.3154
66.9924
50.7415
43.0752
40.2207
39.9252
41.3347
44.3357
48.768
56.289
65.2448
73.9358
84.0931
92.2451
99.5591
112.377
137.493
183.27
162.684
406.838
417.475
161.576
118.067
100.278
91.4378
86.2407
77.8269
69.1695
46.935
38.1932
35.4946
35.164
36.2491
37.9425
41.3908
46.8062
55.7316
65.8039
74.7457
82.6045
90.5323
99.4783
110.434
137.393
162.188
418.112
953.79
205.696
115.999
111.699
91.9458
88.1999
84.5235
73.5322
47.4562
34.5685
31.1838
30.7028
31.1589
33.0816
35.7851
39.1363
44.7247
54.3196
65.6829
76.0259
84.3457
94.076
108.549
126.911
140.625
372.433
357.342
126.566
103.472
85.2503
80.1445
77.0563
74.4846
56.0156
34.837
29.6216
28.7809
28.9798
29.5585
30.586
33.4735
37.9747
44.785
56.0373
67.7675
79.2089
87.9884
97.4227
129.126
167.107
260.773
412.317
141.96
139.823
99.8222
81.6821
73.6912
71.6357
65.0911
46.56
34.919
30.1177
28.5215
28.5663
29.0386
30.2707
32.989
39.072
51.5204
64.4816
76.8396
86.1317
96.1593
107.376
128.3
154.487
799.044
897.812
189.613
114.893
111.224
86.8489
78.2819
70.4612
64.8265
53.1972
40.9542
37.1846
35.7793
33.4298
30.5606
30.7623
33.3781
39.625
52.4051
67.7043
80.2593
86.7296
97.1142
110.011
126.691
131.31
375.96
904.017
204.293
120.618
116.953
91.5694
81.9697
74.9329
68.262
58.9249
43.3848
34.7513
37.317
37.3029
36.2898
35.0052
34.9775
40.3286
52.4411
72.3956
83.4666
90.3341
99.1597
105.866
138.514
188.811
224.953
1057.78
368.111
139.726
120.324
92.258
83.6666
78.6129
72.923
65.2074
56.111
36.8154
32.4687
36.9211
41.3852
41.5887
41.7827
45.648
59.0519
72.1763
81.0397
87.0375
94.411
107.664
136.441
180.618
203.785
886.859
735.959
166.081
151.837
100.765
82.5559
77.5528
74.1754
68.7664
62.1838
51.2975
36.3194
31.7678
37.561
45.0458
48.3517
50.5074
59.1966
71.7728
78.1218
83.3436
87.7566
96.6661
138.788
175.818
201.197
874.376
206.476
118.096
97.1665
83.181
74.2098
72.053
68.132
58.9732
49.5979
45.1524
37.1221
32.8369
37.039
48.3098
56.0168
60.0053
66.4749
75.0257
81.3878
84.6716
90.2206
104.903
129.228
182.126
867.506
725.554
126.015
107.018
85.8727
77.1047
67.9303
59.6514
56.5047
47.8626
41.1132
37.6873
36.0359
34.4924
37.1914
47.1436
56.9306
64.3272
70.7194
77.3728
80.6278
87.4899
99.6957
126.452
169.858
348.934
219.123
116.242
94.4077
83.8555
73.409
63.3401
51.8571
42.1942
38.6798
34.7519
33.1139
33.8181
35.7278
39.2356
46.3809
59.9331
66.4094
72.9726
80.4011
86.611
90.8496
108.65
151.042
209.345
902.893
898.151
168.956
105.441
86.8785
81.5206
73.7746
63.0587
45.4628
34.8137
31.7266
30.426
30.3482
33.0755
38.7982
46.429
56.2936
67.3784
73.6909
76.9538
82.608
90.5288
98.8413
111.42
139.576
807.513
293.412
127.684
111.624
87.2982
79.568
75.1738
65.0316
42.6788
31.3162
27.5948
27.0369
28.3462
31.3052
37.1747
47.0078
62.4836
71.7037
79.1159
81.8084
85.7118
95.6842
110.551
141.775
228.84
1170.14
682.062
120.855
98.2131
81.7478
73.6721
72.5481
71.057
62.3657
38.768
28.7554
25.344
24.7892
25.8732
29.0368
33.8128
40.7948
53.6671
66.7825
75.7101
84.219
91.3263
100.793
139.417
196.171
863.22
176.62
132.248
90.5768
76.8036
69.5233
64.8181
64.2458
60.6185
41.3166
29.3783
25.2312
24.2954
25.112
27.2376
31.96
38.71
49.3175
62.2318
74.0457
86.4522
104.251
125.768
125.135
378.674
662.99
120.578
94.7266
76.0062
68.2532
63.7906
60.9693
57.4882
53.661
41.6806
30.9089
26.336
25.7412
26.6795
28.6339
33.4972
41.7881
52.9791
64.8341
76.5686
88.1364
106.039
162.348
204.75
978.233
203.663
110.548
85.9521
73.0179
65.3452
60.1063
57.0103
53.0833
46.4385
38.3483
30.9995
27.7273
28.1871
31.5776
36.4714
42.5515
53.5925
66.3276
71.7317
79.8691
92.6171
124.199
166.07
367.481
671.839
119.164
97.5815
80.722
70.0589
62.5106
56.2294
51.1117
47.8807
41.4991
35.8535
31.2916
28.7289
30.0992
34.9465
44.96
58.0093
65.184
71.927
79.0631
84.6969
97.6659
114.119
147.121
865.346
201.921
109.952
87.3808
76.3758
67.9804
60.1402
53.0482
47.2365
43.1371
39.5659
33.2691
30.2717
29.3816
31.2565
36.7005
44.9417
57.9148
66.9211
72.8784
79.6327
89.595
114.935
154.918
230.057
687.042
118.623
97.596
80.0131
72.2637
65.181
57.8691
50.0876
43.8843
39.6501
37.8809
34.8811
31.9288
31.9622
35.0124
41.719
50.791
58.7599
65.7167
74.0337
81.1064
97.5075
111.902
132.512
811.896
210.684
105.815
85.3258
77.4795
70.0925
63.8131
56.4155
47.4194
39.9198
36.6624
35.7657
35.854
35.0623
36.6875
42.0449
52.4587
59.696
62.9255
67.0095
74.0336
84.2223
95.5497
162.171
217.401
175.783
132.531
89.0401
75.4854
68.5441
63.1239
56.6081
46.2297
37.27
33.5285
33.139
34.6278
37.745
41.1272
47.2193
55.1336
61.0691
64.7109
67.9828
75.2296
90.5649
117.144
113.793
668.746
716.018
117.764
95.1997
77.64
70.1679
66.3062
62.1492
56.3885
45.942
35.7242
31.0985
30.231
31.7852
35.1428
40.1973
46.48
52.7435
58.3345
64.3716
69.6135
75.2316
92.5604
153.082
187.358
961.172
680.153
126.114
88.2948
72.2898
66.0571
63.3535
60.6925
55.5012
45.1553
34.7336
29.3847
27.8217
28.9799
32.2358
37.6997
44.9774
52.0735
58.1828
63.1858
68.6356
75.2796
89.5335
153.287
615.462
319.207
118.513
85.8768
71.035
62.4262
57.3171
55.3198
52.0875
42.8234
33.7309
28.3077
26.3502
27.1209
30.2583
35.541
42.8875
51.2153
58.7946
65.6866
71.5104
82.1927
101.451
146.24
750.372
172.045
139.134
88.0372
70.3416
60.7595
53.0308
47.0254
43.3085
38.2694
32.4109
27.8324
25.7533
26.9231
30.2427
35.7942
43.224
50.6046
58.6232
66.8495
76.1009
84.9328
125.878
202.512
682.66
138.157
110.361
77.6801
66.748
59.4689
51.1708
42.9649
36.824
33.0974
30.0946
27.3951
26.4299
27.7327
31.9777
37.7798
45.43
52.4386
58.6097
66.677
75.4576
104.941
115.79
690.452
333.463
116.572
83.6459
69.9779
63.3557
58.1987
50.9642
41.432
33.4478
29.5218
27.281
26.0584
26.2937
28.5462
32.9227
39.5156
47.4306
54.5713
60.4857
66.14
78.156
99.6283
152.983
938.938
169.07
136.969
89.3428
71.4668
62.6211
56.3059
50.1667
40.6768
31.8346
27.126
24.7651
24.3472
25.4686
28.4293
33.4771
40.7458
49.047
55.9811
62.7115
69.074
80.1916
110.295
193.587
720.996
120.569
95.4346
75.5531
68.0786
61.9414
55.7277
49.2158
40.3344
30.8125
25.7371
23.0706
22.4819
23.9297
27.4211
32.6876
40.4224
49.6108
57.092
63.9769
73.4124
82.8427
118.799
334.655
328.507
114.728
83.734
74.04
65.6226
59.7341
54.7456
48.6327
40.451
30.3016
24.5744
21.9208
21.1193
22.3003
26.0437
32.1174
40.4492
49.4883
57.7428
64.8405
74.6186
103.604
111.29
667.726
217.545
101.275
80.2384
70.1477
62.7063
56.1225
50.3989
44.8829
38.9706
31.0408
24.1185
21.0953
20.5466
21.7162
25.2133
31.9031
42.053
50.6825
58.1701
66.4501
75.6624
107.084
155.449
949.489
179.355
135.108
85.5787
69.9699
62.0289
54.4503
47.6556
41.4955
35.8379
30.9427
25.2782
21.2109
20.1127
21.4307
25.4488
32.9233
44.0036
53.3624
60.5066
67.6458
84.337
102.195
169.818
881.075
122.073
89.834
74.0985
67.3061
61.081
53.9156
45.5331
38.9057
33.9983
29.7159
26.2098
22.6923
20.5451
21.1401
25.4781
34.7854
47.0581
54.8527
63.1892
72.1887
83.4815
137.096
320.343
696.435
113.907
94.4393
75.6637
67.8721
61.8144
54.6515
45.6043
36.8449
31.8968
29.0649
26.5054
24.1087
22.5383
22.4606
26.2405
37.624
50.8693
57.7373
64.4886
74.4125
106.381
114.496
708.179
645.01
122.697
87.9919
74.7179
67.4139
61.6545
55.0323
46.148
36.5008
30.1076
27.6203
26.8382
25.878
24.897
26.1023
30.5018
42.1703
53.3913
60.2126
67.3728
82.0482
94.8706
161.359
221.342
101.611
79.3566
69.8116
65.3566
60.4553
54.3923
46.0526
36.1233
29.4948
26.3851
26.0533
27.4217
28.6264
30.4887
36.3426
47.1387
54.6529
60.7962
69.1552
85.4134
136.362
205.482
212.575
100.832
79.9573
71.2327
63.7196
58.4639
52.9743
45.0019
35.4582
28.924
25.5701
24.9927
26.8808
30.794
36.076
43.5143
50.8812
55.0975
60.3518
69.9956
82.2151
140.539
609.131
181.676
141.26
86.5742
68.4151
60.3248
54.8342
49.9514
43.4174
34.6495
28.2601
24.6067
23.9409
25.9099
29.8959
35.7488
43.2817
50.1827
54.701
59.4112
67.4082
98.5695
129.33
644.766
176.105
97.9567
73.1754
64.3768
57.7651
51.1931
45.149
39.3885
33.2272
27.7255
23.9512
22.9132
24.7585
28.6772
34.661
41.6593
48.0979
53.3057
58.7182
67.3211
82.2705
132.637
780.663
165.312
94.8471
71.3309
63.1434
56.8227
49.5284
41.6773
35.1803
30.2738
26.4841
23.5178
22.4926
23.9642
27.9664
34.0974
41.429
47.8743
53.2796
58.1804
66.3806
87.1419
118.716
884.382
848.013
122.517
88.2589
70.4608
62.677
56.7377
49.173
39.9752
32.032
27.3424
24.3801
22.4707
21.9725
23.5558
27.5997
34.0505
41.9347
49.0368
55.0516
60.2099
66.8122
87.6646
151.127
667.198
123.954
101.627
72.7298
62.458
56.1655
49.5797
39.6831
30.1668
25.1517
22.3462
20.9638
21.0403
22.9537
27.2181
33.8154
41.9858
49.1436
55.7483
62.789
68.8396
91.0797
157.026
659.041
120.651
81.0333
65.9503
59.6014
54.4774
49.6861
40.9122
29.6371
23.72
20.7685
19.4521
19.7074
21.8946
26.2288
32.8316
41.4168
48.9967
55.3995
62.978
75.0108
87.7145
163.415
325.467
109.412
76.9487
64.0558
57.9868
53.2069
48.6167
42.6988
30.5993
23.1303
19.774
18.315
18.3638
20.451
25.1174
32.0039
40.7109
48.8273
55.4367
63.0216
76.3556
107.712
211.431
213.191
94.5197
72.0936
61.5018
55.6099
51.2355
47.0075
41.9363
32.5488
23.1635
19.0629
17.6349
17.6729
19.5773
24.167
31.8563
41.0737
48.9324
55.914
62.6681
78.1419
113.56
587.235
216.879
95.6108
72.8849
61.0128
53.5358
48.3546
44.6037
39.9714
33.3342
25.4529
19.239
17.014
17.1463
19.3745
24.3501
32.6701
42.6603
50.073
57.2248
63.8979
76.9271
121.076
622.705
181.932
101.499
77.5735
62.7128
53.1961
45.6935
40.3302
36.6743
32.2726
26.7735
21.4156
17.7386
17.1264
19.2551
24.9323
34.1665
44.4978
51.7438
58.4514
68.096
76.5926
116.06
651.692
168.72
101.235
74.4673
62.0214
52.6385
43.8137
36.4483
32.2971
30.1256
26.8844
22.8282
19.5773
18.1841
20.1499
26.2768
36.6545
45.9287
52.544
58.4095
68.766
92.2581
107.544
719.311
177.326
102.707
75.1568
63.2227
53.3293
42.3716
33.177
29.0834
27.1121
25.6656
23.3054
21.1626
20.6192
22.7349
29.1714
39.4192
46.5226
52.5078
58.7124
67.4742
93.736
145.491
910.611
171.655
104.805
80.8867
67.4301
56.4202
42.3038
30.7239
26.8407
24.8693
23.369
22.08
20.9937
21.857
25.3102
31.7393
40.8004
47.5163
53.0809
58.9576
68.1311
92.5155
157.598
854.174
123.326
97.9209
85.3135
71.0784
59.7954
43.3934
29.3917
25.1567
23.3842
22.0078
20.7536
20.0037
20.9818
25.0717
31.9854
41.4773
48.6191
54.5063
59.9639
68.383
93.1258
161.334
671.724
145.952
106.172
76.2211
67.0071
59.8993
43.8299
28.7055
23.9788
22.1986
21.1832
20.3159
19.9085
20.7366
24.4334
31.702
41.8582
49.3256
55.5907
62.5173
69.8598
93.3914
167.93
679.18
127.2
87.1484
70.5905
63.113
56.7936
46.5875
29.3296
23.2571
21.1978
20.2836
19.8813
20.0578
21.5673
25.1721
32.6428
44.25
51.8927
58.1984
64.9021
78.5476
97.7547
159.718
344.746
119.064
84.5464
70.7437
62.9457
54.0512
44.0341
29.9071
22.9946
20.4748
19.5279
19.2051
19.508
21.418
26.3495
34.9431
47.8263
55.9638
62.1366
69.063
83.0495
120.645
192.879
213.083
104.904
83.383
71.7209
64.9636
57.7823