/*--------------------------------*- C++ -*----------------------------------*\
| =========                 |                                                 |
| \\      /  F ield         | OpenFOAM: The Open Source CFD Toolbox           |
|  \\    /   O peration     | Version:  2312                                  |
|   \\  /    A nd           | Website:  www.openfoam.com                      |
|    \\/     M anipulation  |                                                 |
\*---------------------------------------------------------------------------*/
FoamFile
{
    version     2.0;
    format      ascii;
    arch        "LSB;label=64;scalar=64";
    class       volScalarField;
    location    "190";
    object      p;
}
// * * * * * * * * * * * * * * * * * * * * * * * * * * * * * * * * * * * * * //

dimensions      [0 2 -2 0 0 0 0];

internalField   nonuniform List<scalar> 
404911
(
0.125299
0.125004
0.126612
0.124796
0.123899
0.124678
0.125119
0.125042
0.124871
0.124824
0.125415
0.123004
0.12256
0.124702
0.125283
0.125322
0.123693
0.1238
0.123663
0.124049
0.123867
0.122861
0.122096
0.124687
0.123889
0.119402
0.125514
0.125036
0.124431
0.126631
0.126172
0.125963
0.125705
0.126011
0.126776
0.126465
0.126288
0.127364
0.12726
0.126983
0.126925
0.127457
0.127427
0.127376
0.127012
0.126452
0.127776
0.127524
0.12755
0.127462
0.12827
0.128133
0.127888
0.127694
0.128415
0.128192
0.130634
0.122215
0.12283
0.123158
0.123209
0.123484
0.124165
0.123421
0.123283
0.124005
0.123746
0.123731
0.124723
0.124041
0.125339
0.125042
0.124345
0.126141
0.125769
0.125557
0.124778
0.126732
0.12647
0.127105
0.126952
0.127393
0.127313
0.12707
0.127628
0.127564
0.128273
0.128053
0.127939
0.128612
0.128299
0.129698
0.129925
0.130004
0.130225
0.130031
0.130077
0.130288
0.130066
0.129993
0.129946
0.130041
0.13012
0.130065
0.0778412
0.0770766
0.0775604
0.0805628
0.082012
0.0771839
0.081478
0.0784441
0.078055
0.0776114
0.0766142
0.0832405
0.0819475
0.0807378
0.0809232
0.0799299
0.0794322
0.0783336
0.0781752
0.0768148
0.0858706
0.0850235
0.0848238
0.0837856
0.0831063
0.0823983
0.0815254
0.0808364
0.0801807
0.0796177
0.0789992
0.0785593
0.0772351
0.0750574
0.077629
0.0773136
0.0870192
0.086216
0.086125
0.0852573
0.084617
0.0840662
0.083332
0.0825352
0.0817661
0.0814236
0.080754
0.0796217
0.0795004
0.0790534
0.0748875
0.0889345
0.0879707
0.0875862
0.0865442
0.0860188
0.0855534
0.084958
0.0843815
0.0836332
0.0829491
0.081946
0.0813028
0.0811618
0.0798706
0.0792975
0.0893407
0.0896176
0.0884259
0.0878938
0.0872812
0.0865346
0.0859203
0.0853406
0.084667
0.0840453
0.0832364
0.0828007
0.0818313
0.0810431
0.0802088
0.0809995
0.0921837
0.0903652
0.0891341
0.0893742
0.0884109
0.0882441
0.0876857
0.0870383
0.0863041
0.0855865
0.0850226
0.0843133
0.0835117
0.0828933
0.0821957
0.0814579
0.0810939
0.0928787
0.0924768
0.0918981
0.0919929
0.0911947
0.0903497
0.0899353
0.0893516
0.0887949
0.0882559
0.0875371
0.0867893
0.0860568
0.0854761
0.0848675
0.0836987
0.0834274
0.0835355
0.0932549
0.0934646
0.0924684
0.0919307
0.0916898
0.0911603
0.0910566
0.0903819
0.0897138
0.0891919
0.0885875
0.0879498
0.086872
0.0863976
0.0859059
0.0847082
0.0848466
0.0836527
0.0943906
0.093967
0.0933884
0.0931602
0.0926795
0.092065
0.0918455
0.0915806
0.091328
0.0908076
0.0901705
0.0895552
0.088952
0.0883509
0.0875397
0.086925
0.0862441
0.0859201
0.0947597
0.0949622
0.0945477
0.093621
0.0934086
0.0927898
0.0922741
0.0922007
0.0918199
0.0915952
0.0912321
0.0905634
0.0898545
0.0889084
0.0888441
0.087843
0.0861061
0.0954736
0.0953564
0.094542
0.0949723
0.0947532
0.0940966
0.0935139
0.0928579
0.0923345
0.0923905
0.0921906
0.0918369
0.0915153
0.0908919
0.0900111
0.0894124
0.0885712
0.0971989
0.0968558
0.0951944
0.095791
0.0956059
0.0951728
0.0945399
0.0940764
0.0934423
0.0930825
0.0929887
0.0925253
0.0923502
0.0921263
0.0918043
0.0911736
0.090159
0.089496
0.0982178
0.0963923
0.0968415
0.0966999
0.0956523
0.0956923
0.0954795
0.0951749
0.0945886
0.0941219
0.0936765
0.0934095
0.0932041
0.0929855
0.0926166
0.0917412
0.0916067
0.0922406
0.100342
0.0998119
0.0987721
0.0985106
0.0974848
0.0967423
0.09612
0.0958365
0.0957494
0.0953007
0.0947087
0.0941961
0.0939745
0.0934842
0.0934105
0.0934362
0.093154
0.0927493
0.100701
0.100634
0.0999837
0.0992517
0.0984427
0.0977301
0.0969494
0.0963649
0.0959745
0.0958495
0.0953904
0.0947227
0.0942898
0.0942589
0.0934292
0.093242
0.0936916
0.0920521
0.101908
0.101473
0.100161
0.100806
0.100217
0.0994693
0.0988518
0.0981351
0.0973962
0.0966927
0.0962419
0.0960477
0.0955517
0.0950619
0.0944761
0.0941084
0.0934622
0.0927766
0.102103
0.102222
0.101727
0.101324
0.10103
0.100361
0.0998343
0.0991167
0.0984438
0.0976753
0.0969249
0.096303
0.0959762
0.0954612
0.0949943
0.0949929
0.0945851
0.0946145
0.102334
0.101941
0.101567
0.102329
0.102254
0.101514
0.101446
0.100902
0.100302
0.0994392
0.0987238
0.0980697
0.0972795
0.0964616
0.0959753
0.0955173
0.0949986
0.0948949
0.104101
0.103102
0.103032
0.102687
0.102385
0.102467
0.101951
0.101724
0.101196
0.100824
0.0998693
0.0990676
0.0984776
0.0976152
0.0970728
0.0962553
0.0955307
0.104878
0.104302
0.104088
0.10334
0.103203
0.102842
0.102686
0.102589
0.102372
0.10194
0.101488
0.10099
0.100221
0.09945
0.099084
0.0981266
0.0976284
0.0969037
0.105213
0.1049
0.104512
0.104177
0.103992
0.103673
0.103302
0.10302
0.102903
0.102742
0.102322
0.101866
0.101341
0.100691
0.0998412
0.0993206
0.098583
0.0980482
0.105912
0.105393
0.105117
0.104923
0.104515
0.10428
0.104127
0.103638
0.103441
0.103296
0.102945
0.102587
0.102
0.101471
0.101007
0.101085
0.0992737
0.099284
0.106567
0.10604
0.105769
0.105519
0.105272
0.105016
0.104727
0.104644
0.104226
0.103863
0.103641
0.103426
0.103091
0.102959
0.102024
0.101784
0.100921
0.100113
0.107264
0.107169
0.106808
0.106224
0.105994
0.105571
0.105401
0.105231
0.105022
0.104785
0.104601
0.104254
0.103685
0.103599
0.103151
0.102991
0.10161
0.102118
0.107574
0.107304
0.107264
0.106892
0.106465
0.106049
0.105681
0.105411
0.105368
0.105069
0.104857
0.104774
0.104581
0.104108
0.103906
0.103349
0.102914
0.102077
0.108078
0.107899
0.107738
0.107543
0.107337
0.106985
0.106643
0.106172
0.105772
0.105405
0.105179
0.10516
0.104949
0.104625
0.104473
0.104264
0.102141
0.104359
0.108157
0.108233
0.108025
0.10792
0.107674
0.107431
0.107156
0.106781
0.106349
0.105913
0.105482
0.10516
0.105005
0.104869
0.104748
0.105146
0.104499
0.104104
0.108778
0.108486
0.108256
0.108036
0.107894
0.10776
0.107584
0.107349
0.106994
0.106595
0.106158
0.105718
0.105401
0.105159
0.104989
0.104985
0.104821
0.104553
0.109551
0.108695
0.108604
0.108388
0.108084
0.107918
0.107775
0.107743
0.107597
0.107245
0.106866
0.106481
0.106016
0.105667
0.105451
0.104964
0.104802
0.105068
0.109271
0.110282
0.109759
0.108884
0.108427
0.10834
0.108107
0.107988
0.107905
0.107964
0.107848
0.107531
0.107144
0.106755
0.106361
0.105837
0.105513
0.105061
0.111007
0.110019
0.10992
0.109914
0.109452
0.108931
0.108609
0.108367
0.108174
0.108115
0.108158
0.108017
0.107753
0.107418
0.106966
0.106501
0.106103
0.105993
0.111639
0.111125
0.110619
0.110381
0.110144
0.109847
0.109396
0.10896
0.108652
0.108422
0.108266
0.108165
0.108037
0.107858
0.10762
0.107486
0.107478
0.1069
0.111015
0.111621
0.111475
0.111004
0.110614
0.110328
0.110105
0.109613
0.109272
0.108938
0.108652
0.108467
0.10827
0.108127
0.107947
0.107714
0.10765
0.112672
0.111504
0.111608
0.11163
0.111593
0.111302
0.11095
0.110535
0.110318
0.109897
0.109554
0.109236
0.108933
0.108661
0.108467
0.108243
0.108121
0.107877
0.112732
0.112497
0.112145
0.111877
0.111737
0.111694
0.111435
0.111219
0.110863
0.110611
0.11014
0.10986
0.109575
0.109238
0.108947
0.108658
0.108353
0.108681
0.112918
0.11293
0.112497
0.112441
0.112138
0.11191
0.111882
0.111711
0.111441
0.11115
0.110891
0.110497
0.1101
0.109884
0.10958
0.109396
0.109334
0.108954
0.114421
0.113554
0.113193
0.112944
0.112729
0.112541
0.112275
0.111981
0.112043
0.111886
0.111587
0.111295
0.111021
0.110754
0.110375
0.110112
0.109821
0.109579
0.11431
0.113967
0.113951
0.113565
0.113324
0.112987
0.112753
0.112526
0.112245
0.112243
0.112152
0.111864
0.111511
0.111274
0.110997
0.110684
0.11025
0.110003
0.114843
0.114383
0.114159
0.114024
0.113756
0.113489
0.113213
0.113028
0.112839
0.112658
0.112603
0.112463
0.112151
0.111697
0.111514
0.111157
0.111008
0.11059
0.114107
0.115235
0.114703
0.11443
0.114254
0.11395
0.113657
0.113395
0.113208
0.113129
0.113012
0.11287
0.112631
0.11235
0.111932
0.111716
0.111508
0.110901
0.115652
0.115456
0.11513
0.114971
0.114627
0.114422
0.11413
0.113813
0.113533
0.11334
0.11334
0.113195
0.113055
0.112822
0.112439
0.112203
0.111547
0.116975
0.11584
0.115757
0.115227
0.115145
0.115044
0.114833
0.114618
0.114319
0.113974
0.113674
0.11341
0.11331
0.113377
0.113058
0.112882
0.112679
0.112478
0.116587
0.116465
0.116227
0.115891
0.115421
0.115251
0.115127
0.115004
0.114849
0.11458
0.114217
0.113858
0.113514
0.113291
0.113157
0.112996
0.112911
0.11269
0.117324
0.11695
0.116686
0.11638
0.116
0.115684
0.115464
0.115264
0.115154
0.115097
0.114871
0.114508
0.114119
0.113806
0.113511
0.113311
0.113016
0.112781
0.117468
0.117476
0.117267
0.116872
0.116666
0.116234
0.115961
0.115728
0.115498
0.115342
0.115298
0.115044
0.114767
0.114452
0.114143
0.113862
0.113515
0.113157
0.118298
0.117696
0.117703
0.117503
0.117228
0.116925
0.116567
0.116264
0.116018
0.115802
0.115591
0.115384
0.115199
0.115001
0.114715
0.114579
0.114255
0.11401
0.118598
0.118522
0.118313
0.118059
0.117844
0.117553
0.117234
0.116885
0.11656
0.116281
0.116011
0.115763
0.115549
0.115352
0.115208
0.114905
0.11471
0.11439
0.118947
0.11879
0.118696
0.118601
0.118345
0.118096
0.117809
0.117504
0.117152
0.116813
0.116526
0.11624
0.115962
0.11574
0.115595
0.115537
0.115089
0.114448
0.119231
0.118843
0.118965
0.118835
0.118806
0.118549
0.118281
0.118016
0.117717
0.117341
0.117014
0.116806
0.116544
0.116271
0.115984
0.115763
0.115611
0.115912
0.11995
0.119584
0.119104
0.119123
0.118925
0.118731
0.118832
0.118628
0.11837
0.118171
0.117901
0.117609
0.117283
0.117125
0.116831
0.116621
0.116317
0.1161
0.115904
0.120197
0.120234
0.119916
0.119392
0.119179
0.118996
0.118769
0.118878
0.118876
0.118544
0.118341
0.118097
0.117877
0.117602
0.117404
0.117107
0.1169
0.116798
0.120427
0.120149
0.119867
0.119581
0.119337
0.119153
0.119034
0.119045
0.119018
0.118809
0.118539
0.118326
0.118118
0.117795
0.1175
0.117196
0.117292
0.120823
0.120704
0.120565
0.120247
0.119971
0.119697
0.119513
0.119345
0.119197
0.11912
0.119156
0.118996
0.118803
0.118503
0.11832
0.118049
0.117794
0.11716
0.121706
0.121107
0.121057
0.120759
0.120441
0.120155
0.119879
0.119708
0.119564
0.119373
0.119276
0.119309
0.119193
0.11899
0.118759
0.118496
0.118292
0.117899
0.120596
0.121963
0.121493
0.121252
0.120955
0.120658
0.120371
0.120061
0.119861
0.119636
0.11949
0.119328
0.119256
0.11908
0.118984
0.118969
0.118536
0.118766
0.122357
0.12192
0.121649
0.1214
0.121137
0.12087
0.120601
0.120292
0.120082
0.119801
0.119605
0.119433
0.119303
0.119147
0.119084
0.118873
0.118672
0.121964
0.122324
0.122031
0.121793
0.121569
0.121308
0.121073
0.120837
0.120556
0.120349
0.120104
0.119852
0.119693
0.119544
0.119337
0.119331
0.119209
0.123178
0.123207
0.12273
0.122581
0.12226
0.121985
0.121754
0.121476
0.121245
0.12104
0.12085
0.120545
0.12024
0.120065
0.119941
0.119777
0.119529
0.119493
0.12359
0.123611
0.123417
0.123001
0.122675
0.122434
0.122197
0.12195
0.121672
0.121444
0.121133
0.120883
0.120728
0.120471
0.120282
0.119974
0.120352
0.123671
0.124059
0.12387
0.123907
0.123432
0.122971
0.122661
0.122384
0.122106
0.121769
0.121573
0.12127
0.121082
0.120921
0.120618
0.120259
0.120239
0.124318
0.124065
0.123905
0.124015
0.124094
0.124028
0.123868
0.123371
0.122846
0.122528
0.122212
0.121926
0.121712
0.121494
0.121245
0.120936
0.120694
0.120181
0.12484
0.124241
0.123865
0.123875
0.123816
0.12364
0.123618
0.123997
0.123663
0.123038
0.122677
0.122354
0.12197
0.121869
0.121728
0.12146
0.121404
0.120888
0.123669
0.124327
0.123999
0.123869
0.123682
0.123472
0.123343
0.123231
0.123747
0.123691
0.123258
0.122847
0.122534
0.12227
0.121996
0.12178
0.121643
0.121489
0.123968
0.12407
0.124221
0.124014
0.123811
0.123661
0.123521
0.123215
0.123233
0.123489
0.123596
0.12333
0.122989
0.122651
0.122388
0.122097
0.121769
0.122061
0.126215
0.125254
0.123946
0.124319
0.124288
0.123975
0.123647
0.12329
0.123164
0.123247
0.123423
0.123616
0.123554
0.123233
0.122842
0.122704
0.12232
0.121741
0.121898
0.126024
0.126201
0.125387
0.124561
0.124426
0.124346
0.124007
0.123763
0.123499
0.123382
0.123429
0.123577
0.123499
0.1234
0.123181
0.122989
0.123189
0.122233
0.122073
0.124195
0.126134
0.125286
0.124793
0.124652
0.124456
0.124123
0.124033
0.123998
0.123904
0.123877
0.12376
0.123701
0.123601
0.123332
0.123283
0.123151
0.123166
0.125969
0.125649
0.125798
0.125504
0.125038
0.124884
0.124586
0.124385
0.124472
0.124462
0.124336
0.124252
0.124078
0.123908
0.123696
0.123529
0.123223
0.126772
0.126525
0.126393
0.126009
0.125692
0.125384
0.12512
0.124845
0.124763
0.124866
0.124837
0.124818
0.124559
0.124348
0.124196
0.124076
0.123438
0.127352
0.127124
0.127012
0.126818
0.126503
0.126066
0.125728
0.125438
0.125131
0.125074
0.125068
0.125071
0.12499
0.124879
0.124941
0.124354
0.124181
0.127363
0.127731
0.127305
0.12741
0.127369
0.127183
0.126885
0.126362
0.126013
0.125684
0.125419
0.125266
0.125301
0.12534
0.125151
0.124974
0.124888
0.125336
0.128726
0.12829
0.1273
0.127319
0.127331
0.127403
0.127234
0.126963
0.126605
0.126225
0.125869
0.125649
0.125502
0.125333
0.125287
0.124964
0.124944
0.128922
0.128597
0.12783
0.127491
0.127295
0.127346
0.127442
0.127244
0.127025
0.126699
0.126354
0.126037
0.125924
0.125668
0.125659
0.12524
0.124956
0.129062
0.129243
0.128662
0.127978
0.127515
0.127494
0.127612
0.127541
0.127371
0.127039
0.126691
0.12639
0.126237
0.126121
0.125977
0.125831
0.126013
0.129889
0.129546
0.129527
0.129032
0.128538
0.128106
0.128195
0.128005
0.127841
0.127521
0.127115
0.126796
0.12661
0.126411
0.126554
0.126451
0.126251
0.129623
0.130349
0.13008
0.129941
0.129749
0.129485
0.129156
0.12882
0.128538
0.128172
0.127748
0.127293
0.127047
0.126865
0.126602
0.126231
0.126604
0.13071
0.130101
0.130342
0.13025
0.130058
0.129723
0.13012
0.130399
0.129621
0.129075
0.128609
0.128123
0.127751
0.127418
0.127274
0.127118
0.12629
0.129329
0.130256
0.130054
0.130326
0.130164
0.129703
0.129728
0.130052
0.13004
0.129545
0.128966
0.128475
0.128096
0.127796
0.128006
0.127115
0.129232
0.130163
0.129924
0.129736
0.130266
0.130154
0.12988
0.129824
0.130082
0.130221
0.129788
0.129157
0.128611
0.12796
0.12793
0.131369
0.130716
0.129516
0.129368
0.129624
0.129842
0.130157
0.130302
0.130083
0.129993
0.130055
0.129924
0.129563
0.129215
0.128774
0.128448
0.133009
0.132773
0.131414
0.130402
0.130094
0.129493
0.129753
0.129963
0.13
0.130183
0.130266
0.129986
0.129529
0.129514
0.129687
0.128757
0.135528
0.134324
0.133544
0.132582
0.131214
0.130885
0.130113
0.12987
0.129842
0.130002
0.130102
0.130324
0.130101
0.130003
0.130118
0.129481
0.138919
0.137585
0.136303
0.135217
0.134086
0.133173
0.132173
0.131697
0.131236
0.130612
0.130356
0.130486
0.130217
0.1301
0.13046
0.130201
0.138438
0.138544
0.137981
0.137138
0.136134
0.134985
0.134222
0.133044
0.132028
0.131584
0.131271
0.130819
0.131069
0.131441
0.131247
0.131314
0.140037
0.13947
0.138678
0.138313
0.137698
0.136716
0.135496
0.134741
0.133905
0.133033
0.13227
0.131508
0.131255
0.130988
0.131559
0.131564
0.141769
0.140848
0.139605
0.138946
0.138704
0.138252
0.137457
0.13633
0.135316
0.134567
0.133993
0.133208
0.131595
0.131442
0.131767
0.131459
0.14274
0.140859
0.140896
0.140713
0.139967
0.139239
0.138736
0.138261
0.137284
0.136188
0.135597
0.134191
0.13467
0.133813
0.131999
0.13296
0.141847
0.141847
0.141927
0.14183
0.1413
0.140683
0.139913
0.139355
0.138928
0.138086
0.137102
0.136702
0.135835
0.135095
0.134843
0.142471
0.142474
0.141862
0.142555
0.142384
0.141614
0.141017
0.140458
0.139966
0.139414
0.138836
0.137955
0.137387
0.136831
0.136475
0.135092
0.143699
0.143254
0.143088
0.143241
0.142773
0.142644
0.141998
0.141403
0.14091
0.140377
0.1398
0.139272
0.138571
0.138197
0.137258
0.137878
0.146112
0.144664
0.143652
0.143327
0.14278
0.143025
0.142905
0.142501
0.141957
0.141307
0.140862
0.140272
0.139304
0.138678
0.138505
0.145156
0.143924
0.143759
0.143996
0.143649
0.143514
0.143274
0.142946
0.142476
0.142009
0.141131
0.140881
0.139524
0.139144
0.146173
0.144554
0.144687
0.144712
0.144544
0.144219
0.144011
0.143945
0.143491
0.143166
0.142357
0.141544
0.141586
0.146863
0.146544
0.146028
0.145364
0.145198
0.145003
0.144851
0.144953
0.144743
0.144302
0.143749
0.142726
0.142793
0.141546
0.147174
0.14687
0.146876
0.146418
0.145929
0.145184
0.145061
0.145196
0.144914
0.145196
0.144374
0.143635
0.143342
0.143311
0.146938
0.147044
0.146797
0.146188
0.145997
0.145359
0.145154
0.144866
0.145044
0.14583
0.14473
0.144717
0.144021
0.144553
0.1458
0.14684
0.146581
0.146342
0.145908
0.145013
0.145146
0.144886
0.145169
0.145447
0.145447
0.144187
0.143993
0.144396
0.147721
0.146294
0.14605
0.146357
0.146751
0.146654
0.145092
0.144427
0.144545
0.143888
0.145539
0.145884
0.145473
0.143957
0.149904
0.148841
0.146646
0.1457
0.145981
0.144502
0.144975
0.144801
0.143893
0.142752
0.144398
0.145064
0.146736
0.145447
0.144847
0.145643
0.143743
0.14429
0.143093
0.142845
0.142231
0.143753
0.146643
0.145931
0.144112
0.145114
0.145697
0.143559
0.144009
0.142934
0.149096
0.148083
0.146964
0.146985
0.144718
0.143431
0.144487
0.150661
0.150376
0.147899
0.148118
0.146828
0.14465
0.142757
0.150169
0.148766
0.148206
0.147245
0.145707
0.1512
0.150601
0.148216
0.151577
0.148837
0.147938
0.148933
0.1515
0.151949
0.152087
0.149126
0.150468
0.148947
0.149994
0.150814
0.153426
0.144816
0.155026
0.149727
0.145453
0.150241
0.150162
0.157545
0.152174
0.14775
0.0315148
0.0314826
0.0332933
0.0464375
0.0403015
0.0390003
0.0386318
0.0354708
0.0318894
0.0284268
0.0343025
0.0285414
0.0536719
0.0513002
0.0470299
0.0471727
0.0438571
0.0422631
0.041259
0.0391327
0.0367583
0.0338786
0.0286304
0.0289143
0.0287298
0.0269028
0.0297969
0.056904
0.0547847
0.055159
0.0530906
0.0524698
0.0486962
0.0467537
0.0456739
0.0434051
0.0416306
0.0398051
0.0370776
0.034618
0.0309283
0.0278201
0.0286044
0.0265544
0.0253596
0.0326124
0.0303948
0.0260734
0.0212117
0.0591232
0.0590447
0.0587078
0.0578019
0.0554569
0.0547723
0.0535283
0.0515233
0.049635
0.0477453
0.0460565
0.0444556
0.0422715
0.0406859
0.0367377
0.0380818
0.0323349
0.0310152
0.0293603
0.0268147
0.026542
0.0269171
0.0267992
0.0628897
0.0609531
0.0606991
0.059662
0.059908
0.0587678
0.0577303
0.0562498
0.0551966
0.0537324
0.0516595
0.05033
0.0481701
0.0470532
0.0436367
0.0433355
0.0407513
0.0424588
0.0384617
0.035974
0.0315159
0.0305644
0.0274443
0.0264681
0.0261713
0.0648349
0.0622893
0.062722
0.0614339
0.0604315
0.0589732
0.0597493
0.0592446
0.058067
0.0567071
0.0557188
0.054118
0.0524085
0.0507122
0.0496751
0.0479607
0.0462847
0.0452619
0.0426091
0.0394601
0.0355412
0.0383181
0.0345426
0.0320325
0.0296372
0.0686027
0.0671208
0.064811
0.0635033
0.0623141
0.0614674
0.0606686
0.0604325
0.0602995
0.0594986
0.0584202
0.0565522
0.0557561
0.0545289
0.0540088
0.0522322
0.0509543
0.0502219
0.0462458
0.0456694
0.0433689
0.042483
0.039435
0.0385041
0.0361448
0.0697429
0.0707644
0.0684861
0.0672301
0.0656153
0.0644658
0.0629563
0.0618175
0.0607098
0.0607593
0.0609005
0.0602422
0.0590625
0.05713
0.0559475
0.0552187
0.0532812
0.0521385
0.0508239
0.0494035
0.0483954
0.0468636
0.0459982
0.0434528
0.0415749
0.0727263
0.0694978
0.0691525
0.0703133
0.0700779
0.0688692
0.0677769
0.0664814
0.0653816
0.0638332
0.0624721
0.0610752
0.0609482
0.0608909
0.0605986
0.0593154
0.0580971
0.0571671
0.0561129
0.0540284
0.0527297
0.0517794
0.0501308
0.0497691
0.0485391
0.0457548
0.0749292
0.0738074
0.074057
0.0726271
0.0714905
0.071103
0.0704517
0.069809
0.0691346
0.068081
0.0669923
0.0658532
0.0643664
0.0630836
0.0619048
0.0610614
0.0606251
0.0601279
0.0595805
0.0581916
0.0566056
0.0564977
0.0554054
0.0537578
0.054078
0.0515569
0.0508838
0.074529
0.0747478
0.0739299
0.0735857
0.0730524
0.0722146
0.0710129
0.0704934
0.0699787
0.0693366
0.0684908
0.0673883
0.0662152
0.0651195
0.0634361
0.0625758
0.0617415
0.0608479
0.0599027
0.0595442
0.0581877
0.055589
0.0573277
0.0553882
0.0551284
0.0758796
0.075276
0.0755779
0.0748836
0.0748395
0.0743633
0.0738627
0.0731371
0.0721855
0.0715165
0.0707441
0.070003
0.069289
0.0683594
0.0676343
0.0667235
0.0654856
0.0635913
0.0631045
0.0623445
0.0613776
0.0605702
0.0597169
0.0577887
0.0577534
0.0760818
0.0767965
0.0759159
0.0754051
0.0749337
0.0746602
0.0745754
0.0739052
0.0731538
0.0718236
0.0712568
0.0708406
0.0699969
0.0686555
0.0679189
0.0675528
0.0666044
0.0653774
0.0636709
0.0634573
0.0628416
0.0618861
0.0608745
0.0595978
0.0790477
0.0802026
0.0774908
0.0765535
0.0760019
0.0756436
0.0752877
0.0748633
0.0748795
0.074702
0.0739857
0.0731836
0.0720941
0.0710243
0.0706053
0.0696843
0.0683995
0.0673938
0.0669749
0.0661964
0.0652057
0.06425
0.0638028
0.0630195
0.0620546
0.0830072
0.0809501
0.0800135
0.0798446
0.0784925
0.0772352
0.0763853
0.075712
0.0753195
0.0749653
0.0747393
0.0746096
0.0738793
0.0730219
0.0723659
0.0715538
0.070797
0.0697657
0.0683738
0.0669958
0.0664786
0.0657555
0.0649099
0.0646908
0.0639393
0.083519
0.0831264
0.0823527
0.0814815
0.0806479
0.07987
0.0792753
0.0781073
0.0772109
0.0765223
0.0757435
0.0750383
0.0746719
0.0745203
0.0738892
0.073304
0.0725738
0.0717436
0.0711005
0.0700718
0.0684025
0.0669402
0.0659114
0.0659427
0.0641579
0.0857869
0.0840735
0.0847369
0.0838522
0.0831537
0.0823979
0.0812699
0.0809026
0.0799702
0.0796159
0.0788356
0.0779509
0.0771021
0.0763776
0.075697
0.0753664
0.0750464
0.0744744
0.0738414
0.0729303
0.0717961
0.071394
0.0704438
0.0687677
0.0673059
0.0655075
0.086426
0.0874356
0.0862328
0.0854352
0.0849097
0.0840934
0.08339
0.082535
0.081558
0.0809206
0.0804787
0.0799718
0.0793128
0.0785199
0.0776272
0.0767961
0.0761037
0.0759771
0.0759254
0.0751212
0.0745709
0.0735575
0.0722728
0.0717959
0.0703275
0.0680485
0.0911878
0.0878111
0.0863552
0.0865617
0.0862389
0.0855984
0.0849641
0.084355
0.0836968
0.0829156
0.0819586
0.0812236
0.0807198
0.0802474
0.0795625
0.078891
0.0781841
0.0775248
0.076472
0.0759112
0.0758913
0.0749421
0.0742541
0.0734666
0.0721233
0.0699612
0.0707143
0.0899225
0.0907868
0.0895165
0.0883831
0.0875778
0.0868252
0.0862729
0.085754
0.0852257
0.0846563
0.084022
0.0833031
0.0824953
0.0816173
0.0809933
0.0804509
0.0797556
0.079169
0.0786075
0.0781716
0.0768656
0.0767214
0.0758934
0.0750002
0.0741114
0.0731724
0.0730673
0.0903994
0.0905521
0.0899429
0.0893767
0.0885763
0.0878467
0.087145
0.0865237
0.0859415
0.0854244
0.0849055
0.0843012
0.0836014
0.0828264
0.0820408
0.0813189
0.0806228
0.0798981
0.0793637
0.0787648
0.0782938
0.0778598
0.0771938
0.0760166
0.0748133
0.0744521
0.0925835
0.0907901
0.0907899
0.0905267
0.090324
0.0896723
0.0888981
0.0882846
0.0875546
0.086897
0.0862352
0.0856746
0.0851759
0.0845952
0.0839033
0.0831462
0.0824197
0.0817157
0.0809869
0.0801311
0.0794709
0.078344
0.0784086
0.0781178
0.0771509
0.0764747
0.0938368
0.0926908
0.0927515
0.0914332
0.0911745
0.0910068
0.0906429
0.0900662
0.0893634
0.0886418
0.088055
0.0874379
0.0867375
0.0860597
0.0854945
0.0849132
0.0842048
0.0834811
0.0827998
0.0821753
0.0814482
0.0807177
0.0797847
0.0787847
0.0786498
0.0782996
0.0934613
0.0936926
0.093019
0.092469
0.0919199
0.0915858
0.0913691
0.0909503
0.0903767
0.0897864
0.0891718
0.0885625
0.0879304
0.0872046
0.0865186
0.0858955
0.0852783
0.0845872
0.0838658
0.083228
0.0826071
0.0819476
0.081417
0.0804511
0.0798266
0.0945426
0.0951238
0.094112
0.09388
0.0932542
0.0926122
0.092203
0.0919107
0.0916232
0.0912482
0.0907852
0.0902209
0.0896289
0.0890162
0.0883778
0.0876424
0.0869134
0.0863132
0.0857422
0.0850828
0.0843464
0.0837096
0.0829983
0.0823756
0.0819082
0.0817115
0.0960093
0.0957254
0.0954381
0.095015
0.0946695
0.094188
0.0936034
0.0929429
0.0924713
0.0921412
0.091871
0.0915555
0.0911726
0.0906404
0.090048
0.0894402
0.0888491
0.0882241
0.0874391
0.0867961
0.0862277
0.0856055
0.0847157
0.0841722
0.0835593
0.084209
0.0983366
0.0965015
0.0961494
0.095544
0.0954949
0.0952063
0.0949027
0.0944842
0.0939292
0.0932838
0.0927262
0.0923777
0.0921149
0.0918392
0.0915106
0.0910303
0.0904604
0.0898043
0.089129
0.0885499
0.0879301
0.087206
0.0866202
0.0857979
0.0851848
0.0846115
0.0836229
0.0970965
0.0973447
0.0967745
0.0962252
0.0957775
0.0955521
0.0952934
0.0950344
0.0946831
0.0940682
0.0934497
0.0929424
0.0926346
0.0924085
0.0921447
0.0918456
0.0914227
0.0908023
0.0901642
0.0894974
0.0888257
0.0881855
0.0876479
0.0871304
0.0864724
0.0859729
0.0995948
0.0989077
0.0979194
0.0971764
0.0967389
0.096242
0.0958402
0.0955829
0.0953909
0.095137
0.0946441
0.0940369
0.093516
0.0931814
0.092946
0.0927205
0.0924616
0.0920766
0.0916597
0.0910602
0.090312
0.0895998
0.0890065
0.0883581
0.0869784
0.0873268
0.099524
0.0997583
0.0990908
0.0983474
0.097462
0.0968955
0.0963949
0.0958956
0.0956638
0.0954645
0.0951214
0.0946189
0.0940541
0.0936425
0.0934295
0.0932342
0.0929212
0.0925946
0.0921799
0.0916805
0.0911255
0.090427
0.089632
0.0888937
0.0883828
0.100686
0.10063
0.100413
0.0999929
0.0994524
0.0987609
0.0979293
0.0971461
0.0966235
0.0961099
0.0958718
0.0955975
0.0951867
0.0946721
0.0941495
0.0937742
0.0934719
0.0933743
0.0931433
0.0926822
0.0922534
0.0916854
0.0911555
0.0904425
0.089144
0.101462
0.10127
0.100971
0.100674
0.100303
0.099763
0.0991665
0.0984236
0.0976273
0.0969731
0.0964598
0.0961162
0.0957762
0.0953325
0.094777
0.0943029
0.0939145
0.093489
0.0934804
0.0933116
0.0927874
0.092308
0.0917198
0.0915285
0.0912693
0.102028
0.102077
0.101798
0.101573
0.101373
0.100975
0.100556
0.100091
0.0994677
0.0988124
0.0980775
0.0973939
0.0967778
0.096307
0.0959145
0.0954794
0.0949891
0.0946191
0.0941993
0.0937613
0.0936526
0.093467
0.0931914
0.0927575
0.0919911
0.102971
0.102517
0.102127
0.102059
0.101901
0.10168
0.101285
0.100862
0.100334
0.0997227
0.0990633
0.0984373
0.097756
0.0970409
0.0963962
0.0958928
0.0954742
0.0950942
0.0948579
0.0945627
0.0942925
0.0940845
0.0940287
0.0936913
0.0932246
0.104127
0.103992
0.103278
0.102829
0.102364
0.102251
0.102214
0.101998
0.101596
0.101118
0.100593
0.100004
0.0993286
0.0987355
0.0981068
0.097351
0.0966624
0.0959647
0.0954253
0.095145
0.0948977
0.0947883
0.0947341
0.0944458
0.0941852
0.10511
0.104464
0.10419
0.103695
0.103268
0.102801
0.102524
0.10251
0.102276
0.101886
0.101428
0.100928
0.100327
0.0996753
0.0990766
0.0984824
0.0977283
0.0970332
0.0964061
0.0957784
0.0954134
0.0951959
0.0950672
0.0940564
0.106303
0.105274
0.105131
0.104679
0.104342
0.103985
0.103673
0.103301
0.102984
0.102824
0.10261
0.102223
0.101745
0.101252
0.100709
0.100078
0.099483
0.0989023
0.0982206
0.0975373
0.0968243
0.096188
0.0957229
0.0951762
0.0950112
0.106185
0.105922
0.105694
0.105299
0.104874
0.104569
0.104316
0.10403
0.103695
0.103421
0.103211
0.10302
0.102649
0.102162
0.101688
0.101117
0.100478
0.0998565
0.0992087
0.0986318
0.0980182
0.0973817
0.0967511
0.0960692
0.107166
0.106535
0.106439
0.106041
0.105743
0.105411
0.105063
0.104789
0.104601
0.104331
0.104051
0.103798
0.103546
0.103315
0.10295
0.102507
0.102042
0.101422
0.100769
0.100236
0.0995641
0.0989644
0.09822
0.0975559
0.0970265
0.107223
0.107052
0.106887
0.10656
0.106229
0.105858
0.105536
0.10524
0.105021
0.104839
0.104588
0.104301
0.104037
0.103766
0.103481
0.103064
0.102637
0.102206
0.101656
0.101006
0.100403
0.0997882
0.0993615
0.098787
0.107764
0.107463
0.107329
0.10718
0.10703
0.106732
0.106376
0.105992
0.105646
0.10535
0.105187
0.104994
0.104778
0.104539
0.104281
0.103983
0.10366
0.103237
0.102761
0.102401
0.101827
0.101248
0.100493
0.100483
0.100221
0.107895
0.107805
0.107598
0.107512
0.107372
0.107159
0.106868
0.106504
0.106094
0.105744
0.105433
0.105258
0.10505
0.104843
0.104634
0.104475
0.104216
0.103849
0.103444
0.103007
0.10253
0.102029
0.101557
0.100943
0.108262
0.10819
0.107895
0.107756
0.107645
0.107501
0.107302
0.107
0.106616
0.106205
0.105837
0.105494
0.105278
0.105078
0.104863
0.104625
0.104473
0.104226
0.103804
0.103575
0.103139
0.102626
0.102331
0.10219
0.109438
0.108881
0.108519
0.108162
0.108002
0.107847
0.107737
0.107621
0.107418
0.107125
0.106748
0.106347
0.105962
0.105593
0.105274
0.105023
0.104781
0.104534
0.104445
0.104253
0.103934
0.10367
0.103217
0.102801
0.102463
0.109972
0.109646
0.109115
0.108593
0.108279
0.108078
0.107953
0.107837
0.10771
0.107528
0.107266
0.10693
0.106549
0.106155
0.105779
0.105448
0.10516
0.104897
0.104646
0.104442
0.104201
0.103927
0.103856
0.103609
0.110562
0.10982
0.109794
0.109316
0.108775
0.10839
0.108155
0.108039
0.107927
0.107802
0.107654
0.107453
0.107158
0.106811
0.106429
0.106061
0.105717
0.105408
0.105158
0.104885
0.104672
0.104383
0.104215
0.103817
0.110751
0.110567
0.110158
0.10996
0.109536
0.109039
0.108617
0.108324
0.10817
0.108059
0.107961
0.107829
0.107672
0.107422
0.107109
0.106759
0.106403
0.106074
0.105731
0.105414
0.105189
0.105098
0.105001
0.111436
0.111387
0.111121
0.110778
0.110457
0.110159
0.109805
0.109401
0.108982
0.108642
0.108433
0.108283
0.108171
0.108033
0.107871
0.107645
0.107363
0.107043
0.106712
0.106382
0.106032
0.105766
0.105441
0.10474
0.111679
0.111563
0.111416
0.111255
0.111022
0.110741
0.110451
0.11012
0.109727
0.109324
0.10898
0.108713
0.108504
0.108336
0.108164
0.107996
0.10779
0.107549
0.10727
0.106954
0.106713
0.1064
0.10627
0.105684
0.112387
0.111975
0.111774
0.111577
0.111443
0.111249
0.111014
0.110716
0.110382
0.109998
0.109604
0.109275
0.108977
0.108715
0.108504
0.108316
0.108138
0.107935
0.107717
0.107471
0.107222
0.106958
0.106252
0.113195
0.112503
0.112491
0.112145
0.111933
0.111767
0.111643
0.111477
0.111252
0.110967
0.110637
0.110272
0.109882
0.109547
0.109242
0.108954
0.108704
0.108504
0.108321
0.10811
0.107873
0.10768
0.107501
0.106743
0.113953
0.113137
0.112821
0.112597
0.112334
0.112113
0.111942
0.111821
0.111667
0.11144
0.111175
0.110892
0.110536
0.110154
0.109832
0.109543
0.109237
0.108959
0.108741
0.108529
0.108352
0.108137
0.107802
0.108267
0.113418
0.113642
0.113432
0.113067
0.112755
0.112498
0.112288
0.112105
0.111972
0.11184