/*--------------------------------*- C++ -*----------------------------------*\
  =========                 |
  \\      /  F ield         | OpenFOAM: The Open Source CFD Toolbox
   \\    /   O peration     | Website:  https://openfoam.org
    \\  /    A nd           | Version:  8
     \\/     M anipulation  |
\*---------------------------------------------------------------------------*/
FoamFile
{
    version     2.0;
    format      ascii;
    class       volScalarField;
    location    "130";
    object      epsilon;
}
// * * * * * * * * * * * * * * * * * * * * * * * * * * * * * * * * * * * * * //

dimensions      [0 2 -3 0 0 0 0];

internalField   nonuniform List<scalar> 
12225
(
285.527
270.708
257.908
243.824
232.436
223.122
216.756
212.717
212.744
213.979
217.227
220.935
228.121
232.844
241.538
246.277
256.334
258.179
52.483
91.9114
106.945
114.795
124.798
136.861
152.635
170.002
191.122
211.048
235.368
255.63
281.451
299.59
325.618
340.157
365.535
381.839
20.524
34.8881
44.6568
50.4947
55.3674
59.6473
64.6247
69.6972
76.2813
83.2622
91.4259
99.4487
108.199
117.203
125.637
135.921
142.824
155.582
16.0035
19.4912
24.0709
27.5761
30.4827
32.8874
35.1381
37.3167
39.4837
41.9491
44.3225
47.2508
49.6798
53.1204
55.4534
59.3901
61.5594
66.1086
15.0388
15.7143
17.3943
19.0845
20.6328
22.0337
23.2391
24.4404
25.4374
26.6059
27.5193
28.7735
29.6352
31.0089
31.8337
33.3165
34.1044
35.7928
14.7897
14.826
15.2491
15.8695
16.5645
17.2901
17.9209
18.5878
19.117
19.738
20.1928
20.8042
21.2114
21.8311
22.2075
22.8465
23.1851
23.9112
14.7657
14.6147
14.6409
14.7263
14.9338
15.221
15.4906
15.8102
16.0703
16.384
16.6184
16.9222
17.1326
17.4307
17.6201
17.9219
18.0817
18.4286
14.7686
14.5867
14.4659
14.3803
14.3675
14.3895
14.4395
14.5337
14.6183
14.7371
14.831
14.9572
15.0485
15.1778
15.2628
15.3967
15.4673
15.6309
14.768
14.5911
14.4348
14.2963
14.185
14.1044
14.0398
14.0067
13.9814
13.9786
13.9809
13.9919
14.0039
14.0305
14.047
14.0826
14.0988
14.1552
14.7665
14.594
14.432
14.2821
14.1429
14.0219
13.9115
13.8193
13.7369
13.6698
13.6102
13.5633
13.5181
13.4873
13.4517
13.4349
13.4025
13.4026
14.7659
14.5945
14.4321
14.2803
14.1361
14.0032
13.8781
13.7644
13.6581
13.5628
13.4734
13.3951
13.3197
13.256
13.1915
13.1409
13.084
13.0457
14.7657
14.5943
14.4321
14.2798
14.1353
13.9998
13.8715
13.7518
13.6384
13.5336
13.434
13.3429
13.2556
13.177
13.1002
13.0328
12.9648
12.9076
14.7657
14.5941
14.432
14.2794
14.1349
13.9989
13.8698
13.7484
13.6331
13.5249
13.4219
13.3256
13.2337
13.1483
13.0662
12.9906
12.9172
12.8504
14.7657
14.5939
14.4318
14.279
14.1346
13.9983
13.8691
13.7472
13.6315
13.5222
13.4184
13.3203
13.227
13.1389
13.055
12.9759
12.9003
12.8293
14.7657
14.5938
14.4317
14.2787
14.1342
13.9977
13.8686
13.7464
13.6307
13.5211
13.417
13.3185
13.2249
13.1361
13.0516
12.9716
12.8953
12.823
14.7657
14.5937
14.4316
14.2785
14.1339
13.9973
13.8681
13.7458
13.63
13.5202
13.4161
13.3174
13.2237
13.1347
13.0502
12.9698
12.8934
12.8207
14.7657
14.5937
14.4315
14.2783
14.1337
13.997
13.8677
13.7453
13.6294
13.5196
13.4154
13.3166
13.2228
13.1337
13.0491
12.9686
12.8921
12.8193
14.7657
14.5937
14.4314
14.2782
14.1335
13.9968
13.8674
13.745
13.629
13.5191
13.4149
13.316
13.2221
13.133
13.0482
12.9677
12.8911
12.8182
14.7657
14.5937
14.4314
14.2782
14.1335
13.9967
13.8673
13.7449
13.6288
13.5189
13.4146
13.3157
13.2218
13.1326
13.0478
12.9672
12.8906
12.8176
14.7657
14.5937
14.4314
14.2783
14.1336
13.9968
13.8674
13.745
13.629
13.5191
13.4148
13.3159
13.222
13.1328
13.048
12.9675
12.8908
12.8178
14.7657
14.5937
14.4315
14.2784
14.1338
13.997
13.8678
13.7453
13.6295
13.5196
13.4155
13.3167
13.223
13.1339
13.0494
12.969
12.8927
12.82
14.7657
14.5937
14.4316
14.2785
14.1341
13.9975
13.8685
13.7464
13.6312
13.5221
13.4191
13.3214
13.2293
13.1419
13.0595
12.9811
12.9074
12.8369
14.7658
14.5937
14.4318
14.2788
14.1353
14.0002
13.8742
13.756
13.6463
13.5435
13.4485
13.3592
13.277
13.1993
13.1282
13.0602
12.9988
12.9387
14.7661
14.5928
14.4329
14.2844
14.1515
14.0321
13.9289
13.8375
13.7593
13.6894
13.6307
13.5769
13.5328
13.4905
13.4574
13.423
13.3989
13.3693
14.7641
14.5936
14.461
14.3603
14.3029
14.2766
14.2796
14.2939
14.3202
14.3529
14.3958
14.4345
14.4824
14.5217
14.572
14.6089
14.6617
14.694
14.757
14.6921
14.7579
14.9172
15.1828
15.4611
15.7475
16.012
16.2722
16.5037
16.736
16.9385
17.1507
17.3309
17.531
17.6937
17.8891
18.0363
14.9575
15.4344
16.5693
17.6883
18.7052
19.5676
20.3371
20.9967
21.6193
22.1658
22.7187
23.2107
23.7398
24.2043
24.7329
25.1831
25.7257
26.1671
16.258
20.9389
25.0149
27.7587
29.7842
31.3583
32.7763
34.0579
35.3588
36.6157
37.9749
39.2968
40.7614
42.1459
43.7186
45.1751
46.8864
48.3624
29.9427
47.2249
54.8701
58.673
61.613
64.4311
67.5781
70.9775
74.7362
78.7123
82.9837
87.3435
91.905
96.4518
101.104
105.629
110.185
114.591
165.79
160.073
154.899
149.564
144.479
139.678
135.613
132.11
129.27
126.973
125.319
124.044
123.339
122.829
122.825
122.982
123.27
123.829
2.09533
1.52321
2.40619
3.22351
4.01845
4.7864
5.51113
6.16998
6.72899
7.15279
7.38773
7.43506
7.27118
7.49453
7.89195
8.2331
8.43471
8.43147
8.08631
7.06721
8.15996
38.7807
42.1033
41.8306
47.3916
51.6422
56.6829
61.8955
67.3984
73.1537
79.1253
85.3324
91.7287
98.3447
105.137
112.146
119.331
126.736
134.316
142.122
150.112
158.34
166.765
175.447
184.346
193.523
202.938
212.646
222.593
232.831
243.32
254.115
265.176
276.555
288.216
300.207
312.492
325.117
338.046
351.322
364.909
378.843
393.093
407.688
422.597
437.837
453.385
469.245
485.395
501.824
518.516
535.44
552.586
569.895
587.367
604.915
622.541
640.135
657.71
675.16
692.577
709.962
727.425
744.608
761.657
778.374
794.834
810.846
826.431
841.427
855.75
869.364
882.151
894.071
905.014
914.953
923.797
931.556
938.198
943.838
948.097
950.656
953.024
952.422
948.898
947.4
943.836
939.135
933.322
926.458
918.653
909.948
900.471
890.268
879.469
868.11
856.276
843.98
831.535
818.93
806.305
793.718
781.276
769.02
757.016
745.281
733.868
722.788
712.075
701.738
691.789
682.237
673.074
664.303
655.895
647.859
640.145
632.75
625.635
618.826
612.314
606.082
600.103
594.321
588.708
583.214
577.818
572.473
567.158
561.827
556.463
551.029
545.516
539.89
534.145
528.266
522.25
516.082
509.78
503.328
496.727
490.008
483.501
479.601
476.694
473.93
471.23
468.575
465.921
463.233
460.473
457.6
454.571
451.335
447.804
443.915
439.453
434.096
427.699
398.955
5.68929
3.33753
3.21783
3.51399
3.99414
4.57822
5.22681
5.90962
6.59729
7.27077
7.94028
8.64867
9.42305
10.2958
11.2315
12.2287
13.3427
14.6989
16.5605
19.2969
22.7455
27.2389
29.4387
31.5811
34.1689
36.6996
39.3493
42.0767
44.8829
47.7623
50.7117
53.7338
56.8282
60.0014
63.257
66.5972
70.0126
73.5088
77.0852
80.7481
84.4972
88.3392
92.2742
96.3089
100.443
104.683
109.028
113.479
118.035
122.699
127.47
132.353
137.347
142.455
147.675
153.012
158.462
164.029
169.709
175.505
181.413
187.433
193.561
199.796
206.133
212.57
219.1
225.718
232.417
239.189
246.025
252.915
259.847
266.809
273.788
280.768
287.741
294.689
301.611
308.508
315.409
322.35
329.42
336.474
343.442
350.295
357.023
363.588
369.97
376.127
382.036
387.67
392.998
397.993
402.625
406.871
410.705
414.111
417.066
419.547
421.489
422.894
423.646
423.884
423.504
423.067
421.997
420.426
418.393
415.932
413.07
409.84
406.276
402.41
398.278
393.911
389.341
384.605
379.762
374.837
369.87
364.893
359.938
355.029
350.187
345.426
340.764
336.209
331.773
327.464
323.286
319.244
315.338
311.568
307.929
304.421
301.034
297.764
294.608
291.567
288.641
285.821
283.099
280.457
277.887
275.373
272.907
270.473
268.065
265.667
263.273
260.871
258.456
256.019
253.557
251.063
248.538
245.978
243.388
240.767
238.125
235.478
232.937
230.956
229.214
227.53
225.871
224.221
222.564
220.883
219.162
217.386
215.537
213.604
211.567
209.432
207.159
204.922
202.92
199.444
10.3138
5.36366
4.69414
4.74469
5.08333
5.60006
6.24955
7.00743
7.86098
8.80276
9.82272
10.9111
12.0666
13.2799
14.545
15.886
17.3367
18.949
20.7725
22.8103
24.9942
27.2085
29.194
31.1981
33.2899
35.4287
37.6261
39.8827
42.1981
44.5707
47.0002
49.4878
52.0389
54.6518
57.3266
60.0638
62.8632
65.7265
68.6549
71.6504
74.7143
77.8487
81.0551
84.3353
87.6905
91.1222
94.6308
98.2173
101.882
105.625
109.448
113.352
117.336
121.403
125.55
129.78
134.092
138.486
142.962
147.518
152.154
156.868
161.658
166.521
171.457
176.462
181.532
186.665
191.856
197.1
202.393
207.73
213.104
218.51
223.943
229.396
234.866
240.349
245.845
251.355
256.884
262.432
267.997
273.534
279.015
284.424
289.744
294.954
300.034
304.96
309.709
314.261
318.593
322.681
326.502
330.033
333.254
336.144
338.682
340.847
342.616
343.98
344.888
345.389
345.513
345.408
344.848
343.89
342.563
340.89
338.892
336.596
334.027
331.211
328.175
324.947
321.554
318.027
314.396
310.689
306.932
303.151
299.368
295.603
291.871
288.187
284.561
281.003
277.522
274.123
270.812
267.589
264.459
261.418
258.468
255.605
252.827
250.13
247.512
244.974
242.512
240.123
237.798
235.529
233.308
231.127
228.979
226.854
224.746
222.647
220.551
218.451
216.342
214.22
212.081
209.924
207.746
205.547
203.33
201.099
198.858
196.616
194.422
192.408
190.504
188.634
186.775
184.915
183.042
181.147
179.22
177.252
175.235
173.168
171.048
168.895
166.72
164.714
163.06
161.851
15.1814
7.58898
6.37103
6.22459
6.47943
6.96865
7.62807
8.42718
9.34718
10.3731
11.4903
12.685
13.9479
15.2657
16.6298
18.0424
19.5198
21.0776
22.7228
24.4436
26.274
28.1532
30.0456
31.9822
33.9774
36.0259
38.1284
40.2867
42.5006
44.7665
47.0821
49.4438
51.8593
54.3308
56.8594
59.4461
62.0914
64.7965
67.5622
70.3899
73.2805
76.2351
79.2544
82.3397
85.4918
88.7117
91.9997
95.3568
98.7833
102.28
105.847
109.485
113.195
116.977
120.83
124.755
128.752
132.82
136.964
141.179
145.465
149.821
154.245
158.736
163.292
167.912
172.593
177.334
182.131
186.982
191.884
196.834
201.829
206.865
211.941
217.052
222.196
227.372
232.576
237.806
243.06
248.335
253.613
258.873
264.098
269.273
274.382
279.406
284.329
289.127
293.781
298.269
302.569
306.659
310.515
314.114
317.433
320.45
323.145
325.496
327.487
329.105
330.339
331.192
331.63
331.802
331.571
330.959
329.986
328.672
327.038
325.106
322.9
320.445
317.768
314.895
311.853
308.67
305.372
301.987
298.537
295.048
291.54
288.032
284.54
281.076
277.653
274.28
270.964
267.712
264.528
261.416
258.376
255.409
252.514
249.691
246.936
244.247
241.624
239.063
236.563
234.119
231.726
229.376
227.063
224.781
222.523
220.283
218.054
215.83
213.607
211.378
209.14
206.89
204.625
202.342
200.042
197.724
195.389
193.037
190.673
188.304
185.955
183.674
181.447
179.234
177.027
174.818
172.6
170.365
168.108
165.824
163.511
161.169
158.81
156.455
154.138
152.031
150.282
149.185
19.9376
9.83807
8.07279
7.73277
7.89272
8.33527
8.97191
9.7612
10.6783
11.7044
12.8234
14.0207
15.2845
16.6057
17.979
19.4035
20.8838
22.4251
24.0308
25.7019
27.4404
29.2374
31.0864
32.9899
34.9491
36.9624
39.0286
41.1468
43.3171
45.5413
47.8207
50.1573
52.5518
55.0036
57.5131
60.0807
62.7073
65.3937
68.1408
70.9502
73.8225
76.7578
79.7567
82.8202
85.9488
89.1435
92.4047
95.7333
99.1298
102.595
106.129
109.733
113.406
117.151
120.965
124.851
128.806
132.831
136.931
141.104
145.347
149.661
154.045
158.498
163.019
167.607
172.26
176.978
181.759
186.601
191.503
196.462
201.476
206.544
211.664
216.833
222.049
227.309
232.608
237.944
243.312
248.705
254.108
259.507
264.889
270.241
275.547
280.79
285.951
291.012
295.95
300.744
305.371
309.807
314.025
318.002
321.712
325.131
328.235
331.001
333.413
335.453
337.111
338.381
339.255
339.715
339.833
339.546
338.877
337.841
336.459
334.753
332.747
330.466
327.938
325.189
322.247
319.141
315.899
312.546
309.108
305.61
302.074
298.518
294.961
291.416
287.896
284.411
280.971
277.582
274.249
270.975
267.763
264.613
261.524
258.497
255.529
252.619
249.765
246.963
244.212
241.507
238.842
236.213
233.614
231.038
228.481
225.936
223.398
220.862
218.323
215.776
213.219
210.648
208.061
205.456
202.833
200.19
197.53
194.854
192.164
189.467
186.776
184.114
181.486
178.872
176.267
173.666
171.065
168.459
165.845
163.221
160.587
157.947
155.311
152.704
150.174
147.868
145.897
144.505
24.3842
11.9865
9.6894
9.15394
9.209
9.58888
10.1811
10.9335
11.8163
12.8091
13.8959
15.064
16.3028
17.6048
18.9653
20.3823
21.8563
23.3888
24.9816
26.6356
28.3515
30.1277
31.9625
33.8555
35.8059
37.8132
39.8766
41.9964
44.1727
46.4066
48.699
51.0508
53.4627
55.9349
58.4679
61.0622
63.7184
66.4371
69.2189
72.0642
74.9737
77.9486
80.9896
84.0975
87.2732
90.5173
93.8307
97.2142
100.669
104.194
107.793
111.464
115.209
119.028
122.923
126.893
130.939
135.063
139.264
143.543
147.899
152.332
156.842
161.428
166.091
170.829
175.641
180.528
185.488
190.521
195.625
200.799
206.042
211.352
216.728
222.168
227.669
233.228
238.84
244.501
250.202
255.936
261.694
267.465
273.238
278.998
284.732
290.423
296.053
301.6
307.043
312.359
317.522
322.507
327.285
331.829
336.109
340.098
343.768
347.093
350.052
352.624
354.793
356.548
357.88
358.773
359.222
359.275
358.903
358.123
356.953
355.418
353.54
351.348
348.87
346.134
343.17
340.009
336.68
333.212
329.632
325.967
322.241
318.474
314.687
310.896
307.114
303.354
299.626
295.938
292.295
288.703
285.162
281.676
278.244
274.866
271.54
268.264
265.037
261.856
258.718
255.618
252.551
249.514
246.499
243.504
240.521
237.546
234.575
231.602
228.623
225.634
222.632
219.615
216.581
213.529
210.458
207.369
204.263
201.143
198.012
194.875
191.741
188.625
185.531
182.457
179.4
176.357
173.328
170.31
167.303
164.305
161.321
158.355
155.422
152.552
149.789
147.254
145.023
143.264
28.3739
13.9465
11.1502
10.418
10.3685
10.6779
11.2168
11.9228
12.7619
13.7124
14.7589
15.8897
17.0958
18.3706
19.7096
21.1102
22.5714
24.0933
25.6762
27.3207
29.0272
30.7954
32.6249
34.5154
36.4666
38.4783
40.5506
42.6837
44.8784
47.1352
49.455
51.8387
54.2869
56.8002
59.3792
62.0246
64.737
67.517
70.3653
73.2826
76.2695
79.3269
82.4558
85.6569
88.9311
92.2793
95.7024
99.2015
102.777
106.431
110.164
113.976
117.869
121.844
125.901
130.042
134.268
138.579
142.975
147.458
152.028
156.684
161.427
166.256
171.173
176.176
181.266
186.441
191.703
197.049
202.48
207.994
213.591
219.269
225.027
230.862
236.773
242.755
248.805
254.918
261.087
267.304
273.562
279.851
286.16
292.475
298.783
305.067
311.307
317.483
323.572
329.547
335.383
341.049
346.517
351.752
356.723
361.397
365.743
369.729
373.328
376.515
379.268
381.57
383.406
384.769
385.636
386.026
385.964
385.439
384.471
383.084
381.302
379.155
376.672
373.887
370.83
367.535
364.035
360.362
356.545
352.613
348.594
344.512
340.387
336.24
332.087
327.941
323.814
319.715
315.652
311.629
307.651
303.719
299.834
295.996
292.204
288.456
284.75
281.084
277.453
273.854
270.281
266.732
263.2
259.681
256.171
252.664
249.156
245.643
242.122
238.589
235.041
231.478
227.897
224.3
220.685
217.056
213.413
209.761
206.104
202.447
198.799
195.17
191.566
187.991
184.446
180.933
177.451
174.001
170.583
167.2
163.854
160.553
157.313
154.162
151.14
148.348
145.829
143.688
31.8224
15.6637
12.4143
11.4897
11.3412
11.5803
12.0647
12.7234
13.5183
14.4264
15.4325
16.5256
17.6973
18.9418
20.2547
21.6335
23.0764
24.5829
26.1528
27.7861
29.4832
31.2442
33.0692
34.9585
36.9122
38.9309
41.0148
43.1646
45.3812
47.6653
50.018
52.4403
54.9331
57.4974
60.134
62.8437
65.6274
68.4858
71.4197
74.43
77.5174
80.6829
83.9275
87.2521
90.6578
94.1457
97.7168
101.372
105.113
108.942
112.858
116.863
120.959
125.148
129.429
133.804
138.275
142.843
147.507
152.27
157.131
162.091
167.15
172.309
177.568
182.927
188.385
193.944
199.601
205.358
211.213
217.166
223.216
229.361
235.6
241.931
248.351
254.858
261.447
268.113
274.852
281.655
288.515
295.424
302.369
309.339
316.319
323.293
330.241
337.14
343.967
350.694
357.293
363.73
369.973
375.984
381.728
387.167
392.263
396.981
401.287
405.149
408.541
411.437
413.821
415.677
416.999
417.764
418.015
417.751
416.981
415.728
414.021
411.89
409.369
406.491
403.293
399.811
396.081
392.137
388.015
383.746
379.36
374.885
370.345
365.763
361.155
356.54
351.93
347.336
342.767
338.229
333.727
329.263
324.839
320.454
316.108
311.8
307.528
303.288
299.076
294.89
290.724
286.574
282.435
278.304
274.177
270.048
265.915
261.774
257.622
253.457
249.276
245.081
240.87
236.645
232.407
228.16
223.907
219.652
215.402
211.164
206.944
202.754
198.602
194.494
190.434
186.427
182.474
178.577
174.739
170.962
167.25
163.611
160.06
156.623
153.334
150.275
147.461
144.96
34.6953
17.1133
13.4662
12.3649
12.1229
12.2949
12.7271
13.3405
14.0935
14.9617
15.9295
16.9861
18.1237
19.3368
20.6215
21.975
23.3957
24.8827
26.4356
28.0544
29.7392
31.4906
33.3092
35.1957
37.1509
39.1756
41.2707
43.4371
45.6758
47.9879
50.3746
52.8378
55.3789
57.9994
60.7003
63.4827
66.3478
69.2965
72.3299
75.4491
78.655
81.9488
85.3317
88.8049
92.3697
96.0273
99.7791
103.627
107.571
111.615
115.758
120.004
124.352
128.806
133.366
138.033
142.81
147.697
152.695
157.805
163.029
168.366
173.817
179.382
185.063
190.858
196.767
202.792
208.93
215.183
221.548
228.025
234.613
241.31
248.116
255.027
262.041
269.154
276.364
283.666
291.053
298.52
306.059
313.661
321.315
329.009
336.728
344.456
352.172
359.855
367.478
375.012
382.427
389.688
396.756
403.593
410.157
416.405
422.294
427.784
432.834
437.406
441.467
444.986
447.94
450.31
452.086
453.253
453.825
453.816
453.237
452.106
450.454
448.315
445.725
442.721
439.342
435.629
431.622
427.359
422.879
418.217
413.407
408.48
403.464
398.382
393.257
388.107
382.948
377.792
372.649
367.526
362.43
357.363
352.327
347.324
342.352
337.411
332.498
327.609
322.742
317.893
313.056
308.229
303.408
298.587
293.765
288.938
284.102
279.255
274.395
269.522
264.634
259.733
254.82
249.898
244.97
240.04
235.114
230.199
225.301
220.43
215.595
210.806
206.073
201.404
196.808
192.29
187.853
183.501
179.236
175.063
170.984
167.008
163.148
159.425
155.868
152.541
149.439
146.606
36.9926
18.292
14.3096
13.0522
12.7241
12.8342
13.2175
13.7885
14.5025
15.3335
16.2655
17.2875
18.3921
19.5741
20.8296
22.1561
23.5523
25.0174
26.5515
28.153
29.8227
31.5619
33.3717
35.2536
37.2086
39.2383
41.3439
43.5266
45.7877
48.1279
50.5474
53.0517
55.6434
58.324
61.0949
63.9575
66.9133
69.9636
73.1098
76.3533
79.6954
83.1377
86.6815
90.3284
94.08
97.9379
101.904
105.98
110.167
114.468
118.884
123.417
128.069
132.842
137.737
142.756
147.9
153.172
158.571
164.099
169.757
175.545
181.464
187.514
193.695
200.007
206.45
213.022
219.725
226.555
233.513
240.597
247.805
255.136
262.586
270.155
277.838
285.633
293.534
301.539
309.64
317.832
326.106
334.455
342.866
351.328
359.827
368.344
376.862
385.355
393.798
402.161
410.411
418.51
426.418
434.091
441.484
448.549
455.239
461.506
467.303
472.587
477.318
481.46
484.983
487.863
490.085
491.638
492.527
492.759
492.353
491.32
489.697
487.522
484.831
481.667
478.072
474.09
469.765
465.14
460.258
455.158
449.876
444.449
438.906
433.275
427.581
421.844
416.081
410.308
404.535
398.772
393.024
387.296
381.591
375.91
370.252
364.616
359
353.401
347.815
342.239
336.668
331.099
325.528
319.953
314.37
308.777
303.172
297.554
291.921
286.275
280.617
274.948
269.273
263.594
257.919
252.254
246.605
240.981
235.392
229.849
224.362
218.943
213.604
208.356
203.208
198.167
193.238
188.426
183.734
179.165
174.723
170.415
166.25
162.246
158.426
154.839
151.461
148.33
38.7383
19.2102
14.9582
13.5681
13.1632
13.2174
13.5559
14.0878
14.7656
15.5623
16.461
17.4508
18.5241
19.6761
20.9033
22.2026
23.573
25.015
26.5303
28.1143
29.7692
31.4963
33.2973
35.174
37.1283
39.1619
41.277
43.4754
45.7591
48.1296
50.5864
53.1357
55.7823
58.5292
61.3783
64.3313
67.3901
70.5566
73.8325
77.2197
80.72
84.3352
88.0674
91.9183
95.8901
99.9848
104.205
108.551
113.027
117.635
122.376
127.252
132.267
137.42
142.716
148.154
153.737
159.466
165.342
171.366
177.539
183.861
190.331
196.951
203.719
210.635
217.698
224.907
232.261
239.757
247.394
255.169
263.08
271.124
279.299
287.6
296.024
304.567
313.224
321.99
330.858
339.822
348.873
358.003
367.2
376.452
385.744
395.06
404.378
413.678
422.93
432.104
441.167
450.079
458.798
467.276
475.464
483.312
490.765
497.771
504.278
510.237
515.6
520.328
524.383
527.738
530.372
532.275
533.444
533.884
533.619
532.648
531.016
528.767
525.94
522.579
518.729
514.439
509.757
504.731
499.407
493.827
488.034
482.065
475.954
469.732
463.426
457.059
450.65
444.216
437.77
431.321
424.876
418.442
412.02
405.613
399.22
392.841
386.472
380.112
373.755
367.4
361.043
354.679
348.306
341.922
335.524
329.111
322.683
316.238
309.779
303.307
296.826
290.339
283.851
277.37
270.903
264.459
258.047
251.678
245.364
239.118
232.953
226.882
220.92
215.078
209.367
203.797
198.374
193.102
187.986
183.028
178.23
173.597
169.137
164.862
160.788
156.952
153.318
149.921
39.9649
19.8844
15.43
13.933
13.4622
13.4676
13.7657
14.262
14.9071
15.6724
16.5409
17.5015
18.5462
19.671
20.8747
22.1506
23.4985
24.9175
26.4069
27.9689
29.6055
31.3186
33.1104
34.9834
36.94
38.983
41.1149
43.3385
45.6566
48.072
50.5799
53.1832
55.8958
58.7214
61.6636
64.7245
67.9065
71.212
74.6434
78.2029
81.893
85.7161
89.6747
93.7714
98.0086
102.389
106.915
111.589
116.413
121.391
126.524
131.814
137.265
142.877
148.653
154.594
160.702
166.978
173.422
180.035
186.818
193.769
200.889
208.177
215.631
223.25
231.033
238.975
247.076
255.333
263.741
272.298
280.999
289.84
298.816
307.924
317.158
326.511
335.979
345.554
355.231
364.999
374.851
384.776
394.764
404.801
414.872
424.961
435.048
445.109
455.118
465.044
474.853
484.505
493.954
503.154
512.051
520.591
528.717
536.372
543.5
550.045
555.957
561.188
565.697
569.453
572.431
574.617
576.005
576.596
576.413
575.452
573.757
571.384
568.374
564.771
560.624
555.985
550.906
545.44
539.635
533.539
527.198
520.652
513.939
507.092
500.14
493.11
486.022
478.894
471.739
464.571
457.395
450.219
443.045
435.876
428.712
421.551
414.391
407.23
400.064
392.89
385.705
378.505
371.288
364.053
356.798
349.523
342.228
334.916
327.588
320.25
312.905
305.56
298.223
290.903
283.611
276.356
269.151
262.01
254.948
247.979
241.118
234.382
227.786
221.344
215.068
208.97
203.055
197.33
191.798
186.46
181.318
176.374
171.632
167.1
162.787
158.72
154.852
151.224
40.7361
20.3409
15.7468
14.1691
13.6433
13.6092
13.872
14.3373
14.954
15.6921
16.5348
17.473
18.4947
19.595
20.7698
22.0192
23.3433
24.7428
26.2179
27.7696
29.3996
31.1104
32.9047
34.7859
36.7577
38.8244
40.9869
43.2482
45.6125
48.083
50.6551
53.3387
56.144
59.0764
62.1402
65.3404
68.6806
72.1637
75.7925
79.5702
83.4997
87.5842
91.827
96.2313
100.8
105.536
110.443
115.523
120.779
126.214
131.831
137.631
143.616
149.789
156.151
162.703
169.446
176.381
183.507
190.825
198.334
206.032
213.918
221.99
230.246
238.682
247.295
256.081
265.037
274.156
283.434
292.866
302.445
312.166
322.021
332.004
342.108
352.324
362.646
373.065
383.571
394.155
404.807
415.516
426.269
437.052
447.851
458.648
469.423
480.156
490.819
501.383
511.813
522.071
532.112
541.887
551.342
560.421
569.066
577.217
584.814
591.799
598.117
603.717
608.555
612.593
615.804
618.17
619.682
620.334
620.153
619.119
617.289
614.729
611.477
607.579
603.086
598.053
592.536
586.589
580.268
573.623
566.702
559.55
552.207
544.709
537.087
529.368
521.577
513.731
505.846
497.934
490.003
482.061
474.111
466.155
458.193
450.224
442.247
434.258
426.254
418.233
410.191
402.125
394.035
385.919
377.776
369.609
361.418
353.208
344.982
336.747
328.511
320.281
312.069
303.886
295.745
287.659
279.644
271.716
263.892
256.19
248.627
241.221
233.99
226.949
220.114
213.495
207.099
200.933
194.999
189.298
183.83
178.592
173.587
168.816
164.283
160.006
155.928
152.1
41.0456
20.589
15.9236
14.2942
13.7281
13.6639
13.9001
14.3415
14.9374
15.6554
16.4772
17.3906
18.3903
19.4731
20.6356
21.8761
23.1944
24.5914
26.0688
27.6268
29.2674
30.9942
32.8108
34.7212
36.7295
38.8397
41.0499
43.3682
45.8006
48.3524
51.0292
53.8377
56.7847
59.8765
63.1189
66.5175
70.0784
73.8054
77.7027
81.774
86.0236
90.4554
95.0735
99.8816
104.883
110.082
115.482
121.085
126.894
132.913
139.142
145.585
152.242
159.114
166.204
173.51
181.033
188.772
196.726
204.893
213.272
221.859
230.65
239.643
248.833
258.214
267.782
277.53
287.451
297.539
307.786
318.183
328.722
339.395
350.191
361.101
372.116
383.225
394.418
405.683
417.009
428.385
439.798
451.234
462.681
474.123
485.546
496.93
508.259
519.509
530.658
541.677
552.535
563.194
573.612
583.74
593.527
602.917
611.851
620.27
628.113
635.322
641.839
647.612
652.592
656.741
660.027
662.427
663.933
664.521
664.233
663.013
660.963
658.136
654.572
650.319
645.426
639.952
633.954
627.491
620.621
613.398
605.873
598.092
590.099
581.932
573.623
565.202
556.694
548.117
539.488
530.82
522.122
513.4
504.66
495.902
487.128
478.337
469.526
460.693
451.835
442.949
434.032
425.084
416.102
407.086
398.037
388.959
379.854
370.727
361.586
352.438
343.294
334.164
325.063
316.005
307.005
298.08
289.248
280.529
271.942
263.507
255.246
247.178
239.32
231.694
224.313
217.191
210.333
203.746
197.432
191.389
185.61
180.096
174.846
169.857
165.127
160.679
156.435
152.459
40.9684
20.6499
15.9801
14.3291
13.7401
13.6579
13.8798
14.3053
14.8837
15.5871
16.4009
17.312
18.3127
19.3993
20.5693
21.8218
23.1569
24.5755
26.0786
27.665
29.3403
31.1089
32.9757
34.9456
37.0241
39.2168
41.5292
43.9675
46.5381
49.2481
52.105
55.1161
58.2887
61.63
65.1471
68.8476
72.7371
76.8221
81.1084
85.6014
90.3059
95.2267
100.368
105.736
111.332
117.161
123.225
129.529
136.073
142.86
149.891
157.167
164.688
172.453
180.462
188.714
197.206
205.936
214.9
224.094
233.515
243.157
253.013
263.078
273.344
283.804
294.449
305.272
316.261
327.407
338.7
350.128
361.679
373.342
385.104
396.952
408.873
420.853
432.879
444.937
457.013
469.092
481.159
493.2
505.198
517.138
529.003
540.776
552.439
563.973
575.356
586.564
597.568
608.335
618.826
628.998
638.801
648.184
657.09
665.464
673.247
680.385
686.819
692.499
697.375
701.407
704.559
706.809
708.152
708.509
707.962
706.428
704.058
700.876
696.925
692.25
686.904
680.943
674.427
667.418
659.974
652.152
644.006
635.585
626.932
618.089
609.089
599.963
590.735
581.425
572.051
562.626
553.159
543.656
534.123
524.562
514.972
505.354
495.705
486.022
476.304
466.547
456.75
446.911
437.029
427.107
417.145
407.149
397.122
387.073
377.01
366.944
356.888
346.856
336.864
326.93
317.073
307.312
297.67
288.168
278.83
269.677
260.733
252.022
243.56
235.371
227.471
219.86
212.555
205.568
198.894
192.55
186.516
180.78
175.337
170.178
165.297
160.71
156.323
152.228
40.7025
20.612
15.9588
14.3053
13.7098
13.6217
13.8369
14.2634
14.8493
15.5658
16.3961
17.3253
18.3491
19.4644
20.6696
21.9646
23.3503
24.8284
26.4018
28.0739
29.849
31.7327
33.7308
35.8499
38.097
40.4796
43.0056
45.6827
48.5192
51.5238
54.7054
58.0729
61.6348
65.3999
69.3762
73.5708
77.9922
82.6501
87.5539
92.7085
98.1186
103.789
109.724
115.928
122.404
129.154
136.181
143.484
151.066
158.924
167.059
175.468
184.149
193.098
202.312
211.786
221.514
231.491
241.709
252.162
262.842
273.739
284.845
296.15
307.643
319.313
331.15
343.14
355.272
367.532
379.905
392.379
404.936
417.563
430.243
442.961
455.699
468.442
481.171
493.871
506.524
519.113
531.62
544.029
556.323
568.482
580.493
592.338
604
615.463
626.709
637.718
648.468
658.931
669.075
678.861
688.249
697.193
705.643
713.55
720.865
727.537
733.516
738.753
743.201
746.822
749.578
751.435
752.365
752.322
751.302
749.333
746.518
742.876
738.444
733.271
727.406
720.906
713.829
706.236
698.189
689.745
680.958
671.88
662.556
653.027
643.328
633.489
623.535
613.487
603.362
593.174
582.93
572.64
562.306
551.932
541.517
531.061
520.562
510.018
499.427
488.786
478.095
467.353
456.559
445.718
434.831
423.905
412.947
401.966
390.973
379.983
369.01
358.072
347.189
336.382
325.673
315.085
304.644
294.375
284.303
274.452
264.844
255.5
246.445
237.711
229.326
221.301
213.626
206.311
199.351
192.766
186.504
180.572
174.961
169.66
164.655
159.945
155.451
151.276
40.0316
20.3852
15.8399
14.2252
13.654
13.5956
13.8434
14.3003
14.9215
15.6808
16.5626
17.5578
18.661
19.8699
21.1839
22.6042
24.1331
25.7743
27.5324
29.4128
31.4218
33.5668
35.8556
38.297
40.9003
43.675
46.631
49.7785
53.128
56.6902
60.4757
64.4952
68.7588
73.2766
78.0581
83.1129
88.4521
94.0869
100.02
106.256
112.801
119.657
126.826
134.31
142.108
150.219
158.641
167.37
176.401
185.731
195.353
205.26
215.445
225.9
236.615
247.581
258.789
270.226
281.883
293.748
305.809
318.054
330.469
343.042
355.76
368.608
381.573
394.639
407.792
421.016
434.296
447.612
460.95
474.29
487.615
500.905
514.144
527.31
540.385
553.35
566.186
578.874
591.395
603.73
615.861
627.772
639.443
650.863
662.016
672.891
683.475
693.754
703.714
713.334
722.588
731.447
739.881
747.854
755.328
762.263
768.625
774.374
779.472
783.87
787.531
790.426
792.516
793.751
794.024
793.348
791.692
789.192
785.846
781.676
776.717
771.013
764.615
757.574
749.947
741.792
733.17
724.137
714.749
705.057
695.106
684.937
674.586
664.082
653.45
642.712
631.881
620.973
609.996
598.957
587.861
576.71
565.504
554.242
542.924
531.547
520.11
508.612
497.052
485.43
473.749
462.012
450.224
438.392
426.526
414.637
402.741
390.852
378.991
367.177
355.435
343.789
332.264
320.887
309.678
298.666
287.887
277.367
267.162
257.287
247.747
238.574
229.813
221.414
213.406
205.8
198.592
191.781
185.342
179.268
173.545
168.15
163.069
158.291
153.736
149.538
39.1853
20.0836
15.6722
14.1414
13.645
13.648
13.9608
14.4982
15.2153
16.0879
17.1026
18.2524
19.5344
20.9482
22.4957
24.1805
26.0076
27.9833
30.1152
32.4115
34.8812
37.5349
40.3836
43.4389
46.7126
50.217
53.9642
57.9666
62.2367
66.7866
71.6279
76.7717
82.2284
88.0078
94.1187
100.57
107.368
114.525
122.043
129.919
138.151
146.734
155.663
164.932
174.533
184.457
194.695
205.234
216.064
227.173
238.548
250.176
262.043
274.136
286.439
298.939
311.621
324.471
337.475
350.618
363.885
377.264
390.738
404.294
417.918
431.596
445.311
459.051
472.799
486.539
500.255
513.929
527.544
541.082
554.522
567.848
581.038
594.073
606.933
619.599
632.051
644.269
656.234
667.927
679.33
690.425
701.198
711.639
721.736
731.482
740.873
749.903
758.564
766.84
774.713
782.166
789.181
795.736
801.806
807.367
812.398
816.88
820.786
824.069
826.702
828.682
829.966
830.363
829.87
828.417
826.186
823.136
819.268
814.598