/*--------------------------------*- C++ -*----------------------------------*\
  =========                 |
  \\      /  F ield         | OpenFOAM: The Open Source CFD Toolbox
   \\    /   O peration     | Website:  https://openfoam.org
    \\  /    A nd           | Version:  8
     \\/     M anipulation  |
\*---------------------------------------------------------------------------*/
FoamFile
{
    version     2.0;
    format      ascii;
    class       volScalarField;
    location    "130";
    object      k;
}
// * * * * * * * * * * * * * * * * * * * * * * * * * * * * * * * * * * * * * //

dimensions      [0 2 -2 0 0 0 0];

internalField   nonuniform List<scalar> 
12225
(
0.362819
0.343996
0.327733
0.309837
0.295366
0.28353
0.27544
0.270307
0.270342
0.271901
0.276054
0.280718
0.289904
0.295879
0.306775
0.31379
0.323214
0.336656
0.440197
0.468691
0.461606
0.448366
0.450355
0.458318
0.474368
0.498874
0.524183
0.552548
0.580636
0.606689
0.633983
0.654548
0.680399
0.694606
0.719346
0.732567
0.390549
0.417864
0.420231
0.41682
0.411634
0.407801
0.408004
0.410043
0.414453
0.42158
0.43065
0.439945
0.451171
0.461515
0.472975
0.484347
0.493917
0.508329
0.377546
0.386979
0.391409
0.391342
0.390222
0.387896
0.385658
0.384086
0.382867
0.382896
0.383382
0.38436
0.386291
0.388577
0.390983
0.394467
0.396811
0.401741
0.374562
0.376088
0.378414
0.378665
0.378263
0.377205
0.375487
0.373739
0.372006
0.370454
0.369251
0.368118
0.367369
0.366836
0.366458
0.366415
0.366455
0.366929
0.373815
0.372708
0.372645
0.372383
0.371761
0.370816
0.369552
0.368082
0.366568
0.364976
0.363521
0.362065
0.360746
0.359534
0.358394
0.357446
0.356462
0.35585
0.373783
0.371742
0.370386
0.369286
0.368234
0.367113
0.365914
0.364586
0.363235
0.361807
0.360416
0.359022
0.35767
0.356379
0.355113
0.353965
0.352793
0.351815
0.37382
0.37156
0.369634
0.367976
0.3665
0.365107
0.363774
0.362428
0.361105
0.359764
0.358446
0.35714
0.355857
0.354616
0.353392
0.352242
0.351091
0.350049
0.373832
0.371553
0.369449
0.367525
0.365776
0.364153
0.362644
0.361198
0.359815
0.358471
0.357166
0.355899
0.354661
0.353469
0.3523
0.351187
0.350089
0.349067
0.373831
0.37156
0.369418
0.367405
0.365528
0.363772
0.362132
0.360584
0.35912
0.357726
0.356392
0.355114
0.353884
0.352705
0.351563
0.350475
0.349414
0.348416
0.373829
0.37156
0.369413
0.367378
0.365458
0.363645
0.361937
0.360323
0.358797
0.357351
0.355977
0.354669
0.353421
0.352231
0.35109
0.350004
0.348955
0.347967
0.373828
0.371558
0.369409
0.36737
0.365439
0.363608
0.361875
0.360233
0.358676
0.3572
0.355798
0.354466
0.353198
0.351992
0.350839
0.349745
0.348693
0.3477
0.373827
0.371556
0.369405
0.367365
0.36543
0.363593
0.361851
0.360196
0.358625
0.357133
0.355714
0.354366
0.353083
0.351863
0.350699
0.349593
0.348535
0.347533
0.373827
0.371555
0.369401
0.367359
0.365422
0.363583
0.361837
0.360177
0.3586
0.3571
0.355673
0.354316
0.353024
0.351794
0.350622
0.349507
0.348441
0.34743
0.373826
0.371553
0.369398
0.367355
0.365416
0.363575
0.361826
0.360164
0.358584
0.357081
0.355651
0.354289
0.352993
0.351758
0.350581
0.34946
0.348391
0.347373
0.373826
0.371552
0.369396
0.367351
0.36541
0.363567
0.361817
0.360153
0.358572
0.357067
0.355635
0.354271
0.352973
0.351735
0.350556
0.349432
0.34836
0.347338
0.373825
0.371551
0.369394
0.367348
0.365406
0.363562
0.36181
0.360145
0.358562
0.357056
0.355622
0.354257
0.352957
0.351718
0.350537
0.349412
0.348338
0.347314
0.373825
0.371551
0.369393
0.367346
0.365403
0.363558
0.361806
0.36014
0.358555
0.357048
0.355613
0.354247
0.352945
0.351705
0.350523
0.349396
0.34832
0.347295
0.373825
0.37155
0.369393
0.367346
0.365402
0.363557
0.361804
0.360137
0.358552
0.357044
0.355609
0.354242
0.352939
0.351699
0.350515
0.349387
0.348311
0.347284
0.373825
0.371551
0.369393
0.367347
0.365404
0.363559
0.361806
0.36014
0.358555
0.357048
0.355612
0.354246
0.352943
0.351702
0.350518
0.349391
0.348314
0.347287
0.373825
0.371551
0.369395
0.367349
0.365407
0.363563
0.361812
0.360146
0.358563
0.357056
0.355622
0.354256
0.352956
0.351716
0.350535
0.349408
0.348334
0.347308
0.373826
0.371552
0.369397
0.367352
0.365412
0.363571
0.361823
0.360162
0.358584
0.357084
0.355657
0.354299
0.353007
0.351776
0.350603
0.349484
0.348418
0.347399
0.373826
0.371554
0.369399
0.367359
0.365429
0.363603
0.361875
0.360241
0.358691
0.357221
0.355824
0.354494
0.353228
0.352019
0.350866
0.349764
0.348711
0.347701
0.373828
0.371551
0.369412
0.367417
0.365556
0.363819
0.362189
0.360651
0.359189
0.357794
0.356457
0.355172
0.353936
0.352746
0.351601
0.350496
0.349436
0.34841
0.373823
0.371554
0.369604
0.367893
0.366339
0.364892
0.363495
0.362122
0.360761
0.359414
0.358081
0.35677
0.355489
0.354238
0.353029
0.351855
0.350734
0.349644
0.373788
0.371991
0.371113
0.370265
0.36936
0.368311
0.367048
0.36563
0.364121
0.362575
0.36103
0.359522
0.358073
0.356682
0.355381
0.354141
0.353009
0.351924
0.374355
0.375572
0.377775
0.377857
0.377288
0.375886
0.373835
0.371641
0.369505
0.367482
0.365664
0.364083
0.36271
0.361534
0.360609
0.359818
0.359289
0.358802
0.379125
0.394296
0.398249
0.396573
0.392538
0.387603
0.383645
0.380447
0.378267
0.376851
0.376495
0.376739
0.377414
0.378689
0.380441
0.382423
0.384829
0.387143
0.408394
0.42754
0.422415
0.411055
0.402225
0.397921
0.398622
0.400959
0.406065
0.413048
0.420994
0.429823
0.438832
0.448188
0.457309
0.466558
0.475335
0.484203
0.36605
0.353415
0.341988
0.33021
0.318982
0.308381
0.299411
0.29167
0.285404
0.280333
0.276681
0.273865
0.272311
0.271173
0.27121
0.271472
0.27219
0.273393
0.007156
0.0237403
0.0375769
0.0503149
0.0626583
0.0745586
0.0858566
0.0963421
0.105808
0.114146
0.121148
0.127234
0.133162
0.140355
0.146842
0.151647
0.154021
0.154346
0.150548
0.143928
0.136958
0.128968
0.137661
0.146768
0.161151
0.170501
0.181468
0.192333
0.20349
0.214794
0.226225
0.237777
0.249402
0.261123
0.272897
0.284762
0.296683
0.308699
0.320772
0.33295
0.345197
0.357567
0.370026
0.382631
0.395349
0.408235
0.421252
0.434434
0.447734
0.461201
0.474799
0.488573
0.50249
0.51659
0.530842
0.545282
0.55988
0.574668
0.589616
0.604753
0.620049
0.635527
0.65116
0.666963
0.682911
0.699012
0.715244
0.731601
0.74807
0.764629
0.781269
0.797956
0.814683
0.831397
0.848098
0.864714
0.881246
0.897602
0.913791
0.929719
0.945443
0.960928
0.976382
0.991534
1.00643
1.02094
1.03513
1.04884
1.06211
1.0748
1.08687
1.0983
1.109
1.11894
1.12803
1.13626
1.14355
1.14991
1.15527
1.15967
1.16304
1.16555
1.16684
1.16573
1.16506
1.16173
1.15914
1.15487
1.14976
1.14366
1.13671
1.12892
1.12039
1.11116
1.10132
1.09089
1.07991
1.06846
1.05673
1.04478
1.03269
1.02052
1.00837
0.996292
0.984343
0.972557
0.960986
0.949651
0.938591
0.92782
0.917362
0.907225
0.897416
0.88794
0.878793
0.869977
0.861476
0.853282
0.845378
0.837768
0.830449
0.823405
0.816616
0.810043
0.80366
0.797429
0.791326
0.785311
0.77936
0.773435
0.767519
0.761576
0.755591
0.749532
0.743395
0.737156
0.730804
0.72433
0.717755
0.711055
0.704238
0.69748
0.692639
0.68944
0.68594
0.682493
0.679123
0.675804
0.672521
0.669248
0.665968
0.662634
0.659198
0.655613
0.651808
0.647681
0.643074
0.637676
0.631133
0.602957
0.0195945
0.0490554
0.0680797
0.0830165
0.0963867
0.10908
0.121335
0.133142
0.144428
0.155198
0.165659
0.176303
0.18757
0.199052
0.20991
0.219853
0.229012
0.237899
0.24779
0.261201
0.274162
0.286699
0.303201
0.322541
0.341679
0.359981
0.378788
0.398002
0.417551
0.437387
0.457474
0.477786
0.498292
0.518984
0.539846
0.560881
0.582084
0.60346
0.625009
0.646742
0.668667
0.690804
0.713164
0.735776
0.758659
0.781852
0.80539
0.829228
0.853344
0.877756
0.902471
0.927506
0.952869
0.978576
1.00463
1.03105
1.05784
1.08501
1.11257
1.14052
1.16887
1.19762
1.22677
1.25633
1.28629
1.31665
1.34741
1.37855
1.41007
1.44195
1.47417
1.50672
1.53956
1.57268
1.60603
1.63957
1.67325
1.70702
1.7408
1.77451
1.80805
1.84127
1.87404
1.90648
1.93866
1.97048
2.00188
2.03274
2.06298
2.09245
2.12105
2.14866
2.1752
2.2005
2.22439
2.24674
2.26744
2.28636
2.30341
2.31848
2.33149
2.34238
2.35108
2.35695
2.36114
2.36271
2.36333
2.36133
2.35711
2.35085
2.34265
2.33265
2.32095
2.3077
2.29303
2.27708
2.26
2.24194
2.22306
2.20351
2.18344
2.16298
2.14228
2.12147
2.10064
2.0799
2.05932
2.03897
2.01893
1.99924
1.97996
1.9611
1.9427
1.92478
1.90736
1.89042
1.87398
1.85802
1.84254
1.82755
1.81304
1.799
1.7854
1.7722
1.75937
1.74684
1.73458
1.72253
1.71066
1.69892
1.68726
1.67564
1.66402
1.65237
1.64067
1.62888
1.61699
1.60497
1.59284
1.58058
1.5682
1.55577
1.5436
1.53168
1.51986
1.50805
1.49622
1.4843
1.47223
1.45994
1.44736
1.43444
1.42111
1.40729
1.39291
1.37792
1.36213
1.34613
1.32928
1.29144
0.0356566
0.0756276
0.0988011
0.116627
0.132412
0.147315
0.161832
0.176185
0.190501
0.204921
0.219635
0.234833
0.250531
0.266512
0.282522
0.298572
0.314914
0.331936
0.350097
0.369571
0.389577
0.41026
0.432277
0.455309
0.478928
0.502851
0.527153
0.551848
0.576909
0.602306
0.628006
0.653983
0.680212
0.706678
0.733369
0.76028
0.787406
0.814746
0.842303
0.870086
0.898102
0.926364
0.954885
0.983681
1.01277
1.04215
1.07186
1.10188
1.13222
1.16291
1.19394
1.22533
1.2571
1.28925
1.32179
1.35474
1.3881
1.42187
1.45607
1.4907
1.52575
1.56125
1.59717
1.63353
1.67032
1.70753
1.74516
1.78319
1.82163
1.86044
1.89962
1.93913
1.97897
2.0191
2.05948
2.10009
2.14088
2.18181
2.22283
2.26387
2.3049
2.34583
2.38662
2.42719
2.46748
2.50741
2.54686
2.58573
2.62387
2.66114
2.69739
2.73249
2.76627
2.79858
2.82924
2.8581
2.885
2.90978
2.93231
2.95244
2.97007
2.98507
2.99741
3.007
3.01389
3.01762
3.01925
3.01852
3.0149
3.00868
3.00002
2.98906
2.97594
2.96084
2.94392
2.92535
2.90531
2.88399
2.86158
2.83825
2.81419
2.78957
2.76456
2.73929
2.71392
2.68854
2.66327
2.63819
2.61339
2.58894
2.56488
2.54126
2.51812
2.49547
2.47333
2.45172
2.43063
2.41005
2.38999
2.37044
2.3514
2.33285
2.31476
2.29708
2.27978
2.2628
2.24609
2.2296
2.21328
2.19708
2.18095
2.16484
2.1487
2.13251
2.11623
2.09984
2.08331
2.06663
2.04979
2.03281
2.01569
1.99844
1.98116
1.96387
1.94659
1.92924
1.91177
1.89414
1.87628
1.85815
1.83968
1.82082
1.80152
1.78173
1.76142
1.74062
1.71934
1.69837
1.67726
1.64443
0.0525492
0.101074
0.128668
0.149545
0.167783
0.184886
0.201567
0.218207
0.235031
0.252195
0.269817
0.287971
0.306667
0.325852
0.345453
0.365498
0.386097
0.407461
0.429765
0.453055
0.477191
0.502149
0.527967
0.554542
0.581735
0.609424
0.637564
0.666129
0.695092
0.724424
0.754097
0.784085
0.814366
0.844925
0.875751
0.906835
0.938172
0.969762
1.0016
1.0337
1.06607
1.09871
1.13163
1.16485
1.19838
1.23222
1.2664
1.30091
1.33578
1.371
1.40661
1.4426
1.47898
1.51578
1.55299
1.59063
1.62871
1.66722
1.70618
1.7456
1.78546
1.82579
1.86657
1.9078
1.94949
1.99163
2.03421
2.07722
2.12065
2.1645
2.20873
2.25335
2.29833
2.34363
2.38925
2.43515
2.48129
2.52764
2.57416
2.62079
2.66748
2.71418
2.7608
2.80728
2.85352
2.89943
2.94489
2.98976
3.03392
3.0772
3.11943
3.16047
3.20012
3.23821
3.27456
3.30897
3.34126
3.37125
3.39877
3.42365
3.44576
3.46496
3.48118
3.49434
3.50446
3.51129
3.51488
3.51592
3.51382
3.5087
3.50073
3.49005
3.47682
3.46122
3.44344
3.42367
3.40211
3.37898
3.35448
3.32881
3.30218
3.27479
3.24681
3.21843
3.18978
3.16101
3.13223
3.10356
3.07509
3.0469
3.01904
2.99158
2.96455
2.93798
2.91189
2.8863
2.8612
2.83661
2.81251
2.7889
2.76578
2.74312
2.7209
2.69907
2.67759
2.65641
2.63549
2.61476
2.59418
2.57369
2.55325
2.5328
2.51231
2.49174
2.47105
2.45022
2.42924
2.40807
2.38673
2.36519
2.34346
2.32156
2.29953
2.27738
2.25515
2.23279
2.21028
2.18758
2.16465
2.14144
2.11792
2.09404
2.06977
2.0451
2.02005
1.99473
1.9693
1.94463
1.92039
1.88962
0.0690156
0.125048
0.156897
0.180801
0.201444
0.220609
0.239187
0.25767
0.276356
0.295437
0.315038
0.335239
0.356076
0.377547
0.399647
0.422398
0.445873
0.470168
0.495357
0.521461
0.548443
0.57626
0.604861
0.634181
0.664144
0.694676
0.725723
0.757247
0.789213
0.821589
0.854348
0.887466
0.920925
0.95471
0.988807
1.02321
1.05791
1.0929
1.12818
1.16377
1.19965
1.23583
1.27233
1.30915
1.3463
1.3838
1.42164
1.45985
1.49844
1.53741
1.57678
1.61656
1.65677
1.6974
1.73848
1.78
1.82199
1.86444
1.90736
1.95076
1.99465
2.03901
2.08386
2.12919
2.175
2.2213
2.26806
2.3153
2.36299
2.41114
2.45972
2.50872
2.55814
2.60794
2.65811
2.70863
2.75946
2.81057
2.86192
2.91347
2.96516
3.01694
3.06873
3.12044
3.172
3.2233
3.27421
3.32461
3.37434
3.42326
3.47118
3.51792
3.5633
3.60711
3.64915
3.6892
3.72706
3.76251
3.79536
3.82541
3.85248
3.87644
3.89716
3.91453
3.9285
3.93902
3.94591
3.94934
3.94962
3.94649
3.94009
3.93057
3.91811
3.90289
3.88509
3.86494
3.84266
3.81846
3.79259
3.76525
3.73669
3.70711
3.67672
3.64571
3.61425
3.58249
3.55058
3.51864
3.48677
3.45506
3.4236
3.39244
3.36163
3.33121
3.30121
3.27164
3.24251
3.21383
3.18559
3.1578
3.13044
3.1035
3.07694
3.05073
3.02483
2.9992
2.97378
2.94853
2.92339
2.89832
2.87327
2.84819
2.82305
2.7978
2.77241
2.74686
2.72113
2.6952
2.66906
2.64272
2.61617
2.58943
2.56252
2.53546
2.50828
2.48097
2.45352
2.4259
2.3981
2.37007
2.34181
2.31328
2.28447
2.25541
2.22615
2.19688
2.16787
2.13996
2.11287
2.082
0.0843698
0.146733
0.182443
0.209162
0.232041
0.253082
0.273311
0.293313
0.313452
0.333968
0.355018
0.376708
0.399104
0.422244
0.446153
0.470857
0.496392
0.522794
0.550089
0.578282
0.607348
0.637252
0.667944
0.699371
0.731474
0.764199
0.797498
0.83133
0.865659
0.900456
0.935694
0.97135
1.0074
1.04384
1.08064
1.1178
1.1553
1.19315
1.23134
1.26986
1.30873
1.34794
1.3875
1.42742
1.4677
1.50835
1.54939
1.59082
1.63265
1.67491
1.71758
1.7607
1.80427
1.84829
1.89279
1.93777
1.98324
2.0292
2.07567
2.12265
2.17014
2.21814
2.26667
2.31571
2.36527
2.41534
2.46593
2.51703
2.56863
2.62072
2.67331
2.72636
2.77989
2.83386
2.88826
2.94307
2.99827
3.05383
3.10971
3.16586
3.22225
3.27882
3.33549
3.39219
3.44883
3.50531
3.56151
3.61731
3.67255
3.72707
3.78069
3.83321
3.88444
3.93416
3.98215
4.02816
4.07196
4.11331
4.15198
4.18774
4.22039
4.24974
4.27563
4.29792
4.3165
4.33131
4.34229
4.34929
4.35252
4.35215
4.34809
4.3405
4.32953
4.31537
4.29822
4.27831
4.25586
4.23113
4.20437
4.1758
4.14569
4.11427
4.08176
4.04837
4.0143
3.97972
3.94478
3.90964
3.8744
3.83918
3.80407
3.76913
3.73443
3.70001
3.66591
3.63216
3.59876
3.56573
3.53307
3.50079
3.46886
3.43728
3.40602
3.37505
3.34433
3.31383
3.2835
3.25329
3.22317
3.19308
3.16298
3.13282
3.10258
3.07221
3.04169
3.01099
2.9801
2.949
2.9177
2.8862
2.85451
2.82265
2.79063
2.75849
2.72624
2.69391
2.66149
2.62899
2.59639
2.56368
2.53086
2.49791
2.46484
2.43171
2.3986
2.36574
2.33347
2.30255
2.27271
2.24079
0.0981122
0.16561
0.204663
0.233875
0.258762
0.28149
0.303183
0.324497
0.345851
0.367528
0.389721
0.412566
0.436154
0.460545
0.485778
0.511882
0.538878
0.56678
0.595594
0.625312
0.655912
0.687362
0.719622
0.752647
0.78639
0.820807
0.855856
0.891499
0.927703
0.964439
1.00168
1.0394
1.07758
1.11621
1.15527
1.19474
1.23462
1.2749
1.31557
1.35663
1.39809
1.43994
1.48218
1.52482
1.56787
1.61133
1.65522
1.69953
1.74429
1.78951
1.83519
1.88135
1.92799
1.97513
2.02278
2.07095
2.11965
2.16888
2.21865
2.26897
2.31984
2.37127
2.42325
2.4758
2.5289
2.58256
2.63678
2.69155
2.74686
2.80272
2.85912
2.91605
2.97349
3.03145
3.08989
3.14882
3.2082
3.26801
3.32823
3.38881
3.44972
3.5109
3.57229
3.63382
3.69541
3.75697
3.81838
3.87952
3.94025
4.00039
4.05976
4.11818
4.17542
4.23125
4.28543
4.3377
4.38781
4.43547
4.48043
4.52242
4.5612
4.59654
4.62823
4.65609
4.67998
4.69977
4.71539
4.72682
4.73389
4.73688
4.73586
4.73085
4.72202
4.70954
4.69361
4.67446
4.65235
4.62753
4.60026
4.57082
4.53947
4.50646
4.47204
4.43645
4.39989
4.36257
4.32466
4.28631
4.24768
4.20887
4.17
4.13115
4.0924
4.05379
4.01537
3.97717
3.93923
3.90155
3.86414
3.82701
3.79015
3.75355
3.71719
3.68104
3.64507
3.60926
3.57356
3.53795
3.50236
3.46678
3.43115
3.39544
3.35963
3.32368
3.28757
3.25129
3.21482
3.17816
3.14133
3.10433
3.06718
3.02991
2.99254
2.95512
2.91767
2.88022
2.8428
2.80542
2.76808
2.73079
2.69355
2.65637
2.61927
2.58232
2.54565
2.50949
2.47419
2.44044
2.40792
2.37435
0.109963
0.181469
0.223303
0.254641
0.281275
0.305499
0.328497
0.350973
0.373383
0.396044
0.419177
0.442942
0.467449
0.492774
0.51897
0.546068
0.574087
0.603036
0.632913
0.663708
0.6954
0.727961
0.761359
0.795557
0.830518
0.866205
0.902582
0.939616
0.977277
1.01554
1.05437
1.09376
1.13367
1.1741
1.21503
1.25644
1.29832
1.34067
1.38348
1.42675
1.47046
1.51463
1.55924
1.60432
1.64985
1.69585
1.74233
1.78929
1.83674
1.88469
1.93316
1.98215
2.03168
2.08176
2.13239
2.18358
2.23535
2.2877
2.34064
2.39417
2.44829
2.50302
2.55835
2.61428
2.67082
2.72795
2.78569
2.84402
2.90295
2.96247
3.02257
3.08324
3.14449
3.20629
3.26865
3.33154
3.39495
3.45887
3.52326
3.5881
3.65336
3.71898
3.78493
3.85114
3.91753
3.98403
4.05052
4.1169
4.18302
4.24872
4.31383
4.37814
4.44144
4.50348
4.564
4.62273
4.67938
4.73366
4.78525
4.83387
4.87922
4.92103
4.95906
4.99305
5.02283
5.04823
5.06914
5.08547
5.09721
5.10425
5.10685
5.10506
5.09896
5.08873
5.07456
5.05669
5.03536
5.01087
4.98349
4.9535
4.9212
4.88686
4.85075
4.81312
4.77421
4.73424
4.69341
4.65188
4.60983
4.5674
4.52469
4.48181
4.43885
4.39587
4.35292
4.31006
4.26731
4.2247
4.18225
4.13995
4.09781
4.05582
4.01398
3.97225
3.93063
3.88909
3.84759
3.80611
3.76463
3.7231
3.6815
3.6398
3.59798
3.55602
3.51391
3.47164
3.42921
3.38664
3.34394
3.30114
3.25825
3.21534
3.17242
3.12956
3.08679
3.04417
3.00173
2.95949
2.91748
2.87572
2.83421
2.79298
2.75207
2.71156
2.67158
2.63237
2.59426
2.55785
2.52275
2.4873
0.119812
0.194328
0.23839
0.271482
0.299596
0.325112
0.349252
0.372749
0.396082
0.419585
0.443499
0.468
0.493212
0.519225
0.546101
0.57388
0.602583
0.632223
0.662798
0.694301
0.726715
0.760019
0.794187
0.82919
0.864999
0.901585
0.938918
0.976972
1.01572
1.05513
1.0952
1.13588
1.17717
1.21905
1.26151
1.30452
1.34809
1.39219
1.43683
1.48199
1.52768
1.57389
1.62062
1.66788
1.71566
1.76398
1.81283
1.86224
1.9122
1.96273
2.01383
2.06551
2.11779
2.17068
2.22418
2.2783
2.33305
2.38844
2.44446
2.50113
2.55846
2.61642
2.67504
2.73431
2.79423
2.85479
2.91599
2.97783
3.04031
3.10341
3.16714
3.23148
3.29643
3.36198
3.42812
3.49485
3.56215
3.63001
3.6984
3.76731
3.83672
3.90658
3.97686
4.04752
4.11848
4.18967
4.26102
4.33241
4.40371
4.47478
4.54544
4.6155
4.68474
4.75292
4.81975
4.88496
4.94823
5.00923
5.06764
5.12311
5.17532
5.22395
5.26869
5.30925
5.3454
5.37691
5.40363
5.42544
5.44227
5.45408
5.4609
5.46289
5.4601
5.45267
5.44079
5.42468
5.40461
5.38088
5.35377
5.3236
5.29067
5.25529
5.21773
5.17828
5.1372
5.09472
5.05106
5.00643
4.96101
4.91494
4.86836
4.82139
4.77414
4.72667
4.67906
4.63136
4.58361
4.53585
4.48809
4.44036
4.39266
4.34498
4.29733
4.2497
4.20207
4.15443
4.10677
4.05906
4.01129
3.96343
3.91547
3.86739
3.81919
3.77086
3.72239
3.6738
3.6251
3.57632
3.52747
3.47862
3.42979
3.38104
3.33243
3.28402
3.23587
3.18804
3.14059
3.09356
3.04697
3.00086
2.95526
2.91018
2.86568
2.82185
2.77881
2.73679
2.69609
2.6572
2.61969
2.58234
0.127667
0.204343
0.250128
0.284619
0.313942
0.340537
0.365645
0.390014
0.41413
0.438339
0.462888
0.487963
0.5137
0.540197
0.567525
0.595732
0.624847
0.654888
0.685861
0.717764
0.750587
0.784315
0.81893
0.854413
0.890742
0.927895
0.965851
1.00459
1.04409
1.08433
1.12528
1.16694
1.20929
1.2523
1.29596
1.34028
1.38522
1.43079
1.47697
1.52377
1.57118
1.61919
1.66781
1.71704
1.76687
1.81732
1.86839
1.92009
1.97242
2.02539
2.07901
2.1333
2.18825
2.24387
2.30018
2.35718
2.41488
2.47327
2.53236
2.59216
2.65266
2.71386
2.77577
2.83837
2.90165
2.96563
3.03028
3.09561
3.1616
3.22825
3.29555
3.36349
3.43206
3.50125
3.57107
3.64149
3.71251
3.78412
3.85631
3.92906
4.00235
4.07617
4.15049
4.22526
4.30045
4.37599
4.45181
4.52784
4.60394
4.68
4.75586
4.83132
4.90618
4.98019
5.05309
5.12457
5.1943
5.26194
5.32712
5.38948
5.44864
5.50423
5.55589
5.60329
5.64612
5.68412
5.71708
5.74482
5.76723
5.78425
5.79588
5.8022
5.80324
5.79917
5.7901
5.77626
5.75792
5.7354
5.70899
5.67904
5.64585
5.60975
5.57105
5.53004
5.48702
5.44224
5.39593
5.34834
5.29964
5.25001
5.19961
5.14858
5.09701
5.04502
4.99267
4.94004
4.88718
4.83412
4.78091
4.72756
4.67409
4.62051
4.56682
4.51303
4.45913
4.40513
4.35101
4.29678
4.24242
4.18793
4.13331
4.07855
4.02368
3.96868
3.91359
3.85842
3.8032
3.74798
3.69279
3.63771
3.58278
3.52808
3.47369
3.41967
3.36612
3.31311
3.2607
3.20895
3.15792
3.10762
3.0581
3.00939
2.96154
2.91462
2.86878
2.8242
2.78113
2.73999
2.7003
2.66118
0.133611
0.211745
0.258807
0.294369
0.324641
0.352097
0.377987
0.403062
0.427811
0.452579
0.477617
0.503115
0.529212
0.556016
0.583602
0.612028
0.641331
0.671534
0.702655
0.734698
0.767662
0.80154
0.836324
0.872001
0.908559
0.945986
0.984266
1.02339
1.06334
1.1041
1.14565
1.18799
1.23109
1.27495
1.31955
1.36488
1.41094
1.45772
1.5052
1.5534
1.60231
1.65191
1.70222
1.75324
1.80496
1.8574
1.91055
1.96443
2.01903
2.07437
2.13046
2.18729
2.24487
2.30321
2.36232
2.4222
2.48284
2.54426
2.60644
2.6694
2.73311
2.79758
2.8628
2.92876
2.99545
3.06286
3.13098
3.1998
3.2693
3.33947
3.4103
3.48178
3.55389
3.62662
3.69997
3.77392
3.84847
3.92361
3.99933
4.07563
4.15249
4.2299
4.30784
4.3863
4.46524
4.54462
4.6244
4.7045
4.78484
4.86531
4.94577
5.02606
5.10598
5.1853
5.26376
5.34105
5.41683
5.49076
5.56243
5.63145
5.69741
5.75988
5.81847
5.87278
5.92245
5.96716
6.00663
6.04064
6.06902
6.09167
6.10855
6.11968
6.12511
6.12493
6.11922
6.10816
6.09206
6.07123
6.04599
6.01668
5.98364
5.94721
5.90773
5.8655
5.82084
5.77402
5.72532
5.67497
5.62318
5.57016
5.51607
5.46107
5.40528
5.34881
5.29176
5.2342
5.1762
5.11782
5.05908
5.00003
4.94069
4.88109
4.82122
4.76112
4.70079
4.64024
4.57949
4.51853
4.45739
4.39606
4.33458
4.27295
4.21119
4.14934
4.08743
4.02551
3.96361
3.90181
3.84016
3.77874
3.71764
3.65693
3.59673
3.53711
3.47819
3.42005
3.36278
3.30645
3.25111
3.1968
3.14357
3.09145
3.04049
2.99076
2.94237
2.89548
2.8503
2.80715
2.76553
2.72488
0.137759
0.216788
0.264743
0.301082
0.332056
0.360156
0.386636
0.412241
0.43746
0.462633
0.48801
0.51378
0.540085
0.567035
0.594712
0.62318
0.652483
0.682654
0.713716
0.745683
0.778564
0.812363
0.847079
0.882707
0.919245
0.956689
0.995035
1.03428
1.07442
1.11544
1.15734
1.2001
1.24372
1.28817
1.33347
1.37959
1.42653
1.4743
1.52289
1.57229
1.62251
1.67354
1.7254
1.77807
1.83157
1.88589
1.94105
1.99704
2.05387
2.11155
2.17008
2.22946
2.28969
2.35078
2.41273
2.47553
2.53918
2.60369
2.66903
2.73521
2.80221
2.87002
2.93863
3.00801
3.07816
3.14906
3.22068
3.293
3.36601
3.43969
3.51401
3.58896
3.66451
3.74066
3.81739
3.89468
3.97252
4.05091
4.12985
4.20932
4.28933
4.36986
4.45092
4.5325
4.61458
4.69714
4.78017
4.86361
4.94741
5.03148
5.11573
5.20002
5.28417
5.36799
5.45122
5.53357
5.61472
5.69428
5.77187
5.84706
5.9194
5.98844
6.05372
6.11481
6.17127
6.22272
6.26884
6.30933
6.34396
6.37259
6.39511
6.4115
6.42178
6.426
6.42424
6.41651
6.40316
6.38452
6.36094
6.33276
6.30034
6.26403
6.22418
6.18112
6.1352
6.0867
6.03592
5.98312
5.92852
5.87236
5.8148
5.75603
5.69619
5.6354
5.57377
5.51138
5.44833
5.38467
5.32045
5.25572
5.19051
5.12486
5.0588
4.99234
4.92552
4.85836
4.79089
4.72312
4.6551
4.58684
4.51838
4.44976
4.38103
4.31223
4.24341
4.17465
4.10601
4.03756
3.9694
3.90163
3.83434
3.76765
3.70167
3.63651
3.57231
3.50915
3.44715
3.38639
3.32694
3.26884
3.21214
3.15685
3.10304
3.05076
3.00009
2.95117
2.90414
2.85926
2.81601
2.7741
0.14034
0.219743
0.268249
0.305101
0.336547
0.365083
0.391959
0.417916
0.443437
0.468857
0.494422
0.520318
0.546688
0.573642
0.601264
0.62962
0.658762
0.688732
0.719562
0.751277
0.783897
0.81744
0.851919
0.887311
0.92363
0.960889
0.999099
1.03826
1.07839
1.11947
1.16151
1.2045
1.24844
1.29331
1.33913
1.38587
1.43352
1.48212
1.53166
1.58214
1.63355
1.68591
1.73922
1.79347
1.84869
1.90487
1.96201
2.02013
2.07921
2.13926
2.20029
2.26228
2.32524
2.38917
2.45405
2.51988
2.58666
2.65436
2.72298
2.79249
2.86289
2.93414
3.00623
3.07913
3.15281
3.22724
3.3024
3.37825
3.45477
3.53192
3.60967
3.688
3.76687
3.84626
3.92615
4.00653
4.08737
4.16866
4.25041
4.3326
4.41523
4.49831
4.58184
4.66583
4.75028
4.8352
4.92058
5.00641
5.09266
5.17931
5.26626
5.35345
5.44073
5.52794
5.61485
5.70121
5.7867
5.87096
5.95359
6.03415
6.11218
6.18719
6.25868
6.32616
6.38916
6.44723
6.49995
6.54699
6.58805
6.62289
6.65137
6.6734
6.68895
6.69813
6.70071
6.697
6.68695
6.67106
6.64967
6.62315
6.59186
6.55617
6.51644
6.47303
6.42629
6.37655
6.3241
6.26922
6.21218
6.15321
6.09251
6.03026
5.96664
5.90177
5.83578
5.76878
5.70085
5.63208
5.56252
5.49223
5.42127
5.34966
5.27747
5.20472
5.13146
5.05773
4.98356
4.90901
4.83411
4.75892
4.6835
4.60789
4.53218
4.45642
4.3807
4.30511
4.22973
4.15468
4.08006
4.00598
3.93258
3.85998
3.78833
3.71776
3.64841
3.58041
3.51386
3.44888
3.38553
3.32389
3.26396
3.20579
3.14941
3.09486
3.04221
2.99154
2.94296
2.89666
2.8521
2.80927
0.141289
0.220772
0.26958
0.30673
0.338447
0.367227
0.394316
0.420451
0.44611
0.471623
0.497231
0.523114
0.54941
0.57623
0.603661
0.631775
0.660628
0.69027
0.720741
0.752075
0.784305
0.817462
0.851586
0.886634
0.922635
0.959612
0.997579
1.03655
1.07654
1.11755
1.1596
1.20269
1.24682
1.292
1.33822
1.38549
1.43379
1.48319
1.53367
1.58521
1.63778
1.69144
1.7462
1.80206
1.85904
1.91714
1.97635
2.03668
2.09812
2.16067
2.22433
2.28909
2.35494
2.42186
2.48984
2.55887
2.62892
2.69998
2.77202
2.84502
2.91893
2.99375
3.06941
3.1459
3.22317
3.30117
3.37987
3.45923
3.5392
3.61973
3.70079
3.78233
3.86431
3.9467
4.02946
4.11256
4.19599
4.27973
4.36375
4.44807
4.53267
4.61756
4.70277
4.7883
4.87417
4.96041
5.04705
5.13411
5.2216
5.30952
5.39786
5.48657
5.57558
5.66477
5.75397
5.84296
5.93147
6.01915
6.10563
6.19047
6.27319
6.35329
6.43024
6.5035
6.57254
6.63686
6.69598
6.74947
6.79698
6.83818
6.87286
6.90084
6.92204
6.93647
6.94409
6.94488
6.93891
6.92633
6.90773
6.88346
6.85388
6.81937
6.78033
6.73711
6.69008
6.63959
6.58596
6.52949
6.47046
6.40911
6.34566
6.28033
6.21329
6.14469
6.07467
6.00334
5.93082
5.8572
5.78254
5.70692
5.6304
5.55305
5.47491
5.39603
5.31649
5.23632
5.15559
5.07437
4.99272
4.91071
4.82841
4.74592
4.66332
4.58071
4.49819
4.41587
4.33387
4.25232
4.17135
4.09111
4.01175
3.93341
3.85627
3.78048
3.70619
3.63356
3.56271
3.49376
3.42678
3.36182
3.29891
3.2381
3.17942
3.1229
3.06856
3.01647
2.96666
2.91926
2.87375
2.83039
0.141023
0.220275
0.269072
0.306267
0.338034
0.366855
0.393973
0.420118
0.445761
0.471227
0.496751
0.522513
0.548648
0.575267
0.602458
0.630292
0.658832
0.688131
0.718231
0.749173
0.780988
0.813704
0.847333
0.881912
0.917481
0.954072
0.991713
1.03043
1.07024
1.11117
1.15324
1.19645
1.24084
1.2864
1.33315
1.38108
1.4302
1.48048
1.53196
1.58465
1.63849
1.69357
1.74993
1.80758
1.86651
1.92672
1.98821
2.05098
2.11503
2.18033
2.24688
2.31465
2.38362
2.45377
2.52507
2.59751
2.67104
2.74564
2.82126
2.89787
2.97542
3.05386
3.13316
3.21325
3.29409
3.37561
3.45776
3.54049
3.62373
3.70742
3.79152
3.87596
3.96068
4.04565
4.13081
4.21612
4.30155
4.38707
4.47267
4.55832
4.64404
4.72983
4.8157
4.90168
4.98782
5.07416
5.16074
5.24764
5.3349
5.42257
5.5107
5.59929
5.68835
5.77784
5.86765
5.95762
6.04752
6.13706
6.22589
6.3136
6.39972
6.48373
6.56509
6.64324
6.71759
6.78759
6.85269
6.9124
6.96624
7.01385
7.05487
7.08907
7.11626
7.13639
7.14942
7.15542
7.1542
7.14568
7.13049
7.10911
7.0819
7.04923
7.01149
6.96908
6.92237
6.87173
6.8175
6.75999
6.6995
6.63629
6.5706
6.50266
6.43265
6.36076
6.28711
6.21187
6.13513
6.05701
5.97759
5.89696
5.8152
5.73238
5.64856
5.56383
5.47825
5.39189
5.30484
5.21717
5.12898
5.04035
4.95139
4.86221
4.77292
4.68364
4.59451
4.50566
4.41722
4.32939
4.2423
4.15611
4.07101
3.98717
3.90477
3.82391
3.74484
3.66775
3.59279
3.5201
3.44975
3.38191
3.31651
3.25354
3.19303
3.13496
3.07936
3.02624
2.97558
2.92748
2.8814
2.83789
0.139739
0.218461
0.267061
0.304143
0.335805
0.364512
0.391502
0.417497
0.442968
0.468234
0.49353
0.519027
0.54486
0.571141
0.59796
0.625392
0.653504
0.682352
0.711989
0.742463
0.773819
0.806101
0.839357
0.873619
0.908928
0.945324
0.982843
1.02152
1.06138
1.10246
1.14479
1.18839
1.2333
1.27953
1.32713
1.37606
1.42631
1.4779
1.53086
1.58518
1.64079
1.69779
1.75623
1.81613
1.87747
1.94027
2.00452
2.07023
2.13737
2.2059
2.27579
2.34701
2.41952
2.49328
2.56827
2.64442
2.7217
2.80006
2.87944
2.95979
3.04105
3.12316
3.20606
3.28967
3.37393
3.45877
3.54412
3.62989
3.71603
3.80246
3.88909
3.97588
4.06273
4.14959
4.2364
4.32311
4.40967
4.49604
4.5822
4.66812
4.75381
4.83926
4.9245
5.00957
5.09452
5.17942
5.26435
5.3494
5.43469
5.52032
5.60637
5.69291
5.78008
5.86791
5.95637
6.04537
6.13477
6.22433
6.31376
6.40269
6.49067
6.5772
6.66174
6.7437
6.82248
6.89746
6.96804
7.03364
7.0937
7.14774
7.1953
7.23601
7.2696
7.29595
7.31498
7.32692
7.33091
7.3275
7.31645
7.29871
7.27459
7.24447
7.20875
7.16783
7.1221
7.07194
7.01771
6.95975
6.89836
6.83383
6.76642
6.69635
6.62384
6.54908
6.47224
6.39345
6.31286
6.23059
6.14674
6.06141
5.97469
5.88668
5.79746
5.70711
5.61574
5.52342
5.43027
5.33637
5.24184
5.1468
5.05138
4.9557
4.85992
4.76419
4.66865
4.57347
4.47882
4.38486
4.29174
4.19971
4.109
4.0198
3.93241
3.84707
3.76384
3.68291
3.60445
3.52863
3.4555
3.3853
3.31772
3.2529
3.19087
3.1316
3.07507
3.02126
2.97011
2.92167
2.87539
2.83213
0.137624
0.215297
0.263283
0.29998
0.331326
0.359744
0.386454
0.41217
0.437356
0.462333
0.487338
0.512553
0.538117
0.564138
0.590709
0.617906
0.6458
0.674454
0.703925
0.734273
0.765551
0.797809
0.831098
0.865471
0.900981
0.937686
0.975649
1.01487
1.0554
1.09726
1.14052
1.1852
1.23133
1.27894
1.32803
1.37852
1.43049
1.48398
1.53901
1.59561
1.65381
1.71362
1.77503
1.83805
1.90268
1.96889
2.03666
2.10597
2.17677
2.24902
2.32266
2.39766
2.47396
2.55151
2.63024
2.7101
2.79103
2.87296
2.95582
3.03955
3.12407
3.2093
3.29518
3.38161
3.46853
3.55583
3.64346
3.7313
3.8193
3.90735
3.99537
4.08329
4.17101
4.25846
4.34558
4.43229
4.51854
4.60429
4.68949
4.77413
4.8582
4.94169
5.02463
5.10707
5.18909
5.27077
5.35218
5.43348
5.5149
5.59653
5.67852
5.76089
5.84374
5.92736
6.0119
6.09738
6.18379
6.27098
6.35874
6.44677
6.53469
6.62202
6.70825
6.79277
6.87496
6.95416
7.02971
7.10092
7.16714
7.22774
7.28214
7.32983
7.37039
7.40339
7.42882
7.44677
7.45705
7.45924
7.45361
7.44029
7.42007
7.39332
7.36043
7.32181
7.27787
7.22901
7.17559
7.11797
7.05647
6.99138
6.92299
6.85153
6.77723
6.7003
6.62093
6.53926
6.45546
6.36966
6.28198
6.19253
6.10144
6.00879