/*--------------------------------*- C++ -*----------------------------------*\
  =========                 |
  \\      /  F ield         | OpenFOAM: The Open Source CFD Toolbox
   \\    /   O peration     | Website:  https://openfoam.org
    \\  /    A nd           | Version:  8
     \\/     M anipulation  |
\*---------------------------------------------------------------------------*/
FoamFile
{
    version     2.0;
    format      ascii;
    class       volScalarField;
    location    "130";
    object      nut;
}
// * * * * * * * * * * * * * * * * * * * * * * * * * * * * * * * * * * * * * //

dimensions      [0 2 -1 0 0 0 0];

internalField   nonuniform List<scalar> 
12225
(
4.14931e-05
3.93411e-05
3.74817e-05
3.54349e-05
3.378e-05
3.24264e-05
3.15012e-05
3.0914e-05
3.09181e-05
3.10951e-05
3.1573e-05
3.2101e-05
3.31579e-05
3.38382e-05
3.50669e-05
3.5983e-05
3.6679e-05
3.95088e-05
0.00033229
0.000215103
0.000179317
0.00015761
0.000146267
0.000138133
0.000132684
0.000131756
0.000129389
0.000130197
0.000128915
0.000129587
0.000128527
0.000128706
0.000127956
0.000127656
0.000127406
0.00012649
0.000668854
0.000450439
0.000355903
0.000309666
0.00027543
0.000250927
0.000231832
0.000217113
0.000202663
0.000192112
0.000182567
0.000175162
0.000169316
0.00016356
0.000160251
0.000155335
0.000153726
0.000149477
0.000801614
0.000691479
0.00057281
0.000499831
0.000449586
0.00041176
0.00038095
0.000355793
0.000334133
0.000314544
0.000298457
0.000281391
0.000270328
0.000255821
0.000248102
0.000235803
0.000230206
0.000219724
0.000839609
0.000810079
0.000740916
0.000676193
0.000624125
0.00058118
0.000546026
0.000514363
0.00048963
0.00046423
0.000445911
0.000423861
0.000409864
0.00039057
0.000379668
0.000362685
0.000354382
0.000338542
0.000850345
0.00084325
0.000819577
0.00078643
0.000750918
0.000715753
0.000685858
0.000656003
0.000632603
0.00060739
0.000588987
0.000567108
0.000552175
0.000532902
0.000520553
0.00050332
0.000493241
0.000476625
0.000851583
0.00085101
0.000843301
0.000833444
0.00081718
0.00079689
0.000777915
0.00075667
0.000738913
0.000719077
0.0007035
0.00068553
0.000672023
0.000655769
0.000644121
0.000629186
0.000619502
0.000604476
0.000851585
0.00085181
0.000850045
0.000847447
0.000841415
0.000833755
0.000824812
0.000813413
0.00080281
0.000790438
0.000779685
0.000767483
0.000757355
0.000745674
0.000736416
0.000725267
0.000717244
0.000705532
0.000851676
0.000851527
0.00085102
0.000850338
0.000848877
0.000846169
0.000843028
0.000838295
0.000833397
0.000827347
0.000821196
0.000814738
0.000808388
0.000801441
0.000795213
0.000788205
0.000782382
0.000774715
0.000851756
0.000851384
0.000851045
0.000850631
0.000850248
0.000849366
0.000848405
0.000846777
0.000844952
0.000842523
0.000839913
0.000836783
0.000833774
0.000830117
0.000826933
0.000822855
0.000819854
0.000815174
0.000851785
0.000851358
0.000851012
0.000850613
0.000850329
0.000849904
0.000849525
0.000848927
0.000848301
0.00084739
0.000846461
0.000845169
0.00084398
0.000842335
0.000840978
0.000839003
0.000837609
0.000835318
0.000851789
0.000851359
0.000850996
0.000850605
0.000850292
0.000849938
0.000849645
0.000849279
0.000848954
0.000848502
0.000848096
0.000847503
0.000846992
0.000846236
0.000845633
0.000844709
0.000844045
0.00084296
0.000851786
0.000851363
0.000850986
0.000850604
0.000850269
0.000849926
0.000849629
0.000849312
0.000849041
0.000848727
0.00084846
0.000848124
0.000847841
0.000847462
0.000847153
0.000846722
0.000846383
0.000845898
0.000851783
0.000851364
0.000850978
0.000850602
0.000850256
0.000849916
0.000849607
0.000849299
0.000849022
0.00084874
0.000848487
0.000848223
0.000847987
0.000847734
0.000847507
0.000847257
0.000847034
0.000846785
0.000851781
0.000851364
0.000850973
0.000850598
0.000850246
0.000849908
0.000849591
0.000849286
0.000849
0.000848723
0.000848463
0.000848211
0.000847975
0.000847745
0.000847529
0.000847318
0.000847118
0.000846924
0.00085178
0.000851363
0.000850969
0.000850594
0.000850239
0.000849901
0.00084958
0.000849274
0.000848984
0.000848707
0.000848443
0.000848191
0.000847952
0.000847723
0.000847505
0.000847296
0.000847097
0.000846907
0.000851779
0.000851362
0.000850966
0.000850591
0.000850234
0.000849894
0.000849572
0.000849265
0.000848973
0.000848694
0.000848429
0.000848176
0.000847934
0.000847703
0.000847483
0.000847273
0.000847072
0.00084688
0.000851779
0.000851362
0.000850965
0.000850588
0.000850231
0.00084989
0.000849567
0.000849259
0.000848966
0.000848686
0.000848419
0.000848165
0.000847922
0.000847689
0.000847468
0.000847256
0.000847053
0.000846859
0.000851779
0.000851362
0.000850965
0.000850588
0.00085023
0.000849889
0.000849565
0.000849257
0.000848963
0.000848682
0.000848415
0.000848159
0.000847915
0.000847682
0.000847459
0.000847246
0.000847042
0.000846847
0.000851779
0.000851362
0.000850966
0.000850589
0.000850231
0.000849892
0.000849568
0.00084926
0.000848966
0.000848686
0.000848418
0.000848163
0.000847918
0.000847685
0.000847461
0.000847248
0.000847042
0.000846846
0.000851779
0.000851363
0.000850967
0.000850592
0.000850235
0.000849897
0.000849573
0.000849267
0.000848973
0.000848694
0.000848425
0.000848169
0.000847921
0.000847684
0.000847452
0.000847232
0.000847013
0.000846807
0.000851778
0.000851366
0.000850968
0.000850599
0.00085024
0.000849908
0.00084958
0.000849275
0.000848965
0.000848672
0.000848365
0.000848073
0.000847757
0.000847456
0.000847124
0.000846812
0.000846457
0.000846136
0.000851773
0.000851376
0.00085097
0.000850615
0.000850241
0.000849889
0.000849479
0.000849054
0.00084853
0.000847979
0.000847301
0.000846605
0.000845767
0.00084494
0.000843955
0.000843029
0.000841917
0.000840938
0.000851768
0.000851415
0.000850964
0.000850548
0.000849861
0.000848967
0.00084761
0.000845976
0.000843905
0.000841637
0.000838955
0.000836215
0.000833117
0.000830113
0.000826762
0.000823678
0.00082018
0.000817172
0.000851859
0.00085138
0.000850195
0.000848243
0.00084447
0.000839355
0.000832766
0.000825659
0.000817963
0.000810013
0.000801619
0.000793628
0.000785331
0.000777706
0.000769741
0.000762695
0.000755116
0.000748784
0.000852108
0.000847667
0.000839902
0.000827146
0.000808708
0.000789647
0.000769977
0.000751415
0.000733307
0.000716898
0.000700936
0.000686781
0.00067283
0.000660669
0.000648374
0.000637933
0.000626942
0.000618004
0.000843241
0.000822506
0.000775186
0.000726459
0.000684897
0.000649853
0.000618464
0.000592022
0.000568384
0.000548315
0.000529691
0.000513992
0.000498751
0.000486014
0.000473196
0.0004627
0.00045161
0.000442788
0.000795685
0.000668241
0.000570628
0.000509906
0.000465608
0.000431185
0.000404149
0.000382483
0.000364202
0.000349072
0.000335942
0.000325062
0.000314506
0.000306234
0.000297955
0.000291361
0.000284271
0.000278918
0.000501314
0.000348357
0.000292675
0.000259181
0.000236324
0.000221177
0.000211622
0.000203855
0.000198565
0.000195075
0.000192221
0.000190366
0.000188582
0.000187436
0.000186164
0.000185469
0.000184552
0.000184139
7.27385e-05
7.02255e-05
6.79542e-05
6.56137e-05
6.33828e-05
6.12761e-05
5.94943e-05
5.7955e-05
5.67107e-05
5.5703e-05
5.49774e-05
5.44178e-05
5.41093e-05
5.3881e-05
5.38973e-05
5.39325e-05
5.40914e-05
5.43245e-05
2.19953e-06
3.33009e-05
5.28149e-05
7.06818e-05
8.79308e-05
0.000104527
0.000120379
0.000135392
0.000149738
0.000163942
0.000178798
0.000195959
0.00021948
0.000236566
0.000245899
0.000251388
0.000253123
0.00025429
0.000252255
0.000263807
0.000206885
3.86e-05
4.05086e-05
4.63461e-05
4.93182e-05
5.06629e-05
5.22866e-05
5.37887e-05
5.52941e-05
5.67612e-05
5.82112e-05
5.96305e-05
6.10291e-05
6.23996e-05
6.37503e-05
6.50764e-05
6.63854e-05
6.76727e-05
6.89455e-05
7.02001e-05
7.14432e-05
7.26721e-05
7.38927e-05
7.5103e-05
7.6308e-05
7.75052e-05
7.86976e-05
7.98791e-05
8.10535e-05
8.22209e-05
8.33844e-05
8.45419e-05
8.56965e-05
8.68466e-05
8.79944e-05
8.91382e-05
9.02803e-05
9.1419e-05
9.25562e-05
9.36901e-05
9.48223e-05
9.59513e-05
9.70782e-05
9.82014e-05
9.9322e-05
0.000100438
0.000101551
0.000102658
0.00010376
0.000104856
0.000105945
0.000107026
0.000108099
0.00010916
0.000110211
0.000111248
0.000112271
0.000113276
0.000114262
0.000115223
0.000116157
0.000117055
0.000117949
0.000118831
0.000119688
0.000120519
0.000121326
0.000122102
0.000122849
0.000123561
0.000124237
0.000124877
0.000125477
0.000126033
0.000126541
0.000126999
0.000127403
0.000127749
0.000128032
0.000128238
0.000128404
0.000128612
0.000128576
0.000128412
0.000128742
0.00012821
0.000128121
0.000127815
0.000127475
0.000127061
0.000126587
0.000126054
0.000125463
0.000124818
0.000124121
0.000123376
0.000122575
0.000121737
0.000120863
0.000119962
0.000119036
0.000118092
0.000117133
0.000116166
0.000115194
0.000114223
0.000113255
0.000112295
0.000111345
0.000110407
0.000109484
0.000108577
0.000107688
0.000106818
0.00010597
0.000105142
0.00010434
0.000103561
0.000102807
0.000102076
0.000101367
0.000100679
0.000100012
9.93659e-05
9.87388e-05
9.81292e-05
9.75353e-05
9.69551e-05
9.63862e-05
9.58271e-05
9.52762e-05
9.47315e-05
9.41907e-05
9.36522e-05
9.31156e-05
9.25782e-05
9.20379e-05
9.14949e-05
9.09521e-05
9.04062e-05
8.98594e-05
8.93517e-05
8.93015e-05
8.9198e-05
8.88331e-05
8.84555e-05
8.80857e-05
8.77214e-05
8.73659e-05
8.70196e-05
8.66853e-05
8.63582e-05
8.60346e-05
8.57113e-05
8.53874e-05
8.50484e-05
8.4694e-05
8.43057e-05
8.38195e-05
8.20146e-05
6.07369e-06
6.48921e-05
0.000129633
0.000176511
0.000209341
0.000233902
0.000253499
0.000269969
0.000284564
0.00029815
0.000311057
0.000323455
0.000336031
0.000346349
0.000353079
0.000355732
0.000353765
0.000346533
0.000333687
0.000318203
0.000297414
0.000271585
0.000281051
0.000296473
0.000307502
0.00031779
0.000328169
0.000338823
0.000349608
0.000360487
0.000371422
0.00038235
0.00039323
0.000404007
0.000414643
0.000425137
0.00043555
0.000445862
0.000456082
0.0004662
0.000476234
0.000486181
0.000496068
0.000505903
0.000515722
0.00052555
0.000535449
0.000545348
0.00055524
0.000565131
0.000575043
0.00058498
0.000594965
0.000605
0.000615107
0.000625289
0.000635566
0.000645942
0.000656435
0.00066705
0.000677806
0.000688706
0.000699767
0.000710991
0.000722394
0.000733979
0.000745761
0.000757743
0.000769936
0.000782347
0.000794983
0.000807851
0.000820955
0.000834298
0.000847878
0.000861692
0.000875719
0.000889931
0.000904263
0.000918613
0.000932799
0.000946563
0.00095951
0.000972203
0.000984902
0.000997591
0.00101023
0.00102282
0.0010353
0.00104765
0.00105984
0.00107181
0.00108356
0.00109499
0.00110602
0.00111659
0.00112663
0.0011361
0.00114493
0.00115311
0.00116071
0.00116768
0.00117428
0.0011795
0.00118476
0.00118756
0.00119119
0.00119362
0.00119514
0.00119583
0.00119573
0.00119488
0.00119331
0.00119105
0.00118816
0.00118468
0.00118067
0.00117618
0.00117121
0.00116582
0.00116004
0.00115394
0.00114754
0.00114091
0.00113409
0.00112712
0.00112004
0.0011129
0.00110572
0.00109853
0.00109135
0.00108422
0.00107716
0.00107017
0.0010633
0.00105654
0.00104992
0.00104345
0.00103713
0.00103096
0.00102494
0.00101908
0.00101339
0.00100787
0.0010025
0.000997299
0.000992236
0.000987308
0.000982498
0.000977798
0.000973194
0.000968673
0.000964217
0.000959814
0.000955456
0.000951127
0.000946811
0.000942498
0.000938182
0.00093385
0.000929487
0.000925087
0.00092061
0.00091422
0.000906995
0.000899574
0.000892022
0.000884322
0.000876472
0.000868458
0.000860263
0.00085188
0.000843289
0.00083445
0.000825352
0.000815923
0.000806076
0.000795841
0.000783696
0.000752611
1.10943e-05
9.59713e-05
0.000187159
0.000258008
0.00031042
0.000348775
0.000377157
0.000398676
0.000415491
0.000429335
0.00044199
0.000454876
0.000468144
0.000481373
0.000493894
0.00050504
0.000514825
0.000523316
0.000531044
0.000538899
0.000546499
0.000556747
0.000576066
0.000598035
0.000620113
0.000642341
0.000664702
0.000687221
0.000709847
0.000732533
0.000755215
0.000777817
0.000800207
0.000822395
0.000844368
0.000866119
0.000887653
0.000908963
0.000930054
0.00095093
0.000971606
0.000992097
0.00101243
0.00103262
0.00105271
0.00107271
0.00109266
0.00111255
0.00113243
0.0011523
0.00117219
0.00119212
0.00121213
0.00123222
0.00125243
0.00127276
0.00129324
0.00131389
0.00133471
0.00135574
0.00137698
0.00139847
0.0014202
0.0014422
0.00146449
0.00148706
0.00150994
0.00153312
0.00155663
0.00158047
0.00160464
0.00162914
0.00165398
0.00167914
0.0017046
0.00173035
0.00175634
0.00178252
0.0018088
0.0018351
0.00186127
0.00188721
0.00191284
0.00193837
0.00196391
0.00198942
0.00201483
0.00204011
0.00206517
0.00208995
0.00211435
0.0021383
0.0021617
0.00218446
0.00220647
0.00222761
0.0022478
0.00226693
0.00228491
0.00230168
0.00231722
0.00233141
0.00234454
0.00235613
0.00236611
0.00237268
0.0023791
0.00238458
0.00238807
0.00238991
0.00239017
0.00238892
0.00238622
0.00238215
0.00237678
0.0023702
0.0023625
0.00235379
0.0023441
0.00233356
0.00232224
0.00231025
0.00229767
0.00228461
0.00227114
0.00225736
0.00224335
0.00222917
0.0022149
0.00220059
0.0021863
0.00217206
0.00215793
0.00214393
0.00213011
0.00211648
0.00210308
0.00208992
0.002077
0.00206434
0.00205192
0.00203978
0.0020279
0.00201628
0.00200492
0.00199381
0.00198291
0.0019722
0.00196166
0.00195127
0.00194099
0.00193081
0.00192068
0.00191058
0.0019005
0.0018904
0.00188026
0.00187005
0.00185977
0.00184937
0.00183885
0.00182812
0.00181692
0.00180404
0.00179014
0.0017758
0.00176115
0.0017462
0.00173096
0.00171543
0.00169958
0.0016834
0.00166687
0.00164991
0.00163248
0.00161449
0.0015958
0.00157607
0.00155273
0.00150369
1.63705e-05
0.000121154
0.000233869
0.000323354
0.000391023
0.000441469
0.000479367
0.00050851
0.000531878
0.000551832
0.000570229
0.000588368
0.000606832
0.000625987
0.000645853
0.000666371
0.000687323
0.000708911
0.000731547
0.000755753
0.000780013
0.000806084
0.000834978
0.000865373
0.000896401
0.000927825
0.000959492
0.000991283
0.00102313
0.00105506
0.00108703
0.00111907
0.00115095
0.00118259
0.00121395
0.00124502
0.00127578
0.00130624
0.00133638
0.00136623
0.00139581
0.00142513
0.00145422
0.00148311
0.00151184
0.00154042
0.0015689
0.0015973
0.00162565
0.00165398
0.00168232
0.00171071
0.00173917
0.00176773
0.00179641
0.00182525
0.00185427
0.0018835
0.00191288
0.00194249
0.00197235
0.00200249
0.00203291
0.00206364
0.00209469
0.00212607
0.00215779
0.00218986
0.00222228
0.00225505
0.00228819
0.00232167
0.0023555
0.00238965
0.00242411
0.00245884
0.0024938
0.00252893
0.00256418
0.00259946
0.0026347
0.00266981
0.00270484
0.00273985
0.00277485
0.00280979
0.00284462
0.00287925
0.0029136
0.00294757
0.00298106
0.00301396
0.00304614
0.0030775
0.00310789
0.00313719
0.00316527
0.00319201
0.00321728
0.00324098
0.003263
0.00328325
0.00330168
0.00331813
0.00333297
0.00334422
0.00335341
0.00336161
0.00336748
0.00337111
0.00337257
0.00337195
0.0033693
0.00336471
0.00335828
0.00335012
0.00334034
0.00332905
0.00331637
0.00330243
0.00328735
0.00327127
0.00325431
0.00323659
0.00321825
0.0031994
0.00318016
0.00316061
0.00314085
0.00312098
0.00310105
0.00308114
0.00306131
0.00304161
0.00302208
0.00300277
0.0029837
0.0029649
0.00294639
0.00292816
0.00291025
0.00289265
0.00287537
0.0028584
0.00284174
0.00282536
0.00280924
0.00279335
0.00277766
0.00276212
0.00274671
0.0027314
0.00271614
0.00270089
0.00268564
0.00267034
0.00265497
0.0026395
0.00262391
0.00260815
0.0025922
0.00257599
0.00255925
0.00254135
0.00252257
0.00250333
0.00248369
0.00246367
0.0024433
0.00242256
0.00240145
0.00237993
0.00235799
0.00233555
0.00231253
0.00228887
0.00226442
0.00223865
0.00220857
0.0021541
2.15013e-05
0.00014305
0.00027444
0.000380459
0.000462727
0.000525498
0.000573893
0.000612161
0.000643695
0.000671156
0.000696575
0.000721407
0.000746579
0.000772551
0.000799519
0.000827575
0.000856756
0.000887184
0.000918988
0.000952186
0.000986541
0.00102221
0.00105921
0.0010972
0.00113588
0.00117502
0.00121451
0.00125425
0.00129411
0.00133397
0.00137371
0.00141323
0.00145246
0.0014914
0.00153003
0.00156832
0.00160627
0.00164387
0.00168111
0.00171799
0.00175453
0.00179076
0.00182673
0.00186245
0.00189796
0.00193329
0.00196847
0.00200354
0.00203853
0.00207347
0.0021084
0.00214334
0.00217835
0.00221343
0.00224863
0.00228398
0.00231951
0.00235526
0.00239115
0.00242725
0.00246359
0.00250019
0.00253706
0.00257424
0.00261171
0.0026495
0.00268762
0.00272606
0.00276484
0.00280396
0.0028434
0.00288317
0.00292325
0.00296363
0.00300429
0.0030452
0.00308632
0.00312762
0.00316908
0.00321062
0.00325219
0.00329376
0.00333535
0.00337696
0.00341857
0.00346012
0.00350155
0.00354276
0.00358368
0.00362419
0.00366419
0.00370354
0.00374213
0.00377981
0.00381646
0.00385191
0.00388603
0.00391868
0.00394969
0.00397894
0.00400629
0.0040316
0.00405476
0.00407563
0.00409422
0.00411059
0.00412355
0.00413421
0.00414297
0.00414908
0.00415262
0.00415365
0.00415224
0.00414847
0.00414242
0.00413422
0.00412398
0.00411184
0.00409794
0.00408242
0.00406543
0.00404712
0.00402764
0.00400715
0.00398579
0.0039637
0.003941
0.00391782
0.00389428
0.00387047
0.00384648
0.00382241
0.00379833
0.0037743
0.00375039
0.00372663
0.00370308
0.00367977
0.00365672
0.00363396
0.0036115
0.00358936
0.00356755
0.00354607
0.0035249
0.00350404
0.00348346
0.00346312
0.003443
0.00342307
0.00340328
0.00338359
0.00336398
0.0033444
0.00332481
0.00330519
0.00328551
0.00326573
0.00324582
0.00322577
0.00320554
0.00318505
0.00316414
0.00314245
0.00311999
0.00309702
0.00307362
0.00304981
0.00302562
0.00300104
0.00297607
0.00295069
0.00292486
0.00289856
0.00287176
0.0028445
0.00281653
0.00278728
0.00275385
0.00269973
2.62729e-05
0.000161661
0.000309173
0.00043013
0.000526212
0.000601171
0.00066033
0.000708182
0.000748349
0.000783672
0.00081631
0.00084784
0.000879335
0.000911465
0.000944609
0.000978969
0.00101465
0.00105171
0.00109016
0.00112995
0.00117096
0.00121311
0.00125627
0.00130025
0.00134489
0.00138999
0.00143543
0.00148108
0.0015268
0.00157249
0.00161804
0.00166338
0.00170843
0.00175317
0.00179757
0.0018416
0.00188524
0.00192851
0.00197138
0.00201389
0.00205605
0.00209786
0.00213935
0.00218053
0.00222145
0.00226213
0.0023026
0.00234291
0.00238307
0.00242314
0.00246314
0.00250311
0.00254307
0.00258306
0.00262311
0.00266324
0.00270348
0.00274383
0.00278432
0.00282498
0.00286583
0.00290689
0.00294818
0.00298972
0.0030315
0.00307355
0.00311586
0.00315845
0.00320132
0.00324446
0.00328788
0.00333157
0.00337553
0.00341973
0.00346417
0.00350884
0.0035537
0.00359875
0.00364396
0.00368933
0.00373483
0.00378047
0.0038262
0.00387199
0.00391782
0.00396363
0.00400936
0.00405492
0.00410023
0.0041452
0.00418971
0.00423364
0.00427687
0.00431925
0.00436065
0.0044009
0.00443986
0.00447736
0.00451323
0.00454732
0.00457947
0.00460952
0.00463732
0.00466274
0.00468565
0.00470609
0.00472407
0.00473862
0.00475058
0.00476012
0.00476682
0.0047707
0.00477182
0.00477024
0.00476603
0.0047593
0.00475017
0.00473877
0.00472526
0.00470979
0.00469253
0.00467362
0.00465325
0.00463157
0.00460875
0.00458492
0.00456025
0.00453487
0.00450891
0.00448248
0.00445571
0.00442867
0.00440148
0.0043742
0.00434691
0.00431967
0.00429254
0.00426556
0.00423878
0.00421222
0.00418591
0.00415989
0.00413416
0.00410874
0.00408363
0.0040588
0.00403426
0.00400997
0.00398591
0.00396205
0.00393836
0.00391481
0.00389135
0.00386796
0.0038446
0.00382124
0.00379785
0.00377441
0.00375089
0.00372728
0.00370353
0.0036796
0.00365537
0.00363065
0.00360541
0.00357971
0.00355363
0.00352717
0.00350037
0.00347321
0.00344568
0.00341777
0.00338946
0.00336072
0.00333155
0.00330188
0.00327166
0.00324038
0.00320547
0.00315435
3.0533e-05
0.000176991
0.000338096
0.000472528
0.000581199
0.000667859
0.000737539
0.000794853
0.000843543
0.000886563
0.000926181
0.000964079
0.00100145
0.00103911
0.00107756
0.0011171
0.00115788
0.00119999
0.00124341
0.00128808
0.00133392
0.00138079
0.00142857
0.00147711
0.00152624
0.00157583
0.00162572
0.0016758
0.00172593
0.00177601
0.00182595
0.00187566
0.00192509
0.00197418
0.00202289
0.00207121
0.00211912
0.0021666
0.00221366
0.00226031
0.00230654
0.00235238
0.00239785
0.00244296
0.00248776
0.00253225
0.00257649
0.0026205
0.00266431
0.00270796
0.00275148
0.0027949
0.00283826
0.00288159
0.0029249
0.00296823
0.0030116
0.00305504
0.00309855
0.00314218
0.00318593
0.00322983
0.0032739
0.00331814
0.00336257
0.00340719
0.00345202
0.00349707
0.00354233
0.00358781
0.00363351
0.00367943
0.00372558
0.00377194
0.00381853
0.00386532
0.00391231
0.00395951
0.00400691
0.0040545
0.00410228
0.00415023
0.00419835
0.0042466
0.00429496
0.00434339
0.00439183
0.00444022
0.00448849
0.00453656
0.00458431
0.00463164
0.00467844
0.00472457
0.00476988
0.00481422
0.00485743
0.00489933
0.00493976
0.00497852
0.00501545
0.00505035
0.00508306
0.00511342
0.00514127
0.00516649
0.0051892
0.00520911
0.00522556
0.00523927
0.00525019
0.00525808
0.00526295
0.00526481
0.00526372
0.00525977
0.00525307
0.00524375
0.00523196
0.00521786
0.00520162
0.0051834
0.00516338
0.00514173
0.00511862
0.00509422
0.00506867
0.00504214
0.00501476
0.00498668
0.00495801
0.00492887
0.00489936
0.00486959
0.00483963
0.00480956
0.00477946
0.00474938
0.00471938
0.0046895
0.0046598
0.0046303
0.00460104
0.00457203
0.00454328
0.0045148
0.00448659
0.00445863
0.00443091
0.00440341
0.0043761
0.00434896
0.00432196
0.00429508
0.00426828
0.00424155
0.00421485
0.00418817
0.00416149
0.00413479
0.00410804
0.00408122
0.00405424
0.00402699
0.00399941
0.00397153
0.00394336
0.00391491
0.00388618
0.00385717
0.00382786
0.00379824
0.00376831
0.00373804
0.00370745
0.00367653
0.00364527
0.00361326
0.00357834
0.00353112
3.4198e-05
0.000189214
0.000361502
0.000507917
0.000627835
0.000725345
0.000804984
0.000871337
0.000928178
0.000978521
0.00102471
0.00106851
0.00111123
0.00115377
0.00119674
0.00124054
0.00128537
0.00133136
0.00137852
0.00142682
0.00147617
0.00152648
0.0015776
0.00162942
0.00168179
0.00173456
0.00178762
0.00184084
0.0018941
0.0019473
0.00200034
0.00205314
0.00210564
0.00215777
0.0022095
0.00226081
0.00231166
0.00236205
0.00241197
0.00246144
0.00251044
0.00255901
0.00260715
0.00265489
0.00270226
0.00274928
0.00279597
0.00284238
0.00288854
0.00293447
0.00298021
0.00302579
0.00307124
0.00311659
0.00316186
0.00320709
0.00325228
0.00329748
0.0033427
0.00338795
0.00343327
0.00347867
0.00352416
0.00356976
0.00361548
0.00366134
0.00370733
0.00375347
0.00379978
0.00384625
0.00389289
0.00393972
0.00398673
0.00403394
0.00408135
0.00412897
0.00417681
0.00422487
0.00427316
0.0043217
0.00437048
0.00441951
0.00446879
0.0045183
0.00456804
0.00461798
0.00466808
0.00471831
0.00476861
0.00481891
0.00486914
0.00491919
0.00496896
0.00501832
0.00506715
0.00511529
0.00516256
0.0052088
0.00525381
0.00529739
0.00533935
0.00537948
0.00541758
0.00545345
0.00548691
0.00551779
0.00554595
0.00557153
0.0055939
0.00561292
0.00562902
0.00564202
0.00565175
0.00565821
0.0056614
0.00566139
0.00565827
0.00565216
0.0056432
0.00563157
0.00561741
0.00560091
0.00558224
0.00556157
0.0055391
0.00551498
0.0054894
0.00546251
0.00543446
0.00540542
0.00537552
0.00534488
0.00531363
0.00528188
0.00524973
0.00521728
0.00518461
0.00515179
0.00511891
0.00508601
0.00505317
0.00502043
0.00498783
0.00495542
0.00492321
0.00489122
0.00485948
0.00482797
0.00479671
0.00476568
0.00473487
0.00470428
0.00467388
0.00464366
0.00461359
0.00458367
0.00455388
0.0045242
0.00449462
0.00446512
0.0044357
0.00440632
0.00437694
0.00434749
0.00431792
0.0042882
0.00425834
0.00422833
0.00419817
0.00416783
0.0041373
0.00410658
0.00407566
0.00404454
0.00401325
0.00398183
0.00395031
0.00391838
0.0038843
0.00384105
3.7237e-05
0.0001986
0.000379816
0.000536455
0.000666357
0.000773715
0.000862559
0.000937353
0.00100183
0.00105901
0.00111129
0.00116049
0.00120799
0.00125478
0.00130157
0.00134882
0.00139682
0.00144572
0.0014956
0.00154646
0.00159824
0.00165086
0.00170421
0.00175817
0.00181261
0.00186741
0.00192246
0.00197763
0.00203284
0.00208798
0.00214296
0.00219768
0.00225206
0.00230603
0.00235956
0.00241262
0.00246519
0.00251726
0.00256881
0.00261987
0.00267042
0.00272049
0.00277009
0.00281924
0.00286798
0.00291631
0.00296428
0.00301191
0.00305923
0.00310628
0.00315308
0.00319966
0.00324605
0.00329229
0.00333839
0.00338439
0.0034303
0.00347615
0.00352196
0.00356775
0.00361355
0.00365936
0.00370521
0.0037511
0.00379706
0.0038431
0.00388922
0.00393544
0.00398177
0.00402823
0.00407482
0.00412157
0.00416848
0.00421557
0.00426286
0.00431037
0.00435811
0.00440611
0.00445439
0.00450297
0.00455187
0.00460111
0.0046507
0.00470066
0.004751
0.00480171
0.00485278
0.0049042
0.00495593
0.00500794
0.00506016
0.00511252
0.00516494
0.0052173
0.00526948
0.00532133
0.00537269
0.00542336
0.00547316
0.00552186
0.00556925
0.00561508
0.00565912
0.00570115
0.00574093
0.00577825
0.0058129
0.00584483
0.00587374
0.00589936
0.00592169
0.00594084
0.00595653
0.00596868
0.00597722
0.0059822
0.00598369
0.0059818
0.00597667
0.00596844
0.00595729
0.00594339
0.00592691
0.00590803
0.00588696
0.00586385
0.00583891
0.0058123
0.00578419
0.00575474
0.00572412
0.00569246
0.0056599
0.00562657
0.00559259
0.00555807
0.00552312
0.00548782
0.00545227
0.00541655
0.00538073
0.00534488
0.00530906
0.00527333
0.00523773
0.00520229
0.00516705
0.00513203
0.00509725
0.00506272
0.00502844
0.00499442
0.00496066
0.00492714
0.00489387
0.00486083
0.00482804
0.00479547
0.00476312
0.004731
0.00469908
0.00466736
0.00463581
0.00460438
0.00457303
0.00454173
0.00451047
0.00447922
0.00444797
0.00441669
0.00438537
0.004354
0.00432258
0.00429114
0.0042597
0.00422834
0.00419714
0.00416585
0.00413314
0.00409371
3.96535e-05
0.000205447
0.000393496
0.000558581
0.000697132
0.000813212
0.000910361
0.000992853
0.00106433
0.00112777
0.00118557
0.00123961
0.00129131
0.00134173
0.00139166
0.00144162
0.00149196
0.00154289
0.0015945
0.00164695
0.00170019
0.00175413
0.00180866
0.0018637
0.00191912
0.00197483
0.00203073
0.00208672
0.00214273
0.0021987
0.0022546
0.00231016
0.0023653
0.00241997
0.00247414
0.00252778
0.00258088
0.00263343
0.00268542
0.00273688
0.00278779
0.00283819
0.00288808
0.00293749
0.00298645
0.00303497
0.00308309
0.00313085
0.00317825
0.00322535
0.00327216
0.00331872
0.00336505
0.00341118
0.00345714
0.00350296
0.00354865
0.00359423
0.00363974
0.00368519
0.0037306
0.00377598
0.00382136
0.00386675
0.00391215
0.0039576
0.00400309
0.00404865
0.00409429
0.00414003
0.00418588
0.00423187
0.00427801
0.00432433
0.00437085
0.00441761
0.00446463
0.00451195
0.0045596
0.00460761
0.00465603
0.0047049
0.00475425
0.00480411
0.00485451
0.00490549
0.00495705
0.00500921
0.00506198
0.00511533
0.00516923
0.00522364
0.0052785
0.00533371
0.00538917
0.00544473
0.00550025
0.00555552
0.00561033
0.00566447
0.00571768
0.00576969
0.00582024
0.00586905
0.00591584
0.00596035
0.00600233
0.00604157
0.00607781
0.00611085
0.00614051
0.00616684
0.00618951
0.00620842
0.00622334
0.0062343
0.00624138
0.00624466
0.00624426
0.00624033
0.00623304
0.00622254
0.00620902
0.00619267
0.00617368
0.00615224
0.00612855
0.00610279
0.00607514
0.00604579
0.0060149
0.00598263
0.00594915
0.00591459
0.00587909
0.00584278
0.00580579
0.00576823
0.0057302
0.0056918
0.00565313
0.00561427
0.00557531
0.00553632
0.00549736
0.0054585
0.00541977
0.00538124
0.00534293
0.00530488
0.00526711
0.00522964
0.00519249
0.00515567
0.00511919
0.00508306
0.00504728
0.00501186
0.00497681
0.00494214
0.00490784
0.0048739
0.00484032
0.00480706
0.0047741
0.0047414
0.00470894
0.0046767
0.00464463
0.00461273
0.00458096
0.00454931
0.00451779
0.00448643
0.00445528
0.00442444
0.00439399
0.00436377
0.00433276
0.00429698
4.14749e-05
0.000210056
0.000403011
0.000574786
0.000720586
0.000844149
0.000948567
0.00103787
0.00111556
0.00118456
0.00124723
0.00130546
0.00136071
0.00141409
0.00146643
0.00151839
0.00157034
0.00162248
0.00167488
0.00172796
0.00178162
0.00183583
0.00189052
0.0019456
0.00200099
0.00205659
0.00211232
0.0021681
0.00222385
0.00227953
0.00233516
0.00239047
0.00244528
0.00249952
0.00255317
0.00260622
0.00265866
0.00271051
0.00276176
0.00281243
0.00286254
0.00291211
0.00296115
0.0030097
0.00305777
0.00310541
0.00315264
0.00319949
0.00324598
0.00329216
0.00333805
0.00338367
0.00342906
0.00347424
0.00351924
0.00356409
0.0036088
0.00365339
0.0036979
0.00374234
0.00378672
0.00383106
0.00387538
0.0039197
0.00396402
0.00400836
0.00405274
0.00409718
0.00414168
0.00418627
0.00423096
0.00427579
0.00432077
0.00436594
0.00441132
0.00445696
0.00450289
0.00454916
0.00459581
0.0046429
0.00469048
0.00473861
0.00478734
0.00483674
0.00488685
0.00493774
0.00498946
0.00504204
0.00509552
0.00514993
0.00520525
0.00526149
0.0053186
0.00537652
0.00543517
0.00549442
0.00555413
0.0056141
0.00567412
0.00573395
0.00579331
0.00585192
0.00590945
0.00596559
0.00602001
0.00607239
0.00612243
0.00616982
0.00621428
0.00625559
0.00629344
0.00632791
0.00635863
0.00638528
0.00640765
0.00642557
0.00643917
0.00644854
0.00645376
0.00645499
0.00645237
0.00644606
0.00643625
0.00642314
0.00640691
0.00638777
0.00636592
0.00634157
0.00631491
0.00628613
0.00625543
0.00622297
0.00618894
0.0061535
0.0061168
0.00607899
0.00604022
0.00600061
0.00596029
0.00591939
0.00587802
0.00583628
0.00579427
0.00575209
0.00570983
0.00566757
0.00562539
0.00558334
0.0055415
0.00549992
0.00545863
0.00541769
0.00537714
0.00533699
0.00529728
0.00525804
0.00521928
0.00518103
0.00514331
0.00510613
0.0050695
0.00503343
0.00499792
0.00496294
0.00492849
0.00489454
0.00486105
0.004828
0.00479535
0.00476307
0.00473112
0.00469949
0.0046682
0.00463728
0.00460678
0.00457681
0.00454746
0.00451862
0.00448958
0.00445731
4.27368e-05
0.000212715
0.000408815
0.000585554
0.000737137
0.000866832
0.000977342
0.00107242
0.00115539
0.00122908
0.00129581
0.00135745
0.00141551
0.00147108
0.00152488
0.00157791
0.00163057
0.00168321
0.00173611
0.00178927
0.00184272
0.00189644
0.00195041
0.00200454
0.00205877
0.00211304
0.00216731
0.0022215
0.00227554
0.0023294
0.00238334
0.00243728
0.00249061
0.00254329
0.00259525
0.00264651
0.00269709
0.00274701
0.00279631
0.00284502
0.00289314
0.00294073
0.00298779
0.00303438
0.00308052
0.00312625
0.00317159
0.00321659
0.00326128
0.00330568
0.00334982
0.00339374
0.00343746
0.003481
0.0035244
0.00356767
0.00361085
0.00365394
0.00369697
0.00373995
0.00378291
0.00382585
0.00386878
0.00391173
0.00395471
0.00399771
0.00404077
0.00408389
0.00412708
0.00417037
0.00421377
0.00425731
0.00430102
0.00434492
0.00438904
0.00443344
0.00447816
0.00452325
0.00456876
0.00461477