/*--------------------------------*- C++ -*----------------------------------*\
  =========                 |
  \\      /  F ield         | OpenFOAM: The Open Source CFD Toolbox
   \\    /   O peration     | Website:  https://openfoam.org
    \\  /    A nd           | Version:  8
     \\/     M anipulation  |
\*---------------------------------------------------------------------------*/
FoamFile
{
    version     2.0;
    format      ascii;
    class       volScalarField;
    location    "130";
    object      p;
}
// * * * * * * * * * * * * * * * * * * * * * * * * * * * * * * * * * * * * * //

dimensions      [0 2 -2 0 0 0 0];

internalField   nonuniform List<scalar> 
12225
(
-1.95008
-4.13867
-5.23833
-5.5586
-5.73929
-5.9076
-6.03829
-6.13226
-6.20737
-6.27277
-6.33017
-6.38149
-6.42639
-6.46561
-6.49842
-6.51621
-6.53558
-6.44509
-5.11361
-5.88188
-6.04213
-5.94945
-5.93637
-6.00353
-6.08018
-6.14476
-6.20289
-6.2584
-6.31047
-6.35793
-6.40112
-6.43946
-6.4734
-6.49584
-6.52306
-6.51423
-5.51478
-5.4996
-5.62669
-5.70466
-5.799
-5.9185
-6.02479
-6.10853
-6.17889
-6.24238
-6.30004
-6.3517
-6.39849
-6.44012
-6.47789
-6.50758
-6.54426
-6.57157
-5.39282
-5.33581
-5.57712
-5.73505
-5.83624
-5.94176
-6.03856
-6.11753
-6.18487
-6.24619
-6.30246
-6.3535
-6.40023
-6.44266
-6.48224
-6.51772
-6.55974
-6.60631
-5.3825
-5.40685
-5.63463
-5.77579
-5.85888
-5.95026
-6.04063
-6.1173
-6.18353
-6.24409
-6.30012
-6.35145
-6.39893
-6.44291
-6.48497
-6.52553
-6.57193
-6.62677
-5.4405
-5.48936
-5.66336
-5.78688
-5.86789
-5.95507
-6.0423
-6.11782
-6.18356
-6.24376
-6.29969
-6.35136
-6.39957
-6.44497
-6.48912
-6.53326
-6.5824
-6.6398
-5.50088
-5.54504
-5.67997
-5.79593
-5.87918
-5.96271
-6.04587
-6.11959
-6.18457
-6.24424
-6.29993
-6.35183
-6.40066
-6.44725
-6.49305
-6.53954
-6.59009
-6.64723
-5.55448
-5.59204
-5.70177
-5.80971
-5.89225
-5.97128
-6.05
-6.12166
-6.18574
-6.24482
-6.30022
-6.35227
-6.40162
-6.44916
-6.49615
-6.54398
-6.59485
-6.6503
-5.60428
-5.63734
-5.72804
-5.82568
-5.90533
-5.98018
-6.05473
-6.12413
-6.18712
-6.24551
-6.30053
-6.35259
-6.40228
-6.45044
-6.49812
-6.54646
-6.59683
-6.64996
-5.65142
-5.6806
-5.75593
-5.84284
-5.91867
-5.98975
-6.06034
-6.12724
-6.1889
-6.24643
-6.30091
-6.3528
-6.40258
-6.451
-6.49889
-6.54707
-6.59638
-6.647
-5.69583
-5.72126
-5.78429
-5.8612
-5.93255
-5.99998
-6.06677
-6.13099
-6.1911
-6.24762
-6.3014
-6.35289
-6.40251
-6.45083
-6.49848
-6.54603
-6.59392
-6.64205
-5.73396
-5.75625
-5.8103
-5.8789
-5.94574
-6.0098
-6.07329
-6.13499
-6.1935
-6.24894
-6.30193
-6.35286
-6.40208
-6.45002
-6.49713
-6.54379
-6.59022
-6.63617
-5.76919
-5.78886
-5.83557
-5.89676
-5.95903
-6.01977
-6.08013
-6.13933
-6.19615
-6.2504
-6.30249
-6.35271
-6.40134
-6.44868
-6.49504
-6.54063
-6.58555
-6.62949
-5.80613
-5.82329
-5.86321
-5.91709
-5.97425
-6.03125
-6.08824
-6.14464
-6.19943
-6.2522
-6.3031
-6.35234
-6.40008
-6.4465
-6.49177
-6.53599
-6.57915
-6.62099
-5.84355
-5.85831
-5.89225
-5.93926
-5.99106
-6.04398
-6.09741
-6.1508
-6.20324
-6.25421
-6.30362
-6.35155
-6.39806
-6.44322
-6.48707
-6.52963
-6.57086
-6.61052
-5.87947
-5.89209
-5.92101
-5.96195
-6.00852
-6.05727
-6.10711
-6.15738
-6.20726
-6.25613
-6.30376
-6.35005
-6.39501
-6.43856
-6.48072
-6.5214
-6.5606
-6.5981
-5.91101
-5.92189
-5.94688
-5.98288
-6.02484
-6.0697
-6.11617
-6.16342
-6.21069
-6.25733
-6.30295
-6.34739
-6.39052
-6.43225
-6.47251
-6.51122
-6.54833
-6.58377
-5.93379
-5.94347
-5.96581
-5.99838
-6.03698
-6.07883
-6.12256
-6.1673
-6.21226
-6.2568
-6.30047
-6.34301
-6.38426
-6.42411
-6.46244
-6.4992
-6.53432
-6.56781
-5.94091
-5.95011
-5.97141
-6.0027
-6.03998
-6.08049
-6.12285
-6.16618
-6.2097
-6.25277
-6.29494
-6.33593
-6.37557
-6.41376
-6.45038
-6.48543
-6.51882
-6.55064
-5.92503
-5.93484
-5.95753
-5.99075
-6.02993
-6.07185
-6.11508
-6.15893
-6.20267
-6.24569
-6.2875
-6.32796
-6.36686
-6.4042
-6.43985
-6.47387
-6.50617
-6.53691
-5.89833
-5.90916
-5.93452
-5.97167
-6.01461
-6.05933
-6.10467
-6.15016
-6.19511
-6.2388
-6.28095
-6.32143
-6.36022
-6.39722
-6.43247
-6.46594
-6.49773
-6.52784
-5.86321
-5.87506
-5.90451
-5.94821
-5.99665
-6.04482
-6.09284
-6.1408
-6.1876
-6.23246
-6.27527
-6.31612
-6.35501
-6.39195
-6.42698
-6.46015
-6.49157
-6.52133
-5.82273
-5.83466
-5.86919
-5.92258
-5.97828
-6.03041
-6.08148
-6.13212
-6.18085
-6.22695
-6.27059
-6.31199
-6.35117
-6.3882
-6.42314
-6.4562
-6.4874
-6.51694
-5.77907
-5.79008
-5.83193
-5.89646
-5.95878
-6.01562
-6.07141
-6.12544
-6.17589
-6.2229
-6.26719
-6.30903
-6.34842
-6.38545
-6.42034
-6.45324
-6.48429
-6.5136
-5.73217
-5.73771
-5.80044
-5.87876
-5.94083
-5.99923
-6.06053
-6.11905
-6.17173
-6.21994
-6.2651
-6.30748
-6.3471
-6.38417
-6.41898
-6.45176
-6.48267
-6.51185
-5.68889
-5.65259
-5.7622
-5.87328
-5.93565
-5.99107
-6.05343
-6.11332
-6.16669
-6.21555
-6.26138
-6.30427
-6.34419
-6.38143
-6.41631
-6.44911
-6.48001
-6.50915
-5.70313
-5.5442
-5.6732
-5.82738
-5.9176
-5.9891
-6.05817
-6.11923
-6.17217
-6.22057
-6.26595
-6.30827
-6.3476
-6.38426
-6.41858
-6.45086
-6.48131
-6.51016
-5.82633
-5.64597
-5.66022
-5.73245
-5.82093
-5.92028
-6.01111
-6.08503
-6.14687
-6.20213
-6.25252
-6.29834
-6.34017
-6.37865
-6.41427
-6.44749
-6.47877
-6.50864
-5.53371
-6.12482
-6.21373
-6.08957
-6.03535
-6.06264
-6.10976
-6.15314
-6.19483
-6.23712
-6.2787
-6.31807
-6.35505
-6.38976
-6.42225
-6.45268
-6.48125
-6.5097
-2.54439
-4.30772
-5.31248
-5.61172
-5.761
-5.90476
-6.01893
-6.10003
-6.16438
-6.22135
-6.27269
-6.31878
-6.36047
-6.39867
-6.43389
-6.46591
-6.49457
-6.51808
-7.61856
-7.6181
-7.61871
-7.62123
-7.62501
-7.62968
-7.6351
-7.6412
-7.64791
-7.65515
-7.66236
-7.66849
-7.67434
-7.68248
-7.69354
-7.70645
-7.72027
-7.73405
-7.74797
-7.76398
-7.78217
-7.79986
-7.81745
-7.83617
-7.85725
-7.88075
-7.90562
-7.93172
-7.95886
-7.98691
-8.01565
-8.04497
-8.07467
-8.10463
-8.13468
-8.16471
-8.19458
-8.2242
-8.25345
-8.28225
-8.31049
-8.3381
-8.36496
-8.39103
-8.41619
-8.44038
-8.46348
-8.48544
-8.50613
-8.52547
-8.54331
-8.55957
-8.57407
-8.5867
-8.59729
-8.60567
-8.61167
-8.6151
-8.61574
-8.61339
-8.60779
-8.5987
-8.58586
-8.56899
-8.54779
-8.52194
-8.49113
-8.45499
-8.41318
-8.36527
-8.3109
-8.24964
-8.18113
-8.10496
-8.02088
-7.92862
-7.82804
-7.71866
-7.6
-7.47138
-7.33239
-7.18249
-7.02158
-6.84941
-6.66608
-6.47135
-6.26541
-6.04828
-5.82034
-5.58182
-5.33278
-5.07371
-4.80516
-4.52786
-4.24253
-3.95006
-3.65135
-3.34744
-3.03935
-2.72823
-2.41516
-2.10134
-1.78795
-1.47622
-1.16728
-0.862242
-0.562105
-0.267774
0.0199223
0.300291
0.572709
0.836695
1.09184
1.33787
1.57457
1.80188
2.01978
2.22841
2.42799
2.61879
2.80112
2.97529
3.14172
3.30086
3.45325
3.5994
3.73993
3.87538
4.00639
4.13349
4.25738
4.37857
4.49776
4.61546
4.73235
4.84891
4.96581
5.08356
5.20282
5.32399
5.44752
5.57386
5.70346
5.8368
5.97427
6.11623
6.26295
6.41471
6.5717
6.7341
6.902
7.0755
7.2546
7.43928
7.62944
7.825
8.02577
8.23159
8.44224
8.65746
8.87697
9.10056
9.32806
9.55889
9.79209
10.027
10.2635
10.5012
10.7394
10.9777
11.2153
11.4515
11.6857
11.9172
12.1455
12.3703
12.5927
12.8132
13.0492
13.2889
-7.61446
-7.61514
-7.61627
-7.61827
-7.62055
-7.62303
-7.62595
-7.62946
-7.63348
-7.63778
-7.64193
-7.64603
-7.65187
-7.66023
-7.66932
-7.67806
-7.6863
-7.69464
-7.70479
-7.71795
-7.73263
-7.74979
-7.77133
-7.79584
-7.82106
-7.84613
-7.87182
-7.89837
-7.92579
-7.95397
-7.98279
-8.01211
-8.04177
-8.07164
-8.10157
-8.13145
-8.16115
-8.19058
-8.21962
-8.2482
-8.27622
-8.30361
-8.33027
-8.35613
-8.38111
-8.40514
-8.42812
-8.44997
-8.47059
-8.48989
-8.50776
-8.52408
-8.53872
-8.55154
-8.56238
-8.5711
-8.57752
-8.58144
-8.58267
-8.581
-8.57619
-8.568
-8.55618
-8.54045
-8.52052
-8.49609
-8.46685
-8.43246
-8.39257
-8.3468
-8.29479
-8.23614
-8.17046
-8.09736
-8.01648
-7.92741
-7.82974
-7.723
-7.60684
-7.48083
-7.3447
-7.19816
-7.04106
-6.87311
-6.69418
-6.50406
-6.30275
-6.09031
-5.86706
-5.63307
-5.38855
-5.13385
-4.86951
-4.59618
-4.31457
-4.0255
-3.72984
-3.42857
-3.1227
-2.81333
-2.50155
-2.18854
-1.87547
-1.56358
-1.25404
-0.947957
-0.646315
-0.350095
-0.0601217
0.222829
0.498128
0.765223
1.02369
1.27319
1.5135
1.74448
1.96607
2.17838
2.38157
2.57589
2.7616
2.93903
3.10855
3.27061
3.42569
3.57434
3.71711
3.85459
3.98735
4.11601
4.24115
4.3634
4.48336
4.60165
4.71887
4.83557
4.95238
5.0699
5.1887
5.30928
5.43204
5.55747
5.68602
5.8182
5.9544
6.095
6.2403
6.39059
6.54608
6.70698
6.87338
7.0454
7.22303
7.4063
7.5951
7.78935
7.98888
8.19351
8.40306
8.6173
8.83588
9.05852
9.28496
9.51457
9.74653
9.98043
10.216
10.4527
10.6902
10.9278
11.165
11.4009
11.6349
11.8665
12.0953
12.3211
12.5452
12.7676
13.0052
13.2346
-7.60389
-7.60696
-7.61094
-7.61451
-7.61713
-7.61923
-7.6213
-7.62359
-7.62618
-7.629
-7.63199
-7.63541
-7.64014
-7.6468
-7.65474
-7.66329
-7.67226
-7.68211
-7.6937
-7.70735
-7.72221
-7.73819
-7.75637
-7.77698
-7.79953
-7.82335
-7.84824
-7.87411
-7.90084
-7.92829
-7.95632
-7.9848
-8.01358
-8.04254
-8.07157
-8.10057
-8.1294
-8.158
-8.18626
-8.2141
-8.24142
-8.26816
-8.29423
-8.31956
-8.34406
-8.36767
-8.39028
-8.41183
-8.43221
-8.45133
-8.46908
-8.48534
-8.5
-8.5129
-8.52392
-8.53289
-8.53963
-8.54398
-8.54573
-8.54468
-8.5406
-8.53325
-8.52239
-8.50775
-8.48904
-8.46598
-8.43825
-8.40552
-8.36747
-8.32373
-8.27394
-8.21774
-8.15474
-8.08457
-8.00686
-7.92119
-7.82711
-7.72416
-7.61189
-7.48993
-7.358
-7.21586
-7.0633
-6.90011
-6.7261
-6.54107
-6.34494
-6.1378
-5.91978
-5.69105
-5.45168
-5.20203
-4.94265
-4.67403
-4.39691
-4.11197
-3.82013
-3.52222
-3.21931
-2.91238
-2.60257
-2.291
-1.97883
-1.6673
-1.35754
-1.05072
-0.747831
-0.449884
-0.157712
0.127841
0.406125
0.676511
0.93855
1.19182
1.43609
1.67113
1.89688
2.11336
2.3207
2.51908
2.70873
2.88997
3.0631
3.22858
3.38682
3.53841
3.68381
3.82365
3.95845
4.08887
4.21542
4.33882
4.45958
4.57841
4.69583
4.8125
4.929
5.04596
5.16396
5.28348
5.40501
5.52899
5.65597
5.78638
5.92068
6.05923
6.2024
6.35045
6.50368
6.66223
6.82631
6.99597
7.1713
7.35226
7.53882
7.73089
7.92835
8.13098
8.3386
8.55105
8.76803
8.98921
9.21424
9.44259
9.67357
9.90673
10.1417
10.378
10.6152
10.8527
11.0899
11.326
11.5606
11.7931
12.0231
12.2506
12.4772
12.7017
12.9402
13.1533
-7.58685
-7.59271
-7.60065
-7.60692
-7.61101
-7.61379
-7.61595
-7.61789
-7.61985
-7.62199
-7.62448
-7.62759
-7.63175
-7.63736
-7.64437
-7.6526
-7.66195
-7.67259
-7.68488
-7.69901
-7.71474
-7.73176
-7.7502
-7.77022
-7.79177
-7.81464
-7.83865
-7.86367
-7.88954
-7.91614
-7.94332
-7.97095
-7.99888
-8.02701
-8.05523
-8.08342
-8.1115
-8.13936
-8.16693
-8.19412
-8.22084
-8.24704
-8.27261
-8.2975
-8.32162
-8.3449
-8.36725
-8.3886
-8.40884
-8.42789
-8.44563
-8.46195
-8.47674
-8.48985
-8.50114
-8.51047
-8.51766
-8.52253
-8.52489
-8.52454
-8.52125
-8.5148
-8.50494
-8.4914
-8.4739
-8.45216
-8.42587
-8.3947
-8.35833
-8.3164
-8.26855
-8.21442
-8.15363
-8.0858
-8.01055
-7.92746
-7.83611
-7.73605
-7.62686
-7.50816
-7.37963
-7.241
-7.09205
-6.93253
-6.76225
-6.58103
-6.38875
-6.18544
-5.97127
-5.74621
-5.51048
-5.26438
-5.00836
-4.74297
-4.4688
-4.18659
-3.89713
-3.60133
-3.30014
-2.99458
-2.68574
-2.37477
-2.06284
-1.75113
-1.44081
-1.133
-0.828767
-0.529113
-0.234936
0.0529367
0.333781
0.606967
0.871971
1.12836
1.37583
1.61417
1.84325
2.06306
2.27368
2.47527
2.66803
2.85224
3.02821
3.19635
3.35709
3.51096
3.65843
3.80011
3.93653
4.06831
4.19601
4.3203
4.44172
4.56097
4.6786
4.79526
4.91157
5.02813
5.14552
5.26425
5.38482
5.50771
5.63347
5.76253
5.89537
6.03235
6.17385
6.32016
6.47157
6.62825
6.79042
6.95814
7.13153
7.31056
7.49518
7.68531
7.88087
8.08167
8.28752
8.49818
8.71336
8.93273
9.15597
9.38261
9.61211
9.84403
10.0779
10.3134
10.5498
10.7867
11.0235
11.2594
11.494
11.7268
11.9574
12.1856
12.413
12.6375
12.8732
13.0708
-7.56761
-7.57632
-7.58862
-7.5981
-7.60426
-7.60843
-7.61152
-7.61406
-7.61639
-7.61885
-7.62171
-7.62525
-7.62978
-7.63555
-7.64265
-7.65111
-7.66093
-7.67221
-7.68505
-7.69954
-7.71559
-7.7331
-7.75195
-7.77211
-7.79348
-7.81599
-7.83951
-7.86394
-7.88916
-7.91504
-7.94146
-7.96831
-7.99546
-8.02283
-8.05028
-8.07774
-8.1051
-8.1323
-8.15923
-8.18584
-8.21203
-8.23774
-8.26289
-8.28742
-8.31124
-8.33427
-8.35645
-8.37768
-8.39787
-8.41692
-8.43474
-8.45121
-8.4662
-8.4796
-8.49124
-8.50099
-8.50868
-8.51413
-8.51715
-8.51754
-8.51508
-8.50953
-8.50067
-8.48821
-8.4719
-8.45143
-8.4265
-8.3968
-8.36198
-8.3217
-8.2756
-8.22331
-8.16445
-8.09863
-8.02546
-7.94453
-7.85542
-7.75771
-7.65097
-7.53481
-7.40889
-7.27289
-7.12655
-6.9696
-6.80186
-6.62312
-6.43325
-6.23229
-6.02022
-5.79729
-5.56337
-5.319
-5.06446
-4.80037
-4.52722
-4.24582
-3.95686
-3.66133
-3.36009
-3.05422
-2.74482
-2.43302
-2.12008
-1.80712
-1.49538
-1.1859
-0.879852
-0.578195
-0.281946
0.00813011
0.2912
0.566695
0.833988
1.09269
1.34241
1.58297
1.81417
2.03603
2.24859
2.45198
2.64641
2.83212
3.00947
3.17879
3.3406
3.49531
3.64354
3.78572
3.92256
4.05452
4.18233
4.30647
4.42771
4.54653
4.66369
4.77972
4.89532
5.01105
5.12749
5.2452
5.36463
5.4864
5.61094
5.7388
5.87035
6.00604
6.1462
6.29119
6.4412
6.59655
6.75733
6.92369
7.09566
7.27332
7.45657
7.64538
7.83959
8.03906
8.24355
8.45286
8.66668
8.88469
9.10656
9.33187
9.56016
9.79102
10.024
10.2587
10.4945
10.7309
10.9673
11.203
11.4376
11.6705
11.9013
12.1297
12.3567
12.5797
12.8109
12.9953
-7.55031
-7.56156
-7.57769
-7.59018
-7.59855
-7.60448
-7.60901
-7.61274
-7.61611
-7.61954
-7.62334
-7.62782
-7.63322
-7.63975
-7.64752
-7.65662
-7.6671
-7.67901
-7.69238
-7.70722
-7.72348
-7.7411
-7.75999
-7.78008
-7.80126
-7.82346
-7.84657
-7.8705
-7.89515
-7.92042
-7.94619
-7.97238
-7.99887
-8.02556
-8.05237
-8.07921
-8.10598
-8.13263
-8.15905
-8.18519
-8.21097
-8.23632
-8.26117
-8.28545
-8.30908
-8.332
-8.35411
-8.37534
-8.3956
-8.41478
-8.43279
-8.44951
-8.46483
-8.47861
-8.49071
-8.50098
-8.50926
-8.51538
-8.51914
-8.52034
-8.51876
-8.51419
-8.50636
-8.49503
-8.47992
-8.46073
-8.43716
-8.4089
-8.3756
-8.33692
-8.29249
-8.24193
-8.18486
-8.12088
-8.0496
-7.97059
-7.88344
-7.78772
-7.683
-7.56889
-7.445
-7.311
-7.16658
-7.01146
-6.84541
-6.66823
-6.47978
-6.28001
-6.0691
-5.84682
-5.61358
-5.36949
-5.11506
-4.85074
-4.57717
-4.295
-4.00507
-3.70825
-3.40551
-3.0979
-2.78656
-2.4727
-2.15754
-1.84231
-1.52819
-1.21633
-0.907829
-0.603761
-0.305104
-0.0127371
0.272563
0.550136
0.819409
1.07993
1.33132
1.57335
1.80587
2.02887
2.24237
2.44651
2.64148
2.82756
3.00507
3.17441
3.33604
3.49044
3.63817
3.77976
3.91582
4.04692
4.17371
4.29678
4.41681
4.53439
4.6502
4.76489
4.87906
4.99334
5.10828
5.22444
5.34236
5.46262
5.58569
5.71209
5.84221
5.97649
6.11529
6.25893
6.40764
6.56167
6.72119
6.88633
7.05714
7.23366
7.41583
7.60358
7.79678
7.99527
8.19883
8.40723
8.62017
8.83733
9.05836
9.28286
9.51044
9.74069
9.9732
10.2075
10.443
10.6793
10.9156
11.1515
11.3862
11.6193
11.8504
12.0788
12.3052
12.5261
12.7526
12.9258
-7.53797
-7.55122
-7.57012
-7.58497
-7.59532
-7.60302
-7.60912
-7.61424
-7.61889
-7.62351
-7.62844
-7.63399
-7.64039
-7.64781
-7.65639
-7.66622
-7.67734
-7.6898
-7.70362
-7.71878
-7.73524
-7.75296
-7.77185
-7.79185
-7.81286
-7.8348
-7.85759
-7.88114
-7.90535
-7.93014
-7.95541
-7.98107
-8.00703
-8.0332
-8.0595
-8.08585
-8.11217
-8.1384
-8.16445
-8.19027
-8.21577
-8.2409
-8.26559
-8.28976
-8.31335
-8.33627
-8.35846
-8.37982
-8.40027
-8.41971
-8.43804
-8.45514
-8.47089
-8.48518
-8.49784
-8.50874
-8.51771
-8.52458
-8.52916
-8.53124
-8.53062
-8.52706
-8.52032
-8.51014
-8.49625
-8.47835
-8.45614
-8.42929
-8.39747
-8.36032
-8.31747
-8.26855
-8.21315
-8.15087
-8.0813
-8.00401
-7.91857
-7.82455
-7.72151
-7.60904
-7.48673
-7.35421
-7.21115
-7.05726
-6.89226
-6.71595
-6.52813
-6.32883
-6.11796
-5.89569
-5.66198
-5.41716
-5.16176
-4.89612
-4.62096
-4.33689
-4.04482
-3.74557
-3.4402
-3.12977
-2.81546
-2.49856
-2.18028
-1.86196
-1.54472
-1.22985
-0.9184
-0.611547
-0.310221
-0.015435
0.272116
0.551662
0.822709
1.08471
1.33738
1.58041
1.8137
2.03718
2.25093
2.45507
2.64981
2.83546
3.0123
3.18082
3.3414
3.49466
3.64103
3.78121
3.91566
4.04515
4.17016
4.29146
4.40957
4.52527
4.63914
4.7519
4.86413
4.97643
5.08942
5.20362
5.31968
5.43807
5.55941
5.68407
5.81255
5.94519
6.08243
6.22454
6.37183
6.52449
6.68273
6.84663
7.01631
7.19173
7.37291
7.55971
7.75206
7.94973
8.15256
8.36028
8.5726
8.78919
9.0097
9.23375
9.46095
9.69094
9.92327
10.1575
10.3931
10.6295
10.8661
11.1023
11.3375
11.571
11.8023
12.0307
12.2563
12.4752
12.6975
12.8616
-7.53229
-7.54671
-7.56721
-7.5836
-7.59548
-7.60467
-7.61217
-7.61862
-7.62451
-7.6303
-7.63634
-7.64293
-7.65027
-7.65855
-7.66789
-7.67838
-7.69007
-7.70301
-7.71719
-7.73261
-7.74923
-7.76702
-7.7859
-7.80581
-7.82666
-7.8484
-7.87093
-7.89418
-7.91805
-7.94248
-7.96737
-7.99264
-8.01821
-8.044
-8.06994
-8.09596
-8.12198
-8.14795
-8.17378
-8.19942
-8.2248
-8.24987
-8.27454
-8.29875
-8.32244
-8.34553
-8.36793
-8.38956
-8.41034
-8.43017
-8.44894
-8.46654
-8.48285
-8.49775
-8.51108
-8.52271
-8.53246
-8.54017
-8.54564
-8.54868
-8.54906
-8.54657
-8.54096
-8.53196
-8.5193
-8.50269
-8.48182
-8.45637
-8.42598
-8.39031
-8.34897
-8.30158
-8.24773
-8.18701
-8.11898
-8.04321
-7.95926
-7.86667
-7.765
-7.65381
-7.53268
-7.40122
-7.25905
-7.10586
-6.94136
-6.76529
-6.5775
-6.37788
-6.1665
-5.94321
-5.70827
-5.46194
-5.2046
-4.93678
-4.65906
-4.3722
-4.077
-3.77442
-3.4655
-3.15137
-2.83331
-2.51259
-2.19055
-1.86846
-1.54761
-1.22923
-0.914519
-0.604598
-0.300528
-0.00324658
0.286449
0.567859
0.840413
1.10363
1.35716
1.60076
1.8343
2.05774
2.27114
2.47466
2.66854
2.85306
3.02861
3.1956
3.35453
3.50593
3.65036
3.78844
3.92074
4.04796
4.17068
4.28962
4.4054
4.51872
4.63026
4.74067
4.8506
4.96061
5.07135
5.18337
5.29731
5.41367
5.53301
5.65577
5.78243
5.91334
6.04894
6.18949
6.33531
6.48659
6.64354
6.80625
6.9748
7.1492
7.32943
7.51537
7.70692
7.90388
8.10605
8.31318
8.52498
8.74112
8.96125
9.18502
9.41202
9.64192
9.87426
10.1086
10.3444
10.5812
10.8182
11.055
11.2907
11.5247
11.7563
11.9846
12.2095
12.4263
12.6452
12.8021
-7.53355
-7.54836
-7.56932
-7.58641
-7.59922
-7.60947
-7.61806
-7.62558
-7.63253
-7.63932
-7.64632
-7.65378
-7.66193
-7.67093
-7.6809
-7.69194
-7.70409
-7.71739
-7.73185
-7.74746
-7.76419
-7.78201
-7.80086
-7.82068
-7.8414
-7.86296
-7.88528
-7.90829
-7.93192
-7.95609
-7.98071
-8.00572
-8.03103
-8.05659
-8.08232
-8.10815
-8.13402
-8.15988
-8.18564
-8.21127
-8.23668
-8.26183
-8.28664
-8.31105
-8.33498
-8.35836
-8.38112
-8.40316
-8.4244
-8.44474
-8.46407
-8.48229
-8.49926
-8.51487
-8.52896
-8.5414
-8.55201
-8.56062
-8.56705
-8.57109
-8.57253
-8.57114
-8.56668
-8.55888
-8.54747
-8.53215
-8.5126
-8.48851
-8.45951
-8.42525
-8.38535
-8.33939
-8.28698
-8.22767
-8.16103
-8.08661
-8.00393
-7.91254
-7.81196
-7.70175
-7.58146
-7.45066
-7.30896
-7.15601
-6.99151
-6.81517
-6.62679
-6.4263
-6.21356
-5.98879
-5.75183
-5.5032
-5.24317
-4.97236
-4.69129
-4.4008
-4.10168
-3.79497
-3.48173
-3.1632
-2.84072
-2.51557
-2.18922
-1.86289
-1.53803
-1.21581
-0.897612
-0.584503
-0.27766
0.0220813
0.313787
0.596857
0.870621
1.1347
1.3887
1.63244
1.86574
2.08862
2.30113
2.50346
2.69588
2.87868
3.05232
3.21718
3.37386
3.52281
3.66474
3.80014
3.92978
4.0542
4.17418
4.29028
4.40331
4.51386
4.6227
4.73043
4.83768
4.94512
5.0533
5.16293
5.27452
5.38871
5.50593
5.62673
5.75148
5.88066
6.01457
6.1536
6.29795
6.44792
6.60362
6.76522
6.93273
7.10621
7.28557
7.47075
7.6616
7.85795
8.05957
8.26622
8.4776
8.6934
8.91329
9.13689
9.36384
9.59378
9.82629
10.0609
10.2971
10.5343
10.772
11.0093
11.2456
11.4802
11.7122
11.9405
12.1646
12.3796
12.5956
12.7471
-7.54114
-7.55564
-7.57612
-7.59311
-7.60625
-7.61707
-7.62635
-7.63461
-7.64231
-7.64986
-7.65758
-7.66572
-7.67448
-7.68403
-7.69448
-7.70592
-7.71839
-7.73194
-7.74658
-7.7623
-7.77909
-7.7969
-7.8157
-7.83543
-7.85603
-7.87744
-7.8996
-7.92245
-7.9459
-7.9699
-7.99436
-8.01923
-8.04442
-8.06987
-8.09552
-8.12131
-8.14718
-8.17307
-8.19892
-8.22468
-8.25027
-8.27565
-8.30074
-8.32548
-8.34979
-8.37361
-8.39684
-8.41941
-8.44122
-8.46218
-8.48217
-8.50109
-8.5188
-8.5352
-8.55012
-8.56342
-8.57494
-8.5845
-8.59192
-8.597
-8.59951
-8.59923
-8.59592
-8.58931
-8.57912
-8.56506
-8.5468
-8.52402
-8.49635
-8.46343
-8.42488
-8.38026
-8.32916
-8.27114
-8.20573
-8.13247
-8.05087
-7.96045
-7.86072
-7.7512
-7.63143
-7.50096
-7.35936
-7.20625
-7.04129
-6.8642
-6.67473
-6.47274
-6.25831
-6.03116
-5.7917
-5.54005
-5.27671
-5.00215
-4.71707
-4.42222
-4.11851
-3.80699
-3.48882
-3.16532
-2.83784
-2.50783
-2.17667
-1.84578
-1.51654
-1.19034
-0.868481
-0.552191
-0.242528
0.0595457
0.353173
0.637654
0.912408
1.177
1.43112
1.67454
1.90715
2.12895
2.34003
2.54061
2.73097
2.9115
3.0826
3.24478
3.39858
3.54457
3.68339
3.81564
3.94205
4.06324
4.17995
4.29282
4.40263
4.51005
4.61579
4.7205
4.82482
4.92941
5.03489
5.14193
5.25108
5.36295
5.478
5.59674
5.71959
5.84697
5.97925
6.11675
6.25972
6.40842
6.56297
6.72351
6.89009
7.06272
7.24133
7.42584
7.6161
7.81193
8.0131
8.21936
8.43043
8.64599
8.86572
9.08926
9.31627
9.54635
9.77912
10.0141
10.2508
10.4886
10.7269
10.965
11.202
11.4372
11.6696
11.8979
12.1214
12.3348
12.5484
12.6959
-7.55394
-7.56759
-7.58679
-7.60302
-7.61594
-7.62684
-7.63638
-7.64502
-7.65316
-7.66118
-7.66937
-7.67795
-7.68712
-7.69703
-7.70778
-7.71946
-7.73213
-7.74582
-7.76054
-7.7763
-7.79308
-7.81085
-7.82957
-7.8492
-7.86969
-7.89099
-7.91303
-7.93576
-7.95911
-7.98303
-8.00744
-8.03227
-8.05745
-8.08293
-8.10863
-8.13451
-8.16051
-8.18658
-8.21264
-8.23867
-8.26457
-8.29031
-8.31581
-8.341
-8.36581
-8.39017
-8.41398
-8.43717
-8.45963
-8.48128
-8.502
-8.52168
-8.54019
-8.55741
-8.57319
-8.58738
-8.59982
-8.61034
-8.61874
-8.62483
-8.6284
-8.62921
-8.62701
-8.62155
-8.61253
-8.59966
-8.58262
-8.56107
-8.53465
-8.50298
-8.46565
-8.42225
-8.37234
-8.31545
-8.25111
-8.17883
-8.09811
-8.00844
-7.90931
-7.80023
-7.68069
-7.55022
-7.40837
-7.25473
-7.08894
-6.91066
-6.71963
-6.51576
-6.29888
-6.06912
-5.82646
-5.57125
-5.304
-5.02515
-4.73547
-4.43569
-4.12682
-3.80996
-3.48635
-3.15742
-2.82454
-2.48926
-2.15294
-1.81717
-1.4833
-1.15292
-0.827246
-0.507676
-0.195185
0.109116
0.404486
0.69011
0.965529
1.23024
1.48401
1.72661
1.95798
2.17811
2.38717
2.5854
2.7731
2.95074
3.11872
3.27763
3.42797
3.57045
3.70559
3.83422
3.95687
4.07439
4.18737
4.29665
4.40287
4.50682
4.60917
4.71057
4.81172
4.91323
5.01585
5.12014
5.22675
5.33617
5.44899
5.56561
5.68654
5.81212
5.94277
6.07876
6.2204
6.36785
6.52133
6.68088
6.84661
7.01847
7.19644
7.38038
7.57016
7.76557
7.9664
8.1724
8.38327
8.59871
8.8184
9.042
9.26916
9.49953
9.73268
9.96817
10.2055
10.444
10.683
10.9219
11.1597
11.3956
11.6285
11.8568
12.0798
12.292
12.5036
12.6484
-7.57057
-7.58296
-7.60033
-7.61527
-7.62748
-7.63802
-7.64743
-7.65609
-7.66435
-7.67256
-7.68095
-7.68974
-7.6991
-7.70918
-7.72007
-7.73185
-7.74457
-7.75829
-7.773
-7.78872
-7.80543
-7.82312
-7.84175
-7.86129
-7.88168
-7.9029
-7.92487
-7.94755
-7.97086
-7.99477
-8.01919
-8.04408
-8.06935
-8.09496
-8.12084
-8.14693
-8.17318
-8.19954
-8.22595
-8.25236
-8.27868
-8.30489
-8.33089
-8.35663
-8.38201
-8.40698
-8.43144
-8.4553
-8.47847
-8.50084
-8.52231
-8.54276
-8.56206
-8.58009
-8.59671
-8.61176
-8.62508
-8.6365
-8.64584
-8.65289
-8.65744
-8.65926
-8.65809
-8.65368
-8.64575
-8.63397
-8.61805
-8.59761
-8.57231
-8.54175
-8.50553
-8.4632
-8.41431
-8.35838
-8.29493
-8.22344
-8.14338
-8.05425
-7.95549
-7.84659
-7.72701
-7.59625
-7.45384
-7.29933
-7.13233
-6.95249
-6.75953
-6.55329
-6.33372
-6.10067
-5.85441
-5.59524
-5.32356
-5.03999
-4.74519
-4.44005
-4.12557
-3.80292
-3.47346
-3.13861
-2.79992
-2.45889
-2.1171
-1.7761
-1.43748
-1.10273
-0.773293
-0.450455
-0.135366
0.170966
0.467689
0.754094
1.02965
1.29396
1.54679
1.78797
2.01746
2.2353
2.4417
2.63693
2.82138
2.9955
3.1598
3.31484
3.46123
3.59964
3.7307
3.85517
3.97372
4.08712
4.19608
4.30139
4.40377
4.50396
4.60268
4.70057
4.79835
4.89668
4.99628
5.09774
5.20169
5.30863
5.41913
5.53362
5.65258
5.77637
5.90538
6.0399
6.1802
6.32649
6.47892
6.63757
6.8025
6.97368
7.15106
7.33452
7.52389
7.71898
7.91956
8.12537
8.33612
8.55154
8.77127
8.99503
9.22244
9.45316
9.68678
9.92285
10.1608
10.4001
10.64
10.8798
11.1185
11.3551
11.5884
11.817
12.0396
12.2509
12.4609
12.604
-7.58961
-7.60047
-7.61565
-7.62892
-7.64003
-7.64983
-7.65876
-7.66711
-7.6752
-7.6833
-7.69164
-7.70041
-7.70976
-7.71981
-7.73067
-7.7424
-7.75506
-7.76869
-7.78331
-7.79892
-7.81553
-7.83312
-7.85165
-7.8711
-7.89143
-7.9126
-7.93453
-7.9572
-7.98053
-8.00448
-8.02898
-8.05399
-8.07943
-8.10526
-8.13141
-8.15781
-8.18441
-8.21117
-8.238
-8.26486
-8.29169
-8.31842
-8.34498
-8.3713
-8.3973
-8.42291
-8.44802
-8.47255
-8.4964
-8.51947
-8.54164
-8.56281
-8.58284
-8.60161
-8.61897
-8.63479
-8.6489
-8.66112
-8.67128
-8.67916
-8.68457
-8.68727
-8.687
-8.68351
-8.6765
-8.66568
-8.65071
-8.63124
-8.6069
-8.57729
-8.54199
-8.50055
-8.45251
-8.39735
-8.33458
-8.26367
-8.18407
-8.09524
-7.99662
-7.88765
-7.76777
-7.63646
-7.49321
-7.33755
-7.16907
-6.98739
-6.79219
-6.5833
-6.36054
-6.12405
-5.87375
-5.61019
-5.33369
-5.04494
-4.74459
-4.43362
-4.11307
-3.78421
-3.44849
-3.10737
-2.76253
-2.4155
-2.06806
-1.72175
-1.37836
-1.03935
-0.706332
-0.380503
-0.063169
0.244785
0.542382
0.82904
1.10414
1.36743
1.61864
1.85773
2.08466
2.29955
2.50263
2.69424
2.87484
3.04486
3.20494
3.35559
3.49756
3.63142
3.758
3.8779
3.99202
4.10096
4.20562
4.30669
4.40498
4.50119
4.59604
4.69027
4.78451
4.87956
4.97602
5.07459
5.17578
5.28021
5.38835
5.5007
5.61767
5.73969
5.86708
6.00017
6.13918
6.28435
6.43579
6.5936
6.7578
6.92838
7.10526
7.28831
7.47736
7.67221
7.87263
8.07835
8.28909
8.50456
8.72445
8.94844
9.17621
9.40738
9.64158
9.87832
10.1171
10.3572
10.5981
10.8388
11.0784
11.3158
11.5498
11.7786
12.0011
12.2116
12.4205
12.5626
-7.60977
-7.61898
-7.63177
-7.64311
-7.65284
-7.66161
-7.66974
-7.67748
-7.6851
-7.69283
-7.70086
-7.70938
-7.7185
-7.72835
-7.73901
-7.75056
-7.76304
-7.7765
-7.79096
-7.80642
-7.82288
-7.84033
-7.85874
-7.8781
-7.89835
-7.91946
-7.94138
-7.96406
-7.98744
-8.01148
-8.03612
-8.06131
-8.08699
-8.11311
-8.13958
-8.16636
-8.19337
-8.22055
-8.24784
-8.27519
-8.30252
-8.32978
-8.35689
-8.38378
-8.41035
-8.43654
-8.46223
-8.48735
-8.51178
-8.53543
-8.55819
-8.57994
-8.60055
-8.61991
-8.63787
-8.65429
-8.669
-8.68185
-8.69264
-8.70119
-8.70727
-8.71066
-8.7111
-8.70835
-8.70209
-8.69204
-8.67786
-8.65918
-8.63563
-8.60681
-8.57227
-8.53155
-8.48417
-8.42962
-8.36737
-8.29687
-8.21757
-8.12888
-8.03022
-7.921
-7.80063
-7.66857
-7.52427
-7.36723
-7.19702
-7.01323
-6.81551
-6.60363
-6.37755
-6.13702
-5.88247
-5.61409
-5.33243
-5.03807
-4.73181
-4.41462
-4.08766
-3.7523
-3.41002
-3.06247
-2.71128
-2.35823
-2.00508
-1.65363
-1.3056
-0.962678
-0.626377
-0.298059
0.0210966
0.330077
0.628023
0.914255
1.18827
1.4498
1.69869
1.93494
2.1586
2.36986
2.56897
2.75637
2.9325
3.09792
3.25323
3.39906
3.53612
3.66509
3.78676
3.90183
4.01114
4.11541
4.21549
4.31213
4.40612
4.49819
4.58907
4.67949
4.77017
4.86184
4.95515
5.05075
5.1492
5.25109
5.35689
5.4671
5.58213
5.70239
5.82821
5.9599
6.09769
6.24179
6.39231
6.54934
6.71289
6.88293
7.05937
7.24209
7.43089
7.62556
7.82588
8.03158
8.24237
8.45797
8.67808
8.90238
9.13056
9.36225
9.59708
9.83456
10.0742
10.3153
10.5571
10.7988
11.0394
11.2776
11.5123
11.7414
11.9639
12.174
12.3819
12.524
-7.62998
-7.63749
-7.64784
-7.65713
-7.66528
-7.67276
-7.67982
-7.68668
-7.69354
-7.70062
-7.7081
-7.71612
-7.7248
-7.73426
-7.74457
-7.7558
-7.76798
-7.78117
-7.79537
-7.8106
-7.82685
-7.84411
-7.86237
-7.8816
-7.90175
-7.9228
-7.9447
-7.9674
-7.99085
-8.01501
-8.03981
-8.06521
-8.09114
-8.11754
-8.14434
-8.17147
-8.19886
-8.22645
-8.25417
-8.28197
-8.30975
-8.33747
-8.36503
-8.39236
-8.41937
-8.44598
-8.47209
-8.49761
-8.52244
-8.54648
-8.56961
-8.59173
-8.61271
-8.63244
-8.65077
-8.66757
-8.68268
-8.69593
-8.70714
-8.71613
-8.72268
-8.72656
-8.72753
-8.72532
-8.71964
-8.71019
-8.69661
-8.67856
-8.65564
-8.62743
-8.59349
-8.55334
-8.50649
-8.4524
-8.39053
-8.32033
-8.24118
-8.1525
-8.05365
-7.94403
-7.82301
-7.69002
-7.54447
-7.38587
-7.21371
-7.02757
-6.82706
-6.61196
-6.38205
-6.1374
-5.87815
-5.60469
-5.31757
-5.01737
-4.70496
-4.38138
-4.04787
-3.70593
-3.35707
-3.00308
-2.64564
-2.28673
-1.92812
-1.57184
-1.21959
-0.873241
-0.53421
-0.204005
0.116335
0.425668
0.723263
1.00834
1.28055
1.53956
1.78538
2.01803
2.23771
2.44465
2.63919
2.82179
2.99295
3.15329
3.3034
3.44404
3.57583
3.69964
3.81611
3.92616
4.03045
4.12991
4.22526
4.31736
4.40696
4.4948
4.58166
4.66824
4.75535
4.84363
4.93382
5.02647
5.12223
5.22159
5.32512
5.43322
5.54638
5.66493
5.78926
5.91961
6.05625
6.19933
6.349
6.5053
6.66825
6.8378
7.01387
7.1963
7.3849
7.57945
7.77972
7.98545
8.19634
8.41212
8.63249
8.85717
9.08581
9.3181
9.5536
9.79189
10.0324
10.2745
10.5173
10.7601
11.0017
11.2409
11.4762
11.7059
11.9284
12.1384
12.3456
12.4881
-7.65016
-7.65601
-7.66401
-7.6712
-7.67756
-7.68348
-7.68915
-7.69476
-7.70051
-7.7066
-7.7132
-7.72043
-7.7284
-7.73722
-7.74695
-7.75765
-7.76936
-7.7821
-7.7959
-7.81076
-7.82667
-7.84365
-7.86164
-7.88065
-7.90062
-7.92154
-7.94333
-7.96598
-7.98941
-8.01361
-8.03848
-8.06399
-8.09006
-8.11664
-8.14362
-8.17098
-8.19861
-8.22648
-8.2545
-8.2826
-8.31069
-8.33871
-8.36653
-8.39411
-8.42133
-8.44812
-8.47438
-8.50004
-8.52498
-8.54913
-8.57235
-8.59457
-8.61565
-8.63548
-8.65392
-8.67085
-8.6861
-8.69953
-8.71094
-8.72016
-8.72696
-8.73115
-8.73245
-8.73061
-8.72534
-8.71632
-8.7032
-8.68563
-8.66319
-8.63546
-8.60199
-8.56228
-8.51583
-8.46208
-8.40049
-8.33045
-8.25134
-8.1625
-8.06334
-7.95313
-7.83131
-7.69718
-7.55024
-7.38985
-7.21557
-7.02678
-6.82329
-6.60471
-6.3709
-6.12183
-5.85775
-5.5791
-5.28637
-4.98026
-4.66165
-4.33168
-3.99171
-3.64326
-3.28804
-2.9278
-2.56448
-2.20004
-1.83653
-1.47593
-1.12016
-0.770997
-0.430038
-0.0986381
0.222027
0.530954
0.827303
1.11045
1.37998
1.63572
1.87767
2.10598
2.32095
2.52291
2.71229
2.88956
3.0553
3.21013
3.35473
3.48983
3.61615
3.73452
3.84568
3.95049
4.04972
4.14423
4.23484
4.32234
4.40754
4.49117
4.57401
4.65683
4.7404
4.82538
4.91247
5.00226
5.09534
5.19227
5.29355
5.39963
5.51094
5.62786
5.75072
5.8798
6.01531
6.15743
6.30627
6.46188
6.62426
6.79336
6.96906
7.15123
7.33964
7.53409
7.73432
7.94008
8.15109
8.36707
8.58772
8.81277
9.04191
9.2748
9.51102
9.75013
9.99157
10.2347
10.4786
10.7225
10.9651
11.2053
11.4415
11.6717
11.8945
12.1044