/*--------------------------------*- C++ -*----------------------------------*\
  =========                 |
  \\      /  F ield         | OpenFOAM: The Open Source CFD Toolbox
   \\    /   O peration     | Website:  https://openfoam.org
    \\  /    A nd           | Version:  8
     \\/     M anipulation  |
\*---------------------------------------------------------------------------*/
FoamFile
{
    version     2.0;
    format      ascii;
    class       surfaceScalarField;
    location    "130";
    object      phi;
}
// * * * * * * * * * * * * * * * * * * * * * * * * * * * * * * * * * * * * * //

dimensions      [0 3 -1 0 0 0 0];

internalField   nonuniform List<scalar> 
24170
(
3.129e-06
5.94013e-08
3.04661e-06
8.23973e-08
2.9735e-06
7.31128e-08
2.90483e-06
6.86633e-08
2.84047e-06
6.43678e-08
2.78308e-06
5.73843e-08
2.7337e-06
4.93813e-08
2.69168e-06
4.20286e-08
2.6559e-06
3.57745e-08
2.62532e-06
3.05829e-08
2.59894e-06
2.6386e-08
2.57588e-06
2.30554e-08
2.55545e-06
2.04316e-08
2.53697e-06
1.84816e-08
2.51992e-06
1.70468e-08
2.50271e-06
1.72106e-08
2.48555e-06
1.71642e-08
2.88889e-08
2.45666e-06
3.45306e-06
2.35886e-08
3.457e-06
7.84578e-08
3.45053e-06
7.95844e-08
3.43906e-06
8.01322e-08
3.42426e-06
7.9166e-08
3.407e-06
7.46492e-08
3.38774e-06
6.86423e-08
3.36716e-06
6.26038e-08
3.34595e-06
5.69855e-08
3.32469e-06
5.18448e-08
3.30385e-06
4.72247e-08
3.2837e-06
4.32032e-08
3.26442e-06
3.97079e-08
3.24602e-06
3.68765e-08
3.22861e-06
3.44621e-08
3.21206e-06
3.37642e-08
3.19684e-06
3.23838e-08
3.92023e-08
3.18652e-06
3.66815e-06
1.7951e-08
3.67919e-06
6.74235e-08
3.68541e-06
7.33691e-08
3.68942e-06
7.61154e-08
3.691e-06
7.75899e-08
3.69001e-06
7.56435e-08
3.68684e-06
7.18159e-08
3.68195e-06
6.74933e-08
3.67573e-06
6.32019e-08
3.66851e-06
5.90683e-08
3.66055e-06
5.51836e-08
3.6521e-06
5.16606e-08
3.64331e-06
4.84959e-08
3.63433e-06
4.58511e-08
3.62519e-06
4.36085e-08
3.61634e-06
4.2613e-08
3.60702e-06
4.17084e-08
4.44431e-08
3.60178e-06
3.92584e-06
1.74948e-08
3.93591e-06
5.73615e-08
3.94255e-06
6.67298e-08
3.94807e-06
7.05925e-08
3.95246e-06
7.31983e-08
3.95538e-06
7.27259e-08
3.95701e-06
7.01839e-08
3.95759e-06
6.69096e-08
3.95731e-06
6.34787e-08
3.95632e-06
6.00649e-08
3.95473e-06
5.67701e-08
3.95267e-06
5.3724e-08
3.95021e-06
5.09562e-08
3.94745e-06
4.86096e-08
3.9444e-06
4.66531e-08
3.94146e-06
4.55546e-08
3.93834e-06
4.48243e-08
4.55536e-08
3.93723e-06
4.2082e-06
1.6426e-08
4.21597e-06
4.95877e-08
4.22165e-06
6.10469e-08
4.22674e-06
6.55077e-08
4.23146e-06
6.84763e-08
4.2354e-06
6.87881e-08
4.23853e-06
6.70577e-08
4.24096e-06
6.44862e-08
4.24278e-06
6.16536e-08
4.24409e-06
5.87547e-08
4.24497e-06
5.58985e-08
4.24548e-06
5.32141e-08
4.24568e-06
5.07553e-08
4.24565e-06
4.86348e-08
4.24545e-06
4.68629e-08
4.24533e-06
4.56729e-08
4.24532e-06
4.48327e-08
4.45411e-08
4.24633e-06
4.51071e-06
1.48065e-08
4.51687e-06
4.34251e-08
4.5221e-06
5.58128e-08
4.5269e-06
6.07108e-08
4.53159e-06
6.37898e-08
4.5358e-06
6.45725e-08
4.53943e-06
6.34256e-08
4.54254e-06
6.13771e-08
4.5452e-06
5.89956e-08
4.54747e-06
5.64886e-08
4.54939e-06
5.39749e-08
4.55103e-06
5.15748e-08
4.55243e-06
4.93565e-08
4.55366e-06
4.74031e-08
4.55479e-06
4.57367e-08
4.556e-06
4.44543e-08
4.55742e-06
4.3415e-08
4.25183e-08
4.55945e-06
4.83433e-06
1.31999e-08
4.83961e-06
3.81397e-08
4.84472e-06
5.07048e-08
4.84941e-06
5.60293e-08
4.85401e-06
5.9185e-08
4.8583e-06
6.02903e-08
4.86213e-06
5.95965e-08
4.86554e-06
5.79648e-08
4.86859e-06
5.59439e-08
4.87133e-06
5.37528e-08
4.87379e-06
5.15174e-08
4.87602e-06
4.93488e-08
4.87805e-06
4.73196e-08
4.87997e-06
4.54902e-08
4.88183e-06
4.3879e-08
4.88377e-06
4.25089e-08
4.88592e-06
4.12724e-08
4.00027e-08
4.88843e-06
5.18104e-06
1.1737e-08
5.18574e-06
3.34446e-08
5.19073e-06
4.57181e-08
5.19536e-06
5.1399e-08
5.19992e-06
5.46261e-08
5.20424e-06
5.59647e-08
5.2082e-06
5.56414e-08
5.2118e-06
5.43635e-08
5.21509e-06
5.26493e-08
5.21812e-06
5.07278e-08
5.22091e-06
4.87285e-08
5.2235e-06
4.67552e-08
5.22594e-06
4.48787e-08
5.22829e-06
4.31438e-08
5.23061e-06
4.15606e-08
5.233e-06
4.01165e-08
5.23555e-06
3.87218e-08
3.72277e-08
5.23833e-06
5.55269e-06
1.03852e-08
5.55687e-06
2.92608e-08
5.56167e-06
4.09282e-08
5.56625e-06
4.68128e-08
5.57079e-06
5.00894e-08
5.57517e-06
5.15933e-08
5.57923e-06
5.15766e-08
5.58299e-06
5.06097e-08
5.58647e-06
4.91676e-08
5.58971e-06
4.74856e-08
5.59275e-06
4.56944e-08
5.59561e-06
4.38918e-08
5.59835e-06
4.21439e-08
5.60101e-06
4.0486e-08
5.60365e-06
3.89214e-08
5.60634e-06
3.74247e-08
5.60914e-06
3.59219e-08
3.43074e-08
5.61206e-06
5.95104e-06
9.12565e-09
5.95477e-06
2.5524e-08
5.95933e-06
3.63702e-08
5.96387e-06
4.22774e-08
5.96839e-06
4.55672e-08
5.9728e-06
4.71788e-08
5.97697e-06
4.74084e-08
5.98087e-06
4.67136e-08
5.98452e-06
4.5516e-08
5.98795e-06
4.40508e-08
5.9912e-06
4.24484e-08
5.99429e-06
4.08002e-08
5.99727e-06
3.91675e-08
6.00017e-06
3.75799e-08
6.00306e-06
3.60379e-08
6.00597e-06
3.45158e-08
6.00893e-06
3.29569e-08
3.12957e-08
6.01194e-06
6.37798e-06
7.95772e-09
6.38133e-06
2.21725e-08
6.38565e-06
3.20575e-08
6.39012e-06
3.78117e-08
6.39462e-06
4.10668e-08
6.39906e-06
4.27344e-08
6.40332e-06
4.31499e-08
6.40735e-06
4.2686e-08
6.41116e-06
4.17064e-08
6.41477e-06
4.04379e-08
6.41821e-06
3.90085e-08
6.42151e-06
3.75036e-08
6.4247e-06
3.59794e-08
6.42782e-06
3.44635e-08
6.4309e-06
3.29566e-08
6.43398e-06
3.14392e-08
6.43706e-06
2.98712e-08
2.82214e-08
6.44014e-06
5.74176e-06
7.03432e-09
5.74433e-06
1.95977e-08
5.74779e-06
2.85996e-08
5.75151e-06
3.40984e-08
5.75529e-06
3.72816e-08
5.75907e-06
3.89618e-08
5.76273e-06
3.94885e-08
5.76623e-06
3.91856e-08
5.76957e-06
3.83698e-08
5.77275e-06
3.72531e-08
5.7758e-06
3.59595e-08
5.77874e-06
3.45699e-08
5.78158e-06
3.31371e-08
5.78436e-06
3.16865e-08
5.78709e-06
3.02232e-08
5.7898e-06
2.8733e-08
5.79248e-06
2.71901e-08
2.55835e-08
5.79512e-06
6.99914e-06
6.05288e-09
7.00186e-06
1.68733e-08
7.00562e-06
2.48468e-08
7.00977e-06
2.99455e-08
7.01408e-06
3.29773e-08
7.01841e-06
3.46245e-08
7.02267e-06
3.52313e-08
7.02678e-06
3.50747e-08
7.03073e-06
3.44207e-08
7.03453e-06
3.34608e-08
7.03817e-06
3.23125e-08
7.0417e-06
3.10504e-08
7.04511e-06
2.97233e-08
7.04844e-06
2.83579e-08
7.05171e-06
2.69609e-08
7.05491e-06
2.55288e-08
7.05806e-06
2.40447e-08
2.25203e-08
7.06112e-06
8.53188e-06
5.02177e-09
8.53473e-06
1.40247e-08
8.53875e-06
2.08254e-08
8.54334e-06
2.53587e-08
8.54819e-06
2.81334e-08
8.55313e-06
2.96826e-08
8.55804e-06
3.03207e-08
8.56284e-06
3.02809e-08
8.56748e-06
2.97767e-08
8.57197e-06
2.89737e-08
8.57631e-06
2.79767e-08
8.5805e-06
2.68558e-08
8.58458e-06
2.56539e-08
8.58854e-06
2.43985e-08
8.5924e-06
2.31005e-08
8.59617e-06
2.17638e-08
8.59983e-06
2.03833e-08
1.89799e-08
8.60337e-06
1.04003e-05
3.94879e-09
1.04032e-05
1.10709e-08
1.04075e-05
1.65552e-08
1.04125e-05
2.03437e-08
1.04179e-05
2.27305e-08
1.04235e-05
2.40946e-08
1.04292e-05
2.46985e-08
1.04347e-05
2.47293e-08
1.04401e-05
2.43523e-08
1.04454e-05
2.36977e-08
1.04505e-05
2.28586e-08
1.04555e-05
2.1892e-08
1.04603e-05
2.08403e-08
1.0465e-05
1.97263e-08
1.04695e-05
1.85679e-08
1.04739e-05
1.73714e-08
1.04782e-05
1.61419e-08
1.49052e-08
1.04822e-05
1.26779e-05
2.83929e-09
1.2681e-05
8.00323e-09
1.26855e-05
1.20321e-08
1.2691e-05
1.48915e-08
1.26969e-05
1.67362e-08
1.27032e-05
1.7807e-08
1.27096e-05
1.82943e-08
1.2716e-05
1.83374e-08
1.27223e-05
1.80521e-08
1.27285e-05
1.75352e-08
1.27345e-05
1.68556e-08
1.27403e-05
1.60628e-08
1.2746e-05
1.5188e-08
1.27515e-05
1.4256e-08
1.27568e-05
1.32809e-08
1.27619e-05
1.22765e-08
1.27667e-05
1.12468e-08
1.02244e-08
1.27714e-05
1.54543e-05
1.68085e-09
1.54576e-05
4.77438e-09
1.54624e-05
7.19473e-09
1.54684e-05
8.93777e-09
1.5475e-05
1.00722e-08
1.54821e-05
1.07243e-08
1.54894e-05
1.10035e-08
1.54968e-05
1.0993e-08
1.55041e-05
1.07617e-08
1.55112e-05
1.03677e-08
1.55182e-05
9.85534e-09
1.5525e-05
9.2569e-09
1.55316e-05
8.59523e-09
1.5538e-05
7.88798e-09
1.55441e-05
7.14818e-09
1.555e-05
6.38734e-09
1.55557e-05
5.61145e-09
4.84899e-09
1.5561e-05
1.88389e-05
4.33454e-10
1.88424e-05
1.25633e-09
1.88477e-05
1.86624e-09
1.88544e-05
2.28813e-09
1.88619e-05
2.53759e-09
1.887e-05
2.64303e-09
1.88784e-05
2.62597e-09
1.88869e-05
2.50531e-09
1.88953e-05
2.29978e-09
1.89037e-05
2.02639e-09
1.89118e-05
1.69888e-09
1.89198e-05
1.32851e-09
1.89274e-05
9.24581e-10
1.89348e-05
4.95294e-10
1.89419e-05
4.78135e-11
1.89487e-05
-4.10732e-10
1.89552e-05
-8.76519e-10
-1.32662e-09
1.89614e-05
2.29648e-05
-1.0051e-09
2.29689e-05
-2.84029e-09
2.29751e-05
-4.37351e-09
2.29829e-05
-5.53356e-09
2.29918e-05
-6.34434e-09
2.30014e-05
-6.89088e-09
2.30112e-05
-7.26246e-09
2.30213e-05
-7.51263e-09
2.30312e-05
-7.68115e-09
2.30411e-05
-7.79781e-09
2.30507e-05
-7.88961e-09
2.306e-05
-7.9694e-09
2.30689e-05
-8.04776e-09
2.30776e-05
-8.12706e-09
2.30858e-05
-8.21143e-09
2.30937e-05
-8.29851e-09
2.31012e-05
-8.39046e-09
-8.47002e-09
2.31084e-05
1.68118e-05
-2.13428e-09
1.6815e-05
-6.03096e-09
1.68199e-05
-9.23134e-09
1.68259e-05
-1.15682e-08
1.68327e-05
-1.31012e-08
1.68398e-05
-1.40608e-08
1.68472e-05
-1.46316e-08
1.68546e-05
-1.49223e-08
1.6862e-05
-1.50072e-08
1.68691e-05
-1.49647e-08
1.68761e-05
-1.48423e-08
1.68828e-05
-1.46788e-08
1.68892e-05
-1.44896e-08
1.68954e-05
-1.42939e-08
1.69013e-05
-1.40944e-08
1.69069e-05
-1.39005e-08
1.69122e-05
-1.37099e-08
-1.35168e-08
1.69173e-05
1.46357e-05
-3.21818e-09
1.46388e-05
-9.13531e-09
1.46435e-05
-1.39701e-08
1.46493e-05
-1.73433e-08
1.46556e-05
-1.9427e-08
1.46622e-05
-2.06707e-08
1.46689e-05
-2.13462e-08
1.46756e-05
-2.1588e-08
1.46821e-05
-2.15303e-08
1.46884e-05
-2.12869e-08
1.46945e-05
-2.09368e-08
1.47004e-05
-2.05221e-08
1.4706e-05
-2.00754e-08
1.47113e-05
-1.96151e-08
1.47163e-05
-1.91565e-08
1.47212e-05
-1.8704e-08
1.47257e-05
-1.82644e-08
-1.78277e-08
1.473e-05
1.27411e-05
-4.23209e-09
1.27443e-05
-1.22778e-08
1.27491e-05
-1.88218e-08
1.27548e-05
-2.30154e-08
1.27608e-05
-2.54387e-08
1.2767e-05
-2.68649e-08
1.27732e-05
-2.75576e-08
1.27793e-05
-2.76663e-08
1.27852e-05
-2.73983e-08
1.27908e-05
-2.69195e-08
1.27962e-05
-2.63199e-08
1.28013e-05
-2.56501e-08
1.28062e-05
-2.49489e-08
1.28108e-05
-2.4239e-08
1.28152e-05
-2.35388e-08
1.28193e-05
-2.28521e-08
1.28233e-05
-2.21872e-08
-2.15351e-08
1.2827e-05
1.10918e-05
-5.07922e-09
1.1095e-05
-1.55122e-08
1.11002e-05
-2.39641e-08
1.11058e-05
-2.86609e-08
1.11116e-05
-3.11985e-08
1.11174e-05
-3.27064e-08
1.11232e-05
-3.33155e-08
1.11287e-05
-3.32088e-08
1.1134e-05
-3.26891e-08
1.1139e-05
-3.19538e-08
1.11438e-05
-3.10947e-08
1.11483e-05
-3.01695e-08
1.11526e-05
-2.9219e-08
1.11566e-05
-2.82745e-08
1.11604e-05
-2.73469e-08
1.1164e-05
-2.64483e-08
1.11674e-05
-2.55779e-08
-2.47356e-08
1.11706e-05
9.65582e-06
-5.68883e-09
9.65926e-06
-1.89464e-08
9.66462e-06
-2.93232e-08
9.67014e-06
-3.4174e-08
9.67571e-06
-3.67756e-08
9.6813e-06
-3.82857e-08
9.68665e-06
-3.86698e-08
9.6917e-06
-3.82586e-08
9.69647e-06
-3.74552e-08
9.70097e-06
-3.64546e-08
9.70521e-06
-3.53349e-08
9.7092e-06
-3.41565e-08
9.71294e-06
-3.29664e-08
9.71646e-06
-3.17932e-08
9.71977e-06
-3.06525e-08
9.72287e-06
-2.95502e-08
9.72578e-06
-2.84885e-08
-2.74633e-08
9.72851e-06
8.40533e-06
-5.66142e-09
8.40965e-06
-2.32694e-08
8.4149e-06
-3.45685e-08
8.41994e-06
-3.92145e-08
8.42532e-06
-4.2156e-08
8.43075e-06
-4.37095e-08
8.43585e-06
-4.37712e-08
8.44057e-06
-4.29802e-08
8.44496e-06
-4.18392e-08
8.44903e-06
-4.05244e-08
8.4528e-06
-3.91063e-08
8.45629e-06
-3.76467e-08
8.45952e-06
-3.6195e-08
8.46251e-06
-3.4778e-08
8.46527e-06
-3.3411e-08
8.46782e-06
-3.20999e-08
8.47017e-06
-3.0847e-08
-2.96464e-08
8.47236e-06
7.31455e-06
-2.92516e-09
7.3212e-06
-2.99193e-08
7.32676e-06
-4.01284e-08
7.33172e-06
-4.41757e-08
7.33714e-06
-4.75654e-08
7.34247e-06
-4.90422e-08
7.34736e-06
-4.86612e-08
7.35179e-06
-4.74047e-08
7.35578e-06
-4.58277e-08
7.35934e-06
-4.40894e-08
7.36251e-06
-4.22692e-08
7.36531e-06
-4.04428e-08
7.36777e-06
-3.86584e-08
7.36994e-06
-3.69418e-08
7.37183e-06
-3.5308e-08
7.3735e-06
-3.37593e-08
7.37494e-06
-3.22967e-08
-3.09089e-08
7.37621e-06
6.36245e-06
4.68946e-09
6.3719e-06
-3.93663e-08
6.37934e-06
-4.7562e-08
6.38599e-06
-5.08256e-08
6.39228e-06
-5.38564e-08
6.3976e-06
-5.43649e-08
6.40191e-06
-5.29654e-08
6.4054e-06
-5.08945e-08
6.40821e-06
-4.86359e-08
6.41041e-06
-4.62803e-08
6.41204e-06
-4.3908e-08
6.4132e-06
-4.15921e-08
6.41392e-06
-3.93852e-08
6.41429e-06
-3.7304e-08
6.41434e-06
-3.53631e-08
6.41414e-06
-3.35585e-08
6.41374e-06
-3.18904e-08
-3.03414e-08
6.41317e-06
5.5412e-06
8.95092e-09
5.55033e-06
-4.8493e-08
5.55836e-06
-5.55858e-08
5.56607e-06
-5.85339e-08
5.57254e-06
-6.03246e-08
5.57687e-06
-5.86968e-08
5.57912e-06
-5.52144e-08
5.57969e-06
-5.14611e-08
5.57895e-06
-4.78889e-08
5.57717e-06
-4.4502e-08
5.57458e-06
-4.13184e-08
5.57137e-06
-3.83807e-08
5.56769e-06
-3.56969e-08
5.56364e-06
-3.32589e-08
5.55935e-06
-3.10634e-08
5.55488e-06
-2.90932e-08
5.55034e-06
-2.73518e-08
-2.57871e-08
5.54579e-06
4.86004e-06
-2.34853e-08
4.86539e-06
-5.3837e-08
4.86525e-06
-5.54439e-08
4.86219e-06
-5.54689e-08
4.85703e-06
-5.51589e-08
4.84953e-06
-5.1202e-08
4.83985e-06
-4.55245e-08
4.82846e-06
-4.00741e-08
4.8159e-06
-3.53221e-08
4.80263e-06
-3.12301e-08
4.78903e-06
-2.77252e-08
4.7754e-06
-2.4745e-08
4.76192e-06
-2.22133e-08
4.74872e-06
-2.0058e-08
4.7359e-06
-1.82325e-08
4.72351e-06
-1.67045e-08
4.71167e-06
-1.55117e-08
-1.51724e-08
4.70105e-06
4.17919e-06
4.12535e-06
4.06991e-06
4.01444e-06
3.95928e-06
3.90808e-06
3.86256e-06
3.82248e-06
3.78716e-06
3.75593e-06
3.72821e-06
3.70346e-06
3.68125e-06
3.66119e-06
3.64296e-06
3.62626e-06
3.61074e-06
3.59557e-06
2.23708e-08
-2.23378e-08
4.05931e-08
-1.81779e-08
5.01664e-08
-9.54539e-09
5.11428e-08
-9.47349e-10
4.47056e-08
6.45713e-09
3.24425e-08
1.22849e-08
1.58261e-08
1.66327e-08
-3.96883e-09
1.9811e-08
-2.61363e-08
2.21823e-08
-5.01778e-08
2.40529e-08
-7.57896e-08
2.56266e-08
-1.0255e-07
2.67699e-08
-1.29344e-07
2.6809e-08
-1.55769e-07
2.64341e-08
-1.83183e-07
2.74309e-08
-2.12684e-07
2.95111e-08
-2.45292e-07
3.26265e-08
-2.82696e-07
3.74134e-08
-3.2721e-07
4.45366e-08
-3.71425e-07
4.42259e-08
-4.10463e-07
3.90651e-08
-4.55501e-07
4.50424e-08
-5.0629e-07
5.08098e-08
-5.56459e-07
5.01685e-08
-6.05566e-07
4.91263e-08
-6.5639e-07
5.08202e-08
-7.07601e-07
5.12333e-08
-7.58949e-07
5.13433e-08
-8.10245e-07
5.13184e-08
-8.61408e-07
5.11603e-08
-9.1225e-07
5.08689e-08
-9.62711e-07
5.04609e-08
-1.01264e-06
4.99626e-08
-1.06204e-06
4.9398e-08
-1.11079e-06
4.87926e-08
-1.15895e-06
4.81638e-08
-1.20644e-06
4.75303e-08
-1.25333e-06
4.69008e-08
-1.29958e-06
4.62867e-08
-1.34527e-06
4.56915e-08
-1.39035e-06
4.51228e-08
-1.43492e-06
4.45803e-08
-1.47896e-06
4.40684e-08
-1.52253e-06
4.35837e-08
-1.56563e-06
4.31279e-08
-1.60831e-06
4.26958e-08
-1.65056e-06
4.22868e-08
-1.69244e-06
4.18933e-08
-1.73392e-06
4.15123e-08
-1.77505e-06
4.1137e-08
-1.81578e-06
4.07664e-08
-1.85616e-06
4.03934e-08
-1.89615e-06
4.00154e-08
-1.93576e-06
3.96251e-08
-1.97495e-06
3.922e-08
-2.01372e-06
3.87919e-08
-2.05203e-06
3.83377e-08
-2.08985e-06
3.78504e-08
-2.12714e-06
3.73268e-08
-2.16387e-06
3.67597e-08
-2.19997e-06
3.61452e-08
-2.23541e-06
3.54767e-08
-2.27011e-06
3.47497e-08
-2.30403e-06
3.39578e-08
-2.33708e-06
3.30955e-08
-2.36918e-06
3.21578e-08
-2.40028e-06
3.11375e-08
-2.43026e-06
3.00307e-08
-2.45905e-06
2.88288e-08
-2.48653e-06
2.75286e-08
-2.51263e-06
2.61197e-08
-2.53718e-06
2.4599e-08
-2.56011e-06
2.29535e-08
-2.58125e-06
2.11819e-08
-2.60049e-06
1.92654e-08
-2.61763e-06
1.72006e-08
-2.63257e-06
1.49645e-08
-2.64505e-06
1.25501e-08
-2.65497e-06
9.93084e-09
-2.66201e-06
7.11018e-09
-2.66611e-06
4.10715e-09
-2.6671e-06
1.05518e-09
-2.66523e-06
-1.88223e-09
-2.66049e-06
-4.68127e-09
-2.65302e-06
-7.48865e-09
-2.64265e-06
-1.03273e-08
-2.62947e-06
-1.32323e-08
-2.61336e-06
-1.61846e-08
-2.59432e-06
-1.91915e-08
-2.57232e-06
-2.22449e-08
-2.54725e-06
-2.52996e-08
-2.51912e-06
-2.83463e-08
-2.48795e-06
-3.13604e-08
-2.45382e-06
-3.43346e-08
-2.41675e-06
-3.72447e-08
-2.37686e-06
-4.00775e-08
-2.33422e-06
-4.28041e-08
-2.28897e-06
-4.54091e-08
-2.24123e-06
-4.7862e-08
-2.19118e-06
-5.01449e-08
-2.13898e-06
-5.22443e-08
-2.08483e-06
-5.41323e-08
-2.02896e-06
-5.57829e-08
-1.97163e-06
-5.71747e-08
-1.91307e-06
-5.83634e-08
-1.85353e-06
-5.93075e-08
-1.79333e-06
-5.99737e-08
-1.73271e-06
-6.03979e-08
-1.67194e-06
-6.05775e-08
-1.61128e-06
-6.04919e-08
-1.55099e-06
-6.01674e-08
-1.49129e-06
-5.95844e-08
-1.43246e-06
-5.87758e-08
-1.3747e-06
-5.7728e-08
-1.31823e-06
-5.64791e-08
-1.26325e-06
-5.50201e-08
-1.20994e-06
-5.33926e-08
-1.15845e-06
-5.15945e-08
-1.10893e-06
-4.96644e-08
-1.06148e-06
-4.7605e-08
-1.01616e-06
-4.54568e-08
-9.73038e-07
-4.32289e-08
-9.32197e-07
-4.09601e-08
-8.93668e-07
-3.86638e-08
-8.57479e-07
-3.63805e-08
-8.23586e-07
-3.41187e-08
-7.91951e-07
-3.19096e-08
-7.62488e-07
-2.97617e-08
-7.35115e-07
-2.76999e-08
-7.09717e-07
-2.57342e-08
-6.86177e-07
-2.38821e-08
-6.6436e-07
-2.21565e-08
-6.44113e-07
-2.05661e-08
-6.25289e-07
-1.91259e-08
-6.07706e-07
-1.78396e-08
-5.91201e-07
-1.67269e-08
-5.75573e-07
-1.57801e-08
-5.60641e-07
-1.50089e-08
-5.46209e-07
-1.43932e-08
-5.32112e-07
-1.39586e-08
-5.18187e-07
-1.37154e-08
-5.04227e-07
-1.36912e-08
-4.90049e-07
-1.38826e-08
-4.75433e-07
-1.42787e-08
-4.60222e-07
-1.48557e-08
-4.44227e-07
-1.56065e-08
-4.27319e-07
-1.65133e-08
-4.09333e-07
-1.75674e-08
-3.90167e-07
-1.87451e-08
-3.69686e-07
-2.00388e-08
-3.47812e-07
-2.14308e-08
-3.24434e-07
-2.29151e-08
-2.99508e-07
-2.44628e-08
-2.72967e-07
-2.60619e-08
-2.44787e-07
-2.77038e-08
-2.14913e-07
-2.9386e-08
-1.83367e-07
-3.10648e-08
-1.50136e-07
-3.27438e-08
-1.15174e-07
-3.44858e-08
-7.85053e-08
-3.61942e-08
-4.0345e-08
-3.77028e-08
-9.39941e-10
-3.89549e-08
3.92203e-08
-3.97333e-08
7.99983e-08
-4.03717e-08
1.2187e-07
-4.15014e-08
1.65335e-07
-4.31183e-08
2.10622e-07
-4.49746e-08
2.57876e-07
-4.6965e-08
3.07165e-07
-4.90321e-08
3.58525e-07
-5.11254e-08
4.11936e-07
-5.32046e-08
4.67331e-07
-5.52106e-08
5.24566e-07
-5.70761e-08
5.83388e-07
-5.86826e-08
6.43364e-07
-5.98613e-08
7.03723e-07
-6.02647e-08
7.6296e-07
-5.91667e-08
8.17669e-07
-5.46545e-08
8.59581e-07
-4.18673e-08
1.14476e-08
8.48183e-07
1.14278e-08
-3.37359e-08
1.32714e-08
-1.99898e-08
8.94991e-09
-5.20592e-09
2.01816e-10
7.81721e-09
-1.24128e-08
1.90837e-08
-2.87362e-08
2.86205e-08
-4.86328e-08
3.6539e-08
-7.18864e-08
4.30739e-08
-9.8235e-08
4.85399e-08
-1.27444e-07
5.32691e-08
-1.59342e-07
5.75338e-08
-1.93968e-07
6.14027e-08
-2.31798e-07
6.46483e-08
-2.72888e-07
6.75305e-08
-3.1647e-07
7.10228e-08
-3.62341e-07
7.539e-08
-4.102e-07
8.04963e-08
-4.58846e-07
8.60669e-08
-5.0557e-07
9.12714e-08
-5.55498e-07
9.41616e-08
-6.11477e-07
9.50535e-08
-6.63829e-07
9.74e-08
-7.12809e-07
9.97979e-08
-7.6335e-07
1.00712e-07
-8.14923e-07
1.00707e-07
-8.64934e-07
1.00833e-07
-9.14352e-07
1.00659e-07
-9.63142e-07
1.00136e-07
-1.01118e-06
9.93599e-08
-1.05841e-06
9.83992e-08
-1.10483e-06
9.7297e-08
-1.15045e-06
9.60883e-08
-1.19529e-06
9.48062e-08
-1.23936e-06
9.34813e-08
-1.2827e-06
9.21409e-08
-1.32533e-06
9.08061e-08
-1.36728e-06
8.94948e-08
-1.40859e-06
8.82194e-08
-1.44928e-06
8.69896e-08
-1.48939e-06
8.58105e-08
-1.52894e-06
8.46856e-08
-1.56796e-06
8.36142e-08
-1.60647e-06
8.25952e-08
-1.6445e-06
8.16241e-08
-1.68206e-06
8.06963e-08
-1.71915e-06
7.98045e-08
-1.75579e-06
7.8942e-08
-1.79199e-06
7.80998e-08
-1.82773e-06
7.72703e-08
-1.86303e-06
7.64438e-08
-1.89786e-06
7.56121e-08
-1.93222e-06
7.47651e-08
-1.96608e-06
7.38944e-08
-1.99943e-06
7.299e-08
-2.03224e-06
7.2043e-08
-2.06448e-06
7.1043e-08
-2.0961e-06
6.99813e-08
-2.12708e-06
6.88483e-08
-2.15737e-06
6.76356e-08
-2.18692e-06
6.63335e-08
-2.21568e-06
6.49335e-08
-2.24361e-06
6.34257e-08
-2.27063e-06
6.18015e-08
-2.2967e-06
6.00516e-08
-2.32174e-06
5.81671e-08
-2.3457e-06
5.61391e-08
-2.36849e-06
5.39586e-08
-2.39005e-06
5.16171e-08
-2.4103e-06
4.91052e-08
-2.42916e-06
4.64148e-08
-2.44655e-06
4.35361e-08
-2.46239e-06
4.04613e-08
-2.4766e-06
3.718e-08
-2.48908e-06
3.36845e-08
-2.49976e-06
2.99655e-08
-2.50855e-06
2.60217e-08
-2.51541e-06
2.18534e-08
-2.52031e-06
1.74754e-08
-2.52326e-06
1.29023e-08
-2.52429e-06
8.16309e-09
-2.52345e-06
3.28413e-09
-2.52066e-06
-1.71026e-09
-2.51569e-06
-6.8445e-09
-2.50823e-06
-1.2126e-08
-2.49816e-06
-1.75504e-08
-2.48538e-06
-2.31026e-08
-2.46985e-06
-2.87788e-08
-2.45152e-06
-3.45575e-08
-2.43038e-06
-4.04332e-08
-2.40639e-06
-4.6363e-08
-2.37951e-06
-5.23162e-08
-2.34972e-06
-5.8248e-08
-2.31708e-06
-6.4117e-08
-2.28162e-06
-6.98972e-08
-2.24343e-06
-7.55431e-08
-2.20258e-06
-8.10228e-08
-2.15918e-06
-8.62834e-08
-2.11338e-06
-9.12908e-08
-2.0653e-06
-9.59902e-08
-2.01514e-06
-1.00349e-07
-1.96307e-06
-1.04318e-07
-1.90931e-06
-1.07867e-07
-1.85406e-06
-1.10953e-07
-1.79757e-06
-1.13565e-07
-1.74011e-06
-1.15691e-07
-1.68198e-06
-1.17304e-07
-1.62341e-06
-1.18408e-07
-1.56468e-06
-1.19009e-07
-1.50604e-06
-1.19102e-07
-1.44777e-06
-1.18688e-07
-1.39007e-06
-1.17782e-07
-1.33322e-06
-1.16395e-07
-1.2774e-06
-1.14553e-07
-1.22284e-06
-1.12276e-07
-1.16972e-06
-1.096e-07
-1.11822e-06
-1.0655e-07
-1.06847e-06
-1.03173e-07
-1.02063e-06
-9.95023e-08
-9.74775e-07
-9.55867e-08
-9.30993e-07
-9.14627e-08
-8.89329e-07
-8.71834e-08
-8.49823e-07
-8.27868e-08
-8.12505e-07
-7.83285e-08
-7.77384e-07
-7.38514e-08
-7.4444e-07
-6.94124e-08
-7.1362e-07
-6.50474e-08
-6.84855e-07
-6.08032e-08
-6.58049e-07
-5.67098e-08
-6.33097e-07
-5.28063e-08
-6.0987e-07
-4.91184e-08
-5.88237e-07
-4.56771e-08
-5.68044e-07
-4.2505e-08
-5.49138e-07
-3.96243e-08
-5.31344e-07
-3.70538e-08
-5.14495e-07
-3.48098e-08
-4.98406e-07
-3.29089e-08
-4.82896e-07
-3.13575e-08
-4.6777e-07
-3.01493e-08
-4.52845e-07
-2.92864e-08
-4.37943e-07
-2.87712e-08
-4.22906e-07
-2.86397e-08
-4.07556e-07
-2.88985e-08
-3.91724e-07
-2.95682e-08
-3.75221e-07
-3.06079e-08
-3.57889e-07
-3.20128e-08
-3.39559e-07
-3.3736e-08
-3.20099e-07
-3.57776e-08
-2.99363e-07
-3.80848e-08
-2.77247e-07
-4.06504e-08
-2.53633e-07
-4.34216e-08
-2.2844e-07
-4.63999e-08
-2.01576e-07
-4.95354e-08
-1.7299e-07
-5.28139e-08
-1.42624e-07
-5.61756e-08
-1.10449e-07
-5.96366e-08
-7.64237e-08
-6.31553e-08
-4.05537e-08
-6.66906e-08
-2.86275e-09
-7.01811e-08
3.65028e-08
-7.36122e-08
7.74741e-08
-7.69232e-08
1.20174e-07
-8.01788e-08
1.64785e-07
-8.33436e-08
2.11543e-07
-8.62867e-08
2.60523e-07
-8.91532e-08
3.11505e-07
-9.23011e-08
3.64346e-07
-9.5784e-08
4.1903e-07
-9.95005e-08
4.75567e-07
-1.03352e-07
5.33937e-07
-1.07268e-07
5.94101e-07
-1.11168e-07
6.55977e-07
-1.14971e-07
7.19435e-07
-1.18571e-07
7.84267e-07
-1.21823e-07
8.50163e-07
-1.24507e-07
9.16628e-07
-1.26265e-07
9.82881e-07
-1.26473e-07
1.04746e-06
-1.23715e-07
1.10835e-06
-1.15517e-07
1.16037e-06
-9.38776e-08
-3.37733e-08
1.20561e-06
-4.29476e-09
-2.94171e-08
-1.54056e-08
-8.85677e-09
-2.96548e-08
9.05563e-09
-4.62508e-08
2.44242e-08
-6.50484e-08
3.78894e-08
-8.61721e-08
4.97525e-08
-1.09828e-07
6.02017e-08
-1.36182e-07
6.9435e-08
-1.65321e-07
7.76847e-08
-1.9723e-07
8.51843e-08
-2.31803e-07
9.2113e-08
-2.6893e-07
9.8535e-08
-3.08663e-07
1.04387e-07
-3.50922e-07
1.09795e-07
-3.95015e-07
1.15122e-07
-4.40169e-07
1.2055e-07
-4.85651e-07
1.25985e-07
-5.3073e-07
1.31151e-07
-5.75048e-07
1.35595e-07
-6.19712e-07
1.38831e-07
-6.65543e-07
1.4089e-07
-7.10668e-07
1.42529e-07
-7.54643e-07
1.43778e-07
-7.98274e-07
1.44346e-07
-8.41885e-07
1.44323e-07
-8.84964e-07
1.43915e-07
-9.27425e-07
1.43126e-07
-9.69303e-07
1.42016e-07
-1.01059e-06
1.40652e-07
-1.05129e-06
1.39098e-07
-1.09139e-06
1.37405e-07
-1.13091e-06
1.35619e-07
-1.16988e-06
1.33776e-07
-1.2083e-06
1.31908e-07
-1.2462e-06
1.30044e-07
-1.28359e-06
1.28204e-07
-1.32049e-06
1.26405e-07
-1.35693e-06
1.2466e-07
-1.39291e-06
1.22976e-07
-1.42845e-06
1.21359e-07
-1.46357e-06
1.1981e-07
-1.49827e-06
1.18328e-07
-1.53258e-06
1.16908e-07
-1.56649e-06
1.15544e-07
-1.60001e-06
1.1423e-07
-1.63316e-06
1.12955e-07
-1.66591e-06
1.1171e-07
-1.69829e-06
1.10484e-07
-1.73027e-06
1.09264e-07
-1.76186e-06
1.0804e-07
-1.79304e-06
1.06799e-07
-1.82379e-06
1.05528e-07
-1.8541e-06
1.04215e-07
-1.88395e-06
1.02847e-07
-1.9133e-06
1.0141e-07
-1.94214e-06
9.98932e-08
-1.97043e-06
9.82821e-08
-1.99814e-06
9.65647e-08
-2.02522e-06
9.4729e-08
-2.05163e-06
9.27625e-08
-2.07733e-06
9.06526e-08
-2.10228e-06
8.83869e-08
-2.12641e-06
8.59533e-08
-2.14968e-06
8.33392e-08
-2.17203e-06
8.05331e-08
-2.19339e-06
7.75228e-08
-2.21371e-06
7.42966e-08
-2.23292e-06
7.08431e-08
-2.25095e-06
6.71509e-08
-2.26772e-06
6.32091e-08
-2.28318e-06
5.90071e-08
-2.29724e-06
5.45348e-08
-2.30983e-06
4.97825e-08
-2.32087e-06
4.47434e-08
-2.3303e-06
3.9411e-08
-2.33805e-06
3.3785e-08
-2.34405e-06
2.78709e-08
-2.34824e-06
2.16804e-08
-2.35055e-06
1.52281e-08
-2.35091e-06
8.52877e-09
-2.3492e-06
1.58974e-09
-2.34531e-06
-5.59416e-09
-2.33911e-06
-1.30358e-08
-2.33049e-06
-2.07284e-08
-2.31938e-06
-2.86541e-08
-2.3057e-06
-3.67868e-08
-2.28938e-06
-4.51021e-08
-2.27039e-06
-5.35718e-08
-2.24872e-06
-6.21603e-08
-2.22434e-06
-7.08313e-08
-2.19721e-06
-7.95234e-08
-2.16735e-06
-8.81798e-08
-2.13478e-06
-9.67515e-08
-2.09956e-06
-1.05175e-07
-2.06176e-06
-1.13399e-07
-2.02147e-06
-1.21356e-07
-1.97882e-06
-1.28988e-07
-1.93391e-06
-1.36223e-07
-1.88693e-06
-1.43003e-07
-1.83802e-06
-1.4926e-07
-1.78738e-06
-1.54938e-07
-1.73522e-06
-1.59982e-07
-1.68175e-06
-1.64345e-07
-1.62722e-06
-1.68002e-07
-1.57188e-06
-1.7092e-07
-1.51601e-06
-1.73078e-07
-1.45985e-06
-1.7447e-07
-1.40367e-06
-1.75112e-07
-1.34769e-06
-1.74996e-07
-1.29219e-06
-1.74139e-07
-1.23736e-06
-1.72555e-07
-1.18345e-06
-1.70278e-07
-1.13064e-06
-1.67339e-07
-1.07912e-06
-1.63784e-07
-1.02906e-06
-1.59655e-07
-9.80623e-07
-1.55009e-07
-9.33919e-07
-1.499e-07
-8.89069e-07
-1.44396e-07
-8.46146e-07
-1.38555e-07
-8.05212e-07
-1.32447e-07
-7.66296e-07
-1.26136e-07
-7.29427e-07
-1.19691e-07
-6.94606e-07
-1.13179e-07
-6.61828e-07
-1.06675e-07
-6.31051e-07
-1.00245e-07
-6.02217e-07
-9.39548e-08
-5.75244e-07
-8.78602e-08
-5.50033e-07
-8.20157e-08
-5.26471e-07
-7.64697e-08
-5.04429e-07
-7.1266e-08
-4.83769e-07
-6.6444e-08
-4.64339e-07
-6.20387e-08
-4.45983e-07
-5.80802e-08
-4.28533e-07
-5.45943e-08
-4.1182e-07
-5.16032e-08
-3.95666e-07
-4.91255e-08
-3.79894e-07
-4.71692e-08
-3.64323e-07
-4.57324e-08
-3.4877e-07
-4.48157e-08
-3.33072e-07
-4.44274e-08
-3.17063e-07
-4.45878e-08
-3.00591e-07
-4.53156e-08
-2.83484e-07
-4.661e-08
-2.65585e-07
-4.84468e-08
-2.4673e-07
-5.07954e-08
-2.26779e-07
-5.36207e-08
-2.05588e-07
-5.68911e-08
-1.83041e-07
-6.05624e-08
-1.5902e-07
-6.45931e-08
-1.33431e-07
-6.89382e-08
-1.06183e-07
-7.35669e-08
-7.72062e-08
-7.84382e-08
-4.64356e-08
-8.35023e-08
-1.38343e-08
-8.87011e-08
2.06128e-08
-9.40015e-08
5.68893e-08
-9.93563e-08
9.50192e-08
-1.04741e-07
1.35046e-07
-1.10136e-07
1.77009e-07
-1.15501e-07
2.20941e-07
-1.20789e-07
2.6685e-07
-1.2602e-07
3.14743e-07
-1.31176e-07
3.64727e-07
-1.3621e-07
4.16843e-07
-1.41216e-07
4.70988e-07
-1.46391e-07
5.27043e-07
-1.5179e-07
5.84948e-07
-1.57358e-07
6.44656e-07
-1.63017e-07
7.06114e-07
-1.68685e-07
7.69248e-07
-1.74265e-07
8.33949e-07
-1.79637e-07
9.0006e-07
-1.84651e-07
9.67357e-07
-1.8909e-07
1.03552e-06
-1.92641e-07
1.10407e-06
-1.9479e-07
1.1723e-06
-1.94685e-07
1.23918e-06
-1.90575e-07
1.30331e-06
-1.79636e-07
1.36342e-06
-1.53973e-07
-9.62203e-08
1.42589e-06
-1.71106e-08
-1.22861e-08
-3.75099e-08
1.15596e-08
-5.91467e-08
3.0702e-08
-8.1795e-08
4.70809e-08
-1.05579e-07
6.168e-08
-1.30727e-07
7.49068e-08
-1.57487e-07
8.69671e-08
-1.86055e-07
9.80086e-08
-2.16534e-07
1.08169e-07
-2.48916e-07
1.17571e-07
-2.83093e-07
1.26295e-07
-3.18921e-07
1.34367e-07
-3.56311e-07
1.41782e-07
-3.95091e-07
1.48579e-07
-4.3483e-07
1.54866e-07
-4.74987e-07
1.60711e-07
-5.15074e-07
1.66078e-07
-5.54756e-07
1.70837e-07
-5.93965e-07
1.74809e-07
-6.32984e-07
1.77853e-07
-6.7207e-07
1.79981e-07
-7.10924e-07
1.81386e-07
-7.49314e-07
1.82173e-07
-7.87316e-07
1.82351e-07
-8.2498e-07
1.81992e-07
-8.62257e-07
1.81195e-07
-8.99143e-07
1.80017e-07
-9.35648e-07
1.78523e-07
-9.71766e-07
1.76775e-07
-1.0075e-06
1.74833e-07
-1.04284e-06
1.7275e-07
-1.07779e-06
1.70573e-07
-1.11235e-06
1.68343e-07
-1.14654e-06
1.66094e-07
-1.18034e-06
1.63854e-07
-1.21378e-06
1.61645e-07
-1.24685e-06
1.59484e-07
-1.27957e-06
1.57382e-07
-1.31194e-06
1.55349e-07
-1.34396e-06
1.53388e-07
-1.37565e-06
1.515e-07
-1.407e-06
1.49683e-07
-1.43802e-06
1.47932e-07
-1.46871e-06
1.4624e-07
-1.49907e-06
1.44598e-07
-1.5291e-06
1.42995e-07
-1.5588e-06
1.41419e-07
-1.58817e-06
1.39856e-07
-1.61719e-06
1.38294e-07
-1.64586e-06
1.36717e-07
-1.67416e-06
1.3511e-07
-1.70208e-06
1.33459e-07
-1.72961e-06
1.31747e-07
-1.75671e-06
1.29959e-07
-1.78337e-06
1.2808e-07
-1.80956e-06
1.26093e-07
-1.83525e-06
1.23982e-07
-1.86041e-06
1.21733e-07
-1.885e-06
1.19329e-07
-1.90898e-06
1.16756e-07
-1.93231e-06
1.13998e-07
-1.95495e-06
1.11039e-07
-1.97685e-06
1.07863e-07
-1.99795e-06
1.04457e-07
-2.01821e-06
1.00804e-07
-2.03756e-06
9.68901e-08
-2.05595e-06
9.27006e-08
-2.07331e-06
8.82212e-08
-2.08959e-06
8.3438e-08
-2.1047e-06
7.83375e-08
-2.11859e-06
7.29071e-08
-2.13118e-06
6.71351e-08
-2.14239e-06
6.10111e-08
-2.15216e-06
5.45259e-08
-2.16041e-06
4.76739e-08
-2.16707e-06
4.04533e-08
-2.17206e-06
3.28657e-08
-2.17528e-06
2.49171e-08
-2.17666e-06
1.66147e-08
-2.17609e-06
7.96387e-09
-2.17345e-06
-1.03311e-09
-2.16866e-06
-1.03774e-08
-2.16163e-06
-2.00668e-08
-2.15226e-06
-3.00869e-08
-2.1405e-06
-4.04137e-08
-2.12627e-06
-5.10152e-08
-2.10952e-06
-6.18552e-08
-2.09021e-06
-7.28914e-08
-2.06834e-06
-8.40816e-08
-2.04387e-06
-9.5356e-08
-2.01678e-06
-1.06664e-07
-1.98708e-06
-1.17921e-07
-1.95482e-06
-1.2906e-07
-1.92003e-06
-1.39999e-07
-1.88279e-06
-1.50666e-07
-1.8432e-06
-1.60973e-07
-1.80137e-06
-1.70839e-07
-1.75742e-06
-1.80175e-07
-1.71152e-06
-1.88902e-07
-1.66383e-06
-1.96932e-07
-1.61454e-06
-2.04192e-07
-1.56385e-06
-2.10612e-07
-1.51197e-06
-2.16133e-07
-1.45916e-06
-2.20715e-07
-1.40567e-06
-2.2432e-07
-1.35173e-06
-2.26927e-07
-1.2976e-06
-2.2852e-07
-1.24352e-06
-2.29115e-07
-1.18974e-06
-2.28714e-07
-1.13649e-06
-2.27344e-07
-1.08398e-06
-2.25027e-07
-1.03242e-06
-2.21816e-07
-9.81985e-07
-2.17751e-07
-9.32861e-07
-2.12902e-07
-8.85194e-07