/*--------------------------------*- C++ -*----------------------------------*\
  =========                 |
  \\      /  F ield         | OpenFOAM: The Open Source CFD Toolbox
   \\    /   O peration     | Website:  https://openfoam.org
    \\  /    A nd           | Version:  8
     \\/     M anipulation  |
\*---------------------------------------------------------------------------*/
FoamFile
{
    version     2.0;
    format      ascii;
    class       volVectorField;
    location    "130";
    object      U;
}
// * * * * * * * * * * * * * * * * * * * * * * * * * * * * * * * * * * * * * //

dimensions      [0 1 -1 0 0 0 0];

internalField   nonuniform List<vector> 
12225
(
(9.85699 -0.886393 0)
(9.66661 -0.740757 0)
(9.45565 -0.429461 0)
(9.22436 -0.22221 0)
(9.00625 -0.106433 0)
(8.81397 -0.0458377 0)
(8.64684 -0.0151506 0)
(8.50453 0.000501217 0)
(8.38247 0.00845254 0)
(8.27943 0.0123673 0)
(8.19037 0.0141191 0)
(8.11358 0.015184 0)
(8.04563 0.0156631 0)
(7.98517 0.0160678 0)
(7.92926 0.0162653 0)
(7.87923 0.0172914 0)
(7.81558 0.0182197 0)
(7.80423 0.0199088 0)
(10.0545 0.227544 0)
(10.1211 0.326944 0)
(10.1196 0.261579 0)
(10.0855 0.186578 0)
(10.0433 0.134702 0)
(9.99656 0.101169 0)
(9.94379 0.0793642 0)
(9.88484 0.0646567 0)
(9.82338 0.0543863 0)
(9.76057 0.0468462 0)
(9.69889 0.0411576 0)
(9.63863 0.0367206 0)
(9.58089 0.033239 0)
(9.5258 0.030684 0)
(9.4729 0.0287179 0)
(9.42466 0.0290715 0)
(9.37391 0.0280474 0)
(9.34419 0.0441675 0)
(10.0035 0.0579211 0)
(10.0303 0.0560197 0)
(10.056 0.0338105 0)
(10.0703 0.032933 0)
(10.0769 0.0407048 0)
(10.0776 0.0466204 0)
(10.0723 0.0494593 0)
(10.061 0.0504393 0)
(10.0456 0.050389 0)
(10.027 0.0497455 0)
(10.0062 0.0488059 0)
(9.98358 0.0477971 0)
(9.95998 0.0468512 0)
(9.93567 0.0461909 0)
(9.91079 0.0457631 0)
(9.88639 0.0467389 0)
(9.86138 0.0477287 0)
(9.83958 0.0552219 0)
(9.99779 0.0110614 0)
(10.011 0.026629 0)
(10.035 0.0371878 0)
(10.0524 0.0481391 0)
(10.0642 0.055527 0)
(10.0732 0.0582852 0)
(10.0792 0.0584906 0)
(10.082 0.0577972 0)
(10.0822 0.056815 0)
(10.0805 0.0557138 0)
(10.0771 0.0545783 0)
(10.0725 0.0535525 0)
(10.0666 0.0526686 0)
(10.06 0.0521206 0)
(10.0525 0.0518877 0)
(10.0449 0.0527533 0)
(10.0371 0.0540293 0)
(10.0305 0.0582238 0)
(9.99935 0.0072078 0)
(10.009 0.0316843 0)
(10.0274 0.0439695 0)
(10.0417 0.0499921 0)
(10.0526 0.0537075 0)
(10.0627 0.0553649 0)
(10.0713 0.05569 0)
(10.0779 0.0554593 0)
(10.0829 0.0549984 0)
(10.0866 0.0544094 0)
(10.0891 0.0537646 0)
(10.0908 0.0531858 0)
(10.0915 0.0527288 0)
(10.0918 0.0525489 0)
(10.0914 0.0526867 0)
(10.091 0.0535735 0)
(10.0907 0.054914 0)
(10.0914 0.0574241 0)
(10.0003 0.00919071 0)
(10.0083 0.0312074 0)
(10.0227 0.0410021 0)
(10.0349 0.0454775 0)
(10.0449 0.0491544 0)
(10.0546 0.0515293 0)
(10.0635 0.0525635 0)
(10.071 0.0528668 0)
(10.0773 0.052829 0)
(10.0828 0.0525988 0)
(10.0874 0.0522699 0)
(10.0913 0.0519571 0)
(10.0947 0.0517348 0)
(10.0976 0.051723 0)
(10.1001 0.051979 0)
(10.1027 0.0527176 0)
(10.1055 0.053787 0)
(10.1091 0.0552255 0)
(10.0005 0.00895963 0)
(10.0071 0.027131 0)
(10.019 0.0364829 0)
(10.0301 0.0414912 0)
(10.0395 0.0455521 0)
(10.0485 0.0482637 0)
(10.057 0.0495934 0)
(10.0646 0.050143 0)
(10.0712 0.0503241 0)
(10.0772 0.0502941 0)
(10.0825 0.0501484 0)
(10.0874 0.0499894 0)
(10.0918 0.0498946 0)
(10.0958 0.0499526 0)
(10.0997 0.0502119 0)
(10.1036 0.0507615 0)
(10.1077 0.051489 0)
(10.1124 0.0522235 0)
(10.0004 0.00793327 0)
(10.006 0.0234332 0)
(10.0161 0.0328172 0)
(10.0262 0.0382186 0)
(10.035 0.0422561 0)
(10.0434 0.0449917 0)
(10.0515 0.0464703 0)
(10.0588 0.0471925 0)
(10.0655 0.047532 0)
(10.0715 0.0476455 0)
(10.0771 0.0476275 0)
(10.0823 0.0475699 0)
(10.0872 0.0475464 0)
(10.0918 0.0476204 0)
(10.0962 0.0478237 0)
(10.1007 0.0481752 0)
(10.1055 0.0485734 0)
(10.1106 0.0488165 0)
(10.0004 0.00698006 0)
(10.005 0.0204894 0)
(10.0136 0.0295475 0)
(10.0228 0.0349951 0)
(10.0311 0.0388934 0)
(10.039 0.0416133 0)
(10.0466 0.0432194 0)
(10.0537 0.0440888 0)
(10.0602 0.0445533 0)
(10.0663 0.044774 0)
(10.0719 0.0448458 0)
(10.0772 0.044852 0)
(10.0822 0.044858 0)
(10.0871 0.0449096 0)
(10.0918 0.045022 0)
(10.0966 0.04518 0)
(10.1015 0.0452893 0)
(10.1067 0.0451839 0)
(10.0004 0.00615164 0)
(10.0043 0.0179323 0)
(10.0116 0.0263815 0)
(10.0198 0.0317315 0)
(10.0275 0.0355082 0)
(10.035 0.0381976 0)
(10.0422 0.0398889 0)
(10.049 0.0408671 0)
(10.0554 0.0414239 0)
(10.0613 0.0417217 0)
(10.0669 0.041854 0)
(10.0722 0.0418955 0)
(10.0773 0.0419023 0)
(10.0822 0.0419077 0)
(10.0871 0.0419152 0)
(10.0919 0.0418963 0)
(10.0969 0.0417694 0)
(10.1019 0.0414175 0)
(10.0003 0.00539397 0)
(10.0036 0.0156309 0)
(10.0099 0.0233547 0)
(10.0172 0.0285108 0)
(10.0244 0.0321494 0)
(10.0314 0.0347663 0)
(10.0382 0.0364866 0)
(10.0448 0.0375325 0)
(10.0509 0.0381522 0)
(10.0567 0.0385017 0)
(10.0622 0.0386712 0)
(10.0675 0.0387265 0)
(10.0726 0.0387155 0)
(10.0775 0.0386627 0)
(10.0824 0.038566 0)
(10.0872 0.038395 0)
(10.092 0.0380849 0)
(10.0969 0.0375624 0)
(10.0003 0.0047306 0)
(10.0032 0.0136951 0)
(10.0086 0.0207163 0)
(10.0152 0.0256102 0)
(10.0219 0.0290857 0)
(10.0284 0.0315998 0)
(10.0349 0.0333033 0)
(10.0412 0.0343767 0)
(10.0472 0.0350291 0)
(10.0528 0.0354051 0)
(10.0583 0.0355899 0)
(10.0635 0.0356427 0)
(10.0685 0.0356045 0)
(10.0734 0.0354944 0)
(10.0782 0.035309 0)
(10.0829 0.0350223 0)
(10.0876 0.0345851 0)
(10.0923 0.0339581 0)
(10.0003 0.00411751 0)
(10.0028 0.0119328 0)
(10.0075 0.018226 0)
(10.0134 0.0227806 0)
(10.0196 0.0260577 0)
(10.0258 0.0284423 0)
(10.032 0.0300947 0)
(10.038 0.0311663 0)
(10.0437 0.0318301 0)
(10.0493 0.0322154 0)
(10.0546 0.032402 0)
(10.0597 0.0324427 0)
(10.0646 0.0323729 0)
(10.0695 0.0322085 0)
(10.0742 0.0319469 0)
(10.0788 0.0315692 0)
(10.0833 0.0310392 0)
(10.0878 0.0303449 0)
(10.0002 0.00348382 0)
(10.0024 0.0100998 0)
(10.0064 0.0155531 0)
(10.0117 0.019643 0)
(10.0174 0.0226371 0)
(10.0232 0.0248311 0)
(10.0289 0.0263796 0)
(10.0347 0.0274089 0)
(10.0402 0.0280552 0)
(10.0456 0.0284285 0)
(10.0507 0.0286 0)
(10.0557 0.0286163 0)
(10.0606 0.0285067 0)
(10.0653 0.0282861 0)
(10.0699 0.0279536 0)
(10.0743 0.0274989 0)
(10.0787 0.0268982 0)
(10.083 0.0261604 0)
(10.0002 0.0028254 0)
(10.002 0.00819455 0)
(10.0055 0.0127071 0)
(10.0101 0.0162014 0)
(10.0153 0.0188092 0)
(10.0206 0.0207351 0)
(10.026 0.0221128 0)
(10.0314 0.0230444 0)
(10.0367 0.023632 0)
(10.0419 0.0239625 0)
(10.0469 0.0240962 0)
(10.0517 0.0240721 0)
(10.0564 0.0239155 0)
(10.061 0.023639 0)
(10.0654 0.0232466 0)
(10.0697 0.0227337 0)
(10.0739 0.0220903 0)
(10.0779 0.0213361 0)
(10.0002 0.00214126 0)
(10.0017 0.00621799 0)
(10.0047 0.00969491 0)
(10.0088 0.0124585 0)
(10.0134 0.0145587 0)
(10.0183 0.0161209 0)
(10.0233 0.0172456 0)
(10.0284 0.0180089 0)
(10.0334 0.0184829 0)
(10.0383 0.0187299 0)
(10.0431 0.018797 0)
(10.0478 0.0187147 0)
(10.0524 0.0185037 0)
(10.0567 0.0181757 0)
(10.061 0.0177369 0)
(10.0651 0.0171896 0)
(10.069 0.0165304 0)
(10.0728 0.0157883 0)
(10.0002 0.00142804 0)
(10.0015 0.00415458 0)
(10.0041 0.00649813 0)
(10.0076 0.00839426 0)
(10.0118 0.00985299 0)
(10.0163 0.0109398 0)
(10.021 0.0117157 0)
(10.0258 0.0122296 0)
(10.0305 0.012525 0)
(10.0352 0.0126417 0)
(10.0398 0.0126097 0)
(10.0443 0.0124512 0)
(10.0486 0.0121802 0)
(10.0528 0.0118074 0)
(10.0569 0.0113385 0)
(10.0608 0.0107801 0)
(10.0645 0.0101315 0)
(10.0681 0.00942467 0)
(10.0001 0.000668782 0)
(10.0013 0.00195079 0)
(10.0036 0.00304194 0)
(10.0069 0.003925 0)
(10.0107 0.00459756 0)
(10.0149 0.00508255 0)
(10.0193 0.00540261 0)
(10.0238 0.00557693 0)
(10.0283 0.00562317 0)
(10.0328 0.00555783 0)
(10.0372 0.00539382 0)
(10.0415 0.00514121 0)
(10.0456 0.00480691 0)
(10.0496 0.00439685 0)
(10.0535 0.00391545 0)
(10.0572 0.00336805 0)
(10.0607 0.00275578 0)
(10.0641 0.00210698 0)
(10.0001 -0.000179849 0)
(10.0013 -0.000516617 0)
(10.0035 -0.000848664 0)
(10.0066 -0.00114305 0)
(10.0103 -0.00140181 0)
(10.0144 -0.00163842 0)
(10.0186 -0.00187191 0)
(10.023 -0.00211479 0)
(10.0274 -0.00237657 0)
(10.0317 -0.00266378 0)
(10.0359 -0.0029834 0)
(10.04 -0.00333912 0)
(10.044 -0.0037344 0)
(10.0479 -0.00416983 0)
(10.0515 -0.00464631 0)
(10.0551 -0.00516175 0)
(10.0584 -0.00571729 0)
(10.0616 -0.0062907 0)
(10.0001 -0.000992333 0)
(10.0013 -0.00288705 0)
(10.0037 -0.00459215 0)
(10.007 -0.00600946 0)
(10.0109 -0.00713681 0)
(10.0151 -0.00803504 0)
(10.0195 -0.0087653 0)
(10.0239 -0.00937181 0)
(10.0283 -0.00988878 0)
(10.0326 -0.0103503 0)
(10.0368 -0.0107813 0)
(10.0409 -0.0112011 0)
(10.0448 -0.0116206 0)
(10.0485 -0.01205 0)
(10.0521 -0.0124937 0)
(10.0556 -0.012956 0)
(10.0588 -0.0134386 0)
(10.0619 -0.013928 0)
(10.0002 -0.00169277 0)
(10.0015 -0.00495654 0)
(10.0041 -0.00786245 0)
(10.0078 -0.0101942 0)
(10.0121 -0.0119736 0)
(10.0165 -0.0133517 0)
(10.0211 -0.0144346 0)
(10.0257 -0.0152811 0)
(10.0302 -0.015948 0)
(10.0346 -0.0164961 0)
(10.0389 -0.0169697 0)
(10.043 -0.0173998 0)
(10.0469 -0.0178049 0)
(10.0506 -0.018201 0)
(10.0542 -0.0185965 0)
(10.0575 -0.0189984 0)
(10.0607 -0.0194104 0)
(10.0638 -0.0198224 0)
(10.0002 -0.00235754 0)
(10.0017 -0.00699982 0)
(10.0047 -0.0111275 0)
(10.009 -0.0142826 0)
(10.0138 -0.0165664 0)
(10.0186 -0.0182893 0)
(10.0235 -0.0196125 0)
(10.0283 -0.020607 0)
(10.033 -0.0213556 0)
(10.0376 -0.0219394 0)
(10.0419 -0.0224171 0)
(10.046 -0.0228245 0)
(10.0499 -0.0231907 0)
(10.0537 -0.0235334 0)
(10.0572 -0.0238685 0)
(10.0606 -0.0242012 0)
(10.0637 -0.0245399 0)
(10.0667 -0.0248745 0)
(10.0002 -0.00297927 0)
(10.0018 -0.00906728 0)
(10.0054 -0.0144118 0)
(10.0106 -0.0182907 0)
(10.016 -0.021026 0)
(10.0212 -0.0230414 0)
(10.0264 -0.0244923 0)
(10.0315 -0.025505 0)
(10.0365 -0.026234 0)
(10.0411 -0.02679 0)
(10.0455 -0.0272301 0)
(10.0497 -0.0275906 0)
(10.0537 -0.0279013 0)
(10.0574 -0.0281851 0)
(10.061 -0.0284563 0)
(10.0643 -0.0287233 0)
(10.0675 -0.0289919 0)
(10.0704 -0.0292575 0)
(10.0001 -0.00352713 0)
(10.0018 -0.0115285 0)
(10.0063 -0.017857 0)
(10.0123 -0.0219474 0)
(10.0184 -0.0250086 0)
(10.0241 -0.0274137 0)
(10.0298 -0.0290495 0)
(10.0352 -0.0300596 0)
(10.0403 -0.0307151 0)
(10.0451 -0.0311818 0)
(10.0496 -0.031527 0)
(10.0539 -0.0317927 0)
(10.0579 -0.0320119 0)
(10.0616 -0.0322101 0)
(10.0652 -0.0323994 0)
(10.0685 -0.0325888 0)
(10.0716 -0.03278 0)
(10.0745 -0.0329708 0)
(9.99991 -0.00337724 0)
(10.0016 -0.014951 0)
(10.0073 -0.0227032 0)
(10.0143 -0.0262098 0)
(10.0207 -0.0287928 0)
(10.0269 -0.0311554 0)
(10.0332 -0.0328756 0)
(10.0391 -0.0339643 0)
(10.0446 -0.0346671 0)
(10.0496 -0.0351369 0)
(10.0542 -0.0354447 0)
(10.0586 -0.0356451 0)
(10.0626 -0.0357841 0)
(10.0663 -0.0358923 0)
(10.0697 -0.0359886 0)
(10.0728 -0.0360824 0)
(10.0757 -0.0361788 0)
(10.0784 -0.0362756 0)
(9.9986 -0.000395479 0)
(9.9991 -0.0157439 0)
(10.0076 -0.0274127 0)
(10.0166 -0.0324697 0)
(10.0238 -0.0348436 0)
(10.0307 -0.0361972 0)
(10.0377 -0.0369481 0)
(10.0442 -0.0374156 0)
(10.05 -0.0377668 0)
(10.0551 -0.0380188 0)
(10.0597 -0.0381713 0)
(10.0638 -0.0382509 0)
(10.0674 -0.038286 0)
(10.0705 -0.038298 0)
(10.0733 -0.0383025 0)
(10.0757 -0.0383077 0)
(10.0779 -0.0383185 0)
(10.0797 -0.0383306 0)
(9.99488 0.00133745 0)
(9.99289 -0.00808371 0)
(10.0061 -0.0203392 0)
(10.0202 -0.0322612 0)
(10.0307 -0.0404614 0)
(10.0393 -0.0441311 0)
(10.0468 -0.0450424 0)
(10.053 -0.0448981 0)
(10.0579 -0.0444331 0)
(10.0618 -0.0438407 0)
(10.0648 -0.0432022 0)
(10.067 -0.0425745 0)
(10.0684 -0.041991 0)
(10.0693 -0.0414599 0)
(10.0696 -0.0409912 0)
(10.0694 -0.0405816 0)
(10.069 -0.0402282 0)
(10.0682 -0.0399063 0)
(9.99473 -0.03056 0)
(9.99926 -0.0228654 0)
(10.0147 -0.00262637 0)
(10.0304 -0.0018983 0)
(10.0435 -0.011646 0)
(10.0534 -0.0209087 0)
(10.0595 -0.027265 0)
(10.062 -0.0314929 0)
(10.0616 -0.0342691 0)
(10.0592 -0.0359678 0)
(10.0552 -0.0369047 0)
(10.0499 -0.0373443 0)
(10.0437 -0.0374778 0)
(10.0366 -0.0374246 0)
(10.0291 -0.0372753 0)
(10.0212 -0.0370851 0)
(10.013 -0.0369196 0)
(10.0048 -0.0367476 0)
(10.0273 -0.182757 0)
(10.0763 -0.288309 0)
(10.0872 -0.247749 0)
(10.0777 -0.186513 0)
(10.0664 -0.140288 0)
(10.0538 -0.108213 0)
(10.0366 -0.085873 0)
(10.0146 -0.0704133 0)
(9.98951 -0.0596455 0)
(9.96249 -0.0518744 0)
(9.93454 -0.0460559 0)
(9.90623 -0.0415624 0)
(9.87807 -0.0380118 0)
(9.85037 -0.0351434 0)
(9.82338 -0.0327847 0)
(9.79721 -0.0308729 0)
(9.77211 -0.0293681 0)
(9.7481 -0.0285608 0)
(9.93574 0.68932 0)
(9.86862 0.609608 0)
(9.76456 0.380627 0)
(9.62669 0.217447 0)
(9.48597 0.119273 0)
(9.35731 0.0631922 0)
(9.24281 0.0315806 0)
(9.14129 0.0136205 0)
(9.05162 0.00326652 0)
(8.97266 -0.00279673 0)
(8.90276 -0.00635464 0)
(8.84059 -0.00847623 0)
(8.78488 -0.00972994 0)
(8.73476 -0.0104799 0)
(8.6893 -0.0109873 0)
(8.64791 -0.0112619 0)
(8.60966 -0.0114758 0)
(8.57426 -0.0121441 0)
(0.0128435 -0.0243538 -6.16039e-19)
(0.0307095 -0.0251618 3.15357e-19)
(0.0415923 -0.0154767 0)
(0.0464266 -0.00392172 0)
(0.0438789 0.00611936 0)
(0.0352908 0.013614 -1.26329e-19)
(0.0222482 0.0186693 0)
(0.00596292 0.0218535 0)
(-0.0128238 0.0237922 0)
(-0.0336376 0.0250828 0)
(-0.0560097 0.0261572 9.09195e-20)
(-0.079451 0.0262785 0)
(-0.103746 0.0233344 0)
(-0.127614 0.0200052 0)
(-0.151002 0.0212329 0)
(-0.176605 0.0257569 7.16766e-20)
(-0.204372 0.033608 0)
(-0.234859 0.0458187 0)
(-0.267333 0.0629842 0)
(-0.307793 0.0507613 0)
(-0.35392 0.0209426 0)
(-0.389271 0.0351274 0)
(-0.428782 0.0514082 0)
(-0.475851 0.0454691 9.02075e-20)
(-0.522505 0.040831 -8.49406e-20)
(-0.564977 0.0464739 8.04493e-20)
(-0.611724 0.0473208 7.63156e-20)
(-0.658163 0.0473191 0)
(-0.704682 0.0471079 0)
(-0.751145 0.0467668 -6.60584e-20)
(-0.79744 0.0462883 -6.32892e-20)
(-0.843464 0.0456912 0)
(-0.889124 0.0450024 0)
(-0.934351 0.0442479 -5.64623e-20)
(-0.979096 0.0434549 0)
(-1.02334 0.0426442 0)
(-1.06706 0.0418356 5.1318e-20)
(-1.11026 0.041038 0)
(-1.15296 0.0402627 4.85448e-20)
(-1.19517 0.0395143 9.46198e-20)
(-1.2369 0.0388001 0)
(-1.27819 0.0381207 0)
(-1.31906 0.0374803 0)
(-1.35953 0.0368766 0)
(-1.39963 0.0363114 0)
(-1.43938 0.0357806 8.28624e-20)
(-1.47881 0.0352834 8.12795e-20)
(-1.51793 0.0348118 7.97732e-20)
(-1.55676 0.0343606 0)
(-1.59531 0.0339243 -7.69764e-20)
(-1.63357 0.0335032 0)
(-1.67156 0.0330915 7.44218e-20)
(-1.70926 0.0326872 7.32233e-20)
(-1.74667 0.0322842 0)
(-1.78378 0.0318803 0)
(-1.82056 0.031469 0)
(-1.857 0.0310485 6.885e-20)
(-1.89307 0.0306131 0)
(-1.92873 0.0301604 0)
(-1.96396 0.0296848 0)
(-1.9987 0.0291838 0)
(-2.03291 0.0286521 0)
(-2.06654 0.0280863 0)
(-2.09953 0.0274813 0)
(-2.13183 0.026833 0)
(-2.16335 0.0261356 -6.0688e-20)
(-2.19404 0.0253828 0)
(-2.2238 0.0245675 0)
(-2.25256 0.0236802 5.82622e-20)
(-2.28023 0.0227115 5.74678e-20)
(-2.30671 0.0216475 0)
(-2.3319 0.0204768 -5.58857e-20)
(-2.35567 0.0191837 5.50925e-20)
(-2.37791 0.0177603 0)
(-2.39849 0.016198 -5.34892e-20)
(-2.41728 0.0145116 0)
(-2.43413 0.0127201 0)
(-2.44888 0.0108532 5.10214e-20)
(-2.46135 0.00891742 0)
(-2.47133 0.00691773 -4.93188e-20)
(-2.4786 0.00486456 0)
(-2.48302 0.00281169 4.75224e-20)
(-2.48457 0.000831887 4.65379e-20)
(-2.48361 -0.00107685 4.55071e-20)
(-2.48006 -0.00301259 8.88468e-20)
(-2.47389 -0.00499052 -8.65641e-20)
(-2.46504 -0.00703211 0)
(-2.45351 -0.00912504 0)
(-2.43924 -0.0112779 0)
(-2.4222 -0.0134711 -7.60418e-20)
(-2.4023 -0.0156829 -7.30101e-20)
(-2.37949 -0.0179071 6.97966e-20)
(-2.35379 -0.0201282 0)
(-2.32523 -0.0223417 -6.27916e-20)
(-2.29386 -0.0245306 -5.8983e-20)
(-2.25972 -0.0266836 -5.49599e-20)
(-2.2229 -0.0287807 0)
(-2.18349 -0.0308087 0)
(-2.1416 -0.0327422 0)
(-2.09738 -0.0345629 -3.66233e-20)
(-2.05097 -0.0362709 0)
(-2.00253 -0.0378131 0)
(-1.95227 -0.0391544 2.04429e-20)
(-1.90041 -0.0402855 0)
(-1.8472 -0.0413708 0)
(-1.7928 -0.0423295 2.28901e-21)
(-1.73755 -0.0429884 0)
(-1.68169 -0.0434785 0)
(-1.62545 -0.0437766 1.75943e-20)
(-1.56909 -0.0438712 2.45365e-20)
(-1.51286 -0.0437745 0)
(-1.45698 -0.0434753 -3.87804e-20)
(-1.4017 -0.0429918 0)
(-1.34723 -0.0423164 5.3359e-20)
(-1.2938 -0.0414697 0)
(-1.24161 -0.0404465 6.80813e-20)
(-1.19083 -0.0392748 7.54312e-20)
(-1.14164 -0.0379569 0)
(-1.09419 -0.0365157 0)
(-1.04858 -0.0349564 0)
(-1.00491 -0.0333095 0)
(-0.96325 -0.0315823 0)
(-0.923676 -0.0298014 0)
(-0.886254 -0.0279781 0)
(-0.851018 -0.0261411 1.30508e-19)
(-0.817964 -0.0242994 -1.3655e-19)
(-0.787061 -0.0224765 0)
(-0.758253 -0.0206807 0)
(-0.731468 -0.0189315 0)
(-0.706613 -0.0172371 0)
(-0.683584 -0.0156122 -3.25441e-19)
(-0.66226 -0.0140663 0)
(-0.642509 -0.0126073 3.42484e-19)
(-0.624184 -0.0112453 -3.5022e-19)
(-0.607129 -0.00998601 0)
(-0.591185 -0.00884136 0)
(-0.576173 -0.00780804 0)
(-0.561903 -0.0068878 3.76845e-19)
(-0.548178 -0.00607315 3.82701e-19)
(-0.534832 -0.00537953 0)
(-0.521709 -0.00481806 3.93865e-19)
(-0.508632 -0.00440353 3.99293e-19)
(-0.495399 -0.00413616 -4.04711e-19)
(-0.481801 -0.00400521 0)
(-0.467648 -0.00400148 0)
(-0.452765 -0.00411825 -4.21823e-19)
(-0.43699 -0.00435079 0)
(-0.42017 -0.00469204 0)
(-0.402165 -0.00513407 0)
(-0.382848 -0.0056693 0)
(-0.362108 -0.0062917 4.58967e-19)
(-0.339841 -0.00699539 4.68673e-19)
(-0.315962 -0.00777023 0)
(-0.290401 -0.00860672 4.91385e-19)
(-0.263109 -0.0095034 0)
(-0.234037 -0.0104585 0)
(-0.203156 -0.0114547 5.36112e-19)
(-0.170465 -0.0124896 0)
(-0.135918 -0.013594 5.75344e-19)
(-0.0994965 -0.0147957 0)
(-0.0613103 -0.0160539 0)
(-0.0214879 -0.0172839 6.53828e-19)
(0.0197818 -0.0182521 0)
(0.0613874 -0.0186524 6.8351e-19)
(0.103737 -0.0188272 0)
(0.148034 -0.0192044 0)
(0.19427 -0.0197097 0)
(0.242633 -0.0202965 -6.23823e-19)
(0.293259 -0.0209352 0)
(0.346222 -0.0216017 5.97798e-19)
(0.401549 -0.0222767 0)
(0.459213 -0.0229367 0)
(0.519126 -0.0235521 0)
(0.581096 -0.0240796 0)
(0.644846 -0.0244502 0)
(0.709566 -0.0245382 0)
(0.775055 -0.0240381 0)
(0.835228 -0.0222965 -1.04938e-18)
(0.899113 -0.0174938 0)
(0.899624 0.0031686 0)
(0.00642937 -0.0616487 1.35477e-18)
(0.0127046 -0.0437454 -5.33393e-19)
(0.0107152 -0.019899 0)
(0.00486186 0.00142845 1.60452e-19)
(-0.00453571 0.0194912 0)
(-0.0174231 0.0340169 5.99563e-20)
(-0.0335736 0.0452258 -1.10173e-19)
(-0.0528218 0.0536791 -1.03547e-19)
(-0.0749936 0.0600835 0)
(-0.0998692 0.0651388 -9.59283e-20)
(-0.127161 0.069407 -4.71358e-20)
(-0.156839 0.0730886 0)
(-0.1894 0.0757677 0)
(-0.224666 0.077763 0)
(-0.262375 0.0810066 0)
(-0.302338 0.0857807 -4.12514e-20)
(-0.34409 0.0916028 0)
(-0.386928 0.0982654 8.11467e-20)
(-0.429416 0.105342 0)
(-0.47485 0.110745 0)
(-0.523025 0.113051 -8.26007e-20)
(-0.570696 0.116594 0)
(-0.615851 0.120009 7.3905e-20)
(-0.661455 0.121836 -3.49219e-20)
(-0.707396 0.121766 3.3428e-20)
(-0.753165 0.121637 -3.21967e-20)
(-0.798278 0.121285 -3.11335e-20)
(-0.842832 0.120364 0)
(-0.886766 0.119031 0)
(-0.930042 0.117394 2.84394e-20)
(-0.972641 0.115528 -2.74626e-20)
(-1.01456 0.113496 0)
(-1.05582 0.111353 0)
(-1.09644 0.109149 2.57138e-20)
(-1.13643 0.106927 0)
(-1.17581 0.104719 0)
(-1.21463 0.102552 -2.41603e-20)
(-1.25289 0.100442 0)
(-1.29064 0.098405 2.30884e-20)
(-1.3279 0.0964458 -4.57911e-20)
(-1.36469 0.0945706 0)
(-1.40104 0.0927777 0)
(-1.43697 0.091067 -8.69611e-20)
(-1.4725 0.0894318 -8.5698e-20)
(-1.50765 0.0878681 -8.44937e-20)
(-1.54243 0.0863661 4.14731e-20)
(-1.57685 0.084919 -4.13121e-20)
(-1.6109 0.0835153 -1.2194e-19)
(-1.6446 0.0821471 8.01346e-20)
(-1.67795 0.0808031 3.97644e-20)
(-1.71093 0.0794759 0)
(-1.74354 0.0781544 -3.88175e-20)
(-1.77576 0.076831 3.79861e-20)
(-1.80758 0.0754952 0)
(-1.83896 0.0741395 0)
(-1.86989 0.0727534 0)
(-1.90033 0.0713297 -3.6654e-20)
(-1.93025 0.0698593 0)
(-1.9596 0.0683362 7.13309e-20)
(-1.98836 0.0667513 0)
(-2.01647 0.0650985 6.97544e-20)
(-2.04389 0.0633696 0)
(-2.07056 0.0615588 -6.81983e-20)
(-2.09643 0.0596588 0)
(-2.12144 0.0576639 6.66469e-20)
(-2.14552 0.0555682 -3.27798e-20)
(-2.16862 0.0533658 0)
(-2.19066 0.0510522 -6.42942e-20)
(-2.21158 0.0486209 -3.18871e-20)
(-2.2313 0.0460681 -3.14758e-20)
(-2.24974 0.043386 0)
(-2.26684 0.0405702 -3.03895e-20)
(-2.28249 0.0376093 -3.019e-20)
(-2.29664 0.034497 0)
(-2.30918 0.0312171 2.92738e-20)
(-2.32005 0.027763 -5.74364e-20)
(-2.32918 0.0241253 0)
(-2.33653 0.0203138 -2.77919e-20)
(-2.34208 0.0163371 0)
(-2.34584 0.0122305 8.01245e-20)
(-2.34785 0.00803691 0)
(-2.34815 0.00384571 -7.66842e-20)
(-2.34663 -0.000293786 -2.49328e-20)
(-2.34287 -0.00439731 2.43183e-20)
(-2.33672 -0.00852516 4.73231e-20)
(-2.32808 -0.0126822 -4.59501e-20)
(-2.31689 -0.0168801 0)
(-2.30309 -0.0211029 0)
(-2.28665 -0.0253498 0)
(-2.26756 -0.0295958 1.18098e-19)
(-2.24574 -0.0338069 3.73261e-20)
(-2.22117 -0.0379537 -3.54047e-20)
(-2.19386 -0.0420084 0)
(-2.16384 -0.0459554 -3.23402e-20)
(-2.13116 -0.0497658 2.91252e-20)
(-2.09588 -0.0534197 2.68599e-20)
(-2.0581 -0.0568829 0)
(-2.01792 -0.0601341 0)
(-1.97546 -0.0631389 0)
(-1.93087 -0.0658788 1.69707e-20)
(-1.8843 -0.0683254 0)
(-1.83595 -0.0704701 -2.49932e-20)
(-1.786 -0.0722869 -2.82472e-20)
(-1.73467 -0.0737649 1.38438e-20)
(-1.6822 -0.0748853 0)
(-1.62884 -0.0756467 2.20089e-21)
(-1.57487 -0.0760881 0)
(-1.52051 -0.0761927 -9.57954e-21)
(-1.46603 -0.0759633 6.68224e-21)
(-1.41165 -0.0754009 9.6848e-21)
(-1.35763 -0.074525 0)
(-1.30419 -0.0733399 5.14855e-20)
(-1.25154 -0.0718719 -3.95434e-20)
(-1.1999 -0.0701314 -2.37878e-20)
(-1.14945 -0.0681499 0)
(-1.10037 -0.0659423 -2.95098e-20)
(-1.05282 -0.0635437 -9.48795e-20)
(-1.00695 -0.0609737 0)
(-0.962865 -0.0582683 -7.34243e-20)
(-0.920655 -0.0554489 -7.86161e-20)
(-0.880383 -0.052553 -8.3644e-20)
(-0.842098 -0.0496017 0)
(-0.805843 -0.0466322 0)
(-0.771644 -0.043668 0)
(-0.739503 -0.0407476 5.03159e-20)
(-0.709389 -0.0378895 5.35676e-20)
(-0.68125 -0.0351245 0)
(-0.655009 -0.0324663 1.13433e-19)
(-0.630576 -0.0299398 1.1684e-19)
(-0.607842 -0.0275557 0)
(-0.586684 -0.0253331 1.23693e-19)
(-0.566969 -0.0232807 2.51512e-19)
(-0.54855 -0.0214109 -1.28828e-19)
(-0.531269 -0.0197303 -1.302e-19)
(-0.514961 -0.018247 0)
(-0.499457 -0.0169674 0)
(-0.484581 -0.0158921 0)
(-0.470146 -0.0150148 -1.3837e-19)
(-0.45596 -0.0143299 1.39521e-19)
(-0.441844 -0.0138379 2.8202e-19)
(-0.427638 -0.0135541 -1.42294e-19)
(-0.413177 -0.0134851 1.43346e-19)
(-0.398286 -0.0136355 1.44386e-19)
(-0.382779 -0.013983 0)
(-0.366479 -0.0145159 0)
(-0.349216 -0.0152105 -1.4717e-19)
(-0.330837 -0.01606 0)
(-0.311197 -0.0170397 0)
(-0.290162 -0.0181398 2.99248e-19)
(-0.267613 -0.0193362 0)
(-0.243441 -0.0206239 1.51508e-19)
(-0.217555 -0.0219817 -1.52439e-19)
(-0.189871 -0.0233977 0)
(-0.160321 -0.0248461 1.54837e-19)
(-0.128854 -0.0263308 0)
(-0.0954267 -0.0278428 0)
(-0.0600092 -0.0293687 -1.59545e-19)
(-0.0225922 -0.0308833 3.22772e-19)
(0.0168046 -0.0323786 -1.63483e-19)
(0.0579034 -0.0337411 0)
(0.100806 -0.0349676 0)
(0.145777 -0.0361116 1.62478e-19)
(0.192984 -0.0370778 0)
(0.242638 -0.0379384 1.61825e-19)
(0.294679 -0.0389568 0)
(0.348897 -0.0401814 0)
(0.405221 -0.0415201 0)
(0.463667 -0.042917 1.63887e-19)
(0.524254 -0.0443337 0)
(0.586969 -0.0457322 -1.65567e-19)
(0.651768 -0.0470769 0)
(0.718555 -0.0483237 0)
(0.787178 -0.0494151 3.37385e-19)
(0.857381 -0.0502653 -3.40535e-19)
(0.928809 -0.050734 0)
(1.0007 -0.0505819 0)
(1.07251 -0.0492028 0)
(1.14027 -0.0456236 1.07602e-18)
(1.20871 -0.0360116 0)
(1.24543 -0.00799951 -7.61724e-19)
(-0.00451834 -0.0645445 -1.36237e-21)
(-0.00893373 -0.03097 5.24003e-19)
(-0.0195717 0.000267282 0)
(-0.0330893 0.0270148 -2.15921e-19)
(-0.0488192 0.0499347 0)
(-0.0665731 0.0694576 0)
(-0.0864759 0.0859419 2.3725e-23)
(-0.108727 0.0998411 6.92124e-20)
(-0.133473 0.111705 6.6509e-20)
(-0.160759 0.122091 6.46418e-20)
(-0.190489 0.131441 0)
(-0.222527 0.139911 0)
(-0.25688 0.147314 -5.98897e-20)
(-0.293567 0.153983 -1.15924e-19)
(-0.332269 0.160826 1.11953e-19)
(-0.372296 0.168243 0)
(-0.412963 0.176083 1.05139e-19)
(-0.453604 0.183858 -5.13048e-20)
(-0.493902 0.190613 0)
(-0.534332 0.194856 9.73902e-20)
(-0.575174 0.196626 4.70905e-20)
(-0.615923 0.198024 -9.04941e-20)
(-0.655957 0.19887 -4.3636e-20)
(-0.695549 0.198312 0)
(-0.734976 0.196838 8.11679e-20)
(-0.774298 0.19502 7.86732e-20)
(-0.813112 0.192699 0)
(-0.851412 0.189954 7.42863e-20)
(-0.889212 0.186883 0)
(-0.926519 0.18357 7.05293e-20)
(-0.963335 0.180088 3.45126e-20)
(-0.99967 0.176502 0)
(-1.03554 0.172866 0)
(-1.07095 0.169229 0)
(-1.10593 0.165633 0)
(-1.14049 0.162108 0)
(-1.17465 0.158679 0)
(-1.20842 0.155361 5.99827e-20)
(-1.24181 0.152165 -8.86361e-20)
(-1.27485 0.149095 0)
(-1.30755 0.146153 0)
(-1.33991 0.143333 0)
(-1.37195 0.140631 2.10311e-22)
(-1.40368 0.138035 5.51726e-20)
(-1.43509 0.135535 1.0874e-19)
(-1.46621 0.133118 -1.07405e-19)
(-1.49702 0.13077 -5.2954e-20)
(-1.52754 0.128477 5.25476e-20)
(-1.55774 0.126226 -2.12208e-22)
(-1.58764 0.124002 5.11581e-20)
(-1.61721 0.121792 0)
(-1.64646 0.119579 5.00472e-20)
(-1.67535 0.117352 -2.08577e-22)
(-1.70388 0.115096 0)
(-1.73203 0.112798 0)
(-1.75976 0.110446 -4.79628e-20)
(-1.78705 0.108027 0)
(-1.81386 0.105529 0)
(-1.84017 0.102943 4.6275e-20)
(-1.86594 0.100257 9.19592e-20)
(-1.89113 0.0974613 -4.56783e-20)
(-1.91569 0.0945456 0)
(-1.93957 0.0915007 4.46869e-20)
(-1.96274 0.0883175 0)
(-1.98512 0.0849875 4.33407e-20)
(-2.00668 0.0815026 4.3172e-20)
(-2.02734 0.0778552 -8.49912e-20)
(-2.04706 0.0740383 -4.1824e-20)
(-2.06576 0.0700451 0)
(-2.08338 0.0658701 8.18193e-20)
(-2.09985 0.0615072 0)
(-2.11511 0.0569524 1.19506e-19)
(-2.12908 0.052201 7.84325e-20)
(-2.14169 0.0472521 7.72426e-20)
(-2.15287 0.0421047 -7.60182e-20)
(-2.16255 0.0367655 1.12208e-19)
(-2.17068 0.0312436 0)
(-2.17718 0.0255578 0)
(-2.18199 0.0197276 -7.07251e-20)
(-2.18504 0.0137759 -1.03938e-19)
(-2.18624 0.00771492 0)
(-2.18549 0.00154349 3.30443e-20)
(-2.18266 -0.00475421 0)
(-2.17764 -0.0111644 -9.39691e-20)
(-2.17032 -0.0176694 1.82866e-22)
(-2.16064 -0.0242449 -2.30892e-22)
(-2.14851 -0.0308744 5.69615e-20)
(-2.13388 -0.037532 0)
(-2.11674 -0.0441959 -5.27259e-20)
(-2.09706 -0.0508288 4.47244e-22)
(-2.07479 -0.0573864 0)
(-2.04991 -0.0638221 0)
(-2.02244 -0.0700968 0)
(-1.99241 -0.0761705 3.98369e-20)
(-1.95987 -0.0820048 0)
(-1.92489 -0.0875566 0)
(-1.88756 -0.0927838 0)
(-1.84799 -0.0976437 0)
(-1.80631 -0.102095 0)
(-1.76265 -0.1061 2.28634e-20)
(-1.7172 -0.109622 0)
(-1.67012 -0.112633 1.51931e-20)
(-1.62161 -0.115109 1.17938e-20)
(-1.57189 -0.117047 -8.34902e-21)
(-1.52119 -0.118431 0)
(-1.46977 -0.119245 -1.36438e-21)
(-1.41786 -0.119513 0)
(-1.3657 -0.119258 5.68661e-21)
(-1.31354 -0.11848 -9.20886e-21)
(-1.2616 -0.117196 -3.55281e-20)
(-1.21011 -0.115429 0)
(-1.1593 -0.113208 -5.63259e-20)
(-1.10934 -0.110564 -2.04889e-20)
(-1.06045 -0.107533 0)
(-1.01278 -0.104153 -5.68399e-20)
(-0.966502 -0.100465 -6.33024e-20)
(-0.921746 -0.0965133 1.05559e-19)
(-0.878634 -0.092344 0)
(-0.837263 -0.0880025 4.19053e-20)
(-0.7977 -0.0835334 4.47373e-20)
(-0.759994 -0.0789832 1.40496e-19)
(-0.724178 -0.0743952 0)
(-0.690275 -0.0698154 0)
(-0.65829 -0.0652881 0)
(-0.628205 -0.0608567 5.58196e-20)
(-0.599977 -0.0565572 0)
(-0.573544 -0.0524245 0)
(-0.548823 -0.0484864 -6.33857e-20)
(-0.525714 -0.0447702 -6.51846e-20)
(-0.504106 -0.0412967 0)
(-0.483871 -0.0380861 0)
(-0.464874 -0.0351533 -1.39748e-19)
(-0.446965 -0.0325113 0)
(-0.429988 -0.0301695 1.44867e-19)
(-0.413779 -0.0281352 1.46693e-19)
(-0.398173 -0.0264143 0)
(-0.382994 -0.0250048 0)
(-0.368066 -0.0238985 -1.52467e-19)
(-0.353205 -0.0230887 -1.46439e-22)
(-0.338238 -0.0225744 -9.41274e-23)
(-0.323007 -0.0223656 0)
(-0.307352 -0.0224667 -3.15752e-19)
(-0.291111 -0.0228756 0)
(-0.274113 -0.0235683 0)
(-0.256192 -0.0245247 0)
(-0.237191 -0.0257165 1.61378e-19)
(-0.216963 -0.0271262 0)
(-0.195372 -0.0287223 -3.25818e-19)
(-0.172291 -0.0304834 -1.63511e-19)
(-0.147607 -0.0323794 0)
(-0.121217 -0.0343956 -1.64982e-19)
(-0.093033 -0.0365063 0)
(-0.0629793 -0.0386916 0)
(-0.0309897 -0.0409173 -5.03012e-19)
(0.00298615 -0.043171 3.37495e-19)
(0.0389367 -0.0454176 0)
(0.0768551 -0.0476287 3.39356e-19)
(0.116818 -0.0497937 -1.69617e-19)
(0.158884 -0.0519068 0)
(0.203085 -0.0539671 0)
(0.249466 -0.0559997 0)
(0.298033 -0.0579734 -5.10059e-19)
(0.34886 -0.0598496 0)
(0.402061 -0.0616844 -1.71403e-19)
(0.45763 -0.0636026 0)
(0.515435 -0.0656353 0)
(0.575396 -0.0677494 0)
(0.637474 -0.0699003 0)
(0.701639 -0.0720464 0)
(0.767842 -0.0741417 0)
(0.836004 -0.0761352 -3.63089e-19)
(0.906005 -0.0779626 0)
(0.977667 -0.0795352 -1.87282e-19)
(1.05072 -0.0807231 5.68579e-19)
(1.12479 -0.0813152 0)
(1.1992 -0.0809526 0)
(1.27341 -0.0788694 -3.98526e-19)
(1.34469 -0.073773 -4.08752e-19)
(1.41698 -0.0618414 4.17487e-19)
(1.4713 -0.0333897 4.35359e-19)
(-0.0140539 -0.0420812 -1.90159e-18)
(-0.0260152 -0.000405453 -6.26941e-19)
(-0.0427829 0.0344739 -2.33033e-19)
(-0.0621106 0.0640148 -8.45334e-20)
(-0.0827914 0.0897196 0)
(-0.104568 0.112324 1.23651e-19)
(-0.127647 0.132268 -5.68078e-20)
(-0.152274 0.149926 0)
(-0.17861 0.165674 -5.11303e-20)
(-0.206699 0.179854 0)
(-0.236473 0.192703 9.53746e-20)
(-0.267777 0.204309 0)
(-0.30051 0.21465 4.4891e-20)
(-0.334619 0.223879 8.69772e-20)
(-0.369854 0.232352 -8.40741e-20)
(-0.405748 0.240302 0)
(-0.441812 0.247645 -7.82926e-20)
(-0.477696 0.254093 0)
(-0.513244 0.259208 0)
(-0.548564 0.262579 -7.08854e-20)
(-0.583806 0.264272 0)
(-0.618919 0.264863 8.25361e-23)
(-0.653761 0.264511 0)
(-0.68827 0.263098 0)
(-0.722513 0.260778 -4.75575e-23)
(-0.756499 0.257819 -5.89027e-20)
(-0.790179 0.254319 -5.72921e-20)
(-0.823546 0.250387 -5.58632e-20)
(-0.856601 0.246132 0)
(-0.889345 0.241648 -1.06429e-19)
(-0.921777 0.237019 0)
(-0.953895 0.232313 -5.08914e-20)
(-0.985701 0.227591 0)
(-1.0172 0.2229 0)
(-1.0484 0.218281 4.79813e-20)
(-1.0793 0.213764 0)
(-1.10992 0.209371 -4.63427e-20)
(-1.14025 0.205117 -7.99225e-23)
(-1.1703 0.201011 8.98788e-20)
(-1.20008 0.197057 -8.84752e-20)
(-1.22959 0.193252 0)
(-1.25883 0.189591 0)
(-1.28782 0.186066 -4.23681e-20)
(-1.31655 0.182664 0)
(-1.34502 0.179373 -4.15062e-20)
(-1.37324 0.176175 4.10164e-20)
(-1.4012 0.173055 4.05454e-20)
(-1.42889 0.169996 0)
(-1.45632 0.16698 -3.96516e-20)
(-1.48348 0.163988 -3.92251e-20)
(-1.51036 0.161004 7.74282e-20)
(-1.53693 0.158009 -3.84049e-20)
(-1.5632 0.154986 -3.80083e-20)
(-1.58913 0.151919 0)