# vtk DataFile Version 2.0
track0
ASCII
DATASET POLYDATA
POINTS 12065 float
-0.0205 0.001 1e-05
-0.02052 0.000999985 1e-05
-0.02054 0.000999973 1e-05
-0.02056 0.000999965 1e-05
-0.02058 0.000999959 1e-05
-0.0206 0.000999956 1e-05
-0.0205 0.00367778 1e-05
-0.02052 0.00367778 1e-05
-0.02054 0.00367777 1e-05
-0.02056 0.00367777 1e-05
-0.02058 0.00367777 1e-05
-0.0206 0.00367777 1e-05
-0.0205 0.00635556 1e-05
-0.02052 0.00635555 1e-05
-0.02054 0.00635555 1e-05
-0.02056 0.00635555 1e-05
-0.02058 0.00635555 1e-05
-0.0206 0.00635555 1e-05
-0.0205 0.00903333 1e-05
-0.02052 0.00903333 1e-05
-0.02054 0.00903333 1e-05
-0.02056 0.00903333 1e-05
-0.02058 0.00903333 1e-05
-0.0206 0.00903333 1e-05
-0.0205 0.0117111 1e-05
-0.02052 0.0117111 1e-05
-0.02054 0.0117111 1e-05
-0.02056 0.0117111 1e-05
-0.02058 0.0117111 1e-05
-0.0206 0.0117111 1e-05
-0.0205 0.0143889 1e-05
-0.02052 0.0143889 1e-05
-0.02054 0.0143889 1e-05
-0.02056 0.0143889 1e-05
-0.02058 0.0143889 1e-05
-0.0206 0.0143889 1e-05
-0.0205 0.0170667 1e-05
-0.02052 0.0170667 1e-05
-0.02054 0.0170667 1e-05
-0.02056 0.0170667 1e-05
-0.02058 0.0170667 1e-05
-0.0206 0.0170667 1e-05
-0.0205 0.0197444 1e-05
-0.02052 0.0197444 1e-05
-0.02054 0.0197444 1e-05
-0.02056 0.0197444 1e-05
-0.02058 0.0197444 1e-05
-0.0206 0.0197444 1e-05
-0.0205 0.0224222 1e-05
-0.02052 0.0224222 1e-05
-0.02054 0.0224222 1e-05
-0.02056 0.0224222 1e-05
-0.02058 0.0224222 1e-05
-0.0206 0.0224222 1e-05
-0.0205 0.0251 1e-05
-0.02052 0.0250998 1e-05
-0.02054 0.0250997 1e-05
-0.02056 0.0250995 1e-05
-0.02058 0.0250995 1e-05
-0.0206 0.0250994 1e-05
-0.0205 0.001 1e-05
-0.0202034 0.00100022 1e-05
-0.0199069 0.00100067 1e-05
-0.0196103 0.00100134 1e-05
-0.0193137 0.00100221 1e-05
-0.0190172 0.00100329 1e-05
-0.0187132 0.00100471 1e-05
-0.0184093 0.00100594 1e-05
-0.0181054 0.00100717 1e-05
-0.0178015 0.00100841 1e-05
-0.0174976 0.00100964 1e-05
-0.0172058 0.00101096 1e-05
-0.016914 0.00101209 1e-05
-0.0166222 0.00101322 1e-05
-0.0163305 0.00101435 1e-05
-0.0160387 0.00101548 1e-05
-0.0157586 0.00101665 1e-05
-0.0154784 0.00101776 1e-05
-0.0151983 0.00101892 1e-05
-0.0149182 0.00102012 1e-05
-0.0146381 0.00102135 1e-05
-0.0144028 0.00102244 1e-05
-0.0141675 0.00102354 1e-05
-0.0139322 0.00102466 1e-05
-0.0136969 0.00102582 1e-05
-0.0134975 0.00102682 1e-05
-0.0134567 0.00102703 1e-05
-0.0134159 0.00102724 1e-05
-0.0133751 0.00102745 1e-05
-0.0133343 0.00102766 1e-05
-0.0132934 0.00102787 1e-05
-0.0130353 0.00102921 1e-05
-0.0127771 0.00103058 1e-05
-0.0125189 0.00103197 1e-05
-0.0122607 0.00103337 1e-05
-0.0120025 0.0010348 1e-05
-0.0117547 0.00103618 1e-05
-0.0115068 0.00103757 1e-05
-0.0112589 0.00103898 1e-05
-0.0110111 0.00104039 1e-05
-0.0107632 0.00104181 1e-05
-0.0105252 0.00104318 1e-05
-0.0102873 0.00104456 1e-05
-0.0100493 0.00104594 1e-05
-0.00981133 0.00104733 1e-05
-0.00957337 0.00104873 1e-05
-0.00934491 0.00105007 1e-05
-0.00911645 0.00105141 1e-05
-0.00888799 0.00105276 1e-05
-0.00865954 0.00105412 1e-05
-0.00843108 0.00105547 1e-05
-0.00821175 0.00105677 1e-05
-0.00799242 0.00105808 1e-05
-0.00777309 0.00105939 1e-05
-0.00755376 0.0010607 1e-05
-0.00733443 0.00106202 1e-05
-0.00712387 0.00106328 1e-05
-0.0069133 0.00106455 1e-05
-0.00670273 0.00106582 1e-05
-0.00649217 0.0010671 1e-05
-0.0062816 0.00106838 1e-05
-0.00607944 0.00106961 1e-05
-0.00587729 0.00107084 1e-05
-0.00567514 0.00107209 1e-05
-0.00547298 0.00107334 1e-05
-0.00527083 0.0010746 1e-05
-0.00507675 0.00107581 1e-05
-0.00488267 0.00107703 1e-05
-0.0046886 0.00107827 1e-05
-0.00449452 0.00107951 1e-05
-0.00430044 0.00108077 1e-05
-0.00411412 0.00108198 1e-05
-0.0039278 0.00108322 1e-05
-0.00374147 0.00108446 1e-05
-0.00355515 0.00108573 1e-05
-0.00336883 0.00108701 1e-05
-0.00318995 0.00108825 1e-05
-0.00301107 0.00108952 1e-05
-0.00283219 0.00109082 1e-05
-0.00265331 0.00109214 1e-05
-0.00247443 0.00109348 1e-05
-0.0023027 0.0010948 1e-05
-0.00213097 0.00109616 1e-05
-0.00195924 0.00109755 1e-05
-0.00178751 0.00109898 1e-05
-0.00161577 0.00110045 1e-05
-0.0014509 0.00110189 1e-05
-0.00128603 0.00110339 1e-05
-0.00112116 0.00110495 1e-05
-0.000956293 0.00110658 1e-05
-0.000791418 0.00110827 1e-05
-0.000633135 0.00110996 1e-05
-0.000474852 0.00111173 1e-05
-0.00031657 0.00111359 1e-05
-0.000158289 0.00111554 1e-05
0 0.00111757 1e-05
0.000105677 0.00111898 1e-05
0.000211354 0.00112044 1e-05
0.000317031 0.00112193 1e-05
0.000422706 0.00112347 1e-05
0.000528387 0.00112505 1e-05
0.000634886 0.00112667 1e-05
0.000741385 0.00112831 1e-05
0.000847883 0.00112998 1e-05
0.000954381 0.00113166 1e-05
0.00106088 0.00113336 1e-05
0.00116821 0.0011351 1e-05
0.00127554 0.00113686 1e-05
0.00138286 0.00113864 1e-05
0.00149019 0.00114043 1e-05
0.00159752 0.00114223 1e-05
0.00170568 0.00114407 1e-05
0.00181384 0.00114594 1e-05
0.001922 0.00114783 1e-05
0.00203016 0.00114975 1e-05
0.00213833 0.00115168 1e-05
0.00224733 0.00115364 1e-05
0.00235633 0.00115564 1e-05
0.00246533 0.00115766 1e-05
0.00257433 0.00115972 1e-05
0.00268334 0.00116179 1e-05
0.00279319 0.00116388 1e-05
0.00290304 0.00116602 1e-05
0.00301289 0.00116818 1e-05
0.00312273 0.00117037 1e-05
0.00323259 0.00117258 1e-05
0.00334329 0.00117482 1e-05
0.00345399 0.0011771 1e-05
0.0035647 0.0011794 1e-05
0.0036754 0.00118173 1e-05
0.00378611 0.00118409 1e-05
0.00389767 0.00118647 1e-05
0.00400924 0.0011889 1e-05
0.0041208 0.00119136 1e-05
0.00423236 0.00119385 1e-05
0.00434393 0.00119636 1e-05
0.00445636 0.0011989 1e-05
0.00456879 0.0012015 1e-05
0.00468122 0.00120413 1e-05
0.00479365 0.00120678 1e-05
0.00490609 0.00120946 1e-05
0.0050194 0.00121217 1e-05
0.0051327 0.00121494 1e-05
0.00524601 0.00121775 1e-05
0.00535931 0.00122059 1e-05
0.00547262 0.00122345 1e-05
0.00558681 0.00122633 1e-05
0.00570099 0.00122928 1e-05
0.00581518 0.00123228 1e-05
0.00592936 0.00123531 1e-05
0.00604356 0.00123834 1e-05
0.00615863 0.00124141 1e-05
0.0062737 0.00124454 1e-05
0.00638878 0.00124772 1e-05
0.00650385 0.00125094 1e-05
0.00661893 0.00125415 1e-05
0.0067349 0.00125739 1e-05
0.00685087 0.0012607 1e-05
0.00696683 0.00126407 1e-05
0.0070828 0.00126746 1e-05
0.00719878 0.00127085 1e-05
0.00731565 0.00127425 1e-05
0.00743252 0.00127773 1e-05
0.00754939 0.00128127 1e-05
0.00766625 0.00128484 1e-05
0.00778313 0.00128839 1e-05
0.00790091 0.00129195 1e-05
0.00801869 0.00129558 1e-05
0.00813647 0.00129928 1e-05
0.00825424 0.001303 1e-05
0.00837203 0.00130669 1e-05
0.00849073 0.0013104 1e-05
0.00860942 0.00131417 1e-05
0.00872811 0.001318 1e-05
0.0088468 0.00132186 1e-05
0.00896551 0.00132569 1e-05
0.00908513 0.00132953 1e-05
0.00920475 0.00133343 1e-05
0.00932436 0.00133738 1e-05
0.00944397 0.00134136 1e-05
0.0095636 0.00134531 1e-05
0.00968415 0.00134926 1e-05
0.0098047 0.00135327 1e-05
0.00992524 0.00135733 1e-05
0.0100458 0.00136141 1e-05
0.0101663 0.00136546 1e-05
0.0102878 0.00136951 1e-05
0.0104093 0.00137362 1e-05
0.0105308 0.00137776 1e-05
0.0106523 0.00138192 1e-05
0.0107738 0.00138605 1e-05
0.0108962 0.0013902 1e-05
0.0110186 0.00139438 1e-05
0.0111411 0.0013986 1e-05
0.0112635 0.00140282 1e-05
0.0113859 0.00140703 1e-05
0.0115093 0.00141125 1e-05
0.0116327 0.0014155 1e-05
0.0117561 0.00141977 1e-05
0.0118794 0.00142405 1e-05
0.0120028 0.00142832 1e-05
0.0121272 0.00143261 1e-05
0.0122515 0.00143691 1e-05
0.0123759 0.00144123 1e-05
0.0125002 0.00144555 1e-05
0.0126245 0.00144987 1e-05
0.0127498 0.00145421 1e-05
0.0128752 0.00145855 1e-05
0.0130005 0.00146291 1e-05
0.0131258 0.00146726 1e-05
0.0132511 0.00147161 1e-05
0.0133774 0.00147599 1e-05
0.0135036 0.00148037 1e-05
0.0136299 0.00148475 1e-05
0.0137562 0.00148912 1e-05
0.0138825 0.00149349 1e-05
0.0140098 0.0014979 1e-05
0.014137 0.0015023 1e-05
0.0142643 0.00150668 1e-05
0.0143915 0.00151107 1e-05
0.0145188 0.00151545 1e-05
0.0146471 0.00151986 1e-05
0.0147753 0.00152426 1e-05
0.0149036 0.00152865 1e-05
0.0150318 0.00153303 1e-05
0.0151601 0.00153741 1e-05
0.0152893 0.00154182 1e-05
0.0154186 0.00154621 1e-05
0.0155478 0.00155059 1e-05
0.0156771 0.00155495 1e-05
0.0158063 0.00155931 1e-05
0.0159366 0.00156371 1e-05
0.0160668 0.00156807 1e-05
0.0161971 0.00157243 1e-05
0.0163274 0.00157677 1e-05
0.0164576 0.00158109 1e-05
0.0165889 0.00158546 1e-05
0.0167201 0.00158979 1e-05
0.0168514 0.00159411 1e-05
0.0169827 0.00159841 1e-05
0.0171139 0.00160269 1e-05
0.0172462 0.00160701 1e-05
0.0173785 0.0016113 1e-05
0.0175108 0.00161556 1e-05
0.0176431 0.00161981 1e-05
0.0177754 0.00162403 1e-05
0.0179087 0.00162829 1e-05
0.018042 0.00163251 1e-05
0.0181753 0.0016367 1e-05
0.0183087 0.00164088 1e-05
0.018442 0.00164503 1e-05
0.0185763 0.0016492 1e-05
0.0187107 0.00165334 1e-05
0.018845 0.00165745 1e-05
0.0189794 0.00166153 1e-05
0.0191137 0.00166559 1e-05
0.0192491 0.00166966 1e-05
0.0193845 0.0016737 1e-05
0.0195199 0.0016777 1e-05
0.0196553 0.00168168 1e-05
0.0197907 0.00168562 1e-05
0.0199272 0.00168957 1e-05
0.0200636 0.00169349 1e-05
0.0202001 0.00169736 1e-05
0.0203365 0.00170121 1e-05
0.020473 0.00170501 1e-05
0.0206105 0.00170882 1e-05
0.020748 0.00171259 1e-05
0.0208855 0.00171631 1e-05
0.021023 0.00172 1e-05
0.0211606 0.00172365 1e-05
0.0212991 0.00172729 1e-05
0.0214377 0.00173089 1e-05
0.0215763 0.00173444 1e-05
0.0217149 0.00173795 1e-05
0.0218535 0.00174142 1e-05
0.0219855 0.00174468 1e-05
0.0221175 0.0017479 1e-05
0.0222495 0.00175108 1e-05
0.0223816 0.00175421 1e-05
0.0225517 0.00175819 1e-05
0.0225547 0.00175826 1e-05
0.0225578 0.00175833 1e-05
0.0225608 0.0017584 1e-05
0.0225638 0.00175847 1e-05
0.0225668 0.00175854 1e-05
0.0227045 0.0017617 1e-05
0.0228423 0.0017648 1e-05
0.02298 0.00176786 1e-05
0.0231177 0.00177086 1e-05
0.0232555 0.00177381 1e-05
0.0233973 0.00177679 1e-05
0.0235391 0.00177972 1e-05
0.023681 0.00178258 1e-05
0.0238228 0.00178538 1e-05
0.0239647 0.00178813 1e-05
0.0241076 0.00179083 1e-05
0.0242505 0.00179347 1e-05
0.0243935 0.00179604 1e-05
0.0245364 0.00179854 1e-05
0.0246794 0.00180098 1e-05
0.0248234 0.00180336 1e-05
0.0249675 0.00180568 1e-05
0.0251115 0.00180791 1e-05
0.0252556 0.00181008 1e-05
[...]
POINT_DATA 12065
 FIELD attributes 2
p 1 12065 float
-3.73328 -3.72997 -3.72667 -3.72336 -3.72006 -3.71675
-3.90019 -3.90018 -3.90016 -3.90014 -3.90013 -3.90011
-4.10256 -4.10245 -4.10234 -4.10223 -4.10212 -4.10203
-4.23422 -4.23418 -4.23415 -4.23411 -4.23407 -4.23404
-4.3223 -4.32219 -4.32209 -4.32198 -4.32187 -4.32177
-4.3711 -4.37092 -4.37073 -4.37055 -4.37036 -4.37018
-4.38261 -4.38251 -4.38242 -4.38233 -4.38223 -4.38214
-4.34306 -4.34301 -4.34295 -4.3429 -4.34284 -4.34278
-4.24117 -4.24116 -4.24116 -4.24116 -4.24116 -4.24115
-2.03615 -2.05548 -2.07467 -2.09372 -2.11265 -2.13144
-3.73328 -3.73246 -3.72874 -3.72493 -3.72105 -3.71245 -3.72544 -3.73912 -3.75279 -3.76646 -3.78927 -3.80829 -3.83478 -3.86127 -3.88776 -3.91665 -3.92885 -3.94709 -3.96534 -3.98358 -4.00339 -4.01694 -4.03226 -4.04758 -4.06291 -4.07591 -4.07856 -4.08122 -4.08387 -4.08653 -4.08916 -4.10393 -4.11868 -4.13343 -4.14818 -4.16246 -4.17273 -4.18278 -4.19282 -4.20287 -4.21236 -4.22049 -4.22839 -4.23629 -4.24419 -4.25161 -4.25827 -4.26443 -4.27059 -4.27675 -4.28199 -4.28509 -4.28712 -4.28915 -4.29117 -4.29168 -4.28944 -4.28584 -4.28223 -4.27863 -4.27358 -4.26652 -4.25826 -4.25 -4.24175 -4.23279 -4.22271 -4.21152 -4.20033 -4.18914 -4.17786 -4.16573 -4.15217 -4.13861 -4.12505 -4.11158 -4.09712 -4.08006 -4.06301 -4.04596 -4.02884 -4.01113 -3.98988 -3.96864 -3.9474 -3.92724 -3.90892 -3.88892 -3.86893 -3.849 -3.83195 -3.81578 -3.80498 -3.79454 -3.78524 -3.78374 -3.77407 -3.78344 -3.79635 -3.81253 -3.84529 -3.86078 -3.8808 -3.90178 -3.9238 -3.95037 -3.96846 -3.98014 -3.99026 -3.99994 -4.00797 -4.02896 -4.044 -4.05731 -4.0679 -4.07008 -4.0938 -4.11275 -4.13001 -4.14256 -4.14326 -4.15904 -4.17058 -4.18023 -4.18607 -4.18424 -4.1872 -4.18822 -4.18817 -4.18803 -4.18774 -4.18536 -4.18359 -4.18225 -4.18456 -4.19137 -4.1935 -4.19796 -4.20465 -4.217 -4.23462 -4.24739 -4.26285 -4.28182 -4.30604 -4.33379 -4.35729 -4.38272 -4.41177 -4.44389 -4.47741 -4.50725 -4.53805 -4.57168 -4.60603 -4.64057 -4.67172 -4.70325 -4.73706 -4.77053 -4.80397 -4.83376 -4.86363 -4.89636 -4.92947 -4.96259 -4.99112 -5.01967 -5.05242 -5.08745 -5.12249 -5.15139 -5.1803 -5.21475 -5.25337 -5.29199 -5.32268 -5.35338 -5.39059 -5.43362 -5.47665 -5.51025 -5.54385 -5.5841 -5.63114 -5.67819 -5.71491 -5.75163 -5.79465 -5.84488 -5.89511 -5.93483 -5.97454 -6.0199 -6.0723 -6.1247 -6.16715 -6.20959 -6.25666 -6.31001 -6.36337 -6.40798 -6.45292 -6.50131 -6.55411 -6.60754 -6.65381 -6.70073 -6.74979 -6.80174 -6.85481 -6.90234 -6.95061 -7.00008 -7.05143 -7.1042 -7.15296 -7.20232 -7.25223 -7.30322 -7.35574 -7.40553 -7.4559 -7.50656 -7.55788 -7.61098 -7.66224 -7.71395 -7.76578 -7.81787 -7.87196 -7.92494 -7.97806 -8.0312 -8.08434 -8.13938 -8.19388 -8.24844 -8.30299 -8.35755 -8.41354 -8.4696 -8.52554 -8.58149 -8.63745 -8.69436 -8.75178 -8.80899 -8.86622 -8.92344 -8.98129 -9.03993 -9.09824 -9.15657 -9.21489 -9.27355 -9.33314 -9.3924 -9.45167 -9.51095 -9.57042 -9.63083 -9.6909 -9.75098 -9.81106 -9.87124 -9.93225 -9.99296 -10.0537 -10.1144 -10.1752 -10.2367 -10.2981 -10.3594 -10.4208 -10.4822 -10.5409 -10.5994 -10.658 -10.7166 -10.7922 -10.7935 -10.7949 -10.7962 -10.7975 -10.7989 -10.8601 -10.9213 -10.9826 -11.0438 -11.105 -11.1681 -11.2312 -11.2943 -11.3574 -11.4203 -11.4838 -11.5473 -11.6109 -11.6745 -11.7378 -11.8016 -11.8654 -11.9292 -11.993 -12.0565 -12.1203 -12.1841 -12.2478 -12.3116 -12.3751 -12.4385 -12.5018 -12.5651 -12.6284 -12.6916 -12.7541 -12.8165 -12.879 -12.9415 -12.9898 -12.9926 -12.9955 -12.9984 -13.0012 -13.0041 -13.0653 -13.1265 -13.1877 -13.2491 -13.3102 -13.3701 -13.4295 -13.4889 -13.5485 -13.6075 -13.6657 -13.7227 -13.7798 -13.837 -13.893 -13.9494 -14.0033 -14.0573 -14.1115 -14.1636 -14.2177 -14.2679 -14.3182 -14.3685 -14.4156 -14.4675 -14.5129 -14.5585 -14.6042 -14.6446 -14.693 -14.7333 -14.7732 -14.8115 -14.8451 -14.8873 -14.9241 -14.957 -14.9857 -15.0112 -15.0457 -15.0786 -15.1032 -15.12 -15.1363 -15.1617 -15.1874 -15.2025 -15.208 -15.2138 -15.2289 -15.2443 -15.2499 -15.2439 -15.2381 -15.2417 -15.2421 -15.2347 -15.2221 -15.204 -15.1952 -15.1759 -15.155 -15.1343 -15.106 -15.0832 -15.0534 -15.0237 -14.9943 -14.9705 -14.9642 -14.958 -14.9517 -14.9455 -14.9371 -14.8916 -14.8442 -14.7972 -14.7505 -14.6905 -14.6384 -14.5797 -14.5182 -14.4467 -14.3707 -14.3036 -14.2369 -14.1586 -14.0684 -13.9784 -13.8966 -13.8079 -13.7117 -13.6159 -13.5129 -13.4611 -13.4017 -13.3425 -13.2833 -13.2296 -13.1799 -13.1304 -13.0809 -13.031 -12.9744 -12.8608 -12.7429 -12.6253 -12.4999 -12.3692 -12.245 -12.1212 -11.9875 -11.847 -11.706 -11.5944 -11.4756 -11.3548 -11.2342 -11.1269 -11.0997 -11.0724 -11.0451 -11.0172 -10.9878 -10.8375 -10.6866 -10.536 -10.3805 -10.2207 -10.064 -9.90777 -9.74581 -9.58371 -9.42086 -9.34905 -9.27615 -9.20245 -9.1288 -9.05855 -8.96728 -8.87611 -8.78503 -8.69289 -8.59929 -8.43211 -8.26521 -8.09899 -7.93127 -7.76289 -7.63994 -7.51685 -7.39354 -7.27037 -7.15475 -7.10759 -7.06045 -7.01332 -6.96623 -6.9191 -6.7477 -6.57886 -6.41041 -6.24331 -6.07562 -5.91584 -5.75714 -5.59978 -5.4426 -5.2953 -5.28448 -5.27365 -5.26283 -5.25208 -5.2414 -5.0756 -4.91072 -4.74599 -4.58338 -4.42129 -4.25857 -4.09678 -3.9381 -3.77956 -3.62217 -3.60252 -3.58307 -3.56392 -3.54476 -3.52573 -3.38853 -3.25141 -3.11438 -2.97948 -2.84592 -2.69244 -2.53907 -2.38947 -2.24159 -2.09512 -2.0475 -2.00043 -1.95411 -1.9078 -1.86208 -1.76263 -1.66322 -1.56384 -1.46587 -1.36893 -1.22531 -1.08177 -0.941308 -0.804533 -0.66739 -0.590694 -0.514893 -0.440231 -0.365588 -0.292218 -0.23127 -0.170331 -0.109402 -0.0492321 0.0102526 0.144299 0.277449 0.408171 0.536139 0.664383 0.773456 0.881221 0.987534 1.09382 1.19809 1.21753 1.23696 1.2564 1.27561 1.29457 1.41826 1.54061 1.66295 1.78316 1.90266 2.02188 2.14057 2.25692 2.37324 2.48793 2.51292 2.53763 2.56206 2.58649 2.61083 2.69978 2.78872 2.87766 2.96569 3.05262 3.16353 3.27443 3.38331 3.48994 3.59668 3.66995 3.7423 3.81388 3.88546 3.95654 3.9896 4.02265 4.0557 4.08846 4.12075 4.22389 4.32536 4.42683 4.5264 4.62563 4.72447 4.82284 4.91951 5.01618 5.11154 5.1373 5.16273 5.18794 5.21316 5.23832 5.30709 5.37586 5.44463 5.51291 5.58024 5.6723 5.76435 5.85457 5.94335 6.03215 6.11914 6.205 6.29022 6.37545 6.46049 6.46198 6.46347 6.46496 6.46644 6.4679 6.55251 6.63708 6.72164 6.80566 6.88845 6.97099 7.05354 7.13472 7.21441 7.29408 7.36044 7.42587 7.49089 7.55592 7.62103 7.63399 7.64695 7.65991 7.67279 7.6854 7.76184 7.83776 7.91369 7.98873 8.06261 8.13697 8.21134 8.28425 8.35555 8.42681 8.48783 8.54768 8.60713 8.66659 8.72641 8.73691 8.7474 8.7579 8.7683 8.77848 8.84739 8.91584 8.98429 9.05172 9.118 9.18511 9.25222 9.31781 9.38199 9.44602 9.49236 9.53772 9.58267 9.62762 9.67298 9.69105 9.70913 9.7272 9.74513 9.76269 9.82489 9.88641 9.94793 10.0083 10.068 10.1283 10.1885 10.2472 10.3053 10.3629 10.397 10.4304 10.4635 10.4967 10.5302 10.5538 10.5774 10.601 10.6244 10.6473 10.7033 10.7586 10.8139 10.8679 10.9215 10.9755 11.0294 11.0819 11.1342 11.1858 11.2122 11.2381 11.2639 11.2896 11.3157 11.3408 11.3659 11.391 11.4159 11.4402 11.4902 11.5398 11.5891 11.6372 11.685 11.7331 11.7811 11.8279 11.8744 11.9203 11.9452 11.9695 11.9936 12.0177 12.0424 12.0634 12.0843 12.1052 12.1261 12.1463 12.1907 12.2345 12.2783 12.3209 12.3631 12.4057 12.4483 12.4896 12.5305 12.571 12.6015 12.6312 12.6608 12.6903 12.7213 12.7311 12.7409 12.7507 12.7605 12.77 12.8087 12.8471 12.8855 12.9233 12.9604 12.9976 13.0349 13.0713 13.1069 13.1423 13.178 13.2129 13.2474 13.282 13.3161 13.3254 13.3344 13.3434 13.3524 13.3616 13.3859 13.4101 13.4343 13.4584 13.4818 13.5141 13.5461 13.578 13.609 13.6396 13.6704 13.7012 13.7312 13.7605 13.7897 13.819 13.8476 13.8759 13.9041 13.9321 13.9403 13.9483 13.9562 13.9642 13.9723 13.9914 14.0105 14.0296 14.0487 14.0671 14.0933 14.1191 14.1449 14.1702 14.195 14.2198 14.2446 14.2688 14.2924 14.316 14.3395 14.3627 14.3854 14.408 14.4303 14.4525 14.474 14.4955 14.517 14.5383 14.5423 14.5462 14.5501 14.554 14.5579 14.5745 14.5911 14.6077 14.6243 14.6404 14.6601 14.6795 14.6989 14.718 14.7368 14.7553 14.7738 14.792 14.8098 14.8275 14.845 14.8625 14.8795 14.8962 14.9129 14.9294 14.9457 14.9616 14.9775 14.9932 15.0088 15.0238 15.0388 15.0538 15.0687 15.079 15.0891 15.0992 15.1093 15.1204 15.1243 15.1282 15.1321 15.136 15.1398 15.1533 15.1667 15.1801 15.1936 15.2067 15.2194 15.2321 15.2447 15.2573 15.2695 15.2815 15.2934 15.3053 15.317 15.3286 15.3398 15.3511 15.3623 15.3733 15.3843 15.3949 15.4055 15.4161 15.4266 15.4371 15.4472 15.4573 15.4672 15.4772 15.4873 15.4969 15.5064 15.5159 15.5254 15.5351 15.5442 15.5534 15.5625 15.5717 15.581 15.5898 15.5987 15.6075 15.6164 15.6253 15.6338 15.6424 15.651 15.6596 15.6681 15.6688 15.6694 15.67 15.6706 15.6712 15.6789 15.6867 15.6944 15.7021 15.7099 15.7179 15.726 15.7341 15.7422 15.7506 15.7583 15.7662 15.7742 15.7821 15.7905 15.7979 15.8057 15.8135 15.8214 15.8296 15.8369 15.8445 15.8522 15.86 15.8682 15.8754 15.8828 15.8903 15.8982 15.9063 15.9133 15.9205 15.928 15.9359 15.9438 15.951 15.9582 15.9657 15.9736 15.9815 15.9888 15.9961 16.0036 16.0115 16.0193 16.0266 16.034 16.0414 16.0489 16.0563 16.0635 16.0706 16.0775 16.0842 16.091 16.0975 16.104 16.1102 16.1162 16.1221 16.128 16.1339 16.1394 16.1447 16.1499 16.1553 16.1606 16.1653 16.1696 16.1738 16.1783 16.1826 16.1862 16.1895 16.1926 16.196 16.1993 16.2019 16.2042 16.2064 16.2089 16.2111 16.2128 16.2142 16.2154 16.217 16.2182 16.2191 16.2198 16.2202 16.2211 16.2216 16.2218 16.2218 16.2217 16.2219 16.2218 16.2215 16.2211 16.2205 16.2203 16.2197 16.2191 16.2184 16.2176 16.217 16.2162 16.2153 16.2145 16.2135 16.2127 16.2117 16.2107 16.2098 16.2087 16.2078 16.2067 16.2056 16.2045 16.2033 16.2023 16.201 16.1998 16.1986 16.1973 16.1961 16.1948 16.1935 16.1922 16.1909 16.1896 16.1883 16.187 16.1857 16.1844 16.1832 16.182 16.1808 16.1796 16.1783 16.1772 16.176 16.1748 16.1736 16.1724 16.1713 16.1702 16.1691 16.168 16.1669 16.166 16.1652 16.1644 16.1636 16.1627 16.1622 16.1618 16.1614 16.161 16.1606 16.1606 16.1607 16.1609 16.161 16.1612 16.1618 16.1627 16.1636 16.1644 16.1652 16.1667 16.1684 16.1701 16.1718 16.1733 16.1757 16.1785 16.1814 16.1843 16.1868 16.1885 16.1898 16.1911 16.1923 16.1911 16.1889 16.1887 16.1884 16.188 16.1872 16.183 16.1644 16.1459 16.1274 16.1041 16.0814 16.0567 16.0319 16.0072 15.9754 15.9596 15.9438 15.9281 15.9123 15.8952 15.8519 15.81 15.7681 15.7262 15.6881 15.6532 15.618 15.5827 15.5475 15.5132 15.4776 15.4369 15.396 15.3538 15.3067 15.2576 15.2075 15.1567 15.1041 15.0497 14.9934 14.9374 14.8824 14.8278 14.7732 14.7169 14.6607 14.605 14.5501 14.4952 14.4387 14.3823 14.3234 14.2622 14.2009 14.138 14.0751 14.0091 13.9399 13.8706 13.7992 13.7278 13.6527 13.5739 13.495 13.4135 13.3313 13.247 13.1611 13.0743 12.9844 12.8931 12.8004 12.7067 12.6114 12.5127 12.4111 12.3087 12.2061 12.1003 11.9907 11.8774 11.7642 11.651 11.5351 11.4128 11.2873 11.1617 11.0361 10.9082 10.7703 10.6299 10.4894 10.349 10.2072 10.0776 9.94666 9.81569 9.68472 9.52835 9.50684 9.48533 9.46382 9.4423 9.42059 9.24414 9.06741 8.89067 8.71391 8.53508 8.33858 8.13977 7.94095 7.74212 7.53925 7.3191 7.09211 6.8651 6.63807 6.40183 6.15255 5.90102 5.64949 5.39795 5.14399 4.88024 4.57332 4.26627 3.95359 3.60088 3.23534 2.92049 2.61959 2.33731 2.10113 1.85643 1.51906 1.1128 0.595634 0