# vtk DataFile Version 2.0
track0
ASCII
DATASET POLYDATA
POINTS 12065 float
-0.0205 0.001 1e-05
-0.02052 0.000999985 1e-05
-0.02054 0.000999973 1e-05
-0.02056 0.000999965 1e-05
-0.02058 0.000999959 1e-05
-0.0206 0.000999956 1e-05
-0.0205 0.00367778 1e-05
-0.02052 0.00367778 1e-05
-0.02054 0.00367777 1e-05
-0.02056 0.00367777 1e-05
-0.02058 0.00367777 1e-05
-0.0206 0.00367777 1e-05
-0.0205 0.00635556 1e-05
-0.02052 0.00635555 1e-05
-0.02054 0.00635555 1e-05
-0.02056 0.00635555 1e-05
-0.02058 0.00635555 1e-05
-0.0206 0.00635555 1e-05
-0.0205 0.00903333 1e-05
-0.02052 0.00903333 1e-05
-0.02054 0.00903333 1e-05
-0.02056 0.00903333 1e-05
-0.02058 0.00903333 1e-05
-0.0206 0.00903333 1e-05
-0.0205 0.0117111 1e-05
-0.02052 0.0117111 1e-05
-0.02054 0.0117111 1e-05
-0.02056 0.0117111 1e-05
-0.02058 0.0117111 1e-05
-0.0206 0.0117111 1e-05
-0.0205 0.0143889 1e-05
-0.02052 0.0143889 1e-05
-0.02054 0.0143889 1e-05
-0.02056 0.0143889 1e-05
-0.02058 0.0143889 1e-05
-0.0206 0.0143889 1e-05
-0.0205 0.0170667 1e-05
-0.02052 0.0170667 1e-05
-0.02054 0.0170667 1e-05
-0.02056 0.0170667 1e-05
-0.02058 0.0170667 1e-05
-0.0206 0.0170667 1e-05
-0.0205 0.0197444 1e-05
-0.02052 0.0197444 1e-05
-0.02054 0.0197444 1e-05
-0.02056 0.0197444 1e-05
-0.02058 0.0197444 1e-05
-0.0206 0.0197444 1e-05
-0.0205 0.0224222 1e-05
-0.02052 0.0224222 1e-05
-0.02054 0.0224222 1e-05
-0.02056 0.0224222 1e-05
-0.02058 0.0224222 1e-05
-0.0206 0.0224222 1e-05
-0.0205 0.0251 1e-05
-0.02052 0.0250998 1e-05
-0.02054 0.0250997 1e-05
-0.02056 0.0250995 1e-05
-0.02058 0.0250995 1e-05
-0.0206 0.0250994 1e-05
-0.0205 0.001 1e-05
-0.0202034 0.00100022 1e-05
-0.0199069 0.00100067 1e-05
-0.0196103 0.00100134 1e-05
-0.0193137 0.00100221 1e-05
-0.0190172 0.00100329 1e-05
-0.0187132 0.00100471 1e-05
-0.0184093 0.00100594 1e-05
-0.0181054 0.00100717 1e-05
-0.0178015 0.00100841 1e-05
-0.0174976 0.00100964 1e-05
-0.0172058 0.00101096 1e-05
-0.016914 0.00101209 1e-05
-0.0166222 0.00101322 1e-05
-0.0163305 0.00101435 1e-05
-0.0160387 0.00101548 1e-05
-0.0157586 0.00101665 1e-05
-0.0154784 0.00101776 1e-05
-0.0151983 0.00101892 1e-05
-0.0149182 0.00102012 1e-05
-0.0146381 0.00102135 1e-05
-0.0144028 0.00102244 1e-05
-0.0141675 0.00102354 1e-05
-0.0139322 0.00102466 1e-05
-0.0136969 0.00102582 1e-05
-0.0134975 0.00102682 1e-05
-0.0134567 0.00102703 1e-05
-0.0134159 0.00102724 1e-05
-0.0133751 0.00102745 1e-05
-0.0133343 0.00102766 1e-05
-0.0132934 0.00102787 1e-05
-0.0130353 0.00102921 1e-05
-0.0127771 0.00103058 1e-05
-0.0125189 0.00103197 1e-05
-0.0122607 0.00103337 1e-05
-0.0120025 0.0010348 1e-05
-0.0117547 0.00103618 1e-05
-0.0115068 0.00103757 1e-05
-0.0112589 0.00103898 1e-05
-0.0110111 0.00104039 1e-05
-0.0107632 0.00104181 1e-05
-0.0105252 0.00104318 1e-05
-0.0102873 0.00104456 1e-05
-0.0100493 0.00104594 1e-05
-0.00981133 0.00104733 1e-05
-0.00957337 0.00104873 1e-05
-0.00934491 0.00105007 1e-05
-0.00911645 0.00105141 1e-05
-0.00888799 0.00105276 1e-05
-0.00865954 0.00105412 1e-05
-0.00843108 0.00105547 1e-05
-0.00821175 0.00105677 1e-05
-0.00799242 0.00105808 1e-05
-0.00777309 0.00105939 1e-05
-0.00755376 0.0010607 1e-05
-0.00733443 0.00106202 1e-05
-0.00712387 0.00106328 1e-05
-0.0069133 0.00106455 1e-05
-0.00670273 0.00106582 1e-05
-0.00649217 0.0010671 1e-05
-0.0062816 0.00106838 1e-05
-0.00607944 0.00106961 1e-05
-0.00587729 0.00107084 1e-05
-0.00567514 0.00107209 1e-05
-0.00547298 0.00107334 1e-05
-0.00527083 0.0010746 1e-05
-0.00507675 0.00107581 1e-05
-0.00488267 0.00107703 1e-05
-0.0046886 0.00107827 1e-05
-0.00449452 0.00107951 1e-05
-0.00430044 0.00108077 1e-05
-0.00411412 0.00108198 1e-05
-0.0039278 0.00108322 1e-05
-0.00374147 0.00108446 1e-05
-0.00355515 0.00108573 1e-05
-0.00336883 0.00108701 1e-05
-0.00318995 0.00108825 1e-05
-0.00301107 0.00108952 1e-05
-0.00283219 0.00109082 1e-05
-0.00265331 0.00109214 1e-05
-0.00247443 0.00109348 1e-05
-0.0023027 0.0010948 1e-05
-0.00213097 0.00109616 1e-05
-0.00195924 0.00109755 1e-05
-0.00178751 0.00109898 1e-05
-0.00161577 0.00110045 1e-05
-0.0014509 0.00110189 1e-05
-0.00128603 0.00110339 1e-05
-0.00112116 0.00110495 1e-05
-0.000956293 0.00110658 1e-05
-0.000791418 0.00110827 1e-05
-0.000633135 0.00110996 1e-05
-0.000474852 0.00111173 1e-05
-0.00031657 0.00111359 1e-05
-0.000158289 0.00111554 1e-05
0 0.00111757 1e-05
0.000105677 0.00111898 1e-05
0.000211354 0.00112044 1e-05
0.000317031 0.00112193 1e-05
0.000422706 0.00112347 1e-05
0.000528387 0.00112505 1e-05
0.000634886 0.00112667 1e-05
0.000741385 0.00112831 1e-05
0.000847883 0.00112998 1e-05
0.000954381 0.00113166 1e-05
0.00106088 0.00113336 1e-05
0.00116821 0.0011351 1e-05
0.00127554 0.00113686 1e-05
0.00138286 0.00113864 1e-05
0.00149019 0.00114043 1e-05
0.00159752 0.00114223 1e-05
0.00170568 0.00114407 1e-05
0.00181384 0.00114594 1e-05
0.001922 0.00114783 1e-05
0.00203016 0.00114975 1e-05
0.00213833 0.00115168 1e-05
0.00224733 0.00115364 1e-05
0.00235633 0.00115564 1e-05
0.00246533 0.00115766 1e-05
0.00257433 0.00115972 1e-05
0.00268334 0.00116179 1e-05
0.00279319 0.00116388 1e-05
0.00290304 0.00116602 1e-05
0.00301289 0.00116818 1e-05
0.00312273 0.00117037 1e-05
0.00323259 0.00117258 1e-05
0.00334329 0.00117482 1e-05
0.00345399 0.0011771 1e-05
0.0035647 0.0011794 1e-05
0.0036754 0.00118173 1e-05
0.00378611 0.00118409 1e-05
0.00389767 0.00118647 1e-05
0.00400924 0.0011889 1e-05
0.0041208 0.00119136 1e-05
0.00423236 0.00119385 1e-05
0.00434393 0.00119636 1e-05
0.00445636 0.0011989 1e-05
0.00456879 0.0012015 1e-05
0.00468122 0.00120413 1e-05
0.00479365 0.00120678 1e-05
0.00490609 0.00120946 1e-05
0.0050194 0.00121217 1e-05
0.0051327 0.00121494 1e-05
0.00524601 0.00121775 1e-05
0.00535931 0.00122059 1e-05
0.00547262 0.00122345 1e-05
0.00558681 0.00122633 1e-05
0.00570099 0.00122928 1e-05
0.00581518 0.00123228 1e-05
0.00592936 0.00123531 1e-05
0.00604356 0.00123834 1e-05
0.00615863 0.00124141 1e-05
0.0062737 0.00124454 1e-05
0.00638878 0.00124772 1e-05
0.00650385 0.00125094 1e-05
0.00661893 0.00125415 1e-05
0.0067349 0.00125739 1e-05
0.00685087 0.0012607 1e-05
0.00696683 0.00126407 1e-05
0.0070828 0.00126746 1e-05
0.00719878 0.00127085 1e-05
0.00731565 0.00127425 1e-05
0.00743252 0.00127773 1e-05
0.00754939 0.00128127 1e-05
0.00766625 0.00128484 1e-05
0.00778313 0.00128839 1e-05
0.00790091 0.00129195 1e-05
0.00801869 0.00129558 1e-05
0.00813647 0.00129928 1e-05
0.00825424 0.001303 1e-05
0.00837203 0.00130669 1e-05
0.00849073 0.0013104 1e-05
0.00860942 0.00131417 1e-05
0.00872811 0.001318 1e-05
0.0088468 0.00132186 1e-05
0.00896551 0.00132569 1e-05
0.00908513 0.00132953 1e-05
0.00920475 0.00133343 1e-05
0.00932436 0.00133738 1e-05
0.00944397 0.00134136 1e-05
0.0095636 0.00134531 1e-05
0.00968415 0.00134926 1e-05
0.0098047 0.00135327 1e-05
0.00992524 0.00135733 1e-05
0.0100458 0.00136141 1e-05
0.0101663 0.00136546 1e-05
0.0102878 0.00136951 1e-05
0.0104093 0.00137362 1e-05
0.0105308 0.00137776 1e-05
0.0106523 0.00138192 1e-05
0.0107738 0.00138605 1e-05
0.0108962 0.0013902 1e-05
0.0110186 0.00139438 1e-05
0.0111411 0.0013986 1e-05
0.0112635 0.00140282 1e-05
0.0113859 0.00140703 1e-05
0.0115093 0.00141125 1e-05
0.0116327 0.0014155 1e-05
0.0117561 0.00141977 1e-05
0.0118794 0.00142405 1e-05
0.0120028 0.00142832 1e-05
0.0121272 0.00143261 1e-05
0.0122515 0.00143691 1e-05
0.0123759 0.00144123 1e-05
0.0125002 0.00144555 1e-05
0.0126245 0.00144987 1e-05
0.0127498 0.00145421 1e-05
0.0128752 0.00145855 1e-05
0.0130005 0.00146291 1e-05
0.0131258 0.00146726 1e-05
0.0132511 0.00147161 1e-05
0.0133774 0.00147599 1e-05
0.0135036 0.00148037 1e-05
0.0136299 0.00148475 1e-05
0.0137562 0.00148912 1e-05
0.0138825 0.00149349 1e-05
0.0140098 0.0014979 1e-05
0.014137 0.0015023 1e-05
0.0142643 0.00150668 1e-05
0.0143915 0.00151107 1e-05
0.0145188 0.00151545 1e-05
0.0146471 0.00151986 1e-05
0.0147753 0.00152426 1e-05
0.0149036 0.00152865 1e-05
0.0150318 0.00153303 1e-05
0.0151601 0.00153741 1e-05
0.0152893 0.00154182 1e-05
0.0154186 0.00154621 1e-05
0.0155478 0.00155059 1e-05
0.0156771 0.00155495 1e-05
0.0158063 0.00155931 1e-05
0.0159366 0.00156371 1e-05
0.0160668 0.00156807 1e-05
0.0161971 0.00157243 1e-05
0.0163274 0.00157677 1e-05
0.0164576 0.00158109 1e-05
0.0165889 0.00158546 1e-05
0.0167201 0.00158979 1e-05
0.0168514 0.00159411 1e-05
0.0169827 0.00159841 1e-05
0.0171139 0.00160269 1e-05
0.0172462 0.00160701 1e-05
0.0173785 0.0016113 1e-05
0.0175108 0.00161556 1e-05
0.0176431 0.00161981 1e-05
0.0177754 0.00162403 1e-05
0.0179087 0.00162829 1e-05
0.018042 0.00163251 1e-05
0.0181753 0.0016367 1e-05
0.0183087 0.00164088 1e-05
0.018442 0.00164503 1e-05
0.0185763 0.0016492 1e-05
0.0187107 0.00165334 1e-05
0.018845 0.00165745 1e-05
0.0189794 0.00166153 1e-05
0.0191137 0.00166559 1e-05
0.0192491 0.00166966 1e-05
0.0193845 0.0016737 1e-05
0.0195199 0.0016777 1e-05
0.0196553 0.00168168 1e-05
0.0197907 0.00168562 1e-05
0.0199272 0.00168957 1e-05
0.0200636 0.00169349 1e-05
0.0202001 0.00169736 1e-05
0.0203365 0.00170121 1e-05
0.020473 0.00170501 1e-05
0.0206105 0.00170882 1e-05
0.020748 0.00171259 1e-05
0.0208855 0.00171631 1e-05
0.021023 0.00172 1e-05
0.0211606 0.00172365 1e-05
0.0212991 0.00172729 1e-05
0.0214377 0.00173089 1e-05
0.0215763 0.00173444 1e-05
0.0217149 0.00173795 1e-05
0.0218535 0.00174142 1e-05
0.0219855 0.00174468 1e-05
0.0221175 0.0017479 1e-05
0.0222495 0.00175108 1e-05
0.0223816 0.00175421 1e-05
0.0225517 0.00175819 1e-05
0.0225547 0.00175826 1e-05
0.0225578 0.00175833 1e-05
0.0225608 0.0017584 1e-05
0.0225638 0.00175847 1e-05
0.0225668 0.00175854 1e-05
0.0227045 0.0017617 1e-05
0.0228423 0.0017648 1e-05
0.02298 0.00176786 1e-05
0.0231177 0.00177086 1e-05
0.0232555 0.00177381 1e-05
0.0233973 0.00177679 1e-05
0.0235391 0.00177972 1e-05
0.023681 0.00178258 1e-05
0.0238228 0.00178538 1e-05
0.0239647 0.00178813 1e-05
0.0241076 0.00179083 1e-05
0.0242505 0.00179347 1e-05
0.0243935 0.00179604 1e-05
0.0245364 0.00179854 1e-05
0.0246794 0.00180098 1e-05
0.0248234 0.00180336 1e-05
0.0249675 0.00180568 1e-05
0.0251115 0.00180791 1e-05
0.0252556 0.00181008 1e-05
[...]
POINT_DATA 12065
 FIELD attributes 1
U 3 12065 float
10.0004 	0.00736948 	0 10.0004 	0.00589558 	0 10.0003 	0.00442169 	0 10.0002 	0.00294779 	0 10.0001 	0.00147389 	0 10 	0 	0
10 	0.000957146 	0 10 	0.000765717 	0 10 	0.000574288 	0 10 	0.000382858 	0 10 	0.000191429 	0 10 	0 	0
10.0001 	0.000591212 	0 10.0001 	0.000472837 	0 10 	0.000354462 	0 10 	0.000236087 	0 10 	0.000117712 	0 10 	0 	0
10 	0.00042325 	0 10 	0.0003386 	0 10 	0.00025395 	0 10 	0.0001693 	0 10 	8.465e-05 	0 10 	0 	0
10 	0.000248089 	0 10 	0.000198471 	0 10 	0.000148853 	0 10 	9.92356e-05 	0 10 	4.96178e-05 	0 10 	0 	0
10 	0.000133149 	0 10 	0.000106519 	0 10 	7.98894e-05 	0 10 	5.32596e-05 	0 10 	2.66298e-05 	0 10 	0 	0
10 	-9.18628e-05 	0 10 	-7.34902e-05 	0 10 	-5.51177e-05 	0 10 	-3.67451e-05 	0 10 	-1.83726e-05 	0 10 	0 	0
10 	-0.000290099 	0 10 	-0.00023208 	0 10 	-0.00017406 	0 10 	-0.00011604 	0 10 	-5.80199e-05 	0 10 	0 	0
9.99999 	-0.000371129 	0 9.99999 	-0.000296903 	0 10 	-0.000222677 	0 10 	-0.000148452 	0 10 	-7.42258e-05 	0 10 	0 	0
9.1739 	0.0871388 	0 9.13082 	0.0697111 	0 9.08742 	0.052283 	0 9.04369 	0.0348548 	0 8.99963 	0.0174263 	0 8.95524 	0 	0
10.0004 	0.00736948 	0 10.0024 	0.0152982 	0 10.0044 	0.0223906 	0 10.0064 	0.029438 	0 10.0084 	0.0364408 	0 10.0133 	0.0466941 	0 10.016 	0.0406549 	0 10.0203 	0.0406937 	0 10.0246 	0.0407324 	0 10.0289 	0.0407711 	0 10.0347 	0.0452948 	0 10.0373 	0.0387957 	0 10.041 	0.0388352 	0 10.0448 	0.0388748 	0 10.0485 	0.0389143 	0 10.0523 	0.0420201 	0 10.0542 	0.0401047 	0 10.0563 	0.0415038 	0 10.0584 	0.0429046 	0 10.0605 	0.0443073 	0 10.0623 	0.0467684 	0 10.0633 	0.0469334 	0 10.0642 	0.048112 	0 10.065 	0.0492916 	0 10.0658 	0.0504722 	0 10.0666 	0.0514738 	0 10.0667 	0.0516799 	0 10.0669 	0.0518861 	0 10.067 	0.0520924 	0 10.0671 	0.0522987 	0 10.0673 	0.0524765 	0 10.0673 	0.0532592 	0 10.0673 	0.0540223 	0 10.0673 	0.054786 	0 10.0673 	0.0555505 	0 10.0672 	0.0561305 	0 10.0665 	0.0566293 	0 10.0654 	0.057007 	0 10.0644 	0.0573849 	0 10.0634 	0.0577631 	0 10.0621 	0.0578852 	0 10.061 	0.0582909 	0 10.0591 	0.0585082 	0 10.0572 	0.0587256 	0 10.0553 	0.0589432 	0 10.0529 	0.0588734 	0 10.0518 	0.0592498 	0 10.0492 	0.0593851 	0 10.0467 	0.0595205 	0 10.0442 	0.059656 	0 10.0406 	0.0594881 	0 10.0398 	0.0598671 	0 10.0367 	0.0599701 	0 10.0336 	0.0600731 	0 10.0305 	0.0601762 	0 10.0256 	0.0599819 	0 10.0253 	0.060429 	0 10.0217 	0.0605792 	0 10.018 	0.0607294 	0 10.0144 	0.0608797 	0 10.0081 	0.0607545 	0 10.0086 	0.0613533 	0 10.0045 	0.0616334 	0 10.0003 	0.0619138 	0 9.99621 	0.0621942 	0 9.9884 	0.0622192 	0 9.98978 	0.063051 	0 9.98523 	0.0635523 	0 9.98069 	0.0640537 	0 9.97615 	0.0645554 	0 9.9667 	0.0648295 	0 9.96924 	0.0659955 	0 9.96427 	0.0668032 	0 9.9593 	0.0676113 	0 9.95434 	0.0684198 	0 9.94306 	0.0690178 	0 9.94687 	0.0706492 	0 9.94152 	0.0720058 	0 9.93617 	0.073363 	0 9.93083 	0.0747209 	0 9.91769 	0.0759649 	0 9.92306 	0.0783652 	0 9.9173 	0.0804577 	0 9.91155 	0.0825512 	0 9.90582 	0.0846457 	0 9.8906 	0.0866092 	0 9.89786 	0.0899838 	0 9.89215 	0.093783 	0 9.88647 	0.0975837 	0 9.88065 	0.101388 	0 9.86407 	0.105309 	0 9.87325 	0.110489 	0 9.87039 	0.115917 	4.95908e-21 9.8668 	0.121362 	1.0231e-20 9.86185 	0.126704 	1.43428e-20 9.84731 	0.13132 	1.05e-20 9.85907 	0.135755 	1.05246e-19 9.85975 	0.139632 	1.15508e-19 9.85838 	0.143406 	1.10064e-19 9.85502 	0.147003 	8.80544e-20 9.8415 	0.149701 	-1.80278e-20 9.85567 	0.152198 	-4.86583e-20 9.85755 	0.154094 	-5.84371e-20 9.85688 	0.155866 	-6.38752e-20 9.85366 	0.157609 	-6.01229e-20 9.83923 	0.159222 	-1.5981e-20 9.85448 	0.161521 	-1.47803e-20 9.85599 	0.163081 	-1.00349e-20 9.85414 	0.164461 	-4.42154e-21 9.84908 	0.165771 	2.16928e-21 9.83206 	0.166823 	1.23814e-20 9.84817 	0.170168 	2.28628e-21 9.8494 	0.172399 	-1.38657e-20 9.84628 	0.174304 	-3.17878e-20 9.83909 	0.175869 	-5.26121e-20 9.81932 	0.176385 	-8.23836e-20 9.83697 	0.180361 	-1.45436e-19 9.83862 	0.183024 	-1.54078e-19 9.83456 	0.185219 	-1.43304e-19 9.82523 	0.186841 	-1.10979e-19 9.80266 	0.187023 	-2.45177e-20 9.8225 	0.190917 	7.46507e-20 9.82509 	0.193608 	1.15514e-19 9.82004 	0.195766 	1.30504e-19 9.8081 	0.19732 	1.13646e-19 9.78225 	0.19766 	3.26342e-20 9.80495 	0.201562 	-1.17116e-19 9.80921 	0.204339 	-1.7679e-19 9.80314 	0.206487 	-1.8592e-19 9.78793 	0.208044 	-1.38101e-19 9.75818 	0.208663 	2.94453e-22 9.78462 	0.212931 	1.3811e-19 9.79166 	0.215987 	1.92996e-19 9.78469 	0.21817 	1.87964e-19 9.76546 	0.219642 	1.27417e-19 9.73111 	0.22024 	-1.525e-21 9.76208 	0.225072 	-1.03578e-19 9.77327 	0.228569 	-1.65518e-19 9.76557 	0.230794 	-1.89201e-19 9.74135 	0.232009 	-1.57893e-19 9.70175 	0.232284 	-7.54862e-20 9.73772 	0.237826 	-1.57796e-19 9.75448 	0.24194 	-1.99734e-19 9.74615 	0.244189 	-1.88981e-19 9.71573 	0.244892 	-1.26529e-19 9.6704 	0.244553 	-2.92282e-20 9.71143 	0.250778 	-3.02274e-20 9.73522 	0.255609 	-2.44427e-20 9.72635 	0.257799 	-5.84869e-21 9.6885 	0.257705 	7.53487e-21 9.63734 	0.256563 	1.85283e-20 9.68315 	0.263353 	7.95248e-21 9.71535 	0.268976 	0 9.70605 	0.271043 	0 9.65964 	0.26995 	0 9.6029 	0.267978 	0 9.65286 	0.275228 	0 9.69456 	0.281733 	-2.54942e-21 9.6849 	0.283626 	-2.08065e-20 9.62903 	0.281344 	-5.04048e-20 9.56729 	0.278534 	-8.14409e-20 9.62053 	0.286009 	-1.47991e-19 9.67245 	0.293359 	-2.13114e-19 9.66254 	0.295019 	-2.15915e-19 9.59681 	0.291492 	-1.49178e-19 9.53104 	0.287962 	-8.24338e-20 9.58639 	0.295395 	4.57534e-20 9.64183 	0.302835 	1.73946e-19 9.63164 	0.304229 	2.03421e-19 9.56321 	0.300216 	1.19715e-19 9.49474 	0.2962 	3.60002e-20 9.55082 	0.303388 	1.20841e-19 9.60701 	0.310582 	2.05674e-19 9.59807 	0.311849 	2.06377e-19 9.52845 	0.307559 	1.21087e-19 9.45878 	0.303266 	3.57886e-20 9.51422 	0.309985 	2.20344e-20 9.56976 	0.31671 	8.27223e-21 9.56211 	0.31782 	0 9.49285 	0.313438 	0 9.42353 	0.309053 	0 9.47698 	0.315065 	0 9.53051 	0.321084 	0 9.52405 	0.322001 	-6.5013e-21 9.45671 	0.317745 	-1.99823e-20 9.38932 	0.313486 	-3.34682e-20 9.43967 	0.318675 	-1.21095e-19 9.49009 	0.323868 	-2.08715e-19 9.48463 	0.324599 	-2.02575e-19 9.4205 	0.320672 	-1.08793e-19 9.35632 	0.316742 	-1.50109e-20 9.40283 	0.321066 	9.76261e-20 9.44941 	0.325395 	2.10276e-19 9.44468 	0.325953 	2.04689e-19 9.38462 	0.322516 	9.47763e-20 9.32452 	0.319075 	-1.51465e-20 9.36666 	0.322484 	-7.47731e-21 9.40886 	0.325896 	1.94478e-22 9.40459 	0.326247 	-1.18767e-20 9.34922 	0.323378 	-2.45149e-20 9.29382 	0.320507 	-3.71521e-20 9.33126 	0.322965 	-2.52785e-20 9.36492 	0.325211 	-1.34035e-20 9.3591 	0.325239 	-1.49141e-21 9.31448 	0.323251 	0 9.26429 	0.320975 	0 9.29708 	0.322557 	0 9.32083 	0.323724 	-3.24073e-21 9.3149 	0.32353 	-1.71209e-20 9.2809 	0.322225 	-2.51366e-20 9.23603 	0.320491 	-3.08825e-20 9.26434 	0.321258 	-1.33877e-19 9.27968 	0.321575 	-1.96997e-19 9.27374 	0.321152 	-1.94704e-19 9.24867 	0.320241 	-1.35953e-19 9.20902 	0.318957 	-3.42044e-20 9.23329 	0.318964 	-2.97286e-20 9.2418 	0.318633 	-4.19308e-20 9.23593 	0.317995 	-6.93418e-20 9.21804 	0.31726 	-1.01787e-19 9.18327 	0.316387 	-1.4131e-19 9.20393 	0.315748 	-2.13949e-19 9.20702 	0.314984 	-2.28265e-19 9.2013 	0.314158 	-2.13295e-19 9.18904 	0.313409 	-1.80166e-19 9.15877 	0.312879 	-9.68905e-20 9.17632 	0.311672 	3.88358e-20 9.17531 	0.310639 	1.06002e-19 9.16982 	0.309647 	1.56684e-19 9.16184 	0.308742 	1.90459e-19 9.13561 	0.308493 	9.89798e-20 9.15055 	0.306868 	1.93671e-19 9.14648 	0.305685 	1.84109e-19 9.14125 	0.304526 	1.68319e-19 9.13599 	0.303366 	1.52541e-19 9.11375 	0.303206 	4.88264e-20 9.12509 	0.301264 	4.1129e-20 9.12017 	0.299926 	1.22174e-22 9.11522 	0.298585 	-4.08825e-20 9.11024 	0.297243 	-8.1885e-20 9.09312 	0.296934 	-1.11508e-19 9.10077 	0.294774 	-9.13449e-20 9.09616 	0.293251 	-9.29324e-20 9.09151 	0.291725 	-9.45082e-20 9.08683 	0.290197 	-9.60721e-20 9.07368 	0.289656 	-1.1597e-19 9.07848 	0.287332 	-8.9819e-20 9.0742 	0.28562 	-6.35927e-20 9.06988 	0.283906 	-3.73594e-20 9.06552 	0.28219 	-1.11192e-20 9.05545 	0.281357 	0 9.0581 	0.278905 	5.90166e-21 9.05419 	0.276997 	1.89531e-20 9.05023 	0.275087 	3.20009e-20 9.04622 	0.273173 	4.50451e-20 9.03851 	0.271999 	6.18804e-20 9.03956 	0.269428 	-1.10035e-20 9.03604 	0.267286 	-3.55723e-20 9.03246 	0.265142 	-6.01786e-20 9.02882 	0.262994 	-8.48225e-20 9.02291 	0.261408 	-6.36936e-20 9.02287 	0.258671 	-7.14093e-20 9.01978 	0.256286 	-8.5536e-20 9.01662 	0.253897 	-9.96472e-20 9.0134 	0.251506 	-1.13743e-19 9.0089 	0.24953 	-1.31227e-19 9.00816 	0.24666 	-9.28809e-20 9.00552 	0.244052 	-5.10817e-20 9.00281 	0.24144 	-9.27684e-21 9.00003 	0.238825 	3.25338e-20 8.99661 	0.236476 	7.13075e-20 8.99549 	0.233457 	8.3057e-20 8.9933 	0.230595 	8.09803e-20 8.99103 	0.22773 	7.89436e-20 8.98869 	0.224862 	7.6947e-20 8.98607 	0.222115 	6.86445e-20 8.98489 	0.219056 	4.91336e-20 8.98322 	0.216065 	3.78698e-20 8.98148 	0.21307 	2.65467e-20 8.97966 	0.210073 	1.51643e-20 8.97721 	0.206209 	5.97432e-22 8.97719 	0.206134 	1.25996e-21 8.97716 	0.206059 	1.8323e-21 8.97714 	0.205985 	2.40467e-21 8.97711 	0.20591 	2.97706e-21 8.97708 	0.205835 	3.55547e-21 8.97573 	0.202423 	2.92866e-20 8.97429 	0.199008 	5.50904e-20 8.97277 	0.19559 	8.09669e-20 8.97116 	0.192169 	1.06916e-19 8.96871 	0.188751 	1.4044e-19 8.96836 	0.18488 	1.61817e-19 8.96732 	0.181049 	1.76236e-19 8.96618 	0.177216 	1.90563e-19 8.96494 	0.173379 	2.04799e-19 8.96239 	0.169562 	2.04835e-19 8.96279 	0.165284 	1.8059e-19 8.96217 	0.161088 	1.39685e-19 8.96144 	0.156889 	9.86588e-20 8.96061 	0.152688 	5.75117e-20 8.95829 	0.14852 	-2.89962e-21 8.95921 	0.143815 	-2.44307e-21 8.95901 	0.13922 	-1.89429e-21 8.95871 	0.134622 	-1.34601e-21 8.95829 	0.130023 	-7.9822e-22 8.95643 	0.125463 	-3.17763e-22 8.95768 	0.120313 	1.23828e-20 8.95791 	0.115284 	2.66325e-20 8.95801 	0.110254 	4.08935e-20 8.95799 	0.105221 	5.5166e-20 8.95681 	0.100229 	6.9447e-20 8.95825 	0.0946206 	5.60447e-20 8.95888 	0.0891224 	4.27193e-20 8.95939 	0.0836227 	2.94069e-20 8.95976 	0.0781216 	1.61074e-20 8.95942 	0.0726471 	6.07124e-22 8.96094 	0.0665664 	-3.21876e-20 8.96196 	0.0605549 	-5.70704e-20 8.96284 	0.0545427 	-8.17684e-20 8.96358 	0.0485296 	-1.06282e-19 8.96405 	0.0438902 	-1.2505e-19 8.96406 	0.0436157 	-1.26111e-19 8.96408 	0.0433411 	-1.27172e-19 8.9641 	0.0430666 	-1.28232e-19 8.96412 	0.042792 	-1.29292e-19 8.96414 	0.0425232 	-1.31026e-19 8.96557 	0.0359494 	-1.31428e-19 8.96683 	0.0293791 	-1.3177e-19 8.96794 	0.0228093 	-1.32053e-19 8.96889 	0.01624 	-1.32276e-19 8.96993 	0.00981597 	-1.36069e-19 8.97179 	0.00253679 	-1.08094e-19 8.97333 	-0.00466998 	-5.93672e-20 8.9747 	-0.0118752 	-1.09009e-20 8.9759 	-0.0190788 	3.73044e-20 8.97753 	-0.0259709 	1.24826e-19 8.97981 	-0.0340501 	9.83469e-20 8.98157 	-0.0419783 	7.19447e-20 8.98314 	-0.0499036 	4.55072e-20 8.98454 	-0.0578261 	1.90346e-20 8.98678 	-0.0652506 	6.66171e-21 8.98947 	-0.074224 	-1.44728e-20 8.99138 	-0.0829597 	-3.99919e-20 8.99308 	-0.0916911 	-6.5473e-20 8.9946 	-0.100418 	-9.0916e-20 8.99743 	-0.10845 	-1.01998e-19 9.00055 	-0.118411 	3.34958e-20 9.0025 	-0.128043 	6.97952e-20 9.00424 	-0.137669 	1.06481e-19 9.00577 	-0.14729 	1.43553e-19 9.0091 	-0.156022 	2.03096e-20 9.01271 	-0.167079 	1.54849e-22 9.01457 	-0.177707 	1.03922e-22 9.01622 	-0.188328 	5.29098e-23 9.01764 	-0.19894 	1.81196e-24 9.02128 	-0.208491 	0 9.0253 	-0.22073 	0 9.02708 	-0.232494 	2.23951e-20 9.02845 	-0.244208 	4.66522e-20 9.03013 	-0.255677 	6.4063e-20 9.03326 	-0.266406 	6.02269e-20 9.03716 	-0.279836 	-1.55218e-19 9.03934 	-0.292955 	-2.56049e-19 9.04021 	-0.305849 	-2.7498e-19 9.04186 	-0.318257 	-1.82289e-19 9.04407 	-0.330287 	-2.20565e-21 9.04768 	-0.345007 	-1.95134e-19 9.05047 	-0.359611 	-3.61983e-19 9.05059 	-0.373737 	-4.08611e-19 9.05167 	-0.387161 	-2.68353e-19 9.05261 	-0.400523 	-1.12517e-19 9.05563 	-0.416587 	-2.78932e-19 9.05836 	-0.432634 	-4.45478e-19 9.05869 	-0.447993 	-4.3959e-19 9.0583 	-0.462705 	-2.3511e-19 9.05765 	-0.477413 	-3.04509e-20 9.05983 	-0.494866 	3.10208e-19 9.0617 	-0.5123 	6.5087e-19 9.06292 	-0.529123 	6.77269e-19 9.06056 	-0.545106 	3.68469e-19 9.05793 	-0.56109 	5.94898e-20 9.05892 	-0.579885 	5.00568e-20 9.05949 	-0.59848 	2.73949e-20 9.05951 	-0.616619 	-2.73164e-20 9.05711 	-0.634251 	-7.06084e-20 9.05214 	-0.651371 	-1.01883e-19 9.05159 	-0.671384 	-2.98269e-19 9.0499 	-0.690828 	-2.81784e-19 9.04773 	-0.710157 	-2.28236e-19 9.04524 	-0.729464 	-1.74052e-19 9.03895 	-0.747916 	1.61381e-20 9.03638 	-0.765254 	1.17287e-19 9.03274 	-0.782176 	1.1623e-19 9.02886 	-0.799084 	1.14693e-19 9.02475 	-0.815976 	1.12675e-19 9.02122 	-0.829694 	1.10646e-19 9.02009 	-0.833675 	1.15226e-19 9.01895 	-0.837654 	1.19803e-19 9.0178 	-0.841633 	1.24375e-19 9.01663 	-0.84561 	1.28943e-19 9.01554 	-0.849551 	1.27651e-19 9.00902 	-0.870672 	3.46355e-20 9.00146 	-0.891496 	-2.53727e-20 8.99355 	-0.912299 	-8.64064e-20 8.98531 	-0.93308 	-1.48467e-19 8.97668 	-0.953473 	3.50707e-20 8.97028 	-0.97628 	1.49565e-19 8.96075 	-0.997922 	1.81282e-19 8.94967 	-1.01904 	1.76524e-19 8.93774 	-1.03967 	9.37673e-20 8.92524 	-1.06015 	-2.27739e-20 8.91574 	-1.08318 	-1.30942e-20 8.90588 	-1.10618 	-3.32858e-21 8.8932 	-1.12788 	-8.47988e-21 8.87699 	-1.14798 	-2.9864e-20 8.86042 	-1.16814 	-5.11991e-20 8.84747 	-1.19092 	-1.74193e-20 8.83332 	-1.21305 	0 8.8179 	-1.2345 	0 8.80212 	-1.25593 	0 8.78201 	-1.27547 	-1.75945e-20 8.77317 	-1.2873 	-7.2104e-24 8.76302 	-1.29829 	-1.7562e-20 8.75277 	-1.30927 	-3.51602e-20 8.74242 	-1.32025 	-5.27875e-20 8.73291 	-1.33025 	-6.88626e-20 8.72376 	-1.34009 	-7.78109e-20 8.71452 	-1.34992 	-8.67306e-20 8.70521 	-1.35976 	-9.56217e-20 8.69578 	-1.36954 	-1.04489e-19 8.68579 	-1.37877 	-1.13408e-19 8.66666 	-1.40038 	-7.96847e-20 8.64397 	-1.42004 	-4.23575e-20 8.62097 	-1.43971 	-4.95155e-21 8.59673 	-1.45843 	1.16648e-20 8.5715 	-1.47664 	1.5389e-20 8.54894 	-1.49707 	6.12713e-20 8.52603 	-1.51749 	1.07106e-19 8.50149 	-1.53644 	1.04495e-19 8.47298 	-1.55288 	7.39598e-20 8.44391 	-1.56931 	4.25853e-20 8.42228 	-1.58469 	7.72928e-21 8.39931 	-1.59867 	9.87595e-21 8.37581 	-1.61225 	2.2616e-20 8.35211 	-1.62583 	3.5386e-20 8.33078 	-1.63794 	4.68024e-20 8.32521 	-1.6413 	4.82419e-20 8.31963 	-1.64466 	4.96792e-20 8.31404 	-1.64802 	5.11142e-20 8.30835 	-1.65126 	5.25784e-20 8.30245 	-1.65421 	5.41124e-20 8.2728 	-1.67055 	4.17826e-20 8.24142 	-1.68585 	3.34089e-20 8.20976 	-1.70117 	2.49318e-20 8.17695 	-1.71518 	1.59299e-20 8.14306 	-1.7283 	6.47456e-21 8.11137 	-1.74327 	-2.05469e-21 8.07938 	-1.75825 	-1.06924e-20 8.04584 	-1.77096 	-1.1785e-20 8.01086 	-1.78273 	-1.31692e-20 7.97416 	-1.79361 	-1.53091e-20 7.95871 	-1.79925 	-2.00989e-20 7.94293 	-1.80427 	-2.30631e-20 7.92689 	-1.80882 	-2.46844e-20 7.91079 	-1.81338 	-2.63144e-20 7.89539 	-1.81774 	-2.78788e-20 7.87533 	-1.82413 	-2.48574e-20 7.8552 	-1.83053 	-2.18215e-20 7.83498 	-1.83694 	-1.87707e-20 7.81395 	-1.84271 	-1.79757e-20 7.79196 	-1.84782 	-1.96703e-20 7.75667 	-1.85835 	-5.3289e-20 7.72111 	-1.8689 	-8.68668e-20 7.68218 	-1.87729 	-8.48579e-20 7.64108 	-1.88395 	-4.68346e-20 7.59952 	-1.89066 	-8.60263e-21 7.57195 	-1.89646 	-3.11814e-21 7.54346 	-1.9015 	-1.10514e-22 7.51387 	-1.90561 	-9.31915e-23 7.48416 	-1.90973 	-7.5964e-23 7.45612 	-1.91361 	-5.98667e-23 7.4454 	-1.9155 	-4.26964e-23 7.43465 	-1.91739 	-2.5516e-23 7.42389 	-1.91928 	-8.32525e-24 7.41249 	-1.92083 	0 7.40048 	-1.92207 	0 7.36356 	-1.92765 	0 7.32388 	-1.93215 	-3.00261e-23 7.28379 	-1.9366 	-6.23567e-23 7.23969 	-1.93905 	-5.87059e-21 7.19498 	-1.94143 	-1.20077e-20 7.15833 	-1.94459 	1.99534e-20 7.12 	-1.94699 	2.82917e-20 7.07951 	-1.94837 	5.94413e-21 7.03885 	-1.94977 	-1.65178e-20 7.00053 	-1.95109 	-3.76993e-20 6.99789 	-1.95124 	-3.94432e-20 6.99525 	-1.9514 	-4.11877e-20 6.99261 	-1.95155 	-4.29329e-20 6.98983 	-1.95163 	-4.15784e-20 6.98693 	-1.95165 	-3.74963e-20 6.94616 	-1.95229 	-2.79671e-20 6.90456 	-1.95272 	-1.86471e-20 6.8628 	-1.95317 	-9.29932e-21 6.8186 	-1.95239 	-1.47849e-20 6.77276 	-1.95094 	-2.86332e-20 6.73286 	-1.95049 	-7.0269e-20 6.69212 	-1.94971 	-9.69239e-20 6.64871 	-1.94763 	-6.73158e-20 6.60515 	-1.94557 	-3.76064e-20 6.55997 	-1.94312 	3.44645e-21 6.55486 	-1.94288 	-7.01546e-21 6.54962 	-1.94258 	-1.12699e-20 6.54416 	-1.94216 	-6.08288e-21 6.5387 	-1.94174 	-8.92637e-22 6.53326 	-1.94133 	4.26929e-21 6.49671 	-1.93879 	2.0319e-20 6.46006 	-1.93627 	3.64413e-20 6.4233 	-1.93376 	5.26373e-20 6.38509 	-1.93044 	3.40507e-20 6.34551 	-1.92643 	-1.4281e-20 6.3057 	-1.92301 	-9.83641e-21 6.26574 	-1.91961 	-5.40487e-21 6.22341 	-1.91484 	9.79255e-21 6.17989 	-1.90972 	2.67629e-20 6.13481 	-1.90426 	4.48198e-20 6.12183 	-1.90283 	3.88875e-20 6.10855 	-1.90124 	3.72969e-20 6.09483 	-1.8994 	4.18934e-20 6.0811 	-1.89756 	4.64938e-20 6.06753 	-1.89574 	5.10402e-20 6.03996 	-1.89203 	6.86503e-20 6.01234 	-1.88833 	8.62964e-20 5.98466 	-1.88463 	1.03979e-19 5.95613 	-1.88039 	8.08115e-20 5.92676 	-1.87564 	2.06485e-20 5.88841 	-1.86996 	-4.91508e-20 5.84996 	-1.8643 	-1.18975e-19 5.80961 	-1.85773 	-1.19882e-19 5.76688 	-1.85028 	-5.5358e-20 5.72391 	-1.84282 	9.33361e-21 5.70257 	-1.83934 	5.91962e-20 5.68073 	-1.83556 	7.8097e-20 5.65827 	-1.83142 	5.73261e-20 5.63577 	-1.82728 	3.65145e-20 5.61362 	-1.82321 	1.60114e-20 5.59644 	-1.81994 	8.37941e-21 5.57924 	-1.81668 	7.33884e-22 5.56203 	-1.81342 	-6.9253e-21 5.54436 	-1.80984 	1.69522e-21 5.52622 	-1.80596 	2.66241e-20 5.49009 	-1.79866 	1.71501e-20 5.45325 	-1.79123 	8.52863e-21 5.41469 	-1.7833 	2.23925e-21 5.37452 	-1.77436 	-1.63135e-21 5.33418 	-1.7654 	-5.52054e-21 5.30366 	-1.75892 	2.2235e-20 5.27239 	-1.75202 	3.07602e-20 5.24028 	-1.74463 	1.78614e-20 5.20813 	-1.73724 	4.93399e-21 5.17653 	-1.73 	-7.78085e-21 5.17103 	-1.72868 	-1.15496e-20 5.16553 	-1.72736 	-1.53196e-20 5.16003 	-1.72604 	-1.90908e-20 5.15441 	-1.72463 	-1.64113e-20 5.14864 	-1.72311 	-6.30425e-21 5.1142 	-1.71454 	-2.42558e-21 5.07866 	-1.70575 	1.106e-21 5.04307 	-1.69695 	4.63492e-21 5.00625 	-1.68739 	7.14452e-21 4.9688 	-1.67747 	9.21001e-21 4.93561 	-1.66904 	4.15276e-21 4.90209 	-1.66043 	-1.56006e-21 4.86718 	-1.65102 	-1.02719e-20 4.83222 	-1.64161 	-1.89864e-20 4.79569 	-1.6319 	-2.76959e-20 4.78849 	-1.63007 	-3.0383e-20 4.78113 	-1.62814 	-3.09573e-20 4.77359 	-1.62611 	-2.9416e-20 4.76605 	-1.62408 	-2.78745e-20 4.75853 	-1.62206 	-2.63379e-20 4.73292 	-1.61474 	-3.11955e-20 4.70729 	-1.60742 	-3.60599e-20 4.68165 	-1.60011 	-4.09312e-20 4.65546 	-1.59245 	-3.40759e-20 4.62854 	-1.58432 	-1.16502e-20 4.59806 	-1.57552 	-6.00342e-21 4.56756 	-1.56673 	-3.57418e-22 4.53553 	-1.55728 	-1.00818e-21 4.50167 	-1.54718 	-6.64355e-21 4.46775 	-1.53708 	-1.22882e-20 4.44701 	-1.53116 	-2.03581e-20 4.42572 	-1.52492 	-2.27914e-20 4.40396 	-1.51842 	-2.05983e-20 4.38218 	-1.51192 	-1.8405e-20 4.36054 	-1.50547 	-1.62266e-20 4.35117 	-1.50249 	-1.58219e-20 4.3418 	-1.49951 	-1.54172e-20 4.33243 	-1.49654 	-1.50126e-20 4.32289 	-1.49344 	-1.36857e-20 4.31309 	-1.49015 	-1.08645e-20 4.28527 	-1.48132 	-7.43994e-21 4.25574 	-1.47209 	-4.0277e-21 4.22619 	-1.46286 	-6.15038e-22 4.19551 	-1.45288 	0 4.16456 	-1.44273 	0 4.13718 	-1.43421 	0 4.10949 	-1.42551 	7.8175e-22 4.08074 	-1.41614 	4.41048e-21 4.05198 	-1.40677 	8.0395e-21 4.02173 	-1.39707 	1.29195e-20 4.01439 	-1.39484 	2.23586e-20 4.00684 	-1.39248 	2.32641e-20 3.99914 	-1.39003 	1.82602e-20 3.99145 	-1.38759 	1.32557e-20 3.98376 	-1.38514 	8.2599e-21 3.96421 	-1.37851 	2.13767e-23 3.94466 	-1.37187 	-8.21774e-21 3.9251 	-1.36524 	-1.64575e-20 3.90525 	-1.35838 	-1.92686e-20 3.88483 	-1.35106 	-1.14371e-20 3.86005 	-1.34275 	-3.45972e-20 3.83526 	-1.33445 	-5.77571e-20 3.80864 	-1.32546 	-6.00159e-20 3.78104 	-1.31582 	-3.88478e-20 3.75344 	-1.30618 	-1.76751e-20 3.72941 	-1.29832 	-1.07387e-20 3.70464 	-1.28993 	-1.95763e-21 3.67946 	-1.28125 	7.83599e-21 3.65428 	-1.27256 	1.76296e-20 3.62916 	-1.26389 	2.74021e-20 3.62875 	-1.26374 	2.75454e-20 3.62834 	-1.26359 	2.76887e-20 3.62793 	-1.26344 	2.7832e-20 3.62751 	-1.26329 	2.79524e-20 3.62709 	-1.26312 	2.8014