/*--------------------------------*- C++ -*----------------------------------*\
  =========                 |
  \\      /  F ield         | OpenFOAM: The Open Source CFD Toolbox
   \\    /   O peration     | Website:  https://openfoam.org
    \\  /    A nd           | Version:  8
     \\/     M anipulation  |
\*---------------------------------------------------------------------------*/
FoamFile
{
    version     2.0;
    format      ascii;
    class       volScalarField;
    location    "80";
    object      epsilon;
}
// * * * * * * * * * * * * * * * * * * * * * * * * * * * * * * * * * * * * * //

dimensions      [0 2 -3 0 0 0 0];

internalField   nonuniform List<scalar> 
12225
(
285.514
270.725
257.897
243.835
232.439
223.131
216.784
212.761
212.814
214.079
217.429
221.212
228.553
233.4
242.168
247.84
257.998
262.111
52.4893
91.8965
106.983
114.791
124.899
136.912
152.877
170.227
191.622
211.616
236.336
256.823
283.214
301.794
328.606
344.397
371.413
391.236
20.5273
34.8751
44.6758
50.4797
55.4074
59.6424
64.7054
69.7305
76.4524
83.4149
91.7702
99.8177
108.835
117.976
126.787
137.468
145.006
159.119
16.0023
19.4867
24.0814
27.5677
30.5004
32.8831
35.1696
37.3259
39.5401
41.9935
44.4267
47.3645
49.8699
53.3651
55.7983
59.8853
62.2156
67.1487
15.0385
15.7126
17.399
19.0803
20.6404
22.0323
23.2513
24.4464
25.458
26.6271
27.5564
28.822
29.7032
31.1066
31.9587
33.5015
34.3458
36.1494
14.7897
14.8257
15.2496
15.8683
16.5676
17.29
17.9255
18.5917
19.1252
19.7492
20.2083
20.8278
21.2407
21.8757
22.2622
22.9269
23.2878
24.0567
14.7658
14.6146
14.6409
14.7259
14.9348
15.2212
15.492
15.8123
16.0735
16.3896
16.6253
16.9338
17.1464
17.4522
17.6464
17.9601
18.1299
18.4954
14.7687
14.5866
14.4659
14.3801
14.3676
14.3895
14.4398
14.5343
14.6191
14.7393
14.8337
14.9622
15.0546
15.1877
15.275
15.4148
15.4902
15.6627
14.768
14.5911
14.4348
14.2962
14.1848
14.1042
14.0395
14.0066
13.9811
13.9789
13.9815
13.9931
14.0059
14.0339
14.0517
14.0899
14.1083
14.1704
14.7665
14.5941
14.432
14.282
14.1427
14.0216
13.911
13.8188
13.7363
13.6691
13.6095
13.5627
13.5177
13.4873
13.4524
13.4362
13.4053
13.4067
14.7659
14.5945
14.4321
14.2803
14.136
14.003
13.8777
13.7638
13.6573
13.5618
13.4723
13.3938
13.3183
13.2545
13.1901
13.1396
13.083
13.0454
14.7657
14.5943
14.4321
14.2798
14.1352
13.9996
13.8711
13.7513
13.6377
13.5326
13.4328
13.3415
13.2539
13.1751
13.0981
13.0306
12.9625
12.9054
14.7657
14.5941
14.432
14.2794
14.1349
13.9987
13.8696
13.748
13.6325
13.5241
13.4208
13.3243
13.2321
13.1465
13.0641
12.9883
12.9147
12.8477
14.7657
14.594
14.4318
14.279
14.1345
13.9982
13.8689
13.7469
13.6311
13.5216
13.4176
13.3193
13.2257
13.1375
13.0533
12.9739
12.8982
12.8269
14.7657
14.5938
14.4317
14.2787
14.1342
13.9977
13.8685
13.7462
13.6304
13.5206
13.4165
13.3178
13.224
13.135
13.0505
12.9702
12.8938
12.8212
14.7657
14.5938
14.4316
14.2785
14.1339
13.9973
13.868
13.7457
13.6298
13.52
13.4158
13.3171
13.2232
13.1341
13.0495
12.969
12.8925
12.8197
14.7657
14.5937
14.4315
14.2783
14.1337
13.997
13.8677
13.7453
13.6294
13.5195
13.4153
13.3165
13.2227
13.1335
13.0489
12.9684
12.8919
12.8191
14.7657
14.5937
14.4314
14.2782
14.1336
13.9968
13.8675
13.745
13.6291
13.5192
13.415
13.3161
13.2223
13.1332
13.0486
12.9681
12.8916
12.8188
14.7657
14.5936
14.4314
14.2782
14.1335
13.9967
13.8674
13.7449
13.629
13.5191
13.415
13.3161
13.2223
13.1332
13.0486
12.9682
12.8917
12.819
14.7657
14.5936
14.4314
14.2782
14.1336
13.9968
13.8676
13.7451
13.6293
13.5194
13.4153
13.3165
13.2228
13.1337
13.0493
12.9688
12.8925
12.8198
14.7657
14.5937
14.4315
14.2784
14.1337
13.9971
13.8678
13.7456
13.6297
13.52
13.416
13.3174
13.2238
13.1351
13.0508
12.9708
12.8947
12.8224
14.7657
14.5937
14.4316
14.2785
14.1341
13.9975
13.8686
13.7466
13.6315
13.5225
13.4197
13.3222
13.2304
13.1431
13.061
12.9829
12.9095
12.8393
14.7658
14.5936
14.4318
14.2788
14.1354
14.0003
13.8744
13.7563
13.6468
13.544
13.4492
13.3599
13.278
13.2002
13.1294
13.0614
13.0003
12.9401
14.7661
14.5928
14.4329
14.2844
14.1516
14.0323
13.9291
13.8377
13.7595
13.6896
13.6308
13.577
13.5326
13.4902
13.4568
13.4222
13.3976
13.3677
14.7641
14.5936
14.461
14.3604
14.303
14.2766
14.2794
14.2936
14.3195
14.352
14.3943
14.4324
14.4795
14.5179
14.5671
14.6029
14.6541
14.685
14.757
14.692
14.7579
14.9171
15.1823
15.4605
15.7462
16.0103
16.2694
16.5
16.7306
16.9316
17.1414
17.3195
17.5165
17.6762
17.8675
18.0107
14.9575
15.4345
16.5689
17.688
18.7036
19.5657
20.333
20.9916
21.6109
22.1555
22.7035
23.1919
23.7144
24.1735
24.6933
25.1354
25.6662
26.0964
16.2582
20.9391
25.014
27.7576
29.7804
31.3529
32.7655
34.0433
35.3352
36.585
37.9297
39.24
40.6829
42.0516
43.5924
45.0208
46.6879
48.1273
29.9423
47.223
54.8642
58.6637
61.5953
64.4043
67.534
70.9135
74.6427
78.5818
82.8059
87.1085
91.6034
96.0699
100.634
105.063
109.508
113.796
165.79
160.073
154.898
149.564
144.477
139.679
135.608
132.108
129.259
126.96
125.294
124.009
123.287
122.755
122.736
122.852
123.118
123.636
7.49153
3.64941
5.08863
6.30361
7.31275
8.0892
8.49941
8.11336
8.05872
8.06623
8.10553
8.19751
8.35713
8.56088
8.71081
8.74515
8.20584
44.8862
55.4257
66.2529
71.4084
46.7193
46.3637
51.4399
58.3722
66.6396
76.4053
87.7586
100.842
115.593
132.029
149.881
169.03
189.19
210.147
231.655
253.543
275.663
297.877
320.11
342.255
364.297
386.156
407.863
429.355
450.7
471.839
492.875
513.742
534.574
555.291
576.051
596.761
617.598
638.46
659.535
680.698
702.159
723.772
745.765
767.957
790.598
813.484
836.881
860.542
884.753
909.231
934.273
959.575
985.426
1011.51
1038.09
1064.84
1091.98
1119.2
1146.67
1174.06
1201.55
1228.81
1255.98
1282.7
1309.12
1334.83
1360.02
1384.24
1407.82
1430.36
1452.41
1473.83
1494.49
1514.12
1532.36
1549.16
1564.22
1577.44
1588.52
1596.79
1604.25
1606.89
1615.85
1613.52
1610.68
1604.57
1596.08
1584.03
1568.64
1550.15
1528.53
1503.81
1476.04
1445.34
1412.04
1376.64
1339.24
1300.09
1259.47
1217.77
1175.28
1132.34
1088.87
1043.52
998.579
954.35
911.032
868.914
828.053
788.702
751.155
715.247
684.092
659.918
637.773
616.639
596.27
576.697
557.928
540.038
522.929
506.646
491.111
476.294
462.037
448.052
434.697
422.037
410.122
398.904
388.369
378.387
368.89
359.872
351.334
343.262
335.633
328.438
321.627
315.168
309.037
303.218
297.7
292.468
287.502
282.783
278.3
274.043
269.994
266.146
262.478
258.979
255.625
252.413
249.278
246.288
243.178
240.399
236.811
234.275
228.903
227.01
208.262
14.273
10.3006
9.71823
9.70241
9.82688
10.0551
10.3996
10.8994
11.4747
12.0662
12.7381
13.4965
14.4225
15.6145
17.2777
19.8853
24.3189
32.481
39.1373
44.8656
48.5587
49.0985
52.84
58.9565
66.0539
73.7606
81.9711
90.622
99.662
108.797
118.073
127.601
137.255
146.853
156.371
165.796
175.123
184.365
193.525
202.619
211.651
220.637
229.58
238.495
247.381
256.257
265.12
273.987
282.854
291.743
300.645
309.582
318.545
327.559
336.612
345.727
354.89
364.127
373.418
382.786
392.209
401.712
411.269
420.902
430.58
440.324
450.098
459.921
469.752
479.609
489.444
499.267
509.027
518.725
528.306
537.765
547.051
556.167
565.058
573.722
582.106
590.216
598.003
605.488
612.648
619.557
626.243
632.837
639.427
646.246
652.779
658.899
664.564
669.723
674.339
678.363
681.756
684.585
686.582
687.54
688.575
687.911
686.353
683.963
680.442
675.715
669.891
662.923
654.806
645.546
635.158
623.696
611.259
597.847
583.283
567.997
552.094
535.697
518.899
501.752
484.172
466.556
449.034
431.718
414.694
398.034
381.794
366.051
350.884
336.7
323.955
312.072
300.763
289.933
279.556
269.63
260.156
251.122
242.522
234.331
226.507
218.886
211.524
204.492
197.813
191.49
185.503
179.857
174.522
169.47
164.679
160.142
155.851
151.794
147.962
144.337
140.904
137.649
134.56
131.63
128.848
126.206
123.693
121.302
119.026
116.858
114.791
112.819
110.935
109.132
107.408
105.743
104.165
102.596
101.168
99.6709
98.3508
97.5603
97.9761
99.6352
27.3166
17.3555
14.8359
13.9594
13.6823
13.7468
14.0613
14.6336
15.4092
16.4254
17.6711
19.1853
21.0326
23.2813
26.0463
29.5082
33.8165
38.9158
44.3784
49.7686
54.8217
59.7294
65.5463
71.6569
77.9441
84.3561
90.8746
97.4982
104.223
111.165
118.304
125.369
132.49
139.681
146.935
154.246
161.603
169.003
176.436
183.896
191.376
198.869
206.37
213.876
221.382
228.886
236.386
243.881
251.369
258.852
266.327
273.796
281.255
288.707
296.147
303.577
310.993
318.412
325.816
333.204
340.568
347.907
355.214
362.487
369.715
376.896
384.018
391.079
398.066
404.976
411.798
418.526
425.154
431.683
438.087
444.339
450.432
456.365
462.133
467.74
473.188
478.487
483.648
488.689
493.631
498.505
503.334
508.137
512.931
517.698
522.327
526.768
530.992
534.982
538.704
542.136
545.247
548.013
550.326
552.176
553.104
553.581
553.329
552.38
550.6
547.897
544.27
539.676
534.094
527.516
519.947
511.419
501.978
491.665
480.519
468.685
456.259
443.34
430.016
416.369
402.466
388.467
374.478
360.59
346.872
333.383
320.171
307.301
294.863
283.034
271.956
261.501
251.538
242.011
232.892
224.176
215.856
207.925
200.373
193.187
186.341
179.78
173.496
167.501
161.792
156.346
151.143
146.21
141.54
137.115
132.907
128.914
125.13
121.548
118.155
114.94
111.891
108.998
106.251
103.641
101.161
98.8009
96.5538
94.4122
92.37
90.4206
88.5585
86.7778
85.0738
83.4402
81.8751
80.3683
78.9302
77.5321
76.2225
74.9405
73.7984
72.7174
72.6741
73.161
41.4526
24.3638
20.1069
18.5765
18.0287
18.0023
18.3345
18.9805
19.9181
21.1513
22.7265
24.7025
27.1389
30.0982
33.6207
37.7012
42.2869
47.2961
52.539
57.8281
63.0747
68.3426
73.7651
79.2763
84.8567
90.5217
96.2996
102.22
108.303
114.565
120.982
127.607
134.413
141.358
148.415
155.568
162.806
170.117
177.49
184.912
192.373
199.864
207.374
214.895
222.42
229.941
237.454
244.952
252.431
259.887
267.314
274.708
282.065
289.381
296.647
303.859
311.003
318.098
325.127
332.085
338.964
345.761
352.467
359.078
365.586
371.985
378.27
384.434
390.473
396.382
402.157
407.795
413.293
418.648
423.855
428.912
433.822
438.593
443.23
447.747
452.154
456.468
460.705
464.885
469.023
473.14
477.245
481.348
485.453
489.55
493.586
497.54
501.389
505.11
508.677
512.054
515.203
518.069
520.585
522.69
524.278
525.068
525.38
525.037
523.935
521.988
519.144
515.356
510.593
504.838
498.092
490.375
481.726
472.194
461.844
450.773
439.075
426.848
414.188
401.191
387.954
374.593
361.208
347.879
334.678
321.67
308.925
296.523
284.536
273.053
262.134
251.744
241.826
232.345
223.281
214.623
206.364
198.495
191.006
183.883
177.107
170.648
164.491
158.628
153.041
147.728
142.675
137.879
133.33
129.015
124.886
120.959
117.232
113.694
110.334
107.143
104.112
101.231
98.4918
95.8867
93.4073
91.0456
88.794
86.6458
84.5948
82.6349
80.7604
78.9661
77.247
75.598
74.0158
72.4947
71.0375
69.6326
68.3003
67.0229
65.8641
64.7619
64.2843
64.2485
55.58
31.4734
25.7093
23.633
22.8864
22.8124
23.1908
23.9486
25.0652
26.5531
28.4433
30.7737
33.576
36.866
40.6309
44.8239
49.3654
54.1511
59.0629
64.0079
68.9511
73.9186
78.9584
84.0957
89.3572
94.7744
100.376
106.184
112.209
118.455
124.915
131.585
138.441
145.468
152.656
159.989
167.449
175.021
182.688
190.434
198.242
206.1
213.992
221.906
229.83
237.753
245.663
253.554
261.414
269.237
277.014
284.738
292.402
299.998
307.52
314.963
322.325
329.594
336.763
343.824
350.769
357.591
364.283
370.839
377.251
383.515
389.624
395.575
401.363
406.987
412.445
417.739
422.866
427.826
432.621
437.257
441.739
446.079
450.287
454.377
458.365
462.267
466.099
469.879
473.62
477.339
481.045
484.742
488.444
492.141
495.828
499.482
503.091
506.632
510.082
513.405
516.56
519.494
522.146
524.453
526.347
527.571
528.156
528.182
527.5
525.997
523.6
520.25
515.9
510.526
504.118
496.689
488.271
478.914
468.685
457.672
445.97
433.681
420.911
407.766
394.355
380.785
367.156
353.555
340.071
326.787
313.783
301.127
288.885
277.111
265.842
255.07
244.772
234.926
225.52
216.541
207.981
199.83
192.076
184.704
177.698
171.036
164.701
158.679
152.947
147.509
142.345
137.444
132.794
128.381
124.181
120.186
116.39
112.776
109.327
106.047
102.924
99.9508
97.1191
94.4216
91.8503
89.3976
87.0563
84.8202
82.6829
80.6387
78.6819
76.8075
75.0105
73.2862
71.6296
70.0368
68.5084
67.0396
65.64
64.3071
63.0782
61.9384
61.1178
60.7432
69.2759
38.9865
31.6651
29.0512
28.1209
28.0033
28.4157
29.2612
30.5002
32.1323
34.1727
36.6381
39.5347
42.8499
46.5468
50.5658
54.8312
59.2639
63.7961
68.3874
73.0332
77.7601
82.6078
87.6141
92.8118
98.2282
103.883
109.787
115.945
122.354
129.007
135.895
143.001
150.313
157.817
165.495
173.333
181.311
189.412
197.618
205.912
214.276
222.694
231.149
239.627
248.112
256.592
265.053
273.484
281.873
290.209
298.483
306.684
314.803
322.831
330.76
338.581
346.284
353.86
361.3
368.595
375.737
382.717
389.529
396.164
402.618
408.885
414.959
420.837
426.517
431.996
437.274
442.354
447.244
451.947
456.473
460.83
465.03
469.085
473.01
476.821
480.533
484.164
487.731
491.25
494.734
498.198
501.646
505.082
508.527
511.975
515.425
518.862
522.271
525.628
528.903
532.055
535.033
537.778
540.223
542.287
543.861
544.66
544.956
544.561
543.351
541.238
538.147
534.02
528.819
522.527
515.146
506.703
497.246
486.842
475.579
463.555
450.878
437.662
424.022
410.074
395.931
381.705
367.503
353.424
339.558
325.986
312.774
299.981
287.652
275.812
264.468
253.609
243.225
233.306
223.841
214.82
206.232
198.065
190.302
182.928
175.923
169.27
162.952
156.952
151.257
145.852
140.723
135.856
131.237
126.847
122.676
118.711
114.939
111.347
107.928
104.664
101.547
98.5738
95.7359
93.0263
90.4377
87.9636
85.5978
83.3346
81.1683
79.0934
77.1051
75.1982
73.3682
71.6101
69.9216
68.3008
66.7453
65.2602
63.8485
62.5335
61.3218
60.3212
59.6258
82.005
46.3164
37.5878
34.4885
33.3883
33.2238
33.6461
34.532
35.8169
37.4829
39.5285
41.9542
44.7518
47.899
51.3578
55.0788
59.0084
63.0988
67.3172
71.6515
76.1112
80.7214
85.5144
90.521
95.767
101.271
107.046
113.097
119.425
126.026
132.894
140.02
147.392
154.998
162.825
170.858
179.079
187.473
196.02
204.703
213.502
222.399
231.374
240.41
249.489
258.593
267.707
276.814
285.899
294.948
303.948
312.885
321.748
330.523
339.199
347.766
356.211
364.523
372.691
380.705
388.554
396.228
403.718
411.014
418.109
424.995
431.666
438.115
444.339
450.335
456.102
461.639
466.951
472.04
476.914
481.579
486.045
490.322
494.422
498.361
502.152
505.813
509.36
512.81
516.183
519.497
522.766
526.005
529.229
532.453
535.691
538.939
542.188
545.429
548.642
551.799
554.865
557.792
560.524
562.994
565.126
566.835
567.766
568.193
567.942
566.885
564.916
561.947
557.907
552.746
546.434
538.967
530.364
520.671
509.955
498.303
485.818
472.613
458.808
444.529
429.902
415.06
400.125
385.216
370.435
355.879
341.627
327.748
314.297
301.314
288.826
276.841
265.359
254.374
243.879
233.865
224.32
215.234
206.591
198.378
190.575
183.166
176.132
169.455
163.118
157.104
151.396
145.98
140.84
135.962
131.328
126.925
122.74
118.76
114.972
111.365
107.927
104.646
101.51
98.5103
95.6397
92.8921
90.2622
87.7445
85.334
83.0252
80.813
78.6924
76.6584
74.7066
72.8322
71.0322
69.3044
67.6474
66.0642
64.5593
63.1481
61.8439
60.7054
59.754
93.3702
53.0577
43.0868
39.5558
38.2999
38.0858
38.4972
39.3841
40.6576
42.2832
44.247
46.5408
49.1532
52.0649
55.249
58.674
62.3097
66.1321
70.129
74.3007
78.6596
83.2255
88.0211
93.0679
98.3833
103.98
109.865
116.043
122.514
129.275
136.321
143.646
151.241
159.097
167.201
175.541
184.101
192.866
201.818
210.938
220.208
229.608
239.118
248.719
258.391
268.116
277.873
287.646
297.416
307.166
316.881
326.544
336.141
345.656
355.075
364.384
373.57
382.618
391.516
400.251
408.81
417.181
425.353
433.314
441.053
448.563
455.833
462.858
469.631
476.148
482.405
488.403
494.142
499.625
504.856
509.841
514.588
519.106
523.407
527.503
531.408
535.139
538.712
542.146
545.46
548.676
551.813
554.89
557.927
560.947
563.963
566.978
569.989
572.99
575.966
578.897
581.749
584.482
587.042
589.367
591.384
593.007
593.94
594.311
594.008
592.931
590.94
587.935
583.836
578.579
572.125
564.46
555.598
545.581
534.474
522.364
509.356
495.569
481.135
466.193
450.886
435.351
419.72
404.114
388.642
373.4
358.471
343.925
329.817
316.186
303.057
290.444
278.349
266.773
255.707
245.145
235.076
225.487
216.364
207.691
199.449
191.621
184.189
177.133
170.437
164.081
158.048
152.321
146.885
141.723
136.819
132.159
127.729
123.516
119.505
115.686
112.046
108.575
105.259
102.089
99.047
96.129
93.3314
90.6503
88.0812
85.6193
83.2595
80.997
78.8269
76.7446
74.7456
72.8266
70.985
69.2194
67.5317
65.926
64.413
63.0055
61.7413
60.5798
102.946
58.8493
47.8157
43.9084
42.5134
42.2525
42.6465
43.5194
44.7613
46.3239
48.1859
50.336
52.7653
55.4629
58.4148
61.6063
65.0239
68.6589
72.5091
76.5788
80.8785
85.422
90.2243
95.2992
100.658
106.31
112.261
118.514
125.07
131.929
139.089
146.546
154.295
162.327
170.634
179.205
188.028
197.088
206.369
215.855
225.526
235.365
245.35
255.464
265.685
275.992
286.366
296.785
307.231
317.684
328.126
338.538
348.902
359.203
369.421
379.541
389.546
399.42
409.148
418.714
428.102
437.299
446.288
455.057
463.593
471.882
479.915
487.681
495.172
502.38
509.301
515.931
522.267
528.311
534.065
539.531
544.716
549.627
554.273
558.665
562.816
566.74
570.453
573.973
577.321
580.518
583.588
586.551
589.431
592.252
595.035
597.783
600.5
603.18
605.816
608.39
610.878
613.243
615.439
617.409
619.083
620.341
620.998
621.105
620.567
619.243
617.01
613.766
609.418
603.897
597.154
589.167
579.942
569.517
557.955
545.346
531.8
517.446
502.428
486.889
470.979
454.837
438.598
422.384
406.309
390.466
374.944
359.811
345.125
330.922
317.229
304.06
291.423
279.317
267.739
256.682
246.134
236.084
226.516
217.414
208.759
200.535
192.721
185.301
178.254
171.562
165.207
159.171
153.437
147.99
142.813
137.891
133.21
128.755
124.514
120.473
116.622
112.947
109.439
106.085
102.87
99.7774
96.8079
93.9592
91.2277
88.609
86.0982
83.6907
81.3815
79.1659
77.0398
74.9992
73.0414
71.1649
69.3703
67.6609
66.0437
64.5291
63.1431
61.8096
110.427
63.4334
51.5316
47.3056
45.792
45.4947
45.8811
46.7498
47.9738
49.4943
51.2845
53.3325
55.6329
58.1821
60.9765
64.0124
67.2871
70.7998
74.5528
78.5511
82.8026
87.3165
92.1026
97.1702
102.527
108.181
114.137
120.4
126.972
133.856
141.053
148.563
156.382
164.505
172.925
181.636
190.628
199.889
209.407
219.165
229.146
239.332
249.709
260.256
270.953
281.779
292.711
303.729
314.81
325.935
337.083
348.234
359.368
370.465
381.505
392.469
403.339
414.095
424.719
435.192
445.496
455.612
465.524
475.214
484.665
493.862
502.789
511.435
519.786
527.832
535.564
542.976
550.062
556.819
563.246
569.344
575.115
580.565
585.7
590.527
595.058
599.304
603.28
607
610.484
613.754
616.833
619.742
622.506
625.155
627.704
630.164
632.537
634.824
637.019
639.109
641.075
642.887
644.507
645.881
646.953
647.558
647.662
647.23
646.141
644.275
641.52
637.768
632.926
626.921
619.698
611.225
601.506
590.578
578.507
565.388
551.336
536.484
520.974
504.954
488.569
471.959
455.258
438.587
422.057
405.764
389.791
374.216
359.09
344.451
330.325
316.726
303.664
291.139
279.149
267.689
256.749
246.317
236.375
226.909
217.899
209.329
201.181
193.435
186.073
179.076
172.425
166.102
160.091
154.375
148.938
143.765
138.841
134.152
129.685
125.427
121.365
117.488
113.785
110.244
106.852
103.586
100.446
97.4318
94.5402
91.7671
89.1079
86.5577
84.1116
81.7651
79.5136
77.3533
75.281
73.2948
71.3944
69.5819
67.8613
66.24
64.736
63.2551
115.654
66.6706
54.1095
49.6294
48.0246
47.7084
48.1079
48.9978
50.2375
51.7595
53.5324
55.5428
57.787
60.2652
62.9797
65.9327
69.1269
72.5654
76.2523
80.1924
84.3918
88.8572
93.5957
98.6144
103.92
109.521
115.421
121.628
128.145
134.978
142.133
149.615
157.429
165.555
173.993
182.744
191.805
201.166
210.817
220.744
230.93
241.354
252.019
262.905
273.99
285.251
296.665
308.209
319.861
331.602
343.409
355.262
367.137
379.012
390.866
402.678
414.425
426.086
437.64
449.064
460.338
471.439
482.346
493.038
503.495
513.696
523.624
533.26
542.588
551.593
560.263
568.587
576.554
584.159
591.396
598.263
604.76
610.887
616.648
622.047
627.093
631.792
636.156
640.196
643.928
647.372
650.548
653.477
656.185
658.698
661.033
663.2
665.202
667.038
668.704
670.19
671.481
672.552
673.376
673.898
674.053
673.753
672.973
671.631
669.63
666.868
663.241
658.647
652.997
646.228
638.286
629.127
618.764
607.24
594.621
581.003
566.499
551.239
535.359
519.003
502.309
485.414
468.442
451.513
434.729
418.184
401.953
386.129
370.755
355.865
341.482
327.622
314.293
301.498
289.236
277.504
266.292
255.588
245.376
235.639
226.36
217.523
209.11
201.103
193.483
186.232
179.331
172.763
166.511
160.558
154.89
149.491
144.346
139.443
134.767
130.306
126.047
121.978
118.089
114.367
110.8
107.364
104.061
100.889
97.8455
94.9261
92.126
89.4405
86.8647
84.3937
82.0231
79.7488
77.5672
75.4761
73.4742
71.5621
69.7419
68.0177
66.4015
64.7926
118.6
68.5214
55.5314
50.8773
49.216
48.9029
49.3398
50.2801
51.5735
53.1449
54.9572
56.9936
59.2499
61.727
64.4284
67.3581
70.5209
73.9209
77.5631
81.452
85.593
89.9919
94.6552
99.5897
104.803
110.303
116.098
122.199
128.596
135.303
142.334
149.702
157.421
165.457
173.825
182.527
191.561
200.922
210.605
220.597
230.885
241.45
252.314
263.447
274.828
286.434
298.243
310.231
322.367
334.647
347.049
359.546
372.109
384.719
397.353
409.986
422.595
435.156
447.644
460.034
472.301
484.419
496.363
508.108
519.629
530.903
541.905
552.614
563.007
573.067
582.775
592.115
601.074
609.64
617.804
625.559
632.901
639.829
646.34
652.437
658.122
663.399
668.271
672.748
676.838
680.557
683.923
686.953
689.67
692.095
694.246
696.128
697.74
699.081
700.143
700.915
701.385
701.526
701.315
700.718
699.684
698.163
696.109
693.458
690.137
686.063
681.163
675.338
668.509
660.605
651.549
641.381
630.144
617.878
604.649
590.541
575.658
560.116
544.04
527.559
510.796
493.875
476.908
460.002
443.254
426.741
410.521
394.686
379.296
364.38
349.957
336.041
322.64
309.757
297.391
285.547
274.213
263.378
253.024
243.136
233.697
224.693
216.108
207.924
200.123
192.689
185.602
178.846
172.404
166.262
160.405
154.819
149.489
144.402
139.545
134.905
130.47
126.229
122.17
118.281
114.548
110.955
107.502
104.187
101.006
97.953
95.0248
92.2161
89.5219
86.9373
84.4576
82.0786
79.7964
77.6082
75.5119
73.507
71.5934
69.7729
68.0524
66.3328
119.291
69.0298
55.8695
51.1368
49.4608
49.1746
49.6719
50.6894
52.0703
53.7325
55.6309
57.7389
60.0584
62.5883
65.3287
68.2814
71.4512
74.8423
78.4593
82.3068
86.3902
90.7152
95.289
100.119
105.215
110.589
116.237
122.184
128.418
134.959
141.822
149.014
156.539
164.404
172.619
181.189
190.117
199.403
209.042
219.029
229.355
240.008
250.976
262.251
273.817
285.659
297.755
310.085
322.622
335.376
348.306
361.379
374.559
387.838
401.194
414.601
428.032
441.461
454.859
468.199
481.452
494.59
507.581
520.398
533.011
545.391
557.51
569.341
580.857
592.034
602.849
613.28
623.31
632.921
642.1
650.835
659.118
666.943
674.305
681.201
687.627
693.583
699.067
704.079
708.622
712.704
716.338
719.539
722.321
724.701
726.691
728.29
729.495
730.296
730.681
730.63
730.13
729.156
727.693
725.715
723.185
720.072
716.347
711.963
706.882
701.031
694.272
686.539
677.913
668.402
658.057
646.9
634.844
621.912
608.162
593.668
578.524
562.829
546.698
530.239
513.567
496.786
480.001
463.302
446.777
430.491
414.493
398.944
383.841
369.191
355.009
341.304
328.085
315.353
303.089
291.318
280.037
269.232
258.888
248.988
239.519
230.467
221.82
213.562
205.675
198.143
190.948
184.076
177.511
171.24
165.249
159.525
154.055
148.825
143.824
139.04
134.46
130.074
125.868
121.832
117.953
114.226
110.645
107.206
103.905
100.738
97.6994
94.784
91.9869
89.3032
86.7281
84.2571
81.886
79.6115
77.4308
75.3423
73.3442
71.4364
69.6216
67.8073
118.521
68.6291
55.4628
50.7059
49.0284
48.7682
49.3188
50.4065
51.8721
53.6296
55.6308
57.8478
60.282
62.9158
65.7413
68.75
71.958
75.3696
78.9874
82.8149
86.8573
91.1205
95.612
100.34
105.314
110.55
116.03
121.769
127.786
134.105
140.741
147.71
155.021
162.684
170.709
179.105
187.876
197.026
206.556
216.463
226.745
237.394
248.405
259.77
271.479
283.516
295.862
308.499
321.399
334.538
347.903
361.469
375.201
389.08
403.087
417.201
431.393
445.634
459.895
474.143
488.347
502.474
516.491
530.365
544.06
557.545
570.785
583.749
596.406
608.725
620.678
632.237
643.38
654.083
664.327
674.097
683.379
692.163
700.439
708.199
715.436
722.141
728.304
733.918
738.977
743.48
747.434
750.844
753.721
756.071
757.897
759.191
759.943
760.14
759.758
758.754
757.114
754.822
751.861
748.212
743.853
738.758
732.949
726.374
718.791
710.396
701.283
691.672
681.36
670.341
658.671
646.192
633.022
619.212
604.818
589.902
574.538
558.805
542.789
526.577
510.254
493.903
477.602
461.426
445.44
429.694
414.201
399.117
384.449
370.211
356.416
343.074
330.19
317.764
305.783
294.303
283.287
272.713
262.564
252.825
243.488
234.523
225.938
217.721
209.855
202.325
195.115
188.21
181.599
175.269
169.209
163.407
157.851
152.53
147.431
142.543
137.856
133.358
129.036
124.883
120.894
117.061
113.379
109.843
106.448
103.19
100.062
97.0605
94.1798
91.4152
88.7615
86.2142
83.7688
81.4215
79.1689
77.0084
74.9369
72.9529
71.0555
69.1621
116.107
67.265
54.2628
49.5427
47.8949
47.6852
48.316
49.5053
51.0929
52.9895
55.1417
57.5149
60.0864
62.8468
65.7882
68.8972
72.1935
75.6733
79.3385
83.1931
87.2415
91.4888
95.9416
100.607
105.489
110.587
115.92
121.503
127.356
133.496
139.942
146.713
153.821
161.274
169.105
177.321
185.928
194.931
204.335
214.143
224.354
234.967
245.977
257.378
269.163
281.318
293.829
306.68
319.852
333.328
347.099
361.125
375.359
389.764
404.341
419.078
433.953
448.93
463.978
479.064
494.151
509.205
524.186
539.059
553.784
568.325
582.644
596.705
610.47
623.904
636.974
649.646
661.891
673.68
684.988
695.795
706.082
715.832
725.034
733.672
741.734
749.203
756.062
762.293
767.877
772.807
777.075
780.685
783.63
785.908
787.509
788.414
788.607
788.111
786.797
784.648
781.651
777.784
773.03
767.381
760.83
753.302
744.637
735.051
724.918
714.211
702.933
690.86
678.186
664.997
651.353
637.284
622.843
608.08
593.038
577.763
562.302
546.705
531.023
515.31
499.615
483.993
468.491
453.158
438.039
423.172
408.591
394.348
380.472
366.982
353.89
341.204
328.927
317.058
305.57
294.519
283.887
273.659
263.822
254.359
245.267
236.529
228.152
220.114
212.396
204.986
197.869
191.032
184.46
178.15
172.096
166.284
160.705
155.35
150.205
145.263
140.511
135.94
131.545
127.322
123.263
119.362
115.613
112.012
108.552
105.23
102.039
98.9758
96.0342
93.2098
90.4974
87.8922
85.3896
82.9853
80.6754
78.4567
76.3248
74.2774
72.3105
70.3537
111.912
64.8609
52.3263
47.7846
46.237
46.1166
46.8517
48.1627
49.8936
51.9548
54.291
56.8667
59.6624
62.651
65.8116
69.1228
72.5903
76.2198
80.0138
83.9736
88.1019
92.4029
96.8829
101.549
106.409
111.479
116.773
122.307
128.098
134.165
140.527
147.203
154.208
161.553
169.268
177.368
185.865
194.77
204.091
213.835
224.005
234.601
245.624
257.068
268.929
281.196
293.858
306.9
320.307
334.059
348.132
362.497
377.133
392.016
407.126
422.437
437.92
453.549
469.297
485.134
501.016
516.905
532.76
548.54
564.205
579.714
595.025
610.098
624.891
639.364
653.478
667.195
680.478
693.293
705.607
717.394
728.63
739.295
749.368
758.833
767.666
775.846
783.342
790.126
796.166
801.44
805.935
809.633
812.519
814.577
815.783
816.081
815.595
814.117
811.583
807.98
803.276
797.453
790.482
782.224
772.66
761.975
750.553
738.27
725.279
711.384
696.84
681.771
666.332
650.664
634.88
619.062
603.274
587.56
571.948
556.455
541.094
525.876
510.807
495.898
481.159
466.603
452.244
438.102
424.194
410.541
397.16
384.078
371.313
358.878
346.783
335.033
323.632
312.578
301.869
291.514
281.511
271.853
262.532
253.535
244.859
236.478
228.412
220.646
213.167
205.963
199.025
192.339
185.893
179.695
173.732
167.99
162.461
157.139
152.008
147.066
142.308
137.725
133.313
129.068
124.985
121.057
117.28
113.649
110.158
106.802
103.577
100.479
97.5013
94.6404
91.891
89.2481
86.7069
84.2629
81.9118
79.6498
77.4718
75.3748
73.3522
71.3476
106.927
62.0146
50.1087
45.8473
44.4763
44.5172
45.431
46.9409
48.9002
51.2271
53.8542
56.7346
59.8326
63.1
66.5424
70.1563
73.9359
77.8714
81.9577
86.1923
90.5756
95.1101
99.8013
104.657
109.691
114.915
120.345
125.998
131.892
138.049
144.488
151.232
158.302
165.722
173.509
181.677
190.242
199.217
208.611
218.433
228.688
239.38
250.509
262.072
274.065
286.48
299.307
312.535
326.149
340.134
354.476
369.15
384.133
399.401
414.931
430.695
446.665
462.812
479.106
495.508
511.982
528.491
544.994
561.45
577.817
594.051
610.109
625.947
641.523
656.791
671.711
686.236
700.326
713.939
727.038
739.587
751.557
762.922
773.659
783.741
793.142
801.826
809.752
816.876
823.157
828.553
833.041
836.583
839.148
840.703
841.211
840.731
839.151
836.301
832.158
826.685
819.832
811.43
801.483
790.209
777.801
764.293
749.445
733.523
716.711
699.167
681.116
662.786
644.404
626.171
608.249
590.754
573.757
557.291
541.355
525.927
510.976
496.461
482.343
468.578
455.134
441.978
429.092
416.459
404.074
391.932
380.038
368.396
357.015
345.9
335.058
324.49
314.199
304.186
294.449
284.993
275.818
266.921
258.296
249.937
241.84
233.996
226.406
219.062
211.959
205.089
198.446
192.018
185.794
179.784
173.982
168.372
162.954
157.726
152.678
147.808
143.11
138.575
134.207
129.999
125.945
122.041
118.282
114.663
111.181
107.83
104.605
101.503
98.519
95.6492
92.8883
90.2315
87.6738
85.2106
82.8374
80.5499
78.3426
76.2124
74.1502
72.1145
101.996
59.2253
48.0319
44.1509
43.0617
43.3864
44.6106
46.4601
48.781
51.4729
54.4625
57.7315
61.2558
65.0173
68.9867
73.1459
77.4814
81.9788
86.627
91.4184
96.3491
101.419
106.63
111.99
117.508
123.197
129.071
135.148
141.449
147.993
154.804
161.903
169.313
177.055
185.148
193.611
202.457
211.701
221.354
231.425
241.919
252.839
264.185
275.956
288.147
300.751
313.76
327.162
340.946
355.098
369.603
384.443
399.598
415.049
430.773
446.744
462.935
479.315
495.847
512.497
529.233
546.017
562.812
579.576
596.267
612.846
629.264
645.482
661.451
677.132
692.472
707.431
721.956
736.003
749.526
762.484
774.841
786.566
797.63
808.002
817.644
826.509
834.544
841.69
847.89
853.094
857.251
860.309
862.217
862.923
862.498
860.865
857.772
853.192
847.06
839.191
829.572
818.391
805.688
791.517
775.668
758.359
739.709
719.936
699.291
678.053
656.535
635.055
613.915
593.371
573.621