/*--------------------------------*- C++ -*----------------------------------*\
  =========                 |
  \\      /  F ield         | OpenFOAM: The Open Source CFD Toolbox
   \\    /   O peration     | Website:  https://openfoam.org
    \\  /    A nd           | Version:  8
     \\/     M anipulation  |
\*---------------------------------------------------------------------------*/
FoamFile
{
    version     2.0;
    format      ascii;
    class       volScalarField;
    location    "80";
    object      k;
}
// * * * * * * * * * * * * * * * * * * * * * * * * * * * * * * * * * * * * * //

dimensions      [0 2 -2 0 0 0 0];

internalField   nonuniform List<scalar> 
12225
(
0.362803
0.344016
0.32772
0.30985
0.29537
0.283541
0.275475
0.270361
0.270426
0.272029
0.27629
0.281035
0.290405
0.296556
0.307657
0.314654
0.326102
0.337121
0.440188
0.468708
0.461608
0.448424
0.450427
0.458451
0.474669
0.499118
0.524862
0.553198
0.581871
0.608025
0.636012
0.656933
0.683647
0.698701
0.725983
0.740655
0.390541
0.41787
0.420226
0.416829
0.411633
0.407834
0.408055
0.410121
0.414697
0.421635
0.431149
0.440186
0.452095
0.462146
0.474587
0.485721
0.49688
0.511943
0.377546
0.38698
0.391404
0.391342
0.390222
0.387899
0.385676
0.384091
0.382921
0.382946
0.383473
0.384437
0.386574
0.388739
0.391434
0.395002
0.397613
0.403092
0.374562
0.37609
0.378411
0.378664
0.378261
0.377199
0.375491
0.373728
0.372016
0.370451
0.369281
0.368115
0.36744
0.366887
0.366563
0.366616
0.366649
0.36748
0.373815
0.372709
0.372644
0.372381
0.371758
0.370806
0.369549
0.368067
0.366563
0.364957
0.363517
0.362044
0.360741
0.359529
0.358397
0.357475
0.356509
0.355968
0.373783
0.371742
0.370385
0.369283
0.368231
0.367104
0.365907
0.364571
0.363222
0.361784
0.360396
0.358992
0.357639
0.356345
0.355076
0.353931
0.352763
0.351803
0.37382
0.371559
0.369634
0.367973
0.366497
0.365099
0.363766
0.362413
0.361088
0.35974
0.358418
0.357105
0.355816
0.354569
0.353338
0.352183
0.351028
0.349987
0.373832
0.371553
0.369449
0.367523
0.365773
0.364146
0.362635
0.361184
0.359798
0.358447
0.357137
0.355862
0.354618
0.353417
0.35224
0.35112
0.350015
0.348987
0.373832
0.37156
0.369418
0.367403
0.365525
0.363766
0.362123
0.360571
0.359103
0.357703
0.356363
0.355079
0.353841
0.352654
0.351504
0.350408
0.349339
0.348334
0.373829
0.371561
0.369413
0.367377
0.365456
0.36364
0.361929
0.360312
0.358782
0.357331
0.355951
0.354637
0.353382
0.352185
0.351036
0.349942
0.348886
0.347889
0.373828
0.371559
0.369409
0.36737
0.365437
0.363604
0.361869
0.360223
0.358663
0.357182
0.355775
0.354438
0.353163
0.351951
0.350792
0.34969
0.348632
0.347631
0.373827
0.371557
0.369405
0.367365
0.365428
0.36359
0.361846
0.360188
0.358614
0.357118
0.355695
0.354342
0.353054
0.351828
0.350659
0.349547
0.348483
0.347474
0.373827
0.371555
0.369402
0.36736
0.365422
0.363581
0.361833
0.360172
0.358592
0.357089
0.355659
0.354298
0.353001
0.351767
0.35059
0.34947
0.348401
0.347383
0.373826
0.371554
0.369399
0.367355
0.365416
0.363574
0.361824
0.360161
0.358579
0.357074
0.355641
0.354277
0.352978
0.351739
0.35056
0.349435
0.348363
0.34734
0.373826
0.371552
0.369396
0.367351
0.36541
0.363568
0.361816
0.360152
0.358569
0.357063
0.355629
0.354265
0.352964
0.351725
0.350544
0.349418
0.348344
0.34732
0.373825
0.371551
0.369395
0.367348
0.365406
0.363562
0.36181
0.360145
0.358561
0.357055
0.355621
0.354255
0.352954
0.351715
0.350534
0.349408
0.348334
0.34731
0.373825
0.371551
0.369393
0.367346
0.365404
0.363559
0.361806
0.36014
0.358556
0.357049
0.355615
0.354249
0.352949
0.351709
0.350529
0.349402
0.348329
0.347305
0.373825
0.37155
0.369393
0.367345
0.365403
0.363557
0.361805
0.360139
0.358555
0.357048
0.355614
0.354248
0.352949
0.351709
0.35053
0.349404
0.348332
0.347308
0.373825
0.37155
0.369394
0.367346
0.365405
0.363559
0.361808
0.360142
0.35856
0.357052
0.355621
0.354255
0.352957
0.351718
0.35054
0.349415
0.348344
0.347321
0.373825
0.371551
0.369394
0.367349
0.365407
0.363564
0.361812
0.36015
0.358567
0.357064
0.355631
0.35427
0.352971
0.351738
0.350559
0.34944
0.34837
0.347352
0.373826
0.371552
0.369397
0.367352
0.365413
0.363572
0.361825
0.360166
0.35859
0.357092
0.355668
0.354314
0.353026
0.351799
0.350632
0.349518
0.348459
0.347446
0.373826
0.371553
0.369399
0.36736
0.36543
0.363605
0.361879
0.360246
0.358699
0.357231
0.355837
0.354511
0.353249
0.352044
0.350898
0.349799
0.348755
0.34775
0.373828
0.371551
0.369412
0.367418
0.365557
0.363822
0.362194
0.360657
0.359198
0.357805
0.356471
0.35519
0.353958
0.352772
0.351632
0.350533
0.349479
0.34846
0.373823
0.371554
0.369604
0.367894
0.366341
0.364895
0.363499
0.362129
0.36077
0.359425
0.358095
0.356787
0.355509
0.354262
0.353057
0.351889
0.35077
0.349687
0.373788
0.371991
0.371112
0.370266
0.369361
0.368315
0.367052
0.365636
0.364128
0.362584
0.361041
0.359534
0.358087
0.356697
0.355397
0.354157
0.353025
0.351938
0.374355
0.375572
0.377777
0.377858
0.377289
0.375888
0.373834
0.371642
0.369503
0.367481
0.365657
0.364072
0.362695
0.361511
0.360576
0.359771
0.35923
0.358723
0.379125
0.394299
0.398255
0.396579
0.392545
0.387608
0.383638
0.380441
0.378239
0.376817
0.376423
0.376649
0.377298
0.37852
0.38022
0.382145
0.384481
0.386723
0.408393
0.427533
0.422406
0.411035
0.402209
0.397863
0.398545
0.400842
0.405876
0.412779
0.42062
0.429329
0.438203
0.447407
0.456355
0.46542
0.473983
0.482633
0.36605
0.353416
0.341986
0.33021
0.318979
0.308383
0.299401
0.291665
0.285384
0.280305
0.27663
0.273792
0.272202
0.271028
0.270993
0.271246
0.271847
0.272989
0.0248905
0.0564415
0.07906
0.0981872
0.114118
0.12665
0.13479
0.135614
0.139694
0.141394
0.142128
0.142273
0.1443
0.148472
0.154592
0.164724
0.168814
0.167009
0.17636
0.185504
0.187992
0.172767
0.166194
0.175068
0.189189
0.206076
0.225214
0.246572
0.269907
0.295053
0.321693
0.349372
0.37778
0.406615
0.435488
0.464218
0.492515
0.520345
0.547511
0.574065
0.599866
0.625019
0.649419
0.673203
0.696289
0.718835
0.740761
0.762242
0.783197
0.803813
0.823995
0.843942
0.863547
0.883014
0.90223
0.921402
0.940397
0.959432
0.97836
0.997406
1.01639
1.03556
1.05471
1.0741
1.09349
1.11315
1.13283
1.15277
1.17274
1.19295
1.21318
1.23362
1.25404
1.27458
1.29504
1.31554
1.33585
1.3561
1.37605
1.39582
1.41517
1.43419
1.45262
1.47057
1.48776
1.50437
1.52011
1.53531
1.54983
1.56405
1.5776
1.59018
1.60179
1.61225
1.62146
1.62922
1.63529
1.63842
1.6448
1.64482
1.65001
1.64687
1.64408
1.63857
1.63165
1.6222
1.61047
1.5966
1.58053
1.56226
1.5418
1.51918
1.49466
1.46847
1.44064
1.41131
1.38071
1.349
1.3164
1.28306
1.24871
1.21253
1.17659
1.14064
1.10502
1.06978
1.03512
1.00121
0.968512
0.936707
0.909988
0.88802
0.867341
0.847251
0.827731
0.808718
0.79036
0.772603
0.755508
0.738943
0.72309
0.707628
0.692483
0.677674
0.663421
0.649833
0.636906
0.624622
0.612906
0.60165
0.590853
0.58053
0.570679
0.561284
0.552346
0.54382
0.535671
0.527876
0.520422
0.513298
0.506495
0.499988
0.493763
0.487804
0.482105
0.476646
0.471421
0.466407
0.461591
0.456949
0.452476
0.448094
0.443891
0.439543
0.435596
0.430699
0.426901
0.420615
0.414225
0.393871
0.0476537
0.0934531
0.128549
0.153455
0.172346
0.187211
0.199534
0.211566
0.221777
0.230386
0.237933
0.244886
0.252519
0.26184
0.273507
0.28764
0.302212
0.314215
0.330776
0.349563
0.372514
0.407478
0.438356
0.468204
0.498959
0.531787
0.566908
0.604315
0.64388
0.685439
0.72864
0.773178
0.818777
0.865155
0.911991
0.959048
1.00598
1.05255
1.09857
1.14391
1.18844
1.23211
1.27483
1.3166
1.35738
1.39719
1.43603
1.47395
1.51095
1.54712
1.58248
1.61709
1.65099
1.68426
1.71693
1.74909
1.78076
1.81205
1.84296
1.87361
1.90401
1.93425
1.96435
1.99441
2.02443
2.05451
2.08464
2.11492
2.14534
2.17597
2.20683
2.23796
2.26936
2.30108
2.33309
2.36541
2.398
2.43088
2.46401
2.49738
2.53092
2.56462
2.59836
2.63211
2.66568
2.699
2.73186
2.76415
2.79566
2.82646
2.85677
2.88658
2.91568
2.94388
2.97098
2.99678
3.02105
3.04358
3.06446
3.08261
3.09826
3.1087
3.1205
3.12406
3.12724
3.12748
3.1217
3.11171
3.09723
3.07819
3.05446
3.02592
2.99232
2.95434
2.91227
2.86635
2.81694
2.76445
2.70924
2.65172
2.59228
2.53121
2.46913
2.40649
2.34369
2.28107
2.2189
2.15745
2.09716
2.03816
1.98056
1.92459
1.87006
1.81703
1.76561
1.71588
1.66788
1.62164
1.57719
1.5345
1.4935
1.45353
1.41486
1.37776
1.34227
1.30845
1.27625
1.2456
1.21634
1.18822
1.16129
1.13556
1.11101
1.0876
1.06528
1.04395
1.02353
1.00397
0.985243
0.967316
0.950145
0.933677
0.917869
0.902692
0.888118
0.874104
0.86062
0.84763
0.835097
0.822981
0.81125
0.799847
0.788765
0.777846
0.767328
0.756412
0.746732
0.734403
0.724833
0.694524
0.0912035
0.148494
0.188811
0.217433
0.23972
0.258229
0.27451
0.289603
0.303608
0.317048
0.330634
0.345169
0.361502
0.380373
0.402324
0.427461
0.455103
0.484626
0.516734
0.55098
0.587376
0.626268
0.666096
0.706965
0.749284
0.793457
0.839711
0.888154
0.938766
0.991402
1.04586
1.1019
1.15915
1.21728
1.27596
1.33488
1.39375
1.45233
1.5104
1.5678
1.6244
1.68008
1.73478
1.78846
1.84107
1.89261
1.94309
1.99252
2.04093
2.08834
2.13478
2.18031
2.22495
2.26875
2.31175
2.35399
2.39551
2.43634
2.47653
2.51612
2.55514
2.59363
2.63163
2.66918
2.70629
2.74303
2.77939
2.81543
2.85117
2.88664
2.92186
2.95688
2.99172
3.02639
3.06093
3.09535
3.12966
3.16391
3.19809
3.23224
3.26636
3.3005
3.33465
3.36882
3.40302
3.43725
3.47147
3.50563
3.53973
3.57371
3.60758
3.64118
3.67427
3.70671
3.73824
3.76863
3.79759
3.82483
3.85001
3.87268
3.89247
3.90873
3.92195
3.92825
3.932
3.93164
3.92538
3.91353
3.89592
3.8724
3.8429
3.80742
3.76603
3.71902
3.66675
3.60958
3.54796
3.48237
3.41329
3.34126
3.2668
3.19046
3.11281
3.0344
2.95566
2.877
2.79876
2.72132
2.64515
2.57078
2.49838
2.42798
2.35944
2.29282
2.2282
2.16568
2.10529
2.04709
1.99108
1.93724
1.88549
1.83563
1.78766
1.74161
1.69748
1.65527
1.61492
1.57637
1.53944
1.50376
1.46955
1.43681
1.40552
1.37561
1.34705
1.31965
1.29336
1.26815
1.24398
1.2208
1.19857
1.1772
1.15666
1.13692
1.11793
1.09965
1.08203
1.06504
1.04863
1.03276
1.01738
1.00246
0.987955
0.973778
0.960034
0.946339
0.933534
0.919738
0.909767
0.884261
0.138899
0.206772
0.252215
0.284933
0.310817
0.332623
0.351952
0.369908
0.387269
0.404785
0.423226
0.443372
0.465959
0.491583
0.520611
0.55306
0.588553
0.626518
0.666349
0.707549
0.750036
0.794071
0.839774
0.887279
0.93682
0.988655
1.04295
1.09978
1.15904
1.22056
1.28405
1.34918
1.41559
1.48295
1.55092
1.61919
1.68747
1.75553
1.82314
1.89016
1.95641
2.0218
2.08623
2.14963
2.21196
2.27319
2.33329
2.39226
2.4501
2.50683
2.56245
2.61697
2.67043
2.72284
2.77422
2.8246
2.874
2.92243
2.96993
3.01652
3.0622
3.10702
3.15098
3.19412
3.23645
3.278
3.31878
3.35883
3.39818
3.43684
3.47486
3.51227
3.54911
3.5854
3.62119
3.65653
3.69145
3.72601
3.76026
3.79426
3.82807
3.86175
3.89535
3.92894
3.96255
3.99622
4.02996
4.06374
4.09755
4.13142
4.16526
4.19897
4.23236
4.26525
4.29743
4.32862
4.35855
4.38685
4.41314
4.43697
4.45793
4.4755
4.48918
4.49599
4.50036
4.4993
4.49226
4.47904
4.45936
4.43303
4.39995
4.36013
4.31366
4.26078
4.20183
4.13724
4.06749
3.99311
3.91468
3.83281
3.74811
3.66122
3.57276
3.48328
3.39329
3.30328
3.21378
3.12531
3.03834
2.9533
2.87041
2.78973
2.71125
2.63502
2.5611
2.48959
2.42051
2.35392
2.28981
2.22817
2.16891
2.11193
2.0572
2.00466
1.9543
1.90604
1.85984
1.81563
1.77329
1.73264
1.69365
1.65629
1.6205
1.58622
1.55339
1.52179
1.49139
1.46219
1.43415
1.40725
1.38138
1.35647
1.3325
1.30944
1.28723
1.26581
1.24516
1.22522
1.20594
1.18729
1.16923
1.1517
1.13469
1.11813
1.10207
1.08635
1.07143
1.05642
1.04526
1.024
0.186762
0.265487
0.316693
0.354185
0.384118
0.409464
0.431986
0.452958
0.47341
0.49426
0.516357
0.540476
0.567265
0.597185
0.630428
0.666894
0.706208
0.747844
0.79129
0.836256
0.882772
0.931119
0.981625
1.03456
1.09013
1.14847
1.20963
1.27353
1.34001
1.40881
1.47963
1.55215
1.62601
1.70089
1.77647
1.85247
1.92862
2.00469
2.08048
2.1558
2.2305
2.30444
2.37751
2.44963
2.52071
2.59069
2.65953
2.7272
2.79366
2.85891
2.92292
2.9857
3.04723
3.10752
3.16657
3.22439
3.28097
3.33633
3.39048
3.4434
3.49513
3.54565
3.59498
3.64313
3.69011
3.73594
3.78063
3.82421
3.86669
3.90811
3.94849
3.98788
4.02631
4.06383
4.1005
4.13637
4.17149
4.20595
4.2398
4.27314
4.30605
4.33861
4.3709
4.403
4.43499
4.46693
4.49887
4.53081
4.5628
4.59483
4.62694
4.65899
4.69087
4.7224
4.7534
4.78362
4.81276
4.84047
4.86636
4.88997
4.91081
4.92841
4.94204
4.94921
4.95343
4.95201
4.94446
4.93042
4.90951
4.88149
4.84619
4.80358
4.75373
4.69685
4.63327
4.56341
4.48778
4.40696
4.32159
4.23231
4.13982
4.04479
3.94787
3.84969
3.75088
3.65206
3.55385
3.45675
3.36127
3.26779
3.17656
3.0877
3.00127
2.91733
2.83595
2.7572
2.68114
2.60778
2.53714
2.46918
2.40384
2.34106
2.28076
2.22288
2.16738
2.11417
2.06318
2.01434
1.96754
1.92266
1.87961
1.83833
1.79873
1.76076
1.72435
1.68935
1.65571
1.62336
1.59227
1.56237
1.53356
1.50576
1.47896
1.45315
1.42827
1.40424
1.38104
1.35862
1.33693
1.31594
1.2956
1.27588
1.25675
1.23817
1.22018
1.20274
1.18612
1.16997
1.15701
1.13806
0.233273
0.321596
0.380001
0.423074
0.457533
0.486682
0.51249
0.536392
0.559559
0.583011
0.607642
0.634219
0.663342
0.695399
0.730542
0.768692
0.8096
0.852947
0.898469
0.946068
0.99584
1.04802
1.10288
1.16062
1.22139
1.2852
1.352
1.42163
1.49388
1.56848
1.64513
1.72354
1.8034
1.88441
1.96629
2.04878
2.13164
2.21462
2.29754
2.38019
2.46241
2.54404
2.62495
2.70502
2.78414
2.86222
2.9392
3.015
3.08957
3.16286
3.23484
3.30547
3.37473
3.44259
3.50904
3.57406
3.63763
3.69975
3.76039
3.81955
3.87722
3.93339
3.98806
4.04121
4.09286
4.143
4.19164
4.2388
4.28448
4.32871
4.37153
4.41295
4.45304
4.49182
4.52937
4.56574
4.60099
4.63522
4.66849
4.70091
4.73257
4.76356
4.794
4.82398
4.85361
4.88297
4.91216
4.94123
4.97024
4.99929
5.02837
5.05746
5.08645
5.11523
5.14364
5.17147
5.19844
5.22425
5.24848
5.27071
5.29044
5.30713
5.32006
5.32713
5.33085
5.32902
5.32108
5.30652
5.28492
5.25592
5.2193
5.17496
5.12293
5.06337
4.99659
4.92299
4.84309
4.75749
4.66686
4.57189
4.4733
4.37181
4.26816
4.16309
4.05733
3.95154
3.84635
3.74232
3.63994
3.53959
3.44155
3.34598
3.25299
3.16265
3.07506
2.99028
2.90836
2.82933
2.75319
2.6799
2.60942
2.54169
2.47662
2.41416
2.35424
2.29676
2.24165
2.18881
2.13817
2.08959
2.04298
1.99825
1.95532
1.91411
1.87454
1.83651
1.79993
1.76474
1.73088
1.69828
1.66688
1.6366
1.6074
1.57925
1.55206
1.52575
1.50032
1.47573
1.45191
1.42885
1.40649
1.38483
1.36382
1.34346
1.32377
1.30477
1.28666
1.26935
1.25466
1.23561
0.276569
0.374189
0.439924
0.488779
0.527926
0.560964
0.59004
0.616706
0.642228
0.667688
0.69402
0.722006
0.752257
0.78519
0.821021
0.859798
0.901449
0.94586
0.992952
1.04273
1.09528
1.15076
1.20932
1.27107
1.33602
1.40413
1.47528
1.54929
1.62593
1.70496
1.78611
1.86912
1.95373
2.03966
2.12668
2.21454
2.30301
2.39187
2.48091
2.56994
2.65877
2.74723
2.83516
2.92243
3.0089
3.09445
3.17898
3.2624
3.34461
3.42556
3.50516
3.58338
3.66014
3.73541
3.80914
3.8813
3.95184
4.02073
4.08795
4.15346
4.21722
4.27923
4.33944
4.39785
4.45443
4.50918
4.56207
4.61312
4.66233
4.7097
4.75526
4.79904
4.84106
4.88138
4.92004
4.95711
4.99265
5.02674
5.05947
5.09093
5.12123
5.15049
5.1788
5.2063
5.23312
5.25937
5.28518
5.31064
5.33588
5.361
5.38608
5.41112
5.43607
5.46088
5.48544
5.50959
5.5331
5.5557
5.57703
5.59668
5.61416
5.62893
5.64023
5.6465
5.64919
5.64659
5.63806
5.62299
5.60087
5.57126
5.53387
5.48851
5.43514
5.37389
5.305
5.22886
5.14597
5.05693
4.96241
4.86315
4.75991
4.65351
4.54477
4.43448
4.32338
4.2122
4.10156
3.99206
3.88417
3.77831
3.67477
3.57376
3.4754
3.37981
3.28709
3.1973
3.11049
3.0267
2.94592
2.86813
2.79328
2.72131
2.65216
2.58574
2.52198
2.46079
2.40208
2.34577
2.29173
2.23989
2.19011
2.14233
2.09643
2.05233
2.00994
1.96918
1.92994
1.89217
1.85579
1.82073
1.78694
1.75435
1.72291
1.69257
1.66327
1.63494
1.60754
1.58102
1.5553
1.53038
1.50622
1.4828
1.4601
1.43813
1.4169
1.39648
1.37699
1.3585
1.34219
1.32219
0.31535
0.421154
0.493702
0.548103
0.591831
0.628708
0.661004
0.690349
0.71807
0.745291
0.772986
0.801977
0.832929
0.866338
0.902535
0.94171
0.983947
1.02928
1.07772
1.12932
1.18413
1.24221
1.30361
1.36834
1.43634
1.50753
1.58176
1.65884
1.73858
1.82076
1.90516
1.99154
2.07969
2.16937
2.26037
2.35246
2.44544
2.53909
2.63321
2.72759
2.82206
2.91642
3.0105
3.10414
3.19718
3.2895
3.38094
3.4714
3.56076
3.64893
3.73581
3.82131
3.90536
3.98788
4.0688
4.14807
4.22562
4.30139
4.37532
4.44737
4.51749
4.58562
4.65172
4.71575
4.77767
4.83745
4.89506
4.95048
5.0037
5.05471
5.10352
5.15013
5.19458
5.23688
5.27709
5.31526
5.35145
5.38572
5.41818
5.4489
5.47799
5.50557
5.53177
5.55672
5.58056
5.60344
5.62552
5.64692
5.66781
5.68836
5.70865
5.72876
5.7487
5.76846
5.78799
5.80721
5.82595
5.844
5.86106
5.87677
5.89068
5.90229
5.91073
5.91517
5.91594
5.91185
5.90216
5.8862
5.86337
5.83316
5.79518
5.74917
5.69502
5.63276
5.56261
5.48488
5.40006
5.30872
5.21157
5.10939
5.00302
4.89332
4.78111
4.66719
4.55235
4.4373
4.3227
4.20914
4.09714
3.98711
3.87936
3.77414
3.67161
3.57189
3.47509
3.3813
3.29055
3.2029
3.11833
3.03684
2.95837
2.88288
2.81028
2.74052
2.6735
2.60913
2.54734
2.488
2.43103
2.37633
2.32378
2.27328
2.22475
2.17808
2.13318
2.08997
2.04835
2.00824
1.96958
1.93229
1.89632
1.8616
1.82809
1.79573
1.76445
1.73421
1.70496
1.67664
1.64921
1.62263
1.59685
1.57185
1.54763
1.52419
1.50156
1.4798
1.45903
1.43936
1.42153
1.4007
0.3482
0.460601
0.538981
0.598328
0.646295
0.686837
0.722297
0.754349
0.784345
0.813434
0.842616
0.872755
0.904573
0.938646
0.975407
1.01516
1.05809
1.10433
1.15393
1.20695
1.26339
1.32328
1.38657
1.45322
1.52314
1.59621
1.67229
1.75123
1.83284
1.91696
2.00338
2.09194
2.18243
2.27468
2.36848
2.46364
2.55997
2.65727
2.75535
2.85401
2.95306
3.0523
3.15156
3.25066
3.34942
3.4477
3.54533
3.64218
3.7381
3.83298
3.92669
4.01912
4.11017
4.19973
4.28771
4.37403
4.45859
4.54131
4.62211
4.70091
4.77764
4.85221
4.92456
4.99463
5.06234
5.12765
5.1905
5.25084
5.30864
5.36388
5.41653
5.46659
5.51405
5.55894
5.60129
5.64112
5.67849
5.71346
5.7461
5.7765
5.80477
5.83101
5.85535
5.87793
5.89891
5.91844
5.93672
5.95389
5.97016
5.9857
6.00068
6.01519
6.02931
6.04309
6.05655
6.06966
6.08234
6.09446
6.10579
6.11607
6.1249
6.13185
6.13592
6.1371
6.13472
6.12798
6.11615
6.09852
6.07438
6.04317
6.00441
5.95777
5.90305
5.84021
5.76937
5.69081
5.60499
5.51248
5.41401
5.31037
5.20243
5.09102
4.97696
4.86105
4.74407
4.62672
4.5097
4.39358
4.2789
4.1661
4.05552
3.9474
3.84193
3.73927
3.63952
3.54277
3.44909
3.35852
3.27106
3.18671
3.10542
3.02713
2.95179
2.87932
2.80965
2.74268
2.67832
2.61647
2.55703
2.4999
2.44497
2.39215
2.34133
2.29242
2.24533
2.19996
2.15623
2.11405
2.07335
2.03406
1.99613
1.95949
1.92409
1.88987
1.85679
1.82479
1.79381
1.76382
1.73478
1.70664
1.67938
1.65298
1.62738
1.60262
1.57871
1.55572
1.53374
1.5129
1.49365
1.47198
0.374097
0.491278
0.574215
0.637649
0.689322
0.733247
0.771795
0.806639
0.839129
0.870407
0.901476
0.933212
0.96637
1.00157
1.03931
1.07995
1.12375
1.17088
1.22143
1.27543
1.33289
1.39378
1.45805
1.52561
1.59637
1.67022
1.74702
1.82666
1.909
1.99388
2.08117
2.17073
2.26239
2.35601
2.45142
2.54846
2.64696
2.74674
2.84761
2.9494
3.0519
3.15495
3.25833
3.36189
3.46542
3.56877
3.67177
3.77424
3.87605
3.97702
4.07703
4.17594
4.27361
4.36991
4.46474
4.55796
4.64947
4.73915
4.8269
4.9126
4.99615
5.07744
5.15639
5.23288
5.30683
5.37816
5.44677
5.5126
5.57559
5.63568
5.69282
5.74698
5.79815
5.8463
5.89146
5.93363
5.97285
6.00916
6.04263
6.07332
6.10133
6.12676
6.14972
6.17036
6.18882
6.20529
6.21994
6.23297
6.24457
6.25498
6.26437
6.27286
6.28058
6.28762
6.29411
6.30006
6.30547
6.31029
6.31442
6.31768
6.31972
6.32018
6.31853
6.31445
6.30729
6.29636
6.28099
6.26048
6.234
6.20095
6.16083
6.1132
6.05779
5.9945
5.92338
5.84468
5.7588
5.66631
5.56784
5.46414
5.35616
5.24467
5.13043
5.01419
4.89673
4.77875
4.66092
4.54382
4.42799
4.31392
4.20194
4.09233
3.98527
3.88093
3.77943
3.68087
3.58534
3.49288
3.40351
3.31721
3.23395
3.15369
3.07636
3.00189
2.93023
2.86127
2.79493
2.73111
2.66971
2.61063
2.55378
2.49904
2.44633
2.39554
2.3466
2.29939
2.25385
2.20988
2.16742
2.12639
2.08673
2.04839
2.01131
1.97544
1.94074
1.90713
1.8746
1.84309
1.81256
1.783
1.75437
1.72665
1.69983
1.67389
1.64883
1.6247
1.6016
1.57964
1.55906
1.53654
0.392497
0.512627
0.598731
0.665261
0.719998
0.76694
0.808437
0.846132
0.881337
0.915159
0.948567
0.982414
1.01744
1.05427
1.09342
1.13526
1.18009
1.22808
1.27934
1.33393
1.39183
1.45302
1.51744
1.58501
1.65565
1.72928
1.80579
1.88508
1.96706
2.05163
2.13868
2.2281
2.31978
2.41361
2.50946
2.60719
2.70666
2.80771
2.91019
3.01392
3.11873
3.22443
3.33084
3.43778
3.54507
3.65253
3.75997
3.86723
3.97413
4.0805
4.18617
4.29099
4.39479
4.49743
4.59877
4.69865
4.79695
4.8935
4.98818
5.08084
5.17135
5.25957
5.34536
5.42861
5.50919
5.58697
5.66184
5.7337
5.80245
5.86801
5.93029
5.98924
6.0448
6.09694
6.14563
6.19088
6.23269
6.27108
6.3061
6.3378
6.36625
6.39154
6.41376
6.43304
6.44953
6.4634
6.47483
6.48402
6.49117
6.49655
6.50032
6.50261
6.50356
6.50332
6.50217
6.50006
6.49711
6.49337
6.48882
6.4834
6.47694
6.46916
6.45976
6.44841
6.43451
6.41744
6.39655
6.37105
6.34026
6.30378
6.26106
6.21163
6.15517
6.09148
6.02057
5.94257
5.85779
5.76669
5.6699
5.56789
5.46155
5.35163
5.23887
5.12404
5.00782
4.89093
4.774
4.65759
4.54221
4.42848
4.31667
4.20706
4.09985
3.9952
3.89325
3.79411
3.69791
3.60468
3.51444
3.4272
3.34291
3.26155
3.18305
3.10738
3.03445
2.9642
2.89652
2.83134
2.76854
2.70805
2.64976
2.59357
2.5394
2.48716
2.43674
2.38806
2.34104
2.29561
2.25167
2.20918
2.16807
2.12828
2.08976
2.05246
2.01633
1.98133
1.94742
1.91456
1.88272
1.85188
1.82202
1.79311
1.76517
1.73817
1.71207
1.68692
1.66279
1.63977
1.61799
1.59465
0.403293
0.524685
0.612633
0.68129
0.738407
0.787925
0.832134
0.872622
0.910646
0.947248
0.98333
1.01968
1.05699
1.09585
1.13673
1.18
1.22595
1.27476
1.32654
1.38136
1.43923
1.50013
1.56402
1.63085
1.70057
1.77311
1.84842
1.92644
2.00712
2.09039
2.17618
2.26442
2.35503
2.44796
2.5431
2.64036
2.73962
2.84077
2.94367
3.04816
3.1541
3.26131
3.36961
3.47884
3.58882
3.69936
3.81028
3.9214
4.03253
4.14349
4.25409
4.36416
4.4735
4.58196
4.68936
4.79554
4.90034
5.00356
5.10505
5.20461
5.30209
5.39732
5.49014
5.58037
5.66786
5.75246
5.834
5.91235
5.98738
6.05896
6.12698
6.19135
6.25198
6.3088
6.36175
6.41081
6.45597
6.4972
6.53454
6.56801
6.59766
6.62354
6.64574
6.66436
6.67952
6.69138
6.70013
6.70595
6.709
6.70966
6.70802
6.70414
6.69822
6.69046
6.68105
6.67013
6.65787
6.6444
6.62982
6.61416
6.59744
6.5795
6.56004
6.53833
6.51442
6.48806
6.45879
6.42617
6.38991
6.34923
6.30332
6.25167
6.19389
6.12973
6.0591
5.98204
5.89876
5.8096
5.71515
5.61589
5.5129
5.40655
5.2974
5.18611
5.07332
4.95967
4.84578
4.73215
4.61917
4.50748
4.39749
4.28947
4.18363
4.08014
3.97912
3.88071
3.78509
3.69229
3.60233
3.51521
3.43092
3.34941
3.27066
3.19462
3.12124
3.05044
2.98214
2.91626
2.8527
2.79137
2.7322
2.67508
2.61994
2.56669
2.51523
2.46548
2.41737
2.37081
2.32575
2.28211
2.23984
2.19888
2.15918
2.1207
2.0834
2.04722
2.01215
1.97814
1.94518
1.91324
1.88231
1.85237
1.82343
1.79548
1.76847
1.7424
1.71734
1.69337
1.67051
1.64643
0.406634
0.527944
0.616651
0.686584
0.745426
0.797031
0.843609
0.886636
0.927382
0.966794
1.00567
1.04471
1.08451
1.12559
1.16838
1.2132
1.2603
1.30987
1.36201
1.4168
1.47426
1.53442
1.59725
1.66275
1.73091
1.80168
1.87505
1.95101
2.02955
2.11068
2.19439
2.28051
2.36906
2.46004
2.5534
2.6491
2.74706
2.84718
2.94936
3.05348
3.1594
3.26698
3.37607
3.48649
3.59808
3.71066
3.82405
3.93806
4.0525
4.16718
4.28191
4.39647
4.51067
4.62427
4.73717
4.84918
4.96007
5.06964
5.17767
5.28396
5.3883
5.49049
5.59035
5.68767
5.78225
5.87388
5.96239
6.04758
6.12929
6.20736
6.28163
6.35197
6.41825
6.48037
6.53824
6.5918
6.64099
6.68579
6.72617
6.76215
6.79373
6.82094
6.84384
6.86247
6.87696
6.88743
6.89408
6.89711
6.89671
6.89301
6.88613
6.8762
6.86339
6.84789
6.82991
6.80964
6.7873
6.76311
6.73728
6.70985
6.68047
6.64934
6.6168
6.58333
6.54895
6.51294
6.47493
6.43457
6.39152
6.34476
6.29406
6.23897
6.17911
6.11416
6.04392
5.9683
5.88738
5.80133
5.71052
5.61507
5.51605
5.41382
5.30891
5.20189
5.09335
4.98385
4.87399
4.76422
4.65501
4.5473
4.44112
4.33662
4.234
4.13343
4.03503
3.93887
3.84517
3.75407
3.66559
3.57975
3.49653
3.4159
3.33785
3.26236
3.18939
3.11886
3.05071
2.98485
2.9212
2.85969
2.80023
2.74276
2.68718
2.63342
2.5814
2.53103
2.48225
2.43497
2.38915
2.34471
2.30161
2.2598
2.21922
2.17985
2.14163
2.10453
2.06854
2.03361
1.99974
1.9669
1.93509
1.9043
1.87452
1.84575
1.81794
1.79107
1.76521
1.74041
1.7166
1.69188
0.404556
0.524665
0.613014
0.683194
0.742811
0.79566
0.843924
0.889112
0.932359
0.974439
1.01602
1.05765
1.0999
1.1432
1.18791
1.23427
1.28251
1.33275
1.38512
1.43968
1.49649
1.55558
1.617
1.68076
1.74691
1.81546
1.88633
1.95957
2.03528
2.11353
2.1944
2.27779
2.36369
2.45211
2.54302
2.63641
2.73223
2.83044
2.93096
3.0337
3.13856
3.24543
3.35416
3.46463
3.57667
3.69013
3.80483
3.92059
4.03723
4.15455
4.27234
4.3904
4.50853
4.62652
4.74429
4.86153
4.978
5.09346
5.20765
5.32034
5.43123
5.54019
5.64697
5.75132
5.85299
5.95175
6.04734
6.13958
6.22823
6.3131
6.39399
6.47071
6.54311
6.61103
6.67435
6.73296
6.78678
6.83575
6.87981
6.91894
6.9531
6.9823
7.00652
7.0258
7.0402
7.04982
7.05485
7.05558
7.05227
7.04467
7.0329
7.01711
6.99745
6.9741
6.94728
6.91722
6.88412
6.84802
6.80897
6.76754
6.72449
6.68044
6.63519
6.58907
6.54135
6.49244
6.44234
6.39097
6.33809
6.2833
6.22624
6.16653
6.10375
6.03753
5.96755
5.8936
5.81557
5.73349
5.64749
5.55778
5.46476
5.36881
5.27036
5.16986
5.0678
4.96468
4.86099
4.75714
4.65337
4.55061
4.44905
4.34891
4.2504
4.15367
4.05885
3.96604
3.87576
3.78784
3.70228
3.61906
3.53819
3.45964
3.38333
3.30937
3.23772
3.16833
3.10114
3.03608
2.97307
2.91206
2.85297
2.79575
2.74033
2.68661
2.63454
2.58404
2.53504
2.48748
2.4413
2.39646
2.3529
2.31058
2.26945
2.22949
2.19065
2.15292
2.11627
2.08068
2.04613
2.01263
1.98015
1.94869
1.91825
1.88882
1.86034
1.83283
1.80631
1.78081
1.75622
1.73098
0.397296
0.515129
0.602393
0.672313
0.732347
0.786171
0.835842
0.882649
0.927638
0.971628
1.01526
1.05906
1.10355
1.14895
1.19548
1.24332
1.2926
1.34344
1.39593
1.45015
1.50614
1.56399
1.62375
1.68551
1.74934
1.81538
1.8836
1.95404
2.02675
2.1018
2.17917
2.25887
2.34106
2.42582
2.5132
2.60321
2.69586
2.79113
2.88899
2.98939
3.09225
3.19749
3.305
3.41466
3.52634
3.63988
3.75514
3.87194
3.99009
4.1094
4.22966
4.35067
4.47219
4.59395
4.71571
4.83729
4.95844
5.07893
5.1985
5.31687
5.43379
5.54914
5.66254
5.77368
5.88227
5.98803
6.09062
6.18988
6.28552
6.37731
6.46498
6.54831
6.62707
6.70109
6.7702
6.83425
6.89311
6.94668
6.99488
7.03762
7.07486
7.10651
7.13253
7.1529
7.16762
7.17677
7.18051
7.1795
7.17365
7.16243
7.14598
7.12443
7.09791
7.06649
7.0302
6.9893
6.94415
6.8953
6.84355
6.78901
6.73231
6.67297
6.61185
6.54943
6.48597
6.4219
6.35756
6.29317
6.22877
6.16426
6.09942
6.03394
5.96743
5.89946
5.82961
5.75752
5.6829
5.60556
5.5254
5.44245
5.3568
5.26868
5.17832
5.08607
4.99227
4.89733
4.80165
4.70561
4.60957
4.51399
4.41919
4.32543
4.2329
4.14178
4.0522
3.96418
3.87817
3.79419
3.71228
3.63245
3.5547
3.47903
3.40543
3.33407
3.2648
3.19755
3.13227
3.06889
3.00736
2.94759
2.88956
2.83326
2.77859
2.72551
2.67395
2.62384
2.57512
2.52773
2.48165
2.43681
2.39319
2.35074
2.30942
2.26921
2.23009
2.19202
2.15501
2.11903
2.08407
2.05014
2.01722
1.98532
1.95441
1.92448
1.89552
1.86754
1.84053
1.81449
1.78928
1.76366
0.38384
0.499258
0.584906
0.653928
0.713684
0.767791
0.818292
0.866521
0.913354
0.959443
1.00528
1.05118
1.09747
1.14446
1.19235
1.24129
1.29137
1.34266
1.39522
1.4491
1.50437
1.56108
1.61932
1.67914
1.7406
1.80372
1.86857
1.93534
2.00417
2.07517
2.14847
2.2242
2.30242
2.38323
2.46671
2.5529
2.64187
2.73363
2.82818
2.92552
3.0256
3.12837
3.23377
3.34168
3.45201
3.56464
3.6794
3.79617
3.91475
4.03496
4.15661
4.27949
4.40338
4.52805
4.65329
4.77883
4.90439
5.02971
5.15449
5.27841
5.40113
5.5223
5.6417
5.75905
5.87402
5.98632
6.09569
6.20185
6.30443
6.40312
6.49761
6.58762
6.67285
6.75312
6.8282
6.89789
6.96202
7.02043
7.07301
7.11963
7.16016
7.19451
7.22254
7.24416
7.2593
7.26794
7.27036
7.26799
7.25953
7.24448
7.22294
7.19499
7.16076
7.12047
7.0745
7.023
6.96632
6.90508
6.83893
6.7687
6.695
6.61829
6.53929
6.45877
6.37749
6.29621
6.21564
6.13635
6.05874
5.98301
5.90916
5.83701
5.76619
5.69625
5.62664
5.55684
5.48634
5.41471
5.3416
5.26674
5.19
5.11135
5.03084
4.94864
4.86495
4.78006
4.69426
4.60788
4.52122
4.43463
4.34839
4.26275
4.17791
4.09405
4.01132
3.92986
3.84986
3.77146
3.69472
3.61969
3.54639
3.47482
3.40493
3.33691
3.2707
3.20626
3.14355
3.08252
3.02312
2.9653
2.90912
2.85447
2.80129
2.74951
2.69909
2.64996
2.60207
2.55537
2.50985
2.46547
2.4222
2.38002
2.33889
2.29879
2.25972
2.22164
2.18456
2.14848
2.11339
2.07928
2.04616
2.01403
1.98285
1.95264
1.92341
1.89514
1.86781
1.8414
1.81574
1.78989
0.367636
0.480221
0.563793
0.631435
0.690393
0.744219
0.79491
0.843727
0.891511
0.938849
0.986175
1.03381
1.08193
1.13066
1.18008
1.23026
1.28121
1.33299
1.38561
1.43911
1.49354
1.54898
1.6055
1.6632
1.72219
1.78262
1.84461
1.90827
1.97377
2.04124
2.11085
2.18273
2.25703
2.33386
2.41335
2.49559
2.58066
2.66863
2.75953
2.85338
2.9502
3.04994
3.15257
3.25804
3.36624
3.47709
3.59046
3.70622
3.82422
3.94427
4.0662
4.18982
4.31489
4.44121
4.56853
4.69659
4.82511
4.95381
5.08236
5.21047
5.33778
5.46403
5.58883
5.71184
5.83269
5.95101
6.06638
6.17844
6.28693
6.39153
6.49191
6.58776
6.67884
6.76481
6.84537
6.92024
6.98922
7.05209
7.1087
7.15886
7.20241
7.23914
7.26888
7.29143
7.30667
7.3145
7.31566
7.31156
7.30005
7.28083
7.25399
7.21963
7.17788
7.12902
7.07287
7.00978
6.9401
6.86424
6.78253
6.69559
6.6041
6.50891
6.41098
6.3114
6.21129
6.11183
6.01413
5.91916
5.82772
5.74033
5.65721
5.57832
5.50334
5.43176
5.36294
5.29613
5.23061
5.16567
5.10069
5.03511
4.96853
4.90066
4.83137
4.76062
4.68847
4.61507
4.54062
4.46535
4.38952
4.31336
4.23714
4.16106
4.08532
4.01012
3.93559
3.8619
3.78922
3.71766
3.64732
3.57828
3.51058
3.44424
3.37929
3.31578
3.25373
3.19314
3.13397
3.0762
3.0198
2.96471
2.91097
2.85855
2.8074
2.75746
2.7087
2.66107
2.61452
2.56905
2.52463
2.48123
2.43882
2.39737
2.35688
2.31732
2.2787
2.241
2.20422
2.16837
2.13345
2.09948
2.06643
2.03432
2.00317
1.97296
1.94371
1.91539