/*--------------------------------*- C++ -*----------------------------------*\
  =========                 |
  \\      /  F ield         | OpenFOAM: The Open Source CFD Toolbox
   \\    /   O peration     | Website:  https://openfoam.org
    \\  /    A nd           | Version:  8
     \\/     M anipulation  |
\*---------------------------------------------------------------------------*/
FoamFile
{
    version     2.0;
    format      ascii;
    class       volScalarField;
    location    "80";
    object      nut;
}
// * * * * * * * * * * * * * * * * * * * * * * * * * * * * * * * * * * * * * //

dimensions      [0 2 -1 0 0 0 0];

internalField   nonuniform List<scalar> 
12225
(
4.14913e-05
3.93434e-05
3.74803e-05
3.54364e-05
3.37805e-05
3.24275e-05
3.15051e-05
3.092e-05
3.0927e-05
3.11099e-05
3.15977e-05
3.21334e-05
3.32097e-05
3.39121e-05
3.51771e-05
3.59533e-05
3.70965e-05
3.90236e-05
0.000332237
0.000215153
0.000179257
0.000157657
0.000146195
0.000138162
0.000132642
0.000131711
0.000129386
0.000130153
0.000128934
0.000129554
0.000128546
0.000128698
0.000128006
0.000127575
0.000127714
0.000126193
0.000668718
0.000450619
0.000355742
0.000309771
0.000275229
0.000250988
0.0002316
0.000217092
0.000202448
0.00019181
0.000182304
0.000174706
0.000169017
0.000162933
0.000159882
0.000154459
0.000153236
0.000148239
0.00080168
0.000691643
0.000572549
0.000499981
0.000449324
0.00041182
0.000380646
0.000355714
0.000333751
0.000314293
0.000297899
0.000280828
0.000269692
0.00025486
0.000247137
0.000234489
0.000228699
0.000217778
0.000839624
0.000810176
0.000740707
0.000676341
0.00062389
0.000581197
0.000545751
0.000514209
0.000489263
0.000463852
0.000445383
0.00042314
0.000409084
0.000389453
0.000378401
0.000361077
0.000352266
0.000336208
0.000850346
0.000843274
0.000819546
0.00078648
0.000750762
0.000715718
0.00068567
0.000655811
0.000632315
0.000606981
0.00058852
0.000566399
0.000551399
0.000531799
0.000519281
0.000501636
0.000491197
0.000474053
0.000851581
0.000851016
0.000843298
0.000833449
0.000817116
0.000796844
0.000777812
0.000756504
0.000738715
0.00071874
0.000703127
0.000684948
0.000671364
0.000654835
0.000643027
0.000627726
0.000617748
0.000602252
0.000851584
0.000851812
0.000850042
0.000847446
0.000841396
0.000833716
0.000824756
0.000813308
0.00080269
0.000790214
0.000779424
0.000767077
0.000756873
0.000744992
0.000735599
0.000724172
0.000715928
0.00070385
0.000851676
0.000851527
0.00085102
0.000850334
0.000848874
0.000846146
0.000843006
0.000838235
0.00083333
0.000827218
0.000821029
0.000814501
0.000808078
0.000801015
0.000794676
0.000787492
0.000781523
0.000773537
0.000851757
0.000851383
0.000851046
0.000850626
0.000850246
0.000849353
0.000848393
0.000846746
0.000844913
0.000842458
0.000839821
0.000836651
0.000833596
0.000829879
0.000826615
0.000822457
0.000819329
0.000814535
0.000851786
0.000851357
0.000851013
0.00085061
0.000850327
0.000849896
0.000849516
0.000848909
0.000848276
0.000847353
0.000846409
0.000845097
0.000843883
0.000842207
0.000840809
0.000838786
0.000837338
0.000834965
0.000851789
0.000851359
0.000850997
0.000850603
0.00085029
0.000849932
0.000849637
0.000849266
0.000848936
0.000848477
0.000848062
0.000847458
0.000846934
0.000846159
0.000845537
0.000844584
0.000843896
0.000842768
0.000851786
0.000851363
0.000850986
0.000850603
0.000850268
0.000849922
0.000849623
0.000849303
0.000849028
0.000848708
0.000848436
0.000848091
0.000847801
0.000847412
0.000847093
0.000846646
0.000846295
0.000845789
0.000851783
0.000851365
0.000850979
0.000850602
0.000850255
0.000849914
0.000849603
0.000849292
0.000849012
0.000848726
0.000848469
0.0008482
0.000847959
0.000847699
0.000847467
0.000847209
0.000846979
0.000846719
0.000851781
0.000851365
0.000850973
0.000850598
0.000850246
0.000849907
0.000849589
0.000849282
0.000848994
0.000848714
0.000848451
0.000848196
0.000847956
0.000847722
0.000847502
0.000847286
0.000847082
0.000846882
0.00085178
0.000851364
0.00085097
0.000850595
0.000850239
0.000849901
0.00084958
0.000849273
0.000848981
0.000848703
0.000848437
0.000848183
0.000847941
0.00084771
0.000847489
0.000847278
0.000847077
0.000846884
0.000851779
0.000851363
0.000850967
0.000850591
0.000850234
0.000849895
0.000849572
0.000849265
0.000848973
0.000848694
0.000848427
0.000848174
0.000847931
0.0008477
0.000847479
0.000847268
0.000847067
0.000846875
0.000851779
0.000851362
0.000850965
0.000850589
0.000850231
0.000849891
0.000849568
0.00084926
0.000848967
0.000848688
0.000848421
0.000848168
0.000847925
0.000847694
0.000847474
0.000847263
0.000847062
0.000846871
0.000851779
0.000851362
0.000850965
0.000850588
0.00085023
0.00084989
0.000849566
0.000849258
0.000848965
0.000848686
0.00084842
0.000848167
0.000847925
0.000847695
0.000847475
0.000847265
0.000847065
0.000846874
0.000851779
0.000851362
0.000850965
0.000850589
0.000850231
0.000849892
0.000849569
0.000849262
0.00084897
0.000848692
0.000848427
0.000848174
0.000847934
0.000847704
0.000847485
0.000847276
0.000847077
0.000846887
0.000851779
0.000851363
0.000850967
0.000850592
0.000850235
0.000849897
0.000849575
0.000849271
0.000848978
0.000848702
0.000848436
0.000848184
0.000847939
0.000847708
0.000847481
0.000847268
0.000847056
0.000846858
0.000851777
0.000851366
0.000850968
0.000850599
0.000850241
0.000849909
0.000849583
0.000849279
0.000848972
0.000848682
0.00084838
0.000848092
0.000847782
0.000847488
0.000847163
0.000846861
0.000846517
0.000846208
0.000851773
0.000851376
0.00085097
0.000850615
0.000850242
0.000849892
0.000849483
0.000849062
0.000848541
0.000847996
0.000847326
0.000846638
0.000845812
0.000844997
0.00084403
0.000843123
0.000842035
0.000841081
0.000851767
0.000851415
0.000850963
0.000850549
0.000849863
0.000848972
0.000847621
0.000845993
0.000843933
0.000841678
0.000839016
0.000836297
0.000833227
0.000830255
0.000826944
0.000823903
0.000820458
0.000817506
0.000851858
0.00085138
0.000850196
0.000848246
0.000844476
0.000839373
0.000832795
0.000825708
0.000818039
0.000810117
0.000801767
0.00079382
0.000785581
0.000778014
0.000770123
0.000763154
0.000755665
0.000749428
0.000852108
0.000847667
0.000839905
0.000827151
0.000808738
0.000789689
0.000770056
0.00075152
0.000733466
0.000717096
0.000701206
0.000687107
0.000673243
0.000661158
0.000648967
0.000638623
0.000627755
0.000618936
0.00084324
0.000822505
0.000775208
0.000726473
0.000684958
0.000649924
0.000618584
0.000592172
0.000568598
0.000548568
0.000530028
0.000514375
0.000499243
0.000486569
0.000473868
0.000463457
0.000452507
0.000443792
0.000795677
0.000668245
0.000570665
0.000509941
0.000465682
0.000431271
0.000404269
0.000382636
0.000364391
0.000349303
0.000336213
0.000325377
0.00031492
0.000306646
0.000298471
0.000291935
0.000284963
0.000279673
0.00050132
0.00034836
0.000292694
0.000259197
0.000236373
0.000221205
0.000211678
0.00020392
0.000198629
0.000195144
0.000192292
0.000190442
0.000188661
0.000187526
0.000186254
0.000185559
0.000184639
0.000184226
7.27385e-05
7.02256e-05
6.79539e-05
6.56137e-05
6.33822e-05
6.12765e-05
5.94926e-05
5.79541e-05
5.67072e-05
5.56978e-05
5.49682e-05
5.44041e-05
5.4089e-05
5.38557e-05
5.38499e-05
5.38996e-05
5.40223e-05
5.42485e-05
7.44284e-06
7.85626e-05
0.000110549
0.000137646
0.000160278
0.000178462
0.000192383
0.000204009
0.000217936
0.000223068
0.000224295
0.000222232
0.000224241
0.000231745
0.000246921
0.000279247
0.000312564
5.59256e-05
5.05048e-05
4.67458e-05
4.4542e-05
5.74998e-05
5.36158e-05
5.36239e-05
5.51858e-05
5.7354e-05
5.97461e-05
6.23508e-05
6.50175e-05
6.77815e-05
7.05431e-05
7.32946e-05
7.59898e-05
7.86522e-05
8.12219e-05
8.3723e-05
8.61055e-05
8.83988e-05
9.05714e-05
9.26543e-05
9.4624e-05
9.651e-05
9.82946e-05
0.000100005
0.000101626
0.000103184
0.000104666
0.000106094
0.000107458
0.000108779
0.000110045
0.000111277
0.000112464
0.000113624
0.000114748
0.000115852
0.000116926
0.000117987
0.000119025
0.000120056
0.000121068
0.000122078
0.000123073
0.00012407
0.000125056
0.000126046
0.000127027
0.000128013
0.000128993
0.000129977
0.000130956
0.000131938
0.000132917
0.000133895
0.000134867
0.000135836
0.000136795
0.000137746
0.000138685
0.000139611
0.000140519
0.000141408
0.000142273
0.00014311
0.000143912
0.000144678
0.000145394
0.000146065
0.000146678
0.000147317
0.000147937
0.000148516
0.00014906
0.000149557
0.000150004
0.000150386
0.000150725
0.000150598
0.000151524
0.000150687
0.000151858
0.000151549
0.000151611
0.000151397
0.000151263
0.000150984
0.000150582
0.000150093
0.000149504
0.000148817
0.000148022
0.000147101
0.000146051
0.000144916
0.000143675
0.000142331
0.00014089
0.000139356
0.000137735
0.000136068
0.000134482
0.000132508
0.000130553
0.000128531
0.000126474
0.000124387
0.000122267
0.000120106
0.000118031
0.000115434
0.000112934
0.000111281
0.000109797
0.000108349
0.000106923
0.000105501
0.000104104
0.000102733
0.000101395
0.000100066
9.8799e-05
9.75383e-05
9.63235e-05
9.50817e-05
9.38578e-05
9.26688e-05
9.15219e-05
9.04134e-05
8.93498e-05
8.83148e-05
8.73078e-05
8.63318e-05
8.53886e-05
8.44779e-05
8.3601e-05
8.27561e-05
8.19403e-05
8.11516e-05
8.03895e-05
7.96533e-05
7.89429e-05
7.82566e-05
7.75935e-05
7.69521e-05
7.63321e-05
7.57322e-05
7.5152e-05
7.45897e-05
7.40446e-05
7.35146e-05
7.29997e-05
7.24933e-05
7.20033e-05
7.15025e-05
7.10361e-05
7.05001e-05
7.00119e-05
6.95603e-05
6.80251e-05
6.7041e-05
1.43192e-05
7.63077e-05
0.000153035
0.000218437
0.000272036
0.000313703
0.000344553
0.000369601
0.000385777
0.000395899
0.000399986
0.000399899
0.000397916
0.000395174
0.000389666
0.000374463
0.000338005
0.000273568
0.000251606
0.00024512
0.000257194
0.000304357
0.000327291
0.000334643
0.000339213
0.000345059
0.000352863
0.00036269
0.000374388
0.000388655
0.000404687
0.000421647
0.000439586
0.000458719
0.000478705
0.000499286
0.000520091
0.000540819
0.000561252
0.000581224
0.000600589
0.000619244
0.000637111
0.000654143
0.000670311
0.000685609
0.000700044
0.000713634
0.00072641
0.000738403
0.000749658
0.000760213
0.000770121
0.00077942
0.000788169
0.000796408
0.000804195
0.000811574
0.000818617
0.000825365
0.000831882
0.000838207
0.000844409
0.000850528
0.000856631
0.000862752
0.000868959
0.000875281
0.000881789
0.000888511
0.000895521
0.000902845
0.000910558
0.000918688
0.000927297
0.000936401
0.000946045
0.000956236
0.000967016
0.000978384
0.000990368
0.00100294
0.00101611
0.00102978
0.00104387
0.0010582
0.00107255
0.00108661
0.00110007
0.00111258
0.00112519
0.00113813
0.00115129
0.00116463
0.00117805
0.00119149
0.00120484
0.00121782
0.001231
0.00124389
0.00125467
0.00126436
0.00127686
0.00128425
0.00129353
0.00130277
0.00130925
0.00131455
0.00131849
0.00132101
0.00132199
0.00132125
0.00131836
0.00131394
0.00130866
0.00130183
0.00129356
0.00128393
0.00127308
0.00126127
0.00124912
0.00123593
0.00122194
0.00120729
0.0011921
0.00117652
0.00116062
0.00114441
0.00112808
0.00111039
0.00108976
0.00106823
0.00104648
0.00102487
0.00100361
0.000982768
0.000962359
0.00094247
0.000923128
0.000904371
0.000886283
0.000868701
0.00085175
0.000835433
0.000819717
0.000804653
0.000790245
0.00077638
0.000762959
0.000749796
0.00073703
0.000724703
0.00071281
0.000701337
0.000690279
0.000679559
0.000669146
0.000659042
0.000649251
0.000639773
0.000630587
0.000621666
0.000612998
0.000604582
0.000596405
0.000588452
0.000580708
0.000573158
0.000565778
0.000558563
0.00055146
0.000544509
0.000537549
0.000530764
0.000523794
0.000516643
0.000510262
0.000497552
0.000482612
0.000435717
2.74056e-05
0.000114347
0.000216264
0.000304808
0.000378001
0.000436568
0.000482319
0.000515817
0.00053838
0.000550778
0.000556769
0.000558905
0.000559204
0.000559314
0.000559305
0.000557304
0.000551229
0.000543164
0.000541508
0.000548983
0.000566399
0.000590981
0.00060921
0.000627742
0.000648264
0.000671695
0.000698329
0.000728153
0.000761016
0.000795747
0.000832126
0.000871644
0.000912728
0.000954747
0.000997221
0.00103972
0.00108184
0.00112326
0.0011637
0.00120296
0.00124091
0.00127743
0.00131246
0.00134598
0.00137797
0.00140847
0.0014375
0.00146511
0.00149137
0.00151632
0.00154005
0.00156262
0.0015841
0.00160458
0.00162412
0.0016428
0.00166068
0.00167776
0.00169417
0.00171
0.00172531
0.00174019
0.0017547
0.00176891
0.0017829
0.00179672
0.00181046
0.00182418
0.00183794
0.00185181
0.00186586
0.00188013
0.00189469
0.00190954
0.00192481
0.00194065
0.00195708
0.00197414
0.00199185
0.00201022
0.00202926
0.00204895
0.00206925
0.0020901
0.0021114
0.00213302
0.00215482
0.00217668
0.00219849
0.00222026
0.0022425
0.0022652
0.00228822
0.00231143
0.00233467
0.00235777
0.00238048
0.00240256
0.00242407
0.00244449
0.00246539
0.00248389
0.00250186
0.00251421
0.00252716
0.00253917
0.00254795
0.00255415
0.00255767
0.0025584
0.00255624
0.0025511
0.00254287
0.00253181
0.00251822
0.00250193
0.00248307
0.00246181
0.0024384
0.00241315
0.00238648
0.00235828
0.00232875
0.00229813
0.00226664
0.00223449
0.00220188
0.00216889
0.00213561
0.00210152
0.00206568
0.00202889
0.00199185
0.00195501
0.00191866
0.00188296
0.001848
0.00181389
0.00178066
0.00174837
0.00171705
0.00168683
0.00165776
0.00162978
0.00160286
0.00157722
0.00155295
0.00152961
0.00150691
0.00148428
0.00146239
0.00144127
0.00142087
0.00140116
0.00138215
0.00136361
0.00134551
0.0013279
0.00131079
0.0012942
0.00127807
0.00126236
0.00124706
0.00123218
0.00121771
0.00120361
0.00118986
0.00117643
0.0011633
0.00115044
0.00113779
0.00112535
0.00111295
0.00110073
0.00108826
0.00107552
0.00106281
0.00104697
0.001025
0.000961886
4.18882e-05
0.000157936
0.000284733
0.000393338
0.000482267
0.00055312
0.000608051
0.000648815
0.000677672
0.000697196
0.000709338
0.000716208
0.00072002
0.000722596
0.000725541
0.000730183
0.000737239
0.000746939
0.000760613
0.000779142
0.000802697
0.000830365
0.000860433
0.000893757
0.000930826
0.000971805
0.0010166
0.00106492
0.00111635
0.00117033
0.00122655
0.00128382
0.00134177
0.00140015
0.00145863
0.00151675
0.00157414
0.00163045
0.00168543
0.00173889
0.00179068
0.0018407
0.00188891
0.00193528
0.00197981
0.00202253
0.00206348
0.0021027
0.00214027
0.00217625
0.0022107
0.00224373
0.00227539
0.00230578
0.00233499
0.00236311
0.00239028
0.00241641
0.00244164
0.00246607
0.00248975
0.00251278
0.00253522
0.00255715
0.00257864
0.00259976
0.00262058
0.00264118
0.0026616
0.00268193
0.00270223
0.00272255
0.00274298
0.00276356
0.00278438
0.00280552
0.00282699
0.00284885
0.0028711
0.00289377
0.00291686
0.00294035
0.00296423
0.00298846
0.00301299
0.00303776
0.00306268
0.0030877
0.00311275
0.00313793
0.00316348
0.00318933
0.00321538
0.0032415
0.00326751
0.00329326
0.00331855
0.00334319
0.00336702
0.00338977
0.00341152
0.00343329
0.00345225
0.003465
0.00347904
0.00349037
0.00349853
0.00350352
0.00350519
0.00350342
0.00349808
0.0034891
0.00347643
0.00346019
0.00344053
0.00341749
0.00339122
0.00336195
0.00332995
0.00329552
0.00325901
0.00322058
0.00318048
0.00313899
0.0030964
0.00305298
0.003009
0.00296463
0.00291997
0.00287483
0.00282883
0.00278233
0.00273576
0.00268953
0.00264391
0.00259908
0.00255519
0.00251233
0.00247056
0.00242994
0.0023905
0.00235235
0.00231554
0.00228006
0.00224603
0.00221332
0.00218196
0.00215179
0.00212263
0.0020942
0.00206717
0.00204116
0.00201601
0.00199172
0.00196832
0.00194532
0.00192276
0.0019008
0.00187946
0.00185877
0.0018386
0.00181889
0.00179968
0.001781
0.00176282
0.00174509
0.0017278
0.00171092
0.0016944
0.00167822
0.00166233
0.00164671
0.00163121
0.00161589
0.00160042
0.00158474
0.00156864
0.00155094
0.00152963
0.00146884
5.64809e-05
0.000201552
0.000351098
0.000477732
0.000580222
0.00066146
0.000724212
0.000771042
0.000804721
0.000828016
0.000843651
0.00085431
0.000862552
0.00087063
0.000880355
0.000892991
0.000909256
0.000929516
0.000954112
0.000983304
0.00101718
0.0010556
0.00109834
0.00114546
0.00119692
0.00125254
0.00131195
0.0013747
0.00144023
0.00150798
0.00157738
0.00164779
0.00171879
0.00178988
0.00186056
0.00193043
0.00199918
0.00206656
0.00213236
0.00219643
0.00225866
0.00231897
0.00237734
0.00243374
0.00248818
0.00254067
0.00259127
0.00264001
0.00268696
0.00273217
0.00277571
0.00281765
0.00285807
0.00289703
0.00293459
0.00297083
0.00300576
0.0030395
0.00307213
0.00310372
0.00313435
0.00316408
0.00319298
0.00322112
0.00324856
0.00327537
0.00330161
0.00332734
0.00335261
0.0033775
0.00340204
0.00342627
0.00345028
0.00347414
0.00349791
0.00352163
0.00354535
0.0035691
0.0035929
0.00361677
0.00364073
0.0036648
0.00368897
0.00371325
0.00373764
0.00376213
0.00378672
0.00381139
0.0038361
0.00386094
0.00388598
0.00391117
0.00393643
0.00396165
0.00398668
0.00401139
0.00403562
0.00405918
0.00408186
0.00410343
0.0041236
0.00414358
0.00416191
0.0041738
0.00418631
0.00419586
0.00420224
0.00420531
0.00420487
0.00420077
0.00419287
0.00418107
0.00416533
0.00414571
0.00412227
0.00409512
0.00406444
0.00403043
0.00399336
0.00395354
0.00391127
0.00386682
0.00382048
0.00377257
0.0037234
0.00367328
0.00362251
0.00357132
0.00351986
0.00346814
0.00341613
0.00336399
0.00331202
0.00326049
0.00320964
0.00315966
0.0031107
0.00306285
0.00301619
0.00297078
0.00292666
0.00288389
0.00284252
0.00280256
0.00276421
0.00272711
0.00269137
0.00265693
0.00262368
0.00259147
0.0025605
0.00253066
0.00250185
0.00247416
0.00244772
0.00242206
0.00239713
0.00237294
0.00234947
0.0023267
0.00230444
0.00228258
0.00226129
0.00224061
0.00222048
0.00220081
0.00218162
0.0021629
0.00214457
0.00212663
0.00210908
0.00209187
0.00207488
0.00205812
0.00204138
0.00202455
0.00200735
0.00198899
0.00197128
0.001919
7.06949e-05
0.000238753
0.000410423
0.000554512
0.000669975
0.000761245
0.000831869
0.000884941
0.000923915
0.000952037
0.000972429
0.000988071
0.0010017
0.00101569
0.00103191
0.0010517
0.00107586
0.00110483
0.00113882
0.00117791
0.00122208
0.00127123
0.00132518
0.00138373
0.00144659
0.00151339
0.00158363
0.00165678
0.0017323
0.00180959
0.00188812
0.00196737
0.00204686
0.00212617
0.00220489
0.0022827
0.00235933
0.00243455
0.00250819
0.00258011
0.00265021
0.00271842
0.00278468
0.00284898
0.00291131
0.00297168
0.00303011
0.00308663
0.00314128
0.0031941
0.00324516
0.0032945
0.00334217
0.00338824
0.00343276
0.00347578
0.00351736
0.00355757
0.00359647
0.00363412
0.00367058
0.0037059
0.00374014
0.00377335
0.00380558
0.00383689
0.00386732
0.00389693
0.00392577
0.00395388
0.00398133
0.00400818
0.00403445
0.00406017
0.00408536
0.00411007
0.00413433
0.00415817
0.00418162
0.00420471
0.00422747
0.00424994
0.00427214
0.00429411
0.00431588
0.00433749
0.00435899
0.00438041
0.00440184
0.0044233
0.00444477
0.00446624
0.00448766
0.00450896
0.00453006
0.00455086
0.00457123
0.00459102
0.00461007
0.00462816
0.00464512
0.00466095
0.00467681
0.0046867
0.00469665
0.00470389
0.00470819
0.00470936
0.00470719
0.00470146
0.00469201
0.00467872
0.0046615
0.00464036
0.00461531
0.00458645
0.00455393
0.00451793
0.00447871
0.00443655
0.00439173
0.00434455
0.00429532
0.00424438
0.00419205
0.00413866
0.00408452
0.0040299
0.003975
0.00391997
0.00386489
0.00380993
0.00375527
0.00370115
0.00364775
0.00359524
0.00354377
0.00349344
0.00344435
0.00339654
0.00335005
0.00330494
0.00326124
0.00321896
0.00317815
0.00313874
0.00310072
0.00306405
0.00302863
0.00299438
0.00296133
0.00292943
0.00289861
0.00286887
0.00284023
0.00281252
0.00278585
0.00276017
0.00273536
0.00271137
0.00268811
0.0026655
0.00264356
0.00262229
0.00260156
0.0025812
0.00256134
0.00254198
0.00252299
0.00250441
0.00248625
0.00246843
0.00245092
0.00243372
0.00241668
0.00239973
0.00238264
0.00236479
0.00234867
0.00230446
8.39478e-05
0.000272076
0.000463394
0.000623439
0.000751265
0.000852439
0.000931257
0.000991237
0.00103641
0.00107043
0.00109667
0.00111828
0.00113806
0.00115842
0.00118126
0.00120796
0.0012394
0.00127607
0.00131817
0.00136571
0.00141855
0.00147647
0.00153918
0.00160631
0.00167746
0.00175215
0.00182988
0.0019101
0.00199228
0.00207591
0.0021605
0.00224558
0.00233075
0.00241564
0.00249992
0.0025833
0.00266556
0.0027465
0.00282594
0.00290378
0.00297989
0.00305421
0.00312668
0.00319726
0.00326593
0.00333267
0.0033975
0.00346042
0.00352145
0.00358063
0.00363798
0.00369353
0.00374733
0.00379942
0.00384983
0.00389861
0.00394579
0.00399143
0.00403557
0.00407825
0.0041195
0.00415938
0.00419791
0.00423513
0.00427108
0.00430579
0.0043393
0.00437164
0.00440285
0.00443296
0.004462
0.00449002
0.00451703
0.00454306
0.00456815
0.00459231
0.0046156
0.00463803
0.00465966
0.00468051
0.00470063
0.00472008
0.00473889
0.00475713
0.00477485
0.00479212
0.004809
0.00482555
0.00484185
0.00485794
0.00487386
0.00488964
0.00490527
0.00492074
0.00493602
0.00495108
0.00496584
0.00498021
0.00499407
0.00500725
0.00501957
0.0050308
0.00504275
0.00505016
0.0050572
0.00506198
0.00506428
0.00506386
0.00506047
0.00505388
0.00504386
0.00503025
0.00501292
0.00499179
0.00496685
0.00493813
0.00490572
0.0048698
0.00483056
0.00478826
0.00474318
0.00469563
0.00464591
0.00459435
0.00454127
0.00448702
0.00443189
0.00437619
0.00432016
0.00426402
0.00420792
0.00415204
0.00409655
0.00404161
0.0039874
0.00393408
0.00388179
0.00383063
0.00378069
0.00373205
0.00368473
0.00363877
0.00359421
0.00355106
0.00350934
0.00346902
0.00343008
0.00339248
0.00335617
0.00332107
0.00328715
0.00325437
0.00322267
0.00319202
0.00316241
0.00313374
0.00310602
0.00307921
0.00305344
0.00302868
0.00300487
0.00298193
0.00295981
0.00293845
0.00291774
0.00289758
0.00287795
0.00285881
0.00283995
0.00282152
0.00280347
0.00278582
0.00276853
0.00275161
0.002735
0.00271863
0.00270236
0.00268576
0.00267083
0.00263308
9.58559e-05
0.000300868
0.00050913
0.000683528
0.000823077
0.000934067
0.00102146
0.00108908
0.00114139
0.0011823
0.00121535
0.00124375
0.0012703
0.0012974
0.00132693
0.00136029
0.0013984
0.00144177
0.00149059
0.00154484
0.0016043
0.00166869
0.0017376
0.00181062
0.00188729
0.0019671
0.00204956
0.00213419
0.00222048
0.002308
0.0023963
0.00248501
0.00257376
0.00266224
0.00275018
0.00283733
0.00292348
0.00300845
0.0030921
0.00317429
0.00325493
0.00333392
0.0034112
0.0034867
0.00356041
0.00363227
0.00370229
0.00377046
0.00383676
0.00390122
0.00396383
0.00402462
0.0040836
0.00414078
0.0041962
0.00424986
0.00430181
0.00435205
0.00440061
0.00444751
0.00449278
0.00453643
0.00457847
0.00461894
0.00465784
0.00469518
0.004731
0.0047653
0.00479809
0.00482941
0.00485925
0.00488766
0.00491463
0.00494019
0.00496438
0.0049872
0.0050087
0.00502892
0.00504788
0.00506565
0.00508226
0.00509778
0.00511228
0.00512582
0.00513848
0.00515034
0.00516149
0.00517201
0.00518199
0.00519152
0.00520067
0.00520952
0.00521813
0.00522655
0.00523482
0.00524296
0.00525099
0.00525886
0.00526654
0.00527392
0.00528085
0.00528717
0.00529397
0.00529862
0.00530272
0.005305
0.00530543
0.00530375
0.00529964
0.00529283
0.00528306
0.00527011
0.00525378
0.00523391
0.00521042
0.00518328
0.0051525
0.00511821
0.00508057
0.00503981
0.00499621
0.00495006
0.00490162
0.00485121
0.00479915
0.00474576
0.00469136
0.00463624
0.00458069
0.00452497
0.0044693
0.00441385
0.00435878
0.00430426
0.00425043
0.00419745
0.00414545
0.00409455
0.00404485
0.0039964
0.00394927
0.00390347
0.00385904
0.00381598
0.00377432
0.00373403
0.0036951
0.0036575
0.00362117
0.00358605
0.0035521
0.00351927
0.0034875
0.00345675
0.00342698
0.00339813
0.00337018
0.00334309
0.00331689
0.00329163
0.00326756
0.0032446
0.00322262
0.0032015
0.00318112
0.00316138
0.00314222
0.0031236
0.00310541
0.0030877
0.00307032
0.00305334
0.00303674
0.00302058
0.00300483
0.00298945
0.00297439
0.00295938
0.00294563
0.00291479
0.000105996
0.000324453
0.000546788
0.000733793
0.000884257
0.00100484
0.00110101
0.0011768
0.00123696
0.00128553
0.00132612
0.00136191
0.00139566
0.0014297
0.00146586
0.00150551
0.00154958
0.0015986
0.00165276
0.00171202
0.00177618
0.0018449
0.00191779
0.00199441
0.00207429
0.00215698
0.00224201
0.00232894
0.00241735
0.00250683
0.00259703
0.0026876
0.00277826
0.00286874
0.0029588
0.00304822
0.00313683
0.00322445
0.00331094
0.00339619
0.00348007
0.00356251
0.0036434
0.00372267
0.00380028
0.00387618
0.00395034
0.00402274
0.00409336
0.00416217
0.00422917
0.00429435
0.0043577
0.00441922
0.00447891
0.00453678
0.00459281
0.00464702
0.0046994
0.00474995
0.00479867
0.00484556
0.00489061
0.00493382
0.00497519
0.00501471
0.00505238
0.0050882
0.00512217
0.00515428
0.00518454
0.00521295
0.00523952
0.00526426
0.00528718
0.00530831
0.00532767
0.0053453
0.00536124
0.00537553
0.00538823
0.00539942
0.00540915
0.00541752
0.00542461
0.00543052
0.00543537
0.00543925
0.00544228
0.00544459
0.00544629
0.00544751
0.00544836
0.00544896
0.00544944
0.0054499
0.00545041
0.00545104
0.00545182
0.00545273
0.0054537
0.005455
0.00545646
0.00545763
0.00545812
0.00545779
0.00545641
0.00545367
0.00544918
0.00544263
0.00543371
0.00542215
0.00540768
0.00539005
0.00536908
0.00534465
0.00531672
0.00528533
0.00525058
0.00521268
0.00517193
0.00512857
0.00508282
0.00503495
0.00498526
0.00493408
0.0048817
0.00482842
0.00477453
0.00472038
0.00466619
0.00461216
0.00455846
0.00450524
0.00445264
0.00440081
0.00434989
0.00430002
0.00425129
0.00420378
0.00415754
0.00411259
0.00406896
0.00402667
0.00398572
0.00394612
0.00390785
0.00387087
0.00383514
0.00380061
0.00376722
0.00373493
0.00370366
0.00367339
0.00364405
0.0036156
0.00358799
0.0035612
0.00353523
0.0035101
0.00348602
0.00346334
0.00344177
0.00342113
0.00340128
0.00338212
0.00336358
0.00334561
0.00332816
0.00331123
0.00329477
0.00327883
0.00326327
0.00324816
0.00323352
0.00321935
0.00320566
0.00319235
0.00317991
0.00315494
0.000114061
0.000342435
0.000575861
0.000773557
0.000933892
0.00106361
0.00116846
0.00125263
0.00132098
0.00137763
0.00142615
0.00146964
0.00151077
0.00155173
0.0015943
0.00163978
0.00168909
0.00174276
0.001801
0.00186382
0.00193103
0.00200234
0.00207737
0.00215574
0.00223701
0.00232079
0.00240665
0.00249421
0.00258312
0.00267302
0.0027636
0.00285458
0.00294571
0.0030368
0.00312766
0.00321809
0.00330789
0.00339694
0.00348508
0.00357222
0.00365824
0.00374304
0.00382648
0.00390848
0.00398897
0.00406792
0.00414528
0.00422101
0.00429509
0.00436745
0.00443807
0.00450691
0.00457396
0.00463918
0.00470256
0.00476407
0.00482369
0.00488139
0.00493716
0.00499096
0.00504277
0.00509257
0.00514033
0.00518603
0.00522964
0.00527113
0.00531049
0.00534768
0.00538269
0.00541551
0.0054461
0.00547446
0.00550059
0.00552448
0.00554613
0.00556556
0.00558278
0.00559783
0.00561073
0.00562154
0.00563031
0.00563711
0.00564202
0.00564514
0.00564656
0.0056464
0.00564479
0.00564185
0.00563772
0.00563258
0.00562655
0.0056198
0.00561249
0.00560482
0.00559705
0.00558929
0.00558173
0.00557452
0.00556779
0.00556167
0.00555604
0.00555165
0.00554787
0.0055444
0.00554116
0.00553797
0.00553462
0.0055309
0.00552615
0.00552009
0.0055124
0.00550274
0.00549075
0.00547609
0.00545849
0.00543773
0.00541366
0.00538625
0.0053555
0.00532151
0.00528474
0.00524535
0.00520345
0.00515927
0.00511309
0.00506521
0.00501594
0.00496549
0.00491419
0.00486249
0.00481063
0.00475882
0.00470724
0.00465602
0.00460531
0.00455526
0.00450603
0.00445776
0.00441057
0.00436454
0.00431971
0.00427611
0.00423378
0.00419274
0.004153
0.00411456
0.00407741
0.00404153
0.00400686
0.00397336
0.00394097
0.00390964
0.00387931
0.00384994
0.00382147
0.00379384
0.00376703
0.00374099
0.00371572
0.00369124
0.00366768
0.00364559
0.00362468
0.00360472
0.00358557
0.00356712
0.0035493
0.00353206
0.00351538
0.00349926
0.00348371
0.00346875
0.00345437
0.00344051
0.00342711
0.00341423
0.00340195
0.00339029
0.00337927
0.00335921
0.000119882
0.000354741
0.000596256
0.000802578
0.000971498
0.00110961
0.0012227
0.00131505
0.00139155
0.00145628
0.00151273
0.00156388
0.00161225
0.0016599
0.00170849
0.00175927
0.0018131
0.00187053
0.00193181
0.00199698
0.00206593
0.00213842
0.00221416
0.0022928
0.002374
0.0024574
0.00254267
0.00262948
0.00271755
0.00280659
0.00289628
0.00298633
0.00307647
0.00316691
0.0032574
0.00334768
0.00343756
0.0035269
0.00361558
0.00370353
0.00379067
0.00387698
0.00396203
0.00404577
0.00412818
0.00420923
0.0042889
0.00436714
0.00444391
0.0045191
0.00459265
0.00466453
0.00473468
0.00480307
0.00486965
0.00493437
0.0049972
0.00505807
0.00511694
0.00517375
0.00522845
0.00528101
0.00533136
0.00537947
0.00542529
0.00546876
0.00550984
0.00554848
0.00558465
0.0056183
0.0056494
0.00567791
0.00570382
0.0057271
0.00574774
0.00576574
0.0057811
0.00579385
0.005804
0.00581161
0.00581672
0.00581941
0.00581975
0.00581785
0.00581382
0.00580779
0.0057999
0.00579029
0.00577912
0.00576662
0.00575293
0.00573817
0.00572256
0.0057064
0.00569016
0.00567388
0.00565782
0.00564231
0.00562752
0.00561377
0.00560128
0.00559033
0.00558055
0.00557208
0.00556465
0.00555811
0.00555216
0.00554641
0.00554045
0.00553424
0.00552742
0.00551971
0.00551058
0.00549957
0.00548627
0.00547032
0.00545144
0.00542945
0.00540441
0.00537592
0.00534445
0.00531009
0.00527306
0.00523356
0.00519184
0.00514824
0.00510307
0.00505629
0.00500831
0.00495982
0.00491102
0.00486213
0.0048133
0.00476469
0.00471645
0.00466869
0.00462164
0.00457546
0.00453027
0.00448615
0.00444316
0.00440134
0.0043607
0.00432129
0.00428313
0.00424623
0.00421057
0.00417614
0.00414289
0.00411078
0.00407974
0.00404973
0.00402069
0.00399256
0.0039653
0.00393885
0.00391318
0.00388825
0.00386406
0.00384064
0.00381813
0.00379701
0.00377701
0.00375792
0.0037396
0.00372196
0.00370492
0.00368847
0.00367258
0.00365728
0.00364259
0.00362856
0.00361523
0.00360261
0.00359049
0.00357888
0.00356797
0.00355786
0.00354826
0.00353223
0.000123424
0.000361587
0.000608282
0.000821075
0.000997075
0.00114256
0.00126308
0.00136301
0.00144716
0.00151952
0.00158349
0.0016419
0.00169707
0.00175093
0.001805
0.00186044
0.00191809
0.00197847
0.00204188
0.00210842
0.00217804
0.00225059
0.00232585
0.00240357
0.00248346
0.00256524
0.00264863
0.0027333
0.00281943
0.00290662
0.00299449
0.00308267
0.00317085
0.0032596
0.00334854
0.00343749
0.00352628
0.00361482
0.00370298
0.0037907
0.00387792
0.0039646
0.00405005
0.00413445
0.00421779
0.00430002
0.00438113
0.00446108
0.00453992
0.0046173
0.00469316
0.00476748
0.00484025
0.00491135
0.00498073
0.00504835
0.0051141
0.00517792
0.00523973
0.00529943
0.00535697
0.00541226
0.00546525
0.00551585
0.005564
0.00560963
0.00565265
0.005693
0.00573062
0.00576545
0.00579742
0.00582649
0.00585261
0.00587573
0.00589584
0.0059129
0.00592692
0.00593788
0.00594582
0.00595075
0.00595272