/*--------------------------------*- C++ -*----------------------------------*\
  =========                 |
  \\      /  F ield         | OpenFOAM: The Open Source CFD Toolbox
   \\    /   O peration     | Website:  https://openfoam.org
    \\  /    A nd           | Version:  8
     \\/     M anipulation  |
\*---------------------------------------------------------------------------*/
FoamFile
{
    version     2.0;
    format      ascii;
    class       volScalarField;
    location    "80";
    object      p;
}
// * * * * * * * * * * * * * * * * * * * * * * * * * * * * * * * * * * * * * //

dimensions      [0 2 -2 0 0 0 0];

internalField   nonuniform List<scalar> 
12225
(
-1.96144
-4.14902
-5.24659
-5.5636
-5.74037
-5.90328
-6.02735
-6.11409
-6.18025
-6.23418
-6.27786
-6.31379
-6.3403
-6.35571
-6.35713
-6.33046
-6.29498
-6.09756
-5.12499
-5.89236
-6.05054
-5.95452
-5.93741
-5.99929
-6.06938
-6.12662
-6.17576
-6.21985
-6.2584
-6.29062
-6.31568
-6.33076
-6.33483
-6.3163
-6.29773
-6.21304
-5.52625
-5.51037
-5.63526
-5.70978
-5.80021
-5.91455
-6.01441
-6.09071
-6.15206
-6.2044
-6.249
-6.28581
-6.31493
-6.3343
-6.34432
-6.33858
-6.33857
-6.32259
-5.40446
-5.34661
-5.58553
-5.74034
-5.8377
-5.93809
-6.02852
-6.10006
-6.15853
-6.20912
-6.2529
-6.28958
-6.31939
-6.34104
-6.35589
-6.36214
-6.37704
-6.39981
-5.39439
-5.41778
-5.64339
-5.78159
-5.86071
-5.94695
-6.03108
-6.10048
-6.15806
-6.20831
-6.25234
-6.28991
-6.32141
-6.3465
-6.3671
-6.38434
-6.41121
-6.45362
-5.45273
-5.50068
-5.67266
-5.79303
-5.87012
-5.95231
-6.03349
-6.10197
-6.15935
-6.20961
-6.25408
-6.29279
-6.32628
-6.35492
-6.38093
-6.40686
-6.44221
-6.49356
-5.51359
-5.55689
-5.68977
-5.80256
-5.88219
-5.96088
-6.03812
-6.10507
-6.16205
-6.21223
-6.25712
-6.29706
-6.33266
-6.36469
-6.39543
-6.42784
-6.46875
-6.52293
-5.5678
-5.60451
-5.71221
-5.81716
-5.89631
-5.97063
-6.04358
-6.10882
-6.16537
-6.21553
-6.26092
-6.30215
-6.33985
-6.37496
-6.4096
-6.44666
-6.49082
-6.54508
-5.6184
-5.65061
-5.7394
-5.83421
-5.91061
-5.98097
-6.05002
-6.11343
-6.16943
-6.21956
-6.26548
-6.30796
-6.34758
-6.3853
-6.42302
-6.46319
-6.50899
-6.56186
-5.66651
-5.69488
-5.7684
-5.85265
-5.92536
-5.99228
-6.05779
-6.11914
-6.17438
-6.22442
-6.27081
-6.31438
-6.35566
-6.39549
-6.43549
-6.47758
-6.5238
-6.57469
-5.71211
-5.73679
-5.79812
-5.87261
-5.94103
-6.00464
-6.06685
-6.12604
-6.18034
-6.23019
-6.27693
-6.32141
-6.36404
-6.40553
-6.44711
-6.49018
-6.53609
-6.58476
-5.75154
-5.77309
-5.82556
-5.89202
-5.95617
-6.0167
-6.07605
-6.13327
-6.18664
-6.23622
-6.28313
-6.32814
-6.37172
-6.4143
-6.45682
-6.50022
-6.5454
-6.59213
-5.78829
-5.80722
-5.8525
-5.91178
-5.97166
-6.02923
-6.08588
-6.14114
-6.19357
-6.24287
-6.28979
-6.33514
-6.37927
-6.42265
-6.46574
-6.5092
-6.5535
-6.59838
-5.82726
-5.84374
-5.88246
-5.93466
-5.98983
-6.04421
-6.09799
-6.15102
-6.20231
-6.25129
-6.29825
-6.34366
-6.38808
-6.43188
-6.47538
-6.51868
-6.562
-6.605
-5.86738
-5.88158
-5.91461
-5.9602
-6.01045
-6.06147
-6.11244
-6.16306
-6.2129
-6.26144
-6.3084
-6.35376
-6.39808
-6.44182
-6.48532
-6.52831
-6.57068
-6.61202
-5.90689
-5.91912
-5.94741
-5.98736
-6.03284
-6.0805
-6.12884
-6.17722
-6.22536
-6.27316
-6.31995
-6.36532
-6.40925
-6.45258
-6.49553
-6.53809
-6.57956
-6.6197
-5.94309
-5.95376
-5.97849
-6.01407
-6.05552
-6.10005
-6.14618
-6.19273
-6.2393
-6.28602
-6.33249
-6.37774
-6.42143
-6.46405
-6.50625
-6.54804
-6.58889
-6.6281
-5.97177
-5.98146
-6.00395
-6.03676
-6.07555
-6.11785
-6.16244
-6.20788
-6.25341
-6.29921
-6.34521
-6.39032
-6.43384
-6.47592
-6.51739
-6.5584
-6.59865
-6.6373
-5.98603
-5.99552
-6.0175
-6.04969
-6.08801
-6.12989
-6.17421
-6.2196
-6.26516
-6.31086
-6.35674
-6.40184
-6.44538
-6.48732
-6.52843
-6.56897
-6.60875
-6.64701
-5.97637
-5.98668
-6.01045
-6.04509
-6.08598
-6.13003
-6.17604
-6.22284
-6.26975
-6.31651
-6.36313
-6.40864
-6.4526
-6.49488
-6.53636
-6.57694
-6.6166
-6.65459
-5.95405
-5.96549
-5.99221
-6.03108
-6.07613
-6.12354
-6.17214
-6.22126
-6.27009
-6.31845
-6.36589
-6.41203
-6.45635
-6.49938
-6.54126
-6.58227
-6.62172
-6.65972
-5.92224
-5.93478
-5.96577
-6.01143
-6.06232
-6.11353
-6.1651
-6.21703
-6.26845
-6.31862
-6.36718
-6.41386
-6.45881
-6.5024
-6.54486
-6.586
-6.62541
-6.66319
-5.88419
-5.89686
-5.93307
-5.98856
-6.04705
-6.10255
-6.15727
-6.21206
-6.26584
-6.31771
-6.36738
-6.41482
-6.46052
-6.50476
-6.54772
-6.5889
-6.62825
-6.6659
-5.84227
-5.85406
-5.89771
-5.96435
-6.02963
-6.09013
-6.14982
-6.20827
-6.26402
-6.31692
-6.36726
-6.41535
-6.46162
-6.50641
-6.54954
-6.59077
-6.62994
-6.66762
-5.79657
-5.8029
-5.86759
-5.94815
-6.01316
-6.07514
-6.14052
-6.20387
-6.26218
-6.31633
-6.3675
-6.41626
-6.46304
-6.50809
-6.55124
-6.59234
-6.63138
-6.6692
-5.75409
-5.71857
-5.83008
-5.94372
-6.00929
-6.06813
-6.13438
-6.19923
-6.25845
-6.31337
-6.36528
-6.41472
-6.46202
-6.50733
-6.55051
-6.59153
-6.63058
-6.6685
-5.76883
-5.61079
-5.74151
-5.89812
-5.99192
-6.06708
-6.13999
-6.20588
-6.26466
-6.31914
-6.37061
-6.41964
-6.4665
-6.51137
-6.55397
-6.59432
-6.63282
-6.67041
-5.89231
-5.7128
-5.7291
-5.80341
-5.89525
-5.99849
-6.09333
-6.17214
-6.23985
-6.30114
-6.35759
-6.41008
-6.45957
-6.50647
-6.55052
-6.59176
-6.63093
-6.6696
-5.59984
-6.19157
-6.28273
-6.16093
-6.10989
-6.14088
-6.19201
-6.24043
-6.28813
-6.3365
-6.38402
-6.42992
-6.47458
-6.51791
-6.55904
-6.59755
-6.634
-6.67115
-2.61063
-4.37481
-5.38133
-5.68322
-5.83579
-5.98306
-6.10114
-6.18732
-6.25778
-6.32085
-6.37801
-6.43046
-6.47977
-6.52663
-6.57051
-6.61064
-6.64708
-6.67907
-8.05795
-8.04819
-8.03787
-8.03913
-8.04523
-8.05463
-8.0683
-8.0846
-8.10147
-8.1172
-8.13023
-8.1411
-8.15028
-8.1587
-8.16714
-8.17528
-8.185
-8.20049
-8.22212
-8.24462
-8.26195
-8.27551
-8.29559
-8.32263
-8.35467
-8.39177
-8.4342
-8.4826
-8.53739
-8.59919
-8.6682
-8.74469
-8.82827
-8.91878
-9.01515
-9.11684
-9.22229
-9.3309
-9.44102
-9.55228
-9.6632
-9.77374
-9.88271
-9.99035
-10.0957
-10.1994
-10.3006
-10.4002
-10.4972
-10.5928
-10.6861
-10.7782
-10.8684
-10.9576
-11.0451
-11.1319
-11.2172
-11.3019
-11.3852
-11.4682
-11.5499
-11.631
-11.7106
-11.7895
-11.8663
-11.9419
-12.0148
-12.0856
-12.1526
-12.2161
-12.2745
-12.3275
-12.3737
-12.4129
-12.4435
-12.4654
-12.4766
-12.4766
-12.4635
-12.4366
-12.3936
-12.3334
-12.2535
-12.1525
-12.0274
-11.8761
-11.6951
-11.4814
-11.2321
-10.9457
-10.622
-10.2599
-9.85786
-9.41449
-8.92879
-8.40032
-7.82905
-7.21563
-6.56121
-5.8677
-5.13746
-4.37355
-3.57954
-2.7596
-1.91841
-1.06108
-0.193029
0.68016
1.55279
2.41928
3.27415
4.11233
4.92907
5.72025
6.48219
7.21193
7.90699
8.56563
9.18679
9.77007
10.3154
10.8231
11.2936
11.7278
12.1273
12.4937
12.8291
13.1358
13.416
13.6723
13.9069
14.1206
14.3146
14.4902
14.6489
14.7921
14.9212
15.0376
15.1426
15.2374
15.323
15.4004
15.4703
15.5336
15.5908
15.6429
15.6904
15.7338
15.7735
15.81
15.8436
15.8748
15.9038
15.9309
15.9562
15.9799
16.0023
16.0235
16.0436
16.0627
16.0808
16.0981
16.1146
16.1305
16.1456
16.16
16.1739
16.1874
16.2003
16.2132
16.2262
16.2392
16.2533
16.2696
16.2893
16.3153
16.3539
16.4114
16.5129
16.6487
-8.06342
-8.05662
-8.05212
-8.05668
-8.06759
-8.08166
-8.09639
-8.11046
-8.12207
-8.13117
-8.13835
-8.14356
-8.14702
-8.14941
-8.15076
-8.15249
-8.1566
-8.16498
-8.17662
-8.18855
-8.19964
-8.21323
-8.23188
-8.25447
-8.2814
-8.31334
-8.35133
-8.39629
-8.44896
-8.51004
-8.57983
-8.65844
-8.74532
-8.83972
-8.94024
-9.04578
-9.15474
-9.26609
-9.37838
-9.49091
-9.60258
-9.71308
-9.82165
-9.92834
-10.0326
-10.1348
-10.2346
-10.3323
-10.4278
-10.5216
-10.6134
-10.7038
-10.7926
-10.8802
-10.9665
-11.052
-11.1363
-11.2199
-11.3026
-11.3847
-11.466
-11.5466
-11.6262
-11.7051
-11.7826
-11.8589
-11.9332
-12.0056
-12.075
-12.1411
-12.203
-12.26
-12.3109
-12.3552
-12.3916
-12.4192
-12.4365
-12.4426
-12.4357
-12.4146
-12.3773
-12.3223
-12.2476
-12.1513
-12.0312
-11.8853
-11.7109
-11.5055
-11.2664
-10.9922
-10.682
-10.3342
-9.94719
-9.51941
-9.0498
-8.53779
-7.98319
-7.38643
-6.74841
-6.07079
-5.3557
-4.60607
-3.82514
-3.01701
-2.18603
-1.33731
-0.476
0.392254
1.26197
2.12736
2.9831
3.82386
4.64495
5.44192
6.21111
6.9492
7.65367
8.32247
8.95442
9.54885
10.1056
10.6247
11.1066
11.5522
11.9626
12.3395
12.6849
13.0006
13.2889
13.5517
13.7915
14.0103
14.2095
14.3904
14.5543
14.7027
14.8368
14.9582
15.0679
15.1672
15.257
15.3384
15.4121
15.4788
15.5395
15.5947
15.6452
15.6913
15.7334
15.7723
15.8082
15.8415
15.8724
15.9012
15.9281
15.9534
15.9771
15.9996
16.0209
16.041
16.0602
16.0784
16.0958
16.1124
16.1281
16.1433
16.1578
16.1718
16.1855
16.1987
16.2119
16.2257
16.2406
16.2573
16.2777
16.3037
16.3402
16.3922
16.4833
16.5957
-8.07212
-8.06877
-8.06621
-8.06991
-8.07867
-8.08942
-8.10023
-8.10996
-8.11769
-8.12305
-8.12613
-8.12735
-8.12713
-8.12613
-8.12495
-8.12449
-8.1256
-8.12884
-8.13355
-8.13909
-8.14534
-8.15416
-8.16835
-8.18914
-8.21747
-8.25392
-8.29863
-8.35162
-8.41273
-8.48176
-8.55829
-8.64184
-8.73155
-8.82655
-8.92578
-9.02846
-9.13342
-9.23995
-9.34702
-9.45415
-9.56053
-9.66592
-9.76974
-9.87199
-9.97229
-10.0708
-10.1673
-10.2621
-10.3549
-10.4463
-10.536
-10.6245
-10.7117
-10.7978
-10.8829
-10.9673
-11.0507
-11.1336
-11.2158
-11.2975
-11.3785
-11.4589
-11.5385
-11.6174
-11.6952
-11.7719
-11.8469
-11.9202
-11.9909
-12.0588
-12.1229
-12.1828
-12.2374
-12.2859
-12.3274
-12.3606
-12.3844
-12.3974
-12.3981
-12.385
-12.3562
-12.3101
-12.2445
-12.1577
-12.0473
-11.9116
-11.7483
-11.5549
-11.3289
-11.0688
-10.7736
-10.4416
-10.0708
-9.6598
-9.20748
-8.71302
-8.17627
-7.5973
-6.97702
-6.31663
-5.61819
-4.88426
-4.11802
-3.32331
-2.50434
-1.66603
-0.813345
0.0481127
0.912977
1.77542
2.63018
3.47176
4.29549
5.09664
5.87149
6.61645
7.32887
8.00648
8.648
9.25249
9.81971
10.3495
10.8425
11.2992
11.7213
12.1101
12.4675
12.7954
13.0958
13.3707
13.6223
13.8522
14.0618
14.2524
14.4256
14.5826
14.725
14.8539
14.9706
15.0764
15.1724
15.2594
15.3383
15.41
15.4751
15.5344
15.5886
15.6382
15.6837
15.7257
15.7644
15.8001
15.8333
15.8642
15.8931
15.9202
15.9457
15.9697
15.9924
16.0138
16.0342
16.0535
16.0718
16.0893
16.1059
16.1219
16.137
16.1517
16.1659
16.1798
16.1936
16.208
16.2233
16.2403
16.2607
16.2864
16.3211
16.3679
16.4435
16.5188
-8.06951
-8.07326
-8.07471
-8.07893
-8.0863
-8.09445
-8.10185
-8.10791
-8.11211
-8.11424
-8.11428
-8.11262
-8.1097
-8.10625
-8.10296
-8.10062
-8.09984
-8.10117
-8.10472
-8.11079
-8.1199
-8.13331
-8.15241
-8.17817
-8.21119
-8.25199
-8.30072
-8.35739
-8.42167
-8.49316
-8.57119
-8.65512
-8.74404
-8.83724
-8.93377
-9.03296
-9.13384
-9.23588
-9.33823
-9.44054
-9.54214
-9.64286
-9.74222
-9.84024
-9.93659
-10.0314
-10.1245
-10.2162
-10.3063
-10.3951
-10.4825
-10.569
-10.6544
-10.7391
-10.823
-10.9064
-10.9893
-11.0718
-11.1538
-11.2356
-11.317
-11.398
-11.4784
-11.5583
-11.6373
-11.7154
-11.792
-11.867
-11.9398
-12.01
-12.0768
-12.1396
-12.1977
-12.2502
-12.296
-12.3342
-12.3634
-12.3824
-12.3897
-12.3837
-12.3627
-12.3247
-12.2679
-12.1901
-12.0894
-11.9638
-11.8111
-11.629
-11.4147
-11.1672
-10.8848
-10.5658
-10.2083
-9.81061
-9.37164
-8.89058
-8.36701
-7.8011
-7.19342
-6.54519
-5.85816
-5.13476
-4.37809
-3.59182
-2.78021
-1.9479
-1.09999
-0.241795
0.62108
1.48304
2.33856
3.18228
4.00922
4.81475
5.59482
6.34584
7.06492
7.74981
8.39901
9.01154
9.587
10.1253
10.6269
11.0927
11.5242
11.9226
12.2899
12.6278
12.938
13.2226
13.4833
13.7217
13.9393
14.1376
14.318
14.4818
14.6305
14.7655
14.8879
14.9991
15.1
15.1916
15.2748
15.3504
15.4193
15.482
15.5394
15.5919
15.6402
15.6846
15.7255
15.7634
15.7985
15.8313
15.8619
15.8905
15.9174
15.9427
15.9665
15.989
16.0103
16.0305
16.0497
16.0679
16.0853
16.1019
16.1177
16.1328
16.1475
16.1617
16.176
16.1906
16.2059
16.2228
16.2427
16.267
16.2987
16.3382
16.3965
16.4401
-8.04074
-8.05168
-8.05937
-8.06628
-8.07439
-8.08225
-8.08863
-8.09323
-8.09588
-8.09661
-8.09554
-8.09308
-8.08974
-8.08627
-8.08336
-8.08177
-8.08212
-8.08506
-8.09108
-8.10083
-8.115
-8.13449
-8.16004
-8.19225
-8.23136
-8.27759
-8.33086
-8.3911
-8.45791
-8.53088
-8.60936
-8.69274
-8.78018
-8.87103
-8.96444
-9.05985
-9.15646
-9.25386
-9.35137
-9.44872
-9.54539
-9.64127
-9.73597
-9.82955
-9.92171
-10.0126
-10.1021
-10.1905
-10.2775
-10.3636
-10.4486
-10.5329
-10.6165
-10.6995
-10.7821
-10.8645
-10.9466
-11.0286
-11.1105
-11.1925
-11.2742
-11.356
-11.4375
-11.5187
-11.5994
-11.6794
-11.7582
-11.8357
-11.9113
-11.9845
-12.0548
-12.1214
-12.1836
-12.2406
-12.2914
-12.3349
-12.37
-12.3953
-12.4093
-12.4106
-12.3974
-12.3678
-12.3198
-12.2514
-12.1605
-12.0451
-11.903
-11.7317
-11.5288
-11.2924
-11.0215
-10.7138
-10.3673
-9.98038
-9.5518
-9.08073
-8.56656
-8.00945
-7.40979
-6.76876
-6.08799
-5.3698
-4.61727
-3.83395
-3.02424
-2.1926
-1.34437
-0.484666
0.380567
1.24596
2.10554
2.9542
3.78647
4.59798
5.38418
6.1417
6.86734
7.55907
8.2151
8.83468
9.41705
9.96247
10.4712
10.9444
11.383
11.7888
12.163
12.5078
12.8246
13.1156
13.3822
13.6262
13.8491
14.0524
14.2375
14.4059
14.559
14.698
14.8244
14.9393
15.0437
15.1386
15.2248
15.3034
15.3749
15.4402
15.5
15.5547
15.6049
15.6512
15.6939
15.7334
15.7701
15.8042
15.8361
15.8659
15.8938
15.9201
15.9448
15.9682
15.9902
16.0111
16.031
16.0498
16.0677
16.0847
16.1009
16.1165
16.1314
16.1459
16.1602
16.1747
16.1898
16.2062
16.225
16.2471
16.2745
16.306
16.3487
16.3671
-7.98627
-8.00561
-8.02264
-8.03462
-8.0454
-8.05475
-8.06184
-8.06664
-8.06929
-8.07011
-8.06939
-8.06765
-8.06551
-8.06372
-8.06301
-8.06416
-8.06783
-8.07467
-8.0853
-8.10036
-8.12043
-8.1462
-8.17811
-8.21653
-8.2615
-8.31301
-8.37075
-8.43445
-8.50359
-8.57774
-8.65624
-8.73859
-8.82407
-8.91217
-9.00216
-9.09365
-9.18596
-9.2788
-9.37161
-9.46422
-9.5562
-9.64751
-9.73781
-9.82719
-9.91541
-10.0027
-10.0888
-10.174
-10.2582
-10.3418
-10.4246
-10.5069
-10.5888
-10.6705
-10.7519
-10.8335
-10.915
-10.9968
-11.0787
-11.161
-11.2434
-11.3262
-11.4089
-11.4918
-11.5744
-11.6567
-11.7382
-11.8187
-11.8977
-11.9747
-12.0491
-12.1203
-12.1875
-12.2498
-12.3063
-12.3559
-12.3975
-12.4298
-12.4513
-12.4604
-12.4555
-12.4346
-12.3959
-12.3372
-12.2564
-12.1513
-12.0199
-11.8594
-11.6672
-11.442
-11.1818
-10.8846
-10.5481
-10.1707
-9.75112
-9.28819
-8.78143
-8.23069
-7.63642
-6.99959
-6.32183
-5.60546
-4.85344
-4.06949
-3.25779
-2.42318
-1.57076
-0.706139
0.164973
1.03668
1.90322
2.75897
3.59866
4.41745
5.21099
5.97558
6.70828
7.40688
8.06979
8.69607
9.28517
9.83711
10.3523
10.8317
11.2764
11.6879
12.0677
12.4176
12.7393
13.0347
13.3055
13.5534
13.78
13.9868
14.1753
14.3469
14.503
14.645
14.7742
14.8917
14.9986
15.0959
15.1844
15.2651
15.3386
15.4059
15.4674
15.5238
15.5756
15.6233
15.6673
15.7081
15.746
15.7813
15.8141
15.8449
15.8737
15.9007
15.9262
15.9502
15.9729
15.9944
16.0147
16.034
16.0523
16.0697
16.0862
16.102
16.1171
16.1317
16.146
16.1603
16.1749
16.1904
16.2075
16.2268
16.2493
16.2729
16.3021
16.3002
-7.91452
-7.94293
-7.97048
-7.98873
-8.00327
-8.01522
-8.02425
-8.03057
-8.03458
-8.03681
-8.0378
-8.03816
-8.03861
-8.03992
-8.04286
-8.04817
-8.05653
-8.06857
-8.08484
-8.10584
-8.13206
-8.16388
-8.20155
-8.24526
-8.2949
-8.35036
-8.41123
-8.4772
-8.54768
-8.62228
-8.70034
-8.78143
-8.8649
-8.95037
-9.03721
-9.12512
-9.21356
-9.30232
-9.39094
-9.47933
-9.56712
-9.65434
-9.74069
-9.82631
-9.91099
-9.99494
-10.078
-10.1604
-10.2422
-10.3235
-10.4044
-10.4851
-10.5656
-10.6463
-10.7269
-10.808
-10.8893
-10.9712
-11.0535
-11.1365
-11.22
-11.304
-11.3885
-11.4733
-11.5583
-11.6433
-11.728
-11.812
-11.8949
-11.9762
-12.0553
-12.1317
-12.2044
-12.2728
-12.3357
-12.3922
-12.441
-12.4809
-12.5104
-12.528
-12.5318
-12.5202
-12.4911
-12.4423
-12.3717
-12.2772
-12.1564
-12.0065
-11.8252
-11.6105
-11.3607
-11.0733
-10.7462
-10.3776
-9.96588
-9.50994
-9.00923
-8.46332
-7.87266
-7.23807
-6.56117
-5.84434
-5.09044
-4.30333
-3.48711
-2.64691
-1.78779
-0.915767
-0.0364715
0.84368
1.71906
2.58352
3.43198
4.25912
5.06082
5.83315
6.57343
7.27924
7.94927
8.58224
9.17788
9.73581
10.2569
10.7416
11.1915
11.6076
11.992
12.3459
12.6715
12.9703
13.2444
13.4952
13.7246
13.934
14.1249
14.2989
14.4573
14.6016
14.7329
14.8524
14.9612
15.0603
15.1506
15.2329
15.308
15.3767
15.4396
15.4973
15.5503
15.5992
15.6443
15.6862
15.725
15.7611
15.7948
15.8264
15.8559
15.8837
15.9098
15.9344
15.9576
15.9796
16.0004
16.0201
16.0387
16.0564
16.0731
16.0891
16.1043
16.1189
16.133
16.1469
16.1608
16.1751
16.1902
16.2064
16.2239
16.2398
16.2575
16.2391
-7.83795
-7.87404
-7.91132
-7.93579
-7.95435
-7.96938
-7.98102
-7.98966
-7.99591
-8.00048
-8.00408
-8.00745
-8.01135
-8.01655
-8.02383
-8.03387
-8.04735
-8.06476
-8.08663
-8.1133
-8.14508
-8.18218
-8.2247
-8.27264
-8.32583
-8.38409
-8.44698
-8.51421
-8.58518
-8.65956
-8.73671
-8.8163
-8.89773
-8.98069
-9.06463
-9.14935
-9.23436
-9.31954
-9.4045
-9.48921
-9.57336
-9.65702
-9.73994
-9.8223
-9.9039
-9.98498
-10.0654
-10.1455
-10.2251
-10.3047
-10.384
-10.4634
-10.5429
-10.6229
-10.7031
-10.7841
-10.8656
-10.948
-11.0311
-11.1152
-11.2001
-11.286
-11.3725
-11.4599
-11.5477
-11.636
-11.7242
-11.8122
-11.8995
-11.9857
-12.0701
-12.1522
-12.2311
-12.306
-12.376
-12.4399
-12.4965
-12.5446
-12.5827
-12.6092
-12.6223
-12.6203
-12.6011
-12.5626
-12.5024
-12.4184
-12.3083
-12.1692
-11.9983
-11.794
-11.5541
-11.2763
-10.9579
-10.5973
-10.1927
-9.74298
-9.24715
-8.70493
-8.11647
-7.48262
-6.80498
-6.08586
-5.32833
-4.53604
-3.71348
-2.86563
-1.99806
-1.11666
-0.227682
0.662627
1.54803
2.42255
3.28061
4.11711
4.9276
5.70842
6.45674
7.17028
7.84744
8.48706
9.08865
9.65219
10.1783
10.6677
11.1219
11.5421
11.93
12.2873
12.6158
12.9175
13.194
13.4471
13.6787
13.89
14.0829
14.2587
14.4189
14.5649
14.6978
14.8189
14.9293
15.0298
15.1214
15.205
15.2814
15.3513
15.4153
15.474
15.5281
15.5779
15.624
15.6666
15.7062
15.7431
15.7776
15.8098
15.84
15.8684
15.895
15.9202
15.9439
15.9663
15.9875
16.0075
16.0265
16.0444
16.0614
16.0774
16.0926
16.1071
16.1209
16.1343
16.1474
16.1603
16.1733
16.1861
16.1987
16.2075
16.2153
16.1837
-7.76724
-7.8085
-7.85338
-7.88308
-7.90531
-7.92331
-7.93761
-7.94879
-7.95761
-7.96491
-7.97152
-7.9782
-7.98577
-7.99494
-8.0065
-8.02103
-8.03917
-8.06134
-8.08796
-8.11927
-8.1555
-8.19669
-8.24285
-8.29388
-8.34953
-8.4096
-8.47364
-8.54137
-8.61224
-8.68595
-8.76193
-8.83989
-8.91928
-8.99988
-9.08119
-9.16306
-9.24507
-9.32716
-9.40899
-9.49057
-9.57164
-9.65231
-9.73236
-9.81198
-9.89103
-9.96976
-10.0481
-10.1262
-10.2042
-10.2823
-10.3605
-10.439
-10.518
-10.5976
-10.6778
-10.759
-10.8412
-10.9244
-11.0088
-11.0944
-11.1811
-11.2692
-11.3584
-11.4486
-11.5398
-11.6317
-11.724
-11.8165
-11.9087
-12.0002
-12.0904
-12.1787
-12.2642
-12.3462
-12.4236
-12.4954
-12.5604
-12.6171
-12.6642
-12.7
-12.7228
-12.7308
-12.7218
-12.6937
-12.6442
-12.571
-12.4716
-12.3431
-12.1827
-11.9886
-11.7584
-11.4896
-11.1797
-10.8266
-10.4285
-9.98414
-9.49236
-8.95279
-8.36544
-7.73109
-7.0514
-6.32857
-5.56589
-4.76691
-3.93647
-3.07946
-2.20199
-1.30987
-0.409938
0.491653
1.38808
2.27357
3.14201
3.98857
4.80852
5.59846
6.35513
7.07648
7.7605
8.40644
9.01347
9.58209
10.1125
10.6061
11.0637
11.4872
11.878
12.238
12.5688
12.8727
13.1511
13.4061
13.6392
13.8522
14.0466
14.2239
14.3855
14.5328
14.6671
14.7895
14.9011
15.0028
15.0956
15.1802
15.2576
15.3285
15.3935
15.4531
15.508
15.5587
15.6055
15.6489
15.6892
15.7267
15.7618
15.7946
15.8254
15.8543
15.8815
15.9071
15.9313
15.9541
15.9757
15.9961
16.0153
16.0335
16.0507
16.0668
16.082
16.0963
16.1098
16.1225
16.1346
16.146
16.1568
16.1663
16.1741
16.1763
16.1757
16.1334
-7.7097
-7.75353
-7.80314
-7.83637
-7.86128
-7.88167
-7.89823
-7.91169
-7.92293
-7.93285
-7.94232
-7.95211
-7.96302
-7.97572
-7.99094
-8.00919
-8.03107
-8.0569
-8.08707
-8.12173
-8.16102
-8.20493
-8.2534
-8.30627
-8.36328
-8.4242
-8.48859
-8.55618
-8.62647
-8.69918
-8.77377
-8.85004
-8.92746
-9.00587
-9.08481
-9.16417
-9.2436
-9.32306
-9.40225
-9.48124
-9.55978
-9.638
-9.71573
-9.79317
-9.87021
-9.9471
-10.0238
-10.1006
-10.1773
-10.2545
-10.3319
-10.41
-10.4887
-10.5684
-10.6491
-10.7309
-10.814
-10.8985
-10.9844
-11.0719
-11.1609
-11.2515
-11.3436
-11.4372
-11.5321
-11.6281
-11.7249
-11.8223
-11.9198
-12.0171
-12.1134
-12.2083
-12.3009
-12.3903
-12.4756
-12.5556
-12.6292
-12.6949
-12.7513
-12.7967
-12.8295
-12.8476
-12.8491
-12.8316
-12.7929
-12.7305
-12.6419
-12.524
-12.374
-12.1897
-11.9691
-11.7091
-11.4071
-11.061
-10.6689
-10.2291
-9.7407
-9.20286
-8.61564
-7.97981
-7.2969
-6.56934
-5.80021
-4.9935
-4.15386
-3.28678
-2.39821
-1.49464
-0.582721
0.330697
1.239
2.13589
3.01547
3.87245
4.70232
5.50134
6.26638
6.99511
7.68576
8.33734
8.94944
9.52237
10.0567
10.5536
11.0142
11.4402
11.8333
12.1953
12.528
12.8335
13.1135
13.3699
13.6043
13.8186
14.0141
14.1926
14.3554
14.5039
14.6393
14.7628
14.8754
14.9781
15.0718
15.1574
15.2357
15.3074
15.3732
15.4337
15.4894
15.5407
15.5883
15.6323
15.6733
15.7114
15.747
15.7804
15.8117
15.8411
15.8688
15.8949
15.9195
15.9428
15.9648
15.9855
16.0051
16.0235
16.0408
16.057
16.0721
16.0862
16.0993
16.1114
16.1224
16.1322
16.1407
16.147
16.1503
16.1465
16.1386
16.0878
-7.66914
-7.71378
-7.76421
-7.79907
-7.82542
-7.8472
-7.86528
-7.88041
-7.89352
-7.90552
-7.91729
-7.92955
-7.94308
-7.95847
-7.97641
-7.99733
-8.02179
-8.05005
-8.08246
-8.11909
-8.1601
-8.2054
-8.25493
-8.30849
-8.36584
-8.42672
-8.49073
-8.55761
-8.62687
-8.69828
-8.77134
-8.84586
-8.92137
-8.99774
-9.07455
-9.15172
-9.22894
-9.30619
-9.38321
-9.46007
-9.53658
-9.61287
-9.6888
-9.76457
-9.84012
-9.9157
-9.99124
-10.0671
-10.1431
-10.2197
-10.2969
-10.3749
-10.4538
-10.534
-10.6153
-10.6982
-10.7826
-10.8687
-10.9565
-11.0462
-11.1377
-11.2313
-11.3266
-11.4239
-11.5227
-11.6231
-11.7248
-11.8274
-11.9306
-12.0339
-12.1367
-12.2385
-12.3384
-12.4355
-12.5289
-12.6174
-12.6998
-12.7747
-12.8406
-12.8957
-12.9385
-12.9668
-12.9788
-12.9719
-12.9439
-12.8923
-12.8143
-12.7069
-12.5669
-12.3924
-12.1807
-11.929
-11.6345
-11.2948
-10.908
-10.4722
-9.98629
-9.4494
-8.8615
-8.22336
-7.53643
-6.8033
-6.02698
-5.21178
-4.36232
-3.48457
-2.58444
-1.66897
-0.744671
0.181009
1.10162
2.01021
2.90109
3.76854
4.60824
5.41602
6.18905
6.92456
7.62125
8.27778
8.89434
9.47086
10.0084
10.5079
10.9709
11.3988
11.7937
12.1571
12.4913
12.7979
13.0791
13.3365
13.5721
13.7873
13.9839
14.1634
14.3272
14.4766
14.613
14.7375
14.851
14.9546
15.0492
15.1357
15.2149
15.2874
15.354
15.4152
15.4716
15.5237
15.5718
15.6165
15.6581
15.6968
15.733
15.7669
15.7987
15.8286
15.8567
15.8833
15.9084
15.9321
15.9545
15.9756
15.9954
16.0141
16.0315
16.0478
16.0629
16.0768
16.0894
16.1008
16.1107
16.119
16.1252
16.1283
16.1275
16.1182
16.1041
16.0463
-7.64677
-7.69027
-7.73819
-7.77257
-7.799
-7.82102
-7.83959
-7.85547
-7.8696
-7.88284
-7.89605
-7.90987
-7.92504
-7.94207
-7.96161
-7.98403
-8.00985
-8.03928
-8.07265
-8.11001
-8.1515
-8.19703
-8.24652
-8.2998
-8.3566
-8.41669
-8.47969
-8.54536
-8.61324
-8.68312
-8.75452
-8.82727
-8.90093
-8.9754
-9.05029
-9.12556
-9.2009
-9.27631
-9.35157
-9.42675
-9.50169
-9.57653
-9.65117
-9.72579
-9.80033
-9.87504
-9.94989
-10.0252
-10.1009
-10.1773
-10.2546
-10.3329
-10.4124
-10.4934
-10.5758
-10.6599
-10.7459
-10.8338
-10.9238
-11.016
-11.1104
-11.2071
-11.3059
-11.407
-11.5102
-11.6152
-11.7219
-11.8299
-11.939
-12.0485
-12.1581
-12.2669
-12.3742
-12.4792
-12.5809
-12.6779
-12.7692
-12.8532
-12.9285
-12.9934
-13.046
-13.0844
-13.1065
-13.1101
-13.0925
-13.0513
-12.9836
-12.886
-12.7558
-12.5902
-12.387
-12.143
-11.8553
-11.5215
-11.1393
-10.7069
-10.2229
-9.68646
-9.09741
-8.45646
-7.76527
-7.02619
-6.2426
-5.41863
-4.5594
-3.67065
-2.75893
-1.83112
-0.894432
0.0438802
0.976657
1.8971
2.79895
3.6767
4.52563
5.34173
6.12188
6.86362
7.56537
8.22629
8.84636
9.4259
9.96584
10.4673
10.9319
11.3613
11.7573
12.1218
12.4569
12.7645
13.0465
13.3047
13.5411
13.7572
13.9546
14.135
14.2997
14.4501
14.5874
14.7127
14.8271
14.9316
15.0271
15.1144
15.1944
15.2677
15.3351
15.3971
15.4542
15.5069
15.5558
15.6011
15.6433
15.6826
15.7193
15.7538
15.7861
15.8165
15.8451
15.8722
15.8977
15.9219
15.9447
15.9661
15.9863
16.0052
16.0228
16.0391
16.0542
16.0679
16.0801
16.0908
16.0996
16.1063
16.1103
16.1104
16.1057
16.0917
16.0721
16.0086
-7.64082
-7.681
-7.7241
-7.75622
-7.7814
-7.80245
-7.82039
-7.836
-7.85017
-7.86367
-7.87731
-7.89166
-7.9074
-7.92497
-7.94498
-7.96775
-7.99378
-8.02322
-8.05644
-8.09344
-8.13439
-8.17918
-8.22778
-8.27998
-8.33556
-8.39429
-8.45581
-8.5199
-8.58614
-8.65432
-8.72399
-8.79498
-8.86689
-8.93963
-9.01284
-9.08647
-9.16023
-9.23415
-9.30801
-9.38188
-9.45563
-9.5294
-9.6031
-9.67693
-9.75081
-9.82501
-9.8995
-9.97462
-10.0503
-10.127
-10.2047
-10.2837
-10.364
-10.446
-10.5296
-10.6153
-10.7031
-10.7931
-10.8854
-10.9803
-11.0776
-11.1777
-11.2802
-11.3854
-11.4929
-11.6027
-11.7145
-11.8282
-11.9432
-12.0591
-12.1753
-12.2913
-12.4061
-12.5189
-12.6287
-12.7342
-12.8342
-12.9272
-13.0117
-13.0859
-13.148
-13.1961
-13.2281
-13.2415
-13.2338
-13.2025
-13.1444
-13.0563
-12.9349
-12.7779
-12.5825
-12.3457
-12.0645
-11.7361
-11.3583
-10.929
-10.4468
-9.91055
-9.32025
-8.67643
-7.98084
-7.23571
-6.44469
-5.6118
-4.74256
-3.84266
-2.91919
-1.97896
-1.02988
-0.0790872
0.865561
1.79739
2.70965
3.597
4.45429
5.27783
6.06405
6.81104
7.51686
8.18131
8.80396
9.38574
9.92721
10.4301
10.8956
11.3259
11.7225
12.0878
12.4234
12.7316
13.0142
13.2731
13.5101
13.727
13.9252
14.1065
14.272
14.4233
14.5615
14.6877
14.803
14.9084
15.0048
15.093
15.1738
15.248
15.3161
15.3789
15.4368
15.4902
15.5398
15.5858
15.6286
15.6685
15.7059
15.7409
15.7737
15.8047
15.8339
15.8614
15.8875
15.912
15.9352
15.9571
15.9775
15.9967
16.0145
16.0309
16.0459
16.0594
16.0712
16.0812
16.089
16.0942
16.096
16.0934
16.0851
16.0668
16.0426
15.9744
-7.64749
-7.683
-7.71995
-7.74842
-7.77114
-7.79015
-7.80641
-7.8207
-7.83384
-7.84652
-7.85948
-7.87326
-7.88848
-7.90552
-7.92497
-7.94707
-7.9723
-8.00082
-8.03296
-8.06875
-8.10837
-8.15171
-8.19874
-8.24928
-8.30312
-8.36004
-8.4197
-8.48192
-8.54627
-8.61258
-8.68042
-8.74966
-8.8199
-8.89105
-8.96275
-9.03497
-9.10742
-9.18013
-9.25287
-9.32574
-9.39858
-9.47156
-9.54457
-9.61784
-9.69131
-9.76524
-9.83961
-9.91477
-9.99068
-10.0677
-10.1459
-10.2256
-10.3069
-10.39
-10.4751
-10.5625
-10.6521
-10.7443
-10.8391
-10.9368
-11.0373
-11.1407
-11.2471
-11.3564
-11.4684
-11.5831
-11.7003
-11.8196
-11.9406
-12.0629
-12.186
-12.3091
-12.4315
-12.5521
-12.67
-12.7839
-12.8924
-12.9943
-13.0876
-13.171
-13.2423
-13.2998
-13.3411
-13.3641
-13.3659
-13.3439
-13.2951
-13.2157
-13.1029
-12.9539
-12.766
-12.536
-12.2607
-11.9372
-11.5633
-11.1366
-10.6556
-10.1191
-9.52693
-8.87978
-8.17913
-7.42756
-6.62851
-5.78653
-4.90695
-3.99606
-3.06074
-2.10855
-1.14726
-0.184781
0.77116
1.71327
2.63497
3.53053
4.395
5.22437
6.01546
6.76611
7.47495
8.14156
8.76594
9.34881
9.89115
10.3945
10.8604
11.2909
11.6879
12.0534
12.3894
12.698
12.981
13.2405
13.4781
13.6956
13.8947
14.0767
14.2432
14.3954
14.5345
14.6617
14.778
14.8843
14.9816
15.0708
15.1525
15.2276
15.2967
15.3603
15.419
15.4732
15.5235
15.5703
15.6138
15.6544
15.6924
15.728
15.7615
15.793
15.8228
15.8509
15.8774
15.9025
15.9261
15.9483
15.9691
15.9885
16.0066
16.0231
16.0381
16.0514
16.0628
16.0721
16.0789
16.0827
16.0826
16.0774
16.0658
16.0438
16.0154
15.9435
-7.66278
-7.69278
-7.7229
-7.7468
-7.76608
-7.7821
-7.79576
-7.80782
-7.819
-7.8299
-7.84122
-7.8534
-7.86709
-7.8826
-7.9005
-7.921
-7.94458
-7.97135
-8.00169
-8.03557
-8.07319
-8.11443
-8.1593
-8.20759
-8.25915
-8.31378
-8.37122
-8.43125
-8.49351
-8.55783
-8.62382
-8.69132
-8.75995
-8.82959
-8.89993
-8.97088
-9.04222
-9.1139
-9.18576
-9.25784
-9.33003
-9.40244
-9.47503
-9.54795
-9.62121
-9.69503
-9.76944
-9.84472
-9.92094
-9.99842
-10.0772
-10.1578
-10.24
-10.3244
-10.4109
-10.5
-10.5916
-10.6861
-10.7835
-10.8839
-10.9876
-11.0945
-11.2047
-11.3182
-11.4349
-11.5547
-11.6772
-11.8023
-11.9295
-12.0583
-12.1883
-12.3186
-12.4485
-12.5769
-12.703
-12.8251
-12.9422
-13.0526
-13.1548
-13.2469
-13.3272
-13.3935
-13.444
-13.4758
-13.4866
-13.4734
-13.433
-13.3617
-13.2567
-13.1149
-12.9337
-12.7095
-12.4391
-12.1197
-11.7485
-11.3234
-10.8425
-10.3049
-9.71007
-9.05893
-8.35284
-7.59459
-6.78752
-5.93655
-5.04688
-4.12536
-3.17879
-2.21545
-1.24303
-0.27017
0.695521
1.64625
2.57563
3.47753
4.34732
5.18064
5.97486
6.72749
7.43791
8.10527
8.73022
9.3131
9.85549
10.3585
10.8243
11.2545
11.6514
12.0168
12.3529
12.6617
12.9452
13.2051
13.4434
13.6617
13.8617
14.0447
14.2122
14.3655
14.5056
14.6339
14.7512
14.8587
14.9571
15.0473
15.1301
15.2062
15.2763
15.3408
15.4005
15.4556
15.5068
15.5544
15.5987
15.64
15.6788
15.7151
15.7492
15.7814
15.8118
15.8405
15.8675
15.8931
15.9172
15.9398
15.961
15.9807
15.999
16.0157
16.0307
16.0438
16.0549
16.0636
16.0694
16.0718
16.0699
16.0623
16.0479
16.0225
15.9906
15.9157
-7.68419
-7.70835
-7.73162
-7.75041
-7.76541
-7.77752
-7.78763
-7.79644
-7.80466
-7.81281
-7.82152
-7.83118
-7.84237
-7.85538
-7.87078
-7.88873
-7.90974
-7.93386
-7.96148
-7.99256
-8.02733
-8.06567
-8.10764
-8.15309
-8.20189
-8.25388
-8.30878
-8.36644
-8.42646
-8.48873
-8.5528
-8.61855
-8.68559
-8.75381
-8.82285
-8.89268
-8.963
-9.03381
-9.1049
-9.17635
-9.24799
-9.31998
-9.39221
-9.46493
-9.53805
-9.61189
-9.68639
-9.76196
-9.83854
-9.91663
-9.99614
-10.0776
-10.1609
-10.2466
-10.3345
-10.4254
-10.519
-10.6159
-10.7159
-10.8194
-10.9263
-11.0369
-11.1511
-11.269
-11.3903
-11.5152
-11.6431
-11.774
-11.9073
-12.0427
-12.1795
-12.3171
-12.4544
-12.5907
-12.7245
-12.8549
-12.9802
-13.099
-13.2095
-13.31
-13.3986
-13.4734
-13.532
-13.5722
-13.591
-13.5856
-13.5525
-13.4884
-13.3899
-13.2543
-13.0785
-12.859
-12.5924
-12.2758
-11.9063
-11.4817
-11.0002
-10.4606
-9.86286
-9.20747
-8.49612
-7.7313
-6.91679
-6.0572
-5.15842
-4.22708
-3.27083
-2.29776
-1.31634
-0.335013
0.63801
1.59519
2.52975
3.4358
4.30845
5.14375
5.9389
6.69201
7.40222
8.06919
8.69335
9.27546
9.81691
10.3192
10.7842
11.2139
11.6104
11.9756
12.3118
12.6209
12.9048
13.1654
13.4045
13.6238
13.8248
14.009
14.1777
14.3322
14.4737
14.6032
14.7219
14.8307
14.9304
15.0219
15.1059
15.1833
15.2545
15.3201
15.3808
15.4371
15.4892
15.5377
15.5829
15.6252
15.6647
15.7019
15.7368
15.7697
15.8007
15.83
15.8577
15.8838
15.9083
15.9314
15.953
15.9731
15.9917
16.0085
16.0236
16.0366
16.0474
16.0555
16.0605
16.0617
16.0581
16.0484
16.0314
16.0031
15.968
15.8908
-7.70748
-7.72688
-7.74395
-7.75754