/*--------------------------------*- C++ -*----------------------------------*\
  =========                 |
  \\      /  F ield         | OpenFOAM: The Open Source CFD Toolbox
   \\    /   O peration     | Website:  https://openfoam.org
    \\  /    A nd           | Version:  8
     \\/     M anipulation  |
\*---------------------------------------------------------------------------*/
FoamFile
{
    version     2.0;
    format      ascii;
    class       surfaceScalarField;
    location    "80";
    object      phi;
}
// * * * * * * * * * * * * * * * * * * * * * * * * * * * * * * * * * * * * * //

dimensions      [0 3 -1 0 0 0 0];

internalField   nonuniform List<scalar> 
24170
(
3.12897e-06
5.9438e-08
3.04651e-06
8.24666e-08
2.97327e-06
7.32399e-08
2.90442e-06
6.88448e-08
2.83981e-06
6.46148e-08
2.78211e-06
5.76903e-08
2.73235e-06
4.97608e-08
2.68987e-06
4.24861e-08
2.65355e-06
3.63197e-08
2.62232e-06
3.12307e-08
2.59515e-06
2.71685e-08
2.57112e-06
2.40272e-08
2.54945e-06
2.16743e-08
2.52933e-06
2.01232e-08
2.51e-06
1.93359e-08
2.48896e-06
2.10373e-08
2.46618e-06
2.278e-08
4.63833e-08
2.41979e-06
3.45306e-06
2.36284e-08
3.45698e-06
7.85527e-08
3.45046e-06
7.97621e-08
3.43891e-06
8.0402e-08
3.42399e-06
7.9536e-08
3.40656e-06
7.51276e-08
3.38708e-06
6.92391e-08
3.36623e-06
6.33398e-08
3.34468e-06
5.78761e-08
3.323e-06
5.29167e-08
3.30165e-06
4.85252e-08
3.28087e-06
4.48041e-08
3.26084e-06
4.17123e-08
3.2415e-06
3.94726e-08
3.22293e-06
3.79046e-08
3.2049e-06
3.9075e-08
3.18793e-06
3.97564e-08
5.55928e-08
3.17872e-06
3.66814e-06
1.80028e-08
3.67914e-06
6.75566e-08
3.68529e-06
7.36147e-08
3.6892e-06
7.64844e-08
3.69064e-06
7.80968e-08
3.68947e-06
7.62983e-08
3.68607e-06
7.26351e-08
3.6809e-06
6.85042e-08
3.67435e-06
6.44291e-08
3.66672e-06
6.05523e-08
3.65825e-06
5.69873e-08
3.64918e-06
5.38804e-08
3.63963e-06
5.12606e-08
3.6297e-06
4.93997e-08
3.61936e-06
4.82535e-08
3.60915e-06
4.92814e-08
3.5979e-06
5.10017e-08
5.97903e-08
3.59371e-06
3.92583e-06
1.75673e-08
3.93584e-06
5.75486e-08
3.94239e-06
6.70638e-08
3.94779e-06
7.10856e-08
3.95203e-06
7.38668e-08
3.95474e-06
7.35843e-08
3.95613e-06
7.12543e-08
3.95641e-06
6.82221e-08
3.95578e-06
6.50667e-08
3.95435e-06
6.19796e-08
3.95226e-06
5.9089e-08
3.94958e-06
5.65599e-08
3.94639e-06
5.44591e-08
3.94275e-06
5.30387e-08
3.93866e-06
5.23544e-08
3.93466e-06
5.32802e-08
3.93046e-06
5.52029e-08
6.01906e-08
3.93006e-06
4.20817e-06
1.65234e-08
4.21589e-06
4.98258e-08
4.22148e-06
6.14718e-08
4.22644e-06
6.61317e-08
4.23098e-06
6.9317e-08
4.2347e-06
6.98637e-08
4.23756e-06
6.83926e-08
4.23967e-06
6.61139e-08
4.24112e-06
6.36178e-08
4.24198e-06
6.11147e-08
4.24233e-06
5.8741e-08
4.24223e-06
5.66612e-08
4.24172e-06
5.497e-08
4.24088e-06
5.38727e-08
4.23978e-06
5.34597e-08
4.23886e-06
5.4202e-08
4.23827e-06
5.5793e-08
5.86362e-08
4.23982e-06
4.51068e-06
1.49318e-08
4.51679e-06
4.37248e-08
4.52192e-06
5.63426e-08
4.52657e-06
6.14821e-08
4.53107e-06
6.482e-08
4.53505e-06
6.58845e-08
4.5384e-06
6.50459e-08
4.54117e-06
6.33436e-08
4.54343e-06
6.13583e-08
4.54523e-06
5.93143e-08
4.54662e-06
5.73553e-08
4.54765e-06
5.56358e-08
4.54836e-06
5.42631e-08
4.54884e-06
5.33921e-08
4.5492e-06
5.31042e-08
4.54979e-06
5.36174e-08
4.55086e-06
5.47181e-08
5.6214e-08
4.55328e-06
4.8343e-06
1.33533e-08
4.83953e-06
3.84962e-08
4.84453e-06
5.13383e-08
4.84906e-06
5.69491e-08
4.85347e-06
6.04106e-08
4.8575e-06
6.18459e-08
4.86104e-06
6.15107e-08
4.8641e-06
6.02793e-08
4.86674e-06
5.87141e-08
4.869e-06
5.705e-08
4.87092e-06
5.54343e-08
4.87255e-06
5.40102e-08
4.87393e-06
5.28838e-08
4.87516e-06
5.21653e-08
4.87635e-06
5.1908e-08
4.87779e-06
5.2181e-08
4.87971e-06
5.2796e-08
5.34103e-08
4.88251e-06
5.18101e-06
1.19202e-08
5.18565e-06
3.38665e-08
5.19052e-06
4.64644e-08
5.195e-06
5.24789e-08
5.19935e-06
5.60607e-08
5.20342e-06
5.77776e-08
5.20707e-06
5.78643e-08
5.21031e-06
5.70406e-08
5.21318e-06
5.58388e-08
5.21573e-06
5.4502e-08
5.21799e-06
5.31802e-08
5.22e-06
5.20023e-08
5.22182e-06
5.10655e-08
5.22354e-06
5.04438e-08
5.22529e-06
5.01616e-08
5.22727e-06
5.02058e-08
5.22965e-06
5.0411e-08
5.04341e-08
5.23263e-06
5.55266e-06
1.0599e-08
5.55678e-06
2.97408e-08
5.56146e-06
4.17818e-08
5.56589e-06
4.805e-08
5.57022e-06
5.17327e-08
5.57433e-06
5.36642e-08
5.57808e-06
5.41085e-08
5.58147e-06
5.36489e-08
5.58454e-06
5.27724e-08
5.58731e-06
5.17277e-08
5.58983e-06
5.06627e-08
5.59214e-06
4.96941e-08
5.5943e-06
4.8905e-08
5.5964e-06
4.83436e-08
5.59855e-06
4.80113e-08
5.6009e-06
4.78597e-08
5.60356e-06
4.77444e-08
4.7386e-08
5.60661e-06
5.951e-06
9.3706e-09
5.95468e-06
2.60699e-08
5.95913e-06
3.7339e-08
5.9635e-06
4.36806e-08
5.96781e-06
4.74256e-08
5.97196e-06
4.9514e-08
5.97582e-06
5.02541e-08
5.97936e-06
5.01168e-08
5.9826e-06
4.95323e-08
5.98558e-06
4.87493e-08
5.98833e-06
4.79112e-08
5.99091e-06
4.71229e-08
5.99336e-06
4.64516e-08
5.99578e-06
4.59295e-08
5.99825e-06
4.55444e-08
6.00087e-06
4.5238e-08
6.00372e-06
4.4897e-08
4.4306e-08
6.0068e-06
6.37795e-06
8.23427e-09
6.38124e-06
2.27759e-08
6.38545e-06
3.31335e-08
6.38975e-06
3.9373e-08
6.39405e-06
4.31326e-08
6.39824e-06
4.53251e-08
6.40219e-06
4.62992e-08
6.40587e-06
4.64385e-08
6.40929e-06
4.61145e-08
6.41248e-06
4.55641e-08
6.41546e-06
4.4928e-08
6.41829e-06
4.4296e-08
6.42101e-06
4.37258e-08
6.42371e-06
4.32347e-08
6.42644e-06
4.28104e-08
6.42929e-06
4.23969e-08
6.43227e-06
4.19131e-08
4.11969e-08
6.43538e-06
5.74173e-06
7.33794e-09
5.74425e-06
2.02536e-08
5.74762e-06
2.97676e-08
5.7512e-06
3.57935e-08
5.75482e-06
3.95201e-08
5.75838e-06
4.17631e-08
5.7618e-06
4.28853e-08
5.76502e-06
4.322e-08
5.76804e-06
4.3089e-08
5.77089e-06
4.27143e-08
5.77359e-06
4.22283e-08
5.77617e-06
4.17153e-08
5.77868e-06
4.12184e-08
5.78115e-06
4.07589e-08
5.78365e-06
4.0315e-08
5.78619e-06
3.98488e-08
5.78881e-06
3.92949e-08
3.85365e-08
5.79147e-06
6.9991e-06
6.39103e-09
7.00178e-06
1.75789e-08
7.00543e-06
2.61106e-08
7.00945e-06
3.17832e-08
7.01357e-06
3.54011e-08
7.01768e-06
3.76516e-08
7.02167e-06
3.88916e-08
7.02549e-06
3.94066e-08
7.02911e-06
3.94649e-08
7.03256e-06
3.92657e-08
7.03586e-06
3.89329e-08
7.03903e-06
3.85397e-08
7.04212e-06
3.81269e-08
7.04517e-06
3.77039e-08
7.04822e-06
3.72641e-08
7.05129e-06
3.67723e-08
7.05439e-06
3.61968e-08
3.54352e-08
7.05749e-06
8.53184e-06
5.39598e-09
8.53464e-06
1.47797e-08
8.53857e-06
2.2185e-08
8.54301e-06
2.7339e-08
8.54766e-06
3.07453e-08
8.55238e-06
3.29361e-08
8.55702e-06
3.42443e-08
8.56152e-06
3.49053e-08
8.56585e-06
3.51368e-08
8.57001e-06
3.51038e-08
8.57402e-06
3.49234e-08
8.57791e-06
3.46533e-08
8.5817e-06
3.43325e-08
8.58543e-06
3.39676e-08
8.58913e-06
3.35589e-08
8.59281e-06
3.30862e-08
8.59647e-06
3.25349e-08
3.18282e-08
8.60008e-06
1.04003e-05
4.36145e-09
1.04032e-05
1.18692e-08
1.04073e-05
1.80038e-08
1.04122e-05
2.24577e-08
1.04174e-05
2.55158e-08
1.04228e-05
2.75591e-08
1.04282e-05
2.88584e-08
1.04335e-05
2.96138e-08
1.04386e-05
2.99827e-08
1.04436e-05
3.01044e-08
1.04485e-05
3.0063e-08
1.04532e-05
2.9925e-08
1.04578e-05
2.97067e-08
1.04624e-05
2.94309e-08
1.04668e-05
2.90889e-08
1.04712e-05
2.86863e-08
1.04756e-05
2.82123e-08
2.76136e-08
1.04798e-05
1.26779e-05
3.28369e-09
1.26809e-05
8.83806e-09
1.26853e-05
1.35511e-08
1.26907e-05
1.71107e-08
1.26965e-05
1.96591e-08
1.27027e-05
2.14329e-08
1.27089e-05
2.26325e-08
1.27151e-05
2.34049e-08
1.27212e-05
2.38681e-08
1.27272e-05
2.41102e-08
1.27331e-05
2.42063e-08
1.27388e-05
2.41951e-08
1.27444e-05
2.41072e-08
1.27499e-05
2.39454e-08
1.27552e-05
2.37228e-08
1.27605e-05
2.34347e-08
1.27656e-05
2.30966e-08
2.26498e-08
1.27705e-05
1.54543e-05
2.14761e-09
1.54575e-05
5.62496e-09
1.54623e-05
8.74716e-09
1.54682e-05
1.12087e-08
1.54748e-05
1.30586e-08
1.54818e-05
1.44202e-08
1.54891e-05
1.54075e-08
1.54963e-05
1.61126e-08
1.55036e-05
1.66059e-08
1.55108e-05
1.69399e-08
1.55178e-05
1.71558e-08
1.55247e-05
1.7284e-08
1.55315e-05
1.73416e-08
1.55381e-05
1.73366e-08
1.55446e-05
1.72737e-08
1.55508e-05
1.71574e-08
1.55569e-05
1.70002e-08
1.67571e-08
1.55628e-05
1.88389e-05
9.01001e-10
1.88424e-05
2.09234e-09
1.88478e-05
3.3908e-09
1.88545e-05
4.51794e-09
1.88621e-05
5.46317e-09
1.88702e-05
6.25171e-09
1.88787e-05
6.91008e-09
1.88874e-05
7.46131e-09
1.8896e-05
7.92786e-09
1.89047e-05
8.32244e-09
1.89132e-05
8.65544e-09
1.89215e-05
8.93467e-09
1.89297e-05
9.16699e-09
1.89377e-05
9.35412e-09
1.89454e-05
9.49826e-09
1.8953e-05
9.60085e-09
1.89603e-05
9.67132e-09
9.66991e-09
1.89674e-05
2.29648e-05
-5.76484e-10
2.2969e-05
-2.06929e-09
2.29753e-05
-2.97566e-09
2.29834e-05
-3.49401e-09
2.29925e-05
-3.67605e-09
2.30024e-05
-3.61364e-09
2.30127e-05
-3.38367e-09
2.30232e-05
-3.04722e-09
2.30337e-05
-2.63175e-09
2.30442e-05
-2.17682e-09
2.30546e-05
-1.70144e-09
2.30648e-05
-1.23506e-09
2.30747e-05
-7.80525e-10
2.30844e-05
-3.52287e-10
2.30938e-05
5.51281e-11
2.3103e-05
4.29506e-10
2.31119e-05
7.81567e-10
1.06831e-09
2.31205e-05
1.68119e-05
-1.75445e-09
1.68152e-05
-5.3344e-09
1.68202e-05
-7.97885e-09
1.68264e-05
-9.7454e-09
1.68335e-05
-1.0729e-08
1.6841e-05
-1.11475e-08
1.68488e-05
-1.1198e-08
1.68568e-05
-1.097e-08
1.68647e-05
-1.05622e-08
1.68725e-05
-1.00203e-08
1.68802e-05
-9.42177e-09
1.68878e-05
-8.78319e-09
1.68952e-05
-8.15242e-09
1.69023e-05
-7.51862e-09
1.69093e-05
-6.91458e-09
1.69161e-05
-6.32415e-09
1.69226e-05
-5.77133e-09
-5.2664e-09
1.69289e-05
1.46357e-05
-2.88977e-09
1.46389e-05
-8.52205e-09
1.46438e-05
-1.28757e-08
1.46498e-05
-1.57576e-08
1.46565e-05
-1.73661e-08
1.46635e-05
-1.81516e-08
1.46707e-05
-1.83738e-08
1.46779e-05
-1.81833e-08
1.4685e-05
-1.76975e-08
1.4692e-05
-1.70427e-08
1.46989e-05
-1.62822e-08
1.47056e-05
-1.54797e-08
1.47121e-05
-1.4655e-08
1.47184e-05
-1.38392e-08
1.47246e-05
-1.30337e-08
1.47305e-05
-1.22597e-08
1.47362e-05
-1.151e-08
-1.08232e-08
1.47417e-05
1.27412e-05
-3.95654e-09
1.27444e-05
-1.17529e-08
1.27494e-05
-1.78877e-08
1.27554e-05
-2.16669e-08
1.27617e-05
-2.36902e-08
1.27683e-05
-2.47307e-08
1.27749e-05
-2.50465e-08
1.27816e-05
-2.479e-08
1.2788e-05
-2.41684e-08
1.27943e-05
-2.33417e-08
1.28005e-05
-2.24035e-08
1.28064e-05
-2.14133e-08
1.28122e-05
-2.04008e-08
1.28177e-05
-1.93996e-08
1.28231e-05
-1.84113e-08
1.28283e-05
-1.74625e-08
1.28333e-05
-1.65423e-08
-1.56845e-08
1.28382e-05
1.10918e-05
-4.85413e-09
1.10951e-05
-1.50731e-08
1.11004e-05
-2.31907e-08
1.11063e-05
-2.7546e-08
1.11124e-05
-2.9752e-08
1.11186e-05
-3.09367e-08
1.11248e-05
-3.12372e-08
1.11308e-05
-3.08332e-08
1.11367e-05
-3.00231e-08
1.11424e-05
-2.90018e-08
1.11478e-05
-2.78676e-08
1.11531e-05
-2.66757e-08
1.11582e-05
-2.54773e-08
1.11631e-05
-2.42859e-08
1.11678e-05
-2.31344e-08
1.11724e-05
-2.20143e-08
1.11767e-05
-2.09473e-08
-1.9932e-08
1.1181e-05
9.65587e-06
-5.51154e-09
9.65938e-06
-1.85905e-08
9.66489e-06
-2.86975e-08
9.67062e-06
-3.32787e-08
9.67648e-06
-3.56128e-08
9.6824e-06
-3.68618e-08
9.68816e-06
-3.69936e-08
9.69367e-06
-3.63423e-08
9.69895e-06
-3.53049e-08
9.70402e-06
-3.40732e-08
9.70889e-06
-3.27316e-08
9.71356e-06
-3.13403e-08
9.71804e-06
-2.99467e-08
9.72233e-06
-2.85797e-08
9.72646e-06
-2.72523e-08
9.73042e-06
-2.59778e-08
9.73423e-06
-2.4758e-08
-2.35962e-08
9.73789e-06
8.40537e-06
-5.52668e-09
8.40977e-06
-2.29932e-08
8.41515e-06
-3.40832e-08
8.42038e-06
-3.8517e-08
8.42602e-06
-4.12493e-08
8.43175e-06
-4.2596e-08
8.43722e-06
-4.24606e-08
8.44235e-06
-4.14798e-08
8.4472e-06
-4.01527e-08
8.45178e-06
-3.86553e-08
8.4561e-06
-3.70589e-08
8.4602e-06
-3.543e-08
8.46407e-06
-3.38166e-08
8.46774e-06
-3.22472e-08
8.47122e-06
-3.07336e-08
8.47452e-06
-2.92863e-08
8.47768e-06
-2.79059e-08
-2.66023e-08
8.48068e-06
7.31458e-06
-2.82796e-09
7.3213e-06
-2.97152e-08
7.32699e-06
-3.97703e-08
7.33213e-06
-4.36587e-08
7.33776e-06
-4.68802e-08
7.34336e-06
-4.82021e-08
7.34857e-06
-4.76699e-08
7.35335e-06
-4.62694e-08
7.35775e-06
-4.45501e-08
7.36176e-06
-4.26686e-08
7.36541e-06
-4.07129e-08
7.36873e-06
-3.87475e-08
7.37175e-06
-3.6842e-08
7.37451e-06
-3.50089e-08
7.37704e-06
-3.32621e-08
7.37936e-06
-3.16079e-08
7.3815e-06
-3.00462e-08
-2.85791e-08
7.38349e-06
6.36249e-06
4.7524e-09
6.37199e-06
-3.92237e-08
6.37953e-06
-4.73143e-08
6.38634e-06
-5.04568e-08
6.39281e-06
-5.33668e-08
6.39837e-06
-5.37566e-08
6.40294e-06
-5.22462e-08
6.40673e-06
-5.00697e-08
6.40989e-06
-4.77065e-08
6.41246e-06
-4.52491e-08
6.41452e-06
-4.27652e-08
6.41612e-06
-4.03533e-08
6.41733e-06
-3.80537e-08
6.41821e-06
-3.58884e-08
6.4188e-06
-3.38644e-08
6.41917e-06
-3.19806e-08
6.41937e-06
-3.02439e-08
-2.86237e-08
6.41943e-06
5.54123e-06
8.98938e-09
5.5504e-06
-4.84014e-08
5.55851e-06
-5.54178e-08
5.56634e-06
-5.8285e-08
5.57295e-06
-5.99912e-08
5.57747e-06
-5.828e-08
5.57994e-06
-5.472e-08
5.58076e-06
-5.0893e-08
5.58029e-06
-4.72503e-08
5.57884e-06
-4.37886e-08
5.57661e-06
-4.05328e-08
5.57378e-06
-3.75302e-08
5.5705e-06
-3.47872e-08
5.5669e-06
-3.22932e-08
5.56307e-06
-3.00419e-08
5.55911e-06
-2.80219e-08
5.5551e-06
-2.6226e-08
-2.46198e-08
5.5511e-06
4.86005e-06
-2.34501e-08
4.86541e-06
-5.37717e-08
4.86532e-06
-5.53223e-08
4.86233e-06
-5.5296e-08
4.85727e-06
-5.49386e-08
4.84991e-06
-5.09323e-08
4.8404e-06
-4.52087e-08
4.82921e-06
-3.97176e-08
4.81689e-06
-3.49267e-08
4.80389e-06
-3.07914e-08
4.79061e-06
-2.725e-08
4.77731e-06
-2.42427e-08
4.7642e-06
-2.16819e-08
4.7514e-06
-1.94996e-08
4.73899e-06
-1.76473e-08
4.72706e-06
-1.60923e-08
4.71571e-06
-1.48735e-08
-1.4514e-08
4.70562e-06
4.17923e-06
4.12545e-06
4.07013e-06
4.01484e-06
3.9599e-06
3.90896e-06
3.86375e-06
3.82404e-06
3.78911e-06
3.75832e-06
3.73107e-06
3.70682e-06
3.68514e-06
3.66564e-06
3.64799e-06
3.6319e-06
3.61703e-06
3.60251e-06
3.11668e-08
-3.14345e-08
8.01138e-08
-4.92664e-08
1.30978e-07
-5.1044e-08
1.78593e-07
-4.78625e-08
2.20801e-07
-4.2355e-08
2.57038e-07
-3.64752e-08
2.90645e-07
-3.37788e-08
3.20042e-07
-2.96712e-08
3.38564e-07
-1.87699e-08
3.48018e-07
-9.57056e-09
3.47992e-07
-2.11163e-10
3.3902e-07
8.95255e-09
3.21827e-07
1.6938e-08
2.98234e-07
2.34134e-08
2.69483e-07
2.84413e-08
2.35763e-07
3.32868e-08
1.93826e-07
4.17345e-08
1.49724e-07
4.38367e-08
1.08738e-07
4.09072e-08
6.79656e-08
4.05902e-08
2.10003e-08
4.69057e-08
-3.33905e-08
5.40512e-08
-8.6246e-08
5.27106e-08
-1.48379e-07
6.18023e-08
-2.19538e-07
7.1079e-08
-2.99506e-07
7.97459e-08
-3.87388e-07
8.78281e-08
-4.82692e-07
9.51361e-08
-5.84178e-07
1.01441e-07
-6.90836e-07
1.06509e-07
-8.01096e-07
1.10222e-07
-9.13743e-07
1.12495e-07
-1.02716e-06
1.1339e-07
-1.14037e-06
1.13035e-07
-1.25199e-06
1.1161e-07
-1.36147e-06
1.09298e-07
-1.46779e-06
1.0632e-07
-1.57082e-06
1.0287e-07
-1.66995e-06
9.9146e-08
-1.76539e-06
9.52937e-08
-1.85682e-06
9.14537e-08
-1.94465e-06
8.77147e-08
-2.02879e-06
8.41617e-08
-2.10973e-06
8.08361e-08
-2.18747e-06
7.77796e-08
-2.26257e-06
7.49987e-08
-2.33504e-06
7.25106e-08
-2.40545e-06
7.03015e-08
-2.47379e-06
6.83734e-08
-2.54061e-06
6.67017e-08
-2.60588e-06
6.52832e-08
-2.67011e-06
6.40863e-08
-2.73323e-06
6.31067e-08
-2.7957e-06
6.23158e-08
-2.85741e-06
6.17066e-08
-2.91882e-06
6.12433e-08
-2.97977e-06
6.09233e-08
-3.04066e-06
6.07166e-08
-3.10128e-06
6.06187e-08
-3.16205e-06
6.05894e-08
-3.22269e-06
6.06301e-08
-3.28355e-06
6.07068e-08
-3.34433e-06
6.08191e-08
-3.40537e-06
6.09263e-08
-3.46635e-06
6.10304e-08
-3.52754e-06
6.10908e-08
-3.5886e-06
6.11117e-08
-3.64973e-06
6.1055e-08
-3.71061e-06
6.09225e-08
-3.77132e-06
6.0679e-08
-3.83158e-06
6.03192e-08
-3.8914e-06
5.98095e-08
-3.95047e-06
5.91286e-08
-4.00873e-06
5.82452e-08
-4.06583e-06
5.71347e-08
-4.12165e-06
5.57627e-08
-4.17575e-06
5.41152e-08
-4.22793e-06
5.21624e-08
-4.27775e-06
4.98833e-08
-4.32494e-06
4.72359e-08
-4.36901e-06
4.41912e-08
-4.40961e-06
4.07006e-08
-4.44617e-06
3.67179e-08
-4.47831e-06
3.21687e-08
-4.50521e-06
2.7039e-08
-4.52653e-06
2.12833e-08
-4.54144e-06
1.50312e-08
-4.54965e-06
8.39488e-09
-4.55097e-06
1.77713e-09
-4.54546e-06
-4.43114e-09
-4.53373e-06
-1.06757e-08
-4.5156e-06
-1.71118e-08
-4.49084e-06
-2.38362e-08
-4.45916e-06
-3.08356e-08
-4.42032e-06
-3.80859e-08
-4.37408e-06
-4.55363e-08
-4.32026e-06
-5.3191e-08
-4.25876e-06
-6.09202e-08
-4.18943e-06
-6.88296e-08
-4.11225e-06
-7.67085e-08
-4.02733e-06
-8.45169e-08
-3.93461e-06
-9.23313e-08
-3.83435e-06
-9.99211e-08
-3.72676e-06
-1.07286e-07
-3.61213e-06
-1.14388e-07
-3.49079e-06
-1.2114e-07
-3.36315e-06
-1.27462e-07
-3.22968e-06
-1.33315e-07
-3.09085e-06
-1.38638e-07
-2.94724e-06
-1.43392e-07
-2.79943e-06
-1.47536e-07
-2.64807e-06
-1.51039e-07
-2.49382e-06
-1.53886e-07
-2.33733e-06
-1.56066e-07
-2.17927e-06
-1.57585e-07
-2.02032e-06
-1.58416e-07
-1.86118e-06
-1.5861e-07
-1.70252e-06
-1.58164e-07
-1.54498e-06
-1.57163e-07
-1.38901e-06
-1.5559e-07
-1.23503e-06
-1.53526e-07
-1.08342e-06
-1.50983e-07
-9.34678e-07
-1.48058e-07
-7.89154e-07
-1.44796e-07
-6.47214e-07
-1.41342e-07
-5.09032e-07
-1.37657e-07
-3.74783e-07
-1.33894e-07
-2.44155e-07
-1.30346e-07
-1.16624e-07
-1.27403e-07
9.06255e-09
-1.25615e-07
1.32364e-07
-1.23399e-07
2.51157e-07
-1.1892e-07
3.64492e-07
-1.13625e-07
4.72316e-07
-1.08129e-07
5.74588e-07
-1.02721e-07
6.71574e-07
-9.74329e-08
7.6337e-07
-9.23728e-08
8.50265e-07
-8.75026e-08
9.3238e-07
-8.28841e-08
1.01005e-06
-7.84573e-08
1.0835e-06
-7.42583e-08
1.15306e-06
-7.02629e-08
1.21893e-06
-6.64762e-08
1.28128e-06
-6.28798e-08
1.34027e-06
-5.94667e-08
1.39606e-06
-5.62368e-08
1.44886e-06
-5.31888e-08
1.49881e-06
-5.03194e-08
1.5461e-06
-4.76141e-08
1.59086e-06
-4.50597e-08
1.63325e-06
-4.26602e-08
1.67341e-06
-4.04147e-08
1.7115e-06
-3.83176e-08
1.74764e-06
-3.63603e-08
1.78198e-06
-3.45393e-08
1.81465e-06
-3.28522e-08
1.84577e-06
-3.12946e-08
1.87545e-06
-2.98421e-08
1.90379e-06
-2.84993e-08
1.93092e-06
-2.72627e-08
1.95692e-06
-2.61294e-08
1.98189e-06
-2.50877e-08
2.0059e-06
-2.41283e-08
2.02905e-06
-2.32493e-08
2.05139e-06
-2.2436e-08
2.07298e-06
-2.16817e-08
2.09389e-06
-2.09869e-08
2.11411e-06
-2.03032e-08
2.13366e-06
-1.96177e-08
2.1525e-06
-1.89115e-08
2.17056e-06
-1.81197e-08
2.18766e-06
-1.71623e-08
2.20356e-06
-1.59667e-08
2.21784e-06
-1.43289e-08
2.22963e-06
-1.18544e-08
2.23751e-06
-7.92404e-09
2.23667e-06
7.78172e-10
2.21822e-06
1.83931e-08
2.16189e-06
5.62672e-08
1.20811e-07
2.04103e-06
5.32877e-08
-8.49822e-08
1.06095e-07
-1.02335e-07
1.48854e-07
-9.39512e-08
1.82949e-07
-8.21237e-08
2.09795e-07
-6.93121e-08
2.29365e-07
-5.61883e-08
2.38734e-07
-4.32626e-08
2.39018e-07
-3.00792e-08
2.35715e-07
-1.55807e-08
2.26819e-07
-7.43573e-10
2.1243e-07
1.40791e-08
1.92754e-07
2.85774e-08
1.6721e-07
4.23726e-08
1.3533e-07
5.51646e-08
9.68496e-08
6.67814e-08
5.29249e-08
7.69953e-08
8.83819e-09
8.56995e-08
-4.00019e-08
9.24959e-08
-9.9513e-08
1.00343e-07
-1.70114e-07
1.11068e-07
-2.49159e-07
1.25887e-07
-3.37544e-07
1.42347e-07
-4.39466e-07
1.5458e-07
-5.44684e-07
1.66952e-07
-6.53012e-07
1.79363e-07
-7.64368e-07
1.91047e-07
-8.77932e-07
2.01352e-07
-9.92619e-07
2.09773e-07
-1.10718e-06
2.15965e-07
-1.22048e-06
2.19756e-07
-1.33146e-06
2.21167e-07
-1.43939e-06
2.20369e-07
-1.54364e-06
2.17595e-07
-1.64384e-06
2.13175e-07
-1.73975e-06
2.07483e-07
-1.8314e-06
2.00883e-07
-1.91883e-06
1.93713e-07
-2.00229e-06
1.8627e-07
-2.08197e-06
1.78801e-07
-2.15823e-06
1.71502e-07
-2.23132e-06
1.6452e-07
-2.30161e-06
1.57959e-07
-2.36935e-06
1.51885e-07
-2.43489e-06
1.46337e-07
-2.49844e-06
1.41327e-07
-2.56033e-06
1.36851e-07
-2.62072e-06
1.32894e-07
-2.67989e-06
1.2943e-07
-2.73796e-06
1.26431e-07
-2.79515e-06
1.23861e-07
-2.85157e-06
1.21684e-07
-2.90741e-06
1.19865e-07
-2.96269e-06
1.18369e-07
-3.01759e-06
1.1716e-07
-3.07211e-06
1.162e-07
-3.12639e-06
1.15453e-07
-3.18039e-06
1.14889e-07
-3.23422e-06
1.14472e-07
-3.28781e-06
1.14169e-07
-3.34124e-06
1.13943e-07
-3.39442e-06
1.13767e-07
-3.44739e-06
1.13607e-07
-3.50002e-06
1.1343e-07
-3.55235e-06
1.13202e-07
-3.60422e-06
1.12892e-07
-3.65564e-06
1.12464e-07
-3.70643e-06
1.1189e-07
-3.75654e-06
1.11137e-07
-3.80579e-06
1.10175e-07
-3.85409e-06
1.0897e-07
-3.90124e-06
1.07488e-07
-3.94711e-06
1.0569e-07
-3.99149e-06
1.03538e-07
-4.03423e-06
1.00989e-07
-4.07509e-06
9.80062e-08
-4.11389e-06
9.45546e-08
-4.15037e-06
9.06045e-08
-4.18433e-06
8.61238e-08
-4.21549e-06
8.1082e-08
-4.24366e-06
7.54507e-08
-4.26859e-06
6.92081e-08
-4.29014e-06
6.23309e-08
-4.30814e-06
5.48058e-08
-4.32254e-06
4.66245e-08
-4.33326e-06
3.78163e-08
-4.34036e-06
2.84121e-08
-4.34378e-06
1.84904e-08
-4.3434e-06
8.06555e-09
-4.33836e-06
-2.78857e-09
-4.32795e-06
-1.42786e-08
-4.31158e-06
-2.63547e-08
-4.289e-06
-3.90692e-08
-4.25988e-06
-5.24275e-08
-4.22391e-06
-6.63316e-08
-4.18083e-06
-8.07545e-08
-4.1304e-06
-9.55992e-08
-4.07245e-06
-1.10813e-07
-4.00681e-06
-1.26287e-07
-3.93341e-06
-1.41965e-07
-3.8522e-06
-1.57712e-07
-3.76311e-06
-1.73411e-07
-3.6663e-06
-1.88973e-07
-3.56189e-06
-2.04174e-07
-3.45013e-06
-2.18908e-07
-3.33129e-06
-2.33109e-07
-3.20572e-06
-2.46616e-07
-3.07383e-06
-2.59261e-07
-2.93612e-06
-2.70942e-07
-2.7931e-06
-2.81541e-07
-2.64539e-06
-2.90975e-07
-2.4936e-06
-2.99158e-07
-2.33842e-06
-3.06031e-07
-2.18053e-06
-3.11543e-07
-2.02068e-06
-3.15681e-07
-1.85954e-06
-3.18441e-07
-1.69783e-06
-3.19838e-07
-1.53622e-06
-3.19914e-07
-1.37541e-06
-3.18747e-07
-1.21595e-06
-3.16409e-07
-1.05838e-06
-3.12975e-07
-9.03086e-07
-3.0854e-07
-7.50534e-07
-3.03199e-07
-6.01109e-07
-2.97082e-07
-4.55199e-07
-2.90345e-07
-3.13054e-07
-2.83159e-07
-1.74679e-07
-2.75791e-07
-3.98343e-08
-2.68546e-07
9.12132e-08
-2.61277e-07
2.17692e-07
-2.5381e-07
3.38163e-07
-2.46074e-07
4.52434e-07
-2.37694e-07
5.61745e-07
-2.28307e-07
6.66465e-07
-2.18456e-07
7.66654e-07
-2.08476e-07
8.62353e-07
-1.98613e-07
9.53642e-07
-1.88953e-07
1.0406e-06
-1.796e-07
1.12334e-06
-1.70576e-07
1.20199e-06
-1.6192e-07
1.27673e-06
-1.53621e-07
1.34774e-06
-1.45688e-07
1.41523e-06
-1.38125e-07
1.47936e-06
-1.3092e-07
1.54026e-06
-1.24069e-07
1.59809e-06
-1.17551e-07
1.65299e-06
-1.11375e-07
1.7051e-06
-1.05523e-07
1.75456e-06
-9.9999e-08
1.80154e-06
-9.47815e-08
1.84616e-06
-8.98646e-08
1.88858e-06
-8.52405e-08
1.92892e-06
-8.09145e-08
1.96733e-06
-7.68676e-08
2.00392e-06
-7.30907e-08
2.03883e-06
-6.95706e-08
2.07216e-06
-6.63073e-08
2.10404e-06
-6.3285e-08
2.13458e-06
-6.04837e-08
2.16387e-06
-5.78923e-08
2.19203e-06
-5.55082e-08
2.21914e-06
-5.33197e-08
2.24528e-06
-5.13105e-08
2.27055e-06
-4.9463e-08
2.295e-06
-4.77705e-08
2.31871e-06
-4.62094e-08
2.34174e-06
-4.47639e-08
2.36412e-06
-4.34154e-08
2.38587e-06
-4.21048e-08
2.407e-06
-4.07881e-08
2.42746e-06
-3.9418e-08
2.44719e-06
-3.78836e-08
2.46603e-06
-3.60434e-08
2.48374e-06
-3.37189e-08
2.49994e-06
-3.05596e-08
2.51397e-06
-2.59234e-08
2.52473e-06
-1.87111e-08
2.53168e-06
-6.21035e-09
2.53384e-06
1.62063e-08
2.52863e-06
6.14368e-08
1.48701e-07
2.50071e-06
4.72615e-08
-1.32446e-07
8.09872e-08
-1.36257e-07
1.05407e-07
-1.18477e-07
1.22315e-07
-9.91545e-08
1.32507e-07
-7.95826e-08
1.36105e-07
-5.9888e-08
1.32909e-07
-4.01381e-08
1.23025e-07
-2.02739e-08
1.07596e-07
-2.16214e-10
8.69342e-08
1.9867e-08
6.11736e-08
3.97832e-08
3.03716e-08
5.9331e-08
-5.6078e-09
7.82876e-08
-4.69749e-08
9.64535e-08
-9.39891e-08
1.13717e-07
-1.47192e-07
1.30097e-07
-2.07255e-07
1.4569e-07
-2.75885e-07
1.61034e-07
-3.53091e-07
1.77498e-07
-4.37712e-07
1.95621e-07
-5.26937e-07
2.15077e-07
-6.19012e-07
2.34372e-07
-7.16047e-07
2.51588e-07
-8.16151e-07
2.67016e-07
-9.17443e-07
2.80629e-07
-1.0185e-06
2.92073e-07
-1.11815e-06
3.00971e-07
-1.21547e-06
3.07062e-07
-1.30979e-06
3.10255e-07
-1.4007e-06
3.10636e-07
-1.48798e-06
3.08423e-07
-1.5716e-06
3.03946e-07
-1.65163e-06
2.97601e-07
-1.72831e-06
2.89811e-07
-1.80184e-06
2.8099e-07
-1.87252e-06
2.71519e-07
-1.94056e-06
2.61731e-07
-2.00624e-06
2.51909e-07
-2.06975e-06
2.42281e-07
-2.1313e-06
2.33024e-07
-2.19107e-06
2.24266e-07
-2.24924e-06
2.16096e-07
-2.30594e-06
2.08566e-07
-2.36133e-06
2.01705e-07
-2.41553e-06
1.95515e-07
-2.46869e-06
1.89985e-07
-2.52089e-06
1.8509e-07
-2.57228e-06
1.80799e-07
-2.62293e-06
1.77073e-07
-2.67296e-06
1.73871e-07
-2.72244e-06
1.71149e-07
-2.77145e-06
1.68861e-07
-2.82006e-06
1.66964e-07
-2.86834e-06
1.65412e-07
-2.91631e-06
1.64159e-07
-2.96405e-06
1.63161e-07
-3.01156e-06
1.62374e-07
-3.05888e-06
1.61755e-07
-3.10601e-06
1.6126e-07
-3.15295e-06
1.60845e-07
-3.19969e-06
1.60468e-07
-3.24622e-06
1.60087e-07
-3.29248e-06
1.59659e-07
-3.33845e-06
1.5914e-07
-3.38408e-06
1.58488e-07
-3.42931e-06
1.57658e-07
-3.47405e-06
1.5661e-07
-3.51824e-06
1.55299e-07
-3.56176e-06
1.53684e-07
-3.60451e-06
1.5172e-07
-3.64638e-06
1.49361e-07
-3.68723e-06
1.46558e-07
-3.72694e-06
1.43262e-07
-3.76536e-06
1.39422e-07
-3.80233e-06
1.34991e-07
-3.8377e-06
1.29922e-07
-3.87126e-06
1.24177e-07
-3.90283e-06
1.17715e-07
-3.93221e-06
1.10496e-07
-3.95921e-06
1.02487e-07
-3.98361e-06
9.36597e-08
-4.0052e-06
8.39862e-08
-4.02379e-06
7.34445e-08
-4.03914e-06
6.20218e-08
-4.051e-06
4.97166e-08
-4.05908e-06
3.65267e-08
-4.06306e-06
2.24465e-08
-4.06238e-06
7.48183e-09
-4.05656e-06
-8.44553e-09
-4.04511e-06
-2.53021e-08
-4.02786e-06
-4.31993e-08
-4.00454e-06
-6.20973e-08
-3.97478e-06
-8.1916e-08
-3.93831e-06
-1.02612e-07
-3.89482e-06
-1.24066e-07
-3.8441e-06
-1.46197e-07
-3.78593e-06
-1.68874e-07
-3.72016e-06
-1.91976e-07
-3.64671e-06
-2.15359e-07
-3.56552e-06
-2.38865e-07
-3.47657e-06
-2.62328e-07
-3.37995e-06
-2.85556e-07
-3.27581e-06
-3.08284e-07
-3.16438e-06
-3.30299e-07
-3.04597e-06
-3.51485e-07
-2.92094e-06
-3.71611e-07
-2.78971e-06
-3.90448e-07
-2.65279e-06
-4.07805e-07
-2.51073e-06
-4.23524e-07
-2.36415e-06
-4.37455e-07
-2.2137e-06
-4.49481e-07
-2.06009e-06
-4.59506e-07
-1.904e-06
-4.67458e-07
-1.74619e-06
-4.73316e-07
-1.58734e-06
-4.77083e-07
-1.42817e-06
-4.788e-07
-1.26935e-06
-4.78536e-07
-1.11153e-06
-4.76407e-07
-9.55267e-07
-4.72522e-07
-8.01076e-07
-4.67014e-07
-6.49368e-07
-4.60024e-07
-5.00573e-07
-4.51729e-07
-3.55041e-07
-4.42298e-07
-2.13092e-07
-4.32027e-07
-7.47846e-08
-4.21212e-07
5.96107e-08
-4.10013e-07
1.89613e-07
-3.98391e-07
3.14749e-07
-3.86329e-07
4.34845e-07
-3.73836e-07
5.4967e-07
-3.60896e-07
6.59351e-07
-3.47382e-07
7.64293e-07
-3.33315e-07
8.64739e-07
-3.18976e-07
9.60771e-07
-3.04632e-07
1.0525e-06
-2.90469e-07
1.13999e-06
-2.76616e-07
1.22336e-06
-2.63162e-07
1.30272e-06
-2.50169e-07
1.3782e-06
-2.37671e-07
1.44997e-06
-2.25681e-07
1.51821e-06
-2.14204e-07
1.58309e-06
-2.0324e-07
1.64475e-06
-1.92786e-07
1.70335e-06
-1.82832e-07
1.75901e-06
-1.73368e-07
1.81189e-06
-1.64385e-07
1.86213e-06
-1.55877e-07
1.90986e-06
-1.47836e-07
1.95523e-06
-1.40255e-07
1.9984e-06
-1.33117e-07
2.03949e-06
-1.26413e-07
2.07863e-06
-1.20133e-07
2.11596e-06
-1.14259e-07
2.15157e-06
-1.08774e-07
2.1856e-06
-1.03668e-07
2.21817e-06
-9.89298e-08
2.24937e-06
-9.45432e-08
2.27931e-06
-9.04856e-08
2.30811e-06
-8.67392e-08
2.33584e-06
-8.32914e-08
2.3626e-06
-8.01262e-08
2.38846e-06
-7.72217e-08
2.41352e-06
-7.45579e-08
2.43782e-06
-7.21155e-08
2.46144e-06
-6.98697e-08
2.48443e-06
-6.77902e-08
2.50682e-06
-6.58378e-08
2.52863e-06
-6.39484e-08
2.54986e-06
-6.20527e-08
2.57048e-06
-6.00633e-08
2.5904e-06
-5.78398e-08
2.60952e-06
-5.51904e-08
2.62761e-06
-5.18381e-08
2.64434e-06
-4.73187e-08
2.65922e-06
-4.083e-08
2.67148e-06
-3.09931e-08
2.68035e-06
-1.51092e-08
2.68511e-06
1.142e-08
2.68727e-06
5.92444e-08
1.46327e-07
2.68962e-06
2.61605e-08
-1.58755e-07
3.74961e-08
-1.47749e-07
4.36118e-08
-1.24661e-07
4.47681e-08
-1.00412e-07
4.10654e-08
-7.59297e-08
3.23869e-08
-5.12915e-08
1.87307e-08
-2.65277e-08
5.75603e-11
-1.66396e-09
-2.34575e-08
2.32588e-08
-5.17985e-08
4.81618e-08
-8.49844e-08
7.29323e-08
-1.23133e-07
9.7437e-08
-1.6642e-07
1.21534e-07
-2.15125e-07
1.45106e-07
-2.6955e-07
1.68097e-07
-3.30044e-07
1.90535e-07
-3.96928e-07
2.1253e-07
-4.70292e-07
2.34348e-07
-5.49113e-07
2.56285e-07
-6.31804e-07
2.7827e-07
-7.16532e-07
2.99779e-07
-8.02119e-07
3.19924e-07
-8.88364e-07
3.3781e-07
-9.7442e-07
3.5304e-07
-1.0592e-06
3.6539e-07
-1.14184e-06
3.7468e-07
-1.2217e-06
3.80812e-07
-1.29847e-06
3.838e-07
-1.37203e-06
3.83791e-07
-1.44246e-06
3.81042e-07
-1.50996e-06
3.75896e-07
-1.57479e-06
3.68746e-07
-1.63722e-06
3.60012e-07
-1.69755e-06
3.50107e-07
-1.756e-06
3.39417e-07
-1.8128e-06
3.28287e-07
-1.86811e-06
3.17017e-07
-1.92209e-06
3.05857e-07
-1.97483e-06
2.95007e-07
-2.02646e-06
2.84624e-07
-2.07704e-06
2.7482e-07
-2.12664e-06
2.65676e-07
-2.17533e-06
2.57239e-07
-2.22318e-06
2.49533e-07
-2.27024e-06
2.42562e-07
-2.31659e-06
2.36314e-07
-2.36227e-06
2.30766e-07
-2.40737e-06
2.25885e-07
-2.45194e-06
2.21632e-07
-2.49604e-06
2.17964e-07
-2.53973e-06
2.14835e-07
-2.58308e-06
2.12196e-07
-2.62612e-06
2.09998e-07
-2.66891e-06
2.08191e-07
-2.71148e-06
2.06723e-07
-2.75388e-06
2.05545e-07
-2.79613e-06
2.04605e-07
-2.83825e-06
2.03854e-07
-2.88025e-06
2.03241e-07
-2.92215e-06
2.02713e-07
-2.96394e-06
2.0222e-07
-3.0056e-06
2.01713e-07
-3.04711e-06
2.01139e-07
-3.08846e-06
2.00446e-07
-3.12958e-06
1.99582e-07
-3.17045e-06
1.98493e-07
-3.211e-06
1.97129e-07
-3.25116e-06
1.95435e-07
-3.29085e-06
1.93358e-07
-3.32998e-06
1.90841e-07
-3.36844e-06
1.87828e-07
-3.40613e-06
1.8426e-07
-3.44293e-06
1.80076e-07
-3.47871e-06
1.75214e-07
-3.51332e-06
1.69614e-07
-3.5466e-06
1.6322e-07
-3.57838e-06
1.55977e-07
-3.60848e-06
1.47829e-07
-3.63668e-06
1.38725e-07
-3.66277e-06
1.28615e-07
-3.68652e-06
1.17453e-07
-3.70769e-06
1.05195e-07
-3.726e-06
9.17991e-08
-3.74118e-06
7.72282e-08
-3.75288e-06
6.14514e-08
-3.76077e-06
4.44364e-08
-3.76448e-06
2.61563e-08
-3.76358e-06
6.57569e-09
-3.75753e-06
-1.42829e-08
-3.74609e-06
-3.65379e-08
-3.72898e-06
-6.00946e-08
-3.70593e-06
-8.49922e-08
-3.67662e-06
-1.11138e-07
-3.64073e-06
-1.38448e-07
-3.59799e-06
-1.66794e-07
-3.54814e-06
-1.96052e-07
-3.49099e-06
-2.26058e-07
-3.42638e-06
-2.56645e-07
-3.35419e-06
-2.87614e-07
-3.27437e-06
-3.18755e-07
-3.18693e-06
-3.49835e-07
-3.09193e-06
-3.80614e-07
-2.98949e-06
-4.10749e-07
-2.87987e-06
-4.39941e-07
-2.76338e-06
-4.67987e-07
-2.64038e-06
-4.94602e-07
-2.51131e-06
-5.19491e-07
-2.37668e-06
-5.42391e-07
-2.23706e-06
-5.63083e-07
-2.09306e-06
-5.81365e-07
-1.94536e-06
-5.97076e-07
-1.79465e-06
-6.1009e-07
-1.64164e-06
-6.20322e-07
-1.48706e-06
-6.27744e-07
-1.33161e-06
-6.32364e-07
-1.17599e-06
-6.34252e-07
-1.02088e-06
-6.33508e-07
-8.66883e-07
-6.30282e-07
-7.14565e-07
-6.24724e-07
-5.64407e-07
-6.17032e-07
-4.16829e-07
-6.07391e-07