/*--------------------------------*- C++ -*----------------------------------*\
  =========                 |
  \\      /  F ield         | OpenFOAM: The Open Source CFD Toolbox
   \\    /   O peration     | Website:  https://openfoam.org
    \\  /    A nd           | Version:  8
     \\/     M anipulation  |
\*---------------------------------------------------------------------------*/
FoamFile
{
    version     2.0;
    format      ascii;
    class       volVectorField;
    location    "80";
    object      U;
}
// * * * * * * * * * * * * * * * * * * * * * * * * * * * * * * * * * * * * * //

dimensions      [0 1 -1 0 0 0 0];

internalField   nonuniform List<vector> 
12225
(
(9.85694 -0.886419 0)
(9.66645 -0.740699 0)
(9.45516 -0.429402 0)
(9.22341 -0.222083 0)
(9.0046 -0.106279 0)
(8.81148 -0.0456473 0)
(8.64326 -0.0149126 0)
(8.49963 0.000792465 0)
(8.37604 0.00880024 0)
(8.27113 0.0127913 0)
(8.17986 0.0146506 0)
(8.10032 0.015874 0)
(8.029 0.016586 0)
(7.9642 0.0172758 0)
(7.90203 0.0180614 0)
(7.84453 0.020081 0)
(7.76195 0.0222384 0)
(7.75155 0.038455 0)
(10.0545 0.227582 0)
(10.121 0.326966 0)
(10.1195 0.261677 0)
(10.0852 0.186716 0)
(10.0427 0.134917 0)
(9.99555 0.101451 0)
(9.94223 0.079741 0)
(9.88258 0.0651546 0)
(9.82022 0.0550174 0)
(9.75632 0.0476315 0)
(9.69327 0.0421423 0)
(9.63136 0.0379859 0)
(9.57161 0.034909 0)
(9.51413 0.0329638 0)
(9.45793 0.0319238 0)
(9.40669 0.0345002 0)
(9.3489 0.035662 0)
(9.32334 0.0642915 0)
(10.0035 0.057953 0)
(10.0302 0.0561041 0)
(10.0558 0.033965 0)
(10.0698 0.0331701 0)
(10.0761 0.0410332 0)
(10.0764 0.0470676 0)
(10.0705 0.050041 0)
(10.0586 0.0511818 0)
(10.0424 0.0513174 0)
(10.0227 0.050906 0)
(10.0006 0.0502731 0)
(9.97655 0.0496858 0)
(9.95107 0.0493049 0)
(9.92451 0.049491 0)
(9.89664 0.050248 0)
(9.869 0.0536723 0)
(9.83927 0.057964 0)
(9.81588 0.0748161 0)
(9.99777 0.0110998 0)
(10.0109 0.0267356 0)
(10.0347 0.03738 0)
(10.0519 0.0484377 0)
(10.0634 0.0559617 0)
(10.0719 0.0588711 0)
(10.0773 0.0592515 0)
(10.0794 0.0587689 0)
(10.0788 0.0580439 0)
(10.0761 0.0572638 0)
(10.0716 0.0565458 0)
(10.0655 0.0560709 0)
(10.0579 0.0559218 0)
(10.0493 0.0564332 0)
(10.0393 0.0577216 0)
(10.0291 0.0612055 0)
(10.0184 0.066151 0)
(10.011 0.0774838 0)
(9.99933 0.00726151 0)
(10.0089 0.0318227 0)
(10.0271 0.0442272 0)
(10.0412 0.0503951 0)
(10.0517 0.054274 0)
(10.0613 0.0561157 0)
(10.0693 0.0566595 0)
(10.0753 0.0566945 0)
(10.0794 0.056556 0)
(10.0821 0.0563654 0)
(10.0835 0.056226 0)
(10.0838 0.0563046 0)
(10.0831 0.0567185 0)
(10.0815 0.0577558 0)
(10.0791 0.0596008 0)
(10.0766 0.063103 0)
(10.0745 0.0679976 0)
(10.075 0.0757106 0)
(10.0003 0.00926136 0)
(10.0082 0.0313843 0)
(10.0224 0.0413322 0)
(10.0343 0.045979 0)
(10.044 0.0498487 0)
(10.0532 0.052452 0)
(10.0615 0.0537554 0)
(10.0684 0.0543792 0)
(10.0739 0.0547274 0)
(10.0784 0.0549696 0)
(10.0819 0.0552318 0)
(10.0846 0.055678 0)
(10.0865 0.0564454 0)
(10.0878 0.0577687 0)
(10.0886 0.0598246 0)
(10.0896 0.0630791 0)
(10.0911 0.0673776 0)
(10.0948 0.0728365 0)
(10.0004 0.009048 0)
(10.007 0.0273481 0)
(10.0188 0.0368832 0)
(10.0295 0.0420932 0)
(10.0386 0.0463891 0)
(10.0471 0.0493761 0)
(10.0551 0.051023 0)
(10.062 0.0519456 0)
(10.0678 0.0525751 0)
(10.0729 0.0530913 0)
(10.0772 0.0536208 0)
(10.0809 0.0543135 0)
(10.0839 0.0553054 0)
(10.0866 0.056775 0)
(10.089 0.0588587 0)
(10.0917 0.0617798 0)
(10.0949 0.0653888 0)
(10.0998 0.0693658 0)
(10.0004 0.00803994 0)
(10.0059 0.0236901 0)
(10.0158 0.0332901 0)
(10.0257 0.0389324 0)
(10.0341 0.0432477 0)
(10.0421 0.0463004 0)
(10.0496 0.0481431 0)
(10.0563 0.049293 0)
(10.0622 0.0501442 0)
(10.0674 0.0508753 0)
(10.0721 0.0516106 0)
(10.0762 0.0524846 0)
(10.0799 0.0536208 0)
(10.0832 0.0551484 0)
(10.0865 0.0571564 0)
(10.09 0.0597223 0)
(10.0941 0.0626872 0)
(10.0993 0.0656349 0)
(10.0004 0.00710575 0)
(10.005 0.020787 0)
(10.0134 0.030097 0)
(10.0223 0.0358255 0)
(10.0302 0.0400414 0)
(10.0377 0.04312 0)
(10.0448 0.0451406 0)
(10.0513 0.0464955 0)
(10.0572 0.0475335 0)
(10.0624 0.0484374 0)
(10.0671 0.0493311 0)
(10.0715 0.0503343 0)
(10.0755 0.0515519 0)
(10.0793 0.0530731 0)
(10.0831 0.054945 0)
(10.087 0.0571647 0)
(10.0915 0.059575 0)
(10.0967 0.061792 0)
(10.0004 0.00629675 0)
(10.0042 0.0182701 0)
(10.0114 0.0270078 0)
(10.0193 0.032677 0)
(10.0268 0.0368132 0)
(10.0338 0.0399066 0)
(10.0406 0.0420625 0)
(10.0468 0.0435817 0)
(10.0525 0.0447695 0)
(10.0577 0.0458095 0)
(10.0625 0.0468221 0)
(10.067 0.0479118 0)
(10.0712 0.0491633 0)
(10.0753 0.0506355 0)
(10.0793 0.0523442 0)
(10.0836 0.0542479 0)
(10.0881 0.0562052 0)
(10.0932 0.0579033 0)
(10.0003 0.00555878 0)
(10.0036 0.0160066 0)
(10.0097 0.0240534 0)
(10.0168 0.029567 0)
(10.0237 0.0336081 0)
(10.0303 0.0366748 0)
(10.0367 0.0389065 0)
(10.0427 0.0405426 0)
(10.0483 0.0418454 0)
(10.0535 0.0429892 0)
(10.0583 0.0440865 0)
(10.0628 0.0452268 0)
(10.0672 0.0464763 0)
(10.0714 0.0478723 0)
(10.0756 0.0494119 0)
(10.08 0.0510398 0)
(10.0845 0.0526419 0)
(10.0894 0.0539745 0)
(10.0003 0.00491395 0)
(10.0031 0.014116 0)
(10.0084 0.0214919 0)
(10.0148 0.0267795 0)
(10.0212 0.0306946 0)
(10.0274 0.0336987 0)
(10.0335 0.0359554 0)
(10.0393 0.0376611 0)
(10.0448 0.0390393 0)
(10.0499 0.0402514 0)
(10.0547 0.0414009 0)
(10.0593 0.042562 0)
(10.0637 0.0437869 0)
(10.0681 0.0451007 0)
(10.0724 0.0464919 0)
(10.0767 0.0479081 0)
(10.0812 0.0492595 0)
(10.0859 0.05036 0)
(10.0003 0.00432068 0)
(10.0027 0.0123816 0)
(10.0073 0.0190611 0)
(10.013 0.0240442 0)
(10.019 0.0277943 0)
(10.0249 0.0307045 0)
(10.0307 0.0329486 0)
(10.0363 0.0346892 0)
(10.0417 0.0361119 0)
(10.0467 0.0373638 0)
(10.0515 0.0385395 0)
(10.0561 0.0397012 0)
(10.0606 0.0408865 0)
(10.065 0.0421125 0)
(10.0693 0.0433667 0)
(10.0737 0.0446054 0)
(10.0781 0.0457633 0)
(10.0826 0.046691 0)
(10.0002 0.00370926 0)
(10.0023 0.0105809 0)
(10.0063 0.0164548 0)
(10.0114 0.0210112 0)
(10.0169 0.024516 0)
(10.0224 0.0272723 0)
(10.0279 0.0294519 0)
(10.0333 0.0311886 0)
(10.0385 0.0326262 0)
(10.0435 0.0338895 0)
(10.0483 0.0350674 0)
(10.0529 0.0362093 0)
(10.0574 0.0373418 0)
(10.0618 0.0384714 0)
(10.0661 0.0395905 0)
(10.0704 0.0406669 0)
(10.0747 0.0416635 0)
(10.0791 0.042456 0)
(10.0002 0.00307416 0)
(10.002 0.00870699 0)
(10.0054 0.0136738 0)
(10.0099 0.0176706 0)
(10.0149 0.0208263 0)
(10.02 0.0233495 0)
(10.0252 0.0253906 0)
(10.0304 0.0270623 0)
(10.0354 0.0284685 0)
(10.0403 0.0297055 0)
(10.045 0.0308477 0)
(10.0497 0.0319392 0)
(10.0541 0.0329977 0)
(10.0585 0.0340258 0)
(10.0629 0.0350147 0)
(10.0671 0.0359495 0)
(10.0713 0.0368114 0)
(10.0755 0.0375065 0)
(10.0002 0.0024119 0)
(10.0017 0.00675764 0)
(10.0046 0.0107181 0)
(10.0086 0.014015 0)
(10.0131 0.0166954 0)
(10.0179 0.018885 0)
(10.0228 0.0206957 0)
(10.0277 0.0222189 0)
(10.0326 0.0235282 0)
(10.0374 0.0246884 0)
(10.0421 0.0257514 0)
(10.0466 0.0267567 0)
(10.0511 0.0277187 0)
(10.0555 0.0286392 0)
(10.0597 0.0295109 0)
(10.0639 0.0303266 0)
(10.068 0.0310851 0)
(10.072 0.0317095 0)
(10.0002 0.00171532 0)
(10.0015 0.00471283 0)
(10.004 0.00755878 0)
(10.0076 0.0100099 0)
(10.0117 0.012069 0)
(10.0162 0.0138004 0)
(10.0208 0.0152717 0)
(10.0255 0.016545 0)
(10.0302 0.0176713 0)
(10.0349 0.0186859 0)
(10.0395 0.0196212 0)
(10.0441 0.0205011 0)
(10.0485 0.0213416 0)
(10.0528 0.0221427 0)
(10.057 0.0229031 0)
(10.0611 0.023616 0)
(10.0652 0.024291 0)
(10.069 0.0248615 0)
(10.0001 0.000962827 0)
(10.0013 0.00251092 0)
(10.0036 0.00410837 0)
(10.0069 0.00555157 0)
(10.0108 0.00682384 0)
(10.015 0.00794819 0)
(10.0195 0.00895194 0)
(10.024 0.00986182 0)
(10.0287 0.0107036 0)
(10.0332 0.0114927 0)
(10.0378 0.0122401 0)
(10.0423 0.0129545 0)
(10.0467 0.0136442 0)
(10.051 0.0143097 0)
(10.0551 0.0149504 0)
(10.0592 0.0155627 0)
(10.0632 0.0161553 0)
(10.067 0.0166715 0)
(10.0001 0.000102565 0)
(10.0013 1.55707e-05 0)
(10.0035 0.000163415 0)
(10.0067 0.000400087 0)
(10.0105 0.000706087 0)
(10.0147 0.00106622 0)
(10.0191 0.00146885 0)
(10.0237 0.00190078 0)
(10.0283 0.00236062 0)
(10.0329 0.00284075 0)
(10.0374 0.00333713 0)
(10.0419 0.00383977 0)
(10.0463 0.00434734 0)
(10.0506 0.00485328 0)
(10.0548 0.00535794 0)
(10.0588 0.00585481 0)
(10.0628 0.00635119 0)
(10.0665 0.00679404 0)
(10.0002 -0.000737331 0)
(10.0014 -0.00240013 0)
(10.0038 -0.00367614 0)
(10.0072 -0.00461877 0)
(10.0113 -0.00524685 0)
(10.0157 -0.00561824 0)
(10.0203 -0.00579225 0)
(10.025 -0.00580699 0)
(10.0297 -0.00570112 0)
(10.0344 -0.00549887 0)
(10.039 -0.00523112 0)
(10.0436 -0.00491415 0)
(10.048 -0.00456915 0)
(10.0524 -0.00419835 0)
(10.0566 -0.00381407 0)
(10.0606 -0.00341541 0)
(10.0646 -0.00300998 0)
(10.0684 -0.00263568 0)
(10.0002 -0.00146909 0)
(10.0015 -0.00452287 0)
(10.0043 -0.00705338 0)
(10.0081 -0.00897022 0)
(10.0125 -0.0103154 0)
(10.0173 -0.0112368 0)
(10.0221 -0.0118387 0)
(10.0271 -0.0121769 0)
(10.032 -0.0123097 0)
(10.0368 -0.0122885 0)
(10.0416 -0.0121625 0)
(10.0462 -0.0119635 0)
(10.0507 -0.0117196 0)
(10.0551 -0.0114384 0)
(10.0594 -0.0111332 0)
(10.0635 -0.0108075 0)
(10.0675 -0.0104697 0)
(10.0713 -0.0101551 0)
(10.0002 -0.00216661 0)
(10.0017 -0.00662358 0)
(10.0049 -0.0104289 0)
(10.0093 -0.0132306 0)
(10.0143 -0.0151431 0)
(10.0194 -0.0164763 0)
(10.0246 -0.017387 0)
(10.0299 -0.0179547 0)
(10.035 -0.0182544 0)
(10.0401 -0.0183641 0)
(10.0449 -0.018336 0)
(10.0497 -0.0182202 0)
(10.0543 -0.018039 0)
(10.0587 -0.0178192 0)
(10.063 -0.0175624 0)
(10.0672 -0.0172914 0)
(10.0712 -0.0170005 0)
(10.075 -0.016733 0)
(10.0002 -0.00282082 0)
(10.0018 -0.0087487 0)
(10.0056 -0.0138236 0)
(10.0109 -0.0174076 0)
(10.0165 -0.019836 0)
(10.0221 -0.0215266 0)
(10.0277 -0.022633 0)
(10.0332 -0.0232861 0)
(10.0386 -0.0236408 0)
(10.0438 -0.0238024 0)
(10.0488 -0.023829 0)
(10.0537 -0.0237598 0)
(10.0583 -0.0236243 0)
(10.0628 -0.0234414 0)
(10.0672 -0.023227 0)
(10.0714 -0.022993 0)
(10.0754 -0.0227472 0)
(10.0792 -0.0225134 0)
(10.0001 -0.00339962 0)
(10.0019 -0.0112658 0)
(10.0065 -0.0173756 0)
(10.0127 -0.0212241 0)
(10.019 -0.0240328 0)
(10.0251 -0.0261764 0)
(10.0311 -0.0275378 0)
(10.037 -0.0282567 0)
(10.0426 -0.0286018 0)
(10.0479 -0.0287402 0)
(10.0531 -0.0287474 0)
(10.058 -0.0286628 0)
(10.0627 -0.0285221 0)
(10.0673 -0.0283409 0)
(10.0717 -0.0281401 0)
(10.0758 -0.0279237 0)
(10.0799 -0.0277052 0)
(10.0837 -0.0274895 0)
(9.99993 -0.00327827 0)
(10.0017 -0.0147417 0)
(10.0075 -0.022323 0)
(10.0147 -0.0256418 0)
(10.0213 -0.0280172 0)
(10.0279 -0.0301639 0)
(10.0346 -0.0316679 0)
(10.041 -0.0325326 0)
(10.047 -0.0329929 0)
(10.0525 -0.033202 0)
(10.0578 -0.0332363 0)
(10.0628 -0.0331533 0)
(10.0676 -0.0329992 0)
(10.0721 -0.0328049 0)
(10.0763 -0.032588 0)
(10.0803 -0.0323631 0)
(10.0842 -0.0321341 0)
(10.0878 -0.0319114 0)
(9.99862 -0.000321953 0)
(9.99916 -0.0155853 0)
(10.0078 -0.0271205 0)
(10.0171 -0.0320402 0)
(10.0245 -0.0342573 0)
(10.0317 -0.035437 0)
(10.0391 -0.0360091 0)
(10.0461 -0.0362985 0)
(10.0524 -0.0364648 0)
(10.0581 -0.0365192 0)
(10.0633 -0.0364626 0)
(10.0681 -0.0363182 0)
(10.0724 -0.0361232 0)
(10.0764 -0.0358976 0)
(10.08 -0.0356567 0)
(10.0833 -0.0354142 0)
(10.0863 -0.0351711 0)
(10.0891 -0.0349393 0)
(9.9949 0.00138837 0)
(9.99296 -0.00797281 0)
(10.0063 -0.0201333 0)
(10.0206 -0.031945 0)
(10.0314 -0.0400354 0)
(10.0403 -0.0435875 0)
(10.0482 -0.0443641 0)
(10.0548 -0.044078 0)
(10.0603 -0.0434673 0)
(10.0647 -0.0427245 0)
(10.0683 -0.0419256 0)
(10.0712 -0.0411294 0)
(10.0734 -0.0403732 0)
(10.075 -0.0396632 0)
(10.0761 -0.0390063 0)
(10.0769 -0.0384041 0)
(10.0773 -0.0378585 0)
(10.0774 -0.037345 0)
(9.99474 -0.0305275 0)
(9.99932 -0.0227825 0)
(10.0149 -0.0024854 0)
(10.0308 -0.001667 0)
(10.0441 -0.0113246 0)
(10.0543 -0.0205053 0)
(10.0607 -0.0267758 0)
(10.0636 -0.0309088 0)
(10.0638 -0.0335812 0)
(10.0619 -0.0351689 0)
(10.0585 -0.0359855 0)
(10.0539 -0.0363086 0)
(10.0483 -0.0363235 0)
(10.0421 -0.0361477 0)
(10.0354 -0.0358657 0)
(10.0283 -0.0355365 0)
(10.0211 -0.0352274 0)
(10.0137 -0.0349121 0)
(10.0273 -0.182735 0)
(10.0763 -0.288267 0)
(10.0872 -0.247659 0)
(10.078 -0.186384 0)
(10.0668 -0.140097 0)
(10.0544 -0.107952 0)
(10.0375 -0.0855526 0)
(10.016 -0.0700353 0)
(9.99129 -0.0592046 0)
(9.96481 -0.0513571 0)
(9.93746 -0.045459 0)
(9.90981 -0.0408935 0)
(9.88237 -0.0372748 0)
(9.85547 -0.0343364 0)
(9.82935 -0.0319047 0)
(9.80409 -0.0299122 0)
(9.77996 -0.0283155 0)
(9.7569 -0.0274286 0)
(9.93577 0.68933 0)
(9.86874 0.609639 0)
(9.76491 0.380705 0)
(9.62739 0.217546 0)
(9.48714 0.119399 0)
(9.35906 0.0633605 0)
(9.24525 0.0317829 0)
(9.14451 0.0138493 0)
(9.05575 0.00352455 0)
(8.9778 -0.00250016 0)
(8.90898 -0.00601587 0)
(8.84795 -0.00810136 0)
(8.79346 -0.00931946 0)
(8.74463 -0.0100403 0)
(8.70056 -0.0105026 0)
(8.66059 -0.0107371 0)
(8.62383 -0.0109099 0)
(8.58986 -0.0115174 0)
(0.0162437 -0.0133285 -4.45959e-19)
(0.0556041 -0.0391725 1.97407e-19)
(0.0924031 -0.0496384 0)
(0.137564 -0.0517974 0)
(0.179336 -0.0502924 0)
(0.215203 -0.0506684 -7.93393e-20)
(0.243018 -0.0634054 0)
(0.269439 -0.0689929 0)
(0.294943 -0.0465279 0)
(0.307854 -0.0302403 0)
(0.312913 -0.0151559 1.47045e-19)
(0.308587 -0.000519451 0)
(0.296547 0.0123612 0)
(0.27817 0.0225084 0)
(0.255416 0.0292911 0)
(0.233861 0.0359299 1.6719e-19)
(0.192261 0.0548426 0)
(0.145727 0.0578574 0)
(0.110978 0.0485364 0)
(0.0741009 0.0465802 0)
(0.0433157 0.0571139 0)
(0.0136835 0.0631243 0)
(-0.060972 0.054094 0)
(-0.104671 0.0558367 2.10116e-19)
(-0.163683 0.0601161 -1.77421e-19)
(-0.231557 0.0656473 1.51393e-19)
(-0.306987 0.0718218 1.3074e-19)
(-0.389449 0.078176 0)
(-0.478197 0.0842944 0)
(-0.572203 0.089762 -8.98775e-20)
(-0.670321 0.0942443 -8.08886e-20)
(-0.771201 0.0973996 0)
(-0.873632 0.099179 0)
(-0.976407 0.099615 -6.22959e-20)
(-1.07846 0.0988147 0)
(-1.17889 0.0969487 0)
(-1.27701 0.0942401 5.13981e-20)
(-1.37229 0.0909173 0)
(-1.4644 0.0872006 4.65834e-20)
(-1.55316 0.083275 8.93243e-20)
(-1.63852 0.079299 0)
(-1.72054 0.0753928 0)
(-1.79936 0.0716493 0)
(-1.87514 0.0681296 0)
(-1.94812 0.0648736 0)
(-2.01856 0.0619029 7.41951e-20)
(-2.08671 0.0592274 7.24934e-20)
(-2.15282 0.0568435 7.09365e-20)
(-2.21715 0.0547435 0)
(-2.27995 0.0529117 -6.81744e-20)
(-2.34144 0.0513312 0)
(-2.40186 0.0499835 6.5781e-20)
(-2.46139 0.0488562 6.46938e-20)
(-2.52021 0.0479303 0)
(-2.57849 0.0471881 0)
(-2.63638 0.0466117 0)
(-2.69402 0.0461927 6.0895e-20)
(-2.75151 0.0459152 0)
(-2.80896 0.0457654 0)
(-2.86645 0.0457279 0)
(-2.92405 0.0457978 0)
(-2.98179 0.0459577 0)
(-3.0397 0.0461936 0)
(-3.09779 0.0464812 0)
(-3.15609 0.0468036 0)
(-3.21456 0.0471324 -5.45553e-20)
(-3.27318 0.0474478 0)
(-3.33188 0.0477182 0)
(-3.39061 0.0479183 5.30404e-20)
(-3.44927 0.0480128 5.26043e-20)
(-3.50774 0.0479687 0)
(-3.56592 0.0477492 -5.18322e-20)
(-3.62365 0.0473193 5.14928e-20)
(-3.68079 0.046656 0)
(-3.73713 0.0457386 -5.08969e-20)
(-3.79246 0.0445613 0)
(-3.84651 0.0431275 0)
(-3.89899 0.0414469 5.02004e-20)
(-3.9496 0.0395324 0)
(-3.99802 0.0374043 -4.98767e-20)
(-4.04387 0.0350877 0)
(-4.08678 0.0326027 4.9685e-20)
(-4.12631 0.0299625 4.96453e-20)
(-4.16201 0.0271651 4.96434e-20)
(-4.19332 0.0242214 9.93613e-20)
(-4.21969 0.0211072 -9.95049e-20)
(-4.24048 0.0178731 0)
(-4.25516 0.0145242 0)
(-4.26315 0.0112265 0)
(-4.26485 0.00812254 -1.00081e-19)
(-4.2607 0.00494733 -1.00052e-19)
(-4.25065 0.00161915 9.99375e-20)
(-4.23448 -0.00193133 0)
(-4.21193 -0.00570441 -9.93417e-20)
(-4.18272 -0.00970835 -9.87942e-20)
(-4.14661 -0.0139191 -9.80325e-20)
(-4.10338 -0.0184091 0)
(-4.05287 -0.023006 0)
(-3.99494 -0.0279704 0)
(-3.92949 -0.0329364 -9.19688e-20)
(-3.85657 -0.0378532 0)
(-3.77612 -0.0431141 0)
(-3.68825 -0.0483555 8.29706e-20)
(-3.59313 -0.0536223 0)
(-3.49098 -0.0588209 0)
(-3.38211 -0.0639198 6.85883e-20)
(-3.26682 -0.0688712 0)
(-3.14551 -0.0736279 0)
(-3.01862 -0.0781331 -4.74837e-20)
(-2.88663 -0.0823503 -3.87249e-20)
(-2.75009 -0.0862398 0)
(-2.60958 -0.0897829 1.83509e-20)
(-2.46569 -0.0929638 0)
(-2.31904 -0.0957604 6.17127e-21)
(-2.17028 -0.0981523 0)
(-2.02003 -0.100124 3.53245e-20)
(-1.86895 -0.101698 5.18376e-20)
(-1.71772 -0.102873 0)
(-1.56694 -0.103696 0)
(-1.41713 -0.104139 0)
(-1.26871 -0.10426 0)
(-1.12206 -0.104103 0)
(-0.977634 -0.103702 0)
(-0.835841 -0.103099 0)
(-0.697029 -0.10238 2.5374e-19)
(-0.56149 -0.101532 -2.93033e-19)
(-0.429417 -0.100579 0)
(-0.300715 -0.0995113 0)
(-0.17643 -0.0985662 0)
(-0.0533462 -0.0963167 0)
(0.0701264 -0.0918094 -9.1667e-19)
(0.189245 -0.0861874 0)
(0.303509 -0.0805436 8.33397e-19)
(0.412705 -0.0751464 -8.01793e-19)
(0.51674 -0.0700866 0)
(0.615707 -0.0653374 0)
(0.709771 -0.0609275 0)
(0.799108 -0.0568207 7.12793e-19)
(0.883902 -0.0530214 6.96544e-19)
(0.964341 -0.0494698 0)
(1.04073 -0.0461584 6.68682e-19)
(1.11331 -0.0430909 6.56613e-19)
(1.18233 -0.0402559 -6.45553e-19)
(1.24797 -0.0376078 0)
(1.31038 -0.035134 0)
(1.36971 -0.0328323 -6.17148e-19)
(1.42613 -0.0306868 0)
(1.47981 -0.0286962 0)
(1.53089 -0.0268367 0)
(1.57954 -0.0250897 0)
(1.62589 -0.023474 5.81416e-19)
(1.67008 -0.0219915 5.75601e-19)
(1.71225 -0.0206279 0)
(1.75254 -0.0193635 5.64964e-19)
(1.79108 -0.0181748 0)
(1.82801 -0.0170732 0)
(1.86345 -0.0160773 5.51085e-19)
(1.89749 -0.0151537 0)
(1.93026 -0.0142994 5.42968e-19)
(1.96186 -0.0135148 0)
(1.9924 -0.0128 0)
(2.02196 -0.0121457 5.32075e-19)
(2.05063 -0.0115463 0)
(2.07849 -0.0110133 5.255e-19)
(2.10561 -0.0105013 0)
(2.13206 -0.01002 0)
(2.15791 -0.00960837 0)
(2.18315 -0.00920441 -5.13619e-19)
(2.20782 -0.00880463 0)
(2.23192 -0.00844698 5.08297e-19)
(2.25535 -0.00805451 0)
(2.27802 -0.00757569 0)
(2.29972 -0.00708575 0)
(2.32005 -0.0065061 0)
(2.3385 -0.00568159 0)
(2.35336 -0.00446246 0)
(2.36448 -0.0018572 0)
(2.35804 0.00377271 -1.0066e-18)
(2.34031 0.0160668 0)
(2.22033 0.0329936 0)
(0.0274982 -0.111369 1.02261e-18)
(0.0767289 -0.148924 -4.43516e-19)
(0.114687 -0.142846 0)
(0.148557 -0.127929 1.34717e-19)
(0.176006 -0.109739 0)
(0.196595 -0.0899948 5.11765e-20)
(0.209225 -0.0705539 -1.01956e-19)
(0.213377 -0.0520397 -1.11702e-19)
(0.212383 -0.0320489 0)
(0.207057 -0.0112417 -1.20441e-19)
(0.196665 0.00982647 -6.08692e-20)
(0.182044 0.0301143 0)
(0.162227 0.0483158 0)
(0.136899 0.0638243 0)
(0.105741 0.0765364 0)
(0.0683853 0.0862206 -6.32409e-20)
(0.0262718 0.0930674 0)
(-0.0146139 0.0959591 1.01134e-19)
(-0.061584 0.0998645 0)
(-0.117966 0.107926 0)
(-0.181556 0.125708 -8.48936e-20)
(-0.260942 0.153407 0)
(-0.347103 0.171363 9.02031e-20)
(-0.439993 0.186494 -4.35596e-20)
(-0.535987 0.201664 4.12384e-20)
(-0.634962 0.21647 -3.89174e-20)
(-0.736456 0.230068 -3.67098e-20)
(-0.839568 0.241615 0)
(-0.94323 0.250461 0)
(-1.04637 0.256221 3.10564e-20)
(-1.14793 0.258854 -2.90707e-20)
(-1.24715 0.258515 0)
(-1.34344 0.255438 0)
(-1.4363 0.250071 2.57639e-20)
(-1.52547 0.242914 0)
(-1.61086 0.234457 0)
(-1.69251 0.225155 -2.3113e-20)
(-1.77054 0.215413 0)
(-1.84516 0.205573 2.15053e-20)
(-1.91662 0.195903 -4.24913e-20)
(-1.98519 0.186607 0)
(-2.05115 0.177826 0)
(-2.11479 0.169654 -7.90774e-20)
(-2.17636 0.16214 -7.7631e-20)
(-2.23613 0.155304 -7.63152e-20)
(-2.29433 0.149138 3.72975e-20)
(-2.35119 0.143623 -3.72652e-20)
(-2.4069 0.138725 -1.09761e-19)
(-2.46164 0.134404 7.20678e-20)
(-2.51557 0.130612 3.58596e-20)
(-2.56884 0.127305 0)
(-2.62158 0.124432 -3.50862e-20)
(-2.67389 0.12195 3.42157e-20)
(-2.72585 0.119813 0)
(-2.77756 0.117977 0)
(-2.82907 0.116394 0)
(-2.88043 0.11503 -3.35552e-20)
(-2.93167 0.113843 0)
(-2.98281 0.112798 6.55859e-20)
(-3.03386 0.111852 0)
(-3.08482 0.110983 6.47077e-20)
(-3.13565 0.110155 0)
(-3.18632 0.109345 -6.39315e-20)
(-3.2368 0.108519 0)
(-3.28702 0.107654 6.32574e-20)
(-3.33692 0.106719 -3.11959e-20)
(-3.38641 0.105698 0)
(-3.43541 0.104562 -6.24518e-20)
(-3.48379 0.103293 -3.14192e-20)
(-3.53143 0.101864 -3.13347e-20)
(-3.5782 0.100248 0)
(-3.62394 0.0984099 -3.05827e-20)
(-3.66849 0.0963115 -3.11626e-20)
(-3.71169 0.0939149 0)
(-3.75335 0.0911809 3.11021e-20)
(-3.79329 0.0880761 -6.15604e-20)
(-3.83128 0.0845737 0)
(-3.8671 0.0806446 -3.1071e-20)
(-3.90054 0.07626 0)
(-3.93137 0.0713908 9.27704e-20)
(-3.95938 0.066016 0)
(-3.98437 0.0601138 -9.30102e-20)
(-4.0062 0.0536718 -3.11871e-20)
(-4.02474 0.0466829 3.08745e-20)
(-4.03994 0.0391927 6.1897e-20)
(-4.05177 0.0312487 -6.20304e-20)
(-4.06025 0.0229926 0)
(-4.06525 0.014523 0)
(-4.06658 0.006044 0)
(-4.0632 -0.00244446 1.87863e-19)
(-4.05439 -0.0111178 6.27085e-20)
(-4.03988 -0.0200737 -6.24771e-20)
(-4.01938 -0.0293472 0)
(-3.99255 -0.0388724 -6.13181e-20)
(-3.95912 -0.0486246 6.11651e-20)
(-3.91883 -0.0585341 6.04591e-20)
(-3.87147 -0.0685657 0)
(-3.81684 -0.0786477 0)
(-3.75482 -0.0887498 0)
(-3.68533 -0.098774 5.57349e-20)
(-3.60827 -0.108663 0)
(-3.52369 -0.11833 -1.04994e-19)
(-3.43168 -0.127647 -1.50345e-19)
(-3.33235 -0.136578 9.57034e-20)
(-3.22599 -0.145108 0)
(-3.11285 -0.153114 4.2992e-20)
(-2.99326 -0.160491 0)
(-2.86764 -0.167204 6.91833e-20)
(-2.73645 -0.173186 -3.19427e-20)
(-2.60022 -0.178404 -2.75471e-20)
(-2.45952 -0.182812 0)
(-2.31496 -0.186382 -4.54797e-20)
(-2.16717 -0.189095 2.05074e-20)
(-2.01685 -0.190965 2.28152e-21)
(-1.86465 -0.192009 0)
(-1.71125 -0.192235 -1.04823e-20)
(-1.5573 -0.191686 -4.71159e-20)
(-1.40347 -0.190411 0)
(-1.25035 -0.188479 -5.8197e-20)
(-1.09847 -0.185944 -7.30409e-20)
(-0.948262 -0.18289 -8.83017e-20)
(-0.800152 -0.179368 0)
(-0.654549 -0.175474 0)
(-0.511849 -0.171306 0)
(-0.372363 -0.166975 7.41574e-20)
(-0.236348 -0.162539 8.75768e-20)
(-0.103612 -0.158263 0)
(0.0262204 -0.154348 1.96414e-19)
(0.152379 -0.150713 2.03233e-19)
(0.273423 -0.14618 0)
(0.388743 -0.14004 2.19389e-19)
(0.498863 -0.132953 4.43178e-19)
(0.604612 -0.125694 -2.30185e-19)
(0.706179 -0.118545 -2.28944e-19)
(0.803585 -0.111667 0)
(0.89687 -0.105095 0)
(0.986101 -0.0988742 0)
(1.07136 -0.092992 -2.50225e-19)
(1.15273 -0.0874581 2.48838e-19)
(1.23038 -0.0822423 5.07688e-19)
(1.30446 -0.0773448 -2.58268e-19)
(1.37516 -0.0727484 2.56911e-19)
(1.44266 -0.0684339 2.62378e-19)
(1.50709 -0.0643883 0)
(1.56857 -0.0605924 0)
(1.62725 -0.0570427 -2.64337e-19)
(1.68325 -0.0537214 0)
(1.73673 -0.0506228 0)
(1.7878 -0.0477309 5.38102e-19)
(1.83661 -0.0450317 0)
(1.88329 -0.042519 2.69943e-19)
(1.92799 -0.0401873 -2.7248e-19)
(1.97082 -0.038022 0)
(2.01191 -0.0360172 2.72163e-19)
(2.05139 -0.034165 0)
(2.08937 -0.0324613 0)
(2.12595 -0.0308988 -2.74923e-19)
(2.16126 -0.0294559 5.49405e-19)
(2.19539 -0.0281283 -2.75552e-19)
(2.22846 -0.0269126 0)
(2.26054 -0.0258017 0)
(2.29173 -0.0247866 2.75307e-19)
(2.32212 -0.0238522 0)
(2.35177 -0.0230004 2.7563e-19)
(2.38076 -0.022216 0)
(2.40915 -0.0214899 0)
(2.43699 -0.0208245 0)
(2.46431 -0.0201827 2.76468e-19)
(2.49112 -0.0195428 0)
(2.5174 -0.0188983 -2.76405e-19)
(2.5431 -0.0182012 0)
(2.5681 -0.0173875 0)
(2.5922 -0.016404 5.52554e-19)
(2.61507 -0.0151099 -5.53017e-19)
(2.63623 -0.0132231 0)
(2.65466 -0.0103448 0)
(2.66935 -0.00503156 0)
(2.67852 0.00477863 1.68851e-18)
(2.68792 0.0252468 0)
(2.6698 0.0626854 -1.16394e-18)
(0.0257617 -0.216608 -5.11902e-23)
(0.0614066 -0.236324 4.38347e-19)
(0.0841807 -0.208015 0)
(0.102166 -0.176179 -2.07357e-19)
(0.114449 -0.144156 0)
(0.120669 -0.11239 0)
(0.120843 -0.0811199 7.44901e-23)
(0.114953 -0.0498621 7.08049e-20)
(0.103708 -0.0182604 7.0133e-20)
(0.0877038 0.0129523 7.00025e-20)
(0.0671516 0.0432981 0)
(0.0421158 0.0723769 0)
(0.0124708 0.0998083 -7.08766e-20)
(-0.0219644 0.125263 -1.41675e-19)
(-0.0614666 0.148633 1.38645e-19)
(-0.106515 0.170116 0)
(-0.157449 0.18961 1.27558e-19)
(-0.214519 0.207425 -6.06204e-20)
(-0.27934 0.226719 0)
(-0.351558 0.249521 1.11206e-19)
(-0.429506 0.275945 5.39865e-20)
(-0.511803 0.302708 -1.04071e-19)
(-0.597238 0.326046 -5.03957e-20)
(-0.686089 0.347638 0)
(-0.77689 0.36725 9.18581e-20)
(-0.868239 0.384082 8.77497e-20)
(-0.958948 0.397382 0)
(-1.04804 0.406596 8.01524e-20)
(-1.13478 0.411459 0)
(-1.21867 0.411997 7.35979e-20)
(-1.29946 0.408485 3.55188e-20)
(-1.37702 0.401434 0)
(-1.45138 0.391464 0)
(-1.52269 0.379241 0)
(-1.59115 0.365434 0)
(-1.65699 0.35066 0)
(-1.72045 0.335458 0)
(-1.78173 0.320272 5.66893e-20)
(-1.84104 0.305458 -8.3198e-20)
(-1.89858 0.291277 0)
(-1.95451 0.277912 0)
(-2.00898 0.265478 0)
(-2.06214 0.254037 2.88775e-22)
(-2.11412 0.243607 5.07209e-20)
(-2.16505 0.234174 9.96682e-20)
(-2.21504 0.225701 -9.83119e-20)
(-2.26419 0.218138 -4.83805e-20)
(-2.31262 0.211422 4.81133e-20)
(-2.36042 0.205489 -3.12237e-22)
(-2.40768 0.200268 4.67824e-20)
(-2.45447 0.195691 0)
(-2.50088 0.191688 4.5905e-20)
(-2.54697 0.188196 -3.29661e-22)
(-2.5928 0.185149 0)
(-2.63841 0.182485 0)
(-2.68386 0.180143 -4.44953e-20)
(-2.72917 0.178069 0)
(-2.77437 0.176206 0)
(-2.81947 0.174502 4.33338e-20)
(-2.86448 0.172902 8.69091e-20)
(-2.9094 0.171363 -4.35953e-20)
(-2.9542 0.169835 0)
(-2.99887 0.168274 4.32221e-20)
(-3.04336 0.166635 0)
(-3.08765 0.164879 4.22106e-20)
(-3.13168 0.162961 4.27901e-20)
(-3.17539 0.160849 -8.46545e-20)
(-3.21871 0.158505 -4.18794e-20)
(-3.26155 0.155897 0)
(-3.30381 0.152987 8.42131e-20)
(-3.3454 0.149744 0)
(-3.3862 0.146129 1.26521e-19)
(-3.42609 0.142107 8.40939e-20)
(-3.46493 0.137638 8.41183e-20)
(-3.50259 0.132688 -8.41703e-20)
(-3.53892 0.127225 1.26752e-19)
(-3.57375 0.121228 0)
(-3.6069 0.11467 0)
(-3.63819 0.107532 -8.46307e-20)
(-3.66744 0.0997953 -1.27552e-19)
(-3.69444 0.0914522 0)
(-3.71899 0.0824946 4.29187e-20)
(-3.7409 0.0729243 0)
(-3.75997 0.0627482 -1.28765e-19)
(-3.77596 0.0519949 -5.30006e-22)
(-3.78862 0.040685 5.02226e-22)
(-3.79766 0.0288497 8.62333e-20)
(-3.80265 0.0164882 0)
(-3.80311 0.00359853 -8.61852e-20)
(-3.79851 -0.0098528 -3.47854e-22)
(-3.78856 -0.0238812 0)
(-3.77304 -0.0384708 0)
(-3.75164 -0.0535664 0)
(-3.72403 -0.0690953 8.42909e-20)
(-3.68992 -0.0849722 0)
(-3.64905 -0.101111 0)
(-3.60119 -0.117415 0)
(-3.54615 -0.133782 0)
(-3.48379 -0.150116 0)
(-3.41402 -0.166313 7.59013e-20)
(-3.33677 -0.182242 0)
(-3.25209 -0.197758 6.99455e-20)
(-3.16002 -0.212681 6.67728e-20)
(-3.06072 -0.226879 -6.31921e-20)
(-2.95446 -0.240299 0)
(-2.8415 -0.252799 -5.47916e-20)
(-2.72221 -0.264226 0)
(-2.597 -0.274481 -4.47632e-20)
(-2.46637 -0.283475 3.9135e-20)
(-2.33086 -0.291139 1.03712e-19)
(-2.19105 -0.29742 0)
(-2.04759 -0.302285 6.4763e-20)
(-1.90113 -0.30571 1.79873e-20)
(-1.75235 -0.307708 0)
(-1.60194 -0.30831 1.09707e-21)
(-1.45057 -0.307568 -1.45701e-20)
(-1.29889 -0.305552 4.88711e-20)
(-1.14754 -0.302363 0)
(-0.997109 -0.298096 3.48955e-20)
(-0.848107 -0.292851 4.34288e-20)
(-0.700978 -0.286743 1.50235e-19)
(-0.556131 -0.2799 0)
(-0.413953 -0.272451 0)
(-0.274786 -0.264564 0)
(-0.138885 -0.256429 8.08855e-20)
(-0.00619687 -0.248296 0)
(0.122824 -0.240145 0)
(0.247547 -0.231721 -1.05013e-19)
(0.367731 -0.223028 -1.09992e-19)
(0.48315 -0.214183 0)
(0.593733 -0.205079 0)
(0.69975 -0.195634 -2.46889e-19)
(0.801526 -0.186084 0)
(0.899205 -0.176623 2.62639e-19)
(0.99286 -0.167388 2.66355e-19)
(1.08256 -0.15845 0)
(1.1684 -0.149866 0)
(1.25045 -0.141658 -2.85816e-19)
(1.32883 -0.133842 -2.67797e-21)
(1.40368 -0.126414 -2.50566e-21)
(1.47516 -0.11937 0)
(1.54343 -0.112704 -6.14457e-19)
(1.60864 -0.106403 0)
(1.67092 -0.100458 0)
(1.73041 -0.094851 0)
(1.78724 -0.0895721 3.22694e-19)
(1.84153 -0.0846133 0)
(1.89343 -0.0799649 -6.53476e-19)
(1.94306 -0.0756144 -3.30661e-19)
(1.99057 -0.0715503 0)
(2.03609 -0.0677568 -3.35185e-19)
(2.07975 -0.0642256 0)
(2.12167 -0.0609428 0)
(2.16196 -0.0578958 -1.02042e-18)
(2.20074 -0.0550768 6.82945e-19)
(2.23812 -0.0524779 0)
(2.27421 -0.0500794 6.89001e-19)
(2.30911 -0.0478694 -3.46604e-19)
(2.34294 -0.0458362 0)
(2.37578 -0.0439714 0)
(2.40772 -0.0422639 0)
(2.43884 -0.0406999 -1.05187e-18)
(2.46923 -0.0392688 0)
(2.49895 -0.0379545 -3.52749e-19)
(2.52808 -0.0367497 0)
(2.55667 -0.0356419 0)
(2.58476 -0.0346019 0)
(2.61239 -0.0336043 0)
(2.63955 -0.0326231 0)
(2.66624 -0.0316105 0)
(2.69241 -0.0305106 -7.13294e-19)
(2.71793 -0.029253 0)
(2.74265 -0.0277066 -3.58203e-19)
(2.76629 -0.0256702 1.0761e-18)
(2.78843 -0.0228097 0)
(2.80836 -0.0185088 0)
(2.82537 -0.0114973 -7.25977e-19)
(2.83759 0.000343172 -7.32607e-19)
(2.84925 0.0224725 7.36429e-19)
(2.8491 0.064415 7.56863e-19)
(0.0125995 -0.28738 -1.13242e-18)
(0.0307002 -0.276168 -5.25725e-19)
(0.0370789 -0.23423 -2.2393e-19)
(0.0400094 -0.19111 -8.51367e-20)
(0.039073 -0.148404 0)
(0.0336882 -0.106212 1.27866e-19)
(0.0237899 -0.0645794 -5.93678e-20)
(0.00941306 -0.0234769 0)
(-0.00933314 0.0170846 -5.51187e-20)
(-0.0323688 0.0569242 0)
(-0.0597142 0.0958172 1.03992e-19)
(-0.0914448 0.133531 0)
(-0.127722 0.169827 5.01504e-20)
(-0.168783 0.204539 9.85288e-20)
(-0.214912 0.237648 -9.65229e-20)
(-0.266387 0.269265 0)
(-0.323408 0.299653 -9.14167e-20)
(-0.386139 0.329537 0)
(-0.454334 0.359947 0)
(-0.526897 0.39114 -8.20146e-20)
(-0.602321 0.422363 0)
(-0.679257 0.45184 9.51554e-23)
(-0.756874 0.477723 0)
(-0.834666 0.4996 0)
(-0.911806 0.517157 -9.23888e-23)
(-0.987453 0.530034 -6.39085e-20)
(-1.06094 0.537991 -6.124e-20)
(-1.13183 0.541004 -5.88924e-20)
(-1.19994 0.539285 0)
(-1.26524 0.533253 -1.09048e-19)
(-1.32788 0.523474 0)
(-1.38805 0.510597 -5.08397e-20)
(-1.44602 0.495328 0)
(-1.50204 0.478361 0)
(-1.55634 0.460329 4.64896e-20)
(-1.60912 0.441792 0)
(-1.66057 0.423218 -4.41933e-20)
(-1.71081 0.404989 -1.01311e-22)
(-1.75997 0.387402 8.46833e-20)
(-1.80814 0.370674 -8.29168e-20)
(-1.85539 0.354954 0)
(-1.90179 0.340335 0)
(-1.94741 0.326861 -3.92342e-20)
(-1.9923 0.31454 0)
(-2.03651 0.303351 -3.84002e-20)
(-2.08011 0.293253 3.79107e-20)
(-2.12315 0.284188 3.74583e-20)
(-2.16568 0.276092 0)
(-2.20777 0.268891 -3.6652e-20)
(-2.24948 0.262511 -3.62922e-20)
(-2.29085 0.256875 7.15416e-20)
(-2.33194 0.251907 -3.56473e-20)
(-2.3728 0.247533 -3.53584e-20)
(-2.41348 0.243678 0)
(-2.45401 0.240271 0)
(-2.49443 0.237242 3.46082e-20)
(-2.53477 0.234525 0)
(-2.57506 0.232056 0)
(-2.61531 0.229772 -6.80268e-20)
(-2.65552 0.227609 -6.7692e-20)
(-2.69571 0.225511 0)
(-2.73586 0.22342 0)
(-2.77596 0.221279 0)
(-2.81599 0.219033 0)
(-2.85592 0.216629 -6.64401e-20)
(-2.8957 0.214015 6.58109e-20)
(-2.9353 0.211144 6.61363e-20)
(-2.97465 0.207966 1.31598e-19)
(-3.01368 0.204435 0)
(-3.05232 0.200506 -4.55444e-22)
(-3.09047 0.196131 0)