/*--------------------------------*- C++ -*----------------------------------*\
| =========                 |                                                 |
| \\      /  F ield         | OpenFOAM: The Open Source CFD Toolbox           |
|  \\    /   O peration     | Version:  2312                                  |
|   \\  /    A nd           | Website:  www.openfoam.com                      |
|    \\/     M anipulation  |                                                 |
\*---------------------------------------------------------------------------*/
FoamFile
{
    version     2.0;
    format      ascii;
    arch        "LSB;label=64;scalar=64";
    class       volScalarField;
    location    "40";
    object      p;
}
// * * * * * * * * * * * * * * * * * * * * * * * * * * * * * * * * * * * * * //

dimensions      [0 2 -2 0 0 0 0];

internalField   nonuniform List<scalar> 
404911
(
0.0685223
0.0685805
0.0687174
0.0686565
0.0683232
0.068425
0.0686136
0.0686723
0.068664
0.0686616
0.0690851
0.0685288
0.0682887
0.0683997
0.0684457
0.0685589
0.0692914
0.0690008
0.0685333
0.06841
0.0696174
0.0694504
0.0689943
0.0702422
0.0698812
0.0694711
0.0708315
0.0706231
0.0704486
0.0714262
0.0712014
0.0710125
0.0707602
0.0707136
0.07145
0.0714034
0.0711017
0.0721796
0.071922
0.0716451
0.0714827
0.0724725
0.0722905
0.0721526
0.071947
0.0717401
0.0724789
0.0724001
0.0722703
0.0721821
0.0728202
0.0727049
0.0724503
0.072441
0.0728462
0.0728679
0.0763744
0.0679759
0.0680095
0.0680777
0.0686591
0.0683006
0.0692684
0.0688844
0.0684937
0.0696523
0.0694991
0.0689745
0.070317
0.0697645
0.0708043
0.070518
0.0704248
0.0711872
0.071006
0.0705857
0.0705395
0.0714483
0.0713463
0.072036
0.0716837
0.0723494
0.0721683
0.0720014
0.0725709
0.0724759
0.0729674
0.0727017
0.0724013
0.0728905
0.0728539
0.0758707
0.0759222
0.0758014
0.0765513
0.076302
0.0761021
0.0770665
0.0768722
0.0763971
0.0775961
0.0774693
0.0770886
0.0774472
0.0270699
0.0267017
0.0264408
0.0285493
0.0282081
0.0276486
0.0276388
0.0272883
0.0269815
0.0268061
0.026365
0.0293503
0.0290871
0.0282657
0.0278505
0.0275733
0.0274508
0.0271368
0.0269091
0.0253422
0.0301843
0.0298806
0.0297091
0.0294887
0.0292985
0.0292079
0.0286444
0.0280571
0.0276901
0.0275954
0.0273589
0.0270127
0.0262973
0.0254475
0.0253628
0.0254634
0.0308467
0.0305049
0.0302339
0.0299798
0.0297786
0.0295772
0.0293846
0.0291964
0.028888
0.0283201
0.0280831
0.0277701
0.0275306
0.0271086
0.0252785
0.0318629
0.0312876
0.030854
0.0304755
0.030149
0.0300108
0.0298319
0.029619
0.0294012
0.0291927
0.0288417
0.0284841
0.0282507
0.0280055
0.0278916
0.0323198
0.0320547
0.0314676
0.0310084
0.0306378
0.030218
0.0300753
0.0298365
0.0296687
0.0294957
0.0292434
0.0289918
0.028655
0.0283807
0.0281385
0.0280391
0.0334552
0.0330288
0.0324102
0.0320556
0.0314165
0.0312502
0.0308791
0.0302571
0.0300937
0.0298741
0.0297551
0.029542
0.0293066
0.0290502
0.0287641
0.028481
0.0282555
0.0350295
0.0345205
0.0342191
0.0336675
0.033166
0.0326474
0.0322591
0.0317751
0.0314381
0.0309859
0.0303315
0.0302274
0.0300144
0.0298527
0.0296437
0.0293707
0.0291294
0.0288883
0.0358452
0.0354558
0.0347805
0.0343353
0.0338466
0.0333613
0.0329554
0.0324654
0.0320015
0.0315593
0.0311821
0.0305836
0.030301
0.0301468
0.0299812
0.029709
0.0294605
0.0292346
0.0369367
0.0365584
0.0362015
0.0358223
0.0351578
0.0346386
0.0341167
0.0335877
0.0331227
0.0326274
0.0321959
0.0317644
0.0313616
0.0308252
0.0304154
0.0301477
0.0300699
0.0298438
0.0375315
0.0372226
0.0367956
0.036486
0.036071
0.0355218
0.0350034
0.0344532
0.0339424
0.0334607
0.0329663
0.0324772
0.0319145
0.0315713
0.0312753
0.0306539
0.0302345
0.038411
0.038143
0.037696
0.0374278
0.0371105
0.0366761
0.0362243
0.0358023
0.0353063
0.0347196
0.0342293
0.0337238
0.0332309
0.0327506
0.0321774
0.0316888
0.0315312
0.0391086
0.0387901
0.0386117
0.0385127
0.0381161
0.037792
0.0374156
0.0370075
0.0365478
0.0361238
0.0356135
0.0349879
0.0344223
0.0339504
0.0336098
0.0329621
0.0323311
0.0319926
0.0406974
0.040336
0.0394584
0.0389956
0.0387451
0.0388015
0.0384237
0.0380424
0.0376405
0.0372678
0.0369332
0.036405
0.0358115
0.0352146
0.0346187
0.0339996
0.0339202
0.0335125
0.0414178
0.0412328
0.0410209
0.0408403
0.040018
0.0393136
0.0390272
0.0390571
0.0389537
0.0384397
0.0378967
0.0375561
0.037402
0.0367539
0.0359821
0.0353987
0.0349552
0.0343076
0.0418058
0.0415979
0.0414121
0.0412258
0.0411183
0.040588
0.039764
0.0394591
0.0392236
0.0391487
0.0385571
0.0379418
0.0377719
0.0376821
0.0371247
0.0361328
0.0354498
0.0351027
0.0425388
0.0422868
0.0419125
0.0417118
0.041541
0.0412718
0.0410817
0.0407458
0.0402935
0.0397544
0.0394523
0.039322
0.0387993
0.0380977
0.0378652
0.0378881
0.0374782
0.0363995
0.0429431
0.0426278
0.0424786
0.0421324
0.0417984
0.041575
0.0413645
0.0410439
0.0408186
0.0406545
0.0404298
0.0399484
0.0394482
0.0389971
0.0383632
0.0379808
0.0379507
0.0377783
0.044682
0.0442488
0.0433376
0.0427748
0.0426583
0.0423312
0.0420122
0.0416735
0.0415267
0.0411467
0.0408294
0.0407683
0.0406374
0.0405016
0.0400629
0.0394619
0.0387339
0.0382903
0.0452286
0.0450465
0.0447987
0.044041
0.0433738
0.0430381
0.0427235
0.042465
0.0420062
0.0417051
0.0411747
0.0409995
0.0408797
0.0407296
0.0404798
0.0401557
0.0396492
0.0458913
0.0456424
0.0454021
0.0452443
0.0451034
0.0444731
0.043894
0.0434032
0.043059
0.0425425
0.0421637
0.0419102
0.0414769
0.0412149
0.0410712
0.0408532
0.0406024
0.0402955
0.0463199
0.0460598
0.045824
0.045536
0.0453585
0.0452593
0.0447587
0.0442606
0.0438122
0.0434626
0.0430642
0.042567
0.0420707
0.0415778
0.0413543
0.0411953
0.0409853
0.0407056
0.0467188
0.046533
0.0462741
0.0460011
0.0456169
0.0453175
0.045266
0.0449322
0.0445309
0.044242
0.0439672
0.0434622
0.0428042
0.0423186
0.041845
0.0417094
0.0414023
0.0412378
0.0473739
0.0471415
0.0468997
0.0466858
0.0464696
0.0462956
0.0459369
0.0454529
0.0452808
0.0449598
0.0445595
0.0444163
0.0441897
0.0439957
0.0432924
0.0425363
0.0421651
0.0417919
0.0480286
0.0477988
0.0475953
0.0473459
0.0471005
0.0468589
0.0466066
0.0463462
0.0462137
0.0457214
0.0453587
0.0450083
0.0446481
0.0444973
0.0442646
0.0439557
0.0434273
0.0429311
0.0484316
0.0481972
0.0479814
0.0477613
0.047514
0.0473177
0.0471419
0.0469018
0.0464771
0.0461988
0.0458612
0.0455406
0.0451756
0.0447916
0.0445901
0.0443888
0.0441516
0.0436857
0.0491248
0.048851
0.0486357
0.0483891
0.048112
0.0479122
0.047716
0.0475491
0.0474275
0.0473323
0.0468528
0.046405
0.0459786
0.0457158
0.0454306
0.0449099
0.044564
0.0445421
0.0495431
0.0492758
0.049043
0.0487957
0.048507
0.0482642
0.0480703
0.047889
0.0477273
0.0476085
0.0475513
0.0472086
0.0467495
0.0462659
0.0458029
0.0456528
0.0452985
0.0449464
0.0500114
0.0496759
0.0493764
0.0491518
0.0488949
0.0485871
0.048351
0.0482068
0.0480444
0.0478679
0.0477049
0.0475272
0.0472511
0.0468605
0.0464508
0.0461078
0.0458504
0.0455612
0.0507067
0.050314
0.0497681
0.0493558
0.0492887
0.0490366
0.0486848
0.0483246
0.0482856
0.0481675
0.0479914
0.0478026
0.0475871
0.0473032
0.04696
0.046655
0.0463166
0.0461397
0.0513293
0.0511289
0.0510519
0.0508621
0.0501524
0.0497142
0.0495764
0.0493859
0.0489177
0.0484454
0.0483773
0.0482837
0.0481236
0.0479209
0.0476842
0.0474123
0.0471299
0.0467998
0.0518356
0.0515644
0.051298
0.0511338
0.0508938
0.0504374
0.0501032
0.049956
0.0499507
0.0494829
0.0487106
0.0485179
0.0484367
0.0482908
0.0480634
0.0478445
0.0476126
0.0473204
0.0523041
0.0520233
0.0517472
0.0514711
0.051109
0.0507543
0.050491
0.0503104
0.0501433
0.0500093
0.0497109
0.049253
0.0488731
0.0486556
0.0484525
0.0482443
0.0480839
0.0478941
0.0527333
0.0524823
0.0522462
0.0519283
0.0517253
0.0512888
0.0508148
0.0504812
0.0504137
0.05025
0.0500604
0.0498047
0.0494678
0.0491585
0.0488729
0.0486311
0.048389
0.0536255
0.0532501
0.0529424
0.0526753
0.0523687
0.0521024
0.0519639
0.0516161
0.0509436
0.0506192
0.0505324
0.0503714
0.0501641
0.0499167
0.0496235
0.0493233
0.0490645
0.0488494
0.0540851
0.0538012
0.0534968
0.0531669
0.0527932
0.0524354
0.0521193
0.0519605
0.0518257
0.0513284
0.0508434
0.0505287
0.0504701
0.0502854
0.0500534
0.0498078
0.0495207
0.0492673
0.054571
0.0543055
0.0540288
0.0537176
0.0534136
0.0530148
0.0526472
0.0521893
0.0520084
0.0519448
0.0516189
0.0510106
0.0506322
0.0505775
0.0504254
0.0502245
0.050029
0.0498434
0.0552329
0.0549535
0.0547551
0.0545189
0.0542709
0.0540438
0.0538631
0.0534555
0.05298
0.0525073
0.0521456
0.0521014
0.0519991
0.051413
0.0509455
0.0507589
0.0505809
0.0503798
0.0556248
0.0553801
0.0551768
0.0549566
0.054729
0.0545229
0.0543411
0.0542328
0.0539168
0.0533258
0.0528128
0.0523966
0.0520994
0.0521194
0.0518261
0.0513389
0.0510147
0.0507826
0.0561332
0.0558476
0.0556018
0.0553806
0.0551555
0.0549477
0.0547461
0.0545591
0.0544246
0.0542871
0.053678
0.0531282
0.0526288
0.0522618
0.0522031
0.0519771
0.0516417
0.0513323
0.0564667
0.0563
0.0560696
0.0558281
0.0555899
0.0553663
0.0551661
0.0549533
0.0546956
0.0544664
0.0542828
0.0540724
0.0534344
0.0529045
0.0525621
0.0523507
0.0521572
0.0519267
0.0570239
0.0567679
0.0565017
0.0562724
0.0560166
0.0557801
0.0555718
0.0554116
0.0552252
0.0548886
0.0544736
0.0542541
0.054091
0.0537599
0.0532014
0.052892
0.0526078
0.0576599
0.0574037
0.0571982
0.0569339
0.0566421
0.0564202
0.0561619
0.0559467
0.0557699
0.0556473
0.0555552
0.0554078
0.0548397
0.0543695
0.0541557
0.0539607
0.0535763
0.0532451
0.058051
0.0578184
0.0576202
0.0573993
0.0571465
0.0568786
0.0565745
0.0562218
0.0560164
0.0559118
0.055819
0.0557699
0.0557958
0.0553188
0.0547413
0.0543338
0.0541271
0.0538688
0.0585253
0.0582689
0.0580429
0.0578371
0.0575902
0.0573883
0.0571927
0.0569198
0.0564592
0.0560998
0.0559764
0.0559452
0.0558717
0.0557654
0.0554934
0.0550165
0.0546452
0.0543931
0.0589475
0.0586946
0.0584854
0.0582467
0.0580188
0.0577961
0.057617
0.0574883
0.057468
0.0571356
0.0563487
0.0561506
0.0560901
0.0559847
0.0558167
0.055545
0.0552486
0.0549379
0.0594416
0.0591486
0.0589041
0.0586752
0.0584224
0.0581779
0.0579597
0.0577812
0.0576405
0.0575322
0.0572791
0.0568669
0.0565039
0.0563064
0.0561291
0.0559048
0.0556684
0.0554421
0.0599081
0.0596078
0.0593466
0.0591035
0.0588388
0.0585683
0.058307
0.0580796
0.0578962
0.0577448
0.0575916
0.0573731
0.0570825
0.0567812
0.056534
0.0563032
0.056071
0.055802
0.0605223
0.0601017
0.0597118
0.0594478
0.0592411
0.0589901
0.058711
0.0583972
0.0581599
0.0579807
0.0578531
0.0576936
0.0574968
0.0572501
0.0569875
0.0567486
0.0565198
0.0562235
0.0609812
0.0607406
0.0603756
0.0598219
0.0593889
0.0593293
0.0591488
0.0589227
0.0585577
0.0581768
0.0579534
0.0579216
0.0578147
0.0576443
0.0574297
0.0571876
0.0569414
0.0567533
0.061717
0.0614912
0.0612559
0.0610575
0.0608275
0.0602641
0.0596541
0.0595736
0.0592471
0.0591466
0.0589308
0.0584768
0.0581095
0.0580086
0.0579618
0.0578202
0.0576217
0.0574251
0.0571583
0.0621248
0.0619433
0.0617535
0.0615423
0.0613552
0.0612645
0.0609767
0.0602384
0.0598026
0.0594684
0.0592226
0.0591961
0.058921
0.0584341
0.0582628
0.0581779
0.0580167
0.0578196
0.0623544
0.062147
0.0619504
0.0617344
0.0615806
0.0614692
0.0612892
0.0608882
0.0603057
0.0599898
0.0595229
0.0592689
0.059254
0.0589573
0.0585938
0.0583747
0.058199
0.0629746
0.0627696
0.0625838
0.0623639
0.0621444
0.0619311
0.0617592
0.0616408
0.0614924
0.0611822
0.0606539
0.0602169
0.0598847
0.0595759
0.0594001
0.0591901
0.0589223
0.058661
0.0634897
0.0632083
0.0630116
0.0627992
0.0625683
0.0623368
0.0620818
0.061875
0.0617813
0.0616978
0.0614361
0.0609331
0.0604632
0.0600364
0.0598723
0.0596521
0.0594228
0.0591879
0.0636722
0.0636251
0.0634559
0.0632332
0.0630145
0.0628053
0.0625862
0.0622649
0.0618701
0.0618044
0.0618542
0.0616932
0.0612843
0.0608018
0.0603875
0.0601286
0.0599201
0.0596989
0.0639047
0.0637894
0.0636296
0.0634284
0.063233
0.0630522
0.0628904
0.062696
0.062206
0.0618796
0.0619442
0.0618776
0.0615452
0.0610693
0.0607276
0.0604407
0.0602114
0.0643508
0.0640369
0.0638046
0.0637777
0.063619
0.0634269
0.0632555
0.0631422
0.0630078
0.0625752
0.0621398
0.0620438
0.0619459
0.0616774
0.0613394
0.0610414
0.0607617
0.0661262
0.0655002
0.0648861
0.0643899
0.064141
0.0640367
0.0638456
0.063579
0.0633691
0.0632825
0.0633173
0.0627955
0.0623284
0.0622029
0.0620555
0.0618345
0.0615589
0.0612556
0.0667472
0.0665502
0.06597
0.0652671
0.0647112
0.0645148
0.0643804
0.0641621
0.063827
0.0634389
0.0632819
0.0634079
0.0631521
0.0626496
0.0624037
0.0621874
0.0620194
0.0670823
0.0668813
0.0665572
0.0660826
0.0655435
0.0649424
0.0646567
0.0646343
0.0644947
0.0642289
0.0638786
0.0635767
0.063439
0.0633213
0.0629469
0.0626354
0.0623834
0.0677815
0.0675159
0.067319
0.067066
0.0666599
0.0662012
0.0656959
0.0651405
0.0650043
0.0648576
0.0645983
0.0645541
0.0642678
0.0639115
0.0636446
0.0634401
0.0631609
0.0628601
0.068248
0.067996
0.0676758
0.0674938
0.0672422
0.0669297
0.0665719
0.0661266
0.0656054
0.0654319
0.0651277
0.0648212
0.0645553
0.0642723
0.0641183
0.0638803
0.0636438
0.0634016
0.0687838
0.0683678
0.0682348
0.0678297
0.0676954
0.0675448
0.0675186
0.0674548
0.0670133
0.0660656
0.0656952
0.0654635
0.0651721
0.0647496
0.064338
0.0642273
0.0640556
0.0638405
0.0694904
0.0691398
0.0687179
0.0683835
0.0681616
0.067979
0.0679924
0.0678432
0.067577
0.0674858
0.06676
0.0663228
0.0660405
0.0656062
0.0651217
0.0646629
0.0644642
0.0643008
0.0704528
0.0701549
0.0698621
0.0694048
0.0690664
0.0687766
0.0686184
0.0683408
0.0683845
0.0681337
0.0678935
0.0676147
0.0672116
0.0667789
0.0665346
0.0662044
0.0656573
0.0650818
0.0647976
0.0708189
0.0706103
0.0704019
0.0701982
0.0698594
0.0693832
0.0691088
0.0686882
0.068554
0.0683291
0.0681634
0.0679131
0.0676821
0.0674204
0.067052
0.0666767
0.0664158
0.0660464
0.0656093
0.0710005
0.0707997
0.07049
0.0703288
0.0699895
0.0696697
0.0692857
0.0688713
0.0686945
0.0684457
0.0682815
0.0680257
0.0677984
0.0675286
0.0671897
0.0668875
0.0666192
0.0664129
0.0716217
0.0713502
0.0710662
0.0707607
0.0705549
0.0703124
0.0699982
0.0696462
0.0690675
0.06886
0.0685406
0.0683554
0.0681913
0.0679476
0.0676711
0.067385
0.067074
0.0721918
0.071917
0.0716374
0.0713313
0.0710687
0.0707647
0.0704236
0.0704688
0.0699303
0.0693439
0.0690213
0.0687926
0.0685795
0.0683834
0.0681274
0.0678653
0.0675873
0.0727981
0.0724308
0.0721712
0.0718489
0.0715282
0.0711698
0.0708804
0.0705637
0.0704251
0.0701512
0.0696267
0.0692817
0.0690403
0.0688134
0.0685858
0.0683423
0.0680435
0.0735311
0.0732675
0.0730188
0.0726591
0.0723257
0.0719832
0.0715532
0.0713697
0.0711973
0.0709045
0.0706042
0.0703123
0.0698199
0.0694839
0.0692722
0.0690337
0.0688126
0.0686219
0.0741332
0.0738397
0.0735462
0.0732574
0.0728871
0.0725094
0.0722494
0.0721067
0.0715772
0.071393
0.0711398
0.0709074
0.0705574
0.0700981
0.0697397
0.0694843
0.0692365
0.0746973
0.0743986
0.0740653
0.0737626
0.073361
0.0729682
0.07256
0.0723523
0.0720683
0.0717683
0.0715805
0.0713196
0.0710677
0.0707925
0.0704036
0.0700566
0.0697875
0.0751725
0.0749204
0.0747009
0.0743448
0.0739037
0.0733429
0.0731445
0.072817
0.0724479
0.072223
0.0720273
0.0718227
0.0715319
0.0712281
0.0709592
0.0706515
0.0703472
0.0758511
0.0755007
0.075159
0.0748017
0.074504
0.0740308
0.073483
0.0733464
0.0728623
0.0726271
0.0724842
0.072246
0.0720241
0.0717624
0.0714346
0.0711832
0.0708748
0.0762909
0.0761467
0.0758169
0.075417
0.0750201
0.074569
0.0741206
0.073325
0.0731677
0.0731627
0.0730462
0.0727604
0.0724964
0.0722555
0.0719789
0.0716742
0.0713923
0.0767085
0.0765339
0.0763854
0.0760953
0.0757185
0.0754959
0.0751768
0.0744465
0.07406
0.0736624
0.0734816
0.0733565
0.0731177
0.0727601
0.0725242
0.0722567
0.0719373
0.0769231
0.0766923
0.0765477
0.0762019
0.076006
0.0756468
0.0754877
0.0749408
0.0743866
0.0739904
0.0737386
0.0735551
0.0732849
0.0729955
0.0727968
0.0725698
0.0780256
0.0774302
0.0769746
0.0769367
0.076585
0.0762574
0.0760113
0.0755169
0.0751095
0.0747193
0.0743044
0.0739397
0.0737733
0.0734935
0.0732154
0.0794391
0.0792473
0.0786841
0.0781245
0.0774792
0.0772792
0.0769651
0.0765275
0.0761251
0.0757094
0.075305
0.0748943
0.0746739
0.074295
0.0740093
0.0737524
0.0799594
0.0796841
0.0794559
0.0791225
0.0786773
0.0780134
0.0773748
0.0773393
0.0768913
0.0765305
0.0759796
0.0754944
0.0748345
0.0747769
0.0745261
0.0742227
0.0805823
0.0803372
0.0800416
0.0796583
0.0792721
0.0788967
0.0784354
0.0782706
0.0776963
0.0771288
0.0768362
0.0764556
0.0758159
0.0752445
0.0749054
0.0747343
0.0813708
0.0811045
0.0808645
0.0806129
0.0805935
0.0800889
0.0796668
0.0793489
0.0790353
0.0787286
0.0781799
0.0775368
0.0770279
0.0767983
0.0762824
0.075741
0.0818453
0.0815572
0.0813978
0.0812133
0.0809257
0.0807814
0.0803599
0.0799428
0.0795588
0.0793456
0.0788716
0.078429
0.0778472
0.0773612
0.0770953
0.0767751
0.0824036
0.0820323
0.0817707
0.0816097
0.0814396
0.0811328
0.0809618
0.0806921
0.0802589
0.08
0.079758
0.0795394
0.079044
0.0783262
0.0777715
0.0773325
0.0830979
0.0825728
0.0820851
0.0818281
0.0817297
0.0815947
0.0813992
0.0810234
0.0807671
0.0804657
0.0803113
0.0801277
0.0799683
0.079683
0.0787902
0.0781354
0.0839183
0.0833066
0.0828646
0.0824234
0.0819845
0.0819028
0.0817248
0.0815455
0.0810966
0.0809076
0.0806992
0.0804535
0.0803773
0.0802309
0.0799118
0.0794463
0.0846432
0.084303
0.0837949
0.0834052
0.0830048
0.0826979
0.0822959
0.0820161
0.0818326
0.0812891
0.0809889
0.0808874
0.0807902
0.0805548
0.0803249
0.0853937
0.08514
0.0847659
0.0842913
0.0837428
0.0833925
0.0831169
0.0828269
0.0824181
0.0821355
0.081736
0.0811443
0.0809722
0.0809323
0.0808162
0.0805442
0.0859465
0.0856891
0.0854743
0.0852969
0.0847129
0.0841996
0.0838069
0.0834882
0.0832372
0.0828642
0.0825482
0.0822695
0.0816292
0.0812436
0.0811764
0.0810911
0.0862112
0.0861876
0.0859067
0.0856551
0.085413
0.0849692
0.0845972
0.0842774
0.0838907
0.0836054
0.0832953
0.0830218
0.0828068
0.082305
0.0817785
0.0866172
0.0863973
0.0862225
0.0860047
0.0857051
0.0851938
0.0848839
0.0846544
0.0843531
0.084047
0.0835794
0.0833842
0.0830678
0.0826771
0.0881409
0.087333
0.0868794
0.0866903
0.0863448
0.0859961
0.0855491
0.0852992
0.0849814
0.0847921
0.0844884
0.0840161
0.0836872
0.0890385
0.0888534
0.0883856
0.0879282
0.0875303
0.0871331
0.086721
0.0864271
0.0860467
0.085734
0.0853633
0.0849971
0.084707
0.0843367
0.0894967
0.0891868
0.0889978
0.0886963
0.0883675
0.0878686
0.0875834
0.0870641
0.0866784
0.0863547
0.0859966
0.0856637
0.0853093
0.0849769
0.0901138
0.0897461
0.0893961
0.0890916
0.089001
0.0886808
0.0882896
0.0878857
0.0874695
0.0870703
0.086595
0.086235
0.0859662
0.0856957
0.0906172
0.0903847
0.0900357
0.0897043
0.0894841
0.089232
0.0890644
0.0886974
0.0882132
0.08781
0.0875071
0.0869636
0.0865861
0.0863542
0.0911652
0.0909233
0.0906506
0.090368
0.090177
0.0900301
0.0896304
0.0893196
0.0888942
0.0884408
0.0880727
0.0878064
0.0874164
0.0870529
0.0915924
0.0912928
0.0911031
0.0909753
0.0907702
0.0903989
0.0902562
0.0900971
0.089807
0.089255
0.0885525
0.0882951
0.0880387
0.0913029
0.0913712
0.0909884
0.0905001
0.0904834
0.090322
0.0896372
0.0887186
0.0885057
0.0916522
0.0916775
0.0914075
0.0909062
0.0906889
0.0906376
0.0902276
0.0894644
0.0921042
0.0919229
0.0919365
0.0920048
0.0915783
0.0909911
0.09075
0.0931951
0.0927756
0.09223
0.0920957
0.0921394
0.0918193
0.0913478
0.0933156
0.0930211
0.0925971
0.09237
0.0921003
0.0945407
0.0940011
0.0933202
0.0933923
0.0930564
0.0927357
0.0982257
0.0977734
0.0957541
0.0951072
0.0935215
0.098097
0.0975913
0.0972059
0.0968474
0.0965381
0.0939122
0.0984155
0.0970392
0.0965752
0.0963222
0.0955492
0.0986722
0.0976729
0.097073
0.00768683
0.00747289
0.00739215
0.00937486
0.00895065
0.00860634
0.00836652
0.00804906
0.00774682
0.00748485
0.00735443
0.00551734
0.0108468
0.010479
0.010061
0.00976563
0.0094108
0.00904354
0.0087207
0.00842271
0.00809776
0.00777731
0.0074278
0.00717545
0.00681927
0.00624682
0.0058491
0.0119868
0.0115829
0.0113271
0.0109299
0.0106191
0.0101835
0.00983001
0.00950976
0.00917292
0.00882053
0.00847434
0.00804178
0.00769903
0.0073997
0.00708677
0.0067694
0.00636295
0.0058505
0.00557763
0.00490507
0.00410437
0.00381447
0.0131782
0.0128395
0.0124681
0.0121196
0.0117406
0.0114034
0.0110741
0.0106784
0.0102793
0.00989796
0.00957742
0.00927262
0.00894354
0.00859219
0.00817601
0.00771301
0.00722515
0.0070393
0.00674997
0.00637486
0.00595529
0.00547505
0.00492079
0.0145743
0.0142165
0.013938
0.0134099
0.0129832
0.012465
0.0121321
0.011838
0.0115593
0.0111976
0.0107612
0.010292
0.00989775
0.009608
0.00928455
0.00908609
0.00884239
0.00851997
0.00758705
0.00723574
0.0070342
0.0067609
0.00637651
0.00600205
0.00558285
0.0153196
0.0149878
0.014812
0.0144553
0.0140929
0.0134714
0.013016
0.0124016
0.0120422
0.0118857
0.011709
0.0113706
0.0109199
0.0101601
0.00970917
0.00959759
0.00936522
0.00917033
0.00897499
0.00854154
0.00759299
0.00721205
0.00704851
0.0067629
0.00640099
0.0169382
0.0161107
0.0155416
0.0153995
0.0150116
0.014489
0.0142199
0.014122
0.0134993
0.0126533
0.0120755
0.0119616
0.0118981
0.0116184
0.0114208
0.0103187
0.00955524
0.0095886
0.00941105
0.00918699
0.008912
0.00856754
0.00769178
0.00726445
0.00708735
0.0183654
0.0179119
0.017212
0.0163363
0.0158147
0.0156438
0.0154021
0.0147832
0.014328
0.0143261
0.0138817
0.0130534
0.0123477
0.0118891
0.0119324
0.0118787
0.0117865
0.0106846
0.00963661
0.00958229
0.00944379
0.00916255
0.00885168
0.00841538
0.00790464
0.021001
0.020495
0.0194353
0.0187063
0.0180159
0.0172265
0.0166474
0.0161571
0.0158203
0.0157063
0.0149738
0.0146196
0.0145258
0.0143589
0.0136172
0.0129603
0.0122137
0.0118228
0.0117506
0.0116824
0.0108805
0.00981933
0.00965624
0.0094915
0.0091853
0.00883429
0.0222079
0.0217681
0.0214563
0.0211535
0.0205758
0.0197799
0.0189383
0.0182046
0.0174367
0.017056
0.0165578
0.015942
0.0155914
0.0151366
0.014798
0.0146234
0.0143639
0.0139411
0.0134455
0.0125568
0.0119847
0.0116982
0.0112113
0.0105585
0.0102469
0.0098442
0.0095557
0.0225488
0.0223366
0.0219449
0.0216258
0.0212239
0.0205536
0.0198608
0.019227
0.0184152
0.0178608
0.0173215
0.0167525
0.0161134
0.0155403
0.0151631
0.0150241
0.0147707
0.0144555
0.0140725
0.0136716
0.0130916
0.012286
0.0117751
0.0112412
0.0105366
0.0254037
0.0248049
0.0238075
0.0230554
0.0225866
0.0219136
0.0217968
0.0212211
0.0205984
0.0199731
0.0193708
0.0186437
0.0180063
0.017442
0.0168285
0.0163791
0.0156792
0.0152729
0.0151641
0.0149388
0.0146134
0.0143097
0.0139816
0.0134654
0.0127574
0.0260454
0.0254453
0.025117
0.0244401
0.0235709
0.0230372
0.0222125
0.0220462
0.0214134
0.0207806
0.0201771
0.0196537
0.0188639
0.0182213
0.0174984
0.0170064
0.0164536
0.015866
0.0154999
0.0152969
0.0150726
0.0148276
0.0145543
0.0142577
0.0277363
0.0276003
0.0272108
0.0264318
0.0256544
0.0253263
0.0248252
0.0240338
0.0234578
0.0227381
0.022271
0.0217443
0.0210552
0.0205548
0.0202152
0.0192452
0.0184622
0.0177977
0.0171394
0.0165104
0.0161436
0.0158167
0.0155548
0.0152791
0.0150136
0.028489
0.028168
0.0279151
0.02775
0.0275952
0.0267469
0.0262108
0.0259169
0.0256661
0.0247339
0.0239484
0.0233042
0.0226861
0.0221563
0.0216041
0.0211704
0.0203342
0.0197059
0.0188031
0.0183498
0.0175398
0.0165666
0.0161811
0.0160152
0.0156218
0.0291847
0.0289295
0.0286577
0.0283218
0.0279949
0.0277474
0.027556
0.0271172
0.0267582
0.0265475
0.0262927
0.0253033
0.0245748
0.0238119
0.0228924
0.0224678
0.0216822
0.0215977
0.0208334
0.0200877
0.0194325
0.0186711
0.0179676
0.0169489
0.0161291
0.0301484
0.0298158
0.0296302
0.0294015
0.0291332
0.0289137
0.0285099
0.0281819
0.0277226
0.027558
0.0272866
0.0269833
0.0268437
0.0265913
0.0256128
0.0249554
0.0241547
0.0231765
0.0229683
0.0221574
0.0215867
0.0211142
0.0203427
0.0196551
0.0189096
0.0182354
0.0309263
0.030655
0.0303513
0.0300688
0.0298064
0.0295578
0.0293309
0.029097
0.0288183
0.0282863
0.0277533
0.0275627
0.0273982
0.0271451
0.0270045
0.0266664
0.0256231
0.0254152
0.025101
0.0239061
0.0235328
0.0228512
0.0220235
0.0213143
0.0207509
0.0200829
0.032074
0.0315764
0.0311217
0.0308033
0.0305064
0.0301639
0.0298624
0.0296666
0.0294521
0.029252
0.0290549
0.0285417
0.0280318
0.0276955
0.0275358
0.0272954
0.0269657
0.0263691
0.0254954
0.0253002
0.0250466
0.0242216
0.0239674
0.0235874
0.0225311
0.0218317
0.021216
0.0327707
0.0324572
0.0321136
0.0317072
0.0312586
0.0308392
0.030489
0.0302268
0.0299592
0.0297493
0.0295497
0.0293497
0.0291381
0.0287719
0.0281706
0.027903
0.0277448
0.027542
0.0271189
0.0264247
0.0252832
0.0251672
0.0248978
0.0244725
0.0241708
0.0239716
0.0235426
0.033414
0.0330298
0.0326688
0.0322805
0.031825
0.0312912
0.0308487
0.030499
0.0302091
0.0299786
0.0298143
0.0296349
0.0294167
0.0291677
0.0288471
0.028451
0.0281705
0.0280257
0.0279795
0.0275744
0.0265225
0.0256525
0.0252112
0.0249694
0.024641
0.0243466
0.0345565
0.034068
0.0336614
0.0332426
0.0328152
0.0324251
0.03196
0.0314653
0.0310504
0.0305958
0.0302565
0.0299758
0.0298289
0.0296864
0.0294649
0.0292108
0.0289183
0.0286077
0.0283503
0.0281692
0.0280767
0.0276398
0.0266441
0.0258188
0.0254369
0.0251624
0.0356124
0.0351954
0.0347895
0.0343653
0.0339136
0.03347
0.0330147
0.0324692
0.031991
0.0316135
0.0311821
0.0307357
0.0303613
0.0300729
0.0298673
0.0297303
0.0295257
0.0292786
0.0290023
0.0287153
0.0284705
0.0282245
0.0278875
0.027441
0.0269477
0.0263392
0.0361826
0.0358984
0.0354917
0.0349606
0.0344734
0.0340257
0.0336011
0.0331155
0.0326119
0.0321609
0.0317688
0.0313313
0.0308558
0.0304951
0.0302182
0.030023
0.0298385
0.0296164
0.0293707
0.0290966
0.0287671
0.0285159
0.0282623
0.027926
0.0275552
0.0372796
0.0369636
0.0365872
0.0362397
0.0358339
0.0352895
0.0347275
0.0342352
0.0338199
0.0333143
0.0328519
0.032449
0.0319498
0.0315325
0.0310905
0.0306966
0.0303624
0.0301589
0.0299627
0.0297331
0.0294749
0.0291929
0.0288898
0.0286039
0.0283703
0.0280946
0.0382897
0.0379289
0.0376318
0.0372583
0.0368725
0.0365044
0.0361515
0.0356119
0.0350953
0.0346058
0.0340927
0.033586
0.0330821
0.0326661
0.0321965
0.0317173
0.03129
0.0308636
0.0304622
0.0301736
0.0300799
0.0298604
0.0295643
0.0292875
0.0290261
0.02881
0.0392997
0.0388852
0.0385179
0.038199
0.0378646
0.0375475
0.0371637
0.0367667
0.0363379
0.0359418
0.035363
0.0350116
0.0344219
0.0338736
0.0333703
0.0329172
0.0324147
0.0319462
0.031602
0.0311666
0.0305268
0.0303385
0.030243
0.0300109
0.0297273
0.0294479
0.0292213
0.0398399
0.0394513
0.0390879
0.0387121
0.0384535
0.0381355
0.0377978
0.037477
0.0370772
0.0365881
0.0361774
0.0357182
0.0352666
0.0347007
0.034165
0.0336443
0.0331746
0.0326864
0.0321459
0.0318371
0.0314461
0.03098
0.0306366
0.0304131
0.0301734
0.0299737
0.0408707
0.040555
0.0401993
0.0397011
0.0392235
0.0388499
0.0386552
0.0385359
0.0382105
0.0378334
0.0373505
0.0368771
0.0364829
0.0361063
0.0356561
0.0349853
0.03443
0.0339266
0.0335502
0.0329455
0.0323719
0.0319545
0.0316597
0.0312317
0.0308128
0.0306262
0.0414229
0.0411388
0.0408794
0.0405711
0.0401201
0.0395766
0.0390392
0.0388251
0.0388124
0.0385266
0.0380898
0.0376184
0.0371262
0.0368278
0.0363775
0.0358692
0.0352087
0.0346391
0.034228
0.0339807
0.0332976
0.0326284
0.0322455
0.0318825
0.031501
0.0421992
0.0419458
0.0416741
0.0413437
0.0411276
0.0409465
0.0406767
0.0400616
0.0394194
0.0391609
0.0391213
0.0389866
0.038489
0.0379909
0.037518
0.0372428
0.0366926
0.0360167
0.0354975
0.035024
0.0343568
0.0340254
0.0335448
0.033049
0.0325917
0.0427843
0.0424311
0.0421648
0.0418783
0.0415512
0.0413411
0.0411795
0.0410057
0.0404598
0.0397758
0.0396529
0.0394008
0.0391749
0.038631
0.0380599
0.0377428
0.0374624
0.0370049
0.0361736
0.0356467
0.03509
0.0345825
0.0341435
0.0337462
0.0334746
0.0437819
0.0433714
0.0429912
0.0425929
0.0423058
0.0420349
0.0416732
0.0414337
0.0412573
0.0410847
0.0407301
0.0401878
0.039847
0.0397197
0.0393852
0.0388671
0.0381538
0.0378724
0.0377849
0.0373794
0.0363892
0.0358963
0.035361
0.0349419
0.0344271
0.0445001
0.04414
0.0436646
0.0431692
0.0427274
0.0425177
0.0422527
0.0418257
0.0415268
0.0412756
0.0411109
0.040844
0.0405364
0.0402004
0.0399677
0.0395979
0.0391579
0.0385362
0.0380465
0.038006
0.0374805
0.0365841
0.0362077
0.0357326
0.0352845
0.0453801
0.0451738
0.0448668
0.0444984
0.0440469
0.0435009
0.043074
0.0427318
0.0424911
0.0421763
0.0416789
0.0413927
0.041115
0.0409532
0.0407441
0.0405488
0.0404412
0.0401244
0.0393978
0.038807
0.038287
0.0380271
0.037585
0.036982
0.0365483
0.045893
0.0456455
0.0454248
0.0451911
0.0449316
0.0446669
0.0441042
0.0435621
0.0432022
0.0428305
0.042431
0.0419197
0.041584
0.0411269
0.0410163
0.0408875
0.040691
0.0404767
0.0401629
0.0396786
0.0391803
0.0386649
0.0382294
0.0377439
0.0466085
0.0463458
0.0460869
0.0458151
0.0456067
0.0454055
0.0452208
0.0449462
0.0444109
0.0438992
0.0435641
0.0431716
0.0426517
0.0421757
0.0418042
0.0414574
0.0411967
0.0410392
0.0408469
0.0405824
0.0402012
0.0398542
0.0394385
0.038985
0.0385871
0.0470115
0.0467623
0.046546
0.0463219
0.0460515
0.0458692
0.0455981
0.0453445
0.0450894
0.0446619
0.0442395
0.0439762
0.0437095
0.0431605
0.0426599
0.0420831
0.0415388
0.0413297
0.0411201
0.0410047
0.0407048
0.0403401
0.0400464
0.0397448
0.0476496
0.0474272
0.0471985
0.046948
0.0467174
0.0465285
0.0462552
0.0459949
0.0456846
0.0454319
0.0452643
0.0448846
0.0445102
0.0442316
0.0439543
0.043509
0.0429423
0.0423197
0.041845
0.0416828
0.0414624
0.0412019
0.0408728
0.040602
0.0402638
0.0480668
0.0478256
0.0476137
0.0474029
0.0471466
0.0468946
0.0466898
0.0464511
0.0461714
0.0458374
0.0455341
0.0453203
0.0450077
0.0446805
0.0444007
0.0441445
0.0439649
0.0433637
0.0426273
0.042252
0.0419794
0.0416952
0.0414518
0.041124
0.048786
0.0485355
0.0482733
0.0479868
0.0477655
0.0475943
0.0473637
0.0470988
0.0468476
0.0466142
0.0463266
0.0460481
0.0456928
0.0454129
0.0451622
0.0447778
0.0444971
0.0442374
0.0439687
0.043511
0.0429585
0.0425916
0.0422269
0.0420205
0.0417908
0.0492044
0.0489463
0.0487112
0.0484703
0.0482027
0.0479502
0.0477326
0.0475106
0.0472856
0.0470788
0.0468223
0.0464996
0.0461569
0.045801
0.0455318
0.0452969
0.0448824
0.044558
0.0443358
0.0440831
0.0436593
0.0431705
0.0428672
0.0425253
0.0496554
0.0494218
0.0491344
0.0488536
0.0486396
0.0483602
0.0481158
0.0478841
0.0476835
0.0475031
0.0473309
0.0470815
0.0467611
0.046377
0.0459921
0.0456883
0.0453826
0.0449551
0.0446625
0.0445136
0.0442415
0.0438462
0.0434842
0.0431551
0.0503676
0.0501305
0.0498785
0.0495651
0.0492702
0.0490245
0.048772
0.0484996
0.0482545
0.0480471
0.0478572
0.0476867
0.047531
0.0473352
0.0470126
0.0466308