/*--------------------------------*- C++ -*----------------------------------*\
| =========                 |                                                 |
| \\      /  F ield         | OpenFOAM: The Open Source CFD Toolbox           |
|  \\    /   O peration     | Version:  2312                                  |
|   \\  /    A nd           | Website:  www.openfoam.com                      |
|    \\/     M anipulation  |                                                 |
\*---------------------------------------------------------------------------*/
FoamFile
{
    version     2.0;
    format      ascii;
    arch        "LSB;label=64;scalar=64";
    class       volScalarField;
    location    "110";
    object      p;
}
// * * * * * * * * * * * * * * * * * * * * * * * * * * * * * * * * * * * * * //

dimensions      [0 2 -2 0 0 0 0];

internalField   nonuniform List<scalar> 
404911
(
0.0513354
0.0513724
0.0514333
0.0514004
0.051239
0.0513099
0.0513869
0.0514055
0.051402
0.051401
0.0517974
0.0513923
0.0512649
0.0513089
0.0513474
0.0513818
0.0519248
0.0517362
0.0514646
0.0513799
0.0521675
0.0520278
0.051736
0.052592
0.0523701
0.0519659
0.0529972
0.0528466
0.052738
0.0534297
0.0533063
0.0531614
0.0529619
0.0529503
0.0534792
0.0534188
0.053212
0.0540185
0.0538232
0.0536342
0.0534629
0.054182
0.0541019
0.0539933
0.053848
0.0535927
0.0542644
0.0541973
0.0540957
0.054029
0.0545012
0.0544183
0.0542532
0.0541986
0.0545195
0.0545296
0.0568881
0.051037
0.0510182
0.0510425
0.0515494
0.0512908
0.0519144
0.0516989
0.0514833
0.0522136
0.0520366
0.0517509
0.0526582
0.0522833
0.0529973
0.0527431
0.0527317
0.0532886
0.0531297
0.0528341
0.0527661
0.0534452
0.0533722
0.0539082
0.0536627
0.0541343
0.0539575
0.0539245
0.0543084
0.0542384
0.0545945
0.0543721
0.0542242
0.0545555
0.0545825
0.0566359
0.0567145
0.0566213
0.0572052
0.0569807
0.0568768
0.0575095
0.0573098
0.0570475
0.0578098
0.0577665
0.0575426
0.0577565
0.0206406
0.02042
0.0202228
0.0217958
0.0216102
0.0210938
0.0210937
0.020791
0.0205934
0.0204417
0.0201265
0.0224512
0.0222124
0.0216419
0.021312
0.0210643
0.0209206
0.0206933
0.0205281
0.0194659
0.0231554
0.0229185
0.0227687
0.0225633
0.0223944
0.0222671
0.0218933
0.0214756
0.0211824
0.0210405
0.0208616
0.020609
0.0201233
0.0195713
0.0194951
0.0194508
0.0236971
0.0234416
0.0232257
0.0229999
0.0228105
0.0226351
0.0224671
0.0222956
0.0220427
0.0217217
0.0214594
0.0211816
0.0210189
0.0207415
0.0194244
0.0244526
0.0240835
0.0237927
0.0234837
0.0232203
0.0230473
0.0228611
0.0226827
0.022505
0.0223373
0.0220644
0.0218052
0.0216122
0.0213724
0.0212553
0.0248519
0.0246465
0.0242449
0.0239255
0.0236384
0.0233104
0.0231272
0.0229044
0.0227373
0.0226
0.0223985
0.0222096
0.021943
0.0217171
0.0215107
0.021406
0.0257405
0.0253479
0.0249527
0.0247051
0.0242645
0.0240964
0.0238096
0.0233712
0.0231629
0.0229727
0.0228301
0.0226619
0.0224696
0.0222638
0.0220382
0.0218155
0.0216317
0.0268181
0.0265052
0.026231
0.0258745
0.0254892
0.025141
0.0248717
0.0245366
0.0242558
0.0239273
0.0234658
0.0232846
0.0230941
0.0229438
0.0227734
0.0225459
0.0223539
0.0221505
0.0274094
0.0271298
0.0266714
0.0263594
0.0260167
0.0256599
0.0253698
0.0250198
0.0246978
0.0243602
0.0240547
0.0236599
0.0233841
0.0232061
0.0230574
0.0228423
0.0226686
0.0224533
0.0281655
0.0279092
0.027641
0.0273374
0.0269326
0.0265701
0.0262198
0.025849
0.0255268
0.0251728
0.0248602
0.0245302
0.0242193
0.023836
0.0235037
0.0233036
0.023166
0.0229925
0.0286494
0.0283876
0.0280901
0.0278358
0.0275312
0.027157
0.0268134
0.0264466
0.0260764
0.02575
0.0254044
0.0250686
0.0246797
0.0243638
0.0241406
0.0237188
0.023348
0.0293096
0.0290788
0.0287408
0.0285506
0.028304
0.0280048
0.0276875
0.0273672
0.0270244
0.026652
0.0262845
0.0259388
0.0255971
0.0252606
0.0248671
0.0245143
0.0243044
0.0299458
0.0296663
0.0294196
0.0293424
0.0290678
0.028803
0.0285106
0.0282332
0.0279175
0.0276122
0.0272703
0.0268401
0.0264525
0.0260952
0.0258291
0.025434
0.0250342
0.0247263
0.0309255
0.0306378
0.0301513
0.0298015
0.0295832
0.0295265
0.029264
0.0289847
0.0286977
0.0284299
0.0281922
0.0278301
0.0274311
0.0270181
0.0265951
0.0261934
0.0260167
0.0257718
0.0314675
0.0313176
0.0311491
0.0309965
0.0304987
0.0300283
0.0297905
0.0297191
0.0295697
0.029253
0.0288825
0.0286282
0.0284761
0.028081
0.0275735
0.0271507
0.0268089
0.0264121
0.031798
0.0316069
0.0314381
0.0312827
0.031134
0.0308359
0.0303379
0.03007
0.0298681
0.0297216
0.029357
0.0289618
0.0287779
0.0286736
0.0283167
0.0277065
0.027267
0.0269324
0.0323459
0.0321412
0.0318486
0.0317085
0.0315405
0.031331
0.0311756
0.0309237
0.0306409
0.0303102
0.0300712
0.0299048
0.0295252
0.0290947
0.0288715
0.0287809
0.0285032
0.0279307
0.0327471
0.0324723
0.0322741
0.0320415
0.0318088
0.0316191
0.031417
0.0312021
0.0309889
0.0308349
0.0306542
0.0303275
0.0300326
0.0297036
0.0292741
0.0290233
0.0288918
0.028699
0.0338015
0.0335214
0.0329706
0.0325972
0.0324623
0.0322045
0.0319686
0.0317256
0.031557
0.0312846
0.0310466
0.0309388
0.0308157
0.0306665
0.0303892
0.0300165
0.0295516
0.0291981
0.0342492
0.0340597
0.0338569
0.0334057
0.0329681
0.0327178
0.0324916
0.0322732
0.0319453
0.0317395
0.0313591
0.0311774
0.0310455
0.0309127
0.0307313
0.030518
0.0301728
0.0347264
0.0345313
0.0343471
0.0342083
0.0340748
0.0336526
0.0333017
0.0329575
0.0327148
0.0323753
0.0320953
0.0318959
0.0315716
0.0313377
0.0311946
0.0310257
0.0308446
0.0306118
0.035068
0.0348577
0.0346786
0.0344684
0.0343215
0.0341689
0.0338815
0.0335577
0.033263
0.0330251
0.0327267
0.032368
0.0320294
0.0316983
0.0314629
0.0313046
0.0311377
0.0309434
0.0353801
0.035208
0.0350143
0.0348242
0.0345782
0.0343557
0.0342382
0.0340089
0.0337361
0.0335154
0.0333069
0.0330183
0.0325598
0.0322198
0.031886
0.0317654
0.0314677
0.0313167
0.035907
0.0356952
0.035513
0.0353439
0.0351696
0.0350197
0.0347339
0.0344771
0.034294
0.0340473
0.0337919
0.0336422
0.0334682
0.0332741
0.0328661
0.0324285
0.0320984
0.0318375
0.0363879
0.0362133
0.0360419
0.0358521
0.0356764
0.0354895
0.0353032
0.0351225
0.0349332
0.034658
0.0343854
0.0341389
0.0338586
0.0337205
0.0335424
0.0333281
0.0329618
0.0326713
0.0367316
0.0365219
0.0363482
0.0361728
0.0359875
0.0358322
0.0356865
0.0354784
0.0352722
0.0350384
0.0347785
0.0345123
0.0343001
0.0340131
0.0338269
0.0336517
0.0334593
0.0331538
0.0372362
0.0370366
0.0368545
0.0366646
0.0364577
0.0362946
0.0361374
0.0359932
0.035877
0.0357394
0.0354751
0.0351801
0.0348993
0.0346992
0.0344588
0.0341497
0.0338129
0.033804
0.0375443
0.037356
0.037167
0.0369799
0.0367709
0.036582
0.0364201
0.0362669
0.0361282
0.036015
0.0359239
0.0356798
0.0353957
0.0350799
0.0347962
0.0346551
0.0343782
0.0341316
0.0379083
0.0376737
0.0374448
0.037259
0.0370774
0.0368634
0.036674
0.0365294
0.0363876
0.0362443
0.0361075
0.0359625
0.035767
0.0355088
0.0352315
0.0349899
0.0347816
0.034525
0.0383572
0.0381058
0.0378018
0.0375222
0.0374052
0.0372185
0.0369821
0.0367224
0.0366174
0.0364933
0.036353
0.0362026
0.0360334
0.0358293
0.0355943
0.0353671
0.0351249
0.0349606
0.0388021
0.0386911
0.0385768
0.0383804
0.03806
0.0377782
0.0376139
0.0374324
0.0371604
0.0368306
0.0367216
0.0366049
0.0364695
0.0363092
0.0361301
0.0359303
0.0357257
0.0354568
0.0391876
0.0389737
0.0387966
0.0386622
0.0384694
0.038204
0.037983
0.0378376
0.0377318
0.0374881
0.0370739
0.0368641
0.0367434
0.0366055
0.0364261
0.0362565
0.0360752
0.0358768
0.0395475
0.0393396
0.0391306
0.0389427
0.0386979
0.0384692
0.0382687
0.038107
0.0379677
0.037844
0.0376393
0.0373539
0.0370892
0.0369084
0.0367442
0.0365819
0.0364294
0.0362627
0.0398365
0.03967
0.0394905
0.0392653
0.0391086
0.038837
0.0385669
0.0382903
0.0381925
0.0380613
0.0379165
0.0377363
0.0375052
0.0372909
0.0370757
0.0368844
0.0367156
0.0404799
0.0402125
0.0400075
0.0398175
0.0396017
0.0394071
0.0392739
0.0390053
0.0386718
0.0384103
0.03829
0.0381623
0.0380184
0.0378406
0.037636
0.0374285
0.0372245
0.0370198
0.0408502
0.0406236
0.0404006
0.0401839
0.0399345
0.0396949
0.0394777
0.0393348
0.0391619
0.0388999
0.0386444
0.0383486
0.0382672
0.038128
0.037962
0.0377773
0.0375763
0.0374066
0.0411561
0.0409844
0.0407886
0.0405745
0.0403752
0.0401304
0.0398992
0.0395601
0.0394223
0.0393195
0.0390962
0.0387213
0.0385058
0.0383892
0.0382526
0.0381072
0.0379549
0.037777
0.0416735
0.0414619
0.0413036
0.0411354
0.0409638
0.0408008
0.0406595
0.0403406
0.040104
0.0397854
0.0395384
0.0394425
0.0392996
0.0390223
0.0387344
0.03855
0.0383932
0.0382381
0.0419658
0.0417832
0.0416289
0.0414601
0.0412964
0.0411386
0.040997
0.0408892
0.0406514
0.0403346
0.0399902
0.0397417
0.0395103
0.03945
0.0392688
0.0389679
0.0387361
0.0385255
0.0423218
0.0421179
0.0419413
0.0417775
0.0416076
0.0414525
0.0412983
0.0411555
0.0410384
0.0408907
0.0404707
0.0402506
0.0398747
0.0396558
0.0395515
0.0393857
0.0391652
0.0389607
0.0425868
0.0424667
0.0422815
0.0421053
0.0419326
0.0417628
0.0416095
0.0414538
0.041276
0.0411102
0.0409646
0.040762
0.0404522
0.0400967
0.0398698
0.0396956
0.0395461
0.0393357
0.0429976
0.0428218
0.0426083
0.0424335
0.0422445
0.0420751
0.0419177
0.0417836
0.0416408
0.0414319
0.0412182
0.0410135
0.0408414
0.0406545
0.0403188
0.0400897
0.0398734
0.043493
0.0432911
0.0431346
0.042942
0.0427278
0.0425569
0.042367
0.042202
0.0420619
0.0419483
0.0418558
0.0416571
0.0414449
0.0411159
0.0409585
0.0407893
0.0405473
0.0403233
0.0437767
0.0436088
0.0434541
0.0432876
0.0431035
0.0429103
0.0426962
0.0424641
0.0422909
0.0421805
0.0420875
0.0420212
0.0419918
0.0416757
0.0413645
0.0410971
0.0409314
0.0407408
0.0441201
0.0439362
0.0437684
0.0436134
0.0434307
0.0432762
0.0431268
0.0429123
0.0426921
0.0423899
0.0422697
0.0422015
0.0421236
0.042029
0.041839
0.0415529
0.0413051
0.0411091
0.0444267
0.0442549
0.0440937
0.0439159
0.043751
0.043577
0.0434346
0.0433201
0.0432223
0.0430628
0.0426335
0.0424264
0.042333
0.0422292
0.0420999
0.0419086
0.0417028
0.0414915
0.0447963
0.0445741
0.0444022
0.0442352
0.0440481
0.0438687
0.0437
0.0435575
0.0434347
0.0433285
0.0431425
0.0428884
0.0426512
0.0424974
0.0423555
0.0421912
0.0420233
0.0418212
0.045153
0.0449322
0.0447286
0.0445469
0.0443597
0.0441633
0.043973
0.043798
0.0436502
0.0435225
0.0433965
0.0432356
0.0430399
0.0428359
0.0426599
0.0424921
0.0423291
0.0421368
0.0455596
0.0453029
0.0450402
0.0448396
0.0446553
0.0444735
0.0442783
0.0440639
0.0438753
0.0437226
0.0436095
0.0434861
0.0433457
0.0431726
0.0429911
0.0428205
0.0426432
0.0424396
0.0459138
0.0457269
0.0455076
0.0451841
0.04489
0.04475
0.0445854
0.0444208
0.0442186
0.0439446
0.0437633
0.0436874
0.0435948
0.0434714
0.0433146
0.0431404
0.042967
0.042823
0.0464391
0.0462737
0.0460978
0.045956
0.0457864
0.0453778
0.0450483
0.0449481
0.0447099
0.0445765
0.044313
0.0441675
0.0438847
0.0437998
0.0437219
0.0436107
0.0434578
0.0433041
0.0431287
0.04676
0.0466217
0.0464701
0.0463072
0.0461624
0.0460673
0.0458166
0.0455019
0.0451381
0.0448556
0.0447652
0.0445983
0.0444312
0.0441475
0.0439901
0.0438878
0.0437585
0.0436116
0.0469195
0.0467673
0.0466149
0.0464522
0.046328
0.0462244
0.0460775
0.0457989
0.0454849
0.0452434
0.044915
0.0447574
0.0446599
0.0444554
0.044217
0.0440529
0.0439134
0.0474048
0.0472477
0.0470968
0.0469282
0.0467629
0.0465989
0.0464623
0.0463563
0.0462391
0.0459429
0.0457237
0.0454099
0.0451593
0.0449507
0.0447908
0.0446274
0.0444349
0.0442429
0.0477687
0.047559
0.0474235
0.0472574
0.0470844
0.0469115
0.0467304
0.0465689
0.0464618
0.0463802
0.046159
0.0459077
0.045587
0.0453162
0.0451483
0.0449755
0.0448014
0.0445883
0.0479549
0.047885
0.0477431
0.0475803
0.0474182
0.0472602
0.0470975
0.0468808
0.0466668
0.0465247
0.0464905
0.0463352
0.0461289
0.045815
0.0455309
0.0453316
0.0451659
0.0450097
0.0481394
0.048008
0.0478739
0.0477279
0.0475782
0.0474362
0.0473103
0.0471122
0.0468575
0.046606
0.0465833
0.0465076
0.046296
0.0459963
0.0457612
0.0455461
0.0453706
0.048529
0.0482681
0.0480976
0.0480101
0.0478809
0.0477277
0.0475875
0.0474853
0.0473303
0.0471239
0.0467953
0.0466776
0.046587
0.0464024
0.0461779
0.0459663
0.0457568
0.0496232
0.0492431
0.0488459
0.0485082
0.0483428
0.0482022
0.0480533
0.0478601
0.0477003
0.0475988
0.0475263
0.0472885
0.0469791
0.0468226
0.0466943
0.046531
0.0463262
0.046129
0.0500148
0.0498109
0.0495117
0.0491169
0.0487215
0.0485536
0.0484193
0.0482693
0.0480574
0.0478862
0.0476739
0.0476532
0.047448
0.0471709
0.0469818
0.0468105
0.0466829
0.0502868
0.0501432
0.0498956
0.0496187
0.0492872
0.048915
0.0486893
0.0485975
0.0484846
0.0482272
0.0480824
0.0478712
0.0477426
0.047628
0.0473755
0.0471509
0.0469657
0.0508383
0.0506364
0.0504657
0.0502882
0.0500087
0.0497529
0.0494375
0.0490638
0.0489107
0.0487665
0.0486184
0.0485192
0.0483001
0.0480679
0.0478937
0.0477382
0.0475341
0.0473282
0.0511884
0.050975
0.0507603
0.0506174
0.0504412
0.0502458
0.0500185
0.0497012
0.0493561
0.0492623
0.0489225
0.0487976
0.0486165
0.0484062
0.0482444
0.0480718
0.0479036
0.0477164
0.0515696
0.0513135
0.051182
0.0509014
0.0508167
0.0506812
0.0506776
0.0505526
0.0502704
0.0497054
0.0494364
0.0492452
0.0490405
0.0487631
0.0484767
0.0483428
0.0482186
0.048059
0.0521016
0.0518409
0.0515479
0.0513229
0.0511649
0.0510263
0.0509874
0.0508207
0.0506406
0.0505796
0.0501416
0.0498163
0.0496043
0.0493317
0.0490316
0.0487229
0.0485405
0.0484007
0.0527033
0.0525127
0.0522979
0.0520302
0.0517919
0.0515855
0.0514511
0.0513121
0.0513422
0.0510852
0.0508685
0.0506559
0.0504008
0.0501114
0.0498863
0.0496884
0.0493379
0.048997
0.0487764
0.0530129
0.052845
0.0526824
0.0525098
0.0522818
0.0520082
0.0518259
0.0516047
0.0515226
0.051276
0.0511012
0.0509127
0.0507289
0.0505399
0.0502942
0.0500438
0.0498609
0.0495771
0.0493111
0.0531199
0.052992
0.0527989
0.0526408
0.0524237
0.0522155
0.0519329
0.051704
0.0515601
0.0513347
0.0511723
0.050999
0.0508332
0.0506408
0.0504099
0.0501999
0.0499948
0.0498006
0.0535842
0.0533837
0.0531797
0.0529736
0.0528099
0.0526803
0.0524558
0.0521779
0.0518338
0.0516483
0.0514167
0.0512711
0.0511297
0.0509533
0.0507526
0.0505492
0.0503341
0.0539973
0.0537895
0.0535914
0.0533725
0.0531648
0.0529746
0.0526799
0.0527168
0.0523535
0.0520402
0.0517721
0.0515822
0.0514272
0.0512769
0.0510962
0.0509064
0.0506622
0.0544362
0.0541973
0.0539754
0.0537545
0.0535142
0.0532428
0.0530489
0.0528202
0.0527256
0.0525734
0.0522103
0.0519611
0.0517731
0.0516052
0.0514327
0.051255
0.0510509
0.0549794
0.0548029
0.0546152
0.0543598
0.0541225
0.0538643
0.0535651
0.0533991
0.0532644
0.0530895
0.0528952
0.0526785
0.052371
0.0521365
0.0519508
0.0517774
0.0515969
0.0514546
0.0554245
0.0552126
0.054975
0.054781
0.0545182
0.0542434
0.0540818
0.0540086
0.0535934
0.0534418
0.0532579
0.0530897
0.0528724
0.0525423
0.0523198
0.0521237
0.0519439
0.0558224
0.0556145
0.0553772
0.0551451
0.0548672
0.0545794
0.0542646
0.0540951
0.0539555
0.0537744
0.0536003
0.0534121
0.0532442
0.0530383
0.0527822
0.0525299
0.052327
0.056196
0.0560023
0.0558216
0.0555654
0.0552471
0.0548549
0.0546967
0.0545139
0.054244
0.0541089
0.0539558
0.0537803
0.0535584
0.0533722
0.0531758
0.0529549
0.0527413
0.0566659
0.0564185
0.0561764
0.0559488
0.0556498
0.0553147
0.0550132
0.0548525
0.0545193
0.0544032
0.054296
0.05413
0.0539522
0.0537611
0.0535367
0.053356
0.0531296
0.0570139
0.0568751
0.0566353
0.0563615
0.0560956
0.0557938
0.0554069
0.0547629
0.0548416
0.0547851
0.0546911
0.0545061
0.0543079
0.0541238
0.0539241
0.0537102
0.0535158
0.0573659
0.0571839
0.0570344
0.0568739
0.0565837
0.0564404
0.0561758
0.0556971
0.0553845
0.0551649
0.0550254
0.054908
0.0547346
0.0544947
0.0543098
0.0541158
0.053897
0.0575064
0.0573321
0.0571732
0.0569382
0.0567671
0.056538
0.056438
0.0560765
0.0556805
0.055413
0.0552353
0.0550719
0.0548832
0.054675
0.0545188
0.0542947
0.0582456
0.0578563
0.0575385
0.0574105
0.0572111
0.0569992
0.0568642
0.0564876
0.0561973
0.0559114
0.0556282
0.0553966
0.0552424
0.0550374
0.054843
0.0591529
0.0589576
0.0586276
0.0582473
0.057831
0.0576612
0.0574369
0.05711
0.0569346
0.0566247
0.0563347
0.0560598
0.0558686
0.055624
0.0554187
0.0552306
0.0595455
0.0593707
0.0591891
0.0589022
0.0585652
0.0581078
0.0577098
0.0577591
0.0573761
0.0571519
0.0568337
0.05651
0.0561065
0.0559784
0.0557948
0.0555939
0.0600037
0.0598151
0.0596101
0.0593161
0.0590258
0.0587277
0.0583486
0.0582285
0.0578884
0.057606
0.0573946
0.0571197
0.0567293
0.0563754
0.0561529
0.0559799
0.0606578
0.0604272
0.0602129
0.0600152
0.0598999
0.0595914
0.059285
0.0590467
0.0588102
0.0585747
0.058254
0.0578619
0.0575564
0.0573315
0.0570417
0.0567172
0.0609895
0.0607817
0.0606385
0.060474
0.0602471
0.0600842
0.0597796
0.0594746
0.0592136
0.0590516
0.0587623
0.058465
0.0581011
0.0577918
0.0576066
0.057355
0.061439
0.0611679
0.0609274
0.0607768
0.0606376
0.0604097
0.0602475
0.0600227
0.0596997
0.0595169
0.0593458
0.0591585
0.0588706
0.0584363
0.0580896
0.0577822
0.0619812
0.0616196
0.0612426
0.0610436
0.0609009
0.0607697
0.0605877
0.0603092
0.0601123
0.059899
0.0597428
0.0596146
0.0594584
0.0592408
0.0587898
0.0583783
0.0625716
0.0621255
0.0618281
0.0615177
0.0612107
0.0610867
0.0609021
0.0607374
0.0604206
0.0602503
0.0600725
0.0598768
0.0598192
0.0596955
0.0594433
0.0591615
0.0630817
0.0628145
0.0624788
0.0621869
0.0618925
0.0616535
0.0613656
0.0611265
0.0609705
0.0606088
0.060367
0.0602462
0.0601321
0.0599511
0.0598045
0.0635977
0.0633942
0.0631057
0.062794
0.0624236
0.0621456
0.0619267
0.0617001
0.0614299
0.0611937
0.0609193
0.0605315
0.0603688
0.0602663
0.0601541
0.0599476
0.0639883
0.06381
0.0636288
0.0634519
0.063079
0.0627069
0.0624231
0.0621588
0.0619823
0.061727
0.0614917
0.0612687
0.0608687
0.0606234
0.0604885
0.0603532
0.0643101
0.0641909
0.0640013
0.0637959
0.0635752
0.0632578
0.0629824
0.0627399
0.0624652
0.0622418
0.0620149
0.0618084
0.0616211
0.0612841
0.0609388
0.0645776
0.0643415
0.0642186
0.0640548
0.0638046
0.0634685
0.0632032
0.0630029
0.0627765
0.0625486
0.0622492
0.0620675
0.061806
0.0615567
0.0655454
0.0650104
0.0647068
0.0645354
0.0642878
0.0640168
0.0637036
0.0634825
0.0632478
0.0630695
0.0628339
0.0625139
0.0622965
0.0661915
0.0660183
0.0657096
0.0653954
0.0651155
0.0648164
0.0645378
0.0642959
0.0640176
0.0637664
0.0635012
0.0632408
0.0630274
0.0627089
0.0665526
0.0663297
0.0661767
0.0659336
0.0656989
0.0653514
0.0651235
0.0647603
0.064501
0.0642428
0.0639561
0.0637066
0.0634734
0.0632454
0.0670012
0.0667555
0.066508
0.0662716
0.0661535
0.0659142
0.0656456
0.065338
0.0650508
0.0647957
0.0644296
0.0641702
0.0639394
0.0637434
0.0673794
0.0672152
0.0669619
0.0667337
0.0665471
0.0663148
0.0661617
0.0659059
0.0655819
0.0652859
0.0650531
0.0646847
0.0644316
0.0642159
0.0677808
0.0675847
0.0674099
0.0672267
0.0670826
0.0669286
0.0666069
0.0663543
0.0660737
0.0657546
0.0654867
0.0652769
0.0650054
0.0646988
0.0680977
0.0678999
0.0677337
0.067638
0.0675105
0.0672149
0.0670701
0.066927
0.0666881
0.0663317
0.0658957
0.0656527
0.0654765
0.0678471
0.0678109
0.0676123
0.0672617
0.0671807
0.0669881
0.0666131
0.0660622
0.0658082
0.0680628
0.0680399
0.0678583
0.0675406
0.0673778
0.0672246
0.0669467
0.0664918
0.0684628
0.0682569
0.0682294
0.0682126
0.067929
0.067561
0.0673754
0.0691664
0.0688924
0.0685164
0.0684102
0.0683423
0.0681101
0.0677938
0.0692269
0.0689714
0.0687144
0.0685321
0.0683419
0.0701103
0.0697338
0.0691937
0.0692811
0.0690041
0.0687932
0.072501
0.0722701
0.0709828
0.0704915
0.0693132
0.0725024
0.0721906
0.071916
0.0716272
0.0714556
0.0696174
0.0727968
0.0717753
0.0713835
0.0712759
0.0708064
0.0729867
0.0723298
0.0717985
0.00559067
0.00541591
0.00532236
0.00713755
0.00678456
0.00648796
0.00625524
0.00596541
0.00568916
0.00544008
0.00533041
0.00393852
0.00843703
0.00815209
0.00776616
0.00752238
0.00720108
0.00688298
0.00660923
0.0063258
0.00603074
0.00574797
0.005424
0.00522244
0.00492142
0.00447672
0.00417797
0.00941466
0.00911344
0.00887054
0.00852999
0.00826854
0.00788116
0.00758356
0.00730912
0.0069985
0.00669203
0.00639362
0.00603644
0.00574267
0.00544345
0.00515725
0.00490558
0.00455715
0.00416039
0.00394547
0.00340965
0.00284547
0.00257094
0.0104571
0.0102359
0.00986863
0.00956261
0.00921197
0.00893497
0.00864671
0.00830572
0.00797838
0.00765913
0.00737795
0.00709537
0.00679763
0.00650209
0.00614549
0.0058345
0.00537966
0.00516109
0.00491777
0.00458281
0.00425758
0.00388423
0.00343963
0.0116887
0.0113285
0.0110929
0.0106727
0.01037
0.00992804
0.00960938
0.00930981
0.00905347
0.00875043
0.00838862
0.00802711
0.00768783
0.00742337
0.00710284
0.00692008
0.0066777
0.00642127
0.00575626
0.00540165
0.00515697
0.00494203
0.00462417
0.00432507
0.00397372
0.0124035
0.0119959
0.0118529
0.0115531
0.0112258
0.0107105
0.0104384
0.00996304
0.00962999
0.0093907
0.00917306
0.00889233
0.00854677
0.00803188
0.00766241
0.00744319
0.00720061
0.00700934
0.00678595
0.006439
0.00578573
0.00544817
0.00521539
0.00498147
0.00467742
0.013497
0.0129754
0.0125127
0.0122875
0.011987
0.0116227
0.0113722
0.011183
0.010754
0.0101393
0.00967307
0.00947784
0.00930322
0.00905262
0.0088855
0.00815828
0.00763917
0.00746846
0.0072596
0.00704637
0.00679072
0.00650917
0.00592697
0.00555547
0.0052945
0.0145131
0.0141512
0.0136654
0.0130923
0.0126997
0.0124824
0.0121931
0.0118736
0.0114863
0.0113521
0.0110279
0.0104351
0.00988375
0.00949655
0.0094113
0.00925708
0.00908811
0.00841902
0.00769434
0.00749886
0.00731029
0.00705337
0.00679132
0.00644381
0.00604632
0.0163091
0.0158884
0.0152152
0.0147516
0.0142421
0.013715
0.0132915
0.0129083
0.0126525
0.0124054
0.0119898
0.0116671
0.0115072
0.0112958
0.010807
0.010306
0.00975898
0.00941895
0.00923562
0.00911509
0.00855637
0.00787645
0.00758511
0.00738779
0.00711317
0.00677439
0.0172381
0.0169646
0.0166937
0.0164049
0.0160273
0.015457
0.0149226
0.0143714
0.0138368
0.0135575
0.0131547
0.0128023
0.0124372
0.0120578
0.0117822
0.0115897
0.011356
0.0110179
0.0106188
0.0100002
0.009574
0.00928763
0.00890082
0.00843379
0.00811275
0.00769738
0.00748262
0.0175974
0.0173639
0.0170892
0.0168255
0.0164644
0.0160664
0.015589
0.015108
0.0146362
0.0141747
0.0137576
0.0133132
0.0129044
0.0124844
0.0121078
0.0119194
0.0116996
0.0114438
0.0111396
0.0108344
0.0104103
0.00978488
0.00945584
0.00898219
0.00845692
0.0194791
0.0190729
0.0185031
0.0179873
0.0176023
0.0171639
0.0169534
0.0166356
0.0160884
0.0156743
0.0152528
0.0147903
0.014347
0.0138738
0.013465
0.0130994
0.0125963
0.0122143
0.0120369
0.0118254
0.0115612
0.0113206
0.0110626
0.0106877
0.0101615
0.0200143
0.0195921
0.0192758
0.0188407
0.0183003
0.0177334
0.0173811
0.0171501
0.0167174
0.0162894
0.0158009
0.0154413
0.0149847
0.0145442
0.013992
0.0136005
0.0131756
0.0127366
0.0123929
0.012155
0.0119476
0.0117299
0.0114944
0.0112372
0.0211644
0.0210321
0.0206972
0.020247
0.0197389
0.0194858
0.0191563
0.0186505
0.018206
0.0176725
0.0173558
0.0169707
0.0165194
0.016235
0.0157322
0.0152399
0.0147147
0.0141979
0.0137516
0.0133012
0.0129102
0.0125786
0.012325
0.0120888
0.01183
0.0218076
0.0215108
0.021287
0.0211394
0.0209703
0.0204222
0.0201018
0.0198513
0.0195362
0.0191668
0.0185311
0.0180379
0.0176589
0.0172294
0.0168171
0.0164285
0.0159976
0.0154987
0.0149818
0.0145535
0.0139889
0.0133309
0.0129388
0.0127017
0.0123715
0.0223724
0.0221439
0.0219159
0.0216494
0.0213885
0.0211735
0.0209959
0.0206667
0.0204126
0.0202098
0.0199705
0.0194893
0.0188864
0.0184322
0.017814
0.0174578
0.0170589
0.0167477
0.0162915
0.0158055
0.01535
0.0148204
0.0143091
0.0136395
0.0130145
0.0231428
0.0229122
0.0227252
0.0225171
0.0223013
0.0220974
0.021775
0.0215489
0.0211953
0.0210316
0.0208017
0.0205924
0.0204149
0.0201441
0.0197478
0.0192122
0.0186787
0.0181061
0.0177794
0.0173054
0.0169657
0.0165127
0.0160117
0.0155575
0.0150732
0.0145972
0.0237906
0.0236224
0.0233083
0.0230696
0.0228624
0.0226346
0.0224397
0.022231
0.0219813
0.0216717
0.0213191
0.0210855
0.0209048
0.0207089
0.0205585
0.020228
0.0196998
0.0194408
0.0190439
0.0185778
0.0181637
0.017617
0.0171784
0.0167069
0.0162836
0.0158159
0.0246281
0.0242499
0.0239097
0.0236741
0.0234346
0.0231488
0.0229107
0.0227305
0.0225495
0.0223694
0.0220611
0.021767
0.0215074
0.0212182
0.0210286
0.020831
0.0205725
0.020166
0.0196351
0.0194271
0.0192375
0.0186971
0.0184428
0.0181324
0.0175312
0.0170155
0.0165703
0.0251731
0.0249755
0.0246806
0.024361
0.0240276
0.0237151
0.023444
0.0232134
0.0230004
0.0228152
0.0226355
0.022457
0.02227
0.0219198
0.0215825
0.0213902
0.0211904
0.0210114
0.0207021
0.0201674
0.0195971
0.0193742
0.019131
0.018824
0.0185788
0.0183795
0.0180765
0.0256857
0.0253646
0.0250842
0.0247973
0.0244609
0.0240948
0.0237743
0.0234907
0.0232366
0.0230324
0.0228635
0.0226981
0.0225209
0.0223243
0.0220818
0.0218002
0.0215685
0.0213957
0.0212566
0.0210394
0.0203979
0.019767
0.0194318
0.0192088
0.0189322
0.0186704
0.0265421
0.0261287
0.0258231
0.0255094
0.0251912
0.0249026
0.0244919
0.0242632
0.0239655
0.0236294
0.0233681
0.0231053
0.0228947
0.0227522
0.0225831
0.0223846
0.0221624
0.0219235
0.0217056
0.0215269
0.0214231
0.0210913
0.0204468
0.01994
0.0196013
0.019333
0.0272755
0.0269553
0.0266679
0.0263441
0.0260063
0.0256811
0.0253809
0.0249546
0.0246545
0.0243746
0.0240136
0.0237032
0.0233646
0.0231908
0.0229789
0.0228224
0.0226574
0.0224632
0.0222462
0.0220209
0.0218126
0.0216013
0.0213445
0.0210143
0.0206756
0.0202113
0.0277216
0.0274755
0.027163
0.0267953
0.0264773
0.0260319
0.0258635
0.0255219
0.0250715
0.0247738
0.0245006
0.0241359
0.0238396
0.0235198
0.0232445
0.0230944
0.0229306
0.022752
0.0225532
0.0223377
0.0220899
0.0218784
0.0216624
0.0214053
0.0211329
0.0284998
0.0282534
0.0279745
0.0277029
0.027395
0.0270099
0.0267425
0.0262874
0.0259412
0.025566
0.0252775
0.0249919
0.0246327
0.0243056
0.0239919
0.0236833
0.0234273
0.0232115
0.0230476
0.022863
0.0226581
0.0224316
0.0221925
0.0219586
0.0217631
0.0215366
0.0292553
0.0289879
0.0287276
0.0284473
0.028163
0.0278845
0.0276001
0.027118
0.0268922
0.0265577
0.0261765
0.0258199
0.0254584
0.0251244
0.0248144
0.0244732
0.0241167
0.0238038
0.0236197
0.023312
0.0231762
0.0229852
0.0227545
0.0225221
0.0223164
0.0221055
0.0300046
0.0296811
0.0294086
0.0291607
0.0288974
0.0286492
0.0283751
0.0280927
0.0277619
0.0273984
0.0270827
0.0268004
0.0264018
0.0260148
0.025652
0.0253158
0.0249696
0.0247015
0.0244146
0.0239507
0.0236371
0.023449
0.023323
0.0231115
0.0228889
0.0226731
0.0224447
0.0303932
0.0301098
0.02984
0.0295494
0.029325
0.0290772
0.0288337
0.0285758
0.0283027
0.027993
0.0276603
0.0273347
0.0270338
0.0266184
0.0262286
0.0258607
0.0255067
0.025207
0.0247937
0.0246641
0.0242475
0.0239557
0.0236794
0.0234673
0.0232589
0.0230593
0.03112
0.0308848
0.030629
0.030286
0.0299635
0.0296763
0.0294712
0.0293244
0.0291116
0.0288196
0.0285032
0.0281752
0.0278689
0.027623
0.0272492
0.0268403
0.0264321
0.0260206
0.0255804
0.025611
0.0250697
0.0246889
0.0244455
0.0241346
0.0238119
0.0236235
0.0314919
0.0312989
0.0311009
0.0308668
0.03051
0.0302886
0.0299258
0.0296842
0.0295032
0.0293365
0.0290374
0.0286991
0.0283721
0.0279992
0.0277723
0.0274511
0.0269897
0.0265895
0.0264143
0.0260517
0.0256154
0.0252072
0.0248937
0.0246361
0.0243261
0.0320974
0.0318911
0.0316796
0.0314366
0.0312644
0.0311013
0.0307795
0.0303654
0.0301327
0.0299741
0.0297581
0.0295112
0.0292458
0.02893
0.028598
0.0283149
0.0279781
0.0276249
0.0272926
0.0267894
0.0264207
0.0261517
0.0258015
0.0254621
0.0250825
0.0325104
0.0322564
0.0320467
0.0318184
0.03159
0.0314144
0.0312555
0.0310007
0.0306069
0.030362
0.0302367
0.0300037
0.029702
0.0293909
0.0290364
0.0287389
0.0285058
0.028172
0.0277894
0.0273653
0.026931
0.026582
0.0262641
0.0259705
0.0257219
0.033239
0.0329551
0.0326707
0.0323734
0.0321557
0.0319294
0.0316971
0.0314924
0.0313591
0.0311546
0.0307723
0.0304595
0.0302972
0.0302833
0.0299366
0.0295595
0.0291477
0.0288781
0.0286935
0.0285678
0.0279571
0.0275055
0.0271208
0.0268258
0.0264509
0.0337751
0.0334926
0.0331612
0.0328237
0.0325045
0.0323057
0.0320912
0.0318435
0.0316145
0.0312836
0.0313013
0.0310003
0.0307425
0.0304919
0.0302694
0.0300848
0.0297777
0.0293262
0.029024
0.0289012
0.0285785
0.0280588
0.027751
0.0273918
0.0270366
0.0343694
0.0342051
0.0339801
0.0337244
0.033374
0.0331578
0.0329362
0.032591
0.0323148
0.0320659
0.0317881
0.031454
0.0313002
0.0311577
0.0309177
0.0307629
0.0305852
0.0302547
0.0299256
0.0295897
0.0292158
0.0289875
0.0286899
0.028298
0.0279644
0.0347599
0.034569
0.0343866
0.0341963
0.0340111
0.0336476
0.0332731
0.0330985
0.0328339
0.0325767
0.0322106
0.0318805
0.0316185
0.0313527
0.0312131
0.0310511
0.0308769
0.0307341
0.030502
0.0301752
0.0298373
0.0294761
0.0291709
0.0287663
0.0353014
0.0350834
0.0348952
0.0346933
0.0345145
0.0343577
0.0341786
0.0339124
0.0335043
0.0333095
0.0330803
0.0327968
0.0324751
0.0321253
0.0318351
0.0315628
0.0313745
0.0312088
0.031018
0.030834
0.0305739
0.0303053
0.0300133
0.0297065
0.0294208
0.0356077
0.0354121
0.0352419
0.0350608
0.0348643
0.0346744
0.0345163
0.0343072
0.0340341
0.033794
0.0335421
0.0333595
0.0331105
0.0327681
0.0323891
0.0320337
0.0317469
0.0314636
0.031297
0.0311567
0.0309358
0.0306851
0.0304637
0.0301878
0.036117
0.0359247
0.0357499
0.0355459
0.0353693
0.03521
0.0350158
0.0348275
0.0346512
0.0344545
0.0342217
0.0339464
0.0337136
0.0335001
0.0331664
0.0329086
0.0325882
0.0322803
0.0319248
0.0317026
0.0315132
0.0313036
0.0310588
0.0308535
0.0306168
0.0364483
0.0362493
0.0360751
0.0358939
0.0356956
0.0355107
0.0353298
0.035158
0.034929
0.0346485
0.0345355
0.0343525
0.0341035
0.0339027
0.0336427
0.0334476
0.0331838
0.0327795
0.0324443
0.0321395
0.0319002
0.0316826
0.0314836
0.0312513
0.0369851
0.0367901
0.0365908
0.036368
0.0361954
0.036041
0.035848
0.0356728
0.0354763
0.0353001
0.0351074
0.0347605
0.0346131
0.0344108
0.0342476
0.0340023
0.0337292
0.0335408
0.0333323
0.0330116
0.0326477
0.0323626
0.0320769
0.0319019
0.0317101
0.037301
0.0371059
0.0369222
0.036729
0.0365219
0.0363406
0.0361553
0.035995
0.0358157
0.0356531
0.0354131
0.0353052
0.0350301
0.0347523
0.0344896
0.0343805
0.0341166
0.0338409
0.0336357
0.0334396
0.0331315
0.032795
0.0325661
0.0323017
0.0376281
0.0374594
0.0372474
0.0370335
0.0368615
0.0366561
0.0364778
0.0362826
0.0361237
0.0359707
0.0358233
0.0355601
0.0354032
0.0351428
0.0349094
0.0346865
0.0343808
0.0341591
0.0339196
0.0337732
0.0335647
0.0332724
0.0330108
0.032772
0.0381451
0.0379708
0.0377865
0.0375652
0.0373562
0.0371718
0.0369678
0.0367739
0.0365787