/*--------------------------------*- C++ -*----------------------------------*\
| =========                 |                                                 |
| \\      /  F ield         | OpenFOAM: The Open Source CFD Toolbox           |
|  \\    /   O peration     | Version:  2312                                  |
|   \\  /    A nd           | Website:  www.openfoam.com                      |
|    \\/     M anipulation  |                                                 |
\*---------------------------------------------------------------------------*/
FoamFile
{
    version     2.0;
    format      ascii;
    arch        "LSB;label=64;scalar=64";
    class       volScalarField;
    location    "10";
    object      p;
}
// * * * * * * * * * * * * * * * * * * * * * * * * * * * * * * * * * * * * * //

dimensions      [0 2 -2 0 0 0 0];

internalField   nonuniform List<scalar> 
404911
(
4.26441
4.25804
4.25728
4.26145
4.27185
4.26301
4.25965
4.26084
4.26116
4.26131
4.33024
4.31579
4.29735
4.28418
4.27189
4.26482
4.35181
4.33753
4.32219
4.30677
4.38072
4.36541
4.34844
4.41099
4.39764
4.38385
4.43859
4.42417
4.41265
4.48185
4.46864
4.45269
4.43648
4.4221
4.49879
4.48326
4.46704
4.54781
4.53276
4.51734
4.50205
4.57131
4.56047
4.54609
4.53269
4.52097
4.58635
4.57347
4.5588
4.54452
4.6128
4.60074
4.58531
4.57176
4.61731
4.61078
4.71624
4.24835
4.26534
4.25561
4.31228
4.2977
4.3524
4.33688
4.32225
4.38116
4.365
4.34904
4.41058
4.39636
4.43834
4.42289
4.41061
4.4678
4.45214
4.43444
4.42069
4.49862
4.48265
4.53306
4.51719
4.56174
4.54661
4.53202
4.59174
4.57727
4.61894
4.6055
4.58789
4.62741
4.61781
4.71457
4.72552
4.71288
4.77001
4.75375
4.73934
4.79727
4.78312
4.76568
4.82234
4.81051
4.79829
4.82138
1.90539
1.88309
1.86191
2.01308
1.98749
1.95845
1.93833
1.91758
1.89674
1.87902
1.85162
2.07024
2.05031
2.00092
1.9711
1.945
1.9285
1.9081
1.88731
1.8077
2.14092
2.12023
2.10058
2.08074
2.06218
2.04754
2.01811
1.98605
1.95838
1.93983
1.91966
1.89604
1.86595
1.83465
1.81276
1.79449
2.19653
2.1731
2.15035
2.12925
2.10934
2.08997
2.07107
2.05277
2.03397
2.00333
1.97694
1.95482
1.93418
1.91166
1.81795
2.25762
2.23133
2.20597
2.18126
2.15744
2.13646
2.11698
2.0981
2.0791
2.05955
2.03775
2.01443
1.99092
1.96864
1.95144
2.29486
2.27402
2.24659
2.22069
2.19541
2.16837
2.14381
2.12408
2.10671
2.08826
2.06835
2.04744
2.02522
2.00285
1.98057
1.96107
2.35852
2.33341
2.31066
2.28686
2.2611
2.23577
2.21013
2.1823
2.15589
2.13255
2.11672
2.09801
2.07824
2.05759
2.03621
2.01444
1.99326
2.44326
2.41907
2.3991
2.37342
2.34904
2.32489
2.30065
2.27543
2.25024
2.22419
2.19432
2.16794
2.14609
2.12803
2.10893
2.08886
2.06871
2.04742
2.48295
2.46079
2.43476
2.41176
2.38864
2.36343
2.34033
2.31436
2.28873
2.26352
2.23788
2.2078
2.17516
2.15821
2.14003
2.12043
2.1003
2.08014
2.54243
2.52058
2.50011
2.47727
2.45081
2.4263
2.40294
2.37879
2.35407
2.32834
2.30218
2.27765
2.2523
2.22406
2.19261
2.16902
2.15236
2.13376
2.57997
2.55676
2.5348
2.51405
2.4902
2.46415
2.44153
2.41627
2.39169
2.36811
2.34248
2.31677
2.29115
2.26583
2.24274
2.21169
2.18317
2.63685
2.61586
2.59346
2.57247
2.55022
2.52781
2.50384
2.47877
2.4559
2.43059
2.40614
2.38111
2.3564
2.33123
2.30541
2.27994
2.26029
2.68785
2.66628
2.64786
2.63123
2.61217
2.58843
2.56476
2.5422
2.51967
2.49584
2.47257
2.44531
2.41974
2.39438
2.37232
2.34603
2.31859
2.29533
2.75133
2.732
2.70515
2.67948
2.65812
2.64695
2.62625
2.60321
2.57927
2.55651
2.53706
2.51208
2.48636
2.45965
2.43382
2.40524
2.38411
2.36192
2.79832
2.78131
2.76505
2.7505
2.72388
2.69562
2.67119
2.65818
2.64115
2.6178
2.59355
2.57035
2.55446
2.53028
2.49939
2.47227
2.44911
2.42064
2.82907
2.80978
2.79214
2.77592
2.76089
2.73762
2.71166
2.68953
2.66878
2.65223
2.62648
2.6021
2.58308
2.56848
2.54398
2.51267
2.48224
2.46109
2.87967
2.86045
2.84031
2.82057
2.80295
2.78455
2.76708
2.75127
2.72805
2.70671
2.68405
2.66565
2.64158
2.61544
2.59243
2.57944
2.55828
2.52743
2.91189
2.89039
2.87233
2.85394
2.83191
2.81171
2.79752
2.77532
2.75552
2.73999
2.72355
2.70557
2.68165
2.65731
2.63195
2.6062
2.58912
2.56963
2.97466
2.95614
2.93118
2.90751
2.88635
2.87034
2.84963
2.82696
2.807
2.78485
2.76321
2.74929
2.73472
2.71897
2.7011
2.67474
2.64662
2.6227
3.00524
2.98885
2.97575
2.95177
2.92778
2.90701
2.88715
2.86591
2.84292
2.82068
2.797
2.77413
2.75981
2.74416
2.7285
2.70946
2.68778
3.04876
3.03301
3.01683
3.00084
2.9865
2.96868
2.94508
2.92513
2.90449
2.88139
2.85804
2.8351
2.81143
2.78731
2.77274
2.75635
2.73907
2.72048
3.07825
3.06125
3.04446
3.0285
3.01229
2.9984
2.97924
2.95981
2.94245
2.92358
2.89967
2.87648
2.8507
2.82556
2.80311
2.78532
2.76899
2.7517
3.10564
3.08943
3.07365
3.05788
3.03946
3.02163
3.00716
2.99039
2.97158
2.95757
2.94286
2.9191
2.89331
2.86771
2.84203
2.82056
2.80017
2.78209
3.15121
3.13421
3.11789
3.10159
3.08597
3.07141
3.05632
3.03525
3.01527
2.99787
2.98034
2.96613
2.95056
2.93496
2.9105
2.88294
2.85914
2.83666
3.19375
3.17809
3.16197
3.14573
3.13027
3.11421
3.09797
3.08181
3.06719
3.04861
3.02991
3.01138
2.98963
2.97537
2.95964
2.94282
2.92078
2.89777
3.22111
3.20491
3.18926
3.17362
3.15807
3.14234
3.12721
3.1124
3.09237
3.07308
3.05744
3.04268
3.02444
3.00166
2.98627
2.97062
2.95298
2.93333
3.26229
3.24714
3.23153
3.21625
3.20067
3.18501
3.1695
3.15409
3.13964
3.12611
3.10756
3.08901
3.07131
3.05249
3.03733
3.01751
2.99852
2.98262
3.2878
3.2729
3.25787
3.24269
3.22729
3.21152
3.19615
3.18077
3.16553
3.15091
3.13714
3.1209
3.10377
3.0861
3.06641
3.05004
3.03148
3.01288
3.31463
3.29833
3.28293
3.26883
3.25387
3.23792
3.22183
3.20676
3.19189
3.17685
3.16173
3.14649
3.13047
3.11361
3.09617
3.0786
3.06087
3.04238
3.34336
3.32812
3.30932
3.29291
3.28021
3.26593
3.24837
3.23103
3.21665
3.20278
3.18807
3.17277
3.15716
3.14098
3.12467
3.10701
3.08935
3.07213
3.38467
3.37004
3.35666
3.34351
3.32535
3.30633
3.29327
3.28055
3.26319
3.24376
3.2275
3.21429
3.19964
3.18426
3.16863
3.15263
3.13607
3.11801
3.41255
3.39699
3.38158
3.36689
3.3524
3.33656
3.32041
3.30626
3.29394
3.27803
3.25845
3.24068
3.22659
3.21166
3.19627
3.18055
3.16479
3.14875
3.43979
3.42505
3.40936
3.39389
3.37741
3.36072
3.34508
3.33111
3.3172
3.30386
3.28938
3.27213
3.25479
3.23918
3.22369
3.20851
3.19253
3.17742
3.46639
3.45166
3.43687
3.4219
3.40747
3.39149
3.37164
3.35391
3.34147
3.32801
3.31388
3.2993
3.28338
3.26718
3.25144
3.23573
3.22041
3.50958
3.49467
3.47911
3.46381
3.44843
3.43327
3.42011
3.40653
3.38615
3.36507
3.35193
3.33906
3.3251
3.31048
3.29524
3.27967
3.26375
3.24735
3.53716
3.52187
3.50686
3.49208
3.47627
3.4599
3.44328
3.42993
3.4184
3.39989
3.37669
3.36241
3.3503
3.33671
3.32223
3.30724
3.29191
3.27662
3.56232
3.54837
3.53404
3.52
3.50583
3.49014
3.47261
3.45712
3.43974
3.42822
3.41423
3.39449
3.37519
3.36251
3.34891
3.33439
3.31928
3.30392
3.60143
3.58796
3.57386
3.56025
3.5463
3.53253
3.51999
3.50644
3.48769
3.47041
3.45313
3.43914
3.42782
3.40987
3.39007
3.3757
3.36153
3.3466
3.62686
3.6131
3.59953
3.58574
3.57221
3.55841
3.54493
3.53276
3.51998
3.50141
3.48377
3.46445
3.44877
3.43747
3.42278
3.40586
3.38956
3.37315
3.65292
3.63894
3.62502
3.61128
3.59747
3.58379
3.57021
3.55676
3.54419
3.53172
3.51782
3.49792
3.4796
3.46092
3.44851
3.43452
3.41881
3.40331
3.67934
3.66511
3.65104
3.63707
3.62327
3.60932
3.5956
3.58211
3.56818
3.55392
3.54097
3.52885
3.51117
3.49324
3.47501
3.46146
3.44693
3.43136
3.70571
3.69203
3.67722
3.663
3.64881
3.63509
3.62129
3.60761
3.59454
3.58068
3.56343
3.54926
3.53815
3.52386
3.50628
3.49065
3.47562
3.7452
3.73145
3.71761
3.70344
3.68921
3.67483
3.66031
3.64638
3.63299
3.61968
3.60725
3.59608
3.5791
3.56302
3.5472
3.53522
3.5198
3.50444
3.76985
3.7565
3.74313
3.72975
3.7158
3.70173
3.68702
3.67099
3.65619
3.64385
3.63173
3.61947
3.60858
3.5957
3.57736
3.56083
3.54702
3.53237
3.79535
3.78186
3.76833
3.75518
3.74156
3.72803
3.71486
3.70208
3.68361
3.66699
3.65475
3.64336
3.63074
3.61827
3.60515
3.58982
3.57415
3.55955
3.82087
3.80723
3.79376
3.78015
3.76682
3.75317
3.73994
3.72732
3.71591
3.7011
3.68366
3.66795
3.65555
3.64243
3.62898
3.61508
3.60072
3.58649
3.84741
3.83323
3.81927
3.80561
3.79206
3.77844
3.76468
3.75145
3.73861
3.72633
3.71294
3.69757
3.68225
3.66844
3.65459
3.64116
3.6264
3.61162
3.87438
3.8597
3.84526
3.83118
3.81753
3.8038
3.78989
3.77594
3.76243
3.74942
3.73627
3.72299
3.70892
3.69466
3.68084
3.66695
3.65295
3.63865
3.90158
3.88722
3.87155
3.85631
3.84238
3.82897
3.81529
3.80095
3.78637
3.77268
3.7601
3.74728
3.73423
3.72064
3.7069
3.69319
3.67937
3.6652
3.92757
3.91413
3.90037
3.88317
3.86631
3.85247
3.83963
3.82695
3.81175
3.79622
3.78186
3.77019
3.75873
3.74602
3.73271
3.71914
3.70547
3.69197
3.9673
3.95415
3.94038
3.92735
3.91527
3.90128
3.8807
3.86358
3.84951
3.83866
3.82757
3.81125
3.79563
3.78208
3.77068
3.75805
3.74479
3.73132
3.71782
3.99234
3.97947
3.96604
3.95256
3.94007
3.92846
3.91675
3.89824
3.8804
3.86452
3.84958
3.8397
3.82616
3.81046
3.79574
3.78334
3.77035
3.75725
4.00462
3.99158
3.97838
3.96516
3.95212
3.93993
3.92836
3.9134
3.89604
3.87996
3.86485
3.84981
3.83885
3.82481
3.80984
3.79641
3.78262
4.04451
4.03108
4.01747
4.00397
3.99046
3.97694
3.96359
3.95118
3.94012
3.92724
3.90894
3.89329
3.8779
3.86205
3.84993
3.83649
3.82262
3.80895
4.06972
4.05627
4.04307
4.02986
4.01636
4.00271
3.98882
3.97452
3.9616
3.95113
3.93921
3.92149
3.90608
3.88976
3.87611
3.86266
3.84893
3.83433
4.09464
4.08116
4.06824
4.05517
4.04213
4.02886
4.01564
4.00163
3.98458
3.97052
3.96091
3.95108
3.93507
3.9192
3.90346
3.88966
3.87557
3.86194
4.10458
4.09263
4.08041
4.06754
4.05447
4.04132
4.0289
4.0173
3.99984
3.98309
3.97034
3.9602
3.94679
3.93156
3.9165
3.90225
3.88848
4.13789
4.11829
4.10393
4.09308
4.08027
4.06675
4.05335
4.04101
4.03008
4.01308
3.99595
3.98181
3.97012
3.95717
3.94296
3.92868
3.91479
4.19369
4.17364
4.15478
4.13601
4.1184
4.10638
4.09329
4.07909
4.06401
4.05147
4.04094
4.02552
4.00725
3.99448
3.98171
3.9687
3.95435
3.94026
4.21751
4.20565
4.18893
4.16977
4.15109
4.13376
4.11994
4.10695
4.09276
4.07592
4.06176
4.0511
4.03884
4.02203
4.00743
3.99379
3.98051
4.2432
4.22942
4.21392
4.19762
4.18103
4.1619
4.14545
4.13248
4.1205
4.10829
4.09151
4.07586
4.06176
4.04932
4.03495
4.02006
4.00598
4.28514
4.27012
4.25554
4.24168
4.22629
4.20883
4.19319
4.17687
4.15791
4.14411
4.13057
4.11842
4.10528
4.09076
4.07524
4.06167
4.04757
4.03319
4.31153
4.29655
4.28123
4.26756
4.25441
4.2398
4.22497
4.20881
4.19181
4.17232
4.1609
4.14474
4.12683
4.11377
4.10136
4.08796
4.07443
4.06066
4.3405
4.32253
4.30743
4.2942
4.27946
4.26692
4.25292
4.23975
4.22452
4.20692
4.19007
4.1751
4.15969
4.14323
4.1249
4.11249
4.10036
4.08706
4.37155
4.35708
4.33882
4.32286
4.30856
4.29469
4.28056
4.26535
4.25056
4.23706
4.22134
4.20556
4.19035
4.17517
4.15906
4.14113
4.12632
4.11331
4.41383
4.39933
4.38397
4.36948
4.35295
4.33694
4.32208
4.30794
4.2954
4.27884
4.2639
4.25026
4.23647
4.221
4.20686
4.19214
4.17753
4.15726
4.1404
4.4394
4.42594
4.41135
4.39712
4.38206
4.36605
4.35062
4.33459
4.32057
4.30597
4.29115
4.27681
4.26362
4.25001
4.23451
4.21884
4.20409
4.18811
4.17212
4.45359
4.439
4.42428
4.41032
4.39535
4.37956
4.36352
4.3472
4.33318
4.31789
4.30357
4.28979
4.27582
4.2616
4.24644
4.23136
4.21546
4.19996
4.48579
4.46956
4.45387
4.43832
4.42374
4.40922
4.39408
4.37806
4.36159
4.34613
4.33022
4.31529
4.3025
4.28864
4.27417
4.25914
4.24404
4.519
4.50185
4.48527
4.46872
4.45278
4.43757
4.42193
4.40972
4.39184
4.37543
4.35907
4.3448
4.3295
4.31582
4.30182
4.28739
4.27159
4.55428
4.53351
4.51803
4.50083
4.48375
4.46737
4.45167
4.43463
4.4214
4.40564
4.38904
4.37247
4.35798
4.34353
4.32988
4.31529
4.30097
4.60558
4.58919
4.57132
4.55243
4.53454
4.517
4.49862
4.48218
4.46637
4.45078
4.43557
4.41984
4.40224
4.38578
4.3719
4.35722
4.3426
4.32853
4.636
4.62118
4.6056
4.58725
4.56885
4.55053
4.53355
4.51821
4.49802
4.48129
4.46522
4.45076
4.43519
4.41882
4.4013
4.38655
4.37124
4.66582
4.65058
4.63537
4.61945
4.60206
4.58382
4.56454
4.54714
4.53134
4.51359
4.49628
4.4788
4.46397
4.4491
4.43249
4.41611
4.40068
4.69597
4.68016
4.66528
4.65004
4.63222
4.61489
4.59774
4.58258
4.56289
4.54594
4.52843
4.51144
4.49512
4.47785
4.46217
4.4459
4.43004
4.72729
4.71075
4.69434
4.67758
4.66412
4.64446
4.62737
4.61381
4.59538
4.57827
4.56093
4.54339
4.52583
4.50909
4.49296
4.47636
4.46031
4.75795
4.74086
4.72466
4.70918
4.69301
4.6771
4.6582
4.63844
4.62525
4.60966
4.59396
4.57631
4.55776
4.54062
4.52379
4.50711
4.4907
4.78799
4.77169
4.755
4.7378
4.72354
4.70855
4.69333
4.67455
4.65557
4.63911
4.62294
4.60707
4.59069
4.57258
4.55529
4.53842
4.52166
4.80358
4.78402
4.77002
4.75414
4.73782
4.72181
4.70618
4.68925
4.6701
4.65186
4.63473
4.6194
4.60319
4.5865
4.56935
4.5524
4.84906
4.82433
4.80221
4.78438
4.76782
4.75197
4.73621
4.71919
4.70054
4.68331
4.66477
4.64723
4.63219
4.61628
4.59982
4.90973
4.8948
4.86938
4.84355
4.81841
4.80026
4.78309
4.76651
4.74968
4.73132
4.7117
4.69394
4.67818
4.66148
4.64537
4.62946
4.9465
4.9273
4.90814
4.88554
4.86076
4.83417
4.81426
4.80008
4.7813
4.76418
4.74634
4.72381
4.70303
4.68941
4.67503
4.65954
4.9854
4.96651
4.94805
4.9251
4.90148
4.87782
4.85446
4.83429
4.81469
4.79811
4.78103
4.76694
4.74353
4.72027
4.70286
4.68941
5.04637
5.02547
5.00492
4.98651
4.97012
4.94513
4.92233
4.90127
4.88099
4.86045
4.83801
4.81584
4.79431
4.78265
4.76395
4.74237
5.08592
5.06328
5.04316
5.02374
5.00591
4.98644
4.96278
4.94058
4.92108
4.90346
4.88484
4.8627
4.83804
4.81586
4.79668
4.78379
5.1287
5.10348
5.08032
5.06099
5.04235
5.02411
5.00225
4.98124
4.95999
4.94179
4.92578
4.91161
4.88952
4.86477
4.84023
4.81774
5.17196
5.1479
5.11889
5.09295
5.07671
5.05998
5.04022
5.01668
4.99703
4.97782
4.96227
4.94614
4.93145
4.9152
4.88977
4.86422
5.21358
5.19193
5.16766
5.14436
5.11848
5.09556
5.08033
5.06126
5.0353
5.01286
4.99494
4.9779
4.96345
4.94762
4.92966
4.91025
5.25321
5.23382
5.2118
5.18851
5.1663
5.14413
5.12287
5.10283
5.08291
5.05791
5.03138
5.0118
4.99721
4.98038
4.96413
5.29007
5.27401
5.25344
5.22977
5.20797
5.18647
5.16537
5.14496
5.12326
5.10224
5.0803
5.05367
5.0292
5.01487
4.99839
4.98193
5.32458
5.30685
5.29032
5.27157
5.24768
5.22476
5.20415
5.18396
5.16539
5.14344
5.12178
5.10135
5.07662
5.05077
5.03355
5.0153
5.35556
5.34045
5.32276
5.30542
5.28598
5.26346
5.24283
5.22311
5.2032
5.18306
5.16276
5.14195
5.12342
5.09946
5.07389
5.37629
5.35765
5.34049
5.32251
5.30206
5.28028
5.25928
5.24026
5.22151
5.20244
5.18077
5.15997
5.13859
5.11672
5.42911
5.40474
5.37984
5.36051
5.33967
5.31904
5.29768
5.2787
5.25826
5.23903
5.22102
5.19869
5.17774
5.48316
5.46555
5.44525
5.42707
5.4006
5.37968
5.35806
5.33654
5.31605
5.29581
5.27492
5.25482
5.23534
5.21414
5.52093
5.50026
5.48143
5.46209
5.44074
5.4187
5.39715
5.37646
5.35448
5.33332
5.31191
5.29204
5.27242
5.25259
5.56042
5.54035
5.51929
5.49453
5.47889
5.45856
5.43712
5.41537
5.39461
5.37394
5.3508
5.32793
5.30976
5.29031
5.59728
5.5796
5.56123
5.53862
5.51531
5.49398
5.47668
5.4561
5.43378
5.41234
5.39362
5.36947
5.3481
5.32728
5.63221
5.61395
5.59753
5.58173
5.55766
5.53665
5.51214
5.49284
5.47179
5.44963
5.42779
5.40887
5.3875
5.36672
5.66723
5.64773
5.626
5.61536
5.5983
5.57576
5.55396
5.53318
5.51335
5.49019
5.46325
5.44368
5.42501
5.62989
5.61995
5.59684
5.57117
5.55194
5.5383
5.5115
5.48273
5.46045
5.64461
5.63486
5.61549
5.58878
5.56577
5.55111
5.53091
5.50471
5.68599
5.65872
5.64808
5.63637
5.61094
5.58587
5.56666
5.74235
5.71599
5.68731
5.66337
5.64944
5.62904
5.6064
5.73776
5.71571
5.69047
5.66852
5.64872
5.8197
5.78699
5.74958
5.73426
5.71169
5.68924
5.97284
5.95687
5.87953
5.84961
5.75424
5.98492
5.96168
5.9428
5.92475
5.90592
5.80885
6.03267
5.93525
5.91596
5.8984
5.87077
6.0537
6.00083
5.94918
0.525841
0.49468
0.468187
0.709215
0.677016
0.641891
0.608516
0.574125
0.539342
0.505891
0.476417
0.353977
0.856147
0.824467
0.789468
0.756284
0.722684
0.688522
0.654279
0.619723
0.584476
0.549131
0.514481
0.481646
0.447434
0.408504
0.370934
0.970506
0.937585
0.902785
0.869042
0.835438
0.80113
0.767387
0.734188
0.70084
0.666861
0.631767
0.593926
0.556588
0.521478
0.487783
0.453784
0.417514
0.379535
0.340321
0.29332
0.23967
0.189062
1.09321
1.058
1.01964
0.983917
0.948808
0.914641
0.881023
0.846886
0.812395
0.77824
0.745098
0.712677
0.680149
0.647118
0.61116
0.565207
0.525145
0.494359
0.461678
0.426995
0.389194
0.348295
0.302316
1.20805
1.177
1.14517
1.10931
1.07115
1.03201
0.99461
0.959739
0.926699
0.893531
0.859082
0.823169
0.787952
0.754961
0.723294
0.693343
0.666129
0.628544
0.575441
0.52894
0.501921
0.470683
0.436734
0.400074
0.361176
1.28203
1.25103
1.22185
1.19196
1.16141
1.12596
1.08908
1.04587
1.00574
0.968343
0.938813
0.907317
0.873415
0.83273
0.794541
0.763421
0.733429
0.704524
0.678691
0.641681
0.58786
0.539842
0.51252
0.481155
0.446862
1.36798
1.32859
1.29033
1.26577
1.23736
1.20641
1.17781
1.15202
1.11361
1.06904
1.02375
0.976672
0.951104
0.922812
0.895891
0.851216
0.802147
0.770964
0.742719
0.713652
0.68417
0.6546
0.603599
0.558721
0.525368
1.45669
1.41992
1.38196
1.34379
1.30656
1.28189
1.25633
1.22176
1.18902
1.16877
1.13598
1.09235
1.04543
1.00147
0.962544
0.937995
0.91463
0.867755
0.816673
0.781485
0.752657
0.722197
0.690367
0.654681
0.614901
1.57617
1.55343
1.51278
1.47331
1.4349
1.39562
1.35771
1.32495
1.29545
1.27088
1.23877
1.2009
1.17995
1.1562
1.11739
1.07427
1.0278
0.981711
0.952327
0.92218
0.881247
0.830051
0.796029
0.763814
0.731772
0.698633
1.66946
1.64437
1.61729
1.59269
1.56113
1.52438
1.48989
1.44657
1.41077
1.37539
1.34473
1.30848
1.27735
1.24654
1.21581
1.18942
1.16238
1.13197
1.09512
1.053
1.00438
0.966056
0.925526
0.883837
0.847343
0.80913
0.776295
1.7056
1.68284
1.65588
1.63174
1.60596
1.574
1.53231
1.50468
1.46512
1.42759
1.39351
1.36023
1.32588
1.29129
1.2522
1.22682
1.20088
1.17298
1.1432
1.10925
1.07295
1.03027
0.984887
0.94432
0.892628
1.81833
1.79665
1.76116
1.72538
1.69756
1.66881
1.64594
1.61797
1.58633
1.55266
1.51953
1.48456
1.44862
1.41104
1.37605
1.34052
1.30421
1.2628
1.23803
1.21231
1.18489
1.15689
1.1265
1.09787
1.05047
1.86175
1.82767
1.80584
1.77839
1.74885
1.7224
1.68684
1.66059
1.63188
1.60071
1.56759
1.53894
1.50121
1.46484
1.42808
1.39111
1.3541
1.31675
1.27561
1.25046
1.22483
1.19727
1.16926
1.14065
1.95236
1.93068
1.91222
1.87981
1.8458
1.81954
1.79521
1.76726
1.73648
1.70422
1.67558
1.64662
1.61644
1.57953
1.55458
1.51699
1.48164
1.44439
1.40606
1.36816
1.32865
1.28966
1.26369
1.23678
1.20892
2.01076
1.98726
1.96371
1.94191
1.92
1.89367
1.86419
1.83797
1.81492
1.78455
1.75199
1.7211
1.69146
1.66068
1.63308
1.60556
1.56865
1.534
1.49849
1.46159
1.42377
1.3811
1.33161
1.30373
1.27542
2.06676
2.04458
2.02209
1.99993
1.97534
1.95148
1.92826
1.90493
1.8804
1.85596
1.83069
1.80086
1.76796
1.73745
1.70516
1.67891
1.64784
1.62076
1.58727
1.55246
1.516
1.48037
1.44276
1.4011
1.35574
2.14317
2.1219
2.09935
2.07787
2.05723
2.03561
2.01236
1.98628
1.96137
1.93785
1.91714
1.89566
1.87233
1.84552
1.81545
1.78579
1.75531
1.72269
1.69973
1.66845
1.62999
1.6046
1.57101
1.53312
1.49921
1.46112
2.20065
2.17817
2.15385
2.13138
2.11038
2.08967
2.06924
2.049
2.02733
1.99969
1.97199
1.94779
1.9284
1.9076
1.88434
1.85601
1.82604
1.79981
1.7753
1.74525
1.71869
1.69357
1.65648
1.62169
1.58742
1.55161
2.25942
2.23644
2.21178
2.18736
2.16409
2.14154
2.12017
2.10026
2.08073
2.0613
2.0411
2.01411
1.98538
1.96069
1.94076
1.91949
1.8947
1.86553
1.83638
1.81036
1.78548
1.75924
1.73385
1.71263
1.67791
1.64017
1.60482
2.31711
2.29438
2.27099
2.24742
2.22272
2.19784
2.1734
2.15069
2.12925
2.10939
2.09011
2.07112
2.05132
2.02738
2.00088
1.976
1.95458
1.93306
1.90745
1.87991
1.84362
1.81965
1.79558
1.77011
1.74586
1.72328
1.70064
2.35513
2.33028
2.30648
2.28321
2.25904
2.23376
2.20841
2.18322
2.15925
2.13705
2.11731
2.09843
2.07947
2.05957
2.0375
2.01394
1.9902
1.96804
1.94694
1.92429
1.89333
1.86052
1.83138
1.80787
1.78194
1.75583
2.41673
2.39239
2.36822
2.34375
2.31975
2.29585
2.27243
2.24666
2.22106
2.19557
2.17008
2.14578
2.12532
2.10708
2.08831
2.06835
2.04716
2.02507
2.00262
1.98031
1.95802
1.93438
1.90615
1.87506
1.84692
1.81998
2.47468
2.45255
2.4292
2.40637
2.38219
2.35745
2.33296
2.30929
2.28539
2.26055
2.23506
2.20923
2.18287
2.15724
2.13521
2.11697
2.09808
2.0782
2.0573
2.03598
2.01425
1.99154
1.96834
1.94425
1.91716
1.8884
2.51312
2.48905
2.46682
2.44352
2.41975
2.39691
2.37143
2.34728
2.32323
2.2988
2.27398
2.24853
2.22237
2.19499
2.16908
2.14692
2.12809
2.10881
2.08889
2.06824
2.04706
2.02542
2.00234
1.97947
1.955
2.57369
2.55066
2.52701
2.50437
2.48202
2.4587
2.43383
2.41029
2.38597
2.36139
2.33705
2.3124
2.2875
2.26207
2.23598
2.20786
2.18106
2.15912
2.14021
2.12062
2.10018
2.07962
2.05827
2.03694
2.01392
1.99147
2.63034
2.60907
2.58684
2.56511
2.5421
2.51952
2.49741
2.47385
2.44874
2.42473
2.40034
2.37567
2.35093
2.32602
2.30124
2.27593
2.25071
2.22374
2.19574
2.17213
2.15305
2.13306
2.1123
2.09177
2.07017
2.04779
2.68493
2.66479
2.64353
2.62265
2.60113
2.579
2.55677
2.53405
2.51136
2.48755
2.46289
2.43933
2.4145
2.38989
2.36509
2.34008
2.31518
2.2898
2.26482
2.24033
2.21236
2.1872
2.16667
2.14559
2.12481
2.10316
2.08203
2.71987
2.6981
2.67753
2.65646
2.63593
2.61536
2.59369
2.57147
2.54859
2.5255
2.50173
2.47747
2.45391
2.42883
2.40385
2.37898
2.35432
2.32937
2.30436
2.27941
2.25609
2.22927
2.20339
2.18108
2.15866
2.13747
2.77288
2.75368
2.73363
2.71276
2.6899
2.66832
2.64896
2.62971
2.60827
2.58618
2.56298
2.53991
2.51708
2.49362
2.46916
2.44316
2.41759
2.39255
2.36904
2.34386
2.31892
2.29459
2.26959
2.24458
2.21822
2.19492
2.80395
2.78591
2.76749
2.74921
2.72908
2.70471
2.68125
2.66181
2.64397
2.62286
2.60057
2.57739
2.55439
2.5327
2.50876
2.483
2.45705
2.43139
2.40547
2.38285
2.35878
2.33345
2.30969
2.28412
2.25902
2.85406
2.83504
2.81653
2.79811
2.78031
2.76339
2.74482
2.72059
2.6952
2.67551
2.65768
2.63758
2.61521
2.59199
2.56948
2.54834
2.52393
2.49667
2.47053
2.44638
2.4206
2.39621
2.37182
2.34803
2.32297
2.88726
2.86762
2.84812
2.8287
2.80992
2.792
2.77499
2.75696
2.73433
2.70959
2.6893
2.67082
2.65079
2.62815
2.60417
2.58297
2.56358
2.53876
2.51035
2.48397
2.46043
2.43516
2.41041
2.38479
2.36151
2.94147
2.92131
2.90061
2.8802
2.86062
2.8412
2.82158
2.80297
2.78525
2.76718
2.74701
2.7251
2.70477
2.68516
2.66403
2.64146
2.61636
2.59483
2.57654
2.55275
2.52516
2.49899
2.47526
2.44986
2.42472
2.97663
2.95626
2.93622
2.91416
2.893
2.87351
2.85447
2.83395
2.81393
2.79483
2.776
2.7572
2.73881
2.72045
2.70129
2.67936
2.65591
2.63086
2.608
2.58858
2.56588
2.53991
2.51472
2.48971
2.46412
3.0241
3.00709
2.99025
2.97242
2.95348
2.93104
2.90875
2.88875
2.87019
2.84916
2.82692
2.80623
2.78576
2.76666
2.74993
2.73331
2.71546
2.69492
2.67199
2.64715
2.62374
2.60207
2.57883
2.5538
2.52962
3.05343
3.03662
3.02008
3.00355
2.98733
2.97058
2.94964
2.92754
2.90657
2.88628
2.86509
2.84249
2.8203
2.7976
2.77777
2.7611
2.74462
2.72715
2.7077
2.68611
2.66269
2.63966
2.61779
2.59171
3.09842
3.08176
3.06551
3.04894
3.03234
3.01627
2.99994
2.98369
2.96495
2.94537
2.92525
2.90328
2.88046
2.85795
2.83465
2.81154
2.79066
2.77346
2.7565
2.73871
2.71946
2.69884
2.67725
2.65509
2.63505
3.12651
3.11013
3.09393
3.07743
3.06088
3.04424
3.02795
3.01153
2.99515
2.97746
2.95982
2.94177
2.92092
2.89752
2.87502
2.8501
2.82577
2.80468
2.78697
2.76929
2.75113
2.73187
2.71218
2.69042
3.17028
3.15422
3.13835
3.12187
3.1058
3.0897
3.07322
3.05672
3.03983
3.02266
3.00579
2.98878
2.97201
2.95556
2.93696
2.91426
2.89076
2.86656
2.8423
2.82017
2.801
2.78276
2.76464
2.74493
2.7253
3.19786
3.18215
3.16622
3.15001
3.1337
3.11771
3.10155
3.08536
3.06911
3.05211
3.03444
3.01687
2.99958
2.98261
2.96649
2.94941
2.9293
2.90642
2.88229
2.85891
2.83661
2.81619
2.79698
2.7777
3.24011
3.22456
3.20918
3.19343
3.17773
3.16198
3.14576
3.12981
3.11369
3.09735
3.08082
3.06395
3.04648
3.029
3.01117
2.9935
2.97702
2.96015
2.9416
2.92012
2.89681
2.87414
2.85271
2.83126
2.81175
3.26602
3.25136
3.23592
3.22035
3.20465
3.18907
3.17347
3.15767
3.1418
3.12595
3.10968
3.0925
3.07525
3.0581
3.04092
3.02314
3.0052
2.98845
2.97131
2.95291
2.93223
2.91051
2.88836
2.86713
3.29213
3.27684
3.26219
3.24708
3.23191
3.21619
3.20053
3.18495
3.16926
3.15357
3.13803
3.12214
3.10497
3.0877
3.07038
3.0529
3.03555
3.01784
3.00059
2.98292
2.96433
2.94412
2.92404
2.90326
3.33288
3.31827
3.30378
3.28862
3.27327
3.25815
3.243
3.22751
3.21182
3.19627
3.18072
3.16515
3.14966
3.13401
3.1174
3.10037
3.08304
3.06517
3.04745
3.03013
3.01265
2.99483
2.97613
2.95592
2.93657
3.35995
3.34503
3.33029
3.31518
3.29996
3.28443
3.26942
3.25429
3.23867
3.22287
3.2074
3.19206
3.17662
3.16103
3.1452
3.12881
3.11196
3.09486
3.07747
3.05975
3.04223
3.02474
3.00718
2.98918
3.38926
3.37261
3.35718
3.34257
3.32732
3.31161
3.29593
3.28107
3.26604
3.25014
3.23393
3.21843
3.20336
3.18808
3.17247
3.15655
3.14017
3.12342
3.10645
3.08939
3.07203
3.05442
3.03689
3.01899
3.4158
3.40034
3.38507
3.36949
3.3549
3.33976
3.32402
3.30821
3.29332
3.27847
3.26248
3.24582
3.22994
3.21496
3.19976
3.18419
3.16831
3.15208
3.13537
3.11842
3.10154
3.084
3.06679
3.4574
3.44261
3.42799
3.41285
3.39727
3.3817
3.36658
3.3513
3.33574
3.32033
3.30552
3.2909
3.27526
3.25854
3.24227
3.22699
3.21171
3.19625
3.18047
3.16437
3.14776
3.13073
3.1143
3.09665
3.48596
3.46985
3.45463
3.43977
3.42494
3.40948
3.39393
3.3782
3.36226
3.34661
3.33167
3.31704
3.30248
3.28735
3.27118
3.25492
3.23917
3.22366
3.2083
3.19273
3.17661
3.16016
3.14326
3.12646
3.51245
3.49694
3.48187
3.46671
3.45176
3.43683
3.42164
3.40639
3.39055
3.37405
3.35776
3.34291
3.3284
3.31374
3.29873
3.28308
3.26721
3.25129
3.23562
3.22014
3.20458
3.1888
3.17252
3.55302
3.53855
3.52439
3.50939
3.49403
3.47899
3.46394
3.44876
3.43357
3.41863
3.40306
3.38643
3.36958
3.35434
3.3399
3.32529
3.31036
3.29504
3.27951
3.26372
3.24793
3.23234
3.21657
3.19996
3.57939
3.56473
3.55053
3.53609
3.52136
3.50639
3.49153
3.47636
3.46086
3.44541
3.43039
3.4153
3.39907
3.38197
3.36614
3.35167
3.33715
3.32229
3.30719
3.2918
3.27606
3.26029
3.2449
3.2291
3.60344
3.59001
3.5761
3.56236
3.54839
3.53371
3.51906
3.50447
3.48927
3.47355
3.45786
3.44239
3.4275
3.41198
3.39535
3.37895
3.36396
3.34936
3.33446
3.31944
3.30421
3.28829
3.27243
3.25669
3.62946
3.61494
3.60163
3.58759
3.57389
3.56011
3.54591
3.53161
3.51741
3.50237
3.48649
3.4705
3.4546
3.43958
3.42468
3.40877
3.39234
3.37659
3.36164
3.3466
3.33137
3.31638
3.30053
3.66859
3.65545
3.64144
3.62723
3.61328
3.59943
3.58561
3.57187
3.55792
3.54389
3.52994
3.51519
3.49946
3.48327
3.46708
3.45158
3.43701
3.42183
3.40588
3.38971
3.37412
3.3589
3.34348
3.32704
3.69517
3.68073
3.66723
3.65331
3.63914
3.62517
3.61133
3.59745
3.58364
3.56981
3.55589
3.54199
3.52781
3.51269
3.49633
3.48005
3.46417
3.44942
3.43457
3.419
3.40291
3.38687
3.37153
3.35599
3.72128
3.70739
3.69347
3.67948
3.66532
3.6512
3.6372
3.62329
3.60936
3.59554
3.58176
3.56772
3.55342
3.53936
3.52501
3.50917
3.49316
3.47739
3.46238
3.44744
3.43192
3.41645
3.4001
3.7466
3.73327
3.71933
3.70561
3.69181
3.67744
3.66322
3.6491
3.63518
3.62132
3.60757
3.59398
3.57998
3.56507
3.55062
3.53658
3.52178
3.50629
3.49091
3.47572
3.46041
3.44463
3.42897
3.77125
3.75807
3.74459
3.731
3.71749
3.7036
3.6894
3.67515
3.66088
3.64685
3.63315
3.61963
3.60637
3.59293
3.578
3.56306
3.54855
3.53425
3.51929
3.50418
3.48904
3.47364
3.45793
3.79721
3.78313
3.77003
3.75643
3.74287
3.72936
3.71563
3.70163
3.68734
3.67268
3.65829
3.64478
3.63164
3.61853
3.60538
3.59093
3.57593
3.56122
3.54684
3.53211
3.51717
3.50221
3.48723
3.82345
3.80948
3.79565
3.78198
3.76838
3.7549
3.74131
3.72772
3.71409
3.70017
3.68538
3.67046
3.65664
3.64356
3.63031
3.61688
3.60284
3.58828
3.57378
3.55939
3.54481
3.53034
3.51533
3.84972
3.83547
3.82148
3.80759
3.79394
3.78032
3.76675
3.75312
3.73964
3.72631
3.71295
3.69868
3.68371
3.66927
3.65577
3.64223
3.62843
3.61421
3.60011
3.58608
3.57193
3.55762
3.54332
3.89022
3.87637
3.86214
3.8478
3.83364
3.81967
3.80593
3.79224
3.77851
3.76479
3.75131
3.73801
3.72475
3.71101
3.69656
3.68215
3.66828
3.65444
3.64052
3.62614
3.61217
3.59828
3.58441
3.9166
3.90274
3.88895
3.8747
3.86021
3.84585
3.83176
3.81791
3.8041
3.79019
3.7763
3.7627
3.74936
3.73603
3.72251
3.70858
3.69454
3.68066
3.66673
3.65261
3.63829
3.62424
3.61046
3.94265
3.92882
3.9153
3.9015
3.88747
3.87263
3.85781
3.84355
3.8297
3.81586
3.80176
3.78759
3.77384
3.76062
3.74748
3.73417
3.72056
3.70679
3.693
3.67906
3.66474
3.65092
3.63649
3.96968
3.95504
3.94098
3.92747
3.91392
3.90003
3.88513
3.86977
3.85517
3.84129
3.82771
3.81363
3.79919
3.78515
3.77201
3.75923
3.74612
3.73272
3.71913
3.70534
3.69137
3.677
3.66275
3.99418
3.98086
3.9672
3.95341
3.93992
3.92657
3.91309
3.89852
3.88286
3.86754
3.85322
3.83988
3.82638
3.81215
3.79784
3.78427
3.77141
3.75832
3.74503
3.73166
3.71775
3.70373
3.6896
4.01984
4.0063
3.99282
3.97932
3.96573
3.95226
3.93909
3.92596
3.91211
3.89694
3.88141
3.86659
3.85258
3.83906
3.82534
3.81106
3.79717
3.78398
3.77069
3.7574
3.74412
3.73019
3.71624
4.04605
4.03218
4.0186
4.0051
3.99154
3.97802
3.9646
3.95133
3.9383
3.92508
3.91052
3.89495
3.88001
3.86556
3.85147
3.83797
3.82399
3.81006
3.79654
3.78299
3.76973
3.75635
3.74265
4.07222
4.05833
4.04462
4.03085
4.01744
4.00392
3.99032
3.97672
3.96325
3.95018
3.93728
3.92306
3.9078
3.8929
3.87827
3.86399
3.85021
3.83626
3.82258
3.80899
3.79535
3.78243
3.76873
4.09925
4.08433
4.07034
4.05663
4.04316
4.0298
4.0163
4.00266
3.98883
3.97491
3.96159
3.94895
3.93525
3.9204
3.90563
3.89093
3.87683
3.8629
3.84891
3.83524
3.8216
3.80779
3.79413
4.12794
4.11144
4.09587
4.08185
4.0686
4.05539
4.04213
4.02875
4.01528
4.00135
3.98672
3.9728
3.9602
3.94723
3.93297
3.91837
3.90375
3.88973
3.87574
3.86181
3.84805
3.8343
4.17439
4.15843
4.14082
4.12374
4.1075
4.09342
4.08073
4.06777
4.05454
4.04121
4.02802
4.01449
3.99952
3.98482
3.97149
3.95876
3.94505
3.93067
3.91628
3.90226
3.8884
3.87463
3.86087
4.20331
4.18878
4.17445
4.15643
4.13845
4.1211
4.10612
4.09345
4.08046
4.06701
4.05349
4.04034
4.02709
4.01216
3.99716
3.98327
3.97017
3.95673
3.94263
3.92843
3.91454
3.90088
3.88728
4.23195
4.21745
4.20367
4.18973
4.17206
4.15404
4.13651
4.12046
4.10689
4.09351
4.07964
4.06554
4.0521
4.03902
4.02457
4.00956
3.99542
3.98195
3.96854
3.95457
3.94013
3.92645
3.91306
4.26108
4.24525
4.23084
4.2173
4.20388
4.18722
4.16901