/*--------------------------------*- C++ -*----------------------------------*\
| =========                 |                                                 |
| \\      /  F ield         | OpenFOAM: The Open Source CFD Toolbox           |
|  \\    /   O peration     | Version:  2312                                  |
|   \\  /    A nd           | Website:  www.openfoam.com                      |
|    \\/     M anipulation  |                                                 |
\*---------------------------------------------------------------------------*/
FoamFile
{
    version     2.0;
    format      ascii;
    arch        "LSB;label=64;scalar=64";
    class       volScalarField;
    location    "90";
    object      omega;
}
// * * * * * * * * * * * * * * * * * * * * * * * * * * * * * * * * * * * * * //

dimensions      [0 0 -1 0 0 0 0];

internalField   nonuniform List<scalar> 
404911
(
314.361
222.234
3451.57
1536.9
218.333
247.079
197.811
609.775
348.711
285.251
255.943
339.923
221.143
303.707
458.984
1124.43
289.734
229.633
252.858
393.326
584.187
274.978
723.533
514.762
231.978
992.517
286.698
214.439
281.12
1029.89
260.355
222.713
372.428
572.021
266.381
221.682
384.407
467.212
262.986
178.728
303.41
1034.93
250.309
168.105
200.315
416.071
359.532
172.104
202.023
937.19
398.53
300.266
242.673
1367.08
362.06
594.089
9404.34
184.584
334.948
233.126
276.476
174.111
172.838
98.1496
91.5386
213.578
149.932
259.373
114.024
128.263
159.924
55.0247
188.322
114.812
59.9395
605.301
2271.29
251.841
92.2461
198.03
105.759
220.198
46.7581
125.552
197.007
113.973
363.349
104.104
1149.1
330.821
249.568
2970.88
133.612
247.626
175.539
128.468
158.591
238.435
106.948
245.287
679.51
193.806
145.828
532.321
1317.47
550.01
288.371
735.249
380.062
307.493
241.798
243.811
233.772
252.002
2362.36
572.826
255.806
4623.95
653.152
218.649
219.333
216.993
221.773
303.998
1408.27
374.662
252.823
234.51
211.098
571.943
517.67
573.672
219.938
205.95
215.41
208.778
268.574
278.492
208.77
316.461
1274.07
368.967
242.166
219.183
214.932
207.878
207.499
196.183
558.703
500.569
206.254
197.446
218.863
1863.05
310.303
1062.67
303.454
215.723
200.051
207.779
204.687
205.777
203.72
200.092
193.933
188.671
190.598
192.957
212.052
295.813
451.926
646.104
491.782
456.524
451.25
463.383
549.612
199.58
200.059
190.414
189.362
188.301
202.155
222.039
235.523
238.509
334.016
760.621
507.074
429.021
430.678
317.564
377.019
571.593
484.737
187.744
191.232
187.383
197.395
209.371
222.878
263.049
1244.39
1064.27
302.207
642
329.853
287.458
262.762
505.588
441.733
334.334
373.856
463.172
480.644
177.217
194.785
203.424
206.727
239.251
549.617
929.11
653.596
304.918
295.294
223.018
239.181
246.666
282.968
436.872
456.705
413.987
320.03
159.358
201.602
209.468
234.068
338.82
1279.16
1302.33
328.982
158.236
220.487
210.564
204.615
177.08
205.03
460.912
339.644
247.48
244.583
268.881
316.451
510.38
202.079
251.093
1179.87
517.863
202.168
139.804
289.764
223.354
211.219
199.813
206.936
212.553
197.171
183.593
242.473
272.561
391.277
481.993
576.188
473.423
522.879
241.867
189.144
472.857
263.891
208.905
215.845
212.361
199.487
204.149
182.348
169.738
367.804
380.447
451.647
511.819
1768.73
405.239
211.113
181.997
169.188
183.214
205.458
211.339
181.351
202.52
211.119
209.735
199.932
211.873
473.123
414.014
472.992
286.688
1101.34
1042.93
942.441
329.961
294.328
168.716
141.888
208.751
189.985
207.491
200.583
203.579
198.491
208.824
224.988
277.315
375.801
222.583
600.947
1180.46
292.39
176.657
174.223
189.321
209.059
218.472
138.755
211.032
182.878
229.845
168.477
151.795
180.877
210.001
269.918
637.54
298.751
517.261
192.359
139.834
149.803
156.322
274.06
187.604
213.565
140.869
156.885
129.432
135.258
171.785
131.369
165.147
258.717
216.185
1057.45
1206.69
299.462
172.838
144.016
133.854
134.93
160.342
153.198
129.101
122.277
107.634
176.983
181.421
197.86
138.917
158.299
418.349
951.35
394.537
172.136
139.304
216.715
236.341
157.233
165.178
152.26
109.661
97.4149
102.502
126.302
162.972
190.809
220.829
167.766
329.331
784.103
1165.85
948.322
343.926
231.238
216.099
195.151
170.069
138.385
174.44
141.122
120.406
119.529
128.763
146.859
196.206
182.224
180.174
501.996
481.032
197.558
173.177
164.926
175.098
145.477
139.306
204.374
150.76
205.58
149.905
147.664
142.745
161.491
146.223
166.617
322.264
1039.11
221.355
149.845
182.881
142.704
143.778
147.635
114.963
148.221
179.774
185.899
203.393
213.221
174.251
163.212
202.691
188.207
363.312
479.233
168.116
199.466
174.495
139.627
128.124
148.471
113.79
98.9235
128.087
214.49
195.578
190.155
209.317
184.567
223.92
214.38
1066.47
287.959
142.259
140.109
127.244
125.64
119.548
127.936
156.711
85.6627
86.6521
108.388
144.262
176.54
213.603
268.318
202.27
338.504
1271.93
507.667
203.968
148.65
138.079
126.513
113.402
124.086
128.917
100.203
90.5066
85.6264
102.293
123.041
138.404
227.859
141.287
223.871
1094.56
1185.43
268.917
144.112
191.067
148.37
129.91
113.486
102.485
98.0017
124.049
88.8389
105.81
137.1
140.805
150.217
152.197
186.051
345.012
468.43
178.723
146.223
136.611
131.672
125.419
115.581
109.709
122.574
89.8749
88.5491
96.4876
138.739
174.393
194.961
179.51
217.229
1075.99
1176.1
254.93
139.081
133.767
127.384
122.638
118.078
115.161
110.803
107.969
123.285
116.465
127.299
134.021
156.739
171.491
214.691
321.003
936.488
170.733
139.504
126.462
117.836
113.825
109.541
108.602
109.55
108.25
100.702
106.781
113.725
127.726
144.595
169.846
232.468
372.296
296.907
139.588
162.409
133.022
114.149
104.623
102.478
101.164
101.007
103.704
106.584
111.857
121.737
132.088
162.532
179.022
197.052
563.053
275.419
159.62
164.017
133.903
114.559
102.379
105.408
94.256
95.7307
99.8112
105.774
115.417
126.162
147.182
147.443
153.328
288.068
1187.52
1225.06
212.321
139.631
148.198
138.832
121.377
108.74
104.341
119.698
93.0914
95.7043
104.559
118.103
130.653
141.983
189.11
195.277
512.401
989.616
194.014
141.362
128.017
123.732
117.521
108.305
99.1621
97.1075
107.573
98.536
97.2258
113.244
133.344
140.897
166.567
202.438
1126.98
329.813
168.01
147.711
135.354
127.573
120.945
113.552
100.97
94.2199
90.055
90.5945
98.1891
114.895
129.202
164.788
142.028
212.536
1164.57
313.522
150.118
130.174
129.427
123.441
127.368
128.811
92.0896
94.91
95.9853
100.005
106.584
121.331
136.497
144.699
155.426
311.802
1090.41
230.958
146.581
135.168
127.259
120.067
110.048
120.89
112.833
90.7002
93.7996
102.505
112.886
125.154
138.939
163.951
180.322
499.658
474.683
175.126
178.719
172.925
132.968
117.479
107.597
90.0636
118.767
97.5266
78.1347
99.1004
117.601
127.972
139.501
159.093
198.799
1067.53
315.823
149.2
130.462
128.238
118.619
114.074
125.056
95.1201
100.883
71.9261
102
83.8387
109.199
126.042
133.537
166.595
250.956
1201.2
1109.08
212.991
140.298
136.452
127.561
120.419
106.339
115.757
103.336
93.079
84.9982
66.2331
112.463
125.58
126.656
140.366
145.389
284.965
1102.02
201.548
138.504
127.81
121.476
115.254
109.601
100.316
111.022
107.448
105.859
83.652
86.5924
108.893
125.117
133.023
161.76
471.825
1084.5
198.787
139.442
125.51
121.016
112.671
104.936
99.7551
95.9823
93.0931
82.5898
92.065
76.3774
110.935
134.878
147.329
179.445
966.083
1076.72
193.04
138.113
124.689
118.34
111.825
104.572
98.8571
93.3272
93.7967
82.8495
76.2024
98.4674
109.818
141.113
172.487
247.6
1199.57
309.458
169.665
143.001
126.747
116.904
108.046
101.596
99.9457
94.2881
87.0252
82.3551
84.4317
84.8869
122.25
137.928
168.843
272.091
1205.29
283.522
144.967
129.849
124.406
111.404
100.722
95.5736
94.146
98.7383
91.8558
84.5968
79.9083
85.1515
122.086
127.991
165.033
264.882
1157.06
198.293
148.028
152.41
124.233
111.023
95.7822
87.9751
86.3123
88.433
95.0174
95.1804
92.3757
107.528
127.418
143.982
152.232
280.356
1035.22
195.506
137.453
121.244
115.659
105.671
94.7777
89.8985
98.7516
85.6382
86.3268
92.4773
103.614
112.702
122.367
148.465
142.008
292.241
1107.31
197.843
138.439
124.301
115.752
107.991
97.1054
89.8298
89.9111
102.606
98.0376
84.7663
94.765
113.372
124.042
146.769
148.868
310.169
1108.51
203.444
141.763
127.118
118.343
108.223
99.4231
92.5631
91.5195
89.5361
88.8837
86.3677
93.796
109.086
126.491
135.557
164.257
468.193
1036.58
193.245
140.024
128.472
119.152
107.157
94.0645
87.2319
83.6904
87.73
91.7329
94.9617
103.235
114.751
127.453
148.936
194.986
1048.69
323.409
186.498
138.278
127.842
118.259
104.048
88.9717
77.0998
76.0595
75.457
82.08
93.3919
106.016
118.72
128.791
146.598
196.135
1133.11
328.864
180.031
134.375
128.079
117.061
96.3568
89.3678
75.8598
67.8387
62.716
77.4703
91.2562
106.585
117.237
128.135
145.143
192.54
1095.57
1228.5
234.279
173.696
138.804
122.649
121.312
102.559
75.9682
86.4804
58.6573
59.2588
49.4407
65.7503
102.811
117.279
125.173
150.51
207.099
1080.86
1113.05
195.149
136.974
198.315
140.811
112.508
106.566
91.4279
62.7919
54.0051
49.1784
45.2029
76.1271
115.086
121.742
126.939
142.579
256.815
201.5
141.341
127.065
120.726
112.478
102.484
81.844
73.7768
55.7759
58.1111
42.7172
76.6065
103.803
123.338
137.947
140.349
271.622
1037.79
198.608
134.834
121.409
118.092
113.12
107.875
99.1669
80.0625
94.0855
48.1082
37.7634
57.8159
111.828
124.192
150.049
149.847
317.259
1070.99
184.85
130.387
117.949
116.195
113.321
104.265
101.684
95.7546
74.7326
81.9935
48.3801
59.2256
115.195
121.49
142.891
157.177
474.905
1167.32
179.182
131.846
120.375
115.376
112.456
105.466
95.089
93.2145
92.4769
63.8685
88.2963
100.434
116.696
128.22
133.548
164.959
903.261
166.382
152.581
133.266
118.308
109.958
108.62
101.159
89.6825
82.2685
70.6047
87.9264
101.618
111.95
128.793
153.205
188.294
1006.57
772.751
258.741
134.941
114.85
108.284
104.259
105.077
97.7102
80.0303
67.564
71.5921
107.07
117.792
123.637
158.692
193.403
1104.01
2222.56
287.375
191.393
177.127
111.398
103.313
102.62
98.5223
100.513
90.9158
86.0752
81.1741
108.388
118.997
131.241
139.524
216.369
1156.31
305.036
152.447
138.995
130.123
95.5769
94.3153
98.716
94.6296
96.9023
93.317
81.3392
79.0737
105.605
114.272
133.242
148.615
292.597
286.015
145.423
135.36
108.885
88.1098
82.1966
87.6554
97.1032
83.7836
98.2034
63.0359
79.5769
101.933
111.658
127.632
154.56
314.664
1220.48
244.685
140.033
134.822
125.573
93.6427
91.0413
81.1606
77.0997
98.6445
67.1924
62.2029
78.6914
103.55
117.191
126.728
173.43
901.829
993.259
186.085
149.526
119.893
112.96
87.8009
146.611
128.469
72.1554
58.4396
78.1617
76.0309
82.6913
104.781
138.458
148.423
179.24
1024.9
865.584
147.732
257.769
178.373
105.104
66.0114
82.5452
113.15
176.284
72.8614
56.0513
79.75
109.355
136.034
169.733
189.772
183.887
1035.48
468.917
138.437
152.205
140.395
84.056
54.4369
71.7876
52.214
85.0539
118.346
73.3644
98.9996
126.922
144.567
165.117
218.727
195.77
1082.75
1061.68
253.437
135.953
143.214
146.564
90.1482
42.6112
35.678
45.4933
63.9658
75.7544
108.209
127.08
132.808
127.692
146.462
174.079
335.944
1097.42
958.691
161.784
177.541
138.664
137.249
87.2024
34.8487
15.4508
22.4476
44.2785
66.9823
102.655
106.876
114.561
127.086
134.811
145
215.262
1131.41
239.743
155.185
133.747
129.167
69.4336
34.291
17.4464
16.7525
36.9364
60.7587
93.5494
107.608
118.101
128.873
146.155
142.564
274.849
1259.88
276.922
154.993
158.834
136.785
60.3845
22.9731
33.6357
58.6969
31.7849
56.3923
73.6261
112.021
121.313
129.787
142.641
154.437
320.06
287.194
168.368
175.92
156.976
74.5563
20.0184
17.8064
42.048
48.9197
44.7093
98.8944
116.572
124.501
131.006
145.381
161.261
480.947
257.444
270.359
206.282
170.489
92.2246
17.5478
12.6777
18.0952
33.4189
52.8079
72.457
119.729
128.525
137.612
140.932
168.792
932.287
1016.59
184.487
176.204
181.385
160.847
93.5242
30.9666
14.7066
21.3066
39.0853
76.6244
94.9749
128.292
138.846
139.564
166.001
206.652
1039.34
963.471
189.458
181.643
169.511
148.336
82.6814
25.4753
18.2919
25.2657
45.9448
73.0924
115.41
141.29
140.474
151.352
145.387
294.969
898.451
161.243
134.07
140.054
142.28
85.4806
35.5345
22.2952
28.148
53.0115
89.2919
132.54
132.128
138.234
155.4
154.452
334.808
911.009
157.985
133.088
134.741
145.943
83.5345
24.445
23.3764
49.9744
75.7979
93.5295
136.832
134.839
136.148
154.258
164.173
338.193
925.334
161.472
136.883
135.021
132.825
94.9981
29.563
23.6482
38.9642
72.2284
103.358
134.16
130.033
136.391
142.855
174.789
935.388
940.214
163.728
147.078
145.631
139.394
82.1175
67.9821
37.1491
39.1573
65.8372
103.301
133.828
127.049
136.244
148.475
202.79
1044.17
319.575
167.717
188.86
172.54
131.063
91.0983
142
129.327
75.1205
69.117
94.4556
112.362
123.515
130.121
160.967
206.538
1117.72
371.606
382.863
200.612
108.053
50.0246
40.6292
80.6449
183.646
87.5188
85.9651
114.818
126.894
139.109
151.676
253.724
1248.17
356.449
240.962
204.611
177.088
39.2111
27.1334
41.8174
78.8016
108.515
110.676
144.62
134.032
144.912
147.833
298.782
337.785
226.839
209.11
200.239
177.989
63.8697
36.3821
54.2073
85.0601
140.884
152.607
131.962
147.831
145.233
148.917
321.793
365.801
165.035
182.561
220.62
213.156
165.291
79.2144
75.156
151.77
171.973
165.204
186.703
167.297
206.177
177.959
896.971
373.783
174.57
177.614
206.493
237.341
231.886
154.06
180.006
202.774
203.422
185.821
195.167
198.132
240.293
206.332
1093.59
1288.29
344.876
200.853
162.402
206.043
233.006
212.574
210.977
179.881
214.924
232.72
216.506
181.431
234.729
257.2
506.947
1335.18
255.454
163.298
190.691
160.933
252.423
228.148
184.214
127.553
176.853
184.458
192.558
209.258
240.334
314.699
266.746
1079.64
239.396
179.417
157.162
150.977
180.427
224.921
313.585
195.279
176.073
199.489
200.349
190.933
207.316
325.875
858.268
344.889
182.408
608.522
352.458
235.619
160.296
178.984
138.033
176.978
181.563
167.767
153.284
165.576
202.741
333.844
4176.4
347.767
601.192
294.275
231.723
225.078
192.815
176.044
219.653
211.584
196.839
194.968
185.903
178.233
214.192
333.395
858.535
1123.34
681.675
349.23
228.726
198.681
190.786
140.828
153.026
192.99
204.96
222.601
223.381
233.544
228.42
370.474
1239.89
222.425
474.334
253.118
185.551
157.257
137.799
163.094
168.687
187.971
209.753
230.56
157.896
228.112
275.557
1507.88
1227.97
242.437
180.256
332.543
230.913
203.836
150.455
130.366
167.434
185.1
212.972
213.018
207.619
188.607
374.778
1335.69
611.092
235.195
190.843
494.096
318.518
214.424
169.085
183.287
187.434
188.938
211.969
271.094
160.979
203.722
384.257
1187.03
587.808
493.846
356.331
276.879
186.005
179.047
161.009
204.018
198.708
256.877
186.026
263.952
1225.45
754.266
549.635
481.59
395.389
282.821
289.278
182.384
164.895
199.25
251.043
153.904
197.793
358.534
1236.95
235.366
188.729
526.469
357.914
211.808
271.879
280.052
189.217
214.323
233.256
180.53
230.307
573.49
1286.37
246.644
200.214
521.032
443.022
267.429
252.26
357.708
325.06
302.963
355.533
194.785
247.766
1258.19
1190.56
235.378
584.492
509.531
481.096
343.886
246.763
231.4
240.076
320.762
501.27
200.569
257.249
1343.87
1249.77
226.97
579.957
503.911
502.8
468.159
250.946
254.657
223.882
327.577
507.08
201.074
341.994
1394.14
1201.29
237.482
189.038
525.705
480.872
512.686
331.296
208.923
231.892
331.4
192.818
218.265
347.07
1503.82
1505.8
1199.54
199.955
180.001
491.56
493.168
619.044
327.713
265.305
374.446
541.974
229.138
372.572
189.716
530.533
479.29
493.556
182.632
546.584
552.152
584.046
553.642
195.64
177.823
495.139
584.721
213.204
234.581
313.876
1225.01
6365.13
616.837
186.764
535.584
580.539
253.506
419.904
2857.97
2152.06
532.764
832.393
241.574
274.59
1242.21
524.141
828.165
245.737
265.653
638.031
891.451
662.666
302.344
247.347
293.63
1244.42
1211.25
302.446
1981.19
860.654
565.716
374.737
216.259
200.659
230.94
230.794
689.205
322.149
218.763
392.13
722.649
1565.19
1397.79
6514.75
530.757
1543.76
620.381
587.459
1461.82
648.217
440.958
335.004
318.538
296.067
275.138
264.385
362.729
1504.95
668.07
432.88
322.843
305.246
282.321
268.667
267.205
273.784
270.935
265.348
251.501
253.952
263.972
256.987
1411.43
630.921
344.554
304.768
276.918
272.164
267.002
260.221
261.79
261.294
265.319
254.811
244.343
249.401
261.521
262.158
270.068
266.743
273.789
373.518
449.51
938.256
1062.79
581.966
319.993
282.218
272.368
257.321
250.149
251.619
252.105
251.484
251.154
253.041
258.734
238.259
627.212
622.562
268.725
277.067
257.916
266.006
263.715
295.982
662.883
610.747
362.489
281.352
258.119
235.27
221.644
225.851
231.035
234.437
231.736
232.583
230.263
241.433
241.34
247.499
248.705
229.583
575.707
628.551
245.843
268.069
269.234
284.551
326.325
1366.39
460.511
222.68
178.698
173.065
217.24
231.891
505.492
761.664
915.467
202.28
220.399
223.493
206.875
196.911
206.03
229.791
235.902
223.861
209.952
541.284
613.632
256.106
283.011
328.169
684.577
1573.14
416.875
318.104
279.068
222.752
220.14
212.691
229.701
272.818
288.538
299.4
519.738
199.936
215.015
241.944
232.841
708.306
210.573
232.303
242.681
245.003
612.042
620.825
303.012
668.057
1328.27
351.856
387.523
322.248
222.197
196.976
194.237
233.196
198.129
163.243
281.83
270.817
296.861
303.392
384.014
565.121
198.767
242.503
583.615
226.912
242.052
246.275
257.13
294.991
607.719
473.691
1429.75
347.996
286.356
270.658
256.979
164.842
174.646
184.757
185.853
215.517
193.143
145.005
264.967
261.897
279.811
283.191
247.157
221.04
176.94
215.332
193.113
244.2
272.467
402.528
673.995
1150.41
442.039
207.6
198.894
237.25
209.675
215.493
157.54
145.31
147.656
191.352
207.774
173.18
146.198
150.789
158.229
159.201
161.497
217.866
209.206
273.711
227.196
229.025
235.761
270.71
597.084
1238.75
253.948
167.329
252.78
226.815
192.354
212.081
158.889
172.281
174.735
187.673
180.809
182.507
178.192
206.234
159.007
162.755
164.896
173.734
186.782
319.312
202.497
646.863
613.682
742.44
4690.38
810.673
1420.86
326.754
242.714
193.298
182.57
163.351
194.874
192.124
175.558
168.239
186.183
178.517
172.285
193.674
192.409
180.053
166.441
180.791
188.125
194.108
196.266
172.322
631.526
1758.26
1329.47
365.43
239.326
178.779
158.648
176.153
164.016
144.699
97.996
106.12
198.015
190.801
174.129
133.479
248.287
221.954
198.298
204.339
237.656
221.733
207.198
156.18
234.76
506.725
495.656
212.604
203.793
216.563
213.214
161.627
143.94
161.696
165.656
122.898
100.342
99.212
103.985
92.0078
131.659
125.676
121.111
212.855
203.735
227.168
310.92
292.016
152.98
225.359
529.039
466.685
214.985
179.401
196.832
171.156
156.762
145.894
148.25
147.194
160.731
141.723
130.302
117.008
94.2263
91.5258
116.128
131.488
163.115
171.62
218.024
276.617
294.126
492.357
218.723
520.938
427.204
185.211
217.713
203.701
174.758
160.705
152.13
143.184
142.176
138.283
139.292
147.106
130.488
154.521
96.6753
97.0335
107.459
160.952
198.694
208.065
250.049
323.593
341.576
470.495
914.751
1223.35
419.439
184.152
195.748
172.37
165.745
159.862
159.467
149.006
129.09
121.688
110.595
111.24
121.594
140.34
134.274
126.631
113.467
120.421
128.271
141.578
185.91
270.606
309.02
436.019
443.841
1204.94
416.241
176.598
187.559
169.16
164.692
160.547
152.737
141.937
130.153
81.4483
86.1809
90.5189
91.4292
97.7636
120.004
115.26
132.983
142.069
160.479
136.983
150.123
180.182
244.694
436.42
476.924
1090.5
289.56
170.409
197.425
172.025
162.426
154.488
148.008
138.691
124.513
101.023
81.2039
71.9304
84.4244
87.0525
95.3159
99.7805
96.3284
94.2924
112.166
146.933
142.868
163.861
196.17
253.526
352.957
1405.28
1302.83
310.564
166.287
162.49
157.931
153.241
143.669
129.737
112.964
106.93
104.618
98.7156
90.0396
87.0685
89.0588
90.8579
93.2446
106.521
107.991
106.646
92.805
160.673
173.719
205.802
249.02
224.614
1611.69
452.764
176.589
202.643
170.115
156.399
146.633
125.388
93.8355
84.6005
82.9196
84.0385
83.155
84.7445
86.8435
86.4279
87.7405
96.7235
111.507
129.324
145.438
154.682
166.974
207.269
248.443
219.302
497.525
500.422
212.454
169.601
160.086
154.043
148.88
134.057
86.6794
51.444
48.8794
55.003
64.1155
73.606
79.5054
86.0212
90.566
93.8433
100.789
115.192
133.67
146.656
158.16
171.407
216.439
213.359
508.921
1067.71
268.577
169.063
175.381
157.119
149.472
143.494
107.008
61.7227
36.344
27.472
30.934
39.4592
54.3637
73.9881
89.4735
96.4677
103.435
114.724
128.679
142.673
159.971
174.86
191.169
177.315
443.987
446.588
176.09
167.494
154.481
145.589
132.779
100.769
58.9437
37.1164
29.3554
24.026
22.978
27.4245
37.2331
59.1325
80.3216
98.6769
115.203
128.294
142.587
152.927
162.282
199.727
250.206
318.13
502.136
196.991
206.971
172.57
154.179
138.679
116.567
57.9476
34.0587
24.8415
22.2434
21.4889
21.3302
21.9337
25.2951
38.3833
61.5641
87.9658
114.252
139.623
153.626
163.356
168.587
181.673
193.813
882.714
1002.96
253.101
168.523
176.637
155.848
144.03
128.367
103.232
47.4709
28.6566
21.0417
18.8719
19.8088
20.7031
22.4627
25.4741
29.4624
44.8583
66.48
111.476
138.507
157.567
173.075
178.083
171.572
443.455
998.969
264.169
172.99
180.054
154.46
141.096
126.058
112.268
81.528
47.4397
31.8166
26.6361
20.5179
18.8635
20.0742
25.0119
29.9188
35.793
55.8161
90.7988
126.314
148.298
164.907
193.028
227.39
287.46
1153.77
439.195
190.535
179.788
151.49
141.24
124.917
105.229
82.9224
59.5678
34.1848
26.0082
29.2323
30.9935
23.9432
23.4378
29.6668
42.2364
59.1871
90.0954
134.677
152.04
167.576
197.431
231.98
270.842
993.865
829.214
217.773
204.193
160.513
142.353
125.676
101.173
89.9823
72.8469
46.6734
28.5167
26.7253
38.2222
47.4475
42.1496
31.2359
35.4624
58.6335
100.566
136.108
145.762
158.73
204.846
238.729
266.937
988.453
274.791
168.385
152.706
142.997
131.752
120.909
68.0679
54.7007
60.6294
41.5547
29.291
27.4515
41.6279
60.0981
54.8523
42.6651
43.3647
69.0867
126.384
140.069
153.804
172.534
193.011
243.969
978.324
832.348
179.427
160.245
146.086
137.265
127.883
105.808
84.6248
46.9219
41.7845
49.004
44.7808
37.202
43.9846
61.6238
73.3404
64.6732
59.0422
109.519
133.352
150.568
169.249
198.098
242.215
434.469
290.962
170.319
150.101
140.895
127.367
109.856
87.0125
70.0977
52.2671
35.8416
37.9143
42.031
45.2567
46.363
57.5113
77.8868
88.8393
106.222
122.283
149.637
158.661
189.231
236.957
277.145
1023.08
994.788
225.098
160.005
140.106
129.687
113.675
83.8888
66.3893
51.9427
39.7221
31.9409
30.3243
33.6406
37.9675
39.988
43.9202
62.3378
97.3069
117.998
137.404
155.205
172.906
181.164
188.797
922.905
361.41
184.407
171.531
144.226
121.192
90.6082
67.1574
47.9748
36.2693
29.4105
26.8895
29.8587
36.0774
45.3028
58.894
64.9769
72.1848
108.042
122.099
139.565
160.985
181.265
229.454
300.733
1298.52
770.097
164.088
151.338
138.687
126.504
113.902
56.8871
39.1087
30.7132
23.5873
22.3307
22.2539
25.6494
35.6109
51.5976
68.9468
90.8744
103.99
113.072
131.48
144.772
158.495
206.786
262.505
979.701
234.699
193.657
150.284
136.662
122.758
103.921
84.6886
44.3715
25.527
21.7146
20.6875
20.9214
21.4253
28.6503
42.8145
63.8203
85.9391
112.294
126.821
142.404
159.542
180.731
167.599
461.036
751.634
166.495
149.059
134.646
124.855
113.327
98.9343
82.3838
62
32.0747
20.2724
20.1342
22.7918
21.8365
24.5492
36.3564
57.951
84.1236
114.298
135.89
148.9
160.291
207.131
256.881
1072.55
265.099
160.889
141.687
133.14
120.102
104.226
87.4432
65.1787
52.9759
34.5668
22.2089
18.9186
22.1358
29.733
28.022
32.1098
54.5563
89.3411
119.087
140.302
153.42
174.203
203.282
435.162
754.994
163.467
147.727
138.593
127.149
111
93.2596
71.125
53.0168
35.092
29.3932
22.346
20.1504
24.2097
33.4319
46.7781
51.1545
66.0385
96.2776
130.084
147.354
162.379
168.568
196.427
958.809
261.212
155.311
138.279
131.937
121.554
101.676
82.9919
65.4337
48.3488
32.753
22.6182
21.5083
20.5525
24.2069
36.8837
55.6509
82.3715
97.4932
112.797
135.378
154.874
182.862
216.13
301.959
768.639
162.239
143.91
131.236
122.701
106.894
91.4648
78.0128
64.5115
47.948
32.4917
24.9907
20.8663
20.8276
22.9326
31.8202
50.1938
71.8656
102.467
125.151
141.778
164.8
174.822
185.672
924.022
268.686
148.646
132.353
126.113
114.861
94.0969
73.5376
66.3794
61.2262
51.9265
37.7153
23.9713
20.9316
22.2883
27.3912
38.6122
57.654
72.0456
99.8773
131.022
149.857
162.44
231.965
291.454
226.759
186.236
139.299
123.892
108.751
82.379
63.7499
54.5253
51.5712
51.3093
45.7424
34.6686
24.3759
23.6733
30.2556
48.2981
77.3665
100.947
114.107
137.537
162.284
185.004
164.659
773.377
798.148
157.788
142.644
128.58
117.959
102.896
74.0662
55.5856
45.7489
42.5748
43.9093
46.805
45.2378
40.0589
39.2456
46.8577
61.1949
82.6241
109.215
126.046
141.301
162.976
227.93
256.361
1072.18
764.703
177.612
140.741
125.24
115.586
99.0509
69.7792
50.3311
39.3086
35.249
37.0601
41.2382
45.9761
49.4885
52.9098
60.3419
71.4667
86.0187
104.473
124.282
140.252
156.301
233.301
709.441
389.189
170.469
140.196
125.369
112.042
99.3131
65.1578
46.0604
36.8056
30.3581
28.4583
33.1366
39.9001
46.4166
55.1364
65.6581
78.8943
92.0541
111.395
128.775
146.078
167.255
202.194
850.575
229.662
189.955
145.982
125.846
106.813
91.9839
77.5228
52.6908
38.1189
30.6935
24.5397
25.1961
32.1188
42.2249
52.0417
63.7995
78.1314
101.021
121.059
138.286
145.725
200.544
268.647
771.21
186.379
165.586
135.28
122.317
100.862
77.8828
66.2453
56.9418
44.1771
35.194
28.8544
24.8125
29.025
37.6484
50.2254
64.7066
79.7817
101.659
125.815
140.667
172.895
160.274
783.204
403.784
166.955
139.345
126.755
114.671
97.0281
72.9654
57.4435
45.1505
39.6865
36.7284
34.6347
33.0527
33.9183
41.1912
52.3758
65.8026
83.5015
106.103
123.404
141.361
162.028
206.941
1033.5
221.731
190.517
144.615
126.821
109.176
88.2686
68.7837
54.0448
41.4185
29.1759
28.4125
32.2224
36.0942
40.7912
47.6813
57.8025
70.9117
85.5391
110.749
127.255
140.968
171.82
255.151
800.4
161.525
143.271
128.542
120.592
104.685
83.872
62.6954
47.9397
37.1409
27.1608
21.9911
24.4039
31.3782
41.2309
51.0498
61.819
76.2546
93.6199
115.059
133.169
141.231
179.772
410.006
393.866
159.824
132.922
127
114.788
99.3915
83.1549
60.5834
42.6188
28.743
22.9113
19.7197
19.2645
23.5
32.0189
46.8572
61.3643
77.1792
102.613
119.614
133.985
165.716
156.024
756.675
276.379
144.888
128.64
120.367
108.469
89.7187
74.2844
58.5306
41.044
23.9709
17.3389
15.8258
16.6589
18.8016
24.9912
37.6295
57.5037
76.8435
103.234
122.505
133.277
164.893
210.221
1044.43
234.513
190.008
139.961
119.557
103.106
86.5196
71.1173
57.6428
44.2125
27.3339
16.214
13.3812
13.6189
16.7182
23.7408
39.1535
58.6421
80.1444
108.416
123.943
141.669
153.633
227.354
970.224
167.485
137.675
128.809
117.534
95.2543
76.19
66.7473
58.4432
49.6881
36.7505
22.5034
14.7242
12.7363
14.3419
20.8329
37.0337
61.4212
86.2627
115.666
131.792
140.352
190.299
393.218
776.924
155.351
144.831
129.811
119.051
98.2234
73.0596
59.5969
50.8135
47.1636
42.174
32.1107
21.5281
15.9298
13.5788
18.2616
33.0482
59.9299
94.5892
119.777
134.114
164.006
164.258
802.102
721.865
169.106
137.459
129.254
118.306
98.4001
73.3708
58.2182
46.6133
41.1324
39.0459
33.4762
26.8656
20.635
17.9383
19.4924
33.5826
63.0747
98.8902
122.402
143.083
149.614
227.083
278.264
142.542
126.962
120.853
113.559
96.566
71.2571
55.8832
44.7665
38.0308
37.8402
35.4716
27.4551
20.5872
19.0033
23.3129
39.3067
68.2224
103.479
124.722
145.956
189.711
280.427
267.459
142.601
126.711
121.683
109.443
90.6877
68.0498
51.1802
39.8243
35.1779
35.7165
37.9968
34.8263
26.3898
20.6264
24.9612
41.8292
66.913
102.952
126.76
141.806
196.606
709.719
234.815
187.472
138.874
120.539
104.49
88.1631
68.14
50.6872
36.4486
28.8935
29.1763
35.3414
39.727
39.3312
37.2672
41.56
57.1629
76.1612
102.618
124.678
161.501
192.747
745.259
232.741
151.725
128.965
118.246
101.076
81.1321
67.2967
51.5333
37.5756
27.404
22.7928
24.8666
31.9665
40.8428
47.8107
55.9198
67.7033
85.3965
103.584
125.121
146.526
199.426
879.775
223.966
150.059
129.206
118.432
100.51
79.1089
65.0018
51.9862
39.0637
30.3184
24.6953
22.5767
26.8104
32.3196
41.2674
55.3117
69.3101
86.8664
103.427
122.814
152.13
164.731
977.859
942.006
173.04
144.392
130.379
119.266
99.8575
76.2812
62.5921
50.0586
39.0618
32.3202
30.2898
29.9092
30.2055
34.614
40.989
51.6902
67.0151
88.8396
109.013
122.91
150.286
203.608
752.724
189.015
169.059
135.972
119.014
96.9441
71.7382
57.9867
46.5164
35.8143
29.4692
28.5203
31.7056
36.3762
41.0266
46.9331
55.9911
69.2703
92.3964
114.937
126.481
153.722
214.357
742.368
170.433
134.483
122.797
112.906
91.815
64.7252
50.8131
40.1121
30.9827
25.6243
24.1956
26.3442
33.1016
41.9133
51.5036
61.5006
73.885
93.4968
115.779
133.589
139.699
224.453
394.292
156.522
130.938
121.615
108.903
89.6192
65.5132
42.3567
30.7861
25.9888
21.7447
19.5397
20.0212
23.9962
33.7605
47.3711
61.2448
77.1362
97.2983
115.173
132.261
167.926
275.756
273.939
139.552
123.88
118.154
107.304
89.8301
67.8625
46.3948
24.6268
19.1093
16.8918
14.8444
13.9544
16.8024
24.4981
38.9049
57.4944
76.9998
101.059
116.776
133.1
168.829
667.319
277.414
141.557
124.976
116.096
102.948
90.6141
71.8405
50.9165
29.0919
15.7703
11.6076
10.5746
10.4761
12.5376
20.1449
36.5542
55.6196
76.0012
101.763
116.862
131.408
172.49
704.818
238.596
144.275
127.77
117.397
101.667
83.4959
68.3535
54.3687
37.4536
22.5212
13.107
7.68128
7.69021
10.6551
18.191
34.1118
56.3586
78.3237
103.751
120.881
128.294
168.731
735.94
225.013
149.541
124.732
113.442
98.2194
77.2228
63.6451
53.1882
43.3995
31.4417
20.4949
12.2147
7.15948
9.03499
16.8095
33.1031
54.7803
79.4084
106.082
124.139
143.447
155.083
806.079
233.76
150.436
121.65
108.56
92.2021
72.3349
59.7373
49.4759
40.528
34.8643
28.0449
19.9938
13.2718
10.8448
17.3032
34.3551
56.6327
79.9468
109.187
125.684
151.25
201.186
1000.83
224.276
152.48
123.859
104.206
83.0547
64.9138
54.5592
46.6833
38.2886
29.3053
23.4693
20.7496
20.0727
20.0399
27.0646
43.0668
62.4139
84.3765
110.328
128.59
156.059
216.16
937.239
164.611
148.596
130.471
101.057
66.3464
55.0791
47.4084
41.883
36.7959
28.658
20.7703
16.0412
17.4945
24.6878
37.6143
54.3818
70.6783
91.4496
110.718
127.175
160.339
219.187
750.356
193.211
158.256
123.288
95.1883
47.3258
41.419
40.4105
38.0855
34.327
30.2104
23.4017
17.0697
14.7001
21.4237
37.0409
56.9492
73.5049
95.2932
113.587
123.891
156.536
224.819
757.776
176.059
138.047
119.191
100.652
51.2687
33.2529
33.0151
34.9348
33.1349
27.9439
23.4975
20.2789
18.533
20.6499
34.7947
55.5785
77.3714
100.772
117.387
132.185
146.804
213.52
409.016
165.262
134.167
119.701
103.531
74.1279
43.2233
29.7335
30.9089
32.5079
27.8882
21.5393
17.2956
17.5886
23.1026
36.4098
55.4731
77.9724
102.717
117.428
132.32
168.759
250.522
268.067
147.206