/*--------------------------------*- C++ -*----------------------------------*\
| =========                 |                                                 |
| \\      /  F ield         | OpenFOAM: The Open Source CFD Toolbox           |
|  \\    /   O peration     | Version:  2312                                  |
|   \\  /    A nd           | Website:  www.openfoam.com                      |
|    \\/     M anipulation  |                                                 |
\*---------------------------------------------------------------------------*/
FoamFile
{
    version     2.0;
    format      ascii;
    arch        "LSB;label=64;scalar=64";
    class       volScalarField;
    location    "90";
    object      p;
}
// * * * * * * * * * * * * * * * * * * * * * * * * * * * * * * * * * * * * * //

dimensions      [0 2 -2 0 0 0 0];

internalField   nonuniform List<scalar> 
404911
(
-0.359017
-0.35839
-0.354369
-0.357577
-0.362619
-0.359863
-0.355428
-0.354905
-0.355896
-0.356843
-0.362004
-0.370653
-0.368296
-0.366072
-0.361065
-0.356435
-0.364554
-0.366877
-0.36725
-0.366773
-0.371128
-0.369174
-0.368744
-0.372919
-0.372167
-0.385884
-0.376021
-0.373911
-0.370627
-0.371336
-0.377785
-0.376723
-0.377861
-0.362441
-0.381483
-0.378864
-0.377167
-0.386875
-0.384053
-0.383065
-0.38575
-0.385795
-0.387815
-0.385516
-0.384539
-0.391688
-0.389351
-0.388634
-0.387286
-0.380343
-0.393118
-0.392544
-0.389569
-0.386288
-0.390316
-0.392799
-0.393325
-0.363129
-0.365051
-0.362125
-0.364936
-0.364401
-0.367453
-0.367313
-0.36702
-0.369879
-0.368497
-0.368101
-0.372904
-0.371345
-0.374896
-0.374255
-0.372942
-0.377846
-0.3762
-0.374717
-0.373013
-0.380794
-0.379038
-0.383401
-0.381811
-0.387026
-0.385583
-0.383783
-0.390766
-0.388904
-0.393646
-0.392206
-0.39057
-0.392502
-0.392604
-0.401561
-0.401753
-0.39978
-0.40368
-0.403188
-0.40248
-0.404821
-0.404443
-0.404912
-0.409986
-0.406639
-0.404833
-0.408453
-0.192302
-0.187619
-0.181929
-0.201455
-0.193447
-0.203037
-0.188267
-0.191803
-0.188599
-0.184815
-0.179574
-0.207697
-0.205887
-0.198005
-0.194927
-0.194001
-0.191089
-0.189422
-0.184358
-0.171554
-0.21259
-0.21294
-0.209409
-0.208567
-0.205979
-0.20049
-0.196854
-0.195
-0.195969
-0.192524
-0.188291
-0.184346
-0.182716
-0.185102
-0.175058
-0.168584
-0.219476
-0.218273
-0.214942
-0.213759
-0.212431
-0.210197
-0.207433
-0.204275
-0.20102
-0.195193
-0.195366
-0.194349
-0.18998
-0.186211
-0.18259
-0.223651
-0.221641
-0.219945
-0.219117
-0.217518
-0.215431
-0.21405
-0.21163
-0.208924
-0.205153
-0.203017
-0.2003
-0.197376
-0.195932
-0.192587
-0.230527
-0.225387
-0.223386
-0.221378
-0.21971
-0.217029
-0.215041
-0.214817
-0.212848
-0.208969
-0.206307
-0.203027
-0.20105
-0.199611
-0.198223
-0.191555
-0.233359
-0.234384
-0.234988
-0.229316
-0.228573
-0.222657
-0.219917
-0.219674
-0.21712
-0.215869
-0.213338
-0.21048
-0.207527
-0.204823
-0.202583
-0.201472
-0.197475
-0.24076
-0.239608
-0.239426
-0.236186
-0.236186
-0.234418
-0.230154
-0.228186
-0.224536
-0.222535
-0.22134
-0.218912
-0.216731
-0.213892
-0.211015
-0.208915
-0.205629
-0.20199
-0.247286
-0.241596
-0.241318
-0.241102
-0.239238
-0.237833
-0.234975
-0.231854
-0.22917
-0.226622
-0.223099
-0.220762
-0.218275
-0.217449
-0.214875
-0.213478
-0.209273
-0.207659
-0.254831
-0.251836
-0.249531
-0.245322
-0.243721
-0.241866
-0.239872
-0.238526
-0.236416
-0.234234
-0.230864
-0.227697
-0.224663
-0.221869
-0.219338
-0.21749
-0.215371
-0.212332
-0.259089
-0.254332
-0.252896
-0.251006
-0.248152
-0.245673
-0.243214
-0.241005
-0.239057
-0.236746
-0.234959
-0.232072
-0.229133
-0.226588
-0.223006
-0.2215
-0.222326
-0.265999
-0.262986
-0.261732
-0.256443
-0.254125
-0.252368
-0.24982
-0.247396
-0.244523
-0.242346
-0.240255
-0.237878
-0.235851
-0.232898
-0.230109
-0.228472
-0.226322
-0.267292
-0.266308
-0.267104
-0.263322
-0.261224
-0.258326
-0.256127
-0.25399
-0.25142
-0.24872
-0.246078
-0.244069
-0.24195
-0.239847
-0.237947
-0.233463
-0.231643
-0.22922
-0.277446
-0.275685
-0.269988
-0.268507
-0.267942
-0.264719
-0.262758
-0.260137
-0.258063
-0.25606
-0.253277
-0.250365
-0.247912
-0.245522
-0.243932
-0.24358
-0.239513
-0.233706
-0.280785
-0.278874
-0.278368
-0.274045
-0.272493
-0.269829
-0.268473
-0.265929
-0.263512
-0.261679
-0.25976
-0.258091
-0.254552
-0.25153
-0.248715
-0.246749
-0.244497
-0.242502
-0.285515
-0.281775
-0.280425
-0.279586
-0.277526
-0.274602
-0.271602
-0.269265
-0.267831
-0.265191
-0.263187
-0.262216
-0.259315
-0.256076
-0.252067
-0.250495
-0.247739
-0.248782
-0.288114
-0.287665
-0.288314
-0.283867
-0.282044
-0.280735
-0.278916
-0.275909
-0.273702
-0.271419
-0.269045
-0.26675
-0.264384
-0.263457
-0.261238
-0.25836
-0.253436
-0.252533
-0.290393
-0.289365
-0.288787
-0.287247
-0.285221
-0.283579
-0.281562
-0.279549
-0.27722
-0.27551
-0.273206
-0.270214
-0.267766
-0.264992
-0.264142
-0.261226
-0.258533
-0.255537
-0.299083
-0.294955
-0.293782
-0.291123
-0.290276
-0.288693
-0.286007
-0.284422
-0.281781
-0.280437
-0.278811
-0.276638
-0.274638
-0.27253
-0.270347
-0.265947
-0.264648
-0.262547
-0.299309
-0.299081
-0.296647
-0.293651
-0.292592
-0.291687
-0.289824
-0.286694
-0.284755
-0.282341
-0.280784
-0.280212
-0.278186
-0.276776
-0.273949
-0.271594
-0.27018
-0.302049
-0.301324
-0.301317
-0.300421
-0.299113
-0.29668
-0.294811
-0.293256
-0.291664
-0.288807
-0.285885
-0.283687
-0.281602
-0.280836
-0.27821
-0.277167
-0.275314
-0.272929
-0.30375
-0.303756
-0.302308
-0.302399
-0.301475
-0.300189
-0.29873
-0.296935
-0.295017
-0.293317
-0.290403
-0.287514
-0.285204
-0.283277
-0.281936
-0.280149
-0.277384
-0.276172
-0.305796
-0.304204
-0.303944
-0.302823
-0.302824
-0.302542
-0.300896
-0.299599
-0.298361
-0.297101
-0.295296
-0.29232
-0.288796
-0.286245
-0.284134
-0.279873
-0.28177
-0.277646
-0.308553
-0.308555
-0.307308
-0.305557
-0.304502
-0.303686
-0.30263
-0.30235
-0.301606
-0.300496
-0.299424
-0.298124
-0.296442
-0.293099
-0.291437
-0.287314
-0.286825
-0.285829
-0.310618
-0.309554
-0.308842
-0.308705
-0.307454
-0.306372
-0.305201
-0.304474
-0.303243
-0.302733
-0.301864
-0.300986
-0.300213
-0.298691
-0.297495
-0.294957
-0.294032
-0.289563
-0.311925
-0.311599
-0.310318
-0.309959
-0.309373
-0.308259
-0.306787
-0.305351
-0.304896
-0.30434
-0.303574
-0.302371
-0.301233
-0.300386
-0.29863
-0.297797
-0.296625
-0.295625
-0.314498
-0.313399
-0.312439
-0.311903
-0.311242
-0.310833
-0.309975
-0.308887
-0.307397
-0.305705
-0.304862
-0.304491
-0.303953
-0.303912
-0.301785
-0.300791
-0.304407
-0.296553
-0.316067
-0.315129
-0.31424
-0.313158
-0.31261
-0.312131
-0.311467
-0.31075
-0.309739
-0.308395
-0.306897
-0.30569
-0.305128
-0.304634
-0.304086
-0.301235
-0.301204
-0.299875
-0.317423
-0.316487
-0.315977
-0.315018
-0.314002
-0.313245
-0.312896
-0.31234
-0.311573
-0.310658
-0.309553
-0.308331
-0.307209
-0.306337
-0.305622
-0.304468
-0.30262
-0.30134
-0.319065
-0.317834
-0.317633
-0.317563
-0.315738
-0.314557
-0.313817
-0.313821
-0.313047
-0.312414
-0.311528
-0.310565
-0.309611
-0.308741
-0.307852
-0.306976
-0.305684
-0.302537
-0.325753
-0.321265
-0.319864
-0.319287
-0.318402
-0.317599
-0.316328
-0.315059
-0.31402
-0.313936
-0.31386
-0.313219
-0.312441
-0.311551
-0.310574
-0.309966
-0.309321
-0.308984
-0.323532
-0.324552
-0.323594
-0.321758
-0.321317
-0.320433
-0.318938
-0.317531
-0.315976
-0.314599
-0.314253
-0.314286
-0.313799
-0.3131
-0.312372
-0.311444
-0.311169
-0.309862
-0.32351
-0.323861
-0.32438
-0.323398
-0.32269
-0.32263
-0.321895
-0.320517
-0.318917
-0.317333
-0.316036
-0.31504
-0.314566
-0.314162
-0.313411
-0.312419
-0.310565
-0.309357
-0.327355
-0.325062
-0.324328
-0.324729
-0.324136
-0.322971
-0.322785
-0.322934
-0.321499
-0.320096
-0.318462
-0.317065
-0.316112
-0.315387
-0.314937
-0.314356
-0.312786
-0.326792
-0.328573
-0.327346
-0.325957
-0.325425
-0.325364
-0.324828
-0.323554
-0.322669
-0.322952
-0.322165
-0.321032
-0.319478
-0.318241
-0.317255
-0.316632
-0.315666
-0.315486
-0.328383
-0.328101
-0.327659
-0.327447
-0.326561
-0.326165
-0.326376
-0.325792
-0.324338
-0.323362
-0.322933
-0.322881
-0.32171
-0.320517
-0.319378
-0.31849
-0.318167
-0.315421
-0.331031
-0.329966
-0.328928
-0.327939
-0.327432
-0.326828
-0.326417
-0.326357
-0.326247
-0.325314
-0.324119
-0.323012
-0.32329
-0.322237
-0.321121
-0.319587
-0.318056
-0.317538
-0.33023
-0.331612
-0.33116
-0.330699
-0.329752
-0.32885
-0.327988
-0.327073
-0.326529
-0.326279
-0.326244
-0.326014
-0.324681
-0.323405
-0.323243
-0.322551
-0.321598
-0.320123
-0.333295
-0.332651
-0.331642
-0.331486
-0.330798
-0.330292
-0.329581
-0.328634
-0.327517
-0.327109
-0.326784
-0.32652
-0.326558
-0.325784
-0.324656
-0.32363
-0.323509
-0.322726
-0.333327
-0.33389
-0.333332
-0.3325
-0.331959
-0.331164
-0.330552
-0.329996
-0.329268
-0.328351
-0.327663
-0.327062
-0.326885
-0.326942
-0.326002
-0.325378
-0.324275
-0.323273
-0.338583
-0.334753
-0.334306
-0.333803
-0.333062
-0.332354
-0.331417
-0.330649
-0.330206
-0.329766
-0.329227
-0.328545
-0.327483
-0.326993
-0.327049
-0.326347
-0.325499
-0.325518
-0.336389
-0.335346
-0.335498
-0.33501
-0.33463
-0.333937
-0.333161
-0.33189
-0.330788
-0.330196
-0.330266
-0.329961
-0.329131
-0.327924
-0.327804
-0.327139
-0.327848
-0.336285
-0.337989
-0.337239
-0.336835
-0.335904
-0.335488
-0.335238
-0.334782
-0.334161
-0.332916
-0.331401
-0.330123
-0.329573
-0.329831
-0.330004
-0.328784
-0.327999
-0.327303
-0.33979
-0.33895
-0.337791
-0.337566
-0.336919
-0.336121
-0.33562
-0.335466
-0.335571
-0.334916
-0.334013
-0.332545
-0.330874
-0.329521
-0.329882
-0.330208
-0.329365
-0.328207
-0.339963
-0.339937
-0.339601
-0.338613
-0.33809
-0.337242
-0.336412
-0.335629
-0.335406
-0.335843
-0.335707
-0.33496
-0.333877
-0.33245
-0.33147
-0.330976
-0.330742
-0.330152
-0.342631
-0.341166
-0.340346
-0.340452
-0.339539
-0.33893
-0.338026
-0.337237
-0.336258
-0.335744
-0.335542
-0.335862
-0.335563
-0.334808
-0.333647
-0.332406
-0.331734
-0.331067
-0.342139
-0.342927
-0.34225
-0.341598
-0.341218
-0.340715
-0.340123
-0.33933
-0.338481
-0.337495
-0.336645
-0.335706
-0.335537
-0.335609
-0.335312
-0.334388
-0.333426
-0.332306
-0.344245
-0.343172
-0.342674
-0.342825
-0.342466
-0.342139
-0.341745
-0.341382
-0.340762
-0.33981
-0.338598
-0.337476
-0.336428
-0.335901
-0.33575
-0.335792
-0.335056
-0.334354
-0.344551
-0.344285
-0.343589
-0.343376
-0.343445
-0.343201
-0.342849
-0.34244
-0.342096
-0.341743
-0.340887
-0.339773
-0.338535
-0.337549
-0.336744
-0.336177
-0.336329
-0.337542
-0.346461
-0.345476
-0.344645
-0.344215
-0.3444
-0.343962
-0.343727
-0.343322
-0.342912
-0.342774
-0.342678
-0.341567
-0.340657
-0.339508
-0.33859
-0.337884
-0.337196
-0.335114
-0.347627
-0.347677
-0.347884
-0.34606
-0.345018
-0.344268
-0.343572
-0.344153
-0.344396
-0.343845
-0.343371
-0.343049
-0.342875
-0.342194
-0.341142
-0.340125
-0.339354
-0.338778
-0.337796
-0.348369
-0.347024
-0.346982
-0.347506
-0.346595
-0.345478
-0.344153
-0.34379
-0.343898
-0.344504
-0.344493
-0.343913
-0.343191
-0.342581
-0.342186
-0.341309
-0.340029
-0.339316
-0.349866
-0.348559
-0.348109
-0.347885
-0.347144
-0.34623
-0.34523
-0.344478
-0.344142
-0.34439
-0.344872
-0.344652
-0.343868
-0.343179
-0.34276
-0.342519
-0.34055
-0.352185
-0.350696
-0.349882
-0.349701
-0.349285
-0.34886
-0.348085
-0.347182
-0.346343
-0.345306
-0.344477
-0.344698
-0.344859
-0.344871
-0.344194
-0.343488
-0.342767
-0.342858
-0.352218
-0.352795
-0.350978
-0.350603
-0.350365
-0.350075
-0.349695
-0.348978
-0.34807
-0.347151
-0.345999
-0.34494
-0.344942
-0.34521
-0.344673
-0.344376
-0.343819
-0.343962
-0.358371
-0.353472
-0.352813
-0.351904
-0.351313
-0.350833
-0.350304
-0.349969
-0.349935
-0.34944
-0.347983
-0.346598
-0.345516
-0.345622
-0.345501
-0.345142
-0.344886
-0.343365
-0.355655
-0.354624
-0.353731
-0.352693
-0.352011
-0.351452
-0.350832
-0.350116
-0.349761
-0.349948
-0.348862
-0.347792
-0.346791
-0.346432
-0.346227
-0.346248
-0.345374
-0.358454
-0.355771
-0.355796
-0.354376
-0.353291
-0.352688
-0.35217
-0.351577
-0.350701
-0.349826
-0.349967
-0.349526
-0.348531
-0.347694
-0.346891
-0.345956
-0.346034
-0.357103
-0.355359
-0.356358
-0.355933
-0.355866
-0.354843
-0.35381
-0.353374
-0.35302
-0.35241
-0.351086
-0.350162
-0.350189
-0.349785
-0.348987
-0.348459
-0.348445
-0.34634
-0.360108
-0.359587
-0.356652
-0.356726
-0.356663
-0.356253
-0.355375
-0.354441
-0.353735
-0.353562
-0.353564
-0.352508
-0.350961
-0.350449
-0.350005
-0.349653
-0.347514
-0.362773
-0.360379
-0.360275
-0.359014
-0.358407
-0.357806
-0.357153
-0.356099
-0.355547
-0.354745
-0.354187
-0.354094
-0.353298
-0.352105
-0.351325
-0.350986
-0.350073
-0.363238
-0.3629
-0.362292
-0.36146
-0.360436
-0.36024
-0.359271
-0.358438
-0.357781
-0.357034
-0.356444
-0.355786
-0.355276
-0.354808
-0.354295
-0.353433
-0.352802
-0.352747
-0.362999
-0.363862
-0.363771
-0.362745
-0.361991
-0.361268
-0.359632
-0.358822
-0.358676
-0.358027
-0.35762
-0.357132
-0.3565
-0.356444
-0.355688
-0.355081
-0.353986
-0.353687
-0.36772
-0.365104
-0.365235
-0.36441
-0.363832
-0.363035
-0.362626
-0.360163
-0.358275
-0.358772
-0.358749
-0.358087
-0.35741
-0.356896
-0.357109
-0.356376
-0.355423
-0.354844
-0.370143
-0.367953
-0.365758
-0.365511
-0.365018
-0.364659
-0.363518
-0.363393
-0.36242
-0.360885
-0.359406
-0.358881
-0.35842
-0.357811
-0.357257
-0.357319
-0.356866
-0.354999
-0.368273
-0.370726
-0.370989
-0.368661
-0.367082
-0.36633
-0.365839
-0.365235
-0.364314
-0.363555
-0.362661
-0.36125
-0.360038
-0.359573
-0.359228
-0.358271
-0.35749
-0.357368
-0.356386
-0.372268
-0.36908
-0.371163
-0.371273
-0.370054
-0.368646
-0.367394
-0.366742
-0.366191
-0.365503
-0.36465
-0.363494
-0.362543
-0.361586
-0.360919
-0.360384
-0.358333
-0.358918
-0.358549
-0.37802
-0.372599
-0.373156
-0.372085
-0.370982
-0.369485
-0.368186
-0.367695
-0.367074
-0.366325
-0.365403
-0.364525
-0.363561
-0.362664
-0.362001
-0.361334
-0.359942
-0.358386
-0.378869
-0.377249
-0.374839
-0.374151
-0.37311
-0.371721
-0.370244
-0.369071
-0.368669
-0.367773
-0.367059
-0.366018
-0.365116
-0.364344
-0.363691
-0.363079
-0.362279
-0.382702
-0.380507
-0.378108
-0.376809
-0.375494
-0.374507
-0.373027
-0.371475
-0.370533
-0.369629
-0.368542
-0.367186
-0.366758
-0.365764
-0.364724
-0.363819
-0.364329
-0.385251
-0.384038
-0.381964
-0.38
-0.378407
-0.376996
-0.375518
-0.374374
-0.37296
-0.371442
-0.370429
-0.369545
-0.368199
-0.367248
-0.365913
-0.36552
-0.365343
-0.390725
-0.387522
-0.386957
-0.384506
-0.383343
-0.381532
-0.380252
-0.378658
-0.376759
-0.375431
-0.373943
-0.372413
-0.371393
-0.370327
-0.369224
-0.367985
-0.367297
-0.363918
-0.391808
-0.390297
-0.389712
-0.387329
-0.386116
-0.38475
-0.382799
-0.381671
-0.380298
-0.37833
-0.376887
-0.375507
-0.37377
-0.372667
-0.37191
-0.371295
-0.369719
-0.395191
-0.394096
-0.393056
-0.391303
-0.389993
-0.388385
-0.386672
-0.384699
-0.383123
-0.381521
-0.37975
-0.378364
-0.377015
-0.375603
-0.373925
-0.373113
-0.372437
-0.40015
-0.396699
-0.395676
-0.394423
-0.393313
-0.392174
-0.390575
-0.38886
-0.386938
-0.384812
-0.383064
-0.381286
-0.379669
-0.37844
-0.376824
-0.375282
-0.373486
-0.401664
-0.400537
-0.398627
-0.398001
-0.396209
-0.395041
-0.393941
-0.392414
-0.390654
-0.388668
-0.38673
-0.384516
-0.383036
-0.381623
-0.379951
-0.377712
-0.376551
-0.406345
-0.402906
-0.401895
-0.400386
-0.399029
-0.397694
-0.396042
-0.395317
-0.393894
-0.392116
-0.390163
-0.388021
-0.386136
-0.384436
-0.383196
-0.382247
-0.379243
-0.406092
-0.40578
-0.404314
-0.403615
-0.402229
-0.40033
-0.39765
-0.396121
-0.395322
-0.394906
-0.393397
-0.391516
-0.389334
-0.387303
-0.38518
-0.384072
-0.383639
-0.41016
-0.406547
-0.404893
-0.403302
-0.40228
-0.401199
-0.399961
-0.397731
-0.39635
-0.395591
-0.39429
-0.39258
-0.39055
-0.388868
-0.384986
-0.385569
-0.412274
-0.40971
-0.407838
-0.40504
-0.403502
-0.402657
-0.401841
-0.400607
-0.399138
-0.39758
-0.396537
-0.395392
-0.393577
-0.392547
-0.390406
-0.421347
-0.416142
-0.414502
-0.411447
-0.408777
-0.405923
-0.404434
-0.403463
-0.402716
-0.401196
-0.400072
-0.399222
-0.397831
-0.3965
-0.395011
-0.392967
-0.42917
-0.423378
-0.421035
-0.417176
-0.414968
-0.411281
-0.407542
-0.405903
-0.404386
-0.403371
-0.402258
-0.401514
-0.401675
-0.398818
-0.396889
-0.397159
-0.430476
-0.429289
-0.424977
-0.423195
-0.420467
-0.417015
-0.414118
-0.411088
-0.408195
-0.407377
-0.40549
-0.403408
-0.402169
-0.401547
-0.39926
-0.398165
-0.431271
-0.43233
-0.433778
-0.43227
-0.428407
-0.425624
-0.422128
-0.419014
-0.41586
-0.413114
-0.41111
-0.40901
-0.40882
-0.405925
-0.40341
-0.401993
-0.443933
-0.438862
-0.434495
-0.43345
-0.433385
-0.431381
-0.426977
-0.424768
-0.422666
-0.419438
-0.416336
-0.413059
-0.410427
-0.409928
-0.407935
-0.405162
-0.444772
-0.4433
-0.441876
-0.438919
-0.435901
-0.434965
-0.432888
-0.429593
-0.426981
-0.425274
-0.423612
-0.419527
-0.415197
-0.412268
-0.410962
-0.408713
-0.446665
-0.445398
-0.445543
-0.442511
-0.440573
-0.438265
-0.436086
-0.434403
-0.432688
-0.430409
-0.427962
-0.425919
-0.424479
-0.418504
-0.413397
-0.412351
-0.449944
-0.452053
-0.448753
-0.445779
-0.44353
-0.441899
-0.440749
-0.437495
-0.435253
-0.434463
-0.432495
-0.432191
-0.428071
-0.425611
-0.425835
-0.419728
-0.460534
-0.456457
-0.453263
-0.450145
-0.447752
-0.445657
-0.443758
-0.441754
-0.43965
-0.437295
-0.43539
-0.434621
-0.432209
-0.431583
-0.428821
-0.465438
-0.461989
-0.459257
-0.455338
-0.453346
-0.450373
-0.448587
-0.445831
-0.443851
-0.441398
-0.438461
-0.437183
-0.435484
-0.433611
-0.429118
-0.43102
-0.471559
-0.467667
-0.463754
-0.45924
-0.458108
-0.45509
-0.453133
-0.451119
-0.448358
-0.445904
-0.443547
-0.439624
-0.437051
-0.43485
-0.433422
-0.428496
-0.471549
-0.471601
-0.469502
-0.466611
-0.463266
-0.459679
-0.457101
-0.455047
-0.452877
-0.450384
-0.448046
-0.445971
-0.443575
-0.440194
-0.436841
-0.474504
-0.474951
-0.470653
-0.467858
-0.465192
-0.462495
-0.459145
-0.457245
-0.454964
-0.451525
-0.44955
-0.446884
-0.446314
-0.441751
-0.473796
-0.478094
-0.474804
-0.472011
-0.469683
-0.466725
-0.464543
-0.461755
-0.459258
-0.456672
-0.454244
-0.451606
-0.447715
-0.486818
-0.484765
-0.482542
-0.480247
-0.476003
-0.474085
-0.47234
-0.468665
-0.466158
-0.463494
-0.461185
-0.459398
-0.456434
-0.454745
-0.49181
-0.489589
-0.486022
-0.484489
-0.481023
-0.479033
-0.475743
-0.473139
-0.47127
-0.467556
-0.465828
-0.463719
-0.461378
-0.457886
-0.495479
-0.493426
-0.490942
-0.489534
-0.485961
-0.483507
-0.480162
-0.477907
-0.475127
-0.4718
-0.469673
-0.466931
-0.46491
-0.460315
-0.504942
-0.498608
-0.496047
-0.493031
-0.489732
-0.488105
-0.48445
-0.48235
-0.479393
-0.476867
-0.474215
-0.472194
-0.469754
-0.466173
-0.508071
-0.506695
-0.502799
-0.498262
-0.492449
-0.488794
-0.488687
-0.486478
-0.483468
-0.482221
-0.478906
-0.475352
-0.47242
-0.472165
-0.514659
-0.511449
-0.507936
-0.505835
-0.500225
-0.500166
-0.495215
-0.492018
-0.487624
-0.485667
-0.483191
-0.481107
-0.476315
-0.509897
-0.504993
-0.500261
-0.499432
-0.496362
-0.492471
-0.48765
-0.48634
-0.48328
-0.511322
-0.509628
-0.504546
-0.502217
-0.497789
-0.494804
-0.490482
-0.489996
-0.517378
-0.512242
-0.511831
-0.505132
-0.505357
-0.504476
-0.497379
-0.517139
-0.516654
-0.521091
-0.51012
-0.510215
-0.509396
-0.510238
-0.514871
-0.517608
-0.517181
-0.513433
-0.509836
-0.530064
-0.521988
-0.530389
-0.515608
-0.516822
-0.516033
-0.560324
-0.545805
-0.537873
-0.532258
-0.527729
-0.563787
-0.557963
-0.552147
-0.548413
-0.540076
-0.545018
-0.569436
-0.553042
-0.556039
-0.545395
-0.538978
-0.565663
-0.566646
-0.56124
-0.043418
-0.0361442
-0.023377
-0.0565709
-0.0600284
-0.0551067
-0.048502
-0.0474797
-0.0454345
-0.0420278
-0.0269468
-0.0106834
-0.0722502
-0.0682375
-0.0732937
-0.0653886
-0.0628324
-0.0600006
-0.0534554
-0.0489
-0.0467755
-0.0440957
-0.0440978
-0.0355396
-0.0263281
-0.0212815
-0.0142979
-0.0836715
-0.0829964
-0.0754131
-0.0758274
-0.0686817
-0.0717068
-0.0691951
-0.0631288
-0.0593902
-0.055419
-0.0518404
-0.0490034
-0.0442808
-0.0426504
-0.03928
-0.0297441
-0.0241176
-0.0246863
-0.00500276
0.00102774
-0.00212886
0.0160813
-0.102644
-0.0894315
-0.0861054
-0.0818538
-0.0828995
-0.0798588
-0.0761558
-0.0743133
-0.0717457
-0.0698016
-0.0658289
-0.0611384
-0.0583287
-0.0551608
-0.0515138
-0.037918
-0.0441834
-0.0378532
-0.0311199
-0.026967
-0.0219321
-0.0186871
-0.0108923
-0.106435
-0.109403
-0.102596
-0.100354
-0.0889652
-0.08735
-0.0857661
-0.0857814
-0.0819013
-0.0778442
-0.0754879
-0.0732511
-0.0713182
-0.0675299
-0.0670788
-0.0602155
-0.0583114
-0.0408525
-0.04527
-0.0404506
-0.0387835
-0.0319016
-0.028886
-0.0236486
-0.0187291
-0.119521
-0.11764
-0.110729
-0.107701
-0.105693
-0.107621
-0.0933621
-0.0885957
-0.0881594
-0.0872718
-0.0855883
-0.0813287
-0.0755296
-0.0741848
-0.0733736
-0.0692637
-0.0671835
-0.0615433
-0.0585465
-0.0500022
-0.048614
-0.0393688
-0.0375125
-0.0329415
-0.0282737
-0.128485
-0.126905
-0.123404
-0.11861
-0.115584
-0.110753
-0.108222
-0.102969
-0.0955247
-0.0903772
-0.0908506
-0.0896676
-0.0851334
-0.0848019
-0.0760691
-0.0734019
-0.0757535
-0.0701667
-0.0684246
-0.0629968
-0.0589986
-0.0504123
-0.0460901
-0.0414366
-0.0368231
-0.137379
-0.131361
-0.13217
-0.128368
-0.125625
-0.121531
-0.117038
-0.112682
-0.110898
-0.106249
-0.0985735
-0.0923057
-0.0906406
-0.0902152
-0.086866
-0.0817597
-0.0844531
-0.0767794
-0.0766541
-0.0739245
-0.0682414
-0.0649387
-0.0596737
-0.055965
-0.0483694
-0.149896
-0.15478
-0.14437
-0.138306
-0.13438
-0.132918
-0.129359
-0.126412
-0.12293
-0.118257
-0.113756
-0.112182
-0.109269
-0.10406
-0.0979916
-0.0945652
-0.0924296
-0.0884471
-0.0855224
-0.08107
-0.0750996
-0.074124
-0.076367
-0.0691247
-0.0650142
-0.0663074
-0.163045
-0.160831
-0.154667
-0.153082
-0.150893
-0.146209
-0.140873
-0.136546
-0.133394
-0.130631
-0.127162
-0.124455
-0.119852
-0.115668
-0.113171
-0.11045
-0.106441
-0.103322
-0.100299
-0.0986792
-0.0916057
-0.0852861
-0.0813321
-0.0801541
-0.075186
-0.0777064
-0.0716629
-0.167109
-0.163802
-0.161158
-0.157436
-0.153726
-0.151173
-0.148401
-0.144076
-0.139273
-0.135201
-0.132109
-0.128294
-0.125313
-0.121235
-0.117744
-0.114105
-0.110802
-0.108106
-0.106204
-0.10209
-0.0981749
-0.101462
-0.0805471
-0.0844813
-0.0816227
-0.177685
-0.173375
-0.168384
-0.166803
-0.164444
-0.162353
-0.158572
-0.155764
-0.153117
-0.14998
-0.14613
-0.141757
-0.138371
-0.133929
-0.129577
-0.125081
-0.12118
-0.119345
-0.114818
-0.11154
-0.109788
-0.107374
-0.102778
-0.100121
-0.0916535
-0.181523
-0.178744
-0.17664
-0.172615
-0.169109
-0.165578
-0.162706
-0.159922
-0.157257
-0.155088
-0.152019
-0.148256
-0.143741
-0.140857
-0.136491
-0.130728
-0.126625
-0.122265
-0.121126
-0.116074
-0.112858
-0.110945
-0.10909
-0.104946
-0.195487
-0.189255
-0.188259
-0.184634
-0.181955
-0.178077
-0.173894
-0.169976
-0.166942
-0.164015
-0.160987
-0.158537
-0.156282
-0.152645
-0.149839
-0.145993
-0.142855
-0.138763
-0.132938
-0.128661
-0.124363
-0.121308
-0.118375
-0.116079
-0.11365
-0.197666
-0.197875
-0.195528
-0.192204
-0.190399
-0.186875
-0.183847
-0.180102
-0.175952
-0.170539
-0.168059
-0.164825
-0.162505
-0.159853
-0.157421
-0.154509
-0.15114
-0.147655
-0.144139
-0.140181
-0.134678
-0.130149
-0.125927
-0.122273
-0.121376
-0.206873
-0.203524
-0.200777
-0.198561
-0.195461
-0.193825
-0.19145
-0.189354
-0.186883
-0.183522
-0.178783
-0.173841
-0.170305
-0.166103
-0.16401
-0.161453
-0.159307
-0.156651
-0.152652
-0.149634
-0.146564
-0.14247
-0.137476
-0.131292
-0.133326
-0.214894
-0.213232
-0.209283
-0.20765
-0.205652
-0.202499
-0.199696
-0.196243
-0.195232
-0.193238
-0.190859
-0.188951
-0.18562
-0.180547
-0.17608
-0.1724
-0.169109
-0.165708
-0.16315
-0.160589
-0.157895
-0.15504
-0.151701
-0.148332
-0.143773
-0.1394
-0.222568
-0.214304
-0.214311
-0.212406
-0.210766
-0.209263
-0.207353
-0.205083
-0.200794
-0.197016
-0.196171
-0.194226
-0.191731
-0.189244
-0.186278
-0.181907
-0.179166
-0.175421
-0.16972
-0.167094
-0.166337
-0.162392
-0.158991
-0.155829
-0.154595
-0.152083
-0.218315
-0.223491
-0.223291
-0.218717
-0.215569
-0.214165
-0.212857
-0.211256
-0.209168
-0.206505
-0.202797
-0.198513
-0.196969
-0.194923
-0.192735
-0.189425
-0.185768
-0.183333
-0.182105
-0.178905
-0.173046
-0.170159
-0.167415
-0.163762
-0.158027
-0.158546
-0.152072
-0.232092
-0.225779
-0.224758
-0.223752
-0.221521
-0.219598
-0.217117
-0.215609
-0.2144
-0.212594
-0.210309
-0.207633
-0.204483
-0.2009
-0.198482
-0.196231
-0.1942
-0.190707
-0.185901
-0.183566
-0.183099
-0.179791
-0.175724
-0.172236
-0.169254
-0.165709
-0.158421
-0.235061
-0.232354
-0.230024
-0.22791
-0.225155
-0.222371
-0.220175
-0.218373
-0.216898
-0.215535
-0.213515
-0.211096
-0.208399
-0.205519
-0.202577
-0.20031
-0.198176
-0.196395
-0.192492
-0.187087
-0.183178
-0.183403
-0.179711
-0.177334
-0.175059
-0.169918
-0.238311
-0.240452
-0.237326
-0.233914
-0.231371
-0.229323
-0.226778
-0.223545
-0.221501
-0.219295
-0.217891
-0.216517
-0.214548
-0.21198
-0.209098
-0.206284
-0.20372
-0.201686
-0.199853
-0.198332
-0.194811
-0.190794
-0.185599
-0.182829
-0.181423
-0.177304
-0.244941
-0.24321
-0.24007
-0.240316
-0.238358
-0.235405
-0.233279
-0.230837
-0.228681
-0.225856
-0.223204
-0.220347
-0.218386
-0.21731
-0.215655
-0.212954
-0.210044
-0.207453
-0.204883
-0.202786
-0.201293
-0.199451
-0.196784
-0.193374
-0.188432
-0.183626
-0.254001
-0.248164
-0.245325
-0.243185
-0.24147
-0.239639
-0.236941
-0.23505
-0.232598
-0.230105
-0.227395
-0.224696
-0.221553
-0.218936
-0.217566
-0.216392
-0.2141
-0.21144
-0.208872
-0.206277
-0.203881
-0.202156
-0.199842
-0.19787
-0.194126
-0.258619
-0.254186
-0.252271
-0.250024
-0.247561
-0.244891
-0.242422
-0.241048
-0.238707
-0.236492
-0.234028
-0.231384
-0.228713
-0.226065
-0.222961
-0.21975
-0.218204
-0.216923
-0.215002
-0.2126
-0.210278
-0.207788
-0.205447
-0.203468
-0.200953
-0.196904
-0.262917
-0.260356
-0.257831
-0.256296
-0.253564
-0.25165
-0.249714
-0.246413
-0.243964
-0.241967
-0.240008
-0.23791
-0.235578
-0.232898
-0.230231
-0.227471
-0.224425
-0.221083
-0.219426
-0.217934
-0.215743
-0.213413
-0.211406
-0.209186
-0.206853
-0.201124
-0.264798
-0.266254
-0.265273
-0.262779
-0.259734
-0.257382
-0.255239
-0.253169
-0.251299
-0.248119
-0.245417
-0.243087
-0.241052
-0.239088
-0.236737
-0.234188
-0.23158
-0.228955
-0.226083
-0.222535
-0.220692
-0.218764
-0.216656
-0.214293
-0.21215
-0.209509
-0.207353
-0.274882
-0.270337
-0.26707
-0.266034
-0.264019
-0.261433
-0.258846
-0.256699
-0.254592
-0.252498
-0.249754
-0.246946
-0.244607
-0.242337
-0.240198
-0.237789
-0.235357
-0.232544
-0.229754
-0.227707
-0.22488
-0.22237
-0.219749
-0.216653
-0.21396
-0.21154
-0.277161
-0.27621
-0.274543
-0.271914
-0.268595
-0.267414
-0.265791
-0.263065
-0.260497
-0.258197
-0.256077
-0.253954
-0.251391
-0.248734
-0.246085
-0.243838
-0.241545
-0.239475
-0.23661
-0.233975
-0.231426
-0.229377
-0.226848
-0.224763
-0.224051
-0.218114
-0.282583
-0.279657
-0.278249
-0.276355
-0.273951
-0.269932
-0.268838
-0.267654
-0.264685
-0.262027
-0.259937
-0.257928
-0.256007
-0.253214
-0.250371
-0.247593
-0.245128
-0.242723
-0.241184
-0.238439
-0.236328
-0.233966
-0.231701
-0.229309
-0.227346
-0.28607
-0.28436
-0.28282
-0.281486
-0.280156
-0.278645
-0.276158
-0.271895
-0.269909
-0.268758
-0.266534
-0.263477
-0.261612
-0.259994
-0.25798
-0.254902
-0.250962
-0.24886
-0.246754
-0.244109
-0.242246
-0.240141
-0.237317
-0.23517
-0.235279
-0.288282
-0.287238
-0.285587
-0.284309
-0.282742
-0.281276
-0.280062
-0.278006
-0.274015
-0.271345
-0.269509
-0.267889
-0.265364
-0.263238
-0.261766
-0.259655
-0.256773
-0.252181
-0.250281
-0.248192
-0.246274
-0.244294
-0.243198
-0.239413
-0.23411
-0.29515
-0.291824
-0.289509
-0.288619
-0.286982
-0.285419
-0.283826
-0.282135
-0.280734
-0.278804
-0.275741
-0.273303
-0.271138
-0.268927
-0.266362
-0.26425
-0.262828
-0.261204
-0.258502
-0.255031
-0.252151
-0.249873
-0.248108
-0.245278
-0.244632
-0.298303
-0.295627
-0.293349
-0.290578
-0.289789
-0.288324
-0.286478
-0.284613
-0.282831
-0.281186
-0.27955
-0.27744
-0.27536
-0.273187
-0.270283
-0.267283
-0.26497
-0.263326
-0.261466
-0.259185
-0.256587
-0.254032
-0.251164
-0.248493
-0.246348
-0.301687
-0.299527
-0.29876
-0.297033
-0.294994
-0.291866
-0.290814
-0.289543
-0.287484
-0.285458
-0.283351
-0.281617
-0.28013
-0.278494
-0.276872
-0.275144
-0.272434
-0.269476
-0.266798
-0.264385
-0.262431
-0.260028
-0.257425
-0.255236
-0.253724
-0.302265
-0.30138
-0.300789
-0.300014
-0.298783
-0.297227
-0.2941
-0.292406
-0.291113
-0.289037
-0.286464
-0.284092
-0.2823
-0.280886
-0.279537
-0.278181
-0.276701
-0.274478
-0.271702
-0.269005
-0.266275
-0.263622
-0.26044
-0.260586
-0.303631
-0.304896
-0.303845
-0.302594
-0.301815
-0.301259
-0.300616
-0.299256
-0.297178
-0.295209
-0.293474
-0.291134
-0.28842
-0.285515
-0.283113
-0.28165
-0.280465
-0.279076
-0.277617
-0.27542
-0.273202
-0.270884
-0.268215
-0.265644
-0.26256
-0.307313
-0.306342
-0.304923
-0.304142
-0.303385
-0.302736
-0.301922
-0.30161
-0.300615
-0.299215
-0.297764
-0.295784
-0.292873
-0.289916
-0.287112
-0.284696
-0.28291
-0.28173
-0.280227
-0.278377
-0.276313
-0.274271
-0.272027
-0.269481
-0.308332
-0.30872
-0.307695
-0.306718
-0.305852
-0.304827
-0.303885
-0.303212
-0.302512
-0.302137
-0.301155
-0.300119
-0.299172
-0.29771
-0.295197
-0.291648
-0.288398
-0.286122
-0.284439
-0.282891
-0.281259
-0.279079
-0.277403
-0.275985
-0.274188
-0.310497
-0.309665
-0.308957
-0.308458
-0.307618
-0.306503
-0.305505
-0.304609
-0.303912
-0.302991
-0.302505
-0.301613
-0.300562
-0.299689
-0.298675
-0.297025
-0.293922
-0.29018
-0.287805
-0.286049
-0.284459
-0.282207
-0.280484
-0.278647
-0.312218
-0.312086
-0.311339
-0.310582
-0.309745
-0.309342
-0.308547
-0.307277
-0.306008
-0.305151
-0.304571
-0.303687
-0.303031
-0.302112
-0.300919
-0.299904
-0.299146
-0.297918
-0.295921
-0.292351
-0.289849
-0.287846
-0.286642
-0.282706
-0.27856
-0.314432
-0.313541
-0.312666
-0.311882
-0.311177
-0.310529
-0.310128
-0.309441
-0.308196
-0.306748
-0.305553
-0.304909
-0.304353
-0.30371
-0.302608
-0.301072
-0.299926
-0.299288
-0.298452
-0.296423
-0.293905
-0.291508
-0.289066
-0.287571
-0.316995
-0.315159
-0.314451
-0.313266
-0.312436
-0.311868
-0.311362
-0.310871
-0.310189
-0.309025
-0.307582
-0.30618
-0.305222
-0.3047
-0.304176
-0.303422
-0.301655
-0.300261
-0.299655
-0.298679
-0.296839
-0.294652
-0.292236
-0.289318
-0.31827
-0.317828
-0.317167
-0.316071
-0.315005
-0.31396
-0.313183
-0.312601
-0.312125
-0.31156