/*--------------------------------*- C++ -*----------------------------------*\
  =========                 |
  \\      /  F ield         | OpenFOAM: The Open Source CFD Toolbox
   \\    /   O peration     | Website:  https://openfoam.org
    \\  /    A nd           | Version:  8
     \\/     M anipulation  |
\*---------------------------------------------------------------------------*/
FoamFile
{
    version     2.0;
    format      ascii;
    class       volScalarField;
    location    "235";
    object      epsilon;
}
// * * * * * * * * * * * * * * * * * * * * * * * * * * * * * * * * * * * * * //

dimensions      [0 2 -3 0 0 0 0];

internalField   nonuniform List<scalar> 
12225
(
285.514
270.7
257.919
243.805
232.468
223.077
216.821
212.695
212.742
213.946
217.257
220.85
228.189
232.571
241.628
245.748
257.368
263.851
52.4946
91.8785
106.973
114.745
124.845
136.777
152.692
169.895
191.107
210.92
235.216
255.465
281.031
299.294
324.712
339.174
364.57
373.349
20.3236
34.8557
44.6758
50.4682
55.3972
59.6053
64.6654
69.6401
76.3173
83.18
91.4324
99.3134
108.163
116.926
125.527
135.246
142.549
153.676
15.3484
19.6973
24.113
27.5682
30.4977
32.8689
35.1555
37.2926
39.5025
41.9166
44.3358
47.1998
49.6793
53.0347
55.4086
59.2262
61.4202
65.6264
14.6509
15.8626
17.3672
19.0735
20.6385
22.0256
23.2461
24.4308
25.4439
26.5942
27.523
28.7572
29.6312
30.9837
31.8115
33.2617
34.0737
35.6394
14.7068
14.8769
15.2015
15.8666
16.5668
17.2866
17.9236
18.584
19.119
19.7338
20.1931
20.7985
21.208
21.8218
22.1974
22.8239
23.1775
23.8555
14.7421
14.6201
14.6248
14.737
14.9297
15.219
15.4912
15.8088
16.0709
16.3825
16.618
16.92
17.1307
17.4267
17.6155
17.9114
18.0807
18.4049
14.7626
14.5866
14.4638
14.3812
14.3669
14.39
14.4381
14.5337
14.6185
14.7366
14.8308
14.9564
15.0476
15.176
15.2608
15.3914
15.4695
15.619
14.7667
14.5908
14.4346
14.2963
14.1849
14.1044
14.0398
14.0066
13.9814
13.9785
13.9809
13.9916
14.004
14.0294
14.0471
14.0793
14.103
14.1454
14.7663
14.5939
14.432
14.282
14.143
14.0219
13.9115
13.8193
13.737
13.6698
13.6102
13.5633
13.5181
13.4871
13.4516
13.4341
13.4021
13.4007
14.7658
14.5945
14.4321
14.2803
14.1361
14.0032
13.8782
13.7644
13.6582
13.5629
13.4736
13.3952
13.3198
13.2561
13.1916
13.1408
13.0838
13.0451
14.7657
14.5943
14.4321
14.2798
14.1353
13.9998
13.8715
13.7518
13.6385
13.5337
13.4341
13.343
13.2557
13.1771
13.1003
13.0328
12.9647
12.9074
14.7657
14.5941
14.432
14.2794
14.1349
13.9989
13.8699
13.7485
13.6332
13.5249
13.422
13.3257
13.2338
13.1484
13.0663
12.9906
12.9172
12.8502
14.7657
14.5939
14.4318
14.279
14.1346
13.9983
13.8691
13.7472
13.6315
13.5223
13.4184
13.3203
13.227
13.139
13.055
12.9759
12.9002
12.8291
14.7657
14.5938
14.4317
14.2787
14.1342
13.9977
13.8686
13.7464
13.6307
13.5211
13.4171
13.3185
13.2248
13.136
13.0516
12.9714
12.8951
12.8227
14.7657
14.5937
14.4315
14.2785
14.1339
13.9973
13.8681
13.7458
13.63
13.5202
13.4161
13.3174
13.2236
13.1346
13.05
12.9696
12.8931
12.8204
14.7657
14.5937
14.4315
14.2783
14.1337
13.997
13.8677
13.7453
13.6294
13.5195
13.4154
13.3165
13.2227
13.1336
13.0489
12.9684
12.8918
12.819
14.7657
14.5937
14.4314
14.2782
14.1335
13.9968
13.8674
13.7449
13.629
13.5191
13.4148
13.3159
13.222
13.1328
13.0481
12.9675
12.8909
12.818
14.7657
14.5937
14.4314
14.2782
14.1335
13.9967
13.8673
13.7448
13.6288
13.5189
13.4146
13.3156
13.2217
13.1325
13.0477
12.9671
12.8904
12.8174
14.7657
14.5937
14.4314
14.2782
14.1336
13.9968
13.8674
13.745
13.629
13.519
13.4148
13.3158
13.2219
13.1327
13.0479
12.9673
12.8907
12.8177
14.7657
14.5937
14.4315
14.2784
14.1337
13.997
13.8677
13.7453
13.6294
13.5195
13.4154
13.3166
13.2229
13.1338
13.0493
12.9689
12.8926
12.8199
14.7657
14.5937
14.4316
14.2785
14.1341
13.9974
13.8685
13.7464
13.6312
13.522
13.419
13.3214
13.2293
13.1418
13.0595
12.981
12.9073
12.8368
14.7658
14.5937
14.4318
14.2788
14.1353
14.0002
13.8742
13.756
13.6463
13.5435
13.4485
13.3591
13.277
13.1992
13.1282
13.0601
12.9988
12.9386
14.7655
14.5928
14.4328
14.2844
14.1515
14.0321
13.929
13.8375
13.7593
13.6894
13.6306
13.5769
13.5328
13.4905
13.4574
13.423
13.3988
13.3693
14.7592
14.5932
14.4603
14.3602
14.3029
14.2766
14.2805
14.2921
14.321
14.3531
14.3959
14.4345
14.4824
14.5217
14.572
14.6089
14.6616
14.6939
14.7213
14.6911
14.754
14.9176
15.1828
15.4611
15.7476
16.012
16.2723
16.5038
16.7361
16.9386
17.1508
17.331
17.531
17.6937
17.8889
18.036
14.7477
15.5124
16.5473
17.6841
18.7044
19.5675
20.3372
20.9968
21.6195
22.1661
22.719
23.2109
23.7401
24.2045
24.7329
25.1829
25.7253
26.1663
15.9871
20.9921
25.0238
27.7604
29.7847
31.3585
32.7771
34.058
35.3596
36.6166
37.9758
39.2975
40.7621
42.1463
43.7185
45.1746
46.8847
48.3595
29.9032
47.2183
54.8696
58.6736
61.6141
64.4322
67.581
70.978
74.7394
78.7155
82.9868
87.3463
91.9074
96.4528
101.104
105.625
110.179
114.581
165.798
160.075
154.899
149.564
144.479
139.677
135.614
132.109
129.27
126.974
125.32
124.045
123.34
122.825
122.842
122.96
123.285
123.828
0.249819
0.296282
0.541822
0.767331
1.00262
1.26492
1.56248
1.89974
2.27517
2.68147
3.11017
3.55174
3.99874
4.44338
4.87974
5.30065
5.69999
6.06956
6.40205
6.68782
6.91914
7.0873
7.18895
7.21518
7.17161
7.04502
6.94523
6.89194
7.27481
7.54058
7.84625
8.13279
8.37331
8.66475
8.95576
9.24037
40.4056
41.5163
40.7203
9.40137
44.0984
46.5517
50.1882
53.5574
57.2973
61.1082
65.1363
69.3102
73.6704
78.1998
82.9125
87.8059
92.8868
98.1567
103.62
109.279
115.138
121.198
127.463
133.934
140.613
147.502
154.601
161.912
169.433
177.165
185.107
193.256
201.611
210.17
218.927
227.881
237.025
246.355
255.864
265.547
275.393
285.399
295.551
305.844
316.265
326.806
337.451
348.193
359.015
369.905
380.847
391.826
402.821
413.817
424.789
435.713
446.563
457.312
467.935
478.416
488.768
499.071
509.194
519.179
528.996
538.641
548.095
557.346
566.376
575.173
583.721
592.01
600.024
607.752
615.182
622.304
629.105
635.577
641.709
647.495
652.922
657.987
662.682
667.007
670.949
674.504
677.657
680.409
682.742
684.654
686.098
686.874
688.184
688.531
688.485
688.042
687.023
685.611
683.829
681.657
679.152
676.251
672.967
669.316
665.306
660.974
656.277
651.219
645.805
640.039
633.925
627.469
620.676
613.55
606.099
598.327
590.244
581.854
573.171
564.206
554.979
545.503
535.814
525.989
516.476
510.104
505.603
501.09
496.388
491.483
486.395
481.136
475.732
470.196
464.553
458.806
452.964
447.027
440.882
434.511
427.801
420.22
411.839
382.325
1.21019
0.736562
0.742507
0.841612
0.994338
1.19032
1.42804
1.70525
2.01747
2.35848
2.72153
3.10035
3.48948
3.88432
4.28082
4.67535
5.06437
5.44443
5.81195
6.16338
6.49495
6.80249
7.10665
7.42977
7.79089
8.22917
8.79468
9.50069
10.2753
11.1276
12.0163
12.9778
14.0916
14.9121
16.3231
19.1303
23.0604
23.4619
23.9311
23.9695
28.55
29.7765
31.5915
33.3554
35.2093
37.1137
39.0882
41.1268
43.2354
45.4135
47.6635
49.9863
52.3832
54.8552
57.4033
60.0283
62.7309
65.5117
68.3709
71.3091
74.3263
77.4225
80.5974
83.8509
87.1822
90.5908
94.0756
97.6358
101.27
104.976
108.754
112.6
116.513
120.491
124.53
128.628
132.782
136.989
141.245
145.547
149.89
154.27
158.683
163.124
167.587
172.067
176.558
181.053
185.546
190.029
194.495
198.936
203.344
207.715
212.048
216.353
220.653
225.011
229.306
233.548
237.727
241.838
245.876
249.834
253.707
257.489
261.175
264.759
268.238
271.604
274.855
277.985
280.99
283.866
286.609
289.216
291.683
294.007
296.187
298.218
300.099
301.825
303.393
304.8
306.045
307.125
308.039
308.794
309.49
309.924
310.211
310.32
310.233
309.972
309.586
309.043
308.356
307.508
306.503
305.346
304.037
302.581
300.971
299.209
297.294
295.229
293.014
290.651
288.141
285.485
282.684
279.742
276.658
273.436
270.079
266.591
262.978
259.244
255.402
251.482
247.602
244.247
241.277
238.331
235.323
232.242
229.092
225.881
222.619
219.315
215.983
212.63
209.262
205.889
202.494
199.087
195.657
192.268
189.264
184.63
2.51705
1.28368
1.14974
1.19288
1.31068
1.48229
1.70034
1.95998
2.25591
2.58207
2.93232
3.30125
3.68448
4.07885
4.48218
4.89322
5.31133
5.7367
6.17023
6.6142
7.0731
7.5559
8.06232
8.59692
9.17446
9.80451
10.4938
11.2306
12.0033
12.806
13.661
14.5875
15.6003
16.7039
17.9893
19.4611
20.8894
21.9103
23.0396
24.37
26.0561
27.4163
28.8699
30.3648
31.9151
33.5176
35.1747
36.8864
38.6538
40.4775
42.3582
44.2966
46.2933
48.349
50.4641
52.6391
54.8745
57.1705
59.5273
61.9452
64.4241
66.9641
69.5649
72.2263
74.9479
77.7292
80.5694
83.4679
86.4237
89.4358
92.5028
95.6234
98.7961
102.019
105.291
108.608
111.97
115.374
118.816
122.295
125.807
129.349
132.917
136.509
140.119
143.744
147.38
151.022
154.666
158.308
161.943
165.567
169.178
172.773
176.354
179.923
183.486
187.035
190.543
194.006
197.421
200.781
204.082
207.318
210.485
213.579
216.594
219.527
222.372
225.127
227.786
230.347
232.806
235.159
237.403
239.535
241.553
243.453
245.235
246.895
248.431
249.841
251.122
252.273
253.293
254.182
254.941
255.575
256.096
256.461
256.686
256.753
256.675
256.476
256.155
255.706
255.132
254.428
253.596
252.637
251.554
250.346
249.012
247.554
245.973
244.268
242.443
240.496
238.43
236.247
233.946
231.531
229.002
226.361
223.612
220.757
217.799
214.746
211.605
208.399
205.188
202.129
199.199
196.282
193.331
190.337
187.303
184.235
181.14
178.027
174.908
171.791
168.683
165.595
162.529
159.504
156.542
153.741
151.315
148.743
3.95095
1.88385
1.60163
1.59394
1.69101
1.85176
2.06215
2.31512
2.60511
2.92675
3.27483
3.64483
4.03319
4.43759
4.85684
5.29086
5.74039
6.20696
6.6926
7.19984
7.73136
8.28968
8.87566
9.4902
10.1347
10.8086
11.5086
12.2288
12.9656
13.759
14.6042
15.5096
16.4837
17.538
18.6488
19.8066
20.9689
22.1194
23.3333
24.6403
26.0037
27.3556
28.75
30.1895
31.6776
33.2153
34.8038
36.444
38.1366
39.8823
41.682
43.5363
45.4459
47.4113
49.4331
51.5117
53.6476
55.8414
58.0934
60.4038
62.7728
65.2007
67.6874
70.2329
72.837
75.4995
78.2198
80.9975
83.8319
86.7222
89.6674
92.6663
95.7178
98.8202
101.972
105.171
108.416
111.704
115.033
118.4
121.803
125.238
128.703
132.193
135.706
139.237
142.783
146.34
149.904
153.472
157.039
160.601
164.157
167.703
171.237
174.76
178.264
181.742
185.181
188.577
191.925
195.218
198.453
201.623
204.724
207.752
210.7
213.565
216.343
219.028
221.617
224.107
226.493
228.772
230.941
232.997
234.938
236.76
238.461
240.04
241.494
242.821
244.019
245.087
246.024
246.831
247.508
248.057
248.481
248.759
248.878
248.859
248.713
248.438
248.036
247.507
246.852
246.069
245.159
244.125
242.968
241.689
240.288
238.766
237.125
235.367
233.492
231.502
229.398
227.183
224.858
222.425
219.886
217.242
214.498
211.655
208.718
205.694
202.591
199.428
196.242
193.101
190.004
186.906
183.785
180.634
177.457
174.258
171.046
167.824
164.606
161.404
158.226
155.084
151.989
148.962
146.035
143.303
140.896
138.64
5.36066
2.48772
2.05502
1.9983
2.07271
2.22184
2.42481
2.67192
2.95694
3.27475
3.62076
3.99102
4.38245
4.79297
5.22157
5.66825
6.13379
6.61963
7.12754
7.65942
8.21691
8.80113
9.41237
10.0504
10.7147
11.4051
12.12
12.8591
13.6255
14.4292
15.2752
16.1689
17.1159
18.1186
19.1723
20.2691
21.3997
22.5646
23.7766
25.0373
26.3501
27.6998
29.0934
30.5335
32.022
33.5604
35.1498
36.7913
38.4859
40.2346
42.0384
43.8982
45.8153
47.79
49.8228
51.9147
54.0664
56.2784
58.5515
60.8862
63.283
65.7423
68.2644
70.8496
73.498
76.2095
78.9839
81.8211
84.7206
87.6817
90.7038
93.7859
96.9268
100.125
103.38
106.688
110.049
113.46
116.919
120.423
123.969
127.554
131.175
134.829
138.511
142.219
145.947
149.691
153.449
157.215
160.985
164.755
168.52
172.277
176.02
179.745
183.443
187.11
190.736
194.317
197.845
201.316
204.723
208.061
211.323
214.505
217.602
220.607
223.517
226.326
229.03
231.624
234.105
236.469
238.712
240.832
242.824
244.687
246.418
248.016
249.476
250.799
251.982
253.023
253.924
254.682
255.3
255.777
256.114
256.286
256.307
256.18
255.918
255.518
254.98
254.306
253.496
252.552
251.475
250.267
248.931
247.467
245.877
244.163
242.328
240.372
238.299
236.109
233.806
231.392
228.868
226.237
223.502
220.665
217.729
214.699
211.578
208.375
205.098
201.762
198.392
195.023
191.661
188.29
184.899
181.487
178.057
174.617
171.174
167.734
164.313
160.919
157.562
154.255
151.012
147.859
144.829
142.006
139.472
137.108
6.6901
3.06757
2.48859
2.38349
2.43426
2.57052
2.7648
3.00476
3.28322
3.59504
3.93595
4.3024
4.69155
5.10143
5.53091
5.97974
6.44832
6.93766
7.44908
7.98404
8.54387
9.12966
9.7421
10.3816
11.0484
11.7428
12.4651
13.217
14.0011
14.8213
15.6812
16.5843
17.5335
18.5301
19.5733
20.661
21.7913
22.9645
24.184
25.4511
26.7662
28.1279
29.5377
30.9971
32.5075
34.0704
35.6869
37.3585
39.0863
40.8716
42.7154
44.6189
46.583
48.6092
50.6987
52.8527
55.0722
57.3583
59.712
62.1342
64.6258
67.1875
69.8199
72.5235
75.2989
78.1463
81.0658
84.0573
87.1206
90.2554
93.461
96.7365
100.081
103.493
106.971
110.513
114.118
117.782
121.504
125.28
129.107
132.982
136.902
140.862
144.858
148.885
152.941
157.018
161.114
165.222
169.338
173.456
177.57
181.675
185.764
189.831
193.868
197.868
201.825
205.73
209.577
213.36
217.072
220.705
224.255
227.713
231.075
234.334
237.485
240.521
243.439
246.232
248.897
251.428
253.823
256.078
258.189
260.154
261.97
263.634
265.144
266.499
267.697
268.737
269.618
270.341
270.905
271.312
271.548
271.615
271.519
271.268
270.862
270.303
269.592
268.731
267.721
266.566
265.267
263.827
262.249
260.535
258.688
256.71
254.604
252.373
250.02
247.547
244.957
242.254
239.439
236.517
233.49
230.362
227.136
223.818
220.412
216.926
213.368
209.752
206.096
202.421
198.735
195.034
191.316
187.584
183.842
180.097
176.36
172.637
168.941
165.284
161.676
158.131
154.667
151.309
148.092
145.087
142.34
139.717
7.89964
3.60397
2.88677
2.73416
2.76055
2.88257
3.06655
3.29753
3.56731
3.87052
4.20305
4.56165
4.94371
5.34736
5.77142
6.21544
6.67959
7.16453
7.67131
8.2012
8.75552
9.33561
9.94264
10.5777
11.2419
11.9363
12.6621
13.421
14.2149
15.0462
15.9171
16.8298
17.7859
18.7867
19.8329
20.9247
22.0623
23.2463
24.4784
25.7597
27.0912
28.4736
29.9081
31.3963
32.9394
34.539
36.1967
37.914
39.6924
41.5336
43.4389
45.41
47.4485
49.5559
51.7338
53.9839
56.3075
58.7063
61.1815
63.7345
66.3665
69.0787
71.8721
74.7477
77.706
80.7478
83.8734
87.083
90.3766
93.7539
97.2145
100.758
104.382
108.087
111.87
115.73
119.664
123.67
127.744
131.885
136.087
140.348
144.662
149.027
153.436
157.885
162.368
166.879
171.414
175.966
180.528
185.094
189.657
194.21
198.745
203.254
207.729
212.162
216.545
220.87
225.129
229.315
233.419
237.434
241.352
245.167
248.87
252.455
255.916
259.245
262.437
265.487
268.389
271.139
273.731
276.162
278.428
280.527
282.455
284.21
285.789
287.191
288.414
289.458
290.322
291.006
291.511
291.83
291.957
291.904
291.674
291.268
290.688
289.937
289.016
287.93
286.68
285.269
283.702
281.982
280.111
278.095
275.936
273.638
271.204
268.639
265.946
263.128
260.19
257.135
253.967
250.689
247.307
243.823
240.243
236.572
232.816
228.981
225.077
221.114
217.108
213.074
209.021
204.951
200.867
196.774
192.677
188.587
184.512
180.462
176.448
172.484
168.581
164.754
161.022
157.411
153.954
150.708
147.696
144.753
8.96128
4.08233
3.23827
3.03966
3.04132
3.14782
3.31988
3.54008
3.7992
4.09152
4.41303
4.76068
5.13212
5.52566
5.94019
6.37525
6.83087
7.30758
7.80626
8.32812
8.87453
9.44696
10.0469
10.6758
11.3352
12.0265
12.7514
13.5115
14.3084
15.1439
16.0196
16.9372
17.8982
18.9039
19.9554
21.0537
22.2004
23.3965
24.6433
25.9423
27.2947
28.7021
30.166
31.6882
33.2704
34.9144
36.6221
38.3955
40.2364
42.1468
44.1287
46.1842
48.3153
50.524
52.8124
55.1825
57.6364
60.1759
62.8029
65.5193
68.3268
71.2268
74.2209
77.3104
80.4963
83.7795
87.1608
90.6405
94.2188
97.8957
101.671
105.543
109.512
113.575
117.732
121.979
126.315
130.736
135.24
139.821
144.477
149.203
153.994
158.844
163.748
168.7
173.693
178.721
183.777
188.854
193.944
199.039
204.13
209.21
214.268
219.296
224.285
229.226
234.108
238.923
243.663
248.317
252.877
257.334
261.679
265.904
270.001
273.961
277.777
281.442
284.949
288.291
291.462
294.457
297.271
299.9
302.34
304.586
306.637
308.489
310.141
311.59
312.835
313.875
314.711
315.343
315.77
315.979
315.986
315.788
315.391
314.797
314.009
313.03
311.862
310.51
308.977
307.269
305.388
303.341
301.132
298.764
296.244
293.576
290.764
287.814
284.73
281.517
278.18
274.723
271.151
267.469
263.682
259.795
255.813
251.741
247.586
243.356
239.058
234.703
230.304
225.873
221.42
216.951
212.47
207.986
203.506
199.039
194.596
190.188
185.826
181.524
177.294
173.154
169.122
165.223
161.488
157.963
154.65
151.364
9.85827
4.49397
3.537
3.29278
3.27131
3.36101
3.51969
3.72757
3.97441
4.25414
4.56275
4.89736
5.25587
5.63678
6.03916
6.46263
6.90727
7.37354
7.86194
8.37385
8.9107
9.47404
10.0655
10.6866
11.3391
12.0248
12.7455
13.5031
14.2983
15.1329
16.0086
16.9269
17.8894
18.8976
19.9533
21.0582
22.2146
23.4235
24.6866
26.0054
27.3815
28.8168
30.3137
31.8744
33.5012
35.1963
36.962
38.8008
40.7149
42.707
44.7794
46.9348
49.1758
51.5049
53.9247
56.4379
59.0469
61.7544
64.5626
67.4739
70.4904
73.6144
76.8476
80.1917
83.6481
87.2182
90.9028
94.7027
98.618
102.649
106.795
111.055
115.428
119.913
124.507
129.207
134.012
138.917
143.919
149.012
154.193
159.455
164.794
170.202
175.673
181.2
186.775
192.391
198.039
203.71
209.395
215.085
220.77
226.44
232.084
237.692
243.254
248.758
254.195
259.552
264.821
269.991
275.051
279.991
284.802
289.473
293.995
298.36
302.558
306.581
310.422
314.073
317.527
320.779
323.822
326.653
329.267
331.659
333.828
335.77
337.482
338.964
340.215
341.233
342.019
342.574
342.89
342.971
342.823
342.448
341.849
341.03
339.995
338.747
337.29
335.629
333.77
331.718
329.479
327.059
324.463
321.698
318.77
315.684
312.448
309.067
305.546
301.893
298.113
294.211
290.193
286.066
281.834
277.504
273.081
268.571
263.982
259.32
254.594
249.813
244.989
240.133
235.255
230.363
225.465
220.568
215.682
210.818
205.986
201.197
196.466
191.804
187.228
182.752
178.396
174.184
170.144
166.313
162.677
159.037
10.5826
4.83359
3.77921
3.49252
3.44838
3.52089
3.66518
3.85961
4.09303
4.35903
4.65356
4.97387
5.31807
5.68478
6.0731
6.4831
6.91522
7.37043
7.84939
8.35258
8.88111
9.43644
10.0201
10.6339
11.2793
11.9583
12.6724
13.4234
14.213
15.0432
15.9157
16.8323
17.7947
18.8049
19.8648
20.9761
22.141
23.3616
24.64
25.9783
27.379
28.8464
30.381
31.986
33.6645
35.4193
37.2531
39.1689
41.1696
43.2582
45.4379
47.7119
50.0833
52.5553
55.1312
57.8142
60.6075
63.5141
66.537
69.6791
72.9431
76.3316
79.8468
83.4909
87.2657
91.1725
95.2127
99.3869
103.695
108.138
112.715
117.425
122.266
127.236
132.334
137.555
142.896
148.353
153.921
159.595
165.369
171.236
177.19
183.224
189.328
195.495
201.715
207.98
214.279
220.603
226.94
233.28
239.61
245.921
252.198
258.431
264.608
270.715
276.742
282.676
288.505
294.217
299.802
305.246
310.54
315.673
320.633
325.41
329.996
334.38
338.555
342.512
346.243
349.743
353.005
356.023
358.794
361.314
363.579
365.586
367.334
368.821
370.046
371.009
371.711
372.151
372.325
372.239
371.896
371.301
370.457
369.369
368.041
366.478
364.686
362.671
360.439
357.997
355.352
352.511
349.482
346.273
342.891
339.344
335.638
331.783
327.785
323.651
319.388
315.003
310.504
305.896
301.186
296.381
291.487
286.511
281.458
276.338
271.158
265.926
260.655
255.354
250.034
244.705
239.373
234.05
228.745
223.47
218.235
213.053
207.938
202.904
197.966
193.139
188.444
183.903
179.539
175.384
171.413
167.419
11.1339
5.10009
3.96524
3.6405
3.57456
3.62978
3.75911
3.93936
4.15865
4.41028
4.69004
4.99536
5.32503
5.67874
6.05534
6.45417
6.87519
7.31867
7.78485
8.27508
8.79097
9.33409
9.90602
10.5085
11.1432
11.8119
12.5167
13.2593
14.0418
14.8662
15.7346
16.6491
17.6119
18.6253
19.6916
20.813
21.9923
23.2319
24.5346
25.903
27.3397
28.8457
30.4257
32.0844
33.8261
35.654
37.5714
39.5817
41.6884
43.8952
46.206
48.6246
51.1549
53.8007
56.566
59.4547
62.4706
65.6173
68.8984
72.3175
75.8776
79.5819
83.4329
87.433
91.5844
95.8885
100.347
104.96
109.728
114.65
119.727
124.956
130.336
135.863
141.535
147.348
153.297
159.377
165.582
171.905
178.34
184.879
191.514
198.234
205.032
211.897
218.818
225.784
232.784
239.806
246.838
253.867
260.88
267.863
274.804
281.687
288.501
295.23
301.863
308.384
314.781
321.04
327.15
333.096
338.867
344.451
349.837
355.012
359.968
364.692
369.177
373.413
377.394
381.11
384.557
387.728
390.62
393.228
395.548
397.579
399.319
400.767
401.921
402.782
403.351
403.628
403.614
403.311
402.721
401.854
400.714
399.306
397.634
395.705
393.527
391.106
388.451
385.57
382.47
379.162
375.654
371.955
368.075
364.022
359.807
355.438
350.924
346.273
341.494
336.594
331.582
326.465
321.25
315.945
310.557
305.091
299.556
293.959
288.307
282.61
276.878
271.121
265.349
259.573
253.802
248.046
242.316
236.623
230.98
225.399
219.895
214.482
209.175
203.991
198.948
194.068
189.371
184.883
180.571
176.227
11.5214
5.29666
4.09833
3.74058
3.65416
3.69244
3.80666
3.97243
4.17724
4.41481
4.68192
4.97513
5.2923
5.63177
5.99259
6.37544
6.78073
7.209
7.66117
8.13867
8.64258
9.17431
9.73543
10.3277
10.9529
11.6131
12.3104
13.0468
13.8246
14.6463
15.5141
16.4306
17.3985
18.4205
19.4994
20.638
21.8393
23.1066
24.4439
25.8533
27.3374
28.8965
30.5395
32.2714
34.0965
36.0202
38.0467
40.1797
42.4235
44.7823
47.2609
49.8637
52.5955
55.4608
58.4643
61.6104
64.9038
68.3486
71.9489
75.7087
79.6316
83.7208
87.9792
92.4094
97.0134
101.793
106.748
111.881
117.19
122.674
128.333
134.164
140.165
146.331
152.658
159.141
165.775
172.553
179.467
186.51
193.673
200.946
208.32
215.784
223.326
230.936
238.6
246.306
254.041
261.79
269.541
277.279
284.988
292.654
300.262
307.797
315.243
322.586
329.81
336.901
343.845
350.626
357.231
363.647
369.859
375.856
381.624
387.152
392.429
397.443
402.186
406.648
410.821
414.697
418.27
421.534
424.485
427.119
429.433
431.425
433.093
434.437
435.457
436.153
436.527
436.58
436.317
435.729
434.832
433.633
432.137
430.348
428.274
425.923
423.304
420.424
417.293
413.921
410.318
406.494
402.461
398.229
393.809
389.212
384.449
379.53
374.467
369.268
363.944
358.503
352.955
347.307
341.567
335.745
329.846
323.878
317.849
311.764
305.633
299.464
293.266
287.05
280.825
274.603
268.393
262.205
256.052
249.944
243.895
237.918
232.027
226.236
220.562
215.021
209.63
204.409
199.376
194.553
189.902
185.22
11.7598
5.42981
4.18366
3.79811
3.69294
3.71509
3.81478
3.96777
4.16091
4.38628
4.63876
4.91586
5.21656
5.54017
5.88675
6.25608
6.64842
7.06438
7.50489
7.97114
8.46447
8.98641
9.53867
10.1231
10.7418
11.3969
12.0908
12.8259
13.6051
14.4308
15.306
16.2336
17.2169
18.2592
19.3647
20.5357
21.7757
23.0878
24.4742
25.9388
27.4885
29.1299
30.8681
32.7084
34.6559
36.7165
38.8959
41.1988
43.6303
46.1957
48.9006
51.7502
54.7501
57.9054
61.2215
64.7035
68.3564
72.1847
76.1931
80.3855
84.7658
89.3371
94.1023
99.0636
104.223
109.58
115.137
120.893
126.846
132.995
139.337
145.868
152.585
159.483
166.555
173.794
181.194
188.746
196.441
204.269
212.219
220.281
228.442
236.691
245.013
253.396
261.825
270.286
278.763
287.242
295.707
304.141
312.529
320.854
329.1
337.251
345.289
353.198
360.964
368.569
375.998
383.237
390.269
397.082
403.661
409.992
416.062
421.861
427.375
432.594
437.507
442.107
446.383
450.329
453.939
457.206
460.128
462.7
464.919
466.785
468.296
469.452
470.253
470.702
470.801
470.557
469.956
469.012
467.736
466.134
464.211
461.976
459.436
456.601
453.481
450.085
446.425
442.511
438.356
433.971
429.369
424.562
419.564
414.387
409.044
403.546
397.907
392.136
386.246
380.245
374.144
367.951
361.677
355.328
348.912
342.438
335.911
329.34
322.731
316.093
309.434
302.766
296.097
289.438
282.799
276.191
269.626
263.115
256.671
250.308
244.04
237.883
231.851
225.961
220.229
214.674
209.31
204.157
199.176
194.171
11.8442
5.49924
4.22458
3.81814
3.69742
3.70721
3.79523
3.93496
4.11299
4.32299
4.56109
4.82504
5.11321
5.42484
5.7597
6.1179
6.49984
6.90625
7.33814
7.79681
8.2838
8.80088
9.34997
9.93316
10.5528
11.2114
11.9117
12.657
13.4508
14.2959
15.1953
16.1526
17.1714
18.2548
19.4043
20.6255
21.9245
23.3068
24.7788
26.3458
28.0136
29.7887
31.6772
33.6855
35.8199
38.0878
40.4945
43.0465
45.7503
48.6125
51.6394
54.8373
58.2119
61.7692
65.5147
69.4538
73.5915
77.9325
82.4812
87.2413
92.216
97.408
102.819
108.451
114.304
120.377
126.67
133.181
139.907
146.845
153.99
161.336
168.877
176.607
184.517
192.599
200.842
209.237
217.772
226.435
235.215
244.097
253.068
262.113
271.219
280.368
289.546
298.737
307.923
317.089
326.217
335.29
344.29
353.201
362.005
370.684
379.221
387.6
395.803
403.815
411.618
419.198
426.54
433.628
440.449
446.989
453.235
459.175
464.798
470.092
475.047
479.656
483.908
487.798
491.32
494.468
497.239
499.63
501.639
503.265
504.508
505.368
505.844
505.945
505.68
505.027
504
502.613
500.874
498.787
496.362
493.607
490.532
487.148
483.465
479.496
475.252
470.746
465.992
461.003
455.793
450.376
444.768
438.982
433.033
426.935
420.701
414.344
407.875
401.306
394.647
387.907
381.096
374.223
367.296
360.322
353.308
346.261
339.187
332.095
324.993
317.891
310.797
303.722
296.675
289.668
282.712
275.819
269.001
262.273
255.649
249.144
242.773
236.551
230.494
224.619
218.937
213.469
208.173
202.868
11.8233
5.51203
4.22741
3.81024
3.67863
3.67519
3.74879
3.8751
4.04143
4.2405
4.46821
4.72223
5.00121
5.30456
5.63216
5.98426
6.36144
6.76461
7.19503
7.65427
8.14429
8.66757
9.22636
9.82281
10.4597
11.1401
11.8671
12.6436
13.4717
14.3549
15.2992
16.3097
17.3913
18.5497
19.7913
21.121
22.5449
24.0698
25.7029
27.4515
29.3224
31.323
33.4608
35.7433
38.178
40.773
43.5352
46.4725
49.5927
52.9038
56.4134
60.1276
64.0521
68.1923
72.5533
77.1399
81.9564
87.0065
92.2932
97.819
103.585
109.593
115.843
122.333
129.062
136.028
143.226
150.653
158.302
166.169
174.246
182.524
190.995
199.65
208.477
217.466
226.605
235.88
245.279
254.788
264.393
274.077
283.827
293.626
303.457
313.305
323.152
332.981
342.774
352.514
362.184
371.765
381.24
390.591
399.8
408.85
417.723
426.402
434.87
443.112
451.11
458.851
466.318
473.498
480.377
486.941
493.179
499.078
504.628
509.818
514.638
519.081
523.139
526.806
530.075
532.944
535.409
537.468
539.12
540.364
541.202
541.635
541.657
541.31
540.534
539.366
537.814
535.885
533.588
530.929
527.917
524.565
520.882
516.881
512.575
507.975
503.097
497.953
492.558
486.928
481.079
475.025
468.783
462.37
455.801
449.092
442.257
435.31
428.264
421.13
413.92
406.644
399.311
391.93
384.51
377.057
369.578
362.079
354.568
347.051
339.535
332.03
324.543
317.085
309.664
302.291
294.977
287.735
280.576
273.515
266.565
259.741
253.058
246.531
240.174
234.002
228.026
222.265
216.675
211.098
11.7463
5.49758
4.2091
3.77989
3.63508
3.62108
3.68528
3.80303
3.96154
4.15386
4.37602
4.62586
4.90231
5.20514
5.53496
5.89196
6.27686
6.69099
7.13599
7.61378
8.12628
8.67507
9.26165
9.89092
10.5671
11.2944
12.0774
12.9209
13.8311
14.813
15.8722
17.0152
18.2489
19.5806
21.0184
22.5697
24.2425
26.0456
27.9876
30.0776
32.3243
34.7366
37.3233
40.0928
43.0533
46.2112
49.5758
53.1568
56.9632
61.0053
65.2934
69.8294
74.6163
79.6569
84.954
90.5099
96.3258
102.403
108.74
115.337
122.192
129.302
136.663
144.271
152.12
160.204
168.516
177.047
185.789
194.733
203.867
213.182
222.666
232.305
242.088
252
262.028
272.158
282.374
292.662
303.005
313.388
323.794
334.208
344.612
354.988
365.321
375.593
385.786
395.884
405.868
415.722
425.427
434.968
444.326
453.485
462.429
471.14
479.604
487.804
495.725
503.354
510.676
517.677
524.346
530.67
536.637
542.236
547.459
552.295
556.737
560.775
564.405
567.621
570.418
572.794
574.747
576.274
577.378
578.053
578.309
578.148
577.575
576.569
575.156
573.34
571.13
568.534
565.561
562.218
558.519
554.474
550.096
545.398
540.394
535.098
529.525
523.69
517.609
511.298
504.774
498.054
491.156
484.097
476.896
469.567
462.129
454.594
446.977
439.29
431.543
423.748
415.914
408.049
400.162
392.26
384.348
376.433
368.519
360.614
352.724
344.856
337.017
329.216
321.463
313.765
306.136
298.585
291.125
283.769
276.531
269.425
262.465
255.665
249.039
242.6
236.357
230.328
224.472
218.656
11.5836
5.45641
4.16795
3.73213
3.58249
3.56511
3.62707
3.74436
3.90487
4.10173
4.33101
4.59084
4.88032
5.19908
5.54655
5.92367
6.333
6.77696
7.25824
7.77993
8.34564
8.95989
9.62747
10.3529
11.1419
12.0004
12.9355
13.9546
15.0661
16.278
17.599
19.0383
20.6057
22.3114
24.1663
26.181
28.3664
30.7335
33.2933
36.0565
39.0332
42.2334
45.6664
49.3409
53.2646
57.4444
61.8874
66.6013
71.5926
76.8684
82.4351
88.2885
94.4255
100.843
107.538
114.507
121.745
129.247
137.007
145.017
153.27
161.759
170.474
179.406
188.545
197.881
207.402
217.098
226.957
236.966
247.114
257.386
267.77
278.253
288.821
299.459
310.153
320.89
331.653
342.429
353.203
363.958
374.681
385.355
395.964
406.494
416.928
427.251
437.446
447.498
457.392
467.111
476.64
485.963
495.066
503.932
512.547
520.896
528.965
536.74
544.207
551.354
558.168
564.638
570.752
576.499
581.869
586.853
591.443
595.631
599.408
602.768
605.708
608.222
610.305
611.962
613.185
613.974
614.338
614.258
613.785
612.842
611.491
609.722
607.541
604.957
601.98
598.618
594.879
590.774
586.316
581.519
576.394
570.956
565.22
559.202
552.915
546.378
539.606
532.617
525.428
518.058
510.525
502.848
495.046
487.136
479.134
471.058
462.919
454.731
446.504
438.249
429.975
421.69
413.402
405.117
396.84
388.577
380.331
372.109
363.915
355.756
347.637
339.565
331.548
323.596
315.718
307.924
300.227
292.64
285.174
277.843
270.661
263.641
256.796
250.138
243.673
237.42
231.337
225.328
11.4028
5.38352
4.11315
3.6855
3.5425
3.53348
3.6062
3.73626
3.9109
4.12324
4.37152
4.65495
4.97371
5.3289
5.72287
6.15788
6.63713
7.16468
7.74535
8.38469
9.08909
9.86604
10.7237
11.6703
12.7152
13.8685
15.1416
16.5467
18.0966
19.8046
21.6842
23.749
26.0132
28.491
31.1964
34.143
37.3432
40.809
44.5517
48.5812
52.9053
57.5303
62.4614
67.7033
73.2584
79.1263
85.3067
91.8021
98.6101
105.735
113.153
120.853
128.823
137.052
145.528
154.238
163.172
172.316
181.658
191.187
200.889
210.753
220.767
230.919
241.196
251.587
262.08
272.664
283.326
294.055
304.839
315.667
326.525
337.404
348.29
359.171
370.037
380.874
391.67
402.413
413.091
423.691
434.201
444.607
454.897
465.058
475.076
484.939
494.633
504.145
513.462
522.57
531.456
540.106
548.509
556.65
564.516
572.096
579.376
586.345
592.99
599.301
605.266
610.878
616.124
620.995
625.483
629.579
633.279