/*--------------------------------*- C++ -*----------------------------------*\
  =========                 |
  \\      /  F ield         | OpenFOAM: The Open Source CFD Toolbox
   \\    /   O peration     | Website:  https://openfoam.org
    \\  /    A nd           | Version:  8
     \\/     M anipulation  |
\*---------------------------------------------------------------------------*/
FoamFile
{
    version     2.0;
    format      ascii;
    class       volScalarField;
    location    "235";
    object      k;
}
// * * * * * * * * * * * * * * * * * * * * * * * * * * * * * * * * * * * * * //

dimensions      [0 2 -2 0 0 0 0];

internalField   nonuniform List<scalar> 
12225
(
0.362827
0.343993
0.327749
0.309814
0.295407
0.283473
0.275523
0.270281
0.270339
0.271891
0.276038
0.280774
0.289821
0.295874
0.306598
0.31356
0.325539
0.330264
0.44027
0.468738
0.461615
0.448372
0.450345
0.458317
0.474566
0.498504
0.524421
0.55208
0.580767
0.606123
0.633864
0.653824
0.679782
0.693042
0.718101
0.724784
0.390406
0.41786
0.420244
0.416831
0.411633
0.407803
0.408019
0.410037
0.414567
0.421381
0.430733
0.439702
0.451184
0.461138
0.472847
0.48353
0.493534
0.505939
0.377043
0.387169
0.391466
0.391343
0.39026
0.387883
0.385661
0.384079
0.382884
0.382897
0.383356
0.384379
0.386276
0.388461
0.39091
0.394242
0.396543
0.400973
0.374434
0.376094
0.378427
0.378665
0.378275
0.377201
0.375488
0.373737
0.37201
0.370455
0.369256
0.368109
0.36738
0.366804
0.366443
0.366335
0.366354
0.366702
0.373779
0.372704
0.372659
0.372365
0.371772
0.370818
0.369554
0.368082
0.366571
0.364976
0.363528
0.362063
0.360755
0.359529
0.358397
0.357427
0.356439
0.355783
0.373775
0.37174
0.370388
0.369284
0.368235
0.367114
0.365915
0.364587
0.363238
0.361808
0.360422
0.359024
0.357678
0.356383
0.355121
0.353967
0.352794
0.351804
0.373818
0.371559
0.369635
0.367976
0.366501
0.365108
0.363775
0.362429
0.361108
0.359766
0.358451
0.357144
0.355864
0.354623
0.353402
0.352251
0.351099
0.350053
0.373832
0.371553
0.369449
0.367525
0.365776
0.364153
0.362645
0.361199
0.359817
0.358473
0.35717
0.355903
0.354668
0.353476
0.352308
0.351197
0.350098
0.349073
0.373831
0.37156
0.369418
0.367405
0.365529
0.363772
0.362133
0.360585
0.359122
0.357728
0.356395
0.355118
0.353889
0.352711
0.35157
0.350482
0.34942
0.348421
0.373829
0.37156
0.369413
0.367378
0.365458
0.363645
0.361937
0.360324
0.358799
0.357353
0.355979
0.354673
0.353425
0.352236
0.351095
0.350009
0.34896
0.347969
0.373828
0.371558
0.369409
0.36737
0.365439
0.363609
0.361875
0.360234
0.358677
0.357202
0.3558
0.354468
0.3532
0.351995
0.350842
0.349748
0.348695
0.347701
0.373827
0.371556
0.369405
0.367365
0.36543
0.363593
0.361851
0.360197
0.358626
0.357134
0.355716
0.354368
0.353084
0.351865
0.3507
0.349594
0.348535
0.347532
0.373826
0.371555
0.369401
0.367359
0.365422
0.363583
0.361837
0.360178
0.3586
0.357101
0.355674
0.354317
0.353024
0.351795
0.350622
0.349506
0.34844
0.347427
0.373826
0.371553
0.369398
0.367355
0.365416
0.363575
0.361826
0.360164
0.358584
0.357081
0.355651
0.354289
0.352993
0.351758
0.35058
0.349458
0.348388
0.347368
0.373826
0.371552
0.369396
0.367351
0.36541
0.363567
0.361817
0.360153
0.358571
0.357067
0.355634
0.35427
0.352971
0.351734
0.350554
0.349429
0.348356
0.347333
0.373825
0.371551
0.369394
0.367348
0.365406
0.363562
0.36181
0.360145
0.358561
0.357055
0.355621
0.354256
0.352955
0.351716
0.350534
0.349408
0.348333
0.347308
0.373825
0.371551
0.369393
0.367346
0.365403
0.363558
0.361805
0.360139
0.358555
0.357047
0.355612
0.354245
0.352943
0.351703
0.35052
0.349392
0.348316
0.34729
0.373825
0.37155
0.369393
0.367345
0.365402
0.363557
0.361804
0.360137
0.358552
0.357043
0.355608
0.35424
0.352938
0.351696
0.350513
0.349384
0.348308
0.34728
0.373825
0.371551
0.369393
0.367347
0.365404
0.363559
0.361806
0.360139
0.358555
0.357047
0.355611
0.354244
0.352941
0.3517
0.350517
0.349388
0.348312
0.347284
0.373825
0.371551
0.369395
0.367349
0.365407
0.363563
0.361811
0.360146
0.358562
0.357055
0.355621
0.354255
0.352955
0.351715
0.350534
0.349407
0.348333
0.347307
0.373826
0.371552
0.369397
0.367352
0.365412
0.363571
0.361822
0.360161
0.358583
0.357083
0.355656
0.354298
0.353006
0.351775
0.350602
0.349483
0.348417
0.347398
0.373826
0.371554
0.369399
0.367359
0.365428
0.363602
0.361875
0.36024
0.35869
0.35722
0.355823
0.354493
0.353227
0.352018
0.350866
0.349763
0.348711
0.3477
0.373828
0.371551
0.369412
0.367417
0.365556
0.363819
0.362189
0.360651
0.359189
0.357793
0.356456
0.355171
0.353936
0.352745
0.3516
0.350495
0.349436
0.34841
0.373823
0.371554
0.369604
0.367893
0.366339
0.364892
0.363495
0.362122
0.360761
0.359413
0.358081
0.35677
0.355488
0.354238
0.353029
0.351855
0.350734
0.349645
0.373781
0.37199
0.371113
0.370265
0.36936
0.368311
0.367048
0.36563
0.36412
0.362575
0.36103
0.359522
0.358073
0.356682
0.355381
0.354141
0.353009
0.351924
0.374297
0.375564
0.377778
0.377858
0.377291
0.375885
0.373835
0.371641
0.369505
0.367482
0.365664
0.364084
0.36271
0.361535
0.36061
0.359818
0.359289
0.358801
0.378732
0.394394
0.398293
0.396565
0.392558
0.387608
0.383641
0.380455
0.378266
0.376852
0.376497
0.37675
0.377399
0.378698
0.380443
0.382423
0.384827
0.387138
0.408344
0.427539
0.422424
0.411051
0.402227
0.397924
0.398557
0.401117
0.405986
0.41304
0.420997
0.42983
0.438837
0.448193
0.457308
0.466556
0.475324
0.484184
0.366033
0.353412
0.341988
0.33021
0.318982
0.308382
0.299409
0.291674
0.285403
0.280333
0.276682
0.273867
0.27231
0.271184
0.271176
0.271522
0.272155
0.273386
0.000859383
0.00465048
0.00852113
0.0120591
0.0157295
0.0198249
0.0244715
0.0297445
0.0356066
0.0419416
0.0485926
0.0554055
0.0622335
0.0689507
0.075437
0.0815887
0.0873055
0.0925103
0.0971419
0.101186
0.104674
0.107715
0.109953
0.111909
0.114934
0.11806
0.121921
0.125485
0.132345
0.137402
0.142091
0.146101
0.14913
0.150835
0.150503
0.147156
0.140867
0.144995
0.151795
0.155985
0.150791
0.160757
0.167699
0.175398
0.183311
0.191313
0.199553
0.207919
0.216471
0.225175
0.234046
0.243076
0.252268
0.261621
0.271134
0.280807
0.290638
0.300626
0.310769
0.321066
0.331512
0.342106
0.352843
0.363721
0.374732
0.385875
0.39714
0.408525
0.42002
0.431622
0.443319
0.455108
0.466974
0.478916
0.490917
0.502974
0.515071
0.527203
0.539353
0.551517
0.563675
0.575824
0.587944
0.60003
0.61206
0.624029
0.635914
0.647708
0.659387
0.670941
0.682346
0.69358
0.70462
0.715443
0.726028
0.736367
0.746479
0.756454
0.766151
0.775629
0.784858
0.79384
0.802561
0.811012
0.819182
0.827065
0.834648
0.841928
0.848893
0.85554
0.861859
0.867847
0.873495
0.878801
0.883758
0.888365
0.892613
0.896504
0.900034
0.903207
0.906013
0.908453
0.910514
0.912202
0.913503
0.914415
0.914886
0.914743
0.914786
0.914695
0.913799
0.912606
0.910895
0.908827
0.906442
0.90371
0.900694
0.897327
0.893629
0.889608
0.885271
0.880652
0.875714
0.870457
0.864884
0.858996
0.852798
0.846291
0.839478
0.832361
0.824943
0.817226
0.809213
0.800907
0.792314
0.783438
0.77429
0.764878
0.755224
0.745372
0.735543
0.727716
0.722634
0.717707
0.712611
0.707309
0.701813
0.696133
0.690288
0.684293
0.678163
0.671902
0.665518
0.659
0.652273
0.645271
0.637893
0.629618
0.620463
0.589792
0.00417246
0.015711
0.0233443
0.0291227
0.0343127
0.0395037
0.0450304
0.0510322
0.0575124
0.0643919
0.0715524
0.0788685
0.0862199
0.093499
0.100607
0.107456
0.113967
0.120077
0.125746
0.130966
0.135772
0.140254
0.144543
0.148943
0.153838
0.159487
0.166133
0.173511
0.180905
0.188268
0.195648
0.20304
0.210222
0.217146
0.223466
0.229647
0.238021
0.250117
0.263959
0.280015
0.290904
0.303255
0.315732
0.328746
0.342126
0.35585
0.369907
0.384281
0.398974
0.413982
0.429306
0.444947
0.460905
0.477183
0.493782
0.510703
0.527946
0.545514
0.563404
0.581616
0.600149
0.619002
0.63817
0.657652
0.67744
0.697533
0.717921
0.738599
0.759558
0.780791
0.802286
0.824034
0.846022
0.868238
0.890668
0.913299
0.936113
0.959096
0.982229
1.0055
1.02888
1.05235
1.0759
1.0995
1.12313
1.14677
1.17039
1.19397
1.21748
1.24089
1.26418
1.2873
1.31023
1.33291
1.35531
1.37737
1.39901
1.42015
1.44097
1.46146
1.48161
1.50139
1.52078
1.53976
1.55831
1.57642
1.59405
1.6112
1.62784
1.64397
1.65956
1.6746
1.68907
1.70297
1.71628
1.72898
1.74108
1.75256
1.76341
1.77363
1.78321
1.79214
1.80041
1.80801
1.81494
1.82119
1.82676
1.83165
1.83597
1.83967
1.84264
1.84499
1.84641
1.84708
1.84715
1.84652
1.84536
1.84354
1.84105
1.83791
1.83411
1.82966
1.82456
1.81881
1.81239
1.80532
1.7976
1.78921
1.78017
1.77047
1.7601
1.74908
1.73739
1.72504
1.71204
1.69837
1.68406
1.66911
1.65354
1.63739
1.62079
1.60409
1.58732
1.57011
1.55239
1.53423
1.51567
1.49675
1.47754
1.45808
1.43842
1.41859
1.39863
1.37857
1.35829
1.33781
1.31706
1.29614
1.27503
1.22982
0.00869473
0.0265066
0.0365269
0.044022
0.050688
0.0571696
0.0637919
0.0707122
0.0779739
0.0855463
0.0933568
0.101318
0.109341
0.117346
0.125261
0.133024
0.140588
0.14792
0.155014
0.161899
0.16865
0.175402
0.182355
0.189765
0.197863
0.206779
0.216467
0.226691
0.237226
0.247838
0.258662
0.269726
0.281014
0.292562
0.304522
0.317509
0.331497
0.346798
0.362894
0.379346
0.395195
0.411435
0.428006
0.444999
0.4624
0.480202
0.498399
0.516986
0.535961
0.555324
0.575074
0.595211
0.615737
0.636653
0.657958
0.679654
0.701741
0.724217
0.747082
0.770334
0.79397
0.817987
0.842381
0.867146
0.892277
0.917767
0.943607
0.969789
0.996303
1.02314
1.05028
1.07772
1.10544
1.13342
1.16165
1.19012
1.21879
1.24766
1.2767
1.30589
1.33521
1.36463
1.39413
1.42368
1.45325
1.48282
1.51236
1.54183
1.57121
1.60047
1.62956
1.65846
1.68713
1.71554
1.74365
1.77143
1.79885
1.82589
1.85256
1.87882
1.90463
1.92998
1.95483
1.97915
2.00292
2.02611
2.04869
2.07065
2.09195
2.11257
2.1325
2.15172
2.1702
2.18793
2.2049
2.22109
2.23648
2.25107
2.26485
2.2778
2.28992
2.30119
2.31161
2.32116
2.32985
2.33767
2.34463
2.35072
2.35598
2.3604
2.36393
2.36658
2.36811
2.36869
2.36846
2.36744
2.3656
2.3629
2.35935
2.35496
2.34971
2.34363
2.3367
2.32893
2.32032
2.31087
2.30057
2.28944
2.27746
2.26465
2.25099
2.23648
2.22114
2.20495
2.18793
2.17008
2.1514
2.13192
2.11165
2.09066
2.06906
2.04707
2.02467
2.00171
1.97818
1.95412
1.92959
1.90465
1.87938
1.85384
1.82809
1.80219
1.7762
1.75016
1.72408
1.69802
1.67199
1.64626
1.6204
1.58006
0.0136625
0.0365148
0.0487581
0.0577216
0.0655242
0.0729413
0.0803499
0.0879423
0.0957986
0.103926
0.112288
0.120826
0.129476
0.13818
0.146885
0.155554
0.164161
0.172698
0.181181
0.189656
0.198206
0.206952
0.216048
0.225657
0.235908
0.246859
0.258487
0.27067
0.283285
0.296257
0.309623
0.323412
0.337645
0.352374
0.3677
0.383754
0.40052
0.417996
0.436033
0.454483
0.47319
0.492256
0.511701
0.531556
0.551836
0.572548
0.593694
0.615278
0.6373
0.659762
0.682665
0.706011
0.729802
0.75404
0.778725
0.803858
0.82944
0.855471
0.881949
0.908873
0.93624
0.964047
0.992291
1.02096
1.05006
1.07958
1.1095
1.13982
1.17053
1.20161
1.23306
1.26485
1.29697
1.32941
1.36214
1.39515
1.42841
1.4619
1.4956
1.52948
1.56351
1.59768
1.63194
1.66626
1.70063
1.735
1.76934
1.80362
1.8378
1.87185
1.90573
1.93941
1.97284
2.00599
2.03884
2.07133
2.10345
2.13516
2.16641
2.19719
2.22744
2.25714
2.28625
2.31474
2.34257
2.3697
2.39612
2.42178
2.44666
2.47073
2.49397
2.51636
2.53787
2.55847
2.57816
2.59692
2.61472
2.63156
2.64743
2.6623
2.67618
2.68905
2.7009
2.71172
2.7215
2.73025
2.73797
2.74467
2.75035
2.75501
2.75861
2.76114
2.7624
2.76262
2.76184
2.7601
2.75736
2.75362
2.74888
2.74314
2.73641
2.72869
2.71998
2.7103
2.69963
2.68799
2.67537
2.66178
2.64722
2.63169
2.61519
2.59772
2.57929
2.55989
2.53954
2.51823
2.49599
2.47284
2.44881
2.42397
2.39841
2.37228
2.34558
2.31826
2.29031
2.2618
2.23279
2.20335
2.17356
2.1435
2.11325
2.08287
2.05246
2.02207
1.9918
1.96174
1.93201
1.90294
1.87393
1.83589
0.0185467
0.0457691
0.0600421
0.0703578
0.0791812
0.0874035
0.0954625
0.103592
0.111911
0.120465
0.129252
0.138244
0.147402
0.156687
0.166067
0.175518
0.185031
0.194612
0.204284
0.214096
0.224116
0.234438
0.245167
0.256409
0.268246
0.280721
0.293836
0.307547
0.321804
0.336574
0.351855
0.367652
0.383974
0.400845
0.418298
0.43636
0.455024
0.474273
0.494059
0.514336
0.535057
0.55622
0.577829
0.599893
0.622423
0.645427
0.66891
0.692879
0.717336
0.742286
0.767733
0.793679
0.820128
0.847082
0.874545
0.902516
0.930999
0.959993
0.989499
1.01951
1.05004
1.08107
1.1126
1.14463
1.17715
1.21016
1.24364
1.27758
1.31198
1.34681
1.38208
1.41775
1.45381
1.49025
1.52703
1.56415
1.60157
1.63928
1.67723
1.71541
1.75378
1.79232
1.83098
1.86974
1.90856
1.94741
1.98624
2.02501
2.0637
2.10225
2.14063
2.17879
2.2167
2.25431
2.29159
2.32848
2.36495
2.40095
2.43644
2.47137
2.50572
2.53942
2.57245
2.60475
2.6363
2.66704
2.69696
2.726
2.75413
2.78133
2.80756
2.8328
2.85702
2.88019
2.9023
2.92332
2.94323
2.96203
2.97969
2.9962
3.01155
3.02573
3.03873
3.05054
3.06116
3.07058
3.07881
3.08586
3.09172
3.0964
3.09987
3.10204
3.10287
3.10254
3.10107
3.09846
3.0947
3.0898
3.08377
3.0766
3.06831
3.05891
3.04841
3.0368
3.0241
3.01031
2.99544
2.97949
2.96247
2.94438
2.92521
2.90498
2.88369
2.86135
2.83795
2.81353
2.78808
2.76165
2.73428
2.70602
2.67696
2.64721
2.61679
2.58569
2.55394
2.52159
2.48873
2.45542
2.42176
2.38784
2.35374
2.31955
2.28539
2.25134
2.21753
2.18412
2.1513
2.1194
2.08778
2.04998
0.0231517
0.0541054
0.0701965
0.0817485
0.0915049
0.100455
0.109089
0.11768
0.126381
0.135272
0.144384
0.153719
0.163262
0.172995
0.182901
0.192971
0.203205
0.213617
0.224232
0.235093
0.246256
0.257788
0.269763
0.282254
0.29532
0.308998
0.323301
0.338219
0.353735
0.369835
0.386509
0.403756
0.421575
0.439972
0.458951
0.478514
0.498658
0.519372
0.540639
0.562443
0.584766
0.607599
0.630942
0.654797
0.679171
0.70407
0.729501
0.75547
0.781984
0.809048
0.836668
0.864848
0.893595
0.92291
0.9528
0.983266
1.01431
1.04594
1.07815
1.11094
1.14432
1.17828
1.21281
1.24792
1.28359
1.31982
1.35661
1.39393
1.43179
1.47016
1.50903
1.54838
1.58819
1.62844
1.66912
1.71018
1.75161
1.79339
1.83546
1.87782
1.92041
1.96321
2.00618
2.04928
2.09247
2.1357
2.17894
2.22214
2.26525
2.30824
2.35105
2.39363
2.43595
2.47793
2.51955
2.56075
2.60147
2.64166
2.68128
2.72028
2.75861
2.79621
2.83304
2.86906
2.90421
2.93846
2.97176
3.00406
3.03533
3.06554
3.09464
3.1226
3.1494
3.175
3.19939
3.22253
3.24441
3.26501
3.28432
3.30231
3.31898
3.33432
3.34831
3.36095
3.37223
3.38216
3.39073
3.39796
3.40385
3.40838
3.41155
3.41322
3.41352
3.41248
3.41015
3.40654
3.40164
3.39546
3.38802
3.37933
3.36941
3.35825
3.34589
3.33232
3.31755
3.30161
3.28449
3.2662
3.24675
3.22615
3.20441
3.18152
3.1575
3.13235
3.10609
3.07873
3.0503
3.02082
2.99035
2.95894
2.92667
2.89362
2.85982
2.82531
2.79012
2.75432
2.71797
2.68119
2.64405
2.60666
2.56911
2.53152
2.49401
2.4567
2.41974
2.38335
2.34773
2.31322
2.27917
2.24077
0.0273399
0.061422
0.0790943
0.0917415
0.102333
0.111937
0.121087
0.130085
0.139112
0.148278
0.157641
0.167231
0.177057
0.187118
0.197413
0.207946
0.218724
0.229765
0.241094
0.25275
0.264774
0.277219
0.290138
0.303582
0.317595
0.332209
0.34744
0.363297
0.379775
0.396871
0.414578
0.432893
0.451811
0.471331
0.49145
0.512165
0.533475
0.555375
0.577859
0.600921
0.624554
0.648756
0.673526
0.698868
0.724785
0.751286
0.778377
0.806066
0.834361
0.863269
0.892798
0.922955
0.953746
0.985178
1.01726
1.04999
1.08337
1.11742
1.15213
1.1875
1.22354
1.26024
1.29761
1.33563
1.37431
1.41363
1.45359
1.49417
1.53537
1.57717
1.61955
1.66249
1.70598
1.74998
1.79448
1.83944
1.88484
1.93064
1.97681
2.02332
2.07011
2.11716
2.16442
2.21185
2.2594
2.30703
2.35468
2.4023
2.44985
2.49727
2.54451
2.59151
2.63822
2.68457
2.73052
2.776
2.82095
2.86532
2.90905
2.95208
2.99436
3.03583
3.07644
3.11613
3.15485
3.19254
3.22917
3.26468
3.29903
3.33218
3.36408
3.3947
3.424
3.45195
3.47853
3.5037
3.52745
3.54976
3.5706
3.58996
3.60784
3.62421
3.63906
3.6524
3.66422
3.67452
3.6833
3.69057
3.69633
3.70059
3.70328
3.70437
3.70398
3.70211
3.6988
3.69405
3.68789
3.68032
3.67137
3.66106
3.64941
3.63642
3.62213
3.60654
3.58967
3.57154
3.55215
3.53153
3.50968
3.48661
3.46233
3.43686
3.4102
3.38237
3.35337
3.32324
3.29199
3.25966
3.22629
3.19194
3.15668
3.12058
3.08368
3.04603
3.00769
2.96871
2.92919
2.88922
2.8489
2.80833
2.76764
2.72695
2.68638
2.64608
2.60625
2.56709
2.52887
2.49186
2.45544
2.41591
0.0310151
0.0676582
0.0866608
0.100243
0.111558
0.121733
0.131335
0.14069
0.149999
0.159392
0.168954
0.178733
0.188761
0.199055
0.209627
0.220491
0.231662
0.243159
0.25501
0.267245
0.2799
0.293014
0.306627
0.320778
0.3355
0.35082
0.366756
0.383318
0.400514
0.418342
0.436803
0.455896
0.475616
0.495963
0.516934
0.53853
0.560748
0.583589
0.607053
0.631138
0.655846
0.681176
0.707133
0.73372
0.760945
0.788816
0.817341
0.846529
0.876391
0.906936
0.938174
0.970113
1.00276
1.03613
1.07023
1.10506
1.14063
1.17694
1.21401
1.25184
1.29041
1.32975
1.36984
1.41068
1.45228
1.49461
1.53767
1.58145
1.62595
1.67113
1.71698
1.76349
1.81062
1.85836
1.90667
1.95552
2.00488
2.05472
2.10498
2.15565
2.20666
2.25797
2.30954
2.36132
2.41325
2.46528
2.51735
2.56942
2.62141
2.67327
2.72494
2.77636
2.82746
2.87818
2.92845
2.9782
3.02737
3.0759
3.12371
3.17075
3.21695
3.26225
3.30659
3.34991
3.39215
3.43325
3.47316
3.51182
3.54919
3.5852
3.61983
3.65303
3.68475
3.71497
3.74365
3.77076
3.79628
3.82018
3.84245
3.86308
3.88204
3.89932
3.91492
3.92884
3.94106
3.9516
3.96045
3.96763
3.97313
3.97698
3.97908
3.9795
3.97827
3.97543
3.971
3.965
3.95745
3.94839
3.93783
3.9258
3.91233
3.89744
3.88115
3.86349
3.84447
3.82413
3.80247
3.77951
3.75528
3.72978
3.70304
3.67506
3.64586
3.61545
3.58386
3.5511
3.51719
3.48218
3.4461
3.40901
3.37098
3.33205
3.2923
3.25178
3.21054
3.16866
3.12622
3.08333
3.04009
2.99663
2.95305
2.90951
2.86613
2.8231
2.7806
2.73887
2.69818
2.65876
2.62
2.57885
0.0341182
0.0727985
0.0928795
0.107227
0.119138
0.129795
0.139782
0.14944
0.158987
0.168568
0.178285
0.188204
0.198373
0.208825
0.219584
0.230672
0.24211
0.253921
0.26613
0.278765
0.291856
0.305434
0.319531
0.334177
0.349398
0.365218
0.381653
0.398716
0.416418
0.434764
0.453757
0.473399
0.493692
0.514636
0.536234
0.558488
0.5814
0.604974
0.629213
0.654121
0.679703
0.705964
0.73291
0.760549
0.788891
0.817945
0.847723
0.878237
0.909497
0.941517
0.974309
1.00788
1.04225
1.07742
1.11341
1.15023
1.18787
1.22636
1.2657
1.30589
1.34693
1.38884
1.43159
1.47521
1.51967
1.56498
1.61111
1.65807
1.70584
1.75439
1.80372
1.85378
1.90457
1.95604
2.00817
2.06093
2.11426
2.16814
2.22252
2.27736
2.33259
2.38818
2.44407
2.5002
2.55651
2.61295
2.66944
2.72594
2.78236
2.83865
2.89473
2.95054
3.006
3.06103
3.11558
3.16955
3.22289
3.27551
3.32734
3.37832
3.42838
3.47743
3.52543
3.57229
3.61796
3.66237
3.70546
3.74717
3.78744
3.82622
3.86347
3.89913
3.93316
3.96552
3.99618
4.02511
4.05227
4.07765
4.10122
4.12297
4.14288
4.16095
4.17716
4.19151
4.204
4.21463
4.22342
4.23036
4.23548
4.23876
4.24017
4.23978
4.23759
4.23364
4.22797
4.2206
4.21157
4.2009
4.18864
4.17481
4.15944
4.14257
4.12423
4.10445
4.08326
4.06069
4.03676
4.01149
3.98491
3.95704
3.9279
3.8975
3.86587
3.83302
3.79897
3.76374
3.72736
3.68985
3.65127
3.61165
3.57106
3.52956
3.48721
3.44406
3.40019
3.35566
3.31058
3.26504
3.21916
3.17305
3.12685
3.08071
3.03477
2.98922
2.94426
2.90015
2.85711
2.81537
2.77432
2.73135
0.0366232
0.0768649
0.09778
0.112723
0.125106
0.136145
0.146442
0.156347
0.166086
0.175817
0.18565
0.195668
0.205929
0.216479
0.227351
0.238574
0.250174
0.262176
0.274606
0.28749
0.300854
0.314723
0.329125
0.344083
0.359621
0.375759
0.392513
0.409899
0.427928
0.446609
0.465951
0.485959
0.506639
0.527997
0.550039
0.572771
0.5962
0.620332
0.645177
0.670741
0.697033
0.724063
0.751841
0.780378
0.809687
0.839781
0.870674
0.90238
0.934915
0.968292
1.00253
1.03763
1.07363
1.11052
1.14832
1.18705
1.22671
1.26732
1.30888
1.3514
1.39488
1.43932
1.48473
1.5311
1.57843
1.62671
1.67593
1.72607
1.77712
1.82906
1.88187
1.93551
1.98996
2.04519
2.10116
2.15783
2.21515
2.27308
2.33157
2.39058
2.45003
2.50988
2.57006
2.63052
2.69118
2.75198
2.81284
2.87371
2.9345
2.99513
3.05554
3.11565
3.17536
3.23462
3.29332
3.3514
3.40878
3.46536
3.52108
3.57586
3.62962
3.68228
3.73377
3.78402
3.83296
3.88051
3.92661
3.9712
4.01421
4.05559
4.09528
4.13323
4.1694
4.20373
4.2362
4.26677
4.29541
4.32209
4.34679
4.3695
4.3902
4.40888
4.42553
4.44016
4.45275
4.46333
4.47189
4.47845
4.48303
4.48562
4.48623
4.48488
4.48159
4.4764
4.46937
4.46052
4.4499
4.43754
4.42348
4.40777
4.39045
4.37155
4.35112
4.3292
4.30582
4.28103
4.25484
4.22731
4.19844
4.16827
4.13683
4.10413
4.0702
4.03505
3.99871
3.96119
3.92252
3.88273
3.84186
3.79995
3.75705
3.71323
3.66855
3.62306
3.57683
3.52995
3.4825
3.43459
3.38634
3.33787
3.28932
3.24084
3.1926
3.14477
3.09757
3.05125
3.00602
2.96209
2.91885
2.87402
0.0385293
0.0799096
0.101433
0.116812
0.129542
0.140867
0.151397
0.161486
0.171367
0.181204
0.191116
0.201192
0.211501
0.222096
0.233018
0.244304
0.255981
0.268078
0.280619
0.293628
0.307128
0.321145
0.3357
0.350816
0.366515
0.382814
0.399733
0.417286
0.435489
0.454354
0.473893
0.494116
0.515035
0.53666
0.559
0.582067
0.605872
0.630426
0.655741
0.681832
0.708711
0.736392
0.764888
0.794214
0.824386
0.855423
0.887341
0.920159
0.953894
0.988564
1.02419
1.06078
1.09835
1.13693
1.17653
1.21716
1.25883
1.30155
1.34534
1.39019
1.43613
1.48314
1.53122
1.58039
1.63062
1.68191
1.73424
1.78761
1.84198
1.89734
1.95366
2.01091
2.06905
2.12805
2.18786
2.24844
2.30974
2.37171
2.43429
2.49742
2.56104
2.62509
2.6895
2.7542
2.81911
2.88416
2.94927
3.01437
3.07938
3.1442
3.20877
3.27299
3.33678
3.40005
3.46271
3.52468
3.58586
3.64618
3.70555
3.76388
3.82109
3.87711
3.93184
3.98522
4.03717
4.0876
4.13646
4.18367
4.22916
4.27288
4.31476
4.35475
4.39281
4.42887
4.46291
4.49488
4.52476
4.55252
4.57813
4.60159
4.62286
4.64195
4.65885
4.67355
4.68607
4.6964
4.70457
4.71058
4.71447
4.71623
4.71589
4.71345
4.70891
4.70236
4.69386
4.68343
4.67112
4.65699
4.64107
4.62342
4.6041
4.58314
4.5606
4.53654
4.51099
4.484
4.45562
4.42587
4.39481
4.36245
4.32882
4.29396
4.25789
4.22062
4.18218
4.14258
4.10185
4.06002
4.01711
3.97316
3.92824
3.88239
3.83566
3.78813
3.73986
3.69093
3.64142
3.59146
3.54115
3.49062
3.44001
3.38948
3.3392
3.28936
3.24016
3.19183
3.1446
3.09863
3.05335
3.00676
0.0398685
0.0820251
0.103943
0.119611
0.132571
0.144086
0.154768
0.164976
0.174946
0.184843
0.194792
0.204889
0.215208
0.225807
0.236731
0.248018
0.2597
0.271806
0.28436
0.297386
0.310908
0.324948
0.33953
0.354675
0.370403
0.386735
0.403689
0.421285
0.439539
0.458468
0.478088
0.498415
0.519464
0.54125
0.563788
0.587093
0.61118
0.636067
0.661769
0.688308
0.7157
0.743964
0.773117
0.803179
0.834172
0.866116
0.899034
0.932946
0.967875
1.00384
1.04086
1.07896
1.11815
1.15846
1.19989
1.24247
1.28621
1.33112
1.37721
1.42448
1.47295
1.52261
1.57346
1.62549
1.67871
1.73308
1.78861
1.84526
1.90302
1.96185
2.02172
2.0826
2.14445
2.20722
2.27087
2.33534
2.40057
2.46651
2.5331
2.60026
2.66794
2.73605
2.80453
2.8733
2.94227
3.01137
3.0805
3.1496
3.21856
3.2873
3.35574
3.42377
3.49132
3.55827
3.62455
3.69006
3.75471
3.8184
3.88104
3.94256
4.00286
4.06185
4.11945
4.17557
4.23015
4.28309
4.33433
4.38379
4.4314
4.4771
4.52082
4.56251
4.60211
4.63957
4.67486
4.70793
4.73875
4.7673
4.79354
4.81747
4.83906
4.85831
4.87521
4.88977
4.90198
4.91187
4.91944
4.92473
4.92775
4.92852
4.9271
4.92339
4.91749
4.90947
4.89939
4.88729
4.87323
4.85725
4.83943
4.81981
4.79846
4.77543
4.7508
4.72462
4.69694
4.66782
4.63732
4.60547
4.57232
4.5379
4.50226
4.46541
4.42739
4.38821
4.3479
4.30647
4.26394
4.22033
4.17567
4.13
4.08335
4.03579
3.98736
3.93812
3.88814
3.8375
3.78629
3.73461
3.68257
3.63031
3.57798
3.52572
3.47371
3.42214
3.3712
3.32113
3.27211
3.22431
3.17718
3.12899
0.0406915
0.0833048
0.105432
0.121256
0.134338
0.145951
0.156708
0.16697
0.176974
0.186887
0.196836
0.206916
0.217204
0.227759
0.238632
0.249864
0.261488
0.273535
0.286024
0.29898
0.312429
0.326397
0.340906
0.355978
0.371636
0.387903
0.4048
0.422348
0.440569
0.459484
0.479114
0.499479
0.5206
0.542496
0.565189
0.588697
0.613039
0.638231
0.6643
0.691272
0.719171
0.74802
0.777845
0.80867
0.840522
0.873426
0.907407
0.942491
0.978701
1.01606
1.05459
1.09432
1.13525
1.17742
1.22084
1.26553
1.31149
1.35874
1.40729
1.45715
1.50831
1.56077
1.61453
1.66958
1.72591
1.78349
1.84232
1.90235
1.96356
2.02592
2.08938
2.15391
2.21946
2.28597
2.35339
2.42166
2.49071
2.56049
2.63092
2.70193
2.77344
2.84537
2.91765
2.99018
3.06289
3.13569
3.20848
3.28118
3.35369
3.42592
3.49778
3.56917
3.63999
3.71015
3.77954
3.84809
3.91567
3.98222
4.04762
4.11179
4.17464
4.23607
4.29601
4.35437
4.41105
4.46599
4.5191
4.57032
4.61956
4.66676
4.71186
4.75479
4.7955
4.83394
4.87007
4.90385
4.93523
4.9642
4.99073
5.0148
5.03639
5.0555
5.07213
5.08627
5.09794
5.10714
5.1139
5.11826
5.12023
5.11987
5.1172
5.11207
5.10468
5.09509
5.08335
5.06951
5.05363
5.03578
5.01603
4.99443
4.97107
4.94601
4.91933
4.89109
4.86136
4.83022
4.79771
4.7639
4.72882
4.69253
4.65506
4.61645
4.57671
4.53588
4.49396
4.45098
4.40695
4.36189
4.31581
4.26875
4.22074
4.17184
4.12207
4.07151
4.0202
3.96823
3.91569
3.86267
3.80929
3.75568
3.70198
3.64834
3.59494
3.54196
3.4896
3.43807
3.38753
3.33816
3.28943
3.23987
0.040982
0.0837747
0.105998
0.121877
0.134992
0.146624
0.157389
0.167646
0.177631
0.187509
0.197407
0.207422
0.217632
0.228099
0.238874
0.25
0.261517
0.27346
0.285843
0.298691
0.31203
0.325884
0.340279
0.35524
0.37079
0.386956
0.403762
0.421233
0.439395
0.458274
0.477896
0.498286
0.519471
0.541477
0.56433
0.588053
0.612671
0.638208
0.664709
0.692194
0.720695
0.750244
0.78087
0.812604
0.845478
0.879523
0.914767
0.951236
0.988957
1.02795
1.06825
1.10986
1.15282
1.19713
1.24281
1.28988
1.33836
1.38823
1.43952
1.49222
1.54633
1.60183
1.65873
1.717
1.77662
1.83757
1.89981
1.96332
2.02806
2.09397
2.16102
2.22916
2.29832
2.36846
2.43949
2.51137
2.58402
2.65736
2.73132
2.80582
2.88078
2.95612
3.03174
3.10757
3.1835
3.25946
3.33534
3.41104
3.48649
3.56157
3.6362
3.71028
3.78369
3.85636
3.92818
3.99904
4.06886
4.13754
4.20499
4.2711
4.33579
4.39897
4.46054
4.52044
4.57856
4.63483
4.68916
4.74149
4.79174
4.83985
4.88574
4.92935
4.97063
5.00952
5.04599
5.07999
5.11148
5.14044
5.16684
5.19066
5.21189
5.23052
5.24655
5.25997
5.27081
5.27907
5.28479
5.28799
5.28873
5.28712
5.28296
5.27632
5.26735
5.2561
5.24263
5.22701
5.20929
5.18956
5.16789
5.14435
5.11903
5.09201
5.06337
5.03318
5.00154
4.96852
4.93418
4.89859
4.8618
4.82386
4.78482
4.7447
4.70354
4.66135
4.61816
4.57397
4.52879
4.48264
4.43552
4.38747
4.3385
4.28866
4.23798
4.18651
4.13431
4.08144
4.02799
3.97406
3.91976
3.8652
3.81054
3.75593
3.70152
3.64751
3.59407
3.5414
3.48967
3.43902
3.38898
3.33835
0.0409088
0.0836752
0.105856
0.121703
0.134785
0.146379
0.157097
0.167299
0.177221
0.187031
0.196852
0.206783
0.216899
0.227263
0.237926
0.248929
0.260308
0.27209
0.284302
0.296971
0.310128
0.323802
0.338023
0.352819
0.368221
0.384258
0.400961
0.418362
0.436493
0.455387
0.475075
0.49559
0.516964
0.539228
0.562418
0.586572
0.611714
0.637864
0.665023
0.693267
0.722639
0.753177
0.784918
0.817898
0.852154
0.887725
0.92464
0.962922
1.0026
1.04369
1.08621
1.13019
1.17564
1.22257
1.271
1.32092
1.37235
1.42528
1.47972
1.53565
1.59305
1.65192
1.71224
1.77396
1.83707
1.90153
1.96729
2.03432
2.10257
2.17198
2.24249
2.31406
2.3866
2.46007
2.53438
2.60947
2.68526
2.76167
2.83861
2.91601
2.99379
3.07185
3.1501
3.22846
3.30684
3.38514
3.46326
3.54112
3.61861
3.69565
3.77213
3.84796
3.92304
3.99727
4.07056
4.1428
4.21391
4.28379
4.35233
4.41946
4.48508
4.5491
4.61144
4.67201
4.73071
4.78749
4.84224
4.8949
4.9454
4.99368
5.03965
5.08326
5.12446
5.16319
5.1994
5.23306
5.26413
5.29258
5.31838
5.34152
5.36197
5.37973
5.39481
5.40719
5.41689
5.42394
5.42836
5.4302
5.4296
5.42651
5.42072
5.41247
5.40184
5.38888
5.37365
5.35624
5.33671
5.31514
5.29161
5.26622
5.23904
5.21018
5.17973
5.14777
5.11441
5.07971
5.04377
5.00665
4.96842
4.92913
4.88882
4.84753
4.80529
4.76212
4.71803
4.67302
4.62711
4.58029
4.53258
4.48398
4.43451
4.38421
4.33309
4.28119
4.22857
4.17529
4.12141
4.06704
4.01227
3.95724
3.90207
3.84692
3.79194
3.7373
3.68318
3.62976
3.57718
3.52561
3.4746
3.42325
0.0406373
0.0832881
0.105267
0.120972
0.13392
0.145379
0.155961
0.166025
0.175806
0.18547
0.195141
0.204915
0.214867
0.225057
0.235537
0.24635
0.257533
0.26912
0.281146
0.293649
0.306659
0.320208
0.334328
0.349053
0.364419
0.380463
0.397221
0.414731
0.433036
0.452178
0.472209
0.493158
0.515057
0.537946
0.561858
0.586815
0.612825
0.63997
0.668319
0.697931
0.728841
0.761089
0.79471
0.829739
0.866207
0.904135
0.943551
0.984484
1.02696
1.07101
1.11665
1.16386
1.21266
1.26304
1.31501
1.36855
1.42366
1.48032
1.53852
1.59823
1.65943
1.72208
1.78614
1.85158
1.91835
1.98641
2.0557
2.12617
2.19776
2.27041
2.34406
2.41863
2.49407
2.5703
2.64725
2.72483
2.80298
2.88161
2.96065
3.04
3.11959
3.19933
3.27913
3.35891
3.43858
3.51804
3.59721
3.676
3.7543
3.83204
3.90913
3.98545
4.06093
4.13548
4.20899
4.28137
4.35254
4.4224
4.49086
4.55783
4.62322
4.68695
4.74894
4.8091
4.86734
4.9236
4.97778
5.02981
5.07964
5.12719
5.17239
5.21519
5.25552
5.29334
5.32859
5.36124
5.39125
5.41859
5.44324
5.46517
5.48435
5.50081
5.51451
5.52546
5.53368
5.53919
5.54204
5.54229
5.5402
5.53531
5.52781
5.51783
5.50545
5.49072
5.47371
5.45451
5.43318
5.40983
5.38454
5.3574
5.32851
5.29797
5.26588
5.23236
5.19749
5.16137
5.1241
5.08575
5.0464
5.00609
4.96487
4.92279
4.87986
4.83612
4.79156
4.74618
4.69999
4.65298
4.60514
4.55649
4.50703
4.45676
4.40572
4.35391
4.30139
4.24819
4.1944
4.14009
4.08537
4.03034
3.97515
3.91992
3.86481
3.80999
3.75561
3.70183
3.6488
3.59666
3.54503
3.49334
0.0400826
0.0823668
0.104046
0.11952
0.132255
0.143512
0.1539
0.163777
0.173378
0.182869
0.192373
0.201984
0.211778
0.221819
0.232158
0.24284
0.253907
0.2654
0.277359
0.289825
0.302839
0.31644
0.330669
0.345572
0.361201
0.377604
0.394816
0.412886
0.43186
0.451779
0.47266
0.494535
0.517493
0.541601
0.566918
0.593512
0.621444
0.650755
0.681498
0.713723
0.747468
0.782768
0.819652
0.858145
0.898266
0.940025
0.983434
1.0285
1.07523
1.12361
1.17362
1.22524
1.27847
1.3333
1.38969
1.44762
1.50706
1.56797
1.63032
1.69407
1.75917
1.82557
1.89322
1.96208
2.03209
2.10319
2.17533
2.24844
2.32247
2.39735
2.47301
2.5494
2.62644
2.70406
2.7822
2.86078
2.93974
3.01899
3.09847
3.1781
3.25779
3.33748