/*--------------------------------*- C++ -*----------------------------------*\
  =========                 |
  \\      /  F ield         | OpenFOAM: The Open Source CFD Toolbox
   \\    /   O peration     | Website:  https://openfoam.org
    \\  /    A nd           | Version:  8
     \\/     M anipulation  |
\*---------------------------------------------------------------------------*/
FoamFile
{
    version     2.0;
    format      ascii;
    class       volScalarField;
    location    "235";
    object      nut;
}
// * * * * * * * * * * * * * * * * * * * * * * * * * * * * * * * * * * * * * //

dimensions      [0 2 -1 0 0 0 0];

internalField   nonuniform List<scalar> 
12225
(
4.14967e-05
3.93419e-05
3.74837e-05
3.54324e-05
3.37847e-05
3.24199e-05
3.15107e-05
3.09111e-05
3.09175e-05
3.10977e-05
3.1565e-05
3.21261e-05
3.3129e-05
3.38766e-05
3.50133e-05
3.60077e-05
3.70591e-05
3.72055e-05
0.000332328
0.000215223
0.000179278
0.000157684
0.000146205
0.000138217
0.000132745
0.000131644
0.000129517
0.000130055
0.000129056
0.000129429
0.000128671
0.000128548
0.000128081
0.00012745
0.000127301
0.000126633
0.000674956
0.000450849
0.000355773
0.000309845
0.000275281
0.000251107
0.000231703
0.000217285
0.000202679
0.000192121
0.000182624
0.000175207
0.000169383
0.00016368
0.000160305
0.000155584
0.000153784
0.00014991
0.000833606
0.000684917
0.000571979
0.000499976
0.000449452
0.000411964
0.000380768
0.000356009
0.000334005
0.000314789
0.000298327
0.000281723
0.000270311
0.000256081
0.000248209
0.000236185
0.000230416
0.000220492
0.000861251
0.000802528
0.000742123
0.000676587
0.000623994
0.000581381
0.000545865
0.000514562
0.000489518
0.000464437
0.000445863
0.000424082
0.000409944
0.00039082
0.000379902
0.000363125
0.000354508
0.000339577
0.000854978
0.000840347
0.000822203
0.000786497
0.000750859
0.000715902
0.00068576
0.000656134
0.000632549
0.000607522
0.000589001
0.000567256
0.000552291
0.000533114
0.000520798
0.000503765
0.000493342
0.000477558
0.000852907
0.000850686
0.000844239
0.000832828
0.00081741
0.000797001
0.000777887
0.000756739
0.000738901
0.00071915
0.000703537
0.000685628
0.00067213
0.000655937
0.000644321
0.000629561
0.000619542
0.000605214
0.000851922
0.000851814
0.000850172
0.000847395
0.000841453
0.000833728
0.000824896
0.000813417
0.000802808
0.000790473
0.000779717
0.000767545
0.00075743
0.000745794
0.00073655
0.00072555
0.000717177
0.000706083
0.000851751
0.000851542
0.000851034
0.000850339
0.00084888
0.000846168
0.000843034
0.000838305
0.000833403
0.000827362
0.000821218
0.000814775
0.000808413
0.000801532
0.000795248
0.00078843
0.000782187
0.000775287
0.000851769
0.000851389
0.000851046
0.000850633
0.000850248
0.000849368
0.000848405
0.000846781
0.000844956
0.000842531
0.000839924
0.000836801
0.000833796
0.000830156
0.000826974
0.000822933
0.000819908
0.000815312
0.000851787
0.000851359
0.000851012
0.000850613
0.000850329
0.000849905
0.000849525
0.000848929
0.000848303
0.000847393
0.000846466
0.000845178
0.000843991
0.000842353
0.000840998
0.000839035
0.000837643
0.000835367
0.000851789
0.000851359
0.000850995
0.000850605
0.000850292
0.000849938
0.000849646
0.00084928
0.000848955
0.000848504
0.000848098
0.000847508
0.000846998
0.000846245
0.000845642
0.000844722
0.000844059
0.000842978
0.000851786
0.000851363
0.000850985
0.000850604
0.000850269
0.000849926
0.00084963
0.000849313
0.000849042
0.000848729
0.000848462
0.000848126
0.000847844
0.000847466
0.000847156
0.000846726
0.000846387
0.000845902
0.000851783
0.000851364
0.000850978
0.000850602
0.000850256
0.000849916
0.000849607
0.0008493
0.000849022
0.00084874
0.000848488
0.000848224
0.000847988
0.000847735
0.000847508
0.000847258
0.000847033
0.000846783
0.000851781
0.000851364
0.000850973
0.000850598
0.000850246
0.000849908
0.000849591
0.000849286
0.000849
0.000848723
0.000848463
0.000848211
0.000847975
0.000847744
0.000847527
0.000847315
0.000847114
0.000846919
0.00085178
0.000851363
0.000850969
0.000850594
0.000850239
0.000849901
0.00084958
0.000849274
0.000848984
0.000848707
0.000848443
0.000848191
0.000847951
0.000847721
0.000847502
0.000847292
0.000847092
0.0008469
0.000851779
0.000851362
0.000850967
0.000850591
0.000850234
0.000849894
0.000849572
0.000849265
0.000848973
0.000848694
0.000848428
0.000848174
0.000847932
0.000847701
0.00084748
0.000847269
0.000847066
0.000846873
0.000851779
0.000851362
0.000850965
0.000850588
0.000850231
0.00084989
0.000849567
0.000849258
0.000848965
0.000848685
0.000848418
0.000848163
0.000847919
0.000847687
0.000847464
0.000847251
0.000847048
0.000846853
0.000851779
0.000851362
0.000850965
0.000850588
0.00085023
0.000849889
0.000849565
0.000849256
0.000848962
0.000848681
0.000848413
0.000848158
0.000847913
0.00084768
0.000847456
0.000847243
0.000847038
0.000846842
0.000851779
0.000851362
0.000850965
0.000850589
0.000850231
0.000849891
0.000849567
0.000849259
0.000848965
0.000848685
0.000848417
0.000848161
0.000847917
0.000847683
0.000847459
0.000847245
0.00084704
0.000846844
0.000851779
0.000851363
0.000850967
0.000850592
0.000850235
0.000849896
0.000849573
0.000849266
0.000848972
0.000848693
0.000848424
0.000848168
0.000847919
0.000847683
0.00084745
0.00084723
0.000847012
0.000846805
0.000851778
0.000851366
0.000850968
0.000850599
0.00085024
0.000849907
0.00084958
0.000849274
0.000848964
0.000848671
0.000848364
0.000848071
0.000847756
0.000847455
0.000847122
0.00084681
0.000846456
0.000846135
0.000851777
0.000851374
0.000850971
0.000850615
0.00085024
0.000849889
0.000849478
0.000849054
0.000848529
0.000847978
0.0008473
0.000846604
0.000845766
0.000844938
0.000843953
0.000843028
0.000841916
0.000840938
0.000851802
0.00085141
0.00085097
0.000850549
0.000849861
0.000848967
0.000847607
0.000845979
0.000843903
0.000841635
0.000838954
0.000836213
0.000833115
0.000830112
0.000826761
0.000823678
0.000820181
0.000817175
0.000852138
0.000851403
0.000850234
0.000848252
0.000844472
0.000839355
0.000832711
0.000825762
0.000817913
0.000809999
0.000801614
0.000793625
0.000785329
0.000777703
0.00076974
0.000762696
0.000755119
0.00074879
0.000854142
0.000847718
0.000840125
0.000827122
0.000808707
0.000789646
0.000769971
0.000751415
0.000733302
0.000716892
0.00070093
0.000686777
0.000672826
0.000660666
0.000648373
0.000637935
0.000626948
0.000618014
0.00085497
0.000818336
0.000776229
0.000726635
0.000684938
0.000649856
0.000618458
0.00059202
0.000568379
0.000548308
0.000529684
0.000513989
0.000498745
0.000486012
0.000473197
0.000462703
0.000451617
0.000442799
0.000807487
0.000666879
0.000570551
0.000509854
0.000465648
0.000431193
0.000404131
0.000382499
0.000364192
0.000349064
0.000335937
0.000325075
0.000314476
0.000306244
0.000297959
0.000291364
0.000284278
0.000278928
0.000501854
0.000348404
0.00029269
0.000259174
0.000236322
0.000221177
0.000211543
0.000204015
0.000198479
0.000195059
0.000192217
0.000190367
0.000188581
0.000187438
0.000186164
0.000185473
0.000184554
0.000184142
7.27285e-05
7.02231e-05
6.79539e-05
6.56136e-05
6.33827e-05
6.12765e-05
5.94929e-05
5.79572e-05
5.67102e-05
5.57029e-05
5.49774e-05
5.44183e-05
5.41084e-05
5.3887e-05
5.38764e-05
5.39618e-05
5.40714e-05
5.43219e-05
2.66067e-07
6.5695e-06
1.20609e-05
1.70564e-05
2.22093e-05
2.79642e-05
3.44945e-05
4.19143e-05
5.0152e-05
5.90419e-05
6.83281e-05
7.77871e-05
8.71702e-05
9.62957e-05
0.000104958
0.000113025
0.000120351
0.000126901
0.000132659
0.000137784
0.000142516
0.000147338
0.000151352
0.000156216
0.000165777
0.00017806
0.000192625
0.00020563
0.000216689
0.000225332
0.000231588
0.000236215
0.000239043
0.000236315
0.00022763
0.000210916
4.41999e-05
4.55752e-05
5.0927e-05
0.000232924
4.64059e-05
4.99627e-05
5.04312e-05
5.16978e-05
5.27821e-05
5.39056e-05
5.50218e-05
5.61352e-05
5.72467e-05
5.8355e-05
5.946e-05
6.05626e-05
6.16614e-05
6.2758e-05
6.38508e-05
6.49414e-05
6.6028e-05
6.71121e-05
6.81921e-05
6.92694e-05
7.03421e-05
7.14114e-05
7.24757e-05
7.35361e-05
7.45908e-05
7.56409e-05
7.66844e-05
7.77224e-05
7.87531e-05
7.97773e-05
8.07932e-05
8.18016e-05
8.28007e-05
8.37913e-05
8.47714e-05
8.57419e-05
8.67008e-05
8.76488e-05
8.85841e-05
8.95075e-05
9.04169e-05
9.13131e-05
9.21943e-05
9.30611e-05
9.39114e-05
9.47461e-05
9.55629e-05
9.63624e-05
9.71429e-05
9.79044e-05
9.86457e-05
9.93653e-05
0.000100062
0.000100735
0.000101383
0.000102006
0.000102607
0.000103192
0.00010375
0.000104288
0.000104803
0.000105295
0.000105765
0.000106212
0.000106635
0.000107034
0.00010741
0.000107761
0.000108089
0.000108392
0.00010867
0.000108925
0.000109154
0.000109359
0.00010954
0.000109695
0.000109827
0.000109933
0.000110016
0.000110074
0.000110109
0.000110119
0.000110105
0.000110066
0.000110003
0.000109915
0.000109797
0.000109639
0.00010944
0.000109363
0.000109156
0.000108942
0.000108695
0.000108425
0.000108137
0.000107829
0.000107505
0.000107161
0.000106798
0.000106416
0.000106017
0.000105601
0.000105167
0.000104715
0.000104245
0.000103757
0.000103252
0.000102728
0.000102187
0.000101629
0.000101052
0.000100459
9.98475e-05
9.92185e-05
9.85717e-05
9.7907e-05
9.7224e-05
9.65228e-05
9.58031e-05
9.50631e-05
9.42777e-05
9.34345e-05
9.29544e-05
9.2517e-05
9.20716e-05
9.16119e-05
9.11374e-05
9.06481e-05
9.01449e-05
8.96288e-05
8.90997e-05
8.85574e-05
8.80032e-05
8.74339e-05
8.68519e-05
8.62434e-05
8.56045e-05
8.49026e-05
8.41293e-05
8.18856e-05
1.29471e-06
3.01606e-05
6.60547e-05
9.06969e-05
0.000106566
0.000117993
0.000127795
0.000137449
0.000147557
0.000158224
0.000169308
0.000180567
0.000191733
0.000202554
0.0002128
0.000222274
0.000230821
0.000238349
0.000244854
0.000250461
0.000255441
0.000260259
0.000264588
0.000268724
0.000273389
0.000278188
0.000282446
0.000285196
0.000286651
0.000286678
0.000286696
0.000285893
0.000282255
0.000284581
0.000275336
0.000248109
0.000221109
0.000239974
0.000262031
0.000294405
0.00026677
0.000277961
0.000283993
0.000291608
0.000299197
0.000307073
0.000315051
0.000323159
0.000331355
0.000339642
0.000348009
0.000356457
0.000364983
0.000373589
0.000382275
0.000391042
0.00039989
0.000408823
0.00041784
0.000426944
0.000436133
0.00044541
0.000454773
0.000464223
0.000473758
0.000483379
0.000493081
0.000502864
0.000512725
0.000522661
0.000532668
0.000542742
0.00055288
0.000563076
0.000573326
0.000583623
0.000593963
0.000604338
0.000614744
0.000625173
0.000635618
0.000646073
0.000656531
0.000666986
0.00067743
0.000687857
0.000698261
0.000708636
0.000718975
0.000729273
0.000739522
0.000749707
0.000759811
0.000769802
0.000779627
0.000789187
0.000798311
0.000806689
0.000814961
0.000823079
0.000831057
0.000838885
0.00084656
0.000854076
0.000861428
0.000868611
0.00087562
0.000882449
0.000889097
0.000895558
0.000901829
0.000907908
0.000913792
0.000919479
0.000924967
0.000930255
0.00093534
0.000940221
0.000944898
0.000949371
0.000953641
0.000957706
0.000961569
0.000965226
0.000968681
0.000971934
0.000974986
0.00097782
0.000980222
0.0009828
0.00098507
0.000987241
0.000989036
0.000990585
0.000991897
0.000992965
0.000993925
0.000994693
0.000995263
0.000995628
0.000995788
0.000995735
0.000995486
0.000995041
0.000994399
0.000993558
0.000992516
0.000991274
0.000989828
0.000988177
0.000986318
0.000984248
0.000981963
0.00097946
0.000976734
0.000973783
0.000970599
0.000967176
0.000963494
0.000959491
0.000954863
0.000948133
0.000939846
0.000930936
0.000921684
0.000912187
0.000902487
0.000892615
0.00088259
0.000872442
0.000862169
0.00085179
0.000841315
0.000830737
0.000820001
0.000809078
0.000797915
0.000786397
0.000773064
0.000737262
2.70311e-06
4.92598e-05
0.00010444
0.000146212
0.000176423
0.000198445
0.000215396
0.000229604
0.00024256
0.000255081
0.000267499
0.000279857
0.000292034
0.000303837
0.000315051
0.000325469
0.000334915
0.000343271
0.000350498
0.00035666
0.000361914
0.000366458
0.000371208
0.000376991
0.000384054
0.00039249
0.000401877
0.00041182
0.000421955
0.000431685
0.000440782
0.000448857
0.000455579
0.00046117
0.000463944
0.000466215
0.000473454
0.000494022
0.000514431
0.000531445
0.000539457
0.000555694
0.000571081
0.000586934
0.00060295
0.000619179
0.000635573
0.000652129
0.000668832
0.000685681
0.000702672
0.000719805
0.000737081
0.000754502
0.00077207
0.000789787
0.000807654
0.000825673
0.000843845
0.00086217
0.000880647
0.000899276
0.000918056
0.000936983
0.000956055
0.000975267
0.000994615
0.00101409
0.0010337
0.00105341
0.00107324
0.00109317
0.00111319
0.0011333
0.00115347
0.00117371
0.00119399
0.00121431
0.00123466
0.00125502
0.00127538
0.00129572
0.00131603
0.00133631
0.00135653
0.00137667
0.00139673
0.00141669
0.00143654
0.00145624
0.00147578
0.00149513
0.00151425
0.00153309
0.00155158
0.00156964
0.00158718
0.00160425
0.00162105
0.00163755
0.00165376
0.00166965
0.00168522
0.00170045
0.00171533
0.00172985
0.00174401
0.00175779
0.00177118
0.00178418
0.00179678
0.00180896
0.00182074
0.0018321
0.00184304
0.00185355
0.00186364
0.00187329
0.00188251
0.0018913
0.00189966
0.00190758
0.00191508
0.00192213
0.00192875
0.00193493
0.00194066
0.00194592
0.00195067
0.00195521
0.00195935
0.00196322
0.00196636
0.00196885
0.00197094
0.0019727
0.00197406
0.00197501
0.00197554
0.00197565
0.00197534
0.00197461
0.00197346
0.0019719
0.00196993
0.00196755
0.00196475
0.00196152
0.00195787
0.00195379
0.00194927
0.00194431
0.0019389
0.00193304
0.0019267
0.0019199
0.00191262
0.00190484
0.00189654
0.00188762
0.00187774
0.00186586
0.0018521
0.00183724
0.00182168
0.00180559
0.00178907
0.00177216
0.00175492
0.00173741
0.0017196
0.00170155
0.00168326
0.00166475
0.00164598
0.00162688
0.00160723
0.00158654
0.00156172
0.00151062
4.25207e-06
6.36991e-05
0.00013359
0.000188126
0.000228507
0.000258586
0.000281769
0.000300652
0.000317055
0.000332129
0.000346513
0.000360484
0.000374088
0.000387243
0.000399802
0.000411606
0.000422515
0.000432455
0.000441443
0.000449629
0.000457318
0.000464989
0.000473309
0.000482908
0.000494215
0.000507421
0.000522515
0.000539189
0.000557052
0.000574111
0.000590789
0.000606951
0.000622458
0.000637191
0.000652497
0.000669175
0.000688519
0.000710907
0.000733341
0.000754453
0.000774958
0.000797222
0.000819668
0.000842336
0.000865189
0.000888235
0.000911468
0.000934888
0.000958493
0.000982282
0.00100626
0.00103042
0.00105477
0.00107932
0.00110406
0.00112901
0.00115415
0.0011795
0.00120504
0.00123079
0.00125674
0.00128288
0.00130922
0.00133574
0.00136245
0.00138933
0.00141638
0.00144359
0.00147095
0.00149845
0.00152607
0.00155381
0.00158166
0.00160959
0.0016376
0.00166567
0.00169377
0.00172191
0.00175005
0.00177819
0.00180629
0.00183435
0.00186235
0.00189026
0.00191807
0.00194575
0.00197328
0.00200064
0.0020278
0.00205474
0.00208142
0.00210781
0.00213386
0.00215954
0.00218479
0.00220954
0.00223379
0.0022576
0.00228102
0.00230403
0.00232662
0.00234877
0.00237047
0.0023917
0.00241244
0.00243269
0.00245242
0.00247162
0.00249028
0.00250839
0.00252594
0.00254292
0.00255932
0.00257514
0.00259037
0.002605
0.00261903
0.00263246
0.00264529
0.00265751
0.00266912
0.00268012
0.00269051
0.00270029
0.00270945
0.002718
0.00272591
0.0027332
0.00273985
0.00274605
0.00275194
0.00275718
0.00276132
0.00276483
0.00276773
0.00277015
0.00277201
0.00277329
0.002774
0.00277412
0.00277367
0.00277264
0.00277104
0.00276888
0.00276613
0.00276282
0.00275892
0.00275444
0.00274936
0.00274369
0.00273741
0.00273051
0.00272299
0.00271482
0.00270601
0.00269653
0.00268639
0.00267556
0.002664
0.00265161
0.00263813
0.00262295
0.00260604
0.00258786
0.00256875
0.00254889
0.00252841
0.00250736
0.00248584
0.00246397
0.00244173
0.00241911
0.00239614
0.00237285
0.00234921
0.00232514
0.0023004
0.00227424
0.00224311
0.00218801
5.77508e-06
7.57852e-05
0.000157884
0.00022295
0.000272237
0.000309447
0.000338245
0.00036147
0.000381194
0.000398828
0.000415256
0.000430973
0.000446203
0.000461005
0.000475343
0.000489144
0.000502345
0.000514927
0.000526954
0.000538595
0.000550148
0.000562029
0.000574735
0.000588744
0.000604406
0.000621863
0.000641135
0.000661996
0.000684026
0.000706579
0.000729429
0.000752378
0.000775256
0.000798125
0.000821374
0.000845467
0.000870771
0.000897163
0.000923954
0.000950932
0.000977825
0.00100521
0.00103287
0.00106075
0.00108884
0.00111715
0.00114566
0.00117439
0.00120333
0.00123249
0.00126187
0.00129147
0.00132128
0.00135132
0.00138159
0.00141209
0.00144283
0.00147379
0.00150499
0.00153642
0.00156807
0.00159995
0.00163203
0.00166432
0.00169681
0.00172949
0.00176235
0.00179537
0.00182855
0.00186187
0.00189532
0.00192887
0.00196252
0.00199625
0.00203005
0.00206388
0.00209773
0.00213159
0.00216542
0.00219922
0.00223296
0.00226662
0.00230016
0.00233358
0.00236685
0.00239994
0.00243282
0.00246548
0.00249787
0.00252998
0.00256177
0.0025932
0.00262425
0.00265487
0.00268504
0.00271476
0.00274399
0.00277275
0.00280104
0.00282884
0.00285615
0.00288293
0.00290917
0.00293485
0.00295995
0.00298445
0.00300834
0.00303161
0.00305423
0.00307619
0.00309749
0.0031181
0.00313803
0.00315726
0.00317579
0.0031936
0.0032107
0.00322708
0.00324273
0.00325765
0.00327185
0.00328532
0.00329806
0.00331006
0.00332132
0.00333185
0.00334163
0.00335068
0.00335901
0.00336692
0.00337419
0.00338059
0.00338586
0.00339044
0.00339437
0.00339764
0.00340024
0.00340215
0.00340338
0.00340393
0.0034038
0.00340299
0.0034015
0.00339934
0.00339651
0.00339299
0.00338878
0.00338388
0.00337827
0.00337195
0.0033649
0.00335712
0.00334858
0.00333927
0.00332918
0.0033183
0.00330661
0.00329409
0.0032807
0.00326636
0.00325089
0.00323394
0.00321547
0.00319571
0.00317488
0.00315317
0.00313067
0.00310747
0.00308366
0.00305936
0.0030345
0.00300916
0.0029834
0.00295724
0.0029307
0.00290369
0.002876
0.00284682
0.0028127
0.00275853
7.21065e-06
8.58871e-05
0.000178205
0.000252341
0.000309573
0.000353314
0.000387383
0.0004148
0.000437831
0.000458094
0.000476685
0.000494296
0.000511326
0.000527982
0.000544351
0.000560461
0.000576322
0.00059197
0.000607485
0.000623017
0.000638793
0.000655106
0.000672288
0.000690652
0.000710443
0.000731786
0.000754677
0.000778942
0.000804334
0.000830563
0.000857401
0.000884673
0.00091227
0.000940192
0.000968529
0.000997426
0.00102699
0.00105716
0.00108775
0.00111865
0.00114979
0.00118124
0.00121295
0.0012449
0.00127708
0.00130948
0.0013421
0.00137495
0.00140803
0.00144135
0.0014749
0.0015087
0.00154275
0.00157704
0.00161157
0.00164633
0.00168133
0.00171656
0.00175202
0.0017877
0.00182361
0.00185972
0.00189605
0.00193257
0.00196927
0.00200616
0.00204322
0.00208042
0.00211777
0.00215525
0.00219284
0.00223052
0.00226828
0.0023061
0.00234396
0.00238184
0.00241973
0.0024576
0.00249543
0.00253319
0.00257088
0.00260846
0.0026459
0.0026832
0.00272031
0.00275722
0.00279389
0.00283031
0.00286644
0.00290226
0.00293773
0.00297283
0.00300752
0.00304178
0.00307558
0.00310892
0.00314176
0.0031741
0.00320593
0.00323722
0.00326797
0.00329814
0.00332771
0.00335667
0.003385
0.00341267
0.00343966
0.00346596
0.00349156
0.00351643
0.00354056
0.00356394
0.00358656
0.00360841
0.00362948
0.00364976
0.00366924
0.00368792
0.0037058
0.00372287
0.00373913
0.00375457
0.00376921
0.00378302
0.00379602
0.00380819
0.00381955
0.00383011
0.00384004
0.00384932
0.00385785
0.0038652
0.00387167
0.00387732
0.00388225
0.00388644
0.00388987
0.00389256
0.0038945
0.00389569
0.00389614
0.00389586
0.00389483
0.00389307
0.00389057
0.00388732
0.00388332
0.00387856
0.00387303
0.00386671
0.0038596
0.00385167
0.00384291
0.0038333
0.00382282
0.00381146
0.0037992
0.00378602
0.00377188
0.00375673
0.00374043
0.0037228
0.0037038
0.00368353
0.00366215
0.00363977
0.00361651
0.00359244
0.00356765
0.00354223
0.00351619
0.00348961
0.00346254
0.00343502
0.00340709
0.00337872
0.00334971
0.00331931
0.00328451
0.00323435
8.51586e-06
9.42126e-05
0.000195038
0.000277045
0.000341414
0.000391209
0.000430313
0.000461854
0.000488237
0.000511241
0.000532131
0.000551767
0.000570708
0.000589296
0.000607734
0.00062614
0.000644593
0.000663164
0.000681942
0.000701045
0.000720628
0.000740877
0.000761991
0.000784156
0.000807513
0.000832138
0.000858021
0.000885077
0.000913167
0.000942134
0.000971829
0.00100213
0.00103295
0.00106425
0.00109601
0.00112824
0.00116097
0.00119415
0.00122773
0.00126164
0.00129585
0.00133034
0.00136509
0.00140009
0.00143531
0.00147076
0.00150644
0.00154235
0.00157849
0.00161486
0.00165147
0.00168831
0.00172538
0.00176269
0.00180023
0.001838
0.001876
0.00191421
0.00195265
0.0019913
0.00203016
0.00206922
0.00210847
0.00214791
0.00218753
0.00222731
0.00226725
0.00230733
0.00234754
0.00238786
0.00242829
0.00246879
0.00250936
0.00254998
0.00259064
0.0026313
0.00267196
0.00271259
0.00275317
0.00279367
0.00283409
0.00287439
0.00291455
0.00295455
0.00299436
0.00303395
0.00307331
0.0031124
0.00315119
0.00318967
0.00322779
0.00326554
0.00330289
0.00333981
0.00337627
0.00341226
0.00344776
0.00348274
0.0035172
0.00355109
0.00358442
0.00361714
0.00364924
0.0036807
0.00371148
0.00374158
0.00377097
0.00379963
0.00382754
0.00385468
0.00388105
0.00390662
0.00393137
0.00395531
0.00397841
0.00400068
0.00402209
0.00404264
0.00406234
0.00408116
0.00409912
0.00411621
0.00413242
0.00414776
0.00416223
0.00417581
0.00418852
0.00420048
0.00421177
0.00422224
0.00423173
0.00424013
0.00424769
0.0042544
0.00426031
0.00426542
0.00426973
0.00427326
0.00427599
0.00427795
0.00427914
0.00427955
0.00427919
0.00427807
0.00427617
0.0042735
0.00427005
0.0042658
0.00426075
0.00425489
0.00424819
0.00424063
0.0042322
0.00422288
0.00421265
0.00420148
0.00418936
0.00417627
0.00416217
0.00414702
0.00413073
0.00411321
0.0040944
0.00407437
0.0040532
0.00403098
0.00400781
0.00398374
0.00395888
0.00393328
0.00390701
0.00388014
0.00385273
0.00382485
0.00379654
0.00376783
0.00373857
0.00370811
0.00367396
0.0036289
9.6609e-06
0.000100919
0.000208725
0.000297529
0.000368281
0.00042369
0.00046761
0.000503217
0.000532999
0.000558848
0.000582158
0.000603927
0.000624841
0.000645361
0.000665789
0.000686321
0.00070709
0.000728201
0.000749745
0.000771816
0.000794514
0.00081795
0.000842234
0.000867466
0.000893718
0.000921023
0.000949373
0.000978721
0.00100899
0.00104008
0.00107192
0.00110441
0.00113748
0.00117109
0.00120518
0.00123975
0.00127473
0.00131011
0.00134585
0.00138192
0.0014183
0.00145495
0.00149185
0.001529
0.00156636
0.00160394
0.00164174
0.00167976
0.00171799
0.00175643
0.00179509
0.00183397
0.00187307
0.00191238
0.0019519
0.00199164
0.00203158
0.00207173
0.00211207
0.00215262
0.00219336
0.00223429
0.00227539
0.00231667
0.00235811
0.00239971
0.00244145
0.00248333
0.00252532
0.00256743
0.00260963
0.0026519
0.00269425
0.00273664
0.00277907
0.00282151
0.00286395
0.00290637
0.00294874
0.00299105
0.00303328
0.0030754
0.00311739
0.00315923
0.00320089
0.00324235
0.00328358
0.00332456
0.00336527
0.00340566
0.00344573
0.00348544
0.00352476
0.00356366
0.00360214
0.00364015
0.00367767
0.00371469
0.00375118
0.00378711
0.00382245
0.0038572
0.0038913
0.00392476
0.00395753
0.0039896
0.00402094
0.00405152
0.00408134
0.00411037
0.00413859
0.00416598
0.00419254
0.00421823
0.00424306
0.004267
0.00429006
0.00431221
0.00433347
0.00435381
0.00437324
0.00439175
0.00440935
0.00442602
0.00444177
0.00445661
0.00447054
0.00448379
0.00449615
0.00450768
0.00451812
0.0045276
0.00453616
0.00454386
0.00455071
0.00455672
0.00456191
0.0045663
0.00456987
0.00457265
0.00457465
0.00457586
0.00457629
0.00457595
0.00457483
0.00457293
0.00457025
0.00456677
0.00456248
0.00455737
0.00455142
0.00454461
0.00453692
0.00452832
0.00451879
0.0045083
0.00449685
0.00448439
0.00447091
0.00445637
0.00444071
0.00442386
0.00440581
0.00438656
0.00436616
0.00434469
0.0043222
0.00429878
0.00427448
0.00424939
0.00422357
0.00419709
0.00417004
0.00414249
0.00411451
0.00408617
0.00405737
0.00402757
0.00399479
0.00395433
1.06271e-05
0.000106135
0.000219506
0.000314257
0.000390504
0.000451113
0.000499618
0.0005392
0.00057239
0.00060115
0.000626967
0.000650938
0.000673853
0.00069627
0.00071857
0.00074101
0.000763768
0.000786979
0.000810773
0.000835205
0.000860333
0.000886222
0.000912927
0.000940495
0.000968956
0.000998313
0.00102854
0.00105959
0.00109148
0.00112415
0.00115754
0.00119157
0.00122619
0.00126135
0.00129699
0.00133306
0.00136948
0.00140625
0.00144337
0.0014808
0.00151853
0.00155654
0.0015948
0.00163326
0.00167192
0.00171078
0.00174983
0.00178906
0.00182849
0.0018681
0.00190791
0.0019479
0.00198809
0.00202847
0.00206903
0.00210979
0.00215073
0.00219186
0.00223318
0.00227467
0.00231635
0.0023582
0.00240023
0.00244241
0.00248476
0.00252726
0.00256991
0.00261269
0.0026556
0.00269863
0.00274176
0.00278498
0.00282829
0.00287167
0.00291509
0.00295856
0.00300204
0.00304553
0.003089
0.00313244
0.00317582
0.00321912
0.00326233
0.00330542
0.00334836
0.00339113
0.00343371
0.00347608
0.00351819
0.00356003
0.00360158
0.0036428
0.00368366
0.00372414
0.00376421
0.00380385
0.00384302
0.0038817
0.00391987
0.00395749
0.00399453
0.00403098
0.0040668
0.00410196
0.00413644
0.00417022
0.00420325
0.00423553
0.00426703
0.00429772
0.00432758
0.0043566
0.00438475
0.00441202
0.0044384
0.00446386
0.0044884
0.00451201
0.00453468
0.0045564
0.00457717
0.00459699
0.00461585
0.00463375
0.00465069
0.00466668
0.00468183
0.00469613
0.00470953
0.004722
0.00473342
0.0047439
0.00475344
0.00476207
0.00476983
0.00477673
0.0047828
0.00478804
0.00479248
0.00479611
0.00479896
0.00480103
0.00480233
0.00480286
0.00480263
0.00480164
0.00479988
0.00479734
0.00479401
0.00478989
0.00478494
0.00477914
0.00477248
0.00476493
0.00475645
0.00474703
0.00473664
0.00472525
0.00471283
0.00469936
0.00468479
0.00466908
0.00465221
0.00463416
0.00461498
0.0045947
0.00457337
0.00455106
0.00452783
0.00450375
0.00447889
0.00445332
0.00442715
0.00440045
0.00437332
0.00434584
0.00431798
0.00428931
0.00425823
0.00422182
1.14068e-05
0.000110009
0.000227689
0.000327438
0.000408489
0.000473801
0.0005266
0.000570006
0.000606548
0.000638223
0.000666574
0.000692768
0.000717671
0.000741925
0.000765994
0.000790144
0.000814556
0.000839336
0.000864623
0.00089057
0.000917246
0.000944697
0.00097295
0.00100202
0.00103193
0.00106265
0.00109418
0.0011265
0.00115957
0.00119332
0.00122771
0.00126269
0.00129822
0.00133424
0.00137071
0.0014076
0.00144487
0.00148248
0.00152041
0.00155862
0.0015971
0.0016357
0.00167453
0.00171353
0.00175269
0.00179199
0.00183143
0.00187103
0.00191078
0.00195068
0.00199075
0.00203098
0.00207137
0.00211193
0.00215265
0.00219355
0.00223462
0.00227586
0.00231728
0.00235888
0.00240065
0.0024426
0.00248473
0.00252703
0.00256951
0.00261215
0.00265496
0.00269793
0.00274105
0.00278432
0.00282773
0.00287127
0.00291492
0.00295869
0.00300255
0.00304649
0.0030905
0.00313456
0.00317866
0.00322277
0.00326687
0.00331095
0.00335498
0.00339894
0.00344281
0.00348656
0.00353016
0.0035736
0.00361684
0.00365985
0.00370261
0.00374509
0.00378725
0.00382907
0.00387052
0.00391157
0.00395218
0.00399234
0.00403199
0.00407113
0.00410971
0.0041477
0.00418508
0.00422181
0.00425787
0.00429322
0.00432784
0.00436169
0.00439476
0.00442701
0.00445842
0.00448897
0.00451864
0.00454741
0.00457526
0.00460217
0.00462813
0.00465313
0.00467716
0.0047002
0.00472226
0.00474333
0.00476341
0.00478249
0.00480058
0.00481772
0.00483395
0.00484927
0.00486367
0.00487709
0.00488953
0.00490098
0.00491145
0.00492099
0.00492964
0.00493743
0.00494437
0.00495048
0.00495579
0.0049603
0.00496404
0.00496701
0.00496923
0.00497071
0.00497145
0.00497146
0.00497074
0.00496928
0.00496707
0.00496409
0.00496034
0.00495578
0.00495039
0.00494414
0.004937
0.00492894
0.00491994
0.00490995
0.00489896
0.00488693
0.00487384
0.00485964
0.0048443
0.00482782
0.00481021
0.00479149
0.0047717
0.00475089
0.00472912
0.00470646
0.00468297
0.00465873
0.00463384
0.0046084
0.00458251
0.00455627
0.00452969
0.00450243
0.00447323
0.00444037
1.19999e-05
0.000112684
0.000233523
0.000337333
0.000422515
0.000492022
0.000548769
0.00059578
0.000635545
0.00067006
0.000700908
0.000729288
0.000756043
0.000781756
0.00080702
0.000832267
0.000857778
0.000883758
0.000910386
0.000937701
0.000965707
0.000994425
0.00102387
0.00105406
0.00108497
0.0011166
0.00114893
0.00118192
0.00121555
0.00124977
0.00128454
0.00131981
0.00135553
0.00139167
0.00142819
0.00146505
0.00150222
0.00153966
0.00157735
0.00161528
0.00165344
0.00169192
0.00173061
0.00176939
0.00180822
0.00184712
0.00188611
0.00192519
0.00196439
0.00200371
0.00204315
0.00208274
0.00212247
0.00216235
0.00220238
0.00224259
0.00228296
0.00232352
0.00236426
0.00240519
0.00244632
0.00248766
0.0025292
0.00257095
0.00261291
0.00265509
0.00269748
0.00274008
0.00278289
0.0028259
0.00286912
0.00291252
0.00295612
0.00299988
0.00304381
0.00308789
0.00313211
0.00317644
0.00322088
0.0032654
0.00330999
0.00335462
0.00339927
0.00344392
0.00348854
0.0035331
0.00357759
0.00362196
0.00366619
0.00371025
0.00375411
0.00379774
0.00384111
0.00388418
0.00392692
0.00396929
0.00401127
0.00405282
0.00409391
0.0041345
0.00417455
0.00421404
0.00425293
0.00429119
0.00432878
0.00436568
0.00440184
0.00443725
0.00447186
0.00450565
0.0045386
0.00457067
0.00460185
0.0046321
0.00466142
0.00468977
0.00471715
0.00474354
0.00476892
0.00479329
0.00481664
0.00483896
0.00486026
0.00488053
0.00489978
0.00491804
0.00493533
0.00495167
0.0049671
0.00498153
0.00499499
0.00500743
0.00501879
0.00502925
0.00503881
0.00504749
0.00505532
0.00506233
0.00506852
0.00507394
0.0050786
0.00508251
0.00508571
0.00508819
0.00508998
0.00509108
0.00509149
0.00509122
0.00509025
0.00508858
0.00508618
0.00508303
0.00507912
0.00507439
0.00506883
0.00506239
0.00505504
0.00504675
0.00503749
0.00502722
0.00501592
0.00500354
0.00499006
0.00497546
0.00495973
0.00494289
0.00492497
0.004906
0.00488604
0.00486513
0.00484336
0.0048208
0.00479754
0.00477368
0.00474935
0.00472464
0.0046996
0.00467397
0.00464673
0.00461706
1.24164e-05
0.000114323
0.000237262
0.000344229
0.000432865
0.000506024
0.000566316
0.000616636
0.000659417
0.000696525
0.000729393
0.00075941
0.000787618
0.000814838
0.000841662
0.000868358
0.000895183
0.000922329
0.000949913
0.000977979
0.00100661
0.00103585
0.00106572
0.00109623
0.00112736
0.0011591
0.00119142
0.00122431
0.00125772
0.00129162
0.00132597
0.00136073
0.00139586
0.00143132
0.00146708
0.00150311
0.00153937
0.00157584
0.00161245
0.00164927
0.00168635
0.00172386
0.00176145
0.00179908
0.00183672
0.00187434
0.00191195
0.00194962
0.00198735
0.00202518
0.00206313
0.0021012
0.00213942
0.00217779
0.00221634