/*--------------------------------*- C++ -*----------------------------------*\
  =========                 |
  \\      /  F ield         | OpenFOAM: The Open Source CFD Toolbox
   \\    /   O peration     | Website:  https://openfoam.org
    \\  /    A nd           | Version:  8
     \\/     M anipulation  |
\*---------------------------------------------------------------------------*/
FoamFile
{
    version     2.0;
    format      ascii;
    class       volScalarField;
    location    "235";
    object      p;
}
// * * * * * * * * * * * * * * * * * * * * * * * * * * * * * * * * * * * * * //

dimensions      [0 2 -2 0 0 0 0];

internalField   nonuniform List<scalar> 
12225
(
-0.970927
-3.15889
-4.25895
-4.57968
-4.76108
-4.93026
-5.062
-5.15743
-5.2344
-5.30226
-5.36284
-5.41848
-5.46927
-5.51702
-5.56213
-5.60071
-5.64883
-5.62561
-4.13329
-4.90211
-5.06265
-4.9705
-4.95809
-5.02611
-5.10386
-5.16988
-5.22985
-5.28775
-5.34294
-5.39459
-5.44346
-5.48983
-5.53478
-5.57507
-5.62148
-5.65528
-4.53392
-4.51973
-4.64719
-4.72565
-4.82067
-4.94099
-5.04843
-5.13354
-5.20571
-5.2715
-5.33218
-5.38781
-5.4399
-5.48882
-5.53613
-5.57977
-5.62909
-5.67251
-4.41254
-4.3559
-4.59759
-4.756
-4.85785
-4.9642
-5.06209
-5.14239
-5.21146
-5.27497
-5.33407
-5.38877
-5.44025
-5.4889
-5.53615
-5.58123
-5.62979
-5.67757
-4.40261
-4.42698
-4.65508
-4.79671
-4.88043
-4.97262
-5.06402
-5.14198
-5.20984
-5.27245
-5.33106
-5.38566
-5.43722
-5.48624
-5.53395
-5.58035
-5.62875
-5.67846
-4.46071
-4.5095
-4.68379
-4.80775
-4.88935
-4.97729
-5.06551
-5.14223
-5.20949
-5.27155
-5.32978
-5.38426
-5.4358
-5.48501
-5.53291
-5.57987
-5.62792
-5.67736
-4.52102
-4.56514
-4.70033
-4.8167
-4.90052
-4.98476
-5.06883
-5.14367
-5.21
-5.27133
-5.32898
-5.38318
-5.43455
-5.48375
-5.53162
-5.57865
-5.62608
-5.67427
-4.57448
-4.61205
-4.72203
-4.83035
-4.91341
-4.99311
-5.07265
-5.1453
-5.21057
-5.27105
-5.32805
-5.38185
-5.43297
-5.48202
-5.52966
-5.5764
-5.62298
-5.66957
-4.62413
-4.65723
-4.74816
-4.84615
-4.92628
-5.00173
-5.077
-5.14726
-5.21124
-5.27076
-5.32698
-5.38026
-5.43099
-5.4797
-5.52693
-5.57308
-5.6186
-5.66346
-4.6711
-4.70035
-4.77587
-4.86311
-4.93935
-5.01095
-5.08215
-5.14976
-5.2122
-5.27058
-5.32588
-5.37846
-5.42863
-5.47681
-5.52342
-5.56875
-5.61308
-5.65622
-4.71534
-4.74083
-4.80403
-4.88121
-4.95292
-5.02078
-5.08807
-5.15284
-5.21351
-5.27058
-5.32481
-5.37653
-5.42597
-5.47344
-5.51924
-5.56359
-5.60663
-5.64812
-4.75328
-4.77562
-4.82982
-4.89865
-4.96579
-5.0302
-5.09406
-5.15616
-5.21503
-5.27077
-5.32389
-5.37467
-5.42329
-5.46997
-5.51491
-5.55824
-5.60008
-5.64013
-4.78831
-4.80803
-4.85485
-4.91623
-4.97872
-5.03973
-5.10035
-5.15979
-5.21678
-5.27109
-5.32302
-5.37278
-5.42048
-5.46626
-5.51026
-5.55254
-5.59317
-5.63189
-4.825
-4.84218
-4.88219
-4.9362
-4.99351
-5.05066
-5.10777
-5.16425
-5.219
-5.27158
-5.32206
-5.37054
-5.41708
-5.46174
-5.50458
-5.54563
-5.58492
-5.62223
-4.86208
-4.87686
-4.91085
-4.95792
-5.00978
-5.06274
-5.11616
-5.16944
-5.22164
-5.27218
-5.32093
-5.36787
-5.413
-5.4563
-5.49778
-5.53744
-5.57528
-5.61114
-4.89759
-4.91022
-4.93913
-4.98006
-5.0266
-5.07526
-5.12495
-5.17495
-5.2244
-5.27266
-5.31945
-5.36462
-5.40812
-5.44986
-5.48982
-5.52796
-5.56429
-5.5987
-4.92863
-4.93949
-4.96443
-5.00035
-5.04219
-5.08686
-5.13304
-5.17989
-5.2266
-5.27251
-5.31721
-5.3605
-5.40223
-5.4423
-5.48066
-5.51725
-5.55208
-5.58507
-4.95082
-4.96046
-4.98271
-5.01514
-5.05354
-5.09512
-5.13849
-5.18275
-5.2271
-5.27088
-5.31365
-5.35513
-5.39515
-5.4336
-5.4704
-5.50551
-5.53892
-5.57061
-4.95729
-4.96643
-4.98763
-5.01874
-5.05579
-5.096
-5.13797
-5.18081
-5.22376
-5.26616
-5.30755
-5.34767
-5.38634
-5.42348
-5.459
-5.49288
-5.52512
-5.55574
-4.94091
-4.95067
-4.97325
-5.00629
-5.04524
-5.08686
-5.12974
-5.17315
-5.21641
-5.25885
-5.30005
-5.33982
-5.37802
-5.41459
-5.44949
-5.48272
-5.51429
-5.54427
-4.91389
-4.92467
-4.94992
-4.9869
-5.02962
-5.07406
-5.11906
-5.16419
-5.20871
-5.25194
-5.29358
-5.33354
-5.37177
-5.40824
-5.44293
-5.4759
-5.50718
-5.53686
-4.87856
-4.89036
-4.91969
-4.96324
-5.01146
-5.05937
-5.1071
-5.15472
-5.20117
-5.24564
-5.28804
-5.32847
-5.36695
-5.40349
-5.43815
-5.471
-5.50211
-5.5316
-4.83793
-4.84982
-4.88424
-4.93747
-4.99296
-5.04485
-5.09565
-5.146
-5.19441
-5.24017
-5.28348
-5.32454
-5.36342
-5.40015
-5.43487
-5.46771
-5.49876
-5.52817
-4.79418
-4.80514
-4.84688
-4.91126
-4.97338
-5.02999
-5.08553
-5.13929
-5.18945
-5.23617
-5.28017
-5.32174
-5.36089
-5.39773
-5.43246
-5.46525
-5.49623
-5.52553
-4.74726
-4.7527
-4.81533
-4.89349
-4.95537
-5.01356
-5.07462
-5.13288
-5.1853
-5.23325
-5.27816
-5.32032
-5.35975
-5.39668
-5.43138
-5.4641
-5.495
-5.52426
-4.70397
-4.66752
-4.77702
-4.88795
-4.95015
-5.00537
-5.06749
-5.12715
-5.18027
-5.22889
-5.2745
-5.3172
-5.35696
-5.39409
-5.4289
-5.46168
-5.49261
-5.52188
-4.71806
-4.55905
-4.68796
-4.84201
-4.93207
-5.00337
-5.07222
-5.13305
-5.18575
-5.23393
-5.27911
-5.32127
-5.36046
-5.39702
-5.43129
-5.46357
-5.49409
-5.52309
-4.84077
-4.66076
-4.67495
-4.74707
-4.83539
-4.93455
-5.02516
-5.09886
-5.16047
-5.21551
-5.26572
-5.31139
-5.35309
-5.39148
-5.42707
-5.46031
-5.49166
-5.52174
-4.54808
-5.13965
-5.22848
-5.10421
-5.04982
-5.07692
-5.12382
-5.16697
-5.20844
-5.25053
-5.29192
-5.33115
-5.36801
-5.40264
-5.4351
-5.46556
-5.49422
-5.52288
-1.55983
-3.32259
-4.32726
-4.62637
-4.77549
-4.91906
-5.03301
-5.11388
-5.17802
-5.23479
-5.28595
-5.33189
-5.37346
-5.41159
-5.44678
-5.47884
-5.5076
-5.53132
-6.40509
-6.40514
-6.40559
-6.40646
-6.40764
-6.40907
-6.41077
-6.41275
-6.41506
-6.41773
-6.42081
-6.42433
-6.42836
-6.43294
-6.43811
-6.44391
-6.45037
-6.4575
-6.46531
-6.4738
-6.48296
-6.49284
-6.50343
-6.51457
-6.52595
-6.53756
-6.54979
-6.56335
-6.57899
-6.59629
-6.61475
-6.63534
-6.6577
-6.68152
-6.70756
-6.73661
-6.76685
-6.79403
-6.81722
-6.83608
-6.85635
-6.88113
-6.90715
-6.93431
-6.9622
-6.99062
-7.01941
-7.04846
-7.07765
-7.10689
-7.13608
-7.16514
-7.19396
-7.22247
-7.25055
-7.27811
-7.30505
-7.33126
-7.35661
-7.381
-7.40429
-7.42635
-7.44704
-7.46623
-7.48375
-7.49945
-7.51317
-7.52474
-7.53398
-7.54073
-7.5448
-7.546
-7.54414
-7.53905
-7.5305
-7.51834
-7.50234
-7.48232
-7.45808
-7.42944
-7.39619
-7.35817
-7.31518
-7.26705
-7.21358
-7.15464
-7.09004
-7.01967
-6.94338
-6.86105
-6.77254
-6.6777
-6.57643
-6.46868
-6.3545
-6.23399
-6.10709
-5.97337
-5.83255
-5.68477
-5.53017
-5.3688
-5.2007
-5.02592
-4.84451
-4.65653
-4.46204
-4.26114
-4.05392
-3.84049
-3.62096
-3.39547
-3.16416
-2.92716
-2.68464
-2.43677
-2.1837
-1.92561
-1.66268
-1.39514
-1.1232
-0.847058
-0.56691
-0.282965
0.00457065
0.295447
0.589438
0.886282
1.18575
1.48759
1.79157
2.09741
2.4048
2.71345
3.02311
3.33347
3.64429
3.95525
4.26606
4.57641
4.886
5.19453
5.5017
5.80721
6.11076
6.41203
6.71071
7.00648
7.299
7.58796
7.87302
8.15384
8.43009
8.70143
8.96752
9.22805
9.48268
9.7311
9.97307
10.2084
10.4368
10.6582
10.8722
11.0784
11.2768
11.4671
11.6495
11.8238
11.99
12.1481
12.2983
12.4407
12.5753
12.7026
12.823
12.9372
13.0473
13.1555
13.2767
13.4087
-6.4035
-6.4039
-6.40455
-6.4053
-6.40597
-6.40663
-6.40744
-6.40857
-6.41009
-6.41205
-6.41448
-6.41739
-6.42082
-6.42477
-6.42927
-6.43436
-6.44004
-6.44632
-6.45322
-6.46072
-6.46882
-6.47749
-6.48668
-6.49633
-6.50663
-6.51807
-6.53092
-6.54553
-6.56134
-6.57803
-6.59654
-6.61585
-6.63518
-6.65472
-6.67445
-6.69333
-6.71161
-6.73359
-6.76014
-6.79256
-6.82647
-6.85588
-6.88441
-6.91277
-6.94122
-6.96986
-6.99867
-7.02763
-7.05666
-7.08571
-7.1147
-7.14354
-7.17216
-7.20047
-7.22838
-7.25579
-7.2826
-7.30871
-7.33399
-7.35834
-7.38163
-7.40372
-7.42449
-7.44378
-7.46145
-7.47735
-7.4913
-7.50316
-7.51273
-7.51985
-7.52434
-7.52601
-7.52467
-7.52014
-7.51222
-7.50072
-7.48545
-7.4662
-7.44278
-7.41501
-7.38269
-7.34565
-7.30368
-7.25663
-7.20431
-7.14655
-7.0832
-7.01411
-6.93915
-6.8582
-6.77115
-6.67788
-6.57824
-6.47213
-6.35944
-6.24003
-6.11377
-5.98074
-5.84111
-5.69483
-5.54182
-5.38208
-5.21564
-5.04252
-4.86276
-4.67644
-4.4836
-4.28435
-4.07877
-3.86696
-3.64906
-3.42517
-3.19545
-2.96002
-2.71906
-2.47271
-2.22115
-1.96454
-1.70307
-1.43696
-1.16642
-0.891637
-0.612818
-0.330157
-0.0438769
0.245789
0.538596
0.834298
1.13267
1.43348
1.73647
2.04138
2.3479
2.65574
2.96462
3.2743
3.58448
3.89487
4.20517
4.51508
4.82431
5.13254
5.4395
5.74487
6.04836
6.34965
6.64843
6.94438
7.23719
7.52652
7.81205
8.09344
8.37036
8.64247
8.90944
9.17095
9.4267
9.67637
9.91958
10.156
10.3852
10.607
10.8213
11.0281
11.2271
11.4182
11.6013
11.7765
11.9436
12.1028
12.2541
12.3976
12.5335
12.6621
12.784
12.9
13.0124
13.1228
13.2456
13.3701
-6.39876
-6.39998
-6.40171
-6.40307
-6.40388
-6.40442
-6.40501
-6.40584
-6.40704
-6.40868
-6.41079
-6.4134
-6.41653
-6.42019
-6.42441
-6.4292
-6.43458
-6.44057
-6.44718
-6.45442
-6.46231
-6.47088
-6.48013
-6.49012
-6.50103
-6.51319
-6.52686
-6.54202
-6.55837
-6.57562
-6.59392
-6.61314
-6.63317
-6.65396
-6.67499
-6.69548
-6.71527
-6.73583
-6.75862
-6.78452
-6.81235
-6.84007
-6.86787
-6.89579
-6.92385
-6.95206
-6.98041
-7.00886
-7.03737
-7.06589
-7.09435
-7.12268
-7.15081
-7.17864
-7.2061
-7.2331
-7.25952
-7.28528
-7.31025
-7.33433
-7.35739
-7.3793
-7.39993
-7.41913
-7.43676
-7.45266
-7.46668
-7.47864
-7.48839
-7.49573
-7.50051
-7.50252
-7.50159
-7.49752
-7.49013
-7.47922
-7.4646
-7.44608
-7.42345
-7.39654
-7.36514
-7.32908
-7.28817
-7.24223
-7.19109
-7.13459
-7.07255
-7.00483
-6.93128
-6.85177
-6.7662
-6.67446
-6.57643
-6.47201
-6.3611
-6.24355
-6.11923
-5.98815
-5.85042
-5.70603
-5.55494
-5.39716
-5.2327
-5.06158
-4.88385
-4.69954
-4.50875
-4.31153
-4.108
-3.89824
-3.68239
-3.46054
-3.23285
-2.99945
-2.7605
-2.51615
-2.26657
-2.01193
-1.75242
-1.48823
-1.2196
-0.946688
-0.669713
-0.38886
-0.104363
0.183557
0.474643
0.768666
1.0654
1.36462
1.66607
1.96948
2.27454
2.58099
2.88855
3.19696
3.50593
3.81518
4.1244
4.43329
4.74156
5.04892
5.35506
5.65969
5.9625
6.2632
6.56147
6.85699
7.14944
7.43851
7.72387
8.00518
8.2821
8.55432
8.82148
9.08325
9.3393
9.58939
9.83323
10.0706
10.3011
10.5245
10.7407
10.9494
11.1503
11.3435
11.5287
11.7059
11.8751
12.0364
12.1898
12.3355
12.4736
12.6045
12.7288
12.8474
12.9626
13.0751
13.1989
13.309
-6.39135
-6.39352
-6.39684
-6.39943
-6.40103
-6.40211
-6.40303
-6.40403
-6.40526
-6.40684
-6.40884
-6.41131
-6.41428
-6.41777
-6.42181
-6.42641
-6.4316
-6.43737
-6.44377
-6.4508
-6.4585
-6.46692
-6.47612
-6.48617
-6.49722
-6.50945
-6.52299
-6.53784
-6.55384
-6.57078
-6.58857
-6.60715
-6.62651
-6.64669
-6.66756
-6.68888
-6.71053
-6.73278
-6.75604
-6.78063
-6.80636
-6.83274
-6.85958
-6.88676
-6.91421
-6.94187
-6.96971
-6.99767
-7.02572
-7.05379
-7.08182
-7.10974
-7.13748
-7.16496
-7.19209
-7.21879
-7.24496
-7.27049
-7.29528
-7.31921
-7.34215
-7.36399
-7.38459
-7.4038
-7.42147
-7.43747
-7.45162
-7.46376
-7.47373
-7.48134
-7.48642
-7.4888
-7.48827
-7.48465
-7.47775
-7.46739
-7.45336
-7.43547
-7.41352
-7.38734
-7.35671
-7.32147
-7.28142
-7.23639
-7.1862
-7.13069
-7.06969
-7.00305
-6.93061
-6.85224
-6.76783
-6.67724
-6.58038
-6.47714
-6.36743
-6.25114
-6.1282
-5.99858
-5.86232
-5.71939
-5.56979
-5.41351
-5.25056
-5.08096
-4.90476
-4.722
-4.53276
-4.3371
-4.13513
-3.92693
-3.71264
-3.49235
-3.26622
-3.03437
-2.79697
-2.55415
-2.30609
-2.05296
-1.79494
-1.53225
-1.26508
-0.993607
-0.718042
-0.438582
-0.155452
0.13112
0.420884
0.713615
1.00909
1.3071
1.60736
1.9096
2.21353
2.5189
2.82543
3.13286
3.44089
3.74924
4.0576
4.36569
4.6732
4.97985
5.28533
5.58935
5.89161
6.19181
6.48962
6.78474
7.07685
7.36564
7.65076
7.9319
8.20872
8.48091
8.74815
9.01012
9.2665
9.51703
9.76145
9.99951
10.2309
10.4554
10.6728
10.8828
11.0852
11.2798
11.4666
11.6454
11.8162
11.9791
12.1342
12.2815
12.4213
12.5539
12.6801
12.8003
12.917
13.0295
13.1504
13.2451
-6.38314
-6.3863
-6.3914
-6.39546
-6.39809
-6.39996
-6.40149
-6.40294
-6.40449
-6.4063
-6.40846
-6.41105
-6.4141
-6.41766
-6.42175
-6.4264
-6.43164
-6.43747
-6.44392
-6.45103
-6.45884
-6.46739
-6.47675
-6.487
-6.49826
-6.51063
-6.5242
-6.53897
-6.55488
-6.57178
-6.58956
-6.60811
-6.62734
-6.64724
-6.66779
-6.68898
-6.71085
-6.73349
-6.75699
-6.78135
-6.80648
-6.8322
-6.8584
-6.885
-6.91191
-6.93908
-6.96646
-6.994
-7.02165
-7.04934
-7.07702
-7.10461
-7.13205
-7.15926
-7.18614
-7.21263
-7.2386
-7.26398
-7.28864
-7.31247
-7.33536
-7.35717
-7.37776
-7.39701
-7.41475
-7.43085
-7.44513
-7.45744
-7.4676
-7.47545
-7.48079
-7.48346
-7.48325
-7.47999
-7.47349
-7.46354
-7.44996
-7.43255
-7.41111
-7.38546
-7.35541
-7.32076
-7.28133
-7.23695
-7.18743
-7.13262
-7.07234
-7.00644
-6.93478
-6.85721
-6.77361
-6.68386
-6.58785
-6.48546
-6.37662
-6.26124
-6.13926
-6.01065
-5.87539
-5.73348
-5.5849
-5.42964
-5.26773
-5.09918
-4.92403
-4.74233
-4.55415
-4.35958
-4.15868
-3.95158
-3.73836
-3.51918
-3.29413
-3.06338
-2.82706
-2.58533
-2.33835
-2.0863
-1.82935
-1.56773
-1.3016
-1.03117
-0.756613
-0.478159
-0.196009
0.089584
0.378403
0.670204
0.964797
1.26193
1.56135
1.86274
2.16587
2.47048
2.7763
3.08304
3.39043
3.69817
4.00597
4.31352
4.62055
4.92675
5.23184
5.53551
5.83747
6.13739
6.43499
6.72994
7.02192
7.31062
7.59572
7.8769
8.15384
8.42623
8.69375
8.95607
9.21288
9.46389
9.70881
9.94737
10.1793
10.4045
10.6225
10.8333
11.0365
11.2321
11.4198
11.5996
11.7715
11.9355
12.0916
12.24
12.3809
12.5146
12.6416
12.7626
12.8794
12.9902
13.1068
13.1877
-6.37578
-6.37988
-6.38658
-6.39202
-6.39573
-6.39846
-6.40072
-6.40277
-6.40482
-6.40704
-6.40955
-6.41243
-6.41576
-6.41958
-6.42392
-6.42882
-6.4343
-6.44039
-6.44712
-6.45453
-6.46264
-6.47153
-6.48124
-6.49184
-6.50342
-6.51603
-6.52974
-6.54455
-6.56041
-6.57726
-6.59501
-6.61356
-6.63283
-6.65277
-6.67332
-6.6945
-6.71634
-6.73888
-6.76215
-6.78614
-6.81079
-6.83601
-6.86171
-6.88783
-6.9143
-6.94106
-6.96806
-6.99525
-7.02257
-7.04997
-7.07737
-7.10472
-7.13193
-7.15895
-7.18567
-7.21201
-7.23788
-7.26317
-7.28777
-7.31158
-7.33446
-7.3563
-7.37695
-7.39628
-7.41413
-7.43035
-7.44479
-7.45727
-7.46764
-7.4757
-7.48129
-7.48422
-7.48429
-7.48134
-7.47515
-7.46554
-7.45231
-7.43527
-7.41422
-7.38897
-7.35933
-7.32511
-7.28613
-7.24221
-7.19316
-7.13883
-7.07905
-7.01365
-6.9425
-6.86547
-6.78242
-6.69323
-6.59778
-6.49598
-6.38774
-6.27298
-6.15164
-6.02369
-5.8891
-5.74786
-5.59996
-5.44539
-5.28416
-5.11631
-4.94187
-4.76089
-4.57344
-4.3796
-4.17946
-3.97311
-3.76066
-3.54225
-3.31799
-3.08802
-2.8525
-2.61156
-2.36539
-2.11415
-1.85802
-1.59721
-1.33188
-1.06224
-0.788478
-0.510803
-0.229435
0.0553893
0.343448
0.634521
0.928402
1.22484
1.52355
1.82427
2.12675
2.43074
2.73598
3.04217
3.34903
3.65628
3.96362
4.27075
4.5774
4.88326
5.18805
5.49146
5.7932
6.09295
6.39042
6.68527
6.97723
7.26595
7.55114
7.83248
8.10964
8.3823
8.65015
8.91286
9.17012
9.42162
9.66706
9.90614
10.1386
10.3643
10.583
10.7943
10.9982
11.1945
11.3829
11.5635
11.7362
11.901
12.0579
12.207
12.3486
12.4829
12.6104
12.7315
12.8476
12.9561
13.0684
13.1373
-6.37047
-6.37538
-6.38333
-6.38992
-6.3946
-6.39818
-6.40117
-6.40386
-6.40648
-6.40919
-6.41215
-6.41545
-6.41916
-6.42335
-6.42805
-6.43332
-6.43917
-6.44564
-6.45276
-6.46057
-6.46911
-6.47841
-6.48853
-6.49952
-6.51143
-6.5243
-6.53817
-6.55304
-6.56888
-6.58564
-6.60328
-6.62172
-6.64091
-6.6608
-6.68134
-6.70251
-6.72432
-6.74677
-6.76986
-6.79359
-6.8179
-6.84276
-6.86809
-6.89386
-6.91999
-6.94644
-6.97315
-7.00008
-7.02717
-7.05435
-7.08157
-7.10876
-7.13584
-7.16275
-7.18939
-7.21567
-7.24151
-7.2668
-7.29142
-7.31527
-7.33822
-7.36014
-7.3809
-7.40035
-7.41834
-7.43473
-7.44934
-7.46201
-7.47258
-7.48086
-7.48667
-7.48983
-7.49015
-7.48744
-7.48151
-7.47217
-7.45921
-7.44244
-7.42167
-7.39671
-7.36735
-7.33342
-7.29473
-7.2511
-7.20236
-7.14832
-7.08884
-7.02375
-6.95291
-6.87619
-6.79345
-6.70459
-6.60947
-6.50802
-6.40013
-6.28573
-6.16478
-6.03722
-5.90303
-5.76219
-5.61469
-5.46053
-5.29973
-5.13231
-4.95831
-4.77778
-4.59081
-4.39744
-4.19779
-3.99195
-3.78004
-3.56215
-3.33845
-3.10905
-2.87411
-2.63376
-2.3882
-2.13757
-1.88208
-1.62189
-1.35721
-1.08819
-0.815064
-0.538019
-0.257297
0.0268964
0.314322
0.604791
0.898058
1.19389
1.49199
1.79213
2.09405
2.39751
2.70223
3.00793
3.31432
3.62112
3.92804
4.2348
4.54109
4.84664
5.15114
5.45432
5.75584
6.05544
6.35278
6.64758
6.93952
7.22829
7.51358
7.79507
8.07245
8.34539
8.61357
8.87667
9.13437
9.38637
9.63233
9.87198
10.105
10.3313
10.5505
10.7625
10.967
11.1639
11.353
11.5342
11.7076
11.873
12.0305
12.1802
12.3223
12.457
12.5846
12.7053
12.8202
12.9262
13.0347
13.0929
-6.36793
-6.37342
-6.38222
-6.38967
-6.39515
-6.39946
-6.40313
-6.40643
-6.4096
-6.41283
-6.41626
-6.42001
-6.42414
-6.42874
-6.43386
-6.43953
-6.44579
-6.45267
-6.46022
-6.46845
-6.47741
-6.48712
-6.49763
-6.50898
-6.5212
-6.53431
-6.54833
-6.56327
-6.57911
-6.59581
-6.61335
-6.63167
-6.65073
-6.67051
-6.69096
-6.71205
-6.73378
-6.75614
-6.77909
-6.80264
-6.82674
-6.85137
-6.87646
-6.90199
-6.9279
-6.95415
-6.98068
-7.00744
-7.03439
-7.06146
-7.08859
-7.11571
-7.14276
-7.16964
-7.19629
-7.2226
-7.24849
-7.27385
-7.29856
-7.32251
-7.34558
-7.36764
-7.38855
-7.40816
-7.42632
-7.44289
-7.45769
-7.47055
-7.48131
-7.48979
-7.49581
-7.49917
-7.49969
-7.49718
-7.49144
-7.48229
-7.46952
-7.45293
-7.43234
-7.40754
-7.37836
-7.34459
-7.30605
-7.26257
-7.21396
-7.16007
-7.10072
-7.03577
-6.96505
-6.88845
-6.80585
-6.71711
-6.62213
-6.52081
-6.41306
-6.29882
-6.17803
-6.05064
-5.91662
-5.77597
-5.62866
-5.4747
-5.3141
-5.1469
-4.97313
-4.79286
-4.60614
-4.41306
-4.21371
-4.0082
-3.79662
-3.5791
-3.35578
-3.12678
-2.89225
-2.65234
-2.40723
-2.15709
-1.90209
-1.6424
-1.37821
-1.10971
-0.837097
-0.560584
-0.280392
0.00326342
0.290165
0.580105
0.87284
1.16813
1.4657
1.76533
2.06677
2.36976
2.67401
2.97927
3.28523
3.59163
3.89816
4.20456
4.51052
4.81576
5.12
5.42294
5.72427
6.02371
6.32094
6.61568
6.9076
7.19641
7.48179
7.76343
8.04101
8.31422
8.58272
8.8462
9.10432
9.35678
9.60326
9.84345
10.0771
10.3039
10.5237
10.7362
10.9413
11.1388
11.3285
11.5103
11.6842
11.8501
12.0081
12.1583
12.3006
12.4354
12.5629
12.683
12.7966
12.8998
13.0049
13.0539
-6.36841
-6.37424
-6.3835
-6.3915
-6.39756
-6.40246
-6.40668
-6.41052
-6.41419
-6.41789
-6.42176
-6.42592
-6.43047
-6.43546
-6.44095
-6.447
-6.45364
-6.4609
-6.46882
-6.47742
-6.48675
-6.49682
-6.50766
-6.5193
-6.53176
-6.54507
-6.55922
-6.57423
-6.59007
-6.60674
-6.6242
-6.64243
-6.66139
-6.68106
-6.70141
-6.72241
-6.74405
-6.76631
-6.78916
-6.81259
-6.83656
-6.86105
-6.88601
-6.91141
-6.9372
-6.96335
-6.98979
-7.0165
-7.0434
-7.07045
-7.09758
-7.12473
-7.15181
-7.17876
-7.20549
-7.2319
-7.25791
-7.28339
-7.30825
-7.33236
-7.3556
-7.37783
-7.39892
-7.41871
-7.43706
-7.45382
-7.4688
-7.48185
-7.49279
-7.50144
-7.50762
-7.51114
-7.51181
-7.50943
-7.50382
-7.49478
-7.48211
-7.46561
-7.44509
-7.42036
-7.39121
-7.35748
-7.31897
-7.2755
-7.22689
-7.17299
-7.11363
-7.04864
-6.9779
-6.90127
-6.81862
-6.72985
-6.63483
-6.53347
-6.42569
-6.31143
-6.19062
-6.06322
-5.92921
-5.78856
-5.64127
-5.48734
-5.32678
-5.15964
-4.98594
-4.80576
-4.61916
-4.42622
-4.22703
-4.0217
-3.81033
-3.59305
-3.36998
-3.14127
-2.90705
-2.66748
-2.42273
-2.17297
-1.91836
-1.65908
-1.3953
-1.12724
-0.855066
-0.579016
-0.29928
-0.0160958
0.270347
0.559803
0.852062
1.14686
1.44397
1.74315
2.04414
2.34669
2.65052
2.95536
3.26092
3.56692
3.8731
4.17915
4.4848
4.78976
5.09375
5.39647
5.69763
5.99691
6.29405
6.58872
6.88063
7.16948
7.45495
7.73674
8.01453
8.28799
8.55681
8.82065
9.07919
9.3321
9.57906
9.81976
10.0539
10.2813
10.5016
10.7147
10.9203
11.1183
11.3085
11.4908
11.6652
11.8315
11.9899
12.1403
12.2828
12.4176
12.5447
12.6639
12.776
12.8766
12.9786
13.0196
-6.37185
-6.37779
-6.38715
-6.39539
-6.4018
-6.4071
-6.41175
-6.41599
-6.42007
-6.42415
-6.4284
-6.43291
-6.43779
-6.44311
-6.44893
-6.45529
-6.46223
-6.4698
-6.47801
-6.48691
-6.4965
-6.50683
-6.51791
-6.52976
-6.5424
-6.55584
-6.57009
-6.58514
-6.60099
-6.61763
-6.63504
-6.6532
-6.67208
-6.69168
-6.71195
-6.73288
-6.75446
-6.77665
-6.79945
-6.82282
-6.84674
-6.87117
-6.89609
-6.92145
-6.94722
-6.97335
-6.9998
-7.02653
-7.05348
-7.08059
-7.10781
-7.13505
-7.16225
-7.18933
-7.21621
-7.24278
-7.26895
-7.29462
-7.31966
-7.34396
-7.36739
-7.38981
-7.41109
-7.43107
-7.44961
-7.46653
-7.48168
-7.49488
-7.50597
-7.51474
-7.52103
-7.52464
-7.52539
-7.52308
-7.51751
-7.50848
-7.49581
-7.4793
-7.45874
-7.43396
-7.40474
-7.37092
-7.3323
-7.28871
-7.23998
-7.18593
-7.12641
-7.06126
-6.99034
-6.91353
-6.83071
-6.74175
-6.64655
-6.54501
-6.43706
-6.32263
-6.20166
-6.07412
-5.93997
-5.79919
-5.65178
-5.49775
-5.33712
-5.16991
-4.99618
-4.81599
-4.6294
-4.4365
-4.23738
-4.03214
-3.8209
-3.60377
-3.38089
-3.15239
-2.91841
-2.67912
-2.43467
-2.18524
-1.93097
-1.67205
-1.40865
-1.14097
-0.869209
-0.593573
-0.314268
-0.0315155
0.254477
0.543479
0.835274
1.12962
1.42628
1.72502
2.02557
2.32768
2.63109
2.93552
3.24068
3.5463
3.85212
4.15784
4.46319
4.76788
5.07162
5.37413
5.6751
5.97425
6.27129
6.56591
6.85781
7.1467
7.43227
7.7142
7.99219
8.26591
8.53504
8.79923
9.05817
9.31151
9.55893
9.80012
10.0348
10.2627
10.4835
10.6971
10.9032
11.1017
11.2923
11.4751
11.6498
11.8165
11.9751
12.1257
12.2682
12.4028
12.5293
12.6476
12.7581
12.8561
12.9553
12.9895
-6.37796
-6.3838
-6.39295
-6.40115
-6.4077
-6.41321
-6.41811
-6.42263
-6.42699
-6.43135
-6.43586
-6.44064
-6.44577
-6.45132
-6.45737
-6.46394
-6.47109
-6.47886
-6.48726
-6.49634
-6.50611
-6.51659
-6.52781
-6.53979
-6.55252
-6.56604
-6.58033
-6.59541
-6.61126
-6.62788
-6.64525
-6.66337
-6.68221
-6.70175
-6.72199
-6.74289
-6.76444
-6.78663
-6.80942
-6.83279
-6.85673
-6.88119
-6.90614
-6.93154
-6.95737
-6.98357
-7.01011
-7.03695
-7.06401
-7.09126
-7.11862
-7.14602
-7.17339
-7.20065
-7.22772
-7.25448
-7.28085
-7.30672
-7.33196
-7.35645
-7.38007
-7.40268
-7.42413
-7.44427
-7.46295
-7.48001
-7.49527
-7.50857
-7.51973
-7.52856
-7.53488
-7.5385
-7.53923
-7.53688
-7.53125
-7.52214
-7.50937
-7.49272
-7.47201
-7.44705
-7.41765
-7.38361
-7.34476
-7.30093
-7.25193
-7.19761
-7.13781
-7.07237
-7.00116
-6.92405
-6.84092
-6.75166
-6.65616
-6.55433
-6.44609
-6.33138
-6.21015
-6.08235
-5.94797
-5.80696
-5.65936
-5.50514
-5.34434
-5.177
-5.00316
-4.82288
-4.63625
-4.44332
-4.24422
-4.03903
-3.82787
-3.61086
-3.38813
-3.15981
-2.92606
-2.68702
-2.44286
-2.19372
-1.93979
-1.68121
-1.41818
-1.15088
-0.879529
-0.604303
-0.325441
-0.0431319
0.242389
0.530928
0.822243
1.11612
1.41232
1.71061
2.01069
2.31236
2.61532
2.91932
3.22407
3.52931
3.83476
4.14015
4.44519
4.7496
5.05309
5.35539
5.65618
5.9552
6.25213
6.5467
6.83859
7.12752
7.41318
7.69526
7.97345
8.24742
8.51685
8.78139
9.0407
9.29446
9.54232
9.78397
10.0191
10.2475
10.4688
10.6828
10.8894
11.0883
11.2794
11.4625
11.6375
11.8045
11.9633
12.1139
12.2563
12.3905
12.5165
12.6337
12.7426
12.8381
12.9348
12.9631
-6.38629
-6.39186
-6.40056
-6.40848
-6.41495
-6.4205
-6.42548
-6.43013
-6.43463
-6.43915
-6.4438
-6.44872
-6.45398
-6.45965
-6.46581
-6.47248
-6.47973
-6.48757
-6.49606
-6.50521
-6.51504
-6.52559
-6.53687
-6.54889
-6.56167
-6.57521
-6.58952
-6.60459
-6.62044
-6.63705
-6.65441
-6.67251
-6.69133
-6.71088
-6.73112
-6.75204
-6.77362
-6.79584
-6.81867
-6.8421
-6.8661
-6.89063
-6.91567
-6.94119
-6.96714
-6.99349
-7.02018
-7.04717
-7.07441
-7.10183
-7.12938
-7.15697
-7.18454
-7.212
-7.23926
-7.26622
-7.29278
-7.31883
-7.34425
-7.36891
-7.39268
-7.41542
-7.43698
-7.45722
-7.47598
-7.49309
-7.50838
-7.52168
-7.53281
-7.5416
-7.54784
-7.55136
-7.55197
-7.54946
-7.54365
-7.53434
-7.52133
-7.50443
-7.48344
-7.45819
-7.42847
-7.3941
-7.3549
-7.3107
-7.26133
-7.20663
-7.14643
-7.08059
-7.00898
-6.93147
-6.84795
-6.7583
-6.66241
-6.5602
-6.4516
-6.33654
-6.21497
-6.08685
-5.95216
-5.81088
-5.66301
-5.50857
-5.34757
-5.18005
-5.00607
-4.82569
-4.63897
-4.44602
-4.24691
-4.04176
-3.83068
-3.61378
-3.3912
-3.16308
-2.92956
-2.6908
-2.44694
-2.19814
-1.94455
-1.68635
-1.42372
-1.15685
-0.885931
-0.611169
-0.332782
-0.0509707
0.234052
0.522082
0.812887
1.10626
1.40197
1.69974
1.99933
2.3005
2.60299
2.90653
3.21084
3.51567
3.82073
4.12576
4.43047
4.73459
5.03782
5.33988
5.64048
5.93935
6.23617
6.53067
6.82254
7.1115
7.39724
7.67946
7.95783
8.23204
8.50175
8.76662
9.0263
9.28045
9.52874
9.77082
10.0064
10.2352
10.457
10.6715
10.8785
11.0777
11.2692
11.4526
11.6279
11.795
11.9539
12.1045
12.2468
12.3806
12.5058
12.6219
12.7291
12.8223
12.9166
12.94
-6.39634
-6.40153
-6.40957
-6.41703
-6.42324
-6.42864
-6.43355
-6.43817
-6.44265
-6.44717
-6.45183
-6.45674
-6.462
-6.46766
-6.4738
-6.48045
-6.48768
-6.49551
-6.50398
-6.51312
-6.52294
-6.53348
-6.54475
-6.55676
-6.56952
-6.58305
-6.59734
-6.61241
-6.62824
-6.64484
-6.6622
-6.68031
-6.69916
-6.71873
-6.739
-6.75997
-6.7816
-6.80388
-6.82679
-6.8503
-6.8744
-6.89906
-6.92424
-6.94992
-6.97604
-7.00256
-7.02944
-7.05662
-7.08404
-7.11165
-7.13937
-7.16715
-7.19489
-7.22252
-7.24994
-7.27705
-7.30375
-7.32992
-7.35544
-7.38018
-7.40401
-7.42678
-7.44836
-7.46858
-7.4873
-7.50434
-7.51953
-7.53271
-7.54369
-7.55229
-7.55832
-7.56161
-7.56195
-7.55915
-7.55303
-7.54338
-7.53001
-7.51273
-7.49135
-7.46567
-7.43552
-7.40071
-7.36106
-7.31639
-7.26655
-7.21137
-7.1507
-7.08439
-7.0123
-6.93432
-6.85034
-6.76024
-6.66391
-6.56128
-6.45227
-6.33682
-6.21488
-6.08642
-5.9514
-5.80983
-5.66169
-5.50702
-5.34581
-5.17813
-5.00402
-4.82355
-4.63678
-4.44382
-4.24474
-4.03966
-3.82869
-3.61196
-3.38958
-3.16171
-2.92847
-2.69003
-2.44653
-2.19811
-1.94494
-1.68718
-1.42501
-1.15863
-0.888211
-0.613988
-0.336144
-0.0548981
0.229573
0.517023
0.807263
1.10007
1.39522
1.69241
1.99144
2.29207
2.59403
2.89706
3.20089
3.50526
3.8099
4.11454
4.41889
4.72268
5.02562
5.32742
5.62782
5.9265
6.2232
6.51761
6.80945
7.09842
7.38422
7.66655
7.94509
8.21952
8.4895
8.75467
9.0147
9.26922
9.51789
9.76039
9.99639
10.2256
10.4478
10.6627
10.87
11.0697
11.2614
11.4451
11.6206
11.7878
11.9468
12.0973
12.2393
12.3726
12.497
12.6119
12.7175
12.8085
12.9005
12.9199
-6.40762
-6.41234
-6.41962
-6.42647
-6.43226
-6.43734
-6.442
-6.44641
-6.45071
-6.45505
-6.45956
-6.46432
-6.46943
-6.47495
-6.48096
-6.48749
-6.4946
-6.50233
-6.5107
-6.51974
-6.52948
-6.53994
-6.55114
-6.56309
-6.5758
-6.58929
-6.60355
-6.6186
-6.63442
-6.65101
-6.66837
-6.68648
-6.70535
-6.72494
-6.74526
-6.76627
-6.78797
-6.81033
-6.83334
-6.85697
-6.88121
-6.90602
-6.93136
-6.95719
-6.98348
-7.01017
-7.0372
-7.06453
-7.09208
-7.11982
-7.14766
-7.17554
-7.20337
-7.23108
-7.25856
-7.28571
-7.31242
-7.33858
-7.36406
-7.38874
-7.41248
-7.43513
-7.45656
-7.47661
-7.49512
-7.51193
-7.52686
-7.53975
-7.55042
-7.55868
-7.56435
-7.56725
-7.56718
-7.56395
-7.55738
-7.54726
-7.53342
-7.51565
-7.49376
-7.46758
-7.4369
-7.40157
-7.36139
-7.31619
-7.26582
-7.21011
-7.14892
-7.08209
-7.0095
-6.93104
-6.84657
-6.75601
-6.65923
-6.55617
-6.44676
-6.33092
-6.20863
-6.07984
-5.94453
-5.80269
-5.65432
-5.49944
-5.33808
-5.17028
-4.99609
-4.81558
-4.62882
-4.4359
-4.23693
-4.03199
-3.82122
-3.60472
-3.38263
-3.15509
-2.92224
-2.68421
-2.44115
-2.19322
-1.94055
-1.68333
-1.42172
-1.15592
-0.886119
-0.612523
-0.335321
-0.0547091
0.229103
0.515892
0.805485
1.09766
1.39213
1.68866
1.98706
2.28708
2.58844
2.8909
3.19419
3.49805
3.80221
4.1064
4.41035
4.71376
5.01637
5.31788
5.61802
5.9165
6.21303
6.50733
6.7991
7.08806
7.3739
7.65631
7.935
8.20962
8.47983
8.74529
9.00562
9.26048
9.50951
9.75238
9.98876
10.2184
10.4409
10.6561
10.8638
11.0638
11.2558
11.4397
11.6153
11.7827
11.9416
12.0919
12.2336
12.3664
12.49
12.6037
12.7077
12.7966
12.8865
12.9026
-6.41973
-6.42393
-6.43038
-6.43651
-6.44172
-6.44632
-6.45054
-6.45454
-6.45847
-6.46246
-6.46664
-6.4711
-6.47592
-6.48118
-6.48694
-6.49325
-6.50015
-6.50768
-6.51587
-6.52475
-6.53436
-6.54469
-6.55578
-6.56763
-6.58026
-6.59366
-6.60786
-6.62284
-6.63862
-6.65518
-6.67251
-6.69062
-6.70948
-6.72909
-6.74944
-6.7705
-6.79227
-6.81472
-6.83783
-6.86157
-6.88591
-6.91082
-6.93625
-6.96217
-6.98853
-7.01527
-7.04234
-7.06968
-7.09724
-7.12495
-7.15276
-7.18058
-7.20834
-7.23595
-7.26331
-7.29031
-7.31685
-7.3428
-7.36805
-7.39247
-7.41592
-7.43826
-7.45935
-7.47903
-7.49715
-7.51355
-7.52805
-7.54048
-7.55068
-7.55845
-7.56362
-7.56599
-7.56539
-7.56163
-7.5545
-7.54383
-7.52942
-7.51107
-7.48862
-7.46186
-7.43061
-7.3947
-7.35396
-7.3082
-7.25728
-7.20103
-7.13931
-7.07197
-6.9989
-6.91996
-6.83503
-6.74403
-6.64684
-6.54339
-6.43362
-6.31746
-6.19487
-6.06581
-5.93027
-5.78824
-5.63972
-5.48473
-5.32331
-5.15548
-4.98131
-4.80087
-4.61423
-4.42147
-4.22271
-4.01804
-3.80758
-3.59144
-3.36977
-3.14268
-2.91033
-2.67284
-2.43036
-2.18301
-1.93099
-1.67442
-1.4135
-1.1484
-0.879341
-0.606473
-0.330018
-0.0501576
0.232869
0.518905
0.807756
1.09917
1.39286
1.68865
1.98632
2.28563
2.58631
2.88812
3.19079
3.49407
3.79768
4.10137
4.40484
4.70783
5.01005
5.31122
5.61106
5.90929
6.20562
6.49976
6.79143
7.08033
7.36617
7.64864
7.92742
8.2022
8.47261
8.7383
8.99891
9.25406
9.5034
9.74659
9.9833
10.2132
10.4361
10.6516
10.8596
11.0598
11.252
11.4361
11.6119
11.7793
11.9381
12.0883
12.2296
12.3618
12.4845
12.597
12.6995
12.7865
12.8742
12.8879
-6.43281
-6.43651
-6.44213
-6.44744
-6.45192
-6.45581
-6.45936
-6.46271
-6.46603
-6.46945
-6.4731
-6.47707
-6.48144
-6.48628
-6.49166
-6.49763
-6.50421
-6.51145
-6.51938
-6.52802
-6.53739
-6.54752
-6.55842
-6.57009
-6.58255
-6.59581
-6.60986
-6.62472
-6.64037
-6.65682
-6.67406
-6.69208
-6.71088
-6.73045
-6.75076
-6.7718
-6.79354
-6.81597
-6.83905
-6.86275
-6.88703
-6.91185
-6.93718
-6.96298
-6.98918
-7.01576
-7.04264
-7.06977
-7.0971
-7.12457
-7.15211
-7.17965
-7.20711
-7.23438
-7.26136
-7.28797
-7.31408
-7.33958
-7.36436
-7.38828
-7.41122
-7.43303
-7.45357
-7.47269
-7.49023
-7.50604
-7.51995
-7.53178
-7.54136
-7.54851
-7.55306
-7.55481
-7.55359
-7.5492
-7.54145
-7.53016
-7.51514
-7.49619
-7.47314
-7.44579
-7.41397
-7.3775
-7.3362
-7.28992
-7.23848
-7.18175
-7.11957
-7.05179
-6.97828
-6.89894
-6.81363
-6.72227
-6.62477
-6.52103
-6.411
-6.29463
-6.17185
-6.04265
-5.90701
-5.76491
-5.61638
-5.46142
-5.30006
-5.13236
-4.95837
-4.77814
-4.59177
-4.39934
-4.20094
-3.9967
-3.78671
-3.5711
-3.35
-3.12354
-2.89185
-2.65506
-2.41331
-2.16673
-1.9155
-1.65975
-1.39968
-1.13545
-0.867252
-0.595266
-0.319707
-0.0407749
0.241342
0.526503
0.814472
1.10496
1.39775
1.69267
1.98949
2.28797