/*--------------------------------*- C++ -*----------------------------------*\
  =========                 |
  \\      /  F ield         | OpenFOAM: The Open Source CFD Toolbox
   \\    /   O peration     | Website:  https://openfoam.org
    \\  /    A nd           | Version:  8
     \\/     M anipulation  |
\*---------------------------------------------------------------------------*/
FoamFile
{
    version     2.0;
    format      ascii;
    class       surfaceScalarField;
    location    "235";
    object      phi;
}
// * * * * * * * * * * * * * * * * * * * * * * * * * * * * * * * * * * * * * //

dimensions      [0 3 -1 0 0 0 0];

internalField   nonuniform List<scalar> 
24170
(
3.12889e-06
5.9517e-08
3.04664e-06
8.22501e-08
2.97354e-06
7.30933e-08
2.9049e-06
6.864e-08
2.84058e-06
6.43237e-08
2.78326e-06
5.73167e-08
2.73394e-06
4.93158e-08
2.692e-06
4.19416e-08
2.65634e-06
3.56599e-08
2.62591e-06
3.04277e-08
2.59974e-06
2.61728e-08
2.57698e-06
2.27568e-08
2.55698e-06
1.99976e-08
2.53917e-06
1.78146e-08
2.5232e-06
1.59714e-08
2.50813e-06
1.5065e-08
2.4943e-06
1.38331e-08
1.83975e-08
2.4759e-06
3.45314e-06
2.36262e-08
3.45702e-06
7.8371e-08
3.45055e-06
7.95628e-08
3.43909e-06
8.00939e-08
3.42432e-06
7.91006e-08
3.40707e-06
7.45649e-08
3.38785e-06
6.85293e-08
3.36733e-06
6.2461e-08
3.34619e-06
5.67985e-08
3.32502e-06
5.15996e-08
3.3043e-06
4.68914e-08
3.28431e-06
4.27474e-08
3.26524e-06
3.90616e-08
3.24714e-06
3.59127e-08
3.23011e-06
3.30092e-08
3.214e-06
3.117e-08
3.1992e-06
2.86318e-08
3.00305e-08
3.18757e-06
3.66826e-06
1.78813e-08
3.67919e-06
6.74444e-08
3.68542e-06
7.33283e-08
3.68946e-06
7.60502e-08
3.69106e-06
7.75001e-08
3.6901e-06
7.55266e-08
3.68697e-06
7.16608e-08
3.68214e-06
6.72953e-08
3.67599e-06
6.29415e-08
3.66886e-06
5.87274e-08
3.66103e-06
5.47254e-08
3.65274e-06
5.10373e-08
3.64418e-06
4.76247e-08
3.63551e-06
4.45817e-08
3.62678e-06
4.17326e-08
3.61837e-06
3.95798e-08
3.60981e-06
3.71978e-08
3.64161e-08
3.60342e-06
3.92587e-06
1.7396e-08
3.93592e-06
5.73964e-08
3.94257e-06
6.66768e-08
3.94812e-06
7.05057e-08
3.95253e-06
7.30822e-08
3.95549e-06
7.25738e-08
3.95716e-06
6.99857e-08
3.9578e-06
6.66547e-08
3.95759e-06
6.31465e-08
3.95669e-06
5.96301e-08
3.95522e-06
5.61918e-08
3.95332e-06
5.29433e-08
3.95106e-06
4.98809e-08
3.94856e-06
4.70818e-08
3.94584e-06
4.44538e-08
3.94316e-06
4.22537e-08
3.9403e-06
4.0062e-08
3.83855e-08
3.93833e-06
4.20819e-06
1.63289e-08
4.21599e-06
4.96032e-08
4.22169e-06
6.09755e-08
4.22679e-06
6.53994e-08
4.23154e-06
6.83305e-08
4.23552e-06
6.85981e-08
4.23869e-06
6.68124e-08
4.24118e-06
6.41714e-08
4.24308e-06
6.12472e-08
4.24448e-06
5.82262e-08
4.24547e-06
5.52036e-08
4.24612e-06
5.22876e-08
4.2465e-06
4.95012e-08
4.24668e-06
4.6902e-08
4.24669e-06
4.44484e-08
4.24668e-06
4.22576e-08
4.24661e-06
4.01291e-08
3.81344e-08
4.24686e-06
4.51069e-06
1.47273e-08
4.51689e-06
4.34055e-08
4.52214e-06
5.57231e-08
4.52696e-06
6.0581e-08
4.53167e-06
6.36143e-08
4.53592e-06
6.43449e-08
4.5396e-06
6.31332e-08
4.54277e-06
6.10035e-08
4.5455e-06
5.85167e-08
4.54785e-06
5.58709e-08
4.54989e-06
5.31718e-08
4.55165e-06
5.05194e-08
4.5532e-06
4.79551e-08
4.55458e-06
4.55202e-08
4.55583e-06
4.32008e-08
4.55705e-06
4.10396e-08
4.55824e-06
3.8932e-08
3.68281e-08
4.55955e-06
4.83431e-06
1.31397e-08
4.83963e-06
3.80821e-08
4.84476e-06
5.05952e-08
4.84946e-06
5.58751e-08
4.8541e-06
5.89778e-08
4.85842e-06
6.0023e-08
4.8623e-06
5.92556e-08
4.86577e-06
5.7532e-08
4.86889e-06
5.53938e-08
4.87171e-06
5.30505e-08
4.87427e-06
5.06158e-08
4.8766e-06
4.81831e-08
4.87876e-06
4.58038e-08
4.88077e-06
4.35098e-08
4.88267e-06
4.13e-08
4.88452e-06
3.91818e-08
4.88636e-06
3.70948e-08
3.49727e-08
4.88822e-06
5.18103e-06
1.16891e-08
5.18575e-06
3.33583e-08
5.19076e-06
4.55896e-08
5.19541e-06
5.12205e-08
5.2e-06
5.43883e-08
5.20437e-06
5.56593e-08
5.20837e-06
5.52541e-08
5.21202e-06
5.38751e-08
5.21538e-06
5.20338e-08
5.21848e-06
4.99503e-08
5.22135e-06
4.77436e-08
5.22403e-06
4.55034e-08
5.22655e-06
4.32853e-08
5.22894e-06
4.11178e-08
5.23124e-06
3.90052e-08
5.23348e-06
3.69424e-08
5.23568e-06
3.4891e-08
3.28001e-08
5.23785e-06
5.55268e-06
1.03428e-08
5.55689e-06
2.91529e-08
5.5617e-06
4.07793e-08
5.56631e-06
4.66084e-08
5.57088e-06
4.98203e-08
5.57529e-06
5.12501e-08
5.5794e-06
5.11444e-08
5.5832e-06
5.0069e-08
5.58674e-06
4.84928e-08
5.59005e-06
4.66434e-08
5.59315e-06
4.4643e-08
5.59607e-06
4.25794e-08
5.59885e-06
4.05095e-08
5.6015e-06
3.84619e-08
5.60406e-06
3.64441e-08
5.60656e-06
3.44499e-08
5.60899e-06
3.24539e-08
3.0428e-08
5.61137e-06
5.95103e-06
9.08425e-09
5.95478e-06
2.54019e-08
5.95936e-06
3.62032e-08
5.96392e-06
4.20496e-08
5.96847e-06
4.52698e-08
5.97292e-06
4.68017e-08
5.97712e-06
4.69367e-08
5.98106e-06
4.61283e-08
5.98476e-06
4.47927e-08
5.98825e-06
4.31592e-08
5.99154e-06
4.13519e-08
5.99466e-06
3.94562e-08
5.99764e-06
3.75294e-08
6.0005e-06
3.56015e-08
6.00326e-06
3.36834e-08
6.00594e-06
3.17723e-08
6.00854e-06
2.98535e-08
2.79175e-08
6.01105e-06
6.37798e-06
7.91514e-09
6.38134e-06
2.2038e-08
6.38568e-06
3.18722e-08
6.39016e-06
3.75611e-08
6.39469e-06
4.07427e-08
6.39916e-06
4.23264e-08
6.40346e-06
4.26438e-08
6.40752e-06
4.20638e-08
6.41137e-06
4.09461e-08
6.41501e-06
3.9513e-08
6.41848e-06
3.78889e-08
6.42178e-06
3.61565e-08
6.42493e-06
3.43725e-08
6.42796e-06
3.25687e-08
6.43089e-06
3.07595e-08
6.43371e-06
2.89476e-08
6.43644e-06
2.71263e-08
2.53009e-08
6.43906e-06
5.74176e-06
6.98977e-09
5.74434e-06
1.94551e-08
5.74781e-06
2.84011e-08
5.75154e-06
3.3831e-08
5.75535e-06
3.6938e-08
5.75914e-06
3.85319e-08
5.76282e-06
3.8959e-08
5.76635e-06
3.85403e-08
5.7697e-06
3.75889e-08
5.7729e-06
3.63142e-08
5.77595e-06
3.48383e-08
5.77887e-06
3.3242e-08
5.78166e-06
3.15803e-08
5.78434e-06
2.98869e-08
5.78692e-06
2.81788e-08
5.78941e-06
2.64631e-08
5.79179e-06
2.47389e-08
2.30209e-08
5.79407e-06
6.99914e-06
6.00672e-09
7.00187e-06
1.67222e-08
7.00564e-06
2.46351e-08
7.0098e-06
2.96619e-08
7.01413e-06
3.26154e-08
7.01848e-06
3.41753e-08
7.02276e-06
3.4683e-08
7.02689e-06
3.44132e-08
7.03084e-06
3.36298e-08
7.03463e-06
3.25229e-08
7.03826e-06
3.121e-08
7.04174e-06
2.97676e-08
7.04507e-06
2.82494e-08
7.04826e-06
2.66895e-08
7.05134e-06
2.51078e-08
7.05428e-06
2.35161e-08
7.0571e-06
2.1918e-08
2.03358e-08
7.05979e-06
8.53188e-06
4.97383e-09
8.53473e-06
1.38665e-08
8.53877e-06
2.0602e-08
8.54337e-06
2.50611e-08
8.54823e-06
2.7757e-08
8.55318e-06
2.92196e-08
8.5581e-06
2.97619e-08
8.5629e-06
2.9615e-08
8.56754e-06
2.89923e-08
8.572e-06
2.80583e-08
8.57629e-06
2.69209e-08
8.58041e-06
2.56517e-08
8.58435e-06
2.43006e-08
8.58814e-06
2.29018e-08
8.59177e-06
2.14774e-08
8.59525e-06
2.00423e-08
8.59856e-06
1.86043e-08
1.71894e-08
8.60171e-06
1.04003e-05
3.90027e-09
1.04033e-05
1.09074e-08
1.04075e-05
1.63238e-08
1.04126e-05
2.00376e-08
1.0418e-05
2.23467e-08
1.04236e-05
2.36283e-08
1.04292e-05
2.41427e-08
1.04347e-05
2.40775e-08
1.04401e-05
2.35971e-08
1.04453e-05
2.28345e-08
1.04504e-05
2.1883e-08
1.04552e-05
2.08059e-08
1.04599e-05
1.96481e-08
1.04643e-05
1.84419e-08
1.04686e-05
1.72097e-08
1.04727e-05
1.59684e-08
1.04765e-05
1.47277e-08
1.35148e-08
1.04802e-05
1.26779e-05
2.791e-09
1.2681e-05
7.8395e-09
1.26855e-05
1.17991e-08
1.26909e-05
1.45861e-08
1.26969e-05
1.63578e-08
1.27032e-05
1.73532e-08
1.27096e-05
1.77624e-08
1.27159e-05
1.77246e-08
1.27222e-05
1.73572e-08
1.27283e-05
1.67579e-08
1.27341e-05
1.59994e-08
1.27398e-05
1.51332e-08
1.27453e-05
1.41965e-08
1.27505e-05
1.32171e-08
1.27555e-05
1.22154e-08
1.27602e-05
1.12077e-08
1.27648e-05
1.02036e-08
9.22926e-09
1.2769e-05
1.54543e-05
1.63528e-09
1.54576e-05
4.61698e-09
1.54624e-05
6.97089e-09
1.54683e-05
8.64734e-09
1.5475e-05
9.71719e-09
1.5482e-05
1.03055e-08
1.54893e-05
1.05216e-08
1.54965e-05
1.04496e-08
1.55037e-05
1.01599e-08
1.55108e-05
9.7123e-09
1.55176e-05
9.15345e-09
1.55242e-05
8.51808e-09
1.55306e-05
7.83226e-09
1.55367e-05
7.11615e-09
1.55425e-05
6.38549e-09
1.55481e-05
5.65315e-09
1.55534e-05
4.92699e-09
4.22921e-09
1.55584e-05
1.88389e-05
3.93109e-10
1.88424e-05
1.11547e-09
1.88477e-05
1.66561e-09
1.88543e-05
2.03082e-09
1.88618e-05
2.22786e-09
1.88698e-05
2.28438e-09
1.88781e-05
2.22226e-09
1.88865e-05
2.06126e-09
1.88948e-05
1.82151e-09
1.8903e-05
1.52142e-09
1.8911e-05
1.17635e-09
1.89187e-05
7.99077e-10
1.89262e-05
4.00544e-10
1.89333e-05
-9.83751e-12
1.89401e-05
-4.24073e-10
1.89466e-05
-8.34863e-10
1.89527e-05
-1.23812e-09
-1.61706e-09
1.89586e-05
2.29648e-05
-1.03666e-09
2.29688e-05
-2.95403e-09
2.2975e-05
-4.53602e-09
2.29828e-05
-5.73945e-09
2.29916e-05
-6.58779e-09
2.30011e-05
-7.16736e-09
2.30109e-05
-7.56561e-09
2.30208e-05
-7.83709e-09
2.30306e-05
-8.01859e-09
2.30403e-05
-8.14119e-09
2.30497e-05
-8.22873e-09
2.30588e-05
-8.29551e-09
2.30675e-05
-8.34956e-09
2.30759e-05
-8.39502e-09
2.30839e-05
-8.43406e-09
2.30915e-05
-8.46664e-09
2.30988e-05
-8.49367e-09
-8.50486e-09
2.31057e-05
1.68118e-05
-2.15902e-09
1.6815e-05
-6.12309e-09
1.68198e-05
-9.36377e-09
1.68258e-05
-1.17343e-08
1.68325e-05
-1.32966e-08
1.68396e-05
-1.42785e-08
1.68469e-05
-1.48677e-08
1.68543e-05
-1.5168e-08
1.68615e-05
-1.52583e-08
1.68686e-05
-1.52108e-08
1.68754e-05
-1.5078e-08
1.6882e-05
-1.4893e-08
1.68883e-05
-1.46763e-08
1.68944e-05
-1.4442e-08
1.69002e-05
-1.41984e-08
1.69056e-05
-1.39506e-08
1.69108e-05
-1.37017e-08
-1.34457e-08
1.69158e-05
1.46356e-05
-3.23688e-09
1.46387e-05
-9.20817e-09
1.46434e-05
-1.40764e-08
1.46492e-05
-1.74759e-08
1.46555e-05
-1.95809e-08
1.4662e-05
-2.08413e-08
1.46687e-05
-2.15273e-08
1.46753e-05
-2.1775e-08
1.46818e-05
-2.17156e-08
1.4688e-05
-2.14653e-08
1.4694e-05
-2.11e-08
1.46998e-05
-2.06642e-08
1.47053e-05
-2.01881e-08
1.47106e-05
-1.96929e-08
1.47156e-05
-1.91918e-08
1.47203e-05
-1.86924e-08
1.47248e-05
-1.81997e-08
-1.77098e-08
1.47291e-05
1.27411e-05
-4.24606e-09
1.27443e-05
-1.23337e-08
1.27491e-05
-1.89058e-08
1.27547e-05
-2.31205e-08
1.27607e-05
-2.55596e-08
1.27669e-05
-2.69973e-08
1.2773e-05
-2.76967e-08
1.27791e-05
-2.78073e-08
1.27849e-05
-2.75361e-08
1.27905e-05
-2.70485e-08
1.27958e-05
-2.6434e-08
1.28009e-05
-2.57442e-08
1.28057e-05
-2.50161e-08
1.28103e-05
-2.42754e-08
1.28146e-05
-2.35376e-08
1.28188e-05
-2.28108e-08
1.28227e-05
-2.21002e-08
-2.14031e-08
1.28264e-05
1.10918e-05
-5.088e-09
1.1095e-05
-1.55539e-08
1.11001e-05
-2.40315e-08
1.11057e-05
-2.87443e-08
1.11115e-05
-3.12931e-08
1.11173e-05
-3.28084e-08
1.1123e-05
-3.34217e-08
1.11285e-05
-3.33153e-08
1.11338e-05
-3.27914e-08
1.11388e-05
-3.20475e-08
1.11435e-05
-3.11753e-08
1.1148e-05
-3.02314e-08
1.11522e-05
-2.92589e-08
1.11562e-05
-2.82865e-08
1.116e-05
-2.73293e-08
1.11636e-05
-2.63955e-08
1.1167e-05
-2.54891e-08
-2.46082e-08
1.11702e-05
9.65581e-06
-5.68747e-09
9.65924e-06
-1.89818e-08
9.66459e-06
-2.93775e-08
9.67008e-06
-3.42407e-08
9.67564e-06
-3.68488e-08
9.68119e-06
-3.83642e-08
9.68652e-06
-3.87504e-08
9.69154e-06
-3.83386e-08
9.69628e-06
-3.75314e-08
9.70076e-06
-3.65228e-08
9.70498e-06
-3.53919e-08
9.70894e-06
-3.41979e-08
9.71267e-06
-3.29887e-08
9.71618e-06
-3.17935e-08
9.71947e-06
-3.06276e-08
9.72258e-06
-2.9498e-08
9.72549e-06
-2.84069e-08
-2.73508e-08
9.72824e-06
8.4053e-06
-5.63387e-09
8.40964e-06
-2.33188e-08
8.41487e-06
-3.46143e-08
8.4199e-06
-3.92667e-08
8.42526e-06
-4.22114e-08
8.43066e-06
-4.37681e-08
8.43574e-06
-4.38314e-08
8.44044e-06
-4.30399e-08
8.44481e-06
-4.18956e-08
8.44886e-06
-4.05746e-08
8.45261e-06
-3.91468e-08
8.45609e-06
-3.76744e-08
8.45931e-06
-3.6207e-08
8.46229e-06
-3.47724e-08
8.46504e-06
-3.33856e-08
8.4676e-06
-3.2053e-08
8.46997e-06
-3.07765e-08
-2.95526e-08
8.47217e-06
7.3145e-06
-2.85085e-09
7.32119e-06
-3.00082e-08
7.32674e-06
-4.01672e-08
7.33169e-06
-4.42134e-08
7.33708e-06
-4.76055e-08
7.3424e-06
-4.90851e-08
7.34727e-06
-4.8705e-08
7.35168e-06
-4.74484e-08
7.35565e-06
-4.58691e-08
7.3592e-06
-4.41254e-08
7.36236e-06
-4.22984e-08
7.36514e-06
-4.04606e-08
7.3676e-06
-3.86645e-08
7.36976e-06
-3.69343e-08
7.37166e-06
-3.52851e-08
7.37333e-06
-3.372e-08
7.37479e-06
-3.22392e-08
-3.08333e-08
7.37607e-06
6.36243e-06
4.78157e-09
6.3719e-06
-3.94712e-08
6.37932e-06
-4.75916e-08
6.38596e-06
-5.0849e-08
6.39223e-06
-5.38847e-08
6.39754e-06
-5.43952e-08
6.40183e-06
-5.29958e-08
6.40531e-06
-5.09252e-08
6.40811e-06
-4.86654e-08
6.41029e-06
-4.63061e-08
6.41192e-06
-4.39267e-08
6.41306e-06
-4.16036e-08
6.41378e-06
-3.93873e-08
6.41414e-06
-3.72966e-08
6.4142e-06
-3.53439e-08
6.41401e-06
-3.35271e-08
6.41362e-06
-3.18465e-08
-3.02814e-08
6.41306e-06
5.54129e-06
8.95268e-09
5.55032e-06
-4.85008e-08
5.55833e-06
-5.56044e-08
5.56604e-06
-5.85543e-08
5.5725e-06
-6.03439e-08
5.57682e-06
-5.87185e-08
5.57906e-06
-5.52345e-08
5.57962e-06
-5.14817e-08
5.57886e-06
-4.79091e-08
5.57707e-06
-4.45175e-08
5.57447e-06
-4.13298e-08
5.57126e-06
-3.83868e-08
5.56757e-06
-3.56964e-08
5.56352e-06
-3.32526e-08
5.55922e-06
-3.10472e-08
5.55477e-06
-2.90691e-08
5.55024e-06
-2.73188e-08
-2.57426e-08
5.5457e-06
4.86019e-06
-2.36305e-08
4.86538e-06
-5.36921e-08
4.86523e-06
-5.54552e-08
4.86217e-06
-5.54906e-08
4.85699e-06
-5.51707e-08
4.84949e-06
-5.12145e-08
4.83979e-06
-4.55399e-08
4.8284e-06
-4.00866e-08
4.81582e-06
-3.53293e-08
4.80254e-06
-3.12363e-08
4.78894e-06
-2.77286e-08
4.77529e-06
-2.47461e-08
4.76181e-06
-2.22088e-08
4.7486e-06
-2.00512e-08
4.73577e-06
-1.82174e-08
4.72339e-06
-1.66837e-08
4.71156e-06
-1.54867e-08
-1.51373e-08
4.70095e-06
4.17905e-06
4.12535e-06
4.0699e-06
4.01441e-06
3.95924e-06
3.90802e-06
3.86248e-06
3.8224e-06
3.78707e-06
3.75583e-06
3.7281e-06
3.70336e-06
3.68115e-06
3.6611e-06
3.64288e-06
3.62619e-06
3.61071e-06
3.59557e-06
1.28132e-08
-1.2838e-08
2.63292e-08
-1.35559e-08
3.48692e-08
-8.56959e-09
3.72728e-08
-2.43648e-09
3.38977e-08
3.35185e-09
2.5748e-08
8.1171e-09
1.40256e-08
1.17045e-08
-2.71978e-10
1.42645e-08
-1.63899e-08
1.61048e-08
-3.39082e-08
1.74877e-08
-5.24912e-08
1.85749e-08
-7.20135e-08
1.9494e-08
-9.23399e-08
2.03224e-08
-1.13463e-07
2.10975e-08
-1.35305e-07
2.18413e-08
-1.57889e-07
2.256e-08
-1.81144e-07
2.32593e-08
-2.05103e-07
2.39366e-08
-2.29692e-07
2.45939e-08
-2.54943e-07
2.52271e-08
-2.80778e-07
2.58411e-08
-3.07245e-07
2.6442e-08
-3.34306e-07
2.7065e-08
-3.62085e-07
2.77542e-08
-3.90706e-07
2.86244e-08
-4.20468e-07
2.97396e-08
-4.50181e-07
2.97201e-08
-4.78262e-07
2.80647e-08
-5.06979e-07
2.87246e-08
-5.38836e-07
3.18465e-08
-5.72953e-07
3.41277e-08
-6.08733e-07
3.57739e-08
-6.45783e-07
3.70612e-08
-6.84248e-07
3.84613e-08
-7.24216e-07
3.99792e-08
-7.65253e-07
4.10358e-08
-8.08186e-07
4.29421e-08
-8.54816e-07
4.66263e-08
-9.07235e-07
5.24259e-08
-9.52161e-07
4.49202e-08
-9.87029e-07
3.48724e-08
-1.02633e-06
3.92947e-08
-1.06766e-06
4.13288e-08
-1.11016e-06
4.24882e-08
-1.15321e-06
4.30584e-08
-1.19653e-06
4.33117e-08
-1.23991e-06
4.33818e-08
-1.28327e-06
4.33455e-08
-1.32651e-06
4.32435e-08
-1.36962e-06
4.30966e-08
-1.41254e-06
4.29195e-08
-1.45527e-06
4.27172e-08
-1.49777e-06
4.2496e-08
-1.54004e-06
4.22559e-08
-1.58204e-06
4.19994e-08
-1.62378e-06
4.17238e-08
-1.66521e-06
4.14305e-08
-1.70634e-06
4.11157e-08
-1.74712e-06
4.078e-08
-1.78756e-06
4.04192e-08
-1.8276e-06
4.00335e-08
-1.86723e-06
3.96188e-08
-1.90641e-06
3.91755e-08
-1.94512e-06
3.86991e-08
-1.98331e-06
3.81905e-08
-2.02097e-06
3.76454e-08
-2.05804e-06
3.70649e-08
-2.0945e-06
3.64451e-08
-2.13029e-06
3.57876e-08
-2.16539e-06
3.50885e-08
-2.19975e-06
3.435e-08
-2.23333e-06
3.35685e-08
-2.26608e-06
3.27463e-08
-2.29797e-06
3.188e-08
-2.32895e-06
3.09728e-08
-2.35899e-06
3.00213e-08
-2.38803e-06
2.90289e-08
-2.41604e-06
2.7993e-08
-2.44296e-06
2.69172e-08
-2.46878e-06
2.57984e-08
-2.49343e-06
2.46405e-08
-2.51689e-06
2.34411e-08
-2.5391e-06
2.22043e-08
-2.56005e-06
2.09271e-08
-2.57967e-06
1.96141e-08
-2.59795e-06
1.82621e-08
-2.61484e-06
1.68746e-08
-2.63029e-06
1.54464e-08
-2.64427e-06
1.39788e-08
-2.65673e-06
1.24678e-08
-2.66764e-06
1.09099e-08
-2.67695e-06
9.29894e-09
-2.68459e-06
7.62837e-09
-2.6905e-06
5.88542e-09
-2.69457e-06
4.05398e-09
-2.69671e-06
2.12564e-09
-2.6969e-06
1.61321e-10
-2.69527e-06
-1.6431e-09
-2.69205e-06
-3.24717e-09
-2.68728e-06
-4.78712e-09
-2.681e-06
-6.30785e-09
-2.6732e-06
-7.82631e-09
-2.66388e-06
-9.34487e-09
-2.65304e-06
-1.08655e-08
-2.64069e-06
-1.23847e-08
-2.62682e-06
-1.39033e-08
-2.61143e-06
-1.54167e-08
-2.59454e-06
-1.69264e-08
-2.57614e-06
-1.8428e-08
-2.55624e-06
-1.99239e-08
-2.53486e-06
-2.14092e-08
-2.512e-06
-2.28869e-08
-2.48767e-06
-2.43518e-08
-2.46189e-06
-2.58077e-08
-2.43466e-06
-2.72487e-08
-2.40601e-06
-2.86796e-08
-2.37594e-06
-3.0093e-08
-2.34446e-06
-3.14938e-08
-2.3116e-06
-3.28749e-08
-2.27737e-06
-3.42433e-08
-2.2418e-06
-3.55944e-08
-2.20492e-06
-3.69341e-08
-2.16671e-06
-3.82521e-08
-2.12722e-06
-3.95539e-08
-2.08644e-06
-4.08266e-08
-2.0444e-06
-4.20819e-08
-2.00111e-06
-4.3309e-08
-1.95661e-06
-4.45251e-08
-1.91091e-06
-4.5695e-08
-1.86407e-06
-4.68457e-08
-1.81606e-06
-4.79822e-08
-1.76694e-06
-4.90943e-08
-1.71672e-06
-5.01661e-08
-1.66546e-06
-5.12079e-08
-1.61317e-06
-5.2214e-08
-1.55989e-06
-5.31999e-08
-1.50563e-06
-5.41529e-08
-1.45044e-06
-5.50806e-08
-1.39433e-06
-5.59751e-08
-1.33735e-06
-5.68429e-08
-1.27953e-06
-5.76807e-08
-1.22091e-06
-5.84908e-08
-1.16153e-06
-5.92728e-08
-1.1014e-06
-6.0025e-08
-1.04057e-06
-6.07463e-08
-9.79055e-07
-6.14337e-08
-9.16901e-07
-6.20882e-08
-8.54139e-07
-6.27064e-08
-7.90807e-07
-6.32905e-08
-7.26939e-07
-6.38365e-08
-6.62576e-07
-6.43469e-08
-5.97754e-07
-6.48157e-08
-5.32517e-07
-6.52452e-08
-4.66908e-07
-6.56279e-08
-4.00973e-07
-6.59669e-08
-3.34759e-07
-6.62556e-08
-2.68313e-07
-6.65011e-08
-2.0169e-07
-6.66852e-08
-1.34953e-07
-6.68119e-08
-6.81508e-08
-6.688e-08
-1.30941e-09
-6.69307e-08
6.56941e-08
-6.70899e-08
1.3273e-07
-6.71291e-08
1.99499e-07
-6.68579e-08
2.65879e-07
-6.64742e-08
3.31789e-07
-6.59981e-08
3.97136e-07
-6.5443e-08
4.61847e-07
-6.47985e-08
5.25821e-07
-6.40684e-08
5.88973e-07
-6.32391e-08
6.51186e-07
-6.23067e-08
7.1234e-07
-6.12406e-08
7.72252e-07
-6.0005e-08
8.30677e-07
-5.85122e-08
8.87193e-07
-5.66115e-08
9.41075e-07
-5.39722e-08
9.90751e-07
-4.97741e-08
1.03271e-06
-4.205e-08
1.05637e-06
-2.37433e-08
2.73455e-08
1.02897e-06
8.59008e-09
-2.14502e-08
1.02067e-08
-1.52004e-08
7.01933e-09
-5.39958e-09
6.21744e-10
3.94449e-09
-8.39291e-09
1.23543e-08
-1.98997e-08
1.9609e-08
-3.38193e-08
2.56139e-08
-5.00023e-08
3.04329e-08
-6.81615e-08
3.42555e-08
-8.80074e-08
3.73191e-08
-1.09287e-07
3.98476e-08
-1.31829e-07
4.20223e-08
-1.55487e-07
4.39745e-08
-1.80195e-07
4.57923e-08
-2.0589e-07
4.75329e-08
-2.32575e-07
4.92332e-08
-2.60236e-07
5.09189e-08
-2.88919e-07
5.26086e-08
-3.18644e-07
5.4318e-08
-3.49489e-07
5.60609e-08
-3.81499e-07
5.7851e-08
-4.14772e-07
5.97033e-08
-4.49352e-07
6.16445e-08
-4.85299e-07
6.36893e-08
-5.22462e-07
6.57869e-08
-5.60533e-07
6.78002e-08
-6.00193e-07
6.93813e-08
-6.42832e-07
7.0695e-08
-6.8668e-07
7.25754e-08
-7.29726e-07
7.48866e-08
-7.72586e-07
7.69922e-08
-8.15558e-07
7.87435e-08
-8.58718e-07
8.0226e-08
-9.0185e-07
8.15924e-08
-9.4504e-07
8.31741e-08
-9.88838e-07
8.48336e-08
-1.0325e-06
8.66025e-08
-1.07454e-06
8.86697e-08
-1.1119e-06
8.97847e-08
-1.15426e-06
8.72791e-08
-1.20325e-06
8.38623e-08
-1.24735e-06
8.33987e-08
-1.2894e-06
8.33713e-08
-1.33026e-06
8.33468e-08
-1.37042e-06
8.32192e-08
-1.41009e-06
8.29793e-08
-1.44936e-06
8.26478e-08
-1.48827e-06
8.22473e-08
-1.52682e-06
8.1796e-08
-1.56503e-06
8.13049e-08
-1.6029e-06
8.07817e-08
-1.64041e-06
8.02296e-08
-1.67757e-06
7.96503e-08
-1.71436e-06
7.90428e-08
-1.75077e-06
7.84058e-08
-1.78679e-06
7.77365e-08
-1.8224e-06
7.70321e-08
-1.85758e-06
7.6289e-08
-1.89231e-06
7.5504e-08
-1.92657e-06
7.46728e-08
-1.96033e-06
7.37925e-08
-1.99358e-06
7.28591e-08
-2.02628e-06
7.18697e-08
-2.05841e-06
7.08206e-08
-2.08993e-06
6.97094e-08
-2.12083e-06
6.85329e-08
-2.15106e-06
6.72892e-08
-2.1806e-06
6.59758e-08
-2.2094e-06
6.45915e-08
-2.23746e-06
6.31341e-08
-2.26471e-06
6.16032e-08
-2.29115e-06
5.9997e-08
-2.31672e-06
5.83158e-08
-2.34141e-06
5.65582e-08
-2.36517e-06
5.4725e-08
-2.38797e-06
5.28156e-08
-2.40978e-06
5.08314e-08
-2.43057e-06
4.87723e-08
-2.4503e-06
4.664e-08
-2.46894e-06
4.44345e-08
-2.48647e-06
4.21581e-08
-2.50285e-06
3.9811e-08
-2.51805e-06
3.73959e-08
-2.53204e-06
3.49129e-08
-2.5448e-06
3.23649e-08
-2.5563e-06
2.97521e-08
-2.56651e-06
2.70767e-08
-2.57541e-06
2.43387e-08
-2.58297e-06
2.15399e-08
-2.58918e-06
1.86818e-08
-2.59404e-06
1.57644e-08
-2.59753e-06
1.279e-08
-2.59968e-06
9.76128e-09
-2.60049e-06
6.68496e-09
-2.60003e-06
3.57577e-09
-2.59838e-06
4.68932e-10
-2.59565e-06
-2.58642e-09
-2.59172e-06
-5.59e-09
-2.58639e-06
-8.58285e-09
-2.57962e-06
-1.15786e-08
-2.57136e-06
-1.4579e-08
-2.56162e-06
-1.75855e-08
-2.55039e-06
-2.05976e-08
-2.53766e-06
-2.36127e-08
-2.52344e-06
-2.66278e-08
-2.50772e-06
-2.96395e-08
-2.49052e-06
-3.26442e-08
-2.47182e-06
-3.56395e-08
-2.45165e-06
-3.86224e-08
-2.43e-06
-4.15911e-08
-2.40688e-06
-4.45431e-08
-2.38231e-06
-4.74768e-08
-2.35629e-06
-5.03898e-08
-2.32883e-06
-5.32811e-08
-2.29994e-06
-5.61484e-08
-2.26965e-06
-5.89909e-08
-2.23795e-06
-6.18057e-08
-2.20486e-06
-6.45906e-08
-2.1704e-06
-6.73441e-08
-2.13459e-06
-7.0068e-08
-2.09744e-06
-7.27621e-08
-2.05897e-06
-7.54264e-08
-2.01921e-06
-7.8055e-08
-1.97815e-06
-8.0645e-08
-1.93582e-06
-8.31899e-08
-1.89223e-06
-8.56925e-08
-1.84741e-06
-8.81495e-08
-1.80138e-06
-9.05662e-08
-1.75415e-06
-9.29294e-08
-1.70574e-06
-9.5248e-08
-1.65619e-06
-9.75239e-08
-1.60551e-06
-9.97519e-08
-1.55374e-06
-1.01914e-07
-1.5009e-06
-1.04013e-07
-1.44702e-06
-1.06053e-07
-1.39213e-06
-1.08041e-07
-1.33625e-06
-1.0997e-07
-1.27943e-06
-1.11842e-07
-1.22167e-06
-1.13652e-07
-1.16304e-06
-1.15404e-07
-1.10354e-06
-1.17097e-07
-1.04324e-06
-1.18731e-07
-9.82143e-07
-1.20306e-07
-9.20294e-07
-1.21821e-07
-8.57722e-07
-1.23272e-07
-7.9446e-07
-1.24657e-07
-7.30541e-07
-1.25973e-07
-6.66002e-07
-1.27219e-07
-6.00879e-07
-1.28392e-07
-5.3521e-07
-1.29493e-07
-4.69035e-07
-1.30514e-07
-4.02397e-07
-1.31455e-07
-3.35339e-07
-1.32308e-07
-2.67911e-07
-1.33071e-07
-2.0016e-07
-1.33734e-07
-1.32144e-07
-1.34298e-07
-6.3914e-08
-1.3476e-07
4.49337e-09
-1.3513e-07
7.30306e-08
-1.35386e-07
1.41607e-07
-1.35501e-07
2.10094e-07
-1.35461e-07
2.78228e-07
-1.35273e-07
3.45897e-07
-1.34846e-07
4.13145e-07
-1.34158e-07
4.79902e-07
-1.33283e-07
5.46095e-07
-1.32246e-07
6.11647e-07
-1.31048e-07
6.76483e-07
-1.29691e-07
7.40523e-07
-1.28163e-07
8.03682e-07
-1.26457e-07
8.65863e-07
-1.24545e-07
9.26948e-07
-1.22384e-07
9.86772e-07
-1.19888e-07
1.0451e-06
-1.16903e-07
1.10156e-06
-1.13126e-07
1.15549e-06
-1.07972e-07
1.2057e-06
-1.00049e-07
1.25024e-06
-8.66452e-08
1.28612e-06
-5.96781e-08
7.95688e-10
1.31262e-06
-1.46678e-09
-1.99998e-08
-9.11529e-09
-7.57048e-09
-1.92941e-08
4.7687e-09
-3.10487e-08
1.56894e-08
-4.41145e-08
2.5413e-08
-5.85182e-08
3.40037e-08
-7.43778e-08
4.14673e-08
-9.17989e-08
4.7845e-08
-1.10796e-07
5.32472e-08
-1.31324e-07
5.78372e-08
-1.53278e-07
6.17964e-08
-1.7656e-07
6.52948e-08
-2.01065e-07
6.8475e-08
-2.26729e-07
7.14478e-08
-2.53496e-07
7.42958e-08
-2.81351e-07
7.70803e-08
-3.10281e-07
7.98475e-08
-3.40315e-07
8.26344e-08
-3.71469e-07
8.5471e-08
-4.03796e-07
8.83809e-08
-4.37325e-07
9.13799e-08
-4.721e-07
9.44713e-08
-5.08092e-07
9.7636e-08
-5.45228e-07
1.00818e-07
-5.83348e-07
1.03907e-07
-6.22317e-07
1.06764e-07
-6.62193e-07
1.09258e-07
-7.02896e-07
1.11393e-07
-7.43723e-07
1.13404e-07
-7.84072e-07
1.15232e-07
-8.23942e-07
1.16864e-07
-8.63486e-07
1.18286e-07
-9.02786e-07
1.19527e-07
-9.41843e-07
1.20648e-07
-9.80396e-07
1.21729e-07
-1.01836e-06
1.228e-07
-1.0554e-06
1.23637e-07
-1.09097e-06
1.24239e-07
-1.12534e-06
1.24156e-07
-1.16112e-06
1.23063e-07
-1.19886e-06
1.21592e-07
-1.23602e-06
1.20564e-07
-1.27245e-06
1.19802e-07
-1.30827e-06
1.19165e-07
-1.34362e-06
1.18558e-07
-1.37858e-06
1.1794e-07
-1.41322e-06
1.17293e-07
-1.44759e-06
1.16614e-07
-1.4817e-06
1.15903e-07
-1.51556e-06
1.1516e-07
-1.54916e-06
1.14385e-07
-1.58251e-06
1.13577e-07
-1.6156e-06
1.12734e-07
-1.64841e-06
1.11852e-07
-1.68094e-06
1.10926e-07
-1.71316e-06
1.09953e-07
-1.74506e-06
1.08928e-07
-1.77662e-06
1.07844e-07
-1.80781e-06
1.06698e-07
-1.83863e-06
1.05484e-07
-1.86904e-06
1.04196e-07
-1.89901e-06
1.0283e-07
-1.92853e-06
1.01382e-07
-1.95756e-06
9.98466e-08
-1.98608e-06
9.82201e-08
-2.01405e-06
9.64989e-08
-2.04144e-06
9.46798e-08
-2.06823e-06
9.27599e-08
-2.09438e-06
9.07369e-08
-2.11986e-06
8.86085e-08
-2.14463e-06
8.63733e-08
-2.16867e-06
8.40299e-08
-2.19193e-06
8.15774e-08
-2.2144e-06
7.90154e-08
-2.23602e-06
7.63438e-08
-2.25677e-06
7.35628e-08
-2.27662e-06
7.06733e-08
-2.29553e-06
6.76762e-08
-2.31346e-06
6.45729e-08
-2.3304e-06
6.13648e-08
-2.3463e-06
5.8054e-08
-2.36114e-06
5.46424e-08
-2.37488e-06
5.11327e-08
-2.3875e-06
4.7527e-08
-2.39897e-06
4.38285e-08
-2.40927e-06
4.00397e-08
-2.41836e-06
3.6164e-08
-2.42623e-06
3.22046e-08
-2.43285e-06
2.81659e-08
-2.43822e-06
2.40521e-08
-2.44233e-06
1.9869e-08
-2.44517e-06
1.5623e-08
-2.44674e-06
1.1323e-08
-2.44704e-06
6.98098e-09
-2.44609e-06
2.61391e-09
-2.44387e-06
-1.75627e-09
-2.44035e-06
-6.11558e-09
-2.43547e-06
-1.04792e-08
-2.4292e-06
-1.48668e-08
-2.42151e-06
-1.92786e-08
-2.41239e-06
-2.371e-08
-2.40183e-06
-2.81566e-08
-2.38983e-06
-3.26143e-08
-2.37638e-06
-3.70775e-08
-2.36148e-06
-4.15418e-08
-2.34514e-06
-4.60012e-08
-2.32734e-06
-5.04519e-08
-2.30811e-06
-5.48889e-08
-2.28743e-06
-5.93094e-08
-2.26533e-06
-6.37087e-08
-2.2418e-06
-6.80851e-08
-2.21685e-06
-7.24343e-08
-2.1905e-06
-7.67548e-08
-2.16275e-06
-8.10429e-08
-2.13361e-06
-8.52978e-08
-2.10309e-06
-8.95156e-08
-2.07122e-06
-9.36945e-08
-2.03798e-06
-9.78304e-08
-2.00341e-06
-1.01923e-07
-1.96751e-06
-1.05971e-07
-1.93031e-06
-1.09977e-07
-1.89183e-06
-1.13936e-07
-1.85206e-06
-1.17845e-07
-1.81104e-06
-1.21696e-07
-1.76877e-06
-1.25487e-07
-1.72526e-06
-1.29214e-07
-1.68055e-06
-1.32879e-07
-1.63464e-06
-1.36481e-07
-1.58755e-06
-1.40017e-07
-1.53931e-06
-1.43485e-07
-1.48995e-06
-1.46887e-07
-1.43947e-06
-1.50215e-07
-1.38791e-06
-1.53456e-07
-1.3353e-06
-1.56607e-07
-1.28165e-06
-1.59673e-07
-1.227e-06
-1.62656e-07
-1.17138e-06
-1.65553e-07
-1.11481e-06
-1.68362e-07
-1.05734e-06
-1.7108e-07
-9.98982e-07
-1.73709e-07
-9.39785e-07
-1.76247e-07
-8.79779e-07
-1.78697e-07
-8.18997e-07
-1.81054e-07
-7.5747e-07
-1.83318e-07
-6.95233e-07
-1.85484e-07
-6.3232e-07
-1.87549e-07
-5.68765e-07
-1.89509e-07
-5.04608e-07
-1.91362e-07
-4.39886e-07
-1.93104e-07
-3.7464e-07
-1.9473e-07
-3.08913e-07
-1.96236e-07
-2.42749e-07
-1.97616e-07
-1.76197e-07
-1.9886e-07
-1.09308e-07
-1.99962e-07
-4.2131e-08
-2.00916e-07
2.52824e-08
-2.01716e-07
9.2861e-08
-2.02347e-07
1.6052e-07
-2.02795e-07
2.28163e-07
-2.03039e-07
2.95709e-07
-2.03055e-07
3.63063e-07
-2.02826e-07
4.30104e-07
-2.02324e-07
4.96744e-07
-2.01499e-07
5.62938e-07
-2.00362e-07
6.28605e-07
-1.98962e-07
6.9367e-07
-1.97321e-07
7.58053e-07
-1.95445e-07
8.21684e-07
-1.93333e-07
8.84485e-07
-1.90977e-07
9.4638e-07
-1.88361e-07
1.00727e-06
-1.85452e-07
1.06706e-06
-1.82181e-07
1.12559e-06
-1.78429e-07
1.18265e-06
-1.73977e-07
1.23792e-06
-1.68414e-07
1.2909e-06
-1.60965e-07
1.34083e-06
-1.5e-07
1.3867e-06
-1.32531e-07
1.4284e-06
-1.0139e-07
-4.16081e-08
1.4708e-06
-9.82113e-09
-1.0192e-08
-2.34873e-08
6.08188e-09
-3.83123e-08
1.95864e-08
-5.38127e-08
3.11825e-08
-6.9942e-08
4.15373e-08
-8.68041e-08
5.08592e-08
-1.04554e-07
5.92123e-08
-1.23352e-07
6.66366e-08
-1.4331e-07
7.32006e-08
-1.6449e-07
7.90101e-08
-1.86893e-07
8.4195e-08
-2.10496e-07
8.88907e-08
-2.35248e-07
9.32235e-08
-2.61109e-07
9.73013e-08
-2.88028e-07
1.01212e-07
-3.1598e-07
1.05025e-07
-3.44928e-07
1.08794e-07
-3.74859e-07
1.12559e-07
-4.05739e-07
1.1635e-07
-4.37544e-07
1.20181e-07
-4.70216e-07
1.24052e-07
-5.0369e-07
1.27941e-07
-5.37851e-07
1.31797e-07
-5.72572e-07
1.35534e-07
-6.07703e-07
1.39039e-07
-6.43132e-07
1.42189e-07
-6.78774e-07
1.449e-07
-7.14548e-07
1.47164e-07
-7.5021e-07
1.49067e-07
-7.8564e-07
1.50658e-07
-8.20764e-07
1.51988e-07
-8.55572e-07
1.53092e-07
-8.90043e-07
1.53999e-07
-9.24144e-07
1.54747e-07
-9.57782e-07
1.55366e-07
-9.90832e-07
1.55848e-07
-1.02329e-06
1.56097e-07
-1.05511e-06
1.56058e-07
-1.08659e-06
1.55628e-07
-1.11833e-06
1.54802e-07
-1.15051e-06
1.53777e-07
-1.18273e-06
1.52782e-07
-1.21479e-06
1.51858e-07
-1.24662e-06
1.50992e-07
-1.27822e-06
1.50156e-07
-1.30961e-06
1.49325e-07
-1.3408e-06
1.48485e-07
-1.37181e-06
1.47624e-07
-1.40265e-06
1.46738e-07
-1.43331e-06
1.45821e-07
-1.4638e-06
1.44869e-07
-1.4941e-06
1.43876e-07
-1.5242e-06
1.42836e-07
-1.5541e-06
1.41745e-07
-1.58377e-06
1.40596e-07
-1.6132e-06
1.39382e-07
-1.64237e-06
1.38096e-07
-1.67126e-06
1.36733e-07
-1.69985e-06
1.35285e-07
-1.72811e-06
1.33745e-07
-1.75603e-06
1.32107e-07
-1.78357e-06
1.30366e-07
-1.81071e-06
1.28515e-07
-1.83741e-06
1.26549e-07
-1.86366e-06
1.24462e-07
-1.88941e-06
1.22251e-07
-1.91465e-06
1.19911e-07
-1.93933e-06
1.17439e-07
-1.96343e-06
1.14831e-07
-1.98691e-06
1.12085e-07
-2.00974e-06
1.092e-07
-2.03188e-06
1.06172e-07
-2.05331e-06
1.03002e-07
-2.07399e-06
9.96889e-08
-2.09388e-06
9.62323e-08
-2.11295e-06
9.26327e-08
-2.13117e-06
8.88913e-08
-2.14851e-06
8.50093e-08
-2.16493e-06
8.09885e-08
-2.1804e-06
7.6831e-08
-2.19489e-06
7.25396e-08
-2.20837e-06
6.81173e-08
-2.22081e-06
6.35672e-08
-2.23218e-06
5.88933e-08
-2.24245e-06
5.40995e-08
-2.25161e-06
4.91903e-08
-2.25962e-06
4.41706e-08
-2.26647e-06
3.9046e-08
-2.27212e-06
3.38224e-08
-2.27658e-06
2.85072e-08
-2.27981e-06
2.31077e-08
-2.28183e-06
1.76333e-08
-2.28261e-06
1.20942e-08
-2.28214e-06
6.5026e-09
-2.2804e-06
8.71699e-10
-2.27738e-06
-4.78622e-09
-2.27304e-06
-1.0467e-08
-2.26734e-06
-1.61788e-08
-2.26029e-06
-2.1929e-08
-2.25186e-06
-2.7715e-08
-2.24205e-06
-3.35304e-08
-2.23085e-06
-3.93681e-08
-2.21825e-06
-4.52217e-08
-2.20426e-06
-5.10834e-08
-2.18887e-06
-5.69471e-08
-2.17208e-06
-6.28054e-08
-2.15389e-06
-6.8653e-08
-2.1343e-06
-7.44837e-08
-2.11333e-06
-8.02934e-08
-2.09097e-06
-8.60764e-08
-2.06724e-06
-9.18299e-08
-2.04213e-06
-9.75486e-08
-2.01566e-06
-1.03231e-07
-1.98785e-06
-1.08871e-07
-1.95868e-06
-1.14469e-07
-1.92819e-06
-1.20019e-07
-1.89637e-06
-1.25519e-07
-1.86324e-06
-1.30965e-07
-1.82881e-06