/*--------------------------------*- C++ -*----------------------------------*\
  =========                 |
  \\      /  F ield         | OpenFOAM: The Open Source CFD Toolbox
   \\    /   O peration     | Website:  https://openfoam.org
    \\  /    A nd           | Version:  8
     \\/     M anipulation  |
\*---------------------------------------------------------------------------*/
FoamFile
{
    version     2.0;
    format      ascii;
    class       volVectorField;
    location    "235";
    object      U;
}
// * * * * * * * * * * * * * * * * * * * * * * * * * * * * * * * * * * * * * //

dimensions      [0 1 -1 0 0 0 0];

internalField   nonuniform List<vector> 
12225
(
(9.85699 -0.886639 0)
(9.6663 -0.740717 0)
(9.45578 -0.429421 0)
(9.22453 -0.222145 0)
(9.00651 -0.106398 0)
(8.8144 -0.0458153 0)
(8.64753 -0.0151262 0)
(8.50535 0.000490435 0)
(8.3837 0.00841892 0)
(8.28095 0.0123069 0)
(8.19258 0.0140032 0)
(8.11641 0.0150306 0)
(8.04974 0.0153787 0)
(7.99072 0.0156161 0)
(7.93778 0.0154554 0)
(7.89134 0.0162066 0)
(7.83792 0.0194079 0)
(7.82871 0.0105501 0)
(10.0545 0.227709 0)
(10.1213 0.326964 0)
(10.1196 0.261653 0)
(10.0856 0.186592 0)
(10.0434 0.134698 0)
(9.99674 0.101135 0)
(9.94402 0.0792977 0)
(9.88529 0.0645734 0)
(9.82394 0.0542631 0)
(9.76144 0.046672 0)
(9.69999 0.0409039 0)
(9.6402 0.0363428 0)
(9.58291 0.0326837 0)
(9.52861 0.0298023 0)
(9.47674 0.0273255 0)
(9.42935 0.0260825 0)
(9.38151 0.0227706 0)
(9.34656 0.0323141 0)
(10.0035 0.0581555 0)
(10.0305 0.0559511 0)
(10.056 0.0337762 0)
(10.0703 0.0328894 0)
(10.077 0.0406382 0)
(10.0779 0.0465365 0)
(10.0726 0.0493509 0)
(10.0614 0.0502956 0)
(10.0462 0.0501925 0)
(10.0278 0.0494778 0)
(10.0073 0.048432 0)
(9.98509 0.0472667 0)
(9.96199 0.0460753 0)
(9.93839 0.0449998 0)
(9.9145 0.0439074 0)
(9.89115 0.0435022 0)
(9.86794 0.0425999 0)
(9.84615 0.0443763 0)
(9.99772 0.0109494 0)
(10.0111 0.0266209 0)
(10.035 0.037124 0)
(10.0525 0.0480684 0)
(10.0644 0.0554389 0)
(10.0734 0.0581726 0)
(10.0795 0.058343 0)
(10.0824 0.0576011 0)
(10.0828 0.0565517 0)
(10.0813 0.0553552 0)
(10.0782 0.0540816 0)
(10.0739 0.0528514 0)
(10.0685 0.0516562 0)
(10.0625 0.0506041 0)
(10.0557 0.0495825 0)
(10.0488 0.0490215 0)
(10.0418 0.0482796 0)
(10.0349 0.0484076 0)
(9.99935 0.00710094 0)
(10.009 0.0316964 0)
(10.0275 0.0439098 0)
(10.0418 0.0499118 0)
(10.0528 0.0536022 0)
(10.0629 0.0552265 0)
(10.0716 0.055506 0)
(10.0784 0.0552156 0)
(10.0835 0.0546712 0)
(10.0873 0.0539662 0)
(10.0902 0.0531553 0)
(10.0921 0.0523349 0)
(10.0933 0.051519 0)
(10.0939 0.0507841 0)
(10.0941 0.0500807 0)
(10.0941 0.0496198 0)
(10.094 0.0490901 0)
(10.0939 0.0487763 0)
(10.0003 0.00915012 0)
(10.0083 0.0312127 0)
(10.0227 0.0409471 0)
(10.035 0.0453896 0)
(10.0451 0.0490322 0)
(10.0548 0.051365 0)
(10.0638 0.052344 0)
(10.0714 0.0525752 0)
(10.0779 0.0524389 0)
(10.0835 0.0520733 0)
(10.0883 0.0515546 0)
(10.0925 0.050971 0)
(10.0962 0.0503577 0)
(10.0994 0.0497685 0)
(10.1023 0.0491887 0)
(10.105 0.0487072 0)
(10.1077 0.0481721 0)
(10.1103 0.0475739 0)
(10.0004 0.00892464 0)
(10.0071 0.0271132 0)
(10.0191 0.0364181 0)
(10.0302 0.041391 0)
(10.0396 0.0454097 0)
(10.0487 0.0480714 0)
(10.0573 0.0493369 0)
(10.065 0.0498028 0)
(10.0717 0.0498717 0)
(10.0779 0.0496897 0)
(10.0834 0.049335 0)
(10.0885 0.0488848 0)
(10.0931 0.0483825 0)
(10.0974 0.0478657 0)
(10.1014 0.0473328 0)
(10.1053 0.0468113 0)
(10.1091 0.046214 0)
(10.1129 0.0454559 0)
(10.0004 0.00790184 0)
(10.006 0.0233898 0)
(10.0161 0.0327394 0)
(10.0263 0.0381021 0)
(10.0351 0.0420916 0)
(10.0436 0.0447702 0)
(10.0518 0.0461762 0)
(10.0592 0.0468044 0)
(10.066 0.04702 0)
(10.0722 0.0469681 0)
(10.0779 0.0467274 0)
(10.0833 0.046368 0)
(10.0883 0.0459353 0)
(10.093 0.0454575 0)
(10.0975 0.0449369 0)
(10.1019 0.0443724 0)
(10.1062 0.0437058 0)
(10.1104 0.0428541 0)
(10.0004 0.00695224 0)
(10.005 0.0204271 0)
(10.0137 0.0294547 0)
(10.0229 0.0348599 0)
(10.0312 0.0387058 0)
(10.0392 0.0413624 0)
(10.0469 0.0428884 0)
(10.054 0.0436553 0)
(10.0607 0.0439866 0)
(10.0668 0.0440326 0)
(10.0726 0.0438743 0)
(10.078 0.0435772 0)
(10.0831 0.043186 0)
(10.088 0.0427245 0)
(10.0927 0.0421954 0)
(10.0972 0.0415882 0)
(10.1016 0.0408599 0)
(10.106 0.0399523 0)
(10.0004 0.00612518 0)
(10.0043 0.0178567 0)
(10.0116 0.0262739 0)
(10.0199 0.0315776 0)
(10.0277 0.0352978 0)
(10.0351 0.0379184 0)
(10.0424 0.0395234 0)
(10.0493 0.0403924 0)
(10.0557 0.0408096 0)
(10.0618 0.0409278 0)
(10.0674 0.040829 0)
(10.0728 0.0405748 0)
(10.078 0.0402076 0)
(10.0829 0.0397495 0)
(10.0876 0.039204 0)
(10.0921 0.0385598 0)
(10.0966 0.0377859 0)
(10.1009 0.0368497 0)
(10.0003 0.00536727 0)
(10.0037 0.0155457 0)
(10.0099 0.0232335 0)
(10.0173 0.0283395 0)
(10.0245 0.0319177 0)
(10.0315 0.0344612 0)
(10.0384 0.0360908 0)
(10.045 0.0370231 0)
(10.0512 0.0375 0)
(10.0571 0.0376698 0)
(10.0626 0.0376137 0)
(10.0679 0.0373889 0)
(10.073 0.0370358 0)
(10.0778 0.0365759 0)
(10.0825 0.0360144 0)
(10.087 0.0353435 0)
(10.0914 0.0345424 0)
(10.0956 0.0335993 0)
(10.0003 0.00470309 0)
(10.0032 0.0136048 0)
(10.0086 0.0205855 0)
(10.0152 0.0254257 0)
(10.0219 0.0288377 0)
(10.0285 0.0312753 0)
(10.0351 0.0328851 0)
(10.0414 0.0338432 0)
(10.0474 0.034353 0)
(10.0531 0.0345531 0)
(10.0585 0.0345227 0)
(10.0637 0.0343157 0)
(10.0687 0.0339702 0)
(10.0734 0.0335076 0)
(10.078 0.0329354 0)
(10.0824 0.0322505 0)
(10.0867 0.03144 0)
(10.0908 0.0305077 0)
(10.0003 0.00408871 0)
(10.0028 0.0118356 0)
(10.0075 0.018085 0)
(10.0134 0.0225833 0)
(10.0197 0.0257945 0)
(10.0259 0.0281007 0)
(10.0321 0.0296583 0)
(10.0381 0.0306151 0)
(10.0439 0.0311394 0)
(10.0494 0.0313563 0)
(10.0547 0.0313419 0)
(10.0598 0.0311468 0)
(10.0647 0.0308069 0)
(10.0693 0.0303437 0)
(10.0738 0.0297671 0)
(10.0781 0.0290787 0)
(10.0822 0.0282718 0)
(10.0862 0.0273619 0)
(10.0002 0.00345401 0)
(10.0024 0.00999727 0)
(10.0064 0.0154032 0)
(10.0117 0.0194345 0)
(10.0174 0.0223613 0)
(10.0232 0.0244762 0)
(10.029 0.0259308 0)
(10.0347 0.0268484 0)
(10.0403 0.0273623 0)
(10.0456 0.0275796 0)
(10.0508 0.0275704 0)
(10.0557 0.0273812 0)
(10.0604 0.0270454 0)
(10.0649 0.0265844 0)
(10.0693 0.0260103 0)
(10.0735 0.0253294 0)
(10.0774 0.0245406 0)
(10.0813 0.0236676 0)
(10.0002 0.00279492 0)
(10.002 0.00808797 0)
(10.0055 0.0125502 0)
(10.0101 0.0159846 0)
(10.0153 0.0185249 0)
(10.0206 0.020373 0)
(10.026 0.0216605 0)
(10.0314 0.0224874 0)
(10.0367 0.0229542 0)
(10.0418 0.0231471 0)
(10.0468 0.0231267 0)
(10.0515 0.0229347 0)
(10.0561 0.0226006 0)
(10.0605 0.0221455 0)
(10.0647 0.0215829 0)
(10.0687 0.0209227 0)
(10.0725 0.0201685 0)
(10.0762 0.0193482 0)
(10.0002 0.00211074 0)
(10.0017 0.00610967 0)
(10.0047 0.00953467 0)
(10.0087 0.0122387 0)
(10.0134 0.0142731 0)
(10.0183 0.0157618 0)
(10.0233 0.0168034 0)
(10.0283 0.0174736 0)
(10.0333 0.0178438 0)
(10.0382 0.0179775 0)
(10.0429 0.0179229 0)
(10.0475 0.0177147 0)
(10.0519 0.0173779 0)
(10.0561 0.0169315 0)
(10.0601 0.0163896 0)
(10.064 0.0157637 0)
(10.0676 0.0150599 0)
(10.0711 0.0143073 0)
(10.0002 0.00139853 0)
(10.0015 0.00404829 0)
(10.0041 0.00634035 0)
(10.0076 0.00817965 0)
(10.0118 0.00957771 0)
(10.0163 0.0105987 0)
(10.0209 0.0113031 0)
(10.0256 0.0117398 0)
(10.0303 0.0119536 0)
(10.035 0.0119852 0)
(10.0395 0.0118678 0)
(10.0438 0.0116262 0)
(10.048 0.0112797 0)
(10.0521 0.0108434 0)
(10.0559 0.0103296 0)
(10.0596 0.00974923 0)
(10.0631 0.00910871 0)
(10.0665 0.00843526 0)
(10.0001 0.000641845 0)
(10.0013 0.00185204 0)
(10.0036 0.00289511 0)
(10.0069 0.00372758 0)
(10.0107 0.0043481 0)
(10.0148 0.00477896 0)
(10.0192 0.00504301 0)
(10.0237 0.00516009 0)
(10.0281 0.0051495 0)
(10.0325 0.00502949 0)
(10.0368 0.0048156 0)
(10.041 0.00452048 0)
(10.045 0.00415469 0)
(10.0489 0.00372745 0)
(10.0526 0.00324693 0)
(10.0561 0.00272113 0)
(10.0595 0.00215472 0)
(10.0627 0.00157058 0)
(10.0001 -0.000202399 0)
(10.0012 -0.000601097 0)
(10.0034 -0.000974309 0)
(10.0066 -0.00130991 0)
(10.0102 -0.00160896 0)
(10.0143 -0.00188552 0)
(10.0185 -0.00215745 0)
(10.0228 -0.00243686 0)
(10.0271 -0.00273106 0)
(10.0314 -0.0030456 0)
(10.0355 -0.00338475 0)
(10.0396 -0.00375075 0)
(10.0435 -0.00414417 0)
(10.0472 -0.00456415 0)
(10.0508 -0.00500904 0)
(10.0542 -0.0054759 0)
(10.0574 -0.00596363 0)
(10.0605 -0.00645588 0)
(10.0001 -0.00101007 0)
(10.0013 -0.00295494 0)
(10.0037 -0.00469356 0)
(10.007 -0.00614254 0)
(10.0108 -0.00730015 0)
(10.015 -0.00822622 0)
(10.0193 -0.00898216 0)
(10.0237 -0.00960994 0)
(10.028 -0.0101438 0)
(10.0323 -0.0106152 0)
(10.0365 -0.0110487 0)
(10.0405 -0.011461 0)
(10.0443 -0.011863 0)
(10.048 -0.012262 0)
(10.0515 -0.0126628 0)
(10.0548 -0.0130676 0)
(10.058 -0.0134786 0)
(10.061 -0.0138857 0)
(10.0002 -0.00170654 0)
(10.0015 -0.00501066 0)
(10.0041 -0.00794406 0)
(10.0078 -0.0103007 0)
(10.012 -0.0121032 0)
(10.0164 -0.0135017 0)
(10.021 -0.0146023 0)
(10.0255 -0.015462 0)
(10.03 -0.0161376 0)
(10.0344 -0.0166875 0)
(10.0386 -0.0171562 0)
(10.0426 -0.017572 0)
(10.0465 -0.0179541 0)
(10.0501 -0.0183161 0)
(10.0536 -0.0186671 0)
(10.057 -0.0190126 0)
(10.0601 -0.0193566 0)
(10.0631 -0.0196928 0)
(10.0002 -0.00236784 0)
(10.0016 -0.00704188 0)
(10.0047 -0.0111925 0)
(10.009 -0.0143673 0)
(10.0137 -0.0166683 0)
(10.0185 -0.0184063 0)
(10.0234 -0.0197412 0)
(10.0282 -0.0207439 0)
(10.0328 -0.0214958 0)
(10.0373 -0.022078 0)
(10.0416 -0.0225468 0)
(10.0457 -0.0229387 0)
(10.0496 -0.0232803 0)
(10.0533 -0.0235907 0)
(10.0568 -0.023883 0)
(10.0601 -0.0241649 0)
(10.0633 -0.0244418 0)
(10.0662 -0.0247096 0)
(10.0002 -0.00298634 0)
(10.0018 -0.00909927 0)
(10.0054 -0.0144643 0)
(10.0105 -0.0183586 0)
(10.0159 -0.0211066 0)
(10.0211 -0.0231324 0)
(10.0263 -0.0245914 0)
(10.0314 -0.0256086 0)
(10.0363 -0.0263384 0)
(10.0409 -0.0268904 0)
(10.0453 -0.0273211 0)
(10.0494 -0.0276661 0)
(10.0534 -0.0279545 0)
(10.0571 -0.0282088 0)
(10.0606 -0.028443 0)
(10.0639 -0.0286654 0)
(10.0671 -0.0288817 0)
(10.07 -0.0290895 0)
(10.0001 -0.00353001 0)
(10.0018 -0.0115559 0)
(10.0062 -0.017902 0)
(10.0123 -0.0220033 0)
(10.0183 -0.0250726 0)
(10.024 -0.0274846 0)
(10.0296 -0.0291254 0)
(10.035 -0.0301381 0)
(10.0401 -0.030793 0)
(10.0449 -0.0312548 0)
(10.0494 -0.0315911 0)
(10.0536 -0.0318423 0)
(10.0576 -0.0320423 0)
(10.0613 -0.0322149 0)
(10.0649 -0.0323735 0)
(10.0682 -0.0325254 0)
(10.0713 -0.0326742 0)
(10.0742 -0.0328168 0)
(9.99991 -0.00337382 0)
(10.0016 -0.0149877 0)
(10.0073 -0.022744 0)
(10.0142 -0.026255 0)
(10.0206 -0.028842 0)
(10.0268 -0.0312089 0)
(10.0331 -0.032932 0)
(10.039 -0.0340222 0)
(10.0444 -0.034724 0)
(10.0494 -0.0351897 0)
(10.054 -0.0354895 0)
(10.0583 -0.0356776 0)
(10.0623 -0.0358 0)
(10.066 -0.0358877 0)
(10.0694 -0.0359586 0)
(10.0726 -0.0360227 0)
(10.0755 -0.0360848 0)
(10.0782 -0.0361435 0)
(9.99859 -0.000381092 0)
(9.99903 -0.0157982 0)
(10.0076 -0.0274405 0)
(10.0166 -0.0324985 0)
(10.0238 -0.0348757 0)
(10.0306 -0.0362332 0)
(10.0376 -0.036987 0)
(10.0441 -0.0374562 0)
(10.0499 -0.0378069 0)
(10.055 -0.0380558 0)
(10.0595 -0.0382023 0)
(10.0636 -0.0382716 0)
(10.0672 -0.0382934 0)
(10.0703 -0.0382891 0)
(10.0731 -0.0382737 0)
(10.0755 -0.0382559 0)
(10.0776 -0.0382394 0)
(10.0795 -0.0382222 0)
(9.99487 0.00140615 0)
(9.99287 -0.00812409 0)
(10.006 -0.0203333 0)
(10.0202 -0.032267 0)
(10.0307 -0.0404751 0)
(10.0392 -0.0441505 0)
(10.0467 -0.0450657 0)
(10.0529 -0.0449242 0)
(10.0578 -0.0444598 0)
(10.0616 -0.0438654 0)
(10.0646 -0.0432224 0)
(10.0668 -0.0425869 0)
(10.0682 -0.0419933 0)
(10.069 -0.04145 0)
(10.0694 -0.0409659 0)
(10.0692 -0.0405387 0)
(10.0688 -0.0401652 0)
(10.068 -0.0398192 0)
(9.9947 -0.030577 0)
(9.99943 -0.0228503 0)
(10.0146 -0.00262091 0)
(10.0304 -0.0019027 0)
(10.0434 -0.0116558 0)
(10.0533 -0.0209229 0)
(10.0594 -0.027283 0)
(10.0618 -0.0315117 0)
(10.0615 -0.0342881 0)
(10.059 -0.0359857 0)
(10.055 -0.0369187 0)
(10.0497 -0.037353 0)
(10.0434 -0.037479 0)
(10.0364 -0.0374172 0)
(10.0289 -0.0372561 0)
(10.0209 -0.0370538 0)
(10.0128 -0.0368736 0)
(10.0046 -0.0366829 0)
(10.0274 -0.183007 0)
(10.0766 -0.288324 0)
(10.0871 -0.247821 0)
(10.0777 -0.186559 0)
(10.0663 -0.140324 0)
(10.0537 -0.108243 0)
(10.0365 -0.085896 0)
(10.0145 -0.0704374 0)
(9.98935 -0.0596661 0)
(9.96231 -0.0518895 0)
(9.93434 -0.0460666 0)
(9.90602 -0.0415685 0)
(9.87784 -0.0380119 0)
(9.85013 -0.0351352 0)
(9.82313 -0.0327718 0)
(9.79696 -0.0308478 0)
(9.77186 -0.0293287 0)
(9.74786 -0.0285123 0)
(9.93575 0.689541 0)
(9.86828 0.609595 0)
(9.76458 0.380606 0)
(9.62662 0.217411 0)
(9.48588 0.119242 0)
(9.35718 0.0631599 0)
(9.24266 0.0315477 0)
(9.14108 0.0135962 0)
(9.05141 0.00324263 0)
(8.97242 -0.00281793 0)
(8.90252 -0.00637117 0)
(8.84033 -0.00848937 0)
(8.78463 -0.00973584 0)
(8.73451 -0.0104937 0)
(8.68908 -0.0109745 0)
(8.64773 -0.0112509 0)
(8.60954 -0.0114751 0)
(8.57419 -0.0121136 0)
(0.00579479 -0.0134865 -7.56763e-19)
(0.0182515 -0.0190171 6.2999e-19)
(0.0281088 -0.0146037 0)
(0.0331892 -0.0066313 0)
(0.0327428 0.00144613 0)
(0.0273795 0.00796923 -3.11147e-19)
(0.0183251 0.0125106 0)
(0.00655526 0.0153396 0)
(-0.007104 0.0169491 0)
(-0.0221338 0.0178576 0)
(-0.0382518 0.0184499 1.7155e-19)
(-0.0552578 0.0189329 0)
(-0.0730448 0.0194156 0)
(-0.0915588 0.0199418 0)
(-0.110765 0.0205315 0)
(-0.130645 0.021183 1.02017e-19)
(-0.151179 0.0218897 0)
(-0.172351 0.0226234 0)
(-0.194139 0.0233417 0)
(-0.216517 0.0239672 0)
(-0.239468 0.0244046 0)
(-0.262998 0.0245428 0)
(-0.287133 0.0243124 0)
(-0.311864 0.0236319 7.4566e-20)
(-0.337204 0.0225156 -7.41307e-20)
(-0.363236 0.0207251 7.35598e-20)
(-0.389986 0.0139496 7.17515e-20)
(-0.417115 0.0022507 0)
(-0.442567 5.79698e-05 0)
(-0.46894 0.00673013 -6.29833e-20)
(-0.499244 0.0110162 -6.04847e-20)
(-0.531134 0.0145468 0)
(-0.564306 0.0183808 0)
(-0.598558 0.0242108 -5.34168e-20)
(-0.634414 0.0322 0)
(-0.671452 0.0422282 0)
(-0.71047 0.0577599 4.7607e-20)
(-0.751443 0.0785533 0)
(-0.794446 0.101133 4.92627e-20)
(-0.838327 0.0732985 1.18374e-19)
(-0.878266 0.0290308 0)
(-0.910491 0.0322649 0)
(-0.947922 0.0331934 0)
(-0.986333 0.0341167 0)
(-1.02574 0.0345115 0)
(-1.06556 0.0346159 1.07788e-19)
(-1.10558 0.034531 1.04821e-19)
(-1.14567 0.0343462 1.02039e-19)
(-1.18574 0.0341013 0)
(-1.22576 0.0338198 -9.69736e-20)
(-1.26568 0.0335154 0)
(-1.3055 0.0331941 9.24829e-20)
(-1.34517 0.0328616 9.04232e-20)
(-1.3847 0.0325187 0)
(-1.42406 0.0321678 0)
(-1.46324 0.0318072 0)
(-1.50222 0.0314377 8.31966e-20)
(-1.54098 0.0310572 0)
(-1.57951 0.0306659 0)
(-1.61778 0.0302608 0)
(-1.65578 0.0298422 0)
(-1.69346 0.0294075 0)
(-1.73082 0.0289568 0)
(-1.76782 0.0284872 0)
(-1.80443 0.0279994 0)
(-1.84062 0.0274908 -7.1022e-20)
(-1.87635 0.0269622 0)
(-1.9116 0.0264115 0)
(-1.94632 0.0258396 6.77712e-20)
(-1.98048 0.0252447 6.6748e-20)
(-2.01405 0.0246282 0)
(-2.04697 0.0239881 -6.47763e-20)
(-2.07921 0.0233263 6.38228e-20)
(-2.11074 0.0226411 0)
(-2.14151 0.0219345 -6.19691e-20)
(-2.17148 0.0212049 0)
(-2.20062 0.0204549 0)
(-2.22887 0.0196833 5.92895e-20)
(-2.25621 0.0188924 0)
(-2.28258 0.0180809 -5.75473e-20)
(-2.30795 0.0172514 0)
(-2.33228 0.0164028 5.58234e-20)
(-2.35553 0.0155373 5.49641e-20)
(-2.37767 0.0146534 5.41043e-20)
(-2.39865 0.0137531 1.06485e-19)
(-2.41844 0.0128349 -1.04754e-19)
(-2.437 0.0119004 0)
(-2.45428 0.0109469 0)
(-2.47026 0.00997429 0)
(-2.48487 0.00897648 -9.77003e-20)
(-2.4981 0.00794542 -9.58943e-20)
(-2.50988 0.0068695 9.40671e-20)
(-2.52017 0.00573884 0)
(-2.52889 0.00454691 -9.03405e-20)
(-2.53598 0.00330171 -8.84395e-20)
(-2.54135 0.0020403 -8.65138e-20)
(-2.5449 0.000847782 0)
(-2.54652 -0.00017686 0)
(-2.54669 -0.00106642 0)
(-2.5454 -0.00191496 -7.83659e-20)
(-2.54267 -0.00274562 0)
(-2.53853 -0.00356756 0)
(-2.53295 -0.00438187 7.17248e-20)
(-2.52595 -0.00518931 0)
(-2.5175 -0.00598833 0)
(-2.50762 -0.00677906 6.45768e-20)
(-2.49628 -0.00755969 0)
(-2.4835 -0.00833084 0)
(-2.46927 -0.00909083 -5.68719e-20)
(-2.4536 -0.00984073 -5.41711e-20)
(-2.43649 -0.0105787 0)
(-2.41794 -0.0113063 4.85593e-20)
(-2.39796 -0.0120214 0)
(-2.37655 -0.0127259 -4.26522e-20)
(-2.35373 -0.0134175 0)
(-2.32949 -0.0140986 -3.64307e-20)
(-2.30384 -0.0147664 -3.31953e-20)
(-2.2768 -0.0154239 0)
(-2.24836 -0.0160685 0)
(-2.21855 -0.0167043 0)
(-2.18738 -0.0173295 0)
(-2.15487 -0.0179467 0)
(-2.12102 -0.0185517 0)
(-2.08585 -0.019147 0)
(-2.04935 -0.0197282 -3.85981e-21)
(-2.01154 -0.0203021 -3.06614e-22)
(-1.97244 -0.0208658 0)
(-1.93206 -0.0214326 0)
(-1.89041 -0.0219582 0)
(-1.84754 -0.0224815 0)
(-1.80343 -0.023026 -4.6508e-20)
(-1.75811 -0.0235497 0)
(-1.71161 -0.0240592 6.71913e-20)
(-1.66395 -0.024564 -7.81262e-20)
(-1.61516 -0.0250624 0)
(-1.56526 -0.0255619 0)
(-1.51426 -0.0260573 0)
(-1.4622 -0.0265526 1.26494e-19)
(-1.40909 -0.0270464 1.39926e-19)
(-1.35496 -0.0275432 0)
(-1.29984 -0.0280426 1.68691e-19)
(-1.24377 -0.0285476 1.84125e-19)
(-1.18678 -0.0290593 -2.00337e-19)
(-1.12887 -0.029579 0)
(-1.07009 -0.0301073 0)
(-1.01045 -0.0306448 -2.54332e-19)
(-0.949985 -0.031193 0)
(-0.888722 -0.0317522 0)
(-0.82669 -0.0323243 0)
(-0.763921 -0.0329091 0)
(-0.700446 -0.0335079 3.67778e-19)
(-0.636299 -0.034119 3.95109e-19)
(-0.571516 -0.0347425 0)
(-0.506133 -0.0353762 4.55808e-19)
(-0.440192 -0.0360213 0)
(-0.373736 -0.0366765 0)
(-0.306808 -0.0373437 5.65722e-19)
(-0.239449 -0.0380172 0)
(-0.171716 -0.0386995 6.55573e-19)
(-0.103706 -0.0393535 0)
(-0.0354826 -0.0397764 0)
(0.0331144 -0.0394695 7.60357e-19)
(0.102177 -0.0385951 0)
(0.171279 -0.0376442 7.18283e-19)
(0.2403 -0.0367041 0)
(0.309128 -0.0357779 0)
(0.377673 -0.0348658 0)
(0.445849 -0.0339601 -6.54692e-19)
(0.513567 -0.0330579 0)
(0.580733 -0.0321512 6.2985e-19)
(0.647241 -0.0312351 0)
(0.712969 -0.0302961 0)
(0.777764 -0.0293178 0)
(0.841398 -0.0282664 0)
(0.903571 -0.0270836 0)
(0.963523 -0.0256527 0)
(1.02083 -0.0236683 0)
(1.06998 -0.0204674 -1.13027e-18)
(1.11729 -0.0138589 0)
(1.10219 0.00464098 0)
(0.00484231 -0.0371441 1.72858e-18)
(0.00938427 -0.0325039 -9.48842e-19)
(0.00828938 -0.0172673 0)
(0.00395763 -0.00179026 2.9575e-19)
(-0.00284223 0.0121355 0)
(-0.0119649 0.0237224 1.11783e-19)
(-0.0233284 0.0327538 -2.03434e-19)
(-0.0367951 0.0394688 -1.86958e-19)
(-0.0521566 0.0443515 0)
(-0.0691498 0.0479342 -1.5957e-19)
(-0.0875308 0.0506702 -7.4074e-20)
(-0.107114 0.0528811 0)
(-0.127762 0.0547724 0)
(-0.149386 0.0564624 0)
(-0.171932 0.0580169 0)
(-0.195378 0.0594671 -5.44265e-20)
(-0.219721 0.0608296 0)
(-0.244977 0.0621083 9.98737e-20)
(-0.271175 0.063308 0)
(-0.298363 0.0644316 0)
(-0.326606 0.0654953 -9.23084e-20)
(-0.355979 0.0665332 0)
(-0.38653 0.0676326 9.05766e-20)
(-0.418306 0.0688985 -4.5313e-20)
(-0.451314 0.0704212 4.55271e-20)
(-0.485248 0.0722528 -4.57866e-20)
(-0.520527 0.0740957 -4.57292e-20)
(-0.557652 0.0759688 0)
(-0.596738 0.0781962 0)
(-0.636463 0.0809088 4.38569e-20)
(-0.675344 0.0834526 -4.23943e-20)
(-0.714369 0.085307 0)
(-0.7536 0.0865774 0)
(-0.793077 0.0874211 3.67004e-20)
(-0.832036 0.0883138 0)
(-0.87175 0.0882135 0)
(-0.911524 0.0874962 -3.35047e-20)
(-0.950176 0.0871018 0)
(-0.98633 0.086849 3.20887e-20)
(-1.02496 0.0862295 -6.65087e-20)
(-1.06636 0.0863859 0)
(-1.10886 0.0880503 0)
(-1.14844 0.0889039 -1.2376e-19)
(-1.18661 0.0890309 -1.21041e-19)
(-1.22403 0.0887256 -1.18454e-19)
(-1.26097 0.0881389 5.78381e-20)
(-1.29757 0.087376 -5.69842e-20)
(-1.33387 0.0864996 -1.67309e-19)
(-1.3699 0.0855516 1.09324e-19)
(-1.40567 0.0845557 5.38048e-20)
(-1.44119 0.083528 0)
(-1.47644 0.0824759 -5.1923e-20)
(-1.51142 0.0814053 5.07467e-20)
(-1.54612 0.0803168 0)
(-1.58054 0.0792115 0)
(-1.61466 0.0780869 0)
(-1.64847 0.0769424 -4.7853e-20)
(-1.68195 0.0757744 0)
(-1.71508 0.0745816 9.25636e-20)
(-1.74785 0.0733598 0)
(-1.78024 0.072108 8.98869e-20)
(-1.81221 0.0708223 0)
(-1.84375 0.0695017 -8.73596e-20)
(-1.87483 0.0681428 0)
(-1.90543 0.0667451 8.49569e-20)
(-1.93552 0.0653058 -4.17704e-20)
(-1.96507 0.0638251 0)
(-1.99405 0.0623007 -8.15385e-20)
(-2.02242 0.0607336 -4.03377e-20)
(-2.05017 0.0591219 -3.97924e-20)
(-2.07726 0.0574674 0)
(-2.10365 0.0557685 -3.85045e-20)
(-2.12932 0.0540275 -3.81924e-20)
(-2.15423 0.0522434 0)
(-2.17836 0.0504189 3.71455e-20)
(-2.20166 0.0485534 -7.3066e-20)
(-2.22412 0.0466502 0)
(-2.24568 0.0447093 -3.55857e-20)
(-2.26633 0.0427341 0)
(-2.28604 0.0407243 1.03482e-19)
(-2.30476 0.0386838 0)
(-2.32248 0.0366128 -1.00343e-19)
(-2.33916 0.0345153 -3.29572e-20)
(-2.35477 0.032391 3.23161e-20)
(-2.36928 0.0302437 6.35699e-20)
(-2.38267 0.0280728 -6.24957e-20)
(-2.3949 0.0258808 0)
(-2.40596 0.0236668 0)
(-2.41581 0.0214332 0)
(-2.42443 0.0191809 1.74294e-19)
(-2.43182 0.0169098 5.69431e-20)
(-2.43796 0.0146185 -5.57487e-20)
(-2.44285 0.0123039 0)
(-2.4465 0.00996 -5.33401e-20)
(-2.44895 0.00758385 5.20479e-20)
(-2.45023 0.00519173 5.0776e-20)
(-2.45047 0.00284441 0)
(-2.44977 0.000633437 0)
(-2.44779 -0.0014488 0)
(-2.44447 -0.00347281 4.53687e-20)
(-2.43976 -0.00546102 0)
(-2.43366 -0.00742279 -8.526e-20)
(-2.42615 -0.00936025 -1.23406e-19)
(-2.41723 -0.0112733 7.94012e-20)
(-2.40688 -0.0131599 0)
(-2.39511 -0.0150187 3.68351e-20)
(-2.38192 -0.0168473 0)
(-2.36729 -0.0186452 6.70595e-20)
(-2.35124 -0.0204103 -3.21268e-20)
(-2.33375 -0.0221427 -3.05045e-20)
(-2.31484 -0.0238405 0)
(-2.29451 -0.0255044 -8.05765e-20)
(-2.27276 -0.0271324 5.04523e-20)
(-2.2496 -0.0287255 2.32222e-20)
(-2.22503 -0.0302818 0)
(-2.19906 -0.0318027 1.96427e-20)
(-2.17169 -0.0332856 5.4038e-20)
(-2.14293 -0.0347312 0)
(-2.11279 -0.0361378 2.87957e-20)
(-2.08128 -0.0375087 2.50034e-20)
(-2.04842 -0.0388438 2.11592e-20)
(-2.01421 -0.0401454 0)
(-1.97867 -0.0414089 0)
(-1.94181 -0.0426349 0)
(-1.90362 -0.043818 -3.00534e-21)
(-1.86413 -0.044963 -1.83944e-22)
(-1.82334 -0.0460668 0)
(-1.78127 -0.0471358 7.24837e-21)
(-1.73794 -0.048162 1.15306e-20)
(-1.69336 -0.0491514 0)
(-1.64753 -0.0501038 2.11431e-20)
(-1.60049 -0.0510237 4.94903e-20)
(-1.55225 -0.0518958 -3.01806e-20)
(-1.50284 -0.0527246 -3.29712e-20)
(-1.45227 -0.0535122 0)
(-1.40057 -0.054267 0)
(-1.34776 -0.0549834 0)
(-1.29386 -0.0556657 -5.40517e-20)
(-1.2389 -0.056311 5.70648e-20)
(-1.18289 -0.0569225 1.26305e-19)
(-1.12588 -0.0575003 -6.9365e-20)
(-1.06789 -0.0580465 7.2553e-20)
(-1.00895 -0.0585621 8.0042e-20)
(-0.949077 -0.0590475 0)
(-0.888303 -0.059502 0)
(-0.826653 -0.0599256 -9.45957e-20)
(-0.764154 -0.0603186 0)
(-0.700835 -0.0606815 0)
(-0.636727 -0.0610144 2.26992e-19)
(-0.571861 -0.0613182 0)
(-0.506271 -0.0615922 1.24778e-19)
(-0.439993 -0.0618366 -1.3369e-19)
(-0.373064 -0.0620498 0)
(-0.305526 -0.0622316 1.44538e-19)
(-0.237423 -0.0623806 0)
(-0.168804 -0.0624966 0)
(-0.0997243 -0.0625798 -1.68392e-19)
(-0.0302288 -0.0626293 3.47363e-19)
(0.0396782 -0.0626331 -1.79197e-19)
(0.109925 -0.0625947 0)
(0.180387 -0.0624755 0)
(0.250846 -0.0620753 1.83844e-19)
(0.321117 -0.0613666 0)
(0.391179 -0.0605186 1.89007e-19)
(0.461028 -0.0596032 0)
(0.530588 -0.0586385 0)
(0.599781 -0.0576282 0)
(0.668529 -0.0565721 2.0076e-19)
(0.736753 -0.0554672 0)
(0.804368 -0.0543096 -2.04824e-19)
(0.87128 -0.0530903 0)
(0.937379 -0.051792 0)
(1.00252 -0.0503818 4.18469e-19)
(1.0665 -0.0487999 -4.21855e-19)
(1.12903 -0.0469255 0)
(1.1895 -0.044529 0)
(1.24738 -0.0410039 0)
(1.29948 -0.0352751 1.31233e-18)
(1.34876 -0.0231902 0)
(1.37365 0.00434934 -9.1743e-19)
(-0.000959584 -0.0424721 -9.11256e-22)
(-0.00489941 -0.0238594 9.08487e-19)
(-0.0123356 -0.00261791 0)
(-0.0219437 0.0164835 -3.66744e-19)
(-0.0330004 0.033273 0)
(-0.0452272 0.047714 0)
(-0.058688 0.0597935 3.64013e-23)
(-0.0735069 0.0696349 1.14046e-19)
(-0.0897467 0.0775256 1.07292e-19)
(-0.107392 0.0838495 1.01513e-19)
(-0.126371 0.0889997 0)
(-0.146592 0.0933196 0)
(-0.167963 0.097077 -8.73196e-20)
(-0.19041 0.100466 -1.66975e-19)
(-0.213881 0.103621 1.60136e-19)
(-0.238349 0.106636 0)
(-0.263802 0.10958 1.48869e-19)
(-0.290251 0.11251 -7.22172e-20)
(-0.317718 0.115475 0)
(-0.346239 0.118524 1.3782e-19)
(-0.375859 0.121702 6.77906e-20)
(-0.406617 0.12505 -1.34036e-19)
(-0.43853 0.128586 -6.64402e-20)
(-0.471546 0.132289 0)
(-0.505568 0.136023 1.30915e-19)
(-0.540419 0.139555 1.29309e-19)
(-0.576092 0.142511 0)
(-0.612604 0.144855 1.24482e-19)
(-0.649667 0.147281 0)
(-0.686573 0.149487 1.1749e-19)
(-0.722982 0.151304 5.67059e-20)
(-0.75909 0.152693 0)
(-0.794991 0.153706 0)
(-0.830728 0.154423 0)
(-0.866112 0.154969 0)
(-0.901146 0.155504 0)
(-0.935376 0.155536 0)
(-0.9685 0.155312 9.2333e-20)
(-1.00063 0.154147 -1.36131e-19)
(-1.03318 0.150866 0)
(-1.06712 0.14706 0)
(-1.10162 0.144803 0)
(-1.13555 0.143072 1.71272e-22)
(-1.16893 0.141505 8.23498e-20)
(-1.20188 0.139942 1.61328e-19)
(-1.23449 0.138332 -1.5826e-19)
(-1.26684 0.136672 -7.75831e-20)
(-1.29897 0.134968 7.63384e-20)
(-1.3309 0.133232 -1.59797e-22)
(-1.36264 0.131471 7.35445e-20)
(-1.39421 0.12969 0)
(-1.42559 0.12789 7.11152e-20)
(-1.45679 0.126072 -1.63585e-22)
(-1.48779 0.124234 0)
(-1.51858 0.122372 0)
(-1.54915 0.120483 -6.67613e-20)
(-1.57949 0.118563 0)
(-1.60957 0.116608 0)
(-1.63939 0.114613 6.36821e-20)
(-1.66891 0.112574 1.25854e-19)
(-1.69812 0.110488 -6.21922e-20)
(-1.727 0.10835 0)
(-1.75552 0.106159 6.04595e-20)
(-1.78366 0.103909 0)
(-1.81139 0.1016 5.8491e-20)
(-1.83868 0.0992293 5.79859e-20)
(-1.86551 0.0967955 -1.14083e-19)
(-1.89184 0.0942974 -5.61149e-20)
(-1.91765 0.091735 0)
(-1.94291 0.0891075 1.09439e-19)
(-1.96758 0.0864158 0)
(-1.99164 0.08366 1.59755e-19)
(-2.01504 0.0808416 1.04923e-19)
(-2.03777 0.0779615 1.03434e-19)
(-2.05979 0.0750219 -1.01949e-19)
(-2.08106 0.0720243 1.50808e-19)
(-2.10156 0.0689717 0)
(-2.12124 0.0658662 0)
(-2.14009 0.062711 -9.60097e-20)
(-2.15806 0.0595084 -1.41855e-19)
(-2.17513 0.0562621 0)
(-2.19126 0.0529747 4.58192e-20)
(-2.20643 0.0496503 0)
(-2.22061 0.0462913 -1.32703e-19)
(-2.23376 0.042902 -1.00942e-22)
(-2.24587 0.0394848 8.64678e-23)
(-2.2569 0.0360434 8.37146e-20)
(-2.26683 0.0325803 0)
(-2.27564 0.0290995 -8.04751e-20)
(-2.2833 0.0256048 -2.5541e-23)
(-2.28981 0.0221009 0)
(-2.29516 0.0185948 0)
(-2.29935 0.0150954 0)
(-2.30236 0.0116152 7.19512e-20)
(-2.30421 0.00817164 0)
(-2.3049 0.00478781 0)
(-2.3044 0.00147826 0)
(-2.30266 -0.00177879 0)
(-2.29963 -0.00500709 0)
(-2.29528 -0.00820354 6.07887e-20)
(-2.28959 -0.0113651 0)
(-2.28254 -0.0144898 5.66488e-20)
(-2.27413 -0.0175759 5.46043e-20)
(-2.26434 -0.0206202 -5.2532e-20)
(-2.25317 -0.02362 0)
(-2.24063 -0.026572 -4.83045e-20)
(-2.22669 -0.0294737 0)
(-2.21136 -0.0323226 -4.39684e-20)
(-2.19464 -0.0351173 4.17606e-20)
(-2.17654 -0.0378558 1.19162e-19)
(-2.15704 -0.0405373 0)
(-2.13616 -0.0431602 1.05592e-19)
(-2.1139 -0.0457241 3.33432e-20)
(-2.09026 -0.0482278 0)
(-2.06525 -0.0506712 5.67e-20)
(-2.03887 -0.0530533 5.1971e-20)
(-2.01113 -0.0553735 -7.04088e-20)
(-1.98203 -0.0576301 0)
(-1.95158 -0.0598237 -1.83477e-20)
(-1.91979 -0.0619557 -1.58851e-20)
(-1.88667 -0.0640276 -4.10814e-20)
(-1.85224 -0.0660392 0)
(-1.8165 -0.0679882 0)
(-1.77945 -0.0698713 0)
(-1.74111 -0.071687 -4.24963e-21)
(-1.70148 -0.0734358 0)
(-1.66059 -0.075119 0)
(-1.61843 -0.0767387 -4.48975e-21)
(-1.57503 -0.0782924 -7.1175e-21)
(-1.53038 -0.0797817 0)
(-1.48452 -0.0812083 0)
(-1.43746 -0.0825703 -3.02169e-20)
(-1.38922 -0.0838597 0)
(-1.3398 -0.085077 4.10694e-20)
(-1.28924 -0.086225 4.53925e-20)
(-1.23755 -0.08731 0)
(-1.18477 -0.0883297 0)
(-1.1309 -0.0892847 -6.20596e-20)
(-1.07597 -0.090175 -1.23651e-21)
(-1.02002 -0.0910028 -1.25385e-21)
(-0.963065 -0.0917693 0)
(-0.905139 -0.0924764 -1.71184e-19)
(-0.846267 -0.0931248 0)
(-0.786476 -0.0937145 0)
(-0.725792 -0.0942446 0)
(-0.664244 -0.0947152 1.1002e-19)
(-0.60186 -0.0951259 0)
(-0.53867 -0.0954768 -2.41713e-19)
(-0.474709 -0.0957673 -1.28464e-19)
(-0.410009 -0.0959979 0)
(-0.344607 -0.096167 -1.41078e-19)
(-0.278542 -0.0962739 0)
(-0.211854 -0.0963156 0)
(-0.144589 -0.0962904 -4.78465e-19)
(-0.0767941 -0.0961958 3.31143e-19)
(-0.00851504 -0.0960314 0)
(0.0601989 -0.0957946 3.52064e-19)
(0.129267 -0.0954841 -1.8159e-19)
(0.1986 -0.0950799 0)
(0.268114 -0.094569 0)
(0.337716 -0.0939493 0)
(0.407302 -0.0932161 -5.87825e-19)
(0.47676 -0.0923387 0)
(0.546029 -0.0913199 -2.04723e-19)
(0.615048 -0.0901922 0)
(0.683737 -0.0889704 0)
(0.752017 -0.0876587 0)
(0.81981 -0.0862592 0)
(0.887041 -0.084769 0)
(0.953631 -0.0831839 0)
(1.01949 -0.0814904 -4.55982e-19)
(1.08452 -0.0796628 0)
(1.14858 -0.0776514 -2.35436e-19)
(1.21149 -0.0753668 7.12698e-19)
(1.273 -0.0726361 0)
(1.3326 -0.069128 0)
(1.38993 -0.0641142 -4.92172e-19)
(1.44295 -0.0562131 -5.0103e-19)
(1.4945 -0.0418677 5.08251e-19)
(1.53303 -0.0129713 5.26236e-19)
(-0.00650734 -0.0302165 -2.6394e-18)
(-0.0160375 -0.00317142 -1.08667e-18)
(-0.0273996 0.0211352 -3.928e-19)
(-0.0405948 0.0420537 -1.40634e-19)
(-0.0547013 0.0603999 0)
(-0.0693925 0.0764812 2.04023e-19)
(-0.0847796 0.0904173 -9.32667e-20)
(-0.101039 0.102325 0)
(-0.118305 0.112399 -8.23243e-20)
(-0.136656 0.120907 0)
(-0.15612 0.128152 1.49647e-19)
(-0.176684 0.134431 0)
(-0.198316 0.140003 6.88523e-20)
(-0.220973 0.145078 1.32539e-19)
(-0.244618 0.149822 -1.27859e-19)
(-0.269217 0.154357 0)
(-0.294745 0.15878 -1.19907e-19)
(-0.321184 0.163166 0)
(-0.348514 0.167571 0)
(-0.376715 0.172036 -1.11333e-19)
(-0.405755 0.176577 0)
(-0.435584 0.181179 -6.65606e-23)
(-0.466122 0.185773 0)
(-0.497252 0.190221 0)
(-0.52884 0.194317 1.46344e-23)
(-0.560766 0.197824 -1.00696e-19)
(-0.592962 0.200595 -9.84074e-20)
(-0.625352 0.202632 -9.59641e-20)
(-0.657813 0.204148 0)
(-0.690144 0.20523 -1.81085e-19)
(-0.72224 0.205918 0)
(-0.754085 0.206248 -8.51504e-20)
(-0.785666 0.206274 0)
(-0.816964 0.206077 0)
(-0.847933 0.205752 7.81918e-20)
(-0.878479 0.205302 0)
(-0.908504 0.204562 -7.45216e-20)
(-0.937989 0.203424 -1.36396e-23)
(-0.967097 0.201574 1.42685e-19)
(-0.99626 0.198822 -1.3979e-19)
(-1.02578 0.195703 0)
(-1.05554 0.192873 0)
(-1.08526 0.190288 -6.57074e-20)
(-1.11484 0.187859 0)
(-1.14426 0.18551 -6.33543e-20)
(-1.17353 0.183192 6.21977e-20)
(-1.20265 0.180883 6.10877e-20)
(-1.23165 0.17857 0)
(-1.26053 0.17625 -5.89982e-20)
(-1.28929 0.173918 -5.80137e-20)
(-1.31794 0.171571 1.13995e-19)
(-1.34647 0.169205 -5.61519e-20)
(-1.37486 0.166816 -5.52696e-20)
(-1.40312 0.164398 0)
(-1.43123 0.161946 0)
(-1.45917 0.159455 5.27894e-20)
(-1.48692 0.156918 0)