/*--------------------------------*- C++ -*----------------------------------*\
| =========                 |                                                 |
| \\      /  F ield         | OpenFOAM: The Open Source CFD Toolbox           |
|  \\    /   O peration     | Version:  2312                                  |
|   \\  /    A nd           | Website:  www.openfoam.com                      |
|    \\/     M anipulation  |                                                 |
\*---------------------------------------------------------------------------*/
FoamFile
{
    version     2.0;
    format      ascii;
    arch        "LSB;label=64;scalar=64";
    class       volScalarField;
    location    "100";
    object      p;
}
// * * * * * * * * * * * * * * * * * * * * * * * * * * * * * * * * * * * * * //

dimensions      [0 2 -2 0 0 0 0];

internalField   nonuniform List<scalar> 
404911
(
0.0714015
0.0714113
0.0714597
0.071447
0.0713421
0.0713812
0.0714319
0.0714533
0.0714512
0.0714491
0.0722079
0.0717156
0.0714905
0.0714454
0.0714378
0.0714432
0.0724859
0.0722127
0.0718446
0.0716438
0.0728925
0.0726611
0.0722868
0.0734957
0.0731889
0.0726983
0.0740571
0.0738311
0.0736313
0.0747522
0.0745315
0.0742914
0.0740054
0.0739087
0.0748679
0.0747248
0.0744306
0.0756614
0.0753838
0.0751086
0.074859
0.0759391
0.0757961
0.0756164
0.0753941
0.0750602
0.0760891
0.0759486
0.0757699
0.0756342
0.0764518
0.0762905
0.0760725
0.0759425
0.0765116
0.0764623
0.0794644
0.0710238
0.071127
0.0711155
0.0718548
0.0714992
0.0724786
0.0721695
0.0718624
0.0729387
0.0726677
0.0722976
0.0735619
0.0730435
0.0740589
0.0737739
0.0735968
0.0745301
0.0742823
0.0738936
0.0737276
0.0748416
0.0746741
0.0754639
0.0750766
0.0758336
0.0756258
0.0754436
0.0761592
0.075964
0.076597
0.0762474
0.0760339
0.0766292
0.0765424
0.0792042
0.0793532
0.079169
0.0801073
0.0797718
0.079585
0.0806133
0.0802958
0.0799454
0.0810848
0.080981
0.0806337
0.0810313
0.0282814
0.0279825
0.0276997
0.0298511
0.0295646
0.0289298
0.0288542
0.0284735
0.0282058
0.027986
0.0275628
0.0307262
0.030416
0.0296627
0.0292078
0.0288549
0.0286524
0.0283565
0.0281159
0.0267474
0.031719
0.0313898
0.0311582
0.0308766
0.0306453
0.0304662
0.0299988
0.0294516
0.0290342
0.0288278
0.0285835
0.0282436
0.0276398
0.0269605
0.0267875
0.0266488
0.0325171
0.0321439
0.0318171
0.0314944
0.031223
0.0309778
0.0307488
0.0305204
0.0302028
0.0297742
0.0293918
0.0290298
0.0287995
0.0284392
0.0267183
0.0335909
0.033082
0.0326564
0.0322123
0.0318248
0.0315531
0.031289
0.0310473
0.0308099
0.0305793
0.0302306
0.0298821
0.0295952
0.02927
0.0290922
0.0341912
0.0338681
0.0333152
0.0328581
0.03243
0.0319614
0.0316552
0.031348
0.0311243
0.0309309
0.0306634
0.0304007
0.0300505
0.0297381
0.0294472
0.0292742
0.0354189
0.0348871
0.0343658
0.0339781
0.0333821
0.0330844
0.0326657
0.0320821
0.0317387
0.0314428
0.0312472
0.0310213
0.0307632
0.0304826
0.0301771
0.0298722
0.0296114
0.0369766
0.0365262
0.0361328
0.0356272
0.035099
0.0346137
0.0342141
0.0337256
0.0333129
0.0328433
0.0322281
0.0318946
0.0316059
0.0313968
0.0311677
0.0308728
0.0306068
0.030324
0.0377968
0.0373964
0.0367939
0.0363401
0.0358415
0.0353307
0.0349157
0.0344195
0.0339625
0.0334781
0.0330397
0.0324769
0.0320174
0.0317631
0.0315524
0.0312754
0.0310366
0.030748
0.0388406
0.0384869
0.0381215
0.0377016
0.0371494
0.0366254
0.0361232
0.0355964
0.0351325
0.034634
0.034181
0.0337173
0.033269
0.0327374
0.032238
0.0319204
0.0317173
0.0314794
0.0395023
0.0391411
0.0387428
0.0383955
0.0379614
0.0374435
0.0369451
0.036434
0.0359087
0.0354416
0.0349473
0.0344666
0.0339372
0.0334862
0.0331354
0.0325677
0.0320435
0.0404032
0.040088
0.0396619
0.0393883
0.0390388
0.0386296
0.038191
0.037734
0.0372339
0.0367316
0.0361914
0.0356923
0.0352149
0.0347409
0.0342007
0.0337008
0.0333741
0.0413244
0.0409149
0.0405665
0.0404298
0.0400857
0.0397192
0.0393249
0.0389448
0.0385068
0.0380603
0.0375544
0.0369682
0.0364218
0.0359038
0.0355205
0.0349972
0.0344381
0.0339922
0.0426328
0.0422523
0.041645
0.0411394
0.0407786
0.0406894
0.0403621
0.0399811
0.039593
0.0392333
0.0388991
0.0383806
0.0378052
0.0372229
0.0366322
0.0360651
0.0357562
0.0353968
0.0434001
0.0431744
0.0429404
0.0427258
0.0421053
0.0414683
0.0410656
0.0409417
0.0407337
0.0403299
0.0398415
0.0394955
0.0392834
0.0387406
0.0380378
0.0374194
0.0369193
0.0363489
0.0438845
0.0436026
0.0433572
0.0431362
0.0429351
0.0425384
0.0419063
0.0414682
0.0411524
0.040946
0.0404738
0.0399531
0.0396858
0.0395277
0.0390621
0.0382527
0.037576
0.037098
0.0446948
0.0443808
0.0439882
0.0437584
0.0435135
0.0432256
0.0430047
0.0426936
0.0423227
0.0418817
0.0414714
0.0412036
0.0407236
0.0401686
0.0398261
0.0396703
0.0392983
0.0385665
0.0453044
0.0448837
0.0445719
0.0442502
0.0439162
0.0436334
0.0433718
0.0430698
0.0427727
0.042575
0.0423423
0.041915
0.0414826
0.0410233
0.0404556
0.0400724
0.0398409
0.0395335
0.046726
0.0463497
0.0456624
0.0451227
0.0448396
0.0445089
0.0441789
0.043839
0.0435712
0.0432057
0.0428565
0.0427096
0.0425423
0.0423276
0.0419577
0.0414629
0.0408416
0.0403467
0.0473417
0.0470748
0.0468086
0.046233
0.0456321
0.0452394
0.0448989
0.0445856
0.044162
0.0438415
0.043359
0.0430504
0.0428634
0.0426762
0.0424284
0.0421324
0.0416773
0.0480475
0.0477743
0.0475051
0.0472967
0.0471018
0.0465766
0.0460775
0.0456086
0.0452536
0.044801
0.0444072
0.0440947
0.0436401
0.0432796
0.0430803
0.0428463
0.0425921
0.0422747
0.0485434
0.0482518
0.047995
0.0476927
0.0474654
0.0472482
0.0468581
0.0464168
0.0460234
0.0456734
0.0452694
0.04479
0.044325
0.0438556
0.0435032
0.0432619
0.0430277
0.0427582
0.0489971
0.0487511
0.0484833
0.0482202
0.0478749
0.0475424
0.0473418
0.0470341
0.0466568
0.0463691
0.0460923
0.0457024
0.0451051
0.0446261
0.0441487
0.0439168
0.0435182
0.0432852
0.0497384
0.0494515
0.0491992
0.0489608
0.0487153
0.048502
0.0481334
0.0477572
0.0474325
0.0470888
0.0467347
0.046526
0.046297
0.0460407
0.0455124
0.0449387
0.0444649
0.0440819
0.0504213
0.0501748
0.049932
0.0496738
0.0494323
0.0491807
0.0489229
0.0486638
0.0484043
0.0480186
0.0476212
0.0472585
0.0468389
0.0466396
0.0464008
0.0461154
0.0456515
0.0452534
0.050902
0.0506147
0.0503679
0.0501232
0.0498712
0.0496541
0.0494533
0.0491888
0.048884
0.0485344
0.0481871
0.0478287
0.0474935
0.0470653
0.0468058
0.04656
0.0462882
0.0458983
0.0516131
0.0513359
0.051076
0.0508112
0.0505303
0.0502976
0.0500764
0.0498743
0.0497095
0.0495319
0.0491875
0.0487818
0.0483907
0.0480785
0.0477416
0.0473148
0.0468688
0.0467801
0.0520547
0.0517839
0.051515
0.0512529
0.0509662
0.0507001
0.0504689
0.0502543
0.05006
0.049896
0.049761
0.0494524
0.0490836
0.0486603
0.0482519
0.0480146
0.0476264
0.0472818
0.0525846
0.0522457
0.0519195
0.0516578
0.0514035
0.0511067
0.0508323
0.0506177
0.0504183
0.0502214
0.0500293
0.049826
0.0495638
0.0492252
0.048852
0.0485105
0.0482018
0.0478415
0.0532052
0.052867
0.0524485
0.0520452
0.0518684
0.0516165
0.051285
0.0509134
0.0507437
0.050569
0.0503765
0.0501685
0.0499353
0.0496595
0.0493467
0.049034
0.0486971
0.0484428
0.0538849
0.0536964
0.0534994
0.0532218
0.0528084
0.052391
0.0521596
0.0519234
0.05157
0.0511155
0.0509062
0.0507373
0.050545
0.0503241
0.0500795
0.049809
0.0495275
0.0491702
0.0544312
0.0541268
0.0538614
0.0536357
0.0533481
0.0529872
0.0526729
0.0524569
0.052304
0.0519873
0.0514882
0.0511396
0.050947
0.0507402
0.0504933
0.0502577
0.0500056
0.0497354
0.0549587
0.0546583
0.0543528
0.0540762
0.0537192
0.0533713
0.0530686
0.0528314
0.0526324
0.0524576
0.0521894
0.0518155
0.0514523
0.0511857
0.0509439
0.0507107
0.0504849
0.0502503
0.0554118
0.0551497
0.0548741
0.0545541
0.0543185
0.0539419
0.0535271
0.0530943
0.0529421
0.052762
0.0525649
0.052321
0.0520133
0.0517171
0.0514196
0.0511492
0.0509088
0.0563095
0.0559579
0.0556579
0.0553715
0.0550501
0.0547527
0.0545474
0.0541918
0.0537232
0.0532582
0.053074
0.0529011
0.0527075
0.0524689
0.052194
0.0519133
0.051629
0.0513429
0.0568394
0.0565314
0.0562242
0.0559188
0.0555696
0.0552117
0.0548663
0.0546398
0.0544026
0.0540313
0.0535712
0.0531769
0.0530547
0.052865
0.0526409
0.0523906
0.0521193
0.0518802
0.0572786
0.0570376
0.0567725
0.0564842
0.0562089
0.055868
0.0555102
0.0550448
0.0547728
0.0546055
0.0543149
0.0538137
0.0534282
0.0532503
0.0530537
0.0528479
0.0526284
0.0523783
0.0580149
0.0577307
0.057496
0.0572579
0.0570206
0.0567934
0.0565959
0.0561888
0.0558232
0.0553608
0.0549672
0.0547677
0.0545736
0.0542122
0.0537819
0.0535078
0.0532751
0.053049
0.0584431
0.0581895
0.0579634
0.0577221
0.0574887
0.0572643
0.0570613
0.0569039
0.056593
0.0561525
0.0556601
0.0552553
0.0548715
0.0547669
0.0545142
0.0541149
0.0537865
0.0534843
0.0589351
0.0586576
0.0584097
0.0581752
0.0579343
0.0577117
0.0574922
0.0572858
0.0571123
0.0569123
0.0564102
0.0560272
0.0554935
0.0550971
0.0549249
0.0546872
0.0543811
0.0540964
0.059334
0.0591421
0.0588817
0.0586331
0.058389
0.0581502
0.0579331
0.0577159
0.0574714
0.0572307
0.0570163
0.0567501
0.0563175
0.0558045
0.0554158
0.0551527
0.0549227
0.0546239
0.0598828
0.0596387
0.0593455
0.0590933
0.058827
0.0585854
0.0583609
0.0581666
0.0579697
0.0577001
0.0573918
0.0570887
0.0568439
0.0565656
0.0560841
0.0557407
0.0554232
0.0605916
0.0603113
0.0600817
0.0598193
0.0595296
0.059279
0.0590045
0.0587605
0.0585528
0.0583825
0.0582442
0.0580046
0.0577331
0.0572765
0.056985
0.0567374
0.0563918
0.0560631
0.0610094
0.060766
0.0605378
0.060298
0.0600449
0.0597814
0.0594871
0.0591551
0.0588873
0.0587122
0.0585673
0.0584566
0.0583923
0.0580156
0.0575998
0.0571986
0.05694
0.0566562
0.0614934
0.0612312
0.0609855
0.0607569
0.0605001
0.0602779
0.0600675
0.0597912
0.0594738
0.0590493
0.0588505
0.0587313
0.0586018
0.0584563
0.0582035
0.0578263
0.057478
0.0571851
0.0619371
0.0616869
0.0614464
0.0611896
0.0609487
0.0607009
0.0604915
0.0603203
0.0601781
0.0599473
0.0594177
0.059091
0.0589278
0.0587593
0.0585673
0.0583071
0.0580226
0.0577254
0.0624564
0.0621441
0.0618873
0.0616418
0.0613741
0.0611164
0.0608733
0.0606628
0.0604797
0.0603208
0.0600714
0.059732
0.0594007
0.0591647
0.0589472
0.0587122
0.0584718
0.0581889
0.0629783
0.062658
0.0623542
0.0620821
0.0618133
0.0615383
0.0612683
0.0610148
0.0607952
0.0606052
0.0604207
0.0601973
0.0599295
0.0596466
0.0593909
0.0591464
0.0589089
0.0586433
0.0635562
0.063209
0.062837
0.0625206
0.062232
0.0619697
0.0617017
0.0614054
0.0611283
0.060897
0.0607249
0.0605472
0.0603487
0.0601093
0.0598563
0.0596126
0.0593584
0.0590785
0.0640626
0.0638042
0.0635071
0.0630679
0.0626147
0.0623595
0.0621182
0.0618912
0.0616118
0.0612337
0.0609542
0.0608363
0.0606984
0.0605209
0.0603015
0.0600609
0.0598179
0.0596025
0.064803
0.0645677
0.0643185
0.0641135
0.0638882
0.0633985
0.0629068
0.062605
0.0622714
0.0620933
0.0617761
0.061556
0.0611751
0.06101
0.0608831
0.0607161
0.0605011
0.0602815
0.0600402
0.0652552
0.0650517
0.064829
0.0645962
0.0643898
0.0642494
0.0639357
0.0635196
0.0629885
0.0625569
0.0623623
0.0621316
0.0619103
0.061539
0.0612919
0.0611253
0.0609315
0.0607196
0.0654731
0.0652565
0.0650369
0.0648043
0.0646179
0.0644632
0.0642755
0.0639439
0.0634627
0.0630682
0.0626265
0.0623667
0.062217
0.0619351
0.0616101
0.0613718
0.0611596
0.0661604
0.0659367
0.0657153
0.0654791
0.0652453
0.0650104
0.0648056
0.0646428
0.0644851
0.0641323
0.0637866
0.0633354
0.0629576
0.0626416
0.0624107
0.0621738
0.0619046
0.0616382
0.0666529
0.066371
0.06617
0.0659374
0.0656965
0.0654552
0.0652009
0.0649602
0.0647861
0.0646662
0.0644019
0.0640432
0.0636009
0.0631879
0.0629316
0.0626764
0.0624228
0.0621256
0.0669549
0.0668139
0.066606
0.0663819
0.0661565
0.0659332
0.0657067
0.0654197
0.0651061
0.0648698
0.0648022
0.0646094
0.0643301
0.0639032
0.0634988
0.0632007
0.0629468
0.0627093
0.0671828
0.0669765
0.0667846
0.0665827
0.0663717
0.0661666
0.0659856
0.0657383
0.0653898
0.0650247
0.0649198
0.0648064
0.064529
0.0641389
0.0638073
0.0634946
0.0632305
0.0677919
0.0673938
0.0671119
0.0669763
0.0667931
0.0665764
0.0663696
0.0662135
0.066018
0.0657181
0.0652708
0.065066
0.0649219
0.0646723
0.0643728
0.0640764
0.0637791
0.0692752
0.0687778
0.06823
0.0677374
0.0674367
0.0672348
0.0670288
0.0667682
0.0665263
0.0663627
0.066255
0.0659477
0.0655122
0.0652825
0.0650871
0.0648548
0.064572
0.0643021
0.0698147
0.0695366
0.0691312
0.0685976
0.0680302
0.0677332
0.0675182
0.0673114
0.0670374
0.0667812
0.0664825
0.0664186
0.066157
0.0657892
0.0655171
0.0652713
0.0650719
0.0702221
0.0700053
0.069669
0.0692774
0.0688219
0.068283
0.0679196
0.0677537
0.0675904
0.0672763
0.0670576
0.0667584
0.0665535
0.0663857
0.0660597
0.0657555
0.0654951
0.0710046
0.0707173
0.0704691
0.0702172
0.0698552
0.0694896
0.0690617
0.0685564
0.0682111
0.0679797
0.0677692
0.0675979
0.0673208
0.0670206
0.0667729
0.066554
0.0662768
0.0659987
0.0715088
0.0712007
0.0708956
0.0706839
0.0704455
0.0701943
0.0698666
0.0694342
0.0689687
0.068711
0.06827
0.0680612
0.0677479
0.0674619
0.067251
0.0670192
0.0667874
0.0665283
0.0720713
0.0717015
0.0714769
0.0711105
0.0709557
0.0707707
0.0707159
0.0704504
0.0700833
0.0694655
0.0690649
0.0687543
0.0684349
0.0680364
0.0676174
0.0674195
0.0672418
0.0670166
0.0727939
0.0724545
0.0720495
0.0717148
0.0714749
0.0712588
0.0711338
0.0709336
0.0706966
0.0705464
0.0700222
0.0695682
0.0692499
0.0688718
0.0684556
0.0680079
0.0677311
0.0675146
0.073641
0.0733608
0.0730634
0.0727145
0.0723846
0.0720654
0.0718377
0.0716112
0.0715434
0.0712478
0.0709812
0.0707021
0.0703689
0.0699815
0.0696732
0.0693751
0.0689124
0.0684276
0.068086
0.0741087
0.0738575
0.073605
0.0733503
0.0730358
0.0726681
0.0723816
0.0720608
0.0718914
0.0715735
0.0713295
0.0710708
0.0708235
0.0705663
0.0702316
0.0698858
0.0696122
0.0692184
0.0688446
0.074292
0.07408
0.073794
0.0735542
0.0732524
0.0729442
0.0725612
0.0722426
0.0720065
0.0716935
0.0714585
0.0712124
0.070977
0.0707094
0.0703947
0.0700983
0.0697981
0.069506
0.0749359
0.0746464
0.0743512
0.0740496
0.0737977
0.0735779
0.0732376
0.0728767
0.0724588
0.0721685
0.0718476
0.0716087
0.0714036
0.071155
0.0708759
0.0705919
0.0702947
0.0755126
0.075217
0.0749344
0.074623
0.0743196
0.0740381
0.0736726
0.0735801
0.073128
0.0727368
0.0723599
0.0720764
0.0718393
0.0716166
0.0713622
0.0710945
0.0707623
0.0761282
0.0757841
0.0754782
0.0751674
0.0748418
0.0744786
0.0742029
0.0738916
0.0736888
0.0734322
0.0729687
0.0726054
0.0723375
0.0720923
0.071843
0.0715882
0.0713072
0.0769248
0.0766684
0.076392
0.0760333
0.0756955
0.0753465
0.0749734
0.0747027
0.0744804
0.0742181
0.0739303
0.0736224
0.0732038
0.0728562
0.0725928
0.07234
0.0720767
0.0718582
0.0775465
0.0772461
0.0769145
0.0766208
0.076254
0.0758892
0.0756304
0.0754292
0.0749526
0.0747271
0.0744543
0.0742013
0.0738973
0.073463
0.0731332
0.0728502
0.072586
0.0781184
0.0778206
0.0774925
0.0771554
0.0767563
0.0763651
0.0759829
0.0757339
0.0754761
0.0752053
0.0749513
0.0746703
0.074417
0.0741305
0.0737762
0.0734281
0.0731355
0.0786668
0.0783814
0.0781127
0.077757
0.077314
0.0768056
0.0765379
0.0762441
0.0759265
0.0757003
0.0754612
0.0752017
0.0748918
0.0746126
0.07433
0.0740183
0.0737164
0.0793116
0.0789722
0.0786368
0.0783065
0.0779131
0.0774536
0.0770476
0.0767407
0.07634
0.0761441
0.0759625
0.0757089
0.0754458
0.0751694
0.0748558
0.0745867
0.0742694
0.0798318
0.0795981
0.079272
0.0789123
0.0785443
0.0781356
0.0776321
0.0768928
0.0768052
0.0766708
0.0765206
0.07626
0.0759695
0.0756949
0.0754088
0.0751086
0.0748264
0.0803645
0.0800743
0.0798358
0.0795998
0.0792269
0.0789719
0.0785681
0.0779906
0.0775838
0.0772407
0.076999
0.0768183
0.0765685
0.0762341
0.0759587
0.0756773
0.0753757
0.080609
0.080296
0.0800684
0.0797584
0.0794963
0.0791396
0.0789114
0.0784684
0.077961
0.0775728
0.0772864
0.0770469
0.0767805
0.076488
0.0762442
0.0759267
0.0816254
0.0810957
0.0806322
0.0803996
0.0801023
0.079808
0.0795536
0.0790672
0.0786661
0.0782599
0.0778607
0.0775215
0.0772911
0.0770068
0.0767302
0.0828576
0.0825788
0.0821223
0.0815947
0.0810443
0.0807328
0.0803913
0.0800253
0.0797402
0.0792864
0.0788389
0.0784343
0.0781591
0.0778297
0.0775435
0.0772756
0.0834263
0.0831768
0.082908
0.0824947
0.0820172
0.0814475
0.0809257
0.0808234
0.0803437
0.0800399
0.0796008
0.0790949
0.0785283
0.0783306
0.0780774
0.0778023
0.0840493
0.0837942
0.0835197
0.0831155
0.0827075
0.08229
0.0817912
0.0815571
0.0811051
0.0806856
0.0803617
0.0800056
0.0794571
0.0789417
0.0786024
0.0783591
0.0849591
0.0846406
0.0843431
0.0840749
0.083901
0.0834834
0.0830567
0.0827067
0.0823555
0.081999
0.0815673
0.0810327
0.0805794
0.0802838
0.0798896
0.0794307
0.0854411
0.0851408
0.0849185
0.0846842
0.0843855
0.0841458
0.0837454
0.0833319
0.0829801
0.0827211
0.0823229
0.0819097
0.0814079
0.0809548
0.0806448
0.0803036
0.0860748
0.0856872
0.0853386
0.0851072
0.0849114
0.0846187
0.0843611
0.0840478
0.0836338
0.0833652
0.0831268
0.0828726
0.082463
0.0818835
0.0813863
0.0809328
0.0868412
0.086352
0.0858328
0.0854961
0.085282
0.0850969
0.0848509
0.0844941
0.0842006
0.0839015
0.0836734
0.0834807
0.0832587
0.0829599
0.0823762
0.0818122
0.0876615
0.0870974
0.086675
0.0862413
0.0858093
0.0855627
0.085307
0.0850709
0.0846713
0.0843958
0.0841237
0.0838594
0.0837434
0.083547
0.0832061
0.0828201
0.088382
0.0880161
0.0875599
0.0871512
0.0867389
0.0863926
0.0859958
0.0856538
0.0854093
0.0849433
0.0845859
0.0843528
0.0841828
0.0839329
0.0837142
0.0890636
0.0887921
0.0884089
0.0879901
0.0875023
0.0870975
0.0867815
0.0864535
0.0860881
0.0857446
0.085368
0.0848557
0.0845715
0.0843991
0.0842118
0.0839302
0.0895924
0.0893445
0.0891002
0.0888445
0.088378
0.0878821
0.0874883
0.0871185
0.0868466
0.0864914
0.0861598
0.085844
0.0853359
0.0849572
0.0847285
0.0844941
0.0900897
0.0898687
0.0896056
0.0893338
0.0890296
0.0886217
0.0882491
0.0878984
0.0875287
0.087208
0.0868787
0.0865763
0.0863051
0.0858585
0.085391
0.0905034
0.0901182
0.0899184
0.0896834
0.089341
0.0889113
0.0885541
0.0882653
0.0879391
0.087622
0.0872195
0.0869309
0.0865634
0.0862177
0.091819
0.0911251
0.090641
0.0903616
0.0900191
0.0896497
0.0892397
0.0889179
0.0885967
0.0883217
0.0879987
0.0875673
0.0872489
0.0927192
0.0924685
0.0920679
0.0916478
0.0911993
0.0907638
0.0903765
0.0900292
0.089644
0.0892958
0.0889317
0.088574
0.0882668
0.0878388
0.0932513
0.0929369
0.0926993
0.0923623
0.092015
0.0915346
0.0911803
0.0906961
0.0903264
0.0899582
0.0895583
0.0892125
0.0888892
0.0885704
0.0938799
0.0935486
0.0932061
0.0928612
0.0926568
0.0923124
0.0919313
0.0914901
0.0910877
0.090731
0.090242
0.089861
0.0895375
0.0892512
0.0944096
0.0941834
0.0938532
0.0935274
0.0932356
0.092904
0.0926508
0.0922722
0.0918226
0.091412
0.0910836
0.0905928
0.0902277
0.0899038
0.0949352
0.0946857
0.0944653
0.0942232
0.0939798
0.093729
0.0933068
0.0929576
0.0925405
0.0920718
0.0916779
0.0913755
0.0909988
0.0905861
0.0953664
0.0951108
0.0948999
0.0947848
0.0946065
0.0942173
0.0939659
0.0937429
0.0934187
0.0929245
0.0923035
0.091932
0.0916572
0.0950802
0.095019
0.0947395
0.0942678
0.0941008
0.0938344
0.0933253
0.0926022
0.0921903
0.095383
0.0953371
0.0950897
0.0946611
0.0943793
0.0941464
0.0937516
0.0931373
0.0959749
0.0956753
0.0956082
0.0955472
0.0951616
0.0946741
0.0943866
0.0970047
0.0965974
0.0960956
0.0958984
0.0957689
0.0954429
0.0950159
0.0970681
0.0967044
0.0963445
0.0960659
0.0957838
0.0984267
0.0978689
0.097105
0.0971208
0.0967454
0.0964376
0.101606
0.101323
0.099659
0.0989929
0.0972514
0.10164
0.101247
0.100884
0.100505
0.10025
0.0978666
0.102099
0.10068
0.1002
0.100009
0.0994032
0.102407
0.101503
0.100736
0.00728462
0.00702588
0.00686001
0.00938797
0.00893395
0.00852769
0.00819089
0.00779052
0.00740957
0.00706699
0.00687956
0.00518988
0.0111651
0.0107744
0.0102689
0.00991595
0.00948277
0.00905609
0.00867684
0.00828599
0.00787901
0.0074861
0.00706028
0.00677184
0.006387
0.00584857
0.00545989
0.0125233
0.0121097
0.0117517
0.0112942
0.0109186
0.0104123
0.00999935
0.00961411
0.00919765
0.00878826
0.00838574
0.00791035
0.00749539
0.00708544
0.00670614
0.00637212
0.00593865
0.00545148
0.00514619
0.0044949
0.00379915
0.00339304
0.013984
0.0136502
0.0131429
0.0127029
0.0122296
0.01184
0.0114407
0.0109815
0.0105327
0.0100939
0.00970202
0.00931782
0.00892577
0.00853871
0.00807411
0.00761678
0.00701921
0.00671406
0.00639146
0.00597495
0.00556025
0.0050895
0.00453738
0.0156268
0.0151356
0.0147981
0.014264
0.0138362
0.0132373
0.0127651
0.0123371
0.0119763
0.0115718
0.0110963
0.0106058
0.0101382
0.00975947
0.00934018
0.0090763
0.00876324
0.00840046
0.00756575
0.00703706
0.00671316
0.00642369
0.00602726
0.00564142
0.00520083
0.0167241
0.0161384
0.0158562
0.0154333
0.0149937
0.0143587
0.0139791
0.0133265
0.0128047
0.0124104
0.0121038
0.0117424
0.0113012
0.010644
0.0101213
0.00978288
0.00944588
0.00917904
0.00889066
0.00844552
0.00763319
0.00711317
0.00679365
0.00648062
0.00609827
0.0182927
0.0175496
0.0168331
0.0164782
0.016051
0.0155531
0.0151923
0.0149264
0.0143777
0.0136055
0.0129287
0.0125007
0.0122485
0.0119296
0.0117079
0.0108514
0.0101087
0.0097976
0.00950503
0.00921859
0.00888963
0.0085292
0.00781227
0.00727888
0.00690905
0.0197961
0.0192151
0.0185121
0.0177009
0.0170547
0.0167315
0.0163427
0.0158721
0.0153296
0.0151482
0.0147406
0.0139971
0.0132536
0.0126493
0.0123934
0.0121733
0.0119415
0.0111397
0.0101826
0.00983927
0.00956323
0.00922603
0.00888235
0.00843915
0.00792777
0.022249
0.0217037
0.0208231
0.0201373
0.0193763
0.0185988
0.0179009
0.0173427
0.0169562
0.0166152
0.0160545
0.0155461
0.0153361
0.0150649
0.0144712
0.0138101
0.0130548
0.0124906
0.0121954
0.01197
0.0112834
0.0103866
0.00995712
0.00965692
0.00929326
0.00886564
0.0235777
0.0231979
0.0228181
0.0224262
0.0219098
0.0211364
0.0203948
0.0195392
0.0187431
0.018268
0.0176981
0.0171623
0.016637
0.0161059
0.0157133
0.0154503
0.0151525
0.0147318
0.0142041
0.013412
0.012776
0.0123175
0.0117502
0.0111098
0.010636
0.01008
0.00976902
0.0241507
0.0237848
0.0233934
0.0230217
0.0225471
0.0220094
0.021297
0.0206388
0.0199276
0.0192196
0.0185947
0.0179496
0.0173392
0.0167322
0.0161539
0.0158861
0.0155975
0.0152725
0.0148857
0.0144757
0.0139197
0.0131112
0.0125887
0.011912
0.0111816
0.0266942
0.0261946
0.0254454
0.0246925
0.024138
0.0235418
0.0232251
0.0227813
0.0220819
0.021485
0.0208627
0.0201884
0.0195224
0.0188077
0.0181846
0.0176101
0.0169211
0.0162981
0.0160468
0.0157694
0.0154341
0.0151175
0.0147789
0.0143083
0.0136023
0.0274451
0.026875
0.0264594
0.0259035
0.0252023
0.0244681
0.0239252
0.0235191
0.0229607
0.0223683
0.0216862
0.0211439
0.020477
0.0198234
0.01902
0.018395
0.017756
0.0171033
0.0165404
0.0162207
0.0159425
0.0156523
0.0153439
0.0150163
0.0289583
0.0287533
0.028345
0.0277837
0.027119
0.0267519
0.0263249
0.025698
0.0250824
0.0243607
0.0238632
0.023321
0.0227171
0.0222147
0.0215404
0.0208582
0.0201075
0.0193455
0.018657
0.0179499
0.0173158
0.0167846
0.0164389
0.0161231
0.0157899
0.0298305
0.0294432
0.0291339
0.0289124
0.0286791
0.0280272
0.0275831
0.0272233
0.0268231
0.0263135
0.0255139
0.0248467
0.0243066
0.0236831
0.0231118
0.0225607
0.0219538
0.0212573
0.0205118
0.0198608
0.019061
0.0181118
0.0173666
0.0169842
0.0165377
0.0306223
0.0303074
0.0299961
0.0296402
0.029287
0.0289844
0.0287264
0.0283117
0.0279665
0.0276767
0.027335
0.0267063
0.0259657
0.0253599
0.0245682
0.024048
0.0234991
0.0230036
0.0223782
0.0217004
0.0210212
0.020251
0.0195188
0.0185768
0.0176418
0.0317175
0.0313954
0.031113
0.0308188
0.0305223
0.0302395
0.0298256
0.029492
0.029039
0.0287863
0.0284817
0.0282036
0.0279635
0.0275945
0.0270643
0.0263896
0.0257451
0.0250107
0.0245397
0.0239214
0.0233609
0.0227355
0.022042
0.021392
0.0206912
0.0199735
0.0326304
0.0323623
0.0319331
0.0315952
0.031298
0.0309817
0.030711
0.0304328
0.0301061
0.0296713
0.0291914
0.0288685
0.0286309
0.0283715
0.0281497
0.0277234
0.0270823
0.0267168
0.0261924
0.025621
0.0251079
0.0244249
0.0237613
0.0230981
0.0224843
0.0218144
0.0337554
0.0332597
0.0328013
0.0324542
0.0321067
0.0317141
0.0313816
0.0311155
0.0308617
0.0306213
0.0302599
0.0298669
0.0294556
0.0290611
0.0288126
0.0285508
0.0282045
0.0276788
0.0270262
0.0267055
0.026422
0.0257924
0.0254442
0.0250383
0.0242863
0.0235733
0.0229351
0.0346183
0.0343019
0.0338801
0.0334362
0.0329773
0.03254
0.0321485
0.0318048
0.0314939
0.0312264
0.030977
0.0307379
0.0304961
0.0300733
0.0296191
0.0293141
0.0290357
0.0287943
0.0284014
0.0277365
0.0269959
0.0266588
0.0263369
0.0259477
0.0256192
0.0253387
0.0249417
0.0353422
0.0348884
0.0344844
0.0340711
0.033604
0.0330942
0.0326375
0.0322173
0.0318374
0.0315335
0.0312892
0.0310613
0.0308242
0.030564
0.0302481
0.0298767
0.0295473
0.0292907
0.0290928
0.0288004
0.0280401
0.0272586
0.026775
0.0264664
0.0260999
0.0257487
0.0365273
0.0359844
0.0355495
0.0351093
0.0346596
0.0342457
0.0337101
0.033325
0.0328703
0.0323909
0.0319842
0.0316068
0.0313322
0.0311372
0.0309117
0.0306473
0.0303506
0.0300294
0.0297236
0.02946
0.029286
0.0288793
0.0281226
0.0274817
0.0270199
0.02665
0.0375791
0.0371431
0.0367316
0.0362821
0.035811
0.0353515
0.0349094
0.0343617
0.0339337
0.0334954
0.0329888
0.0325519
0.0320652
0.0317361
0.0314419
0.0312368
0.0310161
0.0307558
0.0304634
0.0301575
0.0298654
0.0295693
0.0292308
0.0288173
0.0283834
0.0278035
0.0382255
0.0378667
0.0374418
0.0369499
0.0364933
0.0359233
0.0356188
0.0351332
0.0345416
0.0341073
0.0336897
0.0331892
0.032765
0.0322789
0.0318367
0.0316026
0.0313822
0.0311453
0.0308793
0.0305864
0.0302588
0.0299691
0.0296697
0.0293312
0.0289755
0.0392845
0.0389365
0.0385608
0.0381882
0.0377711
0.0372695
0.0368517
0.0362413
0.0357629
0.0352482
0.0348184
0.0343918
0.0338952
0.0334239
0.0329784
0.032481
0.0320475
0.0317638
0.0315417
0.0312963
0.0310255
0.0307221
0.0304039
0.0300915
0.0298169
0.0295102
0.0403085
0.039944
0.0395858
0.0392079
0.0388288
0.0384509
0.0380724
0.0374695
0.0370836
0.036575
0.0360584
0.0355593
0.0350594
0.0345891
0.0341386
0.0336554
0.0331739
0.0326984
0.0323288
0.0319248
0.0317286
0.0314697
0.0311685
0.030862
0.030579
0.0302853
0.0413346
0.0409065
0.0405302
0.0401863
0.0398293
0.0394901
0.0391203
0.0387368
0.0383029
0.0378172
0.0373541
0.0369009
0.0363626
0.0358314
0.03533
0.0348584
0.0343655
0.0339417
0.0335214
0.032938
0.0324912
0.0321609
0.031948
0.0316554
0.031358
0.0310687
0.0307621
0.0419022
0.041515
0.0411392
0.0407376
0.040417
0.0400822
0.0397554
0.039404
0.0390145
0.0385858
0.0381312
0.0376697
0.0372045
0.0366557
0.0361168
0.0356148
0.0351344
0.0346826
0.0341037
0.0338338
0.0333023
0.0328882
0.0324875
0.0321695
0.0318685
0.031588
0.0429004
0.0425723
0.0422244
0.0417777
0.0413344
0.0409192
0.0406163
0.0404027
0.0401187
0.0397267
0.0392983
0.0388689
0.0384463
0.0380527
0.0374953
0.0369371
0.0363717
0.0358145
0.0352531
0.0351576
0.0344764
0.03395
0.0335736
0.0331394
0.0326935
0.0323988
0.0434311
0.0431544
0.0428751
0.0425587
0.0421129
0.0417572
0.0412103
0.0408658
0.0406587
0.0404631
0.0400502
0.0395924
0.0391866
0.0387324
0.0383362
0.0377904
0.0371586
0.0365839
0.0362532
0.035786
0.0352208
0.0346791
0.0342402
0.0338528
0.0334127
0.044299
0.0439971
0.0436937
0.0433645
0.0431123
0.0428843
0.0425045
0.0419661
0.0415152
0.0412094
0.0409716
0.0406985
0.040336
0.0398844
0.0394698
0.039125
0.0386454
0.0380413
0.0375047
0.036864
0.0363455
0.0359498
0.0354727
0.035011
0.0345028
0.0448998
0.0445364
0.0442269
0.0439036
0.0435854
0.0433298
0.0431042
0.0428017
0.0423344
0.0419139
0.0415938
0.041273
0.0409253
0.040517
0.0400212
0.039641
0.0393566
0.0388937
0.0382856
0.0376611
0.0370875
0.0365914
0.0361367
0.0357059
0.0353398
0.0459491
0.0455473
0.0451419
0.0447254
0.0443991
0.0440735
0.0437487
0.0434602
0.0432526
0.0429844
0.0425497
0.042154
0.0418631
0.0416937
0.0412276
0.0407321
0.0401843
0.0398294
0.0395721
0.0392958
0.0385455
0.0379229
0.037378
0.0369359
0.036406
0.0466856
0.0462991
0.0458519
0.0453777
0.0449149
0.0446052
0.0442936
0.0439465
0.0436223
0.0432175
0.0431382
0.0427759
0.0424862
0.0421868
0.0418667
0.0415465
0.0410887
0.0404947
0.0400679
0.0398444
0.0393918
0.0387202
0.0382723
0.0377589
0.0372465
0.0475289
0.047282
0.046973
0.0466352
0.04619
0.045831
0.0454104
0.0449442
0.0445901
0.0442525
0.0438746
0.0434438
0.0431815
0.042952
0.0426835
0.0424944
0.0422448
0.0418176
0.0413653
0.040882
0.0403676
0.0400152
0.039586
0.0390466
0.0385727
0.0480774
0.0478098
0.0475453
0.0472744
0.0470208
0.0465971
0.0461111
0.0457578
0.0453415
0.0449781
0.0445108
0.0440772
0.0436974
0.0433045
0.0430646
0.0428599
0.0426369
0.0424244
0.0421083
0.0416713
0.0412139
0.0407303
0.0403029
0.0397441
0.0488484
0.0485528
0.0482865
0.0480082
0.0477491
0.0475111
0.0472654
0.0469441
0.0464659
0.0461337
0.0457571
0.0453516
0.044906
0.0444307
0.0439991
0.0435761
0.0432996
0.0430859
0.0428338
0.0425761
0.0422326
0.0418676
0.0414722
0.0410568
0.0406678
0.0492955
0.0490268
0.0487852
0.0485284
0.048255
0.0479846
0.0477349
0.0474488
0.0471157
0.0468129
0.0464473
0.0461531
0.0458047
0.0453329
0.0448158
0.0443019
0.0438729
0.043498
0.0432581
0.0430448
0.0427473
0.0424106
0.0421014
0.0417252
0.0500164
0.0497505
0.0495047
0.0492286
0.0489811
0.0487486
0.0484815
0.0482187
0.0479477
0.0476403
0.0473248
0.046984
0.0466547
0.0463616
0.0459724
0.0456238
0.0451608
0.0446835
0.0441755
0.0438489
0.043574
0.0432778
0.0429482
0.0426555
0.0423304
0.0504896
0.0502147
0.049968
0.049716
0.0494451
0.0491906
0.0489379
0.0486971
0.0484005
0.0480301
0.0477993
0.0474929
0.0471497
0.0468538
0.046529
0.0462875
0.0459449
0.0454269
0.0449538
0.0445079
0.0441491
0.0438296
0.0435398
0.0432223
0.0512402
0.0509699
0.050695
0.0503971
0.0501506
0.0499259
0.0496625
0.0494191
0.0491586
0.0489121
0.0486422
0.0482097
0.0479637
0.0476404
0.0473411
0.0469799
0.0466418
0.0463961
0.0461124
0.0456953
0.0452181
0.0448154
0.0444152
0.0441378
0.0438525
0.0516947
0.0514228
0.0511634
0.0508953
0.050613
0.0503569
0.0500998
0.049871
0.0496276
0.0494101
0.0491049
0.0489061
0.0485231
0.048157
0.0477954
0.0475592
0.047176
0.0468213
0.0465417
0.0462666
0.0458668
0.0454293
0.0450984
0.0447271
0.0521667
0.0519154
0.0516238
0.0513306
0.0510844
0.0508032
0.0505481
0.0502814
0.0500553
0.0498414
0.0496458
0.049329
0.0490942
0.0487251
0.0483891
0.0480635
0.0476556
0.0473284
0.0469863
0.046749
0.0464547
0.0460749
0.0457213
0.0453844
0.0529333
0.0526703
0.0523944
0.0520804
0.0517881
0.0515227
0.0512428
0.0509715
0.0506967
0.0504583
0.0502354
0.0500334
0.0498453
0.0495764
0.049291
0.0489453
0.0485859
0.0483153