/*--------------------------------*- C++ -*----------------------------------*\
| =========                 |                                                 |
| \\      /  F ield         | OpenFOAM: The Open Source CFD Toolbox           |
|  \\    /   O peration     | Version:  5.x                                   |
|   \\  /    A nd           | Web:      www.OpenFOAM.org                      |
|    \\/     M anipulation  |                                                 |
\*---------------------------------------------------------------------------*/
FoamFile
{
    version     2.0;
    format      ascii;
    class       volScalarField;
    location    "384";
    object      nut;
}
// * * * * * * * * * * * * * * * * * * * * * * * * * * * * * * * * * * * * * //

dimensions      [0 2 -1 0 0 0 0];

internalField   nonuniform List<scalar> 
20540
(
0
6.14659e-06
0
7.36583e-06
0
9.27229e-06
0
1.15784e-05
0
1.43677e-05
0
1.70847e-05
0
1.86957e-05
0
1.93585e-05
0
1.9891e-05
0
2.05331e-05
0
2.1312e-05
0
2.23169e-05
0
2.40165e-05
0
2.70145e-05
0
2.95984e-05
0
2.87896e-05
0
2.50908e-05
0
1.98908e-05
0
1.31301e-05
0
5.85832e-06
0
0
0
0
0
0
0
0
0
0
0
0
0
0
0
0
0
0
0
1.73734e-06
0
2.90364e-06
0
1.88519e-06
4.87977e-06
5.92208e-06
4.3655e-06
8.40248e-06
0
2.32071e-06
0
0
0
0
0
0
0
0
0
0
0
0
0
0
0
0
0
0
0
0
0
0
0
0
0
0
9.16594e-07
0
2.76587e-06
1.20217e-06
4.30461e-06
3.78643e-06
5.58483e-06
5.93622e-06
6.64993e-06
7.72681e-06
7.53631e-06
9.21624e-06
8.2736e-06
1.04548e-05
8.88673e-06
1.14848e-05
9.39706e-06
1.23417e-05
9.8217e-06
1.30544e-05
1.01747e-05
1.36472e-05
1.04685e-05
1.41401e-05
1.07131e-05
1.45501e-05
1.09165e-05
1.48912e-05
1.10855e-05
1.51748e-05
1.12263e-05
1.54109e-05
1.1317e-05
1.55627e-05
1.24396e-05
2.63716e-06
0
0
0
0
1.03287e-06
0
0
0
0
0
0
0
0
0
0
0
0
0
0
0
0
0
0
0
0
0
5.01015e-07
4.3465e-06
8.03585e-06
1.8376e-05
8.44693e-06
9.13872e-07
0
3.86924e-06
2.05929e-06
0
0
0
0
0
0
0
0
0
0
2.66715e-06
1.0321e-05
1.33725e-05
8.47054e-06
2.3655e-06
2.60234e-06
2.62014e-06
4.34376e-06
7.76624e-06
2.27376e-06
5.22999e-06
1.11977e-05
1.20488e-05
1.08474e-05
1.18664e-05
7.28799e-06
2.75189e-06
0
0
0
0
0
1.68831e-06
0
0
0
0
0
0
0
0
4.92773e-07
2.98302e-06
5.31603e-06
1.20596e-07
0
0
0
0
0
0
2.69161e-05
6.89845e-06
0
0
0
0
4.62922e-06
0
0
0
0
0
0
0
0
0
0
0
0
0
0
0
0
2.06679e-06
0
0
0
0
3.94127e-06
1.16216e-05
1.8985e-05
3.95172e-05
1.98313e-05
5.23346e-06
0
1.18897e-05
9.0437e-06
0
0
0
0
0
0
0
2.9645e-06
0
0
1.03805e-05
2.58325e-05
3.17164e-05
2.23222e-05
9.78141e-06
1.0159e-05
1.02202e-05
1.42332e-05
2.11338e-05
9.84853e-06
1.56982e-05
2.7753e-05
2.90843e-05
2.66401e-05
2.84375e-05
1.95398e-05
1.0415e-05
4.69242e-06
0
1.129e-06
1.59481e-06
2.18913e-06
9.59185e-06
9.12621e-07
0
0
0
0
0
0
0
4.62445e-06
8.61767e-06
1.33716e-05
3.0258e-06
0
0
0
0
0
0
3.13311e-05
1.08494e-05
2.11858e-06
1.14062e-06
9.88388e-07
1.96892e-06
1.0274e-05
0
0
0
0
0
0
0
0
0
0
0
0
0
0
0
0
1.03331e-05
6.52278e-06
3.65775e-06
9.52369e-07
2.49114e-06
1.04246e-05
1.8105e-05
2.54695e-05
4.57051e-05
2.64295e-05
1.35231e-05
6.6802e-07
2.12819e-05
1.99399e-05
6.77398e-06
0
0
0
0
8.11939e-06
1.08426e-05
1.53984e-05
1.10239e-05
6.38849e-06
2.15136e-05
3.77234e-05
4.28864e-05
3.42069e-05
2.09343e-05
2.10835e-05
2.1206e-05
2.64912e-05
3.35317e-05
2.19115e-05
2.74597e-05
3.9771e-05
4.05151e-05
3.80984e-05
3.94217e-05
3.0847e-05
2.17656e-05
1.59067e-05
9.57937e-06
1.26851e-05
1.38398e-05
1.51548e-05
2.25694e-05
1.3328e-05
4.85102e-06
0
0
0
0
0
0
1.44012e-05
1.5781e-05
1.95205e-05
9.89068e-06
0
0
4.14298e-06
0
0
0
3.60858e-05
1.6095e-05
5.8699e-06
4.89151e-06
5.21684e-06
7.08839e-06
1.70799e-05
5.70209e-06
0
0
0
0
0
0
0
0
0
0
0
0
5.06953e-07
2.95561e-06
1.036e-05
2.10471e-05
1.64065e-05
1.27729e-05
1.00672e-05
1.0868e-05
1.82679e-05
2.59483e-05
3.33138e-05
5.31905e-05
3.45682e-05
2.46978e-05
1.24202e-05
3.28803e-05
3.34693e-05
2.05847e-05
8.75724e-06
4.44777e-06
7.11857e-06
1.26639e-05
2.38726e-05
2.60996e-05
3.04389e-05
2.5495e-05
2.08668e-05
3.5187e-05
5.30734e-05
5.70242e-05
4.8526e-05
3.44259e-05
3.43757e-05
3.47768e-05
4.1575e-05
4.86425e-05
3.69988e-05
4.22755e-05
5.47242e-05
5.49455e-05
5.28789e-05
5.37678e-05
4.53724e-05
3.6572e-05
3.00558e-05
2.40075e-05
2.69915e-05
2.8843e-05
3.08745e-05
3.73347e-05
2.88285e-05
1.98678e-05
1.25569e-05
2.06224e-06
5.53462e-08
0
3.40884e-06
1.44406e-05
2.99578e-05
2.81678e-05
2.98158e-05
2.27163e-05
8.94953e-06
6.43902e-06
1.78949e-05
3.76437e-06
1.54659e-05
0
4.06273e-05
2.26934e-05
1.07039e-05
9.42886e-06
1.07168e-05
1.39583e-05
2.53015e-05
1.62616e-05
3.56304e-06
0
0
0
0
0
0
0
0
0
5.03128e-06
1.15119e-05
1.40527e-05
1.65012e-05
2.38024e-05
3.41861e-05
2.99644e-05
2.45429e-05
2.10951e-05
2.19744e-05
2.81046e-05
3.54366e-05
4.28035e-05
6.26276e-05
4.60862e-05
3.95869e-05
2.82001e-05
4.72127e-05
5.04734e-05
3.77469e-05
2.71772e-05
2.29593e-05
2.59577e-05
3.17226e-05
4.31959e-05
4.48862e-05
4.93415e-05
4.35711e-05
3.87465e-05
5.30024e-05
7.28064e-05
7.56296e-05
6.65748e-05
5.10377e-05
5.09369e-05
5.18855e-05
6.0412e-05
6.73729e-05
5.5552e-05
6.12842e-05
7.34692e-05
7.29638e-05
7.14816e-05
7.1792e-05
6.38858e-05
5.54176e-05
4.81825e-05
4.24017e-05
4.51827e-05
4.77705e-05
5.05793e-05
5.49175e-05
4.76751e-05
3.95754e-05
3.02424e-05
2.06715e-05
1.94974e-05
2.00482e-05
2.79334e-05
3.72624e-05
5.08694e-05
4.55538e-05
4.74216e-05
4.47521e-05
3.85892e-05
3.74718e-05
4.2994e-05
3.28104e-05
7.75049e-05
0
4.50507e-05
3.08927e-05
1.74877e-05
1.52376e-05
1.84001e-05
2.28672e-05
3.53059e-05
2.8718e-05
1.66833e-05
1.09515e-05
4.92632e-06
0
0
0
0
0
2.51499e-06
1.21821e-05
2.14974e-05
2.7898e-05
3.0439e-05
3.28879e-05
4.03544e-05
5.17573e-05
4.84444e-05
4.08431e-05
3.53925e-05
3.63705e-05
4.11732e-05
4.72597e-05
5.43234e-05
7.66996e-05
6.4369e-05
5.94646e-05
4.86647e-05
6.56694e-05
7.20551e-05
5.9103e-05
4.99562e-05
4.57576e-05
5.01593e-05
5.5712e-05
6.79207e-05
6.9045e-05
7.39357e-05
6.69821e-05
6.19318e-05
7.68792e-05
9.88172e-05
0.000101265
9.1567e-05
7.31095e-05
7.24068e-05
7.39276e-05
8.43785e-05
9.16721e-05
7.87292e-05
8.53855e-05
9.6401e-05
9.49868e-05
9.41755e-05
9.36684e-05
8.67623e-05
7.91064e-05
7.15908e-05
6.57617e-05
6.83157e-05
7.20765e-05
7.62008e-05
7.68818e-05
7.04827e-05
6.41893e-05
5.28526e-05
4.52685e-05
4.59131e-05
4.83323e-05
5.83475e-05
6.63322e-05
7.7726e-05
6.6722e-05
7.09011e-05
7.4167e-05
7.49405e-05
7.29439e-05
7.30165e-05
7.26775e-05
0.000149462
3.63146e-05
5.01443e-05
4.11182e-05
2.75534e-05
2.39356e-05
2.86638e-05
3.48535e-05
4.83899e-05
4.30451e-05
3.25544e-05
2.68232e-05
2.07642e-05
1.17683e-05
1.01444e-05
1.19785e-05
1.42154e-05
1.74625e-05
2.24359e-05
3.21018e-05
4.14169e-05
4.78625e-05
5.09599e-05
5.45339e-05
6.34962e-05
7.76621e-05
7.50095e-05
6.4829e-05
5.67474e-05
5.71417e-05
6.10511e-05
6.55509e-05
7.13441e-05
0.00010045
9.17074e-05
8.59653e-05
7.54639e-05
8.99726e-05
0.000100226
8.76528e-05
7.95326e-05
7.56541e-05
8.19589e-05
8.69866e-05
0.000100304
0.000101942
0.00010678
9.8732e-05
9.41061e-05
0.000109852
0.000133919
0.000137083
0.000127702
0.000104967
0.00010248
0.000105236
0.000117398
0.00012545
0.00011005
0.000117353
0.000126083
0.000123498
0.000123189
0.000121202
0.000115084
0.000108366
0.000101506
9.53939e-05
9.748e-05
0.000102921
0.000108869
0.000105128
9.8449e-05
9.37131e-05
8.16736e-05
7.65519e-05
8.00074e-05
8.6207e-05
9.5101e-05
0.000103028
0.000112527
9.61223e-05
0.000100668
0.00010877
0.000112352
0.000110644
0.000102051
0.000124196
0.000197403
0.000148807
5.5945e-05
5.47349e-05
4.20778e-05
3.74775e-05
4.23431e-05
5.13479e-05
6.61758e-05
6.06676e-05
5.24705e-05
4.64649e-05
3.99239e-05
3.11484e-05
3.12588e-05
3.34921e-05
3.68796e-05
4.13156e-05
4.65344e-05
5.65717e-05
6.70944e-05
7.5051e-05
7.99968e-05
8.60701e-05
9.741e-05
0.000113605
0.000112147
0.000100071
8.94915e-05
8.996e-05
9.3587e-05
9.72663e-05
0.000101364
0.00013689
0.000129755
0.000122168
0.000111853
0.000121877
0.000137264
0.000126883
0.000119417
0.000115605
0.000123362
0.000128569
0.000144494
0.00014903
0.000152861
0.000144134
0.000140186
0.00015581
0.000178592
0.000183858
0.000177365
0.000149922
0.000145855
0.000151646
0.000164797
0.00017341
0.000155309
0.00016294
0.00016835
0.000163374
0.000163116
0.0001584
0.000152621
0.000146472
0.000140658
0.000134588
0.000135073
0.000143214
0.000149861
0.000142762
0.00013521
0.000128625
0.000117746
0.000115902
0.000121807
0.00013295
0.00013984
0.000148875
0.00015666
0.000139254
0.000141396
0.000148544
0.000150191
0.000150994
0.000139152
0.000198419
0.000237793
0.000210076
6.06746e-05
7.1826e-05
6.10212e-05
5.65076e-05
6.11786e-05
7.35878e-05
8.90896e-05
8.36285e-05
7.77581e-05
7.21569e-05
6.45345e-05
5.63205e-05
5.79945e-05
6.11199e-05
6.55967e-05
7.09659e-05
7.80793e-05
9.03813e-05
0.000104173
0.000115285
0.00012248
0.000130185
0.000142961
0.00016148
0.000160844
0.000147431
0.000135474
0.000137416
0.000141244
0.000144946
0.000148572
0.000186062
0.000180073
0.000169586
0.000159271
0.000164258
0.000187112
0.000179139
0.000172184
0.000168393
0.000179252
0.000186628
0.000206309
0.000214554
0.000215262
0.000205882
0.000202161
0.000214788
0.000232996
0.000241955
0.00024074
0.000209057
0.000205083
0.000214727
0.000228531
0.00023778
0.00021809
0.000226122
0.000227401
0.000218604
0.000218484
0.000210075
0.00020548
0.000200707
0.0001959
0.000190487
0.00018801
0.000199902
0.00020335
0.000194981
0.000187721
0.000175347
0.000165219
0.000166947
0.000174713
0.000186509
0.00019561
0.000205034
0.000213255
0.000196816
0.000195435
0.000197023
0.000197141
0.000195587
0.00020766
0.000285955
0.000316062
0.000263515
6.31425e-05
9.0312e-05
8.48998e-05
8.14669e-05
8.7233e-05
0.000103489
0.000120489
0.000114793
0.000111235
0.000108218
0.000100603
9.40604e-05
9.78715e-05
0.000102578
0.000108925
0.000116855
0.000128267
0.000145318
0.000162728
0.000176044
0.000184493
0.000192818
0.000206618
0.000229771
0.000228759
0.000211961
0.000198951
0.000202169
0.000206035
0.000209658
0.000213289
0.000250032
0.000245671
0.000230678
0.000220436
0.000223657
0.000255724
0.000249445
0.000243566
0.000240396
0.000255968
0.000265694
0.000286573
0.000297724
0.000292992
0.000283109
0.000279509
0.000286527
0.000301773
0.000315091
0.000318412
0.000284434
0.000281589
0.000293454
0.00030818
0.000318979
0.000299168
0.000307586
0.000304255
0.00029298
0.000292644
0.000280169
0.000278189
0.000276271
0.000273412
0.000269977
0.0002649
0.000279057
0.000275757
0.000267791
0.000262764
0.000246296
0.00023609
0.000239521
0.000246158
0.000253657
0.000263306
0.000271479
0.000284359
0.000267305
0.000262302
0.000260805
0.000261055
0.000254938
0.000313686
0.000367311
0.000408155
0.000330571
6.46393e-05
0.000106375
0.000114895
0.000114294
0.000125225
0.000145727
0.000166909
0.000162579
0.000163665
0.000164489
0.000160557
0.000159348
0.000166594
0.000173811
0.000183819
0.000194955
0.000209694
0.000231428
0.000251672
0.000265742
0.000274524
0.000282809
0.000297255
0.000324808
0.000323589
0.000302325
0.000288776
0.00029156
0.00029452
0.000297018
0.000299398
0.000333476
0.000331973
0.000311534
0.000301686
0.000308541
0.00034869
0.00034306
0.000338905
0.000336384
0.000354247
0.000365144
0.000384151
0.00039789
0.000388031
0.000376952
0.000373944
0.00037435
0.000391636
0.000407539
0.000411996
0.000379984
0.000376306
0.000389534
0.000406195
0.000419495
0.000400132
0.000407379
0.000399003
0.000388588
0.000385229
0.000370034
0.000372006
0.000374384
0.000375248
0.000374683
0.000368112
0.000378473
0.000371051
0.00036518
0.000361103
0.000347124
0.00034251
0.000342131
0.000341992
0.000343582
0.000344979
0.000350459
0.000371344
0.000355244
0.000347922
0.000343195
0.000335804
0.000349265
0.000435183
0.000450758
0.000455579
0.000408462
6.62119e-05
0.000115286
0.000149088
0.000160972
0.000181451
0.000208329
0.000233349
0.000236834
0.000244658
0.000250211
0.000254374
0.00026133
0.000272477
0.000282571
0.000296099
0.000308987
0.000324109
0.000348222
0.000369697
0.000383314
0.000391662
0.000398957
0.000413523
0.000442483
0.000441799
0.000418688
0.00040806
0.000409465
0.000411023
0.000412232
0.000413359
0.000440673
0.000442129
0.000417116
0.000410035
0.000422877
0.000471592
0.000460877
0.000458601
0.000456886
0.000474226
0.000485792
0.000502049
0.000518078
0.000504533
0.00048808
0.000485037
0.000481622
0.000506294
0.000520683
0.000523566
0.000500356
0.00049193
0.00050776
0.000526614
0.000539039
0.000523112
0.000526194
0.00051434
0.00050605
0.000496731
0.000480359
0.00048767
0.000495798
0.000500607
0.000500601
0.000492192
0.000492374
0.000488216
0.000486298
0.000480672
0.000474495
0.000476293
0.000465995
0.000457566
0.000452826
0.000448367
0.000452814
0.000483436
0.000475746
0.000459532
0.000447151
0.000430573
0.000489222
0.000535613
0.000528364
0.000510345
0.000515777
6.79203e-05
0.000119047
0.000180099
0.000222571
0.000263717
0.000299019
0.000323571
0.000340089
0.000352419
0.000364422
0.000379158
0.000392702
0.00040701
0.000420375
0.000436421
0.000451007
0.000465993
0.000490298
0.000511727
0.000523841
0.000531211
0.00053771
0.00055392
0.000581575
0.000581997
0.000559512
0.000554061
0.000554242
0.000554603
0.000554961
0.000555388
0.000571881
0.000576572
0.000554923
0.000552497
0.000568035
0.000628473
0.000605697
0.000602738
0.000602543
0.000618167
0.00062973
0.000642677
0.000659996
0.000643484
0.000618464
0.000609096
0.000612197
0.000644681
0.00065241
0.00065475
0.000646324
0.000632893
0.000650887
0.000669758
0.000674767
0.000668442
0.000665432
0.000654676
0.000648477
0.000633085
0.000616855
0.000629609
0.000641806
0.000647184
0.0006452
0.000632958
0.000624988
0.000628291
0.000628032
0.000624593
0.000624401
0.000618868
0.00060238
0.000586584
0.000578376
0.000579744
0.000592897
0.000632292
0.000631674
0.000602658
0.000581815
0.000587378
0.000644467
0.000619544
0.000616232
0.000654195
0.000697025
6.89614e-05
0.000122639
0.000201736
0.000281766
0.000357854
0.000409632
0.000439318
0.000469316
0.000486524
0.000506722
0.000531066
0.000550415
0.000567222
0.00058189
0.000597355
0.000613085
0.00062749
0.000650244
0.000671325
0.000682464
0.000689358
0.000696841
0.000716682
0.000743581
0.000746998
0.000728986
0.000727134
0.000726161
0.000725363
0.000724658
0.000723958
0.000730136
0.000739334
0.000732249
0.000729014
0.000747226
0.000817094
0.00078874
0.000775458
0.000774496
0.000785773
0.00079635
0.000806598
0.000823749
0.000806239
0.000772811
0.000754044
0.00077259
0.000801468
0.000798832
0.000806138
0.00081418
0.000796827
0.00081485
0.000833341
0.000832895
0.000834013
0.00082728
0.000820893
0.000815957
0.000796033
0.000784153
0.000800198
0.00081149
0.000814907
0.000808991
0.000793108
0.00078239
0.000790309
0.000788403
0.000792423
0.000793386
0.000774586
0.000755656
0.00073898
0.000732201
0.000742831
0.000767116
0.000801744
0.000798922
0.000781438
0.000767707
0.000794292
0.000762022
0.000731703
0.000772942
0.000845062
0.000944049
6.56015e-05
0.000122045
0.000209791
0.000316472
0.000421954
0.000504137
0.000556772
0.00060396
0.000636111
0.000667782
0.00070102
0.000728895
0.000750855
0.000765754
0.000777719
0.000791553
0.000803859
0.000824838
0.000845039
0.00085601
0.000863863
0.000876511
0.000899673
0.00092798
0.000937537
0.000928362
0.000928706
0.000928132
0.000927704
0.000927296
0.000928617
0.000931947
0.000941737
0.000947438
0.000934109
0.000957584
0.00102785
0.00101334
0.000987769
0.000976543
0.000980359
0.000989619
0.000999239
0.00101374
0.000993023
0.000951933
0.000937877
0.000969396
0.000977435
0.000965912
0.000981667
0.0010055
0.000983327
0.000998391
0.00101923
0.00101882
0.00101828
0.00101376
0.00101295
0.00100498
0.000984656
0.000976586
0.00099239
0.00100292
0.00100403
0.000991835
0.000978251
0.00096908
0.000972822
0.000973573
0.000983309
0.00097813
0.000954717
0.00093361
0.00092486
0.000927599
0.000947214
0.000957273
0.000975471
0.000984103
0.000992618
0.000981218
0.000961464
0.000899822
0.000937722
0.00100512
0.00106681
0.00114428
5.55271e-05
0.000109698
0.000198015
0.000316944
0.000437644
0.000541509
0.000620537
0.000692401
0.000751861
0.000806789
0.000855489
0.000891336
0.000920445
0.000941055
0.000956121
0.000972256
0.000984911
0.00100484
0.00102408
0.00103534
0.00104675
0.0010662
0.00108945
0.00111679
0.0011345
0.00113208
0.00113492
0.00113714
0.00114159
0.00114644
0.00115518
0.00116443
0.00116803
0.00117767
0.00115845
0.00118083
0.00124125
0.00124867
0.0012257
0.0012042
0.0012022
0.00120922
0.00121784
0.00122592
0.00120174
0.0011679
0.00117184
0.00120293
0.00118495
0.00117135
0.00119066
0.00122715
0.00120615
0.00121248
0.00122934
0.00123011
0.00122857
0.00122978
0.00123169
0.0012198
0.00120217
0.00119254
0.00120321
0.00121375
0.00121341
0.00120354
0.00119847
0.00119252
0.00118641
0.00118773
0.00119637
0.00118458
0.00116565
0.00115059
0.00115182
0.00117068
0.00118453
0.0011509
0.0011626
0.00119718
0.00122272
0.00120251
0.00117005
0.00114914
0.00122705
0.0012762
0.00128999
0.00131859
4.36609e-05
8.85374e-05
0.000170779
0.000286521
0.000409257
0.00051653
0.000612177
0.000700997
0.000783867
0.000872363
0.000944961
0.000990286
0.00102885
0.00106419
0.00109597
0.00112704
0.00114655
0.00116663
0.00118534
0.00119728
0.00121443
0.00123673
0.00125771
0.0012812
0.00130625
0.00130749
0.00131465
0.00132227
0.00133468
0.00134788
0.00136274
0.00137738
0.00137171
0.0013836
0.00137408
0.00138775
0.00143414
0.00145611
0.00144429
0.00143031
0.0014272
0.00143156
0.00143303
0.00143277
0.00141897
0.00141547
0.00143689
0.00145748
0.00143522
0.00142611
0.00144163
0.00147867
0.0014645
0.00145759
0.00145751
0.00146516
0.00146813
0.00147129
0.00146723
0.00145538
0.00144042
0.00143059
0.00143676
0.00144727
0.00145006
0.00145165
0.00145542
0.00145077
0.0014403
0.00143494
0.0014313
0.00142436
0.00141794
0.00141838
0.00143232
0.00144676
0.00142889
0.00137702
0.00139404
0.00144365
0.00147647
0.00145881
0.00144639
0.00146939
0.00153088
0.00152415
0.00151066
0.00152073
3.39656e-05
6.54772e-05
0.000134149
0.000234848
0.00034847
0.000456144
0.000559735
0.000651725
0.000744754
0.00085471
0.000950572
0.00101465
0.00107111
0.00112516
0.00117511
0.00122316
0.00125602
0.00128425
0.0013093
0.00133043
0.00135777
0.00138508
0.00140906
0.00143438
0.00146645
0.00148045
0.00149703
0.00151206
0.00152927
0.00154333
0.00155614
0.00156824
0.00155511
0.00157101
0.00157249
0.00157806
0.00161812
0.00165141
0.00164713
0.0016414
0.00163562
0.00163833
0.00163064
0.00162499
0.00163122
0.00165348
0.00168145
0.00169957
0.00169866
0.00169988
0.00171506
0.00174506
0.00173853
0.00172152
0.00170707
0.00172011
0.00172437
0.00172233
0.00171067
0.00169956
0.00168995
0.00168453
0.00169495
0.00170931
0.00171566
0.00172197
0.00172739
0.00172497
0.00172055
0.00171411
0.00169562
0.00169761
0.00171292
0.00173629
0.00175093
0.00172027
0.001674
0.00165948
0.00169395
0.00174177
0.00176717
0.00176472
0.00173471
0.00176515
0.00178019
0.00175837
0.00176323
0.0017559
2.47763e-05
4.52057e-05
8.90564e-05
0.000169777
0.000270325
0.000376427
0.000478899
0.00056833
0.000666091
0.000775116
0.00088533
0.000971186
0.00104736
0.0011147
0.00117472
0.00123246
0.0012825
0.00133072
0.00137342
0.00141326
0.00145403
0.00149225
0.00152634
0.00156132
0.00160313
0.00164063
0.00166891
0.00169082
0.00171169
0.00172494
0.001736
0.00174637
0.00174081
0.00176223
0.0017746
0.00178197
0.00181812
0.00185612
0.00185714
0.00185165
0.00183895
0.00183514
0.00182716
0.00182575
0.00185064
0.00187684
0.00189412
0.00191396
0.00192869
0.00194287
0.00196765
0.00199876
0.00200628
0.00198733
0.00197405
0.00197883
0.001978
0.00197174
0.00196273
0.00195545
0.00195207
0.00195406
0.00197213
0.00199309
0.00200241
0.00200647
0.00200904
0.00201208
0.00201685
0.0020138
0.00199692
0.00199614
0.00201803
0.00204104
0.00202492
0.00196231
0.0019255
0.00194336
0.00198084
0.00202272
0.00202991
0.00200087
0.0019506
0.0019717
0.0019761
0.00201552
0.00204491
0.00205749
1.63111e-05
3.01993e-05
4.85253e-05
0.000101564
0.000175036
0.000266111
0.00034993
0.000430319
0.000523812
0.000619467
0.000732153
0.000836225
0.000928428
0.00101035
0.00108787
0.00115833
0.00122507
0.00129222
0.00135728
0.00141623
0.00146591
0.00151142
0.00155155
0.00159814
0.0016451
0.0016923
0.00172956
0.00175904
0.00178718
0.00181143
0.00183416
0.00185688
0.00187299
0.00189655
0.00192469
0.00194756
0.00197915
0.00201344
0.00202111
0.00202097
0.00200806
0.00200222
0.0020048
0.00202116
0.00205835
0.00208031
0.00209091
0.00211218
0.00212917
0.00214841
0.00217621
0.00220493
0.00221789
0.00220128
0.00219304
0.00218667
0.0021835
0.00218108
0.00218086
0.00218158
0.00218489
0.00219339
0.00221161
0.00223057
0.00223768
0.00224237
0.00224774
0.00225469
0.00226212
0.00226264
0.00225742
0.00225493
0.0022553
0.00224071
0.00220236
0.00217131
0.00216138
0.00217806
0.0022098
0.00223146
0.0022203
0.00220425
0.00219239
0.00220795
0.002213
0.00229299
0.0023014
0.00233053
9.75537e-06
1.83842e-05
2.69246e-05
4.76609e-05
7.60726e-05
0.000128157
0.000174971
0.000238945
0.000314257
0.000392028
0.000488955
0.000597933
0.000702688
0.000805021
0.000906843
0.000994771
0.00107533
0.00115141
0.00123477
0.00131204
0.0013707
0.00142427
0.00146711
0.00152362
0.00156911
0.00161294
0.00165871
0.00169924
0.00173901
0.00177469
0.00180702
0.0018372
0.00186413
0.001889
0.00193155
0.00196954
0.00200824
0.00204824
0.00207011
0.00208018
0.00207957
0.00208696
0.00210516
0.00213762
0.00218001
0.00220579
0.00222244
0.00224544
0.00226168
0.00227878
0.00230079
0.00231805
0.00232499
0.00231908
0.00231523
0.00230986
0.0023077
0.00231178
0.00231767
0.00232119
0.00232614
0.00233488
0.00234687
0.0023556
0.00235974
0.00236449
0.00237064
0.00237774
0.00238465
0.00238987
0.0023969
0.00240471
0.002398
0.00238586
0.00237784
0.0023738
0.00235086
0.00237076
0.00239165
0.00240842
0.00241763
0.00246545
0.00247673
0.00241074
0.00240099
0.00248646
0.00247615
0.00252318
3.99637e-06
9.99497e-06
1.85594e-05
1.64095e-05
1.13525e-05
2.08923e-05
3.92242e-05
7.43961e-05
0.000117445
0.000170949
0.000238091
0.000326656
0.000424944
0.000528007
0.000632726
0.000728813
0.00082019
0.000902736
0.000987085
0.0010672
0.0011373
0.00120679
0.00126871
0.00133961
0.0013901
0.00143687
0.00148741
0.00153969
0.0015922
0.00163511
0.00167076
0.00169852
0.0017286
0.00176204
0.00181997
0.00185961
0.00190419
0.00195287
0.00199374
0.0020166
0.00202991
0.00205188
0.00207728
0.00211067
0.00215288
0.00218742
0.00220822
0.0022305
0.00224502
0.00225933
0.00228292
0.00230134
0.00231115
0.00231541
0.00231802
0.00231688
0.00231666
0.00232804
0.00234122
0.0023501
0.00235644
0.00236369
0.00237389
0.00238572
0.0023927
0.00239762
0.00240232
0.00240826
0.00241968
0.00243487
0.00245468
0.00247589
0.0024877
0.00249502
0.00248622
0.00246635
0.00244806
0.00249315
0.00250604
0.00256626
0.00256464
0.00257456
0.00254998
0.00251408
0.002563
0.00260132
0.00257247
0.00259432
0
6.18133e-06
1.17244e-05
0
0
0
0
0
1.50737e-06
2.94294e-05
6.57196e-05
0.000112812
0.000176668
0.000249862
0.000328348
0.000407941
0.000487999
0.000559268
0.000623689
0.000693517
0.000769697
0.000853535
0.000946081
0.00103621
0.00110184
0.00116066
0.0012124
0.00126615
0.00132395
0.00137133
0.00140367
0.001431
0.00146885
0.00151941
0.00159024
0.00163351
0.00168162
0.00172552
0.00176278
0.0017893
0.00181353
0.00185007
0.00188152
0.00191605
0.00195674
0.00198846
0.0020032
0.00201777
0.00202554
0.00203922
0.00207002
0.00210358
0.0021261
0.00214342
0.00216032
0.00216516
0.00216851
0.00218448
0.0022063
0.0022266
0.00223613
0.00223753
0.0022418
0.00224714
0.00224922
0.00224956
0.00225639
0.00227387
0.00230177
0.00232995
0.00235925
0.00238891
0.00241378
0.00243475
0.00243774
0.00242143
0.00240699
0.00243616
0.00241442
0.00244491
0.00245852
0.00248178
0.00247216
0.00253783
0.00263852
0.00261564
0.00254587
0.00249245
0
5.49839e-06
4.50299e-06
0
0
0
0
0
0
0
0
0
2.3967e-05
6.05389e-05
0.00010003
0.00014314
0.000188453
0.000227947
0.000265417
0.000314972
0.000373745
0.000445683
0.000531677
0.00061643
0.000691843
0.000760103
0.000805067
0.000851552
0.000912479
0.000963434
0.000987207
0.00100956
0.00104842
0.00111076
0.00117675
0.00124223
0.00130563
0.00134879
0.00136089
0.00137714
0.00140139
0.0014364
0.00146788
0.00150521
0.00153485
0.00155184
0.00156635
0.00158728
0.00160316
0.00163974
0.00168498
0.00172884
0.00175149
0.00177149
0.00179214
0.00180634
0.0018225
0.0018522
0.00188868
0.00192779
0.00195264
0.00194968
0.00192973
0.00191412
0.0018939
0.00187352
0.00187747
0.00191502
0.00195061
0.00196175
0.00198521
0.00202931
0.00206257
0.00208844
0.00209151
0.00208955
0.00212543
0.00216737
0.00217655
0.00219845
0.00219957
0.00215831
0.00211485
0.00220606
0.00229643
0.00226792
0.00221651
0.00215925
0
5.63482e-06
0
0
0
0
0
0
0
0
0
0
0
0
0
4.72535e-06
2.31811e-05
3.60054e-05
4.76867e-05
7.10489e-05
0.000102674
0.000143219
0.000188169
0.000235417
0.000289928
0.000343318
0.000367218
0.000388407
0.000418921
0.000446505
0.000461967
0.000477745
0.000503595
0.000550425
0.000598896
0.000679345
0.000754894
0.000815492
0.000825613
0.000841402
0.000856469
0.000873565
0.000894006
0.0009261
0.000947387
0.000957975
0.000977136
0.00101516
0.00104374
0.00109197
0.00113671
0.00117264
0.00118609
0.00120058
0.00121637
0.00123557
0.0012561
0.00128694
0.00132297
0.00136131
0.00139359
0.00140414
0.00137469
0.00134726
0.00133912
0.00133591
0.00134428
0.00137491
0.00139719
0.00141857
0.00145558
0.00148388
0.00146446
0.0014788
0.00155236
0.0016117
0.00162205
0.00159156
0.00154126
0.00158017
0.00161298
0.00154779
0.00151496
0.00160016
0.00164297
0.00161774
0.00158121
0.00154009
0
2.98589e-06
0
0
0
0
0
0
0
0
0
0
0
0
0
0
0
0
0
0
8.59354e-06
2.68771e-05
4.22189e-05
5.29983e-05
6.84556e-05
8.80037e-05
9.7918e-05
0.000104649
0.000114085
0.000126119
0.000137359
0.00014649
0.000152498
0.000160955
0.00017196
0.000205347
0.000241227
0.00027754
0.000291272
0.000308029
0.000321448
0.000335338
0.000348857
0.000371303
0.000396027
0.000411712
0.000431351
0.000465092
0.000486555
0.000511272
0.000530216
0.000542982
0.000543382
0.000546637
0.000552438
0.000570795
0.000594251
0.000622665
0.000654955
0.000687969
0.000722063
0.000767902
0.000779792
0.000780311
0.000779965
0.000776352
0.000764835
0.000761334
0.000752785
0.000760421
0.000798247
0.000837042
0.000827293
0.000814051
0.000761717
0.000697809
0.000635596
0.000617515
0.000659819
0.000705586
0.000704846
0.000681668
0.000696813
0.000757279
0.000801688
0.000818316
0.000818428
0.000812139
0
0
0
0
0
0
0
0
0
0
0
0
0
0
0
0
0
0
0
0
0
0
0
1.62886e-06
3.29881e-06
1.13208e-05
2.2482e-05
2.37276e-05
2.71728e-05
3.48845e-05
4.13861e-05
4.35508e-05
4.03709e-05
3.54076e-05
3.24414e-05
3.41049e-05
3.90671e-05
4.44817e-05
4.90495e-05
5.48518e-05
6.32209e-05
7.54371e-05
8.39795e-05
9.9322e-05
0.000120062
0.000132017
0.000139143
0.000145637
0.000145298
0.000144125
0.000143082
0.000140538
0.000134699
0.00012918
0.000122489
0.000119294
0.000123833
0.000132312
0.000144421
0.000158801
0.000176493
0.000215595
0.000239887
0.000227682
0.000209581
0.000196228
0.000192307
0.000200737
0.000210923
0.000215565
0.000210739
0.000189124
0.000144259
0.000116663
9.4776e-05
9.08525e-05
0.00010193
0.000127432
0.000166366
0.000197131
0.000218152
0.000232358
0.000244129
0.00024022
0.000225044
0.000205584
0.000190131
0.000182742
0
0
0
0
0
0
0
0
0
0
0
0
0
0
0
0
0
0
0
3.10154e-07
0
1.07185e-06
2.80604e-06
7.45046e-06
6.57942e-06
9.96975e-06
1.70341e-05
1.27493e-05
1.30341e-05
1.34618e-05
1.52426e-05
1.38697e-05
9.27346e-06
5.1004e-06
1.08477e-06
0
0
0
0
0
0
2.85165e-07
5.32998e-06
1.34184e-05
2.31163e-05
2.786e-05
2.87511e-05
2.80462e-05
2.50813e-05
2.05559e-05
1.47586e-05
7.5958e-06
3.77072e-06
2.57478e-06
1.28415e-06
0
0
0
0
0
0
3.92494e-08
2.77126e-06
0
0
0
0
1.65351e-06
1.07542e-05
1.19133e-05
4.42315e-06
0
0
0
0
0
2.52931e-06
1.61033e-05
2.43568e-05
3.38418e-05
4.37529e-05
4.92337e-05
4.98651e-05
4.3303e-05
3.10423e-05
1.59448e-05
3.52399e-06
0
0
0
0
0
0
0
0
0
0
0
0
0
0
0
0
0
0
0
0
0
9.95234e-08
5.46909e-06
8.37641e-06
9.45364e-06
6.93537e-06
4.57148e-06
6.4364e-06
3.43266e-06
4.47728e-06
1.32013e-06
0
0
0
0
0
0
0
0
0
0
0
0
0
0
0
0
0
0
4.95449e-07
3.49527e-07
0
0
0
1.22364e-06
2.56178e-06
1.10603e-06
0
0
0
0
0
3.37807e-07
1.05963e-06
0
0
0
0
0
0
0
0
0
0
0
0
0
0
0
6.07483e-06
1.12802e-05
1.52923e-05
1.84401e-05
1.97031e-05
1.90221e-05
1.6189e-05
1.24048e-05
8.65785e-06
4.46356e-06
0
0
0
0
0
0
0
3.65477e-07
0
0
0
0
2.29015e-06
1.29061e-06
0
0
0
0
0
0
0
0
4.66926e-07
0
0
0
0
0
0
0
0
0
0
0
0
0
0
0
0
0
0
0
0
0
0
8.73318e-07
5.10016e-06
9.15499e-06
1.26477e-05
1.47283e-05
1.61022e-05
1.70017e-05
1.72555e-05
1.77932e-05
1.75204e-05
1.51587e-05
1.16176e-05
9.81135e-06
1.24429e-05
1.47794e-05
1.7191e-05
2.0548e-05
2.23572e-05
2.17265e-05
1.6955e-05
1.04037e-05
3.69625e-06
0
0
0
0
0
0
0
2.16662e-06
5.87465e-06
9.85677e-06
1.14423e-05
9.27436e-06
5.38785e-06
2.01321e-06
7.7261e-07
2.16924e-06
4.73878e-06
6.832e-06
8.48069e-06
9.83584e-06
1.08232e-05
0
0
0
0
0
0
6.94311e-06
0
0
0
0
1.30496e-05
1.26676e-05
5.07657e-06
0
0
0
0
0
0
0
0
0
0
3.19798e-07
2.60192e-06
3.1269e-06
2.3721e-06
0
0
0
0
0
0
0
0
0
0
0
0
0
0
0
0
6.48941e-07
3.20014e-06
6.51605e-06
1.06551e-05
1.49113e-05
1.88881e-05
2.24461e-05
2.5704e-05
2.79783e-05
2.96012e-05
3.09832e-05
3.21262e-05
3.18173e-05
2.91542e-05
2.62756e-05
2.31068e-05
2.01931e-05
1.61019e-05
1.03686e-05
6.90997e-06
2.9165e-06
0
0
0
0
0
0
0
1.66717e-06
4.92179e-06
8.9642e-06
1.16152e-05
1.2928e-05
1.30214e-05
1.23146e-05
1.1026e-05
8.04199e-06
3.41936e-06
0
0
0
0
0
0
0
0
0
0
0
3.36536e-06
0
0
0
4.67578e-06
1.71614e-05
2.43242e-05
1.05301e-05
0
0
0
0
0
0
0
5.50113e-06
1.15441e-05
1.4128e-05
1.46527e-05
1.42275e-05
1.49148e-05
1.46809e-05
1.29437e-05
9.55352e-06
7.66793e-06
7.69887e-06
8.24792e-06
8.59069e-06
8.98696e-06
8.20589e-06
6.35807e-06
3.35311e-06
0
0
0
0
0
0
0
0
5.00044e-07
5.97749e-06
1.24245e-05
1.92496e-05
2.69056e-05
3.24914e-05
3.40409e-05
3.3361e-05
3.19115e-05
3.03477e-05
2.8373e-05
2.58159e-05
2.28317e-05
1.89092e-05
1.31106e-05
4.57503e-06
0
0
0
0
0
0
0
0
0
0
0
1.25076e-06
6.68312e-06
1.05027e-05
1.22754e-05
1.28365e-05
1.26194e-05
1.10873e-05
8.87034e-06
6.88377e-06
5.04729e-06
3.46656e-06
2.21411e-06
1.15799e-06
1.56757e-07
0
0
0
0
0
0
0
0
0
0
9.48072e-06
2.34197e-05
2.68189e-05
2.48564e-05
3.88644e-06
0
0
0
0
3.30669e-06
1.86498e-05
2.73346e-05
2.88332e-05
2.84685e-05
2.71777e-05