/*--------------------------------*- C++ -*----------------------------------*\
| =========                 |                                                 |
| \\      /  F ield         | OpenFOAM: The Open Source CFD Toolbox           |
|  \\    /   O peration     | Version:  5.x                                   |
|   \\  /    A nd           | Web:      www.OpenFOAM.org                      |
|    \\/     M anipulation  |                                                 |
\*---------------------------------------------------------------------------*/
FoamFile
{
    version     2.0;
    format      ascii;
    class       volScalarField;
    location    "384";
    object      p;
}
// * * * * * * * * * * * * * * * * * * * * * * * * * * * * * * * * * * * * * //

dimensions      [0 2 -2 0 0 0 0];

internalField   nonuniform List<scalar> 
20540
(
-63.5622
-62.0855
-63.5622
-62.085
-63.5622
-62.0847
-63.5622
-62.0848
-63.5622
-62.0857
-63.5622
-62.0879
-63.5622
-62.0917
-63.5622
-62.0973
-63.5622
-62.1049
-63.5622
-62.1148
-63.5622
-62.1275
-63.5622
-62.1436
-63.5621
-62.1637
-63.5621
-62.1885
-63.5621
-62.2186
-63.5621
-62.2551
-63.5621
-62.2988
-63.5621
-62.3509
-63.5621
-62.4129
-63.5621
-62.4862
-63.5621
-62.5724
-63.5621
-62.673
-63.5622
-62.7895
-63.5624
-62.9227
-63.5627
-63.073
-63.563
-63.239
-63.5635
-63.4176
-63.564
-63.6019
-63.5645
-63.7804
-63.5646
-63.9335
-63.5639
-64.0196
-63.5624
-64.0328
-63.56
-63.9762
-63.5568
-63.85
-63.553
-63.6524
-63.5491
-63.4032
-63.5459
-63.148
-63.5433
-62.9015
-63.5413
-62.672
-63.5399
-62.4638
-63.5388
-62.2783
-63.5381
-62.1153
-63.5376
-61.9736
-63.5372
-61.8514
-63.537
-61.7468
-63.5368
-61.6577
-63.5367
-61.5822
-63.5367
-61.5184
-63.5366
-61.4647
-63.5366
-61.4196
-63.5366
-61.382
-63.5366
-61.3506
-63.5366
-61.3248
-63.5366
-61.3036
-63.5366
-61.2864
-63.5366
-61.2727
-63.5366
-61.2619
-63.5366
-61.2537
-63.5366
-61.2474
-63.5366
-61.2429
-63.5366
-61.2396
-63.5366
-61.2374
-63.5366
-61.236
-63.5366
-61.2353
-63.5366
-61.2351
-68.665
-80.8815
-87.5611
-91.9583
-95.553
-98.6541
-101.993
-104.994
-107.035
-108.8
-110.503
-112.218
-113.75
-115.054
-116.24
-117.264
-118.036
-118.579
-119.13
-119.897
-120.8
-121.653
-122.412
-123.77
-125.447
-126.724
-127.676
-128.214
-128.919
-130.329
-131.972
-134.438
-136.329
-136.156
-135.184
-135.758
-137.481
-137.871
-137.724
-137.689
-137.583
-137.446
-137.659
-138.24
-139.142
-139.919
-139.807
-139.986
-141.862
-144.571
-146.362
-146.573
-146.429
-146.621
-147.016
-148.395
-149.372
-149.685
-151.389
-153.917
-155.998
-158.258
-160.423
-161.966
-162.681
-163.001
-163.515
-164.394
-165.418
-167.359
-169.733
-171.628
-173.673
-176.015
-178.163
-179.739
-180.773
-181.349
-182.118
-184.972
-189.622
-193.919
-197.759
-201.155
-204.09
-208.402
-211.97
-218.736
-68.6549
-80.8821
-87.5613
-91.9583
-95.553
-98.654
-101.993
-104.994
-107.035
-108.8
-110.503
-112.218
-113.75
-115.054
-116.24
-117.264
-118.036
-118.579
-119.13
-119.897
-120.8
-121.653
-122.412
-123.77
-125.447
-126.723
-127.676
-128.213
-128.917
-130.327
-131.969
-134.438
-136.334
-136.159
-135.183
-135.758
-137.483
-137.872
-137.724
-137.689
-137.584
-137.446
-137.66
-138.239
-139.142
-139.92
-139.805
-139.979
-141.855
-144.571
-146.367
-146.576
-146.429
-146.62
-147.012
-148.396
-149.373
-149.679
-151.384
-153.917
-155.998
-158.26
-160.431
-161.975
-162.688
-163.004
-163.515
-164.395
-165.412
-167.359
-169.739
-171.626
-173.67
-176.013
-178.162
-179.74
-180.777
-181.349
-182.111
-184.955
-189.632
-193.939
-197.76
-201.156
-204.092
-208.404
-211.973
-218.72
-68.651
-80.8828
-87.5615
-91.9583
-95.5531
-98.6538
-101.994
-104.994
-107.035
-108.8
-110.503
-112.218
-113.75
-115.054
-116.24
-117.264
-118.037
-118.579
-119.13
-119.897
-120.8
-121.653
-122.412
-123.77
-125.447
-126.723
-127.676
-128.212
-128.915
-130.324
-131.965
-134.438
-136.34
-136.163
-135.182
-135.755
-137.486
-137.874
-137.724
-137.689
-137.584
-137.446
-137.659
-138.238
-139.142
-139.921
-139.801
-139.969
-141.847
-144.571
-146.374
-146.579
-146.429
-146.619
-147.008
-148.398
-149.375
-149.671
-151.377
-153.916
-155.997
-158.263
-160.441
-161.986
-162.699
-163.008
-163.515
-164.396
-165.404
-167.362
-169.755
-171.632
-173.671
-176.01
-178.161
-179.741
-180.781
-181.336
-182.092
-184.942
-189.647
-193.979
-197.774
-201.148
-204.098
-208.414
-211.97
-218.662
-68.6516
-80.8832
-87.5618
-91.9583
-95.5531
-98.6532
-101.994
-104.995
-107.035
-108.8
-110.503
-112.218
-113.75
-115.054
-116.24
-117.264
-118.037
-118.579
-119.131
-119.897
-120.8
-121.653
-122.41
-123.769
-125.448
-126.724
-127.676
-128.21
-128.912
-130.321
-131.961
-134.438
-136.344
-136.169
-135.181
-135.751
-137.49
-137.88
-137.727
-137.69
-137.584
-137.443
-137.656
-138.236
-139.141
-139.923
-139.797
-139.959
-141.839
-144.57
-146.379
-146.583
-146.429
-146.618
-147.005
-148.399
-149.377
-149.664
-151.37
-153.915
-155.996
-158.265
-160.449
-161.996
-162.711
-163.013
-163.514
-164.397
-165.398
-167.365
-169.775
-171.651
-173.685
-176.019
-178.162
-179.737
-180.769
-181.303
-182.07
-184.946
-189.662
-194.031
-197.805
-201.124
-204.112
-208.431
-211.973
-218.564
-68.6531
-80.8831
-87.5621
-91.9583
-95.553
-98.6526
-101.994
-104.997
-107.036
-108.8
-110.502
-112.218
-113.75
-115.055
-116.24
-117.264
-118.037
-118.579
-119.13
-119.897
-120.799
-121.652
-122.408
-123.768
-125.448
-126.724
-127.676
-128.209
-128.909
-130.318
-131.957
-134.437
-136.348
-136.173
-135.18
-135.747
-137.493
-137.885
-137.731
-137.691
-137.583
-137.44
-137.653
-138.234
-139.141
-139.925
-139.794
-139.95
-141.831
-144.568
-146.383
-146.585
-146.429
-146.616
-147.001
-148.4
-149.378
-149.659
-151.365
-153.914
-155.995
-158.267
-160.455
-162.005
-162.721
-163.017
-163.514
-164.398
-165.396
-167.37
-169.79
-171.669
-173.709
-176.035
-178.163
-179.725
-180.742
-181.269
-182.072
-184.971
-189.671
-194.064
-197.83
-201.098
-204.139
-208.42
-212.029
-218.475
-68.6547
-80.8822
-87.5623
-91.9581
-95.5527
-98.6518
-101.994
-104.998
-107.037
-108.801
-110.503
-112.218
-113.75
-115.055
-116.241
-117.264
-118.036
-118.579
-119.129
-119.896
-120.799
-121.651
-122.406
-123.767
-125.449
-126.725
-127.675
-128.208
-128.907
-130.316
-131.952
-134.435
-136.35
-136.176
-135.18
-135.744
-137.494
-137.89
-137.735
-137.692
-137.582
-137.438
-137.651
-138.233
-139.14
-139.926
-139.792
-139.941
-141.822
-144.567
-146.386
-146.588
-146.429
-146.614
-146.997
-148.401
-149.379
-149.654
-151.36
-153.912
-155.993
-158.268
-160.46
-162.012
-162.73
-163.022
-163.516
-164.399
-165.4
-167.377
-169.8
-171.687
-173.731
-176.045
-178.158
-179.709
-180.718
-181.255
-182.106
-185.011
-189.667
-194.057
-197.825
-201.081
-204.162
-208.348
-212.087
-218.403
-68.6567
-80.88
-87.5624
-91.9578
-95.5521
-98.6508
-101.993
-104.999
-107.038
-108.802
-110.504
-112.219
-113.75
-115.055
-116.241
-117.264
-118.035
-118.577
-119.128
-119.896
-120.799
-121.649
-122.404
-123.765
-125.45
-126.726
-127.676
-128.207
-128.905
-130.313
-131.947
-134.431
-136.351
-136.178
-135.181
-135.742
-137.494
-137.894
-137.739
-137.694
-137.582
-137.436
-137.65
-138.232
-139.14
-139.927
-139.789
-139.933
-141.814
-144.563
-146.388
-146.591
-146.429
-146.611
-146.994
-148.401
-149.379
-149.65
-151.357
-153.909
-155.991
-158.268
-160.461
-162.016
-162.737
-163.028
-163.518
-164.401
-165.411
-167.39
-169.806
-171.702
-173.749
-176.047
-178.143
-179.687
-180.697
-181.257
-182.168
-185.067
-189.651
-194.02
-197.791
-201.066
-204.162
-208.217
-212.011
-218.279
-68.6593
-80.8758
-87.5621
-91.9573
-95.5512
-98.6497
-101.992
-105
-107.04
-108.803
-110.505
-112.22
-113.75
-115.055
-116.24
-117.263
-118.034
-118.576
-119.127
-119.895
-120.798
-121.648
-122.401
-123.764
-125.45
-126.727
-127.676
-128.206
-128.904
-130.311
-131.941
-134.425
-136.35
-136.18
-135.183
-135.74
-137.493
-137.898
-137.743
-137.695
-137.582
-137.435
-137.649
-138.232
-139.139
-139.927
-139.787
-139.927
-141.807
-144.557
-146.388
-146.594
-146.429
-146.608
-146.991
-148.401
-149.379
-149.65
-151.357
-153.905
-155.988
-158.266
-160.459
-162.015
-162.74
-163.033
-163.521
-164.402
-165.428
-167.408
-169.809
-171.715
-173.762
-176.038
-178.116
-179.657
-180.675
-181.272
-182.253
-185.14
-189.634
-193.966
-197.735
-201.04
-204.12
-208.044
-211.83
-217.982
-68.6626
-80.8693
-87.5611
-91.9567
-95.5502
-98.6484
-101.992
-105
-107.041
-108.804
-110.506
-112.22
-113.75
-115.054
-116.24
-117.263
-118.034
-118.574
-119.126
-119.894
-120.797
-121.646
-122.399
-123.762
-125.449
-126.728
-127.676
-128.205
-128.903
-130.308
-131.934
-134.416
-136.346
-136.181
-135.187
-135.739
-137.489
-137.899
-137.746
-137.696
-137.582
-137.435
-137.649
-138.231
-139.138
-139.925
-139.786
-139.925
-141.801
-144.548
-146.383
-146.597
-146.428
-146.605
-146.99
-148.401
-149.379
-149.652
-151.359
-153.9
-155.984
-158.263
-160.453
-162.009
-162.74
-163.04
-163.526
-164.405
-165.454
-167.431
-169.815
-171.729
-173.769
-176.019
-178.075
-179.615
-180.65
-181.297
-182.358
-185.231
-189.623
-193.905
-197.66
-200.98
-204.021
-207.83
-211.632
-217.499
-68.6668
-80.86
-87.5591
-91.9559
-95.5489
-98.6471
-101.99
-105
-107.041
-108.805
-110.508
-112.221
-113.75
-115.054
-116.24
-117.262
-118.032
-118.573
-119.125
-119.893
-120.796
-121.644
-122.397
-123.759
-125.448
-126.729
-127.675
-128.205
-128.903
-130.306
-131.927
-134.406
-136.339
-136.18
-135.192
-135.739
-137.482
-137.899
-137.749
-137.697
-137.582
-137.435
-137.648
-138.232
-139.138
-139.923
-139.787
-139.928
-141.797
-144.534
-146.374
-146.596
-146.426
-146.602
-146.99
-148.399
-149.377
-149.66
-151.366
-153.895
-155.98
-158.257
-160.441
-161.994
-162.732
-163.046
-163.533
-164.413
-165.489
-167.456
-169.821
-171.746
-173.771
-175.99
-178.025
-179.563
-180.619
-181.33
-182.482
-185.339
-189.617
-193.834
-197.567
-200.861
-203.86
-207.574
-211.4
-216.871
-68.672
-80.8476
-87.5557
-91.9545
-95.5471
-98.6455
-101.989
-104.999
-107.042
-108.805
-110.509
-112.221
-113.75
-115.054
-116.24
-117.262
-118.031
-118.571
-119.123
-119.892
-120.794
-121.642
-122.395
-123.757
-125.447
-126.728
-127.674
-128.205
-128.905
-130.305
-131.921
-134.395
-136.329
-136.178
-135.198
-135.739
-137.473
-137.897
-137.751
-137.697
-137.582
-137.437
-137.649
-138.234
-139.138
-139.919
-139.791
-139.938
-141.795
-144.517
-146.359
-146.593
-146.423
-146.599
-146.992
-148.396
-149.374
-149.672
-151.376
-153.889
-155.976
-158.247
-160.42
-161.969
-162.716
-163.05
-163.542
-164.429
-165.534
-167.483
-169.823
-171.758
-173.768
-175.955
-177.969
-179.508
-180.588
-181.371
-182.623
-185.462
-189.612
-193.747
-197.439
-200.667
-203.652
-207.305
-211.087
-216.065
-68.6785
-80.832
-87.5503
-91.9521
-95.5445
-98.6436
-101.987
-104.997
-107.041
-108.806
-110.51
-112.221
-113.749
-115.054
-116.239
-117.261
-118.029
-118.57
-119.122
-119.891
-120.793
-121.64
-122.393
-123.754
-125.444
-126.728
-127.673
-128.206
-128.907
-130.305
-131.917
-134.382
-136.315
-136.173
-135.205
-135.739
-137.461
-137.893
-137.751
-137.697
-137.582
-137.439
-137.652
-138.238
-139.14
-139.915
-139.798
-139.953
-141.795
-144.496
-146.337
-146.584
-146.419
-146.595
-146.996
-148.391
-149.37
-149.691
-151.39
-153.882
-155.971
-158.232
-160.39
-161.93
-162.687
-163.049
-163.556
-164.451
-165.584
-167.511
-169.818
-171.759
-173.757
-175.918
-177.907
-179.448
-180.559
-181.419
-182.774
-185.599
-189.607
-193.645
-197.254
-200.407
-203.421
-207.024
-210.659
-215.045
-68.6868
-80.8127
-87.5425
-91.948
-95.5409
-98.6415
-101.984
-104.993
-107.04
-108.805
-110.51
-112.221
-113.748
-115.053
-116.238
-117.26
-118.028
-118.568
-119.122
-119.89
-120.791
-121.639
-122.393
-123.752
-125.441
-126.726
-127.671
-128.207
-128.912
-130.307
-131.916
-134.369
-136.295
-136.165
-135.212
-135.739
-137.446
-137.886
-137.749
-137.695
-137.581
-137.444
-137.657
-138.244
-139.142
-139.91
-139.808
-139.974
-141.799
-144.474
-146.306
-146.57
-146.414
-146.592
-147.004
-148.384
-149.364
-149.716
-151.406
-153.873
-155.964
-158.209
-160.347
-161.877
-162.647
-163.045
-163.576
-164.478
-165.636
-167.538
-169.803
-171.748
-173.74
-175.874
-177.835
-179.377
-180.523
-181.468
-182.931
-185.744
-189.604
-193.513
-197.003
-200.116
-203.179
-206.652
-210.049
-213.843
-68.6972
-80.7891
-87.5326
-91.942
-95.5362
-98.6395
-101.98
-104.988
-107.037
-108.804
-110.509
-112.219
-113.747
-115.053
-116.238
-117.259
-118.026
-118.567
-119.122
-119.89
-120.79
-121.637
-122.393
-123.75
-125.437
-126.722
-127.668
-128.21
-128.919
-130.31
-131.918
-134.354
-136.269
-136.153
-135.22
-135.739
-137.427
-137.878
-137.746
-137.692
-137.581
-137.451
-137.664
-138.252
-139.146
-139.907
-139.821
-140.001
-141.808
-144.45
-146.265
-146.55
-146.409
-146.59
-147.016
-148.375
-149.357
-149.748
-151.425
-153.863
-155.955
-158.178
-160.292
-161.81
-162.597
-163.037
-163.599
-164.508
-165.69
-167.562
-169.777
-171.73
-173.716
-175.815
-177.744
-179.284
-180.466
-181.512
-183.094
-185.887
-189.582
-193.324
-196.707
-199.82
-202.87
-206.104
-209.204
-212.504
-68.7101
-80.7611
-87.5216
-91.935
-95.5308
-98.6379
-101.975
-104.981
-107.033
-108.801
-110.507
-112.217
-113.745
-115.052
-116.237
-117.257
-118.025
-118.567
-119.122
-119.89
-120.79
-121.636
-122.395
-123.75
-125.431
-126.718
-127.664
-128.214
-128.928
-130.316
-131.922
-134.337
-136.235
-136.136
-135.231
-135.741
-137.405
-137.866
-137.743
-137.689
-137.582
-137.459
-137.675
-138.263
-139.152
-139.904
-139.837
-140.037
-141.824
-144.423
-146.213
-146.522
-146.403
-146.589
-147.032
-148.364
-149.348
-149.786
-151.446
-153.85
-155.939
-158.135
-160.224
-161.728
-162.536
-163.025
-163.621
-164.54
-165.747
-167.582
-169.74
-171.703
-173.681
-175.734
-177.623
-179.159
-180.389
-181.559
-183.258
-186.001
-189.51
-193.078
-196.386
-199.465
-202.395
-205.358
-208.159
-211.035
-68.7259
-80.7279
-87.5098
-91.9284
-95.5259
-98.6373
-101.971
-104.973
-107.029
-108.797
-110.504
-112.214
-113.742
-115.05
-116.236
-117.256
-118.024
-118.567
-119.124
-119.892
-120.789
-121.636
-122.4
-123.75
-125.425
-126.712
-127.66
-128.219
-128.941
-130.325
-131.93
-134.319
-136.194
-136.116
-135.244
-135.746
-137.377
-137.851
-137.739
-137.686
-137.584
-137.471
-137.689
-138.277
-139.158
-139.899
-139.856
-140.085
-141.849
-144.391
-146.148
-146.486
-146.397
-146.591
-147.052
-148.352
-149.338
-149.829
-151.47
-153.832
-155.916
-158.081
-160.14
-161.629
-162.461
-163.002
-163.637
-164.574
-165.806
-167.596
-169.692
-171.66
-173.622
-175.619
-177.459
-178.998
-180.305
-181.615
-183.403
-186.061
-189.373
-192.779
-195.992
-198.952
-201.713
-204.445
-206.983
-209.443
-68.7449
-80.6886
-87.4972
-91.9227
-95.5223
-98.6385
-101.967
-104.964
-107.023
-108.793
-110.5
-112.209
-113.739
-115.049
-116.235
-117.255
-118.023
-118.568
-119.127
-119.894
-120.79
-121.636
-122.406
-123.752
-125.418
-126.705
-127.656
-128.227
-128.958
-130.336
-131.94
-134.298
-136.147
-136.093
-135.262
-135.754
-137.345
-137.829
-137.733
-137.683
-137.587
-137.486
-137.709
-138.296
-139.164
-139.891
-139.88
-140.147
-141.881
-144.352
-146.072
-146.443
-146.391
-146.597
-147.078
-148.338
-149.326
-149.879
-151.497
-153.808
-155.883
-158.013
-160.038
-161.509
-162.366
-162.962
-163.642
-164.606
-165.865
-167.605
-169.632
-171.59
-173.523
-175.458
-177.249
-178.806
-180.217
-181.663
-183.499
-186.047
-189.159
-192.382
-195.439
-198.24
-200.851
-203.387
-205.667
-207.73
-68.7675
-80.6418
-87.4832
-91.9181
-95.5201
-98.6417
-101.963
-104.954
-107.018
-108.788
-110.496
-112.204
-113.734
-115.046
-116.233
-117.253
-118.022
-118.57
-119.132
-119.898
-120.791
-121.638
-122.416
-123.755
-125.409
-126.697
-127.651
-128.236
-128.979
-130.351
-131.955
-134.275
-136.091
-136.065
-135.285
-135.767
-137.307
-137.802
-137.724
-137.679
-137.592
-137.507
-137.735
-138.318
-139.168
-139.879
-139.911
-140.222
-141.918
-144.307
-145.984
-146.392
-146.383
-146.608
-147.109
-148.321
-149.313
-149.938
-151.528
-153.776
-155.836
-157.927
-159.91
-161.362
-162.245
-162.899
-163.632
-164.629
-165.913
-167.606
-169.554
-171.475
-173.366
-175.239
-176.998
-178.593
-180.1
-181.647
-183.509
-185.941
-188.84
-191.846
-194.704
-197.34
-199.813
-202.138
-204.15
-205.892
-68.7942
-80.5863
-87.4669
-91.914
-95.5192
-98.6473
-101.961
-104.944
-107.012
-108.783
-110.491
-112.198
-113.729
-115.043
-116.231
-117.252
-118.022
-118.573
-119.138
-119.902
-120.793
-121.641
-122.429
-123.759
-125.4
-126.688
-127.645
-128.249
-129.005
-130.371
-131.973
-134.249
-136.025
-136.033
-135.312
-135.785
-137.264
-137.77
-137.712
-137.674
-137.599
-137.533
-137.768
-138.344
-139.171
-139.867
-139.951
-140.309
-141.957
-144.252
-145.883
-146.331
-146.373
-146.623
-147.146
-148.305
-149.301
-150.003
-151.561
-153.733
-155.771
-157.814
-159.751
-161.184
-162.095
-162.813
-163.602
-164.632
-165.934
-167.581
-169.446
-171.308
-173.144
-174.962
-176.71
-178.342
-179.903
-181.514
-183.392
-185.711
-188.389
-191.157
-193.792
-196.237
-198.524
-200.601
-202.366
-203.889
-68.8257
-80.5206
-87.4475
-91.9098
-95.5193
-98.6554
-101.959
-104.932
-107.007
-108.778
-110.486
-112.191
-113.723
-115.04
-116.229
-117.25
-118.021
-118.576
-119.144
-119.908
-120.796
-121.646
-122.444
-123.766
-125.389
-126.677
-127.64
-128.265
-129.038
-130.396
-131.995
-134.216
-135.947
-135.995
-135.343
-135.805
-137.214
-137.733
-137.699
-137.669
-137.61
-137.565
-137.806
-138.374
-139.176
-139.858
-140.001
-140.41
-141.999
-144.188
-145.766
-146.26
-146.359
-146.639
-147.186
-148.29
-149.289
-150.071
-151.59
-153.675
-155.681
-157.67
-159.554
-160.968
-161.91
-162.695
-163.541
-164.599
-165.91
-167.507
-169.287
-171.084
-172.863
-174.634
-176.359
-177.997
-179.583
-181.235
-183.11
-185.308
-187.761
-190.268
-192.646
-194.856
-196.903
-198.726
-200.286
-201.657
-68.8625
-80.4432
-87.4243
-91.9055
-95.5202
-98.666
-101.958
-104.92
-107.003
-108.775
-110.482
-112.184
-113.716
-115.037
-116.227
-117.248
-118.021
-118.581
-119.153
-119.915
-120.8
-121.652
-122.464
-123.774
-125.376
-126.665
-127.635
-128.287
-129.08
-130.427
-132.022
-134.177
-135.856
-135.951
-135.38
-135.829
-137.158
-137.69
-137.684
-137.664
-137.623
-137.604
-137.852
-138.409
-139.185
-139.853
-140.062
-140.525
-142.048
-144.115
-145.636
-146.178
-146.34
-146.654
-147.227
-148.275
-149.276
-150.134
-151.611
-153.6
-155.561
-157.488
-159.314
-160.713
-161.685
-162.531
-163.431
-164.515
-165.823
-167.362
-169.054
-170.781
-172.503
-174.214
-175.887
-177.503
-179.103
-180.772
-182.609
-184.659
-186.857
-189.074
-191.19
-193.161
-194.951
-196.532
-197.907
-199.142
-68.9052
-80.3525
-87.3963
-91.9008
-95.5218
-98.6787
-101.957
-104.907
-106.999
-108.773
-110.479
-112.176
-113.709
-115.034
-116.226
-117.247
-118.021
-118.587
-119.163
-119.924
-120.806
-121.661
-122.487
-123.784
-125.363
-126.653
-127.631
-128.313
-129.129
-130.465
-132.052
-134.132
-135.75
-135.901
-135.42
-135.856
-137.095
-137.639
-137.665
-137.659
-137.639
-137.649
-137.905
-138.452
-139.199
-139.855
-140.135
-140.655
-142.103
-144.035
-145.491
-146.085
-146.314
-146.665
-147.264
-148.26
-149.258
-150.186
-151.619
-153.502
-155.402
-157.259
-159.021
-160.404
-161.403
-162.304
-163.252
-164.354
-165.644
-167.115
-168.713
-170.357
-172.004
-173.639
-175.247
-176.829
-178.412
-180.045
-181.788
-183.656
-185.594
-187.528
-189.394
-191.118
-192.645
-193.988
-195.177
-196.271
-68.9542
-80.2473
-87.3626
-91.8959
-95.5243
-98.6939
-101.957
-104.891
-106.994
-108.77
-110.476
-112.169
-113.702
-115.032
-116.226
-117.248
-118.024
-118.596
-119.178
-119.937
-120.814
-121.671
-122.514
-123.795
-125.348
-126.638
-127.628
-128.346
-129.189
-130.512
-132.087
-134.079
-135.629
-135.841
-135.463
-135.885
-137.024
-137.579
-137.642
-137.653
-137.658
-137.701
-137.969
-138.506
-139.222
-139.866
-140.222
-140.798
-142.163
-143.948
-145.332
-145.975
-146.277
-146.67
-147.292
-148.239
-149.232
-150.217
-151.602
-153.372
-155.194
-156.972
-158.662
-160.023
-161.042
-161.986
-162.969
-164.074
-165.328
-166.722
-168.219
-169.762
-171.315
-172.863
-174.397
-175.917
-177.433
-178.977
-180.578
-182.236
-183.915
-185.565
-187.143
-188.589
-189.871
-191.011
-192.031
-192.985
-69.0096
-80.1262
-87.3221
-91.891
-95.5283
-98.712
-101.957
-104.873
-106.987
-108.766
-110.471
-112.16
-113.696
-115.033
-116.23
-117.252
-118.031
-118.611
-119.199
-119.955
-120.826
-121.684
-122.545
-123.808
-125.329
-126.621
-127.627
-128.386
-129.26
-130.568
-132.125
-134.018
-135.491
-135.77
-135.506
-135.913
-136.948
-137.511
-137.617
-137.65
-137.684
-137.763
-138.046
-138.571
-139.257
-139.892
-140.321
-140.951
-142.226
-143.853
-145.157
-145.846
-146.224
-146.662
-147.305
-148.21
-149.191
-150.213
-151.545
-153.195
-154.921
-156.61
-158.221
-159.556
-160.585
-161.55
-162.541
-163.625
-164.826
-166.134
-167.517
-168.938
-170.373
-171.813
-173.246
-174.659
-176.058
-177.465
-178.89
-180.317
-181.719
-183.069
-184.339
-185.499
-186.546
-187.484
-188.318
-189.092
-69.0709
-79.9886
-87.2738
-91.8866
-95.5345
-98.7335
-101.958
-104.854
-106.98
-108.762
-110.466
-112.151
-113.688
-115.033
-116.235
-117.258
-118.04
-118.628
-119.223
-119.977
-120.842
-121.704
-122.583
-123.827
-125.313
-126.606
-127.631
-128.438
-129.346
-130.638
-132.168
-133.951
-135.34
-135.691
-135.546
-135.939
-136.864
-137.432
-137.586
-137.648
-137.715
-137.836
-138.135
-138.649
-139.305
-139.933
-140.43
-141.103
-142.284
-143.748
-144.967
-145.696
-146.152
-146.638
-147.296
-148.162
-149.125
-150.16
-151.43
-152.952
-154.562
-156.149
-157.675
-158.974
-159.994
-160.952
-161.921
-162.96
-164.088
-165.292
-166.547
-167.827
-169.118
-170.407
-171.682
-172.938
-174.178
-175.409
-176.622
-177.8
-178.929
-179.991
-180.962
-181.832
-182.61
-183.29
-183.868
-184.373
-69.1366
-79.8341
-87.2168
-91.8832
-95.5438
-98.7591
-101.961
-104.833
-106.972
-108.758
-110.461
-112.139
-113.68
-115.033
-116.241
-117.267
-118.051
-118.648
-119.25
-120.002
-120.862
-121.727
-122.624
-123.847
-125.295
-126.589
-127.639
-128.499
-129.445
-130.72
-132.213
-133.879
-135.182
-135.604
-135.583
-135.966
-136.784
-137.347
-137.551
-137.649
-137.755
-137.92
-138.238
-138.742
-139.37
-139.992
-140.546
-141.253
-142.34
-143.645
-144.774
-145.531
-146.058
-146.591
-147.258
-148.088
-149.021
-150.042
-151.239
-152.624
-154.091
-155.552
-156.971
-158.206
-159.193
-160.115
-161.037
-162.006
-163.033
-164.105
-165.208
-166.327
-167.447
-168.552
-169.639
-170.707
-171.748
-172.752
-173.705
-174.603
-175.441
-176.202
-176.868
-177.437
-177.91
-178.277
-178.527
-178.665
-69.204
-79.6636
-87.1506
-91.8818
-95.5577
-98.7898
-101.967
-104.812
-106.962
-108.753
-110.454
-112.127
-113.67
-115.035
-116.251
-117.28
-118.066
-118.671
-119.281
-120.032
-120.885
-121.753
-122.667
-123.868
-125.278
-126.573
-127.651
-128.567
-129.555
-130.813
-132.258
-133.804
-135.018
-135.506
-135.606
-135.986
-136.703
-137.254
-137.506
-137.648
-137.799
-138.01
-138.35
-138.845
-139.447
-140.066
-140.666
-141.394
-142.392
-143.547
-144.584
-145.352
-145.937
-146.51
-147.18
-147.975
-148.867
-149.847
-150.955
-152.193
-153.5
-154.81
-156.094
-157.238
-158.165
-159.021
-159.862
-160.727
-161.624
-162.54
-163.468
-164.398
-165.318
-166.217
-167.087
-167.921
-168.711
-169.452
-170.14
-170.772
-171.342
-171.84
-172.262
-172.605
-172.869
-173.052
-173.152
-173.172
-69.268
-79.4794
-87.0758
-91.8837
-95.5784
-98.827
-101.978
-104.792
-106.952
-108.747
-110.445
-112.113
-113.66
-115.038
-116.265
-117.299
-118.087
-118.698
-119.315
-120.065
-120.912
-121.781
-122.709
-123.888
-125.261
-126.556
-127.668
-128.645
-129.676
-130.917
-132.307
-133.733
-134.859
-135.401
-135.612
-135.995
-136.626
-137.157
-137.456
-137.648
-137.847
-138.103
-138.467
-138.956
-139.538
-140.153
-140.783
-141.515
-142.429
-143.449
-144.393
-145.155
-145.778
-146.38
-147.045
-147.799
-148.635
-149.546
-150.544
-151.628
-152.761
-153.901
-155.023
-156.035
-156.856
-157.601
-158.319
-159.043
-159.776
-160.511
-161.239
-161.952
-162.642
-163.304
-163.931
-164.519
-165.063
-165.561
-166.01
-166.407
-166.75
-167.039
-167.273
-167.455
-167.588
-167.675
-167.722
-167.732
-69.3196
-79.2856
-86.9947
-91.8914
-95.6087
-98.8726
-101.994
-104.775
-106.942
-108.74
-110.435
-112.098
-113.651
-115.044
-116.285
-117.327
-118.115
-118.729
-119.353
-120.103
-120.944
-121.812
-122.748
-123.905
-125.243
-126.542
-127.693
-128.733
-129.808
-131.034
-132.362
-133.67
-134.709
-135.291
-135.596
-135.99
-136.551
-137.06
-137.399
-137.647
-137.896
-138.197
-138.585
-139.072
-139.638
-140.246
-140.889
-141.61
-142.447
-143.349
-144.205
-144.943
-145.582
-146.195
-146.841
-147.544
-148.305
-149.119
-149.987
-150.902
-151.844
-152.787
-153.712
-154.543
-155.21
-155.805
-156.364
-156.913
-157.454
-157.98
-158.486
-158.966
-159.416
-159.832
-160.211
-160.55
-160.846
-161.1
-161.309
-161.474
-161.596
-161.677
-161.718
-161.723
-161.694
-161.636
-161.552
-161.445
-69.3446
-79.0889
-86.9128
-91.9084
-95.6532
-98.9299
-102.02
-104.764
-106.933
-108.733
-110.424
-112.082
-113.641
-115.054
-116.315
-117.368
-118.153
-118.764
-119.393
-120.144
-120.979
-121.842
-122.778
-123.914
-125.224
-126.531
-127.725
-128.83
-129.951
-131.165
-132.426
-133.623
-134.577
-135.179
-135.559
-135.966
-136.476
-136.964
-137.34
-137.642
-137.944
-138.288
-138.7
-139.188
-139.742
-140.34
-140.979
-141.675
-142.44
-143.241
-144.013
-144.711
-145.34
-145.94
-146.547
-147.181
-147.844
-148.533
-149.244
-149.97
-150.698
-151.412
-152.098
-152.697
-153.166
-153.571
-153.935
-154.277
-154.597
-154.891
-155.157
-155.39
-155.591
-155.756
-155.886
-155.98
-156.038
-156.06
-156.047
-156.002
-155.925
-155.82
-155.687
-155.531
-155.353
-155.156
-154.943
-154.716
-69.3229
-78.9211
-86.8482
-91.9367
-95.7107
-98.9952
-102.056
-104.765
-106.929
-108.726
-110.412
-112.067
-113.635
-115.068
-116.355
-117.422
-118.2
-118.798
-119.428
-120.184
-121.013
-121.865
-122.793
-123.91
-125.203
-126.523
-127.762
-128.927
-130.09
-131.297
-132.501
-133.604
-134.482
-135.083
-135.507
-135.926
-136.406
-136.88
-137.283
-137.633
-137.981
-138.362
-138.795
-139.285
-139.828
-140.412
-141.035
-141.701
-142.407
-143.13
-143.83
-144.48
-145.078
-145.643
-146.197
-146.751
-147.306
-147.86
-148.408
-148.944
-149.458
-149.941
-150.38
-150.735
-150.996
-151.204
-151.373
-151.511
-151.621
-151.7
-151.746
-151.76
-151.742
-151.691
-151.608
-151.493
-151.349
-151.177
-150.978
-150.754
-150.508
-150.242
-149.959
-149.66
-149.348
-149.026
-148.695
-148.357
-69.2562
-78.7935
-86.8086
-91.9743
-95.7763
-99.0638
-102.099
-104.776
-106.93
-108.721
-110.4
-112.055
-113.631
-115.085
-116.401
-117.485
-118.25
-118.828
-119.457
-120.219
-121.044
-121.879
-122.79
-123.893
-125.18
-126.517
-127.798
-129.015
-130.218
-131.424
-132.584
-133.611
-134.423
-135.007
-135.45
-135.878
-136.342
-136.808
-137.231
-137.619
-138.006
-138.417
-138.867
-139.358
-139.891
-140.46
-141.063
-141.699
-142.358
-143.022
-143.665
-144.267
-144.825
-145.347
-145.842
-146.315
-146.766
-147.191
-147.585
-147.945
-148.264
-148.535
-148.747
-148.879
-148.95
-148.981
-148.976
-148.938
-148.868
-148.765
-148.631
-148.465
-148.269
-148.045
-147.794
-147.517
-147.216
-146.895
-146.554
-146.196
-145.823
-145.438
-145.043
-144.639
-144.229
-143.815
-143.399
-142.981
-69.1432
-78.7
-86.7936
-92.0222
-95.8514
-99.1376
-102.148
-104.797
-106.937
-108.716
-110.389
-112.044
-113.629
-115.105
-116.455
-117.559
-118.304
-118.853
-119.48
-120.251
-121.071
-121.884
-122.772
-123.861
-125.15
-126.512
-127.833
-129.1
-130.342
-131.554
-132.68
-133.643
-134.39
-134.946
-135.393
-135.824
-136.279
-136.741
-137.181
-137.601
-138.021
-138.458
-138.921
-139.412
-139.934
-140.486
-141.069
-141.678
-142.298
-142.914
-143.507
-144.064
-144.58
-145.056
-145.491
-145.886
-146.235
-146.536
-146.785
-146.98
-147.117
-147.192
-147.196
-147.124
-147.024
-146.897
-146.739
-146.547
-146.321
-146.065
-145.778
-145.464
-145.123
-144.758
-144.372
-143.965
-143.542
-143.103
-142.651
-142.189
-141.718
-141.242
-140.761
-140.278
-139.795
-139.312
-138.833
-138.358
-68.9826
-78.64
-86.8038
-92.0808
-95.9363
-99.2172
-102.205
-104.828
-106.948
-108.712
-110.377
-112.034
-113.629
-115.128
-116.518
-117.647
-118.363
-118.872
-119.496
-120.281
-121.097
-121.88
-122.736
-123.814
-125.114
-126.505
-127.867
-129.181
-130.465
-131.69
-132.793
-133.698
-134.379
-134.896
-135.335
-135.764
-136.214
-136.675
-137.131
-137.578
-138.027
-138.487
-138.961
-139.45
-139.958
-140.493
-141.057
-141.642
-142.23
-142.806
-143.356
-143.873
-144.349
-144.78
-145.16
-145.481
-145.736
-145.919
-146.031
-146.071
-146.042
-145.939
-145.757
-145.504
-145.252
-144.987
-144.698
-144.375
-144.019
-143.633
-143.221
-142.785
-142.327
-141.85
-141.356
-140.847
-140.326
-139.796
-139.258
-138.716
-138.17
-137.624
-137.079
-136.536
-135.997
-135.464
-134.938
-134.42
-68.7716
-78.6143
-86.8391
-92.1508
-96.0323
-99.3032
-102.27
-104.869
-106.966
-108.708
-110.365
-112.026
-113.63
-115.153
-116.591
-117.75
-118.427
-118.884
-119.506
-120.31
-121.122
-121.867
-122.682
-123.749
-125.069
-126.497
-127.899
-129.262
-130.592
-131.837
-132.927
-133.777
-134.386
-134.854
-135.276
-135.7
-136.145
-136.608
-137.078
-137.55
-138.027
-138.508
-138.992
-139.476
-139.967
-140.482
-141.029
-141.596
-142.159
-142.701
-143.214
-143.694
-144.136
-144.53
-144.863
-145.12
-145.289
-145.361
-145.34
-145.235
-145.051
-144.789
-144.442
-144.03
-143.647
-143.263
-142.861
-142.427
-141.962
-141.469
-140.954
-140.418
-139.864
-139.295
-138.715
-138.125
-137.528
-136.927
-136.323
-135.72
-135.119
-134.521
-133.929
-133.344
-132.767
-132.2
-131.643
-131.098
-68.5291
-78.6255
-86.8942
-92.2261
-96.1312
-99.388
-102.336
-104.916
-106.986
-108.704
-110.353
-112.019
-113.631
-115.177
-116.668
-117.862
-118.49
-118.886
-119.51
-120.337
-121.145
-121.846
-122.613
-123.672
-125.019
-126.487
-127.926
-129.334
-130.714
-131.986
-133.075
-133.875
-134.404
-134.819
-135.22
-135.636
-136.076
-136.541
-137.024
-137.518
-138.02
-138.522
-139.015
-139.491
-139.96
-140.454
-140.99
-141.547
-142.092
-142.606
-143.088
-143.54
-143.959
-144.331
-144.635
-144.849
-144.949
-144.925
-144.786
-144.551
-144.239
-143.849
-143.374
-142.84
-142.355
-141.88
-141.393
-140.877
-140.331
-139.76
-139.168
-138.559
-137.936