/*--------------------------------*- C++ -*----------------------------------*\
| =========                 |                                                 |
| \\      /  F ield         | OpenFOAM: The Open Source CFD Toolbox           |
|  \\    /   O peration     | Version:  5.x                                   |
|   \\  /    A nd           | Web:      www.OpenFOAM.org                      |
|    \\/     M anipulation  |                                                 |
\*---------------------------------------------------------------------------*/
FoamFile
{
    version     2.0;
    format      ascii;
    class       surfaceScalarField;
    location    "384";
    object      phi;
}
// * * * * * * * * * * * * * * * * * * * * * * * * * * * * * * * * * * * * * //

dimensions      [0 3 -1 0 0 0 0];

internalField   nonuniform List<scalar> 
40747
(
1.48896e-05
-9.12038e-09
6.80601e-06
8.0836e-06
1.80121e-05
-1.99134e-08
1.40127e-05
1.08054e-05
2.17896e-05
-3.28015e-08
2.16636e-05
1.41387e-05
2.63592e-05
-4.81397e-08
2.9647e-05
1.83759e-05
3.18871e-05
-6.63089e-08
3.78077e-05
2.37263e-05
3.85741e-05
-8.76678e-08
4.59417e-05
3.04401e-05
4.66631e-05
-1.12448e-07
5.38138e-05
3.87911e-05
5.64478e-05
-1.40639e-07
6.11898e-05
4.90718e-05
6.82837e-05
-1.71889e-07
6.78456e-05
6.16279e-05
8.26003e-05
-2.05375e-07
7.35605e-05
7.68854e-05
9.99176e-05
-2.39591e-07
7.81505e-05
9.53276e-05
0.000120864
-2.72221e-07
8.15256e-05
0.000117489
0.000146201
-3.00255e-07
8.37155e-05
0.000144012
0.00017685
-3.19879e-07
8.48531e-05
0.000175712
0.000213921
-3.25143e-07
8.5122e-05
0.000213653
0.000258762
-3.06919e-07
8.47039e-05
0.00025918
0.000313001
-2.54783e-07
8.37537e-05
0.000313952
0.000378615
-1.59996e-07
8.23742e-05
0.000379994
0.000457993
-1.70956e-08
8.05992e-05
0.000459768
0.000554028
1.74376e-07
7.84067e-05
0.00055622
0.000670221
4.07675e-07
7.57434e-05
0.000672884
0.000810805
6.69682e-07
7.25369e-05
0.000814011
0.000980897
9.4267e-07
6.86951e-05
0.000984739
0.00118669
1.2003e-06
6.4109e-05
0.00119128
0.00143568
1.40189e-06
5.86562e-05
0.00144114
0.00173694
1.48855e-06
5.2199e-05
0.0017434
0.00210144
1.38003e-06
4.45817e-05
0.00210906
0.00254244
9.7496e-07
3.56257e-05
0.0025514
0.00307599
1.59128e-07
2.51193e-05
0.0030865
0.00372145
-1.16831e-06
1.27971e-05
0.00373377
0.00356596
-2.62224e-06
1.27408e-06
0.00357749
0.00356599
-4.10251e-06
-1.00709e-05
0.00357733
0.00356587
-5.46178e-06
-2.13259e-05
0.00357712
0.00356559
-6.54357e-06
-3.25872e-05
0.00357685
0.00360792
-7.19309e-06
-4.40894e-05
0.00361942
0.00300095
-7.27247e-06
-5.38096e-05
0.00301067
0.00249609
-6.94961e-06
-6.20412e-05
0.00250432
0.00207617
-6.37295e-06
-6.9012e-05
0.00208315
0.00172693
-5.65975e-06
-7.49078e-05
0.00173282
0.00143645
-4.89586e-06
-7.98844e-05
0.00144143
0.00119486
-4.14008e-06
-8.4075e-05
0.00119905
0.000993914
-3.42989e-06
-8.75944e-05
0.000997434
0.00082678
-2.78694e-06
-9.05415e-05
0.000829727
0.000687764
-2.2216e-06
-9.30017e-05
0.000690224
0.000572133
-1.7366e-06
-9.50462e-05
0.000574178
0.000475951
-1.32965e-06
-9.67268e-05
0.000477632
0.000395946
-9.95314e-07
-9.80654e-05
0.000397284
0.000329395
-7.26477e-07
-9.90378e-05
0.000330367
0.000274035
-5.15883e-07
-9.95547e-05
0.000274552
0.000227984
-3.56609e-07
-9.94531e-05
0.000227883
0.000189676
-2.40704e-07
-9.85127e-05
0.000188735
0.000157805
-1.59059e-07
-9.64948e-05
0.000155787
0.000131289
-1.03097e-07
-9.32003e-05
0.000127995
0.000109228
-6.56972e-08
-8.85245e-05
0.000104552
9.08731e-05
-4.12666e-08
-8.24817e-05
8.48302e-05
7.56015e-05
-2.56213e-08
-7.5208e-05
6.83278e-05
6.28957e-05
-1.57631e-08
-6.69445e-05
5.46322e-05
5.23247e-05
-9.62505e-09
-5.80019e-05
4.3382e-05
4.353e-05
-5.83007e-09
-4.8717e-05
3.42452e-05
3.62132e-05
-3.48777e-09
-3.94127e-05
2.69088e-05
3.01261e-05
-2.03664e-09
-3.03665e-05
2.108e-05
2.5062e-05
-1.12954e-09
-2.17945e-05
1.649e-05
2.08492e-05
-5.54732e-10
-1.3846e-05
1.29007e-05
1.73444e-05
-1.83722e-10
-6.6089e-06
1.01073e-05
1.44289e-05
7.81999e-06
1.27409e-06
6.80951e-06
6.67032e-07
6.07061e-07
5.26712e-07
1.40321e-07
5.14651e-07
1.20605e-08
5.39352e-07
-2.47003e-08
6.35269e-07
-9.59178e-08
6.30346e-07
4.92344e-09
5.14606e-07
1.1574e-07
4.62007e-07
5.25985e-08
4.364e-07
2.5607e-08
4.11013e-07
2.53875e-08
3.94707e-07
1.63057e-08
3.95754e-07
-1.04748e-09
4.03908e-07
-8.15367e-09
4.15037e-07
-1.11294e-08
4.33126e-07
-1.80885e-08
4.66434e-07
-3.33084e-08
5.14868e-07
-4.84336e-08
5.62304e-07
-4.74365e-08
5.92959e-07
-3.06543e-08
6.17708e-07
-2.47496e-08
6.64951e-07
-4.72427e-08
7.77175e-07
-1.12224e-07
8.14042e-07
-3.68669e-08
7.43809e-07
7.02326e-08
6.86863e-07
5.69462e-08
6.66797e-07
2.00661e-08
7.309e-07
-6.4103e-08
8.50905e-07
-1.20005e-07
9.58681e-07
-1.07776e-07
1.14403e-06
-1.85352e-07
1.14005e-06
3.97953e-09
9.00681e-07
2.39372e-07
7.16622e-07
1.84059e-07
8.09252e-07
-9.26291e-08
9.61499e-07
-1.52247e-07
8.37903e-07
1.23596e-07
6.84194e-07
1.53709e-07
6.28714e-07
5.54802e-08
6.36009e-07
-7.29524e-09
6.77704e-07
-4.16951e-08
7.67772e-07
-9.00676e-08
8.4589e-07
-7.81183e-08
8.97947e-07
-5.20572e-08
8.85519e-07
1.24281e-08
8.11404e-07
7.41147e-08
9.21724e-07
-1.1032e-07
1.19605e-06
-2.7433e-07
1.34942e-06
-1.5337e-07
1.27354e-06
7.5882e-08
1.05608e-06
2.17462e-07
9.35665e-07
1.20416e-07
9.45585e-07
-9.91992e-09
1.00493e-06
-5.93467e-08
1.11906e-06
-1.14129e-07
1.06547e-06
5.35923e-08
1.01597e-06
4.94986e-08
1.17209e-06
-1.56124e-07
1.25903e-06
-8.69353e-08
1.22519e-06
3.38406e-08
1.20436e-06
2.08344e-08
1.13765e-06
6.67068e-08
9.73788e-07
1.6386e-07
8.55384e-07
1.18405e-07
7.57772e-07
9.76113e-08
7.46047e-07
1.17254e-08
7.91958e-07
-4.59107e-08
8.28916e-07
-3.69584e-08
9.27776e-07
-9.88598e-08
9.06169e-07
2.16068e-08
7.68252e-07
1.37917e-07
6.91459e-07
7.67931e-08
6.34172e-07
5.72861e-08
5.97915e-07
3.6257e-08
5.8868e-07
9.23562e-09
6.11939e-07
-2.32591e-08
6.72951e-07
-6.10125e-08
8.33295e-07
-1.60344e-07
1.0075e-06
-1.74206e-07
1.10783e-06
-1.00327e-07
1.01844e-06
8.93887e-08
8.22371e-07
1.96068e-07
7.51413e-07
7.09572e-08
7.81562e-07
-3.01495e-08
8.11078e-07
-2.95159e-08
8.46967e-07
-3.58896e-08
1.00066e-06
-1.5369e-07
-1.15622e-06
2.15688e-06
3.34459e-06
1.42704e-05
2.34998e-06
1.60167e-06
2.04295e-06
4.47351e-07
1.99671e-06
5.82982e-08
2.09258e-06
-1.20571e-07
2.32453e-06
-3.27868e-07
2.31063e-06
1.88237e-08
1.99681e-06
4.29569e-07
1.79289e-06
2.56517e-07
1.69353e-06
1.24963e-07
1.59494e-06
1.23978e-07
1.5317e-06
7.95461e-08
1.53587e-06
-5.21682e-09
1.56758e-06
-3.9863e-08
1.61085e-06
-5.44044e-08
1.68117e-06
-8.84035e-08
1.81055e-06
-1.62687e-07
1.99856e-06
-2.36451e-07
2.18266e-06
-2.31533e-07
2.3016e-06
-1.49592e-07
2.39757e-06
-1.20726e-07
2.58054e-06
-2.30208e-07
2.95053e-06
-4.82216e-07
3.09601e-06
-1.82347e-07
2.8865e-06
2.79748e-07
2.66578e-06
2.77666e-07
2.58792e-06
9.79288e-08
2.71155e-06
-1.87742e-07
2.77376e-06
-1.82212e-07
2.70674e-06
-4.07546e-08
2.72533e-06
-2.03945e-07
2.71083e-06
1.84827e-08
2.71218e-06
2.38018e-07
2.61802e-06
2.78226e-07
2.70965e-06
-1.84267e-07
2.99315e-06
-4.35746e-07
2.93988e-06
1.76867e-07
2.65512e-06
4.38468e-07
2.44075e-06
2.69851e-07
2.46928e-06
-3.58197e-08
2.63048e-06
-2.02896e-07
2.97966e-06
-4.39248e-07
3.2825e-06
-3.80962e-07
3.38439e-06
-1.53947e-07
3.33992e-06
5.68972e-08
3.14757e-06
2.66468e-07
3.16902e-06
-1.31773e-07
3.29455e-06
-3.99857e-07
3.23672e-06
-9.55415e-08
3.11703e-06
1.95576e-07
3.0011e-06
3.33389e-07
2.9468e-06
1.74709e-07
2.96492e-06
-2.80303e-08
3.03131e-06
-1.25738e-07
3.08922e-06
-1.72042e-07
3.05937e-06
8.34428e-08
3.03499e-06
7.3873e-08
3.05933e-06
-1.80457e-07
3.028e-06
-5.56093e-08
2.96105e-06
1.0079e-07
2.91805e-06
6.384e-08
2.87704e-06
1.07713e-07
2.84476e-06
1.96143e-07
2.84254e-06
1.20619e-07
2.81083e-06
1.29319e-07
2.85691e-06
-3.43549e-08
2.98639e-06
-1.75385e-07
3.08917e-06
-1.39745e-07
3.17741e-06
-1.87093e-07
3.14167e-06
5.7348e-08
2.93042e-06
3.49164e-07
2.66188e-06
3.45336e-07
2.438e-06
2.81162e-07
2.29919e-06
1.75065e-07
2.26757e-06
4.08539e-08
2.36052e-06
-1.16206e-07
2.59197e-06
-2.92462e-07
3.03774e-06
-6.06118e-07
3.33218e-06
-4.68644e-07
3.32596e-06
-9.4109e-08
3.24667e-06
1.68677e-07
3.01822e-06
4.24523e-07
2.8539e-06
2.35277e-07
2.97866e-06
-1.5491e-07
3.07506e-06
-1.25921e-07
3.19009e-06
-1.50924e-07
3.59868e-06
-5.62279e-07
-2.22634e-06
4.6688e-06
6.05923e-06
2.23498e-05
4.82782e-06
2.83308e-06
4.4301e-06
8.45064e-07
4.36284e-06
1.25564e-07
4.54793e-06
-3.05657e-07
4.79034e-06
-5.70283e-07
4.82753e-06
-1.83646e-08
4.42192e-06
8.35182e-07
3.97125e-06
7.07185e-07
3.75207e-06
3.44136e-07
3.53346e-06
3.42595e-07
3.39361e-06
2.19396e-07
3.40347e-06
-1.50807e-08
3.47398e-06
-1.10369e-07
3.57e-06
-1.50424e-07
3.72591e-06
-2.44319e-07
4.01286e-06
-4.49631e-07
4.43002e-06
-6.53615e-07
4.83847e-06
-6.39987e-07
5.10168e-06
-4.12793e-07
5.31326e-06
-3.32306e-07
5.71682e-06
-6.3377e-07
6.14605e-06
-9.11448e-07
6.23738e-06
-2.73678e-07
6.0203e-06
4.96829e-07
5.73665e-06
5.61314e-07
5.60811e-06
2.26468e-07
5.56922e-06
-1.48853e-07
5.34138e-06
4.56257e-08
5.00616e-06
2.94473e-07
4.78134e-06
2.08711e-08
4.75281e-06
4.70122e-08
5.07688e-06
-8.60482e-08
5.37874e-06
-2.36323e-08
5.42412e-06
-2.29655e-07
5.53914e-06
-5.50761e-07
5.7322e-06
-1.61931e-08
5.64678e-06
5.23889e-07
5.4026e-06
5.1403e-07
5.47199e-06
-1.05214e-07
5.82661e-06
-5.57514e-07
6.29084e-06
-9.0348e-07
6.56743e-06
-6.57546e-07
6.54986e-06
-1.3638e-07
6.45862e-06
1.48138e-07
6.33118e-06
3.93905e-07
6.147e-06
5.24066e-08
5.88244e-06
-1.35292e-07
5.57242e-06
2.1448e-07
5.39607e-06
3.71923e-07
5.39614e-06
3.33317e-07
5.4296e-06
1.4125e-07
5.46101e-06
-5.94428e-08
5.51657e-06
-1.81293e-07
5.49457e-06
-1.50042e-07
5.49095e-06
8.7066e-08
5.50032e-06
6.44999e-08
5.37877e-06
-5.89086e-08
5.21262e-06
1.10541e-07
5.10987e-06
2.03544e-07
5.04494e-06
1.28765e-07
5.03516e-06
1.17493e-07
5.15368e-06
7.76238e-08
5.29175e-06
-1.74493e-08
5.45141e-06
-3.0337e-08
5.61366e-06
-1.96615e-07
5.76395e-06
-3.25669e-07
5.8935e-06
-2.69298e-07
5.8996e-06
-1.93191e-07
5.87438e-06
8.25678e-08
5.82772e-06
3.95822e-07
5.6354e-06
5.37654e-07
5.30747e-06
6.09095e-07
5.02072e-06
4.61814e-07
4.97116e-06
9.04115e-08
5.18494e-06
-3.29985e-07
5.6753e-06
-7.82819e-07
6.18711e-06
-1.11793e-06
6.33947e-06
-6.21008e-07
6.2112e-06
3.41628e-08
6.16376e-06
2.16114e-07
6.13222e-06
4.56063e-07
6.10643e-06
2.61066e-07
6.32704e-06
-3.75524e-07
6.4921e-06
-2.90979e-07
6.793e-06
-4.51828e-07
7.31659e-06
-1.08587e-06
-3.03353e-06
8.12378e-06
9.75608e-06
3.09696e-05
8.2822e-06
4.30696e-06
7.82331e-06
1.30395e-06
7.75219e-06
1.96683e-07
7.99881e-06
-5.52275e-07
8.13463e-06
-7.0611e-07
8.29434e-06
-1.78068e-07
8.05484e-06
1.07468e-06
7.42843e-06
1.3336e-06
7.02454e-06
7.48023e-07
6.61453e-06
7.52605e-07
6.35405e-06
4.79877e-07
6.37588e-06
-3.69154e-08
6.50902e-06
-2.43508e-07
6.68898e-06
-3.3038e-07
6.98084e-06
-5.36183e-07
7.51948e-06
-9.88269e-07
8.30452e-06
-1.43866e-06
9.073e-06
-1.40847e-06
9.53803e-06
-8.77816e-07
9.78458e-06
-5.78858e-07
1.01051e-05
-9.54338e-07
1.02062e-05
-1.01249e-06
1.00872e-05
-1.54688e-07
9.93244e-06
6.51586e-07
9.70956e-06
7.84192e-07
9.56635e-06
3.69676e-07
9.28604e-06
1.31459e-07
8.72864e-06
6.03024e-07
8.13345e-06
8.89665e-07
7.65816e-06
4.96158e-07
7.61399e-06
9.1183e-08
8.185e-06
-6.57054e-07
8.8785e-06
-7.17132e-07
8.89459e-06
-2.45742e-07
8.75292e-06
-4.09095e-07
9.10685e-06
-3.70124e-07
9.42401e-06
2.06734e-07
9.53444e-06
4.03596e-07
9.72422e-06
-2.95e-07
1.00609e-05
-8.9417e-07
1.02883e-05
-1.13086e-06
1.03098e-05
-6.79064e-07
1.01736e-05
-1.89592e-10
1.00388e-05
2.82914e-07
9.99559e-06
4.37133e-07
9.71879e-06
3.29208e-07
9.1649e-06
4.18592e-07
8.64454e-06
7.34839e-07
8.39396e-06
6.22504e-07
8.44209e-06
2.85189e-07
8.52669e-06
5.66497e-08
8.57488e-06
-1.07631e-07
8.62141e-06
-2.27826e-07
8.54485e-06
-7.34854e-08
8.54085e-06
9.10717e-08
8.56967e-06
3.56741e-08
8.35964e-06
1.51128e-07
8.0844e-06
3.85777e-07
7.93848e-06
3.49462e-07
7.84821e-06
2.19037e-07
7.8553e-06
1.10407e-07
8.06634e-06
-1.33417e-07
8.28858e-06
-2.3969e-07
8.56147e-06
-3.03231e-07
8.79417e-06
-4.29317e-07
8.96134e-06
-4.92833e-07
9.10881e-06
-4.16774e-07
9.09806e-06
-1.82433e-07
9.07767e-06
1.02955e-07
9.1711e-06
3.02387e-07
9.20401e-06
5.04747e-07
9.11756e-06
6.95548e-07
9.04245e-06
5.36918e-07
9.13454e-06
-1.6808e-09
9.43471e-06
-6.30151e-07
9.85396e-06
-1.20207e-06
1.00757e-05
-1.33971e-06
1.00202e-05
-5.65441e-07
9.86405e-06
1.90278e-07
9.84764e-06
2.32525e-07
1.00725e-05
2.31213e-07
1.03753e-05
-4.17753e-08
1.06066e-05
-6.06807e-07
1.08522e-05
-5.36574e-07
1.13949e-05
-9.94523e-07
1.18868e-05
-1.57775e-06
-3.55759e-06
1.24108e-05
1.46779e-05
4.0018e-05
1.29334e-05
6.05151e-06
1.24002e-05
1.83714e-06
1.22841e-05
3.12806e-07
1.25315e-05
-7.99672e-07
1.25167e-05
-6.91326e-07
1.26994e-05
-3.60738e-07
1.29159e-05
8.58126e-07
1.26139e-05
1.6356e-06
1.2113e-05
1.24892e-06
1.14028e-05
1.46284e-06
1.09593e-05
9.23383e-07
1.10118e-05
-8.94166e-08
1.1246e-05
-4.77776e-07
1.15564e-05
-6.40737e-07
1.20588e-05
-1.03856e-06
1.29943e-05
-1.92382e-06
1.40755e-05
-2.51979e-06
1.48073e-05
-2.14036e-06
1.51518e-05
-1.22225e-06
1.52696e-05
-6.96698e-07
1.53078e-05
-9.92524e-07
1.50775e-05
-7.82203e-07
1.48356e-05
8.72031e-08
1.47081e-05
7.79147e-07
1.45069e-05
9.85388e-07
1.43499e-05
5.26692e-07
1.39413e-05
5.40052e-07
1.31543e-05
1.38996e-06
1.23188e-05
1.72522e-06
1.1605e-05
1.20992e-06
1.15336e-05
1.62565e-07
1.22346e-05
-1.35801e-06
1.30829e-05
-1.56547e-06
1.30934e-05
-2.5625e-07
1.28264e-05
-1.42104e-07
1.32343e-05
-7.78006e-07
1.37983e-05
-3.572e-07
1.42258e-05
-2.38946e-08
1.45456e-05
-6.14857e-07
1.47877e-05
-1.13628e-06
1.48289e-05
-1.17209e-06
1.47228e-05
-5.72957e-07
1.45278e-05
1.94821e-07
1.43593e-05
4.51427e-07
1.4335e-05
4.61445e-07
1.40242e-05
6.39987e-07
1.33084e-05
1.13437e-06
1.262e-05
1.42327e-06
1.22957e-05
9.46848e-07
1.23464e-05
2.3445e-07
1.24493e-05
-4.62879e-08
1.25084e-05
-1.66652e-07
1.25433e-05
-2.62791e-07
1.24302e-05
3.96342e-08
1.24085e-05
1.12753e-07
1.24364e-05
7.77484e-09
1.21731e-05
4.14489e-07
1.18139e-05
7.44903e-07
1.16184e-05
5.45011e-07
1.14961e-05
3.4132e-07
1.15056e-05
1.00923e-07
1.17621e-05
-3.89891e-07
1.20335e-05
-5.11126e-07
1.23659e-05
-6.35619e-07
1.26455e-05
-7.08944e-07
1.28446e-05
-6.91895e-07
1.30128e-05
-5.85037e-07
1.30197e-05
-1.89325e-07
1.30082e-05
1.14479e-07
1.31423e-05
1.68302e-07
1.32795e-05
3.67519e-07
1.34275e-05
5.47566e-07
1.36458e-05
3.18654e-07
1.39169e-05
-2.72853e-07
1.42179e-05
-9.31087e-07
1.44567e-05
-1.44088e-06
1.44967e-05
-1.37972e-06
1.43911e-05
-4.59844e-07
1.42754e-05
3.06002e-07
1.42969e-05
2.10991e-07
1.45816e-05
-5.34674e-08
1.4966e-05
-4.26199e-07
1.52057e-05
-8.4645e-07
1.55218e-05
-8.5277e-07
1.60721e-05
-1.54477e-06
1.66548e-05
-2.16045e-06
-4.11467e-06
1.72119e-05
2.11158e-05
4.93423e-05
1.90609e-05
8.10647e-06
1.84528e-05
2.44525e-06
1.82375e-05
5.2812e-07
1.83955e-05
-9.57703e-07
1.82029e-05
-4.98772e-07
1.82789e-05
-4.36678e-07
1.8849e-05
2.87979e-07
1.90933e-05
1.39138e-06
1.8937e-05
1.40518e-06
1.83842e-05
2.01563e-06
1.79911e-05
1.31652e-06
1.81347e-05
-2.33074e-07
1.85359e-05
-8.78947e-07
1.90439e-05
-1.14879e-06
1.96802e-05
-1.6748e-06
2.04763e-05
-2.71992e-06
2.11355e-05
-3.17895e-06
2.14262e-05
-2.43107e-06
2.1523e-05
-1.31907e-06
2.15426e-05
-7.16338e-07
2.14498e-05
-8.99725e-07
2.10532e-05
-3.85584e-07
2.07138e-05
4.26644e-07
2.05797e-05
9.13185e-07
2.04054e-05
1.15971e-06
2.02415e-05
6.90634e-07
1.97771e-05
1.00442e-06
1.88675e-05
2.29956e-06
1.78402e-05
2.75255e-06
1.69078e-05
2.14225e-06
1.67491e-05
3.21329e-07
1.74324e-05
-2.04133e-06
1.82745e-05
-2.40757e-06
1.82938e-05
-2.75527e-07
1.79782e-05
1.73491e-07
1.83826e-05
-1.18245e-06
1.90461e-05
-1.02072e-06
1.96149e-05
-5.92646e-07
2.00188e-05
-1.01873e-06
2.02524e-05
-1.36993e-06
2.02347e-05
-1.15443e-06
2.00851e-05
-4.23355e-07
1.98612e-05
4.18721e-07
1.9664e-05
6.48694e-07
1.96318e-05
4.93597e-07
1.93073e-05
9.6451e-07
1.84964e-05
1.94527e-06
1.76829e-05
2.23678e-06
1.7294e-05
1.33571e-06
1.73225e-05
2.05958e-07
1.74209e-05
-1.4469e-07
1.74836e-05
-2.29382e-07
1.75035e-05
-2.82665e-07
1.73646e-05
1.78581e-07
1.73176e-05
1.59755e-07
1.73247e-05
6.52331e-10
1.70287e-05
7.10449e-07
1.6614e-05
1.15967e-06
1.63679e-05
7.91074e-07
1.62076e-05
5.01611e-07
1.62033e-05
1.0527e-07
1.64659e-05
-6.52572e-07
1.67591e-05
-8.0428e-07
1.71194e-05
-9.9596e-07
1.74267e-05
-1.01623e-06
1.76571e-05
-9.22235e-07
1.78459e-05
-7.73871e-07
1.78896e-05
-2.32978e-07
1.79013e-05
1.02764e-07
1.80345e-05
3.50347e-08
1.82123e-05
1.89793e-07
1.84492e-05
3.10635e-07
1.8765e-05
2.88735e-09
1.91088e-05
-6.16683e-07
1.94173e-05
-1.23956e-06
1.96255e-05
-1.64914e-06
1.96735e-05
-1.42773e-06
1.96209e-05
-4.07247e-07
1.9577e-05
3.49962e-07
1.96257e-05
1.62229e-07
1.98503e-05
-2.78065e-07
2.01637e-05
-7.39563e-07
2.04135e-05
-1.09622e-06
2.07778e-05
-1.21717e-06
2.12643e-05
-2.03123e-06
2.19012e-05
-2.79735e-06
-4.73874e-06
2.25253e-05
2.93852e-05
5.87482e-05
2.69576e-05
1.05341e-05
2.62573e-05
3.14558e-06
2.59004e-05
8.85038e-07
2.58839e-05
-9.41235e-07
2.55031e-05
-1.17975e-07
2.53959e-05
-3.29469e-07
2.60655e-05
-3.81624e-07
2.66267e-05
8.30194e-07
2.68505e-05
1.1813e-06
2.6865e-05
2.00119e-06
2.69586e-05
1.2229e-06
2.7261e-05
-5.3553e-07
2.76732e-05
-1.29108e-06
2.8144e-05
-1.61959e-06
2.8607e-05
-2.13781e-06
2.89616e-05
-3.07454e-06
2.91479e-05
-3.36521e-06
2.91722e-05
-2.45536e-06
2.91321e-05
-1.27905e-06
2.90783e-05
-6.62496e-07
2.88962e-05
-7.17634e-07
2.83856e-05
1.24993e-07
2.79429e-05
8.69415e-07
2.77752e-05
1.08088e-06
2.76366e-05
1.29831e-06
2.74892e-05
8.37985e-07
2.7025e-05
1.46868e-06
2.60933e-05
3.23121e-06
2.49625e-05
3.88332e-06
2.38239e-05
3.28085e-06
2.34664e-05
6.7891e-07
2.40006e-05
-2.5756e-06
2.47437e-05
-3.15068e-06
2.47736e-05
-3.05372e-07
2.44565e-05
4.90607e-07
2.48259e-05
-1.55184e-06
2.55055e-05
-1.70038e-06
2.61277e-05
-1.21484e-06
2.65785e-05
-1.46947e-06
2.68268e-05
-1.6183e-06
2.68071e-05
-1.13465e-06
2.66547e-05
-2.70993e-07
2.64184e-05
6.55016e-07
2.61959e-05
8.71197e-07
2.61392e-05
5.50319e-07
2.58009e-05
1.30282e-06
2.49343e-05
2.81184e-06
2.40334e-05
3.13772e-06
2.35868e-05
1.78228e-06
2.35786e-05
2.14104e-07
2.36655e-05
-2.31522e-07
2.37312e-05
-2.95108e-07
2.37335e-05
-2.84965e-07
2.3574e-05
3.38072e-07
2.35035e-05
2.3026e-07
2.34828e-05
2.13414e-08
2.3173e-05
1.02028e-06
2.27342e-05
1.59844e-06
2.2445e-05
1.08025e-06
2.22465e-05
7.00142e-07
2.2217e-05
1.34759e-07
2.24558e-05
-8.91416e-07
2.27444e-05
-1.09282e-06
2.31079e-05
-1.35949e-06
2.34255e-05
-1.33382e-06
2.36763e-05
-1.17306e-06
2.38761e-05
-9.73664e-07
2.39611e-05
-3.18005e-07
2.40163e-05
4.76165e-08
2.41415e-05
-9.02122e-08
2.43271e-05
4.23241e-09
2.4602e-05
3.57208e-08
2.4944e-05
-3.39151e-07
2.52997e-05
-9.72299e-07
2.5607e-05
-1.54687e-06
2.58184e-05
-1.86058e-06
2.59128e-05
-1.52209e-06
2.5953e-05
-4.47488e-07
2.60026e-05
3.00392e-07
2.60781e-05
8.67299e-08
2.62419e-05
-4.41869e-07
2.64822e-05
-9.79878e-07
2.67398e-05
-1.35386e-06
2.71425e-05
-1.61988e-06
2.75708e-05
-2.45948e-06
2.80994e-05
-3.32601e-06
-5.33118e-06
2.86919e-05
3.97985e-05
6.80214e-05
3.6925e-05
1.34076e-05
3.60685e-05
4.00204e-06
3.55677e-05
1.38584e-06
3.5339e-05
-7.12496e-07
3.47535e-05
4.67439e-07
3.44346e-05
-1.05662e-08
3.50532e-05
-1.00023e-06
3.5757e-05
1.26404e-07
3.61928e-05
7.45564e-07
3.6561e-05
1.63296e-06
3.70072e-05
7.76686e-07
3.74237e-05
-9.51997e-07
3.77859e-05
-1.65329e-06
3.81404e-05
-1.97406e-06
3.84587e-05
-2.45617e-06
3.86395e-05
-3.25528e-06
3.86391e-05
-3.36488e-06
3.85159e-05
-2.33207e-06
3.83647e-05
-1.12786e-06
3.82164e-05
-5.14272e-07
3.79348e-05
-4.35978e-07
3.73271e-05
7.32717e-07
3.67793e-05
1.41718e-06
3.65508e-05
1.30936e-06
3.64338e-05
1.4153e-06
3.63118e-05
9.60012e-07
3.58753e-05
1.90514e-06
3.49833e-05
4.12328e-06
3.38416e-05
5.02502e-06
3.25299e-05
4.59247e-06
3.19004e-05
1.30846e-06
3.22111e-05
-2.88629e-06
3.28024e-05
-3.74198e-06
3.2841e-05
-3.43986e-07
3.25566e-05
7.75019e-07
3.28642e-05
-1.85944e-06
3.34965e-05
-2.33274e-06
3.41142e-05
-1.83253e-06
3.45821e-05
-1.93731e-06
3.48498e-05
-1.886e-06
3.48484e-05
-1.13327e-06
3.47016e-05
-1.24194e-07
3.44559e-05
9.00685e-07
3.42099e-05
1.11721e-06
3.41129e-05
6.4732e-07
3.37541e-05
1.66165e-06
3.28698e-05
3.69608e-06
3.19239e-05
4.08364e-06
3.14185e-05
2.28765e-06
3.13558e-05
2.76815e-07
3.14262e-05
-3.01884e-07
3.14879e-05
-3.56782e-07
3.14685e-05
-2.65657e-07
3.12965e-05
5.10148e-07
3.12098e-05
3.1697e-07
3.11649e-05
6.61878e-08
3.08616e-05
1.3236e-06
3.04335e-05
2.02654e-06
3.0121e-05
1.3928e-06
2.9896e-05
9.25065e-07
2.98445e-05
1.86291e-07
3.00485e-05
-1.09543e-06
3.03129e-05
-1.35718e-06
3.06576e-05
-1.7042e-06
3.09701e-05
-1.64634e-06
3.12265e-05
-1.42946e-06
3.14218e-05
-1.16896e-06
3.15406e-05
-4.36799e-07
3.16513e-05
-6.30428e-08
3.17855e-05
-2.24479e-07
3.19738e-05
-1.84075e-07
3.22551e-05
-2.45568e-07
3.25863e-05
-6.70386e-07
3.29155e-05
-1.30143e-06
3.32034e-05
-1.83477e-06
3.34178e-05
-2.07497e-06
3.3554e-05
-1.65828e-06
3.36826e-05
-5.76067e-07
3.38284e-05
1.54573e-07
3.39543e-05
-3.91544e-08
3.41054e-05
-5.93006e-07
3.43083e-05
-1.18282e-06
3.4593e-05
-1.63853e-06
3.50135e-05
-2.0404e-06
3.54038e-05
-2.84974e-06
3.5808e-05
-3.73026e-06
-5.80827e-06
3.62851e-05
5.26975e-05
7.69518e-05
4.93221e-05
1.6783e-05
4.82261e-05
5.09813e-06
4.75921e-05
2.01983e-06
4.71544e-05
-2.74795e-07
4.63531e-05
1.2687e-06
4.58243e-05
5.18268e-07
4.62944e-05
-1.47035e-06
4.70149e-05
-5.94108e-07
4.75798e-05
1.80698e-07
4.81516e-05
1.06112e-06
4.87657e-05
1.6257e-07
4.92372e-05
-1.42345e-06
4.95802e-05
-1.99629e-06
4.9865e-05
-2.25883e-06
5.0099e-05
-2.69021e-06
5.01884e-05
-3.3447e-06
5.00739e-05
-3.25032e-06
4.98255e-05
-2.08372e-06
4.95535e-05
-8.55888e-07
4.92897e-05
-2.50402e-07
4.89013e-05
-4.761e-08
4.82164e-05
1.41763e-06
4.75743e-05
2.05924e-06
4.72587e-05
1.62499e-06
4.71287e-05
1.54524e-06
4.70104e-05
1.07831e-06
4.65938e-05
2.32179e-06
4.5755e-05
4.96209e-06
4.46481e-05
6.13192e-06
4.32331e-05
6.00744e-06
4.23523e-05
2.1893e-06
4.24131e-05
-2.9471e-06
4.282e-05
-4.14889e-06
4.2866e-05
-3.89949e-07
4.26346e-05
1.0064e-06
4.28521e-05
-2.07691e-06
4.33851e-05
-2.86583e-06
4.39555e-05
-2.40293e-06
4.44111e-05
-2.3929e-06
4.46822e-05
-2.15704e-06
4.46896e-05
-1.14074e-06
4.45364e-05
2.90468e-08
4.42794e-05
1.15768e-06
4.40127e-05
1.38394e-06
4.38659e-05
7.94059e-07
4.34871e-05
2.04052e-06
4.2635e-05
4.54811e-06
4.16964e-05
5.0223e-06
4.11262e-05
2.85789e-06
4.09858e-05
4.1713e-07
4.10236e-05
-3.3969e-07
4.10592e-05
-3.92318e-07
4.10104e-05
-2.1684e-07
4.0834e-05
6.86527e-07
4.0735e-05
4.15946e-07
4.06672e-05
1.3395e-07
4.03846e-05
1.60626e-06
4.00002e-05
2.41091e-06
3.96932e-05
1.69981e-06
3.94622e-05
1.15611e-06
3.94019e-05
2.46498e-07
3.9573e-05
-1.26653e-06
3.98041e-05
-1.58825e-06
4.01141e-05
-2.01415e-06
4.04101e-05
-1.94237e-06
4.0657e-05
-1.67637e-06
4.08365e-05
-1.34842e-06
4.09804e-05
-5.80712e-07
4.11429e-05
-2.25621e-07
4.13097e-05
-3.912e-07
4.15178e-05
-3.92255e-07
4.17972e-05
-5.24934e-07
4.21015e-05
-9.74658e-07
4.23839e-05
-1.58385e-06
4.26314e-05
-2.08227e-06
4.283e-05
-2.27358e-06
4.29914e-05
-1.8197e-06
4.31858e-05
-7.70478e-07
4.34125e-05
-7.2106e-08
4.36108e-05
-2.37481e-07
4.3803e-05
-7.85219e-07
4.40183e-05
-1.3981e-06
4.4338e-05
-1.95826e-06
4.474e-05
-2.44237e-06
4.50933e-05
-3.203e-06
4.54501e-05
-4.08711e-06
-6.17149e-06
4.58133e-05
6.85174e-05
8.53198e-05
6.46203e-05
2.06801e-05
6.32134e-05
6.50512e-06
6.24367e-05
2.7965e-06
6.17952e-05
3.66656e-07
6.07739e-05
2.29007e-06
6.00458e-05
1.24631e-06
6.03052e-05
-1.72972e-06
6.0928e-05
-1.21693e-06
6.15344e-05
-4.25742e-07
6.22115e-05
3.84066e-07
6.28863e-05
-5.12265e-07
6.33599e-05
-1.897e-06
6.36745e-05
-2.31093e-06
6.38973e-05
-2.48161e-06
6.4042e-05
-2.83494e-06
6.40342e-05
-3.3369e-06
6.38165e-05
-3.03256e-06
6.34535e-05
-1.72072e-06
6.30652e-05
-4.67656e-07
6.26911e-05
1.2373e-07
6.22093e-05
4.34229e-07
6.14615e-05
2.16538e-06
6.0736e-05
2.78473e-06
6.03268e-05
2.03419e-06
6.01556e-05
1.71642e-06
6.00117e-05
1.22221e-06
5.95951e-05
2.73839e-06
5.88031e-05
5.7541e-06
5.77416e-05
7.19348e-06
5.6296e-05
7.45308e-06
5.52307e-05
3.25458e-06
5.50469e-05
-2.76331e-06
5.52556e-05
-4.3576e-06
5.52921e-05
-4.26448e-07
5.51039e-05
1.19457e-06
5.52069e-05
-2.17987e-06
5.56032e-05
-3.26215e-06
5.60884e-05
-2.88818e-06
5.64937e-05
-2.79818e-06
5.67354e-05
-2.39874e-06
5.67338e-05
-1.13913e-06
5.65662e-05
1.96659e-07
5.63028e-05
1.42112e-06
5.60217e-05
1.66501e-06
5.5822e-05
9.93727e-07
5.54319e-05
2.43062e-06
5.4659e-05
5.32106e-06
5.37735e-05
5.9078e-06
5.31391e-05
3.49229e-06
5.29055e-05
6.50721e-07
5.28873e-05
-3.21528e-07
5.28717e-05
-3.76677e-07
5.27862e-05
-1.31385e-07
5.26055e-05
8.67243e-07
5.24896e-05
5.31891e-07
5.2393e-05
2.30462e-07
5.21343e-05
1.86504e-06
5.18137e-05
2.73147e-06
5.15352e-05
1.97833e-06
5.13167e-05
1.37457e-06
5.12608e-05
3.02431e-07
5.14012e-05
-1.40696e-06
5.15944e-05
-1.78142e-06
5.18578e-05
-2.27752e-06
5.21248e-05
-2.20937e-06
5.23477e-05
-1.8993e-06
5.25118e-05
-1.51256e-06
5.26813e-05
-7.50206e-07
5.28819e-05
-4.26164e-07
5.309e-05
-5.99308e-07
5.33398e-05
-6.42078e-07
5.36256e-05
-8.10761e-07
5.39021e-05
-1.25113e-06
5.41436e-05
-1.82533e-06
5.43479e-05
-2.28665e-06
5.4518e-05
-2.4436e-06
5.46916e-05
-1.99334e-06
5.49351e-05
-1.01397e-06
5.52279e-05
-3.6493e-07
5.55e-05
-5.09581e-07
5.57525e-05
-1.0377e-06
5.60213e-05
-1.66695e-06
5.63656e-05
-2.30249e-06
5.67289e-05
-2.80576e-06
5.70383e-05
-3.51234e-06
5.73837e-05
-4.43257e-06
-6.47889e-06
5.76911e-05
8.77796e-05
9.28678e-05
8.3401e-05
2.50587e-05
8.16132e-05
8.29294e-06
8.06491e-05
3.76054e-06
7.97781e-05
1.23764e-06
7.8517e-05
3.55121e-06
7.75786e-05
2.18469e-06
7.75767e-05
-1.72785e-06
7.79865e-05
-1.62664e-06
7.85161e-05
-9.55347e-07
7.9174e-05
-2.73831e-07
7.98054e-05
-1.14373e-06
8.02308e-05
-2.32242e-06
8.0494e-05
-2.57412e-06
8.06457e-05
-2.63322e-06
8.06961e-05
-2.8854e-06
8.05895e-05
-3.23029e-06
8.02826e-05
-2.72567e-06
7.98323e-05
-1.27043e-06
7.93528e-05
1.19224e-08
7.88871e-05
5.89335e-07
7.83306e-05
9.90827e-07
7.75302e-05
2.96578e-06
7.67312e-05
3.58364e-06
7.62378e-05
2.52763e-06
7.60125e-05
1.94167e-06
7.58242e-05
1.41052e-06
7.53953e-05
3.1673e-06
7.4644e-05
6.50547e-06
7.36345e-05
8.20299e-06
7.22165e-05
8.871e-06
7.10339e-05
4.43721e-06
7.06316e-05
-2.36099e-06
7.0645e-05
-4.37103e-06
7.06316e-05
-4.13063e-07
7.04498e-05
1.37633e-06
7.04254e-05
-2.15544e-06
7.06593e-05
-3.49601e-06
7.10255e-05
-3.25436e-06
7.13459e-05
-3.11861e-06
7.153e-05
-2.58288e-06
7.15083e-05
-1.11743e-06
7.13274e-05
3.77542e-07
7.10643e-05
1.68428e-06
7.07738e-05
1.95552e-06
7.05195e-05
1.24798e-06
7.01283e-05
2.82188e-06
6.94605e-05
5.98879e-06
6.86545e-05
6.71379e-06
6.79748e-05
4.17203e-06
6.76499e-05
9.75587e-07
6.75565e-05
-2.28063e-07
6.74737e-05
-2.93919e-07
6.73456e-05
-3.24994e-09
6.71491e-05
1.06368e-06
6.70055e-05
6.75551e-07
6.68742e-05
3.61747e-07
6.66379e-05
2.1013e-06
6.63839e-05
2.98551e-06
6.61444e-05
2.2178e-06
6.59537e-05
1.56531e-06
6.59107e-05
3.45377e-07
6.60224e-05
-1.5186e-06
6.61726e-05
-1.93162e-06
6.63766e-05
-2.48158e-06
6.65971e-05
-2.42983e-06
6.67859e-05
-2.08815e-06
6.69422e-05
-1.66885e-06
6.71395e-05
-9.47498e-07
6.73662e-05
-6.52804e-07
6.76048e-05
-8.37997e-07
6.78883e-05
-9.25544e-07
6.81817e-05
-1.1042e-06
6.84448e-05
-1.51417e-06
6.86701e-05
-2.0506e-06
6.88589e-05
-2.47549e-06
6.90225e-05
-2.6072e-06
6.92141e-05
-2.18492e-06
6.95011e-05
-1.30103e-06
6.98511e-05
-7.14919e-07
7.01846e-05
-8.43039e-07
7.04957e-05
-1.34878e-06
7.083e-05
-2.00133e-06
7.11796e-05
-2.65208e-06
7.15108e-05
-3.1369e-06
7.18168e-05
-3.81841e-06
7.21789e-05
-4.79464e-06
-6.75695e-06
7.24569e-05
0.000111075
9.92817e-05
0.000106367
2.97667e-05
0.000104078
1.05826e-05
0.000102819
5.01894e-06
0.000101658
2.39892e-06
0.000100128
5.08111e-06
9.89332e-05
3.37957e-06
9.85988e-05
-1.39345e-06
9.87021e-05
-1.72998e-06
9.90432e-05
-1.29642e-06
9.95586e-05
-7.89263e-07
0.000100064
-1.64889e-06
0.000100405
-2.66343e-06
0.000100599
-2.76783e-06
0.000100678
-2.71239e-06
0.000100651
-2.85839e-06
0.000100466
-3.04586e-06
0.000100092
-2.35115e-06
9.95807e-05
-7.59373e-07
9.90334e-05
5.59161e-07
9.84952e-05
1.12753e-06
9.78815e-05
1.60457e-06
9.70428e-05
3.80446e-06
9.61846e-05
4.44191e-06
9.56138e-05
3.09839e-06
9.53194e-05
2.23608e-06
9.507e-05
1.65988e-06
9.46209e-05
3.6164e-06
9.39043e-05
7.22213e-06
9.29519e-05
9.15531e-06
9.16071e-05
1.02159e-05
9.03704e-05
5.67389e-06
8.97887e-05
-1.77933e-06
8.96158e-05
-4.19811e-06
8.95004e-05
-2.97665e-07
8.92781e-05
1.59863e-06
8.91283e-05
-2.00561e-06
8.91908e-05
-3.55852e-06
8.94108e-05
-3.47435e-06
8.96218e-05
-3.32966e-06
8.97295e-05
-2.69056e-06
8.9678e-05
-1.06591e-06
8.94839e-05
5.71653e-07
8.92211e-05
1.9471e-06
8.89243e-05
2.25225e-06
8.86191e-05
1.55322e-06
8.82348e-05
3.20615e-06
8.76737e-05
6.54993e-06
8.6954e-05
7.43349e-06
8.62642e-05
4.86185e-06
8.58645e-05
1.37527e-06
8.56871e-05
-5.06382e-08
8.55315e-05
-1.38398e-07
8.53512e-05
1.77101e-07
8.51247e-05
1.29014e-06
8.49437e-05
8.56565e-07
8.47759e-05
5.29575e-07
8.45622e-05
2.31503e-06
8.43675e-05
3.18012e-06
8.41718e-05
2.4135e-06
8.40222e-05
1.71495e-06
8.39968e-05
3.70769e-07
8.40802e-05
-1.60195e-06
8.4182e-05
-2.03341e-06
8.43184e-05
-2.61805e-06
8.44806e-05
-2.59204e-06
8.46362e-05
-2.24372e-06
8.47912e-05
-1.82384e-06
8.50079e-05
-1.16418e-06
8.52536e-05
-8.98597e-07
8.55095e-05
-1.09388e-06
8.57977e-05
-1.21374e-06
8.60883e-05
-1.39481e-06
8.63548e-05
-1.7806e-06
8.65884e-05
-2.28428e-06
8.67959e-05
-2.683e-06
8.69908e-05
-2.80204e-06
8.72198e-05
-2.41393e-06
8.7549e-05
-1.63025e-06
8.79471e-05
-1.11298e-06
8.83354e-05
-1.23135e-06
8.87155e-05
-1.72888e-06
8.90991e-05
-2.38496e-06
8.94393e-05
-2.99228e-06
8.97724e-05
-3.47001e-06
9.01437e-05
-4.18967e-06
9.05608e-05
-5.21172e-06
-6.9978e-06
9.08016e-05
0.000139048
0.000104245
0.000134322
3.44924e-05
0.000131391
1.35134e-05
0.000129636
6.77437e-06
0.00012809
3.94458e-06
0.000126284
6.88708e-06
0.000124797
4.86689e-06
0.000124069
-6.65674e-07
0.000123815
-1.4762e-06
0.000123886
-1.36686e-06
0.000124175
-1.07822e-06
0.000124504
-1.9779e-06
0.00012473
-2.89011e-06
0.000124837
-2.8744e-06
0.000124841