/*--------------------------------*- C++ -*----------------------------------*\
| =========                 |                                                 |
| \\      /  F ield         | OpenFOAM: The Open Source CFD Toolbox           |
|  \\    /   O peration     | Version:  5.x                                   |
|   \\  /    A nd           | Web:      www.OpenFOAM.org                      |
|    \\/     M anipulation  |                                                 |
\*---------------------------------------------------------------------------*/
FoamFile
{
    version     2.0;
    format      ascii;
    class       volVectorField;
    location    "384";
    object      U;
}
// * * * * * * * * * * * * * * * * * * * * * * * * * * * * * * * * * * * * * //

dimensions      [0 1 -1 0 0 0 0];

internalField   nonuniform List<vector> 
20540
(
(44.1744 -1.8418e-06 0)
(44.2434 0.00498198 0)
(44.1744 -5.87243e-06 0)
(44.2434 0.0143288 0)
(44.1744 -1.06506e-05 0)
(44.2434 0.024342 0)
(44.1744 -1.63471e-05 0)
(44.2435 0.0349155 0)
(44.1744 -2.31205e-05 0)
(44.2435 0.0458334 0)
(44.1745 -3.11239e-05 0)
(44.2435 0.056788 0)
(44.1745 -4.04833e-05 0)
(44.2436 0.0675498 0)
(44.1746 -5.12513e-05 0)
(44.2437 0.0778772 0)
(44.1747 -6.33596e-05 0)
(44.2438 0.0873728 0)
(44.1749 -7.65686e-05 0)
(44.2439 0.0956672 0)
(44.1751 -9.03942e-05 0)
(44.2442 0.102526 0)
(44.1753 -0.000104041 0)
(44.2444 0.107789 0)
(44.1757 -0.000116403 0)
(44.2448 0.111418 0)
(44.1761 -0.000126065 0)
(44.2452 0.113522 0)
(44.1766 -0.000131037 0)
(44.2456 0.114343 0)
(44.1773 -0.000128288 0)
(44.2462 0.114158 0)
(44.178 -0.000113859 0)
(44.2469 0.113185 0)
(44.1789 -8.38919e-05 0)
(44.2478 0.111582 0)
(44.18 -3.56206e-05 0)
(44.2488 0.109443 0)
(44.1813 3.20974e-05 0)
(44.2499 0.106773 0)
(44.1828 0.000117944 0)
(44.2513 0.103509 0)
(44.1845 0.000218014 0)
(44.2529 0.0995683 0)
(44.1865 0.000325989 0)
(44.2548 0.0948405 0)
(44.1889 0.00043311 0)
(44.2569 0.0891814 0)
(44.1915 0.000525925 0)
(44.2593 0.0824409 0)
(44.1944 0.000584381 0)
(44.2618 0.0744444 0)
(44.1975 0.000580418 0)
(44.2646 0.0649946 0)
(44.2007 0.000477361 0)
(44.2673 0.0538666 0)
(44.2038 0.000231647 0)
(44.2699 0.0407964 0)
(44.2064 -0.000200758 0)
(44.2719 0.0254618 0)
(44.2079 -0.0007625 0)
(44.2726 0.00945922 0)
(44.2082 -0.0013556 0)
(44.2719 -0.00592314 0)
(44.2072 -0.00192948 0)
(44.27 -0.0210992 0)
(44.2051 -0.00242274 0)
(44.2668 -0.0362346 0)
(44.2017 -0.00277296 0)
(44.2623 -0.0515203 0)
(44.1974 -0.00291989 0)
(44.2568 -0.065771 0)
(44.1931 -0.00287 0)
(44.2513 -0.0778201 0)
(44.1888 -0.00268801 0)
(44.246 -0.0880234 0)
(44.1849 -0.00242749 0)
(44.2412 -0.0966592 0)
(44.1813 -0.0021294 0)
(44.2368 -0.103957 0)
(44.1781 -0.00182287 0)
(44.2329 -0.110111 0)
(44.1752 -0.0015273 0)
(44.2295 -0.115287 0)
(44.1728 -0.00125456 0)
(44.2265 -0.119629 0)
(44.1707 -0.00101106 0)
(44.224 -0.12326 0)
(44.1688 -0.000799384 0)
(44.2218 -0.126287 0)
(44.1673 -0.000619589 0)
(44.22 -0.128795 0)
(44.166 -0.000470279 0)
(44.2184 -0.130836 0)
(44.1649 -0.00034861 0)
(44.2171 -0.132416 0)
(44.1639 -0.000251345 0)
(44.2159 -0.133473 0)
(44.1631 -0.000176256 0)
(44.215 -0.133842 0)
(44.1625 -0.00012037 0)
(44.2142 -0.133256 0)
(44.1619 -8.01822e-05 0)
(44.2136 -0.131401 0)
(44.1615 -5.22859e-05 0)
(44.2131 -0.127967 0)
(44.1612 -3.34727e-05 0)
(44.2127 -0.12273 0)
(44.1609 -2.10974e-05 0)
(44.2124 -0.115611 0)
(44.1607 -1.31303e-05 0)
(44.2121 -0.106702 0)
(44.1606 -8.09198e-06 0)
(44.2119 -0.0962539 0)
(44.1604 -4.94914e-06 0)
(44.2118 -0.084645 0)
(44.1604 -3.00619e-06 0)
(44.2117 -0.0723217 0)
(44.1603 -1.80965e-06 0)
(44.2116 -0.0597415 0)
(44.1603 -1.07153e-06 0)
(44.2116 -0.0473186 0)
(44.1603 -6.12139e-07 0)
(44.2115 -0.0353862 0)
(44.1603 -3.21194e-07 0)
(44.2115 -0.0241875 0)
(44.1603 -1.36387e-07 0)
(44.2115 -0.0139313 0)
(44.1603 -3.52497e-08 0)
(44.2115 -0.00476794 0)
(5.26401 0.00816578 0)
(2.35771 0.000166133 0)
(1.61895 4.4352e-05 0)
(1.51224 5.98142e-06 0)
(1.54457 -6.72169e-06 0)
(1.65755 -5.5008e-05 0)
(2.10792 1.46772e-05 0)
(1.64523 6.85725e-05 0)
(1.41623 1.30429e-05 0)
(1.33004 5.49657e-06 0)
(1.26372 6.69454e-06 0)
(1.1795 4.48046e-06 0)
(1.16557 -3.79113e-07 0)
(1.18513 -2.88651e-06 0)
(1.21381 -4.10224e-06 0)
(1.25107 -6.37172e-06 0)
(1.32069 -1.11538e-05 0)
(1.44793 -1.5777e-05 0)
(1.60781 -1.34911e-05 0)
(1.73036 -8.99668e-06 0)
(1.79103 -1.14082e-05 0)
(1.87695 -2.47968e-05 0)
(2.06992 -0.000151624 0)
(2.53825 -6.67827e-05 0)
(2.30187 9.4345e-05 0)
(2.12024 6.23077e-05 0)
(1.96306 1.55954e-05 0)
(1.99771 -0.000143692 0)
(2.3382 -0.00017247 0)
(2.70969 -8.00351e-05 0)
(2.98067 -5.53212e-05 0)
(3.80002 1.34496e-05 0)
(2.98718 0.000144191 0)
(2.37514 0.000252146 0)
(1.89208 -5.61304e-05 0)
(2.89657 -0.000477438 0)
(2.81581 0.000299404 0)
(2.17409 0.000351676 0)
(1.89596 0.00014203 0)
(1.83996 -4.52005e-06 0)
(1.93658 -3.62021e-05 0)
(2.08687 -0.000203785 0)
(2.46717 -0.000196601 0)
(2.55631 -0.000220797 0)
(2.77377 -2.8403e-07 0)
(2.49149 0.000254428 0)
(2.33253 -0.000301075 0)
(3.12928 -0.000614045 0)
(3.96007 -0.000241784 0)
(4.05369 0.00029581 0)
(3.52134 0.000461578 0)
(2.76717 0.000114677 0)
(2.79139 -1.79626e-05 0)
(2.8253 -0.000149249 0)
(3.13949 -0.000246104 0)
(3.50068 0.000201693 0)
(2.84084 4.43989e-05 0)
(3.19008 -0.000234237 0)
(3.76183 -0.000176695 0)
(3.71746 0.00021917 0)
(3.56434 0.000134588 0)
(3.58962 0.000269427 0)
(3.1762 0.000422084 0)
(2.71012 0.000445431 0)
(2.37976 0.000958055 0)
(2.12939 0.000449877 0)
(2.29885 -0.000385751 0)
(2.40287 -0.000260244 0)
(2.52057 -0.000978304 0)
(2.97848 0.00040147 0)
(2.41652 0.00183616 0)
(2.15571 0.0011679 0)
(1.95756 0.000604889 0)
(1.81199 0.00021291 0)
(1.7404 1.3899e-05 0)
(1.7562 -0.000218044 0)
(1.87616 -0.000498559 0)
(2.11801 -0.00275551 0)
(2.8226 -0.00269528 0)
(3.15388 -0.00036361 0)
(3.41278 0.00160338 0)
(2.65569 0.0029614 0)
(2.23994 0.00210489 0)
(2.224 -0.00100989 0)
(2.42445 -0.00020223 0)
(2.38317 0.000125869 0)
(2.66602 -0.00358192 0)
(3.15435 -0.0520169 0)
(10.1192 0.0154368 0)
(6.37306 0.00159901 0)
(5.1895 0.000423791 0)
(4.84961 5.56972e-05 0)
(4.95388 -0.000104537 0)
(5.31577 -0.000366825 0)
(6.08497 4.95799e-05 0)
(5.27672 0.000506214 0)
(4.54293 0.000255168 0)
(4.26668 0.000115015 0)
(4.0538 0.000117687 0)
(3.78349 7.86705e-05 0)
(3.7391 -6.00415e-06 0)
(3.80203 -4.45673e-05 0)
(3.89421 -6.31501e-05 0)
(4.01401 -0.000104681 0)
(4.23763 -0.000195438 0)
(4.64604 -0.000296548 0)
(5.15899 -0.00029598 0)
(5.55217 -0.000198691 0)
(5.74668 -0.000190689 0)
(6.02206 -0.000403296 0)
(6.63929 -0.00102103 0)
(7.82777 -0.000483056 0)
(7.3838 0.000625713 0)
(6.80188 0.000633284 0)
(6.29833 0.000197882 0)
(6.40862 -0.000601303 0)
(6.89837 -0.00076222 0)
(6.72577 -0.000420523 0)
(6.56947 -0.00098629 0)
(6.80901 4.90104e-05 0)
(6.50804 0.00125005 0)
(6.80555 0.0014169 0)
(6.06661 -0.000689977 0)
(7.21771 -0.00170994 0)
(7.47461 0.000911273 0)
(6.97203 0.00197041 0)
(6.08373 0.00116412 0)
(5.90529 -6.51563e-05 0)
(6.21499 -0.000660073 0)
(6.6942 -0.00182673 0)
(7.91548 -0.00184939 0)
(8.19877 -0.000822474 0)
(8.41657 0.000206282 0)
(7.99181 0.00138197 0)
(7.47614 -0.000989826 0)
(8.07622 -0.00311073 0)
(8.10103 -0.00125493 0)
(7.79822 0.00117143 0)
(7.5133 0.00264281 0)
(7.23032 0.00153574 0)
(7.24125 -0.000168558 0)
(7.31716 -0.000983087 0)
(7.56507 -0.00164101 0)
(7.60318 0.000760766 0)
(7.4234 0.000777328 0)
(7.48208 -0.0022041 0)
(7.53964 -0.00102713 0)
(7.33281 0.000829931 0)
(7.211 0.000544516 0)
(7.1202 0.00125227 0)
(7.00995 0.00279082 0)
(6.96795 0.00299928 0)
(6.99042 0.00293258 0)
(6.81917 -0.000163747 0)
(7.20158 -0.0027687 0)
(7.45664 -0.00227291 0)
(7.71055 -0.00389834 0)
(7.88638 0.00114936 0)
(7.54648 0.00834828 0)
(6.86434 0.00843762 0)
(6.22468 0.00637898 0)
(5.7565 0.00379478 0)
(5.53693 0.00085962 0)
(5.59676 -0.00264913 0)
(5.98549 -0.00704406 0)
(6.72911 -0.0174273 0)
(8.16413 -0.0163116 0)
(8.19739 -0.00468181 0)
(8.12568 0.00673852 0)
(7.82405 0.0191741 0)
(7.01759 0.0109007 0)
(6.99688 -0.00649503 0)
(7.63292 -0.00375055 0)
(7.45191 -0.00357236 0)
(8.23698 -0.0234106 0)
(9.22717 -0.136407 0)
(14.2916 0.0262384 0)
(10.3758 0.00332354 0)
(9.24366 0.000991025 0)
(8.74949 0.000128714 0)
(8.95718 -0.000346136 0)
(9.4949 -0.000792638 0)
(9.9424 -9.30755e-06 0)
(9.65928 0.00125837 0)
(8.31619 0.000964668 0)
(7.81405 0.00043472 0)
(7.42433 0.000425191 0)
(6.9284 0.000284004 0)
(6.84897 -2.16919e-05 0)
(6.96491 -0.000155343 0)
(7.1341 -0.000219593 0)
(7.35372 -0.000371571 0)
(7.76356 -0.000706539 0)
(8.51241 -0.00109414 0)
(9.45342 -0.00112967 0)
(10.1744 -0.000758525 0)
(10.5286 -0.00069336 0)
(11.0306 -0.00148223 0)
(12.1558 -0.00234114 0)
(12.7815 -0.000728056 0)
(12.5424 0.00134766 0)
(11.908 0.00145063 0)
(11.3887 0.000582686 0)
(11.3774 -0.000668967 0)
(11.2332 -0.000410381 0)
(10.4635 0.000326488 0)
(9.8697 -0.000651371 0)
(9.54504 0.000132693 0)
(9.74388 0.00064478 0)
(10.845 0.000770548 0)
(10.9891 -0.00112045 0)
(11.0278 -0.00260655 0)
(11.4482 0.000523261 0)
(11.8144 0.00290115 0)
(11.1216 0.0025313 0)
(10.8151 -0.000245081 0)
(11.3873 -0.00252899 0)
(12.2497 -0.00442721 0)
(13.2682 -0.0034624 0)
(13.3892 -0.00104124 0)
(13.2022 0.000749654 0)
(13.0183 0.00249255 0)
(12.69 -0.000565288 0)
(12.2721 -0.00261284 0)
(11.6182 0.000111594 0)
(11.0125 0.00246337 0)
(10.8937 0.00332422 0)
(11.0099 0.00171842 0)
(11.0313 -0.000428213 0)
(11.135 -0.00166022 0)
(11.2575 -0.00191932 0)
(11.0495 0.000987668 0)
(11.2364 0.000880476 0)
(11.0967 -0.00178536 0)
(10.7436 3.85337e-05 0)
(10.4212 0.00188088 0)
(10.3241 0.00123926 0)
(10.158 0.00166204 0)
(10.2791 0.00239349 0)
(10.5755 0.0017496 0)
(10.8976 0.00168397 0)
(11.2255 -0.00250387 0)
(11.555 -0.00643144 0)
(11.8353 -0.00568329 0)
(12.0857 -0.00586391 0)
(11.8666 0.00213584 0)
(11.9736 0.011967 0)
(11.6936 0.0144125 0)
(11.1966 0.0171423 0)
(10.3659 0.0139163 0)
(10.0202 0.00360502 0)
(10.1559 -0.0088611 0)
(10.8739 -0.024666 0)
(12.1383 -0.0401303 0)
(12.9675 -0.0261376 0)
(12.7717 -0.00256113 0)
(12.4381 0.0103355 0)
(12.5778 0.0251867 0)
(12.3215 0.0165289 0)
(12.4627 -0.0136736 0)
(13.2199 -0.0123097 0)
(13.1158 -0.0201907 0)
(14.468 -0.0560572 0)
(15.0242 -0.20011 0)
(18.4026 0.0389229 0)
(14.4067 0.00537136 0)
(13.4044 0.0016844 0)
(12.8584 0.000251181 0)
(13.1497 -0.000737239 0)
(13.6817 -0.0011728 0)
(13.616 -0.000190383 0)
(14.2053 0.0018981 0)
(12.8491 0.00207597 0)
(12.092 0.00113308 0)
(11.4909 0.00111447 0)
(10.7191 0.000739912 0)
(10.6047 -5.18868e-05 0)
(10.787 -0.00037852 0)
(11.0498 -0.000532793 0)
(11.3894 -0.000927643 0)
(12.0238 -0.00182452 0)
(13.1873 -0.00281718 0)
(14.6525 -0.00303503 0)
(15.7721 -0.00202902 0)
(16.2252 -0.00139072 0)
(16.601 -0.00242408 0)
(17.2956 -0.00325113 0)
(16.9584 -0.000824246 0)
(16.8911 0.00206938 0)
(16.4466 0.00255709 0)
(16.1405 0.00115681 0)
(15.9643 -0.00014882 0)
(15.2105 0.00117181 0)
(14.0997 0.00235838 0)
(13.2099 0.00094449 0)
(12.5004 0.000268543 0)
(13.0382 -0.00161475 0)
(14.4027 -0.00165939 0)
(15.3744 -0.00124603 0)
(14.488 -0.00272037 0)
(14.8745 -0.000979211 0)
(15.6701 0.00222812 0)
(15.9487 0.00279593 0)
(16.0432 -0.00118747 0)
(16.5777 -0.00452398 0)
(17.1723 -0.00691174 0)
(17.3479 -0.00478404 0)
(17.2496 -0.000612326 0)
(16.8952 0.00156986 0)
(16.7922 0.00330736 0)
(16.7513 0.00147325 0)
(15.8788 0.000840611 0)
(14.8924 0.00382997 0)
(14.1282 0.00438147 0)
(14.0396 0.00298407 0)
(14.2852 0.00103541 0)
(14.3271 -0.000829079 0)
(14.4445 -0.00217412 0)
(14.4858 -0.0013082 0)
(14.1913 0.00100326 0)
(14.4629 0.00058931 0)
(14.2994 0.000396858 0)
(13.7615 0.00292506 0)
(13.3724 0.00351709 0)
(13.2687 0.00229633 0)
(13.0702 0.00163143 0)
(13.2848 -0.00022663 0)
(13.6922 -0.00269112 0)
(14.1106 -0.00366443 0)
(14.6079 -0.0077287 0)
(14.8955 -0.0108204 0)
(15.1677 -0.00954823 0)
(15.3954 -0.0055515 0)
(15.1389 0.00297082 0)
(15.3144 0.0116896 0)
(15.4596 0.0184815 0)
(15.4276 0.0231564 0)
(15.1707 0.0181635 0)
(15.1687 0.00242693 0)
(15.4754 -0.0191871 0)
(16.1669 -0.0417789 0)
(16.8866 -0.0564137 0)
(16.9327 -0.0298657 0)
(16.6976 0.00486061 0)
(16.3979 0.0121183 0)
(16.6389 0.0190471 0)
(17.1478 0.00554398 0)
(17.6558 -0.0287796 0)
(17.9425 -0.0279338 0)
(18.4431 -0.0523163 0)
(19.7906 -0.0986817 0)
(19.9013 -0.248687 0)
(22.4011 0.0519606 0)
(18.3847 0.00779207 0)
(17.5077 0.00245492 0)
(16.9007 0.000395077 0)
(17.1688 -0.00117416 0)
(17.5845 -0.00128192 0)
(17.143 -0.000497683 0)
(18.0657 0.00185255 0)
(17.767 0.00297428 0)
(17.2323 0.00214791 0)
(16.3834 0.00251096 0)
(15.2668 0.00162397 0)
(15.135 -0.000103944 0)
(15.4052 -0.000789236 0)
(15.7827 -0.00110439 0)
(16.2641 -0.00194515 0)
(17.1685 -0.00396755 0)
(18.8451 -0.00560415 0)
(20.1738 -0.00504957 0)
(20.8864 -0.00309254 0)
(21.1377 -0.00202626 0)
(21.2166 -0.00325946 0)
(21.2451 -0.00313085 0)
(20.5898 -0.00022143 0)
(20.5623 0.00256001 0)
(20.2418 0.0033229 0)
(20.0025 0.00174091 0)
(19.8062 0.00128302 0)
(18.8826 0.00401689 0)
(17.6286 0.00548932 0)
(16.5622 0.00362213 0)
(15.6447 0.000478543 0)
(16.334 -0.00485623 0)
(17.5806 -0.0056358 0)
(18.6913 -0.00129355 0)
(17.6468 -0.00158903 0)
(17.9249 -0.00318578 0)
(18.77 -0.000284867 0)
(19.4917 0.00131411 0)
(19.9596 -0.00280952 0)
(20.3801 -0.00669006 0)
(20.6348 -0.0078885 0)
(20.5011 -0.00449905 0)
(20.3409 0.000638074 0)
(19.9638 0.00271954 0)
(19.8678 0.00351741 0)
(19.8964 0.00390321 0)
(19.0226 0.00637762 0)
(17.9127 0.00923229 0)
(17.1068 0.00697645 0)
(17.0007 0.00239306 0)
(17.2431 5.42586e-05 0)
(17.2897 -0.00136499 0)
(17.4045 -0.00258551 0)
(17.3903 -0.000221976 0)
(17.0931 0.00111121 0)
(17.3216 0.000226422 0)
(17.1809 0.00341568 0)
(16.5955 0.00704828 0)
(16.1808 0.00575875 0)
(16.0503 0.00373623 0)
(15.8418 0.00145462 0)
(16.0685 -0.00385356 0)
(16.4688 -0.00859667 0)
(16.8996 -0.0112287 0)
(17.3913 -0.0143342 0)
(17.6792 -0.0157008 0)
(17.9425 -0.0139673 0)
(18.1513 -0.00533791 0)
(17.9666 0.00354337 0)
(18.1091 0.00784294 0)
(18.3428 0.0151935 0)
(18.4901 0.0230107 0)
(18.7467 0.0174259 0)
(19.0931 -0.00462429 0)
(19.5001 -0.0324284 0)
(19.9279 -0.0590362 0)
(20.1715 -0.0640149 0)
(20.0531 -0.0255468 0)
(19.8711 0.0129219 0)
(19.719 0.0124426 0)
(19.9311 0.00573341 0)
(20.5021 -0.0140336 0)
(21.0006 -0.0465643 0)
(21.1837 -0.0463637 0)
(21.8419 -0.0868607 0)
(22.7375 -0.141395 0)
(23.2739 -0.294418 0)
(26.2389 0.0653577 0)
(22.2489 0.0106541 0)
(21.4723 0.00333615 0)
(20.8515 0.000659409 0)
(20.9644 -0.00153159 0)
(21.2117 -0.00110172 0)
(20.5392 -0.000765065 0)
(21.358 0.00114387 0)
(21.8532 0.00309535 0)
(21.9257 0.00274727 0)
(21.504 0.00369917 0)
(20.6656 0.00254829 0)
(20.5886 -0.000301621 0)
(20.9864 -0.00163299 0)
(21.506 -0.00227123 0)
(22.149 -0.00351671 0)
(22.9619 -0.0060685 0)
(23.9711 -0.00787169 0)
(24.4825 -0.00668408 0)
(24.6439 -0.00388154 0)
(24.7062 -0.00224925 0)
(24.6905 -0.00311638 0)
(24.4973 -0.00202452 0)
(23.7898 0.000830101 0)
(23.7071 0.00299878 0)
(23.4855 0.00398066 0)
(23.3065 0.00235067 0)
(23.1106 0.00308302 0)
(22.2539 0.00761713 0)
(21.0308 0.00954956 0)
(19.8976 0.0073173 0)
(18.8891 0.000976208 0)
(19.5032 -0.00831355 0)
(20.4518 -0.0100054 0)
(21.4349 -0.00137319 0)
(20.5283 9.20438e-05 0)
(20.6898 -0.00552252 0)
(21.4472 -0.00397987 0)
(22.2113 -0.00180014 0)
(22.7546 -0.00505806 0)
(23.1405 -0.00812407 0)
(23.2951 -0.00783012 0)
(23.1059 -0.00349458 0)
(22.9514 0.0022076 0)
(22.5958 0.00410307 0)
(22.4938 0.003668 0)
(22.5221 0.00648367 0)
(21.7646 0.0129368 0)
(20.6663 0.0158828 0)
(19.8925 0.0102162 0)
(19.7635 0.00195094 0)
(19.9541 -0.000974498 0)
(19.9917 -0.00200066 0)
(20.0955 -0.0028747 0)
(20.0416 0.00118458 0)
(19.7777 0.00149039 0)
(19.9275 4.03135e-06 0)
(19.803 0.00686813 0)
(19.2526 0.0120046 0)
(18.8482 0.00866797 0)
(18.6868 0.00565784 0)
(18.4801 0.00139636 0)
(18.6694 -0.00772189 0)
(19.0104 -0.0151436 0)
(19.4077 -0.0197181 0)
(19.8378 -0.0218186 0)
(20.1149 -0.0213914 0)
(20.365 -0.0189454 0)
(20.5536 -0.00606267 0)
(20.4671 0.00355548 0)
(20.5734 0.00335283 0)
(20.777 0.00942603 0)
(20.9789 0.0155686 0)
(21.3135 0.00631856 0)
(21.7017 -0.0176762 0)
(22.1038 -0.0453843 0)
(22.4118 -0.0679428 0)
(22.5886 -0.064826 0)
(22.5329 -0.0206627 0)
(22.4598 0.0175838 0)
(22.4192 0.0108935 0)
(22.5756 -0.00908598 0)
(22.9318 -0.0350395 0)
(23.2955 -0.0612228 0)
(23.515 -0.0677498 0)
(24.1032 -0.122064 0)
(24.656 -0.180193 0)
(25.414 -0.341127 0)
(29.8294 0.0790323 0)
(25.9356 0.0140509 0)
(25.1761 0.00435707 0)
(24.6044 0.0011237 0)
(24.4904 -0.00165833 0)
(24.5699 -0.00059271 0)
(23.7838 -0.000760426 0)
(24.3417 -8.99273e-05 0)
(25.051 0.00223888 0)
(25.4116 0.00273518 0)
(25.4807 0.004371 0)
(25.4407 0.00287129 0)
(25.6536 -0.000849103 0)
(26.0115 -0.00255851 0)
(26.4334 -0.00342419 0)
(26.9029 -0.00494935 0)
(27.3122 -0.00788699 0)
(27.578 -0.00918316 0)
(27.6684 -0.00710986 0)
(27.6263 -0.00393976 0)
(27.5924 -0.00217213 0)
(27.525 -0.00261347 0)
(27.2516 -0.000432919 0)
(26.5641 0.00220765 0)
(26.4023 0.00350886 0)
(26.2466 0.00453379 0)
(26.1386 0.00293629 0)
(25.9692 0.00496345 0)
(25.2685 0.0115057 0)
(24.209 0.0142756 0)
(23.1267 0.0120369 0)
(22.0489 0.00217916 0)
(22.4218 -0.0112959 0)
(23.059 -0.0140356 0)
(23.8293 -0.00150347 0)
(23.1398 0.00185628 0)
(23.2122 -0.00770148 0)
(23.8327 -0.00798447 0)
(24.4997 -0.00548766 0)
(25.014 -0.00775054 0)
(25.3574 -0.00963287 0)
(25.4892 -0.00763093 0)
(25.325 -0.00237951 0)
(25.1996 0.00389487 0)
(24.8802 0.00568345 0)
(24.7734 0.00399264 0)
(24.7733 0.00916641 0)
(24.1442 0.0200584 0)
(23.1349 0.0234208 0)
(22.43 0.014002 0)
(22.2791 0.00183156 0)
(22.4116 -0.00191655 0)
(22.4452 -0.00268794 0)
(22.5339 -0.00299773 0)
(22.4542 0.00282811 0)
(22.2309 0.00216014 0)
(22.3163 6.63294e-05 0)
(22.1997 0.0105629 0)
(21.7311 0.0174602 0)
(21.3648 0.0122259 0)
(21.1828 0.00811857 0)
(20.9872 0.00163299 0)
(21.1207 -0.0114073 0)
(21.3838 -0.0217998 0)
(21.7184 -0.0284533 0)
(22.0744 -0.0297421 0)
(22.3218 -0.0277927 0)
(22.5486 -0.0243619 0)
(22.7065 -0.00798202 0)
(22.7087 0.00248224 0)
(22.8062 -0.00081629 0)
(22.9518 0.00320635 0)
(23.1543 0.00598494 0)
(23.467 -0.00661791 0)
(23.8023 -0.0317825 0)
(24.143 -0.0583549 0)
(24.3876 -0.0768922 0)
(24.5498 -0.0675314 0)
(24.5749 -0.0200629 0)
(24.6171 0.0173106 0)
(24.6573 0.00748431 0)
(24.7668 -0.0201081 0)
(24.9683 -0.0512694 0)
(25.2225 -0.0767381 0)
(25.463 -0.0927006 0)
(25.9637 -0.15451 0)
(26.3001 -0.219068 0)
(26.8427 -0.382894 0)
(33.0662 0.0926363 0)
(29.3539 0.0180873 0)
(28.5181 0.00556955 0)
(28.0056 0.00182016 0)
(27.7284 -0.00145392 0)
(27.6439 0.000268734 0)
(26.8238 -0.000375488 0)
(27.1234 -0.00137822 0)
(27.7872 0.000917999 0)
(28.2299 0.00200405 0)
(28.4735 0.00394337 0)
(28.805 0.00229164 0)
(29.1722 -0.00167803 0)
(29.4592 -0.00351633 0)
(29.7396 -0.00446307 0)
(30.0146 -0.00592697 0)
(30.2395 -0.00846798 0)
(30.3011 -0.00932866 0)
(30.2412 -0.00688069 0)
(30.109 -0.00360351 0)
(30.0037 -0.00183614 0)
(29.8773 -0.0018426 0)
(29.5664 0.00143664 0)
(28.9303 0.00390402 0)
(28.7003 0.0042077 0)
(28.571 0.00499167 0)
(28.5155 0.00344446 0)
(28.382 0.00676194 0)
(27.8393 0.0153013 0)
(26.9889 0.0192122 0)
(26.0531 0.0175923 0)
(24.9352 0.00447202 0)
(25.0438 -0.0133144 0)
(25.4195 -0.017353 0)
(25.9686 -0.00170259 0)
(25.4961 0.00346602 0)
(25.5116 -0.00957571 0)
(25.973 -0.0118094 0)
(26.5013 -0.00926619 0)
(26.9415 -0.0106537 0)
(27.2372 -0.0113073 0)
(27.3646 -0.00753713 0)
(27.2393 -0.00131138 0)
(27.1342 0.00564977 0)
(26.857 0.00744774 0)
(26.745 0.00459248 0)
(26.7064 0.0119717 0)
(26.1921 0.0273929 0)
(25.3244 0.0314543 0)
(24.7043 0.0183009 0)
(24.5254 0.00217103 0)
(24.6038 -0.00269335 0)
(24.6362 -0.00334379 0)
(24.6985 -0.0029071 0)
(24.6103 0.00462058 0)
(24.4271 0.00305408 0)
(24.4719 0.000454561 0)
(24.3641 0.014286 0)
(23.9967 0.0229693 0)
(23.6908 0.016216 0)
(23.5083 0.0110279 0)
(23.3364 0.00221538 0)
(23.4227 -0.0146501 0)
(23.6147 -0.028131 0)
(23.874 -0.0369735 0)
(24.1564 -0.0377483 0)
(24.3642 -0.0345757 0)
(24.5567 -0.0298848 0)
(24.6764 -0.0110017 0)
(24.7391 -0.000136378 0)
(24.8463 -0.00502195 0)
(24.9564 -0.00307169 0)
(25.1373 -0.00396672 0)
(25.3923 -0.0193879 0)
(25.6563 -0.0453222 0)
(25.9102 -0.0706685 0)
(26.1092 -0.0861914 0)
(26.2516 -0.0728458 0)
(26.3288 -0.0242481 0)
(26.4436 0.0120628 0)
(26.547 0.00176927 0)
(26.6484 -0.0289405 0)
(26.7858 -0.0638897 0)
(26.9663 -0.0932463 0)
(27.2357 -0.119488 0)
(27.6088 -0.183114 0)
(27.8699 -0.255505 0)
(28.1287 -0.420467 0)
(35.8902 0.105842 0)
(32.4198 0.0228373 0)
(31.481 0.00708059 0)
(30.9912 0.00274157 0)
(30.6562 -0.000887894 0)
(30.4227 0.00148269 0)
(29.6278 0.000401428 0)
(29.7212 -0.00243991 0)
(30.23 -0.000537556 0)
(30.6556 0.000915523 0)
(30.9637 0.00286191 0)
(31.3937 0.00104287 0)
(31.7604 -0.00271099 0)
(32.0068 -0.00433881 0)
(32.2054 -0.00523356 0)
(32.3761 -0.00659675 0)
(32.5093 -0.00874869 0)
(32.4948 -0.00908157 0)
(32.3631 -0.00628423 0)
(32.174 -0.00294187 0)
(32.0102 -0.00119637 0)
(31.8326 -0.000777299 0)
(31.5106 0.00356573 0)
(30.9491 0.00594777 0)
(30.6733 0.00517788 0)
(30.5383 0.00543756 0)
(30.503 0.00389698 0)
(30.3873 0.00843934 0)
(29.969 0.0188385 0)
(29.3044 0.0240152 0)
(28.5384 0.0236693 0)
(27.4751 0.00798258 0)
(27.3794 -0.0141504 0)
(27.5516 -0.0197925 0)
(27.9047 -0.00194963 0)
(27.62 0.00482261 0)
(27.5976 -0.0110207 0)
(27.8992 -0.0151758 0)
(28.2865 -0.0128493 0)
(28.6377 -0.013547 0)
(28.8789 -0.0130556 0)
(28.9916 -0.00755515 0)
(28.892 -0.000272224 0)
(28.793 0.00744981 0)
(28.5611 0.00935883 0)
(28.4448 0.00553684 0)
(28.373 0.0149151 0)
(27.9609 0.0346021 0)
(27.2713 0.0396367 0)
(26.741 0.0231681 0)
(26.5281 0.00313634 0)
(26.5575 -0.00321935 0)
(26.5769 -0.00383693 0)
(26.602 -0.00255524 0)
(26.5174 0.00648712 0)
(26.3708 0.00410331 0)
(26.3879 0.00113108 0)
(26.2899 0.017821 0)
(26.02 0.0280642 0)
(25.7897 0.0202971 0)
(25.625 0.0141676 0)
(25.488 0.003045 0)
(25.5434 -0.0173349 0)
(25.6798 -0.0337646 0)
(25.8694 -0.0448375 0)
(26.0829 -0.0454868 0)
(26.2527 -0.0413068 0)
(26.4014 -0.0351479 0)
(26.4909 -0.0149223 0)
(26.5825 -0.00439218 0)
(26.6985 -0.00997269 0)
(26.8056 -0.00988479 0)
(26.9647 -0.0139306 0)
(27.1636 -0.0312415 0)
(27.359 -0.0573933 0)
(27.5318 -0.0816284 0)
(27.6808 -0.0950672 0)
(27.794 -0.0797924 0)
(27.8943 -0.0322925 0)
(28.0362 0.00232819 0)
(28.1782 -0.00716311 0)
(28.3003 -0.038422 0)
(28.4301 -0.0759183 0)
(28.5792 -0.111314 0)
(28.8476 -0.146244 0)
(29.0883 -0.20782 0)
(29.3224 -0.283383 0)
(29.4395 -0.453982 0)
(38.2943 0.118436 0)
(35.1128 0.0283531 0)
(34.094 0.00902601 0)
(33.5957 0.00387079 0)
(33.2585 2.56958e-05 0)
(32.9095 0.00307871 0)
(32.1711 0.00155184 0)
(32.1173 -0.00314977 0)
(32.4429 -0.00189821 0)
(32.7834 -0.000328852 0)
(33.0926 0.00145617 0)
(33.5061 -0.000454395 0)
(33.8172 -0.00382576 0)
(34.0154 -0.00512384 0)
(34.155 -0.00584639 0)
(34.2546 -0.00705301 0)
(34.3108 -0.00881709 0)
(34.2487 -0.00858266 0)
(34.0796 -0.00538548 0)
(33.8607 -0.00194885 0)
(33.6635 -0.000204766 0)
(33.4603 0.000621987 0)
(33.1502 0.00595226 0)
(32.6622 0.00831525 0)
(32.3695 0.00647134 0)
(32.222 0.00597521 0)
(32.184 0.00438115 0)
(32.0701 0.0100704 0)
(31.742 0.0221603 0)
(31.2246 0.0286181 0)
(30.6085 0.0300172 0)
(29.6804 0.0125414 0)
(29.4547 -0.0137826 0)
(29.4818 -0.0212779 0)
(29.6767 -0.0021836 0)
(29.5242 0.00591399 0)
(29.4707 -0.011891 0)
(29.6342 -0.0178408 0)
(29.8932 -0.0160139 0)
(30.1527 -0.0162297 0)
(30.329 -0.014719 0)
(30.4137 -0.00760107 0)
(30.3299 0.000812422 0)
(30.2344 0.00929826 0)
(30.0489 0.0113965 0)
(29.9315 0.00688658 0)
(29.8377 0.0179932 0)
(29.5187 0.041362 0)
(29.0101 0.0475755 0)
(28.5679 0.0286273 0)
(28.3285 0.00489918 0)
(28.3166 -0.00331424 0)
(28.3086 -0.00395355 0)
(28.2983 -0.00187686 0)
(28.2201 0.00840208 0)
(28.1014 0.00531028 0)
(28.0958 0.0021015 0)
(28.0047 0.0210725 0)
(27.8153 0.0324535 0)
(27.6592 0.0241399 0)
(27.5209 0.0172446 0)
(27.4224 0.00390136 0)
(27.4585 -0.0195331 0)
(27.552 -0.0385239 0)
(27.6842 -0.0516408 0)
(27.8357 -0.0525498 0)
(27.9693 -0.0475232 0)
(28.0734 -0.0399543 0)
(28.1498 -0.0195936 0)
(28.2491 -0.0100136 0)
(28.362 -0.0160451 0)
(28.4785 -0.0177741 0)
(28.6266 -0.0241124 0)
(28.7816 -0.0421027 0)
(28.9231 -0.0676793 0)
(29.0424 -0.0908903 0)
(29.1431 -0.102937 0)
(29.2289 -0.0874279 0)
(29.3322 -0.0430312 0)
(29.4802 -0.0111032 0)
(29.6366 -0.0197707 0)
(29.7779 -0.0506502 0)
(29.9101 -0.090138 0)
(30.0659 -0.131553 0)
(30.2832 -0.171235 0)
(30.4457 -0.23017 0)
(30.6275 -0.307117 0)
(30.7064 -0.479354 0)
(40.2682 0.130076 0)
(37.4588 0.0346176 0)
(36.3768 0.0115309 0)
(35.8643 0.00526003 0)
(35.5194 0.00130331 0)
(35.0953 0.00509398 0)
(34.407 0.00308466 0)
(34.2548 -0.00338876 0)
(34.401 -0.00293023 0)
(34.6158 -0.00152088 0)
(34.8689 -1.70709e-06 0)
(35.1964 -0.00192662 0)
(35.4296 -0.0048709 0)
(35.5747 -0.00580932 0)
(35.6635 -0.00629493 0)
(35.7096 -0.00728886 0)
(35.7091 -0.00865408 0)
(35.6172 -0.00784883 0)
(35.4391 -0.00421383 0)
(35.2192 -0.000651352 0)
(35.0142 0.00110098 0)
(34.8072 0.00229001 0)
(34.5237 0.00851624 0)
(34.1006 0.0109343 0)
(33.8137 0.00808344 0)
(33.662 0.00669412 0)
(33.6123 0.00499885 0)
(33.4973 0.0117278 0)
(33.2355 0.025309 0)
(32.8338 0.0330148 0)
(32.3449 0.0363842 0)
(31.5816 0.0178076 0)
(31.2892 -0.0123006 0)
(31.2244 -0.0217867 0)
(31.3003 -0.00225862 0)
(31.2123 0.00685427 0)
(31.1363 -0.0120886 0)
(31.1923 -0.0196096 0)
(31.3416 -0.0185447 0)
(31.5148 -0.0184897 0)
(31.6265 -0.016107 0)
(31.6794 -0.0075499 0)
(31.6091 0.00200192 0)
(31.5196 0.0111845 0)
(31.3766 0.0135369 0)
(31.2613 0.00866947 0)
(31.1546 0.0211335 0)
(30.9181 0.0473481 0)
(30.562 0.0549004 0)
(30.2032 0.0345665 0)
(29.9597 0.00753619 0)
(29.9154 -0.00276719 0)
(29.8765 -0.00347339 0)
(29.8404 -0.000770653 0)
(29.7657 0.0104444 0)
(29.6625 0.00676016 0)
(29.6392 0.00341705 0)
(29.5529 0.0240272 0)
(29.4252 0.0360123 0)
(29.3257 0.0275013 0)
(29.2178 0.0200141 0)
(29.1538 0.00462405 0)
(29.1782 -0.0213136 0)
(29.2389 -0.0423388 0)
(29.324 -0.0571184 0)
(29.4213 -0.058586 0)
(29.518 -0.0529374 0)
(29.5874 -0.0443817 0)
(29.6601 -0.0249496 0)
(29.7564 -0.0166429 0)
(29.8583 -0.0232644 0)
(29.9737 -0.0267497 0)
(30.107 -0.0344491 0)
(30.231 -0.0522357 0)
(30.3402 -0.0767468 0)
(30.4325 -0.0989508 0)
(30.5087 -0.110159 0)
(30.5815 -0.0956738 0)
(30.6804 -0.0558451 0)
(30.8263 -0.0275059 0)
(30.982 -0.0359435 0)
(31.1269 -0.0666316 0)
(31.2603 -0.107755 0)
(31.4239 -0.152933 0)
(31.575 -0.193665 0)
(31.7077 -0.251801 0)
(31.8564 -0.33187 0)
(31.9234 -0.499935 0)
(41.7951 0.14023 0)
(39.4931 0.0415402 0)
(38.3502 0.0147679 0)
(37.8044 0.00706205 0)
(37.4252 0.00302235 0)
(36.9569 0.00756258 0)
(36.308 0.0050426 0)
(36.0749 -0.00303769 0)
(36.0605 -0.00342115 0)
(36.1482 -0.00241635 0)
(36.3085 -0.00124992 0)
(36.524 -0.00317051 0)
(36.6794 -0.0057384 0)
(36.7747 -0.00634254 0)
(36.8218 -0.00656911 0)
(36.8333 -0.00731032 0)
(36.803 -0.00826406 0)
(36.6999 -0.00691133 0)
(36.5302 -0.00284151 0)
(36.3264 0.00087225 0)
(36.1296 0.0026464 0)
(35.9328 0.00415075 0)
(35.6823 0.0112072 0)
(35.3204 0.0137625 0)
(35.0522 0.00997904 0)
(34.9013 0.00765239 0)
(34.8351 0.00582921 0)
(34.7205 0.0134523 0)
(34.5084 0.028302 0)
(34.1969 0.0371775 0)
(33.8143 0.0425073 0)
(33.2145 0.0234244 0)
(32.9038 -0.00989052 0)
(32.7888 -0.0213442 0)
(32.7774 -0.00193276 0)
(32.7019 0.00788686 0)
(32.6118 -0.0115897 0)
(32.5953 -0.0204125 0)
(32.6562 -0.020259 0)
(32.7544 -0.0201313 0)
(32.8116 -0.0170527 0)
(32.8343 -0.0073168 0)
(32.7749 0.00329498 0)
(32.6926 0.0130713 0)
(32.5825 0.015725 0)
(32.4748 0.0108619 0)
(32.3628 0.0242478 0)
(32.1955 0.0524232 0)
(31.9494 0.0614558 0)
(31.6677 0.0407331 0)
(31.4453 0.0109715 0)
(31.3763 -0.00143097 0)
(31.3148 -0.00227113 0)
(31.2605 0.000852116 0)
(31.1853 0.0127223 0)
(31.0903 0.00856977 0)
(31.0542 0.00514951 0)
(30.9741 0.0267039 0)
(30.8917 0.0387637 0)
(30.8294 0.0302831 0)
(30.7534 0.0222929 0)
(30.7168 0.00511679 0)
(30.7339 -0.0226767 0)
(30.7694 -0.0451092 0)
(30.8167 -0.0610928 0)
(30.8713 -0.0633161 0)
(30.9342 -0.0574608 0)
(30.9836 -0.048651 0)
(31.0507 -0.0309228 0)
(31.1369 -0.0239625 0)
(31.2282 -0.0312969 0)
(31.33 -0.0363819 0)
(31.4373 -0.0448386 0)
(31.5401 -0.0621256 0)
(31.6325 -0.0856122 0)
(31.713 -0.106963 0)
(31.7857 -0.117843 0)
(31.8596 -0.10524 0)
(31.9547 -0.0706273 0)
(32.0917 -0.0465883 0)
(32.239 -0.055453 0)
(32.3799 -0.0863748 0)
(32.52 -0.128711 0)
(32.6632 -0.174459 0)
(32.7729 -0.215471 0)
(32.8975 -0.274584 0)
(33.0531 -0.359782 0)
(33.1078 -0.518959 0)
(42.8899 0.148425 0)
(41.2101 0.0488285 0)
(40.0499 0.0189294 0)
(39.4241 0.0095514 0)
(38.9832 0.00532184 0)
(38.4907 0.0104852 0)
(37.8916 0.00748944 0)
(37.5857 -0.00200904 0)
(37.4496 -0.00325695 0)
(37.4297 -0.00282745 0)
(37.4906 -0.00209673 0)
(37.6032 -0.00407908 0)
(37.6902 -0.00637543 0)
(37.7411 -0.00668815 0)
(37.7552 -0.00666123 0)
(37.7437 -0.00714546 0)
(37.699 -0.00768847 0)
(37.5963 -0.00581332 0)
(37.4425 -0.00132634 0)
(37.2612 0.00256271 0)
(37.0811 0.0043829 0)
(36.9017 0.00617111 0)
(36.684 0.0140017 0)
(36.3809 0.0167658 0)
(36.1386 0.0121386 0)
(35.9905 0.00890166 0)
(35.9053 0.00693682 0)
(35.7913 0.0152827 0)
(35.6157 0.0311733 0)
(35.3728 0.0410944 0)
(35.0756 0.048196 0)
(34.6241 0.0291102 0)
(34.3288 -0.00671496 0)
(34.187 -0.019951 0)
(34.1107 -0.000964109 0)
(34.0259 0.00926728 0)
(33.9227 -0.0104282 0)
(33.8692 -0.0202853 0)
(33.865 -0.0210295 0)
(33.9007 -0.021004 0)
(33.9142 -0.0174361 0)
(33.9101 -0.00683969 0)
(33.8573 0.00468951 0)
(33.7819 0.0149632 0)
(33.6948 0.0179337 0)
(33.6009 0.0133609 0)
(33.4948 0.0272745 0)
(33.3783 0.0567067 0)
(33.203 0.0672673 0)
(32.9904 0.0467963 0)
(32.8049 0.0150095 0)
(32.7189 0.000750046 0)
(32.645 -0.000303325 0)
(32.5774 0.00304914 0)
(32.5017 0.0152913 0)
(32.417 0.0108352 0)
(32.3693 0.00735902 0)
(32.2979 0.0291308 0)
(32.2453 0.0408574 0)
(32.2059 0.0324933 0)
(32.1585 0.0239433 0)
(32.1426 0.00532279 0)
(32.1548 -0.0236598 0)
(32.1722 -0.0468314 0)
(32.1932 -0.0635173 0)
(32.2191 -0.0666188 0)
(32.2572 -0.0611679 0)
(32.297 -0.0528561 0)
(32.3539 -0.0373141 0)
(32.4267 -0.031734 0)
(32.5079 -0.0397155 0)
(32.592 -0.0461449 0)
(32.6758 -0.0551726 0)