/*--------------------------------*- C++ -*----------------------------------*\
  =========                 |
  \\      /  F ield         | OpenFOAM: The Open Source CFD Toolbox
   \\    /   O peration     | Website:  https://openfoam.org
    \\  /    A nd           | Version:  8
     \\/     M anipulation  |
\*---------------------------------------------------------------------------*/
FoamFile
{
    version     2.0;
    format      ascii;
    class       volScalarField;
    location    "60";
    object      p;
}
// * * * * * * * * * * * * * * * * * * * * * * * * * * * * * * * * * * * * * //

dimensions      [0 2 -2 0 0 0 0];

internalField   nonuniform List<scalar> 
404911
(
13.8963
13.8853
13.8796
13.8836
13.9256
13.8956
13.8836
13.8836
13.8865
13.8851
14.0554
14.0343
14.0006
13.9533
13.9144
13.8981
14.0965
14.0682
14.0455
14.0106
14.1677
14.1222
14.0839
14.2319
14.2009
14.1534
14.2743
14.2414
14.223
14.3843
14.3373
14.2911
14.25
14.2264
14.4029
14.3572
14.3093
14.5739
14.5135
14.4656
14.4027
14.624
14.5916
14.542
14.4995
14.4454
14.6518
14.6128
14.576
14.5268
14.724
14.6808
14.6362
14.6031
14.7348
14.7052
14.9278
13.8901
13.9134
13.8947
14.0322
13.9985
14.1051
14.0701
14.0455
14.1701
14.124
14.09
14.2289
14.1986
14.2735
14.2405
14.2144
14.341
14.2926
14.2568
14.2282
14.4079
14.3649
14.5035
14.4568
14.587
14.5403
14.4958
14.6584
14.6146
14.7222
14.6837
14.6479
14.7343
14.711
14.9319
14.9625
14.9332
15.073
15.0243
14.9851
15.1414
15.1016
15.0478
15.1912
15.159
15.1354
15.1845
7.36186
7.28841
7.2316
7.73783
7.66161
7.52521
7.48637
7.39088
7.31108
7.28158
7.24131
7.92326
7.84289
7.685
7.60129
7.49975
7.41126
7.3129
7.2746
7.06878
8.16169
8.0772
8.00239
7.92564
7.86901
7.8391
7.73986
7.64107
7.51122
7.41015
7.35023
7.25805
7.1496
7.06142
7.05042
7.0317
8.35012
8.27508
8.19063
8.10896
8.02428
7.93354
7.86193
7.82779
7.76958
7.65944
7.55748
7.45317
7.40575
7.25474
7.06596
8.54169
8.46304
8.39412
8.31215
8.23192
8.14996
8.06457
7.9677
7.87233
7.81248
7.74818
7.68117
7.60875
7.50954
7.48145
8.66523
8.58466
8.5142
8.44656
8.37129
8.28647
8.20173
8.10913
8.01359
7.92062
7.83293
7.77167
7.69875
7.62512
7.54228
7.48982
8.87624
8.78488
8.70608
8.62663
8.55281
8.48054
8.40509
8.3287
8.23914
8.14144
8.05654
7.95951
7.87026
7.79627
7.72651
7.653
7.58194
9.10014
9.04337
8.98334
8.91183
8.82378
8.73618
8.6635
8.58887
8.51192
8.43517
8.36705
8.28284
8.18502
8.09522
8.00574
7.91451
7.83928
7.75466
9.19905
9.14681
9.08234
9.01999
8.94989
8.86706
8.77784
8.69528
8.62129
8.54225
8.47145
8.40877
8.29825
8.23021
8.14411
8.05391
7.97685
7.90795
9.38995
9.31412
9.24878
9.18726
9.12504
9.05239
8.98245
8.89835
8.81441
8.73879
8.65318
8.58569
8.51305
8.44556
8.35509
8.27353
8.19601
8.11662
9.54178
9.43009
9.35224
9.28952
9.23033
9.15889
9.08764
9.01156
8.93897
8.86072
8.78027
8.69597
8.6217
8.55446
8.4881
8.39506
8.26525
9.77053
9.65361
9.54289
9.46477
9.40254
9.33871
9.27522
9.20567
9.12775
9.053
8.9727
8.89609
8.81516
8.73526
8.65577
8.58463
8.52044
9.91387
9.85124
9.77991
9.7024
9.60709
9.52797
9.44835
9.38708
9.32061
9.25943
9.1852
9.09453
9.01231
8.92637
8.85242
8.77248
8.69564
8.638
10.0666
10.0152
9.942
9.88469
9.80437
9.74418
9.65776
9.58042
9.49407
9.42705
9.38117
9.30213
9.21678
9.13452
9.05064
8.96225
8.88696
8.82338
10.1818
10.1475
10.0947
10.0435
9.98113
9.90459
9.83026
9.76811
9.69686
9.61545
9.52403
9.44567
9.4026
9.33544
9.23766
9.16359
9.09758
8.99914
10.3053
10.2115
10.1504
10.1002
10.0575
10.0086
9.92362
9.85395
9.78154
9.71701
9.63191
9.55016
9.47787
9.42313
9.35737
9.27006
9.20265
9.12584
10.4629
10.3942
10.317
10.2414
10.1798
10.1094
10.0674
10.0194
9.94286
9.87723
9.79984
9.74832
9.67167
9.58919
9.49772
9.44378
9.36534
9.29535
10.5602
10.4956
10.4281
10.3638
10.2853
10.2107
10.1533
10.0916
10.0175
9.95798
9.8976
9.83752
9.77116
9.69708
9.6192
9.51264
9.46085
9.41395
10.7049
10.6636
10.5998
10.5411
10.467
10.4033
10.3247
10.2531
10.1822
10.1165
10.0346
9.97933
9.92384
9.86317
9.80791
9.71874
9.62275
9.49177
10.812
10.7447
10.6922
10.6472
10.5851
10.5088
10.4303
10.3614
10.2934
10.214
10.1503
10.0604
10.002
9.94221
9.89374
9.83187
9.75903
10.9011
10.8591
10.8075
10.767
10.7301
10.6898
10.6263
10.558
10.4801
10.4001
10.324
10.2493
10.1796
10.0933
10.0321
9.97319
9.92703
9.85738
11.0028
10.922
10.8823
10.8333
10.7868
10.7511
10.7132
10.6624
10.6052
10.5347
10.4507
10.3704
10.2843
10.2127
10.1329
10.0527
9.9908
9.94151
11.0451
11.0016
10.946
10.904
10.8523
10.8073
10.7662
10.7362
10.6753
10.6293
10.5798
10.5038
10.4112
10.3206
10.2487
10.1901
10.0901
10.024
11.2054
11.1273
11.0631
11.0109
10.9685
10.9295
10.8925
10.8394
10.7857
10.747
10.6985
10.6489
10.5958
10.5405
10.4511
10.3606
10.2877
10.1749
11.314
11.2659
11.2092
11.1517
11.0914
11.0347
10.9866
10.9484
10.9116
10.8702
10.8168
10.7784
10.7169
10.6731
10.6165
10.5626
10.4858
10.4007
11.4206
11.3452
11.2863
11.2267
11.1649
11.1054
11.061
11.0216
10.9759
10.9255
10.8854
10.846
10.8045
10.7437
10.7036
10.6452
10.5925
10.4914
11.5278
11.4857
11.4335
11.3762
11.3165
11.2533
11.1859
11.1212
11.0803
11.0555
11.0196
10.9672
10.9148
10.8653
10.8276
10.7784
10.7037
10.6835
11.606
11.5638
11.5138
11.46
11.4058
11.3483
11.2863
11.2138
11.1406
11.0907
11.0624
11.0366
10.9999
10.9535
10.896
10.8552
10.8085
10.7581
11.6539
11.6257
11.5939
11.5455
11.4913
11.4376
11.3836
11.3239
11.2518
11.1752
11.1123
11.0732
11.0472
11.016
10.9791
10.9224
10.8706
10.8088
11.7179
11.6733
11.6467
11.6137
11.5716
11.5217
11.4659
11.4161
11.3604
11.2937
11.2195
11.1508
11.0994
11.0644
11.031
10.9927
10.9447
10.9132
11.801
11.7848
11.7485
11.7103
11.678
11.6266
11.5872
11.5469
11.5001
11.4493
11.3908
11.3319
11.2642
11.1961
11.1389
11.0961
11.0597
10.9925
11.9055
11.8478
11.7973
11.7666
11.7351
11.6975
11.6492
11.6005
11.5583
11.5218
11.4725
11.416
11.3625
11.3032
11.237
11.1772
11.1275
11.0885
11.9669
11.9247
11.8791
11.8344
11.7916
11.7614
11.7277
11.6801
11.6224
11.5737
11.532
11.4867
11.4394
11.3883
11.3369
11.2791
11.2232
11.1851
12.008
11.9799
11.9465
11.9082
11.8682
11.8293
11.7969
11.7568
11.7147
11.6571
11.5985
11.5534
11.5101
11.4641
11.4117
11.3599
11.3108
12.1307
12.0848
12.0431
12.0077
11.9674
11.9297
11.8959
11.8625
11.8285
11.7814
11.7432
11.6943
11.6359
11.5827
11.5369
11.488
11.4372
11.3707
12.2139
12.1511
12.1111
12.0777
12.0332
11.9926
11.9512
11.9173
11.8832
11.8489
11.8023
11.7679
11.7276
11.6704
11.6154
11.568
11.5102
11.4741
12.255
12.2075
12.1612
12.1269
12.0952
12.0619
12.0247
11.9875
11.9485
11.9112
11.8768
11.8354
11.7892
11.75
11.6974
11.6465
11.6066
11.5569
12.3741
12.3218
12.2779
12.2258
12.1741
12.1381
12.116
12.09
12.0541
12.0107
11.9772
11.9346
11.8967
11.8559
11.8054
11.7666
11.7154
11.6691
12.4252
12.3826
12.342
12.2925
12.2438
12.1905
12.147
12.1291
12.1187
12.0804
12.0367
11.9958
11.9581
11.9226
11.8835
11.8306
11.7857
11.7132
12.5081
12.4529
12.4072
12.3659
12.3171
12.2651
12.212
12.1638
12.1375
12.127
12.1086
12.0626
12.0251
11.9847
11.9512
11.9127
11.8524
11.8143
12.566
12.5346
12.4856
12.4411
12.3965
12.3446
12.2907
12.2377
12.1873
12.1546
12.1397
12.12
12.0837
12.0505
12.0108
11.9746
11.9379
11.879
12.6575
12.615
12.5667
12.5204
12.473
12.4277
12.374
12.3165
12.2676
12.2198
12.1757
12.1537
12.1339
12.1047
12.0751
12.0427
11.9987
12.7802
12.7302
12.6825
12.6332
12.5889
12.5468
12.5024
12.4577
12.4052
12.3437
12.2988
12.2662
12.2196
12.184
12.1554
12.1291
12.1018
12.0681
12.8285
12.7893
12.7494
12.7086
12.6607
12.6154
12.5715
12.5301
12.4842
12.4371
12.377
12.3263
12.2988
12.2688
12.2173
12.181
12.1497
12.1271
12.8949
12.8548
12.8116
12.7718
12.7256
12.6808
12.6418
12.6058
12.5619
12.5122
12.4618
12.4076
12.3517
12.3162
12.2886
12.2468
12.2041
12.174
12.9587
12.926
12.8857
12.8398
12.7972
12.7494
12.7009
12.6596
12.6289
12.5941
12.5453
12.4848
12.4362
12.3818
12.3391
12.3106
12.2683
12.2325
13.0431
13.0003
12.9584
12.9181
12.8736
12.8274
12.7785
12.7275
12.6793
12.6442
12.6061
12.5613
12.5142
12.467
12.4157
12.3705
12.3396
12.2808
13.109
13.0714
13.0356
12.9964
12.9548
12.9088
12.862
12.8153
12.7657
12.7149
12.6686
12.6283
12.587
12.543
12.4985
12.4497
12.4095
12.3649
13.1621
13.1282
13.0959
13.0677
13.0331
12.9918
12.945
12.899
12.8545
12.8083
12.7612
12.7077
12.6594
12.6143
12.5696
12.5246
12.4783
12.4255
13.2124
13.1776
13.1499
13.1177
13.0918
13.0575
13.0201
12.9769
12.9296
12.8852
12.8418
12.8003
12.7511
12.6982
12.6488
12.5985
12.5511
12.5245
13.3078
13.2691
13.2286
13.1979
13.1723
13.1428
13.1148
13.0699
13.0352
13.0011
12.9694
12.9271
12.886
12.8308
12.7851
12.7347
12.6849
12.635
12.5861
13.3493
13.3211
13.2841
13.2488
13.2101
13.1867
13.1687
13.1359
13.0893
13.0524
13.0188
12.9883
12.9505
12.91
12.8562
12.8102
12.7663
12.7196
13.3835
13.337
13.2972
13.2552
13.2166
13.1912
13.1794
13.1532
13.1044
13.0625
13.0278
12.9893
12.9641
12.9275
12.8768
12.8278
12.7915
13.4822
13.454
13.4113
13.3625
13.3179
13.2742
13.2321
13.2025
13.1875
13.1629
13.1159
13.0775
13.0398
13.0019
12.9792
12.9456
12.8981
12.8522
13.5642
13.5095
13.4723
13.4312
13.3867
13.3425
13.2996
13.2581
13.2243
13.2026
13.1714
13.1262
13.0954
13.0568
13.0248
12.9948
12.9611
12.8931
13.6312
13.5956
13.5436
13.4953
13.4522
13.4101
13.3716
13.3301
13.2833
13.248
13.2212
13.1879
13.1496
13.1174
13.0797
13.0434
13.0136
12.9859
13.6733
13.6317
13.5759
13.5226
13.4755
13.4339
13.4001
13.367
13.3185
13.2833
13.2429
13.2087
13.1744
13.1396
13.1021
13.066
13.0346
13.7507
13.7104
13.6615
13.6083
13.5535
13.5028
13.4601
13.4278
13.396
13.3452
13.3075
13.266
13.2317
13.1966
13.1635
13.1278
13.0943
13.8199
13.789
13.7668
13.7321
13.6857
13.637
13.584
13.5322
13.4866
13.453
13.4172
13.3701
13.3281
13.2939
13.255
13.2213
13.187
13.15
13.8507
13.8204
13.8057
13.7827
13.749
13.7121
13.6645
13.6159
13.5706
13.5193
13.4827
13.4361
13.3981
13.3564
13.317
13.2735
13.2503
13.8956
13.864
13.8337
13.8191
13.7964
13.7706
13.7365
13.6896
13.6438
13.6028
13.551
13.5086
13.4593
13.4224
13.3809
13.3421
13.2925
14.0206
13.9777
13.9337
13.8992
13.8622
13.8355
13.8114
13.7865
13.744
13.705
13.664
13.6192
13.577
13.538
13.4864
13.4434
13.4017
13.3558
14.0669
14.0355
13.9946
13.9596
13.9255
13.8912
13.8557
13.818
13.7892
13.7494
13.7286
13.6896
13.6339
13.6006
13.5675
13.5216
13.4734
13.4308
14.1069
14.0738
14.0529
14.0199
13.9834
13.9455
13.9088
13.8694
13.8356
13.801
13.7695
13.7385
13.7065
13.6695
13.6265
13.5862
13.5442
13.5003
14.196
14.1461
14.0991
14.067
14.0366
14.0015
13.9604
13.9218
13.889
13.8547
13.8197
13.7829
13.7495
13.7197
13.6881
13.6476
13.6055
13.5691
14.2863
14.2407
14.201
14.1715
14.1257
14.0839
14.0516
14.0162
13.9815
13.9394
13.9015
13.8706
13.8359
13.7956
13.7569
13.727
13.6889
13.6443
13.6274
14.3077
14.2784
14.2489
14.2207
14.1918
14.1511
14.1057
14.0668
14.0346
13.9967
13.9523
13.9121
13.8819
13.848
13.8069
13.7687
13.7403
13.6945
13.666
14.3154
14.2979
14.267
14.2397
14.2098
14.1692
14.128
14.0867
14.0466
14.0089
13.9652
13.9297
13.896
13.8641
13.8249
13.7849
13.7566
13.7258
14.3888
14.3564
14.3271
14.2889
14.2546
14.2193
14.1826
14.1502
14.1101
14.0674
14.0338
13.9908
13.9541
13.9177
13.8834
13.845
13.805
14.4655
14.4223
14.3848
14.3485
14.3087
14.2744
14.2398
14.2012
14.1687
14.1308
14.0899
14.055
14.0148
13.9789
13.9424
13.9112
13.8499
14.5723
14.5118
14.4636
14.4164
14.3776
14.3372
14.2982
14.2633
14.2302
14.194
14.1548
14.1137
14.0784
14.0408
14.0001
13.9666
13.9295
14.6988
14.6548
14.6051
14.5449
14.5016
14.4551
14.4142
14.3709
14.3261
14.2922
14.258
14.2181
14.1787
14.1384
14.1031
14.0687
14.0324
13.9983
14.775
14.7317
14.68
14.6365
14.5888
14.5422
14.4936
14.4504
14.4064
14.3579
14.3244
14.2904
14.2498
14.2065
14.158
14.1212
14.0908
14.8423
14.7961
14.755
14.7122
14.6731
14.6267
14.5822
14.5376
14.4909
14.4399
14.3889
14.3458
14.3093
14.2726
14.2325
14.1815
14.1472
14.9043
14.8687
14.8254
14.7858
14.7387
14.7
14.6535
14.6129
14.5683
14.519
14.4662
14.4187
14.3731
14.3285
14.2941
14.2582
14.2021
14.9989
14.9457
14.9013
14.854
14.8135
14.7622
14.7233
14.6838
14.6416
14.5888
14.5373
14.4893
14.4387
14.3944
14.3492
14.3197
14.277
15.0726
15.0275
14.9789
14.9376
14.8971
14.8532
14.7969
14.7491
14.7081
14.6631
14.6168
14.5634
14.508
14.4634
14.4131
14.3694
14.3375
15.1472
15.0996
15.0494
15.006
14.9668
14.9258
14.8855
14.8331
14.7734
14.7295
14.6872
14.6369
14.5875
14.5339
14.4942
14.4362
14.3996
15.1731
15.1237
15.077
15.0372
14.9936
14.9509
14.9108
14.8691
14.8084
14.7561
14.7096
14.666
14.6179
14.5592
14.5302
14.4749
15.2703
15.215
15.1506
15.1018
15.0602
15.0242
14.981
14.9406
14.8963
14.8489
14.7909
14.7383
14.6924
14.64
14.5942
15.4227
15.3578
15.3156
15.2458
15.1799
15.1359
15.0947
15.0617
15.0178
14.9617
14.9148
14.8739
14.8294
14.7727
14.7243
14.6616
15.5248
15.4679
15.425
15.3672
15.2999
15.2195
15.1736
15.128
15.0852
15.0474
14.9984
14.9444
14.9064
14.863
14.8105
14.7468
15.6773
15.5937
15.5294
15.4658
15.4175
15.3614
15.2933
15.2154
15.1633
15.1247
15.08
15.0454
14.984
14.9409
14.8874
14.8408
15.9018
15.8175
15.7347
15.6531
15.5984
15.5453
15.4836
15.4284
15.3726
15.2929
15.2171
15.16
15.1022
15.0635
15.0175
14.9694
16.0185
15.9349
15.8692
15.7958
15.7117
15.6418
15.5978
15.5383
15.4844
15.4343
15.3838
15.2983
15.2107
15.1531
15.0964
15.0545
16.2063
16.1
16.0019
15.9207
15.8433
15.7712
15.6981
15.634
15.5807
15.531
15.4858
15.4582
15.3867
15.2908
15.2153
15.1478
16.3868
16.2644
16.1576
16.0506
15.9731
15.8968
15.8197
15.7391
15.6793
15.6182
15.5564
15.5108
15.4776
15.4324
15.3496
15.2743
16.5145
16.4175
16.3288
16.2349
16.1322
16.0318
15.9631
15.8779
15.7849
15.7127
15.6519
15.58
15.5358
15.5075
15.4524
15.3986
16.6243
16.5527
16.4743
16.3734
16.2869
16.1871
16.0991
16.0251
15.9548
15.8495
15.7569
15.7066
15.6507
15.5745
15.5372
16.7481
16.6784
16.5965
16.5121
16.4291
16.3342
16.251
16.1524
16.0781
16.0026
15.9255
15.8343
15.749
15.6877
15.6286
15.5834
16.8641
16.7872
16.7175
16.6382
16.5562
16.4625
16.3897
16.3084
16.2237
16.1339
16.0587
15.9752
15.8981
15.7937
15.7427
15.6785
16.9921
16.9103
16.8298
16.753
16.6756
16.5908
16.5093
16.4357
16.3575
16.2775
16.1946
16.1181
16.0367
15.95
15.8424
17.0225
16.9508
16.871
16.7921
16.7048
16.6359
16.5409
16.4757
16.4078
16.33
16.2429
16.165
16.0822
15.9816
17.1012
17.0589
16.9841
16.9002
16.82
16.7436
16.6701
16.5871
16.5151
16.4542
16.3756
16.2904
16.223
17.2312
17.1829
17.1275
17.0845
17.0159
16.9328
16.8493
16.7767
16.6966
16.6148
16.553
16.4879
16.4167
16.298
17.3636
17.2894
17.2339
17.1664
17.1085
17.0529
16.9671
16.8937
16.8144
16.7339
16.658
16.5896
16.526
16.4603
17.5396
17.4282
17.3428
17.2682
17.2197
17.154
17.0948
17.001
16.9335
16.8546
16.7723
16.6838
16.6189
16.589
17.6829
17.5902
17.4833
17.4049
17.3138
17.2558
17.2028
17.1266
17.0469
16.976
16.9105
16.8027
16.7252
16.6732
17.8447
17.7447
17.6481
17.5639
17.4781
17.3543
17.3023
17.2378
17.1661
17.0868
17.0125
16.9497
16.8713
16.788
17.9937
17.8877
17.7764
17.6893
17.605
17.5231
17.4265
17.362
17.288
17.2098
17.1293
17.0541
17.0014
17.7211
17.6552
17.5676
17.4751
17.3952
17.3445
17.2629
17.1679
17.0692
17.7389
17.6798
17.6067
17.5099
17.418
17.364
17.3112
17.2451
17.882
17.777
17.6938
17.6544
17.5614
17.4541
17.3867
18.0606
17.944
17.8329
17.7207
17.6464
17.5857
17.4906
17.9924
17.8778
17.7473
17.6596
17.6349
18.3213
18.1896
18.0167
17.9359
17.8171
17.7124
18.8584
18.8289
18.5219
18.4215
17.9603
18.9272
18.8554
18.7685
18.6933
18.6271
18.1545
19.1186
18.7301
18.612
18.5774
18.4898
19.1987
18.9926
18.7355
2.60772
2.53636
2.50072
3.2265
3.12628
2.97396
2.88917
2.79423
2.66146
2.5262
2.47758
1.90728
3.74217
3.66768
3.48462
3.37122
3.25295
3.1312
3.01564
2.91487
2.82152
2.6957
2.533
2.39221
2.25963
2.08005
1.98878
4.15613
4.06398
3.94152
3.76532
3.66157
3.52887
3.40074
3.2761
3.16031
3.03774
2.94889
2.82374
2.69479
2.56906
2.40531
2.23284
2.05833
1.91999
1.89151
1.66203
1.22315
0.899842
4.69827
4.63756
4.39493
4.23482
4.09569
3.95527
3.81873
3.6742
3.54733
3.4237
3.29515
3.16462
3.0618
3.03263
2.85781
2.73572
2.57685
2.45592
2.28586
2.09083
1.9436
1.81078
1.54869
5.29463
5.08321
4.96318
4.77507
4.61987
4.43231
4.29544
4.14973
4.02295
3.86283
3.71221
3.56388
3.44505
3.31319
3.15444
3.09548
3.12769
3.0349
2.79922
2.62413
2.48235
2.33285
2.15384
2.00666
1.81884
5.55101
5.38899
5.27413
5.14959
5.00831
4.79119
4.62669
4.5061
4.38348
4.26332
4.09765
3.9355
3.75651
3.59162
3.47415
3.35215
3.2116
3.1297
3.15218
3.04565
2.82518
2.63995
2.51339
2.37332
2.15061
5.74386
5.67718
5.56953
5.46354
5.30576
5.19077
5.0851
4.95626
4.78705
4.6379
4.48402
4.30787
4.17146
3.99654
3.82618
3.68079
3.53655
3.44016
3.27789
3.16198
3.12306
3.05441
2.79388
2.66221
2.50254
5.98736
5.88047
5.7866
5.69585
5.57549
5.46815
5.34173
5.24364
5.10587
4.98425
4.86338
4.70158
4.5502
4.39017
4.21848
4.10092
3.93778
3.79006
3.62558
3.48211
3.34313
3.20831
3.11643
3.02309
2.82795
6.38448
6.25262
6.13141
6.04148
5.93385
5.83856
5.71055
5.59039
5.49368
5.39234
5.29519
5.12513
4.99919
4.8926
4.76988
4.6172
4.44164
4.25858
4.11671
4.0275
3.84429
3.67963
3.53213
3.41389
3.28682
3.12795
6.76234
6.67352
6.52652
6.3918
6.28397
6.19444
6.09648
5.96516
5.85208
5.7473
5.63004
5.53302
5.42553
5.31696
5.18447
5.02133
4.87483
4.777
4.66776
4.41353
4.25595
4.14088
4.01422
3.90258
3.81556
3.60497
3.48068
6.86959
6.77899
6.66978
6.56803
6.45601
6.35328
6.21872
6.13047
6.02177
5.90724
5.80778
5.68695
5.57865
5.48708
5.36133
5.2435
5.08577
4.92175
4.78966
4.69324
4.49795
4.2474
4.20888
4.12763
4.04285
7.11402
7.04969
6.97668
6.9146
6.79963
6.6999
6.60969
6.5059
6.38978
6.28593
6.17743
6.06293
5.9587
5.84205
5.72944
5.61912
5.53144
5.40151
5.29374
5.14484
4.98439
4.84266
4.70525
4.52438
4.36884
7.24802
7.15997
7.08397
6.97997
6.91783
6.84566
6.73946
6.63962
6.53668
6.41922
6.31699
6.23127
6.10697
5.99855
5.88416
5.76558
5.66081
5.56974
5.43959
5.33108
5.19094
5.0322
4.8831
4.7227
7.54538
7.46233
7.36742
7.29918
7.19846
7.11093
7.0134
6.94422
6.8709
6.76132
6.66006
6.56349
6.46114
6.33472
6.26481
6.14134
6.03319
5.9195
5.80963
5.70533
5.60875
5.49441
5.37637
5.23241
5.03347
7.7809
7.65313
7.54817
7.48696
7.41373
7.32555
7.23528
7.15906
7.09229
7.00289
6.89825
6.78897
6.6879
6.58001
6.49721
6.41085
6.29192
6.17603
6.0645
5.95166
5.85541
5.76012
5.63232
5.53848
5.40324
7.95126
7.85848
7.78757
7.69815
7.60108
7.51422
7.4425
7.35604
7.27385
7.21258
7.16301
7.0631
6.94269
6.8256
6.70795
6.62488
6.52083
6.43289
6.33072
6.21516
6.09775
5.9993
5.89796
5.80691
5.70363
8.17495
8.12798
8.04047
7.96892
7.89201
7.82078
7.73453
7.65056
7.55294
7.46861
7.38815
7.30581
7.24057
7.19699
7.11379
6.99745
6.87239
6.74986
6.6673
6.56415
6.43171
6.35844
6.25359
6.1325
6.03868
5.92809
8.36787
8.33732
8.22147
8.13927
8.06379
7.99089
7.91749
7.85154
7.78698
7.6914
7.58674
7.49556
7.4176
7.32166
7.2436
7.18035
7.11316
7.03568
6.93229
6.80098
6.69921
6.61881
6.48884
6.3765
6.26925
6.15049
8.59949
8.49343
8.40475
8.33508
8.24647
8.1574
8.08157
8.00728
7.93049
7.86767
7.81714
7.73396
7.62536
7.53124
7.44214
7.35332
7.25904
7.18463
7.11074
7.03633
6.95183
6.81884
6.7129
6.63367
6.49854
6.38387
6.27402
8.71792
8.68348
8.60318
8.51727
8.43816
8.35108
8.26577
8.18875
8.11118
8.03263
7.94757
7.872
7.82041
7.75015
7.66227
7.57168
7.47776
7.39974
7.31751
7.22776
7.13039
7.053
6.95861
6.83869
6.7198
6.6366
6.49885
8.8939
8.78132
8.70901
8.62599
8.54354
8.46692
8.38373
8.29744
8.2152
8.13922
8.06216
7.97627
7.89066
7.82085
7.75883
7.68811
7.60361
7.51309
7.44483
7.38396
7.27578
7.18226
7.07556
6.97293
6.85479
6.71069
9.09813
8.97429
8.89257
8.81351
8.73095
8.65532
8.58162
8.49808
8.41396
8.32779
8.24412
8.16728
8.09261
8.0117
7.92616
7.84517
7.77701
7.70859
7.62942
7.54677
7.47586
7.38978
7.30387
7.2061
7.09448
6.97136
9.2215
9.14818
9.08447
9.01777
8.93688
8.85829
8.77374
8.69332
8.61916
8.5411
8.45756
8.37142
8.27789
8.2019
8.12699
8.04902
7.96537
7.88382
7.80807
7.737
7.66569
7.58742
7.49461
7.41674
7.33914
7.20495
9.34351
9.25139
9.1764
9.10405
9.0472
8.97921
8.89433
8.8114
8.73432
8.65865
8.58204
8.50171
8.41043
8.31331
8.23653
8.16427
8.08687
8.00502
7.9245
7.84773
7.77704
7.69884
7.62393
7.53327
7.44656
9.56601
9.45838
9.37505
9.28777
9.21725
9.15124
9.07908
9.01142
8.93851
8.85324
8.77083
8.6927
8.62021
8.53802
8.44915
8.3523
8.27704
8.20742
8.13135
8.05092
7.97124
7.89561
7.81665
7.73274
7.65325
7.57758
9.75092
9.67376
9.58405
9.4991
9.3993
9.32265
9.25832
9.1931
9.11759
9.04698
8.97217
8.88225
8.80545
8.72575
8.65722
8.57922
8.50531
8.40578
8.3269
8.25107
8.1798
8.10026
8.01222
7.93123
7.85809
7.77961
9.91495
9.85288
9.7798
9.71358
9.62198
9.52939
9.44119
9.36486
9.29989
9.23596
9.16244
9.08658
9.01055
8.92794
8.84786
8.76875
8.69437
8.61891
8.55184
8.46762
8.37834
8.2946
8.22164
8.13505
8.04354
7.97107
7.90587
10.0263
9.92738
9.88163
9.81282
9.73736
9.65031
9.56681
9.48407
9.40772
9.34386
9.27864
9.20493
9.12936
9.05342
8.96733
8.89042
8.81175
8.73253
8.65718
8.58498
8.51457
8.43138
8.34346
8.25786
8.17506
8.11896
10.1666
10.1089
10.0506
9.96721
9.90069
9.83605
9.76507
9.6873
9.60563
9.52738
9.45282
9.386
9.33235
9.26237
9.1797
9.08522
8.99457
8.92202
8.849
8.77288
8.69623
8.62514
8.57037
8.47549
8.36599
8.31723
10.2277
10.1807
10.1301
10.0797
10.0133
9.9374
9.86448
9.80008
9.72896
9.64869
9.57049
9.48533
9.42402
9.37923
9.30932
9.20343
9.11761
9.03735
8.95526
8.88543
8.81664
8.73249
8.65
8.58406
8.52376
10.3767
10.3209
10.2539
10.1907
10.1434
10.1031
10.0486
9.97427
9.88695
9.82632
9.76509
9.68829
9.59831
9.51952
9.45399
9.40009
9.32639
9.22393
9.15363
9.08131
9.00124
8.92793
8.84534
8.75404
8.64649
10.4838
10.4124
10.3477
10.2785
10.2164
10.159
10.1123
10.0657
10.0022
9.91214
9.83881
9.7838
9.71196
9.62904
9.55406
9.48109
9.42502
9.34408
9.26229
9.19122
9.13019
9.05868
8.97483
8.88011
8.84906
10.6403
10.5747
10.5094
10.4415
10.3775
10.311
10.2456
10.1865
10.1297
10.0778
10.0142
9.94066
9.86888
9.80655
9.73698
9.65764
9.57933
9.50147
9.44314
9.3751
9.29725
9.22854
9.15439
9.09329
9.00632
10.7577
10.6799
10.6189
10.5456
10.4781
10.41
10.3461
10.2781
10.2169
10.1523
10.0871
10.0266
9.96209
9.89624
9.8335
9.75904
9.68434
9.59954
9.51741
9.46024
9.40587
9.32838
9.24352
9.18135
9.12149
10.8648
10.8287
10.7743
10.7164
10.6618
10.5886
10.5141
10.4466
10.3853
10.3164
10.2473
10.1809
10.104
10.0491
9.98715
9.92372
9.85977
9.79342
9.71763
9.63591
9.55519
9.48233
9.42343
9.3583
9.30186
10.9459
10.8977
10.8464
10.7946
10.7512
10.7023
10.6405
10.5619
10.4875
10.4224
10.3604
10.289
10.2133
10.1326
10.0714
10.0098
9.9442
9.8863
9.82617
9.75903
9.67984
9.58685
9.51038
9.40952
11.0686
11.0159
10.9621
10.9086
10.8594
10.8145
10.7705
10.7322
10.687
10.6244
10.545
10.4702
10.3957
10.3261
10.2352
10.1612
10.098
10.033
9.96885
9.91662
9.85443
9.78481
9.70675
9.61988
9.54311
11.1408
11.0832
11.0339
10.9825
10.9294
10.88
10.8366
10.7945
10.7559
10.716
10.6631
10.6053
10.5359
10.4478
10.3725
10.2762
10.1995
10.1286
10.0606
9.99828
9.9426
9.88015
9.80927
9.6994
11.2724
11.2189
11.1633
11.1035
11.053
11.0045
10.9534
10.9067
10.8602
10.8165
10.7727
10.731
10.6812
10.6322
10.5729
10.4961
10.404
10.3232
10.2422
10.167
10.0962
10.0296
9.96314
9.89861
9.83082
11.351
11.2968
11.242
11.1848
11.1264
11.0721
11.0204
10.9736
10.931
10.889
10.8386
10.7867
10.748
10.7074
10.6552
10.5958
10.5244
10.4455
10.3645
10.2881
10.2084
10.1296
10.0586
9.98256
11.4713
11.4254
11.3736
11.3166
11.2647
11.2091
11.1491
11.0931
11.0419
10.9961
10.9554
10.9154
10.8701
10.8138
10.7689
10.7284
10.6786
10.6201
10.5592
10.4914
10.4075
10.3332
10.2448
10.1768
10.1059
11.5412
11.4957
11.4495
11.3985
11.3447
11.2892
11.2317
11.1708
11.1123
11.0654
11.0222
10.9792
10.9343
10.8901
10.8423
10.7938
10.7495
10.7018
10.6504
10.5935
10.5251
10.4389
10.3796
10.2906
11.6094
11.5715
11.5249
11.4769
11.4281
11.3736
11.3178
11.2587
11.1952
11.1344
11.0877
11.0501
11.0091
10.9638
10.9145
10.866
10.8221
10.7749
10.7262
10.6793
10.6238
10.5475
10.4735
10.4029
11.7021
11.672
11.6364
11.5965
11.5523
11.5031
11.4541
11.404
11.3499
11.2901
11.2242
11.1593
11.1081
11.068
11.0298
10.9893
10.945
10.8933
10.8478
10.8021
10.7549
10.7043
10.6547
10.5739
10.5289
11.7657
11.7251
11.6904
11.656
11.6212
11.579
11.5316
11.4838
11.4352
11.3832
11.3239
11.2585
11.1916
11.1329
11.0867
11.0473
11.0087
10.9687
10.9228
10.8716
10.826
10.7779
10.7328
10.6841
11.8659
11.7904
11.7526
11.7184
11.6826
11.6483
11.607
11.56
11.5129
11.4632
11.4152
11.358
11.2951
11.2296
11.1661
11.1121
11.0677
11.0308
10.993
10.9512
10.9053
10.8485
10.8096
10.7498
11.9168
11.8774
11.8245
11.7793
11.7478
11.712
11.6717
11.629
11.5837
11.5392
11.4909
11.4399
11.3887
11.3306
11.2689
11.2059
11.1476
11.0996
11.0595
11.0223
10.9752
10.9377
10.8799
12.013
11.9751
11.9456
11.8994
11.8528
11.8084
11.7724
11.7388
11.6967
11.6501
11.6036
11.56
11.5143
11.4615
11.4134
11.3612
11.3051
11.2459
11.1888
11.1367
11.0915
11.0506
10.9984
10.9452
12.0938
12.034
11.9939
11.9583
11.9218
11.8804
11.8385
11.8006
11.766
11.7259
11.6785
11.6274
11.5802
11.5332
11.4848
11.4372
11.3875
11.3355
11.2804
11.2277
11.1788
11.1261
11.0868
11.0358
12.151
12.1101
12.0638
12.0196
11.983
11.9463
11.9073
11.8672
11.8293
11.793
11.7565
11.7104
11.6574
11.6042
11.5556
11.5083
11.4616
11.4118
11.3629
11.3122
11.2605
11.2088
11.1607
12.2604
12.2159
12.1753
12.1274
12.0818
12.045
12.0085
11.9706
11.9325
11.895
11.8599
11.8161
11.7799
11.7395
11.689
11.6348
11.5833
11.5347
11.4872
11.4387
11.3934
11.3407
11.2964
11.2166
12.3474
12.2793
12.2334
12.1922
12.1479
12.1054
12.0692
12.0332
11.9951
11.9581
11.9229
11.8898
11.8457
11.8006
11.7662
11.7187
11.6659
11.6132
11.5668
11.5183
11.4695
11.4242
11.367
11.3364
12.3746
12.3418
12.3007
12.2552
12.2122
12.1649
12.1234
12.0909
12.0579
12.0216
11.9824
11.9466
11.9152
11.8796
11.8263
11.7881
11.7435
11.6922
11.6398
11.5962
11.5471
11.5
11.4534
11.4056
12.454
12.4111
12.3655
12.3176
12.274
12.2292
12.1824
12.1418
12.112
12.0852
12.05
12.0047
11.9641
11.9357
11.8962
11.8502
11.807
11.7613
11.7136
11.6641
11.6196
11.5638
11.5297
12.5473
12.5266
12.4776
12.4301
12.3867
12.342
12.2944
12.2466
12.2
12.1592
12.1309
12.1095
12.0837
12.033
11.9885
11.9604
11.9203
11.8775
11.8323
11.7843
11.7371
11.6838
11.6429
11.5828
12.6528
12.5888
12.5486
12.5039
12.4575
12.4141
12.3692
12.3194
12.269
12.2213
12.1788
12.149
12.1277
12.1099
12.0656
12.0192
11.9845
11.9452
11.9045
11.8586
11.8094
11.7648
11.709
11.6586
12.7218
12.6726
12.6249
12.5786
12.5334
12.4883
12.4441
12.3975
12.3463
12.2948
12.2471
12.2032
12.1694
12.146
12.1217
12.0835
12.0457
12.0093
11.9702
11.93
11.8811
11.8244
11.7868
12.789
12.7476
12.6979
12.6535
12.6092
12.5627
12.5182
12.4735
12.4266
12.3744
12.3217
12.2757
12.232
12.1921
12.1639
12.1363
12.1037
12.0717
12.0379
11.9973
11.9545
11.9097
11.8425
12.8363
12.8024
12.7666
12.7239
12.6799
12.6342
12.5875
12.5445
12.5016
12.4548
12.403
12.3499
12.3051
12.2672
12.2259
12.1887
12.1601
12.1289
12.0982
12.0661
12.0225
11.9789
11.9319
12.9061
12.8729
12.8302
12.7887
12.7464
12.7036
12.6586
12.6143
12.5716
12.5288
12.4826
12.4329
12.381
12.3355
12.2985
12.2588
12.2211
12.1868
12.1556
12.1259
12.0944
12.0459
12.0227
12.9864
12.9359
12.8951
12.8562
12.8155
12.7732
12.7279
12.6821
12.6402
12.5998
12.556
12.5104
12.4631
12.4119
12.3625
12.3219
12.2835
12.2468
12.2129
12.1815
12.1477
12.1097
12.0677
13.0533
13.0078
12.9656
12.9255
12.8863
12.8449
12.8009
12.754
12.7065
12.664
12.6257
12.5832
12.534
12.4882
12.4401
12.3908
12.3463
12.3079
12.2728
12.2393
12.2068
12.1636
12.1359
13.1361
13.109
13.076
13.0373
12.9977
12.9585
12.9189
12.8762
12.8309
12.7833
12.735
12.6898
12.6495
12.6065
12.56
12.5145
12.469
12.4215
12.377
12.3376
12.3007
12.2665
12.2322
13.2127
13.1689
13.1424
13.1059
13.0681
13.0306
12.9928
12.9523
12.9087
12.8633
12.8171
12.7694
12.7216
12.6754
12.6317
12.5872
12.5427
12.4982
12.4522
12.4092
12.368
12.3315
12.2981
13.2668
13.2283
13.1919
13.1591
13.1294
13.0958
13.0614
13.0246
12.984
12.9406
12.896
12.8518
12.8062
12.759
12.7098
12.6622
12.6166
12.5721
12.5274
12.4841
12.4408
12.3908
12.3645
13.3519
13.2912
13.25
13.2121
13.18
13.1519
13.1191
13.087
13.0506
13.0116
12.9694
12.9241
12.882
12.8415
12.7961
12.7475
12.6983
12.6512
12.6054
12.5599
12.5171
12.4719
12.4167
13.3776
13.3478
13.3063
13.2634
13.2293
13.1976
13.1694
13.1403
13.106
13.0681
13.0328
12.9958
12.957
12.9141
12.8717
12.8287
12.7817
12.7326
12.6847
12.6397
12.5944
12.5504
12.5073
13.4381
13.4001
13.3626
13.3205
13.2807
13.2429
13.2099
13.1836
13.1598
13.1337
13.0818
13.0406
13.012
12.9794
12.9374
12.8933
12.8536
12.8084
12.7613
12.7151
12.6695
12.626
12.5804
13.5108
13.4677
13.4278
13.3855
13.3419
13.2992
13.259
13.2238
13.1981
13.1775
13.1586
13.1184
13.0581
13.0183
12.9889
12.9551
12.9154
12.8732
12.83
12.7875
12.7395
12.6994
12.6549
13.5734
13.5316
13.4884
13.4486
13.4081
13.3652
13.322
13.281
13.2436
13.2145
13.1927
13.1704
13.1331
13.0738
13.0361
13.006
12.9731
12.9348
12.895
12.8553
12.811
12.7615
12.7213
13.6425
13.5979
13.5547
13.5122
13.4713
13.4302
13.3884
13.3467
13.3059
13.2678
13.2354
13.2091
13.1808
13.1385
13.094
13.0605
13.027
12.9918
12.9555
12.9161
12.878
12.8365
12.7896
13.7154
13.6701
13.6217
13.5797
13.5365
13.494
13.4529
13.4121
13.3726
13.3318
13.2905
13.2571
13.2268
13.192
13.1539
13.1184
13.0834
13.0492
13.0137
12.9782
12.9397
12.8986
13.8142
13.7641
13.7364
13.7019
13.6556
13.6106
13.5663
13.5217
13.4786
13.4379
13.4005
13.3639
13.3196
13.2789
13.247
13.2115
13.1747
13.1403
13.1067
13.0714
13.0352
12.9985
12.9632
13.8384
13.8165
13.7984
13.7646
13.7284
13.6898
13.6481
13.6012
13.5538
13.5078
13.4659
13.4296
13.3964
13.3518
13.305
13.2699
13.2336
13.1983
13.1647
13.1305
13.093
13.0563
13.0182
13.8888
13.859
13.8322
13.8161
13.7862
13.7558
13.7164
13.6777
13.6315
13.5844
13.5369
13.4927
13.4556
13.419
13.3715
13.3317
13.2946
13.256
13.2206
13.1887
13.156
13.1149
13.0827
13.9886
13.9223
13.881
13.8521
13.833
13.8034
13.7733
13.7399
13.7011
13.6575
13.6131
13.5674
13.5193
13.4787
13.437
13.3955
13.3558
13.3166
13.2777
13.2426
13.2092
13.1774
13.1292
14.0172
13.9863
13.946
13.9052
13.8715
13.8491
13.8213
13.7899
13.7607
13.7254
13.6828
13.6412
13.6007
13.5514
13.5027
13.4617
13.4207
13.3811
13.3427
13.3031
13.2625
13.2307
13.1862
14.0804
14.0477
14.0095
13.9702
13.9328
13.8989
13.8672
13.8349
13.8049
13.7731