# vtk DataFile Version 2.0
track0
ASCII
DATASET POLYDATA
POINTS 12069 float
-0.0205 0.001 1e-05
-0.02052 0.000999985 1e-05
-0.02054 0.000999974 1e-05
-0.02056 0.000999965 1e-05
-0.02058 0.000999959 1e-05
-0.0206 0.000999956 1e-05
-0.0205 0.00367778 1e-05
-0.02052 0.00367778 1e-05
-0.02054 0.00367777 1e-05
-0.02056 0.00367777 1e-05
-0.02058 0.00367777 1e-05
-0.0206 0.00367777 1e-05
-0.0205 0.00635556 1e-05
-0.02052 0.00635555 1e-05
-0.02054 0.00635555 1e-05
-0.02056 0.00635555 1e-05
-0.02058 0.00635555 1e-05
-0.0206 0.00635555 1e-05
-0.0205 0.00903333 1e-05
-0.02052 0.00903333 1e-05
-0.02054 0.00903333 1e-05
-0.02056 0.00903333 1e-05
-0.02058 0.00903333 1e-05
-0.0206 0.00903333 1e-05
-0.0205 0.0117111 1e-05
-0.02052 0.0117111 1e-05
-0.02054 0.0117111 1e-05
-0.02056 0.0117111 1e-05
-0.02058 0.0117111 1e-05
-0.0206 0.0117111 1e-05
-0.0205 0.0143889 1e-05
-0.02052 0.0143889 1e-05
-0.02054 0.0143889 1e-05
-0.02056 0.0143889 1e-05
-0.02058 0.0143889 1e-05
-0.0206 0.0143889 1e-05
-0.0205 0.0170667 1e-05
-0.02052 0.0170667 1e-05
-0.02054 0.0170667 1e-05
-0.02056 0.0170667 1e-05
-0.02058 0.0170667 1e-05
-0.0206 0.0170667 1e-05
-0.0205 0.0197444 1e-05
-0.02052 0.0197444 1e-05
-0.02054 0.0197444 1e-05
-0.02056 0.0197444 1e-05
-0.02058 0.0197444 1e-05
-0.0206 0.0197444 1e-05
-0.0205 0.0224222 1e-05
-0.02052 0.0224222 1e-05
-0.02054 0.0224222 1e-05
-0.02056 0.0224222 1e-05
-0.02058 0.0224222 1e-05
-0.0206 0.0224222 1e-05
-0.0205 0.0251 1e-05
-0.02052 0.0250998 1e-05
-0.02054 0.0250997 1e-05
-0.02056 0.0250995 1e-05
-0.02058 0.0250995 1e-05
-0.0206 0.0250994 1e-05
-0.0205 0.001 1e-05
-0.0202034 0.00100022 1e-05
-0.0199069 0.00100067 1e-05
-0.0196103 0.00100132 1e-05
-0.0193137 0.00100219 1e-05
-0.0190172 0.00100326 1e-05
-0.0187132 0.00100466 1e-05
-0.0184093 0.00100588 1e-05
-0.0181054 0.0010071 1e-05
-0.0178015 0.00100832 1e-05
-0.0174976 0.00100953 1e-05
-0.0172058 0.00101083 1e-05
-0.016914 0.00101193 1e-05
-0.0166222 0.00101303 1e-05
-0.0163305 0.00101413 1e-05
-0.0160387 0.00101522 1e-05
-0.0157586 0.00101636 1e-05
-0.0154784 0.00101744 1e-05
-0.0151983 0.00101856 1e-05
-0.0149182 0.00101971 1e-05
-0.0146381 0.0010209 1e-05
-0.0143746 0.00102209 1e-05
-0.0141111 0.00102327 1e-05
-0.0138476 0.00102449 1e-05
-0.0135841 0.00102574 1e-05
-0.0133616 0.00102682 1e-05
-0.013348 0.00102688 1e-05
-0.0133343 0.00102695 1e-05
-0.0133207 0.00102702 1e-05
-0.0133071 0.00102709 1e-05
-0.0132934 0.00102716 1e-05
-0.0130353 0.00102844 1e-05
-0.0127771 0.00102975 1e-05
-0.0125189 0.00103107 1e-05
-0.0122607 0.0010324 1e-05
-0.0120025 0.00103375 1e-05
-0.0117547 0.00103506 1e-05
-0.0115068 0.00103638 1e-05
-0.0112589 0.0010377 1e-05
-0.0110111 0.00103902 1e-05
-0.0107632 0.00104035 1e-05
-0.0105252 0.00104163 1e-05
-0.0102873 0.00104291 1e-05
-0.0100493 0.00104419 1e-05
-0.00981133 0.00104546 1e-05
-0.00957337 0.00104674 1e-05
-0.00934491 0.00104796 1e-05
-0.00911645 0.00104919 1e-05
-0.00888799 0.00105041 1e-05
-0.00865954 0.00105162 1e-05
-0.00843108 0.00105284 1e-05
-0.00821175 0.00105399 1e-05
-0.00799242 0.00105515 1e-05
-0.00777309 0.00105631 1e-05
-0.00755376 0.00105746 1e-05
-0.00733443 0.0010586 1e-05
-0.00712387 0.00105969 1e-05
-0.0069133 0.00106078 1e-05
-0.00670273 0.00106187 1e-05
-0.00649216 0.00106295 1e-05
-0.0062816 0.00106403 1e-05
-0.00607944 0.00106506 1e-05
-0.00587729 0.00106609 1e-05
-0.00567514 0.00106711 1e-05
-0.00547298 0.00106813 1e-05
-0.00527083 0.00106914 1e-05
-0.00507675 0.00107011 1e-05
-0.00488267 0.00107107 1e-05
-0.0046886 0.00107204 1e-05
-0.00449452 0.00107299 1e-05
-0.00430044 0.00107395 1e-05
-0.00411412 0.00107486 1e-05
-0.0039278 0.00107577 1e-05
-0.00374147 0.00107667 1e-05
-0.00355515 0.00107758 1e-05
-0.00336883 0.00107848 1e-05
-0.00318995 0.00107933 1e-05
-0.00301107 0.00108019 1e-05
-0.00283219 0.00108105 1e-05
-0.00265331 0.0010819 1e-05
-0.00247443 0.00108276 1e-05
-0.0023027 0.00108357 1e-05
-0.00213097 0.00108439 1e-05
-0.00195924 0.0010852 1e-05
-0.0017875 0.00108602 1e-05
-0.00161577 0.00108683 1e-05
-0.0014509 0.0010876 1e-05
-0.00128603 0.00108838 1e-05
-0.00112116 0.00108916 1e-05
-0.000956289 0.00108994 1e-05
-0.000791418 0.00109072 1e-05
-0.000633135 0.00109147 1e-05
-0.000474851 0.00109223 1e-05
-0.000316567 0.00109298 1e-05
-0.000158284 0.00109374 1e-05
0 0.0010945 1e-05
0.000105677 0.001095 1e-05
0.000211355 0.0010955 1e-05
0.000317032 0.001096 1e-05
0.00042271 0.0010965 1e-05
0.000528387 0.001097 1e-05
0.000634886 0.00109749 1e-05
0.000741385 0.00109799 1e-05
0.000847885 0.00109848 1e-05
0.000954384 0.00109896 1e-05
0.00106088 0.00109944 1e-05
0.00116821 0.00109992 1e-05
0.00127554 0.0011004 1e-05
0.00138286 0.00110087 1e-05
0.00149019 0.00110133 1e-05
0.00159752 0.00110179 1e-05
0.00170568 0.00110224 1e-05
0.00181384 0.00110269 1e-05
0.001922 0.00110312 1e-05
0.00203016 0.00110355 1e-05
0.00213833 0.00110397 1e-05
0.00224733 0.00110438 1e-05
0.00235633 0.00110479 1e-05
0.00246533 0.00110519 1e-05
0.00257434 0.00110558 1e-05
0.00268334 0.00110596 1e-05
0.00279319 0.00110632 1e-05
0.00290304 0.00110669 1e-05
0.00301289 0.00110705 1e-05
0.00312274 0.0011074 1e-05
0.00323259 0.00110774 1e-05
0.00334329 0.00110808 1e-05
0.003454 0.00110841 1e-05
0.0035647 0.00110873 1e-05
0.0036754 0.00110904 1e-05
0.00378611 0.00110935 1e-05
0.00389767 0.00110964 1e-05
0.00400924 0.00110994 1e-05
0.0041208 0.00111022 1e-05
0.00423237 0.0011105 1e-05
0.00434393 0.00111077 1e-05
0.00445636 0.00111103 1e-05
0.00456879 0.00111128 1e-05
0.00468123 0.00111153 1e-05
0.00479366 0.00111177 1e-05
0.00490609 0.001112 1e-05
0.0050194 0.00111222 1e-05
0.0051327 0.00111244 1e-05
0.00524601 0.00111265 1e-05
0.00535932 0.00111285 1e-05
0.00547262 0.00111305 1e-05
0.00558681 0.00111323 1e-05
0.005701 0.00111341 1e-05
0.00581518 0.00111358 1e-05
0.00592937 0.00111375 1e-05
0.00604356 0.0011139 1e-05
0.00615863 0.00111405 1e-05
0.00627371 0.00111419 1e-05
0.00638878 0.00111433 1e-05
0.00650386 0.00111445 1e-05
0.00661893 0.00111457 1e-05
0.0067349 0.00111468 1e-05
0.00685087 0.00111479 1e-05
0.00696684 0.00111489 1e-05
0.00708281 0.00111498 1e-05
0.00719878 0.00111506 1e-05
0.00730538 0.00111512 1e-05
0.00741198 0.00111518 1e-05
0.00751858 0.00111524 1e-05
0.00762517 0.00111529 1e-05
0.00772629 0.00111533 1e-05
0.00773766 0.00111533 1e-05
0.00774903 0.00111533 1e-05
0.0077604 0.00111534 1e-05
0.00777177 0.00111534 1e-05
0.00778313 0.00111534 1e-05
0.00790091 0.00111538 1e-05
0.00801869 0.00111541 1e-05
0.00813647 0.00111543 1e-05
0.00825425 0.00111544 1e-05
0.00837203 0.00111544 1e-05
0.00849073 0.00111543 1e-05
0.00860942 0.00111542 1e-05
0.00872812 0.0011154 1e-05
0.00884682 0.00111537 1e-05
0.00896551 0.00111533 1e-05
0.00908513 0.00111528 1e-05
0.00920475 0.00111522 1e-05
0.00932437 0.00111516 1e-05
0.00944398 0.00111509 1e-05
0.0095636 0.00111501 1e-05
0.00968415 0.00111491 1e-05
0.0098047 0.00111481 1e-05
0.00992525 0.00111471 1e-05
0.0100458 0.00111459 1e-05
0.0101663 0.00111447 1e-05
0.0102878 0.00111433 1e-05
0.0104093 0.00111419 1e-05
0.0105308 0.00111404 1e-05
0.0106523 0.00111388 1e-05
0.0107738 0.00111371 1e-05
0.0108962 0.00111352 1e-05
0.0110186 0.00111334 1e-05
0.0111411 0.00111314 1e-05
0.0112635 0.00111294 1e-05
0.0113859 0.00111273 1e-05
0.0115093 0.00111249 1e-05
0.0116327 0.00111226 1e-05
0.0117561 0.00111202 1e-05
0.0118795 0.00111177 1e-05
0.0120028 0.00111151 1e-05
0.0121272 0.00111122 1e-05
0.0122515 0.00111094 1e-05
0.0123759 0.00111065 1e-05
0.0125002 0.00111035 1e-05
0.0126245 0.00111005 1e-05
0.0127498 0.00110971 1e-05
0.0128752 0.00110938 1e-05
0.0130005 0.00110905 1e-05
0.0131258 0.0011087 1e-05
0.0132511 0.00110834 1e-05
0.0133774 0.00110796 1e-05
0.0135036 0.00110758 1e-05
0.0136299 0.00110719 1e-05
0.0137562 0.00110679 1e-05
0.0138825 0.00110639 1e-05
0.0140098 0.00110596 1e-05
0.014137 0.00110552 1e-05
0.0142643 0.00110508 1e-05
0.0143915 0.00110463 1e-05
0.0145188 0.00110417 1e-05
0.0146471 0.00110369 1e-05
0.0147753 0.00110321 1e-05
0.0149036 0.00110272 1e-05
0.0150318 0.00110221 1e-05
0.0151601 0.0011017 1e-05
0.0152893 0.00110117 1e-05
0.0154186 0.00110063 1e-05
0.0155478 0.00110008 1e-05
0.0156771 0.00109953 1e-05
0.0158063 0.00109896 1e-05
0.0159366 0.00109838 1e-05
0.0160668 0.00109779 1e-05
0.0161971 0.00109719 1e-05
0.0163274 0.00109658 1e-05
0.0164576 0.00109595 1e-05
0.0165889 0.00109532 1e-05
0.0167201 0.00109468 1e-05
0.0168514 0.00109402 1e-05
0.0169827 0.00109335 1e-05
0.0171139 0.00109268 1e-05
0.0172462 0.001092 1e-05
0.0173785 0.0010913 1e-05
0.0175108 0.00109059 1e-05
0.0176431 0.00108986 1e-05
0.0177754 0.00108913 1e-05
0.0179087 0.0010884 1e-05
0.018042 0.00108765 1e-05
0.0181753 0.00108688 1e-05
0.0183087 0.0010861 1e-05
0.018442 0.00108532 1e-05
0.0185763 0.00108453 1e-05
0.0187107 0.00108372 1e-05
0.018845 0.0010829 1e-05
0.0189794 0.00108206 1e-05
0.0191137 0.00108122 1e-05
0.0192491 0.00108038 1e-05
0.0193845 0.00107952 1e-05
0.0195199 0.00107864 1e-05
0.0196553 0.00107775 1e-05
0.0197907 0.00107685 1e-05
0.0199272 0.00107596 1e-05
0.0200636 0.00107504 1e-05
0.0202001 0.0010741 1e-05
0.0203365 0.00107315 1e-05
0.020473 0.00107221 1e-05
0.0206105 0.00107126 1e-05
0.020748 0.00107029 1e-05
0.0208855 0.00106929 1e-05
0.021023 0.00106829 1e-05
0.0211606 0.00106729 1e-05
0.0212991 0.00106628 1e-05
0.0214377 0.00106526 1e-05
0.0215763 0.0010642 1e-05
0.0217149 0.00106314 1e-05
0.0218535 0.00106209 1e-05
0.0219931 0.00106103 1e-05
0.0221328 0.00105995 1e-05
0.0222724 0.00105883 1e-05
0.0224121 0.00105771 1e-05
0.0225517 0.0010566 1e-05
0.0226925 0.00105549 1e-05
0.0228332 0.00105435 1e-05
0.022974 0.00105318 1e-05
0.0231147 0.001052 1e-05
0.0232555 0.00105084 1e-05
0.0233973 0.00104967 1e-05
0.0235391 0.00104847 1e-05
0.023681 0.00104724 1e-05
0.0238228 0.00104601 1e-05
0.0239647 0.00104478 1e-05
0.0241076 0.00104356 1e-05
0.0242505 0.0010423 1e-05
0.0243935 0.00104102 1e-05
0.0245364 0.00103972 1e-05
0.0246794 0.00103844 1e-05
0.0248234 0.00103715 1e-05
0.0249675 0.00103584 1e-05
0.0251115 0.0010345 1e-05
0.0252556 0.00103315 1e-05
[...]
POINT_DATA 12069
 FIELD attributes 2
p 1 12069 float
-5.90562 -5.9023 -5.89898 -5.89567 -5.89236 -5.88904
-6.05792 -6.0579 -6.05788 -6.05786 -6.05783 -6.05781
-6.23195 -6.23183 -6.2317 -6.23158 -6.23146 -6.23135
-6.32518 -6.32512 -6.32507 -6.32502 -6.32496 -6.32491
-6.3702 -6.37009 -6.36997 -6.36986 -6.36975 -6.36963
-6.37672 -6.37656 -6.3764 -6.37624 -6.37607 -6.37591
-6.3498 -6.34973 -6.34965 -6.34958 -6.34951 -6.34944
-6.28026 -6.28022 -6.28018 -6.28014 -6.2801 -6.28006
-6.15899 -6.159 -6.159 -6.15901 -6.15902 -6.15902
-3.9464 -3.96573 -3.98493 -4.004 -4.02294 -4.04174
-5.90562 -5.9049 -5.90129 -5.89759 -5.89381 -5.88544 -5.89929 -5.91425 -5.92922 -5.94419 -5.96861 -5.99037 -6.0203 -6.05023 -6.08016 -6.1129 -6.12855 -6.15024 -6.17194 -6.19363 -6.21695 -6.23583 -6.25672 -6.27761 -6.29851 -6.31616 -6.31724 -6.31832 -6.31939 -6.32047 -6.32154 -6.34319 -6.36484 -6.38649 -6.40814 -6.42952 -6.44826 -6.46682 -6.48537 -6.50392 -6.52191 -6.53751 -6.55283 -6.56815 -6.58347 -6.59824 -6.61198 -6.62548 -6.63897 -6.65246 -6.66551 -6.67817 -6.69057 -6.70297 -6.71537 -6.72734 -6.73908 -6.75051 -6.76194 -6.77337 -6.78437 -6.79525 -6.80584 -6.81644 -6.82703 -6.83726 -6.84748 -6.8574 -6.86733 -6.87725 -6.88685 -6.89651 -6.90595 -6.91539 -6.92482 -6.93405 -6.94333 -6.95227 -6.96122 -6.97017 -6.97891 -6.98792 -6.99703 -7.00614 -7.01526 -7.02461 -7.03422 -7.04347 -7.05273 -7.06198 -7.07121 -7.08125 -7.0925 -7.10375 -7.115 -7.12687 -7.13799 -7.15048 -7.16298 -7.17547 -7.18757 -7.19857 -7.20926 -7.21994 -7.23063 -7.24024 -7.24836 -7.25723 -7.26611 -7.27498 -7.28441 -7.29289 -7.30164 -7.31039 -7.31913 -7.32793 -7.33635 -7.3437 -7.35105 -7.35839 -7.36478 -7.37181 -7.37749 -7.38317 -7.38885 -7.39339 -7.39924 -7.404 -7.40877 -7.41353 -7.41731 -7.42227 -7.42632 -7.43037 -7.43443 -7.43767 -7.44165 -7.44488 -7.44812 -7.45135 -7.454 -7.45701 -7.45947 -7.46193 -7.46439 -7.4665 -7.46883 -7.47081 -7.47278 -7.47476 -7.47655 -7.47857 -7.48037 -7.48217 -7.48397 -7.48567 -7.48752 -7.48923 -7.49094 -7.49265 -7.49432 -7.49587 -7.49736 -7.49885 -7.50034 -7.50175 -7.50191 -7.50207 -7.50223 -7.50239 -7.50256 -7.50415 -7.50574 -7.50734 -7.50894 -7.51071 -7.51213 -7.51374 -7.51535 -7.51696 -7.51898 -7.52021 -7.52188 -7.52356 -7.52524 -7.52763 -7.52868 -7.53048 -7.53228 -7.53408 -7.53696 -7.53782 -7.53975 -7.54168 -7.54361 -7.54696 -7.54762 -7.54964 -7.55167 -7.5537 -7.5575 -7.55796 -7.56009 -7.56223 -7.56437 -7.5686 -7.56893 -7.57119 -7.57346 -7.57573 -7.58036 -7.58061 -7.58301 -7.58541 -7.58781 -7.59279 -7.59299 -7.59552 -7.59806 -7.60059 -7.60586 -7.60607 -7.60873 -7.61139 -7.61416 -7.61957 -7.62003 -7.62263 -7.62543 -7.62859 -7.63391 -7.63472 -7.63724 -7.64016 -7.64368 -7.6489 -7.65006 -7.65253 -7.65559 -7.65941 -7.66453 -7.66604 -7.6685 -7.67169 -7.67576 -7.68077 -7.68261 -7.68511 -7.68843 -7.6927 -7.69761 -7.69977 -7.70234 -7.70578 -7.71021 -7.71503 -7.71748 -7.72016 -7.72371 -7.72826 -7.733 -7.73573 -7.73853 -7.7422 -7.74684 -7.75152 -7.7545 -7.75748 -7.76128 -7.76592 -7.77056 -7.77378 -7.77699 -7.7809 -7.78551 -7.79012 -7.79357 -7.79702 -7.80103 -7.8056 -7.81017 -7.81383 -7.81749 -7.82158 -7.82611 -7.83063 -7.83447 -7.8383 -7.84246 -7.84694 -7.85141 -7.85538 -7.85935 -7.86357 -7.86802 -7.87248 -7.87655 -7.88062 -7.8849 -7.88936 -7.89382 -7.89797 -7.90212 -7.90646 -7.91093 -7.91541 -7.91962 -7.92386 -7.92824 -7.93271 -7.93721 -7.94148 -7.94578 -7.95019 -7.95467 -7.95919 -7.96348 -7.96783 -7.97226 -7.97674 -7.98127 -7.98558 -7.98997 -7.99441 -7.99888 -8.00342 -8.00773 -8.01214 -8.01659 -8.02105 -8.02559 -8.02989 -8.03431 -8.03875 -8.04319 -8.04771 -8.05201 -8.05643 -8.06085 -8.06526 -8.06976 -8.07404 -8.07843 -8.08282 -8.08721 -8.09166 -8.09593 -8.10028 -8.10463 -8.10898 -8.11337 -8.11761 -8.12191 -8.1262 -8.1305 -8.13483 -8.13902 -8.14325 -8.14748 -8.15172 -8.15596 -8.15979 -8.16365 -8.1675 -8.17136 -8.17506 -8.17538 -8.1757 -8.17603 -8.17635 -8.17667 -8.18073 -8.18479 -8.18884 -8.1929 -8.19697 -8.20092 -8.20487 -8.20882 -8.21277 -8.21674 -8.22058 -8.22441 -8.22824 -8.23208 -8.23593 -8.23965 -8.24334 -8.24704 -8.25074 -8.25446 -8.25803 -8.26156 -8.2651 -8.26863 -8.27217 -8.27559 -8.27894 -8.28229 -8.28564 -8.28898 -8.29222 -8.29539 -8.29854 -8.30169 -8.30482 -8.30786 -8.31084 -8.31378 -8.31669 -8.31959 -8.32241 -8.32519 -8.32788 -8.33053 -8.33316 -8.33574 -8.3383 -8.34072 -8.34308 -8.34543 -8.34774 -8.35005 -8.35219 -8.35422 -8.35625 -8.35826 -8.36028 -8.36212 -8.36381 -8.36551 -8.36719 -8.36888 -8.3704 -8.37173 -8.37306 -8.37439 -8.37573 -8.3769 -8.37784 -8.37878 -8.37974 -8.38071 -8.3815 -8.38204 -8.38256 -8.38313 -8.38365 -8.38402 -8.38419 -8.38427 -8.38441 -8.38444 -8.38436 -8.38413 -8.38375 -8.38342 -8.38293 -8.38236 -8.38172 -8.38083 -8.38001 -8.37894 -8.37786 -8.37678 -8.37537 -8.37398 -8.37234 -8.37071 -8.36908 -8.36722 -8.36519 -8.36297 -8.36076 -8.35855 -8.35621 -8.35349 -8.35067 -8.34785 -8.34503 -8.34219 -8.34158 -8.34096 -8.34033 -8.33971 -8.33909 -8.33629 -8.33349 -8.3307 -8.3279 -8.32501 -8.32104 -8.31696 -8.31287 -8.30879 -8.30448 -8.29998 -8.29518 -8.29039 -8.2856 -8.28043 -8.27537 -8.26984 -8.26431 -8.25872 -8.25268 -8.24691 -8.24075 -8.23444 -8.22791 -8.22107 -8.21451 -8.20774 -8.20063 -8.19309 -8.18541 -8.17803 -8.17065 -8.16265 -8.15409 -8.14553 -8.13729 -8.12905 -8.12019 -8.11072 -8.10125 -8.09212 -8.08299 -8.07323 -8.06281 -8.0524 -8.04234 -8.03223 -8.02148 -8.01019 -7.9988 -7.98777 -7.97643 -7.96469 -7.95267 -7.94027 -7.92824 -7.91561 -7.90283 -7.89006 -7.87661 -7.86341 -7.84955 -7.8357 -7.82185 -7.80763 -7.79303 -7.77806 -7.7631 -7.74814 -7.73314 -7.73092 -7.72864 -7.72637 -7.72409 -7.72184 -7.70813 -7.69443 -7.68073 -7.66704 -7.65309 -7.63623 -7.61911 -7.60199 -7.58489 -7.56719 -7.54947 -7.53115 -7.51284 -7.49434 -7.47526 -7.45635 -7.43714 -7.4176 -7.39748 -7.37713 -7.35697 -7.33681 -7.31593 -7.29427 -7.27262 -7.25118 -7.22975 -7.20754 -7.18455 -7.16157 -7.13882 -7.11592 -7.09226 -7.06816 -7.04382 -7.01972 -6.99498 -6.96995 -6.94493 -6.9192 -6.89353 -6.86709 -6.84066 -6.81423 -6.78758 -6.77499 -6.76214 -6.74929 -6.73645 -6.72404 -6.709 -6.69396 -6.67893 -6.6639 -6.64866 -6.61964 -6.59044 -6.56126 -6.53209 -6.50228 -6.47211 -6.44149 -6.41084 -6.37989 -6.34847 -6.31683 -6.2851 -6.25297 -6.22007 -6.18714 -6.154 -6.12088 -6.08709 -6.05265 -6.01822 -5.98357 -5.9488 -5.91335 -5.8776 -5.84164 -5.80549 -5.76868 -5.7317 -5.69473 -5.65737 -5.62374 -5.58963 -5.55553 -5.52143 -5.48946 -5.48465 -5.47984 -5.47504 -5.47023 -5.46535 -5.42551 -5.38563 -5.34575 -5.3059 -5.26536 -5.22446 -5.18307 -5.14168 -5.09995 -5.05765 -5.01524 -4.97281 -4.92987 -4.88608 -4.84227 -4.79837 -4.75449 -4.70986 -4.6646 -4.61932 -4.57395 -4.52816 -4.48191 -4.43562 -4.3889 -4.34189 -4.2942 -4.24652 -4.19885 -4.15114 -4.14807 -4.14496 -4.14185 -4.13874 -4.13564 -4.08979 -4.04396 -3.99814 -3.95233 -3.90587 -3.856 -3.80572 -3.75545 -3.7048 -3.65364 -3.60244 -3.55126 -3.49954 -3.44715 -3.39473 -3.34225 -3.28978 -3.23653 -3.18304 -3.12942 -3.07572 -3.02142 -2.96701 -2.91261 -2.85802 -2.83583 -2.81341 -2.791 -2.76858 -2.74675 -2.7136 -2.68045 -2.64731 -2.61417 -2.58065 -2.52442 -2.46798 -2.41156 -2.35493 -2.2978 -2.24066 -2.18353 -2.12606 -2.06811 -2.01011 -1.95207 -1.89401 -1.83546 -1.77681 -1.71805 -1.65921 -1.59995 -1.54068 -1.48144 -1.42212 -1.41445 -1.40675 -1.39904 -1.39133 -1.38369 -1.3315 -1.27932 -1.22715 -1.175 -1.12247 -1.06213 -1.00175 -0.941369 -0.880765 -0.820013 -0.759206 -0.698417 -0.637477 -0.576453 -0.515374 -0.454214 -0.392975 -0.331694 -0.270429 -0.209136 -0.184167 -0.159176 -0.134188 -0.109202 -0.0847677 -0.0481526 -0.0115431 0.0250608 0.0616592 0.0983526 0.160029 0.221594 0.283144 0.344688 0.406297 0.467932 0.529549 0.591034 0.652363 0.713754 0.77519 0.836506 0.897734 0.958949 1.02008 1.04183 1.06352 1.08519 1.10687 1.12819 1.16762 1.20705 1.24647 1.28589 1.32525 1.38623 1.44699 1.50769 1.56827 1.62885 1.6894 1.74994 1.81023 1.87016 1.93015 1.99015 2.04982 2.10941 2.16899 2.22856 2.23308 2.23757 2.24206 2.24654 2.25101 2.3057 2.36038 2.41505 2.46969 2.52404 2.5828 2.64145 2.69976 2.75765 2.81559 2.87347 2.93125 2.98859 3.04579 3.10274 3.13968 3.17628 3.21284 3.24939 3.28535 3.30538 3.32541 3.34544 3.36545 3.3853 3.44128 3.49693 3.55259 3.60796 3.66308 3.71808 3.77307 3.82754 3.88142 3.93533 3.98915 4.04249 4.09563 4.14878 4.20179 4.20921 4.21655 4.22387 4.23119 4.2385 4.28347 4.32845 4.37342 4.41833 4.46278 4.51435 4.56577 4.61678 4.66718 4.71759 4.76785 4.81799 4.86756 4.91698 4.96601 4.99665 5.0269 5.05709 5.08729 5.11754 5.13572 5.1539 5.17208 5.19023 5.20815 5.25586 5.30317 5.35048 5.39743 5.444 5.4905 5.53699 5.58284 5.62802 5.67318 5.71828 5.76285 5.80719 5.85154 5.89567 5.90343 5.91107 5.9187 5.92633 5.93398 5.96967 6.00537 6.04106 6.07669 6.1117 6.1543 6.1967 6.2387 6.27992 6.32112 6.36235 6.40346 6.44388 6.48412 6.52394 6.55063 6.57685 6.60301 6.62917 6.65591 6.66885 6.68179 6.69473 6.70765 6.72033 6.75887 6.79705 6.83524 6.87308 6.91046 6.94788 6.98531 7.02209 7.05821 7.0943 7.13044 7.16611 7.20152 7.23693 7.27201 7.28203 7.29185 7.30166 7.31147 7.32142 7.34602 7.37063 7.39524 7.41982 7.44393 7.47777 7.51126 7.54462 7.57746 7.61013 7.6428 7.67548 7.70763 7.73923 7.77077 7.80232 7.83336 7.86432 7.89528 7.9261 7.9302 7.93422 7.93825 7.94227 7.94633 7.97246 7.9986 8.02475 8.05089 8.07653 8.10615 8.13553 8.16474 8.19351 8.22216 8.25082 8.27948 8.30775 8.33552 8.36326 8.39102 8.41843 8.44573 8.47304 8.50012 8.50927 8.51828 8.5273 8.53631 8.54553 8.56311 8.58068 8.59825 8.61583 8.63316 8.6594 8.68534 8.71128 8.73705 8.76263 8.78817 8.8137 8.83893 8.86387 8.8888 8.91368 8.9385 8.96313 8.98767 9.012 9.03628 9.06037 9.08446 9.10855 9.13261 9.13358 9.13455 9.13552 9.13648 9.13745 9.16022 9.18298 9.20575 9.22851 9.25114 9.27466 9.29801 9.32134 9.3446 9.36781 9.39096 9.41412 9.43715 9.46008 9.483 9.50587 9.52874 9.55162 9.57442 9.59713 9.61979 9.6425 9.66522 9.68793 9.71059 9.71728 9.72401 9.73074 9.73746 9.74431 9.76022 9.77612 9.79203 9.80793 9.82393 9.84663 9.86926 9.89188 9.91456 9.93738 9.9601 9.9828 10.0055 10.0285 10.0515 10.0744 10.0973 10.1201 10.1425 10.1649 10.1872 10.2103 10.2345 10.2588 10.2838 10.308 10.3265 10.345 10.3635 10.3802 10.3875 10.3985 10.4095 10.4204 10.4323 10.4463 10.4604 10.4745 10.4885 10.5072 10.5395 10.5657 10.5918 10.6091 10.6154 10.6213 10.6271 10.6394 10.6578 10.6761 10.6944 10.7126 10.7309 10.7492 10.7673 10.7692 10.7711 10.7729 10.7747 10.7765 10.7919 10.8073 10.8226 10.8377 10.8518 10.8673 10.8827 10.8976 10.9124 10.9271 10.9414 10.9555 10.9693 10.983 10.996 11.0026 11.0088 11.0149 11.021 11.0276 11.0332 11.0389 11.0445 11.0501 11.0553 11.0658 11.0751 11.0843 11.0927 11.1006 11.1075 11.1144 11.1197 11.1233 11.1267 11.129 11.1296 11.1296 11.1295 11.1285 11.1277 11.1262 11.1246 11.1231 11.1214 11.1178 11.1141 11.1104 11.1066 11.1009 11.0909 11.0789 11.0661 11.0509 11.0346 11.0157 10.9967 10.9737 10.9466 10.9193 10.8889 10.8551 10.819 10.7828 10.7433 10.7168 10.6867 10.6566 10.6264 10.591 10.5722 10.5534 10.5346 10.5158 10.4949 10.4325 10.3672 10.3018 10.2353 10.162 10.0837 10.0025 9.91658 9.82201 9.72614 9.62463 9.52299 9.41307 9.29507 9.17689 9.05244 8.92389 8.78411 8.63885 8.48743 8.32869 8.16461 7.99975 7.83482 7.66659 7.48308 7.28139 7.07975 6.87816 6.63205 6.62193 6.61231 6.6027 6.59308 6.58334 6.36544 6.14755 5.92965 5.71175 5.50246 5.24541 4.93309 4.62018 4.3067 3.88723 3.44384 3.14814 2.87196 2.65463 2.56595 2.47376 2.25245 1.80489 0.933912 0