# vtk DataFile Version 2.0
track0
ASCII
DATASET POLYDATA
POINTS 12069 float
-0.0205 0.001 1e-05
-0.02052 0.000999985 1e-05
-0.02054 0.000999974 1e-05
-0.02056 0.000999965 1e-05
-0.02058 0.000999959 1e-05
-0.0206 0.000999956 1e-05
-0.0205 0.00367778 1e-05
-0.02052 0.00367778 1e-05
-0.02054 0.00367777 1e-05
-0.02056 0.00367777 1e-05
-0.02058 0.00367777 1e-05
-0.0206 0.00367777 1e-05
-0.0205 0.00635556 1e-05
-0.02052 0.00635555 1e-05
-0.02054 0.00635555 1e-05
-0.02056 0.00635555 1e-05
-0.02058 0.00635555 1e-05
-0.0206 0.00635555 1e-05
-0.0205 0.00903333 1e-05
-0.02052 0.00903333 1e-05
-0.02054 0.00903333 1e-05
-0.02056 0.00903333 1e-05
-0.02058 0.00903333 1e-05
-0.0206 0.00903333 1e-05
-0.0205 0.0117111 1e-05
-0.02052 0.0117111 1e-05
-0.02054 0.0117111 1e-05
-0.02056 0.0117111 1e-05
-0.02058 0.0117111 1e-05
-0.0206 0.0117111 1e-05
-0.0205 0.0143889 1e-05
-0.02052 0.0143889 1e-05
-0.02054 0.0143889 1e-05
-0.02056 0.0143889 1e-05
-0.02058 0.0143889 1e-05
-0.0206 0.0143889 1e-05
-0.0205 0.0170667 1e-05
-0.02052 0.0170667 1e-05
-0.02054 0.0170667 1e-05
-0.02056 0.0170667 1e-05
-0.02058 0.0170667 1e-05
-0.0206 0.0170667 1e-05
-0.0205 0.0197444 1e-05
-0.02052 0.0197444 1e-05
-0.02054 0.0197444 1e-05
-0.02056 0.0197444 1e-05
-0.02058 0.0197444 1e-05
-0.0206 0.0197444 1e-05
-0.0205 0.0224222 1e-05
-0.02052 0.0224222 1e-05
-0.02054 0.0224222 1e-05
-0.02056 0.0224222 1e-05
-0.02058 0.0224222 1e-05
-0.0206 0.0224222 1e-05
-0.0205 0.0251 1e-05
-0.02052 0.0250998 1e-05
-0.02054 0.0250997 1e-05
-0.02056 0.0250995 1e-05
-0.02058 0.0250995 1e-05
-0.0206 0.0250994 1e-05
-0.0205 0.001 1e-05
-0.0202034 0.00100022 1e-05
-0.0199069 0.00100067 1e-05
-0.0196103 0.00100132 1e-05
-0.0193137 0.00100219 1e-05
-0.0190172 0.00100326 1e-05
-0.0187132 0.00100466 1e-05
-0.0184093 0.00100588 1e-05
-0.0181054 0.0010071 1e-05
-0.0178015 0.00100832 1e-05
-0.0174976 0.00100953 1e-05
-0.0172058 0.00101083 1e-05
-0.016914 0.00101193 1e-05
-0.0166222 0.00101303 1e-05
-0.0163305 0.00101413 1e-05
-0.0160387 0.00101522 1e-05
-0.0157586 0.00101636 1e-05
-0.0154784 0.00101744 1e-05
-0.0151983 0.00101856 1e-05
-0.0149182 0.00101971 1e-05
-0.0146381 0.0010209 1e-05
-0.0143746 0.00102209 1e-05
-0.0141111 0.00102327 1e-05
-0.0138476 0.00102449 1e-05
-0.0135841 0.00102574 1e-05
-0.0133616 0.00102682 1e-05
-0.013348 0.00102688 1e-05
-0.0133343 0.00102695 1e-05
-0.0133207 0.00102702 1e-05
-0.0133071 0.00102709 1e-05
-0.0132934 0.00102716 1e-05
-0.0130353 0.00102844 1e-05
-0.0127771 0.00102975 1e-05
-0.0125189 0.00103107 1e-05
-0.0122607 0.0010324 1e-05
-0.0120025 0.00103375 1e-05
-0.0117547 0.00103506 1e-05
-0.0115068 0.00103638 1e-05
-0.0112589 0.0010377 1e-05
-0.0110111 0.00103902 1e-05
-0.0107632 0.00104035 1e-05
-0.0105252 0.00104163 1e-05
-0.0102873 0.00104291 1e-05
-0.0100493 0.00104419 1e-05
-0.00981133 0.00104546 1e-05
-0.00957337 0.00104674 1e-05
-0.00934491 0.00104796 1e-05
-0.00911645 0.00104919 1e-05
-0.00888799 0.00105041 1e-05
-0.00865954 0.00105162 1e-05
-0.00843108 0.00105284 1e-05
-0.00821175 0.00105399 1e-05
-0.00799242 0.00105515 1e-05
-0.00777309 0.00105631 1e-05
-0.00755376 0.00105746 1e-05
-0.00733443 0.0010586 1e-05
-0.00712387 0.00105969 1e-05
-0.0069133 0.00106078 1e-05
-0.00670273 0.00106187 1e-05
-0.00649216 0.00106295 1e-05
-0.0062816 0.00106403 1e-05
-0.00607944 0.00106506 1e-05
-0.00587729 0.00106609 1e-05
-0.00567514 0.00106711 1e-05
-0.00547298 0.00106813 1e-05
-0.00527083 0.00106914 1e-05
-0.00507675 0.00107011 1e-05
-0.00488267 0.00107107 1e-05
-0.0046886 0.00107204 1e-05
-0.00449452 0.00107299 1e-05
-0.00430044 0.00107395 1e-05
-0.00411412 0.00107486 1e-05
-0.0039278 0.00107577 1e-05
-0.00374147 0.00107667 1e-05
-0.00355515 0.00107758 1e-05
-0.00336883 0.00107848 1e-05
-0.00318995 0.00107933 1e-05
-0.00301107 0.00108019 1e-05
-0.00283219 0.00108105 1e-05
-0.00265331 0.0010819 1e-05
-0.00247443 0.00108276 1e-05
-0.0023027 0.00108357 1e-05
-0.00213097 0.00108439 1e-05
-0.00195924 0.0010852 1e-05
-0.0017875 0.00108602 1e-05
-0.00161577 0.00108683 1e-05
-0.0014509 0.0010876 1e-05
-0.00128603 0.00108838 1e-05
-0.00112116 0.00108916 1e-05
-0.000956289 0.00108994 1e-05
-0.000791418 0.00109072 1e-05
-0.000633135 0.00109147 1e-05
-0.000474851 0.00109223 1e-05
-0.000316567 0.00109298 1e-05
-0.000158284 0.00109374 1e-05
0 0.0010945 1e-05
0.000105677 0.001095 1e-05
0.000211355 0.0010955 1e-05
0.000317032 0.001096 1e-05
0.00042271 0.0010965 1e-05
0.000528387 0.001097 1e-05
0.000634886 0.00109749 1e-05
0.000741385 0.00109799 1e-05
0.000847885 0.00109848 1e-05
0.000954384 0.00109896 1e-05
0.00106088 0.00109944 1e-05
0.00116821 0.00109992 1e-05
0.00127554 0.0011004 1e-05
0.00138286 0.00110087 1e-05
0.00149019 0.00110133 1e-05
0.00159752 0.00110179 1e-05
0.00170568 0.00110224 1e-05
0.00181384 0.00110269 1e-05
0.001922 0.00110312 1e-05
0.00203016 0.00110355 1e-05
0.00213833 0.00110397 1e-05
0.00224733 0.00110438 1e-05
0.00235633 0.00110479 1e-05
0.00246533 0.00110519 1e-05
0.00257434 0.00110558 1e-05
0.00268334 0.00110596 1e-05
0.00279319 0.00110632 1e-05
0.00290304 0.00110669 1e-05
0.00301289 0.00110705 1e-05
0.00312274 0.0011074 1e-05
0.00323259 0.00110774 1e-05
0.00334329 0.00110808 1e-05
0.003454 0.00110841 1e-05
0.0035647 0.00110873 1e-05
0.0036754 0.00110904 1e-05
0.00378611 0.00110935 1e-05
0.00389767 0.00110964 1e-05
0.00400924 0.00110994 1e-05
0.0041208 0.00111022 1e-05
0.00423237 0.0011105 1e-05
0.00434393 0.00111077 1e-05
0.00445636 0.00111103 1e-05
0.00456879 0.00111128 1e-05
0.00468123 0.00111153 1e-05
0.00479366 0.00111177 1e-05
0.00490609 0.001112 1e-05
0.0050194 0.00111222 1e-05
0.0051327 0.00111244 1e-05
0.00524601 0.00111265 1e-05
0.00535932 0.00111285 1e-05
0.00547262 0.00111305 1e-05
0.00558681 0.00111323 1e-05
0.005701 0.00111341 1e-05
0.00581518 0.00111358 1e-05
0.00592937 0.00111375 1e-05
0.00604356 0.0011139 1e-05
0.00615863 0.00111405 1e-05
0.00627371 0.00111419 1e-05
0.00638878 0.00111433 1e-05
0.00650386 0.00111445 1e-05
0.00661893 0.00111457 1e-05
0.0067349 0.00111468 1e-05
0.00685087 0.00111479 1e-05
0.00696684 0.00111489 1e-05
0.00708281 0.00111498 1e-05
0.00719878 0.00111506 1e-05
0.00730538 0.00111512 1e-05
0.00741198 0.00111518 1e-05
0.00751858 0.00111524 1e-05
0.00762517 0.00111529 1e-05
0.00772629 0.00111533 1e-05
0.00773766 0.00111533 1e-05
0.00774903 0.00111533 1e-05
0.0077604 0.00111534 1e-05
0.00777177 0.00111534 1e-05
0.00778313 0.00111534 1e-05
0.00790091 0.00111538 1e-05
0.00801869 0.00111541 1e-05
0.00813647 0.00111543 1e-05
0.00825425 0.00111544 1e-05
0.00837203 0.00111544 1e-05
0.00849073 0.00111543 1e-05
0.00860942 0.00111542 1e-05
0.00872812 0.0011154 1e-05
0.00884682 0.00111537 1e-05
0.00896551 0.00111533 1e-05
0.00908513 0.00111528 1e-05
0.00920475 0.00111522 1e-05
0.00932437 0.00111516 1e-05
0.00944398 0.00111509 1e-05
0.0095636 0.00111501 1e-05
0.00968415 0.00111491 1e-05
0.0098047 0.00111481 1e-05
0.00992525 0.00111471 1e-05
0.0100458 0.00111459 1e-05
0.0101663 0.00111447 1e-05
0.0102878 0.00111433 1e-05
0.0104093 0.00111419 1e-05
0.0105308 0.00111404 1e-05
0.0106523 0.00111388 1e-05
0.0107738 0.00111371 1e-05
0.0108962 0.00111352 1e-05
0.0110186 0.00111334 1e-05
0.0111411 0.00111314 1e-05
0.0112635 0.00111294 1e-05
0.0113859 0.00111273 1e-05
0.0115093 0.00111249 1e-05
0.0116327 0.00111226 1e-05
0.0117561 0.00111202 1e-05
0.0118795 0.00111177 1e-05
0.0120028 0.00111151 1e-05
0.0121272 0.00111122 1e-05
0.0122515 0.00111094 1e-05
0.0123759 0.00111065 1e-05
0.0125002 0.00111035 1e-05
0.0126245 0.00111005 1e-05
0.0127498 0.00110971 1e-05
0.0128752 0.00110938 1e-05
0.0130005 0.00110905 1e-05
0.0131258 0.0011087 1e-05
0.0132511 0.00110834 1e-05
0.0133774 0.00110796 1e-05
0.0135036 0.00110758 1e-05
0.0136299 0.00110719 1e-05
0.0137562 0.00110679 1e-05
0.0138825 0.00110639 1e-05
0.0140098 0.00110596 1e-05
0.014137 0.00110552 1e-05
0.0142643 0.00110508 1e-05
0.0143915 0.00110463 1e-05
0.0145188 0.00110417 1e-05
0.0146471 0.00110369 1e-05
0.0147753 0.00110321 1e-05
0.0149036 0.00110272 1e-05
0.0150318 0.00110221 1e-05
0.0151601 0.0011017 1e-05
0.0152893 0.00110117 1e-05
0.0154186 0.00110063 1e-05
0.0155478 0.00110008 1e-05
0.0156771 0.00109953 1e-05
0.0158063 0.00109896 1e-05
0.0159366 0.00109838 1e-05
0.0160668 0.00109779 1e-05
0.0161971 0.00109719 1e-05
0.0163274 0.00109658 1e-05
0.0164576 0.00109595 1e-05
0.0165889 0.00109532 1e-05
0.0167201 0.00109468 1e-05
0.0168514 0.00109402 1e-05
0.0169827 0.00109335 1e-05
0.0171139 0.00109268 1e-05
0.0172462 0.001092 1e-05
0.0173785 0.0010913 1e-05
0.0175108 0.00109059 1e-05
0.0176431 0.00108986 1e-05
0.0177754 0.00108913 1e-05
0.0179087 0.0010884 1e-05
0.018042 0.00108765 1e-05
0.0181753 0.00108688 1e-05
0.0183087 0.0010861 1e-05
0.018442 0.00108532 1e-05
0.0185763 0.00108453 1e-05
0.0187107 0.00108372 1e-05
0.018845 0.0010829 1e-05
0.0189794 0.00108206 1e-05
0.0191137 0.00108122 1e-05
0.0192491 0.00108038 1e-05
0.0193845 0.00107952 1e-05
0.0195199 0.00107864 1e-05
0.0196553 0.00107775 1e-05
0.0197907 0.00107685 1e-05
0.0199272 0.00107596 1e-05
0.0200636 0.00107504 1e-05
0.0202001 0.0010741 1e-05
0.0203365 0.00107315 1e-05
0.020473 0.00107221 1e-05
0.0206105 0.00107126 1e-05
0.020748 0.00107029 1e-05
0.0208855 0.00106929 1e-05
0.021023 0.00106829 1e-05
0.0211606 0.00106729 1e-05
0.0212991 0.00106628 1e-05
0.0214377 0.00106526 1e-05
0.0215763 0.0010642 1e-05
0.0217149 0.00106314 1e-05
0.0218535 0.00106209 1e-05
0.0219931 0.00106103 1e-05
0.0221328 0.00105995 1e-05
0.0222724 0.00105883 1e-05
0.0224121 0.00105771 1e-05
0.0225517 0.0010566 1e-05
0.0226925 0.00105549 1e-05
0.0228332 0.00105435 1e-05
0.022974 0.00105318 1e-05
0.0231147 0.001052 1e-05
0.0232555 0.00105084 1e-05
0.0233973 0.00104967 1e-05
0.0235391 0.00104847 1e-05
0.023681 0.00104724 1e-05
0.0238228 0.00104601 1e-05
0.0239647 0.00104478 1e-05
0.0241076 0.00104356 1e-05
0.0242505 0.0010423 1e-05
0.0243935 0.00104102 1e-05
0.0245364 0.00103972 1e-05
0.0246794 0.00103844 1e-05
0.0248234 0.00103715 1e-05
0.0249675 0.00103584 1e-05
0.0251115 0.0010345 1e-05
0.0252556 0.00103315 1e-05
[...]
POINT_DATA 12069
 FIELD attributes 1
U 3 12069 float
10.0004 	0.00731835 	0 10.0004 	0.00585468 	0 10.0003 	0.00439101 	0 10.0002 	0.00292734 	0 10.0001 	0.00146367 	0 10 	0 	0
10.0001 	0.000879725 	0 10 	0.00070378 	0 10 	0.000527835 	0 10 	0.00035189 	0 10 	0.000175945 	0 10 	0 	0
10.0001 	0.000466839 	0 10.0001 	0.000373282 	0 10.0001 	0.000279724 	0 10 	0.000186167 	0 10 	9.26093e-05 	0 10 	0 	0
10 	0.000267136 	0 10 	0.000213709 	0 10 	0.000160281 	0 10 	0.000106854 	0 10 	5.34272e-05 	0 10 	0 	0
10 	8.15064e-05 	0 10 	6.52051e-05 	0 10 	4.89038e-05 	0 10 	3.26026e-05 	0 10 	1.63013e-05 	0 10 	0 	0
10 	-2.52131e-05 	0 10 	-2.01705e-05 	0 10 	-1.51279e-05 	0 10 	-1.00853e-05 	0 10 	-5.04263e-06 	0 10 	0 	0
10 	-0.000215409 	0 10 	-0.000172327 	0 10 	-0.000129245 	0 10 	-8.61634e-05 	0 10 	-4.30817e-05 	0 10 	0 	0
10 	-0.000377348 	0 10 	-0.000301879 	0 10 	-0.000226409 	0 10 	-0.000150939 	0 10 	-7.54697e-05 	0 10 	0 	0
9.99999 	-0.000427259 	0 9.99999 	-0.000341807 	0 9.99999 	-0.000256355 	0 10 	-0.000170903 	0 10 	-8.54517e-05 	0 10 	0 	0
9.17387 	0.0870992 	0 9.1308 	0.0696794 	0 9.08741 	0.0522592 	0 9.04368 	0.0348389 	0 8.99962 	0.0174184 	0 8.95524 	0 	0
10.0004 	0.00731835 	0 10.0024 	0.0151687 	0 10.0045 	0.0221875 	0 10.0065 	0.0291621 	0 10.0085 	0.0360928 	0 10.0135 	0.046308 	0 10.0163 	0.0402071 	0 10.0207 	0.0401656 	0 10.0252 	0.0401242 	0 10.0296 	0.040083 	0 10.0356 	0.0445437 	0 10.0384 	0.0379034 	0 10.0424 	0.0378596 	0 10.0464 	0.0378157 	0 10.0504 	0.0377718 	0 10.0545 	0.0408732 	0 10.0567 	0.0387957 	0 10.0591 	0.0401052 	0 10.0616 	0.0414162 	0 10.064 	0.042729 	0 10.0662 	0.0451873 	0 10.0677 	0.0452987 	0 10.069 	0.0465012 	0 10.0704 	0.0477048 	0 10.0717 	0.0489096 	0 10.0728 	0.049928 	0 10.0729 	0.0499908 	0 10.073 	0.0500536 	0 10.073 	0.0501164 	0 10.0731 	0.0501792 	0 10.0732 	0.0502326 	0 10.0737 	0.0508599 	0 10.0742 	0.0514813 	0 10.0747 	0.0521031 	0 10.0753 	0.0527255 	0 10.0757 	0.0531838 	0 10.0756 	0.0534805 	0 10.0753 	0.0536716 	0 10.0749 	0.0538629 	0 10.0746 	0.0540544 	0 10.074 	0.0540073 	0 10.0736 	0.0541537 	0 10.0725 	0.0541317 	0 10.0714 	0.0541096 	0 10.0703 	0.0540876 	0 10.0688 	0.0537963 	0 10.0684 	0.0538787 	0 10.0668 	0.0537472 	0 10.0651 	0.0536157 	0 10.0635 	0.0534841 	0 10.0609 	0.0530662 	0 10.0609 	0.0531233 	0 10.0589 	0.0529315 	0 10.0569 	0.0527397 	0 10.0548 	0.0525479 	0 10.0513 	0.0520572 	0 10.0519 	0.0521144 	0 10.0496 	0.0518978 	0 10.0473 	0.0516811 	0 10.0449 	0.0514643 	0 10.0403 	0.0509409 	0 10.0418 	0.0510202 	0 10.0392 	0.0508009 	0 10.0367 	0.0505816 	0 10.0342 	0.0503622 	0 10.0284 	0.0498232 	0 10.0309 	0.0499321 	0 10.0282 	0.0497282 	0 10.0255 	0.0495242 	0 10.0229 	0.0493202 	0 10.016 	0.04879 	0 10.0196 	0.0489408 	0 10.0168 	0.048756 	0 10.0141 	0.0485711 	0 10.0113 	0.0483862 	0 10.0032 	0.0478579 	0 10.0081 	0.0480554 	0 10.0053 	0.0479386 	0 10.0026 	0.0478218 	0 9.9998 	0.0477049 	0 9.99052 	0.047258 	0 9.9967 	0.0475425 	0 9.99398 	0.0474483 	0 9.99126 	0.0473541 	0 9.98854 	0.0472599 	0 9.97806 	0.0467716 	0 9.98562 	0.047077 	0 9.98299 	0.047171 	0 9.98037 	0.0472649 	0 9.97774 	0.0473589 	0 9.9661 	0.0471399 	0 9.97519 	0.0475939 	1.06065e-21 9.97326 	0.0476407 	7.0131e-21 9.97134 	0.0476874 	1.29655e-20 9.96941 	0.0477342 	1.89178e-20 9.95738 	0.0472994 	1.60141e-20 9.96781 	0.0475296 	1.11101e-19 9.96615 	0.0473004 	1.03201e-19 9.9645 	0.0470713 	9.5299e-20 9.96285 	0.046842 	8.73935e-20 9.95064 	0.0461893 	-1.76324e-20 9.96097 	0.0461252 	-4.79118e-20 9.95935 	0.0457743 	-5.32993e-20 9.95774 	0.0454233 	-5.86846e-20 9.95612 	0.0450723 	-6.40678e-20 9.94404 	0.0444467 	-2.49879e-20 9.95392 	0.0441854 	-2.20126e-20 9.95207 	0.0435434 	-1.53014e-20 9.95023 	0.0429013 	-8.5909e-21 9.94838 	0.0422592 	-1.88094e-21 9.9364 	0.0414064 	8.36669e-21 9.94586 	0.041076 	-6.44403e-21 9.94375 	0.0402171 	-2.81721e-20 9.94164 	0.0393582 	-4.99026e-20 9.93952 	0.038499 	-7.16357e-20 9.92754 	0.0373577 	-1.0245e-19 9.93645 	0.0371223 	-1.45746e-19 9.93397 	0.0362778 	-1.31324e-19 9.93148 	0.035433 	-1.16894e-19 9.92899 	0.034588 	-1.02454e-19 9.91694 	0.0333216 	-3.48487e-20 9.92516 	0.0332112 	4.14343e-20 9.92226 	0.0324508 	5.71978e-20 9.91935 	0.0316902 	7.29499e-20 9.91644 	0.0309294 	8.86909e-20 9.90439 	0.0296444 	4.28736e-20 9.91182 	0.029566 	-5.64841e-20 9.90852 	0.0288409 	-6.36023e-20 9.9052 	0.0281156 	-7.07033e-20 9.90189 	0.0273901 	-7.77871e-20 9.88992 	0.0261236 	-3.97672e-22 9.89645 	0.0260042 	7.27525e-20 9.89271 	0.0252878 	6.1844e-20 9.88896 	0.0245711 	5.09184e-20 9.8852 	0.0238541 	3.99756e-20 9.8734 	0.0226429 	-3.2921e-20 9.87884 	0.0224593 	-9.80781e-20 9.87462 	0.0217502 	-1.23944e-19 9.87039 	0.0210408 	-1.49804e-19 9.86616 	0.0203311 	-1.75657e-19 9.85461 	0.0192017 	-1.58362e-19 9.85874 	0.0189522 	-1.82449e-19 9.85402 	0.0182546 	-1.6797e-19 9.8493 	0.0175568 	-1.53486e-19 9.84457 	0.0168587 	-1.38996e-19 9.83345 	0.015824 	-9.66064e-20 9.836 	0.0155168 	-8.13889e-20 9.83079 	0.0148356 	-5.98605e-20 9.82557 	0.0141541 	-3.83342e-20 9.82035 	0.0134723 	-1.68099e-20 9.80989 	0.0125329 	2.59127e-21 9.81056 	0.0121606 	0 9.80487 	0.0114896 	0 9.79917 	0.0108184 	0 9.79346 	0.0101469 	0 9.78397 	0.00929695 	0 9.78239 	0.00884489 	-1.89336e-20 9.77623 	0.00817955 	-4.0978e-20 9.77005 	0.00751388 	-6.30244e-20 9.76387 	0.00684788 	-8.50728e-20 9.75571 	0.00609043 	-1.08094e-19 9.75205 	0.00560011 	-1.13972e-19 9.746 	0.00499853 	-1.14749e-19 9.73995 	0.00439665 	-1.15521e-19 9.73389 	0.00379448 	-1.16288e-19 9.72814 	0.00322298 	-1.17011e-19 9.72748 	0.00315835 	-1.17219e-19 9.72683 	0.00309372 	-1.17428e-19 9.72617 	0.00302908 	-1.17636e-19 9.72551 	0.00296444 	-1.17845e-19 9.72424 	0.00287153 	-1.17842e-19 9.71766 	0.0022396 	-8.49407e-20 9.7105 	0.00158153 	-5.1073e-20 9.70333 	0.000923049 	-1.72166e-20 9.69615 	0.00026415 	1.66283e-20 9.68198 	-0.000705157 	5.87337e-20 9.6808 	-0.00108005 	5.9807e-20 9.6732 	-0.0017344 	6.11198e-20 9.66559 	-0.00238919 	6.24299e-20 9.65797 	-0.00304444 	6.37375e-20 9.63716 	-0.0042616 	6.72253e-20 9.64122 	-0.00441211 	5.30413e-20 9.63321 	-0.00506252 	3.88546e-20 9.62518 	-0.00571342 	2.46665e-20 9.61714 	-0.00636481 	1.0477e-20 9.59005 	-0.00778312 	-1.14579e-21 9.59904 	-0.00775509 	-9.87755e-21 9.59063 	-0.00840274 	-2.34165e-20 9.58221 	-0.00905093 	-3.6954e-20 9.57378 	-0.00969965 	-5.04902e-20 9.5409 	-0.0112658 	-6.4043e-20 9.55441 	-0.0111112 	-6.44041e-20 9.54564 	-0.0117583 	-7.29457e-20 9.53685 	-0.0124059 	-8.14836e-20 9.52805 	-0.0130542 	-9.00176e-20 9.49002 	-0.0147118 	-1.1126e-19 9.50753 	-0.014482 	-1.71641e-19 9.49842 	-0.0151282 	-1.60583e-19 9.4893 	-0.015775 	-1.49541e-19 9.48017 	-0.0164224 	-1.38514e-19 9.43768 	-0.0181101 	-4.81458e-20 9.45861 	-0.017856 	-3.10502e-20 9.44919 	-0.0185013 	-2.18342e-20 9.43976 	-0.0191473 	-1.26173e-20 9.43031 	-0.0197939 	-3.39933e-21 9.3841 	-0.0214551 	0 9.40787 	-0.0212277 	0 9.39816 	-0.0218739 	0 9.38845 	-0.0225207 	0 9.37871 	-0.0231683 	0 9.32954 	-0.0247509 	0 9.35555 	-0.0246005 	2.07106e-21 9.34559 	-0.0252486 	1.06319e-20 9.33561 	-0.0258974 	1.91917e-20 9.32562 	-0.026547 	2.77506e-20 9.27423 	-0.0279983 	4.82917e-20 9.3019 	-0.0279735 	1.82863e-19 9.29171 	-0.0286228 	1.86277e-19 9.28151 	-0.0292729 	1.89709e-19 9.27129 	-0.0299238 	1.93158e-19 9.21838 	-0.0311913 	4.85147e-20 9.24717 	-0.0313337 	2.61918e-20 9.23679 	-0.0319829 	1.85124e-20 9.22638 	-0.0326329 	1.08318e-20 9.2144 	-0.0332977 	4.03522e-21 9.16217 	-0.0343229 	2.00463e-20 9.18858 	-0.0346904 	1.21598e-19 9.18105 	-0.0353156 	1.3128e-19 9.17047 	-0.0359647 	1.32748e-19 9.15437 	-0.0366303 	1.17653e-19 9.10579 	-0.0373893 	4.56547e-21 9.12885 	-0.0379754 	-1.15552e-19 9.12473 	-0.0386106 	-1.48579e-19 9.114 	-0.0392584 	-1.60437e-19 9.09451 	-0.0398732 	-1.49383e-19 9.04939 	-0.0403899 	-7.11231e-20 9.06933 	-0.0411725 	-2.07068e-19 9.06807 	-0.0418609 	-2.51295e-19 9.0572 	-0.0425072 	-2.53991e-19 9.03498 	-0.0430263 	-2.01785e-19 8.99313 	-0.0433249 	-5.45601e-20 9.01016 	-0.0442812 	-2.87368e-20 9.01125 	-0.0450599 	-1.28165e-20 9.00028 	-0.0457045 	-4.38225e-21 8.97593 	-0.0460902 	0 8.93713 	-0.0461959 	0 8.95151 	-0.0473045 	0 8.95448 	-0.0482045 	0 8.94342 	-0.0488472 	0 8.91749 	-0.0490684 	2.29104e-21 8.88153 	-0.0490048 	6.12954e-21 8.89347 	-0.0502438 	2.47229e-21 8.89792 	-0.0512896 	0 8.88679 	-0.0519304 	0 8.85977 	-0.0519635 	2.74993e-21 8.82642 	-0.0517549 	6.59343e-21 8.83615 	-0.0531052 	2.93578e-21 8.84174 	-0.0543161 	1.50397e-21 8.83057 	-0.0549551 	9.13018e-21 8.80285 	-0.0547819 	2.82971e-20 8.7719 	-0.0544496 	4.97239e-20 8.77964 	-0.0558913 	1.9538e-19 8.78606 	-0.0572798 	3.31421e-19 8.77485 	-0.0579172 	3.35507e-19 8.74681 	-0.0575271 	1.9598e-19 8.71805 	-0.057093 	5.03345e-20 8.72401 	-0.0586105 	2.92241e-20 8.72992 	-0.0601297 	8.11532e-21 8.71849 	-0.0607257 	3.10361e-22 8.69172 	-0.0602092 	3.99984e-21 8.66496 	-0.0596923 	7.68915e-21 8.66932 	-0.0612698 	4.19065e-21 8.67361 	-0.062849 	6.93149e-22 8.66258 	-0.0634146 	2.5522e-21 8.63763 	-0.0628323 	-1.97107e-21 8.6127 	-0.0622495 	-6.49323e-21 8.61562 	-0.0638732 	-5.68558e-20 8.61849 	-0.0654985 	-1.07223e-19 8.60788 	-0.0660345 	-1.08797e-19 8.58459 	-0.0654023 	-6.27347e-20 8.56131 	-0.0647697 	-1.667e-20 8.56297 	-0.0664322 	9.81514e-20 8.56457 	-0.0680964 	2.12966e-19 8.55443 	-0.0686043 	2.22839e-19 8.53263 	-0.0679326 	1.2718e-19 8.51085 	-0.0672604 	3.15204e-20 8.5114 	-0.0689519 	1.83162e-20 8.51189 	-0.070645 	5.10776e-21 8.50225 	-0.071126 	5.19987e-22 8.48179 	-0.070426 	5.90391e-21 8.46136 	-0.0697256 	1.12898e-20 8.46093 	-0.071432 	4.81427e-21 8.46045 	-0.07314 	-1.66751e-21 8.45131 	-0.0735947 	-2.39663e-20 8.43207 	-0.0728814 	-8.18591e-20 8.41284 	-0.0721676 	-1.39754e-19 8.41156 	-0.0738729 	-2.91129e-19 8.41022 	-0.0755798 	-4.42497e-19 8.40161 	-0.0760108 	-4.24765e-19 8.38345 	-0.0753041 	-2.51243e-19 8.36531 	-0.0745968 	-7.77229e-20 8.36327 	-0.0762964 	6.56941e-20 8.36107 	-0.0779736 	2.06464e-19 8.35266 	-0.0783543 	2.03644e-19 8.33593 	-0.077718 	1.04613e-19 8.31877 	-0.0770269 	4.48263e-22 8.31607 	-0.0787166 	-1.02869e-19 8.31244 	-0.0801997 	-1.91379e-19 8.30417 	-0.0805892 	-2.02016e-19 8.2895 	-0.0801337 	-1.32439e-19 8.27324 	-0.0794658 	-4.27404e-20 8.26994 	-0.0811432 	-2.98082e-20 8.26516 	-0.082434 	-1.69907e-20 8.25702 	-0.0828339 	-4.43022e-21 8.24414 	-0.0825611 	1.5381e-20 8.22869 	-0.0819213 	3.91455e-20 8.22487 	-0.0835852 	1.39155e-20 8.21916 	-0.0846878 	-2.99058e-21 8.21114 	-0.0850995 	-9.65808e-21 8.19982 	-0.085009 	-4.53954e-21 8.18511 	-0.0844011 	1.27148e-20 8.18082 	-0.086051 	-6.46893e-21 8.17438 	-0.0869712 	-1.85933e-20 8.16648 	-0.087396 	-2.59267e-20 8.15651 	-0.0874859 	-3.91645e-20 8.14247 	-0.0869127 	-6.40796e-20 8.13777 	-0.0885489 	6.07608e-20 8.13078 	-0.0892933 	9.45928e-20 8.12299 	-0.0897325 	9.72604e-20 8.11419 	-0.0899999 	8.05963e-20 8.10076 	-0.0894638 	-2.62913e-20 8.09569 	-0.0910867 	7.90076e-20 8.08829 	-0.0916627 	9.31187e-20 8.08059 	-0.0921175 	9.66505e-20 8.07281 	-0.0925589 	9.88536e-20 8.05994 	-0.0920615 	1.12501e-20 8.05444 	-0.093616 	-7.34271e-22 8.04685 	-0.0940874 	-5.01143e-22 8.03925 	-0.094559 	-2.68043e-22 8.03163 	-0.095031 	-3.49687e-23 8.01998 	-0.0947131 	1.94328e-20 8.01393 	-0.0960857 	0 8.00643 	-0.096575 	0 7.99891 	-0.0970647 	0 7.99138 	-0.0975546 	0 7.98086 	-0.0974258 	1.57362e-20 7.97439 	-0.0986247 	0 7.96697 	-0.0991331 	0 7.95952 	-0.0996418 	0 7.95206 	-0.100151 	0 7.94253 	-0.100207 	0 7.93576 	-0.10124 	0 7.9284 	-0.101769 	0 7.92103 	-0.102297 	0 7.91363 	-0.102827 	0 7.90496 	-0.103063 	-7.58855e-21 7.89798 	-0.103939 	0 7.89068 	-0.104488 	0 7.88337 	-0.105039 	0 7.87603 	-0.105589 	0 7.86811 	-0.106001 	-7.34441e-21 7.8615 	-0.106686 	0 7.85477 	-0.107218 	0 7.84802 	-0.107751 	0 7.84125 	-0.108283 	0 7.83473 	-0.108794 	0 7.83415 	-0.108839 	0 7.83356 	-0.108884 	0 7.83298 	-0.108928 	0 7.83239 	-0.108973 	0 7.83187 	-0.109005 	0 7.82446 	-0.109614 	-1.0831e-20 7.81705 	-0.110211 	-2.182e-20 7.80962 	-0.110809 	-3.28073e-20 7.80216 	-0.111408 	-4.37929e-20 7.79558 	-0.111829 	-5.47864e-20 7.78789 	-0.112611 	-5.17772e-20 7.78051 	-0.113233 	-5.10079e-20 7.77311 	-0.113856 	-5.02349e-20 7.76569 	-0.114479 	-4.94583e-20 7.75997 	-0.114767 	-5.30626e-20 7.75199 	-0.115718 	-4.11561e-20 7.74463 	-0.116367 	-2.92282e-20 7.73726 	-0.117015 	-1.72984e-20 7.72986 	-0.117664 	-5.36671e-21 7.72498 	-0.117826 	0 7.71669 	-0.118942 	-2.20933e-21 7.70936 	-0.119617 	-7.62335e-21 7.702 	-0.120293 	-1.30364e-20 7.69462 	-0.120969 	-1.84484e-20 7.69055 	-0.121011 	-2.38273e-20 7.68196 	-0.122289 	-5.94909e-20 7.67464 	-0.122992 	-8.18791e-20 7.6673 	-0.123696 	-1.04269e-19 7.65992 	-0.1244 	-1.26662e-19 7.65665 	-0.12433 	-1.11361e-19 7.64775 	-0.125766 	-8.29364e-20 7.64043 	-0.1265 	-7.02277e-20 7.63309 	-0.127235 	-5.75106e-20 7.62621 	-0.127878 	-4.92484e-20 7.62321 	-0.127794 	-7.66379e-20 7.61433 	-0.129247 	-9.23912e-20 7.60668 	-0.130152 	-7.89789e-20 7.59933 	-0.130918 	-5.81841e-20 7.59327 	-0.131441 	-3.23121e-20 7.5902 	-0.131409 	5.18645e-21 7.58133 	-0.132877 	9.99927e-21 7.57335 	-0.133953 	8.61923e-21 7.56598 	-0.134751 	2.87237e-21 7.56072 	-0.135161 	0 7.55757 	-0.135181 	0 7.5487 	-0.136665 	0 7.54037 	-0.137907 	0 7.53299 	-0.13874 	0 7.5285 	-0.139041 	0 7.52526 	-0.139115 	0 7.51639 	-0.140616 	0 7.50771 	-0.142023 	-2.96976e-21 7.5003 	-0.14289 	-2.27855e-20 7.49657 	-0.14309 	-4.26808e-20 7.49323 	-0.143217 	-6.25847e-20 7.48435 	-0.144738 	-4.09684e-20 7.47542 	-0.146259 	-1.93442e-20 7.4683 	-0.14713 	4.21044e-21 7.46486 	-0.147311 	8.78047e-21 7.46142 	-0.147493 	1.33504e-20 7.45253 	-0.149035 	4.96735e-20 7.44358 	-0.150577 	8.59946e-20 7.4369 	-0.151477 	9.99025e-20 7.43335 	-0.151713 	8.32738e-20 7.4298 	-0.15195 	6.66427e-20 7.42088 	-0.153515 	3.96296e-20 7.41191 	-0.15508 	1.26063e-20 7.40564 	-0.15601 	5.55334e-21 7.40198 	-0.156301 	1.59632e-20 7.3983 	-0.156592 	2.63744e-20 7.38935 	-0.158182 	9.69929e-20 7.38034 	-0.159772 	1.67615e-19 7.37448 	-0.160735 	1.68408e-19 7.37069 	-0.161081 	9.85693e-20 7.36688 	-0.161427 	2.87282e-20 7.35789 	-0.163043 	1.92839e-20 7.34884 	-0.16466 	9.84397e-21 7.34341 	-0.16564 	1.0181e-20 7.33943 	-0.166056 	2.00471e-20 7.33548 	-0.166457 	3.01806e-20 7.32645 	-0.168101 	9.89528e-20 7.31811 	-0.169614 	1.52938e-19 7.31265 	-0.170622 	1.50288e-19 7.30817 	-0.171233 	1.00604e-19 7.30407 	-0.171688 	3.26445e-20 7.29498 	-0.173362 	2.35087e-20 7.28742 	-0.174761 	1.43028e-20 7.28183 	-0.175811 	5.00599e-21 7.27685 	-0.176613 	0 7.27259 	-0.177124 	0 7.26343 	-0.178827 	0 7.25662 	-0.180117 	0 7.25091 	-0.181211 	0 7.24542 	-0.182202 	0 7.24098 	-0.182767 	0 7.23175 	-0.184502 	0 7.22567 	-0.185686 	0 7.21982 	-0.186824 	0 7.21392 	-0.187962 	0 7.20921 	-0.188623 	1.61697e-20 7.20048 	-0.190289 	1.63624e-21 7.19452 	-0.191471 	1.11784e-20 7.18852 	-0.192653 	2.07235e-20 7.18248 	-0.193835 	3.02714e-20 7.17722 	-0.194693 	4.28051e-20 7.16924 	-0.196249 	9.93815e-20 7.16312 	-0.197475 	1.03991e-19 7.15697 	-0.198701 	1.08574e-19 7.15077 	-0.199928 	1.13129e-19 7.14497 	-0.20098 	7.52042e-20 7.13771 	-0.202428 	1.03447e-19 7.13143 	-0.203699 	8.99242e-20 7.12511 	-0.20497 	7.63734e-20 7.11874 	-0.206242 	6.27945e-20 7.1124 	-0.207487 	4.47834e-20 7.11109 	-0.20775 	4.42473e-20 7.10994 	-0.207987 	4.43508e-20 7.10878 	-0.208224 	4.44545e-20 7.10762 	-0.208461 	4.45585e-20 7.10648 	-0.208695 	4.46613e-20 7.10103 	-0.209773 	4.34543e-20 7.09555 	-0.210851 	4.22429e-20 7.09004 	-0.21193 	4.10269e-20 7.08449 	-0.213008 	3.98065e-20 7.07993 	-0.213976 	4.18377e-20 7.07257 	-0.215444 	3.76578e-20 7.06574 	-0.216804 	3.65867e-20 7.05886 	-0.218163 	3.55088e-20 7.05193 	-0.219522 	3.44241e-20 7.04721 	-0.220639 	4.27008e-20 7.03894 	-0.222285 	4.92886e-20 7.03192 	-0.223689 	4.22036e-20 7.02484 	-0.225093 	3.51288e-20 7.01772 	-0.226498 	2.80643e-20 7.01406 	-0.227529 	3.187e-21 7.00485 	-0.229351 	-2.99052e-22 6.99762 	-0.2308 	-1.95493e-22 6.99033 	-0.23225 	-9.1893e-23 6.98349 	-0.233648 	0 6.98042 	-0.234645 	0 6.97083 	-0.236537 	0 6.96279 	-0.238138 	-1.092e-20 6.95529 	-0.239632 	-2.58102e-20 6.94955 	-0.240939 	-3.89676e-20 6.94624 	-0.241988 	-4.9745e-20 6.93644 	-0.243918 	-3.63891e-20 6.92739 	-0.245701 	-2.17677e-20 6.91967 	-0.247239 	-5.0527e-21 6.91503 	-0.248455 	5.19533e-21 6.91148 	-0.249556 	1.31205e-20 6.90146 	-0.251524 	6.32441e-21 6.89138 	-0.253489 	-3.2287e-22 6.88366 	-0.255047 	1.52096e-20 6.8799 	-0.256197 	3.80734e-20 6.8761 	-0.257348 	6.09369e-20 6.86584 	-0.259354 	3.69821e-20 6.85551 	-0.26136 	1.30224e-20 6.84812 	-0.262963 	-1.35154e-21 6.8441 	-0.264163 	-4.96385e-21 6.84004 	-0.265363 	-8.57791e-21 6.82954 	-0.267407 	-6.44055e-20 6.81897 	-0.26945 	-1.20235e-19 6.81189 	-0.271102 	-1.29271e-19 6.8076 	-0.27235 	-8.5451e-20 6.80326 	-0.273598 	-4.16317e-20 6.79251 	-0.275679 	-8.63185e-20 6.782 	-0.277729 	-1.2721e-19 6.77529 	-0.279397 	-1.20997e-19 6.77034 	-0.280756 	-8.12476e-20 6.76573 	-0.282051 	-3.46047e-20 6.75472 	-0.284169 	-8.15883e-20 6.74543 	-0.286111 	-1.03838e-19 6.73844 	-0.287821 	-9.3449e-20 6.7323 	-0.289378 	-6.55564e-20 6.72739 	-0.29072 	-1.26639e-20 6.71611 	-0.292875 	-9.71452e-21 6.70806 	-0.294707 	-6.53632e-21 6.70079 	-0.296457 	-3.30099e-21 6.69347 	-0.298207 	-6.7644e-23 6.68821 	-0.299602 	0 6.67735 	-0.301724 	0 6.66985 	-0.303514 	0 6.66229 	-0.305304 	0 6.65467 	-0.307094 	0 6.64814 	-0.308693 	0 6.63857 	-0.3107 	-1.89907e-21 6.63077 	-0.312529 	-5.33892e-21 6.62291 	-0.314358 	-8.7806e-21 6.61499 	-0.316186 	-1.22241e-20 6.60715 	-0.317991 	-1.48491e-20 6.60578 	-0.318276 	-1.80559e-20 6.60464 	-0.31854 	-1.75108e-20 6.60351 	-0.318803 	-1.69652e-20 6.60237 	-0.319067 	-1.6419e-20 6.60124 	-0.319328 	-1.58779e-20 6.59387 	-0.320927 	-1.33718e-20 6.58645 	-0.322526 	-1.08503e-20 6.57898 	-0.324125 	-8.31334e-21 6.57146 	-0.325723 	-5.76083e-21 6.56485 	-0.3272 	-1.69855e-20 6.55552 	-0.329231 	-8.14199e-21 6.54658 	-0.331129 	8.06097e-22 6.53756 	-0.333026 	9.75207e-21 6.52847 	-0.334923 	1.86959e-20 6.52142 	-0.336557 	2.46676e-20 6.51117 	-0.338778 	1.84347e-20 6.50186 	-0.34071 	1.99049e-20 6.49248 	-0.342643 	2.13643e-20 6.48369 	-0.344493 	2.61396e-20 6.47681 	-0.346101 	4.08059e-20 6.46615 	-0.348358 	4.89909e-20 6.45591 	-0.350479 	5.22673e-20 6.44616 	-0.352445 	4.9975e-20 6.43821 	-0.354182 	3.22932e-20 6.43097 	-0.355826 	8.37016e-21 6.41992 	-0.358112 	2.93254e-20 6.40879 	-0.360397 	5.02705e-20 6.39902 	-0.362367 	4.24207e-20 6.39147 	-0.364047 	1.13315e-20 6.38385 	-0.365726 	-1.97661e-20 6.3724 	-0.368037 	-1.20672e-20 6.36087 	-0.370348 	-4.37095e-21 6.35134 	-0.372368 	2.3815e-21 6.34341 	-0.374079 	3.10073e-21 6.3354 	-0.375791 	3.82718e-21 6.32354 	-0.378127 	5.48425e-21 6.31205 	-0.38041 	7.06591e-21 6.30269 	-0.382434 	8.24004e-21 6.29398 	-0.384272 	1.24244e-20 6.28558 	-0.386013 	1.81693e-20 6.2733 	-0.388372 	1.36276e-20 6.26276 	-0.390519 	9.07671e-21 6.25299 	-0.392568 	4.52374e-21 6.24315 	-0.394614 	0 6.23434 	-0.396382 	0 6.22218 	-0.398697 	0 6.21207 	-0.400769 	0 6.20189 	-0.402839 	0 6.19162 	-0.404909 	0 6.18162 	-0.406889 	0 6.17612 	-0.40793 	1.04878e-21 6.17128 	-0.408894 	3.36507e-21 6.16643 	-0.409857 	5.68218e-21 6.16155 	-0.410821 	8.00009e-21 6.15683 	-0.411752 	1.02407e-20 6.1513 	-0.412886 	1.23761e-20 6.14575 	-0.414021 	1.45104e-20 6.14017 	-0.415155 	1.66435e-20 6.13457 	-0.416288 	1.87755e-20 6.12903 	-0.417331 	2.38102e-20 6.11886 	-0.419549 	3.44026e-20 6.10834 	-0.421659 	3.76412e-20 6.09773 	-0.423768 	4.09033e-20 6.08704 	-0.425877 	4.41889e-20 6.07648 	-0.427724 	2.8204e-20 6.06635 	-0.430133 	3.07859e-20 6.05543 	-0.432278 	2.50142e-20 6.04437 	-0.434401 	1.85657e-20 6.03333 	-0.436399 	7.2273e-21 6.02235 	-0.438211 	-1.15111e-20 6.01176 	-0.440627 	-4.18298e-20 6.00094 	-0.442991 	-6.64973e-20 5.98942 	-0.445123 	-6.62735e-20 5.97804 	-0.446954 	-4.24038e-20 5.96659 	-0.448776 	-1.78907e-20 5.95553 	-0.451196 	2.11812e-20 5.94438 	-0.453615 	6.02438e-20 5.93295 	-0.455745