/*--------------------------------*- C++ -*----------------------------------*\
| =========                 |                                                 |
| \\      /  F ield         | OpenFOAM: The Open Source CFD Toolbox           |
|  \\    /   O peration     | Version:  2312                                  |
|   \\  /    A nd           | Website:  www.openfoam.com                      |
|    \\/     M anipulation  |                                                 |
\*---------------------------------------------------------------------------*/
FoamFile
{
    version     2.0;
    format      ascii;
    arch        "LSB;label=64;scalar=64";
    class       volScalarField;
    location    "140";
    object      omega;
}
// * * * * * * * * * * * * * * * * * * * * * * * * * * * * * * * * * * * * * //

dimensions      [0 0 -1 0 0 0 0];

internalField   nonuniform List<scalar> 
404911
(
278.86
215.085
3449.62
1536.6
193.319
209.722
177.821
605.364
342.241
282.284
234.907
314.689
194.279
287.378
427.72
1113.35
251.271
203.069
223.34
344.644
485.415
252.054
699.132
482.283
205.787
969.915
254.372
174.761
225.159
976.171
217.691
162.483
300.849
435.66
215.501
156.626
298.659
414.758
215.821
129.037
228.066
1005.88
206.485
115.213
128.826
382.188
318.021
118.255
127.418
739.664
381.981
298.911
173.917
1334.76
333.727
573.044
9402.61
149.843
314.928
212.939
242.781
143.782
173.547
93.0434
87.1352
188.885
185.651
355.395
152.173
101.433
142.161
51.4008
156.28
93.366
47.1883
597.218
2269.15
228.886
81.9533
188.849
79.5519
196.26
50.4037
92.9929
144.362
72.2622
266.195
67.558
1124.32
195.814
171.176
2960.66
143.211
220.546
141.141
95.7671
116.191
222.144
90.8931
219.389
634.338
133.402
115.273
480.837
1260.11
507.085
252.922
696.441
342.408
270.75
213.351
219.802
211.884
225.15
2295.25
539.847
235.02
4563.02
605.961
195.923
196.991
193.486
192.432
269.948
1335.59
333.888
227.05
216.62
195.19
545.529
483.472
521.541
190.678
177.537
185.385
175.149
229.02
246.636
183.695
285.173
1198.33
319.954
209.322
194.846
196.219
190.567
185.749
169.753
508.404
446.858
174.884
166.308
187.532
1789.9
292.484
1002.18
261.987
183.569
173.979
183.179
181.651
184.946
181.612
172.385
164.011
160.775
164.764
168.513
185.82
262.101
406.514
597.241
456.297
423.533
421.79
421.861
508.599
177.931
176.469
164.995
166.103
168.33
181.074
197.53
206.348
206.948
296.563
715.057
467.604
396.652
388.011
262.397
334.147
519.799
442.089
166.419
167.384
164.955
177.148
188.748
198.406
232.615
1185.25
1001.91
261.396
594.005
302.208
257.769
230.966
338.971
395.231
289.879
333.566
408.162
433.568
151.714
169.777
180.896
184.762
213.184
508.339
871.97
606.041
271.136
245.98
176.771
218.705
219.559
240.039
337.949
358.755
355.351
255.121
135.745
175.661
185.197
208.291
305.373
1226.06
1222.47
282.827
134.919
197.353
178.468
158.828
154.978
185.901
392.135
267.349
210.581
172.159
189.874
281.289
467.705
178.097
220.328
1125.64
460.791
165.076
116.073
252.978
175.191
157.429
150.276
169.319
163.831
167.458
154.292
181.986
232.627
374.407
456.532
534.662
429.671
480.868
211.699
156.996
405.83
200.43
157.721
167.323
147.155
156.613
178.227
160.419
167.4
318.889
342.312
428.778
476.426
1700.64
363.537
182.517
161.476
139.542
147.494
159.056
162.55
148.745
154.29
149.194
152.106
159.929
173.634
411.82
375.857
434.912
244.908
1037.66
990.448
896.111
303.926
243.086
124.726
112.266
174.451
145.353
156.287
156.678
160.848
157.268
146.775
160.765
214.163
342.72
184.68
545.417
1116.45
253.599
149.803
155.452
158.897
153.013
151.751
99.0256
163.423
135.478
163.265
127.492
122.18
147.162
150.149
197.713
494.649
263.97
473.023
162.794
119.832
121.674
119.981
215.188
135.699
142.478
90.4956
111.252
95.6812
102.675
136.038
113.205
148.107
232.477
192.57
1016.61
1152.66
269.751
153.89
123.476
107.09
98.8159
124.695
120.35
106.277
97.6024
88.0894
129.113
128.142
143.271
127.295
142.674
395.303
914.704
356.566
149.073
126.395
175.962
198.542
116.75
118.679
110.862
90.1371
82.7163
85.6006
108.572
136.607
142.956
169.863
146.237
293.803
736.523
1122.07
909.737
324.281
183.052
151.88
146.173
157.738
111.59
113.686
99.0927
92.2646
92.9949
99.2775
122.402
172.811
163.978
160.378
459.771
446.031
175.869
155.661
143.526
131.081
120.327
107.531
152.94
106.26
146.047
116.379
109.012
107.704
130.711
126.323
149.318
296.071
988.947
195.096
129.475
157.037
111.954
111.512
114.911
102.199
111.574
113.259
126.19
141.33
141.126
131.368
130.2
195.549
167.842
334.056
439.098
145.632
171.157
144.298
107.384
99.9553
114.383
98.1922
85.7035
109.292
150.136
133.209
129.283
152.498
149.707
197.8
188.84
1018.52
255.525
122.257
112.139
97.3961
97.4778
94.9363
101.365
123.554
74.429
71.3642
88.3007
121.28
149.746
163.098
215.905
175.952
299.039
1210.74
463.489
177.797
123.799
106.249
96.9815
90.6965
98.2279
98.2812
81.0516
79.0833
75.5093
82.5987
92.9087
107.388
198.572
120.456
193.908
1029.27
1125.88
232.435
121.641
152.778
111.297
97.9578
92.2796
89.3021
85.4919
91.2651
74.2764
87.8795
112.784
109.391
114.474
123.094
162.711
308.493
426.346
148.1
116.858
100.501
93.0351
89.4723
87.7849
93.2613
102.113
82.3344
80.6314
86.7306
107.858
136.797
157.892
153.703
187.803
1022.96
1140.66
228.501
115.453
106.044
93.4846
87.5658
83.9002
82.3097
82.3506
88.5732
104.289
99.6167
100.247
102.503
121.442
139.419
180.829
279.784
910.791
156.58
123.037
105.204
92.3124
85.8334
80.173
78.1009
77.6849
78.7346
80.0003
89.7811
94.8165
100.565
110.889
138.937
203.828
333.317
276.87
129.088
141.703
113.377
96.2116
86.4258
81.3917
75.2882
71.6899
73.8467
78.4434
85.7777
94.7499
100.823
121.215
137.085
172.677
519.417
253.186
146.756
142.334
110.288
98.9543
87.6638
84.9232
77.9129
70.0529
69.3994
75.2783
84.2362
94.0065
112.875
117.822
134.538
257.97
1134.33
1178.59
190.314
119.422
123.789
109.582
98.193
90.5603
85.294
90.0732
80.6003
73.6085
76.1929
84.8285
94.5499
107.862
156.581
174.048
473.78
946.452
172.38
119.905
100.238
93.5133
90.3326
85.8583
80.2633
76.8379
83.6051
81.5859
80.8455
86.4456
96.989
106.703
140.149
181.103
1084.01
296.226
146.642
126.292
105.075
96.2682
93.5413
87.4701
77.9859
71.1137
68.0957
71.8201
79.11
88.9026
95.437
127.584
121.552
188.499
1119.68
280.812
128.598
107.764
97.0257
90.4332
96.0879
99.6908
72.9824
67.574
69.2851
75.2055
82.4483
91.6209
100.987
112.339
131.837
277.453
1046.56
205.471
125.813
107.892
94.8608
88.8524
81.4913
89.9507
89.198
61.4092
62.5224
72.4243
81.5687
90.858
102.126
126.766
155.583
457.111
442.51
155.029
150.689
140.433
102.183
91.8108
83.3995
69.7108
84.2653
72.5606
55.1693
70.7263
84.3194
90.8554
101.908
125.678
174.407
1017.23
289.051
132.416
106.1
96.8131
89.184
90.2786
97.4186
84.5371
76.6032
56.9703
75.0099
74.9059
85.7932
92.7937
99.567
135.69
222.806
1151.92
1067.17
191.234
123.608
110.031
95.0299
88.2503
81.3491
91.4348
91.4549
81.4827
74.5297
54.8778
77.1428
90.6114
93.025
110.93
121.588
250.409
1060.07
179.6
117.663
99.3532
89.7802
84.7498
80.6564
76.1307
87.91
87.9693
81.6707
70.4151
67.1536
82.0788
95.4469
105.856
134.847
426.154
1041.77
176.544
117.62
96.6295
89.4714
83.3779
77.9996
74.9503
72.7613
71.9355
64.9053
77.7895
69.2643
87.6103
105.631
130.072
149.809
910.723
1036.4
171.068
116.361
96.03
87.5813
83.2739
76.9862
71.9231
72.252
74.9551
64.7808
62.6211
77.156
93.0827
108.688
147.532
210.322
1137.91
282.462
150.104
120.346
99.2731
88.2568
80.7513
74.8666
69.758
66.9745
70.0438
73.8314
70.1165
77.7785
93.5016
106.691
142.127
235.343
1166.62
260.08
128.767
107.854
97.701
88.3449
80.2381
71.7466
66.5052
67.4132
65.3679
71.0848
85.4567
89.6246
98.0342
100.924
141.859
231.423
1120.13
179.774
132.612
128.751
98.4058
89.8664
81.4842
74.5803
67.7761
63.9307
67.0203
69.2248
74.1032
87.5711
100.898
114.284
127.725
248.757
997.988
176.878
118.596
96.4791
89.7027
85.6993
80.6753
77.164
79.0429
74.9325
68.7923
69.4618
75.4148
81.9075
90.8071
111.23
124.893
264.189
1064.71
176.98
117.67
96.5704
87.3032
83.4991
77.5615
72.2365
69.4155
76.7501
78.7938
71.3828
75.8055
83.0742
90.2551
111.773
131.68
282.985
1060.94
179.013
123.998
96.9692
86.6044
80.1856
73.073
65.6997
62.2766
58.7888
61.1756
67.1055
76.9659
84.1177
92.8125
108.17
143.505
433.044
990.783
168.177
119.478
96.5778
85.2549
77.0297
67.5052
60.2997
54.6311
55.2109
58.4324
67.5782
77.6157
85.8074
93.4542
113.764
169.386
1002.27
290.233
162.7
115.197
98.0443
86.0889
74.2383
63.8723
55.2574
49.9089
48.0526
55.3083
66.5106
76.8234
85.6855
94.5894
112.786
170.604
1083.61
293.09
156.737
111.179
98.9642
91.1264
74.7074
63.7508
54.9434
47.155
42.7649
49.2868
67.5182
78.4486
84.9868
96.0598
117.082
168.56
1047.62
1171.68
202.612
149.344
113.73
94.691
94.4709
90.3031
59.7068
61.6346
47.2185
48.8071
47.7577
63.9566
82.5256
87.6834
95.1566
128.122
181.944
1033.39
1053.79
164.076
114.276
158.2
107.314
87.5432
88.0312
82.9277
63.6077
52.9793
47.8186
46.2396
68.3086
93.3409
93.6211
99.139
121.972
227.15
167.716
109.521
91.8648
86.6376
84.3052
80.5934
70.8537
63.3088
58.7528
57.7459
46.5553
67.0396
78.4315
91.4097
113.739
117.926
239.281
981.052
164.456
106.53
86.9584
82.3704
82.3051
81.4425
75.8097
64.1565
68.8598
50.5328
43.5841
60.1438
84.9499
91.4983
122.3
126.545
282.906
1021.57
155.776
103.832
85.2075
81.9373
81.4092
78.211
78.848
73.3126
56.9547
60.9809
53.9829
70.637
88.1312
89.4713
113.967
132.532
432.285
1124.71
156.165
108.025
88.6601
82.2673
80.0726
76.3414
72.9867
76.5729
68.5492
51.6837
67.9712
83.3692
85.8298
92.5126
103.805
140.066
854.686
145.819
125.254
99.2705
84.6608
77.7509
76.4967
72.5896
69.5438
74.9918
61.8379
65.3001
72.1955
78.8785
91.6906
112.877
162.745
956.923
742.527
213.37
101.461
82.2424
74.277
71.2965
72.9377
69.2339
62.1087
64.806
63.281
74.5406
78.7988
88.9012
120.315
168.244
1055.22
2170.76
308.504
154.743
116.154
77.2459
67.1215
65.9402
64.928
70.6076
67.8655
67.8779
72.7621
78.4811
82.2902
92.6132
117.528
187.769
1102.87
265.34
121.993
112.405
85.0644
63.8327
59.0823
57.7556
58.2648
64.085
72.5937
65.1617
65.6335
79.0743
82.9823
100.527
122.036
254.257
247.25
119.682
102.772
76.9806
57.8661
51.7608
52.2203
56.7642
54.2948
70.1563
61.9266
70.526
85.338
90.3556
100.712
125.489
272.993
1174.74
214.558
113.974
104.181
92.7645
75.952
71.8795
58.7162
46.5674
54.6897
53.1658
54.9959
74.2068
91.2136
103.683
119.152
144.861
847.764
949.08
162.906
119.972
95.202
87.6454
75.1766
143.049
140.4
60.4935
41.8492
57.364
69.4892
81.021
96.228
118.741
143.482
157.434
981.85
823.512
125.986
209.866
139.408
94.4374
60.4338
67.3466
94.2442
168.389
76.7726
48.7895
72.4333
97.037
111.353
130.447
168.344
164.998
999.517
435.262
118.457
126.096
106.03
87.7594
55.6678
76.5247
76.0044
82.5729
88.5806
68.193
87.5181
103.293
108.942
122.849
183.134
174.714
1044.11
1027.64
230.384
117.946
122.049
117.675
89.8013
51.1487
55.6061
89.5671
116.058
85.1433
86.3298
99.2226
102.909
98.6003
117.96
148.086
312.528
1057.05
922.141
145.192
160.152
117.271
111.647
99.1942
50.2818
26.1564
35.3584
57.8618
67.9653
75.0266
82.7702
88.1832
95.2869
103.437
122.768
193.515
1091.07
220.482
135.39
113.476
109.643
92.3896
48.4331
28.5954
23.958
32.323
45.4504
69.0117
82.2999
88.6202
96.1917
113.042
124.797
249.326
1215.67
253.206
133.821
133.118
119.711
93.8293
36.2172
48.864
50.3779
32.0981
41.1548
60.7983
87.7488
91.8489
98.1223
116.774
134.744
290.451
256.727
141.898
144.331
128.839
102.035
36.22
28.33
44.883
44.2043
46.4222
76.3197
94.6491
96.3242
100.452
122.374
141.304
444.807
226.279
225.256
161.618
132.94
101.842
27.8591
20.5352
25.8102
37.9806
51.897
77.1671
100.88
100.548
108.316
117.845
149.045
892.461
973.874
161.473
143.413
131.606
124.784
100.407
38.2932
21.029
25.3875
39.7505
70.2658
99.1581
110.543
108.906
110.391
142.342
183.711
996.858
927.172
169.587
152.13
128.94
119.425
100.579
31.5791
24.6685
28.1239
43.5896
73.6068
102.239
108.882
106.804
119.67
126.968
266.744
863.856
144.7
112.888
108.356
110.735
100.351
49.7902
25.8828
31.1684
49.4518
79.3928
104.058
97.2385
99.9095
117.445
135.697
305.205
875.33
141.477
112.385
105.605
105.939
95.7052
38.1303
32.004
40.2713
58.2387
81.6283
101.051
95.6242
96.4567
114.565
143.864
306.641
891.587
144.976
117.238
107.324
102.952
89.0922
37.9733
32.8902
38.9016
56.0783
78.9037
97.0292
91.1386
95.5289
110.548
151.047
885.654
909.094
149.208
133.621
123.475
110.964
75.0572
52.8091
35.9997
42.0119
56.0579
75.7897
94.9053
88.9476
97.1707
113.855
174.224
987.51
296.582
153.751
170.6
151.564
103.965
95.8568
140.443
124.514
64.8453
55.1199
70.0176
85.1753
91.1027
96.7496
128.295
176.026
1059.02
353.169
341.472
165.277
128.71
60.245
51.6337
79.0157
158.916
80.2988
72.211
94.639
99.7329
116.536
125.411
216.605
1189.74
345.634
210.881
162.472
149.921
65.5423
44.2608
60.2985
94.5058
114.178
114.766
127.137
107.86
121.696
122.308
260.988
317.115
216.608
181.343
164.117
146.894
90.5938
58.3155
83.2701
98.9705
124.557
124.979
106.949
116.781
120.16
127.164
287.512
340.113
151.559
147.3
163.793
166.863
129.78
74.8578
97.3597
136.419
148.324
135.463
139.037
127.149
171.636
156.53
854.978
341.576
158.423
156.363
161.46
167.615
176.008
110.223
127.605
137.81
142.533
140.716
150.702
161.977
208.044
181.694
1048.97
1210.14
307.801
180.01
135.228
171.437
186.72
159.568
160.176
128.711
161.246
155.518
144.472
130.711
181.887
236.462
479.887
1251.02
221.798
146.336
156.221
124.657
207.339
192.034
145.341
104.294
134.934
148.167
142.773
150.653
170.892
274.736
246.757
1003.34
207.642
159.297
126.403
106.177
139.056
170.313
255.852
156.047
137.375
159.174
164.973
172.621
188.257
291.892
830.412
291.601
155.273
549.575
277.013
161.177
101.948
131.995
106.685
111.306
131.845
137.705
129.998
145.358
189.925
318.612
4131.07
298.742
544.231
249.924
172.711
150.281
119.466
111.739
152.825
136.847
130.974
148.301
159.033
159.798
200.487
314.104
826.901
1066.28
629.238
310.949
174.897
141.292
125.88
94.2461
106.043
139.486
141.272
166.609
187.674
216.418
211.594
345.5
1190.38
198.436
441.56
225.975
145.43
108.603
92.1489
115.792
130.397
143.568
154.212
167.85
142.796
205.915
249.27
1457.3
1183.44
219.367
163.628
315.976
213.289
152.955
99.3396
87.0292
125.026
143.052
158.79
169.529
172.798
167.091
335.449
1277.35
576.193
209.513
171.3
480.513
306.87
172.703
120.968
119.915
126.705
140.546
156.359
227.858
144.416
180.611
343.622
1137.86
543.385
470.006
346.259
223.845
137.201
122.894
120.209
148.802
158.237
228.282
166.392
235.856
1165.81
719.841
517.442
437.454
360.533
215.205
253.625
131.253
120.922
147.794
212.569
142.37
178.859
323.679
1155.92
201.05
165.689
484.927
453.624
166.7
235.368
269.238
142.078
170.531
205.466
165.572
208.977
531.505
1199.54
202.588
170.667
488.528
424.147
230.134
205.695
314.931
273.432
279.286
330.022
174.664
224.36
1209.15
1116.77
194.129
525.328
476.681
467.36
319.583
206.375
206.009
214.553
296.776
476.849
179.139
232.775
1297.28
1195.1
198.979
533.692
465.472
470.796
437.955
208.542
209.641
190.093
265.523
492.905
186.831
319.895
1350.36
1164.56
221.876
176.926
494.887
442.02
474.472
308.191
184.913
206.258
325.623
178.485
204.619
328.238
1467.1
1462.58
1164.84
196.287
176.202
472.608
462.116
583.467
307.83
256.423
363.738
527.723
210.595
350.164
187.217
521.562
462.717
471.651
167.871
531.052
548.493
570.499
533.136
189.953
168.521
481.322
567.54
196.789
221.41
301.955
1209.29
6313.13
601.83
171.849
511.854
556.231
236.315
400.123
2813.21
2124.63
521.512
808.071
225.434
256.853
1207.56
496.984
802.631
231.876
248.632
611.261
825.065
599.883
279.877
228.476
274.583
1205.59
1179.29
287.841
1907.58
777.604
537.237
352.898
208.938
191.476
216.731
209.797
667.693
295.55
213.862
377.261
695.642
1534.52
1341.19
6472.56
528.368
1529.48
610.381
578.319
1446.55
639.659
436.118
333.411
318.02
295.899
274.862
263.411
343.15
1470.36
649.219
424.752
318.21
301.766
279.957
266.546
263.716
268.903
265.044
258.86
244.881
247.027
252.672
244.058
1332.37
582.08
321.464
292.663
269.573
265.675
258.569
250.926
253.212
252.687
254.555
242.695
232.191
237.668
250.048
249.442
254.611
253.045
258.517
350.723
417.211
881.532
982.21
517.329
280.678
253.76
252.084
243.51
240.278
241.828
239.521
235.588
234.115
236.885
243.151
225.074
601.41
592.565
253.652
263.097
247.29
258.196
257.672
285.078
623.142
543.907
311.497
241.702
223.639
203.828
194.902
204.103
214.389
221.777
221.018
221.587
217.404
225.058
223.101
228.597
231.677
217.858
552.287
595.787
226.329
250.815
256.878
272.865
309.841
1312.22
427.279
200.44
157.633
149.614
187.472
198.841
431.109
633.141
780.547
187.078
205.242
211.967
200.258
191.961
196.768
218.736
225.171
215.331
204.014
527.514
581.665
232.881
260.05
303.753
642.694
1532.22
395.898
279.138
241.514
183.948
181.894
174.879
195.732
226.038
216.048
200.42
391.063
183.576
202.262
249.603
216.421
671.016
201.227
225.188
236.854
239.328
602.54
603.164
281.484
622.86
1280.42
319.717
316.668
244.804
174.844
154.357
161.628
192.1
182.213
162.474
262.863
208.777
188.583
191.881
290.402
461.915
183.942
207.346
540.98
227.069
240.867
242.15
249.349
279.959
571.349
419.171
1363.96
322.169
243.007
200.035
193.852
132.688
136.154
143.097
155.197
181.639
178.38
138.862
241.969
215.737
208.235
205.188
193.081
175.167
164.449
213.836
196.885
243.704
264.24
377.673
633.068
1080.79
388.462
175.417
167.882
203.435
170.894
173.893
133.858
122.358
115.8
147.117
154.398
143.381
135.987
130.999
135.233
135.159
138.496
184.986
176.078
232.896
203.683
215.001
226.547
259.013
570.729
1172.2
217.676
138.569
196.396
176.135
153.338
169.801
142.913
147.002
144.587
145.707
140.746
135.019
142.241
162.771
120.73
132.882
139.007
144.884
153.297
278.17
176.89
599.558
577.394
715.403
4629.77
781.208
1394.28
301.468
196.26
150.824
139.603
132.804
159.378
195.542
168.895
156.454
154.333
152.827
146.18
166.823
173.273
157.233
135.904
151.811
152.437
154.25
159.482
150.998
588.888
1699.96
1301.28
342.195
197.589
145.044
130.273
135.986
140.633
127.615
120.827
118.915
194.836
156.919
151.87
129.195
191.158
186.668
175.532
173.949
188.934
171.537
163.306
136.997
209.305
461.846
459.936
191.695
187.595
196.074
172.831
129.058
117.756
121.542
136.563
131.325
121.302
115.179
116.355
101.59
143.635
128.959
120.868
178.188
180.189
190.014
227.159
216.394
134.949
198.463
476.668
436.451
195.633
152.256
158.844
133.459
126.74
121.331
120.81
114.871
121.341
129.33
129.378
122.052
102.914
98.2187
118.968
131.957
151.706
162.4
201.376
227.02
230.584
388.396
185.637
464.041
401.431
170.984
183.337
167.129
138.162
125.866
122.364
117.439
116.526
109.911
107.274
115.77
118.947
123.873
101.041
97.6848
110.894
127.768
147.978
157.266
197.709
259.048
264.958
397.393
845.512
1175.26
389.206
167.589
168.382
137.519
130.319
127.43
127.561
122.088
109.37
99.5726
85.1116
86.1414
92.775
113.649
121.92
114.91
117.92
120.379
124.278
130.743
142.199
190.627
232.817
379.125
406.407
1153.29
381.651
156.377
162.413
133.127
122.642
118.718
116.357
117.356
116.737
100.73
78.21
70.3915
70.7828
77.9037
91.5809
92.3282
104.629
115.63
126.773
116.437
128.187
142.749
183.672
371.874
449.728
1038.72
260.764
151.45
169.453
134.151
120.078
112.84
104.825
97.7335
92.7814
91.8403
90.1362
73.265
72.2919
70.4978
78.2455
86.7664
89.4371
83.1481
94.94
119.647
118.964
132.279
159.503
217.088
320.18
1359.88
1241.03
276.453
145.327
131.905
121.858
116.412
111.605
100.068
84.435
72.47
69.7194
70.6212
72.6511
74.3036
74.61
78.4913
81.8433
95.7461
103.242
112.717
105.42
130.124
140.53
170.352
212.388
193.494
1550.52
411.395
153.297
172.291
132.049
117.23
112.914
104.086
84.9593
63.1004
57.0161
56.4375
57.9497
61.7753
67.0717
71.7423
77.639
85.8089
95.8086
107.313
117.593
129.092
144.532
168.929
216.798
187.38
446.392
459.819
188.278
142.039
125.185
116.664
112.831
105.678
95.5651
53.5317
45.0569
43.7809
45.7196
49.8629
55.6771
64.2146
74.1076
84.7125
94.646
103.362
110.076
116.171
125.256
135.784
172.479
183.507
454.644
1010.4
239.038
141.214
140.448
119.958
114.052
109.495
96.9249
58.6198
40.9793
33.9313
34.63
36.5077
41.5188
49.4023
58.9728
70.6396
85.8561
99.3637
109.015
115.038
123.62
136.944
154.582
156.85
402.259
402.093
153.157
131.613
114.742
109.355
102.817
92.9268
58.7728
37.1025
31.0612
29.3682
30.0732
32.5253
35.5235
42.2929
50.8878
63.3412
82.283
98.6797
111.288
118.281
125.558
155.606
199.555
288.368
454.494
169.867
169.33
129.282
111.048
102.367
96.7052
74.1532
41.4045
29.9823
26.7083
26.2215
27.0868
28.7292
31.3369
36.5014
45.0326
58.7438
81.4209
101.782
113.746
124.07
132.29
149.859
176.196
840.592
941.011
218.243
138.249
138.249
113.712
103.586
92.8408
84.7544
60.3812
40.2217
32.5507
28.7107
26.9753
26.9553
28.9513
31.9062
36.9348
47.2273
63.4194
91.6695
107.2
120.682
136.021
149.046
154.986
413.855
942.481
229.174
141.515
142.758
116.407
106.665
96.104
83.0862
67.8159
47.6733
37.2417
36.7763
32.7593
29.9868
28.5931
30.9548
37.5609
47.8342
71.2762
101.317
113.389
123.519
131.575
163.745
208.724
259.576
1108.31
402.822
164.152
144.22
116.371
108.996
101.725
89.6347
75.758
54.829
36.101
32.4774
36.9346
42.1758
37.5716
35.382
38.0697
51.7404
76.3374
99.9402
112.492
121.292
134.326
162.751
206.82
236.017
939.456
784.229
194.188
172.972
127.031
109.762
103.194
96.0586
82.4076
72.4005
51.0856
33.0705
31.831
40.494
48.3632
46.1908
43.8842
46.9224
71.2137
94.5606
106.491
113.378
123.226
165.985
202.31
232.274
925.115
241.312
141.373
119.809
107.542
101.134
99.4105
89.345
63.5795
58.7932
49.8748
36.6297
32.9392
42.4542
57.9572
62.6107
55.4101
65.539
88.8809
102.192
108.33
116.4
132.678
156.533
212.851
918.569
770.874
151.375
129.38
109.163
100.289
91.5556
83.7662
81.1812
59.7091
47.2901
47.688
44.7717
39.5901
43.536
56.9531
69.0978
77.8246
83.6756
96.4659
104.022
114.469
128.693
159.061
206.42
390.667
248.293
139.132
116.875
105.976
93.5979
79.6944
66.0673
56.8747
50.8047
41.0409
39.097
41.7111
43.2462
44.1344
50.5818
69.6321
80.4516
91.5275
102.332
113.334
118.389
145.591
195.866
241.799
959.537
936.752
192.425
127.551
108.856
102.411
91.0163
70.8257
50.4992
41.6116
37.6611
34.6895
33.6263
37.5473
44.9343
52.4546
58.696
71.4863
86.5761
95.0888
104.978
115.99
128.069
141.09
163.935
863.464
324.092
152.293
136.867
111.633
100.97
89.3551
61.3438
42.9913
33.191
29.4684
28.8736
31.0634
36.7655
48.208
63.7959
79.3862
88.0422
98.5602
102.259
107.33
119.232
136.765
176.842
265.646
1229.65
723.257
142.591
122.296
106.469
97.7238
95.0819
85.2775
49.7176
33.0458
26.9015
24.9797
25.0298
27.1588
32.9651
43.3307
57.4769
77.708
91.0784
99.95
107.642
112.704
120.975
163.366
226.187
913.952
204.617
160.926
117.182
103.516
94.2136
85.8543
82.0036
63.6906
35.914
26.1483
24.032
24.0895
25.0858
28.9595
36.9612
49.1073
65.9663
85.5611
100.733
112.583
127.006
143.969
143.2
411.469
701.843
142.721
117.748
100.347
93.539
87.9509
80.8867
72.8651
63.188
44.0911
28.8264
25.1887
25.9025
26.3336
28.4206
35.2547
47.4959
65.0001
85.7913
102.412
115.198
129.869
177.461
229.96
1015.52
231.736
131.485
108.149
98.2167
90.2964
82.6752
75.3613
63.2356
51.7799
41.2531
30.9858
26.3423
27.7722
32.6081
36.2578
39.8749
54.4115
79.2411
92.0421
105.911
119.862
149.282
184.917
401.829
708.212
140.049
117.674
102.699
93.519
85.701
76.1974
66.1802
54.782
40.6559
35.0125
29.778
27.3014
29.3331
36.9335
51.8168
65.2011
74.6054
91.7618
104.551
112.663
126.729
140.764
173.128
914.85
229.325
129.11
107.05
96.8925
89.3772
80.1982
70.044
61.044
50.7993
40.1611
29.974
27.2255
26.568
29.4101
37.3354
50.5164
71.1924
85.3576
95.8002
107.1
118.148
144.228
185.557
266.276
723.082
139.1
116.873
99.5945
91.9649
83.379
72.3968
63.2795
56.3578
48.4471
40.6034
32.7078
27.4107
27.0904
29.9777
38.8746
51.6176
66.557
82.9904
98.7158
109.126
126.415
138.407
158.013
863.476
236.109
123.925
104.4
96.807
89.0506
79.0996
65.4484
53.7009
49.1537
46.5505
41.4637
34.838
30.5091
30.947
36.9908
49.6281
65.7667
76.7878
86.5091
99.6036
112.351
124.05
188.835
252.174
198.377
155.704
109.435
95.5402
87.1633
77.2669
61.4395
47.6604
42.3669
41.9222
42.1481
40.8403
38.79
39.9435
46.8634
59.9715
76.9479
85.1079
91.7808
102.555
120.606
147.263
137.863
715.467
753.622
136.739
115.823
99.2531
91.4414
85.1874
76.0648
59.8458
44.2014
37.488
36.381
38.505
41.746
44.8466
49.2466
56.0433
65.4767
75.629
85.3929
94.0208
102.324
121.887
189.549
218.977
1007.49
719.638
150.218
111.033
95.2239
89.8442
85.2027
76.7182
59.3249
42.7257
34.6282
32.1646
33.4596
37.4925
43.6402
50.8362
59.7381
68.2868
76.5355
84.0794
92.3794
101.009
116.109
191.406
656.811
352.454
142.503
108.752
94.1525
85.6191
81.4803
76.7102
60.0252
43.1622
33.5745
29.2464
29.5317
32.8214
38.6443
46.6634
57.6168
70.4796
80.813
90.3314
96.7864
107.515
126.644
171.974
792.21
199.491
163.052
112.682
94.1439
82.4508
73.0129
67.7135
59.9582
45.9799
35.0322
28.7418
26.747
30.1151
36.3
44.6128
55.2466
67.9509
81.9217
93.8455
103.351
109.869
155.413
231.514
720.344
160.893
134.322
101.476
90.6983
80.1263
66.812
56.3736
49.8216
44.6529
36.8361
31.1822
28.4064
29.7597
36.4151
45.3783
56.8206
69.4376
81.0884
93.2094
102.641
132.57
135.938
729.457
364.074
137.802
105.348
92.6085
86.1947
77.5532
64.2697
50.1981
42.1003
37.1131
34.1591
31.9122
31.4542
33.5186
39.2568
48.6794
59.65
72.4208
82.9865
90.8553
104.283
125.338
177.717
977.619
192.231
159.269
111.145
93.486
83.5249
73.859
61.4161
46.5532
38.3481
31.2561
28.714
29.3718
31.6501
36.2727
43.3632
52.3391
63.6203
75.232
86.2552
93.6011
105.054
136.613
222.676
756.089
139.345
114.954
96.515
89.8527
81.9185
71.9434
59.4156
44.1939
34.6847
28.6696
25.0432
25.2677
28.5282
34.4769
43.0316
53.3696
67.0882
78.8116
88.4366
98.2166
106.284
145.196
368.923
359.36
135.193
104.227
95.4459
87.0488
79.3714
71.412
59.4269
43.0728
31.4291
25.5632
22.9886
22.3503
24.5378
30.3199
40.0278
51.5918
66.7578
80.492
89.4035
98.8349
127.839
132.088
706.584
246.037
121.443
101.164
91.7985
83.6286
74.4875
65.9224
56.5394
43.8218
30.4373
22.6016
20.5168
20.8392
22.8085
27.6862
37.6609
51.4812
67.9771
81.0103
90.7991
99.4193
130.277
180.66
989.144
205.625
160.827
109.127
92.5073
81.6589
70.806
61.6956
52.7539
43.4908
33.7294
23.4511
18.9655
18.9249
21.6987
27.6954
38.9278
53.3204
71.4491
84.0507
92.4399
108.541
124.563
196.546
918.34
143.06
109.788
96.643
90.4906
80.4125
66.9633
55.5002
48.9776
42.5898
35.3682
27.5752
21.0015
18.2764
19.7723
25.9484
38.5137
56.8111
73.863
87.06
97.1517
107.516
160.802
353.983
730.207
133.057
114.599
97.2284
90.7043
81.939
67.9195
53.0194
43.1319
39.1568
35.6352
30.3114
24.6229
20.8212
19.896
24.3619
37.7539
61.33
76.7345
88.2714
98.4457
129.352
139.234
751.347
678.2
142.623
107.477
96.4911
89.5242
81.3159
68.7771
52.701
41.4539
35.3081
33.0613
30.7957
26.8222
23.2315
23.0058
26.8665
40.2043
64.6849
79.0366
89.4012
105.973
117.773
193.111
247.253
119.412
98.3005
90.4159
86.9213
79.8988
67.7875
51.8674
40.416
33.8022
31.3104
30.3903
28.4869
25.177
24.7908
31.0388
45.7756
66.677
79.5427
90.758
108.785
157.806
239.317
239.23
120.076
99.478
92.3584
85.5467
78.0093
67.0694
50.8711
39.1222
32.1427
29.8446
30.4171
31.58
32.3461
33.0931
39.4558
53.0966
68.6339
79.8196
92.741
105.771
165.458
651.105
209.207
165.517
110.3
91.8439
82.8272
75.8337
66.6191
51.8556
39.0371
30.6013
27.4757
28.6115
32.3067
37.0864
42.9397
51.4275
63.6548
72.1159
79.6552
91.0664
124.647
158.594
684.072
205.187
122.9
98.048
89.0663
80.5614
70.9137
62.2997
51.4725
40.5271
30.8117
25.531
25.2284
29.0734
34.9908
42.7609
52.8275
63.4169
72.3503
80.3997
91.7811
111.08
164.976
817.489
193.763
118.921
96.1637
87.9569
78.9119
67.4965
56.3782
47.5433
39.8266
32.2841
27.0071
24.7909
26.717
32.169
39.7394
50.1377
61.6008
72.137
80.3635
90.3574
115.49
137.64
919.188
888.539
146.616
111.938
95.1189
87.6426
78.1289
64.4308
51.2091
42.4826
36.0415
31.0951
28.1249
26.9995
28.1892
32.7185
40.2887
50.6139
62.2241
73.3751
81.8698
89.8679
111.525
174.747
704.795
149.316
130.268
98.6133
86.949
77.1472
62.6872
46.5768
37.6397
31.639
27.6533
26.0943
26.6896
29.4823
35.1165
43.0629
53.481
64.1487
75.1463
84.5529
90.9061
113.963
182.635
696.684
142.624
102.244
89.1306
83.0756
74.5818
61.8182
43.7029
33.4038
27.7128
24.2848
22.8627
23.7574
27.2992
33.7448
42.9501
54.7072
66.4235
76.1553
85.1103
97.0843
107.942
189.546
356.728
131.018
98.1816
87.1345
81.2198
73.1357
62.6005
44.2081
30.222
24.4255
21.5706
20.0835
20.4089
23.3997
30.1113
40.0355
52.572
66.5286
77.0142
85.3863
97.4605
130.222
238.212
240.844
114.684
92.7749
83.8427
78.7388
72.1149
63.1777
49.2522
30.991
21.6582
18.8217
17.7478
17.9932
20.5545
26.6203
37.6733
51.4398
65.8791
76.6731
84.6982
99.0979
133.68
620.047
244.322
115.354
92.7822
82.0795
75.2284
69.861
63.3601
51.5009
37.4921
23.4081
16.7879
15.2565
15.8656
18.8506
25.5693
37.3746
51.6091
66.6817
77.7993
85.3429
98.5305
140.333
657.097
207.354
118.595
95.6279
82.3789
73.1369
64.9127
58.1363
50.5678
40.6411
29.1169
19.7691
14.5003
14.1852
17.1481
24.3834
36.6628
52.211
68.6497
79.7866
90.2625
97.8084
138.754
687.064
193.286
119.639
92.3323
80.4048
70.6586
60.0912
50.5079
44.9867
40.3099
32.6158
24.3365
17.6891
14.4131
16.3711
23.7051
37.3278
53.8299
69.9161
80.5932
92.7745
115.606
129.243
756.482
200.754
122.464
92.5569
79.8268
68.1043
54.2751
44.4033
39.1181
35.3461
32.1426
27.0187
22.1638
18.8503
19.3179
26.7458
41.1137
56.9893
70.914
81.8541
92.0895
120.811
170.719
948.035
193.915
127.63
99.5742
82.8312
67.4393
47.5325
39.4841
35.2546
31.4563
27.7736
24.7328
22.5621
23.089
26.5052
34.9695
47.1699
60.5684
70.8914
80.7637
92.4676
121.681
183.002
888.305
141.858
117.858
106.995
87.5838
68.0505
42.8356
35.424
32.1494
29.4243
26.0194
22.6381
20.4477
21.6775
27.6759
38.0248
50.6518
63.7208
73.6191
81.0593
90.0693
120.218
185.79
706.038
162.362
125.737
96.3453
85.996
67.0001
38.3607
32.1721
29.7036
27.7843
25.5741
22.9207
20.8688
20.5181
25.6069
36.4903
51.0513
65.1402
75.1683
83.1448
89.7979
115.11
191.951
714.535
147.996
106.887
89.9627
82.0909
72.0393
44.0337
30.682
27.9635
26.3876
24.4951
22.6853
21.707
22.499
25.6311
35.3025
50.5336
65.9359
76.1594
84.0861
96.1109
116.229
182.397
374.869
138.41
103.349
89.756
80.5804
68.642
51.18
33.1392
26.8681
25.3095
23.5798
21.41
20.2341
21.7531
27.0887
36.6915
52.0168
69.2492
79.1061
86.2745
99.191
131.624
217.708
238.73
122.905
101.817
90.7804
81.469