/*--------------------------------*- C++ -*----------------------------------*\
| =========                 |                                                 |
| \\      /  F ield         | OpenFOAM: The Open Source CFD Toolbox           |
|  \\    /   O peration     | Version:  2312                                  |
|   \\  /    A nd           | Website:  www.openfoam.com                      |
|    \\/     M anipulation  |                                                 |
\*---------------------------------------------------------------------------*/
FoamFile
{
    version     2.0;
    format      ascii;
    arch        "LSB;label=64;scalar=64";
    class       volScalarField;
    location    "140";
    object      p;
}
// * * * * * * * * * * * * * * * * * * * * * * * * * * * * * * * * * * * * * //

dimensions      [0 2 -2 0 0 0 0];

internalField   nonuniform List<scalar> 
404911
(
0.151928
0.151451
0.154818
0.151033
0.150414
0.150831
0.152745
0.152879
0.15191
0.15144
0.154801
0.14916
0.148836
0.150416
0.150805
0.153077
0.152682
0.152359
0.151025
0.150811
0.149853
0.150143
0.149845
0.151559
0.150466
0.139655
0.152388
0.152564
0.153936
0.154856
0.15508
0.153695
0.153255
0.156048
0.155084
0.154401
0.153787
0.156404
0.155581
0.155363
0.153256
0.156678
0.156535
0.155891
0.155946
0.154844
0.155876
0.156343
0.156584
0.156098
0.157467
0.156338
0.155716
0.155947
0.157807
0.15752
0.162215
0.147397
0.148502
0.149074
0.150418
0.150554
0.152313
0.151192
0.150489
0.151257
0.152033
0.151499
0.152144
0.150767
0.153103
0.152656
0.151806
0.154029
0.153711
0.15316
0.152286
0.155215
0.15477
0.155971
0.155639
0.156191
0.155951
0.155536
0.156152
0.156141
0.156624
0.156495
0.156379
0.157171
0.15687
0.158287
0.158063
0.158451
0.159988
0.158991
0.15881
0.159666
0.159581
0.158753
0.159346
0.160226
0.16017
0.158851
0.0834995
0.0838619
0.0845607
0.0869834
0.0905089
0.0824254
0.0894842
0.0848376
0.0848206
0.0845042
0.0843272
0.0898411
0.0882247
0.0888009
0.0889062
0.0870688
0.0866118
0.0851467
0.0856958
0.0844535
0.0929328
0.0913735
0.0919789
0.0901625
0.0895182
0.0896722
0.0895486
0.0897079
0.0879231
0.0872771
0.0867231
0.0864573
0.0850386
0.0810564
0.0846509
0.0841726
0.0949128
0.0936556
0.0933794
0.0917484
0.0906644
0.0900074
0.0894144
0.0891434
0.0890448
0.0899312
0.0886813
0.0871889
0.0872906
0.0871174
0.0804373
0.0968151
0.0957202
0.0955838
0.0940196
0.0929183
0.0922199
0.0909919
0.09011
0.0894524
0.0894958
0.0888649
0.0886129
0.0887884
0.0872585
0.0867452
0.0964748
0.0973352
0.0960969
0.0957062
0.095159
0.0938768
0.0930631
0.0915251
0.0903192
0.0901001
0.0896723
0.0898784
0.0889608
0.088168
0.0870036
0.0888486
0.101357
0.0977783
0.0957699
0.0961233
0.0952789
0.0957147
0.0952656
0.0941162
0.0931245
0.091783
0.0908354
0.0902612
0.0898832
0.0896286
0.0891124
0.088294
0.088059
0.102041
0.101537
0.100829
0.100611
0.0986978
0.0975355
0.096911
0.0967253
0.0960277
0.0957518
0.0947104
0.0935967
0.0927166
0.0917379
0.0911494
0.0900946
0.0902493
0.0906762
0.102049
0.102992
0.101516
0.100651
0.0999466
0.0989318
0.0984937
0.09768
0.0968578
0.0965771
0.0960599
0.0955831
0.0940665
0.09315
0.0923505
0.0906011
0.0918179
0.090385
0.103549
0.103111
0.102159
0.102341
0.101663
0.100773
0.100447
0.0996728
0.0991282
0.0980345
0.0973665
0.0969802
0.0967979
0.09612
0.094684
0.0941546
0.0929521
0.0927756
0.104253
0.104538
0.103839
0.102752
0.102347
0.101392
0.101048
0.100974
0.100278
0.0997868
0.0988236
0.0979308
0.0973713
0.0967933
0.0972471
0.0956567
0.092818
0.105149
0.105272
0.103945
0.104772
0.104543
0.103166
0.102695
0.101782
0.101349
0.101725
0.100792
0.100234
0.0993301
0.0983306
0.0979787
0.0971204
0.0960693
0.10726
0.106793
0.104612
0.105695
0.105714
0.104903
0.104183
0.103304
0.102646
0.102173
0.102273
0.101484
0.100948
0.100293
0.0994853
0.0986718
0.0981318
0.0975999
0.107052
0.104792
0.106741
0.105735
0.104828
0.105377
0.105284
0.104582
0.104087
0.103218
0.102839
0.102935
0.102368
0.102207
0.101363
0.099923
0.0996749
0.100166
0.109469
0.108652
0.107428
0.107679
0.107046
0.106049
0.105468
0.10566
0.105339
0.10492
0.104285
0.103164
0.103375
0.103585
0.103083
0.10245
0.102337
0.101234
0.110634
0.110211
0.10882
0.107937
0.107281
0.106601
0.106016
0.105812
0.105463
0.105586
0.104754
0.103556
0.103131
0.103444
0.103688
0.104028
0.103222
0.10061
0.112029
0.111448
0.109651
0.110601
0.109374
0.108208
0.107663
0.107387
0.1065
0.105812
0.105733
0.105857
0.105056
0.104219
0.103228
0.103103
0.1034
0.102798
0.112855
0.112386
0.111492
0.111237
0.110828
0.109577
0.109035
0.107804
0.107288
0.106489
0.105796
0.105686
0.10579
0.105134
0.104943
0.104687
0.10381
0.104286
0.112004
0.111849
0.112218
0.112886
0.111918
0.111235
0.111396
0.110431
0.109718
0.108451
0.107277
0.106666
0.105934
0.105114
0.105011
0.104745
0.104478
0.104471
0.114685
0.112932
0.112914
0.112899
0.113001
0.112405
0.11184
0.111881
0.111115
0.110606
0.109223
0.107707
0.107054
0.106106
0.106022
0.105246
0.104248
0.116078
0.114936
0.114316
0.113138
0.112614
0.11264
0.112589
0.112488
0.112098
0.111561
0.11127
0.11073
0.109958
0.108336
0.107907
0.106365
0.106209
0.106093
0.115651
0.115564
0.115264
0.114543
0.113955
0.113198
0.112702
0.112445
0.112615
0.112313
0.112004
0.111637
0.110988
0.110206
0.109226
0.108258
0.107253
0.10656
0.117404
0.116336
0.115756
0.115726
0.115016
0.114136
0.113782
0.113292
0.112931
0.112804
0.112332
0.112086
0.111926
0.111345
0.11095
0.111335
0.107989
0.108527
0.118607
0.117538
0.117157
0.116702
0.116326
0.115942
0.115618
0.115017
0.113963
0.113447
0.113085
0.112825
0.112381
0.112401
0.111545
0.11133
0.109991
0.109396
0.119996
0.119583
0.118885
0.117987
0.117594
0.116957
0.116769
0.116409
0.116022
0.115475
0.114845
0.11413
0.113219
0.113135
0.112437
0.112353
0.110691
0.11179
0.120749
0.120147
0.119887
0.11906
0.118285
0.117694
0.117294
0.117095
0.116954
0.115923
0.115487
0.11527
0.11484
0.11388
0.113823
0.11291
0.112106
0.111335
0.121853
0.121477
0.121048
0.120591
0.120104
0.11925
0.118555
0.117894
0.117488
0.117216
0.117448
0.116721
0.116011
0.115126
0.115073
0.114613
0.111112
0.11503
0.121994
0.121952
0.121447
0.121285
0.120864
0.120345
0.119601
0.118754
0.118071
0.117603
0.117179
0.117014
0.116756
0.116281
0.115764
0.116175
0.114948
0.114777
0.122928
0.122679
0.122043
0.12162
0.12142
0.121157
0.120644
0.119905
0.119043
0.11826
0.117714
0.117286
0.116978
0.11657
0.115999
0.115888
0.115657
0.115246
0.122988
0.12277
0.122898
0.121997
0.121905
0.121687
0.121427
0.120895
0.120273
0.119443
0.118612
0.117967
0.11742
0.117013
0.116723
0.11594
0.115448
0.11594
0.123506
0.124796
0.123427
0.122636
0.122537
0.122041
0.121892
0.121845
0.12188
0.121326
0.120674
0.119976
0.119211
0.118469
0.117873
0.117154
0.116679
0.115881
0.125986
0.124648
0.124227
0.123777
0.122906
0.12221
0.121962
0.121855
0.121823
0.122101
0.121861
0.121134
0.12045
0.119768
0.118994
0.118259
0.117469
0.117601
0.127191
0.126084
0.125381
0.125045
0.124326
0.123577
0.122679
0.122183
0.122003
0.12192
0.121856
0.12174
0.121345
0.120742
0.120123
0.11979
0.119796
0.119064
0.126692
0.127304
0.126668
0.125857
0.125221
0.124747
0.124202
0.122913
0.122543
0.122254
0.122052
0.121943
0.12174
0.121431
0.120883
0.120338
0.120209
0.129113
0.127343
0.127703
0.127576
0.127051
0.126321
0.12562
0.125116
0.124771
0.123661
0.123049
0.122639
0.122317
0.122019
0.121886
0.121531
0.121088
0.120399
0.129961
0.128909
0.128232
0.128008
0.127887
0.127441
0.126575
0.125974
0.125602
0.125213
0.124279
0.123623
0.123177
0.122666
0.122298
0.122065
0.121641
0.122204
0.12985
0.13001
0.129223
0.128823
0.128335
0.128233
0.127955
0.127254
0.126451
0.125942
0.125746
0.125077
0.124166
0.123812
0.123213
0.122984
0.123155
0.122673
0.132593
0.130956
0.130291
0.129892
0.129551
0.129152
0.128626
0.128392
0.128308
0.127692
0.126944
0.126211
0.12593
0.125545
0.124754
0.124319
0.123737
0.123224
0.132418
0.131961
0.131727
0.130955
0.130481
0.129936
0.129552
0.129062
0.128685
0.128605
0.127967
0.127358
0.126628
0.126203
0.125791
0.12526
0.124469
0.124083
0.133695
0.132611
0.132232
0.131903
0.131351
0.130847
0.13038
0.130055
0.129609
0.129163
0.128986
0.128577
0.127878
0.127021
0.126718
0.126042
0.125658
0.125034
0.132303
0.134225
0.133342
0.132751
0.132298
0.131712
0.131225
0.130828
0.130538
0.130193
0.129644
0.129237
0.128941
0.128416
0.127593
0.127251
0.126856
0.125629
0.135456
0.134979
0.134067
0.133774
0.133182
0.132645
0.132044
0.131554
0.131179
0.131043
0.130651
0.129929
0.129547
0.129285
0.128716
0.128312
0.127123
0.137326
0.135355
0.13553
0.134898
0.134567
0.134189
0.133668
0.133033
0.132358
0.131811
0.131456
0.131408
0.131588
0.130762
0.129745
0.129505
0.129042
0.128745
0.136852
0.136596
0.136218
0.135706
0.135228
0.134984
0.134667
0.13419
0.133424
0.1327
0.132107
0.131644
0.131357
0.131549
0.131434
0.130458
0.130057
0.129555
0.138141
0.137324
0.136821
0.136358
0.135706
0.135427
0.135223
0.135056
0.134742
0.133835
0.133105
0.13247
0.131933
0.131544
0.131183
0.130966
0.130488
0.130065
0.138041
0.138299
0.137769
0.136931
0.136598
0.135867
0.135549
0.135327
0.135154
0.135056
0.134635
0.133768
0.1331
0.132492
0.131947
0.131459
0.130921
0.130498
0.139855
0.138454
0.138417
0.137995
0.137395
0.136836
0.136191
0.135716
0.13545
0.135269
0.134987
0.134688
0.134287
0.13376
0.133123
0.132676
0.131942
0.131437
0.140505
0.140298
0.139635
0.138899
0.138409
0.137823
0.137248
0.136607
0.136028
0.135664
0.135409
0.135121
0.13488
0.13452
0.134087
0.13348
0.133154
0.132315
0.140857
0.140777
0.140664
0.140251
0.139436
0.13888
0.138326
0.137744
0.137083
0.136437
0.135961
0.135615
0.135302
0.135068
0.134837
0.134529
0.133682
0.132653
0.141961
0.141209
0.141217
0.141081
0.140507
0.139853
0.139296
0.138818
0.138208
0.137462
0.136726
0.136353
0.135976
0.135708
0.135458
0.135151
0.134694
0.134945
0.142607
0.142355
0.141726
0.141854
0.141513
0.141516
0.141202
0.140216
0.139485
0.139116
0.138655
0.13807
0.137265
0.136912
0.136426
0.136142
0.135865
0.135629
0.135359
0.143589
0.143375
0.142819
0.142057
0.141821
0.141647
0.141604
0.141811
0.140951
0.140036
0.139387
0.138944
0.138561
0.138111
0.137648
0.137106
0.136747
0.136434
0.143964
0.143561
0.142829
0.142265
0.141925
0.141728
0.141636
0.141732
0.141333
0.140643
0.139855
0.139266
0.138866
0.138347
0.137872
0.13733
0.137697
0.144814
0.144649
0.144228
0.143644
0.14307
0.142467
0.14213
0.141915
0.141722
0.141737
0.141561
0.141014
0.140373
0.139656
0.139318
0.138879
0.138449
0.137336
0.14562
0.144942
0.145051
0.144474
0.143936
0.143362
0.14282
0.142441
0.142184
0.141972
0.141955
0.141876
0.141481
0.140829
0.140336
0.139678
0.139234
0.13844
0.144516
0.146306
0.145634
0.14529
0.144827
0.144326
0.14379
0.143231
0.142622
0.142074
0.142084
0.142081
0.142157
0.141658
0.141198
0.140881
0.14007
0.140191
0.146894
0.146417
0.146085
0.145674
0.145197
0.144708
0.144205
0.143788
0.143363
0.142508
0.142219
0.142018
0.141874
0.141614
0.141288
0.14081
0.140711
0.147339
0.147103
0.146676
0.14638
0.146033
0.145542
0.145059
0.144602
0.14424
0.143972
0.143228
0.142727
0.142385
0.142151
0.141982
0.141567
0.140936
0.148981
0.150043
0.14897
0.147943
0.14731
0.146788
0.146381
0.145872
0.145326
0.144874
0.144735
0.144352
0.143737
0.143309
0.142946
0.142556
0.142308
0.142444
0.149296
0.149172
0.149211
0.148893
0.148163
0.147633
0.147162
0.14671
0.146279
0.145687
0.144932
0.144609
0.144462
0.14402
0.14366
0.142998
0.14342
0.150117
0.150456
0.149606
0.149613
0.148882
0.148274
0.147769
0.147436
0.146959
0.146473
0.146042
0.1453
0.144935
0.144648
0.144157
0.1436
0.143382
0.151742
0.151271
0.150662
0.150576
0.150352
0.149981
0.149637
0.148923
0.148033
0.147626
0.147095
0.146615
0.146228
0.145752
0.145191
0.144713
0.144291
0.143595
0.152473
0.151616
0.15107
0.150809
0.150519
0.149962
0.150089
0.15088
0.149835
0.148552
0.147952
0.147376
0.146719
0.146278
0.145959
0.145416
0.145383
0.144674
0.150786
0.152002
0.151601
0.151204
0.150724
0.150198
0.149428
0.149523
0.150204
0.15018
0.149013
0.148327
0.147802
0.147274
0.146586
0.146288
0.145873
0.14567
0.152704
0.151758
0.151874
0.151841
0.151293
0.150799
0.150457
0.149549
0.149165
0.149393
0.149652
0.149326
0.148733
0.148267
0.14783
0.147373
0.146609
0.146764
0.154337
0.153883
0.152379
0.152209
0.152113
0.151768
0.151233
0.150462
0.15042
0.150165
0.149701
0.14961
0.149783
0.149587
0.148921
0.148485
0.148164
0.147227
0.147076
0.155
0.155047
0.153626
0.152825
0.152356
0.152208
0.15195
0.151342
0.150719
0.150336
0.150172
0.149889
0.149598
0.149432
0.149104
0.148804
0.149079
0.147452
0.147181
0.151889
0.154757
0.153444
0.152968
0.15275
0.152208
0.151994
0.151661
0.151262
0.150844
0.150626
0.150215
0.149964
0.149758
0.149312
0.149032
0.14892
0.148929
0.153748
0.153698
0.154188
0.153598
0.153231
0.152781
0.152304
0.152159
0.152026
0.15178
0.151412
0.151202
0.150814
0.150425
0.150037
0.149649
0.149011
0.155339
0.154633
0.154579
0.15428
0.15379
0.15351
0.153203
0.1525
0.152509
0.152589
0.152356
0.152225
0.151693
0.151369
0.151148
0.150923
0.149674
0.156602
0.156117
0.155508
0.155158
0.154718
0.154253
0.153983
0.153562
0.153211
0.153221
0.153033
0.152768
0.152464
0.152038
0.152014
0.151217
0.150998
0.156525
0.157541
0.156767
0.156898
0.156295
0.15586
0.155289
0.154728
0.154382
0.153955
0.153686
0.153608
0.153433
0.153273
0.152829
0.152333
0.151883
0.15275
0.157636
0.157721
0.156937
0.156904
0.157021
0.156719
0.156109
0.155603
0.155137
0.154753
0.154206
0.154005
0.153897
0.153606
0.153316
0.152718
0.152767
0.157056
0.157088
0.156842
0.156895
0.156691
0.156753
0.156556
0.156147
0.155665
0.155292
0.154982
0.154448
0.154195
0.153781
0.153855
0.153146
0.152525
0.157073
0.15744
0.156868
0.156539
0.156333
0.156354
0.156586
0.15633
0.155926
0.155593
0.155328
0.155114
0.154757
0.154318
0.1539
0.153745
0.154066
0.158555
0.157612
0.15728
0.156718
0.156649
0.156437
0.156653
0.156613
0.156356
0.155941
0.155516
0.155461
0.155319
0.155042
0.154928
0.154672
0.154124
0.157837
0.159008
0.158383
0.157397
0.157298
0.157371
0.157469
0.157212
0.156921
0.156528
0.1561
0.155788
0.155654
0.155531
0.155287
0.154622
0.155026
0.160506
0.158862
0.159054
0.15886
0.15801
0.15769
0.15843
0.158948
0.158281
0.15734
0.156599
0.156152
0.155938
0.155799
0.155777
0.155744
0.154859
0.158206
0.159202
0.159199
0.159674
0.158863
0.158071
0.157778
0.158336
0.158435
0.157711
0.156912
0.156462
0.156249
0.156114
0.156884
0.155634
0.160543
0.159661
0.159303
0.159441
0.159729
0.159178
0.158543
0.158343
0.158577
0.158673
0.157956
0.157252
0.156796
0.15595
0.156032
0.158451
0.159159
0.158861
0.159094
0.158823
0.159528
0.159816
0.159685
0.158929
0.158852
0.158616
0.158142
0.157569
0.157248
0.157062
0.15708
0.159344
0.15977
0.158983
0.1584
0.158455
0.158226
0.159179
0.159609
0.159689
0.159349
0.159253
0.158812
0.157446
0.157554
0.157517
0.15649
0.163739
0.161809
0.160672
0.160154
0.158805
0.158974
0.158634
0.158871
0.15919
0.159371
0.159421
0.159231
0.159229
0.15881
0.158894
0.157934
0.167572
0.164887
0.163236
0.162717
0.161535
0.160343
0.159866
0.16006
0.159514
0.159787
0.159721
0.159949
0.158808
0.158904
0.159268
0.159416
0.166389
0.166678
0.166158
0.164793
0.163627
0.162323
0.161758
0.160707
0.159773
0.159677
0.159961
0.160741
0.161096
0.160379
0.160145
0.160279
0.168969
0.167937
0.166612
0.166253
0.16563
0.164165
0.162893
0.162217
0.161609
0.160564
0.159947
0.160225
0.160943
0.162148
0.161809
0.160725
0.170508
0.169577
0.167564
0.166752
0.166656
0.166137
0.165081
0.163879
0.162464
0.161493
0.161206
0.160257
0.158838
0.159743
0.160641
0.161257
0.171365
0.168281
0.169248
0.168885
0.168165
0.167314
0.166647
0.166195
0.164955
0.163705
0.162905
0.16081
0.162122
0.161476
0.159086
0.160512
0.169021
0.169834
0.169831
0.169936
0.16939
0.168676
0.16784
0.167508
0.166981
0.165873
0.1648
0.163815
0.163126
0.16216
0.163042
0.16976
0.16979
0.169418
0.170722
0.169903
0.169501
0.168742
0.168403
0.168002
0.167489
0.166909
0.165981
0.165136
0.164497
0.16444
0.162603
0.169976
0.170608
0.170856
0.171521
0.171061
0.170457
0.169568
0.16901
0.16866
0.168289
0.167692
0.167489
0.167414
0.166584
0.165246
0.166661
0.173143
0.171147
0.170867
0.170927
0.170586
0.170884
0.170726
0.170116
0.169505
0.169017
0.168699
0.168068
0.167326
0.166842
0.166687
0.173343
0.170127
0.171145
0.171684
0.171339
0.17108
0.170947
0.17038
0.169753
0.169642
0.169255
0.168726
0.167296
0.167762
0.174905
0.17209
0.171974
0.172282
0.172078
0.171674
0.171506
0.171088
0.170906
0.170596
0.169862
0.169004
0.169277
0.174601
0.173514
0.172816
0.172023
0.173063
0.173035
0.172763
0.172666
0.172517
0.171942
0.171495
0.170323
0.170515
0.169023
0.17556
0.175059
0.17506
0.173826
0.174002
0.173338
0.17337
0.173357
0.173216
0.172997
0.172233
0.171365
0.170972
0.171354
0.175472
0.17535
0.175434
0.174356
0.174417
0.173706
0.173959
0.173687
0.173748
0.174397
0.173077
0.173145
0.172255
0.172598
0.174246
0.175724
0.174667
0.174759
0.174702
0.173501
0.174269
0.17437
0.174427
0.174299
0.174269
0.172842
0.172938
0.17348
0.1751
0.173962
0.174483
0.175001
0.175929
0.175604
0.173806
0.174247
0.174635
0.173528
0.174984
0.175028
0.174364
0.172594
0.177235
0.176084
0.173842
0.173445
0.174564
0.172438
0.172697
0.172906
0.173336
0.173286
0.174502
0.174345
0.175712
0.172396
0.172955
0.173771
0.171093
0.171185
0.170454
0.1727
0.17273
0.172926
0.17314
0.172893
0.171809
0.173022
0.17301
0.170839
0.171641
0.171489
0.17576
0.175122
0.172959
0.17497
0.171775
0.17094
0.173001
0.179042
0.178719
0.173514
0.175952
0.173474
0.170595
0.168887
0.179544
0.174939
0.174253
0.173813
0.172209
0.178629
0.178308
0.172573
0.180449
0.17503
0.173708
0.170165
0.175713
0.17761
0.176795
0.174614
0.171316
0.171085
0.173221
0.174664
0.178104
0.166987
0.176661
0.173208
0.168366
0.174255
0.17458
0.18088
0.174378
0.170187
0.0351074
0.0360593
0.0395547
0.0513821
0.0433837
0.0427218
0.0431879
0.0396778
0.0363952
0.0333416
0.0410442
0.0349064
0.0609311
0.0573657
0.0491092
0.0514678
0.0472951
0.0450594
0.0453204
0.0435117
0.040971
0.0385597
0.0335429
0.0353136
0.0355054
0.0328257
0.0352233
0.065351
0.0622197
0.0636542
0.0595948
0.0590103
0.0518546
0.0498123
0.0494052
0.0465653
0.0448574
0.0436463
0.04075
0.0389304
0.0360347
0.0336742
0.0350503
0.032458
0.0290846
0.039087
0.035683
0.029372
0.0266503
0.0672795
0.0690247
0.0677807
0.0670481
0.0628678
0.0616397
0.0596358
0.0560379
0.0533699
0.0509352
0.0494681
0.0477821
0.0456007
0.0443209
0.0405649
0.0439928
0.03735
0.0372128
0.0358859
0.032605
0.0315878
0.030662
0.0301489
0.0728809
0.07025
0.0708397
0.0692193
0.0707392
0.0678256
0.0664015
0.0635452
0.0619631
0.0594663
0.0558052
0.0537026
0.0512013
0.0501458
0.0460585
0.0469051
0.0447397
0.048752
0.0459226
0.0405665
0.0371654
0.0377389
0.0342498
0.0324326
0.0309544
0.0727553
0.0695246
0.0717329
0.0707952
0.0695292
0.0671708
0.07041
0.0685982
0.0668615
0.0636601
0.0617284
0.0598136
0.0579069
0.0542228
0.052448
0.050882
0.0488319
0.0485384
0.046681
0.0448766
0.042748
0.0437328
0.0403715
0.0391713
0.0372034
0.077006
0.0744411
0.072056
0.0709937
0.0701926
0.0702151
0.0693445
0.0694467
0.0700136
0.0694238
0.0672652
0.0633137
0.0620337
0.058799
0.0609493
0.057712
0.0543074
0.0535578
0.049022
0.0487419
0.0469479
0.0473551
0.0440107
0.0444101
0.04288
0.0792465
0.0799518
0.0767474
0.0744628
0.0725142
0.0717282
0.0706945
0.0706104
0.0686564
0.0692691
0.070101
0.0699638
0.068137
0.0640859
0.0625691
0.0610404
0.0568927
0.059218
0.0546561
0.052544
0.0511715
0.0483355
0.0485692
0.0460055
0.0453137
0.0801319
0.0755674
0.0759314
0.0797002
0.0782056
0.0770353
0.0755542
0.0738896
0.0728885
0.0718823
0.0713103
0.0690573
0.0690208
0.0694307
0.069027
0.0668898
0.065193
0.0636654
0.0623968
0.0596065
0.058353
0.0562443
0.0525157
0.0524402
0.0494743
0.045585
0.0822217
0.0811194
0.0818744
0.0794495
0.0789267
0.0785027
0.0784306
0.0777156
0.077221
0.0761015
0.0751122
0.0735458
0.0723022
0.0713375
0.0700888
0.0690699
0.0684436
0.0674366
0.0665527
0.0646366
0.0630879
0.0630627
0.0623361
0.0595888
0.0593008
0.0548677
0.0539959
0.0828873
0.0825755
0.0820207
0.0814962
0.0803538
0.079568
0.0776975
0.0774717
0.0774675
0.0771376
0.0764775
0.0757965
0.0747345
0.073613
0.0713446
0.0708407
0.069892
0.0686274
0.0669013
0.0664212
0.0647694
0.0605692
0.0660074
0.0620326
0.0622593
0.0835422
0.0828026
0.0840705
0.0834567
0.0830829
0.0823325
0.0816471
0.0804508
0.0793684
0.0782727
0.0775888
0.0773819
0.0767957
0.0760554
0.0759917
0.0759701
0.0747256
0.0718443
0.0714743
0.0705176
0.0688838
0.0675366
0.0665871
0.0641354
0.0669224
0.0838381
0.0845764
0.0829398
0.0832489
0.0834036
0.0831917
0.0825713
0.0815608
0.0804991
0.0789675
0.0779003
0.0775229
0.0770408
0.0758662
0.0754336
0.0757491
0.0757409
0.0746203
0.0717273
0.0720373
0.071107
0.0692374
0.0675229
0.0658921
0.0856308
0.0872706
0.084063
0.0847033
0.0841765
0.0831448
0.0829269
0.0835896
0.0835805
0.0824243
0.0814954
0.0804577
0.0791515
0.0779462
0.0773073
0.0764794
0.0755543
0.0746784
0.0752169
0.0752129
0.0742206
0.0727469
0.0723879
0.0711283
0.0691196
0.0901538
0.08788
0.086875
0.0864896
0.084946
0.0841493
0.0834363
0.0827654
0.0826106
0.0831875
0.0833488
0.0823872
0.0813615
0.0801746
0.0793184
0.0783744
0.0774454
0.0764652
0.0753839
0.0745749
0.0748492
0.0749601
0.0737816
0.0733453
0.0719872
0.090624
0.0901161
0.0892749
0.0884914
0.0881004
0.0869723
0.0860937
0.0846512
0.0835504
0.0828353
0.0823909
0.0819552
0.0825894
0.0821184
0.0810769
0.0804053
0.07939
0.0782231
0.077326
0.0762015
0.0747353
0.0741969
0.0736837
0.0743687
0.0726785
0.0920982
0.090634
0.092023
0.0910698
0.0899093
0.0892752
0.0882364
0.088483
0.0874807
0.0866976
0.0855879
0.0843745
0.0835681
0.0832825
0.0825384
0.0828218
0.08233
0.0816213
0.0807991
0.0795782
0.0780984
0.0776241
0.0762585
0.0744615
0.0735325
0.0737893
0.0944192
0.0957643
0.093172
0.0924195
0.092003
0.0908775
0.0896956
0.0886459
0.0884199
0.0886342
0.0880237
0.0871612
0.0862755
0.0855028
0.0846628
0.0839933
0.0831476
0.0830467
0.0836654
0.0825474
0.0813271
0.0800921
0.079764
0.0784727
0.0757911
0.07375
0.10031
0.0954364
0.0936791
0.0943465
0.0937399
0.0925958
0.0918073
0.0909471
0.0898396
0.0889142
0.0884209
0.0887685
0.0882267
0.0876319
0.0867138
0.0861635
0.0858458
0.0850068
0.0831609
0.0822537
0.0828653
0.0821223
0.0806868
0.0795717
0.0798122
0.0785384
0.0766645
0.0973425
0.0990797
0.0975569
0.0962267
0.0952887
0.0943584
0.0936804
0.092895
0.0920127
0.0910739
0.0901057
0.0893899
0.0889845
0.0887693
0.0884426
0.0878832
0.0869587
0.0864991
0.0867651
0.0863433
0.0835137
0.0829754
0.0824088
0.0815724
0.0802695
0.0793375
0.0809588
0.0992438
0.0984404
0.0974673
0.0970505
0.0963288
0.095608
0.0947102
0.093847
0.0930766
0.0921781
0.0912609
0.0903255
0.0896665
0.0893211
0.0890265
0.0885066
0.0877933
0.0868686
0.0866116
0.0869505
0.0867386
0.0854355
0.0847225
0.0829247
0.0812353
0.0812453
0.101873
0.0993609
0.0996714
0.098774
0.0980536
0.0972691
0.0964127
0.0960531
0.0949906
0.0941347
0.0932984
0.0924005
0.091485
0.0905897
0.0899466
0.0895989
0.0892772
0.0887414
0.0878875
0.0867853
0.0863864
0.0855295
0.0862615
0.0858619
0.0844993
0.0841379
0.10297
0.100932
0.101638
0.0999356
0.0997163
0.0993223
0.0984904
0.0977007
0.096666
0.0960793
0.095401
0.09473
0.0938825
0.0928504
0.0919024
0.0909968
0.0902757
0.0898024
0.0894595
0.0889832
0.0880957
0.0871301
0.0861887
0.0853721
0.0859279
0.0860852
0.102035
0.102661
0.101674
0.101107
0.10047
0.0999516
0.0996111
0.098712
0.0978925
0.0970803
0.096459
0.0958846
0.0953161
0.0944991
0.0935764
0.0925134
0.0915489
0.0907509
0.0901505
0.0897374
0.089301
0.0886617
0.0879308
0.0867235
0.0865349
0.103372
0.104714
0.103448
0.102769
0.101901
0.101225
0.100867
0.100279
0.0998213
0.0991442
0.0983824
0.0975821
0.0969119
0.096417
0.0959132
0.0951561
0.0941689
0.0931685
0.0922886
0.091464
0.09073
0.0903038
0.0896961
0.0889831
0.0885929
0.0885871
0.106509
0.106157
0.105081
0.104371
0.104229
0.10333
0.102315
0.101575
0.101146
0.100723
0.100275
0.0996417
0.0989073
0.0981189
0.0974246
0.0969821
0.0966553
0.0960969
0.0948979
0.0938643
0.0931242
0.092413
0.0914347
0.0909529
0.0903803
0.091884
0.108298
0.105455
0.105927
0.105714
0.105348
0.104914
0.104547
0.103807
0.102774
0.102034
0.101497
0.101203
0.100759
0.100167
0.0994683
0.0986739
0.0980265
0.0975243
0.0970058
0.0967516
0.0958549
0.0946867
0.0937957
0.0929161
0.0923964
0.0921366
0.0908206
0.10607
0.106764
0.106237
0.105848
0.105698
0.105519
0.105259
0.104862
0.104178
0.103192
0.102492
0.101957
0.101672
0.101245
0.100631
0.0999509
0.0992624
0.098592
0.0980504
0.0973565
0.0967553
0.0960134
0.0952735
0.0945052
0.0937429
0.0935243
0.109387
0.108241
0.10707
0.106261
0.10626
0.105929
0.105538
0.105495
0.10548
0.105054
0.10418
0.103244
0.102735
0.10241
0.102055
0.101633
0.101074
0.100226
0.0997236
0.0990321
0.0983937
0.0975799
0.0969504
0.0960493
0.0939306
0.0947339
0.108666
0.109133
0.108214
0.107164
0.106064
0.106199
0.10602
0.105334
0.105479
0.105567
0.10494
0.104055
0.103215
0.103041
0.10307
0.102608
0.102084
0.101566
0.100606
0.0998844
0.0989777
0.0983321
0.0977701
0.0971382
0.0963768
0.111078
0.11077
0.110061
0.109231
0.108392
0.10741
0.106275
0.10605
0.105944
0.105479
0.10551
0.105634
0.104887
0.103937
0.103248
0.10322
0.103555
0.103045
0.102222
0.101634
0.100818
0.10002
0.0992725
0.098088
0.0960978
0.111522
0.111521
0.111191
0.110418
0.109634
0.108846
0.107931
0.106861
0.10628
0.105944
0.105678
0.105568
0.105492
0.104853
0.103809
0.103268
0.103139
0.103313
0.103195
0.102535
0.101603
0.100682
0.0996691
0.100079
0.099999
0.111849
0.112188
0.111968
0.111628
0.111471
0.110889
0.110085
0.109319
0.108432
0.107568
0.106915
0.106309
0.105802
0.105635
0.105526
0.105106
0.104108
0.103547
0.103368
0.103186
0.103207
0.102598
0.101963
0.101442
0.099936
0.113065
0.112552
0.112143
0.112424
0.112199
0.111829
0.111231
0.110538
0.109641
0.108808
0.107886
0.107146
0.106432
0.105817
0.10555
0.105407
0.105153
0.104637
0.104235
0.103948
0.103752
0.103592
0.103296
0.10255
0.101916
0.11407
0.1144
0.113451
0.112729
0.112246
0.11272
0.11282
0.112293
0.111645
0.110898
0.110066
0.109277
0.108235
0.107326
0.106543
0.105713
0.10538
0.105046
0.104656
0.104538
0.104315
0.104155
0.104413
0.104138
0.103498
0.116279
0.115091
0.114482
0.113716
0.113
0.112446
0.112644
0.113027
0.112706
0.1121
0.111451
0.110671
0.109862
0.108843
0.107809
0.106962
0.105993
0.105289
0.105023
0.104733
0.104571
0.104676
0.104686
0.103149
0.117903
0.115981
0.115925
0.115445
0.114719
0.113938
0.113213
0.112671
0.112489
0.112728
0.112738
0.112395
0.111844
0.111128
0.110367
0.109475
0.108516
0.10765
0.10674
0.10599
0.105397
0.104984
0.104654
0.104493
0.104703
0.117926
0.117325
0.116852
0.116248
0.11568
0.115074
0.114437
0.11359
0.113
0.112717
0.112761
0.112815
0.112542
0.112076
0.111674
0.110886
0.110001
0.109116
0.108192
0.107405
0.106757
0.106276
0.105706
0.104902
0.119669
0.11863
0.118356
0.117585
0.116963
0.116503
0.116008
0.115475
0.114931
0.11411
0.113508
0.113117
0.112958
0.112886
0.112554
0.112267
0.112077
0.111329
0.110466
0.109716
0.108756
0.107994
0.107124
0.106106
0.105548
0.120313
0.119654
0.119212
0.118543
0.117805
0.11716
0.116673
0.116288
0.11587
0.115385
0.114663
0.113984
0.113469
0.11311
0.112861
0.112377
0.112043
0.111988
0.111365
0.110627
0.109913
0.10902
0.108284
0.108104
0.121123
0.120797
0.120422
0.119907
0.119441
0.118825
0.118029
0.117361
0.116935
0.116555
0.116171
0.115703
0.115124
0.114578
0.114016
0.113495
0.113086
0.112498
0.111915
0.111848
0.111248
0.110649
0.109731
0.110077
0.109721
0.121524
0.121257
0.121017
0.120716
0.120288
0.119757
0.119078
0.118252
0.117551
0.117165
0.116855
0.116466
0.115918
0.115398
0.114946
0.114586
0.114113
0.113561
0.112887
0.112361
0.111834
0.111225
0.110948
0.110539
0.122008
0.122002
0.121485
0.121324
0.121057
0.120644
0.120072
0.119352
0.118511
0.117776
0.117337
0.117045
0.116777
0.116315
0.11576
0.115128
0.114863
0.114486
0.11379
0.113318
0.112874
0.112253
0.111557
0.111637
0.123087
0.122584
0.122362
0.1219
0.121657
0.121536
0.12131
0.120928
0.120341
0.11963
0.118808
0.118024
0.117458
0.11706
0.116781
0.116415
0.115898
0.115257
0.115012
0.114779
0.114184
0.113571
0.113129
0.113008
0.112366
0.12419
0.123441
0.122799
0.122351
0.122017
0.121798
0.121697
0.121495
0.121151
0.120605
0.119911
0.119138
0.11833
0.117637
0.117127
0.116769
0.116403
0.115981
0.115467
0.115093
0.114854
0.114495
0.114211
0.113343
0.125879
0.124075
0.123736
0.122976
0.12238
0.122061
0.121928
0.121827
0.121649
0.121377
0.120844
0.120239
0.119515
0.11875
0.117963
0.117351
0.116959
0.116576
0.116222
0.115823
0.11536
0.114854
0.114905
0.114622
0.125944
0.125746
0.124731
0.124057
0.123313
0.122537
0.122017
0.121974
0.121885
0.121761
0.121606
0.121122
0.120602
0.119966
0.119274
0.118546
0.11785
0.117357
0.116959
0.116495
0.116197
0.116072
0.115825
0.127186
0.12693
0.126473
0.125868
0.125159
0.124479
0.123807
0.123005
0.122298
0.122034
0.12193
0.121837
0.121762
0.121437
0.120979
0.120402
0.11977
0.119127
0.118481
0.117942
0.117408
0.116937
0.116505
0.115422
0.127701
0.127518
0.127046
0.126663
0.126189
0.125579
0.124968
0.124369
0.123612
0.12284
0.122372
0.122102
0.121933
0.121821
0.121582
0.121214
0.120701
0.120158
0.119557
0.118931
0.118563
0.118111
0.117832
0.116783
0.128869
0.128198
0.127943
0.127413
0.127039
0.126581
0.126008
0.125377
0.124852
0.124187
0.123419
0.122854
0.122406
0.122102
0.121908
0.121676
0.121328
0.120878
0.120421
0.11988
0.119284
0.118971
0.117933
0.130335
0.129366
0.129103
0.128484
0.128218
0.12784
0.127439
0.12697
0.126384
0.125759
0.125275
0.12475
0.124005
0.123349
0.122773
0.122352
0.122052
0.121813
0.121493
0.121026
0.120573
0.120192
0.11968
0.118176
0.131662
0.130228
0.129801
0.129295
0.128774
0.128463
0.128161
0.127803
0.127344
0.126702
0.126083
0.125642
0.125214
0.124548
0.123867
0.12329
0.122777
0.12237
0.122074
0.12174
0.121325
0.12099
0.120484
0.121295
0.131279
0.1313
0.130774
0.130121
0.129552
0.129036
0.128657
0.128386
0.12811
0.127696
0.127095
0.126438
0.125952
0.125608
0.125072
0.124403
0.123825
0.123275
0.122826
0.122464
0.122115
0.121654
0.121352
0.120982
0.132026
0.132145
0.131585
0.131034
0.130432
0.129876
0.129405
0.128987
0.128662
0.128373
0.128016
0.127509
0.126861
0.126303
0.125904
0.125446
0.124914
0.124313
0.123725
0.123272
0.122891
0.122446
0.122146
0.133317
0.133854
0.132579
0.132465