/*--------------------------------*- C++ -*----------------------------------*\
| =========                 |                                                 |
| \\      /  F ield         | OpenFOAM: The Open Source CFD Toolbox           |
|  \\    /   O peration     | Version:  2312                                  |
|   \\  /    A nd           | Website:  www.openfoam.com                      |
|    \\/     M anipulation  |                                                 |
\*---------------------------------------------------------------------------*/
FoamFile
{
    version     2.0;
    format      ascii;
    arch        "LSB;label=64;scalar=64";
    class       volScalarField;
    location    "90";
    object      nut_ML_ND;
}
// * * * * * * * * * * * * * * * * * * * * * * * * * * * * * * * * * * * * * //

dimensions      [0 0 0 0 0 0 0];

internalField   nonuniform List<scalar> 
404911
(
0.524236
0.555925
0.140848
0.0741057
0.576299
0.572422
0.556922
0.0985056
0.309105
0.0756281
0.580794
0.559805
0.59125
0.578387
0.539389
0.347082
0.571923
0.595711
0.586438
0.546765
0.501811
0.591479
0.496093
0.525227
0.586553
0.508835
0.580527
0.59249
0.597414
0.516527
0.590177
0.595407
0.595767
0.548549
0.588286
0.591798
0.574159
0.517887
0.562486
0.579337
0.566336
0.358772
0.551133
0.57707
0.585634
0.528748
0.525679
0.574885
0.582681
0.475473
0.506881
0.531967
0.555198
0.425226
0.516853
0.499732
0.0740165
0.583735
0.545493
0.545425
0.561237
0.578293
0.556114
0.584502
0.576898
0.548408
0.58394
0.547068
0.575692
0.583006
0.572963
0.585221
0.575936
0.577749
0.585215
0.530008
0.305143
0.559612
0.579541
0.572308
0.577313
0.569861
0.58567
0.570128
0.579374
0.576246
0.538221
0.580692
0.415749
0.56453
0.556772
0.17115
0.577828
0.566649
0.565537
0.577971
0.574773
0.573273
0.582988
0.550134
0.517454
0.582044
0.575009
0.521059
0.510696
0.538506
0.571051
0.545487
0.580068
0.592506
0.59067
0.587641
0.58419
0.57677
0.357505
0.554736
0.589472
0.360435
0.533098
0.571036
0.571643
0.573464
0.575806
0.569938
0.517257
0.580432
0.59175
0.588106
0.581961
0.539519
0.543141
0.548151
0.575716
0.576261
0.574039
0.577932
0.577634
0.581126
0.581298
0.551538
0.524962
0.581467
0.591956
0.59031
0.583877
0.570411
0.567597
0.567753
0.533314
0.543111
0.575185
0.57531
0.571666
0.512763
0.548603
0.527393
0.58356
0.590027
0.587381
0.58035
0.573225
0.573985
0.570603
0.5689
0.569189
0.569391
0.570817
0.570498
0.570634
0.563457
0.569924
0.551764
0.556766
0.547733
0.539943
0.542408
0.528084
0.573913
0.570022
0.570067
0.572867
0.57507
0.57672
0.580612
0.583958
0.580613
0.584032
0.548107
0.561005
0.54624
0.535152
0.54056
0.544025
0.537414
0.539556
0.570621
0.572936
0.57606
0.578632
0.581924
0.585863
0.585635
0.51232
0.527206
0.585976
0.559413
0.576461
0.565137
0.556314
0.543078
0.533708
0.544064
0.542259
0.542896
0.541609
0.572408
0.575655
0.580655
0.586049
0.586898
0.555316
0.528349
0.547564
0.578331
0.573762
0.574309
0.566483
0.557044
0.548571
0.560646
0.544775
0.558643
0.566844
0.57301
0.57303
0.583926
0.589411
0.57652
0.514332
0.512463
0.577981
0.592048
0.583219
0.575856
0.575791
0.574203
0.572611
0.567336
0.557133
0.555502
0.572209
0.572963
0.553995
0.540347
0.585343
0.590629
0.517501
0.552937
0.589605
0.591324
0.576041
0.575248
0.575465
0.575853
0.577777
0.577257
0.576438
0.574004
0.572995
0.545689
0.54171
0.54464
0.547366
0.565702
0.55762
0.587105
0.586493
0.553698
0.574675
0.576896
0.576874
0.575661
0.574229
0.576664
0.576419
0.576274
0.566616
0.539991
0.541387
0.552806
0.510125
0.570869
0.589712
0.586634
0.585441
0.583383
0.575283
0.578168
0.578166
0.575884
0.569492
0.573333
0.573756
0.57636
0.565028
0.550537
0.550698
0.580411
0.521355
0.520139
0.524284
0.573258
0.577455
0.579773
0.581354
0.576642
0.57515
0.576228
0.577821
0.57859
0.573686
0.576441
0.576512
0.574986
0.558317
0.586679
0.54732
0.51879
0.581984
0.591988
0.585267
0.582417
0.576896
0.576729
0.580646
0.575386
0.576267
0.576763
0.581117
0.578689
0.575932
0.577419
0.576188
0.565899
0.57994
0.556122
0.59275
0.592692
0.58968
0.582635
0.576128
0.577653
0.57775
0.581639
0.582485
0.582085
0.582939
0.578394
0.573962
0.572659
0.571639
0.587996
0.519628
0.519425
0.582097
0.594593
0.589818
0.588236
0.584165
0.58113
0.577096
0.580091
0.582647
0.583712
0.578539
0.581294
0.578054
0.580085
0.585958
0.543893
0.522157
0.57532
0.592456
0.590989
0.581542
0.580423
0.58176
0.580516
0.58344
0.583626
0.583697
0.584897
0.582511
0.581025
0.5762
0.579593
0.590633
0.576301
0.533796
0.517308
0.52809
0.569
0.580906
0.575511
0.582402
0.579228
0.578935
0.583365
0.585683
0.584934
0.584425
0.583866
0.583571
0.581657
0.581498
0.591203
0.56032
0.566497
0.596278
0.589093
0.582931
0.582279
0.583376
0.582184
0.580616
0.582556
0.58023
0.582802
0.584886
0.585146
0.587444
0.592638
0.5913
0.57243
0.529173
0.596694
0.600676
0.591777
0.586959
0.583075
0.583228
0.58372
0.581175
0.57768
0.57753
0.578114
0.581687
0.584639
0.588058
0.590067
0.59288
0.570586
0.5674
0.600381
0.595998
0.593283
0.587482
0.583056
0.582233
0.58414
0.583869
0.579904
0.576884
0.580708
0.581095
0.579475
0.58905
0.587982
0.591244
0.519163
0.587368
0.600727
0.598279
0.592466
0.587864
0.585146
0.581292
0.576997
0.584819
0.584651
0.581629
0.581602
0.580257
0.579676
0.585356
0.593084
0.579314
0.516428
0.560963
0.596193
0.597831
0.594172
0.590256
0.58663
0.583765
0.584818
0.584507
0.582615
0.580897
0.583679
0.582456
0.583763
0.582521
0.593413
0.591512
0.51783
0.517867
0.584794
0.597052
0.591705
0.590221
0.588498
0.58592
0.585656
0.585061
0.584342
0.585847
0.584571
0.581737
0.583473
0.586689
0.591268
0.590131
0.570483
0.55619
0.592224
0.593432
0.591631
0.588758
0.586751
0.586618
0.585469
0.584207
0.585769
0.585924
0.585572
0.582091
0.583566
0.586636
0.587724
0.586603
0.514219
0.509003
0.579987
0.59367
0.592185
0.589746
0.58762
0.586007
0.584973
0.584892
0.583553
0.583126
0.585246
0.585059
0.58556
0.585394
0.589777
0.587097
0.575859
0.518529
0.592047
0.593152
0.590232
0.588588
0.587265
0.586683
0.585925
0.584996
0.584633
0.584931
0.585001
0.585945
0.587245
0.589869
0.590882
0.587703
0.569681
0.58352
0.598163
0.590991
0.58789
0.587217
0.587512
0.587242
0.586857
0.586514
0.586176
0.585806
0.586213
0.586432
0.588508
0.590642
0.592254
0.590572
0.550756
0.588976
0.597607
0.588321
0.58405
0.586901
0.587566
0.586721
0.585634
0.586051
0.58628
0.586145
0.58648
0.58695
0.588218
0.592261
0.593352
0.579905
0.515032
0.520266
0.596987
0.600649
0.594197
0.585982
0.586361
0.586816
0.58644
0.585197
0.58523
0.585448
0.586235
0.586102
0.586806
0.588543
0.589847
0.591057
0.557485
0.528197
0.598699
0.600593
0.595775
0.589224
0.586972
0.586841
0.586252
0.585461
0.585347
0.58581
0.585914
0.586481
0.586375
0.588962
0.589729
0.589942
0.513982
0.581003
0.598293
0.597729
0.594171
0.589123
0.584899
0.58523
0.586263
0.585399
0.585901
0.586836
0.587519
0.587251
0.58778
0.589272
0.592983
0.586771
0.510839
0.583971
0.59771
0.597408
0.591711
0.588665
0.586049
0.584762
0.583995
0.586025
0.585631
0.584222
0.585712
0.587033
0.588181
0.589794
0.591997
0.573726
0.520477
0.593747
0.597302
0.59542
0.590978
0.587186
0.586205
0.584364
0.58529
0.585745
0.586229
0.586487
0.585852
0.585547
0.587474
0.588149
0.588974
0.555481
0.561498
0.596569
0.596527
0.591399
0.589312
0.587449
0.585885
0.585682
0.583168
0.585163
0.58589
0.583852
0.586468
0.586897
0.587169
0.588071
0.585935
0.513165
0.581659
0.598166
0.596336
0.590973
0.588288
0.586584
0.585363
0.585381
0.585071
0.585951
0.584591
0.585701
0.58517
0.587053
0.588653
0.585497
0.574239
0.508685
0.518268
0.592152
0.597967
0.594755
0.589633
0.586913
0.586475
0.58498
0.58573
0.585738
0.585473
0.585748
0.585168
0.585476
0.587531
0.589361
0.588655
0.570391
0.518595
0.592705
0.597202
0.594074
0.589264
0.586056
0.5855
0.585731
0.583725
0.585513
0.585786
0.585727
0.585848
0.585856
0.587343
0.589278
0.588121
0.552131
0.519858
0.594203
0.596997
0.59365
0.588496
0.585288
0.585077
0.585276
0.585676
0.585872
0.585725
0.585614
0.585306
0.585974
0.58684
0.587004
0.5831
0.511059
0.520501
0.596263
0.597258
0.593319
0.588103
0.583962
0.584315
0.584428
0.585223
0.584272
0.586283
0.585812
0.585741
0.585593
0.587162
0.586839
0.571066
0.504642
0.584726
0.599578
0.597463
0.592138
0.587553
0.584505
0.583214
0.583877
0.585327
0.586839
0.585638
0.585607
0.585316
0.583664
0.585937
0.588641
0.570464
0.51549
0.588816
0.601568
0.597962
0.590229
0.585459
0.584915
0.584367
0.583974
0.583894
0.585533
0.585825
0.585058
0.585764
0.585858
0.586992
0.588114
0.572019
0.518682
0.597132
0.60033
0.594641
0.589901
0.585454
0.583866
0.582873
0.583688
0.584543
0.583322
0.583255
0.585806
0.584373
0.585193
0.589496
0.588773
0.572076
0.524595
0.596638
0.600922
0.596393
0.589796
0.586616
0.585515
0.585856
0.585404
0.583985
0.583661
0.585588
0.58338
0.584804
0.587642
0.590944
0.593198
0.572951
0.522517
0.595379
0.59971
0.596164
0.590531
0.585595
0.584288
0.584839
0.585235
0.585566
0.58581
0.586164
0.586971
0.586876
0.589163
0.591176
0.594268
0.571857
0.521543
0.595526
0.598189
0.594742
0.590103
0.586192
0.584559
0.584249
0.584907
0.585768
0.586656
0.587538
0.58822
0.58838
0.590413
0.593768
0.594245
0.558709
0.523557
0.596105
0.596317
0.592817
0.588644
0.585661
0.585174
0.585136
0.585302
0.585287
0.584598
0.586125
0.586623
0.587808
0.590158
0.592275
0.592044
0.517757
0.581569
0.597016
0.595991
0.590553
0.587071
0.584867
0.584945
0.585379
0.58576
0.586124
0.586467
0.586281
0.586203
0.587558
0.589876
0.5913
0.59106
0.514029
0.58048
0.596653
0.595813
0.590398
0.585482
0.584455
0.585377
0.58588
0.585976
0.585701
0.585971
0.586417
0.586916
0.587958
0.589775
0.591374
0.588983
0.514403
0.513638
0.592476
0.596391
0.594163
0.59026
0.585867
0.585386
0.585665
0.585805
0.584696
0.584201
0.581535
0.585093
0.586568
0.587931
0.589676
0.590997
0.587265
0.51434
0.517668
0.591403
0.596411
0.589417
0.588006
0.586333
0.584553
0.585485
0.582763
0.582005
0.581935
0.579605
0.580669
0.585959
0.587964
0.5897
0.590438
0.579174
0.589056
0.593796
0.592351
0.588995
0.585798
0.584903
0.586478
0.582249
0.577877
0.578256
0.574803
0.583103
0.586817
0.588096
0.590859
0.590291
0.575206
0.515417
0.586833
0.59194
0.591047
0.588409
0.586702
0.585487
0.584818
0.58641
0.58502
0.574383
0.571545
0.580523
0.586428
0.586387
0.588524
0.589074
0.566073
0.511883
0.585408
0.589774
0.59001
0.587494
0.586127
0.586439
0.586349
0.585733
0.585964
0.584198
0.575848
0.579547
0.586055
0.588208
0.589016
0.588929
0.550671
0.506515
0.580766
0.585228
0.586906
0.586674
0.58573
0.585917
0.58689
0.585974
0.585708
0.585713
0.585447
0.585272
0.586447
0.588509
0.590734
0.588503
0.514738
0.578228
0.569093
0.582312
0.584157
0.585236
0.585716
0.586741
0.584699
0.583908
0.585099
0.585856
0.586346
0.587395
0.588444
0.589354
0.586614
0.510822
0.506625
0.576343
0.582616
0.584124
0.583408
0.585144
0.585964
0.586357
0.583978
0.580626
0.584659
0.5852
0.587275
0.588801
0.587569
0.585086
0.506136
0.445554
0.555973
0.578649
0.583193
0.585141
0.584552
0.584911
0.586025
0.584905
0.585863
0.585432
0.584824
0.586325
0.587948
0.589818
0.589664
0.582457
0.507646
0.554615
0.582333
0.581055
0.584076
0.586761
0.585328
0.584952
0.586328
0.585549
0.585644
0.585785
0.585991
0.586282
0.588669
0.589167
0.58856
0.568659
0.55896
0.572414
0.583104
0.585677
0.587281
0.585948
0.582553
0.586125
0.586216
0.585405
0.581969
0.585795
0.584912
0.587097
0.586934
0.585404
0.564783
0.497579
0.568674
0.58621
0.583351
0.583496
0.58469
0.585134
0.585347
0.58559
0.586011
0.584018
0.583522
0.585548
0.586639
0.587659
0.585849
0.581716
0.515346
0.510664
0.582729
0.580164
0.584818
0.58234
0.584923
0.583996
0.585583
0.585659
0.582291
0.584907
0.585015
0.585822
0.584007
0.584473
0.586199
0.581463
0.505218
0.51573
0.586586
0.573588
0.582183
0.584155
0.585082
0.585792
0.584612
0.585737
0.580341
0.581763
0.584256
0.585765
0.585258
0.582963
0.581697
0.583098
0.503264
0.543245
0.587877
0.581943
0.583163
0.585447
0.58565
0.584455
0.579464
0.584645
0.585344
0.585493
0.585509
0.584953
0.585037
0.583888
0.580694
0.585492
0.507997
0.511536
0.579033
0.590526
0.583755
0.58291
0.585741
0.579411
0.561575
0.570272
0.584613
0.585673
0.584702
0.583838
0.583393
0.585344
0.58318
0.585136
0.561767
0.5073
0.524113
0.591166
0.588318
0.584121
0.583787
0.58576
0.569591
0.550758
0.56201
0.583802
0.58556
0.584953
0.584018
0.585871
0.58633
0.589023
0.589725
0.583361
0.504541
0.584811
0.588647
0.585549
0.584741
0.585361
0.566625
0.551284
0.557083
0.57398
0.58574
0.585822
0.58568
0.584137
0.586087
0.588556
0.592718
0.574786
0.505298
0.584073
0.590933
0.582915
0.585343
0.583595
0.554906
0.552212
0.567893
0.574988
0.583567
0.585772
0.584869
0.586259
0.586859
0.589616
0.59114
0.568531
0.589013
0.595796
0.585506
0.583938
0.583238
0.55879
0.550487
0.561109
0.582413
0.580643
0.585718
0.585867
0.584957
0.587778
0.589091
0.590165
0.55333
0.591154
0.589418
0.589603
0.58305
0.585337
0.55556
0.551181
0.560105
0.573382
0.581223
0.584992
0.585997
0.586786
0.587713
0.590979
0.589928
0.516642
0.522447
0.590914
0.591707
0.586867
0.583606
0.585835
0.571723
0.55607
0.56811
0.579408
0.585453
0.585735
0.585128
0.585867
0.589363
0.587699
0.58577
0.511805
0.520698
0.588288
0.58693
0.585095
0.584484
0.58542
0.560113
0.558212
0.57303
0.584326
0.585806
0.584574
0.583527
0.587269
0.592404
0.593167
0.575744
0.521793
0.591906
0.591369
0.586827
0.584817
0.585582
0.567141
0.554697
0.565619
0.584218
0.585722
0.584845
0.585737
0.587588
0.591899
0.592827
0.570799
0.52688
0.595336
0.592916
0.587803
0.584865
0.584033
0.55761
0.562231
0.58065
0.585553
0.585499
0.584238
0.586648
0.589772
0.591436
0.59299
0.569358
0.535211
0.600677
0.596699
0.587105
0.584157
0.585784
0.563492
0.562291
0.578346
0.58572
0.585477
0.585041
0.587552
0.590947
0.593305
0.592478
0.521891
0.543963
0.605461
0.599997
0.590604
0.584604
0.585515
0.585666
0.575851
0.576338
0.58573
0.584953
0.584921
0.587851
0.590709
0.592051
0.5898
0.518081
0.601159
0.603803
0.597978
0.58592
0.584495
0.584404
0.583494
0.585528
0.58567
0.58566
0.585267
0.586437
0.587519
0.589088
0.590416
0.586843
0.513516
0.586121
0.576316
0.582066
0.585439
0.582759
0.559261
0.574861
0.585172
0.585384
0.585404
0.586313
0.58666
0.587388
0.586547
0.576261
0.510378
0.584037
0.583099
0.579245
0.585503
0.56274
0.555956
0.562572
0.584027
0.585595
0.584832
0.584816
0.585264
0.587115
0.584666
0.567624
0.591479
0.592518
0.587364
0.575784
0.580617
0.563439
0.556724
0.569879
0.583268
0.585776
0.584783
0.585441
0.585198
0.583661
0.585034
0.56036
0.590464
0.602229
0.591185
0.582224
0.577334
0.585599
0.566036
0.569102
0.585717
0.58456
0.584137
0.581041
0.578266
0.580028
0.584391
0.512443
0.590102
0.599697
0.595211
0.58162
0.576342
0.577394
0.583832
0.584232
0.583761
0.583558
0.58218
0.580613
0.579195
0.576311
0.581186
0.511622
0.528556
0.592534
0.600542
0.59382
0.585793
0.575895
0.576216
0.578953
0.580184
0.571738
0.575309
0.57692
0.579627
0.576859
0.574979
0.547912
0.527491
0.598866
0.598979
0.591672
0.585413
0.579277
0.577101
0.58031
0.584651
0.582606
0.580582
0.578275
0.577305
0.575219
0.549106
0.578697
0.537248
0.59775
0.595407
0.590028
0.584373
0.578431
0.579972
0.580465
0.58285
0.583446
0.57863
0.576347
0.575087
0.575872
0.536093
0.524829
0.584823
0.594282
0.551985
0.559558
0.578277
0.583066
0.580996
0.583977
0.584468
0.583444
0.580302
0.580976
0.578459
0.577482
0.574379
0.41033
0.577052
0.562172
0.576982
0.579525
0.579864
0.581166
0.582733
0.578714
0.577906
0.578637
0.582321
0.581539
0.5822
0.588361
0.575653
0.537014
0.516713
0.54622
0.571784
0.574127
0.579998
0.578963
0.582375
0.582176
0.578149
0.57884
0.575652
0.577503
0.583142
0.591589
0.578786
0.512042
0.58781
0.554602
0.567512
0.577312
0.579875
0.581801
0.578866
0.577406
0.576771
0.578495
0.57809
0.586738
0.590799
0.591191
0.50861
0.513821
0.587592
0.585877
0.539324
0.566617
0.577151
0.581455
0.581061
0.576609
0.576173
0.577139
0.577492
0.581352
0.593279
0.579531
0.519658
0.552522
0.588473
0.585863
0.539965
0.542852
0.57336
0.579027
0.578578
0.576701
0.576572
0.575687
0.57795
0.588765
0.591051
0.57695
0.514855
0.556153
0.542654
0.535724
0.561748
0.577528
0.578927
0.577868
0.576361
0.576824
0.577712
0.59184
0.587438
0.511685
0.524561
0.54767
0.549274
0.541998
0.55617
0.547219
0.576097
0.57692
0.576531
0.576837
0.586985
0.59041
0.571088
0.509307
0.586441
0.581692
0.544478
0.538232
0.571428
0.546996
0.535608
0.577601
0.575626
0.579126
0.589884
0.588372
0.557706
0.506775
0.587566
0.583028
0.540211
0.533439
0.552579
0.572386
0.56173
0.539432
0.551396
0.5661
0.589952
0.588858
0.506508
0.509822
0.585769
0.549181
0.532431
0.531483
0.538956
0.559741
0.559721
0.57139
0.547668
0.54884
0.590262
0.589635
0.508292
0.510765
0.580599
0.53728
0.537105
0.531491
0.530615
0.558115
0.568558
0.574641
0.566524
0.544837
0.590716
0.579276
0.513077
0.513458
0.57877
0.577834
0.530822
0.531235
0.529813
0.518147
0.57197
0.570214
0.554174
0.586468
0.59298
0.577614
0.509059
0.510606
0.511353
0.565525
0.56982
0.531985
0.533321
0.527009
0.528181
0.568299
0.542116
0.54135
0.595226
0.583756
0.567215
0.531291
0.532546
0.533882
0.581166
0.54683
0.544911
0.561097
0.57377
0.566127
0.571586
0.534118
0.535041
0.590162
0.593511
0.585325
0.525708
0.275578
0.525919
0.577225
0.549571
0.553757
0.596982
0.583112
0.32303
0.350603
0.539924
0.525531
0.588884
0.59661
0.527393
0.534333
0.516227
0.590744
0.597324
0.568831
0.518152
0.526924
0.567302
0.586967
0.594511
0.525337
0.515514
0.555198
0.50651
0.520692
0.575147
0.549682
0.569467
0.574143
0.566678
0.565932
0.566035
0.563022
0.564957
0.54795
0.546833
0.514605
0.524944
0.207173
0.535102
0.528551
0.57615
0.5689
0.558795
0.606052
0.613969
0.616151
0.61059
0.603698
0.594617
0.583146
0.575565
0.560386
0.607077
0.621681
0.627262
0.626211
0.62041
0.613053
0.606264
0.598637
0.587231
0.581342
0.58134
0.579548
0.577461
0.579566
0.558753
0.606325
0.621441
0.622605
0.619935
0.617738
0.615353
0.61108
0.605117
0.597398
0.592054
0.590217
0.591383
0.589615
0.586989
0.583944
0.579521
0.577533
0.589211
0.584625
0.578501
0.575198
0.56451
0.598927
0.61541
0.615855
0.614321
0.61111
0.60731
0.602102
0.596305
0.593153
0.59327
0.592704
0.590352
0.58881
0.569097
0.57473
0.586841
0.583504
0.578812
0.575412
0.580853
0.582648
0.57253
0.578067
0.601028
0.609315
0.608906
0.607643
0.609938
0.609199
0.604928
0.597443
0.592298
0.58609
0.582521
0.587368
0.591557
0.593726
0.59201
0.586617
0.562174
0.569549
0.577605
0.575267
0.573398
0.573441
0.573355
0.532793
0.582196
0.601468
0.604019
0.606583
0.6045
0.598094
0.583839
0.569881
0.553328
0.588802
0.581923
0.576308
0.57893
0.589789
0.596382
0.597974
0.596272
0.593318
0.584761
0.556386
0.568347
0.58371
0.588588
0.589631
0.565761
0.51792
0.583156
0.583651
0.587189
0.588981
0.590794
0.58945
0.584949
0.581828
0.581272
0.580549
0.567284
0.580494
0.587401
0.580416
0.591216
0.56914
0.595899
0.594783
0.590525
0.583681
0.552594
0.565409
0.594699
0.573486
0.524872
0.584057
0.579513
0.582283
0.584956
0.586155
0.585504
0.584718
0.58434
0.580301
0.579209
0.579768
0.581224
0.580271
0.580523
0.578996
0.605359
0.597902
0.588139
0.602308
0.600699
0.598299
0.596479
0.597118
0.576134
0.580446
0.527876
0.58997
0.585259
0.579914
0.582863
0.586052
0.58691
0.586503
0.583794
0.583742
0.583426
0.581457
0.576005
0.579503
0.580902
0.584127
0.593113
0.596103
0.599208
0.595356
0.607321
0.60998
0.606118
0.596545
0.576712
0.530494
0.579891
0.599458
0.598775
0.59269
0.581745
0.582096
0.584653
0.586036
0.586883
0.585234
0.584714
0.584302
0.583763
0.585116
0.584149
0.583077
0.583578
0.584772
0.594781
0.593868
0.60108
0.604292
0.604645
0.605242
0.584103
0.540459
0.59
0.598102
0.593505
0.594846
0.587546
0.582754
0.583971
0.583506
0.584565
0.584611
0.583893
0.584909
0.585791
0.585262
0.581284
0.584624
0.585277
0.585724
0.588258
0.591186
0.602669
0.583051
0.589914
0.579904
0.492964
0.543398
0.50992
0.583713
0.591292
0.591753
0.587778
0.584793
0.58421
0.585807
0.58641
0.585952
0.585638
0.585118
0.584627
0.585057
0.584717
0.585271
0.58271
0.585066
0.587046
0.592052
0.600507
0.60559
0.576433
0.52335
0.520389
0.582046
0.583032
0.586262
0.589956
0.585526
0.585008
0.585513
0.585607
0.586244
0.585835
0.584963
0.58541
0.585407
0.584509
0.584128
0.584465
0.584937
0.583043
0.588498
0.598781
0.608619
0.604519
0.581266
0.583698
0.602372
0.595591
0.58797
0.583643
0.585885
0.585735
0.582665
0.585389
0.585839
0.585626
0.584535
0.585348
0.585746
0.585955
0.586025
0.585887
0.584306
0.583684
0.583296
0.582615
0.590454
0.603952
0.600912
0.579281
0.582699
0.605468
0.605742
0.598311
0.589597
0.585666
0.586112
0.585144
0.58373
0.5846
0.585732
0.585615
0.585751
0.584483
0.584664
0.585961
0.586055
0.585477
0.584629
0.582784
0.581953
0.582383
0.575373
0.594329
0.572057
0.588203
0.605494
0.601996
0.600882
0.594702
0.589735
0.586105
0.585938
0.586598
0.585522
0.584321
0.585293
0.585507
0.585809
0.585588
0.585062
0.585865
0.585847
0.584299
0.58259
0.582322
0.580145
0.579208
0.571053
0.538859
0.537754
0.592054
0.60676
0.603117
0.598562
0.594477
0.592282
0.588635
0.587095
0.585363
0.586018
0.586008
0.585382
0.585275
0.58588
0.585477
0.585899
0.585888
0.585929
0.585864
0.585113
0.58174
0.5798
0.58056
0.57803
0.560706
0.541894
0.595428
0.609947
0.604548
0.598671
0.593606
0.589972
0.587556
0.586952
0.585922
0.586106
0.585989
0.586104
0.585851
0.585772
0.585518
0.585075
0.583286
0.583469
0.585732
0.585327
0.585748
0.58358
0.581246
0.575662
0.561295
0.546895
0.605898
0.61226
0.604062
0.597194
0.591982
0.588914
0.587018
0.586184
0.585802
0.58556
0.584186
0.585602
0.586749
0.586473
0.585814
0.585713
0.586024
0.586037
0.582835
0.582981
0.585284
0.585001
0.586793
0.585869
0.58161
0.514778
0.536085
0.599745
0.609042
0.604644
0.596696
0.589999
0.586952
0.58607
0.585618
0.585531
0.585379
0.585469
0.585594
0.585117
0.585702
0.587067
0.586564
0.585999
0.585726
0.586131
0.586199
0.582798
0.584308
0.587678
0.586234
0.592148
0.51226
0.588242
0.60793
0.602953
0.597914
0.591473
0.587124
0.585745
0.585162
0.585486
0.585842
0.585986
0.586071
0.586227
0.586467
0.586704
0.587283
0.587499
0.586281
0.585766
0.585823
0.586187
0.585219
0.586489
0.587559
0.592884
0.569216
0.580806
0.60473
0.604198
0.598955
0.593265
0.589078
0.587573
0.584608
0.582559
0.581946
0.583166
0.585034
0.585931
0.586582
0.587321
0.587897
0.588084
0.587594
0.586267
0.585139
0.584857
0.586
0.588604
0.593997
0.596192
0.570877
0.542611
0.598856
0.604815
0.601229
0.595164
0.590394
0.588014
0.58586
0.582646
0.578252
0.575597
0.574731
0.578178
0.583474
0.585575
0.586492
0.587284
0.587423
0.586778
0.58587
0.585778
0.587431
0.592394
0.597666
0.601024
0.576047
0.586538
0.604966
0.602661
0.596422
0.591889
0.588695
0.585089
0.580477
0.576283
0.572939
0.56982
0.569589
0.572103
0.577778
0.583153
0.585419
0.586254
0.586413
0.586043
0.585708
0.586334
0.589666
0.593777
0.595272
0.591195
0.577769
0.601228
0.599741
0.597167
0.593217
0.590092
0.584422
0.577573
0.568165
0.5644
0.565119
0.564455
0.562406
0.56452
0.570946
0.579247
0.584121
0.585667
0.585896
0.585734
0.585886
0.587318
0.59125
0.596774
0.60006
0.543784
0.540236
0.59543
0.600351
0.596575
0.592561
0.590788
0.588777
0.58348
0.569381
0.558778
0.55431
0.555106
0.557603
0.558994
0.559273
0.564504
0.575399
0.581471
0.584954
0.585782
0.585915
0.586331
0.590598
0.596618
0.600485
0.578796
0.536472
0.595665
0.600557
0.595966
0.591856
0.589192
0.587949
0.586514
0.581262
0.56933
0.558271
0.553954
0.551534
0.551711
0.553556
0.557898
0.564199
0.574058
0.584003
0.585659
0.586422
0.587186
0.590745
0.59488
0.595658
0.591897
0.528731
0.577917
0.599595
0.596843
0.592084
0.588618
0.58742
0.58644
0.584099
0.577342
0.565456
0.557183
0.555686
0.555028
0.552963
0.553133
0.558419
0.56942
0.57812
0.583521
0.587383
0.588837
0.593699
0.597017
0.597954
0.593508
0.537318
0.547699
0.597751
0.597291
0.59409
0.589504
0.58734
0.586365
0.584581
0.581489
0.574171
0.562883
0.558588
0.560522
0.563192
0.558004
0.555714
0.56141
0.575384
0.584373
0.587179
0.589131
0.592459
0.596965
0.598637
0.59575
0.540568
0.595425
0.601009
0.596287
0.591411
0.588727
0.585945
0.581736
0.580533
0.57801
0.572361
0.563879
0.560249
0.567565
0.573621
0.570126
0.56092
0.564577
0.577457
0.585844
0.588625
0.591311
0.594892
0.600763
0.598403
0.541359
0.548244
0.601237
0.599057
0.593132
0.589183
0.587188
0.586453
0.579838
0.573883
0.573223
0.574257
0.573035
0.569679
0.570039
0.576833
0.58103
0.57511
0.571975
0.582545
0.588485
0.59103
0.593566
0.596416
0.595961
0.580292
0.591842
0.600387
0.595415
0.590315
0.58715
0.585639
0.584456
0.582031
0.572783
0.56826
0.569286
0.571514
0.574511
0.573976
0.575289
0.58159
0.585059
0.583925
0.586034
0.589358
0.593878
0.597055
0.597095
0.592438
0.536636
0.531307
0.595297
0.599326
0.593079
0.588592
0.586163
0.583682
0.580957
0.57775
0.57372
0.569188
0.567929
0.569595
0.57108
0.57119
0.571053
0.577322
0.584989
0.58707
0.588574
0.592783
0.595766
0.601128
0.600863
0.539984
0.579614
0.596782
0.596311
0.590876
0.587602
0.585507
0.581987
0.577361
0.573341
0.568638
0.565633
0.566964
0.569027
0.572526
0.574482
0.572978
0.574674
0.582772
0.587428
0.589809
0.592497
0.597251
0.596835
0.590259
0.520283
0.543392
0.598066
0.597321
0.592712
0.590616
0.58667
0.580025
0.576764
0.571291
0.565522
0.563242
0.560943
0.561581
0.567057
0.572246
0.577706
0.582531
0.585587
0.586834
0.589357
0.591159
0.59475
0.595639
0.592936
0.536458
0.590067
0.594525
0.593354
0.590108
0.588575
0.587707
0.579324
0.568063
0.562892
0.560501
0.5589
0.559106
0.557972
0.563021
0.571656
0.578311
0.583431
0.586035
0.5872
0.587177
0.590793
0.593943
0.596527
0.574179
0.545021
0.59775
0.595522
0.591067
0.588978
0.587448
0.586924
0.583854
0.571339
0.559548
0.556065
0.554704
0.556136
0.558374
0.56275
0.57037
0.57803
0.583003
0.585756
0.586658
0.587607
0.589723
0.590947
0.586743
0.52803
0.58842
0.597045
0.593219
0.589242
0.587068
0.586274
0.584352
0.581313
0.575305
0.56509
0.557808
0.556447
0.556702
0.561125
0.565477
0.570524
0.578264
0.583192
0.585402
0.586792
0.588482
0.590714
0.590231
0.568951
0.542169
0.597032
0.59564
0.591611
0.588306
0.586393
0.584474
0.581772
0.576188
0.569895
0.567904
0.565293
0.562604
0.564397
0.568308
0.572894
0.574986
0.579907
0.584871
0.586411
0.587663
0.589998
0.593778
0.592702
0.528162
0.586815
0.596161
0.593141
0.589585
0.587349
0.58539
0.583384
0.580082
0.574671
0.566994
0.56038
0.561048
0.564704
0.56931
0.574213
0.579457
0.584236
0.585997
0.587004
0.58773
0.58929
0.592931
0.593242
0.584296
0.54033
0.597043
0.595531
0.591431
0.588456
0.586334
0.584597
0.581684
0.578264
0.574126
0.567427
0.561433
0.557078
0.55842
0.564318
0.573783
0.580953
0.584802
0.586612
0.587541
0.588316
0.59082
0.595763
0.595223
0.53299
0.586686
0.596852
0.593859
0.590092
0.58747
0.585133
0.582731
0.58
0.576648
0.573157
0.569005
0.561411
0.557553
0.557673
0.562255
0.570361
0.57977
0.584161
0.586043
0.586891
0.587589
0.591803
0.591576
0.586325
0.591011
0.594238
0.592199
0.589331
0.58659
0.58367
0.580709
0.577835
0.575328
0.572833
0.570117
0.567365
0.561624
0.55964
0.56319
0.571516
0.580079
0.583961
0.585864
0.586631
0.588987
0.591247
0.594507
0.540542
0.537395
0.595805
0.595909
0.591808
0.588729
0.585625
0.582076
0.578561
0.575729
0.573748
0.572441
0.571117
0.569397
0.568631
0.568585
0.570824
0.576073
0.582505
0.586007
0.586374
0.587201
0.589355
0.590861
0.584589
0.523947
0.54144
0.593886
0.593861
0.591272
0.58849
0.585297
0.580766
0.576422
0.573359
0.57158
0.570857
0.570596
0.570346
0.570401
0.571894
0.575426
0.57986
0.58345
0.585464
0.586361
0.586735
0.589661
0.589524
0.540009
0.573661
0.596033
0.593417
0.590674
0.588414
0.5843
0.578294
0.574076
0.570173
0.56733
0.567129
0.568643
0.569925
0.57104
0.573009
0.576574
0.580864
0.583966
0.585696
0.586549
0.587441
0.590854
0.589712
0.532429
0.591299
0.595197
0.592535
0.58984
0.587696
0.584816
0.576935
0.571158
0.568878
0.565041
0.561206
0.563019
0.568212
0.571115
0.573491
0.576933
0.581068
0.584419
0.586105
0.586874
0.589581
0.589476
0.582368
0.54043
0.594703
0.594336
0.591225
0.588615
0.585897
0.583044
0.577791
0.57082
0.567814
0.56656
0.563644
0.560963
0.56432
0.570868
0.574694
0.577945
0.581507
0.584554
0.58652
0.587603
0.590135
0.592862
0.535681
0.570206
0.59542
0.593193
0.590091
0.587332
0.584965
0.581066
0.576018
0.571066
0.567661
0.566897
0.567279
0.566277
0.56601
0.569728
0.575041
0.579515
0.583087
0.58523
0.586762
0.588324
0.590217
0.587786
0.521936
0.588526
0.59336
0.591922
0.589011
0.58639
0.584191
0.58078
0.574773
0.567612
0.563167
0.564173
0.566305
0.568535
0.570277
0.571452
0.575041
0.579385
0.583054
0.585635
0.58713
0.589179
0.591297
0.583211
0.535068
0.595052
0.594438
0.591125
0.588444
0.585954
0.583271
0.579535
0.574494
0.567783
0.560754
0.557282
0.560681
0.565917
0.569826
0.57311
0.576216
0.580037
0.583472
0.585997
0.587318
0.59008
0.591152
0.56747
0.568063
0.594085
0.592969
0.589979
0.587722
0.58559
0.582696
0.577844
0.571579
0.565241
0.560434
0.557393
0.555183
0.558649
0.566413
0.57228
0.576783
0.58091
0.584093
0.586293
0.587719
0.591403
0.593554
0.535185
0.583707
0.595291
0.592587
0.589989
0.587286
0.584662
0.581442
0.576604
0.569214
0.560542
0.555375
0.554432
0.555679
0.555763
0.558912
0.568482
0.576387
0.581026
0.584741
0.586757
0.588874
0.591384
0.58943
0.521457
0.589559
0.592269
0.590952
0.589106
0.587096
0.584031
0.579932
0.575208
0.569225
0.560874
0.552975
0.550132
0.551714
0.55585
0.559866
0.565918
0.574966
0.581456
0.584861
0.5873
0.589173
0.593267
0.586549
0.527262
0.594642
0.595157
0.590922
0.58821
0.585835
0.583466
0.578911
0.57387
0.569404
0.564434
0.558107
0.551372
0.54882
0.551419
0.559228
0.568343
0.576352
0.582227
0.585906
0.587471
0.590638
0.591154
0.567571
0.537489
0.596729
0.5945
0.59066
0.587924
0.585398
0.582717
0.579005
0.573929
0.569829
0.566398
0.56276
0.55899
0.553254
0.55038
0.554835
0.566915
0.577768
0.583679
0.586845
0.588813
0.591023
0.593703
0.531726
0.541892
0.593063
0.592794
0.590413
0.587939
0.585356
0.582365
0.579208
0.576214
0.572203
0.568333
0.564879
0.561696
0.558779
0.556335
0.556137
0.56448
0.577221
0.584473
0.587446
0.589719
0.594247
0.588491
0.582538
0.594556
0.592767
0.590232
0.587732
0.585355
0.58177
0.578114
0.575682
0.574157
0.571191
0.566658
0.561651
0.55782
0.557499
0.561248
0.567934
0.578583
0.585551
0.588001
0.590193
0.592452
0.582235
0.584778
0.595663