/*--------------------------------*- C++ -*----------------------------------*\
| =========                 |                                                 |
| \\      /  F ield         | OpenFOAM: The Open Source CFD Toolbox           |
|  \\    /   O peration     | Version:  2312                                  |
|   \\  /    A nd           | Website:  www.openfoam.com                      |
|    \\/     M anipulation  |                                                 |
\*---------------------------------------------------------------------------*/
FoamFile
{
    version     2.0;
    format      ascii;
    arch        "LSB;label=64;scalar=64";
    class       volScalarField;
    location    "90";
    object      omega;
}
// * * * * * * * * * * * * * * * * * * * * * * * * * * * * * * * * * * * * * //

dimensions      [0 0 -1 0 0 0 0];

internalField   nonuniform List<scalar> 
404911
(
234.097
157.976
3436.4
1536.64
169.112
205.176
147.553
603.552
341.926
282.065
233.326
311.782
171.564
230.206
422.176
1102.46
247.01
171.12
184.699
298.754
475.401
209.914
603.096
421.488
168.044
949.534
258.404
164.178
222.313
996.671
235.915
164.691
289.589
488.244
237.437
167.501
302.164
429.081
231.733
119.472
314.476
1010.34
216.03
103.716
141.518
392.18
324.155
123.17
142.234
764.437
384.475
307.174
183.504
1340.06
334.04
578.034
9402.46
115.855
326.864
223.24
194.395
123.797
166.628
50.0722
86.8033
229.182
59.2667
276.406
99.3052
71.0877
138.403
33.3504
134.758
98.2267
49.9776
593.078
2265.02
246.635
89.4066
121.323
91.8952
127.499
36.1391
121.492
71.2364
96.0242
249.229
63.3832
1133.3
151.553
136.816
2951.41
74.9603
96.7555
128.81
82.0658
102.759
102.041
55.1776
224.468
600.583
60.0786
85.1584
451.847
1180.7
433.394
195.322
638.617
302.963
242.397
179.689
174.285
159.326
170.197
2202.62
467.256
182.755
4476.89
538.512
127.072
132.428
139.186
146.892
211.284
1271.3
282.025
176.485
160.163
141.171
459.527
422.667
467.678
140.567
129.249
146.483
145.526
190.446
193.976
134.379
222.114
1149.64
282.196
170.81
148.383
139.916
129.929
132.816
128.049
444.454
401.329
144.399
127.169
150.632
1726.31
217.842
947.908
235.205
161.603
144.53
141.948
129.484
128.87
132.084
132.158
130.03
125.535
128.044
128.033
140.101
205.957
369.216
554.442
415
369.398
382.436
379.258
450.246
127.495
138.967
134.74
135.498
135.861
144.77
156.784
161.053
158.352
270.243
681.643
436.504
356.592
348.458
323.154
303.412
474.365
386.691
118.216
138.295
138.503
146.664
154.997
162.208
190.692
1110.71
953.075
239.54
564.633
281.925
243.844
224.444
209.056
374.395
272.745
328.167
392.462
402.981
124.461
144.534
152.176
151.188
173.874
453.929
812.442
559.924
253.038
181.755
113.732
151.338
219.631
222.564
166.749
226.085
193.819
187.263
105.76
142.704
152.019
170.187
256.81
1154.01
1168
243.96
109.141
152.033
120.43
105.719
106.215
125.568
159.491
179.373
198.715
127.272
120.565
261.422
424.432
145.918
188.338
1064.84
417.902
139.131
94.9921
192.735
115.491
111.738
106.391
98.8318
106.632
107.342
117.464
127.541
300.782
327.823
414.62
489.922
402.296
435.213
177.659
132.655
326.808
147.263
105.697
107.95
107.101
125.156
110.557
100.376
98.7516
147.302
312.827
383.193
436.309
1648.01
334.224
159.901
130.436
84.9078
99.6143
124.555
104.797
98.3083
112.931
157.117
114.834
112.224
105.151
166.897
353.001
395.175
218.981
985.953
927.244
833.777
266.501
188.822
67.9911
62.2567
109.33
125.187
107.256
102.872
122.785
145.624
107.718
106.084
118.918
322.65
167.74
503.801
1063.71
218.523
123.742
145.845
122.528
126.048
93.8269
63.4206
115.112
106.017
117.806
67.6864
75.9858
114.163
106.362
114.725
265.778
233.836
427.754
139.633
94.582
84.8042
86.2739
140.242
97.1294
92.967
58.1371
68.1014
67.0143
52.9923
62.637
106.43
145.985
186.792
161.846
957.608
1098.73
231.518
127.418
88.9883
62.8009
61.0214
65.8783
99.108
78.5008
67.6212
54.5967
98.0259
81.5456
96.3279
89.3485
104.656
387.906
839.143
327.894
127.843
96.0479
102.58
121.279
61.6778
77.4731
56.9071
45.3829
46.9302
46.4613
70.2059
87.2277
132.791
134.314
118.71
241.893
665.199
1053.01
845.854
301.515
127.894
138.906
68.2052
83.4738
83.3363
65.7502
48.4605
41.9712
44.7399
52.9054
76.7995
123.315
134.218
123.4
403.958
397.704
144.684
144.968
103.707
83.5591
63.4064
65.4564
72.5407
66.4524
80.0832
64.9059
48.7376
63.2613
82.3542
82.9341
110.51
232.183
934.938
166.707
109.832
121.146
74.6748
74.291
60.9606
57.1239
72.2599
94.138
91.449
90.7616
77.8033
66.5254
79.388
123.827
125.401
266.706
396.685
124.394
131.41
106.266
73.1008
58.6792
64.9516
52.8223
54.2139
75.6826
109.854
84.954
85.4065
100.758
96.4711
140.205
147.781
925.525
224.83
105.686
87.4268
69.1586
58.756
46.8466
55.628
85.6912
41.668
43.4344
67.7919
73.9978
94.5452
123.889
169.863
143.486
247.205
1127.5
425.476
153.898
101.99
78.508
65.0937
52.3924
64.0023
49.9864
44.4646
53.4523
53.8234
44.8784
56.3368
68.6786
145.942
97.4755
156.793
953.4
1081.25
206.035
104.483
123.924
77.6338
58.1567
52.7095
42.6153
44.1246
52.4021
36.101
53.3323
56.9992
67.5042
78.4255
87.9062
124.216
251.553
389.69
130.601
95.5021
73.6022
62.5154
53.9212
46.4753
50.3728
54.5147
33.4967
34.2329
40.3454
69.5824
84.8248
115.685
124.696
144.421
938.157
1077.9
195.899
101.04
78.7177
63.6584
55.6932
51.124
51.6716
48.9735
55.8785
61.4169
47.202
48.8709
49.0922
80.3082
89.1912
154.642
228.797
842.276
124.228
92.5372
70.8895
57.5586
49.39
46.6533
49.3639
51.0522
49.2641
44.4216
49.1384
51.2337
57.3497
74.3192
106.221
167.692
281.618
227.726
101.124
99.8469
70.8183
52.562
46.1742
45.9989
43.9891
44.2561
44.6468
43.4938
43.1283
50.5769
62.1734
87.8362
116.096
139.181
463.755
209.067
123.273
118.101
67.5043
46.1523
42.6543
45.362
46.3612
41.3069
42.0516
42.396
43.347
49.7937
68.6619
83.9945
107.682
211.879
1063.83
1118.73
159.742
95.8167
94.8611
80.3011
49.3892
43.8288
42.9725
52.4496
49.0336
46.1139
43.1534
44.9088
51.6155
65.4029
108.149
137.762
419.487
891.908
146.048
97.0094
72.5013
59.8095
47.5245
41.2397
39.4396
43.2418
46.6854
45.1637
46.4713
47.8775
57.9105
68.1204
103.687
142.07
1008.05
259.391
124.681
98.3651
71.3532
59.2738
54.0525
46.2923
39.1868
40.4821
39.5996
36.8498
38.9131
46.2622
60.171
91.6588
93.1555
147.443
1044.18
246.871
111.24
81.3243
67.7037
53.7003
60.9289
53.1496
47.5522
38.0176
39.7193
48.3433
46.7864
48.6501
62.6941
84.9549
104.425
227.508
991.867
175.981
109.761
80.4095
64.3178
57.108
43.6271
56.7586
48.4067
39.0794
37.2703
40.1133
46.3064
54.3066
67.0823
103.123
123.499
403.732
393.972
129.34
97.7692
92.184
63.0889
49.8367
43.9073
36.2265
56.9735
48.9014
36.4125
47.8469
46.2172
52.9087
68.5581
100.408
136.741
948.032
247.211
108.931
79.8607
64.832
53.68
44.9276
53.1898
45.3002
43.9275
33.8015
52.3202
38.6678
48.7537
56.2514
64.7155
110.742
172.358
1074.85
1003.51
157.572
100.519
83.1412
63.5892
52.2539
40.3852
51.5109
39.5764
39.0748
42.7993
30.307
46.6375
49.8138
53.2823
72.2095
94.3816
197.475
995.226
147.638
94.8538
73.207
61.697
47.8105
40.5526
36.756
52.6564
44.0681
38.6691
35.1277
35.6794
43.8415
54.3072
67.792
105.153
369.222
981.367
145.939
95.2453
70.0345
60.9164
50.2207
42.1547
37.9655
36.5711
35.7238
32.8335
35.4661
33.6233
42.5709
59.733
78.4608
117.551
839.123
981.858
143.786
94.8483
70.2354
59.2508
52.7242
48.5289
44.8567
41.9446
48.7974
35.3442
32.4794
39.595
45.5838
58.8526
89.85
166.901
1063.01
246.538
128.191
97.9778
72.2769
59.4023
48.4583
49.7545
48.6447
42.4917
38.2893
42.4108
38.7256
38.81
58.309
64.0758
91.9633
190.086
1109.37
225.685
108.681
84.2492
72.3061
60.3802
47.2498
44.7576
45.8258
44.796
39.3784
31.9677
31.7919
37.1096
47.4012
61.3037
96.8994
185.676
1060.34
151.046
106.704
98.5298
68.8318
58.1392
53.0184
53.9561
46.2319
43.6756
49.4485
47.8555
38.5452
54.5716
61.7052
72.1663
102.269
202.653
939.507
148.674
98.3384
73.7878
66.4891
54.9886
46.6074
42.6608
47.0285
51.1058
49.4564
45.3487
50.2692
52.4547
57.0728
82.0313
96.1255
215.396
1006.74
149.543
98.3752
74.7088
62.8646
58.0362
49.6829
46.1509
43.7491
43.711
46.8918
48.0205
45.7011
50.4175
60.1585
88.7016
100.731
232.688
1008.96
153.58
100.299
74.6845
62.4923
51.8832
45.8904
45.3196
43.5846
40.1965
36.7757
38.8281
44.4618
52.0463
66.3071
83.6435
112.785
380.288
941.997
146.38
99.1744
74.5225
61.4867
49.5754
43.3144
41.5011
40.3087
39.6138
45.3763
44.6879
47.1672
55.765
69.4184
102.964
138.788
939.425
256.278
141.567
97.0761
73.8302
60.68
49.9726
47.6173
43.045
40.3648
37.7594
38.5922
41.5019
47.5607
55.6962
67.8958
100.206
140.997
1023.03
262.725
135.876
93.2319
70.7014
54.474
45.1753
40.673
39.1688
36.3892
33.0164
38.2866
38.1336
43.2072
50.2528
64.5944
93.4599
138.388
988.01
1133.44
180.845
131.552
94.2085
66.497
66.2262
48.6842
38.5191
36.5011
27.5488
28.34
23.3205
32.1796
42.0118
50.3057
62.2395
96.7287
148.831
970.748
1017.83
146.979
101.587
120.692
75.0689
50.1185
52.9415
35.2531
25.9959
24.1197
23.4776
20.2937
21.9231
43.4872
51.124
63.7445
94.323
184.938
151.021
94.0801
68.6923
57.3314
51.5943
43.7263
34.3265
24.0334
18.8466
19.1542
15.8667
24.6781
37.593
50.3856
66.1029
95.097
195.467
947.691
146.418
89.7143
64.2114
53.6218
44.3059
41.3541
41.5845
31.8539
30.798
15.674
13.6142
21.7799
38.7483
56.6904
79.0202
99.885
233.22
983.885
133.904
84.7296
59.7329
51.2925
43.4784
39.2984
39.5133
38.0351
30.3169
27.7761
16.831
20.7537
38.0226
53.2477
75.5608
101.228
378.013
1079.67
127.356
92.5154
60.7903
48.2869
45.9933
42.5419
36.6298
37.177
36.03
29.3693
32.0045
33.0807
41.8276
58.5334
75.1723
109.192
785.905
116.774
142.72
66.5397
50.482
45.2251
41.4357
37.0394
28.7905
28.2453
31.5019
36.8945
38.1663
46.3655
60.938
91.3155
127.888
889.703
677.343
135.267
61.0868
51.0094
47.969
40.5709
39.0667
38.9661
26.4601
21.9275
30.2675
47.6457
51.4605
61.4052
96.1152
132.221
987.433
2098.39
232.221
103.955
76.3592
48.9636
46.8079
42.5094
39.3922
44.3965
37.1962
30.3697
30.7084
38.4427
53.2547
67.8074
92.3512
150.16
1037.17
220.712
78.7041
81.7186
68.2472
44.2664
47.7568
44.8694
36.2887
32.1818
34.428
36.4471
34.6545
44.0928
48.6105
71.8095
98.3636
210.981
205.656
139.893
72.5373
47.8513
40.2143
45.0592
53.4647
39.5231
32.0158
32.8815
23.7357
38.841
50.159
51.5013
68.0936
101.323
230.182
1112.4
176.384
81.905
67.2344
65.6079
50.9027
49.4976
48.2626
43.7553
38.8416
26.0372
24.5384
30.7781
41.7229
52.1231
75.9619
114.948
788.233
887.175
128.191
119.254
56.0654
63.6349
48.3257
62.6586
51.2449
36.31
24.0688
30.6116
31.328
33.5859
47.1256
62.0042
78.7592
119.837
910.863
760.457
101.045
137.965
79.827
51.8333
46.9024
40.868
32.2895
52.2819
21.8973
23.5043
28.6575
38.153
46.4345
71.9358
111.952
123.71
921.626
372.883
90.0493
95.1397
59.3
42.9455
35.6902
30.2509
21.0923
31.1081
53.4547
34.0363
42.8336
48.2238
49.2675
68.745
133.748
136.027
965.914
948.079
183.144
90.5938
63.4855
61.9645
37.7184
20.2938
8.30441
13.0328
30.9704
41.5482
48.2454
51.5131
56.5001
50.6633
77.3692
106.249
259.551
974.655
842.294
110.995
98.6323
62.5967
58.2726
37.7754
12.413
4.14629
8.47664
27.7668
43.2996
42.8059
47.8494
41.7475
51.2606
65.7367
88.2202
143.911
1001.75
165.372
81.8946
51.8867
52.4027
33.442
10.7737
4.32695
6.43155
15.2832
36.8156
37.4587
41.827
51.285
60.5964
87.1763
89.8293
191.102
1127.27
199.301
92.9097
87.7238
48.9443
27.3196
5.62322
4.65163
11.4547
16.1176
27.0273
39.3397
48.977
47.1106
58.5621
80.4932
99.4027
229.269
216.041
109.207
108.413
64.5266
27.0469
7.16186
4.0756
8.1303
24.6399
21.84
36.8142
45.5742
53.8042
59.7704
85.6193
103.399
379.146
198.151
207.335
139.016
83.1262
34.9715
5.93176
4.31893
7.74285
14.9456
22.5908
31.8963
41.6379
50.2035
68.2265
81.4661
109.176
807.046
902.329
134.945
117.411
114.051
70.3166
40.6349
14.2983
6.11881
11.7541
20.9108
34.9718
40.9637
49.8645
61.8438
68.8448
113.632
137.107
907.984
842.951
133.074
119.355
101.866
61.0786
36.1876
7.77739
6.97705
14.996
30.2185
40.7179
52.7907
62.9706
59.4701
73.8809
95.7936
205.469
777.516
108.869
77.4456
78.6674
57.8582
36.5701
11.2159
5.57056
10.3864
30.0824
43.1409
51.1417
49.2504
60.063
78.8468
101.85
240.009
795.599
108.845
80.8875
81.2573
61.3467
28.8689
6.67341
8.65449
22.3544
36.2938
45.5556
59.3137
55.3273
62.028
88.0746
106.096
241.762
823.296
116.512
89.5292
74.8099
68.2798
40.5066
9.16857
8.64814
19.3444
38.6912
44.995
56.8015
51.4435
62.991
81.3695
114.71
802.244
853.099
126.806
98.744
93.7513
66.2769
44.6265
36.5353
16.9765
17.2513
38.6312
48.8931
58.3039
48.9124
60.4773
85.9879
138.735
908.797
265.307
134.397
133.162
107.282
63.1658
29.4237
27.1266
35.0406
41.7553
36.331
46.6757
41.5177
47.3211
59.2155
84.1236
143.102
981.338
310.714
253.979
84.4574
47.9432
26.0484
7.36205
16.0483
46.3741
43.7678
44.9813
42.0937
47.0101
61.133
92.4045
175.132
1110.72
290.712
155.566
90.9031
46.3116
8.92777
6.04383
8.834
28.7822
43.3745
49.537
55.653
50.8474
58.854
97.6545
211.3
249.389
207.961
138.386
131.146
73.2304
9.25364
6.34333
12.7472
26.7139
42.8782
49.4309
39.7558
49.0353
78.337
94.3216
229.251
272.374
116.443
127.233
129.143
106.656
45.5327
10.6311
12.2749
38.9311
54.1753
57.932
72.7848
71.051
96.7107
116.832
775.914
281.615
122.52
123.458
133.623
126.192
107.326
60.8869
56.4215
56.8784
58.8071
57.7013
81.603
93.1292
143.954
149.198
974.113
1144.46
259.347
143.246
98.428
121.011
145.206
126.328
98.6814
82.8278
133.64
132.133
104.551
71.3291
105.573
159.751
420.701
1194.13
186.696
115.968
113.963
80.4747
122.981
106.206
90.3716
61.1763
74.4258
100.274
113.887
123.431
122.43
272.296
193.955
960.827
178.164
129.224
89.3472
68.2067
106.98
90.3172
88.643
81.9696
72.3203
113.622
150.737
149.113
138.391
375.592
746.217
266.148
137.453
458.137
202.409
104.73
64.9121
89.223
68.5302
65.8484
68.6106
75.824
67.8594
83.4719
138.544
251.163
4009.52
266.16
512.574
246.343
124.707
115.445
82.4867
81.2474
110.217
104.949
90.5194
62.8523
71.2025
101.117
138.244
233.686
731.418
1003.44
581.174
270.998
146.735
100.409
107.829
73.5316
75.8359
95.5123
96.2914
118.159
107.44
159.002
153.599
270.395
1119.13
156.295
387.208
152.452
104.856
89.3543
78.4604
91.3701
103.173
116.095
107.72
113.13
103.437
153.585
191.218
1349.94
1111.18
174.609
124.161
319.362
148.086
101.669
73.0394
81.5037
108.919
107.764
110.512
124.958
135.983
127.353
266.649
1185.37
520.989
172.187
133.254
408.924
248.472
134.618
91.2351
87.1757
104.615
104.471
117.041
158.067
100.392
128.49
275.515
1060.58
495.376
398.975
283.119
151.486
96.722
90.3516
91.7112
104.184
112.062
169.766
120.345
178.201
1067.18
633.55
454.207
386.502
316.778
166.957
232.122
105.065
97.7498
108.109
142.402
99.3488
130.288
254.608
1084.72
154.318
122.617
426.725
289.382
118.549
240.582
418.478
109.899
122.163
157.225
117.21
149.86
459.153
1146.56
170.415
131.493
426.792
382.529
213.012
123.961
175.335
339.395
292.553
285.845
131.268
167.258
1109.45
1068.72
164.369
484.839
406.98
408.157
289.141
183.863
189.6
129.38
272.144
428.977
140.437
179.834
1199.29
1132.37
159.347
482.173
412.182
410.612
381.057
185.737
166.939
126.354
170.426
420.636
136.29
252.23
1253.34
1080.87
169.323
129.212
433.887
386.172
418.87
546.392
145.218
139.731
266.398
136.087
148.088
248.668
1355.22
1343.73
1062.65
124.743
122.759
401.613
398.748
516.196
384.73
166.079
276.072
430.904
168.549
278.367
119.77
426.096
386.298
395.763
119.663
425.149
437.831
488.009
463.534
120.975
118.911
390.326
471.167
146.67
156.614
217.03
1085.21
6178.29
495.009
120.306
423.333
461.074
173.435
309.076
2703.92
1986.43
417.882
704.4
166.29
190.593
1087.73
389.592
681.699
164.531
179.743
513.731
748.026
520.007
191.18
166.123
206.228
1080.17
1058.73
199.902
1869.91
738.723
469.753
262.393
137.978
131.111
161.065
163.135
591.734
226.157
134.647
287.544
609.932
1408.15
1212.91
6317.11
396.423
1354
471.18
440.089
1316.08
530.135
343.477
250.488
229.735
201.589
175.618
163.296
254.529
1359.56
554.858
348.672
254.451
239.437
218.062
201.133
189.2
181.56
172.143
175.015
171.507
173.881
177.691
165.468
1264.76
520.434
273.84
243.634
221.389
217.397
209.815
199.592
195.363
186.368
177.53
163.889
165.374
177.612
190.303
184.706
181.731
169.464
186.015
294.353
348.946
799.287
944.46
481.452
252.821
225.731
220.262
206.263
197.786
196.086
193.508
189.208
182.523
179.736
179.974
159.232
495.308
511.642
197.142
193.589
170.663
170.989
165.248
194.216
504.498
508.164
287.895
220.375
206.097
186.06
174.84
178.778
181.925
182.725
172.851
167.58
167.738
175.377
174.634
175.038
171.194
149.72
443.624
521.376
151.843
164.32
164.545
178.649
215.173
1158.76
375.852
173.476
137.828
131.414
165.598
181.816
399.013
600.831
682.625
135.161
157.257
152.136
143.111
144.4
150.929
168.047
169.527
153.154
133.769
408.405
508.14
174.708
193.714
228.305
536.775
1437.99
348.252
191.358
153.126
112.976
123.195
108.449
134.905
190.777
180.777
149.499
177.469
123.886
137.168
247.368
180.19
582.491
145.406
161.584
164.112
158.873
468.922
498.471
216.755
528.502
1188.97
277.203
252.542
140.152
85.78
78.4547
87.8152
118.196
67.2746
97.5137
170.849
170.939
137.808
151.896
249.052
393.258
151.448
176.093
448.529
169.22
175.81
171.996
174.911
202.813
469.224
379.324
1300.09
280.144
217.832
186.864
127.282
68.0945
68.1993
69.7811
80.5409
85.5296
66.4257
85.0153
207.156
186.768
174.443
157.237
131.862
137.987
127.987
186.239
139.25
177.963
197.157
297.346
539.004
1029.8
350.741
152.479
143.758
173.889
125.175
147.076
76.2553
64.7981
63.7898
97.891
75.7197
59.9356
66.0972
63.1461
67.9056
77.4414
86.2223
117.274
123.927
215.589
175.643
180.781
183.174
206.07
478.593
1070.25
202.788
127.825
176.242
140.659
112.422
126.472
63.59
75.9293
71.1909
74.3347
79.8258
78.9638
68.1315
73.8478
84.5739
67.6527
67.9638
78.8357
101.749
206.328
151.846
554.112
519.928
632.392
4484.68
714.176
1298.48
268.564
158.08
107.418
89.3085
80.4703
80.9225
67.4552
65.5904
68.684
68.9493
70.706
73.9511
71.4409
78.9642
85.4917
81.5704
80.2039
92.2168
111.371
125.914
128.945
535.342
1607.94
1209.93
292.737
145.431
90.1948
69.705
98.0387
66.6397
54.1246
40.8509
51.9495
62.5481
68.8786
66.3724
62.4274
68.9771
76.0451
84.8119
87.9613
90.793
117.38
128.895
116.804
177.581
405.039
406.492
158.844
181.862
152.848
133.963
67.495
63.1873
87.9827
55.2274
43.2971
39.5885
34.1778
38.7961
40.553
54.3362
45.4745
47.134
69.7955
89.2668
100.639
112.78
169.761
115.298
172.574
433.719
383.148
165.021
127.056
125.314
94.5127
80.3034
65.6306
60.3437
63.4815
61.1014
40.1955
38.939
42.6283
35.1604
36.274
46.606
45.2034
52.4614
65.2266
89.1268
115.642
118.536
272.992
157.651
417.588
345.749
141.729
160.724
138.064
107.544
88.3738
74.0276
65.8211
58.4521
54.3069
57.6806
55.4826
47.4115
43.6496
40.633
38.2911
46.2985
53.2131
69.9191
84.5069
95.6699
143.958
198.9
308.852
791
1102.27
336.972
139.436
140.716
109.432
103.082
95.2465
87.6526
66.7235
64.8028
57.7924
49.3223
48.6527
52.9822
51.2496
55.4883
48.6739
47.7101
45.595
45.9438
51.2033
87.2807
127.905
149.966
223.278
358.357
1091.75
339.043
134.983
130.037
103.789
92.4436
83.0427
71.2585
60.603
45.8014
43.2103
47.9772
45.521
41.6714
43.9698
50.0025
51.1443
57.2713
67.1526
57.2589
49.8711
58.3488
93.4449
142.835
266.976
383.369
984.875
229.926
133.288
135.69
104.434
87.8535
74.8415
63.2357
51.9293
43.9281
40.5524
35.0802
38.2933
42.6198
44.3795
41.1378
40.4832
40.1976
41.6858
53.2204
70.3627
56.7324
80.0232
112.626
156.757
278.745
1265.99
1185.22
246.223
128.765
108.151
94.4946
82.1824
63.2002
53.4294
45.7557
41.511
36.9418
35.7816
37.1966
36.175
38.3916
42.0421
44.7038
42.554
41.6667
48.7522
47.4423
66.0457
82.9458
121.367
177.31
152.709
1457.34
370.805
135.007
139.005
99.807
78.7111
58.2419
43.9765
38.9106
36.751
35.1046
34.6813
34.4997
35.9748
38.3836
39.0034
39.9928
42.4324
46.3046
51.1118
58.5518
49.466
73.7642
112.191
150.594
151.647
383.002
412.309
162.677
117.546
95.7203
80.6537
65.8874
43.2242
34.0662
29.9509
28.9795
30.7981
33.7069
34.8061
35.8369
38.1645
41.1309
43.0847
45.2279
49.8049
58.227
70.8564
80.0448
94.335
130.11
151.55
397.97
951.196
206.215
117.453
109.701
88.2257
70.6781
57.5149
37.4587
28.5623
21.8342
18.8279
18.138
22.4386
31.1966
34.652
37.0274
40.3494
44.515
49.5781
55.8048
64.7356
89.7336
101.477
118.66
124
347.449
363.077
132.474
107.332
86.4674
69.7717
52.0748
34.8179
24.1031
18.8098
15.8277
13.4729
13.3048
15.3622
21.3846
29.9859
34.7767
38.5581
43.0138
49.4353
59.5807
67.7316
81.1928
125.97
183.144
239.627
413.509
150.439
143.237
102.851
79.4103
56.9165
32.0436
20.0524
12.301
10.0595
10.4398
10.0669
8.99647
10.1216
14.4028
23.1384
32.005
36.9095
43.3689
53.2861
63.6867
83.1536
96.3256
118.378
140.871
768.993
894.234
193.461
115.662
109.046
81.577
63.5163
45.7991
29.1747
13.0794
7.33233
5.49718
5.81025
6.81701
7.39297
7.52752
10.1674
18.1704
27.1181
36.3217
43.481
57.0235
80.7799
96.0424
113.359
121.747
352.038
892.897
203.129
117.437
108.667
82.0721
65.1257
45.9963
34.9458
24.4461
13.0069
7.0923
5.34858
4.47453
4.53937
5.21211
6.94114
9.91928
16.594
29.4804
38.277
47.3753
68.3019
88.9696
119.952
166.93
210.428
1022.12
358.953
133.229
112.494
82.5321
66.9485
47.3721
35.4133
27.5751
19.7689
10.7378
6.68155
6.02189
5.74742
4.976
5.05057
7.17148
12.9867
20.7427
29.3656
42.7851
63.7073
86.6107
119.076
158.685
193.516
856.034
731.257
164.495
138.355
91.3903
69.8959
49.6481
37.1599
29.0339
23.494
16.5869
9.31904
7.2603
8.10132
9.24351
6.95129
6.03941
8.55781
17.5741
31.2563
44.1713
53.5161
75.0678
122.065
164.267
195.166
850.66
212.712
115.255
91.502
76.5059
58.5452
34.9659
24.8604
22.0327
19.2851
14.9664
9.78853
7.97181
11.5692
15.442
13.1639
8.34129
10.2241
20.2363
34.1555
48.7758
66.2351
89.5047
116.809
176.903
851.011
733.821
134.934
100.768
79.883
65.4908
51.0945
36.723
21.8954
15.7809
15.0228
15.7755
15.1396
12.9076
12.9083
17.6556
21.9048
17.2733
15.1473
27.1819
42.7708
64.6179
85.6156
116.415
170.013
338.482
225.919
113.337
86.192
72.3829
51.3278
37.3711
30.1112
24.1588
15.1143
11.9921
12.4843
13.7483
16.1519
15.8757
16.5967
22.2583
29.4799
28.5978
33.5931
64.1386
74.2022
111.006
163.551
199.962
883.533
893.948
171.044
101.126
75.2254
59.5373
41.1983
29.9669
23.9077
19.4523
15.572
12.5434
11.8186
12.7352
13.5817
13.8759
14.0565
19.2893
29.0806
36.4725
51.331
68.255
92.6472
108.927
132.912
790.854
291.502
132.531
110.032
77.9705
47.9918
33.6536
25.2348
19.2566
15.5799
12.4213
10.6671
11.1848
12.2671
14.5334
16.1603
15.3212
17.1901
27.4914
40.4493
60.7167
80.364
109.412
158.176
218.049
1151.4
682.13
121.367
95.5426
79.3321
64.1849
36.4467
22.6597
18.3753
14.1404
10.6959
9.44115
8.35421
8.67241
11.3491
14.2786
18.5536
24.7892
31.8042
32.7311
47.4774
64.5505
83.9545
138.748
189.744
847.414
178.518
129.663
88.188
75.7459
61.0503
41.7599
21.1058
11.9745
9.20968
8.09007
7.363
7.45722
7.0025
9.31235
14.3006
19.6154
26.4884
34.7723
43.4437
61.9395
81.2326
106.745
121.784
371.468
665.26
124.061
92.8012
71.6349
58.4775
46.5408
39.676
26.7385
13.7958
7.60163
6.16546
5.64775
6.19716
7.1445
9.14051
13.5054
20.0397
27.1164
36.3358
47.3811
60.3911
81.5475
132.388
185.708
948.048
205.864
108.877
81.9929
70.1459
50.7833
41.5191
31.5478
23.3379
16.4069
10.0716
6.80816
6.27191
6.40954
8.30246
10.5668
13.8561
20.4154
29.1536
37.3092
52.177
69.1879
92.3362
131.456
343.79
670.687
121.834
92.2838
76.0022
59.256
44.7629
33.684
25.9864
18.3152
12.9001
11.4423
10.0788
8.74483
9.6195
11.8866
15.0133
17.054
22.0532
31.5984
43.8553
60.2127
80.0803
95.8036
135.441
827.348
202.874
104.824
79.0003
66.656
52.1037
37.9015
29.8079
22.8837
16.5829
11.2984
7.94319
8.12237
9.80272
12.1366
15.2552
20.1945
27.054
30.7139
34.8352
48.1692
71.2094
98.9221
136.825
215.672
685.539
121.69
90.1023
69.1907
55.5016
41.3197
33.0622
25.7512
20.4949
16.1214
11.3829
8.33641
6.51362
7.05441
9.78678
15.3619
22.0404
29.2318
36.7344
44.7834
54.8528
85.1912
102.968
129.634
793.557
210.846
102.17
76.6783
62.5091
46.5879
34.3196
27.2758
22.3974
18.4012
15.345
12.4565
8.38824
6.67968
6.73528
8.7485
13.3365
21.8382
29.1391
38.0317
51.9928
70.376
84.2076
153.467
212.562
175.244
127.903
78.2513
57.1306
39.6325
28.8906
23.1661
19.4157
16.8568
14.8089
12.9314
11.3246
8.48421
7.62961
9.32891
14.2287
22.8278
31.5146
38.9624
58.4591
83.3802
105.966
115.313
662.085
710.114
117.534
90.4401
69.2876
50.2438
34.45
25.2735
20.2072
17.2251
15.4677
14.4478
13.4929
12.3785
11.9409
12.0306
13.5869
17.9955
26.5133
39.561
46.3484
56.71
86.0257
142.846
188.194
953.997
674.38
121.553
83.0536
64.8874
50.0434
32.1259
22.6517
17.8838
15.3549
14.0051
13.3946
13.1951
13.0366
13.0776
14.1384
16.9862
21.9895
28.842
36.6099
48.1791
61.8754
82.5815
146.095
612.643
318.357
116.126
81.5855
63.7373
48.3268
29.9953
19.3289
15.6302
13.1352
11.4935
11.2834
11.9912
12.7673
13.5442
15.0395
18.2242
23.5707
30.5384
39.038
50.9457
73.7435
97.9155
143.631
746.581
176.17
126.932
81.6633
59.7433
45.0793
32.1117
18.7494
13.629
12.1729
10.1545
8.34047
9.19821
11.7974
13.5482
15.3123
18.5683
24.0486
31.7398
42.8996
61.4838
75.9043
128.113
199.554
686.015
130.767
101.996
72.4431
53.8126
37.7388
28.1739
19.6225
13.5146
11.531
10.7586
9.3176
8.18854
9.87788
13.5299
16.2127
19.3777
24.5355
32.1034
44.5121
62.8869
99.5603
113.888
683.17
333.786
114.279
80.3263
62.1522
47.5779
34.8315
25.2548
18.1654
13.6845
11.3984
10.8882
11.0122
10.5453
10.6102
12.9687
16.7702
21.1503
27.0527
34.0097
45.9925
69.006
96.7632
148.946
929.399
169.164
126.997
80.6772
60.8563
42.8146
31.9551
24.2138
17.1346
11.8324
9.29293
9.59439
10.5377
11.6876
12.8038
13.8216
16.8093
21.375
27.2556
35.8647
49.4422
71.3457
104.961
188.835
715.406
119.835
88.748
67.9814
53.7712
39.7076
29.2013
22.022
16.4111
11.6624
8.12455
6.65328
8.02242
10.3962
12.5528
14.7834
17.5215
22.0868
28.2572
38.5191
59.0177
73.6912
115.824
332.149
323.078
109.369
76.5635
65.2664
49.6306
36.6151
27.7017
20.0471
14.3078
10.2599
7.83825
6.60346
5.79508
7.18629
10.746
14.2811
17.9397
22.8517
29.7161
38.8799
63.2604
97.1325
111.16
662.296
214.733
94.7466
70.1476
56.7943
43.2905
32.2247
24.8748
18.6153
12.7795
8.09393
5.87241
5.45059
5.89201
6.00097
7.34348
12.0862
17.6954
22.9278
30.4208
43.6
61.7475
99.2286
154.211
943.26
178.485
124.426
73.269
52.4425
40.8777
30.0715
22.4111
17.0985
12.6004
8.19012
4.985
3.97524
4.49045
5.96078
7.68556
10.7725
16.9301
23.8327
31.414
45.1324
71.4046
93.3439
168.578
881.997
124.211
83.8972
63.1524
46.9091
35.1606
28.3797
21.0129
15.807
12.6007
9.7685
6.92051
4.39429
3.53807
4.41097
7.36366
11.9284
17.9599
25.1384
35.4698
54.7125
72.5674
122.615
318.175
695.403
115.421
91.8268
65.6722
48.1106
34.5713
26.9201
20.7902
15.7405
12.8512
10.7873
8.85806
7.19597
5.02898
4.05991
5.68153
11.1898
19.0362
27.6836
42.092
60.7681
96.1771
114.077
701.18
640.563
116.331
82.4802
68.1356
50.1908
34.9736
26.3637
20.8049
17.305
14.2966
11.8909
9.95139
8.35456
7.06591
6.14356
6.15465
9.98206
18.978
29.6569
48.0362
73.7544
90.1048
164.416
218.741
97.7674
72.8812
59.1388
49.1901
35.5126
25.3568
19.6361
16.8021
15.551
13.536
10.8867
8.45558
6.75769
6.58517
8.17302
11.7215
20.1887
33.0999
51.4475
79.1051
125.309
212.409
210.001
94.6298
70.1696
60.7449
45.2166
33.2982
24.6113
18.8667
15.8416
14.6375
13.9555
12.3703
10.1274
7.59954
6.07384
7.47571
12.6772
21.5224
36.3102
57.4111
77.1412
136.975
618.298
180.407
124.752
74.9681
52.9513
41.1588
32.1079
23.2136
17.8447
14.7847
13.0262
12.6988
12.9512
12.2389
11.2479
9.98871
10.0542
14.2585
22.9994
35.6774
56.8489
94.7423
138.982
654.486
177.044
94.0914
66.5149
49.5732
36.8903
29.1802
22.887
17.5192
13.6556
11.0246
9.05363
9.96934
12.3826
12.948
13.689
15.2119
19.3761
27.9384
39.5217
61.5313
83.8622
134.657
786.506
170.863
94.6109
67.7222
50.044
36.578
28.0474
21.1029
17.1425
14.2907
11.4732
9.26745
7.86368
9.23047
12.6125
14.3493
16.7246
21.6077
30.2142
40.4866
61.3597
91.345
121.583
883.54
857.214
131.152
92.2309
69.8772
51.8623
36.8032
27.6279
20.4171
15.8096
13.6935
12.2796
10.8006
9.62866
9.3945
11.0762
14.0147
17.133
21.9128
29.4288
41.1048
56.119
90.1143
149.258
671.594
131.626
110.709
76.8452
54.2862
36.2766
27.1293
20.2679
15.6092
13.0699
11.7539
11.0033
10.7002
11.1025
11.8874
13.8807
17.4271
22.5507
30.6568
45.002
59.5608
93.7495
155.014
659.454
118.701
79.8841
64.5276
51.0718
34.0913
24.8148
19.554
15.7381
13.2379
11.1197
9.83296
9.69309
10.5288
12.0883
14.3128
17.6795
22.9377
30.5031
46.6865
68.8819
84.7494
164.664
326.495
109.219
77.208
62.0038
46.9418
33.6822
22.4296
15.6591
13.0619
11.2776
9.46652
7.4082
6.51334
7.72083
10.3342
13.3077
17.0677
22.7267
30.2199
44.5993
69.8702
106.091
211.526
216.124
96.7833
71.4719
56.8242
43.7981
31.881
22.7544
13.6293
8.80167
7.03919
6.15852
5.13462
3.93892
4.03374
6.42633
11.2625
16.2446
22.4074
31.0458
43.7962
68.8029
110.2
585.677
220.985
98.4113
72.0794
54.5874
39.3902
30.2207
22.3474
15.2249
9.54133
5.31815
3.28782
2.82643
2.85959
3.26423
4.64059
8.75547
15.3033
22.1775
32.3278
46.3555
65.877
115.031
620.927
187.128
98.8554
73.4108
55.4629
38.1774
27.2769
20.651
15.8908
11.7576
8.10599
4.15995
2.26785
2.02171
2.62231
4.71019
8.84954
15.2852
22.7073
33.0113
53.0446
68.5834
107.927
649.041
173.704
96.5918
68.4081
51.4252
36.0047
25.7087
19.1926
15.1688
12.4449
9.92372
6.75826
3.52922
2.16523
2.32863
4.04067
8.77083
15.9512
23.7628
33.3014
53.7456
78.3999
112.493
714.177
180.372
95.8684
64.7127
47.3563
32.8024
23.8046
18.1551
14.6071
12.0885
9.9622
8.10019
5.92716
3.64672
2.9483
4.18614
8.53949
15.731
24.0603
35.3301
53.8572
82.9856
147.727
905.407
172.346
94.2418
63.8866
43.1412
29.7778
21.9187
17.1162
14.0321
11.7453
9.22348
6.83993
6.02876
5.84491
5.30408
6.06386
9.98635
17.3947
24.994
35.7675
57.3572
86.4215
158.624
845.386
121.624
90.7242
63.6281
36.3025
24.9301
19.7978
16.363
13.8214
11.6849
9.44923
6.32734
4.20345
4.68662
6.977
9.33852
13.037
19.4005
27.6223
38.0772
58.38
90.5988
160.611
660.397
137.93
92.4092
51.4454
24.7242
17.1445
16.3523
15.0715
13.6755
11.9256
10.1416
7.982
5.25847
3.93628
5.64641
10.3317
15.4011
21.1909
28.7473
41.3998
56.4145
89.591
164.802
664.48
115.886
75.7894
51.6305
23.8596
12.1193
11.2137
12.6059
12.6828
11.6002
9.78254
8.09989
6.83737
5.81572
5.85399
9.58253
15.9974
22.7768
30.6229
43.3265
64.8966
83.7778
155.405
331.873
109.471
71.8109
52.7383
32.302
15.2808
10.6113
10.7313
11.6596
11.0406
9.17306
6.55662
5.02244
5.6019
7.67197
10.6491
16.2038
23.3859
32.3192
46.0823
65.4061
104.134
185.994
204.505