/*--------------------------------*- C++ -*----------------------------------*\
| =========                 |                                                 |
| \\      /  F ield         | OpenFOAM: The Open Source CFD Toolbox           |
|  \\    /   O peration     | Version:  2312                                  |
|   \\  /    A nd           | Website:  www.openfoam.com                      |
|    \\/     M anipulation  |                                                 |
\*---------------------------------------------------------------------------*/
FoamFile
{
    version     2.0;
    format      ascii;
    arch        "LSB;label=64;scalar=64";
    class       volScalarField;
    location    "90";
    object      p;
}
// * * * * * * * * * * * * * * * * * * * * * * * * * * * * * * * * * * * * * //

dimensions      [0 2 -2 0 0 0 0];

internalField   nonuniform List<scalar> 
404911
(
0.520927
0.52191
0.522783
0.52146
0.518765
0.520863
0.522156
0.521903
0.52165
0.521527
0.515639
0.513407
0.51552
0.516737
0.51953
0.521509
0.513329
0.513373
0.514124
0.515351
0.509439
0.510526
0.511768
0.506492
0.508016
0.504091
0.504622
0.505651
0.507732
0.502895
0.502046
0.503338
0.503901
0.510127
0.499344
0.500447
0.501926
0.493802
0.495881
0.496993
0.497454
0.491161
0.492277
0.494183
0.495512
0.493828
0.489375
0.490974
0.49252
0.495408
0.486256
0.487711
0.489398
0.491432
0.48617
0.486532
0.48146
0.521334
0.519394
0.520347
0.515893
0.516969
0.512246
0.513251
0.514179
0.509624
0.51096
0.51193
0.506959
0.50844
0.504578
0.50582
0.507343
0.501967
0.503553
0.505207
0.506062
0.498698
0.500469
0.495784
0.497303
0.49254
0.493928
0.495703
0.489351
0.490852
0.486678
0.487921
0.4894
0.485744
0.486737
0.480134
0.47895
0.480456
0.474269
0.475778
0.477354
0.471499
0.472773
0.474196
0.468732
0.470215
0.471415
0.468881
0.721536
0.723506
0.72559
0.711942
0.715534
0.715197
0.718962
0.720017
0.722004
0.72378
0.726843
0.707453
0.708985
0.713437
0.715384
0.717752
0.719261
0.720856
0.723057
0.730901
0.701675
0.703171
0.70509
0.706718
0.708184
0.710091
0.71237
0.714162
0.716551
0.718583
0.720088
0.722419
0.725294
0.727208
0.72975
0.732028
0.696747
0.698617
0.700544
0.702296
0.704264
0.705826
0.707453
0.709245
0.711074
0.71289
0.71499
0.717333
0.71899
0.72093
0.728337
0.691956
0.69412
0.695791
0.697582
0.699724
0.701688
0.703551
0.705147
0.706758
0.708496
0.710146
0.711872
0.713747
0.715691
0.717712
0.688083
0.690538
0.692561
0.694309
0.696272
0.698598
0.700728
0.703015
0.704475
0.705857
0.707529
0.709272
0.710939
0.712657
0.71446
0.716816
0.682722
0.684271
0.686033
0.688828
0.691076
0.693222
0.695163
0.697716
0.700284
0.702416
0.703504
0.705043
0.706625
0.70822
0.709894
0.711515
0.713634
0.675507
0.677378
0.678547
0.680706
0.682402
0.684854
0.687415
0.689738
0.691611
0.694064
0.697143
0.699524
0.701217
0.702637
0.704271
0.70572
0.707258
0.709145
0.671961
0.674219
0.675925
0.677201
0.678715
0.680667
0.683453
0.686657
0.688579
0.690864
0.692758
0.696035
0.698894
0.700063
0.701666
0.703163
0.704844
0.70625
0.666351
0.668404
0.670358
0.672534
0.67457
0.676222
0.677531
0.679527
0.682052
0.684944
0.687438
0.68947
0.691788
0.694584
0.697144
0.698959
0.70039
0.702201
0.662656
0.665317
0.667163
0.669085
0.671125
0.673388
0.674964
0.676639
0.678858
0.681097
0.683527
0.685971
0.688178
0.690277
0.692842
0.695088
0.696703
0.657027
0.659288
0.661406
0.663711
0.665767
0.667885
0.669728
0.671868
0.6737
0.675362
0.677722
0.680079
0.682576
0.6849
0.687147
0.688931
0.691095
0.653766
0.655071
0.656225
0.658068
0.65979
0.662262
0.664414
0.66678
0.668502
0.670358
0.672288
0.674239
0.676357
0.678705
0.681286
0.683738
0.68562
0.687763
0.647869
0.650021
0.652354
0.653787
0.655676
0.656957
0.65881
0.660753
0.662972
0.6652
0.666886
0.668886
0.670964
0.673102
0.675335
0.677278
0.67976
0.682357
0.643436
0.645146
0.646806
0.649224
0.650827
0.652748
0.654707
0.656233
0.658014
0.659841
0.66212
0.664139
0.665474
0.667424
0.669974
0.671819
0.674036
0.676388
0.640259
0.642361
0.644119
0.645685
0.647578
0.649605
0.651649
0.653446
0.655363
0.657195
0.659092
0.661076
0.663058
0.664859
0.667081
0.668946
0.671005
0.672542
0.635889
0.63738
0.63891
0.641053
0.642869
0.644683
0.646653
0.648449
0.65045
0.652133
0.654159
0.655956
0.657826
0.659622
0.661915
0.663758
0.666578
0.667743
0.633681
0.634893
0.636217
0.637739
0.639648
0.641802
0.643297
0.645561
0.647995
0.649492
0.651123
0.652803
0.654974
0.656918
0.658266
0.660819
0.662567
0.664761
0.628421
0.630751
0.632026
0.633414
0.635106
0.636342
0.638232
0.640382
0.642248
0.64437
0.646776
0.648474
0.650003
0.65176
0.653813
0.655984
0.657428
0.659548
0.625962
0.627395
0.629357
0.630839
0.632137
0.633755
0.635439
0.63699
0.638831
0.640968
0.643128
0.645594
0.647359
0.648895
0.650575
0.652403
0.654192
0.621936
0.62329
0.624761
0.626282
0.627685
0.629166
0.630751
0.632245
0.633772
0.635752
0.637522
0.639674
0.642071
0.644587
0.646304
0.647793
0.649433
0.651171
0.61927
0.620675
0.622259
0.623663
0.62513
0.626565
0.627917
0.629314
0.630603
0.632148
0.63434
0.636203
0.63846
0.640717
0.643038
0.644964
0.64677
0.648258
0.616782
0.618241
0.619644
0.621229
0.622547
0.624041
0.62561
0.626815
0.628236
0.629476
0.630698
0.632501
0.634797
0.637108
0.639283
0.641801
0.643429
0.645719
0.612789
0.614031
0.615601
0.6171
0.618535
0.619974
0.621315
0.622917
0.624714
0.626178
0.627499
0.628708
0.630062
0.631518
0.633687
0.635787
0.637778
0.640028
0.608946
0.610459
0.611887
0.613118
0.614542
0.615973
0.617445
0.618917
0.620413
0.621776
0.62337
0.624834
0.62652
0.627894
0.629183
0.630702
0.6324
0.634543
0.606571
0.607944
0.60942
0.610839
0.612169
0.613529
0.614903
0.616316
0.617839
0.61955
0.620901
0.622317
0.623908
0.625592
0.626981
0.628292
0.629892
0.631501
0.602918
0.604224
0.605571
0.606943
0.60835
0.609803
0.611198
0.612586
0.613949
0.61542
0.616808
0.618241
0.619699
0.621226
0.622842
0.624441
0.625376
0.627385
0.60094
0.602017
0.603123
0.604494
0.605865
0.607339
0.608823
0.610238
0.611621
0.613027
0.614396
0.615676
0.61698
0.618311
0.619885
0.621634
0.623219
0.624826
0.599084
0.600055
0.601058
0.602035
0.603431
0.604861
0.606397
0.607855
0.609272
0.610639
0.61202
0.613383
0.61468
0.616053
0.617448
0.618876
0.620625
0.622324
0.596944
0.598648
0.599139
0.599924
0.601046
0.602351
0.603936
0.605465
0.606979
0.608301
0.609669
0.611022
0.612332
0.613617
0.615007
0.616468
0.618061
0.619817
0.592881
0.59478
0.596156
0.597676
0.598549
0.599269
0.600271
0.601359
0.602703
0.604334
0.606016
0.607297
0.608672
0.610019
0.611289
0.612568
0.613967
0.615404
0.590872
0.592116
0.593549
0.594955
0.59618
0.597317
0.598366
0.599369
0.600504
0.601669
0.603064
0.604818
0.606211
0.60759
0.608994
0.610332
0.611611
0.613068
0.588935
0.589993
0.591209
0.592501
0.593807
0.59519
0.596461
0.597466
0.598527
0.599596
0.600748
0.602157
0.603662
0.605113
0.606499
0.60785
0.609397
0.610895
0.586155
0.58777
0.589066
0.590193
0.591466
0.592623
0.594063
0.595644
0.596658
0.597669
0.598818
0.6
0.601291
0.602673
0.604066
0.605435
0.606865
0.582845
0.583683
0.585192
0.586644
0.587903
0.589148
0.590315
0.591592
0.593006
0.594885
0.595895
0.596798
0.597932
0.599109
0.60034
0.601665
0.602966
0.604442
0.5805
0.581589
0.582799
0.584072
0.585443
0.586796
0.588074
0.589241
0.590495
0.59179
0.593888
0.595017
0.595919
0.597017
0.598139
0.599333
0.600652
0.602146
0.577934
0.57933
0.580578
0.581734
0.583011
0.584328
0.585701
0.586885
0.58814
0.589366
0.590545
0.592101
0.593756
0.59485
0.595983
0.597175
0.598435
0.599976
0.574811
0.575693
0.576985
0.578307
0.579579
0.580781
0.581916
0.583056
0.584463
0.585877
0.587196
0.588383
0.589579
0.590921
0.592303
0.593575
0.594764
0.596057
0.572312
0.573515
0.574799
0.575983
0.577257
0.578562
0.579866
0.580978
0.581976
0.583261
0.58463
0.586092
0.58736
0.588465
0.589758
0.591057
0.592328
0.593743
0.570156
0.571263
0.572501
0.5737
0.57483
0.576154
0.577587
0.578851
0.579898
0.580776
0.581667
0.583299
0.584759
0.586226
0.587365
0.588537
0.589949
0.591296
0.567107
0.569009
0.570263
0.571455
0.572577
0.573715
0.575097
0.576514
0.577743
0.57896
0.579882
0.580802
0.582115
0.583573
0.585017
0.586249
0.587391
0.588905
0.565529
0.566793
0.567903
0.569241
0.570444
0.571452
0.572551
0.573988
0.575296
0.576565
0.578041
0.579124
0.580086
0.581228
0.582366
0.583748
0.584997
0.562264
0.563082
0.564456
0.565691
0.566999
0.568363
0.569564
0.570534
0.571638
0.572954
0.574262
0.575333
0.576763
0.577944
0.579195
0.580282
0.581462
0.582649
0.559697
0.560918
0.56227
0.563461
0.564696
0.566022
0.567354
0.568787
0.569796
0.570906
0.57206
0.573329
0.574407
0.575599
0.576741
0.577973
0.579299
0.58062
0.55767
0.558746
0.559916
0.56121
0.562488
0.563724
0.564885
0.566102
0.567354
0.568683
0.569898
0.570999
0.572312
0.573478
0.574589
0.575732
0.576947
0.578195
0.555117
0.556461
0.557711
0.558823
0.560071
0.561341
0.562611
0.563802
0.564965
0.565862
0.567235
0.568674
0.569892
0.571193
0.572467
0.573635
0.574744
0.576071
0.553149
0.554039
0.555278
0.556467
0.557672
0.558944
0.560236
0.561496
0.562656
0.563727
0.564794
0.566161
0.567508
0.568761
0.570047
0.571346
0.572609
0.573824
0.550777
0.552022
0.553107
0.5541
0.555195
0.556476
0.557909
0.559265
0.560495
0.561617
0.562763
0.563873
0.565111
0.566393
0.567617
0.568872
0.570204
0.571394
0.548836
0.549814
0.550924
0.552046
0.553022
0.554053
0.555417
0.556859
0.558301
0.55952
0.560606
0.561758
0.562882
0.564096
0.565321
0.566541
0.567735
0.568808
0.546544
0.547711
0.54877
0.549832
0.55094
0.552203
0.553159
0.554289
0.555797
0.557247
0.558617
0.559726
0.560746
0.56187
0.563071
0.564278
0.565498
0.56687
0.543402
0.544392
0.545417
0.546644
0.547696
0.548659
0.550014
0.551443
0.55247
0.553466
0.554632
0.555837
0.557167
0.558719
0.559754
0.560876
0.562031
0.563279
0.564589
0.541496
0.542654
0.543614
0.544512
0.545652
0.546672
0.547569
0.548669
0.550252
0.551302
0.552458
0.55381
0.555048
0.556285
0.557566
0.558763
0.559919
0.561012
0.5403
0.541509
0.542598
0.543622
0.544738
0.545692
0.546522
0.547448
0.549178
0.55044
0.551541
0.553045
0.55407
0.555258
0.556428
0.557624
0.558871
0.536784
0.537987
0.539257
0.540391
0.541505
0.542613
0.543761
0.544778
0.545576
0.546731
0.548374
0.549618
0.550965
0.552224
0.553247
0.554299
0.55547
0.556609
0.534638
0.535597
0.536939
0.538102
0.539317
0.540494
0.541604
0.54285
0.543931
0.544848
0.54608
0.54763
0.548728
0.550051
0.551226
0.552326
0.553324
0.554529
0.53176
0.533596
0.534639
0.535799
0.536988
0.538171
0.539361
0.540512
0.541932
0.543141
0.544193
0.545249
0.546556
0.547642
0.548831
0.550076
0.551283
0.552401
0.53151
0.532583
0.533693
0.534811
0.535926
0.537081
0.538121
0.539236
0.540634
0.541905
0.543444
0.544375
0.545528
0.546654
0.547808
0.548997
0.550194
0.529266
0.530575
0.531772
0.532863
0.533967
0.535025
0.536085
0.537092
0.538199
0.539831
0.540993
0.542463
0.543513
0.544658
0.545828
0.546932
0.54802
0.526257
0.527473
0.528397
0.529542
0.531004
0.532052
0.53307
0.534141
0.535329
0.536214
0.537358
0.538854
0.540107
0.54133
0.542472
0.543555
0.544844
0.546133
0.523645
0.525126
0.526451
0.527312
0.528512
0.529971
0.531125
0.532089
0.533156
0.534205
0.535101
0.536392
0.537622
0.538858
0.540128
0.541333
0.542573
0.521052
0.522545
0.523957
0.52536
0.526372
0.527621
0.52908
0.530203
0.531026
0.532078
0.533068
0.534003
0.53535
0.536532
0.537779
0.53904
0.540335
0.517398
0.518852
0.520099
0.521453
0.522828
0.524099
0.525278
0.526578
0.528288
0.529381
0.530179
0.531158
0.531955
0.532949
0.534087
0.535322
0.536597
0.537849
0.51547
0.516479
0.517802
0.519082
0.520328
0.521701
0.523022
0.524233
0.525559
0.527223
0.528132
0.529024
0.530354
0.531104
0.53198
0.533034
0.534226
0.53541
0.512929
0.514469
0.515381
0.516579
0.517899
0.519294
0.520772
0.522478
0.523645
0.524464
0.525696
0.526724
0.527949
0.529117
0.530053
0.531034
0.532138
0.533162
0.510462
0.511835
0.513233
0.514315
0.51543
0.516656
0.518326
0.519812
0.521225
0.522405
0.523249
0.524483
0.525645
0.526834
0.528009
0.528926
0.52989
0.531226
0.50719
0.508235
0.509572
0.510938
0.512126
0.513334
0.514487
0.515606
0.516988
0.518666
0.519975
0.521081
0.522079
0.523193
0.524284
0.525562
0.526814
0.528363
0.529135
0.505357
0.506228
0.507166
0.508426
0.509711
0.510977
0.512253
0.513201
0.514403
0.515679
0.517226
0.518542
0.51969
0.520767
0.521929
0.523092
0.524414
0.525624
0.527009
0.503344
0.504947
0.505942
0.507187
0.508409
0.509745
0.510874
0.511996
0.513171
0.514521
0.515993
0.517194
0.518419
0.519584
0.520756
0.521857
0.523236
0.524706
0.500966
0.502452
0.503846
0.50497
0.506107
0.507336
0.508646
0.509594
0.510742
0.512051
0.513259
0.514841
0.515904
0.51708
0.518212
0.519401
0.520691
0.497719
0.499414
0.501223
0.50268
0.503939
0.504971
0.506263
0.507748
0.508614
0.509589
0.511007
0.512221
0.513474
0.514652
0.515784
0.516942
0.518134
0.494666
0.496184
0.497738
0.499508
0.500984
0.502276
0.503739
0.505148
0.506346
0.507424
0.508491
0.509751
0.511007
0.512159
0.513341
0.514536
0.515647
0.489945
0.491773
0.493012
0.494549
0.495789
0.497497
0.498998
0.500607
0.502411
0.503769
0.505024
0.506226
0.507411
0.508597
0.509788
0.510978
0.5121
0.513546
0.487238
0.488603
0.490183
0.491711
0.493023
0.494309
0.495879
0.497262
0.499017
0.500736
0.502056
0.503459
0.50475
0.505907
0.507107
0.508392
0.509627
0.484332
0.485763
0.487085
0.488598
0.489951
0.491356
0.492664
0.494181
0.49568
0.497542
0.499227
0.500629
0.501991
0.503291
0.504599
0.50587
0.507105
0.481169
0.482999
0.484445
0.485734
0.487158
0.488256
0.489526
0.490884
0.492546
0.494131
0.495943
0.497721
0.499162
0.500609
0.502017
0.503342
0.50476
0.478169
0.479912
0.481692
0.483123
0.484371
0.485677
0.486773
0.487927
0.489499
0.491323
0.492899
0.494506
0.496237
0.497769
0.499267
0.500697
0.50197
0.474637
0.476773
0.478435
0.480327
0.481719
0.482943
0.484281
0.485585
0.4868
0.488394
0.489875
0.491428
0.493203
0.49483
0.4964
0.497855
0.499361
0.472849
0.47367
0.475178
0.476692
0.478627
0.480428
0.481673
0.482863
0.484303
0.485551
0.487151
0.488712
0.490233
0.491847
0.493513
0.495187
0.496651
0.470602
0.472565
0.473797
0.475534
0.477308
0.47904
0.480482
0.481795
0.483138
0.484547
0.486085
0.487503
0.488953
0.490582
0.492364
0.494057
0.467731
0.469249
0.471119
0.472895
0.474498
0.475881
0.477429
0.479051
0.480528
0.481942
0.483345
0.484841
0.486218
0.487732
0.489415
0.461451
0.46414
0.465955
0.467702
0.46963
0.471277
0.47291
0.474328
0.475775
0.477736
0.479389
0.480765
0.482158
0.483533
0.485064
0.486625
0.457167
0.459518
0.461363
0.463723
0.46567
0.468006
0.469918
0.471316
0.473155
0.474539
0.476069
0.477981
0.479664
0.480959
0.482343
0.483625
0.453078
0.455646
0.457797
0.45964
0.461756
0.463833
0.465942
0.467927
0.469585
0.471169
0.472989
0.474314
0.476158
0.477959
0.480111
0.48113
0.447143
0.448907
0.450464
0.452981
0.45572
0.457823
0.459992
0.461961
0.463692
0.465465
0.467394
0.469318
0.471612
0.472969
0.474553
0.476103
0.441284
0.444156
0.446953
0.448786
0.45052
0.452991
0.455777
0.457906
0.459999
0.461521
0.463151
0.464811
0.466954
0.46923
0.471224
0.472516
0.437125
0.439782
0.442014
0.444735
0.446821
0.4488
0.451292
0.453647
0.45583
0.457707
0.459162
0.460833
0.463014
0.464766
0.466957
0.469346
0.43297
0.435409
0.437297
0.440758
0.442852
0.44488
0.447122
0.449712
0.45171
0.453773
0.455722
0.457215
0.458956
0.461045
0.463099
0.464276
0.428933
0.430343
0.433255
0.435525
0.438399
0.441062
0.442857
0.444953
0.447585
0.450084
0.451962
0.453628
0.455545
0.457215
0.458498
0.460773
0.423711
0.426089
0.429026
0.431607
0.43403
0.436549
0.43876
0.440733
0.442744
0.445287
0.447915
0.449979
0.451776
0.453504
0.455282
0.419854
0.422005
0.424285
0.427176
0.429652
0.432125
0.434653
0.43691
0.438852
0.441142
0.443445
0.445581
0.448186
0.449701
0.451944
0.453032
0.415841
0.418129
0.42043
0.423301
0.42549
0.428034
0.430061
0.432848
0.434952
0.437093
0.439461
0.442095
0.444117
0.446532
0.448103
0.450832
0.413413
0.414698
0.416488
0.418623
0.421523
0.424348
0.426896
0.428734
0.430745
0.433264
0.43536
0.437649
0.440056
0.442437
0.444801
0.411745
0.412986
0.415085
0.41709
0.419665
0.422598
0.425282
0.427518
0.429463
0.43164
0.433639
0.435986
0.438286
0.440669
0.408571
0.409355
0.411539
0.413699
0.415919
0.418088
0.420777
0.423426
0.425729
0.427802
0.429828
0.432202
0.434483
0.401752
0.403518
0.405634
0.407377
0.409633
0.411807
0.414158
0.41685
0.419138
0.421708
0.42402
0.426051
0.42804
0.430273
0.397684
0.399872
0.401822
0.403658
0.405717
0.407934
0.410348
0.41236
0.414948
0.417436
0.419677
0.422121
0.424195
0.4263
0.393398
0.395694
0.397915
0.400204
0.401972
0.404182
0.406434
0.408568
0.41134
0.413606
0.415943
0.418479
0.420473
0.42275
0.388886
0.391412
0.393642
0.396199
0.398767
0.400801
0.402804
0.404843
0.406978
0.409559
0.412191
0.414304
0.41656
0.419064
0.385155
0.387093
0.38939
0.39129
0.39423
0.396418
0.399407
0.401407
0.403166
0.405117
0.40776
0.410116
0.412381
0.414577
0.381053
0.383271
0.386463
0.387923
0.389621
0.392247
0.394398
0.397709
0.400049
0.402314
0.403797
0.40616
0.408587
0.386969
0.387822
0.390353
0.392856
0.395499
0.398496
0.400743
0.40242
0.404684
0.385226
0.38635
0.389172
0.39123
0.394299
0.396371
0.398565
0.400634
0.380564
0.383047
0.384966
0.387421
0.390013
0.391857
0.394752
0.37414
0.377751
0.380386
0.383567
0.385412
0.387731
0.38934
0.376146
0.378396
0.380954
0.383487
0.386109
0.367038
0.370183
0.373973
0.376915
0.37945
0.381566
0.35162
0.353324
0.361076
0.36426
0.373389
0.350096
0.352528
0.353895
0.356021
0.358251
0.365472
0.343549
0.354533
0.356679
0.358792
0.362278
0.3427
0.347736
0.352645
0.834223
0.839148
0.845452
0.820164
0.821429
0.824558
0.828887
0.83241
0.836762
0.842258
0.849472
0.887929
0.810674
0.813203
0.813608
0.816956
0.819018
0.822282
0.826208
0.830014
0.834469
0.839254
0.844689
0.85172
0.861736
0.874757
0.889284
0.802142
0.804628
0.807998
0.809489
0.812623
0.81403
0.816153
0.819055
0.822646
0.826746
0.831092
0.835245
0.84023
0.846494
0.854073
0.86387
0.875696
0.890019
0.905747
0.924619
0.932751
0.909866
0.790063
0.795333
0.798626
0.801933
0.804239
0.806543
0.80893
0.811337
0.814059
0.816415
0.819063
0.822474
0.826353
0.830772
0.834608
0.842594
0.848419
0.856229
0.865161
0.875371
0.887026
0.904006
0.921104
0.780846
0.782809
0.78694
0.789985
0.794293
0.797457
0.80048
0.802912
0.805703
0.808348
0.810771
0.813363
0.816163
0.819196
0.822331
0.82627
0.83026
0.837422
0.842965
0.849923
0.856576
0.864491
0.872769
0.883898
0.897881
0.77472
0.776382
0.779553
0.782206
0.785395
0.787655
0.792784
0.79614
0.798631
0.801996
0.80437
0.807783
0.809975
0.81311
0.816046
0.818783
0.822409
0.826325
0.830364
0.837152
0.842683
0.849083
0.854763
0.861653
0.869906
0.767218
0.769871
0.773219
0.77571
0.778211
0.78087
0.783148
0.786356
0.790974
0.794266
0.797265
0.801088
0.80367
0.806127
0.809701
0.812918
0.814896
0.818762
0.822103
0.826324
0.83056
0.835762
0.841288
0.846475
0.852391
0.7598
0.763237
0.766467
0.769043
0.772193
0.774622
0.777098
0.779465
0.782216
0.784892
0.788311
0.792081
0.795569
0.798771
0.802682
0.805472
0.8084
0.813053
0.813847
0.818171
0.822061
0.825857
0.829918
0.833988
0.839293
0.750285
0.751723
0.755778
0.758404
0.761598
0.764978
0.768155
0.771086
0.773749
0.776139
0.778339
0.781368
0.783575
0.786216
0.789518
0.793375
0.797689
0.801358
0.803649
0.807222
0.813308
0.815308
0.817385
0.821328
0.824804
0.827695
0.740631
0.742654
0.745716
0.748206
0.751115
0.754263
0.756716
0.760287
0.763522
0.766913
0.769951
0.772486
0.775262
0.777983
0.780327
0.782486
0.784488
0.787106
0.790567
0.794441
0.799484
0.803226
0.806971
0.810053
0.813612
0.816305
0.819897
0.737902
0.739879
0.742168
0.744338
0.747154
0.749245
0.752787
0.755272
0.758327
0.761947
0.765351
0.76852
0.771245
0.773655
0.777295
0.779626
0.781277
0.783344
0.785582
0.789046
0.793049
0.79631
0.802884
0.8048
0.8085
0.729909
0.732541
0.734506
0.73693
0.739104
0.740962
0.743257
0.745442
0.747955
0.750654
0.753508
0.756491
0.75993
0.763908
0.767087
0.770397
0.773056
0.776248
0.778784
0.780435
0.782309
0.784865
0.788278
0.791084
0.796676
0.725987
0.728382
0.730185
0.732802
0.735275
0.737392
0.739878
0.741973
0.74396
0.746752
0.749392
0.751716
0.754714
0.758334
0.762008
0.765488
0.769083
0.772059
0.775186
0.777464
0.779447
0.781431
0.783974
0.787484
0.717634
0.720417
0.7223
0.724613
0.726588
0.729087
0.731498
0.733884
0.736275
0.738774
0.740869
0.742823
0.744928
0.748282
0.750681
0.753627
0.756722
0.760242
0.763723
0.767358
0.770892
0.773829
0.77598
0.777985
0.78023
0.713118
0.714662
0.716698
0.71888
0.721128
0.723422
0.725291
0.72778
0.730049
0.732598
0.73512
0.737724
0.739735
0.741775
0.743681
0.746123
0.749223
0.752245
0.75544
0.758853
0.76225
0.765952
0.769848
0.772587
0.774207
0.707777
0.709812
0.711756
0.713655
0.715671
0.717604
0.71978
0.721846
0.723898
0.726131
0.728825
0.731324
0.734169
0.736479
0.738673
0.740522
0.742446
0.745229
0.747682
0.750836
0.753945
0.756705
0.76062
0.764014
0.766959
0.700973
0.702829
0.705184
0.707008
0.70857
0.710483
0.712431
0.714782
0.716367
0.718358
0.720196
0.722208
0.724907
0.727831
0.730093
0.732548
0.734829
0.737066
0.739078
0.741187
0.744487
0.746628
0.749363
0.752336
0.7552
0.758866
0.69581
0.698999
0.700424
0.702425
0.704316
0.70593
0.707468
0.709116
0.711147
0.713288
0.715369
0.717436
0.718965
0.720985
0.72382
0.726638
0.728883
0.731053
0.733277
0.73527
0.737246
0.739583
0.742446
0.74543
0.748143
0.751166
0.69288
0.693383
0.695055
0.697491
0.699681
0.701523
0.703198
0.704919
0.706408
0.708081
0.710041
0.711917
0.713906
0.716289
0.717943
0.720044
0.722609
0.725157
0.727512
0.729765
0.732222
0.734076
0.736187
0.738739
0.741371
0.744359
0.747744
0.686045
0.688965
0.690705
0.692632
0.694672
0.69679
0.698707
0.700587
0.702325
0.704
0.705541
0.707213
0.709097
0.710926
0.71272
0.714877
0.716821
0.719029
0.721278
0.723445
0.726097
0.728514
0.730855
0.733125
0.735345
0.738036
0.741523
0.682882
0.685102
0.687149
0.689324
0.691655
0.693814
0.695799
0.697817
0.699855
0.701751
0.703395
0.704895
0.706528
0.70822
0.709914
0.711661
0.713604
0.715725
0.718152
0.720371
0.722544
0.724537
0.727626
0.729691
0.731946
0.734625
0.677978
0.679228
0.681506
0.68385
0.686019
0.688172
0.690312
0.692423
0.694571
0.696673
0.698798
0.701084
0.702927
0.704339
0.705797
0.707341
0.708929
0.710649
0.712461
0.714454
0.716954
0.71941
0.721702
0.72413
0.726389
0.729046
0.672516
0.674503
0.676505
0.678222
0.680309
0.682482
0.684666
0.686799
0.688968
0.691119
0.693365
0.69573
0.698063
0.700218
0.702285
0.7036
0.705025
0.706519
0.708059
0.709693
0.711386
0.713344
0.71569
0.718165
0.720547
0.72335
0.668283
0.67103
0.673099
0.675052
0.676897
0.678807
0.680989
0.683194
0.685383
0.687691
0.689904
0.692244
0.694779
0.69735
0.699745
0.70138
0.702726
0.704202
0.705662
0.707141
0.708766
0.710365
0.712604
0.714594
0.71717
0.663069
0.665665
0.667623
0.669563
0.671635
0.673648
0.675519
0.67752
0.679546
0.681758
0.684101
0.686486
0.688729
0.691069
0.693513
0.69613
0.698842
0.700288
0.701688
0.703213
0.704608
0.706103
0.707845
0.709542
0.711626
0.713967
0.658251
0.66028
0.662174
0.664184
0.66634
0.668225
0.670137
0.672272
0.674232
0.676121
0.678108
0.68037
0.68282
0.685249
0.687411
0.689684
0.692056
0.694236
0.69701
0.698967
0.700435
0.702031
0.70346
0.705019
0.706734
0.709168
0.654132
0.655286
0.656927
0.658866
0.66084
0.662938
0.664887
0.666882
0.668836
0.671047
0.67298
0.67489
0.67693
0.679047
0.681439
0.683892
0.686123
0.68819
0.69061
0.692761
0.695088
0.697533
0.699056
0.700734
0.702403
0.704257
0.705794
0.64994
0.652387
0.654325
0.655951
0.657762
0.65964
0.661637
0.663634
0.665577
0.667515
0.669648
0.671621
0.673408
0.675666
0.677926
0.680334
0.68267
0.684861
0.68692
0.689159
0.691391
0.693645
0.695776
0.697618
0.699612
0.701504
0.645754
0.647367
0.649142
0.651257
0.653307
0.654968
0.656686
0.658513
0.660444
0.662311
0.66441
0.666411
0.668257
0.669962
0.671982
0.674477
0.676944
0.67928
0.681438
0.683473
0.685547
0.687629
0.689925
0.691974
0.694019
0.6964
0.642649
0.644515
0.64617
0.647943
0.649941
0.651903
0.653745
0.655603
0.657426
0.659281
0.661092
0.663245
0.665268
0.667018
0.668736
0.670982
0.673533
0.675724
0.678008
0.679933
0.681895
0.683959
0.686106
0.688446
0.690471
0.638537
0.640127
0.641755
0.643334
0.644923
0.646629
0.648598
0.650762
0.652619
0.654502
0.656483
0.658395
0.660176
0.662152
0.664103
0.665828
0.667768
0.669995
0.672381
0.674456
0.676534
0.678645
0.680725
0.682724
0.684497
0.635812
0.637248
0.63903
0.640627
0.642226
0.643879
0.64561
0.647581
0.649773
0.651674
0.653462
0.655303
0.65728
0.659161
0.661109
0.662982
0.664812
0.666791
0.668877
0.671157
0.673093
0.675303
0.677157
0.679552
0.6821
0.630781
0.632907
0.634672
0.636171
0.637838
0.639481
0.641074
0.64279
0.644609
0.646641
0.64883
0.65065
0.652363
0.654159
0.656033
0.657909
0.659832
0.661922
0.663751
0.665868
0.667729
0.669852
0.67178
0.674147
0.675885
0.627971
0.629935
0.631628
0.633605
0.635176
0.63673
0.638257
0.639864
0.641621
0.643546
0.645519
0.647736
0.64946
0.651217
0.653089
0.654906
0.656762
0.658787
0.660806
0.662602
0.664739
0.666605
0.668739
0.671033
0.673261
0.623649
0.625399
0.626984
0.628668
0.630398
0.632021
0.633831
0.63554
0.637027
0.638599
0.640384
0.642406
0.64442
0.646592
0.648369
0.650056
0.6519
0.653748
0.65546
0.657468
0.659509
0.661469
0.663595
0.665368
0.667453
0.621367
0.622818
0.624279
0.625786
0.627371
0.628979
0.630721
0.632345
0.634116
0.635687
0.637274
0.63904
0.641179
0.643361
0.645488
0.647306
0.648931
0.650611
0.652429
0.654182
0.656319
0.65826
0.660182
0.662073
0.617599
0.618629
0.620205
0.621753
0.623239
0.624592
0.626118
0.627607
0.629238
0.630751
0.632471
0.634244
0.635873
0.637615
0.64002
0.642275
0.644392
0.646189
0.647761
0.649454
0.651188
0.652877
0.654994
0.657085
0.659094
0.614728
0.61622
0.617748
0.619243
0.620693
0.622233
0.623643
0.625064
0.626533
0.627916
0.629246
0.630789
0.632661
0.634491
0.636286
0.638583
0.641001
0.643096
0.644852
0.646577
0.64825
0.650098
0.651812
0.653787
0.611134
0.61229
0.613818
0.615267
0.616687
0.61814
0.61961
0.621111
0.622548
0.62403
0.625679
0.627024
0.628222
0.629617
0.631269
0.633187
0.635054
0.637181
0.639493
0.641693
0.643612
0.645386
0.647013
0.648815
0.650644
0.608645
0.609996
0.611427
0.612823
0.614243
0.615625
0.61707
0.618501
0.619954
0.621483
0.622913
0.6246
0.626071
0.627353
0.628628
0.630137
0.631995
0.633932
0.635904
0.63805
0.640133
0.642217
0.644131
0.645979
0.605211
0.606298
0.607617
0.608975
0.610432
0.611793
0.61321
0.614545
0.615974
0.617432
0.618864
0.620497
0.62188
0.623484
0.624975
0.626405
0.627693
0.629091
0.630744
0.632701
0.634568
0.636608
0.638607
0.64098
0.643135
0.602832
0.604063
0.60534
0.606635
0.608013
0.609399
0.610786
0.612134
0.613473
0.614859
0.616354
0.617751
0.619331
0.620806
0.622459
0.623982
0.625432
0.626708
0.628048
0.629748
0.631518
0.633417
0.63547
0.637383
0.600587
0.601968
0.603043
0.604332
0.60559
0.606971
0.608364
0.609745
0.611108
0.612472
0.61383
0.61533
0.61674
0.618178
0.619621
0.621282
0.622898
0.624355
0.625619
0.627058
0.628794
0.630556
0.632307
0.63433
0.597614
0.59869
0.599814
0.600979
0.602097
0.603279
0.604553
0.605901
0.607339
0.608763
0.610139
0.611504
0.612865
0.614289
0.615664
0.617045
0.618529
0.620187
0.621865
0.623357
0.624656
0.626028
0.627717
0.62956
0.631532
0.595285
0.596604
0.597788
0.598962
0.600066
0.601105
0.602231
0.603488
0.604896
0.60639
0.607836
0.609184
0.610537
0.611917
0.613314
0.614685
0.616056
0.617516
0.619065
0.620629
0.622179
0.623694
0.625205
0.626661
0.593068
0.594191
0.595673
0.596873
0.598084
0.599132
0.600129
0.60122
0.602472
0.603896
0.605449
0.606955
0.60825
0.609573
0.610955
0.61236
0.613748
0.615099
0.616529
0.618026
0.619593
0.620975
0.622593
0.624166
0.590569
0.592009
0.593262
0.594559
0.595845
0.597125
0.598303
0.599269
0.600327
0.601524
0.602864
0.604385
0.606002
0.607273
0.608581
0.609934
0.611348
0.612747
0.614091
0.615493
0.617022
0.618605
0.620127
0.587317
0.588572
0.589679
0.590926
0.592273
0.593547
0.594845
0.596131
0.597364
0.598431
0.599428
0.600543
0.601858
0.603356
0.604933
0.606241
0.607542
0.608876
0.610293
0.611717
0.612989
0.614492
0.61586
0.617226
0.584562
0.586144
0.587493
0.588673
0.589882
0.591182
0.592522
0.593864
0.595186
0.596474
0.59756
0.598578
0.599602
0.600821
0.602288
0.603798
0.605189
0.606531
0.607845
0.609221
0.610709
0.611988
0.613597
0.61497
0.582473
0.583708
0.585059
0.5864
0.587627
0.588873
0.59012
0.591406
0.592739
0.594091
0.595586
0.596744
0.597762
0.598818
0.599994
0.601336
0.602734
0.604121
0.605471
0.606761
0.608091
0.609546
0.610854
0.578819
0.57996
0.581353
0.58267
0.584
0.585288
0.586576
0.587835
0.58906
0.590292
0.59166
0.593073
0.594701
0.595934
0.596895
0.597972
0.599149
0.600435
0.601736
0.603046
0.604413
0.605797
0.60714
0.608267
0.576793
0.577798
0.579054
0.580322
0.581608
0.58294
0.58419
0.585493
0.586785
0.587995
0.589189
0.59051
0.591918
0.593562
0.594964
0.595938
0.597002
0.598187
0.599447
0.600723
0.601972
0.603372
0.604658
0.606534
0.574107
0.575543
0.576862
0.578082
0.579273
0.580537
0.581793
0.583032
0.584332
0.585624
0.586891
0.588005
0.589295
0.590623
0.592176
0.593654
0.5948
0.595913
0.597149
0.598416
0.599715
0.601012
0.602367
0.603799
0.571863
0.573265
0.574479
0.575769
0.577049
0.57824
0.579466
0.580709
0.581925
0.583176
0.584424
0.585833
0.587103
0.588332
0.589598
0.590919
0.592323
0.593594
0.594771
0.596037
0.597312
0.598652
0.600136
0.56836
0.569909
0.570953
0.572228
0.573489
0.574763
0.576021
0.577208
0.578456
0.579719
0.580899
0.582
0.583114
0.584619
0.585976
0.587222
0.588429
0.589679
0.591062
0.592373
0.593629
0.595023
0.596344
0.597738
0.566642
0.567404
0.568756
0.569986
0.571222
0.572464
0.57371
0.574926
0.576145
0.577444
0.578711
0.579831
0.580807
0.58187
0.583311
0.584797
0.586105
0.587305
0.588523
0.58988
0.591192
0.592532
0.593853
0.595469
0.563694
0.565255
0.566536
0.567717
0.568959
0.5702
0.571454
0.572656
0.573836
0.575085
0.576394
0.577708
0.578906
0.579827
0.580905
0.58222
0.583649
0.584977
0.586206
0.587401
0.588759
0.59003
0.591366
0.56188
0.562945
0.564198
0.565429
0.56668
0.567952
0.569238
0.570496
0.571644
0.572793
0.574037
0.575292
0.576625
0.577963
0.579022
0.580106
0.581266
0.582541
0.583864
0.585055
0.586299
0.587667
0.589008
0.559501
0.560722