/*--------------------------------*- C++ -*----------------------------------*\
  =========                 |
  \\      /  F ield         | OpenFOAM: The Open Source CFD Toolbox
   \\    /   O peration     | Website:  https://openfoam.org
    \\  /    A nd           | Version:  8
     \\/     M anipulation  |
\*---------------------------------------------------------------------------*/
FoamFile
{
    version     2.0;
    format      ascii;
    class       volScalarField;
    location    "40";
    object      nut;
}
// * * * * * * * * * * * * * * * * * * * * * * * * * * * * * * * * * * * * * //

dimensions      [0 2 -1 0 0 0 0];

internalField   nonuniform List<scalar> 
12225
(
4.14711e-05
3.93715e-05
3.74615e-05
3.54674e-05
3.37697e-05
3.24653e-05
3.15023e-05
3.09558e-05
3.09664e-05
3.11883e-05
3.16855e-05
3.22933e-05
3.33958e-05
3.41436e-05
3.54966e-05
3.65362e-05
3.73525e-05
4.08928e-05
0.000331699
0.000215751
0.000178876
0.00015806
0.000145861
0.000138334
0.000132159
0.000131973
0.000129125
0.000130263
0.000128907
0.000129594
0.000128636
0.000128795
0.00012816
0.000127885
0.000127894
0.000127124
0.000667336
0.00045262
0.000354417
0.000310829
0.000273931
0.000251593
0.000230406
0.000217253
0.000201205
0.000191262
0.000181055
0.000173521
0.000167793
0.000161169
0.000158486
0.000152089
0.00015155
0.000144879
0.000802529
0.000693449
0.000569964
0.000501714
0.00044725
0.000413
0.000378558
0.000356105
0.00033174
0.000313824
0.000295433
0.000279504
0.000266902
0.000252207
0.000243818
0.000230254
0.00022415
0.000212295
0.000839814
0.000811271
0.000738366
0.000678331
0.000621706
0.000582457
0.000543531
0.000514487
0.00048712
0.000463037
0.000442971
0.000421009
0.000406037
0.000385892
0.000374174
0.000355693
0.000345867
0.000328129
0.000850346
0.000843445
0.000819037
0.000787575
0.000748956
0.000716611
0.000683988
0.000655808
0.000630616
0.000605925
0.000586514
0.000564113
0.000548579
0.000528102
0.000515037
0.000496095
0.000484487
0.00046559
0.000851535
0.000851105
0.000843169
0.000833747
0.000816096
0.00079724
0.000776823
0.000756338
0.000737604
0.000717773
0.000701638
0.000683012
0.000669076
0.000651694
0.000639403
0.000622964
0.000611905
0.000594968
0.000851523
0.000851918
0.000849898
0.000847627
0.000841085
0.000833563
0.000824414
0.000813109
0.00080207
0.000789527
0.000778453
0.000765722
0.000755269
0.000742732
0.000732952
0.000720667
0.000711559
0.000698525
0.000851625
0.00085161
0.000850933
0.000850424
0.000848763
0.000846128
0.000842791
0.000838096
0.000833047
0.000826768
0.000820482
0.000813713
0.000807115
0.000799645
0.000793015
0.000785304
0.000778705
0.000770195
0.000851725
0.00085143
0.000851009
0.000850668
0.000850196
0.00084937
0.000848289
0.000846691
0.000844752
0.000842279
0.000839524
0.000836261
0.000833077
0.000829196
0.000825663
0.000821415
0.000817615
0.000812788
0.000851773
0.000851376
0.000851003
0.000850629
0.0008503
0.000849918
0.00084945
0.000848914
0.000848163
0.000847305
0.000846249
0.000844932
0.000843639
0.000841897
0.000840383
0.000838296
0.000836652
0.000834151
0.000851787
0.000851365
0.000850997
0.000850615
0.000850271
0.000849956
0.000849582
0.000849295
0.000848845
0.000848476
0.000847962
0.000847387
0.000846816
0.000846022
0.000845354
0.000844385
0.000843636
0.000842469
0.000851789
0.000851363
0.000850991
0.000850613
0.000850253
0.000849948
0.000849575
0.000849339
0.000848955
0.000848723
0.00084837
0.000848059
0.000847744
0.000847354
0.000847025
0.000846583
0.000846246
0.000845727
0.000851786
0.000851366
0.000850983
0.000850613
0.000850242
0.000849942
0.000849562
0.000849329
0.000848958
0.000848744
0.00084843
0.000848184
0.000847938
0.000847677
0.000847459
0.000847204
0.00084703
0.000846764
0.00085178
0.000851372
0.000850974
0.000850613
0.000850238
0.00084993
0.000849566
0.00084931
0.000848962
0.000848733
0.000848434
0.000848194
0.00084796
0.000847728
0.000847525
0.000847324
0.000847161
0.000846999
0.000851772
0.000851384
0.000850962
0.000850616
0.000850233
0.00084992
0.000849576
0.00084929
0.000848978
0.000848723
0.000848437
0.000848209
0.000847958
0.000847747
0.000847546
0.000847341
0.000847189
0.000847012
0.000851785
0.00085136
0.000850973
0.000850598
0.000850233
0.000849919
0.000849562
0.000849304
0.000848968
0.000848733
0.000848448
0.000848211
0.000847982
0.000847751
0.000847585
0.000847328
0.000847245
0.000846996
0.000851797
0.000851339
0.000850977
0.000850583
0.000850231
0.000849915
0.000849553
0.000849312
0.00084896
0.000848746
0.000848445
0.00084823
0.000847978
0.000847777
0.000847582
0.000847357
0.000847233
0.000847032
0.000851781
0.000851364
0.000850951
0.000850603
0.000850212
0.000849913
0.000849559
0.000849289
0.000848981
0.000848726
0.000848462
0.000848219
0.000847993
0.000847769
0.000847584
0.000847365
0.000847217
0.00084705
0.00085179
0.000851348
0.000850972
0.000850586
0.000850235
0.000849904
0.000849577
0.000849293
0.000848994
0.000848741
0.000848475
0.000848244
0.000848013
0.000847801
0.0008476
0.000847417
0.000847218
0.000847086
0.000851793
0.000851345
0.000850978
0.000850585
0.000850244
0.000849911
0.000849587
0.000849307
0.000849007
0.00084876
0.000848492
0.000848264
0.000848031
0.000847818
0.000847612
0.000847426
0.000847213
0.000847076
0.000851788
0.000851352
0.000850975
0.000850597
0.000850244
0.000849931
0.00084959
0.000849327
0.000848998
0.000848752
0.00084844
0.000848185
0.000847889
0.000847616
0.000847318
0.000847041
0.00084672
0.000846448
0.000851773
0.000851375
0.000850966
0.000850626
0.000850236
0.000849926
0.000849482
0.000849128
0.000848565
0.000848093
0.000847402
0.000846774
0.000845963
0.000845197
0.000844259
0.00084341
0.000842371
0.000841443
0.000851754
0.000851434
0.00085094
0.00085058
0.000849853
0.000849015
0.000847644
0.000846081
0.000844018
0.000841832
0.000839205
0.000836555
0.000833557
0.000830659
0.000827428
0.000824479
0.000821134
0.000818246
0.000851832
0.000851423
0.000850138
0.000848339
0.00084444
0.000839474
0.000832895
0.000825904
0.000818263
0.000810485
0.000802202
0.000794392
0.000786245
0.000778835
0.000771037
0.000764237
0.00075687
0.000750754
0.000852085
0.000847724
0.000839867
0.000827391
0.000808562
0.000790097
0.000770095
0.000752069
0.000733807
0.000717826
0.000701861
0.000688086
0.000674205
0.000662426
0.000650251
0.000640177
0.000629393
0.00062074
0.000843277
0.00082266
0.00077491
0.000727018
0.000684701
0.000650702
0.00061847
0.000593095
0.000568855
0.00054963
0.000530663
0.000515605
0.00050022
0.000488024
0.000475179
0.000465139
0.000454166
0.000445712
0.000795865
0.000668479
0.000570452
0.000510539
0.000465451
0.000432166
0.000404095
0.000383677
0.000364468
0.000350416
0.000336552
0.000326453
0.000315571
0.00030779
0.000299317
0.000293233
0.000286115
0.000281099
0.000501243
0.000348521
0.000292629
0.00025948
0.000236363
0.00022156
0.000211533
0.000204461
0.00019849
0.000195551
0.000192245
0.000190772
0.000188634
0.000187821
0.000186223
0.000185806
0.000184554
0.000184364
7.27391e-05
7.02248e-05
6.79535e-05
6.56129e-05
6.33858e-05
6.12807e-05
5.94922e-05
5.79604e-05
5.66956e-05
5.57003e-05
5.49375e-05
5.43904e-05
5.40327e-05
5.38144e-05
5.37623e-05
5.38061e-05
5.39053e-05
5.41194e-05
3.28706e-05
0.000194714
4.38081e-05
4.37573e-05
4.19884e-05
4.36591e-05
4.52015e-05
4.38453e-05
4.28406e-05
4.04891e-05
3.9818e-05
3.7616e-05
3.42916e-05
3.14048e-05
3.63154e-05
4.3231e-05
4.5206e-05
4.95506e-05
5.527e-05
6.1283e-05
6.79409e-05
7.36295e-05
7.85731e-05
8.28797e-05
8.6686e-05
9.00871e-05
9.31609e-05
9.59664e-05
9.85487e-05
0.000100953
0.000103206
0.000105344
0.00010738
0.000109332
0.000111187
0.00011294
0.00011457
0.000116093
0.000117509
0.000118844
0.000120107
0.000121355
0.000122604
0.000123828
0.000124991
0.000126038
0.000126963
0.000127616
0.000128474
0.00013005
0.000131554
0.000132283
0.000133853
0.000135484
0.000135991
0.000137732
0.000135589
0.000133871
0.000139922
0.000135618
0.000131486
0.000134943
0.000140759
0.000133854
0.000135501
0.000138037
0.000130215
0.000134476
0.000142952
0.000140395
0.00013845
0.000133222
0.000127017
0.00013553
0.00013132
0.000124512
0.00013333
0.00012912
0.000132016
0.000125713
0.000128437
0.000124038
0.000125915
0.000116717
0.000124651
0.000114556
0.0001158
0.000114078
0.000113147
0.000111996
0.000110896
0.000109783
0.000108677
0.000107573
0.000106474
0.000105378
0.000104281
0.000103186
0.000102138
0.000101264
0.000100038
9.88881e-05
9.77386e-05
9.65905e-05
9.54362e-05
9.42659e-05
9.31002e-05
9.19925e-05
9.08962e-05
8.94673e-05
8.79968e-05
8.71308e-05
8.64194e-05
8.57049e-05
8.49659e-05
8.42634e-05
8.36417e-05
8.30211e-05
8.21985e-05
8.13424e-05
8.08727e-05
8.04663e-05
7.97825e-05
7.89817e-05
7.81824e-05
7.73052e-05
7.65166e-05
7.57227e-05
7.4036e-05
7.33384e-05
7.24442e-05
7.22975e-05
7.23839e-05
7.25097e-05
7.28746e-05
7.3548e-05
7.42896e-05
7.48229e-05
7.50459e-05
7.19847e-05
6.7583e-05
6.5607e-05
6.19629e-05
6.24411e-05
5.77508e-05
5.68115e-05
5.48815e-05
0.000252095
5.46348e-05
5.11471e-05
5.03943e-05
4.95993e-05
0.000207997
0.000204688
0.000200528
0.000196047
0.000191509
0.000187152
0.000183124
0.000179438
0.000176327
0.000173609
0.00017104
0.000169042
0.00016678
0.000164708
0.000162334
0.000160574
0.000158846
0.00015742
0.000156064
0.000154864
0.000153595
0.000152333
0.000150957
0.000149492
0.00014849
0.000146722
0.000146624
0.000142644
6.28853e-05
0.000117018
0.000165725
0.000190981
0.000199356
0.000200882
0.000195196
0.000183339
0.000169111
0.000154611
0.00014677
0.000153956
0.000161294
0.000162158
0.000170402
0.000181231
0.000193216
0.000206994
0.000220976
0.000235523
0.000250897
0.000266934
0.000283608
0.000304892
0.000326316
0.000348857
0.000372048
0.000395767
0.000419826
0.000444016
0.000468197
0.000492179
0.000515872
0.000539153
0.000562036
0.000584529
0.000606769
0.000628827
0.000650824
0.000672757
0.000694661
0.00071641
0.000737873
0.000758865
0.000779484
0.000799801
0.000820197
0.000841304
0.000867019
0.000880091
0.00089312
0.000908156
0.000930212
0.000935339
0.000944258
0.00095889
0.000974593
0.000991472
0.0010074
0.00101077
0.00102386
0.00103753
0.00104272
0.00105387
0.00106116
0.00106707
0.00105469
0.00106592
0.00108925
0.00107549
0.00106194
0.00105825
0.00107433
0.00107353
0.00105723
0.00107143
0.0010735
0.0010631
0.0010619
0.00104731
0.0010461
0.00102813
0.00103237
0.0010135
0.00101977
0.00100271
0.000995197
0.000986266
0.000977921
0.000969514
0.00096114
0.000952723
0.000944296
0.000935873
0.000927469
0.000919081
0.000910714
0.000902385
0.000894257
0.000886705
0.000879248
0.000871772
0.000864257
0.000856692
0.000849059
0.00084121
0.000833176
0.000825122
0.000817126
0.000808383
0.000798077
0.000787046
0.000775531
0.000763672
0.000751512
0.000739227
0.000727083
0.000715255
0.000703162
0.000690422
0.000678114
0.000667762
0.000656326
0.000644866
0.000633878
0.000623452
0.000613303
0.000604444
0.000592801
0.000582931
0.000573298
0.000565723
0.000560299
0.000556316
0.00055382
0.000552247
0.000552347
0.000548712
0.000550502
0.000530394
0.000496696
0.000464547
0.000432984
0.000410837
0.000359493
0.000328947
0.000293864
0.000354593
0.000299371
0.000277312
0.000273892
0.000254306
0.000322173
0.000354059
0.000363626
0.000363318
0.000358597
0.000352464
0.000346285
0.000341109
0.000337436
0.000334249
0.00033086
0.000329955
0.000326435
0.000324045
0.000320871
0.000319253
0.000316627
0.000312888
0.000312376
0.000308954
0.000308246
0.00030532
0.000303248
0.000302151
0.000300634
0.000294973
0.000290086
0.000271694
9.95937e-05
0.000195033
0.000272202
0.000318523
0.000340053
0.000344478
0.000339561
0.0003309
0.00032206
0.000316126
0.000315275
0.000316677
0.000326685
0.000340312
0.000356004
0.000374471
0.000396137
0.000422736
0.000459816
0.000499712
0.000544783
0.000597226
0.000652382
0.000700814
0.000751088
0.000801214
0.000850847
0.000899585
0.000947138
0.000993309
0.001038
0.00108118
0.00112289
0.00116321
0.00120228
0.0012403
0.00127749
0.00131399
0.00134988
0.00138522
0.00142005
0.00145436
0.00148818
0.00152153
0.00155451
0.0015871
0.00161924
0.00165071
0.00168115
0.00170895
0.00173674
0.0017641
0.00179039
0.00181308
0.00183651
0.0018601
0.00188243
0.00190332
0.0019223
0.0019384
0.0019549
0.00196658
0.0019754
0.0019766
0.00199123
0.00200751
0.002012
0.00201784
0.00202215
0.00201526
0.0020085
0.00200608
0.00200666
0.00199935
0.0019887
0.00198596
0.00197659
0.00196338
0.00195161
0.00193634
0.00192393
0.0019076
0.00189693
0.00188008
0.0018692
0.00185157
0.0018359
0.00182002
0.00180426
0.00178846
0.0017726
0.00175665
0.00174063
0.00172454
0.0017084
0.00169221
0.00167599
0.00165977
0.00164363
0.00162771
0.00161184
0.00159589
0.00157984
0.00156366
0.00154734
0.00153083
0.00151411
0.00149726
0.0014803
0.00146293
0.00144475
0.00142615
0.00140687
0.00138704
0.00136681
0.00134634
0.00132582
0.00130546
0.00128501
0.00126415
0.0012433
0.00122351
0.00120403
0.00118491
0.00116742
0.001152
0.00113784
0.00112559
0.00111149
0.00109844
0.00108678
0.00107773
0.00107156
0.00106801
0.00106698
0.00106822
0.00107206
0.00107433
0.00107871
0.00107313
0.00105077
0.00101414
0.000965599
0.000913674
0.000835632
0.000762369
0.000688625
0.000655037
0.00060451
0.000563581
0.000539676
0.000511872
0.000514661
0.000515361
0.0005114
0.00050404
0.000495128
0.000485641
0.000477174
0.000468755
0.000463977
0.000458664
0.000455178
0.000452196
0.000446873
0.000445124
0.000440563
0.000436173
0.00043124
0.000430936
0.000425314
0.000425221
0.000418703
0.000418241
0.000412618
0.000414674
0.000412065
0.00040977
0.000401352
0.000377417
0.000135043
0.000268245
0.000362992
0.000413356
0.000432753
0.000430865
0.000420926
0.000413116
0.000411848
0.000417282
0.000428897
0.000440023
0.000456343
0.000481133
0.000515977
0.000560842
0.000615017
0.000679061
0.000740468
0.000805762
0.000873888
0.000943532
0.00101222
0.00107841
0.00114371
0.00120738
0.00126917
0.00132892
0.00138657
0.00144215
0.00149574
0.00154747
0.00159749
0.00164598
0.00169312
0.00173907
0.00178378
0.00182759
0.00187059
0.00191287
0.00195449
0.0019955
0.00203592
0.00207581
0.00211515
0.00215394
0.0021921
0.00222952
0.00226602
0.00230152
0.00233627
0.00236999
0.00240235
0.00243317
0.002463
0.00249152
0.00251839
0.0025434
0.00256641
0.00258745
0.00260655
0.00262398
0.00263796
0.00264071
0.00265034
0.00266819
0.00267626
0.00268105
0.00268263
0.00268023
0.00267639
0.00267223
0.00266682
0.00265833
0.00264825
0.00263819
0.00262556
0.00261111
0.00259591
0.00257945
0.00256277
0.00254504
0.00252775
0.00250904
0.00249082
0.00247099
0.00245115
0.00243112
0.00241097
0.00239066
0.00237019
0.00234955
0.00232876
0.00230781
0.00228672
0.00226549
0.00224415
0.0022227
0.00220118
0.00217962
0.00215797
0.00213618
0.00211422
0.00209207
0.00206976
0.00204724
0.00202454
0.00200167
0.00197862
0.00195528
0.00193157
0.00190782
0.00188311
0.00185788
0.00183226
0.00180639
0.00178041
0.00175442
0.0017284
0.00170222
0.00167606
0.00165037
0.00162512
0.00160032
0.00157648
0.00155405
0.00153311
0.00151554
0.00149989
0.0014867
0.00147624
0.00146905
0.00146537
0.0014646
0.00146636
0.00147117
0.00147923
0.00148855
0.00149941
0.00150671
0.00150283
0.0014839
0.0014469
0.001393
0.00131234
0.00121617
0.0011108
0.00101662
0.000926555
0.000848819
0.00078873
0.000739126
0.000705763
0.000680422
0.000659554
0.000641527
0.000625646
0.000611312
0.000599344
0.000587688
0.000579559
0.000571653
0.000565602
0.000560053
0.000553508
0.000547307
0.000541591
0.000538692
0.000531001
0.000533413
0.000531115
0.000528824
0.000518747
0.000515468
0.000509899
0.000511785
0.000512295
0.000509026
0.000505516
0.000477816
0.000176463
0.000329577
0.000437252
0.000493593
0.000515682
0.000515019
0.00050702
0.000502839
0.000507388
0.000518498
0.000539292
0.000570107
0.000615131
0.000667008
0.000727003
0.000795456
0.000869466
0.000947046
0.00102484
0.00110367
0.00118256
0.00126048
0.00133655
0.00141045
0.00148234
0.00155202
0.00161936
0.0016843
0.00174667
0.00180674
0.00186468
0.00192062
0.00197473
0.00202721
0.00207825
0.0021281
0.00217649
0.00222374
0.00226996
0.00231522
0.0023596
0.00240314
0.00244588
0.00248785
0.00252905
0.00256946
0.00260907
0.00264792
0.00268597
0.00272319
0.00275961
0.0027951
0.00282937
0.0028623
0.00289388
0.00292394
0.00295232
0.00297888
0.00300355
0.00302626
0.00304698
0.00306558
0.00308147
0.00309464
0.00309787
0.00311399
0.00312428
0.00313028
0.00313289
0.00313261
0.0031302
0.00312601
0.00311986
0.00311158
0.00310156
0.0030901
0.0030769
0.00306218
0.00304626
0.00302922
0.00301132
0.00299256
0.00297321
0.0029531
0.00293251
0.00291122
0.00288953
0.0028675
0.00284517
0.00282256
0.00279968
0.00277653
0.00275313
0.00272948
0.00270559
0.00268146
0.00265711
0.00263255
0.00260777
0.00258281
0.00255763
0.00253223
0.00250661
0.00248075
0.00245467
0.00242836
0.00240183
0.00237509
0.00234814
0.00232093
0.00229342
0.00226563
0.0022374
0.00220879
0.00217986
0.00215069
0.00212138
0.00209201
0.00206261
0.00203317
0.0020038
0.00197469
0.00194595
0.00191768
0.00189015
0.00186365
0.00183845
0.00181544
0.00179476
0.00177858
0.0017668
0.00175961
0.00175689
0.00175819
0.00176311
0.0017716
0.00178368
0.00179873
0.00181638
0.00183429
0.00184569
0.00184682
0.00183184
0.00179518
0.00172921
0.00163351
0.00151443
0.00138646
0.00125894
0.00114223
0.00104354
0.000962769
0.000900038
0.00085146
0.000813457
0.000783247
0.000758818
0.000738401
0.000721747
0.00070683
0.000694947
0.000684292
0.000675247
0.000667005
0.000658937
0.000650373
0.00064358
0.000636142
0.000625789
0.000628683
0.000625185
0.000618614
0.000609813
0.00060997
0.000607106
0.000606853
0.00060631
0.000604502
0.000603929
0.000575694
0.000189704
0.000330295
0.00046351
0.00055028
0.000590799
0.000602094
0.000603861
0.000608459
0.000620509
0.00065054
0.000691017
0.00074176
0.000803503
0.0008735
0.000950008
0.00103103
0.00111468
0.00119937
0.00128385
0.00136776
0.00145052
0.00153162
0.00161067
0.00168747
0.00176197
0.00183396
0.00190362
0.00197117
0.00203602
0.0020985
0.00215871
0.00221675
0.00227272
0.00232668
0.00237864
0.00242875
0.00247732
0.00252454
0.00257052
0.00261537
0.0026592
0.00270208
0.00274411
0.00278535
0.00282585
0.00286566
0.00290481
0.00294327
0.00298101
0.00301799
0.00305416
0.00308941
0.00312362
0.00315667
0.00318846
0.00321887
0.00324779
0.00327508
0.00330067
0.00332445
0.00334638
0.00336637
0.00338439
0.00340091
0.00340844
0.00341547
0.00343089
0.00343901
0.00344346
0.00344506
0.00344427
0.0034413
0.0034362
0.00342904
0.00342
0.0034092
0.00339672
0.00338269
0.0033673
0.00335066
0.00333293
0.00331421
0.00329463
0.00327425
0.00325317
0.00323144
0.00320915
0.00318637
0.00316316
0.00313953
0.00311552
0.00309114
0.0030664
0.00304131
0.00301588
0.00299011
0.00296403
0.00293762
0.00291092
0.00288391
0.00285662
0.00282903
0.00280115
0.002773
0.00274456
0.00271587
0.00268691
0.00265771
0.00262827
0.00259857
0.0025686
0.00253835
0.00250779
0.00247693
0.00244581
0.00241449
0.00238304
0.00235151
0.00231997
0.00228844
0.00225703
0.00222584
0.00219501
0.00216467
0.00213501
0.00210628
0.00207877
0.00205304
0.0020296
0.00200974
0.00199527
0.00198709
0.00198444
0.00198661
0.00199301
0.00200328
0.00201718
0.00203435
0.00205447
0.00207669
0.00209843
0.00211714
0.00212512
0.0021129
0.00206987
0.0019901
0.00187455
0.00173454
0.00158244
0.00143388
0.00130068
0.00118835
0.00109775
0.00102647
0.000970897
0.00092751
0.000893397
0.000865971
0.00084389
0.00082521
0.00080973
0.000796292
0.0007846
0.000774
0.000764385
0.000753846
0.000747577
0.000731345
0.000721825
0.000711612
0.000700818
0.000708354
0.000701287
0.000694628
0.00068356
0.000690907
0.000687424
0.000689899
0.000692165
0.000658755
2.2206e-05
0.000132993
0.000331473
0.000525602
0.000636273
0.000683438
0.000702713
0.000724952
0.000756094
0.0007981
0.0008518
0.000916956
0.000990956
0.00107087
0.00115478
0.00124103
0.00132829
0.00141557
0.00150213
0.00158755
0.00167146
0.00175357
0.00183366
0.00191125
0.0019868
0.00205965
0.00212984
0.00219707
0.00226165
0.00232379
0.00238356
0.00244106
0.00249641
0.00254976
0.00260133
0.00265112
0.00269926
0.00274589
0.00279113
0.00283511
0.00287794
0.00291971
0.00296054
0.0030005
0.00303967
0.00307812
0.0031159
0.00315302
0.00318951
0.00322534
0.00326049
0.00329489
0.00332845
0.0033611
0.00339271
0.00342318
0.00345239
0.0034802
0.00350651
0.00353118
0.00355412
0.00357521
0.00359434
0.0036108
0.00362636
0.00363168
0.0036475
0.00365731
0.00366366
0.00366722
0.00366832
0.00366711
0.00366371
0.00365821
0.00365074
0.00364139
0.00363029
0.00361755
0.00360333
0.00358774
0.0035709
0.00355293
0.00353395
0.00351405
0.00349331
0.00347181
0.00344963
0.00342682
0.00340345
0.00337954
0.00335513
0.00333024
0.00330488
0.00327909
0.00325286
0.00322622
0.00319917
0.00317174
0.00314392
0.00311574
0.00308719
0.0030583
0.00302907
0.00299951
0.00296963
0.00293944
0.00290897
0.00287821
0.00284718
0.00281589
0.00278432
0.00275249
0.00272038
0.00268803
0.00265546
0.00262271
0.00258984
0.00255692
0.00252399
0.00249114
0.00245842
0.00242597
0.00239389
0.00236234
0.00233149
0.00230159
0.00227294
0.00224599
0.00222132
0.00220002
0.0021833
0.00217414
0.00217134
0.00217392
0.00218109
0.00219229
0.0022071
0.00222515
0.00224607
0.00226945
0.0022942
0.00231937
0.0023413
0.00235496
0.00233904
0.00228271
0.00218172
0.00204244
0.00187903
0.00170916
0.00154952
0.00140913
0.0012925
0.00119905
0.00112575
0.00106874
0.00102433
0.000989274
0.000961334
0.000938401
0.00091936
0.000903086
0.000888912
0.000876166
0.000864747
0.000852913
0.000845082
0.000825524
0.000810955
0.000802641
0.000792003
0.000788084
0.000770112
0.000771753
0.000774057
0.000768269
0.000775742
0.000753982
0.000765287
0.00073819
2.29289e-05
0.000126621
0.000322353
0.000534591
0.000672761
0.000749202
0.000797517
0.000839425
0.000883789
0.000935713
0.00100128
0.00107537
0.00115569
0.00124013
0.00132702
0.00141511
0.00150342
0.00159125
0.00167808
0.00176357
0.00184741
0.00192942
0.00200942
0.00208653
0.00216074
0.00223238
0.00230155
0.00236835
0.00243267
0.00249453
0.00255401
0.00261119
0.00266616
0.00271904
0.00276994
0.00281897
0.00286624
0.00291187
0.00295598
0.00299871
0.00304017
0.00308047
0.00311974
0.00315808
0.00319559
0.00323236
0.00326846
0.00330398
0.00333895
0.0033734
0.00340732
0.0034407
0.00347348
0.00350559
0.00353692
0.00356737
0.0035968
0.00362508
0.00365206
0.00367759
0.00370153
0.00372375
0.0037441
0.00376264
0.00378132
0.00378872
0.0038045
0.00381574
0.00382394
0.00382946
0.00383253
0.00383328
0.0038318
0.0038282
0.00382255
0.00381497
0.00380557
0.00379446
0.00378175
0.00376757
0.00375203
0.00373524
0.00371731
0.00369832
0.00367838
0.00365756
0.00363592
0.00361354
0.00359046
0.00356673
0.00354239
0.00351746
0.00349199
0.003466
0.0034395
0.00341251
0.00338505
0.00335714
0.00332879
0.00330001
0.00327081
0.00324122
0.00321124
0.0031809
0.00315019
0.00311914
0.00308776
0.00305607
0.00302407
0.00299179
0.00295922
0.00292639
0.0028933
0.00285998
0.00282646
0.00279279
0.00275901
0.0027252
0.00269141
0.00265772
0.00262422
0.00259101
0.00255823
0.00252603
0.0024946
0.00246419
0.00243512
0.00240783
0.00238292
0.00236142
0.00234438
0.00233488
0.00233217
0.00233507
0.00234269
0.00235437
0.00236958
0.0023879
0.00240895
0.00243236
0.00245762
0.00248429
0.00251115
0.00253508
0.00254625
0.00251667
0.00243583
0.00230614
0.00214067
0.00195859
0.00177927
0.0016165
0.00147769
0.00136422
0.00127424
0.00120366
0.00114861
0.00110545
0.00107125
0.00104358
0.00102076
0.00100145
0.000984687
0.00096973
0.000956236
0.000943174
0.000931951
0.000918973
0.000905878
0.00089397
0.000883506
0.000864905
0.000848626
0.000836689
0.000823468
0.000834333
0.000842588
0.000818233
0.000804888
0.000823768
2.42447e-05
0.000129715
0.000333939
0.000546094
0.000698906
0.000801193
0.000873103
0.000933943
0.0009911
0.0010538
0.00112636
0.00120538
0.0012889
0.00137528
0.00146323
0.00155176
0.00164011
0.00172773
0.00181421
0.00189922
0.00198251
0.00206388
0.00214309
0.00221885
0.00229241
0.00236363
0.00243245
0.00249885
0.00256281
0.00262434
0.00268349
0.0027403
0.00279486
0.00284726
0.00289758
0.00294593
0.00299241
0.00303713
0.00308023
0.00312181
0.00316199
0.00320091
0.00323868
0.00327543
0.00331128
0.00334634
0.00338073
0.00341454
0.00344786
0.00348078
0.00351331
0.0035455
0.00357731
0.00360871
0.0036396
0.00366988
0.00369941
0.00372804
0.0037556
0.00378194
0.00380687
0.00383027
0.00385199
0.00387198
0.00389262
0.00390557
0.00391931
0.00393193
0.00394197
0.00394943
0.00395448
0.0039572
0.0039577
0.00395605
0.00395234
0.00394665
0.00393909
0.00392977
0.00391878
0.00390624
0.00389224
0.0038769
0.00386031
0.00384255
0.00382372
0.0038039
0.00378316
0.00376156
0.00373915
0.00371599
0.00369212
0.00366758
0.00364241
0.00361665
0.0035903
0.00356341
0.00353598
0.00350804
0.00347961
0.00345069
0.00342131
0.00339149
0.00336124
0.00333057
0.00329951
0.00326807
0.00323626
0.0032041
0.00317161
0.0031388
0.00310569
0.00307231
0.00303867
0.0030048
0.00297074
0.00293654
0.00290225
0.00286794
0.00283367
0.00279954
0.00276564
0.00273208
0.002699
0.00266656
0.00263499
0.00260454
0.00257556
0.00254853
0.00252407
0.00250322
0.00248704
0.0024784
0.00247626
0.00247958
0.00248751
0.00249939
0.00251466
0.00253286
0.00255361
0.00257655
0.00260132
0.00262773
0.00265528
0.00268295
0.00270426
0.00270141
0.00264223
0.00252603
0.00236445
0.00217709
0.00198519
0.00180567
0.00164876
0.00151809
0.00141286
0.0013297
0.00126454
0.00121343
0.00117298
0.00114044
0.00111373
0.00109124
0.0010718
0.00105451
0.00103883
0.00102409
0.00101041
0.000996985
0.000983679
0.000970707
0.000958422
0.000944857
0.000932808
0.000910844
0.000897132
0.000897455
0.00088534
0.0008883
0.000864866
0.000873857
2.18191e-05
0.000117559
0.000324611
0.000549382
0.00072233
0.000841317
0.000927106
0.00099986
0.00106881
0.00114203
0.00122044
0.00130295
0.0013884
0.00147573
0.00156403
0.00165257
0.00174074
0.00182808
0.00191423
0.00199889
0.00208182
0.00216278
0.00224163
0.0023178
0.00239073
0.00246155
0.00253011
0.00259633
0.00266017
0.00272162
0.0027807
0.00283743
0.00289186
0.00294408
0.00299415
0.00304215
0.00308819
0.00313235
0.00317475
0.0032155
0.0032547
0.00329248
0.00332896
0.00336427
0.00339854
0.0034319
0.0034645
0.00349646
0.00352792
0.00355901
0.00358981
0.00362041
0.00365084
0.00368111
0.00371115
0.00374088
0.00377019
0.00379891
0.00382684
0.00385381
0.00387963
0.00390413
0.00392722
0.00394882
0.00396904
0.00398691
0.00399968
0.00401524
0.00402733
0.00403678
0.00404382
0.00404855
0.00405105
0.00405139
0.00404965
0.00404591
0.00404028
0.00403284
0.00402369
0.00401294
0.00400068
0.003987
0.00397199
0.00395574
0.00393833
0.00391984
0.00390034
0.00387988
0.00385852
0.00383632
0.00381332
0.00378957
0.0037651
0.00373996
0.00371418
0.00368778
0.00366079
0.00363322
0.00360511
0.00357646
0.00354731
0.00351766
0.00348754
0.00345697
0.00342596
0.00339452
0.00336269
0.00333047
0.00329788
0.00326495
0.0032317
0.00319815
0.00316434
0.0031303
0.00309606
0.00306169
0.00302725
0.0029928
0.00295841
0.00292419
0.00289024
0.00285668
0.00282366
0.00279137
0.00276005
0.00272997
0.00270153
0.00267526
0.00265184
0.0026323
0.00261814
0.002611
0.00260978
0.00261361
0.00262177
0.00263364
0.00264869
0.00266648
0.0026866
0.00270871
0.00273252
0.00275783
0.00278453
0.00281224
0.00283713
0.00284814
0.00280886
0.00270623
0.00255121
0.00236323
0.00216442
0.00197363
0.00180327
0.0016589
0.00154094
0.00144673
0.00137236
0.00131374
0.00126724
0.00122985
0.00119919
0.00117344
0.0011512
0.00113144
0.00111346
0.00109667
0.00108081
0.00106555
0.00105065
0.00103614
0.001022
0.00100808
0.000994455
0.000982084
0.000955151
0.000955378
0.000949772
0.000941585
0.00091943
0.00091642
0.000151609
0.00022495
0.000403401
0.000589662
0.000746945
0.000870255
0.000967929
0.00104866
0.00112273
0.00119955
0.00128039
0.00136522
0.0014522
0.00154052
0.00162948
0.00171847
0.00180701
0.0018947
0.0019812
0.00206625
0.0021496
0.00223092
0.00230992
0.0023869
0.00246147
0.00253259
0.00260094
0.00266722
0.00273125
0.00279296
0.00285232
0.00290933
0.00296404
0.00301647
0.00306668
0.00311475
0.00316073
0.00320472
0.00324679
0.00328704
0.00332557
0.00336247
0.00339787
0.00343188
0.00346462
0.00349625
0.0035269
0.00355675
0.00358596
0.00361471
0.00364317
0.00367149
0.00369983
0.00372822
0.00375669
0.00378517
0.00381364
0.00384195
0.00386984
0.00389711
0.00392354
0.00394897
0.00397327
0.00399624
0.00401725
0.00403866
0.00405378
0.00407059
0.00408461
0.00409615
0.00410533
0.00411222
0.00411685
0.00411928
0.0041196
0.00411789
0.00411426
0.0041088
0.00410163
0.00409283
0.0040825
0.00407072
0.00405756
0.00404312
0.00402745
0.00401064
0.00399273
0.00397378
0.00395386
0.003933
0.00391126
0.00388868
0.00386531
0.0038412
0.00381636
0.00379084
0.00376467
0.00373786
0.00371045
0.00368246
0.00365391
0.00362482
0.00359521
0.00356511
0.00353452
0.00350348
0.003472
0.00344009
0.00340779
0.00337512
0.0033421
0.00330877
0.00327516
0.00324131
0.00320727
0.0031731
0.00313886
0.00310463
0.0030705
0.00303656
0.00300293
0.00296974
0.00293717
0.00290542
0.00287474
0.00284547
0.00281804
0.00279303
0.00277125
0.00275371
0.00274232
0.00273694
0.00273678
0.00274114
0.00274943
0.00276111
0.00277571
0.00279281
0.00281202
0.00283299
0.00285547
0.0028792
0.00290428
0.00293023
0.00295525
0.00296964
0.00294434
0.00285213
0.00270362
0.00251762
0.00231621
0.00211909
0.00193996
0.0017858
0.00165812
0.00155497
0.00147279
0.00140754
0.00135552
0.00131354
0.00127906
0.00125007
0.001225
0.00120272
0.00118238
0.00116341
0.00114536
0.00112798
0.00111102
0.0010945
0.00107829
0.00106262
0.00104721
0.00103311
0.00101634
0.0010035
0.000993631
0.000984151
0.000971407
0.000966136
0.000169095
0.000306017
0.000467075
0.000625547
0.000766344
0.000886365
0.000989172
0.00107864
0.00116201
0.00124429
0.0013279
0.00141344
0.00150055
0.0015886
0.00167699
0.00176519
0.00185276
0.00193934
0.00202466
0.00210853
0.00219098
0.00227252
0.00235222
0.00242993
0.00250591
0.00257948
0.00264969
0.00271674
0.00278109
0.00284332
0.00290325
0.00296087
0.00301617
0.00306916
0.00311985
0.0031683
0.00321454
0.00325865
0.00330069
0.00334071
0.00337879
0.00341502
0.00344947
0.00348224
0.00351345
0.00354323
0.00357172
0.0035991
0.00362555
0.00365129
0.00367654
0.00370156
0.00372655
0.00375177
0.00377749
0.00380387
0.00383073
0.00385793
0.00388509
0.00391212
0.0039387
0.00396467
0.00399016
0.00401463