/*--------------------------------*- C++ -*----------------------------------*\
  =========                 |
  \\      /  F ield         | OpenFOAM: The Open Source CFD Toolbox
   \\    /   O peration     | Website:  https://openfoam.org
    \\  /    A nd           | Version:  8
     \\/     M anipulation  |
\*---------------------------------------------------------------------------*/
FoamFile
{
    version     2.0;
    format      ascii;
    class       volScalarField;
    location    "40";
    object      p;
}
// * * * * * * * * * * * * * * * * * * * * * * * * * * * * * * * * * * * * * //

dimensions      [0 2 -2 0 0 0 0];

internalField   nonuniform List<scalar> 
12225
(
0.893788
-1.29266
-2.37582
-2.66699
-2.8512
-3.00591
-3.07332
-3.09869
-3.13373
-3.17271
-3.18233
-3.14763
-3.07139
-2.96651
-2.83814
-2.64345
-2.4525
-1.75213
-2.26922
-3.02322
-3.1858
-3.06546
-3.04911
-3.09759
-3.11231
-3.11267
-3.13313
-3.16131
-3.16372
-3.1239
-3.04704
-2.94596
-2.82347
-2.65641
-2.41642
-2.20729
-2.67094
-2.65532
-2.77625
-2.82239
-2.90887
-3.00594
-3.05527
-3.08244
-3.11803
-3.15177
-3.1564
-3.11972
-3.04988
-2.95934
-2.85258
-2.72017
-2.55467
-2.50061
-2.55016
-2.49365
-2.71591
-2.84927
-2.94527
-3.02736
-3.07208
-3.10062
-3.13372
-3.16134
-3.1611
-3.12485
-3.0615
-2.98237
-2.89228
-2.7884
-2.67837
-2.60264
-2.54114
-2.55976
-2.7735
-2.89634
-2.97312
-3.03822
-3.07884
-3.10828
-3.13965
-3.16346
-3.16184
-3.12961
-3.0754
-3.00961
-2.93654
-2.85736
-2.77629
-2.71991
-2.60091
-2.64361
-2.81087
-2.91169
-2.98386
-3.04508
-3.08504
-3.11536
-3.14621
-3.16907
-3.16925
-3.14294
-3.09842
-3.04534
-2.98832
-2.93023
-2.87691
-2.85619
-2.6638
-2.70294
-2.83293
-2.92055
-2.99609
-3.05765
-3.09565
-3.12482
-3.1554
-3.17919
-3.1829
-3.16304
-3.12785
-3.0866
-3.04452
-3.00567
-2.97707
-2.97744
-2.72066
-2.75378
-2.85806
-2.93643
-3.01329
-3.07439
-3.10945
-3.13662
-3.16741
-3.19334
-3.20152
-3.18861
-3.16267
-3.13273
-3.10453
-3.08253
-3.07339
-3.08691
-2.77456
-2.80298
-2.88844
-2.95833
-3.03242
-3.09174
-3.12473
-3.1508
-3.1821
-3.21052
-3.22382
-3.21868
-3.20215
-3.18291
-3.1673
-3.15998
-3.16641
-3.1905
-2.82679
-2.8518
-2.92211
-2.9845
-3.05383
-3.11011
-3.14219
-3.16838
-3.20038
-3.23136
-3.25032
-3.25364
-3.24647
-3.23741
-3.23309
-3.23804
-3.2567
-3.29011
-2.87741
-2.89929
-2.9554
-3.01264
-3.0781
-3.13063
-3.16216
-3.18904
-3.2219
-3.25535
-3.28031
-3.29244
-3.29519
-3.29628
-3.30212
-3.31703
-3.34486
-3.38501
-2.92238
-2.94171
-2.98711
-3.03981
-3.10243
-3.15243
-3.18426
-3.21184
-3.24448
-3.27921
-3.30924
-3.32998
-3.34289
-3.35366
-3.36794
-3.38999
-3.42392
-3.46925
-2.96547
-2.98309
-3.02163
-3.06759
-3.12583
-3.17563
-3.2104
-3.23933
-3.27029
-3.30422
-3.33809
-3.36784
-3.39197
-3.41312
-3.436
-3.46408
-3.50327
-3.55064
-3.01278
-3.02785
-3.06287
-3.10092
-3.15148
-3.20235
-3.2442
-3.27702
-3.30575
-3.33647
-3.37255
-3.41077
-3.4476
-3.48189
-3.51541
-3.5506
-3.59387
-3.64175
-3.06386
-3.07588
-3.10985
-3.1424
-3.18282
-3.23242
-3.28342
-3.32465
-3.35383
-3.38093
-3.41559
-3.45978
-3.50822
-3.55672
-3.60299
-3.64796
-3.69723
-3.74641
-3.11787
-3.1286
-3.16
-3.1911
-3.22306
-3.26689
-3.32425
-3.37766
-3.41406
-3.44028
-3.47237
-3.5181
-3.57518
-3.63634
-3.69636
-3.75185
-3.80833
-3.85932
-3.17278
-3.18245
-3.21054
-3.24437
-3.27386
-3.31038
-3.36833
-3.43282
-3.48136
-3.51279
-3.54349
-3.58803
-3.64921
-3.72016
-3.79158
-3.85811
-3.92296
-3.97926
-3.22502
-3.2344
-3.25955
-3.29678
-3.32989
-3.36343
-3.41902
-3.48953
-3.54947
-3.59014
-3.62448
-3.66919
-3.73151
-3.808
-3.88822
-3.96414
-4.03624
-4.09592
-3.2678
-3.27845
-3.30316
-3.34186
-3.38093
-3.41871
-3.47485
-3.54784
-3.61493
-3.66458
-3.70602
-3.75543
-3.82073
-3.90007
-3.98386
-4.06417
-4.13955
-4.20067
-3.28253
-3.29428
-3.32195
-3.3636
-3.40855
-3.45532
-3.51709
-3.59193
-3.65908
-3.71243
-3.76035
-3.81857
-3.88979
-3.97212
-4.05498
-4.13413
-4.20707
-4.26876
-3.27723
-3.29032
-3.32319
-3.36847
-3.41878
-3.47379
-3.54253
-3.61693
-3.68295
-3.73732
-3.79307
-3.85922
-3.93812
-4.02149
-4.10384
-4.17836
-4.24857
-4.30736
-3.25815
-3.27255
-3.31116
-3.3611
-3.4186
-3.48407
-3.5588
-3.63225
-3.69504
-3.75226
-3.81565
-3.89099
-3.97478
-4.05853
-4.13709
-4.20757
-4.27338
-4.33155
-3.22942
-3.24422
-3.28891
-3.34555
-3.41252
-3.48955
-3.56937
-3.64069
-3.70162
-3.76247
-3.83376
-3.91647
-4.00213
-4.08415
-4.15738
-4.22441
-4.28702
-4.34597
-3.19411
-3.20819
-3.26251
-3.32748
-3.40223
-3.48758
-3.57147
-3.64227
-3.70419
-3.77081
-3.84969
-3.93703
-4.02304
-4.1013
-4.17098
-4.23426
-4.29662
-4.35675
-3.15293
-3.16071
-3.23779
-3.31806
-3.39609
-3.48309
-3.5672
-3.63768
-3.70266
-3.77608
-3.8619
-3.95207
-4.0371
-4.11217
-4.17882
-4.24065
-4.30287
-4.36469
-3.11359
-3.07908
-3.19839
-3.31326
-3.39991
-3.48742
-3.56881
-3.63556
-3.70084
-3.77906
-3.86912
-3.96026
-4.04314
-4.11524
-4.17961
-4.24095
-4.30417
-4.36888
-3.13049
-2.97837
-3.11199
-3.26201
-3.37697
-3.48658
-3.57631
-3.64275
-3.70817
-3.78929
-3.88263
-3.97349
-4.05353
-4.12137
-4.18174
-4.24019
-4.30295
-4.37045
-3.25496
-3.081
-3.11461
-3.17807
-3.28249
-3.4183
-3.52885
-3.60595
-3.67977
-3.7709
-3.87441
-3.973
-4.05579
-4.12402
-4.18335
-4.23987
-4.30271
-4.37322
-2.96282
-3.54532
-3.66046
-3.53738
-3.50333
-3.56793
-3.63172
-3.67269
-3.72198
-3.79934
-3.89718
-3.9932
-4.07285
-4.13706
-4.19154
-4.24274
-4.30027
-4.36733
0.0256065
-1.74616
-2.75189
-3.05016
-3.22846
-3.4149
-3.54606
-3.62181
-3.69067
-3.78123
-3.88965
-3.99435
-4.08062
-4.149
-4.20593
-4.25917
-4.31675
-4.38127
-5.43253
-5.40211
-5.41868
-5.47741
-5.54457
-5.60431
-5.65062
-5.68439
-5.70948
-5.72908
-5.74679
-5.76437
-5.78133
-5.79772
-5.81399
-5.83791
-5.87382
-5.92902
-6.01214
-6.1321
-6.2924
-6.49524
-6.73776
-7.01681
-7.32531
-7.65755
-8.00567
-8.36423
-8.72627
-9.08757
-9.44311
-9.78998
-10.1246
-10.445
-10.7494
-11.0362
-11.3042
-11.5521
-11.7795
-11.9843
-12.166
-12.3221
-12.451
-12.5497
-12.6169
-12.6484
-12.6427
-12.5954
-12.5061
-12.3716
-12.1926
-11.9668
-11.6961
-11.3795
-11.0199
-10.616
-10.1723
-9.68861
-9.17042
-8.61791
-8.03704
-7.42837
-6.79874
-6.14902
-5.48577
-4.80909
-4.12629
-3.43793
-2.75064
-2.0645
-1.38567
-0.71356
-0.0535265
0.596254
1.23138
1.85345
2.45821
3.04758
3.61772
4.17161
4.70612
5.22405
5.72291
6.20606
6.67091
7.12045
7.55227
7.96849
8.36801
8.75308
9.12534
9.48433
9.82978
10.162
10.4815
10.7885
11.0838
11.3674
11.6399
11.9013
12.1521
12.3924
12.6225
12.8425
13.0525
13.2529
13.4438
13.6258
13.7993
13.9647
14.1222
14.2721
14.4141
14.5485
14.6754
14.795
14.9071
15.0118
15.1103
15.2039
15.291
15.3711
15.4443
15.5133
15.5802
15.6418
15.6979
15.7503
15.7963
15.8412
15.8897
15.9369
15.9784
16.0163
16.057
16.1034
16.1489
16.1894
16.2292
16.2711
16.3109
16.3475
16.3838
16.4187
16.4475
16.472
16.4921
16.5062
16.5201
16.5365
16.5511
16.5619
16.5673
16.5695
16.5739
16.5778
16.5787
16.5772
16.5754
16.5752
16.5754
16.5722
16.5663
16.5615
16.5586
16.5571
16.5559
16.5543
16.5526
16.5527
16.5535
16.5535
16.5554
16.5602
16.5685
16.5834
16.6096
16.653
16.7345
16.8293
-5.51395
-5.53192
-5.56574
-5.61153
-5.65925
-5.69726
-5.71979
-5.7269
-5.72194
-5.71123
-5.6988
-5.68919
-5.68678
-5.6944
-5.71232
-5.74083
-5.78287
-5.85063
-5.95469
-6.10207
-6.29351
-6.52731
-6.79771
-7.09915
-7.42404
-7.76634
-8.11914
-8.47771
-8.83675
-9.19294
-9.54256
-9.88342
-10.2128
-10.5291
-10.8306
-11.1157
-11.3831
-11.6313
-11.8593
-12.0653
-12.2478
-12.4043
-12.5333
-12.6319
-12.6982
-12.7291
-12.723
-12.6773
-12.5917
-12.4643
-12.2946
-12.0806
-11.8228
-11.52
-11.1733
-10.7828
-10.3512
-9.8794
-9.37115
-8.82791
-8.25418
-7.65243
-7.0274
-6.38116
-5.7187
-5.04311
-4.36001
-3.67132
-2.98207
-2.29397
-1.61122
-0.935193
-0.269825
0.384147
1.02436
1.65109
2.26088
2.85448
3.43007
3.98875
4.52885
5.05143
5.55567
6.04316
6.51281
6.96629
7.4029
7.82348
8.22768
8.61735
8.9938
9.35662
9.70568
10.0416
10.3649
10.6755
10.9743
11.2614
11.5371
11.8016
12.0556
12.299
12.5322
12.755
12.9681
13.1716
13.3655
13.55
13.7261
13.8933
14.0523
14.2038
14.3475
14.4833
14.612
14.7336
14.8479
14.956
15.0573
15.1516
15.2398
15.3217
15.3991
15.4713
15.537
15.5991
15.6576
15.7119
15.7656
15.8168
15.8639
15.9093
15.9532
15.9972
16.0402
16.0818
16.1241
16.1683
16.2123
16.2564
16.3008
16.343
16.3808
16.4159
16.4475
16.4721
16.4962
16.5209
16.5374
16.5451
16.5515
16.558
16.562
16.5643
16.567
16.5696
16.5699
16.5685
16.5658
16.5648
16.5635
16.5601
16.5564
16.5536
16.5519
16.5511
16.5508
16.5488
16.5467
16.5472
16.5482
16.5477
16.5494
16.554
16.5615
16.5755
16.5982
16.6362
16.7078
16.7819
-5.50663
-5.55064
-5.59431
-5.63292
-5.66622
-5.68893
-5.69767
-5.69376
-5.68138
-5.66741
-5.65744
-5.657
-5.67025
-5.70132
-5.75292
-5.82821
-5.92803
-6.05581
-6.21318
-6.40154
-6.61912
-6.8638
-7.13127
-7.41832
-7.72025
-8.03371
-8.35448
-8.67987
-9.00647
-9.33224
-9.65442
-9.97131
-10.2807
-10.5811
-10.8705
-11.1474
-11.4101
-11.6568
-11.8858
-12.0951
-12.2825
-12.4455
-12.5822
-12.6897
-12.7655
-12.8068
-12.8119
-12.7788
-12.7062
-12.5922
-12.4355
-12.2345
-11.9896
-11.6998
-11.3654
-10.9869
-10.5664
-10.105
-9.60529
-9.06967
-8.50182
-7.90471
-7.28214
-6.63721
-5.97452
-5.29818
-4.61271
-3.92147
-3.22842
-2.53654
-1.84927
-1.16902
-0.498521
0.160555
0.806197
1.43715
2.05181
2.64969
3.23006
3.793
4.33777
4.8645
5.37326
5.86453
6.33831
6.79549
7.23604
7.66018
8.06829
8.46169
8.84138
9.20722
9.55912
9.898
10.2241
10.5375
10.8389
11.1287
11.4069
11.674
11.9305
12.1766
12.4124
12.638
12.854
13.0604
13.2577
13.4456
13.6252
13.7961
13.959
14.114
14.2613
14.4005
14.5327
14.6576
14.775
14.8854
14.9893
15.0867
15.1781
15.2632
15.3432
15.4175
15.4865
15.5513
15.6127
15.6702
15.7252
15.7773
15.8256
15.8725
15.9188
15.9644
16.0085
16.0514
16.0959
16.1416
16.1868
16.2317
16.2771
16.3211
16.3615
16.3988
16.4332
16.4625
16.4892
16.5143
16.532
16.5414
16.5487
16.5559
16.5602
16.5616
16.5631
16.5647
16.5647
16.5632
16.5603
16.5586
16.5576
16.5557
16.5535
16.5514
16.5495
16.5483
16.5477
16.5457
16.5436
16.5436
16.5441
16.5434
16.545
16.549
16.5563
16.569
16.5877
16.6186
16.6724
16.7083
-5.30217
-5.38175
-5.44555
-5.48704
-5.51657
-5.53664
-5.54872
-5.55704
-5.56641
-5.58299
-5.61166
-5.65733
-5.72249
-5.8092
-5.91694
-6.04593
-6.19459
-6.36328
-6.55106
-6.75829
-6.98338
-7.22568
-7.48278
-7.75344
-8.03493
-8.32562
-8.6227
-8.92455
-9.2287
-9.53366
-9.83709
-10.1375
-10.4329
-10.7217
-11.002
-11.2722
-11.5303
-11.7745
-12.0029
-12.2134
-12.4036
-12.5711
-12.7133
-12.8277
-12.9115
-12.962
-12.9771
-12.9544
-12.8922
-12.7882
-12.6413
-12.4497
-12.2132
-11.931
-11.6032
-11.2304
-10.814
-10.3556
-9.85753
-9.32226
-8.7532
-8.15357
-7.52729
-6.87797
-6.21008
-5.52787
-4.83581
-4.13772
-3.43757
-2.73873
-2.04455
-1.35767
-0.680611
-0.0154498
0.635915
1.27196
1.89153
2.49384
3.07834
3.64488
4.19313
4.72309
5.23495
5.72901
6.20558
6.66517
7.10811
7.53463
7.94516
8.34094
8.7227
9.09043
9.4443
9.78494
10.1128
10.4281
10.7313
11.0228
11.303
11.5721
11.8306
12.0787
12.3165
12.5445
12.7627
12.9715
13.1711
13.3618
13.544
13.7177
13.8833
14.0409
14.1906
14.3325
14.4671
14.5943
14.7141
14.8268
14.9331
15.033
15.1267
15.2143
15.2963
15.3728
15.4442
15.5112
15.5743
15.6336
15.6895
15.7425
15.7924
15.8405
15.8878
15.9342
15.9795
16.0239
16.0688
16.114
16.1589
16.2037
16.2487
16.2931
16.3353
16.3749
16.4117
16.4446
16.474
16.5
16.5196
16.5322
16.5412
16.5487
16.5535
16.5556
16.557
16.5583
16.5582
16.5568
16.5547
16.5533
16.5524
16.551
16.5494
16.5478
16.546
16.5448
16.5438
16.5421
16.5403
16.5396
16.5395
16.5391
16.54
16.5431
16.5492
16.5593
16.5739
16.5958
16.6305
16.6393
-4.95108
-5.06978
-5.16398
-5.22291
-5.26647
-5.30501
-5.3445
-5.3905
-5.44666
-5.5165
-5.60165
-5.70396
-5.8231
-5.95926
-6.11058
-6.27672
-6.45604
-6.64892
-6.85418
-7.0723
-7.302
-7.54337
-7.79484
-8.05617
-8.32561
-8.60254
-8.88509
-9.17236
-9.46248
-9.75434
-10.0461
-10.3364
-10.6234
-10.9056
-11.1811
-11.4483
-11.7051
-11.9497
-12.1799
-12.3934
-12.5881
-12.7611
-12.9101
-13.0321
-13.1244
-13.184
-13.2087
-13.1955
-13.1423
-13.0467
-12.9072
-12.7221
-12.4907
-12.2121
-11.8864
-11.514
-11.0963
-10.6348
-10.132
-9.59042
-9.01362
-8.40498
-7.76873
-7.10892
-6.43025
-5.73706
-5.03395
-4.32501
-3.61441
-2.90568
-2.20223
-1.50683
-0.822011
-0.149919
0.507554
1.14899
1.7733
2.37972
2.96778
3.53728
4.08811
4.6203
5.1341
5.62984
6.10793
6.56882
7.01296
7.44068
7.85249
8.2494
8.63236
9.00116
9.35613
9.69787
10.0269
10.3435
10.6481
10.9411
11.2228
11.4936
11.7538
12.0036
12.2431
12.4728
12.6927
12.9033
13.1047
13.2974
13.4813
13.6571
13.8244
13.9838
14.1353
14.2791
14.4153
14.5443
14.6659
14.7807
14.8888
14.9907
15.0862
15.1758
15.2595
15.3379
15.4111
15.48
15.5446
15.6054
15.6625
15.7166
15.7678
15.8171
15.8651
15.9122
15.9579
16.0027
16.0471
16.0914
16.1352
16.1788
16.2225
16.2659
16.3084
16.3491
16.3877
16.4232
16.4546
16.4818
16.5034
16.5187
16.5296
16.538
16.5439
16.5471
16.5489
16.5503
16.5507
16.5499
16.5486
16.5477
16.547
16.546
16.5448
16.5434
16.5419
16.5407
16.5394
16.538
16.5364
16.5352
16.5345
16.534
16.5342
16.5362
16.5406
16.5474
16.5574
16.5701
16.5879
16.5783
-4.60943
-4.75897
-4.88387
-4.96974
-5.04123
-5.11182
-5.18993
-5.28133
-5.38756
-5.50906
-5.64432
-5.79304
-5.95343
-6.12525
-6.30666
-6.49774
-6.69708
-6.90535
-7.12155
-7.3465
-7.5792
-7.82031
-8.06876
-8.32489
-8.58759
-8.85678
-9.13115
-9.41027
-9.69271
-9.97763
-10.2635
-10.5491
-10.8329
-11.1132
-11.3884
-11.6567
-11.916
-12.1643
-12.3995
-12.6191
-12.8208
-13.0019
-13.1595
-13.2908
-13.3929
-13.4626
-13.4972
-13.4935
-13.4492
-13.3615
-13.2287
-13.0487
-12.8206
-12.5433
-12.2169
-11.8415
-11.4187
-10.9498
-10.4376
-9.88474
-9.29503
-8.67223
-8.02092
-7.34549
-6.65108
-5.94229
-5.22394
-4.50042
-3.77611
-3.05469
-2.33968
-1.63394
-0.940056
-0.260125
0.404044
1.05114
1.68014
2.29037
2.88152
3.45341
4.00607
4.53966
5.05453
5.55105
6.0297
6.49099
6.93549
7.36357
7.77568
8.17318
8.55663
8.92601
9.28157
9.62407
9.95397
10.2717
10.5774
10.8716
11.1546
11.4268
11.6884
11.9395
12.1805
12.4116
12.6331
12.8452
13.0483
13.2425
13.428
13.6052
13.7742
13.935
14.088
14.2333
14.371
14.5014
14.6246
14.741
14.8509
14.9543
15.0515
15.1426
15.228
15.308
15.383
15.4535
15.5198
15.5821
15.6408
15.6963
15.7491
15.7996
15.8486
15.8962
15.9423
15.9871
16.031
16.0744
16.1169
16.159
16.2009
16.2427
16.2842
16.3248
16.364
16.4006
16.4334
16.4619
16.4851
16.5026
16.5154
16.5251
16.5322
16.5366
16.5393
16.5413
16.5423
16.5423
16.5419
16.5414
16.5411
16.5405
16.5396
16.5385
16.5373
16.536
16.5348
16.5333
16.5318
16.5303
16.5292
16.5282
16.5278
16.5285
16.5306
16.5341
16.5388
16.5428
16.5466
16.5228
-4.38812
-4.55485
-4.70098
-4.81294
-4.91357
-5.01605
-5.12866
-5.2564
-5.39963
-5.55757
-5.72715
-5.90698
-6.09454
-6.28954
-6.49026
-6.69722
-6.90926
-7.1274
-7.35074
-7.58049
-7.81593
-8.05804
-8.306
-8.56055
-8.82086
-9.08718
-9.35851
-9.63469
-9.91458
-10.1975
-10.4822
-10.7676
-11.0522
-11.3345
-11.6128
-11.8854
-12.1502
-12.4052
-12.6481
-12.8763
-13.0875
-13.2788
-13.4473
-13.5898
-13.7034
-13.7845
-13.8303
-13.8371
-13.8024
-13.723
-13.5969
-13.4218
-13.1963
-12.9193
-12.5905
-12.2102
-11.7796
-11.3004
-10.7753
-10.2074
-9.60073
-8.95955
-8.28884
-7.59354
-6.87918
-6.15076
-5.41353
-4.67218
-3.9313
-3.19477
-2.46622
-1.74859
-1.04447
-0.35588
0.315454
0.968362
1.60198
2.21579
2.80959
3.38334
3.93722
4.47156
4.98682
5.48347
5.96208
6.4232
6.8675
7.29542
7.70761
8.10517
8.48888
8.8586
9.21458
9.55764
9.88816
10.2066
10.5131
10.8082
11.0923
11.3654
11.6282
11.8804
12.1227
12.355
12.5779
12.7914
12.996
13.1915
13.3787
13.5572
13.7276
13.8898
14.0443
14.1908
14.33
14.4617
14.5865
14.7043
14.8157
14.9204
15.0191
15.1116
15.1985
15.2801
15.3568
15.4289
15.4969
15.5608
15.6212
15.6784
15.7328
15.7848
15.8349
15.8832
15.9299
15.9749
16.0187
16.0614
16.103
16.1437
16.184
16.224
16.2638
16.3034
16.342
16.3786
16.412
16.4413
16.4657
16.4849
16.4996
16.5108
16.5191
16.5248
16.5286
16.5315
16.5334
16.5342
16.5346
16.5347
16.5348
16.5346
16.5341
16.5333
16.5323
16.5312
16.5299
16.5284
16.5267
16.525
16.5232
16.5217
16.5205
16.5196
16.5193
16.5193
16.5188
16.5149
16.5069
16.4717
-4.32686
-4.49107
-4.64379
-4.77019
-4.89127
-5.01697
-5.15286
-5.30303
-5.46748
-5.64529
-5.83314
-6.02945
-6.23148
-6.43906
-6.65045
-6.86644
-7.08597
-7.3103
-7.53865
-7.77239
-8.0108
-8.25516
-8.50479
-8.76055
-9.02175
-9.28889
-9.56105
-9.83826
-10.1196
-10.4044
-10.6917
-10.9804
-11.2692
-11.5568
-11.8413
-12.1212
-12.3944
-12.6587
-12.9118
-13.1512
-13.3743
-13.5781
-13.7597
-13.9156
-14.0427
-14.1372
-14.1959
-14.2149
-14.1912
-14.1213
-14.0028
-13.8331
-13.6106
-13.3335
-13.0018
-12.6152
-12.1752
-11.6833
-11.1427
-10.5567
-9.92975
-9.2666
-8.57284
-7.85395
-7.11599
-6.36451
-5.60527
-4.84334
-4.08353
-3.32993
-2.5863
-1.85561
-1.14043
-0.442704
0.236038
0.894792
1.53286
2.14992
2.74597
3.32117
3.87586
4.41052
4.92576
5.42219
5.90047
6.36121
6.80519
7.23291
7.64494
8.04252
8.42624
8.79596
9.15209
9.49537
9.82625
10.1451
10.4521
10.7479
11.0327
11.3068
11.5703
11.8237
12.0669
12.3005
12.5245
12.7394
12.9453
13.1423
13.3307
13.5107
13.6824
13.846
14.0017
14.1497
14.2902
14.4233
14.5494
14.6687
14.7814
14.8875
14.9874
15.0814
15.1698
15.2529
15.3311
15.4048
15.4744
15.5399
15.602
15.6609
15.717
15.7705
15.8219
15.8712
15.9186
15.9642
16.0081
16.0507
16.0919
16.1317
16.1707
16.2091
16.2472
16.285
16.3223
16.3581
16.3913
16.4208
16.4459
16.4664
16.4826
16.4952
16.5048
16.5119
16.517
16.521
16.5238
16.5256
16.5268
16.5276
16.5281
16.5285
16.5284
16.5279
16.5272
16.5262
16.5249
16.5234
16.5216
16.5195
16.5171
16.5149
16.5125
16.5099
16.5071
16.5035
16.498
16.4872
16.4694
16.4253
-4.40299
-4.55041
-4.69229
-4.8202
-4.94859
-5.08492
-5.23216
-5.39263
-5.56569
-5.75075
-5.94477
-6.14663
-6.35364
-6.56583
-6.78146
-7.00146
-7.22467
-7.45256
-7.68419
-7.9211
-8.16258
-8.40993
-8.66245
-8.9212
-9.18543
-9.45577
-9.73141
-10.0125
-10.2981
-10.5879
-10.8808
-11.1759
-11.4719
-11.7676
-12.0611
-12.3509
-12.635
-12.9111
-13.1769
-13.4299
-13.6672
-13.886
-14.0829
-14.2545
-14.3974
-14.5075
-14.5813
-14.6145
-14.6038
-14.5452
-14.436
-14.273
-14.0543
-13.7778
-13.4431
-13.0498
-12.5993
-12.0932
-11.535
-10.9282
-10.2782
-9.58997
-8.86996
-8.1243
-7.35969
-6.58235
-5.79861
-5.0139
-4.23338
-3.46134
-2.70161
-1.95718
-1.23054
-0.523471
0.16269
0.827149
1.46945
2.08951
2.68755
3.26398
3.81929
4.35413
4.86927
5.36546
5.84336
6.30364
6.7471
7.17432
7.58594
7.98305
8.36649
8.73597
9.09195
9.43516
9.76611
10.0852
10.3926
10.6888
10.9742
11.2491
11.5133
11.7676
12.0118
12.2465
12.4717
12.6878
12.8949
13.0933
13.283
13.4644
13.6373
13.8024
13.9594
14.1088
14.2505
14.3851
14.5126
14.6333
14.7472
14.8547
14.9559
15.0514
15.1411
15.2258
15.3053
15.3807
15.4517
15.519
15.5826
15.6433
15.701
15.756
15.8087
15.8591
15.9074
15.9537
15.9982
16.041
16.082
16.1214
16.1596
16.1969
16.2334
16.2695
16.3051
16.3395
16.3717
16.4008
16.4262
16.4475
16.4648
16.4786
16.4896
16.498
16.5045
16.5096
16.5135
16.5163
16.5184
16.5199
16.5211
16.522
16.5224
16.5223
16.5218
16.521
16.5198
16.5183
16.5163
16.5139
16.5109
16.5078
16.5041
16.4996
16.4942
16.487
16.4768
16.4599
16.4339
16.3828
-4.55169
-4.68445
-4.80882
-4.9284
-5.05377
-5.18947
-5.33649
-5.49655
-5.66857
-5.85208
-6.04435
-6.24466
-6.45049
-6.66206
-6.87761
-7.09813
-7.32237
-7.5518
-7.78544
-8.02486
-8.26915
-8.51976
-8.77589
-9.0386
-9.30716
-9.58236
-9.86335
-10.1503
-10.4425
-10.7395
-11.0402
-11.344
-11.6495
-11.9555
-12.2603
-12.5623
-12.8594
-13.1495
-13.4302
-13.6988
-13.9526
-14.1884
-14.403
-14.5926
-14.7535
-14.8816
-14.9729
-15.0227
-15.0273
-14.9823
-14.8844
-14.73
-14.5167
-14.2418
-13.9047
-13.5047
-13.0432
-12.5219
-11.9444
-11.315
-10.6394
-9.92363
-9.17477
-8.3998
-7.60622
-6.80095
-5.9909
-5.18195
-4.37957
-3.58827
-2.81192
-2.05346
-1.31521
-0.598738
0.0947839
0.764834
1.41126
2.03426
2.63427
3.21189
3.76777
4.30267
4.81746
5.31299
5.79007
6.24943
6.69193
7.11823
7.52896
7.92541
8.30814
8.67712
9.03269
9.37567
9.70654
10.0256
10.3333
10.6299
10.9158
11.1911
11.4562
11.7112
11.9565
12.1921
12.4185
12.6357
12.8441
13.0438
13.2348
13.4175
13.5919
13.7582
13.9166
14.0673
14.2105
14.3465
14.4754
14.5974
14.7128
14.8215
14.9242
15.0209
15.1122
15.1983
15.2794
15.3562
15.4289
15.4977
15.5631
15.6254
15.6846
15.7411
15.795
15.8466
15.8958
15.943
15.9881
16.0313
16.0725
16.1119
16.1497
16.1863
16.2216
16.2561
16.2898
16.3226
16.3534
16.3816
16.4066
16.4282
16.4464
16.4613
16.4735
16.4833
16.4911
16.4975
16.5025
16.5064
16.5095
16.5118
16.5137
16.5151
16.516
16.5163
16.5162
16.5156
16.5145
16.513
16.5109
16.5081
16.5046
16.5006
16.4956
16.4892
16.4812
16.4706
16.456
16.4336
16.4007
16.3439
-4.72486
-4.84043
-4.94578
-5.05186
-5.16727
-5.2952
-5.4352
-5.58805
-5.75277
-5.92933
-6.11513
-6.3098
-6.51091
-6.71885
-6.93175
-7.15073
-7.37435
-7.60412
-7.83888
-8.08025
-8.32729
-8.58134
-8.84148
-9.10896
-9.38286
-9.66394
-9.95143
-10.2457
-10.5458
-10.8515
-11.1617
-11.4759
-11.7925
-12.1105
-12.4283
-12.7441
-13.056
-13.3618
-13.659
-13.9451
-14.2172
-14.472
-14.7061
-14.9157
-15.0969
-15.2453
-15.3564
-15.4253
-15.4477
-15.4186
-15.3343
-15.1905
-14.9843
-14.7125
-14.3739
-13.9677
-13.4951
-12.9579
-12.3602
-11.7067
-11.0039
-10.2588
-9.47924
-8.67328
-7.84926
-7.0148
-6.17741
-5.34344
-4.51868
-3.70776
-2.91459
-2.142
-1.39215
-0.666337
0.0345615
0.710208
1.36064
1.98626
2.58776
3.16598
3.72174
4.256
4.76977
5.26403
5.73972
6.19768
6.63877
7.06372
7.47328
7.86862
8.25043
8.61862
8.97358
9.31615
9.64678
9.96581
10.2736
10.5704
10.8568
11.1326
11.3983
11.654
11.9003
12.1369
12.3645
12.5828
12.7925
12.9933
13.1857
13.3696
13.5455
13.7131
13.8729
14.025
14.1697
14.307
14.4374
14.5608
14.6776
14.7877
14.8918
14.9899
15.0828
15.1703
15.2531
15.3314
15.4057
15.4761
15.5433
15.607
15.6678
15.7256
15.7809
15.8335
15.8838
15.9318
15.9777
16.0214
16.063
16.1025
16.1402
16.1763
16.2108
16.244
16.2761
16.3069
16.336
16.363
16.3873
16.4088
16.4275
16.4433
16.4567
16.4677
16.4769
16.4845
16.4907
16.4959
16.4999
16.5032
16.5058
16.5078
16.5093
16.5101
16.5103
16.5099
16.509
16.5075
16.5053
16.5022
16.4981
16.4931
16.4869
16.4787
16.4682
16.4544
16.4357
16.4083
16.3697
16.3084
-4.88056
-4.9759
-5.06132
-5.15168
-5.25405
-5.37048
-5.49988
-5.64285
-5.79797
-5.96542
-6.14289
-6.33024
-6.52512
-6.72814
-6.93729
-7.15378
-7.37606
-7.60558
-7.84111
-8.08424
-8.3338
-8.59136
-8.85587
-9.1285
-9.40837
-9.69625
-9.99115
-10.2935
-10.6025
-10.9179
-11.2386
-11.5641
-11.893
-12.2241
-12.5559
-12.8867
-13.2145
-13.5372
-13.8523
-14.1571
-14.4488
-14.724
-14.9792
-15.2104
-15.4136
-15.584
-15.7169
-15.8069
-15.849
-15.8379
-15.7691
-15.6377
-15.4402
-15.1727
-14.8337
-14.422
-13.9385
-13.3855
-12.7672
-12.089
-11.3584
-10.5831
-9.77225
-8.93468
-8.07972
-7.21574
-6.35086
-5.49187
-4.64478
-3.81428
-3.00434
-2.21778
-1.45667
-0.722108
-0.0146759
0.665543
1.31894
1.94619
2.5482
3.12604
3.68081
4.21364
4.72568
5.21806
5.69182
6.14783
6.58712
7.01032
7.41832
7.81233
8.19297
8.56015
8.91434
9.25634
9.58657
9.90545
10.2132
10.5103
10.7968
11.0732
11.3394
11.596
11.843
12.0807
12.3093
12.5289
12.7397
12.9419
13.1355
13.3208
13.498
13.667
13.8282
13.9817
14.1278
14.2667
14.3985
14.5233
14.6414
14.7531
14.8586
14.9583
15.0526
15.1418
15.2262
15.3062
15.3822
15.4543
15.523
15.5883
15.6506
15.7099
15.7663
15.8201
15.8714
15.9202
15.9668
16.0111
16.0532
16.093
16.1307
16.1666
16.2004
16.2325
16.2631
16.292
16.3192
16.3447
16.3681
16.3893
16.4082
16.4247
16.4391
16.4514
16.4619
16.4709
16.4783
16.4846
16.4897
16.494
16.4974
16.5001
16.5021
16.5034
16.504
16.5039
16.5031
16.5017
16.4993
16.496
16.4913
16.4855
16.4781
16.4683
16.4555
16.4386
16.4161
16.3844
16.341
16.276
-4.98403
-5.06012
-5.12621
-5.20067
-5.28934
-5.39353
-5.51165
-5.64408
-5.78933
-5.94765
-6.11678
-6.29688
-6.48558
-6.68375
-6.88932
-7.10345
-7.3245
-7.55394
-7.7903
-8.03526
-8.28763
-8.5489
-8.81793
-9.09601
-9.38213
-9.67719
-9.98011
-10.2913
-10.6098
-10.9355
-11.2673
-11.6047
-11.9463
-12.2911
-12.6374
-12.9837
-13.3279
-13.668
-14.0013
-14.3254
-14.6371
-14.9332
-15.21
-15.4635
-15.6894
-15.8826
-16.038
-16.15
-16.213
-16.221
-16.1688
-16.051
-15.8634
-15.6015
-15.2632
-14.8469
-14.3536
-13.7855
-13.1474
-12.4453
-11.6875
-10.8828
-10.0413
-9.17279
-8.28744
-7.39435
-6.50235
-5.6188
-4.75012
-3.90111
-3.07577
-2.27673
-1.50592
-0.764155
-0.0517882
0.631521
1.28646
1.91401
2.51534
3.09174
3.64453
4.1751
4.68472
5.1746
5.64584
6.09953
6.53652
6.95775
7.36391
7.75627
8.13551
8.50149
8.85474
9.19608
9.52585
9.84448
10.1521
10.4493
10.7361
11.0129
11.2797
11.5371
11.7849
12.0236
12.2532
12.474
12.6859
12.8894
13.0843
13.271
13.4494
13.62
13.7825
13.9376
14.0851
14.2255
14.3586
14.4849
14.6044
14.7176
14.8246
14.926
15.0219
15.1128
15.1989
15.2807
15.3583
15.4322
15.5024
15.5694
15.633
15.6936
15.7513
15.8062
15.8585
15.9083
15.9556
16.0005
16.043
16.0831
16.121
16.1566
16.1899
16.2211
16.2502
16.2773
16.3027
16.3266
16.3489
16.3696
16.3886
16.4057
16.4211
16.4346
16.4463
16.4566
16.4653
16.4728
16.4791
16.4842
16.4885
16.4919
16.4946
16.4964
16.4974
16.4976
16.497
16.4956
16.4931
16.4895
16.4844
16.4777
16.4691
16.4578
16.4428
16.4232
16.3972
16.3617
16.3142
16.246
-5.01569
-5.07487
-5.12344
-5.18342
-5.25977
-5.35263
-5.46009
-5.58275
-5.71893
-5.86888
-6.03044
-6.20406
-6.38738
-6.58128
-6.78376
-6.99598
-7.21628
-7.44613
-7.68396
-7.93135
-8.18692
-8.45232
-8.7264
-9.01026
-9.30291
-9.60538
-9.91653
-10.2368
-10.5652
-10.9016
-11.2448
-11.5944
-11.9489
-12.3074
-12.6681
-13.0297
-13.39
-13.7472
-14.0984
-14.4413
-14.7726
-15.0892
-15.3872
-15.6626
-15.9107
-16.1265
-16.3046
-16.4387
-16.5231
-16.551
-16.5167
-16.4139
-16.2377
-15.9831
-15.6472
-15.2281
-14.7266
-14.1449
-13.4883
-12.7635
-11.9795
-11.1462
-10.2748
-9.3761
-8.46129
-7.54036
-6.62285
-5.71664
-4.82843
-3.96321
-3.12483
-2.31581
-1.53774
-0.79115
-0.076024
0.608424
1.26306
1.88937
2.48857
3.06245
3.61226
4.13979
4.64621
5.13303
5.60136
6.05225
6.48662
6.90572
7.30957
7.70026
8.07789
8.44259
8.7948
9.13533
9.46462
9.78285
10.0905
10.3876
10.6747
10.9518
11.2193
11.4772
11.726
11.9656
12.1962
12.4181
12.6313
12.836
13.0322
13.2202
13.4
13.5719
13.7359
13.8924
14.0415
14.1833
14.318
14.4457
14.5667
14.6814
14.7901
14.8931
14.9907
15.0834
15.1712
15.2547
15.3342
15.4097
15.4816
15.55
15.6151
15.677
15.7359
15.7919
15.8453
15.8959
15.9439
15.9894
16.0324
16.0728
16.1108
16.1462
16.1789
16.2091
16.2367
16.2621
16.2857
16.3081
16.3294
16.3496
16.3686
16.3863
16.4025
16.4171
16.4302
16.4417
16.4518
16.4605
16.4679
16.474
16.4791
16.4833
16.4867
16.489
16.4905
16.491
16.4906
16.4892
16.4868
16.4829
16.4773
16.4699
16.4602
16.4474
16.4304
16.4083
16.3792
16.3404
16.2895
16.2185
-4.97288
-5.01396
-5.04642
-5.09465
-5.16062
-5.24325
-5.34095
-5.45446
-5.58238
-5.72518
-5.88034
-6.04844
-6.22732
-6.41804
-6.61841
-6.82964
-7.04999
-7.28097
-7.52093
-7.77149
-8.03115
-8.3014
-8.58106
-8.87143
-9.17107
-9.4811
-9.80046
-10.1296
-10.4674
-10.8141
-11.1683
-11.5296
-11.8966
-12.2685
-12.6434
-13.0201
-13.3964
-13.7704
-14.1393
-14.5007
-14.8514
-15.1883
-15.5073
-15.8044
-16.0749
-16.3135
-16.5145
-16.6716
-16.778
-16.8265
-16.8106
-16.7236
-16.5594
-16.3125
-15.9793
-15.5576
-15.0477
-14.4524
-13.7772
-13.0296
-12.2196
-11.3584
-10.458
-9.53061
-8.58834
-7.64238
-6.70266
-5.77754
-4.87362
-3.99618
-3.14859
-2.33331
-1.55131
-0.803083
-0.0877241
0.595278
1.24771
1.87096
2.46673
3.03676
3.58278
4.1064
4.60909
5.09239
5.55739
6.00492
6.43713
6.853
7.25535
7.64382
8.01986
8.38318
8.73431
9.07397
9.40266
9.72051
10.028
10.3251
10.6124
10.8898
11.1579
11.4165
11.6662
11.9066
12.1383
12.3612
12.5757
12.7815
12.9792
13.1684
13.3497
13.5229
13.6885
13.8464
13.997
14.1402
14.2764
14.4055
14.5283
14.6445
14.755
14.8596
14.9591
15.0534
15.1432
15.2284
15.3097
15.3868
15.4603
15.5302
15.5967
15.6599
15.72
15.7772
15.8316
15.8831
15.9318
15.9778
16.0212
16.0619
16.0998
16.1348
16.1669
16.1959
16.2221
16.2459
16.268
16.289
16.3094
16.3292
16.3484
16.3666
16.3836
16.3994
16.4137
16.4265
16.4378
16.4477
16.4563
16.4635
16.4695
16.4745
16.4785
16.4814
16.4833
16.4842
16.484
16.4828
16.4802
16.4762
16.4702
16.4621
16.4513
16.4371
16.4184
16.394
16.3622
16.3204
16.2665
16.193
-4.86139
-4.8805
-4.89935
-4.93821
-4.99506
-5.0681
-5.15631
-5.26157
-5.38188
-5.51807
-5.66766
-5.8316
-6.00717
-6.19594
-6.39549
-6.60728
-6.82893
-7.06242
-7.30545
-7.56013
-7.82426
-8.09993
-8.3853
-8.68228
-8.98886
-9.30686
-9.63466
-9.97306
-10.3205
-10.6776
-11.0427
-11.4157
-11.795
-12.18
-12.5685
-12.9596
-13.351
-13.7409
-14.1264
-14.5055
-14.8746
-15.2308
-15.5701
-15.8882
-16.1802
-16.441
-16.6644
-16.8435
-16.9713
-17.0398
-17.0417
-16.9694
-16.8164
-16.5762
-16.2446
-15.8188
-15.2996
-14.6896
-13.9955
-13.2251
-12.3901
-11.5022
-10.5753
-9.6222
-8.65674
-7.69022
-6.73381
-5.79513
-4.88133
-3.99679
-3.14538
-2.32836
-1.5471
-0.800555
-0.0886505
0.590284
1.23853
1.8564
2.44766
3.01224
3.55395
4.07243
4.57135
5.05015
5.51164
5.95631
6.38487
6.79909
7.19854
7.58537
7.95963
8.32144
8.67144
9.01031
9.33835
9.6559
9.96311
10.2604
10.5477
10.8257
11.0942
11.3536
11.604
11.8455
12.0782
12.3023
12.5178
12.725
12.9239
13.1146
13.2972
13.472
13.639
13.7986
13.9508
14.0955
14.2332
14.364
14.4883
14.6064
14.7186
14.8251
14.9264
15.0227
15.1143
15.2014
15.2843
15.3632
15.4382
15.5096
15.5775
15.6421
15.7034
15.7617
15.8171
15.8694
15.9188
15.9654
16.0091
16.0498
16.0874
16.1219
16.1531
16.1809
16.2057
16.2281
16.2488
16.2689
16.2886
16.3082
16.3276
16.3465
16.3643
16.3812
16.3968
16.4109
16.4235
16.4346
16.4443
16.4526
16.4595
16.4653
16.4701
16.4736
16.4759
16.4772
16.4773
16.4762
16.4736
16.4694
16.463
16.4543
16.4426
16.4271
16.4068
16.3804
16.3462
16.3019
16.2455
16.1698
-4.69273
-4.68961
-4.6978
-4.72913
-4.77676
-4.83955
-4.91833
-5.01547
-5.12928
-5.26008
-5.40532
-5.5662
-5.74032
-5.92857
-6.1287
-6.34205
-6.56622
-6.80296
-7.05011
-7.30955
-7.57947
-7.8614
-8.15352
-8.45775
-8.77219
-9.09809
-9.4341
-9.78102
-10.1373
-10.5037
-10.8784
-11.2615
-11.6512
-12.0472
-12.4475
-12.8508
-13.2551
-13.6588
-14.0589
-14.4533
-14.8388
-15.2122
-15.5695
-15.9064
-16.218
-16.4988
-16.7423
-16.9413
-17.0882
-17.1745
-17.192
-17.1323
-16.9883
-16.7524
-16.4202
-15.9885
-15.4583
-14.8326
-14.1191
-13.3265