/*--------------------------------*- C++ -*----------------------------------*\
  =========                 |
  \\      /  F ield         | OpenFOAM: The Open Source CFD Toolbox
   \\    /   O peration     | Website:  https://openfoam.org
    \\  /    A nd           | Version:  8
     \\/     M anipulation  |
\*---------------------------------------------------------------------------*/
FoamFile
{
    version     2.0;
    format      ascii;
    class       surfaceScalarField;
    location    "40";
    object      phi;
}
// * * * * * * * * * * * * * * * * * * * * * * * * * * * * * * * * * * * * * //

dimensions      [0 3 -1 0 0 0 0];

internalField   nonuniform List<scalar> 
24170
(
3.12884e-06
5.95632e-08
3.04599e-06
8.28497e-08
2.97214e-06
7.38482e-08
2.90254e-06
6.9593e-08
2.83678e-06
6.5759e-08
2.77768e-06
5.91e-08
2.72641e-06
5.12687e-08
2.68213e-06
4.42785e-08
2.64352e-06
3.86119e-08
2.60951e-06
3.40031e-08
2.57907e-06
3.04429e-08
2.55114e-06
2.79252e-08
2.52471e-06
2.64332e-08
2.49854e-06
2.6166e-08
2.4712e-06
2.73268e-08
2.43947e-06
3.17139e-08
2.39897e-06
4.0456e-08
6.71864e-08
2.33175e-06
3.45295e-06
2.38575e-08
3.45677e-06
7.90224e-08
3.45001e-06
8.0606e-08
3.43797e-06
8.16232e-08
3.42243e-06
8.1302e-08
3.40426e-06
7.72638e-08
3.38384e-06
7.16792e-08
3.36171e-06
6.64032e-08
3.33857e-06
6.17514e-08
3.315e-06
5.7574e-08
3.29147e-06
5.39692e-08
3.26813e-06
5.1254e-08
3.245e-06
4.95542e-08
3.22189e-06
4.92698e-08
3.1987e-06
5.04985e-08
3.17488e-06
5.54967e-08
3.15166e-06
6.36357e-08
8.6444e-08
3.13237e-06
3.66812e-06
1.82572e-08
3.67888e-06
6.82617e-08
3.68463e-06
7.48565e-08
3.68799e-06
7.82586e-08
3.68875e-06
8.05521e-08
3.68678e-06
7.9226e-08
3.6824e-06
7.60625e-08
3.67599e-06
7.28154e-08
3.6679e-06
6.98481e-08
3.65841e-06
6.70593e-08
3.64777e-06
6.46141e-08
3.6361e-06
6.29234e-08
3.62342e-06
6.22326e-08
3.60968e-06
6.30093e-08
3.5947e-06
6.54759e-08
3.57877e-06
7.14208e-08
3.5619e-06
8.04925e-08
9.918e-08
3.54917e-06
3.92579e-06
1.78571e-08
3.93548e-06
5.85607e-08
3.94161e-06
6.87266e-08
3.94641e-06
7.34551e-08
3.94994e-06
7.70261e-08
3.95177e-06
7.73851e-08
3.95205e-06
7.57852e-08
3.95099e-06
7.38657e-08
3.94877e-06
7.2067e-08
3.94547e-06
7.0355e-08
3.94116e-06
6.8921e-08
3.93588e-06
6.81998e-08
3.9296e-06
6.85045e-08
3.9223e-06
7.02937e-08
3.91389e-06
7.38812e-08
3.90488e-06
8.04085e-08
3.89509e-06
9.02647e-08
1.06308e-07
3.88795e-06
4.20806e-06
1.69249e-08
4.21549e-06
5.11302e-08
4.22064e-06
6.3578e-08
4.22495e-06
6.91448e-08
4.22874e-06
7.32385e-08
4.23149e-06
7.46417e-08
4.23313e-06
7.41508e-08
4.23381e-06
7.31894e-08
4.23362e-06
7.22614e-08
4.23256e-06
7.14095e-08
4.23065e-06
7.08326e-08
4.22791e-06
7.09453e-08
4.22433e-06
7.20867e-08
4.21996e-06
7.46702e-08
4.21482e-06
7.90163e-08
4.20937e-06
8.58525e-08
4.20401e-06
9.56235e-08
1.08757e-07
4.20158e-06
4.51055e-06
1.54646e-08
4.51637e-06
4.53046e-08
4.52101e-06
5.8937e-08
4.52499e-06
6.51646e-08
4.52867e-06
6.95561e-08
4.53161e-06
7.17012e-08
4.53366e-06
7.20922e-08
4.53494e-06
7.19056e-08
4.53552e-06
7.16872e-08
4.53536e-06
7.15637e-08
4.53445e-06
7.17363e-08
4.53281e-06
7.25798e-08
4.53047e-06
7.44219e-08
4.52752e-06
7.76132e-08
4.52411e-06
8.24248e-08
4.52067e-06
8.92843e-08
4.51794e-06
9.83434e-08
1.09212e-07
4.51748e-06
4.83418e-06
1.40058e-08
4.83909e-06
4.04001e-08
4.84355e-06
5.44791e-08
4.84739e-06
6.13259e-08
4.85093e-06
6.60228e-08
4.85387e-06
6.87616e-08
4.85607e-06
6.98983e-08
4.85759e-06
7.0387e-08
4.85849e-06
7.07893e-08
4.85875e-06
7.13042e-08
4.85836e-06
7.21368e-08
4.85732e-06
7.36146e-08
4.85572e-06
7.60328e-08
4.85366e-06
7.96666e-08
4.85138e-06
8.4711e-08
4.8493e-06
9.13635e-08
4.84806e-06
9.95857e-08
1.08877e-07
4.84842e-06
5.1809e-06
1.26871e-08
5.18518e-06
3.61186e-08
5.1895e-06
5.01575e-08
5.19327e-06
5.75506e-08
5.19671e-06
6.25897e-08
5.19964e-06
6.58298e-08
5.20193e-06
6.76105e-08
5.20359e-06
6.87171e-08
5.20469e-06
6.9693e-08
5.20521e-06
7.0779e-08
5.20516e-06
7.21888e-08
5.20457e-06
7.42034e-08
5.20352e-06
7.70783e-08
5.20218e-06
8.10078e-08
5.20077e-06
8.61113e-08
5.1997e-06
9.24374e-08
5.19943e-06
9.98615e-08
1.07862e-07
5.20045e-06
5.55254e-06
1.14886e-08
5.5563e-06
3.23576e-08
5.56042e-06
4.6042e-08
5.56413e-06
5.38469e-08
5.5675e-06
5.92216e-08
5.57045e-06
6.28876e-08
5.57284e-06
6.52225e-08
5.57466e-06
6.69078e-08
5.57592e-06
6.84285e-08
5.57667e-06
7.00329e-08
5.57693e-06
7.19362e-08
5.57674e-06
7.43907e-08
5.57622e-06
7.76058e-08
5.57552e-06
8.17073e-08
5.57489e-06
8.67446e-08
5.57465e-06
9.26777e-08
5.57518e-06
9.9337e-08
1.06271e-07
5.5768e-06
5.95088e-06
1.03862e-08
5.9542e-06
2.90323e-08
5.95809e-06
4.21522e-08
5.96172e-06
5.02192e-08
5.96506e-06
5.58807e-08
5.96805e-06
5.98953e-08
5.97057e-06
6.27001e-08
5.97256e-06
6.49225e-08
5.97402e-06
6.69595e-08
5.97503e-06
6.90285e-08
5.97561e-06
7.13451e-08
5.97586e-06
7.41425e-08
5.97587e-06
7.75912e-08
5.97581e-06
8.17598e-08
5.97591e-06
8.66426e-08
5.97644e-06
9.21488e-08
5.97769e-06
9.81029e-08
1.04097e-07
5.97987e-06
6.37783e-06
9.37166e-09
6.38077e-06
2.60944e-08
6.38443e-06
3.84948e-08
6.38797e-06
4.66807e-08
6.39131e-06
5.25536e-08
6.39436e-06
5.68398e-08
6.39703e-06
6.00404e-08
6.39921e-06
6.27369e-08
6.40093e-06
6.52405e-08
6.40224e-06
6.77183e-08
6.40321e-06
7.03727e-08
6.40393e-06
7.34211e-08
6.40451e-06
7.7005e-08
6.40512e-06
8.11509e-08
6.40595e-06
8.58138e-08
6.40722e-06
9.08769e-08
6.40915e-06
9.61661e-08
1.01367e-07
6.4119e-06
5.74163e-06
8.5734e-09
5.74386e-06
2.38689e-08
5.74679e-06
3.55664e-08
5.74975e-06
4.37199e-08
5.75258e-06
4.97207e-08
5.75521e-06
5.42116e-08
5.75756e-06
5.76934e-08
5.75959e-06
6.07075e-08
5.7613e-06
6.35304e-08
5.76271e-06
6.62992e-08
5.76389e-06
6.9194e-08
5.7649e-06
7.24166e-08
5.76585e-06
7.60516e-08
5.76689e-06
8.0126e-08
5.76815e-06
8.45545e-08
5.76979e-06
8.92375e-08
5.77197e-06
9.40083e-08
9.85912e-08
5.77475e-06
6.99901e-06
7.7157e-09
7.00135e-06
2.15365e-08
7.00452e-06
3.23927e-08
7.00785e-06
4.03971e-08
7.0111e-06
4.64619e-08
7.01422e-06
5.10946e-08
7.01709e-06
5.4819e-08
7.01966e-06
5.8139e-08
7.02191e-06
6.12751e-08
7.02389e-06
6.43157e-08
7.02567e-06
6.74264e-08
7.02734e-06
7.0748e-08
7.02902e-06
7.43878e-08
7.03083e-06
7.83167e-08
7.03293e-06
8.24699e-08
7.03547e-06
8.67202e-08
7.03855e-06
9.09377e-08
9.48995e-08
7.04226e-06
8.53174e-06
6.82069e-09
8.53419e-06
1.90862e-08
8.53759e-06
2.89974e-08
8.54133e-06
3.66618e-08
8.5451e-06
4.26909e-08
8.5488e-06
4.73993e-08
8.55233e-06
5.1297e-08
8.5556e-06
5.48602e-08
8.55861e-06
5.8263e-08
8.5614e-06
6.15414e-08
8.56404e-06
6.47912e-08
8.56665e-06
6.81552e-08
8.56935e-06
7.17026e-08
8.57226e-06
7.54228e-08
8.57551e-06
7.92337e-08
8.57923e-06
8.30269e-08
8.5835e-06
8.6678e-08
9.00173e-08
8.58841e-06
1.04001e-05
5.91323e-09
1.04027e-05
1.64904e-08
1.04064e-05
2.5353e-08
1.04106e-05
3.24392e-08
1.0415e-05
3.82659e-08
1.04195e-05
4.29817e-08
1.04238e-05
4.69568e-08
1.0428e-05
5.06495e-08
1.04321e-05
5.4212e-08
1.0436e-05
5.76341e-08
1.04399e-05
6.0951e-08
1.04438e-05
6.42605e-08
1.04479e-05
6.76234e-08
1.04523e-05
7.1052e-08
1.0457e-05
7.44617e-08
1.04623e-05
7.7769e-08
1.04681e-05
8.08618e-08
8.36445e-08
1.04745e-05
1.26778e-05
4.93376e-09
1.26805e-05
1.3718e-08
1.26845e-05
2.13727e-08
1.26893e-05
2.76455e-08
1.26946e-05
3.30181e-08
1.27e-05
3.75791e-08
1.27055e-05
4.15077e-08
1.2711e-05
4.51626e-08
1.27165e-05
4.87237e-08
1.2722e-05
5.21573e-08
1.27275e-05
5.54342e-08
1.27332e-05
5.85935e-08
1.27391e-05
6.17017e-08
1.27454e-05
6.47595e-08
1.27521e-05
6.77317e-08
1.27594e-05
7.05351e-08
1.27671e-05
7.30925e-08
7.53388e-08
1.27754e-05
1.54543e-05
3.85514e-09
1.54573e-05
1.06614e-08
1.54619e-05
1.68079e-08
1.54675e-05
2.20283e-08
1.54739e-05
2.66568e-08
1.54807e-05
3.08069e-08
1.54877e-05
3.45047e-08
1.54949e-05
3.79489e-08
1.55023e-05
4.13095e-08
1.55099e-05
4.45762e-08
1.55177e-05
4.76831e-08
1.55257e-05
5.06094e-08
1.5534e-05
5.33933e-08
1.55427e-05
5.605e-08
1.55519e-05
5.85608e-08
1.55616e-05
6.08632e-08
1.55717e-05
6.28995e-08
6.46635e-08
1.55824e-05
1.88389e-05
2.60504e-09
1.88425e-05
7.06148e-09
1.8848e-05
1.12884e-08
1.8855e-05
1.51148e-08
1.88629e-05
1.86782e-08
1.88717e-05
2.20841e-08
1.88809e-05
2.53135e-08
1.88904e-05
2.83789e-08
1.89004e-05
3.13604e-08
1.89107e-05
3.4258e-08
1.89214e-05
3.70329e-08
1.89323e-05
3.96405e-08
1.89436e-05
4.20818e-08
1.89554e-05
4.4345e-08
1.89675e-05
4.64223e-08
1.89801e-05
4.82816e-08
1.89931e-05
4.98928e-08
5.12731e-08
1.90065e-05
2.2965e-05
9.36388e-10
2.29696e-05
2.48144e-09
2.29767e-05
4.18717e-09
2.29857e-05
6.13814e-09
2.29961e-05
8.25538e-09
2.30076e-05
1.05506e-08
2.30199e-05
1.30081e-08
2.30328e-05
1.55217e-08
2.30462e-05
1.79741e-08
2.30601e-05
2.03734e-08
2.30744e-05
2.27056e-08
2.30891e-05
2.4967e-08
2.3104e-05
2.70906e-08
2.31193e-05
2.90501e-08
2.3135e-05
3.07917e-08
2.31509e-05
3.2318e-08
2.31672e-05
3.36062e-08
3.4701e-08
2.31838e-05
1.68121e-05
-4.24096e-10
1.68158e-05
-1.29476e-09
1.68217e-05
-1.65107e-09
1.6829e-05
-1.22409e-09
1.68375e-05
-2.23851e-10
1.68468e-05
1.23424e-09
1.68567e-05
3.11872e-09
1.6867e-05
5.23233e-09
1.68776e-05
7.37044e-09
1.68885e-05
9.46907e-09
1.68996e-05
1.15567e-08
1.6911e-05
1.36172e-08
1.69225e-05
1.55882e-08
1.69341e-05
1.74036e-08
1.69459e-05
1.90188e-08
1.69578e-05
2.0418e-08
1.69699e-05
2.16179e-08
2.26404e-08
1.69819e-05
1.46359e-05
-1.74892e-09
1.46397e-05
-5.06082e-09
1.46455e-05
-7.45903e-09
1.46526e-05
-8.4222e-09
1.46608e-05
-8.35546e-09
1.46696e-05
-7.57081e-09
1.46788e-05
-6.15379e-09
1.46884e-05
-4.35516e-09
1.46982e-05
-2.46595e-09
1.47082e-05
-5.47806e-10
1.47184e-05
1.40162e-09
1.47287e-05
3.36528e-09
1.4739e-05
5.2604e-09
1.47494e-05
7.01343e-09
1.47598e-05
8.58586e-09
1.47703e-05
9.96455e-09
1.47807e-05
1.11642e-08
1.2223e-08
1.47912e-05
1.27414e-05
-2.99762e-09
1.27452e-05
-8.84985e-09
1.27511e-05
-1.33707e-08
1.27582e-05
-1.55112e-08
1.27659e-05
-1.61438e-08
1.27742e-05
-1.58688e-08
1.27829e-05
-1.47929e-08
1.27917e-05
-1.32283e-08
1.28007e-05
-1.14848e-08
1.28098e-05
-9.66399e-09
1.2819e-05
-7.75621e-09
1.28282e-05
-5.81549e-09
1.28373e-05
-3.93089e-09
1.28465e-05
-2.17923e-09
1.28557e-05
-5.92721e-10
1.28648e-05
8.28854e-10
1.28739e-05
2.08623e-09
3.2419e-09
1.28829e-05
1.1092e-05
-4.0748e-09
1.10958e-05
-1.26774e-08
1.11019e-05
-1.94745e-08
1.11089e-05
-2.25124e-08
1.11164e-05
-2.36163e-08
1.11242e-05
-2.36939e-08
1.11322e-05
-2.28044e-08
1.11403e-05
-2.13305e-08
1.11485e-05
-1.96476e-08
1.11567e-05
-1.78478e-08
1.11648e-05
-1.59333e-08
1.1173e-05
-1.39692e-08
1.11811e-05
-1.20529e-08
1.11892e-05
-1.02688e-08
1.11972e-05
-8.62654e-09
1.12052e-05
-7.1493e-09
1.12131e-05
-5.81382e-09
-4.57766e-09
1.12209e-05
9.65604e-06
-4.90081e-09
9.66006e-06
-1.66881e-08
9.66627e-06
-2.56882e-08
9.67299e-06
-2.92255e-08
9.6801e-06
-3.0734e-08
9.6875e-06
-3.10885e-08
9.69493e-06
-3.02358e-08
9.70231e-06
-2.87143e-08
9.70966e-06
-2.69946e-08
9.71697e-06
-2.51646e-08
9.72423e-06
-2.32016e-08
9.73144e-06
-2.11767e-08
9.73857e-06
-1.92013e-08
9.74564e-06
-1.73397e-08
9.75263e-06
-1.56295e-08
9.75954e-06
-1.40634e-08
9.76637e-06
-1.26439e-08
-1.12994e-08
9.77309e-06
8.40548e-06
-5.03157e-09
8.41038e-06
-2.15837e-08
8.41646e-06
-3.17566e-08
8.42257e-06
-3.53347e-08
8.42927e-06
-3.74299e-08
8.43627e-06
-3.80949e-08
8.4432e-06
-3.71619e-08
8.44998e-06
-3.54928e-08
8.45665e-06
-3.36624e-08
8.46322e-06
-3.17276e-08
8.46968e-06
-2.96613e-08
8.47602e-06
-2.75163e-08
8.48222e-06
-2.54151e-08
8.48831e-06
-2.34318e-08
8.49428e-06
-2.15982e-08
8.50014e-06
-1.99225e-08
8.50588e-06
-1.83956e-08
-1.69427e-08
8.51153e-06
7.31468e-06
-2.43067e-09
7.32177e-06
-2.86683e-08
7.32812e-06
-3.80961e-08
7.33409e-06
-4.13009e-08
7.34069e-06
-4.40342e-08
7.34742e-06
-4.48129e-08
7.35386e-06
-4.3608e-08
7.36003e-06
-4.16603e-08
7.36598e-06
-3.95993e-08
7.37169e-06
-3.74436e-08
7.37719e-06
-3.51536e-08
7.38247e-06
-3.27986e-08
7.38754e-06
-3.04825e-08
7.39242e-06
-2.831e-08
7.39713e-06
-2.63084e-08
7.40169e-06
-2.44764e-08
7.4061e-06
-2.28152e-08
-2.12807e-08
7.41043e-06
6.36269e-06
4.94449e-09
6.37241e-06
-3.83864e-08
6.38041e-06
-4.60837e-08
6.3879e-06
-4.87919e-08
6.39527e-06
-5.13988e-08
6.40184e-06
-5.13827e-08
6.40753e-06
-4.92961e-08
6.41255e-06
-4.66702e-08
6.41703e-06
-4.40778e-08
6.42105e-06
-4.14502e-08
6.42465e-06
-3.87631e-08
6.42791e-06
-3.60518e-08
6.43087e-06
-3.34371e-08
6.43358e-06
-3.1017e-08
6.43609e-06
-2.88123e-08
6.43843e-06
-2.68132e-08
6.44063e-06
-2.50062e-08
-2.33662e-08
6.44268e-06
5.54136e-06
9.05336e-09
5.55083e-06
-4.78499e-08
5.55925e-06
-5.44976e-08
5.56758e-06
-5.71252e-08
5.57485e-06
-5.8664e-08
5.58017e-06
-5.66931e-08
5.58361e-06
-5.27271e-08
5.58552e-06
-4.85801e-08
5.58625e-06
-4.47924e-08
5.58603e-06
-4.12409e-08
5.58513e-06
-3.78537e-08
5.58373e-06
-3.46461e-08
5.58198e-06
-3.16797e-08
5.57999e-06
-2.90209e-08
5.57785e-06
-2.66621e-08
5.57564e-06
-2.45906e-08
5.5734e-06
-2.27854e-08
-2.12244e-08
5.57126e-06
4.85989e-06
-2.32288e-08
4.86557e-06
-5.35184e-08
4.86579e-06
-5.47103e-08
4.86324e-06
-5.45722e-08
4.85865e-06
-5.40634e-08
4.85187e-06
-4.99152e-08
4.84313e-06
-4.39764e-08
4.83287e-06
-3.83146e-08
4.82156e-06
-3.34764e-08
4.80965e-06
-2.93292e-08
4.79755e-06
-2.575e-08
4.78555e-06
-2.26326e-08
4.77383e-06
-1.99514e-08
4.76251e-06
-1.76886e-08
4.75165e-06
-1.5791e-08
4.7413e-06
-1.42401e-08
4.73157e-06
-1.30539e-08
-1.28076e-08
4.72314e-06
4.17945e-06
4.12593e-06
4.07122e-06
4.01665e-06
3.96259e-06
3.91267e-06
3.8687e-06
3.83038e-06
3.79691e-06
3.76758e-06
3.74183e-06
3.7192e-06
3.69925e-06
3.68156e-06
3.66577e-06
3.65153e-06
3.63848e-06
3.62567e-06
1.40372e-07
-1.3977e-07
2.9689e-07
-1.5606e-07
4.25967e-07
-1.28679e-07
5.23071e-07
-9.67622e-08
5.87523e-07
-6.40967e-08
6.20765e-07
-3.28721e-08
6.23625e-07
-2.5055e-09
6.00257e-07
2.37495e-08
5.57163e-07
4.34248e-08
5.05033e-07
5.2468e-08
4.53767e-07
5.16225e-08
4.03063e-07
5.12378e-08
3.46173e-07
5.73782e-08
2.741e-07
7.28053e-08
1.76437e-07
9.81866e-08
5.25657e-08
1.24747e-07
-1.03911e-07
1.5684e-07
-2.9179e-07
1.88373e-07
-5.05709e-07
2.14038e-07
-7.39175e-07
2.33673e-07
-9.86507e-07
2.47395e-07
-1.242e-06
2.55538e-07
-1.50059e-06
2.58642e-07
-1.75802e-06
2.57411e-07
-2.0106e-06
2.52668e-07
-2.25593e-06
2.45287e-07
-2.49181e-06
2.36034e-07
-2.7174e-06
2.25561e-07
-2.93163e-06
2.14405e-07
-3.13459e-06
2.02971e-07
-3.32593e-06
1.91577e-07
-3.50629e-06
1.80416e-07
-3.67568e-06
1.69637e-07
-3.83486e-06
1.59289e-07
-3.98397e-06
1.494e-07
-4.12377e-06
1.39916e-07
-4.25429e-06
1.30796e-07
-4.37614e-06
1.21933e-07
-4.48918e-06
1.13274e-07
-4.59387e-06
1.04702e-07
-4.68986e-06
9.61727e-08
-4.77747e-06
8.75935e-08
-4.85628e-06
7.8966e-08
-4.92649e-06
7.01951e-08
-4.9876e-06
6.12606e-08
-5.03968e-06
5.20998e-08
-5.0823e-06
4.27698e-08
-5.11538e-06
3.31007e-08
-5.13837e-06
2.312e-08
-5.15178e-06
1.33765e-08
-5.1562e-06
4.50494e-09
-5.15237e-06
-3.91526e-09
-5.14059e-06
-1.17413e-08
-5.12177e-06
-1.88979e-08
-5.09536e-06
-2.63359e-08
-5.06122e-06
-3.41633e-08
-5.02029e-06
-4.08309e-08
-4.97295e-06
-4.72757e-08
-4.91807e-06
-5.47347e-08
-4.85683e-06
-6.10887e-08
-4.78993e-06
-6.67245e-08
-4.71713e-06
-7.25859e-08
-4.63874e-06
-7.8211e-08
-4.55489e-06
-8.35795e-08
-4.46681e-06
-8.78987e-08
-4.37348e-06
-9.30351e-08
-4.2752e-06
-9.81068e-08
-4.17358e-06
-1.01328e-07
-4.06891e-06
-1.04552e-07
-3.96088e-06
-1.07759e-07
-3.85086e-06
-1.09936e-07
-3.73959e-06
-1.10997e-07
-3.6282e-06
-1.11294e-07
-3.51421e-06
-1.13591e-07
-3.39931e-06
-1.147e-07
-3.28528e-06
-1.13425e-07
-3.17039e-06
-1.14527e-07
-3.05511e-06
-1.14564e-07
-2.94115e-06
-1.13647e-07
-2.82767e-06
-1.12741e-07
-2.71567e-06
-1.117e-07
-2.60401e-06
-1.10968e-07
-2.49412e-06
-1.09721e-07
-2.38476e-06
-1.08678e-07
-2.27739e-06
-1.07186e-07
-2.17042e-06
-1.06391e-07
-2.06565e-06
-1.04846e-07
-1.96218e-06
-1.03581e-07
-1.86044e-06
-1.02336e-07
-1.76021e-06
-1.01106e-07
-1.66107e-06
-9.97536e-08
-1.56309e-06
-9.83076e-08
-1.46637e-06
-9.68291e-08
-1.37101e-06
-9.53667e-08
-1.27698e-06
-9.39228e-08
-1.18434e-06
-9.25093e-08
-1.09299e-06
-9.11182e-08
-1.00298e-06
-8.97415e-08
-9.14203e-07
-8.83804e-08
-8.26691e-07
-8.70604e-08
-7.40281e-07
-8.57859e-08
-6.55005e-07
-8.4498e-08
-5.7076e-07
-8.32367e-08
-4.87555e-07
-8.20112e-08
-4.05462e-07
-8.07874e-08
-3.24586e-07
-7.95432e-08
-2.44696e-07
-7.85947e-08
-1.65531e-07
-7.79764e-08
-8.67609e-08
-7.76723e-08
-7.66619e-09
-7.81585e-08
7.20022e-08
-7.89208e-08
1.51186e-07
-7.85745e-08
2.29204e-07
-7.75861e-08
3.05782e-07
-7.62321e-08
3.80743e-07
-7.47824e-08
4.54151e-07
-7.326e-08
5.25964e-07
-7.18189e-08
5.96292e-07
-7.0392e-08
6.6501e-07
-6.89425e-08
7.32254e-07
-6.7389e-08
7.98064e-07
-6.58406e-08
8.62588e-07
-6.42892e-08
9.25665e-07
-6.27932e-08
9.87283e-07
-6.12592e-08
1.04711e-06
-5.9639e-08
1.10498e-06
-5.77098e-08
1.16086e-06
-5.58932e-08
1.21479e-06
-5.3932e-08
1.26635e-06
-5.16991e-08
1.31576e-06
-4.95087e-08
1.36282e-06
-4.72538e-08
1.40735e-06
-4.46523e-08
1.4491e-06
-4.19534e-08
1.4879e-06
-3.89462e-08
1.52324e-06
-3.55737e-08
1.55488e-06
-3.18235e-08
1.58195e-06
-2.73784e-08
1.60375e-06
-2.21569e-08
1.62104e-06
-1.78452e-08
1.63543e-06
-1.50167e-08
1.64571e-06
-1.09811e-08
1.65462e-06
-9.52716e-09
1.67241e-06
-1.83358e-08
1.70175e-06
-2.97784e-08
1.7202e-06
-1.88289e-08
1.73711e-06
-1.7198e-08
1.77315e-06
-3.62965e-08
1.81367e-06
-4.07447e-08
1.84817e-06
-3.4733e-08
1.88034e-06
-3.2386e-08
1.91379e-06
-3.36776e-08
1.94597e-06
-3.24256e-08
1.97568e-06
-2.9977e-08
2.00265e-06
-2.72424e-08
2.02691e-06
-2.45679e-08
2.04852e-06
-2.19056e-08
2.0677e-06
-1.94978e-08
2.08487e-06
-1.74753e-08
2.10048e-06
-1.59106e-08
2.11476e-06
-1.45577e-08
2.12785e-06
-1.33617e-08
2.13989e-06
-1.22729e-08
2.151e-06
-1.13449e-08
2.16149e-06
-1.06778e-08
2.17143e-06
-1.01192e-08
2.18086e-06
-9.56595e-09
2.18973e-06
-9.00458e-09
2.19826e-06
-8.60521e-09
2.20648e-06
-8.30407e-09
2.2144e-06
-7.94067e-09
2.2218e-06
-7.41953e-09
2.22839e-06
-6.56738e-09
2.23394e-06
-5.52061e-09
2.23815e-06
-4.12791e-09
2.23982e-06
-1.61082e-09
2.23659e-06
3.33986e-09
2.22469e-06
1.19766e-08
2.19764e-06
2.71491e-08
2.13715e-06
6.05699e-08
1.13547e-07
2.02373e-06
1.30133e-07
-2.69431e-07
2.34903e-07
-2.60444e-07
3.10874e-07
-2.04292e-07
3.57434e-07
-1.4299e-07
3.76904e-07
-8.32274e-08
3.72574e-07
-2.81826e-08
3.49407e-07
2.10251e-08
3.09294e-07
6.42432e-08
2.50639e-07
1.02428e-07
1.65997e-07
1.3751e-07
4.38187e-08
1.74172e-07
-1.20455e-07
2.15895e-07
-3.22974e-07
2.60176e-07
-5.5919e-07
3.09284e-07
-8.19429e-07
3.58597e-07
-1.09641e-06
4.01919e-07
-1.37762e-06
4.3815e-07
-1.65522e-06
4.66101e-07
-1.92521e-06
4.84089e-07
-2.1837e-06
4.92225e-07
-2.42774e-06
4.9148e-07
-2.65544e-06
4.83269e-07
-2.86596e-06
4.69191e-07
-3.0595e-06
4.50953e-07
-3.23681e-06
4.3003e-07
-3.39911e-06
4.07608e-07
-3.54761e-06
3.8461e-07
-3.68377e-06
3.61736e-07
-3.80873e-06
3.39472e-07
-3.92384e-06
3.18124e-07
-4.02999e-06
2.97854e-07
-4.12822e-06
2.78708e-07
-4.21909e-06
2.60653e-07
-4.30332e-06
2.43597e-07
-4.38117e-06
2.27416e-07
-4.45312e-06
2.11957e-07
-4.51926e-06
1.97077e-07
-4.57988e-06
1.82626e-07
-4.63498e-06
1.68485e-07
-4.68478e-06
1.54534e-07
-4.72922e-06
1.40701e-07
-4.76853e-06
1.2691e-07
-4.80262e-06
1.13125e-07
-4.83171e-06
9.92962e-08
-4.85578e-06
8.54164e-08
-4.87511e-06
7.14659e-08
-4.88971e-06
5.7455e-08
-4.8999e-06
4.3332e-08
-4.90581e-06
2.91135e-08
-4.90736e-06
1.49404e-08
-4.90366e-06
8.48981e-10
-4.89415e-06
-1.34353e-08
-4.878e-06
-2.78722e-08
-4.8546e-06
-4.2299e-08
-4.82424e-06
-5.66651e-08
-4.7874e-06
-7.09776e-08
-4.74327e-06
-8.4905e-08
-4.6919e-06
-9.85852e-08
-4.63446e-06
-1.1209e-07
-4.57045e-06
-1.24992e-07
-4.49985e-06
-1.37217e-07
-4.42331e-06
-1.48987e-07
-4.34126e-06
-1.60137e-07
-4.25412e-06
-1.70552e-07
-4.16159e-06
-1.80283e-07
-4.06503e-06
-1.89424e-07
-3.96541e-06
-1.97589e-07
-3.86198e-06
-2.04593e-07
-3.7556e-06
-2.10815e-07
-3.64725e-06
-2.15972e-07
-3.53696e-06
-2.20125e-07
-3.42445e-06
-2.23373e-07
-3.30995e-06
-2.25685e-07
-3.19578e-06
-2.27585e-07
-3.08152e-06
-2.2878e-07
-2.96563e-06
-2.29016e-07
-2.85093e-06
-2.28971e-07
-2.73674e-06
-2.28427e-07
-2.62287e-06
-2.2726e-07
-2.50961e-06
-2.25659e-07
-2.39727e-06
-2.23796e-07
-2.28618e-06
-2.21778e-07
-2.17615e-06
-2.19544e-07
-2.0674e-06
-2.17133e-07
-1.95967e-06
-2.14717e-07
-1.85368e-06
-2.12157e-07
-1.74899e-06
-2.09485e-07
-1.64579e-06
-2.0686e-07
-1.54417e-06
-2.043e-07
-1.44396e-06
-2.01727e-07
-1.34492e-06
-1.99092e-07
-1.24696e-06
-1.9638e-07
-1.15014e-06
-1.93643e-07
-1.05451e-06
-1.9093e-07
-9.60065e-07
-1.88253e-07
-8.66797e-07
-1.85637e-07
-7.74655e-07
-1.83072e-07
-6.83625e-07
-1.80564e-07
-5.9363e-07
-1.78099e-07
-5.04665e-07
-1.75728e-07
-4.16609e-07
-1.73437e-07
-3.29475e-07
-1.71175e-07
-2.43143e-07
-1.68964e-07
-1.57593e-07
-1.66937e-07
-7.2558e-08
-1.65123e-07
1.20046e-08
-1.63494e-07
9.59309e-08
-1.61932e-07
1.78813e-07
-1.60396e-07
2.60561e-07
-1.58993e-07
3.40368e-07
-1.57654e-07
4.17907e-07
-1.56166e-07
4.93765e-07
-1.54233e-07
5.68304e-07
-1.51934e-07
6.41528e-07
-1.49353e-07
7.13451e-07
-1.46609e-07
7.83988e-07
-1.43776e-07
8.53123e-07
-1.40944e-07
9.20769e-07
-1.38125e-07
9.86988e-07
-1.3527e-07
1.05181e-06
-1.32315e-07
1.11531e-06
-1.29326e-07
1.17745e-06
-1.26312e-07
1.23815e-06
-1.23289e-07
1.29729e-06
-1.20227e-07
1.35482e-06
-1.17024e-07
1.41066e-06
-1.13484e-07
1.46457e-06
-1.09787e-07
1.51648e-06
-1.05869e-07
1.56642e-06
-1.01688e-07
1.61424e-06
-9.74163e-08
1.65995e-06
-9.30445e-08
1.70349e-06
-8.82976e-08
1.74458e-06
-8.31381e-08
1.78311e-06
-7.75781e-08
1.81914e-06
-7.17146e-08
1.85256e-06
-6.53875e-08
1.88333e-06
-5.83029e-08
1.91154e-06
-5.06154e-08
1.93728e-06
-4.39124e-08
1.96066e-06
-3.87946e-08
1.98346e-06
-3.42132e-08
2.00603e-06
-3.24798e-08
2.02383e-06
-3.64637e-08
2.03617e-06
-4.24017e-08
2.05612e-06
-3.90288e-08
2.07694e-06
-3.82236e-08
2.09101e-06
-5.05436e-08
2.10784e-06
-5.77471e-08
2.12989e-06
-5.69419e-08
2.15252e-06
-5.51833e-08
2.17356e-06
-5.48853e-08
2.19415e-06
-5.32075e-08
2.21432e-06
-5.03562e-08
2.23382e-06
-4.69623e-08
2.25238e-06
-4.33683e-08
2.26989e-06
-3.96658e-08
2.28627e-06
-3.61376e-08
2.3016e-06
-3.30604e-08
2.31598e-06
-3.05285e-08
2.32954e-06
-2.83584e-08
2.34236e-06
-2.63939e-08
2.35448e-06
-2.45992e-08
2.36599e-06
-2.30297e-08
2.37697e-06
-2.18224e-08
2.38754e-06
-2.08273e-08
2.39776e-06
-1.98975e-08
2.40771e-06
-1.90406e-08
2.41741e-06
-1.8362e-08
2.4268e-06
-1.77362e-08
2.43576e-06
-1.68993e-08
2.44417e-06
-1.58151e-08
2.45201e-06
-1.43577e-08
2.45907e-06
-1.25167e-08
2.46488e-06
-9.83021e-09
2.46903e-06
-5.64735e-09
2.47137e-06
1.1458e-09
2.47093e-06
1.25438e-08
2.46599e-06
3.22408e-08
2.45374e-06
7.297e-08
1.48192e-07
2.41929e-06
5.13101e-08
-3.20448e-07
6.60438e-08
-2.74925e-07
6.4028e-08
-2.02019e-07
4.50989e-08
-1.23828e-07
8.10305e-09
-4.59551e-08
-4.93656e-08
2.95562e-08
-1.30549e-07
1.02467e-07
-2.39157e-07
1.73107e-07
-3.78735e-07
2.42231e-07
-5.51886e-07
3.10863e-07
-7.56797e-07
3.79238e-07
-9.86315e-07
4.45561e-07
-1.23196e-06
5.05921e-07
-1.48108e-06
5.58516e-07
-1.72336e-06
6.00942e-07
-1.95308e-06
6.31727e-07
-2.16559e-06
6.50706e-07
-2.35794e-06
6.58513e-07
-2.53028e-06
6.56466e-07
-2.68416e-06
6.46149e-07
-2.82188e-06
6.29227e-07
-2.946e-06
6.07405e-07
-3.05907e-06
5.82303e-07
-3.16338e-06
5.55282e-07
-3.26071e-06
5.27403e-07
-3.35257e-06
4.99503e-07
-3.44007e-06
4.72177e-07
-3.52411e-06
4.45812e-07
-3.60519e-06
4.20629e-07
-3.68374e-06
3.96719e-07
-3.75986e-06
3.74069e-07
-3.83371e-06
3.52604e-07
-3.90516e-06
3.322e-07
-3.97421e-06
3.12701e-07
-4.04064e-06
2.9394e-07
-4.10438e-06
2.75746e-07
-4.16518e-06
2.57955e-07
-4.22293e-06
2.40415e-07
-4.27738e-06
2.22991e-07
-4.3284e-06
2.05569e-07
-4.37572e-06
1.88058e-07
-4.41919e-06
1.7038e-07
-4.45851e-06
1.52477e-07
-4.4935e-06
1.343e-07
-4.52385e-06
1.15815e-07
-4.54935e-06
9.69916e-08
-4.56963e-06
7.78007e-08
-4.58446e-06
5.82067e-08
-4.5935e-06
3.82149e-08
-4.59641e-06
1.78885e-08
-4.59279e-06
-2.73306e-09
-4.58251e-06
-2.3689e-08
-4.56543e-06
-4.49119e-08
-4.54145e-06
-6.62601e-08
-4.5105e-06
-8.75833e-08
-4.47265e-06
-1.08791e-07
-4.4278e-06
-1.29719e-07
-4.37606e-06
-1.50276e-07
-4.31772e-06
-1.70369e-07
-4.25285e-06
-1.89792e-07
-4.18162e-06
-2.08381e-07
-4.10446e-06
-2.26052e-07
-4.02186e-06
-2.42649e-07
-3.93428e-06
-2.58023e-07
-3.84208e-06
-2.72379e-07
-3.74589e-06
-2.85491e-07
-3.64622e-06
-2.9715e-07
-3.54337e-06
-3.0733e-07
-3.4379e-06
-3.16191e-07
-3.33019e-06
-3.2359e-07
-3.22062e-06
-3.29624e-07
-3.10948e-06
-3.3443e-07
-2.99717e-06
-3.37918e-07
-2.88442e-06
-3.40229e-07
-2.77152e-06
-3.41561e-07
-2.65837e-06
-3.42015e-07
-2.54559e-06
-3.41584e-07
-2.43336e-06
-3.40489e-07
-2.32172e-06
-3.38731e-07
-2.21083e-06
-3.36369e-07
-2.10089e-06
-3.3357e-07
-1.99211e-06
-3.30407e-07
-1.88449e-06
-3.27018e-07
-1.77809e-06
-3.23366e-07
-1.67298e-06
-3.19678e-07
-1.56922e-06
-3.15774e-07
-1.46683e-06
-3.11814e-07
-1.36586e-06
-3.07867e-07
-1.26636e-06
-3.03966e-07
-1.16822e-06
-3.001e-07
-1.07123e-06
-2.96212e-07
-9.75301e-07
-2.92299e-07
-8.80475e-07
-2.88393e-07
-7.86751e-07
-2.84527e-07
-6.94126e-07
-2.80732e-07
-6.02574e-07
-2.77013e-07
-5.12072e-07
-2.73384e-07
-4.22565e-07
-2.69848e-07
-3.34022e-07
-2.66398e-07
-2.4641e-07
-2.63057e-07
-1.59633e-07
-2.59873e-07
-7.35775e-08
-2.56841e-07
1.18272e-08
-2.53904e-07
9.63938e-08
-2.51044e-07
1.79993e-07
-2.48239e-07
2.6241e-07
-2.45507e-07
3.43638e-07
-2.42771e-07
4.23575e-07
-2.40042e-07
5.02135e-07
-2.37275e-07
5.7908e-07
-2.34411e-07
6.54418e-07
-2.31317e-07
7.28238e-07
-2.27943e-07
8.00695e-07
-2.24273e-07
8.71768e-07
-2.20379e-07
9.41507e-07
-2.16293e-07
1.00983e-06
-2.12104e-07
1.07671e-06
-2.07854e-07
1.14209e-06
-2.03597e-07
1.206e-06
-1.99267e-07
1.26844e-06
-1.94833e-07
1.32947e-06
-1.90323e-07
1.38902e-06
-1.8578e-07
1.44708e-06
-1.81181e-07
1.50346e-06
-1.76494e-07
1.55814e-06
-1.71597e-07
1.61113e-06
-1.66433e-07
1.66238e-06
-1.61011e-07
1.7118e-06
-1.5533e-07
1.75949e-06
-1.49404e-07
1.80527e-06
-1.43266e-07
1.84906e-06
-1.36888e-07
1.89089e-06
-1.3021e-07
1.9308e-06
-1.23106e-07
1.96874e-06
-1.15614e-07
2.00474e-06
-1.0779e-07
2.03878e-06
-9.95398e-08
2.07112e-06
-9.07769e-08
2.10207e-06
-8.17479e-08
2.13161e-06
-7.36921e-08
2.15973e-06
-6.72056e-08
2.18702e-06
-6.17777e-08
2.21311e-06
-5.88115e-08
2.2361e-06
-5.96577e-08
2.25545e-06
-6.19297e-08
2.27741e-06
-6.11432e-08
2.30114e-06
-6.20856e-08
2.31962e-06
-6.91461e-08
2.33569e-06
-7.39189e-08
2.35215e-06
-7.35102e-08
2.36853e-06
-7.16692e-08
2.38377e-06
-7.0241e-08
2.39838e-06
-6.79436e-08
2.41273e-06
-6.48442e-08
2.42688e-06
-6.1263e-08
2.44073e-06
-5.73864e-08
2.45425e-06
-5.33441e-08
2.46736e-06
-4.94269e-08
2.48002e-06
-4.58956e-08
2.49217e-06
-4.28423e-08
2.50382e-06
-4.01692e-08
2.515e-06
-3.77317e-08
2.52582e-06
-3.55622e-08
2.53637e-06
-3.37064e-08
2.54666e-06
-3.22249e-08
2.55675e-06
-3.10223e-08
2.5667e-06
-2.99387e-08
2.57651e-06
-2.89171e-08
2.5861e-06
-2.80046e-08
2.59552e-06
-2.72009e-08
2.60475e-06
-2.61544e-08
2.61365e-06
-2.47275e-08
2.62206e-06
-2.27642e-08
2.62981e-06
-2.02473e-08
2.63653e-06
-1.65218e-08
2.64168e-06
-1.07614e-08
2.6446e-06
-1.73798e-09
2.64434e-06
1.2833e-08
2.63976e-06
3.68463e-08
2.63183e-06
8.09476e-08
1.5689e-07
2.6232e-06
-4.01206e-08
-2.80156e-07
-1.04358e-07
-2.1058e-07
-1.80579e-07
-1.25656e-07
-2.69532e-07
-3.47434e-08
-3.74436e-07
5.90876e-08
-4.98469e-07
1.53724e-07
-6.43568e-07
2.47701e-07
-8.09918e-07
3.3958e-07
-9.95266e-07
4.27674e-07
-1.19426e-06
5.09953e-07
-1.39902e-06
5.84068e-07
-1.60081e-06
6.47423e-07
-1.79268e-06
6.97833e-07
-1.96876e-06
7.34652e-07
-2.12608e-06
7.58294e-07
-2.26437e-06
7.70053e-07
-2.38502e-06
7.7138e-07
-2.49041e-06
7.63937e-07
-2.58341e-06
7.49485e-07
-2.66693e-06
7.29686e-07
-2.74373e-06
7.06054e-07
-2.81621e-06
6.79897e-07
-2.88618e-06
6.5231e-07
-2.95501e-06
6.24135e-07
-3.02354e-06
5.95982e-07
-3.09232e-06
5.68311e-07
-3.1615e-06
5.41428e-07
-3.23116e-06
5.15507e-07
-3.30107e-06
4.90622e-07
-3.37108e-06
4.66763e-07
-3.4408e-06
4.43865e-07
-3.50998e-06
4.21818e-07
-3.57819e-06
4.00485e-07
-3.64518e-06
3.79716e-07
-3.71052e-06
3.59349e-07
-3.77398e-06
3.39224e-07
-3.83517e-06
3.19188e-07
-3.89384e-06
2.99095e-07
-3.94963e-06
2.78813e-07
-4.00231e-06
2.5823e-07
-4.05148e-06
2.37246e-07
-4.09689e-06
2.1578e-07
-4.13816e-06
1.93762e-07
-4.17499e-06
1.71137e-07
-4.20701e-06
1.47862e-07
-4.2339e-06
1.23902e-07
-4.25528e-06
9.92353e-08
-4.27089e-06
7.38562e-08
-4.2804e-06
4.77909e-08
-4.28357e-06
2.11047e-08
-4.28012e-06
-6.12966e-09
-4.26991e-06
-3.38505e-08
-4.25283e-06
-6.19398e-08
-4.22881e-06
-9.02422e-08
-4.19776e-06
-1.18586e-07
-4.15971e-06
-1.46808e-07
-4.11466e-06
-1.74726e-07
-4.06274e-06
-2.02156e-07
-4.00415e-06
-2.28916e-07
-3.9391e-06
-2.54793e-07
-3.86785e-06
-2.7957e-07
-3.79078e-06
-3.03056e-07
-3.7083e-06
-3.25056e-07
-3.62089e-06
-3.45343e-07
-3.52909e-06
-3.64094e-07
-3.43331e-06
-3.81174e-07
-3.33402e-06
-3.96348e-07
-3.23166e-06
-4.09594e-07
-3.1268e-06
-4.20979e-07
-3.01982e-06
-4.3049e-07
-2.91118e-06
-4.38203e-07
-2.80134e-06
-4.44216e-07
-2.69064e-06
-4.48554e-07
-2.57946e-06
-4.51339e-07
-2.46815e-06
-4.52798e-07
-2.35697e-06
-4.53093e-07
-2.24617e-06
-4.52278e-07
-2.13601e-06
-4.50547e-07
-2.02663e-06
-4.48e-07
-1.91815e-06
-4.44732e-07
-1.81072e-06
-4.40892e-07
-1.70443e-06
-4.3659e-07
-1.59936e-06
-4.3197e-07
-1.49554e-06
-4.27078e-07
-1.39304e-06
-4.22047e-07
-1.29186e-06
-4.16846e-07
-1.19202e-06
-4.11583e-07
-1.09356e-06
-4.06326e-07
-9.96509e-07
-4.01129e-07
-9.00749e-07
-3.95979e-07
-8.06124e-07
-3.9087e-07
-7.12564e-07
-3.85792e-07
-6.20068e-07
-3.80755e-07
-5.28638e-07
-3.75796e-07
-4.38239e-07
-3.70942e-07
-3.48858e-07
-3.66194e-07
-2.60463e-07
-3.61556e-07
-1.73001e-07
-3.57073e-07
-8.63795e-08
-3.52756e-07
-5.56764e-10
-3.48586e-07
8.44081e-08
-3.44503e-07
1.68439e-07
-3.4049e-07
2.51463e-07
-3.36514e-07
3.33422e-07
-3.32578e-07
4.14227e-07
-3.28648e-07
4.93804e-07
-3.2473e-07
5.72099e-07
-3.20765e-07
6.49064e-07
-3.16754e-07
7.24621e-07
-3.12627e-07
7.98719e-07
-3.08346e-07
8.71355e-07
-3.03822e-07
9.42572e-07
-2.99063e-07
1.01241e-06
-2.94036e-07
1.08087e-06
-2.88801e-07
1.14796e-06
-2.83358e-07
1.21364e-06
-2.77789e-07
1.27786e-06
-2.72116e-07
1.34057e-06
-2.66389e-07
1.40177e-06
-2.60556e-07
1.46151e-06
-2.54619e-07