/*--------------------------------*- C++ -*----------------------------------*\
  =========                 |
  \\      /  F ield         | OpenFOAM: The Open Source CFD Toolbox
   \\    /   O peration     | Website:  https://openfoam.org
    \\  /    A nd           | Version:  8
     \\/     M anipulation  |
\*---------------------------------------------------------------------------*/
FoamFile
{
    version     2.0;
    format      ascii;
    class       volVectorField;
    location    "40";
    object      U;
}
// * * * * * * * * * * * * * * * * * * * * * * * * * * * * * * * * * * * * * //

dimensions      [0 1 -1 0 0 0 0];

internalField   nonuniform List<vector> 
12225
(
(9.85682 -0.886812 0)
(9.66566 -0.740386 0)
(9.45275 -0.430391 0)
(9.2188 -0.222265 0)
(8.99673 -0.105521 0)
(8.80067 -0.0444257 0)
(8.62753 -0.0138686 0)
(8.47823 0.00179847 0)
(8.34774 0.0100468 0)
(8.23556 0.0145424 0)
(8.13548 0.0169539 0)
(8.04496 0.0187919 0)
(7.95997 0.0201863 0)
(7.87822 0.0218783 0)
(7.79431 0.0242551 0)
(7.70872 0.028952 0)
(7.58486 0.0367213 0)
(7.51505 0.0486766 0)
(10.0544 0.227882 0)
(10.1206 0.32723 0)
(10.1187 0.26229 0)
(10.0831 0.187663 0)
(10.0392 0.13646 0)
(9.99039 0.103076 0)
(9.93463 0.0812828 0)
(9.87097 0.0668782 0)
(9.8044 0.0574163 0)
(9.73589 0.0509123 0)
(9.66737 0.0463591 0)
(9.59863 0.0432666 0)
(9.53038 0.0415433 0)
(9.46262 0.041511 0)
(9.39426 0.043536 0)
(9.32808 0.0498849 0)
(9.25207 0.0629639 0)
(9.20332 0.095242 0)
(10.0035 0.0581377 0)
(10.0299 0.0564329 0)
(10.0547 0.0350972 0)
(10.0672 0.0344273 0)
(10.072 0.0424313 0)
(10.0706 0.0487279 0)
(10.0621 0.0520666 0)
(10.0466 0.0540812 0)
(10.0267 0.0554224 0)
(10.0028 0.0562099 0)
(9.97566 0.0567269 0)
(9.94509 0.0574994 0)
(9.91158 0.0589948 0)
(9.87541 0.0619554 0)
(9.83611 0.0667191 0)
(9.79442 0.0762827 0)
(9.74849 0.0895899 0)
(9.7048 0.122932 0)
(9.9978 0.0112583 0)
(10.0105 0.0274484 0)
(10.0334 0.0382727 0)
(10.0491 0.0495889 0)
(10.0591 0.0578045 0)
(10.0658 0.0613884 0)
(10.0685 0.0625109 0)
(10.0671 0.0631142 0)
(10.0629 0.0637086 0)
(10.0562 0.0642476 0)
(10.0467 0.0649385 0)
(10.0344 0.0662858 0)
(10.0195 0.0687468 0)
(10.0021 0.0729622 0)
(9.98204 0.0794803 0)
(9.95984 0.0901315 0)
(9.9358 0.105873 0)
(9.91237 0.131884 0)
(9.99927 0.0074821 0)
(10.0084 0.0325254 0)
(10.0257 0.0453355 0)
(10.0384 0.0523085 0)
(10.0475 0.0570325 0)
(10.0552 0.0595884 0)
(10.0604 0.0609509 0)
(10.0629 0.0621587 0)
(10.0635 0.0634688 0)
(10.0623 0.0648652 0)
(10.059 0.0665585 0)
(10.0534 0.0690325 0)
(10.0457 0.0727274 0)
(10.0361 0.0782229 0)
(10.0248 0.0860798 0)
(10.0121 0.0975701 0)
(9.99906 0.113695 0)
(9.9884 0.136134 0)
(10.0002 0.00955923 0)
(10.0077 0.032291 0)
(10.021 0.0429966 0)
(10.0316 0.048519 0)
(10.0397 0.0531332 0)
(10.047 0.0565574 0)
(10.0526 0.0589229 0)
(10.0561 0.0609437 0)
(10.0582 0.0629882 0)
(10.0589 0.0651736 0)
(10.0579 0.0677358 0)
(10.055 0.0711089 0)
(10.0504 0.0757061 0)
(10.0444 0.0820565 0)
(10.0373 0.0906826 0)
(10.0296 0.102501 0)
(10.0224 0.118198 0)
(10.0179 0.138347 0)
(10.0004 0.00942348 0)
(10.0066 0.0285138 0)
(10.0174 0.0389187 0)
(10.0268 0.0449798 0)
(10.0343 0.0501558 0)
(10.041 0.0542377 0)
(10.0463 0.0572417 0)
(10.05 0.0598013 0)
(10.0526 0.0623685 0)
(10.054 0.0651538 0)
(10.054 0.0683914 0)
(10.0524 0.0724544 0)
(10.0495 0.0777287 0)
(10.0456 0.0846761 0)
(10.041 0.0937517 0)
(10.0364 0.105553 0)
(10.0326 0.120456 0)
(10.0312 0.138237 0)
(10.0003 0.00848982 0)
(10.0055 0.0250708 0)
(10.0145 0.0356289 0)
(10.023 0.0422591 0)
(10.03 0.0477179 0)
(10.0362 0.0520865 0)
(10.0412 0.0554881 0)
(10.0448 0.0584827 0)
(10.0475 0.061512 0)
(10.0493 0.0648121 0)
(10.0499 0.0686116 0)
(10.0492 0.0732409 0)
(10.0474 0.079057 0)
(10.045 0.0864374 0)
(10.0422 0.095732 0)
(10.0397 0.107291 0)
(10.0382 0.121245 0)
(10.0386 0.137136 0)
(10.0003 0.0076301 0)
(10.0045 0.0223922 0)
(10.0122 0.0328015 0)
(10.0198 0.0397107 0)
(10.0263 0.0453017 0)
(10.0321 0.0498523 0)
(10.0368 0.0535799 0)
(10.0404 0.0569886 0)
(10.0432 0.0604663 0)
(10.0452 0.0642307 0)
(10.0462 0.0685103 0)
(10.0462 0.0736105 0)
(10.0455 0.0798501 0)
(10.0442 0.0875094 0)
(10.0429 0.0968332 0)
(10.042 0.108001 0)
(10.0421 0.121013 0)
(10.0438 0.135412 0)
(10.0003 0.00689967 0)
(10.0038 0.0201056 0)
(10.0102 0.0301155 0)
(10.017 0.0370949 0)
(10.023 0.0427983 0)
(10.0285 0.0475564 0)
(10.033 0.0515888 0)
(10.0366 0.0553746 0)
(10.0395 0.0592532 0)
(10.0418 0.0634258 0)
(10.0432 0.0681117 0)
(10.0439 0.0735925 0)
(10.044 0.0801311 0)
(10.0438 0.0879276 0)
(10.0437 0.0971381 0)
(10.0441 0.107831 0)
(10.0455 0.119934 0)
(10.0483 0.133034 0)
(10.0003 0.00623954 0)
(10.0032 0.0180787 0)
(10.0086 0.0275508 0)
(10.0146 0.0344807 0)
(10.0202 0.0402543 0)
(10.0254 0.0452058 0)
(10.0298 0.0495168 0)
(10.0334 0.0536262 0)
(10.0365 0.0578398 0)
(10.039 0.0623436 0)
(10.0409 0.067345 0)
(10.0422 0.0730941 0)
(10.0431 0.0798026 0)
(10.0439 0.0876116 0)
(10.0449 0.0966027 0)
(10.0464 0.106762 0)
(10.0489 0.117988 0)
(10.0525 0.12991 0)
(10.0003 0.00566443 0)
(10.0028 0.0164027 0)
(10.0074 0.0253267 0)
(10.0128 0.0322173 0)
(10.0181 0.0379785 0)
(10.023 0.0429957 0)
(10.0272 0.0475305 0)
(10.0309 0.0519337 0)
(10.0341 0.0564171 0)
(10.0369 0.0611289 0)
(10.0393 0.0662951 0)
(10.0412 0.0721717 0)
(10.0428 0.0789415 0)
(10.0444 0.0866957 0)
(10.0463 0.0954244 0)
(10.0488 0.105075 0)
(10.052 0.115516 0)
(10.0563 0.126448 0)
(10.0003 0.00513178 0)
(10.0024 0.0148775 0)
(10.0064 0.0232269 0)
(10.0112 0.0299985 0)
(10.0162 0.0357083 0)
(10.0209 0.0407123 0)
(10.0251 0.0453708 0)
(10.0289 0.050003 0)
(10.0323 0.0547322 0)
(10.0353 0.0596417 0)
(10.0381 0.0649293 0)
(10.0406 0.0708449 0)
(10.043 0.0775563 0)
(10.0454 0.0851278 0)
(10.0481 0.0935198 0)
(10.0513 0.102648 0)
(10.0553 0.112365 0)
(10.0601 0.1224 0)
(10.0002 0.00457783 0)
(10.002 0.0133096 0)
(10.0056 0.0209396 0)
(10.0099 0.0274512 0)
(10.0144 0.033103 0)
(10.0189 0.0380531 0)
(10.0232 0.0427278 0)
(10.0272 0.047503 0)
(10.0308 0.0524536 0)
(10.0341 0.0575596 0)
(10.0373 0.0629521 0)
(10.0404 0.0688265 0)
(10.0436 0.0753575 0)
(10.0468 0.0825923 0)
(10.0504 0.0905118 0)
(10.0544 0.0989986 0)
(10.059 0.107921 0)
(10.0644 0.117014 0)
(10.0002 0.00401361 0)
(10.0017 0.0116535 0)
(10.0048 0.0185405 0)
(10.0087 0.0246059 0)
(10.0129 0.0300965 0)
(10.0172 0.0349866 0)
(10.0216 0.0395749 0)
(10.0258 0.0442957 0)
(10.0297 0.0492931 0)
(10.0334 0.0545157 0)
(10.037 0.0599635 0)
(10.0408 0.0657478 0)
(10.0447 0.0719933 0)
(10.0489 0.0787745 0)
(10.0533 0.0860553 0)
(10.058 0.0937664 0)
(10.0633 0.101769 0)
(10.0692 0.109881 0)
(10.0002 0.00342225 0)
(10.0015 0.00989552 0)
(10.0042 0.01596 0)
(10.0079 0.0213832 0)
(10.0118 0.0264987 0)
(10.0159 0.0312564 0)
(10.0204 0.0357161 0)
(10.025 0.0402314 0)
(10.0293 0.045043 0)
(10.0335 0.0501574 0)
(10.0376 0.055501 0)
(10.042 0.0610791 0)
(10.0466 0.0669439 0)
(10.0516 0.0731586 0)
(10.0568 0.0797068 0)
(10.0623 0.0865286 0)
(10.0682 0.0935139 0)
(10.0745 0.100557 0)
(10.0001 0.00277236 0)
(10.0014 0.00799087 0)
(10.0038 0.0130313 0)
(10.0073 0.0176485 0)
(10.0112 0.0221427 0)
(10.0153 0.026549 0)
(10.0198 0.0307908 0)
(10.0247 0.035024 0)
(10.0297 0.0394738 0)
(10.0344 0.0442021 0)
(10.039 0.0491679 0)
(10.044 0.0543116 0)
(10.0493 0.0596382 0)
(10.055 0.0651497 0)
(10.0609 0.0708576 0)
(10.067 0.0767017 0)
(10.0734 0.082618 0)
(10.0801 0.0885491 0)
(10.0001 0.0020336 0)
(10.0013 0.00582705 0)
(10.0037 0.00963763 0)
(10.0072 0.0132822 0)
(10.0112 0.0168892 0)
(10.0155 0.0205793 0)
(10.0201 0.0243101 0)
(10.0254 0.0280814 0)
(10.0309 0.0319923 0)
(10.0362 0.0361117 0)
(10.0415 0.0404304 0)
(10.047 0.044907 0)
(10.0529 0.0495082 0)
(10.0591 0.0542038 0)
(10.0657 0.0589717 0)
(10.0723 0.0637794 0)
(10.0792 0.0685698 0)
(10.086 0.0733467 0)
(10.0002 0.00111186 0)
(10.0014 0.00317434 0)
(10.0039 0.00538681 0)
(10.0075 0.00771351 0)
(10.0119 0.0101527 0)
(10.0165 0.0127866 0)
(10.0216 0.015655 0)
(10.0273 0.0186875 0)
(10.0333 0.0218633 0)
(10.0393 0.0251763 0)
(10.0452 0.0286412 0)
(10.0512 0.0322251 0)
(10.0576 0.0359131 0)
(10.0643 0.0396505 0)
(10.0713 0.0433999 0)
(10.0782 0.0471079 0)
(10.0853 0.0507513 0)
(10.0924 0.0543418 0)
(10.0002 0.000157184 0)
(10.0016 0.000438904 0)
(10.0044 0.000970344 0)
(10.0084 0.00190151 0)
(10.0133 0.00316143 0)
(10.0185 0.00473912 0)
(10.0241 0.00667232 0)
(10.0303 0.00890156 0)
(10.0368 0.0112896 0)
(10.0431 0.0138034 0)
(10.0495 0.0164333 0)
(10.056 0.0192038 0)
(10.0628 0.0220665 0)
(10.0698 0.0249904 0)
(10.0769 0.027894 0)
(10.084 0.0307505 0)
(10.0912 0.0335167 0)
(10.0983 0.0362183 0)
(10.0002 -0.000689479 0)
(10.0018 -0.0020462 0)
(10.005 -0.00301285 0)
(10.0096 -0.00327358 0)
(10.0149 -0.0029957 0)
(10.0207 -0.00226962 0)
(10.0268 -0.00106941 0)
(10.0335 0.000513242 0)
(10.0403 0.0022806 0)
(10.0469 0.00417443 0)
(10.0536 0.0062101 0)
(10.0605 0.00841635 0)
(10.0676 0.0107312 0)
(10.0748 0.0131067 0)
(10.082 0.0154547 0)
(10.0892 0.0177484 0)
(10.0964 0.019951 0)
(10.1035 0.0220871 0)
(10.0002 -0.00150268 0)
(10.002 -0.00452104 0)
(10.0058 -0.00700728 0)
(10.011 -0.00841214 0)
(10.017 -0.0090116 0)
(10.0233 -0.00898736 0)
(10.03 -0.00832034 0)
(10.0371 -0.00722255 0)
(10.0441 -0.00592831 0)
(10.051 -0.00451454 0)
(10.058 -0.00292391 0)
(10.0652 -0.0011629 0)
(10.0725 0.000727883 0)
(10.0799 0.00263453 0)
(10.0872 0.00452289 0)
(10.0944 0.00632392 0)
(10.1015 0.00806285 0)
(10.1086 0.0097541 0)
(10.0002 -0.00227122 0)
(10.0021 -0.0070001 0)
(10.0066 -0.0109733 0)
(10.0127 -0.0133617 0)
(10.0193 -0.0147401 0)
(10.0263 -0.015348 0)
(10.0336 -0.0151659 0)
(10.041 -0.0144653 0)
(10.0482 -0.0135431 0)
(10.0554 -0.012461 0)
(10.0627 -0.0111826 0)
(10.0701 -0.00972562 0)
(10.0776 -0.00816924 0)
(10.085 -0.00661094 0)
(10.0923 -0.00509479 0)
(10.0995 -0.00364559 0)
(10.1065 -0.00226439 0)
(10.1137 -0.000880289 0)
(10.0002 -0.00295933 0)
(10.0022 -0.0098595 0)
(10.0075 -0.015096 0)
(10.0146 -0.0179195 0)
(10.0218 -0.0197947 0)
(10.0295 -0.0209911 0)
(10.0373 -0.0213339 0)
(10.0451 -0.0210767 0)
(10.0525 -0.0205132 0)
(10.0599 -0.0197117 0)
(10.0675 -0.0186652 0)
(10.0751 -0.0174269 0)
(10.0827 -0.0161144 0)
(10.0901 -0.0148009 0)
(10.0974 -0.0135376 0)
(10.1045 -0.0123229 0)
(10.1115 -0.0111732 0)
(10.1187 -0.0100091 0)
(9.99994 -0.00292763 0)
(10.002 -0.0136359 0)
(10.0086 -0.0205775 0)
(10.0167 -0.0232359 0)
(10.0243 -0.0248744 0)
(10.0325 -0.0260836 0)
(10.041 -0.0266041 0)
(10.0492 -0.0266362 0)
(10.0569 -0.0264072 0)
(10.0647 -0.0259223 0)
(10.0725 -0.0251573 0)
(10.0803 -0.0241945 0)
(10.0879 -0.023148 0)
(10.0952 -0.0220948 0)
(10.1023 -0.0210597 0)
(10.1093 -0.0200539 0)
(10.1161 -0.0190735 0)
(10.123 -0.0180573 0)
(9.99862 -3.86723e-05 0)
(9.99951 -0.0147377 0)
(10.0088 -0.0255827 0)
(10.019 -0.0301109 0)
(10.0276 -0.0320649 0)
(10.0366 -0.0326981 0)
(10.0457 -0.0324545 0)
(10.0543 -0.0319545 0)
(10.0623 -0.031467 0)
(10.0702 -0.0308986 0)
(10.078 -0.0301605 0)
(10.0855 -0.029296 0)
(10.0927 -0.0284095 0)
(10.0995 -0.0275528 0)
(10.106 -0.0267394 0)
(10.1122 -0.0259652 0)
(10.1183 -0.0252176 0)
(10.1244 -0.0244353 0)
(9.995 0.0015861 0)
(9.9934 -0.00747176 0)
(10.0073 -0.0190435 0)
(10.0223 -0.0301061 0)
(10.0342 -0.0378972 0)
(10.045 -0.0413032 0)
(10.0548 -0.0417254 0)
(10.063 -0.0410007 0)
(10.0701 -0.0399798 0)
(10.0767 -0.0387769 0)
(10.0829 -0.0374075 0)
(10.0884 -0.0359383 0)
(10.0934 -0.0344985 0)
(10.0978 -0.0331888 0)
(10.1018 -0.032027 0)
(10.1055 -0.0309973 0)
(10.1089 -0.0300849 0)
(10.1125 -0.0292204 0)
(9.9948 -0.0304608 0)
(9.9997 -0.0222054 0)
(10.016 -0.00215317 0)
(10.0325 -0.000807065 0)
(10.0466 -0.00975597 0)
(10.0584 -0.0184834 0)
(10.0668 -0.0243758 0)
(10.0713 -0.0282909 0)
(10.0731 -0.0308951 0)
(10.0733 -0.0324251 0)
(10.0725 -0.0330553 0)
(10.0706 -0.0329956 0)
(10.0679 -0.0324952 0)
(10.0644 -0.0318361 0)
(10.0605 -0.0311429 0)
(10.0564 -0.0304874 0)
(10.0522 -0.0299574 0)
(10.0484 -0.0294914 0)
(10.0271 -0.182659 0)
(10.0764 -0.28817 0)
(10.0878 -0.247271 0)
(10.0793 -0.18623 0)
(10.0689 -0.139978 0)
(10.0579 -0.107377 0)
(10.0428 -0.0843447 0)
(10.0226 -0.0683052 0)
(9.99952 -0.0572752 0)
(9.97507 -0.0494274 0)
(9.95038 -0.0435806 0)
(9.92564 -0.0389475 0)
(9.90116 -0.0351436 0)
(9.87714 -0.0319657 0)
(9.854 -0.0293053 0)
(9.83185 -0.0271311 0)
(9.81083 -0.0254036 0)
(9.79158 -0.0245374 0)
(9.93601 0.689419 0)
(9.86939 0.609762 0)
(9.76681 0.382201 0)
(9.63057 0.218753 0)
(9.49199 0.119925 0)
(9.36672 0.0636464 0)
(9.25596 0.0323344 0)
(9.15814 0.0147943 0)
(9.07212 0.0047504 0)
(8.99748 -0.00114394 0)
(8.93241 -0.00462769 0)
(8.87559 -0.00666459 0)
(8.82525 -0.00777507 0)
(8.78065 -0.00832313 0)
(8.74072 -0.00854992 0)
(8.70504 -0.00859328 0)
(8.67243 -0.00850503 0)
(8.643 -0.00891702 0)
(0.121242 -0.122266 -1.67348e-19)
(0.208567 -0.167148 8.56459e-20)
(0.317602 -0.163167 0)
(0.423245 -0.138075 0)
(0.498882 -0.108022 0)
(0.541995 -0.0788497 -5.37878e-20)
(0.559851 -0.0436712 0)
(0.549574 -0.00873799 0)
(0.517236 0.0199932 0)
(0.469562 0.0287874 0)
(0.425512 0.00789464 6.35644e-20)
(0.39009 -0.0228805 0)
(0.334833 -0.0304796 0)
(0.278925 -0.0332067 0)
(0.202743 -0.0137728 0)
(0.0979642 0.0221967 2.17433e-19)
(-0.0102626 0.0745809 0)
(-0.162313 0.124024 0)
(-0.346842 0.167777 0)
(-0.55072 0.203238 0)
(-0.768785 0.229779 0)
(-0.99622 0.247503 0)
(-1.22858 0.257252 0)
(-1.46148 0.26026 4.12988e-20)
(-1.69151 0.257973 -3.7951e-20)
(-1.91604 0.251846 3.55359e-20)
(-2.13309 0.243046 3.37916e-20)
(-2.34137 0.232524 0)
(-2.54003 0.220998 0)
(-2.72869 0.209001 -3.09816e-20)
(-2.90724 0.196915 -3.05322e-20)
(-3.07583 0.184974 0)
(-3.2347 0.173347 0)
(-3.38426 0.162097 -2.99185e-20)
(-3.52487 0.151261 0)
(-3.65695 0.140777 0)
(-3.78082 0.130604 2.99208e-20)
(-3.8968 0.120667 0)
(-4.00507 0.11095 3.01261e-20)
(-4.10576 0.101383 6.05617e-20)
(-4.19892 0.0919785 0)
(-4.28452 0.0827473 0)
(-4.36247 0.0738001 0)
(-4.43269 0.0650843 0)
(-4.49501 0.0565767 0)
(-4.54923 0.0482825 6.38872e-20)
(-4.59511 0.0403275 6.46515e-20)
(-4.63245 0.0322192 6.54369e-20)
(-4.66091 0.0237738 0)
(-4.68041 0.016068 -6.70035e-20)
(-4.69115 0.00975532 0)
(-4.69413 0.00304121 6.82548e-20)
(-4.68996 -0.00326799 6.86876e-20)
(-4.67912 -0.00826073 0)
(-4.66168 -0.01468 0)
(-4.63702 -0.0222957 0)
(-4.6057 -0.0267199 6.90656e-20)
(-4.56851 -0.0305837 0)
(-4.52485 -0.0377846 0)
(-4.47457 -0.0422832 0)
(-4.41908 -0.045297 0)
(-4.35801 -0.0494319 0)
(-4.29177 -0.0540121 0)
(-4.22005 -0.0587475 0)
(-4.14412 -0.061164 0)
(-4.06382 -0.0667475 -5.9066e-20)
(-3.97845 -0.0731757 0)
(-3.88905 -0.0747769 0)
(-3.7971 -0.077025 5.14916e-20)
(-3.70169 -0.0806026 4.85652e-20)
(-3.6037 -0.08153 0)
(-3.50413 -0.0801798 -4.19826e-20)
(-3.40426 -0.0785975 3.86507e-20)
(-3.30283 -0.0830806 0)
(-3.19866 -0.0841576 -3.12126e-20)
(-3.0957 -0.0802393 0)
(-2.99207 -0.0832861 0)
(-2.8873 -0.0837153 1.91746e-20)
(-2.78364 -0.0820747 0)
(-2.67974 -0.0809966 -1.05006e-20)
(-2.57768 -0.0799097 0)
(-2.47514 -0.0796431 1.32014e-21)
(-2.37466 -0.0782931 -3.46185e-21)
(-2.2738 -0.0775493 -8.40227e-21)
(-2.17526 -0.0758808 -2.70355e-20)
(-2.07659 -0.0766258 3.76719e-20)
(-1.97955 -0.0753076 0)
(-1.88384 -0.0745499 0)
(-1.78958 -0.0736923 0)
(-1.69658 -0.0728313 8.42027e-20)
(-1.60454 -0.0718852 9.71657e-20)
(-1.51341 -0.0709279 -1.10831e-19)
(-1.4233 -0.070013 0)
(-1.33426 -0.0691567 1.40599e-19)
(-1.24635 -0.0683398 1.56914e-19)
(-1.15957 -0.0675966 1.74354e-19)
(-1.07389 -0.0669252 0)
(-0.989278 -0.0663276 0)
(-0.905731 -0.0657951 0)
(-0.823216 -0.0653701 2.59008e-19)
(-0.741659 -0.0650747 0)
(-0.660987 -0.0648749 0)
(-0.581167 -0.064779 -3.4652e-19)
(-0.502201 -0.0648174 0)
(-0.424125 -0.0649662 0)
(-0.346944 -0.0651218 -4.70491e-19)
(-0.270663 -0.0654764 0)
(-0.195105 -0.0660692 0)
(-0.120721 -0.0668613 6.63399e-19)
(-0.0458641 -0.0668541 6.96203e-19)
(0.0308863 -0.0653306 0)
(0.107256 -0.0630204 -6.15154e-19)
(0.182783 -0.060594 0)
(0.257216 -0.0581246 5.47268e-19)
(0.330304 -0.055746 0)
(0.402084 -0.053577 4.97507e-19)
(0.472558 -0.0517144 4.77362e-19)
(0.541662 -0.0499769 0)
(0.609445 -0.0483741 0)
(0.675821 -0.0468121 0)
(0.740947 -0.0451611 0)
(0.804991 -0.0435064 0)
(0.867954 -0.0420693 0)
(0.929767 -0.0410588 0)
(0.989895 -0.0400983 3.75834e-19)
(1.0482 -0.0384193 -3.67628e-19)
(1.10516 -0.0368649 0)
(1.16014 -0.0352672 0)
(1.21319 -0.033432 0)
(1.26442 -0.0325221 0)
(1.31318 -0.031862 -6.719e-19)
(1.35937 -0.0302402 0)
(1.40348 -0.0280421 6.50026e-19)
(1.44542 -0.0258531 -6.40621e-19)
(1.48424 -0.0241454 0)
(1.51911 -0.022664 0)
(1.55014 -0.0200661 0)
(1.57594 -0.0162328 6.24113e-19)
(1.59881 -0.0141035 6.25279e-19)
(1.61711 -0.0141119 0)
(1.63003 -0.00987523 6.51669e-19)
(1.64104 -0.00936509 6.60132e-19)
(1.65766 -0.0249646 -6.64851e-19)
(1.68287 -0.0230157 0)
(1.70357 0.0449481 0)
(1.73017 0.0594224 -5.83065e-19)
(1.75909 0.00964791 0)
(1.80033 -0.00346111 0)
(1.84025 0.00999089 0)
(1.87718 0.00914459 0)
(1.91276 -0.00274804 5.37195e-19)
(1.94929 -0.00931094 5.31513e-19)
(1.98375 -0.0128742 0)
(2.01582 -0.0150169 5.25025e-19)
(2.04504 -0.0164501 0)
(2.07139 -0.0171082 0)
(2.09536 -0.0171471 5.20125e-19)
(2.11738 -0.0168053 0)
(2.1377 -0.0162433 5.17385e-19)
(2.15651 -0.0152489 0)
(2.174 -0.0139233 0)
(2.19053 -0.0123207 5.11687e-19)
(2.20633 -0.0106372 0)
(2.22159 -0.00947528 5.07922e-19)
(2.23595 -0.00893955 0)
(2.24992 -0.00871125 0)
(2.26319 -0.00845152 0)
(2.27645 -0.00815685 -5.02524e-19)
(2.28931 -0.00785655 0)
(2.302 -0.00745945 4.99621e-19)
(2.31426 -0.00695336 0)
(2.32596 -0.00637906 0)
(2.3369 -0.00580955 0)
(2.34663 -0.00517054 0)
(2.35467 -0.00419268 0)
(2.35897 -0.00232776 0)
(2.35728 0.000715575 0)
(2.34094 0.00605558 -1.00042e-18)
(2.31352 0.016941 0)
(2.20035 0.0321957 0)
(0.0677991 -0.441349 4.21043e-19)
(0.170074 -0.443196 -2.70676e-19)
(0.247483 -0.348099 0)
(0.299936 -0.251019 1.25596e-19)
(0.329539 -0.158681 0)
(0.336184 -0.0752523 5.83092e-20)
(0.322852 -0.00399388 -1.20037e-19)
(0.295889 0.052976 -1.20945e-19)
(0.253327 0.0954781 0)
(0.191437 0.123895 -1.3484e-19)
(0.107664 0.148833 -7.58644e-20)
(-0.0227424 0.185932 0)
(-0.190087 0.230994 0)
(-0.389405 0.301135 0)
(-0.612791 0.385254 0)
(-0.854893 0.463691 -4.35971e-20)
(-1.10204 0.529582 0)
(-1.35307 0.580411 6.35035e-20)
(-1.60029 0.614435 0)
(-1.83893 0.632763 0)
(-2.06567 0.637315 -4.72101e-20)
(-2.27854 0.630422 0)
(-2.47608 0.614545 4.20916e-20)
(-2.65818 0.59218 -1.99335e-20)
(-2.82547 0.56539 1.93404e-20)
(-2.97885 0.535892 -1.89652e-20)
(-3.11942 0.505088 -1.87562e-20)
(-3.24843 0.474069 0)
(-3.36704 0.443627 0)
(-3.47638 0.414289 1.87556e-20)
(-3.57745 0.38638 -1.93145e-20)
(-3.6711 0.360035 0)
(-3.75804 0.335283 0)
(-3.83883 0.31203 1.94012e-20)
(-3.9139 0.290152 0)
(-3.98356 0.269451 0)
(-4.04805 0.249753 -2.0025e-20)
(-4.10755 0.23084 0)
(-4.16216 0.212558 2.03952e-20)
(-4.21198 0.194721 -4.13656e-20)
(-4.25707 0.177235 0)
(-4.29749 0.159968 0)
(-4.3333 0.142883 -8.54742e-20)
(-4.36455 0.125896 -8.65274e-20)
(-4.39132 0.109043 -8.76214e-20)
(-4.41369 0.0922908 4.433e-20)
(-4.43179 0.0756823 -4.49089e-20)
(-4.44577 0.0591759 -1.3594e-19)
(-4.45588 0.0428554 9.13605e-20)
(-4.46208 0.0270152 4.62176e-20)
(-4.46423 0.011979 0)
(-4.46141 -0.00244468 -4.68194e-20)
(-4.45275 -0.0164993 4.6909e-20)
(-4.43765 -0.0302771 0)
(-4.41599 -0.0435663 0)
(-4.38824 -0.0566029 0)
(-4.35421 -0.0692521 -4.61166e-20)
(-4.31344 -0.0816413 0)
(-4.26654 -0.0935226 9.078e-20)
(-4.21391 -0.104798 0)
(-4.15507 -0.115388 8.81915e-20)
(-4.09053 -0.125518 0)
(-4.02064 -0.13483 -8.4832e-20)
(-3.94563 -0.143252 0)
(-3.86589 -0.151043 8.02945e-20)
(-3.78164 -0.158042 -3.96186e-20)
(-3.69398 -0.163863 0)
(-3.60314 -0.169085 -7.07128e-20)
(-3.50924 -0.173647 -3.2632e-20)
(-3.41267 -0.176866 -3.0699e-20)
(-3.31427 -0.17953 0)
(-3.21414 -0.181528 -2.84099e-20)
(-3.11164 -0.182334 -2.44272e-20)
(-3.00795 -0.182485 0)
(-2.90469 -0.182608 1.97514e-20)
(-2.80055 -0.182008 -3.6769e-20)
(-2.69556 -0.180699 0)
(-2.5917 -0.179229 -1.2586e-20)
(-2.48792 -0.177339 0)
(-2.38443 -0.175004 2.50376e-20)
(-2.28142 -0.172462 0)
(-2.17933 -0.169858 -1.01191e-20)
(-2.07819 -0.167161 -2.68199e-22)
(-1.97792 -0.164364 -4.85882e-22)
(-1.87871 -0.161691 -6.08342e-21)
(-1.78042 -0.158585 1.12254e-20)
(-1.6835 -0.155607 0)
(-1.58772 -0.152725 0)
(-1.49328 -0.149959 0)
(-1.40009 -0.147223 -1.03489e-19)
(-1.3079 -0.14444 -4.09814e-20)
(-1.21658 -0.141605 4.64388e-20)
(-1.12616 -0.138782 0)
(-1.03668 -0.136017 5.44191e-20)
(-0.94816 -0.133324 -6.34303e-20)
(-0.860601 -0.130719 -6.93407e-20)
(-0.77397 -0.12819 0)
(-0.688227 -0.125737 0)
(-0.603339 -0.123373 0)
(-0.519273 -0.121146 -9.45631e-20)
(-0.435966 -0.119046 0)
(-0.353355 -0.117021 2.13592e-19)
(-0.271383 -0.115072 3.43947e-19)
(-0.190014 -0.11328 -2.43485e-19)
(-0.109268 -0.111679 0)
(-0.0286364 -0.110342 -1.32648e-19)
(0.0518112 -0.10927 0)
(0.131455 -0.108433 -2.74641e-19)
(0.210274 -0.107899 1.37291e-19)
(0.28777 -0.10702 1.38832e-19)
(0.363358 -0.105298 0)
(0.437193 -0.102972 4.31061e-19)
(0.509785 -0.10037 -2.89626e-19)
(0.581283 -0.0976213 -1.47529e-19)
(0.651678 -0.0948259 0)
(0.720953 -0.0920455 -1.50266e-19)
(0.789098 -0.0893819 -4.52396e-19)
(0.85599 -0.0867997 0)
(0.921569 -0.0842241 -3.06056e-19)
(0.985971 -0.081612 -3.08247e-19)
(1.04925 -0.0790504 -3.10093e-19)
(1.1114 -0.0765913 0)
(1.17236 -0.0741871 0)
(1.23196 -0.0717903 0)
(1.29022 -0.0693722 1.57138e-19)
(1.34707 -0.0667562 1.59242e-19)
(1.40224 -0.0641206 0)
(1.4557 -0.0615455 3.1851e-19)
(1.50736 -0.0588151 3.1945e-19)
(1.55704 -0.0560021 0)
(1.60482 -0.0531795 3.20634e-19)
(1.65072 -0.0500542 6.36508e-19)
(1.69452 -0.0466864 -3.17574e-19)
(1.73595 -0.0431625 -3.13492e-19)
(1.77494 -0.0395471 0)
(1.81159 -0.0356691 0)
(1.84579 -0.0313426 0)
(1.87737 -0.0267563 -3.13139e-19)
(1.90687 -0.0230958 3.14761e-19)
(1.93406 -0.0207159 6.54814e-19)
(1.95926 -0.0188635 -3.44765e-19)
(1.98461 -0.0174356 3.55043e-19)
(2.00807 -0.0178385 3.70021e-19)
(2.02597 -0.025807 0)
(2.04562 -0.0371619 0)
(2.06689 -0.0342857 -3.79177e-19)
(2.08804 -0.0302574 0)
(2.10667 -0.0336025 0)
(2.1293 -0.0377552 7.69777e-19)
(2.15547 -0.036411 0)
(2.18105 -0.0330892 3.71033e-19)
(2.20528 -0.0301247 -3.6798e-19)
(2.22947 -0.0273832 0)
(2.25325 -0.0248757 3.66484e-19)
(2.27621 -0.0225607 0)
(2.29813 -0.0202995 0)
(2.31911 -0.0182485 -3.68981e-19)
(2.33915 -0.0165182 7.37856e-19)
(2.35831 -0.0151587 -3.69599e-19)
(2.37648 -0.0139933 0)
(2.39393 -0.0129705 0)
(2.41083 -0.0120609 3.66269e-19)
(2.42727 -0.0113397 0)
(2.44313 -0.0109168 3.64046e-19)
(2.45856 -0.0105635 0)
(2.4736 -0.010179 0)
(2.48839 -0.00982058 0)
(2.50319 -0.00962398 3.61732e-19)
(2.51777 -0.00939839 0)
(2.532 -0.0090114 -3.59948e-19)
(2.54572 -0.00858958 0)
(2.559 -0.00803747 0)
(2.57187 -0.00726306 7.14905e-19)
(2.5837 -0.00621728 -7.14194e-19)
(2.594 -0.00452453 0)
(2.60228 -0.00162449 0)
(2.60933 0.00321002 0)
(2.61062 0.0115979 2.14429e-18)
(2.61196 0.0296388 0)
(2.58915 0.0592497 -1.44017e-18)
(0.0176199 -0.619586 -6.48452e-22)
(0.0583065 -0.55783 2.85604e-19)
(0.0622863 -0.425668 0)
(0.0505091 -0.288443 -2.20393e-19)
(0.0257215 -0.15693 0)
(-0.0150723 -0.0358716 0)
(-0.0753859 0.0749564 2.91647e-22)
(-0.157809 0.177049 9.83523e-20)
(-0.266533 0.273604 9.09987e-20)
(-0.405284 0.370604 8.43513e-20)
(-0.574408 0.473403 0)
(-0.771404 0.58067 0)
(-0.986673 0.683622 -5.94151e-20)
(-1.21013 0.777673 -1.06753e-19)
(-1.43154 0.856525 9.6815e-20)
(-1.64357 0.915884 0)
(-1.84248 0.955429 8.23302e-20)
(-2.02415 0.976046 -3.85146e-20)
(-2.1879 0.979157 0)
(-2.33448 0.966983 6.83831e-20)
(-2.46567 0.94219 3.17436e-20)
(-2.58354 0.907743 -6.27911e-20)
(-2.69041 0.866516 -2.92527e-20)
(-2.78871 0.82112 0)
(-2.88013 0.773744 5.8603e-20)
(-2.96612 0.726093 5.79477e-20)
(-3.04787 0.679382 0)
(-3.12628 0.63444 5.72927e-20)
(-3.20196 0.591771 0)
(-3.27532 0.551615 5.72598e-20)
(-3.34659 0.514022 2.81695e-20)
(-3.41586 0.478898 0)
(-3.48314 0.446064 0)
(-3.54836 0.415271 0)
(-3.61141 0.386251 0)
(-3.67217 0.35872 0)
(-3.73047 0.332411 0)
(-3.78616 0.307074 6.02396e-20)
(-3.83907 0.282499 -9.12271e-20)
(-3.88903 0.258504 0)
(-3.93584 0.234954 0)
(-3.97932 0.211736 0)
(-4.01926 0.188773 1.53945e-22)
(-4.05543 0.165988 6.42299e-20)
(-4.08759 0.143331 1.29747e-19)
(-4.1155 0.120752 -1.31177e-19)
(-4.1389 0.0982121 -6.62332e-20)
(-4.1575 0.0756458 6.69616e-20)
(-4.17106 0.0530608 3.6848e-26)
(-4.17917 0.0305369 6.81993e-20)
(-4.18161 0.00809503 0)
(-4.17804 -0.014386 6.88451e-20)
(-4.16839 -0.0367693 2.94338e-22)
(-4.1524 -0.0588709 0)
(-4.13006 -0.0806033 0)
(-4.10141 -0.101894 -6.86731e-20)
(-4.06636 -0.122493 0)
(-4.02495 -0.142389 0)
(-3.97729 -0.161619 6.77042e-20)
(-3.92363 -0.179829 1.31898e-19)
(-3.86389 -0.196854 -6.39047e-20)
(-3.79859 -0.212727 0)
(-3.72784 -0.227406 6.11301e-20)
(-3.65227 -0.240812 0)
(-3.57219 -0.25307 5.97502e-20)
(-3.48808 -0.263987 5.49568e-20)
(-3.40038 -0.273418 -1.07724e-19)
(-3.30967 -0.281168 -5.25574e-20)
(-3.21608 -0.287595 0)
(-3.12009 -0.292563 9.14072e-20)
(-3.02221 -0.296108 0)
(-2.92258 -0.298465 1.17636e-19)
(-2.82143 -0.299591 7.30502e-20)
(-2.71943 -0.299718 6.65042e-20)
(-2.61725 -0.298838 -5.97689e-20)
(-2.51453 -0.297128 7.84274e-20)
(-2.41174 -0.29473 0)
(-2.30934 -0.291765 0)
(-2.20724 -0.288226 -3.26508e-20)
(-2.10566 -0.284174 -3.75814e-20)
(-2.00464 -0.279825 0)
(-1.90457 -0.275204 4.95515e-21)
(-1.8053 -0.270477 0)
(-1.70714 -0.265527 3.36212e-21)
(-1.60988 -0.260664 2.10757e-21)
(-1.51372 -0.255659 -2.07709e-21)
(-1.41867 -0.250647 -2.18215e-20)
(-1.32478 -0.245715 0)
(-1.23211 -0.240894 3.52745e-20)
(-1.14064 -0.236144 1.98465e-21)
(-1.05016 -0.231413 0)
(-0.960533 -0.226693 0)
(-0.871769 -0.222022 0)
(-0.78389 -0.217439 -7.0962e-20)
(-0.696889 -0.212966 0)
(-0.610755 -0.208612 0)
(-0.525467 -0.204384 0)
(-0.440979 -0.20028 0)
(-0.357261 -0.196293 0)
(-0.274281 -0.192444 -1.11298e-19)
(-0.191978 -0.188754 0)
(-0.110299 -0.185218 -1.28002e-19)
(-0.029027 -0.181842 -1.33727e-19)
(0.0517623 -0.178671 1.37707e-19)
(0.131791 -0.175657 0)
(0.210967 -0.172717 1.45212e-19)
(0.289196 -0.16977 0)
(0.366389 -0.166854 1.52167e-19)
(0.442478 -0.163971 -1.55483e-19)
(0.517306 -0.161104 -4.72842e-19)
(0.590731 -0.158151 0)
(0.662804 -0.154983 -4.92327e-19)
(0.733679 -0.151608 -1.65279e-19)
(0.803399 -0.148085 0)
(0.871965 -0.144469 -3.46376e-19)
(0.939379 -0.140819 -3.52513e-19)
(1.00559 -0.137176 5.39138e-19)
(1.07054 -0.133589 0)
(1.13421 -0.130003 1.86453e-19)
(1.1966 -0.12638 1.89223e-19)
(1.25776 -0.122771 5.73049e-19)
(1.31769 -0.119192 0)
(1.37633 -0.115632 0)
(1.4336 -0.112041 0)
(1.4894 -0.108336 1.98407e-19)
(1.54366 -0.10454 0)
(1.59638 -0.100666 0)
(1.64752 -0.0966353 -2.04634e-19)
(1.69704 -0.0925211 -2.05715e-19)
(1.74496 -0.0882594 0)
(1.79112 -0.083806 0)
(1.83548 -0.0792399 -4.12507e-19)
(1.878 -0.0745082 0)
(1.91872 -0.0695783 4.08872e-19)
(1.9577 -0.064441 4.0558e-19)
(1.99491 -0.0590646 0)
(2.03034 -0.0534986 0)
(2.0644 -0.047905 -4.01778e-19)
(2.09707 -0.0430308 -7.3804e-22)
(2.12868 -0.0391798 -1.05005e-21)
(2.15929 -0.0360423 0)
(2.18908 -0.0347944 -8.89827e-19)
(2.21681 -0.0361657 0)
(2.24078 -0.0377575 0)
(2.26541 -0.0373639 0)
(2.29135 -0.0396739 5.3881e-19)
(2.31568 -0.0451868 0)
(2.33604 -0.0467127 -1.15143e-18)
(2.35598 -0.0446908 -5.89784e-19)
(2.37633 -0.0433216 0)
(2.39598 -0.0427952 -5.95061e-19)
(2.41454 -0.0414862 0)
(2.43291 -0.0395664 0)
(2.45131 -0.0373303 -1.807e-18)
(2.46952 -0.0348961 1.2098e-18)
(2.48736 -0.0324195 0)
(2.50497 -0.0300752 1.22002e-18)
(2.5223 -0.0280089 -6.12736e-19)
(2.53929 -0.0262399 0)
(2.55571 -0.0247145 0)
(2.57168 -0.023335 0)
(2.58735 -0.0221545 -1.83625e-18)
(2.60289 -0.0212206 0)
(2.61815 -0.0204708 -6.09249e-19)
(2.63333 -0.0198298 0)
(2.64829 -0.0192101 0)
(2.66334 -0.0185852 0)
(2.67821 -0.0180071 0)
(2.69308 -0.0175549 0)
(2.70775 -0.0170691 0)
(2.72225 -0.0163895 -1.20709e-18)
(2.7365 -0.0153896 0)
(2.75031 -0.0141953 -6.01734e-19)
(2.76321 -0.0125536 1.80199e-18)
(2.77506 -0.0100904 0)
(2.78472 -0.00623636 0)
(2.79235 6.27593e-05 -1.199e-18)
(2.79469 0.0105326 -1.20209e-18)
(2.79663 0.0306105 1.2008e-18)
(2.78395 0.0672553 1.20995e-18)
(-0.0454878 -0.602879 -5.26676e-19)
(-0.0594902 -0.486884 -3.3679e-19)
(-0.121635 -0.335738 -1.79704e-19)
(-0.197331 -0.175818 -8.01749e-20)
(-0.283287 -0.0149141 0)
(-0.38398 0.143795 1.42611e-19)
(-0.502837 0.299133 -6.51383e-20)
(-0.641147 0.450759 0)
(-0.79833 0.597822 -5.87582e-20)
(-0.970915 0.738239 0)
(-1.15303 0.868253 9.53151e-20)
(-1.33699 0.982724 0)
(-1.51493 1.07631 4.13993e-20)
(-1.68085 1.14681 7.66593e-20)
(-1.83042 1.1937 -7.12372e-20)
(-1.96294 1.21862 0)
(-2.07888 1.22376 -6.24937e-20)
(-2.18007 1.21178 0)
(-2.26907 1.18581 0)
(-2.34844 1.14908 -5.37804e-20)
(-2.42074 1.10461 0)
(-2.48827 1.0551 -1.78436e-21)
(-2.55294 1.00293 0)
(-2.61618 0.949893 0)
(-2.67894 0.897293 1.71135e-21)
(-2.74181 0.846087 -4.74281e-20)
(-2.80511 0.796904 -4.87038e-20)
(-2.86892 0.750095 -4.71951e-20)
(-2.93316 0.705801 0)
(-2.99767 0.664 -9.58534e-20)
(-3.06217 0.624561 0)
(-3.12639 0.587277 -4.86852e-20)
(-3.19002 0.5519 0)
(-3.25275 0.518156 0)
(-3.31427 0.485767 4.94952e-20)
(-3.37428 0.454464 0)
(-3.43249 0.423999 -5.02573e-20)
(-3.48863 0.394144 2.14595e-22)
(-3.54242 0.364702 1.02155e-19)
(-3.59357 0.335507 -1.03331e-19)
(-3.64182 0.306424 0)
(-3.68686 0.277339 0)
(-3.7284 0.248162 -5.34534e-20)
(-3.76612 0.218822 0)
(-3.79971 0.189266 -5.45558e-20)
(-3.82885 0.159451 5.51919e-20)
(-3.85321 0.129345 5.58165e-20)
(-3.87248 0.0989371 0)
(-3.8864 0.0682625 -5.69956e-20)
(-3.89468 0.0374146 -5.74914e-20)
(-3.89711 0.00648062 1.16275e-19)
(-3.89345 -0.0245014 -5.79454e-20)
(-3.88359 -0.0554098 -5.80504e-20)
(-3.86742 -0.0860653 0)
(-3.84485 -0.116274 0)
(-3.81586 -0.145878 5.77073e-20)
(-3.78044 -0.174687 0)
(-3.73865 -0.202534 0)
(-3.69061 -0.22926 -1.12219e-19)
(-3.6365 -0.254665 -1.10557e-19)
(-3.5765 -0.278563 0)
(-3.51097 -0.300793 0)
(-3.44015 -0.321133 0)
(-3.36453 -0.339425 0)
(-3.28448 -0.356036 -9.70636e-20)
(-3.20056 -0.370744 9.54206e-20)
(-3.11306 -0.38331 8.90837e-20)
(-3.02246 -0.393762 1.71518e-19)
(-2.92916 -0.402264 0)
(-2.8336 -0.40881 2.00757e-21)
(-2.73622 -0.413504 0)
(-2.63736 -0.416497 -6.50832e-20)
(-2.5374 -0.417826 1.78044e-21)