# vtk DataFile Version 2.0
track0
ASCII
DATASET POLYDATA
POINTS 12065 float
-0.0205 0.001 1e-05
-0.02052 0.000999985 1e-05
-0.02054 0.000999974 1e-05
-0.02056 0.000999965 1e-05
-0.02058 0.000999959 1e-05
-0.0206 0.000999956 1e-05
-0.0205 0.00367778 1e-05
-0.02052 0.00367778 1e-05
-0.02054 0.00367777 1e-05
-0.02056 0.00367777 1e-05
-0.02058 0.00367777 1e-05
-0.0206 0.00367777 1e-05
-0.0205 0.00635556 1e-05
-0.02052 0.00635555 1e-05
-0.02054 0.00635555 1e-05
-0.02056 0.00635555 1e-05
-0.02058 0.00635555 1e-05
-0.0206 0.00635555 1e-05
-0.0205 0.00903333 1e-05
-0.02052 0.00903333 1e-05
-0.02054 0.00903333 1e-05
-0.02056 0.00903333 1e-05
-0.02058 0.00903333 1e-05
-0.0206 0.00903333 1e-05
-0.0205 0.0117111 1e-05
-0.02052 0.0117111 1e-05
-0.02054 0.0117111 1e-05
-0.02056 0.0117111 1e-05
-0.02058 0.0117111 1e-05
-0.0206 0.0117111 1e-05
-0.0205 0.0143889 1e-05
-0.02052 0.0143889 1e-05
-0.02054 0.0143889 1e-05
-0.02056 0.0143889 1e-05
-0.02058 0.0143889 1e-05
-0.0206 0.0143889 1e-05
-0.0205 0.0170667 1e-05
-0.02052 0.0170667 1e-05
-0.02054 0.0170667 1e-05
-0.02056 0.0170667 1e-05
-0.02058 0.0170667 1e-05
-0.0206 0.0170667 1e-05
-0.0205 0.0197444 1e-05
-0.02052 0.0197444 1e-05
-0.02054 0.0197444 1e-05
-0.02056 0.0197444 1e-05
-0.02058 0.0197444 1e-05
-0.0206 0.0197444 1e-05
-0.0205 0.0224222 1e-05
-0.02052 0.0224222 1e-05
-0.02054 0.0224222 1e-05
-0.02056 0.0224222 1e-05
-0.02058 0.0224222 1e-05
-0.0206 0.0224222 1e-05
-0.0205 0.0251 1e-05
-0.02052 0.0250998 1e-05
-0.02054 0.0250997 1e-05
-0.02056 0.0250995 1e-05
-0.02058 0.0250995 1e-05
-0.0206 0.0250994 1e-05
-0.0205 0.001 1e-05
-0.0202034 0.00100022 1e-05
-0.0199069 0.00100067 1e-05
-0.0196103 0.00100133 1e-05
-0.0193137 0.0010022 1e-05
-0.0190172 0.00100327 1e-05
-0.0187132 0.00100468 1e-05
-0.0184093 0.0010059 1e-05
-0.0181054 0.00100712 1e-05
-0.0178015 0.00100834 1e-05
-0.0174976 0.00100955 1e-05
-0.0172058 0.00101085 1e-05
-0.016914 0.00101196 1e-05
-0.0166222 0.00101306 1e-05
-0.0163305 0.00101416 1e-05
-0.0160387 0.00101526 1e-05
-0.0157586 0.00101641 1e-05
-0.0154784 0.00101749 1e-05
-0.0151983 0.00101862 1e-05
-0.0149182 0.00101978 1e-05
-0.0146381 0.00102097 1e-05
-0.0143791 0.00102214 1e-05
-0.0141201 0.00102331 1e-05
-0.0138611 0.00102452 1e-05
-0.0136021 0.00102575 1e-05
-0.0133835 0.00102682 1e-05
-0.0133655 0.00102691 1e-05
-0.0133475 0.001027 1e-05
-0.0133295 0.00102709 1e-05
-0.0133115 0.00102718 1e-05
-0.0132934 0.00102727 1e-05
-0.0130353 0.00102856 1e-05
-0.0127771 0.00102988 1e-05
-0.0125189 0.00103121 1e-05
-0.0122607 0.00103256 1e-05
-0.0120025 0.00103392 1e-05
-0.0117547 0.00103524 1e-05
-0.0115068 0.00103657 1e-05
-0.0112589 0.0010379 1e-05
-0.0110111 0.00103924 1e-05
-0.0107632 0.00104059 1e-05
-0.0105252 0.00104188 1e-05
-0.0102873 0.00104318 1e-05
-0.0100493 0.00104447 1e-05
-0.00981133 0.00104577 1e-05
-0.00957337 0.00104707 1e-05
-0.00934491 0.00104831 1e-05
-0.00911645 0.00104955 1e-05
-0.00888799 0.0010508 1e-05
-0.00865954 0.00105204 1e-05
-0.00843108 0.00105328 1e-05
-0.00821175 0.00105446 1e-05
-0.00799242 0.00105564 1e-05
-0.00777309 0.00105682 1e-05
-0.00755376 0.001058 1e-05
-0.00733443 0.00105918 1e-05
-0.00712387 0.0010603 1e-05
-0.0069133 0.00106143 1e-05
-0.00670273 0.00106255 1e-05
-0.00649216 0.00106367 1e-05
-0.0062816 0.00106479 1e-05
-0.00607944 0.00106586 1e-05
-0.00587729 0.00106693 1e-05
-0.00567514 0.001068 1e-05
-0.00547298 0.00106906 1e-05
-0.00527083 0.00107013 1e-05
-0.00507675 0.00107115 1e-05
-0.00488267 0.00107217 1e-05
-0.0046886 0.00107319 1e-05
-0.00449452 0.00107421 1e-05
-0.00430044 0.00107523 1e-05
-0.00411412 0.00107621 1e-05
-0.0039278 0.0010772 1e-05
-0.00374147 0.00107818 1e-05
-0.00355515 0.00107917 1e-05
-0.00336883 0.00108017 1e-05
-0.00318995 0.00108112 1e-05
-0.00301107 0.00108208 1e-05
-0.00283219 0.00108305 1e-05
-0.00265331 0.00108403 1e-05
-0.00247443 0.00108501 1e-05
-0.0023027 0.00108596 1e-05
-0.00213097 0.00108693 1e-05
-0.00195924 0.00108791 1e-05
-0.00178751 0.00108891 1e-05
-0.00161577 0.00108992 1e-05
-0.0014509 0.00109089 1e-05
-0.00128603 0.00109189 1e-05
-0.00112116 0.00109292 1e-05
-0.00095629 0.00109399 1e-05
-0.000791418 0.00109508 1e-05
-0.000633135 0.00109615 1e-05
-0.000474851 0.00109726 1e-05
-0.000316568 0.00109842 1e-05
-0.000158285 0.00109961 1e-05
0 0.00110083 1e-05
0.000105677 0.00110167 1e-05
0.000211355 0.00110252 1e-05
0.000317032 0.00110339 1e-05
0.000422709 0.00110426 1e-05
0.000528387 0.00110514 1e-05
0.000634886 0.00110603 1e-05
0.000741385 0.00110692 1e-05
0.000847885 0.00110779 1e-05
0.000954384 0.00110866 1e-05
0.00106088 0.00110953 1e-05
0.00116821 0.00111039 1e-05
0.00127554 0.00111123 1e-05
0.00138286 0.00111207 1e-05
0.00149019 0.00111288 1e-05
0.00159752 0.00111368 1e-05
0.00170568 0.00111447 1e-05
0.00181384 0.00111525 1e-05
0.001922 0.00111601 1e-05
0.00203016 0.00111675 1e-05
0.00213833 0.00111748 1e-05
0.00224733 0.00111819 1e-05
0.00235633 0.00111889 1e-05
0.00246533 0.00111958 1e-05
0.00257434 0.00112025 1e-05
0.00268334 0.00112091 1e-05
0.00279319 0.00112154 1e-05
0.00290304 0.00112218 1e-05
0.00301289 0.0011228 1e-05
0.00312274 0.0011234 1e-05
0.00323259 0.00112399 1e-05
0.00334329 0.00112456 1e-05
0.003454 0.00112513 1e-05
0.0035647 0.00112568 1e-05
0.0036754 0.00112622 1e-05
0.00378611 0.00112674 1e-05
0.00389767 0.00112725 1e-05
0.00400924 0.00112776 1e-05
0.0041208 0.00112825 1e-05
0.00423237 0.00112873 1e-05
0.00434393 0.0011292 1e-05
0.00445636 0.00112965 1e-05
0.00456879 0.00113009 1e-05
0.00468123 0.00113053 1e-05
0.00479366 0.00113095 1e-05
0.00490609 0.00113136 1e-05
0.0050194 0.00113175 1e-05
0.0051327 0.00113214 1e-05
0.00524601 0.00113252 1e-05
0.00535932 0.00113289 1e-05
0.00547262 0.00113325 1e-05
0.00558681 0.00113359 1e-05
0.005701 0.00113393 1e-05
0.00581518 0.00113426 1e-05
0.00592937 0.00113458 1e-05
0.00604356 0.00113488 1e-05
0.00615863 0.00113518 1e-05
0.00627371 0.00113547 1e-05
0.00638878 0.00113575 1e-05
0.00650386 0.00113603 1e-05
0.00661893 0.00113629 1e-05
0.0067349 0.00113654 1e-05
0.00685087 0.00113679 1e-05
0.00696684 0.00113703 1e-05
0.00708281 0.00113726 1e-05
0.00719878 0.00113749 1e-05
0.00731565 0.0011377 1e-05
0.00743252 0.00113791 1e-05
0.00754939 0.00113811 1e-05
0.00766626 0.00113831 1e-05
0.00778313 0.00113849 1e-05
0.00790091 0.00113867 1e-05
0.00801869 0.00113884 1e-05
0.00813647 0.00113901 1e-05
0.00825425 0.00113917 1e-05
0.00837203 0.00113933 1e-05
0.00849073 0.00113947 1e-05
0.00860942 0.00113961 1e-05
0.00872812 0.00113974 1e-05
0.00884682 0.00113987 1e-05
0.00896551 0.00113999 1e-05
0.00908513 0.00114011 1e-05
0.00920475 0.00114022 1e-05
0.00932437 0.00114032 1e-05
0.00944398 0.00114042 1e-05
0.0095636 0.00114051 1e-05
0.00964053 0.00114056 1e-05
0.00971746 0.00114062 1e-05
0.00979439 0.00114067 1e-05
0.00987133 0.00114072 1e-05
0.00994652 0.00114076 1e-05
0.00999049 0.00114079 1e-05
0.0100345 0.00114081 1e-05
0.0100784 0.00114083 1e-05
0.0101224 0.00114085 1e-05
0.0101663 0.00114088 1e-05
0.0102878 0.00114093 1e-05
0.0104093 0.00114098 1e-05
0.0105308 0.00114103 1e-05
0.0106523 0.00114107 1e-05
0.0107738 0.0011411 1e-05
0.0108962 0.00114113 1e-05
0.0110186 0.00114115 1e-05
0.0111411 0.00114117 1e-05
0.0112635 0.00114118 1e-05
0.0113859 0.00114118 1e-05
0.0115093 0.00114118 1e-05
0.0116327 0.00114118 1e-05
0.0117561 0.00114117 1e-05
0.0118795 0.00114115 1e-05
0.0120028 0.00114113 1e-05
0.0121272 0.0011411 1e-05
0.0122515 0.00114107 1e-05
0.0123759 0.00114103 1e-05
0.0125002 0.00114099 1e-05
0.0126245 0.00114094 1e-05
0.0127498 0.00114089 1e-05
0.0128752 0.00114083 1e-05
0.0130005 0.00114077 1e-05
0.0131258 0.0011407 1e-05
0.0132511 0.00114062 1e-05
0.0133774 0.00114054 1e-05
0.0135036 0.00114046 1e-05
0.0136299 0.00114037 1e-05
0.0137562 0.00114027 1e-05
0.0138825 0.00114017 1e-05
0.0140098 0.00114007 1e-05
0.014137 0.00113996 1e-05
0.0142643 0.00113984 1e-05
0.0143915 0.00113972 1e-05
0.0145188 0.00113959 1e-05
0.0146471 0.00113946 1e-05
0.0147753 0.00113932 1e-05
0.0149036 0.00113918 1e-05
0.0150318 0.00113903 1e-05
0.0151601 0.00113887 1e-05
0.0152893 0.00113872 1e-05
0.0154186 0.00113855 1e-05
0.0155478 0.00113837 1e-05
0.0156771 0.00113819 1e-05
0.0158063 0.001138 1e-05
0.0159366 0.00113783 1e-05
0.0160668 0.00113763 1e-05
0.0161971 0.00113742 1e-05
0.0163274 0.00113721 1e-05
0.0164576 0.00113699 1e-05
0.0165889 0.00113678 1e-05
0.0167201 0.00113655 1e-05
0.0168514 0.00113632 1e-05
0.0169827 0.00113607 1e-05
0.0171139 0.00113582 1e-05
0.0172462 0.00113558 1e-05
0.0173785 0.00113532 1e-05
0.0175108 0.00113505 1e-05
0.0176431 0.00113477 1e-05
0.0177754 0.00113449 1e-05
0.0179087 0.00113422 1e-05
0.018042 0.00113392 1e-05
0.0181753 0.00113362 1e-05
0.0183087 0.0011333 1e-05
0.018442 0.00113298 1e-05
0.0185763 0.00113268 1e-05
0.0187107 0.00113235 1e-05
0.018845 0.00113201 1e-05
0.0189794 0.00113166 1e-05
0.0191137 0.00113131 1e-05
0.0192491 0.00113097 1e-05
0.0193845 0.00113061 1e-05
0.0195199 0.00113023 1e-05
0.0196553 0.00112984 1e-05
0.0197907 0.00112945 1e-05
0.0199272 0.00112908 1e-05
0.0200636 0.00112868 1e-05
0.0202001 0.00112826 1e-05
0.0203365 0.00112783 1e-05
0.020473 0.0011274 1e-05
0.0206105 0.00112699 1e-05
0.020748 0.00112655 1e-05
0.0208855 0.00112609 1e-05
0.021023 0.00112562 1e-05
0.0211606 0.00112515 1e-05
0.0212991 0.0011247 1e-05
0.0214377 0.00112422 1e-05
0.0215763 0.00112371 1e-05
0.0217149 0.00112319 1e-05
0.0218535 0.00112268 1e-05
0.0219931 0.00112219 1e-05
0.0221328 0.00112166 1e-05
0.0222724 0.00112111 1e-05
0.0224121 0.00112055 1e-05
0.0225517 0.00111999 1e-05
0.0226925 0.00111945 1e-05
0.0228332 0.00111888 1e-05
0.022974 0.00111828 1e-05
0.0231147 0.00111766 1e-05
0.0232555 0.00111706 1e-05
0.0233973 0.00111647 1e-05
0.0235391 0.00111585 1e-05
0.023681 0.0011152 1e-05
0.0238228 0.00111454 1e-05
0.0239647 0.00111389 1e-05
0.0241076 0.00111325 1e-05
0.0242505 0.00111258 1e-05
0.0243935 0.00111188 1e-05
0.0245364 0.00111116 1e-05
0.0246794 0.00111046 1e-05
0.0248234 0.00110977 1e-05
0.0249675 0.00110905 1e-05
0.0251115 0.0011083 1e-05
0.0252556 0.00110753 1e-05
[...]
POINT_DATA 12065
 FIELD attributes 1
U 3 12065 float
10.0004 	0.00735147 	0 10.0004 	0.00588117 	0 10.0003 	0.00441088 	0 10.0002 	0.00294059 	0 10.0001 	0.00147029 	0 10 	0 	0
10 	0.000892015 	0 10 	0.000713612 	0 10 	0.000535209 	0 10 	0.000356806 	0 10 	0.000178403 	0 10 	0 	0
10.0001 	0.000484934 	0 10.0001 	0.000387789 	0 10.0001 	0.000290645 	0 10 	0.0001935 	0 10 	9.63554e-05 	0 10 	0 	0
10 	0.000294404 	0 10 	0.000235523 	0 10 	0.000176642 	0 10 	0.000117762 	0 10 	5.88808e-05 	0 10 	0 	0
10 	0.000110342 	0 10 	8.82739e-05 	0 10 	6.62054e-05 	0 10 	4.41369e-05 	0 10 	2.20685e-05 	0 10 	0 	0
10 	2.03046e-06 	0 10 	1.62437e-06 	0 10 	1.21828e-06 	0 10 	8.12184e-07 	0 10 	4.06092e-07 	0 10 	0 	0
10 	-0.000194387 	0 10 	-0.00015551 	0 10 	-0.000116632 	0 10 	-7.7755e-05 	0 10 	-3.88775e-05 	0 10 	0 	0
10 	-0.000362521 	0 10 	-0.000290017 	0 10 	-0.000217513 	0 10 	-0.000145008 	0 10 	-7.25042e-05 	0 10 	0 	0
9.99999 	-0.00041709 	0 9.99999 	-0.000333672 	0 9.99999 	-0.000250254 	0 10 	-0.000166836 	0 10 	-8.34181e-05 	0 10 	0 	0
9.17388 	0.0871282 	0 9.13081 	0.0697025 	0 9.08741 	0.0522766 	0 9.04368 	0.0348505 	0 8.99963 	0.0174242 	0 8.95524 	0 	0
10.0004 	0.00735147 	0 10.0024 	0.0152203 	0 10.0045 	0.0222528 	0 10.0065 	0.0292407 	0 10.0085 	0.0361843 	0 10.0135 	0.0463854 	0 10.0163 	0.0402783 	0 10.0207 	0.0402409 	0 10.0252 	0.0402036 	0 10.0296 	0.0401664 	0 10.0355 	0.0446326 	0 10.0383 	0.0380149 	0 10.0423 	0.0379862 	0 10.0462 	0.0379576 	0 10.0501 	0.0379289 	0 10.0542 	0.041035 	0 10.0563 	0.0389858 	0 10.0587 	0.0403136 	0 10.0611 	0.0416431 	0 10.0635 	0.0429743 	0 10.0656 	0.045438 	0 10.067 	0.0455623 	0 10.0683 	0.0467658 	0 10.0695 	0.0479704 	0 10.0708 	0.0491761 	0 10.0718 	0.0501949 	0 10.0719 	0.0502794 	0 10.072 	0.0503639 	0 10.0721 	0.0504484 	0 10.0722 	0.0505329 	0 10.0723 	0.0506049 	0 10.0727 	0.0512607 	0 10.0732 	0.0519084 	0 10.0736 	0.0525566 	0 10.074 	0.0532053 	0 10.0744 	0.0536869 	0 10.0742 	0.054018 	0 10.0738 	0.0542412 	0 10.0733 	0.0544647 	0 10.0728 	0.0546882 	0 10.0722 	0.0546711 	0 10.0716 	0.0548601 	0 10.0704 	0.0548782 	0 10.0692 	0.0548963 	0 10.068 	0.0549145 	0 10.0663 	0.0546626 	0 10.0658 	0.0547993 	0 10.064 	0.0547194 	0 10.0622 	0.0546395 	0 10.0604 	0.0545596 	0 10.0577 	0.0541944 	0 10.0575 	0.0543233 	0 10.0553 	0.0542005 	0 10.053 	0.0540777 	0 10.0508 	0.0539549 	0 10.047 	0.0535369 	0 10.0475 	0.0536923 	0 10.0449 	0.0535711 	0 10.0423 	0.0534498 	0 10.0398 	0.0533286 	0 10.0348 	0.0529082 	0 10.0361 	0.0531242 	0 10.0333 	0.053039 	0 10.0304 	0.0529537 	0 10.0276 	0.0528685 	0 10.0214 	0.0524766 	0 10.0237 	0.0527827 	0 10.0206 	0.0527799 	0 10.0176 	0.0527771 	0 10.0146 	0.0527743 	0 10.0072 	0.0524724 	0 10.0105 	0.0529217 	0 10.0073 	0.0530392 	0 10.0041 	0.0531569 	0 10.0008 	0.0532745 	0 9.99207 	0.0530869 	0 9.99665 	0.0537534 	0 9.99334 	0.0541712 	0 9.99003 	0.0545891 	0 9.98673 	0.0550071 	0 9.97668 	0.05519 	0 9.9827 	0.056286 	0 9.97934 	0.0570481 	0 9.97598 	0.0578105 	0 9.97263 	0.058573 	0 9.9612 	0.0589946 	0 9.96891 	0.0605627 	0 9.96596 	0.0623274 	0 9.96302 	0.0640924 	0 9.9601 	0.0658577 	0 9.94787 	0.0674706 	0 9.95811 	0.0700867 	6.93368e-22 9.957 	0.0724857 	6.54136e-21 9.9559 	0.074885 	1.23865e-20 9.95482 	0.0772847 	1.82287e-20 9.94306 	0.0786667 	1.46825e-20 9.95587 	0.080422 	1.16317e-19 9.95592 	0.0813313 	1.08981e-19 9.95598 	0.0822406 	1.01656e-19 9.95605 	0.08315 	9.43444e-20 9.94427 	0.0829225 	-1.88358e-20 9.95789 	0.0827856 	-5.20567e-20 9.95799 	0.0820734 	-5.7601e-20 9.95808 	0.0813612 	-6.31409e-20 9.95817 	0.080649 	-6.86764e-20 9.94576 	0.0796282 	-2.31779e-20 9.95908 	0.0786427 	-2.08509e-20 9.95806 	0.07713 	-1.41945e-20 9.95703 	0.0756172 	-7.53939e-21 9.95599 	0.0741044 	-8.85653e-22 9.94226 	0.0726088 	9.99421e-21 9.9552 	0.0716411 	-3.14785e-21 9.95307 	0.0699978 	-2.47975e-20 9.95092 	0.0683542 	-4.6452e-20 9.94876 	0.0667104 	-6.81113e-20 9.93367 	0.0648969 	-1.01143e-19 9.94644 	0.0641983 	-1.59503e-19 9.94338 	0.0626994 	-1.45357e-19 9.9403 	0.0612002 	-1.31195e-19 9.93722 	0.0597006 	-1.17017e-19 9.92083 	0.0577478 	-3.32949e-20 9.93354 	0.057247 	6.21303e-20 9.92962 	0.055882 	7.81941e-20 9.92569 	0.0545165 	9.42379e-20 9.92175 	0.0531505 	1.10261e-19 9.90408 	0.0511724 	4.1778e-20 9.91674 	0.0507943 	-9.26543e-20 9.91197 	0.0495315 	-1.002e-19 9.9072 	0.0482681 	-1.07716e-19 9.90241 	0.0470044 	-1.15202e-19 9.88349 	0.0450732 	-2.08739e-22 9.89602 	0.0448069 	1.11314e-19 9.8904 	0.0436304 	1.00862e-19 9.88478 	0.0424535 	9.03824e-20 9.87914 	0.041276 	7.98747e-20 9.85901 	0.0394033 	-2.6469e-20 9.87126 	0.039227 	-1.13391e-19 9.8648 	0.0381176 	-1.39548e-19 9.85834 	0.0370076 	-1.65695e-19 9.85186 	0.0358972 	-1.91831e-19 9.83066 	0.0340869 	-1.45651e-19 9.84239 	0.0340088 	-1.95842e-19 9.83514 	0.0329781 	-1.81413e-19 9.82787 	0.0319468 	-1.66976e-19 9.82059 	0.030915 	-1.52531e-19 9.79857 	0.0291825 	-8.59909e-20 9.80945 	0.0292153 	-7.61609e-20 9.80146 	0.0282796 	-5.4549e-20 9.79345 	0.0273433 	-3.29399e-20 9.78544 	0.0264065 	-1.13337e-20 9.76297 	0.0247649 	5.66118e-21 9.7726 	0.0248953 	0 9.76393 	0.0240553 	0 9.75525 	0.0232147 	0 9.74656 	0.0223735 	0 9.72412 	0.020831 	0 9.732 	0.0210176 	-1.32058e-20 9.72272 	0.020263 	-3.51572e-20 9.71342 	0.0195078 	-5.71109e-20 9.70411 	0.018752 	-7.90668e-20 9.68225 	0.0173256 	-1.05773e-19 9.68784 	0.0175193 	-1.31554e-19 9.67799 	0.0168415 	-1.32258e-19 9.66812 	0.0161632 	-1.32955e-19 9.65825 	0.0154842 	-1.33646e-19 9.63754 	0.0142031 	-1.13359e-19 9.64026 	0.0143529 	-4.96039e-20 9.62988 	0.0137429 	-1.56184e-20 9.61949 	0.0131323 	1.83566e-20 9.60909 	0.0125211 	5.2321e-20 9.59014 	0.0114168 	6.03813e-20 9.58947 	0.0114648 	7.90661e-20 9.57863 	0.0109124 	7.93509e-20 9.56777 	0.0103595 	7.96289e-20 9.55691 	0.0098059 	7.99003e-20 9.54032 	0.00891386 	6.8137e-20 9.53576 	0.00880543 	5.42088e-20 9.52452 	0.00829963 	4.0486e-20 9.51326 	0.00779325 	2.67642e-20 9.50199 	0.00728629 	1.30434e-20 9.48835 	0.00663717 	0 9.48368 	0.00649812 	-8.22582e-21 9.47628 	0.00619754 	-1.71159e-20 9.46888 	0.00589671 	-2.60064e-20 9.46147 	0.00559565 	-3.48973e-20 9.45423 	0.00530114 	-4.35883e-20 9.44995 	0.00512601 	-4.85111e-20 9.44566 	0.00495079 	-5.34338e-20 9.44138 	0.00477548 	-5.83563e-20 9.43709 	0.00460009 	-6.32787e-20 9.4311 	0.00437352 	-6.82025e-20 9.42059 	0.00396485 	-7.56873e-20 9.40856 	0.00351455 	-8.38354e-20 9.39652 	0.00306362 	-9.1981e-20 9.38447 	0.00261207 	-1.00124e-19 9.36663 	0.00202291 	-1.11411e-19 9.35947 	0.00170827 	-1.17406e-19 9.34718 	0.00128796 	-1.05974e-19 9.33488 	0.00086704 	-9.4552e-20 9.32257 	0.000445505 	-8.31398e-20 9.30124 	-0.000121488 	-4.38486e-20 9.29676 	-0.000411409 	-3.23567e-20 9.28426 	-0.000805259 	-2.36642e-20 9.27175 	-0.00119971 	-1.49711e-20 9.25923 	-0.00159476 	-6.27757e-21 9.23525 	-0.00207453 	0 9.23283 	-0.00240803 	0 9.22017 	-0.00278401 	0 9.20749 	-0.00316059 	0 9.1948 	-0.00353776 	0 9.16896 	-0.00387824 	0 9.16804 	-0.00431261 	5.02449e-21 9.15524 	-0.00467914 	1.30667e-20 9.14243 	-0.00504627 	2.11085e-20 9.12961 	-0.00541399 	2.91497e-20 9.10261 	-0.00557594 	4.35206e-20 9.10269 	-0.00616064 	1.14969e-19 9.0898 	-0.00652637 	1.17732e-19 9.07689 	-0.00689271 	1.20504e-19 9.06397 	-0.00725966 	1.23286e-19 9.03641 	-0.00721249 	4.35901e-20 9.0371 	-0.00798208 	2.81331e-20 9.02415 	-0.00834961 	2.0737e-20 9.01118 	-0.00871777 	1.33404e-20 8.9982 	-0.00908657 	5.94314e-21 8.97056 	-0.00880301 	1.2657e-20 8.97154 	-0.00977769 	7.6777e-20 8.95855 	-0.0101605 	7.80126e-20 8.94554 	-0.010544 	7.92557e-20 8.93252 	-0.0109282 	8.05065e-20 8.90522 	-0.0104204 	2.60717e-21 8.90624 	-0.0116459 	-8.59637e-20 8.89324 	-0.0120478 	-9.63798e-20 8.88024 	-0.0124505 	-1.06803e-19 8.86721 	-0.0128538 	-1.17235e-19 8.84054 	-0.0120843 	-5.78789e-20 8.84144 	-0.013536 	-1.68203e-19 8.82846 	-0.0139496 	-1.70393e-19 8.81546 	-0.0143639 	-1.72593e-19 8.80245 	-0.014779 	-1.74806e-19 8.77662 	-0.0137635 	-4.70518e-20 8.77727 	-0.0154352 	-2.34625e-20 8.76432 	-0.0158697 	-1.56562e-20 8.75135 	-0.0163049 	-7.8493e-21 8.73836 	-0.0167409 	-4.1793e-23 8.71353 	-0.0155094 	0 8.71346 	-0.0173588 	0 8.70096 	-0.0178599 	0 8.68804 	-0.018317 	0 8.67421 	-0.018618 	3.24819e-22 8.65136 	-0.0173301 	3.94068e-21 8.64985 	-0.0192397 	4.58945e-22 8.6385 	-0.0198973 	0 8.62564 	-0.0203655 	0 8.61124 	-0.0205003 	6.74679e-22 8.59018 	-0.0191759 	4.29452e-21 8.58746 	-0.0211015 	8.1171e-22 8.57704 	-0.0219144 	5.39967e-21 8.56426 	-0.0223894 	1.24399e-20 8.54957 	-0.0223544 	2.32127e-20 8.53006 	-0.0210333 	4.33832e-20 8.5263 	-0.0229495 	1.82123e-19 8.51662 	-0.0239233 	2.30768e-19 8.50395 	-0.0244206 	2.3384e-19 8.48916 	-0.0242465 	1.82502e-19 8.47102 	-0.0229923 	4.37204e-20 8.46638 	-0.0249491 	2.38027e-20 8.4573 	-0.0261039 	1.09772e-20 8.44474 	-0.0266269 	3.73446e-21 8.43003 	-0.026302 	1.66877e-21 8.41307 	-0.0250734 	5.11338e-21 8.40764 	-0.0270238 	1.80758e-21 8.39902 	-0.0283322 	2.67133e-21 8.38658 	-0.0288646 	8.56674e-21 8.37207 	-0.0283865 	8.74789e-21 8.35614 	-0.0271957 	4.9077e-21 8.35002 	-0.0290898 	-4.26646e-20 8.34173 	-0.0305201 	-7.4133e-20 8.32939 	-0.0310662 	-7.49936e-20 8.3152 	-0.0304793 	-4.50553e-20 8.3002 	-0.0293844 	-1.33082e-21 8.29346 	-0.0312596 	1.06586e-19 8.2854 	-0.0328293 	1.91031e-19 8.27317 	-0.0333964 	1.98882e-19 8.25939 	-0.0326975 	1.28892e-19 8.24523 	-0.0316743 	3.90228e-20 8.23793 	-0.0335339 	2.65754e-20 8.23 	-0.0352384 	1.55307e-20 8.21789 	-0.0358139 	1.45954e-20 8.20459 	-0.0349845 	1.94081e-20 8.19119 	-0.0340051 	2.48335e-20 8.18338 	-0.0358123 	1.8617e-20 8.17548 	-0.0376122 	1.20773e-20 8.16348 	-0.0381718 	-3.59539e-20 8.15073 	-0.0372699 	-9.01518e-20 8.13801 	-0.036367 	-1.44353e-19 8.12974 	-0.0381384 	-2.84989e-19 8.1214 	-0.0399119 	-4.25618e-19 8.10986 	-0.0404534 	-4.23207e-19 8.09775 	-0.0396208 	-2.6265e-19 8.08566 	-0.0387872 	-1.02097e-19 8.07697 	-0.0405062 	3.09605e-20 8.06823 	-0.0422272 	1.6403e-19 8.05715 	-0.042752 	1.92639e-19 8.04556 	-0.0419835 	9.65024e-20 8.034 	-0.0412143 	3.6518e-22 8.02488 	-0.0428956 	-9.45684e-20 8.01571 	-0.0445789 	-1.89502e-19 8.00509 	-0.0450725 	-1.94291e-19 7.99404 	-0.0443223 	-1.11643e-19 7.98302 	-0.0435713 	-2.89935e-20 7.97364 	-0.0452161 	-1.72708e-20 7.9642 	-0.0468627 	-5.55194e-21 7.95405 	-0.0473484 	1.15517e-20 7.94339 	-0.0466532 	3.34862e-20 7.93276 	-0.0459573 	5.54237e-20 7.92318 	-0.0476222 	3.24364e-20 7.91355 	-0.0492889 	9.44151e-21 7.90382 	-0.0497919 	5.38337e-21 7.89344 	-0.0491418 	2.15514e-20 7.88308 	-0.0484911 	3.77229e-20 7.87331 	-0.0501476 	2.01655e-20 7.86347 	-0.051806 	2.5982e-21 7.85411 	-0.0522967 	-1.12858e-20 7.84393 	-0.0516568 	-3.35226e-20 7.83376 	-0.0510163 	-5.57595e-20 7.82371 	-0.0526015 	5.59114e-20 7.81361 	-0.0541884 	1.67582e-19 7.80461 	-0.0546454 	1.74426e-19 7.79471 	-0.0540218 	7.8943e-20 7.78482 	-0.0533977 	-1.65398e-20 7.77462 	-0.0549397 	7.67948e-20 7.76437 	-0.0564835 	1.70127e-19 7.75575 	-0.0569186 	1.76198e-19 7.74601 	-0.0563045 	9.88274e-20 7.73628 	-0.0556898 	2.14568e-20 7.72593 	-0.0571984 	1.01947e-20 7.71569 	-0.0586087 	-5.47868e-23 7.70712 	-0.0590069 	-6.00555e-24 7.69764 	-0.0585384 	1.76181e-20 7.68805 	-0.0579479 	3.77119e-20 7.67753 	-0.059413 	1.65304e-20 7.6674 	-0.0606431 	0 7.65879 	-0.0610341 	0 7.6495 	-0.0607162 	1.49843e-20 7.63999 	-0.0601486 	3.52399e-20 7.62922 	-0.0615749 	1.3863e-20 7.61917 	-0.0626306 	0 7.61051 	-0.063001 	0 7.60143 	-0.0627975 	0 7.59209 	-0.0622119 	0 7.58115 	-0.0635959 	0 7.57128 	-0.0644743 	0 7.56258 	-0.0648158 	0 7.55364 	-0.0647223 	-8.6368e-21 7.54442 	-0.0641158 	-2.74521e-20 7.53328 	-0.0654576 	-7.55125e-21 7.52363 	-0.0661631 	0 7.51488 	-0.0664795 	0 7.50601 	-0.0665038 	-1.17867e-20 7.4969 	-0.0658945 	-4.91331e-20 7.48556 	-0.0671888 	-9.59096e-21 7.47615 	-0.0677231 	0 7.46735 	-0.0680142 	0 7.45851 	-0.0681519 	-6.21156e-21 7.44952 	-0.0675405 	-4.26823e-20 7.43792 	-0.0687844 	-4.02892e-21 7.42879 	-0.0691446 	-8.23995e-21 7.41995 	-0.0694023 	-1.74393e-20 7.4111 	-0.0696396 	-2.66534e-20 7.40229 	-0.0690096 	-3.64618e-20 7.39055 	-0.070169 	-9.69236e-20 7.38169 	-0.0703868 	-9.54868e-20 7.37282 	-0.0706049 	-9.40464e-20 7.36395 	-0.0708233 	-9.26024e-20 7.35531 	-0.0702751 	-2.19103e-20 7.3438 	-0.0712568 	-2.8707e-20 7.33494 	-0.0714329 	-1.9941e-20 7.32608 	-0.0716093 	-1.11754e-20 7.31721 	-0.0717859 	-2.41043e-21 7.30871 	-0.0713333 	-1.20232e-20 7.29753 	-0.0721371 	-1.33045e-21 7.2887 	-0.0722623 	-5.51928e-21 7.27987 	-0.0723878 	-9.70831e-21 7.27103 	-0.0725135 	-1.38975e-20 7.26261 	-0.0721376 	-1.84481e-20 7.25186 	-0.0727516 	-2.35688e-20 7.24312 	-0.0728158 	-4.0097e-20 7.23437 	-0.0728802 	-5.6626e-20 7.22561 	-0.0729447 	-7.31557e-20 7.21727 	-0.0726345 	-8.44222e-20 7.20711 	-0.073052 	-1.27896e-19 7.19848 	-0.0730597 	-1.1718e-19 7.18985 	-0.0730674 	-1.06462e-19 7.18122 	-0.0730752 	-9.57425e-20 7.17288 	-0.0728443 	-5.45497e-20 7.16337 	-0.0730675 	-2.75386e-20 7.15488 	-0.0730259 	-1.35717e-20 7.14639 	-0.0729844 	3.9458e-22 7.13789 	-0.0729429 	1.43601e-20 7.12955 	-0.0727977 	1.88895e-20 7.12252 	-0.0728423 	1.66489e-20 7.11596 	-0.07277 	1.35562e-20 7.1094 	-0.0726976 	1.04634e-20 7.10284 	-0.0726252 	7.37072e-21 7.09631 	-0.072553 	4.28847e-21 7.09451 	-0.0725346 	3.40471e-21 7.09272 	-0.0725162 	2.52095e-21 7.09092 	-0.0724978 	1.63719e-21 7.08913 	-0.0724795 	7.53437e-22 7.08754 	-0.0724283 	0 7.07917 	-0.0723158 	0 7.07092 	-0.0721748 	0 7.06267 	-0.0720337 	0 7.05443 	-0.0718925 	0 7.04737 	-0.0715619 	0 7.03871 	-0.0715264 	-1.04718e-20 7.03072 	-0.0713302 	-2.33835e-20 7.02273 	-0.071134 	-3.62956e-20 7.01474 	-0.0709376 	-4.9208e-20 7.00893 	-0.0703936 	-6.21401e-20 7.00002 	-0.0704297 	-4.67947e-20 6.99232 	-0.070178 	-3.05691e-20 6.98463 	-0.0699261 	-1.43439e-20 6.97694 	-0.069674 	1.88078e-21 6.97242 	-0.0689138 	1.17448e-20 6.96331 	-0.0690136 	2.97094e-20 6.95597 	-0.068709 	4.34302e-20 6.94864 	-0.0684041 	5.71507e-20 6.94131 	-0.0680991 	7.08709e-20 6.93814 	-0.0671324 	7.05393e-20 6.9289 	-0.0672996 	5.38026e-20 6.92198 	-0.0669579 	3.69466e-20 6.91506 	-0.0666159 	2.00917e-20 6.90816 	-0.0662737 	3.23793e-21 6.90637 	-0.0651234 	3.28092e-21 6.89704 	-0.0653648 	3.5932e-20 6.89059 	-0.064997 	3.72625e-20 6.88414 	-0.064629 	3.85895e-20 6.8777 	-0.0642608 	3.99129e-20 6.87732 	-0.0629342 	3.98725e-21 6.86798 	-0.0632379 	-9.79189e-22 6.86204 	-0.0628478 	-9.31035e-22 6.85611 	-0.0624575 	-8.82931e-22 6.85035 	-0.0620418 	-7.12947e-22 6.85124 	-0.0605819 	4.50436e-21 6.84223 	-0.0608866 	4.25872e-20 6.83658 	-0.0605464 	4.67031e-20 6.83122 	-0.0601507 	4.79021e-20 6.82692 	-0.059593 	4.30362e-20 6.82835 	-0.0581531 	5.14876e-21 6.81996 	-0.05844 	2.31758e-22 6.81441 	-0.0582121 	-5.71235e-22 6.80966 	-0.057842 	-2.38464e-22 6.80682 	-0.0571851 	0 6.8088 	-0.0558029 	0 6.80107 	-0.0561064 	0 6.79568 	-0.0560088 	0 6.79156 	-0.0556951 	0 6.79015 	-0.0549805 	0 6.79268 	-0.0536854 	0 6.78564 	-0.0540323 	0 6.78045 	-0.0540765 	5.0912e-21 6.77697 	-0.0538411 	1.48866e-20 6.77696 	-0.0531015 	2.47064e-20 6.78003 	-0.0519157 	3.45492e-20 6.77369 	-0.0523238 	2.42588e-20 6.76873 	-0.0525179 	1.48637e-20 6.76591 	-0.052381 	6.85493e-21 6.76724 	-0.0516503 	8.76034e-21 6.77082 	-0.0506002 	1.59988e-20 6.76522 	-0.05109 	6.50172e-20 6.76052 	-0.0514462 	9.65939e-20 6.75835 	-0.0514374 	8.05432e-20 6.76096 	-0.0507642 	2.94725e-20 6.76504 	-0.0498901 	-3.21968e-20 6.76016 	-0.0504946 	2.92926e-20 6.75576 	-0.0510341 	8.46202e-20 6.75423 	-0.0511912 	1.03665e-19 6.75806 	-0.0506296 	6.29872e-20 6.7626 	-0.0499738 	1.44641e-20 6.75846 	-0.050729 	8.07267e-21 6.75437 	-0.0514748 	2.2088e-21 6.75347 	-0.0518351 	1.85267e-20 6.75844 	-0.0514381 	4.12087e-20 6.76342 	-0.0510408 	6.38953e-20 6.76 	-0.0519808 	7.58809e-20 6.75655 	-0.0529205 	8.7863e-20 6.75661 	-0.0534681 	7.72619e-20 6.76199 	-0.0533599 	5.30262e-20 6.76737 	-0.0532518 	2.87903e-20 6.76465 	-0.0544007 	-3.46456e-23 6.7619 	-0.0555493 	-2.88603e-20 6.76279 	-0.0563133 	-3.69923e-20 6.76852 	-0.0565162 	-2.16566e-20 6.77425 	-0.0567192 	-6.32054e-21 6.77219 	-0.0580944 	-3.91663e-21 6.77009 	-0.059469 	-1.51198e-21 6.77173 	-0.0604805 	0 6.77772 	-0.0610406 	0 6.7837 	-0.0616005 	0 6.78222 	-0.0632489 	0 6.78071 	-0.0648965 	0 6.78297 	-0.0662434 	5.67836e-22 6.78914 	-0.0672784 	1.10988e-21 6.79529 	-0.0683129 	1.64744e-21 6.79429 	-0.0703633 	-6.85841e-20 6.79325 	-0.0724125 	-1.38825e-19 6.79607 	-0.0742601 	-1.31128e-19 6.80236 	-0.075958 	-4.46078e-20 6.80862 	-0.0776548 	4.19071e-20 6.80807 	-0.0803046 	9.18107e-20 6.80746 	-0.0829525 	1.41702e-19 6.81071 	-0.085422 	1.44136e-19 6.81696 	-0.0878282 	8.37726e-20 6.82316 	-0.0902328 	2.34119e-20 6.82289 	-0.09353 	1.56229e-20 6.82254 	-0.0968247 	7.84174e-21 6.82611 	-0.0998962 	-5.57738e-24 6.83226 	-0.10291 	-4.33116e-21 6.83834 	-0.105922 	-8.65329e-21 6.83829 	-0.109776 	3.08344e-20 6.8385 	-0.113607 	6.67592e-20 6.84226 	-0.117235 	6.58079e-20 6.8479 	-0.120819 	3.56997e-20 6.85376 	-0.124393 	9.93484e-22 6.85383 	-0.128763 	3.59272e-20 6.85484 	-0.133081 	6.06928e-20 6.85847 	-0.137274 	5.9307e-20 6.86337 	-0.141448 	3.61039e-20 6.86891 	-0.145611 	1.14922e-21 6.86897 	-0.150521 	3.64036e-20 6.87067 	-0.155372 	5.33596e-20 6.87408 	-0.160161 	5.15105e-20 6.87817 	-0.164952 	3.78269e-20 6.88333 	-0.169748 	6.89879e-21 6.88329 	-0.175245 	1.98053e-21 6.8856 	-0.180694 	4.72063e-22 6.88869 	-0.186123 	2.19608e-22 6.89191 	-0.191552 	0 6.8966 	-0.19702 	0 6.89638 	-0.203145 	0 6.8992 	-0.209258 	0 6.9019 	-0.215364 	0 6.90449 	-0.221465 	0 6.90831 	-0.227624 	7.2631e-21 6.90868 	-0.234426 	2.9081e-21 6.91105 	-0.241248 	1.30025e-20 6.91328 	-0.248063 	2.31128e-20 6.91537 	-0.254872 	3.32389e-20 6.91802 	-0.26172 	5.31875e-20 6.91888 	-0.269252 	7.89399e-20 6.92069 	-0.276806 	7.21002e-20 6.92235 	-0.284354 	6.50859e-20 6.92385 	-0.291893 	5.78971e-20 6.92524 	-0.299432 	4.79081e-20 6.92526 	-0.300024 	4.63988e-20 6.92535 	-0.30062 	4.50107e-20 6.92544 	-0.301215 	4.36226e-20 6.92554 	-0.30181 	4.22344e-20 6.92562 	-0.302394 	4.08712e-20 6.92664 	-0.310043 	2.29111e-20 6.92751 	-0.317683 	4.95245e-21 6.92824 	-0.325314 	-1.30048e-20 6.92881 	-0.332936 	-3.09607e-20 6.93037 	-0.340667 	-4.31104e-20 6.93001 	-0.349542 	-2.0663e-20 6.93021 	-0.35852 	-1.52769e-20 6.93023 	-0.367486 	-9.76082e-21 6.93006 	-0.37644 	-4.11475e-21 6.93209 	-0.385662 	-3.432e-20 6.93005 	-0.395155 	-2.94711e-20 6.92933 	-0.404876 	-2.72729e-20 6.92843 	-0.414588 	-2.50713e-20 6.92821 	-0.424397 	-2.47024e-20 6.9297 	-0.434444 	-2.84363e-20 6.92676 	-0.444684 	-2.13831e-20 6.92409 	-0.454991 	-1.28031e-20 6.92217 	-0.465439 	-1.30085e-21 6.92231 	-0.476185 	-1.55054e-21 6.92266 	-0.486986 	-3.99892e-21 6.9187 	-0.497962 	-4.07287e-20 6.9145 	-0.508924 	-7.74627e-20 6.91199 	-0.520159 	-7.39164e-20 6.91132 	-0.531685 	-3.18325e-20 6.91042 	-0.54321 	1.02499e-20 6.90531 	-0.554895 	2.3422e-21 6.90007 	-0.566581 	-5.0714e-21 6.89702 	-0.578612 	-9.81423e-22 6.8947 	-0.590776 	0 6.89243 	-0.602989 	0 6.88605 	-0.61535 	0 6.8812 	-0.627958 	0 6.87679 	-0.640654 	0 6.87213 	-0.653334 	0 6.86813 	-0.666146 	0 6.86278 	-0.675907 	0 6.85864 	-0.685852 	0 6.85435 	-0.695788 	0 6.8499 	-0.705715 	0 6.84597 	-0.714196 	0 6.84398 	-0.717809 	0 6.84196 	-0.721421 	0 6.83993 	-0.725032 	0 6.83787 	-0.728641 	0 6.83603 	-0.732302 	0 6.82812 	-0.746025 	0 6.81997 	-0.759725 	0 6.81151 	-0.773403 	0 6.80286 	-0.78708 	6.63699e-22 6.7948 	-0.800925 	6.57731e-21 6.78499 	-0.815169 	2.854e-21 6.7749 	-0.829375 	-4.5059e-22 6.76465 	-0.84351 	-2.12847e-21 6.75505 	-0.857732 	1.78569e-21 6.7451 	-0.871971 	5.74193e-21 6.7334 	-0.886633 	-1.51021e-20 6.7214 	-0.901273 	-3.5252e-20 6.71002 	-0.915927 	-3.98254e-20 6.69837 	-0.93048 	-3.46375e-20 6.68639 	-0.944999 	-2.23475e-20 6.6747 	-0.95774 	-1.64374e-20 6.66355 	-0.970418 	-1.31587e-20 6.65219 	-0.983075 	-1.00924e-20 6.64058 	-0.995715 	-7.04508e-21 6.63042 	-1.00653 	-4.45126e-21 6.62809 	-1.00911 	-5.26068e-21 6.62576 	-1.01168 	-6.07505e-21 6