/*--------------------------------*- C++ -*----------------------------------*\
  =========                 |
  \\      /  F ield         | OpenFOAM: The Open Source CFD Toolbox
   \\    /   O peration     | Website:  https://openfoam.org
    \\  /    A nd           | Version:  8
     \\/     M anipulation  |
\*---------------------------------------------------------------------------*/
FoamFile
{
    version     2.0;
    format      ascii;
    class       volScalarField;
    location    "190";
    object      p;
}
// * * * * * * * * * * * * * * * * * * * * * * * * * * * * * * * * * * * * * //

dimensions      [0 2 -2 0 0 0 0];

internalField   nonuniform List<scalar> 
404911
(
0.766902
0.765984
0.765019
0.764637
0.767251
0.765179
0.764148
0.764437
0.76455
0.764591
0.773642
0.772458
0.770099
0.768228
0.766222
0.765441
0.775787
0.77419
0.773226
0.771959
0.777702
0.776208
0.774627
0.778984
0.777273
0.775886
0.780409
0.778633
0.776617
0.785822
0.783791
0.781312
0.778948
0.777563
0.786189
0.784232
0.782005
0.791868
0.78924
0.78704
0.784826
0.795393
0.793105
0.790522
0.78766
0.78569
0.795999
0.793692
0.79159
0.789365
0.80057
0.797072
0.794537
0.792775
0.801579
0.798598
0.807422
0.766377
0.769049
0.76649
0.772207
0.770054
0.775257
0.774034
0.772723
0.777699
0.776097
0.775365
0.778819
0.777511
0.780403
0.77879
0.777418
0.783331
0.781128
0.781161
0.779652
0.785558
0.783994
0.788745
0.786198
0.792351
0.790368
0.787945
0.796154
0.793466
0.799478
0.796697
0.79564
0.800066
0.797918
0.805804
0.808625
0.806839
0.813916
0.810904
0.809652
0.817958
0.814256
0.811658
0.823592
0.820256
0.816878
0.822911
0.453661
0.448462
0.443072
0.475696
0.473713
0.464222
0.462505
0.456848
0.45157
0.445113
0.432977
0.490015
0.483932
0.47282
0.468219
0.463116
0.458939
0.453868
0.447703
0.429701
0.503305
0.499162
0.495558
0.491292
0.486951
0.482831
0.475397
0.46979
0.465192
0.460086
0.454613
0.448857
0.442167
0.430797
0.431121
0.425756
0.513113
0.50886
0.504652
0.500342
0.496351
0.492455
0.488435
0.483919
0.478822
0.47332
0.467955
0.462312
0.456582
0.451017
0.431603
0.523688
0.519209
0.51525
0.510676
0.506073
0.501472
0.497502
0.493536
0.489689
0.48557
0.480673
0.475327
0.470477
0.463583
0.457426
0.529693
0.526189
0.521921
0.518029
0.513228
0.508787
0.503233
0.498201
0.494255
0.490416
0.486768
0.482833
0.477927
0.47199
0.466165
0.460766
0.539584
0.53544
0.532024
0.528186
0.524994
0.520931
0.516455
0.512266
0.506345
0.49979
0.495765
0.491899
0.488083
0.484079
0.479107
0.473852
0.468374
0.551076
0.547472
0.544442
0.540644
0.537066
0.53355
0.530358
0.526407
0.522318
0.517753
0.514351
0.507842
0.50208
0.497983
0.494018
0.48988
0.485557
0.480639
0.55666
0.553511
0.549563
0.546592
0.54269
0.538694
0.535281
0.531402
0.528009
0.523677
0.520436
0.515028
0.508166
0.504097
0.500309
0.4962
0.492419
0.487062
0.5672
0.562629
0.558664
0.554741
0.551738
0.547861
0.543972
0.540274
0.536642
0.533075
0.529027
0.525143
0.521545
0.516835
0.51089
0.506281
0.50263
0.498733
0.573665
0.569038
0.564738
0.560726
0.556687
0.553284
0.549523
0.545688
0.542158
0.537835
0.534508
0.530785
0.526973
0.522873
0.518571
0.513606
0.507043
0.582953
0.578861
0.57473
0.570854
0.566583
0.562381
0.558462
0.554752
0.551199
0.547984
0.544287
0.54001
0.535901
0.531959
0.528266
0.524328
0.52075
0.591413
0.587603
0.584055
0.580332
0.57673
0.572119
0.567648
0.564282
0.560527
0.556402
0.553318
0.549431
0.545855
0.542105
0.538374
0.533974
0.530222
0.526065
0.598241
0.594947
0.592725
0.589794
0.585279
0.581831
0.578054
0.573818
0.570475
0.565803
0.562948
0.55944
0.555159
0.551442
0.547539
0.543454
0.540401
0.537498
0.60646
0.60267
0.599783
0.596978
0.594561
0.591155
0.586227
0.582318
0.578535
0.575002
0.571601
0.567929
0.565274
0.562156
0.558056
0.553432
0.549776
0.545928
0.611414
0.607455
0.604011
0.601008
0.597777
0.595217
0.591918
0.587735
0.582907
0.579188
0.575355
0.5717
0.568316
0.565903
0.562082
0.558963
0.555134
0.549164
0.618345
0.615185
0.612013
0.608668
0.605471
0.602194
0.598467
0.595641
0.592266
0.588694
0.58439
0.581126
0.577216
0.57373
0.569124
0.565521
0.560829
0.557091
0.623262
0.61981
0.616615
0.613616
0.610337
0.606713
0.604498
0.600106
0.595187
0.591964
0.588623
0.585596
0.581981
0.57843
0.574965
0.570715
0.56748
0.563013
0.62945
0.627841
0.62498
0.622165
0.618389
0.615225
0.611951
0.609252
0.605876
0.60194
0.596298
0.592739
0.589535
0.586053
0.583227
0.579406
0.575617
0.570743
0.6347
0.631187
0.629643
0.628152
0.624585
0.62044
0.616514
0.61313
0.610263
0.606679
0.603865
0.597801
0.594132
0.590689
0.587742
0.584617
0.580567
0.639484
0.636775
0.634566
0.632085
0.630604
0.629509
0.62592
0.621946
0.618378
0.614805
0.611368
0.607988
0.604313
0.599255
0.595834
0.592573
0.589129
0.585708
0.644264
0.640545
0.637903
0.635416
0.632938
0.63105
0.629832
0.627204
0.623552
0.620205
0.616219
0.612909
0.609195
0.604931
0.60116
0.597344
0.593609
0.590849
0.647769
0.644534
0.64159
0.639052
0.636309
0.63393
0.632242
0.631127
0.627867
0.624976
0.622595
0.618471
0.614727
0.610741
0.606761
0.603981
0.599269
0.5957
0.655615
0.6514
0.648444
0.645574
0.643021
0.640474
0.637108
0.635594
0.633525
0.631477
0.628601
0.625823
0.622855
0.620097
0.616333
0.61315
0.609062
0.605336
0.661611
0.65874
0.655926
0.652788
0.649669
0.646554
0.64457
0.642234
0.639545
0.637415
0.635601
0.633498
0.630095
0.627098
0.624354
0.621792
0.61792
0.615215
0.666382
0.662744
0.660087
0.657049
0.653844
0.65042
0.647413
0.645773
0.644397
0.640988
0.639024
0.637301
0.634947
0.631584
0.628569
0.626175
0.623557
0.620228
0.671256
0.669262
0.66699
0.66449
0.661464
0.658512
0.655324
0.651713
0.648303
0.645461
0.646021
0.644419
0.641895
0.639116
0.636637
0.633466
0.628875
0.628589
0.673434
0.672584
0.670736
0.668505
0.665822
0.662932
0.66013
0.657092
0.653567
0.649706
0.645897
0.643746
0.643664
0.642478
0.640489
0.638392
0.634658
0.632427
0.676106
0.674925
0.673751
0.672047
0.669833
0.667137
0.664315
0.661608
0.658792
0.6555
0.651562
0.647669
0.644719
0.643159
0.641748
0.640462
0.638462
0.635073
0.679366
0.67657
0.675522
0.674395
0.673084
0.671033
0.668615
0.665824
0.662836
0.66022
0.657202
0.653589
0.649894
0.646697
0.644251
0.642386
0.640952
0.638704
0.683686
0.682919
0.680203
0.676886
0.675488
0.675048
0.673877
0.671821
0.66958
0.667336
0.66432
0.661716
0.65884
0.655553
0.652096
0.649088
0.646335
0.643113
0.688063
0.685322
0.683352
0.681291
0.678987
0.677068
0.675721
0.674493
0.672328
0.670181
0.668138
0.66567
0.663112
0.660329
0.65727
0.65404
0.651111
0.648642
0.690704
0.68894
0.686939
0.685098
0.682885
0.680689
0.678489
0.676957
0.675519
0.673622
0.671557
0.669149
0.666701
0.664258
0.661617
0.659018
0.656529
0.653645
0.691811
0.691671
0.690253
0.688231
0.686468
0.684517
0.682623
0.680051
0.678193
0.676624
0.674755
0.672658
0.670254
0.667778
0.665314
0.662768
0.660592
0.696845
0.693956
0.693077
0.69216
0.691384
0.689625
0.687893
0.685888
0.684345
0.68155
0.679533
0.677777
0.675873
0.673742
0.671353
0.668866
0.666581
0.663215
0.700625
0.697376
0.694942
0.693566
0.692874
0.692433
0.690395
0.688786
0.687485
0.685939
0.682972
0.680816
0.678989
0.677106
0.674938
0.67247
0.670062
0.668225
0.702187
0.700305
0.697646
0.695356
0.693588
0.693426
0.693742
0.69161
0.689751
0.688167
0.686955
0.685263
0.682315
0.680298
0.678332
0.676214
0.67428
0.671436
0.708412
0.705339
0.703047
0.700992
0.698474
0.695907
0.693593
0.692251
0.694248
0.692762
0.690959
0.688896
0.687864
0.68578
0.683555
0.68145
0.679388
0.677349
0.710723
0.708566
0.706719
0.704246
0.702199
0.699883
0.697408
0.694746
0.692159
0.693784
0.693285
0.691601
0.689514
0.688291
0.686838
0.684956
0.682763
0.679591
0.71427
0.712031
0.70971
0.707668
0.70553
0.703505
0.701526
0.699563
0.69683
0.694242
0.695138
0.693947
0.693008
0.690702
0.689183
0.68776
0.686064
0.683784
0.71569
0.715707
0.713209
0.711108
0.709064
0.706895
0.704834
0.702979
0.701443
0.699151
0.697244
0.696716
0.695028
0.693634
0.691757
0.6903
0.689029
0.686647
0.7201
0.718584
0.716338
0.714532
0.712304
0.710287
0.708137
0.705839
0.703665
0.702304
0.701493
0.699543
0.698065
0.696034
0.694339
0.692946
0.691339
0.726153
0.722891
0.72136
0.719006
0.717152
0.715409
0.713532
0.711485
0.709284
0.706768
0.704102
0.702077
0.702805
0.702953
0.700139
0.697599
0.695807
0.694226
0.727936
0.726027
0.724106
0.722338
0.72017
0.718298
0.716426
0.71489
0.712804
0.710474
0.707966
0.705122
0.702525
0.701642
0.702707
0.700914
0.699174
0.696912
0.731361
0.729068
0.72696
0.725148
0.723228
0.721341
0.719582
0.717566
0.716494
0.714352
0.712016
0.709515
0.706694
0.704097
0.702224
0.701435
0.700534
0.698898
0.733697
0.73214
0.730317
0.728237
0.7265
0.724671
0.722923
0.721109
0.718844
0.717147
0.715777
0.713727
0.711312
0.70855
0.70591
0.703729
0.702098
0.700759
0.736342
0.734981
0.733489
0.731603
0.729726
0.72799
0.72624
0.72453
0.722759
0.720867
0.718871
0.717041
0.715144
0.712882
0.710273
0.70779
0.70577
0.702867
0.737734
0.737731
0.736649
0.734897
0.732995
0.731217
0.729453
0.727646
0.725875
0.724082
0.722217
0.720294
0.718325
0.716287
0.714145
0.71169
0.709569
0.707571
0.739449
0.738824
0.738546
0.737905
0.736211
0.734338
0.732607
0.730845
0.728975
0.727106
0.725267
0.723439
0.72151
0.719458
0.717366
0.71526
0.712939
0.710425
0.741667
0.739599
0.739074
0.739157
0.739032
0.737153
0.735331
0.733762
0.73217
0.730449
0.728492
0.726427
0.724664
0.722768
0.720674
0.718451
0.716358
0.71484
0.746091
0.743967
0.741597
0.740095
0.738662
0.738103
0.739442
0.737801
0.735952
0.734563
0.73346
0.731929
0.73023
0.727684
0.725904
0.723953
0.721804
0.719797
0.717863
0.748627
0.747285
0.745265
0.742887
0.740551
0.73864
0.737051
0.738907
0.738476
0.737066
0.735417
0.734119
0.732483
0.730756
0.728899
0.727047
0.725148
0.723461
0.749928
0.747896
0.745881
0.743756
0.741588
0.739751
0.738468
0.738446
0.73814
0.737068
0.736117
0.73432
0.733112
0.73169
0.729892
0.727975
0.726327
0.754552
0.752641
0.750877
0.748864
0.746995
0.745047
0.74304
0.741172
0.73993
0.739557
0.738648
0.737447
0.736382
0.734963
0.733709
0.73225
0.730618
0.728624
0.757414
0.755404
0.753807
0.751887
0.750068
0.748368
0.746502
0.744432
0.742608
0.741578
0.740862
0.739432
0.73838
0.737201
0.735834
0.734381
0.732922
0.730475
0.759049
0.75837
0.756608
0.754785
0.752943
0.75125
0.749612
0.74791
0.745742
0.743635
0.742637
0.74182
0.740212
0.739162
0.737783
0.736565
0.735087
0.733917
0.76076
0.759347
0.757535
0.755687
0.753913
0.752201
0.750576
0.748895
0.747077
0.745267
0.743491
0.742202
0.740894
0.739598
0.738286
0.736904
0.735534
0.762932
0.761933
0.760188
0.758435
0.75662
0.754845
0.753088
0.75141
0.749854
0.747785
0.746187
0.744391
0.742902
0.741595
0.740311
0.739131
0.737618
0.764434
0.76302
0.763464
0.762869
0.761069
0.759306
0.757582
0.75584
0.753979
0.751922
0.750448
0.748521
0.746629
0.745151
0.743705
0.742376
0.741182
0.739947
0.766633
0.764855
0.763429
0.763643
0.763049
0.761648
0.760065
0.75849
0.75689
0.755322
0.752961
0.750851
0.749146
0.747504
0.745985
0.744447
0.743758
0.768883
0.767683
0.765724
0.764608
0.764267
0.763665
0.762327
0.760675
0.759227
0.757688
0.755917
0.75414
0.751823
0.750208
0.748472
0.746767
0.745396
0.772779
0.770899
0.76977
0.768473
0.766858
0.765615
0.765006
0.764781
0.762946
0.761404
0.759764
0.757927
0.756207
0.754741
0.753032
0.751255
0.749442
0.747934
0.774113
0.77291
0.771568
0.770409
0.769108
0.767508
0.766176
0.765189
0.764774
0.763325
0.762564
0.761069
0.758527
0.7568
0.755555
0.754114
0.752548
0.750904
0.774795
0.774121
0.773263
0.77228
0.770919
0.769426
0.768029
0.76638
0.76498
0.764268
0.763647
0.762732
0.7617
0.760116
0.75773
0.756113
0.754867
0.753432
0.777531
0.775856
0.774599
0.77375
0.772794
0.771345
0.769486
0.768406
0.766945
0.765451
0.764341
0.763434
0.762761
0.761728
0.760405
0.758322
0.756438
0.755289
0.78031
0.778372
0.77734
0.776841
0.775189
0.774259
0.773234
0.77176
0.770324
0.768655
0.767238
0.765726
0.764428
0.763464
0.762317
0.761068
0.759624
0.757829
0.756275
0.782181
0.780567
0.779022
0.778169
0.777476
0.77607
0.774938
0.773798
0.772675
0.771179
0.76949
0.767768
0.766116
0.764677
0.763336
0.762317
0.761533
0.759386
0.757759
0.781393
0.781273
0.779737
0.77886
0.778083
0.776996
0.775804
0.774567
0.773347
0.772114
0.770397
0.768811
0.76709
0.765551
0.764008
0.762856
0.761996
0.760317
0.785783
0.783908
0.78253
0.780876
0.779574
0.778269
0.777417
0.776571
0.775369
0.774131
0.773095
0.771382
0.769813
0.76815
0.766487
0.764923
0.763526
0.789512
0.787084
0.785391
0.783549
0.781823
0.780296
0.778918
0.777867
0.776974
0.776138
0.774803
0.773717
0.772219
0.770725
0.769184
0.767752
0.764945
0.793169
0.79051
0.788341
0.786066
0.784526
0.782671
0.781267
0.779914
0.778821
0.777736
0.77669
0.77552
0.77445
0.772963
0.771594
0.770061
0.768748
0.797683
0.796333
0.794201
0.791363
0.78907
0.787057
0.785495
0.783839
0.782248
0.7812
0.779742
0.778668
0.777343
0.776319
0.775102
0.773726
0.772356
0.771522
0.800916
0.799534
0.797439
0.795259
0.792499
0.790421
0.788435
0.786963
0.784913
0.783476
0.782459
0.781239
0.779905
0.778318
0.776798
0.775374
0.774179
0.803679
0.80183
0.799861
0.79828
0.796163
0.793693
0.79178
0.790039
0.78844
0.786457
0.784937
0.783624
0.782114
0.780256
0.77878
0.777101
0.775616
0.806573
0.804791
0.802642
0.800837
0.799037
0.797277
0.794905
0.793336
0.791543
0.789928
0.788215
0.786541
0.784753
0.782825
0.781033
0.779469
0.777967
0.810222
0.808005
0.805736
0.803475
0.801672
0.799897
0.797847
0.79633
0.794269
0.792439
0.791095
0.789331
0.787492
0.785602
0.783839
0.782281
0.780554
0.813162
0.811032
0.809006
0.806984
0.804894
0.802364
0.799986
0.798562
0.797214
0.795119
0.793496
0.79202
0.790149
0.788362
0.786401
0.784583
0.783487
0.816436
0.814054
0.812124
0.810313
0.808411
0.806063
0.803387
0.800736
0.799421
0.797964
0.796195
0.794497
0.792935
0.791197
0.789277
0.787625
0.785267
0.816852
0.815176
0.813218
0.811249
0.809461
0.807362
0.805295
0.802807
0.800761
0.799222
0.796936
0.795344
0.793616
0.791833
0.790722
0.787731
0.821048
0.819
0.816493
0.814437
0.812199
0.810524
0.808796
0.806886
0.804572
0.802002
0.799925
0.797845
0.796235
0.794289
0.792776
0.82916
0.826133
0.823088
0.820216
0.818281
0.816097
0.813929
0.812037
0.810331
0.80802
0.805334
0.802454
0.800724
0.798917
0.797051
0.795386
0.835055
0.83241
0.829079
0.825238
0.821581
0.820087
0.817972
0.815914
0.813117
0.811212
0.809016
0.805858
0.80285
0.801216
0.799749
0.798127
0.843181
0.838874
0.835189
0.831584
0.827518
0.824497
0.822135
0.819963
0.81761
0.814958
0.81226
0.810672
0.807207
0.804005
0.80237
0.80034
0.857713
0.851472
0.846087
0.842107
0.838314
0.834886
0.831082
0.827513
0.824055
0.821104
0.819151
0.816664
0.813298
0.81156
0.808159
0.805523
0.865176
0.859647
0.854263
0.849117
0.844944
0.84107
0.837132
0.833883
0.83077
0.827519
0.825131
0.823117
0.8199
0.816446
0.812754
0.810947
0.875085
0.868444
0.862214
0.856994
0.851974
0.847907
0.843932
0.839466
0.836283
0.832832
0.830188
0.828939
0.828078
0.82652
0.821373
0.815739
0.884317
0.879097
0.872565
0.865357
0.860069
0.855457
0.85098
0.847503
0.843374
0.839019
0.835145
0.831887
0.829622
0.827796
0.826322
0.824126
0.890925
0.887216
0.882245
0.876309
0.870412
0.864445
0.859311
0.853612
0.850849
0.845934
0.84186
0.83789
0.835302
0.832445
0.829106
0.826884
0.89615
0.893269
0.889274
0.884122
0.879153
0.873449
0.869193
0.863709
0.858623
0.854081
0.849184
0.845176
0.841551
0.838165
0.835316
0.900984
0.898369
0.895115
0.890482
0.886822
0.881239
0.876409
0.871631
0.867131
0.862433
0.857993
0.852792
0.847878
0.844719
0.841285
0.83765
0.905348
0.902638
0.899735
0.896319
0.892466
0.88876
0.884463
0.87937
0.874023
0.870557
0.866319
0.861954
0.856561
0.851838
0.847561
0.844487
0.909396
0.90708
0.904322
0.901418
0.897245
0.893367
0.8899
0.886573
0.881765
0.877517
0.873258
0.869011
0.864946
0.860173
0.855116
0.910804
0.908887
0.905784
0.903025
0.89868
0.89579
0.891685
0.889038
0.884585
0.880513
0.87608
0.872052
0.867431
0.863124
0.914598
0.913457
0.910943
0.906071
0.90353
0.897266
0.897626
0.893563
0.889753
0.886438
0.88273
0.878471
0.875208
0.926032
0.92168
0.918686
0.916024
0.912964
0.908629
0.904425
0.902429
0.898333
0.894808
0.891312
0.887668
0.884803
0.879453
0.933686
0.92897
0.924813
0.921622
0.917839
0.914059
0.91143
0.908616
0.904054
0.900553
0.897146
0.893209
0.890261
0.887078
0.941853
0.936954
0.932617
0.928184
0.923884
0.920684
0.916879
0.91248
0.909963
0.906412
0.902831
0.898783
0.895266
0.892731
0.949699
0.944505
0.93998
0.934525
0.92844
0.925372
0.923749
0.919366
0.91594
0.912657
0.909727
0.904701
0.901137
0.89749
0.956945
0.951582
0.946729
0.942371
0.936566
0.925798
0.929171
0.926122
0.92277
0.918615
0.915335
0.912345
0.908784
0.902968
0.965173
0.960261
0.9531
0.948563
0.944525
0.938086
0.92742
0.930155
0.929483
0.925958
0.920855
0.917333
0.915279
0.94917
0.944971
0.937665
0.931226
0.927412
0.926512
0.924267
0.920743
0.916121
0.949773
0.9446
0.938817
0.932446
0.928656
0.925703
0.924259
0.919457
0.959023
0.952164
0.946582
0.942166
0.934587
0.92856
0.92692
0.968317
0.961939
0.9562
0.950239
0.944072
0.936394
0.929992
0.964615
0.961045
0.954396
0.94712
0.940586
0.980305
0.972912
0.966253
0.964337
0.958254
0.950676
1.00751
1.0026
0.990955
0.98431
0.963821
1.01319
1.00983
1.00343
0.997721
0.991905
0.963612
1.02522
1.00022
0.99338
0.987654
0.981753
1.03099
1.02129
1.00306
0.150978
0.14413
0.137805
0.215599
0.199927
0.190359
0.183995
0.173108
0.159085
0.140971
0.152954
0.0792433
0.252851
0.24392
0.231002
0.225691
0.215349
0.207271
0.19929
0.188404
0.177376
0.16699
0.146922
0.141338
0.125136
0.101939
0.0918992
0.283935
0.273235
0.265477
0.255099
0.247527
0.236156
0.227658
0.220968
0.211704
0.203008
0.192207
0.178387
0.165819
0.154291
0.143679
0.133598
0.116927
0.0976135
0.0890642
0.0671239
0.0539678
0.0443699
0.317328
0.307833
0.298381
0.287442
0.276235
0.267457
0.257981
0.248686
0.239987
0.23194
0.223719
0.216417
0.207803
0.196238
0.18011
0.17227
0.157488
0.148802
0.138403
0.125898
0.111154
0.0922837
0.0735067
0.346311
0.338203
0.331234
0.321176
0.312094
0.30011
0.288885
0.279146
0.269812
0.261099
0.25199
0.243292
0.234739
0.227122
0.218779
0.210765
0.198765
0.185029
0.167961
0.157459
0.149627
0.140877
0.129873
0.116373
0.100895
0.355892
0.351891
0.34807
0.341667
0.334103
0.323907
0.314881
0.303743
0.2923
0.28009
0.272396
0.264351
0.255618
0.245874
0.237488
0.229572
0.221942
0.213502
0.20126
0.18349
0.167606
0.15971
0.1516
0.142817
0.132031
0.368003
0.362352
0.357724
0.354597
0.350062
0.343827
0.336386
0.328988
0.318848
0.307506
0.295847
0.281524
0.274481
0.267357
0.261004
0.249866
0.240163
0.231922
0.22436
0.21562
0.203724
0.190659
0.173882
0.16385
0.153605
0.381838
0.37625
0.370524
0.365447
0.36045
0.356753
0.351701
0.34622
0.338114
0.331482
0.321919
0.309811
0.297862
0.286346
0.276213
0.270395
0.262769
0.25378
0.243651
0.234631
0.226916
0.217923
0.207433
0.194032
0.179882
0.405287
0.397525
0.389032
0.384242
0.378945
0.373293
0.367154
0.362626
0.358293
0.353108
0.347222
0.340063
0.333553
0.326217
0.314254
0.301511
0.290327
0.279453
0.271872
0.264056
0.255839
0.24716
0.238326
0.231332
0.222346
0.210072
0.421573
0.417492
0.412648
0.406342
0.399677
0.392693
0.387152
0.380884
0.375242
0.369503
0.364917
0.360386
0.354485
0.348467
0.342173
0.335584
0.327524
0.317171
0.305231
0.292462
0.283234
0.275459
0.267072
0.258932
0.251594
0.242558
0.235458
0.426992
0.422656
0.418329
0.413919
0.407964
0.401439
0.394218
0.389252
0.383314
0.377599
0.37226
0.366748
0.362
0.357348
0.35019
0.344139
0.33813
0.330121
0.320003
0.309218
0.298794
0.287726
0.279834
0.271571
0.262277
0.441076
0.438116
0.433949
0.429422
0.423854
0.419472
0.415109
0.409981
0.404459
0.39818
0.391628
0.385821
0.380391
0.374545
0.368878
0.363477
0.358917
0.352459
0.346375
0.340567
0.332719
0.323229
0.312648
0.302621
0.291562
0.447482
0.442185
0.43885
0.435857
0.431206
0.42458
0.420845
0.416272
0.410986
0.406396
0.400556
0.394722
0.387889
0.382172
0.376224
0.370912
0.36563
0.360847
0.354751
0.348854
0.343185
0.335499
0.32649
0.315497
0.465776
0.461191
0.453765
0.447214
0.442704
0.43916
0.437087
0.433494
0.427605
0.422601
0.417818
0.412875
0.408119
0.401347
0.396544
0.389408
0.383656
0.37813
0.373148
0.368265
0.362732
0.356337
0.351284
0.345582
0.337581
0.479602
0.473083
0.467431
0.463014
0.456407
0.450013
0.444349
0.439292
0.434379
0.4336
0.431518
0.425365
0.419872
0.414034
0.409149
0.404569
0.397786
0.391321
0.385067
0.379673
0.374921
0.369819
0.362886
0.358181
0.352868
0.490228
0.485346
0.480587
0.475541
0.470197
0.465132
0.459705
0.453407
0.447248
0.44029
0.433459
0.431832
0.435274
0.429015
0.421388
0.41592
0.410188
0.404866
0.399227
0.393294
0.386659
0.380901
0.3762
0.371318
0.365713
0.50368
0.499349
0.496266
0.491787
0.487353
0.482679
0.476975
0.472399
0.467221
0.461927
0.456216
0.450102
0.442252
0.433043
0.428339
0.431587
0.430928
0.424313
0.417709
0.410471
0.403729
0.400092
0.394505
0.387484
0.381916
0.377071
0.513601
0.512043
0.506204
0.501741
0.497809
0.49315
0.488871
0.484409
0.479157
0.474563
0.469599
0.463758
0.458314
0.45243
0.445213
0.435627
0.429326
0.426792
0.424854
0.422982
0.417682
0.411449
0.404234
0.39927
0.394287
0.387814
0.527023
0.520039
0.514891
0.511775
0.507552
0.50301
0.498846
0.494661
0.49049
0.486141
0.480927
0.475965
0.471263
0.465523
0.460051
0.45428
0.447539
0.441354
0.434772
0.429674
0.425427
0.423314
0.419251
0.413321
0.404481
0.397065
0.392974
0.533529
0.531248
0.526684
0.521927
0.517523
0.513186
0.508891
0.504486
0.500217
0.496043
0.491903
0.48769
0.483029
0.477634
0.472839
0.467394
0.461718
0.455732
0.449531
0.445474
0.438988
0.433939
0.429359
0.425495
0.421345
0.414581
0.40644
0.539644
0.535843
0.531654
0.527756
0.523546
0.519482
0.515306
0.510882
0.506313
0.501682
0.497302
0.493134
0.489017
0.484654
0.479898
0.474879
0.46935
0.463384
0.45695
0.450372
0.446724
0.442033
0.436694
0.431728
0.426754
0.421022
0.549143
0.543789
0.540511
0.537071
0.533277
0.529388
0.525579
0.521692
0.517756
0.513548
0.509135
0.504019
0.498777
0.494415
0.490302
0.486134
0.481683
0.476781
0.471319
0.465245
0.458864
0.451861
0.448338
0.443726
0.438242
0.432668
0.55762
0.552749
0.549724
0.545778
0.542235
0.538776
0.534963
0.531292
0.527605
0.523894
0.519967
0.515694
0.51129
0.50642
0.500703
0.496137
0.491964
0.487741
0.483288
0.478564
0.473293
0.467481
0.460769
0.454425
0.449916
0.444487
0.563525
0.558969
0.554792
0.550752
0.547505
0.544278
0.540464
0.536649
0.533094
0.529525
0.52587
0.521939
0.517656
0.513014
0.507874
0.502639
0.498213
0.493966
0.489618
0.484989
0.480269
0.475181
0.469552
0.463863
0.457869
0.573968
0.570113
0.565182
0.560748
0.556259
0.55255
0.549439
0.546009
0.542194
0.538502
0.534887
0.531299
0.527639
0.523725
0.51961
0.514891
0.509499
0.504629
0.500432
0.496179
0.491615
0.486802
0.481655
0.476739
0.471769
0.466823
0.583182
0.580087
0.575778
0.571588
0.566782
0.562281
0.558045
0.554311
0.551076
0.547667
0.544044
0.540363
0.536661
0.532954
0.529259
0.52537
0.521377
0.516951
0.511989
0.506962
0.502671
0.498227
0.493297
0.488619
0.484051
0.479458
0.591927
0.587933
0.584753
0.581389
0.577317
0.572924
0.568335
0.563933
0.559943
0.556286
0.55286
0.549407
0.545873
0.542225
0.538427
0.534613
0.530871
0.527006
0.522969
0.518899
0.514416
0.50952
0.505211
0.500159
0.495768
0.491073
0.486073
0.595686
0.592789
0.589867
0.58637
0.58277
0.578728
0.574253
0.569813
0.565639
0.561882
0.55832
0.554756
0.551299
0.547719
0.543985
0.540176
0.536357
0.532497
0.528563
0.524663
0.520819
0.516391
0.511797
0.507731
0.503027
0.498831
0.603497
0.600433
0.597319
0.59433
0.591444
0.588105
0.584161
0.579898
0.575487
0.571331
0.567356
0.563665
0.560254
0.556781
0.553225
0.549507
0.545737
0.541951
0.538268
0.534354
0.53041
0.526559
0.52247
0.518587
0.512858
0.509862
0.607419
0.6046
0.601472
0.598436
0.595739
0.593124
0.589577
0.585384
0.5809
0.57682
0.572843
0.569134
0.565489
0.562071
0.558665
0.555035
0.551308
0.547487
0.543658
0.540219
0.536413
0.532184
0.528001
0.524764
0.520537
0.61559
0.612553
0.60924
0.605494
0.602391
0.599533
0.596962
0.594174
0.590548
0.586378
0.581885
0.577973
0.574291
0.570838
0.567351
0.56411
0.560943
0.557193
0.553485
0.549803
0.545923
0.542284
0.538408
0.534612
0.529078
0.620333
0.617172
0.613791
0.61023
0.606695
0.60347
0.600624
0.597764
0.594757
0.591078
0.587125
0.583097
0.579397
0.575752
0.571871
0.56806
0.564737
0.561792
0.558877
0.554963
0.551344
0.547399
0.543853
0.540178
0.537269
0.627176
0.624564
0.621857
0.61832
0.61503
0.611386
0.608095
0.604912
0.601835
0.598599
0.595267
0.591692
0.588052
0.584426
0.580977
0.577358
0.573139
0.569258
0.565349
0.561246
0.558301
0.555081
0.551587
0.548813
0.54531
0.631857
0.628782
0.626453
0.6235
0.620023
0.616346
0.612943
0.609784
0.606551
0.603156
0.599627
0.595938
0.592365
0.588828
0.585399
0.582376
0.578901
0.574776
0.57081
0.566611
0.56267
0.559168
0.556443
0.553362
0.549956
0.637203
0.634923
0.632602
0.630172
0.628149
0.62545
0.621756
0.617977
0.614532
0.611483
0.608169
0.604759
0.6011
0.597067
0.593279
0.589654
0.58615
0.583075
0.580024
0.576242
0.572122
0.568205
0.564526
0.561516
0.558209
0.641377
0.638644
0.635853
0.633363
0.63141
0.629647
0.627391
0.623815
0.619918
0.616304
0.613164
0.609807
0.606316
0.602579
0.598437
0.594531
0.591001
0.587623
0.584524
0.581105
0.577452
0.573473
0.569909
0.564824
0.648269
0.64485
0.642145
0.639242
0.636603
0.634182
0.63216
0.630441
0.628727
0.625591
0.621922
0.618257
0.614879
0.61152
0.607785
0.60391
0.599845
0.596016
0.592517
0.589224
0.586067
0.582494
0.578742
0.575285
0.571699
0.652087
0.649045
0.646249
0.64321
0.640269
0.637666
0.635251
0.633072
0.631255
0.629699
0.626967
0.623608
0.620117
0.616519
0.613186
0.609418
0.605428
0.601454
0.59761
0.594038
0.590836
0.587511
0.584151
0.579718
0.658985
0.65601
0.653623
0.650262
0.647228
0.644271
0.641544
0.639019
0.636567
0.634339
0.632509
0.63076
0.628138
0.625121
0.621895
0.618346
0.615029
0.611374
0.607423
0.603421
0.59948
0.595785
0.59221
0.588933
0.585639
0.662942
0.660213
0.657545
0.654593
0.651387
0.648262
0.645398
0.642981
0.640496
0.638002
0.635895
0.633979
0.631905
0.629276
0.626386
0.623293
0.619947
0.616626
0.613215
0.609326
0.605293
0.601488
0.598151
0.594324
0.668874
0.666388
0.664211
0.661345
0.658651
0.655608
0.652424
0.649269
0.646479
0.644422
0.642062
0.639568
0.637522
0.635588
0.633358
0.630669
0.627767
0.624908
0.621979
0.618706
0.615065
0.611208
0.607156
0.603932
0.600642
0.671671
0.67012
0.667849
0.6654
0.662653
0.65974
0.656693
0.653486
0.650193
0.647357
0.645577
0.64368
0.64129
0.639179
0.637109
0.634767
0.632153
0.629367
0.62666
0.6238
0.620552
0.616956
0.613341
0.609455
0.674579
0.673195
0.671293
0.66926
0.666737
0.663984
0.661069
0.657986
0.654694
0.651205
0.648044
0.645843
0.644842
0.643107
0.641098
0.638865
0.636471
0.633813
0.630926
0.628331
0.625606
0.622332
0.619048
0.615763
0.679385
0.677208
0.675562
0.673938
0.672429
0.670483
0.668093
0.665404
0.662532
0.659505
0.656204
0.652608
0.649044
0.645869
0.64406
0.643297
0.642069
0.64014
0.637864
0.635168
0.632329
0.629667
0.626915
0.623928
0.620763
0.68273
0.680496
0.678171
0.676285
0.674955
0.673586
0.671783
0.669475
0.666868
0.66409
0.661139
0.657936
0.654398
0.650731
0.647307
0.644704
0.643085
0.641735
0.640135
0.63813
0.635795
0.633341
0.631265
0.628497
0.686759
0.683513
0.681496
0.679101
0.677103
0.675829
0.674614
0.672932
0.670722
0.668312
0.665674
0.662741
0.659663
0.656349
0.652865
0.649516
0.646653
0.644426
0.642655
0.640776
0.638906
0.636636
0.634527
0.632093
0.688557
0.687137
0.68479
0.682504
0.680158
0.678022
0.676651
0.675441
0.673795
0.671675
0.669441
0.66698
0.664222
0.661327
0.658279
0.655107
0.651986
0.649112
0.646546
0.644304
0.642328
0.640282
0.638407
0.692757
0.691239
0.689704
0.687741
0.685821
0.683626
0.681425
0.679398
0.677707
0.676233
0.674528
0.672429
0.670321
0.667996
0.665485
0.662813
0.660021
0.657105
0.654192
0.651359
0.648739
0.646258
0.643979
0.641476
0.695674
0.693577
0.691951
0.690348
0.688747
0.686932
0.684968
0.682895
0.680891
0.679008
0.677285
0.675458
0.673359
0.671219
0.668975
0.666602
0.664105
0.661492
0.658805
0.65602
0.653415
0.650705
0.648487
0.645351
0.698127
0.696214
0.694299
0.692627
0.69128
0.68986
0.688174
0.686334
0.684419
0.682488
0.680498
0.678531
0.676565
0.674438
0.672229
0.66999
0.667721
0.665315
0.662852
0.660263
0.657524
0.654868
0.652126
0.70293
0.700448
0.698894
0.696626
0.694757
0.693313
0.692258
0.691106
0.689445
0.687654
0.685845
0.684018
0.681991
0.679851
0.677762
0.675595
0.673349
0.671132
0.668923
0.666598
0.664177
0.66175
0.659209
0.655301
0.70696
0.703731
0.701488
0.699456
0.697114
0.695171
0.693853
0.693167
0.692273
0.690585
0.688778
0.687053
0.68536
0.683369
0.681187
0.67904
0.676882
0.67465
0.672398
0.670125
0.66792
0.665456
0.663033
0.661474
0.707931
0.706746
0.704725
0.702391
0.70005
0.697696
0.695644
0.694199
0.693732
0.693184
0.691574
0.689826
0.688078
0.686448
0.68462
0.682552
0.680387
0.678236
0.675989
0.673656
0.67136
0.669002
0.666997
0.663986
0.711436
0.709581
0.707656
0.705444
0.703194
0.700866
0.698498
0.696317
0.694602
0.693925
0.693759
0.692442
0.690833
0.689052
0.687411
0.685698
0.683777
0.681615
0.679446
0.677175
0.674767
0.672268
0.670289
0.716229
0.714909
0.712672
0.710578
0.708569
0.706434
0.704214
0.701967
0.699665
0.69749
0.69551
0.694265
0.694283
0.693226
0.691801
0.690083
0.688424
0.686799
0.684936
0.682712
0.680454
0.678256
0.675953
0.67285
0.720781
0.717712
0.71595
0.713901
0.711808
0.709655
0.707571
0.70543
0.70326
0.701106
0.699102
0.697097
0.695602
0.695211
0.694127
0.692812
0.691196
0.689534
0.687877
0.685937
0.683837
0.681454
0.67914
0.677347
0.723152
0.721566
0.719238
0.716958
0.715056
0.713022
0.71092
0.708838
0.706721
0.704568
0.702508
0.700738
0.698961
0.697473
0.696486
0.695195
0.693846
0.69233
0.690697
0.688961
0.686932
0.684678
0.682471
0.726597
0.724457
0.722259
0.720213
0.718178
0.716176
0.714215
0.712166
0.710111
0.707941
0.705685
0.703577
0.702043
0.700819
0.69934
0.697868
0.696347
0.694961
0.693529
0.69192
0.690084
0.688136
0.685962
0.728829
0.727178
0.725326
0.723136
0.721054
0.719145
0.717256
0.715369
0.713412
0.711328
0.709045
0.706579
0.704252
0.702796
0.702264
0.701224
0.699535
0.697807
0.696242
0.694669
0.692951
0.691257
0.689671
0.731663
0.730241
0.728022