/*--------------------------------*- C++ -*----------------------------------*\
  =========                 |
  \\      /  F ield         | OpenFOAM: The Open Source CFD Toolbox
   \\    /   O peration     | Website:  https://openfoam.org
    \\  /    A nd           | Version:  8
     \\/     M anipulation  |
\*---------------------------------------------------------------------------*/
FoamFile
{
    version     2.0;
    format      ascii;
    class       volScalarField;
    location    "80";
    object      p;
}
// * * * * * * * * * * * * * * * * * * * * * * * * * * * * * * * * * * * * * //

dimensions      [0 2 -2 0 0 0 0];

internalField   nonuniform List<scalar> 
404911
(
1.73283
1.73057
1.72715
1.7089
1.74446
1.73565
1.72689
1.71912
1.71345
1.71118
1.76944
1.76428
1.76215
1.75142
1.74534
1.73101
1.79469
1.78685
1.77959
1.77011
1.81358
1.80864
1.80291
1.83398
1.82976
1.82107
1.85682
1.84694
1.84519
1.88783
1.86605
1.85981
1.85295
1.85854
1.89549
1.88919
1.88179
1.9335
1.92568
1.9179
1.9167
1.9618
1.95078
1.94743
1.94148
1.9249
1.97615
1.96817
1.96447
1.96197
1.987
1.9892
1.98308
1.97542
1.9979
1.9995
2.04935
1.72926
1.75026
1.7374
1.76954
1.76558
1.79303
1.78814
1.78052
1.81001
1.80846
1.80253
1.83458
1.82768
1.85401
1.8493
1.8462
1.8698
1.86811
1.86531
1.8592
1.89495
1.89205
1.92545
1.92354
1.95098
1.94499
1.94321
1.9725
1.96603
1.98686
1.98678
1.99176
1.99955
2.00093
2.0291
2.05181
2.05271
2.07827
2.07202
2.06623
2.10394
2.09994
2.09335
2.13683
2.121
2.11854
2.14845
0.55917
0.542971
0.533314
0.607607
0.61645
0.581728
0.598154
0.574793
0.560045
0.558598
0.527638
0.646363
0.620114
0.61698
0.618305
0.605187
0.595978
0.576325
0.584683
0.57218
0.697806
0.682305
0.677655
0.657721
0.639472
0.638425
0.635752
0.639149
0.619193
0.607632
0.611365
0.596841
0.548963
0.517265
0.554257
0.592514
0.720278
0.716177
0.708899
0.701498
0.69147
0.673025
0.652284
0.647029
0.631871
0.637858
0.641185
0.618175
0.625266
0.559109
0.566136
0.752174
0.739513
0.737974
0.727319
0.719445
0.714226
0.706076
0.692492
0.671039
0.660395
0.645078
0.641382
0.648012
0.625125
0.638835
0.770126
0.762192
0.758819
0.750655
0.744231
0.737459
0.729013
0.716803
0.709707
0.700821
0.683759
0.675159
0.656524
0.644142
0.628431
0.64386
0.793946
0.783311
0.771947
0.763789
0.763885
0.757563
0.751838
0.751714
0.74223
0.729596
0.726074
0.71617
0.702512
0.688252
0.672595
0.656527
0.646942
0.815816
0.807849
0.800074
0.794707
0.791115
0.781089
0.769867
0.768765
0.763766
0.763072
0.765045
0.757685
0.744654
0.739372
0.733481
0.717955
0.706332
0.693773
0.828443
0.833686
0.824718
0.815751
0.805685
0.800264
0.794889
0.787853
0.778582
0.774742
0.769639
0.770358
0.764792
0.755006
0.749626
0.742296
0.741554
0.730712
0.866415
0.852432
0.848621
0.849001
0.841928
0.832249
0.822282
0.811954
0.800578
0.79687
0.791151
0.788651
0.787302
0.791182
0.783035
0.769325
0.763445
0.753761
0.898027
0.886099
0.872288
0.863715
0.86138
0.858904
0.847001
0.841114
0.83756
0.824991
0.810353
0.804458
0.804758
0.798206
0.802439
0.794097
0.760348
0.919641
0.906257
0.897483
0.898982
0.889646
0.876983
0.870481
0.875737
0.871862
0.856032
0.855341
0.840865
0.829366
0.823426
0.817422
0.805097
0.807421
0.956438
0.937592
0.927263
0.928512
0.918708
0.916509
0.905752
0.899223
0.890943
0.887999
0.890577
0.87465
0.86753
0.850231
0.848051
0.841043
0.834702
0.829034
0.944613
0.953924
0.960516
0.949408
0.937932
0.941362
0.932092
0.922707
0.914653
0.90244
0.907661
0.904184
0.893575
0.889782
0.877851
0.861468
0.865655
0.862242
0.967679
0.964637
0.958496
0.963241
0.964889
0.955924
0.946251
0.948699
0.94522
0.933558
0.922761
0.912857
0.918812
0.919465
0.912488
0.903765
0.895414
0.876755
0.998959
0.986391
0.976818
0.967513
0.97037
0.96975
0.957967
0.95497
0.953034
0.955093
0.941783
0.922571
0.919319
0.928368
0.937278
0.930314
0.915095
0.905034
1.03026
1.02045
1.01054
1.00202
0.991451
0.976336
0.976786
0.977387
0.965954
0.958617
0.964187
0.963364
0.955682
0.933798
0.921686
0.933679
0.941755
0.938861
1.06012
1.04261
1.03455
1.02723
1.01478
0.998978
0.99362
0.982789
0.984435
0.974748
0.972524
0.977567
0.977035
0.968334
0.954035
0.937542
0.948886
0.957394
1.05563
1.06378
1.0631
1.05048
1.04211
1.03667
1.02657
1.01369
1.0031
0.996873
0.988756
0.982605
0.979135
0.984397
0.987988
0.984609
0.972152
0.947526
1.08033
1.0687
1.07203
1.07311
1.0611
1.05369
1.04631
1.03889
1.02616
1.0161
1.01389
1.00132
0.993837
0.98415
0.984549
0.989914
0.988558
1.09419
1.08729
1.07918
1.07924
1.08142
1.08161
1.07045
1.05832
1.05513
1.05183
1.04243
1.03367
1.02615
1.02088
1.01356
0.999988
1.00086
0.998507
1.11626
1.10139
1.10384
1.09502
1.0895
1.09065
1.08727
1.07913
1.07038
1.05797
1.05942
1.05629
1.04639
1.03752
1.03763
1.03086
1.02141
1.01557
1.12085
1.12278
1.11526
1.11431
1.1056
1.09668
1.09824
1.09614
1.09263
1.0861
1.07459
1.07112
1.06925
1.0598
1.05055
1.06516
1.05064
1.04813
1.14512
1.13051
1.12956
1.12995
1.12957
1.12761
1.1246
1.1116
1.10385
1.10238
1.0963
1.08939
1.08524
1.08711
1.07875
1.07439
1.06748
1.0454
1.14815
1.14912
1.14831
1.14754
1.14223
1.14062
1.14019
1.1365
1.13872
1.12755
1.12065
1.11282
1.10275
1.09693
1.08954
1.08899
1.08759
1.08281
1.17173
1.15809
1.15796
1.15572
1.1517
1.14738
1.15102
1.15884
1.14806
1.14008
1.13694
1.13607
1.12922
1.11887
1.11354
1.10288
1.10339
1.0894
1.18201
1.17913
1.17536
1.17006
1.16555
1.16396
1.16058
1.15374
1.15577
1.17249
1.17764
1.16018
1.15007
1.14453
1.1466
1.13839
1.10944
1.12681
1.1987
1.19534
1.18935
1.18427
1.17946
1.17552
1.17356
1.17009
1.1622
1.15752
1.16581
1.17709
1.1748
1.16621
1.15614
1.1565
1.15403
1.14997
1.21242
1.20944
1.20483
1.19896
1.19718
1.19246
1.18644
1.1829
1.17984
1.1743
1.16607
1.16468
1.17041
1.17336
1.17293
1.16545
1.16281
1.16004
1.22188
1.22182
1.21736
1.21262
1.21035
1.21063
1.20485
1.19577
1.19277
1.18969
1.18665
1.18047
1.17488
1.17439
1.17367
1.17459
1.17578
1.18503
1.22493
1.23295
1.2283
1.22798
1.23197
1.22174
1.2185
1.22099
1.22303
1.20898
1.20453
1.2001
1.19882
1.19642
1.19146
1.18723
1.18332
1.17041
1.25291
1.24446
1.2366
1.23434
1.23295
1.2333
1.22937
1.22379
1.22502
1.23332
1.22473
1.21857
1.21156
1.2098
1.20797
1.20618
1.20032
1.19751
1.28098
1.26694
1.26041
1.25499
1.24657
1.24166
1.23893
1.23488
1.23038
1.22978
1.23371
1.23553
1.23145
1.22425
1.22234
1.22113
1.22505
1.22772
1.28735
1.28907
1.28301
1.27586
1.27092
1.26232
1.25362
1.24711
1.24461
1.24201
1.23993
1.24175
1.24334
1.2413
1.23541
1.23143
1.2337
1.31592
1.30614
1.30452
1.30278
1.29441
1.28655
1.28383
1.28157
1.27276
1.26161
1.2577
1.25412
1.25247
1.25261
1.2535
1.24909
1.24573
1.23595
1.33441
1.3217
1.32102
1.32171
1.31699
1.30686
1.29269
1.29005
1.29167
1.28449
1.2724
1.27125
1.26676
1.26325
1.2627
1.26239
1.25751
1.263
1.33133
1.33194
1.33036
1.32976
1.33093
1.33161
1.32181
1.30707
1.29505
1.3042
1.29772
1.2893
1.28352
1.27918
1.27417
1.27433
1.2804
1.27966
1.3597
1.34444
1.34211
1.33855
1.33752
1.33635
1.3394
1.34298
1.33417
1.31955
1.30969
1.31384
1.31049
1.3042
1.29838
1.29437
1.28758
1.28864
1.36738
1.36184
1.35902
1.35258
1.34803
1.34458
1.34071
1.34455
1.35384
1.34736
1.33328
1.31815
1.31839
1.3181
1.31661
1.31392
1.30764
1.29376
1.38702
1.37716
1.37228
1.36975
1.366
1.36039
1.35624
1.35086
1.34931
1.35921
1.35939
1.34492
1.33542
1.33166
1.32843
1.32591
1.32386
1.32463
1.38371
1.39428
1.38737
1.38303
1.38083
1.37823
1.37478
1.37269
1.36786
1.3607
1.3609
1.36787
1.35828
1.35169
1.34664
1.34028
1.34148
1.33534
1.41273
1.41052
1.40437
1.39723
1.39219
1.38973
1.38799
1.38756
1.38974
1.38866
1.3754
1.36823
1.37554
1.37093
1.36641
1.36256
1.35274
1.43508
1.42156
1.42174
1.41847
1.41483
1.41063
1.40505
1.39957
1.3958
1.39529
1.40015
1.41036
1.40463
1.38951
1.38466
1.38259
1.37799
1.37555
1.44048
1.43658
1.43357
1.43284
1.43023
1.42859
1.42674
1.4214
1.4104
1.40427
1.40081
1.40159
1.41386
1.42322
1.41061
1.39884
1.39334
1.39197
1.45919
1.45339
1.44734
1.44425
1.44009
1.43704
1.43774
1.44259
1.43857
1.41946
1.4121
1.40685
1.40465
1.40918
1.41774
1.4161
1.40763
1.40339
1.46932
1.46987
1.46492
1.45823
1.45464
1.44892
1.44291
1.44082
1.44826
1.4537
1.43965
1.4246
1.41754
1.41493
1.41575
1.42175
1.42034
1.41916
1.49757
1.48576
1.47972
1.47592
1.47116
1.46584
1.45899
1.45135
1.4459
1.4478
1.45276
1.45182
1.44298
1.43397
1.42903
1.42676
1.43137
1.42285
1.51199
1.50827
1.50074
1.49332
1.48884
1.48407
1.47811
1.47131
1.46361
1.45852
1.45668
1.45849
1.46033
1.45636
1.44986
1.44374
1.44303
1.43903
1.53004
1.52696
1.52239
1.51592
1.50889
1.50315
1.49784
1.49151
1.48426
1.47586
1.47148
1.4692
1.46924
1.47026
1.4686
1.46333
1.45697
1.44701
1.53981
1.53955
1.54206
1.5363
1.52884
1.52285
1.51653
1.51017
1.50132
1.49149
1.4834
1.48243
1.47998
1.47975
1.48123
1.47925
1.47534
1.47906
1.55346
1.54843
1.54613
1.54937
1.55217
1.55313
1.54388
1.5307
1.52378
1.52018
1.51702
1.50471
1.49359
1.49497
1.49145
1.48959
1.48942
1.49275
1.48876
1.56805
1.5667
1.56142
1.55994
1.55329
1.55691
1.56385
1.55892
1.54358
1.53226
1.52454
1.52648
1.5197
1.51263
1.50969
1.50527
1.50264
1.50152
1.58105
1.57545
1.56998
1.56246
1.55649
1.55654
1.56575
1.56676
1.55467
1.54517
1.53704
1.53227
1.53162
1.52843
1.52338
1.51792
1.51989
1.5931
1.59444
1.59196
1.58602
1.58105
1.57362
1.56553
1.56292
1.56884
1.5721
1.56389
1.55727
1.54933
1.54151
1.54065
1.53912
1.53721
1.53312
1.61894
1.60827
1.6084
1.60265
1.59782
1.59358
1.58791
1.5801
1.57521
1.58009
1.58228
1.57465
1.56805
1.56333
1.55759
1.55321
1.54959
1.53826
1.63083
1.63308
1.62502
1.61861
1.61343
1.60913
1.6079
1.60426
1.59286
1.58613
1.59304
1.59533
1.58854
1.58395
1.57655
1.56948
1.56578
1.56412
1.64901
1.64373
1.63617
1.63062
1.62473
1.61979
1.61916
1.62094
1.60791
1.59429
1.60035
1.59984
1.59788
1.59434
1.58852
1.58155
1.57776
1.66961
1.65999
1.65207
1.64841
1.64369
1.63784
1.63087
1.62938
1.63327
1.62123
1.61045
1.60951
1.60637
1.60526
1.6054
1.60157
1.59542
1.68001
1.68201
1.67815
1.66963
1.66638
1.66212
1.65783
1.65234
1.64361
1.63858
1.64396
1.63347
1.62603
1.62373
1.6175
1.6146
1.61423
1.61297
1.69216
1.69122
1.69253
1.68895
1.68269
1.67914
1.67508
1.67157
1.66829
1.6545
1.64281
1.6498
1.6467
1.64014
1.63721
1.62922
1.62986
1.71044
1.70566
1.69812
1.70196
1.69795
1.69155
1.68868
1.68518
1.68203
1.67963
1.66881
1.65543
1.65553
1.65581
1.6526
1.64972
1.64287
1.74858
1.73862
1.73053
1.72294
1.71266
1.70812
1.70539
1.70066
1.69486
1.69215
1.68782
1.68755
1.68193
1.67324
1.66545
1.66254
1.65977
1.65265
1.76885
1.75933
1.75137
1.74274
1.73457
1.72803
1.72215
1.71508
1.70874
1.70208
1.70209
1.6939
1.68794
1.68721
1.68418
1.67804
1.67551
1.6696
1.77523
1.77138
1.76624
1.76051
1.75204
1.74548
1.73591
1.73022
1.72546
1.71992
1.71413
1.71004
1.7057
1.70244
1.69558
1.69417
1.69276
1.68866
1.80045
1.7939
1.78258
1.77414
1.7689
1.76216
1.75565
1.74624
1.73813
1.73613
1.73203
1.72697
1.72222
1.71711
1.71425
1.71092
1.70787
1.70695
1.81977
1.80608
1.80421
1.80616
1.79499
1.78463
1.77749
1.77129
1.76532
1.75973
1.75379
1.75151
1.7459
1.73822
1.73358
1.73025
1.72238
1.72009
1.72684
1.83971
1.82745
1.81983
1.81682
1.81248
1.80325
1.79524
1.7888
1.78147
1.77575
1.7706
1.7654
1.76037
1.75531
1.74754
1.74143
1.74006
1.73244
1.73653
1.83644
1.83896
1.83264
1.82845
1.82323
1.81507
1.81026
1.79925
1.79032
1.78516
1.78202
1.77357
1.76817
1.76461
1.75862
1.75203
1.75147
1.7516
1.86107
1.85734
1.85265
1.84642
1.84417
1.83897
1.83192
1.82337
1.81467
1.80577
1.79599
1.79413
1.78766
1.78229
1.77844
1.77301
1.76736
1.88422
1.87908
1.87225
1.86642
1.8615
1.85686
1.85271
1.84735
1.84158
1.82903
1.82181
1.81839
1.80846
1.80293
1.79813
1.79438
1.77881
1.9183
1.90036
1.89512
1.89089
1.88323
1.87867
1.87286
1.86523
1.859
1.85387
1.84459
1.83957
1.83357
1.82529
1.81683
1.81471
1.80505
1.9484
1.94809
1.93671
1.92026
1.91222
1.91028
1.90113
1.89603
1.88796
1.87992
1.87354
1.86842
1.8596
1.85516
1.84947
1.84224
1.83686
1.83697
1.9695
1.96652
1.96507
1.95424
1.94345
1.93628
1.93137
1.92156
1.91552
1.90697
1.89694
1.89187
1.88541
1.88122
1.87128
1.86298
1.8587
1.98558
1.97983
1.97667
1.97277
1.96713
1.9608
1.95497
1.94804
1.93796
1.93135
1.92203
1.90939
1.904
1.89859
1.89497
1.88616
1.87858
1.99984
1.9993
1.99355
1.9888
1.9844
1.97806
1.97425
1.96647
1.9605
1.94878
1.94119
1.93375
1.924
1.91364
1.91044
1.90829
1.89907
2.0246
2.01899
2.01355
2.00477
2.00389
1.99735
1.99497
1.98864
1.98329
1.97511
1.96558
1.95426
1.94773
1.93884
1.92886
1.92801
1.91864
2.03913
2.0402
2.03453
2.02823
2.02125
2.01692
2.01483
2.00957
2.00145
1.99815
1.99319
1.98168
1.97566
1.96733
1.9565
1.9489
1.94523
2.06842
2.06118
2.0527
2.04634
2.04243
2.03799
2.03258
2.03025
2.0255
2.01675
2.01386
2.01024
2.00267
1.99375
1.98845
1.97706
1.97416
2.081
2.0774
2.07255
2.06547
2.0588
2.05147
2.04451
2.04469
2.04291
2.03437
2.0305
2.02574
2.02094
2.00987
2.01325
1.998
2.09981
2.09857
2.09084
2.08909
2.08303
2.07542
2.06438
2.0607
2.05837
2.05785
2.05071
2.04611
2.04274
2.03712
2.03006
2.11735
2.11016
2.11217
2.11276
2.10625
2.10584
2.09954
2.09274
2.08098
2.07691
2.0739
2.07331
2.06859
2.06196
2.06101
2.0522
2.1356
2.13609
2.13456
2.13051
2.13437
2.12953
2.12389
2.11346
2.1116
2.101
2.09351
2.08778
2.08418
2.08315
2.08075
2.06759
2.16951
2.16821
2.16348
2.14641
2.14502
2.14695
2.14195
2.14096
2.13176
2.12869
2.12414
2.11484
2.10933
2.10276
2.10189
2.10048
2.22347
2.20165
2.18883
2.18507
2.19347
2.17944
2.16851
2.16275
2.15735
2.15817
2.15346
2.14857
2.13462
2.1321
2.12426
2.11556
2.23332
2.23544
2.23639
2.21977
2.2031
2.20184
2.19604
2.1876
2.18292
2.17924
2.18189
2.17599
2.16802
2.15443
2.14147
2.14341
2.27584
2.26712
2.26114
2.26115
2.24685
2.23063
2.22138
2.21394
2.20462
2.19549
2.18588
2.19637
2.19968
2.1938
2.17829
2.16352
2.32932
2.30756
2.28619
2.27975
2.27685
2.26979
2.26143
2.25044
2.2402
2.22869
2.2184
2.20219
2.20665
2.21831
2.21081
2.19396
2.36819
2.34301
2.33373
2.32006
2.30795
2.29296
2.28841
2.27862
2.26874
2.26106
2.25407
2.23646
2.22908
2.22179
2.22327
2.22811
2.37742
2.37813
2.36816
2.35353
2.34289
2.33038
2.31464
2.30688
2.29903
2.29243
2.28281
2.27466
2.27322
2.25367
2.24347
2.4065
2.40002
2.39136
2.38232
2.37766
2.36797
2.35963
2.34414
2.33009
2.32041
2.31292
2.30714
2.29275
2.28858
2.28558
2.26907
2.43694
2.42859
2.42331
2.41804
2.40508
2.39424
2.38577
2.38835
2.37812
2.35862
2.34754
2.34186
2.33443
2.31988
2.32007
2.31654
2.47013
2.45851
2.44917
2.43839
2.4371
2.42458
2.41633
2.40249
2.39627
2.38994
2.37595
2.36295
2.36587
2.36703
2.34582
2.48448
2.47769
2.46887
2.45545
2.44531
2.43891
2.43399
2.4276
2.41896
2.41147
2.39458
2.38733
2.38334
2.37015
2.50636
2.50022
2.49904
2.48685
2.47357
2.4658
2.45475
2.45224
2.44082
2.43581
2.43579
2.42571
2.42028
2.52136
2.52028
2.51822
2.51494
2.51655
2.50823
2.49392
2.4958
2.47529
2.47408
2.46138
2.45244
2.44964
2.43094
2.56301
2.54898
2.54396
2.53141
2.52686
2.53802
2.53064
2.51433
2.51363
2.50238
2.49066
2.48536
2.47444
2.47332
2.61592
2.59294
2.57623
2.56479
2.55873
2.56194
2.56013
2.54678
2.54319
2.53372
2.52713
2.5175
2.50692
2.51678
2.64079
2.63493
2.61419
2.60252
2.59659
2.59181
2.59639
2.58384
2.57306
2.5632
2.55885
2.55046
2.54218
2.54502
2.69119
2.67065
2.65989
2.6354
2.63031
2.60856
2.62532
2.61735
2.60974
2.59747
2.58637
2.58128
2.57945
2.57351
2.72884
2.70795
2.69404
2.68121
2.66206
2.65645
2.64369
2.65595
2.65415
2.64224
2.61807
2.60773
2.60923
2.69495
2.68337
2.68021
2.66379
2.65568
2.66046
2.65524
2.63833
2.62197
2.70082
2.69128
2.69079
2.67789
2.6632
2.66856
2.67457
2.66835
2.7559
2.72064
2.70248
2.70733
2.6825
2.67478
2.68124
2.77387
2.76523
2.74798
2.72923
2.71836
2.70444
2.67939
2.79021
2.77595
2.74989
2.73659
2.74309
2.80672
2.81174
2.80477
2.80767
2.7808
2.747
2.80526
2.82109
2.79596
2.8165
2.80392
2.82089
2.83152
2.83268
2.83002
2.83422
2.80172
2.86456
2.85312
2.82277
2.85443
2.87014
2.91211
2.90742
2.84761
0.0435928
0.0536986
0.102655
0.19161
0.15946
0.112017
0.116749
0.111066
0.0792273
0.0420191
0.0985906
-0.0815101
0.310026
0.309572
0.246591
0.239374
0.20711
0.161034
0.132931
0.124238
0.127979
0.107196
0.0558001
0.0403582
0.0376863
-0.0260409
-0.0448758
0.362859
0.376232
0.379435
0.332745
0.334509
0.286492
0.255083
0.225145
0.181122
0.131855
0.131981
0.105489
0.0962369
0.0892564
0.0673938
0.047143
0.00935665
-0.0757478
-0.0427265
-0.0784044
-0.0887758
0.0293577
0.39298
0.452814
0.405413
0.401487
0.391253
0.384752
0.375289
0.342945
0.314177
0.278629
0.240166
0.188942
0.144289
0.158426
0.0743764
0.131818
0.110081
0.115613
0.0892412
0.0431336
-0.0114304
-0.0834916
-0.134516
0.473756
0.417389
0.447118
0.440889
0.462076
0.424167
0.409833
0.398223
0.413083
0.405578
0.38304
0.344806
0.307197
0.271498
0.198708
0.178522
0.18606
0.167379
0.173402
0.155106
0.136324
0.118874
0.0742089
0.0248676
-0.0422374
0.505014
0.461839
0.463114
0.452168
0.436517
0.416301
0.449401
0.443697
0.415351
0.418266
0.416439
0.430296
0.420962
0.376907
0.327449
0.299743
0.265804
0.228171
0.216147
0.160903
0.190517
0.175061
0.158687
0.142596
0.0769108
0.49034
0.494663
0.496065
0.489081
0.461397
0.450248
0.434443
0.440145
0.454251
0.462537
0.445727
0.425394
0.422037
0.427255
0.452984
0.42227
0.355771
0.330103
0.296043
0.267338
0.252386
0.210373
0.182176
0.195186
0.166504
0.48981
0.491135
0.49825
0.501619
0.496342
0.487479
0.468283
0.462827
0.435225
0.434
0.434207
0.447297
0.450976
0.43859
0.423694
0.435237
0.438739
0.44236
0.389724
0.342195
0.321142
0.2914
0.278635
0.261241
0.211173
0.495346
0.463159
0.478503
0.492896
0.503948
0.506768
0.511788
0.500833
0.494975
0.487811
0.475129
0.444168
0.435614
0.427752
0.420488
0.432187
0.440424
0.435261
0.427657
0.454383
0.453697
0.404672
0.354806
0.348927
0.323697
0.274554
0.511644
0.511124
0.498398
0.491757
0.48698
0.501378
0.506652
0.509021
0.515012
0.518165
0.507539
0.500584
0.491741
0.485101
0.466211
0.446436
0.428176
0.420153
0.421105
0.39362
0.43137
0.448372
0.438252
0.436131
0.435358
0.371072
0.38284
0.52571
0.524711
0.518966
0.510663
0.507284
0.503601
0.505848
0.514811
0.513336
0.519245
0.52137
0.51775
0.51157
0.502858
0.4919
0.483295
0.465571
0.448554
0.432988
0.439376
0.430771
0.408074
0.471036
0.460893
0.479367
0.532569
0.543377
0.542513
0.544023
0.532861
0.527629
0.525412
0.511819
0.512051
0.5153
0.525461
0.522494
0.520002
0.524052
0.52354
0.52541
0.520659
0.505632
0.498102
0.480023
0.463017
0.455289
0.459673
0.43856
0.470737
0.544023
0.537542
0.541903
0.53988
0.536687
0.525367
0.530669
0.532573
0.522232
0.519764
0.523705
0.529885
0.524333
0.522389
0.530136
0.532377
0.535146
0.529975
0.519235
0.510927
0.491244
0.479321
0.47544
0.466643
0.561449
0.554711
0.544455
0.553954
0.544307
0.548612
0.552331
0.546738
0.542613
0.539347
0.535994
0.530008
0.528269
0.528077
0.536105
0.531672
0.52708
0.534012
0.538619
0.540033
0.542872
0.539126
0.527876
0.514044
0.474702
0.611543
0.579301
0.563013
0.564107
0.560992
0.554864
0.546999
0.547739
0.568903
0.567972
0.553148
0.549211
0.541069
0.537127
0.536934
0.54147
0.539306
0.539162
0.541437
0.546366
0.550897
0.557278
0.557679
0.554857
0.53833
0.633554
0.616544
0.609643
0.598607
0.589282
0.581473
0.579157
0.562306
0.545246
0.541685
0.567046
0.571991
0.563976
0.556589
0.54431
0.542931
0.53629
0.54707
0.544509
0.546327
0.547602
0.547615
0.554788
0.565391
0.568008
0.659158
0.661063
0.652378
0.644379
0.629825
0.621831
0.609792
0.614145
0.601259
0.592686
0.575627
0.555531
0.550617
0.570806
0.572508
0.568499
0.563184
0.548397
0.547992
0.542557
0.547363
0.55031
0.550697
0.5494
0.54872
0.55267
0.674112
0.700091
0.68188
0.678464
0.670432
0.656786
0.640294
0.626933
0.626428
0.622686
0.609156
0.604879
0.593188
0.575601
0.56414
0.570229
0.570133
0.575316
0.579079
0.56164
0.549944
0.554402
0.552343
0.557116
0.556556
0.556747
0.729144
0.700726
0.695649
0.70249
0.697583
0.68618
0.680383
0.669763
0.64964
0.630245
0.631964
0.639637
0.62763
0.624821
0.609394
0.598987
0.584411
0.572348
0.55918
0.557899
0.572395
0.556984
0.549311
0.555026
0.559624
0.565606
0.568778
0.733041
0.744942
0.732485
0.722921
0.71906
0.712596
0.708604
0.701977
0.693058
0.682892
0.664805
0.641329
0.633855
0.639993
0.641833
0.639092
0.623817
0.619223
0.618351
0.596597
0.570321
0.574558
0.574275
0.565428
0.553327
0.566128
0.558674
0.778657
0.760892
0.757786
0.747368
0.739095
0.73629
0.731136
0.724137
0.714448
0.705315
0.697225
0.684368
0.664295
0.647539
0.642931
0.643052
0.638711
0.627552
0.634495
0.644842
0.633141
0.606833
0.601319
0.589099
0.578621
0.559058
0.813498
0.775418
0.776503
0.77698
0.768334
0.761122
0.755612
0.745382
0.735781
0.727776
0.718712
0.71279
0.709504
0.702311
0.68903
0.672269
0.659037
0.650632
0.641308
0.631391
0.635631
0.644146
0.646818
0.633923
0.62255
0.612036
0.814603
0.802813
0.804735
0.797369
0.790606
0.790319
0.782592
0.770638
0.762392
0.755133
0.746313
0.740508
0.731116
0.722362
0.722478
0.716617
0.707301
0.695139
0.681374
0.667618
0.655326
0.64759
0.640087
0.645189
0.652806
0.633212
0.828433
0.823769
0.818302
0.811168
0.810629
0.806522
0.797882
0.789413
0.78127
0.774016
0.76638
0.760451
0.755069
0.74584
0.742527
0.737051
0.729489
0.722165
0.712346
0.700518
0.687835
0.676474
0.672966
0.66355
0.662352
0.867511
0.854035
0.852662
0.841253
0.832923
0.831162
0.822004
0.815618
0.81024
0.802563
0.794557
0.786865
0.780169
0.772065
0.765811
0.755721
0.757025
0.750482
0.741873
0.736217
0.728303
0.719718
0.707208
0.69621
0.695601
0.692933
0.885828
0.882381
0.876231
0.871807
0.863105
0.85687
0.850963
0.850565
0.839237
0.82979
0.823124
0.813136
0.807427
0.799101
0.793068
0.784835
0.783259
0.771014
0.765947
0.762573
0.754405
0.751224
0.741883
0.731986
0.726605
0.726214
0.922846
0.907264
0.898683
0.898351
0.891786
0.887798
0.880825
0.87349
0.868238
0.866225
0.856305
0.847755
0.840528
0.830783
0.822431
0.815104
0.80795
0.797618
0.79597
0.791063
0.780133
0.774729
0.76921
0.763847
0.755669
0.754977
0.751367
0.937422
0.926716
0.931394
0.9207
0.914263
0.908029
0.905771
0.89997
0.890519
0.883771
0.877724
0.871049
0.862619
0.857967
0.848872
0.841356
0.833565
0.824218
0.8135
0.804196
0.803953
0.79967
0.794279
0.785187
0.779686
0.785469
0.950544
0.945486
0.947014
0.943325
0.944494
0.935923
0.927939
0.924256
0.920379
0.914135
0.906847
0.897995
0.89393
0.887071
0.880183
0.871984
0.862329
0.857181
0.851707
0.840001
0.830534
0.822128
0.826447
0.815056
0.795681
0.808129
0.959191
0.961779
0.957294
0.952178
0.954796
0.951131
0.939199
0.936391
0.938766
0.935207
0.926477
0.916194
0.911085
0.911031
0.903801
0.893439
0.887377
0.877178
0.867412
0.863041
0.860602
0.850209
0.83556
0.842066
0.843841
0.989166
0.985959
0.977044
0.970121
0.966017
0.960896
0.962651
0.959484
0.945876
0.94516
0.950119
0.950409
0.9362
0.925948
0.919793
0.921555
0.918835
0.904472
0.900784
0.891545
0.882911
0.881147
0.879576
0.867051
0.842118
1.02058
1.00747
1.00161
0.994287
0.986631
0.976682
0.969838
0.973545
0.971545
0.956244
0.951316
0.954551
0.954259
0.942418
0.932376
0.926567
0.930251
0.929891
0.917152
0.91128
0.906684
0.903216
0.89629
0.893289
0.910386
1.04046
1.03935
1.0371
1.02583
1.02015
1.01273
1.0009
0.990858
0.983789
0.983853
0.982067
0.971671
0.964993
0.964869
0.961448
0.950948
0.936257
0.931413
0.931752
0.941085
0.936718
0.930702
0.921784
0.926756
0.911727
1.06103
1.05398
1.056
1.05281
1.04497
1.03602
1.02687
1.01127
1.00013
0.99449
0.986508
0.985728
0.980514
0.978062
0.98119
0.973858
0.962534
0.950937
0.943271
0.940279
0.947899
0.949904
0.939933
0.946294
0.951682
1.06832
1.07358
1.06558
1.06051
1.0648
1.05865
1.04888
1.04411
1.03812
1.02376
1.00828
1.00401
0.992575
0.992509
0.989242
0.986434
0.988396
0.986269
0.973999
0.969207
0.963364
0.958699
0.961422
0.96567
0.96395
1.09012
1.08871
1.0834
1.07468
1.07095
1.07271
1.07028
1.05997
1.05461
1.04783
1.0394
1.02495
1.01662
1.00529
1.00314
0.999649
0.991732
0.989141
0.989798
0.986754
0.984672
0.980649
0.975548
0.958237
1.10393
1.09885
1.09717
1.09565
1.09262
1.08553
1.07917
1.08099
1.08211
1.07493
1.06716
1.0598
1.04783
1.03708
1.02735
1.021
1.01908
1.01411
1.00396
1.00009
0.99883
0.996682
0.992965
0.996203
0.995231
1.11681
1.11287
1.11147
1.11001
1.10767
1.10454
1.09845
1.09296
1.09245
1.09067
1.08473
1.0816
1.07648
1.0631
1.05508
1.04101
1.0358
1.03641
1.02986
1.02099
1.01558
1.01328
1.0089
0.994837
1.13191
1.12918
1.127
1.12383
1.12241
1.12194
1.11844
1.11564
1.11047
1.10429
1.10238
1.09996
1.09271
1.08915
1.08701
1.08135
1.06645
1.05672
1.04884
1.04817
1.04409
1.03757
1.02756
1.02349
1.01934
1.14448
1.14194
1.1403
1.13766
1.13515
1.13207
1.13089
1.12887
1.1266
1.12469
1.11468
1.10792
1.10525
1.10022
1.09389
1.08979
1.08755
1.08013
1.06972
1.0629
1.06007
1.05653
1.05206
1.0417
1.1574
1.15576
1.15269
1.14947
1.15025
1.14802
1.14383
1.14112
1.14166
1.14109
1.13851
1.13747
1.13078
1.12156
1.11363
1.1077
1.10134
1.09377
1.08994
1.08885
1.08323
1.07679
1.06695
1.07455
1.07085
1.17283
1.16869
1.16666
1.16347
1.16126
1.15824
1.15504
1.15179
1.14916
1.15159
1.15504
1.14957
1.14358
1.13941
1.13516
1.12711
1.1202
1.11175
1.10463
1.10258
1.10119
1.09316
1.09826
1.08478
1.18683
1.18705
1.18231
1.17925
1.17486
1.16924
1.1653
1.16262
1.16016
1.15776
1.16006
1.16841
1.16669
1.15802
1.14898
1.14328
1.14068
1.13403
1.12448
1.11952
1.11897
1.11622
1.11097
1.11109
1.2056
1.20107
1.19859
1.19622
1.19388
1.18896
1.18307
1.1777
1.17378
1.17102
1.16909
1.16661
1.16618
1.17167
1.17392
1.16842
1.16066
1.15342
1.15092
1.14636
1.14127
1.13444
1.13304
1.13061
1.138
1.22124
1.21634
1.21114
1.20989
1.20799
1.20398
1.19875
1.1941
1.18893
1.1841
1.18048
1.17842
1.17646
1.17392
1.17401
1.17436
1.17164
1.16719
1.16383
1.15971
1.15688
1.15573
1.15365
1.14941
1.24266
1.22682
1.22698
1.22236
1.22081
1.21707
1.21257
1.20853
1.20563
1.19998
1.19459
1.1912
1.18863
1.18708
1.18481
1.18228
1.17959
1.17687
1.17468
1.17294
1.17216
1.16686
1.16999
1.16636
1.25095
1.24796
1.23945
1.23369
1.22974
1.22973
1.22647
1.22115
1.21769
1.21729
1.21339
1.20462
1.2029
1.19998
1.1985
1.19717
1.19409
1.18983
1.18535
1.18348
1.18175
1.18621
1.18064
1.2767
1.26876
1.26482
1.25545
1.25024
1.24373
1.23771
1.23682
1.23477
1.23008
1.22631
1.22729
1.22744
1.219
1.2156
1.2117
1.20979
1.20848
1.20633
1.20254
1.19774
1.19705
1.19248
1.18732
1.29204
1.28552
1.28113
1.27517
1.26878
1.26257
1.25703
1.25128
1.24647
1.24289
1.23902
1.23503
1.23394
1.23374
1.23102
1.22774
1.2234
1.2208
1.21813
1.21626
1.21763
1.21191
1.21389
1.2123
1.30418
1.30436
1.30095
1.29444
1.2888
1.28223
1.27565
1.26994
1.26432
1.25573
1.25215
1.24885
1.24527
1.2427
1.24166
1.24043
1.23762
1.23338
1.23099
1.22915
1.2264
1.22462
1.22335
1.31911
1.31511
1.31418
1.3117
1.31011
1.30631
1.30078
1.29437
1.2876
1.2828
1.27951
1.26875
1.2634
1.26035
1.25617
1.25375
1.25258
1.25117
1.24746
1.24239
1.2407
1.24002
1.24071
1.22553
1.34292
1.32779
1.32558
1.32519
1.32337
1.32158
1.31819
1.31356
1.30618
1.29786
1.29334
1.29236
1.28426
1.27471
1.27269
1.26801
1.26468
1.26277
1.26196
1.25901
1.25424
1.25282
1.24882
1.26051
1.34126
1.34309
1.34082
1.33705
1.33544
1.33264
1.3305
1.32917
1.32575
1.31803
1.30835
1.3014
1.30194
1.30014
1.2883
1.28406
1.27997
1.27528
1.27199
1.27069
1.2696
1.2678
1.26603
1.26894
1.35717
1.35964
1.35417
1.34967
1.34588
1.34293
1.34163
1.33925
1.33914
1.33835
1.33052
1.32046
1.31135
1.31131
1.30936
1.30174
1.29677
1.29146
1.28631
1.28371
1.28119
1.27561
1.28496
1.37178
1.37625
1.3687
1.36676
1.36405
1.36007
1.3557
1.35181
1.35019
1.34788
1.34877
1.35035
1.3446
1.33331
1.32275
1.32096
1.31793
1.31273
1.30886
1.3029
1.297
1.2953
1.29573
1.28938
1.40284
1.38764
1.38563
1.38194
1.37859
1.37463
1.37073
1.36676
1.36262
1.36056
1.35822
1.35792
1.35954
1.35766
1.34774
1.33769
1.33256
1.32785
1.32316
1.31993
1.31618
1.31209
1.3075
1.30586
1.40194
1.40539
1.40205
1.39684
1.39321
1.38878
1.38453
1.38109
1.37786
1.37482
1.37387
1.37227
1.36907
1.36723
1.36591
1.35837
1.35068
1.34577
1.33957
1.33372
1.3293
1.3227
1.32089
1.42331
1.41785
1.41422
1.41326
1.40943
1.40358
1.39871
1.39443
1.39118
1.38858
1.38668
1.3873
1.38731
1.38178
1.37637
1.3743
1.36833
1.36256
1.35912
1.3526
1.34609
1.344
1.33468
1.4323
1.43078
1.42908
1.42647
1.42312
1.41935
1.41417
1.41006
1.40617
1.4019
1.39884
1.39741
1.39847
1.40261
1.39865
1.38904
1.38414
1.37861
1.37413
1.37207
1.36514
1.35747
1.35747
1.44954
1.44998
1.44286
1.43949
1.43554
1.43223
1.42911
1.42645
1.42378
1.4192
1.41314
1.40892
1.4066
1.40646
1.41129
1.41145
1.40315
1.39557
1.38983
1.38672
1.38558
1.37492
1.38392
1.46933
1.46131
1.45684
1.45355
1.44947
1.44553
1.44168
1.43786
1.43613
1.43641
1.4306
1.42235
1.41872
1.41513
1.41296
1.41398
1.41452
1.41145
1.40666
1.40244
1.40017
1.39475
1.38469
1.48657
1.47892
1.47388
1.46961
1.46459
1.45973
1.45521
1.45086
1.44645
1.44406
1.44666
1.44534
1.43529
1.4296
1.42511
1.42257
1.42109
1.42031
1.41961
1.41707
1.41413
1.40736
1.4083
1.49962
1.49953
1.49627
1.49209
1.48708
1.48128
1.47562
1.47047
1.46561
1.46081
1.45597
1.45229
1.45222
1.45212
1.44788
1.4425
1.4376
1.43396
1.4311
1.42883
1.42669
1.42653
1.42488
1.52733
1.51794
1.51827
1.51218
1.50593
1.49964
1.49306
1.4872
1.48204
1.47711
1.47251
1.46751
1.46328
1.46037
1.45924
1.45797
1.45474
1.4505
1.44669
1.44363
1.44137
1.43916
1.43814
1.53224
1.53396
1.53043
1.52863
1.52534
1.51959
1.51333
1.5065
1.50028
1.49492
1.49021
1.4855
1.48008
1.47537
1.47196
1.47004
1.46898
1.46681
1.46265
1.45935
1.45763
1.45173
1.45462
1.55783
1.54613
1.54617
1.54221
1.54018
1.53776
1.53269
1.52654
1.52041
1.51397
1.50753
1.50105
1.49516
1.49049
1.48671
1.48268
1.48081
1.48012
1.47808
1.47386
1.47147
1.47046
1.46541
1.55871
1.56083
1.55645
1.5539
1.55191
1.54902
1.54746
1.54514
1.53728
1.53085
1.52478
1.51875
1.51342
1.50648
1.50022
1.49753
1.49317
1.49032
1.4886
1.48651
1.4843
1.48259
1.48613
1.57051
1.5727
1.57053
1.56699
1.56411
1.56045
1.5567
1.55618
1.55706
1.55279
1.53976
1.53116
1.52709
1.52549
1.52055
1.5134
1.50988
1.50443
1.50056
1.49834
1.49509
1.49322
1.49152
1.59394
1.58681
1.58559
1.5823
1.57847
1.57412
1.56942
1.56477
1.56325
1.56468
1.56467
1.55694
1.54536
1.53767
1.534
1.53079
1.52652
1.52253
1.51725
1.51429
1.51142
1.50918
1.50493
1.61052
1.60262
1.59655
1.59558
1.59157
1.58837
1.58452
1.58001
1.57526
1.5723
1.57272
1.57265
1.56787
1.55807
1.55017
1.54491
1.54103
1.53738
1.53419
1.53077
1.52896
1.52431
1.5196
1.62805
1.62276
1.6157
1.61179
1.60759
1.60276
1.59901
1.59572
1.59234
1.58865
1.58492
1.5838
1.58307