# vtk DataFile Version 2.0
track0
ASCII
DATASET POLYDATA
POINTS 12040 float
-0.0205 0.001 1e-05
-0.02052 0.000999985 1e-05
-0.02054 0.000999974 1e-05
-0.02056 0.000999965 1e-05
-0.02058 0.000999959 1e-05
-0.0206 0.000999956 1e-05
-0.0205 0.00367778 1e-05
-0.02052 0.00367778 1e-05
-0.02054 0.00367777 1e-05
-0.02056 0.00367777 1e-05
-0.02058 0.00367777 1e-05
-0.0206 0.00367777 1e-05
-0.0205 0.00635556 1e-05
-0.02052 0.00635555 1e-05
-0.02054 0.00635555 1e-05
-0.02056 0.00635555 1e-05
-0.02058 0.00635555 1e-05
-0.0206 0.00635555 1e-05
-0.0205 0.00903333 1e-05
-0.02052 0.00903333 1e-05
-0.02054 0.00903333 1e-05
-0.02056 0.00903333 1e-05
-0.02058 0.00903333 1e-05
-0.0206 0.00903333 1e-05
-0.0205 0.0117111 1e-05
-0.02052 0.0117111 1e-05
-0.02054 0.0117111 1e-05
-0.02056 0.0117111 1e-05
-0.02058 0.0117111 1e-05
-0.0206 0.0117111 1e-05
-0.0205 0.0143889 1e-05
-0.02052 0.0143889 1e-05
-0.02054 0.0143889 1e-05
-0.02056 0.0143889 1e-05
-0.02058 0.0143889 1e-05
-0.0206 0.0143889 1e-05
-0.0205 0.0170667 1e-05
-0.02052 0.0170667 1e-05
-0.02054 0.0170667 1e-05
-0.02056 0.0170667 1e-05
-0.02058 0.0170667 1e-05
-0.0206 0.0170667 1e-05
-0.0205 0.0197444 1e-05
-0.02052 0.0197444 1e-05
-0.02054 0.0197444 1e-05
-0.02056 0.0197444 1e-05
-0.02058 0.0197444 1e-05
-0.0206 0.0197444 1e-05
-0.0205 0.0224222 1e-05
-0.02052 0.0224222 1e-05
-0.02054 0.0224222 1e-05
-0.02056 0.0224222 1e-05
-0.02058 0.0224222 1e-05
-0.0206 0.0224222 1e-05
-0.0205 0.0251 1e-05
-0.02052 0.0250998 1e-05
-0.02054 0.0250997 1e-05
-0.02056 0.0250995 1e-05
-0.02058 0.0250995 1e-05
-0.0206 0.0250994 1e-05
-0.0205 0.001 1e-05
-0.0202034 0.00100022 1e-05
-0.0199069 0.00100067 1e-05
-0.0196103 0.00100132 1e-05
-0.0193137 0.00100219 1e-05
-0.0190172 0.00100326 1e-05
-0.0187132 0.00100466 1e-05
-0.0184093 0.00100588 1e-05
-0.0181054 0.0010071 1e-05
-0.0178015 0.00100832 1e-05
-0.0174976 0.00100953 1e-05
-0.0172058 0.00101083 1e-05
-0.016914 0.00101193 1e-05
-0.0166222 0.00101303 1e-05
-0.0163305 0.00101413 1e-05
-0.0160387 0.00101522 1e-05
-0.0157586 0.00101636 1e-05
-0.0154784 0.00101744 1e-05
-0.0151983 0.00101856 1e-05
-0.0149182 0.00101971 1e-05
-0.0146381 0.0010209 1e-05
-0.0143744 0.00102208 1e-05
-0.0141107 0.00102327 1e-05
-0.013847 0.00102449 1e-05
-0.0135834 0.00102574 1e-05
-0.0133607 0.00102682 1e-05
-0.0133472 0.00102688 1e-05
-0.0133338 0.00102695 1e-05
-0.0133203 0.00102702 1e-05
-0.0133069 0.00102708 1e-05
-0.0132934 0.00102715 1e-05
-0.0130353 0.00102844 1e-05
-0.0127771 0.00102974 1e-05
-0.0125189 0.00103106 1e-05
-0.0122607 0.00103239 1e-05
-0.0120025 0.00103375 1e-05
-0.0117547 0.00103505 1e-05
-0.0115068 0.00103637 1e-05
-0.0112589 0.00103769 1e-05
-0.0110111 0.00103901 1e-05
-0.0107632 0.00104034 1e-05
-0.0105252 0.00104162 1e-05
-0.0102873 0.00104289 1e-05
-0.0100493 0.00104417 1e-05
-0.00981133 0.00104545 1e-05
-0.00957337 0.00104673 1e-05
-0.00934491 0.00104795 1e-05
-0.00911645 0.00104917 1e-05
-0.00888799 0.00105039 1e-05
-0.00865954 0.0010516 1e-05
-0.00843108 0.00105281 1e-05
-0.00821175 0.00105397 1e-05
-0.00799242 0.00105513 1e-05
-0.00777309 0.00105628 1e-05
-0.00755376 0.00105743 1e-05
-0.00733443 0.00105857 1e-05
-0.00712387 0.00105966 1e-05
-0.0069133 0.00106075 1e-05
-0.00670273 0.00106184 1e-05
-0.00649216 0.00106292 1e-05
-0.0062816 0.00106399 1e-05
-0.00607944 0.00106502 1e-05
-0.00587729 0.00106604 1e-05
-0.00567514 0.00106706 1e-05
-0.00547298 0.00106808 1e-05
-0.00527083 0.00106909 1e-05
-0.00507675 0.00107005 1e-05
-0.00488267 0.00107101 1e-05
-0.0046886 0.00107197 1e-05
-0.00449452 0.00107292 1e-05
-0.00430044 0.00107387 1e-05
-0.00411412 0.00107478 1e-05
-0.0039278 0.00107568 1e-05
-0.00374147 0.00107658 1e-05
-0.00355515 0.00107748 1e-05
-0.00336883 0.00107838 1e-05
-0.00318995 0.00107923 1e-05
-0.00301107 0.00108008 1e-05
-0.00283219 0.00108093 1e-05
-0.00265331 0.00108177 1e-05
-0.00247443 0.00108262 1e-05
-0.0023027 0.00108342 1e-05
-0.00213097 0.00108423 1e-05
-0.00195924 0.00108503 1e-05
-0.0017875 0.00108583 1e-05
-0.00161577 0.00108663 1e-05
-0.0014509 0.00108738 1e-05
-0.00128603 0.00108815 1e-05
-0.00112116 0.00108891 1e-05
-0.000956289 0.00108967 1e-05
-0.000791418 0.00109043 1e-05
-0.000633135 0.00109115 1e-05
-0.000474851 0.00109188 1e-05
-0.000316567 0.00109261 1e-05
-0.000158284 0.00109333 1e-05
0 0.00109405 1e-05
0.000105677 0.00109453 1e-05
0.000211355 0.00109501 1e-05
0.000317032 0.00109548 1e-05
0.00042271 0.00109595 1e-05
0.000528387 0.00109642 1e-05
0.000634886 0.00109688 1e-05
0.000741385 0.00109735 1e-05
0.000847885 0.00109781 1e-05
0.000954384 0.00109827 1e-05
0.00106088 0.00109872 1e-05
0.00116821 0.00109917 1e-05
0.00127554 0.00109962 1e-05
0.00138286 0.00110006 1e-05
0.00149019 0.0011005 1e-05
0.00159752 0.00110093 1e-05
0.00170568 0.00110136 1e-05
0.00181384 0.00110178 1e-05
0.001922 0.00110219 1e-05
0.00203016 0.0011026 1e-05
0.00213833 0.001103 1e-05
0.00224733 0.00110338 1e-05
0.00235633 0.00110377 1e-05
0.00246533 0.00110414 1e-05
0.00257434 0.00110451 1e-05
0.00268334 0.00110487 1e-05
0.00279319 0.00110522 1e-05
0.00290304 0.00110556 1e-05
0.00301289 0.0011059 1e-05
0.00312274 0.00110623 1e-05
0.00323259 0.00110656 1e-05
0.00334329 0.00110687 1e-05
0.003454 0.00110718 1e-05
0.0035647 0.00110748 1e-05
0.0036754 0.00110777 1e-05
0.00378611 0.00110806 1e-05
0.00389767 0.00110834 1e-05
0.00400924 0.00110861 1e-05
0.0041208 0.00110888 1e-05
0.00423237 0.00110913 1e-05
0.00434393 0.00110939 1e-05
0.00445636 0.00110963 1e-05
0.00456879 0.00110986 1e-05
0.00468123 0.00111009 1e-05
0.00479366 0.00111031 1e-05
0.00490609 0.00111053 1e-05
0.0050194 0.00111073 1e-05
0.0051327 0.00111093 1e-05
0.00524601 0.00111113 1e-05
0.00535932 0.00111131 1e-05
0.00547262 0.00111149 1e-05
0.00558681 0.00111166 1e-05
0.005701 0.00111182 1e-05
0.00581518 0.00111198 1e-05
0.00592937 0.00111212 1e-05
0.00604356 0.00111226 1e-05
0.00615863 0.0011124 1e-05
0.00627371 0.00111252 1e-05
0.00638878 0.00111264 1e-05
0.00650386 0.00111276 1e-05
0.00661893 0.00111286 1e-05
0.0067349 0.00111296 1e-05
0.00685087 0.00111305 1e-05
0.00696684 0.00111313 1e-05
0.00708281 0.0011132 1e-05
0.00719878 0.00111327 1e-05
0.00727167 0.00111331 1e-05
0.00734457 0.00111334 1e-05
0.00741747 0.00111338 1e-05
0.00749036 0.00111341 1e-05
0.00756079 0.00111343 1e-05
0.00760526 0.00111344 1e-05
0.00764973 0.00111346 1e-05
0.0076942 0.00111347 1e-05
0.00773867 0.00111348 1e-05
0.00778313 0.00111349 1e-05
0.00790091 0.00111351 1e-05
0.00801869 0.00111353 1e-05
0.00813647 0.00111353 1e-05
0.00825425 0.00111353 1e-05
0.00837203 0.00111353 1e-05
0.00849073 0.0011135 1e-05
0.00860942 0.00111348 1e-05
0.00872812 0.00111345 1e-05
0.00884682 0.00111341 1e-05
0.00896551 0.00111336 1e-05
0.00908513 0.0011133 1e-05
0.00920475 0.00111323 1e-05
0.00932437 0.00111316 1e-05
0.00944398 0.00111308 1e-05
0.0095636 0.001113 1e-05
0.00968415 0.00111289 1e-05
0.0098047 0.00111278 1e-05
0.00992525 0.00111267 1e-05
0.0100458 0.00111255 1e-05
0.0101663 0.00111242 1e-05
0.0102878 0.00111227 1e-05
0.0104093 0.00111212 1e-05
0.0105308 0.00111197 1e-05
0.0106523 0.00111181 1e-05
0.0107738 0.00111164 1e-05
0.0108962 0.00111144 1e-05
0.0110186 0.00111125 1e-05
0.0111411 0.00111105 1e-05
0.0112635 0.00111085 1e-05
0.0113859 0.00111063 1e-05
0.0115093 0.00111039 1e-05
0.0116327 0.00111016 1e-05
0.0117561 0.00110992 1e-05
0.0118795 0.00110967 1e-05
0.0120028 0.00110941 1e-05
0.0121272 0.00110912 1e-05
0.0122515 0.00110884 1e-05
0.0123759 0.00110856 1e-05
0.0125002 0.00110826 1e-05
0.0126245 0.00110796 1e-05
0.0127498 0.00110763 1e-05
0.0128752 0.0011073 1e-05
0.0130005 0.00110697 1e-05
0.0131258 0.00110662 1e-05
0.0132511 0.00110627 1e-05
0.0133774 0.0011059 1e-05
0.0135036 0.00110552 1e-05
0.0136299 0.00110514 1e-05
0.0137562 0.00110475 1e-05
0.0138825 0.00110436 1e-05
0.0140098 0.00110393 1e-05
0.014137 0.00110351 1e-05
0.0142643 0.00110308 1e-05
0.0143915 0.00110264 1e-05
0.0145188 0.0011022 1e-05
0.0146471 0.00110173 1e-05
0.0147753 0.00110126 1e-05
0.0149036 0.00110078 1e-05
0.0150318 0.00110029 1e-05
0.0151601 0.00109979 1e-05
0.0152893 0.00109928 1e-05
0.0154186 0.00109876 1e-05
0.0155478 0.00109823 1e-05
0.0156771 0.00109769 1e-05
0.0158063 0.00109714 1e-05
0.0159366 0.00109658 1e-05
0.0160668 0.00109601 1e-05
0.0161971 0.00109543 1e-05
0.0163274 0.00109484 1e-05
0.0164576 0.00109424 1e-05
0.0165889 0.00109363 1e-05
0.0167201 0.00109301 1e-05
0.0168514 0.00109238 1e-05
0.0169827 0.00109174 1e-05
0.0171139 0.00109109 1e-05
0.0172462 0.00109043 1e-05
0.0173785 0.00108976 1e-05
0.0175108 0.00108908 1e-05
0.0176431 0.00108839 1e-05
0.0177754 0.00108769 1e-05
0.0179087 0.00108699 1e-05
0.018042 0.00108626 1e-05
0.0181753 0.00108553 1e-05
0.0183087 0.00108479 1e-05
0.018442 0.00108404 1e-05
0.0185763 0.00108328 1e-05
0.0187107 0.00108251 1e-05
0.018845 0.00108173 1e-05
0.0189794 0.00108093 1e-05
0.0191137 0.00108013 1e-05
0.0192491 0.00107933 1e-05
0.0193845 0.00107851 1e-05
0.0195199 0.00107767 1e-05
0.0196553 0.00107682 1e-05
0.0197907 0.00107597 1e-05
0.0199272 0.00107512 1e-05
0.0200636 0.00107425 1e-05
0.0202001 0.00107336 1e-05
0.0203365 0.00107246 1e-05
0.020473 0.00107156 1e-05
0.0206105 0.00107066 1e-05
0.020748 0.00106974 1e-05
0.0208855 0.0010688 1e-05
0.021023 0.00106785 1e-05
0.0211606 0.0010669 1e-05
0.0212991 0.00106595 1e-05
0.0214377 0.00106498 1e-05
0.0215763 0.00106398 1e-05
0.0217149 0.00106298 1e-05
0.0218535 0.00106198 1e-05
0.0219931 0.00106098 1e-05
0.0221328 0.00105996 1e-05
0.0222724 0.00105892 1e-05
0.0224121 0.00105786 1e-05
0.0225517 0.00105681 1e-05
0.0226925 0.00105577 1e-05
0.0228332 0.00105469 1e-05
0.022974 0.00105359 1e-05
0.0231147 0.00105249 1e-05
0.0232555 0.00105139 1e-05
0.0233973 0.00105029 1e-05
0.0235391 0.00104916 1e-05
0.023681 0.00104801 1e-05
0.0238228 0.00104685 1e-05
0.0239647 0.0010457 1e-05
0.0241076 0.00104456 1e-05
0.0242505 0.00104338 1e-05
0.0243935 0.00104217 1e-05
0.0245364 0.00104096 1e-05
0.0246794 0.00103976 1e-05
0.0248234 0.00103856 1e-05
0.0249675 0.00103733 1e-05
0.0251115 0.00103608 1e-05
0.0252556 0.00103481 1e-05
[...]
POINT_DATA 12040
 FIELD attributes 2
p 1 12040 float
-4.89992 -4.89661 -4.89329 -4.88998 -4.88666 -4.88335
-5.05214 -5.05211 -5.05209 -5.05207 -5.05205 -5.05203
-5.22596 -5.22584 -5.22572 -5.22559 -5.22547 -5.22536
-5.31892 -5.31887 -5.31881 -5.31876 -5.31871 -5.31865
-5.36365 -5.36354 -5.36343 -5.36331 -5.3632 -5.36309
-5.3699 -5.36974 -5.36958 -5.36942 -5.36926 -5.3691
-5.34275 -5.34268 -5.34261 -5.34253 -5.34246 -5.34239
-5.27304 -5.273 -5.27296 -5.27292 -5.27288 -5.27284
-5.15166 -5.15167 -5.15168 -5.15168 -5.15169 -5.1517
-2.93903 -2.95836 -2.97756 -2.99663 -3.01557 -3.03437
-4.89992 -4.89922 -4.8956 -4.89191 -4.88814 -4.87977 -4.89363 -4.90861 -4.92359 -4.93858 -4.96301 -4.9848 -5.01475 -5.04471 -5.07466 -5.10743 -5.12311 -5.14484 -5.16657 -5.1883 -5.21165 -5.23058 -5.25153 -5.27247 -5.29342 -5.31112 -5.31219 -5.31325 -5.31432 -5.31538 -5.31644 -5.33815 -5.35984 -5.38155 -5.40325 -5.42468 -5.44348 -5.4621 -5.48072 -5.49934 -5.51739 -5.53306 -5.54847 -5.56387 -5.57927 -5.59412 -5.60796 -5.62155 -5.63515 -5.64874 -5.66189 -5.67467 -5.6872 -5.69972 -5.71225 -5.72435 -5.73624 -5.74783 -5.75942 -5.77101 -5.78217 -5.79324 -5.80404 -5.81484 -5.82563 -5.83607 -5.84653 -5.85672 -5.8669 -5.87709 -5.88696 -5.89692 -5.9067 -5.91647 -5.92624 -5.9358 -5.94545 -5.95483 -5.96421 -5.9736 -5.98276 -5.9922 -6.00177 -6.01135 -6.02092 -6.03064 -6.04057 -6.05024 -6.05991 -6.06959 -6.07909 -6.08909 -6.09993 -6.11077 -6.12162 -6.13266 -6.14266 -6.15342 -6.16418 -6.17494 -6.18525 -6.19461 -6.2035 -6.21239 -6.22128 -6.22936 -6.23654 -6.24473 -6.25293 -6.26113 -6.27005 -6.27822 -6.28683 -6.29544 -6.30405 -6.31277 -6.3209 -6.32805 -6.33519 -6.34234 -6.34863 -6.35534 -6.36076 -6.36619 -6.37161 -6.37599 -6.38163 -6.38622 -6.39081 -6.39541 -6.39906 -6.40393 -6.40792 -6.4119 -6.41588 -6.41906 -6.42297 -6.42614 -6.42931 -6.43248 -6.43504 -6.43795 -6.44031 -6.44267 -6.44503 -6.44702 -6.44919 -6.45102 -6.45284 -6.45466 -6.4563 -6.45811 -6.45971 -6.46132 -6.46292 -6.46444 -6.46606 -6.46756 -6.46907 -6.47058 -6.47205 -6.47298 -6.47386 -6.47474 -6.47563 -6.47648 -6.47702 -6.47756 -6.4781 -6.47864 -6.47922 -6.48053 -6.48189 -6.48325 -6.48461 -6.48616 -6.48729 -6.48865 -6.49001 -6.49137 -6.49314 -6.49408 -6.49547 -6.49687 -6.49827 -6.50038 -6.50111 -6.50261 -6.50411 -6.50561 -6.50819 -6.50874 -6.51037 -6.512 -6.51363 -6.51668 -6.517 -6.51873 -6.52046 -6.52218 -6.52568 -6.52579 -6.52762 -6.52946 -6.53129 -6.53524 -6.53522 -6.53719 -6.53916 -6.54114 -6.54553 -6.54542 -6.54753 -6.54965 -6.55176 -6.55653 -6.55636 -6.55862 -6.56087 -6.56313 -6.56821 -6.56803 -6.57043 -6.57282 -6.57539 -6.58058 -6.58071 -6.58299 -6.58553 -6.58851 -6.59365 -6.59412 -6.59633 -6.59902 -6.60236 -6.60744 -6.60827 -6.61044 -6.61327 -6.61695 -6.62195 -6.62313 -6.6253 -6.62828 -6.63224 -6.63717 -6.6387 -6.64091 -6.64404 -6.64822 -6.65308 -6.65494 -6.65724 -6.66051 -6.66489 -6.66967 -6.67186 -6.67427 -6.67767 -6.6822 -6.68693 -6.68942 -6.69196 -6.6955 -6.70015 -6.70483 -6.7076 -6.71037 -6.71407 -6.71872 -6.72337 -6.72639 -6.72942 -6.73324 -6.73788 -6.74252 -6.74579 -6.74907 -6.75302 -6.75766 -6.7623 -6.76581 -6.76933 -6.77341 -6.77804 -6.78267 -6.78642 -6.79017 -6.79435 -6.79896 -6.80357 -6.80751 -6.81145 -6.81571 -6.8203 -6.82489 -6.82898 -6.83307 -6.83741 -6.84201 -6.8466 -6.85081 -6.85502 -6.85945 -6.86406 -6.86869 -6.87299 -6.87733 -6.88182 -6.88645 -6.89111 -6.8955 -6.89993 -6.90449 -6.90915 -6.91385 -6.9183 -6.92282 -6.92744 -6.93212 -6.93687 -6.94138 -6.94597 -6.95064 -6.95534 -6.96012 -6.96468 -6.96933 -6.97403 -6.97875 -6.98356 -6.98815 -6.99285 -6.99757 -7.0023 -7.00713 -7.01173 -7.01647 -7.02121 -7.02595 -7.03078 -7.03541 -7.04015 -7.0449 -7.04964 -7.05446 -7.0591 -7.06384 -7.06857 -7.07331 -7.0781 -7.08274 -7.08746 -7.09218 -7.0969 -7.10165 -7.10628 -7.11096 -7.11564 -7.12033 -7.12503 -7.12963 -7.13427 -7.1389 -7.14353 -7.14817 -7.15063 -7.15311 -7.15558 -7.15805 -7.16046 -7.16257 -7.16468 -7.16679 -7.16891 -7.17102 -7.17551 -7.18001 -7.1845 -7.189 -7.19351 -7.19791 -7.20231 -7.20671 -7.21111 -7.21554 -7.21984 -7.22413 -7.22842 -7.23272 -7.23703 -7.24122 -7.24539 -7.24956 -7.25373 -7.25791 -7.26198 -7.26599 -7.27001 -7.27403 -7.27805 -7.28197 -7.28581 -7.28966 -7.2935 -7.29734 -7.30108 -7.30476 -7.30842 -7.31207 -7.31569 -7.31925 -7.32275 -7.32619 -7.32961 -7.33301 -7.33635 -7.33964 -7.34285 -7.34601 -7.34915 -7.35225 -7.35533 -7.35827 -7.36114 -7.364 -7.36683 -7.36967 -7.37232 -7.37487 -7.37742 -7.37996 -7.3825 -7.38486 -7.38707 -7.38928 -7.3915 -7.39372 -7.39576 -7.39761 -7.39946 -7.40134 -7.40321 -7.4049 -7.40636 -7.40783 -7.40932 -7.41082 -7.41214 -7.41318 -7.41423 -7.41532 -7.41638 -7.41727 -7.41792 -7.41852 -7.41917 -7.41975 -7.42018 -7.42043 -7.42055 -7.42074 -7.42078 -7.42072 -7.42056 -7.42017 -7.41986 -7.41933 -7.41875 -7.41815 -7.41723 -7.41638 -7.41524 -7.41411 -7.41298 -7.41156 -7.41007 -7.40836 -7.40664 -7.40493 -7.40302 -7.40084 -7.39851 -7.39618 -7.39386 -7.39143 -7.38893 -7.38634 -7.38376 -7.38118 -7.37874 -7.37833 -7.37791 -7.37749 -7.37708 -7.37665 -7.37306 -7.36945 -7.36585 -7.36225 -7.35851 -7.35436 -7.35005 -7.34573 -7.34143 -7.33684 -7.33212 -7.32706 -7.32201 -7.31696 -7.31149 -7.30617 -7.30034 -7.29452 -7.28862 -7.28228 -7.27618 -7.26973 -7.2631 -7.25623 -7.24906 -7.24214 -7.23505 -7.22759 -7.2197 -7.21167 -7.20391 -7.19615 -7.1878 -7.17888 -7.16997 -7.16132 -7.15269 -7.14345 -7.13362 -7.12379 -7.11424 -7.10469 -7.09454 -7.08376 -7.07299 -7.0625 -7.05197 -7.04082 -7.02917 -7.01741 -7.00596 -6.99422 -6.98208 -6.96968 -6.95693 -6.94448 -6.93148 -6.91833 -6.90517 -6.89139 -6.87783 -6.86362 -6.84943 -6.83524 -6.82067 -6.80578 -6.79051 -6.77525 -6.76 -6.74465 -6.7394 -6.73406 -6.72871 -6.72337 -6.71815 -6.70721 -6.69627 -6.68534 -6.67441 -6.6633 -6.64616 -6.62885 -6.61154 -6.59424 -6.57646 -6.55848 -6.54004 -6.52161 -6.5031 -6.48398 -6.46495 -6.44558 -6.42601 -6.40603 -6.38575 -6.36557 -6.34536 -6.32461 -6.30315 -6.2817 -6.26035 -6.23901 -6.21702 -6.19437 -6.17173 -6.1492 -6.12668 -6.10341 -6.07961 -6.05577 -6.03205 -6.00797 -5.98347 -5.95882 -5.93376 -5.90884 -5.88314 -5.85742 -5.83172 -5.80565 -5.7796 -5.75313 -5.72668 -5.70023 -5.67553 -5.6747 -5.67388 -5.67305 -5.67222 -5.67138 -5.6433 -5.61522 -5.58715 -5.55909 -5.53072 -5.50164 -5.47233 -5.44304 -5.41371 -5.38383 -5.35363 -5.32323 -5.29271 -5.26183 -5.23071 -5.19929 -5.16787 -5.13605 -5.10371 -5.07136 -5.03871 -5.00606 -4.97292 -4.93935 -4.90578 -4.87191 -4.83784 -4.80337 -4.76878 -4.734 -4.69892 -4.66327 -4.62759 -4.59192 -4.55606 -4.52926 -4.50219 -4.47512 -4.44805 -4.42224 -4.41221 -4.40218 -4.39215 -4.38212 -4.37198 -4.33408 -4.29612 -4.25816 -4.22022 -4.18174 -4.14292 -4.1038 -4.06468 -4.0253 -3.98551 -3.94553 -3.90552 -3.86522 -3.8243 -3.78338 -3.74225 -3.70114 -3.65951 -3.61748 -3.57545 -3.53321 -3.49072 -3.44787 -3.40495 -3.36183 -3.31845 -3.27451 -3.23058 -3.18666 -3.14265 -3.12971 -3.11664 -3.10358 -3.09051 -3.07767 -3.04577 -3.01388 -2.982 -2.95011 -2.9179 -2.87216 -2.82625 -2.78036 -2.73435 -2.6878 -2.64114 -2.59442 -2.54755 -2.50011 -2.4526 -2.40498 -2.35736 -2.30931 -2.2609 -2.21248 -2.16393 -2.11515 -2.06605 -2.01693 -1.96763 -1.9181 -1.86813 -1.81817 -1.76822 -1.71825 -1.71701 -1.71577 -1.71453 -1.71328 -1.71204 -1.66256 -1.61308 -1.56361 -1.51416 -1.46424 -1.4129 -1.36143 -1.30995 -1.25819 -1.20615 -1.15406 -1.10197 -1.04963 -0.99694 -0.944218 -0.891426 -0.838561 -0.785316 -0.732028 -0.678655 -0.6252 -0.57132 -0.517451 -0.463593 -0.409687 -0.401677 -0.393617 -0.385557 -0.377497 -0.369501 -0.323113 -0.276732 -0.23036 -0.183994 -0.137287 -0.0823823 -0.0274497 0.0274764 0.0826163 0.137952 0.193332 0.2487 0.304216 0.359911 0.415643 0.471426 0.527304 0.583368 0.639421 0.695507 0.740876 0.786432 0.831981 0.877524 0.921234 0.932451 0.943667 0.954883 0.966099 0.977372 1.03409 1.09079 1.14749 1.2042 1.26118 1.31816 1.37512 1.43203 1.48915 1.5463 1.60347 1.66062 1.71792 1.77516 1.83242 1.88971 1.94709 2.00447 2.06183 2.11923 2.12401 2.12879 2.13357 2.13835 2.14311 2.19583 2.24855 2.30125 2.35395 2.40678 2.46438 2.5219 2.57936 2.63685 2.6944 2.75193 2.80945 2.86696 2.92434 2.98174 3.03914 3.09649 3.15383 3.21115 3.26851 3.27232 3.27612 3.27993 3.28373 3.28753 3.34099 3.39445 3.4479 3.50134 3.55477 3.61196 3.66907 3.72605 3.78292 3.83984 3.89671 3.95357 4.01027 4.06685 4.12339 4.16941 4.21528 4.26113 4.30697 4.35144 4.3622 4.37296 4.38372 4.39448 4.40521 4.46134 4.51739 4.57344 4.62941 4.68528 4.74107 4.79686 4.85236 4.90763 4.96294 5.0182 5.0733 5.12823 5.18316 5.23794 5.25782 5.27759 5.29734 5.31709 5.33662 5.37141 5.40619 5.44097 5.47573 5.51033 5.56453 5.61852 5.67244 5.72609 5.77971 5.83322 5.88672 5.93986 5.9928 6.04568 6.0866 6.12725 6.16785 6.20844 6.24836 6.26033 6.27231 6.28429 6.29625 6.30815 6.36017 6.41206 6.46395 6.51568 6.5672 6.61855 6.6699 6.7209 6.77154 6.82221 6.87272 6.92289 6.97294 7.02299 7.073 7.07713 7.08123 7.08532 7.08942 7.09351 7.1389 7.18429 7.22968 7.27498 7.31992 7.36882 7.41772 7.46619 7.51426 7.56234 7.6103 7.65797 7.70539 7.7528 7.80008 7.80904 7.81792 7.82677 7.83562 7.84447 7.88238 7.92029 7.95819 7.996 8.03346 8.07961 8.12575 8.17145 8.21673 8.262 8.30714 8.352 8.39656 8.44113 8.4855 8.49565 8.50571 8.51573 8.52576 8.53581 8.56962 8.60343 8.63724 8.67095 8.70431 8.74749 8.79065 8.83342 8.87573 8.91801 8.96013 9.00201 9.04355 9.08509 9.12639 9.13751 9.1485 9.15946 9.17041 9.18146 9.21124 9.24103 9.27081 9.3005 9.32985 9.36993 9.40994 9.44965 9.48886 9.52803 9.56701 9.6058 9.64421 9.68262 9.72071 9.73537 9.74984 9.76427 9.7787 9.7934 9.81645 9.83951 9.86256 9.88555 9.90826 9.94513 9.98182 10.0184 10.0545 10.0905 10.1262 10.1619 10.1971 10.2322 10.2671 10.2903 10.3132 10.336 10.3588 10.3826 10.3938 10.405 10.4162 10.4273 10.4383 10.4718 10.5052 10.5385 10.5716 10.6044 10.6368 10.6693 10.7014 10.7331 10.7648 10.7962 10.8272 10.8581 10.889 10.9197 10.9277 10.9356 10.9435 10.9513 10.9594 10.9815 11.0036 11.0257 11.0477 11.0695 11.0988 11.1279 11.1569 11.1855 11.2141 11.2423 11.2705 11.2984 11.3259 11.3533 11.3804 11.4073 11.4342 11.461 11.4876 11.4985 11.5092 11.5198 11.5305 11.5418 11.5567 11.5715 11.5863 11.6012 11.6157 11.6406 11.6658 11.691 11.7165 11.7428 11.7687 11.7942 11.8143 11.8292 11.8441 11.8583 11.8724 11.8965 11.9302 11.9638 11.9968 12.0168 12.0304 12.0442 12.0549 12.0552 12.0562 12.0573 12.0584 12.0595 12.0649 12.0703 12.0756 12.0816 12.0916 12.1023 12.1129 12.1228 12.132 12.1411 12.1493 12.1569 12.163 12.1688 12.1734 12.1756 12.177 12.1783 12.1796 12.181 12.182 12.1831 12.1841 12.1851 12.1857 12.1854 12.1844 12.1833 12.1815 12.1788 12.1745 12.1701 12.164 12.1562 12.1485 12.1389 12.1285 12.1167 12.1046 12.0911 12.0791 12.0653 12.0516 12.0378 12.0214 12.0179 12.0143 12.0108 12.0072 12.0033 11.9802 11.9564 11.9326 11.9085 11.8821 11.8527 11.8223 11.7904 11.756 11.7211 11.6831 11.645 11.6039 11.5596 11.5152 11.4673 11.4175 11.3656 11.3134 11.2583 11.1984 11.1351 11.0717 11.0083 10.9444 10.9366 10.9284 10.9202 10.912 10.9035 10.837 10.7704 10.7037 10.6369 10.5673 10.4817 10.3925 10.3032 10.2127 10.1181 10.018 9.91575 9.80982 9.69812 9.58529 9.46636 9.34737 9.22282 9.09298 8.96302 8.82646 8.68984 8.54188 8.38475 8.22667 8.06105 7.8944 7.72664 7.55831 7.38852 7.21088 7.00414 6.79607 6.58806 6.36203 6.13039 5.91577 5.70112 5.48641 5.27607 5.18491 5.07448 4.96411 4.85381 4.72794 4.53135 4.33456 4.13757 3.94039 3.71236 3.39715 3.13796 2.87801 2.61735 2.49369 2.37662 1.94229 1.51312 0.942692 0