/*--------------------------------*- C++ -*----------------------------------*\
  =========                 |
  \\      /  F ield         | OpenFOAM: The Open Source CFD Toolbox
   \\    /   O peration     | Website:  https://openfoam.org
    \\  /    A nd           | Version:  8
     \\/     M anipulation  |
\*---------------------------------------------------------------------------*/
FoamFile
{
    version     2.0;
    format      ascii;
    class       volScalarField;
    location    "90";
    object      p;
}
// * * * * * * * * * * * * * * * * * * * * * * * * * * * * * * * * * * * * * //

dimensions      [0 2 -2 0 0 0 0];

internalField   nonuniform List<scalar> 
404911
(
-6.0725
-6.06672
-6.06324
-6.06996
-6.08142
-6.06961
-6.06117
-6.05829
-6.06921
-6.07022
-6.13837
-6.12916
-6.11502
-6.0972
-6.07975
-6.07061
-6.14528
-6.135
-6.126
-6.11626
-6.16576
-6.14974
-6.13555
-6.18089
-6.16978
-6.16046
-6.18874
-6.18003
-6.1692
-6.22111
-6.21512
-6.19823
-6.18359
-6.16274
-6.2341
-6.21551
-6.20005
-6.27537
-6.25811
-6.24302
-6.22194
-6.29058
-6.27964
-6.25906
-6.24317
-6.236
-6.29659
-6.2842
-6.26509
-6.24358
-6.32235
-6.30369
-6.28864
-6.27616
-6.32069
-6.31011
-6.37587
-6.07186
-6.07448
-6.07138
-6.12202
-6.1076
-6.14646
-6.13352
-6.12457
-6.16669
-6.14888
-6.13494
-6.17802
-6.1687
-6.19054
-6.17852
-6.16826
-6.2117
-6.19348
-6.17792
-6.16818
-6.23287
-6.21302
-6.2559
-6.23607
-6.27926
-6.26214
-6.24323
-6.29967
-6.28498
-6.32365
-6.30782
-6.2831
-6.32514
-6.31037
-6.3991
-6.39537
-6.37892
-6.4347
-6.41664
-6.39881
-6.45563
-6.44022
-6.41823
-6.46121
-6.45866
-6.44518
-6.45154
-3.59212
-3.55817
-3.51795
-3.76643
-3.70606
-3.68507
-3.63271
-3.60584
-3.56819
-3.52396
-3.48908
-3.85361
-3.8289
-3.73012
-3.68603
-3.64524
-3.61108
-3.5768
-3.51564
-3.39089
-3.96783
-3.93715
-3.89576
-3.86393
-3.83296
-3.79713
-3.73803
-3.6924
-3.65418
-3.61922
-3.56636
-3.51828
-3.50342
-3.48733
-3.42308
-3.35779
-4.05624
-4.01893
-3.98207
-3.94635
-3.91016
-3.87464
-3.84026
-3.80161
-3.77261
-3.70665
-3.66038
-3.63769
-3.58277
-3.58013
-3.42791
-4.1283
-4.09856
-4.06084
-4.02889
-3.99279
-3.95804
-3.92375
-3.8854
-3.84902
-3.80738
-3.77381
-3.73205
-3.67977
-3.65464
-3.60561
-4.17388
-4.1461
-4.11092
-4.07929
-4.04374
-4.00072
-3.96361
-3.93474
-3.89809
-3.85296
-3.81402
-3.77181
-3.74063
-3.70477
-3.67026
-3.61086
-4.25247
-4.22313
-4.19574
-4.16467
-4.12888
-4.09844
-4.0646
-4.01998
-3.97747
-3.94401
-3.91053
-3.8682
-3.82743
-3.78894
-3.75385
-3.71957
-3.67944
-4.35375
-4.32895
-4.30922
-4.27565
-4.23802
-4.20655
-4.17755
-4.14496
-4.1139
-4.0802
-4.03572
-3.98646
-3.96011
-3.92565
-3.88198
-3.84447
-3.80405
-3.76186
-4.40136
-4.36328
-4.34168
-4.31911
-4.29042
-4.2549
-4.21946
-4.18545
-4.15685
-4.12398
-4.09277
-4.05208
-3.99598
-3.97543
-3.94227
-3.90189
-3.85315
-3.81539
-4.47459
-4.44547
-4.41346
-4.37992
-4.35459
-4.32829
-4.30144
-4.26745
-4.23682
-4.20118
-4.16661
-4.13676
-4.10135
-4.06221
-4.01498
-3.98459
-3.95424
-3.92046
-4.51636
-4.482
-4.45368
-4.42588
-4.39444
-4.36293
-4.33858
-4.30861
-4.27685
-4.24721
-4.2156
-4.18129
-4.14611
-4.11462
-4.07571
-4.03714
-4.01079
-4.60208
-4.57143
-4.5363
-4.49815
-4.46661
-4.43934
-4.41076
-4.37635
-4.34432
-4.3216
-4.28641
-4.2574
-4.22495
-4.19046
-4.15644
-4.12862
-4.09338
-4.64504
-4.63286
-4.61065
-4.57649
-4.54785
-4.50931
-4.4777
-4.44656
-4.42122
-4.39615
-4.35986
-4.33034
-4.29839
-4.26948
-4.23513
-4.20014
-4.16429
-4.13393
-4.73347
-4.69977
-4.66231
-4.64279
-4.61285
-4.58517
-4.55589
-4.52621
-4.49023
-4.4647
-4.43392
-4.40402
-4.37608
-4.3418
-4.31073
-4.28133
-4.24182
-4.2093
-4.78692
-4.76254
-4.73916
-4.70888
-4.67871
-4.65309
-4.62535
-4.59273
-4.56407
-4.5343
-4.50127
-4.47255
-4.44561
-4.40978
-4.37694
-4.35135
-4.32189
-4.29431
-4.82095
-4.79316
-4.77035
-4.74759
-4.7205
-4.68865
-4.66244
-4.63429
-4.59873
-4.5713
-4.53835
-4.51168
-4.48455
-4.45361
-4.41029
-4.37822
-4.35612
-4.33483
-4.88176
-4.85777
-4.83136
-4.80189
-4.77827
-4.75587
-4.72688
-4.6997
-4.66795
-4.64139
-4.6048
-4.58072
-4.55072
-4.52705
-4.49461
-4.46196
-4.42054
-4.38647
-4.90116
-4.88686
-4.86311
-4.83903
-4.81027
-4.78596
-4.76444
-4.73952
-4.69869
-4.67484
-4.64815
-4.615
-4.58381
-4.55643
-4.53224
-4.49959
-4.46217
-4.42714
-4.97724
-4.94665
-4.92155
-4.90575
-4.87631
-4.85114
-4.82475
-4.79679
-4.77258
-4.74756
-4.70889
-4.6849
-4.65958
-4.62549
-4.59171
-4.5592
-4.52991
-4.5089
-4.99948
-4.98346
-4.95922
-4.93461
-4.91734
-4.88953
-4.86037
-4.83519
-4.80938
-4.78277
-4.75419
-4.71695
-4.69527
-4.67192
-4.64214
-4.60815
-4.57651
-5.04851
-5.03185
-5.0136
-4.99097
-4.97071
-4.95164
-4.93237
-4.90941
-4.87817
-4.8463
-4.8178
-4.78682
-4.75986
-4.72276
-4.70263
-4.68138
-4.64993
-4.62094
-5.07508
-5.05807
-5.03158
-5.01544
-4.99851
-4.9811
-4.96329
-4.94752
-4.92493
-4.89803
-4.86232
-4.83062
-4.79724
-4.76755
-4.73271
-4.70684
-4.68464
-4.65741
-5.10752
-5.08121
-5.0614
-5.03867
-5.02178
-5.00715
-4.98808
-4.97244
-4.94925
-4.93243
-4.91481
-4.87844
-4.84014
-4.80805
-4.77778
-4.73138
-4.71206
-4.68049
-5.15996
-5.14356
-5.11639
-5.08843
-5.06282
-5.0444
-5.02829
-5.01343
-4.99532
-4.9775
-4.95838
-4.9417
-4.91969
-4.88907
-4.85013
-4.81574
-4.78763
-4.76794
-5.2223
-5.19728
-5.17158
-5.14481
-5.12096
-5.09442
-5.06813
-5.0508
-5.03307
-5.01975
-5.00187
-4.9891
-4.96774
-4.95083
-4.93127
-4.90211
-4.86808
-4.83561
-5.2474
-5.23231
-5.20672
-5.18211
-5.15732
-5.13175
-5.10261
-5.07307
-5.05621
-5.04087
-5.02487
-5.00729
-4.99224
-4.97258
-4.95525
-4.93895
-4.91091
-4.88722
-5.30048
-5.28225
-5.26144
-5.24096
-5.21886
-5.19334
-5.16708
-5.1426
-5.11522
-5.08136
-5.05112
-5.04464
-5.03029
-5.01244
-4.99253
-4.97701
-4.97688
-4.93764
-5.32407
-5.30854
-5.29295
-5.27311
-5.25194
-5.22963
-5.20493
-5.17847
-5.15328
-5.1291
-5.10048
-5.0692
-5.04962
-5.03536
-5.01955
-4.99896
-4.98128
-4.96221
-5.3405
-5.32836
-5.31751
-5.30255
-5.28062
-5.2598
-5.23963
-5.21706
-5.191
-5.16401
-5.14028
-5.11583
-5.08869
-5.0651
-5.0451
-5.02935
-5.01
-4.98912
-5.36444
-5.3459
-5.3349
-5.32362
-5.30746
-5.28636
-5.26668
-5.24873
-5.22697
-5.20326
-5.17584
-5.15041
-5.12751
-5.10323
-5.08166
-5.06001
-5.03747
-5.00965
-5.41678
-5.39062
-5.37607
-5.35698
-5.33852
-5.32862
-5.31362
-5.29419
-5.27043
-5.25915
-5.23355
-5.2136
-5.18701
-5.16042
-5.13709
-5.11474
-5.09474
-5.07967
-5.4353
-5.41948
-5.40458
-5.3867
-5.37127
-5.35526
-5.33919
-5.32337
-5.30426
-5.27531
-5.26217
-5.23952
-5.22185
-5.19739
-5.17218
-5.1473
-5.12752
-5.10475
-5.44587
-5.43964
-5.42463
-5.40834
-5.39444
-5.38048
-5.36649
-5.35171
-5.33363
-5.31323
-5.29017
-5.26695
-5.24704
-5.22903
-5.20502
-5.1811
-5.15246
-5.12885
-5.47364
-5.45428
-5.44183
-5.4294
-5.41564
-5.40345
-5.39245
-5.37606
-5.36035
-5.3425
-5.32149
-5.29873
-5.27591
-5.25496
-5.23629
-5.21564
-5.19001
-5.50372
-5.49362
-5.47521
-5.45882
-5.44758
-5.43593
-5.42272
-5.40911
-5.40047
-5.3841
-5.3671
-5.35148
-5.33095
-5.30806
-5.28476
-5.26548
-5.24447
-5.22789
-5.52294
-5.51269
-5.49411
-5.47519
-5.4613
-5.45286
-5.44534
-5.43087
-5.41556
-5.40676
-5.39329
-5.37353
-5.35949
-5.34053
-5.31744
-5.29483
-5.27618
-5.24859
-5.55746
-5.53587
-5.51729
-5.49858
-5.48025
-5.4641
-5.45763
-5.45497
-5.44302
-5.42123
-5.41204
-5.40102
-5.38058
-5.36566
-5.34768
-5.32389
-5.29632
-5.27539
-5.58844
-5.5819
-5.56266
-5.54381
-5.52279
-5.50475
-5.48738
-5.46941
-5.4642
-5.45957
-5.4498
-5.42775
-5.41486
-5.40116
-5.38342
-5.36747
-5.35153
-5.32817
-5.61749
-5.60182
-5.58429
-5.56821
-5.54965
-5.53031
-5.51352
-5.49654
-5.47607
-5.46877
-5.46494
-5.4575
-5.43855
-5.42478
-5.40771
-5.38817
-5.37199
-5.35845
-5.64069
-5.62675
-5.60993
-5.59159
-5.57324
-5.55516
-5.53589
-5.5192
-5.50554
-5.4891
-5.47977
-5.47249
-5.46285
-5.44565
-5.43279
-5.41659
-5.39572
-5.37475
-5.68227
-5.6516
-5.63605
-5.61841
-5.59989
-5.58055
-5.56065
-5.53973
-5.52187
-5.50983
-5.49941
-5.48445
-5.47592
-5.46531
-5.45083
-5.43907
-5.41881
-5.4022
-5.69534
-5.67835
-5.66225
-5.6456
-5.62839
-5.61057
-5.59058
-5.56785
-5.54438
-5.52455
-5.51271
-5.50361
-5.48808
-5.47831
-5.46725
-5.45484
-5.44557
-5.7313
-5.72447
-5.70404
-5.68739
-5.66972
-5.65173
-5.63585
-5.6206
-5.60226
-5.57884
-5.55364
-5.5297
-5.5114
-5.50486
-5.49427
-5.48457
-5.47373
-5.45981
-5.75938
-5.74433
-5.72903
-5.71049
-5.69314
-5.67461
-5.65559
-5.6392
-5.62745
-5.612
-5.5913
-5.56847
-5.54271
-5.51743
-5.50549
-5.49897
-5.48923
-5.47731
-5.77906
-5.7657
-5.75239
-5.73628
-5.72007
-5.70268
-5.68321
-5.66207
-5.64333
-5.63852
-5.61954
-5.60223
-5.58132
-5.55876
-5.53577
-5.51898
-5.50832
-5.49696
-5.80705
-5.78868
-5.77528
-5.76165
-5.74529
-5.72968
-5.71355
-5.69576
-5.67403
-5.64829
-5.6408
-5.62619
-5.61022
-5.59004
-5.56931
-5.54734
-5.53155
-5.51679
-5.81959
-5.81339
-5.80047
-5.78556
-5.77075
-5.75535
-5.74004
-5.72465
-5.7081
-5.68862
-5.66637
-5.64652
-5.63153
-5.61676
-5.59821
-5.57966
-5.55789
-5.54541
-5.84048
-5.82805
-5.82006
-5.80933
-5.79523
-5.78023
-5.76519
-5.75015
-5.7352
-5.71804
-5.6988
-5.67784
-5.6566
-5.63927
-5.62316
-5.60577
-5.58632
-5.56999
-5.85447
-5.84198
-5.83241
-5.82455
-5.81509
-5.80216
-5.78756
-5.773
-5.75853
-5.74526
-5.7292
-5.70979
-5.68866
-5.66697
-5.6473
-5.62998
-5.61418
-5.60122
-5.87272
-5.85799
-5.84229
-5.83355
-5.82768
-5.81748
-5.80568
-5.79271
-5.78001
-5.76742
-5.75359
-5.73779
-5.72128
-5.70007
-5.67698
-5.65696
-5.63905
-5.61638
-5.90833
-5.89486
-5.87927
-5.86109
-5.84541
-5.83132
-5.82942
-5.82208
-5.811
-5.79898
-5.78736
-5.7781
-5.76739
-5.74395
-5.7295
-5.70999
-5.68804
-5.66403
-5.64704
-5.92519
-5.90961
-5.89574
-5.8787
-5.86776
-5.85195
-5.83488
-5.82877
-5.8251
-5.81707
-5.80657
-5.79187
-5.78034
-5.76678
-5.74808
-5.73371
-5.71581
-5.69594
-5.93064
-5.91661
-5.90219
-5.8894
-5.87654
-5.86311
-5.84795
-5.83742
-5.82818
-5.81684
-5.80656
-5.79346
-5.78212
-5.76812
-5.75263
-5.73797
-5.71672
-5.97289
-5.95422
-5.93755
-5.92275
-5.90754
-5.89468
-5.88311
-5.871
-5.85838
-5.84477
-5.83167
-5.81943
-5.80843
-5.79787
-5.78597
-5.77159
-5.75541
-5.74135
-5.99279
-5.97894
-5.95867
-5.94389
-5.92847
-5.91323
-5.89924
-5.8865
-5.87474
-5.86103
-5.84614
-5.83339
-5.82312
-5.80958
-5.79951
-5.78843
-5.77536
-5.76515
-6.02199
-6.00003
-5.98461
-5.96712
-5.95081
-5.93495
-5.91855
-5.90423
-5.89108
-5.878
-5.86148
-5.8471
-5.83562
-5.82364
-5.81297
-5.80313
-5.79122
-5.77682
-6.02169
-6.00881
-5.99275
-5.97435
-5.95769
-5.94201
-5.92666
-5.91197
-5.89986
-5.89024
-5.86784
-5.8561
-5.84287
-5.82967
-5.81811
-5.8082
-5.79559
-6.03803
-6.03012
-6.01531
-5.99953
-5.9813
-5.96375
-5.94901
-5.93433
-5.91813
-5.90583
-5.89409
-5.8761
-5.86398
-5.84955
-5.83435
-5.82261
-5.81275
-6.06114
-6.04633
-6.04096
-6.03529
-6.01822
-6.0043
-5.98705
-5.96921
-5.95324
-5.94065
-5.92174
-5.9103
-5.89541
-5.88155
-5.86998
-5.85603
-5.84012
-5.82599
-6.07924
-6.0659
-6.05261
-6.04555
-6.03754
-6.02411
-6.0093
-5.99322
-5.97551
-5.96276
-5.95194
-5.92944
-5.91552
-5.90105
-5.88574
-5.87538
-5.85889
-6.09804
-6.08354
-6.07259
-6.05763
-6.05043
-6.04216
-6.02854
-6.01425
-5.99992
-5.98458
-5.9697
-5.95903
-5.93809
-5.92192
-5.90637
-5.89068
-5.87875
-6.12071
-6.11137
-6.09922
-6.08675
-6.07737
-6.06556
-6.05522
-6.04855
-6.03326
-6.01904
-6.00482
-5.98708
-5.97378
-5.96233
-5.9476
-5.9312
-5.91465
-5.90238
-6.1299
-6.12359
-6.11296
-6.103
-6.09242
-6.08006
-6.06764
-6.05618
-6.0475
-6.03522
-6.02462
-6.01397
-5.99531
-5.98056
-5.96871
-5.95522
-5.93717
-5.92281
-6.1526
-6.13806
-6.12907
-6.12006
-6.10834
-6.09483
-6.08311
-6.07041
-6.0592
-6.04786
-6.0375
-6.02626
-6.01533
-6.00201
-5.98828
-5.9731
-5.95806
-5.94188
-6.16259
-6.15426
-6.14359
-6.13465
-6.12402
-6.11236
-6.09829
-6.08529
-6.07388
-6.06211
-6.04931
-6.03642
-6.02431
-6.01378
-6.00139
-5.98844
-5.97461
-5.95962
-6.19114
-6.18606
-6.17196
-6.15674
-6.14745
-6.13709
-6.12767
-6.11568
-6.10519
-6.08917
-6.07559
-6.0622
-6.04827
-6.03521
-6.02233
-6.00889
-5.99907
-5.98448
-5.96927
-6.19642
-6.19545
-6.18755
-6.17613
-6.16494
-6.15554
-6.14324
-6.13082
-6.12087
-6.10871
-6.09303
-6.07847
-6.06661
-6.05347
-6.04032
-6.02683
-6.0118
-6.00206
-5.98486
-6.21678
-6.20169
-6.19159
-6.18096
-6.17055
-6.16057
-6.14819
-6.13689
-6.12498
-6.11244
-6.09628
-6.08612
-6.07363
-6.05935
-6.04582
-6.033
-6.0159
-5.99949
-6.23375
-6.21946
-6.20705
-6.19548
-6.18211
-6.17207
-6.16274
-6.15369
-6.14171
-6.12939
-6.11994
-6.10221
-6.09102
-6.07771
-6.0633
-6.0509
-6.03822
-6.25952
-6.24157
-6.22624
-6.21223
-6.19851
-6.18732
-6.17575
-6.16682
-6.15529
-6.1452
-6.13313
-6.11918
-6.10844
-6.09485
-6.08064
-6.06692
-6.06102
-6.28578
-6.26966
-6.25126
-6.23183
-6.21842
-6.20545
-6.19309
-6.1818
-6.17243
-6.16019
-6.14904
-6.13491
-6.12334
-6.1123
-6.10035
-6.08432
-6.07503
-6.3265
-6.30628
-6.29286
-6.27866
-6.26082
-6.24018
-6.22727
-6.21306
-6.1999
-6.18897
-6.17833
-6.16472
-6.15312
-6.13744
-6.12611
-6.11438
-6.10022
-6.08202
-6.3454
-6.32928
-6.31019
-6.29722
-6.28343
-6.26658
-6.24873
-6.23754
-6.22035
-6.20572
-6.1956
-6.18159
-6.16698
-6.15218
-6.14023
-6.12987
-6.11518
-6.36984
-6.35446
-6.33845
-6.3216
-6.30664
-6.2907
-6.2742
-6.25756
-6.2456
-6.22798
-6.2117
-6.20008
-6.18547
-6.17238
-6.15615
-6.1447
-6.13445
-6.39708
-6.37734
-6.36279
-6.34654
-6.32841
-6.31499
-6.29743
-6.28522
-6.26833
-6.25468
-6.23731
-6.21998
-6.20595
-6.19266
-6.17702
-6.1606
-6.14934
-6.42208
-6.40303
-6.38619
-6.37077
-6.35221
-6.33502
-6.31961
-6.30777
-6.29133
-6.2742
-6.25794
-6.24341
-6.22546
-6.2107
-6.19739
-6.17904
-6.16825
-6.45505
-6.42927
-6.41117
-6.39545
-6.38103
-6.36253
-6.34251
-6.32549
-6.31345
-6.29667
-6.27886
-6.2631
-6.24384
-6.22867
-6.21464
-6.20024
-6.18285
-6.46962
-6.45658
-6.44108
-6.41991
-6.4024
-6.3869
-6.37201
-6.35171
-6.33198
-6.31958
-6.3019
-6.28294
-6.2667
-6.2494
-6.2312
-6.21787
-6.19917
-6.48082
-6.45955
-6.44339
-6.42543
-6.40812
-6.39194
-6.37886
-6.36128
-6.33917
-6.32346
-6.30485
-6.2893
-6.27057
-6.25476
-6.22985
-6.22023
-6.50867
-6.48727
-6.46557
-6.44575
-6.42924
-6.41531
-6.40147
-6.38556
-6.36819
-6.34864
-6.33008
-6.31072
-6.29365
-6.27547
-6.25824
-6.57344
-6.55262
-6.52605
-6.49696
-6.47358
-6.45402
-6.43842
-6.4252
-6.41064
-6.39005
-6.37111
-6.35161
-6.33566
-6.31929
-6.29711
-6.28038
-6.62278
-6.58762
-6.56226
-6.54044
-6.50936
-6.48108
-6.46316
-6.44989
-6.43022
-6.41779
-6.4009
-6.3823
-6.36139
-6.34309
-6.32491
-6.31177
-6.66797
-6.63273
-6.60267
-6.58224
-6.55763
-6.53183
-6.50336
-6.47466
-6.45802
-6.43965
-6.42278
-6.41153
-6.38946
-6.37009
-6.34425
-6.32743
-6.74779
-6.72459
-6.69202
-6.65605
-6.61792
-6.59702
-6.57692
-6.55567
-6.53126
-6.49805
-6.47306
-6.44823
-6.43067
-6.41533
-6.39768
-6.3766
-6.82485
-6.77656
-6.73686
-6.70964
-6.68126
-6.6454
-6.61856
-6.5981
-6.57374
-6.55143
-6.52274
-6.49191
-6.46361
-6.44498
-6.42933
-6.40839
-6.87994
-6.8365
-6.79528
-6.75453
-6.72524
-6.69848
-6.66537
-6.63837
-6.61697
-6.59651
-6.57869
-6.54586
-6.5093
-6.47756
-6.4585
-6.44088
-6.91996
-6.89174
-6.85905
-6.80627
-6.7698
-6.7381
-6.7043
-6.67227
-6.64738
-6.6264
-6.60707
-6.59213
-6.56086
-6.52418
-6.49261
-6.47316
-6.95831
-6.942
-6.90726
-6.87547
-6.83291
-6.7901
-6.75832
-6.72602
-6.68906
-6.65858
-6.6351
-6.62007
-6.59865
-6.57695
-6.5461
-6.51462
-7.01465
-6.97991
-6.95148
-6.91955
-6.88606
-6.85064
-6.81384
-6.78077
-6.75131
-6.71017
-6.6749
-6.64972
-6.62649
-6.61155
-6.59111
-7.057
-7.03101
-6.99941
-6.96788
-6.93537
-6.90203
-6.8654
-6.82938
-6.80138
-6.77042
-6.73568
-6.69929
-6.66663
-6.64483
-6.61771
-6.60545
-7.09496
-7.06688
-7.03982
-7.01064
-6.97761
-6.94809
-6.91945
-6.8802
-6.84688
-6.81642
-6.78516
-6.74749
-6.71303
-6.67908
-6.64896
-6.61864
-7.12013
-7.10136
-7.07647
-7.05179
-7.01657
-6.98755
-6.95726
-6.93285
-6.90254
-6.86766
-6.83728
-6.80683
-6.76769
-6.7242
-6.69802
-7.13164
-7.11016
-7.08531
-7.05915
-7.02969
-7.00083
-6.96681
-6.93822
-6.91071
-6.87854
-6.85177
-6.8191
-6.78343
-6.75327
-7.16156
-7.1465
-7.11882
-7.09273
-7.06504
-7.04048
-7.01137
-6.97841
-6.95389
-6.92417
-6.89115
-6.86044
-6.82706
-7.24082
-7.2116
-7.18351
-7.16395
-7.13093
-7.09916
-7.07603
-7.04074
-7.02148
-6.98746
-6.96407
-6.93773
-6.90591
-6.88094
-7.28505
-7.25529
-7.22629
-7.20415
-7.17726
-7.14278
-7.10808
-7.08574
-7.0551
-7.02608
-7.00134
-6.97297
-6.94942
-6.91471
-7.3318
-7.30098
-7.27079
-7.23613
-7.21415
-7.18372
-7.15516
-7.12772
-7.09468
-7.06629
-7.03485
-7.00471
-6.98299
-6.94368
-7.39451
-7.35223
-7.32392
-7.2852
-7.24571
-7.21913
-7.18785
-7.16479
-7.13716
-7.11023
-7.08016
-7.04775
-7.01864
-6.97927
-7.4405
-7.40326
-7.36488
-7.34551
-7.30013
-7.27211
-7.22373
-7.19872
-7.17047
-7.14476
-7.12072
-7.09276
-7.05673
-7.02689
-7.48862
-7.45468
-7.40561
-7.37458
-7.34889
-7.31093
-7.27772
-7.23339
-7.19944
-7.17353
-7.15602
-7.13004
-7.09554
-7.38104
-7.36199
-7.31969
-7.28358
-7.25197
-7.22159
-7.18508
-7.16372
-7.13943
-7.39453
-7.37537
-7.3312
-7.29486
-7.26133
-7.23227
-7.19773
-7.16964
-7.4424
-7.4064
-7.38432
-7.34636
-7.31546
-7.27842
-7.24178
-7.52174
-7.47137
-7.42992
-7.38842
-7.35507
-7.32557
-7.30492
-7.48469
-7.45011
-7.4118
-7.36846
-7.32199
-7.61597
-7.55556
-7.49207
-7.45957
-7.42889
-7.39735
-7.86727
-7.83002
-7.71449
-7.65291
-7.49083
-7.88038
-7.83332
-7.79984
-7.77197
-7.73512
-7.58515
-7.9573
-7.77641
-7.76581
-7.70971
-7.64681
-7.97662
-7.8848
-7.80844
-1.34109
-1.24321
-1.11375
-1.67228
-1.62438
-1.57234
-1.48448
-1.40714
-1.34579
-1.29163
-1.1385
-0.941819
-1.91942
-1.84883
-1.81979
-1.7444
-1.69187
-1.64758
-1.58179
-1.50516
-1.41638
-1.34317
-1.30595
-1.22054
-1.11275
-1.05124
-0.957058
-2.15874
-2.07462
-1.9842
-1.93738
-1.85059
-1.81299
-1.75897
-1.70031
-1.65483
-1.61212
-1.53235
-1.46533
-1.37265
-1.29608
-1.22864
-1.13815
-1.05088
-1.01215
-0.850746
-0.747735
-0.60671
-0.380931
-2.42255
-2.29813
-2.24075
-2.15905
-2.09193
-2.01743
-1.94121
-1.88052
-1.81567
-1.76257
-1.71337
-1.66924
-1.62488
-1.54993
-1.53683
-1.36681
-1.30214
-1.22046
-1.14353
-1.064
-0.983123
-0.91797
-0.814011
-2.59425
-2.57414
-2.48241
-2.41199
-2.31096
-2.25625
-2.187
-2.12042
-2.03584
-1.96186
-1.89122
-1.82661
-1.7701
-1.71729
-1.69467
-1.62835
-1.5677
-1.48068
-1.37498
-1.29211
-1.23454
-1.15555
-1.07997
-0.998203
-0.926803
-2.70662
-2.68911
-2.62604
-2.57042
-2.51743
-2.45741
-2.355
-2.28168
-2.22635
-2.13804
-2.07262
-1.98556
-1.90511
-1.84148
-1.79126
-1.73377
-1.68071
-1.62983
-1.5748
-1.51491
-1.38594
-1.30143
-1.2434
-1.16602
-1.10591
-2.82782
-2.78751
-2.73213
-2.69229
-2.64933
-2.59123
-2.54421
-2.47868
-2.38339
-2.31163
-2.24467
-2.15182
-2.09519
-2.02139
-1.93119
-1.86056
-1.82036
-1.7533
-1.69927
-1.63877
-1.57266
-1.52103
-1.41668
-1.31894
-1.25948
-2.93466
-2.8958
-2.85127
-2.80632
-2.74838
-2.70782
-2.66832
-2.60723
-2.55724
-2.50632
-2.42328
-2.33884
-2.25897
-2.18849
-2.11203
-2.04507
-1.98089
-1.88273
-1.83841
-1.7789
-1.71336
-1.65459
-1.58082
-1.50927
-1.44905
-3.12339
-3.09885
-3.0168
-2.96094
-2.91002
-2.86748
-2.80804
-2.76483
-2.71751
-2.67774
-2.63086
-2.57109
-2.52156
-2.45913
-2.375
-2.28309
-2.2053
-2.12523
-2.07286
-1.99331
-1.91288
-1.85918
-1.81336
-1.73183
-1.67069
-1.62247
-3.29883
-3.25169
-3.20164
-3.15293
-3.09538
-3.0343
-2.98052
-2.92202
-2.87094
-2.82361
-2.78481
-2.73233
-2.68802
-2.63941
-2.59173
-2.53628
-2.47303
-2.40201
-2.31525
-2.25124
-2.15054
-2.07646
-2.01789
-1.95237
-1.8868
-1.84579
-1.75039
-3.34098
-3.30262
-3.25703
-3.21525
-3.16874
-3.11749
-3.04998
-2.99998
-2.94562
-2.89028
-2.84283
-2.79276
-2.74663
-2.70709
-2.65272
-2.60926
-2.5544
-2.48645
-2.4166
-2.3285
-2.25819
-2.20214
-2.08828
-2.0494
-1.96457
-3.47118
-3.42987
-3.38837
-3.34113
-3.30817
-3.26493
-3.22578
-3.18705
-3.1365
-3.08207
-3.02061
-2.96505
-2.91413
-2.85898
-2.80816
-2.75648
-2.71673
-2.6663
-2.62426
-2.57173
-2.50506
-2.42882
-2.34647
-2.29598
-2.18272
-3.52495
-3.48689
-3.44748
-3.40338
-3.36697
-3.341
-3.28606
-3.23858
-3.19728
-3.14646
-3.09756
-3.04622
-2.98575
-2.93246
-2.87648
-2.82088
-2.77242
-2.7319
-2.6814
-2.6391
-2.58843
-2.51728
-2.43764
-2.36643
-3.68298
-3.63792
-3.60309
-3.54249
-3.5052
-3.45559
-3.41128
-3.37816
-3.3417
-3.29389
-3.24894
-3.2069
-3.16098
-3.10296
-3.05907
-2.99975
-2.94703
-2.89159
-2.8401
-2.79473
-2.74739
-2.69434
-2.65222
-2.59462
-2.54341
-3.76664
-3.74165
-3.70336
-3.65416
-3.61199
-3.56799
-3.52381
-3.47798
-3.42406
-3.38022
-3.34711
-3.3021
-3.25942
-3.21132
-3.16906
-3.12469
-3.07097
-3.01308
-2.95615
-2.90308
-2.85689
-2.81052
-2.74657
-2.70695
-2.66909
-3.86352
-3.8297
-3.78896
-3.74976
-3.70638
-3.6645
-3.61992
-3.58641
-3.5504
-3.50747
-3.44711
-3.39828
-3.35762
-3.31433
-3.26771
-3.22589
-3.18223
-3.12934
-3.0818
-3.02577
-2.9691
-2.92012
-2.87334
-2.82553
-2.77465
-3.99172
-3.95337
-3.91355
-3.87603
-3.84298
-3.80302
-3.76477
-3.71004
-3.67374
-3.63409
-3.60175
-3.56854
-3.52574
-3.46577
-3.41678
-3.37694
-3.33005
-3.28569
-3.24133
-3.193
-3.12866
-3.08972
-3.03766
-2.98159
-2.93621
-2.88556
-4.08172
-4.02491
-3.99545
-3.95672
-3.92129
-3.88955
-3.85749
-3.8237
-3.77991
-3.73163
-3.69227
-3.64603
-3.61106
-3.57462
-3.53548
-3.48233
-3.43646
-3.39137
-3.34174
-3.29811
-3.2548
-3.20632
-3.14587
-3.09063
-3.04106
-2.98657
-4.1396
-4.12449
-4.08806
-4.04343
-4.00535
-3.9722
-3.93503
-3.90148
-3.87179
-3.84236
-3.80124
-3.74517
-3.70188
-3.65374
-3.62027
-3.57795
-3.53688
-3.49839
-3.46299
-3.42014
-3.35917
-3.31455
-3.26842
-3.21809
-3.14884
-3.08956
-3.04097
-4.2293
-4.18452
-4.15728
-4.12784
-4.09338
-4.05809
-4.01821
-3.98184
-3.94757
-3.91337
-3.88059
-3.85171
-3.81624
-3.76597
-3.71463
-3.66799
-3.63324
-3.58824
-3.53623
-3.50487
-3.47064
-3.422
-3.37663
-3.32794
-3.28074
-3.21846
-3.16578
-4.25863
-4.23183
-4.19739
-4.16756
-4.13644
-4.10058
-4.06446
-4.02706
-3.99177
-3.95752
-3.92297
-3.88696
-3.85399
-3.8217
-3.78124
-3.73591
-3.69192
-3.65348
-3.60215
-3.54578
-3.5001
-3.47497
-3.42495
-3.38853
-3.34009
-3.29187
-4.32077
-4.31614
-4.27878
-4.24175
-4.2104
-4.17791
-4.14599
-4.11398
-4.08059
-4.04485
-4.00857
-3.97021
-3.93353
-3.89659
-3.85954
-3.8251
-3.78976
-3.75101
-3.71148
-3.67102
-3.6191
-3.56438
-3.51483
-3.47482
-3.43487
-3.39039
-4.40425
-4.3805
-4.34433
-4.31875
-4.28928
-4.25295
-4.22047
-4.19174
-4.16089
-4.12801
-4.09492
-4.05829
-4.02205
-3.9861
-3.94496
-3.90933
-3.87116
-3.83366
-3.79715
-3.76188
-3.72592
-3.68313
-3.63806
-3.58532
-3.53353
-3.49811
-4.45852
-4.41941
-4.38734
-4.35886
-4.32802
-4.30002
-4.26835
-4.23673
-4.20469
-4.17293
-4.14163
-4.1075
-4.06969
-4.0322
-3.9928
-3.9578
-3.92376
-3.88547
-3.84742
-3.81011
-3.77404
-3.7367
-3.6915
-3.6496
-3.60252
-4.53443
-4.50165
-4.46122
-4.42927
-4.39884
-4.36727
-4.34138
-4.31341
-4.28184
-4.24933
-4.21697
-4.18521
-4.15394
-4.12143
-4.08471
-4.04762
-4.00435
-3.97222
-3.94017
-3.9014
-3.86218
-3.82314
-3.78726
-3.75051
-3.70269
-3.65786
-4.6128
-4.58076
-4.54794
-4.51171
-4.47581
-4.44096
-4.41068
-4.37804
-4.35155
-4.32459
-4.2944
-4.26332
-4.23006
-4.19845
-4.16693
-4.13545
-4.10015
-4.06665
-4.02608
-3.98789
-3.95627
-3.91571
-3.87774
-3.84007
-3.79927
-3.75157
-4.66391
-4.64988
-4.62501
-4.59144
-4.55812
-4.52056
-4.48578
-4.45268
-4.42195
-4.39041
-4.3635
-4.33583
-4.30555
-4.27477
-4.24356
-4.21123
-4.17881
-4.14832
-4.11385
-4.07953
-4.04283
-4.00367
-3.96799
-3.92826
-3.88924
-3.84485
-3.80468
-4.70597
-4.68053
-4.64972
-4.62858
-4.59964
-4.56611
-4.52882
-4.49508
-4.46398
-4.43354
-4.40587
-4.37729
-4.34891
-4.31679
-4.28526
-4.25409
-4.22208
-4.19004
-4.1594
-4.12818
-4.09184
-4.05328
-4.0138
-3.97768
-3.93764
-3.89097
-4.76937
-4.74519
-4.71422
-4.68551
-4.65541
-4.63333
-4.60709
-4.57379
-4.53941
-4.50691
-4.47382
-4.44698
-4.42152
-4.39399
-4.36108
-4.32786
-4.2959
-4.26233
-4.23034
-4.20093
-4.16987
-4.13867
-4.09801
-4.06638
-4.0373
-3.98392
-4.8068
-4.7764
-4.75181
-4.72804
-4.69653
-4.66861
-4.64556
-4.61594
-4.58278
-4.54978
-4.51755
-4.48541
-4.45725
-4.43275
-4.40587
-4.37088
-4.33778
-4.30744
-4.27467
-4.24355
-4.20989
-4.17931
-4.15315
-4.10612
-4.06624
-4.86345
-4.83578
-4.81141
-4.78631
-4.76083
-4.73845
-4.71041
-4.68081
-4.65327
-4.6226
-4.59097
-4.5581
-4.52839
-4.4967
-4.46811
-4.44103
-4.41076
-4.37969
-4.3478
-4.32078
-4.28891
-4.25403
-4.21868
-4.19026
-4.16706
-4.89282
-4.8731
-4.84552
-4.81749
-4.79143
-4.76876
-4.74647
-4.71752
-4.68838
-4.66026
-4.63042
-4.60018
-4.57011
-4.54084
-4.50881
-4.47953
-4.44959
-4.41633
-4.3891
-4.35982
-4.33284
-4.30071
-4.26988
-4.23362
-4.18344
-4.95542
-4.92694
-4.90079
-4.88032
-4.85185
-4.82412
-4.79976
-4.77559
-4.75087
-4.7224
-4.69282
-4.66563
-4.63749
-4.6077
-4.57982
-4.55221
-4.52295
-4.49043
-4.46176
-4.42268
-4.39322
-4.366
-4.34156
-4.30598
-4.28457
-4.98658
-4.96198
-4.93256
-4.90681
-4.88369
-4.85837
-4.83342
-4.81064
-4.78531
-4.75708
-4.73122
-4.70051
-4.67359
-4.6452
-4.61326
-4.58638
-4.55957
-4.52899
-4.49776
-4.47037
-4.43476
-4.40226
-4.37749
-4.33968
-4.30527
-5.04461
-5.01677
-4.99718
-4.97409
-4.94512
-4.92271
-4.89879
-4.87031
-4.84517
-4.82178
-4.79665
-4.76622
-4.74093
-4.70973
-4.6824
-4.65515
-4.62387
-4.59373
-4.56826
-4.53432
-4.5033
-4.47439
-4.44167
-4.40792
-4.37977
-5.06518
-5.04276
-5.02243
-5.00415
-4.98306
-4.95999
-4.93759
-4.9138
-4.88408
-4.85761
-4.83179
-4.80654
-4.77605
-4.74875
-4.71903
-4.69186
-4.66788
-4.64074
-4.60963
-4.57825
-4.54307
-4.50952
-4.4806
-4.45964
-5.11873
-5.09832
-5.07418
-5.05045
-5.02836
-5.01048
-4.99247
-4.97172
-4.95113
-4.93004
-4.90289
-4.87356
-4.84637
-4.81845
-4.7858
-4.75626
-4.72583
-4.69977
-4.67727
-4.651
-4.621
-4.58947
-4.55659
-4.51654
-4.48546
-5.15027
-5.12716
-5.10274
-5.07793
-5.05429
-5.03246
-5.01503
-4.9982
-4.97953
-4.96241
-4.9441
-4.91938
-4.89116
-4.86169
-4.83035
-4.79812
-4.76518
-4.7318
-4.70683
-4.68353
-4.6571
-4.62697
-4.59771
-4.57069
-5.2028
-5.18173
-5.15773
-5.13304
-5.10826
-5.08312
-5.06026
-5.03896
-5.02119
-5.00481
-4.98587
-4.96849
-4.9519
-4.93105
-4.90423
-4.87145
-4.8427
-4.81041
-4.77852
-4.74413
-4.71551
-4.68977
-4.66604
-4.63698
-4.60832
-5.23115
-5.2114
-5.18842
-5.1642
-5.13873
-5.11447
-5.08932
-5.06592
-5.04595
-5.02712
-5.01264
-4.99473
-4.9772
-4.95981
-4.94085
-4.91704
-4.88515
-4.85276
-4.82273
-4.79191
-4.7586
-4.72741
-4.69767
-4.67287
-5.28108
-5.26142
-5.24172
-5.22095
-5.19569
-5.17164
-5.147
-5.12164
-5.09491
-5.0709
-5.05197
-5.03339
-5.01764
-5.00129
-4.98668
-4.96963
-4.95076
-4.93027
-4.90331
-4.8696
-4.83681
-4.80607
-4.77773
-4.7359
-4.70602
-5.30545
-5.29028
-5.27096
-5.25047
-5.22792
-5.2054
-5.18194
-5.15648
-5.13019
-5.1025
-5.07607
-5.05874
-5.0425
-5.02533
-5.00728
-4.99253
-4.97607
-4.9599
-4.9402
-4.91311
-4.88178
-4.85247
-4.81263
-4.78771
-5.32988
-5.31211
-5.29729
-5.27879
-5.25957
-5.23934
-5.2174
-5.1933
-5.16682
-5.13977
-5.11226
-5.08282
-5.06215
-5.04736
-5.0325
-5.01496
-4.99649
-4.98079
-4.96621
-4.94521
-4.91746
-4.88822
-4.85987
-4.82407
-5.3651
-5.35196
-5.3374
-5.32293
-5.30601
-5.28851
-5.27028
-5.25092
-5.22939
-5.20527
-5.17828
-5.15061
-5.1242
-5.09601
-5.07162
-5.0544
-5.0388
-5.02195
-5.00232
-4.98584
-4.96887
-4.94986
-4.92359
-4.89443
-4.85925
-5.38763
-5.37262
-5.35886
-5.34336
-5.32967
-5.31476
-5.29776
-5.27913
-5.26032
-5.24006
-5.21692
-5.19056
-5.16258
-5.13621
-5.11068
-5.08693
-5.06723
-5.04988
-5.03117
-5.01226
-4.99349
-4.97319
-4.95164
-4.92994
-5.41141
-5.40054
-5.3796
-5.36509
-5.34985
-5.33773
-5.32322
-5.30584
-5.28687
-5.26912
-5.24984
-5.22715
-5.20237
-5.17515
-5.14824
-5.12331
-5.10085
-5.08062
-5.06146
-5.04228
-5.02131
-5.00262
-4.97718
-4.9561
-5.43979
-5.42135
-5.40679
-5.39031
-5.37507
-5.3584
-5.34472
-5.3304
-5.31317
-5.29358
-5.27539
-5.2589
-5.23564
-5.21259
-5.18687
-5.16047
-5.13586
-5.11383
-5.09397
-5.07385
-5.05362
-5.02833
-5.00947
-5.47103
-5.45964
-5.444
-5.43164
-5.41483
-5.39933
-5.38528
-5.36926
-5.35369
-5.33803
-5.32065
-5.30026
-5.27943
-5.26339
-5.24248
-5.22134
-5.19746
-5.17268
-5.14852
-5.12618
-5.10602
-5.08364
-5.06528
-5.04627
-5.49545
-5.47943
-5.46367
-5.45014
-5.43685
-5.42205
-5.40676
-5.39267
-5.37907
-5.36403
-5.34745
-5.32927
-5.30927
-5.28867
-5.26924
-5.24933
-5.22921
-5.20696
-5.1845
-5.16143
-5.13566
-5.11613
-5.09107
-5.0694
-5.51843
-5.49931
-5.48207
-5.46808
-5.45466
-5.44207
-5.42873
-5.41475
-5.40136
-5.39021
-5.37423
-5.35717
-5.33862
-5.31843
-5.29778
-5.27737
-5.25748
-5.23758
-5.21645
-5.19477
-5.17288
-5.14979
-5.12704
-5.55902
-5.54342
-5.5251
-5.50742
-5.48851
-5.47319
-5.46028
-5.44803
-5.43551
-5.42191
-5.40801
-5.3978
-5.3828
-5.36575
-5.3482
-5.32796
-5.30674
-5.28588
-5.26644
-5.24751
-5.22643
-5.20416
-5.18087
-5.16663
-5.57605
-5.56691
-5.54854
-5.52911
-5.5107
-5.49254
-5.47756
-5.46481
-5.45416
-5.44318
-5.42964
-5.41542
-5.40365
-5.39091
-5.37346
-5.35667
-5.33738
-5.31634
-5.29512
-5.27549
-5.25647
-5.23503
-5.21565
-5.18404
-5.60801
-5.58839
-5.57024
-5.55312
-5.5346
-5.51619
-5.4982
-5.48225
-5.4699
-5.46074
-5.45072
-5.43857
-5.42372
-5.40912
-5.3977
-5.38105
-5.36358
-5.34524
-5.325
-5.30445
-5.28379
-5.2637
-5.24244
-5.21769
-5.63191
-5.6091
-5.59408
-5.57699
-5.5595
-5.54137
-5.5217
-5.50431
-5.48815
-5.47514
-5.46703
-5.45656
-5.44505
-5.43034
-5.41563
-5.4022
-5.38576
-5.36868
-5.35124
-5.33113
-5.3114
-5.29421
-5.26591
-5.6737
-5.65273
-5.63881
-5.61922
-5.60109
-5.5838
-5.566
-5.54768
-5.5281
-5.51083
-5.49449
-5.48079
-5.47332
-5.46387
-5.45262
-5.43805
-5.42347
-5.40879
-5.3916
-5.37477
-5.3578
-5.33683
-5.3149
-5.29643
-5.68954
-5.6807
-5.66205
-5.6446
-5.62613
-5.60888
-5.59148
-5.57311
-5.55437
-5.53455
-5.51686
-5.50125
-5.48781
-5.47917
-5.47021
-5.45898
-5.4458
-5.43184
-5.41661
-5.39889
-5.38002
-5.36129
-5.34215
-5.32197
-5.72791
-5.7042
-5.68726
-5.6709
-5.65259
-5.63504
-5.61788
-5.59999
-5.58094
-5.56119
-5.54037
-5.52157
-5.50695
-5.4951
-5.48469
-5.47544
-5.46482
-5.45189
-5.43867
-5.42381
-5.40631
-5.38968
-5.36977
-5.74193
-5.73008
-5.71318
-5.69463
-5.678
-5.66129
-5.64416
-5.62723
-5.60928
-5.58961
-5.56865
-5.54686
-5.52719
-5.5129
-5.50165
-5.49017
-5.48085
-5.47031
-5.45714
-5.44409
-5.42915
-5.40975
-5.39511
-5.76662
-5.75112
-5.73523
-5.7186
-5.70238
-5.68576
-5.66916
-5.6521
-5.63537
-5.61813
-5.59868
-5.57705
-5.55517
-5.53384
-5.51875
-5.5088
-5.4976
-5.48775
-5.47657
-5.46261
-5.45019
-5.43661
-5.41492
-5.78761
-5.76903
-5.75736