/*--------------------------------*- C++ -*----------------------------------*\
  =========                 |
  \\      /  F ield         | OpenFOAM: The Open Source CFD Toolbox
   \\    /   O peration     | Website:  https://openfoam.org
    \\  /    A nd           | Version:  8
     \\/     M anipulation  |
\*---------------------------------------------------------------------------*/
FoamFile
{
    version     2.0;
    format      ascii;
    class       volScalarField;
    location    "100";
    object      epsilon;
}
// * * * * * * * * * * * * * * * * * * * * * * * * * * * * * * * * * * * * * //

dimensions      [0 2 -3 0 0 0 0];

internalField   nonuniform List<scalar> 
12225
(
285.523
270.712
257.907
243.825
232.441
223.117
216.773
212.721
212.757
213.999
217.27
221
228.219
232.933
241.769
246.442
256.842
258.554
52.4869
91.9002
106.961
114.778
124.832
136.843
152.703
170.011
191.238
211.133
235.586
255.88
281.873
300.143
326.485
341.395
367.805
385.959
20.526
34.8808
44.6666
50.4826
55.3854
59.6309
64.6567
69.6812
76.3369
83.266
91.5224
99.503
108.378
117.37
126
136.365
143.643
156.997
16.003
19.4888
24.0766
27.5698
30.4915
32.8792
35.1518
37.3087
39.5046
41.9471
44.3546
47.2651
49.7349
53.1739
55.5567
59.5393
61.7793
66.4856
15.0386
15.7133
17.3969
19.0814
20.6368
22.0303
23.2445
24.4379
25.4447
26.6068
27.5298
28.7817
29.6532
31.0325
31.8685
33.3719
34.1838
35.9139
14.7897
14.8258
15.2493
15.8686
16.5663
17.2889
17.9229
18.5873
19.1196
19.7394
20.1966
20.8089
21.2183
21.8422
22.222
22.8698
23.2176
23.9586
14.7657
14.6147
14.6409
14.726
14.9345
15.2207
15.4912
15.8102
16.0712
16.385
16.6198
16.9247
17.1357
17.436
17.6268
17.9325
18.0961
18.4497
14.7686
14.5867
14.4659
14.3802
14.3676
14.3895
14.4395
14.5338
14.6185
14.7375
14.8316
14.9583
15.0498
15.1802
15.2659
15.4016
15.4739
15.6407
14.768
14.591
14.4349
14.2963
14.185
14.1044
14.0398
14.0067
13.9814
13.9787
13.9811
13.9922
14.0044
14.0313
14.0482
14.0846
14.1015
14.1601
14.7665
14.594
14.432
14.2821
14.1429
14.0219
13.9114
13.8193
13.7369
13.6697
13.6101
13.5633
13.5181
13.4874
13.4521
13.4354
13.4036
13.4043
14.7659
14.5945
14.4322
14.2803
14.1361
14.0032
13.8781
13.7643
13.658
13.5627
13.4733
13.3949
13.3195
13.2558
13.1914
13.1408
13.0841
13.0461
14.7657
14.5943
14.4321
14.2798
14.1353
13.9998
13.8714
13.7517
13.6384
13.5335
13.4338
13.3427
13.2554
13.1767
13.0999
13.0326
12.9646
12.9076
14.7657
14.5941
14.432
14.2794
14.135
13.9989
13.8698
13.7484
13.6331
13.5248
13.4218
13.3255
13.2335
13.1481
13.066
12.9903
12.917
12.8502
14.7657
14.594
14.4318
14.2791
14.1346
13.9983
13.8691
13.7472
13.6315
13.5222
13.4183
13.3202
13.2269
13.1388
13.0549
12.9758
12.9002
12.8292
14.7657
14.5938
14.4317
14.2787
14.1342
13.9977
13.8686
13.7464
13.6307
13.5211
13.4171
13.3185
13.2249
13.1361
13.0516
12.9715
12.8953
12.823
14.7657
14.5938
14.4316
14.2785
14.1339
13.9973
13.8681
13.7458
13.63
13.5203
13.4162
13.3175
13.2237
13.1348
13.0502
12.9699
12.8935
12.8208
14.7657
14.5937
14.4315
14.2783
14.1337
13.997
13.8677
13.7453
13.6295
13.5196
13.4155
13.3167
13.2229
13.1338
13.0492
12.9687
12.8922
12.8195
14.7657
14.5937
14.4314
14.2782
14.1335
13.9968
13.8674
13.745
13.6291
13.5192
13.415
13.3161
13.2222
13.1331
13.0484
12.9679
12.8913
12.8185
14.7657
14.5937
14.4314
14.2782
14.1335
13.9967
13.8673
13.7449
13.6289
13.519
13.4147
13.3158
13.2219
13.1327
13.048
12.9674
12.8908
12.8179
14.7657
14.5937
14.4314
14.2782
14.1336
13.9968
13.8675
13.745
13.6291
13.5191
13.4149
13.316
13.2222
13.1329
13.0483
12.9676
12.8911
12.8181
14.7657
14.5937
14.4315
14.2784
14.1338
13.9971
13.8678
13.7454
13.6295
13.5197
13.4155
13.3168
13.2231
13.1341
13.0496
12.9693
12.893
12.8204
14.7657
14.5937
14.4316
14.2785
14.1341
13.9975
13.8685
13.7465
13.6312
13.5221
13.4192
13.3215
13.2295
13.1421
13.0597
12.9813
12.9077
12.8372
14.7659
14.5937
14.4318
14.2788
14.1353
14.0002
13.8742
13.756
13.6464
13.5436
13.4486
13.3593
13.2772
13.1994
13.1284
13.0603
12.9991
12.9389
14.7661
14.5928
14.4329
14.2844
14.1515
14.0322
13.929
13.8376
13.7593
13.6894
13.6307
13.577
13.5328
13.4905
13.4574
13.4229
13.3987
13.3691
14.7641
14.5937
14.461
14.3604
14.3029
14.2767
14.2796
14.2939
14.3201
14.3529
14.3957
14.4343
14.4821
14.5213
14.5714
14.6082
14.6606
14.6927
14.757
14.6921
14.7579
14.9173
15.1827
15.4611
15.7473
16.012
16.2719
16.5034
16.7354
16.9378
17.1495
17.3295
17.5291
17.6914
17.886
18.0325
14.9575
15.4344
16.5692
17.6885
18.705
19.5677
20.3366
20.9965
21.6182
22.1651
22.7168
23.2088
23.7365
24.2006
24.7274
25.1766
25.7168
26.1564
16.258
20.939
25.0148
27.7589
29.7837
31.3584
32.775
34.0573
35.3558
36.6134
37.969
39.2911
40.7506
42.1347
43.7002
45.1541
46.8558
48.327
29.9427
47.2248
54.87
58.6728
61.6118
64.4298
67.5741
70.973
74.7264
78.7006
82.963
87.3185
91.8672
96.4062
101.04
105.555
110.087
114.478
165.79
160.073
154.9
149.564
144.48
139.677
135.614
132.109
129.269
126.971
125.317
124.039
123.332
122.818
122.815
122.965
123.245
123.801
3.659
2.27541
3.38429
4.36215
5.23851
6.02238
6.70979
7.26974
7.65292
7.80019
7.60794
7.54003
7.69993
7.79744
7.3549
5.59566
5.73729
6.28002
6.99253
7.6771
8.9045
42.1631
49.4616
55.8605
63.0971
71.0708
79.8396
89.3395
99.5814
110.477
122.019
134.107
146.728
159.776
173.24
187.016
201.105
215.409
229.942
244.614
259.453
274.377
289.423
304.521
319.712
334.929
350.215
365.512
380.86
396.206
411.59
426.962
442.358
457.731
473.11
488.454
503.786
519.069
534.32
549.507
564.639
579.694
594.668
609.552
624.328
639.002
653.539
667.956
682.208
696.332
710.273
724.096
737.73
751.266
764.616
777.895
791.002
804.076
817.013
829.975
842.832
855.777
868.667
881.718
894.749
907.998
921.271
934.794
948.39
962.162
975.903
989.208
1001.34
1010.67
1011.24
1023.94
1052.39
1056.31
1083.27
1087.05
1113.2
1116.28
1128.63
1144.84
1173.47
1183.69
1199.27
1205.01
1219.78
1224.58
1234.88
1235.75
1243.08
1262.3
1259.56
1264.5
1277.25
1275.09
1273.3
1280.99
1275.35
1271.63
1264.48
1255.34
1244.21
1231.15
1216.1
1199.1
1180.01
1158.99
1136.07
1111.41
1085.12
1057.4
1027.96
997.231
965.486
932.943
899.852
866.432
832.718
799.216
766.59
733.37
703.072
681.144
661.229
641.713
622.433
603.484
584.909
566.779
549.178
531.77
514.687
498.409
482.771
467.534
452.761
438.538
424.955
412.043
399.745
388.021
376.885
366.322
356.308
346.82
337.845
329.348
321.312
313.673
306.456
299.432
292.965
285.955
280.296
271.894
265.502
244.291
8.05632
4.91795
4.64315
4.87288
5.29976
5.82905
6.42483
7.06203
7.72195
8.40601
9.15102
10.0051
10.9879
12.0969
13.3877
15.0707
17.1146
19.3887
22.1022
25.6168
30.4754
37.4773
42.1153
46.5569
51.2136
56.1001
61.2136
66.5186
71.9856
77.5879
83.3104
89.1316
95.0421
101.025
107.076
113.182
119.342
125.546
131.795
138.083
144.413
150.78
157.19
163.641
170.123
176.632
183.169
189.729
196.313
202.916
209.54
216.178
222.83
229.49
236.159
242.829
249.499
256.163
262.82
269.463
276.089
282.694
289.272
295.821
302.333
308.808
315.238
321.621
327.951
334.227
340.443
346.604
352.703
358.747
364.731
370.664
376.538
382.371
388.153
393.903
399.612
405.299
410.955
416.599
422.214
427.82
433.393
438.947
444.442
449.865
455.128
460.135
464.772
468.966
472.912
478.417
484.402
487.293
494.243
495.899
504.042
505.119
512.708
514.888
523.246
525.524
530.644
532.815
538.46
540.669
543.332
543.472
546.205
550.639
551.26
553.208
555.271
555.631
555.873
558.215
556.445
555.083
552.793
549.736
546.026
541.634
536.546
530.752
524.215
516.958
508.941
500.188
490.732
480.616
469.826
458.465
446.612
434.344
421.739
408.876
395.801
382.62
369.483
356.214
343.249
331.749
320.922
310.396
300.078
289.983
280.134
270.553
261.274
252.199
243.175
234.451
226.054
217.935
210.099
202.559
195.341
188.462
181.913
175.679
169.757
164.142
158.824
153.791
149.035
144.544
140.309
136.308
132.556
128.975
125.702
122.433
119.747
116.745
116.457
117.096
14.4827
7.93857
6.85377
6.74943
7.00931
7.4763
8.10127
8.87499
9.80669
10.9096
12.1873
13.6497
15.3095
17.1795
19.2804
21.621
24.1356
26.8089
29.7062
32.9178
36.4968
40.3647
44.2235
48.1459
52.1927
56.373
60.6223
64.9273
69.3186
73.7974
78.359
82.9952
87.7009
92.4719
97.3081
102.201
107.148
112.145
117.189
122.28
127.415
132.592
137.81
143.067
148.359
153.686
159.045
164.435
169.854
175.301
180.772
186.268
191.784
197.319
202.871
208.436
214.012
219.595
225.182
230.77
236.355
241.933
247.5
253.051
258.583
264.091
269.569
275.015
280.422
285.788
291.108
296.378
301.596
306.758
311.862
316.905
321.886
326.803
331.654
336.44
341.157
345.808
350.387
354.896
359.328
363.681
367.947
372.118
376.18
380.119
383.912
387.541
391.004
394.354
397.718
401.294
404.735
407.736
411.159
413.86
417.35
419.81
423.197
425.79
429.151
431.399
434.023
436.154
438.665
440.417
442.072
443.351
445.163
446.967
447.962
449.142
449.914
450.059
449.965
450.151
449.222
448.078
446.419
444.23
441.539
438.316
434.534
430.176
425.223
419.671
413.513
406.76
399.432
391.556
383.156
374.287
365.004
355.362
345.42
335.232
324.844
314.317
303.731
293.127
282.716
272.859
263.409
254.225
245.256
236.504
227.983
219.71
211.699
203.925
196.349
189.025
181.938
175.047
168.397
161.986
155.828
149.942
144.322
138.964
133.867
129.026
124.435
120.085
115.972
112.085
108.42
104.963
101.718
98.6524
95.8201
93.113
90.7691
88.4423
87.1154
87.219
21.7663
11.3663
9.47703
9.08399
9.23115
9.68419
10.3623
11.2405
12.3164
13.5947
15.0817
16.7823
18.694
20.8084
23.1117
25.5835
28.1947
30.9345
33.8201
36.8808
40.1324
43.5485
47.0812
50.7188
54.4555
58.2777
62.2043
66.2414
70.3732
74.5955
78.905
83.287
87.7323
92.2292
96.7915
101.419
106.109
110.862
115.673
120.541
125.464
130.44
135.466
140.54
145.661
150.825
156.032
161.28
166.567
171.892
177.252
182.646
188.071
193.526
199.008
204.515
210.044
215.592
221.156
226.732
232.316
237.906
243.495
249.08
254.655
260.216
265.756
271.27
276.753
282.199
287.601
292.955
298.254
303.493
308.665
313.766
318.791
323.733
328.588
333.352
338.019
342.586
347.046
351.397
355.63
359.742
363.725
367.571
371.273
374.826
378.222
381.461
384.559
387.547
390.471
393.349
396.097
398.679
401.221
403.581
405.965
408.123
410.353
412.404
414.483
416.288
418.064
419.677
421.241
422.547
423.717
424.766
425.883
426.872
427.538
427.931
427.968
427.825
427.517
427.017
426.027
424.71
422.977
420.798
418.159
415.03
411.366
407.162
402.402
397.078
391.187
384.737
377.744
370.232
362.232
353.786
344.944
335.755
326.272
316.543
306.627
296.595
286.53
276.505
266.643
257.087
247.823
238.806
230.017
221.459
213.145
205.088
197.298
189.767
182.486
175.468
168.71
162.198
155.935
149.881
144.043
138.447
133.085
127.961
123.075
118.425
114.006
109.813
105.842
102.084
98.5378
95.194
92.0519
89.0958
86.3476
83.7682
81.4647
79.3274
77.7064
77.1429
29.394
15.115
12.348
11.6537
11.6771
12.0967
12.7907
13.7139
14.8512
16.1997
17.7598
19.5301
21.5032
23.6655
25.9993
28.4848
31.1046
33.8494
36.7218
39.7302
42.8794
46.1629
49.5688
53.0885
56.716
60.447
64.2824
68.2209
72.257
76.3849
80.5997
84.9028
89.2931
93.7708
98.3347
102.98
107.703
112.502
117.375
122.318
127.33
132.407
137.549
142.752
148.015
153.334
158.71
164.138
169.619
175.149
180.728
186.352
192.021
197.733
203.484
209.273
215.096
220.952
226.836
232.744
238.674
244.62
250.577
256.539
262.502
268.459
274.403
280.327
286.224
292.086
297.906
303.674
309.383
315.025
320.591
326.072
331.461
336.748
341.927
346.988
351.926
356.731
361.398
365.92
370.288
374.498
378.541
382.413
386.108
389.622
392.956
396.112
399.102
401.947
404.665
407.258
409.707
412.006
414.181
416.214
418.14
419.927
421.626
423.204
424.683
426.009
427.217
428.292
429.251
430.058
430.712
431.252
431.781
432.056
432.013
431.833
431.463
430.883
430.096
429.062
427.688
425.982
423.899
421.408
418.481
415.094
411.197
406.78
401.824
396.321
390.266
383.664
376.529
368.883
360.758
352.192
343.229
333.919
324.314
314.475
304.473
294.382
284.28
274.241
264.352
254.692
245.276
236.1
227.163
218.473
210.042
201.882
194.001
186.399
179.073
172.028
165.261
158.764
152.533
146.549
140.807
135.295
129.989
124.906
120.046
115.41
110.993
106.795
102.812
99.0339
95.4649
92.0994
88.934
85.9602
83.1872
80.6025
78.2587
76.1329
74.373
73.3168
36.9226
18.9466
15.3026
14.294
14.1867
14.5506
15.2309
16.1599
17.3099
18.6694
20.2332
21.9963
23.9508
26.0847
28.3839
30.8334
33.4208
36.1379
38.982
41.9537
45.0539
48.2807
51.6307
55.1001
58.6862
62.3867
66.2007
70.1267
74.1626
78.306
82.5552
86.9094
91.3678
95.9295
100.593
105.355
110.213
115.165
120.209
125.341
130.558
135.859
141.241
146.701
152.236
157.846
163.526
169.276
175.093
180.975
186.921
192.929
198.996
205.121
211.301
217.534
223.817
230.147
236.52
242.933
249.381
255.859
262.361
268.881
275.413
281.949
288.481
295
301.497
307.963
314.387
320.759
327.067
333.302
339.45
345.502
351.445
357.268
362.96
368.51
373.908
379.144
384.208
389.091
393.785
398.282
402.574
406.657
410.525
414.178
417.615
420.839
423.859
426.687
429.334
431.804
434.097
436.211
438.155
439.932
441.549
443.006
444.317
445.48
446.501
447.374
448.094
448.651
449.075
449.384
449.481
449.362
449.204
448.829
448.275
447.541
446.617
445.487
444.136
442.531
440.627
438.401
435.819
432.849
429.458
425.615
421.288
416.455
411.096
405.198
398.757
391.774
384.261
376.24
367.739
358.794
349.451
339.764
329.795
319.614
309.293
298.906
288.528
278.227
268.071
258.116
248.389
238.904
229.67
220.7
212.007
203.602
195.492
187.68
180.167
172.954
166.036
159.409
153.066
146.993
141.183
135.624
130.301
125.191
120.288
115.595
111.113
106.843
102.786
98.9327
95.2911
91.8543
88.619
85.5804
82.7424
80.1029
77.6904
75.5111
73.6414
72.23
44.1106
22.7015
18.2016
16.8733
16.6284
16.9228
17.57
18.4808
19.6153
20.9544
22.4886
24.2107
26.1136
28.1885
30.425
32.8131
35.3436
38.01
40.8086
43.7376
46.7966
49.9846
53.3009
56.7441
60.3134
64.0083
67.8284
71.7731
75.842
80.0343
84.3495
88.787
93.3464
98.0264
102.826
107.743
112.775
117.921
123.177
128.54
134.01
139.581
145.253
151.021
156.885
162.84
168.886
175.019
181.238
187.541
193.925
200.389
206.932
213.55
220.241
227.004
233.835
240.731
247.688
254.703
261.769
268.882
276.036
283.222
290.434
297.663
304.9
312.133
319.352
326.545
333.7
340.804
347.842
354.801
361.667
368.425
375.059
381.556
387.902
394.081
400.082
405.89
411.493
416.881
422.043
426.968
431.651
436.082
440.259
444.179
447.842
451.25
454.409
457.327
460.012
462.47
464.704
466.718
468.518
470.107
471.493
472.678
473.669
474.467
475.077
475.529
475.793
475.815
475.624
475.322
474.816
474.145
473.324
472.313
471.117
469.731
468.147
466.349
464.322
462.037
459.468
456.586
453.361
449.761
445.756
441.312
436.402
431
425.086
418.645
411.67
404.161
396.129
387.591
378.576
369.123
359.282
349.114
338.686
328.068
317.334
306.556
295.803
285.14
274.625
264.305
254.211
244.366
234.787
225.488
216.483
207.782
199.393
191.32
183.564
176.123
168.996
162.176
155.655
149.424
143.473
137.789
132.361
127.171
122.199
117.422
112.844
108.472
104.31
100.358
96.6157
93.081
89.7511
86.6229
83.6981
80.9782
78.4803
76.2175
74.2388
72.5616
50.7537
26.2469
20.9326
19.2877
18.9009
19.117
19.7191
20.5979
21.702
23.0058
24.4958
26.1639
28.0037
30.0086
32.1722
34.4877
36.9493
39.5524
42.2937
45.1717
48.1854
51.3347
54.6195
58.04
61.5964
65.2894
69.1194
73.087
77.1927
81.4371
85.8204
90.3427
95.0041
99.8041
104.742
109.816
115.025
120.368
125.841
131.443
137.17
143.022
148.994
155.084
161.291
167.61
174.041
180.58
187.226
193.977
200.832
207.787
214.842
221.994
229.24
236.58
244.009
251.524
259.122
266.797
274.545
282.36
290.234
298.16
306.129
314.131
322.154
330.188
338.219
346.232
354.214
362.148
370.018
377.807
385.496
393.07
400.508
407.793
414.908
421.834
428.556
435.056
441.319
447.332
453.081
458.555
463.745
468.641
473.238
477.534
481.527
485.217
488.608
491.706
494.518
497.049
499.305
501.291
503.012
504.475
505.684
506.647
507.367
507.842
508.043
508
507.756
507.27
506.572
505.671
504.554
503.234
501.716
499.992
498.061
495.919
493.558
490.969
488.136
485.041
481.661
477.974
473.952
469.567
464.79
459.594
453.949
447.832
441.222
434.104
426.47
418.319
409.658
400.508
390.901
380.877
370.491
359.805
348.886
337.804
326.63
315.435
304.283
293.235
282.342
271.649
261.188
250.986
241.063
231.435
222.118
213.12
204.448
196.106
188.096
180.416
173.063
166.032
159.314
152.899
146.778
140.939
135.369
130.054
124.978
120.109
115.424
110.938
106.662
102.597
98.7451
95.1038
91.6711
88.4447
85.4251
82.6147
80.0239
77.6654
75.5739
73.6893
56.6882
29.4733
23.4069
21.4579
20.9297
21.0639
21.615
22.4554
23.5233
24.7871
26.23
27.8426
29.619
31.5544
33.645
35.8867
38.2763
40.8111
43.4892
46.3095
49.2719
52.3765
55.6241
59.0155
62.5521
66.2351
70.0661
74.0465
78.178
82.462
86.8996
91.4919
96.2397
101.143
106.203
111.418
116.787
122.31
127.984
133.809
139.781
145.9
152.161
158.564
165.106
171.784
178.597
185.543
192.619
199.824
207.156
214.614
222.195
229.899
237.721
245.661
253.715
261.88
270.152
278.525
286.996
295.556
304.198
312.914
321.693
330.525
339.397
348.295
357.205
366.11
374.993
383.835
392.618
401.32
409.921
418.4
426.734
434.902
442.882
450.654
458.196
465.488
472.513
479.253
485.692
491.816
497.612
503.07
508.185
512.948
517.36
521.417
525.123
528.481
531.496
534.174
536.521
538.542
540.243
541.632
542.716
543.506
543.964
544.097
543.911
543.474
542.763
541.777
540.523
539.011
537.239
535.216
532.948
530.434
527.676
524.673
521.419
517.912
514.138
510.087
505.743
501.09
496.105
490.767
485.052
478.936
472.395
465.408
457.956
450.026
441.61
432.709
423.334
413.506
403.26
392.638
381.692
370.482
359.075
347.538
335.939
324.345
312.814
301.404
290.162
279.129
268.337
257.814
247.585
237.666
228.069
218.804
209.877
201.292
193.048
185.145
177.58
170.348
163.439
156.845
150.554
144.555
138.836
133.384
128.183
123.209
118.415
113.817
109.426
105.25
101.29
97.5429
94.0083
90.6839
87.5694
84.6668
81.9822
79.5251
77.3211
75.2689
61.795
32.2993
25.5627
23.3319
22.6678
22.7214
23.2205
24.0213
25.0531
26.2788
27.6785
29.2413
30.9612
32.8344
34.8586
37.0318
39.3525
41.8198
44.4332
47.1925
50.0984
53.1517
56.3539
59.7067
63.212
66.8723
70.6898
74.667
78.8066
83.1107
87.5819
92.222
97.0329
102.016
107.172
112.502
118.005
123.683
129.533
135.555
141.748
148.11
154.64
161.335
168.194
175.216
182.397
189.738
197.235
204.888
212.695
220.655
228.765
237.025
245.431
253.983
262.676
271.508
280.474
289.569
298.787
308.121
317.564
327.105
336.733
346.436
356.2
366.011
375.85
385.699
395.539
405.349
415.105
424.785
434.365
443.818
453.12
462.244
471.166
479.86
488.301
496.466
504.333
511.88
519.089
525.943
532.426
538.525
544.231
549.539
554.44
558.935
563.023
566.706
569.988
572.873
575.369
577.479
579.211
580.572
581.575
582.189
582.411
582.259
581.769
580.944
579.783
578.289
576.468
574.325
571.865
569.094
566.018
562.643
558.972
555.007
550.748
546.194
541.342
536.186
530.717
524.928
518.806
512.336
505.501
498.287
490.677
482.654
474.207
465.327
456.012
446.265
436.101
425.545
414.632
403.398
391.893
380.174
368.305
356.347
344.365
332.418
320.563
308.848
297.318
286.009
274.949
264.172
253.701
243.552
233.736
224.261
215.131
206.349
197.915
189.828
182.087
174.685
167.613
160.862
154.421
148.277
142.421
136.838
131.514
126.427
121.529
116.825
112.331
108.053
103.994
100.151
96.523
93.1076
89.9042
86.9138
84.1394
81.5872
79.2754
77.0842
66.0037
34.674
27.3646
24.8838
24.094
24.0746
24.5209
25.2841
26.2836
27.477
28.8415
30.3644
32.0389
33.8615
35.8306
37.9451
40.2051
42.6106
45.1624
47.8614
50.7091
53.7072
56.8579
60.1638
63.628
67.2534
71.0437
75.0022
79.1325
83.438
87.9222
92.5881
97.4387
102.477
107.704
113.123
118.735
124.54
130.54
136.734
143.123
149.706
156.481
163.449
170.607
177.955
185.491
193.214
201.122
209.216
217.492
225.951
234.59
243.409
252.404
261.575
270.917
280.427
290.101
299.934
309.918
320.048
330.313
340.703
351.206
361.809
372.496
383.25
394.053
404.883
415.718
426.534
437.306
448.007
458.609
469.083
479.4
489.53
499.444
509.111
518.504
527.594
536.356
544.765
552.798
560.435
567.658
574.45
580.801
586.7
592.142
597.122
601.638
605.691
609.283
612.42
615.105
617.343
619.142
620.509
621.443
621.92
621.957
621.575
620.782
619.582
617.98
615.976
613.576
610.783
607.604
604.042
600.107
595.803
591.137
586.114
580.74
575.016
568.948
562.536
555.783
548.687
541.247
533.459
525.319
516.821
507.96
498.733
489.136
479.17
468.842
458.158
447.139
435.809
424.207
412.358
400.309
388.111
375.822
363.498
351.197
338.97
326.868
314.932
303.201
291.705
280.464
269.521
258.896
248.603
238.649
229.04
219.779
210.868
202.305
194.092
186.227
178.703
171.512
164.643
158.085
151.828
145.859
140.167
134.738
129.547
124.55
119.756
115.176
110.815
106.674
102.751
99.0431
95.5494
92.268
89.1991
86.3434
83.7043
81.2936
78.9876
69.2826
36.5697
28.7954
26.1013
25.1967
25.1134
25.5162
26.2481
27.2222
28.3921
29.7319
31.2273
32.8703
34.657
36.5856
38.6557
40.8677
43.2226
45.7218
48.3672
51.1612
54.1063
57.2058
60.4633
63.8827
67.4684
71.2249
75.1567
79.2681
83.5639
88.0484
92.726
97.601
102.677
107.959
113.449
119.151
125.067
131.2
137.551
144.12
150.91
157.919
165.148
172.597
180.265
188.15
196.253
204.573
213.108
221.857
230.821
239.996
249.382
258.977
268.778
278.782
288.985
299.383
309.969
320.737
331.678
342.783
354.04
365.436
376.957
388.585
400.301
412.085
423.914
435.762
447.603
459.408
471.148
482.791
494.304
505.654
516.808
527.731
538.39
548.753
558.787
568.463
577.752
586.628
595.066
603.047
610.551
617.563
624.074
630.072
635.553
640.513
644.953
648.873
652.277
655.169
657.553
659.433
660.817
661.699
662.074
661.952
661.337
660.241
658.668
656.619
654.096
651.1
647.634
643.702
639.308
634.458
629.161
623.422
617.25
610.654
603.642
596.224
588.409
580.211
571.637
562.7
553.407
543.772
533.804
523.515
512.917
502.019
490.839
479.39
467.683
455.742
443.597
431.265
418.781
406.195
393.553
380.903
368.291
355.763
343.362
331.125
319.088
307.279
295.719
284.413
273.413
262.743
252.409
242.417
232.769
223.467
214.511
205.895
197.627
189.705
182.123
174.869
167.934
161.307
154.977
148.933
143.165
137.656
132.38
127.308
122.448
117.806
113.386
109.185
105.203
101.435
97.8808
94.537
91.4034
88.479
85.7647
83.2677
80.8689
71.6316
37.98
29.8567
26.993
25.9934
25.8572
26.2255
26.9345
27.8924
29.0495
30.3775
31.8602
33.4884
35.2573
37.1644
39.2092
41.3922
43.7146
46.1785
48.7862
51.5409
54.4462
57.5064
60.7261
64.1105
67.6653
71.3973
75.3106
79.4102
83.7016
88.1905
92.8826
97.7837
102.9
108.236
113.798
119.591
125.618
131.885
138.397
145.154
152.158
159.411
166.914
174.667
182.669
190.922
199.424
208.175
217.174
226.421
235.913
245.65
255.629
265.85
276.307
286.998
297.919
309.063
320.425
331.996
343.768
355.729
367.867
380.167
392.614
405.188
417.869
430.634
443.458
456.313
469.17
481.998
494.762
507.43
519.963
532.326
544.481
556.39
568.017
579.323
590.275
600.837
610.979
620.67
629.884
638.595
646.784
654.433
661.528
668.059
674.017
679.399
684.204
688.432
692.086
695.167
697.681
699.631
701.021
701.851
702.117
701.823
700.952
699.534
697.569
695.052
691.982
688.358
684.18
679.449
674.169
668.343
661.98
655.084
647.668
639.742
631.321
622.418
613.055
603.252
593.033
582.42
571.442
560.132
548.518
536.632
524.511
512.173
499.619
486.852
473.959
460.976
447.951
434.942
421.94
408.935
395.966
383.069
370.281
357.637
345.17
332.908
320.877
309.097
297.582
286.307
275.39
264.814
254.575
244.672
235.105
225.876
216.981
208.406
200.169
192.271
184.704
177.457
170.519
163.879
157.526
151.454
145.65
140.097
134.768
129.657
124.765
120.094
115.644
111.412
107.396
103.593
99.9984
96.6116
93.4308
90.4534
87.6794
85.1113
82.6412
73.0796
38.9161
30.5644
27.5808
26.5114
26.337
26.6832
27.3809
28.3352
29.4939
30.8268
32.3162
33.9515
35.7266
37.6383
39.6854
41.8681
44.1876
46.646
49.2462
51.9921
54.888
57.9395
61.1529
64.5336
68.087
71.8197
75.7383
79.8501
84.1623
88.6824
93.4179
98.3763
103.565
108.993
114.665
120.59
126.773
133.219
139.933
146.92
154.183
161.726
169.552
177.661
186.052
194.727
203.684
212.923
222.443
232.243
242.32
252.674
263.301
274.198
285.361
296.785
308.465
320.393
332.564
344.965
357.589
370.421
383.448
396.655
410.023
423.531
437.158
450.879
464.666
478.489
492.317
506.115
519.847
533.477
546.963
560.267
573.347
586.162
598.673
610.839
622.621
633.983
644.89
655.308
665.209
674.566
683.356
691.557
699.157
706.141
712.501
718.231
723.331
727.799
731.637
734.848
737.434
739.399
740.748
741.484
741.59
741.067
739.893
738.107
735.698
732.66
728.988
724.676
719.722
714.123
707.88
700.995
693.473
685.322
676.552
667.177
657.217
646.693
635.634
624.075
612.05
599.599
586.767
573.622
560.203
546.505
532.578
518.545
504.502
490.564
476.655
462.801
449.05
435.479
421.944
408.533
395.278
382.203
369.331
356.682
344.273
332.12
320.236
308.63
297.306
286.217
275.484
265.085
255.018
245.281
235.874
226.793
218.036
209.569
201.462
193.685
186.223
179.065
172.201
165.618
159.303
153.255
147.465
141.908
136.581
131.478
126.595
121.932
117.488
113.258
109.238
105.425
101.816
98.4091
95.2016
92.1904
89.3746
86.7531
84.2334
73.6537
39.395
30.9426
27.8964
26.7896
26.5981
26.941
27.6459
28.6165
29.7993
31.163
32.6882
34.3633
36.181
38.1371
40.2297
42.4583
44.8238
47.3284
49.9751
52.7685
55.714
58.8159
62.0796
65.5124
69.1218
72.916
76.9034
81.0932
85.4947
90.1175
94.971
100.065
105.41
111.014
116.887
123.037
129.471
136.197
143.221
150.547
158.18
166.124
174.383
182.958
191.849
201.057
210.58
220.417
230.566
241.025
251.79
262.858
274.225
285.885
297.834
310.063
322.566
335.333
348.355
361.62
375.115
388.828
402.741
416.837
431.097
445.498
460.017
474.627
489.298
503.999
518.696
533.354
547.933
562.393
576.694
590.792
604.645
618.209
631.442
644.302
656.747
668.74
680.243
691.221
701.644
711.482
720.711
729.31
737.26
744.549
751.166
757.105
762.364
766.943
770.841
774.063
776.607
778.48
779.685
780.219
780.076
779.22
777.655
775.407
772.461
768.808
764.435
759.338
753.504
746.932
739.617
731.559
722.76
713.23
702.978
692.022
680.384
668.095
655.191
641.728
627.75
613.314
598.409
583.118
567.589
552.011
536.503
521.041
505.769
490.516
475.435
460.585
446.005
431.719
417.709
403.988
390.565
377.446
364.636
352.135
339.946
328.067
316.497
305.233
294.269
283.592
273.226
263.178
253.444
244.025
234.917
226.116
217.619
209.389
201.484
193.887
186.588
179.575
172.838
166.367
160.137
154.174
148.453
142.966
137.707
132.669
127.844
123.233
118.834
114.641
110.651
106.858
103.262
99.8603
96.6493
93.6258
90.7887
88.1334
85.5859
73.5152
39.4802
31.05
28.0032
26.8953
26.7161
27.0866
27.8322
28.8566
30.1059
31.5479
33.1624
34.9365
36.8621
38.9343
41.1502
43.5088
46.0105
48.6571
51.4512
54.3965
57.4976
60.7607
64.1928
67.8018
71.5967
75.5873
79.7839
84.1977
88.8401
93.7229
98.8577
104.257
109.931
115.893
122.152
128.718
135.601
142.808
150.347
158.223
166.44
175.001
183.907
193.163
202.769
212.722
223.019
233.658
244.633
255.941
267.576
279.531
291.798
304.371
317.238
330.39
343.816
357.503
371.439
385.61
399.999
414.592
429.369
444.312
459.399
474.607
489.911
505.284
520.694
536.11
551.496
566.816
582.03
597.097
611.975
626.62
640.99
655.039
668.726
682.006
694.84
707.187
719.011
730.276
740.951
751.005
760.413
769.154
777.208
784.561
791.2
797.12
802.317
806.792
810.545
813.576
815.887
817.48
818.368
818.515
817.95
816.58
814.463
811.585
807.932
803.491
798.246
792.185
785.296
777.569
768.999
759.581
749.318
738.216
726.289
713.553
700.044
685.798
670.85
655.179
638.874
622.076
605.032
587.832
570.509
553.268
535.94
518.75
501.819
485.195
468.957
453.159
437.837
423.004
408.649
394.765
381.336
368.347
355.781
343.619
331.841
320.427
309.361
298.625
288.203
278.078
268.251
258.72
249.481
240.532
231.868
223.484
215.376
207.533
199.963
192.666
185.637
178.865
172.344
166.063
159.995
154.172
148.585
143.224
138.084
133.156
128.431
123.919
119.609
115.495
111.571
107.833
104.279
100.909
97.7201
94.7074
91.8706
89.2022
86.6489
72.8898
39.3151
30.9809
27.99
26.9402
26.8339
27.2953
28.15
29.3031
30.7013
32.3122
34.116
36.0997
38.2547
40.5755
43.0587
45.7029
48.5078
51.4748
54.6064
57.9064
61.3797
65.0327
68.8732
72.9099
77.1526
81.6123
86.3007
91.2303
96.4142
101.866
107.598
113.625
119.962
126.619
133.609
140.941
148.623
156.666
165.076
173.857
183.01
192.538
202.437
212.706
223.342
234.342
245.7
257.409
269.462
281.848
294.558
307.58
320.903
334.512
348.394
362.533
376.914
391.52
406.335
421.341
436.52
451.853
467.322
482.905
498.582
514.329
530.121
545.932
561.734
577.493
593.176
608.749
624.172
639.406
654.411
669.145
683.566
697.633
711.303
724.537
737.295
749.539
761.233
772.345
782.842
792.696
801.881
810.376
818.16
825.217
831.535
837.105
841.924
845.992
849.308
851.873
853.683
854.742
855.051
854.624
853.365
851.286
848.396
844.676
840.107
834.669
828.346
821.116
812.967
803.884
793.86
782.886
770.964
758.102
744.317
729.617
713.975
697.446
680.141
662.269
643.91
625.117
606.123
586.784
567.353
547.997
528.811
509.941
491.519
473.64
456.386
439.81
423.94
408.775
394.296
380.47
367.261
354.628
342.531
330.926
319.773
309.034
298.673
288.659
278.962
269.56
260.437
251.586
242.998
234.669
226.59
218.757
211.165
203.809
196.687
189.797
183.141
176.706
170.486
164.484
158.691
153.114
147.751
142.597
137.646
132.891
128.324
123.951
119.765
115.762
111.935
108.281
104.803
101.497
98.3585
95.3836
92.5725
89.9146
87.3792
71.5388
38.809
30.7459
27.932
27.041
27.0904
27.735
28.8014
30.1991
31.8768
33.8036
35.9602
38.3342
40.9173
43.704
46.691
49.8763
53.2596
56.8415
60.6243
64.6116
68.808
73.2195
77.8532
82.7173
87.8215
93.1763
98.7934
104.685
110.864
117.343
124.137
131.261
138.729
146.556
154.746
163.307
172.242
181.555
191.247
201.321
211.779
222.617
233.831
245.416
257.361
269.659
282.297
295.263
308.541
322.117
335.974
350.097
364.467
379.065
393.872
408.867
424.031
439.343
454.785
470.335
485.976
501.687
517.45
533.247
549.058
564.862
580.639
596.365
612.014
627.56
642.972
658.219
673.267
688.081
702.624
716.86
730.752
744.261
757.351
769.985
782.128
793.744
804.802
815.269
825.118
834.322
842.855
850.696
857.823
864.219
869.868
874.762
878.893
882.261
884.865
886.704
887.766
888.061
887.621
886.345
884.219
881.243
877.397
872.659
867.005
860.409
852.85
844.304
834.753
824.178
812.572
799.924
786.227