/*--------------------------------*- C++ -*----------------------------------*\
  =========                 |
  \\      /  F ield         | OpenFOAM: The Open Source CFD Toolbox
   \\    /   O peration     | Website:  https://openfoam.org
    \\  /    A nd           | Version:  8
     \\/     M anipulation  |
\*---------------------------------------------------------------------------*/
FoamFile
{
    version     2.0;
    format      ascii;
    class       volScalarField;
    location    "100";
    object      k;
}
// * * * * * * * * * * * * * * * * * * * * * * * * * * * * * * * * * * * * * //

dimensions      [0 2 -2 0 0 0 0];

internalField   nonuniform List<scalar> 
12225
(
0.362814
0.344001
0.327732
0.309838
0.295373
0.283524
0.275462
0.270313
0.270359
0.27192
0.276111
0.280772
0.290039
0.295998
0.306972
0.314254
0.323573
0.33782
0.440192
0.468696
0.461605
0.448377
0.450365
0.45834
0.474463
0.498846
0.524373
0.552603
0.580945
0.606926
0.634505
0.655116
0.681284
0.696176
0.721829
0.736622
0.390545
0.417868
0.42023
0.416824
0.411632
0.407808
0.408017
0.410057
0.414547
0.42152
0.430826
0.439905
0.4515
0.461556
0.473576
0.484652
0.495169
0.509744
0.377546
0.38698
0.391407
0.391342
0.390222
0.387897
0.385663
0.384085
0.382886
0.382908
0.383415
0.384364
0.386407
0.388585
0.391149
0.394636
0.397115
0.402266
0.374562
0.376089
0.378413
0.378665
0.378263
0.377204
0.375489
0.373735
0.372011
0.370452
0.369264
0.368112
0.367401
0.366853
0.366492
0.366494
0.366551
0.367099
0.373815
0.372709
0.372645
0.372383
0.371761
0.370814
0.369553
0.368079
0.366569
0.364971
0.363524
0.362059
0.360749
0.359536
0.358399
0.35746
0.356493
0.355902
0.373783
0.371742
0.370386
0.369286
0.368234
0.367112
0.365913
0.364583
0.363234
0.361802
0.360414
0.359015
0.357665
0.356372
0.355106
0.353959
0.352792
0.351824
0.37382
0.37156
0.369635
0.367976
0.3665
0.365106
0.363774
0.362426
0.361103
0.35976
0.358441
0.357133
0.355848
0.354606
0.353381
0.352229
0.35108
0.350041
0.373832
0.371553
0.369449
0.367525
0.365776
0.364152
0.362643
0.361196
0.359813
0.358467
0.357161
0.355892
0.354653
0.353458
0.352287
0.351174
0.350075
0.349054
0.373831
0.37156
0.369418
0.367405
0.365529
0.363772
0.362131
0.360583
0.359118
0.357722
0.356387
0.355108
0.353876
0.352695
0.351552
0.350462
0.349401
0.348403
0.373829
0.371561
0.369413
0.367378
0.365458
0.363645
0.361936
0.360322
0.358795
0.357348
0.355973
0.354664
0.353414
0.352223
0.351081
0.349994
0.348945
0.347956
0.373828
0.371559
0.369409
0.367371
0.365439
0.363608
0.361875
0.360232
0.358675
0.357198
0.355795
0.354462
0.353193
0.351986
0.350832
0.349737
0.348686
0.347692
0.373827
0.371557
0.369405
0.367365
0.36543
0.363593
0.36185
0.360196
0.358624
0.357132
0.355712
0.354363
0.353079
0.351859
0.350694
0.349588
0.34853
0.347528
0.373827
0.371555
0.369402
0.36736
0.365423
0.363583
0.361837
0.360177
0.3586
0.3571
0.355673
0.354315
0.353022
0.351792
0.350619
0.349504
0.348439
0.347427
0.373826
0.371553
0.369399
0.367355
0.365416
0.363575
0.361826
0.360164
0.358584
0.357081
0.355651
0.354289
0.352993
0.351758
0.350581
0.34946
0.348391
0.347372
0.373826
0.371552
0.369396
0.367351
0.36541
0.363568
0.361818
0.360154
0.358572
0.357068
0.355635
0.354272
0.352973
0.351736
0.350557
0.349434
0.348362
0.34734
0.373825
0.371551
0.369394
0.367348
0.365406
0.363562
0.361811
0.360146
0.358563
0.357057
0.355623
0.354258
0.352958
0.35172
0.350539
0.349414
0.34834
0.347317
0.373825
0.371551
0.369393
0.367346
0.365404
0.363559
0.361806
0.36014
0.358556
0.357049
0.355614
0.354248
0.352947
0.351707
0.350526
0.349399
0.348324
0.347299
0.373825
0.37155
0.369393
0.367346
0.365403
0.363557
0.361804
0.360138
0.358553
0.357045
0.35561
0.354243
0.352942
0.351701
0.350519
0.349391
0.348315
0.347289
0.373825
0.371551
0.369394
0.367346
0.365404
0.363559
0.361807
0.36014
0.358556
0.357048
0.355614
0.354247
0.352946
0.351704
0.350522
0.349394
0.348319
0.347293
0.373825
0.371552
0.369395
0.367349
0.365407
0.363564
0.361811
0.360147
0.358563
0.357057
0.355623
0.354259
0.352958
0.35172
0.350539
0.349413
0.348339
0.347315
0.373826
0.371553
0.369397
0.367352
0.365413
0.363571
0.361823
0.360162
0.358585
0.357085
0.355659
0.354301
0.35301
0.351779
0.350607
0.349489
0.348424
0.347406
0.373826
0.371554
0.369399
0.36736
0.365429
0.363603
0.361876
0.360241
0.358692
0.357222
0.355826
0.354496
0.353231
0.352023
0.350871
0.349768
0.348718
0.347708
0.373828
0.371551
0.369412
0.367417
0.365556
0.36382
0.36219
0.360652
0.359191
0.357796
0.356459
0.355175
0.353939
0.35275
0.351605
0.350501
0.349443
0.348418
0.373823
0.371554
0.369605
0.367893
0.36634
0.364893
0.363496
0.362123
0.360763
0.359416
0.358083
0.356773
0.355492
0.354242
0.353034
0.351861
0.35074
0.349652
0.373788
0.371991
0.371113
0.370266
0.369361
0.368312
0.367049
0.365631
0.364122
0.362577
0.361032
0.359525
0.358076
0.356685
0.355385
0.354145
0.353013
0.351928
0.374355
0.375572
0.377776
0.377858
0.377288
0.375886
0.373836
0.371642
0.369506
0.367483
0.365664
0.364083
0.36271
0.361533
0.360607
0.359814
0.359284
0.358792
0.379125
0.394297
0.39825
0.396574
0.392539
0.387604
0.383646
0.380448
0.378266
0.376849
0.37649
0.376732
0.377404
0.378673
0.380415
0.382391
0.384784
0.387087
0.408394
0.42754
0.422415
0.411054
0.402225
0.397919
0.398619
0.400952
0.40605
0.413026
0.420956
0.429774
0.438761
0.448102
0.457191
0.466421
0.475157
0.483999
0.36605
0.353414
0.341989
0.330208
0.318984
0.30838
0.299412
0.291669
0.285403
0.28033
0.276677
0.273857
0.272298
0.271154
0.271183
0.271438
0.272152
0.273338
0.0123487
0.0352728
0.0526066
0.0678523
0.0815213
0.0938438
0.104961
0.114725
0.122987
0.12972
0.134881
0.139947
0.144858
0.148646
0.150412
0.149633
0.164071
0.173693
0.178296
0.176974
0.171819
0.150179
0.167498
0.181677
0.197269
0.213529
0.230587
0.248299
0.266635
0.285425
0.304625
0.32407
0.343731
0.363457
0.383235
0.402942
0.422587
0.442067
0.461409
0.480531
0.499473
0.518166
0.536663
0.554908
0.572954
0.590752
0.608353
0.625716
0.642886
0.659829
0.676586
0.693124
0.709478
0.725619
0.741575
0.757318
0.77287
0.78821
0.803349
0.818271
0.832981
0.84747
0.861731
0.875767
0.889558
0.90312
0.916421
0.929489
0.942281
0.954834
0.967098
0.979127
0.990863
1.00238
1.01362
1.02466
1.03544
1.04605
1.05643
1.06671
1.07678
1.08679
1.09665
1.10651
1.11626
1.12605
1.13577
1.14556
1.15527
1.16493
1.17426
1.18271
1.1892
1.18932
1.19802
1.21793
1.22043
1.23934
1.24193
1.26058
1.263
1.2824
1.2901
1.30136
1.31072
1.32126
1.32441
1.33433
1.33583
1.34695
1.34378
1.34975
1.36455
1.36136
1.36537
1.37654
1.37275
1.37915
1.37343
1.37503
1.37918
1.37394
1.37017
1.36342
1.35577
1.34661
1.33606
1.32414
1.3107
1.29576
1.27932
1.26146
1.2422
1.22165
1.19981
1.17656
1.15221
1.12686
1.10065
1.07378
1.04632
1.01829
0.990207
0.962386
0.93355
0.90829
0.889281
0.871309
0.853444
0.835627
0.817941
0.800424
0.783182
0.766141
0.749151
0.732371
0.716242
0.700525
0.685008
0.669811
0.655048
0.640818
0.627127
0.61392
0.601205
0.589
0.577297
0.566078
0.555343
0.545067
0.535241
0.525807
0.516796
0.507967
0.499729
0.4908
0.483629
0.472192
0.466907
0.437773
0.0275864
0.0636011
0.0878773
0.106327
0.121995
0.135911
0.148494
0.160051
0.17086
0.181264
0.191709
0.202467
0.213576
0.225286
0.238704
0.256204
0.275588
0.293658
0.310558
0.326998
0.343895
0.362281
0.386987
0.41384
0.44226
0.471849
0.502538
0.534253
0.566886
0.600305
0.634402
0.669046
0.704132
0.739532
0.775152
0.810889
0.84667
0.882414
0.918071
0.953581
0.988916
1.02403
1.05892
1.09356
1.12793
1.16204
1.19588
1.22943
1.26271
1.29571
1.32843
1.36087
1.39302
1.42487
1.45643
1.48769
1.51862
1.54923
1.57949
1.60939
1.63892
1.66805
1.69677
1.72505
1.75288
1.78023
1.80708
1.83342
1.85923
1.8845
1.90922
1.93333
1.95681
1.97967
2.00189
2.02349
2.04446
2.06482
2.08459
2.1038
2.12246
2.14063
2.15832
2.1756
2.1925
2.20908
2.22537
2.24143
2.2573
2.27304
2.28864
2.30405
2.31924
2.33436
2.35074
2.3673
2.38262
2.40014
2.41549
2.43319
2.44851
2.46665
2.48228
2.49904
2.51387
2.5295
2.54386
2.55855
2.57188
2.58628
2.59916
2.61332
2.62628
2.63695
2.64888
2.65963
2.6679
2.67623
2.68219
2.6844
2.69191
2.69159
2.6938
2.69116
2.68639
2.67912
2.66926
2.65678
2.64158
2.62326
2.60179
2.57717
2.54945
2.51868
2.48497
2.44842
2.40931
2.36788
2.32434
2.27897
2.23201
2.18368
2.13419
2.08416
2.03368
1.98268
1.93206
1.88158
1.83134
1.7816
1.73257
1.68443
1.63729
1.59094
1.54501
1.50017
1.45673
1.4148
1.37411
1.33456
1.29635
1.25965
1.22439
1.19046
1.15787
1.12666
1.09678
1.06819
1.04087
1.01477
0.989852
0.96605
0.943314
0.921516
0.900756
0.88042
0.861911
0.84121
0.826868
0.785763
0.0496436
0.0971545
0.126333
0.148306
0.167035
0.183964
0.199829
0.215145
0.230366
0.245935
0.262216
0.279434
0.297809
0.317642
0.339371
0.363237
0.388404
0.414212
0.440613
0.467906
0.496578
0.527237
0.560447
0.595606
0.632333
0.670402
0.709667
0.749981
0.791216
0.833255
0.875988
0.919292
0.963056
1.00716
1.05151
1.096
1.14055
1.18509
1.22958
1.27395
1.31817
1.36221
1.40605
1.44966
1.49303
1.53616
1.57903
1.62163
1.66397
1.70605
1.74784
1.78936
1.8306
1.87154
1.91219
1.95252
1.99253
2.03219
2.07151
2.11044
2.14898
2.1871
2.22476
2.26196
2.29864
2.3348
2.37039
2.40538
2.43975
2.47346
2.50649
2.53881
2.57038
2.60119
2.63122
2.66045
2.68888
2.7165
2.74331
2.76932
2.79454
2.81898
2.84268
2.86564
2.88791
2.90951
2.93048
2.95085
2.97066
2.98995
3.00875
3.02707
3.04492
3.06243
3.07977
3.09678
3.11352
3.13034
3.14639
3.163
3.17864
3.19498
3.21012
3.22556
3.24002
3.25511
3.26954
3.28408
3.29784
3.31163
3.32498
3.33812
3.3503
3.36199
3.37313
3.38315
3.39202
3.39972
3.40605
3.40936
3.41169
3.41125
3.4098
3.40519
3.39773
3.38719
3.37338
3.35612
3.33527
3.31063
3.28213
3.24976
3.21355
3.17358
3.12999
3.08297
3.03277
2.97965
2.9239
2.86582
2.80569
2.7438
2.68046
2.61626
2.55186
2.48743
2.42327
2.35939
2.29596
2.23323
2.17142
2.11073
2.05131
1.99317
1.93631
1.88093
1.8272
1.7752
1.72467
1.67528
1.62752
1.58156
1.53736
1.49465
1.45357
1.41418
1.3764
1.34019
1.30555
1.27242
1.24076
1.21049
1.18158
1.15392
1.12755
1.10215
1.0785
1.05448
1.03691
1.00389
0.0745596
0.132182
0.166571
0.192495
0.214621
0.234747
0.253837
0.272545
0.291391
0.310809
0.331149
0.352686
0.375634
0.400164
0.426415
0.454409
0.483945
0.514828
0.547027
0.580669
0.615977
0.653161
0.692254
0.733085
0.775465
0.819224
0.864209
0.910291
0.957362
1.0053
1.05401
1.10335
1.15321
1.20349
1.25409
1.30491
1.35588
1.40692
1.458
1.50904
1.56002
1.6109
1.66164
1.71223
1.76265
1.81287
1.86289
1.91271
1.96229
2.01166
2.06078
2.10966
2.1583
2.20667
2.25476
2.30258
2.35009
2.39728
2.44414
2.49063
2.53673
2.58242
2.62766
2.67242
2.71666
2.76034
2.80342
2.84587
2.88763
2.92867
2.96894
3.0084
3.04702
3.08475
3.12156
3.15742
3.19229
3.22616
3.25901
3.29083
3.3216
3.35132
3.38001
3.40766
3.43428
3.45991
3.48455
3.50824
3.53099
3.55286
3.57386
3.59402
3.61339
3.63204
3.65004
3.66743
3.68428
3.70062
3.71635
3.73181
3.74664
3.76125
3.77517
3.78884
3.80196
3.81504
3.82763
3.83993
3.85168
3.86313
3.87418
3.88474
3.89457
3.90379
3.9122
3.91963
3.92587
3.93071
3.93329
3.93378
3.93303
3.9301
3.92493
3.91683
3.90563
3.89107
3.87293
3.85097
3.82502
3.7949
3.76054
3.72189
3.67899
3.63192
3.58082
3.52591
3.46743
3.40568
3.34095
3.27355
3.20387
3.13233
3.05942
2.9857
2.91175
2.83784
2.76424
2.69108
2.61856
2.54693
2.47642
2.40723
2.3395
2.27334
2.20883
2.14607
2.08515
2.02616
1.96902
1.91362
1.86008
1.8085
1.75883
1.71057
1.66408
1.61947
1.57659
1.53541
1.49597
1.4582
1.42205
1.38747
1.35442
1.32284
1.29273
1.26397
1.23699
1.21077
1.19002
1.16038
0.100515
0.166977
0.206967
0.237097
0.262728
0.285985
0.308014
0.329568
0.351221
0.37344
0.396613
0.421047
0.446968
0.474525
0.503809
0.534847
0.567605
0.602036
0.638137
0.675951
0.715547
0.756954
0.800143
0.845021
0.89147
0.939362
0.988575
1.03899
1.09049
1.14297
1.19629
1.25035
1.30505
1.36026
1.41592
1.47193
1.52821
1.58471
1.64135
1.69809
1.75489
1.81168
1.86846
1.92517
1.98181
2.03834
2.09475
2.15103
2.20716
2.26312
2.31891
2.37453
2.42994
2.48516
2.54015
2.59491
2.64942
2.70366
2.7576
2.81121
2.86448
2.91736
2.96981
3.0218
3.07327
3.12419
3.1745
3.22415
3.27308
3.32123
3.36856
3.41499
3.46047
3.50496
3.54838
3.59069
3.63184
3.67179
3.7105
3.74792
3.78404
3.81883
3.85227
3.88436
3.91509
3.94447
3.9725
3.99919
4.02457
4.04868
4.07154
4.09319
4.11368
4.13306
4.15142
4.1688
4.18527
4.20086
4.2156
4.2296
4.24283
4.25539
4.2672
4.2784
4.28898
4.29911
4.30864
4.31759
4.32593
4.33378
4.34113
4.34793
4.35392
4.35904
4.36329
4.36671
4.36837
4.36841
4.36702
4.36398
4.35916
4.35217
4.3427
4.33036
4.31485
4.2959
4.27323
4.24661
4.21582
4.18068
4.14108
4.09697
4.04836
3.99532
3.938
3.8766
3.81137
3.74259
3.6706
3.59581
3.51868
3.43972
3.35944
3.27839
3.19706
3.11581
3.03491
2.95458
2.87504
2.79654
2.7193
2.64354
2.56941
2.49705
2.42655
2.35802
2.29152
2.22711
2.16477
2.10444
2.04618
1.99
1.93591
1.8837
1.83344
1.78517
1.73865
1.69384
1.65088
1.60966
1.57015
1.53233
1.49614
1.46157
1.42862
1.39727
1.36779
1.33979
1.31631
1.2861
0.126068
0.200566
0.246045
0.280362
0.309436
0.335678
0.360384
0.3844
0.408356
0.432758
0.458026
0.484496
0.512428
0.542003
0.573339
0.6065
0.641511
0.678377
0.717102
0.757693
0.800155
0.844468
0.890585
0.938429
0.987906
1.03891
1.09133
1.14506
1.19999
1.256
1.31299
1.37085
1.42948
1.48879
1.54869
1.6091
1.66995
1.73116
1.79267
1.85442
1.91637
1.97846
2.04066
2.10292
2.16522
2.22753
2.28982
2.35209
2.4143
2.47644
2.5385
2.60046
2.66232
2.72405
2.78565
2.84708
2.90835
2.96941
3.03024
3.09082
3.1511
3.21106
3.27063
3.32979
3.38846
3.44661
3.50415
3.56103
3.61717
3.67251
3.72696
3.78046
3.83292
3.88427
3.93443
3.98333
4.03089
4.07705
4.12174
4.16491
4.2065
4.24646
4.28477
4.32139
4.3563
4.38949
4.42095
4.45069
4.47871
4.50505
4.52974
4.55281
4.57432
4.59431
4.61286
4.63004
4.6459
4.66048
4.67386
4.6861
4.69724
4.70733
4.71639
4.7245
4.73174
4.73819
4.7438
4.74852
4.7524
4.75561
4.75818
4.76016
4.7612
4.76094
4.75945
4.75723
4.75361
4.74867
4.74224
4.73418
4.72427
4.71222
4.69772
4.68044
4.66006
4.63628
4.60883
4.57742
4.54182
4.50185
4.45735
4.40826
4.35455
4.29628
4.23358
4.16662
4.09567
4.02104
3.94313
3.86241
3.77938
3.69455
3.60846
3.52161
3.43447
3.34743
3.26077
3.17477
3.08966
3.0057
2.92313
2.84214
2.76292
2.6856
2.61029
2.53711
2.46609
2.39731
2.33074
2.26638
2.20423
2.14429
2.08654
2.0309
1.97736
1.92593
1.8765
1.82901
1.78346
1.73963
1.69754
1.6572
1.61857
1.58163
1.54643
1.513
1.48153
1.45195
1.4262
1.39569
0.150423
0.231936
0.282526
0.320818
0.353163
0.382206
0.409367
0.435569
0.461491
0.487676
0.514572
0.54255
0.571907
0.602866
0.635589
0.67018
0.706701
0.745185
0.785644
0.828073
0.872458
0.918761
0.966931
1.0169
1.06857
1.12186
1.17667
1.23289
1.29044
1.34919
1.40907
1.46997
1.53179
1.59446
1.65789
1.722
1.78672
1.85197
1.91769
1.98382
2.0503
2.11708
2.18413
2.25139
2.31882
2.38641
2.45411
2.5219
2.58977
2.65769
2.72565
2.79362
2.8616
2.92957
2.9975
3.06538
3.13319
3.2009
3.26849
3.3359
3.40312
3.47009
3.53676
3.60308
3.66898
3.73439
3.79924
3.86346
3.92694
3.98961
4.05138
4.11214
4.17179
4.23024
4.28738
4.34312
4.39736
4.45001
4.50096
4.55015
4.5975
4.64292
4.68637
4.7278
4.76715
4.8044
4.83953
4.87252
4.90338
4.93213
4.9588
4.98341
5.00601
5.02666
5.04542
5.06236
5.07753
5.09101
5.10285
5.11313
5.1219
5.12923
5.13513
5.13968
5.14301
5.1453
5.14641
5.1462
5.14474
5.14247
5.13929
5.13517
5.12996
5.12354
5.11603
5.10744
5.09759
5.08642
5.07382
5.05963
5.04366
5.02563
5.0053
4.98233
4.95644
4.92732
4.89468
4.85822
4.81771
4.7729
4.72365
4.66984
4.61142
4.54842
4.48095
4.40918
4.33341
4.25398
4.17132
4.08591
3.99823
3.90883
3.81819
3.72683
3.63518
3.54362
3.45249
3.36206
3.2726
3.18437
3.09761
3.01251
2.92925
2.84799
2.76886
2.69193
2.61729
2.54497
2.47498
2.40732
2.34198
2.27896
2.21821
2.1597
2.10339
2.04928
1.99731
1.94744
1.89961
1.8537
1.80966
1.76742
1.72687
1.68808
1.65109
1.61597
1.58287
1.55187
1.5242
1.49321
0.17291
0.260326
0.315468
0.357373
0.392726
0.424354
0.453769
0.481954
0.509623
0.537348
0.565605
0.594789
0.625231
0.657192
0.690872
0.726412
0.763908
0.803414
0.844957
0.888536
0.934134
0.981711
1.03122
1.08258
1.13574
1.19059
1.24706
1.30505
1.36448
1.42526
1.4873
1.55051
1.61481
1.68012
1.74636
1.81346
1.88134
1.94994
2.01919
2.08903
2.1594
2.23025
2.30152
2.37318
2.44519
2.5175
2.59008
2.66291
2.73596
2.80921
2.88264
2.95624
3.02998
3.10384
3.17781
3.25186
3.32598
3.40012
3.47427
3.54838
3.62241
3.69631
3.77001
3.84347
3.91659
3.98932
4.06155
4.13319
4.20415
4.27431
4.34357
4.41179
4.47887
4.54468
4.60909
4.67198
4.73321
4.79268
4.85025
4.90582
4.95928
5.01054
5.0595
5.1061
5.15026
5.19193
5.23107
5.26766
5.30168
5.33315
5.36207
5.38847
5.41239
5.43387
5.453
5.46981
5.48439
5.4968
5.50711
5.51538
5.52167
5.52614
5.52868
5.52939
5.5284
5.52595
5.52194
5.51636
5.50934
5.50103
5.49145
5.48063
5.46854
5.45518
5.44058
5.42477
5.40768
5.38927
5.36945
5.34811
5.32508
5.30015
5.27309
5.24363
5.2115
5.1764
5.13804
5.09612
5.05039
5.0006
4.94655
4.88811
4.82521
4.75786
4.68615
4.61029
4.53055
4.44729
4.36092
4.27191
4.18074
4.08791
3.99391
3.8992
3.80422
3.70934
3.61489
3.52119
3.42851
3.3371
3.2472
3.15901
3.07271
2.98845
2.90637
2.82657
2.7491
2.67402
2.60133
2.53105
2.46316
2.39765
2.33449
2.27365
2.21507
2.15876
2.10467
2.05276
2.00298
1.95523
1.90947
1.86562
1.82362
1.78342
1.74503
1.70854
1.6741
1.64185
1.61254
1.58093
0.192992
0.285185
0.344223
0.389293
0.42733
0.461293
0.492763
0.522761
0.552028
0.581152
0.610622
0.640855
0.672201
0.704947
0.739323
0.775499
0.813599
0.853701
0.895846
0.940048
0.986294
1.03456
1.08478
1.13693
1.19091
1.24667
1.30413
1.36321
1.42383
1.48593
1.54941
1.61422
1.68027
1.74749
1.81581
1.88517
1.95549
2.02672
2.09878
2.17162
2.24518
2.31941
2.39425
2.46966
2.54559
2.62202
2.69889
2.77619
2.85389
2.93195
3.01037
3.08912
3.16819
3.24755
3.32718
3.40706
3.48717
3.56748
3.64794
3.72853
3.80918
3.88986
3.97048
4.05099
4.1313
4.21131
4.29094
4.37007
4.44858
4.52635
4.60325
4.67913
4.75385
4.82726
4.8992
4.96953
5.03808
5.1047
5.16925
5.23158
5.29155
5.34903
5.40392
5.4561
5.50548
5.55199
5.59556
5.63615
5.67372
5.70826
5.73979
5.76832
5.79387
5.81648
5.83622
5.85315
5.86734
5.87885
5.88776
5.89414
5.89797
5.8994
5.8985
5.89536
5.89009
5.88279
5.8735
5.86228
5.84922
5.83445
5.81802
5.80001
5.78046
5.75943
5.73696
5.71312
5.6879
5.66131
5.6333
5.60382
5.57274
5.53994
5.50523
5.46839
5.42917
5.38733
5.34257
5.29464
5.24325
5.18815
5.12913
5.06604
4.9988
4.92742
4.85198
4.77267
4.68974
4.60352
4.5144
4.42281
4.3292
4.23405
4.13779
4.04088
3.94371
3.84666
3.75004
3.65418
3.55937
3.46586
3.37386
3.28358
3.19518
3.10885
3.0247
2.94284
2.86334
2.78625
2.71157
2.63933
2.56951
2.50211
2.4371
2.37445
2.31411
2.25605
2.20026
2.1467
2.09532
2.04604
1.99882
1.95359
1.9103
1.86894
1.8295
1.79195
1.75641
1.72306
1.69236
1.66008
0.21029
0.306177
0.36842
0.416161
0.456516
0.492538
0.525852
0.557503
0.588244
0.618668
0.649271
0.680473
0.712633
0.746052
0.780975
0.817594
0.856052
0.896446
0.938838
0.983255
1.0297
1.07815
1.12858
1.18094
1.23518
1.29124
1.34906
1.40858
1.46974
1.53246
1.5967
1.66239
1.72947
1.79787
1.86753
1.9384
2.01042
2.08352
2.15765
2.23275
2.30876
2.38564
2.46333
2.54179
2.62098
2.70085
2.78137
2.86251
2.94425
3.02656
3.10941
3.19279
3.27669
3.36107
3.44592
3.53122
3.61694
3.70305
3.78951
3.87628
3.9633
4.05053
4.13788
4.22528
4.31264
4.39986
4.48683
4.57342
4.6595
4.74493
4.82956
4.91321
4.99573
5.07692
5.15662
5.23463
5.31078
5.38487
5.45671
5.52615
5.593
5.6571
5.71831
5.77648
5.8315
5.88327
5.93168
5.97668
6.01821
6.05625
6.09078
6.12181
6.14935
6.17344
6.19412
6.21147
6.22554
6.23642
6.24418
6.24872
6.2503
6.24896
6.2448
6.23789
6.22831
6.21618
6.20157
6.18456
6.16525
6.14376
6.12018
6.09461
6.06716
6.0379
6.00694
5.97437
5.94025
5.90463
5.86754
5.82897
5.78889
5.74723
5.70389
5.6587
5.61148
5.56203
5.51011
5.45548
5.39786
5.33702
5.27276
5.20493
5.13346
5.05831
4.97956
4.89736
4.81192
4.72354
4.63255
4.53934
4.44432
4.34789
4.25048
4.15249
4.05427
3.95618
3.85851
3.76162
3.66578
3.57124
3.47819
3.38682
3.29731
3.20981
3.12448
3.04142
2.9607
2.88235
2.8064
2.73286
2.66176
2.59306
2.52676
2.46283
2.40121
2.34189
2.28483
2.23002
2.17741
2.12693
2.07854
2.03219
1.98785
1.9455
1.90515
1.86679
1.83038
1.7961
1.76423
1.73133
0.22457
0.323155
0.387916
0.437824
0.480108
0.517888
0.552816
0.585946
0.618033
0.649667
0.681337
0.713457
0.746383
0.780415
0.815804
0.852749
0.891406
0.931887
0.974268
1.01859
1.06488
1.11312
1.16331
1.21541
1.26939
1.32521
1.38282
1.44218
1.50324
1.56595
1.63028
1.69617
1.76357
1.83243
1.90271
1.97435
2.04731
2.12154
2.19698
2.27359
2.35131
2.4301
2.50991
2.5907
2.67243
2.75506
2.83855
2.92288
3.00802
3.09395
3.18063
3.26807
3.35623
3.44511
3.53468
3.62492
3.7158
3.80729
3.89935
3.99193
4.08499
4.17845
4.27225
4.3663
4.4605
4.55474
4.64891
4.74285
4.83643
4.92948
5.02182
5.11328
5.20366
5.29274
5.38033
5.4662
5.55014
5.63192
5.71132
5.78815
5.86218
5.93322
6.00109
6.06562
6.12665
6.18406
6.23771
6.28751
6.3334
6.37532
6.41324
6.44714
6.47704
6.50296
6.52494
6.54304
6.55732
6.56786
6.57465
6.57777
6.5774
6.57356
6.56634
6.55581
6.54207
6.52522
6.50535
6.48255
6.45694
6.42862
6.39772
6.36436
6.32867
6.29078
6.25084
6.20896
6.16528
6.11989
6.07291
6.02439
5.97439
5.92292
5.86997
5.81545
5.75928
5.7013
5.64135
5.57929
5.51482
5.44776
5.37794
5.30523
5.22953
5.1508
5.06908
4.98446
4.89713
4.8073
4.71526
4.62134
4.52588
4.42923
4.33176
4.2338
4.13568
4.03769
3.9401
3.8433
3.74757
3.65309
3.56006
3.46864
3.37899
3.29128
3.20568
3.12229
3.04116
2.96234
2.88586
2.81174
2.73999
2.67062
2.60361
2.53894
2.47656
2.41644
2.35858
2.30294
2.24947
2.19815
2.14891
2.10174
2.0566
2.01348
1.97239
1.93335
1.89628
1.86122
1.8284
1.79497
0.235737
0.336132
0.402761
0.454337
0.498151
0.537366
0.573651
0.60806
0.641342
0.674076
0.706736
0.73972
0.773369
0.807973
0.843777
0.880977
0.919732
0.960162
1.00235
1.04636
1.09222
1.13995
1.18954
1.24099
1.29428
1.34938
1.40628
1.46495
1.52536
1.58749
1.65129
1.71676
1.78383
1.85249
1.92269
1.99441
2.0676
2.14224
2.21827
2.29566
2.37437
2.45436
2.53557
2.61798
2.70156
2.78625
2.87204
2.9589
3.04679
3.13569
3.22558
3.31646
3.40831
3.50112
3.59486
3.68951
3.78504
3.88142
3.97861
4.07657
4.17524
4.27455
4.37442
4.47478
4.5755
4.67648
4.77758
4.87866
4.97954
5.08005
5.18
5.27918
5.37736
5.47432
5.56982
5.6636
5.75541
5.845
5.93212
6.0165
6.09792
6.17614
6.25092
6.32208
6.38941
6.45275
6.51196
6.56689
6.61747
6.6636
6.70525
6.74237
6.77497
6.80305
6.82665
6.84582
6.86061
6.87108
6.87728
6.87932
6.87728
6.87121
6.86118
6.84727
6.82957
6.80817
6.78318
6.75468
6.7228
6.68764
6.64936
6.60808
6.56397
6.51718
6.46788
6.41626
6.36248
6.30671
6.24913
6.18989
6.12913
6.06696
6.00346
5.93866
5.87259
5.80517
5.73629
5.66578
5.59331
5.51907
5.44296
5.36487
5.28471
5.20241
5.11795
5.03138
4.9428
4.85234
4.76022
4.66666
4.57192
4.47629
4.38004
4.28346
4.18679
4.09028
3.99407
3.89862
3.80416
3.71088
3.61895
3.52854
3.43977
3.35281
3.26788
3.18505
3.10438
3.02591
2.94966
2.87566
2.80397
2.73457
2.66745
2.6026
2.53999
2.47958
2.42137
2.36533
2.31143
2.25964
2.20991
2.16222
2.11656
2.07292
2.03131
1.99174
1.95414
1.91849
1.88491
1.85109
0.243795
0.345224
0.41312
0.465887
0.510836
0.551154
0.588518
0.623979
0.658275
0.691966
0.725507
0.759274
0.793588
0.828718
0.864893
0.902299
0.94109
0.981383
1.02327
1.06682
1.11207
1.15906
1.2078
1.25831
1.31058
1.36462
1.42041
1.47796
1.53725
1.59829
1.66108
1.72561
1.7918
1.85965
1.92917
2.00034
2.07314
2.14754
2.22352
2.30105
2.38008
2.4606
2.54257
2.62595
2.71071
2.79683
2.88428
2.97302
3.06304
3.1543
3.24676
3.34046
3.43541
3.53156
3.6289
3.7274
3.82703
3.92775
4.02954
4.13235
4.23612
4.34079
4.44628
4.55249
4.65931
4.76662
4.87427
4.98212
5.08998
5.19765
5.30494
5.41159
5.51738
5.62205
5.72531
5.8269
5.92653
6.0239
6.11872
6.21071
6.29957
6.38505
6.46687
6.5448
6.6186
6.68807
6.75303
6.81331
6.86881
6.9194
6.96503
7.00563
7.04118
7.07169
7.09718
7.11769
7.13326
7.14396
7.14986
7.15104
7.14765
7.13961
7.12703
7.10998
7.08854
7.0628
7.03285
6.99879
6.96072
6.91879
6.87311
6.82386
6.7712
6.71532
6.65642
6.59471
6.5304
6.46375
6.39498
6.32434
6.25206
6.1784
6.10347
6.02741
5.94984
5.87137
5.79213
5.71213
5.632
5.55106
5.46918
5.38624
5.30213
5.21676
5.13007
5.04203
4.95269
4.86211
4.77042
4.67778
4.58436
4.49038
4.39602
4.30151
4.20704
4.11278
4.01872
3.92584
3.83398
3.74322
3.6537
3.56553
3.47884
3.39374
3.31045
3.22913
3.1498
3.07251
2.99729
2.92417
2.85323
2.78447
2.71789
2.65346
2.59116
2.53098
2.47291
2.41694
2.36303
2.31116
2.2613
2.21344
2.16757
2.12368
2.08178
2.04188
2.0039
1.96782
1.9337
1.89966
0.248829
0.350633
0.419251
0.472761
0.518462
0.55955
0.597703
0.633966
0.669062
0.703533
0.73781
0.772248
0.807143
0.84274
0.879242
0.916819
0.95561
0.995727
1.03726
1.08028
1.12483
1.17097
1.21873
1.26812
1.31918
1.37192
1.42638
1.4825
1.54033
1.59991
1.66128
1.72449
1.78942
1.85611
1.92454
1.99473
2.06667
2.14036
2.21577
2.29289
2.3717
2.45218
2.5343
2.61805
2.7034
2.79032
2.8788
2.96881
3.06033
3.15334
3.24779
3.34378
3.44126
3.54019
3.64055
3.74231
3.84544
3.94989
4.05567
4.16274
4.27103
4.38046
4.49097
4.60244
4.71479
4.82787
4.94154
5.05563
5.16996
5.28431
5.39847
5.51218
5.62518
5.73719
5.84789
5.957
6.06417
6.16909
6.27143
6.37086
6.46706
6.5597
6.6485
6.73317
6.81344
6.88906
6.95983
7.02555
7.08605
7.14122
7.19095
7.23516
7.27383
7.30693
7.33447
7.35648
7.37302
7.38414
7.3899
7.39044
7.38594
7.37616
7.36125
7.34126
7.31627
7.28635
7.25159
7.21208
7.16792
7.11925
7.06619
7.00893
6.94764
6.88252
6.8138
6.74173
6.66655
6.58858
6.50815
6.42555
6.34095
6.25441
6.16657
6.07781
5.98924
5.90061
5.81198
5.72379
5.63517
5.54657
5.45807
5.36961
5.28111
5.19245
5.10353
5.01428
4.92464
4.8346
4.74418
4.65343
4.56243
4.47128
4.38008
4.28895
4.19801
4.10735
4.01688
3.9273
3.83865
3.75103
3.66454
3.57928
3.49534
3.41282
3.33225
3.25349
3.17653
3.10139
3.02811
2.95668
2.88724
2.81982
2.75442
2.69103
2.62963
2.57022
2.5128
2.45737
2.4039
2.35238
2.30278
2.2551
2.20933
2.16549
2.12356
2.08355
2.04537
2.00907
1.97463
1.94058
0.251036
0.352606
0.421459
0.475307
0.521404
0.562938
0.601591
0.638397
0.674067
0.709116
0.743935
0.778902
0.814281
0.85028
0.887075
0.924809
0.963603
1.00356
1.04475
1.08726
1.13114
1.17644
1.22323
1.27148
1.32126
1.37262
1.42567
1.48034
1.53668
1.59472
1.65448
1.71596
1.77921
1.84428
1.9112
1.98
2.05068
2.12325
2.19771
2.27405
2.35228
2.43237
2.51431
2.59808
2.68367
2.77105
2.86021
2.95113
3.04379
3.13816
3.23422
3.33195
3.43135
3.53242
3.63515
3.73952
3.84549
3.95304
4.06217
4.17281
4.28491
4.39837
4.51314
4.62915
4.74626
4.86435
4.98328
5.10287
5.22293
5.34326
5.4636
5.58369
5.70325
5.82198
5.93955
6.05562
6.16983
6.28183
6.39124
6.49771
6.60087
6.70037
6.79586
6.88701
6.97353
7.05513
7.13156
7.20258
7.26801
7.32768
7.38147
7.42928
7.47104
7.50673
7.53634
7.5599
7.57743
7.58901
7.59468
7.59469
7.58919
7.5778
7.56067
7.53785
7.50941
7.47538
7.43588
7.39096
7.34073
7.28532
7.22486
7.15952
7.08951
7.01503
6.93634
6.85369
6.76736
6.67735
6.58426
6.4886
6.39104
6.29251
6.19302
6.09292
5.99317
5.8931
5.79353
5.69484
5.59707
5.50044
5.40509
5.31101
5.21815
5.12637
5.03554
4.94552
4.85616
4.76736
4.67902
4.59109
4.50351
4.41627
4.32936
4.24279
4.15658
4.07077
3.98537
3.90062
3.81665
3.73356
3.65143
3.57035
3.49039
3.41155
3.33431
3.25865
3.1846
3.11217
3.0414
2.97232
2.90518
2.8399
2.77643
2.71478
2.65493
2.59685
2.54061
2.48622
2.43366
2.38292
2.33398
2.28685
2.24153
2.19803
2.15635
2.11646
2.07834
2.04206
2.00755
1.97369
0.250675
0.35167
0.420296
0.474055
0.520152
0.561765
0.600577
0.637624
0.673606
0.709026
0.744269
0.779705
0.815533
0.85193
0.88904
0.926983
0.965856
1.00574
1.04671
1.08882
1.13215
1.17676
1.22273
1.27002
1.3187
1.3688
1.42035
1.4734
1.52805
1.58439
1.64249
1.70236
1.76406
1.82762
1.89311
1.96054
2.02995
2.10135
2.17477
2.25022
2.32771
2.40722
2.48877
2.57233
2.65789
2.74543
2.83494
2.92641
3.0198
3.1151
3.21229
3.31136
3.4123
3.5151
3.61976
3.72625
3.83453
3.94455
4.05629
4.16973
4.28482
4.40148
4.51969
4.63933
4.76029
4.88247
5.00573
5.12989
5.25476
5.38013
5.50575
5.63136
5.75664
5.88127
6.00492
6.1272
6.24775
6.36616
6.48203
6.59496
6.70455
6.8104
6.91212
7.00935
7.10174
7.18898
7.27075
7.34681
7.4169
7.48085
7.53849
7.5897
7.63438
7.67248
7.704
7.72893
7.74731
7.75917
7.76458
7.76398
7.75739
7.74429
7.72483
7.69905
7.66698
7.62869
7.58424
7.5337
7.47718
7.41477
7.34662
7.27288
7.19363
7.10907
7.01953
6.92536
6.827
6.7253
6.62038
6.51284
6.40358
6.29217
6.17962
6.06658
5.95376
5.84156
5.73057
5.62131
5.51412
5.40929
5.30703
5.20741
5.11038
5.01583
4.92358
4.8334
4.74507
4.65836
4.57307
4.489
4.40598
4.32384
4.24246
4.16171
4.08153
4.00185
3.92265
3.844
3.76599
3.68867
3.61212
3.5364
3.46159
3.38777
3.31513
3.24376
3.17371
3.10502
3.03772
2.97178
2.90748
2.8448
2.78374
2.7243
2.66648
2.61028
2.55581
2.50302
2.45189
2.40242
2.35459
2.30839
2.26387
2.22104
2.17987
2.1404
2.10264
2.06664
2.03229
1.99885
0.248336
0.348158
0.416091
0.469379
0.515167
0.556618
0.595408
0.632568
0.668784
0.704537
0.740177
0.775987
0.812197
0.848971
0.886439
0.924699
0.963832
1.0039
1.04496
1.08705
1.13023
1.17454
1.22002
1.26673
1.31471
1.36406
1.4148
1.46701
1.52076
1.57614
1.63321
1.69203
1.75269
1.81523
1.87973
1.94622
2.01475
2.08534
2.15798
2.23279
2.30975
2.38888
2.47015
2.55356
2.6391
2.72675
2.81648
2.90829
3.00215
3.09802
3.19591
3.29577
3.39761
3.5014
3.60714
3.71479
3.82433
3.93573
4.04896
4.16401
4.28083
4.39938
4.51956
4.64134
4.76461
4.88928
5.01523
5.1423
5.27031
5.39905
5.52828
5.65774
5.7871
5.91605
6.0442
6.17119
6.2966
6.42
6.54097
6.65906
6.77383
6.88485
6.99169
7.09395
7.19123
7.28318
7.36945
7.44974
7.52377
7.59132
7.65219
7.70621
7.75328
7.79331
7.82627
7.85216
7.87097
7.88275
7.88752
7.88614
7.87824
7.86323
7.84125
7.81232
7.77647
7.73374
7.68413
7.62773
7.5646
7.49486
7.41862
7.33611
7.24767
7.15354
7.05396
6.94937
6.84043
6.72694
6.60969
6.48938
6.36668
6.24211
6.11645
5.99051
5.86511
5.74098
5.61886
5.49941
5.38317
5.27058
5.16192
5.05733
4.95681
4.86022
4.76735
4.67789
4.59153
4.50792
4.42674
4.34764
4.2703
4.19443
4.11975
4.04601
3.97303
3.90066
3.82879
3.75739
3.68648
3.61608
3.54622
3.47695
3.40834
3.34045
3.27342
3.20732
3.14223
3.07819
3.01525
2.95345
2.89292