/*--------------------------------*- C++ -*----------------------------------*\
  =========                 |
  \\      /  F ield         | OpenFOAM: The Open Source CFD Toolbox
   \\    /   O peration     | Website:  https://openfoam.org
    \\  /    A nd           | Version:  8
     \\/     M anipulation  |
\*---------------------------------------------------------------------------*/
FoamFile
{
    version     2.0;
    format      ascii;
    class       volScalarField;
    location    "100";
    object      nut;
}
// * * * * * * * * * * * * * * * * * * * * * * * * * * * * * * * * * * * * * //

dimensions      [0 2 -1 0 0 0 0];

internalField   nonuniform List<scalar> 
12225
(
4.14924e-05
3.93417e-05
3.74815e-05
3.54351e-05
3.37808e-05
3.24256e-05
3.15037e-05
3.09147e-05
3.09201e-05
3.10965e-05
3.15799e-05
3.21041e-05
3.31743e-05
3.38524e-05
3.50785e-05
3.60652e-05
3.66878e-05
3.97247e-05
0.000332259
0.000215134
0.000179291
0.000157641
0.000146234
0.000138164
0.000132678
0.000131734
0.000129404
0.000130171
0.000128933
0.000129562
0.000128546
0.000128692
0.000127949
0.000127768
0.000127495
0.000126529
0.000668776
0.000450541
0.000355823
0.000309746
0.000275337
0.000251005
0.000231732
0.000217178
0.000202608
0.000192049
0.000182523
0.000175034
0.000169285
0.000163356
0.000160196
0.000155024
0.000153626
0.000148955
0.000801645
0.000691571
0.000572672
0.000499945
0.000449456
0.000411864
0.000380813
0.000355866
0.000333989
0.000314578
0.000298292
0.000281312
0.000270191
0.000255574
0.000247851
0.000235414
0.000229737
0.00021905
0.000839616
0.000810134
0.000740802
0.000676305
0.000624005
0.000581266
0.000545907
0.000514407
0.000489506
0.00046421
0.000445773
0.000423728
0.000409685
0.000390309
0.000379324
0.000362238
0.000353745
0.000337712
0.000850345
0.000843264
0.000819563
0.000786476
0.000750836
0.000715796
0.000685784
0.000656007
0.000632524
0.000607332
0.000588884
0.00056696
0.000552002
0.000532637
0.000520228
0.000502848
0.000492638
0.000475817
0.000851581
0.000851014
0.000843301
0.000833456
0.000817146
0.000796902
0.000777882
0.000756654
0.000738871
0.000719017
0.000703427
0.000685405
0.000671881
0.000655544
0.000643851
0.00062879
0.000619005
0.000603814
0.000851584
0.000851811
0.000850043
0.000847451
0.000841408
0.000833746
0.000824806
0.000813396
0.000802789
0.000790396
0.000779636
0.000767396
0.000757253
0.000745514
0.00073622
0.000724983
0.000716891
0.000705058
0.000851675
0.000851527
0.000851019
0.000850338
0.000848877
0.000846165
0.000843025
0.000838285
0.000833387
0.000827323
0.000821164
0.00081469
0.000808323
0.000801345
0.000795089
0.000788029
0.000782168
0.000774393
0.000851756
0.000851384
0.000851045
0.000850631
0.000850248
0.000849364
0.000848404
0.000846772
0.000844946
0.000842512
0.000839897
0.000836757
0.000833738
0.000830067
0.000826861
0.000822765
0.000819728
0.000815009
0.000851785
0.000851357
0.000851013
0.000850613
0.00085033
0.000849903
0.000849525
0.000848925
0.000848298
0.000847384
0.000846453
0.000845156
0.000843962
0.000842311
0.000840943
0.000838958
0.000837553
0.000835241
0.000851789
0.000851359
0.000850996
0.000850605
0.000850292
0.000849938
0.000849645
0.000849278
0.000848952
0.000848499
0.000848091
0.000847496
0.000846983
0.000846223
0.000845616
0.000844687
0.000844019
0.000842925
0.000851786
0.000851363
0.000850986
0.000850604
0.000850269
0.000849926
0.000849629
0.000849312
0.00084904
0.000848725
0.000848458
0.00084812
0.000847836
0.000847455
0.000847145
0.000846711
0.000846372
0.000845884
0.000851783
0.000851364
0.000850978
0.000850602
0.000850256
0.000849917
0.000849607
0.000849299
0.000849021
0.000848739
0.000848486
0.000848221
0.000847985
0.000847731
0.000847504
0.000847253
0.00084703
0.00084678
0.000851781
0.000851364
0.000850973
0.000850598
0.000850247
0.000849909
0.000849592
0.000849287
0.000849
0.000848723
0.000848463
0.000848211
0.000847975
0.000847744
0.000847528
0.000847317
0.000847118
0.000846923
0.00085178
0.000851363
0.000850969
0.000850594
0.000850239
0.000849901
0.000849581
0.000849275
0.000848985
0.000848708
0.000848445
0.000848193
0.000847953
0.000847724
0.000847506
0.000847297
0.000847099
0.000846909
0.000851779
0.000851363
0.000850967
0.000850591
0.000850234
0.000849895
0.000849573
0.000849266
0.000848974
0.000848696
0.000848431
0.000848178
0.000847936
0.000847706
0.000847486
0.000847276
0.000847075
0.000846883
0.000851779
0.000851362
0.000850965
0.000850589
0.000850231
0.000849891
0.000849568
0.00084926
0.000848967
0.000848687
0.000848421
0.000848167
0.000847924
0.000847692
0.000847471
0.000847259
0.000847057
0.000846864
0.000851779
0.000851362
0.000850965
0.000850588
0.00085023
0.00084989
0.000849566
0.000849257
0.000848963
0.000848683
0.000848416
0.000848161
0.000847918
0.000847685
0.000847463
0.00084725
0.000847047
0.000846852
0.000851779
0.000851362
0.000850966
0.000850589
0.000850232
0.000849892
0.000849568
0.00084926
0.000848967
0.000848687
0.00084842
0.000848165
0.000847921
0.000847688
0.000847465
0.000847252
0.000847048
0.000846853
0.000851779
0.000851363
0.000850967
0.000850592
0.000850235
0.000849897
0.000849574
0.000849268
0.000848974
0.000848696
0.000848426
0.000848172
0.000847923
0.000847688
0.000847456
0.000847237
0.00084702
0.000846815
0.000851778
0.000851366
0.000850968
0.000850599
0.00085024
0.000849908
0.000849581
0.000849275
0.000848966
0.000848673
0.000848367
0.000848075
0.00084776
0.000847461
0.000847129
0.000846819
0.000846466
0.000846146
0.000851773
0.000851376
0.000850971
0.000850615
0.000850241
0.00084989
0.000849479
0.000849055
0.000848531
0.000847981
0.000847305
0.000846609
0.000845773
0.000844947
0.000843965
0.000843042
0.000841934
0.000840959
0.000851768
0.000851415
0.000850964
0.000850548
0.000849861
0.000848967
0.000847612
0.000845978
0.000843909
0.000841642
0.000838963
0.000836225
0.000833131
0.000830132
0.000826787
0.000823709
0.00082022
0.000817222
0.000851859
0.000851379
0.000850196
0.000848243
0.000844471
0.000839356
0.000832769
0.000825665
0.000817972
0.000810024
0.000801637
0.000793651
0.000785364
0.000777745
0.000769793
0.00076276
0.000755196
0.000748881
0.000852108
0.000847667
0.000839903
0.000827144
0.000808715
0.000789647
0.000769988
0.000751422
0.000733327
0.000716917
0.00070097
0.000686819
0.000672884
0.000660732
0.000648457
0.000638032
0.000627065
0.000618148
0.000843241
0.000822505
0.000775192
0.000726454
0.000684908
0.000649852
0.000618482
0.00059203
0.000568414
0.000548336
0.000529737
0.000514034
0.000498821
0.000486086
0.000473297
0.000462809
0.000451754
0.000442947
0.000795683
0.00066824
0.000570633
0.000509904
0.000465618
0.000431186
0.000404167
0.000382492
0.000364231
0.00034909
0.000335986
0.000325096
0.000314573
0.000306289
0.00029804
0.000291448
0.000284388
0.000279043
0.000501314
0.000348357
0.000292675
0.000259181
0.000236329
0.000221179
0.00021163
0.000203861
0.000198576
0.000195083
0.000192234
0.000190377
0.000188598
0.000187453
0.000186185
0.00018549
0.000184577
0.000184166
7.27386e-05
7.02253e-05
6.79544e-05
6.56135e-05
6.3383e-05
6.1276e-05
5.94945e-05
5.79549e-05
5.67108e-05
5.57026e-05
5.49767e-05
5.44165e-05
5.41073e-05
5.38779e-05
5.3891e-05
5.39266e-05
5.40874e-05
5.4315e-05
3.75078e-06
4.92111e-05
7.35962e-05
9.49883e-05
0.000114177
0.000131609
0.000147771
0.000162944
0.000177882
0.000194156
0.000215216
0.000233773
0.000245268
0.000255034
0.000276843
0.000360118
0.000422278
0.000432358
0.000409159
0.000367167
0.000298385
4.81421e-05
5.10497e-05
5.31789e-05
5.55076e-05
5.77384e-05
5.99367e-05
6.2108e-05
6.42536e-05
6.63671e-05
6.84455e-05
7.04807e-05
7.24712e-05
7.44108e-05
7.63e-05
7.81357e-05
7.99194e-05
8.16497e-05
8.33292e-05
8.49576e-05
8.65383e-05
8.80712e-05
8.956e-05
9.10053e-05
9.24109e-05
9.37778e-05
9.51084e-05
9.6404e-05
9.76665e-05
9.88972e-05
0.000100097
0.000101269
0.000102411
0.000103526
0.000104614
0.000105676
0.000106711
0.000107721
0.000108705
0.000109664
0.000110597
0.000111505
0.000112386
0.000113242
0.000114072
0.000114877
0.000115654
0.000116408
0.000117135
0.000117837
0.000118511
0.000119158
0.000119777
0.00012037
0.000120934
0.000121474
0.000121987
0.000122477
0.000122942
0.000123387
0.000123809
0.000124215
0.000124602
0.000124976
0.000125334
0.000125683
0.000126019
0.000126346
0.000126656
0.000126939
0.000127164
0.000127267
0.000127108
0.000125959
0.000127737
0.000130381
0.000127378
0.000130868
0.000128144
0.000131563
0.000128967
0.000132593
0.000132721
0.000133136
0.000131762
0.000132733
0.000131636
0.000132978
0.000131662
0.000133338
0.000131606
0.000132684
0.00013481
0.000132136
0.000133206
0.000134865
0.000132786
0.000134253
0.00013333
0.000132838
0.000134232
0.000133603
0.000133623
0.000133272
0.00013296
0.000132561
0.000132107
0.0001316
0.000131027
0.00013038
0.000129657
0.00012886
0.000127982
0.000127027
0.000126036
0.000124932
0.000123754
0.000122497
0.000121164
0.000119767
0.000118324
0.000116767
0.000115115
0.000113663
0.000111562
0.000109007
0.000107639
0.000106475
0.000105317
0.000104136
0.000102943
0.000101735
0.00010052
9.93428e-05
9.81383e-05
9.68542e-05
9.5636e-05
9.44663e-05
9.32748e-05
9.20745e-05
9.08752e-05
8.96954e-05
8.85461e-05
8.74198e-05
8.63134e-05
8.52336e-05
8.41814e-05
8.31555e-05
8.21574e-05
8.11871e-05
8.02442e-05
7.93265e-05
7.84354e-05
7.75559e-05
7.67177e-05
7.58147e-05
7.51018e-05
7.38041e-05
7.38984e-05
7.06046e-05
8.5015e-06
7.40266e-05
0.000149687
0.000208805
0.000252739
0.000285205
0.000308885
0.000326461
0.000340249
0.000351783
0.000361459
0.000368747
0.00037362
0.000377603
0.000383051
0.000391995
0.00039939
0.000400294
0.000392728
0.000375671
0.000349257
0.000315185
0.000320033
0.000331072
0.000343726
0.000357178
0.000371306
0.000386183
0.00040178
0.000418016
0.000434783
0.000451984
0.000469498
0.000487221
0.000505036
0.000522861
0.000540602
0.000558194
0.000575566
0.000592675
0.000609473
0.000625932
0.000642015
0.000657708
0.000673049
0.000688044
0.00070269
0.000717
0.000730976
0.000744632
0.000757974
0.000771015
0.000783758
0.000796216
0.000808389
0.000820286
0.000831904
0.000843249
0.000854315
0.000865103
0.000875606
0.00088582
0.000895738
0.000905353
0.000914657
0.000923643
0.000932304
0.000940634
0.000948632
0.000956302
0.000963627
0.000970552
0.000977078
0.000983191
0.000988895
0.000994179
0.000999055
0.00100351
0.00100758
0.00101126
0.00101457
0.00101753
0.00102019
0.00102255
0.00102468
0.00102661
0.0010284
0.0010301
0.00103182
0.00103365
0.00103577
0.00103834
0.00104158
0.00104577
0.00105165
0.00105425
0.00105474
0.00106396
0.00106246
0.00107449
0.00107048
0.00108409
0.00108162
0.00109164
0.00108698
0.00109577
0.00109755
0.00110575
0.00110558
0.00111343
0.00111903
0.00113097
0.0011365
0.00113652
0.00114554
0.00115079
0.00115365
0.00116012
0.00116478
0.00116181
0.00117204
0.00117463
0.00118144
0.00118568
0.00118951
0.00119267
0.00119514
0.00119691
0.00119801
0.00119803
0.00119707
0.00119508
0.00119204
0.00118793
0.0011829
0.00117681
0.00116977
0.00116179
0.00115292
0.00114321
0.00113281
0.00112164
0.00110947
0.00109748
0.00108442
0.00106644
0.00104685
0.00102653
0.00100588
0.000985124
0.000964402
0.000943835
0.000923417
0.000903251
0.000883452
0.000863915
0.000844869
0.000826625
0.000808843
0.000791341
0.000774277
0.00075773
0.000741689
0.000726027
0.000710779
0.000695999
0.000681655
0.000667737
0.000654248
0.000641178
0.000628489
0.000616197
0.000604164
0.000592571
0.000580916
0.000569802
0.000558347
0.000545525
0.000528386
0.000474553
1.53151e-05
0.00010701
0.000209578
0.000293286
0.000358246
0.000407399
0.000443617
0.000469394
0.000487033
0.000498969
0.000507755
0.000514849
0.000521386
0.000528577
0.000537622
0.000549222
0.000562537
0.000575982
0.000588179
0.000598589
0.000608083
0.000619802
0.000639232
0.000663134
0.000689484
0.000717533
0.000747687
0.000779678
0.000812797
0.000846755
0.000881353
0.000916425
0.000951791
0.000987259
0.00102263
0.0010578
0.00109266
0.00112712
0.00116109
0.00119451
0.00122734
0.00125955
0.0012911
0.00132201
0.00135227
0.00138191
0.00141091
0.0014393
0.0014671
0.00149431
0.00152095
0.00154704
0.00157259
0.00159761
0.00162212
0.00164611
0.0016696
0.00169259
0.00171507
0.00173704
0.0017585
0.00177944
0.00179984
0.00181971
0.00183902
0.00185775
0.0018759
0.00189345
0.00191038
0.00192668
0.00194233
0.00195729
0.00197157
0.00198514
0.00199799
0.00201013
0.00202155
0.00203224
0.00204224
0.00205155
0.00206019
0.0020682
0.00207562
0.0020825
0.00208891
0.00209489
0.00210056
0.00210599
0.00211131
0.00211666
0.00212219
0.00212799
0.00213409
0.00214037
0.00214636
0.0021508
0.00215563
0.00216294
0.00216699
0.00217564
0.00217884
0.00218839
0.00219151
0.00219916
0.00220155
0.00221052
0.00221668
0.00222551
0.00223135
0.0022411
0.00225075
0.00226203
0.0022693
0.00227594
0.00228595
0.00229352
0.00230161
0.00231132
0.00232042
0.00232396
0.00233197
0.0023373
0.002344
0.00234919
0.00235317
0.00235577
0.00235694
0.00235653
0.00235445
0.00235047
0.00234459
0.00233672
0.00232686
0.00231499
0.0023012
0.00228548
0.0022679
0.00224854
0.00222752
0.00220493
0.00218096
0.00215566
0.00212898
0.00210159
0.00207303
0.00204083
0.00200638
0.00197071
0.00193442
0.00189789
0.00186134
0.00182498
0.0017889
0.00175332
0.00171856
0.00168449
0.00165154
0.00162026
0.00158971
0.00155933
0.00152985
0.00150138
0.00147387
0.00144683
0.0014205
0.001395
0.00137022
0.00134612
0.00132274
0.00130003
0.00127793
0.00125641
0.00123529
0.00121474
0.00119414
0.00117413
0.00115331
0.00113152
0.00111078
0.00103993
2.29861e-05
0.000138347
0.000263493
0.000367118
0.000449086
0.000512129
0.000559626
0.000594746
0.000620456
0.000639528
0.00065439
0.000667064
0.000679312
0.000692597
0.000708068
0.0007264
0.000747595
0.000771123
0.000796316
0.00082281
0.000850896
0.000881677
0.000916065
0.000953636
0.000993859
0.00103644
0.00108059
0.00112583
0.00117216
0.00121934
0.00126714
0.00131549
0.00136427
0.00141339
0.00146238
0.00151107
0.0015593
0.00160695
0.00165396
0.00170024
0.00174576
0.00179048
0.00183438
0.00187745
0.00191969
0.00196111
0.00200172
0.00204154
0.00208056
0.00211882
0.00215633
0.00219311
0.00222917
0.00226452
0.00229919
0.00233317
0.00236647
0.0023991
0.00243106
0.00246234
0.00249294
0.00252286
0.00255206
0.00258056
0.00260832
0.00263532
0.00266156
0.00268701
0.00271164
0.00273544
0.00275838
0.00278044
0.0028016
0.00282185
0.00284118
0.00285956
0.00287702
0.00289353
0.00290913
0.00292381
0.00293762
0.00295057
0.00296272
0.00297411
0.00298481
0.00299489
0.00300444
0.00301355
0.00302233
0.00303088
0.00303928
0.00304757
0.00305569
0.0030635
0.00307078
0.00307743
0.00308423
0.00309149
0.00309808
0.00310563
0.00311199
0.00311973
0.00312578
0.00313279
0.00313871
0.00314664
0.00315398
0.00316209
0.00316965
0.00317867
0.00318806
0.00319755
0.00320531
0.00321305
0.00322188
0.00323117
0.00324118
0.00325026
0.00325687
0.00326149
0.00326783
0.00327309
0.00327785
0.00328124
0.0032831
0.00328323
0.00328165
0.00327805
0.00327227
0.00326414
0.00325356
0.00324046
0.0032248
0.00320657
0.00318582
0.0031626
0.00313696
0.00310904
0.00307895
0.00304683
0.00301288
0.00297724
0.00294003
0.00290157
0.00286167
0.00281929
0.00277493
0.00272929
0.00268293
0.00263624
0.0025895
0.00254293
0.00249671
0.00245105
0.00240623
0.00236228
0.0023194
0.00227795
0.00223769
0.00219891
0.00216179
0.00212616
0.00209199
0.002058
0.00202499
0.00199318
0.00196225
0.00193214
0.00190297
0.00187463
0.001847
0.00182004
0.00179358
0.00176766
0.00174184
0.00171647
0.00169046
0.0016632
0.00164018
0.0015709
3.09349e-05
0.000166015
0.000312212
0.000434142
0.000532011
0.000608505
0.000667558
0.000712808
0.000747553
0.000774778
0.000797145
0.000816959
0.000836166
0.000856335
0.000878642
0.000903832
0.000932204
0.00096369
0.000998037
0.00103503
0.00107466
0.00111709
0.00116244
0.00121053
0.0012611
0.00131381
0.00136826
0.00142413
0.00148118
0.00153922
0.00159802
0.00165725
0.00171663
0.00177591
0.0018349
0.00189349
0.00195155
0.002009
0.00206572
0.00212166
0.00217676
0.00223098
0.00228429
0.00233668
0.00238815
0.00243869
0.00248831
0.00253703
0.00258484
0.00263178
0.00267786
0.00272309
0.00276749
0.00281107
0.00285385
0.00289584
0.00293705
0.00297747
0.00301712
0.00305598
0.00309406
0.00313134
0.00316781
0.00320346
0.00323826
0.0032722
0.00330525
0.00333739
0.0033686
0.00339883
0.00342808
0.00345632
0.00348351
0.00350964
0.00353469
0.00355865
0.0035815
0.00360324
0.00362388
0.00364341
0.00366187
0.00367927
0.00369565
0.00371105
0.00372552
0.00373913
0.00375194
0.00376404
0.0037755
0.00378639
0.00379679
0.0038067
0.0038161
0.00382488
0.00383302
0.00384058
0.00384784
0.00385491
0.00386163
0.00386834
0.00387464
0.00388104
0.00388687
0.00389274
0.0038984
0.00390464
0.00391087
0.00391729
0.00392364
0.00393051
0.00393787
0.00394527
0.0039513
0.00395808
0.00396619
0.00397408
0.00398051
0.00398594
0.00399069
0.00399474
0.00399873
0.00400187
0.00400406
0.00400487
0.00400404
0.00400134
0.00399674
0.00398996
0.00398079
0.00396907
0.00395466
0.00393747
0.00391744
0.00389455
0.00386883
0.00384031
0.00380907
0.00377524
0.00373896
0.0037004
0.00365976
0.00361724
0.00357298
0.0035272
0.00347985
0.00343061
0.00337972
0.00332765
0.00327486
0.0032217
0.00316847
0.00311541
0.00306272
0.00301061
0.00295932
0.00290897
0.0028597
0.00281172
0.00276503
0.00271977
0.0026761
0.00263432
0.00259481
0.00255672
0.00252016
0.0024852
0.00245114
0.0024179
0.00238578
0.00235466
0.00232425
0.0022945
0.00226528
0.00223658
0.0022081
0.00217998
0.00215154
0.00212198
0.00209675
0.00203044
3.874e-05
0.000191085
0.000356045
0.000494913
0.00060744
0.000696961
0.000767445
0.000822941
0.000867013
0.000902824
0.000933163
0.000960447
0.000986708
0.00101358
0.0010423
0.0010737
0.00110824
0.0011461
0.00118725
0.00123157
0.00127896
0.00132934
0.00138256
0.00143844
0.00149671
0.00155706
0.00161917
0.00168273
0.00174747
0.00181311
0.0018794
0.00194605
0.00201282
0.00207949
0.00214588
0.00221185
0.00227727
0.00234204
0.00240606
0.00246927
0.00253161
0.00259303
0.00265351
0.00271303
0.00277158
0.00282915
0.00288576
0.0029414
0.00299609
0.00304985
0.00310269
0.00315462
0.00320567
0.00325585
0.00330517
0.00335364
0.00340128
0.00344808
0.00349405
0.00353918
0.00358348
0.00362692
0.00366951
0.00371121
0.00375201
0.00379188
0.00383081
0.00386875
0.00390568
0.00394157
0.00397638
0.00401008
0.00404264
0.00407403
0.00410422
0.00413319
0.00416091
0.00418736
0.00421255
0.00423646
0.0042591
0.00428049
0.00430063
0.00431955
0.0043373
0.00435392
0.00436946
0.00438397
0.00439752
0.00441016
0.00442194
0.00443288
0.00444297
0.0044522
0.00446055
0.00446812
0.00447502
0.00448134
0.0044871
0.00449242
0.00449727
0.00450177
0.00450578
0.00450948
0.00451296
0.00451644
0.00451986
0.00452325
0.00452636
0.00452936
0.00453327
0.00453827
0.00454184
0.00454514
0.00454791
0.00455112
0.0045536
0.00455565
0.00455715
0.00455814
0.0045587
0.0045585
0.00455733
0.0045549
0.00455097
0.00454533
0.00453778
0.0045281
0.00451606
0.0045015
0.00448424
0.00446418
0.00444122
0.00441533
0.0043865
0.00435477
0.00432021
0.00428293
0.00424307
0.00420082
0.00415636
0.00410989
0.0040616
0.00401167
0.00396016
0.00390706
0.00385257
0.00379702
0.00374076
0.00368411
0.00362734
0.00357069
0.00351439
0.00345864
0.00340366
0.00334958
0.00329655
0.00324471
0.00319414
0.00314494
0.00309723
0.00305122
0.0030071
0.00296515
0.00292545
0.00288792
0.00285217
0.00281792
0.00278508
0.00275307
0.00272165
0.00269089
0.00266058
0.00263075
0.00260122
0.002572
0.00254271
0.00251267
0.00248587
0.00242718
4.61667e-05
0.000213267
0.000394683
0.000548984
0.00067506
0.0007769
0.000858415
0.000923922
0.000977182
0.00102148
0.00105968
0.00109425
0.00112726
0.00116041
0.00119499
0.00123191
0.00127176
0.00131484
0.00136126
0.00141099
0.00146392
0.00151989
0.0015787
0.00164012
0.00170386
0.00176963
0.00183712
0.00190604
0.00197609
0.00204699
0.00211848
0.00219032
0.00226228
0.00233415
0.00240576
0.00247697
0.00254765
0.00261769
0.00268701
0.00275553
0.00282319
0.00288996
0.00295579
0.00302067
0.00308459
0.00314753
0.0032095
0.0032705
0.00333056
0.00338967
0.00344785
0.00350513
0.00356151
0.00361702
0.00367166
0.00372545
0.00377839
0.0038305
0.00388177
0.00393221
0.0039818
0.00403053
0.00407839
0.00412537
0.00417143
0.00421655
0.00426069
0.00430383
0.00434593
0.00438694
0.00442682
0.00446553
0.00450303
0.00453928
0.00457423
0.00460785
0.0046401
0.00467095
0.00470037
0.00472834
0.00475485
0.00477989
0.00480345
0.00482556
0.00484623
0.00486547
0.00488332
0.00489983
0.00491502
0.00492894
0.00494163
0.00495311
0.0049634
0.00497251
0.00498045
0.0049873
0.00499312
0.004998
0.00500199
0.00500517
0.0050076
0.00500935
0.00501038
0.00501082
0.00501087
0.00501057
0.00500995
0.00500932
0.00500847
0.00500724
0.00500638
0.00500542
0.00500394
0.00500212
0.00500012
0.00499803
0.00499563
0.00499294
0.00498993
0.00498659
0.00498285
0.00497854
0.00497345
0.00496736
0.00496005
0.0049513
0.00494088
0.00492857
0.00491413
0.00489736
0.00487808
0.00485614
0.00483142
0.00480386
0.00477341
0.00474011
0.00470399
0.00466516
0.00462374
0.00457989
0.0045338
0.00448565
0.00443563
0.00438392
0.00433066
0.00427595
0.00421999
0.00416304
0.00410539
0.00404731
0.00398907
0.00393088
0.00387298
0.00381558
0.00375887
0.00370301
0.00364813
0.00359436
0.00354179
0.00349051
0.00344065
0.00339233
0.00334572
0.00330097
0.00325846
0.00321881
0.00318169
0.00314669
0.00311346
0.00308155
0.00305064
0.00302036
0.00299034
0.00296071
0.00293136
0.00290228
0.00287324
0.00284381
0.00281641
0.00276552
5.3017e-05
0.00023238
0.000427888
0.000595944
0.000734412
0.000847773
0.00093978
0.00101492
0.00107706
0.00112958
0.00117537
0.00121693
0.00125635
0.00129533
0.00133523
0.00137703
0.0014214
0.00146875
0.00151927
0.00157299
0.00162984
0.00168966
0.00175224
0.00181735
0.00188469
0.001954
0.00202496
0.00209729
0.00217071
0.00224496
0.00231978
0.00239495
0.00247025
0.0025455
0.00262053
0.0026952
0.00276938
0.00284299
0.00291592
0.0029881
0.00305948
0.00313002
0.00319967
0.00326842
0.00333624
0.00340314
0.00346911
0.00353416
0.00359829
0.00366151
0.00372385
0.00378532
0.00384594
0.00390571
0.00396467
0.00402281
0.00408015
0.00413669
0.00419244
0.00424739
0.00430154
0.00435487
0.00440737
0.00445902
0.00450978
0.00455963
0.00460852
0.00465643
0.00470329
0.00474906
0.00479369
0.00483712
0.0048793
0.00492017
0.00495967
0.00499775
0.00503435
0.00506942
0.00510292
0.0051348
0.00516503
0.00519358
0.00522042
0.00524555
0.00526896
0.00529065
0.00531062
0.00532891
0.00534553
0.0053605
0.00537386
0.00538563
0.00539584
0.0054045
0.00541166
0.00541736
0.00542167
0.00542466
0.00542639
0.00542692
0.0054263
0.00542476
0.00542205
0.00541836
0.00541427
0.00540994
0.00540469
0.00539894
0.00539264
0.00538595
0.0053791
0.00537198
0.00536448
0.0053567
0.00534873
0.00534065
0.00533244
0.00532413
0.00531572
0.00530719
0.00529849
0.0052895
0.00528006
0.00526999
0.00525909
0.00524716
0.00523395
0.00521924
0.00520277
0.00518432
0.00516367
0.00514065
0.0051151
0.00508691
0.00505603
0.00502244
0.00498617
0.00494728
0.00490588
0.00486209
0.00481606
0.00476798
0.00471802
0.00466636
0.00461315
0.00455856
0.00450277
0.00444603
0.00438857
0.00433064
0.00427246
0.00421426
0.00415626
0.00409868
0.00404171
0.00398553
0.00393024
0.00387596
0.00382279
0.00377082
0.00372018
0.00367098
0.00362334
0.00357738
0.00353335
0.00349199
0.00345393
0.00341851
0.00338521
0.00335354
0.00332318
0.00329375
0.00326497
0.00323651
0.00320821
0.00318007
0.003152
0.00312378
0.00309665
0.00305254
5.9133e-05
0.000248352
0.000455595
0.000635635
0.000785246
0.000909196
0.00101103
0.00109529
0.00116592
0.0012263
0.00127935
0.00132755
0.001373
0.00141741
0.00146215
0.00150825
0.00155644
0.00160722
0.00166084
0.0017174
0.00177687
0.00183913
0.001904
0.00197124
0.00204061
0.00211183
0.00218462
0.00225872
0.00233387
0.00240982
0.00248634
0.00256321
0.00264025
0.00271727
0.00279414
0.00287071
0.00294686
0.00302251
0.00309756
0.00317195
0.00324561
0.00331851
0.00339061
0.00346188
0.00353231
0.00360189
0.00367061
0.0037385
0.00380554
0.00387176
0.00393717
0.00400179
0.00406564
0.00412874
0.00419109
0.00425272
0.00431363
0.00437384
0.00443334
0.00449213
0.00455021
0.00460755
0.00466415
0.00471998
0.004775
0.00482918
0.00488246
0.00493482
0.00498617
0.00503648
0.00508566
0.00513366
0.00518039
0.00522579
0.00526978
0.00531228
0.00535322
0.00539252
0.00543011
0.00546593
0.00549992
0.00553203
0.0055622
0.00559039
0.00561659
0.00564077
0.00566291
0.00568301
0.00570108
0.00571712
0.00573116
0.00574322
0.00575331
0.00576148
0.00576774
0.00577217
0.00577481
0.00577574
0.00577502
0.00577271
0.00576865
0.00576307
0.00575645
0.00574893
0.00574062
0.005731
0.00572039
0.00570894
0.00569672
0.00568387
0.00567055
0.00565679
0.00564264
0.0056282
0.00561357
0.00559888
0.00558419
0.00556957
0.00555507
0.00554072
0.00552651
0.00551236
0.00549819
0.00548385
0.00546917
0.00545396
0.00543799
0.00542104
0.00540281
0.00538306
0.00536155
0.00533806
0.00531242
0.00528445
0.00525407
0.00522123
0.00518593
0.0051482
0.00510808
0.00506567
0.00502109
0.00497447
0.00492599
0.00487579
0.00482405
0.00477094
0.00471665
0.00466139
0.00460537
0.0045488
0.0044919
0.00443487
0.00437793
0.00432131
0.00426522
0.00420983
0.00415523
0.00410153
0.00404882
0.00399722
0.00394685
0.00389783
0.00385025
0.00380422
0.00375994
0.00371791
0.00367945
0.00364402
0.00361094
0.00357972
0.00354997
0.00352137
0.00349367
0.0034666
0.00343998
0.00341334
0.00338668
0.00335999
0.00333374
0.00329523
6.44058e-05
0.000261213
0.000477883
0.00066806
0.000827457
0.000960917
0.00107176
0.0011645
0.00124307
0.00131085
0.00137073
0.00142517
0.00147624
0.00152563
0.00157473
0.00162459
0.00167598
0.00172945
0.00178532
0.00184375
0.00190476
0.00196827
0.00203416
0.00210221
0.00217222
0.00224394
0.00231713
0.00239154
0.00246694
0.00254311
0.00261985
0.00269696
0.00277426
0.00285161
0.00292885
0.00300588
0.00308257
0.00315885
0.00323462
0.00330983
0.00338441
0.00345834
0.00353156
0.00360407
0.00367584
0.00374688
0.00381717
0.00388673
0.00395556
0.00402368
0.00409111
0.00415787
0.00422398
0.00428947
0.00435435
0.00441864
0.00448234
0.00454548
0.00460805
0.00467004
0.00473147
0.0047923
0.00485252
0.0049121
0.004971
0.00502918
0.00508659
0.00514317
0.00519885
0.00525357
0.00530723
0.00535975
0.00541105
0.00546102
0.00550958
0.00555662
0.00560204
0.00564574
0.00568763
0.00572761
0.00576559
0.0058015
0.00583526
0.00586679
0.00589605
0.00592299
0.00594757
0.00596976
0.00598955
0.00600693
0.0060219
0.00603449
0.00604469
0.00605255
0.0060581
0.00606139
0.00606248
0.00606145
0.00605838
0.00605297
0.00604558
0.00603663
0.0060263
0.00601453
0.00600113
0.00598627
0.00597008
0.00595271
0.00593429
0.00591498
0.00589492
0.00587423
0.00585305
0.00583151
0.00580978
0.005788
0.00576632
0.00574488
0.00572378
0.0057031
0.0056829
0.00566318
0.0056439
0.00562497
0.00560628
0.00558765
0.00556887
0.00554973
0.0055299
0.00550911
0.00548709
0.00546362
0.00543845
0.00541138
0.00538224
0.00535098
0.00531757
0.00528196
0.00524416
0.00520421
0.00516218
0.00511817
0.00507232
0.00502475
0.00497562
0.0049251
0.00487337
0.00482064
0.00476709
0.00471289
0.00465824
0.00460334
0.0045484
0.00449365
0.00443936
0.00438565
0.00433262
0.00428035
0.00422895
0.00417854
0.00412927
0.00408126
0.00403459
0.00398936
0.00394575
0.00390421
0.00386609
0.00383113
0.0037986
0.00376799
0.00373896
0.0037112
0.0036845
0.00365864
0.00363345
0.00360866
0.00358367
0.00355861
0.00353359
0.00349973
6.87667e-05
0.000271058
0.000494913
0.000693306
0.000861015
0.00100267
0.00112168
0.00122211
0.00130792
0.00138247
0.0014486
0.00150874
0.00156491
0.00161878
0.00167171
0.00172476
0.00177874
0.00183422
0.00189157
0.001951
0.00201259
0.00207633
0.00214211
0.0022098
0.00227921
0.00235015
0.0024224
0.00249577
0.00257006
0.00264507
0.00272063
0.00279657
0.00287274
0.00294899
0.00302521
0.00310128
0.00317712
0.00325264
0.00332776
0.00340242
0.00347658
0.0035502
0.00362324
0.00369569
0.00376754
0.00383879
0.00390944
0.00397949
0.00404897
0.00411788
0.00418626
0.00425413
0.00432152
0.00438847
0.00445499
0.0045211
0.00458682
0.00465216
0.00471713
0.00478172
0.00484593
0.00490974
0.00497314
0.0050361
0.00509856
0.00516049
0.00522182
0.00528249
0.00534242
0.00540151
0.00545968
0.00551681
0.00557281
0.00562755
0.00568091
0.00573276
0.00578298
0.00583143
0.005878
0.00592255
0.00596497
0.00600514
0.00604296
0.00607832
0.00611114
0.00614135
0.00616887
0.00619366
0.00621568
0.0062349
0.00625131
0.0062649
0.00627568
0.00628368
0.00628893
0.00629148
0.00629138
0.00628873
0.00628343
0.00627555
0.00626542
0.00625331
0.00623919
0.00622302
0.00620489
0.00618492
0.00616325
0.00614003
0.00611543
0.00608962
0.00606278
0.00603509
0.00600674
0.00597791
0.00594882
0.00591968
0.00589069
0.00586205
0.00583395
0.00580654
0.00577995
0.00575427
0.00572952
0.00570569
0.00568272
0.00566044
0.0056387
0.00561736
0.00559598
0.00557428
0.00555198
0.00552885
0.00550459
0.00547893
0.00545158
0.00542256
0.00539175
0.00535906
0.00532443
0.00528782
0.00524926
0.0052088
0.00516653
0.00512254
0.00507698
0.00502998
0.00498173
0.00493241
0.00488221
0.00483124
0.00477967
0.0047277
0.00467553
0.0046234
0.00457168
0.00452043
0.0044697
0.00441958
0.00437018
0.00432164
0.00427414
0.00422782
0.00418276
0.00413904
0.00409685
0.00405667
0.00401974
0.00398573
0.00395405
0.00392425
0.00389604
0.00386915
0.00384341
0.00381864
0.0037947
0.0037714
0.00374815
0.0037247
0.00370107
0.0036711
7.21895e-05
0.000278061
0.000507007
0.000711764
0.000886382
0.00103485
0.00116071
0.00126776
0.00135987
0.00144033
0.00151194
0.00157704
0.00163762
0.0016953
0.00175141
0.001807
0.00186288
0.00191964
0.0019777
0.00203729
0.00209856
0.00216154
0.00222618
0.00229238
0.00236001
0.00242892
0.00249895
0.00256994
0.00264174
0.00271421
0.00278721
0.00286061
0.00293424
0.00300799
0.00308177
0.00315549
0.00322907
0.00330243
0.0033755
0.00344824
0.00352059
0.00359252
0.00366403
0.0037351
0.00380572
0.00387591
0.00394566
0.004015
0.00408394
0.0041525
0.00422071
0.00428863
0.0043563
0.00442376
0.00449103
0.00455813
0.00462508
0.0046919
0.0047586
0.00482519
0.00489165
0.00495799
0.00502418
0.00509017
0.00515594
0.00522143
0.00528656
0.00535127
0.00541545
0.00547901
0.00554183
0.0056038
0.00566477
0.00572461
0.00578316
0.00584027
0.00589578
0.00594953
0.00600135
0.00605109
0.00609859