/*--------------------------------*- C++ -*----------------------------------*\
  =========                 |
  \\      /  F ield         | OpenFOAM: The Open Source CFD Toolbox
   \\    /   O peration     | Website:  https://openfoam.org
    \\  /    A nd           | Version:  8
     \\/     M anipulation  |
\*---------------------------------------------------------------------------*/
FoamFile
{
    version     2.0;
    format      ascii;
    class       volScalarField;
    location    "100";
    object      p;
}
// * * * * * * * * * * * * * * * * * * * * * * * * * * * * * * * * * * * * * //

dimensions      [0 2 -2 0 0 0 0];

internalField   nonuniform List<scalar> 
12225
(
-2.18614
-4.37454
-5.47386
-5.79357
-5.97361
-6.14104
-6.2706
-6.36321
-6.43646
-6.49943
-6.55375
-6.60108
-6.64042
-6.67154
-6.69274
-6.69145
-6.68507
-6.53404
-5.34964
-6.11781
-6.27766
-6.18443
-6.1707
-6.23699
-6.31252
-6.37572
-6.43203
-6.48514
-6.53419
-6.57775
-6.61559
-6.64627
-6.66975
-6.67554
-6.68481
-6.63685
-5.75081
-5.73556
-5.86225
-5.93966
-6.03338
-6.15202
-6.25722
-6.33957
-6.40816
-6.46936
-6.52412
-6.57205
-6.61382
-6.64851
-6.6772
-6.69386
-6.7186
-6.72982
-5.62889
-5.57174
-5.81264
-5.97007
-6.07065
-6.17533
-6.27105
-6.34867
-6.41433
-6.47348
-6.52703
-6.57458
-6.61682
-6.65329
-6.68564
-6.71204
-6.74798
-6.7926
-5.61859
-5.64279
-5.8702
-6.01089
-6.09335
-6.18391
-6.27324
-6.34863
-6.41325
-6.47179
-6.52529
-6.57348
-6.61709
-6.65626
-6.69299
-6.72805
-6.7728
-6.83229
-5.67663
-5.72535
-5.899
-6.02202
-6.10242
-6.18882
-6.27507
-6.34938
-6.41362
-6.47195
-6.52562
-6.57459
-6.61962
-6.6614
-6.70203
-6.74356
-6.79408
-6.85908
-5.73707
-5.7811
-5.91566
-6.03114
-6.11385
-6.19664
-6.27886
-6.35147
-6.41507
-6.47307
-6.52682
-6.57651
-6.62289
-6.66699
-6.71086
-6.75693
-6.81079
-6.87654
-5.79074
-5.82816
-5.93754
-6.04505
-6.12709
-6.20541
-6.28326
-6.35392
-6.41678
-6.47442
-6.52822
-6.57857
-6.62619
-6.67225
-6.71865
-6.76762
-6.82289
-6.88692
-5.84064
-5.87356
-5.96393
-6.06117
-6.14037
-6.21457
-6.28833
-6.35687
-6.41882
-6.47602
-6.52979
-6.58064
-6.62929
-6.67685
-6.72497
-6.77547
-6.83071
-6.89182
-5.8879
-5.91694
-5.99196
-6.07851
-6.15392
-6.22444
-6.29435
-6.36051
-6.42133
-6.47793
-6.53153
-6.58268
-6.63202
-6.68055
-6.72962
-6.78056
-6.83477
-6.89251
-5.93245
-5.95777
-6.02051
-6.0971
-6.1681
-6.23505
-6.30128
-6.3649
-6.42435
-6.48021
-6.53346
-6.58466
-6.63433
-6.68332
-6.73264
-6.7832
-6.83577
-6.8901
-5.97074
-5.9929
-6.0467
-6.11505
-6.18158
-6.24523
-6.30827
-6.36951
-6.42754
-6.48255
-6.5353
-6.58628
-6.63594
-6.6849
-6.73393
-6.78362
-6.83437
-6.88573
-6.00615
-6.02569
-6.07218
-6.13318
-6.19519
-6.2556
-6.31561
-6.3745
-6.43101
-6.48505
-6.53713
-6.58769
-6.63705
-6.68568
-6.73405
-6.78257
-6.83138
-6.87999
-6.04334
-6.06038
-6.10014
-6.15386
-6.21085
-6.26761
-6.32436
-6.3806
-6.4353
-6.48808
-6.53921
-6.589
-6.63773
-6.68562
-6.73295
-6.77985
-6.82639
-6.87209
-6.08108
-6.09575
-6.12957
-6.17648
-6.2282
-6.28101
-6.33433
-6.38768
-6.44024
-6.49146
-6.54132
-6.58993
-6.63755
-6.68425
-6.73011
-6.77505
-6.81906
-6.8618
-6.11743
-6.12999
-6.15885
-6.19975
-6.24631
-6.29509
-6.34495
-6.39532
-6.44545
-6.49481
-6.54304
-6.59013
-6.63614
-6.68121
-6.72518
-6.76795
-6.80931
-6.84918
-6.14951
-6.16037
-6.18535
-6.22138
-6.26341
-6.30841
-6.35505
-6.40252
-6.45014
-6.49737
-6.54375
-6.589
-6.6331
-6.67609
-6.71792
-6.75834
-6.79715
-6.83423
-6.17294
-6.18263
-6.20502
-6.23769
-6.27641
-6.31847
-6.36251
-6.40757
-6.45294
-6.49808
-6.54253
-6.58585
-6.62792
-6.66874
-6.70832
-6.74641
-6.78281
-6.81741
-6.1808
-6.19005
-6.21148
-6.24291
-6.28035
-6.32112
-6.36384
-6.40754
-6.45148
-6.4951
-6.53797
-6.57961
-6.61988
-6.65874
-6.69627
-6.73222
-6.76648
-6.79895
-6.16553
-6.17541
-6.19827
-6.23163
-6.27101
-6.31318
-6.35679
-6.40098
-6.44515
-6.48862
-6.53106
-6.572
-6.61143
-6.64923
-6.68559
-6.72019
-6.75309
-6.78418
-6.13924
-6.15015
-6.17569
-6.21299
-6.25611
-6.30111
-6.34677
-6.39265
-6.43795
-6.4821
-6.52468
-6.56563
-6.60477
-6.64227
-6.67796
-6.71191
-6.74392
-6.77435
-6.10442
-6.11636
-6.14599
-6.18985
-6.23845
-6.28687
-6.33522
-6.38352
-6.43072
-6.47597
-6.51913
-6.5603
-6.59954
-6.63689
-6.67228
-6.70575
-6.73729
-6.76719
-6.06416
-6.07618
-6.11091
-6.16444
-6.22032
-6.27268
-6.32402
-6.37498
-6.4241
-6.47056
-6.51451
-6.55616
-6.59569
-6.63303
-6.6683
-6.70145
-6.73274
-6.76233
-6.02066
-6.03176
-6.0738
-6.13845
-6.20096
-6.25806
-6.31411
-6.36843
-6.41921
-6.46653
-6.51108
-6.55318
-6.59289
-6.63025
-6.66531
-6.69827
-6.72928
-6.75869
-5.97386
-5.97949
-6.04243
-6.12086
-6.18309
-6.24173
-6.30331
-6.36215
-6.41514
-6.4636
-6.50897
-6.55161
-6.59154
-6.62888
-6.6638
-6.69658
-6.7274
-6.75672
-5.93064
-5.89443
-6.00423
-6.11548
-6.17802
-6.23361
-6.29621
-6.35645
-6.41015
-6.45923
-6.50526
-6.5484
-6.58859
-6.62603
-6.66099
-6.69377
-6.72459
-6.75385
-5.94493
-5.78609
-5.91525
-6.06958
-6.16006
-6.23172
-6.30098
-6.36235
-6.41561
-6.46424
-6.50981
-6.55243
-6.59198
-6.62878
-6.66313
-6.69536
-6.72576
-6.75472
-6.06815
-5.88787
-5.90232
-5.97465
-6.06336
-6.16292
-6.25395
-6.32816
-6.3903
-6.44576
-6.49637
-6.54249
-6.58456
-6.62316
-6.65876
-6.69189
-6.72308
-6.75318
-5.77554
-6.3667
-6.45584
-6.33182
-6.27778
-6.30526
-6.3526
-6.39629
-6.43827
-6.48076
-6.52253
-6.5622
-6.59946
-6.63432
-6.66677
-6.69707
-6.72558
-6.75427
-2.78622
-4.54963
-5.55457
-5.854
-6.00345
-6.14736
-6.26176
-6.34318
-6.40783
-6.46498
-6.51648
-6.56284
-6.60483
-6.6432
-6.67836
-6.71023
-6.73882
-6.76251
-8.10638
-8.10441
-8.10258
-8.10449
-8.10826
-8.11288
-8.11841
-8.12447
-8.13049
-8.13604
-8.14135
-8.14721
-8.1539
-8.16052
-8.16624
-8.17242
-8.18223
-8.19586
-8.2131
-8.23214
-8.24758
-8.26048
-8.27959
-8.30442
-8.33134
-8.36074
-8.3927
-8.42706
-8.46373
-8.50241
-8.54286
-8.58465
-8.62745
-8.67078
-8.71428
-8.75749
-8.80003
-8.84153
-8.88166
-8.92013
-8.9567
-8.99117
-9.02336
-9.05317
-9.08045
-9.10517
-9.12724
-9.14666
-9.16334
-9.17735
-9.18859
-9.19719
-9.20305
-9.2063
-9.20683
-9.20482
-9.20018
-9.19306
-9.18333
-9.17126
-9.15669
-9.1399
-9.1207
-9.09944
-9.07592
-9.05051
-9.023
-8.99379
-8.96266
-8.93004
-8.89573
-8.86012
-8.82298
-8.78477
-8.74523
-8.70489
-8.66341
-8.62123
-8.57804
-8.53437
-8.48978
-8.44469
-8.39856
-8.35185
-8.3039
-8.25512
-8.20481
-8.15299
-8.09868
-8.04142
-7.98137
-7.91798
-7.85067
-7.77868
-7.70138
-7.61809
-7.52822
-7.43072
-7.32466
-7.20895
-7.0825
-6.94399
-6.79199
-6.62503
-6.44136
-6.23945
-6.01777
-5.77525
-5.5106
-5.22281
-4.91056
-4.57305
-4.2093
-3.81894
-3.40127
-2.95617
-2.4836
-1.98403
-1.45806
-0.906978
-0.332136
0.264673
0.88147
1.51572
2.16458
2.82473
3.49271
4.16483
4.83733
5.50644
6.16848
6.81989
7.45729
8.07763
8.67808
9.25624
9.80998
10.3376
10.838
11.3102
11.754
12.1694
12.557
12.9176
13.2526
13.5629
13.8494
14.1126
14.3533
14.5727
14.7721
14.9528
15.1161
15.2634
15.3958
15.5146
15.6209
15.7159
15.8006
15.8758
15.9425
16.0015
16.0534
16.0991
16.1391
16.1741
16.2046
16.2312
16.2543
16.2747
16.2929
16.3094
16.3254
16.3418
16.3606
16.3846
16.4206
16.476
16.5785
16.7167
-8.10497
-8.10373
-8.10247
-8.10438
-8.1077
-8.11112
-8.11456
-8.11807
-8.12126
-8.12398
-8.12646
-8.12939
-8.13278
-8.13644
-8.14038
-8.14618
-8.15405
-8.16242
-8.17105
-8.17965
-8.18987
-8.20767
-8.23246
-8.25662
-8.28219
-8.31047
-8.34163
-8.37554
-8.41205
-8.45086
-8.49166
-8.53403
-8.57756
-8.62176
-8.66617
-8.71032
-8.75377
-8.79614
-8.83707
-8.87628
-8.91351
-8.94857
-8.9813
-9.01158
-9.0393
-9.06442
-9.08685
-9.1066
-9.12361
-9.1379
-9.14945
-9.1583
-9.16441
-9.16786
-9.1686
-9.16674
-9.16222
-9.15516
-9.1455
-9.1334
-9.11879
-9.10183
-9.08249
-9.06095
-9.03716
-9.01133
-8.98343
-8.95368
-8.92204
-8.88876
-8.85382
-8.81746
-8.77964
-8.74062
-8.70039
-8.6592
-8.61695
-8.57391
-8.53
-8.48551
-8.44028
-8.39451
-8.34802
-8.30096
-8.25298
-8.20419
-8.15425
-8.10297
-8.04952
-7.99382
-7.93559
-7.87443
-7.80967
-7.74064
-7.66671
-7.58701
-7.50053
-7.40651
-7.30405
-7.19201
-7.06929
-6.93461
-6.78674
-6.62397
-6.44495
-6.24827
-6.03278
-5.79712
-5.54005
-5.26015
-4.95638
-4.62766
-4.2732
-3.8921
-3.48401
-3.04868
-2.58594
-2.09611
-1.5799
-1.03829
-0.472595
0.115536
0.724254
1.35118
1.99354
2.64818
3.31169
3.98044
4.65073
5.31877
5.98086
6.63337
7.27289
7.89621
8.50045
9.08305
9.64182
10.175
10.6812
11.1595
11.6096
12.0314
12.4252
12.7916
13.1316
13.4464
13.7372
14.0048
14.2502
14.4744
14.6787
14.8642
15.0323
15.1841
15.321
15.4441
15.5546
15.6536
15.742
15.8208
15.8909
15.953
16.008
16.0565
16.0992
16.1367
16.1696
16.1984
16.2237
16.2461
16.2661
16.2845
16.3022
16.3204
16.3408
16.3661
16.4016
16.4524
16.5434
16.6569
-8.09818
-8.09894
-8.09946
-8.102
-8.10505
-8.10741
-8.10902
-8.11002
-8.11049
-8.11054
-8.11052
-8.11085
-8.1117
-8.11309
-8.1154
-8.11963
-8.12624
-8.13458
-8.14416
-8.15461
-8.16625
-8.181
-8.20014
-8.22218
-8.24739
-8.27596
-8.30771
-8.34228
-8.37934
-8.41848
-8.45931
-8.50137
-8.54425
-8.58751
-8.63075
-8.6736
-8.71569
-8.75671
-8.79636
-8.8344
-8.8706
-8.90479
-8.93678
-8.96648
-8.99376
-9.01856
-9.04078
-9.0604
-9.07736
-9.09167
-9.10327
-9.1122
-9.11843
-9.12198
-9.12286
-9.12109
-9.11668
-9.10968
-9.10008
-9.08798
-9.07336
-9.05632
-9.03688
-9.01514
-8.99115
-8.96502
-8.93681
-8.90665
-8.8746
-8.84081
-8.80536
-8.76841
-8.73003
-8.69039
-8.64957
-8.60774
-8.56494
-8.5213
-8.47689
-8.43184
-8.38617
-8.33996
-8.29322
-8.24597
-8.19805
-8.14942
-8.09995
-8.04927
-7.99696
-7.94266
-7.88639
-7.82764
-7.76565
-7.69993
-7.62963
-7.55407
-7.47216
-7.38313
-7.28594
-7.17953
-7.06267
-6.9341
-6.7925
-6.63634
-6.46443
-6.27535
-6.06799
-5.84086
-5.59279
-5.32234
-5.02855
-4.71017
-4.36638
-3.99621
-3.59929
-3.17524
-2.72396
-2.24558
-1.74077
-1.21037
-0.655672
-0.0780839
0.520578
1.13812
1.77189
2.41885
3.0757
3.73891
4.40484
5.06971
5.72985
6.38158
7.02146
7.64619
8.25285
8.83879
9.4018
9.94005
10.4522
10.9373
11.3949
11.8249
12.2275
12.6033
12.9529
13.2774
13.5777
13.8545
14.1088
14.3416
14.554
14.7473
14.9228
15.0817
15.2252
15.3546
15.471
15.5755
15.669
15.7526
15.8271
15.8935
15.9524
16.0045
16.0505
16.0912
16.127
16.1586
16.1865
16.2112
16.2335
16.254
16.2736
16.2935
16.3155
16.3418
16.3767
16.423
16.4989
16.5749
-8.08317
-8.0872
-8.0911
-8.09542
-8.09918
-8.10165
-8.10284
-8.10297
-8.10221
-8.1008
-8.09916
-8.09774
-8.09694
-8.09701
-8.0984
-8.10169
-8.1074
-8.1155
-8.12585
-8.13826
-8.15273
-8.16967
-8.18951
-8.21226
-8.238
-8.2667
-8.29823
-8.33231
-8.36865
-8.40688
-8.44665
-8.48756
-8.52923
-8.57125
-8.61327
-8.65489
-8.6958
-8.73567
-8.77424
-8.81125
-8.84648
-8.87977
-8.91095
-8.9399
-8.9665
-8.99068
-9.01235
-9.03148
-9.04799
-9.06189
-9.07313
-9.08172
-9.08763
-9.09089
-9.09147
-9.08942
-9.08471
-9.0774
-9.0675
-9.05506
-9.0401
-9.02269
-9.00286
-8.98071
-8.95628
-8.92969
-8.901
-8.87032
-8.83776
-8.80343
-8.76745
-8.72997
-8.69108
-8.65095
-8.60969
-8.56744
-8.52431
-8.4804
-8.43582
-8.39067
-8.34499
-8.29887
-8.25232
-8.20536
-8.15791
-8.10988
-8.06117
-8.01151
-7.96037
-7.90777
-7.85338
-7.79675
-7.73733
-7.67444
-7.60744
-7.53547
-7.45766
-7.37302
-7.28058
-7.17919
-7.06763
-6.9446
-6.80873
-6.65867
-6.49312
-6.31082
-6.11043
-5.89061
-5.65003
-5.38745
-5.1017
-4.79163
-4.45626
-4.09474
-3.70653
-3.29127
-2.84879
-2.37922
-1.88306
-1.3611
-0.81457
-0.244799
0.346454
0.957071
1.58448
2.22575
2.87766
3.53674
4.19939
4.86186
5.52048
6.17153
6.81153
7.43717
8.04548
8.63379
9.1999
9.74203
10.2588
10.7494
11.2133
11.6501
12.0601
12.4435
12.8009
13.1332
13.441
13.7252
13.9866
14.2264
14.4455
14.6453
14.8269
14.9917
15.1409
15.2756
15.3969
15.5061
15.604
15.6917
15.7701
15.84
15.9021
15.9574
16.0063
16.0497
16.088
16.1219
16.1519
16.1787
16.2028
16.225
16.2461
16.2671
16.2898
16.3158
16.3485
16.3883
16.4474
16.4908
-8.0605
-8.0682
-8.07676
-8.08396
-8.08935
-8.09281
-8.09456
-8.09498
-8.09437
-8.09306
-8.09147
-8.09006
-8.08932
-8.08965
-8.0915
-8.0953
-8.10142
-8.10999
-8.12108
-8.13466
-8.15078
-8.1695
-8.19092
-8.21504
-8.24187
-8.27132
-8.30328
-8.33747
-8.37363
-8.41142
-8.45051
-8.49053
-8.53113
-8.57195
-8.61264
-8.65288
-8.69237
-8.73082
-8.76799
-8.80365
-8.83759
-8.86966
-8.89969
-8.92756
-8.95317
-8.97642
-8.99723
-9.01556
-9.03133
-9.04454
-9.05512
-9.06308
-9.06838
-9.07104
-9.07102
-9.06838
-9.06308
-9.05516
-9.04464
-9.03156
-9.01594
-8.99786
-8.97735
-8.95449
-8.92934
-8.90201
-8.87256
-8.84114
-8.80783
-8.77277
-8.73608
-8.69791
-8.65839
-8.61768
-8.57592
-8.53326
-8.48983
-8.44575
-8.40114
-8.35611
-8.31072
-8.26504
-8.21913
-8.17297
-8.12651
-8.07969
-8.03239
-7.98431
-7.93524
-7.88467
-7.83285
-7.77892
-7.72253
-7.66291
-7.59955
-7.53149
-7.45796
-7.37788
-7.2903
-7.19405
-7.08787
-6.97049
-6.84041
-6.69645
-6.5371
-6.36129
-6.16739
-5.95431
-5.7204
-5.4647
-5.18572
-4.88255
-4.55394
-4.1993
-3.81781
-3.40919
-2.9731
-2.50975
-2.01944
-1.50305
-0.96159
-0.396467
0.190655
0.797629
1.42193
2.06068
2.71065
3.36844
4.03038
4.69279
5.35187
6.00396
6.64546
7.27312
7.88387
8.47511
9.04463
9.59068
10.1119
10.6073
11.0762
11.5184
11.9339
12.3228
12.6858
13.0235
13.3367
13.626
13.8925
14.1372
14.3611
14.5656
14.7518
14.9209
15.0742
15.2128
15.338
15.4507
15.552
15.6429
15.7242
15.7969
15.8616
15.9192
15.9704
16.0158
16.056
16.0916
16.1233
16.1515
16.1769
16.2002
16.222
16.2435
16.2658
16.2904
16.3195
16.352
16.3958
16.4131
-8.03389
-8.04531
-8.05924
-8.06997
-8.07768
-8.08288
-8.08601
-8.08756
-8.08799
-8.08772
-8.08719
-8.08687
-8.08726
-8.08878
-8.09189
-8.09694
-8.10426
-8.11401
-8.12631
-8.14118
-8.15867
-8.17876
-8.20148
-8.22676
-8.25454
-8.2847
-8.31704
-8.35133
-8.38729
-8.4246
-8.46297
-8.50205
-8.54155
-8.58112
-8.62047
-8.65931
-8.69736
-8.73437
-8.77012
-8.80439
-8.837
-8.86778
-8.89659
-8.92331
-8.94781
-8.97003
-8.98986
-9.00725
-9.02213
-9.03448
-9.04423
-9.05138
-9.05588
-9.05774
-9.05694
-9.05348
-9.04736
-9.03862
-9.02724
-9.01328
-8.99677
-8.97776
-8.9563
-8.93248
-8.90636
-8.87805
-8.84763
-8.81523
-8.78096
-8.74497
-8.70738
-8.66836
-8.62807
-8.58666
-8.54429
-8.50115
-8.45736
-8.41309
-8.36846
-8.32361
-8.27861
-8.23355
-8.18849
-8.14343
-8.09834
-8.05313
-8.00772
-7.96189
-7.91508
-7.86759
-7.8187
-7.76822
-7.71543
-7.6598
-7.6006
-7.53706
-7.46825
-7.39322
-7.31091
-7.22018
-7.11979
-7.00832
-6.88443
-6.74669
-6.59385
-6.42449
-6.23727
-6.03075
-5.80351
-5.55426
-5.2818
-4.98495
-4.66267
-4.31411
-3.93853
-3.53545
-3.10461
-2.64609
-2.16023
-1.64776
-1.10966
-0.547286
0.0376746
0.643072
1.26639
1.90474
2.5549
3.21343
3.87665
4.54081
5.20209
5.85677
6.50124
7.1322
7.74659
8.34181
8.91564
9.46624
9.99218
10.4924
10.9662
11.4132
11.8335
12.2271
12.5946
12.9367
13.254
13.5473
13.8177
14.0662
14.2938
14.5018
14.6914
14.8639
15.0204
15.1621
15.2902
15.4058
15.5098
15.6032
15.6869
15.7618
15.8287
15.8882
15.9411
15.9881
16.0297
16.0667
16.0995
16.1288
16.155
16.1789
16.201
16.2223
16.2436
16.266
16.2907
16.3156
16.3461
16.3425
-8.00764
-8.02236
-8.04138
-8.05559
-8.0658
-8.07314
-8.07814
-8.08138
-8.08342
-8.08473
-8.08582
-8.08714
-8.08919
-8.09238
-8.09715
-8.1038
-8.11266
-8.12387
-8.1376
-8.15385
-8.17268
-8.19403
-8.21788
-8.24411
-8.27262
-8.30324
-8.33577
-8.36999
-8.40563
-8.4424
-8.48003
-8.51822
-8.55667
-8.59509
-8.63321
-8.67075
-8.70748
-8.74315
-8.77756
-8.81051
-8.84183
-8.87135
-8.89895
-8.9245
-8.94789
-8.96902
-8.98781
-9.00419
-9.0181
-9.02948
-9.03829
-9.0445
-9.04806
-9.04898
-9.04721
-9.04278
-9.03565
-9.02587
-9.01343
-8.99839
-8.98075
-8.96059
-8.93796
-8.91295
-8.88562
-8.8561
-8.82447
-8.79089
-8.75545
-8.71833
-8.67968
-8.63966
-8.59845
-8.55624
-8.51319
-8.46949
-8.42532
-8.38084
-8.33622
-8.29158
-8.24705
-8.20272
-8.15867
-8.1149
-8.07139
-8.02809
-7.98492
-7.94154
-7.89784
-7.85337
-7.80813
-7.76156
-7.7129
-7.66174
-7.60722
-7.54868
-7.48507
-7.41551
-7.33891
-7.25406
-7.15977
-7.05448
-6.93697
-6.80562
-6.65938
-6.49655
-6.31597
-6.11592
-5.89527
-5.65236
-5.38621
-5.0954
-4.77911
-4.43613
-4.06586
-3.66761
-3.24129
-2.78677
-2.30445
-1.79487
-1.25906
-0.698265
-0.114258
0.490833
1.11447
1.75372
2.40537
3.06589
3.73162
4.39866
5.06326
5.72154
6.36998
7.00516
7.62408
8.22404
8.80274
9.35831
9.8892
10.3944
10.873
11.3247
11.7494
12.1473
12.5188
12.8647
13.1855
13.4823
13.7559
14.0075
14.2381
14.449
14.6414
14.8166
14.9757
15.1199
15.2504
15.3682
15.4744
15.5699
15.6557
15.7325
15.8011
15.8623
15.9167
15.965
16.0079
16.0459
16.0796
16.1096
16.1363
16.1604
16.1824
16.203
16.2229
16.2425
16.2625
16.2799
16.299
16.2785
-7.98529
-8.00272
-8.02595
-8.04312
-8.05564
-8.06511
-8.07212
-8.07724
-8.08111
-8.08425
-8.08718
-8.09036
-8.09426
-8.09928
-8.10582
-8.11416
-8.12461
-8.1373
-8.15239
-8.1699
-8.18988
-8.21225
-8.23696
-8.26389
-8.2929
-8.32381
-8.35642
-8.39048
-8.42577
-8.462
-8.49893
-8.53627
-8.57375
-8.61111
-8.64809
-8.68445
-8.71996
-8.75441
-8.78759
-8.81932
-8.84944
-8.8778
-8.90426
-8.9287
-8.951
-8.97108
-8.98884
-9.00421
-9.01711
-9.0275
-9.03531
-9.04051
-9.04305
-9.04293
-9.04008
-9.03454
-9.02627
-9.0153
-9.00163
-8.98531
-8.96636
-8.94485
-8.92083
-8.89442
-8.86567
-8.83472
-8.80167
-8.76668
-8.72988
-8.69146
-8.65156
-8.6104
-8.56815
-8.52502
-8.48121
-8.43693
-8.39236
-8.34769
-8.30312
-8.25878
-8.21483
-8.17137
-8.12849
-8.08622
-8.04456
-8.00344
-7.96277
-7.92233
-7.88175
-7.84107
-7.79981
-7.75744
-7.71344
-7.66711
-7.6178
-7.56463
-7.5067
-7.44302
-7.37249
-7.29392
-7.20594
-7.10718
-6.99611
-6.87142
-6.73169
-6.57554
-6.40144
-6.20795
-5.99366
-5.75711
-5.49695
-5.212
-4.90114
-4.56333
-4.19775
-3.80383
-3.38131
-2.93012
-2.45051
-1.943
-1.40854
-0.84841
-0.264402
0.341341
0.966234
1.60734
2.26139
2.9248
3.59384
4.26461
4.93326
5.59594
6.24904
6.88912
7.51308
8.11817
8.70202
9.26269
9.7986
10.3086
10.7919
11.248
11.6769
12.0788
12.454
12.8033
13.1274
13.4271
13.7036
13.9578
14.191
14.4044
14.5991
14.7765
14.9377
15.084
15.2164
15.3361
15.4442
15.5414
15.6288
15.7072
15.7774
15.84
15.8957
15.9453
15.9892
16.0281
16.0626
16.0931
16.1201
16.1442
16.1657
16.1853
16.2034
16.22
16.2353
16.2455
16.2547
16.2207
-7.96928
-7.98871
-8.01486
-8.03419
-8.04857
-8.05989
-8.06874
-8.07566
-8.08132
-8.08626
-8.09101
-8.09601
-8.10171
-8.10848
-8.11671
-8.12663
-8.13853
-8.15254
-8.16881
-8.18736
-8.20823
-8.23135
-8.25665
-8.28401
-8.31327
-8.34426
-8.37677
-8.41058
-8.44545
-8.48113
-8.51737
-8.55391
-8.5905
-8.6269
-8.66287
-8.69818
-8.73262
-8.76598
-8.79808
-8.82873
-8.8578
-8.88511
-8.91055
-8.93398
-8.9553
-8.97441
-8.99119
-9.0056
-9.01753
-9.02694
-9.03374
-9.03791
-9.03938
-9.03814
-9.03414
-9.0274
-9.01786
-9.00557
-8.99052
-8.97277
-8.95232
-8.92928
-8.90369
-8.87566
-8.84528
-8.8127
-8.77802
-8.74143
-8.70307
-8.66315
-8.62185
-8.57938
-8.53596
-8.49181
-8.44716
-8.40224
-8.35725
-8.31242
-8.26795
-8.224
-8.18075
-8.13832
-8.09681
-8.05626
-8.01667
-7.97801
-7.94018
-7.90293
-7.86612
-7.82926
-7.79243
-7.75471
-7.71571
-7.67465
-7.63091
-7.58354
-7.53168
-7.4743
-7.41022
-7.33827
-7.25688
-7.16484
-7.06041
-6.94253
-6.80945
-6.66006
-6.49251
-6.30561
-6.09756
-5.86719
-5.6128
-5.33342
-5.02761
-4.69454
-4.33313
-3.94301
-3.52367
-3.07516
-2.5975
-2.0913
-1.5574
-0.997183
-0.4124
0.194737
0.821616
1.46529
2.12238
2.78936
3.46234
4.1375
4.81084
5.47855
6.13685
6.7823
7.41166
8.02213
8.61129
9.1771
9.718
10.2327
10.7205
11.1808
11.6137
12.0192
12.3978
12.7502
13.0771
13.3795
13.6585
13.9151
14.1505
14.3659
14.5626
14.7419
14.9049
15.053
15.1871
15.3084
15.418
15.5167
15.6055
15.6853
15.7567
15.8206
15.8775
15.9281
15.973
16.0127
16.0477
16.0786
16.1058
16.1296
16.1506
16.169
16.185
16.1984
16.209
16.2126
16.2134
16.1684
-7.96093
-7.98151
-8.00915
-8.02972
-8.04536
-8.05806
-8.06838
-8.0768
-8.084
-8.09052
-8.09688
-8.10349
-8.11078
-8.11908
-8.12875
-8.14
-8.15311
-8.16818
-8.18537
-8.20468
-8.22617
-8.24974
-8.27536
-8.30288
-8.33216
-8.36303
-8.39529
-8.42872
-8.46309
-8.49818
-8.53374
-8.56953
-8.60531
-8.64086
-8.67594
-8.71034
-8.74386
-8.7763
-8.80748
-8.83723
-8.8654
-8.89183
-8.91639
-8.93896
-8.95942
-8.97765
-8.99357
-9.00708
-9.0181
-9.02656
-9.03237
-9.03551
-9.03589
-9.0335
-9.02828
-9.02024
-9.00933
-8.9956
-8.97903
-8.95969
-8.93759
-8.91283
-8.88546
-8.85563
-8.82341
-8.78898
-8.75248
-8.71408
-8.67397
-8.63237
-8.58949
-8.54557
-8.50085
-8.45557
-8.41
-8.36439
-8.31897
-8.27398
-8.22966
-8.18619
-8.14376
-8.10251
-8.06255
-8.02395
-7.9867
-7.95077
-7.91608
-7.88243
-7.84938
-7.8171
-7.7848
-7.75218
-7.71848
-7.68311
-7.64526
-7.60409
-7.55866
-7.5079
-7.45064
-7.38547
-7.31101
-7.22572
-7.12828
-7.01721
-6.8911
-6.7484
-6.58758
-6.40705
-6.20528
-5.98075
-5.73203
-5.4578
-5.15679
-4.82794
-4.47037
-4.08349
-3.66689
-3.22042
-2.74417
-2.23866
-1.70478
-1.14394
-0.5579
0.0511035
0.680437
1.32709
1.98773
2.65874
3.33625
4.01634
4.69495
5.36816
6.03211
6.68323
7.31825
7.93424
8.52875
9.09969
9.64543
10.1647
10.6568
11.1211
11.5576
11.9664
12.3482
12.7033
13.0329
13.3377
13.6188
13.8775
14.1148
14.3321
14.5305
14.7115
14.8761
15.0257
15.1612
15.284
15.3948
15.4948
15.5849
15.6658
15.7384
15.8033
15.8612
15.9128
15.9585
15.999
16.0345
16.0657
16.0929
16.1164
16.1366
16.1536
16.1675
16.1778
16.1839
16.1815
16.1749
16.121
-7.96043
-7.98132
-8.00902
-8.02996
-8.04621
-8.05972
-8.071
-8.08051
-8.08887
-8.09662
-8.10424
-8.11212
-8.12067
-8.13016
-8.14094
-8.15321
-8.1672
-8.18302
-8.20081
-8.22058
-8.24239
-8.26614
-8.29181
-8.31925
-8.34835
-8.37892
-8.41078
-8.44373
-8.47755
-8.51203
-8.54692
-8.58201
-8.61706
-8.65185
-8.68618
-8.71982
-8.75258
-8.78427
-8.81472
-8.84373
-8.87118
-8.8969
-8.92075
-8.9426
-8.96233
-8.97983
-8.99498
-9.00769
-9.01787
-9.02542
-9.03027
-9.03238
-9.03165
-9.02807
-9.02156
-9.01214
-8.99975
-8.98445
-8.96621
-8.94511
-8.92117
-8.8945
-8.86517
-8.83332
-8.79906
-8.76259
-8.72404
-8.68364
-8.64159
-8.59814
-8.55351
-8.50799
-8.46184
-8.41535
-8.36879
-8.32244
-8.27657
-8.23146
-8.18734
-8.14444
-8.10296
-8.06304
-8.02483
-7.98839
-7.95372
-7.92081
-7.88955
-7.85968
-7.83106
-7.80325
-7.77604
-7.74878
-7.72073
-7.69132
-7.65968
-7.62501
-7.58629
-7.54238
-7.49211
-7.43388
-7.36645
-7.28812
-7.19777
-7.09362
-6.97448
-6.83844
-6.68424
-6.50993
-6.31426
-6.09535
-5.85203
-5.58263
-5.28613
-4.96119
-4.60716
-4.22318
-3.80897
-3.36418
-2.889
-2.38386
-1.8498
-1.28811
-0.70059
-0.0894515
0.542663
1.1927
1.85736
2.53289
3.21545
3.9009
4.58521
5.26423
5.9341
6.59108
7.23184
7.8534
8.4532
9.02917
9.57959
10.1033
10.5993
11.0673
11.5072
11.9192
12.3037
12.6615
12.9933
13.3003
13.5834
13.8439
14.0829
14.3018
14.5018
14.6842
14.8502
15.0011
15.138
15.262
15.374
15.4752
15.5663
15.6483
15.7219
15.7878
15.8466
15.899
15.9455
15.9866
16.0226
16.054
16.0811
16.1042
16.1236
16.1392
16.151
16.1581
16.16
16.1521
16.1391
16.078
-7.96715
-7.98755
-8.01415
-8.03465
-8.05088
-8.06459
-8.07628
-8.08636
-8.09543
-8.10396
-8.11243
-8.12117
-8.13056
-8.14087
-8.15238
-8.16529
-8.17981
-8.19604
-8.21412
-8.23405
-8.25589
-8.27956
-8.30503
-8.33218
-8.36091
-8.39102
-8.42237
-8.45476
-8.48798
-8.52183
-8.55608
-8.59052
-8.62492
-8.65906
-8.69276
-8.72578
-8.75795
-8.78906
-8.81894
-8.84741
-8.87432
-8.8995
-8.92282
-8.94411
-8.96327
-8.98015
-8.99465
-9.00665
-9.01604
-9.02274
-9.02664
-9.0277
-9.02583
-9.021
-9.01313
-9.00222
-8.98824
-8.97121
-8.95114
-8.9281
-8.90214
-8.87336
-8.84185
-8.80777
-8.77126
-8.73252
-8.69173
-8.64913
-8.60495
-8.55946
-8.51294
-8.46568
-8.418
-8.37019
-8.32258
-8.27547
-8.22917
-8.18396
-8.14012
-8.09789
-8.05748
-8.01908
-7.9828
-7.94874
-7.9169
-7.88725
-7.85969
-7.83398
-7.8098
-7.78706
-7.76515
-7.74346
-7.72136
-7.69812
-7.67295
-7.64497
-7.61311
-7.57624
-7.53295
-7.48185
-7.4214
-7.35024
-7.26682
-7.16972
-7.0573
-6.92799
-6.7801
-6.61203
-6.42211
-6.20878
-5.97053
-5.70595
-5.41374
-5.09275
-4.7421
-4.36105
-3.9491
-3.50594
-3.0317
-2.52686
-1.9924
-1.42962
-0.840288
-0.226617
0.408694
1.06259
1.73168
2.41218
3.10011
3.79128
4.4815
5.16656
5.84243
6.50533
7.15179
7.7788
8.38376
8.96454
9.51942
10.0472
10.547
11.0184
11.4614
11.8762
12.2633
12.6233
12.9573
13.2661
13.551
13.8131
14.0537
14.274
14.4754
14.6591
14.8264
14.9785
15.1166
15.2417
15.3549
15.4571
15.5492
15.6322
15.7067
15.7735
15.8332
15.8864
15.9336
15.9752
16.0116
16.0431
16.0701
16.0928
16.1113
16.1255
16.1352
16.1394
16.1373
16.1245
16.106
16.039
-7.97994
-7.99921
-8.02386
-8.04323
-8.05882
-8.07214
-8.08367
-8.0938
-8.10307
-8.1119
-8.12074
-8.12989
-8.13969
-8.15038
-8.16223
-8.1754
-8.1901
-8.2064
-8.22445
-8.24425
-8.26585
-8.28919
-8.31426
-8.34093
-8.36912
-8.39866
-8.4294
-8.46116
-8.49376
-8.52698
-8.56063
-8.59447
-8.62831
-8.66192
-8.6951
-8.72765
-8.75938
-8.79007
-8.81956
-8.84766
-8.8742
-8.89901
-8.92194
-8.94283
-8.96154
-8.97792
-8.99185
-9.00321
-9.01187
-9.01773
-9.02069
-9.02069
-9.01762
-9.01145
-9.00211
-8.98959
-8.97384
-8.95493
-8.93283
-8.90766
-8.87945
-8.84833
-8.81441
-8.77787
-8.73885
-8.69761
-8.65433
-8.60929
-8.56275
-8.51503
-8.46641
-8.41726
-8.36788
-8.31865
-8.2699
-8.22198
-8.17522
-8.12994
-8.08643
-8.04495
-8.00575
-7.969
-7.93485
-7.90337
-7.87458
-7.84846
-7.82485
-7.80354
-7.78431
-7.76666
-7.75038
-7.73455
-7.71863
-7.70182
-7.68333
-7.66224
-7.63741
-7.60771
-7.57154
-7.52767
-7.47433
-7.41039
-7.334
-7.24395
-7.13828
-7.01567
-6.87411
-6.71226
-6.52812
-6.3204
-6.08727
-5.82751
-5.53956
-5.22248
-4.87513
-4.49687
-4.08696
-3.64523
-3.17162
-2.66676
-2.13152
-1.56725
-0.975695
-0.359088
0.279815
0.937934
1.61174
2.29747
2.99092
3.68791
4.38408
5.07516
5.75697
6.42565
7.07768
7.70993
8.31981
8.9051
9.46415
9.99568
10.4989
10.9735
11.4193
11.8366
12.226
12.5881
12.9239
13.2344
13.5209
13.7844
14.0264
14.248
14.4506
14.6356
14.804
14.9573
15.0965
15.2226
15.3368
15.44
15.5332
15.6171
15.6925
15.7602
15.8207
15.8746
15.9224
15.9645
16.0012
16.0329
16.0598
16.082
16.0996
16.1124
16.12
16.1215
16.1159
16.0986
16.0754
16.0035
-7.99748
-8.01517
-8.03731
-8.05499
-8.0694
-8.08178
-8.09261
-8.10225
-8.11119
-8.11981
-8.12851
-8.13758
-8.14734
-8.15797
-8.16975
-8.18279
-8.1973
-8.21334
-8.23104
-8.25042
-8.27154
-8.29433
-8.3188
-8.34482
-8.37234
-8.4012
-8.43128
-8.46237
-8.49433
-8.52692
-8.55997
-8.59326
-8.6266
-8.65976
-8.69256
-8.72476
-8.75619
-8.78661
-8.81587
-8.84374
-8.87007
-8.89464
-8.91732
-8.93791
-8.95626
-8.97221
-8.98563
-8.99636
-9.00428
-9.00928
-9.01123
-9.01005
-9.00564
-8.99796
-8.98694
-8.97258
-8.95485
-8.93379
-8.90941
-8.88181
-8.85106
-8.8173
-8.78064
-8.7413
-8.69947
-8.65538
-8.60931
-8.56153
-8.51237
-8.46214
-8.41122
-8.35996
-8.30875
-8.25797
-8.208
-8.15924
-8.11202
-8.06671
-8.02361
-7.98304
-7.9452
-7.91034
-7.87855
-7.84995
-7.82454
-7.80224
-7.78299
-7.76647
-7.75231
-7.74047
-7.73003
-7.7205
-7.71109
-7.70106
-7.68958
-7.67564
-7.65816
-7.63576
-7.60706
-7.57047
-7.52458
-7.46782
-7.39872
-7.31562
-7.21692
-7.10087
-6.9658
-6.80997
-6.6317
-6.42933
-6.20127
-5.94602
-5.66223
-5.34874
-5.00448
-4.62861
-4.22044
-3.77969
-3.30637
-2.80106
-2.26464
-1.69847
-1.10432
-0.484476
0.158298
0.820791
1.49945
2.19037
2.88933
3.59202
4.29399
4.99084
5.67832
6.35244
7.00962
7.64671
8.26103
8.8504
9.41315
9.94804
10.4543
10.9316
11.3799
11.7994
12.1908
12.5547
12.8922
13.2042
13.4921
13.757
14.0002
14.223
14.4268
14.6128
14.7824
14.9367
15.077
15.2042
15.3194
15.4236
15.5177
15.6026
15.6789
15.7474
15.8087
15.8634
15.9118
15.9543
15.9914
16.0231
16.0499
16.0716
16.0884
16.0999
16.1056
16.1045
16.0956
16.0745
16.047
15.9714
-8.01846
-8.0343
-8.05362
-8.06921
-8.08196
-8.09289
-8.10248
-8.11109
-8.11915
-8.12701
-8.13506
-8.14354
-8.15275
-8.16286
-8.17412
-8.18662
-8.20056
-8.21598
-8.23303
-8.25171
-8.27208
-8.2941
-8.31778
-8.343
-8.36971
-8.39777
-8.42706
-8.45742
-8.48868
-8.52064
-8.55312
-8.5859
-8.61881
-8.6516
-8.68409
-8.71605
-8.74727
-8.77753
-8.80665
-8.83439
-8.86057
-8.88499
-8.90746
-8.92779
-8.94581
-8.96133
-8.97419
-8.98424
-8.99134
-8.99534
-8.99613
-8.99361
-8.98767
-8.97827
-8.96534
-8.94887
-8.92886
-8.90533
-8.87832
-8.84793
-8.81427
-8.77748
-8.73773
-8.69525
-8.65026
-8.60304
-8.55387
-8.50311
-8.45107
-8.39816
-8.34476
-8.29129
-8.23816
-8.18579
-8.13466
-8.08508
-8.03754
-7.99234
-7.9499
-7.91044
-7.87431
-7.84161
-7.81258
-7.78723
-7.76557
-7.74756
-7.73304
-7.72169
-7.71334
-7.70737
-7.70335
-7.70045
-7.6979
-7.69496
-7.69076
-7.68419
-7.67422
-7.65927
-7.63811
-7.6089
-7.57044
-7.52087
-7.45897
-7.38273
-7.29083
-7.18119
-7.05239
-6.90237
-6.72971
-6.53241
-6.30911
-6.05806
-5.77811
-5.46783
-5.12628
-4.75234
-4.3455
-3.90529
-3.43191
-2.92578
-2.38792
-1.81963
-1.22278
-0.599699
0.0468808
0.713639
1.39698
2.09287
2.79711
3.50514
4.21249
4.91459
5.60713
6.28607
6.94774
7.589
8.2071
8.79992
9.36576
9.90348
10.4123
10.8919
11.3422
11.7637
12.1567
12.5223
12.8612
13.1746
13.4637
13.7298
13.9741
14.1981
14.403
14.5902
14.7609
14.9163
15.0575
15.1858
15.302
15.4073
15.5024
15.5883
15.6655
15.735
15.7971
15.8524
15.9014
15.9444
15.9818
16.0137
16.0403
16.0616
16.0776
16.0878
16.0918
16.0883
16.0765
16.052
16.0209
15.9422
-8.04266
-8.05657
-8.073
-8.0862
-8.09682
-8.10575
-8.1135
-8.12043
-8.12696
-8.13342
-8.14019
-8.14747
-8.15555
-8.16458
-8.17477
-8.18622
-8.19909
-8.21344
-8.2294
-8.24696
-8.26621
-8.28709
-8.30964
-8.33375
-8.35938
-8.3864
-8.41472
-8.44418
-8.47463
-8.50588
-8.53774
-8.57
-8.60248
-8.63492
-8.66715
-8.69889
-8.72997
-8.76011
-8.78914
-8.81678
-8.84286
-8.86711
-8.88936
-8.90938
-8.92699
-8.94199
-8.95419
-8.96342
-8.96952
-8.97236
-8.97178
-8.9677
-8.95997
-8.94859
-8.93345
-8.91459
-8.89195
-8.86564
-8.83566
-8.80218
-8.76527
-8.72515
-8.68201
-8.63608
-8.58764
-8.53701
-8.4845
-8.43053
-8.37547
-8.31976
-8.26381
-8.20811
-8.15308
-8.09926
-8.04701
-7.99685
-7.94921
-7.90443
-7.86294
-7.825
-7.79093
-7.76088
-7.73504
-7.71339
-7.69598
-7.68279
-7.67349
-7.66789
-7.66554
-7.66607
-7.66876
-7.67278
-7.67739
-7.68179
-7.685
-7.68602
-7.68352
-7.67619
-7.6624
-7.64066
-7.60936
-7.56699
-7.51189
-7.44246
-7.35692
-7.25356
-7.13056
-6.98618
-6.81863
-6.62617
-6.40714
-6.16003
-5.88345
-5.57609
-5.23677
-4.86448
-4.45858
-4.01875
-3.54513
-3.03822
-2.49897
-1.92874
-1.32941
-0.703311
-0.0532539
0.617466
1.3051
2.00554
2.71444
3.4272
4.13916
4.84573
5.54249
6.22537
6.89069
7.53526
8.15638
8.75191
9.32024
9.86019
10.3711
10.8525
11.3046
11.7276
12.1222
12.4891
12.8293
13.1439
13.4343
13.7015
13.9471
14.1722
14.3783