/*--------------------------------*- C++ -*----------------------------------*\
  =========                 |
  \\      /  F ield         | OpenFOAM: The Open Source CFD Toolbox
   \\    /   O peration     | Website:  https://openfoam.org
    \\  /    A nd           | Version:  8
     \\/     M anipulation  |
\*---------------------------------------------------------------------------*/
FoamFile
{
    version     2.0;
    format      ascii;
    class       surfaceScalarField;
    location    "100";
    object      phi;
}
// * * * * * * * * * * * * * * * * * * * * * * * * * * * * * * * * * * * * * //

dimensions      [0 3 -1 0 0 0 0];

internalField   nonuniform List<scalar> 
24170
(
3.129e-06
5.94063e-08
3.0466e-06
8.23993e-08
2.97347e-06
7.31237e-08
2.90478e-06
6.86824e-08
2.84037e-06
6.43998e-08
2.78294e-06
5.7427e-08
2.73349e-06
4.94467e-08
2.69136e-06
4.21148e-08
2.65547e-06
3.58881e-08
2.62473e-06
3.07348e-08
2.59813e-06
2.65929e-08
2.57478e-06
2.33475e-08
2.55392e-06
2.08522e-08
2.53479e-06
1.91264e-08
2.51673e-06
1.80614e-08
2.49752e-06
1.9212e-08
2.47717e-06
2.03413e-08
3.98331e-08
2.43734e-06
3.45306e-06
2.3593e-08
3.457e-06
7.84609e-08
3.45052e-06
7.95975e-08
3.43904e-06
8.01588e-08
3.42422e-06
7.92103e-08
3.40693e-06
7.47154e-08
3.38763e-06
6.87352e-08
3.36701e-06
6.27317e-08
3.34573e-06
5.71583e-08
3.32438e-06
5.20778e-08
3.30343e-06
4.75425e-08
3.28313e-06
4.36448e-08
3.26364e-06
4.03297e-08
3.24496e-06
3.78091e-08
3.22718e-06
3.58433e-08
3.2101e-06
3.6285e-08
3.19432e-06
3.61241e-08
4.85891e-08
3.18556e-06
3.66815e-06
1.79555e-08
3.67918e-06
6.74294e-08
3.68539e-06
7.33879e-08
3.68939e-06
7.6152e-08
3.69095e-06
7.76506e-08
3.68992e-06
7.57333e-08
3.68671e-06
7.1942e-08
3.68177e-06
6.76666e-08
3.67549e-06
6.34355e-08
3.66818e-06
5.9384e-08
3.66011e-06
5.56133e-08
3.65149e-06
5.22556e-08
3.64249e-06
4.93285e-08
3.63322e-06
4.70738e-08
3.62366e-06
4.54041e-08
3.61436e-06
4.5579e-08
3.60431e-06
4.61782e-08
5.25484e-08
3.60034e-06
3.92584e-06
1.75014e-08
3.9359e-06
5.73725e-08
3.94252e-06
6.67587e-08
3.94803e-06
7.0644e-08
3.95239e-06
7.32804e-08
3.95528e-06
7.28446e-08
3.95687e-06
7.03488e-08
3.9574e-06
6.71331e-08
3.95705e-06
6.3778e-08
3.95596e-06
6.04663e-08
3.95426e-06
5.73121e-08
3.95204e-06
5.44661e-08
3.94939e-06
5.19827e-08
3.94638e-06
5.00779e-08
3.94302e-06
4.87673e-08
3.93982e-06
4.87795e-08
3.93649e-06
4.95081e-08
5.26579e-08
3.93638e-06
4.20819e-06
1.64357e-08
4.21596e-06
4.96024e-08
4.22163e-06
6.10853e-08
4.2267e-06
6.55747e-08
4.23139e-06
6.85806e-08
4.2353e-06
6.89373e-08
4.23838e-06
6.72629e-08
4.24075e-06
6.47617e-08
4.2425e-06
6.20203e-08
4.24372e-06
5.92418e-08
4.24448e-06
5.65492e-08
4.24485e-06
5.40919e-08
4.24488e-06
5.19504e-08
4.24466e-06
5.02962e-08
4.24424e-06
4.91846e-08
4.24403e-06
4.89929e-08
4.24411e-06
4.94185e-08
5.0791e-08
4.24598e-06
4.5107e-06
1.482e-08
4.51686e-06
4.34454e-08
4.52208e-06
5.58635e-08
4.52685e-06
6.07965e-08
4.53151e-06
6.39196e-08
4.53569e-06
6.47557e-08
4.53927e-06
6.36742e-08
4.54232e-06
6.17076e-08
4.54491e-06
5.9431e-08
4.54709e-06
5.70609e-08
4.5489e-06
5.47292e-08
4.55042e-06
5.25758e-08
4.55167e-06
5.06931e-08
4.55276e-06
4.92075e-08
4.55377e-06
4.8174e-08
4.555e-06
4.77566e-08
4.55667e-06
4.77522e-08
4.80055e-08
4.55945e-06
4.83432e-06
1.32171e-08
4.8396e-06
3.81637e-08
4.8447e-06
5.07659e-08
4.84936e-06
5.61322e-08
4.85393e-06
5.93394e-08
4.85818e-06
6.05066e-08
4.86196e-06
5.98878e-08
4.86532e-06
5.83489e-08
4.8683e-06
5.64455e-08
4.87095e-06
5.44047e-08
4.87331e-06
5.2365e-08
4.87543e-06
5.04542e-08
4.87736e-06
4.87651e-08
4.87918e-06
4.7386e-08
4.881e-06
4.63531e-08
4.88304e-06
4.57094e-08
4.88551e-06
4.52853e-08
4.48024e-08
4.88871e-06
5.18104e-06
1.17582e-08
5.18573e-06
3.34739e-08
5.1907e-06
4.57916e-08
5.19531e-06
5.1521e-08
5.19984e-06
5.48072e-08
5.20412e-06
5.62156e-08
5.20803e-06
5.5976e-08
5.21158e-06
5.48006e-08
5.2148e-06
5.3214e-08
5.21775e-06
5.14529e-08
5.22046e-06
4.96574e-08
5.22296e-06
4.79449e-08
5.22533e-06
4.64e-08
5.22763e-06
4.50831e-08
5.22997e-06
4.40089e-08
5.23252e-06
4.31571e-08
5.23542e-06
4.23795e-08
4.14153e-08
5.23881e-06
5.55268e-06
1.04104e-08
5.55686e-06
2.92927e-08
5.56164e-06
4.10109e-08
5.56621e-06
4.69514e-08
5.57071e-06
5.02945e-08
5.57505e-06
5.18759e-08
5.57907e-06
5.1951e-08
5.58277e-06
5.10949e-08
5.5862e-06
4.97881e-08
5.58937e-06
4.82725e-08
5.59234e-06
4.66878e-08
5.59514e-06
4.51408e-08
5.59783e-06
4.37059e-08
5.60049e-06
4.24236e-08
5.60321e-06
4.1292e-08
5.6061e-06
4.02656e-08
5.60925e-06
3.92188e-08
3.79495e-08
5.61272e-06
5.95103e-06
9.15486e-09
5.95476e-06
2.55605e-08
5.9593e-06
3.64639e-08
5.96382e-06
4.24338e-08
5.96831e-06
4.57967e-08
5.97269e-06
4.74924e-08
5.97682e-06
4.78204e-08
5.98067e-06
4.72424e-08
5.98427e-06
4.61845e-08
5.98765e-06
4.48878e-08
5.99085e-06
4.34884e-08
5.9939e-06
4.20836e-08
5.99687e-06
4.0737e-08
5.99982e-06
3.94769e-08
6.00281e-06
3.82926e-08
6.00594e-06
3.71338e-08
6.00926e-06
3.59017e-08
3.44571e-08
6.01275e-06
6.37798e-06
7.99085e-09
6.38132e-06
2.22103e-08
6.38562e-06
3.21584e-08
6.39007e-06
3.7982e-08
6.39455e-06
4.13165e-08
6.39896e-06
4.30741e-08
6.40319e-06
4.35931e-08
6.40718e-06
4.32497e-08
6.41095e-06
4.24114e-08
6.41452e-06
4.13089e-08
6.41793e-06
4.00742e-08
6.42122e-06
3.87944e-08
6.42443e-06
3.75249e-08
6.42762e-06
3.62862e-08
6.43084e-06
3.50667e-08
6.43415e-06
3.38224e-08
6.43757e-06
3.24823e-08
3.09568e-08
6.44107e-06
5.74175e-06
7.07069e-09
5.74432e-06
1.96373e-08
5.74777e-06
2.87065e-08
5.75147e-06
3.42794e-08
5.75524e-06
3.75463e-08
5.75899e-06
3.93201e-08
5.76263e-06
3.99531e-08
5.7661e-06
3.97719e-08
5.76941e-06
3.90957e-08
5.77258e-06
3.81398e-08
5.77562e-06
3.70303e-08
5.77857e-06
3.58469e-08
5.78145e-06
3.46388e-08
5.78431e-06
3.34247e-08
5.78718e-06
3.21942e-08
5.79009e-06
3.09141e-08
5.79303e-06
2.95326e-08
2.79972e-08
5.79599e-06
6.99913e-06
6.09452e-09
7.00185e-06
1.69122e-08
7.0056e-06
2.4958e-08
7.00974e-06
3.01363e-08
7.01402e-06
3.32556e-08
7.01834e-06
3.49997e-08
7.02258e-06
3.5714e-08
7.02667e-06
3.56781e-08
7.0306e-06
3.51593e-08
7.03439e-06
3.43511e-08
7.03805e-06
3.33703e-08
7.0416e-06
3.22903e-08
7.04508e-06
3.11538e-08
7.04853e-06
2.9979e-08
7.05195e-06
2.87613e-08
7.05539e-06
2.74789e-08
7.05881e-06
2.61021e-08
2.46017e-08
7.06221e-06
8.53187e-06
5.06847e-09
8.53472e-06
1.40617e-08
8.53873e-06
2.09387e-08
8.54331e-06
2.55555e-08
8.54814e-06
2.84215e-08
8.55307e-06
3.00682e-08
8.55797e-06
3.08136e-08
8.56275e-06
3.08901e-08
8.5674e-06
3.05134e-08
8.5719e-06
2.98468e-08
8.57627e-06
2.89981e-08
8.58052e-06
2.80292e-08
8.58469e-06
2.69809e-08
8.5888e-06
2.58701e-08
8.59286e-06
2.47005e-08
8.59687e-06
2.34622e-08
8.60082e-06
2.21425e-08
2.07322e-08
8.60469e-06
1.04003e-05
4.00107e-09
1.04032e-05
1.11036e-08
1.04075e-05
1.66669e-08
1.04125e-05
2.05419e-08
1.04179e-05
2.30203e-08
1.04235e-05
2.44815e-08
1.04291e-05
2.51874e-08
1.04347e-05
2.53276e-08
1.04401e-05
2.50642e-08
1.04454e-05
2.453e-08
1.04506e-05
2.3812e-08
1.04557e-05
2.29684e-08
1.04606e-05
2.20306e-08
1.04655e-05
2.10206e-08
1.04702e-05
1.99444e-08
1.04749e-05
1.88061e-08
1.04794e-05
1.7603e-08
1.6339e-08
1.04838e-05
1.26779e-05
2.89497e-09
1.2681e-05
8.03077e-09
1.26855e-05
1.21373e-08
1.26909e-05
1.5083e-08
1.26969e-05
1.7018e-08
1.27032e-05
1.81807e-08
1.27097e-05
1.87623e-08
1.27161e-05
1.8902e-08
1.27224e-05
1.87155e-08
1.27287e-05
1.82959e-08
1.27348e-05
1.77128e-08
1.27407e-05
1.70097e-08
1.27465e-05
1.62163e-08
1.27522e-05
1.53498e-08
1.27577e-05
1.44237e-08
1.27631e-05
1.34447e-08
1.27682e-05
1.24217e-08
1.1359e-08
1.27732e-05
1.54543e-05
1.73833e-09
1.54576e-05
4.794e-09
1.54624e-05
7.28802e-09
1.54684e-05
9.114e-09
1.54751e-05
1.03331e-08
1.54822e-05
1.10686e-08
1.54895e-05
1.14301e-08
1.54969e-05
1.15008e-08
1.55043e-05
1.13489e-08
1.55115e-05
1.10301e-08
1.55186e-05
1.05873e-08
1.55256e-05
1.00507e-08
1.55324e-05
9.44058e-09
1.55389e-05
8.77165e-09
1.55453e-05
8.05519e-09
1.55514e-05
7.3014e-09
1.55573e-05
6.51956e-09
5.71622e-09
1.5563e-05
1.88389e-05
4.89166e-10
1.88424e-05
1.26841e-09
1.88477e-05
1.94345e-09
1.88544e-05
2.44048e-09
1.8862e-05
2.76422e-09
1.88701e-05
2.9409e-09
1.88785e-05
2.991e-09
1.88871e-05
2.93403e-09
1.88957e-05
2.78755e-09
1.89041e-05
2.56755e-09
1.89124e-05
2.28602e-09
1.89205e-05
1.95379e-09
1.89284e-05
1.57873e-09
1.8936e-05
1.16819e-09
1.89433e-05
7.28354e-10
1.89503e-05
2.6638e-10
1.8957e-05
-2.10332e-10
-6.98222e-10
1.89634e-05
2.29648e-05
-9.56003e-10
2.29689e-05
-2.83382e-09
2.29751e-05
-4.31401e-09
2.2983e-05
-5.41273e-09
2.29919e-05
-6.16263e-09
2.30015e-05
-6.65515e-09
2.30115e-05
-6.97469e-09
2.30216e-05
-7.18077e-09
2.30317e-05
-7.30728e-09
2.30416e-05
-7.39076e-09
2.30513e-05
-7.45298e-09
2.30608e-05
-7.51334e-09
2.307e-05
-7.57668e-09
2.30788e-05
-7.65042e-09
2.30872e-05
-7.73314e-09
2.30953e-05
-7.82767e-09
2.3103e-05
-7.92848e-09
-8.03925e-09
2.31104e-05
1.68118e-05
-2.09181e-09
1.6815e-05
-6.02529e-09
1.68199e-05
-9.18313e-09
1.68259e-05
-1.14672e-08
1.68327e-05
-1.29531e-08
1.68399e-05
-1.38659e-08
1.68474e-05
-1.43996e-08
1.68548e-05
-1.46529e-08
1.68622e-05
-1.47119e-08
1.68695e-05
-1.4642e-08
1.68765e-05
-1.45033e-08
1.68833e-05
-1.43241e-08
1.68899e-05
-1.41305e-08
1.68962e-05
-1.39298e-08
1.69021e-05
-1.37352e-08
1.69079e-05
-1.35459e-08
1.69133e-05
-1.33671e-08
-1.31971e-08
1.69185e-05
1.46357e-05
-3.18172e-09
1.46388e-05
-9.12997e-09
1.46435e-05
-1.39289e-08
1.46493e-05
-1.72598e-08
1.46556e-05
-1.93032e-08
1.46623e-05
-2.05124e-08
1.4669e-05
-2.11547e-08
1.46757e-05
-2.13721e-08
1.46823e-05
-2.12914e-08
1.46887e-05
-2.10324e-08
1.46949e-05
-2.06682e-08
1.47008e-05
-2.02467e-08
1.47065e-05
-1.97954e-08
1.47119e-05
-1.93357e-08
1.4717e-05
-1.8879e-08
1.47219e-05
-1.84339e-08
1.47265e-05
-1.80011e-08
-1.75865e-08
1.47309e-05
1.27412e-05
-4.20201e-09
1.27443e-05
-1.22721e-08
1.27491e-05
-1.87865e-08
1.27548e-05
-2.29455e-08
1.27609e-05
-2.53367e-08
1.27671e-05
-2.67342e-08
1.27733e-05
-2.74025e-08
1.27794e-05
-2.74905e-08
1.27853e-05
-2.72064e-08
1.2791e-05
-2.67152e-08
1.27965e-05
-2.61063e-08
1.28016e-05
-2.54332e-08
1.28066e-05
-2.47291e-08
1.28113e-05
-2.40218e-08
1.28157e-05
-2.33226e-08
1.28199e-05
-2.26437e-08
1.28239e-05
-2.19838e-08
-2.13498e-08
1.28276e-05
1.10918e-05
-5.05506e-09
1.1095e-05
-1.55061e-08
1.11002e-05
-2.39347e-08
1.11058e-05
-2.86037e-08
1.11116e-05
-3.11151e-08
1.11174e-05
-3.25997e-08
1.11232e-05
-3.31898e-08
1.11288e-05
-3.30679e-08
1.11341e-05
-3.25357e-08
1.11392e-05
-3.17905e-08
1.1144e-05
-3.0926e-08
1.11486e-05
-2.99966e-08
1.11529e-05
-2.90472e-08
1.1157e-05
-2.81018e-08
1.11608e-05
-2.71802e-08
1.11645e-05
-2.62853e-08
1.11679e-05
-2.54232e-08
-2.45933e-08
1.11711e-05
9.65583e-06
-5.67025e-09
9.65926e-06
-1.89401e-08
9.66462e-06
-2.92988e-08
9.67014e-06
-3.41289e-08
9.67573e-06
-3.67095e-08
9.68133e-06
-3.82008e-08
9.68671e-06
-3.85698e-08
9.69178e-06
-3.81469e-08
9.69658e-06
-3.73343e-08
9.70111e-06
-3.63264e-08
9.70538e-06
-3.52026e-08
9.70941e-06
-3.40218e-08
9.71319e-06
-3.28303e-08
9.71674e-06
-3.1659e-08
9.72008e-06
-3.05213e-08
9.72322e-06
-2.94251e-08
9.72616e-06
-2.83705e-08
-2.7356e-08
9.72892e-06
8.40533e-06
-5.64766e-09
8.40965e-06
-2.3264e-08
8.4149e-06
-3.45499e-08
8.41994e-06
-3.91798e-08
8.42534e-06
-4.21052e-08
8.43078e-06
-4.3644e-08
8.4359e-06
-4.36943e-08
8.44064e-06
-4.28943e-08
8.44505e-06
-4.1746e-08
8.44915e-06
-4.04263e-08
8.45295e-06
-3.90045e-08
8.45647e-06
-3.75428e-08
8.45972e-06
-3.60898e-08
8.46274e-06
-3.46738e-08
8.46552e-06
-3.33097e-08
8.4681e-06
-3.20036e-08
8.47048e-06
-3.07556e-08
-2.95661e-08
8.47269e-06
7.31455e-06
-2.91558e-09
7.3212e-06
-2.99151e-08
7.32676e-06
-4.01153e-08
7.33173e-06
-4.41515e-08
7.33715e-06
-4.75266e-08
7.3425e-06
-4.89935e-08
7.3474e-06
-4.8604e-08
7.35185e-06
-4.73409e-08
7.35585e-06
-4.57584e-08
7.35944e-06
-4.40157e-08
7.36263e-06
-4.21942e-08
7.36545e-06
-4.03631e-08
7.36793e-06
-3.85784e-08
7.37012e-06
-3.68626e-08
7.37204e-06
-3.52307e-08
7.37372e-06
-3.36856e-08
7.37519e-06
-3.22265e-08
-3.08463e-08
7.37647e-06
6.36245e-06
4.69531e-09
6.3719e-06
-3.93636e-08
6.37934e-06
-4.75546e-08
6.38599e-06
-5.08077e-08
6.39229e-06
-5.3829e-08
6.39762e-06
-5.43296e-08
6.40194e-06
-5.29243e-08
6.40544e-06
-5.08484e-08
6.40827e-06
-4.85856e-08
6.41048e-06
-4.62281e-08
6.41213e-06
-4.38504e-08
6.4133e-06
-4.15335e-08
6.41405e-06
-3.93252e-08
6.41443e-06
-3.72446e-08
6.4145e-06
-3.53049e-08
6.41431e-06
-3.35021e-08
6.41392e-06
-3.18375e-08
-3.02887e-08
6.41336e-06
5.54121e-06
8.95401e-09
5.55033e-06
-4.8493e-08
5.55836e-06
-5.55813e-08
5.56607e-06
-5.85227e-08
5.57254e-06
-6.03067e-08
5.57688e-06
-5.86729e-08
5.57914e-06
-5.51861e-08
5.57972e-06
-5.1429e-08
5.57898e-06
-4.78539e-08
5.57722e-06
-4.44633e-08
5.57464e-06
-4.12771e-08
5.57144e-06
-3.83381e-08
5.56777e-06
-3.56539e-08
5.56374e-06
-3.32159e-08
5.55945e-06
-3.1021e-08
5.555e-06
-2.90521e-08
5.55047e-06
-2.73096e-08
-2.57462e-08
5.54592e-06
4.86004e-06
-2.34836e-08
4.86539e-06
-5.38395e-08
4.86524e-06
-5.54412e-08
4.86218e-06
-5.54615e-08
4.85702e-06
-5.51483e-08
4.84953e-06
-5.11866e-08
4.83984e-06
-4.55061e-08
4.82846e-06
-4.00536e-08
4.8159e-06
-3.52992e-08
4.80264e-06
-3.12035e-08
4.78906e-06
-2.76979e-08
4.77544e-06
-2.47195e-08
4.76197e-06
-2.21878e-08
4.74878e-06
-2.00327e-08
4.73596e-06
-1.8208e-08
4.72359e-06
-1.66791e-08
4.71176e-06
-1.54853e-08
-1.5145e-08
4.70116e-06
4.17919e-06
4.12535e-06
4.06991e-06
4.01445e-06
3.9593e-06
3.90811e-06
3.86261e-06
3.82255e-06
3.78725e-06
3.75605e-06
3.72835e-06
3.70363e-06
3.68144e-06
3.66141e-06
3.6432e-06
3.62652e-06
3.61104e-06
3.59589e-06
2.11989e-08
-2.13351e-08
4.51694e-08
-2.40811e-08
6.48497e-08
-1.98169e-08
7.8779e-08
-1.39975e-08
8.6331e-08
-7.66719e-09
8.76633e-08
-1.40556e-09
8.31863e-08
4.36481e-09
7.37275e-08
9.36335e-09
6.01353e-08
1.348e-08
4.33078e-08
1.67159e-08
2.40564e-08
1.91415e-08
3.01597e-09
2.09363e-08
-1.97239e-08
2.26349e-08
-4.50509e-08
2.52511e-08
-7.4422e-08
2.92226e-08
-1.03849e-07
2.93182e-08
-1.30574e-07
2.65046e-08
-1.6241e-07
3.17451e-08
-2.01025e-07
3.84243e-08
-2.46312e-07
4.52194e-08
-2.97681e-07
5.12064e-08
-3.53645e-07
5.59149e-08
-4.13498e-07
5.97143e-08
-4.76005e-07
6.24669e-08
-5.40444e-07
6.43088e-08
-6.06552e-07
6.60666e-08
-6.74282e-07
6.75946e-08
-7.43062e-07
6.87328e-08
-8.1259e-07
6.93952e-08
-8.8221e-07
6.95671e-08
-9.51606e-07
6.92575e-08
-1.02018e-06
6.85158e-08
-1.08771e-06
6.73883e-08
-1.15372e-06
6.59455e-08
-1.2181e-06
6.42445e-08
-1.28053e-06
6.23583e-08
-1.341e-06
6.03389e-08
-1.39932e-06
5.82485e-08
-1.45556e-06
5.61239e-08
-1.50963e-06
5.40111e-08
-1.56167e-06
5.1931e-08
-1.61164e-06
4.99142e-08
-1.6597e-06
4.79683e-08
-1.70586e-06
4.61125e-08
-1.7503e-06
4.43447e-08
-1.79303e-06
4.26755e-08
-1.83421e-06
4.1097e-08
-1.87388e-06
3.96147e-08
-1.91218e-06
3.82183e-08
-1.94915e-06
3.69111e-08
-1.98491e-06
3.56811e-08
-2.01951e-06
3.45297e-08
-2.05304e-06
3.3446e-08
-2.08555e-06
3.24317e-08
-2.11712e-06
3.14764e-08
-2.14779e-06
3.05819e-08
-2.17764e-06
2.97401e-08
-2.2067e-06
2.89542e-08
-2.23503e-06
2.82172e-08
-2.26268e-06
2.75319e-08
-2.28969e-06
2.68933e-08
-2.31612e-06
2.63048e-08
-2.34199e-06
2.57632e-08
-2.3674e-06
2.52706e-08
-2.39233e-06
2.48262e-08
-2.4169e-06
2.44311e-08
-2.44108e-06
2.40872e-08
-2.46501e-06
2.37942e-08
-2.48865e-06
2.35556e-08
-2.51214e-06
2.33686e-08
-2.53545e-06
2.32389e-08
-2.55874e-06
2.31627e-08
-2.58195e-06
2.31468e-08
-2.60525e-06
2.31828e-08
-2.6286e-06
2.32787e-08
-2.65216e-06
2.3423e-08
-2.67587e-06
2.36247e-08
-2.6999e-06
2.38734e-08
-2.72415e-06
2.41761e-08
-2.74882e-06
2.45112e-08
-2.77378e-06
2.48886e-08
-2.79922e-06
2.52883e-08
-2.82499e-06
2.57207e-08
-2.85129e-06
2.61545e-08
-2.87793e-06
2.6601e-08
-2.90507e-06
2.70297e-08
-2.93252e-06
2.74529e-08
-2.96035e-06
2.78465e-08
-2.98846e-06
2.82141e-08
-3.0168e-06
2.85487e-08
-3.04541e-06
2.87805e-08
-3.07413e-06
2.88919e-08
-3.10284e-06
2.88438e-08
-3.13127e-06
2.85802e-08
-3.15891e-06
2.77636e-08
-3.18561e-06
2.68314e-08
-3.21204e-06
2.65196e-08
-3.23729e-06
2.53389e-08
-3.26105e-06
2.37932e-08
-3.28314e-06
2.20906e-08
-3.30328e-06
2.00766e-08
-3.32109e-06
1.76544e-08
-3.33588e-06
1.45338e-08
-3.34734e-06
1.10884e-08
-3.35515e-06
7.4117e-09
-3.35927e-06
3.65119e-09
-3.35928e-06
-4.05145e-10
-3.35513e-06
-4.57925e-09
-3.3468e-06
-8.66874e-09
-3.33428e-06
-1.28782e-08
-3.31737e-06
-1.71668e-08
-3.29559e-06
-2.20595e-08
-3.26849e-06
-2.7276e-08
-3.23674e-06
-3.1944e-08
-3.19965e-06
-3.71719e-08
-3.15675e-06
-4.30205e-08
-3.10839e-06
-4.83768e-08
-3.05444e-06
-5.39479e-08
-2.99441e-06
-5.99171e-08
-2.92861e-06
-6.5729e-08
-2.85711e-06
-7.14498e-08
-2.77986e-06
-7.73257e-08
-2.69687e-06
-8.30635e-08
-2.60824e-06
-8.87087e-08
-2.51403e-06
-9.41309e-08
-2.41455e-06
-9.93624e-08
-2.30998e-06
-1.04312e-07
-2.20068e-06
-1.08993e-07
-2.08696e-06
-1.13323e-07
-1.96923e-06
-1.17306e-07
-1.84788e-06
-1.20875e-07
-1.72337e-06
-1.24029e-07
-1.59614e-06
-1.26723e-07
-1.46669e-06
-1.28954e-07
-1.33547e-06
-1.3071e-07
-1.20299e-06
-1.32002e-07
-1.06968e-06
-1.3284e-07
-9.36017e-07
-1.33245e-07
-8.02428e-07
-1.33247e-07
-6.69311e-07
-1.32877e-07
-5.37002e-07
-1.32143e-07
-4.0591e-07
-1.31022e-07
-2.76045e-07
-1.29856e-07
-1.46884e-07
-1.29227e-07
-1.74404e-08
-1.29553e-07
1.11877e-07
-1.29467e-07
2.3888e-07
-1.27164e-07
3.62187e-07
-1.23486e-07
4.81309e-07
-1.19299e-07
5.95995e-07
-1.14872e-07
7.06161e-07
-1.10343e-07
8.11753e-07
-1.05772e-07
9.12801e-07
-1.01215e-07
1.00936e-06
-9.67249e-08
1.10154e-06
-9.2325e-08
1.1894e-06
-8.80087e-08
1.27309e-06
-8.38273e-08
1.35277e-06
-7.98025e-08
1.42856e-06
-7.59008e-08
1.50058e-06
-7.21198e-08
1.56897e-06
-6.84743e-08
1.63387e-06
-6.49784e-08
1.69543e-06
-6.16311e-08
1.75378e-06
-5.84071e-08
1.80903e-06
-5.52974e-08
1.86129e-06
-5.23026e-08
1.91067e-06
-4.94168e-08
1.95727e-06
-4.66188e-08
2.00114e-06
-4.39009e-08
2.04236e-06
-4.12312e-08
2.08091e-06
-3.85643e-08
2.11673e-06
-3.58271e-08
2.14963e-06
-3.29184e-08
2.17927e-06
-2.96537e-08
2.20494e-06
-2.56835e-08
2.22531e-06
-2.0388e-08
2.23651e-06
-1.12326e-08
2.22951e-06
6.98153e-09
2.18225e-06
4.72318e-08
1.15925e-07
2.06632e-06
2.12039e-08
-4.26531e-08
3.49553e-08
-3.7917e-08
4.18164e-08
-2.67564e-08
4.36922e-08
-1.59187e-08
4.1362e-08
-5.39852e-09
3.51668e-08
4.74263e-09
2.51265e-08
1.43434e-08
1.11613e-08
2.327e-08
-6.87048e-09
3.14471e-08
-2.91305e-08
3.89099e-08
-5.57397e-08
4.5687e-08
-8.66401e-08
5.17778e-08
-1.21777e-07
5.77139e-08
-1.60747e-07
6.41734e-08
-2.02735e-07
7.11535e-08
-2.50843e-07
7.73825e-08
-3.06918e-07
8.25227e-08
-3.64298e-07
8.90864e-08
-4.22606e-07
9.66796e-08
-4.8205e-07
1.0463e-07
-5.43051e-07
1.12159e-07
-6.05802e-07
1.18635e-07
-6.7012e-07
1.23986e-07
-7.35925e-07
1.28243e-07
-8.02976e-07
1.31313e-07
-8.70286e-07
1.33343e-07
-9.3723e-07
1.34488e-07
-1.0033e-06
1.34771e-07
-1.06817e-06
1.34211e-07
-1.13151e-06
1.32865e-07
-1.19313e-06
1.30822e-07
-1.25284e-06
1.28187e-07
-1.31058e-06
1.25071e-07
-1.36626e-06
1.21585e-07
-1.41991e-06
1.17832e-07
-1.4715e-06
1.1391e-07
-1.52112e-06
1.09902e-07
-1.5688e-06
1.05882e-07
-1.61463e-06
1.01907e-07
-1.65869e-06
9.80247e-08
-1.70107e-06
9.42672e-08
-1.74185e-06
9.06602e-08
-1.78114e-06
8.72172e-08
-1.81901e-06
8.39484e-08
-1.85557e-06
8.0855e-08
-1.89087e-06
7.79379e-08
-1.925e-06
7.5191e-08
-1.95803e-06
7.26101e-08
-1.99004e-06
7.01862e-08
-2.02108e-06
6.79126e-08
-2.05122e-06
6.57784e-08
-2.08051e-06
6.37771e-08
-2.10901e-06
6.18986e-08
-2.13676e-06
6.01373e-08
-2.16382e-06
5.84842e-08
-2.19023e-06
5.69357e-08
-2.21603e-06
5.54852e-08
-2.24127e-06
5.41312e-08
-2.26598e-06
5.28683e-08
-2.29021e-06
5.16963e-08
-2.314e-06
5.06122e-08
-2.33738e-06
4.96175e-08
-2.36039e-06
4.87101e-08
-2.38308e-06
4.78923e-08
-2.40549e-06
4.71633e-08
-2.42765e-06
4.65259e-08
-2.44961e-06
4.59805e-08
-2.47141e-06
4.55297e-08
-2.49309e-06
4.51741e-08
-2.5147e-06
4.49155e-08
-2.53627e-06
4.47545e-08
-2.55786e-06
4.46908e-08
-2.57948e-06
4.47241e-08
-2.60121e-06
4.48512e-08
-2.62305e-06
4.50687e-08
-2.64507e-06
4.5371e-08
-2.66726e-06
4.57565e-08
-2.68968e-06
4.62161e-08
-2.7123e-06
4.67418e-08
-2.73518e-06
4.73188e-08
-2.75829e-06
4.79389e-08
-2.78166e-06
4.85834e-08
-2.80523e-06
4.92391e-08
-2.82902e-06
4.98804e-08
-2.85296e-06
5.04927e-08
-2.87702e-06
5.10489e-08
-2.90112e-06
5.15313e-08
-2.92518e-06
5.19106e-08
-2.94906e-06
5.21802e-08
-2.97268e-06
5.22743e-08
-2.99594e-06
5.21471e-08
-3.01869e-06
5.17358e-08
-3.04075e-06
5.09819e-08
-3.06193e-06
4.98423e-08
-3.08233e-06
4.82337e-08
-3.10175e-06
4.6318e-08
-3.11943e-06
4.42403e-08
-3.13565e-06
4.15956e-08
-3.15018e-06
3.83218e-08
-3.16271e-06
3.46028e-08
-3.17307e-06
3.03631e-08
-3.18111e-06
2.55671e-08
-3.18696e-06
2.0161e-08
-3.19042e-06
1.42916e-08
-3.19135e-06
8.02426e-09
-3.18939e-06
1.40116e-09
-3.18439e-06
-5.71327e-09
-3.17583e-06
-1.34028e-08
-3.16329e-06
-2.1472e-08
-3.14637e-06
-2.99993e-08
-3.12478e-06
-3.89557e-08
-3.09852e-06
-4.84656e-08
-3.0675e-06
-5.8442e-08
-3.03093e-06
-6.8608e-08
-2.98899e-06
-7.91979e-08
-2.94176e-06
-9.0302e-08
-2.88865e-06
-1.01523e-07
-2.82959e-06
-1.12971e-07
-2.76482e-06
-1.24635e-07
-2.69417e-06
-1.36313e-07
-2.61755e-06
-1.4807e-07
-2.53511e-06
-1.59814e-07
-2.44682e-06
-1.71427e-07
-2.35275e-06
-1.82813e-07
-2.25305e-06
-1.93821e-07
-2.14792e-06
-2.04404e-07
-2.03764e-06
-2.14454e-07
-1.92253e-06
-2.23915e-07
-1.80295e-06
-2.32683e-07
-1.67931e-06
-2.40701e-07
-1.55205e-06
-2.47881e-07
-1.42163e-06
-2.54177e-07
-1.28855e-06
-2.5953e-07
-1.15333e-06
-2.63919e-07
-1.01645e-06
-2.67326e-07
-8.78442e-07
-2.69768e-07
-7.3979e-07
-2.71262e-07
-6.0099e-07
-2.71859e-07
-4.62478e-07
-2.7161e-07
-3.24656e-07
-2.70609e-07
-1.87682e-07
-2.69057e-07
-5.15468e-08
-2.67145e-07
8.33388e-08
-2.64747e-07
2.15861e-07
-2.61794e-07
3.44432e-07
-2.58178e-07
4.68345e-07
-2.53461e-07
5.88353e-07
-2.47254e-07
7.04743e-07
-2.39976e-07
8.17399e-07
-2.3205e-07
9.2618e-07
-2.23761e-07
1.031e-06
-2.15263e-07
1.1318e-06
-2.06684e-07
1.22858e-06
-1.98099e-07
1.32136e-06
-1.89607e-07
1.41018e-06
-1.81245e-07
1.49512e-06
-1.73047e-07
1.57626e-06
-1.65049e-07
1.65366e-06
-1.57297e-07
1.72745e-06
-1.49769e-07
1.79774e-06
-1.42487e-07
1.86466e-06
-1.35454e-07
1.92831e-06
-1.28693e-07
1.98882e-06
-1.22193e-07
2.04629e-06
-1.15931e-07
2.10084e-06
-1.09886e-07
2.15257e-06
-1.04063e-07
2.20156e-06
-9.84386e-08
2.24791e-06
-9.29889e-08
2.29167e-06
-8.76838e-08
2.33289e-06
-8.247e-08
2.37156e-06
-7.72523e-08
2.40762e-06
-7.19019e-08
2.4409e-06
-6.62109e-08
2.47109e-06
-5.98493e-08
2.49759e-06
-5.21964e-08
2.51935e-06
-4.21695e-08
2.53523e-06
-2.71336e-08
2.54457e-06
-2.37728e-09
2.54597e-06
4.58232e-08
1.37622e-07
2.52427e-06
9.09516e-09
-5.1842e-08
1.0068e-08
-3.89547e-08
6.50497e-09
-2.32508e-08
-6.58583e-10
-8.78843e-09
-1.10186e-08
4.91833e-09
-2.44011e-08
1.8092e-08
-4.08867e-08
3.07888e-08
-6.06764e-08
4.30222e-08
-8.40648e-08
5.47948e-08
-1.11307e-07
6.61126e-08
-1.42586e-07
7.69282e-08
-1.78086e-07
8.72424e-08
-2.17693e-07
9.72872e-08
-2.60867e-07
1.07319e-07
-3.07077e-07
1.17333e-07
-3.56712e-07
1.26994e-07
-4.10266e-07
1.36046e-07
-4.66128e-07
1.44927e-07
-5.23142e-07
1.53664e-07
-5.80561e-07
1.62029e-07
-6.38139e-07
1.69708e-07
-6.95971e-07
1.76447e-07
-7.5406e-07
1.82046e-07
-8.12161e-07
1.86324e-07
-8.70114e-07
1.89236e-07
-9.27615e-07
1.9082e-07
-9.8433e-07
1.91171e-07
-1.03997e-06
1.90386e-07
-1.09437e-06
1.8858e-07
-1.14741e-06
1.85877e-07
-1.19903e-06
1.82409e-07
-1.24918e-06
1.78311e-07
-1.29786e-06
1.73718e-07
-1.34506e-06
1.68756e-07
-1.39081e-06
1.63543e-07
-1.43511e-06
1.58184e-07
-1.47801e-06
1.52769e-07
-1.51953e-06
1.47377e-07
-1.55972e-06
1.42069e-07
-1.59861e-06
1.36894e-07
-1.63626e-06
1.31887e-07
-1.6727e-06
1.27075e-07
-1.70798e-06
1.22473e-07
-1.74215e-06
1.18091e-07
-1.77525e-06
1.13933e-07
-1.80733e-06
1.09996e-07
-1.83845e-06
1.06278e-07
-1.86863e-06
1.0277e-07
-1.89794e-06
9.94651e-08
-1.9264e-06
9.63533e-08
-1.95408e-06
9.34245e-08
-1.981e-06
9.06689e-08
-2.00721e-06
8.8077e-08
-2.03274e-06
8.56402e-08
-2.05764e-06
8.33502e-08
-2.08194e-06
8.12006e-08
-2.10568e-06
7.91853e-08
-2.12889e-06
7.73005e-08
-2.1516e-06
7.55421e-08
-2.17385e-06
7.39081e-08
-2.19568e-06
7.23968e-08
-2.21712e-06
7.10082e-08
-2.23819e-06
6.97421e-08
-2.25894e-06
6.85999e-08
-2.27941e-06
6.75826e-08
-2.29962e-06
6.66921e-08
-2.31961e-06
6.59304e-08
-2.33942e-06
6.52996e-08
-2.35909e-06
6.4801e-08
-2.37865e-06
6.4436e-08
-2.39814e-06
6.42048e-08
-2.41759e-06
6.4107e-08
-2.43704e-06
6.41406e-08
-2.45653e-06
6.43009e-08
-2.47608e-06
6.45827e-08
-2.49572e-06
6.4979e-08
-2.51549e-06
6.54817e-08
-2.53539e-06
6.60795e-08
-2.55545e-06
6.67583e-08
-2.57568e-06
6.75005e-08
-2.59606e-06
6.82882e-08
-2.61662e-06
6.90984e-08
-2.63732e-06
6.9906e-08
-2.65817e-06
7.06813e-08
-2.6791e-06
7.13957e-08
-2.7001e-06
7.2014e-08
-2.72109e-06
7.25023e-08
-2.742e-06
7.28273e-08
-2.76273e-06
7.29436e-08
-2.78319e-06
7.28088e-08
-2.80331e-06
7.23396e-08
-2.82301e-06
7.14698e-08
-2.84213e-06
7.01511e-08
-2.86058e-06
6.83197e-08
-2.87825e-06
6.59511e-08
-2.89498e-06
6.30526e-08
-2.91038e-06
5.96614e-08
-2.92442e-06
5.56296e-08
-2.93697e-06
5.0855e-08
-2.94782e-06
4.54032e-08
-2.95678e-06
3.92457e-08
-2.96371e-06
3.2363e-08
-2.96847e-06
2.47304e-08
-2.97078e-06
1.63871e-08
-2.97034e-06
7.33245e-09
-2.96675e-06
-2.41037e-09
-2.9598e-06
-1.28937e-08
-2.94923e-06
-2.41594e-08
-2.93474e-06
-3.61462e-08
-2.91601e-06
-4.887e-08
-2.89281e-06
-6.23134e-08
-2.8649e-06
-7.6468e-08
-2.83213e-06
-9.13229e-08
-2.79409e-06
-1.06711e-07
-2.75072e-06
-1.22636e-07
-2.70191e-06
-1.39134e-07
-2.64742e-06
-1.56033e-07
-2.58713e-06
-1.73232e-07
-2.52105e-06
-1.90673e-07
-2.44909e-06
-2.0823e-07
-2.37126e-06
-2.25912e-07
-2.28759e-06
-2.43522e-07
-2.19813e-06
-2.60953e-07
-2.10293e-06
-2.78024e-07
-2.00218e-06
-2.94565e-07
-1.89607e-06
-3.10442e-07
-1.78491e-06
-3.25523e-07
-1.66901e-06
-3.39677e-07
-1.54876e-06
-3.5278e-07
-1.42457e-06
-3.64708e-07
-1.29691e-06
-3.75356e-07
-1.16626e-06
-3.84632e-07
-1.03314e-06
-3.92466e-07
-8.98055e-07
-3.98814e-07
-7.61539e-07
-4.03663e-07
-6.24106e-07
-4.07027e-07
-4.86263e-07
-4.08952e-07
-3.48491e-07
-4.09496e-07
-2.11202e-07
-4.08799e-07
-7.46876e-08
-4.07042e-07
6.06051e-08
-4.04295e-07
1.93974e-07
-4.00462e-07
3.24738e-07
-3.95481e-07
4.52358e-07
-3.89386e-07
5.76313e-07
-3.82124e-07
6.96374e-07
-3.73512e-07
8.12679e-07
-3.63563e-07
9.25277e-07
-3.52575e-07
1.03409e-06
-3.40878e-07
1.13905e-06
-3.28728e-07
1.2401e-06
-3.1632e-07
1.33721e-06
-3.03801e-07
1.43038e-06
-2.91289e-07
1.51965e-06
-2.78889e-07
1.60507e-06
-2.66678e-07
1.68672e-06
-2.547e-07
1.76466e-06
-2.43002e-07
1.839e-06
-2.3164e-07
1.90985e-06
-2.20631e-07
1.97734e-06
-2.09983e-07
2.04159e-06
-1.99702e-07
2.1027e-06
-1.89801e-07
2.16078e-06
-1.80278e-07
2.21596e-06
-1.71104e-07
2.26833e-06
-1.62259e-07
2.31801e-06
-1.5373e-07
2.36507e-06
-1.45493e-07
2.4096e-06
-1.37513e-07
2.45167e-06
-1.29746e-07
2.49132e-06
-1.22105e-07
2.52853e-06
-1.14464e-07
2.56328e-06
-1.06632e-07
2.5954e-06
-9.83243e-08
2.62464e-06
-8.90828e-08
2.65056e-06
-7.81163e-08
2.67246e-06
-6.40631e-08
2.68948e-06
-4.41616e-08
2.7009e-06
-1.37935e-08
2.70862e-06
3.81038e-08
1.30241e-07
2.71601e-06
-4.81129e-09
-4.71124e-08
-1.49359e-08
-2.88827e-08
-2.73367e-08
-1.08943e-08
-4.19539e-08
5.80152e-09
-5.87989e-08
2.17315e-08
-7.79347e-08
3.72036e-08
-9.95239e-08
5.23486e-08
-1.2374e-07
6.72126e-08
-1.5077e-07
8.17974e-08
-1.80755e-07
9.60718e-08
-2.13831e-07
1.09978e-07
-2.50092e-07
1.23481e-07
-2.89435e-07
1.36606e-07
-3.31521e-07
1.49386e-07
-3.75981e-07
1.6177e-07
-4.22613e-07
1.73609e-07
-4.71339e-07
1.84749e-07
-5.21602e-07
1.95173e-07
-5.72786e-07
2.04827e-07
-6.24362e-07
2.13589e-07
-6.75975e-07
2.21299e-07
-7.27351e-07
2.27807e-07
-7.78317e-07
2.32989e-07
-8.28756e-07
2.36744e-07
-8.78582e-07
2.39038e-07
-9.27688e-07
2.39906e-07
-9.75979e-07
2.39436e-07
-1.02336e-06
2.37747e-07
-1.06978e-06
2.34974e-07
-1.11519e-06
2.31265e-07
-1.15957e-06
2.26765e-07
-1.2029e-06
2.2162e-07
-1.24518e-06
2.15971e-07
-1.28639e-06
2.09949e-07
-1.32655e-06
2.03676e-07
-1.36564e-06
1.9726e-07
-1.40369e-06
1.90795e-07
-1.44069e-06
1.8436e-07
-1.47667e-06
1.78019e-07
-1.51161e-06
1.71822e-07
-1.54556e-06
1.6581e-07
-1.57851e-06
1.60011e-07
-1.6105e-06
1.54443e-07
-1.64154e-06
1.4912e-07
-1.67168e-06
1.44047e-07
-1.70092e-06
1.39224e-07
-1.72932e-06
1.34648e-07
-1.75688e-06
1.30315e-07
-1.78365e-06
1.26216e-07
-1.80966e-06
1.22341e-07
-1.83494e-06
1.18682e-07
-1.85952e-06
1.15228e-07
-1.88344e-06
1.11969e-07
-1.90672e-06
1.08896e-07
-1.9294e-06
1.06001e-07
-1.9515e-06
1.03277e-07
-1.97306e-06
1.00717e-07
-1.99411e-06
9.83168e-08
-2.01467e-06
9.60731e-08
-2.03478e-06
9.39833e-08
-2.05446e-06
9.20463e-08
-2.07374e-06
9.02621e-08
-2.09267e-06
8.86314e-08
-2.11125e-06
8.71556e-08
-2.12954e-06
8.58368e-08
-2.14756e-06
8.46774e-08
-2.16534e-06
8.36801e-08
-2.18292e-06
8.28472e-08
-2.20034e-06
8.21808e-08
-2.21761e-06
8.16822e-08
-2.23479e-06
8.13518e-08
-2.2519e-06
8.11883e-08
-2.26897e-06
8.1189e-08
-2.28605e-06
8.13492e-08
-2.30315e-06
8.16613e-08
-2.32032e-06
8.21159e-08
-2.33757e-06
8.27022e-08
-2.35492e-06
8.34048e-08
-2.3724e-06
8.42055e-08
-2.39001e-06
8.50822e-08
-2.40777e-06
8.60107e-08
-2.42566e-06
8.69614e-08
-2.44368e-06
8.7902e-08
-2.46183e-06
8.87956e-08
-2.48006e-06
8.96031e-08
-2.49835e-06
9.02815e-08
-2.51665e-06
9.07854e-08
-2.53489e-06
9.10648e-08
-2.55299e-06
9.10759e-08
-2.57088e-06
9.07335e-08
-2.58849e-06
8.99862e-08
-2.60573e-06
8.87413e-08
-2.62251e-06
8.69396e-08
-2.63869e-06
8.45161e-08
-2.65416e-06
8.14295e-08
-2.66876e-06
7.76468e-08
-2.68226e-06
7.31518e-08
-2.69452e-06
6.78621e-08
-2.7054e-06
6.16983e-08
-2.71472e-06
5.4655e-08
-2.72228e-06
4.67014e-08
-2.72788e-06
3.78123e-08
-2.73129e-06
2.79504e-08
-2.73223e-06
1.71151e-08
-2.7304e-06
5.28784e-09
-2.72549e-06
-7.51246e-09
-2.71726e-06
-2.13125e-08
-2.70546e-06
-3.6124e-08
-2.68981e-06
-5.19445e-08
-2.67005e-06
-6.87523e-08
-2.64593e-06
-8.65414e-08
-2.61722e-06
-1.05271e-07
-2.5837e-06
-1.2492e-07
-2.54513e-06
-1.45342e-07
-2.50132e-06
-1.66491e-07
-2.45215e-06
-1.88324e-07
-2.39745e-06
-2.10738e-07
-2.33707e-06
-2.33578e-07
-2.27096e-06
-2.56752e-07
-2.19905e-06
-2.80111e-07
-2.12139e-06