/*--------------------------------*- C++ -*----------------------------------*\
  =========                 |
  \\      /  F ield         | OpenFOAM: The Open Source CFD Toolbox
   \\    /   O peration     | Website:  https://openfoam.org
    \\  /    A nd           | Version:  8
     \\/     M anipulation  |
\*---------------------------------------------------------------------------*/
FoamFile
{
    version     2.0;
    format      ascii;
    class       volVectorField;
    location    "100";
    object      U;
}
// * * * * * * * * * * * * * * * * * * * * * * * * * * * * * * * * * * * * * //

dimensions      [0 1 -1 0 0 0 0];

internalField   nonuniform List<vector> 
12225
(
(9.85697 -0.886413 0)
(9.6666 -0.740745 0)
(9.45559 -0.429459 0)
(9.22424 -0.222191 0)
(9.00602 -0.106415 0)
(8.81361 -0.0458098 0)
(8.64629 -0.0151084 0)
(8.50371 0.000553257 0)
(8.38134 0.00852221 0)
(8.27785 0.0124626 0)
(8.18823 0.0142565 0)
(8.11065 0.0153823 0)
(8.04162 0.0159426 0)
(7.97957 0.0165304 0)
(7.92105 0.0169723 0)
(7.86748 0.0188667 0)
(7.79345 0.0199484 0)
(7.78302 0.0306786 0)
(10.0545 0.227556 0)
(10.121 0.326934 0)
(10.1196 0.26159 0)
(10.0855 0.186587 0)
(10.0432 0.13473 0)
(9.9964 0.101207 0)
(9.94354 0.0794244 0)
(9.88449 0.0647471 0)
(9.82285 0.0545122 0)
(9.75983 0.0470229 0)
(9.69786 0.0414078 0)
(9.63721 0.0370859 0)
(9.57894 0.0337845 0)
(9.52319 0.0315366 0)
(9.46914 0.0300627 0)
(9.42023 0.0317171 0)
(9.36618 0.0322784 0)
(9.34109 0.056469 0)
(10.0035 0.0579248 0)
(10.0303 0.0560255 0)
(10.056 0.0338211 0)
(10.0702 0.0329579 0)
(10.0767 0.0407435 0)
(10.0775 0.0466823 0)
(10.072 0.0495496 0)
(10.0606 0.0505669 0)
(10.0451 0.0505661 0)
(10.0262 0.049995 0)
(10.0051 0.0491597 0)
(9.98218 0.0483099 0)
(9.95806 0.047598 0)
(9.93311 0.0473445 0)
(9.90722 0.0475319 0)
(9.88181 0.0499124 0)
(9.855 0.0527698 0)
(9.83355 0.0660134 0)
(9.99778 0.0110647 0)
(10.011 0.0266353 0)
(10.0349 0.037203 0)
(10.0524 0.0481695 0)
(10.0641 0.05558 0)
(10.073 0.0583655 0)
(10.0789 0.0586074 0)
(10.0816 0.0579626 0)
(10.0816 0.0570483 0)
(10.0797 0.0560415 0)
(10.0761 0.0550427 0)
(10.0711 0.054218 0)
(10.0648 0.0536329 0)
(10.0576 0.0535762 0)
(10.0494 0.0540982 0)
(10.0411 0.0563989 0)
(10.0326 0.0596992 0)
(10.0266 0.0680191 0)
(9.99935 0.00721309 0)
(10.009 0.0316925 0)
(10.0274 0.0439925 0)
(10.0416 0.0500352 0)
(10.0525 0.0537775 0)
(10.0624 0.0554688 0)
(10.071 0.0558393 0)
(10.0775 0.0556697 0)
(10.0823 0.0552913 0)
(10.0858 0.0548164 0)
(10.0881 0.0543333 0)
(10.0894 0.0539901 0)
(10.0899 0.0538799 0)
(10.0897 0.0542402 0)
(10.0888 0.055191 0)
(10.088 0.0574231 0)
(10.0876 0.0606186 0)
(10.0892 0.065934 0)
(10.0003 0.00919814 0)
(10.0083 0.031219 0)
(10.0226 0.0410332 0)
(10.0348 0.0455326 0)
(10.0448 0.0492413 0)
(10.0544 0.0516581 0)
(10.0632 0.0527471 0)
(10.0706 0.0531226 0)
(10.0768 0.0531814 0)
(10.082 0.0530834 0)
(10.0864 0.0529392 0)
(10.0901 0.0528902 0)
(10.0932 0.0530467 0)
(10.0957 0.0535959 0)
(10.098 0.0546618 0)
(10.1004 0.0566051 0)
(10.1034 0.059243 0)
(10.108 0.0626519 0)
(10.0004 0.00896937 0)
(10.0071 0.0271458 0)
(10.019 0.0365215 0)
(10.03 0.0415584 0)
(10.0393 0.0456578 0)
(10.0483 0.0484193 0)
(10.0567 0.0498122 0)
(10.0642 0.0504444 0)
(10.0707 0.0507355 0)
(10.0765 0.0508544 0)
(10.0816 0.0509124 0)
(10.0863 0.0510367 0)
(10.0904 0.0513369 0)
(10.0943 0.0519517 0)
(10.098 0.0529769 0)
(10.1019 0.0545713 0)
(10.1064 0.0565757 0)
(10.1121 0.0587168 0)
(10.0004 0.00794545 0)
(10.006 0.0234509 0)
(10.0161 0.0328633 0)
(10.0261 0.0382991 0)
(10.0349 0.0423816 0)
(10.0432 0.0451736 0)
(10.0512 0.0467237 0)
(10.0585 0.0475385 0)
(10.065 0.0480003 0)
(10.0709 0.048276 0)
(10.0764 0.0484753 0)
(10.0814 0.0487114 0)
(10.0861 0.0490839 0)
(10.0905 0.0496908 0)
(10.095 0.050591 0)
(10.0996 0.0518255 0)
(10.1048 0.0532355 0)
(10.1108 0.054481 0)
(10.0004 0.00699477 0)
(10.005 0.0205097 0)
(10.0136 0.0296013 0)
(10.0227 0.0350889 0)
(10.031 0.0390377 0)
(10.0388 0.0418205 0)
(10.0464 0.0435064 0)
(10.0534 0.0444779 0)
(10.0598 0.0450743 0)
(10.0657 0.0454667 0)
(10.0712 0.0457634 0)
(10.0764 0.0460648 0)
(10.0813 0.0464554 0)
(10.0861 0.0470012 0)
(10.0909 0.0477283 0)
(10.0959 0.0486153 0)
(10.1013 0.0495096 0)
(10.1073 0.0501134 0)
(10.0004 0.00616886 0)
(10.0043 0.0179547 0)
(10.0116 0.0264424 0)
(10.0197 0.0318374 0)
(10.0274 0.0356705 0)
(10.0348 0.0384293 0)
(10.042 0.0402075 0)
(10.0487 0.0412953 0)
(10.055 0.0419909 0)
(10.0609 0.0424658 0)
(10.0664 0.0428246 0)
(10.0716 0.0431549 0)
(10.0766 0.0435244 0)
(10.0816 0.0439757 0)
(10.0866 0.0445109 0)
(10.0917 0.0450816 0)
(10.097 0.0455529 0)
(10.1028 0.0456977 0)
(10.0003 0.00541366 0)
(10.0036 0.0156544 0)
(10.0098 0.0234205 0)
(10.0172 0.0286267 0)
(10.0243 0.0323272 0)
(10.0313 0.0350193 0)
(10.038 0.0368319 0)
(10.0445 0.0379924 0)
(10.0506 0.0387549 0)
(10.0564 0.0392827 0)
(10.0618 0.0396744 0)
(10.0671 0.0400045 0)
(10.0721 0.0403265 0)
(10.0771 0.0406658 0)
(10.0821 0.0410114 0)
(10.0872 0.0413081 0)
(10.0925 0.0414472 0)
(10.098 0.041268 0)
(10.0003 0.00475256 0)
(10.0031 0.0137226 0)
(10.0085 0.0207894 0)
(10.0151 0.0257375 0)
(10.0218 0.0292793 0)
(10.0283 0.0318728 0)
(10.0348 0.0336724 0)
(10.041 0.0348632 0)
(10.0469 0.0356596 0)
(10.0526 0.0362115 0)
(10.0579 0.0366103 0)
(10.0632 0.0369194 0)
(10.0682 0.0371818 0)
(10.0732 0.037413 0)
(10.0782 0.0375968 0)
(10.0832 0.0376829 0)
(10.0883 0.0375867 0)
(10.0935 0.0372011 0)
(10.0003 0.00414217 0)
(10.0027 0.0119586 0)
(10.0074 0.0183008 0)
(10.0134 0.0229135 0)
(10.0195 0.02626 0)
(10.0257 0.0287271 0)
(10.0318 0.0304779 0)
(10.0378 0.0316674 0)
(10.0436 0.0324729 0)
(10.0491 0.0330282 0)
(10.0544 0.0334161 0)
(10.0595 0.033691 0)
(10.0645 0.0338865 0)
(10.0695 0.0340132 0)
(10.0744 0.034055 0)
(10.0793 0.0339704 0)
(10.0842 0.033697 0)
(10.0891 0.0331663 0)
(10.0002 0.00351175 0)
(10.0024 0.0101246 0)
(10.0064 0.0156304 0)
(10.0117 0.0197822 0)
(10.0173 0.022849 0)
(10.0231 0.0251276 0)
(10.0289 0.0267758 0)
(10.0346 0.0279217 0)
(10.0401 0.0287045 0)
(10.0455 0.0292371 0)
(10.0507 0.0295927 0)
(10.0557 0.0298158 0)
(10.0607 0.0299319 0)
(10.0655 0.0299486 0)
(10.0703 0.029854 0)
(10.075 0.0296188 0)
(10.0797 0.0292022 0)
(10.0843 0.0285648 0)
(10.0002 0.00285667 0)
(10.002 0.00821746 0)
(10.0055 0.0127849 0)
(10.0101 0.0163437 0)
(10.0153 0.0190258 0)
(10.0206 0.0210365 0)
(10.026 0.022512 0)
(10.0314 0.0235557 0)
(10.0367 0.0242704 0)
(10.0419 0.0247444 0)
(10.0469 0.0250389 0)
(10.0518 0.0251896 0)
(10.0566 0.0252159 0)
(10.0614 0.0251233 0)
(10.066 0.0249061 0)
(10.0705 0.0245481 0)
(10.0749 0.0240278 0)
(10.0792 0.0233267 0)
(10.0002 0.00217535 0)
(10.0017 0.00623796 0)
(10.0047 0.00977001 0)
(10.0087 0.012599 0)
(10.0134 0.0147732 0)
(10.0183 0.016418 0)
(10.0233 0.0176348 0)
(10.0284 0.0185016 0)
(10.0335 0.0190895 0)
(10.0384 0.0194606 0)
(10.0433 0.0196607 0)
(10.0481 0.0197185 0)
(10.0527 0.0196483 0)
(10.0572 0.0194553 0)
(10.0616 0.0191384 0)
(10.0659 0.0186925 0)
(10.0701 0.0181108 0)
(10.0741 0.0173871 0)
(10.0002 0.00146377 0)
(10.0015 0.0041704 0)
(10.0041 0.00656688 0)
(10.0077 0.00852674 0)
(10.0118 0.0100566 0)
(10.0163 0.0112203 0)
(10.021 0.0120792 0)
(10.0258 0.0126833 0)
(10.0306 0.0130757 0)
(10.0354 0.0132935 0)
(10.04 0.0133658 0)
(10.0446 0.0133121 0)
(10.049 0.013143 0)
(10.0534 0.0128632 0)
(10.0575 0.0124745 0)
(10.0616 0.0119779 0)
(10.0655 0.0113753 0)
(10.0692 0.0106664 0)
(10.0001 0.000704566 0)
(10.0013 0.00196161 0)
(10.0036 0.00310113 0)
(10.0069 0.00404384 0)
(10.0108 0.0047811 0)
(10.015 0.00533408 0)
(10.0194 0.00572502 0)
(10.0239 0.00597327 0)
(10.0285 0.00609627 0)
(10.033 0.00610829 0)
(10.0375 0.00602039 0)
(10.0418 0.00584054 0)
(10.0461 0.00557384 0)
(10.0502 0.00522287 0)
(10.0541 0.00478968 0)
(10.0579 0.00427687 0)
(10.0616 0.00368903 0)
(10.0651 0.00302684 0)
(10.0001 -0.000146517 0)
(10.0013 -0.000510895 0)
(10.0035 -0.000801947 0)
(10.0066 -0.00104497 0)
(10.0103 -0.00124883 0)
(10.0144 -0.00142993 0)
(10.0187 -0.0016067 0)
(10.0231 -0.00179344 0)
(10.0275 -0.00199886 0)
(10.0319 -0.00223167 0)
(10.0362 -0.00249923 0)
(10.0404 -0.0028078 0)
(10.0444 -0.00316095 0)
(10.0483 -0.00356145 0)
(10.0521 -0.00401032 0)
(10.0557 -0.00450752 0)
(10.0592 -0.00505008 0)
(10.0624 -0.00564025 0)
(10.0001 -0.00096327 0)
(10.0013 -0.00288281 0)
(10.0037 -0.00455511 0)
(10.007 -0.00593008 0)
(10.0109 -0.00701408 0)
(10.0151 -0.00786837 0)
(10.0195 -0.00855584 0)
(10.024 -0.0091197 0)
(10.0284 -0.00959665 0)
(10.0328 -0.0100195 0)
(10.037 -0.0104155 0)
(10.0412 -0.0108037 0)
(10.0451 -0.0111971 0)
(10.049 -0.0116042 0)
(10.0526 -0.0120311 0)
(10.0561 -0.0124815 0)
(10.0594 -0.0129565 0)
(10.0626 -0.0134604 0)
(10.0002 -0.00166777 0)
(10.0015 -0.00495271 0)
(10.0041 -0.00783163 0)
(10.0078 -0.0101283 0)
(10.0121 -0.0118724 0)
(10.0166 -0.0132154 0)
(10.0212 -0.0142646 0)
(10.0258 -0.0150783 0)
(10.0304 -0.0157151 0)
(10.0348 -0.0162339 0)
(10.0391 -0.0166822 0)
(10.0432 -0.0170901 0)
(10.0472 -0.0174783 0)
(10.051 -0.0178597 0)
(10.0546 -0.0182445 0)
(10.058 -0.0186392 0)
(10.0613 -0.019047 0)
(10.0643 -0.0194734 0)
(10.0002 -0.00233646 0)
(10.0017 -0.00699608 0)
(10.0047 -0.0111011 0)
(10.009 -0.0142275 0)
(10.0138 -0.016482 0)
(10.0187 -0.0181765 0)
(10.0235 -0.0194723 0)
(10.0284 -0.0204426 0)
(10.0332 -0.0211685 0)
(10.0377 -0.0217315 0)
(10.0421 -0.0221894 0)
(10.0463 -0.0225819 0)
(10.0502 -0.022935 0)
(10.054 -0.0232686 0)
(10.0576 -0.0235953 0)
(10.061 -0.0239247 0)
(10.0642 -0.0242599 0)
(10.0672 -0.0246073 0)
(10.0002 -0.00296208 0)
(10.0018 -0.00906331 0)
(10.0054 -0.0143894 0)
(10.0106 -0.0182451 0)
(10.016 -0.0209573 0)
(10.0213 -0.0229494 0)
(10.0265 -0.0243781 0)
(10.0316 -0.0253708 0)
(10.0366 -0.0260825 0)
(10.0413 -0.0266231 0)
(10.0457 -0.0270498 0)
(10.0499 -0.0273993 0)
(10.0539 -0.0277009 0)
(10.0577 -0.0279772 0)
(10.0613 -0.0282431 0)
(10.0647 -0.0285082 0)
(10.0679 -0.028776 0)
(10.0709 -0.029052 0)
(10.0001 -0.00351357 0)
(10.0018 -0.0115243 0)
(10.0063 -0.0178384 0)
(10.0123 -0.0219103 0)
(10.0184 -0.0249528 0)
(10.0242 -0.0273403 0)
(10.0298 -0.0289592 0)
(10.0353 -0.0299532 0)
(10.0404 -0.0305938 0)
(10.0452 -0.0310475 0)
(10.0498 -0.0313833 0)
(10.0541 -0.0316409 0)
(10.0581 -0.0318539 0)
(10.0619 -0.0320462 0)
(10.0655 -0.0322331 0)
(10.0688 -0.0324216 0)
(10.072 -0.032615 0)
(10.0749 -0.0328143 0)
(9.99992 -0.00336698 0)
(10.0016 -0.014947 0)
(10.0073 -0.0226886 0)
(10.0143 -0.0261813 0)
(10.0207 -0.0287483 0)
(10.0269 -0.0310963 0)
(10.0332 -0.0328048 0)
(10.0392 -0.0338826 0)
(10.0447 -0.0345741 0)
(10.0497 -0.0350336 0)
(10.0544 -0.0353331 0)
(10.0588 -0.0355265 0)
(10.0628 -0.0356598 0)
(10.0665 -0.0357646 0)
(10.07 -0.0358594 0)
(10.0731 -0.035954 0)
(10.0761 -0.0360524 0)
(10.0788 -0.0361574 0)
(9.9986 -0.00038808 0)
(9.99909 -0.0157406 0)
(10.0076 -0.0274012 0)
(10.0167 -0.0324491 0)
(10.0238 -0.0348107 0)
(10.0307 -0.0361516 0)
(10.0378 -0.0368923 0)
(10.0443 -0.037352 0)
(10.0501 -0.037696 0)
(10.0553 -0.0379412 0)
(10.0599 -0.0380876 0)
(10.064 -0.0381601 0)
(10.0676 -0.03819 0)
(10.0708 -0.0381995 0)
(10.0736 -0.0382035 0)
(10.076 -0.0382103 0)
(10.0782 -0.0382222 0)
(10.08 -0.0382412 0)
(9.99488 0.00134234 0)
(9.99288 -0.00808167 0)
(10.0061 -0.0203321 0)
(10.0202 -0.032246 0)
(10.0307 -0.0404383 0)
(10.0393 -0.0441002 0)
(10.0469 -0.045003 0)
(10.0531 -0.0448516 0)
(10.058 -0.0443808 0)
(10.0619 -0.0437843 0)
(10.0649 -0.0431407 0)
(10.0671 -0.0425071 0)
(10.0686 -0.0419188 0)
(10.0695 -0.0413852 0)
(10.0698 -0.0409156 0)
(10.0697 -0.0405067 0)
(10.0692 -0.0401552 0)
(10.0685 -0.039836 0)
(9.99473 -0.0305572 0)
(9.99926 -0.0228639 0)
(10.0147 -0.00262323 0)
(10.0304 -0.00188742 0)
(10.0435 -0.0116286 0)
(10.0534 -0.0208866 0)
(10.0595 -0.0272382 0)
(10.062 -0.0314606 0)
(10.0617 -0.0342318 0)
(10.0593 -0.0359267 0)
(10.0553 -0.0368587 0)
(10.05 -0.0372949 0)
(10.0438 -0.0374249 0)
(10.0368 -0.0373684 0)
(10.0293 -0.0372164 0)
(10.0213 -0.0370248 0)
(10.0132 -0.0368583 0)
(10.005 -0.0366851 0)
(10.0273 -0.182756 0)
(10.0763 -0.28831 0)
(10.0872 -0.247747 0)
(10.0777 -0.186508 0)
(10.0664 -0.140278 0)
(10.0538 -0.108198 0)
(10.0366 -0.0858548 0)
(10.0146 -0.0703922 0)
(9.98951 -0.0596206 0)
(9.96251 -0.0518444 0)
(9.93458 -0.0460221 0)
(9.90629 -0.0415284 0)
(9.87815 -0.0379778 0)
(9.85048 -0.035108 0)
(9.82351 -0.0327483 0)
(9.79736 -0.0308363 0)
(9.77228 -0.0293279 0)
(9.74828 -0.0285195 0)
(9.93575 0.689321 0)
(9.86861 0.609607 0)
(9.76456 0.380631 0)
(9.6267 0.217452 0)
(9.486 0.11928 0)
(9.35737 0.0632037 0)
(9.2429 0.0315934 0)
(9.14142 0.0136345 0)
(9.05181 0.00328239 0)
(8.97291 -0.00277733 0)
(8.90307 -0.00633285 0)
(8.84096 -0.00845491 0)
(8.78531 -0.0097096 0)
(8.73524 -0.0104616 0)
(8.68984 -0.0109685 0)
(8.64851 -0.0112376 0)
(8.61032 -0.0114522 0)
(8.57495 -0.0121155 0)
(0.0119482 -0.0179122 -5.92202e-19)
(0.0325242 -0.0263979 2.98406e-19)
(0.0491182 -0.0245032 0)
(0.0645226 -0.0182307 0)
(0.0746695 -0.0101658 0)
(0.0786642 -0.00184038 -1.22248e-19)
(0.0771052 0.00571703 0)
(0.0707293 0.0119221 0)
(0.0602053 0.0166457 0)
(0.0462975 0.0198709 0)
(0.0300581 0.0218322 1.06413e-19)
(0.0116774 0.0236373 0)
(-0.00836929 0.0261929 0)
(-0.0296559 0.0312721 0)
(-0.0497848 0.0400949 0)
(-0.0734838 0.0360627 2.47283e-19)
(-0.105575 0.0140481 0)
(-0.128208 0.0125852 0)
(-0.161781 0.0180548 0)
(-0.20133 0.0272262 0)
(-0.244146 0.037206 0)
(-0.291258 0.0458362 0)
(-0.342491 0.053217 0)
(-0.397393 0.0575467 1.20869e-19)
(-0.455155 0.0588876 -1.11012e-19)
(-0.513965 0.060291 1.02471e-19)
(-0.57437 0.0615982 9.5017e-20)
(-0.636033 0.0625797 0)
(-0.698586 0.0631317 0)
(-0.761583 0.0632322 -7.78129e-20)
(-0.824586 0.0628843 -7.34223e-20)
(-0.887175 0.0621279 0)
(-0.948982 0.0609984 0)
(-1.00969 0.059557 -6.3154e-20)
(-1.06905 0.0578557 0)
(-1.12684 0.0559635 0)
(-1.18293 0.0539307 5.5987e-20)
(-1.23723 0.0518187 0)
(-1.28967 0.049665 5.23681e-20)
(-1.34026 0.0475164 1.01633e-19)
(-1.389 0.045395 0)
(-1.43595 0.0433326 0)
(-1.48116 0.0413386 0)
(-1.52471 0.039433 0)
(-1.56668 0.0376144 0)
(-1.60714 0.0358932 8.77354e-20)
(-1.6462 0.0342615 8.59558e-20)
(-1.68392 0.0327248 8.42805e-20)
(-1.72038 0.0312726 0)
(-1.75568 0.0299072 -8.11827e-20)
(-1.78987 0.0286155 0)
(-1.82304 0.0273995 7.83527e-20)
(-1.85525 0.0262481 7.70157e-20)
(-1.88655 0.025163 0)
(-1.91702 0.0241326 0)
(-1.9467 0.0231603 0)
(-1.97565 0.0222381 7.20408e-20)
(-2.0039 0.0213699 0)
(-2.03152 0.0205465 0)
(-2.05853 0.0197735 0)
(-2.08499 0.0190451 0)
(-2.11094 0.0183676 0)
(-2.13643 0.0177359 0)
(-2.16148 0.0171556 0)
(-2.18615 0.0166232 0)
(-2.21049 0.0161444 -6.19169e-20)
(-2.23453 0.015717 0)
(-2.25832 0.0153455 0)
(-2.28191 0.0150286 5.86528e-20)
(-2.30535 0.014769 5.75691e-20)
(-2.32869 0.0145669 0)
(-2.35198 0.0144232 -5.54097e-20)
(-2.37527 0.0143376 5.43345e-20)
(-2.39863 0.0143087 0)
(-2.4221 0.0143379 -5.21947e-20)
(-2.44574 0.0144245 0)
(-2.4696 0.0145747 0)
(-2.49373 0.0147882 4.90247e-20)
(-2.51817 0.0150668 0)
(-2.54297 0.0154057 -4.69522e-20)
(-2.56816 0.0158104 0)
(-2.59376 0.0162716 4.49288e-20)
(-2.61981 0.0167873 4.39415e-20)
(-2.64632 0.0173412 4.29726e-20)
(-2.6733 0.0179341 8.40516e-20)
(-2.70075 0.0185515 -8.22054e-20)
(-2.72865 0.0191907 0)
(-2.75696 0.0198304 0)
(-2.7856 0.0204665 0)
(-2.81455 0.0210514 -7.53899e-20)
(-2.84384 0.021538 -7.38325e-20)
(-2.8734 0.0218906 7.23375e-20)
(-2.90308 0.022038 0)
(-2.93271 0.0218324 -6.95567e-20)
(-2.96195 0.0206335 -6.82657e-20)
(-2.99039 0.0197908 -6.69609e-20)
(-3.01825 0.0209614 0)
(-3.04566 0.020203 0)
(-3.07184 0.0189522 0)
(-3.09671 0.0179554 -6.28027e-20)
(-3.11974 0.0169201 0)
(-3.14106 0.0156676 0)
(-3.15977 0.0136223 6.05055e-20)
(-3.17561 0.0119512 0)
(-3.18805 0.0108111 0)
(-3.19719 0.0102615 5.88472e-20)
(-3.20222 0.00866702 0)
(-3.20376 0.0065051 0)
(-3.2012 0.00467186 -5.73579e-20)
(-3.19472 0.00314758 -5.68008e-20)
(-3.18412 0.00168404 0)
(-3.16916 -0.000837581 5.56383e-20)
(-3.14918 -0.00372106 0)
(-3.12446 -0.00497135 -5.40055e-20)
(-3.09496 -0.00729411 0)
(-3.05995 -0.0106158 -5.18409e-20)
(-3.01947 -0.0127377 -5.04305e-20)
(-2.97364 -0.0152077 0)
(-2.92207 -0.0187395 0)
(-2.86455 -0.0219985 0)
(-2.80153 -0.0250561 0)
(-2.73272 -0.0286355 0)
(-2.6582 -0.0321901 0)
(-2.57799 -0.0358586 0)
(-2.49213 -0.0395684 -2.58053e-20)
(-2.40078 -0.0433187 2.0148e-20)
(-2.30416 -0.047053 0)
(-2.20251 -0.0507587 0)
(-2.09616 -0.0543768 0)
(-1.98542 -0.0578929 0)
(-1.87067 -0.0612601 -4.3467e-20)
(-1.75232 -0.0644609 0)
(-1.63078 -0.0674642 9.3067e-20)
(-1.50652 -0.0702549 -1.22238e-19)
(-1.37998 -0.0728199 0)
(-1.25162 -0.0751746 0)
(-1.1219 -0.077327 0)
(-0.991268 -0.0792871 2.76629e-19)
(-0.860155 -0.081079 3.27396e-19)
(-0.728968 -0.0827338 0)
(-0.598069 -0.0842548 4.49578e-19)
(-0.467889 -0.0855995 5.23965e-19)
(-0.338508 -0.0867899 -6.09802e-19)
(-0.210749 -0.0880315 0)
(-0.0828936 -0.0880556 0)
(0.0475511 -0.0855135 -7.61833e-19)
(0.176623 -0.081534 0)
(0.302516 -0.0772821 0)
(0.424849 -0.0730991 0)
(0.54321 -0.0690608 0)
(0.657427 -0.0651964 6.37841e-19)
(0.767397 -0.0614913 6.2251e-19)
(0.873111 -0.0579577 0)
(0.974589 -0.0546286 5.9667e-19)
(1.07189 -0.051468 0)
(1.16508 -0.048439 0)
(1.25429 -0.0455819 5.66367e-19)
(1.33965 -0.0429042 0)
(1.42125 -0.0403764 5.49849e-19)
(1.49923 -0.037986 0)
(1.57369 -0.0357245 0)
(1.64478 -0.0335892 5.29267e-19)
(1.71262 -0.0315793 0)
(1.77736 -0.0296837 5.17653e-19)
(1.83908 -0.0278877 0)
(1.89791 -0.0261889 0)
(1.95394 -0.0245845 0)
(2.00726 -0.023057 -4.98431e-19)
(2.05794 -0.0216021 0)
(2.10606 -0.0202114 4.90565e-19)
(2.1516 -0.0188606 0)
(2.19455 -0.0175229 0)
(2.23475 -0.0161774 0)
(2.27194 -0.0147526 0)
(2.30561 -0.0131476 0)
(2.33437 -0.0111776 0)
(2.35752 -0.00811067 0)
(2.36454 -0.00247762 -9.61386e-19)
(2.35784 0.0109337 0)
(2.24517 0.0300435 0)
(0.0113149 -0.0666576 1.33486e-18)
(0.0282302 -0.0651372 -5.68265e-19)
(0.0347387 -0.0493561 0)
(0.0386277 -0.0329679 1.66196e-19)
(0.0386611 -0.0167474 0)
(0.0348817 -0.00120497 6.36181e-20)
(0.0276643 0.0131225 -1.19354e-19)
(0.0169985 0.0258418 -1.15603e-19)
(0.00270958 0.0367896 0)
(-0.0152658 0.0461219 -1.15102e-19)
(-0.0371044 0.0540356 -5.76615e-20)
(-0.0628308 0.0603985 0)
(-0.0921131 0.0662327 0)
(-0.124575 0.0729862 0)
(-0.159579 0.0811083 0)
(-0.201024 0.0887117 -6.70247e-20)
(-0.248482 0.0940075 0)
(-0.299486 0.101739 1.25102e-19)
(-0.351651 0.111724 0)
(-0.404537 0.122774 0)
(-0.458341 0.133293 -9.91663e-20)
(-0.513571 0.141952 0)
(-0.570413 0.148732 8.67537e-20)
(-0.629268 0.154063 -4.13292e-20)
(-0.689614 0.157789 3.94286e-20)
(-0.750336 0.160178 -3.76753e-20)
(-0.811033 0.161499 -3.60522e-20)
(-0.871235 0.161739 0)
(-0.930561 0.160879 0)
(-0.98871 0.158977 3.18975e-20)
(-1.04545 0.156138 -3.04878e-20)
(-1.10061 0.152505 0)
(-1.15409 0.148226 0)
(-1.2058 0.143458 2.77842e-20)
(-1.25573 0.138341 0)
(-1.30387 0.133016 0)
(-1.35025 0.127596 -2.55081e-20)
(-1.39491 0.122186 0)
(-1.43793 0.11686 2.4075e-20)
(-1.47936 0.111685 -4.745e-20)
(-1.51929 0.1067 0)
(-1.55779 0.101939 0)
(-1.59495 0.0974148 -8.88286e-20)
(-1.63084 0.0931421 -8.71724e-20)
(-1.66555 0.0891159 -8.56112e-20)
(-1.69913 0.0853376 4.19065e-20)
(-1.73168 0.0817931 -4.15191e-20)
(-1.76324 0.0784773 -1.22232e-19)
(-1.79389 0.0753727 8.01054e-20)
(-1.82368 0.0724716 3.9572e-20)
(-1.85267 0.0697549 0)
(-1.88091 0.0672144 -3.83857e-20)
(-1.90845 0.064833 3.75799e-20)
(-1.93534 0.0626045 0)
(-1.96161 0.060513 0)
(-1.98732 0.0585543 0)
(-2.0125 0.0567162 -3.56581e-20)
(-2.03719 0.0549978 0)
(-2.06143 0.0533882 6.90804e-20)
(-2.08525 0.0518874 0)
(-2.10869 0.0504871 6.70666e-20)
(-2.13178 0.0491895 0)
(-2.15457 0.0479884 -6.50705e-20)
(-2.17708 0.0468858 0)
(-2.19936 0.0458773 6.30814e-20)
(-2.22145 0.0449654 -3.09919e-20)
(-2.24337 0.0441474 0)
(-2.26517 0.0434255 -6.00952e-20)
(-2.28688 0.0427974 -2.95933e-20)
(-2.30856 0.0422638 -2.90935e-20)
(-2.33023 0.041824 0)
(-2.35193 0.0414768 -2.80112e-20)
(-2.37372 0.0412209 -2.76019e-20)
(-2.39561 0.0410507 0)
(-2.41766 0.0409626 2.66175e-20)
(-2.43989 0.0409485 -5.21593e-20)
(-2.46233 0.0410069 0)
(-2.48501 0.0411288 -2.5165e-20)
(-2.50795 0.0413085 0)
(-2.53116 0.0415306 7.25255e-20)
(-2.55465 0.0417919 0)
(-2.57842 0.0420777 -6.97415e-20)
(-2.60247 0.0423818 -2.28505e-20)
(-2.62678 0.042681 2.22292e-20)
(-2.65132 0.0429685 4.35706e-20)
(-2.67605 0.0432219 -4.27042e-20)
(-2.70093 0.0434352 0)
(-2.72588 0.043591 0)
(-2.75077 0.0436871 0)
(-2.77553 0.043687 1.19671e-19)
(-2.80006 0.0435357 3.93915e-20)
(-2.82426 0.0431906 -3.87225e-20)
(-2.84797 0.0426189 0)
(-2.87099 0.0418053 -3.67748e-20)
(-2.8933 0.0407152 3.68652e-20)
(-2.91483 0.0393206 3.62885e-20)
(-2.93513 0.037632 0)
(-2.95407 0.0357123 0)
(-2.97151 0.0333849 0)
(-2.98726 0.0307173 3.4528e-20)
(-3.00109 0.0276676 0)
(-3.01286 0.0242415 -6.72634e-20)
(-3.02249 0.0204489 -1.00297e-19)
(-3.02998 0.0162734 6.63013e-20)
(-3.0352 0.0117577 0)
(-3.03783 0.00699093 3.24466e-20)
(-3.03793 0.00223716 0)
(-3.03473 -0.00261907 6.48146e-20)
(-3.02793 -0.00759551 -3.19083e-20)
(-3.01715 -0.0128618 -3.16896e-20)
(-3.00205 -0.0183165 0)
(-2.9824 -0.0239531 -9.46026e-20)
(-2.9583 -0.029793 6.22013e-20)
(-2.92918 -0.035795 3.09403e-20)
(-2.89471 -0.041884 0)
(-2.85512 -0.048186 2.98732e-20)
(-2.81006 -0.0545546 8.7436e-20)
(-2.75922 -0.0609766 0)
(-2.70257 -0.0673187 5.50077e-20)
(-2.64029 -0.0736263 5.27831e-20)
(-2.57212 -0.0799826 5.02718e-20)
(-2.49806 -0.0862227 0)
(-2.4182 -0.0923535 0)
(-2.33251 -0.0983071 0)
(-2.24104 -0.103981 -1.82532e-20)
(-2.14397 -0.109383 -1.46307e-20)
(-2.04152 -0.114449 0)
(-1.93395 -0.119172 -1.85379e-20)
(-1.82157 -0.123496 -1.15946e-20)
(-1.70474 -0.127404 0)
(-1.58385 -0.13085 6.56346e-21)
(-1.45934 -0.133825 2.67105e-20)
(-1.33166 -0.1363 -2.56663e-20)
(-1.2013 -0.138279 -3.07284e-20)
(-1.06873 -0.139762 0)
(-0.934454 -0.140773 0)
(-0.798952 -0.141333 0)
(-0.662706 -0.141483 -8.53509e-20)
(-0.526177 -0.141265 9.2333e-20)
(-0.389772 -0.140728 2.20403e-19)
(-0.253877 -0.139935 -1.28905e-19)
(-0.118505 -0.139006 1.35704e-19)
(0.0165544 -0.138089 1.53431e-19)
(0.150341 -0.137335 0)
(0.281075 -0.135798 0)
(0.407784 -0.132497 -1.69135e-19)
(0.530566 -0.127905 0)
(0.649974 -0.122764 0)
(0.766075 -0.117414 3.83532e-19)
(0.878711 -0.112024 0)
(0.98775 -0.106677 2.00276e-19)
(1.0931 -0.101431 -2.1004e-19)
(1.19473 -0.0963147 0)
(1.29263 -0.0913672 2.14275e-19)
(1.38682 -0.0866005 0)
(1.47733 -0.0820176 0)
(1.56425 -0.0776339 -2.28698e-19)
(1.64765 -0.0734602 4.59559e-19)
(1.72757 -0.0694708 -2.33992e-19)
(1.80415 -0.065667 0)
(1.87748 -0.0620479 0)
(1.9477 -0.0586195 2.37768e-19)
(2.01488 -0.05537 0)
(2.07914 -0.0522817 2.41433e-19)
(2.14059 -0.0493408 0)
(2.19931 -0.0465445 0)
(2.2554 -0.0438815 0)
(2.30894 -0.0413355 2.48847e-19)
(2.35999 -0.0388927 0)
(2.4086 -0.0365297 -2.50863e-19)
(2.45478 -0.034206 0)
(2.4985 -0.0318677 0)
(2.53962 -0.0294332 5.06061e-19)
(2.57788 -0.0267752 -5.08141e-19)
(2.61285 -0.023638 0)
(2.64358 -0.0196138 0)
(2.66914 -0.013438 0)
(2.68614 -0.0027409 1.5744e-18)
(2.70303 0.0190237 0)
(2.69136 0.0585864 -1.08934e-18)
(0.00311688 -0.0953956 -1.0222e-21)
(0.0102972 -0.0773264 5.77844e-19)
(0.00780703 -0.050733 0)
(0.00320244 -0.026354 -2.48665e-19)
(-0.00445679 -0.00354677 0)
(-0.0150145 0.0179678 0)
(-0.0283016 0.0381978 7.63691e-23)
(-0.0444147 0.0571365 7.94564e-20)
(-0.0636021 0.0747898 7.67443e-20)
(-0.0861255 0.0912183 7.53171e-20)
(-0.112187 0.106354 0)
(-0.141917 0.120239 0)
(-0.175364 0.133505 -7.20003e-20)
(-0.212211 0.146894 -1.42113e-19)
(-0.252097 0.160551 1.40365e-19)
(-0.295337 0.173671 0)
(-0.34192 0.185769 1.33923e-19)
(-0.391241 0.19812 -6.43909e-20)
(-0.442105 0.210557 0)
(-0.493543 0.222399 1.16459e-19)
(-0.544994 0.232915 5.54681e-20)
(-0.596648 0.241704 -1.05643e-19)
(-0.648869 0.248659 -5.06874e-20)
(-0.701439 0.253636 0)
(-0.753958 0.256656 9.34239e-20)
(-0.806199 0.257793 8.99181e-20)
(-0.857914 0.257192 0)
(-0.90883 0.254978 8.3474e-20)
(-0.958748 0.2513 0)
(-1.00755 0.246341 7.78191e-20)
(-1.05515 0.240302 3.77451e-20)
(-1.1015 0.2334 0)
(-1.14658 0.225849 0)
(-1.19038 0.21785 0)
(-1.23292 0.20958 0)
(-1.27419 0.201199 0)
(-1.31424 0.192842 0)
(-1.35309 0.184619 6.21365e-20)
(-1.39076 0.176615 -9.12341e-20)
(-1.4273 0.168895 0)
(-1.46273 0.161502 0)
(-1.49711 0.154463 0)
(-1.53046 0.147792 1.834e-22)
(-1.56283 0.141494 5.52527e-20)
(-1.59425 0.135561 1.08424e-19)
(-1.62479 0.129987 -1.06616e-19)
(-1.65446 0.124754 -5.23634e-20)
(-1.68332 0.119849 5.16986e-20)
(-1.7114 0.115252 -1.52747e-22)
(-1.73874 0.110946 4.99869e-20)
(-1.76539 0.10691 0)
(-1.79137 0.103129 4.85328e-20)
(-1.81674 0.0995829 -1.29386e-22)
(-1.84151 0.0962589 0)
(-1.86573 0.0931416 0)
(-1.88943 0.0902197 -4.5826e-20)
(-1.91264 0.0874816 0)
(-1.93539 0.0849197 0)
(-1.95772 0.0825254 4.38066e-20)
(-1.97965 0.0802931 8.65429e-20)
(-2.00121 0.078217 -4.27298e-20)
(-2.02244 0.0762942 0)
(-2.04337 0.0745209 4.1474e-20)
(-2.06403 0.0728951 0)
(-2.08444 0.0714148 4.00852e-20)
(-2.10465 0.0700787 3.95994e-20)
(-2.12469 0.068886 -7.7822e-20)
(-2.14458 0.0678356 -3.82258e-20)
(-2.16436 0.0669263 0)
(-2.18408 0.066156 7.40852e-20)
(-2.20375 0.0655227 0)
(-2.22341 0.0650226 1.07457e-19)
(-2.2431 0.064652 7.03533e-20)
(-2.26285 0.064403 6.91147e-20)
(-2.2827 0.0642691 -6.78808e-20)
(-2.30266 0.0642398 1.00056e-19)
(-2.32278 0.0643075 0)
(-2.34306 0.0644583 0)
(-2.36352 0.064679 -6.30238e-20)
(-2.38418 0.0649502 -9.28529e-20)
(-2.40505 0.0652573 0)
(-2.42612 0.0655781 2.98648e-20)
(-2.4474 0.0658938 0)
(-2.46886 0.0661768 -8.60209e-20)
(-2.49048 0.0664071 -2.61426e-22)
(-2.51224 0.0665545 2.78219e-22)
(-2.53408 0.0665969 5.40919e-20)
(-2.55595 0.0665062 0)
(-2.57774 0.0662598 -5.21358e-20)
(-2.59938 0.0658127 -3.53927e-22)
(-2.62079 0.0651081 0)
(-2.64191 0.0640916 0)
(-2.66262 0.0627219 0)
(-2.6828 0.0609577 4.83098e-20)
(-2.70236 0.058764 0)
(-2.72117 0.0562035 0)
(-2.73896 0.0533648 0)
(-2.75554 0.0500603 0)
(-2.77085 0.0461944 0)
(-2.78463 0.0418881 4.44509e-20)
(-2.79686 0.0371141 0)
(-2.80718 0.0318703 4.41304e-20)
(-2.81564 0.0261364 4.37981e-20)
(-2.82186 0.0199808 -4.35458e-20)
(-2.82575 0.0134325 0)
(-2.82677 0.00652496 -4.30138e-20)
(-2.82482 -0.000787977 0)
(-2.81946 -0.0085485 -4.24838e-20)
(-2.81056 -0.0166655 4.21702e-20)
(-2.79776 -0.0251629 1.24979e-19)
(-2.78076 -0.0339963 0)
(-2.75934 -0.0431863 1.22793e-19)
(-2.73337 -0.0527077 4.02369e-20)
(-2.7024 -0.0624082 0)
(-2.66632 -0.0723131 7.85786e-20)
(-2.62502 -0.0824825 7.70482e-20)
(-2.57826 -0.0927373 -1.1288e-19)
(-2.5259 -0.103026 0)
(-2.46776 -0.113338 -3.5241e-20)
(-2.40396 -0.123544 -3.37278e-20)
(-2.33427 -0.133686 -9.66168e-20)
(-2.25876 -0.143645 0)
(-2.17746 -0.153352 0)
(-2.09035 -0.162716 0)
(-1.99754 -0.171627 -2.36143e-20)
(-1.8992 -0.180025 0)
(-1.79554 -0.187839 0)
(-1.68685 -0.195011 1.14206e-20)
(-1.57344 -0.201478 7.10187e-21)
(-1.4557 -0.207189 0)
(-1.33404 -0.212092 0)
(-1.2089 -0.216156 -1.60505e-20)
(-1.08076 -0.219353 0)
(-0.950114 -0.221681 3.96796e-20)
(-0.817461 -0.223148 4.88877e-20)
(-0.683307 -0.223784 0)
(-0.548151 -0.223634 0)
(-0.412474 -0.222754 -9.00061e-20)
(-0.27673 -0.221219 -4.20461e-21)
(-0.141282 -0.219146 -4.32696e-21)
(-0.00634325 -0.216669 0)
(0.127464 -0.213741 -2.91936e-19)
(0.259327 -0.210171 0)
(0.388694 -0.205972 0)
(0.515002 -0.201222 0)
(0.63785 -0.195796 1.89227e-19)
(0.75722 -0.189618 0)
(0.87322 -0.182891 -4.08474e-19)
(0.985824 -0.175842 -2.16569e-19)
(1.09494 -0.168637 0)
(1.20048 -0.161383 -2.32847e-19)
(1.30239 -0.154166 0)
(1.40066 -0.147043 0)
(1.49528 -0.140072 -7.57224e-19)
(1.58628 -0.133286 5.15926e-19)
(1.67372 -0.126701 0)
(1.75766 -0.120338 5.39222e-19)
(1.83817 -0.114228 -2.76929e-19)
(1.91534 -0.108366 0)
(1.9893 -0.102751 0)
(2.06015 -0.0973818 0)
(2.128 -0.0922624 -8.79193e-19)
(2.19294 -0.0873842 0)
(2.25508 -0.0827281 -3.01172e-19)
(2.31453 -0.0782811 0)
(2.37138 -0.0740358 0)
(2.42572 -0.069976 0)
(2.47762 -0.0660833 0)
(2.52716 -0.0623367 0)
(2.57438 -0.0586952 0)
(2.61929 -0.0551018 -6.37403e-19)
(2.66187 -0.0514754 0)
(2.70199 -0.0476904 -3.23948e-19)
(2.73946 -0.0435522 9.76757e-19)
(2.77391 -0.038719 0)
(2.80468 -0.0325913 0)
(2.83118 -0.0238733 -6.67264e-19)
(2.85105 -0.0103985 -6.77948e-19)
(2.86919 0.0135029 6.83065e-19)
(2.87444 0.0577361 7.04832e-19)
(-0.00672299 -0.0983187 -1.77237e-18)
(-0.00873697 -0.0674744 -7.0257e-19)
(-0.0185359 -0.0351564 -2.70699e-19)
(-0.0302589 -0.00561371 -9.88898e-20)
(-0.0441552 0.0220485 0)
(-0.0601527 0.048347 1.41865e-19)
(-0.078274 0.0735093 -6.46802e-20)
(-0.098648 0.09763 0)
(-0.121454 0.120741 -5.81467e-20)
(-0.146845 0.142826 0)
(-0.174934 0.163819 1.09259e-19)
(-0.205847 0.183725 0)
(-0.23961 0.202752 5.22135e-20)
(-0.276031 0.221131 1.01967e-19)
(-0.314824 0.238868 -9.93913e-20)
(-0.355776 0.255662 0)
(-0.398703 0.271259 -9.35634e-20)
(-0.443279 0.285812 0)
(-0.488956 0.29925 0)
(-0.535186 0.311312 -8.3701e-20)
(-0.581571 0.32167 0)
(-0.627896 0.330069 1.18949e-22)
(-0.67404 0.336323 0)
(-0.719863 0.340277 0)
(-0.76522 0.341895 -4.1527e-23)
(-0.810011 0.34129 -6.67326e-20)
(-0.854146 0.338647 -6.43811e-20)
(-0.897548 0.334184 -6.22548e-20)
(-0.940156 0.328147 0)
(-0.981922 0.320789 -1.16684e-19)
(-1.02282 0.312356 0)
(-1.06283 0.303089 -5.49327e-20)
(-1.10194 0.293213 0)
(-1.14014 0.282935 0)
(-1.17744 0.27244 5.06534e-20)
(-1.21383 0.261889 0)
(-1.24931 0.251417 -4.82616e-20)
(-1.2839 0.241134 -6.93885e-23)
(-1.31759 0.231126 9.24276e-20)
(-1.3504 0.221458 -9.04727e-20)
(-1.38234 0.212176 0)
(-1.41342 0.203309 0)
(-1.44366 0.194874 -4.26642e-20)
(-1.47307 0.186875 0)
(-1.50169 0.17931 -4.13442e-20)
(-1.52954 0.17217 4.06683e-20)
(-1.55663 0.165441 4.00218e-20)
(-1.58301 0.159106 0)
(-1.60869 0.153147 -3.88038e-20)
(-1.6337 0.147544 -3.82265e-20)
(-1.65807 0.142277 7.52299e-20)
(-1.68184 0.137325 -3.71225e-20)
(-1.70502 0.13267 -3.65914e-20)
(-1.72765 0.128296 0)
(-1.74975 0.124184 0)
(-1.77136 0.120323 3.50593e-20)
(-1.79249 0.116699 0)
(-1.81318 0.113302 0)
(-1.83345 0.110122 -6.71757e-20)
(-1.85333 0.107153 -6.62106e-20)
(-1.87284 0.104388 0)
(-1.89201 0.101824 0)
(-1.91088 0.0994559 0)
(-1.92946 0.0972813 0)
(-1.94779 0.0952981 -6.14327e-20)
(-1.96589 0.0935045 6.04176e-20)
(-1.9838 0.0918991 5.95258e-20)