/*--------------------------------*- C++ -*----------------------------------*\
| =========                 |                                                 |
| \\      /  F ield         | OpenFOAM: The Open Source CFD Toolbox           |
|  \\    /   O peration     | Version:  2312                                  |
|   \\  /    A nd           | Website:  www.openfoam.com                      |
|    \\/     M anipulation  |                                                 |
\*---------------------------------------------------------------------------*/
FoamFile
{
    version     2.0;
    format      ascii;
    arch        "LSB;label=64;scalar=64";
    class       volScalarField;
    location    "160";
    object      p;
}
// * * * * * * * * * * * * * * * * * * * * * * * * * * * * * * * * * * * * * //

dimensions      [0 2 -2 0 0 0 0];

internalField   nonuniform List<scalar> 
404911
(
0.0563715
0.056372
0.0564078
0.0563877
0.0563346
0.0563587
0.0563822
0.05639
0.0563888
0.0563883
0.0569833
0.0566287
0.0564721
0.0564314
0.0564038
0.0563958
0.0571754
0.0569716
0.0567395
0.056615
0.0574895
0.05731
0.0570319
0.0579569
0.057716
0.057309
0.0583636
0.0581922
0.0580525
0.0589057
0.0587448
0.0585576
0.0583265
0.058255
0.0590007
0.0588908
0.0586864
0.0596136
0.0594065
0.0591991
0.0589859
0.0598181
0.059719
0.0595819
0.0594156
0.0591422
0.0599413
0.0598373
0.059696
0.0595931
0.0602314
0.0601052
0.0599277
0.0598469
0.0602643
0.0602352
0.0625766
0.0561086
0.0561436
0.056141
0.0567475
0.0564904
0.0571721
0.0569607
0.0567682
0.0575342
0.0572949
0.0570426
0.0580005
0.0576291
0.0583706
0.0580848
0.0580384
0.0587366
0.0585382
0.0582267
0.0581139
0.0589596
0.0588388
0.0594709
0.0591943
0.0597391
0.0595356
0.0594802
0.0599868
0.0598623
0.060316
0.0600515
0.0598924
0.0603295
0.0603095
0.0624242
0.06254
0.0623976
0.0631052
0.0628548
0.0627189
0.0634393
0.0632058
0.0629465
0.0637449
0.0636809
0.0634765
0.0637095
0.02276
0.0225265
0.0223131
0.0240218
0.0238012
0.0232938
0.0232295
0.0229174
0.0226976
0.0225231
0.0221886
0.0247383
0.024473
0.0238753
0.0235262
0.0232333
0.02306
0.0228154
0.0226211
0.021576
0.0255632
0.0252948
0.0250979
0.0248614
0.0246596
0.0245009
0.0241232
0.0237158
0.0233786
0.0231914
0.0229872
0.0227233
0.0222601
0.021743
0.0216176
0.0215222
0.0262275
0.0259282
0.0256592
0.0253898
0.0251583
0.0249474
0.0247494
0.0245548
0.0242929
0.0239632
0.0236636
0.0233562
0.0231563
0.0228803
0.021584
0.027077
0.0266824
0.0263571
0.0260049
0.025688
0.025455
0.0252256
0.0250121
0.0248077
0.0246168
0.024334
0.0240584
0.0238266
0.0235505
0.0233918
0.0275653
0.0273097
0.0268772
0.0265251
0.026191
0.0258098
0.0255549
0.025288
0.0250885
0.0249186
0.0246978
0.0244836
0.0241999
0.0239454
0.0237036
0.0235512
0.0285338
0.0281224
0.0277198
0.0274285
0.0269604
0.0267193
0.0263816
0.0259109
0.0256309
0.0253729
0.0251992
0.0250032
0.0247887
0.0245611
0.0243118
0.0240634
0.0238454
0.0297469
0.0294073
0.0290976
0.028701
0.0282969
0.0279326
0.027624
0.0272454
0.0269127
0.0265389
0.0260403
0.0257739
0.02552
0.0253311
0.0251321
0.0248884
0.0246735
0.0244421
0.0303734
0.0300633
0.0296098
0.029267
0.0288857
0.0284893
0.0281717
0.0277863
0.0274315
0.0270526
0.0266992
0.0262541
0.0258819
0.025665
0.0254756
0.0252326
0.025032
0.0247963
0.0311962
0.0309124
0.0306211
0.0302897
0.0298789
0.0294872
0.0291123
0.0287099
0.0283486
0.0279667
0.0276127
0.0272498
0.0268897
0.0264663
0.0260686
0.0258053
0.0256209
0.0254086
0.031724
0.0314322
0.0311184
0.0308362
0.0304968
0.030103
0.0297364
0.0293445
0.0289473
0.0285908
0.0282053
0.027836
0.0274294
0.0270647
0.0267722
0.0263304
0.025912
0.0324572
0.0321868
0.0318433
0.0316193
0.0313472
0.0310361
0.0306856
0.0303268
0.0299573
0.0295648
0.0291771
0.0287857
0.0284128
0.0280523
0.0276343
0.027247
0.0269755
0.0331746
0.0328703
0.0325783
0.0324491
0.0321704
0.0318812
0.0315616
0.0312719
0.0309379
0.0305945
0.0302154
0.0297713
0.0293584
0.0289581
0.0286436
0.0282328
0.0278237
0.0274845
0.0341562
0.0338559
0.0333983
0.033041
0.0327431
0.032643
0.0323653
0.0320848
0.0317679
0.0314911
0.031235
0.030846
0.0304165
0.0299783
0.0295278
0.0290929
0.0288401
0.0285538
0.0347604
0.0345761
0.034381
0.0342017
0.0337455
0.0332864
0.0329642
0.0328266
0.0326276
0.0323255
0.0319564
0.0316883
0.0315103
0.0311141
0.0306002
0.0301383
0.0297455
0.0293099
0.035143
0.0349135
0.0347138
0.0345248
0.0343425
0.0340497
0.0336079
0.0332625
0.0329899
0.0327959
0.0324379
0.0320654
0.0318484
0.0317016
0.031336
0.0307752
0.0302839
0.029905
0.0357977
0.035543
0.035221
0.0350372
0.0348414
0.0345981
0.0344103
0.0341596
0.0338796
0.0335502
0.0332333
0.0330121
0.0326387
0.0322363
0.0319641
0.0318212
0.031497
0.0309816
0.0362631
0.0359537
0.0356981
0.0354326
0.0351724
0.0349476
0.0347165
0.0344689
0.0342275
0.0340548
0.0338563
0.0335285
0.0332213
0.032873
0.0324569
0.0321532
0.0319602
0.0317141
0.0372955
0.0370049
0.0365174
0.0361359
0.0359075
0.0356325
0.0353698
0.0351028
0.0348752
0.0345758
0.0343045
0.0341663
0.0340159
0.0338349
0.0335522
0.0331842
0.0327317
0.0323528
0.0377714
0.037554
0.0373395
0.0369162
0.0364963
0.036194
0.0359282
0.0356763
0.0353432
0.0350883
0.034703
0.0344613
0.0342922
0.034127
0.0339316
0.0337041
0.0333617
0.0383212
0.0381067
0.0378971
0.0377217
0.0375567
0.0371592
0.0368157
0.0364611
0.0361904
0.0358472
0.0355307
0.0352874
0.0349261
0.0346419
0.0344669
0.034271
0.034069
0.0338257
0.0387176
0.0384827
0.0382766
0.0380478
0.0378652
0.0376764
0.0373841
0.0370696
0.0367758
0.0365128
0.0361952
0.0358214
0.0354649
0.0351126
0.0348224
0.0346153
0.0344171
0.0342047
0.0390746
0.038876
0.0386653
0.0384551
0.0381963
0.0379499
0.0377679
0.037521
0.037247
0.0370182
0.0367967
0.036501
0.0360595
0.0357013
0.0353353
0.0351401
0.0348168
0.034615
0.0396668
0.0394346
0.0392346
0.0390429
0.0388483
0.038675
0.0383805
0.038118
0.0378586
0.0375784
0.0373196
0.0371489
0.0369532
0.0367429
0.0363463
0.0359341
0.0355817
0.0352728
0.0402103
0.040012
0.0398159
0.0396081
0.0394173
0.0392154
0.0390107
0.0388125
0.0385958
0.0383065
0.0380087
0.0377239
0.0374146
0.0372478
0.0370478
0.0368201
0.0364633
0.036165
0.0405899
0.0403607
0.0401639
0.0399686
0.0397668
0.0395899
0.0394231
0.0392061
0.0389921
0.0387286
0.0384533
0.0381697
0.0379123
0.0376
0.0373876
0.0371846
0.0369665
0.0366541
0.0411435
0.0409282
0.0407232
0.0405157
0.0402944
0.0401092
0.0399286
0.0397601
0.0396189
0.0394588
0.039199
0.038912
0.0386234
0.0383818
0.0381123
0.0377884
0.0374443
0.0373638
0.041496
0.0412859
0.041073
0.0408665
0.0406447
0.0404356
0.0402485
0.0400701
0.0399073
0.0397685
0.0396482
0.0394005
0.039127
0.0388186
0.0385162
0.0383303
0.0380312
0.0377553
0.0418911
0.0416496
0.0414069
0.041198
0.0409962
0.040766
0.0405516
0.0403751
0.0402051
0.0400402
0.0398823
0.0397155
0.0395072
0.0392497
0.0389693
0.0387116
0.0384699
0.038185
0.0423544
0.0420886
0.0418107
0.0415297
0.0413693
0.0411644
0.0409151
0.0406387
0.0404874
0.0403321
0.0401684
0.0399985
0.0398123
0.0395965
0.039356
0.0391142
0.0388532
0.0386508
0.042876
0.0427253
0.0425698
0.0423362
0.0420483
0.0417733
0.0415816
0.0413816
0.0411249
0.040798
0.0406243
0.0404728
0.0403074
0.0401256
0.0399305
0.0397184
0.0394999
0.0392221
0.0433049
0.0430651
0.0428592
0.0426852
0.0424611
0.0421936
0.0419665
0.0417962
0.0416557
0.0414072
0.0410506
0.0407997
0.04064
0.0404674
0.040266
0.0400745
0.0398743
0.0396604
0.0437047
0.043478
0.0432429
0.0430286
0.0427659
0.0425084
0.042278
0.0420936
0.0419299
0.0417861
0.0415807
0.0413002
0.0410294
0.0408236
0.0406287
0.040442
0.0402598
0.0400681
0.0440509
0.0438559
0.0436468
0.043402
0.0432147
0.0429391
0.0426553
0.0423285
0.0421907
0.0420372
0.0418795
0.0416947
0.0414596
0.041234
0.0410045
0.0407908
0.0405962
0.0447357
0.0444691
0.0442456
0.0440313
0.0437933
0.0435677
0.0434
0.0431226
0.042807
0.0424689
0.0423045
0.0421573
0.0420002
0.0418165
0.0416053
0.041389
0.04117
0.0409449
0.0451359
0.0449058
0.0446755
0.0444481
0.0441917
0.0439306
0.0436786
0.0434969
0.0432987
0.0430346
0.0427139
0.0424037
0.0422936
0.042136
0.0419581
0.041763
0.0415508
0.0413605
0.0454796
0.0452901
0.0450852
0.0448714
0.0446674
0.0444177
0.0441701
0.0438268
0.043627
0.0434722
0.043243
0.0428975
0.0426199
0.0424618
0.0422963
0.0421266
0.0419526
0.0417545
0.0460403
0.0458246
0.0456433
0.0454603
0.045275
0.0450997
0.0449444
0.0446394
0.0443913
0.0440622
0.0437752
0.0436079
0.0434399
0.0431722
0.0428751
0.0426608
0.042474
0.0422888
0.0463663
0.0461718
0.046001
0.0458168
0.0456378
0.045463
0.0453021
0.0451712
0.044931
0.0446374
0.0442874
0.0439958
0.043708
0.0436062
0.0434059
0.043113
0.0428689
0.0426314
0.0467475
0.0465334
0.0463405
0.0461618
0.0459773
0.0458057
0.0456361
0.0454757
0.0453382
0.0451767
0.0448093
0.0445571
0.0441722
0.0438933
0.0437425
0.0435536
0.0433184
0.0430969
0.0470596
0.0469095
0.046707
0.0465128
0.0463262
0.0461416
0.0459719
0.0458037
0.0456184
0.0454395
0.0452788
0.0450744
0.0447631
0.044412
0.0441296
0.0439201
0.0437371
0.0435063
0.0474837
0.0472937
0.0470687
0.0468746
0.0466663
0.0464799
0.0463039
0.0461474
0.0459908
0.0457865
0.0455698
0.0453537
0.0451642
0.0449474
0.0446187
0.044366
0.0441263
0.0480396
0.0478238
0.0476418
0.0474335
0.0472106
0.0470207
0.0468111
0.0466229
0.0464572
0.0463145
0.0461956
0.0460044
0.045811
0.0455025
0.0452966
0.0450991
0.0448438
0.0446012
0.0483636
0.0481753
0.0479971
0.0478096
0.0476106
0.0474052
0.0471806
0.0469377
0.0467362
0.046594
0.0464686
0.0463667
0.0463032
0.0460059
0.04573
0.0454536
0.045259
0.0450413
0.0487345
0.0485353
0.0483451
0.048168
0.0479685
0.0477924
0.0476233
0.0474021
0.0471808
0.0468785
0.0467192
0.04661
0.0464925
0.0463711
0.046179
0.045908
0.045659
0.0454421
0.04908
0.0488856
0.0487019
0.0485047
0.048319
0.0481249
0.0479594
0.0478178
0.0476874
0.0475067
0.0471315
0.0469014
0.0467686
0.0466272
0.0464734
0.0462751
0.0460648
0.0458442
0.0494874
0.0492466
0.0490448
0.0488545
0.0486514
0.048453
0.0482619
0.0480958
0.0479472
0.0478138
0.0476183
0.0473676
0.0471267
0.0469492
0.0467789
0.0465969
0.046412
0.0461973
0.0498907
0.0496533
0.0494201
0.0492039
0.0489931
0.0487834
0.0485769
0.0483791
0.0482047
0.0480514
0.0479011
0.0477282
0.0475254
0.0473131
0.0471224
0.0469357
0.0467531
0.0465507
0.0503306
0.0500709
0.0498003
0.0495645
0.0493341
0.0491215
0.0489122
0.0486891
0.0484782
0.0482954
0.0481544
0.0480085
0.0478528
0.0476692
0.047477
0.0472935
0.0471018
0.046889
0.0507211
0.0505172
0.0502938
0.0499813
0.0496661
0.0494465
0.0492436
0.0490629
0.0488501
0.0485725
0.0483546
0.048253
0.0481373
0.0479939
0.0478229
0.0476377
0.0474511
0.0472887
0.0512966
0.0511129
0.0509162
0.0507515
0.0505694
0.0501965
0.0498759
0.0496488
0.0493696
0.0492269
0.0489698
0.0488186
0.0485446
0.0484001
0.0482897
0.0481513
0.0479816
0.0478116
0.0476221
0.0516426
0.051486
0.0513136
0.0511282
0.0509629
0.0508425
0.0505923
0.0503129
0.0499309
0.049606
0.0494467
0.0492535
0.0490516
0.0487927
0.0486127
0.0484782
0.0483213
0.0481557
0.0518203
0.0516463
0.0514753
0.0512938
0.0511426
0.0510145
0.05086
0.0506049
0.0502647
0.0499793
0.0496526
0.049445
0.0493176
0.0490965
0.0488505
0.0486649
0.0484956
0.0523596
0.0521818
0.0520096
0.051822
0.0516387
0.0514558
0.0512932
0.0511608
0.0510322
0.0507574
0.0505167
0.0501861
0.0499022
0.049659
0.049472
0.0492841
0.0490745
0.0488649
0.0527423
0.0525223
0.0523626
0.052183
0.0519939
0.0518043
0.0516078
0.0514204
0.0512789
0.0511738
0.0509633
0.0507089
0.0503905
0.0500814
0.0498793
0.0496756
0.0494757
0.0492427
0.0529916
0.0528753
0.052707
0.0525281
0.0523534
0.0521783
0.0519999
0.0517781
0.0515389
0.0513543
0.0512851
0.0511277
0.0509063
0.0506027
0.0503082
0.0500826
0.0498825
0.0496942
0.0531874
0.0530185
0.0528556
0.0526881
0.0525224
0.05236
0.0522142
0.0520203
0.0517492
0.0514847
0.0513822
0.0512834
0.0510676
0.0507786
0.0505348
0.0503001
0.050095
0.0536537
0.0533523
0.0531377
0.053012
0.0528559
0.0526846
0.0525215
0.052392
0.0522317
0.0519955
0.0516803
0.0515042
0.0513826
0.0511873
0.0509576
0.0507344
0.0505124
0.0546913
0.0543418
0.0539715
0.0536115
0.0533828
0.0532069
0.0530356
0.0528342
0.0526491
0.0525162
0.0524135
0.0521772
0.0518641
0.0516775
0.0515199
0.051338
0.0511185
0.0509027
0.0550946
0.0548748
0.0545797
0.0542207
0.0538234
0.0536008
0.0534213
0.0532489
0.0530382
0.052854
0.052624
0.0525472
0.0523333
0.0520627
0.0518566
0.0516652
0.0515096
0.0554196
0.0552463
0.0549926
0.0547151
0.0543977
0.0540217
0.0537506
0.0536051
0.0534637
0.0532096
0.0530441
0.0528275
0.052659
0.0525193
0.0522694
0.0520365
0.0518358
0.0560319
0.0558073
0.0556144
0.0554176
0.0551472
0.0549013
0.0545963
0.0542281
0.0539724
0.0537807
0.0536065
0.0534732
0.0532445
0.0530174
0.0528291
0.0526577
0.0524441
0.0522279
0.0564227
0.056192
0.0559546
0.0557895
0.0556057
0.0554166
0.0551831
0.054867
0.0545379
0.0543358
0.0540003
0.053835
0.0536022
0.0533802
0.0532063
0.0530223
0.0528422
0.0526439
0.056855
0.0565787
0.0564107
0.05613
0.0560153
0.0558589
0.0558313
0.0556589
0.0553595
0.0549001
0.0545895
0.0543508
0.054109
0.0538164
0.0535122
0.0533468
0.0531989
0.0530221
0.0573912
0.0571304
0.0568351
0.0565908
0.0564041
0.0562428
0.0561495
0.0559619
0.0557949
0.0556873
0.0552871
0.0549536
0.0547046
0.0544266
0.0541282
0.0538038
0.0535847
0.0534127
0.0580429
0.0578259
0.0575913
0.0573299
0.0570868
0.0568479
0.056674
0.0565462
0.0565418
0.0562445
0.0560077
0.0557851
0.0555285
0.0552442
0.0550023
0.0547813
0.0544411
0.0540901
0.0538387
0.0583873
0.0582019
0.0580111
0.0578077
0.0575699
0.0573133
0.0570991
0.0569025
0.0568089
0.056512
0.0562981
0.056089
0.0558896
0.0556894
0.0554374
0.0551798
0.0549726
0.0546745
0.0543907
0.058532
0.0583728
0.0581624
0.0579743
0.0577539
0.0575346
0.0572287
0.057016
0.0568435
0.0565918
0.0563973
0.0562029
0.0560168
0.0558106
0.0555713
0.0553477
0.0551199
0.0548945
0.0590273
0.0588038
0.0585798
0.0583577
0.0581649
0.0580268
0.0577767
0.0574771
0.0571638
0.0569461
0.0567095
0.0565179
0.056353
0.0561598
0.0559463
0.0557277
0.055498
0.05948
0.0592483
0.0590287
0.0587917
0.0585608
0.058352
0.0580284
0.0580075
0.0576624
0.0573813
0.0570982
0.0568813
0.0566949
0.056521
0.0563224
0.0561174
0.0558623
0.0599692
0.0596985
0.0594604
0.0592207
0.0589708
0.0586806
0.0584678
0.0582106
0.058087
0.0578923
0.0575644
0.0573006
0.0570879
0.0568939
0.0567004
0.0565
0.0562823
0.060593
0.0603847
0.0601714
0.0598939
0.0596462
0.059375
0.0590773
0.0588612
0.0586984
0.0585061
0.0582936
0.0580603
0.0577517
0.0574975
0.0572889
0.0570886
0.0568841
0.0567075
0.061078
0.0608438
0.0605772
0.0603482
0.0600732
0.0597923
0.0596112
0.0595088
0.0590887
0.0589029
0.0586979
0.0585011
0.0582702
0.0579514
0.0577073
0.0574891
0.0572802
0.0615275
0.0612943
0.0610353
0.0607728
0.0604671
0.060164
0.0598221
0.0596329
0.0594904
0.0593031
0.0590966
0.0588837
0.05869
0.0584661
0.0581979
0.0579334
0.0577081
0.061953
0.0617339
0.0615238
0.0612443
0.0609021
0.0605034
0.0602716
0.0601059
0.0598442
0.0596899
0.0595052
0.0592992
0.0590606
0.0588505
0.0586316
0.0583907
0.058156
0.0624605
0.062194
0.0619377
0.0616928
0.0613724
0.0610029
0.0606569
0.0604641
0.0601671
0.0600334
0.0598963
0.0597065
0.0594993
0.0592831
0.0590436
0.0588348
0.0585913
0.0628768
0.062687
0.0624289
0.0621584
0.0618927
0.0615819
0.0611647
0.060468
0.0605409
0.0604463
0.0603261
0.0601255
0.0599056
0.059694
0.0594702
0.0592375
0.0590202
0.0632995
0.0630732
0.0628766
0.0626935
0.0624175
0.062244
0.0619481
0.0614756
0.0611416
0.0608885
0.0607094
0.0605606
0.0603655
0.0601119
0.059899
0.0596777
0.0594364
0.063489
0.0632559
0.0630584
0.0628248
0.0626172
0.0623748
0.0622171
0.0618619
0.0614629
0.0611629
0.0609448
0.06075
0.060538
0.0603105
0.0601211
0.0598732
0.0642339
0.0638467
0.0635035
0.0632975
0.0630764
0.062867
0.0627241
0.0623238
0.0620143
0.0616942
0.0613799
0.0611257
0.0609427
0.0607184
0.0605006
0.0651823
0.0649565
0.0645885
0.064195
0.063776
0.0635715
0.0632916
0.0629963
0.0628324
0.0624929
0.0621554
0.0618505
0.0616265
0.0613657
0.0611403
0.0609289
0.0656304
0.065428
0.065219
0.0648786
0.0644968
0.0640271
0.0636352
0.0636753
0.0632628
0.0630393
0.0627323
0.0623668
0.0619496
0.0617744
0.0615677
0.0613487
0.0661407
0.0659168
0.0656879
0.0653801
0.0650503
0.0647045
0.0643028
0.0641184
0.0637918
0.0635241
0.0632872
0.0630135
0.0626273
0.0622508
0.0619847
0.0617826
0.0668715
0.0666165
0.0663713
0.0661438
0.0659757
0.0656501
0.0653237
0.0650449
0.0647721
0.064489
0.0641714
0.0637921
0.063468
0.0632266
0.0629345
0.0625984
0.067277
0.0670245
0.0668343
0.066638
0.0663934
0.066185
0.0658557
0.0655367
0.0652522
0.0650555
0.064764
0.0644547
0.0640847
0.063756
0.0635198
0.0632555
0.0678027
0.0674868
0.0672
0.0670008
0.0668244
0.0665805
0.0663713
0.066108
0.0657726
0.0655575
0.0653685
0.0651576
0.0648556
0.0644486
0.0640802
0.0637397
0.0684091
0.0680303
0.067621
0.0673471
0.0671605
0.0669878
0.0667737
0.0664776
0.066239
0.0659897
0.0657998
0.0656433
0.0654547
0.0652103
0.0647872
0.0644063
0.0690403
0.0686057
0.0682832
0.0679485
0.0676003
0.0673994
0.0671724
0.0669636
0.0666359
0.0664073
0.0661734
0.0659544
0.0658537
0.0656945
0.0654253
0.0651348
0.0695979
0.0693096
0.0689601
0.0686394
0.068317
0.0680418
0.067725
0.0674474
0.0672339
0.066868
0.0665727
0.0663819
0.0662287
0.0660133
0.0658332
0.0701306
0.0699131
0.0696071
0.0692792
0.0689091
0.0685928
0.0683291
0.068067
0.0677804
0.067496
0.0671967
0.0668085
0.0665648
0.0664136
0.0662439
0.0660119
0.0705842
0.0703595
0.0701564
0.0699389
0.0695715
0.0691857
0.0688826
0.0685741
0.0683699
0.0680783
0.0678082
0.067542
0.0671531
0.0668561
0.0666686
0.0664745
0.0710073
0.0708124
0.0705748
0.0703502
0.0700971
0.0697723
0.0694776
0.0691964
0.0688956
0.0686377
0.0683763
0.0681234
0.0678929
0.0675388
0.0671809
0.0713147
0.0710074
0.0708165
0.0706243
0.0703461
0.0700071
0.0697033
0.0694637
0.0692036
0.0689446
0.0686257
0.0683947
0.0681037
0.0678181
0.0722545
0.0717712
0.0713907
0.071152
0.0708709
0.0705767
0.0702525
0.0699977
0.0697212
0.0694947
0.0692313
0.0688939
0.0686388
0.0729823
0.0727738
0.0724562
0.0721391
0.0717924
0.0714522
0.0711406
0.0708597
0.0705565
0.0702704
0.0699695
0.0696861
0.0694448
0.0691098
0.0734178
0.0731634
0.0729665
0.0726944
0.0724205
0.0720444
0.071764
0.0713859
0.07109
0.0707998
0.0704788
0.0701964
0.069937
0.0696821
0.073917
0.0736561
0.073384
0.0730969
0.0729177
0.0726376
0.0723358
0.071994
0.0716801
0.0713992
0.0710191
0.0707134
0.0704511
0.0702158
0.0743351
0.0741572
0.0739002
0.0736343
0.0733881
0.0731013
0.0728947
0.0725932
0.0722465
0.0719249
0.0716591
0.0712756
0.0709902
0.0707328
0.0747505
0.0745548
0.0743778
0.0741865
0.0739834
0.0737715
0.0734097
0.0731304
0.0728066
0.0724497
0.0721404
0.0718918
0.0715946
0.0712707
0.0751243
0.0749002
0.0747187
0.0746167
0.074461
0.0741558
0.0739472
0.0737365
0.07346
0.0730931
0.0726435
0.0723492
0.0721214
0.0748324
0.0747608
0.07454
0.0741756
0.0740097
0.0737775
0.0733705
0.0728456
0.0725378
0.0750627
0.0750046
0.0747877
0.0744519
0.0742239
0.0740269
0.0737163
0.0732532
0.0755456
0.0752813
0.0752193
0.0751446
0.0748233
0.0744481
0.0742215
0.0763492
0.0760208
0.0756084
0.0754333
0.0753195
0.0750575
0.0747235
0.0763718
0.0760701
0.0757772
0.0755486
0.0753246
0.0774441
0.0770059
0.0764138
0.0764057
0.0760914
0.0758361
0.07984
0.0796156
0.0783854
0.077882
0.0765235
0.0798883
0.079579
0.0793093
0.0790173
0.0788104
0.077013
0.0802973
0.0791585
0.0787685
0.0786155
0.0781585
0.0805453
0.0798243
0.0792125
0.00585604
0.00562408
0.00547005
0.00767933
0.00729033
0.00694015
0.00664698
0.00630318
0.00597061
0.00566787
0.00549581
0.00410502
0.00920064
0.00886817
0.00844132
0.0081348
0.00776639
0.00740102
0.00707195
0.00673451
0.00638582
0.00604839
0.00567991
0.00542423
0.00509499
0.00464825
0.00432243
0.0103592
0.0100064
0.00969681
0.0093129
0.00899089
0.00856407
0.00821208
0.00788355
0.00752505
0.00717169
0.00682372
0.00642112
0.00607174
0.00572343
0.00539158
0.00509835
0.00472861
0.00431874
0.00405775
0.00352285
0.00295636
0.00261381
0.0116012
0.0113153
0.0108983
0.0105214
0.0101114
0.00977468
0.0094336
0.0090494
0.00867258
0.00830244
0.00796539
0.00763229
0.00729021
0.0069516
0.00655415
0.00618427
0.00569095
0.00541734
0.00512725
0.00476835
0.00441944
0.00402204
0.00356296
0.0130065
0.0125783
0.0122714
0.0118266
0.0114727
0.0109913
0.0105904
0.0102145
0.00989152
0.00954268
0.00914772
0.00874725
0.00835743
0.00803142
0.00766156
0.00741879
0.00713969
0.00682612
0.00615874
0.00572845
0.00543399
0.00516791
0.00482401
0.00449961
0.00412499
0.0138886
0.0134233
0.0131718
0.0128038
0.0124359
0.0119095
0.0115867
0.0110863
0.0106533
0.0102924
0.0100066
0.0096755
0.00930571
0.00879029
0.00836703
0.00807386
0.00776728
0.00751702
0.00725988
0.00687545
0.00622822
0.00581063
0.00552147
0.00523288
0.00489546
0.0150929
0.0145402
0.0139837
0.0136803
0.0133138
0.0129052
0.0126039
0.012356
0.0119096
0.0113086
0.0107631
0.0103762
0.0101367
0.00983198
0.00961803
0.00894895
0.00838692
0.00811341
0.00783216
0.00756392
0.00727615
0.00696655
0.00637908
0.00595496
0.00563083
0.0162748
0.0158122
0.0152673
0.0146561
0.0141626
0.0138702
0.0135247
0.0131574
0.0127307
0.0125364
0.01219
0.0116238
0.0110195
0.010523
0.0102682
0.0100413
0.00981454
0.00917815
0.00846966
0.00815939
0.00789509
0.00758545
0.00728663
0.00691695
0.00649388
0.0181452
0.0177109
0.017035
0.0165321
0.0159514
0.0153478
0.0148186
0.0143733
0.0140479
0.0137349
0.0132893
0.0128959
0.0126885
0.0124393
0.0119612
0.0114297
0.0108431
0.0103801
0.0101034
0.00988009
0.0093045
0.00862189
0.00825573
0.0079759
0.00765036
0.00728863
0.0192397
0.0189155
0.0186034
0.018287
0.0178765
0.0172919
0.016734
0.0160962
0.0154773
0.0150962
0.0146417
0.0142292
0.0137851
0.0133437
0.0130149
0.0127753
0.0125128
0.012161
0.011729
0.0111089
0.010605
0.0102234
0.00975589
0.00922889
0.0088408
0.00836863
0.00807498
0.0197066
0.019407
0.019076
0.0187718
0.0183862
0.0179719
0.0174523
0.0169334
0.0164067
0.0158515
0.0153552
0.0148472
0.0143735
0.0138921
0.0133956
0.0131476
0.0128926
0.0126128
0.0122925
0.0119558
0.0115114
0.0108759
0.010453
0.00991752
0.00930897
0.0215905
0.0211904
0.0206469
0.0201001
0.0196805
0.0192176
0.0189452
0.0185957
0.0180441
0.0176013
0.0171251
0.0166158
0.0161096
0.0155341
0.0150526
0.0145895
0.0140308
0.0135175
0.0132741
0.0130271
0.0127417
0.0124779
0.012195
0.0118114
0.0112601
0.0221574
0.0217352
0.0214083
0.020981
0.0204602
0.0198849
0.0195007
0.0191768
0.0187185
0.0182796
0.0177465
0.0173402
0.0168505
0.0163424
0.0157273
0.0152363
0.0147075
0.0141814
0.0136966
0.0133998
0.0131538
0.0129098
0.0126515
0.0123722
0.0233174
0.0231418
0.0228152
0.0223918
0.0219221
0.0216288
0.0212971
0.0208207
0.0203637
0.0198053
0.0194325
0.0190007
0.018542
0.0181663
0.017633
0.0171004
0.0165615
0.0159912
0.0154443
0.0148882
0.0143408
0.0138781
0.0135747
0.0132989
0.013015
0.0240314
0.0237117
0.0234544
0.0232653
0.0230585
0.0225589
0.0222392
0.0219593
0.0216298
0.0212583
0.0206763
0.0201548
0.019755
0.0192801
0.0188427
0.0184061
0.0179364
0.0174081
0.0168607
0.0163358
0.0157208
0.0150134
0.0143796
0.0140512
0.0136684
0.0246754
0.0244102
0.024154
0.0238656
0.0235776
0.0233309
0.0231114
0.0227782
0.0225153
0.0222788
0.021984
0.0215615
0.0209884
0.0205433
0.0199654
0.0195652
0.0191438
0.018745
0.0182436
0.01774
0.0172365
0.0166527
0.0160747
0.0153505
0.0146243
0.0255722
0.0253048
0.0250698
0.0248247
0.0245774
0.0243385
0.0240016
0.0237395
0.0233849
0.0231775
0.0229242
0.0226965
0.0224813
0.0221583
0.021826
0.0213257
0.0208046
0.0202908
0.0199258
0.0194524
0.0190241
0.01854
0.0180163
0.0175145
0.016993
0.0164351
0.0262985
0.0260887
0.0257434
0.0254637
0.0252168
0.0249529
0.024725
0.0244857
0.0242095
0.0238864
0.0235566
0.023266
0.023052
0.0228316
0.0226386
0.0222863
0.0218211
0.0215359
0.0211087
0.0207054
0.0203214
0.0197837
0.019316
0.0188114
0.0183386
0.0178278
0.0272142
0.0268174
0.0264419
0.0261647
0.0258822
0.0255616
0.0252884
0.0250651
0.0248503
0.024638
0.0243096
0.0239994
0.0237796
0.0234236
0.0231945
0.022969
0.0226905
0.0222926
0.0218118
0.021562
0.0213244
0.0208235
0.0205545
0.0202369
0.0196608
0.0191407
0.0186595
0.0278971
0.0276458
0.0273122
0.0269582
0.0265912
0.0262449
0.0259312
0.0256492
0.0253901
0.0251639
0.0249494
0.0247419
0.0245283
0.0241767
0.0238507
0.0236142
0.023366
0.0231474
0.0228323
0.0223457
0.0218423
0.0215492
0.0212697
0.0209465
0.0206811
0.0204454
0.0201227
0.0284674
0.0281082
0.0277878
0.0274607
0.0270896
0.026694
0.0263428
0.0260102
0.0256981
0.0254433
0.0252282
0.0250251
0.0248218
0.0246053
0.0243489
0.0240588
0.0237953
0.0235671
0.0233718
0.0231311
0.0225845
0.0220198
0.0216361
0.0213747
0.0210681
0.0207728
0.0294047
0.0289756
0.0286274
0.0282784
0.0279263
0.0276025
0.0271692
0.0268841
0.0265568
0.0261774
0.0258558
0.0255399
0.0252815
0.0251007
0.0249048
0.0246868
0.0244463
0.0241877
0.0239382
0.0237148
0.0235597
0.0232313
0.0226584
0.0221729
0.0218156
0.0215071
0.030226
0.029885
0.0295628
0.029212
0.0288358
0.0284744
0.0281324
0.0277065
0.0273681
0.0270406
0.0266443
0.0262848
0.0258875
0.0256625
0.0253833
0.0251927
0.0250005
0.0247853
0.0245479
0.0243014
0.024065
0.0238186
0.0235394
0.0232084
0.0228708
0.0224156
0.0307337
0.0304441
0.0301129
0.0297299
0.0293856
0.0289267
0.0286791
0.0283223
0.0278711
0.0275314
0.0272026
0.0267989
0.0264604
0.0260552
0.0257158
0.0255167
0.0253181
0.025114
0.0248949
0.0246591
0.024394
0.0241574
0.0239068
0.0236313
0.0233427
0.0315777
0.0312904
0.0309845
0.0306881
0.0303598
0.0299696
0.0296935
0.0292161
0.0287991
0.0283967
0.0280836
0.0277558
0.0273683
0.0269968
0.0266413
0.0262607
0.0259157
0.0256627
0.0254616
0.0252486
0.0250256
0.0247792
0.0245179
0.0242598
0.0240313
0.0237773
0.0323866
0.0320964
0.0318057
0.0315022
0.0311941
0.0308934
0.0305874
0.0300919
0.0298494
0.0294777
0.0290578
0.0286719
0.0282778
0.0279002
0.0275677
0.0271924
0.0267866
0.0264245
0.0261897
0.0258193
0.0256292
0.0253993
0.0251468
0.0248959
0.0246637
0.0244168
0.0331841
0.0328588
0.0325603
0.0322803
0.0319902
0.0317196
0.0314255
0.0311236
0.0307803
0.030361
0.0300333
0.0297112
0.0292808
0.028885
0.0284965
0.0281113
0.0277416
0.0274453
0.027094
0.0265947
0.0262737
0.0260057
0.0258162
0.0255561
0.0253037
0.0250594
0.0248083
0.0336283
0.0333246
0.0330363
0.0327202
0.0324567
0.0321817
0.0319212
0.0316458
0.0313528
0.0310393
0.0306556
0.0302842
0.0299578
0.0295069
0.0291079
0.0287094
0.0283131
0.0280109
0.0275904
0.0273648
0.0269163
0.0265816
0.0262561
0.0259918
0.0257317
0.0254905
0.0343929
0.0341386
0.0338652
0.03352
0.0331892
0.0328736
0.0326185
0.0324228
0.0321894
0.0318948
0.0315631
0.0312365
0.0309009
0.0305922
0.0301752
0.029746
0.0293187
0.0288666
0.0283834
0.0283793
0.0278572
0.0274509
0.0271386
0.0267835
0.0264171
0.0261685
0.034806
0.034583
0.0343595
0.0341061
0.0337488
0.0335252
0.0331773
0.0328571
0.0326082
0.0323966
0.0321317
0.0317843
0.0314535
0.0310505
0.0307757
0.0304141
0.0299095
0.0294826
0.0292436
0.0288594
0.0284255
0.0280066
0.0276621
0.0273532
0.0269992
0.0354812
0.0352419
0.0350004
0.034737
0.0345343
0.0343357
0.0339925
0.033583
0.0333779
0.0331358
0.0328467
0.0325282
0.0322958
0.0320059
0.0316647
0.0313489
0.0309934
0.0306456
0.0302477
0.0297061
0.0293061
0.0289945
0.0286186
0.0282587
0.0278554
0.0359478
0.0356636
0.0354132
0.0351555
0.0349048
0.0346971
0.0344947
0.0341918
0.0337972
0.0336137
0.0334047
0.0331074
0.0327663
0.0324688
0.0321478
0.0318204
0.0315411
0.0311931
0.0308703
0.030356
0.0298951
0.0295
0.0291432
0.0288013
0.0285068
0.0367346
0.0364356
0.0361323
0.0358095
0.0355476
0.0352852
0.0350361
0.0348073
0.0346149
0.0343706
0.0339854
0.0337021
0.0335048
0.03341
0.0330376
0.0326645
0.0323272
0.0319698
0.0317316
0.0315537
0.0309901
0.0305339
0.0301145
0.0297639
0.0293549
0.0372913
0.0369901
0.0366595
0.0363172
0.0359743
0.0357157
0.0354608
0.0352063
0.0349609
0.0345891
0.0345538
0.0342336
0.0339644
0.0336979
0.0334255
0.0332091
0.0329192
0.0325064
0.0321566
0.0319583
0.0316181
0.0311132
0.0307778
0.0303878
0.0299898
0.0379373
0.0377392
0.0374992
0.0372332
0.0368872
0.036679
0.0364386
0.0360259
0.0356928
0.0354294
0.0351657
0.0347791
0.0346008
0.0344151
0.0341441
0.0339584
0.0337397
0.0334014
0.0331025
0.032763
0.0323794
0.0321038
0.0317705
0.0313617
0.0310021
0.0383616
0.0381486
0.0379372
0.0377212
0.0375117
0.0371364
0.0367419
0.0365965
0.036284
0.0359937
0.0356125
0.035286
0.0349758
0.0347009
0.0345028
0.0342909
0.0340948
0.0339261
0.0336849
0.033359
0.0330157
0.032647
0.0323212
0.0318933
0.0389665
0.0387322
0.0385216
0.0382998
0.0380909
0.0379009
0.0376939
0.0373955
0.0369814
0.0368263
0.0365593
0.0362495
0.0359222
0.0355545
0.0352298
0.0349301
0.0346868
0.03448
0.0342618
0.0340597
0.0337976
0.0335157
0.0332107
0.032889
0.0325886
0.0393214
0.0391034
0.0389102
0.0387045
0.0384867
0.0382705
0.0380818
0.0378533
0.0375445
0.0372924
0.0370739
0.0368461
0.0365416
0.036211
0.0358326
0.0354859
0.0351832
0.0348359
0.0346196
0.034434
0.0341977
0.0339364
0.0336952
0.0333982
0.0398976
0.0396813
0.0394833
0.0392588
0.0390617
0.0388744
0.0386617
0.0384535
0.0382604
0.0380521
0.0377544
0.0374571
0.0372374
0.0369902
0.0366314
0.036342
0.0360478
0.0357776
0.0353763
0.0350907
0.034856
0.0346131
0.0343523
0.0341253
0.0338687
0.0402706
0.0400512
0.0398519
0.0396466
0.0394279
0.0392289
0.0390266
0.0388334
0.0385874
0.0382868
0.0381675
0.0379225
0.0376304
0.0374261
0.0371503
0.0369221
0.0366273
0.0362471
0.0359399
0.0356062
0.0353157
0.0350519
0.0348152
0.0345587
0.0408575
0.0406432
0.0404273
0.0401917
0.0399955
0.0398125
0.0396018
0.0394149
0.0392068
0.0390075
0.0387985
0.0384252
0.0382535
0.0380141
0.0377986
0.0375511
0.03726
0.0370459
0.0368157
0.0364993
0.036143
0.0358333
0.035517
0.0352892
0.0350542
0.0412076
0.040998
0.0407923
0.040581
0.040358
0.0401572
0.0399539
0.0397735
0.0395822
0.0393983
0.0391404
0.0390274
0.0387402
0.0384412
0.0381341
0.0379665
0.037706
0.0374149
0.0371769
0.0369518
0.0366401
0.0363026
0.0360436
0.0357528
0.0415759
0.0413777
0.0411518
0.0409243
0.0407281
0.0405081
0.040312
0.0401029
0.0399217
0.039746
0.0395725
0.0392838
0.0391099
0.0388692
0.0386406
0.0383748
0.0380365
0.0377968
0.0375371
0.0373391
0.0371014
0.0367995
0.0365255
0.0362613
0.0421558
0.0419561
0.041749
0.0415078
0.0412823
0.0410742
0.0408537
0.0406445
0.0404336
0.0402439
0.0400622
0.0398954
0.0397346