/*--------------------------------*- C++ -*----------------------------------*\
  =========                 |
  \\      /  F ield         | OpenFOAM: The Open Source CFD Toolbox
   \\    /   O peration     | Website:  https://openfoam.org
    \\  /    A nd           | Version:  8
     \\/     M anipulation  |
\*---------------------------------------------------------------------------*/
FoamFile
{
    version     2.0;
    format      ascii;
    class       volScalarField;
    location    "245";
    object      epsilon;
}
// * * * * * * * * * * * * * * * * * * * * * * * * * * * * * * * * * * * * * //

dimensions      [0 2 -3 0 0 0 0];

internalField   nonuniform List<scalar> 
12225
(
285.514
270.699
257.919
243.804
232.469
223.075
216.823
212.694
212.743
213.944
217.253
220.859
228.115
232.713
241.312
246.705
254.076
264.239
52.4948
91.8778
106.974
114.744
124.846
136.775
152.692
169.893
191.103
210.918
235.206
255.463
281.004
299.298
324.651
339.234
364.4
373.207
20.3237
34.8554
44.676
50.4679
55.3974
59.6049
64.6654
69.6398
76.3162
83.1795
91.4295
99.3121
108.156
116.924
125.511
135.245
142.517
153.622
15.3484
19.6972
24.1131
27.5681
30.4977
32.8688
35.1554
37.2926
39.5021
41.9165
44.3351
47.1992
49.6777
53.0333
55.4051
59.2225
61.4146
65.6154
14.6509
15.8626
17.3672
19.0735
20.6385
22.0256
23.246
24.4308
25.4437
26.5942
27.5228
28.7569
29.6307
30.983
31.8105
33.26
34.0717
35.6362
14.7068
14.8769
15.2015
15.8666
16.5668
17.2866
17.9236
18.584
19.119
19.7337
20.193
20.7984
21.2078
21.8214
22.197
22.8232
23.1766
23.8541
14.7421
14.6201
14.6248
14.737
14.9297
15.219
15.4912
15.8088
16.0709
16.3824
16.618
16.9199
17.1306
17.4265
17.6153
17.9111
18.0803
18.4043
14.7626
14.5866
14.4638
14.3812
14.3669
14.39
14.4381
14.5337
14.6185
14.7366
14.8308
14.9563
15.0476
15.1759
15.2607
15.3913
15.4693
15.6187
14.7667
14.5908
14.4346
14.2963
14.1849
14.1044
14.0398
14.0066
13.9814
13.9785
13.9809
13.9916
14.004
14.0294
14.047
14.0792
14.1029
14.1452
14.7663
14.5939
14.432
14.282
14.143
14.0219
13.9115
13.8193
13.737
13.6698
13.6102
13.5633
13.5181
13.4871
13.4516
13.4341
13.4021
13.4007
14.7658
14.5945
14.4321
14.2803
14.1361
14.0032
13.8782
13.7644
13.6582
13.5629
13.4736
13.3952
13.3198
13.2561
13.1916
13.1408
13.0838
13.0451
14.7657
14.5943
14.4321
14.2798
14.1353
13.9998
13.8715
13.7518
13.6385
13.5337
13.4341
13.343
13.2557
13.1771
13.1003
13.0328
12.9647
12.9074
14.7657
14.5941
14.432
14.2794
14.1349
13.9989
13.8699
13.7485
13.6332
13.525
13.422
13.3257
13.2338
13.1484
13.0663
12.9906
12.9172
12.8502
14.7657
14.5939
14.4318
14.279
14.1346
13.9983
13.8691
13.7472
13.6315
13.5223
13.4184
13.3204
13.227
13.139
13.055
12.9759
12.9002
12.8291
14.7657
14.5938
14.4317
14.2787
14.1342
13.9977
13.8686
13.7464
13.6307
13.5211
13.4171
13.3185
13.2248
13.136
13.0516
12.9714
12.8951
12.8227
14.7657
14.5937
14.4315
14.2785
14.1339
13.9973
13.8681
13.7458
13.63
13.5202
13.4161
13.3174
13.2236
13.1346
13.05
12.9696
12.8931
12.8204
14.7657
14.5937
14.4315
14.2783
14.1337
13.997
13.8677
13.7453
13.6294
13.5195
13.4154
13.3165
13.2227
13.1336
13.0489
12.9684
12.8918
12.819
14.7657
14.5937
14.4314
14.2782
14.1335
13.9968
13.8674
13.7449
13.629
13.5191
13.4148
13.3159
13.222
13.1328
13.0481
12.9675
12.8909
12.8179
14.7657
14.5937
14.4314
14.2782
14.1335
13.9967
13.8673
13.7448
13.6288
13.5189
13.4146
13.3156
13.2217
13.1325
13.0477
12.9671
12.8904
12.8174
14.7657
14.5937
14.4314
14.2782
14.1336
13.9968
13.8674
13.745
13.629
13.519
13.4148
13.3158
13.2219
13.1327
13.0479
12.9673
12.8906
12.8177
14.7657
14.5937
14.4315
14.2784
14.1337
13.997
13.8677
13.7453
13.6294
13.5195
13.4154
13.3166
13.2229
13.1338
13.0493
12.9689
12.8926
12.8199
14.7657
14.5937
14.4316
14.2785
14.1341
13.9974
13.8685
13.7464
13.6312
13.522
13.419
13.3213
13.2293
13.1418
13.0594
12.981
12.9073
12.8368
14.7658
14.5937
14.4318
14.2788
14.1353
14.0002
13.8742
13.756
13.6463
13.5435
13.4485
13.3591
13.277
13.1992
13.1282
13.0601
12.9988
12.9386
14.7655
14.5928
14.4328
14.2844
14.1515
14.0321
13.929
13.8375
13.7593
13.6894
13.6306
13.5769
13.5328
13.4905
13.4574
13.423
13.3988
13.3693
14.7592
14.5932
14.4603
14.3602
14.3029
14.2766
14.2805
14.2921
14.321
14.3531
14.3959
14.4345
14.4824
14.5217
14.572
14.609
14.6617
14.6939
14.7213
14.6911
14.754
14.9176
15.1828
15.4611
15.7476
16.012
16.2723
16.5038
16.7361
16.9386
17.1508
17.331
17.531
17.6937
17.8889
18.0361
14.7477
15.5124
16.5473
17.6841
18.7044
19.5675
20.3372
20.9969
21.6195
22.1662
22.719
23.211
23.7402
24.2045
24.733
25.183
25.7254
26.1664
15.9871
20.9921
25.0238
27.7604
29.7847
31.3585
32.7772
34.058
35.3597
36.6167
37.9759
39.2977
40.7623
42.1465
43.7188
45.1749
46.8851
48.36
29.9032
47.2183
54.8696
58.6736
61.6142
64.4323
67.5811
70.9782
74.7397
78.7159
82.9873
87.3469
91.9082
96.4537
101.105
105.627
110.18
114.582
165.798
160.075
154.899
149.565
144.479
139.677
135.614
132.109
129.27
126.974
125.32
124.045
123.34
122.825
122.842
122.96
123.285
123.829
0.218667
0.265256
0.488842
0.691428
0.898004
1.12936
1.39404
1.6987
2.04333
2.42221
2.82679
3.24826
3.67882
4.11201
4.54253
4.96603
5.37871
5.77724
6.15853
6.51975
6.85831
7.17215
7.45983
7.72109
7.95704
8.17062
8.3473
8.4977
8.73201
8.92855
9.13661
39.4107
41.399
42.33
42.4471
41.7422
40.1635
9.1414
9.29573
9.06261
41.5761
44.8677
47.6986
51.3211
54.7677
58.56
62.4319
66.5186
70.753
75.1747
79.7665
84.5432
89.5013
94.6486
99.9854
105.517
111.245
117.174
123.305
129.641
136.183
142.935
149.894
157.066
164.446
172.038
179.838
187.848
196.062
204.482
213.1
221.917
230.925
240.122
249.498
259.052
268.772
278.653
288.684
298.86
309.166
319.595
330.132
340.769
351.488
362.278
373.122
384.004
394.904
405.803
416.676
427.498
438.242
448.879
459.388
469.759
480.019
490.227
500.245
510.129
519.837
529.369
538.701
547.821
556.71
565.354
573.737
581.845
589.663
597.177
604.375
611.243
617.77
623.946
629.761
635.206
640.272
644.952
649.241
653.134
656.627
659.715
662.394
664.661
666.511
667.933
668.887
669.428
669.814
669.966
669.371
668.365
666.973
665.256
663.113
660.707
657.932
654.832
651.408
647.681
643.667
639.403
634.88
630.092
625.055
619.776
614.268
608.539
602.602
596.464
590.137
583.627
576.945
570.096
563.091
555.934
548.634
541.194
533.625
525.933
518.133
510.27
502.687
497.838
495.024
492.3
489.465
486.486
483.357
480.069
476.621
473.002
469.203
465.199
460.955
456.385
451.308
445.263
437.773
409.1
1.08028
0.661059
0.667859
0.756807
0.89345
1.06936
1.2844
1.53781
1.82648
2.1452
2.48784
2.84847
3.22198
3.60423
3.99203
4.38299
4.77541
5.16838
5.56184
5.95689
6.35632
6.76529
7.19252
7.65194
8.16522
8.76607
9.50838
10.4823
11.8204
13.7129
16.4851
20.6681
21.2343
21.2962
20.9462
20.2591
19.5187
18.6442
19.856
22.8584
27.4473
28.6894
30.3884
32.1394
33.9263
35.7923
37.7128
39.7042
41.7605
43.8874
46.0842
48.3534
50.6956
53.1122
55.604
58.1721
60.817
63.5395
66.34
69.2189
72.1762
75.2123
78.3268
81.5196
84.79
88.1378
91.5616
95.061
98.6343
102.28
105.997
109.784
113.637
117.556
121.536
125.576
129.673
133.823
138.023
142.269
146.557
150.883
155.243
159.63
164.041
168.468
172.907
177.35
181.791
186.221
190.632
195.018
199.371
203.687
207.969
212.229
216.498
220.816
225.062
229.254
233.382
237.44
241.422
245.322
249.133
252.849
256.464
259.973
263.369
266.648
269.803
272.831
275.726
278.483
281.1
283.571
285.894
288.065
290.083
291.943
293.645
295.186
296.565
297.78
298.829
299.712
300.43
300.997
301.436
301.714
301.768
301.659
301.404
301.006
300.456
299.782
298.962
298.005
296.915
295.698
294.359
292.905
291.337
289.656
287.866
285.972
283.977
281.885
279.701
277.427
275.067
272.624
270.103
267.504
264.833
262.089
259.278
256.399
253.457
250.454
247.397
244.306
241.276
238.743
236.632
234.575
232.482
230.331
228.116
225.836
223.491
221.082
218.609
216.072
213.472
210.815
208.081
205.35
202.76
198.395
2.26914
1.16029
1.04164
1.08235
1.19035
1.34746
1.54799
1.78838
2.06442
2.37085
2.70202
3.05269
3.41853
3.79634
4.18397
4.58018
4.98454
5.39743
5.8201
6.25494
6.70595
7.17932
7.68441
8.23483
8.84946
9.55267
10.3712
11.3262
12.4317
13.6821
15.0257
16.2982
16.9621
17.4804
17.9731
18.5372
19.2842
20.3167
21.7597
23.4453
25.1151
26.4415
27.8503
29.3101
30.8208
32.3858
34.0033
35.6753
37.4021
39.1846
41.0233
42.9192
44.8728
46.8846
48.9553
51.0853
53.275
55.5248
57.8349
60.2056
62.6368
65.1285
67.6807
70.2931
72.9654
75.697
78.4873
81.3356
84.2411
87.2027
90.2192
93.2894
96.4115
99.5839
102.805
106.072
109.383
112.736
116.129
119.557
123.02
126.512
130.031
133.574
137.137
140.714
144.303
147.899
151.497
155.093
158.682
162.262
165.83
169.384
172.927
176.46
179.989
183.501
186.97
190.395
193.77
197.089
200.348
203.542
206.664
209.71
212.676
215.555
218.344
221.037
223.631
226.121
228.503
230.774
232.929
234.967
236.884
238.677
240.344
241.883
243.292
244.571
245.717
246.729
247.609
248.355
248.969
249.457
249.822
250.042
250.102
250.027
249.838
249.529
249.098
248.554
247.893
247.12
246.236
245.247
244.156
242.967
241.683
240.305
238.837
237.283
235.645
233.928
232.133
230.264
228.324
226.315
224.241
222.103
219.904
217.645
215.329
212.958
210.534
208.06
205.541
202.991
200.458
198.081
195.853
193.654
191.434
189.177
186.876
184.532
182.147
179.724
177.265
174.776
172.266
169.753
167.258
164.896
162.796
160.616
3.59357
1.71355
1.45997
1.45587
1.54744
1.69764
1.89432
2.13156
2.40463
2.70872
3.03897
3.3909
3.76087
4.14625
4.54543
4.95776
5.38334
5.823
6.27819
6.75103
7.24447
7.76249
8.31038
8.89502
9.52481
10.209
10.956
11.7713
12.6526
13.5852
14.5356
15.4519
16.2888
17.1202
17.9888
18.9271
19.963
21.1147
22.4035
23.7421
25.0834
26.4016
27.76
29.1644
30.6168
32.1187
33.6706
35.2735
36.9282
38.6353
40.3957
42.21
44.0789
46.003
47.9827
50.0187
52.1114
54.2612
56.4685
58.7336
61.0568
63.4382
65.8778
68.3757
70.9316
73.5453
76.2165
78.9446
81.7289
84.5688
87.4632
90.4111
93.4112
96.4621
99.5621
102.709
105.902
109.138
112.416
115.731
119.082
122.467
125.881
129.321
132.784
136.267
139.765
143.275
146.793
150.315
153.838
157.359
160.873
164.381
167.878
171.366
174.836
178.278
181.682
185.044
188.357
191.616
194.816
197.952
201.017
204.007
206.917
209.741
212.476
215.115
217.655
220.091
222.42
224.637
226.739
228.723
230.586
232.324
233.937
235.421
236.775
237.998
239.089
240.046
240.871
241.563
242.123
242.554
242.855
243.001
243.011
242.886
242.644
242.28
241.796
241.195
240.478
239.649
238.71
237.666
236.52
235.275
233.936
232.504
230.984
229.378
227.691
225.925
224.084
222.171
220.188
218.139
216.027
213.854
211.622
209.333
206.99
204.595
202.15
199.658
197.124
194.559
191.992
189.482
187.031
184.592
182.136
179.652
177.136
174.587
172.004
169.391
166.76
164.117
161.476
158.862
156.307
153.921
151.799
149.879
4.90445
2.27334
1.88186
1.83408
1.9068
2.04857
2.24077
2.47489
2.74543
3.04775
3.37753
3.73091
4.10471
4.49662
4.90525
5.33006
5.77124
6.22956
6.70625
7.20292
7.72147
8.26417
8.83364
9.43296
10.0657
10.7356
11.4467
12.2017
13.0013
13.8418
14.7141
15.6066
16.5154
17.453
18.4299
19.4553
20.5386
21.6843
22.8893
24.1342
25.4193
26.7359
28.0951
29.5003
30.9535
32.4559
34.0087
35.613
37.2696
38.9795
40.7437
42.5631
44.4389
46.3717
48.362
50.4105
52.518
54.6851
56.9125
59.2007
61.5503
63.9616
66.4349
68.9706
71.5688
74.2294
76.9523
79.7373
82.584
85.4919
88.4601
91.4879
94.5741
97.7174
100.916
104.17
107.475
110.83
114.233
117.682
121.173
124.703
128.27
131.871
135.5
139.156
142.833
146.529
150.238
153.958
157.683
161.41
165.134
168.852
172.558
176.246
179.91
183.543
187.137
190.686
194.184
197.626
201.004
204.314
207.549
210.703
213.771
216.748
219.627
222.403
225.073
227.63
230.07
232.39
234.585
236.651
238.587
240.387
242.051
243.575
244.959
246.2
247.298
248.252
249.063
249.729
250.253
250.636
250.865
250.939
250.869
250.664
250.325
249.854
249.254
248.526
247.674
246.702
245.612
244.41
243.098
241.682
240.165
238.55
236.842
235.044
233.161
231.197
229.154
227.036
224.848
222.593
220.272
217.891
215.45
212.954
210.404
207.803
205.153
202.458
199.723
196.957
194.178
191.415
188.672
185.93
183.174
180.395
177.593
174.767
171.921
169.061
166.194
163.331
160.488
157.693
154.983
152.455
150.175
148.098
6.14503
2.8127
2.28659
2.19533
2.24777
2.37937
2.56533
2.79458
3.0607
3.35898
3.68545
4.03667
4.40982
4.80283
5.21439
5.64394
6.09157
6.55792
7.04401
7.55115
8.08085
8.63475
9.2146
9.82227
10.4598
11.1293
11.8331
12.5731
13.3511
14.1675
15.0214
15.9111
16.8368
17.801
18.8064
19.8556
20.9518
22.097
23.2907
24.5301
25.8142
27.1427
28.518
29.9419
31.4161
32.942
34.5208
36.1537
37.8421
39.5871
41.3899
43.2515
45.1729
47.1553
49.2001
51.3085
53.4814
55.7201
58.0254
60.3983
62.8396
65.35
67.9304
70.5811
73.3027
76.0954
78.9594
81.8948
84.9012
87.9783
91.1256
94.3424
97.6275
100.98
104.398
107.88
111.424
115.028
118.689
122.405
126.173
129.989
133.85
137.753
141.692
145.665
149.666
153.692
157.737
161.796
165.865
169.938
174.01
178.074
182.125
186.156
190.159
194.127
198.053
201.931
205.752
209.511
213.2
216.813
220.342
223.782
227.126
230.367
233.5
236.518
239.415
242.187
244.828
247.333
249.698
251.92
253.993
255.916
257.684
259.297
260.752
262.047
263.181
264.154
264.966
265.618
266.109
266.439
266.592
266.589
266.423
266.107
265.641
265.028
264.271
263.372
262.335
261.166
259.867
258.444
256.902
255.244
253.476
251.603
249.628
247.557
245.395
243.145
240.812
238.401
235.916
233.361
230.739
228.054
225.309
222.508
219.654
216.75
213.798
210.804
207.771
204.707
201.625
198.541
195.46
192.374
189.276
186.162
183.031
179.886
176.73
173.57
170.417
167.281
164.18
161.145
158.213
155.467
152.947
150.571
7.27572
3.31266
2.65897
2.52471
2.55578
2.67548
2.85319
3.07538
3.33463
3.62601
3.94571
4.29061
4.65821
5.04662
5.45464
5.8817
6.32782
6.79351
7.27968
7.7875
8.31836
8.87375
9.45523
10.0644
10.703
11.3726
12.075
12.812
13.5853
14.3963
15.2462
16.1356
17.0656
18.0373
19.052
20.111
21.216
22.3682
23.5687
24.8177
26.1157
27.4633
28.8619
30.313
31.8183
33.3791
34.997
36.6736
38.4104
40.209
42.0708
43.9974
45.9903
48.0511
50.1814
52.3827
54.6566
57.0045
59.4278
61.9278
64.5058
67.1629
69.9002
72.7185
75.6188
78.6015
81.667
84.8158
88.0477
91.3626
94.76
98.2393
101.799
105.439
109.157
112.952
116.82
120.761
124.77
128.845
132.983
137.18
141.432
145.735
150.083
154.473
158.898
163.355
167.836
172.336
176.849
181.369
185.888
190.399
194.895
199.368
203.81
208.212
212.568
216.868
221.105
225.272
229.36
233.361
237.268
241.073
244.769
248.347
251.803
255.127
258.315
261.359
264.254
266.995
269.576
271.993
274.242
276.319
278.221
279.946
281.491
282.854
284.036
285.034
285.85
286.484
286.936
287.195
287.269
287.164
286.883
286.43
285.807
285.018
284.067
282.957
281.693
280.28
278.724
277.03
275.204
273.25
271.174
268.983
266.681
264.275
261.769
259.17
256.482
253.711
250.862
247.939
244.948
241.892
238.776
235.603
232.378
229.105
225.786
222.427
219.031
215.607
212.163
208.709
205.251
201.788
198.315
194.833
191.342
187.844
184.347
180.856
177.382
173.94
170.547
167.234
164.037
161.026
158.217
155.489
8.26872
3.75897
2.98794
2.81185
2.82086
2.92708
3.09462
3.30763
3.55769
3.83956
4.1495
4.48464
4.84273
5.22211
5.62173
6.04106
6.48012
6.93936
7.41961
7.92203
8.44798
8.99892
9.57644
10.1821
10.8177
11.4848
12.1846
12.919
13.6897
14.4985
15.3468
16.236
17.1674
18.1423
19.162
20.2276
21.3407
22.5024
23.7146
24.9784
26.2949
27.6653
29.0911
30.5741
32.1161
33.7188
35.3843
37.1142
38.9106
40.7755
42.7108
44.7185
46.8006
48.9592
51.1963
53.5139
55.9141
58.3987
60.9696
63.6288
66.3777
69.2181
72.1514
75.1789
78.3018
81.521
84.8372
88.2509
91.7623
95.3714
99.0779
102.881
106.78
110.773
114.859
119.036
123.301
127.652
132.085
136.597
141.184
145.841
150.564
155.348
160.188
165.077
170.009
174.979
179.978
185.001
190.04
195.086
200.132
205.169
210.189
215.181
220.138
225.05
229.907
234.701
239.423
244.064
248.614
253.064
257.406
261.631
265.731
269.696
273.519
277.193
280.709
284.062
287.244
290.248
293.071
295.706
298.148
300.394
302.441
304.285
305.924
307.356
308.581
309.599
310.409
311.012
311.405
311.58
311.554
311.326
310.899
310.277
309.464
308.463
307.28
305.919
304.387
302.688
300.829
298.816
296.657
294.357
291.923
289.362
286.68
283.884
280.982
277.978
274.88
271.694
268.425
265.08
261.665
258.184
254.642
251.045
247.397
243.703
239.966
236.193
232.387
228.555
224.705
220.845
216.979
213.109
209.236
205.36
201.482
197.609
193.744
189.898
186.08
182.306
178.595
174.976
171.484
168.174
165.044
161.947
9.10687
4.14277
3.26723
3.05012
3.03776
3.12902
3.28467
3.48667
3.72563
3.99597
4.29395
4.61688
4.96274
5.33009
5.71807
6.12629
6.55481
7.004
7.4745
7.9676
8.48475
9.02744
9.59726
10.1959
10.8251
11.4867
12.1821
12.9126
13.6799
14.4856
15.3316
16.2193
17.1503
18.1262
19.1486
20.2189
21.339
22.511
23.737
25.0183
26.3563
27.7524
29.2087
30.7275
32.3111
33.9619
35.6821
37.4741
39.3404
41.2833
43.3054
45.4091
47.5971
49.872
52.2363
54.6925
57.2434
59.8912
62.6385
65.4876
68.4407
71.4999
74.667
77.9439
81.332
84.8326
88.4466
92.1749
96.0178
99.9753
104.047
108.233
112.531
116.94
121.458
126.083
130.812
135.641
140.568
145.587
150.694
155.884
161.151
166.489
171.892
177.353
182.864
188.418
194.007
199.622
205.255
210.895
216.534
222.161
227.767
233.341
238.872
244.35
249.764
255.104
260.36
265.522
270.578
275.519
280.334
285.014
289.549
293.93
298.148
302.193
306.059
309.736
313.217
316.497
319.568
322.424
325.062
327.475
329.661
331.617
333.339
334.828
336.081
337.099
337.882
338.431
338.737
338.809
338.651
338.267
337.659
336.833
335.791
334.54
333.085
331.432
329.587
327.558
325.351
322.974
320.435
317.742
314.901
311.922
308.812
305.578
302.229
298.772
295.215
291.565
287.83
284.015
280.129
276.177
272.165
268.1
263.987
259.83
255.636
251.409
247.155
242.879
238.589
234.292
229.993
225.695
221.399
217.108
212.826
208.557
204.308
200.087
195.907
191.783
187.735
183.79
179.979
176.347
172.879
169.408
9.78241
4.45921
3.49354
3.23749
3.20445
3.28003
3.42253
3.61211
3.83856
4.09595
4.38052
4.68969
5.02165
5.37505
5.74919
6.14413
6.56039
6.99904
7.46024
7.94467
8.45349
8.98813
9.55013
10.1411
10.7627
11.4164
12.104
12.8272
13.5879
14.388
15.2294
16.114
17.0435
18.0199
19.0451
20.1209
21.2493
22.432
23.6714
24.9697
26.3292
27.7525
29.2436
30.8034
32.4352
34.1419
35.9263
37.7914
39.7401
41.7754
43.9003
46.1181
48.4318
50.8448
53.3602
55.9812
58.711
61.5527
64.5093
67.5836
70.7785
74.0965
77.54
81.1111
84.8116
88.6431
92.6069
96.7037
100.934
105.298
109.795
114.425
119.185
124.075
129.091
134.231
139.492
144.869
150.357
155.953
161.649
167.44
173.32
179.28
185.313
191.412
197.567
203.768
210.008
216.275
222.558
228.848
235.134
241.402
247.642
253.843
259.991
266.075
272.084
278.004
283.825
289.535
295.122
300.574
305.881
311.031
316.014
320.819
325.436
329.856
334.069
338.067
341.842
345.387
348.695
351.759
354.574
357.135
359.44
361.483
363.264
364.78
366.032
367.018
367.741
368.199
368.389
368.319
367.99
367.409
366.579
365.505
364.193
362.649
360.877
358.887
356.685
354.28
351.68
348.893
345.928
342.795
339.502
336.059
332.474
328.758
324.918
320.964
316.904
312.748
308.504
304.179
299.782
295.321
290.802
286.232
281.618
276.965
272.281
267.569
262.838
258.091
253.336
248.58
243.827
239.083
234.349
229.629
224.928
220.25
215.604
210.997
206.443
201.957
197.558
193.272
189.127
185.16
181.343
177.503
10.2951
4.70709
3.66689
3.37571
3.32261
3.38216
3.51068
3.68689
3.89988
4.14344
4.41363
4.70823
5.02612
5.36712
5.72981
6.11363
6.51855
6.94467
7.3925
7.86354
8.35927
8.88118
9.43082
10.0098
10.6199
11.2627
11.9402
12.6544
13.4074
14.2013
15.038
15.9196
16.8483
17.8263
18.8559
19.9394
21.0794
22.2782
23.5388
24.864
26.2565
27.7189
29.2523
30.8616
32.5518
34.3269
36.1902
38.145
40.1947
42.3432
44.594
46.951
49.4182
51.9993
54.6983
57.5191
60.4655
63.5412
66.7499
70.0949
73.5796
77.207
80.9799
84.9007
88.9715
93.1941
97.5697
102.099
106.783
111.621
116.612
121.756
127.05
132.491
138.078
143.805
149.669
155.665
161.787
168.029
174.384
180.844
187.401
194.048
200.773
207.569
214.423
221.327
228.267
235.234
242.214
249.195
256.164
263.108
270.014
276.868
283.657
290.368
296.987
303.5
309.894
316.158
322.276
328.238
334.03
339.641
345.058
350.272
355.269
360.042
364.579
368.871
372.91
376.689
380.199
383.435
386.391
389.061
391.443
393.532
395.327
396.827
398.031
398.94
399.554
399.875
399.903
399.642
399.092
398.264
397.163
395.794
394.162
392.274
390.139
387.763
385.157
382.328
379.287
376.044
372.609
368.992
365.202
361.252
357.151
352.91
348.539
344.048
339.448
334.749
329.96
325.091
320.151
315.148
310.091
304.988
299.846
294.672
289.472
284.254
279.023
273.785
268.548
263.317
258.098
252.896
247.714
242.557
237.429
232.336
227.285
222.286
217.352
212.497
207.741
203.107
198.619
194.31
190.142
185.944
10.6533
4.88928
3.79023
3.46837
3.39623
3.43983
3.55397
3.7162
3.91524
4.14532
4.40359
4.68645
4.99193
5.31833
5.66514
6.03285
6.42184
6.8327
7.2666
7.72463
8.20791
8.71785
9.25601
9.82409
10.4239
11.0573
11.7265
12.4336
13.1808
13.9705
14.8051
15.687
16.6189
17.6033
18.6432
19.7413
20.9007
22.1243
23.4157
24.7789
26.2159
27.729
29.3203
30.9982
32.7673
34.6322
36.5987
38.6704
40.8513
43.1456
45.5579
48.0928
50.7549
53.5489
56.4793
59.5507
62.7677
66.1344
69.6552
73.334
77.1743
81.1797
85.353
89.697
94.2137
98.9048
103.771
108.814
114.033
119.427
124.996
130.736
136.646
142.721
148.959
155.353
161.899
168.59
175.419
182.378
189.459
196.653
203.95
211.34
218.811
226.352
233.952
241.597
249.275
256.972
264.674
272.368
280.038
287.67
295.249
302.759
310.187
317.517
324.734
331.824
338.772
345.564
352.186
358.625
364.867
370.899
376.709
382.285
387.616
392.69
397.498
402.029
406.276
410.23
413.883
417.23
420.264
422.981
425.377
427.449
429.195
430.615
431.708
432.476
432.92
433.042
432.848
432.331
431.501
430.368
428.937
427.215
425.207
422.922
420.369
417.556
414.495
411.194
407.666
403.921
399.97
395.825
391.498
387.001
382.345
377.543
372.606
367.545
362.373
357.1
351.738
346.297
340.787
335.219
329.602
323.945
318.256
312.543
306.812
301.072
295.329
289.589
283.859
278.146
272.455
266.792
261.16
255.564
250.009
244.5
239.046
233.655
228.34
223.117
218.003
213.02
208.189
203.538
199.025
194.482
10.8715
5.01185
3.8684
3.52049
3.4307
3.45884
3.55916
3.70948
3.89729
4.11535
4.35875
4.62554
4.91464
5.22543
5.55792
5.91191
6.28771
6.68595
7.10759
7.55377
8.02579
8.52515
9.05355
9.61281
10.2049
10.8321
11.4965
12.2008
12.9475
13.7394
14.5793
15.47
16.4147
17.4166
18.4795
19.6071
20.8021
22.068
23.408
24.8237
26.3208
27.9063
29.5867
31.3669
33.2523
35.2483
37.3608
39.5954
41.9568
44.4503
47.0813
49.8553
52.7777
55.8538
59.0889
62.4881
66.0565
69.7989
73.7197
77.8232
82.1132
86.5931
91.2657
96.1335
101.198
106.461
111.923
117.582
123.44
129.493
135.739
142.176
148.798
155.602
162.582
169.73
177.04
184.504
192.113
199.857
207.727
215.711
223.797
231.974
240.228
248.547
256.915
265.32
273.746
282.178
290.601
298.998
307.354
315.653
323.878
332.012
340.04
347.946
355.713
363.325
370.768
378.027
385.086
391.931
398.548
404.925
411.048
416.904
422.483
427.773
432.763
437.445
441.81
445.849
449.555
452.923
455.946
458.62
460.941
462.908
464.519
465.774
466.673
467.218
467.412
467.263
466.764
465.916
464.735
463.228
461.401
459.261
456.815
454.073
451.045
447.741
444.171
440.349
436.285
431.993
427.484
422.772
417.87
412.79
407.547
402.152
396.62
390.962
385.193
379.324
373.368
367.337
361.241
355.093
348.903
342.68
336.434
330.173
323.906
317.639
311.381
305.137
298.915
292.721
286.561
280.441
274.364
268.336
262.36
256.444
250.593
244.819
239.132
233.548
228.083
222.758
217.589
212.604
207.757
202.89
10.9428
5.07393
3.90425
3.53661
3.43228
3.44901
3.53803
3.6749
3.84774
4.05054
4.27979
4.53332
4.80968
5.10815
5.42854
5.77095
6.13579
6.52381
6.93601
7.37365
7.83822
8.33145
8.85527
9.41177
10.0032
10.632
11.3009
12.0128
12.771
13.5794
14.4407
15.3581
16.3354
17.3762
18.4833
19.6579
20.9074
22.2376
23.654
25.1637
26.7717
28.4841
30.3076
32.2483
34.3126
36.5074
38.8397
41.3151
43.94
46.721
49.6648
52.7775
56.0653
59.5339
63.1891
67.0362
71.0804
75.3265
79.779
84.4417
89.3179
94.4106
99.7218
105.253
111.005
116.977
123.169
129.579
136.205
143.043
150.088
157.336
164.781
172.415
180.231
188.221
196.375
204.683
213.134
221.717
230.419
239.227
248.127
257.107
266.15
275.243
284.368
293.511
302.655
311.784
320.88
329.926
338.905
347.801
356.594
365.269
373.808
382.194
390.41
398.44
406.269
413.88
421.259
428.391
435.262
441.858
448.167
454.177
459.875
465.252
470.297
475.001
479.355
483.353
486.987
490.251
493.142
495.653
497.784
499.532
500.897
501.878
502.479
502.701
502.553
502.032
501.131
499.869
498.255
496.295
493.997
491.366
488.415
485.151
481.588
477.735
473.606
469.212
464.568
459.686
454.58
449.265
443.755
438.064
432.206
426.196
420.048
413.776
407.395
400.917
394.356
387.726
381.038
374.306
367.54
360.751
353.95
347.145
340.345
333.559
326.792
320.054
313.35
306.688
300.072
293.509
287.003
280.558
274.179
267.871
261.641
255.5
249.457
243.527
237.727
232.074
226.583
221.279
216.116
210.95
10.9211
5.08455
3.90492
3.52717
3.41237
3.4154
3.49022
3.61398
3.77498
3.96655
4.18495
4.42803
4.69454
4.98392
5.2961
5.63138
5.99036
6.37391
6.78325
7.21988
7.6856
8.18258
8.71355
9.28097
9.88716
10.5351
11.2279
11.9689
12.7611
13.6062
14.5088
15.4749
16.5098
17.6186
18.8073
20.0824
21.449
22.9136
24.4833
26.1656
27.9675
29.8965
31.9598
34.1652
36.5201
39.0324
41.7098
44.5596
47.5898
50.8082
54.2228
57.8403
61.6668
65.7076
69.968
74.4527
79.1661
84.1121
89.294
94.7142
100.375
106.276
112.419
118.803
125.426
132.286
139.379
146.701
154.248
162.013
169.989
178.169
186.543
195.103
203.839
212.739
221.791
230.984
240.304
249.737
259.271
268.889
278.576
288.318
298.098
307.899
317.704
327.498
337.262
346.978
356.629
366.198
375.667
385.016
394.23
403.29
412.179
420.88
429.376
437.651
445.688
453.473
460.991
468.228
475.169
481.803
488.116
494.096
499.734
505.019
509.942
514.494
518.668
522.456
525.854
528.856
531.458
533.656
535.45
536.838
537.822
538.397
538.574
538.362
537.748
536.734
535.337
533.565
531.425
528.925
526.072
522.876
519.347
515.497
511.337
506.88
502.14
497.129
491.862
486.354
480.619
474.673
468.531
462.207
455.719
449.08
442.306
435.413
428.416
421.328
414.165
406.94
399.667
392.359
385.029
377.687
370.345
363.013
355.699
348.412
341.159
333.948
326.786
319.679
312.633
305.653
298.744
291.909
285.153
278.481
271.899
265.416
259.043
252.794
246.682
240.725
234.935
229.335
223.881
218.449
10.8483
5.07128
3.88667
3.49607
3.36822
3.36072
3.42568
3.54024
3.69268
3.87662
4.08847
4.32618
4.58876
4.87591
5.18798
5.52607
5.89073
6.28302
6.70455
7.15726
7.64326
8.16469
8.72319
9.32073
9.96248
10.6529
11.3966
12.1982
13.063
13.9974
15.0067
16.0967
17.2743
18.5466
19.9214
21.4069
23.0108
24.7416
26.6082
28.6194
30.7843
33.1119
35.6109
38.2903
41.1585
44.2232
47.4906
50.971
54.6736
58.6078
62.7845
67.2104
71.8871
76.8174
82.0038
87.4485
93.1531
99.1184
105.344
111.83
118.574
125.574
132.825
140.325
148.066
156.043
164.25
172.678
181.318
190.162
199.199
208.418
217.809
227.358
237.055
246.884
256.833
266.888
277.034
287.255
297.538
307.865
318.221
328.591
338.956
349.301
359.608
369.86
380.041
390.131
400.115
409.974
419.691
429.249
438.63
447.818
456.795
465.547
474.055
482.305
490.282
497.972
505.36
512.434
519.18
525.588
531.644
537.34
542.665
547.611
552.169
556.331
560.092
563.446
566.389
568.915
571.023
572.709
573.976
574.817
575.25
575.244
574.863
574.033
572.801
571.17
569.148
566.742
563.961
560.814
557.306
553.45
549.258
544.741
539.912
534.785
529.373
523.692
517.755
511.578
505.177
498.569
491.768
484.791
477.655
470.375
462.968
455.45
447.836
440.142
432.383
424.573
416.727
408.859
400.982
393.107
385.247
377.411
369.609
361.849
354.138
346.485
338.896
331.377
323.933
316.57
309.292
302.103
295.005
288.002
281.102
274.311
267.64
261.102
254.71
248.478
242.418
236.553
230.836
225.176
10.6934
5.03005
3.84541
3.44841
3.31509
3.30323
3.3647
3.47723
3.62957
3.81614
4.03317
4.27878
4.55228
4.8536
5.18287
5.53984
5.9262
6.34489
6.79865
7.29054
7.824
8.40302
9.03259
9.71783
10.4636
11.2759
12.1613
13.1272
14.1815
15.333
16.59
17.9617
19.4575
21.0879
22.8634
24.795
26.8937
29.1706
31.6367
34.303
37.1799
40.2776
43.6055
47.1729
50.988
55.0577
59.3885
63.9876
68.8619
74.018
79.4629
85.1975
91.2174
97.5193
104.1
110.955
118.08
125.47
133.118
141.019
149.164
157.546
166.155
174.983
184.02
193.255
202.678
212.277
222.041
231.958
242.015
252.201
262.501
272.903
283.394
293.959
304.585
315.257
325.962
336.685
347.41
358.124
368.811
379.456
390.044
400.558
410.984
421.306
431.507
441.571
451.484
461.228
470.789
480.15
489.295
498.21
506.879
515.287
523.42
531.264
538.805
546.03
552.928
559.486
565.694
571.542
577.018
582.115
586.823
591.136
595.046
598.547
601.634
604.305
606.554
608.377
609.778
610.744
611.296
611.403
611.126
610.4
609.253
607.693
605.728
603.364
600.61
597.475
593.968
590.095
585.865
581.29
576.384
571.158
565.626
559.801
553.698
547.331
540.718
533.873
526.812
519.552
512.109
504.501
496.744
488.854
480.848
472.742
464.554
456.299
447.991
439.647
431.281
422.907
414.538
406.189
397.869
389.59
381.36
373.188
365.082
357.049
349.094
341.225
333.446
325.762
318.175
310.69
303.308
296.034
288.871
281.827
274.912
268.136
261.513
255.055
248.771
242.686
236.752
230.914
10.5298
4.96263
3.79298
3.40194
3.27329
3.26761
3.33781
3.46134
3.62685
3.82751
4.06102
4.32712
4.62614
4.95911
5.32786
5.73549
6.18474
6.67936
7.22394
7.82383
8.48517
9.21505
10.0217
10.9137
11.9
12.9904
14.196
15.5288
17.0016
18.6279
20.4212
22.3953
24.5644
26.9428
29.545
32.3847
35.475
38.8281
42.4556
46.3679
50.5735
55.0789
59.8897
65.0107
70.4456
76.1938
82.2543
88.6278
95.3143
102.312
109.619
117.207
125.067
133.188
141.558
150.165
158.996
168.039
177.282
186.712
196.318
206.087
216.008
226.067
236.253
246.555
256.961
267.458
278.036
288.683
299.388
310.138
320.923
331.731
342.55
353.37
364.178
374.962
385.711
396.413
407.056
417.628
428.116
438.508
448.791
458.953
468.98
478.858
488.575
498.118
507.471
516.623
525.559
534.265
542.729
550.937
558.875
566.532
573.894
580.949
587.685
594.091
600.157
605.873
611.23
616.219
620.83
625.056
628.89
632.328
635.361
637.985
640.195
641.996