/*--------------------------------*- C++ -*----------------------------------*\
  =========                 |
  \\      /  F ield         | OpenFOAM: The Open Source CFD Toolbox
   \\    /   O peration     | Website:  https://openfoam.org
    \\  /    A nd           | Version:  8
     \\/     M anipulation  |
\*---------------------------------------------------------------------------*/
FoamFile
{
    version     2.0;
    format      ascii;
    class       volScalarField;
    location    "245";
    object      k;
}
// * * * * * * * * * * * * * * * * * * * * * * * * * * * * * * * * * * * * * //

dimensions      [0 2 -2 0 0 0 0];

internalField   nonuniform List<scalar> 
12225
(
0.362827
0.343993
0.32775
0.309813
0.295409
0.283471
0.275527
0.27028
0.270338
0.271888
0.276049
0.28072
0.289858
0.295634
0.306796
0.312702
0.32573
0.323714
0.44027
0.468738
0.461615
0.448372
0.450345
0.458316
0.474573
0.498492
0.524426
0.552067
0.580763
0.606114
0.633837
0.653814
0.679748
0.692963
0.718213
0.724321
0.390406
0.41786
0.420244
0.416831
0.411633
0.407803
0.40802
0.410037
0.41457
0.421377
0.430731
0.439701
0.451171
0.461142
0.472824
0.483518
0.493523
0.505848
0.377042
0.387169
0.391466
0.391343
0.39026
0.387883
0.385662
0.384079
0.382884
0.382897
0.383356
0.384379
0.386274
0.388461
0.390904
0.394235
0.396536
0.400956
0.374434
0.376094
0.378427
0.378665
0.378275
0.377201
0.375488
0.373737
0.37201
0.370455
0.369256
0.368109
0.36738
0.366803
0.366442
0.366332
0.366351
0.366697
0.373779
0.372704
0.372659
0.372365
0.371772
0.370818
0.369554
0.368082
0.366571
0.364976
0.363528
0.362063
0.360755
0.359529
0.358397
0.357427
0.356439
0.355782
0.373775
0.37174
0.370388
0.369284
0.368235
0.367114
0.365915
0.364587
0.363238
0.361808
0.360422
0.359024
0.357679
0.356383
0.355122
0.353967
0.352794
0.351803
0.373818
0.371559
0.369635
0.367976
0.366501
0.365108
0.363775
0.362429
0.361108
0.359767
0.358451
0.357144
0.355864
0.354623
0.353402
0.352251
0.3511
0.350053
0.373832
0.371553
0.369449
0.367525
0.365776
0.364153
0.362645
0.361199
0.359818
0.358474
0.35717
0.355903
0.354668
0.353476
0.352309
0.351197
0.350098
0.349074
0.373831
0.37156
0.369418
0.367405
0.365529
0.363772
0.362133
0.360585
0.359122
0.357728
0.356395
0.355118
0.353889
0.352711
0.35157
0.350482
0.349421
0.348421
0.373829
0.37156
0.369413
0.367378
0.365458
0.363645
0.361937
0.360324
0.358799
0.357353
0.355979
0.354673
0.353425
0.352236
0.351095
0.350009
0.34896
0.34797
0.373828
0.371558
0.369409
0.36737
0.365439
0.363609
0.361875
0.360234
0.358677
0.357202
0.3558
0.354469
0.353201
0.351995
0.350843
0.349748
0.348696
0.347701
0.373827
0.371556
0.369405
0.367365
0.36543
0.363593
0.361851
0.360197
0.358626
0.357134
0.355716
0.354368
0.353085
0.351865
0.350701
0.349595
0.348535
0.347532
0.373826
0.371555
0.369401
0.367359
0.365422
0.363583
0.361837
0.360178
0.3586
0.357101
0.355674
0.354317
0.353024
0.351795
0.350622
0.349506
0.34844
0.347427
0.373826
0.371553
0.369398
0.367355
0.365416
0.363575
0.361826
0.360164
0.358584
0.357081
0.355651
0.354289
0.352993
0.351758
0.35058
0.349458
0.348388
0.347368
0.373826
0.371552
0.369396
0.367351
0.36541
0.363567
0.361817
0.360153
0.358571
0.357067
0.355634
0.35427
0.352971
0.351734
0.350554
0.349429
0.348356
0.347333
0.373825
0.371551
0.369394
0.367348
0.365406
0.363562
0.36181
0.360145
0.358561
0.357055
0.355621
0.354256
0.352955
0.351716
0.350534
0.349408
0.348333
0.347308
0.373825
0.371551
0.369393
0.367346
0.365403
0.363558
0.361805
0.360139
0.358554
0.357047
0.355612
0.354245
0.352943
0.351703
0.35052
0.349392
0.348316
0.34729
0.373825
0.37155
0.369393
0.367345
0.365402
0.363557
0.361804
0.360137
0.358552
0.357043
0.355608
0.35424
0.352938
0.351696
0.350513
0.349384
0.348308
0.34728
0.373825
0.371551
0.369393
0.367347
0.365404
0.363559
0.361806
0.360139
0.358555
0.357047
0.355611
0.354244
0.352941
0.3517
0.350517
0.349388
0.348312
0.347284
0.373825
0.371551
0.369395
0.367349
0.365407
0.363563
0.361811
0.360146
0.358562
0.357055
0.355621
0.354255
0.352955
0.351715
0.350534
0.349407
0.348333
0.347307
0.373826
0.371552
0.369397
0.367352
0.365412
0.363571
0.361822
0.360161
0.358583
0.357083
0.355656
0.354298
0.353006
0.351775
0.350602
0.349483
0.348417
0.347398
0.373826
0.371554
0.369399
0.367359
0.365428
0.363602
0.361875
0.36024
0.35869
0.35722
0.355823
0.354493
0.353227
0.352018
0.350865
0.349762
0.34871
0.3477
0.373828
0.371551
0.369412
0.367417
0.365556
0.363819
0.362189
0.360651
0.359189
0.357793
0.356456
0.355171
0.353936
0.352745
0.3516
0.350495
0.349436
0.34841
0.373823
0.371554
0.369604
0.367893
0.366339
0.364892
0.363495
0.362122
0.360761
0.359413
0.358081
0.35677
0.355488
0.354237
0.353029
0.351855
0.350734
0.349645
0.373781
0.37199
0.371113
0.370265
0.36936
0.368311
0.367048
0.36563
0.36412
0.362575
0.36103
0.359522
0.358073
0.356682
0.355381
0.354141
0.353009
0.351924
0.374297
0.375564
0.377778
0.377858
0.377291
0.375885
0.373835
0.371641
0.369505
0.367482
0.365664
0.364084
0.36271
0.361535
0.36061
0.359818
0.359289
0.358801
0.378732
0.394394
0.398293
0.396565
0.392558
0.387608
0.383641
0.380455
0.378266
0.376852
0.376497
0.37675
0.377399
0.378698
0.380443
0.382423
0.384828
0.387139
0.408344
0.427539
0.422424
0.411051
0.402227
0.397924
0.398557
0.401118
0.405987
0.41304
0.420998
0.429831
0.438838
0.448195
0.457311
0.466558
0.475327
0.484187
0.366033
0.353412
0.341988
0.33021
0.318982
0.308382
0.299409
0.291674
0.285403
0.280333
0.276682
0.273867
0.27231
0.271185
0.271176
0.271522
0.272156
0.273387
0.000752515
0.0041758
0.00769874
0.0108839
0.014125
0.0177494
0.0218944
0.0266672
0.0320683
0.0380072
0.0443473
0.0509492
0.0576883
0.0644633
0.0711912
0.0778053
0.0842497
0.0904773
0.0964473
0.102123
0.107472
0.112461
0.117055
0.121211
0.124869
0.127942
0.130308
0.13185
0.132368
0.131208
0.127738
0.120825
0.12508
0.128783
0.132033
0.138259
0.14619
0.154348
0.156902
0.152267
0.145535
0.156435
0.16234
0.170511
0.177978
0.186045
0.194087
0.202394
0.210817
0.219429
0.228189
0.237119
0.246205
0.255454
0.264862
0.274431
0.284158
0.294043
0.304083
0.314278
0.324622
0.335117
0.345756
0.356537
0.367454
0.378505
0.38968
0.400978
0.41239
0.42391
0.43553
0.447244
0.459041
0.470916
0.482856
0.494854
0.506898
0.51898
0.531087
0.54321
0.555334
0.567451
0.579545
0.591606
0.603617
0.615568
0.62744
0.639221
0.65089
0.662431
0.67382
0.685036
0.696054
0.70685
0.717406
0.72772
0.737825
0.747784
0.757464
0.766924
0.776128
0.78508
0.793762
0.802167
0.810282
0.818097
0.825603
0.832789
0.839647
0.846169
0.852346
0.858172
0.86364
0.868743
0.873478
0.877839
0.881823
0.885426
0.888647
0.891484
0.893936
0.896002
0.897681
0.898974
0.899878
0.900383
0.900462
0.900189
0.899797
0.898996
0.897643
0.895908
0.893856
0.891491
0.88877
0.885765
0.882437
0.878808
0.874885
0.870682
0.866215
0.861513
0.856569
0.851381
0.845962
0.840319
0.834462
0.828399
0.822139
0.81569
0.80906
0.802256
0.795285
0.788154
0.780869
0.773434
0.765856
0.758138
0.750287
0.742307
0.734207
0.726016
0.717975
0.712185
0.708696
0.70537
0.701957
0.698418
0.694743
0.690923
0.686953
0.682821
0.678513
0.674006
0.669258
0.664187
0.658624
0.652107
0.644097
0.615191
0.003727
0.0144572
0.0216147
0.0269981
0.0317998
0.0365708
0.0416567
0.0472192
0.0532873
0.059802
0.0666621
0.0737568
0.0809845
0.0882607
0.0955168
0.102699
0.109763
0.116676
0.123409
0.12994
0.136249
0.142315
0.148116
0.153621
0.158792
0.163592
0.167989
0.171948
0.175448
0.178631
0.181908
0.186201
0.193889
0.202415
0.211942
0.223169
0.235846
0.250264
0.259093
0.2709
0.281913
0.294087
0.30615
0.319015
0.332147
0.345653
0.359473
0.373624
0.388088
0.40287
0.417966
0.433379
0.449108
0.465156
0.481524
0.498213
0.515224
0.532558
0.550214
0.568193
0.586493
0.605112
0.624049
0.6433
0.662861
0.682727
0.702892
0.72335
0.744094
0.765115
0.786404
0.807951
0.829745
0.851774
0.874024
0.896482
0.919133
0.941962
0.964951
0.988083
1.01134
1.0347
1.05815
1.08166
1.10521
1.12878
1.15235
1.17588
1.19935
1.22274
1.246
1.26911
1.29203
1.3147
1.33709
1.35912
1.38073
1.40187
1.42272
1.44323
1.46339
1.48319
1.50258
1.52157
1.54011
1.55818
1.57577
1.59285
1.60941
1.62541
1.64084
1.65569
1.66994
1.68356
1.69655
1.7089
1.72058
1.7316
1.74193
1.75158
1.76054
1.7688
1.77635
1.78319
1.78933
1.79477
1.7995
1.80356
1.80697
1.8097
1.81167
1.81276
1.81319
1.81306
1.81229
1.81089
1.80888
1.80625
1.80304
1.79924
1.79489
1.79
1.78459
1.77867
1.77225
1.76535
1.75798
1.75016
1.74191
1.73324
1.72415
1.71467
1.7048
1.69456
1.68395
1.67298
1.66165
1.64999
1.63798
1.62563
1.61295
1.59995
1.58673
1.57371
1.56081
1.54763
1.5341
1.52021
1.50597
1.49136
1.4764
1.46108
1.4454
1.42936
1.41293
1.39611
1.37868
1.36077
1.34159
1.30025
0.00783851
0.0245762
0.0340221
0.0410674
0.0473187
0.0533918
0.0596075
0.0661302
0.0730158
0.0802456
0.0877584
0.0954774
0.103328
0.111246
0.119181
0.127096
0.134964
0.142768
0.1505
0.15816
0.165754
0.173293
0.180795
0.188281
0.195785
0.203353
0.211042
0.218925
0.227112
0.235781
0.245168
0.255549
0.267146
0.279674
0.29328
0.307725
0.322876
0.338154
0.352545
0.367826
0.383207
0.399148
0.415408
0.432132
0.449265
0.466801
0.48473
0.503049
0.521755
0.540848
0.560326
0.58019
0.600441
0.62108
0.642108
0.663524
0.685329
0.707523
0.730104
0.753071
0.776422
0.800153
0.824262
0.848742
0.873589
0.898796
0.924356
0.95026
0.976498
1.00306
1.02994
1.05711
1.08457
1.1123
1.14029
1.16852
1.19696
1.22561
1.25444
1.28343
1.31256
1.3418
1.37112
1.40052
1.42995
1.45939
1.4888
1.51817
1.54746
1.57663
1.60566
1.6345
1.66312
1.6915
1.71958
1.74735
1.77477
1.80183
1.82852
1.8548
1.88064
1.90601
1.93088
1.95522
1.979
2.00218
2.02474
2.04665
2.06788
2.08841
2.1082
2.12725
2.14551
2.16298
2.17963
2.19545
2.21042
2.22452
2.23775
2.25009
2.26154
2.27208
2.28171
2.29044
2.29825
2.30515
2.31115
2.31626
2.3205
2.32384
2.32627
2.3276
2.32805
2.32771
2.32656
2.3246
2.32183
2.31828
2.31395
2.30887
2.30307
2.29657
2.28938
2.28153
2.27303
2.26391
2.25418
2.24386
2.23298
2.22155
2.20959
2.19711
2.18412
2.17065
2.1567
2.14228
2.12741
2.11208
2.0963
2.08009
2.06345
2.04639
2.029
2.01148
1.99378
1.97571
1.95722
1.93828
1.91891
1.89912
1.87891
1.85831
1.83732
1.81597
1.79427
1.77228
1.74997
1.72762
1.70433
1.6677
0.0124232
0.0340212
0.045607
0.0540761
0.0614436
0.0684513
0.0754651
0.082677
0.0901715
0.0979618
0.106017
0.114285
0.122711
0.131246
0.139852
0.148505
0.15719
0.165907
0.174663
0.183477
0.192376
0.201397
0.210583
0.219987
0.229664
0.239673
0.250073
0.260926
0.272299
0.28427
0.296913
0.310289
0.324426
0.339304
0.354931
0.371219
0.388063
0.405287
0.422741
0.44067
0.458981
0.477714
0.496837
0.516386
0.536365
0.556777
0.577623
0.598905
0.620623
0.642779
0.665374
0.68841
0.711889
0.735811
0.760178
0.784991
0.810251
0.835957
0.862108
0.888704
0.915741
0.943217
0.971128
0.999469
1.02823
1.05742
1.08701
1.117
1.14738
1.17814
1.20926
1.24074
1.27254
1.30467
1.3371
1.36981
1.40278
1.43599
1.46942
1.50304
1.53682
1.57075
1.60478
1.63889
1.67306
1.70725
1.74142
1.77554
1.80959
1.84351
1.87729
1.91087
1.94424
1.97734
2.01014
2.04262
2.07473
2.10644
2.13772
2.16852
2.19881
2.22856
2.25771
2.28624
2.3141
2.34127
2.3677
2.39336
2.41822
2.44225
2.46542
2.48769
2.50904
2.52945
2.54889
2.56734
2.58479
2.6012
2.61658
2.6309
2.64416
2.65634
2.66745
2.67747
2.68641
2.69427
2.70106
2.70678
2.71145
2.71505
2.71756
2.71881
2.71907
2.71832
2.71661
2.71392
2.71028
2.7057
2.70021
2.69382
2.68657
2.67849
2.66959
2.6599
2.64945
2.63825
2.62634
2.61374
2.60046
2.58654
2.57199
2.55684
2.54109
2.52477
2.50789
2.49046
2.47249
2.454
2.43499
2.41546
2.39545
2.37495
2.35405
2.33283
2.31129
2.28932
2.26689
2.24397
2.22058
2.19674
2.17247
2.1478
2.12276
2.0974
2.07179
2.04604
2.02025
1.99477
1.96876
1.93441
0.0169639
0.042797
0.0563392
0.0661175
0.0744825
0.0822872
0.0899534
0.0977093
0.105673
0.11389
0.122361
0.13106
0.139953
0.149005
0.158191
0.167496
0.176917
0.18646
0.196144
0.205997
0.216057
0.226369
0.236985
0.24796
0.259349
0.271204
0.28357
0.296486
0.309979
0.324073
0.338787
0.354132
0.370113
0.386734
0.403994
0.421869
0.440314
0.459273
0.478704
0.498616
0.518988
0.539814
0.561087
0.58282
0.605019
0.627692
0.650843
0.674477
0.698597
0.723208
0.748313
0.773914
0.800015
0.826618
0.853725
0.88134
0.909461
0.938092
0.967231
0.996878
1.02703
1.05769
1.08885
1.1205
1.15264
1.18527
1.21837
1.25193
1.28595
1.32041
1.3553
1.3906
1.4263
1.46237
1.4988
1.53557
1.57265
1.61001
1.64764
1.68551
1.72357
1.76182
1.8002
1.8387
1.87727
1.91588
1.95449
1.99307
2.03158
2.06997
2.10821
2.14626
2.18407
2.2216
2.25882
2.29568
2.33214
2.36815
2.40366
2.43864
2.47303
2.5068
2.5399
2.57229
2.60392
2.63475
2.66474
2.69385
2.72205
2.74929
2.77553
2.80076
2.82493
2.84801
2.86998
2.89081
2.91048
2.92897
2.94627
2.96235
2.9772
2.99082
3.00319
3.01432
3.0242
3.03283
3.04023
3.04639
3.05133
3.05505
3.05748
3.05853
3.05847
3.0572
3.05482
3.05132
3.04671
3.04102
3.03428
3.02652
3.01776
3.00805
2.99739
2.98583
2.9734
2.96012
2.94602
2.93114
2.91549
2.89911
2.88202
2.86424
2.8458
2.82671
2.80699
2.78666
2.76574
2.74423
2.72214
2.69949
2.6763
2.65258
2.6284
2.60379
2.57877
2.55328
2.5273
2.50082
2.47385
2.44642
2.41856
2.39031
2.36173
2.33291
2.30394
2.27499
2.24626
2.2181
2.18974
2.15569
0.0212625
0.0507254
0.066022
0.0769953
0.0862677
0.0947858
0.103022
0.111239
0.119585
0.128138
0.136927
0.145953
0.155203
0.164659
0.174308
0.184144
0.19417
0.2044
0.214857
0.225573
0.236586
0.247943
0.25969
0.271879
0.284556
0.297764
0.311535
0.325892
0.34085
0.356414
0.372588
0.389371
0.406764
0.424768
0.443384
0.462602
0.482408
0.502779
0.523695
0.545145
0.567114
0.589594
0.612582
0.63608
0.660096
0.684634
0.709702
0.735306
0.761452
0.788144
0.815389
0.843191
0.871555
0.900485
0.929985
0.960058
0.990707
1.02193
1.05374
1.08613
1.11909
1.15263
1.18675
1.22144
1.25669
1.2925
1.32886
1.36577
1.4032
1.44114
1.47959
1.51852
1.55792
1.59776
1.63803
1.67869
1.71973
1.76111
1.80281
1.8448
1.88703
1.92949
1.97213
2.01492
2.05781
2.10076
2.14374
2.1867
2.2296
2.27239
2.31503
2.35747
2.39966
2.44156
2.48311
2.52426
2.56496
2.60516
2.64482
2.68387
2.72227
2.75997
2.79692
2.83307
2.86837
2.90277
2.93622
2.96868
3.00011
3.03046
3.0597
3.08777
3.11466
3.14032
3.16472
3.18783
3.20963
3.2301
3.2492
3.26694
3.28328
3.29823
3.31177
3.3239
3.33461
3.34391
3.35181
3.35831
3.36341
3.36713
3.36936
3.37014
3.36962
3.36777
3.36462
3.36019
3.35452
3.34763
3.33954
3.33031
3.31995
3.30851
3.29601
3.2825
3.26801
3.25257
3.23622
3.21899
3.20092
3.18203
3.16235
3.14192
3.12076
3.09889
3.07634
3.05312
3.02926
3.00476
2.97965
2.95395
2.92766
2.90082
2.87346
2.84562
2.81731
2.78851
2.75919
2.72937
2.69907
2.66831
2.63715
2.60562
2.57383
2.54185
2.50985
2.47802
2.4466
2.41594
2.38533
2.35038
0.0251817
0.0576962
0.0745187
0.0865491
0.0966305
0.105785
0.114526
0.123144
0.131813
0.140636
0.14967
0.15894
0.168453
0.178209
0.188206
0.198449
0.208947
0.219717
0.230784
0.242179
0.25394
0.266107
0.278722
0.291827
0.305461
0.319657
0.33444
0.349828
0.36583
0.382449
0.399686
0.41754
0.436008
0.455089
0.474785
0.495092
0.516005
0.537516
0.559615
0.582295
0.605549
0.62937
0.653758
0.678715
0.704246
0.730357
0.757056
0.784349
0.812245
0.84075
0.869872
0.899619
0.929995
0.961008
0.992663
1.02497
1.05792
1.09153
1.1258
1.16073
1.19632
1.23257
1.26948
1.30704
1.34526
1.38412
1.42361
1.46373
1.50446
1.54579
1.58771
1.63019
1.67321
1.71676
1.7608
1.80532
1.85027
1.89564
1.94138
1.98747
2.03386
2.08052
2.12741
2.17448
2.22169
2.26899
2.31634
2.36369
2.41099
2.45818
2.50522
2.55204
2.59861
2.64485
2.69071
2.73614
2.78107
2.82545
2.86922
2.91233
2.95471
2.99631
3.03708
3.07696
3.11588
3.15381
3.19069
3.22646
3.26108
3.29449
3.32666
3.35754
3.38709
3.41526
3.44203
3.46737
3.49123
3.5136
3.53446
3.55377
3.57154
3.58774
3.60236
3.61541
3.62687
3.63675
3.64505
3.6518
3.65698
3.6606
3.66255
3.66298
3.6619
3.65934
3.65533
3.64989
3.64305
3.63485
3.62533
3.61452
3.60246
3.5892
3.57477
3.55922
3.54258
3.5249
3.50621
3.48656
3.46598
3.44452
3.4222
3.39906
3.37514
3.35046
3.32505
3.29893
3.27212
3.24466
3.21655
3.18782
3.15849
3.12859
3.09814
3.06718
3.03572
3.00375
2.97127
2.93829
2.90484
2.87096
2.8367
2.80212
2.76732
2.73243
2.69761
2.6631
2.62915
2.59609
2.56324
2.52719
0.0286246
0.0636418
0.0817475
0.0946787
0.105457
0.115164
0.124344
0.133307
0.142249
0.151293
0.160516
0.169965
0.179666
0.189635
0.199883
0.210422
0.221268
0.23244
0.243964
0.25587
0.268191
0.280962
0.294219
0.307996
0.322325
0.337231
0.352738
0.368859
0.385604
0.402978
0.420982
0.439617
0.458882
0.478777
0.499303
0.520459
0.542247
0.564664
0.587709
0.61138
0.635675
0.660594
0.686138
0.712312
0.739121
0.766572
0.794675
0.823438
0.85287
0.882981
0.913781
0.945278
0.977481
1.0104
1.04404
1.07841
1.11351
1.14936
1.18596
1.2233
1.26139
1.30024
1.33984
1.38019
1.42129
1.46312
1.50568
1.54896
1.59294
1.63762
1.68297
1.72897
1.7756
1.82284
1.87065
1.91901
1.96789
2.01725
2.06705
2.11725
2.16781
2.21869
2.26985
2.32122
2.37277
2.42444
2.47618
2.52793
2.57964
2.63124
2.68268
2.7339
2.78483
2.83542
2.88559
2.93528
2.98442
3.03296
3.08083
3.12796
3.17429
3.21976
3.26431
3.30787
3.35039
3.3918
3.43204
3.47107
3.50881
3.54523
3.58027
3.61389
3.64603
3.67665
3.70572
3.7332
3.75906
3.78326
3.80578
3.8266
3.8457
3.86307
3.87869
3.89256
3.90468
3.91505
3.92368
3.93057
3.93573
3.93917
3.94078
3.94074
3.93902
3.93566
3.93068
3.92413
3.91603
3.90644
3.89538
3.88291
3.86906
3.85389
3.83744
3.81976
3.80089
3.78089
3.75979
3.73765
3.71451
3.69041
3.6654
3.63952
3.6128
3.58527
3.55699
3.52796
3.49823
3.46782
3.43675
3.40504
3.37273
3.33983
3.30637
3.2724
3.23791
3.20292
3.16743
3.13147
3.09505
3.05822
3.02105
2.98362
2.94603
2.90842
2.87097
2.83394
2.79758
2.76219
2.72711
2.6896
0.0315314
0.0685415
0.087685
0.101351
0.112703
0.122871
0.132419
0.141673
0.15084
0.160061
0.169428
0.179005
0.188835
0.198946
0.209362
0.220101
0.231185
0.242637
0.254481
0.266746
0.27946
0.292654
0.306358
0.320601
0.335409
0.350804
0.366806
0.383429
0.400684
0.418578
0.437114
0.456298
0.47613
0.496614
0.517753
0.53955
0.562008
0.585131
0.608922
0.633386
0.658525
0.684344
0.710848
0.738043
0.765939
0.794545
0.823871
0.853928
0.884729
0.916286
0.948608
0.98171
1.0156
1.05029
1.08579
1.12212
1.15927
1.19725
1.23608
1.27576
1.31629
1.35767
1.39991
1.44299
1.48692
1.5317
1.5773
1.62372
1.67095
1.71896
1.76774
1.81727
1.86752
1.91846
1.97006
2.02228
2.0751
2.12847
2.18234
2.23668
2.29143
2.34655
2.40198
2.45768
2.51357
2.56961
2.62574
2.68188
2.73799
2.79399
2.84981
2.90539
2.96066
3.01555
3.06998
3.12388
3.17718
3.22982
3.28171
3.3328
3.383
3.43226
3.48051
3.52766
3.57367
3.61847
3.66198
3.70416
3.74493
3.78425
3.82205
3.85829
3.89291
3.92587
3.95713
3.98664
4.01438
4.04029
4.06437
4.08658
4.10691
4.12533
4.14185
4.15644
4.16912
4.17987
4.18871
4.19565
4.2007
4.20383
4.20505
4.20443
4.20198
4.19771
4.19168
4.18393
4.17449
4.16341
4.15074
4.13652
4.12082
4.10367
4.08513
4.06525
4.04409
4.02171
3.99815
3.97347
3.94772
3.92096
3.89323
3.86458
3.83505
3.80469
3.77354
3.74163
3.709
3.67568
3.6417
3.60709
3.57187
3.53607
3.49972
3.46285
3.42549
3.38763
3.3493
3.31052
3.27131
3.23174
3.19186
3.15177
3.11157
3.07144
3.03155
2.99215
2.95351
2.91587
2.8786
2.8394
0.0338748
0.0724136
0.0923577
0.106593
0.118394
0.128926
0.138766
0.14825
0.157595
0.16695
0.176421
0.186083
0.195991
0.206186
0.216699
0.227557
0.238784
0.250406
0.262448
0.274937
0.287898
0.301358
0.315343
0.329878
0.344986
0.360686
0.376998
0.393935
0.41151
0.429733
0.448611
0.468153
0.488364
0.509251
0.53082
0.553079
0.576035
0.599696
0.624068
0.649162
0.674984
0.701544
0.72885
0.756915
0.785748
0.815364
0.845775
0.876996
0.909041
0.941925
0.975662
1.01027
1.04575
1.08213
1.11942
1.15762
1.19676
1.23683
1.27786
1.31983
1.36277
1.40666
1.45152
1.49733
1.5441
1.59182
1.64047
1.69005
1.74053
1.7919
1.84414
1.89722
1.9511
2.00577
2.06118
2.11729
2.17406
2.23145
2.28941
2.34789
2.40683
2.46618
2.52588
2.58587
2.64608
2.70646
2.76692
2.82741
2.88785
2.94817
3.0083
3.06815
3.12766
3.18674
3.24532
3.30332
3.36065
3.41725
3.47303
3.52792
3.58185
3.63474
3.68651
3.7371
3.78643
3.83444
3.88105
3.92619
3.96981
4.01185
4.05224
4.09092
4.12785
4.16298
4.19625
4.22763
4.25707
4.28455
4.31002
4.33347
4.35487
4.3742
4.39146
4.40664
4.41974
4.43075
4.43968
4.44655
4.45136
4.45411
4.45482
4.45354
4.45024
4.44498
4.43781
4.42878
4.41792
4.40529
4.39094
4.37493
4.3573
4.33812
4.31744
4.29533
4.27185
4.24706
4.22101
4.19378
4.16542
4.13598
4.10554
4.07413
4.04182
4.00866
3.97469
3.93996
3.9045
3.86835
3.83155
3.79412
3.75611
3.71754
3.67844
3.63883
3.59875
3.55821
3.51722
3.47582
3.43404
3.39192
3.34955
3.30701
3.26443
3.22196
3.17982
3.13823
3.09744
3.05767
3.01831
2.97737
0.0356537
0.075307
0.0958309
0.110479
0.122607
0.133406
0.14346
0.153112
0.162583
0.172028
0.181562
0.191268
0.201209
0.211436
0.221986
0.232894
0.244186
0.255889
0.268027
0.280626
0.293709
0.307302
0.321426
0.336105
0.351361
0.367212
0.383676
0.40077
0.418509
0.436905
0.455971
0.475717
0.496156
0.517298
0.539152
0.561731
0.585046
0.609109
0.633932
0.659528
0.68591
0.713094
0.741091
0.769917
0.799586
0.830115
0.861522
0.893824
0.92704
0.961186
0.99628
1.03234
1.06938
1.10742
1.14647
1.18654
1.22766
1.26982
1.31304
1.35733
1.40269
1.44913
1.49664
1.54522
1.59486
1.64557
1.69731
1.75009
1.80387
1.85864
1.91438
1.97104
2.02859
2.08701
2.14624
2.20625
2.26698
2.32839
2.39041
2.453
2.51609
2.57962
2.64352
2.70773
2.77217
2.83678
2.90147
2.96617
3.03081
3.0953
3.15956
3.22351
3.28707
3.35015
3.41266
3.47453
3.53567
3.59599
3.65542
3.71387
3.77127
3.82752
3.88257
3.93632
3.9887
4.03965
4.08908
4.13692
4.18312
4.22761
4.27031
4.31119
4.35017
4.3872
4.42224
4.45524
4.48617
4.51497
4.54162
4.56609
4.58837
4.60842
4.62624
4.64183
4.65518
4.66629
4.67517
4.68182
4.68628
4.68853
4.68862
4.68657
4.68232
4.67598
4.6676
4.65721
4.64488
4.63065
4.61457
4.59671
4.57713
4.5559
4.53307
4.50872
4.48291
4.45572
4.4272
4.39744
4.36649
4.33442
4.30131
4.26721
4.23219
4.1963
4.15959
4.12212
4.08394
4.04508
4.00559
3.9655
3.92485
3.88367
3.84199
3.79983
3.75724
3.71422
3.6708
3.62701
3.58287
3.53845
3.49382
3.44907
3.40433
3.35976
3.31557
3.27198
3.22921
3.18747
3.14616
3.10359
0.0368973
0.0773093
0.0982052
0.113122
0.125461
0.136431
0.146621
0.156375
0.165917
0.175406
0.184961
0.194674
0.204613
0.214831
0.225372
0.236271
0.247557
0.259258
0.2714
0.284007
0.297103
0.310711
0.324853
0.339552
0.354828
0.370702
0.387193
0.404319
0.422099
0.440548
0.459684
0.479522
0.500078
0.521367
0.543405
0.566207
0.58979
0.614168
0.639358
0.66538
0.692251
0.719992
0.74862
0.778154
0.808615
0.840023
0.872399
0.905767
0.940146
0.975558
1.01202
1.04956
1.08819
1.12792
1.16878
1.21078
1.25394
1.29826
1.34376
1.39044
1.43832
1.48738
1.53763
1.58906
1.64167
1.69545
1.75037
1.80642
1.86357
1.9218
1.98108
2.04136
2.10261
2.16479
2.22785
2.29173
2.35639
2.42176
2.48778
2.5544
2.62153
2.68912
2.75708
2.82535
2.89384
2.96247
3.03118
3.09986
3.16844
3.23683
3.30494
3.37269
3.43998
3.50674
3.57286
3.63825
3.70284
3.76653
3.82923
3.89086
3.95134
4.01058
4.0685
4.12502
4.18007
4.23356
4.28542
4.33559
4.38398
4.43054
4.4752
4.5179
4.55857
4.59718
4.63365
4.66796
4.70005
4.72988
4.75743
4.78266
4.80555
4.82607
4.84423
4.86001
4.8734
4.88442
4.89307
4.89936
4.90331
4.90494
4.9043
4.90136
4.89606
4.88856
4.87889
4.8671
4.85324
4.83736
4.81954
4.79983
4.7783
4.75502
4.73006
4.70349
4.67539
4.64584
4.61491
4.58268
4.54922
4.51461
4.47893
4.44224
4.40461
4.36612
4.32681
4.28676
4.24601
4.20461
4.1626
4.12003
4.07694
4.03335
3.98931
3.94484
3.89998
3.85473
3.80913
3.76321
3.71699
3.67053
3.6239
3.57721
3.53057
3.48416
3.43815
3.39278
3.34824
3.30473
3.26167
3.21763
0.0376556
0.0785099
0.0995963
0.114651
0.127095
0.138147
0.148395
0.158186
0.167747
0.177238
0.186779
0.196461
0.206357
0.216523
0.227006
0.237843
0.249061
0.260689
0.272755
0.285285
0.298303
0.311833
0.325897
0.340518
0.355718
0.37152
0.387945
0.405015
0.422751
0.441176
0.460309
0.480172
0.500786
0.52217
0.544346
0.567335
0.591156
0.61583
0.641373
0.667807
0.695163
0.723464
0.752736
0.783004
0.814294
0.846631
0.880041
0.91455
0.950181
0.986959
1.0249
1.06404
1.10438
1.14596
1.18877
1.23286
1.27821
1.32486
1.3728
1.42204
1.47259
1.52444
1.57759
1.63203
1.68774
1.74471
1.80292
1.86235
1.92295
1.98471
2.04757
2.1115
2.17645
2.24237
2.30921
2.3769
2.44538
2.51459
2.58446
2.65492
2.72589
2.79729
2.86906
2.94109
3.01332
3.08566
3.15801
3.23029
3.30241
3.37428
3.4458
3.5169
3.58746
3.6574
3.72662
3.79504
3.86256
3.92908
3.99453
4.05881
4.12183
4.18352
4.24378
4.30254
4.35972
4.41523
4.46901
4.52097
4.57106
4.6192
4.66532
4.70937
4.75129
4.79102
4.82851
4.86371
4.89657
4.92707
4.95515
4.9808
5.00399
5.02469
5.0429
5.05861
5.07182
5.08253
5.09075
5.09649
5.09977
5.10062
5.09916
5.09517
5.08875
5.08001
5.069
5.05575
5.04034
5.02282
5.00325
4.98171
4.95826
4.93298
4.90594
4.87723
4.84693
4.81512
4.78188
4.7473
4.71146
4.67444
4.63633
4.59721
4.55715
4.51623
4.47452
4.43208
4.38897
4.34524
4.30095
4.25614
4.21085
4.16512
4.11899
4.07248
4.02563
3.97845
3.93097
3.88322
3.83522
3.78703
3.73871
3.69037
3.64214
3.59415
3.54661
3.49971
3.45365
3.40861
3.36404
3.31878
0.0379038
0.0789302
0.100093
0.115186
0.127649
0.138707
0.148949
0.158722
0.168249
0.177691
0.187169
0.196775
0.206585
0.216656
0.22704
0.237782
0.248902
0.260429
0.27239
0.28481
0.297714
0.311128
0.325075
0.33958
0.354667
0.370362
0.386688
0.403673
0.42134
0.439717
0.458829
0.478702
0.499363
0.520837
0.543153
0.566337
0.590414
0.615408
0.641344
0.668264
0.696195
0.725168
0.755212
0.786359
0.81864
0.852085
0.886726
0.92259
0.959702
0.998088
1.03777
1.07877
1.1211
1.1648
1.20986
1.25631
1.30415
1.35341
1.40407
1.45615
1.50963
1.56452
1.6208
1.67845
1.73746
1.7978
1.85944
1.92234
1.98648
2.0518
2.11826
2.18581
2.2544
2.32396
2.39442
2.46574
2.53783
2.61062
2.68404
2.758
2.83244
2.90726
2.98238
3.05772
3.13318
3.20868
3.28413
3.35943
3.43448
3.5092
3.5835
3.65727
3.73042
3.80286
3.8745
3.94523
4.01496
4.08361
4.15108
4.21729
4.28214
4.34556
4.40746
4.46775
4.52637
4.58322
4.63824
4.69136
4.74249
4.79159
4.83858
4.8834
4.92599
4.9663
5.00428
5.03988
5.07305
5.10375
5.13196
5.15763
5.18073
5.20127
5.21921
5.23455
5.2473
5.25745
5.26502
5.27001
5.27246
5.27242
5.26999
5.26482
5.2572
5.24717
5.23477
5.22007
5.20311
5.18395
5.16268
5.13936
5.11406
5.08687
5.05787
5.02714
4.99476
4.96084
4.92546
4.8887
4.85067
4.81144
4.77112
4.72978
4.68752
4.64441
4.60054
4.55597
4.51077
4.465
4.41871
4.37196
4.32479
4.27723
4.22933
4.18111
4.13261
4.08384
4.03483
3.98559
3.93616
3.88659
3.83693
3.78729
3.73778
3.68856
3.63979
3.59168
3.54439
3.49809
3.4523
3.40613
0.0378304
0.0788298
0.099939
0.114991
0.127412
0.138423
0.14861
0.158319
0.167776
0.177141
0.186534
0.196048
0.205756
0.215716
0.225974
0.236566
0.247525
0.25888
0.27066
0.282896
0.295615
0.308844
0.322612
0.336947
0.351878
0.367434
0.383647
0.400548
0.41817
0.436545
0.455707
0.475686
0.496516
0.51823
0.54086
0.564443
0.589022
0.614612
0.64124
0.668901
0.697678
0.727613
0.758743
0.791105
0.824734
0.859667
0.895947
0.933594
0.972633
1.01309
1.05498
1.09832
1.14313
1.18943
1.23721
1.2865
1.3373
1.3896
1.44341
1.49871
1.5555
1.61375
1.67345
1.73458
1.79709
1.86095
1.92613
1.99258
2.06025
2.12909
2.19904
2.27005
2.34205
2.41497
2.48874
2.56329
2.63855
2.71444
2.79087
2.86777
2.94504
3.02261
3.10039
3.17829
3.25621
3.33407
3.41178
3.48924
3.56635
3.64303
3.71918
3.79471
3.86952
3.94352
4.01661
4.08871
4.15972
4.22954
4.2981
4.36531
4.43107
4.49531
4.55795
4.61891
4.6781
4.73546
4.7909
4.84436
4.89578
4.94508
4.99221
5.0371
5.0797
5.11996
5.15782
5.19323
5.22615
5.25655
5.28438
5.30962
5.33224
5.35221
5.36953
5.38418
5.39618
5.40551
5.41219
5.41624
5.41767
5.41666
5.41304
5.40667
5.39778
5.38642
5.37263
5.35647
5.338
5.31728
5.29439
5.26939
5.24238
5.21342
5.18261
5.15004
5.11579
5.07997
5.04267
5.00398
4.964
4.92284
4.88057
4.83731
4.79315
4.74817
4.70245
4.65608
4.60913
4.56166
4.51374
4.4654
4.41671
4.36771
4.31842
4.26889
4.21913
4.16917
4.11903
4.06871
4.01826
3.9677
3.91709
3.86654
3.81614
3.76604
3.71641
3.66742
3.61924
3.57203
3.52534
3.47861
0.0375692
0.0784431
0.0993523
0.114257
0.126537
0.137405
0.147448
0.157009
0.166315
0.175524
0.184757
0.194104
0.203636
0.213411
0.223476
0.23387
0.244632
0.255797
0.2674
0.279468
0.292034
0.305128
0.318785
0.333037
0.34792
0.36347
0.379724
0.396721
0.414498
0.433101
0.452577
0.472967
0.494301
0.516617
0.539952
0.564335
0.589769
0.616317
0.644049
0.673036
0.703317
0.734927
0.767906
0.80229
0.83811
0.875396
0.914164
0.954446
0.996269
1.03966
1.08465
1.13122
1.17937
1.22912
1.28045
1.33336
1.38784
1.44389
1.50148
1.56058
1.62118
1.68323
1.74672
1.81158
1.87779
1.94529
2.01403
2.08395
2.15501
2.22713
2.30026
2.37432
2.44925
2.52498
2.60142
2.67852
2.75618
2.83433
2.91289
2.99177
3.0709
3.15019
3.22954
3.30889
3.38813
3.46718
3.54595
3.62435
3.7023
3.77969
3.85645
3.93248
4.00769
4.08199
4.1553
4.22752
4.29857
4.36836
4.43681
4.50383
4.56934
4.63327
4.69553
4.75606
4.81477
4.8716
4.92646
4.9793
5.03005
5.07866
5.12506
5.16919
5.211
5.25044
5.28745
5.322
5.35403
5.38351
5.41041
5.43469
5.45632
5.47528
5.49156
5.50516
5.51606
5.52427
5.5298
5.53267
5.5329
5.5308
5.52579
5.51812
5.5079
5.49517
5.47999
5.4624
5.44246
5.42025
5.39583
5.36929
5.34069
5.31014
5.27771
5.2435
5.20761
5.17014
5.13118
5.09083
5.04921
5.0064
4.96253
4.91767
4.87195
4.82544
4.77825
4.73046
4.68214
4.63336
4.58419
4.53469
4.4849
4.43487
4.38463
4.33421
4.28363
4.23292
4.18208
4.13112
4.08007
4.02896
3.97783
3.92677
3.87589
3.82532
3.77521
3.72572
3.677
3.62923
3.582
3.53508
0.0370484
0.0775845
0.0981933
0.112866
0.12493
0.135592
0.145436
0.154805
0.163924
0.172953
0.182009
0.191183
0.200548
0.210162
0.220076
0.230332
0.240971
0.252032
0.263551
0.275569
0.288124
0.301255
0.315001
0.329407
0.344523
0.360409
0.377097
0.39463
0.413055
0.432417
0.452743
0.474036
0.496396
0.519892
0.544585
0.570537
0.597827
0.626491
0.656577
0.688142
0.721227
0.755864
0.792086
0.829918
0.869383
0.910493
0.953255
0.997682
1.04377
1.09153
1.14092
1.19193
1.24455
1.29877
1.35456
1.4119
1.47075
1.53109
1.59287
1.65606
1.72061
1.78647
1.85359
1.92193
1.99142
2.06201
2.13365
2.20627
2.27981
2.35421
2.42941
2.50532
2.5819
2.65907
2.73676
2.8149
2.89341
2.97223
3.05127