/*--------------------------------*- C++ -*----------------------------------*\
  =========                 |
  \\      /  F ield         | OpenFOAM: The Open Source CFD Toolbox
   \\    /   O peration     | Website:  https://openfoam.org
    \\  /    A nd           | Version:  8
     \\/     M anipulation  |
\*---------------------------------------------------------------------------*/
FoamFile
{
    version     2.0;
    format      ascii;
    class       volScalarField;
    location    "245";
    object      nut;
}
// * * * * * * * * * * * * * * * * * * * * * * * * * * * * * * * * * * * * * //

dimensions      [0 2 -1 0 0 0 0];

internalField   nonuniform List<scalar> 
12225
(
4.14967e-05
3.93418e-05
3.74839e-05
3.54323e-05
3.37849e-05
3.24196e-05
3.15111e-05
3.0911e-05
3.09173e-05
3.10974e-05
3.15681e-05
3.21126e-05
3.31481e-05
3.38013e-05
3.51045e-05
3.5672e-05
3.75833e-05
3.56918e-05
0.000332326
0.000215225
0.000179278
0.000157685
0.000146204
0.000138219
0.000132749
0.000131639
0.000129522
0.00013005
0.00012906
0.000129426
0.000128672
0.000128542
0.000128092
0.000127398
0.0001274
0.000126519
0.000674951
0.000450853
0.000355772
0.000309847
0.00027528
0.000251109
0.000231704
0.000217285
0.000202685
0.000192118
0.000182629
0.000175209
0.000169385
0.000163685
0.00016031
0.000155578
0.000153812
0.000149909
0.000833602
0.00068492
0.000571977
0.000499978
0.000449452
0.000411964
0.00038077
0.000356009
0.000334008
0.00031479
0.000298332
0.000281726
0.000270316
0.000256087
0.000248217
0.000236193
0.000230429
0.000220511
0.000861249
0.000802529
0.000742123
0.000676588
0.000623994
0.00058138
0.000545867
0.000514561
0.000489521
0.000464438
0.000445867
0.000424086
0.00040995
0.000390828
0.000379912
0.000363137
0.000354523
0.000339599
0.000854978
0.000840347
0.000822203
0.000786497
0.00075086
0.000715902
0.000685761
0.000656135
0.000632551
0.000607524
0.000589004
0.00056726
0.000552296
0.000533122
0.000520808
0.000503779
0.000493358
0.000477581
0.000852907
0.000850685
0.000844239
0.000832828
0.000817411
0.000797001
0.000777887
0.000756739
0.000738902
0.000719152
0.000703539
0.000685632
0.000672134
0.000655943
0.000644329
0.000629573
0.000619556
0.000605233
0.000851922
0.000851813
0.000850172
0.000847395
0.000841453
0.000833728
0.000824897
0.000813417
0.000802809
0.000790474
0.000779719
0.000767547
0.000757433
0.000745798
0.000736556
0.000725558
0.000717187
0.000706097
0.000851751
0.000851542
0.000851034
0.000850339
0.00084888
0.000846168
0.000843034
0.000838305
0.000833403
0.000827362
0.000821219
0.000814777
0.000808415
0.000801535
0.000795252
0.000788435
0.000782193
0.000775295
0.000851769
0.000851389
0.000851046
0.000850633
0.000850247
0.000849368
0.000848405
0.000846781
0.000844956
0.000842531
0.000839925
0.000836802
0.000833797
0.000830157
0.000826976
0.000822936
0.000819911
0.000815316
0.000851787
0.000851359
0.000851012
0.000850613
0.000850329
0.000849905
0.000849525
0.000848929
0.000848303
0.000847394
0.000846466
0.000845178
0.000843991
0.000842354
0.000840999
0.000839036
0.000837644
0.000835369
0.000851789
0.000851359
0.000850995
0.000850605
0.000850291
0.000849938
0.000849646
0.00084928
0.000848955
0.000848504
0.000848099
0.000847508
0.000846998
0.000846245
0.000845642
0.000844722
0.00084406
0.000842979
0.000851786
0.000851363
0.000850985
0.000850604
0.000850269
0.000849926
0.00084963
0.000849313
0.000849042
0.000848729
0.000848462
0.000848126
0.000847844
0.000847466
0.000847157
0.000846726
0.000846387
0.000845903
0.000851783
0.000851364
0.000850978
0.000850602
0.000850256
0.000849916
0.000849607
0.0008493
0.000849022
0.00084874
0.000848488
0.000848224
0.000847988
0.000847735
0.000847508
0.000847258
0.000847033
0.000846783
0.000851781
0.000851364
0.000850972
0.000850598
0.000850246
0.000849908
0.000849591
0.000849286
0.000849
0.000848723
0.000848463
0.000848211
0.000847975
0.000847744
0.000847527
0.000847315
0.000847114
0.000846919
0.00085178
0.000851363
0.000850969
0.000850594
0.000850239
0.000849901
0.00084958
0.000849274
0.000848984
0.000848707
0.000848443
0.000848191
0.000847951
0.000847721
0.000847502
0.000847292
0.000847092
0.0008469
0.000851779
0.000851362
0.000850967
0.000850591
0.000850234
0.000849894
0.000849572
0.000849265
0.000848973
0.000848694
0.000848428
0.000848174
0.000847932
0.000847701
0.00084748
0.000847268
0.000847066
0.000846873
0.000851779
0.000851362
0.000850965
0.000850588
0.00085023
0.00084989
0.000849567
0.000849258
0.000848965
0.000848685
0.000848418
0.000848163
0.000847919
0.000847686
0.000847464
0.000847251
0.000847048
0.000846853
0.000851779
0.000851362
0.000850965
0.000850588
0.000850229
0.000849889
0.000849565
0.000849256
0.000848962
0.000848681
0.000848413
0.000848157
0.000847913
0.000847679
0.000847456
0.000847242
0.000847038
0.000846842
0.000851779
0.000851362
0.000850965
0.000850589
0.000850231
0.000849891
0.000849567
0.000849259
0.000848965
0.000848685
0.000848417
0.000848161
0.000847916
0.000847683
0.000847459
0.000847245
0.00084704
0.000846844
0.000851779
0.000851363
0.000850967
0.000850592
0.000850235
0.000849896
0.000849573
0.000849266
0.000848972
0.000848693
0.000848423
0.000848168
0.000847919
0.000847683
0.00084745
0.00084723
0.000847011
0.000846805
0.000851778
0.000851366
0.000850968
0.000850599
0.00085024
0.000849907
0.00084958
0.000849274
0.000848964
0.000848671
0.000848364
0.000848071
0.000847755
0.000847455
0.000847122
0.00084681
0.000846456
0.000846135
0.000851777
0.000851374
0.000850971
0.000850615
0.00085024
0.000849889
0.000849478
0.000849054
0.000848529
0.000847978
0.0008473
0.000846604
0.000845766
0.000844938
0.000843953
0.000843028
0.000841916
0.000840938
0.000851802
0.00085141
0.00085097
0.000850549
0.000849861
0.000848967
0.000847607
0.000845979
0.000843903
0.000841635
0.000838953
0.000836213
0.000833115
0.000830111
0.00082676
0.000823677
0.000820181
0.000817174
0.000852138
0.000851403
0.000850234
0.000848252
0.000844472
0.000839355
0.000832711
0.000825762
0.000817912
0.000809999
0.000801613
0.000793624
0.000785328
0.000777702
0.000769739
0.000762695
0.000755118
0.000748789
0.000854142
0.000847718
0.000840125
0.000827122
0.000808707
0.000789646
0.000769971
0.000751415
0.000733301
0.000716891
0.000700929
0.000686776
0.000672824
0.000660665
0.000648372
0.000637934
0.000626946
0.000618012
0.00085497
0.000818336
0.000776229
0.000726635
0.000684937
0.000649856
0.000618458
0.000592019
0.000568378
0.000548307
0.000529683
0.000513987
0.000498744
0.000486011
0.000473195
0.000462701
0.000451615
0.000442797
0.000807487
0.000666879
0.000570551
0.000509854
0.000465647
0.000431193
0.000404131
0.000382498
0.000364191
0.000349063
0.000335937
0.000325074
0.000314475
0.000306243
0.000297958
0.000291363
0.000284276
0.000278927
0.000501854
0.000348404
0.00029269
0.000259174
0.000236322
0.000221177
0.000211543
0.000204015
0.000198479
0.000195058
0.000192217
0.000190367
0.000188581
0.000187438
0.000186163
0.000185473
0.000184553
0.000184142
7.27285e-05
7.02231e-05
6.79539e-05
6.56136e-05
6.33827e-05
6.12765e-05
5.94929e-05
5.79572e-05
5.67103e-05
5.57029e-05
5.49775e-05
5.44184e-05
5.41085e-05
5.38871e-05
5.38765e-05
5.39619e-05
5.40715e-05
5.43221e-05
2.33072e-07
5.91638e-06
1.09122e-05
1.54194e-05
1.9996e-05
2.51061e-05
3.09481e-05
3.76774e-05
4.52957e-05
5.36737e-05
6.26159e-05
7.19226e-05
8.14161e-05
9.09523e-05
0.000100415
0.000109711
0.000118769
0.000127527
0.00013594
0.000143967
0.000151572
0.000158708
0.000165309
0.000171257
0.000176361
0.000180308
0.000183078
0.00018412
0.00018059
0.000173533
0.000160731
3.3338e-05
3.40115e-05
3.52625e-05
3.69625e-05
4.12152e-05
4.78901e-05
0.000234549
0.000238351
0.00023025
4.58493e-05
4.90884e-05
4.97265e-05
5.09861e-05
5.20538e-05
5.3196e-05
5.43036e-05
5.54237e-05
5.65341e-05
5.76447e-05
5.87507e-05
5.98544e-05
6.09545e-05
6.20519e-05
6.3146e-05
6.42371e-05
6.5325e-05
6.64097e-05
6.7491e-05
6.85688e-05
6.96428e-05
7.07129e-05
7.17788e-05
7.28402e-05
7.38967e-05
7.4948e-05
7.59936e-05
7.70333e-05
7.80664e-05
7.90927e-05
8.01115e-05
8.11225e-05
8.21249e-05
8.31186e-05
8.41026e-05
8.50767e-05
8.604e-05
8.69923e-05
8.79327e-05
8.88608e-05
8.97758e-05
9.06774e-05
9.15647e-05
9.24373e-05
9.32943e-05
9.41352e-05
9.49591e-05
9.57653e-05
9.65531e-05
9.73214e-05
9.80691e-05
9.8795e-05
9.9498e-05
0.000100177
0.000100831
0.00010146
0.000102068
0.000102659
0.000103225
0.000103769
0.00010429
0.000104788
0.000105263
0.000105714
0.000106142
0.000106545
0.000106923
0.000107277
0.000107605
0.000107908
0.000108185
0.000108437
0.000108663
0.000108863
0.000109036
0.000109184
0.000109305
0.000109401
0.00010947
0.000109513
0.000109531
0.000109523
0.000109489
0.00010943
0.000109346
0.000109236
0.000109099
0.000108945
0.000108787
0.000108569
0.000108339
0.000108083
0.000107813
0.00010752
0.00010721
0.000106874
0.000106519
0.000106145
0.000105753
0.000105342
0.000104914
0.00010447
0.00010401
0.000103535
0.000103045
0.000102541
0.000102023
0.000101492
0.000100949
0.000100394
9.98278e-05
9.92506e-05
9.8663e-05
9.80655e-05
9.74585e-05
9.68424e-05
9.62175e-05
9.55842e-05
9.49425e-05
9.42929e-05
9.3635e-05
9.29681e-05
9.22918e-05
9.16938e-05
9.13139e-05
9.09593e-05
9.06029e-05
9.02409e-05
8.98718e-05
8.94949e-05
8.91093e-05
8.87141e-05
8.83076e-05
8.78882e-05
8.74523e-05
8.69945e-05
8.65058e-05
8.59535e-05
8.52896e-05
8.32594e-05
1.15724e-06
2.84559e-05
6.29584e-05
8.66809e-05
0.000101864
0.00011256
0.000121594
0.000130491
0.000139919
0.00015004
0.00016076
0.000171884
0.0001832
0.00019452
0.000205687
0.000216572
0.000227063
0.000237056
0.000246445
0.0002551
0.000262847
0.000269438
0.000274514
0.000277568
0.000277928
0.000274765
0.000267113
0.000253854
0.000234373
0.000209425
0.000180657
0.000150975
0.000159334
0.000173151
0.000193006
0.000221253
0.000256477
0.00030234
0.000304273
0.000288945
0.000260599
0.000271314
0.00027759
0.000284989
0.000292662
0.000300423
0.00030838
0.000316429
0.000324592
0.000332838
0.000341171
0.000349583
0.000358075
0.000366645
0.000375294
0.000384024
0.000392835
0.000401728
0.000410706
0.000419768
0.000428917
0.000438153
0.000447476
0.000456886
0.000466382
0.000475964
0.00048563
0.000495379
0.000505208
0.000515115
0.000525096
0.000535149
0.00054527
0.000555454
0.000565697
0.000575995
0.000586341
0.000596731
0.000607158
0.000617617
0.000628102
0.000638605
0.000649121
0.000659644
0.000670167
0.000680684
0.000691189
0.000701677
0.000712141
0.000722575
0.000732969
0.00074331
0.000753573
0.00076372
0.000773685
0.000783348
0.000792514
0.000800991
0.000809426
0.000817702
0.000825842
0.000833833
0.000841673
0.000849353
0.000856867
0.000864208
0.00087137
0.000878347
0.000885133
0.000891723
0.00089811
0.000904291
0.00091026
0.000916013
0.000921547
0.000926858
0.000931943
0.000936798
0.000941423
0.000945814
0.000949973
0.000953897
0.000957588
0.000961047
0.000964278
0.000967286
0.000970074
0.000972616
0.000974874
0.000976917
0.00097888
0.000980411
0.000981706
0.000982858
0.000983817
0.000984517
0.000985023
0.000985319
0.000985415
0.000985312
0.000985013
0.000984516
0.000983839
0.000982991
0.000981975
0.000980797
0.000979462
0.000977975
0.000976341
0.000974563
0.000972647
0.000970596
0.000968414
0.000966103
0.000963667
0.000961108
0.000958426
0.000955623
0.000952694
0.000949637
0.000946433
0.000943026
0.000939153
0.0009336
0.000926545
0.000918951
0.000911086
0.000903022
0.00089478
0.000886369
0.000877788
0.000869036
0.000860108
0.000850998
0.000841678
0.000832107
0.000822127
0.000811558
0.000798908
0.000766949
2.43696e-06
4.68496e-05
0.000100011
0.000140239
0.000169291
0.000190404
0.000206574
0.000220081
0.000232423
0.000244445
0.000256526
0.000268758
0.000281086
0.000293391
0.000305542
0.000317412
0.000328889
0.000339871
0.000350256
0.000359926
0.000368732
0.000376464
0.000382829
0.000387438
0.000389838
0.0003896
0.000386503
0.000380847
0.000373416
0.000365686
0.000360029
0.000360622
0.000378669
0.000402713
0.000430711
0.000459753
0.000486533
0.000506545
0.000514066
0.000519363
0.000526228
0.000542283
0.000557649
0.000573401
0.000589391
0.000605553
0.000621901
0.000638403
0.000655059
0.000671858
0.000688799
0.000705881
0.000723104
0.00074047
0.000757981
0.000775639
0.000793446
0.000811402
0.00082951
0.000847769
0.000866181
0.000884744
0.000903457
0.000922319
0.000941327
0.000960476
0.000979765
0.000999186
0.00101874
0.00103841
0.00105819
0.00107808
0.00109807
0.00111815
0.00113831
0.00115854
0.00117884
0.00119918
0.00121956
0.00123997
0.00126039
0.00128081
0.00130121
0.00132159
0.00134193
0.00136221
0.00138243
0.00140256
0.00142258
0.00144249
0.00146224
0.00148182
0.00150117
0.00152024
0.00153895
0.00155723
0.00157499
0.00159233
0.00160942
0.00162622
0.00164273
0.00165894
0.00167482
0.00169037
0.00170556
0.0017204
0.00173486
0.00174893
0.0017626
0.00177586
0.00178869
0.0018011
0.00181306
0.00182458
0.00183563
0.00184622
0.00185634
0.00186598
0.00187514
0.00188381
0.001892
0.0018997
0.00190691
0.00191363
0.00191986
0.00192561
0.00193087
0.00193563
0.00193988
0.00194376
0.00194736
0.00195017
0.0019524
0.00195424
0.0019557
0.00195667
0.00195722
0.00195734
0.00195703
0.00195631
0.00195519
0.00195368
0.00195179
0.00194953
0.00194693
0.00194398
0.00194071
0.00193711
0.0019332
0.00192899
0.00192448
0.00191969
0.00191462
0.00190928
0.00190366
0.00189779
0.00189165
0.00188524
0.00187857
0.00187162
0.00186437
0.00185671
0.00184836
0.00183837
0.0018267
0.00181411
0.00180095
0.00178735
0.00177337
0.00175904
0.00174435
0.00172931
0.00171391
0.00169815
0.00168197
0.00166528
0.00164784
0.00162902
0.00160584
0.00155844
3.86532e-06
6.07919e-05
0.000128222
0.000180772
0.000219576
0.000248405
0.000270571
0.000288612
0.000304322
0.000318854
0.000332864
0.000346662
0.000360348
0.000373904
0.000387264
0.000400349
0.000413088
0.000425427
0.000437331
0.000448782
0.000459767
0.000470268
0.000480251
0.000489653
0.000498394
0.000506408
0.000513715
0.000520538
0.000527419
0.00053535
0.000545845
0.000560782
0.000581548
0.000605218
0.000630271
0.000655266
0.000678923
0.000700137
0.000717919
0.000736125
0.000755868
0.000777943
0.000800296
0.000822883
0.000845673
0.000868654
0.000891827
0.000915185
0.000938729
0.000962457
0.000986369
0.00101047
0.00103475
0.00105923
0.0010839
0.00110877
0.00113383
0.0011591
0.00118457
0.00121023
0.0012361
0.00126216
0.00128842
0.00131486
0.00134149
0.0013683
0.00139527
0.00142241
0.00144971
0.00147715
0.00150473
0.00153242
0.00156023
0.00158814
0.00161614
0.0016442
0.00167232
0.00170047
0.00172866
0.00175684
0.00178502
0.00181316
0.00184126
0.00186929
0.00189723
0.00192506
0.00195277
0.00198032
0.00200769
0.00203485
0.00206177
0.00208841
0.00211473
0.00214069
0.00216621
0.00219125
0.00221582
0.00223998
0.00226376
0.00228715
0.00231014
0.00233269
0.0023548
0.00237644
0.00239759
0.00241824
0.00243837
0.00245796
0.002477
0.00249547
0.00251336
0.00253065
0.00254733
0.00256338
0.00257881
0.00259359
0.00260771
0.00262118
0.00263397
0.0026461
0.00265755
0.00266831
0.0026784
0.0026878
0.00269652
0.00270455
0.0027119
0.00271856
0.00272457
0.00273017
0.00273511
0.00273905
0.0027423
0.0027449
0.00274693
0.00274834
0.00274914
0.00274934
0.00274895
0.00274798
0.00274646
0.00274439
0.00274179
0.00273868
0.00273508
0.002731
0.00272646
0.00272146
0.00271602
0.00271016
0.00270389
0.00269721
0.00269014
0.00268268
0.00267484
0.00266663
0.00265804
0.00264908
0.00263974
0.00263001
0.00261985
0.00260916
0.0025977
0.00258489
0.00257063
0.00255532
0.00253925
0.00252258
0.00250537
0.00248765
0.00246952
0.00245097
0.00243194
0.00241241
0.00239235
0.00237165
0.00235002
0.00232664
0.00229803
0.00224699
5.28084e-06
7.2511e-05
0.000151802
0.000214514
0.000261847
0.000297479
0.000324998
0.000347183
0.000366064
0.000383029
0.000398957
0.000414349
0.000429459
0.000444384
0.000459142
0.00047372
0.000488102
0.00050229
0.00051631
0.00053022
0.000544101
0.000558057
0.000572196
0.000586619
0.000601406
0.000616603
0.000632244
0.000648381
0.000665154
0.00068287
0.000702043
0.000723207
0.000746485
0.000771255
0.000797024
0.0008233
0.000849561
0.000875467
0.000901042
0.000927134
0.000953661
0.000980924
0.00100849
0.0010363
0.00106432
0.00109255
0.001121
0.00114966
0.00117853
0.00120763
0.00123694
0.00126647
0.00129621
0.00132617
0.00135636
0.00138678
0.00141743
0.00144832
0.00147943
0.00151077
0.00154234
0.00157412
0.00160612
0.00163833
0.00167073
0.00170333
0.00173611
0.00176906
0.00180217
0.00183543
0.00186882
0.00190233
0.00193594
0.00196964
0.00200341
0.00203723
0.00207109
0.00210496
0.00213883
0.00217267
0.00220646
0.00224019
0.00227383
0.00230736
0.00234075
0.00237398
0.00240703
0.00243986
0.00247245
0.00250478
0.00253679
0.00256848
0.00259979
0.0026307
0.00266117
0.00269121
0.0027208
0.00274993
0.00277862
0.00280684
0.00283457
0.0028618
0.00288849
0.00291463
0.0029402
0.00296517
0.00298953
0.00301326
0.00303633
0.00305873
0.00308044
0.00310145
0.00312174
0.00314129
0.0031601
0.00317814
0.00319541
0.0032119
0.0032276
0.0032425
0.0032566
0.00326989
0.00328237
0.00329403
0.00330487
0.0033149
0.00332411
0.00333251
0.00334028
0.00334742
0.00335369
0.00335874
0.00336315
0.0033667
0.00336956
0.00337168
0.00337306
0.00337373
0.00337369
0.00337296
0.00337156
0.00336951
0.00336682
0.00336352
0.00335962
0.00335514
0.00335011
0.00334452
0.00333841
0.00333178
0.00332466
0.00331704
0.00330895
0.0033004
0.00329138
0.00328191
0.00327198
0.0032616
0.00325077
0.00323945
0.00322763
0.00321521
0.00320202
0.00318772
0.0031722
0.00315567
0.00313829
0.00312019
0.00310143
0.00308207
0.00306215
0.00304164
0.00302057
0.00299895
0.00297674
0.00295387
0.00293007
0.00290445
0.00287362
0.00282401
6.62139e-06
8.23324e-05
0.000171566
0.000243037
0.00029798
0.000339834
0.000372358
0.000398512
0.000420511
0.000439937
0.000457857
0.000474948
0.00049161
0.000508062
0.000524415
0.000540724
0.00055703
0.000573376
0.000589825
0.000606462
0.000623397
0.000640759
0.000658685
0.000677302
0.000696717
0.000716998
0.000738172
0.000760232
0.00078316
0.000806973
0.000831748
0.000857572
0.00088444
0.000912223
0.000940796
0.000970006
0.000999653
0.00102959
0.00105978
0.00109035
0.0011213
0.00115264
0.00118427
0.00121615
0.00124826
0.00128059
0.00131315
0.00134594
0.00137896
0.00141221
0.0014457
0.00147943
0.0015134
0.00154762
0.00158208
0.00161677
0.0016517
0.00168685
0.00172223
0.00175784
0.00179366
0.0018297
0.00186594
0.00190238
0.00193901
0.00197582
0.0020128
0.00204993
0.00208721
0.00212462
0.00216215
0.00219977
0.00223748
0.00227526
0.00231309
0.00235095
0.00238882
0.00242668
0.00246451
0.0025023
0.00254001
0.00257763
0.00261514
0.00265251
0.00268971
0.00272673
0.00276353
0.00280009
0.00283638
0.00287238
0.00290805
0.00294337
0.00297831
0.00301284
0.00304694
0.00308059
0.00311377
0.00314649
0.00317871
0.00321043
0.00324161
0.00327224
0.0033023
0.00333175
0.00336058
0.00338876
0.00341627
0.0034431
0.00346921
0.0034946
0.00351923
0.0035431
0.00356618
0.00358845
0.00360991
0.00363054
0.00365032
0.00366924
0.0036873
0.00370448
0.00372077
0.00373617
0.00375067
0.00376426
0.00377696
0.00378874
0.00379962
0.00380964
0.00381906
0.00382755
0.00383501
0.00384134
0.00384687
0.00385153
0.00385536
0.00385835
0.00386052
0.00386189
0.00386247
0.00386228
0.00386134
0.00385967
0.00385729
0.00385423
0.00385049
0.0038461
0.00384109
0.00383546
0.00382924
0.00382245
0.0038151
0.0038072
0.00379877
0.00378982
0.00378035
0.00377038
0.0037599
0.00374891
0.0037374
0.00372537
0.00371278
0.00369956
0.00368559
0.00367067
0.00365472
0.0036378
0.00362002
0.00360146
0.00358218
0.00356222
0.00354162
0.00352039
0.00349856
0.00347615
0.00345316
0.00342953
0.00340506
0.00337891
0.00334808
0.00330199
7.84399e-06
9.04397e-05
0.000187958
0.000267028
0.000328812
0.000376435
0.000413733
0.000443781
0.000468931
0.000490916
0.00051096
0.000529893
0.000548251
0.000566368
0.000584447
0.000602613
0.000620956
0.00063955
0.000658477
0.000677825
0.000697696
0.000718203
0.000739457
0.000761564
0.000784605
0.000808634
0.000833665
0.000859674
0.000886607
0.000914404
0.000943019
0.000972417
0.00100256
0.00103339
0.00106487
0.00109694
0.0011295
0.0011625
0.00119587
0.00122961
0.00126369
0.00129808
0.00133276
0.00136769
0.00140286
0.00143827
0.0014739
0.00150976
0.00154585
0.00158217
0.00161872
0.00165551
0.00169253
0.00172979
0.00176727
0.00180498
0.00184292
0.00188107
0.00191944
0.00195802
0.00199681
0.0020358
0.00207498
0.00211435
0.00215389
0.0021936
0.00223346
0.00227346
0.0023136
0.00235385
0.0023942
0.00243463
0.00247514
0.0025157
0.00255629
0.00259691
0.00263752
0.00267811
0.00271866
0.00275915
0.00279955
0.00283985
0.00288003
0.00292005
0.0029599
0.00299955
0.00303898
0.00307817
0.00311707
0.00315568
0.00319396
0.00323189
0.00326944
0.00330659
0.00334331
0.00337959
0.00341541
0.00345074
0.00348557
0.00351987
0.00355363
0.00358682
0.0036194
0.00365137
0.00368269
0.00371335
0.00374331
0.00377255
0.00380106
0.0038288
0.00385577
0.00388193
0.00390727
0.00393177
0.00395541
0.00397817
0.00400005
0.00402102
0.00404108
0.00406021
0.00407839
0.00409563
0.00411192
0.00412724
0.00414159
0.00415498
0.00416741
0.00417906
0.00418985
0.00419968
0.00420828
0.00421593
0.00422263
0.0042284
0.00423326
0.00423722
0.0042403
0.00424251
0.00424387
0.0042444
0.00424412
0.00424305
0.00424122
0.00423864
0.00423534
0.00423135
0.00422668
0.00422135
0.00421539
0.00420881
0.00420164
0.00419388
0.00418555
0.00417666
0.00416723
0.00415725
0.00414674
0.00413568
0.00412408
0.00411192
0.00409917
0.0040858
0.0040717
0.00405676
0.0040409
0.00402415
0.00400654
0.00398814
0.00396898
0.00394911
0.00392856
0.00390736
0.00388555
0.00386316
0.00384023
0.00381675
0.00379255
0.00376693
0.00373739
0.00369675
8.91833e-06
9.69747e-05
0.000201289
0.000286916
0.000354821
0.000407794
0.000449658
0.000483543
0.000511889
0.000536537
0.000558837
0.000579743
0.00059991
0.000619775
0.000639624
0.000659648
0.000679979
0.00070072
0.00072196
0.000743781
0.000766264
0.000789491
0.000813542
0.000838482
0.00086436
0.000891199
0.000919041
0.000947839
0.000977532
0.00100805
0.00103933
0.0010713
0.00110392
0.00113715
0.00117093
0.00120523
0.00124002
0.00127525
0.00131085
0.00134679
0.00138306
0.00141964
0.00145648
0.00149358
0.00153091
0.00156847
0.00160624
0.00164423
0.00168244
0.00172086
0.0017595
0.00179835
0.00183742
0.0018767
0.00191618
0.00195588
0.00199578
0.00203588
0.00207618
0.00211668
0.00215736
0.00219822
0.00223926
0.00228047
0.00232184
0.00236336
0.00240503
0.00244682
0.00248873
0.00253075
0.00257286
0.00261506
0.00265731
0.00269962
0.00274196
0.00278432
0.00282668
0.00286901
0.00291131
0.00295356
0.00299572
0.00303779
0.00307974
0.00312155
0.00316319
0.00320465
0.00324589
0.0032869
0.00332766
0.00336813
0.00340829
0.00344811
0.00348758
0.00352667
0.00356535
0.0036036
0.0036414
0.00367873
0.00371556
0.00375187
0.00378764
0.00382284
0.00385744
0.00389143
0.00392476
0.00395742
0.00398939
0.00402063
0.00405112
0.00408085
0.00410978
0.00413789
0.00416517
0.00419158
0.00421712
0.00424176
0.00426548
0.00428828
0.00431012
0.004331
0.00435091
0.00436983
0.00438776
0.00440468
0.00442059
0.00443549
0.00444942
0.00446257
0.00447467
0.00448576
0.00449559
0.00450452
0.00451242
0.00451933
0.00452526
0.00453025
0.00453429
0.00453742
0.00453965
0.004541
0.0045415
0.00454116
0.00454002
0.00453809
0.0045354
0.00453198
0.00452785
0.00452303
0.00451754
0.00451141
0.00450466
0.0044973
0.00448936
0.00448083
0.00447175
0.0044621
0.0044519
0.00444114
0.00442983
0.00441794
0.00440547
0.00439237
0.00437858
0.00436403
0.00434865
0.00433244
0.0043154
0.00429757
0.00427898
0.00425966
0.00423966
0.004219
0.00419774
0.00417594
0.00415365
0.0041309
0.00410758
0.00408312
0.00405553
0.00402018
9.82561e-06
0.000102061
0.000211794
0.000303096
0.000376323
0.000434243
0.000480452
0.000518089
0.00054964
0.00057702
0.000601668
0.000624636
0.000646675
0.000668312
0.000689902
0.000711688
0.000733844
0.000756503
0.000779781
0.00080373
0.000828405
0.000853861
0.000880145
0.000907293
0.00093532
0.000964218
0.000994017
0.00102471
0.00105625
0.00108857
0.00112162
0.00115533
0.00118966
0.00122454
0.00125994
0.00129583
0.00133215
0.00136884
0.00140585
0.00144318
0.00148082
0.00151876
0.00155698
0.00159544
0.0016341
0.00167297
0.00171203
0.00175127
0.00179071
0.00183033
0.00187014
0.00191014
0.00195033
0.0019907
0.00203126
0.002072
0.00211292
0.00215403
0.00219531
0.00223677
0.00227841
0.00232021
0.00236217
0.0024043
0.00244658
0.002489
0.00253156
0.00257426
0.00261707
0.00266
0.00270302
0.00274614
0.00278933
0.00283259
0.0028759
0.00291924
0.0029626
0.00300596
0.00304931
0.00309263
0.00313589
0.00317908
0.00322219
0.00326518
0.00330804
0.00335074
0.00339326
0.00343558
0.00347767
0.00351952
0.00356108
0.00360235
0.00364329
0.00368389
0.00372411
0.00376392
0.00380332
0.00384226
0.00388074
0.00391871
0.00395615
0.00399304
0.00402935
0.00406505
0.00410012
0.00413452
0.00416823
0.00420123
0.00423349
0.00426497
0.00429567
0.00432554
0.00435457
0.00438274
0.00441002
0.00443639
0.00446183
0.00448632
0.00450984
0.00453238
0.00455392
0.00457445
0.00459395
0.00461242
0.00462984
0.00464621
0.00466166
0.00467612
0.00468956
0.0047019
0.00471309
0.00472328
0.00473239
0.00474045
0.00474749
0.00475353
0.00475859
0.0047627
0.00476586
0.0047681
0.00476945
0.00476993
0.00476957
0.00476838
0.00476641
0.00476367
0.00476019
0.00475601
0.00475114
0.0047456
0.00473944
0.00473265
0.00472527
0.0047173
0.00470877
0.00469967
0.00469002
0.00467982
0.00466906
0.00465774
0.00464584
0.00463333
0.00462017
0.0046063
0.00459168
0.00457628
0.0045601
0.00454315
0.00452545
0.00450703
0.00448793
0.00446819
0.00444787
0.00442705
0.0044058
0.00438417
0.00436213
0.00433921
0.00431384
0.00428312
1.05572e-05
0.000105834
0.000219747
0.000315857
0.000393682
0.000456084
0.000506363
0.000547611
0.000582319
0.000612439
0.000639468
0.000664528
0.000688447
0.000711835
0.000735106
0.000758509
0.000782209
0.000806293
0.000830954
0.000856313
0.000882436
0.000909366
0.000937131
0.000965749
0.000995232
0.00102558
0.0010568
0.00108883
0.00112163
0.00115515
0.00118932
0.00122409
0.00125942
0.00129525
0.00133154
0.00136826
0.00140539
0.0014429
0.00148075
0.00151892
0.00155737
0.00159606
0.00163489
0.00167393
0.00171314
0.0017525
0.00179201
0.00183166
0.00187146
0.00191142
0.00195152
0.00199179
0.00203221
0.0020728
0.00211354
0.00215445
0.00219552
0.00223676
0.00227816
0.00231973
0.00236148
0.00240338
0.00244546
0.0024877
0.0025301
0.00257267
0.00261539
0.00265825
0.00270127
0.00274442
0.0027877
0.00283111
0.00287462
0.00291824
0.00296194
0.00300572
0.00304956
0.00309345
0.00313737
0.0031813
0.00322523
0.00326913
0.00331299
0.00335679
0.0034005
0.0034441
0.00348757
0.00353089
0.00357402
0.00361696
0.00365966
0.00370211
0.00374427
0.00378613
0.00382765
0.00386881
0.00390959
0.00394994
0.00398985
0.00402929
0.00406823
0.00410665
0.0041445
0.00418177
0.00421842
0.00425443
0.00428977
0.0043244
0.0043583
0.00439145
0.00442381
0.00445536
0.00448606
0.00451591
0.00454486
0.0045729
0.0046
0.00462614
0.0046513
0.00467547
0.00469861
0.00472072
0.00474179
0.00476179
0.00478072
0.0047986
0.00481548
0.00483131
0.00484609
0.00485976
0.00487232
0.00488381
0.00489414
0.00490339
0.00491157
0.00491872
0.00492485
0.00492998
0.00493413
0.00493733
0.00493959
0.00494095
0.00494143
0.00494106
0.00493988
0.00493791
0.00493517
0.00493171
0.00492755
0.00492272
0.00491725
0.00491116
0.00490447
0.0048972
0.00488936
0.00488098
0.00487206
0.00486259
0.00485259
0.00484205
0.00483095
0.00481927
0.00480697
0.00479403
0.00478039
0.00476603
0.00475094
0.00473511
0.00471855
0.0047013
0.00468338
0.00466484
0.00464576
0.00462621
0.00460629
0.00458608
0.00456557
0.00454441
0.00452136
0.00449472
1.11127e-05
0.000108433
0.000225401
0.000325417
0.000407185
0.000473585
0.000527612
0.000572269
0.000610015
0.000642809
0.000672198
0.000699309
0.000724946
0.000749648
0.000774024
0.00079847
0.00082325
0.000848581
0.0008746
0.000901324
0.000928774
0.000956977
0.00098595
0.0010157
0.00104623
0.00107754
0.00110958
0.00114233
0.00117573
0.00120973
0.0012443
0.00127941
0.00131499
0.00135102
0.00138745
0.00142425
0.00146139
0.00149883
0.00153654
0.00157448
0.00161265
0.00165105
0.00168977
0.00172867
0.00176765
0.00180669
0.0018458
0.00188499
0.00192429
0.00196369
0.00200322
0.00204288
0.00208267
0.0021226
0.00216268
0.00220291
0.00224331
0.00228387
0.00232461
0.00236553
0.00240663
0.00244793
0.00248942
0.0025311
0.00257299
0.00261508
0.00265737
0.00269985
0.00274254
0.00278541
0.00282848
0.00287172
0.00291514
0.00295872
0.00300246
0.00304633
0.00309033
0.00313445
0.00317866
0.00322295
0.0032673
0.0033117
0.00335611
0.00340052
0.00344491
0.00348925
0.00353351
0.00357768
0.00362173
0.00366562
0.00370934
0.00375286
0.00379614
0.00383916
0.00388189
0.0039243
0.00396635
0.00400804
0.00404931
0.00409014
0.00413051
0.00417037
0.00420971
0.00424849
0.00428667
0.00432423
0.00436114
0.00439737
0.00443288
0.00446765
0.00450164
0.00453484
0.0045672
0.0045987
0.00462931
0.00465901
0.00468777
0.00471557
0.00474238
0.00476817
0.00479294
0.00481665
0.0048393
0.00486087
0.00488134
0.00490074
0.00491906
0.0049363
0.0049525
0.00496758
0.00498153
0.00499441
0.00500599
0.00501647
0.00502586
0.00503418
0.00504143
0.00504765
0.00505285
0.00505706
0.0050603
0.00506261
0.00506401
0.00506453
0.0050642
0.00506307
0.00506116
0.0050585
0.00505514
0.0050511
0.00504641
0.00504111
0.00503521
0.00502875
0.00502175
0.00501421
0.00500615
0.00499757
0.00498849
0.0049789
0.00496878
0.00495812
0.0049469
0.00493507
0.00492262
0.0049095
0.00489569
0.00488118
0.00486599
0.00485012
0.00483361
0.00481652
0.00479891
0.00478087
0.00476251
0.00474392
0.00472514
0.00470588
0.00468517
0.00466217
1.15013e-05
0.000110017
0.000229005
0.000332055
0.00041712
0.000487006
0.000544406
0.000592211
0.000632796
0.000667995
0.000699195
0.000727803
0.000754812
0.00078102
0.000806926
0.000832801
0.000858884
0.000885352
0.000912286
0.000939773
0.000967884
0.000996656
0.00102611
0.00105624
0.00108705
0.00111851
0.00115061
0.0011833
0.00121655
0.00125031
0.00128455
0.00131923
0.00135431
0.00138975
0.00142551
0.00146156
0.00149788
0.00153443
0.00157117
0.00160805
0.00164515
0.00168253
0.00172027
0.00175807
0.00179591
0.00183377
0.00187158
0.0019094
0.00194728
0.00198523
0.00202329
0.00206146
0.00209976
0.0021382
0.00217681
0.00221558