/*--------------------------------*- C++ -*----------------------------------*\
  =========                 |
  \\      /  F ield         | OpenFOAM: The Open Source CFD Toolbox
   \\    /   O peration     | Website:  https://openfoam.org
    \\  /    A nd           | Version:  8
     \\/     M anipulation  |
\*---------------------------------------------------------------------------*/
FoamFile
{
    version     2.0;
    format      ascii;
    class       surfaceScalarField;
    location    "245";
    object      phi;
}
// * * * * * * * * * * * * * * * * * * * * * * * * * * * * * * * * * * * * * //

dimensions      [0 3 -1 0 0 0 0];

internalField   nonuniform List<scalar> 
24170
(
3.12889e-06
5.95169e-08
3.04664e-06
8.22499e-08
2.97355e-06
7.30932e-08
2.90491e-06
6.86394e-08
2.84058e-06
6.43227e-08
2.78327e-06
5.73148e-08
2.73395e-06
4.93138e-08
2.69202e-06
4.19391e-08
2.65636e-06
3.56564e-08
2.62594e-06
3.04232e-08
2.59977e-06
2.6167e-08
2.57702e-06
2.27475e-08
2.55703e-06
1.99879e-08
2.53924e-06
1.77903e-08
2.52325e-06
1.59874e-08
2.50822e-06
1.5034e-08
2.49448e-06
1.37359e-08
1.8223e-08
2.47626e-06
3.45314e-06
2.3626e-08
3.45702e-06
7.83712e-08
3.45055e-06
7.9563e-08
3.43909e-06
8.00935e-08
3.42432e-06
7.90994e-08
3.40707e-06
7.45631e-08
3.38786e-06
6.85263e-08
3.36734e-06
6.24571e-08
3.3462e-06
5.67931e-08
3.32503e-06
5.15925e-08
3.30432e-06
4.68824e-08
3.28433e-06
4.27333e-08
3.26527e-06
3.9046e-08
3.24718e-06
3.58827e-08
3.23016e-06
3.30073e-08
3.21411e-06
3.10878e-08
3.19936e-06
2.84821e-08
2.98529e-08
3.18773e-06
3.66826e-06
1.78809e-08
3.67919e-06
6.74446e-08
3.68542e-06
7.33284e-08
3.68947e-06
7.60496e-08
3.69107e-06
7.74984e-08
3.69011e-06
7.5524e-08
3.68698e-06
7.16567e-08
3.68214e-06
6.72898e-08
3.676e-06
6.2934e-08
3.66888e-06
5.87174e-08
3.66105e-06
5.47125e-08
3.65276e-06
5.10187e-08
3.64421e-06
4.76014e-08
3.63554e-06
4.45458e-08
3.62685e-06
4.17012e-08
3.61845e-06
3.94873e-08
3.60989e-06
3.7044e-08
3.62202e-08
3.60352e-06
3.92587e-06
1.73954e-08
3.93592e-06
5.73966e-08
3.94257e-06
6.66768e-08
3.94812e-06
7.05048e-08
3.95254e-06
7.308e-08
3.95549e-06
7.25704e-08
3.95717e-06
6.99805e-08
3.95781e-06
6.66476e-08
3.9576e-06
6.31368e-08
3.9567e-06
5.96173e-08
3.95524e-06
5.6175e-08
3.95334e-06
5.29203e-08
3.95109e-06
4.98508e-08
3.9486e-06
4.70392e-08
3.9459e-06
4.44018e-08
3.94323e-06
4.21549e-08
3.94036e-06
3.99131e-08
3.8193e-08
3.93839e-06
4.20819e-06
1.63281e-08
4.21599e-06
4.96033e-08
4.22169e-06
6.09753e-08
4.2268e-06
6.5398e-08
4.23155e-06
6.83275e-08
4.23552e-06
6.85935e-08
4.2387e-06
6.68057e-08
4.24118e-06
6.41623e-08
4.24309e-06
6.12351e-08
4.24449e-06
5.82103e-08
4.24549e-06
5.51829e-08
4.24615e-06
5.226e-08
4.24653e-06
4.94649e-08
4.24672e-06
4.68526e-08
4.24674e-06
4.43832e-08
4.24674e-06
4.21552e-08
4.24666e-06
3.99859e-08
3.79528e-08
4.2469e-06
4.51069e-06
1.47263e-08
4.51689e-06
4.34055e-08
4.52214e-06
5.57228e-08
4.52696e-06
6.0579e-08
4.53167e-06
6.36106e-08
4.53593e-06
6.43392e-08
4.53961e-06
6.31251e-08
4.54278e-06
6.09926e-08
4.54551e-06
5.85022e-08
4.54787e-06
5.58521e-08
4.54991e-06
5.31473e-08
4.55168e-06
5.04874e-08
4.55323e-06
4.79133e-08
4.55462e-06
4.54649e-08
4.55587e-06
4.31276e-08
4.55709e-06
4.09361e-08
4.55828e-06
3.87954e-08
3.66607e-08
4.55957e-06
4.83431e-06
1.31384e-08
4.83963e-06
3.80821e-08
4.84476e-06
5.05945e-08
4.84947e-06
5.58725e-08
4.8541e-06
5.89731e-08
4.85843e-06
6.0016e-08
4.86231e-06
5.92458e-08
4.86578e-06
5.7519e-08
4.8689e-06
5.53768e-08
4.87173e-06
5.30286e-08
4.87429e-06
5.05877e-08
4.87663e-06
4.8147e-08
4.87878e-06
4.57574e-08
4.8808e-06
4.34498e-08
4.8827e-06
4.12221e-08
4.88456e-06
3.90791e-08
4.88639e-06
3.69655e-08
3.48195e-08
4.88823e-06
5.18103e-06
1.16875e-08
5.18576e-06
3.33582e-08
5.19076e-06
4.55888e-08
5.19542e-06
5.12174e-08
5.20001e-06
5.43828e-08
5.20437e-06
5.56512e-08
5.20837e-06
5.52428e-08
5.21203e-06
5.38601e-08
5.2154e-06
5.20144e-08
5.2185e-06
4.99256e-08
5.22137e-06
4.77123e-08
5.22406e-06
4.54638e-08
5.22658e-06
4.32352e-08
5.22897e-06
4.10545e-08
5.23127e-06
3.89253e-08
5.23351e-06
3.6842e-08
5.2357e-06
3.47695e-08
3.26608e-08
5.23786e-06
5.55268e-06
1.03409e-08
5.55689e-06
2.91525e-08
5.5617e-06
4.07782e-08
5.56631e-06
4.66047e-08
5.57088e-06
4.98139e-08
5.57529e-06
5.12407e-08
5.5794e-06
5.11315e-08
5.58321e-06
5.00521e-08
5.58675e-06
4.84711e-08
5.59006e-06
4.6616e-08
5.59317e-06
4.46088e-08
5.59609e-06
4.25369e-08
5.59887e-06
4.04567e-08
5.60153e-06
3.83967e-08
5.60409e-06
3.6364e-08
5.60658e-06
3.4353e-08
5.60901e-06
3.23406e-08
3.03014e-08
5.61137e-06
5.95103e-06
9.08207e-09
5.95479e-06
2.54013e-08
5.95936e-06
3.62019e-08
5.96392e-06
4.20453e-08
5.96847e-06
4.52626e-08
5.97292e-06
4.67911e-08
5.97713e-06
4.69224e-08
5.98107e-06
4.61097e-08
5.98478e-06
4.47691e-08
5.98826e-06
4.31297e-08
5.99155e-06
4.13154e-08
5.99468e-06
3.94116e-08
5.99766e-06
3.7475e-08
6.00052e-06
3.55358e-08
6.00328e-06
3.36048e-08
6.00595e-06
3.16801e-08
6.00855e-06
2.97484e-08
2.7803e-08
6.01104e-06
6.37798e-06
7.91263e-09
6.38135e-06
2.20372e-08
6.38568e-06
3.18707e-08
6.39017e-06
3.75562e-08
6.39469e-06
4.07346e-08
6.39917e-06
4.23148e-08
6.40346e-06
4.26282e-08
6.40753e-06
4.20437e-08
6.41138e-06
4.09208e-08
6.41503e-06
3.94818e-08
6.41849e-06
3.78508e-08
6.42179e-06
3.61106e-08
6.42495e-06
3.43175e-08
6.42798e-06
3.25036e-08
6.4309e-06
3.06836e-08
6.43372e-06
2.88607e-08
6.43644e-06
2.70298e-08
2.51977e-08
6.43905e-06
5.74176e-06
6.98695e-09
5.74434e-06
1.94543e-08
5.74781e-06
2.83995e-08
5.75154e-06
3.38259e-08
5.75535e-06
3.69294e-08
5.75914e-06
3.85196e-08
5.76283e-06
3.89426e-08
5.76635e-06
3.85192e-08
5.76971e-06
3.75626e-08
5.77291e-06
3.62819e-08
5.77596e-06
3.47995e-08
5.77888e-06
3.31956e-08
5.78167e-06
3.15257e-08
5.78435e-06
2.98233e-08
5.78693e-06
2.81058e-08
5.78941e-06
2.63812e-08
5.79179e-06
2.46493e-08
2.29267e-08
5.79406e-06
6.99914e-06
6.00353e-09
7.00187e-06
1.67211e-08
7.00564e-06
2.46333e-08
7.00981e-06
2.96564e-08
7.01413e-06
3.26064e-08
7.01849e-06
3.41623e-08
7.02276e-06
3.46657e-08
7.02689e-06
3.43912e-08
7.03085e-06
3.36026e-08
7.03464e-06
3.24901e-08
7.03827e-06
3.11708e-08
7.04175e-06
2.97215e-08
7.04508e-06
2.81958e-08
7.04827e-06
2.66282e-08
7.05134e-06
2.50388e-08
7.05428e-06
2.344e-08
7.05709e-06
2.18363e-08
2.02511e-08
7.05977e-06
8.53188e-06
4.97017e-09
8.53474e-06
1.38651e-08
8.53877e-06
2.05999e-08
8.54337e-06
2.50551e-08
8.54823e-06
2.77473e-08
8.55319e-06
2.92059e-08
8.55811e-06
2.97439e-08
8.56291e-06
2.95924e-08
8.56754e-06
2.89647e-08
8.57201e-06
2.80252e-08
8.5763e-06
2.6882e-08
8.58041e-06
2.56066e-08
8.58436e-06
2.42491e-08
8.58814e-06
2.2844e-08
8.59177e-06
2.14136e-08
8.59524e-06
1.99733e-08
8.59854e-06
1.85314e-08
1.7115e-08
8.60168e-06
1.04003e-05
3.89619e-09
1.04033e-05
1.09055e-08
1.04075e-05
1.63214e-08
1.04126e-05
2.00311e-08
1.0418e-05
2.23365e-08
1.04236e-05
2.36141e-08
1.04292e-05
2.41243e-08
1.04347e-05
2.40547e-08
1.04401e-05
2.35695e-08
1.04453e-05
2.2802e-08
1.04504e-05
2.18453e-08
1.04552e-05
2.07629e-08
1.04599e-05
1.96e-08
1.04643e-05
1.8389e-08
1.04686e-05
1.71525e-08
1.04726e-05
1.59076e-08
1.04765e-05
1.46646e-08
1.34514e-08
1.04802e-05
1.26779e-05
2.78655e-09
1.2681e-05
7.83708e-09
1.26855e-05
1.17963e-08
1.26909e-05
1.45792e-08
1.26969e-05
1.63472e-08
1.27032e-05
1.73389e-08
1.27096e-05
1.7744e-08
1.27159e-05
1.77021e-08
1.27222e-05
1.73305e-08
1.27283e-05
1.67269e-08
1.27341e-05
1.59642e-08
1.27398e-05
1.50939e-08
1.27453e-05
1.41534e-08
1.27505e-05
1.31705e-08
1.27555e-05
1.21659e-08
1.27602e-05
1.11561e-08
1.27647e-05
1.0151e-08
9.17712e-09
1.2769e-05
1.54543e-05
1.63066e-09
1.54576e-05
4.61386e-09
1.54624e-05
6.96768e-09
1.54683e-05
8.64026e-09
1.5475e-05
9.70668e-09
1.5482e-05
1.02914e-08
1.54893e-05
1.0504e-08
1.54965e-05
1.04285e-08
1.55037e-05
1.01353e-08
1.55108e-05
9.68424e-09
1.55176e-05
9.12217e-09
1.55242e-05
8.48383e-09
1.55306e-05
7.79539e-09
1.55367e-05
7.07711e-09
1.55425e-05
6.3448e-09
1.5548e-05
5.61146e-09
1.55533e-05
4.88515e-09
4.1885e-09
1.55583e-05
1.88389e-05
3.88554e-10
1.88424e-05
1.11177e-09
1.88477e-05
1.66213e-09
1.88543e-05
2.02391e-09
1.88618e-05
2.21797e-09
1.88698e-05
2.2715e-09
1.88781e-05
2.20643e-09
1.88865e-05
2.04258e-09
1.88948e-05
1.80013e-09
1.8903e-05
1.49753e-09
1.8911e-05
1.15021e-09
1.89187e-05
7.70993e-10
1.89261e-05
3.70888e-10
1.89332e-05
-4.06638e-11
1.894e-05
-4.55608e-10
1.89465e-05
-8.66619e-10
1.89527e-05
-1.26944e-09
-1.64697e-09
1.89585e-05
2.29648e-05
-1.04074e-09
2.29688e-05
-2.95797e-09
2.2975e-05
-4.53949e-09
2.29828e-05
-5.74572e-09
2.29916e-05
-6.59639e-09
2.30011e-05
-7.17832e-09
2.30109e-05
-7.57876e-09
2.30208e-05
-7.85233e-09
2.30306e-05
-8.03568e-09
2.30402e-05
-8.15996e-09
2.30496e-05
-8.24885e-09
2.30587e-05
-8.31674e-09
2.30675e-05
-8.37152e-09
2.30759e-05
-8.41743e-09
2.30839e-05
-8.45652e-09
2.30915e-05
-8.48883e-09
2.30987e-05
-8.51507e-09
-8.52482e-09
2.31056e-05
1.68118e-05
-2.16256e-09
1.6815e-05
-6.12678e-09
1.68198e-05
-9.36689e-09
1.68258e-05
-1.17398e-08
1.68325e-05
-1.33039e-08
1.68396e-05
-1.42877e-08
1.68469e-05
-1.48787e-08
1.68543e-05
-1.51806e-08
1.68615e-05
-1.52723e-08
1.68686e-05
-1.52259e-08
1.68754e-05
-1.50941e-08
1.6882e-05
-1.49098e-08
1.68883e-05
-1.46935e-08
1.68944e-05
-1.44593e-08
1.69001e-05
-1.42157e-08
1.69056e-05
-1.39673e-08
1.69108e-05
-1.37177e-08
-1.34603e-08
1.69157e-05
1.46356e-05
-3.23988e-09
1.46387e-05
-9.21141e-09
1.46434e-05
-1.40791e-08
1.46492e-05
-1.74805e-08
1.46555e-05
-1.9587e-08
1.4662e-05
-2.08489e-08
1.46687e-05
-2.15363e-08
1.46753e-05
-2.17854e-08
1.46817e-05
-2.17269e-08
1.4688e-05
-2.14776e-08
1.4694e-05
-2.11129e-08
1.46998e-05
-2.06775e-08
1.47053e-05
-2.02016e-08
1.47105e-05
-1.97064e-08
1.47155e-05
-1.92051e-08
1.47203e-05
-1.87052e-08
1.47248e-05
-1.82117e-08
-1.77207e-08
1.4729e-05
1.27411e-05
-4.24855e-09
1.27443e-05
-1.23365e-08
1.27491e-05
-1.8908e-08
1.27547e-05
-2.31243e-08
1.27607e-05
-2.55645e-08
1.27669e-05
-2.70035e-08
1.2773e-05
-2.7704e-08
1.27791e-05
-2.78155e-08
1.27849e-05
-2.75452e-08
1.27905e-05
-2.70582e-08
1.27958e-05
-2.64442e-08
1.28009e-05
-2.57547e-08
1.28057e-05
-2.50267e-08
1.28103e-05
-2.4286e-08
1.28146e-05
-2.35478e-08
1.28187e-05
-2.28207e-08
1.28226e-05
-2.21093e-08
-2.14111e-08
1.28263e-05
1.10918e-05
-5.09002e-09
1.1095e-05
-1.55563e-08
1.11001e-05
-2.40333e-08
1.11057e-05
-2.87473e-08
1.11115e-05
-3.12971e-08
1.11173e-05
-3.28133e-08
1.1123e-05
-3.34275e-08
1.11285e-05
-3.33218e-08
1.11338e-05
-3.27986e-08
1.11388e-05
-3.20551e-08
1.11435e-05
-3.11832e-08
1.1148e-05
-3.02395e-08
1.11522e-05
-2.92671e-08
1.11562e-05
-2.82946e-08
1.116e-05
-2.73372e-08
1.11636e-05
-2.6403e-08
1.1167e-05
-2.54961e-08
-2.46142e-08
1.11702e-05
9.65581e-06
-5.68907e-09
9.65924e-06
-1.89837e-08
9.66459e-06
-2.93789e-08
9.67008e-06
-3.42431e-08
9.67564e-06
-3.6852e-08
9.68119e-06
-3.83681e-08
9.68652e-06
-3.87549e-08
9.69154e-06
-3.83437e-08
9.69628e-06
-3.7537e-08
9.70075e-06
-3.65287e-08
9.70497e-06
-3.5398e-08
9.70893e-06
-3.42042e-08
9.71266e-06
-3.2995e-08
9.71617e-06
-3.17997e-08
9.71946e-06
-3.06336e-08
9.72256e-06
-2.95036e-08
9.72548e-06
-2.84121e-08
-2.73552e-08
9.72822e-06
8.4053e-06
-5.63509e-09
8.40963e-06
-2.33203e-08
8.41487e-06
-3.46154e-08
8.4199e-06
-3.92685e-08
8.42526e-06
-4.22138e-08
8.43066e-06
-4.37711e-08
8.43574e-06
-4.38349e-08
8.44044e-06
-4.30438e-08
8.4448e-06
-4.18999e-08
8.44885e-06
-4.05791e-08
8.45261e-06
-3.91515e-08
8.45608e-06
-3.76791e-08
8.4593e-06
-3.62117e-08
8.46228e-06
-3.4777e-08
8.46503e-06
-3.33901e-08
8.46759e-06
-3.20572e-08
8.46996e-06
-3.07803e-08
-2.95559e-08
8.47216e-06
7.3145e-06
-2.85175e-09
7.32119e-06
-3.00094e-08
7.32674e-06
-4.0168e-08
7.33169e-06
-4.42147e-08
7.33708e-06
-4.76073e-08
7.3424e-06
-4.90873e-08
7.34727e-06
-4.87075e-08
7.35168e-06
-4.74512e-08
7.35565e-06
-4.58723e-08
7.3592e-06
-4.41288e-08
7.36235e-06
-4.23019e-08
7.36514e-06
-4.04641e-08
7.36759e-06
-3.8668e-08
7.36975e-06
-3.69378e-08
7.37165e-06
-3.52884e-08
7.37332e-06
-3.37231e-08
7.37478e-06
-3.22419e-08
-3.08355e-08
7.37606e-06
6.36243e-06
4.78095e-09
6.3719e-06
-3.9472e-08
6.37932e-06
-4.75922e-08
6.38595e-06
-5.08499e-08
6.39223e-06
-5.3886e-08
6.39754e-06
-5.43967e-08
6.40183e-06
-5.29976e-08
6.40531e-06
-5.09272e-08
6.4081e-06
-4.86677e-08
6.41028e-06
-4.63085e-08
6.41191e-06
-4.39292e-08
6.41305e-06
-4.16062e-08
6.41378e-06
-3.93898e-08
6.41414e-06
-3.72991e-08
6.41419e-06
-3.53462e-08
6.414e-06
-3.35293e-08
6.41361e-06
-3.18485e-08
-3.02828e-08
6.41305e-06
5.54129e-06
8.95231e-09
5.55032e-06
-4.85012e-08
5.55833e-06
-5.56047e-08
5.56604e-06
-5.85549e-08
5.5725e-06
-6.03447e-08
5.57682e-06
-5.87195e-08
5.57906e-06
-5.52357e-08
5.57961e-06
-5.14831e-08
5.57886e-06
-4.79107e-08
5.57707e-06
-4.45191e-08
5.57447e-06
-4.13315e-08
5.57125e-06
-3.83885e-08
5.56756e-06
-3.5698e-08
5.56352e-06
-3.32542e-08
5.55922e-06
-3.10487e-08
5.55476e-06
-2.90705e-08
5.55023e-06
-2.73199e-08
-2.57435e-08
5.54569e-06
4.86019e-06
-2.36306e-08
4.86538e-06
-5.36922e-08
4.86523e-06
-5.54553e-08
4.86217e-06
-5.54909e-08
4.85699e-06
-5.51711e-08
4.84949e-06
-5.12151e-08
4.83979e-06
-4.55405e-08
4.8284e-06
-4.00873e-08
4.81582e-06
-3.53301e-08
4.80254e-06
-3.12372e-08
4.78893e-06
-2.77294e-08
4.77529e-06
-2.47469e-08
4.7618e-06
-2.22096e-08
4.7486e-06
-2.00519e-08
4.73577e-06
-1.8218e-08
4.72338e-06
-1.66843e-08
4.71155e-06
-1.54871e-08
-1.51374e-08
4.70095e-06
4.17905e-06
4.12535e-06
4.0699e-06
4.01441e-06
3.95924e-06
3.90802e-06
3.86248e-06
3.82239e-06
3.78706e-06
3.75583e-06
3.7281e-06
3.70335e-06
3.68114e-06
3.66109e-06
3.64287e-06
3.62619e-06
3.6107e-06
3.59556e-06
1.21237e-08
-1.21326e-08
2.54476e-08
-1.33377e-08
3.42098e-08
-8.77302e-09
3.71588e-08
-2.96014e-09
3.44828e-08
2.66728e-09
2.70623e-08
7.41018e-09
1.60041e-08
1.10514e-08
2.29519e-09
1.36996e-08
-1.33405e-08
1.56309e-08
-3.04546e-08
1.71069e-08
-4.87504e-08
1.8293e-08
-6.80714e-08
1.93161e-08
-8.83266e-08
2.02536e-08
-1.09473e-07
2.11441e-08
-1.31478e-07
2.20042e-08
-1.54317e-07
2.28389e-08
-1.77964e-07
2.36474e-08
-2.0239e-07
2.44269e-08
-2.27563e-07
2.51739e-08
-2.53447e-07
2.5886e-08
-2.8001e-07
2.65629e-08
-3.07218e-07
2.72081e-08
-3.35048e-07
2.78301e-08
-3.63494e-07
2.84462e-08
-3.92579e-07
2.90849e-08
-4.22352e-07
2.97751e-08
-4.528e-07
3.04494e-08
-4.83736e-07
3.09425e-08
-5.15219e-07
3.14863e-08
-5.4711e-07
3.19011e-08
-5.78773e-07
3.16667e-08
-6.10469e-07
3.17076e-08
-6.43836e-07
3.33688e-08
-6.79664e-07
3.58369e-08
-7.18036e-07
3.83684e-08
-7.60556e-07
4.25242e-08
-8.0985e-07
4.92844e-08
-8.4918e-07
3.93275e-08
-8.89881e-07
4.06891e-08
-9.34705e-07
4.48147e-08
-9.70433e-07
3.57145e-08
-1.01011e-06
3.96663e-08
-1.05214e-06
4.20151e-08
-1.09491e-06
4.27629e-08
-1.13818e-06
4.32608e-08
-1.18171e-06
4.35242e-08
-1.22534e-06
4.36219e-08
-1.26895e-06
4.3604e-08
-1.31247e-06
4.35142e-08
-1.35585e-06
4.33748e-08
-1.39906e-06
4.32003e-08
-1.44207e-06
4.29994e-08
-1.48485e-06
4.27773e-08
-1.5274e-06
4.25366e-08
-1.56969e-06
4.22786e-08
-1.6117e-06
4.2003e-08
-1.65342e-06
4.17095e-08
-1.69482e-06
4.13963e-08
-1.73589e-06
4.10621e-08
-1.77661e-06
4.07048e-08
-1.81693e-06
4.03227e-08
-1.85686e-06
3.99135e-08
-1.89634e-06
3.94755e-08
-1.93535e-06
3.90063e-08
-1.97386e-06
3.85044e-08
-2.01183e-06
3.79675e-08
-2.04923e-06
3.73945e-08
-2.08602e-06
3.67834e-08
-2.12215e-06
3.61335e-08
-2.1576e-06
3.54429e-08
-2.19232e-06
3.47113e-08
-2.22626e-06
3.39372e-08
-2.25938e-06
3.31204e-08
-2.29165e-06
3.22599e-08
-2.323e-06
3.13556e-08
-2.35342e-06
3.04069e-08
-2.38284e-06
2.94143e-08
-2.41122e-06
2.83774e-08
-2.43852e-06
2.72969e-08
-2.4647e-06
2.61725e-08
-2.48971e-06
2.50049e-08
-2.51351e-06
2.3794e-08
-2.53605e-06
2.25406e-08
-2.5573e-06
2.12445e-08
-2.57721e-06
1.99066e-08
-2.59574e-06
1.85267e-08
-2.61285e-06
1.71053e-08
-2.62849e-06
1.56408e-08
-2.64262e-06
1.41314e-08
-2.6552e-06
1.25725e-08
-2.66616e-06
1.0959e-08
-2.67545e-06
9.28372e-09
-2.683e-06
7.53838e-09
-2.68872e-06
5.7107e-09
-2.69251e-06
3.78602e-09
-2.69429e-06
1.76972e-09
-2.69406e-06
-2.42389e-10
-2.69201e-06
-2.06113e-09
-2.68832e-06
-3.69976e-09
-2.68304e-06
-5.29824e-09
-2.67616e-06
-6.88315e-09
-2.6677e-06
-8.46716e-09
-2.65766e-06
-1.00512e-08
-2.64603e-06
-1.16348e-08
-2.63282e-06
-1.32161e-08
-2.61803e-06
-1.47928e-08
-2.60166e-06
-1.6363e-08
-2.58374e-06
-1.7924e-08
-2.56427e-06
-1.94741e-08
-2.54326e-06
-2.10105e-08
-2.52072e-06
-2.25317e-08
-2.49669e-06
-2.40348e-08
-2.47117e-06
-2.55184e-08
-2.4442e-06
-2.69801e-08
-2.41578e-06
-2.84189e-08
-2.38596e-06
-2.98323e-08
-2.35474e-06
-3.12188e-08
-2.32218e-06
-3.25759e-08
-2.28828e-06
-3.39028e-08
-2.2531e-06
-3.51984e-08
-2.21665e-06
-3.64623e-08
-2.17897e-06
-3.76932e-08
-2.1401e-06
-3.88893e-08
-2.10007e-06
-4.0049e-08
-2.05893e-06
-4.11711e-08
-2.0167e-06
-4.22562e-08
-1.97342e-06
-4.33049e-08
-1.92913e-06
-4.43187e-08
-1.88386e-06
-4.52973e-08
-1.83765e-06
-4.624e-08
-1.79053e-06
-4.71461e-08
-1.74254e-06
-4.8013e-08
-1.69373e-06
-4.88319e-08
-1.64413e-06
-4.96147e-08
-1.59377e-06
-5.036e-08
-1.54269e-06
-5.10716e-08
-1.49093e-06
-5.17428e-08
-1.43851e-06
-5.2378e-08
-1.38548e-06
-5.29733e-08
-1.33186e-06
-5.35354e-08
-1.27771e-06
-5.40658e-08
-1.22304e-06
-5.45685e-08
-1.1679e-06
-5.5045e-08
-1.1123e-06
-5.54956e-08
-1.05627e-06
-5.59204e-08
-9.99842e-07
-5.63196e-08
-9.43039e-07
-5.66947e-08
-8.85881e-07
-5.70465e-08
-8.28394e-07
-5.73771e-08
-7.70595e-07
-5.7687e-08
-7.12505e-07
-5.79786e-08
-6.54139e-07
-5.82528e-08
-5.95515e-07
-5.85116e-08
-5.36645e-07
-5.8756e-08
-4.77545e-07
-5.89885e-08
-4.18222e-07
-5.92099e-08
-3.58688e-07
-5.94249e-08
-2.98948e-07
-5.96317e-08
-2.3901e-07
-5.9834e-08
-1.78875e-07
-6.00318e-08
-1.18571e-07
-6.02082e-08
-5.81519e-08
-6.03268e-08
2.27112e-09
-6.03384e-08
6.28178e-08
-6.04688e-08
1.23602e-07
-6.07171e-08
1.84551e-07
-6.08897e-08
2.45667e-07
-6.10669e-08
3.06946e-07
-6.12375e-08
3.68363e-07
-6.13841e-08
4.29868e-07
-6.14794e-08
4.91385e-07
-6.14981e-08
5.52797e-07
-6.14008e-08
6.13935e-07
-6.11345e-08
6.7454e-07
-6.06075e-08
7.34192e-07
-5.96624e-08
7.9215e-07
-5.79744e-08
8.46914e-07
-5.4787e-08
8.95101e-07
-4.82128e-08
9.27536e-07
-3.24583e-08
1.70127e-08
9.10513e-07
8.67496e-09
-2.08145e-08
1.06315e-08
-1.5303e-08
7.88667e-09
-6.03405e-09
1.9571e-09
2.96406e-09
-6.55751e-09
1.11777e-08
-1.75152e-08
1.83633e-08
-3.0861e-08
2.43938e-08
-4.64619e-08
2.92966e-08
-6.40664e-08
3.32328e-08
-8.33886e-08
3.6426e-08
-1.04191e-07
3.90936e-08
-1.26291e-07
4.14135e-08
-1.49552e-07
4.3514e-08
-1.73888e-07
4.54786e-08
-1.99242e-07
4.73576e-08
-2.25583e-07
4.91799e-08
-2.52897e-07
5.0961e-08
-2.81178e-07
5.27094e-08
-3.10434e-07
5.44307e-08
-3.40677e-07
5.61291e-08
-3.71923e-07
5.78098e-08
-4.04194e-07
5.94788e-08
-4.37509e-07
6.11452e-08
-4.71886e-07
6.28225e-08
-5.0733e-07
6.45288e-08
-5.43832e-07
6.62768e-08
-5.81417e-07
6.80351e-08
-6.20228e-07
6.97575e-08
-6.60225e-07
7.14856e-08
-7.0152e-07
7.32021e-08
-7.44681e-07
7.48318e-08
-7.89576e-07
7.66101e-08
-8.35113e-07
7.89076e-08
-8.80977e-07
8.17061e-08
-9.2708e-07
8.44706e-08
-9.71518e-07
8.69624e-08
-1.01083e-06
8.85877e-08
-1.05818e-06
8.66752e-08
-1.10316e-06
8.56701e-08
-1.1444e-06
8.60458e-08
-1.19249e-06
8.37982e-08
-1.23657e-06
8.3736e-08
-1.27853e-06
8.39709e-08
-1.31972e-06
8.39473e-08
-1.36025e-06
8.37788e-08
-1.40025e-06
8.35191e-08
-1.43981e-06
8.31809e-08
-1.47899e-06
8.2777e-08
-1.5178e-06
8.23217e-08
-1.55625e-06
8.1826e-08
-1.59436e-06
8.12971e-08
-1.6321e-06
8.07394e-08
-1.66948e-06
8.01546e-08
-1.70649e-06
7.95428e-08
-1.74312e-06
7.89026e-08
-1.77936e-06
7.8232e-08
-1.81518e-06
7.75278e-08
-1.85058e-06
7.67869e-08
-1.88553e-06
7.60056e-08
-1.92001e-06
7.51802e-08
-1.954e-06
7.4307e-08
-1.98747e-06
7.33824e-08
-2.0204e-06
7.24027e-08
-2.05276e-06
7.13645e-08
-2.08453e-06
7.02648e-08
-2.11566e-06
6.91005e-08
-2.14614e-06
6.7869e-08
-2.17593e-06
6.65679e-08
-2.20499e-06
6.51951e-08
-2.2333e-06
6.37489e-08
-2.26082e-06
6.22275e-08
-2.28751e-06
6.06297e-08
-2.31335e-06
5.89547e-08
-2.3383e-06
5.72013e-08
-2.36231e-06
5.53694e-08
-2.38537e-06
5.34586e-08
-2.40742e-06
5.14692e-08
-2.42845e-06
4.94012e-08
-2.44841e-06
4.72554e-08
-2.46728e-06
4.5032e-08
-2.48501e-06
4.27321e-08
-2.50157e-06
4.03564e-08
-2.51694e-06
3.79061e-08
-2.53108e-06
3.5382e-08
-2.54396e-06
3.27856e-08
-2.55555e-06
3.01179e-08
-2.56583e-06
2.73801e-08
-2.57476e-06
2.4573e-08
-2.58233e-06
2.16972e-08
-2.58851e-06
1.87533e-08
-2.5933e-06
1.5742e-08
-2.59668e-06
1.2666e-08
-2.59868e-06
9.53073e-09
-2.59932e-06
6.34549e-09
-2.59868e-06
3.13037e-09
-2.59684e-06
-7.46917e-11
-2.59386e-06
-3.22527e-09
-2.58959e-06
-6.33751e-09
-2.58385e-06
-9.45209e-09
-2.57658e-06
-1.25736e-08
-2.56777e-06
-1.57008e-08
-2.55741e-06
-1.88342e-08
-2.54549e-06
-2.19709e-08
-2.53202e-06
-2.51074e-08
-2.517e-06
-2.82396e-08
-2.50043e-06
-3.1363e-08
-2.48232e-06
-3.44731e-08
-2.46268e-06
-3.75653e-08
-2.44152e-06
-4.06353e-08
-2.41885e-06
-4.36785e-08
-2.39469e-06
-4.66907e-08
-2.36906e-06
-4.96677e-08
-2.34197e-06
-5.26057e-08
-2.31345e-06
-5.55007e-08
-2.28353e-06
-5.83494e-08
-2.25221e-06
-6.11483e-08
-2.21954e-06
-6.38938e-08
-2.18554e-06
-6.65824e-08
-2.15024e-06
-6.92117e-08
-2.11366e-06
-7.17795e-08
-2.07585e-06
-7.42845e-08
-2.03683e-06
-7.67238e-08
-1.99664e-06
-7.90951e-08
-1.9553e-06
-8.13952e-08
-1.91287e-06
-8.36228e-08
-1.86936e-06
-8.57772e-08
-1.82482e-06
-8.78599e-08
-1.77929e-06
-8.98724e-08
-1.73278e-06
-9.18158e-08
-1.68535e-06
-9.36908e-08
-1.63702e-06
-9.54958e-08
-1.58782e-06
-9.72194e-08
-1.53781e-06
-9.88582e-08
-1.48701e-06
-1.00424e-07
-1.43545e-06
-1.01918e-07
-1.38318e-06
-1.03341e-07
-1.33022e-06
-1.0469e-07
-1.2766e-06
-1.05967e-07
-1.22237e-06
-1.07172e-07
-1.16755e-06
-1.08311e-07
-1.11217e-06
-1.09389e-07
-1.05628e-06
-1.1041e-07
-9.99889e-07
-1.1138e-07
-9.4303e-07
-1.12297e-07
-8.85729e-07
-1.13166e-07
-8.28007e-07
-1.13983e-07
-7.69888e-07
-1.14756e-07
-7.11393e-07
-1.15483e-07
-6.52542e-07
-1.1617e-07
-5.93353e-07
-1.16817e-07
-5.33844e-07
-1.1743e-07
-4.74027e-07
-1.1801e-07
-4.13918e-07
-1.18563e-07
-3.53525e-07
-1.1909e-07
-2.9286e-07
-1.19597e-07
-2.31929e-07
-1.20085e-07
-1.70738e-07
-1.20561e-07
-1.09294e-07
-1.21022e-07
-4.76092e-08
-1.21468e-07
1.43057e-08
-1.21898e-07
7.64569e-08
-1.22315e-07
1.3887e-07
-1.22699e-07
2.01598e-07
-1.23029e-07
2.64526e-07
-1.23364e-07
3.27546e-07
-1.23708e-07
3.90696e-07
-1.24014e-07
4.53957e-07
-1.24306e-07
5.17298e-07
-1.24562e-07
5.80677e-07
-1.24749e-07
6.4403e-07
-1.24824e-07
7.0727e-07
-1.24733e-07
7.70277e-07
-1.24408e-07
8.32877e-07
-1.23737e-07
8.94812e-07
-1.22552e-07
9.55675e-07
-1.20538e-07
1.0148e-06
-1.17116e-07
1.07095e-06
-1.10958e-07
1.1222e-06
-9.94854e-08
1.16482e-06
-7.51043e-08
-1.74255e-08
1.19924e-06
-9.36195e-10
-1.9883e-08
-8.09022e-09
-8.1542e-09
-1.7762e-08
3.63441e-09
-2.90359e-08
1.42351e-08
-4.16337e-08
2.37732e-08
-5.55543e-08
3.22815e-08
-7.09066e-08
3.97443e-08
-8.77939e-08
4.61817e-08
-1.06247e-07
5.16848e-08
-1.26225e-07
5.64018e-08
-1.47637e-07
6.05042e-08
-1.70379e-07
6.41544e-08
-1.94354e-07
6.74882e-08
-2.19485e-07
7.06085e-08
-2.45716e-07
7.35885e-08
-2.73014e-07
7.64775e-08
-3.01361e-07
7.93082e-08
-3.30752e-07
8.21019e-08
-3.61194e-07
8.48732e-08
-3.92696e-07
8.76319e-08
-4.25271e-07
9.03847e-08
-4.58928e-07
9.31357e-08
-4.9367e-07
9.58864e-08
-5.29484e-07
9.86357e-08
-5.66331e-07
1.01375e-07
-6.04137e-07
1.04082e-07
-6.42824e-07
1.06721e-07
-6.82318e-07
1.09254e-07
-7.22484e-07
1.11652e-07
-7.63162e-07
1.13885e-07
-8.04268e-07
1.1594e-07
-8.45568e-07
1.17915e-07
-8.86539e-07
1.1988e-07
-9.26643e-07
1.21813e-07
-9.65718e-07
1.23546e-07
-1.00348e-06
1.24726e-07
-1.04004e-06
1.25148e-07
-1.0779e-06
1.24523e-07
-1.11583e-06
1.23598e-07
-1.15271e-06
1.22927e-07
-1.19075e-06
1.21831e-07
-1.2281e-06
1.21086e-07
-1.26463e-06
1.20491e-07
-1.30058e-06
1.19894e-07
-1.33609e-06
1.19286e-07
-1.37123e-06
1.18655e-07
-1.40605e-06
1.17995e-07
-1.44058e-06
1.17303e-07
-1.47484e-06
1.1658e-07
-1.50884e-06
1.15826e-07
-1.54259e-06
1.15042e-07
-1.57608e-06
1.14226e-07
-1.60931e-06
1.13377e-07
-1.64226e-06
1.12491e-07
-1.67492e-06
1.11564e-07
-1.70729e-06
1.10593e-07
-1.73933e-06
1.09571e-07
-1.77104e-06
1.08493e-07
-1.8024e-06
1.07356e-07
-1.83337e-06
1.06152e-07
-1.86394e-06
1.04877e-07
-1.89409e-06
1.03526e-07
-1.92379e-06
1.02094e-07
-1.953e-06
1.00575e-07
-1.9817e-06
9.89671e-08
-2.00987e-06
9.72645e-08
-2.03747e-06
9.5464e-08
-2.06447e-06
9.35625e-08
-2.09083e-06
9.15569e-08
-2.11653e-06
8.94448e-08
-2.14153e-06
8.7224e-08
-2.16579e-06
8.48928e-08
-2.18929e-06
8.24498e-08
-2.21198e-06
7.98939e-08
-2.23384e-06
7.72245e-08
-2.25482e-06
7.44414e-08
-2.2749e-06
7.15446e-08
-2.29403e-06
6.85348e-08
-2.31219e-06
6.54125e-08
-2.32934e-06
6.21788e-08
-2.34545e-06
5.8835e-08
-2.36048e-06
5.53827e-08
-2.37439e-06
5.18238e-08
-2.38717e-06
4.81604e-08
-2.39879e-06
4.4395e-08
-2.4092e-06
4.05301e-08
-2.41839e-06
3.65687e-08
-2.42633e-06
3.25141e-08
-2.433e-06
2.83701e-08
-2.43839e-06
2.4141e-08
-2.44249e-06
1.98329e-08
-2.44528e-06
1.54539e-08
-2.44677e-06
1.10146e-08
-2.44695e-06
6.52962e-09
-2.44585e-06
2.01751e-09
-2.44343e-06
-2.50025e-09
-2.43964e-06
-7.01658e-09
-2.43443e-06
-1.15513e-08
-2.42777e-06
-1.61196e-08
-2.41963e-06
-2.07151e-08
-2.41e-06
-2.53312e-08
-2.39888e-06
-2.99613e-08
-2.38625e-06
-3.45991e-08
-2.37212e-06
-3.92377e-08
-2.35649e-06
-4.38705e-08
-2.33937e-06
-4.84908e-08
-2.32075e-06
-5.30914e-08
-2.30065e-06
-5.7666e-08
-2.27907e-06
-6.22075e-08
-2.25604e-06
-6.67097e-08
-2.23157e-06
-7.1166e-08
-2.20566e-06
-7.55706e-08
-2.17835e-06
-7.99172e-08
-2.14965e-06
-8.42007e-08
-2.11959e-06
-8.84156e-08
-2.08818e-06
-9.25571e-08
-2.05546e-06
-9.662e-08
-2.02145e-06
-1.006e-07
-1.98617e-06
-1.04493e-07
-1.94966e-06
-1.08295e-07
-1.91194e-06
-1.12005e-07
-1.87306e-06
-1.15618e-07
-1.83303e-06
-1.19131e-07
-1.79189e-06
-1.22541e-07
-1.74968e-06
-1.25845e-07
-1.70643e-06
-1.29042e-07
-1.66216e-06
-1.32134e-07
-1.61693e-06
-1.35122e-07
-1.57075e-06
-1.38008e-07
-1.52366e-06
-1.40793e-07
-1.47569e-06
-1.43474e-07
-1.42688e-06
-1.46039e-07
-1.37726e-06
-1.48488e-07
-1.32686e-06
-1.50827e-07
-1.27572e-06
-1.53061e-07
-1.22387e-06
-1.55189e-07
-1.17134e-06
-1.57211e-07
-1.11816e-06
-1.59128e-07
-1.06437e-06
-1.60944e-07
-1.00999e-06
-1.62663e-07
-9.5505e-07
-1.64294e-07
-8.9959e-07
-1.65842e-07
-8.4363e-07
-1.67311e-07
-7.87197e-07
-1.68704e-07
-7.30312e-07
-1.70023e-07
-6.72999e-07
-1.71271e-07
-6.15278e-07
-1.7245e-07
-5.57172e-07
-1.73565e-07
-4.98697e-07
-1.7462e-07
-4.39873e-07
-1.75619e-07
-3.80713e-07
-1.76566e-07
-3.21234e-07
-1.77468e-07
-2.61446e-07
-1.78329e-07
-2.01362e-07
-1.79153e-07
-1.4099e-07
-1.79948e-07
-8.03388e-08
-1.80716e-07
-1.94176e-08
-1.81463e-07
4.17657e-08
-1.82188e-07
1.03208e-07
-1.82893e-07
1.64905e-07
-1.83581e-07
2.26851e-07
-1.84246e-07
2.89043e-07
-1.84877e-07
3.51489e-07
-1.85463e-07
4.1415e-07
-1.86015e-07
4.76973e-07
-1.8652e-07
5.39934e-07
-1.86966e-07
6.02991e-07
-1.87354e-07
6.66097e-07
-1.87661e-07
7.29197e-07
-1.87842e-07
7.9222e-07
-1.8784e-07
8.55074e-07
-1.87581e-07
9.17637e-07
-1.86965e-07
9.79738e-07
-1.85834e-07
1.04114e-06
-1.83946e-07
1.10147e-06
-1.8087e-07
1.16019e-06
-1.75835e-07
1.21649e-06
-1.67254e-07
1.26926e-06
-1.52255e-07
1.31798e-06
-1.23824e-07
-6.7162e-08
1.36772e-06
-9.17811e-09
-1.07083e-08
-2.22826e-08
4.94678e-09
-3.65798e-08
1.79296e-08
-5.15918e-08
2.92453e-08
-6.72594e-08
3.94393e-08
-8.3664e-08
4.86846e-08
-1.00948e-07
5.70273e-08
-1.19262e-07
6.44939e-08
-1.38718e-07
7.11403e-08
-1.59378e-07
7.70611e-08
-1.81251e-07
8.23765e-08
-2.04312e-07
8.72139e-08
-2.28515e-07
9.16912e-08
-2.53814e-07
9.59075e-08
-2.80166e-07
9.99405e-08
-3.07536e-07
1.03847e-07
-3.35896e-07
1.07668e-07
-3.65222e-07
1.11429e-07
-3.95496e-07
1.15147e-07
-4.26692e-07
1.18829e-07
-4.58783e-07
1.22475e-07
-4.91726e-07
1.26079e-07
-5.25465e-07
1.29624e-07
-5.59918e-07
1.33087e-07
-5.94979e-07
1.36435e-07
-6.30521e-07
1.39622e-07
-6.66402e-07
1.42602e-07
-7.02479e-07
1.45332e-07
-7.38605e-07
1.47778e-07
-7.74636e-07
1.49919e-07
-8.10456e-07
1.51762e-07
-8.45901e-07
1.53363e-07
-8.80793e-07
1.54773e-07
-9.1497e-07
1.55993e-07
-9.48368e-07
1.56942e-07
-9.81122e-07
1.57481e-07
-1.01351e-06
1.57534e-07
-1.04607e-06
1.57079e-07
-1.07877e-06
1.56299e-07
-1.11128e-06
1.5543e-07
-1.1439e-06
1.54449e-07
-1.17634e-06
1.53526e-07
-1.20852e-06
1.52661e-07
-1.24044e-06
1.51816e-07
-1.27214e-06
1.50979e-07
-1.30362e-06
1.50138e-07
-1.33491e-06
1.49283e-07
-1.36602e-06
1.48409e-07
-1.39695e-06
1.47509e-07
-1.42771e-06
1.46581e-07
-1.45829e-06
1.4562e-07
-1.48869e-06
1.4462e-07
-1.51889e-06
1.43577e-07
-1.54888e-06
1.42486e-07
-1.57866e-06
1.41339e-07
-1.6082e-06
1.40131e-07
-1.63749e-06
1.38855e-07
-1.6665e-06
1.37504e-07
-1.69522e-06
1.3607e-07
-1.72362e-06
1.34548e-07
-1.75168e-06
1.32931e-07
-1.77936e-06
1.31212e-07
-1.80666e-06
1.29385e-07
-1.83353e-06
1.27444e-07
-1.85995e-06
1.25383e-07
-1.88588e-06
1.23199e-07
-1.91131e-06
1.20886e-07
-1.93619e-06
1.18439e-07
-1.96049e-06
1.15857e-07
-1.98418e-06
1.13134e-07
-2.00723e-06
1.1027e-07
-2.0296e-06
1.0726e-07
-2.05125e-06
1.04105e-07
-2.07216e-06
1.00801e-07
-2.09229e-06
9.73498e-08
-2.1116e-06
9.37497e-08
-2.13005e-06
9.00012e-08
-2.14763e-06
8.6105e-08
-2.16428e-06
8.20621e-08
-2.17997e-06
7.7874e-08
-2.19468e-06
7.35427e-08
-2.20837e-06
6.90704e-08
-2.22101e-06
6.446e-08
-2.23256e-06
5.97146e-08
-2.24301e-06
5.48379e-08
-2.25231e-06
4.98341e-08
-2.26045e-06
4.47078e-08
-2.2674e-06
3.94645e-08
-2.27314e-06
3.41099e-08
-2.27766e-06
2.86515e-08
-2.28092e-06
2.30972e-08
-2.28293e-06
1.74573e-08
-2.28366e-06
1.17435e-08
-2.2831e-06
5.96911e-09
-2.28124e-06
1.47669e-10
-2.27803e-06
-5.70972e-09
-2.27345e-06
-1.1602e-08
-2.26747e-06
-1.75379e-08
-2.26007e-06
-2.35211e-08
-2.25124e-06
-2.95441e-08
-2.24098e-06
-3.55974e-08
-2.22927e-06
-4.16715e-08
-2.21611e-06
-4.7757e-08
-2.20151e-06
-5.38447e-08
-2.18545e-06
-5.99252e-08
-2.16795e-06
-6.59896e-08
-2.14901e-06
-7.20287e-08
-2.12865e-06
-7.80336e-08
-2.10686e-06
-8.39954e-08
-2.08366e-06
-8.99057e-08
-2.05907e-06
-9.57559e-08
-2.0331e-06
-1.01538e-07
-2.00578e-06
-1.07245e-07
-1.97711e-06
-1.12869e-07
-1.94712e-06
-1.18403e-07
-1.91584e-06
-1.2384e-07
-1.88329e-06
-1.29176e-07