/*--------------------------------*- C++ -*----------------------------------*\
  =========                 |
  \\      /  F ield         | OpenFOAM: The Open Source CFD Toolbox
   \\    /   O peration     | Website:  https://openfoam.org
    \\  /    A nd           | Version:  8
     \\/     M anipulation  |
\*---------------------------------------------------------------------------*/
FoamFile
{
    version     2.0;
    format      ascii;
    class       volVectorField;
    location    "245";
    object      U;
}
// * * * * * * * * * * * * * * * * * * * * * * * * * * * * * * * * * * * * * //

dimensions      [0 1 -1 0 0 0 0];

internalField   nonuniform List<vector> 
12225
(
(9.85699 -0.88664 0)
(9.6663 -0.740716 0)
(9.45579 -0.429421 0)
(9.22453 -0.222145 0)
(9.00652 -0.106398 0)
(8.81442 -0.0458161 0)
(8.64756 -0.0151268 0)
(8.50538 0.000488945 0)
(8.38375 0.00841636 0)
(8.28101 0.012304 0)
(8.19266 0.0140052 0)
(8.11652 0.0150097 0)
(8.04986 0.015377 0)
(7.99094 0.0155384 0)
(7.93787 0.0156884 0)
(7.89179 0.0153765 0)
(7.83825 0.0182191 0)
(7.82923 0.010846 0)
(10.0545 0.22771 0)
(10.1213 0.326964 0)
(10.1196 0.261653 0)
(10.0856 0.186592 0)
(10.0434 0.134697 0)
(9.99675 0.101133 0)
(9.94403 0.0792952 0)
(9.88531 0.0645707 0)
(9.82396 0.0542593 0)
(9.76147 0.0466665 0)
(9.70003 0.0408949 0)
(9.64025 0.036336 0)
(9.58299 0.0326708 0)
(9.52868 0.02979 0)
(9.47693 0.02726 0)
(9.4294 0.026277 0)
(9.38204 0.0229288 0)
(9.34707 0.0318546 0)
(10.0035 0.0581553 0)
(10.0305 0.0559514 0)
(10.056 0.0337763 0)
(10.0703 0.0328891 0)
(10.077 0.0406372 0)
(10.0779 0.0465347 0)
(10.0726 0.0493482 0)
(10.0614 0.0502918 0)
(10.0462 0.0501869 0)
(10.0278 0.0494702 0)
(10.0073 0.0484216 0)
(9.98515 0.0472506 0)
(9.96206 0.046054 0)
(9.93848 0.0449664 0)
(9.91465 0.0438878 0)
(9.89133 0.0434058 0)
(9.86816 0.0424499 0)
(9.84642 0.0441783 0)
(9.99772 0.0109491 0)
(10.0111 0.026621 0)
(10.035 0.037124 0)
(10.0525 0.0480678 0)
(10.0644 0.0554375 0)
(10.0734 0.0581703 0)
(10.0795 0.0583393 0)
(10.0824 0.0575958 0)
(10.0829 0.0565442 0)
(10.0813 0.0553449 0)
(10.0783 0.0540674 0)
(10.074 0.0528308 0)
(10.0686 0.0516284 0)
(10.0625 0.0505619 0)
(10.0558 0.0495341 0)
(10.049 0.0489079 0)
(10.042 0.0480968 0)
(10.035 0.0481643 0)
(9.99935 0.00710053 0)
(10.009 0.0316965 0)
(10.0275 0.0439097 0)
(10.0418 0.0499109 0)
(10.0528 0.0536002 0)
(10.0629 0.0552234 0)
(10.0716 0.0555012 0)
(10.0784 0.0552088 0)
(10.0835 0.0546617 0)
(10.0874 0.0539531 0)
(10.0902 0.0531375 0)
(10.0921 0.0523098 0)
(10.0933 0.0514846 0)
(10.094 0.0507344 0)
(10.0942 0.0500141 0)
(10.0942 0.0495017 0)
(10.0941 0.048911 0)
(10.094 0.0485386 0)
(10.0003 0.00914956 0)
(10.0083 0.0312127 0)
(10.0227 0.0409469 0)
(10.035 0.0453884 0)
(10.0451 0.0490297 0)
(10.0548 0.051361 0)
(10.0638 0.052338 0)
(10.0715 0.0525668 0)
(10.0779 0.0524273 0)
(10.0835 0.0520575 0)
(10.0884 0.051533 0)
(10.0926 0.0509414 0)
(10.0963 0.0503173 0)
(10.0995 0.049712 0)
(10.1024 0.0491105 0)
(10.1051 0.0485866 0)
(10.1078 0.0480016 0)
(10.1104 0.0473534 0)
(10.0004 0.00892394 0)
(10.0071 0.0271132 0)
(10.0191 0.0364178 0)
(10.0302 0.0413893 0)
(10.0396 0.0454066 0)
(10.0487 0.0480664 0)
(10.0573 0.0493297 0)
(10.065 0.0497927 0)
(10.0718 0.0498579 0)
(10.0779 0.0496711 0)
(10.0834 0.0493099 0)
(10.0885 0.048851 0)
(10.0931 0.0483369 0)
(10.0974 0.0478035 0)
(10.1015 0.0472477 0)
(10.1053 0.0466907 0)
(10.1091 0.0460523 0)
(10.1129 0.0452537 0)
(10.0004 0.00790097 0)
(10.006 0.0233898 0)
(10.0161 0.0327389 0)
(10.0263 0.0381 0)
(10.0351 0.0420878 0)
(10.0436 0.0447643 0)
(10.0518 0.0461677 0)
(10.0592 0.0467926 0)
(10.066 0.0470041 0)
(10.0722 0.0469468 0)
(10.078 0.0466991 0)
(10.0833 0.0463303 0)
(10.0883 0.0458854 0)
(10.0931 0.045391 0)
(10.0976 0.0448482 0)
(10.1019 0.0442537 0)
(10.1062 0.0435534 0)
(10.1104 0.0426698 0)
(10.0004 0.00695117 0)
(10.005 0.0204269 0)
(10.0137 0.029454 0)
(10.0229 0.0348574 0)
(10.0312 0.0387014 0)
(10.0392 0.0413555 0)
(10.0469 0.0428786 0)
(10.0541 0.0436418 0)
(10.0607 0.0439686 0)
(10.0668 0.0440088 0)
(10.0726 0.0438431 0)
(10.078 0.0435363 0)
(10.0831 0.0431328 0)
(10.088 0.0426552 0)
(10.0927 0.0421056 0)
(10.0973 0.041473 0)
(10.1017 0.0407174 0)
(10.106 0.0397849 0)
(10.0004 0.0061239 0)
(10.0043 0.0178564 0)
(10.0116 0.0262731 0)
(10.0199 0.0315748 0)
(10.0277 0.0352927 0)
(10.0351 0.0379106 0)
(10.0424 0.0395123 0)
(10.0493 0.0403774 0)
(10.0558 0.0407897 0)
(10.0618 0.0409018 0)
(10.0675 0.0407953 0)
(10.0729 0.0405314 0)
(10.078 0.0401521 0)
(10.0829 0.0396789 0)
(10.0876 0.0391149 0)
(10.0922 0.0384495 0)
(10.0966 0.0376534 0)
(10.1009 0.0366979 0)
(10.0003 0.00536577 0)
(10.0037 0.0155453 0)
(10.0099 0.0232326 0)
(10.0173 0.0283363 0)
(10.0245 0.031912 0)
(10.0315 0.0344527 0)
(10.0384 0.0360787 0)
(10.045 0.0370068 0)
(10.0512 0.0374786 0)
(10.0571 0.037642 0)
(10.0627 0.0375782 0)
(10.068 0.0373439 0)
(10.073 0.0369793 0)
(10.0779 0.0365055 0)
(10.0825 0.0359278 0)
(10.087 0.0352391 0)
(10.0914 0.0344202 0)
(10.0956 0.0334622 0)
(10.0003 0.00470143 0)
(10.0032 0.0136043 0)
(10.0086 0.0205844 0)
(10.0152 0.0254221 0)
(10.0219 0.0288315 0)
(10.0286 0.0312659 0)
(10.0351 0.0328721 0)
(10.0414 0.0338258 0)
(10.0474 0.0343304 0)
(10.0531 0.0345241 0)
(10.0585 0.0344861 0)
(10.0637 0.03427 0)
(10.0687 0.0339136 0)
(10.0735 0.0334384 0)
(10.078 0.0328521 0)
(10.0825 0.0321523 0)
(10.0867 0.0313273 0)
(10.0908 0.0303832 0)
(10.0003 0.00408681 0)
(10.0028 0.011835 0)
(10.0075 0.0180838 0)
(10.0134 0.0225795 0)
(10.0197 0.025788 0)
(10.0259 0.0280909 0)
(10.0321 0.0296447 0)
(10.0381 0.0305969 0)
(10.0439 0.0311159 0)
(10.0494 0.0313266 0)
(10.0547 0.0313048 0)
(10.0598 0.031101 0)
(10.0647 0.030751 0)
(10.0693 0.0302766 0)
(10.0738 0.0296878 0)
(10.0781 0.0289868 0)
(10.0822 0.0281682 0)
(10.0862 0.0272493 0)
(10.0002 0.00345183 0)
(10.0024 0.00999647 0)
(10.0064 0.0154018 0)
(10.0117 0.0194303 0)
(10.0174 0.0223543 0)
(10.0232 0.0244658 0)
(10.029 0.0259165 0)
(10.0347 0.0268296 0)
(10.0403 0.0273382 0)
(10.0456 0.0275494 0)
(10.0508 0.0275331 0)
(10.0557 0.0273359 0)
(10.0604 0.0269911 0)
(10.0649 0.0265204 0)
(10.0693 0.025936 0)
(10.0735 0.0252449 0)
(10.0774 0.0244471 0)
(10.0812 0.0235675 0)
(10.0002 0.00279245 0)
(10.002 0.00808691 0)
(10.0055 0.0125487 0)
(10.0101 0.0159802 0)
(10.0153 0.0185174 0)
(10.0206 0.0203621 0)
(10.026 0.0216457 0)
(10.0314 0.0224681 0)
(10.0367 0.0229299 0)
(10.0418 0.023117 0)
(10.0468 0.0230902 0)
(10.0515 0.0228909 0)
(10.0561 0.0225492 0)
(10.0605 0.0220859 0)
(10.0647 0.0215151 0)
(10.0687 0.0208471 0)
(10.0725 0.0200862 0)
(10.0761 0.0192615 0)
(10.0002 0.00210803 0)
(10.0017 0.00610825 0)
(10.0047 0.00953289 0)
(10.0088 0.0122339 0)
(10.0134 0.0142653 0)
(10.0183 0.0157507 0)
(10.0233 0.0167884 0)
(10.0283 0.0174544 0)
(10.0333 0.0178198 0)
(10.0382 0.0179483 0)
(10.0429 0.0178881 0)
(10.0475 0.0176738 0)
(10.0519 0.0173307 0)
(10.0561 0.016878 0)
(10.0601 0.01633 0)
(10.0639 0.0156984 0)
(10.0676 0.0149899 0)
(10.0711 0.0142347 0)
(10.0002 0.00139564 0)
(10.0015 0.00404646 0)
(10.0041 0.00633828 0)
(10.0076 0.00817464 0)
(10.0118 0.00956981 0)
(10.0163 0.0105876 0)
(10.0209 0.0112885 0)
(10.0256 0.0117214 0)
(10.0303 0.0119309 0)
(10.035 0.0119581 0)
(10.0395 0.011836 0)
(10.0438 0.0115897 0)
(10.048 0.0112383 0)
(10.0521 0.0107974 0)
(10.0559 0.0102793 0)
(10.0596 0.00969515 0)
(10.0631 0.0090518 0)
(10.0664 0.00837714 0)
(10.0001 0.000638928 0)
(10.0013 0.00184978 0)
(10.0036 0.0028928 0)
(10.0069 0.00372254 0)
(10.0107 0.00434044 0)
(10.0148 0.00476843 0)
(10.0192 0.0050294 0)
(10.0237 0.00514322 0)
(10.0281 0.00512921 0)
(10.0325 0.00500568 0)
(10.0368 0.00478824 0)
(10.041 0.00448962 0)
(10.045 0.00412048 0)
(10.0489 0.00369013 0)
(10.0526 0.00320687 0)
(10.0561 0.00267882 0)
(10.0594 0.00211096 0)
(10.0626 0.0015267 0)
(10.0001 -0.000205162 0)
(10.0012 -0.00060364 0)
(10.0034 -0.000976709 0)
(10.0066 -0.00131465 0)
(10.0102 -0.00161589 0)
(10.0143 -0.00189482 0)
(10.0185 -0.00216921 0)
(10.0228 -0.00245117 0)
(10.0271 -0.00274794 0)
(10.0314 -0.00306506 0)
(10.0355 -0.00340667 0)
(10.0396 -0.00377502 0)
(10.0434 -0.00417054 0)
(10.0472 -0.00459239 0)
(10.0507 -0.00503877 0)
(10.0541 -0.00550673 0)
(10.0574 -0.0059949 0)
(10.0605 -0.00648657 0)
(10.0001 -0.00101249 0)
(10.0013 -0.00295747 0)
(10.0037 -0.00469583 0)
(10.007 -0.00614674 0)
(10.0108 -0.00730611 0)
(10.015 -0.00823407 0)
(10.0193 -0.00899193 0)
(10.0237 -0.00962164 0)
(10.028 -0.0101574 0)
(10.0323 -0.0106306 0)
(10.0364 -0.0110659 0)
(10.0404 -0.0114797 0)
(10.0443 -0.011883 0)
(10.048 -0.0122831 0)
(10.0515 -0.0126847 0)
(10.0548 -0.01309 0)
(10.058 -0.013501 0)
(10.061 -0.0139071 0)
(10.0002 -0.00170861 0)
(10.0015 -0.00501295 0)
(10.0041 -0.00794605 0)
(10.0078 -0.0103042 0)
(10.012 -0.0121082 0)
(10.0164 -0.0135082 0)
(10.021 -0.0146103 0)
(10.0255 -0.0154716 0)
(10.03 -0.0161487 0)
(10.0344 -0.0167 0)
(10.0386 -0.0171699 0)
(10.0426 -0.0175869 0)
(10.0464 -0.0179699 0)
(10.0501 -0.0183326 0)
(10.0536 -0.018684 0)
(10.0569 -0.0190296 0)
(10.0601 -0.0193735 0)
(10.0631 -0.0197087 0)
(10.0002 -0.00236958 0)
(10.0016 -0.00704387 0)
(10.0047 -0.0111941 0)
(10.009 -0.0143702 0)
(10.0137 -0.0166724 0)
(10.0185 -0.0184116 0)
(10.0234 -0.0197477 0)
(10.0282 -0.0207517 0)
(10.0328 -0.0215048 0)
(10.0373 -0.022088 0)
(10.0416 -0.0225577 0)
(10.0457 -0.0229505 0)
(10.0496 -0.0232926 0)
(10.0533 -0.0236035 0)
(10.0568 -0.023896 0)
(10.0601 -0.024178 0)
(10.0632 -0.0244545 0)
(10.0662 -0.0247215 0)
(10.0002 -0.00298777 0)
(10.0018 -0.00910097 0)
(10.0054 -0.0144657 0)
(10.0105 -0.018361 0)
(10.0159 -0.0211099 0)
(10.0211 -0.0231367 0)
(10.0263 -0.0245966 0)
(10.0314 -0.0256148 0)
(10.0363 -0.0263455 0)
(10.0409 -0.0268983 0)
(10.0453 -0.0273297 0)
(10.0494 -0.0276753 0)
(10.0534 -0.0279642 0)
(10.0571 -0.0282187 0)
(10.0606 -0.028453 0)
(10.0639 -0.0286754 0)
(10.0671 -0.0288913 0)
(10.07 -0.0290983 0)
(10.0001 -0.00353115 0)
(10.0018 -0.0115573 0)
(10.0062 -0.0179031 0)
(10.0123 -0.0220052 0)
(10.0183 -0.0250752 0)
(10.024 -0.027488 0)
(10.0296 -0.0291295 0)
(10.035 -0.0301429 0)
(10.0401 -0.0307985 0)
(10.0449 -0.0312609 0)
(10.0494 -0.0315977 0)
(10.0536 -0.0318494 0)
(10.0576 -0.0320498 0)
(10.0613 -0.0322225 0)
(10.0649 -0.0323812 0)
(10.0682 -0.032533 0)
(10.0713 -0.0326815 0)
(10.0742 -0.0328233 0)
(9.99991 -0.00337471 0)
(10.0016 -0.0149888 0)
(10.0073 -0.0227449 0)
(10.0142 -0.0262565 0)
(10.0206 -0.028844 0)
(10.0268 -0.0312115 0)
(10.0331 -0.0329352 0)
(10.039 -0.034026 0)
(10.0444 -0.0347283 0)
(10.0494 -0.0351944 0)
(10.054 -0.0354946 0)
(10.0583 -0.035683 0)
(10.0623 -0.0358057 0)
(10.066 -0.0358935 0)
(10.0694 -0.0359644 0)
(10.0726 -0.0360284 0)
(10.0755 -0.0360902 0)
(10.0782 -0.0361483 0)
(9.99859 -0.000381763 0)
(9.99903 -0.0157991 0)
(10.0076 -0.0274412 0)
(10.0166 -0.0324996 0)
(10.0238 -0.0348773 0)
(10.0306 -0.0362352 0)
(10.0376 -0.0369894 0)
(10.0441 -0.037459 0)
(10.0498 -0.0378102 0)
(10.055 -0.0380594 0)
(10.0595 -0.0382062 0)
(10.0636 -0.0382756 0)
(10.0671 -0.0382976 0)
(10.0703 -0.0382934 0)
(10.0731 -0.038278 0)
(10.0755 -0.0382601 0)
(10.0776 -0.0382433 0)
(10.0795 -0.0382256 0)
(9.99487 0.00140566 0)
(9.99287 -0.00812472 0)
(10.006 -0.0203338 0)
(10.0202 -0.0322678 0)
(10.0306 -0.0404761 0)
(10.0392 -0.0441519 0)
(10.0467 -0.0450674 0)
(10.0529 -0.0449263 0)
(10.0578 -0.0444621 0)
(10.0616 -0.043868 0)
(10.0646 -0.0432252 0)
(10.0667 -0.0425899 0)
(10.0682 -0.0419963 0)
(10.069 -0.0414531 0)
(10.0693 -0.040969 0)
(10.0692 -0.0405418 0)
(10.0687 -0.040168 0)
(10.068 -0.0398215 0)
(9.9947 -0.0305773 0)
(9.99943 -0.0228506 0)
(10.0146 -0.00262115 0)
(10.0304 -0.00190321 0)
(10.0434 -0.0116565 0)
(10.0533 -0.0209239 0)
(10.0594 -0.0272842 0)
(10.0618 -0.0315132 0)
(10.0615 -0.0342897 0)
(10.059 -0.0359875 0)
(10.055 -0.0369206 0)
(10.0497 -0.0373551 0)
(10.0434 -0.0374811 0)
(10.0364 -0.0374193 0)
(10.0289 -0.0372583 0)
(10.0209 -0.037056 0)
(10.0128 -0.0368755 0)
(10.0046 -0.0366843 0)
(10.0274 -0.183007 0)
(10.0766 -0.288325 0)
(10.0871 -0.247822 0)
(10.0777 -0.18656 0)
(10.0663 -0.140324 0)
(10.0537 -0.108244 0)
(10.0365 -0.0858967 0)
(10.0145 -0.0704383 0)
(9.98935 -0.0596671 0)
(9.96231 -0.0518906 0)
(9.93433 -0.0460678 0)
(9.90601 -0.0415697 0)
(9.87783 -0.0380131 0)
(9.85012 -0.0351364 0)
(9.82312 -0.0327729 0)
(9.79695 -0.0308488 0)
(9.77185 -0.0293295 0)
(9.74785 -0.0285128 0)
(9.93575 0.689541 0)
(9.86828 0.609595 0)
(9.76458 0.380606 0)
(9.62662 0.217411 0)
(9.48588 0.119242 0)
(9.35718 0.0631596 0)
(9.24266 0.0315474 0)
(9.14107 0.0135958 0)
(9.0514 0.00324213 0)
(8.97242 -0.00281847 0)
(8.9025 -0.00637172 0)
(8.84032 -0.00848994 0)
(8.78461 -0.0097364 0)
(8.7345 -0.0104943 0)
(8.68906 -0.010975 0)
(8.64771 -0.0112513 0)
(8.60952 -0.0114754 0)
(8.57417 -0.0121138 0)
(0.00531824 -0.0125024 -7.91809e-19)
(0.0175423 -0.01828 6.75661e-19)
(0.0273142 -0.0145347 0)
(0.0327681 -0.00715552 0)
(0.0329503 0.000631348 0)
(0.0282388 0.00713701 -3.40738e-19)
(0.0198085 0.0118075 0)
(0.0086073 0.0148116 0)
(-0.00458729 0.0165902 0)
(-0.0192381 0.0176303 0)
(-0.0350489 0.0183169 1.91759e-19)
(-0.0518363 0.0188723 0)
(-0.0695004 0.0194003 0)
(-0.0879893 0.0199373 0)
(-0.107274 0.0204864 0)
(-0.127331 0.0210362 1.10809e-19)
(-0.148142 0.0215689 0)
(-0.169684 0.0220639 0)
(-0.19193 0.0224958 0)
(-0.214844 0.0228337 0)
(-0.23839 0.0230413 0)
(-0.262539 0.0230856 0)
(-0.287284 0.022952 0)
(-0.312625 0.0226649 6.97019e-20)
(-0.338568 0.0222976 -6.70516e-20)
(-0.365122 0.0219612 6.46357e-20)
(-0.392316 0.0215709 6.24419e-20)
(-0.420244 0.0210091 0)
(-0.448788 0.0217302 0)
(-0.477579 0.0236387 -5.51268e-20)
(-0.506464 0.0252679 -5.2811e-20)
(-0.535176 0.0292898 0)
(-0.564342 0.0385543 0)
(-0.595541 0.0496143 -4.89739e-20)
(-0.629166 0.0609154 0)
(-0.665937 0.0755103 0)
(-0.70546 0.0945135 5.39026e-20)
(-0.748849 0.057209 0)
(-0.789328 0.0553514 5.62938e-20)
(-0.821163 0.0621991 1.24374e-19)
(-0.862903 0.0251957 0)
(-0.895704 0.030811 0)
(-0.932924 0.0343266 0)
(-0.972511 0.0343161 0)
(-1.01199 0.034604 0)
(-1.05201 0.0347149 1.124e-19)
(-1.09224 0.0346736 1.0924e-19)
(-1.13254 0.0345087 1.06278e-19)
(-1.17286 0.0342782 0)
(-1.21312 0.0340038 -1.00888e-19)
(-1.25329 0.0337023 0)
(-1.29336 0.0333819 9.61187e-20)
(-1.33328 0.0330484 9.39345e-20)
(-1.37306 0.0327047 0)
(-1.41267 0.0323522 0)
(-1.45209 0.0319913 0)
(-1.49132 0.0316216 8.62888e-20)
(-1.53033 0.0312424 0)
(-1.56911 0.0308526 0)
(-1.60763 0.0304508 0)
(-1.64588 0.0300359 0)
(-1.68382 0.0296064 0)
(-1.72144 0.029161 0)
(-1.75871 0.0286985 0)
(-1.7956 0.0282176 0)
(-1.83207 0.0277173 -7.3487e-20)
(-1.86809 0.0271967 0)
(-1.90364 0.026655 0)
(-1.93867 0.0260916 7.00929e-20)
(-1.97314 0.025506 6.90275e-20)
(-2.00702 0.0248978 0)
(-2.04027 0.0242666 -6.69795e-20)
(-2.07285 0.0236125 6.59918e-20)
(-2.10472 0.0229351 0)
(-2.13583 0.0222348 -6.40764e-20)
(-2.16615 0.0215115 0)
(-2.19563 0.0207658 0)
(-2.22423 0.0199979 6.13215e-20)
(-2.25191 0.0192082 0)
(-2.27862 0.0183969 -5.95397e-20)
(-2.30432 0.0175646 0)
(-2.32898 0.0167117 5.77839e-20)
(-2.35254 0.0158382 5.69113e-20)
(-2.37497 0.0149443 5.60399e-20)
(-2.39623 0.0140297 1.10336e-19)
(-2.41626 0.0130936 -1.08589e-19)
(-2.43504 0.0121347 0)
(-2.45252 0.0111509 0)
(-2.46865 0.0101394 0)
(-2.48339 0.00909523 -1.01495e-19)
(-2.49669 0.00801208 -9.96823e-20)
(-2.5085 0.00688144 9.78497e-20)
(-2.51873 0.00569488 0)
(-2.52733 0.00444719 -9.41188e-20)
(-2.5342 0.0031485 -9.22194e-20)
(-2.53927 0.00184721 -9.02972e-20)
(-2.54242 0.000642944 0)
(-2.54364 -0.000387716 0)
(-2.5434 -0.00130731 0)
(-2.54164 -0.00220012 -8.21261e-20)
(-2.53839 -0.00307902 0)
(-2.53365 -0.00395108 0)
(-2.52741 -0.0048167 7.54455e-20)
(-2.51968 -0.00567562 0)
(-2.51044 -0.0065271 0)
(-2.49969 -0.00736989 6.82266e-20)
(-2.48745 -0.00820325 0)
(-2.4737 -0.00902576 0)
(-2.45846 -0.00983679 -6.0406e-20)
(-2.44173 -0.0106349 -5.76546e-20)
(-2.42352 -0.0114196 0)
(-2.40384 -0.0121895 5.19212e-20)
(-2.38271 -0.0129442 0)
(-2.36014 -0.0136825 -4.58647e-20)
(-2.33614 -0.014404 0)
(-2.31074 -0.0151075 -3.94661e-20)
(-2.28396 -0.0157927 -3.61324e-20)
(-2.25581 -0.0164584 0)
(-2.22632 -0.017105 0)
(-2.19552 -0.0177323 0)
(-2.16343 -0.0183406 0)
(-2.13007 -0.0189288 0)
(-2.09548 -0.0194965 0)
(-2.05969 -0.020043 0)
(-2.02272 -0.0205687 -5.86397e-21)
(-1.9846 -0.0210746 1.58121e-21)
(-1.94538 -0.0215631 0)
(-1.90506 -0.0220342 0)
(-1.8637 -0.0224899 0)
(-1.8213 -0.0229209 0)
(-1.77791 -0.0233293 -4.36063e-20)
(-1.73355 -0.0237252 0)
(-1.68825 -0.0241011 6.43778e-20)
(-1.64207 -0.0244611 -7.52608e-20)
(-1.59502 -0.0248063 0)
(-1.54713 -0.0251394 0)
(-1.49843 -0.0254564 0)
(-1.44896 -0.0257613 1.22545e-19)
(-1.39873 -0.0260536 1.35414e-19)
(-1.34778 -0.0263376 0)
(-1.29615 -0.0266147 1.62596e-19)
(-1.24386 -0.0268873 1.76976e-19)
(-1.19095 -0.0271566 -1.91932e-19)
(-1.13743 -0.0274239 0)
(-1.08332 -0.02769 0)
(-1.02866 -0.027956 -2.40714e-19)
(-0.973454 -0.0282238 0)
(-0.91773 -0.0284951 0)
(-0.861504 -0.0287721 0)
(-0.804793 -0.0290566 0)
(-0.747614 -0.0293512 3.38684e-19)
(-0.68998 -0.029658 3.61495e-19)
(-0.631903 -0.0299792 0)
(-0.573395 -0.0303174 4.11213e-19)
(-0.514464 -0.0306755 0)
(-0.45512 -0.0310564 0)
(-0.395366 -0.0314634 4.98361e-19)
(-0.335208 -0.0318967 0)
(-0.274647 -0.0323603 5.67257e-19)
(-0.213685 -0.0328686 0)
(-0.152328 -0.0334343 0)
(-0.0906059 -0.034016 6.92962e-19)
(-0.0286023 -0.0344473 0)
(0.0335911 -0.0342627 7.46189e-19)
(0.0962111 -0.0336034 0)
(0.159299 -0.0329551 0)
(0.222801 -0.0323614 0)
(0.286712 -0.031812 -6.72708e-19)
(0.35102 -0.0312939 0)
(0.415693 -0.0307918 6.43552e-19)
(0.48067 -0.0302913 0)
(0.545857 -0.0297739 0)
(0.611117 -0.0292154 0)
(0.676224 -0.0285787 0)
(0.740881 -0.0278003 0)
(0.804334 -0.0267617 0)
(0.866166 -0.025167 0)
(0.921057 -0.0223706 -1.12921e-18)
(0.975232 -0.0164933 0)
(0.97083 0.00213944 0)
(0.00471859 -0.0355598 1.81939e-18)
(0.00971689 -0.0322419 -1.01985e-18)
(0.00882516 -0.0179668 0)
(0.00491442 -0.00313648 3.18258e-19)
(-0.00145548 0.01045 0)
(-0.0100955 0.0219583 1.21419e-19)
(-0.0209506 0.0310831 -2.21419e-19)
(-0.0338997 0.0379798 -2.03829e-19)
(-0.0487547 0.0430764 0)
(-0.0652678 0.0468825 -1.74151e-19)
(-0.0832037 0.0498462 -8.07806e-20)
(-0.102378 0.0522914 0)
(-0.122653 0.0544241 0)
(-0.143935 0.0563616 0)
(-0.166165 0.0581642 0)
(-0.189306 0.059859 -5.84902e-20)
(-0.213341 0.061456 0)
(-0.238264 0.0629573 1.05785e-19)
(-0.264078 0.0643624 0)
(-0.290791 0.0656724 0)
(-0.318418 0.0668917 -9.36837e-20)
(-0.346983 0.0680314 0)
(-0.376513 0.0691151 8.77438e-20)
(-0.407033 0.0701867 -4.25839e-20)
(-0.438552 0.071316 4.13965e-20)
(-0.471066 0.07257 -4.03145e-20)
(-0.504624 0.0739462 -3.93426e-20)
(-0.539293 0.0753745 0)
(-0.574929 0.076805 0)
(-0.611596 0.0781017 3.68591e-20)
(-0.649727 0.0789919 -3.60225e-20)
(-0.689764 0.0795976 0)
(-0.731023 0.0807026 0)
(-0.772389 0.0824101 3.466e-20)
(-0.814433 0.0833666 0)
(-0.855862 0.0840402 0)
(-0.893817 0.0848641 -3.58016e-20)
(-0.93545 0.084237 0)
(-0.974526 0.0838474 3.42578e-20)
(-1.01611 0.0862491 -6.99581e-20)
(-1.05694 0.0869354 0)
(-1.09896 0.0883624 0)
(-1.13866 0.0892864 -1.2944e-19)
(-1.17697 0.0895014 -1.26515e-19)
(-1.21467 0.0891884 -1.23736e-19)
(-1.2519 0.0886182 6.0396e-20)
(-1.28877 0.0878735 -5.94534e-20)
(-1.32533 0.0870103 -1.74497e-19)
(-1.36159 0.0860673 1.13976e-19)
(-1.39759 0.0850712 5.60628e-20)
(-1.43331 0.0840388 0)
(-1.46877 0.0829804 -5.40605e-20)
(-1.50395 0.0819021 5.28321e-20)
(-1.53885 0.0808065 0)
(-1.57346 0.0796945 0)
(-1.60778 0.0785651 0)
(-1.64178 0.0774168 -4.97439e-20)
(-1.67545 0.0762473 0)
(-1.70878 0.0750541 9.61838e-20)
(-1.74175 0.0738342 0)
(-1.77433 0.0725851 9.33593e-20)
(-1.8065 0.0713042 0)
(-1.83825 0.069989 -9.06981e-20)
(-1.86954 0.068637 0)
(-1.90036 0.0672464 8.81739e-20)
(-1.93066 0.0658152 -4.33503e-20)
(-1.96043 0.0643422 0)
(-1.98963 0.0628262 -8.45943e-20)
(-2.01824 0.0612663 -4.18421e-20)
(-2.04622 0.059662 -4.12739e-20)
(-2.07355 0.058013 0)
(-2.10018 0.0563193 -3.99412e-20)
(-2.12609 0.054581 -3.96121e-20)
(-2.15124 0.0527986 0)
(-2.1756 0.0509728 3.85293e-20)
(-2.19914 0.0491044 -7.57973e-20)
(-2.22182 0.0471949 0)
(-2.24361 0.0452453 -3.69233e-20)
(-2.26448 0.0432573 0)
(-2.28439 0.0412321 1.07411e-19)
(-2.30331 0.0391714 0)
(-2.32121 0.0370768 -1.04203e-19)
(-2.33805 0.03495 -3.42349e-20)
(-2.35381 0.0327927 3.35793e-20)
(-2.36844 0.0306067 6.60779e-20)
(-2.38193 0.0283935 -6.49865e-20)
(-2.39424 0.0261543 0)
(-2.40535 0.0238893 0)
(-2.41522 0.0215985 0)
(-2.42383 0.0192808 1.81601e-19)
(-2.43117 0.0169352 5.93653e-20)
(-2.43722 0.0145604 -5.81547e-20)
(-2.44199 0.0121548 0)
(-2.44549 0.00971558 -5.57142e-20)
(-2.44776 0.00724474 5.44071e-20)
(-2.44887 0.00476865 5.31197e-20)
(-2.44892 0.00236138 0)
(-2.44795 0.000100347 0)
(-2.4456 -0.00204838 0)
(-2.44184 -0.00415169 4.76222e-20)
(-2.43664 -0.0062214 0)
(-2.42997 -0.00826482 -8.96775e-20)
(-2.42184 -0.010282 -1.29942e-19)
(-2.41224 -0.0122715 8.37056e-20)
(-2.40115 -0.0142314 0)
(-2.38859 -0.0161591 3.89349e-20)
(-2.37455 -0.0180524 0)
(-2.35903 -0.0199087 7.10787e-20)
(-2.34204 -0.0217262 -3.41117e-20)
(-2.32359 -0.0235022 -3.24446e-20)
(-2.30368 -0.0252353 0)
(-2.28233 -0.0269231 -8.60006e-20)
(-2.25954 -0.0285645 5.39695e-20)
(-2.23534 -0.0301574 2.48929e-20)
(-2.20974 -0.0317013 0)
(-2.18275 -0.0331942 2.11783e-20)
(-2.15441 -0.0346354 5.8491e-20)
(-2.12471 -0.0360232 0)
(-2.0937 -0.0373573 3.14859e-20)
(-2.06139 -0.0386375 2.75365e-20)
(-2.02781 -0.0398644 2.35309e-20)
(-1.99298 -0.0410372 0)
(-1.95694 -0.0421555 0)
(-1.9197 -0.0432183 0)
(-1.8813 -0.0442259 -3.89475e-21)
(-1.84176 -0.0451791 -9.25094e-22)
(-1.80112 -0.04608 0)
(-1.7594 -0.0469308 6.00822e-21)
(-1.71664 -0.0477321 1.04339e-20)
(-1.67285 -0.0484872 0)
(-1.62807 -0.0491965 2.03456e-20)
(-1.58233 -0.0498502 4.80076e-20)
(-1.53566 -0.0504487 -2.95612e-20)
(-1.4881 -0.051003 -3.23435e-20)
(-1.43966 -0.0515131 0)
(-1.39038 -0.0519801 0)
(-1.34028 -0.0524039 0)
(-1.28941 -0.052786 -5.34044e-20)
(-1.23777 -0.0531274 5.63295e-20)
(-1.18541 -0.053432 1.24522e-19)
(-1.13234 -0.0537043 -6.82526e-20)
(-1.0786 -0.0539471 7.12773e-20)
(-1.02422 -0.0541641 7.83849e-20)
(-0.969208 -0.0543551 0)
(-0.913593 -0.0545227 0)
(-0.857392 -0.0546668 -9.18986e-20)
(-0.800625 -0.0547905 0)
(-0.74331 -0.0548946 0)
(-0.685462 -0.0549826 2.17969e-19)
(-0.627097 -0.0550552 0)
(-0.568228 -0.0551162 1.18948e-19)
(-0.508866 -0.0551665 -1.26664e-19)
(-0.44902 -0.0552095 0)
(-0.388699 -0.0552466 1.35988e-19)
(-0.327907 -0.0552815 0)
(-0.26665 -0.0553155 0)
(-0.204929 -0.0553538 -1.55929e-19)
(-0.142746 -0.0553982 3.21942e-19)
(-0.0801037 -0.0554512 -1.68296e-19)
(-0.0170153 -0.0555026 0)
(0.0465201 -0.0555322 0)
(0.110537 -0.0555399 1.7668e-19)
(0.175086 -0.055511 0)
(0.240128 -0.0553292 1.80276e-19)
(0.305546 -0.0550063 0)
(0.37131 -0.054662 0)
(0.437444 -0.0543237 0)
(0.503928 -0.0539859 1.89812e-19)
(0.570727 -0.0536335 0)
(0.637791 -0.0532473 -1.93219e-19)
(0.705048 -0.0528053 0)
(0.772397 -0.0522788 0)
(0.839693 -0.0516249 3.93962e-19)
(0.906717 -0.0507767 -3.96972e-19)
(0.973162 -0.0496101 0)
(1.03839 -0.0478991 0)
(1.10187 -0.0450666 0)
(1.16036 -0.0400886 1.23384e-18)
(1.21701 -0.0291553 0)
(1.24802 -0.00271701 -8.61923e-19)
(-0.000660897 -0.0417821 -8.62448e-22)
(-0.00408977 -0.0245335 9.79957e-19)
(-0.0112158 -0.00428929 0)
(-0.020383 0.0142128 -3.9658e-19)
(-0.0310102 0.0306617 0)
(-0.0428127 0.0449693 0)
(-0.0558321 0.0570778 3.0544e-23)
(-0.0701859 0.0670613 1.23256e-19)
(-0.0859439 0.0751639 1.15988e-19)
(-0.1031 0.0817396 1.09727e-19)
(-0.121592 0.0871634 0)
(-0.141331 0.0917675 0)
(-0.162225 0.0958105 -9.41884e-20)
(-0.184199 0.0994753 -1.79813e-19)
(-0.207194 0.102883 1.72049e-19)
(-0.231174 0.106109 0)
(-0.256119 0.109201 1.58718e-19)
(-0.282021 0.112189 -7.65181e-20)
(-0.308884 0.115096 0)
(-0.336716 0.11794 1.43381e-19)
(-0.365532 0.120743 6.9612e-20)
(-0.39535 0.123523 -1.3558e-19)
(-0.426181 0.126302 -6.60665e-20)
(-0.458023 0.129099 0)
(-0.490858 0.131924 1.26285e-19)
(-0.524639 0.134771 1.2351e-19)
(-0.559292 0.137587 0)
(-0.594726 0.14028 1.17938e-19)
(-0.630798 0.142773 0)
(-0.667368 0.144964 1.12416e-19)
(-0.704424 0.14683 5.49963e-20)
(-0.741937 0.14868 0)
(-0.77949 0.150724 0)
(-0.816487 0.152971 0)
(-0.852758 0.155264 0)
(-0.887974 0.156922 0)
(-0.921989 0.157418 0)
(-0.956101 0.155217 9.81923e-20)
(-0.990449 0.152724 -1.43551e-19)
(-1.02495 0.150759 0)
(-1.05954 0.147529 0)
(-1.09432 0.14558 0)
(-1.12846 0.144016 1.5152e-22)
(-1.16193 0.142429 8.62649e-20)
(-1.195 0.140826 1.68911e-19)
(-1.22776 0.139186 -1.65608e-19)
(-1.26026 0.137504 -8.11513e-20)
(-1.29253 0.135782 7.97991e-20)
(-1.32459 0.134029 -1.5562e-22)
(-1.35647 0.132251 7.68237e-20)
(-1.38816 0.130453 0)
(-1.41967 0.128638 7.42283e-20)
(-1.45099 0.126806 -1.61255e-22)
(-1.48211 0.124956 0)
(-1.51303 0.123085 0)
(-1.54373 0.12119 -6.95904e-20)
(-1.57419 0.119266 0)
(-1.60441 0.11731 0)
(-1.63436 0.115317 6.63324e-20)
(-1.66403 0.113282 1.31044e-19)
(-1.69338 0.111202 -6.47348e-20)
(-1.72241 0.109072 0)
(-1.75109 0.106889 6.29048e-20)
(-1.77939 0.10465 0)
(-1.80729 0.102352 6.08457e-20)
(-1.83475 0.0999923 6.03001e-20)
(-1.86176 0.0975697 -1.1863e-19)
(-1.88828 0.0950825 -5.83484e-20)
(-1.91428 0.0925298 0)
(-1.93974 0.0899108 1.13764e-19)
(-1.96461 0.0872257 0)
(-1.98887 0.0844744 1.66048e-19)
(-2.01249 0.0816577 1.09055e-19)
(-2.03543 0.0787764 1.07508e-19)
(-2.05766 0.0758319 -1.05967e-19)
(-2.07915 0.0728257 1.56758e-19)
(-2.09986 0.0697599 0)
(-2.11975 0.0666365 0)
(-2.13881 0.0634579 -9.98294e-20)
(-2.15698 0.0602267 -1.47522e-19)
(-2.17424 0.0569456 0)
(-2.19056 0.0536173 4.76695e-20)
(-2.2059 0.0502448 0)
(-2.22023 0.0468312 -1.38137e-19)
(-2.23353 0.0433799 -1.06442e-22)
(-2.24576 0.0398939 9.17818e-23)
(-2.25689 0.0363768 8.72355e-20)
(-2.2669 0.0328318 0)
(-2.27576 0.0292622 -8.39349e-20)
(-2.28346 0.0256718 -2.96832e-23)
(-2.28998 0.022066 0)
(-2.2953 0.0184523 0)
(-2.29942 0.0148419 0)
(-2.30234 0.0112502 7.52596e-20)
(-2.30407 0.00769757 0)
(-2.30459 0.00420678 0)
(-2.30387 0.000784045 0)
(-2.30185 -0.00259857 0)
(-2.29848 -0.00595793 0)
(-2.29373 -0.00928521 6.38694e-20)
(-2.28758 -0.0125765 0)
(-2.28002 -0.0158285 5.96305e-20)
(-2.27104 -0.0190376 5.75371e-20)
(-2.26063 -0.0222 -5.54134e-20)
(-2.24879 -0.0253114 0)
(-2.23551 -0.028368 -5.10745e-20)
(-2.22081 -0.0313656 0)
(-2.20466 -0.0343007 -4.66141e-20)
(-2.1871 -0.0371695 4.43387e-20)
(-2.16811 -0.0399686 1.26737e-19)
(-2.14771 -0.0426948 0)
(-2.1259 -0.0453454 1.1271e-19)
(-2.10271 -0.0479175 3.56782e-20)
(-2.07814 -0.050409 0)
(-2.05221 -0.0528178 6.09546e-20)
(-2.02494 -0.055142 5.60405e-20)
(-1.99634 -0.05738 -7.61865e-20)
(-1.96644 -0.0595302 0)
(-1.93525 -0.0615916 -2.0046e-20)
(-1.9028 -0.063564 -1.74794e-20)
(-1.86911 -0.0654475 -4.56324e-20)
(-1.83421 -0.0672414 0)
(-1.79811 -0.0689453 0)
(-1.76086 -0.0705585 0)
(-1.72247 -0.0720812 -5.39797e-21)
(-1.68297 -0.0735148 0)
(-1.64239 -0.0748619 0)
(-1.60075 -0.0761255 -3.71757e-21)
(-1.55809 -0.0773085 -6.43371e-21)
(-1.51443 -0.0784124 0)
(-1.4698 -0.0794377 0)
(-1.42422 -0.0803785 -2.92878e-20)
(-1.37772 -0.0812335 0)
(-1.33034 -0.0820112 4.03231e-20)
(-1.28209 -0.0827164 4.46716e-20)
(-1.23301 -0.0833498 0)
(-1.18313 -0.0839123 0)
(-1.13246 -0.0844058 -6.13101e-20)
(-1.08104 -0.0848336 -1.21876e-21)
(-1.0289 -0.0852 -1.22505e-21)
(-0.976046 -0.085511 0)
(-0.922521 -0.085771 -1.6838e-19)
(-0.868343 -0.085984 0)
(-0.813533 -0.0861515 0)
(-0.758111 -0.0862763 0)
(-0.702094 -0.0863596 1.07131e-19)
(-0.6455 -0.0864048 0)
(-0.588346 -0.0864141 -2.34098e-19)
(-0.530647 -0.0863912 -1.23902e-19)
(-0.472417 -0.0863382 0)
(-0.413668 -0.0862592 -1.35108e-19)
(-0.354411 -0.0861568 0)
(-0.294655 -0.0860345 0)
(-0.234407 -0.085895 -4.53397e-19)
(-0.173672 -0.0857428 3.12707e-19)
(-0.112456 -0.0855795 0)
(-0.0507601 -0.0854097 3.35395e-19)
(0.0114052 -0.0852295 -1.73755e-19)
(0.0740446 -0.0850389 0)
(0.137159 -0.0848431 0)
(0.200748 -0.0846405 0)
(0.264813 -0.0844248 -5.57033e-19)
(0.32936 -0.0841889 0)
(0.394387 -0.0839456 -1.92556e-19)
(0.459842 -0.0836916 0)
(0.525687 -0.0834166 0)
(0.5919 -0.0831262 0)
(0.658439 -0.0828094 0)
(0.725256 -0.0824464 0)
(0.79229 -0.0820127 0)
(0.859464 -0.081477 -4.2441e-19)
(0.926671 -0.0807974 0)
(0.993767 -0.0799099 -2.18913e-19)
(1.06054 -0.0787138 6.62533e-19)
(1.12671 -0.0770301 0)
(1.19174 -0.0745305 0)
(1.2552 -0.0705116 -4.57606e-19)
(1.31496 -0.063654 -4.66116e-19)
(1.37398 -0.0505154 4.72816e-19)
(1.41909 -0.0230061 4.89066e-19)
(-0.00603363 -0.0306293 -2.78485e-18)
(-0.0150992 -0.00481074 -1.17282e-18)
(-0.0261019 0.018509 -4.24295e-19)
(-0.0388463 0.038893 -1.51756e-19)
(-0.0525244 0.0569444 0)
(-0.0668075 0.0729021 2.20065e-19)
(-0.0817853 0.0868487 -1.0062e-19)
(-0.0976218 0.0988693 0)
(-0.114448 0.109129 -8.88064e-20)
(-0.132343 0.117872 0)
(-0.151338 0.125383 1.61363e-19)
(-0.171424 0.131942 0)
(-0.192568 0.137793 7.41404e-20)
(-0.214729 0.143134 1.42568e-19)
(-0.237868 0.148108 -1.37335e-19)
(-0.261952 0.152819 0)
(-0.286954 0.157339 -1.28179e-19)
(-0.312854 0.161715 0)
(-0.339636 0.165979 0)
(-0.367284 0.170153 -1.17248e-19)
(-0.395776 0.174247 0)
(-0.425087 0.178266 -8.48213e-23)
(-0.455177 0.182201 0)
(-0.485988 0.186032 0)
(-0.517435 0.189717 7.28223e-23)
(-0.54941 0.193183 -1.0161e-19)
(-0.581781 0.196344 -9.92791e-20)
(-0.61441 0.199119 -9.68587e-20)
(-0.647154 0.20145 0)
(-0.679889 0.203303 -1.84064e-19)
(-0.712532 0.204701 0)
(-0.744995 0.205778 -8.74169e-20)
(-0.777105 0.206678 0)
(-0.808682 0.207421 0)
(-0.839626 0.207838 8.17482e-20)
(-0.869938 0.207636 0)
(-0.899797 0.206594 -7.84908e-20)
(-0.929576 0.204524 -6.79431e-24)
(-0.959501 0.201979 1.50318e-19)
(-0.989515 0.199375 -1.47148e-19)
(-1.01957 0.196474 0)
(-1.04964 0.193812 0)
(-1.07953 0.191338 -6.90041e-20)
(-1.10921 0.188929 0)
(-1.13872 0.186561 -6.64261e-20)
(-1.16806 0.184215 6.51758e-20)
(-1.19727 0.181876 6.39792e-20)
(-1.22635 0.179536 0)
(-1.25531 0.177191 -6.17332e-20)
(-1.28416 0.174836 -6.0677e-20)
(-1.31289 0.172469 1.19191e-19)
(-1.3415 0.170086 -5.8683e-20)
(-1.36998 0.167684 -5.77395e-20)
(-1.39833 0.165256 0)
(-1.42652 0.162798 0)
(-1.45456 0.160305 5.50926e-20)