/*--------------------------------*- C++ -*----------------------------------*\
  =========                 |
  \\      /  F ield         | OpenFOAM: The Open Source CFD Toolbox
   \\    /   O peration     | Website:  https://openfoam.org
    \\  /    A nd           | Version:  8
     \\/     M anipulation  |
\*---------------------------------------------------------------------------*/
FoamFile
{
    version     2.0;
    format      ascii;
    class       volScalarField;
    location    "105";
    object      epsilon;
}
// * * * * * * * * * * * * * * * * * * * * * * * * * * * * * * * * * * * * * //

dimensions      [0 2 -3 0 0 0 0];

internalField   nonuniform List<scalar> 
12225
(
285.514
270.708
257.906
243.824
232.441
223.116
216.771
212.718
212.753
213.977
217.264
220.949
228.202
232.968
241.514
246.937
255.655
263.945
52.4878
91.8987
106.956
114.778
124.824
136.839
152.684
169.995
191.199
211.087
235.509
255.774
281.733
299.939
326.269
340.675
368.768
377.489
20.3196
34.8654
44.6649
50.484
55.383
59.6314
64.6502
69.6792
76.3228
83.2542
91.4939
99.4725
108.322
117.307
125.893
136.205
143.534
156.379
15.3463
19.701
24.1072
27.5754
30.4909
32.8798
35.1493
37.3081
39.5001
41.9433
44.3469
47.2541
49.7205
53.1499
55.5316
59.4735
61.8102
66.3209
14.6501
15.8629
17.3651
19.0771
20.6354
22.0303
23.2435
24.4375
25.443
26.605
27.527
28.7773
29.6477
31.0234
31.8596
33.3455
34.2058
35.8545
14.7066
14.8768
15.2008
15.8681
16.5652
17.2886
17.9225
18.587
19.1189
19.7384
20.1953
20.8069
21.2159
21.8381
22.2181
22.8583
23.2278
23.9345
14.7421
14.6201
14.6248
14.737
14.9292
15.2198
15.4908
15.81
16.0709
16.3845
16.6193
16.9237
17.1346
17.4341
17.625
17.927
18.1023
18.438
14.7626
14.5866
14.4637
14.3813
14.3668
14.39
14.438
14.5341
14.6185
14.7373
14.8313
14.9579
15.0494
15.1793
15.2651
15.3985
15.4793
15.6339
14.7666
14.5908
14.4345
14.2964
14.1849
14.1044
14.0396
14.0067
13.9814
13.9787
13.9811
13.992
14.0047
14.0306
14.0488
14.0822
14.1074
14.1526
14.7663
14.594
14.432
14.2821
14.1429
14.0219
13.9114
13.8193
13.7369
13.6697
13.6101
13.5633
13.5181
13.4874
13.4521
13.4351
13.4039
13.4038
14.7658
14.5945
14.4321
14.2803
14.1361
14.0032
13.8781
13.7643
13.6581
13.5628
13.4734
13.395
13.3196
13.2559
13.1915
13.1409
13.0842
13.0461
14.7657
14.5943
14.4321
14.2798
14.1353
13.9998
13.8715
13.7518
13.6384
13.5335
13.4339
13.3428
13.2555
13.1769
13.1001
13.0328
12.9648
12.9078
14.7657
14.5941
14.432
14.2794
14.1349
13.9989
13.8698
13.7484
13.6331
13.5249
13.4219
13.3256
13.2336
13.1482
13.0662
12.9905
12.9172
12.8505
14.7657
14.5939
14.4318
14.279
14.1346
13.9983
13.8692
13.7472
13.6315
13.5222
13.4184
13.3203
13.227
13.1389
13.055
12.9759
12.9004
12.8294
14.7657
14.5938
14.4317
14.2787
14.1342
13.9977
13.8686
13.7464
13.6307
13.5211
13.4171
13.3185
13.2249
13.1361
13.0517
12.9717
12.8955
12.8232
14.7657
14.5938
14.4316
14.2785
14.1339
13.9973
13.8681
13.7458
13.63
13.5203
13.4162
13.3175
13.2238
13.1348
13.0503
12.97
12.8935
12.8209
14.7657
14.5937
14.4315
14.2783
14.1337
13.997
13.8677
13.7453
13.6294
13.5196
13.4155
13.3167
13.2229
13.1338
13.0492
12.9688
12.8923
12.8195
14.7657
14.5937
14.4314
14.2782
14.1335
13.9968
13.8674
13.745
13.629
13.5191
13.415
13.3161
13.2222
13.1331
13.0484
12.9679
12.8913
12.8184
14.7657
14.5937
14.4314
14.2782
14.1335
13.9967
13.8673
13.7449
13.6289
13.5189
13.4147
13.3158
13.2219
13.1327
13.0479
12.9674
12.8907
12.8178
14.7657
14.5937
14.4314
14.2782
14.1336
13.9968
13.8675
13.745
13.6291
13.5191
13.4149
13.316
13.2221
13.1329
13.0482
12.9675
12.8909
12.818
14.7657
14.5937
14.4315
14.2784
14.1337
13.9971
13.8677
13.7454
13.6295
13.5196
13.4155
13.3167
13.223
13.134
13.0495
12.9691
12.8929
12.8202
14.7657
14.5937
14.4316
14.2785
14.1341
13.9975
13.8685
13.7464
13.6312
13.5221
13.4191
13.3215
13.2294
13.1419
13.0596
12.9812
12.9075
12.837
14.7658
14.5937
14.4318
14.2788
14.1353
14.0002
13.8742
13.756
13.6464
13.5435
13.4486
13.3592
13.2771
13.1993
13.1283
13.0602
12.999
12.9388
14.7655
14.5928
14.4328
14.2844
14.1515
14.0321
13.929
13.8375
13.7593
13.6894
13.6307
13.577
13.5328
13.4905
13.4574
13.423
13.3989
13.3693
14.7592
14.5932
14.4603
14.3602
14.3029
14.2766
14.2805
14.2922
14.321
14.3531
14.3959
14.4345
14.4823
14.5216
14.5718
14.6087
14.6613
14.6935
14.7213
14.6911
14.754
14.9176
15.1827
15.4611
15.7475
16.012
16.2722
16.5037
16.7358
16.9384
17.1503
17.3305
17.5303
17.6929
17.8879
18.0348
14.7477
15.5124
16.5472
17.6843
18.7042
19.5676
20.3369
20.9968
21.6189
22.1659
22.7181
23.2102
23.7387
24.2032
24.7308
25.1807
25.7222
26.1627
15.9871
20.9922
25.0236
27.7607
29.7842
31.3587
32.7761
34.0578
35.3579
36.6158
37.9729
39.2955
40.7574
42.1424
43.7113
45.1675
46.8737
48.348
29.9031
47.2183
54.8692
58.6735
61.6129
64.4316
67.5782
70.976
74.7341
78.7108
82.9774
87.3373
91.8925
96.4377
101.081
105.603
110.148
114.548
165.798
160.075
154.9
149.564
144.479
139.677
135.615
132.108
129.27
126.973
125.318
124.042
123.337
122.82
122.836
122.953
123.277
123.818
3.21979
2.08743
3.15105
4.10023
4.97189
5.78231
6.52007
7.14316
7.57208
7.64659
7.05326
7.09995
7.40917
7.82977
8.29138
8.78405
39.6867
42.5145
44.6145
45.7327
45.6715
43.9964
49.6414
55.7451
62.6345
70.1786
78.401
87.2282
96.6613
106.624
117.116
128.05
139.431
151.167
163.269
175.646
188.318
201.2
214.324
227.606
241.089
254.694
268.472
282.349
296.383
310.503
324.766
339.104
353.576
368.114
382.776
397.496
412.329
427.206
442.178
457.178
472.253
487.335
502.463
517.573
532.698
547.775
562.826
577.795
592.694
607.475
622.14
636.65
650.997
665.152
679.098
692.82
706.289
719.508
732.439
745.097
757.439
769.497
781.227
792.68
803.803
814.676
825.239
835.589
845.641
855.501
865.055
874.367
883.306
891.913
900.414
912.647
921.585
930.326
939.996
948.852
958.67
968.912
983.54
992.995
1003.13
1012.44
1021.64
1027.25
1026.99
1035.6
1056.7
1057.23
1077.58
1073.42
1093.91
1097.73
1099.57
1105.63
1124.3
1121.77
1126.76
1143.93
1143.99
1148.85
1146.95
1154
1147.96
1149.75
1154.91
1149.82
1144.51
1137.5
1129.01
1119.09
1107.61
1094.45
1079.58
1063.1
1044.99
1025.37
1004.28
981.73
957.842
932.788
906.615
879.526
851.693
823.319
794.355
765.235
736.717
707.303
679.381
659.7
642.347
625.238
608.174
591.218
574.427
557.96
541.64
525.426
509.493
494.092
479.448
464.875
450.616
436.858
423.672
411.011
398.872
387.275
376.208
365.656
355.603
346.014
336.879
328.045
319.75
311.031
303.87
293.024
287.619
261.732
7.44241
4.46581
4.23711
4.50402
4.97807
5.56973
6.24193
6.97126
7.76016
8.65039
9.75981
10.9604
12.319
13.9488
16.0658
19.0617
23.7269
26.4151
28.7864
31.1941
33.8571
36.8444
40.59
44.5595
48.7644
53.1877
57.7932
62.5493
67.4413
72.4492
77.564
82.7701
88.0633
93.4303
98.8699
104.372
109.939
115.562
121.245
126.981
132.776
138.623
144.529
150.493
156.511
162.575
168.689
174.846
181.05
187.294
193.58
199.902
206.261
212.649
219.067
225.505
231.964
238.434
244.915
251.395
257.873
264.338
270.786
277.207
283.596
289.943
296.242
302.483
308.661
314.766
320.792
326.731
332.577
338.324
343.966
349.5
354.919
360.225
365.412
370.483
375.433
380.27
384.989
389.6
394.095
398.487
402.767
406.954
411.058
415.14
419.299
423.635
427.533
431.456
435.438
439.363
443.425
447.562
451.8
455.262
458.626
461.478
463.107
467.253
468.088
473.662
477.302
479.561
482.903
482.982
488.862
490.309
490.769
495.701
498.489
498.384
500.495
505.177
505.486
506.389
505.901
507.769
506.594
506.617
507.749
506.078
504.196
501.769
498.853
495.431
491.482
486.966
481.899
476.239
469.947
463.042
455.533
447.431
438.764
429.581
419.911
409.812
399.337
388.549
377.469
366.18
354.848
343.283
331.725
321.529
311.967
302.615
293.363
284.225
275.222
266.406
257.757
249.235
240.733
232.436
224.423
216.596
208.981
201.618
194.545
187.759
181.262
175.059
169.148
163.524
158.183
153.113
148.32
143.745
139.511
135.279
131.86
127.503
126.832
126.468
13.2929
7.14026
6.19193
6.16075
6.48191
7.01801
7.73319
8.62793
9.71353
11.0104
12.476
14.1014
15.8741
17.8234
20.0023
22.4517
25.1261
27.6359
30.1255
32.6967
35.4077
38.4289
41.7498
45.2365
48.8539
52.5381
56.2952
60.1394
64.0701
68.081
72.1666
76.3221
80.5492
84.8393
89.1895
93.5963
98.0588
102.574
107.143
111.762
116.432
121.151
125.92
130.736
135.598
140.505
145.455
150.447
155.481
160.553
165.665
170.813
175.996
181.21
186.455
191.726
197.022
202.338
207.67
213.015
218.369
223.726
229.081
234.428
239.763
245.078
250.368
255.627
260.847
266.023
271.147
276.213
281.215
286.146
291
295.773
300.458
305.05
309.546
313.941
318.232
322.417
326.494
330.461
334.316
338.063
341.704
345.246
348.702
352.092
355.431
358.699
361.821
364.88
367.883
370.82
373.71
376.518
379.186
381.596
383.846
385.888
387.753
389.919
391.689
394.181
396.145
397.806
399.51
400.85
403.021
404.254
405.503
407.473
408.826
409.444
410.551
411.962
412.427
412.888
412.908
412.911
412.458
412.106
411.726
410.514
408.986
407.09
404.824
402.166
399.097
395.584
391.617
387.176
382.249
376.837
370.946
364.586
357.776
350.545
342.921
334.942
326.647
318.074
309.254
300.232
291.083
281.824
272.61
263.853
255.432
247.197
239.092
231.118
223.291
215.637
208.16
200.85
193.687
186.718
179.899
173.243
166.773
160.501
154.457
148.647
143.075
137.746
132.662
127.819
123.218
118.852
114.725
110.812
107.168
103.668
100.628
97.5426
95.5105
95.0971
19.8207
10.1877
8.50921
8.21508
8.42967
8.94138
9.67833
10.6173
11.7495
13.0623
14.5722
16.2663
18.1233
20.1351
22.3001
24.61
27.0344
29.5213
32.0913
34.7865
37.6548
40.6689
43.8109
47.0578
50.389
53.8211
57.3522
60.9698
64.6711
68.4505
72.2953
76.1942
80.1506
84.1699
88.2528
92.3978
96.6037
100.869
105.192
109.571
114.006
118.496
123.039
127.633
132.279
136.974
141.718
146.509
151.347
156.231
161.159
166.13
171.144
176.197
181.288
186.416
191.578
196.771
201.993
207.24
212.508
217.793
223.092
228.399
233.708
239.014
244.312
249.594
254.854
260.086
265.281
270.433
275.534
280.577
285.553
290.457
295.279
300.014
304.654
309.192
313.622
317.939
322.137
326.211
330.16
333.98
337.673
341.242
344.693
348.034
351.263
354.372
357.346
360.205
362.953
365.589
368.111
370.499
372.729
374.777
376.666
378.402
380.029
381.631
383.136
384.702
386.077
387.301
388.457
389.519
390.655
391.538
392.409
393.341
394.021
394.397
394.77
395.142
395.304
395.254
394.778
394.337
393.649
392.84
391.826
390.405
388.68
386.634
384.254
381.516
378.404
374.858
370.889
366.483
361.633
356.336
350.597
344.425
337.837
330.855
323.509
315.829
307.85
299.606
291.138
282.501
273.763
264.982
256.261
247.76
239.474
231.356
223.388
215.572
207.923
200.458
193.187
186.111
179.229
172.556
166.084
159.806
153.719
147.789
142.064
136.543
131.236
126.15
121.286
116.646
112.23
108.038
104.071
100.321
96.8127
93.5023
90.5238
87.749
85.4908
84.4528
26.5463
13.4597
11.0097
10.4487
10.547
11.0161
11.7462
12.6948
13.8444
15.1858
16.7132
18.4167
20.2829
22.2984
24.451
26.7276
29.1151
31.6032
34.1956
36.9026
39.7331
42.683
45.7435
48.9046
52.1595
55.5072
58.9451
62.4682
66.0714
69.7516
73.5102
77.3477
81.265
85.2576
89.3235
93.4609
97.6685
101.945
106.288
110.698
115.173
119.713
124.314
128.977
133.7
138.481
143.32
148.217
153.17
158.178
163.241
168.358
173.527
178.749
184.02
189.341
194.709
200.121
205.577
211.073
216.606
222.171
227.766
233.384
239.021
244.671
250.328
255.985
261.634
267.268
272.878
278.456
283.993
289.478
294.904
300.259
305.534
310.719
315.805
320.781
325.639
330.369
334.963
339.414
343.716
347.863
351.855
355.689
359.368
362.893
366.263
369.472
372.517
375.403
378.134
380.709
383.125
385.373
387.444
389.334
391.052
392.612
394.035
395.351
396.562
397.69
398.676
399.529
400.28
400.926
401.47
401.874
402.261
402.56
402.595
402.355
402.13
401.843
401.393
400.738
399.894
398.907
397.72
396.35
394.75
392.859
390.682
388.207
385.412
382.279
378.786
374.899
370.608
365.903
360.774
355.218
349.236
342.839
336.039
328.86
321.326
313.467
305.319
296.924
288.333
279.604
270.8
261.985
253.233
244.628
236.191
227.916
219.802
211.858
204.099
196.538
189.188
182.053
175.137
168.449
161.986
155.728
149.697
143.873
138.255
132.812
127.568
122.528
117.696
113.076
108.672
104.486
100.522
96.778
93.2671
89.9782
86.9742
84.2419
81.8912
80.354
33.1508
16.7744
13.5525
12.7169
12.6904
13.1005
13.804
14.7388
15.8767
17.2034
18.7092
20.3845
22.2187
24.2
26.3168
28.5584
30.9158
33.3837
35.9609
38.649
41.4493
44.3603
47.3786
50.4999
53.7211
57.04
60.4547
63.963
67.5631
71.2538
75.0348
78.906
82.8669
86.9159
91.0514
95.272
99.5764
103.963
108.431
112.978
117.603
122.304
127.081
131.931
136.856
141.852
146.919
152.056
157.264
162.54
167.884
173.296
178.775
184.321
189.932
195.607
201.346
207.146
213.005
218.92
224.89
230.911
236.978
243.087
249.232
255.408
261.607
267.822
274.044
280.266
286.476
292.665
298.821
304.934
310.992
316.981
322.89
328.705
334.414
340.004
345.463
350.777
355.937
360.93
365.747
370.381
374.826
379.077
383.131
386.989
390.646
394.1
397.348
400.392
403.233
405.873
408.31
410.541
412.564
414.382
416
417.43
418.685
419.782
420.729
421.532
422.171
422.649
423.012
423.246
423.273
423.102
422.903
422.557
422.003
421.294
420.474
419.538
418.449
417.187
415.749
414.136
412.328
410.318
408.077
405.577
402.806
399.747
396.381
392.686
388.64
384.224
379.42
374.218
368.606
362.583
356.147
349.307
342.075
334.472
326.524
318.265
309.736
300.988
292.072
283.048
273.973
264.906
255.907
247.032
238.308
229.749
221.363
213.165
205.168
197.388
189.835
182.516
175.437
168.603
162.015
155.65
149.541
143.663
138.014
132.575
127.324
122.259
117.388
112.719
108.26
104.018
99.9979
96.2007
92.636
89.3049
86.2415
83.4642
81.0267
79.1254
39.4226
19.9976
16.0214
14.8999
14.7459
15.0858
15.7488
16.6544
17.7643
19.0586
20.5251
22.1542
23.9371
25.8646
27.9278
30.1186
32.4304
34.8586
37.4009
40.0562
42.8242
45.7039
48.694
51.7927
54.9987
58.3108
61.7282
65.2501
68.876
72.6053
76.4383
80.3745
84.4137
88.555
92.7977
97.1404
101.582
106.122
110.757
115.488
120.312
125.228
130.236
135.332
140.517
145.79
151.149
156.594
162.124
167.739
173.439
179.222
185.09
191.042
197.076
203.193
209.391
215.67
222.027
228.461
234.968
241.547
248.192
254.899
261.662
268.476
275.331
282.221
289.135
296.064
302.996
309.919
316.821
323.687
330.503
337.253
343.923
350.497
356.957
363.289
369.475
375.5
381.349
387.007
392.462
397.702
402.717
407.499
412.043
416.345
420.4
424.205
427.757
431.057
434.105
436.902
439.449
441.747
443.798
445.604
447.173
448.514
449.638
450.554
451.273
451.807
452.126
452.211
452.088
451.83
451.372
450.748
449.977
449.03
447.893
446.581
445.115
443.494
441.707
439.742
437.593
435.253
432.712
429.955
426.97
423.733
420.234
416.454
412.376
407.98
403.249
398.162
392.706
386.867
380.637
374.011
366.988
359.574
351.785
343.639
335.17
326.414
317.417
308.229
298.904
289.497
280.062
270.653
261.322
252.111
243.052
234.164
225.464
216.968
208.691
200.646
192.844
185.293
177.998
170.965
164.193
157.678
151.421
145.416
139.654
134.127
128.817
123.697
118.752
113.998
109.45
105.119
101.011
97.1311
93.4861
90.0819
86.9393
84.0817
81.5444
79.3735
45.1886
23.0195
18.3253
16.9194
16.6339
16.8962
17.5096
18.3763
19.4487
20.7018
22.1211
23.6966
25.4208
27.2868
29.288
31.4189
33.6747
36.0518
38.548
41.1618
43.8926
46.7398
49.7031
52.782
55.9763
59.2859
62.711
66.2517
69.9085
73.6816
77.5716
81.5786
85.703
89.9443
94.3025
98.7767
103.366
108.07
112.887
117.816
122.856
128.005
133.263
138.627
144.098
149.673
155.354
161.138
167.025
173.016
179.11
185.307
191.608
198.012
204.519
211.129
217.842
224.657
231.572
238.585
245.696
252.899
260.191
267.569
275.024
282.552
290.143
297.789
305.479
313.201
320.943
328.692
336.43
344.144
351.814
359.424
366.955
374.386
381.699
388.873
395.889
402.727
409.367
415.792
421.985
427.93
433.614
439.025
444.154
448.994
453.54
457.785
461.728
465.365
468.699
471.73
474.46
476.891
479.027
480.873
482.435
483.723
484.747
485.518
486.03
486.256
486.202
485.925
485.43
484.72
483.786
482.642
481.294
479.735
477.962
475.985
473.812
471.448
468.889
466.129
463.166
459.993
456.603
452.987
449.135
445.032
440.668
436.029
431.101
425.867
420.313
414.422
408.183
401.582
394.613
387.27
379.555
371.475
363.045
354.291
345.246
335.949
326.446
316.786
307.02
297.2
287.377
277.6
267.913
258.353
248.954
239.737
230.724
221.93
213.37
205.057
197.001
189.209
181.688
174.442
167.471
160.773
154.347
148.185
142.282
136.628
131.211
126.009
120.98
116.128
111.479
107.048
102.843
98.8698
95.1354
91.6464
88.4165
85.4657
82.8199
80.4389
50.3216
25.7574
20.4006
18.7214
18.3046
18.4864
19.0457
19.8689
20.9001
22.1094
23.4801
25.0017
26.6673
28.4713
30.4094
32.4777
34.6732
36.9935
39.437
42.0028
44.6905
47.5001
50.4319
53.4863
56.6641
59.966
63.3932
66.9466
70.6276
74.4372
78.3768
82.4471
86.6492
90.9834
95.4501
100.049
104.781
109.644
114.639
119.764
125.018
130.401
135.911
141.548
147.311
153.198
159.21
165.347
171.607
177.992
184.501
191.134
197.893
204.778
211.788
218.924
226.186
233.574
241.086
248.722
256.478
264.353
272.342
280.44
288.641
296.938
305.323
313.784
322.312
330.892
339.511
348.153
356.799
365.432
374.032
382.577
391.045
399.413
407.658
415.757
423.684
431.416
438.93
446.204
453.216
459.948
466.382
472.502
478.295
483.751
488.863
493.623
498.027
502.071
505.757
509.084
512.055
514.674
516.943
518.871
520.463
521.73
522.684
523.315
523.6
523.548
523.219
522.609
521.723
520.568
519.145
517.461
515.521
513.325
510.876
508.18
505.243
502.072
498.667
495.028
491.154
487.043
482.692
478.098
473.252
468.15
462.783
457.143
451.221
445.006
438.487
431.655
424.5
417.014
409.19
401.028
392.531
383.711
374.585
365.18
355.528
345.67
335.649
325.511
315.305
305.076
294.873
284.738
274.709
264.822
255.108
245.592
236.294
227.23
218.413
209.857
201.569
193.556
185.825
178.378
171.217
164.342
157.748
151.429
145.38
139.591
134.05
128.741
123.621
118.669
113.919
109.389
105.088
101.023
97.1999
93.6249
90.3074
87.2622
84.5075
81.9574
54.7411
28.1563
22.208
20.275
19.7316
19.8343
20.339
21.1183
22.1087
23.2761
24.6014
26.0732
27.6846
29.4311
31.3095
33.3173
35.4529
37.715
40.1029
42.6166
45.2562
48.0224
50.9163
53.939
57.0922
60.3775
63.797
67.3524
71.0461
74.88
78.8561
82.9764
87.2425
91.6558
96.2175
100.928
105.789
110.8
115.961
121.272
126.733
132.342
138.1
144.006
150.059
156.26
162.607
169.101
175.743
182.531
189.468
196.553
203.787
211.171
218.706
226.392
234.23
242.219
250.358
258.647
267.084
275.665
284.387
293.245
302.232
311.341
320.562
329.885
339.297
348.783
358.329
367.914
377.521
387.128
396.711
406.247
415.71
425.074
434.31
443.392
452.29
460.977
469.425
477.608
485.501
493.079
500.321
507.208
513.723
519.853
525.587
530.916
535.833
540.335
544.42
548.089
551.345
554.19
556.63
558.671
560.321
561.59
562.488
562.976
563.073
562.816
562.213
561.273
560.001
558.403
556.484
554.248
551.7
548.844
545.683
542.223
538.471
534.433
530.113
525.515
520.64
515.491
510.07
504.377
498.412
492.176
485.666
478.881
471.818
464.476
456.849
448.935
440.73
432.233
423.444
414.368
405.012
395.391
385.524
375.436
365.16
354.734
344.2
333.599
322.972
312.362
301.81
291.354
281.026
270.855
260.875
251.109
241.578
232.294
223.269
214.515
206.037
197.843
189.937
182.322
175
167.971
161.231
154.773
148.591
142.676
137.016
131.597
126.378
121.331
116.49
111.871
107.485
103.337
99.4338
95.7796
92.3805
89.2467
86.3898
83.7028
58.4011
30.1835
23.7276
21.5678
20.9069
20.9353
21.3877
22.1253
23.0782
24.2082
25.4939
26.9229
28.4879
30.1845
32.0103
33.9636
36.0437
38.2504
40.5839
43.0449
45.6345
48.3542
51.2058
54.1914
57.3135
60.5746
63.9776
67.5254
71.2211
75.0676
79.0681
83.2254
87.5424
92.0215
96.6649
101.475
106.452
111.599
116.917
122.405
128.064
133.895
139.897
146.07
152.415
158.931
165.619
172.478
179.51
186.714
194.093
201.646
209.374
217.279
225.361
233.622
242.06
250.678
259.473
268.446
277.593
286.913
296.401
306.051
315.858
325.813
335.905
346.124
356.455
366.882
377.389
387.954
398.557
409.173
419.776
430.338
440.832
451.225
461.488
471.587
481.491
491.166
500.582
509.707
518.511
526.967
535.049
542.733
550.001
556.833
563.217
569.142
574.599
579.584
584.093
588.128
591.69
594.782
597.411
599.581
601.302
602.582
603.422
603.803
603.75
603.281
602.409
601.141
599.483
597.44
595.017
592.216
589.044
585.503
581.598
577.334
572.719
567.759
562.46
556.827
550.867
544.585
537.99
531.085
523.88
516.378
508.587
500.514
492.166
483.548
474.668
465.532
456.147
446.52
436.662
426.582
416.296
405.819
395.17
384.376
373.466
362.478
351.447
340.412
329.405
318.459
307.61
296.89
286.324
275.932
265.753
255.808
246.113
236.677
227.511
218.621
210.014
201.695
193.665
185.929
178.489
171.347
164.496
157.931
151.643
145.625
139.866
134.348
129.033
123.905
118.989
114.299
109.845
105.632
101.663
97.9423
94.4734
91.2624
88.3152
85.5195
61.2859
31.8246
24.9546
22.6019
21.8354
21.7994
22.202
22.9019
23.8221
24.9211
26.1751
27.5705
29.0991
30.7565
32.5401
34.4489
36.4827
38.6419
40.9276
43.3413
45.885
48.5609
51.3721
54.3215
57.4125
60.6485
64.0332
67.5704
71.2642
75.1189
79.1385
83.3272
87.6891
92.2281
96.9478
101.851
106.942
112.223
117.695
123.361
129.222
135.279
141.532
147.983
154.631
161.477
168.522
175.766
183.21
190.854
198.7
206.749
215.002
223.459
232.121
240.99
250.064
259.346
268.833
278.525
288.419
298.512
308.799
319.276
329.934
340.764
351.757
362.898
374.174
385.566
397.055
408.619
420.235
431.874
443.51
455.11
466.642
478.073
489.367
500.487
511.398
522.062
532.444
542.508
552.22
561.548
570.464
578.939
586.95
594.479
601.506
608.02
614.009
619.468
624.394
628.786
632.646
635.978
638.787
641.08
642.863
644.145
644.929
645.21
645
644.307
643.155
641.55
639.495
636.995
634.052
630.669
626.849
622.596
617.913
612.806
607.281
601.344
595.003
588.265
581.14
573.636
565.766
557.541
548.975
540.081
530.876
521.376
511.599
501.564
491.291
480.801
470.112
459.247
448.221
437.055
425.774
414.394
402.932
391.414
379.871
368.334
356.832
345.401
334.063
322.843
311.77
300.867
290.15
279.62
269.326
259.289
249.517
240.014
230.787
221.84
213.177
204.802
196.714
188.916
181.416
174.212
167.299
160.669
154.316
148.229
142.397
136.802
131.411
126.224
121.259
116.525
112.027
107.769
103.754
99.9857
96.4633
93.191
90.1698
87.292
63.4048
33.0783
25.8921
23.3835
22.5262
22.4356
22.7984
23.4679
24.3632
25.44
26.6727
28.0463
29.5519
31.1842
32.9408
34.8205
36.8233
38.9501
41.2026
43.5831
46.0944
48.7399
51.5236
54.4502
57.5237
60.7475
64.1259
67.6636
71.366
75.2384
79.2865
83.5157
87.932
92.5406
97.3471
102.356
107.573
113.003
118.649
124.515
130.601
136.911
143.446
150.206
157.192
164.406
171.849
179.52
187.421
195.553
203.917
212.513
221.341
230.404
239.7
249.23
258.994
268.992
279.221
289.681
300.368
311.279
322.407
333.746
345.289
357.025
368.942
381.025
393.26
405.626
418.102
430.664
443.287
455.939
468.591
481.207
493.753
506.19
518.481
530.584
542.46
554.068
565.368
576.32
586.888
597.036
606.73
615.941
624.643
632.811
640.428
647.477
653.947
659.83
665.123
669.825
673.938
677.465
680.413
682.789
684.599
685.853
686.559
686.708
686.306
685.351
683.888
681.917
679.436
676.45
672.956
668.957
664.454
659.45
653.946
647.948
641.458
634.486
627.036
619.12
610.746
601.931
592.686
583.033
572.99
562.584
551.837
540.781
529.444
517.861
506.071
494.107
482.002
469.8
457.521
445.198
432.831
420.452
408.108
395.83
383.645
371.585
359.662
347.946
336.381
324.987
313.788
302.8
292.028
281.449
271.157
261.144
251.408
241.947
232.763
223.859
215.236
206.894
198.831
191.043
183.549
176.347
169.43
162.789
156.418
150.304
144.437
138.793
133.364
128.155
123.175
118.426
113.913
109.638
105.603
101.808
98.2529
94.9388
91.8633
88.9294
64.7744
33.9512
26.552
23.9297
23.0031
22.871
23.2052
23.8548
24.7364
25.8038
27.0299
28.3985
29.8999
31.5281
33.28
35.1545
37.1514
39.2721
41.5185
43.8936
46.4011
49.046
51.8318
54.7628
57.844
61.0808
64.4792
68.0453
71.7861
75.7086
79.8201
84.1277
88.6392
93.3617
98.3024
103.468
108.864
114.497
120.371
126.492
132.865
139.492
146.375
153.515
160.914
168.572
176.492
184.673
193.115
201.821
210.788
220.019
229.511
239.265
249.281
259.557
270.091
280.883
291.929
303.226
314.769
326.554
338.573
350.818
363.28
375.946
388.804
401.837
415.029
428.357
441.799
455.328
468.917
482.533
496.142
509.708
523.192
536.554
549.752
562.743
575.483
587.929
600.038
611.766
623.074
633.923
644.278
654.107
663.379
672.073
680.164
687.637
694.479
700.681
706.24
711.153
715.424
719.057
722.058
724.435
726.195
727.349
727.907
727.859
727.191
725.921
724.091
721.696
718.735
715.205
711.105
706.434
701.191
695.376
688.988
682.032
674.509
666.426
657.791
648.612
638.903
628.681
617.964
606.778
595.15
583.116
570.715
557.986
544.973
531.726
518.313
504.775
491.157
477.435
463.73
450.112
436.681
423.444
410.366
397.47
384.777
372.314
360.082
348.154
336.417
324.924
313.688
302.712
291.993
281.476
271.275
261.363
251.734
242.385
233.314
224.52
216.003
207.762
199.79
192.077
184.669
177.546
170.695
164.108
157.776
151.688
145.83
140.187
134.772
129.587
124.631
119.905
115.41
111.149
107.121
103.326
99.7624
96.4293
93.3216
90.3578
65.4993
34.4795
26.959
24.2661
23.296
23.1404
23.4628
24.1095
24.9959
26.0745
27.3175
28.7077
30.2346
31.8916
33.6751
35.5835
37.6166
39.7759
42.064
44.4841
47.0394
49.7335
52.5722
55.5613
58.7074
62.0175
65.4992
69.1605
73.0102
77.057
81.3101
85.7787
90.4723
95.4
100.571
105.992
111.673
117.619
123.838
130.335
137.116
144.185
151.544
159.195
167.141
175.381
183.917
192.748
201.874
211.294
221.008
231.012
241.306
251.886
262.751
273.897
285.319
297.014
308.977
321.202
333.682
346.409
359.374
372.566
385.974
399.583
413.379
427.343
441.456
455.696
470.038
484.454
498.913
513.383
527.826
542.206
556.48
570.608
584.544
598.246
611.666
624.76
637.482
649.787
661.634
672.983
683.796
694.04
703.686
712.708
721.083
728.794
735.828
742.175
747.83
752.794
757.069
760.66
763.573
765.817
767.401
768.334
768.623
768.271
767.222
765.545
763.253
760.342
756.808
752.646
747.852
742.422
736.351
729.636
722.277
714.272
705.626
696.34
686.424
675.886
664.743
653.012
640.719
627.895
614.577
600.807
586.648
572.146
557.363
542.323
527.077
511.763
496.477
481.413
466.504
451.818
437.475
423.314
409.445
395.9
382.696
369.845
357.346
345.209
333.406
321.935
310.789
299.96
289.431
279.178
269.22
259.553
250.17
241.064
232.231
223.666
215.367
207.33
199.548
192
184.738
177.743
171.007
164.518
158.27
152.247
146.449
140.871
135.532
130.423
125.54
120.88
116.441
112.227
108.238
104.472
100.926
97.5988
94.483
91.5157
65.4743
34.6458
27.1279
24.4238
23.4487
23.2995
23.64
24.3154
25.2411
26.3697
27.6733
29.1343
30.7413
32.4873
34.3681
36.3819
38.5284
40.8087
43.2246
45.7794
48.4777
51.3246
54.3262
57.4898
60.8234
64.3357
68.0361
71.9347
76.0421
80.369
84.9267
89.7263
94.7794
100.097
105.69
111.568
117.741
124.216
131.001
138.101
145.521
153.267
161.344
169.752
178.491
187.562
196.964
206.694
216.751
227.131
237.829
248.842
260.163
271.786
283.705
295.913
308.401
321.162
334.187
347.467
360.989
374.744
388.717
402.894
417.262
431.803
446.5
461.334
476.283
491.324
506.431
521.575
536.724
551.846
566.903
581.857
596.667
611.291
625.685
639.804
653.604
667.038
680.061
692.627
704.696
716.227
727.184
737.533
747.245
756.294
764.66
772.324
779.272
785.497
790.993
795.761
799.802
803.122
805.729
807.632
808.84
809.364
809.209
808.341
806.756
804.509
801.596
798.013
793.752
788.806
783.166
776.826
769.777
762.014
753.533
744.332
734.411
723.773
712.426
700.379
687.652
674.265
660.247
645.645
630.496
614.852
598.705
582.161
565.343
548.442
531.568
514.743
498.147
481.622
465.354
449.438
433.945
418.884
404.291
390.188
376.58
363.468
350.839
338.679
326.963
315.667
304.768
294.24
284.055
274.185
264.619
255.345
246.351
237.627
229.163
220.951
212.989
205.27
197.788
190.537
183.528
176.756
170.219
163.902
157.807
151.932
146.276
140.829
135.614
130.622
125.847
121.287
116.937
112.808
108.893
105.189
101.689
98.3952
95.2964
92.3521
65.019
34.5592
27.1274
24.4759
23.5504
23.4606
23.877
24.6441
25.6785
26.9334
28.3808
30.0034
31.7906
33.7357
35.8347
38.086
40.4895
43.0463
45.7589
48.631
51.6677
54.8752
58.2608
61.8325
65.5998
69.5726
73.7621
78.1798
82.838
87.7491
92.926
98.3818
104.13
110.183
116.554
123.253
130.291
137.677
145.416
153.513
161.968
170.784
179.963
189.504
199.407
209.67
220.289
231.258
242.571
254.218
266.193
278.483
291.078
303.966
317.135
330.572
344.263
358.197
372.358
386.731
401.301
416.051
430.964
446.022
461.207
476.501
491.884
507.338
522.838
538.363
553.887
569.383
584.82
600.168
615.392
630.455
645.319
659.946
674.295
688.324
701.991
715.254
728.067
740.39
752.183
763.406
774.028
784.015
793.342
801.984
809.921
817.136
823.618
829.356
834.347
838.59
842.086
844.843
846.864
848.165
848.753
848.632
847.794
846.195
843.888
840.878
837.159
832.725
827.564
821.664
815.014
807.602
799.417
790.451
780.696
770.149
758.807
746.676
733.76
720.072
705.637
690.473
674.61
658.018
640.808
623.074
605.028
586.71
568.19
549.68
531.052
512.527
494.244
476.27
458.715
441.679
425.235
409.421
394.265
379.776
365.949
352.766
340.2
328.219
316.783
305.852
295.383
285.334
275.663
266.332
257.313
248.583
240.126
231.923
223.961
216.23
208.724
201.439
194.362
187.491
180.833
174.373
168.119
162.072
156.232
150.599
145.17
139.944
134.925
130.112
125.502
121.092
116.874
112.861
109.047
105.429
102.003
98.7677
95.7138
92.8211
64.2074
34.3148
27.0558
24.5175
23.7099
23.7521
24.3254
25.2751
26.5212
28.0189
29.7421
31.6747
33.8071
36.1337
38.6515
41.3596
44.2588
47.3508
50.6388
54.1272
57.8219
61.7296
65.8578
70.215
74.811
79.6563
84.7623
90.1408
95.804
101.765
108.035
114.63
121.562
128.847
136.499
144.523
152.922
161.698
170.856
180.397
190.323
200.63
211.316
222.376
233.802
245.589
257.726
270.202
283.005
296.121
309.534
323.226
337.179
351.376
365.797
380.425
395.24
410.225
425.36
440.626
456.002
471.468
487.004
502.589
518.204
533.828
549.445
565.035
580.578
596.053
611.44
626.713
641.85
656.821
671.599
686.152
700.449
714.457
728.142
741.469
754.401
766.9
778.928
790.446
801.417
811.809
821.591
830.736
839.219
847.017
854.113
860.491
866.14
871.05
875.216
878.638
881.314
883.253
884.445
884.925
884.692
883.729
882.002
879.542
876.354
872.434
867.773
862.36
856.177
849.21
841.441
832.855
823.439
813.18
802.068
790.096