/*--------------------------------*- C++ -*----------------------------------*\
  =========                 |
  \\      /  F ield         | OpenFOAM: The Open Source CFD Toolbox
   \\    /   O peration     | Website:  https://openfoam.org
    \\  /    A nd           | Version:  8
     \\/     M anipulation  |
\*---------------------------------------------------------------------------*/
FoamFile
{
    version     2.0;
    format      ascii;
    class       volScalarField;
    location    "105";
    object      k;
}
// * * * * * * * * * * * * * * * * * * * * * * * * * * * * * * * * * * * * * //

dimensions      [0 2 -2 0 0 0 0];

internalField   nonuniform List<scalar> 
12225
(
0.362827
0.344003
0.327734
0.309837
0.295372
0.283523
0.275459
0.270309
0.270351
0.271924
0.276071
0.280788
0.289961
0.295944
0.307119
0.313061
0.326167
0.328386
0.440278
0.468736
0.461615
0.448376
0.450358
0.458338
0.474435
0.498829
0.524317
0.552555
0.58084
0.60682
0.634331
0.654874
0.681254
0.694599
0.723269
0.72787
0.390413
0.417854
0.420242
0.416827
0.411637
0.407806
0.408011
0.410053
0.414524
0.421518
0.430781
0.439889
0.451421
0.461492
0.473468
0.484423
0.495054
0.509025
0.377046
0.387166
0.391467
0.391342
0.39026
0.387884
0.385659
0.384084
0.38288
0.382906
0.383376
0.38442
0.386358
0.388564
0.391113
0.394566
0.397115
0.40207
0.374435
0.376092
0.378428
0.378665
0.378275
0.3772
0.375488
0.373736
0.372009
0.370453
0.369258
0.368117
0.367394
0.366846
0.366483
0.366474
0.36655
0.367051
0.37378
0.372703
0.372659
0.372365
0.371773
0.370816
0.369553
0.36808
0.366569
0.364973
0.363523
0.362062
0.360749
0.359537
0.358399
0.357458
0.356489
0.355892
0.373775
0.371739
0.370388
0.369283
0.368235
0.367113
0.365914
0.364584
0.363235
0.361804
0.360415
0.359018
0.357667
0.356375
0.35511
0.353962
0.352795
0.351825
0.373819
0.371559
0.369635
0.367976
0.3665
0.365106
0.363774
0.362427
0.361104
0.359762
0.358443
0.357136
0.355852
0.35461
0.353386
0.352235
0.351085
0.350047
0.373832
0.371553
0.369449
0.367525
0.365776
0.364153
0.362643
0.361197
0.359814
0.358469
0.357163
0.355895
0.354657
0.353462
0.352293
0.35118
0.350082
0.349062
0.373831
0.37156
0.369418
0.367405
0.365529
0.363772
0.362132
0.360583
0.359119
0.357724
0.356389
0.355111
0.353879
0.352699
0.351557
0.350468
0.349407
0.348411
0.373829
0.37156
0.369413
0.367378
0.365458
0.363645
0.361936
0.360322
0.358796
0.35735
0.355975
0.354667
0.353418
0.352227
0.351085
0.349999
0.348951
0.347963
0.373828
0.371558
0.369409
0.367371
0.365439
0.363608
0.361875
0.360233
0.358676
0.357199
0.355797
0.354464
0.353196
0.351989
0.350836
0.349742
0.348691
0.347699
0.373827
0.371557
0.369405
0.367365
0.36543
0.363593
0.361851
0.360196
0.358625
0.357132
0.355714
0.354365
0.353082
0.351861
0.350698
0.349592
0.348535
0.347533
0.373827
0.371555
0.369401
0.36736
0.365422
0.363583
0.361837
0.360178
0.3586
0.3571
0.355673
0.354316
0.353024
0.351794
0.350622
0.349507
0.348443
0.347431
0.373826
0.371553
0.369398
0.367355
0.365416
0.363575
0.361826
0.360165
0.358585
0.357082
0.355652
0.35429
0.352994
0.351759
0.350583
0.349462
0.348393
0.347376
0.373826
0.371552
0.369396
0.367351
0.36541
0.363568
0.361817
0.360154
0.358572
0.357068
0.355636
0.354273
0.352974
0.351737
0.350558
0.349435
0.348363
0.347342
0.373825
0.371551
0.369394
0.367348
0.365406
0.363562
0.361811
0.360146
0.358563
0.357057
0.355623
0.354258
0.352959
0.35172
0.35054
0.349414
0.348341
0.347317
0.373825
0.371551
0.369393
0.367346
0.365403
0.363559
0.361806
0.36014
0.358556
0.357048
0.355614
0.354248
0.352947
0.351707
0.350525
0.349398
0.348324
0.347298
0.373825
0.37155
0.369393
0.367346
0.365403
0.363557
0.361804
0.360138
0.358553
0.357045
0.35561
0.354243
0.352941
0.3517
0.350518
0.34939
0.348314
0.347287
0.373825
0.371551
0.369394
0.367346
0.365404
0.363559
0.361807
0.36014
0.358556
0.357048
0.355613
0.354246
0.352944
0.351703
0.350521
0.349392
0.348317
0.34729
0.373825
0.371552
0.369395
0.367349
0.365407
0.363563
0.361811
0.360146
0.358563
0.357056
0.355622
0.354257
0.352957
0.351718
0.350537
0.349411
0.348337
0.347312
0.373826
0.371552
0.369397
0.367352
0.365412
0.363571
0.361822
0.360162
0.358584
0.357084
0.355657
0.3543
0.353008
0.351777
0.350605
0.349486
0.348421
0.347402
0.373826
0.371554
0.369399
0.36736
0.365429
0.363603
0.361876
0.360241
0.358692
0.357221
0.355824
0.354495
0.353229
0.35202
0.350868
0.349765
0.348714
0.347704
0.373828
0.371551
0.369412
0.367417
0.365556
0.36382
0.36219
0.360652
0.35919
0.357794
0.356457
0.355173
0.353938
0.352747
0.351603
0.350498
0.349439
0.348413
0.373823
0.371554
0.369605
0.367893
0.366339
0.364892
0.363495
0.362123
0.360762
0.359414
0.358082
0.356771
0.35549
0.35424
0.353031
0.351858
0.350737
0.349649
0.373781
0.37199
0.371113
0.370265
0.369361
0.368312
0.367049
0.36563
0.364121
0.362576
0.361031
0.359523
0.358075
0.356684
0.355383
0.354143
0.353012
0.351926
0.374297
0.375564
0.377778
0.377858
0.377291
0.375886
0.373835
0.371642
0.369506
0.367483
0.365664
0.364085
0.36271
0.361535
0.36061
0.359818
0.359289
0.3588
0.378732
0.394394
0.398294
0.396566
0.392559
0.387608
0.383642
0.380455
0.378266
0.37685
0.376495
0.376748
0.377396
0.378693
0.380435
0.382414
0.384814
0.387124
0.408344
0.427538
0.422424
0.41105
0.402226
0.397922
0.398554
0.401113
0.405979
0.413029
0.420982
0.429812
0.438811
0.448166
0.457271
0.466518
0.475273
0.484133
0.366033
0.353411
0.341988
0.330209
0.318983
0.308381
0.299409
0.291674
0.285403
0.280332
0.27668
0.273864
0.272304
0.271177
0.271168
0.271511
0.272138
0.273371
0.0110239
0.0325877
0.0491347
0.0638218
0.0771512
0.0892913
0.0999292
0.108482
0.11421
0.116292
0.113332
0.114433
0.119638
0.124634
0.125517
0.117498
0.0940284
0.101951
0.114476
0.123727
0.141372
0.151705
0.168299
0.18155
0.196166
0.211413
0.22738
0.243872
0.260869
0.278202
0.295862
0.313693
0.331705
0.349757
0.367877
0.385939
0.403992
0.421922
0.439798
0.457512
0.475147
0.492603
0.50997
0.527156
0.544257
0.561185
0.578032
0.594714
0.61132
0.627767
0.644145
0.660367
0.676521
0.69252
0.708442
0.724201
0.739874
0.755375
0.77077
0.785976
0.801055
0.815926
0.830639
0.845119
0.859408
0.873439
0.887244
0.900765
0.914023
0.926973
0.939625
0.951946
0.963937
0.975581
0.986868
0.997796
1.00835
1.01854
1.02836
1.03782
1.0469
1.05565
1.06404
1.07214
1.07988
1.08737
1.09453
1.10145
1.10812
1.11468
1.12135
1.12842
1.13436
1.14079
1.14719
1.1535
1.16023
1.16721
1.17477
1.18082
1.18746
1.19312
1.19693
1.1959
1.20136
1.21593
1.21516
1.22067
1.22698
1.23247
1.24084
1.25321
1.25344
1.25888
1.25818
1.26123
1.27296
1.26999
1.27188
1.27347
1.27483
1.27701
1.27768
1.28098
1.27716
1.27913
1.27377
1.2689
1.2625
1.2552
1.24677
1.23723
1.22635
1.21428
1.20093
1.18637
1.1706
1.15367
1.1355
1.11624
1.09594
1.07464
1.05243
1.02947
1.00582
0.981438
0.956791
0.932361
0.906583
0.882799
0.865765
0.850035
0.834307
0.818489
0.802619
0.786773
0.771025
0.755274
0.739516
0.723903
0.708665
0.69397
0.679155
0.664552
0.65034
0.636548
0.623146
0.610161
0.59762
0.585511
0.573836
0.562572
0.551714
0.541128
0.531031
0.520487
0.511458
0.498509
0.490952
0.461216
0.0256669
0.0601952
0.0829625
0.100439
0.11546
0.128855
0.14092
0.151706
0.161258
0.170089
0.180112
0.191035
0.202488
0.213849
0.224568
0.234492
0.244955
0.261099
0.28027
0.301728
0.326514
0.352694
0.378691
0.404179
0.430693
0.458309
0.486927
0.516404
0.546646
0.577534
0.608981
0.640873
0.673132
0.705656
0.738387
0.77124
0.804175
0.837127
0.870074
0.902967
0.9358
0.968539
1.00119
1.03373
1.06617
1.09849
1.13072
1.16283
1.19484
1.22675
1.25857
1.29027
1.32189
1.35339
1.38478
1.41604
1.44718
1.47816
1.50899
1.53962
1.57004
1.60023
1.63015
1.65978
1.68908
1.718
1.74653
1.7746
1.8022
1.82928
1.85579
1.8817
1.90697
1.93156
1.95545
1.97858
2.00095
2.02253
2.0433
2.06325
2.08238
2.10069
2.11816
2.13482
2.15067
2.16574
2.18005
2.19366
2.20659
2.21894
2.23077
2.24228
2.25345
2.26424
2.27474
2.28506
2.29532
2.30557
2.31589
2.32619
2.33641
2.34647
2.35633
2.36559
2.37634
2.38652
2.39579
2.40648
2.41674
2.42731
2.43669
2.44673
2.4556
2.46385
2.47194
2.48117
2.48961
2.49545
2.50271
2.50901
2.51303
2.52182
2.52354
2.52915
2.53057
2.53063
2.53061
2.52791
2.52349
2.51728
2.50922
2.49937
2.48718
2.47255
2.45542
2.43575
2.4135
2.38871
2.36137
2.33156
2.29939
2.26502
2.22861
2.19033
2.15037
2.1089
2.06605
2.02235
1.97794
1.93252
1.8872
1.84168
1.79601
1.75041
1.70509
1.66024
1.61599
1.57204
1.52831
1.48547
1.44372
1.40307
1.3632
1.32437
1.2868
1.25049
1.21534
1.18144
1.14881
1.11743
1.08729
1.05835
1.03057
1.00388
0.978272
0.95336
0.930124
0.905316
0.887845
0.842141
0.0458314
0.0916855
0.119171
0.140071
0.158125
0.174641
0.190258
0.205404
0.220507
0.236107
0.252755
0.270303
0.288676
0.307802
0.327692
0.348526
0.370761
0.395004
0.42111
0.449042
0.478815
0.510071
0.542608
0.576102
0.610622
0.646191
0.682732
0.72014
0.758321
0.79717
0.836593
0.876488
0.916765
0.957333
0.998121
1.03906
1.0801
1.12118
1.16228
1.20336
1.24441
1.28539
1.3263
1.36714
1.40789
1.44856
1.48914
1.52963
1.57003
1.61035
1.65058
1.69071
1.73076
1.77072
1.81057
1.8503
1.88991
1.92938
1.96868
2.0078
2.04672
2.0854
2.1238
2.1619
2.19966
2.23703
2.27397
2.31044
2.34638
2.38175
2.4165
2.45058
2.48394
2.51653
2.5483
2.57921
2.60922
2.63829
2.66639
2.6935
2.71959
2.74464
2.76864
2.7916
2.8135
2.83436
2.85419
2.87302
2.89089
2.90787
2.92406
2.93958
2.95434
2.96837
2.9818
2.99468
3.00712
3.01917
3.03087
3.04212
3.05293
3.06332
3.07342
3.08298
3.09275
3.1019
3.11121
3.12044
3.12953
3.13835
3.14659
3.15526
3.16326
3.17072
3.17837
3.18617
3.19277
3.1987
3.2048
3.21028
3.21476
3.21925
3.22079
3.22198
3.2216
3.21976
3.21656
3.21117
3.20367
3.19391
3.18175
3.16704
3.14951
3.12903
3.10549
3.07883
3.049
3.01603
2.97995
2.94084
2.89885
2.85413
2.80688
2.75727
2.70553
2.65186
2.59648
2.53986
2.48262
2.42488
2.36696
2.3089
2.25081
2.19294
2.1355
2.07871
2.02272
1.96755
1.91328
1.86016
1.80836
1.75788
1.70817
1.65967
1.6127
1.56727
1.52315
1.48052
1.43946
1.3999
1.36186
1.32531
1.29022
1.25653
1.22423
1.19312
1.16381
1.13454
1.11222
1.07275
0.0682262
0.1237
0.156361
0.181085
0.20241
0.22204
0.240865
0.259471
0.278332
0.297864
0.318387
0.340022
0.362821
0.386798
0.411979
0.438425
0.466259
0.495615
0.526561
0.559161
0.593448
0.629352
0.666728
0.705376
0.745177
0.786043
0.827899
0.87066
0.914234
0.958525
1.00344
1.04887
1.09474
1.14097
1.18747
1.2342
1.28109
1.3281
1.3752
1.42235
1.46952
1.5167
1.56386
1.611
1.65812
1.70519
1.75222
1.7992
1.84614
1.89302
1.93986
1.98665
2.03338
2.08006
2.12666
2.17319
2.21964
2.26597
2.31219
2.35826
2.40416
2.44986
2.49533
2.54052
2.58539
2.6299
2.674
2.71764
2.76076
2.8033
2.8452
2.88641
2.92685
2.96648
3.00522
3.04302
3.07983
3.11558
3.15023
3.18373
3.21604
3.24713
3.27696
3.30553
3.3328
3.35877
3.38345
3.40685
3.429
3.44997
3.4698
3.48856
3.50622
3.52283
3.53849
3.55324
3.56717
3.58032
3.5927
3.60432
3.61521
3.62542
3.63502
3.644
3.65262
3.66068
3.6685
3.67594
3.68305
3.68972
3.69594
3.70199
3.70754
3.71271
3.71782
3.72261
3.72633
3.72938
3.73233
3.73484
3.73587
3.73557
3.73417
3.73187
3.72799
3.7225
3.71524
3.70584
3.69416
3.68001
3.66319
3.64351
3.62077
3.59481
3.56549
3.53274
3.49651
3.4568
3.41367
3.36719
3.31751
3.26479
3.20924
3.15105
3.0905
3.0279
2.96363
2.89815
2.83199
2.76539
2.69861
2.63179
2.56509
2.49876
2.43303
2.3681
2.30415
2.24129
2.17963
2.11933
2.06052
2.00326
1.94739
1.89306
1.84042
1.78948
1.73975
1.69165
1.64529
1.60052
1.55742
1.51598
1.47615
1.43792
1.40129
1.3662
1.33302
1.30101
1.27452
1.23987
0.0912096
0.155273
0.19325
0.221942
0.246566
0.269151
0.290773
0.312118
0.333697
0.355917
0.379095
0.403449
0.429112
0.456154
0.484612
0.514515
0.545905
0.578834
0.613355
0.64951
0.687315
0.726725
0.767642
0.809935
0.853491
0.898211
0.944005
0.990778
1.03844
1.08688
1.13602
1.18576
1.23603
1.28675
1.33786
1.38928
1.44099
1.49291
1.54502
1.59727
1.64964
1.70211
1.75464
1.80723
1.85986
1.91252
1.96521
2.01792
2.07064
2.12337
2.17612
2.22887
2.28163
2.33439
2.38714
2.43988
2.49259
2.54527
2.59789
2.65043
2.70287
2.75517
2.8073
2.85922
2.91088
2.96224
3.01323
3.0638
3.11389
3.16342
3.21233
3.26055
3.30799
3.35458
3.40024
3.4449
3.48848
3.53091
3.57211
3.61202
3.65057
3.68771
3.72339
3.75756
3.79019
3.82126
3.85074
3.87864
3.90497
3.92977
3.95308
3.97491
3.99529
4.01425
4.03188
4.04821
4.06332
4.07724
4.09002
4.10168
4.11229
4.12191
4.1306
4.13841
4.14547
4.15176
4.1574
4.16242
4.16689
4.17072
4.17384
4.17639
4.17843
4.18004
4.18138
4.18219
4.18176
4.18021
4.17853
4.17617
4.17262
4.16801
4.16221
4.1552
4.14666
4.13645
4.12435
4.11013
4.09357
4.07447
4.0526
4.02776
3.99976
3.96842
3.9336
3.89519
3.85314
3.80745
3.75813
3.70529
3.64905
3.58959
3.52711
3.4619
3.39428
3.32465
3.2534
3.18099
3.10786
3.03433
2.96065
2.88702
2.81364
2.74076
2.6686
2.59739
2.52729
2.45847
2.39105
2.32517
2.26093
2.19841
2.13755
2.07845
2.02118
1.96577
1.91207
1.8602
1.8102
1.76174
1.71501
1.67005
1.62677
1.58522
1.54542
1.50738
1.47138
1.43723
1.40765
1.37207
0.113701
0.185409
0.228494
0.261069
0.288881
0.314229
0.338338
0.361983
0.385722
0.40999
0.435133
0.461414
0.48902
0.518073
0.54865
0.580795
0.614545
0.649928
0.686968
0.725678
0.766048
0.808036
0.851569
0.896552
0.942887
0.990479
1.03924
1.08906
1.13986
1.19156
1.24405
1.29727
1.35113
1.40557
1.46052
1.51593
1.57173
1.62787
1.68432
1.74103
1.79797
1.85511
1.91243
1.9699
2.0275
2.08523
2.14307
2.20102
2.25906
2.3172
2.37543
2.43375
2.49216
2.55065
2.60923
2.66787
2.72658
2.78534
2.84414
2.90294
2.96174
3.02049
3.07917
3.13772
3.19611
3.25427
3.31214
3.36967
3.42677
3.48337
3.53938
3.59473
3.64931
3.70304
3.75582
3.80754
3.85812
3.90746
3.95545
4.00202
4.04706
4.09051
4.13228
4.1723
4.21053
4.2469
4.28138
4.31396
4.34462
4.37338
4.40025
4.42524
4.44839
4.46973
4.4893
4.50716
4.52337
4.53798
4.55103
4.5626
4.57272
4.58149
4.58896
4.59522
4.60036
4.60436
4.60731
4.60933
4.61067
4.61105
4.61023
4.60837
4.60603
4.60302
4.59933
4.5948
4.58921
4.58276
4.57561
4.56759
4.55852
4.54834
4.53695
4.52426
4.51007
4.4942
4.47645
4.45663
4.43452
4.40989
4.38253
4.35223
4.31878
4.282
4.24174
4.19787
4.15032
4.09906
4.04412
3.98556
3.92352
3.8582
3.78985
3.71879
3.6454
3.57006
3.49318
3.41519
3.3365
3.25742
3.17825
3.09919
3.0205
2.94241
2.86514
2.78893
2.71394
2.64036
2.56831
2.49794
2.42935
2.36259
2.29768
2.23468
2.17362
2.11454
2.0574
2.00225
1.94911
1.89787
1.84854
1.80104
1.7552
1.71117
1.66896
1.62867
1.59052
1.55458
1.52253
1.48638
0.134997
0.21327
0.261041
0.297238
0.32803
0.355934
0.382288
0.407939
0.433492
0.459415
0.486085
0.513798
0.542786
0.573215
0.605202
0.638823
0.674127
0.711142
0.749881
0.79034
0.832498
0.87631
0.921716
0.968637
1.01699
1.06669
1.11765
1.16978
1.22299
1.27721
1.33236
1.38836
1.44514
1.50264
1.56078
1.61952
1.67879
1.73854
1.79874
1.85933
1.92028
1.98156
2.04313
2.10498
2.16707
2.2294
2.29195
2.35471
2.41767
2.48084
2.54419
2.60775
2.67149
2.73542
2.79954
2.86385
2.92832
2.99297
3.05776
3.12268
3.18772
3.25282
3.31797
3.38311
3.4482
3.51318
3.57797
3.64252
3.70673
3.77052
3.83379
3.89644
3.95837
4.01946
4.0796
4.13866
4.19652
4.25307
4.30818
4.36173
4.41361
4.46371
4.51191
4.55814
4.60229
4.6443
4.68411
4.72166
4.75694
4.78992
4.8206
4.84899
4.87511
4.89898
4.92063
4.94013
4.95752
4.97286
4.98622
4.99765
5.00722
5.01502
5.02111
5.02557
5.0286
5.03
5.02986
5.0283
5.02571
5.02183
5.01664
5.01028
5.00292
4.99455
4.98518
4.97476
4.96325
4.95073
4.93726
4.92277
4.90719
4.89046
4.8725
4.8532
4.83243
4.81003
4.78583
4.75964
4.73128
4.70053
4.66717
4.631
4.59181
4.5494
4.50363
4.45434
4.40144
4.34488
4.28468
4.22091
4.15372
4.08333
4.01002
3.93412
3.85599
3.77603
3.69462
3.61218
3.52906
3.4456
3.36209
3.27877
3.1959
3.1137
3.03242
2.95226
2.87341
2.79604
2.72032
2.64636
2.57427
2.50411
2.43592
2.36974
2.30561
2.24355
2.18355
2.12565
2.06988
2.01618
1.96454
1.9149
1.86719
1.82138
1.77738
1.73537
1.69555
1.6581
1.62404
1.58721
0.15453
0.23826
0.290161
0.329614
0.363114
0.393348
0.421736
0.44918
0.476321
0.503654
0.53158
0.560425
0.590452
0.621862
0.654807
0.689392
0.725688
0.763732
0.803541
0.845109
0.888413
0.933413
0.980056
1.02827
1.078
1.12915
1.18165
1.23542
1.2904
1.34649
1.40365
1.46178
1.52084
1.58075
1.64146
1.70291
1.76504
1.82781
1.89116
1.95505
2.01945
2.08432
2.14962
2.21532
2.28141
2.34786
2.41465
2.48179
2.54925
2.61703
2.68514
2.75356
2.8223
2.89136
2.96073
3.03042
3.10042
3.17072
3.24131
3.31217
3.38329
3.45462
3.52614
3.59779
3.66954
3.74131
3.81303
3.88463
3.95602
4.02709
4.09774
4.16785
4.2373
4.30595
4.37368
4.44033
4.50577
4.56983
4.63238
4.69325
4.75232
4.80943
4.86445
4.91725
4.96772
5.01575
5.06125
5.10415
5.1444
5.18195
5.21678
5.24888
5.27825
5.30492
5.3289
5.35025
5.36902
5.38525
5.39903
5.41042
5.41949
5.42634
5.43103
5.43354
5.43405
5.43255
5.42923
5.42416
5.41745
5.4091
5.39914
5.38768
5.3748
5.36057
5.345
5.32813
5.30998
5.29061
5.27006
5.24834
5.22541
5.20126
5.17583
5.14906
5.12084
5.09106
5.05958
5.02626
4.99093
4.95339
4.91346
4.87093
4.82561
4.77729
4.72581
4.67103
4.61282
4.55115
4.48601
4.4175
4.34576
4.27103
4.19357
4.1137
4.03178
3.94816
3.86322
3.77733
3.69083
3.60404
3.51725
3.43072
3.3447
3.25942
3.17511
3.09196
3.01018
2.92994
2.85139
2.77466
2.69985
2.62704
2.55627
2.48758
2.42101
2.35659
2.2943
2.23417
2.17624
2.12049
2.0669
2.01543
1.96603
1.9187
1.87339
1.83013
1.78904
1.75034
1.71465
1.67708
0.171899
0.260009
0.315424
0.357708
0.393605
0.425923
0.456144
0.485205
0.513769
0.542351
0.571366
0.601159
0.632013
0.664156
0.697763
0.732965
0.769853
0.808482
0.848878
0.891046
0.934968
0.980613
1.02794
1.07688
1.12739
1.1794
1.23285
1.28766
1.34378
1.40113
1.45966
1.51931
1.58001
1.64171
1.70435
1.76789
1.83226
1.89742
1.96332
2.02992
2.09718
2.16505
2.23352
2.30253
2.37208
2.44213
2.51268
2.58371
2.65521
2.72717
2.7996
2.87249
2.94585
3.01967
3.09396
3.16871
3.24393
3.31961
3.39574
3.47231
3.54929
3.62666
3.70439
3.78242
3.86071
3.93919
4.01778
4.0964
4.17496
4.25334
4.33142
4.40908
4.48617
4.56254
4.63803
4.71248
4.78571
4.85755
4.92781
4.99632
5.06289
5.12736
5.18955
5.2493
5.30646
5.36089
5.41248
5.46112
5.50672
5.54921
5.58856
5.62473
5.65771
5.68749
5.71411
5.7376
5.758
5.77537
5.78978
5.8013
5.81003
5.81602
5.81916
5.81979
5.81795
5.81372
5.80717
5.7984
5.78749
5.77453
5.75956
5.74268
5.72397
5.70352
5.68137
5.65761
5.63228
5.60546
5.57721
5.54759
5.5166
5.48426
5.45057
5.41551
5.37902
5.34104
5.30148
5.26024
5.21718
5.17216
5.12501
5.07556
5.02362
4.96902
4.91157
4.85115
4.78764
4.72098
4.6512
4.57837
4.50264
4.4242
4.34332
4.26029
4.17542
4.08905
4.00152
3.91315
3.82426
3.73514
3.64608
3.55735
3.46918
3.3818
3.29541
3.21022
3.1264
3.04414
2.96359
2.88489
2.80813
2.73339
2.66072
2.59016
2.52175
2.45553
2.3915
2.32966
2.27005
2.21267
2.15751
2.10455
2.05375
2.00512
1.95865
1.91439
1.87238
1.83268
1.79565
1.75738
0.186844
0.27834
0.336641
0.38131
0.419264
0.453403
0.485247
0.515754
0.545601
0.575307
0.605295
0.635915
0.667463
0.700177
0.734251
0.769834
0.807032
0.845918
0.886535
0.928898
0.973005
1.01883
1.06636
1.11553
1.16631
1.21864
1.27247
1.32775
1.38442
1.44244
1.50174
1.56228
1.62401
1.68687
1.75082
1.81581
1.8818
1.94872
2.01655
2.08524
2.15475
2.22504
2.29608
2.36784
2.44028
2.5134
2.58717
2.66158
2.73662
2.81228
2.88857
2.96548
3.04303
3.1212
3.20001
3.27946
3.35955
3.44027
3.52163
3.6036
3.68617
3.76933
3.85302
3.93722
4.02185
4.10687
4.19219
4.27772
4.36336
4.44899
4.53448
4.61968
4.70444
4.78858
4.87193
4.9543
5.03548
5.11527
5.19346
5.26983
5.34418
5.41629
5.48595
5.55297
5.61716
5.67835
5.73638
5.79112
5.84244
5.89025
5.93449
5.97509
6.01202
6.04528
6.07486
6.1008
6.12313
6.14191
6.15721
6.16911
6.17769
6.18289
6.18487
6.18381
6.17978
6.17285
6.16312
6.15067
6.1356
6.11799
6.09792
6.07549
6.05079
6.02391
5.99494
5.96396
5.93107
5.89637
5.85995
5.82188
5.78223
5.74106
5.69842
5.65433
5.60881
5.56185
5.51342
5.46347
5.41193
5.3587
5.30366
5.24668
5.18759
5.12626
5.06254
4.99631
4.92745
4.85592
4.78173
4.70494
4.62568
4.54412
4.46048
4.37502
4.28801
4.19975
4.11052
4.02062
3.9303
3.83984
3.7495
3.65956
3.57023
3.48172
3.39422
3.3079
3.22294
3.13952
3.05781
2.97793
2.89998
2.82403
2.75014
2.67835
2.60872
2.54127
2.47603
2.41299
2.35218
2.29362
2.23729
2.18319
2.13131
2.08165
2.03424
1.9891
1.94631
1.90587
1.86777
1.8289
0.199225
0.293211
0.353796
0.400403
0.440065
0.475745
0.508987
0.540761
0.571744
0.602455
0.633313
0.664666
0.696809
0.729985
0.764394
0.800194
0.837505
0.876412
0.916973
0.959219
1.00316
1.0488
1.09611
1.14507
1.19565
1.24782
1.30154
1.35676
1.41345
1.47157
1.53108
1.59193
1.65408
1.7175
1.78215
1.84798
1.91495
1.98303
2.05217
2.12233
2.19349
2.26559
2.33862
2.41254
2.48732
2.56294
2.63939
2.71664
2.7947
2.87357
2.95323
3.0337
3.11497
3.19705
3.27996
3.36368
3.44823
3.53361
3.61982
3.70684
3.79466
3.88327
3.97262
4.06268
4.15339
4.2447
4.33651
4.42873
4.52126
4.61397
4.70673
4.79936
4.89171
4.98358
5.07477
5.16507
5.25424
5.34206
5.42829
5.51266
5.59494
5.67488
5.75223
5.82676
5.89824
5.96647
6.03124
6.09238
6.14974
6.2032
6.25265
6.29801
6.33923
6.37628
6.40915
6.43785
6.46242
6.48291
6.49937
6.51188
6.52052
6.52527
6.52634
6.52381
6.51778
6.50833
6.49557
6.47957
6.46043
6.43825
6.41312
6.38513
6.35439
6.321
6.28507
6.2467
6.20601
6.16313
6.11817
6.07124
6.02246
5.97193
5.91976
5.86602
5.8108
5.75415
5.69612
5.63672
5.57595
5.51378
5.45017
5.38502
5.31824
5.24973
5.1794
5.10718
5.03291
4.95656
4.87814
4.79769
4.71531
4.63113
4.54534
4.45814
4.36976
4.28043
4.19039
4.09988
4.0091
3.91827
3.82762
3.73747
3.64798
3.55933
3.47167
3.38516
3.29997
3.21626
3.13423
3.05398
2.97562
2.89919
2.82477
2.75241
2.68217
2.61408
2.54818
2.48446
2.42294
2.36364
2.30656
2.25171
2.19909
2.14871
2.10059
2.05479
2.01134
1.97028
1.93136
1.89203
0.208989
0.304685
0.366991
0.415104
0.456124
0.493054
0.527454
0.560295
0.592251
0.623833
0.655452
0.687445
0.720097
0.753648
0.788295
0.824198
0.861483
0.900245
0.940552
0.982449
1.02596
1.07111
1.11788
1.16627
1.21627
1.26787
1.32102
1.37573
1.43196
1.48968
1.54888
1.60951
1.67155
1.73496
1.79973
1.86582
1.93321
2.00185
2.07172
2.14278
2.215
2.28835
2.3628
2.43833
2.5149
2.59249
2.67108
2.75067
2.83124
2.91279
2.99534
3.07889
3.16342
3.24896
3.3355
3.42306
3.51164
3.60124
3.69188
3.78353
3.8762
3.96986
4.06448
4.16003
4.25645
4.35368
4.45164
4.55023
4.64935
4.74886
4.84861
4.94844
5.04816
5.14757
5.24644
5.34455
5.44162
5.53741
5.63164
5.72402
5.81428
5.90211
5.98725
6.06941
6.14833
6.22376
6.29546
6.36322
6.42685
6.4862
6.54112
6.59151
6.63729
6.6784
6.71483
6.74657
6.77365
6.7961
6.81398
6.82737
6.83633
6.84093
6.84131
6.83756
6.82975
6.818
6.80239
6.78303
6.75999
6.73338
6.70329
6.66983
6.63309
6.59321
6.55028
6.50445
6.45584
6.40459
6.35086
6.29478
6.23652
6.17622
6.11404
6.05013
5.98462
5.91766
5.84935
5.77981
5.70912
5.63734
5.56451
5.49062
5.41562
5.33948
5.26217
5.18346
5.10338
5.02199
4.93931
4.85535
4.77018
4.68386
4.59654
4.50835
4.41944
4.32999
4.24016
4.1501
4.05997
3.96992
3.88008
3.79074
3.70211
3.61431
3.52748
3.44174
3.35723
3.27411
3.19262
3.11284
3.03485
2.95871
2.88448
2.81222
2.74201
2.67389
2.60789
2.54402
2.48229
2.42272
2.36533
2.31012
2.25712
2.20634
2.15781
2.11157
2.06767
2.02611
1.98656
1.94696
0.216175
0.312903
0.376414
0.425623
0.467654
0.505534
0.540834
0.574521
0.607265
0.639565
0.671816
0.704343
0.737417
0.771264
0.806072
0.841997
0.879164
0.917671
0.957594
0.998989
1.04189
1.08634
1.13233
1.17989
1.22902
1.27971
1.33197
1.38578
1.44116
1.49808
1.55656
1.61653
1.67797
1.7409
1.80529
1.87114
1.93843
2.00713
2.07722
2.14866
2.22145
2.29554
2.37092
2.44755
2.52542
2.6045
2.68477
2.76621
2.84878
2.93256
3.01754
3.1037
3.19106
3.27959
3.36932
3.46025
3.5524
3.64577
3.74037
3.8362
3.93324
4.03149
4.13091
4.23148
4.33314
4.43583
4.53948
4.64398
4.74924
4.85511
4.96145
5.06807
5.17479
5.28138
5.38761
5.49321
5.59792
5.70144
5.80347
5.90369
6.00178
6.09741
6.19027
6.28003
6.36639
6.44905
6.52774
6.6022
6.67222
6.73758
6.79812
6.85369
6.90421
6.94958
6.98976
7.02475
7.05454
7.07917
7.0987
7.11319
7.12272
7.12737
7.12727
7.12253
7.11318
7.09934
7.08111
7.05857
7.03182
7.00095
6.96605
6.92723
6.8846
6.83829
6.7884
6.73509
6.6785
6.6188
6.55615
6.49073
6.42273
6.35235
6.27978
6.20525
6.12898
6.05117
5.97202
5.89177
5.81057
5.72856
5.64576
5.56204
5.47781
5.39319
5.30819
5.22297
5.13762
5.05178
4.96543
4.87856
4.79117
4.70331
4.61505
4.52646
4.43764
4.3487
4.25972
4.1708
4.08202
3.99348
3.90529
3.81793
3.73134
3.64557
3.56071
3.47686
3.39412
3.3126
3.23254
3.15409
3.0773
3.00223
2.92892
2.85745
2.78794
2.72042
2.65491
2.59144
2.53002
2.47066
2.4134
2.35827
2.30527
2.25444
2.2058
2.15939
2.11524
2.07335
2.03337
1.99369
0.220837
0.318046
0.382298
0.432217
0.474921
0.513451
0.549383
0.583681
0.617005
0.649844
0.68258
0.715522
0.748922
0.782989
0.817897
0.853789
0.890787
0.928984
0.968461
1.00928
1.05149
1.09512
1.1402
1.18678
1.23486
1.28448
1.33561
1.38827
1.44249
1.49831
1.55577
1.61477
1.67534
1.73747
1.80117
1.86643
1.93326
2.00163
2.07153
2.14295
2.21587
2.29028
2.36614
2.44345
2.52218
2.60231
2.68382
2.7667
2.85093
2.93658
3.0236
3.112
3.20177
3.29289
3.38534
3.47919
3.57444
3.67109
3.76916
3.86865
3.96955
4.07184
4.1755
4.28051
4.38682
4.49437
4.60309
4.71289
4.82367
4.93528
5.04759
5.1604
5.27352
5.38673
5.49976
5.61234
5.72419
5.83498
5.94439
6.05205
6.15763
6.26076
6.36106
6.45819
6.5518
6.64154
6.72709
6.80817
6.8845
6.95586
7.02202
7.08282
7.13812
7.18782
7.23185
7.27018
7.3028
7.32974
7.35105
7.36678
7.37702
7.38187
7.38148
7.37594
7.36523
7.34949
7.32882
7.30329
7.27298
7.238
7.19843
7.15438
7.10596
7.05328
6.99649
6.93572
6.87114
6.80292
6.73126
6.65637
6.57846
6.49777
6.41456
6.32909
6.24171
6.15266
6.06222
5.97032
5.87751
5.78421
5.69075
5.59787
5.50524
5.413
5.32118
5.2302
5.13925
5.04867
4.95849
4.86871
4.77929
4.69023
4.60152
4.51318
4.42521
4.33764
4.25048
4.16372
4.07737
3.99144
3.90581
3.82104
3.73705
3.65388
3.57158
3.49023
3.40988
3.33063
3.25299
3.17685
3.10221
3.0291
2.95757
2.88766
2.81953
2.75326
2.68886
2.62637
2.56579
2.50714
2.45049
2.39586
2.34327
2.29275
2.24433
2.19804
2.15389
2.11186
2.0717
2.03216
0.22336
0.320429
0.384956
0.435205
0.478249
0.517129
0.553422
0.588086
0.621768
0.654932
0.687988
0.721222
0.754859
0.789084
0.824052
0.859894
0.896717
0.934614
0.973661
1.01393
1.05548
1.09831
1.14248
1.18803
1.23504
1.28357
1.33357
1.38508
1.43812
1.49271
1.54887
1.60661
1.66599
1.72704
1.78976
1.85417
1.92029
1.9881
2.0576
2.12879
2.20166
2.27619
2.35237
2.43018
2.50961
2.59062
2.67321
2.75735
2.84301
2.93019
3.01891
3.10916
3.20095
3.29427
3.38909
3.48545
3.58332
3.68276
3.78376
3.88634
3.99048
4.09617
4.2034
4.31213
4.42234
4.53397
4.64696
4.76122
4.87666
4.99316
5.11056
5.2287
5.34736
5.46633
5.58533
5.70409
5.8223
5.93962
6.05569
6.17014
6.28259
6.39263
6.49986
6.60388
6.7043
6.80072
6.8928
6.9802
7.0626
7.13972
7.21132
7.2772
7.33717
7.39111
7.43893
7.48057
7.51601
7.54526
7.56836
7.58536
7.59636
7.60144
7.60084
7.59462
7.58267
7.56515
7.54214
7.51373
7.47998
7.44099
7.39684
7.34764
7.29349
7.23451
7.17085
7.10264
7.03007
6.95331
6.87259
6.78815
6.70024
6.60911
6.51507
6.41823
6.31898
6.21783
6.11522
6.01215
5.90882
5.80547
5.70283
5.6002
5.49834
5.39757
5.29809
5.20007
5.10342
5.00821
4.91445
4.82209
4.73109
4.64137
4.55286
4.46549
4.37919
4.29387
4.20945
4.12583
4.04294
3.96071
3.8791
3.79823
3.71811
3.63876
3.56021
3.4825
3.40566
3.32968
3.25502
3.18169
3.10968
3.03905
2.96983
2.90206
2.83608
2.77179
2.70921
2.64835
2.58921
2.53181
2.47624
2.42257
2.37081
2.32098
2.27311
2.22724
2.18336
2.14146
2.1014
2.06228
0.223289
0.319986
0.384441
0.434686
0.477758
0.516697
0.553087
0.587886
0.621739
0.655106
0.688401
0.721864
0.7557
0.790074
0.825123
0.86096
0.89768
0.935366
0.974093
1.01393
1.05498
1.09719
1.14064
1.18537
1.23141
1.27879
1.32757
1.37782
1.42963
1.48304
1.53807
1.59476
1.65315
1.71328
1.77516
1.83884
1.90434
1.97165
2.04081
2.1118
2.18462
2.25928
2.33575
2.41401
2.49406
2.57588
2.65943
2.7447
2.83166
2.9203
3.01063
3.10263
3.19633
3.29165
3.38855
3.48705
3.58713
3.68885
3.79223
3.89729
4.00401
4.11238
4.22238
4.33399
4.44719
4.56194
4.67819
4.79588
4.91491
5.03518
5.15656
5.27889
5.40197
5.52558
5.64946
5.77332
5.89685
6.0197
6.14149
6.26184
6.38031
6.49648
6.60991
6.72015
6.82677
6.92933
7.02743
7.12068
7.20874
7.29127
7.368
7.43866
7.50306
7.56102
7.61244
7.65722
7.69532
7.72674
7.7515
7.76966
7.78128
7.78647
7.78559
7.77865
7.7654
7.74604
7.72063
7.68926
7.65198
7.60888
7.56004
7.50556
7.44554
7.38012
7.30942
7.23359
7.15282
7.0673
6.9772
6.88263
6.784
6.68166
6.576
6.46789
6.35759
6.24544
6.13191
6.01802
5.90333
5.78876
5.67493
5.56211
5.4508
5.34143
5.23428
5.12959
5.02743
4.92787
4.83089
4.73645
4.64445
4.55476
4.46723
4.3817
4.29799
4.21591
4.13527
4.05588
3.97756
3.90015
3.82353
3.74769
3.67257
3.59816
3.52445
3.45145
3.37919
3.30773
3.23724
3.16781
3.09947
3.03228
2.96627
2.90142
2.83807
2.77621
2.71586
2.65705
2.5998
2.54413
2.49019
2.43798
2.38751
2.33879
2.29185
2.24671
2.20339
2.16198
2.12234
2.08391
0.2223
0.317773
0.381632
0.43148
0.474269
0.513021
0.549314
0.584107
0.618036
0.651546
0.684987
0.718619
0.752637
0.787197
0.822419
0.858403
0.895231
0.932976
0.971692
1.01143
1.05222
1.09411
1.13721
1.18156
1.22718
1.27414
1.32248
1.37227
1.42359
1.4765
1.53105
1.5873
1.64528
1.70506
1.76667
1.83016
1.89554
1.96286
2.03212
2.10334
2.17651
2.25164
2.32871
2.40771
2.4886
2.57137
2.65599
2.74243
2.83066
2.92065
3.01238
3.10582
3.20095
3.29772
3.39612
3.49615
3.5978
3.70108
3.806
3.91256
4.02076
4.1306
4.24207
4.35516
4.46986
4.58615
4.70401
4.82338
4.94421
5.06643
5.18991
5.31454
5.44014
5.56649
5.69335
5.82045
5.94747
6.07406
6.19985
6.32442
6.44733
6.56811
6.68631
6.80142
6.91296
7.02047
7.12349
7.22158
7.31435
7.40142
7.48248
7.55721
7.62539
7.6868
7.74128
7.78874
7.82909
7.8623
7.8884
7.90741
7.9194
7.92445
7.92317
7.91537
7.90073
7.87944
7.85158
7.81719
7.77635
7.72911
7.67556
7.6158
7.5499
7.47794
7.40005
7.31643
7.22724
7.13274
7.03325
6.9292
6.82076
6.70837
6.5924
6.47377
6.3522
6.22857
6.10347
5.97768
5.85163
5.72607
5.60168
5.47902
5.35866
5.24114
5.12686
5.01611
4.90907
4.80583
4.70638
4.61065
4.5185
4.42974
4.34414
4.26143
4.18133
4.10354
4.02775
3.95366
3.88097
3.80945
3.73888
3.66913
3.60008
3.53166
3.46383
3.39656
3.32986
3.26377