/*--------------------------------*- C++ -*----------------------------------*\
  =========                 |
  \\      /  F ield         | OpenFOAM: The Open Source CFD Toolbox
   \\    /   O peration     | Website:  https://openfoam.org
    \\  /    A nd           | Version:  8
     \\/     M anipulation  |
\*---------------------------------------------------------------------------*/
FoamFile
{
    version     2.0;
    format      ascii;
    class       volScalarField;
    location    "105";
    object      nut;
}
// * * * * * * * * * * * * * * * * * * * * * * * * * * * * * * * * * * * * * //

dimensions      [0 2 -1 0 0 0 0];

internalField   nonuniform List<scalar> 
12225
(
4.14967e-05
3.9343e-05
3.7482e-05
3.54351e-05
3.37807e-05
3.24256e-05
3.15033e-05
3.09143e-05
3.09188e-05
3.11007e-05
3.15716e-05
3.2115e-05
3.3159e-05
3.38349e-05
3.5149e-05
3.57203e-05
3.74514e-05
3.67705e-05
0.000332383
0.000215174
0.000179306
0.00015764
0.000146237
0.000138167
0.000132679
0.000131738
0.000129403
0.000130177
0.000128928
0.00012957
0.00012854
0.000128684
0.000128022
0.000127459
0.00012767
0.000126312
0.000675111
0.000450711
0.000355857
0.000309742
0.000275356
0.000251
0.000231748
0.00021718
0.000202623
0.000192074
0.000182542
0.000175075
0.000169313
0.000163398
0.000160259
0.00015506
0.000153672
0.000149122
0.000833734
0.000684776
0.000572117
0.000499844
0.000449553
0.000411829
0.000380831
0.00035587
0.000334018
0.000314604
0.000298283
0.000281458
0.000270201
0.000255661
0.000247918
0.000235591
0.000229622
0.000219379
0.000861298
0.000802509
0.000742216
0.000676457
0.000624087
0.000581254
0.000545925
0.000514417
0.000489533
0.000464243
0.000445803
0.000423803
0.000409746
0.000390411
0.000379412
0.000362487
0.000353516
0.000338182
0.000854991
0.00084035
0.000822239
0.000786424
0.00075093
0.000715814
0.000685801
0.000656022
0.000632546
0.000607367
0.000588919
0.000567023
0.000552065
0.000532737
0.000520318
0.000503093
0.000492409
0.000476271
0.000852912
0.000850686
0.000844245
0.000832823
0.000817438
0.000796953
0.000777906
0.000756668
0.000738885
0.000719045
0.000703455
0.000685454
0.000671935
0.000655629
0.000643929
0.000628997
0.000618803
0.0006042
0.000851925
0.00085181
0.000850177
0.000847388
0.000841458
0.000833719
0.000824895
0.000813381
0.000802793
0.000790413
0.000779656
0.000767431
0.00075729
0.000745577
0.000736274
0.000725151
0.000716666
0.000705385
0.000851753
0.000851539
0.000851038
0.000850335
0.000848883
0.000846163
0.000843035
0.000838289
0.000833391
0.000827332
0.000821176
0.000814714
0.000808325
0.000801405
0.000795076
0.000788192
0.000781871
0.000774836
0.000851771
0.000851388
0.000851048
0.000850631
0.000850249
0.000849365
0.000848405
0.000846775
0.000844949
0.000842517
0.000839904
0.000836769
0.00083375
0.00083009
0.000826883
0.000822811
0.000819739
0.000815079
0.000851788
0.000851358
0.000851013
0.000850613
0.000850329
0.000849904
0.000849525
0.000848926
0.000848299
0.000847387
0.000846456
0.000845162
0.00084397
0.000842322
0.000840957
0.000838978
0.000837574
0.000835272
0.000851789
0.000851359
0.000850996
0.000850605
0.000850292
0.000849938
0.000849645
0.000849279
0.000848953
0.000848501
0.000848094
0.0008475
0.000846988
0.00084623
0.000845624
0.000844697
0.000844032
0.000842942
0.000851786
0.000851363
0.000850986
0.000850604
0.000850269
0.000849926
0.00084963
0.000849312
0.000849041
0.000848727
0.000848459
0.000848122
0.000847839
0.00084746
0.00084715
0.000846718
0.000846379
0.000845894
0.000851783
0.000851364
0.000850978
0.000850602
0.000850256
0.000849916
0.000849607
0.000849299
0.000849022
0.00084874
0.000848487
0.000848223
0.000847987
0.000847733
0.000847507
0.000847258
0.000847035
0.000846786
0.000851781
0.000851364
0.000850973
0.000850598
0.000850246
0.000849909
0.000849592
0.000849287
0.000849
0.000848723
0.000848464
0.000848212
0.000847976
0.000847746
0.000847531
0.00084732
0.000847121
0.000846927
0.00085178
0.000851363
0.000850969
0.000850594
0.000850239
0.000849901
0.000849581
0.000849275
0.000848985
0.000848708
0.000848445
0.000848193
0.000847954
0.000847725
0.000847507
0.000847299
0.000847101
0.000846911
0.000851779
0.000851362
0.000850967
0.000850591
0.000850234
0.000849895
0.000849573
0.000849266
0.000848974
0.000848696
0.000848431
0.000848178
0.000847936
0.000847706
0.000847486
0.000847276
0.000847076
0.000846884
0.000851779
0.000851362
0.000850965
0.000850589
0.000850231
0.000849891
0.000849567
0.00084926
0.000848966
0.000848687
0.00084842
0.000848166
0.000847923
0.000847692
0.00084747
0.000847259
0.000847057
0.000846863
0.000851779
0.000851362
0.000850965
0.000850588
0.00085023
0.000849889
0.000849565
0.000849257
0.000848963
0.000848683
0.000848416
0.000848161
0.000847917
0.000847684
0.000847461
0.000847249
0.000847045
0.000846851
0.000851779
0.000851362
0.000850966
0.000850589
0.000850231
0.000849892
0.000849568
0.00084926
0.000848966
0.000848686
0.000848419
0.000848164
0.00084792
0.000847687
0.000847463
0.00084725
0.000847046
0.00084685
0.000851779
0.000851363
0.000850967
0.000850592
0.000850235
0.000849897
0.000849573
0.000849267
0.000848973
0.000848695
0.000848425
0.00084817
0.000847922
0.000847686
0.000847454
0.000847235
0.000847016
0.000846811
0.000851778
0.000851366
0.000850968
0.000850599
0.00085024
0.000849908
0.00084958
0.000849275
0.000848965
0.000848672
0.000848366
0.000848073
0.000847758
0.000847458
0.000847126
0.000846815
0.000846461
0.00084614
0.000851777
0.000851374
0.000850972
0.000850615
0.000850241
0.00084989
0.000849479
0.000849055
0.00084853
0.000847979
0.000847302
0.000846606
0.000845769
0.000844942
0.000843958
0.000843034
0.000841924
0.000840947
0.000851802
0.00085141
0.000850971
0.000850549
0.000849861
0.000848967
0.000847608
0.000845981
0.000843905
0.000841638
0.000838958
0.000836218
0.000833122
0.00083012
0.000826771
0.00082369
0.000820196
0.000817193
0.000852138
0.000851403
0.000850235
0.000848252
0.000844473
0.000839356
0.000832713
0.000825765
0.000817918
0.000810005
0.000801623
0.000793635
0.000785343
0.000777719
0.00076976
0.00076272
0.000755148
0.000748824
0.000854143
0.000847718
0.000840126
0.00082712
0.000808712
0.000789645
0.000769979
0.000751418
0.000733313
0.000716901
0.000700947
0.000686792
0.000672849
0.00066069
0.000648406
0.000637971
0.000626993
0.000618065
0.000854972
0.000818336
0.000776235
0.000726629
0.000684946
0.000649854
0.000618471
0.000592022
0.000568396
0.000548316
0.000529708
0.000514005
0.000498776
0.000486039
0.000473238
0.000462743
0.000451672
0.000442857
0.00080749
0.000666876
0.000570558
0.000509851
0.000465657
0.000431191
0.000404144
0.0003825
0.000364209
0.00034907
0.00033596
0.000325088
0.000314507
0.000306266
0.000297995
0.000291397
0.000284325
0.000278974
0.000501855
0.000348404
0.000292692
0.000259173
0.000236326
0.000221176
0.000211549
0.000204016
0.000198486
0.00019506
0.000192225
0.00019037
0.00018859
0.000187445
0.000186174
0.000185482
0.000184567
0.000184156
7.27286e-05
7.02229e-05
6.7954e-05
6.56134e-05
6.33828e-05
6.12764e-05
5.94929e-05
5.79571e-05
5.67103e-05
5.57027e-05
5.49772e-05
5.44178e-05
5.41075e-05
5.3886e-05
5.38759e-05
5.39607e-05
5.40679e-05
5.43204e-05
3.3969e-06
4.57865e-05
6.89547e-05
8.94071e-05
0.000107747
0.000124097
0.00013784
0.000148275
0.000155037
0.000159175
0.000163891
0.000165994
0.000173865
0.000178553
0.00017101
0.000141452
2.00501e-05
2.20034e-05
2.64361e-05
3.01264e-05
3.93846e-05
4.70785e-05
5.13528e-05
5.32145e-05
5.52936e-05
5.73191e-05
5.93505e-05
6.13636e-05
6.33626e-05
6.53294e-05
6.72677e-05
6.91626e-05
7.10211e-05
7.28311e-05
7.46011e-05
7.63205e-05
7.80003e-05
7.96304e-05
8.12229e-05
8.27684e-05
8.42793e-05
8.57466e-05
8.7183e-05
8.85796e-05
8.99493e-05
9.12828e-05
9.25927e-05
9.38696e-05
9.51257e-05
9.63512e-05
9.75584e-05
9.87372e-05
9.98991e-05
0.000101034
0.000102154
0.000103247
0.000104324
0.000105376
0.000106411
0.000107421
0.000108414
0.000109381
0.00011033
0.000111251
0.000112153
0.000113026
0.000113878
0.0001147
0.000115499
0.000116267
0.000117009
0.000117719
0.000118401
0.000119051
0.000119671
0.000120258
0.000120814
0.000121337
0.000121829
0.000122288
0.000122716
0.000123111
0.000123475
0.000123808
0.000124111
0.000124388
0.000124639
0.000124877
0.000125113
0.000125377
0.000125685
0.000125568
0.000125663
0.000125897
0.000126005
0.000126206
0.000126375
0.000126547
0.000126285
0.000126375
0.000126509
0.000126543
0.000126206
0.000125302
0.00012648
0.000128488
0.000125764
0.000126843
0.000125739
0.000127357
0.000126676
0.000128765
0.000128597
0.000129003
0.000126719
0.000127623
0.000129433
0.000126895
0.000127266
0.000127044
0.000127528
0.000127182
0.000127986
0.000128448
0.000127111
0.000128069
0.000127588
0.000127392
0.00012706
0.000126708
0.000126307
0.000125877
0.000125377
0.000124826
0.000124212
0.000123539
0.000122802
0.000122016
0.000121149
0.00012022
0.000119231
0.000118173
0.000117042
0.00011585
0.000114622
0.000113285
0.000111834
0.000110613
0.000108879
0.000106321
0.00010502
0.000104009
0.000103007
0.000101981
0.000100932
9.98479e-05
9.87798e-05
9.77103e-05
9.66049e-05
9.54544e-05
9.42721e-05
9.32368e-05
9.21242e-05
9.0983e-05
8.9845e-05
8.8726e-05
8.76171e-05
8.65192e-05
8.54406e-05
8.43802e-05
8.33398e-05
8.23198e-05
8.132e-05
8.03359e-05
7.93726e-05
7.83897e-05
7.74772e-05
7.63281e-05
7.54229e-05
7.31466e-05
7.96667e-06
7.30241e-05
0.000146196
0.000201578
0.000241013
0.000268293
0.000286332
0.000297124
0.000301589
0.000300995
0.00029915
0.000299668
0.000299547
0.000295067
0.000282511
0.000259619
0.000227601
0.000232273
0.000245589
0.000262665
0.000283397
0.000303856
0.000317976
0.000329951
0.000342354
0.000355426
0.000369227
0.000383707
0.000398776
0.000414347
0.000430318
0.000446594
0.000463071
0.000479669
0.000496302
0.000512905
0.00052941
0.000545771
0.000561941
0.000577892
0.000593596
0.000609036
0.000624192
0.000639053
0.000653652
0.000668007
0.000682123
0.000696013
0.000709687
0.000723157
0.000736433
0.000749528
0.000762452
0.000775214
0.00078782
0.000800275
0.000812582
0.000824742
0.000836755
0.000848615
0.00086032
0.000871861
0.00088323
0.000894413
0.000905399
0.00091617
0.000926715
0.000937009
0.000947041
0.000956784
0.000966225
0.000975335
0.0009841
0.000992494
0.0010005
0.0010081
0.00101528
0.00102202
0.00102831
0.00103413
0.00103951
0.00104442
0.00104885
0.0010528
0.0010563
0.00105935
0.001062
0.00106423
0.00106606
0.00106743
0.00106814
0.00106815
0.00106897
0.00106942
0.0010695
0.00106958
0.00106932
0.00106892
0.0010684
0.00106972
0.00107123
0.00107379
0.00107903
0.00107788
0.00108575
0.00108219
0.0010823
0.00108683
0.00108854
0.0010979
0.00109309
0.00109887
0.00110581
0.00110218
0.00110322
0.00111171
0.00111456
0.00110942
0.0011152
0.00111883
0.0011235
0.00112721
0.00113137
0.00113635
0.00113509
0.00113889
0.00114313
0.00114621
0.00114887
0.00115112
0.00115295
0.00115453
0.00115531
0.00115534
0.00115464
0.00115315
0.00115085
0.00114774
0.00114378
0.00113892
0.00113321
0.00112669
0.00111936
0.00111126
0.00110252
0.0010931
0.00108263
0.00107227
0.00106143
0.00104538
0.00102747
0.00100875
0.000989587
0.000970195
0.000950725
0.000931196
0.00091182
0.000892405
0.000873234
0.000854413
0.00083588
0.000817988
0.000800302
0.000782947
0.000766027
0.00074955
0.000733388
0.000717596
0.000702219
0.000687228
0.000672619
0.0006584
0.000644469
0.000630978
0.00061738
0.000604678
0.000590488
0.000578528
0.000559357
0.000504697
1.42217e-05
0.000105957
0.000206423
0.000286618
0.000347168
0.000391131
0.000421279
0.000440103
0.000450517
0.000455674
0.000460856
0.000466318
0.00047247
0.000478405
0.000483166
0.000486929
0.000492385
0.000508126
0.000529784
0.000555024
0.000582748
0.00060932
0.00063469
0.000660316
0.00068689
0.000715302
0.000745198
0.0007761
0.000807781
0.000840076
0.00087284
0.000905907
0.000939069
0.000972236
0.0010053
0.00103816
0.00107073
0.00110295
0.00113476
0.00116612
0.001197
0.00122739
0.00125729
0.00128669
0.00131562
0.00134408
0.0013721
0.00139969
0.00142687
0.00145366
0.00148007
0.00150613
0.00153185
0.00155725
0.00158233
0.00160711
0.00163159
0.00165577
0.00167965
0.00170323
0.00172651
0.00174946
0.00177208
0.00179434
0.00181624
0.00183773
0.00185881
0.00187943
0.00189957
0.00191919
0.00193826
0.00195676
0.00197463
0.00199185
0.00200839
0.00202422
0.0020393
0.0020536
0.00206712
0.00207983
0.00209172
0.00210278
0.00211301
0.00212241
0.00213097
0.00213872
0.00214565
0.00215175
0.002157
0.00216141
0.00216502
0.00216812
0.00217105
0.00217335
0.00217515
0.0021766
0.00217775
0.00217887
0.00218034
0.00218268
0.00218534
0.0021886
0.00219246
0.00219386
0.00219782
0.00219686
0.00219911
0.00220294
0.00220635
0.00221138
0.00221104
0.00221645
0.00222084
0.00222055
0.00222389
0.00223145
0.00223465
0.00223528
0.00224128
0.00224645
0.00225261
0.00225889
0.00226354
0.00226715
0.0022687
0.0022728
0.00227676
0.0022797
0.00228176
0.00228288
0.00228295
0.00228197
0.00227965
0.0022759
0.00227068
0.00226391
0.00225552
0.0022455
0.00223382
0.00222046
0.00220546
0.00218887
0.00217075
0.00215116
0.00213026
0.00210808
0.00208447
0.00206008
0.0020348
0.00200567
0.00197402
0.00194093
0.00190703
0.00187267
0.00183811
0.00180346
0.00176896
0.00173469
0.00170098
0.00166785
0.00163599
0.00160534
0.00157462
0.00154459
0.00151546
0.00148721
0.00145936
0.00143216
0.00140571
0.00137987
0.00135467
0.00133007
0.00130592
0.00128233
0.00125864
0.00123586
0.00121141
0.00118764
0.00116567
0.00108911
2.11362e-05
0.000135179
0.00025859
0.000359251
0.000437418
0.000496251
0.000539497
0.000570699
0.000593405
0.00061131
0.000626077
0.000639685
0.000653715
0.000668741
0.000684991
0.000702945
0.000723737
0.000748854
0.000777596
0.000808921
0.000841759
0.00087653
0.000913183
0.000951595
0.000991803
0.00103319
0.00107559
0.00111899
0.00116318
0.00120802
0.00125347
0.00129947
0.00134574
0.00139197
0.001438
0.00148371
0.001529
0.0015738
0.00161805
0.00166172
0.00170476
0.00174718
0.00178895
0.00183009
0.0018706
0.0019105
0.00194981
0.00198854
0.00202672
0.00206437
0.0021015
0.00213814
0.0021743
0.00221001
0.00224528
0.00228011
0.00231452
0.0023485
0.00238207
0.0024152
0.00244791
0.00248017
0.00251196
0.00254327
0.00257408
0.00260434
0.00263404
0.00266313
0.00269158
0.00271935
0.00274639
0.00277267
0.00279814
0.00282276
0.00284648
0.00286927
0.00289109
0.00291191
0.0029317
0.00295044
0.0029681
0.00298468
0.00300017
0.00301457
0.00302787
0.00304007
0.00305117
0.00306116
0.00307005
0.00307788
0.00308475
0.00309083
0.00309621
0.00310082
0.00310475
0.00310812
0.00311108
0.00311385
0.00311668
0.00311972
0.00312286
0.00312611
0.00312925
0.00313153
0.00313399
0.00313503
0.00313723
0.00314001
0.00314279
0.00314558
0.00314701
0.00315021
0.00315265
0.00315395
0.00315719
0.0031623
0.00316563
0.00316783
0.00317156
0.00317622
0.00318181
0.00318485
0.00318802
0.00319065
0.00319226
0.00319445
0.00319613
0.0031968
0.00319636
0.00319468
0.00319158
0.00318725
0.00318128
0.00317351
0.00316383
0.00315214
0.00313837
0.00312246
0.0031044
0.00308417
0.00306182
0.0030374
0.00301098
0.00298266
0.00295257
0.00292083
0.00288747
0.00285279
0.00281671
0.00277795
0.00273695
0.0026944
0.00265088
0.00260676
0.00256233
0.00251779
0.00247335
0.0024292
0.00238561
0.00234267
0.00230074
0.00226008
0.00222034
0.00218237
0.00214582
0.00211071
0.00207569
0.00204162
0.0020087
0.0019765
0.00194511
0.00191449
0.00188441
0.0018549
0.00182544
0.00179658
0.00176667
0.00173605
0.00171007
0.00163825
2.82046e-05
0.000161212
0.000305285
0.000424285
0.000518774
0.000591841
0.000647817
0.000690643
0.000723891
0.000750764
0.000773889
0.00079544
0.00081706
0.00083983
0.000864441
0.00089141
0.000921208
0.000954155
0.000990139
0.00102886
0.00107004
0.0011136
0.00115939
0.00120724
0.00125692
0.00130813
0.00136064
0.00141428
0.00146889
0.00152424
0.00158004
0.00163603
0.00169199
0.00174783
0.00180341
0.00185864
0.00191341
0.00196764
0.00202127
0.00207424
0.00212652
0.00217809
0.00222893
0.00227906
0.00232848
0.0023772
0.00242523
0.00247258
0.00251929
0.00256536
0.00261082
0.00265569
0.0027
0.00274375
0.00278697
0.00282966
0.00287184
0.00291351
0.00295467
0.00299532
0.00303544
0.00307504
0.0031141
0.00315258
0.00319048
0.00322774
0.00326436
0.00330027
0.00333545
0.00336984
0.00340341
0.0034361
0.00346787
0.00349866
0.00352843
0.00355714
0.00358473
0.00361117
0.00363641
0.00366044
0.00368322
0.00370473
0.00372496
0.0037439
0.00376154
0.00377786
0.00379287
0.00380654
0.00381891
0.00383
0.0038399
0.00384871
0.00385648
0.00386326
0.00386911
0.00387414
0.0038785
0.00388235
0.00388584
0.00388906
0.00389203
0.00389472
0.00389703
0.00389877
0.00390013
0.00390087
0.0039018
0.00390289
0.00390393
0.00390481
0.00390535
0.00390619
0.00390626
0.00390636
0.00390854
0.00391238
0.00391377
0.00391365
0.00391489
0.00391686
0.00391845
0.00391948
0.00392025
0.00392056
0.00392028
0.00391978
0.0039186
0.00391643
0.0039131
0.00390844
0.00390226
0.00389455
0.00388504
0.00387357
0.00386
0.0038442
0.00382608
0.00380558
0.00378265
0.00375731
0.00372956
0.00369948
0.00366714
0.00363267
0.0035962
0.00355787
0.00351778
0.00347609
0.00343278
0.00338737
0.00334005
0.00329129
0.00324151
0.00319108
0.00314029
0.00308936
0.00303851
0.00298795
0.00293793
0.00288858
0.00284015
0.00279313
0.00274703
0.00270236
0.00265933
0.0026186
0.00257933
0.0025417
0.00250571
0.00247033
0.00243591
0.00240238
0.00236938
0.00233694
0.00230465
0.00227274
0.00224029
0.00220682
0.00217769
0.00210858
3.50978e-05
0.00018444
0.000346715
0.00048236
0.00059184
0.000678341
0.000746346
0.000800123
0.000843391
0.000879375
0.00091082
0.000939991
0.000968672
0.000998181
0.00102944
0.00106305
0.00109943
0.00113878
0.00118109
0.00122629
0.0012742
0.00132468
0.00137753
0.00143253
0.00148942
0.00154794
0.00160783
0.00166885
0.00173077
0.00179335
0.00185634
0.00191952
0.0019827
0.00204574
0.0021085
0.00217087
0.00223275
0.00229405
0.00235472
0.0024147
0.00247395
0.00253246
0.0025902
0.00264717
0.00270335
0.00275878
0.00281344
0.00286737
0.00292059
0.0029731
0.00302495
0.00307614
0.0031267
0.00317666
0.00322603
0.00327482
0.00332305
0.00337073
0.00341786
0.00346444
0.00351047
0.00355594
0.00360082
0.00364511
0.00368877
0.00373177
0.00377409
0.00381567
0.00385648
0.00389647
0.00393559
0.00397379
0.004011
0.00404719
0.00408228
0.00411622
0.00414897
0.00418046
0.00421066
0.00423951
0.00426699
0.00429305
0.00431766
0.00434082
0.00436249
0.00438265
0.0044013
0.00441843
0.00443403
0.00444814
0.00446081
0.0044721
0.00448206
0.00449076
0.00449825
0.00450463
0.00451001
0.00451451
0.00451826
0.00452133
0.00452375
0.00452556
0.00452672
0.00452721
0.00452713
0.00452637
0.00452531
0.00452416
0.0045229
0.00452115
0.00451927
0.00451744
0.00451499
0.00451277
0.00451144
0.00451013
0.00450795
0.00450532
0.00450295
0.00450077
0.0044984
0.00449577
0.00449291
0.00448971
0.00448607
0.00448201
0.00447729
0.00447168
0.00446501
0.0044571
0.00444779
0.00443693
0.0044243
0.00440973
0.00439306
0.00437415
0.00435288
0.00432917
0.00430297
0.00427426
0.00424306
0.00420942
0.00417344
0.00413521
0.00409489
0.00405259
0.00400846
0.00396261
0.00391509
0.00386579
0.00381486
0.00376259
0.00370933
0.00365538
0.00360101
0.00354646
0.00349194
0.00343768
0.00338389
0.00333075
0.00327843
0.00322751
0.00317733
0.00312842
0.00308097
0.00303537
0.00299205
0.00295118
0.00291268
0.00287594
0.00284074
0.00280658
0.0027727
0.00273938
0.00270618
0.00267322
0.00264001
0.00260595
0.00257482
0.00251296
4.16049e-05
0.000204704
0.00038279
0.000533666
0.000656748
0.000755811
0.000835171
0.000899299
0.000952042
0.000996696
0.00103605
0.00107244
0.00110772
0.00114333
0.00118034
0.00121947
0.00126117
0.00130571
0.00135315
0.00140346
0.00145653
0.00151218
0.00157022
0.00163041
0.00169248
0.00175618
0.00182125
0.00188741
0.00195444
0.00202209
0.00209014
0.00215839
0.00222664
0.00229476
0.00236259
0.00243004
0.00249699
0.00256336
0.0026291
0.00269414
0.00275844
0.00282198
0.00288474
0.00294671
0.00300788
0.00306826
0.00312787
0.00318672
0.00324482
0.00330221
0.0033589
0.00341492
0.00347029
0.00352504
0.00357918
0.00363274
0.00368573
0.00373816
0.00379004
0.00384138
0.00389217
0.00394241
0.00399208
0.00404117
0.00408965
0.0041375
0.00418467
0.00423114
0.00427684
0.00432175
0.00436578
0.0044089
0.00445104
0.00449214
0.00453212
0.00457093
0.0046085
0.00464476
0.00467966
0.00471312
0.0047451
0.00477555
0.00480443
0.00483168
0.00485728
0.00488119
0.00490339
0.00492386
0.00494259
0.00495958
0.00497488
0.0049885
0.00500051
0.00501093
0.00501984
0.0050273
0.00503341
0.00503827
0.00504196
0.00504457
0.00504615
0.00504674
0.00504637
0.00504504
0.00504309
0.00503994
0.0050361
0.00503204
0.00502822
0.00502332
0.00501803
0.00501226
0.00500611
0.00499988
0.00499379
0.00498754
0.00498084
0.00497385
0.00496683
0.0049598
0.00495266
0.00494538
0.00493796
0.00493033
0.0049224
0.00491411
0.00490531
0.00489581
0.00488548
0.00487412
0.00486158
0.00484766
0.00483217
0.00481493
0.00479574
0.00477446
0.00475094
0.00472508
0.0046968
0.00466607
0.00463289
0.0045973
0.00455938
0.00451922
0.00447696
0.00443271
0.00438661
0.00433877
0.00428929
0.0042382
0.00418565
0.00413186
0.0040771
0.00402162
0.00396568
0.00390949
0.00385328
0.00379727
0.00374168
0.00368666
0.0036324
0.00357913
0.0035268
0.00347562
0.00342578
0.00337752
0.00333117
0.0032875
0.00324705
0.00320925
0.00317358
0.00313947
0.00310633
0.00307387
0.00304126
0.00300877
0.0029761
0.00294279
0.00291101
0.00285651
4.756e-05
0.000221948
0.000413494
0.00057792
0.000713401
0.000824148
0.000914213
0.000988159
0.00104991
0.00110281
0.00114967
0.00119287
0.0012343
0.00127549
0.00131759
0.00136139
0.00140747
0.00145612
0.0015075
0.00156161
0.00161838
0.00167766
0.00173924
0.00180291
0.00186841
0.00193549
0.00200389
0.00207337
0.00214367
0.00221458
0.00228589
0.00235739
0.00242891
0.00250031
0.00257145
0.00264222
0.00271252
0.00278226
0.00285137
0.00291982
0.00298754
0.00305452
0.00312073
0.00318615
0.0032508
0.00331467
0.00337778
0.00344013
0.00350175
0.00356266
0.00362289
0.00368246
0.00374141
0.00379975
0.00385751
0.00391471
0.00397138
0.00402754
0.00408318
0.00413833
0.00419298
0.00424714
0.00430079
0.00435392
0.00440651
0.00445853
0.00450995
0.00456073
0.00461082
0.00466016
0.00470871
0.00475639
0.00480314
0.00484888
0.00489354
0.00493704
0.00497929
0.00502022
0.00505975
0.0050978
0.00513429
0.00516915
0.00520232
0.00523372
0.00526332
0.00529105
0.00531686
0.00534073
0.00536263
0.00538254
0.00540047
0.00541644
0.00543047
0.00544259
0.00545285
0.00546131
0.00546805
0.00547313
0.00547664
0.00547866
0.00547925
0.00547847
0.00547636
0.00547271
0.00546798
0.00546242
0.00545636
0.00544927
0.00544133
0.00543252
0.00542299
0.00541279
0.00540204
0.00539092
0.00537954
0.00536784
0.00535578
0.00534344
0.00533095
0.00531839
0.00530576
0.00529308
0.00528037
0.00526759
0.0052547
0.00524163
0.00522829
0.00521455
0.00520027
0.0051853
0.00516946
0.00515256
0.00513442
0.00511483
0.00509359
0.00507053
0.00504547
0.00501828
0.00498886
0.00495717
0.00492318
0.00488691
0.00484841
0.00480776
0.00476507
0.00472045
0.00467401
0.00462587
0.00457613
0.0045249
0.0044723
0.00441853
0.0043638
0.00430832
0.00425233
0.00419602
0.00413962
0.00408335
0.00402742
0.00397202
0.00391727
0.00386334
0.0038103
0.00375831
0.00370754
0.0036582
0.00361055
0.00356512
0.00352323
0.00348478
0.00344895
0.00341507
0.0033826
0.00335113
0.00332014
0.00328922
0.003258
0.00322623
0.00319489
0.00314689
5.28484e-05
0.000236221
0.000438922
0.000615124
0.000761734
0.000883184
0.000983216
0.0010664
0.00113666
0.00119736
0.00125133
0.00130092
0.00134808
0.00139436
0.00144096
0.00148876
0.00153838
0.00159022
0.00164448
0.00170124
0.00176044
0.00182198
0.00188569
0.00195136
0.00201877
0.00208767
0.00215784
0.00222904
0.00230103
0.00237361
0.00244658
0.00251975
0.00259296
0.00266607
0.00273895
0.00281149
0.00288359
0.00295517
0.00302617
0.00309653
0.00316621
0.00323518
0.00330343
0.00337093
0.00343769
0.00350371
0.003569
0.00363358
0.00369747
0.00376069
0.00382328
0.00388527
0.00394668
0.00400754
0.0040679
0.00412776
0.00418716
0.00424612
0.00430467
0.0043628
0.00442054
0.00447789
0.00453483
0.00459137
0.00464749
0.00470315
0.00475834
0.004813
0.0048671
0.00492057
0.00497335
0.00502537
0.00507656
0.00512682
0.00517608
0.00522423
0.00527119
0.00531685
0.0053611
0.00540385
0.00544501
0.00548446
0.00552213
0.00555791
0.00559173
0.00562352
0.00565319
0.00568071
0.005706
0.00572905
0.00574983
0.00576834
0.00578457
0.00579855
0.0058103
0.00581987
0.00582732
0.0058327
0.00583611
0.0058376
0.00583727
0.00583509
0.00583075
0.00582497
0.00581813
0.00581024
0.00580079
0.00579004
0.00577808
0.00576498
0.00575085
0.0057358
0.00571994
0.00570342
0.00568635
0.0056688
0.0056508
0.00563247
0.00561393
0.00559527
0.00557657
0.00555791
0.00553932
0.00552083
0.00550245
0.00548415
0.00546587
0.00544754
0.00542906
0.00541029
0.00539107
0.00537122
0.00535055
0.00532885
0.0053059
0.00528151
0.00525546
0.0052276
0.00519782
0.00516603
0.00513218
0.00509625
0.00505826
0.00501827
0.00497636
0.00493263
0.00488716
0.00484005
0.00479141
0.00474135
0.00468998
0.00463747
0.00458399
0.00452973
0.00447489
0.00441966
0.00436424
0.00430887
0.00425378
0.00419914
0.00414505
0.00409165
0.00403903
0.00398736
0.00393681
0.00388756
0.00383986
0.00379413
0.00375164
0.00371312
0.0036775
0.00364408
0.00361232
0.00358181
0.00355215
0.00352298
0.00349388
0.00346411
0.00343393
0.00339146
5.7397e-05
0.000247637
0.000459267
0.000645413
0.000801779
0.00093281
0.00104193
0.00113362
0.0012118
0.00127977
0.00134035
0.00139588
0.0014483
0.00149917
0.00154973
0.00160091
0.00165338
0.0017076
0.00176384
0.00182222
0.00188276
0.00194539
0.00200997
0.00207635
0.00214433
0.00221368
0.00228421
0.0023557
0.00242795
0.00250075
0.00257394
0.00264733
0.00272077
0.00279414
0.0028673
0.00294017
0.00301263
0.00308463
0.00315609
0.00322697
0.00329723
0.00336683
0.00343576
0.00350401
0.00357158
0.00363847
0.0037047
0.00377028
0.00383524
0.00389962
0.00396345
0.00402675
0.00408957
0.00415194
0.0042139
0.00427549
0.00433672
0.00439764
0.00445827
0.00451863
0.00457874
0.00463861
0.00469824
0.00475762
0.00481675
0.0048756
0.00493415
0.00499235
0.00505016
0.00510751
0.00516435
0.00522058
0.00527614
0.00533091
0.00538481
0.00543771
0.00548951
0.00554007
0.00558928
0.00563701
0.00568313
0.00572752
0.00577005
0.0058106
0.00584906
0.00588532
0.00591929
0.00595088
0.00598
0.00600661
0.00603065
0.0060521
0.00607092
0.00608713
0.00610072
0.00611174
0.00612021
0.0061262
0.00612977
0.00613099
0.00612996
0.00612642
0.00612056
0.00611315
0.00610413
0.00609324
0.00608055
0.00606616
0.00605017
0.0060327
0.00601386
0.00599378
0.0059726
0.00595046
0.0059275
0.00590383
0.00587959
0.00585489
0.0058299
0.00580475
0.00577956
0.00575447
0.00572956
0.00570492
0.00568062
0.00565668
0.0056331
0.00560987
0.00558692
0.00556415
0.00554143
0.00551858
0.00549542
0.00547174
0.00544731
0.00542194
0.00539534
0.00536734
0.0053378
0.0053066
0.00527365
0.00523889
0.00520231
0.0051639
0.00512377
0.00508195
0.00503852
0.00499352
0.00494707
0.00489928
0.00485017
0.00479995
0.00474875
0.00469671
0.00464401
0.00459082
0.00453735
0.00448382
0.00443051
0.00437757
0.00432509
0.00427314
0.00422186
0.0041714
0.00412196
0.00407375
0.00402699
0.00398207
0.00394014
0.00390221
0.00386722
0.0038345
0.00380356
0.00377401
0.00374551
0.00371778
0.00369051
0.00366299
0.00363435
0.00359652
6.11656e-05
0.00025635
0.000474781
0.000669006
0.000833656
0.000972998
0.00109016
0.0011895
0.00127481
0.00134936
0.00141593
0.00147682
0.00153395
0.00158886
0.00164281
0.00169676
0.00175141
0.00180727
0.00186467
0.00192378
0.00198468
0.00204735
0.00211169
0.0021776
0.0022449
0.00231343
0.00238302
0.00245347
0.00252461
0.00259628
0.0026683
0.00274052
0.0028128
0.00288502
0.00295707
0.00302885
0.00310029
0.00317131
0.00324184
0.00331186
0.00338131
0.00345019
0.00351847
0.00358615
0.00365323
0.00371972
0.00378564
0.003851
0.00391585
0.00398022
0.00404415
0.00410769
0.00417088
0.00423375
0.00429635
0.00435873
0.00442091
0.00448296
0.00454489
0.00460673
0.00466853
0.00473028
0.004792
0.00485371
0.00491538
0.004977
0.00503855
0.00509999
0.00516128
0.00522235
0.00528313
0.00534354
0.00540348
0.00546284
0.00552151
0.00557936
0.00563625
0.00569203
0.00574656
0.00579967
0.00585122
0.00590103
0.00594895
0.00599483
0.00603851
0.00607986
0.00611874
0.00615502
0.00618861
0.00621941
0.00624733
0.00627233
0.00629435
0.00631337
0.00632938
0.00634239
0.00635242
0.00635952
0.00636373
0.00636514
0.00636377
0.0063595
0.00635274
0.00634381
0.00633264
0.00631921
0.00630355
0.00628577
0.00626598
0.0062443
0.00622088
0.00619586
0.00616939
0.00614165
0.00611279
0.00608298
0.00605238
0.00602117
0.00598954
0.00595768
0.00592575
0.00589394
0.00586241
0.0058313
0.00580074
0.00577083
0.00574163
0.00571319
0.0056855
0.00565851
0.00563213
0.00560619
0.00558051
0.00555489
0.00552912
0.00550304
0.00547619
0.00544842
0.00541959
0.00538953
0.00535811
0.0053252
0.00529073
0.00525466
0.00521708
0.00517803
0.0051375
0.00509552
0.00505216
0.0050076
0.0049616
0.00491454
0.00486647
0.0048175
0.00476779
0.00471747
0.00466675
0.00461585
0.00456512
0.0045147
0.00446461
0.0044149
0.0043657
0.0043172
0.00426963
0.00422322
0.0041782
0.004135
0.00409473
0.00405804
0.00402408
0.0039923
0.00396228
0.0039337
0.00390627
0.00387976
0.00385394
0.00382832
0.0038013
0.00376734
6.41397e-05
0.000262531
0.000485737
0.000686136
0.000857526
0.00100366
0.00112777
0.00123369
0.00132518
0.00140544
0.00147718
0.00154267
0.00160378
0.00166205
0.00171871
0.00177472
0.00183084
0.00188758
0.00194532
0.00200429
0.0020646
0.00212628
0.0021893
0.00225357
0.00231899
0.00238544
0.00245279
0.00252088
0.0025896
0.00265878
0.00272829
0.00279797
0.0028677
0.00293737
0.00300691
0.00307621
0.00314521
0.00321384
0.00328205
0.0033498
0.00341707
0.00348384
0.00355011
0.00361589
0.00368117
0.00374598
0.00381032
0.00387423
0.00393774
0.00400093
0.00406384
0.00412654
0.00418905
0.00425142
0.00431371
0.00437596
0.00443823
0.00450058
0.00456304
0.00462566
0.00468847
0.0047515
0.00481478
0.00487831
0.00494209
0.00500612
0.00507037
0.00513481
0.0051994
0.00526408
0.00532877
0.00539337
0.0054578
0.00552192
0.0055856
0.00564869
0.00571104
0.00577248
0.00583281
0.00589186
0.00594942
0.00600531
0.00605931
0.00611124
0.00616091
0.00620813
0.00625273