/*--------------------------------*- C++ -*----------------------------------*\
  =========                 |
  \\      /  F ield         | OpenFOAM: The Open Source CFD Toolbox
   \\    /   O peration     | Website:  https://openfoam.org
    \\  /    A nd           | Version:  8
     \\/     M anipulation  |
\*---------------------------------------------------------------------------*/
FoamFile
{
    version     2.0;
    format      ascii;
    class       volScalarField;
    location    "105";
    object      p;
}
// * * * * * * * * * * * * * * * * * * * * * * * * * * * * * * * * * * * * * //

dimensions      [0 2 -2 0 0 0 0];

internalField   nonuniform List<scalar> 
12225
(
-2.15087
-4.33872
-5.43823
-5.75824
-5.93865
-6.10654
-6.23665
-6.32988
-6.40391
-6.46785
-6.5233
-6.57196
-6.61298
-6.64634
-6.67052
-6.67353
-6.67285
-6.53291
-5.3133
-6.08189
-6.24197
-6.14907
-6.1357
-6.20245
-6.27854
-6.34238
-6.39946
-6.45353
-6.5037
-6.54858
-6.58807
-6.62092
-6.64717
-6.65686
-6.67029
-6.63033
-5.71396
-5.69955
-5.82652
-5.90426
-5.99834
-6.11744
-6.22319
-6.30618
-6.37555
-6.43767
-6.49353
-6.54274
-6.58611
-6.62285
-6.65405
-6.67398
-6.7019
-6.71733
-5.59258
-5.53576
-5.77692
-5.93465
-6.03559
-6.14072
-6.23699
-6.31525
-6.38165
-6.4417
-6.4963
-6.5451
-6.58884
-6.62718
-6.6617
-6.69068
-6.72879
-6.77521
-5.5827
-5.60689
-5.83449
-5.97546
-6.05828
-6.14928
-6.23914
-6.31515
-6.3805
-6.4399
-6.49441
-6.54379
-6.58878
-6.6296
-6.66813
-6.70512
-6.75124
-6.81125
-5.64086
-5.68948
-5.8633
-5.98659
-6.06734
-6.15417
-6.24093
-6.31583
-6.38077
-6.43993
-6.49455
-6.54461
-6.5909
-6.63408
-6.67617
-6.71909
-6.7704
-6.83525
-5.70127
-5.74522
-5.87996
-5.9957
-6.07873
-6.16192
-6.24464
-6.31782
-6.38209
-6.44087
-6.4955
-6.54618
-6.59366
-6.63893
-6.68396
-6.73098
-6.78521
-6.85053
-5.75484
-5.79226
-5.9018
-6.00956
-6.0919
-6.17062
-6.24895
-6.32014
-6.38362
-6.44199
-6.4966
-6.54782
-6.59638
-6.6434
-6.69067
-6.74027
-6.79564
-6.85911
-5.80465
-5.8376
-5.92814
-6.02561
-6.10509
-6.17967
-6.25389
-6.32292
-6.38545
-6.44331
-6.4978
-6.54941
-6.59884
-6.64717
-6.69593
-6.74681
-6.80197
-6.86251
-5.85181
-5.88091
-5.95609
-6.04286
-6.11855
-6.18942
-6.25974
-6.32636
-6.3877
-6.4449
-6.49912
-6.55091
-6.60088
-6.65002
-6.69953
-6.75067
-6.80472
-6.86193
-5.89627
-5.92164
-5.98453
-6.06133
-6.13258
-6.19985
-6.26646
-6.3305
-6.39042
-6.4468
-6.50058
-6.55229
-6.60247
-6.6519
-6.70153
-6.75217
-6.80452
-6.85838
-5.93445
-5.95668
-6.01062
-6.07915
-6.14591
-6.20987
-6.27324
-6.33485
-6.39329
-6.44876
-6.50195
-6.55335
-6.6034
-6.65268
-6.70191
-6.75161
-6.80214
-6.85308
-5.96975
-5.98936
-6.03598
-6.09714
-6.15936
-6.22004
-6.28035
-6.33956
-6.39643
-6.45084
-6.50329
-6.55418
-6.60383
-6.65267
-6.70116
-6.74964
-6.79823
-6.84647
-6.00679
-6.02389
-6.06376
-6.11763
-6.17479
-6.23179
-6.28879
-6.3453
-6.40027
-6.45335
-6.50475
-6.5548
-6.6037
-6.6517
-6.69905
-6.74587
-6.79221
-6.83759
-6.04433
-6.05905
-6.09297
-6.14
-6.19185
-6.24483
-6.29836
-6.35192
-6.40468
-6.45608
-6.50611
-6.5549
-6.60261
-6.64933
-6.69511
-6.73992
-6.78373
-6.82621
-6.08042
-6.09302
-6.12194
-6.16293
-6.20959
-6.25847
-6.30847
-6.35898
-6.40924
-6.45867
-6.50696
-6.55412
-6.60016
-6.64516
-6.68898
-6.73155
-6.7727
-6.81232
-6.11215
-6.12303
-6.14805
-6.18412
-6.22621
-6.27125
-6.31794
-6.36547
-6.41314
-6.46034
-6.50666
-6.55187
-6.59591
-6.6388
-6.68041
-6.72055
-6.75909
-6.79593
-6.13514
-6.14484
-6.16722
-6.19989
-6.23862
-6.28066
-6.32466
-6.36968
-6.415
-6.46004
-6.50432
-6.54748
-6.58941
-6.63005
-6.66935
-6.7071
-6.74315
-6.77745
-6.14247
-6.1517
-6.17308
-6.20446
-6.24185
-6.28253
-6.32513
-6.3687
-6.41249
-6.45592
-6.49852
-6.5399
-6.57993
-6.61853
-6.6557
-6.69125
-6.72509
-6.75718
-6.12673
-6.13657
-6.15935
-6.19263
-6.2319
-6.27393
-6.31736
-6.36136
-6.4053
-6.4485
-6.49061
-6.53122
-6.57033
-6.60779
-6.64371
-6.67785
-6.71028
-6.74093
-6.1001
-6.11097
-6.13641
-6.17361
-6.21659
-6.26141
-6.30686
-6.3525
-6.39752
-6.44135
-6.48358
-6.52414
-6.56291
-6.59998
-6.6352
-6.66864
-6.70017
-6.73011
-6.06504
-6.07693
-6.10644
-6.15017
-6.19862
-6.24685
-6.29496
-6.34298
-6.38985
-6.43474
-6.47752
-6.5183
-6.55712
-6.59399
-6.62887
-6.66181
-6.69285
-6.72223
-6.0246
-6.03656
-6.07116
-6.12455
-6.18025
-6.23241
-6.2835
-6.33416
-6.38293
-6.42899
-6.47254
-6.51378
-6.55285
-6.58968
-6.62441
-6.65704
-6.68781
-6.71686
-5.98098
-5.99201
-6.03391
-6.09842
-6.16074
-6.2176
-6.27338
-6.3274
-6.37781
-6.42473
-6.46888
-6.51054
-6.54975
-6.58657
-6.62109
-6.65352
-6.68402
-6.71284
-5.93413
-5.93964
-6.00243
-6.08071
-6.14276
-6.20116
-6.26246
-6.32096
-6.37357
-6.42163
-6.4666
-6.50879
-6.5482
-6.58498
-6.61936
-6.65161
-6.6819
-6.7106
-5.8909
-5.85451
-5.96416
-6.07524
-6.13758
-6.19295
-6.25528
-6.31517
-6.36847
-6.41714
-6.46276
-6.50545
-6.54512
-6.58201
-6.61643
-6.64867
-6.67894
-6.70756
-5.90502
-5.74608
-5.87511
-6.02929
-6.11955
-6.19098
-6.25999
-6.32101
-6.37387
-6.4221
-6.46725
-6.50939
-6.54841
-6.58468
-6.6185
-6.6502
-6.68004
-6.70835
-6.02775
-5.84779
-5.86214
-5.93434
-6.02285
-6.12216
-6.21292
-6.28679
-6.34854
-6.40359
-6.45379
-6.49941
-6.54094
-6.579
-6.61408
-6.6467
-6.67734
-6.70676
-5.73506
-6.32667
-6.41568
-6.29151
-6.23727
-6.26451
-6.31158
-6.35491
-6.3965
-6.43858
-6.47994
-6.51912
-6.55583
-6.59012
-6.62205
-6.65185
-6.67981
-6.70781
-2.74681
-4.50963
-5.51444
-5.81369
-5.96294
-6.10663
-6.22075
-6.30181
-6.36606
-6.42281
-6.47391
-6.51979
-6.56122
-6.59901
-6.63365
-6.66503
-6.69309
-6.71612
-8.02656
-8.0252
-8.02434
-8.02655
-8.03031
-8.03475
-8.03986
-8.04531
-8.05059
-8.05514
-8.05946
-8.06447
-8.07073
-8.0782
-8.08626
-8.09527
-8.10741
-8.12314
-8.14199
-8.16184
-8.1772
-8.1891
-8.20701
-8.23102
-8.25696
-8.28512
-8.31545
-8.34771
-8.38177
-8.41728
-8.45403
-8.49159
-8.52968
-8.56786
-8.60587
-8.64327
-8.67982
-8.71514
-8.74904
-8.78121
-8.81151
-8.8397
-8.86568
-8.88926
-8.91038
-8.9289
-8.94476
-8.95786
-8.96816
-8.97556
-8.98002
-8.98149
-8.97994
-8.9753
-8.96753
-8.95661
-8.94248
-8.92513
-8.90449
-8.88059
-8.85336
-8.82287
-8.78902
-8.75194
-8.71153
-8.66797
-8.62114
-8.57129
-8.5183
-8.46247
-8.40373
-8.34237
-8.27833
-8.21196
-8.1432
-8.07248
-7.99971
-7.92529
-7.84913
-7.77175
-7.69301
-7.61336
-7.53261
-7.45131
-7.36918
-7.28677
-7.20384
-7.12072
-7.03696
-6.95248
-6.86762
-6.78225
-6.69612
-6.60883
-6.52015
-6.42964
-6.33696
-6.24158
-6.14306
-6.04077
-5.93422
-5.82281
-5.70586
-5.58248
-5.45156
-5.31212
-5.16293
-5.00279
-4.83025
-4.64422
-4.44332
-4.22673
-3.99322
-3.74194
-3.47177
-3.18183
-2.87095
-2.53861
-2.18415
-1.80744
-1.40827
-0.986595
-0.542223
-0.0755138
0.412944
0.921968
1.4502
1.99575
2.55672
3.13073
3.71533
4.30774
4.9051
5.50438
6.10255
6.69653
7.28333
7.86002
8.42388
8.97239
9.50331
10.0147
10.5048
10.9725
11.4168
11.8371
12.2333
12.6058
12.9549
13.2814
13.5856
13.8677
14.1283
14.3679
14.5877
14.7886
14.9717
15.138
15.2887
15.4249
15.5476
15.6579
15.7567
15.845
15.9236
15.9935
16.0555
16.1104
16.159
16.2021
16.2406
16.2752
16.307
16.3375
16.3684
16.4027
16.4468
16.5087
16.6174
16.7606
-8.02388
-8.02341
-8.02298
-8.02497
-8.02783
-8.03057
-8.03323
-8.03586
-8.03824
-8.04028
-8.04252
-8.04561
-8.04982
-8.05509
-8.06095
-8.06805
-8.0767
-8.08591
-8.09495
-8.10367
-8.11419
-8.13354
-8.16018
-8.18519
-8.21096
-8.23885
-8.26901
-8.30126
-8.33545
-8.37124
-8.40838
-8.44644
-8.4851
-8.52393
-8.56259
-8.60067
-8.63785
-8.67381
-8.7083
-8.74104
-8.77187
-8.80058
-8.82705
-8.85113
-8.87274
-8.89176
-8.90812
-8.92175
-8.93258
-8.94055
-8.9456
-8.94768
-8.94675
-8.94275
-8.93564
-8.92539
-8.91193
-8.89525
-8.87528
-8.85203
-8.82545
-8.79556
-8.76231
-8.72576
-8.68586
-8.64272
-8.5963
-8.54673
-8.49402
-8.43831
-8.37965
-8.31824
-8.25411
-8.18749
-8.11847
-8.04732
-7.97407
-7.89902
-7.82224
-7.74406
-7.66451
-7.58392
-7.50233
-7.42006
-7.33705
-7.25365
-7.16985
-7.08584
-7.00129
-6.91645
-6.83134
-6.74589
-6.65987
-6.57306
-6.48515
-6.39574
-6.30444
-6.21072
-6.11405
-6.01387
-5.90973
-5.80091
-5.68671
-5.56613
-5.43829
-5.30191
-5.15578
-4.99879
-4.82996
-4.64809
-4.45215
-4.2409
-4.01336
-3.76835
-3.50477
-3.22161
-2.91801
-2.593
-2.24617
-1.87726
-1.48607
-1.07236
-0.636033
-0.177234
0.303484
0.805042
1.32608
1.86495
2.41978
2.98835
3.56823
4.15674
4.75104
5.34815
5.94503
6.53859
7.12579
7.70366
8.26941
8.82044
9.35445
9.86939
10.3636
10.8356
11.2845
11.7096
12.1107
12.4878
12.8411
13.1712
13.4789
13.7648
14.0293
14.2731
14.4971
14.7023
14.8896
15.0601
15.2149
15.3551
15.4817
15.5957
15.698
15.7897
15.8717
15.9447
16.0097
16.0674
16.1187
16.1644
16.2052
16.2423
16.2764
16.3091
16.3423
16.3786
16.4233
16.4817
16.5791
16.698
-8.01543
-8.0171
-8.01874
-8.02165
-8.02444
-8.02632
-8.02746
-8.02807
-8.02829
-8.02831
-8.02862
-8.02975
-8.03197
-8.03525
-8.0395
-8.04511
-8.05252
-8.06141
-8.07135
-8.08211
-8.09439
-8.11045
-8.13104
-8.15399
-8.1794
-8.2074
-8.23779
-8.27024
-8.30447
-8.34011
-8.37687
-8.41433
-8.4522
-8.49008
-8.52767
-8.56465
-8.60074
-8.63566
-8.6692
-8.70112
-8.73125
-8.75941
-8.78546
-8.80926
-8.83072
-8.8497
-8.86614
-8.87994
-8.89103
-8.89932
-8.90477
-8.90731
-8.90689
-8.90344
-8.89691
-8.88726
-8.87443
-8.85839
-8.83907
-8.81647
-8.79054
-8.76127
-8.72864
-8.69267
-8.65333
-8.61068
-8.56473
-8.51554
-8.46317
-8.40771
-8.34924
-8.2879
-8.22378
-8.15706
-8.08788
-8.01643
-7.94286
-7.86736
-7.79012
-7.71135
-7.6312
-7.54991
-7.46765
-7.38464
-7.30097
-7.21686
-7.13245
-7.04777
-6.96279
-6.87753
-6.79226
-6.70687
-6.62107
-6.53483
-6.44775
-6.35961
-6.26989
-6.17826
-6.08409
-5.98691
-5.8861
-5.78096
-5.67074
-5.55438
-5.43098
-5.29924
-5.1581
-5.00634
-4.84315
-4.66727
-4.47787
-4.27355
-4.05334
-3.81599
-3.56047
-3.28562
-2.99062
-2.6745
-2.33685
-1.97727
-1.59557
-1.19135
-0.764561
-0.315223
0.156057
0.648338
1.16035
1.69064
2.23738
2.7985
3.37165
3.95423
4.54348
5.13645
5.73014
6.32146
6.90737
7.48487
8.05114
8.60359
9.13983
9.65785
10.1559
10.6327
11.0871
11.5185
11.9265
12.3111
12.6724
13.0107
13.3266
13.6205
13.8928
14.1442
14.3755
14.5878
14.7819
14.9589
15.1199
15.266
15.3981
15.5173
15.6246
15.7209
15.8072
15.8844
15.9532
16.0145
16.0692
16.1181
16.162
16.2019
16.2387
16.2739
16.3093
16.3474
16.3925
16.4475
16.5308
16.6129
-7.99936
-8.00409
-8.00925
-8.01422
-8.01795
-8.02015
-8.0211
-8.02115
-8.02056
-8.01964
-8.01888
-8.01879
-8.01974
-8.02187
-8.02529
-8.03022
-8.03702
-8.0458
-8.05654
-8.06922
-8.08404
-8.10145
-8.12175
-8.14466
-8.17008
-8.19783
-8.22774
-8.25952
-8.29294
-8.32766
-8.36341
-8.39983
-8.43663
-8.47347
-8.51005
-8.54606
-8.58123
-8.61531
-8.64806
-8.67928
-8.70878
-8.73638
-8.76196
-8.78536
-8.80649
-8.82522
-8.84148
-8.85516
-8.86618
-8.87448
-8.87998
-8.88261
-8.88231
-8.87902
-8.87268
-8.86323
-8.85061
-8.83479
-8.81569
-8.79331
-8.76758
-8.73851
-8.70604
-8.67021
-8.63099
-8.58841
-8.5425
-8.4933
-8.44087
-8.3853
-8.32667
-8.26511
-8.20072
-8.13367
-8.06411
-7.99222
-7.91818
-7.84219
-7.76443
-7.68513
-7.60446
-7.52266
-7.43991
-7.35643
-7.27237
-7.18792
-7.10323
-7.01838
-6.93328
-6.8482
-6.76317
-6.67811
-6.59292
-6.5074
-6.42137
-6.33448
-6.24639
-6.15663
-6.06475
-5.97018
-5.8723
-5.77044
-5.66368
-5.55111
-5.43163
-5.30414
-5.16747
-5.02058
-4.86244
-4.69202
-4.50826
-4.30988
-4.09575
-3.86477
-3.61579
-3.34767
-3.0595
-2.75054
-2.42023
-2.06807
-1.69375
-1.29686
-0.877301
-0.435176
0.0289367
0.514148
1.01929
1.543
2.08353
2.63889
3.20679
3.78471
4.36992
4.95953
5.55053
6.13985
6.72443
7.30131
7.86762
8.42081
8.9585
9.4787
9.9797
10.4602
10.9191
11.3556
11.7694
12.16
12.5277
12.8726
13.195
13.4953
13.7739
14.0316
14.269
14.4871
14.687
14.8695
15.0357
15.1868
15.3236
15.4473
15.5588
15.6591
15.7491
15.8297
15.9018
15.9662
16.0238
16.0754
16.1218
16.1639
16.2029
16.2399
16.2766
16.3151
16.3588
16.4084
16.4759
16.5259
-7.97769
-7.98575
-7.99545
-8.0034
-8.00892
-8.01226
-8.01394
-8.01446
-8.01423
-8.01363
-8.01314
-8.01322
-8.01428
-8.0166
-8.02042
-8.02591
-8.03332
-8.04276
-8.05436
-8.06819
-8.08438
-8.10304
-8.1242
-8.14774
-8.17358
-8.20153
-8.23143
-8.26301
-8.29604
-8.33021
-8.36526
-8.40084
-8.43671
-8.47253
-8.50804
-8.54296
-8.57706
-8.61009
-8.64185
-8.67213
-8.70076
-8.72758
-8.75245
-8.77522
-8.7958
-8.81406
-8.82991
-8.84325
-8.85399
-8.86206
-8.86736
-8.86984
-8.86941
-8.86601
-8.85957
-8.85002
-8.8373
-8.82135
-8.80213
-8.77958
-8.75367
-8.72437
-8.69164
-8.6555
-8.61593
-8.57296
-8.5266
-8.47692
-8.42395
-8.36779
-8.30853
-8.24629
-8.18119
-8.1134
-8.04307
-7.97041
-7.89559
-7.81883
-7.74034
-7.66035
-7.57906
-7.49672
-7.41353
-7.32971
-7.24544
-7.16092
-7.07631
-6.99169
-6.90715
-6.8226
-6.7385
-6.65446
-6.57055
-6.48647
-6.40217
-6.31719
-6.23132
-6.144
-6.05487
-5.96333
-5.86876
-5.77047
-5.66748
-5.55896
-5.44364
-5.32066
-5.18865
-5.04677
-4.89372
-4.72869
-4.55027
-4.35746
-4.14882
-3.92352
-3.68015
-3.41781
-3.13541
-2.83238
-2.50789
-2.16153
-1.79271
-1.40118
-0.986685
-0.549537
-0.0901486
0.390516
0.891457
1.41125
1.94828
2.50053
3.06579
3.64153
4.22504
4.81344
5.40371
5.99277
6.57755
7.15505
7.72247
8.2772
8.81697
9.3397
9.84375
10.3277
10.7904
11.231
11.6492
12.0444
12.4168
12.7663
13.0934
13.3983
13.6815
13.9436
14.1855
14.408
14.612
14.7987
14.9689
15.1237
15.2642
15.3914
15.5061
15.6095
15.7024
15.7856
15.8602
15.9269
15.9866
16.0401
16.0883
16.132
16.1722
16.2101
16.2471
16.2847
16.3254
16.3683
16.4213
16.4458
-7.95442
-7.96565
-7.98022
-7.99154
-7.99934
-8.00446
-8.0076
-8.00934
-8.01023
-8.01071
-8.01128
-8.01237
-8.0144
-8.0177
-8.02256
-8.02917
-8.03774
-8.04837
-8.06119
-8.07622
-8.09356
-8.1132
-8.13516
-8.15931
-8.18555
-8.2137
-8.24359
-8.27496
-8.30758
-8.34118
-8.3755
-8.41024
-8.44517
-8.47999
-8.51447
-8.54834
-8.5814
-8.61341
-8.6442
-8.67355
-8.70133
-8.72734
-8.75148
-8.7736
-8.79358
-8.8113
-8.82667
-8.83958
-8.84994
-8.85766
-8.86265
-8.86484
-8.86412
-8.86044
-8.8537
-8.84385
-8.8308
-8.8145
-8.79488
-8.7719
-8.74549
-8.71565
-8.68233
-8.64553
-8.60524
-8.56149
-8.51429
-8.4637
-8.40978
-8.35262
-8.2923
-8.22898
-8.16277
-8.09384
-8.02238
-7.94858
-7.87265
-7.79483
-7.71533
-7.63442
-7.55231
-7.46927
-7.38554
-7.30134
-7.21688
-7.13237
-7.04799
-6.96389
-6.87991
-6.79658
-6.71361
-6.63117
-6.54901
-6.46705
-6.38503
-6.3027
-6.21965
-6.1355
-6.04976
-5.96188
-5.87125
-5.77705
-5.67843
-5.57436
-5.46384
-5.34571
-5.2189
-5.08229
-4.93475
-4.77515
-4.60236
-4.41513
-4.21222
-3.99244
-3.75465
-3.49781
-3.221
-2.92338
-2.60418
-2.26284
-1.89879
-1.51166
-1.10131
-0.66797
-0.212103
0.265441
0.763647
1.28115
1.81632
2.3672
2.93154
3.50683
4.09036
4.6792
5.27033
5.86062
6.44702
7.02651
7.59629
8.15377
8.69662
9.22273
9.73039
10.2181
10.6848
11.1295
11.5517
11.951
12.3273
12.6808
13.0117
13.3203
13.6072
13.8729
14.1183
14.3442
14.5515
14.7414
14.9147
15.0726
15.216
15.3459
15.4633
15.5692
15.6644
15.7498
15.8263
15.8948
15.9561
16.011
16.0605
16.1052
16.1461
16.1841
16.2205
16.2563
16.2932
16.3289
16.3693
16.3734
-7.93329
-7.94728
-7.96622
-7.98063
-7.99076
-7.99793
-8.00289
-8.0063
-8.00875
-8.01074
-8.01279
-8.0153
-8.01873
-8.02337
-8.02956
-8.03749
-8.04736
-8.05928
-8.07334
-8.08956
-8.10799
-8.12857
-8.15128
-8.17599
-8.20258
-8.23088
-8.26072
-8.29185
-8.32408
-8.35713
-8.39079
-8.42478
-8.45888
-8.49282
-8.52639
-8.55933
-8.59147
-8.62257
-8.65248
-8.681
-8.70798
-8.73326
-8.7567
-8.77818
-8.79758
-8.81476
-8.82963
-8.84208
-8.85201
-8.85933
-8.86392
-8.86571
-8.8646
-8.86051
-8.85334
-8.84302
-8.82947
-8.81262
-8.79239
-8.76873
-8.74159
-8.71094
-8.67673
-8.63897
-8.59764
-8.55277
-8.50439
-8.45254
-8.3973
-8.33876
-8.27703
-8.21225
-8.14456
-8.07416
-8.00123
-7.92598
-7.84866
-7.76951
-7.68877
-7.60672
-7.52363
-7.43976
-7.35537
-7.27073
-7.18606
-7.10158
-7.01752
-6.93392
-6.851
-6.7687
-6.68732
-6.60677
-6.52673
-6.44728
-6.36801
-6.28879
-6.2091
-6.12864
-6.04685
-5.96318
-5.877
-5.78738
-5.6936
-5.59444
-5.48912
-5.37622
-5.25489
-5.12374
-4.98193
-4.82796
-4.66094
-4.47938
-4.28226
-4.06804
-3.8358
-3.58432
-3.31286
-3.02033
-2.70611
-2.36931
-2.00956
-1.62628
-1.21951
-0.789292
-0.336231
0.139023
0.635352
1.1515
1.68579
2.23628
2.80071
3.37657
3.96109
4.55136
5.14428
5.73677
6.32569
6.9081
7.48111
8.04214
8.58873
9.11882
9.63051
10.1224
10.5932
11.042
11.4682
11.8715
12.2516
12.6087
12.9431
13.255
13.5451
13.8139
14.0622
14.291
14.5011
14.6936
14.8695
15.0299
15.1757
15.3079
15.4275
15.5355
15.6326
15.7199
15.7981
15.8681
15.9307
15.9868
16.037
16.0823
16.1234
16.1611
16.1964
16.2298
16.2623
16.2909
16.3202
16.3079
-7.91711
-7.93332
-7.95561
-7.97249
-7.98467
-7.99379
-8.00063
-8.00581
-8.00997
-8.01363
-8.01731
-8.02142
-8.02638
-8.03249
-8.04008
-8.04934
-8.06048
-8.07358
-8.08875
-8.10598
-8.12531
-8.14665
-8.16996
-8.1951
-8.22198
-8.25038
-8.28016
-8.31108
-8.34296
-8.37555
-8.40864
-8.44198
-8.47536
-8.50853
-8.54131
-8.57346
-8.6048
-8.63512
-8.66428
-8.69207
-8.71837
-8.743
-8.76585
-8.78677
-8.80564
-8.82234
-8.83675
-8.84877
-8.85827
-8.86517
-8.86935
-8.87071
-8.86914
-8.86456
-8.85687
-8.84597
-8.83178
-8.81421
-8.7932
-8.76868
-8.74058
-8.70888
-8.67354
-8.63454
-8.59188
-8.5456
-8.4957
-8.44227
-8.38538
-8.32512
-8.26163
-8.19506
-8.12557
-8.05337
-7.97866
-7.90169
-7.82271
-7.742
-7.65982
-7.57647
-7.49225
-7.40745
-7.32236
-7.23725
-7.15239
-7.06801
-6.98433
-6.90149
-6.81953
-6.73879
-6.6592
-6.58069
-6.50321
-6.42653
-6.35049
-6.27473
-6.1989
-6.12257
-6.04521
-5.96625
-5.88491
-5.80043
-5.7118
-5.61807
-5.51813
-5.41088
-5.29515
-5.16984
-5.03381
-4.8858
-4.72455
-4.54882
-4.35731
-4.14869
-3.9218
-3.67562
-3.40918
-3.12151
-2.81178
-2.47919
-2.12317
-1.74329
-1.33949
-0.911862
-0.460915
0.0126788
0.50786
1.02335
1.55747
2.10828
2.6735
3.25059
3.83677
4.4291
5.02446
5.61976
6.21186
6.79777
7.37458
7.9396
8.49035
9.02466
9.54065
10.0368
10.5118
10.9647
11.3949
11.802
12.1858
12.5463
12.8839
13.1989
13.4918
13.7634
14.0144
14.2457
14.4582
14.653
14.8311
14.9935
15.1413
15.2755
15.3969
15.5066
15.6055
15.6944
15.774
15.8453
15.9091
15.966
16.0169
16.0625
16.1035
16.1405
16.1743
16.2049
16.233
16.2547
16.2744
16.2488
-7.9076
-7.92529
-7.9497
-7.96823
-7.98197
-7.99274
-8.00124
-8.00805
-8.01383
-8.0191
-8.02437
-8.03001
-8.03645
-8.04397
-8.05289
-8.06338
-8.07564
-8.08976
-8.10584
-8.12387
-8.14387
-8.16576
-8.18948
-8.21491
-8.24192
-8.27033
-8.29999
-8.33069
-8.36224
-8.3944
-8.42699
-8.45977
-8.49255
-8.52509
-8.55722
-8.58871
-8.61941
-8.64911
-8.67766
-8.70488
-8.73063
-8.75476
-8.77713
-8.79761
-8.81606
-8.83237
-8.8464
-8.85804
-8.86718
-8.87369
-8.87746
-8.87838
-8.87634
-8.87123
-8.86294
-8.85137
-8.83643
-8.81803
-8.79607
-8.77051
-8.74127
-8.7083
-8.67158
-8.6311
-8.58684
-8.53885
-8.48715
-8.43182
-8.37295
-8.31066
-8.24508
-8.17639
-8.10478
-8.03047
-7.9537
-7.87474
-7.79385
-7.71135
-7.62755
-7.54275
-7.45729
-7.37149
-7.28565
-7.20009
-7.11508
-7.03088
-6.94773
-6.86576
-6.78521
-6.70598
-6.62852
-6.55243
-6.47778
-6.40426
-6.3318
-6.25992
-6.18836
-6.1166
-6.04411
-5.97028
-5.89423
-5.81527
-5.7322
-5.64423
-5.55001
-5.44873
-5.33894
-5.21977
-5.08972
-4.94779
-4.79239
-4.62254
-4.4366
-4.23351
-4.01187
-3.77082
-3.50915
-3.22606
-2.92042
-2.59162
-2.23884
-1.8619
-1.4605
-1.03494
-0.585512
-0.113024
0.381599
0.896964
1.43147
1.98311
2.54962
3.12843
3.71677
4.31167
4.91005
5.50871
6.10455
6.69442
7.27544
7.84477
8.39994
8.93865
9.45905
9.95948
10.4387
10.8957
11.3298
11.7405
12.1277
12.4915
12.8321
13.15
13.4456
13.7197
13.9731
14.2066
14.4212
14.618
14.798
14.9623
15.1118
15.2476
15.3706
15.4818
15.582
15.6722
15.7531
15.8256
15.8903
15.948
15.9994
16.0451
16.0857
16.1218
16.1538
16.1815
16.2051
16.2204
16.2318
16.1955
-7.90535
-7.92371
-7.94897
-7.9683
-7.98302
-7.99496
-8.00474
-8.01289
-8.02003
-8.02669
-8.03333
-8.04032
-8.04806
-8.0568
-8.06684
-8.07836
-8.09154
-8.10646
-8.12323
-8.14183
-8.16229
-8.18451
-8.20846
-8.234
-8.26102
-8.28934
-8.31881
-8.34924
-8.38045
-8.41222
-8.44437
-8.47668
-8.50896
-8.54099
-8.57261
-8.6036
-8.63382
-8.66305
-8.69117
-8.71798
-8.74336
-8.76714
-8.78919
-8.80936
-8.82753
-8.84355
-8.85731
-8.86867
-8.8775
-8.88368
-8.88708
-8.88757
-8.88504
-8.87937
-8.87044
-8.85813
-8.84234
-8.82297
-8.79994
-8.77317
-8.74258
-8.70815
-8.66982
-8.6276
-8.58147
-8.53149
-8.47769
-8.42016
-8.359
-8.29436
-8.22638
-8.15527
-8.08123
-8.00452
-7.92541
-7.84419
-7.76117
-7.67669
-7.59108
-7.5047
-7.4179
-7.33104
-7.24444
-7.15845
-7.07337
-6.98946
-6.90699
-6.82617
-6.74695
-6.66987
-6.59461
-6.52132
-6.44977
-6.37986
-6.31127
-6.24371
-6.17679
-6.11
-6.04281
-5.97444
-5.90413
-5.83091
-5.75385
-5.67186
-5.58388
-5.48876
-5.38533
-5.27235
-5.14858
-5.01269
-4.86335
-4.69924
-4.51895
-4.3212
-4.10477
-3.86859
-3.61155
-3.33265
-3.03084
-2.70535
-2.35553
-1.98107
-1.58178
-1.15784
-0.709603
-0.237807
0.256577
0.772173
1.30736
1.86017
2.42834
3.00929
3.60027
4.19827
4.80015
5.40268
6.00265
6.59689
7.18239
7.75629
8.31603
8.85928
9.3841
9.88884
10.3722
10.8332
11.271
11.6853
12.0758
12.4427
12.7862
13.1067
13.4048
13.6812
13.9367
14.1722
14.3888
14.5874
14.7691
14.9349
15.0859
15.2231
15.3475
15.4599
15.5614
15.6527
15.7347
15.8081
15.8737
15.932
15.9837
16.0294
16.0696
16.1046
16.1346
16.1595
16.1787
16.1881
16.1923
16.1472
-7.91002
-7.92832
-7.95326
-7.97261
-7.98771
-8.00028
-8.01087
-8.01994
-8.02809
-8.03579
-8.0435
-8.05155
-8.06031
-8.07
-8.08092
-8.09321
-8.10706
-8.12254
-8.13976
-8.1587
-8.17939
-8.20175
-8.22575
-8.25124
-8.27813
-8.30626
-8.33549
-8.36562
-8.39649
-8.4279
-8.45966
-8.49157
-8.52346
-8.55511
-8.58636
-8.61701
-8.6469
-8.67585
-8.7037
-8.73028
-8.75545
-8.77904
-8.80093
-8.82095
-8.83898
-8.85485
-8.86845
-8.87962
-8.88822
-8.89413
-8.89719
-8.89728
-8.89426
-8.888
-8.87836
-8.86523
-8.84848
-8.82803
-8.80376
-8.77561
-8.74349
-8.70736
-8.66719
-8.62297
-8.57471
-8.52245
-8.46626
-8.40623
-8.34248
-8.27517
-8.20449
-8.13065
-8.0539
-7.97453
-7.89282
-7.80912
-7.72376
-7.63711
-7.54956
-7.46149
-7.37329
-7.28533
-7.198
-7.11163
-7.02657
-6.9431
-6.8615
-6.78191
-6.7046
-6.62956
-6.557
-6.4868
-6.41872
-6.35271
-6.28839
-6.22551
-6.16359
-6.10212
-6.04054
-5.97794
-5.91364
-5.84648
-5.77574
-5.70004
-5.61857
-5.52982
-5.4329
-5.32622
-5.2088
-5.07898
-4.93569
-4.77726
-4.60256
-4.41003
-4.19871
-3.96722
-3.71465
-3.43966
-3.14148
-2.81905
-2.472
-2.09981
-1.70251
-1.28004
-0.832881
-0.361608
0.132696
0.648772
1.18495
1.73931
2.30956
2.89313
3.48719
4.08873
4.69451
5.30129
5.90571
6.50459
7.09476
7.67339
8.23776
8.7856
9.31482
9.82384
10.3112
10.776
11.2175
11.6351
12.0288
12.3986
12.7448
13.0678
13.3682
13.6467
13.9042
14.1416
14.3599
14.5601
14.7433
14.9106
15.063
15.2015
15.327
15.4406
15.5431
15.6354
15.7183
15.7926
15.8588
15.9176
15.9696
16.0151
16.0547
16.0885
16.1167
16.1386
16.1538
16.1578
16.1558
16.1036
-7.92072
-7.93833
-7.96201
-7.98069
-7.99558
-8.00822
-8.01911
-8.02865
-8.03738
-8.04575
-8.05415
-8.06291
-8.07236
-8.0827
-8.09419
-8.10698
-8.12124
-8.13703
-8.15446
-8.17352
-8.19424
-8.21655
-8.24042
-8.26573
-8.29239
-8.32024
-8.34915
-8.37895
-8.40949
-8.44055
-8.47199
-8.50358
-8.53517
-8.56655
-8.59757
-8.62802
-8.65775
-8.68657
-8.71433
-8.74085
-8.76599
-8.78957
-8.81146
-8.83148
-8.8495
-8.86535
-8.87889
-8.88996
-8.89841
-8.90408
-8.90684
-8.90653
-8.90299
-8.89609
-8.88568
-8.87163
-8.85382
-8.83213
-8.80646
-8.77674
-8.74287
-8.70483
-8.66256
-8.61609
-8.56542
-8.5106
-8.45172
-8.38888
-8.32224
-8.25198
-8.1783
-8.10146
-8.02174
-7.93943
-7.85491
-7.76851
-7.68064
-7.59169
-7.5021
-7.41226
-7.32263
-7.23359
-7.14557
-7.05893
-6.97401
-6.89115
-6.81061
-6.73259
-6.65721
-6.58478
-6.51517
-6.44831
-6.38409
-6.32226
-6.26258
-6.20467
-6.14807
-6.09225
-6.03646
-5.97998
-5.92183
-5.86113
-5.79679
-5.72775
-5.65278
-5.57068
-5.48018
-5.38001
-5.26881
-5.14519
-5.00777
-4.85514
-4.68589
-4.49871
-4.29239
-4.06567
-3.81742
-3.54643
-3.25172
-2.93246
-2.58812
-2.21827
-1.8228
-1.4017
-0.955361
-0.484396
0.0101791
0.52708
1.06465
1.62096
2.1937
2.78027
3.37779
3.98319
4.59317
5.2044
5.81348
6.41709
7.01205
7.59542
8.16445
8.7168
9.25038
9.76353
10.2549
10.7234
11.1683
11.5891
11.9858
12.3583
12.707
13.0324
13.3349
13.6154
13.8747
14.1138
14.3337
14.5354
14.72
14.8886
15.0422
15.1819
15.3085
15.4231
15.5266
15.6198
15.7035
15.7785
15.8454
15.9046
15.9566
16.0019
16.0408
16.0735
16.0997
16.1188
16.1303
16.1295
16.122
16.064
-7.93624
-7.95265
-7.97439
-7.99182
-8.00598
-8.01817
-8.02885
-8.0384
-8.04727
-8.05586
-8.06457
-8.07366
-8.08343
-8.09408
-8.10584
-8.11883
-8.13322
-8.14907
-8.16649
-8.18546
-8.20602
-8.22811
-8.25171
-8.27671
-8.30303
-8.33053
-8.35908
-8.38853
-8.41872
-8.44947
-8.48062
-8.51197
-8.54336
-8.57459
-8.6055
-8.63589
-8.66561
-8.69446
-8.72229
-8.74891
-8.77417
-8.79789
-8.81992
-8.84007
-8.85821
-8.87413
-8.8877
-8.89873
-8.90707
-8.91255
-8.915
-8.91425
-8.91015
-8.90254
-8.89126
-8.87617
-8.85714
-8.83405
-8.80679
-8.77528
-8.73944
-8.69923
-8.65462
-8.60561
-8.55223
-8.49456
-8.43268
-8.36674
-8.2969
-8.22337
-8.14639
-8.06625
-7.98325
-7.89776
-7.81015
-7.72084
-7.63025
-7.53884
-7.44707
-7.35539
-7.26426
-7.17414
-7.08547
-6.99862
-6.91398
-6.83189
-6.75262
-6.67637
-6.6034
-6.53363
-6.46736
-6.4042
-6.34415
-6.2869
-6.23221
-6.17965
-6.1287
-6.07883
-6.02917
-5.97909
-5.92744
-5.87349
-5.81587
-5.75371
-5.68546
-5.6102
-5.52631
-5.43279
-5.32795
-5.21068
-5.07926
-4.93252
-4.76881
-4.58705
-4.38573
-4.16382
-3.91982
-3.65278
-3.36147
-3.04531
-2.7035
-2.33582
-1.94189
-1.52191
-1.07607
-0.605114
-0.109908
0.408152
0.947464
1.50604
2.08161
2.67146
3.2727
3.88215
4.4965
5.11228
5.72607
6.33442
6.93414
7.52215
8.09576
8.65247
9.19027
9.7074
10.2025
10.6745
11.1227
11.5466
11.9461
12.3212
12.6722
12.9997
13.3042
13.5865
13.8475
14.0882
14.3096
14.5126
14.6985
14.8684
15.0231
15.1638
15.2915
15.407
15.5114
15.6055
15.69
15.7656
15.833
15.8925
15.9445
15.9896
16.0278
16.0592
16.0836
16.1001
16.108
16.1029
16.0907
16.028
-7.95529
-7.97018
-7.98955
-8.00528
-8.01824
-8.02952
-8.03952
-8.04859
-8.05714
-8.06553
-8.07411
-8.08312
-8.09283
-8.10343
-8.11512
-8.12801
-8.14226
-8.15792
-8.17509
-8.19376
-8.21398
-8.23569
-8.25888
-8.28345
-8.30935
-8.33642
-8.36458
-8.39364
-8.42349
-8.45394
-8.48483
-8.51599
-8.54725
-8.57841
-8.60932
-8.63977
-8.6696
-8.69861
-8.72665
-8.75351
-8.77903
-8.803
-8.82528
-8.84566
-8.86399
-8.88005
-8.89368
-8.90469
-8.91291
-8.91815
-8.92022
-8.91895
-8.91417
-8.90571
-8.8934
-8.87709
-8.85664
-8.83193
-8.80284
-8.76929
-8.73119
-8.68851
-8.64123
-8.58935
-8.53293
-8.47204
-8.4068
-8.33737
-8.26395
-8.18678
-8.10613
-8.02232
-7.93573
-7.84674
-7.75578
-7.66332
-7.56982
-7.47579
-7.38172
-7.28814
-7.19551
-7.10436
-7.01511
-6.92822
-6.84406
-6.76297
-6.68529
-6.61118
-6.54074
-6.47437
-6.4117
-6.35278
-6.29734
-6.24518
-6.19594
-6.14918
-6.10438
-6.06082
-6.01781
-5.97443
-5.92982
-5.88285
-5.83244
-5.77727
-5.71617
-5.6478
-5.57087
-5.484
-5.38578
-5.27478
-5.14952
-5.00855
-4.85048
-4.67398
-4.47771
-4.26035
-4.02057
-3.75721
-3.46922
-3.15586
-2.81645
-2.45058
-2.05799
-1.63876
-1.19314
-0.721815
-0.225695
0.293851
0.835179
1.39629
1.97484
2.56811
3.17313
3.78666
4.40533
5.02561
5.64396
6.25692
6.86118
7.45365
8.03154
8.59239
9.13411
9.65497
10.1536
10.6288
11.0801
11.5068
11.9088
12.2863
12.6395
12.969
13.2753
13.5594
13.8219
14.0641
14.2868
14.4912
14.6783
14.8492
15.0051
15.1468
15.2755
15.392
15.4973
15.5922
15.6774
15.7536
15.8214
15.8811
15.9332
15.9779
16.0154
16.0456
16.0682
16.0822
16.087
16.0781
16.0618
15.9952
-7.97669
-7.98989
-8.00666
-8.02039
-8.03176
-8.04169
-8.05055
-8.05868
-8.06643
-8.07413
-8.08212
-8.09062
-8.09987
-8.11003
-8.12129
-8.13374
-8.14754
-8.16272
-8.17939
-8.19754
-8.21722
-8.23838
-8.26102
-8.28503
-8.31038
-8.33694
-8.36462
-8.39326
-8.42274
-8.45289
-8.48356
-8.51456
-8.54575
-8.5769
-8.60788
-8.63846
-8.66848
-8.69773
-8.72605
-8.75321
-8.77905
-8.80334
-8.82591
-8.84654
-8.86506
-8.88124
-8.8949
-8.90583
-8.91385
-8.91874
-8.92032
-8.91839
-8.91276
-8.90326
-8.88971
-8.87195
-8.84982
-8.8232
-8.79197
-8.75604
-8.71534
-8.66984
-8.61952
-8.56441
-8.50456
-8.44009
-8.37112
-8.29785
-8.22049
-8.13934
-8.0547
-7.96696
-7.87651
-7.7838
-7.68932
-7.59356
-7.49708
-7.40038
-7.30406
-7.20862
-7.11467
-7.02265
-6.93311
-6.84647
-6.76313
-6.68346
-6.60776
-6.53621
-6.46909
-6.40631
-6.34793
-6.29373
-6.24344
-6.19685
-6.15356
-6.11304
-6.07479
-6.03794
-6.00192
-5.96561
-5.9283
-5.8886
-5.84554
-5.79754
-5.74365
-5.68225
-5.61229
-5.53204
-5.4404
-5.33557
-5.21634
-5.08104
-4.92848
-4.75707
-4.56564
-4.35256
-4.11675
-3.85677
-3.57188
-3.26102
-2.92374
-2.55936
-2.16784
-1.74905
-1.30339
-0.831424
-0.334217
0.186964
0.730386
1.29405
1.87553
2.47212
3.08076
3.6982
4.32094
4.94545
5.56805
6.18526
6.79366
7.39016
7.97189
8.53644
9.08167
9.60585
10.1075
10.5857
11.0397
11.4689
11.8733
12.253
12.6082
12.9395
13.2475
13.5331
13.7972
14.0407
14.2647
14.4704
14.6587
14.8307
14.9876
15.1304
15.26
15.3775
15.4837
15.5794
15.6653
15.7421
15.8103
15.8702
15.9222
15.9666
16.0034
16.0325
16.0534
16.0652
16.0671
16.0549
16.035
15.9655
-8.00035
-8.01182
-8.02598
-8.03747
-8.04687
-8.05496
-8.06215
-8.06876
-8.07514
-8.0816
-8.08845
-8.09589
-8.10417
-8.1134
-8.12378
-8.13536
-8.1483
-8.16262
-8.17843
-8.1957
-8.21452
-8.23482
-8.25661
-8.27982
-8.30442
-8.33027
-8.35731
-8.38539
-8.4144
-8.44417
-8.47456
-8.50536
-8.53645
-8.56758
-8.59862
-8.62933
-8.65956
-8.68905
-8.71766
-8.74511
-8.77126
-8.79582
-8.81865
-8.83947
-8.85811
-8.87431
-8.88789
-8.89862
-8.90629
-8.91067
-8.91157
-8.90878
-8.90209
-8.89133
-8.87628
-8.8568
-8.8327
-8.80388
-8.77019
-8.73158
-8.68795
-8.6393
-8.58561
-8.52692
-8.46331
-8.3949
-8.32187
-8.24444
-8.16287
-8.07747
-7.98862
-7.89673
-7.80225
-7.70573
-7.60763
-7.50857
-7.40913
-7.30988
-7.21145
-7.11441
-7.01937
-6.92685
-6.8374
-6.75144
-6.66941
-6.59175
-6.51861
-6.45028
-6.38685
-6.32844
-6.27489
-6.22591
-6.18134
-6.14083
-6.10394
-6.07014
-6.03873
-6.00904
-5.98018
-5.95134
-5.92141
-5.88925
-5.85345
-5.81281
-5.76596
-5.71163
-5.64837
-5.57478
-5.48938
-5.39069
-5.27719
-5.14746
-5.0001
-4.83364
-4.64667
-4.4377
-4.20545
-3.94871
-3.66654
-3.35802
-3.02254
-2.65955
-2.26886
-1.85045
-1.40466
-0.932113
-0.433883
0.0887617
0.634116
1.2001
1.78429
2.38391
2.99588
3.61685
4.24327
4.87149
5.49784
6.11871
6.73069
7.33062
7.91568