/*--------------------------------*- C++ -*----------------------------------*\
  =========                 |
  \\      /  F ield         | OpenFOAM: The Open Source CFD Toolbox
   \\    /   O peration     | Website:  https://openfoam.org
    \\  /    A nd           | Version:  8
     \\/     M anipulation  |
\*---------------------------------------------------------------------------*/
FoamFile
{
    version     2.0;
    format      ascii;
    class       surfaceScalarField;
    location    "105";
    object      phi;
}
// * * * * * * * * * * * * * * * * * * * * * * * * * * * * * * * * * * * * * //

dimensions      [0 3 -1 0 0 0 0];

internalField   nonuniform List<scalar> 
24170
(
3.12888e-06
5.95212e-08
3.04662e-06
8.22674e-08
2.9735e-06
7.31198e-08
2.90481e-06
6.86814e-08
2.84043e-06
6.43832e-08
2.78302e-06
5.74064e-08
2.7336e-06
4.94188e-08
2.69151e-06
4.20805e-08
2.65566e-06
3.58457e-08
2.62498e-06
3.0683e-08
2.59845e-06
2.65272e-08
2.57518e-06
2.32608e-08
2.55444e-06
2.07401e-08
2.53548e-06
1.89614e-08
2.51764e-06
1.78366e-08
2.49894e-06
1.8701e-08
2.47921e-06
1.97258e-08
3.77389e-08
2.44147e-06
3.45314e-06
2.36315e-08
3.45701e-06
7.83912e-08
3.45053e-06
7.96016e-08
3.43906e-06
8.01528e-08
3.42425e-06
7.91883e-08
3.40697e-06
7.46844e-08
3.38769e-06
6.86935e-08
3.36709e-06
6.26779e-08
3.34584e-06
5.70904e-08
3.32453e-06
5.19933e-08
3.30362e-06
4.74351e-08
3.28337e-06
4.35067e-08
3.26395e-06
4.01543e-08
3.24535e-06
3.75593e-08
3.22768e-06
3.55089e-08
3.21071e-06
3.5665e-08
3.19503e-06
3.54053e-08
4.6825e-08
3.18594e-06
3.66826e-06
1.78909e-08
3.67918e-06
6.74727e-08
3.68539e-06
7.3382e-08
3.68941e-06
7.61321e-08
3.69098e-06
7.76195e-08
3.68997e-06
7.56892e-08
3.68678e-06
7.1884e-08
3.68186e-06
6.7592e-08
3.67561e-06
6.33417e-08
3.66834e-06
5.92667e-08
3.6603e-06
5.54653e-08
3.65174e-06
5.20663e-08
3.64281e-06
4.90862e-08
3.63362e-06
4.6743e-08
3.62417e-06
4.49557e-08
3.61497e-06
4.48705e-08
3.60512e-06
4.52548e-08
5.09519e-08
3.60099e-06
3.92587e-06
1.74105e-08
3.9359e-06
5.74359e-08
3.94254e-06
6.67486e-08
3.94805e-06
7.06146e-08
3.95243e-06
7.3238e-08
3.95533e-06
7.27858e-08
3.95694e-06
7.02724e-08
3.9575e-06
6.70359e-08
3.95718e-06
6.36565e-08
3.95613e-06
6.03148e-08
3.95447e-06
5.71223e-08
3.95231e-06
5.4226e-08
3.94971e-06
5.16767e-08
3.94678e-06
4.96723e-08
3.94351e-06
4.82249e-08
3.94038e-06
4.80037e-08
3.93715e-06
4.84833e-08
5.11719e-08
3.93693e-06
4.20819e-06
1.63484e-08
4.21597e-06
4.96548e-08
4.22165e-06
6.10674e-08
4.22673e-06
6.55375e-08
4.23144e-06
6.85259e-08
4.23536e-06
6.88627e-08
4.23846e-06
6.71667e-08
4.24086e-06
6.46403e-08
4.24264e-06
6.18693e-08
4.2439e-06
5.9055e-08
4.2447e-06
5.63172e-08
4.24513e-06
5.3802e-08
4.24522e-06
5.15849e-08
4.24506e-06
4.98246e-08
4.24472e-06
4.85706e-08
4.24455e-06
4.81711e-08
4.24467e-06
4.83594e-08
4.94025e-08
4.24644e-06
4.51068e-06
1.47521e-08
4.51687e-06
4.347e-08
4.5221e-06
5.58367e-08
4.52688e-06
6.075e-08
4.53156e-06
6.38511e-08
4.53575e-06
6.46639e-08
4.53936e-06
6.35566e-08
4.54244e-06
6.15604e-08
4.54506e-06
5.92492e-08
4.54727e-06
5.68374e-08
4.54914e-06
5.44545e-08
4.5507e-06
5.22366e-08
4.55201e-06
5.02716e-08
4.55316e-06
4.86771e-08
4.55422e-06
4.75034e-08
4.55549e-06
4.69017e-08
4.55716e-06
4.6689e-08
4.67018e-08
4.55986e-06
4.8343e-06
1.31697e-08
4.83961e-06
3.81594e-08
4.84472e-06
5.07305e-08
4.84939e-06
5.60757e-08
4.85398e-06
5.92569e-08
4.85825e-06
6.03969e-08
4.86206e-06
5.97481e-08
4.86544e-06
5.81752e-08
4.86846e-06
5.62322e-08
4.87115e-06
5.41446e-08
4.87355e-06
5.20484e-08
4.87572e-06
5.00682e-08
4.8777e-06
4.82928e-08
4.87957e-06
4.68054e-08
4.88143e-06
4.56396e-08
4.8835e-06
4.48343e-08
4.88595e-06
4.42341e-08
4.35737e-08
4.88908e-06
5.18103e-06
1.17244e-08
5.18574e-06
3.34483e-08
5.19072e-06
4.57468e-08
5.19534e-06
5.14526e-08
5.19989e-06
5.47094e-08
5.2042e-06
5.60869e-08
5.20813e-06
5.58133e-08
5.2117e-06
5.45995e-08
5.21497e-06
5.29688e-08
5.21795e-06
5.11562e-08
5.2207e-06
4.92999e-08
5.22325e-06
4.75144e-08
5.22566e-06
4.58819e-08
5.228e-06
4.44598e-08
5.23038e-06
4.32622e-08
5.23294e-06
4.22702e-08
5.23583e-06
4.13467e-08
4.02493e-08
5.23915e-06
5.55268e-06
1.03834e-08
5.55687e-06
2.92546e-08
5.56166e-06
4.09571e-08
5.56624e-06
4.68707e-08
5.57077e-06
5.01815e-08
5.57512e-06
5.17283e-08
5.57917e-06
5.17653e-08
5.5829e-06
5.08667e-08
5.58636e-06
4.95116e-08
5.58957e-06
4.79408e-08
5.59258e-06
4.62918e-08
5.59542e-06
4.46699e-08
5.59816e-06
4.31478e-08
5.60085e-06
4.17653e-08
5.60359e-06
4.05215e-08
5.60648e-06
3.9374e-08
5.60962e-06
3.82068e-08
3.68365e-08
5.61303e-06
5.95103e-06
9.1299e-09
5.95477e-06
2.55147e-08
5.95932e-06
3.64003e-08
5.96385e-06
4.23399e-08
5.96837e-06
4.56675e-08
5.97277e-06
4.73252e-08
5.97692e-06
4.76114e-08
5.9808e-06
4.69871e-08
5.98443e-06
4.58776e-08
5.98785e-06
4.45223e-08
5.99108e-06
4.30565e-08
5.99417e-06
4.15761e-08
5.99717e-06
4.01446e-08
6.00015e-06
3.87904e-08
6.00316e-06
3.75048e-08
6.00629e-06
3.62418e-08
6.00959e-06
3.49101e-08
3.33863e-08
6.01304e-06
6.37798e-06
7.96538e-09
6.38133e-06
2.21604e-08
6.38564e-06
3.20863e-08
6.39011e-06
3.78758e-08
6.3946e-06
4.1172e-08
6.39904e-06
4.28881e-08
6.40328e-06
4.33618e-08
6.4073e-06
4.29689e-08
6.4111e-06
4.20759e-08
6.41471e-06
4.09127e-08
6.41815e-06
3.96102e-08
6.42147e-06
3.82554e-08
6.42471e-06
3.69041e-08
6.42792e-06
3.5578e-08
6.43116e-06
3.42677e-08
6.43447e-06
3.29333e-08
6.43786e-06
3.15093e-08
2.9921e-08
6.44133e-06
5.74176e-06
7.04382e-09
5.74433e-06
1.95846e-08
5.74779e-06
2.86275e-08
5.7515e-06
3.41632e-08
5.75528e-06
3.73891e-08
5.75905e-06
3.91188e-08
5.76271e-06
3.9704e-08
5.7662e-06
3.94708e-08
5.76954e-06
3.87382e-08
5.77273e-06
3.77202e-08
5.7758e-06
3.65425e-08
5.77876e-06
3.52859e-08
5.78167e-06
3.39994e-08
5.78454e-06
3.27037e-08
5.78742e-06
3.13903e-08
5.79032e-06
3.00302e-08
5.79325e-06
2.85757e-08
2.69864e-08
5.79619e-06
6.99913e-06
6.06507e-09
7.00186e-06
1.68569e-08
7.00562e-06
2.48719e-08
7.00977e-06
3.00091e-08
7.01407e-06
3.30846e-08
7.01841e-06
3.47816e-08
7.02266e-06
3.54456e-08
7.02678e-06
3.53557e-08
7.03074e-06
3.47788e-08
7.03455e-06
3.39078e-08
7.03823e-06
3.28604e-08
7.0418e-06
3.17092e-08
7.0453e-06
3.04991e-08
7.04876e-06
2.9249e-08
7.05219e-06
2.79569e-08
7.05561e-06
2.6604e-08
7.05903e-06
2.51626e-08
2.36171e-08
7.06239e-06
8.53188e-06
5.03613e-09
8.53473e-06
1.40038e-08
8.53875e-06
2.08455e-08
8.54334e-06
2.54175e-08
8.54819e-06
2.82365e-08
8.55314e-06
2.98335e-08
8.55806e-06
3.05263e-08
8.56286e-06
3.0547e-08
8.56753e-06
3.01114e-08
8.57205e-06
2.93832e-08
8.57644e-06
2.8469e-08
8.58072e-06
2.74329e-08
8.5849e-06
2.63158e-08
8.58901e-06
2.51367e-08
8.59307e-06
2.39004e-08
8.59707e-06
2.25998e-08
8.60101e-06
2.12235e-08
1.97736e-08
8.60485e-06
1.04003e-05
3.96546e-09
1.04032e-05
1.10435e-08
1.04075e-05
1.65672e-08
1.04125e-05
2.03941e-08
1.0418e-05
2.28226e-08
1.04236e-05
2.42319e-08
1.04292e-05
2.48837e-08
1.04348e-05
2.49674e-08
1.04402e-05
2.46456e-08
1.04456e-05
2.40506e-08
1.04508e-05
2.32706e-08
1.04558e-05
2.23633e-08
1.04608e-05
2.13623e-08
1.04656e-05
2.02899e-08
1.04704e-05
1.91546e-08
1.0475e-05
1.79607e-08
1.04795e-05
1.67071e-08
1.54074e-08
1.04839e-05
1.26779e-05
2.8568e-09
1.2681e-05
7.96872e-09
1.26855e-05
1.2033e-08
1.2691e-05
1.49277e-08
1.2697e-05
1.68107e-08
1.27033e-05
1.79201e-08
1.27097e-05
1.84473e-08
1.27162e-05
1.8531e-08
1.27225e-05
1.82872e-08
1.27288e-05
1.78095e-08
1.27349e-05
1.71675e-08
1.27408e-05
1.64054e-08
1.27466e-05
1.55538e-08
1.27523e-05
1.46312e-08
1.27578e-05
1.36518e-08
1.27631e-05
1.26235e-08
1.27683e-05
1.15541e-08
1.04591e-08
1.27732e-05
1.54543e-05
1.69839e-09
1.54576e-05
4.73197e-09
1.54624e-05
7.18175e-09
1.54684e-05
8.95533e-09
1.54751e-05
1.01215e-08
1.54822e-05
1.0804e-08
1.54895e-05
1.1112e-08
1.54969e-05
1.11287e-08
1.55043e-05
1.09222e-08
1.55116e-05
1.05487e-08
1.55187e-05
1.00515e-08
1.55256e-05
9.46101e-09
1.55324e-05
8.79826e-09
1.55389e-05
8.07883e-09
1.55453e-05
7.31457e-09
1.55514e-05
6.51618e-09
1.55572e-05
5.69211e-09
4.85818e-09
1.55628e-05
1.88389e-05
4.49326e-10
1.88424e-05
1.20825e-09
1.88478e-05
1.83919e-09
1.88544e-05
2.28458e-09
1.8862e-05
2.55708e-09
1.88701e-05
2.68292e-09
1.88785e-05
2.6827e-09
1.88871e-05
2.57549e-09
1.88956e-05
2.37899e-09
1.89041e-05
2.10941e-09
1.89123e-05
1.77917e-09
1.89204e-05
1.39926e-09
1.89282e-05
9.77918e-10
1.89358e-05
5.22916e-10
1.8943e-05
4.08537e-11
1.895e-05
-4.6075e-10
1.89567e-05
-9.75365e-10
-1.49118e-09
1.8963e-05
2.29648e-05
-9.92557e-10
2.29689e-05
-2.88955e-09
2.29751e-05
-4.41048e-09
2.2983e-05
-5.55599e-09
2.29919e-05
-6.35237e-09
2.30014e-05
-6.88965e-09
2.30114e-05
-7.25397e-09
2.30215e-05
-7.50328e-09
2.30315e-05
-7.67329e-09
2.30414e-05
-7.79883e-09
2.30511e-05
-7.90295e-09
2.30605e-05
-8.00315e-09
2.30696e-05
-8.10564e-09
2.30783e-05
-8.21641e-09
2.30867e-05
-8.33529e-09
2.30947e-05
-8.4635e-09
2.31023e-05
-8.59727e-09
-8.73241e-09
2.31095e-05
1.68118e-05
-2.12418e-09
1.6815e-05
-6.07618e-09
1.68199e-05
-9.27047e-09
1.68259e-05
-1.15965e-08
1.68327e-05
-1.31225e-08
1.68399e-05
-1.40754e-08
1.68473e-05
-1.4647e-08
1.68547e-05
-1.49387e-08
1.68621e-05
-1.50338e-08
1.68693e-05
-1.5001e-08
1.68763e-05
-1.48971e-08
1.6883e-05
-1.47531e-08
1.68895e-05
-1.45919e-08
1.68957e-05
-1.44239e-08
1.69016e-05
-1.42592e-08
1.69073e-05
-1.40997e-08
1.69126e-05
-1.39483e-08
-1.38001e-08
1.69177e-05
1.46357e-05
-3.2096e-09
1.46388e-05
-9.17483e-09
1.46435e-05
-1.40063e-08
1.46493e-05
-1.73734e-08
1.46556e-05
-1.94517e-08
1.46622e-05
-2.06943e-08
1.46689e-05
-2.13698e-08
1.46756e-05
-2.16187e-08
1.46821e-05
-2.15695e-08
1.46885e-05
-2.13407e-08
1.46946e-05
-2.10067e-08
1.47004e-05
-2.06139e-08
1.4706e-05
-2.01906e-08
1.47114e-05
-1.97578e-08
1.47164e-05
-1.93273e-08
1.47212e-05
-1.89067e-08
1.47258e-05
-1.84979e-08
-1.81011e-08
1.47301e-05
1.27411e-05
-4.22491e-09
1.27443e-05
-1.23094e-08
1.27491e-05
-1.88539e-08
1.27548e-05
-2.30437e-08
1.27608e-05
-2.5464e-08
1.2767e-05
-2.68894e-08
1.27732e-05
-2.75849e-08
1.27793e-05
-2.76996e-08
1.27852e-05
-2.74414e-08
1.27908e-05
-2.69757e-08
1.27962e-05
-2.63918e-08
1.28013e-05
-2.57421e-08
1.28062e-05
-2.50614e-08
1.28108e-05
-2.43761e-08
1.28152e-05
-2.36991e-08
1.28193e-05
-2.30402e-08
1.28232e-05
-2.24006e-08
-2.17814e-08
1.28269e-05
1.10918e-05
-5.07192e-09
1.1095e-05
-1.55362e-08
1.11001e-05
-2.39923e-08
1.11058e-05
-2.86871e-08
1.11115e-05
-3.12218e-08
1.11174e-05
-3.27293e-08
1.11231e-05
-3.33414e-08
1.11287e-05
-3.3241e-08
1.1134e-05
-3.27301e-08
1.1139e-05
-3.20059e-08
1.11438e-05
-3.11616e-08
1.11483e-05
-3.0252e-08
1.11525e-05
-2.93211e-08
1.11565e-05
-2.83946e-08
1.11603e-05
-2.74901e-08
1.11639e-05
-2.66123e-08
1.11673e-05
-2.57658e-08
-2.49486e-08
1.11704e-05
9.65582e-06
-5.67547e-09
9.65925e-06
-1.89686e-08
9.6646e-06
-2.93486e-08
9.67012e-06
-3.41985e-08
9.67569e-06
-3.67963e-08
9.68126e-06
-3.83056e-08
9.68661e-06
-3.86923e-08
9.69166e-06
-3.82868e-08
9.69642e-06
-3.74913e-08
9.70091e-06
-3.65003e-08
9.70514e-06
-3.53928e-08
9.70912e-06
-3.42278e-08
9.71285e-06
-3.30518e-08
9.71635e-06
-3.18954e-08
9.71963e-06
-3.0772e-08
9.72271e-06
-2.9689e-08
9.72559e-06
-2.86468e-08
-2.76424e-08
9.72828e-06
8.4053e-06
-5.62523e-09
8.40964e-06
-2.33092e-08
8.41489e-06
-3.45928e-08
8.41992e-06
-3.92358e-08
8.4253e-06
-4.21731e-08
8.43072e-06
-4.37258e-08
8.43581e-06
-4.37899e-08
8.44053e-06
-4.30038e-08
8.44491e-06
-4.18693e-08
8.44897e-06
-4.05627e-08
8.45273e-06
-3.91541e-08
8.45621e-06
-3.77049e-08
8.45942e-06
-3.62643e-08
8.46238e-06
-3.48602e-08
8.46512e-06
-3.35075e-08
8.46764e-06
-3.2212e-08
8.46997e-06
-3.0974e-08
-2.9792e-08
8.47211e-06
7.3145e-06
-2.84489e-09
7.3212e-06
-3.00015e-08
7.32675e-06
-4.01525e-08
7.33171e-06
-4.41917e-08
7.33711e-06
-4.75778e-08
7.34244e-06
-4.90548e-08
7.34733e-06
-4.86757e-08
7.35175e-06
-4.74235e-08
7.35573e-06
-4.58519e-08
7.35928e-06
-4.41194e-08
7.36244e-06
-4.23078e-08
7.36522e-06
-4.04871e-08
7.36767e-06
-3.87117e-08
7.36981e-06
-3.70051e-08
7.37168e-06
-3.5382e-08
7.37332e-06
-3.38453e-08
7.37474e-06
-3.23941e-08
-3.10198e-08
7.37597e-06
6.36244e-06
4.78517e-09
6.3719e-06
-3.94667e-08
6.37933e-06
-4.75821e-08
6.38597e-06
-5.08341e-08
6.39226e-06
-5.38656e-08
6.39758e-06
-5.43742e-08
6.40188e-06
-5.29756e-08
6.40536e-06
-5.09081e-08
6.40816e-06
-4.8654e-08
6.41035e-06
-4.63032e-08
6.41197e-06
-4.3934e-08
6.41311e-06
-4.16243e-08
6.41382e-06
-3.94231e-08
6.41416e-06
-3.73495e-08
6.4142e-06
-3.54158e-08
6.41397e-06
-3.36197e-08
6.41354e-06
-3.1961e-08
-3.04174e-08
6.41294e-06
5.54129e-06
8.95472e-09
5.55033e-06
-4.84981e-08
5.55834e-06
-5.5598e-08
5.56605e-06
-5.85444e-08
5.57252e-06
-6.03308e-08
5.57685e-06
-5.87041e-08
5.57909e-06
-5.52206e-08
5.57965e-06
-5.147e-08
5.5789e-06
-4.79014e-08
5.57711e-06
-4.45151e-08
5.57451e-06
-4.13346e-08
5.57129e-06
-3.84007e-08
5.56758e-06
-3.57209e-08
5.56352e-06
-3.32887e-08
5.5592e-06
-3.10962e-08
5.55471e-06
-2.91324e-08
5.55015e-06
-2.73958e-08
-2.58341e-08
5.54557e-06
4.86019e-06
-2.36287e-08
4.86538e-06
-5.369e-08
4.86523e-06
-5.545e-08
4.86217e-06
-5.54831e-08
4.857e-06
-5.51616e-08
4.8495e-06
-5.12048e-08
4.83981e-06
-4.5531e-08
4.82842e-06
-4.00796e-08
4.81584e-06
-3.5325e-08
4.80256e-06
-3.12353e-08
4.78896e-06
-2.77326e-08
4.77532e-06
-2.47569e-08
4.76182e-06
-2.22266e-08
4.74861e-06
-2.00763e-08
4.73576e-06
-1.82505e-08
4.72335e-06
-1.67251e-08
4.71149e-06
-1.55359e-08
-1.5194e-08
4.70086e-06
4.17905e-06
4.12536e-06
4.06991e-06
4.01442e-06
3.95926e-06
3.90806e-06
3.86253e-06
3.82245e-06
3.78712e-06
3.75589e-06
3.72815e-06
3.7034e-06
3.68117e-06
3.66109e-06
3.64284e-06
3.62612e-06
3.61058e-06
3.59539e-06
2.11883e-08
-2.12604e-08
4.29387e-08
-2.18223e-08
5.82392e-08
-1.5368e-08
6.66785e-08
-8.48263e-09
6.83405e-08
-1.71641e-09
6.38588e-08
4.44893e-09
5.41076e-08
9.70036e-09
4.00929e-08
1.39872e-08
2.24246e-08
1.76092e-08
1.36417e-09
2.10261e-08
-2.09378e-08
2.21848e-08
-4.16656e-08
2.06813e-08
-6.35773e-08
2.17813e-08
-8.76717e-08
2.40698e-08
-1.14452e-07
2.66552e-08
-1.43817e-07
2.93524e-08
-1.76635e-07
3.2689e-08
-2.1349e-07
3.68504e-08
-2.55673e-07
4.20631e-08
-3.0432e-07
4.86544e-08
-3.58403e-07
5.39712e-08
-4.13454e-07
5.50723e-08
-4.69513e-07
5.59641e-08
-5.28576e-07
5.90918e-08
-5.8961e-07
6.09459e-08
-6.51987e-07
6.24021e-08
-7.15635e-07
6.35506e-08
-7.79926e-07
6.43087e-08
-8.4465e-07
6.46254e-08
-9.09161e-07
6.45184e-08
-9.73288e-07
6.40146e-08
-1.03647e-06
6.31743e-08
-1.09862e-06
6.20404e-08
-1.15932e-06
6.06787e-08
-1.21858e-06
5.91324e-08
-1.27607e-06
5.74646e-08
-1.3319e-06
5.57072e-08
-1.38584e-06
5.39122e-08
-1.43805e-06
5.20978e-08
-1.48837e-06
5.03036e-08
-1.53701e-06
4.85345e-08
-1.58384e-06
4.68192e-08
-1.62909e-06
4.51522e-08
-1.67265e-06
4.35549e-08
-1.71477e-06
4.20145e-08
-1.75533e-06
4.05477e-08
-1.79457e-06
3.91359e-08
-1.83237e-06
3.77929e-08
-1.86897e-06
3.64983e-08
-1.90425e-06
3.5265e-08
-1.93841e-06
3.40693e-08
-1.97134e-06
3.29249e-08
-2.00323e-06
3.18085e-08
-2.03398e-06
3.07324e-08
-2.06375e-06
2.9674e-08
-2.09243e-06
2.86496e-08
-2.12017e-06
2.76375e-08
-2.14687e-06
2.66533e-08
-2.17267e-06
2.56765e-08
-2.19746e-06
2.47263e-08
-2.22137e-06
2.37827e-08
-2.2443e-06
2.28641e-08
-2.2664e-06
2.19528e-08
-2.28756e-06
2.10697e-08
-2.3079e-06
2.01979e-08
-2.32736e-06
1.93584e-08
-2.34604e-06
1.85364e-08
-2.36389e-06
1.77524e-08
-2.38101e-06
1.69938e-08
-2.39738e-06
1.62792e-08
-2.4131e-06
1.55988e-08
-2.42817e-06
1.49699e-08
-2.44266e-06
1.43858e-08
-2.45662e-06
1.38606e-08
-2.47011e-06
1.33896e-08
-2.4832e-06
1.29847e-08
-2.49596e-06
1.26443e-08
-2.50847e-06
1.23791e-08
-2.52077e-06
1.21879e-08
-2.53299e-06
1.20737e-08
-2.54515e-06
1.20379e-08
-2.5574e-06
1.20813e-08
-2.56973e-06
1.2206e-08
-2.58231e-06
1.24024e-08
-2.59511e-06
1.26738e-08
-2.6083e-06
1.30037e-08
-2.6218e-06
1.33979e-08
-2.63573e-06
1.38327e-08
-2.65004e-06
1.4306e-08
-2.66473e-06
1.47615e-08
-2.68e-06
1.53178e-08
-2.69596e-06
1.59938e-08
-2.71242e-06
1.64686e-08
-2.72926e-06
1.68604e-08
-2.74657e-06
1.73029e-08
-2.76424e-06
1.76826e-08
-2.78221e-06
1.79533e-08
-2.80039e-06
1.81694e-08
-2.81881e-06
1.83637e-08
-2.83712e-06
1.82517e-08
-2.85516e-06
1.79233e-08
-2.87282e-06
1.7491e-08
-2.88987e-06
1.68118e-08
-2.906e-06
1.58014e-08
-2.92063e-06
1.42749e-08
-2.93355e-06
1.2522e-08
-2.94498e-06
1.10497e-08
-2.95414e-06
8.74813e-09
-2.96053e-06
6.04246e-09
-2.96396e-06
3.05439e-09
-2.96415e-06
-1.31645e-10
-2.96172e-06
-2.76701e-09
-2.95596e-06
-6.02993e-09
-2.94649e-06
-9.76394e-09
-2.93377e-06
-1.29292e-08
-2.91737e-06
-1.665e-08
-2.89647e-06
-2.10738e-08
-2.87154e-06
-2.50883e-08
-2.8423e-06
-2.92921e-08
-2.80855e-06
-3.38573e-08
-2.77001e-06
-3.86915e-08
-2.7266e-06
-4.37167e-08
-2.6782e-06
-4.87064e-08
-2.62464e-06
-5.39136e-08
-2.56593e-06
-5.89015e-08
-2.50211e-06
-6.39643e-08
-2.43301e-06
-6.90685e-08
-2.35883e-06
-7.41001e-08
-2.27959e-06
-7.90157e-08
-2.19548e-06
-8.38453e-08
-2.1066e-06
-8.84949e-08
-2.01321e-06
-9.29882e-08
-1.91547e-06
-9.72364e-08
-1.81372e-06
-1.01252e-07
-1.70819e-06
-1.04961e-07
-1.59926e-06
-1.08369e-07
-1.48724e-06
-1.11422e-07
-1.37253e-06
-1.14128e-07
-1.25549e-06
-1.16452e-07
-1.13655e-06
-1.18404e-07
-1.01608e-06
-1.19971e-07
-8.94519e-07
-1.21163e-07
-7.72211e-07
-1.21984e-07
-6.49519e-07
-1.22461e-07
-5.26737e-07
-1.22602e-07
-4.04262e-07
-1.22363e-07
-2.82208e-07
-1.21975e-07
-1.60138e-07
-1.22045e-07
-3.71829e-08
-1.22953e-07
8.65693e-08
-1.23789e-07
2.09284e-07
-1.22763e-07
3.29459e-07
-1.20245e-07
4.46513e-07
-1.17127e-07
5.60097e-07
-1.13669e-07
6.70012e-07
-1.09998e-07
7.76107e-07
-1.06182e-07
8.78301e-07
-1.02279e-07
9.76558e-07
-9.83397e-08
1.07088e-06
-9.44058e-08
1.16129e-06
-9.04772e-08
1.24783e-06
-8.6612e-08
1.33058e-06
-8.28115e-08
1.40958e-06
-7.90654e-08
1.48491e-06
-7.53867e-08
1.55667e-06
-7.18067e-08
1.62494e-06
-6.83117e-08
1.68978e-06
-6.488e-08
1.75125e-06
-6.15022e-08
1.8094e-06
-5.81871e-08
1.86429e-06
-5.49093e-08
1.9159e-06
-5.16418e-08
1.96421e-06
-4.83232e-08
2.00904e-06
-4.48593e-08
2.05009e-06
-4.10735e-08
2.08672e-06
-3.66628e-08
2.11768e-06
-3.09853e-08
2.14022e-06
-2.25758e-08
2.14551e-06
-5.32741e-09
2.11059e-06
3.48867e-08
1.05826e-07
2.00476e-06
1.71659e-08
-3.84864e-08
2.61244e-08
-3.08332e-08
2.84706e-08
-1.77535e-08
2.62189e-08
-6.25785e-09
2.01288e-08
4.34404e-09
1.04206e-08
1.41359e-08
-2.99103e-09
2.30835e-08
-2.0288e-08
3.12641e-08
-4.15769e-08
3.88667e-08
-6.65769e-08
4.60031e-08
-9.65816e-08
5.21504e-08
-1.32571e-07
5.66488e-08
-1.72015e-07
6.11855e-08
-2.14135e-07
6.61716e-08
-2.59123e-07
7.16048e-08
-3.07203e-07
7.74171e-08
-3.5824e-07
8.3685e-08
-4.1191e-07
9.05058e-08
-4.67654e-07
9.77687e-08
-5.24122e-07
1.05112e-07
-5.81617e-07
1.11433e-07
-6.42235e-07
1.15682e-07
-7.04957e-07
1.18658e-07
-7.67268e-07
1.214e-07
-8.29839e-07
1.23488e-07
-8.92154e-07
1.24709e-07
-9.53781e-07
1.25145e-07
-1.01433e-06
1.2485e-07
-1.07362e-06
1.23879e-07
-1.13142e-06
1.22305e-07
-1.18765e-06
1.20209e-07
-1.24218e-06
1.17683e-07
-1.295e-06
1.14814e-07
-1.34603e-06
1.11689e-07
-1.39533e-06
1.08387e-07
-1.44287e-06
1.0498e-07
-1.48874e-06
1.01528e-07
-1.53294e-06
9.80832e-08
-1.57556e-06
9.46828e-08
-1.61664e-06
9.13593e-08
-1.65628e-06
8.81315e-08
-1.69449e-06
8.50162e-08
-1.7314e-06
8.20184e-08
-1.76701e-06
7.91445e-08
-1.80142e-06
7.63904e-08
-1.83465e-06
7.37559e-08
-1.86679e-06
7.1232e-08
-1.89783e-06
6.88151e-08
-1.92787e-06
6.64934e-08
-1.95689e-06
6.42625e-08
-1.98497e-06
6.21094e-08
-2.01209e-06
6.0029e-08
-2.03833e-06
5.80086e-08
-2.06367e-06
5.60452e-08
-2.08817e-06
5.41277e-08
-2.11181e-06
5.22554e-08
-2.13464e-06
5.04189e-08
-2.15665e-06
4.86202e-08
-2.17788e-06
4.68521e-08
-2.19832e-06
4.51186e-08
-2.21801e-06
4.34145e-08
-2.23694e-06
4.17462e-08
-2.25517e-06
4.01105e-08
-2.27267e-06
3.85164e-08
-2.28951e-06
3.69627e-08
-2.30567e-06
3.54599e-08
-2.32121e-06
3.40082e-08
-2.33614e-06
3.26194e-08
-2.35051e-06
3.12949e-08
-2.36434e-06
3.0047e-08
-2.37768e-06
2.88785e-08
-2.39057e-06
2.78017e-08
-2.40306e-06
2.68202e-08
-2.41521e-06
2.59457e-08
-2.42706e-06
2.51807e-08
-2.43867e-06
2.45353e-08
-2.45011e-06
2.40142e-08
-2.46142e-06
2.36252e-08
-2.47268e-06
2.33695e-08
-2.48393e-06
2.32503e-08
-2.49524e-06
2.32678e-08
-2.50666e-06
2.34209e-08
-2.51824e-06
2.37041e-08
-2.53004e-06
2.41083e-08
-2.54208e-06
2.46245e-08
-2.5544e-06
2.52368e-08
-2.56701e-06
2.59307e-08
-2.57992e-06
2.66854e-08
-2.59309e-06
2.74909e-08
-2.60661e-06
2.83097e-08
-2.62042e-06
2.9159e-08
-2.63443e-06
3.00191e-08
-2.6487e-06
3.07491e-08
-2.66318e-06
3.13388e-08
-2.6777e-06
3.18254e-08
-2.69219e-06
3.21733e-08
-2.70658e-06
3.23275e-08
-2.7207e-06
3.2276e-08
-2.73436e-06
3.19798e-08
-2.74747e-06
3.1316e-08
-2.75989e-06
3.02518e-08
-2.77134e-06
2.88193e-08
-2.78166e-06
2.69576e-08
-2.79067e-06
2.45942e-08
-2.79836e-06
2.17127e-08
-2.80453e-06
1.84406e-08
-2.80865e-06
1.49087e-08
-2.81097e-06
1.08217e-08
-2.81139e-06
6.21365e-09
-2.80978e-06
1.22594e-09
-2.80592e-06
-4.2235e-09
-2.79889e-06
-9.98246e-09
-2.78886e-06
-1.62615e-08
-2.77568e-06
-2.31e-08
-2.75854e-06
-3.02396e-08
-2.73745e-06
-3.78689e-08
-2.71261e-06
-4.60504e-08
-2.68325e-06
-5.45092e-08
-2.64928e-06
-6.33121e-08
-2.61064e-06
-7.25468e-08
-2.56731e-06
-8.21536e-08
-2.51915e-06
-9.20692e-08
-2.46588e-06
-1.02209e-07
-2.40748e-06
-1.12516e-07
-2.34377e-06
-1.22764e-07
-2.27469e-06
-1.33112e-07
-2.20032e-06
-1.43442e-07
-2.12069e-06
-1.53663e-07
-2.0359e-06
-1.63698e-07
-1.94606e-06
-1.73511e-07
-1.85135e-06
-1.83003e-07
-1.75196e-06
-1.92134e-07
-1.64813e-06
-2.00798e-07
-1.54014e-06
-2.08944e-07
-1.42832e-06
-2.16482e-07
-1.313e-06
-2.23368e-07
-1.19458e-06
-2.29532e-07
-1.07344e-06
-2.34953e-07
-9.50009e-07
-2.39585e-07
-8.24712e-07
-2.43428e-07
-6.97976e-07
-2.46465e-07
-5.70237e-07
-2.48716e-07
-4.41878e-07
-2.50196e-07
-3.13271e-07
-2.50971e-07
-1.84602e-07
-2.512e-07
-5.58825e-08
-2.51049e-07
7.25655e-08
-2.50404e-07
1.99745e-07
-2.49234e-07
3.24245e-07
-2.47468e-07
4.45136e-07
-2.44717e-07
5.62867e-07
-2.4053e-07
6.77739e-07
-2.35171e-07
7.89596e-07
-2.29034e-07
8.98247e-07
-2.22381e-07
1.00355e-06
-2.15353e-07
1.10538e-06
-2.08078e-07
1.20367e-06
-2.00635e-07
1.29839e-06
-1.9312e-07
1.38951e-06
-1.85584e-07
1.47705e-06
-1.78074e-07
1.56102e-06
-1.70636e-07
1.64146e-06
-1.63302e-07
1.71843e-06
-1.56076e-07
1.79198e-06
-1.4899e-07
1.8622e-06
-1.42064e-07
1.92915e-06
-1.35291e-07
1.99287e-06
-1.28633e-07
2.05342e-06
-1.22088e-07
2.11086e-06
-1.15647e-07
2.1652e-06
-1.09277e-07
2.21645e-06
-1.02912e-07
2.26455e-06
-9.64423e-08
2.30934e-06
-8.96732e-08
2.35054e-06
-8.22902e-08
2.38756e-06
-7.3707e-08
2.41944e-06
-6.28901e-08
2.44424e-06
-4.7405e-08
2.46135e-06
-2.2467e-08
2.47046e-06
2.57561e-08
1.18552e-07
2.45773e-06
3.86273e-09
-4.23984e-08
-3.3251e-12
-2.7006e-08
-7.66369e-09
-1.01215e-08
-1.84081e-08
4.46772e-09
-3.19501e-08
1.78658e-08
-4.82687e-08
3.04398e-08
-6.75479e-08
4.23448e-08
-8.99948e-08
5.36979e-08
-1.15747e-07
6.46004e-08
-1.44809e-07
7.50532e-08
-1.7751e-07
8.48329e-08
-2.14553e-07
9.36809e-08
-2.55396e-07
1.02011e-07
-2.99417e-07
1.10184e-07
-3.46218e-07
1.18388e-07
-3.95486e-07
1.26676e-07
-4.4683e-07
1.35009e-07
-4.9959e-07
1.43257e-07
-5.53017e-07
1.51176e-07
-6.06363e-07
1.5845e-07
-6.59612e-07
1.64663e-07
-7.13473e-07
1.69536e-07
-7.68047e-07
1.73212e-07
-8.22442e-07
1.75788e-07
-8.76274e-07
1.773e-07
-9.29351e-07
1.77778e-07
-9.81523e-07
1.77295e-07
-1.03263e-06
1.75945e-07
-1.0826e-06
1.73827e-07
-1.13135e-06
1.71045e-07
-1.17887e-06
1.67705e-07
-1.22511e-06
1.63916e-07
-1.2701e-06
1.59777e-07
-1.31381e-06
1.55386e-07
-1.35628e-06
1.50827e-07
-1.39749e-06
1.46179e-07
-1.4375e-06
1.41506e-07
-1.47629e-06
1.36863e-07
-1.51392e-06
1.32289e-07
-1.55039e-06
1.27819e-07
-1.58575e-06
1.23474e-07
-1.62002e-06
1.19269e-07
-1.65323e-06
1.15212e-07
-1.68541e-06
1.11308e-07
-1.7166e-06
1.07554e-07
-1.74681e-06
1.03946e-07
-1.77608e-06
1.00478e-07
-1.80442e-06
9.71411e-08
-1.83188e-06
9.39254e-08
-1.85846e-06
9.08212e-08
-1.88419e-06
8.78172e-08
-1.90908e-06
8.49038e-08
-1.93317e-06
8.20699e-08
-1.95646e-06
7.93074e-08
-1.97897e-06
7.66077e-08
-2.0007e-06
7.3965e-08
-2.02169e-06
7.13731e-08
-2.04193e-06
6.88291e-08
-2.06144e-06
6.63299e-08
-2.08023e-06
6.38756e-08
-2.09831e-06
6.14656e-08
-2.11571e-06
5.9103e-08
-2.13242e-06
5.67904e-08
-2.14848e-06
5.45339e-08
-2.16389e-06
5.23387e-08
-2.17869e-06
5.02131e-08
-2.19288e-06
4.81644e-08
-2.20651e-06
4.62028e-08
-2.21959e-06
4.4337e-08
-2.23216e-06
4.25784e-08
-2.24426e-06
4.09368e-08
-2.25592e-06
3.94242e-08
-2.26719e-06
3.80506e-08
-2.27811e-06
3.68268e-08
-2.28873e-06
3.57617e-08
-2.2991e-06
3.4865e-08
-2.30928e-06
3.41442e-08
-2.3193e-06
3.36063e-08
-2.32923e-06
3.32546e-08
-2.33912e-06
3.30912e-08
-2.34902e-06
3.31155e-08
-2.35897e-06
3.33236e-08
-2.36903e-06
3.3707e-08
-2.37923e-06
3.42536e-08
-2.38961e-06
3.49481e-08
-2.4002e-06
3.57693e-08
-2.41101e-06
3.66943e-08
-2.42206e-06
3.7698e-08
-2.43332e-06
3.87515e-08
-2.44481e-06
3.98257e-08
-2.45652e-06
4.08858e-08
-2.46839e-06
4.18996e-08
-2.48043e-06
4.27935e-08
-2.49261e-06
4.35034e-08
-2.5048e-06
4.4023e-08
-2.51695e-06
4.43044e-08
-2.52893e-06
4.43059e-08
-2.54066e-06
4.39718e-08
-2.55197e-06
4.326e-08
-2.56278e-06
4.20752e-08
-2.57295e-06
4.03587e-08
-2.58233e-06
3.80847e-08
-2.59073e-06
3.52218e-08
-2.59802e-06
3.17176e-08
-2.60407e-06
2.75736e-08
-2.60865e-06
2.2833e-08
-2.61146e-06
1.75295e-08
-2.6124e-06
1.15901e-08
-2.61132e-06
4.95578e-09
-2.60792e-06
-2.32426e-09
-2.60195e-06
-1.03546e-08
-2.59301e-06
-1.90528e-08
-2.58099e-06
-2.84273e-08
-2.56564e-06
-3.85527e-08
-2.54662e-06
-4.93878e-08
-2.52371e-06
-6.08632e-08
-2.49683e-06
-7.30112e-08
-2.46561e-06
-8.57669e-08
-2.42988e-06
-9.90726e-08
-2.38953e-06
-1.12935e-07
-2.34449e-06
-1.2731e-07
-2.29457e-06
-1.42129e-07
-2.23962e-06
-1.57333e-07
-2.17952e-06
-1.72752e-07
-2.11417e-06
-1.88232e-07
-2.04351e-06
-2.0381e-07
-1.9676e-06
-2.19369e-07
-1.88644e-06
-2.34765e-07
-1.80016e-06
-2.49908e-07
-1.70886e-06
-2.64685e-07
-1.61273e-06
-2.78992e-07
-1.51197e-06
-2.92714e-07
-1.40686e-06
-3.05733e-07
-1.29766e-06
-3.17932e-07
-1.18473e-06
-3.29203e-07
-1.06843e-06
-3.39452e-07
-9.49154e-07
-3.48596e-07
-8.27317e-07
-3.56574e-07
-7.03359e-07
-3.63344e-07
-5.77715e-07
-3.6888e-07
-4.50831e-07
-3.73186e-07
-3.23133e-07
-3.76272e-07
-1.94998e-07
-3.78221e-07
-6.67186e-08
-3.79157e-07
6.12848e-08
-3.79134e-07
1.88367e-07
-3.78069e-07
3.13891e-07
-3.75883e-07
4.37301e-07
-3.72602e-07
5.58039e-07
-3.68177e-07
6.75751e-07
-3.62399e-07
7.9045e-07
-3.55211e-07
9.0214e-07
-3.4684e-07
1.01069e-06
-3.37575e-07
1.11598e-06
-3.27653e-07
1.21788e-06
-3.1725e-07
1.31633e-06
-3.0651e-07
1.41126e-06
-2.95557e-07
1.50264e-06
-2.84497e-07
1.59048e-06
-2.73417e-07
1.67479e-06
-2.62378e-07
1.75561e-06
-2.51448e-07
1.83299e-06
-2.40677e-07
1.90701e-06
-2.30091e-07
1.97774e-06
-2.19708e-07
2.04523e-06
-2.09553e-07
2.10956e-06
-1.99614e-07
2.1708e-06
-1.89862e-07
2.229e-06
-1.80279e-07
2.28421e-06
-1.70851e-07
2.33646e-06
-1.61521e-07
2.38576e-06
-1.52202e-07
2.43205e-06
-1.42726e-07
2.47521e-06
-1.32824e-07
2.51498e-06
-1.22055e-07
2.55092e-06
-1.0965e-07
2.58233e-06
-9.43038e-08
2.60818e-06
-7.32615e-08
2.62764e-06
-4.19252e-08
2.64273e-06
1.06579e-08
1.03737e-07
2.65756e-06
-9.50054e-09
-3.29408e-08
-2.36189e-08
-1.29181e-08
-3.94126e-08
5.6499e-09
-5.69772e-08
2.20176e-08
-7.63991e-08
3.72723e-08
-9.78202e-08
5.185e-08
-1.21425e-07
6.59358e-08
-1.47356e-07
7.96194e-08
-1.75705e-07
9.29368e-08
-2.06515e-07
1.05855e-07
-2.39953e-07
1.18259e-07
-2.76313e-07
1.30034e-07
-3.15549e-07
1.41235e-07
-3.57345e-07
1.51973e-07
-4.01295e-07
1.62326e-07
-4.46923e-07
1.72298e-07
-4.93746e-07
1.81819e-07
-5.41251e-07
1.90755e-07
-5.8901e-07
1.9892e-07
-6.36673e-07
2.06106e-07
-6.84133e-07
2.12108e-07
-7.31406e-07
2.16802e-07
-7.7842e-07
2.2021e-07
-8.25013e-07
2.22374e-07
-8.71069e-07
2.23338e-07
-9.16472e-07
2.23171e-07
-9.61161e-07
2.21965e-07
-1.00506e-06
2.1983e-07
-1.04813e-06
2.16881e-07
-1.09033e-06
2.13235e-07
-1.13165e-06
2.09009e-07
-1.17206e-06
2.04315e-07
-1.21156e-06
1.9926e-07
-1.25013e-06
1.93945e-07
-1.28778e-06
1.88459e-07
-1.32449e-06
1.8288e-07
-1.36027e-06
1.77275e-07
-1.39512e-06
1.71698e-07
-1.42904e-06
1.66195e-07
-1.46203e-06
1.60799e-07
-1.4941e-06
1.55534e-07
-1.52526e-06
1.5042e-07
-1.55553e-06
1.45465e-07
-1.58491e-06
1.40675e-07
-1.61342e-06
1.36049e-07
-1.64107e-06
1.31585e-07
-1.66789e-06
1.27275e-07
-1.69387e-06
1.23112e-07
-1.71905e-06
1.19085e-07
-1.74343e-06
1.15184e-07
-1.76703e-06
1.11397e-07
-1.78986e-06
1.07713e-07
-1.81193e-06
1.04121e-07
-1.83326e-06
1.00612e-07
-1.85385e-06
9.71769e-08
-1.87372e-06
9.38081e-08
-1.89287e-06
9.04998e-08
-1.91132e-06
8.72482e-08
-1.92906e-06
8.40509e-08
-1.94612e-06
8.09075e-08
-1.9625e-06
7.7819e-08
-1.97821e-06
7.47888e-08
-1.99327e-06
7.18215e-08
-2.00768e-06
6.8924e-08
-2.02148e-06
6.61043e-08
-2.03467e-06
6.33721e-08
-2.04727e-06
6.07383e-08
-2.05931e-06
5.82148e-08
-2.07082e-06
5.58144e-08
-2.08182e-06
5.35507e-08
-2.09235e-06
5.14375e-08
-2.10245e-06
4.94888e-08
-2.11215e-06
4.77183e-08
-2.12149e-06
4.61395e-08
-2.13052e-06
4.47642e-08
-2.13929e-06
4.36034e-08
-2.14785e-06
4.2667e-08
-2.15624e-06
4.1962e-08
-2.16451e-06
4.14931e-08
-2.17272e-06
4.12617e-08
-2.18091e-06
4.12661e-08
-2.18912e-06
4.15003e-08
-2.19741e-06
4.19534e-08
-2.2058e-06
4.26097e-08
-2.21435e-06
4.34489e-08
-2.22306e-06
4.44451e-08
-2.23197e-06
4.5568e-08
-2.24109e-06
4.67836e-08
-2.25039e-06
4.80581e-08
-2.25989e-06
4.93394e-08
-2.26959e-06
5.05942e-08
-2.27945e-06
5.17662e-08
-2.28945e-06
5.27922e-08
-2.29956e-06
5.36022e-08
-2.30969e-06
5.41521e-08
-2.31979e-06
5.43851e-08
-2.32975e-06
5.42469e-08
-2.33947e-06
5.36718e-08
-2.34885e-06
5.25991e-08
-2.35776e-06
5.09421e-08
-2.36611e-06
4.86275e-08
-2.37374e-06
4.5605e-08
-2.38048e-06
4.18336e-08
-2.38619e-06
3.72724e-08
-2.39068e-06
3.19043e-08
-2.39374e-06
2.57361e-08
-2.39513e-06
1.87648e-08
-2.39464e-06
1.0957e-08
-2.39207e-06
2.24767e-09
-2.38716e-06
-7.36977e-09
-2.37966e-06
-1.79691e-08
-2.36933e-06
-2.94996e-08
-2.35592e-06
-4.19502e-08
-2.33921e-06
-5.53552e-08
-2.31897e-06
-6.97219e-08
-2.29495e-06
-8.49545e-08
-2.26696e-06
-1.01052e-07
-2.23478e-06
-1.17973e-07
-2.19821e-06
-1.35666e-07
-2.15711e-06
-1.54077e-07