/*--------------------------------*- C++ -*----------------------------------*\
  =========                 |
  \\      /  F ield         | OpenFOAM: The Open Source CFD Toolbox
   \\    /   O peration     | Website:  https://openfoam.org
    \\  /    A nd           | Version:  8
     \\/     M anipulation  |
\*---------------------------------------------------------------------------*/
FoamFile
{
    version     2.0;
    format      ascii;
    class       volVectorField;
    location    "105";
    object      U;
}
// * * * * * * * * * * * * * * * * * * * * * * * * * * * * * * * * * * * * * //

dimensions      [0 1 -1 0 0 0 0];

internalField   nonuniform List<vector> 
12225
(
(9.857 -0.886603 0)
(9.66626 -0.74072 0)
(9.45569 -0.429401 0)
(9.22431 -0.22213 0)
(9.00615 -0.106363 0)
(8.81381 -0.0457665 0)
(8.64658 -0.0150756 0)
(8.50411 0.000575841 0)
(8.38186 0.00852965 0)
(8.27853 0.0124616 0)
(8.18911 0.0142309 0)
(8.11176 0.0153508 0)
(8.04304 0.0159213 0)
(7.98144 0.0163906 0)
(7.92347 0.0169207 0)
(7.87097 0.0182739 0)
(7.79868 0.0211912 0)
(7.78866 0.0297705 0)
(10.0545 0.227696 0)
(10.1213 0.326988 0)
(10.1196 0.261668 0)
(10.0855 0.186633 0)
(10.0433 0.134748 0)
(9.9965 0.101211 0)
(9.94369 0.0794136 0)
(9.88469 0.0647226 0)
(9.82313 0.0544747 0)
(9.76021 0.0469689 0)
(9.69834 0.0413348 0)
(9.63784 0.0369773 0)
(9.57974 0.0336308 0)
(9.52418 0.0313275 0)
(9.47049 0.0297232 0)
(9.42167 0.0311312 0)
(9.36857 0.0310037 0)
(9.34213 0.0538846 0)
(10.0035 0.0581607 0)
(10.0305 0.055965 0)
(10.056 0.0338105 0)
(10.0702 0.0329382 0)
(10.0768 0.0407174 0)
(10.0776 0.0466484 0)
(10.0722 0.0495059 0)
(10.0608 0.0505108 0)
(10.0453 0.0504945 0)
(10.0266 0.0499025 0)
(10.0056 0.0490389 0)
(9.98279 0.0481484 0)
(9.95883 0.0473817 0)
(9.93407 0.0470363 0)
(9.90847 0.0470934 0)
(9.88328 0.0491415 0)
(9.85695 0.0517329 0)
(9.8356 0.063904 0)
(9.99772 0.0109569 0)
(10.0111 0.0266421 0)
(10.035 0.0371662 0)
(10.0524 0.0481353 0)
(10.0642 0.0555406 0)
(10.0731 0.058317 0)
(10.0791 0.0585468 0)
(10.0818 0.0578858 0)
(10.0819 0.0569502 0)
(10.0801 0.0559156 0)
(10.0766 0.0548787 0)
(10.0717 0.0540024 0)
(10.0656 0.053347 0)
(10.0586 0.0531767 0)
(10.0506 0.0535394 0)
(10.0424 0.0555305 0)
(10.0341 0.0584903 0)
(10.0282 0.066019 0)
(9.99935 0.00711129 0)
(10.009 0.0317265 0)
(10.0274 0.0439656 0)
(10.0417 0.0500004 0)
(10.0526 0.0537332 0)
(10.0626 0.0554112 0)
(10.0711 0.0557651 0)
(10.0777 0.0555741 0)
(10.0826 0.0551688 0)
(10.0862 0.0546592 0)
(10.0886 0.0541305 0)
(10.09 0.0537258 0)
(10.0906 0.0535314 0)
(10.0905 0.0537663 0)
(10.0898 0.0545393 0)
(10.0892 0.0564861 0)
(10.0889 0.059339 0)
(10.0905 0.0641001 0)
(10.0003 0.00916416 0)
(10.0082 0.0312511 0)
(10.0227 0.0410179 0)
(10.0348 0.0454995 0)
(10.0449 0.0491928 0)
(10.0545 0.0515911 0)
(10.0633 0.0526585 0)
(10.0708 0.0530075 0)
(10.0771 0.0530337 0)
(10.0824 0.0528946 0)
(10.0869 0.0526971 0)
(10.0907 0.0525776 0)
(10.0938 0.0526392 0)
(10.0965 0.0530552 0)
(10.0989 0.0539391 0)
(10.1014 0.0556223 0)
(10.1045 0.0579464 0)
(10.109 0.0609465 0)
(10.0004 0.00894203 0)
(10.0071 0.0271601 0)
(10.019 0.0365036 0)
(10.0301 0.0415229 0)
(10.0394 0.0456018 0)
(10.0484 0.0483405 0)
(10.0569 0.0497075 0)
(10.0644 0.0503086 0)
(10.071 0.0505616 0)
(10.0768 0.0506329 0)
(10.0821 0.0506305 0)
(10.0868 0.0506765 0)
(10.0911 0.0508743 0)
(10.095 0.0513525 0)
(10.0988 0.0521991 0)
(10.1028 0.0535591 0)
(10.1074 0.0552881 0)
(10.113 0.0571161 0)
(10.0004 0.00792255 0)
(10.0059 0.0234451 0)
(10.0161 0.0328398 0)
(10.0262 0.038257 0)
(10.035 0.0423156 0)
(10.0433 0.0450817 0)
(10.0514 0.0466018 0)
(10.0587 0.0473809 0)
(10.0653 0.0477993 0)
(10.0713 0.0480215 0)
(10.0768 0.0481542 0)
(10.0819 0.0483061 0)
(10.0867 0.0485716 0)
(10.0912 0.049042 0)
(10.0957 0.0497714 0)
(10.1004 0.0507959 0)
(10.1056 0.0519686 0)
(10.1116 0.052969 0)
(10.0004 0.00697629 0)
(10.005 0.0204904 0)
(10.0136 0.02957 0)
(10.0228 0.0350372 0)
(10.031 0.0389604 0)
(10.0389 0.0417143 0)
(10.0465 0.0433662 0)
(10.0536 0.0442975 0)
(10.06 0.0448457 0)
(10.066 0.0451796 0)
(10.0716 0.0454045 0)
(10.0769 0.0456174 0)
(10.0819 0.0458989 0)
(10.0867 0.046311 0)
(10.0916 0.0468773 0)
(10.0966 0.0475769 0)
(10.102 0.0482678 0)
(10.1079 0.048675 0)
(10.0004 0.00615246 0)
(10.0043 0.0179275 0)
(10.0116 0.0264031 0)
(10.0198 0.0317758 0)
(10.0275 0.0355811 0)
(10.0349 0.0383079 0)
(10.0421 0.0400485 0)
(10.0489 0.041092 0)
(10.0552 0.0417351 0)
(10.0611 0.0421472 0)
(10.0667 0.0424303 0)
(10.072 0.0426693 0)
(10.0771 0.0429296 0)
(10.0821 0.0432514 0)
(10.0871 0.0436369 0)
(10.0923 0.0440406 0)
(10.0976 0.0443364 0)
(10.1033 0.0443193 0)
(10.0003 0.00539757 0)
(10.0036 0.0156229 0)
(10.0099 0.0233745 0)
(10.0172 0.0285558 0)
(10.0244 0.032226 0)
(10.0313 0.0348829 0)
(10.0382 0.0366546 0)
(10.0447 0.0377672 0)
(10.0508 0.0384735 0)
(10.0566 0.038935 0)
(10.0621 0.0392483 0)
(10.0674 0.0394857 0)
(10.0726 0.0396999 0)
(10.0776 0.0399155 0)
(10.0826 0.0401225 0)
(10.0877 0.0402698 0)
(10.093 0.0402556 0)
(10.0984 0.0399393 0)
(10.0003 0.00473603 0)
(10.0032 0.0136886 0)
(10.0086 0.0207374 0)
(10.0152 0.0256579 0)
(10.0218 0.0291667 0)
(10.0284 0.0317223 0)
(10.0349 0.0334781 0)
(10.0411 0.0346182 0)
(10.0471 0.0353555 0)
(10.0528 0.0358385 0)
(10.0582 0.0361571 0)
(10.0635 0.0363739 0)
(10.0686 0.036531 0)
(10.0736 0.0366441 0)
(10.0786 0.036699 0)
(10.0836 0.036649 0)
(10.0887 0.0364156 0)
(10.0938 0.0359086 0)
(10.0003 0.00412426 0)
(10.0027 0.0119228 0)
(10.0075 0.0182441 0)
(10.0134 0.0228266 0)
(10.0196 0.0261379 0)
(10.0258 0.0285645 0)
(10.0319 0.0302688 0)
(10.0379 0.0314052 0)
(10.0437 0.0321494 0)
(10.0493 0.032634 0)
(10.0546 0.0329413 0)
(10.0598 0.0331249 0)
(10.0648 0.0332185 0)
(10.0698 0.0332333 0)
(10.0747 0.0331549 0)
(10.0796 0.0329456 0)
(10.0845 0.0325473 0)
(10.0894 0.0319075 0)
(10.0002 0.00349215 0)
(10.0024 0.0100871 0)
(10.0064 0.0155686 0)
(10.0117 0.0196872 0)
(10.0174 0.022716 0)
(10.0232 0.0249516 0)
(10.029 0.0265506 0)
(10.0347 0.0276409 0)
(10.0403 0.0283607 0)
(10.0456 0.028822 0)
(10.0509 0.0290973 0)
(10.0559 0.029231 0)
(10.0609 0.0292494 0)
(10.0657 0.0291609 0)
(10.0705 0.0289551 0)
(10.0753 0.0286055 0)
(10.0799 0.0280741 0)
(10.0845 0.0273372 0)
(10.0002 0.00283515 0)
(10.002 0.00817835 0)
(10.0055 0.0127183 0)
(10.0101 0.016241 0)
(10.0153 0.0188826 0)
(10.0206 0.0208479 0)
(10.0261 0.0222722 0)
(10.0315 0.0232585 0)
(10.0368 0.0239093 0)
(10.042 0.0243124 0)
(10.0471 0.0245281 0)
(10.052 0.0245926 0)
(10.0568 0.0245258 0)
(10.0615 0.0243349 0)
(10.0661 0.0240151 0)
(10.0706 0.0235522 0)
(10.075 0.0229261 0)
(10.0793 0.0221325 0)
(10.0002 0.00215202 0)
(10.0017 0.00619749 0)
(10.0047 0.00969955 0)
(10.0088 0.01249 0)
(10.0134 0.0146215 0)
(10.0183 0.0162191 0)
(10.0234 0.0173835 0)
(10.0285 0.0181922 0)
(10.0335 0.0187161 0)
(10.0385 0.0190174 0)
(10.0434 0.0191415 0)
(10.0481 0.0191169 0)
(10.0528 0.0189589 0)
(10.0573 0.0186739 0)
(10.0617 0.0182622 0)
(10.066 0.0177196 0)
(10.0701 0.0170394 0)
(10.0741 0.0162288 0)
(10.0002 0.0014391 0)
(10.0015 0.00412923 0)
(10.0041 0.00649407 0)
(10.0077 0.00841368 0)
(10.0119 0.00989941 0)
(10.0164 0.011015 0)
(10.0211 0.0118217 0)
(10.0259 0.0123684 0)
(10.0307 0.0126983 0)
(10.0354 0.0128487 0)
(10.0401 0.0128487 0)
(10.0446 0.0127176 0)
(10.049 0.0124667 0)
(10.0534 0.0121017 0)
(10.0575 0.0116251 0)
(10.0616 0.011039 0)
(10.0654 0.0103442 0)
(10.0691 0.00955289 0)
(10.0001 0.000679426 0)
(10.0013 0.00192094 0)
(10.0036 0.00302803 0)
(10.0069 0.00393 0)
(10.0108 0.00462325 0)
(10.015 0.0051289 0)
(10.0194 0.00546902 0)
(10.0239 0.00566246 0)
(10.0285 0.00572629 0)
(10.033 0.00567501 0)
(10.0374 0.00551989 0)
(10.0418 0.00526905 0)
(10.046 0.0049277 0)
(10.0501 0.00449903 0)
(10.054 0.00398557 0)
(10.0578 0.0033906 0)
(10.0614 0.00271759 0)
(10.0649 0.00197825 0)
(10.0001 -0.000170632 0)
(10.0013 -0.000549368 0)
(10.0035 -0.000871591 0)
(10.0066 -0.00115331 0)
(10.0103 -0.00139865 0)
(10.0144 -0.00162369 0)
(10.0187 -0.00184744 0)
(10.0231 -0.00208394 0)
(10.0275 -0.00234263 0)
(10.0318 -0.00263186 0)
(10.0361 -0.00295931 0)
(10.0403 -0.00333058 0)
(10.0443 -0.00374957 0)
(10.0482 -0.00421844 0)
(10.0519 -0.00473844 0)
(10.0555 -0.00530871 0)
(10.0589 -0.00592756 0)
(10.0621 -0.00658737 0)
(10.0001 -0.000985024 0)
(10.0013 -0.00291819 0)
(10.0037 -0.00461867 0)
(10.007 -0.00602828 0)
(10.0109 -0.00714884 0)
(10.0151 -0.00804179 0)
(10.0195 -0.00877012 0)
(10.0239 -0.00937745 0)
(10.0283 -0.00990017 0)
(10.0327 -0.0103717 0)
(10.0369 -0.0108189 0)
(10.041 -0.011261 0)
(10.0449 -0.0117104 0)
(10.0487 -0.0121762 0)
(10.0523 -0.0126641 0)
(10.0558 -0.0131781 0)
(10.059 -0.013719 0)
(10.0621 -0.0142839 0)
(10.0002 -0.00168683 0)
(10.0015 -0.0049843 0)
(10.0041 -0.00788832 0)
(10.0078 -0.0102154 0)
(10.0121 -0.0119913 0)
(10.0165 -0.0133677 0)
(10.0211 -0.014452 0)
(10.0257 -0.015303 0)
(10.0302 -0.015979 0)
(10.0347 -0.0165398 0)
(10.0389 -0.0170319 0)
(10.043 -0.017486 0)
(10.0469 -0.0179217 0)
(10.0507 -0.0183532 0)
(10.0542 -0.0187901 0)
(10.0576 -0.0192392 0)
(10.0608 -0.0197033 0)
(10.0638 -0.020182 0)
(10.0002 -0.00235247 0)
(10.0017 -0.00702299 0)
(10.0047 -0.0111509 0)
(10.009 -0.0143036 0)
(10.0138 -0.0165853 0)
(10.0186 -0.0183081 0)
(10.0235 -0.0196338 0)
(10.0283 -0.0206352 0)
(10.033 -0.0213939 0)
(10.0376 -0.0219918 0)
(10.0419 -0.0224869 0)
(10.046 -0.0229178 0)
(10.0499 -0.0233114 0)
(10.0537 -0.0236869 0)
(10.0572 -0.024058 0)
(10.0605 -0.0244327 0)
(10.0637 -0.0248156 0)
(10.0666 -0.025207 0)
(10.0002 -0.00297452 0)
(10.0018 -0.0090855 0)
(10.0054 -0.0144332 0)
(10.0105 -0.0183111 0)
(10.0159 -0.0210453 0)
(10.0212 -0.0230607 0)
(10.0264 -0.0245143 0)
(10.0315 -0.025533 0)
(10.0364 -0.0262719 0)
(10.0411 -0.0268411 0)
(10.0455 -0.027298 0)
(10.0497 -0.0276791 0)
(10.0536 -0.028014 0)
(10.0574 -0.0283254 0)
(10.0609 -0.0286279 0)
(10.0642 -0.0289307 0)
(10.0673 -0.0292378 0)
(10.0703 -0.0295503 0)
(10.0001 -0.00352109 0)
(10.0018 -0.0115457 0)
(10.0063 -0.0178787 0)
(10.0123 -0.0219677 0)
(10.0183 -0.0250269 0)
(10.0241 -0.0274324 0)
(10.0297 -0.0290707 0)
(10.0351 -0.0300857 0)
(10.0402 -0.0307488 0)
(10.045 -0.0312262 0)
(10.0495 -0.0315865 0)
(10.0538 -0.0318696 0)
(10.0578 -0.0321095 0)
(10.0615 -0.0323304 0)
(10.065 -0.0325468 0)
(10.0683 -0.0327661 0)
(10.0714 -0.0329909 0)
(10.0743 -0.0332202 0)
(9.99991 -0.00336727 0)
(10.0016 -0.0149801 0)
(10.0073 -0.0227269 0)
(10.0143 -0.0262291 0)
(10.0206 -0.0288078 0)
(10.0269 -0.0311697 0)
(10.0332 -0.0328929 0)
(10.0391 -0.0339868 0)
(10.0445 -0.034696 0)
(10.0495 -0.0351746 0)
(10.0542 -0.0354941 0)
(10.0585 -0.0357083 0)
(10.0625 -0.0358635 0)
(10.0661 -0.0359911 0)
(10.0695 -0.0361094 0)
(10.0726 -0.0362284 0)
(10.0755 -0.0363519 0)
(10.0782 -0.0364808 0)
(9.99859 -0.000376465 0)
(9.99904 -0.0157929 0)
(10.0076 -0.0274279 0)
(10.0166 -0.0324801 0)
(10.0238 -0.0348515 0)
(10.0307 -0.0362043 0)
(10.0377 -0.0369576 0)
(10.0442 -0.0374307 0)
(10.0499 -0.0377887 0)
(10.0551 -0.0380485 0)
(10.0596 -0.0382108 0)
(10.0637 -0.0383003 0)
(10.0673 -0.0383476 0)
(10.0704 -0.0383752 0)
(10.0731 -0.0383976 0)
(10.0755 -0.0384234 0)
(10.0776 -0.038455 0)
(10.0794 -0.0384925 0)
(9.99487 0.00140918 0)
(9.99287 -0.00812058 0)
(10.0061 -0.0203251 0)
(10.0202 -0.0322539 0)
(10.0307 -0.0404587 0)
(10.0393 -0.0441316 0)
(10.0468 -0.0450458 0)
(10.053 -0.0449065 0)
(10.0579 -0.0444475 0)
(10.0617 -0.0438622 0)
(10.0647 -0.0432313 0)
(10.0668 -0.0426109 0)
(10.0683 -0.0420362 0)
(10.0691 -0.0415168 0)
(10.0694 -0.0410613 0)
(10.0692 -0.0406674 0)
(10.0687 -0.040331 0)
(10.0678 -0.0400259 0)
(9.9947 -0.0305752 0)
(9.99943 -0.0228474 0)
(10.0146 -0.00261598 0)
(10.0304 -0.00189325 0)
(10.0435 -0.0116433 0)
(10.0533 -0.0209097 0)
(10.0594 -0.02727 0)
(10.0619 -0.0314998 0)
(10.0616 -0.0342795 0)
(10.0591 -0.0359832 0)
(10.0551 -0.0369247 0)
(10.0498 -0.0373699 0)
(10.0435 -0.0375093 0)
(10.0364 -0.0374631 0)
(10.0289 -0.0373209 0)
(10.0209 -0.0371411 0)
(10.0127 -0.0369859 0)
(10.0044 -0.0368227 0)
(10.0274 -0.183005 0)
(10.0766 -0.288324 0)
(10.0871 -0.247818 0)
(10.0777 -0.186555 0)
(10.0664 -0.140316 0)
(10.0538 -0.108234 0)
(10.0365 -0.0858874 0)
(10.0146 -0.0704305 0)
(9.9894 -0.0596611 0)
(9.96237 -0.051888 0)
(9.93439 -0.0460707 0)
(9.90607 -0.0415814 0)
(9.87788 -0.0380355 0)
(9.85015 -0.0351701 0)
(9.82313 -0.032819 0)
(9.79691 -0.0309096 0)
(9.77176 -0.0294068 0)
(9.74769 -0.0286082 0)
(9.93575 0.689542 0)
(9.86828 0.609596 0)
(9.76459 0.38061 0)
(9.62665 0.217416 0)
(9.48593 0.119248 0)
(9.35725 0.0631675 0)
(9.24276 0.0315545 0)
(9.14119 0.0136019 0)
(9.05154 0.00324688 0)
(8.97256 -0.00281521 0)
(8.90265 -0.00637148 0)
(8.84045 -0.00849492 0)
(8.78471 -0.00974757 0)
(8.73455 -0.0105115 0)
(8.68905 -0.011 0)
(8.6476 -0.0112862 0)
(8.60931 -0.0115188 0)
(8.57382 -0.0121633 0)
(0.0118448 -0.0191869 -5.99113e-19)
(0.0315691 -0.0247875 2.9687e-19)
(0.0452969 -0.0194621 0)
(0.0562335 -0.0112414 0)
(0.0610699 -0.00235077 0)
(0.0595444 0.00574809 -1.1977e-19)
(0.0527835 0.0122366 0)
(0.0417767 0.0168997 0)
(0.0280725 0.0202076 0)
(0.0143838 0.0232631 0)
(-0.00468712 0.0205451 2.4366e-19)
(-0.0309528 0.0108794 0)
(-0.0462524 0.00684963 0)
(-0.0672081 0.00666056 0)
(-0.08971 0.00764733 0)
(-0.11433 0.00909213 2.13632e-19)
(-0.141302 0.0125015 0)
(-0.171978 0.0178836 0)
(-0.209098 0.0266018 0)
(-0.25096 0.0407862 0)
(-0.296018 0.0509108 0)
(-0.346468 0.0477987 0)
(-0.396087 0.0470389 0)
(-0.445323 0.0543546 1.03756e-19)
(-0.500444 0.0566027 -9.65971e-20)
(-0.556272 0.0577852 9.00795e-20)
(-0.613294 0.0586623 8.42276e-20)
(-0.671181 0.0592347 0)
(-0.729587 0.0594264 0)
(-0.788133 0.0592299 -7.03955e-20)
(-0.846465 0.0586589 -6.68078e-20)
(-0.904247 0.0577646 0)
(-0.961199 0.0565847 0)
(-1.01709 0.0551809 -5.83049e-20)
(-1.07173 0.0535954 0)
(-1.12498 0.0518884 0)
(-1.17674 0.0500929 5.22457e-20)
(-1.22696 0.0482593 0)
(-1.2756 0.0464076 4.91336e-20)
(-1.32266 0.0445759 9.55725e-20)
(-1.36817 0.0427714 0)
(-1.41215 0.0410212 0)
(-1.45467 0.0393224 0)
(-1.49575 0.0376944 0)
(-1.53548 0.0361266 0)
(-1.5739 0.0346335 8.32987e-20)
(-1.61107 0.0331982 8.17027e-20)
(-1.64705 0.031832 8.01948e-20)
(-1.68188 0.0305165 0)
(-1.71561 0.0292612 -7.73956e-20)
(-1.74829 0.0280444 0)
(-1.77995 0.026877 7.48259e-20)
(-1.81063 0.0257385 7.36083e-20)
(-1.84037 0.0246383 0)
(-1.86919 0.0235568 0)
(-1.89712 0.0225071 0)
(-1.92416 0.0214713 6.90519e-20)
(-1.95035 0.0204623 0)
(-1.9757 0.0194618 0)
(-2.00021 0.0184863 0)
(-2.02391 0.0175193 0)
(-2.0468 0.016577 0)
(-2.06891 0.0156446 0)
(-2.09024 0.0147404 0)
(-2.11081 0.0138503 0)
(-2.13064 0.0129931 -5.95589e-20)
(-2.14974 0.0121565 0)
(-2.16814 0.0113589 0)
(-2.18586 0.0105899 5.63755e-20)
(-2.20295 0.00986737 5.52981e-20)
(-2.21942 0.00918325 0)
(-2.23532 0.0085535 -5.31154e-20)
(-2.2507 0.0079712 5.20095e-20)
(-2.2656 0.00744959 0)
(-2.28007 0.00698261 -4.97675e-20)
(-2.29419 0.00658328 0)
(-2.30799 0.00624951 0)
(-2.32156 0.0059919 4.63381e-20)
(-2.33495 0.00580642 0)
(-2.34826 0.00570101 -4.40176e-20)
(-2.36153 0.00567539 0)
(-2.37485 0.0057341 4.16821e-20)
(-2.38829 0.0058732 4.0513e-20)
(-2.40192 0.00609148 3.93453e-20)
(-2.41581 0.00638874 7.63625e-20)
(-2.43003 0.00676219 -7.40469e-20)
(-2.44463 0.00721229 0)
(-2.45962 0.00772463 0)
(-2.47502 0.00829293 0)
(-2.49083 0.00881797 -6.5027e-20)
(-2.50714 0.00969292 -6.28604e-20)
(-2.52407 0.0108302 6.07835e-20)
(-2.54166 0.0113627 0)
(-2.55974 0.0117432 -5.67721e-20)
(-2.57822 0.0124055 -5.48572e-20)
(-2.59716 0.0130555 -5.30044e-20)
(-2.61648 0.0135704 0)
(-2.63609 0.0140961 0)
(-2.65596 0.0146601 0)
(-2.67597 0.0145989 -4.63418e-20)
(-2.69589 0.0143231 0)
(-2.71553 0.0142605 0)
(-2.7348 0.0139982 4.20705e-20)
(-2.75341 0.0134299 0)
(-2.77098 0.0121988 0)
(-2.787 0.011246 3.84772e-20)
(-2.80158 0.0116603 0)
(-2.81448 0.0107609 0)
(-2.82497 0.00950137 -3.56914e-20)
(-2.83285 0.00825031 -3.48627e-20)
(-2.83744 0.00696399 0)
(-2.83951 0.00688551 3.32298e-20)
(-2.83879 0.00526116 0)
(-2.83464 0.00305329 -3.16234e-20)
(-2.82716 0.00259204 0)
(-2.81652 0.00122152 -2.99523e-20)
(-2.80171 -0.00139304 -2.89704e-20)
(-2.78284 -0.00253056 0)
(-2.75999 -0.00377671 0)
(-2.73279 -0.00561458 0)
(-2.70109 -0.00796398 0)
(-2.66461 -0.0105248 0)
(-2.62331 -0.012899 0)
(-2.57699 -0.0157161 0)
(-2.52547 -0.0182315 -1.56944e-20)
(-2.46892 -0.0208013 1.2721e-20)
(-2.40716 -0.0237404 0)
(-2.3402 -0.0267533 0)
(-2.26812 -0.029859 0)
(-2.191 -0.0330577 0)
(-2.10897 -0.0362963 -2.0641e-20)
(-2.02218 -0.0395708 0)
(-1.93083 -0.0428308 4.94064e-20)
(-1.83513 -0.04607 -6.6676e-20)
(-1.73535 -0.04924 0)
(-1.63177 -0.0523313 0)
(-1.52472 -0.0553071 0)
(-1.41453 -0.0581601 1.60067e-19)
(-1.30157 -0.0608695 1.90854e-19)
(-1.18621 -0.0634417 0)
(-1.06884 -0.0658704 2.63892e-19)
(-0.949845 -0.0681649 3.07173e-19)
(-0.829614 -0.0703352 -3.55862e-19)
(-0.708482 -0.072408 0)
(-0.586783 -0.0743871 0)
(-0.464904 -0.0762408 -5.44547e-19)
(-0.343005 -0.0779817 0)
(-0.221602 -0.0797837 0)
(-0.099872 -0.0806527 0)
(0.024851 -0.0791887 0)
(0.14986 -0.076129 7.56614e-19)
(0.272762 -0.0727179 7.28202e-19)
(0.393208 -0.0693043 0)
(0.510696 -0.0659637 6.83783e-19)
(0.624932 -0.0627127 0)
(0.735737 -0.0595563 0)
(0.842969 -0.0565107 6.36538e-19)
(0.946562 -0.0535922 0)
(1.04649 -0.0507989 6.12878e-19)
(1.14272 -0.0480754 0)
(1.23534 -0.0454658 0)
(1.32434 -0.0430012 5.84367e-19)
(1.40979 -0.0406463 0)
(1.49173 -0.0383872 5.68773e-19)
(1.57025 -0.0362272 0)
(1.64541 -0.0341656 0)
(1.71729 -0.0321913 0)
(1.78592 -0.0302908 -5.43335e-19)
(1.85136 -0.0284656 0)
(1.91364 -0.0267076 5.33024e-19)
(1.97277 -0.0250005 0)
(2.02874 -0.0233229 0)
(2.08141 -0.0216504 0)
(2.13054 -0.0199153 0)
(2.17566 -0.0180359 0)
(2.21567 -0.0157773 0)
(2.24918 -0.0127769 0)
(2.26902 -0.00716326 -1.03373e-18)
(2.27569 0.00618672 0)
(2.17522 0.0264121 0)
(0.00907352 -0.0633769 1.34473e-18)
(0.0219871 -0.0564475 -5.45131e-19)
(0.0247034 -0.036501 0)
(0.0248256 -0.0184636 1.60107e-19)
(0.0212528 -0.00177839 0)
(0.0141839 0.0133246 6.18757e-20)
(0.00385659 0.026549 -1.17548e-19)
(-0.0096957 0.037962 -1.16109e-19)
(-0.0263719 0.0479845 0)
(-0.045797 0.0572007 -1.32529e-19)
(-0.071194 0.0650059 -7.7625e-20)
(-0.101423 0.0686985 0)
(-0.135145 0.0723238 0)
(-0.171567 0.0770592 0)
(-0.210413 0.082655 0)
(-0.251869 0.0887925 -6.57252e-20)
(-0.296086 0.0956845 0)
(-0.343328 0.103884 1.15123e-19)
(-0.392905 0.113387 0)
(-0.443167 0.123574 0)
(-0.494342 0.13272 -9.09019e-20)
(-0.547761 0.138783 0)
(-0.602813 0.142411 7.82236e-20)
(-0.658933 0.145907 -3.72993e-20)
(-0.715687 0.148809 3.56968e-20)
(-0.772222 0.150479 -3.4228e-20)
(-0.828301 0.151034 -3.2863e-20)
(-0.883622 0.150553 0)
(-0.937943 0.149121 0)
(-0.991081 0.146853 2.93544e-20)
(-1.0429 0.143868 -2.8133e-20)
(-1.0933 0.140302 0)
(-1.14221 0.136276 0)
(-1.1896 0.131919 2.58593e-20)
(-1.23546 0.12734 0)
(-1.27981 0.122647 0)
(-1.32266 0.117916 -2.39064e-20)
(-1.36405 0.113227 0)
(-1.40403 0.108623 2.26406e-20)
(-1.44266 0.104155 -4.4719e-20)
(-1.47998 0.0998395 0)
(-1.51606 0.0957044 0)
(-1.55096 0.091749 -8.40576e-20)
(-1.58473 0.0879854 -8.259e-20)
(-1.61742 0.0844014 -8.12019e-20)
(-1.64908 0.0810007 3.97766e-20)
(-1.67975 0.0777639 -3.94708e-20)
(-1.70948 0.0746911 -1.16277e-19)
(-1.7383 0.0717599 7.62534e-20)
(-1.76625 0.0689698 3.77071e-20)
(-1.79335 0.0662966 0)
(-1.81964 0.0637399 -3.66184e-20)
(-1.84513 0.0612768 3.58464e-20)
(-1.86985 0.0589083 0)
(-1.89382 0.0566139 0)
(-1.91705 0.0543984 0)
(-1.93957 0.0522437 -3.40619e-20)
(-1.96138 0.0501571 0)
(-1.9825 0.0481226 6.59769e-20)
(-2.00294 0.0461506 0)
(-2.02272 0.0442269 6.40197e-20)
(-2.04184 0.0423635 0)
(-2.06033 0.0405489 -6.20465e-20)
(-2.07821 0.0387978 0)
(-2.09548 0.0371001 6.00436e-20)
(-2.11217 0.035472 -2.94905e-20)
(-2.1283 0.0339051 0)
(-2.1439 0.0324157 -5.69618e-20)
(-2.15899 0.0309971 -2.79562e-20)
(-2.17361 0.0296648 -2.74174e-20)
(-2.18779 0.0284142 0)
(-2.20157 0.0272604 -2.63583e-20)
(-2.21499 0.0262004 -2.57659e-20)
(-2.22811 0.0252472 0)
(-2.24095 0.0243969 2.46379e-20)
(-2.25359 0.0236604 -4.82023e-20)
(-2.26607 0.0230363 0)
(-2.27844 0.0225334 -2.29142e-20)
(-2.29077 0.0221473 0)
(-2.3031 0.0218809 6.53274e-20)
(-2.31549 0.0217308 0)
(-2.328 0.0216974 -6.18202e-20)
(-2.34067 0.0217736 -2.0002e-20)
(-2.35356 0.0219507 1.94735e-20)
(-2.36669 0.0222198 3.77714e-20)
(-2.38011 0.0225672 -3.65998e-20)
(-2.39385 0.0229836 0)
(-2.4079 0.0234546 0)
(-2.42226 0.0239743 0)
(-2.43695 0.024514 9.61648e-20)
(-2.45196 0.0250418 3.10207e-20)
(-2.46728 0.0255743 -3.001e-20)
(-2.48289 0.0260897 0)
(-2.49873 0.0265244 -2.7799e-20)
(-2.51475 0.026864 2.71163e-20)
(-2.53082 0.0271017 2.62169e-20)
(-2.5469 0.0272142 0)
(-2.56284 0.0271807 0)
(-2.5785 0.0269893 0)
(-2.59374 0.026601 2.30078e-20)
(-2.60842 0.0259421 0)
(-2.62236 0.0249775 -4.26672e-20)
(-2.6354 0.0237266 -6.23338e-20)
(-2.64728 0.0221368 4.01598e-20)
(-2.65799 0.0202315 0)
(-2.66736 0.0179971 1.87813e-20)
(-2.67509 0.0154584 0)
(-2.681 0.0126559 3.63234e-20)
(-2.68518 0.00956066 -1.75366e-20)
(-2.68744 0.00627301 -1.71549e-20)
(-2.68789 0.00274215 0)
(-2.68572 -0.000927738 -5.04151e-20)
(-2.6805 -0.00464141 3.28178e-20)
(-2.6724 -0.00863243 1.63029e-20)
(-2.66093 -0.0129204 0)
(-2.64552 -0.0173487 1.56484e-20)
(-2.62645 -0.0219487 4.53253e-20)
(-2.6034 -0.0268242 0)
(-2.57587 -0.0318379 2.83912e-20)
(-2.54381 -0.0369833 2.74238e-20)
(-2.50715 -0.0422242 2.62994e-20)
(-2.46584 -0.0475697 0)
(-2.41965 -0.0530237 0)
(-2.36834 -0.0584638 0)
(-2.31184 -0.0637993 -9.8309e-21)
(-2.25003 -0.0692007 -8.45186e-21)
(-2.18287 -0.074505 0)
(-2.11041 -0.0796937 -1.10854e-20)
(-2.03267 -0.0847271 -7.40578e-21)
(-1.94975 -0.089608 0)
(-1.86177 -0.0942791 2.42237e-21)
(-1.76887 -0.0987386 1.35743e-20)
(-1.67126 -0.102925 -1.39679e-20)
(-1.56917 -0.106825 -1.77884e-20)
(-1.46289 -0.110393 0)
(-1.3527 -0.11362 0)
(-1.23897 -0.116471 0)
(-1.12206 -0.118951 -5.44598e-20)
(-1.00236 -0.121043 6.01033e-20)
(-0.880277 -0.122758 1.46411e-19)
(-0.756223 -0.124099 -8.73412e-20)
(-0.630615 -0.125089 9.42949e-20)
(-0.503859 -0.125748 1.12908e-19)
(-0.376315 -0.126115 0)
(-0.248347 -0.126247 0)
(-0.120034 -0.12622 -1.48845e-19)
(0.00883406 -0.126104 0)
(0.13748 -0.126114 0)
(0.264299 -0.125645 3.52666e-19)
(0.388224 -0.123671 0)
(0.509094 -0.120384 1.87414e-19)
(0.62733 -0.116464 -1.99251e-19)
(0.742994 -0.112243 0)
(0.855883 -0.107876 2.06209e-19)
(0.965813 -0.103445 0)
(1.07264 -0.0990074 0)
(1.17625 -0.0946006 -2.26211e-19)
(1.27659 -0.0902623 4.57106e-19)
(1.37361 -0.0860165 -2.34615e-19)
(1.4673 -0.0818829 0)
(1.55767 -0.0778755 0)
(1.64471 -0.0739937 2.41539e-19)
(1.72847 -0.0702343 0)
(1.809 -0.0666095 2.47393e-19)
(1.88637 -0.0631274 0)
(1.96061 -0.0597765 0)
(2.03178 -0.0565363 0)
(2.09992 -0.0534007 2.58796e-19)
(2.16509 -0.0503655 0)
(2.22729 -0.0474137 -2.62147e-19)
(2.28654 -0.0445174 0)
(2.3428 -0.041631 0)
(2.39595 -0.0386768 5.31559e-19)
(2.44575 -0.0355329 -5.34639e-19)
(2.49179 -0.0319607 0)
(2.53312 -0.0275658 0)
(2.56896 -0.0213326 0)
(2.59405 -0.0107569 1.66453e-18)
(2.61885 0.01105 0)
(2.61503 0.0514999 -1.15274e-18)
(0.000155927 -0.0818929 -1.35679e-21)
(0.00266122 -0.0585177 5.54809e-19)
(-0.00310565 -0.029433 0)
(-0.0110522 -0.00454829 -2.3314e-19)
(-0.0217559 0.0179259 0)
(-0.035035 0.0385186 0)
(-0.0508286 0.0574528 2.2299e-22)
(-0.069263 0.0749658 7.47255e-20)
(-0.0905061 0.0913477 7.30893e-20)
(-0.114725 0.106719 7.35427e-20)
(-0.142454 0.120516 0)
(-0.173808 0.132142 0)
(-0.208712 0.142754 -7.20646e-20)
(-0.246697 0.153165 -1.39369e-19)
(-0.287328 0.163772 1.33906e-19)
(-0.330335 0.174739 0)
(-0.375507 0.1861 1.2267e-19)
(-0.422449 0.197676 -5.86132e-20)
(-0.470397 0.208982 0)
(-0.518436 0.219337 1.06402e-19)
(-0.566191 0.227745 5.05433e-20)
(-0.614175 0.233597 -9.62835e-20)
(-0.662998 0.237565 -4.61829e-20)
(-0.712344 0.240044 0)
(-0.761356 0.241073 8.55009e-20)
(-0.809762 0.240657 8.24146e-20)
(-0.857431 0.238882 0)
(-0.90425 0.235861 7.67875e-20)
(-0.950127 0.231733 0)
(-0.994995 0.226662 7.19221e-20)
(-1.03881 0.220821 3.49679e-20)
(-1.08155 0.214385 0)
(-1.1232 0.207515 0)
(-1.16376 0.200361 0)
(-1.20323 0.193056 0)
(-1.24163 0.185716 0)
(-1.27896 0.178435 0)
(-1.31525 0.17129 5.83671e-20)
(-1.35052 0.164337 -8.58381e-20)
(-1.38478 0.157617 0)
(-1.41807 0.151155 0)
(-1.4504 0.144967 0)
(-1.48181 0.139056 1.8272e-22)
(-1.51232 0.133423 5.23219e-20)
(-1.54195 0.128058 1.02766e-19)
(-1.57073 0.122951 -1.01145e-19)
(-1.59869 0.118085 -4.97132e-20)
(-1.62585 0.113448 4.91277e-20)
(-1.65222 0.109021 -1.53508e-22)
(-1.67783 0.104788 4.75532e-20)
(-1.7027 0.100731 0)
(-1.72685 0.0968364 4.62143e-20)
(-1.75028 0.0930857 -1.27232e-22)
(-1.77303 0.0894684 0)
(-1.79509 0.0859704 0)
(-1.81649 0.0825845 -4.36766e-20)
(-1.83722 0.0792999 0)
(-1.85731 0.0761132 0)
(-1.87677 0.0730172 4.17462e-20)
(-1.8956 0.070012 8.2422e-20)
(-1.91381 0.0670932 -4.06573e-20)
(-1.93141 0.0642642 0)
(-1.94843 0.0615239 3.93945e-20)
(-1.96486 0.0588783 0)
(-1.98074 0.056329 3.80504e-20)
(-1.99606 0.0538841 3.74601e-20)
(-2.01086 0.0515468 -7.35748e-20)
(-2.02515 0.0493264 -3.61224e-20)
(-2.03896 0.0472274 0)
(-2.05232 0.0452595 6.95763e-20)
(-2.06526 0.0434278 0)
(-2.07781 0.041742 1.00222e-19)
(-2.09 0.0402077 6.54279e-20)
(-2.10189 0.0388327 6.40129e-20)
(-2.1135 0.0376212 -6.25832e-20)
(-2.12489 0.0365794 9.16775e-20)
(-2.13611 0.0357107 0)
(-2.14719 0.0350182 0)
(-2.1582 0.0345012 -5.67443e-20)
(-2.16918 0.0341577 -8.28647e-20)
(-2.18017 0.0339838 0)
(-2.19122 0.0339725 2.61215e-20)
(-2.20239 0.0341137 0)
(-2.2137 0.0343927 -7.39622e-20)
(-2.2252 0.0347948 1.50295e-23)
(-2.23691 0.0352976 -1.39506e-24)
(-2.24887 0.035881 4.49048e-20)
(-2.26109 0.0365196 0)
(-2.27354 0.037193 -4.20359e-20)
(-2.28625 0.0378705 -6.91902e-23)
(-2.29921 0.0385411 0)
(-2.31239 0.0391885 0)
(-2.32578 0.0397209 0)
(-2.33934 0.0400916 3.55558e-20)
(-2.35303 0.0403166 0)
(-2.36675 0.0403667 0)
(-2.38042 0.0402069 0)
(-2.39394 0.039807 0)
(-2.40717 0.0391402 0)
(-2.42003 0.038118 2.88163e-20)
(-2.43239 0.0366951 0)
(-2.44413 0.0348797 2.73469e-20)
(-2.45505 0.0326523 2.65476e-20)
(-2.46506 0.0299711 -2.57917e-20)
(-2.47395 0.0268504 0)
(-2.48164 0.0233542 -2.44765e-20)
(-2.48776 0.0195613 0)
(-2.49222 0.0153714 -2.33842e-20)
(-2.49483 0.0107548 2.28986e-20)
(-2.4954 0.00576508 6.66121e-20)
(-2.49373 0.000336894 0)
(-2.48934 -0.00541724 6.39887e-20)
(-2.48206 -0.0115327 2.05454e-20)
(-2.47176 -0.0180848 0)
(-2.45808 -0.0249703 3.99801e-20)
(-2.44065 -0.0321686 3.91463e-20)
(-2.41954 -0.0397228 -5.74582e-20)
(-2.39434 -0.047543 0)
(-2.36482 -0.0555812 -1.81372e-20)
(-2.33083 -0.0638599 -1.74703e-20)
(-2.29227 -0.0723345 -5.00148e-20)
(-2.24902 -0.0809744 0)
(-2.20091 -0.0897148 0)
(-2.14767 -0.0984623 0)
(-2.08929 -0.107087 -1.25743e-20)
(-2.02565 -0.11566 0)
(-1.95669 -0.124099 0)
(-1.88244 -0.132328 6.89074e-21)
(-1.80295 -0.14029 4.58409e-21)
(-1.7183 -0.147941 0)
(-1.62861 -0.155218 0)
(-1.53405 -0.162075 -8.28437e-21)
(-1.43484 -0.168447 0)
(-1.33121 -0.174283 2.32309e-20)
(-1.22347 -0.17953 2.97146e-20)
(-1.11194 -0.184152 0)
(-0.996974 -0.188113 0)
(-0.878968 -0.191398 -5.89827e-20)
(-0.758326 -0.193996 -2.80213e-21)
(-0.63547 -0.195913 -2.9805e-21)
(-0.510828 -0.197165 0)
(-0.384823 -0.197778 -2.18291e-19)
(-0.257862 -0.197798 0)
(-0.130276 -0.197306 0)
(-0.00230913 -0.196398 0)
(0.125482 -0.195052 1.61135e-19)
(0.252361 -0.193115 0)
(0.377769 -0.190579 -3.5521e-19)
(0.501131 -0.187503 -1.91076e-19)
(0.621951 -0.183768 0)
(0.740083 -0.179267 -2.10126e-19)
(0.855556 -0.174141 0)
(0.9683 -0.16859 0)
(1.07817 -0.162764 -7.04311e-19)
(1.18502 -0.156764 4.84234e-19)
(1.28876 -0.15067 0)
(1.38929 -0.144545 5.15599e-19)
(1.48656 -0.138447 -2.67656e-19)
(1.58055 -0.132414 0)
(1.67126 -0.126477 0)
(1.7587 -0.120669 0)
(1.84289 -0.115013 -8.72887e-19)
(1.9239 -0.109515 0)
(2.0018 -0.10418 -3.02562e-19)
(2.07664 -0.0990206 0)
(2.14846 -0.0940252 0)
(2.21732 -0.0891745 0)
(2.2833 -0.0844618 0)
(2.34641 -0.0798791 0)
(2.40671 -0.0753996 0)
(2.46418 -0.0709839 -6.56809e-19)
(2.51881 -0.0665615 0)
(2.57049 -0.0620138 -3.35851e-19)
(2.61901 -0.0571543 1.01463e-18)
(2.66404 -0.0516521 0)
(2.70486 -0.0449373 0)
(2.74099 -0.0357375 -6.97509e-19)
(2.76952 -0.021856 -7.09447e-19)
(2.79558 0.00234051 7.16635e-19)
(2.80793 0.0469875 7.38153e-19)
(-0.00921529 -0.0748959 -1.81911e-18)
(-0.0155192 -0.0407167 -6.67756e-19)
(-0.0278303 -0.00703415 -2.53399e-19)
(-0.042317 0.0220877 -9.14895e-20)
(-0.058703 0.048627 0)
(-0.0768663 0.0733706 1.3137e-19)
(-0.0968692 0.0966807 -5.9877e-20)
(-0.118854 0.118778 0)
(-0.14296 0.139811 -5.41536e-20)
(-0.169294 0.159778 0)
(-0.198007 0.178459 1.02159e-19)
(-0.229258 0.195646 0)
(-0.263123 0.211624 4.86303e-20)
(-0.299442 0.226755 9.44305e-20)
(-0.337896 0.241279 -9.14611e-20)
(-0.3781 0.255272 0)
(-0.419655 0.268658 -8.5366e-20)
(-0.462122 0.281212 0)
(-0.505037 0.292582 0)
(-0.547989 0.302357 -7.64137e-20)
(-0.590759 0.310096 0)
(-0.633357 0.31554 9.57325e-24)
(-0.675868 0.31886 0)
(-0.718196 0.320256 0)
(-0.760142 0.319815 2.95283e-24)
(-0.801581 0.317653 -6.13296e-20)
(-0.842436 0.313944 -5.93073e-20)
(-0.88265 0.308886 -5.74407e-20)
(-0.922178 0.302677 0)
(-0.960988 0.295517 -1.08093e-19)
(-0.999056 0.287598 0)
(-1.03636 0.279103 -5.10734e-20)
(-1.0729 0.270203 0)
(-1.10864 0.261052 0)
(-1.1436 0.251786 4.73328e-20)
(-1.17777 0.242522 0)
(-1.21114 0.233355 -4.52427e-20)
(-1.24371 0.224361 -6.53889e-23)
(-1.27548 0.215598 8.68955e-20)
(-1.30646 0.207107 -8.51682e-20)
(-1.33664 0.198918 0)
(-1.36604 0.191045 0)
(-1.39466 0.183496 -4.03006e-20)
(-1.42252 0.176269 0)
(-1.44962 0.169358 -3.91308e-20)
(-1.47597 0.162751 3.85238e-20)
(-1.5016 0.156433 3.79411e-20)
(-1.52651 0.150387 0)
(-1.55072 0.144594 -3.68363e-20)
(-1.57423 0.139038 -3.63089e-20)
(-1.59707 0.133697 7.14999e-20)
(-1.61923 0.128556 -3.52925e-20)
(-1.64074 0.123595 -3.47995e-20)
(-1.6616 0.118801 0)
(-1.68183 0.11416 0)
(-1.70142 0.10966 3.33592e-20)
(-1.72039 0.105292 0)
(-1.73874 0.101049 0)
(-1.75649 0.0969252 -6.38905e-20)
(-1.77363 0.0929188 -6.29477e-20)
(-1.79018 0.0890281 0)
(-1.80615 0.0852544 0)
(-1.82154 0.0816002 0)
(-1.83638 0.0780706 0)
(-1.85066 0.0746712 -5.81475e-20)