/*--------------------------------*- C++ -*----------------------------------*\
| =========                 |                                                 |
| \\      /  F ield         | OpenFOAM: The Open Source CFD Toolbox           |
|  \\    /   O peration     | Version:  5.x                                   |
|   \\  /    A nd           | Web:      www.OpenFOAM.org                      |
|    \\/     M anipulation  |                                                 |
\*---------------------------------------------------------------------------*/
FoamFile
{
    version     2.0;
    format      ascii;
    class       volScalarField;
    location    "396";
    object      nut;
}
// * * * * * * * * * * * * * * * * * * * * * * * * * * * * * * * * * * * * * //

dimensions      [0 2 -1 0 0 0 0];

internalField   nonuniform List<scalar> 
20540
(
0
0
0
0
0
0
0
0
0
0
0
0
0
0
0
0
0
0
0
0
0
0
0
0
0
0
0
0
0
0
0
0
0
0
0
0
0
0
0
0
0
0
0
0
0
0
0
0
0
0
0
0
0
0
0
0
0
0
0
0
0
0
0
0
0
0
0
0
0
0
0
0
0
0
0
0
0
0
0
0
0
0
0
0
0
0
0
0
0
5.59256e-06
0
1.31086e-05
0
1.7545e-05
0
1.97515e-05
0
1.54096e-05
0
5.31188e-06
0
0
0
0
0
0
0
0
0
0
0
0
0
0
0
0
0
0
0
0
0
0
0
0
0
0
0
0
0
0
0
0
5.64275e-06
4.84106e-07
0
0
0
0
0
0
0
0
0
0
0
0
0
0
0
0
0
0
0
0
0
0
0
0
0
0
0
0
0
6.51636e-07
0
0
0
0
0
0
5.40789e-06
1.22876e-05
0
0
0
0
0
0
0
5.14825e-08
7.99604e-06
1.41628e-06
0
0
1.2353e-06
2.62373e-06
4.39078e-06
5.08604e-06
3.2403e-06
9.57971e-06
1.95117e-05
2.55176e-05
2.97386e-05
3.09703e-05
2.79279e-05
2.87278e-05
2.93288e-05
2.82706e-05
2.35179e-05
1.91733e-05
1.91781e-05
1.46452e-05
1.41352e-05
2.57391e-05
3.70713e-05
2.40016e-05
1.46415e-05
1.32538e-05
2.0578e-06
7.40215e-07
8.10471e-06
8.9434e-06
4.0552e-06
3.64759e-06
5.23446e-06
0
0
0
0
0
1.46191e-05
4.20623e-06
0
0
0
0
0
0
0
0
0
0
0
0
0
0
0
0
0
0
0
0
0
0
0
0
0
0
0
0
2.39899e-06
8.76394e-06
1.3785e-06
0
0
0
0
3.0531e-07
1.72822e-05
3.11022e-05
2.98521e-07
0
0
0
0
0
0
6.25299e-06
2.18219e-05
8.64967e-06
0
1.38719e-06
8.64531e-06
1.14864e-05
1.49844e-05
1.66748e-05
1.30229e-05
2.55003e-05
4.53577e-05
5.76872e-05
6.6465e-05
6.91899e-05
6.25882e-05
6.39332e-05
6.50413e-05
6.25373e-05
5.35681e-05
4.55274e-05
4.61978e-05
3.80448e-05
3.69058e-05
6.07445e-05
8.27581e-05
5.80472e-05
4.12412e-05
3.75794e-05
1.721e-05
1.58706e-05
2.79999e-05
3.65508e-05
2.64527e-05
2.80545e-05
2.11809e-05
0
1.79933e-05
0
0
0
2.18584e-05
1.13565e-05
5.75766e-06
7.17551e-07
3.57349e-06
6.8914e-06
0
3.39697e-07
0
0
0
0
0
0
0
0
0
0
0
0
0
0
0
0
0
0
0
0
0
4.82282e-06
1.88788e-05
2.51978e-05
1.81078e-05
3.50991e-06
0
0
0
1.48526e-05
3.15687e-05
4.57098e-05
1.51471e-05
0
0
0
6.7304e-06
8.11122e-06
9.79334e-06
2.14214e-05
3.62719e-05
2.16771e-05
5.78871e-06
1.39661e-05
2.24032e-05
2.54912e-05
2.90069e-05
3.13687e-05
2.78816e-05
3.98919e-05
5.99166e-05
7.33109e-05
8.30259e-05
8.6321e-05
7.95036e-05
7.9867e-05
8.09961e-05
7.7426e-05
6.87668e-05
6.2427e-05
6.40671e-05
5.78091e-05
5.69998e-05
8.37017e-05
0.000104618
8.14756e-05
6.65549e-05
6.16231e-05
4.58532e-05
4.73771e-05
5.62697e-05
7.65281e-05
6.52656e-05
6.63021e-05
4.37987e-05
2.76845e-05
0.000111718
2.04424e-05
0
0
3.04448e-05
2.01552e-05
1.49055e-05
1.15298e-05
1.42025e-05
1.92513e-05
8.49042e-06
1.23069e-05
8.12484e-06
5.63818e-06
0
0
0
0
0
0
0
0
0
0
0
0
0
0
0
0
0
0
1.07367e-05
2.47599e-05
3.88149e-05
4.51079e-05
3.83451e-05
2.37483e-05
0
5.21632e-06
1.62677e-05
3.25198e-05
4.89938e-05
6.41274e-05
3.31665e-05
1.29105e-05
7.00339e-06
1.39106e-05
2.96647e-05
3.12133e-05
3.2623e-05
4.39145e-05
5.72322e-05
3.8999e-05
2.16945e-05
2.9699e-05
3.97997e-05
4.33956e-05
4.73693e-05
5.01486e-05
4.6602e-05
5.78293e-05
7.84327e-05
9.3166e-05
0.000104037
0.000107762
0.000101758
0.000100538
0.000102171
9.77874e-05
8.74929e-05
8.3429e-05
8.57841e-05
8.17178e-05
8.23393e-05
0.000113873
0.000134673
0.000110006
9.3683e-05
9.02017e-05
8.07143e-05
8.7762e-05
9.61407e-05
0.000124345
0.000110341
9.63029e-05
7.12241e-05
8.45985e-05
0.000195584
4.23586e-05
0
4.30767e-06
4.07868e-05
3.11763e-05
2.58054e-05
2.46102e-05
2.72837e-05
3.31529e-05
2.56529e-05
2.71115e-05
2.25143e-05
2.04001e-05
6.72005e-06
0
0
0
0
0
0
0
0
0
0
3.34615e-06
8.27518e-06
0
0
1.82812e-06
8.33668e-06
2.18639e-05
3.51091e-05
4.92666e-05
6.3842e-05
7.03258e-05
6.34932e-05
4.84933e-05
2.4748e-05
3.0237e-05
4.18831e-05
5.41918e-05
7.07387e-05
8.74427e-05
5.55643e-05
3.49704e-05
2.91402e-05
4.11848e-05
5.90656e-05
6.0916e-05
6.29588e-05
7.48111e-05
8.54515e-05
6.37199e-05
4.24228e-05
5.13692e-05
6.46134e-05
6.92767e-05
7.50495e-05
7.74337e-05
7.21323e-05
8.17434e-05
0.000103933
0.000118506
0.000130667
0.00013513
0.000130315
0.000127363
0.000130201
0.000125984
0.000112639
0.000110236
0.000112715
0.000110653
0.000114286
0.000151319
0.000175227
0.000143561
0.000124791
0.000124785
0.000123284
0.000140994
0.000151351
0.000181486
0.00015524
0.000122422
0.00010507
0.000147176
0.000240665
9.323e-05
0
1.32717e-05
5.32851e-05
4.47926e-05
3.87669e-05
4.04346e-05
4.31087e-05
4.95671e-05
4.6857e-05
4.5722e-05
4.00946e-05
3.82585e-05
2.44531e-05
1.27015e-05
4.82155e-06
0
0
8.70139e-06
7.76606e-06
1.20625e-05
1.73208e-05
2.27945e-05
2.91849e-05
3.81569e-05
4.42812e-05
2.61772e-05
1.13158e-05
3.44996e-05
3.87903e-05
5.27932e-05
6.6881e-05
8.17023e-05
9.76378e-05
0.000104528
9.70773e-05
8.02517e-05
5.72419e-05
6.14904e-05
7.39727e-05
8.2751e-05
9.84257e-05
0.000118213
8.37782e-05
6.26314e-05
5.70771e-05
7.62851e-05
9.83254e-05
9.99243e-05
0.000102387
0.000116061
0.000123467
9.91088e-05
7.23072e-05
8.4847e-05
0.000103111
0.000110044
0.000118488
0.000119387
0.000111332
0.000117601
0.000142293
0.000154539
0.000164634
0.000170007
0.000166711
0.000161959
0.000166834
0.000163758
0.000147989
0.000147587
0.000149642
0.000147685
0.000154813
0.000197388
0.000226505
0.000183396
0.000163989
0.000167589
0.000177008
0.000209289
0.000223331
0.000240515
0.00019511
0.000153998
0.000144124
0.000207238
0.000254969
0.000187073
0
2.40974e-05
6.76173e-05
6.13265e-05
5.51599e-05
5.95774e-05
6.22537e-05
6.9425e-05
7.21545e-05
6.8678e-05
6.25143e-05
6.05426e-05
4.68773e-05
3.58443e-05
3.21088e-05
3.0518e-05
3.58129e-05
4.96848e-05
5.34353e-05
5.85845e-05
6.4791e-05
7.16392e-05
7.90925e-05
8.78746e-05
9.55395e-05
7.35966e-05
5.37284e-05
8.07825e-05
7.97425e-05
9.50464e-05
0.000110585
0.000126544
0.000144089
0.00015147
0.00014371
0.000123696
0.000100334
0.000103247
0.000117447
0.000125462
0.000136798
0.000162354
0.000122079
9.87144e-05
9.63648e-05
0.000125434
0.000153502
0.000154255
0.000157017
0.000173354
0.000175863
0.000149076
0.000117815
0.000136049
0.000158699
0.000169471
0.000179054
0.000178183
0.00016883
0.000170274
0.000197877
0.000207969
0.000211766
0.000215033
0.00021195
0.000205755
0.00021236
0.00021169
0.000195392
0.000199109
0.000203372
0.000200796
0.000210961
0.000257677
0.000285822
0.000236355
0.000215177
0.000223414
0.000246323
0.000293461
0.000302651
0.000295496
0.000245415
0.000197271
0.000190984
0.000268952
0.000294323
0.000249832
0
3.68187e-05
8.30392e-05
8.14432e-05
7.69781e-05
8.27944e-05
8.55232e-05
9.34481e-05
0.000101146
0.000100974
9.41117e-05
9.07796e-05
7.69172e-05
6.78979e-05
7.14636e-05
7.77572e-05
9.11749e-05
0.000106415
0.000114557
0.000120009
0.000127929
0.00013614
0.000144283
0.000153931
0.000163514
0.000139384
0.000115667
0.000144856
0.000136079
0.000152964
0.000170064
0.000187099
0.000206812
0.000214719
0.000207348
0.000184803
0.000161497
0.000163341
0.000180751
0.000190878
0.000194507
0.000223326
0.000177867
0.000150209
0.000157732
0.000195946
0.000228438
0.000228663
0.000231751
0.000249554
0.000244097
0.000216154
0.000184529
0.000206304
0.000232299
0.000247349
0.000256187
0.000254943
0.000244641
0.000240083
0.000270728
0.000280303
0.000280428
0.00027897
0.000271729
0.000263092
0.000269121
0.000272085
0.000258495
0.000265972
0.000275828
0.000277538
0.000293854
0.000337675
0.000355064
0.000309484
0.000284568
0.000298055
0.000334812
0.000383418
0.000376938
0.00035158
0.000315799
0.000270461
0.00026522
0.000349554
0.00040256
0.00030047
0
5.19761e-05
0.000100112
0.000106071
0.000104941
0.000112253
0.000116179
0.000127533
0.000141362
0.000154125
0.000144255
0.000137542
0.000121066
0.000118178
0.000132687
0.000147645
0.00016705
0.000181074
0.000192595
0.000198836
0.000208543
0.000218301
0.000227713
0.000239046
0.000250815
0.000225643
0.000199599
0.000229829
0.000213654
0.000230812
0.000250548
0.000269082
0.000291452
0.000298584
0.000292146
0.000268753
0.000246139
0.000248575
0.000268924
0.000280624
0.000277669
0.000301034
0.000252964
0.000223044
0.000245707
0.000287407
0.000322024
0.000322271
0.0003257
0.000342364
0.000328002
0.000301058
0.000274382
0.000295944
0.000326163
0.000343419
0.000350652
0.00035029
0.000338611
0.000326993
0.000360478
0.000371859
0.000371108
0.000370846
0.00035897
0.000345521
0.000343233
0.000350281
0.000343543
0.000353416
0.00036993
0.000381673
0.000408611
0.000438149
0.000445458
0.000406118
0.000383027
0.000402402
0.000442484
0.000471619
0.000448804
0.000419459
0.000405432
0.000389643
0.000389403
0.000457918
0.000530291
0.000355325
0
7.03112e-05
0.000123086
0.000139539
0.000143967
0.000156237
0.000165451
0.000184085
0.000206311
0.000231485
0.000221151
0.000211682
0.000194181
0.000199984
0.000220509
0.000239804
0.000262393
0.000279428
0.000292948
0.000301326
0.000312376
0.000324475
0.000336138
0.000347976
0.000360824
0.000335146
0.000309614
0.000340462
0.000321067
0.000335632
0.000358078
0.000379335
0.000403148
0.000407146
0.000400986
0.000377387
0.000354804
0.000359148
0.000380773
0.000391592
0.000387355
0.00040186
0.000348777
0.000320058
0.000356725
0.000398563
0.000434581
0.000435802
0.00043966
0.000449846
0.000429657
0.000407771
0.000387269
0.000407794
0.000443776
0.000461313
0.000465567
0.000467183
0.000453795
0.000433933
0.000471584
0.000487157
0.000485584
0.000490601
0.000482043
0.000467295
0.000451318
0.000452171
0.000453412
0.00046851
0.000492304
0.00051851
0.000549724
0.000560155
0.000559261
0.000525865
0.000510917
0.000535215
0.000565519
0.000574447
0.000538296
0.000514587
0.000517781
0.000529309
0.000540139
0.000580284
0.00062043
0.000423267
0
9.54457e-05
0.000158748
0.000189086
0.000206496
0.000229072
0.000247443
0.000271596
0.00029872
0.000329615
0.000324023
0.000318001
0.000305875
0.000313916
0.000333955
0.000355938
0.000385825
0.000410453
0.000424464
0.000434929
0.000446365
0.000459747
0.000473984
0.000486231
0.00049996
0.000474673
0.000451548
0.000483539
0.000463809
0.00047363
0.000497794
0.000521483
0.000545291
0.000545399
0.00053717
0.000511884
0.000488917
0.000495214
0.000517318
0.000525729
0.000523805
0.00053537
0.000475346
0.000448273
0.000491712
0.000533884
0.000570173
0.000574291
0.000578698
0.000575369
0.000557214
0.000543778
0.000526851
0.000547253
0.000589045
0.000608006
0.000607048
0.00061346
0.000598499
0.000570689
0.000610942
0.000631997
0.000633006
0.000640022
0.000639621
0.000630442
0.000612098
0.000594357
0.000595076
0.000611131
0.00063668
0.000676464
0.00069835
0.000700153
0.000689792
0.000661625
0.000649884
0.000671522
0.000697779
0.000697333
0.000659222
0.000645117
0.000655533
0.000669172
0.000686954
0.000726684
0.000706107
0.000547996
1.18602e-05
0.000135555
0.000211407
0.000262443
0.000301188
0.000340302
0.000365853
0.000392052
0.000420401
0.000455482
0.0004543
0.00045925
0.000454935
0.000459982
0.000480716
0.000506348
0.000544384
0.000572323
0.000586273
0.000595619
0.000605615
0.000619376
0.000636666
0.000650813
0.000666146
0.000645723
0.000626148
0.000658878
0.000640764
0.00064584
0.000670518
0.00069379
0.00071605
0.000712973
0.00070276
0.00067415
0.00065264
0.000661542
0.000683813
0.000689776
0.000690712
0.000703617
0.000640678
0.000612684
0.000657434
0.000700032
0.000733514
0.000741246
0.000746703
0.000727435
0.000718448
0.000710854
0.000697091
0.000716975
0.000760948
0.000782142
0.000776498
0.000788078
0.000775303
0.000744579
0.000776668
0.000802087
0.00080844
0.000816936
0.000821739
0.00082134
0.000813772
0.000793093
0.000783125
0.00078191
0.000793382
0.000825746
0.000843162
0.000856067
0.000840545
0.000816664
0.000804307
0.000822
0.000839666
0.000832458
0.000802989
0.000800751
0.000811958
0.000826129
0.000859379
0.00090236
0.000818025
0.000748027
2.6586e-05
0.000184552
0.000288338
0.000369669
0.000428783
0.000486319
0.00051782
0.000547933
0.000582874
0.000625841
0.000627141
0.000639468
0.000642561
0.000645507
0.000665989
0.000692538
0.000729474
0.000752293
0.000768063
0.000778748
0.000787151
0.000799966
0.000816584
0.000831235
0.000846882
0.000833886
0.000818835
0.000851892
0.00084113
0.000842258
0.000864736
0.000885187
0.0009043
0.000899178
0.000890443
0.000859591
0.000838544
0.000849228
0.000873054
0.000879012
0.000884911
0.000899215
0.000840878
0.00081223
0.000854223
0.000894252
0.00092224
0.000934375
0.000940776
0.000908343
0.000905699
0.000900746
0.000894252
0.000909797
0.000952959
0.000975862
0.000969859
0.00098274
0.000975684
0.000945991
0.0009591
0.000984801
0.000995752
0.00100706
0.00101604
0.0010271
0.00103431
0.00102642
0.00101029
0.000993057
0.00098469
0.000979607
0.000997725
0.00102645
0.00101395
0.00100571
0.00100455
0.0010185
0.00101155
0.000995861
0.000975412
0.000974703
0.000984485
0.00101182
0.00106554
0.00106809
0.000969317
0.00106159
3.52096e-05
0.000219944
0.000381117
0.00050646
0.000590434
0.00066391
0.000712275
0.000750353
0.000792525
0.000845677
0.000846446
0.000853048
0.000856176
0.000859798
0.00088217
0.000911393
0.000943566
0.000961705
0.00098039
0.000996967
0.00100789
0.00101726
0.00102782
0.00103899
0.00105195
0.00104166
0.0010239
0.00105506
0.00105375
0.00105379
0.00107431
0.00109479
0.00111299
0.00110696
0.00110024
0.00106973
0.00104426
0.00104782
0.00108
0.00108949
0.00110294
0.00111765
0.00106831
0.00104135
0.001075
0.00110864
0.00113502
0.00115571
0.00115317
0.00111252
0.00111258
0.00111436
0.00111678
0.00112621
0.00117114
0.00119591
0.00119032
0.00120196
0.0012
0.00117102
0.00116123
0.00118869
0.00120875
0.00122627
0.00124225
0.00125768
0.0012707
0.00126858
0.00125951
0.00124494
0.00122376
0.00119351
0.00119242
0.00121484
0.00120996
0.00123688
0.00125866
0.0012605
0.001239
0.00122342
0.00120327
0.00119049
0.00120018
0.0012429
0.00128184
0.00123605
0.00120147
0.00138419
3.49314e-05
0.000234575
0.000448553
0.000633141
0.000770175
0.000864553
0.000941893
0.00098733
0.00103265
0.00108777
0.00108754
0.00108783
0.00108359
0.00109131
0.00112779
0.00116644
0.00120118
0.00122038
0.00123763
0.00125595
0.0012699
0.00127938
0.00128556
0.00129164
0.00129954
0.00128748
0.00125818
0.00128349
0.00128995
0.00129399
0.00131413
0.00134104
0.00136157
0.00135425
0.00134693
0.00132108
0.00129423
0.00128268
0.00132532
0.00133928
0.00135664
0.00137132
0.00132654
0.00129961
0.00132476
0.00135898
0.00138652
0.00140859
0.00138442
0.00134181
0.00134792
0.00136042
0.00136869
0.00137385
0.00142121
0.0014455
0.00144549
0.00145853
0.00146285
0.00143846
0.00140779
0.00144182
0.00147481
0.00149685
0.00151554
0.00152703
0.00153687
0.00154202
0.00154741
0.00153488
0.0015063
0.0014861
0.00146435
0.00147498
0.0014639
0.00151625
0.00154295
0.00153252
0.00153186
0.00153337
0.00150185
0.00147204
0.0014755
0.00149592
0.00146929
0.00142935
0.00150446
0.0016513
3.1901e-05
0.000232231
0.000460774
0.000689692
0.000905845
0.00103426
0.00113851
0.00120087
0.00126269
0.00132018
0.00133069
0.00133904
0.00133639
0.00134579
0.00138832
0.0014359
0.00147484
0.00149875
0.00151523
0.0015316
0.00154745
0.00156145
0.00156787
0.00157395
0.00158327
0.00157244
0.00153731
0.00155496
0.00157033
0.00157734
0.0015946
0.00162954
0.00165487
0.00165053
0.00164483
0.0016252
0.00160084
0.00157858
0.00161801
0.00163542
0.00165018
0.00167023
0.00162795
0.00160282
0.0016257
0.00166385
0.00168654
0.00168608
0.00165231
0.00161306
0.00162488
0.00164407
0.0016556
0.00165971
0.00170526
0.00172612
0.00173974
0.00175541
0.00176498
0.00174959
0.00171184
0.00173783
0.00177316
0.00179177
0.00180538
0.00181957
0.00183227
0.00184806
0.0018601
0.00185106
0.00183216
0.00181412
0.00179375
0.00181793
0.00182451
0.00186932
0.00186946
0.00184397
0.00185559
0.00185676
0.00183129
0.00180513
0.00177588
0.00174183
0.00169591
0.00174143
0.00184507
0.00187288
2.86775e-05
0.000210867
0.000413754
0.000655142
0.000938821
0.00112398
0.00125963
0.00136444
0.0014545
0.0015225
0.00155749
0.00158552
0.0015988
0.00161524
0.00164951
0.00169413
0.00172632
0.00175415
0.00177838
0.0018
0.00182364
0.00184238
0.00185483
0.00186848
0.00188761
0.00188605
0.00185578
0.00186788
0.00188884
0.00189615
0.00190833
0.00194117
0.00197161
0.00197757
0.00198023
0.00197022
0.00195018
0.00192781
0.00195085
0.00197209
0.00197975
0.00200764
0.00197391
0.00195572
0.00197663
0.00200409
0.00201325
0.0019894
0.00196711
0.00193746
0.00194868
0.00197008
0.00198388
0.00198964
0.00202325
0.00204054
0.00205731
0.00206653
0.00207596
0.00206843
0.00203937
0.00203465
0.00206162
0.00208058
0.00209448
0.0021197
0.00214394
0.00216229
0.00216965
0.00217118
0.00216684
0.00215457
0.00214448
0.00216036
0.00218551
0.0022151
0.00221993
0.00220691
0.00218101
0.00213797
0.00214516
0.00216681
0.00216612
0.00214581
0.00213036
0.00214831
0.00216915
0.00212856
1.99963e-05
0.000167051
0.0003176
0.00056337
0.000874245
0.00113295
0.00132878
0.00148415
0.00160326
0.00168417
0.00174423
0.0017922
0.00182844
0.0018675
0.00190659
0.00194646
0.00197269
0.00200423
0.0020376
0.00207175
0.00210662
0.00213351
0.00215948
0.00218628
0.00221545
0.00222801
0.00220214
0.00220843
0.00222986
0.00223683
0.00224482
0.00226336
0.0022888
0.0023022
0.00231349
0.00231627
0.00230312
0.00228792
0.00229392
0.00231879
0.00232556
0.0023574
0.00234111
0.00232711
0.00233679
0.00234819
0.0023415
0.00232103
0.00231059
0.00229375
0.00230069
0.00232202
0.00233566
0.00234176
0.00234865
0.00236701
0.00238301
0.00238856
0.00239974
0.00239638
0.00237582
0.00234952
0.00236652
0.00239722
0.00242058
0.0024552
0.00248744
0.00250408
0.00251322
0.00251948
0.0025202
0.00252563
0.00252257
0.0025027
0.00247809
0.00248087
0.00251262
0.00253644
0.00251335
0.00250251
0.00257331
0.00260816
0.00261025
0.00257749
0.00253449
0.0024952
0.00250133
0.00247258
6.66044e-06
0.000107932
0.000202116
0.000427578
0.000740294
0.00105465
0.00132397
0.00152788
0.00168717
0.00179513
0.00187897
0.00195085
0.00201589
0.00208336
0.00214246
0.00219082
0.00222869
0.00226733
0.00230483
0.00234754
0.00238864
0.00242198
0.00245923
0.00249789
0.00253896
0.00257168
0.00256391
0.00256985
0.00259303
0.00260084
0.00260891
0.00261726
0.00262769
0.00263973
0.00265329
0.00266142
0.00265417
0.00264454
0.00264054
0.00266436
0.00268507
0.00272433
0.00273474
0.00272645
0.00272695
0.00272921
0.00271968
0.0027119
0.00270563
0.00269499
0.00269587
0.00271889
0.00273186
0.00272795
0.00271172
0.00273485
0.00275459
0.00276279
0.00277418
0.00277544
0.00276112
0.00273433
0.00273111
0.00277059
0.00280197
0.00283462
0.00286163
0.00288181
0.00289439
0.00289341
0.00288985
0.0028987
0.00289399
0.00285417
0.00279934
0.00278613
0.00278999
0.00280768
0.00284068
0.00290237
0.00295853
0.00295622
0.00293037
0.00289852
0.00288964
0.00291079
0.00294586
0.00293616
0
5.55436e-05
9.76098e-05
0.000249357
0.000527799
0.000856794
0.00116677
0.00142568
0.00164992
0.00181554
0.00193331
0.00204231
0.00215292
0.00226149
0.00235041
0.00242006
0.00247991
0.00252941
0.00257129
0.00261711
0.002658
0.00269519
0.00273973
0.00278664
0.00283726
0.00288345
0.00289533
0.00290735
0.0029312
0.00294538
0.00296019
0.00297369
0.00297655
0.00298215
0.00299269
0.00300345
0.00300568
0.00300423
0.00300468
0.0030248
0.00305656
0.00310526
0.00314234
0.00315198
0.00315593
0.00315857
0.00315972
0.00316019
0.00315832
0.00315114
0.00314542
0.00316974
0.00317137
0.00314505
0.00312597
0.00315183
0.00317291
0.00318343
0.00319323
0.00320459
0.00320499
0.00319198
0.00317204
0.00319019
0.00320744
0.0032288
0.00324192
0.00325602
0.00326758
0.0032804
0.00329222
0.00329435
0.00326615
0.00322344
0.00318546
0.00317113
0.00314775
0.00317031
0.00324261
0.00328788
0.00329052
0.00329289
0.00328958
0.00328216
0.00329659
0.00331863
0.00337238
0.00338265
0
1.17002e-05
1.57621e-05
9.14872e-05
0.000269165
0.000537482
0.000826669
0.00111534
0.00141338
0.00166651
0.00186208
0.00202672
0.00217909
0.0023246
0.00244286
0.00254487
0.00263585
0.00270343
0.00276028
0.00281779
0.0028723
0.00292531
0.00298455
0.00304084
0.00309493
0.00314297
0.0031618
0.0031871
0.00321981
0.00325191
0.00327077
0.00329113
0.00329603
0.00329868
0.00330562
0.00331818
0.00332909
0.00333853
0.00334836
0.00336292
0.00339202
0.00343859
0.00348372
0.00351346
0.00353168
0.00354181
0.00355246
0.0035614
0.00356787
0.0035723
0.00357237
0.00359177
0.00358088
0.00355054
0.00353879
0.00356327
0.0035834
0.00359837
0.00361336
0.00364018
0.00365889
0.00366197
0.00364274
0.00362254
0.00360838
0.00360488
0.0036003
0.00361117
0.00363874
0.00367471
0.00369959
0.00370161
0.00367404
0.00364043
0.00362251
0.00362546
0.00362838
0.00367369
0.0037335
0.00371502
0.00370259
0.00371594
0.00370378
0.00367794
0.00367111
0.0036715
0.00372194
0.00373256
0
0
0
0
8.21601e-05
0.000226201
0.000423682
0.000670891
0.000982134
0.0012937
0.00158942
0.00182557
0.0020167
0.0021895
0.00232822
0.00245405
0.00257602
0.00267482
0.00276193
0.00284094
0.0029267
0.00300695
0.00308679
0.00315521
0.00321582
0.00327272
0.00331913
0.00337729
0.00343859
0.00350044
0.00352898
0.00356036
0.0035737
0.00358472
0.0035971
0.00361227
0.00363038
0.00364958
0.00366926
0.00368911
0.00370993
0.00374268
0.00377646
0.00381418
0.003842
0.00385616
0.00387178
0.0038871
0.00389514
0.00390342
0.00390672
0.00391354
0.00391504
0.0039052
0.00390895
0.00393874
0.00396297
0.00398217
0.00400146
0.00402878
0.00404182
0.0040372
0.00402852
0.00401954
0.00400968
0.00399807
0.0039867
0.00399634
0.00402538
0.00405257
0.00407867
0.00410629
0.00410817
0.00409017
0.00407921
0.00409869
0.00411729
0.00414212
0.00414729
0.00412341
0.00413114
0.00414439
0.0041441
0.00413966
0.00413578
0.00414133
0.00414873
0.00410991
0
0
0
0
0
4.3483e-05
0.000131845
0.000272899
0.000496536
0.000765526
0.00106476
0.00133115
0.0015808
0.00179779
0.0019739
0.00213244
0.00229935
0.00245762
0.00259157
0.00270516
0.00281489
0.00291967
0.00302063
0.00310929
0.00318436
0.00325293
0.00332427
0.00340553
0.00348476
0.0035638
0.00362422
0.00368372
0.0037191
0.00375332
0.00378613
0.00381672
0.00384644
0.00387599
0.003908
0.00394257
0.00395879
0.00397929
0.00400263
0.00404082
0.00407066
0.00409559
0.00412619
0.00415862
0.00417474
0.00418484
0.00418665
0.00418611
0.00419744
0.0042035
0.00422672
0.00426198
0.00429075
0.00430765
0.00431763
0.00432593
0.00432891
0.00432481
0.00433465
0.00434967
0.00435029
0.00434253
0.00431948
0.00430717
0.00431529
0.00434178
0.00438743
0.00443288
0.00445106
0.00445117
0.00442552
0.00440981
0.00442094
0.00443226
0.0044108
0.00440229
0.00440156
0.0044189
0.0044414
0.00444297
0.00448291
0.00452423
0.00450344
0.00441144
0
0
0
0
0
0
0
4.4628e-05
0.000141835
0.000287406
0.00047459
0.00066887
0.000893385
0.00110273
0.00130909
0.00151612
0.00173863
0.00196789
0.00216346
0.00233341
0.00247435
0.00260876
0.00272689
0.00283988
0.00294188
0.0030307
0.00312929
0.00324773
0.00334923
0.00343572
0.00351786
0.00359515
0.00365541
0.00370949
0.00375488
0.00380028
0.00384236
0.00388016
0.00391191
0.00394036
0.00396545
0.00399691
0.00402046
0.00406073
0.00409598
0.00412904
0.00416639
0.00421262
0.00425156
0.00428167
0.00430218
0.00431378
0.0043226
0.00433863
0.00437223
0.00439321
0.00441165
0.00443029
0.00444409
0.00445676
0.00447321
0.00449349
0.00453777
0.00458854
0.00460007
0.00460341
0.00458527
0.00455718
0.00452977
0.00450878
0.00449388
0.00448731
0.00449559
0.00451851
0.00455361
0.00458906
0.00461235
0.00461504
0.00460617
0.0046016
0.00460127
0.00460376
0.00457014
0.00453212
0.00456502
0.00460988
0.00460468
0.00454377
0
0
0
0
0
0
0
0
0
4.50285e-05
0.000111207
0.00018295
0.000282806
0.000406568
0.000562235
0.000736063
0.00092478
0.00114115
0.00134433
0.00153807
0.00172201
0.00190072
0.00204085
0.00217431
0.00230177
0.00241549
0.00253604
0.00270936
0.00285433
0.00297216
0.00307747
0.003171
0.00326402
0.00334623
0.00340626
0.00346821
0.00352373
0.00356456
0.00359924
0.00363951
0.00369541
0.00375724
0.00379114
0.00382801
0.0038568
0.0038994
0.00394128
0.0039809
0.00402942
0.00408798
0.00414836
0.00418888
0.00420364
0.00421588
0.00423335
0.00423949
0.00424961
0.00426257
0.00427034
0.00428233
0.00430171
0.00432976
0.00437656
0.00441419
0.004435
0.00446081
0.00448939
0.00450467
0.00449669
0.00448101
0.00445883
0.00443446
0.00443728
0.00446812
0.00452339
0.00457878
0.00458572
0.00457981
0.00459389
0.00458798
0.00456629
0.00452472
0.00446602
0.00442942
0.00444675
0.0044739
0.00446523
0.00442263
0
0
0
0
0
0
0
0
0
0
0
8.6054e-06
2.97947e-05
7.27166e-05
0.000143002
0.000215193
0.000298638
0.00040216
0.000508047
0.000623684
0.000759426
0.000906066
0.00103742
0.00116505
0.00128347
0.00139064
0.00148802
0.00165794
0.00182006
0.00197141
0.00211362
0.00223188
0.00235208
0.00247541
0.00257455
0.00266809
0.00274441
0.0027912
0.00284107
0.00290986
0.00298979
0.00307095
0.00312998
0.00318528
0.00322056
0.00327745
0.00333398
0.00337745
0.00342697
0.00349176
0.00356507
0.0036359
0.00369165
0.003722
0.0037291
0.00373841
0.00374839
0.00375882
0.00377021
0.00379655
0.00382837
0.00385421
0.00387754
0.00389261
0.0038942
0.00389796
0.00394631
0.00397222
0.00395819
0.00394901
0.00396331
0.0039745
0.00398878
0.00399655
0.0040017
0.00400192
0.00396739
0.00395409
0.00397376
0.00399319
0.00398369
0.0039545
0.00394762
0.0039523
0.00396835
0.00399496
0.00400935
0.00400531
0
0
0
0
0
0
0
0
0
0
0
0
0
0
1.45324e-05
1.35112e-05
2.74169e-05
4.87062e-05
7.84619e-05
0.000119066
0.000169071
0.000224442
0.000280793
0.000338073
0.00039561
0.000456718
0.000512453
0.000595688
0.000683025
0.000776058
0.000876849
0.00096876
0.00106643
0.00117232
0.00127119
0.00137635
0.00146224
0.00152346
0.00159496
0.00167465
0.00176501
0.00185524
0.00192322
0.00198698
0.00204136
0.00209179
0.00214967
0.002213
0.00227631
0.00234321
0.00240279
0.00247019
0.00254085
0.00260115
0.00264395
0.00268701
0.00272014
0.0027439
0.0027764
0.00282314
0.00286059
0.00287166
0.00284453
0.00281337
0.00276786
0.00275982
0.00289835
0.00301642
0.00305193
0.00303513
0.00301108
0.00299345
0.00300268
0.00301441
0.00300382
0.00296154
0.0029103
0.00290576
0.00292556
0.00293894
0.00294779
0.00298081
0.0030097
0.00301089
0.00298037
0.0029602
0.002967
0.00296501
0
0
0
0
0
0
0
0
0
0
0
0
0
0
0
0
0
0
0
0
7.04834e-07
6.27788e-06
1.09356e-05
1.83238e-05
2.90905e-05
4.21258e-05
5.91008e-05
7.67652e-05
9.37412e-05
0.000109737
0.000135985
0.000166785
0.000207787
0.000257821
0.00030799
0.000358951
0.000386502
0.000410162
0.000447276
0.000489706
0.000542767
0.000595781
0.000628268
0.000637436
0.000643883
0.000657965
0.000696591
0.000752631
0.000803731
0.000850937
0.000882119
0.000908346
0.000938821
0.000970668
0.000993961
0.00102957
0.0010781
0.00110246
0.00112775
0.00115517
0.00117827
0.00119878
0.00119665
0.00119224
0.00120523
0.00117501
0.00117873
0.00118408
0.00118015
0.00117375
0.00119487
0.00122638
0.00125139
0.00126145
0.00125631
0.00125756
0.00126806
0.00127722
0.00125837
0.00122757
0.00122424
0.00124056
0.00124705
0.00123978
0.00121928
0.001206
0.00120999
0.00121487
0
0
0
0
0
0
0
0
0
0
0
0
0
0
0
0
0
0
0
0
0
0
0
0
0
0
0
0
0
0
0
0
0
1.92409e-05
4.35238e-05
6.14422e-05
6.0722e-05
5.83044e-05
5.91914e-05
6.84753e-05
8.04196e-05
9.07713e-05
9.33625e-05
8.3706e-05
7.89229e-05
7.781e-05
7.88791e-05
8.73829e-05
9.80203e-05
0.000105373
0.000106362
0.000105844
0.000106094
0.000104247
9.90313e-05
9.62177e-05
0.000103229
0.000106833
0.000120785
0.000141153
0.000164014
0.000189407
0.00019722
0.000182521
0.000181227
0.000165334
0.000149621
0.000134795
0.000121458
0.000111629
0.000115356
0.000127219
0.000140124
0.000156079
0.000172726
0.000193292
0.000217108
0.000232489
0.000217823
0.000190051
0.000172886
0.000158788
0.000145457
0.000133351
0.000121928
0.000107047
8.94205e-05
7.35099e-05
0
0
0
0
0
3.90597e-06
1.32391e-05
0
0
0
0
0
0
0
0
0
0
0
0
0
0
0
0
0
0
0
0
0
0
0
0
0
5.95162e-06
1.57596e-05
1.40612e-05
9.85394e-06
3.57722e-06
0
1.97728e-07
6.4904e-06
8.99669e-06
6.20593e-06
0
0
0
0
0
0
0
2.65486e-06
5.35217e-06
1.10615e-05
1.73499e-05
2.38498e-05
3.16963e-05
3.5612e-05
3.71143e-05
3.63342e-05
3.6807e-05
3.85816e-05
4.0481e-05
4.21361e-05
4.03634e-05
3.75314e-05
3.20311e-05
2.54265e-05
1.91616e-05
1.45002e-05
1.0743e-05
8.05562e-06
7.83154e-06
9.36966e-06
1.33242e-05
1.77246e-05
2.2153e-05
2.79323e-05
3.28211e-05
3.14968e-05
2.1719e-05
1.12625e-05
3.50591e-06
0
0
0
0
0
0
0
0
0
0
0
1.9136e-06
8.07269e-06
1.63507e-05
0
0
0
0
0
0
0
0
0
0
0
0
0
0
0
0
0
0
0
0
0
5.23683e-06
1.06681e-05
1.8318e-05
2.30768e-05
1.22482e-05
3.23325e-06
0
0
0
0
0
0
0
0
0
0
0
0
0
0
4.6325e-06
1.86627e-05
2.8484e-05
3.50301e-05
4.02878e-05
4.53443e-05
4.50148e-05
3.72201e-05
2.598e-05
1.417e-05
5.80361e-06
4.02238e-07
0
0
0
2.27371e-06
8.05536e-06
1.0811e-05
1.30058e-05
1.70446e-05
2.40788e-05
3.25167e-05
4.02429e-05
4.61652e-05
5.2886e-05
5.83829e-05
6.31589e-05
6.46447e-05
5.8953e-05
4.88526e-05
3.76121e-05
2.60441e-05
1.44203e-05
1.88601e-06
0
0
0
0
0
0
0
0
1.79317e-06
3.40725e-06
0
0
0
0
0
0
0
0
0
1.99005e-05
2.3758e-05
2.93778e-05
1.87916e-05
0
0
0
0
0
0
0
0
0
0
0
0
1.15392e-05
1.71853e-05
1.55773e-05
8.5755e-06
1.08661e-06
0
0
0
0
0
0
0
0
0
0
0
0
0
0
4.72257e-06
1.15613e-05
1.76112e-05
2.10163e-05
2.43866e-05
2.65936e-05
2.15628e-05
1.34441e-05
4.93249e-06
0
0
0
0
0
0
0
0
1.04435e-06
4.66072e-06
9.9549e-06
1.83615e-05
2.81348e-05
3.7702e-05
4.68116e-05
5.60593e-05
6.66032e-05
7.81324e-05
8.20089e-05
7.54434e-05
6.66115e-05
5.85866e-05
5.03886e-05
4.15979e-05
3.33954e-05
2.67381e-05
2.14457e-05
1.71529e-05
1.3504e-05
1.04647e-05
8.23024e-06
0
9.7987e-06
1.34153e-05
0
0
0
0
0
0
0
0
0
1.93807e-05
4.67365e-05
4.51061e-05
4.37612e-05
4.45093e-05
3.37045e-05
1.42269e-05
1.53602e-05
1.53107e-05
1.02258e-05
0
0
0
0
0
0
0
0
0
0
0
0
0
0
0
0
0
0
0
0
2.00722e-06
5.07074e-06
8.07128e-06
1.02744e-05
1.17029e-05
1.49258e-05
1.80574e-05
2.13242e-05
2.42436e-05
2.48321e-05
2.57959e-05
2.63727e-05
2.47995e-05
2.24749e-05
1.96182e-05
1.65436e-05
1.3939e-05
1.21739e-05
1.01159e-05
7.1408e-06
3.34833e-06
0
0
0
0
0
0
0
0
0
3.27995e-06