/*--------------------------------*- C++ -*----------------------------------*\
| =========                 |                                                 |
| \\      /  F ield         | OpenFOAM: The Open Source CFD Toolbox           |
|  \\    /   O peration     | Version:  5.x                                   |
|   \\  /    A nd           | Web:      www.OpenFOAM.org                      |
|    \\/     M anipulation  |                                                 |
\*---------------------------------------------------------------------------*/
FoamFile
{
    version     2.0;
    format      ascii;
    class       volScalarField;
    location    "990";
    object      nut;
}
// * * * * * * * * * * * * * * * * * * * * * * * * * * * * * * * * * * * * * //

dimensions      [0 2 -1 0 0 0 0];

internalField   nonuniform List<scalar> 
20540
(
2.10937e-10
3.19305e-11
2.10937e-10
6.41893e-11
2.10937e-10
1.51953e-10
2.10937e-10
3.20505e-10
2.10937e-10
5.98098e-10
2.10937e-10
1.00806e-09
2.10937e-10
1.5575e-09
2.10937e-10
2.2204e-09
2.10937e-10
2.91642e-09
2.10937e-10
3.49078e-09
2.10937e-10
3.71132e-09
2.10937e-10
3.32428e-09
2.10937e-10
2.25745e-09
2.10937e-10
9.73915e-10
2.10937e-10
2.46149e-10
2.10937e-10
6.78769e-11
2.10937e-10
4.1472e-11
2.10937e-10
3.77891e-11
2.10937e-10
3.72332e-11
2.10937e-10
3.71414e-11
2.10937e-10
3.71269e-11
2.10937e-10
3.71259e-11
2.10937e-10
3.71274e-11
2.10937e-10
3.71298e-11
2.10937e-10
3.71328e-11
2.10937e-10
3.71364e-11
2.10937e-10
3.71404e-11
2.10937e-10
3.71448e-11
2.10937e-10
3.71494e-11
2.10937e-10
3.71536e-11
2.10937e-10
3.71566e-11
2.10937e-10
3.7158e-11
2.10937e-10
3.7158e-11
2.10937e-10
3.71566e-11
2.10937e-10
3.71536e-11
2.10937e-10
3.71495e-11
2.10937e-10
3.71451e-11
2.10937e-10
3.71408e-11
2.10937e-10
3.71368e-11
2.10937e-10
3.71333e-11
2.10937e-10
3.71303e-11
2.10937e-10
3.71279e-11
2.10937e-10
3.71261e-11
2.10937e-10
3.71259e-11
2.10937e-10
3.71326e-11
2.10937e-10
3.71771e-11
2.10937e-10
3.74328e-11
2.10937e-10
3.89796e-11
2.10937e-10
4.92775e-11
2.10937e-10
1.19486e-10
2.10937e-10
4.97766e-10
2.10937e-10
1.51853e-09
2.10937e-10
2.77992e-09
2.10937e-10
3.58122e-09
2.10937e-10
3.72362e-09
2.10937e-10
3.3683e-09
2.10937e-10
2.75294e-09
2.10937e-10
2.07071e-09
2.10937e-10
1.44399e-09
2.10937e-10
9.33113e-10
2.10937e-10
5.54552e-10
2.10937e-10
2.98543e-10
2.10937e-10
1.42715e-10
2.10937e-10
6.11691e-11
2.10937e-10
3.09351e-11
1.75437e-06
1.71994e-06
1.60034e-06
1.51304e-06
1.44942e-06
1.40153e-06
1.36419e-06
1.33418e-06
1.30952e-06
1.28892e-06
1.27148e-06
1.25656e-06
1.24367e-06
1.23243e-06
1.22258e-06
1.21388e-06
1.20616e-06
1.19928e-06
1.19312e-06
1.18758e-06
1.18258e-06
1.17806e-06
1.17396e-06
1.17023e-06
1.16683e-06
1.16372e-06
1.16087e-06
1.15825e-06
1.15584e-06
1.15362e-06
1.15157e-06
1.14968e-06
1.14793e-06
1.14631e-06
1.14481e-06
1.14343e-06
1.14215e-06
1.14096e-06
1.13987e-06
1.13887e-06
1.13795e-06
1.13712e-06
1.13638e-06
1.13573e-06
1.13516e-06
1.13469e-06
1.13433e-06
1.13408e-06
1.13395e-06
1.13396e-06
1.13412e-06
1.13445e-06
1.13496e-06
1.13568e-06
1.13662e-06
1.13781e-06
1.13927e-06
1.14104e-06
1.14314e-06
1.1456e-06
1.14848e-06
1.15181e-06
1.15582e-06
1.15895e-06
1.16215e-06
1.16538e-06
1.1688e-06
1.17241e-06
1.17621e-06
1.18021e-06
1.1844e-06
1.18878e-06
1.19337e-06
1.19816e-06
1.20316e-06
1.20839e-06
1.21384e-06
1.21955e-06
1.22553e-06
1.23181e-06
1.23842e-06
1.24544e-06
1.25294e-06
1.26108e-06
1.27003e-06
1.28075e-06
1.29525e-06
1.34994e-06
3.45366e-05
3.84426e-05
3.80434e-05
3.73616e-05
3.67647e-05
3.62758e-05
3.58758e-05
3.55442e-05
3.52654e-05
3.50284e-05
3.48249e-05
3.46486e-05
3.44949e-05
3.43599e-05
3.42406e-05
3.41347e-05
3.40402e-05
3.39557e-05
3.38797e-05
3.38111e-05
3.3749e-05
3.36927e-05
3.36415e-05
3.35948e-05
3.35522e-05
3.35131e-05
3.34773e-05
3.34444e-05
3.3414e-05
3.3386e-05
3.33601e-05
3.33362e-05
3.33141e-05
3.32936e-05
3.32746e-05
3.3257e-05
3.32407e-05
3.32256e-05
3.32117e-05
3.31988e-05
3.31869e-05
3.31761e-05
3.31662e-05
3.31574e-05
3.31495e-05
3.31427e-05
3.31369e-05
3.31323e-05
3.31289e-05
3.31268e-05
3.31262e-05
3.31271e-05
3.31298e-05
3.31344e-05
3.3141e-05
3.31499e-05
3.31613e-05
3.31753e-05
3.31921e-05
3.32123e-05
3.32355e-05
3.32638e-05
3.32936e-05
3.33133e-05
3.33386e-05
3.33669e-05
3.33952e-05
3.34241e-05
3.34541e-05
3.34851e-05
3.35172e-05
3.35503e-05
3.35846e-05
3.36198e-05
3.3656e-05
3.36932e-05
3.37313e-05
3.37703e-05
3.38101e-05
3.38508e-05
3.38923e-05
3.39346e-05
3.39775e-05
3.4022e-05
3.40637e-05
3.41187e-05
3.41354e-05
3.42783e-05
6.18506e-05
7.57064e-05
7.7131e-05
7.67445e-05
7.61039e-05
7.54866e-05
7.49447e-05
7.44789e-05
7.40784e-05
7.37325e-05
7.3432e-05
7.31696e-05
7.29393e-05
7.2736e-05
7.25557e-05
7.23952e-05
7.22518e-05
7.21231e-05
7.20072e-05
7.19025e-05
7.18076e-05
7.17216e-05
7.16433e-05
7.15719e-05
7.15067e-05
7.1447e-05
7.13922e-05
7.13418e-05
7.12954e-05
7.12526e-05
7.1213e-05
7.11765e-05
7.11426e-05
7.11113e-05
7.10823e-05
7.10554e-05
7.10304e-05
7.10072e-05
7.09857e-05
7.09657e-05
7.09471e-05
7.09298e-05
7.09138e-05
7.08991e-05
7.08854e-05
7.08729e-05
7.08615e-05
7.08511e-05
7.08417e-05
7.08333e-05
7.08259e-05
7.08197e-05
7.08146e-05
7.08108e-05
7.08083e-05
7.08071e-05
7.08072e-05
7.08088e-05
7.08116e-05
7.08161e-05
7.08209e-05
7.08315e-05
7.083e-05
7.08166e-05
7.08189e-05
7.08319e-05
7.08418e-05
7.08491e-05
7.08551e-05
7.086e-05
7.08641e-05
7.08672e-05
7.08692e-05
7.087e-05
7.08693e-05
7.08669e-05
7.08624e-05
7.08556e-05
7.08458e-05
7.08326e-05
7.0815e-05
7.07921e-05
7.07617e-05
7.07238e-05
7.06632e-05
7.06142e-05
7.04484e-05
7.09332e-05
8.7902e-05
0.000115109
0.00011998
0.000120504
0.00012009
0.000119479
0.00011887
0.000118315
0.000117821
0.000117384
0.000116999
0.00011666
0.000116359
0.000116092
0.000115854
0.000115641
0.00011545
0.000115279
0.000115124
0.000114984
0.000114857
0.000114742
0.000114637
0.000114541
0.000114454
0.000114374
0.0001143
0.000114233
0.000114171
0.000114113
0.00011406
0.000114011
0.000113966
0.000113924
0.000113885
0.000113849
0.000113816
0.000113785
0.000113756
0.000113728
0.000113703
0.000113679
0.000113657
0.000113636
0.000113616
0.000113597
0.000113579
0.000113561
0.000113544
0.000113527
0.00011351
0.000113494
0.000113477
0.00011346
0.000113442
0.000113425
0.000113406
0.000113386
0.000113365
0.000113342
0.000113315
0.000113293
0.000113243
0.000113184
0.000113145
0.000113125
0.000113102
0.000113073
0.000113039
0.000113001
0.000112959
0.000112914
0.000112865
0.000112811
0.000112753
0.00011269
0.000112621
0.000112546
0.000112464
0.000112373
0.000112272
0.00011216
0.000112032
0.000111889
0.000111706
0.000111537
0.000111253
0.00011217
0.000112862
0.000157168
0.000167678
0.000170045
0.000170293
0.000169917
0.000169372
0.000168808
0.000168273
0.000167783
0.000167339
0.000166941
0.000166583
0.000166263
0.000165975
0.000165717
0.000165484
0.000165274
0.000165084
0.000164912
0.000164755
0.000164613
0.000164483
0.000164365
0.000164257
0.000164158
0.000164067
0.000163984
0.000163907
0.000163836
0.00016377
0.00016371
0.000163654
0.000163602
0.000163554
0.00016351
0.000163469
0.00016343
0.000163394
0.000163361
0.000163329
0.000163299
0.00016327
0.000163243
0.000163216
0.00016319
0.000163165
0.000163139
0.000163112
0.000163085
0.000163056
0.000163026
0.000162993
0.000162959
0.000162921
0.00016288
0.000162835
0.000162785
0.00016273
0.000162669
0.000162597
0.000162527
0.000162413
0.000162296
0.000162199
0.000162128
0.000162056
0.000161975
0.000161886
0.00016179
0.000161686
0.000161575
0.000161457
0.000161332
0.000161198
0.000161055
0.000160903
0.000160741
0.000160567
0.00016038
0.000160178
0.000159959
0.000159719
0.000159456
0.000159147
0.00015886
0.000158521
0.000159787
0.000136187
0.000201613
0.000220638
0.000226236
0.000227839
0.000228078
0.000227824
0.000227398
0.000226923
0.00022645
0.000226
0.000225582
0.000225199
0.00022485
0.000224532
0.000224244
0.000223983
0.000223746
0.000223531
0.000223335
0.000223156
0.000222993
0.000222845
0.00022271
0.000222586
0.000222472
0.000222368
0.000222272
0.000222184
0.000222102
0.000222027
0.000221958
0.000221894
0.000221835
0.00022178
0.00022173
0.000221683
0.000221639
0.000221597
0.000221559
0.000221522
0.000221487
0.000221453
0.00022142
0.000221387
0.000221355
0.000221321
0.000221287
0.00022125
0.000221211
0.000221168
0.000221121
0.000221069
0.000221012
0.000220949
0.000220878
0.0002208
0.000220711
0.000220611
0.000220499
0.000220369
0.000220237
0.000220043
0.000219861
0.000219689
0.000219547
0.000219409
0.000219261
0.000219102
0.000218931
0.00021875
0.000218558
0.000218355
0.00021814
0.000217914
0.000217676
0.000217425
0.000217159
0.000216879
0.000216582
0.000216266
0.00021593
0.000215569
0.000215185
0.000214754
0.000214371
0.000214024
0.000215478
0.000156936
0.000247622
0.000278803
0.000289611
0.000293627
0.000295089
0.000295503
0.000295464
0.000295224
0.000294895
0.000294534
0.000294171
0.000293821
0.00029349
0.000293182
0.000292897
0.000292635
0.000292395
0.000292175
0.000291973
0.000291788
0.000291619
0.000291464
0.000291323
0.000291194
0.000291075
0.000290967
0.000290866
0.000290774
0.000290689
0.00029061
0.000290538
0.000290472
0.00029041
0.000290354
0.000290301
0.000290252
0.000290207
0.000290164
0.000290124
0.000290085
0.000290048
0.000290011
0.000289975
0.000289938
0.0002899
0.000289861
0.000289819
0.000289772
0.00028972
0.000289661
0.000289596
0.000289523
0.00028944
0.000289346
0.00028924
0.00028912
0.000288984
0.00028883
0.000288657
0.000288456
0.000288246
0.000287959
0.000287705
0.000287446
0.000287215
0.000286994
0.000286763
0.000286519
0.00028626
0.000285987
0.0002857
0.000285398
0.000285082
0.000284751
0.000284404
0.000284042
0.000283663
0.000283267
0.000282853
0.000282419
0.000281964
0.000281486
0.00028099
0.000280457
0.000280012
0.000279689
0.000281189
0.000173834
0.000293785
0.000341555
0.000360302
0.000368292
0.000371914
0.000373594
0.000374347
0.000374627
0.000374655
0.000374547
0.000374366
0.000374151
0.000373923
0.000373694
0.000373471
0.000373258
0.000373058
0.000372871
0.000372696
0.000372534
0.000372385
0.000372248
0.000372123
0.000372007
0.000371901
0.000371804
0.000371714
0.000371631
0.000371555
0.000371485
0.000371421
0.000371362
0.000371307
0.000371258
0.000371212
0.000371169
0.00037113
0.000371092
0.000371057
0.000371022
0.000370988
0.000370954
0.000370919
0.000370882
0.000370843
0.0003708
0.000370753
0.000370698
0.000370635
0.000370562
0.000370478
0.000370381
0.000370271
0.000370143
0.000369998
0.000369832
0.000369643
0.000369427
0.000369183
0.000368901
0.000368601
0.00036821
0.000367882
0.000367529
0.000367194
0.000366875
0.000366548
0.000366207
0.000365849
0.000365475
0.000365083
0.000364674
0.000364248
0.000363805
0.000363345
0.000362867
0.000362373
0.000361861
0.000361332
0.000360785
0.000360222
0.000359642
0.000359057
0.000358456
0.000357996
0.000357724
0.000359213
0.000185307
0.000338012
0.000407554
0.000437861
0.000452055
0.000459232
0.000463095
0.000465272
0.000466532
0.00046726
0.000467668
0.00046788
0.00046797
0.000467984
0.00046795
0.000467888
0.00046781
0.000467724
0.000467634
0.000467543
0.000467455
0.000467371
0.000467292
0.000467219
0.000467151
0.000467088
0.000467029
0.000466975
0.000466926
0.00046688
0.000466838
0.000466801
0.000466767
0.000466736
0.000466708
0.000466683
0.000466661
0.000466639
0.000466619
0.000466599
0.000466579
0.000466558
0.000466535
0.00046651
0.000466481
0.000466448
0.000466408
0.000466362
0.000466305
0.000466235
0.000466151
0.000466052
0.000465935
0.000465797
0.000465637
0.000465451
0.000465237
0.000464991
0.00046471
0.000464391
0.000464021
0.000463625
0.000463127
0.000462725
0.000462279
0.000461836
0.000461409
0.000460978
0.000460533
0.000460071
0.000459591
0.000459092
0.000458575
0.000458039
0.000457487
0.000456917
0.000456331
0.00045573
0.000455114
0.000454485
0.000453844
0.000453196
0.000452545
0.000451908
0.000451288
0.000450869
0.000450682
0.000452204
0.000189558
0.000377418
0.000474514
0.000521003
0.000544481
0.000557234
0.000564646
0.000569212
0.000572156
0.000574119
0.000575462
0.0005764
0.000577066
0.000577547
0.000577898
0.000578157
0.000578352
0.0005785
0.000578613
0.000578699
0.000578767
0.000578822
0.000578868
0.000578907
0.000578941
0.000578971
0.000578998
0.000579022
0.000579044
0.000579065
0.000579084
0.000579104
0.000579124
0.000579143
0.000579163
0.000579182
0.000579201
0.000579219
0.000579236
0.00057925
0.000579262
0.00057927
0.000579274
0.000579273
0.000579265
0.00057925
0.000579226
0.000579191
0.000579142
0.000579076
0.00057899
0.000578883
0.000578752
0.000578594
0.000578407
0.000578186
0.000577928
0.00057763
0.000577286
0.000576893
0.000576439
0.000575948
0.000575346
0.000574879
0.000574352
0.000573806
0.000573272
0.000572737
0.000572191
0.000571629
0.000571048
0.00057045
0.000569835
0.000569202
0.000568554
0.000567891
0.000567216
0.00056653
0.000565836
0.000565137
0.000564437
0.000563745
0.000563068
0.000562432
0.000561853
0.000561539
0.000561488
0.000563166
0.000184718
0.000408243
0.000538948
0.000607281
0.000644153
0.000665319
0.000678264
0.000686646
0.000692338
0.000696351
0.000699269
0.000701448
0.000703113
0.000704411
0.000705442
0.000706277
0.000706963
0.000707535
0.000708017
0.000708429
0.000708785
0.000709096
0.000709373
0.000709621
0.000709845
0.000710048
0.000710233
0.000710402
0.000710557
0.000710701
0.000710836
0.000710962
0.000711081
0.000711194
0.0007113
0.000711402
0.000711497
0.000711587
0.000711671
0.000711749
0.00071182
0.000711884
0.000711939
0.000711985
0.000712021
0.000712045
0.000712057
0.000712053
0.000712029
0.000711984
0.000711913
0.000711814
0.000711685
0.000711521
0.00071132
0.000711077
0.000710789
0.00071045
0.000710056
0.000709604
0.000709079
0.000708507
0.000707821
0.000707303
0.000706717
0.000706091
0.000705468
0.000704843
0.00070421
0.000703563
0.000702902
0.000702225
0.000701534
0.000700831
0.000700116
0.000699392
0.000698662
0.00069793
0.0006972
0.000696478
0.00069577
0.000695087
0.000694446
0.000693877
0.000693413
0.00069327
0.000693424
0.000695404
0.00016915
0.000425841
0.000595916
0.000692692
0.000748235
0.000781676
0.000802952
0.000817215
0.000827217
0.000834493
0.000839948
0.000844146
0.000847452
0.000850104
0.000852271
0.000854069
0.000855584
0.000856874
0.000857985
0.000858951
0.000859799
0.000860551
0.000861224
0.000861831
0.000862381
0.000862881
0.000863338
0.000863757
0.000864142
0.000864499
0.00086483
0.000865139
0.000865429
0.000865701
0.000865958
0.000866199
0.000866427
0.00086664
0.00086684
0.000867027
0.0008672
0.00086736
0.000867505
0.000867635
0.000867749
0.000867846
0.000867924
0.000867982
0.000868014
0.000868018
0.00086799
0.000867927
0.000867825
0.000867682
0.000867492
0.000867253
0.00086696
0.000866608
0.000866191
0.000865708
0.000865141
0.000864522
0.000863784
0.000863243
0.000862633
0.000861964
0.000861288
0.000860607
0.000859918
0.00085922
0.000858512
0.000857794
0.000857068
0.000856335
0.000855599
0.000854863
0.000854131
0.000853408
0.0008527
0.000852016
0.000851365
0.000850764
0.000850231
0.000849807
0.000849536
0.000849631
0.000850068
0.000852472
0.000142047
0.000424853
0.000638798
0.000771248
0.000851946
0.000902734
0.000936178
0.000959231
0.000975785
0.000988087
0.000997493
0.00100487
0.00101077
0.00101558
0.00101956
0.00102291
0.00102577
0.00102822
0.00103035
0.00103222
0.00103388
0.00103535
0.00103667
0.00103787
0.00103895
0.00103994
0.00104084
0.00104167
0.00104243
0.00104314
0.00104379
0.0010444
0.00104497
0.00104551
0.00104601
0.00104648
0.00104692
0.00104734
0.00104773
0.00104809
0.00104844
0.00104875
0.00104905
0.00104932
0.00104956
0.00104979
0.00104998
0.00105015
0.00105028
0.00105038
0.00105044
0.00105045
0.00105042
0.00105034
0.0010502
0.00105001
0.00104976
0.00104943
0.00104904
0.00104857
0.00104801
0.0010474
0.00104667
0.00104614
0.00104556
0.0010449
0.00104423
0.00104355
0.00104285
0.00104216
0.00104146
0.00104075
0.00104005
0.00103935
0.00103865
0.00103797
0.0010373
0.00103666
0.00103604
0.00103548
0.00103496
0.00103452
0.00103418
0.00103398
0.00103398
0.00103438
0.00103517
0.00103807
0.000104576
0.000399731
0.000659202
0.000834554
0.000947957
0.00102249
0.00107318
0.001109
0.00113525
0.00115508
0.00117048
0.0011827
0.00119259
0.00120074
0.00120756
0.00121333
0.00121828
0.00122257
0.00122631
0.00122961
0.00123253
0.00123514
0.00123749
0.00123962
0.00124155
0.00124332
0.00124493
0.00124641
0.00124777
0.00124903
0.0012502
0.00125129
0.00125231
0.00125326
0.00125415
0.00125498
0.00125577
0.00125651
0.0012572
0.00125785
0.00125846
0.00125903
0.00125956
0.00126006
0.00126052
0.00126094
0.00126133
0.00126167
0.00126198
0.00126224
0.00126245
0.00126261
0.00126271
0.00126275
0.00126274
0.00126266
0.0012625
0.00126228
0.00126198
0.0012616
0.00126112
0.0012606
0.00125995
0.0012595
0.00125899
0.00125842
0.00125783
0.00125722
0.0012566
0.00125597
0.00125535
0.00125474
0.00125413
0.00125353
0.00125296
0.00125241
0.00125188
0.0012514
0.00125097
0.0012506
0.00125031
0.00125011
0.00125004
0.00125015
0.00125049
0.00125125
0.00125244
0.00125585
6.21982e-05
0.000345972
0.000647188
0.000871474
0.00102576
0.0011317
0.00120611
0.00125998
0.00130019
0.00133103
0.00135527
0.00137472
0.00139062
0.00140381
0.00141492
0.00142438
0.00143254
0.00143963
0.00144585
0.00145134
0.00145623
0.00146061
0.00146455
0.00146812
0.00147137
0.00147433
0.00147705
0.00147954
0.00148183
0.00148396
0.00148593
0.00148776
0.00148946
0.00149106
0.00149256
0.00149396
0.00149527
0.00149651
0.00149767
0.00149876
0.00149979
0.00150075
0.00150166
0.00150251
0.0015033
0.00150404
0.00150472
0.00150536
0.00150594
0.00150646
0.00150692
0.00150732
0.00150765
0.00150791
0.00150811
0.00150823
0.00150827
0.00150824
0.00150813
0.00150793
0.00150765
0.00150731
0.00150686
0.00150655
0.00150621
0.00150581
0.00150537
0.00150493
0.00150447
0.00150401
0.00150356
0.00150312
0.0015027
0.0015023
0.00150193
0.0015016
0.00150132
0.00150108
0.00150092
0.00150083
0.00150084
0.00150097
0.00150125
0.00150173
0.00150247
0.00150362
0.00150523
0.00150913
2.72654e-05
0.000262783
0.000592223
0.000868091
0.00107111
0.00121706
0.00132304
0.00140167
0.00146146
0.001508
0.00154501
0.001575
0.0015997
0.00162035
0.00163784
0.00165281
0.00166577
0.00167708
0.00168702
0.00169583
0.00170368
0.00171073
0.00171708
0.00172285
0.00172809
0.00173288
0.00173727
0.0017413
0.00174502
0.00174845
0.00175164
0.0017546
0.00175736
0.00175994
0.00176236
0.00176463
0.00176675
0.00176875
0.00177063
0.00177239
0.00177405
0.00177562
0.00177709
0.00177848
0.00177978
0.001781
0.00178215
0.00178323
0.00178423
0.00178515
0.001786
0.00178678
0.00178747
0.00178809
0.00178862
0.00178907
0.00178944
0.00178973
0.00178994
0.00179006
0.00179009
0.00179009
0.00178998
0.0017899
0.0017898
0.00178965
0.00178948
0.0017893
0.00178911
0.00178892
0.00178874
0.00178858
0.00178844
0.00178833
0.00178826
0.00178824
0.00178827
0.00178838
0.00178856
0.00178883
0.00178922
0.00178974
0.00179042
0.00179132
0.00179248
0.00179402
0.00179604
0.00180036
8.98979e-06
0.000158473
0.00048585
0.000808402
0.00106579
0.00126043
0.00140689
0.00151842
0.0016049
0.00167324
0.00172824
0.00177323
0.00181059
0.00184203
0.00186879
0.00189182
0.00191183
0.00192935
0.0019448
0.00195852
0.00197077
0.00198179
0.00199174
0.00200077
0.00200899
0.00201651
0.0020234
0.00202974
0.00203558
0.00204099
0.002046
0.00205066
0.00205501
0.00205907
0.00206286
0.00206642
0.00206976
0.0020729
0.00207585
0.00207863
0.00208125
0.00208371
0.00208604
0.00208823
0.0020903
0.00209225
0.0020941
0.00209584
0.00209748
0.00209901
0.00210045
0.00210179
0.00210303
0.00210418
0.00210523
0.00210619
0.00210705
0.00210783
0.00210852
0.00210913
0.00210965
0.00211014
0.00211052
0.00211078
0.00211103
0.00211124
0.00211144
0.00211162
0.0021118
0.00211198
0.00211217
0.00211238
0.00211261
0.00211288
0.0021132
0.00211357
0.002114
0.0021145
0.00211509
0.00211578
0.00211659
0.00211753
0.00211865
0.00211997
0.00212154
0.00212344
0.0021258
0.00213041
2.44723e-06
6.29739e-05
0.000328812
0.000676976
0.000988182
0.00123845
0.00143449
0.00158813
0.00170983
0.00180758
0.00188725
0.00195309
0.00200823
0.00205494
0.00209493
0.00212951
0.00215967
0.00218617
0.0022096
0.00223047
0.00224915
0.00226597
0.00228118
0.002295
0.0023076
0.00231913
0.00232971
0.00233944
0.00234843
0.00235674
0.00236445
0.00237162
0.00237831
0.00238455
0.00239039
0.00239587
0.00240101
0.00240584
0.00241038
0.00241465
0.00241868
0.00242248
0.00242607
0.00242946
0.00243266
0.00243569
0.00243857
0.00244129
0.00244387
0.0024463
0.0024486
0.00245078
0.00245282
0.00245475
0.00245656
0.00245825
0.00245983
0.00246132
0.0024627
0.002464
0.00246521
0.00246638
0.00246746
0.00246817
0.00246888
0.00246955
0.0024702
0.00247084
0.00247148
0.00247212
0.00247277
0.00247343
0.00247412
0.00247484
0.0024756
0.00247641
0.00247729
0.00247823
0.00247926
0.00248038
0.00248162
0.00248299
0.00248451
0.00248621
0.00248813
0.00249032
0.00249291
0.00249763
5.73216e-07
1.54883e-05
0.000150996
0.00046739
0.000816339
0.00112324
0.00137614
0.00158115
0.00174753
0.00188366
0.00199618
0.00209023
0.00216972
0.00223755
0.00229598
0.00234677
0.00239125
0.00243048
0.0024653
0.00249637
0.00252426
0.00254941
0.00257221
0.00259294
0.00261187
0.00262921
0.00264513
0.00265979
0.00267334
0.00268588
0.00269752
0.00270835
0.00271844
0.00272788
0.0027367
0.00274498
0.00275274
0.00276004
0.0027669
0.00277336
0.00277946
0.0027852
0.00279064
0.00279577
0.00280064
0.00280524
0.00280961
0.00281377
0.00281771
0.00282145
0.002825
0.00282838
0.00283158
0.00283462
0.0028375
0.00284023
0.00284283
0.00284529
0.00284763
0.00284987
0.002852
0.00285408
0.00285606
0.00285737
0.00285864
0.00285988
0.00286109
0.00286227
0.00286345
0.00286461
0.00286578
0.00286695
0.00286813
0.00286934
0.00287057
0.00287185
0.00287317
0.00287455
0.002876
0.00287752
0.00287914
0.00288087
0.00288271
0.0028847
0.00288685
0.0028892
0.00289188
0.00289643
1.1282e-07
2.79199e-06
3.74578e-05
0.00021319
0.00053943
0.000886668
0.00119689
0.00146004
0.0016802
0.0018643
0.00201901
0.00215003
0.00226191
0.00235819
0.00244171
0.00251472
0.00257899
0.00263591
0.0026866
0.00273199
0.00277282
0.00280974
0.00284326
0.0028738
0.00290173
0.00292734
0.00295088
0.00297259
0.00299266
0.00301126
0.00302853
0.00304462
0.00305962
0.00307364
0.00308676
0.00309906
0.00311061
0.00312146
0.00313167
0.00314129
0.00315036
0.00315892
0.00316702
0.00317467
0.00318192
0.0031888
0.00319533
0.00320153
0.00320744
0.00321305
0.00321838
0.00322346
0.0032283
0.0032329
0.00323729
0.00324146
0.00324545
0.00324925
0.00325288
0.00325636
0.00325971
0.00326295
0.00326606
0.0032681
0.00327007
0.00327198
0.00327383
0.00327563
0.0032774
0.00327914
0.00328085
0.00328254
0.00328422
0.00328591
0.0032876
0.0032893
0.00329102
0.00329277
0.00329457
0.0032964
0.0032983
0.00330025
0.00330228
0.00330439
0.00330659
0.00330891
0.00331146
0.00331548
1.52895e-08
4.13907e-07
5.61155e-06
4.78495e-05
0.000213218
0.00051945
0.000863909
0.00118225
0.00146133
0.00170171
0.00190794
0.00208547
0.00223898
0.00237238
0.00248904
0.00259173
0.00268266
0.00276359
0.00283594
0.00290094
0.00295961
0.0030128
0.00306121
0.00310542
0.00314591
0.0031831
0.00321735
0.00324896
0.00327821
0.00330535
0.00333058
0.00335408
0.00337602
0.00339654
0.00341575
0.00343377
0.00345069
0.0034666
0.00348158
0.00349569
0.003509
0.00352157
0.00353345
0.00354469
0.00355534
0.00356544
0.00357503
0.00358415
0.00359283
0.0036011
0.00360894
0.00361642
0.00362354
0.00363032
0.00363678
0.00364294
0.00364881
0.00365441
0.00365976
0.00366487
0.00366977
0.00367449
0.00367899
0.00368193
0.00368473
0.00368741
0.00368999
0.00369248
0.00369488
0.0036972
0.00369946
0.00370166
0.00370381
0.00370592
0.00370798
0.00371002
0.00371204
0.00371404
0.00371603
0.00371802
0.00372
0.00372199
0.00372399
0.003726
0.00372802
0.00373008
0.00373223
0.00373525
6.92005e-10
4.9337e-08
6.44206e-07
5.84646e-06
3.72728e-05
0.000152002
0.000393192
0.00071567
0.00104261
0.0013398
0.00160344
0.00183604
0.00204043
0.00222017
0.002379
0.0025201
0.00264594
0.00275855
0.00285969
0.00295092
0.00303359
0.00310879
0.00317746
0.00324032
0.00329803
0.00335113
0.00340009
0.00344536
0.0034873
0.00352625
0.00356252
0.00359634
0.00362794
0.00365752
0.00368524
0.00371126
0.0037357
0.0037587
0.00378035
0.00380076
0.00382002
0.00383821
0.00385541
0.00387169
0.00388711
0.00390173
0.00391562
0.00392881
0.00394136
0.00395332
0.0039647
0.00397551
0.00398579
0.00399558
0.00400488
0.00401373
0.00402215
0.00403016
0.00403777
0.00404502
0.00405191
0.00405848
0.00406471
0.00406873
0.00407251
0.00407609
0.00407949
0.00408271
0.00408578
0.0040887
0.00409149
0.00409414
0.00409668
0.00409911
0.00410144
0.00410367
0.00410582
0.00410788
0.00410987
0.00411177
0.00411361
0.00411538
0.00411707
0.0041187
0.00412027
0.00412178
0.00412322
0.00412473
2.32007e-11
4.01079e-09
6.01289e-08
5.28078e-07
3.50961e-06
1.82551e-05
7.20638e-05
0.000205472
0.000436172
0.000732868
0.00104263
0.00133192
0.00159187
0.00182483
0.00203449
0.00222331
0.00239315
0.00254602
0.00268404
0.00280924
0.00292332
0.00302762
0.00312322
0.00321101
0.00329177
0.00336621
0.00343497
0.00349864
0.00355774
0.00361274
0.00366401
0.00371192
0.00375674
0.00379875
0.00383817
0.00387519
0.00391
0.00394277
0.00397363
0.00400274
0.00403022
0.00405617
0.00408072
0.00410395
0.00412596
0.00414683
0.00416663
0.00418545
0.00420334
0.00422038
0.00423659
0.00425201
0.00426665
0.00428055
0.00429374
0.00430624
0.00431809
0.00432931
0.00433993
0.00434996
0.00435942
0.00436835
0.00437671
0.00438204
0.004387
0.00439163
0.00439596
0.0044
0.00440377
0.00440728
0.00441056
0.00441361
0.00441644
0.00441907
0.0044215
0.00442374
0.00442581
0.0044277
0.00442942
0.00443098
0.00443238
0.00443362
0.00443471
0.00443565
0.00443645
0.00443711
0.00443752
0.00443698
1.03641e-11
1.03926e-10
4.13231e-09
3.83236e-08
2.4786e-07
1.29412e-06
5.68329e-06
2.10728e-05
6.46156e-05
0.00015978
0.00032283
0.000550464
0.000818875
0.00109748
0.00136382
0.00160784
0.00182839
0.00202821
0.0022106
0.00237805
0.00253218
0.00267406
0.0028046
0.00292472
0.00303537
0.00313753
0.0032321
0.00331991
0.00340167
0.00347796
0.00354931
0.00361612
0.00367876
0.00373755
0.00379277
0.00384469
0.00389352
0.00393951
0.00398285
0.00402372
0.00406231
0.00409877
0.00413326
0.00416591
0.00419685
0.00422619
0.00425404
0.00428049
0.00430564
0.00432955
0.00435232
0.00437399
0.00439458
0.00441408
0.00443253
0.00444997
0.00446644
0.00448196
0.00449655
0.00451025
0.00452307
0.00453502
0.00454607
0.00455305
0.00455945
0.00456534
0.00457076
0.00457572
0.00458026
0.00458439
0.00458814
0.00459152
0.00459454
0.00459723
0.0045996
0.00460166
0.00460342
0.00460489
0.00460608
0.00460701
0.00460767
0.00460808
0.00460825
0.00460819
0.00460793
0.00460743
0.00460651
0.00460348
1.00202e-11
5.22605e-12
1.29135e-10
2.08081e-09
1.39152e-08
7.09952e-08
3.06898e-07
1.15758e-06
3.87095e-06
1.1544e-05
3.06454e-05
7.15449e-05
0.000145945
0.000262347
0.000422605
0.000620725
0.000844374
0.0010788
0.00131103
0.00153222
0.00173784
0.00192671
0.00209964
0.00225837
0.00240482
0.00254072
0.00266745
0.00278604
0.00289724
0.00300162
0.00309963
0.00319165
0.00327804
0.00335916
0.00343534
0.00350693
0.00357425
0.00363761
0.00369732
0.00375364
0.00380684
0.00385714
0.00390474
0.00394985
0.00399263
0.00403324
0.0040718
0.00410846
0.00414331
0.00417647
0.00420803
0.00423807
0.00426665
0.00429378
0.00431939
0.00434352
0.00436623
0.00438753
0.00440746
0.00442604
0.00444328
0.0044592
0.00447376
0.00448284
0.00449107
0.00449854
0.0045053
0.00451138
0.00451682
0.00452165
0.0045259
0.00452958
0.00453274
0.00453539
0.00453755
0.00453925
0.00454051
0.00454134
0.00454176
0.00454179
0.00454146
0.00454077
0.00453977
0.00453846
0.00453686
0.00453498
0.0045325
0.00452681
1.00134e-11
3.77814e-12
3.23126e-12
5.38463e-11
5.65363e-10
3.03439e-09
1.29459e-08
4.80097e-08
1.58966e-07
4.76584e-07
1.30902e-06
3.31983e-06
7.81726e-06
1.71298e-05
3.4851e-05
6.55952e-05
0.000114142
0.000184331
0.00027824
0.000395824
0.000534966
0.000691805
0.000861316
0.00103804
0.00121679
0.00139318
0.00156391
0.00172675
0.00188045
0.00202452
0.00215902
0.00228437
0.00240118
0.00251017
0.00261207
0.00270756
0.00279728
0.0028818
0.0029616
0.0030371
0.00310866
0.00317659
0.00324113
0.00330251
0.00336093
0.00341654
0.00346949
0.00351993
0.00356795
0.00361369
0.00365722
0.00369866
0.00373808
0.0037756
0.00381108
0.00384443
0.00387569
0.0039049
0.0039321
0.00395729
0.0039805
0.00400174
0.00402094
0.0040328
0.00404343
0.00405296
0.00406147
0.00406899
0.00407558
0.00408128
0.00408615
0.00409021
0.00409352
0.00409611
0.00409801
0.00409927
0.00409992
0.00409999
0.00409952
0.00409853
0.00409707
0.00409517
0.00409286
0.00409019
0.00408717
0.00408381
0.00407978
0.0040718
1.00149e-11
3.75006e-12
1.8372e-12
1.59597e-12
9.96672e-12
8.51618e-11
4.07417e-10
1.52433e-09
4.99692e-09
1.48154e-08
4.03458e-08
1.01928e-07
2.40845e-07
5.36013e-07
1.12961e-06
2.2639e-06
4.33147e-06
7.93472e-06
1.39366e-05
2.34729e-05
3.78999e-05
5.86722e-05
8.71752e-05
0.000124557
0.000171603
0.000228669
0.000295684
0.000372183
0.000457373
0.000550206
0.000649452
0.000753779
0.000861815
0.000972218
0.00108373
0.00119519
0.00130561
0.00141415
0.00152011
0.00162297
0.00172233
0.00181791
0.00190955
0.00199716
0.00208073
0.00216029
0.00223592
0.00230772
0.00237583
0.00244037
0.0025015
0.00255934
0.00261405
0.00266575
0.00271477
0.00276071
0.00280349
0.00284318
0.00287986
0.00291357
0.00294437
0.00297227
0.00299725
0.0030125
0.00302606
0.00303811
0.00304873
0.00305801
0.00306601
0.00307281
0.00307848
0.00308309
0.0030867
0.00308937
0.00309117
0.00309214
0.00309236
0.00309187
0.00309072
0.00308897
0.00308667
0.00308387
0.0030806
0.00307693
0.00307288
0.00306848
0.00306352
0.00305504
1.00166e-11
3.75013e-12
1.81523e-12
1.0708e-12
8.08139e-13
1.36557e-12
6.87039e-12
3.24075e-11
1.13796e-10
3.40903e-10
9.24454e-10
2.31965e-09
5.44632e-09
1.20583e-08
2.53238e-08
5.06911e-08
9.71409e-08
1.78923e-07
3.17813e-07
5.4588e-07
9.08764e-07
1.46953e-06
2.313e-06
3.55023e-06
5.32208e-06
7.80082e-06
1.11886e-05
1.57125e-05
2.16155e-05
2.9145e-05
3.85401e-05
5.0018e-05
6.37624e-05
7.99146e-05
9.8567e-05
0.000119761
0.000143487
0.000169687
0.000198263
0.000229077
0.000261963
0.000296731
0.000333173
0.00037107