/*--------------------------------*- C++ -*----------------------------------*\
| =========                 |                                                 |
| \\      /  F ield         | OpenFOAM: The Open Source CFD Toolbox           |
|  \\    /   O peration     | Version:  5.x                                   |
|   \\  /    A nd           | Web:      www.OpenFOAM.org                      |
|    \\/     M anipulation  |                                                 |
\*---------------------------------------------------------------------------*/
FoamFile
{
    version     2.0;
    format      ascii;
    class       volScalarField;
    location    "396";
    object      p;
}
// * * * * * * * * * * * * * * * * * * * * * * * * * * * * * * * * * * * * * //

dimensions      [0 2 -2 0 0 0 0];

internalField   nonuniform List<scalar> 
20540
(
13.9193
14.6585
13.9193
14.6574
13.9193
14.6559
13.9193
14.6538
13.9193
14.6511
13.9193
14.6477
13.9193
14.6434
13.9193
14.6381
13.9193
14.6316
13.9193
14.6237
13.9193
14.6142
13.9193
14.6027
13.9193
14.5889
13.9193
14.5722
13.9193
14.5522
13.9193
14.5282
13.9193
14.4996
13.9193
14.4655
13.9194
14.4251
13.9194
14.3775
13.9194
14.3216
13.9194
14.2566
13.9194
14.1817
13.9194
14.0967
13.9194
14.0016
13.9195
13.898
13.9196
13.7887
13.9199
13.6796
13.9205
13.5804
13.9218
13.507
13.9239
13.4869
13.9268
13.5214
13.9304
13.6099
13.9347
13.7527
13.9393
13.9519
13.9438
14.1889
13.9474
14.4241
13.9502
14.6473
13.9524
14.8524
13.9539
15.037
13.955
15.2004
13.9558
15.3434
13.9564
15.4672
13.9568
15.5737
13.957
15.6647
13.9572
15.742
13.9573
15.8075
13.9573
15.8628
13.9574
15.9092
13.9574
15.948
13.9574
15.9801
13.9575
16.0064
13.9575
16.0276
13.9575
16.0446
13.9575
16.058
13.9575
16.0685
13.9575
16.0766
13.9575
16.0827
13.9575
16.0871
13.9575
16.0902
13.9575
16.0922
13.9575
16.0935
13.9575
16.0942
13.9575
16.0944
13.9575
16.0942
9.85584
1.13585
-5.78306
-12.0806
-16.3118
-19.6315
-22.6893
-25.746
-28.2732
-30.4603
-32.9313
-35.5813
-38.2699
-40.7286
-42.7883
-44.4447
-45.7294
-46.8824
-48.3288
-50.0869
-52.0296
-54.1442
-56.2742
-58.2716
-60.2425
-62.4248
-64.4855
-65.8475
-67.046
-68.3669
-69.5783
-70.9342
-72.8054
-75.6289
-77.9444
-79.0578
-79.7168
-79.6966
-79.3284
-79.4049
-81.4355
-85.7549
-87.8009
-87.4512
-87.4442
-87.0204
-87.0013
-87.8714
-88.6796
-89.4631
-92.5298
-95.6335
-95.8806
-95.3063
-95.7678
-97.1529
-98.6606
-100.363
-101.439
-102.76
-105.555
-108.989
-112.759
-115.819
-117.963
-120.4
-122.774
-125.195
-127.721
-129.634
-131.223
-132.962
-134.27
-135.669
-138.702
-143.468
-147.79
-150.964
-152.756
-152.923
-154.358
-158.018
-162.639
-168.134
-174.81
-179.064
-178.498
-187.705
9.85528
1.13659
-5.78338
-12.0812
-16.312
-19.6315
-22.6894
-25.746
-28.2731
-30.4602
-32.9312
-35.5811
-38.2696
-40.7285
-42.7883
-44.4447
-45.7295
-46.8825
-48.3288
-50.087
-52.0297
-54.1442
-56.2744
-58.2718
-60.2424
-62.4245
-64.4855
-65.8478
-67.0464
-68.3675
-69.5791
-70.9347
-72.8042
-75.6287
-77.945
-79.0566
-79.7162
-79.6973
-79.3293
-79.4014
-81.4268
-85.7582
-87.8068
-87.4503
-87.4445
-87.0217
-87.0027
-87.8718
-88.6782
-89.4549
-92.5258
-95.6393
-95.8829
-95.3044
-95.7645
-97.1498
-98.6579
-100.364
-101.435
-102.745
-105.54
-108.98
-112.753
-115.819
-117.964
-120.396
-122.773
-125.201
-127.735
-129.643
-131.235
-132.977
-134.252
-135.629
-138.709
-143.519
-147.818
-151.017
-152.811
-152.908
-154.327
-158.045
-162.66
-168.122
-174.88
-179.098
-178.533
-187.621
9.85438
1.13773
-5.78307
-12.0822
-16.3126
-19.6317
-22.6893
-25.7462
-28.2734
-30.4602
-32.931
-35.5808
-38.2693
-40.7283
-42.7882
-44.4447
-45.7296
-46.8826
-48.3289
-50.0871
-52.0298
-54.1443
-56.2745
-58.272
-60.2423
-62.4242
-64.4856
-65.8481
-67.0469
-68.3681
-69.5794
-70.9329
-72.8003
-75.6282
-77.9481
-79.0574
-79.7162
-79.6979
-79.328
-79.3941
-81.4152
-85.7636
-87.816
-87.4521
-87.4449
-87.022
-87.003
-87.8718
-88.674
-89.4425
-92.5208
-95.6488
-95.8858
-95.2996
-95.7595
-97.1464
-98.6546
-100.364
-101.429
-102.727
-105.522
-108.968
-112.745
-115.82
-117.964
-120.392
-122.773
-125.208
-127.748
-129.651
-131.247
-132.992
-134.235
-135.587
-138.716
-143.566
-147.844
-151.071
-152.866
-152.907
-154.295
-158.058
-162.674
-168.133
-174.99
-179.088
-178.626
-187.622
9.85316
1.13954
-5.78131
-12.0831
-16.3134
-19.632
-22.6889
-25.747
-28.2741
-30.4602
-32.9312
-35.5809
-38.2693
-40.7281
-42.788
-44.4446
-45.7298
-46.8828
-48.329
-50.0872
-52.03
-54.1445
-56.2747
-58.2723
-60.2421
-62.4238
-64.4856
-65.8485
-67.0473
-68.3675
-69.5769
-70.928
-72.7946
-75.6272
-77.9525
-79.0633
-79.7185
-79.696
-79.3227
-79.3837
-81.4049
-85.7663
-87.8283
-87.458
-87.4457
-87.0197
-87.0007
-87.8715
-88.6689
-89.4301
-92.5172
-95.6591
-95.8882
-95.2933
-95.7552
-97.1435
-98.6511
-100.363
-101.423
-102.711
-105.504
-108.954
-112.736
-115.819
-117.965
-120.389
-122.774
-125.216
-127.758
-129.656
-131.254
-133.003
-134.218
-135.548
-138.724
-143.603
-147.864
-151.103
-152.903
-152.923
-154.272
-158.051
-162.695
-168.186
-175.048
-178.986
-178.791
-187.715
9.85182
1.14257
-5.77817
-12.0837
-16.3141
-19.6322
-22.6884
-25.7477
-28.275
-30.4603
-32.9317
-35.5819
-38.2703
-40.7283
-42.7879
-44.4446
-45.7299
-46.8831
-48.3291
-50.0874
-52.0302
-54.1447
-56.2746
-58.2717
-60.2423
-62.4242
-64.4851
-65.848
-67.0458
-68.3645
-69.5719
-70.9222
-72.7893
-75.6255
-77.9555
-79.072
-79.7218
-79.692
-79.3165
-79.3749
-81.3958
-85.7662
-87.8398
-87.4657
-87.4468
-87.0161
-86.998
-87.8718
-88.6646
-89.4202
-92.5152
-95.668
-95.8905
-95.2878
-95.7513
-97.1404
-98.6471
-100.361
-101.418
-102.696
-105.486
-108.939
-112.725
-115.816
-117.966
-120.386
-122.774
-125.226
-127.767
-129.657
-131.257
-133.009
-134.195
-135.509
-138.738
-143.643
-147.878
-151.112
-152.913
-152.94
-154.258
-158.048
-162.756
-168.262
-175.018
-178.802
-178.959
-187.862
9.85068
1.14731
-5.77445
-12.0841
-16.3145
-19.6322
-22.6879
-25.748
-28.2758
-30.4608
-32.9322
-35.5833
-38.2723
-40.7297
-42.7889
-44.4452
-45.7296
-46.883
-48.3293
-50.0871
-52.0299
-54.1445
-56.2739
-58.2703
-60.2435
-62.4267
-64.4838
-65.8449
-67.0426
-68.3603
-69.5674
-70.917
-72.7844
-75.6231
-77.9573
-79.079
-79.7248
-79.6889
-79.3122
-79.369
-81.3871
-85.7637
-87.8487
-87.4732
-87.4477
-87.0125
-86.9964
-87.8724
-88.661
-89.4127
-92.5138
-95.6752
-95.8929
-95.2824
-95.7472
-97.1363
-98.6424
-100.359
-101.414
-102.682
-105.467
-108.922
-112.711
-115.81
-117.964
-120.381
-122.77
-125.238
-127.776
-129.657
-131.261
-133.01
-134.165
-135.467
-138.762
-143.691
-147.884
-151.095
-152.888
-152.942
-154.262
-158.086
-162.868
-168.337
-174.906
-178.58
-179.056
-187.997
9.84973
1.15378
-5.77064
-12.0841
-16.3146
-19.6321
-22.6875
-25.7479
-28.2766
-30.4616
-32.9326
-35.5844
-38.2745
-40.7317
-42.7907
-44.4463
-45.7289
-46.8826
-48.3296
-50.0865
-52.0292
-54.1438
-56.2728
-58.2689
-60.2451
-62.4305
-64.4819
-65.8406
-67.0404
-68.3564
-69.5634
-70.9121
-72.7795
-75.6198
-77.958
-79.0844
-79.7277
-79.6865
-79.3094
-79.3652
-81.3786
-85.7583
-87.8553
-87.48
-87.4475
-87.008
-86.9958
-87.8734
-88.6576
-89.4077
-92.5126
-95.68
-95.8943
-95.2764
-95.7427
-97.1311
-98.6375
-100.358
-101.412
-102.67
-105.448
-108.907
-112.698
-115.8
-117.962
-120.374
-122.762
-125.248
-127.78
-129.651
-131.265
-133.008
-134.132
-135.426
-138.799
-143.746
-147.878
-151.046
-152.818
-152.927
-154.302
-158.177
-163.015
-168.409
-174.726
-178.351
-179.124
-188.027
9.84877
1.16162
-5.76678
-12.0834
-16.3144
-19.6319
-22.6872
-25.7473
-28.2769
-30.4625
-32.9332
-35.5854
-38.2763
-40.7331
-42.792
-44.4471
-45.7285
-46.8823
-48.33
-50.0862
-52.0288
-54.1432
-56.2718
-58.2676
-60.2466
-62.4343
-64.4801
-65.8372
-67.0389
-68.3527
-69.5596
-70.9074
-72.7743
-75.6152
-77.9573
-79.0888
-79.7303
-79.6844
-79.3073
-79.3636
-81.3708
-85.7497
-87.8596
-87.4858
-87.4457
-87.0028
-86.996
-87.8751
-88.6549
-89.4063
-92.5119
-95.6803
-95.8935
-95.2708
-95.7387
-97.1257
-98.6334
-100.356
-101.413
-102.662
-105.432
-108.894
-112.687
-115.791
-117.959
-120.365
-122.749
-125.25
-127.775
-129.636
-131.263
-133
-134.099
-135.404
-138.85
-143.796
-147.858
-150.961
-152.705
-152.911
-154.394
-158.301
-163.165
-168.477
-174.5
-178.086
-179.225
-187.963
9.84757
1.17037
-5.7627
-12.0814
-16.3138
-19.6315
-22.6867
-25.7463
-28.2764
-30.4632
-32.9339
-35.5866
-38.2779
-40.734
-42.7924
-44.4474
-45.7282
-46.8822
-48.3303
-50.086
-52.0283
-54.1427
-56.2709
-58.2665
-60.2479
-62.4377
-64.4784
-65.8349
-67.0378
-68.3491
-69.5559
-70.9029
-72.7693
-75.6094
-77.9545
-79.0916
-79.7321
-79.6824
-79.3059
-79.3652
-81.3653
-85.7382
-87.8598
-87.4892
-87.4414
-86.9977
-86.9976
-87.8775
-88.6534
-89.4105
-92.512
-95.6739
-95.8896
-95.2665
-95.7362
-97.1212
-98.6302
-100.353
-101.416
-102.66
-105.418
-108.882
-112.675
-115.781
-117.959
-120.358
-122.732
-125.24
-127.756
-129.608
-131.247
-132.976
-134.072
-135.417
-138.912
-143.83
-147.816
-150.842
-152.571
-152.923
-154.534
-158.427
-163.271
-168.515
-174.249
-177.773
-179.379
-187.849
9.84589
1.17978
-5.758
-12.0777
-16.3122
-19.6306
-22.6858
-25.7443
-28.2748
-30.4634
-32.9348
-35.5879
-38.2793
-40.7343
-42.7924
-44.4474
-45.7278
-46.8822
-48.3304
-50.0857
-52.0277
-54.142
-56.27
-58.2653
-60.2492
-62.4408
-64.4766
-65.833
-67.0372
-68.3457
-69.5525
-70.899
-72.7649
-75.6023
-77.9491
-79.0923
-79.7321
-79.6802
-79.306
-79.3712
-81.364
-85.724
-87.8541
-87.4889
-87.4341
-86.9936
-87.0009
-87.8806
-88.6543
-89.4215
-92.5124
-95.6589
-95.8813
-95.2641
-95.7357
-97.1186
-98.6282
-100.349
-101.423
-102.665
-105.407
-108.871
-112.661
-115.767
-117.958
-120.357
-122.72
-125.219
-127.718
-129.564
-131.209
-132.93
-134.06
-135.473
-138.983
-143.837
-147.744
-150.696
-152.442
-152.979
-154.707
-158.539
-163.311
-168.484
-173.975
-177.46
-179.57
-187.632
9.84355
1.1899
-5.75223
-12.0717
-16.3091
-19.6287
-22.6841
-25.7414
-28.2722
-30.4629
-32.9354
-35.5889
-38.2802
-40.7342
-42.7921
-44.4471
-45.7272
-46.8823
-48.3306
-50.0854
-52.0272
-54.1412
-56.269
-58.2644
-60.2506
-62.4433
-64.4744
-65.8314
-67.0372
-68.343
-69.5498
-70.8963
-72.762
-75.5944
-77.941
-79.0903
-79.7299
-79.6776
-79.3084
-79.382
-81.3676
-85.7066
-87.8414
-87.4842
-87.4237
-86.9906
-87.0061
-87.8845
-88.6586
-89.44
-92.5115
-95.6343
-95.8684
-95.2633
-95.7378
-97.1187
-98.6276
-100.344
-101.434
-102.677
-105.4
-108.861
-112.644
-115.746
-117.95
-120.356
-122.716
-125.196
-127.663
-129.505
-131.15
-132.867
-134.067
-135.569
-139.064
-143.816
-147.639
-150.528
-152.317
-153.063
-154.895
-158.636
-163.307
-168.383
-173.651
-177.168
-179.748
-187.215
9.84032
1.20059
-5.74526
-12.0627
-16.3038
-19.6254
-22.6815
-25.7377
-28.2688
-30.4617
-32.9353
-35.5891
-38.2806
-40.7338
-42.7916
-44.4463
-45.7263
-46.8823
-48.3309
-50.0852
-52.0267
-54.1404
-56.268
-58.2637
-60.252
-62.445
-64.4715
-65.8298
-67.0379
-68.3412
-69.5484
-70.8958
-72.7615
-75.5861
-77.9302
-79.0853
-79.7248
-79.6743
-79.3133
-79.3983
-81.3763
-85.6848
-87.8207
-87.4753
-87.4107
-86.9888
-87.0136
-87.8893
-88.6675
-89.4657
-92.5085
-95.5993
-95.8504
-95.2646
-95.7432
-97.1218
-98.6287
-100.339
-101.449
-102.699
-105.399
-108.852
-112.624
-115.717
-117.933
-120.346
-122.711
-125.173
-127.603
-129.443
-131.083
-132.798
-134.085
-135.688
-139.152
-143.77
-147.505
-150.336
-152.183
-153.151
-155.077
-158.718
-163.277
-168.219
-173.246
-176.87
-179.826
-186.533
9.83565
1.21131
-5.73739
-12.0506
-16.296
-19.6207
-22.6783
-25.733
-28.2643
-30.4597
-32.9341
-35.5882
-38.28
-40.7329
-42.7907
-44.4451
-45.7253
-46.8826
-48.3313
-50.085
-52.0264
-54.1397
-56.267
-58.2634
-60.2535
-62.4458
-64.4677
-65.8282
-67.0393
-68.3409
-69.5493
-70.8987
-72.7645
-75.5778
-77.9168
-79.0772
-79.7165
-79.6703
-79.3212
-79.4209
-81.3904
-85.6575
-87.7906
-87.4623
-87.3954
-86.9887
-87.0241
-87.8953
-88.6813
-89.4995
-92.5036
-95.5534
-95.827
-95.2691
-95.7529
-97.1282
-98.632
-100.332
-101.467
-102.733
-105.41
-108.847
-112.603
-115.684
-117.909
-120.319
-122.692
-125.143
-127.543
-129.389
-131.031
-132.739
-134.102
-135.812
-139.236
-143.692
-147.338
-150.128
-152.046
-153.231
-155.243
-158.783
-163.209
-167.972
-172.756
-176.522
-179.681
-185.556
9.82896
1.22175
-5.72949
-12.036
-16.2861
-19.6147
-22.6743
-25.7273
-28.2587
-30.4568
-32.9323
-35.5865
-38.2784
-40.7313
-42.7892
-44.4436
-45.7243
-46.8831
-48.3317
-50.0849
-52.0263
-54.1392
-56.2664
-58.2637
-60.2553
-62.4457
-64.4628
-65.8264
-67.0413
-68.3422
-69.5529
-70.9055
-72.7713
-75.5693
-77.9002
-79.0658
-79.705
-79.6654
-79.3319
-79.4504
-81.4107
-85.6236
-87.7495
-87.4451
-87.3782
-86.9907
-87.0378
-87.9032
-88.701
-89.5425
-92.4974
-95.4952
-95.7979
-95.2774
-95.7678
-97.1378
-98.6382
-100.325
-101.488
-102.781
-105.433
-108.845
-112.576
-115.644
-117.878
-120.279
-122.654
-125.096
-127.47
-129.333
-130.996
-132.699
-134.127
-135.942
-139.296
-143.558
-147.122
-149.899
-151.9
-153.298
-155.402
-158.835
-163.083
-167.628
-172.203
-176.051
-179.209
-184.283
9.82005
1.23223
-5.72304
-12.0204
-16.275
-19.6078
-22.6698
-25.7207
-28.2521
-30.4535
-32.9301
-35.5842
-38.2758
-40.7286
-42.7868
-44.4414
-45.7232
-46.8838
-48.3321
-50.0846
-52.0263
-54.139
-56.2664
-58.2648
-60.2578
-62.4453
-64.457
-65.8244
-67.0438
-68.345
-69.5592
-70.9162
-72.7821
-75.5605
-77.88
-79.0507
-79.6908
-79.6597
-79.3453
-79.4876
-81.4377
-85.5819
-87.6962
-87.4234
-87.3589
-86.9947
-87.0553
-87.915
-88.7279
-89.5955
-92.4892
-95.4227
-95.7625
-95.2899
-95.7882
-97.1508
-98.647
-100.319
-101.513
-102.845
-105.469
-108.845
-112.543
-115.596
-117.843
-120.232
-122.603
-125.025
-127.371
-129.262
-130.958
-132.667
-134.172
-136.085
-139.332
-143.367
-146.856
-149.63
-151.711
-153.33
-155.55
-158.87
-162.901
-167.221
-171.586
-175.354
-178.395
-182.764
9.80878
1.2433
-5.71892
-12.0048
-16.2638
-19.6012
-22.6656
-25.714
-28.2453
-30.4502
-32.9273
-35.5812
-38.2722
-40.7245
-42.7831
-44.4384
-45.7218
-46.8847
-48.3326
-50.0842
-52.0264
-54.1391
-56.2668
-58.2669
-60.2612
-62.4446
-64.4504
-65.8222
-67.0469
-68.3493
-69.5684
-70.9311
-72.7972
-75.5513
-77.8555
-79.0313
-79.6734
-79.6537
-79.3626
-79.5341
-81.4722
-85.5311
-87.6297
-87.3967
-87.3363
-87.0007
-87.0787
-87.9331
-88.7623
-89.6589
-92.4785
-95.3349
-95.7204
-95.3066
-95.8155
-97.1672
-98.6578
-100.312
-101.542
-102.923
-105.517
-108.847
-112.504
-115.541
-117.805
-120.176
-122.535
-124.928
-127.242
-129.166
-130.896
-132.624
-134.22
-136.22
-139.344
-143.146
-146.555
-149.307
-151.455
-153.302
-155.649
-158.862
-162.679
-166.765
-170.835
-174.367
-177.297
-181.059
9.79489
1.2554
-5.71682
-11.9896
-16.2533
-19.5955
-22.6624
-25.707
-28.2383
-30.4469
-32.9238
-35.5772
-38.2672
-40.7193
-42.7786
-44.4346
-45.72
-46.8857
-48.3332
-50.0837
-52.0263
-54.1393
-56.2675
-58.2697
-60.2653
-62.4432
-64.4424
-65.8198
-67.0506
-68.3555
-69.5813
-70.9512
-72.8174
-75.5415
-77.8261
-79.007
-79.652
-79.6481
-79.3856
-79.592
-81.5152
-85.4696
-87.5479
-87.3637
-87.3104
-87.0102
-87.1112
-87.9584
-88.8035
-89.7334
-92.4656
-95.231
-95.6707
-95.3286
-95.8517
-97.1882
-98.672
-100.308
-101.577
-103.013
-105.578
-108.855
-112.459
-115.481
-117.759
-120.104
-122.443
-124.803
-127.082
-129.032
-130.801
-132.559
-134.247
-136.317
-139.318
-142.898
-146.206
-148.933
-151.16
-153.2
-155.63
-158.734
-162.344
-166.161
-169.878
-173.152
-175.996
-179.205
9.7781
1.26904
-5.71577
-11.9737
-16.2435
-19.5907
-22.6599
-25.6996
-28.2312
-30.4437
-32.9195
-35.572
-38.2605
-40.7127
-42.7734
-44.4304
-45.7181
-46.8868
-48.3336
-50.0826
-52.0259
-54.1392
-56.2681
-58.273
-60.2699
-62.4409
-64.4327
-65.8174
-67.0556
-68.3642
-69.5991
-70.9781
-72.8436
-75.5309
-77.7915
-78.9778
-79.6263
-79.6433
-79.4164
-79.6631
-81.5673
-85.3953
-87.4484
-87.324
-87.2823
-87.0254
-87.1536
-87.99
-88.851
-89.82
-92.4512
-95.1108
-95.613
-95.3574
-95.899
-97.2153
-98.6915
-100.308
-101.62
-103.114
-105.651
-108.872
-112.405
-115.405
-117.695
-120.008
-122.322
-124.647
-126.888
-128.856
-130.663
-132.458
-134.247
-136.382
-139.257
-142.598
-145.762
-148.475
-150.795
-152.968
-155.421
-158.404
-161.796
-165.327
-168.726
-171.769
-174.451
-177.16
9.75807
1.28484
-5.715
-11.9563
-16.234
-19.5867
-22.6582
-25.692
-28.2241
-30.4407
-32.9146
-35.5654
-38.2518
-40.7043
-42.7671
-44.4256
-45.7158
-46.8879
-48.3337
-50.081
-52.0252
-54.1389
-56.2686
-58.277
-60.2752
-62.4372
-64.4208
-65.815
-67.0621
-68.3757
-69.6226
-71.0132
-72.8771
-75.5199
-77.7512
-78.9433
-79.5959
-79.6399
-79.4561
-79.7485
-81.6286
-85.3061
-87.3286
-87.2768
-87.2519
-87.0462
-87.2046
-88.0276
-88.9066
-89.9198
-92.4357
-94.9736
-95.5472
-95.3944
-95.9579
-97.2489
-98.7162
-100.312
-101.671
-103.227
-105.733
-108.891
-112.34
-115.308
-117.606
-119.883
-122.167
-124.452
-126.653
-128.635
-130.48
-132.315
-134.204
-136.403
-139.15
-142.239
-145.225
-147.893
-150.264
-152.518
-154.988
-157.857
-161.014
-164.238
-167.314
-170.084
-172.522
-174.832
9.73439
1.30335
-5.71438
-11.9367
-16.2247
-19.5843
-22.6586
-25.6849
-28.2168
-30.4381
-32.9092
-35.5574
-38.2406
-40.6937
-42.7594
-44.4197
-45.7129
-46.8893
-48.3337
-50.0789
-52.0243
-54.1385
-56.2693
-58.2818
-60.2812
-62.432
-64.4061
-65.8126
-67.0706
-68.3904
-69.6522
-71.0574
-72.9191
-75.5088
-77.705
-78.9031
-79.5607
-79.6377
-79.5057
-79.8495
-81.6986
-85.2001
-87.1857
-87.2198
-87.2178
-87.0709
-87.2636
-88.0732
-88.9726
-90.0331
-92.419
-94.8206
-95.4743
-95.439
-96.0271
-97.289
-98.7456
-100.321
-101.729
-103.348
-105.819
-108.906
-112.261
-115.19
-117.488
-119.728
-121.97
-124.206
-126.365
-128.357
-130.237
-132.119
-134.091
-136.322
-138.939
-141.796
-144.597
-147.175
-149.539
-151.847
-154.32
-157.043
-159.922
-162.798
-165.519
-167.983
-170.163
-172.171
9.70665
1.32499
-5.71388
-11.9148
-16.2153
-19.5843
-22.662
-25.6783
-28.2092
-30.4353
-32.9027
-35.5476
-38.2271
-40.6811
-42.7506
-44.4128
-45.7097
-46.8911
-48.3338
-50.0763
-52.023
-54.1379
-56.2703
-58.2879
-60.2886
-62.4256
-64.3885
-65.8098
-67.081
-68.4086
-69.6887
-71.1111
-72.97
-75.4977
-77.6525
-78.8568
-79.5204
-79.6366
-79.5661
-79.9674
-81.7779
-85.0777
-87.0185
-87.1501
-87.1784
-87.0985
-87.3313
-88.1288
-89.0504
-90.1581
-92.4012
-94.6546
-95.3945
-95.488
-96.1046
-97.3365
-98.7797
-100.335
-101.792
-103.472
-105.901
-108.908
-112.164
-115.051
-117.34
-119.534
-121.72
-123.895
-126.003
-127.993
-129.908
-131.837
-133.86
-136.08
-138.56
-141.205
-143.821
-146.283
-148.618
-150.937
-153.343
-155.864
-158.443
-160.974
-163.354
-165.506
-167.414
-169.155
9.67449
1.3501
-5.71339
-11.8899
-16.2053
-19.5864
-22.6684
-25.6726
-28.2013
-30.4321
-32.8946
-35.536
-38.2118
-40.6673
-42.7413
-44.4056
-45.7063
-46.8933
-48.3337
-50.0727
-52.0207
-54.1368
-56.2717
-58.2959
-60.298
-62.4182
-64.3674
-65.8062
-67.0931
-68.4309
-69.7331
-71.1753
-73.03
-75.4863
-77.5929
-78.8035
-79.4751
-79.6372
-79.638
-80.103
-81.8666
-84.9409
-86.8272
-87.0655
-87.1336
-87.1286
-87.4085
-88.1967
-89.1408
-90.2918
-92.3828
-94.4787
-95.3044
-95.5351
-96.187
-97.3903
-98.8171
-100.354
-101.858
-103.592
-105.974
-108.886
-112.035
-114.872
-117.139
-119.28
-121.393
-123.493
-125.545
-127.522
-129.457
-131.412
-133.448
-135.622
-137.958
-140.399
-142.827
-145.166
-147.435
-149.683
-151.945
-154.236
-156.52
-158.727
-160.782
-162.63
-164.272
-165.767
9.63767
1.37902
-5.71271
-11.862
-16.1939
-19.5898
-22.6775
-25.6683
-28.1944
-30.4298
-32.8858
-35.5226
-38.1943
-40.6522
-42.7319
-44.3985
-45.7027
-46.8952
-48.3324
-50.0674
-52.0171
-54.1351
-56.2737
-58.3057
-60.3093
-62.4094
-64.3425
-65.8016
-67.1074
-68.4579
-69.786
-71.2506
-73.0989
-75.4741
-77.5255
-78.7426
-79.4253
-79.6403
-79.7216
-80.2549
-81.9627
-84.7919
-86.613
-86.9645
-87.0835
-87.1606
-87.4945
-88.2776
-89.2444
-90.4313
-92.3654
-94.2974
-95.2015
-95.5746
-96.2698
-97.4471
-98.855
-100.376
-101.922
-103.703
-106.03
-108.831
-111.855
-114.622
-116.85
-118.93
-120.962
-122.98
-124.967
-126.91
-128.83
-130.775
-132.786
-134.888
-137.079
-139.324
-141.561
-143.747
-145.88
-147.97
-150.03
-152.063
-154.046
-155.936
-157.686
-159.264
-160.677
-161.966
9.59619
1.41205
-5.71154
-11.8308
-16.1809
-19.5944
-22.6886
-25.6647
-28.1884
-30.43
-32.8787
-35.5091
-38.1753
-40.6358
-42.722
-44.3908
-45.698
-46.8956
-48.3289
-50.0592
-52.0116
-54.1331
-56.2767
-58.3178
-60.3226
-62.3995
-64.3141
-65.7963
-67.1254
-68.4917
-69.849
-71.338
-73.1768
-75.4619
-77.4506
-78.6739
-79.372
-79.6473
-79.8176
-80.4205
-82.0615
-84.6318
-86.3767
-86.8444
-87.0279
-87.1931
-87.5874
-88.371
-89.3585
-90.57
-92.348
-94.1164
-95.0881
-95.603
-96.3492
-97.5045
-98.89
-100.395
-101.975
-103.785
-106.046
-108.716
-111.597
-114.271
-116.439
-118.446
-120.395
-122.327
-124.237
-126.119
-127.989
-129.88
-131.815
-133.804
-135.835
-137.879
-139.907
-141.897
-143.832
-145.708
-147.525
-149.282
-150.964
-152.546
-154.003
-155.321
-156.511
-157.598
9.55052
1.44933
-5.70981
-11.7966
-16.1664
-19.6007
-22.7026
-25.6617
-28.1817
-30.4301
-32.8713
-35.4952
-38.1563
-40.6205
-42.7143
-44.3853
-45.6944
-46.8959
-48.323
-50.0472
-52.0026
-54.1296
-56.2807
-58.332
-60.3375
-62.3885
-64.2824
-65.7899
-67.1475
-68.5339
-69.9246
-71.4397
-73.2646
-75.4518
-77.3707
-78.5985
-79.3174
-79.66
-79.9257
-80.5949
-82.1561
-84.4616
-86.1199
-86.7024
-86.9661
-87.2247
-87.6859
-88.477
-89.48
-90.6995
-92.3269
-93.9403
-94.9664
-95.6169
-96.4203
-97.5578
-98.9157
-100.402
-101.998
-103.814
-105.994
-108.516
-111.234
-113.782
-115.859
-117.776
-119.626
-121.459
-123.276
-125.074
-126.861
-128.652
-130.456
-132.277
-134.107
-135.932
-137.732
-139.489
-141.184
-142.81
-144.363
-145.838
-147.225
-148.507
-149.676
-150.732
-151.686
-152.558
9.50191
1.49075
-5.70759
-11.7601
-16.1503
-19.6092
-22.7201
-25.6599
-28.174
-30.4287
-32.8613
-35.4776
-38.1341
-40.6042
-42.7088
-44.384
-45.6956
-46.9002
-48.3192
-50.035
-51.9931
-54.1273
-56.2876
-58.3499
-60.3547
-62.3771
-64.2483
-65.7821
-67.1725
-68.5842
-70.0124
-71.5548
-73.3607
-75.4444
-77.2868
-78.5169
-79.2632
-79.6788
-80.0424
-80.7703
-82.2398
-84.2844
-85.8464
-86.5368
-86.8964
-87.2531
-87.787
-88.5945
-89.6073
-90.8164
-92.3032
-93.774
-94.8368
-95.6096
-96.4727
-97.5951
-98.92
-100.38
-101.97
-103.761
-105.842
-108.199
-110.73
-113.117
-115.07
-116.866
-118.59
-120.297
-121.988
-123.66
-125.314
-126.954
-128.585
-130.204
-131.807
-133.386
-134.926
-136.409
-137.825
-139.166
-140.427
-141.602
-142.683
-143.666
-144.552
-145.346
-146.056
-146.7
9.45292
1.53593
-5.70526
-11.7226
-16.1335
-19.6208
-22.7421
-25.6602
-28.1652
-30.425
-32.8482
-35.456
-38.1084
-40.5872
-42.7055
-44.3851
-45.6969
-46.9023
-48.3115
-50.0182
-51.9816
-54.128
-56.3019
-58.377
-60.3801
-62.3721
-64.2205
-65.7818
-67.2096
-68.6515
-70.1198
-71.6892
-73.4699
-75.4458
-77.2042
-78.4313
-79.2094
-79.7001
-80.1589
-80.9346
-82.3034
-84.0999
-85.5569
-86.3407
-86.8091
-87.2687
-87.8791
-88.7116
-89.7299
-90.9144
-92.2757
-93.6184
-94.6952
-95.565
-96.4815
-97.5892
-98.8751
-100.297
-101.851
-103.584
-105.543
-107.715
-110.033
-112.226
-114.019
-115.653
-117.212
-118.754
-120.283
-121.785
-123.258
-124.703
-126.12
-127.504
-128.852
-130.153
-131.398
-132.575
-133.68
-134.71
-135.66
-136.527
-137.307
-138.002
-138.614
-139.147
-139.605
-140.004
9.4082
1.5841
-5.70384
-11.686
-16.117
-19.6369
-22.7703
-25.664
-28.1553
-30.4177
-32.8304
-35.4288
-38.079
-40.5706
-42.7068
-44.391
-45.699
-46.9002
-48.2961
-49.9918
-51.9623
-54.1266
-56.3192
-58.4084
-60.4084
-62.3689
-64.1949
-65.7846
-67.2558
-68.7363
-70.2496
-71.8471
-73.6002
-75.4699
-77.1408
-78.3585
-79.1699
-79.7337
-80.2803
-81.0905
-82.3542
-83.9238
-85.2708
-86.1279
-86.7108
-87.277
-87.9654
-88.8293
-89.8497
-90.9994
-92.2523
-93.4838
-94.551
-95.4814
-96.433
-97.519
-98.7534
-100.115
-101.601
-103.234
-105.035
-106.994
-109.062
-111.012
-112.603
-114.037
-115.39
-116.724
-118.04
-119.322
-120.562
-121.759
-122.911
-124.017
-125.07
-126.064
-126.992
-127.851
-128.636
-129.347
-129.979
-130.531
-131.005
-131.4
-131.717
-131.958
-132.125
-132.225
9.37568
1.63396
-5.70547
-11.6535
-16.1029
-19.6595
-22.807
-25.6732
-28.1441
-30.4047
-32.8058
-35.3942
-38.0451
-40.556
-42.716
-44.4045
-45.7019
-46.8913
-48.2689
-49.9511
-51.9317
-54.1234
-56.3424
-58.4475
-60.4429
-62.3716
-64.1746
-65.7904
-67.3089
-68.8351
-70.3964
-72.0215
-73.745
-75.5145
-77.0976
-78.2979
-79.1391
-79.7677
-80.3872
-81.2156
-82.3753
-83.747
-84.9856
-85.8935
-86.5872
-87.261
-88.0301
-88.9335
-89.9569
-91.0689
-92.2309
-93.3673
-94.4042
-95.3568
-96.3182
-97.3697
-98.536
-99.8108
-101.191
-102.682
-104.29
-106
-107.778
-109.442
-110.795
-111.999
-113.12
-114.207
-115.262
-116.274
-117.237
-118.147
-119.004
-119.806
-120.548
-121.228
-121.844
-122.395
-122.879
-123.297
-123.649
-123.936
-124.161
-124.327
-124.435
-124.491
-124.497
-124.456
9.36846
1.68345
-5.71432
-11.6297
-16.0947
-19.692
-22.8558
-25.6908
-28.1317
-30.3835
-32.7712
-35.3497
-38.0061
-40.5464
-42.7391
-44.4304
-45.7058
-46.8711
-48.2228
-49.8869
-51.8823
-54.1154
-56.3719
-58.495
-60.4838
-62.3806
-64.1594
-65.7981
-67.3676
-68.9482
-70.5625
-72.2167
-73.9125
-75.5926
-77.0924
-78.2679
-79.1295
-79.8064
-80.4753
-81.3023
-82.3628
-83.5687
-84.7069
-85.6436
-86.4347
-87.2119
-88.0625
-89.0113
-90.0411
-91.1176
-92.2027
-93.2529
-94.2369
-95.1684
-96.1028
-97.0943
-98.1676
-99.3235
-100.557
-101.866
-103.241
-104.669
-106.121
-107.454
-108.522
-109.455
-110.303
-111.108
-111.872
-112.587
-113.248
-113.853
-114.401
-114.892
-115.326
-115.702
-116.021
-116.284
-116.492
-116.647
-116.754
-116.814
-116.831
-116.808
-116.75
-116.659
-116.54
-116.398
9.40303
1.72384
-5.73526
-11.6223
-16.0977
-19.7342
-22.9148
-25.7177
-28.1195
-30.3539
-32.7276
-35.2978
-37.9661
-40.5466
-42.7806
-44.4712
-45.7104
-46.8378
-48.1553
-49.7963
-51.8115
-54.102
-56.4067
-58.548
-60.5291
-62.3967
-64.1509
-65.8055
-67.4232
-69.0602
-70.7283
-72.4119
-74.0878
-75.7012
-77.1343
-78.2803
-79.1439
-79.8391
-80.5237
-81.3309
-82.3091
-83.3942
-84.4522
-85.3971
-86.2578
-87.1206
-88.0462
-89.045
-90.0911
-91.1457
-92.1728
-93.147
-94.0604
-94.9324
-95.8027
-96.709
-97.6705
-98.6891
-99.758
-100.868
-102.005
-103.152
-104.284
-105.288
-106.073
-106.741
-107.328
-107.866
-108.356
-108.794
-109.177
-109.504
-109.777
-109.996
-110.163
-110.28
-110.348
-110.37
-110.349
-110.286
-110.187
-110.053
-109.888
-109.695
-109.479
-109.24
-108.984
-108.713
9.4776
1.75223
-5.76828
-11.6304
-16.1116
-19.7829
-22.9796
-25.7514
-28.1081
-30.3189
-32.6786
-35.2426
-37.9279
-40.5568
-42.8386
-44.5244
-45.7153
-46.7945
-48.072
-49.6847
-51.724
-54.0854
-56.4452
-58.6033
-60.5765
-62.4176
-64.1457
-65.8093
-67.4693
-69.1604
-70.8819
-72.5964
-74.2617
-75.83
-77.2151
-78.3315
-79.1797
-79.8653
-80.539
-81.3162
-82.2288
-83.2266
-84.2223
-85.1628
-86.0682
-86.9979
-87.9922
-89.0463
-90.1214
-91.1691
-92.1522
-93.0551
-93.8866
-94.6753
-95.4578
-96.264
-97.1077
-97.9886
-98.8974
-99.8205
-100.74
-101.637
-102.486
-103.2
-103.737
-104.173
-104.535
-104.843
-105.101
-105.306
-105.459
-105.559
-105.609
-105.612
-105.57
-105.486
-105.361
-105.2
-105.005
-104.78
-104.528
-104.251
-103.953
-103.637
-103.306
-102.961
-102.607
-102.244
9.59445
1.76937
-5.81504
-11.6525
-16.1363
-19.8394
-23.0526
-25.7926
-28.0967
-30.2777
-32.623
-35.182
-37.8895
-40.5773
-42.916
-44.5922
-45.7202
-46.7404
-47.9707
-49.5468
-51.6161
-54.0669
-56.4901
-58.6634
-60.6284
-62.4432
-64.1399
-65.8073
-67.5062
-69.2512
-71.03
-72.7798
-74.4421
-75.9812
-77.3332
-78.4203
-79.2359
-79.8858
-80.5268
-81.2664
-82.123
-83.0523
-83.9951
-84.9223
-85.855
-86.8402
-87.9044
-89.0268
-90.149
-91.206
-92.1536
-92.9822
-93.7166
-94.4004
-95.0755
-95.769
-96.4906
-97.2362
-97.9938
-98.7455
-99.4702
-100.144
-100.742
-101.199
-101.515
-101.746
-101.91
-102.019
-102.078
-102.085
-102.043
-101.953
-101.82
-101.646
-101.434
-101.187
-100.909
-100.604
-100.273
-99.9213
-99.5508
-99.1649
-98.7662
-98.3572
-97.9405
-97.5182
-97.0923
-96.6649
9.7551
1.77391
-5.87658
-11.6877
-16.1719
-19.9044
-23.1345
-25.8413
-28.0849
-30.2303
-32.5605
-35.1151
-37.8497
-40.6086
-43.0156
-44.6759
-45.7247
-46.6756
-47.851
-49.3784
-51.4852
-54.0492
-56.5433
-58.7292
-60.6868
-62.4738
-64.1301
-65.797
-67.5328
-69.3319
-71.1757
-72.9669
-74.6318
-76.1551
-77.4888
-78.5479
-79.3128
-79.9
-80.4889
-81.1861
-81.9935
-82.8651
-83.7588
-84.6634
-85.6076
-86.6398
-87.7815
-88.9932
-90.1886
-91.2761
-92.1954
-92.9407
-93.558
-94.1145
-94.6648
-95.2368
-95.8356
-96.4534
-97.0745
-97.6776
-98.2365
-98.7221
-99.1065
-99.3416
-99.4664
-99.5208
-99.515
-99.4556
-99.3453
-99.1865
-98.982
-98.7357
-98.4513
-98.1324
-97.7828
-97.406
-97.0057
-96.5852
-96.1475
-95.6958
-95.233
-94.7617
-94.2844
-93.8034
-93.3209
-92.8388
-92.3591
-91.8832
9.96283
1.76357
-5.9538
-11.7352
-16.2184
-19.9786
-23.227
-25.8983
-28.0717
-30.1761
-32.4903
-35.0401
-37.807
-40.6514
-43.1413
-44.7778
-45.7279
-46.5996
-47.7116
-49.1723
-51.3271
-54.0362
-56.6077
-58.802
-60.7542
-62.5103
-64.1113
-65.7758
-67.5472
-69.4011
-71.3234
-73.1628
-74.8337
-76.3538
-77.6862
-78.7205
-79.4131
-79.9068
-80.4265
-81.0796
-81.8433
-82.6632
-83.5071
-84.3772
-85.3156
-86.3882
-87.6229
-88.9572
-90.2641
-91.4106
-92.3068
-92.9486
-93.4165
-93.8166
-94.2234
-94.6657
-95.1433
-95.6431
-96.1465
-96.629
-97.0582
-97.3944
-97.601
-97.6385
-97.5922
-97.4919
-97.34
-97.1356
-96.8805
-96.5791
-96.2362
-95.8564
-95.4442
-95.004
-94.5402
-94.0568
-93.5574
-93.0453
-92.5237
-91.9954
-91.463
-90.9289
-90.3953
-89.8641
-89.337
-88.8157
-88.3016
-87.7959
10.1995
1.737
-6.03942
-11.7897
-16.2713
-20.0556
-23.3227
-25.9587
-28.0575
-30.1198
-32.4185
-34.9625
-37.7635
-40.7019
-43.2852
-44.8901
-45.7285
-46.5201
-47.5659
-48.9408
-51.153
-54.034
-56.6791
-58.8752
-60.8275
-62.5512
-64.08
-65.7444
-67.547
-69.4505
-71.4652
-73.3542
-75.0291
-76.5585
-77.91
-78.9272
-79.5268
-79.8978
-80.3397
-80.9545
-81.6831
-82.4586
-83.2526
-84.075
-84.9843
-86.0852
-87.4294
-88.9235
-90.3888
-91.6341
-92.5161
-93.031
-93.3165
-93.5381
-93.7942
-94.1124
-94.4836
-94.8884
-95.3071
-95.7164
-96.0754
-96.3259
-96.4164
-96.2953
-96.1038
-95.885
-95.6264
-95.3137
-94.9478
-94.5359
-94.0849
-93.6005
-93.0877
-92.5517
-91.9976
-91.4299
-90.8523
-90.268
-89.6795
-89.089
-88.4983
-87.909
-87.3223
-86.7394
-86.1612
-85.5886
-85.0225
-84.4617
10.4295
1.70028
-6.12055
-11.8422
-16.3222