/*--------------------------------*- C++ -*----------------------------------*\
| =========                 |                                                 |
| \\      /  F ield         | OpenFOAM: The Open Source CFD Toolbox           |
|  \\    /   O peration     | Version:  5.x                                   |
|   \\  /    A nd           | Web:      www.OpenFOAM.org                      |
|    \\/     M anipulation  |                                                 |
\*---------------------------------------------------------------------------*/
FoamFile
{
    version     2.0;
    format      ascii;
    class       surfaceScalarField;
    location    "396";
    object      phi;
}
// * * * * * * * * * * * * * * * * * * * * * * * * * * * * * * * * * * * * * //

dimensions      [0 3 -1 0 0 0 0];

internalField   nonuniform List<scalar> 
40747
(
1.48897e-05
-9.17071e-09
7.19871e-06
7.69095e-06
1.80122e-05
-2.00167e-08
1.46797e-05
1.05312e-05
2.17896e-05
-3.29271e-08
2.22162e-05
1.42531e-05
2.63592e-05
-4.81952e-08
2.95354e-05
1.904e-05
3.18868e-05
-6.60927e-08
3.63438e-05
2.50785e-05
3.85735e-05
-8.68236e-08
4.23647e-05
3.25526e-05
4.6662e-05
-1.10459e-07
4.73835e-05
4.16431e-05
5.6446e-05
-1.36848e-07
5.12864e-05
5.25432e-05
6.82811e-05
-1.65515e-07
5.40765e-05
6.5491e-05
8.25969e-05
-1.95555e-07
5.586e-05
8.08134e-05
9.99134e-05
-2.25569e-07
5.67863e-05
9.8987e-05
0.00012086
-2.5365e-07
5.7118e-05
0.000120528
0.000146197
-2.77505e-07
5.70797e-05
0.000146236
0.000176847
-2.94659e-07
5.67802e-05
0.000177147
0.000213924
-3.027e-07
5.62694e-05
0.000214435
0.000258777
-2.99544e-07
5.55692e-05
0.000259477
0.000313038
-2.83737e-07
5.46817e-05
0.000313925
0.000378681
-2.54777e-07
5.35917e-05
0.000379771
0.000458094
-2.13543e-07
5.22686e-05
0.000459417
0.000554168
-1.62878e-07
5.06674e-05
0.00055577
0.0006704
-1.08429e-07
4.8733e-05
0.000672334
0.000811018
-5.98216e-08
4.64029e-05
0.000813348
0.000981142
-3.22418e-08
4.36058e-05
0.000983939
0.00118696
-4.84379e-08
4.02589e-05
0.00119031
0.00143598
-1.41006e-07
3.62665e-05
0.00143997
0.00173724
-3.5457e-07
3.15176e-05
0.00174199
0.00210172
-7.46891e-07
2.58833e-05
0.00210736
0.00254268
-1.38686e-06
1.92107e-05
0.00254935
0.00307613
-2.34522e-06
1.13137e-05
0.00308403
0.00372145
-3.67003e-06
1.95457e-06
0.00373081
0.00356582
-4.98506e-06
-6.88456e-06
0.00357466
0.00356575
-6.22822e-06
-1.56598e-05
0.00357453
0.00356556
-7.27862e-06
-2.44325e-05
0.00357433
0.00356524
-8.01294e-06
-3.3264e-05
0.00357407
0.00360756
-8.30633e-06
-4.23231e-05
0.00361662
0.00300067
-8.10975e-06
-4.99968e-05
0.00300835
0.00249588
-7.58426e-06
-5.65016e-05
0.00250239
0.00207603
-6.8645e-06
-6.20113e-05
0.00208154
0.00172683
-6.05312e-06
-6.66704e-05
0.00173149
0.00143638
-5.22308e-06
-7.06034e-05
0.00144032
0.00119481
-4.42289e-06
-7.39188e-05
0.00119813
0.000993884
-3.68227e-06
-7.67083e-05
0.000996673
0.000826758
-3.01724e-06
-7.90482e-05
0.000829098
0.000687748
-2.43561e-06
-8.10017e-05
0.000689701
0.000572124
-1.94102e-06
-8.26174e-05
0.000573739
0.000475949
-1.53183e-06
-8.39279e-05
0.00047726
0.000395949
-1.20065e-06
-8.49359e-05
0.000396957
0.000329399
-9.36076e-07
-8.55945e-05
0.000330058
0.000274033
-7.23799e-07
-8.57952e-05
0.000274234
0.000227971
-5.51613e-07
-8.53811e-05
0.000227557
0.000189654
-4.13907e-07
-8.42122e-05
0.000188485
0.00015778
-3.07576e-07
-8.22355e-05
0.000155804
0.000131265
-2.27358e-07
-7.94432e-05
0.000128473
0.000109206
-1.67506e-07
-7.57961e-05
0.000105559
9.08532e-05
-1.23197e-07
-7.12354e-05
8.62925e-05
7.55845e-05
-9.05298e-08
-6.57585e-05
7.01076e-05
6.28815e-05
-6.64433e-08
-5.94418e-05
5.65647e-05
5.2313e-05
-4.86048e-08
-5.2421e-05
4.52922e-05
4.35205e-05
-3.52797e-08
-4.48807e-05
3.59802e-05
3.62055e-05
-2.52065e-08
-3.70341e-05
2.83588e-05
3.01198e-05
-1.7484e-08
-2.90979e-05
2.21837e-05
2.50569e-05
-1.14767e-08
-2.12771e-05
1.72362e-05
2.08451e-05
-6.73869e-09
-1.37529e-05
1.33209e-05
1.7341e-05
-2.95587e-09
-6.66817e-06
1.02563e-05
1.44261e-05
7.75795e-06
8.11658e-07
6.8793e-06
8.52365e-07
-4.07066e-08
9.55119e-07
-1.02755e-07
7.78881e-07
1.76238e-07
7.11146e-07
6.77354e-08
7.18066e-07
-6.92026e-09
7.69366e-07
-5.13005e-08
7.52364e-07
1.70026e-08
7.23115e-07
2.92484e-08
7.18293e-07
4.82189e-09
6.87644e-07
3.06493e-08
6.27233e-07
6.04111e-08
5.5166e-07
7.55734e-08
5.13041e-07
3.86185e-08
4.97678e-07
1.53633e-08
5.00406e-07
-2.72797e-09
5.28138e-07
-2.77322e-08
5.54188e-07
-2.60497e-08
5.69581e-07
-1.53933e-08
5.88388e-07
-1.88067e-08
6.07101e-07
-1.87133e-08
6.25552e-07
-1.84515e-08
6.51875e-07
-2.63223e-08
6.81969e-07
-3.00942e-08
6.66094e-07
1.58747e-08
6.18278e-07
4.78163e-08
6.22022e-07
-3.74462e-09
6.65624e-07
-4.3601e-08
7.18819e-07
-5.31958e-08
8.07248e-07
-8.84288e-08
9.33905e-07
-1.26657e-07
1.10533e-06
-1.71427e-07
1.26958e-06
-1.64248e-07
1.22817e-06
4.14066e-08
1.02215e-06
2.06026e-07
8.23316e-07
1.98831e-07
7.49892e-07
7.34246e-08
8.16108e-07
-6.62163e-08
9.63712e-07
-1.47604e-07
1.25682e-06
-2.93106e-07
1.55524e-06
-2.98426e-07
1.30487e-06
2.50378e-07
8.57217e-07
4.4765e-07
7.45781e-07
1.11436e-07
7.76121e-07
-3.03398e-08
9.02889e-07
-1.26769e-07
1.00289e-06
-1.00005e-07
1.03323e-06
-3.03306e-08
1.15658e-06
-1.23353e-07
1.43288e-06
-2.76305e-07
1.38928e-06
4.36077e-08
1.02708e-06
3.62199e-07
9.35801e-07
9.12753e-08
1.11001e-06
-1.74205e-07
1.25808e-06
-1.48077e-07
1.34055e-06
-8.24701e-08
1.39743e-06
-5.68752e-08
1.36009e-06
3.73346e-08
1.43614e-06
-7.60487e-08
1.7194e-06
-2.83255e-07
1.94654e-06
-2.27144e-07
2.05262e-06
-1.06081e-07
2.09269e-06
-4.0074e-08
2.04554e-06
4.7153e-08
1.98991e-06
5.56292e-08
1.98332e-06
6.58939e-09
1.96168e-06
2.16463e-08
1.87283e-06
8.88412e-08
1.76437e-06
1.08462e-07
1.73843e-06
2.59369e-08
1.71303e-06
2.54054e-08
1.69139e-06
2.16355e-08
1.92416e-06
-2.3277e-07
2.27473e-06
-3.50569e-07
2.26263e-06
1.21038e-08
1.985e-06
2.7763e-07
1.82522e-06
1.59777e-07
1.62219e-06
2.03026e-07
1.48209e-06
1.40106e-07
1.68942e-06
-2.07337e-07
1.97858e-06
-2.89157e-07
1.99056e-06
-1.19871e-08
1.88966e-06
1.00902e-07
1.7887e-06
1.00964e-07
1.47897e-06
3.09721e-07
1.60844e-06
-1.29471e-07
1.74644e-06
-1.37996e-07
-7.8898e-07
2.53542e-06
2.97552e-06
1.4435e-05
2.74184e-06
1.92971e-07
3.02381e-06
-3.84722e-07
2.88879e-06
3.11259e-07
2.75958e-06
1.96946e-07
2.78658e-06
-3.39244e-08
2.98595e-06
-2.50671e-07
2.92004e-06
8.29186e-08
2.80651e-06
1.42775e-07
2.78773e-06
2.35963e-08
2.6685e-06
1.49887e-07
2.43377e-06
2.95135e-07
2.14036e-06
3.68984e-07
1.99071e-06
1.88272e-07
1.93132e-06
7.47514e-08
1.94205e-06
-1.34597e-08
2.04976e-06
-1.35437e-07
2.15074e-06
-1.27034e-07
2.21025e-06
-7.4899e-08
2.28306e-06
-9.16188e-08
2.35554e-06
-9.11969e-08
2.42706e-06
-8.99736e-08
2.52925e-06
-1.28504e-07
2.6462e-06
-1.47051e-07
2.58431e-06
7.77644e-08
2.39855e-06
2.33584e-07
2.41352e-06
-1.87241e-08
2.58285e-06
-2.12931e-07
2.78899e-06
-2.59328e-07
3.13181e-06
-4.31254e-07
3.62255e-06
-6.17396e-07
4.18078e-06
-7.29654e-07
4.43025e-06
-4.13724e-07
4.32739e-06
1.44266e-07
3.90777e-06
6.25656e-07
3.19374e-06
9.12851e-07
2.9102e-06
3.56973e-07
3.16727e-06
-3.23287e-07
3.72401e-06
-7.04349e-07
4.05869e-06
-6.27786e-07
3.96907e-06
-2.08804e-07
3.8014e-06
4.1805e-07
3.30917e-06
9.39874e-07
2.89408e-06
5.26523e-07
3.01213e-06
-1.48382e-07
3.50368e-06
-6.18321e-07
3.8917e-06
-4.88023e-07
4.00726e-06
-1.45893e-07
4.21647e-06
-3.32561e-07
4.26485e-06
-3.24685e-07
4.01409e-06
2.94363e-07
3.61817e-06
7.58114e-07
3.57524e-06
1.34206e-07
3.87839e-06
-4.77355e-07
3.99122e-06
-2.60899e-07
3.99661e-06
-8.78603e-08
3.9857e-06
-4.59707e-08
3.95065e-06
7.23889e-08
3.9049e-06
-3.03042e-08
3.91196e-06
-2.90308e-07
3.94147e-06
-2.56663e-07
3.93719e-06
-1.01801e-07
3.91146e-06
-1.43409e-08
3.85798e-06
1.00638e-07
3.79069e-06
1.22912e-07
3.75797e-06
3.93092e-08
3.72666e-06
5.29579e-08
3.65512e-06
1.60381e-07
3.6112e-06
1.52382e-07
3.64468e-06
-7.54514e-09
3.70062e-06
-3.05306e-08
3.77986e-06
-5.76123e-08
3.98604e-06
-4.3895e-07
4.21522e-06
-5.79745e-07
4.21476e-06
1.25639e-08
4.09008e-06
4.02312e-07
4.03822e-06
2.1163e-07
4.11724e-06
1.24003e-07
4.35096e-06
-9.36107e-08
4.55799e-06
-4.14368e-07
4.74749e-06
-4.78661e-07
4.88044e-06
-1.44942e-07
4.84999e-06
1.31351e-07
4.65306e-06
2.97894e-07
4.6238e-06
3.38976e-07
5.28446e-06
-7.90133e-07
5.55796e-06
-4.11498e-07
-8.27192e-07
5.59617e-06
6.23941e-06
2.24487e-05
5.48582e-06
9.4656e-07
5.74519e-06
-6.44094e-07
5.81233e-06
2.44121e-07
5.886e-06
1.23277e-07
6.00876e-06
-1.56685e-07
6.22118e-06
-4.63091e-07
6.2156e-06
8.85024e-08
6.20406e-06
1.5431e-07
6.1642e-06
6.34613e-08
5.91198e-06
4.02105e-07
5.38989e-06
8.17225e-07
4.73861e-06
1.02026e-06
4.40919e-06
5.17699e-07
4.279e-06
2.0494e-07
4.30324e-06
-3.76979e-08
4.54279e-06
-3.74993e-07
4.76655e-06
-3.50795e-07
4.89753e-06
-2.05877e-07
5.05861e-06
-2.52696e-07
5.21895e-06
-2.51534e-07
5.37696e-06
-2.47993e-07
5.60365e-06
-3.55185e-07
5.86477e-06
-4.08176e-07
5.72454e-06
2.17992e-07
5.30931e-06
6.48813e-07
5.34579e-06
-5.51991e-08
5.72271e-06
-5.89855e-07
6.1775e-06
-7.14114e-07
6.93602e-06
-1.18978e-06
7.78012e-06
-1.4615e-06
8.21375e-06
-1.16328e-06
8.07748e-06
-2.77451e-07
7.91104e-06
3.10707e-07
7.7456e-06
7.91091e-07
6.88397e-06
1.77448e-06
6.43243e-06
8.08521e-07
7.01277e-06
-9.03628e-07
7.62107e-06
-1.31265e-06
7.46179e-06
-4.68505e-07
6.86192e-06
3.91065e-07
6.84355e-06
4.36418e-07
6.75459e-06
1.02883e-06
6.38839e-06
8.92728e-07
6.66549e-06
-4.25483e-07
7.44926e-06
-1.4021e-06
7.94024e-06
-9.78995e-07
8.04451e-06
-2.50168e-07
8.02013e-06
-3.08182e-07
7.59643e-06
9.90184e-08
7.15407e-06
7.36725e-07
7.01164e-06
9.00536e-07
7.10383e-06
4.20156e-08
7.25226e-06
-6.25782e-07
7.22582e-06
-2.34455e-07
7.15204e-06
-1.40803e-08
7.06354e-06
4.25234e-08
7.00798e-06
1.27951e-07
6.83538e-06
1.4229e-07
6.56327e-06
-1.8194e-08
6.37163e-06
-6.50232e-08
6.23122e-06
3.86139e-08
6.12214e-06
9.47321e-08
6.05795e-06
1.6483e-07
5.97992e-06
2.00936e-07
5.92171e-06
9.7522e-08
5.8839e-06
9.07702e-08
5.82965e-06
2.14629e-07
5.84359e-06
1.38441e-07
5.93075e-06
-9.47042e-08
6.05208e-06
-1.51863e-07
6.21823e-06
-2.23761e-07
6.4061e-06
-6.26823e-07
6.53121e-06
-7.0486e-07
6.52474e-06
1.90363e-08
6.49579e-06
4.31264e-07
6.53688e-06
1.70538e-07
6.79969e-06
-1.38813e-07
7.24006e-06
-5.33975e-07
7.50565e-06
-6.79968e-07
7.63993e-06
-6.12942e-07
7.75267e-06
-2.5768e-07
7.70182e-06
1.82198e-07
7.54766e-06
4.52051e-07
7.87271e-06
1.3923e-08
8.53149e-06
-1.44891e-06
8.81882e-06
-6.98835e-07
-9.89835e-07
8.98146e-06
1.09815e-05
3.05072e-05
9.49688e-06
2.43114e-06
9.31699e-06
-4.6421e-07
9.50135e-06
5.97607e-08
9.85388e-06
-2.29249e-07
1.00999e-05
-4.0272e-07
1.01678e-05
-5.30927e-07
1.04132e-05
-1.56986e-07
1.06637e-05
-9.61846e-08
1.0613e-05
1.14218e-07
1.04198e-05
5.95289e-07
9.81359e-06
1.42343e-06
8.85249e-06
1.98136e-06
8.24827e-06
1.12192e-06
8.01157e-06
4.41638e-07
8.05897e-06
-8.50993e-08
8.5137e-06
-8.29716e-07
8.93368e-06
-7.70784e-07
9.17512e-06
-4.47314e-07
9.477e-06
-5.54577e-07
9.77687e-06
-5.514e-07
1.00707e-05
-5.41801e-07
1.04972e-05
-7.81755e-07
1.09984e-05
-9.09351e-07
1.07163e-05
5.00109e-07
9.91458e-06
1.45054e-06
1.00028e-05
-1.43448e-07
1.07214e-05
-1.30838e-06
1.15641e-05
-1.55687e-06
1.24041e-05
-2.02977e-06
1.28174e-05
-1.87477e-06
1.2695e-05
-1.0409e-06
1.21915e-05
2.26015e-07
1.19305e-05
5.71718e-07
1.19891e-05
7.32509e-07
1.17606e-05
2.00302e-06
1.16724e-05
8.96638e-07
1.20643e-05
-1.2955e-06
1.21354e-05
-1.38369e-06
1.1416e-05
2.50862e-07
1.05014e-05
1.30566e-06
1.04559e-05
4.81869e-07
1.08331e-05
6.51681e-07
1.098e-05
7.4582e-07
1.14435e-05
-8.88972e-07
1.20498e-05
-2.00844e-06
1.23149e-05
-1.24409e-06
1.2363e-05
-2.98239e-07
1.21842e-05
-1.29401e-07
1.15081e-05
7.75153e-07
1.09576e-05
1.28721e-06
1.09899e-05
8.68194e-07
1.115e-05
-1.18083e-07
1.11754e-05
-6.511e-07
1.10899e-05
-1.49024e-07
1.09769e-05
9.90016e-08
1.08307e-05
1.88632e-07
1.07235e-05
2.35154e-07
1.04546e-05
4.11178e-07
9.99245e-06
4.44001e-07
9.59843e-06
3.28999e-07
9.29689e-06
3.40153e-07
9.082e-06
3.0962e-07
8.99308e-06
2.5375e-07
8.89993e-06
2.94088e-07
8.81861e-06
1.78838e-07
8.77757e-06
1.31811e-07
8.74075e-06
2.51449e-07
8.79343e-06
8.57618e-08
8.91726e-06
-2.18538e-07
9.07725e-06
-3.11854e-07
9.29996e-06
-4.46476e-07
9.48408e-06
-8.10941e-07
9.54524e-06
-7.66015e-07
9.5197e-06
4.45696e-08
9.52651e-06
4.24451e-07
9.63224e-06
6.48145e-08
9.97778e-06
-4.84356e-07
1.04938e-05
-1.04998e-06
1.08349e-05
-1.02107e-06
1.09562e-05
-7.343e-07
1.1e-05
-3.0145e-07
1.09203e-05
2.61933e-07
1.08686e-05
5.03748e-07
1.12969e-05
-4.14405e-07
1.17931e-05
-1.94514e-06
1.21458e-05
-1.0515e-06
-1.37377e-06
1.25297e-05
1.74002e-05
3.81854e-05
1.50021e-05
4.82931e-06
1.39869e-05
5.50929e-07
1.41644e-05
-1.17693e-07
1.46349e-05
-6.99782e-07
1.49386e-05
-7.06441e-07
1.4914e-05
-5.06335e-07
1.53205e-05
-5.63472e-07
1.57445e-05
-5.20167e-07
1.57349e-05
1.23797e-07
1.5681e-05
6.49182e-07
1.54315e-05
1.67299e-06
1.48279e-05
2.58493e-06
1.41961e-05
1.75371e-06
1.38172e-05
8.206e-07
1.3907e-05
-1.74985e-07
1.47214e-05
-1.64404e-06
1.54511e-05
-1.50047e-06
1.58517e-05
-8.47915e-07
1.63766e-05
-1.07955e-06
1.6894e-05
-1.06874e-06
1.73923e-05
-1.04013e-06
1.78892e-05
-1.27866e-06
1.82375e-05
-1.25765e-06
1.79184e-05
8.19215e-07
1.69813e-05
2.38759e-06
1.70951e-05
-2.57248e-07
1.78456e-05
-2.05883e-06
1.82263e-05
-1.93761e-06
1.8455e-05
-2.25848e-06
1.83003e-05
-1.72e-06
1.78174e-05
-5.57988e-07
1.71132e-05
9.30172e-07
1.67471e-05
9.37775e-07
1.6834e-05
6.45648e-07
1.71037e-05
1.73333e-06
1.73534e-05
6.46928e-07
1.74605e-05
-1.40261e-06
1.71838e-05
-1.10698e-06
1.62113e-05
1.22338e-06
1.5083e-05
2.43398e-06
1.49353e-05
6.29523e-07
1.5498e-05
8.90341e-08
1.60024e-05
2.41396e-07
1.65837e-05
-1.47033e-06
1.70141e-05
-2.43881e-06
1.71424e-05
-1.37235e-06
1.71573e-05
-3.13205e-07
1.69296e-05
9.8326e-08
1.61713e-05
1.53346e-06
1.5582e-05
1.87654e-06
1.56802e-05
7.69998e-07
1.58915e-05
-3.29457e-07
1.58929e-05
-6.525e-07
1.57797e-05
-3.57509e-08
1.5638e-05
2.40619e-07
1.54439e-05
3.8272e-07
1.52842e-05
3.94899e-07
1.49495e-05
7.45845e-07
1.43644e-05
1.02909e-06
1.37979e-05
8.9556e-07
1.33225e-05
8.15576e-07
1.2981e-05
6.51098e-07
1.2848e-05
3.86773e-07
1.27298e-05
4.12212e-07
1.26255e-05
2.8313e-07
1.25782e-05
1.79189e-07
1.25644e-05
2.65212e-07
1.26487e-05
1.47137e-09
1.27972e-05
-3.67018e-07
1.29775e-05
-4.92165e-07
1.32254e-05
-6.94415e-07
1.33996e-05
-9.85131e-07
1.34131e-05
-7.7952e-07
1.33668e-05
9.08956e-08
1.33943e-05
3.96931e-07
1.35459e-05
-8.67885e-08
1.39199e-05
-8.58355e-07
1.44418e-05
-1.57191e-06
1.48156e-05
-1.39488e-06
1.49251e-05
-8.4374e-07
1.49145e-05
-2.90875e-07
1.48604e-05
3.16064e-07
1.4924e-05
4.4013e-07
1.53432e-05
-8.33624e-07
1.56834e-05
-2.28533e-06
1.61108e-05
-1.47899e-06
-1.93533e-06
1.66724e-05
2.53842e-05
4.53538e-05
2.19617e-05
8.25191e-06
2.00392e-05
2.4734e-06
2.01012e-05
-1.79715e-07
2.0585e-05
-1.18358e-06
2.08857e-05
-1.00714e-06
2.07992e-05
-4.19846e-07
2.12348e-05
-9.99058e-07
2.17731e-05
-1.0585e-06
2.18565e-05
4.04196e-08
2.18739e-05
6.31809e-07
2.19145e-05
1.63238e-06
2.19783e-05
2.52112e-06
2.20738e-05
1.65825e-06
2.23209e-05
5.73429e-07
2.28574e-05
-7.11414e-07
2.36221e-05
-2.40879e-06
2.42295e-05
-2.10788e-06
2.45922e-05
-1.21064e-06
2.48865e-05
-1.37387e-06
2.5161e-05
-1.34319e-06
2.54207e-05
-1.29986e-06
2.5599e-05
-1.45691e-06
2.5613e-05
-1.27171e-06
2.54735e-05
9.58754e-07
2.5175e-05
2.68609e-06
2.51825e-05
-2.6473e-07
2.52973e-05
-2.17368e-06
2.51852e-05
-1.82543e-06
2.50019e-05
-2.07519e-06
2.45971e-05
-1.31526e-06
2.39258e-05
1.13361e-07
2.30869e-05
1.76909e-06
2.26158e-05
1.40887e-06
2.26613e-05
6.00121e-07
2.30633e-05
1.33132e-06
2.34429e-05
2.67332e-07
2.34987e-05
-1.45846e-06
2.31388e-05
-7.46996e-07
2.20874e-05
2.27477e-06
2.08202e-05
3.70113e-06
2.05356e-05
9.14148e-07
2.11062e-05
-4.81559e-07
2.17649e-05
-4.17305e-07
2.24077e-05
-2.11314e-06
2.27632e-05
-2.79435e-06
2.28319e-05
-1.44101e-06
2.28188e-05
-3.00115e-07
2.25675e-05
3.49603e-07
2.17983e-05
2.30272e-06
2.12054e-05
2.46946e-06
2.13304e-05
6.44968e-07
2.15773e-05
-5.76399e-07
2.15703e-05
-6.45446e-07
2.14338e-05
1.00685e-07
2.12588e-05
4.15629e-07
2.10239e-05
6.17648e-07
2.08321e-05
5.86684e-07
2.04718e-05
1.10614e-06
1.98249e-05
1.67599e-06
1.91386e-05
1.58193e-06
1.85145e-05
1.43958e-06
1.80414e-05
1.12429e-06
1.78443e-05
5.83804e-07
1.76878e-05
5.68733e-07
1.75548e-05
4.16163e-07
1.74888e-05
2.45123e-07
1.7498e-05
2.56084e-07
1.76116e-05
-1.12176e-07
1.7781e-05
-5.36394e-07
1.79777e-05
-6.88869e-07
1.82286e-05
-9.4538e-07
1.8377e-05
-1.13352e-06
1.83361e-05
-7.386e-07
1.82749e-05
1.52127e-07
1.83314e-05
3.40426e-07
1.85128e-05
-2.6825e-07
1.88772e-05
-1.22274e-06
1.93463e-05
-2.04097e-06
1.96892e-05
-1.7378e-06
1.97802e-05
-9.34728e-07
1.97711e-05
-2.8177e-07
1.98082e-05
2.78923e-07
1.99869e-05
2.61399e-07
2.03641e-05
-1.21082e-06
2.06169e-05
-2.53814e-06
2.10354e-05
-1.89751e-06
-2.56217e-06
2.16623e-05
3.50435e-05
5.19534e-05
3.05929e-05
1.27025e-05
2.7814e-05
5.25228e-06
2.76611e-05
-2.68187e-08
2.80693e-05
-1.59177e-06
2.83085e-05
-1.24636e-06
2.81748e-05
-2.86186e-07
2.85558e-05
-1.38e-06
2.91575e-05
-1.6602e-06
2.9359e-05
-1.61123e-07
2.94182e-05
5.72639e-07
2.95845e-05
1.46604e-06
3.00194e-05
2.08624e-06
3.06612e-05
1.01645e-06
3.1436e-05
-2.01337e-07
3.21926e-05
-1.46804e-06
3.26669e-05
-2.88309e-06
3.29645e-05
-2.40547e-06
3.32056e-05
-1.45175e-06
3.3323e-05
-1.49131e-06
3.3418e-05
-1.43818e-06
3.35046e-05
-1.3864e-06
3.35213e-05
-1.47367e-06
3.3417e-05
-1.16741e-06
3.33557e-05
1.02002e-06
3.34177e-05
2.62418e-06
3.34035e-05
-2.50541e-07
3.32163e-05
-1.98648e-06
3.29522e-05
-1.56136e-06
3.26034e-05
-1.72636e-06
3.20708e-05
-7.8271e-07
3.12864e-05
8.97763e-07
3.03496e-05
2.70593e-06
2.97766e-05
1.9819e-06
2.9752e-05
6.24627e-07
3.01655e-05
9.1788e-07
3.05942e-05
-1.61396e-07
3.06564e-05
-1.52069e-06
3.02993e-05
-3.89875e-07
2.92669e-05
3.30721e-06
2.79274e-05
5.04063e-06
2.74955e-05
1.346e-06
2.79934e-05
-9.79402e-07
2.87064e-05
-1.13029e-06
2.93573e-05
-2.76407e-06
2.96409e-05
-3.07797e-06
2.96681e-05
-1.4682e-06
2.96333e-05
-2.65281e-07
2.93644e-05
6.18461e-07
2.86155e-05
3.05163e-06
2.80379e-05
3.04703e-06
2.81655e-05
5.17419e-07
2.8417e-05
-8.27883e-07
2.83911e-05
-6.19551e-07
2.82314e-05
2.60371e-07
2.80203e-05
6.26698e-07
2.7756e-05
8.82007e-07
2.75458e-05
7.96873e-07
2.71861e-05
1.46584e-06
2.65288e-05
2.33324e-06
2.57855e-05
2.32526e-06
2.50785e-05
2.14653e-06
2.45117e-05
1.69113e-06
2.42462e-05
8.49283e-07
2.40412e-05
7.73713e-07
2.38698e-05
5.87564e-07
2.3768e-05
3.46985e-07
2.37859e-05
2.38144e-07
2.39137e-05
-2.39971e-07
2.40915e-05
-7.14262e-07
2.4306e-05
-9.03326e-07
2.45554e-05
-1.19477e-06
2.46658e-05
-1.24396e-06
2.45638e-05
-6.36619e-07
2.44987e-05
2.17281e-07
2.45929e-05
2.4623e-07
2.4791e-05
-4.66322e-07
2.51156e-05
-1.54742e-06
2.54789e-05
-2.40424e-06
2.57358e-05
-1.99474e-06
2.58174e-05
-1.01631e-06
2.58745e-05
-3.38912e-07
2.60502e-05
1.03224e-07
2.63502e-05
-3.85979e-08
2.66927e-05
-1.5533e-06
2.69371e-05
-2.78254e-06
2.72976e-05
-2.25802e-06
-3.13926e-06
2.78747e-05
4.66298e-05
5.78668e-05
4.1303e-05
1.80294e-05
3.77295e-05
8.82573e-06
3.72429e-05
4.59788e-07
3.74898e-05
-1.83861e-06
3.76263e-05
-1.38291e-06
3.74493e-05
-1.09211e-07
3.7715e-05
-1.64569e-06
3.8305e-05
-2.25018e-06
3.85951e-05
-4.51236e-07
3.86752e-05
4.92542e-07
3.88959e-05
1.24536e-06
3.94963e-05
1.48585e-06
4.03062e-05
2.0657e-07
4.11404e-05
-1.03563e-06
4.18443e-05
-2.17193e-06
4.2192e-05
-3.23079e-06
4.23684e-05
-2.58188e-06
4.25385e-05
-1.62182e-06
4.26074e-05
-1.56017e-06
4.26423e-05
-1.47312e-06
4.26636e-05
-1.40769e-06
4.26214e-05
-1.43149e-06
4.24695e-05
-1.01551e-06
4.24229e-05
1.06665e-06
4.26025e-05
2.4446e-06
4.2616e-05
-2.64085e-07
4.23807e-05
-1.75118e-06
4.20747e-05
-1.25531e-06
4.1647e-05
-1.29864e-06
4.10441e-05
-1.7984e-07
4.01903e-05
1.75159e-06
3.91814e-05
3.7148e-06
3.85084e-05
2.65489e-06
3.83942e-05
7.38836e-07
3.87594e-05
5.52635e-07
3.91875e-05
-5.89409e-07
3.92628e-05
-1.59607e-06
3.89247e-05
-5.17025e-08
3.7968e-05
4.26386e-06
3.66264e-05
6.38224e-06
3.60601e-05
1.91227e-06
3.64532e-05
-1.37249e-06
3.7144e-05
-1.82105e-06
3.77426e-05
-3.36264e-06
3.79477e-05
-3.28312e-06
3.79409e-05
-1.46135e-06
3.78882e-05
-2.12672e-07
3.76034e-05
9.03354e-07
3.68946e-05
3.76038e-06
3.63502e-05
3.59146e-06
3.64567e-05
4.10866e-07
3.66805e-05
-1.05169e-06
3.6634e-05
-5.72976e-07
3.6456e-05
4.38289e-07
3.62133e-05
8.69442e-07
3.59309e-05
1.16437e-06
3.57042e-05
1.02362e-06
3.53536e-05
1.81639e-06
3.47201e-05
2.96674e-06
3.39696e-05
3.07578e-06
3.32419e-05
2.87429e-06
3.26459e-05
2.28709e-06
3.23419e-05
1.15332e-06
3.21003e-05
1.01531e-06
3.18889e-05
7.98975e-07
3.17372e-05
4.98631e-07
3.17388e-05
2.36578e-07
3.18528e-05
-3.53997e-07
3.20104e-05
-8.71907e-07
3.22233e-05
-1.11616e-06
3.2459e-05
-1.43047e-06
3.25276e-05
-1.31263e-06
3.23891e-05
-4.98084e-07
3.23347e-05
2.71715e-07
3.24629e-05
1.17997e-07
3.26715e-05
-6.74928e-07
3.29326e-05
-1.80855e-06
3.31594e-05
-2.63104e-06
3.33138e-05
-2.14912e-06
3.34102e-05
-1.11266e-06
3.35621e-05
-4.90886e-07
3.38807e-05
-2.15399e-07
3.4303e-05
-4.60896e-07
3.46326e-05
-1.88294e-06
3.48697e-05
-3.01963e-06
3.51903e-05
-2.5786e-06
-3.65887e-06
3.57099e-05
6.03988e-05
6.2959e-05
5.45218e-05
2.39063e-05
5.02702e-05
1.30773e-05
4.93151e-05
1.41496e-06
4.93127e-05
-1.83627e-06
4.93112e-05
-1.38141e-06
4.90643e-05
1.37672e-07
4.91479e-05
-1.72926e-06
4.95834e-05
-2.68571e-06
4.98607e-05
-7.28483e-07
4.99587e-05
3.94574e-07
5.02167e-05
9.87347e-07
5.0864e-05
8.38531e-07
5.16464e-05
-5.75845e-07
5.23762e-05
-1.7654e-06
5.29733e-05
-2.76905e-06
5.32601e-05
-3.51762e-06
5.3386e-05
-2.70778e-06
5.35089e-05
-1.74464e-06
5.3554e-05
-1.60527e-06
5.35565e-05
-1.47563e-06
5.35426e-05
-1.39378e-06
5.34675e-05
-1.35644e-06
5.32856e-05
-8.3357e-07
5.32294e-05
1.12281e-06
5.34465e-05
2.22753e-06
5.34927e-05
-3.10334e-07
5.32834e-05
-1.54182e-06
5.29837e-05
-9.5565e-07
5.25207e-05
-8.35646e-07
5.18803e-05
4.60539e-07
5.09846e-05
2.64737e-06
4.99237e-05
4.77571e-06
4.91552e-05
3.42334e-06
4.89315e-05
9.6253e-07
4.92038e-05
2.8039e-07
4.95884e-05
-9.7404e-07
4.96641e-05
-1.67177e-06
4.93401e-05
2.72301e-07
4.84827e-05
5.12126e-06
4.72127e-05
7.65219e-06
4.65505e-05
2.5745e-06
4.68163e-05
-1.6383e-06
4.74164e-05
-2.42114e-06
4.79152e-05
-3.8615e-06
4.80507e-05
-3.41858e-06
4.80165e-05
-1.42716e-06
4.79465e-05
-1.42634e-07
4.76469e-05
1.20293e-06
4.69954e-05
4.41183e-06
4.65018e-05
4.08504e-06
4.65641e-05
3.48603e-07
4.6735e-05
-1.22255e-06
4.6672e-05
-5.10036e-07
4.64825e-05
6.2783e-07
4.62173e-05
1.13468e-06
4.59243e-05
1.45733e-06
4.5681e-05
1.26686e-06
4.53435e-05
2.15395e-06
4.47548e-05
3.55541e-06
4.40302e-05
3.80038e-06
4.33161e-05
3.58835e-06
4.27303e-05
2.87288e-06
4.24258e-05
1.45789e-06
4.21826e-05
1.2585e-06
4.19587e-05
1.02289e-06
4.17642e-05
6.9312e-07
4.17195e-05
2.81191e-07
4.179e-05
-4.24446e-07
4.18995e-05
-9.81453e-07
4.20721e-05
-1.28873e-06
4.22553e-05
-1.61366e-06
4.22807e-05
-1.33802e-06
4.21513e-05
-3.68694e-07
4.21235e-05
2.9952e-07
4.22706e-05
-2.9102e-08
4.24802e-05
-8.84523e-07
4.26725e-05
-2.00093e-06
4.27837e-05
-2.74224e-06
4.28696e-05
-2.23507e-06
4.30026e-05
-1.24559e-06
4.3236e-05
-7.24295e-07
4.36334e-05
-6.12833e-07
4.41242e-05
-9.51745e-07
4.4467e-05
-2.22572e-06
4.46823e-05
-3.23494e-06
4.50109e-05
-2.90718e-06
-4.18799e-06
4.554e-05
7.66562e-05
6.71162e-05
7.06635e-05
2.9899e-05
6.59137e-05
1.78271e-05
6.43808e-05
2.9478e-06
6.4025e-05
-1.48045e-06
6.38046e-05
-1.16104e-06
6.33976e-05
5.44734e-07
6.32091e-05
-1.54079e-06
6.3351e-05
-2.82764e-06
6.35026e-05
-8.80022e-07
6.36035e-05
2.93632e-07
6.38872e-05
7.03678e-07
6.44951e-05
2.30618e-07
6.51541e-05
-1.23481e-06
6.57499e-05
-2.36125e-06
6.62529e-05
-3.27201e-06
6.65075e-05
-3.77225e-06
6.66069e-05
-2.80721e-06
6.66934e-05
-1.83113e-06
6.67202e-05
-1.63208e-06
6.66997e-05
-1.4551e-06
6.66597e-05
-1.35382e-06
6.65607e-05
-1.25743e-06
6.63574e-05
-6.30265e-07
6.62828e-05
1.19741e-06
6.64996e-05
2.01078e-06
6.65699e-05
-3.80687e-07
6.64042e-05
-1.37606e-06
6.61318e-05
-6.83285e-07
6.56612e-05
-3.65089e-07
6.50022e-05
1.11952e-06
6.40841e-05
3.56549e-06
6.29934e-05
5.8664e-06
6.21424e-05
4.2744e-06
6.17955e-05
1.30937e-06
6.19428e-05
1.33084e-07
6.22479e-05
-1.27913e-06
6.23037e-05
-1.72757e-06
6.19907e-05
5.8536e-07
6.12343e-05
5.87766e-06
6.00922e-05
8.79422e-06
5.9391e-05
3.27571e-06
5.95151e-05
-1.76236e-06
5.99701e-05
-2.87615e-06
6.03406e-05
-4.23199e-06
6.04145e-05
-3.49253e-06
6.03548e-05
-1.36745e-06
6.02649e-05
-5.26919e-08
5.99536e-05
1.51423e-06
5.93732e-05
4.99217e-06
5.89413e-05
4.51697e-06
5.89413e-05
3.48648e-07
5.904e-05
-1.32131e-06
5.89585e-05
-4.28506e-07
5.87617e-05
8.24669e-07
5.84861e-05
1.41023e-06
5.81889e-05
1.75459e-06
5.79318e-05
1.52393e-06
5.7612e-05
2.47372e-06
5.70796e-05
4.08788e-06
5.63987e-05
4.48121e-06
5.5719e-05
4.26807e-06
5.51543e-05
3.43761e-06
5.4858e-05
1.7542e-06
5.46316e-05
1.48484e-06
5.44383e-05
1.21623e-06
5.42453e-05
8.86085e-07
5.41494e-05
3.77049e-07
5.41506e-05
-4.25605e-07
5.41862e-05
-1.01711e-06
5.42775e-05
-1.38002e-06
5.43669e-05
-1.70302e-06
5.43536e-05
-1.32473e-06
5.42703e-05
-2.85404e-07
5.42837e-05
2.86137e-07
5.44345e-05
-1.79941e-07
5.46268e-05
-1.0768e-06
5.47684e-05
-2.14257e-06
5.48247e-05
-2.79852e-06
5.49011e-05
-2.31145e-06
5.50839e-05
-1.42843e-06
5.53705e-05
-1.01092e-06
5.57756e-05
-1.01793e-06
5.62622e-05
-1.43834e-06
5.66293e-05
-2.59289e-06
5.68614e-05
-3.46705e-06
5.72573e-05
-3.30309e-06
-4.76468e-06
5.7834e-05
9.58076e-05
7.02956e-05
9.00855e-05
3.56211e-05
8.50528e-05
2.28597e-05
8.28844e-05
5.11628e-06
8.20437e-05
-6.39731e-07
8.14789e-05
-5.96261e-07
8.08086e-05
1.21501e-06
8.03004e-05
-1.03265e-06
8.0104e-05
-2.6312e-06
8.00591e-05
-8.35098e-07
8.01048e-05
2.47905e-07
8.03607e-05
4.47829e-07
8.08751e-05
-2.83848e-07
8.14043e-05
-1.76393e-06
8.18912e-05
-2.84817e-06
8.2313e-05
-3.69386e-06
8.25293e-05
-3.98852e-06
8.26015e-05
-2.87938e-06
8.26578e-05
-1.8874e-06
8.26678e-05
-1.64209e-06
8.26297e-05
-1.41704e-06
8.25673e-05
-1.29138e-06
8.24488e-05
-1.13892e-06
8.22313e-05
-4.12779e-07
8.21363e-05
1.29232e-06
8.23302e-05
1.81689e-06
8.24098e-05
-4.60274e-07
8.22832e-05
-1.24939e-06
8.20452e-05
-4.45348e-07
8.15877e-05
9.24307e-08
8.09242e-05
1.78304e-06
8.0001e-05
4.48872e-06
7.89048e-05
6.96254e-06
7.79928e-05
5.18637e-06
7.75237e-05
1.7785e-06
7.7529e-05
1.27773e-07
7.77263e-05
-1.47643e-06
7.77401e-05
-1.74134e-06
7.74349e-05
8.90528e-07
7.67714e-05
6.5412e-06
7.57785e-05
9.7871e-06
7.50873e-05
3.96689e-06
7.50744e-05
-1.74942e-06
7.53577e-05
-3.15943e-06
7.55866e-05
-4.46095e-06
7.55966e-05
-3.50253e-06
7.55069e-05
-1.27768e-06
7.5391e-05
6.31671e-08
7.50748e-05
1.83046e-06
7.45739e-05
5.49307e-06
7.42e-05
4.89082e-06
7.41291e-05
4.19555e-07
7.41451e-05
-1.3373e-06
7.40346e-05
-3.18033e-07
7.38293e-05
1.02996e-06
7.35546e-05
1.68494e-06
7.32591e-05
2.05006e-06
7.29913e-05
1.79173e-06
7.26946e-05
2.77047e-06
7.22214e-05
4.56105e-06
7.15911e-05
5.11154e-06
7.09592e-05
4.89995e-06
7.04251e-05
3.97168e-06
7.01318e-05
2.04752e-06
6.99118e-05
1.70476e-06
6.97582e-05
1.36986e-06
6.96176e-05
1.02667e-06
6.95143e-05
4.80328e-07
6.94488e-05
-3.60065e-07
6.93987e-05
-9.66982e-07
6.93817e-05
-1.36311e-06
6.93619e-05
-1.68322e-06
6.9324e-05
-1.28683e-06
6.93052e-05
-2.66643e-07
6.9374e-05
2.17358e-07
6.95311e-05
-3.36997e-07
6.97057e-05
-1.25146e-06
6.98187e-05
-2.25555e-06
6.98602e-05
-2.84e-06
6.99612e-05
-2.41247e-06
7.01949e-05
-1.66221e-06
7.05173e-05
-1.33326e-06
7.09154e-05
-1.41612e-06
7.138e-05
-1.90292e-06
7.17643e-05
-2.97717e-06
7.20506e-05
-3.75345e-06
7.25454e-05
-3.79787e-06
-5.36258e-06
7.31433e-05
0.000118246
7.25777e-05
0.000113148
4.07188e-05
0.000108081
2.79265e-05
0.00010528
7.91773e-06
0.000103834
8.06582e-07
0.000102826
4.11274e-07
0.000101846
2.19486e-06
0.000101031
-2.17521e-07
0.000100512
-2.11209e-06
0.000100231
-5.5397e-07
0.000100141
3.3757e-07
0.000100291
2.98143e-07
0.000100682
-6.75038e-07
0.0001011
-2.18139e-06
0.000101494
-3.24292e-06
0.000101832
-4.03116e-06
0.000101992
-4.14889e-06
0.000102032
-2.91954e-06
0.000102064
-1.91966e-06
0.000102062
-1.63967e-06
0.000102012
-1.36725e-06
0.00010193
-1.20868e-06
0.000101792
-1.00106e-06
0.000101562
-1.83563e-07
0.000101444
1.41042e-06
0.000101598
1.66298e-06
0.000101671
-5.32512e-07
0.000101573
-1.1514e-06
0.00010137
-2.42662e-07
0.000100939
5.23245e-07
0.000100286
2.43623e-06
9.93769e-05
5.39766e-06
9.82988e-05
8.04063e-06
9.73509e-05
6.13426e-06
9.67736e-05
2.35584e-06
9.66309e-05
2.70504e-07
9.66956e-05
-1.54117e-06
9.66434e-05
-1.68912e-06
9.63388e-05
1.19512e-06
9.57577e-05
7.12228e-06
9.49103e-05
1.06345e-05
9.42538e-05
4.62337e-06
9.41205e-05
-1.61617e-06
9.42343e-05
-3.27322e-06
9.43203e-05
-4.54695e-06
9.42595e-05
-3.44164e-06
9.41333e-05
-1.15153e-06
9.39823e-05
2.1417e-07
9.36672e-05
2.14555e-06
9.32443e-05
5.91601e-06
9.29158e-05
5.21923e-06
9.27774e-05
5.57964e-07
9.27086e-05
-1.26846e-06
9.25593e-05
-1.68772e-07
9.23423e-05
1.24695e-06
9.20749e-05
1.95237e-06
9.17856e-05
2.33941e-06
9.15073e-05
2.07002e-06
9.12315e-05
3.04625e-06
9.0818e-05
4.9745e-06
9.02486e-05
5.681e-06
8.96754e-05
5.4731e-06
8.9186e-05
4.46105e-06
8.89014e-05
2.33211e-06
8.86803e-05
1.92589e-06
8.85436e-05
1.50657e-06
8.84565e-05
1.11371e-06
8.8388e-05
5.48831e-07
8.83048e-05
-2.76884e-07
8.82094e-05
-8.71545e-07
8.81067e-05
-1.26041e-06
8.79973e-05
-1.57382e-06
8.79412e-05
-1.23083e-06
8.79796e-05
-3.05052e-07
8.81148e-05
8.21453e-08
8.83022e-05
-5.24347e-07
8.84832e-05
-1.43249e-06
8.85856e-05
-2.35798e-06
8.86251e-05
-2.87951e-06
8.87535e-05
-2.54083e-06
8.9023e-05
-1.93175e-06
8.93718e-05
-1.68207e-06
8.97832e-05
-1.82759e-06
9.0246e-05
-2.36571e-06
9.06284e-05
-3.35962e-06
9.09694e-05
-4.0944e-06
9.15531e-05
-4.38163e-06
-5.93999e-06
9.21305e-05
0.000144712
7.41017e-05
0.000140427
4.50038e-05
0.000135529
3.28241e-05
0.000132186
1.12605e-05
0.000130106
2.8868e-06
0.000128615
1.9023e-06
0.000127312
3.49738e-06
0.000126198
8.9661e-07
0.000125362
-1.27615e-06
0.000124816
-7.57267e-09
0.000124527
6.26665e-07
0.000124505
3.20217e-07
0.000124749
-9.19123e-07
0.00012506
-2.49291e-06