/*--------------------------------*- C++ -*----------------------------------*\
| =========                 |                                                 |
| \\      /  F ield         | OpenFOAM: The Open Source CFD Toolbox           |
|  \\    /   O peration     | Version:  5.x                                   |
|   \\  /    A nd           | Web:      www.OpenFOAM.org                      |
|    \\/     M anipulation  |                                                 |
\*---------------------------------------------------------------------------*/
FoamFile
{
    version     2.0;
    format      ascii;
    class       volVectorField;
    location    "396";
    object      U;
}
// * * * * * * * * * * * * * * * * * * * * * * * * * * * * * * * * * * * * * //

dimensions      [0 1 -1 0 0 0 0];

internalField   nonuniform List<vector> 
20540
(
(44.1874 -1.85261e-06 0)
(44.2397 0.00509506 0)
(44.1874 -5.90587e-06 0)
(44.2397 0.0150746 0)
(44.1874 -1.07027e-05 0)
(44.2398 0.0252894 0)
(44.1874 -1.63953e-05 0)
(44.2398 0.035351 0)
(44.1874 -2.31073e-05 0)
(44.2398 0.0448952 0)
(44.1874 -3.09373e-05 0)
(44.2398 0.0535393 0)
(44.1875 -3.99446e-05 0)
(44.2399 0.060944 0)
(44.1876 -5.0118e-05 0)
(44.2399 0.0668837 0)
(44.1876 -6.1333e-05 0)
(44.24 0.0712888 0)
(44.1878 -7.33058e-05 0)
(44.2401 0.0742428 0)
(44.1879 -8.55544e-05 0)
(44.2402 0.075927 0)
(44.1881 -9.73823e-05 0)
(44.2404 0.0767021 0)
(44.1883 -0.000107907 0)
(44.2406 0.0767987 0)
(44.1886 -0.000116139 0)
(44.2408 0.0765041 0)
(44.189 -0.000121089 0)
(44.2412 0.0759341 0)
(44.1894 -0.000121878 0)
(44.2416 0.0751125 0)
(44.1899 -0.000117834 0)
(44.242 0.0740417 0)
(44.1905 -0.000108603 0)
(44.2426 0.0727109 0)
(44.1912 -9.42859e-05 0)
(44.2433 0.0710893 0)
(44.192 -7.56334e-05 0)
(44.2441 0.0691254 0)
(44.193 -5.43449e-05 0)
(44.245 0.0667514 0)
(44.1941 -3.34779e-05 0)
(44.2461 0.0638879 0)
(44.1954 -1.80107e-05 0)
(44.2474 0.0604453 0)
(44.1969 -1.55688e-05 0)
(44.2488 0.05632 0)
(44.1986 -3.72917e-05 0)
(44.2504 0.0513922 0)
(44.2004 -9.87389e-05 0)
(44.2521 0.0455231 0)
(44.2023 -0.000220566 0)
(44.2538 0.0385512 0)
(44.2042 -0.000428367 0)
(44.2556 0.0302868 0)
(44.2059 -0.000750457 0)
(44.257 0.0205007 0)
(44.2072 -0.00121105 0)
(44.258 0.00891608 0)
(44.2076 -0.00174411 0)
(44.2578 -0.0033175 0)
(44.2071 -0.00226087 0)
(44.2566 -0.015151 0)
(44.2056 -0.00272434 0)
(44.2544 -0.0269434 0)
(44.2032 -0.00308532 0)
(44.251 -0.03878 0)
(44.1998 -0.00329333 0)
(44.2465 -0.0507936 0)
(44.1957 -0.00331261 0)
(44.2412 -0.0620276 0)
(44.1917 -0.00316634 0)
(44.236 -0.0715429 0)
(44.1879 -0.00291471 0)
(44.2311 -0.0796056 0)
(44.1843 -0.00260562 0)
(44.2266 -0.0864297 0)
(44.1811 -0.00227447 0)
(44.2225 -0.092196 0)
(44.1783 -0.00194572 0)
(44.219 -0.0970611 0)
(44.1758 -0.00163511 0)
(44.2158 -0.101159 0)
(44.1737 -0.00135181 0)
(44.2131 -0.104599 0)
(44.1719 -0.00110049 0)
(44.2108 -0.107481 0)
(44.1703 -0.000883586 0)
(44.2088 -0.109882 0)
(44.1689 -0.00070143 0)
(44.2071 -0.111853 0)
(44.1678 -0.000552155 0)
(44.2056 -0.113428 0)
(44.1668 -0.000432073 0)
(44.2045 -0.114569 0)
(44.166 -0.000335838 0)
(44.2035 -0.115169 0)
(44.1654 -0.000257997 0)
(44.2026 -0.115069 0)
(44.1648 -0.000195147 0)
(44.2019 -0.114047 0)
(44.1644 -0.000145619 0)
(44.2013 -0.112023 0)
(44.164 -0.000107747 0)
(44.2009 -0.108957 0)
(44.1637 -7.93673e-05 0)
(44.2006 -0.104719 0)
(44.1635 -5.83289e-05 0)
(44.2003 -0.0992724 0)
(44.1633 -4.28276e-05 0)
(44.2002 -0.0926024 0)
(44.1632 -3.1429e-05 0)
(44.2 -0.0847187 0)
(44.1631 -2.30267e-05 0)
(44.2 -0.0757657 0)
(44.1631 -1.679e-05 0)
(44.1999 -0.0659663 0)
(44.163 -1.21104e-05 0)
(44.1999 -0.0555885 0)
(44.163 -8.55096e-06 0)
(44.1999 -0.0449226 0)
(44.163 -5.8018e-06 0)
(44.1998 -0.0342533 0)
(44.163 -3.6453e-06 0)
(44.1998 -0.0238481 0)
(44.163 -1.9361e-06 0)
(44.1998 -0.014011 0)
(44.163 -5.93534e-07 0)
(44.1999 -0.00494964 0)
(3.02046 0.00515248 0)
(1.82282 -1.24e-05 0)
(3.21509 -0.000116496 0)
(2.47252 6.85279e-05 0)
(2.16048 6.96108e-05 0)
(2.06604 9.1515e-06 0)
(2.19735 -3.5336e-05 0)
(2.3699 2.71431e-05 0)
(2.10459 4.11955e-05 0)
(2.18973 -3.08003e-07 0)
(2.07945 1.02992e-05 0)
(2.00694 1.31998e-05 0)
(1.72443 2.12762e-05 0)
(1.55588 8.41407e-06 0)
(1.49308 2.95201e-06 0)
(1.46399 -2.44014e-06 0)
(1.50798 -9.45406e-06 0)
(1.6274 -1.00036e-05 0)
(1.66418 -6.5348e-06 0)
(1.71848 -7.38803e-06 0)
(1.77587 -7.85122e-06 0)
(1.82967 -8.30905e-06 0)
(1.88544 -1.02466e-05 0)
(1.9853 -8.9474e-06 0)
(2.06465 5.97856e-06 0)
(1.89543 1.89725e-05 0)
(1.7795 1.382e-09 0)
(1.91341 -1.74534e-05 0)
(2.03861 -1.85828e-05 0)
(2.22805 -5.57936e-05 0)
(2.56145 -0.000139736 0)
(2.97897 -0.000350913 0)
(3.57654 -0.000472413 0)
(3.95793 5.96907e-05 0)
(3.34918 0.00048228 0)
(2.73476 0.000357059 0)
(2.16669 0.000124096 0)
(2.28608 -6.89737e-05 0)
(2.55751 -0.000356001 0)
(3.15731 -0.000566222 0)
(4.2881 -0.000510854 0)
(4.93703 0.000926658 0)
(2.85286 0.000309661 0)
(2.25235 0.000365437 0)
(2.17895 -2.46464e-05 0)
(2.42765 -0.000248277 0)
(2.92722 -0.000183051 0)
(3.02811 -6.51458e-05 0)
(3.10846 -0.000609057 0)
(3.75221 -0.000625548 0)
(4.7401 0.000262821 0)
(3.53322 0.000970158 0)
(2.58724 0.000312689 0)
(2.96666 -0.00072578 0)
(3.61539 -0.000600857 0)
(3.85337 -0.000141863 0)
(4.10579 -0.000130195 0)
(4.1935 6.4282e-05 0)
(3.89271 3.30397e-05 0)
(4.62637 -0.000310774 0)
(5.56973 -0.000503629 0)
(5.98606 -5.81651e-05 0)
(6.20354 0.000120853 0)
(6.22377 0.000489831 0)
(5.93597 0.000613623 0)
(5.8863 0.000380298 0)
(5.89585 0.000364968 0)
(5.76129 0.000751845 0)
(5.37329 0.000309003 0)
(5.11504 -0.00048491 0)
(5.2108 -0.000585813 0)
(4.97065 -0.000821831 0)
(5.07572 -0.0013215 0)
(6.32655 -0.00306741 0)
(7.16594 -0.000248509 0)
(6.29403 0.000586796 0)
(5.51571 0.00028053 0)
(5.33081 0.00118198 0)
(4.32883 -0.00219019 0)
(4.48224 -0.000509313 0)
(5.53109 -0.00497761 0)
(6.20242 -0.00326748 0)
(5.63768 -0.000527338 0)
(5.59122 0.00504053 0)
(5.03336 0.0117603 0)
(3.76611 -0.0065703 0)
(5.81656 -0.00190372 0)
(4.48695 -0.0175569 0)
(8.82576 0.0157325 0)
(5.84014 -1.48422e-05 0)
(7.59217 -0.000445572 0)
(7.26271 0.000409882 0)
(6.92978 0.000281169 0)
(6.62759 7.88388e-06 0)
(7.04886 -0.000307015 0)
(7.6039 0.000162051 0)
(6.75151 0.000247837 0)
(7.02568 1.98206e-05 0)
(6.67074 0.000170092 0)
(6.43784 0.000315458 0)
(5.53053 0.000413952 0)
(4.99019 0.000199865 0)
(4.78938 7.63073e-05 0)
(4.69656 -2.24286e-05 0)
(4.83784 -0.00016447 0)
(5.2211 -0.000159955 0)
(5.33849 -9.96217e-05 0)
(5.51219 -0.000123171 0)
(5.69593 -0.000127072 0)
(5.86826 -0.000130634 0)
(6.04703 -0.00019526 0)
(6.36757 -0.00022752 0)
(6.62269 0.000123809 0)
(6.07811 0.000393437 0)
(5.70699 -3.33526e-05 0)
(6.13757 -0.000383425 0)
(6.53893 -0.000485272 0)
(7.14563 -0.000962166 0)
(8.21427 -0.00161833 0)
(9.55066 -0.00236141 0)
(10.9543 -0.00162334 0)
(10.8035 0.000384879 0)
(10.4531 0.00230543 0)
(8.76859 0.0031757 0)
(6.94856 0.00126736 0)
(7.33577 -0.00104992 0)
(8.20263 -0.00280575 0)
(10.0521 -0.00341707 0)
(9.88178 -0.00178878 0)
(9.61197 0.00208661 0)
(9.06428 0.00545565 0)
(7.2233 0.00272901 0)
(6.99207 -0.000456306 0)
(7.78611 -0.00269435 0)
(9.39046 -0.00241766 0)
(9.71343 -0.00076815 0)
(9.96064 -0.00208386 0)
(10.7337 -0.00311773 0)
(10.2171 0.00148137 0)
(9.50504 0.00566321 0)
(8.28715 0.00105292 0)
(9.25499 -0.00348158 0)
(9.7807 -0.00218159 0)
(9.81751 -0.00103676 0)
(9.80905 -0.000696975 0)
(9.76364 0.000596045 0)
(9.64026 -0.000887694 0)
(9.53877 -0.00414635 0)
(9.66851 -0.00361696 0)
(9.6865 -0.00173347 0)
(9.6485 -0.000560082 0)
(9.57547 0.00168533 0)
(9.37563 0.00218602 0)
(9.24252 0.000536825 0)
(9.21279 0.00100503 0)
(9.09104 0.00364239 0)
(8.8631 0.00408815 0)
(8.87069 0.000458858 0)
(9.02428 6.08747e-05 0)
(9.14438 -0.000370014 0)
(9.41193 -0.0126944 0)
(10.1466 -0.0185514 0)
(10.5432 0.000425438 0)
(10.1611 0.0151878 0)
(9.92841 0.00907736 0)
(9.90167 0.00798852 0)
(10.3037 0.00252111 0)
(11.0555 -0.0159443 0)
(11.3238 -0.0210223 0)
(11.9693 -0.00496701 0)
(11.9975 0.0076243 0)
(11.8261 0.0137294 0)
(11.0276 0.019025 0)
(11.6381 -0.0333211 0)
(14.3186 -0.0219707 0)
(12.891 -0.0646711 0)
(14.743 0.0271657 0)
(10.6588 0.000577285 0)
(11.5934 -0.000893534 0)
(11.7256 0.000490898 0)
(11.8665 0.000257967 0)
(12.0243 -0.000166287 0)
(12.3614 -0.0006163 0)
(12.8829 0.000170746 0)
(12.3584 0.000280977 0)
(12.8181 9.86624e-05 0)
(12.2159 0.000627872 0)
(11.7909 0.00127881 0)
(10.1196 0.00156023 0)
(9.1344 0.000776352 0)
(8.77088 0.000299124 0)
(8.60232 -6.1822e-05 0)
(8.86149 -0.000594642 0)
(9.56666 -0.000562013 0)
(9.7787 -0.000344088 0)
(10.0963 -0.000438509 0)
(10.4323 -0.000447943 0)
(10.7474 -0.000455975 0)
(11.0736 -0.000723723 0)
(11.6629 -0.000897335 0)
(12.1359 0.000470403 0)
(11.1208 0.00149302 0)
(10.4437 -0.000162536 0)
(11.2426 -0.00147246 0)
(11.9748 -0.0019209 0)
(13.0812 -0.00353421 0)
(15.0387 -0.00493311 0)
(16.5166 -0.00438624 0)
(16.8206 -0.00166203 0)
(15.9836 0.00108378 0)
(16.127 0.00357017 0)
(15.3304 0.00748261 0)
(12.6632 0.0034448 0)
(13.4346 -0.00386127 0)
(15.0048 -0.00604358 0)
(15.9163 -0.00349833 0)
(14.4018 9.57133e-05 0)
(13.4682 0.0028962 0)
(14.2957 0.00718071 0)
(13.1479 0.00518713 0)
(12.7903 -0.00184958 0)
(14.2419 -0.00778347 0)
(15.966 -0.00594634 0)
(16.2598 -0.00160644 0)
(16.3935 -0.00278813 0)
(16.1698 -0.00134583 0)
(14.6922 0.0046211 0)
(14.352 0.00827778 0)
(14.1168 0.00125064 0)
(14.7123 -0.00575857 0)
(14.7268 -0.00291992 0)
(14.6068 -0.000763883 0)
(14.4294 -0.000193837 0)
(14.2467 0.00118413 0)
(14.2032 0.000433734 0)
(13.5575 -0.00273864 0)
(13.093 -0.00282633 0)
(12.7775 -0.000907702 0)
(12.5219 0.000279814 0)
(12.3645 0.00292015 0)
(12.231 0.00381345 0)
(12.0481 0.0015788 0)
(11.9919 0.0018442 0)
(11.8956 0.0053973 0)
(11.7713 0.00469344 0)
(11.9461 -0.00122699 0)
(12.1254 -0.00254379 0)
(12.4334 -0.00434916 0)
(12.8007 -0.019626 0)
(13.1968 -0.0252109 0)
(13.3128 0.000620754 0)
(13.174 0.0186029 0)
(13.1931 0.009328 0)
(13.3376 0.00105102 0)
(14.24 -0.0140724 0)
(15.1373 -0.0286803 0)
(15.3294 -0.0300229 0)
(15.6712 -0.0111124 0)
(15.7974 0.0101859 0)
(15.4775 0.0233688 0)
(15.1539 0.0120289 0)
(16.7515 -0.0758069 0)
(17.8976 -0.0426093 0)
(17.8097 -0.073874 0)
(20.5535 0.0389053 0)
(16.3706 0.00222768 0)
(15.5139 -0.000998957 0)
(15.7456 0.000263375 0)
(16.1304 -4.15712e-05 0)
(16.9209 -0.000485993 0)
(16.9697 -0.000941937 0)
(17.1459 -7.36052e-05 0)
(17.7851 0.000124557 0)
(17.9947 0.000212762 0)
(17.6252 0.00102573 0)
(17.3448 0.00250686 0)
(15.6178 0.00354639 0)
(14.1155 0.00204844 0)
(13.5726 0.00086114 0)
(13.316 -7.20335e-05 0)
(13.7196 -0.00152039 0)
(14.829 -0.00142118 0)
(15.1433 -0.000842608 0)
(15.6357 -0.00112751 0)
(16.1559 -0.00114929 0)
(16.6423 -0.00116 0)
(17.1415 -0.00185501 0)
(18.0662 -0.00240435 0)
(18.8265 0.00133074 0)
(17.1638 0.00391566 0)
(16.1242 -0.000481677 0)
(17.4182 -0.00392438 0)
(18.5382 -0.00515202 0)
(20.2347 -0.00714 0)
(21.3679 -0.00740549 0)
(21.6375 -0.0052763 0)
(20.9745 -0.000335165 0)
(19.9538 0.00212959 0)
(20.0777 0.00404748 0)
(20.1521 0.0101068 0)
(19.3265 0.00473019 0)
(19.8329 -0.0059794 0)
(20.6364 -0.00818295 0)
(20.0964 -0.000935351 0)
(18.2456 0.00515542 0)
(17.0132 0.0030706 0)
(18.0525 0.00599906 0)
(18.2972 0.00612485 0)
(18.5417 -0.00485942 0)
(19.8355 -0.0133898 0)
(20.5856 -0.00910406 0)
(20.7348 -0.00243686 0)
(20.7504 -0.00208217 0)
(20.1486 0.00373694 0)
(18.4968 0.00937476 0)
(18.2736 0.00885026 0)
(18.6 -0.000253914 0)
(18.8141 -0.00687563 0)
(18.6882 -0.00224227 0)
(18.5274 0.000363559 0)
(18.3108 0.00123796 0)
(18.0371 0.00215917 0)
(17.9495 0.00336656 0)
(17.1485 0.0023939 0)
(16.3953 0.00131268 0)
(15.8237 0.00225971 0)
(15.381 0.00264621 0)
(15.1459 0.00462242 0)
(15.0349 0.00585445 0)
(14.8345 0.00336591 0)
(14.7594 0.00288894 0)
(14.6964 0.00663418 0)
(14.6345 0.00356537 0)
(14.8675 -0.00460762 0)
(15.0516 -0.00728125 0)
(15.3981 -0.0112344 0)
(15.8003 -0.0259794 0)
(16.0222 -0.0283339 0)
(16.0081 0.001175 0)
(15.9345 0.01832 0)
(16.0291 0.00556882 0)
(16.285 -0.0138669 0)
(17.1725 -0.0383838 0)
(18.0278 -0.0437233 0)
(18.3258 -0.0363632 0)
(18.4324 -0.0156385 0)
(18.4788 0.0133193 0)
(18.1754 0.0299484 0)
(18.2769 -0.0113999 0)
(19.5933 -0.117303 0)
(20.0039 -0.0646555 0)
(20.6554 -0.0900037 0)
(26.0186 0.0504548 0)
(22.312 0.00537897 0)
(19.3574 -0.000119491 0)
(19.4384 -7.879e-05 0)
(19.8444 -0.000768225 0)
(20.7345 -0.000978012 0)
(20.7039 -0.000977046 0)
(20.6661 -0.000654261 0)
(21.8097 -0.000585969 0)
(21.8627 0.000264206 0)
(21.7853 0.00136569 0)
(21.7131 0.00343308 0)
(21.1029 0.00529559 0)
(20.047 0.00362214 0)
(19.344 0.00193437 0)
(18.9894 -1.22754e-05 0)
(19.5762 -0.00322878 0)
(21.2288 -0.00320085 0)
(21.6231 -0.00183375 0)
(22.3339 -0.00255732 0)
(23.0788 -0.00267372 0)
(23.7697 -0.00273689 0)
(24.4611 -0.00357045 0)
(25.1484 -0.00373181 0)
(25.4348 0.0024011 0)
(24.2893 0.00742383 0)
(22.8405 -0.000757872 0)
(24.5483 -0.00702276 0)
(24.9459 -0.00703845 0)
(25.599 -0.00936124 0)
(25.593 -0.00829928 0)
(25.1774 -0.00391498 0)
(24.2627 0.00263555 0)
(23.2254 0.00368705 0)
(23.2283 0.0035912 0)
(23.4629 0.0102603 0)
(23.9705 0.00457719 0)
(24.1623 -0.00800907 0)
(24.2696 -0.00769928 0)
(23.413 0.00438593 0)
(21.5888 0.0119658 0)
(20.2708 0.00358845 0)
(21.1406 0.00266341 0)
(21.8381 0.00378301 0)
(22.5363 -0.00888508 0)
(23.4488 -0.0176014 0)
(23.7409 -0.0107521 0)
(23.8075 -0.00262265 0)
(23.785 -0.000186622 0)
(23.1886 0.0104201 0)
(21.6941 0.0148339 0)
(21.5279 0.00802261 0)
(21.9604 -0.00226515 0)
(22.1202 -0.00690866 0)
(21.9672 -0.0010397 0)
(21.8055 0.00188091 0)
(21.5766 0.0033141 0)
(21.2675 0.0037683 0)
(21.1322 0.00727026 0)
(20.3517 0.0095785 0)
(19.5079 0.00811116 0)
(18.7787 0.00787472 0)
(18.1865 0.00678239 0)
(17.8863 0.00711056 0)
(17.7562 0.00834959 0)
(17.5591 0.00571831 0)
(17.4649 0.00404034 0)
(17.4262 0.00724837 0)
(17.4243 0.00133461 0)
(17.6562 -0.00898526 0)
(17.8377 -0.0129489 0)
(18.1505 -0.0193991 0)
(18.527 -0.0322725 0)
(18.6423 -0.0293719 0)
(18.5654 0.0025755 0)
(18.5094 0.0171148 0)
(18.6401 -0.000380314 0)
(18.9257 -0.0311432 0)
(19.6661 -0.0641683 0)
(20.3838 -0.0620012 0)
(20.7081 -0.0422597 0)
(20.6887 -0.0166217 0)
(20.6826 0.0171564 0)
(20.544 0.030383 0)
(20.8293 -0.040284 0)
(21.7073 -0.145556 0)
(21.8262 -0.0911778 0)
(22.7649 -0.128017 0)
(30.9096 0.0613406 0)
(27.3562 0.00991141 0)
(23.0813 0.00216432 0)
(22.8711 -0.000318851 0)
(23.2142 -0.00162258 0)
(23.9726 -0.00152177 0)
(23.9186 -0.000859716 0)
(23.7757 -0.00148486 0)
(24.8942 -0.00155498 0)
(25.0285 0.000189638 0)
(25.0865 0.00138447 0)
(25.0697 0.0037156 0)
(25.1772 0.00596679 0)
(25.2172 0.0040549 0)
(25.3937 0.00155861 0)
(25.7801 -0.00126691 0)
(26.6157 -0.00537488 0)
(27.5323 -0.00504927 0)
(28.0161 -0.00304621 0)
(28.3663 -0.00360922 0)
(28.6915 -0.0036981 0)
(28.9959 -0.00373599 0)
(29.2873 -0.00457922 0)
(29.408 -0.00444508 0)
(29.3235 0.00314633 0)
(29.0904 0.00942145 0)
(28.6424 -0.000825891 0)
(29.0925 -0.00837782 0)
(28.9169 -0.00805811 0)
(28.8331 -0.00948371 0)
(28.5016 -0.00689423 0)
(27.9099 -0.00109783 0)
(26.9687 0.00645009 0)
(25.9861 0.00578035 0)
(25.8727 0.00314076 0)
(26.0852 0.00828714 0)
(26.7848 0.0025651 0)
(26.9659 -0.0083251 0)
(26.9175 -0.00560821 0)
(26.1543 0.0109354 0)
(24.5218 0.0198295 0)
(23.2389 0.00500541 0)
(23.8366 -0.00146923 0)
(24.5485 -0.0006259 0)
(25.342 -0.0134577 0)
(26.0263 -0.0204491 0)
(26.1667 -0.011429 0)
(26.1848 -0.00259448 0)
(26.1388 0.00196507 0)
(25.6195 0.0174406 0)
(24.3842 0.0204496 0)
(24.2384 0.00680867 0)
(24.6653 -0.00462839 0)
(24.8106 -0.00675833 0)
(24.652 0.000385638 0)
(24.497 0.00370766 0)
(24.2533 0.00586631 0)
(23.9582 0.00591861 0)
(23.8128 0.0117127 0)
(23.1424 0.0178355 0)
(22.3294 0.0168402 0)
(21.5684 0.0157779 0)
(20.8969 0.0128354 0)
(20.5475 0.0109119 0)
(20.3742 0.011632 0)
(20.1875 0.0087085 0)
(20.0681 0.00549957 0)
(20.034 0.00720977 0)
(20.0853 -0.00170126 0)
(20.293 -0.0140508 0)
(20.4746 -0.0192502 0)
(20.7391 -0.0280572 0)
(21.0524 -0.0380447 0)
(21.0887 -0.028588 0)
(20.958 0.00471732 0)
(20.9411 0.0152339 0)
(21.0873 -0.00774879 0)
(21.3536 -0.0484086 0)
(21.9157 -0.0883832 0)
(22.4397 -0.080338 0)
(22.704 -0.047617 0)
(22.6489 -0.0161693 0)
(22.6846 0.0181406 0)
(22.7363 0.0233528 0)
(23.0678 -0.066658 0)
(23.6129 -0.166578 0)
(23.6951 -0.121184 0)
(24.444 -0.171474 0)
(35.0419 0.0713252 0)
(31.4408 0.0158653 0)
(26.6361 0.00589652 0)
(26.0929 -0.000278156 0)
(26.3328 -0.00241286 0)
(26.8612 -0.00200947 0)
(26.7971 -0.000654361 0)
(26.6098 -0.0022953 0)
(27.4995 -0.00270666 0)
(27.7621 -0.000116471 0)
(27.8838 0.00128789 0)
(27.8766 0.00345012 0)
(28.193 0.00534393 0)
(28.6974 0.00327751 0)
(29.4058 0.000507802 0)
(30.165 -0.00285888 0)
(30.8417 -0.00720597 0)
(31.0724 -0.00632245 0)
(31.4036 -0.00389947 0)
(31.5331 -0.00433943 0)
(31.6269 -0.00435683 0)
(31.7131 -0.00435122 0)
(31.7911 -0.00490529 0)
(31.7473 -0.00422527 0)
(31.5955 0.00354096 0)
(31.6274 0.00989787 0)
(31.7115 -0.000976053 0)
(31.6052 -0.00833357 0)
(31.3589 -0.00705871 0)
(31.1044 -0.00818207 0)
(30.7009 -0.00465555 0)
(30.0988 0.00236972 0)
(29.2193 0.0107547 0)
(28.3223 0.00839127 0)
(28.1206 0.0030456 0)
(28.2702 0.00588903 0)
(28.8947 0.000203704 0)
(29.0913 -0.00857558 0)
(29.0181 -0.00331642 0)
(28.4247 0.0175742 0)
(27.0743 0.0283616 0)
(25.879 0.00746084 0)
(26.2297 -0.0053298 0)
(26.8216 -0.00575162 0)
(27.5746 -0.0183788 0)
(28.0622 -0.0228421 0)
(28.1197 -0.0117314 0)
(28.1136 -0.00238008 0)
(28.0555 0.00425055 0)
(27.6133 0.0243243 0)
(26.6417 0.0259349 0)
(26.5017 0.0055349 0)
(26.8791 -0.00716425 0)
(26.984 -0.00657067 0)
(26.8321 0.00198927 0)
(26.6807 0.00587907 0)
(26.4348 0.00877471 0)
(26.1786 0.00839083 0)
(26.0363 0.0162784 0)
(25.5048 0.0264154 0)
(24.7911 0.0266652 0)
(24.0962 0.0252855 0)
(23.4501 0.020529 0)
(23.089 0.0162602 0)
(22.8746 0.0160212 0)
(22.698 0.0125982 0)
(22.5498 0.00771137 0)
(22.502 0.0067128 0)
(22.579 -0.00531489 0)
(22.7446 -0.0194316 0)
(22.9161 -0.0260494 0)
(23.1466 -0.0368053 0)
(23.3924 -0.0427164 0)
(23.3655 -0.0257496 0)
(23.1971 0.00727423 0)
(23.2321 0.0120956 0)
(23.3776 -0.0161202 0)
(23.6047 -0.0642355 0)
(23.9896 -0.108331 0)
(24.3045 -0.0955308 0)
(24.4759 -0.0523724 0)
(24.4562 -0.0172779 0)
(24.5837 0.0119706 0)
(24.7902 0.00786744 0)
(25.13 -0.0900101 0)
(25.4566 -0.1833 0)
(25.636 -0.150925 0)
(26.013 -0.215564 0)
(38.3115 0.0803767 0)
(34.806 0.0233031 0)
(29.999 0.0109304 0)
(29.1321 0.000221973 0)
(29.22 -0.0029953 0)
(29.5149 -0.00236537 0)
(29.4406 -0.000390772 0)
(29.2396 -0.00294313 0)
(29.8423 -0.00391075 0)
(30.1693 -0.00064718 0)
(30.3002 0.00112538 0)
(30.2972 0.0029778 0)
(30.6395 0.00406876 0)
(31.2333 0.00143517 0)
(31.9071 -0.00155263 0)
(32.5413 -0.00469483 0)
(33.0131 -0.00813255 0)
(33.0934 -0.00687777 0)
(33.2871 -0.0043989 0)
(33.362 -0.00452842 0)
(33.3959 -0.0044814 0)
(33.4169 -0.00446623 0)
(33.4294 -0.00480707 0)
(33.3526 -0.00373333 0)
(33.193 0.00371359 0)
(33.2748 0.00935712 0)
(33.472 -0.000983345 0)
(33.3037 -0.00741982 0)
(33.1037 -0.00575751 0)
(32.8252 -0.0064196 0)
(32.4359 -0.00206787 0)
(31.8838 0.00618685 0)
(31.1024 0.0154318 0)
(30.3022 0.0115029 0)
(30.0383 0.00340773 0)
(30.1178 0.00373097 0)
(30.6024 -0.00222556 0)
(30.7944 -0.00895689 0)
(30.7257 -0.001188 0)
(30.2723 0.0237582 0)
(29.2368 0.0370742 0)
(28.1667 0.0108718 0)
(28.3296 -0.00843494 0)
(28.7807 -0.0109068 0)
(29.4051 -0.0231006 0)
(29.726 -0.0247179 0)
(29.7319 -0.0117868 0)
(29.7144 -0.00200488 0)
(29.6513 0.00664586 0)
(29.276 0.0308421 0)
(28.5431 0.0311388 0)
(28.4104 0.00439621 0)
(28.7076 -0.00957902 0)
(28.7659 -0.00622804 0)
(28.6355 0.0038065 0)
(28.4868 0.00842701 0)
(28.2576 0.011965 0)
(28.0429 0.0110495 0)
(27.9031 0.020725 0)
(27.4995 0.0348097 0)
(26.911 0.0368148 0)
(26.3242 0.0354862 0)
(25.77 0.0291244 0)
(25.4502 0.0227975 0)
(25.2307 0.0214175 0)
(25.0686 0.0175396 0)
(24.9004 0.0111729 0)
(24.828 0.00639565 0)
(24.8977 -0.00898331 0)
(25.0085 -0.0246781 0)
(25.144 -0.0330128 0)
(25.3374 -0.0451114 0)
(25.518 -0.0459124 0)
(25.4542 -0.0212114 0)
(25.2968 0.0097674 0)
(25.3582 0.00749518 0)
(25.5014 -0.0251948 0)
(25.683 -0.0775369 0)
(25.9103 -0.122242 0)
(26.0502 -0.10587 0)
(26.1489 -0.0570701 0)
(26.1942 -0.0227486 0)
(26.386 -0.00283534 0)
(26.6935 -0.0157817 0)
(27.0302 -0.112175 0)
(27.2287 -0.198313 0)
(27.4403 -0.175434 0)
(27.6025 -0.258663 0)
(40.7164 0.0883191 0)
(37.5593 0.0318321 0)
(33.14 0.0171342 0)
(31.9902 0.00138147 0)
(31.8849 -0.00323503 0)
(31.9831 -0.00251686 0)
(31.8863 -2.64421e-05 0)
(31.6652 -0.00328719 0)
(31.9849 -0.00493746 0)
(32.2309 -0.00125128 0)
(32.3461 0.000906007 0)
(32.3597 0.00240721 0)
(32.6746 0.00257207 0)
(33.1943 -0.000529983 0)
(33.6885 -0.00352419 0)
(34.1403 -0.00635689 0)
(34.4644 -0.00893118 0)
(34.5169 -0.00725871 0)
(34.6262 -0.00479585 0)
(34.677 -0.00466759 0)
(34.6855 -0.00451128 0)
(34.6805 -0.0044517 0)
(34.6676 -0.00458649 0)
(34.5847 -0.00313978 0)
(34.4333 0.00387701 0)
(34.5075 0.00856415 0)
(34.7118 -0.00109542 0)
(34.5745 -0.00647296 0)
(34.4404 -0.00446673 0)
(34.1882 -0.00447171 0)
(33.8428 0.000719044 0)
(33.3614 0.0102395 0)
(32.6862 0.0203956 0)
(31.9866 0.0150968 0)
(31.6839 0.00429574 0)
(31.692 0.00202794 0)
(32.0298 -0.00448979 0)
(32.1939 -0.0094064 0)
(32.1324 0.000765968 0)
(31.7804 0.0293102 0)
(31.0286 0.0454518 0)
(30.1336 0.0150298 0)
(30.157 -0.0106386 0)
(30.4761 -0.0155539 0)
(30.9281 -0.0271836 0)
(31.1286 -0.0260285 0)
(31.1072 -0.0116137 0)
(31.083 -0.00149113 0)
(31.0182 0.00916729 0)
(30.702 0.0369016 0)
(30.1738 0.0359401 0)
(30.0536 0.00358448 0)
(30.2544 -0.0115642 0)
(30.2785 -0.00567863 0)
(30.1725 0.00579149 0)
(30.0329 0.0112872 0)
(29.8312 0.0153301 0)
(29.6518 0.0138873 0)
(29.5175 0.0250198 0)
(29.2186 0.0427307 0)
(28.755 0.0467929 0)
(28.281 0.0456653 0)
(27.8296 0.0378416 0)
(27.5706 0.0298281 0)
(27.3848 0.0272496 0)
(27.2526 0.0230354 0)
(27.0963 0.0159238 0)
(26.9985 0.0071626 0)
(27.0335 -0.0117166 0)
(27.0922 -0.0289103 0)
(27.1745 -0.0393384 0)
(27.3113 -0.0521949 0)
(27.4173 -0.0475645 0)
(27.3518 -0.0160945 0)
(27.2435 0.0115814 0)
(27.3058 0.00183673 0)
(27.4388 -0.0343293 0)
(27.5761 -0.0878556 0)
(27.6896 -0.13028 0)
(27.7316 -0.111842 0)
(27.796 -0.062898 0)
(27.8942 -0.0334772 0)
(28.0979 -0.0239671 0)
(28.4088 -0.0443336 0)
(28.7198 -0.134564 0)
(28.8708 -0.21362 0)
(29.0347 -0.197948 0)
(29.1615 -0.298498 0)
(42.3527 0.094891 0)
(39.7538 0.0408893 0)
(35.9732 0.0243206 0)
(34.6213 0.00341703 0)
(34.3142 -0.00295428 0)
(34.2358 -0.00233508 0)
(34.0795 0.000570094 0)
(33.8018 -0.0031678 0)
(33.8717 -0.00551042 0)
(33.9537 -0.00170735 0)
(34.0336 0.000678131 0)
(34.0627 0.00179058 0)
(34.3328 0.00111014 0)
(34.7116 -0.00225394 0)
(35.0393 -0.00515834 0)
(35.3499 -0.00775267 0)
(35.5795 -0.00963319 0)
(35.626 -0.00754982 0)
(35.6854 -0.00508709 0)
(35.719 -0.00476514 0)
(35.7149 -0.00447367 0)
(35.6972 -0.00435441 0)
(35.6723 -0.0042913 0)
(35.5924 -0.00247676 0)
(35.4557 0.00409955 0)
(35.5086 0.0077363 0)
(35.6853 -0.00132196 0)
(35.5898 -0.00570851 0)
(35.5074 -0.00328157 0)
(35.3001 -0.00246074 0)
(35.0056 0.00361638 0)
(34.5968 0.0144288 0)
(34.0256 0.0255433 0)
(33.4282 0.0191322 0)
(33.1097 0.00578445 0)
(33.0531 0.000922757 0)
(33.2618 -0.00640522 0)
(33.3819 -0.00980428 0)
(33.3252 0.00263163 0)
(33.0514 0.0342485 0)
(32.5194 0.0531536 0)
(31.8269 0.019636 0)
(31.7604 -0.0119265 0)
(31.9586 -0.0193165 0)
(32.2422 -0.0303937 0)
(32.3601 -0.0268164 0)
(32.3238 -0.0112274 0)
(32.2946 -0.000827308 0)
(32.2292 0.0118063 0)
(31.9675 0.0423971 0)
(31.6047 0.0402323 0)
(31.4987 0.00329299 0)
(31.6071 -0.0129097 0)
(31.6067 -0.00492377 0)
(31.5185 0.00788116 0)
(31.3958 0.0143366 0)
(31.2255 0.0187781 0)
(31.0758 0.0169102 0)
(30.9521 0.029124 0)
(30.7363 0.0500135 0)
(30.3812 0.0563132 0)
(30.0083 0.0554526 0)
(29.6531 0.0462595 0)
(29.4431 0.0367711 0)
(29.2954 0.0329594 0)
(29.1977 0.0282499 0)
(29.0897 0.0210606 0)
(28.99 0.00926777 0)
(28.983 -0.0125269 0)
(28.9942 -0.0309747 0)
(29.0204 -0.0435229 0)
(29.0879 -0.0567884 0)
(29.1218 -0.0478448 0)
(29.0791 -0.0120657 0)
(29.025 0.0119782 0)
(29.0844 -0.00420232 0)
(29.1926 -0.0428851 0)
(29.2897 -0.0953809 0)
(29.3462 -0.134052 0)
(29.3607 -0.115575 0)
(29.4225 -0.0711682 0)
(29.546 -0.048346 0)
(29.7297 -0.0480576 0)
(29.98 -0.0745723 0)
(30.239 -0.157755 0)
(30.3898 -0.229522 0)
(30.5207 -0.223536 0)
(30.6736 -0.339241 0)
(43.3952 0.100233 0)
(41.419 0.0499051 0)
(38.3674 0.0321189 0)
(36.9327 0.00648782 0)
(36.4327 -0.00191715 0)
(36.1836 -0.00163431 0)
(35.9326 0.00155131 0)
(35.5916 -0.00249922 0)
(35.479 -0.00545491 0)
(35.4171 -0.00183027 0)
(35.4374 0.000517394 0)
(35.4575 0.00119525 0)
(35.6603 -0.000168198 0)
(35.912 -0.00364521 0)
(36.1294 -0.00646702 0)
(36.343 -0.00891034 0)
(36.5038 -0.0102424 0)
(36.5369 -0.00777555 0)
(36.5675 -0.00528514 0)
(36.5868 -0.00481637 0)
(36.577 -0.00438024 0)
(36.5533 -0.00418779 0)
(36.5219 -0.00393011 0)
(36.4493 -0.00175514 0)
(36.3303 0.00439833 0)
(36.3622 0.00696652 0)
(36.4998 -0.0016183 0)
(36.4371 -0.00513774 0)
(36.3873 -0.00224064 0)
(36.2282 -0.000473723 0)
(35.9843 0.00655596 0)
(35.6429 0.0186693 0)
(35.1697 0.0307699 0)
(34.6718 0.0235219 0)
(34.3595 0.00790558 0)
(34.2539 0.000533748 0)
(34.3596 -0.00780068 0)
(34.4297 -0.0100223 0)
(34.3745 0.00445561 0)
(34.1633 0.0386064 0)
(33.7895 0.0599777 0)
(33.2818 0.0243299 0)
(33.174 -0.0122612 0)
(33.2706 -0.0219365 0)
(33.4198 -0.0326051 0)
(33.4768 -0.0271147 0)
(33.4301 -0.0106195 0)
(33.3955 2.61757e-05 0)
(33.3293 0.0145124 0)
(33.1211 0.0472295 0)
(32.881 0.0439786 0)
(32.7859 0.00365427 0)
(32.8227 -0.0134711 0)
(32.8014 -0.00391433 0)
(32.7229 0.0100578 0)
(32.6193 0.0174325 0)
(32.4816 0.0222375 0)
(32.3561 0.0200899 0)
(32.2468 0.0329652 0)
(32.0955 0.0565415 0)
(31.8266 0.0651739 0)
(31.5385 0.0646487 0)
(31.267 0.0542374 0)
(31.0979 0.0434787 0)
(30.9753 0.0383237 0)
(30.9002 0.0326419 0)
(30.8401 0.0253851 0)
(30.775 0.0119914 0)
(30.7461 -0.0113789 0)
(30.7203 -0.0304768 0)
(30.7011 -0.0444173 0)
(30.7018 -0.0578268 0)
(30.6888 -0.0469643 0)
(30.6722 -0.010211 0)
(30.6637 0.0102768 0)
(30.7247 -0.0105787 0)
(30.8099 -0.0508413 0)
(30.8791 -0.100871 0)
(30.9117 -0.135735 0)
(30.9257 -0.1195 0)
(30.9954 -0.0821772 0)
(31.1225 -0.0657324 0)
(31.2814 -0.0723357 0)
(31.4754 -0.104493 0)
(31.6827 -0.181904 0)
(31.8309 -0.247226 0)
(31.9648 -0.255529 0)
(32.1319 -0.383009 0)
(43.9419 0.104088 0)
(42.5761 0.0580927 0)
(40.2473 0.040118 0)
(38.8496 0.0106333 0)
(38.186 6.60701e-05 0)
(37.7862 -0.000241583 0)
(37.4475 0.00303902 0)
(37.0696 -0.00124446 0)
(36.8487 -0.0047358 0)
(36.6889 -0.00150001 0)
(36.6405 0.000557251 0)
(36.6227 0.00074755 0)
(36.7473 -0.00119073 0)
(36.9083 -0.0047433 0)
(37.0531 -0.00752406 0)
(37.1971 -0.00985895 0)
(37.3008 -0.0107332 0)
(37.3162 -0.007928 0)
(37.33 -0.00540938 0)
(37.3398 -0.00482942 0)
(37.3286 -0.00424373 0)
(37.3035 -0.00395253 0)
(37.2683 -0.00350346 0)
(37.2034 -0.000989485 0)
(37.1014 0.00477937 0)
(37.1145 0.00632686 0)
(37.2122 -0.0019172 0)
(37.1707 -0.00471204 0)
(37.1402 -0.00134958 0)
(37.0236 0.00141869 0)
(36.8268 0.00946906 0)
(36.5474 0.0228732 0)
(36.1639 0.0359514 0)
(35.7576 0.028138 0)
(35.4687 0.0106207 0)
(35.3335 0.000929883 0)
(35.3605 -0.0085113 0)
(35.3816 -0.00992418 0)
(35.3242 0.00625074 0)
(35.1616 0.0424092 0)
(34.9 0.0658333 0)
(34.5377 0.0288298 0)
(34.4193 -0.0117015 0)
(34.442 -0.0233066 0)
(34.4976 -0.033733 0)
(34.5076 -0.0268968 0)
(34.4538 -0.00975864 0)
(34.4133 0.00113078 0)
(34.3452 0.0172353 0)
(34.1876 0.0513514 0)
(34.0295 0.0472156 0)
(33.9443 0.00468174 0)
(33.9344 -0.0131744 0)
(33.8948 -0.00256292 0)
(33.8224 0.0123247 0)
(33.7353 0.0204642 0)
(33.6285 0.0256379 0)
(33.522 0.0233941 0)
(33.4274 0.0365377 0)
(33.3219 0.0622487 0)
(33.1228 0.073215 0)
(32.906 0.0730566 0)
(32.7032 0.0616384 0)
(32.5729 0.0499901 0)
(32.4709 0.0435294 0)
(32.4081 0.0362674 0)
(32.3715 0.028421 0)
(32.3434 0.0143996 0)
(32.3195 -0.00924503 0)
(32.2861 -0.0281989 0)
(32.2495 -0.0422818 0)
(32.2081 -0.0552883 0)
(32.1742 -0.044894 0)
(32.1702 -0.0105118 0)
(32.1929 0.00605599 0)
(32.2613 -0.0178826 0)
(32.3378 -0.0585997 0)
(32.3939 -0.105557 0)
(32.4145 -0.137315 0)
(32.4319 -0.124985 0)
(32.503 -0.0954389 0)
(32.6197 -0.0845645 0)
(32.7585 -0.0961959 0)
(32.9211 -0.1331 0)
(33.0897 -0.206542 0)
(33.2141 -0.268766 0)
(33.3621 -0.294889 0)
(33.517 -0.428148 0)
(44.1885 0.106554 0)
(43.3273 0.0650191 0)
(41.6302 0.047973 0)
(40.3551 0.0157239 0)
(39.6009 0.00308572 0)
(39.0921 0.0019618 0)
(38.6968 0.00511976 0)
(38.3038 0.000606825 0)
(38.0214 -0.0033671 0)
(37.7975 -0.000638497 0)
(37.6884 0.000954266 0)
(37.6218 0.000604158 0)
(37.6728 -0.00190246 0)
(37.7686 -0.00559138 0)
(37.8613 -0.0083736 0)
(37.9539 -0.0106022 0)
(38.0136 -0.0110805 0)
(38.0155 -0.00799491 0)
(38.0177 -0.0054654 0)
(38.0213 -0.00480906 0)
(38.0112 -0.00407988 0)
(37.9873 -0.00365874 0)
(37.9509 -0.00301439 0)
(37.8929 -0.000185633 0)
(37.8065 0.0052518 0)
(37.8029 0.00587271 0)
(37.8642 -0.00214708 0)
(37.8341 -0.00436705 0)
(37.8136 -0.000592566 0)
(37.7305 0.00316732 0)
(37.5761 0.0122857 0)
(37.3541 0.0269492 0)
(37.0513 0.0409821 0)
(36.7269 0.0328702 0)
(36.4703 0.0138473 0)
(36.3229 0.0021163 0)
(36.2923 -0.00841735 0)
(36.2692 -0.00936856 0)
(36.2064 0.00807353 0)
(36.079 0.0457338 0)
(35.8964 0.0707679 0)
(35.6428 0.0330448 0)
(35.5268 -0.0103625 0)
(35.5016 -0.0234968 0)
(35.4972 -0.0338057 0)
(35.4729 -0.0261321 0)
(35.4157 -0.00859655 0)
(35.3698 0.00258665 0)
(35.2979 0.0199624 0)
(35.1828 0.0547695 0)
(35.0781 0.0500219 0)
(35.0062 0.00631444 0)
(34.9681 -0.0120314 0)
(34.9156 -0.000803574 0)
(34.8496 0.014716 0)
(34.776 0.0234083 0)
(34.6943 0.0289393 0)
(34.6049 0.0268116 0)
(34.5226 0.0399024 0)
(34.4464 0.0671419 0)
(34.3074 0.0802614 0)
(34.1535 0.0804721 0)
(34.0089 0.0682586 0)
(33.9142 0.0561689 0)
(33.8347 0.0487816 0)
(33.7805 0.0397927 0)
(33.7492 0.0305483 0)
(33.7355 0.0158841 0)
(33.7252 -0.00721946 0)
(33.7068 -0.0254504 0)
(33.6803 -0.0387947 0)
(33.6391 -0.0507582 0)
(33.6024 -0.0420489 0)
(33.5985 -0.0123835 0)
(33.636 -0.000508288 0)