/*--------------------------------*- C++ -*----------------------------------*\
| =========                 |                                                 |
| \\      /  F ield         | OpenFOAM: The Open Source CFD Toolbox           |
|  \\    /   O peration     | Version:  5.x                                   |
|   \\  /    A nd           | Web:      www.OpenFOAM.org                      |
|    \\/     M anipulation  |                                                 |
\*---------------------------------------------------------------------------*/
FoamFile
{
    version     2.0;
    format      ascii;
    class       volVectorField;
    location    "990";
    object      U;
}
// * * * * * * * * * * * * * * * * * * * * * * * * * * * * * * * * * * * * * //

dimensions      [0 1 -1 0 0 0 0];

internalField   nonuniform List<vector> 
20540
(
(44.1647 -8.14023e-07 0)
(44.2268 0.00467567 0)
(44.1647 -2.55501e-06 0)
(44.2268 0.0134778 0)
(44.1648 -4.50353e-06 0)
(44.2267 0.022079 0)
(44.1648 -6.68572e-06 0)
(44.2267 0.0311543 0)
(44.1648 -9.04802e-06 0)
(44.2266 0.040787 0)
(44.1648 -1.14518e-05 0)
(44.2265 0.0509483 0)
(44.1648 -1.36472e-05 0)
(44.2265 0.0615566 0)
(44.1648 -1.52285e-05 0)
(44.2264 0.0724785 0)
(44.1649 -1.55835e-05 0)
(44.2265 0.083511 0)
(44.165 -1.38456e-05 0)
(44.2266 0.0943747 0)
(44.1652 -8.85434e-06 0)
(44.2268 0.104717 0)
(44.1654 8.76334e-07 0)
(44.2272 0.114126 0)
(44.1658 1.71813e-05 0)
(44.2277 0.122157 0)
(44.1662 4.22573e-05 0)
(44.2282 0.128396 0)
(44.1668 7.86608e-05 0)
(44.229 0.132551 0)
(44.1675 0.000129272 0)
(44.2298 0.134614 0)
(44.1684 0.000197183 0)
(44.2309 0.134843 0)
(44.1695 0.000285481 0)
(44.2322 0.133709 0)
(44.1708 0.000396939 0)
(44.2338 0.131688 0)
(44.1723 0.000533653 0)
(44.2356 0.129012 0)
(44.1741 0.00069657 0)
(44.2378 0.125704 0)
(44.1762 0.000884789 0)
(44.2404 0.121691 0)
(44.1787 0.00109455 0)
(44.2434 0.116853 0)
(44.1816 0.00131784 0)
(44.2468 0.111041 0)
(44.1848 0.00154061 0)
(44.2508 0.104078 0)
(44.1884 0.00174055 0)
(44.2552 0.0957554 0)
(44.1924 0.0018848 0)
(44.26 0.0858298 0)
(44.1966 0.00192809 0)
(44.2651 0.0740133 0)
(44.2009 0.00181294 0)
(44.2703 0.0599605 0)
(44.2048 0.0014744 0)
(44.2751 0.043243 0)
(44.2076 0.000945406 0)
(44.2785 0.0255583 0)
(44.2089 0.00032154 0)
(44.2801 0.00840773 0)
(44.2089 -0.000335179 0)
(44.2801 -0.00872412 0)
(44.2076 -0.000957738 0)
(44.2784 -0.0258749 0)
(44.2048 -0.0014783 0)
(44.2751 -0.0432873 0)
(44.201 -0.0018095 0)
(44.2704 -0.0595428 0)
(44.1968 -0.00192915 0)
(44.2654 -0.0732875 0)
(44.1927 -0.0018963 0)
(44.2604 -0.084913 0)
(44.1888 -0.00176402 0)
(44.2557 -0.094737 0)
(44.1853 -0.00157477 0)
(44.2514 -0.103025 0)
(44.1821 -0.00136002 0)
(44.2474 -0.110003 0)
(44.1792 -0.00114159 0)
(44.244 -0.115865 0)
(44.1767 -0.000933669 0)
(44.241 -0.120777 0)
(44.1746 -0.000744695 0)
(44.2384 -0.124881 0)
(44.1727 -0.00057899 0)
(44.2361 -0.128294 0)
(44.1712 -0.000438038 0)
(44.2342 -0.131099 0)
(44.1698 -0.000321435 0)
(44.2326 -0.133317 0)
(44.1687 -0.000227568 0)
(44.2312 -0.134829 0)
(44.1677 -0.000154079 0)
(44.2301 -0.135283 0)
(44.1669 -9.82027e-05 0)
(44.2292 -0.134207 0)
(44.1663 -5.70511e-05 0)
(44.2284 -0.131256 0)
(44.1658 -2.78477e-05 0)
(44.2277 -0.1263 0)
(44.1654 -8.07282e-06 0)
(44.2272 -0.11948 0)
(44.1651 4.47517e-06 0)
(44.2268 -0.111124 0)
(44.1649 1.16634e-05 0)
(44.2265 -0.10163 0)
(44.1648 1.50333e-05 0)
(44.2263 -0.0913933 0)
(44.1647 1.58182e-05 0)
(44.2262 -0.0807751 0)
(44.1646 1.49697e-05 0)
(44.2262 -0.0700764 0)
(44.1646 1.31896e-05 0)
(44.2262 -0.0595328 0)
(44.1646 1.09685e-05 0)
(44.2263 -0.0493127 0)
(44.1645 8.6281e-06 0)
(44.2264 -0.0395256 0)
(44.1645 6.36499e-06 0)
(44.2264 -0.0302372 0)
(44.1645 4.28714e-06 0)
(44.2265 -0.0214647 0)
(44.1645 2.43366e-06 0)
(44.2266 -0.0131081 0)
(44.1645 7.76229e-07 0)
(44.2266 -0.00454748 0)
(7.05384 0.00661016 0)
(5.82063 0.000181729 0)
(5.45911 7.11209e-05 0)
(5.23967 4.90613e-05 0)
(5.08716 3.67029e-05 0)
(4.97425 2.88602e-05 0)
(4.88659 2.36151e-05 0)
(4.81608 1.98919e-05 0)
(4.758 1.70941e-05 0)
(4.70939 1.49129e-05 0)
(4.66815 1.31731e-05 0)
(4.63277 1.17597e-05 0)
(4.60212 1.05932e-05 0)
(4.57537 9.61577e-06 0)
(4.55184 8.78497e-06 0)
(4.53104 8.07072e-06 0)
(4.51255 7.45214e-06 0)
(4.49605 6.91341e-06 0)
(4.48124 6.44103e-06 0)
(4.4679 6.02318e-06 0)
(4.45585 5.65018e-06 0)
(4.44494 5.3149e-06 0)
(4.43502 5.01239e-06 0)
(4.42599 4.73908e-06 0)
(4.41775 4.49204e-06 0)
(4.41021 4.2684e-06 0)
(4.40329 4.06527e-06 0)
(4.39693 3.87975e-06 0)
(4.39107 3.70914e-06 0)
(4.38566 3.55107e-06 0)
(4.38067 3.40352e-06 0)
(4.37606 3.2648e-06 0)
(4.37179 3.13346e-06 0)
(4.36784 3.00812e-06 0)
(4.36419 2.88738e-06 0)
(4.36081 2.76962e-06 0)
(4.35769 2.65291e-06 0)
(4.35481 2.53494e-06 0)
(4.35217 2.41286e-06 0)
(4.34975 2.28323e-06 0)
(4.34755 2.1419e-06 0)
(4.34559 1.98396e-06 0)
(4.34385 1.8036e-06 0)
(4.34236 1.594e-06 0)
(4.34112 1.3472e-06 0)
(4.34016 1.05392e-06 0)
(4.33949 7.02782e-07 0)
(4.33917 2.7526e-07 0)
(4.33922 -2.4154e-07 0)
(4.33969 -8.57817e-07 0)
(4.34064 -1.59169e-06 0)
(4.3421 -2.46063e-06 0)
(4.34415 -3.48397e-06 0)
(4.34684 -4.68479e-06 0)
(4.35024 -6.09148e-06 0)
(4.35443 -7.73929e-06 0)
(4.3595 -9.66832e-06 0)
(4.36554 -1.19248e-05 0)
(4.37268 -1.45505e-05 0)
(4.381 -1.76529e-05 0)
(4.39078 -2.11663e-05 0)
(4.40164 -2.61214e-05 0)
(4.41621 -3.32671e-05 0)
(4.42871 -3.44142e-05 0)
(4.4389 -3.4184e-05 0)
(4.44876 -4.14645e-05 0)
(4.46029 -4.78585e-05 0)
(4.47263 -5.34184e-05 0)
(4.48569 -5.93545e-05 0)
(4.49947 -6.58543e-05 0)
(4.51401 -7.29823e-05 0)
(4.5293 -8.08149e-05 0)
(4.5454 -8.94586e-05 0)
(4.56232 -9.90417e-05 0)
(4.58014 -0.000109729 0)
(4.59889 -0.000121726 0)
(4.61868 -0.000135311 0)
(4.63959 -0.000150859 0)
(4.66177 -0.000168899 0)
(4.68541 -0.000190207 0)
(4.71077 -0.000215986 0)
(4.73821 -0.000248173 0)
(4.7684 -0.00029048 0)
(4.80186 -0.000349523 0)
(4.84229 -0.000452342 0)
(4.88603 -0.000709298 0)
(4.99028 -0.00284414 0)
(5.25901 -0.0259104 0)
(14.1915 0.0148494 0)
(11.7236 0.000886768 0)
(11.039 0.000318796 0)
(10.6533 0.000207583 0)
(10.3921 0.000152785 0)
(10.2007 0.000119559 0)
(10.0528 9.77995e-05 0)
(9.93393 8.25067e-05 0)
(9.83609 7.10462e-05 0)
(9.75417 6.21091e-05 0)
(9.68465 5.49746e-05 0)
(9.62498 4.91732e-05 0)
(9.57327 4.43784e-05 0)
(9.52809 4.03543e-05 0)
(9.48833 3.69279e-05 0)
(9.45316 3.39774e-05 0)
(9.42188 3.14177e-05 0)
(9.39393 2.91844e-05 0)
(9.36885 2.7223e-05 0)
(9.34625 2.54856e-05 0)
(9.32582 2.3933e-05 0)
(9.3073 2.25359e-05 0)
(9.29047 2.12738e-05 0)
(9.27514 2.01321e-05 0)
(9.26113 1.90985e-05 0)
(9.24831 1.81616e-05 0)
(9.23655 1.73095e-05 0)
(9.22573 1.65306e-05 0)
(9.21576 1.58137e-05 0)
(9.20657 1.51489e-05 0)
(9.19807 1.45278e-05 0)
(9.19021 1.3943e-05 0)
(9.18294 1.33884e-05 0)
(9.17622 1.28576e-05 0)
(9.16999 1.23444e-05 0)
(9.16423 1.18413e-05 0)
(9.15891 1.13398e-05 0)
(9.15401 1.0829e-05 0)
(9.14951 1.02959e-05 0)
(9.1454 9.72467e-06 0)
(9.14168 9.09616e-06 0)
(9.13835 8.38754e-06 0)
(9.13543 7.57179e-06 0)
(9.13293 6.61717e-06 0)
(9.13088 5.48653e-06 0)
(9.12933 4.13639e-06 0)
(9.12831 2.51329e-06 0)
(9.12789 5.23292e-07 0)
(9.12816 -1.88925e-06 0)
(9.12918 -4.76352e-06 0)
(9.13105 -8.18732e-06 0)
(9.13387 -1.22427e-05 0)
(9.13774 -1.70196e-05 0)
(9.14278 -2.26254e-05 0)
(9.1491 -2.91921e-05 0)
(9.15687 -3.68848e-05 0)
(9.16622 -4.58875e-05 0)
(9.17736 -5.6426e-05 0)
(9.19048 -6.86431e-05 0)
(9.20575 -8.32581e-05 0)
(9.2237 -9.9013e-05 0)
(9.24357 -0.000124376 0)
(9.27028 -0.000155119 0)
(9.29326 -0.000163573 0)
(9.31231 -0.000165121 0)
(9.3304 -0.000191359 0)
(9.35132 -0.000222292 0)
(9.37381 -0.000248976 0)
(9.39765 -0.000276851 0)
(9.42284 -0.000307137 0)
(9.44938 -0.000340239 0)
(9.47733 -0.000376549 0)
(9.50673 -0.000416546 0)
(9.53765 -0.000460832 0)
(9.57018 -0.000510143 0)
(9.60442 -0.000565434 0)
(9.64053 -0.000627944 0)
(9.67869 -0.000699376 0)
(9.71914 -0.000782093 0)
(9.76223 -0.000879609 0)
(9.80841 -0.000997101 0)
(9.85833 -0.00114393 0)
(9.91315 -0.00133286 0)
(9.97386 -0.00160891 0)
(10.0465 -0.00201385 0)
(10.1263 -0.00326152 0)
(10.2955 -0.00959023 0)
(10.569 -0.0744957 0)
(18.3839 0.0233551 0)
(15.129 0.0020705 0)
(14.222 0.000737036 0)
(13.7338 0.000465197 0)
(13.4098 0.000338557 0)
(13.1749 0.000263686 0)
(12.9943 0.000215277 0)
(12.8497 0.000181496 0)
(12.7309 0.000156269 0)
(12.6315 0.000136627 0)
(12.5473 0.000120961 0)
(12.475 0.000108231 0)
(12.4124 9.77125e-05 0)
(12.3577 8.88847e-05 0)
(12.3096 8.13681e-05 0)
(12.2671 7.48946e-05 0)
(12.2292 6.92771e-05 0)
(12.1954 6.43742e-05 0)
(12.1651 6.00667e-05 0)
(12.1377 5.62505e-05 0)
(12.113 5.28398e-05 0)
(12.0906 4.97704e-05 0)
(12.0702 4.6997e-05 0)
(12.0517 4.4487e-05 0)
(12.0347 4.22139e-05 0)
(12.0192 4.01525e-05 0)
(12.005 3.82771e-05 0)
(11.9919 3.65623e-05 0)
(11.9798 3.49837e-05 0)
(11.9687 3.35198e-05 0)
(11.9584 3.21517e-05 0)
(11.9489 3.08634e-05 0)
(11.9401 2.96404e-05 0)
(11.9319 2.84692e-05 0)
(11.9244 2.7335e-05 0)
(11.9174 2.62213e-05 0)
(11.9109 2.51083e-05 0)
(11.905 2.39715e-05 0)
(11.8996 2.27814e-05 0)
(11.8946 2.15017e-05 0)
(11.8901 2.0089e-05 0)
(11.8861 1.8491e-05 0)
(11.8826 1.66462e-05 0)
(11.8796 1.4482e-05 0)
(11.8771 1.19134e-05 0)
(11.8753 8.84093e-06 0)
(11.8742 5.14179e-06 0)
(11.8737 5.96633e-07 0)
(11.8742 -4.91848e-06 0)
(11.8756 -1.14888e-05 0)
(11.878 -1.93171e-05 0)
(11.8817 -2.85905e-05 0)
(11.8866 -3.95149e-05 0)
(11.893 -5.23352e-05 0)
(11.9011 -6.73529e-05 0)
(11.9109 -8.49451e-05 0)
(11.9227 -0.000105531 0)
(11.9368 -0.000129633 0)
(11.9534 -0.000157546 0)
(11.9726 -0.000191045 0)
(11.9952 -0.000226687 0)
(12.0203 -0.000285997 0)
(12.0538 -0.000352612 0)
(12.0826 -0.000376731 0)
(12.107 -0.000385114 0)
(12.1299 -0.000436899 0)
(12.1562 -0.00050697 0)
(12.1844 -0.000568673 0)
(12.2143 -0.000632627 0)
(12.246 -0.000701837 0)
(12.2793 -0.00077735 0)
(12.3144 -0.000860093 0)
(12.3514 -0.000951145 0)
(12.3902 -0.00105187 0)
(12.431 -0.0011639 0)
(12.474 -0.00128939 0)
(12.5193 -0.00143108 0)
(12.5671 -0.00159276 0)
(12.6178 -0.00177965 0)
(12.6717 -0.00199951 0)
(12.7295 -0.00226363 0)
(12.7918 -0.00259283 0)
(12.8601 -0.00301321 0)
(12.9356 -0.00362928 0)
(13.0251 -0.00449194 0)
(13.124 -0.00712699 0)
(13.3155 -0.0166283 0)
(13.533 -0.0786447 0)
(21.6958 0.0339582 0)
(17.7876 0.00392046 0)
(16.6656 0.00138499 0)
(16.0817 0.00085137 0)
(15.7015 0.000612488 0)
(15.4286 0.000474307 0)
(15.2201 0.000386039 0)
(15.0537 0.000324901 0)
(14.9173 0.000279445 0)
(14.8034 0.000244147 0)
(14.707 0.000216049 0)
(14.6243 0.00019325 0)
(14.5527 0.000174432 0)
(14.4903 0.000158652 0)
(14.4353 0.000145224 0)
(14.3867 0.000133665 0)
(14.3435 0.000123638 0)
(14.3049 0.000114889 0)
(14.2703 0.000107203 0)
(14.2391 0.000100396 0)
(14.2109 9.43133e-05 0)
(14.1853 8.8841e-05 0)
(14.1621 8.3897e-05 0)
(14.1409 7.94228e-05 0)
(14.1216 7.53705e-05 0)
(14.1039 7.16951e-05 0)
(14.0876 6.83512e-05 0)
(14.0727 6.52934e-05 0)
(14.0589 6.24789e-05 0)
(14.0462 5.9869e-05 0)
(14.0344 5.74302e-05 0)
(14.0236 5.51333e-05 0)
(14.0135 5.29525e-05 0)
(14.0042 5.08626e-05 0)
(13.9956 4.88373e-05 0)
(13.9876 4.6846e-05 0)
(13.9803 4.48527e-05 0)
(13.9735 4.28129e-05 0)
(13.9673 4.06727e-05 0)
(13.9616 3.8366e-05 0)
(13.9565 3.58134e-05 0)
(13.9519 3.29198e-05 0)
(13.9479 2.95725e-05 0)
(13.9445 2.5639e-05 0)
(13.9418 2.0964e-05 0)
(13.9397 1.53655e-05 0)
(13.9384 8.61807e-06 0)
(13.938 3.15334e-07 0)
(13.9386 -9.76777e-06 0)
(13.9403 -2.17809e-05 0)
(13.9432 -3.6095e-05 0)
(13.9476 -5.30528e-05 0)
(13.9534 -7.30317e-05 0)
(13.9609 -9.64793e-05 0)
(13.9704 -0.000123947 0)
(13.9819 -0.000156125 0)
(13.9957 -0.000193778 0)
(14.0122 -0.000237872 0)
(14.0316 -0.00028892 0)
(14.0541 -0.000350273 0)
(14.0805 -0.000415191 0)
(14.1097 -0.000524654 0)
(14.1487 -0.000642421 0)
(14.182 -0.000692697 0)
(14.2109 -0.0007143 0)
(14.238 -0.000799977 0)
(14.2685 -0.000926359 0)
(14.3013 -0.00103995 0)
(14.3362 -0.00115736 0)
(14.373 -0.00128411 0)
(14.4118 -0.00142225 0)
(14.4527 -0.00157351 0)
(14.4957 -0.00173985 0)
(14.5408 -0.00192375 0)
(14.5883 -0.00212816 0)
(14.6382 -0.00235695 0)
(14.6907 -0.00261504 0)
(14.7462 -0.00290923 0)
(14.8049 -0.00324884 0)
(14.8673 -0.00364771 0)
(14.934 -0.00412582 0)
(15.0058 -0.00472021 0)
(15.0843 -0.0054758 0)
(15.1709 -0.0065798 0)
(15.2726 -0.00808993 0)
(15.3852 -0.0125462 0)
(15.5853 -0.0248722 0)
(15.7498 -0.0747264 0)
(24.5626 0.0457889 0)
(20.1064 0.00658455 0)
(18.7662 0.00233517 0)
(18.0859 0.00140289 0)
(17.6507 0.000997825 0)
(17.3415 0.00076809 0)
(17.1067 0.00062302 0)
(16.9201 0.000523289 0)
(16.7675 0.000449491 0)
(16.6404 0.000392359 0)
(16.5329 0.000346982 0)
(16.4408 0.000310225 0)
(16.3612 0.000279925 0)
(16.2917 0.000254539 0)
(16.2306 0.000232955 0)
(16.1766 0.000214389 0)
(16.1286 0.000198291 0)
(16.0857 0.000184248 0)
(16.0473 0.000171915 0)
(16.0126 0.000160996 0)
(15.9813 0.000151243 0)
(15.9529 0.000142471 0)
(15.9271 0.000134548 0)
(15.9036 0.000127379 0)
(15.8821 0.000120885 0)
(15.8625 0.000114995 0)
(15.8444 0.000109636 0)
(15.8278 0.000104736 0)
(15.8125 0.000100226 0)
(15.7984 9.60451e-05 0)
(15.7854 9.21384e-05 0)
(15.7733 8.84593e-05 0)
(15.7622 8.49655e-05 0)
(15.7518 8.16163e-05 0)
(15.7423 7.83684e-05 0)
(15.7334 7.51722e-05 0)
(15.7252 7.19686e-05 0)
(15.7177 6.86855e-05 0)
(15.7108 6.52347e-05 0)
(15.7045 6.15088e-05 0)
(15.6988 5.73783e-05 0)
(15.6937 5.26882e-05 0)
(15.6893 4.72548e-05 0)
(15.6855 4.08617e-05 0)
(15.6825 3.32556e-05 0)
(15.6803 2.41394e-05 0)
(15.6789 1.31435e-05 0)
(15.6785 -3.99409e-07 0)
(15.6792 -1.68594e-05 0)
(15.6811 -3.64744e-05 0)
(15.6844 -5.98449e-05 0)
(15.6893 -8.75326e-05 0)
(15.6959 -0.000120154 0)
(15.7044 -0.00015844 0)
(15.715 -0.000203289 0)
(15.728 -0.000255826 0)
(15.7436 -0.0003173 0)
(15.7621 -0.000389288 0)
(15.7838 -0.00047262 0)
(15.8091 -0.000572802 0)
(15.8387 -0.00067867 0)
(15.8717 -0.000857409 0)
(15.9152 -0.00104371 0)
(15.9521 -0.00113458 0)
(15.9849 -0.0011799 0)
(16.0156 -0.00130877 0)
(16.0498 -0.00151045 0)
(16.0866 -0.00169605 0)
(16.1256 -0.00188787 0)
(16.1668 -0.00209457 0)
(16.2103 -0.00231958 0)
(16.2559 -0.00256577 0)
(16.3039 -0.00283629 0)
(16.3544 -0.00313511 0)
(16.4073 -0.00346695 0)
(16.463 -0.00383798 0)
(16.5215 -0.00425604 0)
(16.5832 -0.00473192 0)
(16.6485 -0.00528035 0)
(16.7177 -0.00592317 0)
(16.7916 -0.00669179 0)
(16.871 -0.00764413 0)
(16.9575 -0.00885024 0)
(17.0525 -0.0105987 0)
(17.1631 -0.0129614 0)
(17.2854 -0.0195509 0)
(17.4869 -0.0339904 0)
(17.6122 -0.0710993 0)
(27.157 0.0587747 0)
(22.2484 0.0102412 0)
(20.6822 0.00368347 0)
(19.9003 0.00216938 0)
(19.4081 0.00152553 0)
(19.0621 0.00116688 0)
(18.8011 0.000942924 0)
(18.5947 0.000790131 0)
(18.4264 0.000677658 0)
(18.2864 0.000590888 0)
(18.1682 0.00052214 0)
(18.0671 0.000466559 0)
(17.9798 0.000420808 0)
(17.9036 0.00038252 0)
(17.8367 0.000349998 0)
(17.7776 0.000322046 0)
(17.7251 0.000297824 0)
(17.6782 0.000276703 0)
(17.6361 0.000258161 0)
(17.5982 0.00024175 0)
(17.5639 0.000227099 0)
(17.5329 0.000213928 0)
(17.5047 0.000202034 0)
(17.479 0.000191273 0)
(17.4555 0.000181527 0)
(17.434 0.000172686 0)
(17.4143 0.000164643 0)
(17.3961 0.000157289 0)
(17.3794 0.000150522 0)
(17.364 0.000144249 0)
(17.3497 0.000138389 0)
(17.3365 0.000132871 0)
(17.3243 0.000127631 0)
(17.313 0.000122607 0)
(17.3026 0.000117733 0)
(17.2929 0.000112933 0)
(17.2839 0.000108118 0)
(17.2757 0.000103178 0)
(17.2681 9.79782e-05 0)
(17.2612 9.2357e-05 0)
(17.255 8.61171e-05 0)
(17.2495 7.90234e-05 0)
(17.2446 7.07968e-05 0)
(17.2405 6.11087e-05 0)
(17.2372 4.95741e-05 0)
(17.2347 3.57415e-05 0)
(17.2332 1.90479e-05 0)
(17.2328 -1.52316e-06 0)
(17.2335 -2.65439e-05 0)
(17.2357 -5.63708e-05 0)
(17.2393 -9.19037e-05 0)
(17.2447 -0.000133999 0)
(17.2519 -0.000183596 0)
(17.2612 -0.000241803 0)
(17.2729 -0.000309981 0)
(17.2871 -0.000389837 0)
(17.3042 -0.000483266 0)
(17.3245 -0.000592661 0)
(17.3483 -0.000719296 0)
(17.3761 -0.000871445 0)
(17.4085 -0.00103249 0)
(17.4447 -0.00130253 0)
(17.492 -0.00157663 0)
(17.5319 -0.00172683 0)
(17.5681 -0.00181155 0)
(17.6022 -0.00199472 0)
(17.6396 -0.00229239 0)
(17.6798 -0.00257328 0)
(17.7224 -0.00286419 0)
(17.7673 -0.00317731 0)
(17.8147 -0.00351781 0)
(17.8645 -0.00389001 0)
(17.9167 -0.0042986 0)
(17.9716 -0.00474947 0)
(18.0292 -0.00524961 0)
(18.0896 -0.00580809 0)
(18.1532 -0.00643648 0)
(18.22 -0.00715057 0)
(18.2906 -0.00797192 0)
(18.3654 -0.00893234 0)
(18.4451 -0.0100775 0)
(18.5304 -0.0114908 0)
(18.6231 -0.0132743 0)
(18.7246 -0.0158317 0)
(18.8416 -0.0192644 0)
(18.9703 -0.0282011 0)
(19.1694 -0.0441243 0)
(19.2699 -0.0739392 0)
(29.5614 0.073049 0)
(24.2977 0.0151232 0)
(22.4961 0.00556552 0)
(21.6042 0.00322356 0)
(21.051 0.00224122 0)
(20.6661 0.00170282 0)
(20.3779 0.00137024 0)
(20.151 0.00114512 0)
(19.9667 0.000980347 0)
(19.8138 0.000853728 0)
(19.6849 0.000753691 0)
(19.5748 0.000672986 0)
(19.4798 0.000606666 0)
(19.397 0.000551239 0)
(19.3244 0.000504212 0)
(19.2602 0.00046383 0)
(19.2032 0.000428863 0)
(19.1523 0.000398389 0)
(19.1067 0.000371648 0)
(19.0656 0.000347991 0)
(19.0285 0.000326883 0)
(18.9949 0.000307915 0)
(18.9643 0.000290794 0)
(18.9364 0.000275307 0)
(18.911 0.000261281 0)
(18.8877 0.000248558 0)
(18.8663 0.000236984 0)
(18.8466 0.000226402 0)
(18.8285 0.000216667 0)
(18.8118 0.000207645 0)
(18.7964 0.00019922 0)
(18.7821 0.000191289 0)
(18.7688 0.000183758 0)
(18.7566 0.000176536 0)
(18.7452 0.000169528 0)
(18.7347 0.000162625 0)
(18.725 0.000155694 0)
(18.7161 0.000148579 0)
(18.7079 0.000141084 0)
(18.7004 0.000132973 0)
(18.6937 0.000123963 0)
(18.6877 0.000113712 0)
(18.6824 0.000101815 0)
(18.6779 8.77976e-05 0)
(18.6743 7.11011e-05 0)
(18.6716 5.10716e-05 0)
(18.6699 2.68932e-05 0)
(18.6694 -2.90744e-06 0)
(18.6702 -3.91803e-05 0)
(18.6725 -8.24386e-05 0)
(18.6764 -0.000133964 0)
(18.6821 -0.000195002 0)
(18.6899 -0.000266912 0)
(18.7 -0.000351299 0)
(18.7125 -0.000450131 0)
(18.7278 -0.000565867 0)
(18.7462 -0.000701249 0)
(18.7681 -0.000859729 0)
(18.7938 -0.0010432 0)
(18.8236 -0.00126337 0)
(18.8585 -0.0014972 0)
(18.8975 -0.00188452 0)
(18.948 -0.00226836 0)
(18.9904 -0.00250161 0)
(19.0295 -0.00264798 0)
(19.0666 -0.00289992 0)
(19.1069 -0.00331706 0)
(19.15 -0.00372061 0)
(19.1957 -0.00414011 0)
(19.2438 -0.00459144 0)
(19.2945 -0.00508179 0)
(19.3478 -0.00561726 0)
(19.4037 -0.00620447 0)
(19.4623 -0.00685169 0)
(19.5237 -0.00756869 0)
(19.5881 -0.00836818 0)
(19.6558 -0.00926625 0)
(19.7269 -0.0102849 0)
(19.8018 -0.0114539 0)
(19.881 -0.0128173 0)
(19.9652 -0.0144379 0)
(20.0552 -0.0164292 0)
(20.1525 -0.018933 0)
(20.2587 -0.0224774 0)
(20.3799 -0.027214 0)
(20.5124 -0.0386641 0)
(20.7071 -0.0557501 0)
(20.7937 -0.0855204 0)
(31.8166 0.0886886 0)
(26.3036 0.0215068 0)
(24.2589 0.0081636 0)
(23.2461 0.00466667 0)
(22.6257 0.00320845 0)
(22.1985 0.00242039 0)
(21.8809 0.00193866 0)
(21.6324 0.00161517 0)
(21.4312 0.00137987 0)
(21.2648 0.00119986 0)
(21.1248 0.00105808 0)
(21.0055 0.000943985 0)
(20.9026 0.000850403 0)
(20.813 0.000772313 0)
(20.7345 0.000706144 0)
(20.6652 0.000649389 0)
(20.6036 0.000600286 0)
(20.5487 0.00055752 0)
(20.4995 0.000520013 0)
(20.4552 0.000486851 0)
(20.4151 0.000457279 0)
(20.3789 0.000430721 0)
(20.3459 0.00040676 0)
(20.3159 0.000385091 0)
(20.2885 0.000365469 0)
(20.2634 0.000347672 0)
(20.2403 0.000331482 0)
(20.2191 0.000316683 0)
(20.1996 0.000303071 0)
(20.1816 0.000290461 0)
(20.1649 0.000278689 0)
(20.1495 0.00026761 0)
(20.1353 0.000257093 0)
(20.1221 0.00024701 0)
(20.1098 0.000237224 0)
(20.0985 0.000227582 0)
(20.0881 0.0002179 0)
(20.0784 0.000207956 0)
(20.0696 0.000197476 0)
(20.0615 0.000186131 0)
(20.0542 0.000173521 0)
(20.0477 0.00015917 0)
(20.042 0.00014251 0)
(20.0371 0.000122876 0)
(20.0332 9.94863e-05 0)
(20.0302 7.14238e-05 0)
(20.0284 3.75498e-05 0)
(20.0278 -4.19768e-06 0)
(20.0285 -5.50478e-05 0)
(20.0309 -0.00011572 0)
(20.035 -0.000187975 0)
(20.041 -0.000273558 0)
(20.0492 -0.000374377 0)
(20.0599 -0.000492674 0)
(20.0732 -0.000631193 0)
(20.0894 -0.000793364 0)
(20.1089 -0.000983015 0)
(20.1321 -0.00120495 0)
(20.1594 -0.0014619 0)
(20.1911 -0.00176976 0)
(20.2281 -0.00209822 0)
(20.2696 -0.00263354 0)
(20.3227 -0.00315229 0)
(20.367 -0.00349788 0)
(20.4086 -0.00373599 0)
(20.4483 -0.00407612 0)
(20.4912 -0.00464009 0)
(20.5368 -0.00519854 0)
(20.5851 -0.00578181 0)
(20.636 -0.00640944 0)
(20.6895 -0.00709083 0)
(20.7456 -0.00783421 0)
(20.8045 -0.00864851 0)
(20.8662 -0.00954486 0)
(20.9307 -0.0105364 0)
(20.9984 -0.0116403 0)
(21.0693 -0.012878 0)
(21.1437 -0.0142789 0)
(21.222 -0.0158828 0)
(21.3047 -0.0177479 0)
(21.3923 -0.0199578 0)
(21.4856 -0.0226602 0)
(21.5862 -0.0260451 0)
(21.6956 -0.03077 0)
(21.8192 -0.0370614 0)
(21.9532 -0.0511625 0)
(22.1425 -0.0694451 0)
(22.2216 -0.105223 0)
(33.9392 0.105664 0)
(28.2969 0.0296979 0)
(26.0056 0.011716 0)
(24.8594 0.00663732 0)
(24.1638 0.00451463 0)
(23.6894 0.00338049 0)
(23.3395 0.00269391 0)
(23.0672 0.00223659 0)
(22.8478 0.00190615 0)
(22.6669 0.0016546 0)
(22.5151 0.00145719 0)
(22.386 0.00129875 0)
(22.2748 0.00116908 0)
(22.1781 0.00106108 0)
(22.0934 0.000969694 0)
(22.0186 0.000891416 0)
(21.9524 0.00082376 0)
(21.8932 0.000764881 0)
(21.8403 0.000713277 0)
(21.7926 0.000667679 0)
(21.7496 0.000627047 0)
(21.7106 0.00059058 0)
(21.6751 0.000557697 0)
(21.6429 0.00052797 0)
(21.6134 0.000501057 0)
(21.5864 0.00047665 0)
(21.5617 0.000454448 0)
(21.5389 0.000434158 0)
(21.5179 0.000415501 0)
(21.4985 0.000398224 0)
(21.4806 0.000382102 0)
(21.4641 0.000366935 0)
(21.4488 0.000352544 0)
(21.4346 0.000338749 0)
(21.4214 0.000325365 0)
(21.4092 0.000312178 0)
(21.398 0.000298936 0)
(21.3876 0.000285334 0)
(21.3781 0.000271001 0)
(21.3694 0.000255483 0)
(21.3615 0.000238237 0)
(21.3545 0.000218609 0)
(21.3483 0.000195827 0)
(21.3431 0.000168979 0)
(21.3388 0.000136999 0)
(21.3355 9.86354e-05 0)
(21.3334 5.23411e-05 0)
(21.3326 -4.68989e-06 0)
(21.3333 -7.42036e-05 0)
(21.3357 -0.000157194 0)
(21.3399 -0.000256007 0)
(21.3461 -0.000373026 0)
(21.3547 -0.000510859 0)
(21.3658 -0.000672559 0)
(21.3797 -0.000861858 0)
(21.3967 -0.00108341 0)
(21.4171 -0.00134242 0)
(21.4414 -0.00164539 0)
(21.47 -0.00199619 0)
(21.5033 -0.00241569 0)
(21.5421 -0.00286559 0)
(21.5856 -0.00358511 0)
(21.6409 -0.00426781 0)
(21.6866 -0.00476098 0)
(21.7302 -0.00512978 0)
(21.7722 -0.00558433 0)
(21.8172 -0.00632744 0)
(21.865 -0.00707875 0)
(21.9154 -0.00786739 0)
(21.9685 -0.00871654 0)
(22.0243 -0.00963796 0)
(22.0828 -0.0106423 0)
(22.144 -0.0117411 0)
(22.2081 -0.012949 0)
(22.2751 -0.0142831 0)
(22.3453 -0.0157657 0)
(22.4187 -0.0174248 0)
(22.4956 -0.0192986 0)
(22.5764 -0.0214383 0)
(22.6615 -0.0239188 0)
(22.7514 -0.0268477 0)
(22.8471 -0.0304116 0)
(22.9497 -0.034857 0)
(23.0608 -0.0409706 0)
(23.1852 -0.0490843 0)
(23.319 -0.065948 0)
(23.5018 -0.0857785 0)
(23.5763 -0.130998 0)
(35.9299 0.123835 0)
(30.2952 0.0400129 0)
(27.7625 0.0165271 0)
(26.4696 0.00932402 0)
(25.6891 0.00628013 0)
(25.1612 0.00466672 0)
(24.7749 0.00369845 0)
(24.4762 0.0030586 0)
(24.2367 0.00259952 0)
(24.0398 0.00225192 0)
(23.8751 0.00198023 0)
(23.7352 0.00176285 0)
(23.615 0.00158537 0)
(23.5106 0.00143785 0)
(23.4193 0.00131325 0)
(23.3388 0.00120667 0)
(23.2674 0.00111467 0)
(23.2038 0.00103468 0)
(23.1469 0.000964625 0)
(23.0957 0.000902772 0)
(23.0494 0.000847699 0)
(23.0075 0.00079831 0)
(22.9695 0.000753802 0)
(22.9348 0.000713584 0)
(22.9032 0.000677184 0)
(22.8742 0.000644178 0)
(22.8476 0.000614158 0)
(22.8232 0.00058673 0)
(22.8007 0.000561518 0)
(22.7799 0.00053818 0)
(22.7607 0.000516414 0)
(22.7429 0.00049595 0)
(22.7264 0.000476542 0)
(22.7112 0.000457947 0)
(22.6971 0.000439913 0)
(22.684 0.000422151 0)
(22.6719 0.000404321 0)
(22.6608 0.000386014 0)
(22.6505 0.00036673 0)
(22.6411 0.000345862 0)
(22.6326 0.00032268 0)
(22.625 0.000296311 0)
(22.6184 0.000265719 0)
(22.6126 0.000229684 0)
(22.6079 0.000186777 0)
(22.6044 0.000135323 0)
(22.602 7.32669e-05 0)
(22.601 -3.11448e-06 0)
(22.6015 -9.62756e-05 0)
(22.6038 -0.000207584 0)
(22.608 -0.00034008 0)
(22.6144 -0.000496954 0)
(22.6231 -0.000681696 0)
(22.6345 -0.000898382 0)
(22.6489 -0.00115198 0)
(22.6664 -0.00144867 0)
(22.6876 -0.00179538 0)
(22.7128 -0.00220074 0)
(22.7424 -0.00267012 0)
(22.7769 -0.00323021 0)
(22.8171 -0.00383428 0)
(22.8623 -0.0047803 0)
(22.9193 -0.0056607 0)
(22.9661 -0.00634283 0)
(23.0112 -0.00689086 0)
(23.055 -0.00749469 0)
(23.1017 -0.00845562 0)
(23.1512 -0.00944454 0)
(23.2033 -0.0104875 0)
(23.2581 -0.0116114 0)
(23.3156 -0.0128305 0)
(23.3759 -0.0141582 0)
(23.4389 -0.015609 0)
(23.5048 -0.0172016 0)
(23.5736 -0.0189577 0)
(23.6455 -0.0209057 0)
(23.7207 -0.0230812 0)
(23.7993 -0.0255322 0)
(23.8817 -0.0283236 0)
(23.9683 -0.0315494 0)
(24.0597 -0.0353444 0)
(24.1565 -0.0399384 0)
(24.2601 -0.0456428 0)
(24.3716 -0.0533669 0)
(24.4954 -0.0635842 0)
(24.6276 -0.0832919 0)
(24.8028 -0.105257 0)
(24.873 -0.160615 0)
(37.7771 0.142927 0)
(32.3054 0.0527425 0)
(29.5499 0.0229742 0)
(28.098 0.0129806 0)
(27.2212 0.00867068 0)
(26.6322 0.0063945 0)
(26.2043 0.00503808 0)
(25.8756 0.00414845 0)
(25.6132 0.00351477 0)
(25.3986 0.00303777 0)
(25.2194 0.00266658 0)
(25.0677 0.00237059 0)
(24.9375 0.00212961 0)
(24.8247 0.00192976 0)
(24.726 0.0017613 0)
(24.6392 0.00161746 0)
(24.5623 0.00149346 0)
(24.4938 0.00138577 0)
(24.4325 0.00129154 0)
(24.3774 0.00120841 0)
(24.3277 0.00113447 0)
(24.2827 0.00106821 0)
(24.2418 0.00100855 0)
(24.2045 0.000954666 0)
(24.1706 0.000905915 0)
(24.1394 0.000861721 0)
(24.1109 0.000821534 0)
(24.0846 0.000784826 0)
(24.0605 0.000751097 0)
(24.0381 0.000719892 0)
(24.0175 0.000690806 0)
(23.9984 0.000663478 0)
(23.9808 0.000637577 0)
(23.9644 0.00061278 0)
(23.9492 0.000588745 0)
(23.9352 0.000565089 0)
(23.9222 0.00054136 0)
(23.9102 0.000517016 0)
(23.8991 0.000491394 0)
(23.889 0.000463696 0)
(23.8799 0.000432956 0)
(23.8716 0.000398025 0)
(23.8644 0.000357535 0)
(23.8581 0.000309882 0)
(23.853 0.000253181 0)
(23.849 0.000185227 0)
(23.8463 0.000103331 0)
(23.8449 2.68278e-06 0)
(23.8452 -0.000120153 0)
(23.8473 -0.000267075 0)
(23.8514 -0.000441902 0)
(23.8578 -0.000648839 0)
(23.8666 -0.00089248 0)
(23.8782 -0.00117817 0)
(23.8928 -0.00151242 0)
(23.9108 -0.00190329 0)
(23.9325 -0.00235987 0)
(23.9583 -0.00289336 0)
(23.9887 -0.0035111 0)
(24.024 -0.0042465 0)
(24.0653 -0.00504424 0)
(24.1118 -0.00626585 0)
(24.1699 -0.00738366 0)
(24.2173 -0.00830236 0)
(24.2634 -0.00908793 0)
(24.3085 -0.00988644 0)
(24.3566 -0.0111117 0)
(24.4073 -0.0123912 0)
(24.4607 -0.0137458 0)
(24.5167 -0.0152068 0)
(24.5754 -0.0167911 0)
(24.6369 -0.0185149 0)
(24.7011 -0.0203964 0)
(24.7681 -0.0224587 0)
(24.8381 -0.0247289 0)
(24.9111 -0.0272425 0)
(24.9872 -0.0300434 0)
(25.0668 -0.0331915 0)
(25.15 -0.036767 0)
(25.2373 -0.0408853 0)
(25.3292 -0.0457121 0)
(25.4263 -0.0515237 0)
(25.5297 -0.0587046 0)
(25.6406 -0.0682731 0)
(25.7625 -0.0808827 0)
(25.8918 -0.103479 0)
(26.0583 -0.128283 0)
(26.1235 -0.192336 0)
(39.4591 0.16249 0)
(34.3227 0.0680902 0)
(31.3826 0.0315033 0)
(29.763 0.0179431 0)
(28.7778 0.0119137 0)
(28.1185 0.0087235 0)
(27.6426 0.00683144 0)
(27.2792 0.00559874 0)
(26.9908 0.00472698 0)
(26.7558 0.00407482 0)
(26.5603 0.00356971 0)
(26.3951 0.00316844 0)
(26.2537 0.00284275 0)
(26.1314 0.00257334 0)
(26.0246 0.00234677 0)
(25.9308 0.00215368 0)
(25.8477 0.00198749 0)
(25.7738 0.00184334 0)
(25.7077 0.00171735 0)
(25.6483 0.00160632 0)
(25.5947 0.00150765 0)
(25.5462 0.00141933 0)
(25.5022 0.00133987 0)
(25.4621 0.00126816 0)
(25.4255 0.0012033 0)
(25.392 0.00114453 0)
(25.3613 0.0010911 0)
(25.3331 0.00104231 0)
(25.3071 0.000997497 0)
(25.2831 0.000956065 0)
(25.2609 0.000917473 0)
(25.2403 0.000881243 0)
(25.2213 0.000846934 0)
(25.2037 0.000814115 0)
(25.1874 0.000782336 0)
(25.1722 0.000751089 0)
(25.1582 0.000719783 0)
(25.1453 0.000687704 0)
(25.1334 0.00065399 0)
(25.1225 0.000617599 0)
(25.1126 0.000577275 0)
(25.1036 0.00053152 0)
(25.0957 0.00047856 0)
(25.0889 0.000416304 0)
(25.0832 0.000342308 0)
(25.0787 0.000253706 0)
(25.0755 0.000147022 0)
(25.0738 1.62085e-05 0)
(25.0738 -0.000143533 0)
(25.0756 -0.00033487 0)
(25.0795 -0.000562446 0)
(25.0857 -0.000831732 0)
(25.0945 -0.00114869 0)
(25.1061 -0.00152024 0)
(25.1208 -0.00195476 0)
(25.1389 -0.00246265 0)
(25.1608 -0.00305561 0)
(25.187 -0.00374799 0)
(25.2179 -0.00454969 0)
(25.2538 -0.00550169 0)
(25.2957 -0.00654043 0)
(25.343 -0.0080941 0)
(25.4018 -0.00949673 0)
(25.4494 -0.0107059 0)
(25.4961 -0.0117968 0)
(25.542 -0.0128476 0)
(25.5908 -0.0143929 0)
(25.6424 -0.0160258 0)
(25.6965 -0.0177593 0)
(25.7533 -0.0196299 0)
(25.8127 -0.0216575 0)
(25.8748 -0.0238619 0)
(25.9396 -0.026265 0)
(26.0072 -0.0288952 0)
(26.0776 -0.0317857 0)
(26.151 -0.0349798 0)
(26.2275 -0.0385313 0)
(26.3073 -0.0425131 0)
(26.3906 -0.0470227 0)
(26.4778 -0.0521995 0)
(26.5693 -0.0582433 0)
(26.6658 -0.0654798 0)
(26.7682 -0.0743725 0)
(26.8774 -0.0860283 0)
(26.9964 -0.101313 0)
(27.1217 -0.126802 0)
(27.2782 -0.155117 0)
(27.3377 -0.225075 0)
(40.9464 0.181862 0)
(36.3286 0.0860766 0)
(33.2688 0.042604 0)
(31.4806 0.0246447 0)
(30.3753 0.0163181 0)
(29.6354 0.0118746 0)
(29.1038 0.00924317 0)
(28.7002 0.00753771 0)
(28.3815 0.00633977 0)
(28.1229 0.0054492 0)
(27.9086 0.00476288 0)
(27.728 0.00421983 0)
(27.5738 0.00378054 0)
(27.4406 0.0034182 0)
(27.3246 0.00311424 0)
(27.2227 0.00285577 0)
(27.1327 0.00263371 0)
(27.0526 0.00244137 0)
(26.9811 0.00227348 0)
(26.9168 0.0021257 0)
(26.8589 0.00199453 0)
(26.8066 0.00187725 0)
(26.759 0.00177184 0)
(26.7158 0.00167678 0)
(26.6763 0.00159086 0)
(26.6401 0.00151303 0)
(26.607 0.0014423 0)
(26.5765 0.00137774 0)
(26.5485 0.00131847 0)
(26.5226 0.00126371 0)
(26.4987 0.00121275 0)
(26.4765 0.00116494 0)
(26.456 0.00111972 0)
(26.437 0.00107651 0)
(26.4193 0.00103472 0)
(26.403 0.000993693 0)
(26.3879 0.000952649 0)
(26.3739 0.000910666 0)
(26.361 0.000866632 0)
(26.3492 0.000819201 0)
(26.3384 0.000766758 0)
(26.3287 0.000707377 0)
(26.32 0.000638775 0)
(26.3125 0.000558268 0)
(26.3062 0.000462717 0)
(26.3011 0.000348447 0)
(26.2974 0.00021101 0)
(26.2952 4.30009e-05 0)
(26.2947 -0.00016226 0)