/*--------------------------------*- C++ -*----------------------------------*\
  =========                 |
  \\      /  F ield         | OpenFOAM: The Open Source CFD Toolbox
   \\    /   O peration     | Website:  https://openfoam.org
    \\  /    A nd           | Version:  8
     \\/     M anipulation  |
\*---------------------------------------------------------------------------*/
FoamFile
{
    version     2.0;
    format      ascii;
    class       volScalarField;
    location    "110";
    object      epsilon;
}
// * * * * * * * * * * * * * * * * * * * * * * * * * * * * * * * * * * * * * //

dimensions      [0 2 -3 0 0 0 0];

internalField   nonuniform List<scalar> 
12225
(
285.524
270.71
257.908
243.823
232.44
223.116
216.768
212.716
212.748
213.987
217.238
220.992
228.153
232.925
241.499
247.075
256.789
260.74
52.4861
91.9022
106.956
114.781
124.819
136.84
152.672
169.987
191.174
211.059
235.46
255.707
281.635
299.812
325.992
340.882
366.63
384.469
20.5256
34.8825
44.6641
50.485
55.3801
59.6327
64.6458
69.6786
76.3145
83.246
91.4786
99.4477
108.293
117.252
125.82
136.123
143.261
156.389
16.0031
19.4893
24.0752
27.5711
30.4891
32.8802
35.1475
37.3079
39.4973
41.9411
44.3414
47.248
49.7091
53.1368
55.5033
59.4608
61.6687
66.305
15.0387
15.7135
17.3963
19.082
20.6358
22.0306
23.2429
24.4372
25.442
26.6039
27.5251
28.7745
29.6439
31.0179
31.8493
33.3429
34.144
35.8531
14.7897
14.8259
15.2492
15.8687
16.5658
17.2889
17.9223
18.5868
19.1185
19.7378
20.1946
20.8055
21.2142
21.8356
22.2137
22.8572
23.201
23.9345
14.7657
14.6147
14.6409
14.726
14.9344
15.2207
15.491
15.8099
16.0708
16.3842
16.6189
16.9231
17.1338
17.4329
17.6229
17.9267
18.0885
18.4389
14.7686
14.5867
14.4659
14.3803
14.3676
14.3895
14.4395
14.5337
14.6184
14.7372
14.8312
14.9576
15.049
15.1788
15.264
15.3989
15.4704
15.6356
14.768
14.591
14.4348
14.2963
14.185
14.1044
14.0398
14.0067
13.9814
13.9786
13.981
13.992
14.0041
14.0308
14.0475
14.0835
14.1001
14.1577
14.7665
14.594
14.432
14.282
14.1429
14.0219
13.9115
13.8193
13.7369
13.6697
13.6101
13.5633
13.5181
13.4874
13.4519
13.4351
13.4031
13.4036
14.7659
14.5945
14.4321
14.2803
14.1361
14.0032
13.8781
13.7643
13.6581
13.5628
13.4734
13.3951
13.3197
13.256
13.1915
13.141
13.0842
13.0461
14.7657
14.5943
14.4321
14.2798
14.1353
13.9998
13.8715
13.7518
13.6384
13.5336
13.434
13.3429
13.2556
13.177
13.1002
13.0329
12.9649
12.9078
14.7657
14.5941
14.432
14.2794
14.1349
13.9989
13.8698
13.7484
13.6331
13.5249
13.4219
13.3256
13.2337
13.1483
13.0662
12.9906
12.9173
12.8506
14.7657
14.5939
14.4318
14.279
14.1346
13.9983
13.8691
13.7472
13.6315
13.5222
13.4184
13.3203
13.227
13.139
13.0551
12.976
12.9005
12.8295
14.7657
14.5938
14.4317
14.2787
14.1342
13.9977
13.8686
13.7464
13.6307
13.5211
13.4171
13.3185
13.2249
13.1362
13.0518
12.9717
12.8955
12.8232
14.7657
14.5938
14.4316
14.2785
14.1339
13.9973
13.8681
13.7458
13.63
13.5203
13.4162
13.3175
13.2238
13.1348
13.0503
12.97
12.8936
12.821
14.7657
14.5937
14.4315
14.2783
14.1337
13.997
13.8677
13.7453
13.6294
13.5196
13.4155
13.3167
13.2229
13.1338
13.0492
12.9688
12.8923
12.8195
14.7657
14.5937
14.4314
14.2782
14.1335
13.9968
13.8674
13.745
13.629
13.5191
13.4149
13.3161
13.2222
13.1331
13.0484
12.9678
12.8913
12.8184
14.7657
14.5937
14.4314
14.2782
14.1335
13.9967
13.8673
13.7449
13.6289
13.5189
13.4147
13.3158
13.2219
13.1326
13.0479
12.9673
12.8907
12.8177
14.7657
14.5937
14.4314
14.2782
14.1336
13.9968
13.8675
13.745
13.629
13.5191
13.4149
13.3159
13.222
13.1328
13.0481
12.9675
12.8909
12.8179
14.7657
14.5937
14.4315
14.2784
14.1337
13.997
13.8677
13.7453
13.6294
13.5196
13.4155
13.3167
13.2229
13.1339
13.0494
12.9691
12.8928
12.8201
14.7657
14.5937
14.4316
14.2785
14.1341
13.9974
13.8685
13.7464
13.6312
13.522
13.4191
13.3214
13.2293
13.1419
13.0595
12.9811
12.9074
12.8369
14.7659
14.5937
14.4318
14.2788
14.1353
14.0002
13.8742
13.756
13.6463
13.5435
13.4485
13.3592
13.277
13.1993
13.1283
13.0602
12.9989
12.9387
14.7661
14.5928
14.4329
14.2844
14.1515
14.0321
13.9289
13.8375
13.7593
13.6894
13.6307
13.5769
13.5328
13.4905
13.4574
13.423
13.3989
13.3694
14.7641
14.5937
14.461
14.3604
14.3029
14.2767
14.2796
14.294
14.3202
14.3529
14.3959
14.4345
14.4824
14.5217
14.572
14.609
14.6617
14.694
14.757
14.6921
14.7579
14.9172
15.1827
15.4612
15.7475
16.0121
16.2723
16.5038
16.736
16.9386
17.1507
17.331
17.531
17.6938
17.889
18.0362
14.9575
15.4344
16.5692
17.6885
18.7052
19.5679
20.337
20.997
21.6193
22.1662
22.7187
23.211
23.7399
24.2045
24.7328
25.183
25.7253
26.1664
16.2581
20.939
25.0147
27.759
29.7841
31.3588
32.7762
34.0587
35.3588
36.6167
37.9749
39.2978
40.7612
42.1466
43.7178
45.1749
46.8843
48.3602
29.9427
47.2252
54.8702
58.6738
61.6133
64.4325
67.5788
70.9797
74.7373
78.7154
82.9851
87.347
91.9064
96.4549
101.104
105.63
110.182
114.588
165.79
160.073
154.899
149.564
144.479
139.677
135.613
132.11
129.27
126.973
125.319
124.044
123.339
122.829
122.825
122.982
123.268
123.827
2.84859
1.9042
2.91306
3.82281
4.67461
5.48817
6.25569
6.96644
7.60757
8.16521
8.62514
38.0341
39.8152
41.3125
42.301
42.291
41.3151
43.1395
46.2658
47.9524
47.1883
41.3228
48.5817
54.3019
60.9509
68.0243
75.6482
83.756
92.3564
101.392
110.862
120.703
130.917
141.44
152.28
163.373
174.739
186.313
198.126
210.117
222.323
234.685
247.251
259.966
272.88
285.934
299.186
312.575
326.159
339.878
353.791
367.835
382.069
396.426
410.962
425.607
440.417
455.318
470.361
485.468
500.688
515.94
531.264
546.58
561.921
577.206
592.463
607.61
622.669
637.56
652.297
666.803
681.086
695.076
708.774
722.119
735.105
747.681
759.84
771.542
782.778
793.527
803.777
813.527
822.764
831.511
839.759
847.544
854.877
861.807
868.359
874.558
880.446
886.058
891.431
896.564
901.42
905.822
909.328
909.996
914.224
923.21
923.99
927.922
938.28
938.653
943.041
949.13
954.189
961.003
966.49
977.962
980.315
980.788
984.328
997.001
994.493
998.381
1010.54
1008.13
1011.68
1015.97
1025.62
1020.98
1021.96
1021.87
1022.3
1022.19
1022.46
1023.49
1018.01
1012.99
1006.56
999.122
990.29
980.29
968.972
956.417
942.585
927.6
911.559
894.224
875.673
856.08
835.507
813.996
791.695
768.76
745.077
720.903
697.175
672.649
647.977
630.663
616.364
602.226
587.963
573.593
559.175
544.907
530.555
516.109
501.865
487.923
474.309
461.008
447.722
434.775
422.187
409.968
398.161
386.765
375.773
365.126
354.911
344.488
335.387
322.579
316.332
286.687
6.95289
4.09916
3.91417
4.20701
4.70843
5.33833
6.08314
6.9689
8.08625
9.65627
12.1885
16.8101
19.4172
21.2771
22.8503
24.3401
25.9391
27.8144
29.802
31.5559
33.1035
34.8731
38.5317
42.2437
46.1078
50.1206
54.273
58.5451
62.9295
67.413
71.9916
76.6549
81.401
86.2213
91.1167
96.0804
101.116
106.217
111.39
116.63
121.944
127.334
132.792
138.315
143.907
149.562
155.285
161.072
166.925
172.84
178.82
184.857
190.956
197.107
203.313
209.566
215.865
222.201
228.574
234.972
241.394
247.829
254.272
260.712
267.142
273.551
279.932
286.27
292.56
298.786
304.94
311.008
316.981
322.846
328.592
334.206
339.682
345.006
350.171
355.169
359.995
364.645
369.119
373.426
377.544
381.459
385.177
388.704
392.047
395.212
398.21
401.063
403.8
406.427
408.924
411.289
413.508
415.555
417.41
419.129
421.377
423.749
425.237
427.369
429.737
430.939
432.804
433.964
436.892
437.925
441.026
443.002
443.747
443.863
446.619
448.631
448.486
449.809
452.655
451.979
454.661
455.596
456.688
455.852
455.745
455.86
455.751
455.499
455.374
454.662
452.802
450.903
448.584
445.93
442.896
439.468
435.575
431.221
426.393
421.109
415.379
409.164
402.475
395.348
387.802
379.858
371.552
362.931
353.991
344.779
335.482
325.947
316.129
307.462
299.465
291.607
283.749
275.892
268.053
260.296
252.598
244.945
237.243
229.661
222.2
214.9
207.717
200.714
193.915
187.334
180.989
174.89
169.045
163.437
158.136
152.93
148.406
143.329
140.498
139.202
12.4525
6.56482
5.71641
5.72293
6.06258
6.61159
7.33627
8.24044
9.35845
10.753
12.4926
14.5541
16.5156
18.3977
20.2806
22.2291
24.2857
26.4541
28.7046
31.0227
33.4773
36.1932
39.2632
42.4332
45.6496
48.9326
52.2985
55.7463
59.2721
62.8701
66.5379
70.276
74.0786
77.9419
81.8651
85.8463
89.8855
93.9814
98.1344
102.344
106.61
110.932
115.309
119.74
124.225
128.764
133.356
138.001
142.698
147.447
152.246
157.095
161.993
166.936
171.925
176.955
182.026
187.133
192.273
197.443
202.638
207.854
213.085
218.325
223.57
228.811
234.043
239.257
244.447
249.603
254.717
259.78
264.784
269.718
274.575
279.343
284.015
288.582
293.035
297.368
301.573
305.644
309.579
313.373
317.016
320.502
323.832
327.008
330.031
332.9
335.621
338.203
340.656
342.978
345.166
347.221
349.141
350.933
352.616
354.241
355.902
357.482
358.871
360.316
361.682
362.792
363.958
365.019
366.308
367.27
368.527
369.44
370.03
370.598
371.662
372.447
372.79
373.471
374.264
374.431
375.266
375.5
375.469
375.146
374.592
374.246
373.751
373.131
372.386
371.302
369.798
368.106
366.143
363.91
361.38
358.535
355.349
351.82
347.928
343.676
339.067
334.088
328.748
323.058
317.036
310.696
304.063
297.161
290.004
282.622
275.083
267.39
259.606
252.158
244.993
237.944
230.942
223.984
217.083
210.268
203.541
196.907
190.354
183.929
177.558
171.305
165.168
159.178
153.355
147.715
142.272
137.037
132.021
127.222
122.681
118.327
114.401
110.583
107.611
106.359
18.4915
9.38149
7.84289
7.6053
7.84658
8.3682
9.10208
10.0271
11.1424
12.4546
13.9647
15.6472
17.4419
19.3278
21.3054
23.3801
25.5556
27.83
30.2008
32.6722
35.261
37.9829
40.8253
43.7518
46.7645
49.8593
53.0314
56.2792
59.6007
62.9837
66.4181
69.9089
73.4604
77.0729
80.7463
84.4794
88.2718
92.1225
96.031
99.9962
104.018
108.095
112.228
116.415
120.656
124.952
129.301
133.703
138.159
142.667
147.227
151.839
156.501
161.213
165.974
170.782
175.635
180.532
185.47
190.447
195.459
200.503
205.576
210.672
215.787
220.915
226.051
231.188
236.319
241.437
246.533
251.599
256.627
261.607
266.53
271.387
276.166
280.859
285.457
289.95
294.329
298.588
302.719
306.712
310.562
314.261
317.808
321.198
324.43
327.501
330.411
333.163
335.761
338.203
340.49
342.622
344.602
346.438
348.146
349.75
351.27
352.679
353.961
355.162
356.249
357.197
358.067
358.855
359.609
360.251
360.882
361.385
361.746
362.038
362.374
362.622
362.746
362.955
363.03
362.759
362.676
362.343
361.887
361.214
360.453
359.635
358.687
357.601
356.348
354.853
353.099
351.134
348.934
346.482
343.762
340.755
337.442
333.815
329.845
325.545
320.914
315.951
310.66
305.051
299.137
292.934
286.46
279.737
272.789
265.652
258.379
251.009
243.61
236.345
229.226
222.203
215.252
208.373
201.58
194.89
188.304
181.848
175.523
169.346
163.3
157.399
151.604
145.939
140.419
135.062
129.883
124.894
120.107
115.53
111.19
107.073
103.291
99.7899
96.8146
95.085
24.599
12.3361
10.0982
9.61998
9.7573
10.2426
10.9728
11.9066
13.0263
14.3226
15.7864
17.4034
19.155
21.0259
23.0063
25.0896
27.2722
29.5515
31.9267
34.3984
36.9696
39.6407
42.4063
45.2572
48.1897
51.2006
54.2867
57.4442
60.6706
63.9677
67.3369
70.7782
74.2884
77.8658
81.5098
85.2194
88.9945
92.835
96.739
100.705
104.733
108.822
112.972
117.181
121.451
125.78
130.168
134.616
139.123
143.688
148.313
152.997
157.739
162.539
167.397
172.312
177.284
182.31
187.39
192.522
197.703
202.932
208.205
213.518
218.867
224.248
229.654
235.081
240.521
245.966
251.41
256.842
262.254
267.636
272.978
278.267
283.494
288.646
293.712
298.68
303.539
308.278
312.887
317.354
321.672
325.831
329.824
333.646
337.291
340.754
344.03
347.12
350.022
352.735
355.258
357.594
359.745
361.718
363.525
365.179
366.69
368.054
369.272
370.354
371.294
372.09
372.759
373.313
373.76
374.091
374.336
374.533
374.612
374.5
374.26
374.031
373.717
373.341
372.802
372.139
371.418
370.552
369.556
368.416
367.161
365.791
364.28
362.619
360.783
358.743
356.487
354.021
351.33
348.4
345.215
341.759
338.017
333.985
329.641
324.987
320.019
314.739
309.15
303.26
297.082
290.629
283.924
276.99
269.86
262.574
255.178
247.717
240.25
232.858
225.563
218.359
211.24
204.214
197.293
190.492
183.799
177.259
170.88
164.669
158.626
152.752
147.037
141.484
136.06
130.785
125.673
120.736
115.99
111.449
107.138
103.065
99.2938
95.8463
92.8271
90.6679
30.5208
15.2798
12.3459
11.6208
11.6415
12.0726
12.777
13.6962
14.8018
16.0774
17.5107
19.09
20.8032
22.6389
24.5877
26.6419
28.7969
31.0494
33.3982
35.8424
38.3817
41.0152
43.7405
46.554
49.4533
52.4361
55.5004
58.6447
61.8682
65.1708
68.5529
72.0139
75.553
79.1689
82.861
86.6285
90.4704
94.3854
98.3735
102.434
106.566
110.77
115.044
119.388
123.801
128.285
132.837
137.459
142.151
146.912
151.743
156.644
161.615
166.657
171.77
176.953
182.206
187.53
192.923
198.384
203.912
209.505
215.16
220.874
226.644
232.465
238.332
244.239
250.18
256.145
262.128
268.118
274.105
280.079
286.027
291.937
297.795
303.589
309.304
314.925
320.438
325.829
331.085
336.191
341.135
345.905
350.49
354.882
359.07
363.046
366.805
370.341
373.652
376.736
379.59
382.216
384.616
386.795
388.762
390.526
392.096
393.476
394.67
395.684
396.52
397.183
397.678
398.023
398.217
398.233
398.073
397.865
397.511
397
396.382
395.671
394.85
393.911
392.829
391.617
390.292
388.832
387.237
385.504
383.637
381.629
379.469
377.146
374.645
371.951
369.055
365.951
362.628
359.073
355.273
351.214
346.884
342.273
337.373
332.179
326.687
320.899
314.818
308.452
301.814
294.922
287.801
280.48
272.995
265.385
257.691
249.96
242.237
234.574
226.995
219.509
212.122
204.846
197.695
190.682
183.791
177.085
170.558
164.217
158.063
152.099
146.321
140.729
135.309
130.044
124.923
119.963
115.184
110.609
106.26
102.157
98.3414
94.8553
91.7567
89.2549
36.0671
18.0976
14.4889
13.5051
13.4059
13.7666
14.4274
15.313
16.3864
17.6261
19.0184
20.5521
22.2172
24.0049
25.9074
27.9185
30.0335
32.2493
34.5641
36.9766
39.486
42.0912
44.7913
47.5846
50.4699
53.446
56.5122
59.6677
62.9125
66.2463
69.6695
73.1817
76.7828
80.4721
84.2493
88.1136
92.0644
96.101
100.223
104.429
108.719
113.093
117.549
122.088
126.708
131.41
136.194
141.06
146.008
151.039
156.153
161.351
166.634
172.001
177.455
182.995
188.623
194.338
200.14
206.029
212.004
218.063
224.206
230.429
236.73
243.103
249.544
256.047
262.606
269.211
275.854
282.525
289.213
295.905
302.588
309.246
315.866
322.43
328.921
335.323
341.617
347.786
353.812
359.678
365.367
370.863
376.151
381.219
386.053
390.642
394.976
399.047
402.852
406.384
409.643
412.626
415.335
417.775
419.952
421.875
423.551
424.987
426.19
427.169
427.931
428.483
428.815
428.909
428.775
428.483
428.031
427.432
426.666
425.733
424.65
423.427
422.06
420.541
418.866
417.04
415.068
412.945
410.672
408.245
405.665
402.924
400.016
396.933
393.667
390.207
386.548
382.682
378.602
374.295
369.752
364.963
359.918
354.608
349.026
343.168
337.032
330.618
323.932
316.983
309.787
302.366
294.747
286.961
279.043
271.031
262.965
254.885
246.83
238.838
230.934
223.132
215.445
207.886
200.469
193.208
186.106
179.187
172.462
165.937
159.616
153.501
147.592
141.889
136.383
131.064
125.904
120.884
116.035
111.388
106.967
102.797
98.9092
95.3458
92.1448
89.3761
41.1007
20.7001
16.4546
15.2134
14.9915
15.2754
15.8834
16.7256
17.7572
18.9531
20.2977
21.7802
23.3919
25.1258
26.9757
28.9367
31.005
33.1779
35.4536
37.8308
40.3088
42.8869
45.5647
48.3418
51.2178
54.1926
57.2663
60.4388
63.7107
67.0823
70.5542
74.1266
77.7999
81.5739
85.4487
89.4238
93.4992
97.6741
101.948
106.321
110.792
115.36
120.026
124.788
129.646
134.602
139.653
144.802
150.048
155.392
160.836
166.379
172.024
177.771
183.621
189.577
195.638
201.807
208.082
214.466
220.956
227.554
234.258
241.064
247.972
254.976
262.071
269.253
276.514
283.845
291.237
298.679
306.158
313.661
321.171
328.674
336.15
343.581
350.946
358.226
365.399
372.443
379.336
386.057
392.585
398.899
404.981
410.813
416.378
421.66
426.647
431.329
435.697
439.745
443.469
446.867
449.939
452.688
455.12
457.241
459.061
460.587
461.83
462.799
463.507
463.938
464.07
463.914
463.551
462.972
462.185
461.197
460.007
458.616
457.035
455.269
453.32
451.187
448.869
446.369
443.692
440.838
437.807
434.599
431.213
427.645
423.891
419.947
415.809
411.471
406.931
402.183
397.222
392.042
386.636
380.997
375.119
368.995
362.622
355.996
349.117
341.988
334.617
327.016
319.203
311.203
303.042
294.752
286.367
277.921
269.452
260.995
252.583
244.248
236.013
227.895
219.907
212.065
204.382
196.87
189.538
182.4
175.468
168.747
162.243
155.96
149.898
144.056
138.429
133.009
127.776
122.684
117.751
113.016
108.511
104.259
100.288
96.6323
93.3188
90.3342
45.5364
23.0303
18.2016
16.7147
16.3712
16.5767
17.1287
17.9241
18.9112
20.0614
21.3575
22.7884
24.3463
26.0253
27.8206
29.7286
31.7464
33.8718
36.1036
38.4409
40.8833
43.4306
46.0832
48.8412
51.7054
54.6761
57.7542
60.9405
64.2361
67.6421
71.1597
74.79
78.5337
82.3915
86.3638
90.451
94.6531
98.9699
103.402
107.947
112.608
117.381
122.269
127.269
132.383
137.611
142.952
148.407
153.978
159.664
165.468
171.39
177.433
183.597
189.885
196.298
202.837
209.505
216.303
223.23
230.288
237.477
244.796
252.242
259.814
267.508
275.319
283.242
291.268
299.39
307.597
315.876
324.215
332.598
341.007
349.425
357.83
366.201
374.515
382.748
390.874
398.867
406.701
414.351
421.791
428.995
435.94
442.605
448.967
455.007
460.709
466.059
471.047
475.663
479.902
483.759
487.235
490.331
493.053
495.405
497.398
499.04
500.342
501.318
501.971
502.268
502.22
501.886
501.278
500.405
499.273
497.892
496.263
494.393
492.286
489.952
487.391
484.607
481.601
478.377
474.938
471.288
467.427
463.358
459.082
454.597
449.902
444.998
439.882
434.556
429.018
423.271
417.31
411.136
404.747
398.141
391.315
384.268
377
369.51
361.803
353.886
345.767
337.464
328.994
320.382
311.656
302.844
293.979
285.092
276.216
267.382
258.619
249.954
241.405
232.992
224.726
216.623
208.693
200.95
193.402
186.06
178.933
172.028
165.349
158.902
152.687
146.703
140.947
135.411
130.079
124.904
119.881
115.059
110.469
106.134
102.077
98.328
94.9029
91.7431
49.3263
25.0552
19.7091
17.9957
17.5357
17.6649
18.1613
18.9103
19.854
20.9602
22.2103
23.5926
25.0997
26.7261
28.4683
30.3233
32.2895
34.3653
36.5501
38.8437
41.2464
43.7586
46.3813
49.1156
51.9629
54.9244
58.0012
61.1946
64.5065
67.9389
71.4945
75.1751
78.9825
82.9179
86.9826
91.1773
95.503
99.96
104.549
109.269
114.122
119.107
124.223
129.472
134.854
140.368
146.015
151.796
157.713
163.766
169.956
176.286
182.758
189.372
196.132
203.039
210.096
217.304
224.665
232.18
239.85
247.675
255.655
263.789
272.074
280.507
289.083
297.796
306.639
315.603
324.675
333.844
343.094
352.41
361.771
371.156
380.544
389.908
399.223
408.461
417.592
426.587
435.414
444.043
452.444
460.586
468.442
475.984
483.187
490.028
496.484
502.54
508.181
513.398
518.181
522.526
526.43
529.896
532.926
535.528
537.709
539.479
540.851
541.838
542.43
542.618
542.428
541.898
541.04
539.864
538.38
536.596
534.516
532.148
529.497
526.57
523.371
519.903
516.17
512.176
507.925
503.42
498.667
493.667
488.423
482.937
477.213
471.252
465.059
458.638
451.994
445.132
438.056
430.771
423.281
415.592
407.707
399.631
391.369
382.928
374.317
365.546
356.628
347.581
338.424
329.18
319.876
310.538
301.196
291.877
282.609
273.419
264.329
255.363
246.538
237.867
229.362
221.036
212.898
204.96
197.229
189.714
182.421
175.358
168.528
161.936
155.585
149.472
143.595
137.947
132.512
127.245
122.137
117.235
112.568
108.158
104.024
100.189
96.6613
93.3615
52.4496
26.7589
20.9708
19.0558
18.4881
18.5458
18.9893
19.6943
20.5974
21.6634
22.8721
24.2109
25.6723
27.2512
28.9444
30.75
32.6667
34.694
36.832
39.0812
41.4427
43.9177
46.5083
49.2165
52.0451
54.9967
58.0695
61.2649
64.5857
68.0343
71.619
75.3425
79.2069
83.2143
87.3667
91.6658
96.113
100.71
105.457
110.356
115.406
120.61
125.966
131.475
137.139
142.958
148.932
155.062
161.35
167.798
174.406
181.177
188.112
195.214
202.485
209.928
217.544
225.335
233.304
241.452
249.78
258.289
266.977
275.845
284.889
294.106
303.492
313.041
322.743
332.59
342.569
352.667
362.868
373.153
383.501
393.889
404.292
414.681
425.028
435.299
445.463
455.485
465.329
474.96
484.343
493.443
502.227
510.663
518.722
526.374
533.595
540.365
546.668
552.49
557.821
562.655
566.988
570.822
574.159
577.006
579.372
581.267
582.702
583.688
584.221
584.307
583.969
583.228
582.107
580.617
578.767
576.566
574.021
571.137
567.921
564.378
560.514
556.332
551.837
547.032
541.924
536.515
530.811
524.816
518.537
511.976
505.14
498.035
490.671
483.055
475.199
467.114
458.81
450.3
441.597
432.713
423.662
414.457
405.112
395.639
386.055
376.374
366.611
356.787
346.92
337.033
327.147
317.29
307.485
297.757
288.126
278.615
269.241
260.021
250.968
242.091
233.401
224.905
216.611
208.528
200.661
193.017
185.602
178.419
171.473
164.769
158.311
152.096
146.12
140.375
134.846
129.49
124.31
119.344
114.617
110.148
105.951
102.044
98.4304
95.023
54.9053
28.1374
21.9899
19.9036
19.2405
19.2347
19.6281
20.2926
21.1593
22.1903
23.3636
24.6659
26.089
27.6279
29.2797
31.0428
32.9166
34.9012
36.9975
39.2069
41.5312
43.9729
46.5347
49.2203
52.0347
54.9799
58.0485
61.2459
64.5754
68.0395
71.6534
75.4186
79.3393
83.4198
87.6627
92.0702
96.6453
101.39
106.307
111.397
116.661
122.101
127.718
133.513
139.486
145.639
151.973
158.489
165.188
172.072
179.142
186.4
193.849
201.489
209.325
217.356
225.587
234.017
242.651
251.488
260.529
269.775
279.226
288.879
298.733
308.783
319.024
329.45
340.051
350.818
361.736
372.793
383.969
395.245
406.598
418.003
429.431
440.852
452.233
463.538
474.731
485.773
496.625
507.245
517.595
527.635
537.326
546.634
555.523
563.96
571.919
579.374
586.307
592.703
598.55
603.84
608.57
612.739
616.352
619.415
621.936
623.926
625.398
626.362
626.823
626.789
626.265
625.284
623.874
622.045
619.807
617.167
614.132
610.709
606.902
602.717
598.159
593.231
587.938
582.284
576.274
569.912
563.205
556.158
548.777
541.07
533.046
524.716
516.091
507.186
498.019
488.607
478.97
469.13
459.109
448.93
438.618
428.195
417.684
407.109
396.492
385.849
375.204
364.578
353.99
343.455
332.998
322.639
312.399
302.296
292.347
282.565
272.962
263.548
254.33
245.313
236.502
227.902
219.516
211.349
203.406
195.691
188.206
180.954
173.937
167.165
160.64
154.357
148.313
142.498
136.895
131.467
126.238
121.232
116.469
111.964
107.725
103.767
100.088
96.6047
56.7105
29.1955
22.7741
20.5496
19.8028
19.7439
20.0958
20.7263
21.5631
22.5665
23.7128
24.988
26.3833
27.8936
29.516
31.2489
33.0924
35.047
37.1144
39.2968
41.5974
44.0196
46.566
49.2401
52.0473
54.9857
58.0578
61.2681
64.6216
68.1242
71.7848
75.6102
79.6063
83.7781
88.1299
92.6661
97.3918
102.311
107.427
112.741
118.256
123.974
129.895
136.021
142.355
148.896
155.647
162.609
169.782
177.169
184.771
192.588
200.624
208.879
217.354
226.053
234.975
244.123
253.497
263.098
272.926
282.981
293.261
303.763
314.485
325.422
336.567
347.912
359.449
371.165
383.046
395.076
407.236
419.504
431.856
444.264
456.698
469.124
481.506
493.806
505.983
517.995
529.798
541.348
552.601
563.512
574.041
584.145
593.789
602.935
611.553
619.614
627.1
633.991
640.276
645.946
650.998
655.431
659.249
662.459
665.072
667.098
668.552
669.446
669.786
669.58
668.814
667.548
665.806
663.598
660.932
657.816
654.256
650.257
645.823
640.96
635.67
629.957
623.824
617.276
610.316
602.95
595.182
587.022
578.475
569.553
560.267
550.632
540.663
530.383
519.815
508.986
497.924
486.661
475.231
463.671
452.013
440.295
428.55
416.812
405.114
393.474
381.92
370.476
359.13
347.932
336.903
326.062
315.424
304.999
294.794
284.814
275.061
265.537
256.241
247.172
238.327
229.708
221.313
213.144
205.201
197.487
190.002
182.745
175.711
168.922
162.378
156.073
149.999
144.146
138.494
133.038
127.793
122.779
118.01
113.496
109.242
105.258
101.538
98.0108
57.8897
29.9432
23.3359
21.0097
20.1979
20.0977
20.4181
21.0239
21.8408
22.8275
23.9595
25.2219
26.6056
28.105
29.717
31.4405
33.2755
35.2233
37.2863
39.4668
41.7676
44.1919
46.7434
49.4263
52.2451
55.2041
58.3082
61.563
64.9754
68.5526
72.3027
76.2334
80.3522
84.6658
89.1808
93.9031
98.8385
103.992
109.371
114.978
120.815
126.886
133.192
139.735
146.517
153.54
160.805
168.314
176.065
184.062
192.304
200.792
209.527
218.509
227.738
237.216
246.942
256.915
267.136
277.602
288.314
299.268
310.461
321.89
333.55
345.433
357.532
369.838
382.339
395.021
407.87
420.867
433.993
447.223
460.531
473.889
487.263
500.618
513.916
527.116
540.174
553.045
565.682
578.037
590.062
601.711
612.938
623.7
633.956
643.667
652.8
661.326
669.222
676.471
683.059
688.978
694.223
698.796
702.701
705.947
708.543
710.505
711.847
712.59
712.72
712.251
711.159
709.54
707.4
704.749
701.594
697.942
693.8
689.17
684.056
678.461
672.387
665.836
658.809
651.311
643.345
634.915
626.027
616.689
606.911
596.705
586.085
575.07
563.683
551.95
539.902
527.575
515.009
502.247
489.333
476.319
463.249
450.177
437.146
424.189
411.312
398.59
386.072
373.797
361.809
350.067
338.583
327.371
316.439
305.789
295.419
285.327
275.505
265.947
256.645
247.593
238.783
230.21
221.869
213.758
205.876
198.222
190.794
183.587
176.592
169.85
163.345
157.07
151.014
145.165
139.522
134.089
128.87
123.887
119.147
114.656
110.416
106.435
102.703
99.1641
58.5342
30.4113
23.6961
21.3049
20.4507
20.3247
20.6287
21.225
22.0386
23.0272
24.1659
25.4393
26.8377
28.3554
29.9892
31.7382
33.6028
35.5833
37.6813
39.8998
42.2426
44.7142
47.3195
50.0641
52.9541
55.9957
59.1963
62.5636
66.1059
69.8317
73.7502
77.8706
82.2018
86.7524
91.531
96.5452
101.802
107.31
113.074
119.098
125.389
131.949
138.78
145.886
153.269
160.928
168.865
177.081
185.575
194.347
203.397
212.723
222.324
232.198
242.345
252.76
263.443
274.389
285.597
297.061
308.778
320.743
332.95
345.392
358.061
370.949
384.043
397.333
410.804
424.442
438.229
452.145
466.169
480.277
494.44
508.628
522.808
536.942
550.992
564.915
578.666
592.198
605.461
618.407
630.985
643.147
654.844
666.033
676.671
686.718
696.14
704.906
712.995
720.388
727.071
733.038
738.285
742.814
746.63
749.743
752.166
753.913
755.002
755.446
755.246
754.375
752.871
750.795
748.159
744.97
741.237
736.966
732.16
726.821
720.952
714.551
707.621
700.159
692.169
683.65
674.608
665.043
654.964
644.378
633.297
621.734
609.709
597.242
584.363
571.106
557.508
543.612
529.477
515.156
500.704
486.186
471.595
457.039
442.61
428.406
414.51
400.884
387.577
374.674
362.04
349.752
337.83
326.28
315.102
304.29
293.832
283.713
273.916
264.424
255.221
246.29
237.618
229.193
221.006
213.049
205.319
197.81
190.52
183.442
176.553
169.908
163.484
157.279
151.274
145.48
139.899
134.533
129.381
124.472
119.801
115.371
111.18
107.232
103.518
100.001
58.5182
30.5794
23.8623
21.4575
20.5946
20.4697
20.7838
21.3989
22.2401
23.2658
24.4511
25.7797
27.2418
28.8315
30.5453
32.3819
34.3412
36.4248
38.6352
40.9761
43.4522
46.069
48.833
51.7511
54.8311
58.0814
61.5113
65.1305
68.9491
72.9774
77.2264
81.7069
86.4298
91.4057
96.6452
102.158
107.952
114.035
120.413
127.093
134.084
141.386
149.003
156.936
165.187
173.756
182.641
191.842
201.356
211.18
221.311
231.745
242.476
253.501
264.812
276.403
288.268
300.4
312.79
325.432
338.315
351.432
364.772
378.324
392.076
406.015
420.127
434.396
448.806
463.338
477.974
492.693
507.473
522.288
537.111
551.912
566.656
581.309
595.832
610.181
624.314
638.184
651.741
664.937
677.721
690.045
701.86
713.123
723.793
733.831
743.202
751.877
759.835
767.058
773.535
779.259
784.228
788.445
791.917
794.655
796.673
797.989
798.621
798.57
797.831
796.381
794.303
791.614
788.329
784.457
780.006
774.979
769.378
763.203
756.453
749.124
741.216
732.726
723.653
713.998
703.763
692.95
681.566
669.62
657.125
644.097
630.559
616.536
602.064
587.187
571.949
556.399
540.571
524.517
508.359
492.182
476.197
460.361
444.764
429.549
414.578
399.982
385.82
372.132
358.907
346.159
333.896
322.116
310.807
299.954
289.531
279.512
269.866
260.565
251.583
242.896
234.48
226.318
218.393
210.697
203.219
195.952
188.891
182.031
175.36
168.895
162.624
156.555
150.689
145.031
139.583
134.345
129.312
124.511
119.94
115.598
111.483
107.595
103.931
100.469
58.2894
30.5717
23.9027
21.531
20.7038
20.625
21
21.6898
22.6202
23.7496
25.0535
26.5173
28.132
29.8921
31.7949
33.8395
36.0268
38.3588
40.8392
43.4728
46.2654
49.2242
52.3568
55.6717
59.1783
62.8868
66.8083
70.9543
75.3367
79.9677
84.8599
90.0258
95.4782
101.23
107.293
113.679
120.4
127.46
134.864
142.614
150.714
159.168
167.978
177.144
186.665
196.537
206.756
217.318
228.216
239.442
250.988
262.844
274.999
287.444
300.166
313.153
326.392
339.87
353.573
367.489
381.604
395.903
410.371
424.993
439.753
454.631
469.611
484.672
499.795
514.962
530.152
545.344
560.517
575.646
590.707
605.671
620.509
635.188
649.673
663.926
677.907
691.572
704.877
717.774
730.219
742.164
753.565
764.381
774.574
784.108
792.95
801.076
808.465
815.101
820.974
826.079
830.417
833.989
836.806
838.875
840.217
840.851
840.778
840.009
838.495
836.313
833.476
830.006
825.914
821.211
815.9
809.984
803.46
796.325
788.574
780.203
771.205
761.579
751.32
740.428
728.901
716.746
703.965
690.572
676.578
662.008
646.888
631.244
615.114
598.494
581.472
564.137
546.63
529.06
511.467
494.026
476.626
459.442
442.584
426.147
410.162
394.697
379.805
365.52
351.847
338.789
326.34
314.487
303.207
292.47
282.239
272.473
263.127
254.162
245.541
237.23
229.2
221.422
213.877
206.551
199.433
192.506
185.768
179.215
172.826
166.621
160.602
154.772
149.135
143.694
138.451
133.407
128.562
123.927
119.504
115.294
111.295
107.506
103.919
100.537
57.5159
30.3413
23.8524
21.5829
20.8595
20.8954
21.4045
22.2498
23.3608
24.6985
26.2403
27.973
29.8894
31.9856
34.2603
36.7143
39.3499
42.1707
45.1815
48.3886
51.7996
55.4227
59.267
63.342
67.6581
72.2269
77.0601
82.1699
87.5689
93.2695
99.2844
105.627
112.309
119.345
126.751
134.533
142.692
151.231
160.154
169.46
179.149
189.219
199.667
210.488
221.676
233.221
245.114
257.343
269.896
282.757
295.913
309.347
323.043
336.984
351.151
365.527
380.092
394.829
409.718
424.741
439.881
455.12
470.438
485.816
501.235
516.672
532.106
547.516
562.883
578.185
593.405
608.523
623.521
638.378
653.075
667.588
681.894
695.967
709.779
723.3
736.495
749.328
761.76
773.752
785.263
796.253
806.684
816.519
825.725
834.269
842.124
849.266
855.679
861.349
866.265
870.425
873.829
876.477
878.386
879.551
880.005
879.761
878.805
877.116
874.738
871.684
867.969
863.609
858.614
852.991
846.741
839.862
832.348
824.193
815.387
805.922
795.791