/*--------------------------------*- C++ -*----------------------------------*\
  =========                 |
  \\      /  F ield         | OpenFOAM: The Open Source CFD Toolbox
   \\    /   O peration     | Website:  https://openfoam.org
    \\  /    A nd           | Version:  8
     \\/     M anipulation  |
\*---------------------------------------------------------------------------*/
FoamFile
{
    version     2.0;
    format      ascii;
    class       volScalarField;
    location    "110";
    object      k;
}
// * * * * * * * * * * * * * * * * * * * * * * * * * * * * * * * * * * * * * //

dimensions      [0 2 -2 0 0 0 0];

internalField   nonuniform List<scalar> 
12225
(
0.362816
0.343998
0.327733
0.309836
0.295371
0.283523
0.275456
0.270306
0.270348
0.271903
0.276073
0.280741
0.28995
0.296001
0.306826
0.31372
0.324742
0.335157
0.440193
0.468694
0.461605
0.448371
0.450358
0.458326
0.474423
0.498825
0.524282
0.552526
0.580775
0.606753
0.634193
0.654804
0.680837
0.6951
0.720928
0.734144
0.390546
0.417867
0.420231
0.416823
0.411632
0.407804
0.40801
0.410048
0.414512
0.421517
0.430757
0.439873
0.451362
0.461475
0.473316
0.484423
0.494634
0.509098
0.377546
0.38698
0.391408
0.391342
0.390222
0.387896
0.38566
0.384084
0.382877
0.3829
0.383402
0.384354
0.386364
0.388561
0.391074
0.394546
0.39698
0.402022
0.374562
0.376089
0.378413
0.378665
0.378263
0.377204
0.375488
0.373737
0.372009
0.370452
0.369259
0.368112
0.36739
0.366842
0.366476
0.366459
0.366516
0.367022
0.373815
0.372709
0.372645
0.372383
0.371761
0.370815
0.369553
0.36808
0.366569
0.364973
0.363523
0.362062
0.360749
0.359536
0.358398
0.357455
0.356482
0.355882
0.373783
0.371742
0.370386
0.369286
0.368234
0.367113
0.365914
0.364585
0.363235
0.361805
0.360416
0.359019
0.357668
0.356377
0.355111
0.353964
0.352796
0.351824
0.37382
0.37156
0.369634
0.367976
0.3665
0.365107
0.363774
0.362427
0.361104
0.359763
0.358445
0.357138
0.355854
0.354612
0.353389
0.352238
0.351089
0.35005
0.373832
0.371553
0.369449
0.367525
0.365776
0.364153
0.362643
0.361197
0.359814
0.35847
0.357164
0.355896
0.354659
0.353465
0.352296
0.351183
0.350086
0.349065
0.373831
0.37156
0.369418
0.367405
0.365528
0.363772
0.362132
0.360584
0.35912
0.357725
0.35639
0.355112
0.353881
0.352702
0.35156
0.350472
0.349411
0.348415
0.373829
0.37156
0.369413
0.367378
0.365458
0.363645
0.361936
0.360323
0.358797
0.35735
0.355976
0.354668
0.353419
0.352229
0.351088
0.350002
0.348954
0.347967
0.373828
0.371558
0.369409
0.36737
0.365439
0.363608
0.361875
0.360233
0.358676
0.3572
0.355797
0.354465
0.353197
0.351991
0.350839
0.349744
0.348694
0.347702
0.373827
0.371556
0.369405
0.367365
0.36543
0.363593
0.361851
0.360196
0.358625
0.357133
0.355714
0.354366
0.353083
0.351863
0.350699
0.349594
0.348537
0.347536
0.373827
0.371555
0.369401
0.36736
0.365422
0.363583
0.361837
0.360177
0.3586
0.357101
0.355674
0.354317
0.353024
0.351795
0.350623
0.349508
0.348444
0.347433
0.373826
0.371553
0.369398
0.367355
0.365416
0.363575
0.361826
0.360164
0.358585
0.357082
0.355652
0.35429
0.352994
0.35176
0.350583
0.349463
0.348394
0.347377
0.373826
0.371552
0.369396
0.367351
0.36541
0.363568
0.361817
0.360154
0.358572
0.357068
0.355636
0.354272
0.352974
0.351737
0.350558
0.349435
0.348364
0.347343
0.373825
0.371551
0.369394
0.367348
0.365406
0.363562
0.36181
0.360146
0.358562
0.357056
0.355623
0.354258
0.352958
0.35172
0.350539
0.349414
0.348341
0.347317
0.373825
0.371551
0.369393
0.367346
0.365403
0.363558
0.361806
0.36014
0.358556
0.357048
0.355614
0.354248
0.352947
0.351707
0.350525
0.349398
0.348323
0.347298
0.373825
0.37155
0.369393
0.367346
0.365402
0.363557
0.361804
0.360137
0.358553
0.357045
0.355609
0.354242
0.35294
0.351699
0.350517
0.349389
0.348313
0.347286
0.373825
0.371551
0.369393
0.367346
0.365404
0.363559
0.361806
0.36014
0.358555
0.357047
0.355612
0.354245
0.352943
0.351702
0.35052
0.349391
0.348315
0.347288
0.373825
0.371551
0.369395
0.367349
0.365407
0.363563
0.361811
0.360146
0.358562
0.357056
0.355622
0.354257
0.352956
0.351717
0.350535
0.349409
0.348335
0.34731
0.373826
0.371552
0.369397
0.367352
0.365412
0.363571
0.361822
0.360162
0.358584
0.357083
0.355657
0.354299
0.353007
0.351776
0.350603
0.349484
0.348419
0.3474
0.373826
0.371554
0.369399
0.367359
0.365429
0.363603
0.361875
0.36024
0.358691
0.357221
0.355824
0.354494
0.353228
0.352019
0.350867
0.349763
0.348712
0.347701
0.373828
0.371551
0.369412
0.367417
0.365556
0.363819
0.362189
0.360651
0.359189
0.357794
0.356456
0.355172
0.353936
0.352746
0.351601
0.350496
0.349437
0.348411
0.373823
0.371554
0.369604
0.367893
0.366339
0.364892
0.363495
0.362122
0.360761
0.359414
0.358081
0.35677
0.355489
0.354238
0.353029
0.351856
0.350735
0.349646
0.373788
0.371991
0.371113
0.370266
0.36936
0.368311
0.367048
0.36563
0.364121
0.362575
0.36103
0.359523
0.358074
0.356683
0.355382
0.354142
0.353011
0.351925
0.374355
0.375572
0.377775
0.377857
0.377288
0.375886
0.373836
0.371641
0.369505
0.367482
0.365664
0.364084
0.362711
0.361536
0.360611
0.35982
0.359292
0.358803
0.379125
0.394296
0.398249
0.396573
0.392538
0.387603
0.383646
0.380448
0.378269
0.376852
0.376498
0.376741
0.377417
0.378693
0.380444
0.382426
0.384831
0.387144
0.408394
0.42754
0.422415
0.411055
0.402226
0.397924
0.398626
0.400963
0.40607
0.413055
0.421
0.429831
0.43884
0.448198
0.457316
0.466567
0.47534
0.484208
0.36605
0.353415
0.341989
0.330209
0.318983
0.308381
0.299411
0.291671
0.285404
0.280333
0.276682
0.273867
0.272311
0.271173
0.271211
0.271473
0.27219
0.273391
0.00979654
0.0300734
0.0460655
0.0604777
0.0739912
0.0868223
0.0987899
0.109493
0.11825
0.12377
0.123791
0.114115
0.115239
0.120307
0.126176
0.133387
0.139727
0.145799
0.151216
0.154251
0.15517
0.152637
0.166051
0.178606
0.192365
0.206654
0.22155
0.236851
0.252551
0.268507
0.28472
0.301063
0.317557
0.334088
0.35069
0.367261
0.38385
0.400368
0.416875
0.433289
0.449678
0.46597
0.48224
0.498421
0.514587
0.530671
0.546746
0.56275
0.578752
0.594693
0.610636
0.626524
0.642415
0.658252
0.674085
0.689856
0.705615
0.721299
0.736951
0.752511
0.768014
0.783401
0.798696
0.813844
0.828861
0.843694
0.858354
0.872789
0.887002
0.900944
0.914614
0.927964
0.940992
0.953649
0.965935
0.977803
0.989252
1.00024
1.01077
1.0208
1.03034
1.03937
1.0479
1.05593
1.06345
1.07044
1.07694
1.08292
1.08845
1.09351
1.09812
1.10235
1.10626
1.10987
1.11316
1.11613
1.1187
1.12061
1.12072
1.12289
1.12776
1.12767
1.12944
1.1351
1.13477
1.13685
1.14421
1.14576
1.14944
1.15132
1.15393
1.15287
1.15529
1.15759
1.16555
1.16342
1.16485
1.17283
1.16994
1.17182
1.18
1.17888
1.17737
1.17806
1.18151
1.17831
1.17994
1.17584
1.1748
1.17629
1.17101
1.16713
1.16182
1.156
1.14908
1.14133
1.13258
1.12289
1.1122
1.1006
1.08814
1.07476
1.06031
1.04485
1.02849
1.01126
0.993173
0.974341
0.954841
0.934554
0.913781
0.893125
0.871173
0.850106
0.835605
0.822567
0.809447
0.796103
0.782548
0.768846
0.755141
0.741242
0.727165
0.713184
0.699372
0.685694
0.672164
0.65858
0.645189
0.632014
0.619093
0.606461
0.594121
0.582027
0.570282
0.558222
0.547458
0.532863
0.52351
0.491875
0.0239655
0.0572877
0.0790745
0.0960227
0.110933
0.124714
0.137714
0.149904
0.161034
0.170717
0.178702
0.185545
0.194502
0.205504
0.218004
0.231712
0.246125
0.261382
0.27664
0.292965
0.313207
0.341534
0.368537
0.392644
0.417056
0.442481
0.468879
0.496065
0.523914
0.552303
0.581151
0.610364
0.639885
0.669638
0.699583
0.729657
0.759838
0.790079
0.820373
0.850688
0.881027
0.911371
0.941736
0.972109
1.0025
1.03292
1.06336
1.09384
1.12436
1.15493
1.18555
1.21623
1.24698
1.27779
1.30866
1.33959
1.37057
1.40158
1.43262
1.46366
1.49469
1.52568
1.55661
1.58743
1.61811
1.64862
1.67892
1.70894
1.73866
1.76801
1.79694
1.82539
1.85331
1.88064
1.90731
1.93328
1.95848
1.98285
2.00634
2.0289
2.05048
2.07104
2.09054
2.10894
2.12626
2.14252
2.15772
2.17187
2.18499
2.19706
2.2081
2.21818
2.22732
2.23558
2.24304
2.24975
2.25578
2.26116
2.26599
2.27071
2.275
2.27862
2.28281
2.2868
2.29009
2.29434
2.29865
2.30236
2.3058
2.30956
2.31273
2.31616
2.32052
2.32514
2.32912
2.33212
2.33664
2.34078
2.34358
2.34799
2.35178
2.35489
2.35773
2.35901
2.36259
2.36269
2.36336
2.3631
2.36309
2.3619
2.35918
2.35566
2.35102
2.34543
2.33833
2.32967
2.31934
2.30726
2.29334
2.27755
2.25983
2.24017
2.21851
2.19487
2.16924
2.14171
2.11237
2.08133
2.04872
2.01462
1.97909
1.94252
1.90517
1.86665
1.82794
1.78874
1.749
1.70891
1.66867
1.62842
1.58837
1.54826
1.50799
1.46821
1.42913
1.3906
1.35253
1.31524
1.27886
1.24336
1.20882
1.17531
1.14283
1.1114
1.08099
1.05137
1.02334
0.993691
0.972967
0.923038
0.0429159
0.0873672
0.113656
0.13385
0.151538
0.167999
0.183831
0.199325
0.214635
0.229871
0.245241
0.261163
0.278281
0.296782
0.31664
0.337771
0.360035
0.383301
0.407642
0.433619
0.461939
0.492648
0.523966
0.555487
0.58763
0.620594
0.654383
0.688918
0.724111
0.759866
0.796101
0.83273
0.869685
0.906899
0.944322
0.981905
1.01962
1.05742
1.0953
1.13323
1.17121
1.20923
1.24729
1.28538
1.32351
1.36168
1.3999
1.43817
1.47649
1.51489
1.55335
1.59189
1.6305
1.66919
1.70796
1.7468
1.78571
1.82466
1.86366
1.90268
1.9417
1.98069
2.01962
2.05847
2.09719
2.13573
2.17406
2.21212
2.24985
2.28721
2.32412
2.36052
2.39634
2.43152
2.46599
2.49967
2.53249
2.56439
2.59529
2.62513
2.65385
2.6814
2.70772
2.73278
2.75655
2.77903
2.80019
2.82005
2.83859
2.85583
2.87176
2.88644
2.89991
2.91222
2.92343
2.93359
2.94276
2.951
2.9584
2.96508
2.97107
2.97653
2.98165
2.9862
2.99037
2.99445
2.99806
3.0013
3.00408
3.00696
3.00923
3.01157
3.01429
3.01688
3.01902
3.02116
3.02378
3.02581
3.02778
3.02959
3.03094
3.03223
3.0333
3.03319
3.03249
3.03089
3.02915
3.02665
3.02356
3.01915
3.01353
3.00665
2.99838
2.98859
2.97707
2.96365
2.94822
2.93066
2.91085
2.88874
2.86424
2.83733
2.80798
2.77619
2.742
2.70548
2.66673
2.62585
2.58297
2.53822
2.49172
2.44379
2.39496
2.34531
2.29511
2.24436
2.19315
2.14167
2.09013
2.03872
1.98764
1.9369
1.88658
1.83694
1.78818
1.74014
1.69249
1.64583
1.60032
1.55585
1.51253
1.4705
1.42975
1.39031
1.35222
1.31537
1.28027
1.24542
1.2177
1.17664
0.0636248
0.117237
0.148593
0.172419
0.193128
0.212387
0.231042
0.249592
0.268376
0.287646
0.307626
0.328531
0.350558
0.373805
0.398299
0.424024
0.450953
0.479075
0.508475
0.539348
0.571869
0.605977
0.641283
0.677517
0.71462
0.752576
0.791351
0.830877
0.871081
0.91188
0.953195
0.994947
1.03707
1.07951
1.12221
1.16513
1.20823
1.25148
1.29486
1.33836
1.38194
1.42562
1.46937
1.5132
1.55711
1.60109
1.64516
1.68931
1.73355
1.77788
1.82232
1.86686
1.91152
1.95628
2.00116
2.04614
2.09123
2.13641
2.18168
2.22701
2.27239
2.31779
2.36318
2.40854
2.45382
2.49897
2.54396
2.58872
2.6332
2.67733
2.72104
2.76427
2.80694
2.84897
2.89028
2.93078
2.9704
3.00905
3.04663
3.08309
3.11833
3.15228
3.18488
3.21607
3.2458
3.27404
3.30076
3.32593
3.34954
3.37158
3.39206
3.411
3.42844
3.44441
3.45896
3.47214
3.484
3.49462
3.50406
3.51243
3.51981
3.52632
3.53202
3.53691
3.54113
3.54475
3.54769
3.55005
3.55187
3.55335
3.55422
3.55476
3.55522
3.55544
3.55532
3.55509
3.55486
3.55437
3.55347
3.55157
3.54959
3.54734
3.54458
3.54104
3.53698
3.53208
3.52657
3.52022
3.51293
3.50438
3.49454
3.48329
3.47048
3.45596
3.43955
3.42107
3.4004
3.37739
3.35193
3.32393
3.29332
3.26004
3.22408
3.18543
3.14415
3.10029
3.05397
3.00528
2.95439
2.90151
2.84687
2.79081
2.73375
2.6759
2.61746
2.55853
2.49925
2.43982
2.38045
2.32135
2.26271
2.20463
2.14723
2.09069
2.03516
1.98066
1.92713
1.87481
1.82383
1.77387
1.72511
1.67781
1.6319
1.58748
1.54459
1.50325
1.46383
1.42581
1.39348
1.35145
0.0845248
0.146453
0.182863
0.210417
0.234191
0.256163
0.277372
0.298444
0.319812
0.341785
0.364604
0.38845
0.413459
0.439712
0.467253
0.496097
0.526253
0.557734
0.590582
0.624853
0.660587
0.697739
0.736177
0.775756
0.816373
0.857947
0.900405
0.943668
0.98766
1.0323
1.07752
1.12325
1.16942
1.216
1.26292
1.31014
1.35763
1.40535
1.45327
1.50138
1.54965
1.59808
1.64665
1.69535
1.74418
1.79314
1.84224
1.89146
1.94083
1.99034
2.04
2.08981
2.13978
2.18992
2.24022
2.29069
2.34132
2.39212
2.44306
2.49414
2.54534
2.59664
2.64802
2.69944
2.75086
2.80224
2.85353
2.90468
2.95562
3.00629
3.05661
3.10651
3.1559
3.20469
3.25279
3.30011
3.34654
3.39198
3.43634
3.47951
3.5214
3.56191
3.60096
3.63846
3.67434
3.70853
3.74099
3.77167
3.80054
3.82757
3.85274
3.87606
3.89756
3.91726
3.93518
3.95138
3.96591
3.97882
3.99019
4.00012
4.00869
4.01599
4.0221
4.02707
4.03099
4.03394
4.03592
4.03702
4.03739
4.03713
4.03594
4.03389
4.0316
4.02887
4.02566
4.02207
4.01812
4.01368
4.00863
4.00296
3.99681
3.99015
3.98286
3.97488
3.96619
3.95669
3.94635
3.93508
3.92272
3.90912
3.89417
3.87774
3.85968
3.83983
3.81803
3.79412
3.76792
3.73932
3.70818
3.6744
3.63791
3.59863
3.55655
3.51167
3.46402
3.41368
3.36076
3.30541
3.24783
3.18829
3.12705
3.06443
3.0008
2.93641
2.87144
2.80607
2.74046
2.67481
2.60933
2.54424
2.47972
2.41592
2.35299
2.29106
2.23029
2.17073
2.11241
2.05547
2.00002
1.946
1.89351
1.84266
1.79318
1.74527
1.69903
1.65454
1.61209
1.57172
1.53595
1.49404
0.104775
0.173993
0.215172
0.246319
0.273028
0.297527
0.321001
0.344172
0.367535
0.391453
0.416199
0.44198
0.468945
0.497195
0.526798
0.557789
0.590193
0.624023
0.659291
0.696003
0.734151
0.773692
0.81455
0.856631
0.899844
0.944103
0.989326
1.03543
1.08235
1.13001
1.17834
1.22728
1.27676
1.32675
1.37718
1.42802
1.47922
1.53076
1.58259
1.63469
1.68705
1.73964
1.79245
1.84546
1.89868
1.9521
2.00572
2.05953
2.11355
2.16777
2.22221
2.27687
2.33176
2.38688
2.44225
2.49785
2.5537
2.6098
2.66613
2.7227
2.77948
2.83647
2.89364
2.95095
3.00838
3.06588
3.1234
3.18088
3.23828
3.2955
3.35248
3.40912
3.46534
3.52104
3.57611
3.63044
3.68392
3.73643
3.78784
3.83804
3.88691
3.93432
3.98016
4.02433
4.06672
4.10725
4.14582
4.18238
4.21686
4.2492
4.27938
4.30739
4.33321
4.35687
4.37837
4.39776
4.41507
4.43037
4.44372
4.45521
4.46494
4.47298
4.47941
4.48432
4.48778
4.48993
4.4907
4.49014
4.48834
4.48566
4.48194
4.47729
4.47186
4.46564
4.45865
4.45099
4.44267
4.43364
4.42386
4.41334
4.40214
4.39023
4.37758
4.36414
4.34988
4.33472
4.31862
4.30149
4.28322
4.26369
4.2428
4.22041
4.19639
4.1706
4.14286
4.11304
4.08096
4.0465
4.00951
3.9699
3.92757
3.88245
3.83451
3.78375
3.73021
3.67398
3.6152
3.55405
3.49076
3.42559
3.35883
3.29077
3.22174
3.15199
3.08174
3.01117
2.94045
2.8698
2.79943
2.72953
2.6603
2.59191
2.52452
2.45827
2.39329
2.32966
2.26745
2.20675
2.14765
2.09019
2.03446
1.98055
1.92839
1.87806
1.82948
1.78271
1.73809
1.69586
1.6575
1.61531
0.123713
0.199107
0.244588
0.279036
0.308454
0.335273
0.360779
0.385764
0.410779
0.436225
0.462415
0.489588
0.517923
0.547552
0.578565
0.611021
0.644955
0.68038
0.717301
0.755704
0.795565
0.83684
0.879469
0.923378
0.968492
1.01473
1.06202
1.11029
1.15947
1.20949
1.26028
1.3118
1.36398
1.41676
1.47012
1.52399
1.57834
1.63312
1.68832
1.74389
1.79982
1.85607
1.91264
1.96951
2.02667
2.08411
2.14183
2.19984
2.25813
2.3167
2.37557
2.43475
2.49424
2.55405
2.61419
2.67467
2.7355
2.79667
2.85819
2.92006
2.98226
3.04478
3.10761
3.17073
3.23408
3.29765
3.36137
3.4252
3.48907
3.5529
3.61662
3.68013
3.74332
3.8061
3.86834
3.92993
3.99071
4.05057
4.10935
4.16691
4.22311
4.2778
4.33084
4.38208
4.4314
4.47867
4.52378
4.56663
4.60713
4.64519
4.68077
4.71381
4.74431
4.77224
4.79761
4.82045
4.84078
4.85865
4.87414
4.88732
4.89828
4.90711
4.9139
4.91875
4.92164
4.92264
4.92185
4.91954
4.91572
4.91051
4.90393
4.89609
4.88707
4.8769
4.86566
4.85342
4.8402
4.826
4.81085
4.79476
4.77777
4.75986
4.74106
4.72132
4.70064
4.67896
4.65624
4.63242
4.60742
4.58115
4.55354
4.52445
4.49379
4.46141
4.42718
4.39095
4.35258
4.31192
4.26885
4.22325
4.17503
4.12412
4.07048
4.01411
3.95507
3.89347
3.82946
3.76323
3.69501
3.62507
3.55367
3.48109
3.40761
3.33351
3.25898
3.18421
3.10941
3.03477
2.9605
2.88678
2.8138
2.74176
2.67081
2.60109
2.53274
2.46584
2.40049
2.33675
2.27472
2.21444
2.15602
2.09955
2.04504
1.99255
1.94209
1.89373
1.84758
1.80391
1.76357
1.72083
0.140868
0.221326
0.270548
0.307927
0.339785
0.368701
0.396038
0.422639
0.449088
0.475821
0.503178
0.531426
0.560774
0.591379
0.623356
0.656785
0.691712
0.728163
0.76614
0.805631
0.84661
0.889035
0.932854
0.978008
1.02443
1.07206
1.12082
1.17066
1.2215
1.27329
1.32597
1.37949
1.43379
1.48881
1.54453
1.60089
1.65784
1.71536
1.7734
1.83194
1.89095
1.9504
2.01027
2.07054
2.13121
2.19226
2.25369
2.3155
2.37769
2.44026
2.50323
2.5666
2.63039
2.6946
2.75925
2.82435
2.8899
2.95593
3.02242
3.0894
3.15684
3.22475
3.29311
3.36189
3.43108
3.50064
3.57051
3.64065
3.71098
3.78144
3.85194
3.92238
3.99265
4.06264
4.13221
4.20123
4.26954
4.33698
4.4034
4.46863
4.53248
4.59479
4.65538
4.71407
4.77071
4.82512
4.87718
4.92674
4.97367
5.01787
5.05924
5.09772
5.13326
5.16583
5.19541
5.22201
5.24564
5.26636
5.28421
5.29927
5.31163
5.32139
5.32864
5.33343
5.33566
5.33562
5.3335
5.32936
5.32329
5.3154
5.30575
5.29444
5.28155
5.26714
5.25129
5.23408
5.21556
5.19576
5.17473
5.1525
5.12911
5.10459
5.07896
5.05223
5.0244
4.99545
4.96536
4.93409
4.90161
4.86786
4.83278
4.79629
4.75831
4.71871
4.6774
4.63425
4.58913
4.5419
4.49246
4.44068
4.38647
4.32977
4.27054
4.20882
4.14465
4.07815
4.00947
3.9388
3.86637
3.7924
3.71715
3.64087
3.56382
3.48624
3.40835
3.33032
3.25236
3.17464
3.09737
3.02071
2.94487
2.87001
2.79631
2.72391
2.65294
2.58349
2.51566
2.44953
2.38518
2.32267
2.2621
2.20356
2.14711
2.09282
2.04071
1.9909
1.94352
1.89879
1.85697
1.8136
0.155952
0.240431
0.292804
0.33271
0.366705
0.397485
0.426459
0.454504
0.482227
0.510082
0.538427
0.567548
0.597673
0.628982
0.66161
0.695652
0.731175
0.768214
0.806783
0.846876
0.888473
0.931542
0.976042
1.02192
1.06913
1.11761
1.16731
1.21817
1.27013
1.32314
1.37716
1.43212
1.48799
1.54471
1.60225
1.66055
1.71958
1.77931
1.83969
1.90069
1.96228
2.02444
2.08715
2.15038
2.21411
2.27835
2.34308
2.4083
2.47401
2.54022
2.60694
2.67417
2.74193
2.81024
2.8791
2.94853
3.01855
3.08918
3.16041
3.23226
3.30474
3.37783
3.45153
3.52582
3.60069
3.6761
3.752
3.82835
3.90507
3.9821
4.05935
4.13672
4.21408
4.29132
4.36829
4.44484
4.52081
4.596
4.67025
4.74335
4.8151
4.88529
4.95372
5.02019
5.08447
5.1464
5.20576
5.2624
5.31616
5.36687
5.41443
5.45872
5.49968
5.53725
5.57139
5.60209
5.62934
5.65319
5.67368
5.69087
5.70486
5.71572
5.72359
5.7284
5.73023
5.72935
5.72589
5.71994
5.71161
5.701
5.6882
5.6733
5.6564
5.63758
5.61691
5.5945
5.5704
5.54469
5.5174
5.48862
5.45839
5.42676
5.39378
5.35949
5.32391
5.28706
5.24895
5.20957
5.16893
5.12701
5.08378
5.03922
4.99325
4.94583
4.89686
4.84626
4.79391
4.73972
4.68358
4.62539
4.56507
4.50257
4.43788
4.37102
4.30205
4.23108
4.15825
4.08372
4.00771
3.93041
3.85205
3.77286
3.69303
3.61283
3.53243
3.45203
3.37178
3.29186
3.21245
3.1337
3.05581
2.97894
2.90326
2.82893
2.75605
2.68474
2.61509
2.54717
2.48108
2.4169
2.35469
2.29457
2.23661
2.18088
2.12744
2.0764
2.0279
1.98216
1.93925
1.89533
0.16881
0.256373
0.31132
0.353339
0.389158
0.421551
0.45196
0.481281
0.510129
0.538969
0.568164
0.59801
0.628747
0.660567
0.693619
0.728015
0.763834
0.801128
0.839924
0.880227
0.922031
0.965314
1.01005
1.05619
1.10371
1.15256
1.2027
1.25407
1.30664
1.36036
1.41518
1.47106
1.52797
1.58585
1.64467
1.7044
1.76498
1.82639
1.8886
1.95156
2.01525
2.07964
2.1447
2.21042
2.27679
2.34377
2.41138
2.47961
2.54846
2.61792
2.68802
2.75876
2.83016
2.90223
2.97499
3.04846
3.12265
3.19759
3.27329
3.34975
3.427
3.50502
3.58383
3.6634
3.74373
3.82478
3.90652
3.98889
4.07185
4.1553
4.23917
4.32335
4.40772
4.49214
4.57648
4.66055
4.74419
4.82718
4.90933
4.99042
5.0702
5.14845
5.22492
5.29937
5.37156
5.44125
5.50821
5.57224
5.63314
5.6907
5.74478
5.79523
5.84196
5.88486
5.9239
5.95902
5.99021
6.0175
6.04091
6.06051
6.07636
6.08857
6.09724
6.10231
6.10398
6.10241
6.09776
6.09011
6.0796
6.06633
6.0504
6.03193
6.01099
5.9877
5.96214
5.93441
5.9046
5.87277
5.83902
5.80341
5.76603
5.72695
5.68623
5.64394
5.60014
5.55488
5.5082
5.46015
5.41076
5.36007
5.30808
5.25483
5.20028
5.14443
5.08725
5.02867
4.96863
4.90706
4.8439
4.77907
4.71252
4.64421
4.57414
4.50233
4.42886
4.3538
4.27726
4.19941
4.12041
4.04045
3.95969
3.87832
3.7965
3.71448
3.63243
3.5505
3.46883
3.38757
3.30686
3.22686
3.14773
3.06963
2.99274
2.91721
2.84314
2.77064
2.6998
2.63071
2.56346
2.49813
2.43481
2.37358
2.31454
2.25775
2.20331
2.15132
2.10191
2.05526
2.01135
1.96703
0.179383
0.269212
0.326191
0.369923
0.407247
0.440992
0.472621
0.503036
0.532856
0.562543
0.592463
0.62291
0.654127
0.686311
0.719619
0.754175
0.79007
0.827366
0.866106
0.906309
0.947983
0.991121
1.03571
1.08172
1.12913
1.17791
1.22804
1.27947
1.33218
1.38611
1.44125
1.49756
1.55499
1.61352
1.67312
1.73375
1.79538
1.85797
1.9215
1.98593
2.05123
2.11738
2.18435
2.25211
2.32066
2.38997
2.46004
2.53088
2.60246
2.67481
2.74793
2.82183
2.89652
2.97202
3.04835
3.12553
3.20358
3.28252
3.36237
3.44315
3.52487
3.60753
3.69115
3.77572
3.86122
3.94763
4.03492
4.12306
4.21197
4.30159
4.39184
4.48261
4.57377
4.6652
4.75673
4.84818
4.93937
5.03008
5.12007
5.20911
5.29693
5.38326
5.46784
5.55038
5.63059
5.70821
5.78295
5.85458
5.92284
5.9875
6.04836
6.10524
6.15801
6.20655
6.25077
6.2906
6.32602
6.35703
6.38364
6.40591
6.4239
6.43769
6.44738
6.453
6.45472
6.45269
6.44701
6.43784
6.4253
6.4095
6.39057
6.3686
6.34371
6.31599
6.28556
6.2525
6.21693
6.17893
6.1386
6.09603
6.05132
6.00455
5.95584
5.90525
5.8529
5.79884
5.74319
5.68601
5.62739
5.5674
5.50613
5.44363
5.37995
5.31512
5.24919
5.18213
5.11396
5.04464
4.97416
4.90248
4.82956
4.7554
4.68001
4.60341
4.52569
4.44688
4.36708
4.2864
4.20498
4.12297
4.04049
3.95768
3.87463
3.79159
3.70873
3.62612
3.54389
3.46213
3.38098
3.30055
3.22099
3.14245
3.06512
2.98914
2.91459
2.84158
2.7702
2.70054
2.6327
2.56678
2.50286
2.44101
2.38133
2.32389
2.2688
2.21616
2.16608
2.11871
2.07396
2.02929
0.187678
0.27907
0.337587
0.382651
0.421166
0.455997
0.488617
0.51993
0.550553
0.580942
0.611455
0.642382
0.673962
0.70639
0.739827
0.774398
0.810203
0.847315
0.885787
0.925654
0.966936
1.00964
1.05377
1.09932
1.14627
1.19462
1.24435
1.29544
1.34786
1.40159
1.45661
1.51288
1.57038
1.6291
1.689
1.75007
1.81227
1.87558
1.93997
2.00542
2.07188
2.13935
2.20779
2.27718
2.3475
2.41874
2.49088
2.56394
2.63791
2.71279
2.78857
2.86528
2.94293
3.02153
3.10111
3.18168
3.26327
3.34589
3.42958
3.51434
3.60021
3.68718
3.77526
3.86447
3.95479
4.04621
4.13869
4.23221
4.32672
4.42214
4.5184
4.61539
4.71301
4.81109
4.90949
5.00803
5.10649
5.20464
5.30225
5.39905
5.49474
5.58904
5.68163
5.77219
5.86041
5.94596
6.02854
6.10783
6.18356
6.25544
6.32324
6.38672
6.44573
6.5001
6.54972
6.5945
6.63438
6.66934
6.6994
6.72458
6.74494
6.76056
6.77153
6.77794
6.77992
6.77766
6.77116
6.76066
6.74628
6.72813
6.70636
6.68105
6.65234
6.62032
6.58511
6.54681
6.50553
6.46138
6.41447
6.36489
6.31277
6.25822
6.20135
6.14228
6.08113
6.01802
5.95308
5.88641
5.81817
5.74847
5.67745
5.60524
5.53194
5.45767
5.38253
5.30658
5.22987
5.15247
5.07442
4.99569
4.91629
4.83624
4.75556
4.67428
4.59243
4.51011
4.42737
4.34431
4.26103
4.17762
4.09416
4.0107
3.92724
3.84405
3.76122
3.6788
3.59685
3.51547
3.43472
3.35471
3.27555
3.19735
3.12036
3.04468
2.97039
2.89757
2.8263
2.75669
2.68886
2.62291
2.5589
2.49693
2.43706
2.37939
2.32402
2.27106
2.22059
2.17275
2.12737
2.08244
0.193757
0.286117
0.345725
0.391763
0.431161
0.466805
0.500177
0.532177
0.563418
0.594347
0.625314
0.656598
0.68843
0.720998
0.754459
0.788939
0.824539
0.861338
0.899397
0.938762
0.979467
1.02154
1.06499
1.10983
1.15606
1.20368
1.25271
1.30312
1.35493
1.40813
1.46266
1.51851
1.5757
1.6342
1.69401
1.75512
1.81749
1.88113
1.94599
2.01206
2.07932
2.14774
2.2173
2.28797
2.35971
2.4325
2.50639
2.58136
2.65739
2.73448
2.81263
2.89185
2.97216
3.05357
3.13609
3.21975
3.30457
3.39056
3.47775
3.56616
3.65581
3.74672
3.83889
3.93233
4.02704
4.12302
4.22023
4.31867
4.41827
4.51899
4.62075
4.72345
4.82698
4.93121
5.03597
5.14108
5.24633
5.35148
5.45627
5.56042
5.66362
5.76554
5.86585
5.96418
6.06019
6.1535
6.24377
6.33063
6.41378
6.49286
6.5676
6.63774
6.70305
6.76335
6.81849
6.86835
6.91284
6.95193
6.9856
7.01388
7.03681
7.05446
7.06694
7.07434
7.07678
7.0745
7.06739
7.05577
7.03975
7.01947
6.99504
6.96658
6.93422
6.89806
6.85821
6.8148
6.76792
6.71771
6.66426
6.60772
6.54819
6.48581
6.42072
6.35306
6.28297
6.21063
6.13617
6.05978
5.98162
5.9019
5.8208
5.73852
5.65524
5.57115
5.48645
5.40127
5.31573
5.22995
5.14375
5.05744
4.97113
4.88487
4.79873
4.71281
4.62708
4.5418
4.45676
4.37195
4.28743
4.20327
4.11948
4.03604
3.95289
3.87045
3.78863
3.7074
3.62676
3.54675
3.46741
3.38879
3.31097
3.23401
3.15817
3.08356
3.01027
2.93835
2.86788
2.79896
2.73175
2.66634
2.6028
2.5412
2.48162
2.42415
2.36889
2.31596
2.26542
2.21738
2.17164
2.12661
0.197748
0.290545
0.350836
0.397512
0.437495
0.473682
0.50756
0.540026
0.571687
0.602983
0.634251
0.665764
0.69774
0.730358
0.763767
0.798087
0.833415
0.86983
0.907398
0.946172
0.986202
1.02752
1.07018
1.11418
1.15953
1.20624
1.25434
1.30386
1.35481
1.40724
1.46106
1.51627
1.5729
1.63094
1.6904
1.75126
1.81352
1.87718
1.94221
2.0086
2.07635
2.14542
2.2158
2.28746
2.36038
2.43454
2.50998
2.58665
2.66454
2.74359
2.82386
2.90536
2.98809
3.07206
3.15728
3.24376
3.33152
3.42058
3.51096
3.60267
3.69573
3.79016
3.88597
3.98317
4.08177
4.18176
4.28313
4.38587
4.48993
4.59526
4.70182
4.80951
4.91823
5.02785
5.13822
5.24917
5.36047
5.47189
5.58318
5.69401
5.80409
5.91305
6.02053
6.12614
6.22948
6.33016
6.42776
6.5219
6.6122
6.69829
6.77981
6.85648
6.92802
6.9942
7.05485
7.1098
7.15894
7.20222
7.2396
7.27108
7.2967
7.31653
7.33066
7.33919
7.34226
7.34013
7.33261
7.32004
7.30258
7.28034
7.25344
7.22202
7.18618
7.14605
7.10173
7.05334
7.001
6.94483
6.88496
6.82151
6.75462
6.68444
6.61113
6.53485
6.45578
6.37411
6.29003
6.20377
6.11554
6.0256
5.93421
5.84163
5.74813
5.65395
5.55903
5.4639
5.36884
5.27405
5.18012
5.08698
4.99454
4.90287
4.81203
4.72215
4.63318
4.54547
4.45839
4.37219
4.28693
4.20259
4.11913
4.03647
3.95429
3.87317
3.79288
3.71336
3.63457
3.55648
3.4791
3.40245
3.32656
3.25149
3.17768
3.10505
3.03362
2.96342
2.89453
2.82701
2.76106
2.6968
2.63428
2.57358
2.51477
2.45794
2.40322
2.35069
2.30042
2.25249
2.20666
2.16171
0.199876
0.292627
0.353199
0.40018
0.440452
0.476913
0.511051
0.54376
0.575639
0.607117
0.638518
0.670129
0.702156
0.73476
0.76808
0.802234
0.837286
0.873315
0.910389
0.94857
0.987913
1.02847
1.07031
1.1135
1.15799
1.20383
1.25103
1.29963
1.34964
1.40106
1.45394
1.5083
1.56418
1.62158
1.68052
1.74101
1.80304
1.86662
1.93174
1.99839
2.06657
2.13626
2.20745
2.2801
2.35418
2.42965
2.5065
2.58474
2.66434
2.74529
2.82756
2.91119
2.99619
3.08255
3.17026
3.25935
3.34981
3.44165
3.53489
3.62953
3.72559
3.82308
3.92202
4.02242
4.12428
4.2276
4.33239
4.43863
4.5463
4.65537
4.76579
4.87749
4.99039
5.10438
5.21932
5.33504
5.45135
5.56802
5.68477
5.80132
5.91732
6.03242
6.14622
6.25831
6.36824
6.4756
6.57992
6.68078
6.77773
6.87037
6.95831
7.04118
7.11868
7.19053
7.25651
7.31643
7.37013
7.41754
7.4586
7.49328
7.52162
7.54368
7.55952
7.56927
7.57304
7.57116
7.56338
7.55002
7.53125
7.50721
7.47801
7.44377
7.40462
7.36066
7.31201
7.25879
7.20111
7.13911
7.07291
7.00266
6.9285
6.85059
6.76911
6.68424
6.59619
6.5052
6.41149
6.31532
6.21698
6.11673
6.01462
5.91116
5.80682
5.70194
5.59747
5.49339
5.3899
5.28723
5.18609
5.08578
4.98685
4.88948
4.79376
4.69979
4.60759
4.51722
4.42853
4.34151
4.25613
4.17231
4.08994
4.00887
3.92893
3.85015
3.77244
3.69567
3.61974
3.5446
3.4702
3.39652
3.32353
3.25119
3.17993
3.10973
3.04062
2.97263
2.9058
2.84018
2.77618
2.71374
2.65289
2.59369
2.5362
2.4805
2.42673
2.375
2.32535
2.27784
2.23221
2.18766
0.199787
0.292243
0.352782
0.399778
0.440073
0.476562
0.510736
0.54349
0.57542
0.606947
0.638386
0.670039
0.702077
0.734649
0.767888
0.801916
0.836757
0.872505
0.909221
0.946967
0.9858
1.02577
1.06691
1.10927
1.15286
1.19776
1.24404
1.29175
1.34092
1.39159
1.44379
1.49754
1.55289
1.60986
1.66848
1.72877
1.79074
1.8544
1.91975
1.9868
2.05555
2.12599
2.19814
2.2719
2.34726
2.42419
2.50266
2.58266
2.66417
2.74716
2.83153
2.91735
3.00461
3.09331
3.18344
3.275
3.36798
3.46237
3.55817
3.65538
3.754
3.85404
3.95552
4.05843
4.1628
4.26863
4.37593
4.48469
4.59491
4.70657
4.81966
4.93412
5.04991
5.16693
5.28508
5.40421
5.52416
5.64471
5.76561
5.88656
6.00725
6.12729
6.24627
6.36377
6.47932
6.59244
6.70265
6.80945
6.91239
7.01098
7.1048
7.19342
7.27648
7.35367
7.4247
7.48935
7.54743
7.59882
7.64344
7.68123
7.71222
7.73645
7.75398
7.76491
7.76937
7.76772
7.75973
7.7456
7.72556
7.69974
7.66826
7.63123
7.58877
7.54099
7.488
7.42993
7.36689
7.29902
7.22645
7.14934
7.06784
6.98213
6.89239
6.79883
6.70167
6.60106
6.49724
6.39061
6.28156
6.17051
6.05824
5.94483
5.83074
5.71638
5.60268
5.48913
5.37653
5.26531
5.1559
5.04841
4.94314
4.8403
4.74001
4.64238
4.54742
4.45515
4.36548
4.27832
4.19356
4.11106
4.03064
3.95206
3.87511
3.79965
3.72548
3.65244
3.58037
3.50914
3.43868
3.36891
3.29979
3.23134
3.1637
3.09693
3.03108
2.96616
2.90223
2.83928
2.77768
2.71745
2.65865
2.60132
2.54554
2.49135
2.43901
2.38852
2.33987
2.29313
2.24805
2.20432
0.198572
0.290239
0.350386
0.397089
0.437141
0.47343
0.507454
0.540111
0.571995
0.603524
0.635013
0.666697
0.698764
0.731356
0.764585
0.798541
0.833292
0.868911
0.905453
0.942983
0.98157
1.0213
1.06223
1.10442
1.14785
1.19258
1.23868
1.28622
1.33524
1.38581
1.43796
1.49175
1.54722
1.6044
1.66333
1.72404
1.78654
1.85087
1.91703
1.98503
2.05486
2.12652
2.2
2.27518
2.35208
2.43068
2.51095
2.59284
2.67634
2.76141
2.848
2.9361
3.02566
3.11664
3.20902
3.30277
3.39787
3.49429
3.59203
3.69107
3.79141
3.89306
3.99601
4.10029
4.2059
4.31286
4.42119
4.53089
4.64198
4.75447
4.86837
4.98368
5.10036
5.21837
5.33765
5.4581
5.57957
5.70188
5.82483
5.94815
6.07151
6.19454
6.31684
6.43795
6.55741
6.67468
6.78927
6.90063
7.00826
7.11163
7.21024
7.30365
7.39142
7.47317
7.54859
7.61738
7.67933
7.73427
7.78208
7.82268
7.85607
7.88226
7.90132
7.91332
7.91838
7.91693
7.90874
7.89388
7.87263
7.84512
7.81145
7.77174
7.72609
7.67463
7.61745
7.55467
7.48643
7.41286
7.33409
7.25027
7.16149
7.06797
6.96994
6.86762
6.76132
6.65151
6.53846
6.42246
6.30399
6.18378
6.06153
5.93806
5.81395
5.68973
5.56605
5.44325
5.32193
5.20259
5.08568
4.97155
4.86052
4.75283
4.64864
4.54805
4.45111
4.35778
4.26797
4.18154
4.09832
4.01807
3.94053
3.8654
3.79237
3.72117
3.65153
3.58319
3.51594