/*--------------------------------*- C++ -*----------------------------------*\
  =========                 |
  \\      /  F ield         | OpenFOAM: The Open Source CFD Toolbox
   \\    /   O peration     | Website:  https://openfoam.org
    \\  /    A nd           | Version:  8
     \\/     M anipulation  |
\*---------------------------------------------------------------------------*/
FoamFile
{
    version     2.0;
    format      ascii;
    class       volScalarField;
    location    "110";
    object      nut;
}
// * * * * * * * * * * * * * * * * * * * * * * * * * * * * * * * * * * * * * //

dimensions      [0 2 -1 0 0 0 0];

internalField   nonuniform List<scalar> 
12225
(
4.14927e-05
3.93415e-05
3.74817e-05
3.54349e-05
3.37806e-05
3.24255e-05
3.15029e-05
3.0914e-05
3.09189e-05
3.10945e-05
3.15757e-05
3.2098e-05
3.31636e-05
3.38542e-05
3.50842e-05
3.58508e-05
3.69609e-05
3.87732e-05
0.000332265
0.000215127
0.000179299
0.000157634
0.000146244
0.000138159
0.000132682
0.000131742
0.000129403
0.00013018
0.000128927
0.000129576
0.000128528
0.000128711
0.000127974
0.000127565
0.000127585
0.000126166
0.000668793
0.000450518
0.000355843
0.00030973
0.000275364
0.000250993
0.000231763
0.000217176
0.000202633
0.000192092
0.000182553
0.000175107
0.000169314
0.000163462
0.000160248
0.000155153
0.000153703
0.000149155
0.000801639
0.00069155
0.000572705
0.000499921
0.000449491
0.00041185
0.000380853
0.000355872
0.000334037
0.000314611
0.000298361
0.000281398
0.000270271
0.00025572
0.000247995
0.000235618
0.000229994
0.000219379
0.000839614
0.000810121
0.000740828
0.000676283
0.000624035
0.000581259
0.00054594
0.000514424
0.000489549
0.000464261
0.000445837
0.000423831
0.000409792
0.000390471
0.000379519
0.000362486
0.00035409
0.000338142
0.000850345
0.000843261
0.000819566
0.000786469
0.000750854
0.000715798
0.000685806
0.000656031
0.000632557
0.000607388
0.000588942
0.00056706
0.000552109
0.000532797
0.000520417
0.000503109
0.00049296
0.000476246
0.000851581
0.000851013
0.000843301
0.000833455
0.000817152
0.000796907
0.000777893
0.000756675
0.000738893
0.000719062
0.000703473
0.000685485
0.000671972
0.00065568
0.000644012
0.000629014
0.000619278
0.000604171
0.000851584
0.000851811
0.000850043
0.000847451
0.000841409
0.00083375
0.000824811
0.000813409
0.000802802
0.000790425
0.000779669
0.000767452
0.000757319
0.000745612
0.000736339
0.000725148
0.000717091
0.000705322
0.000851675
0.000851527
0.000851019
0.000850339
0.000848877
0.000846167
0.000843027
0.000838292
0.000833394
0.000827339
0.000821186
0.000814722
0.000808365
0.000801406
0.000795166
0.000788135
0.000782296
0.000774575
0.000851755
0.000851384
0.000851045
0.000850631
0.000850248
0.000849365
0.000848404
0.000846776
0.00084495
0.00084252
0.000839908
0.000836775
0.000833762
0.0008301
0.000826907
0.000822822
0.000819806
0.00081511
0.000851785
0.000851357
0.000851012
0.000850613
0.000850329
0.000849904
0.000849525
0.000848926
0.0008483
0.000847388
0.000846458
0.000845165
0.000843974
0.000842328
0.000840967
0.000838989
0.000837591
0.000835293
0.000851789
0.000851359
0.000850996
0.000850605
0.000850292
0.000849938
0.000849645
0.000849279
0.000848953
0.000848501
0.000848095
0.000847502
0.00084699
0.000846233
0.000845629
0.000844704
0.00084404
0.000842953
0.000851786
0.000851363
0.000850986
0.000850604
0.000850269
0.000849926
0.000849629
0.000849312
0.000849041
0.000848727
0.00084846
0.000848123
0.000847841
0.000847462
0.000847153
0.000846721
0.000846383
0.000845899
0.000851783
0.000851364
0.000850978
0.000850602
0.000850256
0.000849916
0.000849607
0.000849299
0.000849022
0.00084874
0.000848487
0.000848224
0.000847988
0.000847735
0.000847509
0.00084726
0.000847037
0.000846789
0.000851781
0.000851364
0.000850973
0.000850598
0.000850246
0.000849909
0.000849592
0.000849286
0.000849
0.000848723
0.000848464
0.000848212
0.000847977
0.000847747
0.000847531
0.000847321
0.000847122
0.000846929
0.00085178
0.000851363
0.000850969
0.000850594
0.000850239
0.000849901
0.000849581
0.000849275
0.000848985
0.000848708
0.000848445
0.000848193
0.000847954
0.000847725
0.000847507
0.000847299
0.000847101
0.000846912
0.000851779
0.000851362
0.000850967
0.000850591
0.000850234
0.000849895
0.000849573
0.000849266
0.000848974
0.000848696
0.00084843
0.000848177
0.000847936
0.000847706
0.000847486
0.000847276
0.000847076
0.000846884
0.000851779
0.000851362
0.000850965
0.000850589
0.000850231
0.000849891
0.000849567
0.000849259
0.000848966
0.000848687
0.00084842
0.000848166
0.000847923
0.000847691
0.00084747
0.000847258
0.000847056
0.000846863
0.000851779
0.000851362
0.000850965
0.000850588
0.00085023
0.000849889
0.000849565
0.000849257
0.000848963
0.000848683
0.000848415
0.00084816
0.000847916
0.000847683
0.00084746
0.000847248
0.000847044
0.000846849
0.000851779
0.000851362
0.000850965
0.000850589
0.000850231
0.000849891
0.000849568
0.00084926
0.000848966
0.000848686
0.000848418
0.000848163
0.000847919
0.000847686
0.000847462
0.000847249
0.000847044
0.000846848
0.000851779
0.000851363
0.000850967
0.000850592
0.000850235
0.000849897
0.000849573
0.000849267
0.000848973
0.000848694
0.000848425
0.000848169
0.00084792
0.000847685
0.000847452
0.000847233
0.000847014
0.000846808
0.000851778
0.000851366
0.000850968
0.000850599
0.00085024
0.000849907
0.00084958
0.000849274
0.000848965
0.000848672
0.000848365
0.000848072
0.000847757
0.000847456
0.000847124
0.000846812
0.000846458
0.000846137
0.000851773
0.000851376
0.000850971
0.000850615
0.000850241
0.000849889
0.000849478
0.000849054
0.00084853
0.000847978
0.000847301
0.000846605
0.000845767
0.000844939
0.000843955
0.000843029
0.000841918
0.000840939
0.000851768
0.000851415
0.000850964
0.000850548
0.000849861
0.000848966
0.00084761
0.000845976
0.000843905
0.000841636
0.000838955
0.000836214
0.000833116
0.000830113
0.000826762
0.000823679
0.000820182
0.000817176
0.000851859
0.000851379
0.000850196
0.000848242
0.00084447
0.000839354
0.000832765
0.000825659
0.000817962
0.000810011
0.000801618
0.000793627
0.000785331
0.000777705
0.000769741
0.000762697
0.00075512
0.00074879
0.000852108
0.000847666
0.000839902
0.000827143
0.000808711
0.000789643
0.000769978
0.000751411
0.000733307
0.000716893
0.000700935
0.000686778
0.000672829
0.000660668
0.000648376
0.000637937
0.00062695
0.000618016
0.00084324
0.000822504
0.00077519
0.000726453
0.0006849
0.000649846
0.000618466
0.000592015
0.000568386
0.000548307
0.000529692
0.000513987
0.000498754
0.000486013
0.000473203
0.000462705
0.000451624
0.000442803
0.00079568
0.000668239
0.000570631
0.0005099
0.00046561
0.000431178
0.000404152
0.000382476
0.000364205
0.000349065
0.000335947
0.000325058
0.000314513
0.000306234
0.000297965
0.000291367
0.000284286
0.000278933
0.000501315
0.000348355
0.000292675
0.000259179
0.000236325
0.000221175
0.000211623
0.000203853
0.000198567
0.000195074
0.000192224
0.000190367
0.000188586
0.000187438
0.00018617
0.000185474
0.000184561
0.000184149
7.27386e-05
7.02255e-05
6.79542e-05
6.56137e-05
6.33828e-05
6.12761e-05
5.94944e-05
5.79551e-05
5.67109e-05
5.57032e-05
5.49776e-05
5.44181e-05
5.41096e-05
5.38811e-05
5.38979e-05
5.39329e-05
5.40926e-05
5.43247e-05
3.0322e-06
4.2746e-05
6.5561e-05
8.61093e-05
0.000105404
0.000123617
0.000140408
0.000154884
0.000165424
0.000168851
0.000159903
3.08144e-05
3.00186e-05
3.15316e-05
3.38723e-05
3.78634e-05
4.25301e-05
4.43482e-05
4.44815e-05
4.46568e-05
4.59222e-05
5.07423e-05
5.108e-05
5.28715e-05
5.46408e-05
5.65025e-05
5.83965e-05
6.02807e-05
6.21548e-05
6.39954e-05
6.58106e-05
6.75835e-05
6.93252e-05
7.10221e-05
7.26852e-05
7.43037e-05
7.58888e-05
7.74315e-05
7.89427e-05
8.04148e-05
8.18583e-05
8.32669e-05
8.46507e-05
8.60043e-05
8.73351e-05
8.86394e-05
8.99235e-05
9.11843e-05
9.2427e-05
9.36494e-05
9.48552e-05
9.60428e-05
9.72149e-05
9.83704e-05
9.95107e-05
0.000100635
0.000101745
0.000102839
0.000103918
0.00010498
0.000106026
0.000107056
0.000108067
0.000109061
0.000110035
0.00011099
0.000111922
0.000112833
0.000113719
0.000114582
0.000115418
0.000116227
0.000117007
0.000117757
0.000118476
0.000119162
0.000119814
0.00012043
0.000121011
0.000121553
0.000122059
0.000122524
0.000122955
0.00012335
0.00012371
0.000124021
0.000124299
0.000124529
0.000124726
0.000124876
0.000124981
0.000125052
0.000125099
0.000125118
0.000125104
0.000125052
0.000124952
0.000124769
0.000124312
0.000124703
0.000125205
0.000123968
0.000124252
0.000124968
0.000123518
0.000123921
0.000124945
0.000124481
0.000124618
0.000124139
0.000123996
0.000122316
0.000122534
0.000122963
0.000124212
0.000122186
0.000122795
0.000123999
0.000121904
0.000122588
0.000123869
0.000123111
0.000121641
0.000122339
0.000122938
0.000122283
0.000122571
0.000121732
0.000121486
0.000121671
0.000121231
0.000121025
0.000120692
0.000120377
0.000120001
0.000119594
0.000119142
0.000118651
0.000118111
0.000117527
0.000116903
0.000116258
0.000115548
0.000114772
0.000113944
0.00011307
0.000112133
0.000111141
0.000110129
0.000109037
0.000107792
0.000106728
0.000105412
0.000103132
0.000101955
0.000101117
0.000100293
9.94437e-05
9.85637e-05
9.76334e-05
9.67317e-05
9.58122e-05
9.48249e-05
9.38199e-05
9.28108e-05
9.179e-05
9.08208e-05
8.97832e-05
8.87384e-05
8.76891e-05
8.66353e-05
8.55858e-05
8.45407e-05
8.34997e-05
8.24712e-05
8.14109e-05
8.04263e-05
7.92203e-05
7.79741e-05
7.59528e-05
7.43448e-06
7.20562e-05
0.000143773
0.00019725
0.000235228
0.00026222
0.00028059
0.000290204
0.000288624
0.000271634
0.000235805
0.00018432
0.000175349
0.000178637
0.000187189
0.000198525
0.000210185
0.000221066
0.000231114
0.00024479
0.000266705
0.000301038
0.000317238
0.000328457
0.000339513
0.000351573
0.000364569
0.000378293
0.000392562
0.000407242
0.00042222
0.000437401
0.000452706
0.000468067
0.000483418
0.000498706
0.000513885
0.00052892
0.000543777
0.000558437
0.000572874
0.000587071
0.000601075
0.000614898
0.000628543
0.000642025
0.000655352
0.000668541
0.000681601
0.000694554
0.000707406
0.000720178
0.000732876
0.00074552
0.000758111
0.000770665
0.000783179
0.000795668
0.000808123
0.000820554
0.00083295
0.000845314
0.000857631
0.0008699
0.0008821
0.000894226
0.000906251
0.000918166
0.000929942
0.000941564
0.000953001
0.000964233
0.000975226
0.000985957
0.000996393
0.00100651
0.00101626
0.00102564
0.00103459
0.0010431
0.00105113
0.00105864
0.0010656
0.00107193
0.00107773
0.00108304
0.00108786
0.00109218
0.00109598
0.00109925
0.00110197
0.00110414
0.00110571
0.00110673
0.00110732
0.00110755
0.00110752
0.00110733
0.00110712
0.00110718
0.00110544
0.00110275
0.00110294
0.00110127
0.00109836
0.00109936
0.00109875
0.00109935
0.00109525
0.00109623
0.00109151
0.00108987
0.00109214
0.0010962
0.00109318
0.00109107
0.00109566
0.00109632
0.00109203
0.00109778
0.00109483
0.00109548
0.0010955
0.00109869
0.0011023
0.00110211
0.001103
0.00110337
0.00110366
0.00110428
0.00110626
0.00110761
0.00110895
0.00111025
0.0011111
0.00111149
0.0011115
0.00111106
0.00111012
0.00110862
0.0011065
0.00110384
0.0011006
0.00109668
0.00109207
0.00108678
0.00108084
0.00107424
0.00106712
0.00105947
0.00105076
0.0010419
0.00103334
0.00101995
0.0010042
0.000987507
0.000970262
0.000952672
0.000934889
0.000916872
0.00089891
0.000880765
0.000862674
0.000844751
0.000827258
0.000809859
0.000792625
0.00077567
0.000759066
0.000742715
0.000726626
0.000710855
0.000695353
0.000680189
0.000665053
0.000650518
0.000635081
0.000620028
0.000606413
0.000550855
1.33113e-05
0.000104645
0.000203378
0.000281747
0.000340898
0.000384194
0.000414575
0.000433925
0.000443035
0.000442264
0.000433287
0.000421774
0.000422002
0.000430878
0.00044493
0.000461918
0.000480376
0.000499838
0.000521013
0.000545479
0.000573667
0.000603518
0.000629309
0.000654461
0.000680792
0.00070837
0.000736914
0.000766235
0.000796163
0.000826557
0.000857254
0.000888063
0.000918912
0.000949707
0.000980357
0.00101079
0.00104094
0.00107077
0.00110023
0.00112932
0.00115802
0.00118633
0.00121426
0.00124184
0.00126907
0.00129598
0.00132258
0.0013489
0.00137495
0.00140077
0.00142638
0.00145179
0.00147703
0.00150212
0.00152708
0.00155191
0.00157663
0.00160125
0.00162576
0.00165018
0.00167449
0.0016987
0.00172278
0.00174673
0.00177053
0.00179415
0.00181756
0.00184075
0.00186366
0.00188627
0.00190854
0.00193041
0.00195186
0.00197282
0.00199326
0.00201311
0.00203234
0.00205088
0.00206868
0.00208569
0.00210186
0.00211714
0.00213147
0.00214482
0.00215722
0.00216869
0.00217921
0.00218876
0.00219733
0.00220492
0.00221152
0.00221713
0.00222176
0.00222549
0.00222843
0.00223067
0.00223229
0.00223335
0.00223385
0.00223366
0.00223223
0.00223053
0.00222956
0.00222739
0.00222518
0.00222443
0.00222266
0.00222099
0.00221728
0.00221571
0.00221148
0.00220945
0.00220992
0.00221032
0.00220713
0.0022056
0.00220738
0.00220632
0.00220451
0.00220617
0.00220321
0.00220373
0.00220546
0.0022072
0.00220945
0.00220915
0.00220954
0.00220957
0.00220946
0.00220945
0.00221019
0.00221022
0.00220986
0.00220894
0.00220727
0.00220478
0.00220145
0.00219711
0.00219177
0.00218529
0.0021776
0.00216871
0.00215858
0.00214714
0.00213437
0.00212029
0.00210493
0.00208829
0.00207051
0.00205161
0.00203132
0.00201014
0.0019885
0.00196322
0.00193506
0.00190526
0.00187446
0.00184302
0.00181119
0.00177904
0.00174689
0.00171473
0.0016828
0.00165113
0.00162079
0.00159089
0.00156088
0.00153154
0.001503
0.00147488
0.00144721
0.00142015
0.00139354
0.00136743
0.00134141
0.001316
0.00128949
0.00126238
0.00124012
0.00117154
1.97025e-05
0.000131856
0.000253375
0.000351801
0.000427813
0.000485138
0.000527815
0.00055915
0.000581768
0.000597899
0.0006099
0.000620808
0.000634117
0.000650655
0.000670148
0.000692113
0.000716174
0.000742224
0.000770484
0.000801312
0.000834719
0.000870094
0.000906592
0.000944249
0.000982825
0.00102234
0.00106279
0.001104
0.0011458
0.0011882
0.00123118
0.00127441
0.00131767
0.00136079
0.00140368
0.00144623
0.0014884
0.00153012
0.00157138
0.00161214
0.0016524
0.00169216
0.00173143
0.00177022
0.00180855
0.00184643
0.00188389
0.00192095
0.00195765
0.001994
0.00203004
0.00206578
0.00210126
0.0021365
0.00217152
0.00220634
0.00224096
0.0022754
0.00230966
0.00234375
0.00237767
0.0024114
0.00244493
0.00247824
0.00251132
0.00254413
0.00257665
0.00260883
0.00264064
0.00267203
0.00270295
0.00273335
0.00276316
0.00279234
0.00282082
0.00284854
0.00287543
0.00290142
0.00292646
0.00295047
0.00297339
0.00299516
0.00301571
0.00303503
0.00305309
0.00306987
0.00308535
0.00309953
0.00311238
0.0031239
0.00313412
0.00314303
0.00315068
0.00315714
0.00316248
0.00316681
0.00317017
0.00317261
0.00317413
0.00317468
0.00317424
0.00317326
0.003172
0.00317004
0.00316791
0.00316596
0.00316351
0.00316077
0.00315737
0.00315438
0.00315041
0.00314697
0.00314465
0.00314249
0.00313938
0.00313682
0.00313535
0.00313267
0.00313045
0.00312942
0.00312666
0.00312556
0.00312463
0.0031242
0.00312362
0.00312207
0.00312056
0.00311878
0.00311678
0.00311469
0.00311262
0.00310991
0.00310656
0.00310241
0.00309732
0.00309118
0.00308392
0.00307538
0.00306566
0.00305448
0.00304174
0.0030274
0.0030114
0.00299369
0.00297425
0.0029531
0.00293026
0.00290578
0.00287973
0.00285218
0.00282307
0.00279263
0.00276098
0.00272669
0.00268992
0.00265138
0.00261164
0.00257108
0.00252996
0.00248848
0.00244704
0.0024055
0.00236411
0.00232299
0.00228272
0.00224315
0.00220472
0.00216765
0.00213199
0.00209677
0.00206215
0.00202855
0.00199555
0.00196319
0.00193109
0.00189944
0.00186706
0.0018335
0.0018051
0.00172875
2.61393e-05
0.00015648
0.000298023
0.000414219
0.000505887
0.000576587
0.000631029
0.00067326
0.00070666
0.000734055
0.000757886
0.00078033
0.000803203
0.000827608
0.000854084
0.00088284
0.000913926
0.000947364
0.000983215
0.00102155
0.00106233
0.00110532
0.00115021
0.00119676
0.0012447
0.00129387
0.00134408
0.00139519
0.00144703
0.00149932
0.00155181
0.00160432
0.00165678
0.00170907
0.00176109
0.00181275
0.00186397
0.00191468
0.00196487
0.00201452
0.00206361
0.00211214
0.0021601
0.00220751
0.00225437
0.00230071
0.00234655
0.0023919
0.0024368
0.00248127
0.00252535
0.00256906
0.00261242
0.00265546
0.00269821
0.00274068
0.0027829
0.00282486
0.00286658
0.00290807
0.00294931
0.00299031
0.00303106
0.00307153
0.0031117
0.00315155
0.00319104
0.00323014
0.00326879
0.00330696
0.00334458
0.0033816
0.00341795
0.00345358
0.00348842
0.00352239
0.00355542
0.00358744
0.00361838
0.00364816
0.00367671
0.00370396
0.00372986
0.00375433
0.00377735
0.00379887
0.00381885
0.00383728
0.00385414
0.00386943
0.00388315
0.00389533
0.00390601
0.00391524
0.00392309
0.00392962
0.0039349
0.00393896
0.00394182
0.0039435
0.0039441
0.00394381
0.00394277
0.00394097
0.00393866
0.00393599
0.00393277
0.00392909
0.00392511
0.00392112
0.00391625
0.00391021
0.00390495
0.00390084
0.00389712
0.00389254
0.00388817
0.0038835
0.00387933
0.00387524
0.00387085
0.00386697
0.00386325
0.00385968
0.00385598
0.00385189
0.00384768
0.00384325
0.00383859
0.00383369
0.0038285
0.0038227
0.00381618
0.00380881
0.00380043
0.00379092
0.00378014
0.00376791
0.00375424
0.00373896
0.00372194
0.0037031
0.0036824
0.00365976
0.00363519
0.00360868
0.00358026
0.00355
0.00351796
0.00348423
0.00344881
0.00341183
0.00337328
0.00333261
0.00328984
0.0032454
0.00319972
0.00315313
0.00310591
0.0030583
0.00301096
0.00296347
0.00291602
0.00286882
0.00282223
0.00277631
0.00273133
0.00268756
0.00264594
0.00260598
0.00256766
0.00253102
0.002495
0.00245975
0.00242495
0.00239046
0.00235559
0.00231961
0.00228731
0.0022157
3.23713e-05
0.000178314
0.000337514
0.000469899
0.000576298
0.000659927
0.000725817
0.000778381
0.000821342
0.000857799
0.00089031
0.000920961
0.000951382
0.000982744
0.00101581
0.00105104
0.00108864
0.00112873
0.00117131
0.00121638
0.00126383
0.00131351
0.00136519
0.00141864
0.00147361
0.00152986
0.00158718
0.00164535
0.00170417
0.00176341
0.00182288
0.00188239
0.00194184
0.00200109
0.00206004
0.00211861
0.00217673
0.00223434
0.0022914
0.00234785
0.00240369
0.00245889
0.00251346
0.0025674
0.00262073
0.00267345
0.00272559
0.00277718
0.00282825
0.00287881
0.0029289
0.00297856
0.00302781
0.00307667
0.00312518
0.00317335
0.00322121
0.00326878
0.00331606
0.00336306
0.00340979
0.00345625
0.00350242
0.0035483
0.00359387
0.00363909
0.00368395
0.0037284
0.00377241
0.00381592
0.00385888
0.00390123
0.00394291
0.00398386
0.004024
0.00406324
0.00410152
0.00413875
0.00417485
0.00420974
0.00424333
0.00427554
0.00430631
0.00433555
0.00436321
0.00438922
0.00441355
0.00443614
0.00445699
0.00447606
0.00449335
0.00450888
0.00452267
0.00453476
0.0045452
0.00455403
0.00456132
0.00456711
0.00457144
0.00457435
0.00457594
0.00457633
0.00457563
0.00457392
0.0045713
0.00456806
0.00456393
0.00455884
0.00455296
0.00454734
0.00454164
0.00453459
0.00452762
0.00452083
0.00451373
0.00450632
0.00449882
0.00449123
0.00448375
0.00447627
0.0044687
0.00446124
0.00445382
0.00444642
0.00443891
0.00443122
0.00442341
0.00441542
0.00440721
0.00439874
0.00438991
0.00438055
0.00437052
0.00435969
0.00434792
0.00433507
0.004321
0.00430554
0.0042886
0.00427003
0.0042497
0.00422752
0.00420343
0.00417735
0.00414926
0.00411917
0.0040871
0.0040531
0.00401724
0.00397959
0.0039402
0.00389913
0.0038564
0.00381183
0.00376547
0.00371758
0.00366847
0.00361841
0.00356766
0.00351648
0.00346562
0.0034143
0.003363
0.00331194
0.00326137
0.00321144
0.00316234
0.00311433
0.00306792
0.0030236
0.00298194
0.00294284
0.00290562
0.00286991
0.00283484
0.00279987
0.00276473
0.00272872
0.00269472
0.00263102
3.8191e-05
0.000197148
0.000371601
0.000518877
0.000638744
0.000734873
0.000811962
0.000874632
0.000926778
0.000971642
0.00101189
0.00104966
0.00108663
0.00112407
0.00116285
0.00120355
0.00124651
0.00129189
0.00133974
0.00139001
0.00144262
0.00149739
0.00155414
0.00161263
0.00167264
0.00173392
0.00179626
0.00185942
0.0019232
0.00198739
0.0020518
0.00211628
0.00218068
0.00224488
0.00230877
0.00237226
0.00243528
0.00249777
0.00255967
0.00262096
0.00268159
0.00274156
0.00280085
0.00285948
0.00291746
0.00297478
0.00303149
0.00308759
0.00314312
0.00319811
0.00325259
0.00330658
0.00336013
0.00341326
0.003466
0.00351839
0.00357043
0.00362216
0.0036736
0.00372475
0.00377563
0.00382624
0.00387658
0.00392665
0.00397642
0.00402588
0.00407501
0.00412377
0.00417213
0.00422004
0.00426745
0.0043143
0.00436053
0.00440607
0.00445084
0.00449476
0.00453775
0.00457972
0.00462058
0.00466024
0.0046986
0.00473556
0.00477104
0.00480495
0.00483721
0.00486773
0.00489646
0.00492333
0.00494829
0.00497131
0.00499237
0.00501144
0.00502855
0.00504371
0.00505694
0.00506828
0.00507778
0.00508548
0.00509142
0.00509566
0.00509829
0.00509939
0.00509908
0.00509743
0.00509435
0.00508984
0.00508428
0.00507839
0.0050721
0.00506479
0.00505657
0.00504747
0.00503791
0.00502798
0.00501759
0.00500678
0.00499568
0.00498436
0.00497292
0.00496134
0.00494964
0.00493787
0.00492604
0.00491415
0.00490218
0.0048901
0.00487793
0.00486565
0.00485322
0.00484058
0.00482766
0.00481433
0.00480049
0.004786
0.00477074
0.00475456
0.00473731
0.00471884
0.00469901
0.00467767
0.00465469
0.00462997
0.00460341
0.00457493
0.00454452
0.00451215
0.00447783
0.00444162
0.00440355
0.0043637
0.00432212
0.00427886
0.00423394
0.00418737
0.0041392
0.00408964
0.00403891
0.00398722
0.00393481
0.0038819
0.00382887
0.00377566
0.00372249
0.00366953
0.003617
0.00356503
0.00351381
0.00346354
0.00341459
0.00336736
0.00332284
0.0032819
0.00324382
0.00320794
0.00317345
0.00313978
0.00310609
0.00307163
0.0030378
0.00298193
4.34529e-05
0.000212978
0.000400355
0.000560935
0.000693113
0.000800936
0.000888735
0.000961167
0.00102219
0.0010751
0.00112263
0.00116699
0.00120991
0.00125272
0.00129641
0.00134165
0.00138887
0.0014383
0.00149004
0.00154408
0.00160033
0.00165865
0.00171886
0.00178076
0.00184412
0.00190871
0.00197433
0.00204074
0.00210775
0.00217516
0.00224279
0.00231049
0.00237811
0.00244553
0.00251264
0.00257935
0.00264558
0.00271127
0.00277637
0.00284084
0.00290465
0.00296778
0.00303023
0.00309199
0.00315307
0.00321348
0.00327325
0.0033324
0.00339096
0.00344895
0.00350641
0.00356338
0.00361989
0.00367596
0.00373165
0.00378698
0.00384198
0.00389668
0.0039511
0.00400527
0.0040592
0.00411291
0.00416639
0.00421966
0.0042727
0.00432551
0.00437807
0.00443035
0.00448232
0.00453394
0.00458516
0.00463594
0.00468619
0.00473587
0.00478488
0.00483315
0.00488058
0.00492708
0.00497255
0.00501688
0.00505996
0.00510169
0.00514195
0.00518064
0.00521764
0.00525287
0.00528623
0.00531763
0.00534699
0.00537427
0.00539939
0.00542234
0.00544309
0.00546162
0.00547796
0.00549211
0.0055041
0.00551397
0.00552175
0.00552751
0.00553131
0.00553325
0.00553342
0.00553176
0.00552793
0.00552271
0.00551675
0.00551005
0.00550182
0.00549237
0.00548176
0.0054701
0.00545758
0.00544431
0.00543033
0.00541571
0.00540057
0.00538499
0.00536906
0.00535283
0.00533635
0.00531968
0.00530286
0.00528592
0.00526889
0.0052518
0.00523467
0.0052175
0.00520028
0.00518298
0.00516554
0.0051479
0.00512995
0.0051116
0.00509272
0.00507318
0.00505282
0.0050315
0.00500906
0.00498535
0.00496022
0.00493356
0.00490525
0.00487521
0.0048434
0.00480978
0.00477435
0.00473712
0.00469814
0.00465745
0.00461509
0.00457111
0.00452553
0.00447843
0.00442989
0.00438007
0.00432912
0.00427724
0.0042246
0.00417141
0.00411793
0.00406428
0.00401065
0.00395723
0.00390417
0.00385162
0.00379972
0.00374868
0.00369878
0.00365038
0.00360426
0.00356208
0.00352362
0.00348789
0.00345408
0.00342159
0.00338977
0.00335796
0.0033257
0.00327697
4.80693e-05
0.000225904
0.000423925
0.000596038
0.000739257
0.000857798
0.000955593
0.00103724
0.00110669
0.00116724
0.00122165
0.00127214
0.0013205
0.00136812
0.00141605
0.00146505
0.00151563
0.00156808
0.00162258
0.00167915
0.00173774
0.00179826
0.00186053
0.00192438
0.00198961
0.00205602
0.0021234
0.00219154
0.00226026
0.00232937
0.0023987
0.00246808
0.00253738
0.00260648
0.00267528
0.00274368
0.00281161
0.002879
0.00294581
0.00301198
0.00307751
0.00314235
0.00320652
0.00327
0.0033328
0.00339493
0.00345642
0.00351729
0.00357757
0.0036373
0.0036965
0.00375521
0.00381348
0.00387135
0.00392884
0.00398602
0.0040429
0.00409952
0.00415593
0.00421215
0.0042682
0.0043241
0.00437988
0.00443554
0.00449109
0.00454652
0.00460184
0.00465701
0.00471202
0.00476684
0.00482141
0.0048757
0.00492964
0.00498317
0.00503619
0.00508864
0.0051404
0.00519138
0.00524147
0.00529054
0.00533847
0.00538513
0.00543038
0.00547411
0.00551617
0.00555644
0.00559479
0.00563112
0.00566531
0.00569727
0.00572692
0.00575418
0.00577902
0.00580139
0.00582127
0.00583865
0.00585355
0.00586597
0.00587596
0.00588356
0.00588882
0.00589183
0.00589268
0.00589108
0.0058872
0.0058819
0.00587537
0.00586706
0.00585708
0.00584552
0.00583248
0.00581807
0.00580244
0.00578569
0.00576793
0.00574926
0.00572978
0.00570961
0.00568885
0.00566759
0.00564592
0.00562391
0.00560165
0.00557922
0.00555667
0.00553408
0.00551149
0.00548895
0.00546648
0.00544409
0.00542176
0.00539946
0.00537714
0.0053547
0.00533206
0.00530908
0.00528563
0.00526155
0.0052367
0.0052109
0.005184
0.00515587
0.00512638
0.00509544
0.00506298
0.00502895
0.00499331
0.00495605
0.0049172
0.00487678
0.00483479
0.00479127
0.00474622
0.00469978
0.00465204
0.00460311
0.00455311
0.00450218
0.00445047
0.00439815
0.00434544
0.00429252
0.00423959
0.00418684
0.00413442
0.00408243
0.00403101
0.00398035
0.00393071
0.00388246
0.00383624
0.00379377
0.00375553
0.00372034
0.00368737
0.00365605
0.00362584
0.00359618
0.00356641
0.00352401
5.19951e-05
0.000236097
0.000442578
0.000624394
0.00077727
0.000905383
0.00101227
0.0011024
0.00117966
0.00124731
0.00130809
0.00136422
0.00141751
0.0014694
0.00152098
0.00157306
0.00162622
0.00168084
0.00173713
0.00179519
0.00185502
0.00191653
0.00197962
0.00204414
0.0021099
0.00217674
0.00224449
0.00231299
0.00238205
0.00245149
0.00252112
0.00259079
0.00266036
0.00272973
0.00279879
0.00286746
0.00293566
0.00300334
0.00307045
0.00313694
0.0032028
0.00326799
0.00333252
0.00339639
0.00345959
0.00352215
0.00358408
0.00364543
0.00370621
0.00376646
0.00382623
0.00388556
0.00394448
0.00400305
0.0040613
0.0041193
0.00417708
0.00423469
0.00429216
0.00434955
0.00440688
0.00446419
0.0045215
0.00457884
0.00463623
0.00469367
0.00475116
0.0048087
0.00486628
0.00492387
0.00498144
0.00503894
0.00509631
0.0051535
0.00521041
0.00526697
0.00532306
0.00537858
0.0054334
0.00548738
0.00554039
0.00559227
0.00564286
0.00569201
0.00573955
0.00578533
0.00582919
0.00587097
0.00591054
0.00594776
0.00598251
0.0060147
0.00604422
0.00607102
0.00609503
0.00611623
0.0061346
0.00615012
0.00616283
0.00617275
0.00617992
0.00618442
0.00618631
0.00618531
0.00618193
0.00617663
0.00616937
0.00615993
0.00614842
0.00613494
0.00611959
0.00610249
0.00608379
0.0060636
0.00604204
0.00601925
0.00599534
0.00597045
0.0059447
0.00591821
0.00589111
0.00586351
0.00583553
0.00580729
0.00577889
0.00575044
0.00572203
0.00569375
0.00566567
0.00563784
0.00561029
0.00558304
0.00555606
0.00552932
0.00550274
0.00547622
0.00544964
0.00542284
0.00539569
0.005368
0.00533961
0.00531037
0.00528014
0.00524881
0.00521632
0.00518256
0.00514746
0.00511099
0.00507312
0.00503386
0.0049932
0.00495109
0.00490755
0.00486273
0.00481675
0.00476968
0.00472159
0.00467258
0.00462276
0.00457229
0.00452133
0.00447009
0.00441881
0.0043677
0.00431687
0.00426639
0.00421638
0.00416703
0.00411864
0.00407156
0.00402641
0.00398484
0.00394751
0.00391325
0.00388132
0.00385118
0.0038224
0.00379451
0.00376673
0.00372988
5.52156e-05
0.000243761
0.000456638
0.000646308
0.000807358
0.000943753
0.00105866
0.00115638
0.00124065
0.0013147
0.00138121
0.00144239
0.00150004
0.0015556
0.00161021
0.00166472
0.00171976
0.00177576
0.00183299
0.00189159
0.00195162
0.00201305
0.0020758
0.00213974
0.00220471
0.00227056
0.00233733
0.00240487
0.00247303
0.00254163
0.00261033
0.00267897
0.00274748
0.00281576
0.00288371
0.00295127
0.00301837
0.00308496
0.00315099
0.00321644
0.00328127
0.00334547
0.00340904
0.00347198
0.00353429
0.003596
0.00365714
0.00371774
0.00377783
0.00383745
0.00389666
0.00395549
0.004014
0.00407224
0.00413026
0.00418811
0.00424586
0.00430356
0.00436125
0.00441899
0.00447683
0.0045348
0.00459296
0.00465133
0.00470994
0.00476882
0.00482798
0.00488743
0.00494716
0.00500717
0.00506742
0.00512789
0.00518851
0.00524923
0.00530998
0.00537065
0.00543114
0.00549133
0.00555108
0.00561023
0.00566864
0.00572611
0.00578248
0.00583754
0.00589111
0.00594298
0.00599297
0.00604087
0.0060865
0.0061297
0.00617029
0.00620813
0.00624309
0.00627507
0.00630397
0.00632973
0.00635229
0.00637163
0.00638775
0.00640064
0.00641036
0.00641693
0.00642041
0.00642074
0.00641831
0.00641332
0.00640575
0.00639565
0.00638302
0.00636798
0.00635064
0.00633113
0.00630959
0.00628616
0.00626098
0.0062342
0.00620596
0.00617641
0.0061457
0.00611398
0.00608141
0.00604815
0.00601434
0.00598015
0.00594572
0.00591121
0.00587675
0.00584248
0.00580852
0.00577498
0.00574195
0.00570948
0.00567761
0.00564635
0.00561566
0.00558547
0.00555567
0.00552615
0.00549677
0.00546732
0.00543762
0.00540752
0.00537688
0.00534556
0.00531352
0.00528059
0.00524664
0.0052116
0.00517542
0.00513808
0.00509951
0.00505963
0.00501835
0.00497595
0.00493258
0.0048882
0.00484284
0.00479657
0.00474948
0.00470167
0.00465328
0.00460452
0.00455572
0.00450705
0.00445865
0.00441049
0.00436268
0.00431544
0.0042691
0.00422407
0.00418096
0.00414139
0.00410559
0.00407263
0.00404191
0.00401299
0.00398551
0.0039591
0.0039329
0.00390033
5.77371e-05
0.000249106
0.000466436
0.00066209
0.000829722
0.00097293
0.00109472
0.00119893
0.00128926
0.00136881
0.00144023
0.00150568
0.00156696
0.00162549
0.00168243
0.00173864
0.0017948
0.00185136
0.00190866
0.00196688
0.00202611
0.00208638
0.00214763
0.00220977
0.00227262
0.00233614
0.00240069
0.00246603
0.00253202
0.00259852
0.00266496
0.00273132
0.00279747
0.00286331
0.0029288
0.00299388
0.0030585
0.00312262
0.0031862
0.00324922
0.00331167
0.00337354
0.00343483
0.00349554
0.00355568
0.00361527
0.00367437
0.00373302
0.00379127
0.00384914
0.00390669
0.00396398
0.00402105
0.00407798
0.00413482
0.00419163
0.00424849
0.00430545
0.00436257
0.00441992
0.00447755
0.00453553
0.0045939
0.00465271
0.00471201
0.00477183
0.0048322
0.00489315
0.00495468
0.0050168
0.00507949
0.00514272
0.00520646
0.00527064
0.0053352
0.00540004
0.00546504
0.00553009
0.00559502
0.00565968
0.00572387
0.0057874
0.00585006
0.00591162