/*--------------------------------*- C++ -*----------------------------------*\
  =========                 |
  \\      /  F ield         | OpenFOAM: The Open Source CFD Toolbox
   \\    /   O peration     | Website:  https://openfoam.org
    \\  /    A nd           | Version:  8
     \\/     M anipulation  |
\*---------------------------------------------------------------------------*/
FoamFile
{
    version     2.0;
    format      ascii;
    class       volScalarField;
    location    "110";
    object      p;
}
// * * * * * * * * * * * * * * * * * * * * * * * * * * * * * * * * * * * * * //

dimensions      [0 2 -2 0 0 0 0];

internalField   nonuniform List<scalar> 
12225
(
-2.10054
-4.28907
-5.38869
-5.70885
-5.88945
-6.05757
-6.18798
-6.28155
-6.35604
-6.42056
-6.47674
-6.52628
-6.5685
-6.60358
-6.63013
-6.63686
-6.64086
-6.51177
-5.26404
-6.03231
-6.19248
-6.09971
-6.08653
-6.15351
-6.22989
-6.29407
-6.3516
-6.40624
-6.45712
-6.50288
-6.54354
-6.57802
-6.60644
-6.61937
-6.63639
-6.60379
-5.6652
-5.65004
-5.77706
-5.85493
-5.94919
-6.0685
-6.17454
-6.25788
-6.32767
-6.39035
-6.44689
-6.49695
-6.54143
-6.57966
-6.61278
-6.63533
-6.6658
-6.68462
-5.54326
-5.48623
-5.72747
-5.88533
-5.98643
-6.09178
-6.18833
-6.26692
-6.33375
-6.39432
-6.44957
-6.49917
-6.54393
-6.58358
-6.61968
-6.65058
-6.69018
-6.73748
-5.53295
-5.55727
-5.78499
-5.9261
-6.00909
-6.10032
-6.19045
-6.26679
-6.33254
-6.39244
-6.44756
-6.49768
-6.54359
-6.5855
-6.62527
-6.66354
-6.71033
-6.76996
-5.59095
-5.63979
-5.81374
-5.93719
-6.01812
-6.10516
-6.19219
-6.26741
-6.33274
-6.39236
-6.44755
-6.49828
-6.54534
-6.58941
-6.6324
-6.67608
-6.72747
-6.79136
-5.65134
-5.69549
-5.83036
-5.94626
-6.02946
-6.11287
-6.19585
-6.26932
-6.33395
-6.39317
-6.44831
-6.49956
-6.54768
-6.59362
-6.63925
-6.68663
-6.74057
-6.80469
-5.70495
-5.7425
-5.85217
-5.96007
-6.04257
-6.1215
-6.20008
-6.27155
-6.33537
-6.39413
-6.44918
-6.50087
-6.54994
-6.59745
-6.64506
-6.69472
-6.74957
-6.81181
-5.75477
-5.78781
-5.87847
-5.97608
-6.05571
-6.13049
-6.20493
-6.27422
-6.33705
-6.39525
-6.45011
-6.5021
-6.5519
-6.60055
-6.64946
-6.70019
-6.75472
-6.8141
-5.80193
-5.83109
-5.90637
-5.99328
-6.0691
-6.14015
-6.21068
-6.27753
-6.33912
-6.39662
-6.45114
-6.50321
-6.55345
-6.60276
-6.65227
-6.70313
-6.75651
-6.81267
-5.84636
-5.87178
-5.93477
-6.01169
-6.08306
-6.15049
-6.21728
-6.28151
-6.34165
-6.39827
-6.45228
-6.50419
-6.55453
-6.60402
-6.65353
-6.70383
-6.75553
-6.80847
-5.8845
-5.90678
-5.96081
-6.02944
-6.09631
-6.16041
-6.22394
-6.28572
-6.34434
-6.39999
-6.45335
-6.50488
-6.555
-6.60427
-6.65332
-6.70265
-6.75257
-6.80271
-5.91976
-5.93941
-5.9861
-6.04735
-6.10967
-6.17048
-6.23092
-6.29026
-6.34728
-6.40183
-6.4544
-6.50535
-6.55501
-6.60376
-6.65204
-6.70015
-6.74819
-6.79575
-5.95673
-5.97387
-6.0138
-6.06774
-6.12499
-6.18208
-6.23919
-6.2958
-6.35087
-6.40403
-6.4555
-6.50556
-6.5544
-6.60227
-6.64937
-6.69584
-6.7417
-6.78651
-5.99417
-6.00893
-6.04289
-6.08998
-6.14189
-6.19494
-6.24854
-6.30218
-6.35497
-6.4064
-6.45644
-6.5052
-6.55281
-6.59934
-6.64486
-6.68934
-6.73276
-6.77479
-6.03013
-6.04275
-6.07171
-6.11273
-6.15943
-6.20835
-6.25839
-6.30893
-6.35919
-6.40858
-6.45682
-6.50391
-6.54984
-6.59463
-6.63819
-6.68044
-6.72127
-6.76055
-6.06169
-6.07259
-6.09762
-6.13371
-6.1758
-6.22084
-6.26753
-6.31506
-6.36269
-6.40981
-6.45602
-6.50111
-6.54503
-6.58773
-6.62908
-6.66894
-6.70721
-6.74378
-6.08447
-6.09416
-6.11654
-6.1492
-6.18792
-6.22993
-6.27388
-6.31885
-6.36411
-6.40903
-6.45316
-6.49619
-6.53797
-6.57844
-6.61751
-6.65499
-6.6908
-6.72488
-6.09153
-6.10074
-6.1221
-6.15345
-6.1908
-6.23143
-6.27394
-6.31742
-6.36112
-6.40441
-6.44685
-6.48807
-6.52794
-6.56638
-6.60334
-6.63865
-6.67227
-6.70417
-6.07556
-6.08539
-6.10812
-6.14136
-6.18057
-6.22254
-6.26586
-6.30975
-6.35357
-6.39662
-6.43855
-6.479
-6.51793
-6.55523
-6.59093
-6.62486
-6.65708
-6.68756
-6.04878
-6.05963
-6.08502
-6.12216
-6.16508
-6.20982
-6.25515
-6.30066
-6.34555
-6.38922
-6.43128
-6.47167
-6.51028
-6.54714
-6.58216
-6.61538
-6.64675
-6.67649
-6.01361
-6.02547
-6.05492
-6.09859
-6.14698
-6.19511
-6.2431
-6.29099
-6.33771
-6.38243
-6.42504
-6.46566
-6.5043
-6.54097
-6.57564
-6.60838
-6.63925
-6.66844
-5.97308
-5.98501
-6.01955
-6.07288
-6.12851
-6.18056
-6.23155
-6.28208
-6.33067
-6.37656
-6.41995
-6.46102
-6.49989
-6.53652
-6.57104
-6.6035
-6.6341
-6.66295
-5.92938
-5.94039
-5.98224
-6.04669
-6.10893
-6.16569
-6.22135
-6.27523
-6.32548
-6.37223
-6.41621
-6.4577
-6.49671
-6.53331
-6.56763
-6.5999
-6.63023
-6.65885
-5.88246
-5.88799
-5.95072
-6.02895
-6.09092
-6.14921
-6.21039
-6.26873
-6.32118
-6.36908
-6.41389
-6.4559
-6.4951
-6.53167
-6.56586
-6.59794
-6.62807
-6.65655
-5.83915
-5.80285
-5.91244
-6.02345
-6.08571
-6.14099
-6.2032
-6.26292
-6.31605
-6.36457
-6.41002
-6.45252
-6.49199
-6.52868
-6.56291
-6.59498
-6.62508
-6.65348
-5.85338
-5.69445
-5.82342
-5.97751
-6.06766
-6.139
-6.20789
-6.26876
-6.32144
-6.36951
-6.4145
-6.45644
-6.49526
-6.53134
-6.56498
-6.59652
-6.62617
-6.65425
-5.97657
-5.79621
-5.81044
-5.88256
-5.97097
-6.07017
-6.16081
-6.23453
-6.2961
-6.351
-6.40102
-6.44645
-6.48778
-6.52564
-6.56056
-6.59302
-6.62348
-6.65264
-5.68394
-6.27504
-6.36394
-6.2397
-6.18537
-6.21251
-6.25945
-6.30263
-6.34404
-6.38597
-6.42717
-6.46615
-6.50264
-6.53673
-6.56849
-6.59815
-6.62593
-6.65367
-2.69462
-4.45794
-5.46268
-5.76185
-5.91102
-6.05462
-6.16861
-6.24951
-6.31359
-6.37019
-6.42114
-6.46682
-6.50804
-6.54562
-6.58011
-6.61134
-6.63923
-6.66202
-7.92542
-7.92439
-7.92412
-7.92646
-7.93022
-7.93477
-7.94021
-7.94644
-7.95324
-7.96028
-7.96755
-7.97516
-7.98376
-7.99396
-8.00485
-8.01572
-8.0285
-8.04469
-8.06402
-8.08395
-8.09881
-8.10913
-8.12505
-8.1476
-8.1724
-8.19938
-8.22834
-8.25893
-8.29099
-8.32415
-8.35824
-8.39283
-8.42773
-8.46254
-8.49705
-8.53088
-8.56387
-8.59567
-8.62615
-8.65501
-8.68217
-8.70737
-8.73056
-8.75152
-8.77021
-8.78642
-8.80014
-8.81117
-8.81948
-8.82489
-8.82737
-8.82675
-8.82299
-8.81593
-8.8055
-8.79156
-8.77404
-8.75279
-8.72772
-8.69871
-8.66569
-8.62855
-8.58721
-8.54161
-8.49165
-8.43733
-8.37856
-8.31539
-8.24775
-8.17575
-8.09937
-8.01876
-7.93391
-7.84505
-7.75221
-7.65573
-7.55564
-7.45229
-7.34576
-7.2365
-7.1246
-7.0105
-6.89429
-6.77648
-6.65713
-6.53681
-6.41565
-6.29413
-6.17223
-6.05005
-5.92802
-5.80633
-5.68516
-5.56456
-5.44463
-5.32535
-5.2067
-5.08851
-4.97064
-4.85277
-4.73471
-4.6162
-4.4969
-4.37641
-4.25427
-4.12997
-4.00278
-3.87215
-3.7372
-3.59725
-3.45126
-3.29842
-3.13758
-2.96778
-2.78795
-2.59731
-2.39472
-2.17924
-1.94988
-1.706
-1.44681
-1.1717
-0.879673
-0.570139
-0.242494
0.10339
0.467785
0.850451
1.25128
1.66964
2.10499
2.55627
3.0224
3.5019
3.99323
4.49453
5.00387
5.51904
6.0378
6.55772
7.07644
7.59152
8.10069
8.60169
9.09239
9.57075
10.035
10.4836
10.9151
11.3286
11.7232
12.0986
12.4546
12.7913
13.1085
13.406
13.6838
13.9422
14.1818
14.4031
14.6068
14.7938
14.9648
15.1207
15.2624
15.3908
15.5068
15.6113
15.7053
15.7898
15.8657
15.9343
15.9967
16.0545
16.1095
16.1648
16.2263
16.3017
16.4213
16.5726
-7.92232
-7.92234
-7.9225
-7.9245
-7.92714
-7.9298
-7.93271
-7.9361
-7.93992
-7.94401
-7.94842
-7.95339
-7.95951
-7.96672
-7.97411
-7.98208
-7.99181
-8.00259
-8.01256
-8.02147
-8.03177
-8.05131
-8.07836
-8.10348
-8.12913
-8.1565
-8.18568
-8.21648
-8.24876
-8.28222
-8.31663
-8.35162
-8.38692
-8.42216
-8.4571
-8.49137
-8.52475
-8.55696
-8.58781
-8.61706
-8.64458
-8.67017
-8.69374
-8.71511
-8.73421
-8.7509
-8.76509
-8.77667
-8.78555
-8.79161
-8.79476
-8.7949
-8.79193
-8.78574
-8.77622
-8.76325
-8.74674
-8.72656
-8.7026
-8.67476
-8.64293
-8.60702
-8.56693
-8.52259
-8.4739
-8.42084
-8.36334
-8.3014
-8.23497
-8.16411
-8.08883
-8.00922
-7.92531
-7.83727
-7.74519
-7.64929
-7.54969
-7.44665
-7.34034
-7.2311
-7.11909
-7.00469
-6.88811
-6.76973
-6.64974
-6.52856
-6.40648
-6.28385
-6.16073
-6.03744
-5.91422
-5.79135
-5.66899
-5.54726
-5.42629
-5.3061
-5.18668
-5.06795
-4.94975
-4.83188
-4.71412
-4.59608
-4.47755
-4.35806
-4.23712
-4.11411
-3.9885
-3.85947
-3.72638
-3.58834
-3.44458
-3.29403
-3.13589
-2.96921
-2.79307
-2.60635
-2.40809
-2.19723
-1.97278
-1.73402
-1.48031
-1.21077
-0.924558
-0.620996
-0.299576
0.0400782
0.398118
0.77453
1.16911
1.58142
2.01082
2.45643
2.91721
3.39178
3.87864
4.37602
4.88199
5.39443
5.91107
6.42952
6.94738
7.46224
7.97174
8.47361
8.96567
9.44587
9.91236
10.3635
10.7979
11.2145
11.6125
11.9912
12.3502
12.6895
13.0094
13.3097
13.5906
13.8524
14.0954
14.3202
14.5275
14.7181
14.8927
15.0521
15.1973
15.3291
15.4484
15.5561
15.6533
15.7408
15.8197
15.8911
15.9564
16.0169
16.0748
16.1328
16.1962
16.2699
16.3796
16.5074
-7.91333
-7.91569
-7.91828
-7.92159
-7.92448
-7.92661
-7.92842
-7.93022
-7.93214
-7.9342
-7.93657
-7.93951
-7.94337
-7.94823
-7.95379
-7.96033
-7.96857
-7.97842
-7.98908
-8.00027
-8.01294
-8.02962
-8.05091
-8.07429
-8.09972
-8.12716
-8.15639
-8.18712
-8.21916
-8.25219
-8.28599
-8.32024
-8.35467
-8.38896
-8.4229
-8.45618
-8.48861
-8.51995
-8.55001
-8.57859
-8.60556
-8.63073
-8.65398
-8.67518
-8.69421
-8.71095
-8.72529
-8.73712
-8.74635
-8.75285
-8.75654
-8.75729
-8.755
-8.74957
-8.74089
-8.72882
-8.71328
-8.69412
-8.67125
-8.64455
-8.61391
-8.57922
-8.54039
-8.49734
-8.44996
-8.39822
-8.34204
-8.2814
-8.21627
-8.14667
-8.0726
-7.99412
-7.9113
-7.82423
-7.73304
-7.6379
-7.53896
-7.43642
-7.33051
-7.22149
-7.10959
-6.9951
-6.87833
-6.75959
-6.63915
-6.51737
-6.39459
-6.2711
-6.14709
-6.02279
-5.89857
-5.77469
-5.65126
-5.52857
-5.40667
-5.28572
-5.16565
-5.04654
-4.92818
-4.81049
-4.69319
-4.57602
-4.45867
-4.34068
-4.22159
-4.1007
-3.97751
-3.85117
-3.72111
-3.58633
-3.44615
-3.29945
-3.14553
-2.98338
-2.81214
-2.63065
-2.43797
-2.23294
-2.01471
-1.78239
-1.5354
-1.27274
-0.993749
-0.697583
-0.383724
-0.0516899
0.298584
0.667245
1.05403
1.45866
1.88047
2.31875
2.77243
3.24031
3.7209
4.21255
4.71336
5.22128
5.73406
6.24938
6.76481
7.27798
7.7865
8.28812
8.78063
9.26201
9.73041
10.1842
10.6221
11.0429
11.4456
11.8297
12.1947
12.5404
12.8667
13.1735
13.4608
13.729
13.9782
14.2092
14.4225
14.6188
14.7989
14.9637
15.114
15.2507
15.3746
15.4868
15.5881
15.6796
15.7624
15.8375
15.9063
15.9702
16.0313
16.0919
16.157
16.2289
16.3264
16.4194
-7.8972
-7.9026
-7.90899
-7.91479
-7.91903
-7.92184
-7.92375
-7.9252
-7.92642
-7.92757
-7.92892
-7.93077
-7.93343
-7.93707
-7.94175
-7.94763
-7.95512
-7.96443
-7.97552
-7.98842
-8.00346
-8.02115
-8.04176
-8.0648
-8.08999
-8.11703
-8.14572
-8.17579
-8.20705
-8.23924
-8.27213
-8.30544
-8.33893
-8.37231
-8.40537
-8.43783
-8.4695
-8.50014
-8.52958
-8.55762
-8.58412
-8.6089
-8.63185
-8.65282
-8.6717
-8.68836
-8.70271
-8.71463
-8.724
-8.73073
-8.7347
-8.73581
-8.73394
-8.72899
-8.72082
-8.70934
-8.6944
-8.67591
-8.65373
-8.62774
-8.59784
-8.56391
-8.52585
-8.48357
-8.43697
-8.38598
-8.33055
-8.27062
-8.20617
-8.13721
-8.06373
-7.98578
-7.90341
-7.81673
-7.72585
-7.63092
-7.53209
-7.42958
-7.3236
-7.2144
-7.10224
-6.9874
-6.87019
-6.75093
-6.62991
-6.5075
-6.38403
-6.25982
-6.13505
-6.01008
-5.88515
-5.76054
-5.63649
-5.51319
-5.39082
-5.26947
-5.14919
-5.02998
-4.91176
-4.79442
-4.67775
-4.56151
-4.44532
-4.32879
-4.21136
-4.09247
-3.97148
-3.84771
-3.72039
-3.58871
-3.45178
-3.30865
-3.15849
-3.00042
-2.83342
-2.6564
-2.46832
-2.26817
-2.05506
-1.8281
-1.58656
-1.32947
-1.05615
-0.765812
-0.457838
-0.131772
0.212507
0.575126
0.955889
1.35452
1.77043
2.20295
2.65107
3.11364
3.58922
4.07623
4.57278
5.0769
5.58634
6.09883
6.61195
7.12335
7.63064
8.13161
8.62405
9.10599
9.57562
10.0314
10.4718
10.8959
11.3024
11.6908
12.0605
12.4112
12.7426
13.0546
13.3471
13.6205
13.8749
14.111
14.3293
14.5305
14.7154
14.8847
15.0393
15.1802
15.3081
15.424
15.5289
15.6238
15.7097
15.7878
15.8594
15.9258
15.989
16.051
16.1157
16.1836
16.2672
16.3299
-7.87684
-7.88543
-7.8964
-7.90543
-7.91172
-7.91589
-7.91869
-7.92065
-7.92217
-7.92352
-7.92504
-7.92704
-7.92983
-7.93365
-7.93868
-7.9451
-7.95316
-7.96302
-7.97483
-7.9887
-8.00485
-8.02341
-8.0444
-8.06758
-8.09276
-8.11967
-8.14812
-8.17785
-8.20865
-8.24026
-8.27248
-8.30502
-8.33768
-8.3702
-8.40237
-8.43396
-8.46478
-8.49462
-8.52331
-8.55067
-8.57657
-8.60083
-8.62335
-8.64396
-8.66257
-8.67905
-8.69328
-8.70516
-8.71456
-8.72138
-8.7255
-8.72681
-8.72519
-8.72052
-8.71267
-8.70152
-8.68695
-8.66882
-8.64701
-8.6214
-8.59186
-8.55828
-8.52054
-8.47854
-8.43219
-8.38141
-8.32612
-8.26629
-8.20188
-8.13287
-8.05928
-7.98115
-7.89852
-7.8115
-7.7202
-7.62476
-7.52536
-7.4222
-7.3155
-7.20553
-7.09254
-6.97685
-6.85877
-6.73861
-6.61672
-6.49345
-6.36917
-6.24418
-6.11881
-5.99318
-5.86785
-5.74287
-5.61865
-5.49528
-5.37306
-5.25198
-5.13222
-5.01366
-4.89636
-4.78016
-4.66487
-4.55026
-4.43589
-4.32145
-4.20628
-4.08999
-3.97175
-3.85106
-3.72692
-3.59874
-3.46541
-3.32618
-3.17995
-3.02603
-2.86319
-2.69057
-2.50688
-2.3113
-2.10276
-1.8806
-1.64374
-1.3914
-1.12263
-0.836941
-0.533467
-0.211972
0.127937
0.486175
0.862775
1.2573
1.66937
2.09818
2.54288
3.00225
3.47497
3.95938
4.45372
4.95591
5.4638
5.97506
6.48735
6.99826
7.50549
8.00675
8.49994
8.98304
9.4543
9.91204
10.3549
10.7816
11.1912
11.5829
11.9561
12.3104
12.6455
12.9613
13.2577
13.5349
13.7933
14.0332
14.2553
14.4602
14.6486
14.8215
14.9795
15.1235
15.2545
15.3733
15.4809
15.5783
15.6665
15.7467
15.8201
15.888
15.952
16.0139
16.0764
16.1387
16.2093
16.248
-7.85637
-7.86786
-7.8834
-7.89572
-7.90432
-7.9103
-7.91453
-7.91764
-7.92012
-7.92236
-7.92475
-7.92762
-7.9313
-7.93602
-7.94204
-7.94954
-7.95871
-7.96969
-7.98262
-7.99756
-8.01463
-8.03385
-8.05521
-8.07855
-8.10373
-8.1305
-8.15868
-8.18802
-8.21832
-8.24934
-8.28088
-8.31269
-8.34457
-8.37628
-8.40765
-8.43844
-8.4685
-8.49761
-8.52563
-8.55238
-8.57774
-8.60153
-8.62364
-8.64393
-8.66229
-8.67859
-8.69271
-8.70453
-8.71393
-8.72081
-8.72503
-8.72647
-8.72501
-8.72052
-8.71287
-8.70192
-8.68755
-8.66961
-8.64796
-8.62249
-8.59304
-8.55951
-8.52177
-8.4797
-8.43321
-8.38222
-8.32664
-8.26642
-8.20153
-8.13196
-8.0577
-7.9788
-7.89531
-7.80734
-7.715
-7.61844
-7.51784
-7.41341
-7.3054
-7.19408
-7.07972
-6.96266
-6.84322
-6.72175
-6.59861
-6.47416
-6.34881
-6.22291
-6.09663
-5.97054
-5.84468
-5.71955
-5.59529
-5.47222
-5.35047
-5.23019
-5.11141
-4.99417
-4.87841
-4.76404
-4.65086
-4.53855
-4.42679
-4.31509
-4.20301
-4.08994
-3.97526
-3.85821
-3.73797
-3.61371
-3.4846
-3.34969
-3.208
-3.05854
-2.90031
-2.73229
-2.55335
-2.36246
-2.15868
-1.9412
-1.70898
-1.4611
-1.19673
-0.915237
-0.615905
-0.298352
0.0377418
0.392412
0.765633
1.15707
1.5663
1.99259
2.43506
2.89255
3.36372
3.84694
4.3404
4.84204
5.34972
5.86109
6.37383
6.88553
7.39388
7.89662
8.39162
8.87684
9.35047
9.81082
10.2565
10.6862
11.0989
11.4938
11.8702
12.2277
12.5661
12.8851
13.1848
13.4652
13.7267
13.9698
14.1949
14.4029
14.5943
14.7699
14.9307
15.0774
15.2109
15.3321
15.4418
15.5412
15.6311
15.7127
15.7872
15.8558
15.9198
15.9805
16.0398
16.0957
16.1546
16.174
-7.83921
-7.85316
-7.8725
-7.88763
-7.89839
-7.90627
-7.91217
-7.91674
-7.92056
-7.92406
-7.92768
-7.93176
-7.93664
-7.94257
-7.94981
-7.95854
-7.96893
-7.9811
-7.99515
-8.01112
-8.02907
-8.04896
-8.07076
-8.09433
-8.11955
-8.14622
-8.17417
-8.20316
-8.23304
-8.26354
-8.29451
-8.32569
-8.35692
-8.38796
-8.41865
-8.44878
-8.4782
-8.50671
-8.53419
-8.56044
-8.58535
-8.60877
-8.63057
-8.65061
-8.66878
-8.68494
-8.69899
-8.71078
-8.7202
-8.72713
-8.73143
-8.73298
-8.73164
-8.72727
-8.71974
-8.70889
-8.69459
-8.6767
-8.65506
-8.62953
-8.59997
-8.56624
-8.52823
-8.4858
-8.43886
-8.3873
-8.33105
-8.27005
-8.20425
-8.13366
-8.05826
-7.97811
-7.89326
-7.80382
-7.70991
-7.6117
-7.50938
-7.40318
-7.29335
-7.18019
-7.064
-6.94512
-6.82392
-6.70077
-6.57603
-6.45013
-6.32347
-6.19639
-6.0693
-5.94239
-5.81615
-5.69087
-5.56671
-5.44408
-5.32303
-5.20382
-5.08639
-4.97085
-4.85711
-4.74505
-4.63449
-4.52503
-4.41641
-4.30806
-4.19967
-4.0904
-3.97978
-3.86682
-3.75097
-3.63113
-3.50666
-3.37645
-3.23967
-3.09503
-2.94171
-2.77849
-2.60446
-2.41838
-2.21949
-2.00665
-1.77905
-1.5355
-1.27543
-0.997904
-0.702503
-0.388559
-0.0559621
0.29558
0.66586
1.05476
1.4617
1.88611
2.327
2.78332
3.25364
3.73639
4.2297
4.73157
5.23976
5.75203
6.26597
6.77926
7.28951
7.79451
8.292
8.78
9.25657
9.72006
10.1689
10.6019
11.018
11.4162
11.7959
12.1566
12.4981
12.8201
13.1228
13.4061
13.6705
13.9163
14.1442
14.3547
14.5486
14.7267
14.8898
15.0387
15.1744
15.2975
15.4091
15.5101
15.6014
15.6841
15.7593
15.828
15.8913
15.9501
16.0057
16.0551
16.1038
16.1075
-7.82775
-7.84351
-7.86553
-7.88271
-7.89525
-7.90485
-7.91238
-7.91846
-7.92371
-7.92859
-7.93356
-7.93896
-7.94514
-7.95234
-7.96082
-7.97075
-7.98229
-7.99553
-8.01057
-8.02741
-8.04609
-8.06654
-8.08873
-8.11253
-8.13783
-8.16444
-8.19221
-8.22095
-8.25047
-8.28057
-8.31107
-8.34175
-8.37245
-8.40295
-8.43312
-8.46273
-8.49167
-8.51973
-8.54679
-8.57269
-8.5973
-8.62046
-8.64207
-8.66196
-8.68004
-8.69616
-8.71021
-8.72204
-8.73154
-8.73856
-8.74297
-8.74464
-8.74341
-8.73914
-8.73168
-8.72088
-8.70657
-8.68862
-8.66684
-8.64111
-8.61125
-8.57713
-8.53861
-8.49557
-8.44788
-8.39546
-8.3382
-8.27605
-8.20898
-8.13696
-8.06
-7.97815
-7.89149
-7.80012
-7.70418
-7.60385
-7.49934
-7.3909
-7.2788
-7.16337
-7.04494
-6.92387
-6.80056
-6.67541
-6.54882
-6.42124
-6.29308
-6.16478
-6.03661
-5.90909
-5.78245
-5.65703
-5.53318
-5.41111
-5.29107
-5.17313
-5.05742
-4.94391
-4.83257
-4.72326
-4.61571
-4.50962
-4.40458
-4.30018
-4.19585
-4.09094
-3.98469
-3.87639
-3.76526
-3.6504
-3.53089
-3.40579
-3.27405
-3.13455
-2.98624
-2.82807
-2.65898
-2.47786
-2.28375
-2.07558
-1.85236
-1.61309
-1.35701
-1.08332
-0.791471
-0.480893
-0.151341
0.197405
0.565242
0.951999
1.35717
1.78014
2.21997
2.67557
3.14552
3.62825
4.12188
4.6244
5.1336
5.64724
6.16292
6.67831
7.19098
7.69867
8.19911
8.69024
9.1701
9.63697
10.0893
10.5258
10.9453
11.3469
11.7299
12.0938
12.4383
12.7634
13.0688
13.3549
13.6219
13.8703
14.1006
14.3134
14.5095
14.6897
14.8548
15.0057
15.1431
15.2679
15.3811
15.4834
15.5759
15.6594
15.735
15.8035
15.8658
15.9224
15.9739
16.017
16.0566
16.0476
-7.82314
-7.83992
-7.8634
-7.8818
-7.89559
-7.90655
-7.91546
-7.9229
-7.92947
-7.93567
-7.94192
-7.94858
-7.95598
-7.96436
-7.97397
-7.98495
-7.99748
-8.01162
-8.02745
-8.04498
-8.06422
-8.0851
-8.10759
-8.13155
-8.15689
-8.18344
-8.21107
-8.23958
-8.26882
-8.29859
-8.32872
-8.35902
-8.38932
-8.41944
-8.44922
-8.47848
-8.50709
-8.53486
-8.56168
-8.58738
-8.61184
-8.6349
-8.65646
-8.67635
-8.69447
-8.71067
-8.72482
-8.73679
-8.74644
-8.75362
-8.7582
-8.76001
-8.75891
-8.75474
-8.74734
-8.73653
-8.72216
-8.70405
-8.68204
-8.65596
-8.62565
-8.59096
-8.55173
-8.50783
-8.45914
-8.40555
-8.34698
-8.28335
-8.21463
-8.14081
-8.0619
-7.97795
-7.88904
-7.7953
-7.69689
-7.59399
-7.48686
-7.37575
-7.26097
-7.14288
-7.02183
-6.89822
-6.77249
-6.64507
-6.5164
-6.38695
-6.25719
-6.12753
-5.99846
-5.87014
-5.74325
-5.61785
-5.49445
-5.37319
-5.25439
-5.13806
-5.02438
-4.91328
-4.80473
-4.69858
-4.59447
-4.4922
-4.39121
-4.29119
-4.19134
-4.09121
-3.98983
-3.88668
-3.78069
-3.6712
-3.55698
-3.4373
-3.31084
-3.17669
-3.03356
-2.88061
-2.71652
-2.54043
-2.35101
-2.14744
-1.92844
-1.6933
-1.44095
-1.17088
-0.882238
-0.574722
-0.247808
0.0984967
0.464319
0.849291
1.2531
1.67498
2.11412
2.56932
3.03927
3.52228
4.01662
4.52017
5.03086
5.54632
6.06424
6.58213
7.09764
7.60836
8.11206
8.60656
9.08993
9.56034
10.0163
10.4563
10.8793
11.2843
11.6706
12.0377
12.3853
12.7131
13.0214
13.31
13.5795
13.8302
14.0627
14.2776
14.4757
14.6578
14.8247
14.9771
15.1161
15.2423
15.3568
15.4603
15.5537
15.6378
15.7136
15.7816
15.8426
15.8968
15.9443
15.9814
16.0132
15.9938
-7.82544
-7.84248
-7.86628
-7.88507
-7.89953
-7.91139
-7.9213
-7.9298
-7.93746
-7.94475
-7.95211
-7.95984
-7.96828
-7.97765
-7.98819
-8.00003
-8.01333
-8.02815
-8.04458
-8.0626
-8.08223
-8.10339
-8.12606
-8.1501
-8.17543
-8.2019
-8.22939
-8.2577
-8.28671
-8.31622
-8.34608
-8.3761
-8.40613
-8.43599
-8.46555
-8.49461
-8.52306
-8.55071
-8.57746
-8.60313
-8.62761
-8.65073
-8.6724
-8.69244
-8.71074
-8.72715
-8.74154
-8.75375
-8.76365
-8.77107
-8.77587
-8.77788
-8.77694
-8.77288
-8.76551
-8.75467
-8.74018
-8.72184
-8.69949
-8.67294
-8.64202
-8.60657
-8.56642
-8.52144
-8.47149
-8.41647
-8.35628
-8.29085
-8.22014
-8.14415
-8.0629
-7.97645
-7.88489
-7.78837
-7.68707
-7.5812
-7.47102
-7.35684
-7.239
-7.11786
-6.99385
-6.86741
-6.73898
-6.60906
-6.47812
-6.34666
-6.2152
-6.08422
-5.95402
-5.82528
-5.69807
-5.57295
-5.45016
-5.33004
-5.21272
-5.09838
-4.98706
-4.87876
-4.77341
-4.67077
-4.57059
-4.47247
-4.37604
-4.28071
-4.1859
-4.09088
-3.99494
-3.89722
-3.79688
-3.69295
-3.58444
-3.47032
-3.34945
-3.22071
-3.08302
-2.93528
-2.77637
-2.60517
-2.4205
-2.22131
-2.00652
-1.77525
-1.52659
-1.25985
-0.974302
-0.669524
-0.345095
-0.000906609
0.36307
0.746527
1.14911
1.57012
2.00876
2.46385
2.93406
3.41777
3.91318
4.41825
4.93083
5.44857
5.96909
6.48988
7.00853
7.52258
8.02976
8.52785
9.01485
9.48893
9.94848
10.3921
10.8186
11.2271
11.6166
11.9868
12.3374
12.668
12.9789
13.2701
13.5419
13.7948
14.0294
14.2462
14.4461
14.6299
14.7983
14.9522
15.0925
15.22
15.3355
15.4399
15.534
15.6186
15.6943
15.7618
15.8214
15.873
15.9167
15.9483
15.9732
15.9454
-7.83398
-7.85063
-7.87374
-7.8922
-7.90677
-7.919
-7.92948
-7.93867
-7.94709
-7.95519
-7.96337
-7.97192
-7.98116
-7.99127
-8.00251
-8.01497
-8.02882
-8.04411
-8.06092
-8.07923
-8.09907
-8.12037
-8.1431
-8.16713
-8.1924
-8.21876
-8.2461
-8.27424
-8.30306
-8.33237
-8.36204
-8.39189
-8.42177
-8.45151
-8.48098
-8.51
-8.53845
-8.56616
-8.593
-8.61881
-8.64348
-8.66684
-8.68878
-8.70912
-8.72775
-8.7445
-8.75924
-8.77181
-8.78205
-8.78979
-8.79488
-8.79713
-8.79636
-8.79241
-8.78506
-8.77415
-8.75946
-8.74082
-8.71801
-8.69086
-8.65917
-8.62277
-8.5815
-8.53521
-8.48374
-8.427
-8.36488
-8.29733
-8.22429
-8.14578
-8.06182
-7.97249
-7.8779
-7.77821
-7.67362
-7.56439
-7.45079
-7.33317
-7.2119
-7.08741
-6.96014
-6.83059
-6.69925
-6.56664
-6.43329
-6.29975
-6.16656
-6.03418
-5.90318
-5.77382
-5.64663
-5.52196
-5.40006
-5.28133
-5.16585
-5.05383
-4.94526
-4.84015
-4.73838
-4.63965
-4.54379
-4.45023
-4.35874
-4.26852
-4.17915
-4.08966
-3.99949
-3.90753
-3.81312
-3.71501
-3.61243
-3.50404
-3.38892
-3.26573
-3.13356
-2.9911
-2.8374
-2.67103
-2.49108
-2.29616
-2.08553
-1.85802
-1.61304
-1.34955
-1.0671
-0.764972
-0.443008
-0.100859
0.261302
0.6434
1.04492
1.46535
1.90375
2.35908
2.8299
3.31469
3.81156
4.31854
4.83336
5.35375
5.87718
6.40119
6.9232
7.44082
7.95163
8.45345
8.94417
9.42198
9.8852
10.3324
10.7625
11.1743
11.5671
11.9403
12.2938
12.6272
12.9406
13.2342
13.5082
13.7632
13.9997
14.2184
14.4199
14.6052
14.775
14.9303
15.0717
15.2002
15.3166
15.4218
15.5165
15.6014
15.6769
15.7436
15.8016
15.8508
15.8908
15.9174
15.9364
15.9017
-7.84769
-7.86341
-7.88504
-7.90256
-7.9167
-7.92881
-7.93941
-7.94887
-7.95768
-7.96625
-7.97494
-7.98401
-7.99376
-8.00436
-8.01603
-8.02888
-8.04305
-8.05859
-8.07559
-8.09402
-8.11391
-8.13521
-8.15788
-8.18182
-8.20697
-8.23317
-8.26034
-8.28832
-8.31698
-8.34615
-8.37571
-8.40548
-8.43532
-8.46506
-8.49459
-8.52371
-8.55232
-8.58024
-8.60734
-8.63346
-8.65849
-8.68224
-8.70459
-8.72538
-8.74448
-8.76169
-8.77689
-8.7899
-8.80056
-8.80867
-8.81408
-8.81659
-8.81601
-8.81214
-8.80478
-8.79372
-8.77876
-8.75969
-8.7363
-8.70839
-8.67576
-8.63822
-8.5956
-8.54774
-8.4945
-8.43576
-8.37142
-8.30142
-8.22573
-8.14435
-8.05733
-7.96476
-7.86678
-7.76355
-7.65532
-7.54236
-7.42499
-7.3036
-7.17861
-7.05048
-6.91972
-6.78684
-6.65242
-6.51701
-6.38118
-6.24553
-6.11062
-5.97699
-5.84511
-5.71552
-5.58849
-5.46443
-5.34374
-5.22664
-5.11336
-5.00398
-4.89853
-4.79699
-4.69913
-4.60476
-4.5135
-4.42499
-4.3387
-4.25409
-4.1704
-4.08689
-4.00266
-3.91685
-3.82848
-3.73653
-3.63994
-3.53757
-3.42825
-3.31086
-3.18427
-3.0473
-2.89877
-2.73743
-2.56212
-2.37172
-2.16526
-1.94174
-1.70035
-1.44021
-1.16072
-0.861281
-0.541597
-0.201415
0.159198
0.540117
0.9409
1.36099
1.79949
2.25534
2.72713
3.2133
3.71197
4.22113
4.73853
5.2618
5.7884
6.31578
6.84135
7.36263
7.8772
8.38279
8.87729
9.35882
9.82571
10.2765
10.71
11.1251
11.5211
11.8973
12.2536
12.5896
12.9055
13.2014
13.4776
13.7346
13.9729
14.1932
14.3964
14.5831
14.7542
14.9106
15.0531
15.1826
15.2998
15.4056
15.5007
15.5857
15.6609
15.7267
15.7832
15.83
15.8666
15.8887
15.9025
15.8622
-7.86526
-7.87967
-7.89926
-7.91535
-7.92859
-7.94013
-7.95039
-7.95973
-7.96855
-7.97722
-7.98608
-7.99535
-8.00531
-8.01612
-8.02797
-8.04095
-8.05522
-8.07081
-8.0878
-8.10618
-8.12599
-8.14715
-8.16967
-8.19343
-8.21839
-8.2444
-8.27138
-8.29919
-8.32771
-8.35679
-8.3863
-8.41606
-8.44597
-8.47583
-8.50553
-8.5349
-8.56381
-8.59207
-8.61958
-8.64616
-8.67167
-8.69595
-8.71886
-8.7402
-8.75986
-8.77763
-8.79337
-8.80688
-8.81799
-8.8265
-8.83223
-8.83498
-8.83453
-8.83069
-8.82323
-8.81194
-8.79658
-8.77695
-8.75281
-8.72396
-8.69018
-8.65129
-8.60708
-8.55741
-8.50211
-8.44108
-8.37421
-8.30145
-8.22278
-8.1382
-8.04777
-7.95162
-7.84987
-7.74276
-7.63051
-7.51347
-7.39198
-7.26649
-7.13745
-7.0054
-6.87087
-6.73446
-6.59676
-6.4584
-6.32
-6.18218
-6.04557
-5.91072
-5.77823
-5.64837
-5.52177
-5.39862
-5.27941
-5.16432
-5.0536
-4.94728
-4.84538
-4.74782
-4.65433
-4.56475
-4.47856
-4.39553
-4.31493
-4.23634
-4.15877
-4.0816
-4.0037
-3.92438
-3.84239
-3.75693
-3.66661
-3.57051
-3.46724
-3.35586
-3.23501
-3.1037
-2.96044
-2.80423
-2.63362
-2.4478
-2.24548
-2.02596
-1.78806
-1.53123
-1.25455
-0.957699
-0.640094
-0.30172
0.0575946
0.437551
0.83789
1.25789
1.6968
2.15344
2.62649
3.11428
3.61502
4.12659
4.64677
5.17308
5.703
6.23385
6.76307
7.28804
7.80637
8.31571
8.81396
9.29918
9.76968
10.224
10.6608
11.0791
11.4782
11.8574
12.2163
12.5549
12.8732
13.1713
13.4495
13.7084
13.9484
14.1704
14.375
14.563
14.7354
14.8929
15.0364
15.1667
15.2846
15.391
15.4864
15.5713
15.6461
15.711
15.766
15.8104
15.8438
15.8619
15.8711
15.8263
-7.88544
-7.89828
-7.9155
-7.9298
-7.94176
-7.95231
-7.96184
-7.97064
-7.97908
-7.98748
-7.99614
-8.00528
-8.01513
-8.02584
-8.03759
-8.05047
-8.0646
-8.08003
-8.09683
-8.115
-8.13457
-8.15548
-8.17773
-8.20123
-8.22593
-8.25171
-8.27848
-8.30611
-8.33451
-8.36351
-8.393
-8.42283
-8.45286
-8.48293
-8.51291
-8.54261
-8.57193
-8.60066
-8.62869
-8.65583
-8.68194
-8.70683
-8.73037
-8.75234
-8.77261
-8.79097
-8.80725
-8.82125
-8.83279
-8.84165
-8.84764
-8.85054
-8.85013
-8.8462
-8.8385
-8.82682
-8.8109
-8.79052
-8.76544
-8.73543
-8.70028
-8.65977
-8.61372
-8.56194
-8.5043
-8.44066
-8.37094
-8.29508
-8.21306
-8.12491
-8.0307
-7.93054
-7.82463
-7.7132
-7.59654
-7.47502
-7.34904
-7.2191
-7.0857
-6.94943
-6.81088
-6.67072
-6.52959
-6.38819
-6.24718
-6.10722
-5.96901
-5.83312
-5.70005
-5.57047
-5.44452
-5.32276
-5.20546
-5.09292
-4.98526
-4.88255
-4.78476
-4.69171
-4.60322
-4.5189
-4.43845
-4.36135
-4.28707
-4.21488
-4.144
-4.07347
-4.00242
-3.92983
-3.85467
-3.77583
-3.69213
-3.60239
-3.50545
-3.40013
-3.28523
-3.15952
-3.02167
-2.87047
-2.70469
-2.5233
-2.3252
-2.10944
-1.87505
-1.62129
-1.34737
-1.05283
-0.737194
-0.40034
-0.042156
0.337142
0.737225
1.15743
1.59695
2.05464
2.52912
3.01874
3.52166
4.03579
4.55881
5.08823
5.62142
6.15574
6.68852
7.21714
7.73912
8.25212
8.75399
9.24279
9.71677
10.1744
10.6145
11.0359
11.4379
11.8199
12.1815
12.5225
12.843
13.1432
13.4234
13.684
13.9257
14.1492
14.3552
14.5445
14.718
14.8766
15.021
15.1521
15.2708
15.3776
15.4732
15.558
15.6323
15.6962
15.7497
15.7919
15.8223
15.8368
15.8421
15.7937
-7.90707
-7.91825
-7.93296
-7.94524
-7.9556
-7.96481
-7.97321
-7.98107
-7.98872
-7.99644
-8.00451
-8.01314
-8.02253
-8.03282
-8.04417
-8.05666
-8.07041
-8.08545
-8.10186
-8.11963
-8.1388
-8.15931
-8.18118
-8.2043
-8.22865
-8.25411
-8.28063
-8.30806
-8.33633
-8.36526
-8.39477
-8.42469
-8.45489
-8.48519
-8.51549
-8.54558
-8.57535
-8.6046
-8.63319
-8.66093
-8.68766
-8.71319
-8.73735
-8.75995
-8.7808
-8.7997
-8.81647
-8.83089
-8.84277
-8.85188
-8.85801
-8.86093
-8.86041
-8.85621
-8.84809
-8.8358
-8.81909
-8.79772
-8.77144
-8.74002
-8.7032
-8.6608
-8.61259
-8.55841
-8.49809
-8.43153
-8.35861
-8.27931
-8.19359
-8.10151
-8.00314
-7.89863
-7.78819
-7.6721
-7.5507
-7.42439
-7.29366
-7.15901
-7.02106
-6.88042
-6.73778
-6.59382
-6.44931
-6.30494
-6.16146
-6.01961
-5.88003
-5.74342
-5.61037
-5.48129
-5.35663
-5.23677
-5.12198
-5.01255
-4.90857
-4.81005
-4.71695
-4.62899
-4.54603
-4.46755
-4.39333
-4.32266
-4.25513
-4.18974
-4.12587
-4.0623
-3.99835
-3.93271
-3.86455
-3.79246
-3.71546
-3.63217
-3.54159
-3.44233
-3.33337
-3.21314
-3.08063
-2.9343
-2.77327
-2.59615
-2.40214
-2.18996
-1.95894
-1.70802
-1.43669
-1.1442
-0.830364
-0.494783
-0.13754
0.241335
0.641336
1.06193
1.50218
1.96102
2.43698
2.92846
3.43354
3.95015
4.4759
5.00829
5.54462
6.08221
6.61834
7.15038
7.67577
8.19218
8.69742
9.18954
9.66676
10.1276
10.5706
10.9949
11.3997
11.7843
12.1484
12.4917
12.8144
13.1165
13.3986
13.6609
13.9042
14.1292
14.3365
14.5271
14.7018
14.8613
15.0067
15.1386
15.2579
15.3651
15.4609
15.5455
15.6193
15.6823
15.7342
15.7743
15.8021
15.8134
15.8151
15.7639
-7.93017
-7.93968
-7.9519
-7.96199
-7.97042
-7.97788
-7.9847
-7.99111
-7.99746
-8.004
-8.01101
-8.01866
-8.02716
-8.03661
-8.04717
-8.0589
-8.07191
-8.08623
-8.10193
-8.119
-8.13749
-8.15735
-8.17859
-8.20114
-8.22496
-8.24995
-8.27608
-8.30319
-8.33122
-8.36001
-8.38946
-8.4194
-8.44972
-8.48021
-8.51079
-8.54122
-8.57142
-8.60113
-8.63025
-8.65852
-8.68583
-8.71191
-8.73663
-8.75973
-8.78107
-8.80039
-8.81753
-8.83223
-8.8443
-8.85349
-8.85958
-8.86233
-8.86149
-8.85682
-8.84804
-8.83492
-8.81717
-8.79456
-8.76681
-8.73369
-8.69494
-8.65034
-8.59969
-8.54279
-8.47951
-8.4097
-8.3333
-8.25025
-8.16054
-8.06421
-7.96139
-7.85224
-7.73701
-7.61602
-7.48965
-7.35837
-7.22271
-7.08327
-6.94069
-6.79568
-6.64897
-6.50135
-6.3536
-6.20653
-6.06089
-5.91753
-5.77708
-5.64024
-5.50764
-5.37977
-5.25701
-5.13965
-5.02806
-4.9224
-4.82275
-4.7291
-4.64127
-4.55908
-4.48213
-4.41012
-4.34253
-4.27884
-4.2183
-4.16015
-4.10343
-4.04719
-3.99038
-3.93194
-3.87072
-3.80552
-3.73512
-3.65834
-3.57398
-3.4808
-3.37751
-3.26277
-3.13529
-2.99383
-2.83725
-2.66437
-2.47415
-2.26551
-2.03756
-1.78942
-1.52042
-1.22992
-0.917636
-0.583258
-0.226777
0.15168
0.55168
0.972604
1.41356
1.87339
2.35071
2.84385