/*--------------------------------*- C++ -*----------------------------------*\
  =========                 |
  \\      /  F ield         | OpenFOAM: The Open Source CFD Toolbox
   \\    /   O peration     | Website:  https://openfoam.org
    \\  /    A nd           | Version:  8
     \\/     M anipulation  |
\*---------------------------------------------------------------------------*/
FoamFile
{
    version     2.0;
    format      ascii;
    class       surfaceScalarField;
    location    "110";
    object      phi;
}
// * * * * * * * * * * * * * * * * * * * * * * * * * * * * * * * * * * * * * //

dimensions      [0 3 -1 0 0 0 0];

internalField   nonuniform List<scalar> 
24170
(
3.129e-06
5.94032e-08
3.04661e-06
8.23961e-08
2.97349e-06
7.31149e-08
2.90483e-06
6.86673e-08
2.84045e-06
6.43758e-08
2.78305e-06
5.73953e-08
2.73365e-06
4.94032e-08
2.69159e-06
4.20604e-08
2.65577e-06
3.58197e-08
2.62513e-06
3.06487e-08
2.59864e-06
2.64825e-08
2.57545e-06
2.32001e-08
2.55479e-06
2.06559e-08
2.53597e-06
1.88259e-08
2.51835e-06
1.76258e-08
2.49998e-06
1.83701e-08
2.48083e-06
1.91411e-08
3.57357e-08
2.44509e-06
3.45306e-06
2.35897e-08
3.457e-06
7.84571e-08
3.45053e-06
7.95863e-08
3.43906e-06
8.01378e-08
3.42426e-06
7.91764e-08
3.40699e-06
7.46677e-08
3.38772e-06
6.86706e-08
3.36713e-06
6.2648e-08
3.3459e-06
5.70511e-08
3.32461e-06
5.19414e-08
3.30372e-06
4.73676e-08
3.28351e-06
4.34152e-08
3.26414e-06
4.00279e-08
3.2456e-06
3.73704e-08
3.22799e-06
3.52454e-08
3.21114e-06
3.52205e-08
3.19559e-06
3.46991e-08
4.50636e-08
3.18626e-06
3.66816e-06
1.7951e-08
3.67919e-06
6.74227e-08
3.68541e-06
7.33711e-08
3.68942e-06
7.6122e-08
3.691e-06
7.76035e-08
3.69e-06
7.56673e-08
3.68681e-06
7.18532e-08
3.68191e-06
6.75514e-08
3.67567e-06
6.32879e-08
3.66842e-06
5.91962e-08
3.66042e-06
5.53719e-08
3.65189e-06
5.19408e-08
3.64301e-06
4.8914e-08
3.63388e-06
4.64961e-08
3.62452e-06
4.46061e-08
3.61543e-06
4.43149e-08
3.60571e-06
4.44205e-08
4.94174e-08
3.60135e-06
3.92584e-06
1.74946e-08
3.93591e-06
5.73613e-08
3.94254e-06
6.67337e-08
3.94806e-06
7.06018e-08
3.95245e-06
7.32166e-08
3.95536e-06
7.27567e-08
3.95698e-06
7.02322e-08
3.95755e-06
6.69833e-08
3.95725e-06
6.35875e-08
3.95622e-06
6.0225e-08
3.95459e-06
5.70043e-08
3.95247e-06
5.40689e-08
3.94992e-06
5.14639e-08
3.94704e-06
4.93765e-08
3.94384e-06
4.78102e-08
3.94078e-06
4.73837e-08
3.9376e-06
4.75965e-08
4.98167e-08
3.93721e-06
4.2082e-06
1.64261e-08
4.21597e-06
4.95865e-08
4.22165e-06
6.10512e-08
4.22674e-06
6.55186e-08
4.23146e-06
6.8498e-08
4.23539e-06
6.8825e-08
4.2385e-06
6.71156e-08
4.24091e-06
6.4574e-08
4.24272e-06
6.17832e-08
4.244e-06
5.89439e-08
4.24483e-06
5.61728e-08
4.24529e-06
5.36124e-08
4.24542e-06
5.1333e-08
4.24531e-06
4.94843e-08
4.24502e-06
4.81052e-08
4.24489e-06
4.75164e-08
4.24501e-06
4.74708e-08
4.81901e-08
4.24664e-06
4.51071e-06
1.48072e-08
4.51687e-06
4.34242e-08
4.5221e-06
5.58191e-08
4.5269e-06
6.07248e-08
4.53158e-06
6.38164e-08
4.53579e-06
6.46168e-08
4.53941e-06
6.34943e-08
4.5425e-06
6.14799e-08
4.54514e-06
5.91458e-08
4.54738e-06
5.67054e-08
4.54927e-06
5.42851e-08
4.55086e-06
5.20178e-08
4.55221e-06
4.99865e-08
4.5534e-06
4.83019e-08
4.5545e-06
4.70059e-08
4.55578e-06
4.62376e-08
4.55742e-06
4.58288e-08
4.56137e-08
4.56e-06
4.83433e-06
1.32009e-08
4.83961e-06
3.81372e-08
4.84472e-06
5.07108e-08
4.8494e-06
5.60444e-08
4.854e-06
5.92143e-08
4.85828e-06
6.03397e-08
4.8621e-06
5.96733e-08
4.8655e-06
5.80794e-08
4.86854e-06
5.61106e-08
4.87125e-06
5.39909e-08
4.87369e-06
5.18539e-08
4.87588e-06
4.98212e-08
4.87789e-06
4.79777e-08
4.87979e-06
4.64015e-08
4.88168e-06
4.51214e-08
4.88374e-06
4.41735e-08
4.88615e-06
4.34144e-08
4.25943e-08
4.88918e-06
5.18104e-06
1.17384e-08
5.18574e-06
3.3442e-08
5.19073e-06
4.57255e-08
5.19535e-06
5.14164e-08
5.19991e-06
5.46594e-08
5.20423e-06
5.60199e-08
5.20818e-06
5.57264e-08
5.21177e-06
5.44891e-08
5.21505e-06
5.28298e-08
5.21806e-06
5.09825e-08
5.22083e-06
4.90829e-08
5.22341e-06
4.72434e-08
5.22584e-06
4.55431e-08
5.22821e-06
4.40365e-08
5.2306e-06
4.2736e-08
5.23315e-06
4.16243e-08
5.23598e-06
4.05756e-08
3.93659e-08
5.23922e-06
5.55269e-06
1.03869e-08
5.55688e-06
2.92554e-08
5.56167e-06
4.09339e-08
5.56625e-06
4.68298e-08
5.57079e-06
5.01237e-08
5.57516e-06
5.16511e-08
5.57922e-06
5.16659e-08
5.58297e-06
5.07412e-08
5.58644e-06
4.93554e-08
5.58968e-06
4.77475e-08
5.59271e-06
4.6054e-08
5.59557e-06
4.43778e-08
5.59833e-06
4.27903e-08
5.60103e-06
4.13295e-08
5.60377e-06
3.99953e-08
5.60665e-06
3.87496e-08
5.60974e-06
3.74854e-08
3.60364e-08
5.61307e-06
5.95104e-06
9.12746e-09
5.95477e-06
2.55181e-08
5.95933e-06
3.63763e-08
5.96387e-06
4.22955e-08
5.96839e-06
4.56033e-08
5.9728e-06
4.72391e-08
5.97697e-06
4.75009e-08
5.98086e-06
4.68486e-08
5.98451e-06
4.57063e-08
5.98794e-06
4.4313e-08
5.9912e-06
4.28021e-08
5.99431e-06
4.12688e-08
5.99732e-06
3.97753e-08
6.0003e-06
3.83504e-08
6.00331e-06
3.69871e-08
6.00642e-06
3.56442e-08
6.00967e-06
3.4238e-08
3.26596e-08
6.01305e-06
6.37798e-06
7.95969e-09
6.38134e-06
2.21627e-08
6.38565e-06
3.20606e-08
6.39012e-06
3.78276e-08
6.39462e-06
4.11012e-08
6.39907e-06
4.27934e-08
6.40333e-06
4.32408e-08
6.40736e-06
4.28182e-08
6.41117e-06
4.18915e-08
6.4148e-06
4.06893e-08
6.41826e-06
3.93426e-08
6.42159e-06
3.79375e-08
6.42484e-06
3.6529e-08
6.42805e-06
3.51402e-08
6.43127e-06
3.3764e-08
6.43455e-06
3.23654e-08
6.43791e-06
3.08845e-08
2.9257e-08
6.44131e-06
5.74176e-06
7.03606e-09
5.74434e-06
1.95866e-08
5.7478e-06
2.86012e-08
5.75151e-06
3.41126e-08
5.7553e-06
3.73142e-08
5.75907e-06
3.90182e-08
5.76274e-06
3.95756e-08
5.76625e-06
3.93117e-08
5.7696e-06
3.85445e-08
5.7728e-06
3.7488e-08
5.77588e-06
3.62674e-08
5.77885e-06
3.49617e-08
5.78176e-06
3.36224e-08
5.78463e-06
3.22705e-08
5.78749e-06
3.09003e-08
5.79037e-06
2.94873e-08
5.79327e-06
2.79868e-08
2.637e-08
5.79616e-06
6.99914e-06
6.05545e-09
7.00187e-06
1.68582e-08
7.00562e-06
2.48447e-08
7.00978e-06
2.99562e-08
7.01409e-06
3.30055e-08
7.01843e-06
3.46753e-08
7.0227e-06
3.53104e-08
7.02682e-06
3.51888e-08
7.03079e-06
3.45774e-08
7.03461e-06
3.36689e-08
7.0383e-06
3.25783e-08
7.04188e-06
3.13816e-08
7.04538e-06
3.01229e-08
7.04883e-06
2.88235e-08
7.05224e-06
2.74841e-08
7.05564e-06
2.6088e-08
7.05902e-06
2.46127e-08
2.30459e-08
7.06234e-06
8.53188e-06
5.02423e-09
8.53473e-06
1.40052e-08
8.53876e-06
2.08173e-08
8.54335e-06
2.5362e-08
8.54821e-06
2.81529e-08
8.55316e-06
2.97217e-08
8.55809e-06
3.03844e-08
8.5629e-06
3.03735e-08
8.56758e-06
2.99036e-08
8.57211e-06
2.91377e-08
8.57651e-06
2.81838e-08
8.58078e-06
2.71049e-08
8.58496e-06
2.59449e-08
8.58906e-06
2.4724e-08
8.59309e-06
2.34488e-08
8.59706e-06
2.2115e-08
8.60096e-06
2.07113e-08
1.92484e-08
8.60476e-06
1.04003e-05
3.95178e-09
1.04033e-05
1.10442e-08
1.04075e-05
1.65383e-08
1.04126e-05
2.03357e-08
1.0418e-05
2.2735e-08
1.04236e-05
2.41146e-08
1.04292e-05
2.47363e-08
1.04348e-05
2.4788e-08
1.04403e-05
2.44326e-08
1.04456e-05
2.38027e-08
1.04508e-05
2.29854e-08
1.04559e-05
2.20409e-08
1.04608e-05
2.1003e-08
1.04657e-05
1.98965e-08
1.04704e-05
1.87295e-08
1.0475e-05
1.75101e-08
1.04794e-05
1.62346e-08
1.49255e-08
1.04838e-05
1.26779e-05
2.8411e-09
1.2681e-05
7.96919e-09
1.26855e-05
1.20026e-08
1.2691e-05
1.48672e-08
1.2697e-05
1.67198e-08
1.27033e-05
1.77994e-08
1.27097e-05
1.82964e-08
1.27162e-05
1.83494e-08
1.27225e-05
1.80739e-08
1.27288e-05
1.75641e-08
1.27349e-05
1.68899e-08
1.27408e-05
1.6096e-08
1.27466e-05
1.52143e-08
1.27522e-05
1.42634e-08
1.27577e-05
1.32596e-08
1.2763e-05
1.22098e-08
1.27681e-05
1.11236e-08
1.00197e-08
1.2773e-05
1.54543e-05
1.68144e-09
1.54576e-05
4.73075e-09
1.54624e-05
7.15077e-09
1.54684e-05
8.89416e-09
1.54751e-05
1.00305e-08
1.54822e-05
1.06838e-08
1.54895e-05
1.09631e-08
1.54969e-05
1.09511e-08
1.55043e-05
1.0716e-08
1.55115e-05
1.03145e-08
1.55186e-05
9.79002e-09
1.55256e-05
9.17318e-09
1.55323e-05
8.48565e-09
1.55388e-05
7.74344e-09
1.55451e-05
6.95905e-09
1.55512e-05
6.14335e-09
1.5557e-05
5.30415e-09
4.46285e-09
1.55626e-05
1.88389e-05
4.31747e-10
1.88424e-05
1.20559e-09
1.88478e-05
1.80915e-09
1.88544e-05
2.22611e-09
1.8862e-05
2.4707e-09
1.88701e-05
2.56966e-09
1.88785e-05
2.54344e-09
1.88871e-05
2.41089e-09
1.88956e-05
2.18971e-09
1.8904e-05
1.89628e-09
1.89122e-05
1.5433e-09
1.89203e-05
1.14177e-09
1.89281e-05
7.00203e-10
1.89356e-05
2.26585e-10
1.89428e-05
-2.722e-10
1.89497e-05
-7.88498e-10
1.89564e-05
-1.31664e-09
-1.83959e-09
1.89627e-05
2.29648e-05
-1.00856e-09
2.29689e-05
-2.8922e-09
2.29751e-05
-4.43686e-09
2.2983e-05
-5.60763e-09
2.29919e-05
-6.42802e-09
2.30014e-05
-6.98873e-09
2.30113e-05
-7.37474e-09
2.30214e-05
-7.64535e-09
2.30314e-05
-7.83532e-09
2.30413e-05
-7.98038e-09
2.30509e-05
-8.10268e-09
2.30603e-05
-8.2201e-09
2.30693e-05
-8.33848e-09
2.3078e-05
-8.46413e-09
2.30864e-05
-8.5967e-09
2.30943e-05
-8.73731e-09
2.31019e-05
-8.88287e-09
-9.02474e-09
2.31091e-05
1.68118e-05
-2.13789e-09
1.6815e-05
-6.07745e-09
1.68199e-05
-9.29233e-09
1.68259e-05
-1.16401e-08
1.68327e-05
-1.31877e-08
1.68398e-05
-1.41604e-08
1.68472e-05
-1.47517e-08
1.68546e-05
-1.50607e-08
1.6862e-05
-1.51733e-08
1.68692e-05
-1.51562e-08
1.68761e-05
-1.50682e-08
1.68828e-05
-1.49381e-08
1.68893e-05
-1.47905e-08
1.68955e-05
-1.46346e-08
1.69013e-05
-1.44819e-08
1.69069e-05
-1.43326e-08
1.69122e-05
-1.41917e-08
-1.40493e-08
1.69173e-05
1.46357e-05
-3.22115e-09
1.46388e-05
-9.17527e-09
1.46435e-05
-1.40238e-08
1.46493e-05
-1.74092e-08
1.46556e-05
-1.95056e-08
1.46622e-05
-2.07656e-08
1.46689e-05
-2.14574e-08
1.46755e-05
-2.17219e-08
1.46821e-05
-2.16868e-08
1.46884e-05
-2.14718e-08
1.46945e-05
-2.11506e-08
1.47003e-05
-2.07697e-08
1.47059e-05
-2.03574e-08
1.47112e-05
-1.99351e-08
1.47162e-05
-1.95144e-08
1.4721e-05
-1.91029e-08
1.47255e-05
-1.87027e-08
-1.83115e-08
1.47297e-05
1.27411e-05
-4.23487e-09
1.27443e-05
-1.23113e-08
1.27491e-05
-1.88674e-08
1.27548e-05
-2.30722e-08
1.27608e-05
-2.55075e-08
1.2767e-05
-2.69475e-08
1.27732e-05
-2.76569e-08
1.27792e-05
-2.77844e-08
1.27851e-05
-2.75383e-08
1.27907e-05
-2.7084e-08
1.27961e-05
-2.65107e-08
1.28012e-05
-2.58711e-08
1.2806e-05
-2.51994e-08
1.28106e-05
-2.4523e-08
1.28149e-05
-2.3854e-08
1.2819e-05
-2.32029e-08
1.28229e-05
-2.25703e-08
-2.1956e-08
1.28265e-05
1.10918e-05
-5.08174e-09
1.1095e-05
-1.55395e-08
1.11001e-05
-2.40023e-08
1.11058e-05
-2.87087e-08
1.11115e-05
-3.12564e-08
1.11174e-05
-3.2776e-08
1.11231e-05
-3.33994e-08
1.11286e-05
-3.33095e-08
1.11339e-05
-3.28085e-08
1.11389e-05
-3.20937e-08
1.11436e-05
-3.12582e-08
1.11481e-05
-3.03566e-08
1.11524e-05
-2.94336e-08
1.11564e-05
-2.85141e-08
1.11601e-05
-2.76164e-08
1.11637e-05
-2.67447e-08
1.1167e-05
-2.59043e-08
-2.50908e-08
1.11701e-05
9.65582e-06
-5.69119e-09
9.65925e-06
-1.89681e-08
9.6646e-06
-2.93541e-08
9.67011e-06
-3.42135e-08
9.67567e-06
-3.6823e-08
9.68124e-06
-3.83426e-08
9.68658e-06
-3.87386e-08
9.69161e-06
-3.83414e-08
9.69636e-06
-3.75537e-08
9.70083e-06
-3.65702e-08
9.70505e-06
-3.54697e-08
9.709e-06
-3.43112e-08
9.71271e-06
-3.31414e-08
9.71619e-06
-3.19909e-08
9.71944e-06
-3.0873e-08
9.72249e-06
-2.97949e-08
9.72535e-06
-2.87575e-08
-2.77561e-08
9.72801e-06
8.40532e-06
-5.66348e-09
8.40964e-06
-2.32862e-08
8.41488e-06
-3.45932e-08
8.41991e-06
-3.9246e-08
8.42528e-06
-4.21937e-08
8.4307e-06
-4.37546e-08
8.43578e-06
-4.38259e-08
8.44049e-06
-4.30463e-08
8.44485e-06
-4.19178e-08
8.4489e-06
-4.06174e-08
8.45264e-06
-3.92141e-08
8.4561e-06
-3.77699e-08
8.4593e-06
-3.63342e-08
8.46224e-06
-3.49348e-08
8.46495e-06
-3.35866e-08
8.46745e-06
-3.2295e-08
8.46976e-06
-3.10607e-08
-2.98811e-08
8.47188e-06
7.31455e-06
-2.92687e-09
7.32119e-06
-2.99317e-08
7.32675e-06
-4.01473e-08
7.3317e-06
-4.42009e-08
7.3371e-06
-4.75932e-08
7.34242e-06
-4.90765e-08
7.3473e-06
-4.87032e-08
7.35171e-06
-4.74556e-08
7.35568e-06
-4.58885e-08
7.35922e-06
-4.4161e-08
7.36236e-06
-4.23536e-08
7.36513e-06
-4.05365e-08
7.36756e-06
-3.87648e-08
7.36969e-06
-3.7062e-08
7.37154e-06
-3.54425e-08
7.37316e-06
-3.39088e-08
7.37456e-06
-3.24604e-08
-3.10882e-08
7.37577e-06
6.36245e-06
4.68807e-09
6.37189e-06
-3.93751e-08
6.37932e-06
-4.75766e-08
6.38597e-06
-5.08429e-08
6.39225e-06
-5.3877e-08
6.39756e-06
-5.43896e-08
6.40186e-06
-5.29961e-08
6.40533e-06
-5.09317e-08
6.40812e-06
-4.86803e-08
6.4103e-06
-4.6334e-08
6.41191e-06
-4.39678e-08
6.41304e-06
-4.16608e-08
6.41373e-06
-3.94623e-08
6.41406e-06
-3.73912e-08
6.41408e-06
-3.54608e-08
6.41384e-06
-3.36668e-08
6.41339e-06
-3.20099e-08
-3.04684e-08
6.41277e-06
5.5412e-06
8.9498e-09
5.55033e-06
-4.84997e-08
5.55835e-06
-5.55957e-08
5.56605e-06
-5.85457e-08
5.57251e-06
-6.0339e-08
5.57684e-06
-5.87141e-08
5.57908e-06
-5.52355e-08
5.57963e-06
-5.14866e-08
5.57887e-06
-4.79195e-08
5.57707e-06
-4.45372e-08
5.57447e-06
-4.13585e-08
5.57123e-06
-3.84265e-08
5.56752e-06
-3.57489e-08
5.56344e-06
-3.33171e-08
5.55911e-06
-3.11285e-08
5.55461e-06
-2.91657e-08
5.55003e-06
-2.74291e-08
-2.58707e-08
5.54543e-06
4.86004e-06
-2.34866e-08
4.86539e-06
-5.3843e-08
4.86524e-06
-5.54504e-08
4.86217e-06
-5.54761e-08
4.857e-06
-5.51691e-08
4.8495e-06
-5.12135e-08
4.83981e-06
-4.55379e-08
4.82841e-06
-4.00901e-08
4.81583e-06
-3.53404e-08
4.80254e-06
-3.12496e-08
4.78893e-06
-2.77477e-08
4.77528e-06
-2.47725e-08
4.76178e-06
-2.22444e-08
4.74855e-06
-2.00923e-08
4.73569e-06
-1.82708e-08
4.72327e-06
-1.67456e-08
4.7114e-06
-1.55545e-08
-1.52166e-08
4.70075e-06
4.17919e-06
4.12535e-06
4.0699e-06
4.01442e-06
3.95925e-06
3.90804e-06
3.8625e-06
3.82241e-06
3.78707e-06
3.75582e-06
3.72807e-06
3.7033e-06
3.68106e-06
3.66096e-06
3.64269e-06
3.62595e-06
3.61039e-06
3.59518e-06
2.10129e-08
-2.10467e-08
3.9793e-08
-1.87707e-08
5.1858e-08
-1.21264e-08
5.66224e-08
-4.74018e-09
5.42853e-08
2.2697e-09
4.59585e-08
8.35904e-09
3.25512e-08
1.33231e-08
1.53536e-08
1.72331e-08
-5.00694e-09
2.02718e-08
-2.76327e-08
2.26569e-08
-5.22782e-08
2.45645e-08
-7.8356e-08
2.60931e-08
-1.05875e-07
2.74489e-08
-1.34799e-07
2.89207e-08
-1.65395e-07
3.05344e-08
-1.97147e-07
3.17428e-08
-2.30393e-07
3.31911e-08
-2.6584e-07
3.54407e-08
-3.05716e-07
3.98288e-08
-3.52834e-07
4.71266e-08
-4.10709e-07
5.7815e-08
-4.67412e-07
5.67256e-08
-5.14476e-07
4.69908e-08
-5.66298e-07
5.18597e-08
-6.22141e-07
5.57725e-08
-6.80459e-07
5.83549e-08
-7.40407e-07
5.98687e-08
-8.01012e-07
6.06359e-08
-8.61943e-07
6.08509e-08
-9.22566e-07
6.06464e-08
-9.82752e-07
6.00957e-08
-1.04201e-06
5.92742e-08
-1.10033e-06
5.82274e-08
-1.15734e-06
5.70146e-08
-1.21311e-06
5.56704e-08
-1.26736e-06
5.42449e-08
-1.32022e-06
5.27611e-08
-1.37149e-06
5.12582e-08
-1.42133e-06
4.97478e-08
-1.46959e-06
4.82587e-08
-1.51646e-06
4.67928e-08
-1.56183e-06
4.53698e-08
-1.60588e-06
4.39847e-08
-1.64854e-06
4.26507e-08
-1.68996e-06
4.13576e-08
-1.73008e-06
4.01134e-08
-1.76906e-06
3.89058e-08
-1.80681e-06
3.774e-08
-1.84347e-06
3.66028e-08
-1.87898e-06
3.54979e-08
-1.91345e-06
3.44112e-08
-1.94681e-06
3.33451e-08
-1.97915e-06
3.22862e-08
-2.01041e-06
3.12361e-08
-2.04065e-06
3.01827e-08
-2.06981e-06
2.91289e-08
-2.09794e-06
2.80643e-08
-2.12497e-06
2.69916e-08
-2.15094e-06
2.59021e-08
-2.17579e-06
2.47997e-08
-2.19953e-06
2.3677e-08
-2.22213e-06
2.25385e-08
-2.24357e-06
2.13791e-08
-2.26384e-06
2.02036e-08
-2.28291e-06
1.901e-08
-2.30077e-06
1.78043e-08
-2.31742e-06
1.65857e-08
-2.33284e-06
1.53616e-08
-2.34703e-06
1.41324e-08
-2.35998e-06
1.29067e-08
-2.37173e-06
1.16859e-08
-2.38225e-06
1.04806e-08
-2.3916e-06
9.29274e-09
-2.39979e-06
8.13564e-09
-2.40685e-06
7.0091e-09
-2.41283e-06
5.92776e-09
-2.41778e-06
4.89276e-09
-2.42176e-06
3.92057e-09
-2.42484e-06
3.00917e-09
-2.42707e-06
2.17668e-09
-2.42856e-06
1.4198e-09
-2.42937e-06
7.57506e-10
-2.42963e-06
1.81817e-10
-2.42937e-06
-2.8472e-10
-2.42876e-06
-6.57571e-10
-2.42783e-06
-9.12621e-10
-2.42679e-06
-1.07865e-09
-2.4257e-06
-1.11469e-09
-2.4248e-06
-1.04224e-09
-2.42417e-06
-8.6532e-10
-2.42379e-06
-5.82627e-10
-2.42371e-06
-2.06884e-10
-2.42407e-06
2.55298e-10
-2.42493e-06
8.00006e-10
-2.42641e-06
1.41767e-09
-2.42855e-06
2.09653e-09
-2.43142e-06
2.82013e-09
-2.43504e-06
3.57517e-09
-2.43942e-06
4.32843e-09
-2.44442e-06
4.94428e-09
-2.45005e-06
5.55171e-09
-2.45657e-06
6.41232e-09
-2.46367e-06
6.95572e-09
-2.471e-06
7.1453e-09
-2.47889e-06
7.67763e-09
-2.487e-06
7.885e-09
-2.49498e-06
7.75761e-09
-2.5028e-06
7.58369e-09
-2.51019e-06
7.17641e-09
-2.51695e-06
6.53276e-09
-2.52278e-06
5.61577e-09
-2.52751e-06
4.49987e-09
-2.53086e-06
3.13894e-09
-2.53226e-06
1.15729e-09
-2.5314e-06
-1.0789e-09
-2.52886e-06
-2.79948e-09
-2.52418e-06
-4.90894e-09
-2.51677e-06
-7.63805e-09
-2.50698e-06
-9.94784e-09
-2.49442e-06
-1.27517e-08
-2.47865e-06
-1.60066e-08
-2.4597e-06
-1.9347e-08
-2.43732e-06
-2.27821e-08
-2.41145e-06
-2.63417e-08
-2.38154e-06
-3.02306e-08
-2.34764e-06
-3.42285e-08
-2.30957e-06
-3.82104e-08
-2.26738e-06
-4.23398e-08
-2.22079e-06
-4.6559e-08
-2.16995e-06
-5.08164e-08
-2.11469e-06
-5.50721e-08
-2.05506e-06
-5.94469e-08
-1.99099e-06
-6.37331e-08
-1.92266e-06
-6.80139e-08
-1.85003e-06
-7.21866e-08
-1.77331e-06
-7.62878e-08
-1.69254e-06
-8.0238e-08
-1.60795e-06
-8.40579e-08
-1.51965e-06
-8.76736e-08
-1.42793e-06
-9.10963e-08
-1.33304e-06
-9.42786e-08
-1.23529e-06
-9.72222e-08
-1.13493e-06
-9.99063e-08
-1.03225e-06
-1.02316e-07
-9.27503e-07
-1.04437e-07
-8.20985e-07
-1.06264e-07
-7.12973e-07
-1.07803e-07
-6.03764e-07
-1.09047e-07
-4.93627e-07
-1.10021e-07
-3.82879e-07
-1.1067e-07
-2.7175e-07
-1.11099e-07
-1.59993e-07
-1.11755e-07
-4.70576e-08
-1.12977e-07
6.73797e-08
-1.14493e-07
1.82061e-07
-1.14771e-07
2.95578e-07
-1.13612e-07
4.07289e-07
-1.11831e-07
5.16804e-07
-1.09637e-07
6.23806e-07
-1.07139e-07
7.28048e-07
-1.04379e-07
8.29345e-07
-1.0144e-07
9.2756e-07
-9.83574e-08
1.02258e-06
-9.51618e-08
1.11433e-06
-9.18865e-08
1.20276e-06
-8.85591e-08
1.2878e-06
-8.51777e-08
1.36944e-06
-8.17509e-08
1.44762e-06
-7.82961e-08
1.52232e-06
-7.48112e-08
1.59348e-06
-7.12574e-08
1.66101e-06
-6.76136e-08
1.72479e-06
-6.38625e-08
1.78466e-06
-5.99353e-08
1.8403e-06
-5.56951e-08
1.89111e-06
-5.08653e-08
1.93594e-06
-4.48833e-08
1.9722e-06
-3.63092e-08
1.99299e-06
-2.08309e-08
1.97649e-06
1.64631e-08
8.92958e-08
1.88719e-06
1.37106e-08
-3.47854e-08
1.88044e-08
-2.38705e-08
1.78815e-08
-1.12338e-08
1.2483e-08
6.63305e-10
3.14503e-09
1.15774e-08
-9.88236e-09
2.13948e-08
-2.66349e-08
3.00412e-08
-4.69403e-08
3.75484e-08
-7.07484e-08
4.40442e-08
-9.78005e-08
4.97167e-08
-1.2806e-07
5.47887e-08
-1.61436e-07
5.94702e-08
-1.97965e-07
6.39435e-08
-2.37508e-07
6.84562e-08
-2.80217e-07
7.32101e-08
-3.26696e-07
7.82108e-08
-3.77048e-07
8.35108e-08
-4.31102e-07
8.94828e-08
-4.87665e-07
9.63626e-08
-5.44523e-07
1.03977e-07
-5.97762e-07
1.11028e-07
-6.55262e-07
1.14219e-07
-7.22157e-07
1.13863e-07
-7.85347e-07
1.1505e-07
-8.46025e-07
1.16428e-07
-9.05013e-07
1.1734e-07
-9.62758e-07
1.1759e-07
-1.01929e-06
1.17164e-07
-1.0746e-06
1.16136e-07
-1.12856e-06
1.14598e-07
-1.18113e-06
1.12643e-07
-1.23222e-06
1.10358e-07
-1.28185e-06
1.07821e-07
-1.32995e-06
1.05105e-07
-1.37659e-06
1.02271e-07
-1.42173e-06
9.93762e-08
-1.46547e-06
9.64618e-08
-1.50779e-06
9.35655e-08
-1.54879e-06
9.07127e-08
-1.58847e-06
8.79248e-08
-1.62691e-06
8.52131e-08
-1.66414e-06
8.25868e-08
-1.70023e-06
8.00469e-08
-1.73519e-06
7.75943e-08
-1.76908e-06
7.52238e-08
-1.80191e-06
7.29313e-08
-1.83374e-06
7.07078e-08
-1.86456e-06
6.85468e-08
-1.89442e-06
6.64374e-08
-1.92332e-06
6.4372e-08
-1.95127e-06
6.2339e-08
-1.97827e-06
6.03303e-08
-2.00434e-06
5.83346e-08
-2.02947e-06
5.63449e-08
-2.05367e-06
5.43517e-08
-2.07691e-06
5.23497e-08
-2.09921e-06
5.03312e-08
-2.12054e-06
4.82931e-08
-2.14091e-06
4.62299e-08
-2.16028e-06
4.41402e-08
-2.17866e-06
4.20209e-08
-2.19602e-06
3.9873e-08
-2.21238e-06
3.76958e-08
-2.2277e-06
3.54931e-08
-2.24199e-06
3.32671e-08
-2.25524e-06
3.10239e-08
-2.26746e-06
2.87683e-08
-2.27864e-06
2.65091e-08
-2.28879e-06
2.42529e-08
-2.29793e-06
2.20109e-08
-2.30606e-06
1.9792e-08
-2.31322e-06
1.761e-08
-2.31943e-06
1.54755e-08
-2.32473e-06
1.34037e-08
-2.32916e-06
1.14053e-08
-2.33276e-06
9.49711e-09
-2.33559e-06
7.69033e-09
-2.3377e-06
6.00265e-09
-2.33917e-06
4.44396e-09
-2.34006e-06
3.03095e-09
-2.34045e-06
1.77201e-09
-2.34042e-06
6.83177e-10
-2.34004e-06
-2.31406e-10
-2.33939e-06
-9.58294e-10
-2.33857e-06
-1.4993e-09
-2.33764e-06
-1.84341e-09
-2.33673e-06
-1.99949e-09
-2.33591e-06
-1.95396e-09
-2.33532e-06
-1.71538e-09
-2.33502e-06
-1.29106e-09
-2.335e-06
-6.97005e-10
-2.33533e-06
5.40435e-11
-2.33607e-06
9.48352e-10
-2.33726e-06
1.96791e-09
-2.33896e-06
3.08969e-09
-2.34116e-06
4.28797e-09
-2.34389e-06
5.52639e-09
-2.34711e-06
6.77288e-09
-2.35078e-06
7.97489e-09
-2.35495e-06
9.07948e-09
-2.35955e-06
1.00989e-08
-2.36427e-06
1.10771e-08
-2.36923e-06
1.18107e-08
-2.37443e-06
1.22295e-08
-2.37939e-06
1.25063e-08
-2.38413e-06
1.24829e-08
-2.38858e-06
1.20622e-08
-2.39245e-06
1.13228e-08
-2.39561e-06
1.01945e-08
-2.39789e-06
8.68427e-09
-2.3992e-06
6.77701e-09
-2.39927e-06
4.44056e-09
-2.39799e-06
1.71681e-09
-2.39548e-06
-1.48742e-09
-2.39153e-06
-5.18248e-09
-2.3853e-06
-9.17007e-09
-2.37678e-06
-1.35858e-08
-2.36598e-06
-1.8554e-08
-2.35219e-06
-2.38385e-08
-2.33545e-06
-2.96049e-08
-2.31573e-06
-3.59086e-08
-2.2927e-06
-4.26107e-08
-2.26611e-06
-4.96622e-08
-2.23564e-06
-5.70735e-08
-2.2013e-06
-6.48107e-08
-2.16291e-06
-7.27917e-08
-2.12024e-06
-8.10039e-08
-2.07323e-06
-8.94143e-08
-2.02183e-06
-9.79788e-08
-1.96595e-06
-1.06661e-07
-1.9055e-06
-1.15437e-07
-1.84055e-06
-1.24272e-07
-1.77106e-06
-1.33054e-07
-1.6971e-06
-1.4177e-07
-1.61872e-06
-1.50331e-07
-1.53605e-06
-1.58703e-07
-1.4492e-06
-1.66803e-07
-1.35835e-06
-1.74595e-07
-1.26368e-06
-1.81997e-07
-1.16546e-06
-1.88973e-07
-1.06396e-06
-1.9546e-07
-9.59474e-07
-2.01437e-07
-8.52297e-07
-2.06859e-07
-7.42734e-07
-2.11701e-07
-6.31088e-07
-2.15932e-07
-5.17683e-07
-2.19554e-07
-4.02827e-07
-2.22559e-07
-2.86833e-07
-2.24973e-07
-1.69911e-07
-2.26887e-07
-5.21305e-08
-2.28425e-07
6.62831e-08
-2.29498e-07
1.84619e-07
-2.30105e-07
3.01823e-07
-2.30203e-07
4.16815e-07
-2.2953e-07
5.29634e-07
-2.27638e-07
6.40554e-07
-2.246e-07
7.49381e-07
-2.20727e-07
8.55888e-07
-2.1623e-07
9.59875e-07
-2.11211e-07
1.06117e-06
-2.05769e-07
1.15963e-06
-1.99997e-07
1.25515e-06
-1.93984e-07
1.34765e-06
-1.87756e-07
1.43704e-06
-1.81383e-07
1.52327e-06
-1.74894e-07
1.6063e-06
-1.68316e-07
1.68612e-06
-1.61661e-07
1.76268e-06
-1.54954e-07
1.83595e-06
-1.4817e-07
1.90587e-06
-1.41263e-07
1.97236e-06
-1.34185e-07
2.03532e-06
-1.26897e-07
2.09457e-06
-1.19252e-07
2.1498e-06
-1.10996e-07
2.20047e-06
-1.01592e-07
2.24562e-06
-9.00885e-08
2.28342e-06
-7.41611e-08
2.31197e-06
-4.9427e-08
2.33098e-06
-2.59022e-09
8.96893e-08
2.33058e-06
-4.32257e-10
-3.43816e-08
-7.60855e-09
-1.67031e-08
-1.82588e-08
-6.06824e-10
-3.16312e-08
1.40375e-08
-4.75336e-08
2.74598e-08
-6.59505e-08
3.98168e-08
-8.71045e-08
5.11748e-08
-1.1115e-07
6.16005e-08
-1.38324e-07
7.1197e-08
-1.68708e-07
8.01048e-08
-2.02419e-07
8.84789e-08
-2.39413e-07
9.64645e-08
-2.79669e-07
1.04178e-07
-3.22956e-07
1.11739e-07
-3.69025e-07
1.19258e-07
-4.17581e-07
1.2676e-07
-4.68271e-07
1.34181e-07
-5.20284e-07
1.41487e-07
-5.72539e-07
1.48599e-07
-6.23789e-07
1.55219e-07
-6.73502e-07
1.60724e-07
-7.23664e-07
1.64375e-07
-7.76023e-07
1.66204e-07
-8.28218e-07
1.67241e-07
-8.79487e-07
1.67681e-07
-9.29632e-07
1.6748e-07
-9.78671e-07
1.66612e-07
-1.02661e-06
1.65096e-07
-1.07348e-06
1.6299e-07
-1.11926e-06
1.60375e-07
-1.16398e-06
1.5734e-07
-1.2076e-06
1.53971e-07
-1.25014e-06
1.50352e-07
-1.2916e-06
1.46558e-07
-1.33201e-06
1.42656e-07
-1.37134e-06
1.38703e-07
-1.40965e-06
1.34747e-07
-1.44691e-06
1.30825e-07
-1.48318e-06
1.26965e-07
-1.51845e-06
1.23187e-07
-1.55276e-06
1.19506e-07
-1.58611e-06
1.15929e-07
-1.61854e-06
1.12458e-07
-1.65004e-06
1.09091e-07
-1.68066e-06
1.05823e-07
-1.71038e-06
1.02647e-07
-1.73925e-06
9.95549e-08
-1.76725e-06
9.65348e-08
-1.7944e-06
9.35755e-08
-1.82071e-06
9.06654e-08
-1.84617e-06
8.77918e-08
-1.8708e-06
8.49427e-08
-1.89459e-06
8.2106e-08
-1.91753e-06
7.92711e-08
-1.93963e-06
7.64275e-08
-1.96086e-06
7.35667e-08
-1.98123e-06
7.06808e-08
-2.00072e-06
6.77639e-08
-2.01932e-06
6.48108e-08
-2.03702e-06
6.18185e-08
-2.05381e-06
5.87849e-08
-2.06966e-06
5.57104e-08
-2.08459e-06
5.25964e-08
-2.09856e-06
4.94467e-08
-2.11158e-06
4.62664e-08
-2.12364e-06
4.30632e-08
-2.13474e-06
3.98455e-08
-2.14487e-06
3.66244e-08
-2.15405e-06
3.34117e-08
-2.16228e-06
3.02218e-08
-2.16958e-06
2.70697e-08
-2.17596e-06
2.39728e-08
-2.18145e-06
2.09484e-08
-2.18608e-06
1.80163e-08
-2.18989e-06
1.51949e-08
-2.19292e-06
1.25046e-08
-2.19521e-06
9.96502e-09
-2.19683e-06
7.59665e-09
-2.19783e-06
5.4178e-09
-2.19827e-06
3.44735e-09
-2.19822e-06
1.70121e-09
-2.19776e-06
1.95533e-10
-2.19695e-06
-1.05821e-09
-2.19588e-06
-2.04887e-09
-2.19462e-06
-2.77156e-09
-2.19325e-06
-3.22068e-09
-2.19185e-06
-3.39818e-09
-2.19052e-06
-3.30282e-09
-2.18934e-06
-2.94076e-09
-2.18837e-06
-2.32689e-09
-2.18765e-06
-1.4775e-09
-2.18721e-06
-4.14893e-10
-2.18711e-06
8.38808e-10
-2.1874e-06
2.25354e-09
-2.18811e-06
3.79702e-09
-2.18925e-06
5.42629e-09
-2.19082e-06
7.09841e-09
-2.19281e-06
8.75889e-09
-2.1952e-06
1.03563e-08
-2.19798e-06
1.18303e-08
-2.20105e-06
1.3147e-08
-2.20431e-06
1.4277e-08
-2.2077e-06
1.51299e-08
-2.21118e-06
1.56228e-08
-2.21453e-06
1.57634e-08
-2.21765e-06
1.55081e-08
-2.22046e-06
1.47633e-08
-2.22275e-06
1.35209e-08
-2.22438e-06
1.1734e-08
-2.2252e-06
9.40736e-09
-2.22502e-06
6.50426e-09
-2.22365e-06
2.9788e-09
-2.22091e-06
-1.12768e-09
-2.21664e-06
-5.85579e-09
-2.21062e-06
-1.13067e-08
-2.20247e-06
-1.74147e-08
-2.19202e-06
-2.414e-08
-2.17909e-06
-3.15572e-08
-2.16337e-06
-3.96378e-08
-2.14469e-06
-4.83579e-08
-2.12297e-06
-5.77696e-08
-2.09795e-06
-6.78093e-08
-2.06938e-06
-7.84499e-08
-2.037e-06
-8.96339e-08
-2.00071e-06
-1.01271e-07
-1.96034e-06
-1.1328e-07
-1.91576e-06
-1.25684e-07
-1.86683e-06
-1.38377e-07
-1.81351e-06
-1.51319e-07
-1.7557e-06
-1.64439e-07
-1.69337e-06
-1.77714e-07
-1.62651e-06
-1.91034e-07
-1.55514e-06
-2.04314e-07
-1.47929e-06
-2.17472e-07
-1.39904e-06
-2.30416e-07
-1.31451e-06
-2.43051e-07
-1.22584e-06
-2.55281e-07
-1.1332e-06
-2.67012e-07
-1.03682e-06
-2.78151e-07
-9.36946e-07
-2.88615e-07
-8.33868e-07
-2.98328e-07
-7.27893e-07
-3.07234e-07
-6.19335e-07
-3.15275e-07
-5.08512e-07
-3.22405e-07
-3.95754e-07
-3.28594e-07
-2.81393e-07
-3.33831e-07
-1.65745e-07
-3.38142e-07
-4.9085e-08
-3.41576e-07
6.82269e-08
-3.44157e-07
1.85672e-07
-3.45832e-07
3.02717e-07
-3.46519e-07
4.18851e-07
-3.46215e-07
5.33534e-07
-3.44876e-07
6.46313e-07
-3.423e-07
7.57049e-07
-3.38377e-07
8.65683e-07
-3.33233e-07
9.72037e-07
-3.2709e-07
1.07593e-06
-3.20129e-07
1.17719e-06
-3.12486e-07
1.27568e-06
-3.04271e-07
1.37128e-06
-2.95612e-07
1.4639e-06
-2.8661e-07
1.55346e-06
-2.77328e-07
1.6399e-06
-2.67838e-07
1.7232e-06
-2.58208e-07
1.80336e-06
-2.4848e-07
1.88035e-06
-2.38667e-07
1.95417e-06
-2.28776e-07
2.02477e-06
-2.18784e-07
2.09213e-06
-2.08628e-07
2.15619e-06
-1.98251e-07
2.21686e-06
-1.87568e-07
2.27399e-06
-1.76379e-07
2.32731e-06
-1.64316e-07
2.37639e-06
-1.50668e-07
2.42051e-06
-1.34204e-07
2.45864e-06
-1.12286e-07
2.48961e-06
-8.03957e-08
2.51507e-06
-2.80481e-08
6.4573e-08
2.54021e-06
-1.32041e-08
-2.12066e-08
-2.98226e-08
-9.34217e-11
-4.80737e-08
1.76249e-08
-6.77682e-08
3.37326e-08
-8.90078e-08
4.86844e-08
-1.11936e-07
6.27489e-08
-1.36827e-07
7.60512e-08
-1.63885e-07
8.86634e-08
-1.93351e-07
1.00649e-07
-2.25317e-07
1.12073e-07
-2.59848e-07
1.22996e-07
-2.96846e-07
1.33463e-07
-3.36185e-07
1.43503e-07
-3.77588e-07
1.53141e-07
-4.20723e-07
1.62379e-07
-4.65141e-07
1.71175e-07
-5.10416e-07
1.79442e-07
-5.56022e-07
1.87089e-07
-6.01439e-07
1.94001e-07
-6.46214e-07
1.9999e-07
-6.90303e-07
2.04798e-07
-7.34151e-07
2.08217e-07
-7.78226e-07
2.10265e-07
-8.22191e-07
2.11201e-07
-8.65731e-07
2.11207e-07
-9.08641e-07
2.10384e-07
-9.50849e-07
2.08806e-07
-9.92305e-07
2.06547e-07
-1.03301e-06
2.03684e-07
-1.07295e-06
2.00303e-07
-1.11211e-06
1.96494e-07
-1.15049e-06
1.92345e-07
-1.18809e-06
1.8794e-07
-1.2249e-06
1.83355e-07
-1.26091e-06
1.78656e-07
-1.29611e-06
1.73903e-07
-1.33052e-06
1.69143e-07
-1.36412e-06
1.64413e-07
-1.39691e-06
1.59745e-07
-1.42889e-06
1.55161e-07
-1.46007e-06
1.50676e-07
-1.49044e-06
1.46298e-07
-1.52002e-06
1.4203e-07
-1.54881e-06
1.37872e-07
-1.57682e-06
1.33819e-07
-1.60404e-06
1.29863e-07
-1.63049e-06
1.25994e-07
-1.65617e-06
1.22202e-07
-1.68108e-06
1.18472e-07
-1.70522e-06
1.14792e-07
-1.72858e-06
1.11148e-07
-1.75118e-06
1.07525e-07
-1.773e-06
1.0391e-07
-1.79403e-06
1.0029e-07
-1.81427e-06
9.66537e-08
-1.83371e-06
9.29906e-08
-1.85233e-06
8.92914e-08
-1.87013e-06
8.5549e-08
-1.8871e-06
8.17576e-08
-1.90321e-06
7.79135e-08
-1.91845e-06
7.40151e-08
-1.93282e-06
7.00627e-08
-1.9463e-06
6.60588e-08
-1.95887e-06
6.20085e-08
-1.97054e-06
5.79189e-08
-1.98129e-06
5.37992e-08
-1.99112e-06
4.96615e-08
-2.00003e-06
4.55197e-08
-2.00803e-06
4.13896e-08
-2.01511e-06
3.72897e-08
-2.02129e-06
3.32397e-08
-2.02659e-06
2.92618e-08
-2.03104e-06
2.53791e-08
-2.03465e-06
2.1616e-08
-2.03747e-06
1.79975e-08
-2.03953e-06
1.45494e-08
-2.04088e-06
1.12972e-08
-2.04156e-06
8.2665e-09
-2.04164e-06
5.48154e-09
-2.04118e-06
2.9654e-09
-2.04024e-06
7.39154e-10
-2.03888e-06
-1.17835e-09
-2.03719e-06
-2.77158e-09
-2.03522e-06
-4.02827e-09
-2.03306e-06
-4.94048e-09
-2.03079e-06
-5.50399e-09
-2.02847e-06
-5.71927e-09
-2.02618e-06
-5.59048e-09
-2.02403e-06
-5.12775e-09
-2.02206e-06
-4.34746e-09
-2.02029e-06
-3.27238e-09
-2.01879e-06
-1.93142e-09
-2.01759e-06
-3.55091e-10
-2.01674e-06
1.41594e-09
-2.01627e-06
3.33884e-09
-2.0162e-06
5.35917e-09
-2.01651e-06
7.42178e-09
-2.01721e-06
9.46054e-09
-2.01827e-06
1.14119e-08
-2.01966e-06
1.32046e-08
-2.02132e-06
1.47787e-08
-2.02317e-06
1.6077e-08
-2.02512e-06
1.70247e-08
-2.02712e-06
1.75431e-08
-2.02903e-06
1.75864e-08
-2.03071e-06
1.71103e-08
-2.03206e-06
1.60309e-08
-2.03292e-06
1.43008e-08
-2.03313e-06
1.18731e-08
-2.03254e-06
8.73369e-09
-2.03093e-06
4.82631e-09
-2.02815e-06
1.17543e-10
-2.02397e-06
-5.3845e-09
-2.01819e-06
-1.17184e-08
-2.0106e-06
-1.89781e-08
-2.00096e-06
-2.71315e-08
-1.98904e-06
-3.61342e-08
-1.97464e-06
-4.60131e-08
-1.95754e-06