/*--------------------------------*- C++ -*----------------------------------*\
  =========                 |
  \\      /  F ield         | OpenFOAM: The Open Source CFD Toolbox
   \\    /   O peration     | Website:  https://openfoam.org
    \\  /    A nd           | Version:  8
     \\/     M anipulation  |
\*---------------------------------------------------------------------------*/
FoamFile
{
    version     2.0;
    format      ascii;
    class       volVectorField;
    location    "110";
    object      U;
}
// * * * * * * * * * * * * * * * * * * * * * * * * * * * * * * * * * * * * * //

dimensions      [0 1 -1 0 0 0 0];

internalField   nonuniform List<vector> 
12225
(
(9.85698 -0.886409 0)
(9.66661 -0.74075 0)
(9.45564 -0.429464 0)
(9.22435 -0.222203 0)
(9.00621 -0.10643 0)
(8.8139 -0.0458296 0)
(8.64672 -0.0151356 0)
(8.50432 0.000519543 0)
(8.38215 0.00847996 0)
(8.27893 0.0124062 0)
(8.18964 0.0141902 0)
(8.11247 0.0152886 0)
(8.04399 0.0158297 0)
(7.98271 0.0162878 0)
(7.92527 0.0167892 0)
(7.87352 0.0179506 0)
(7.80324 0.0199692 0)
(7.79266 0.0276017 0)
(10.0545 0.227553 0)
(10.1211 0.326935 0)
(10.1196 0.261584 0)
(10.0855 0.186577 0)
(10.0433 0.13471 0)
(9.99654 0.101179 0)
(9.94375 0.0793825 0)
(9.88478 0.0646891 0)
(9.82326 0.0544352 0)
(9.76039 0.0469217 0)
(9.6986 0.0412703 0)
(9.63819 0.0368956 0)
(9.58022 0.0335216 0)
(9.52481 0.0311431 0)
(9.47134 0.0294765 0)
(9.42262 0.0307075 0)
(9.37023 0.030378 0)
(9.34314 0.0514914 0)
(10.0035 0.057922 0)
(10.0303 0.0560211 0)
(10.056 0.0338113 0)
(10.0703 0.0329391 0)
(10.0768 0.0407134 0)
(10.0776 0.0466375 0)
(10.0722 0.0494868 0)
(10.0609 0.0504829 0)
(10.0455 0.0504549 0)
(10.0268 0.0498478 0)
(10.0059 0.0489622 0)
(9.98314 0.048041 0)
(9.9593 0.0472279 0)
(9.93469 0.0468043 0)
(9.9093 0.0467349 0)
(9.88434 0.0485604 0)
(9.85839 0.0508772 0)
(9.83694 0.0619286 0)
(9.99779 0.0110612 0)
(10.011 0.0266293 0)
(10.035 0.0371894 0)
(10.0524 0.0481446 0)
(10.0642 0.055539 0)
(10.0732 0.0583063 0)
(10.0791 0.0585251 0)
(10.0819 0.057852 0)
(10.0821 0.0569006 0)
(10.0803 0.0558455 0)
(10.0769 0.0547805 0)
(10.072 0.0538638 0)
(10.066 0.0531489 0)
(10.0591 0.0528852 0)
(10.0513 0.053107 0)
(10.0433 0.0548306 0)
(10.0352 0.0574236 0)
(10.0292 0.064188 0)
(9.99935 0.00720789 0)
(10.009 0.0316837 0)
(10.0274 0.0439724 0)
(10.0417 0.0499996 0)
(10.0526 0.0537226 0)
(10.0626 0.0553913 0)
(10.0712 0.055733 0)
(10.0779 0.0555276 0)
(10.0828 0.0551035 0)
(10.0864 0.0545696 0)
(10.0888 0.0540074 0)
(10.0904 0.0535554 0)
(10.091 0.0532924 0)
(10.0911 0.0534239 0)
(10.0905 0.0540435 0)
(10.0899 0.0557375 0)
(10.0897 0.0582449 0)
(10.0912 0.0624657 0)
(10.0003 0.00919101 0)
(10.0083 0.0312068 0)
(10.0227 0.041006 0)
(10.0349 0.0454867 0)
(10.0449 0.0491724 0)
(10.0545 0.0515609 0)
(10.0634 0.052615 0)
(10.0709 0.0529475 0)
(10.0772 0.0529522 0)
(10.0826 0.0527849 0)
(10.0871 0.052549 0)
(10.091 0.0523759 0)
(10.0942 0.052362 0)
(10.097 0.0526693 0)
(10.0995 0.053397 0)
(10.102 0.0548493 0)
(10.1051 0.0568768 0)
(10.1095 0.0594903 0)
(10.0005 0.00896017 0)
(10.0071 0.02713 0)
(10.019 0.0364873 0)
(10.0301 0.0415016 0)
(10.0394 0.045573 0)
(10.0484 0.0483005 0)
(10.057 0.0496526 0)
(10.0645 0.050235 0)
(10.0711 0.0504636 0)
(10.077 0.0505029 0)
(10.0823 0.0504577 0)
(10.0871 0.0504455 0)
(10.0914 0.0505636 0)
(10.0955 0.050932 0)
(10.0993 0.0516277 0)
(10.1033 0.0527834 0)
(10.1078 0.0542644 0)
(10.1133 0.0558104 0)
(10.0004 0.00793405 0)
(10.006 0.0234316 0)
(10.0161 0.0328218 0)
(10.0262 0.0382303 0)
(10.035 0.0422797 0)
(10.0434 0.0450327 0)
(10.0514 0.0465361 0)
(10.0588 0.047294 0)
(10.0654 0.0476849 0)
(10.0714 0.0478718 0)
(10.077 0.0479581 0)
(10.0822 0.0480487 0)
(10.087 0.048233 0)
(10.0916 0.0485957 0)
(10.0961 0.0491846 0)
(10.1008 0.0500319 0)
(10.106 0.0510014 0)
(10.1118 0.0517939 0)
(10.0004 0.00698104 0)
(10.005 0.0204868 0)
(10.0136 0.0295521 0)
(10.0228 0.0350077 0)
(10.0311 0.0389188 0)
(10.039 0.0416573 0)
(10.0466 0.0432901 0)
(10.0537 0.0441976 0)
(10.0602 0.0447157 0)
(10.0662 0.0450114 0)
(10.0718 0.0451875 0)
(10.0771 0.0453375 0)
(10.0822 0.0455383 0)
(10.0871 0.0458476 0)
(10.0919 0.0462864 0)
(10.0969 0.046835 0)
(10.1023 0.0473615 0)
(10.1081 0.0476138 0)
(10.0004 0.00615274 0)
(10.0043 0.0179285 0)
(10.0116 0.0263857 0)
(10.0198 0.0317442 0)
(10.0275 0.0355346 0)
(10.035 0.0382437 0)
(10.0422 0.0399628 0)
(10.049 0.04098 0)
(10.0554 0.0415907 0)
(10.0613 0.0419625 0)
(10.0669 0.0421953 0)
(10.0722 0.0423713 0)
(10.0774 0.0425532 0)
(10.0824 0.0427792 0)
(10.0874 0.0430512 0)
(10.0925 0.0433274 0)
(10.0978 0.043491 0)
(10.1034 0.0433574 0)
(10.0003 0.00539514 0)
(10.0036 0.0156254 0)
(10.0099 0.0233575 0)
(10.0172 0.0285227 0)
(10.0244 0.0321755 0)
(10.0314 0.0348125 0)
(10.0382 0.0365609 0)
(10.0448 0.0376453 0)
(10.0509 0.0383174 0)
(10.0567 0.0387373 0)
(10.0623 0.0389998 0)
(10.0676 0.0391757 0)
(10.0728 0.0393153 0)
(10.0778 0.0394431 0)
(10.0828 0.0395505 0)
(10.0879 0.039591 0)
(10.0931 0.0394703 0)
(10.0984 0.0390641 0)
(10.0003 0.0047318 0)
(10.0032 0.0136891 0)
(10.0086 0.0207187 0)
(10.0152 0.0256217 0)
(10.0219 0.0291115 0)
(10.0284 0.0316455 0)
(10.0349 0.0333762 0)
(10.0412 0.0344866 0)
(10.0472 0.0351883 0)
(10.0529 0.0356289 0)
(10.0584 0.0358972 0)
(10.0636 0.0360539 0)
(10.0687 0.0361409 0)
(10.0738 0.0361739 0)
(10.0787 0.0361408 0)
(10.0837 0.0360001 0)
(10.0887 0.0356784 0)
(10.0938 0.0350999 0)
(10.0003 0.00411883 0)
(10.0028 0.0119241 0)
(10.0075 0.0182259 0)
(10.0134 0.0227896 0)
(10.0196 0.0260805 0)
(10.0258 0.0284841 0)
(10.032 0.0301622 0)
(10.038 0.0312678 0)
(10.0438 0.031976 0)
(10.0494 0.0324185 0)
(10.0547 0.0326758 0)
(10.0599 0.0328016 0)
(10.065 0.0328297 0)
(10.0699 0.0327719 0)
(10.0748 0.0326164 0)
(10.0797 0.0323295 0)
(10.0845 0.0318581 0)
(10.0893 0.0311601 0)
(10.0002 0.00348537 0)
(10.0024 0.0100883 0)
(10.0064 0.0155498 0)
(10.0117 0.0196483 0)
(10.0174 0.0226553 0)
(10.0232 0.0248667 0)
(10.029 0.0264383 0)
(10.0347 0.0274972 0)
(10.0403 0.0281809 0)
(10.0457 0.0286001 0)
(10.0509 0.0288266 0)
(10.056 0.0289053 0)
(10.061 0.0288634 0)
(10.0658 0.0287103 0)
(10.0706 0.028438 0)
(10.0753 0.028023 0)
(10.0799 0.0274312 0)
(10.0844 0.026647 0)
(10.0002 0.00282707 0)
(10.002 0.00817925 0)
(10.0055 0.0126987 0)
(10.0101 0.0162001 0)
(10.0153 0.0188186 0)
(10.0207 0.0207587 0)
(10.0261 0.0221548 0)
(10.0315 0.0231092 0)
(10.0368 0.0237241 0)
(10.042 0.0240863 0)
(10.0471 0.0242559 0)
(10.052 0.0242694 0)
(10.0568 0.0241483 0)
(10.0615 0.0239015 0)
(10.0661 0.0235251 0)
(10.0706 0.0230084 0)
(10.075 0.0223308 0)
(10.0792 0.0214992 0)
(10.0002 0.00214274 0)
(10.0017 0.00619796 0)
(10.0047 0.00967915 0)
(10.0088 0.0124473 0)
(10.0134 0.0145546 0)
(10.0183 0.0161262 0)
(10.0234 0.0172622 0)
(10.0285 0.0180393 0)
(10.0335 0.0185282 0)
(10.0385 0.018791 0)
(10.0434 0.0188728 0)
(10.0481 0.0188029 0)
(10.0528 0.0185975 0)
(10.0573 0.0182645 0)
(10.0617 0.0178053 0)
(10.0659 0.0172173 0)
(10.07 0.0164935 0)
(10.074 0.0156494 0)
(10.0002 0.0014288 0)
(10.0015 0.00412896 0)
(10.0041 0.00647287 0)
(10.0077 0.00836987 0)
(10.0119 0.00983116 0)
(10.0164 0.0109209 0)
(10.0211 0.0116997 0)
(10.0259 0.0122162 0)
(10.0306 0.0125133 0)
(10.0354 0.0126285 0)
(10.04 0.0125913 0)
(10.0446 0.012421 0)
(10.049 0.0121298 0)
(10.0533 0.0117236 0)
(10.0574 0.011207 0)
(10.0615 0.0105817 0)
(10.0653 0.00984919 0)
(10.069 0.00902742 0)
(10.0001 0.000668514 0)
(10.0013 0.00191956 0)
(10.0036 0.00300683 0)
(10.0069 0.00388667 0)
(10.0108 0.00455637 0)
(10.015 0.00503726 0)
(10.0194 0.00535133 0)
(10.0239 0.00551707 0)
(10.0284 0.00555148 0)
(10.033 0.00546922 0)
(10.0374 0.00528195 0)
(10.0417 0.00499781 0)
(10.0459 0.00462236 0)
(10.05 0.00415921 0)
(10.0539 0.00361148 0)
(10.0577 0.00298287 0)
(10.0613 0.00227599 0)
(10.0647 0.00150943 0)
(10.0001 -0.000181283 0)
(10.0013 -0.000551017 0)
(10.0035 -0.000891046 0)
(10.0066 -0.00119306 0)
(10.0103 -0.00145969 0)
(10.0144 -0.00170705 0)
(10.0187 -0.00195372 0)
(10.023 -0.00221436 0)
(10.0274 -0.00249799 0)
(10.0318 -0.00281348 0)
(10.036 -0.0031678 0)
(10.0402 -0.00356689 0)
(10.0442 -0.00401408 0)
(10.0481 -0.00451178 0)
(10.0518 -0.00506069 0)
(10.0553 -0.00565999 0)
(10.0587 -0.00630859 0)
(10.0619 -0.00699297 0)
(10.0001 -0.000994417 0)
(10.0013 -0.00291967 0)
(10.0037 -0.00463547 0)
(10.007 -0.00606264 0)
(10.0109 -0.00720167 0)
(10.0151 -0.00811361 0)
(10.0195 -0.00886164 0)
(10.0239 -0.00948908 0)
(10.0283 -0.0100329 0)
(10.0326 -0.0105259 0)
(10.0368 -0.0109956 0)
(10.0409 -0.0114603 0)
(10.0448 -0.0119332 0)
(10.0486 -0.0124227 0)
(10.0522 -0.0129353 0)
(10.0556 -0.0134739 0)
(10.0588 -0.0140408 0)
(10.0619 -0.0146271 0)
(10.0002 -0.0016948 0)
(10.0015 -0.00498507 0)
(10.0041 -0.00790205 0)
(10.0078 -0.010244 0)
(10.012 -0.0120358 0)
(10.0165 -0.0134284 0)
(10.0211 -0.0145297 0)
(10.0257 -0.0153978 0)
(10.0302 -0.0160916 0)
(10.0346 -0.0166707 0)
(10.0388 -0.0171819 0)
(10.0429 -0.0176549 0)
(10.0468 -0.0181103 0)
(10.0505 -0.0185615 0)
(10.0541 -0.0190193 0)
(10.0574 -0.0194892 0)
(10.0606 -0.0199756 0)
(10.0636 -0.0204728 0)
(10.0002 -0.00235932 0)
(10.0017 -0.00702405 0)
(10.0047 -0.0111617 0)
(10.009 -0.0143266 0)
(10.0137 -0.0166215 0)
(10.0186 -0.0183584 0)
(10.0235 -0.0196983 0)
(10.0283 -0.0207142 0)
(10.033 -0.0214875 0)
(10.0375 -0.0221008 0)
(10.0418 -0.0226117 0)
(10.0459 -0.0230589 0)
(10.0498 -0.0234686 0)
(10.0535 -0.0238611 0)
(10.057 -0.0242492 0)
(10.0603 -0.0246418 0)
(10.0635 -0.025043 0)
(10.0664 -0.0254505 0)
(10.0002 -0.00298093 0)
(10.0018 -0.00908734 0)
(10.0054 -0.0144406 0)
(10.0105 -0.0183282 0)
(10.0159 -0.0210735 0)
(10.0212 -0.0231007 0)
(10.0264 -0.0245664 0)
(10.0315 -0.0255972 0)
(10.0364 -0.0263484 0)
(10.041 -0.0269302 0)
(10.0454 -0.0274 0)
(10.0496 -0.0277944 0)
(10.0535 -0.0281429 0)
(10.0572 -0.0284683 0)
(10.0607 -0.0287853 0)
(10.064 -0.0291027 0)
(10.0671 -0.0294249 0)
(10.07 -0.0297506 0)
(10.0001 -0.00352866 0)
(10.0018 -0.0115446 0)
(10.0063 -0.0178808 0)
(10.0123 -0.0219785 0)
(10.0183 -0.0250479 0)
(10.0241 -0.0274633 0)
(10.0297 -0.0291116 0)
(10.0351 -0.0301368 0)
(10.0402 -0.0308104 0)
(10.045 -0.0312983 0)
(10.0495 -0.0316691 0)
(10.0537 -0.0319627 0)
(10.0577 -0.0322136 0)
(10.0614 -0.0324459 0)
(10.0649 -0.0326742 0)
(10.0681 -0.0329051 0)
(10.0712 -0.0331424 0)
(10.074 -0.0333821 0)
(9.99991 -0.00337863 0)
(10.0016 -0.0149637 0)
(10.0073 -0.0227224 0)
(10.0142 -0.0262353 0)
(10.0206 -0.0288242 0)
(10.0269 -0.0311948 0)
(10.0331 -0.0329259 0)
(10.0391 -0.0340275 0)
(10.0445 -0.0347448 0)
(10.0495 -0.035232 0)
(10.0541 -0.0355599 0)
(10.0584 -0.0357825 0)
(10.0623 -0.0359464 0)
(10.066 -0.036083 0)
(10.0693 -0.0362106 0)
(10.0724 -0.0363388 0)
(10.0753 -0.0364721 0)
(10.0779 -0.0366094 0)
(9.9986 -0.000396669 0)
(9.99909 -0.0157535 0)
(10.0076 -0.0274274 0)
(10.0166 -0.0324901 0)
(10.0238 -0.0348681 0)
(10.0307 -0.0362275 0)
(10.0376 -0.0369868 0)
(10.0441 -0.0374649 0)
(10.0499 -0.0378282 0)
(10.055 -0.0380943 0)
(10.0595 -0.0382627 0)
(10.0636 -0.0383584 0)
(10.0671 -0.0384127 0)
(10.0702 -0.0384471 0)
(10.0729 -0.0384766 0)
(10.0753 -0.0385092 0)
(10.0774 -0.0385482 0)
(10.0791 -0.0385925 0)
(9.99488 0.00133645 0)
(9.99288 -0.00809069 0)
(10.006 -0.0203504 0)
(10.0202 -0.0322761 0)
(10.0307 -0.0404796 0)
(10.0393 -0.044154 0)
(10.0467 -0.0450713 0)
(10.0529 -0.0449346 0)
(10.0578 -0.044479 0)
(10.0616 -0.0438981 0)
(10.0646 -0.0432711 0)
(10.0667 -0.0426551 0)
(10.0682 -0.0420855 0)
(10.0689 -0.0415712 0)
(10.0692 -0.0411215 0)
(10.069 -0.0407327 0)
(10.0684 -0.0404014 0)
(10.0676 -0.0401017 0)
(9.99473 -0.0305609 0)
(9.99926 -0.0228704 0)
(10.0147 -0.00263552 0)
(10.0304 -0.00190909 0)
(10.0435 -0.0116595 0)
(10.0533 -0.0209259 0)
(10.0594 -0.0272867 0)
(10.0619 -0.0315197 0)
(10.0615 -0.0343022 0)
(10.0591 -0.0360087 0)
(10.055 -0.0369528 0)
(10.0497 -0.0374012 0)
(10.0434 -0.0375441 0)
(10.0363 -0.0375017 0)
(10.0287 -0.0373647 0)
(10.0207 -0.0371885 0)
(10.0125 -0.0370372 0)
(10.0041 -0.0368791 0)
(10.0273 -0.182758 0)
(10.0763 -0.288313 0)
(10.0872 -0.247754 0)
(10.0777 -0.18652 0)
(10.0664 -0.140297 0)
(10.0538 -0.108223 0)
(10.0365 -0.0858866 0)
(10.0145 -0.0704306 0)
(9.98938 -0.0596666 0)
(9.96233 -0.051899 0)
(9.93434 -0.0460849 0)
(9.906 -0.0415983 0)
(9.87779 -0.0380549 0)
(9.85004 -0.0351933 0)
(9.82299 -0.0328423 0)
(9.79675 -0.030939 0)
(9.77158 -0.0294408 0)
(9.74749 -0.0286411 0)
(9.93574 0.689319 0)
(9.86861 0.609606 0)
(9.76454 0.380624 0)
(9.62665 0.217443 0)
(9.48591 0.119268 0)
(9.35722 0.0631868 0)
(9.24269 0.0315734 0)
(9.14113 0.0136114 0)
(9.05143 0.00325551 0)
(8.97242 -0.00280882 0)
(8.90247 -0.00636879 0)
(8.84024 -0.00849441 0)
(8.78446 -0.00975259 0)
(8.73425 -0.0105064 0)
(8.68871 -0.0110183 0)
(8.64723 -0.0112964 0)
(8.60887 -0.0115142 0)
(8.57336 -0.0121843 0)
(0.0125464 -0.0210852 -6.0363e-19)
(0.029531 -0.0237585 3.03016e-19)
(0.0415696 -0.0172782 0)
(0.0493493 -0.0078178 0)
(0.0507371 0.00165223 0)
(0.045819 0.00969714 -1.20972e-19)
(0.0359871 0.0158148 0)
(0.0222507 0.0200963 0)
(0.00538959 0.0229129 0)
(-0.013953 0.02466 0)
(-0.035183 0.025684 8.49715e-20)
(-0.0579559 0.0262271 0)
(-0.0819855 0.0269863 0)
(-0.107062 0.0285459 0)
(-0.133476 0.0306995 0)
(-0.162184 0.0321525 5.89061e-20)
(-0.191664 0.0361819 0)
(-0.221427 0.043497 0)
(-0.255139 0.057059 0)
(-0.29455 0.0785449 0)
(-0.335838 0.108589 0)
(-0.386891 0.0962505 0)
(-0.444605 0.0463611 0)
(-0.484306 0.0472859 9.98939e-20)
(-0.532488 0.0509226 -9.28648e-20)
(-0.583915 0.0537085 8.67369e-20)
(-0.637346 0.0553029 8.13608e-20)
(-0.691856 0.0560591 0)
(-0.746871 0.0562222 0)
(-0.801946 0.0559498 -6.87643e-20)
(-0.856743 0.0553272 -6.54844e-20)
(-0.910978 0.0544329 0)
(-0.964428 0.053315 0)
(-1.01692 0.0520325 -5.76351e-20)
(-1.06832 0.050622 0)
(-1.11853 0.0491328 0)
(-1.16748 0.0475898 5.19449e-20)
(-1.21514 0.046031 0)
(-1.2615 0.0444703 4.89782e-20)
(-1.30655 0.0429346 9.53659e-20)
(-1.35032 0.0414281 0)
(-1.39283 0.0399689 0)
(-1.43414 0.0385547 0)
(-1.47426 0.0371968 0)
(-1.51326 0.0358867 0)
(-1.55116 0.0346299 8.33832e-20)
(-1.588 0.0334158 8.18039e-20)
(-1.62382 0.0322474 8.03097e-20)
(-1.65865 0.0311134 0)
(-1.69251 0.0300145 -7.75294e-20)
(-1.72543 0.0289383 0)
(-1.75742 0.0278851 7.49746e-20)
(-1.78849 0.0268433 7.37637e-20)
(-1.81865 0.0258128 0)
(-1.84791 0.0247833 0)
(-1.87627 0.0237563 0)
(-1.9037 0.0227231 6.9244e-20)
(-1.93021 0.0216852 0)
(-1.95578 0.020635 0)
(-1.9804 0.0195755 0)
(-2.00404 0.0185004 0)
(-2.0267 0.0174136 0)
(-2.04834 0.0163112 0)
(-2.06896 0.0151973 0)
(-2.08852 0.0140702 0)
(-2.10703 0.0129356 -5.98861e-20)
(-2.12445 0.0117924 0)
(-2.14079 0.0106478 0)
(-2.15602 0.00950174 5.67364e-20)
(-2.17016 0.0083633 5.56645e-20)
(-2.18321 0.00723373 0)
(-2.19516 0.00612365 -5.34763e-20)
(-2.20604 0.00503403 5.23575e-20)
(-2.21586 0.00397732 0)
(-2.22465 0.00295277 -5.00663e-20)
(-2.23244 0.00197487 0)
(-2.23929 0.00104499 0)
(-2.24522 0.000177876 4.64877e-20)
(-2.25031 -0.000628868 0)
(-2.25461 -0.0013581 -4.40083e-20)
(-2.25819 -0.00201179 0)
(-2.26113 -0.00257367 4.14617e-20)
(-2.26352 -0.00305214 4.01669e-20)
(-2.26542 -0.0034288 3.88597e-20)
(-2.26693 -0.0037154 7.50863e-20)
(-2.26815 -0.00388924 -7.24383e-20)
(-2.26919 -0.00396752 0)
(-2.27018 -0.00391814 0)
(-2.27124 -0.00375318 0)
(-2.27253 -0.00348788 -6.18284e-20)
(-2.27409 -0.00311216 -5.9185e-20)
(-2.27594 -0.00263494 5.65563e-20)
(-2.27815 -0.00206483 0)
(-2.28083 -0.00140353 -5.13863e-20)
(-2.28406 -0.000657006 -4.88644e-20)
(-2.28792 0.000156952 -4.63959e-20)
(-2.29246 0.00101787 0)
(-2.29773 0.00190461 0)
(-2.30376 0.00275186 0)
(-2.31049 0.00330865 -3.71972e-20)
(-2.31781 0.00400265 0)
(-2.32586 0.00540574 0)
(-2.33471 0.00604011 3.1143e-20)
(-2.34397 0.00600029 0)
(-2.35362 0.00703071 0)
(-2.36371 0.00746509 2.59066e-20)
(-2.37388 0.00726991 0)
(-2.38398 0.00729462 0)
(-2.3938 0.00724023 -2.15185e-20)
(-2.40323 0.00714767 -2.0285e-20)
(-2.4119 0.00698782 0)
(-2.41967 0.00717052 1.80178e-20)
(-2.42632 0.00731087 0)
(-2.43139 0.0063984 -1.61589e-20)
(-2.43426 0.00515414 0)
(-2.43538 0.00529703 -1.44601e-20)
(-2.43484 0.00471058 -1.37069e-20)
(-2.4318 0.00317703 0)
(-2.42634 0.00297148 0)
(-2.41846 0.00202873 0)
(-2.40762 0.000421458 0)
(-2.39371 -0.000895893 0)
(-2.37658 -0.00203693 0)
(-2.35609 -0.00307062 0)
(-2.33191 -0.00481825 -6.73375e-21)
(-2.3037 -0.0066527 5.44279e-21)
(-2.27152 -0.00831911 0)
(-2.23521 -0.0101712 0)
(-2.19467 -0.0122444 0)
(-2.14977 -0.014297 0)
(-2.10057 -0.0163989 -9.25332e-21)
(-2.0469 -0.0188147 0)
(-1.98879 -0.0212737 2.2455e-20)
(-1.92625 -0.0238515 -3.06088e-20)
(-1.85934 -0.0264894 0)
(-1.78812 -0.0292091 0)
(-1.71269 -0.0319649 0)
(-1.63317 -0.0347575 7.69876e-20)
(-1.54971 -0.0375453 9.28782e-20)
(-1.46248 -0.0403281 0)
(-1.37175 -0.043071 1.31226e-19)
(-1.27778 -0.0457666 1.54174e-19)
(-1.18083 -0.0484067 -1.80039e-19)
(-1.08114 -0.0509859 0)
(-0.978982 -0.0534952 0)
(-0.874613 -0.055935 -2.79019e-19)
(-0.768314 -0.0583146 0)
(-0.66035 -0.0606414 0)
(-0.551003 -0.0629337 0)
(-0.440598 -0.065178 0)
(-0.329372 -0.0673799 5.54638e-19)
(-0.217471 -0.0696083 6.36949e-19)
(-0.105105 -0.071217 0)
(0.0100504 -0.0708336 7.21123e-19)
(0.127027 -0.0687516 0)
(0.243234 -0.0663054 0)
(0.35833 -0.0638083 6.45787e-19)
(0.471767 -0.0613188 0)
(0.583164 -0.0588444 6.12178e-19)
(0.692244 -0.0563861 0)
(0.798784 -0.0539806 0)
(0.902573 -0.0516243 5.75272e-19)
(1.0035 -0.0493138 0)
(1.10147 -0.0470481 5.56264e-19)
(1.1964 -0.0448146 0)
(1.28821 -0.0426431 0)
(1.37684 -0.040539 0)
(1.46226 -0.0384779 -5.26314e-19)
(1.54441 -0.0364607 0)
(1.62323 -0.0344729 5.14333e-19)
(1.69863 -0.0324991 0)
(1.7705 -0.0305336 0)
(1.83866 -0.028557 0)
(1.90287 -0.0265198 0)
(1.96267 -0.0243435 0)
(2.01699 -0.0218248 0)
(2.0649 -0.0185884 0)
(2.09811 -0.0132286 -9.8378e-19)
(2.12356 -0.000657968 0)
(2.04309 0.0210184 0)
(0.00751648 -0.0605833 1.34317e-18)
(0.0165433 -0.047636 -5.43316e-19)
(0.0170648 -0.027967 0)
(0.0142992 -0.00900924 1.6105e-19)
(0.00787556 0.00824359 0)
(-0.00203339 0.0232289 6.09588e-20)
(-0.0152934 0.0356791 -1.12233e-19)
(-0.0318133 0.0457137 -1.0496e-19)
(-0.051535 0.05368 0)
(-0.0743077 0.0600366 -9.50524e-20)
(-0.0999328 0.0652594 -4.5664e-20)
(-0.128346 0.0697317 0)
(-0.159579 0.0737586 0)
(-0.193626 0.0779118 0)
(-0.23045 0.0826229 0)
(-0.270341 0.0875867 -3.91907e-20)
(-0.313363 0.0924536 0)
(-0.360334 0.0985105 7.40995e-20)
(-0.4099 0.10645 0)
(-0.460229 0.115954 0)
(-0.508817 0.126154 -7.45706e-20)
(-0.561066 0.133328 0)
(-0.617474 0.135354 7.60279e-20)
(-0.675621 0.138304 -3.67492e-20)
(-0.731379 0.14077 3.52214e-20)
(-0.785322 0.142183 -3.38014e-20)
(-0.838093 0.142478 -3.24935e-20)
(-0.889847 0.141749 0)
(-0.940568 0.14015 0)
(-0.990186 0.137841 2.91723e-20)
(-1.03862 0.134958 -2.80045e-20)
(-1.08582 0.131634 0)
(-1.13175 0.127979 0)
(-1.17638 0.124101 2.58713e-20)
(-1.21971 0.120085 0)
(-1.26177 0.116011 0)
(-1.30256 0.111936 -2.40133e-20)
(-1.34214 0.107915 0)
(-1.38053 0.103979 2.27886e-20)
(-1.41778 0.100161 -4.50586e-20)
(-1.45392 0.096471 0)
(-1.48901 0.0929247 0)
(-1.52308 0.0895191 -8.48871e-20)
(-1.55617 0.0862586 -8.34554e-20)
(-1.58831 0.0831319 -8.20957e-20)
(-1.61954 0.0801367 4.02246e-20)
(-1.64988 0.0772576 -3.99503e-20)
(-1.67936 0.0744891 -1.17716e-19)
(-1.70799 0.0718147 7.72164e-20)
(-1.73578 0.0692277 3.82078e-20)
(-1.76275 0.066711 0)
(-1.78891 0.0642576 -3.71266e-20)
(-1.81425 0.0618517 3.63231e-20)
(-1.83879 0.0594873 0)
(-1.86251 0.0571511 0)
(-1.88541 0.0548395 0)
(-1.90749 0.052542 -3.45693e-20)
(-1.92873 0.0502571 0)
(-1.94913 0.0479767 6.69413e-20)
(-1.96867 0.0457017 0)
(-1.98734 0.0434263 6.49599e-20)
(-2.00512 0.041153 0)
(-2.02202 0.0388793 -6.29508e-20)
(-2.03801 0.03661 0)
(-2.05309 0.0343452 6.08979e-20)
(-2.06724 0.0320922 -2.98964e-20)
(-2.08048 0.0298533 0)
(-2.09279 0.0276375 -5.7707e-20)
(-2.10418 0.0254486 -2.83004e-20)
(-2.11466 0.0232973 -2.77301e-20)
(-2.12423 0.0211887 0)
(-2.13292 0.0191362 -2.66322e-20)
(-2.14074 0.0171459 -2.59574e-20)
(-2.14772 0.0152326 0)
(-2.1539 0.0134008 2.47226e-20)
(-2.15932 0.0116664 -4.83357e-20)
(-2.16402 0.0100346 0)
(-2.16805 0.00852212 -2.27948e-20)
(-2.17146 0.00713108 0)
(-2.17433 0.0058777 6.46166e-20)
(-2.17671 0.00476249 0)
(-2.17868 0.00380169 -6.05657e-20)
(-2.18031 0.00299086 -1.94209e-20)
(-2.18167 0.00234514 1.89867e-20)
(-2.18283 0.00185265 3.65944e-20)
(-2.18389 0.00152681 -3.52091e-20)
(-2.18492 0.00134712 0)
(-2.18602 0.00133639 0)
(-2.18729 0.00147954 0)
(-2.18882 0.00177034 8.80398e-20)
(-2.19063 0.00219426 2.78324e-20)
(-2.19277 0.00273655 -2.64876e-20)
(-2.19528 0.00338919 0)
(-2.19822 0.00413704 -2.41966e-20)
(-2.20164 0.00496445 2.25768e-20)
(-2.20556 0.00585206 2.13286e-20)
(-2.21 0.00677674 0)
(-2.21494 0.00771511 0)
(-2.22037 0.00863698 0)
(-2.22627 0.00951067 1.67012e-20)
(-2.23263 0.0103 0)
(-2.23929 0.0110031 -2.92205e-20)
(-2.24618 0.0116041 -4.09795e-20)
(-2.25332 0.0120273 2.54135e-20)
(-2.26047 0.0122517 0)
(-2.26747 0.0123135 1.09002e-20)
(-2.27425 0.0121617 0)
(-2.28066 0.0117811 1.90927e-20)
(-2.28647 0.0111166 -8.74332e-21)
(-2.29156 0.0101954 -8.15283e-21)
(-2.29579 0.00900778 0)
(-2.29898 0.00744222 -2.19792e-20)
(-2.30094 0.00562773 1.36868e-20)
(-2.30167 0.00364226 6.65712e-21)
(-2.30127 0.00144163 0)
(-2.29907 -0.000987416 5.99976e-21)
(-2.2946 -0.00353365 1.67883e-20)
(-2.288 -0.00632474 0)
(-2.27884 -0.00937624 1.00899e-20)
(-2.26674 -0.0125952 9.65251e-21)
(-2.25183 -0.0160522 9.2072e-21)
(-2.23383 -0.0197519 0)
(-2.21251 -0.023619 0)
(-2.18754 -0.0276766 0)
(-2.15871 -0.0317758 -3.40311e-21)
(-2.126 -0.0359562 -3.28471e-21)
(-2.08916 -0.0402476 0)
(-2.04803 -0.0445822 -4.45359e-21)
(-2.00252 -0.0489224 -3.22996e-21)
(-1.95259 -0.0533011 0)
(-1.89811 -0.0576997 6.0425e-23)
(-1.83904 -0.0620729 4.00099e-21)
(-1.77538 -0.0663707 -4.67226e-21)
(-1.70714 -0.0706051 -6.7399e-21)
(-1.63435 -0.0747208 0)
(-1.55706 -0.0787145 0)
(-1.47539 -0.0825412 0)
(-1.38945 -0.0861959 -2.3748e-20)
(-1.29942 -0.0896343 2.69977e-20)
(-1.20548 -0.0928488 6.78639e-20)
(-1.10789 -0.0958117 -4.17832e-20)
(-1.00692 -0.0985234 4.60332e-20)
(-0.902838 -0.100969 5.70053e-20)
(-0.795934 -0.103144 0)
(-0.686494 -0.105043 0)
(-0.574818 -0.106677 -8.08553e-20)
(-0.461216 -0.108054 0)
(-0.345982 -0.109195 0)
(-0.229419 -0.110141 2.33927e-19)
(-0.111683 -0.110921 0)
(0.00734603 -0.11153 1.35127e-19)
(0.127193 -0.112189 -1.46876e-19)
(0.246671 -0.112655 0)
(0.364709 -0.111977 1.55156e-19)
(0.480866 -0.110084 0)
(0.59535 -0.107554 0)
(0.708203 -0.104667 -1.78618e-19)
(0.819189 -0.10155 3.64194e-19)
(0.928077 -0.0982709 -1.897e-19)
(1.03467 -0.0948711 0)
(1.1388 -0.0914025 0)
(1.24033 -0.087904 2.00299e-19)
(1.33916 -0.0843866 0)
(1.43519 -0.0808877 2.08712e-19)
(1.52836 -0.0774194 0)
(1.61857 -0.0739748 0)
(1.7058 -0.0705615 0)
(1.79003 -0.0671948 2.25073e-19)
(1.87119 -0.0638624 0)
(1.94922 -0.0605404 -2.30158e-19)
(2.02404 -0.0572094 0)
(2.09554 -0.0538543 0)
(2.16357 -0.0504183 4.7116e-19)
(2.22788 -0.0468049 -4.75307e-19)
(2.28805 -0.0427973 0)
(2.34316 -0.0380348 0)
(2.39244 -0.0315234 0)
(2.43089 -0.0212768 1.49266e-18)
(2.46581 -0.000333824 0)
(2.47164 0.0404515 -1.04128e-18)
(-0.002606 -0.0707882 -1.08255e-21)
(-0.00307848 -0.0422943 5.47246e-19)
(-0.0110726 -0.014589 0)
(-0.0215018 0.0105411 -2.28207e-19)
(-0.0344408 0.033128 0)
(-0.0497055 0.0533393 0)
(-0.0673042 0.0712646 -7.66834e-23)
(-0.0874133 0.0870527 7.12153e-20)
(-0.110238 0.100954 6.81883e-20)
(-0.135921 0.11331 6.5786e-20)
(-0.164542 0.124504 0)
(-0.196128 0.134906 0)
(-0.230678 0.144817 -6.07486e-20)
(-0.268102 0.154541 -1.18188e-19)
(-0.308136 0.164335 1.14763e-19)
(-0.350488 0.174273 0)
(-0.39494 0.184295 1.07603e-19)
(-0.441083 0.194407 -5.22391e-20)
(-0.488014 0.204602 0)
(-0.534531 0.21445 9.81603e-20)
(-0.579936 0.222667 4.7977e-20)
(-0.625227 0.227102 -9.33618e-20)
(-0.671607 0.228032 -4.53798e-20)
(-0.718788 0.228398 0)
(-0.765493 0.228131 8.44028e-20)
(-0.811328 0.226926 8.1523e-20)
(-0.856235 0.224687 0)
(-0.900215 0.221452 7.62637e-20)
(-0.943274 0.217339 0)
(-0.985414 0.212501 7.16844e-20)
(-1.02663 0.207091 3.49174e-20)
(-1.06692 0.201256 0)
(-1.10629 0.195126 0)
(-1.14473 0.188822 0)
(-1.18225 0.182443 0)
(-1.21885 0.176077 0)
(-1.25456 0.169789 0)
(-1.28939 0.163634 5.87884e-20)
(-1.32334 0.157646 -8.65405e-20)
(-1.35643 0.151854 0)
(-1.38868 0.146269 0)
(-1.42011 0.140899 0)
(-1.45073 0.135742 1.89958e-22)
(-1.48056 0.130792 5.29468e-20)
(-1.50961 0.126036 1.04044e-19)
(-1.5379 0.121465 -1.02452e-19)
(-1.56544 0.11706 -5.03738e-20)
(-1.59224 0.112808 4.98095e-20)
(-1.6183 0.108689 -1.65781e-22)
(-1.64363 0.10469 4.82366e-20)
(-1.66824 0.100791 0)
(-1.69213 0.0969778 4.69038e-20)
(-1.71528 0.0932343 -1.41685e-22)
(-1.73772 0.0895479 0)
(-1.75941 0.0859054 0)
(-1.78037 0.0822976 -4.43595e-20)
(-1.80058 0.0787146 0)
(-1.82003 0.0751507 0)
(-1.8387 0.0715997 4.23956e-20)
(-1.85659 0.0680592 8.37227e-20)
(-1.87369 0.0645264 -4.13033e-20)
(-1.88997 0.0610023 0)
(-1.90544 0.057488 4.0003e-20)
(-1.92007 0.0539879 0)
(-1.93386 0.0505068 3.86117e-20)
(-1.9468 0.0470522 3.79889e-20)
(-1.95888 0.043632 -7.45813e-20)
(-1.97011 0.0402568 -3.66042e-20)
(-1.98048 0.0369367 0)
(-1.99 0.0336848 7.03542e-20)
(-1.99867 0.0305135 0)
(-2.00652 0.027438 1.01056e-19)
(-2.01355 0.0244724 6.5891e-20)
(-2.0198 0.0216328 6.43483e-20)
(-2.02529 0.0189331 -6.27783e-20)
(-2.03005 0.0163897 9.16766e-20)
(-2.03413 0.0140164 0)
(-2.03758 0.0118291 0)
(-2.04044 0.00983944 -5.62396e-20)
(-2.04277 0.0080608 -8.16929e-20)
(-2.04463 0.00650187 0)
(-2.04609 0.00517344 2.54159e-20)
(-2.04721 0.00407963 0)
(-2.04806 0.00322667 -7.12718e-20)
(-2.04871 0.00261218 2.84169e-22)
(-2.04924 0.00223768 -2.82103e-22)
(-2.04972 0.00209418 4.23164e-20)
(-2.05024 0.00218158 0)
(-2.05087 0.00248876 -3.88011e-20)
(-2.05169 0.00299928 2.45301e-22)
(-2.05274 0.00369497 0)
(-2.05405 0.00455464 0)
(-2.05569 0.00555781 0)
(-2.05768 0.00667922 3.00242e-20)
(-2.06008 0.00789112 0)
(-2.0629 0.00916024 0)
(-2.06615 0.0104502 0)
(-2.06983 0.0117214 0)
(-2.07392 0.0129301 0)
(-2.07841 0.0140288 2.09082e-20)
(-2.08325 0.0150025 0)
(-2.08835 0.0158564 1.82907e-20)
(-2.09362 0.0164936 1.70759e-20)
(-2.09904 0.0168376 -1.59213e-20)
(-2.10447 0.0169458 0)
(-2.10975 0.0167747 -1.38143e-20)
(-2.11482 0.0162426 0)
(-2.1195 0.0153695 -1.19829e-20)
(-2.12368 0.0141265 1.11704e-20)
(-2.12714 0.0125291 3.08784e-20)
(-2.1298 0.0105658 0)
(-2.13142 0.00820723 2.69929e-20)
(-2.13182 0.00550744 8.13718e-21)
(-2.13086 0.00242825 0)
(-2.12838 -0.00109838 1.48763e-20)
(-2.12404 -0.00497163 1.41058e-20)
(-2.11751 -0.00917524 -2.0378e-20)
(-2.10876 -0.0137858 0)
(-2.09739 -0.0187293 -6.34128e-21)
(-2.08324 -0.0240016 -6.05753e-21)
(-2.0662 -0.0296415 -1.6924e-20)
(-2.04606 -0.0355893 0)
(-2.02257 -0.0418222 0)
(-1.99548 -0.0482987 0)
(-1.96452 -0.0549479 -4.18612e-21)
(-1.92968 -0.061711 0)
(-1.89068 -0.0686088 0)
(-1.84743 -0.0755765 2.76087e-21)
(-1.7998 -0.082585 1.99627e-21)
(-1.74773 -0.0895955 0)
(-1.69112 -0.0965985 0)
(-1.62992 -0.103535 -2.45049e-21)
(-1.56413 -0.110348 0)
(-1.49376 -0.117004 8.6869e-21)
(-1.41883 -0.123451 1.17909e-20)
(-1.33942 -0.129647 0)
(-1.25564 -0.135541 0)
(-1.16762 -0.141096 -2.60664e-20)
(-1.07554 -0.146261 -1.34691e-21)
(-0.979626 -0.151005 -1.51352e-21)
(-0.880117 -0.155295 0)
(-0.777299 -0.159114 -1.09176e-19)
(-0.671463 -0.162441 0)
(-0.562908 -0.165266 0)
(-0.451947 -0.167583 0)
(-0.338895 -0.169405 9.41926e-20)
(-0.224077 -0.170754 0)
(-0.107777 -0.171661 -2.27793e-19)
(0.00975613 -0.172174 -1.26914e-19)
(0.128079 -0.172299 0)
(0.246611 -0.171935 -1.45121e-19)
(0.364848 -0.171051 0)
(0.482256 -0.169675 0)
(0.598291 -0.167717 -5.08974e-19)
(0.712672 -0.165061 3.54871e-19)
(0.825329 -0.161766 0)
(0.936138 -0.157988 3.89181e-19)
(1.04491 -0.153845 -2.05655e-19)
(1.15144 -0.149413 0)
(1.25558 -0.144757 0)
(1.35719 -0.139944 0)
(1.45613 -0.135029 -7.02069e-19)
(1.55233 -0.130039 0)
(1.6457 -0.125014 -2.4872e-19)
(1.73619 -0.11999 0)
(1.82377 -0.114985 0)
(1.90842 -0.110001 0)
(1.99013 -0.105048 0)
(2.06884 -0.100112 0)
(2.14451 -0.0951644 0)
(2.21709 -0.0901816 -5.65442e-19)
(2.28649 -0.0851326 0)
(2.35257 -0.0799311 -2.92212e-19)
(2.41512 -0.0744252 8.85281e-19)
(2.47378 -0.0683099 0)
(2.52784 -0.0610533 0)
(2.57679 -0.0514455 -6.13888e-19)
(2.61781 -0.0373496 -6.26577e-19)
(2.65515 -0.0133811 6.36293e-19)
(2.677 0.0311012 6.593e-19)
(-0.0120443 -0.0557418 -1.84298e-18)
(-0.0201621 -0.0190114 -6.60512e-19)
(-0.0344591 0.0130286 -2.48321e-19)
(-0.050928 0.0418033 -8.97993e-20)
(-0.0690914 0.0679344 0)
(-0.0887453 0.0918715 1.2972e-19)
(-0.110015 0.113858 -5.94476e-20)
(-0.133132 0.134077 0)
(-0.158321 0.152722 -5.3161e-20)
(-0.185737 0.170009 0)
(-0.215449 0.186142 9.94826e-20)
(-0.247436 0.201294 0)
(-0.281603 0.215595 4.69464e-20)
(-0.317782 0.229162 9.12232e-20)
(-0.355688 0.242067 -8.84842e-20)
(-0.394951 0.254284 0)
(-0.435194 0.265702 -8.27495e-20)
(-0.476036 0.27623 0)
(-0.517011 0.285729 0)
(-0.557648 0.293864 -7.43036e-20)
(-0.597719 0.300046 0)
(-0.637432 0.303662 -5.00417e-23)
(-0.677167 0.304811 0)
(-0.716961 0.304301 0)
(-0.756533 0.302457 -4.75897e-23)
(-0.795675 0.299409 -6.07935e-20)
(-0.83427 0.295256 -5.88605e-20)
(-0.872261 0.290115 -5.71622e-20)
(-0.909623 0.284125 0)
(-0.946347 0.277437 -1.07865e-19)
(-0.982421 0.270202 0)
(-1.01784 0.262566 -5.10857e-20)
(-1.05259 0.254663 0)
(-1.08668 0.246613 0)
(-1.1201 0.238517 4.75182e-20)
(-1.15283 0.230459 0)
(-1.18489 0.222509 -4.55135e-20)
(-1.21626 0.214719 -7.10848e-23)
(-1.24694 0.207127 8.75754e-20)
(-1.27694 0.199759 -8.58975e-20)
(-1.30624 0.192631 0)
(-1.33487 0.18575 0)
(-1.36281 0.179113 -4.07226e-20)
(-1.39007 0.172716 0)
(-1.41665 0.166545 -3.95903e-20)
(-1.44257 0.160588 3.89944e-20)
(-1.46782 0.154827 3.84209e-20)
(-1.49241 0.149245 0)
(-1.51633 0.143821 -3.73301e-20)
(-1.5396 0.138536 -3.68078e-20)
(-1.5622 0.133372 7.24959e-20)
(-1.58413 0.128309 -3.57978e-20)
(-1.6054 0.123329 -3.53062e-20)
(-1.62599 0.118417 0)
(-1.6459 0.113558 0)
(-1.66511 0.108739 3.3863e-20)
(-1.68363 0.103951 0)
(-1.70143 0.0991839 0)
(-1.7185 0.0944329 -6.48695e-20)
(-1.73483 0.0896938 -6.39112e-20)
(-1.75041 0.0849649 0)