/*--------------------------------*- C++ -*----------------------------------*\
| =========                 |                                                 |
| \\      /  F ield         | OpenFOAM: The Open Source CFD Toolbox           |
|  \\    /   O peration     | Version:  5.x                                   |
|   \\  /    A nd           | Web:      www.OpenFOAM.org                      |
|    \\/     M anipulation  |                                                 |
\*---------------------------------------------------------------------------*/
FoamFile
{
    version     2.0;
    format      ascii;
    class       volScalarField;
    location    "500";
    object      epsilon;
}
// * * * * * * * * * * * * * * * * * * * * * * * * * * * * * * * * * * * * * //

dimensions      [0 2 -3 0 0 0 0];

internalField   nonuniform List<scalar> 
20540
(
0.241032
0.157972
0.241032
0.258821
0.241032
0.347296
0.241032
0.418201
0.241032
0.466913
0.241032
0.48971
0.241032
0.48462
0.241032
0.452079
0.241032
0.395583
0.241032
0.322039
0.241032
0.241375
0.241032
0.164971
0.241032
0.10268
0.241032
0.0591028
0.241032
0.0326678
0.241032
0.0204323
0.241032
0.0171312
0.241032
0.0165628
0.241032
0.016475
0.241032
0.0164608
0.241032
0.0164587
0.241032
0.016459
0.241032
0.0164598
0.241032
0.016461
0.241032
0.0164624
0.241032
0.0164641
0.241032
0.0164661
0.241032
0.0164683
0.241032
0.0164705
0.241032
0.0164725
0.241032
0.016474
0.241032
0.0164747
0.241032
0.0164747
0.241032
0.016474
0.241032
0.0164725
0.241032
0.0164705
0.241032
0.0164684
0.241032
0.0164663
0.241032
0.0164644
0.241032
0.0164627
0.241032
0.0164612
0.241032
0.01646
0.241032
0.0164591
0.241032
0.0164587
0.241032
0.0164595
0.241032
0.0164663
0.241032
0.0165064
0.241032
0.01675
0.241032
0.0182261
0.241032
0.0250067
0.241032
0.0432242
0.241032
0.0759605
0.241032
0.125888
0.241032
0.192432
0.241032
0.269215
0.241032
0.346408
0.241032
0.41385
0.241032
0.463202
0.241032
0.488954
0.241032
0.488559
0.241032
0.462055
0.241032
0.411508
0.241032
0.340536
0.241032
0.25384
0.241032
0.158308
654828
641971
597328
564739
540988
523111
509175
497977
488777
481091
474585
469015
464201
460006
456326
453078
450198
447631
445332
443265
441400
439712
438181
436788
435519
434358
433295
432319
431420
430592
429827
429120
428466
427861
427302
426783
426304
425861
425451
425075
424729
424414
424129
423875
423652
423462
423307
423190
423114
423083
423101
423175
423309
423509
423781
424134
424574
425111
425754
426514
427405
428437
429685
430658
431655
432662
433726
434851
436034
437277
438579
439941
441365
442851
444402
446020
447707
449470
451313
453246
455279
457432
459728
462216
464940
468228
472720
491606
696495
544897
482860
447886
424595
407810
395033
384910
376671
369838
364084
359179
354954
351283
348069
345239
342733
340502
338506
336713
335096
333634
332308
331103
330005
329001
328082
327237
326460
325744
325083
324472
323907
323384
322901
322454
322040
321658
321306
320983
320687
320419
320179
319968
319786
319635
319519
319439
319400
319407
319464
319578
319753
319996
320315
320717
321210
321805
322513
323345
324321
325431
326838
327992
329096
330165
331320
332556
333866
335248
336704
338233
339839
341525
343292
345147
347095
349143
351301
353584
356008
358601
361401
364460
367924
371850
377160
375346
470749
381856
337014
312173
295887
284254
275448
268496
262851
258175
254243
250893
248009
245504
243312
241382
239673
238151
236791
235569
234467
233470
232567
231745
230996
230312
229685
229109
228580
228091
227640
227224
226838
226482
226152
225847
225564
225304
225063
224843
224641
224458
224294
224149
224025
223922
223842
223787
223760
223764
223802
223879
223997
224163
224379
224652
224987
225390
225871
226435
227096
227850
228792
229555
230314
231051
231831
232663
233543
234472
235448
236473
237547
238672
239851
241084
242377
243731
245154
246653
248238
249923
251728
253683
255840
258252
260625
255989
326156
281054
247939
229364
217284
208711
202251
197169
193051
189646
186785
184350
182255
180436
178845
177445
176205
175102
174115
173229
172430
171708
171053
170457
169914
169418
168964
168547
168163
167809
167482
167180
166900
166642
166403
166181
165976
165787
165613
165452
165305
165172
165052
164946
164855
164779
164719
164677
164655
164654
164678
164728
164808
164920
165069
165257
165488
165768
166100
166491
166949
167473
168115
168625
169154
169675
170216
170788
171392
172028
172695
173394
174125
174890
175687
176520
177389
178297
179246
180239
181283
182384
183551
184799
186134
187585
188540
184884
229532
213806
189202
174828
165495
158902
153955
150076
146941
144354
142182
140336
138749
137371
136167
135108
134170
133336
132590
131921
131317
130771
130276
129826
129416
129041
128698
128383
128093
127825
127578
127350
127139
126943
126763
126595
126440
126297
126165
126043
125932
125831
125739
125658
125588
125529
125481
125447
125427
125422
125435
125468
125521
125598
125700
125831
125993
126189
126422
126697
127019
127389
127832
128176
128548
128921
129302
129702
130123
130564
131026
131509
132013
132537
133083
133650
134240
134852
135489
136151
136840
137560
138313
139106
139922
140768
141076
138777
161929
165813
147866
136547
129145
123927
120026
116978
114521
112496
110800
109359
108121
107048
106111
105286
104557
103908
103328
102807
102338
101914
101529
101180
100861
100570
100304
100059
99833.4
99625.7
99433.9
99256.6
99092.6
98940.9
98800.3
98670.2
98549.7
98438.2
98335.3
98240.5
98153.5
98074.2
98002.5
97938.6
97882.6
97835
97796.3
97767.1
97748.2
97740.8
97746.1
97765.4
97800.2
97851.9
97922.2
98012.7
98125.6
98262.9
98427
98620.7
98847
99109
99415.3
99646.7
99906.8
100174
100444
100724
101018
101325
101645
101978
102324
102683
103055
103440
103838
104249
104673
105110
105561
106026
106503
106995
107478
107942
107969
106672
113249
129815
117382
108444
102483
98273.3
95133.1
92686.7
90719.8
89102.4
87749.2
86601.3
85616.4
84763.2
84018.1
83363.2
82784.1
82269.2
81809.2
81396.3
81024.3
80688
80383.2
80106.2
79853.7
79623
79411.7
79217.7
79039.3
78874.7
78722.8
78582.4
78452.5
78332.2
78220.8
78117.6
78022
77933.6
77851.8
77776.3
77707
77643.6
77586.1
77534.5
77488.9
77449.7
77417.2
77391.7
77373.8
77364.3
77364.1
77374.1
77395.4
77428.9
77475.8
77537.4
77614.9
77709.9
77824
77959.1
78116.9
78300.5
78510.3
78664
78842.4
79030.8
79220.4
79415.7
79618.5
79829.6
80048.7
80275.9
80510.9
80753.5
81003.5
81260.6
81524.5
81794.9
82071.4
82353.4
82640.4
82931.4
83223.8
83515.5
83782.9
84010.1
83920.9
83215.8
77712.2
101778
94093.5
87130.5
82303
78866
76301.8
74308.3
72709.2
71396.6
70300.2
69371.4
68575.3
67886.3
67285
66756.9
66290.1
65875.3
65504.8
65172.3
64872.9
64602.3
64357.1
64134.3
63931.2
63745.7
63575.8
63419.8
63276.3
63144
63021.8
62909
62804.5
62707.8
62618.2
62535.1
62458.2
62386.9
62320.9
62259.9
62203.8
62152.3
62105.4
62063.1
62025.4
61992.5
61964.6
61942
61925
61914.1
61909.9
61913.2
61924.6
61944.8
61974.6
62014.9
62066.5
62130.5
62207.9
62300
62407.7
62533.7
62674.3
62773.9
62892.5
63021.7
63151.9
63285.2
63422.6
63564.6
63711.2
63862.3
64017.7
64177.2
64340.3
64506.9
64676.3
64848.1
65021.6
65196.2
65370.6
65543.3
65711.3
65870.8
66000.6
66084.5
65950.6
65542.4
51762.8
79304.9
75782.4
70552.1
66664.1
63845.3
61733.3
60091.8
58776.9
57699.3
56800.4
56039.7
55388.5
54825.4
54334.4
53903.4
53522.7
53184.5
52882.6
52611.8
52367.9
52147.7
51948.1
51766.7
51601.5
51450.6
51312.4
51185.5
51068.7
50961.1
50861.8
50770
50685
50606.3
50533.4
50465.8
50403.1
50345
50291.1
50241.3
50195.3
50152.9
50114.2
50079
50047.4
50019.4
49995.2
49975
49958.8
49947
49940.1
49938.5
49942.7
49953.2
49970.5
49995.1
50027.6
50068.7
50119
50179.4
50250.2
50333.6
50424.4
50486.2
50561.4
50646.1
50732.2
50819.9
50909.6
51001.7
51096
51192.5
51290.9
51391.1
51492.6
51595.1
51698
51801
51903.2
52003.7
52101.4
52194.6
52280.1
52353.7
52397.7
52398.7
52250.3
51971.7
33054.6
60903.6
61017.4
57381.3
54314.4
52012.6
50268.8
48909.4
47820.3
46928.3
46184.8
45556.3
45018.7
44554.3
44149.6
43794.5
43481.1
43202.8
42954.5
42731.8
42531.4
42350.4
42186.5
42037.5
41901.8
41777.9
41664.4
41560.2
41464.4
41376
41294.5
41219.1
41149.4
41084.8
41024.9
40969.4
40917.8
40870
40825.6
40784.5
40746.4
40711.2
40678.9
40649.4
40622.6
40598.6
40577.4
40559.1
40543.9
40531.7
40522.9
40517.9
40517
40520.4
40528.5
40541.6
40560.1
40584.4
40614.8
40651.8
40695.6
40747.5
40802.6
40838.2
40882.3
40934.2
40987.6
41041.9
41097
41153
41209.9
41267.4
41325.5
41383.7
41441.9
41499.7
41556.6
41612.2
41665.6
41716.2
41762.7
41803.5
41835.7
41855.3
41848.1
41804.5
41655.4
41430.6
19927
45640
48830.1
46711.5
44401.7
42554.1
41122.5
39996.9
39092.4
38350.8
37732.6
37210.2
36763.5
36377.8
36041.9
35747.4
35487.5
35256.9
35051.1
34866.7
34700.8
34551
34415.3
34292
34179.8
34077.3
33983.4
33897.2
33817.9
33744.9
33677.4
33615.1
33557.4
33504
33454.4
33408.5
33365.8
33326.1
33289.3
33255.1
33223.3
33193.9
33166.7
33141.7
33118.8
33098.1
33079.4
33063
33048.6
33036.4
33026.6
33019.3
33014.8
33013.2
33014.7
33019.6
33027.9
33040
33055.9
33076
33100.1
33129.2
33159
33176.6
33199.2
33227.3
33256.8
33286.9
33317.3
33347.7
33378.1
33408.4
33438.2
33467.5
33495.9
33523.2
33548.9
33572.6
33593.7
33611.5
33624.9
33632.5
33631.7
33619.1
33583.5
33518.7
33377
33181
11114
32947.8
38548.3
37896.1
36319.2
34892.7
33738.7
32814.8
32066.3
31450.2
30935.5
30500.2
30127.8
29806.3
29526.4
29280.9
29064.4
28872.3
28700.9
28547.3
28409.2
28284.5
28171.6
28069.1
27975.7
27890.4
27812.3
27740.6
27674.6
27613.8
27557.7
27505.9
27457.9
27413.4
27372.2
27333.9
27298.4
27265.3
27234.5
27205.9
27179.3
27154.5
27131.5
27110.2
27090.6
27072.6
27056.1
27041.3
27027.9
27016
27005.6
26997
26990.1
26985.2
26982.2
26981.2
26982.4
26985.8
26991.5
26999.5
27009.7
27022.6
27034.8
27040.5
27048.5
27060.1
27072.8
27085.8
27098.8
27111.5
27123.7
27135.3
27146.1
27155.9
27164.5
27171.7
27177
27180.2
27180.7
27178
27171
27158.7
27138.8
27108.5
27059.4
26987.6
26858.5
26687.4
5577.69
22517.5
29710.5
30458.8
29618.1
28603.3
27709.8
26968.5
26357.4
25849.7
25423.3
25061.5
24751.4
24483.4
24249.8
24045
23864.2
23703.8
23560.7
23432.4
23317.1
23212.9
23118.7
23033.1
22955.1
22883.9
22818.6
22758.8
22703.7
22652.9
22606
22562.7
22522.6
22485.5
22451
22419
22389.3
22361.6
22335.8
22311.7
22289.3
22268.4
22248.9
22230.7
22213.8
22198.1
22183.6
22170.2
22158
22146.6
22136.2
22126.9
22118.6
22111.5
22105.5
22100.7
22097.1
22094.6
22093.3
22093.1
22093.7
22095.4
22096
22093.9
22092.6
22093.4
22094.7
22096.2
22097.5
22098.4
22098.6
22098
22096.4
22093.7
22089.8
22084.3
22077.1
22067.8
22056.1
22041.3
22022.9
21999.7
21970.1
21931.6
21878.2
21807.4
21694.4
21549
2421.82
14213.5
22026
24044.1
23954.6
23361.6
22726.7
22160.1
21676.2
21266.4
20918.3
20620.8
20364.6
20142.5
19948.4
19778
19627.4
19493.7
19374.3
19267.2
19170.9
19083.9
19005.2
18933.6
18868.4
18808.9
18754.4
18704.3
18658.2
18615.7
18576.5
18540.2
18506.7
18475.6
18446.7
18419.9
18395
18371.7
18350
18329.8
18310.9
18293.2
18276.6
18261.1
18246.5
18232.9
18220.2
18208.2
18197
18186.4
18176.3
18166.9
18158
18149.7
18142
18134.9
18128.2
18122
18116.1
18110.6
18105
18099.6
18092.7
18085.9
18079.1
18073.3
18067.5
18061.7
18055.6
18049.1
18041.8
18033.7
18024.7
18014.6
18003.3
17990.6
17976.3
17960.1
17941.9
17921
17897
17869
17835.6
17795
17742.9
17677.4
17581.9
17461.8
862.12
7989.42
15362.4
18396.5
19060.7
18912.3
18547.3
18157.7
17798.7
17482.3
17207.1
16968.4
16760.8
16579.5
16420.3
16280
16155.7
16045.1
15946.1
15857.2
15777.2
15704.8
15639.3
15579.7
15525.4
15475.8
15430.3
15388.5
15350
15314.5
15281.7
15251.4
15223.4
15197.4
15173.2
15150.8
15129.9
15110.4
15092.2
15075.2
15059.2
15044.3
15030.2
15017
15004.5
14992.7
14981.6
14971
14960.9
14951.2
14941.8
14932.6
14923.7
14915
14906.5
14898.1
14889.8
14881.5
14873
14864.3
14855.1
14845.4
14834.3
14825
14815.3
14805.9
14796.2
14786.3
14776.1
14765.3
14753.9
14741.7
14728.7
14714.7
14699.7
14683.5
14665.8
14646.7
14625.7
14602.6
14576.8
14547.8
14514.4
14475.1
14427.3
14369.4
14290.9
14194
239.127
3783.24
9741.78
13361.2
14730.5
15050
14976.3
14775.5
14546.5
14324.6
14121.4
13939.5
13778
13634.9
13507.9
13395.1
13294.5
13204.6
13123.9
13051.2
12985.5
12926.1
12872.1
12823
12778.2
12737.1
12699.5
12664.9
12633
12603.5
12576.3
12551.2
12527.9
12506.2
12486.2
12467.5
12450.1
12433.8
12418.6
12404.4
12391
12378.5
12366.6
12355.4
12344.8
12334.7
12325
12315.8
12306.9
12298.2
12289.6
12281.1
12272.5
12264
12255.4
12246.7
12237.8
12228.5
12218.9
12208.7
12197.7
12185.9
12172.8
12162.5
12151.7
12140.7
12129.4
12117.7
12105.6
12092.9
12079.7
12065.9
12051.3
12035.8
12019.5
12002.2
11983.7
11963.9
11942.7
11919.7
11894.5
11866.7
11835.4
11799.5
11757.4
11707.9
11644.8
11568
52.1356
1385.73
5315.98
8904.19
10824.1
11611.5
11853
11860.1
11773.1
11652.6
11525
11401.4
11286.3
11180.9
11085.3
10998.9
10921
10850.6
10786.9
10729.2
10676.8
10629.2
10585.8
10546.2
10510
10476.7
10446.2
10418
10392
10368
10345.7
10325.2
10306.1
10288.4
10271.9
10256.6
10242.2
10228.9
10216.4
10204.6
10193.5
10183.1
10173.3
10163.9
10155
10146.4
10138.2
10130.3
10122.6
10115
10107.4
10099.7
10091.9
10083.9
10075.8
10067.3
10058.5
10049.2
10039.4
10028.9
10017.5
10005.2
9991.6
9981.3
9970.47
9959.39
9947.83
9935.84
9923.43
9910.54
9897.12
9883.14
9868.52
9853.21
9837.15
9820.25
9802.42
9783.54
9763.44
9741.91
9718.65
9693.27
9665.18
9633.66
9597.64
9556.43
9506.61
9446.37
9.62543
349.641
2276.1
5138.31
7291.22
8481.5
9047.53
9283.31
9355.47
9348.45
9304.37
9244.3
9178.78
9113.13
9050.04
8990.75
8935.66
8884.77
8837.92
8794.88
8755.39
8719.18
8685.96
8655.44
8627.36
8601.46
8577.54
8555.42
8534.94
8515.96
8498.37
8482.04
8466.88
8452.78
8439.65
8427.41
8415.97
8405.26
8395.2
8385.74
8376.82
8368.38
8360.37
8352.74
8345.44
8338.42
8331.62
8325
8318.5
8312.08
8305.58
8298.91
8292.05
8284.95
8277.56
8269.82
8261.64
8252.95
8243.65
8233.63
8222.71
8210.86
8197.91
8188.25
8178.1
8167.67
8156.77
8145.45
8133.71
8121.54
8108.9
8095.76
8082.08
8067.83
8052.95
8037.38
8021.04
8003.85
7985.66
7966.33
7945.61
7923.23
7898.8
7871.83
7841.77
7808.22
7769.4
7722.57
1.57666
57.4917
659.578
2312.52
4213.18
5618.02
6469.39
6941.51
7189.58
7311.28
7362.6
7374.72
7365.08
7343.7
7316.39
7286.49
7255.91
7225.73
7196.57
7168.83
7142.67
7118.16
7095.28
7073.94
7054.05
7035.5
7018.21
7002.08
6987.06
6973.05
6960.01
6947.86
6936.52
6925.95
6916.07
6906.83
6898.16
6890.02
6882.36
6875.12
6868.27
6861.77
6855.57
6849.63
6843.92
6838.39
6833
6827.72
6822.48
6817.25
6811.97
6806.46
6800.71
6794.68
6788.32
6781.58
6774.39
6766.68
6758.36
6749.34
6739.47
6728.73
6717.04
6708.39
6699.32
6689.96
6680.2
6670.04
6659.51
6648.58
6637.24
6625.47
6613.25
6600.53
6587.29
6573.47
6559.03
6543.88
6527.93
6511.05
6493.09
6473.86
6453.11
6430.57
6405.98
6379.18
6349.22
6313.04
0.233143
7.0957
110.74
676.733
1834.45
3103.02
4097.79
4769.39
5194.54
5456.75
5616.28
5711.65
5766.81
5796.7
5810.6
5814.31
5811.51
5804.6
5795.19
5784.37
5772.85
5761.11
5749.41
5737.93
5726.79
5716.05
5705.76
5695.96
5686.66
5677.86
5669.56
5661.74
5654.38
5647.45
5640.92
5634.76
5628.94
5623.43
5618.21
5613.24
5608.51
5603.98
5599.63
5595.44
5591.36
5587.38
5583.46
5579.57
5575.67
5571.72
5567.72
5563.49
5558.98
5554.17
5549.01
5543.48
5537.49
5531.01
5523.94
5516.22
5507.72
5498.44
5488.35
5480.91
5473.09
5465.02
5456.59
5447.81
5438.7
5429.23
5419.41
5409.22
5398.63
5387.63
5376.18
5364.25
5351.8
5338.77
5325.1
5310.69
5295.45
5279.26
5261.99
5243.52
5223.77
5202.7
5179.74
5151.93
0.0346168
0.745612
11.515
105.204
478.581
1195.99
2041.63
2778.42
3333.06
3726.63
3999.25
4186.77
4316.08
4405.7
4467.97
4511.18
4541
4561.37
4575.03
4583.9
4589.32
4592.24
4593.31
4593.05
4591.8
4589.87
4587.45
4584.73
4581.81
4578.8
4575.75
4572.71
4569.71
4566.77
4563.9
4561.1
4558.37
4555.73
4553.15
4550.64
4548.2
4545.81
4543.46
4541.15
4538.85
4536.55
4534.22
4531.85
4529.4
4526.85
4524.19
4521.37
4518.23
4514.77
4510.96
4506.76
4502.14
4497.03
4491.37
4485.12
4478.17
4470.52
4462.16
4456
4449.49
4442.73
4435.68
4428.32
4420.66
4412.69
4404.41
4395.81
4386.86
4377.55
4367.87
4357.79
4347.27
4336.27
4324.77
4312.69
4300
4286.62
4272.52
4257.65
4242.03
4225.67
4208.18
4186.9
0.00739086
0.0690787
0.943001
9.12182
59.6216
242.309
618.178
1132.9
1664.63
2121.98
2481.18
2754.53
2960.76
3116.01
3233.12
3322.04
3390.19
3442.94
3484.13
3516.51
3542.12
3562.46
3578.69
3591.7
3602.17
3610.64
3617.52
3623.12
3627.7
3631.46
3634.53
3637.05
3639.1
3640.76
3642.1
3643.16
3643.99
3644.62
3645.07
3645.38
3645.55
3645.61
3645.55
3645.38
3645.11
3644.72
3644.2
3643.55
3642.75
3641.78
3640.63
3639.32
3637.71
3635.74
3633.41
3630.69
3627.54
3623.92
3619.78
3615.09
3609.77
3603.81
3597.22
3592.33
3587.11
3581.66
3575.94
3569.95
3563.69
3557.15
3550.34
3543.23
3535.83
3528.12
3520.08
3511.71
3502.98
3493.87
3484.36
3474.42
3464.03
3453.19
3441.88
3430.12
3417.95
3405.39
3392.14
3375.94
0.0024238
0.00611583
0.0656415
0.599404
4.07911
21.2673
82.7024
229.685
473.893
786.738
1119.16
1426.87
1687.41
1898.71
2068.19
2204.58
2314.95
2404.63
2477.76
2537.67
2587.05
2628.07
2662.42
2691.42
2716.08
2737.19
2755.35
2771.07
2784.73
2796.65
2807.09
2816.27
2824.37
2831.55
2837.92
2843.6
2848.69
2853.24
2857.34
2861.02
2864.34
2867.32
2870.01
2872.41
2874.55
2876.43
2878.06
2879.45
2880.58
2881.46
2882.08
2882.43
2882.56
2882.28
2881.6
2880.5
2878.96
2876.95
2874.44
2871.38
2867.74
2863.5
2858.69
2855.05
2851.1
2846.9
2842.47
2837.78
2832.83
2827.63
2822.18
2816.47
2810.49
2804.25
2797.73
2790.93
2783.83
2776.44
2768.74
2760.73
2752.42
2743.81
2734.93
2725.79
2716.46
2706.93
2696.97
2684.71
0.00184248
0.000886165
0.00404622
0.0328572
0.214505
1.12221
4.87465
17.7174
52.849
126.621
247.016
408.386
596.056
792.196
980.667
1150.63
1297.54
1421.67
1525.91
1613.79
1688.49
1752.51
1807.74
1855.61
1897.23
1933.53
1965.27
1993.11
2017.64
2039.34
2058.62
2075.82
2091.23
2105.11
2117.64
2128.99
2139.32
2148.73
2157.33
2165.2
2172.41
2179.03
2185.1
2190.67
2195.77
2200.43
2204.68
2208.54
2212
2215.1
2217.82
2220.17
2222.19
2223.86
2225.07
2225.81
2226.07
2225.84
2225.08
2223.79
2221.92
2219.46
2216.46
2214.07
2211.37
2208.42
2205.23
2201.79
2198.11
2194.19
2190.03
2185.64
2181.01
2176.14
2171.03
2165.69
2160.11
2154.3
2148.27
2142.03
2135.57
2128.94
2122.15
2115.23
2108.22
2101.12
2093.74
2084.59
0.00181831
0.000333922
0.000315635
0.00154363
0.00929345
0.0469325
0.200729
0.74416
2.43112
7.0598
18.1847
41.1135
81.1878
141.188
220.134
314.147
417.997
526.214
633.78
736.631
831.957
918.228
995.011
1062.66
1122.02
1174.11
1220
1260.66
1296.89
1329.39
1358.69
1385.22
1409.34
1431.33
1451.41
1469.79
1486.64
1502.1
1516.31
1529.37
1541.41
1552.5
1562.72
1572.16
1580.86
1588.89
1596.29
1603.11
1609.36
1615.09
1620.31
1625.04
1629.3
1633.15
1636.54
1639.38
1641.69
1643.47
1644.69
1645.34
1645.41
1644.88
1643.79
1642.72
1641.32
1639.65
1637.74
1635.58
1633.17
1630.53
1627.66
1624.57
1621.26
1617.74
1614.01
1610.09
1605.98
1601.69
1597.23
1592.62
1587.87
1583.01
1578.05
1573.02
1567.95
1562.84
1557.54
1550.91
0.00181797
0.000298835
8.24363e-05
8.99571e-05
0.000343044
0.00159515
0.00661283
0.0240789
0.0780717
0.228571
0.611368
1.50728
3.44868
7.33905
14.4914
26.4729
44.7465
70.2566
103.175
142.915
188.348
238.08
290.668
344.746
399.095
452.672
504.628
554.318
601.289
645.263
686.116
723.839
758.519
790.305
819.385
845.971
870.282
892.532
912.926
931.653
948.884
964.771
979.45
993.037
1005.63
1017.33
1028.19
1038.29
1047.68
1056.4
1064.48
1071.96
1078.86
1085.21
1091.1
1096.42
1101.15
1105.28
1108.82
1111.76
1114.08
1115.79
1116.91
1117.33
1117.4
1117.19
1116.7
1115.95
1114.95
1113.71
1112.24
1110.56
1108.67
1106.58
1104.3
1101.86
1099.25
1096.5
1093.62
1090.61
1087.51
1084.32
1081.06
1077.76
1074.41
1071.04
1067.55
1063.09
0.00181828
0.000297967
6.8573e-05
2.34897e-05
1.98678e-05
4.86145e-05
0.000175218
0.000614626
0.00195844
0.00567246
0.0150792
0.0371397
0.0855046
0.185327
0.380184
0.741672
1.38203
2.46765
4.22711
6.94652
10.9479
16.5532
24.0415
33.6104
45.3502
59.2369
75.1417
92.854
112.109
132.617
154.082
176.222
198.777
221.516
244.235
266.761
288.947
310.671
331.834
352.359
372.185
391.267
409.576
427.093
443.807
459.718
474.83
489.153
502.7
515.485
527.525
538.837
549.438
559.344
568.578
577.267
585.277
592.6
599.238
605.188
610.45
615.019
618.915
621.178
623.049
624.584
625.805
626.728
627.372
627.753
627.89
627.798
627.494
626.993
626.311
625.464
624.466
623.332
622.076
620.711
619.252
617.711
616.1
614.43
612.712
610.951
609.115
606.738
0.00181863
0.000297997
6.82609e-05
2.06351e-05
8.05783e-06
4.73935e-06
5.7528e-06
1.33985e-05
3.83269e-05
0.000107527
0.000282033
0.000689432
0.0015795
0.00341308
0.00699438
0.0136612
0.025553
0.0459677
0.0797951
0.13401
0.218232
0.345381
0.532398
0.800928
1.17773
1.6946
2.38761
3.29568
4.45865
5.915
7.69961
9.84173
12.3634
15.2782
18.5912
22.2983
26.3875
30.8391
35.6276
40.722
46.0881
51.6889
57.4863
63.4414
69.5161
75.6728
81.8754
88.0894
94.2822
100.423
106.482
112.433
118.249
123.906
129.381
134.654
139.791
144.773
149.581
154.194
158.594
162.761
166.679
169.147
171.434
173.55
175.502
177.295
178.935
180.43
181.786
183.011
184.111
185.093
185.966
186.736
187.41
187.996
188.499
188.928
189.288
189.585
189.826
190.015
190.159
190.261
190.326
190.345
0.001819
0.000298043
6.82669e-05
2.05855e-05
7.73863e-06
3.47588e-06
1.84136e-06
1.2295e-06
1.22464e-06
1.96139e-06
4.16876e-06
9.50224e-06
2.12329e-05
4.53983e-05
9.25449e-05
0.000180234
0.000336547
0.000604769
0.00104929
0.0017626
0.00287348
0.00455641
0.00704265
0.0106324
0.0157072
0.0227418
0.0323133
0.0451079
0.0619249
0.0836798
0.111405
0.146249
0.189473
0.242447
0.306627
0.383541
0.474753
0.581817
0.706233
0.849384
1.01248
1.19649
1.40208
1.62958
1.87888
2.14943
2.4402
2.74963
3.07559
3.41544
3.76594
4.12331
4.48323
4.84086
5.18997
5.52513
5.87632
6.2415
6.61844
7.00478
7.39804
7.79561
8.19485
8.45711
8.71167
8.95801
9.19566
9.42426
9.64358
9.85343
10.0538
10.2445
10.4259
10.5979
10.7607
10.9147
11.06
11.197
11.3259
11.4472
11.5611
11.6681
11.7685
11.8627
11.951
12.0338
12.1115
12.1874
0.00181934
0.000298088
6.82768e-05
2.05878e-05
7.73544e-06
3.45648e-06
1.76947e-06
1.00912e-06
6.29869e-07
4.29518e-07
3.28921e-07
3.02358e-07
3.5725e-07
5.34919e-07
9.21415e-07
1.66631e-06
3.0115e-06
5.3309e-06
9.1818e-06
1.53668e-05
2.5007e-05
3.96251e-05
6.12397e-05
9.24699e-05
0.000136644
0.000197907
0.000281318
0.000392928
0.000539836
0.000730219
0.000973335
0.00127951
0.00166008
0.00212731
0.00269423
0.00337439
0.00418156
0.00512922
0.00622995
0.00749461
0.00893136
0.0105445
0.0123328
0.0142883
0.0163942
0.0186229
0.0209338
0.0232714
0.0255631
0.0277171
0.0296213
0.0311416
0.0321179
0.0323738
0.0324417
0.0325999
0.032848
0.0331849
0.0336091
0.0341185
0.0347102
0.0353809
0.0361263
0.0366517
0.0371912
0.0377414
0.038299
0.0388608
0.0394241
0.0399863
0.040545
0.041098
0.0416436
0.0421801
0.042706
0.0432203
0.0437218
0.0442099
0.0446839
0.0451434
0.0455881
0.0460179
0.0464326
0.0468324
0.0472174
0.0475879
0.047944
0.0483051
0.00181958
0.000298119
6.82837e-05
2.05898e-05
7.73611e-06
3.45661e-06
1.76896e-06
1.007e-06
6.23572e-07
4.13001e-07
2.8889e-07
2.11489e-07
1.61135e-07
1.27608e-07
1.05549e-07
9.24003e-08
8.74971e-08
9.17477e-08
1.07665e-07
1.3959e-07
1.94061e-07
2.80244e-07
4.10482e-07
6.00893e-07
8.72024e-07
1.24952e-06
1.76473e-06
2.45527e-06
3.36533e-06
4.54598e-06
6.05508e-06
7.95705e-06
1.03222e-05
1.3226e-05
1.6747e-05
2.09651e-05
2.59581e-05
3.1797e-05
3.85402e-05
4.62257e-05
5.48609e-05
6.44105e-05
7.47826e-05
8.58128e-05
9.72467e-05
0.000108724
0.000119765
0.000129763
0.000137977
0.000143555
0.000145586
0.000143814
0.000142222
0.000140747
0.000139362
0.000138061
0.000136834
0.000135675
0.000134577
0.000133534
0.000132539
0.000131588
0.000130675
0.000130114
0.000129582
0.000129076
0.000128596
0.00012814
0.000127707
0.000127296
0.000126906
0.000126536
0.000126187
0.000125856
0.000125544
0.000125251
0.000124976
0.000124719
0.000124479
0.000124257
0.000124052
0.000123864
0.000123692
0.000123537
0.000123397
0.000123273
0.000123163
0.000123121
0.00181969
0.000298134
6.82871e-05
2.05907e-05
7.73644e-06
3.45676e-06
1.76903e-06
1.00702e-06
6.23555e-07
4.12905e-07
2.88625e-07
2.10865e-07
1.59777e-07
1.24811e-07
1.00037e-07
8.19608e-08
6.844e-08
5.81141e-08
5.00955e-08
4.37931e-08
3.88094e-08
3.48782e-08
3.18264e-08
2.95504e-08
2.80017e-08
2.71773e-08
2.71141e-08
2.78858e-08
2.95998e-08
3.23955e-08
3.64416e-08
4.19329e-08
4.90855e-08
5.81307e-08
6.93047e-08
8.2836e-08
9.8925e-08
1.17719e-07
1.39278e-07
1.63528e-07
1.90208e-07
2.18803e-07
2.48474e-07
2.77985e-07
3.05641e-07
3.29258e-07
3.46179e-07
3.53384e-07
3.54047e-07
3.55336e-07
3.57077e-07
3.59172e-07
3.61898e-07
3.65677e-07
3.7117e-07
3.79408e-07
3.92005e-07
4.11475e-07
4.41702e-07
4.88648e-07
5.61368e-07
6.73464e-07
8.4509e-07
9.91377e-07
1.17555e-06
1.40502e-06
1.68789e-06
2.03286e-06
2.44916e-06
2.94632e-06
3.534e-06
4.22177e-06
5.01883e-06
5.93384e-06
6.97463e-06
8.14805e-06
9.45972e-06
1.09139e-05
1.25136e-05
1.42599e-05
1.61527e-05
1.81901e-05
2.0369e-05
2.26844e-05
2.51305e-05
2.76999e-05
3.03844e-05
3.31795e-05
0.00181969
0.000298133
6.82871e-05
2.05907e-05
7.73644e-06
3.45676e-06
1.76902e-06
1.00702e-06
6.23555e-07
4.12905e-07
2.88625e-07
2.10864e-07
1.59775e-07
1.24807e-07
1.00028e-07
8.19454e-08
6.84126e-08
5.80667e-08
5.00162e-08
4.36642e-08
3.86051e-08
3.45622e-08
3.13488e-08
2.88441e-08
2.69781e-08
2.57218e-08
2.50818e-08
2.50959e-08
2.5832e-08
2.73859e-08
2.98821e-08
3.34727e-08
3.83399e-08
4.46966e-08
5.27922e-08
6.29176e-08
7.54175e-08
9.07058e-08
1.09291e-07
1.31814e-07
1.59096e-07
1.92219e-07
2.32627e-07
2.82278e-07
3.43851e-07
4.21042e-07
5.18986e-07
6.44849e-07
8.0868e-07
1.02463e-06
1.31267e-06
1.70111e-06
2.23008e-06
2.95652e-06
3.96117e-06
5.3582e-06
7.30847e-06
1.00373e-05
1.3858e-05
1.92028e-05
2.66614e-05
3.70302e-05
5.13707e-05
6.28771e-05
7.65404e-05
9.26311e-05
0.000111416
0.000133158
0.000158108
0.0001865
0.000218544
0.000254422
0.000294279
0.000338223
0.00038632
0.000438592
0.000495019
0.000555536
0.000620038
0.000688379
0.000760376
0.000835817
0.000914459
0.000996035
0.00108026
0.00116683
0.00125544
0.00134587
0.00181958
0.000298118
6.82837e-05
2.05897e-05
7.7361e-06
3.45661e-06
1.76895e-06
1.00699e-06
6.23551e-07
4.12948e-07
2.88763e-07
2.11206e-07
1.60536e-07
1.264e-07
1.03212e-07
8.80552e-08
7.97104e-08
7.82546e-08
8.49665e-08
1.02453e-07
1.34873e-07
1.88268e-07
2.70939e-07
3.939e-07
5.71395e-07
8.21397e-07
1.16624e-06
1.63297e-06
2.25407e-06
3.06752e-06
4.11748e-06
5.45426e-06
7.13498e-06
9.22369e-06
1.17923e-05
1.49214e-05
1.87019e-05
2.32369e-05
2.86461e-05
3.50694e-05
4.26751e-05
5.16689e-05
6.23079e-05
7.49182e-05
8.99199e-05
0.000107859
0.00012945
0.000155633
0.000187642
0.000227106
0.000276165
0.00033763
0.000415178
0.000513601
0.000639118
0.00079974
0.00100572
0.00127008
0.00160918
0.00204337
0.00259766
0.00330245
0.00419423
0.00487196
0.00563542
0.0064898
0.00743916
0.00848663
0.00963448
0.010884
0.0122355
0.0136881
0.01524
0.0168883
0.0186292
0.0204579
0.0223691
0.0243565
0.0264137
0.0285333
0.0307082
0.0329305
0.0351928
0.0374871
0.0398059
0.0421417
0.0444874
0.0468379
0.00181934
0.000298088
6.82768e-05
2.05878e-05
7.73543e-06
3.45639e-06
1.76914e-06
1.00804e-06
6.26844e-07
4.21804e-07
3.10661e-07
2.61879e-07
2.71477e-07
3.59176e-07
5.74183e-07
1.00726e-06
1.80872e-06
3.21592e-06
5.58761e-06
9.45045e-06
1.55502e-05
2.49157e-05
3.8927e-05
5.93949e-05
8.86492e-05
0.000129623
0.000185954
0.000262043
0.000363152
0.000495409
0.000665909
0.000882679
0.00115478
0.00149228
0.00190639
0.00240945
0.00301512
0.00373848
0.00459633
0.00560739
0.00679295
0.00817736
0.00978902
0.0116615
0.0138349
0.0163581
0.0192902
0.0227041
0.0266886
0.0313524
0.0368278
0.0432745
0.0508841
0.0598845
0.070544
0.0831754
0.0981394
0.115847
0.13676
0.161391
0.190297
0.224074
0.263337
0.291679
0.322042
0.354406
0.388703
0.424851
0.462756
0.502309
0.543388
0.585861
0.629585
0.674409
0.720182
0.766745
0.813942
0.861619
0.909624
0.957811
1.00604
1.05418
1.10209
1.14968
1.19682
1.24342
1.28939
1.33472
0.00181901
0.000298045
6.82672e-05
2.05853e-05
7.73636e-06
3.46542e-06
1.80465e-06
1.12124e-06
9.41901e-07
1.23624e-06
2.35681e-06
5.21328e-06
1.16661e-05
2.52306e-05
5.21689e-05
0.000103131
0.000195385
0.000356051
0.000626075
0.00106549
0.00175912
0.00282367
0.00441544
0.00673952
0.0100601
0.0147101
0.0211016
0.0297316
0.0411903
0.0561605
0.0754254
0.099865
0.130464
0.168308
0.214586
0.270586
0.337693
0.41737
0.511156
0.620641
0.747458
0.893264
1.05974
1.24856
1.46144
1.70008
1.96624
2.2617
2.58832
2.94803
3.34288
3.77501
4.24671
4.76039
5.31859
5.92394
6.57917
7.28701
8.05017
8.87124
9.75254
10.6959
11.7015
12.3897
13.0894
13.7984
14.5143
15.235
15.9584
16.6827
17.4059
18.1263
18.8421
19.5517
20.2536
20.9464
21.6288
22.2996
22.9578
23.6025
24.2329
24.8483
25.4482
26.032
26.5994
27.1501
27.684
28.2072
0.00181866
0.000298
6.82588e-05
2.0605e-05
7.88263e-06
4.09273e-06
3.81617e-06
7.25321e-06
1.96374e-05
5.51777e-05
0.000146919
0.000365569
0.000852456
0.00187424
0.00390633
0.00775644
0.0147346
0.0268989
0.0473588
0.0806551
0.133161
0.213567
0.333414
0.507701
0.755436
1.09993
1.56877
2.19303
3.0063
4.04286
5.33605
6.91623
8.80933
11.0353
13.6075
16.532
19.8078
23.4271
27.3763
31.6366
36.1855
40.9975
46.0456
51.3021
56.7394
62.3311
68.0522
73.8797
79.7932
85.7745
91.8081
97.8812
103.983
110.106
116.243
122.391
128.547
134.709
140.877
147.05
153.229
159.412
165.587
169.656
173.621
177.488
181.254
184.918
188.481
191.942
195.302
198.559
201.715
204.77
207.724
210.579
213.335
215.994
218.556
221.024
223.398
225.68
227.873
229.977
231.996
233.93
235.785
237.628
0.00181831
0.000297961
6.83781e-05
2.18866e-05
1.39097e-05
2.54735e-05
8.5164e-05
0.000299958
0.000973335
0.00287654
0.0078043
0.0196095
0.0460125
0.101604
0.21234
0.421922
0.800352
1.45513
2.5417
4.26874
6.89114
10.6901
15.9421
22.8836
31.6804
42.4075
55.0438
69.4799
85.5367
102.987
121.581
141.062
161.181
181.709
202.441
223.196
243.818
264.179
284.168
303.701
322.708
341.138
358.955
376.135
392.667
408.549
423.787
438.394
452.389
465.796
478.642
490.958