/*--------------------------------*- C++ -*----------------------------------*\
| =========                 |                                                 |
| \\      /  F ield         | OpenFOAM: The Open Source CFD Toolbox           |
|  \\    /   O peration     | Version:  5.x                                   |
|   \\  /    A nd           | Web:      www.OpenFOAM.org                      |
|    \\/     M anipulation  |                                                 |
\*---------------------------------------------------------------------------*/
FoamFile
{
    version     2.0;
    format      ascii;
    class       volScalarField;
    location    "500";
    object      k;
}
// * * * * * * * * * * * * * * * * * * * * * * * * * * * * * * * * * * * * * //

dimensions      [0 2 -2 0 0 0 0];

internalField   nonuniform List<scalar> 
20540
(
2.45293e-05
7.7262e-06
2.45293e-05
1.40218e-05
2.45293e-05
2.49906e-05
2.45293e-05
3.98274e-05
2.45293e-05
5.74879e-05
2.45293e-05
7.64339e-05
2.45293e-05
9.45119e-05
2.45293e-05
0.000108992
2.45293e-05
0.000116847
2.45293e-05
0.000115342
2.45293e-05
0.000102963
2.45293e-05
8.0561e-05
2.45293e-05
5.23749e-05
2.45293e-05
2.60998e-05
2.45293e-05
9.75512e-06
2.45293e-05
4.05128e-06
2.45293e-05
2.89963e-06
2.45293e-05
2.72158e-06
2.45293e-05
2.69432e-06
2.45293e-05
2.68984e-06
2.45293e-05
2.68915e-06
2.45293e-05
2.68913e-06
2.45293e-05
2.68925e-06
2.45293e-05
2.68943e-06
2.45293e-05
2.68966e-06
2.45293e-05
2.68993e-06
2.45293e-05
2.69024e-06
2.45293e-05
2.69057e-06
2.45293e-05
2.69092e-06
2.45293e-05
2.69124e-06
2.45293e-05
2.69147e-06
2.45293e-05
2.69158e-06
2.45293e-05
2.69157e-06
2.45293e-05
2.69147e-06
2.45293e-05
2.69124e-06
2.45293e-05
2.69093e-06
2.45293e-05
2.69059e-06
2.45293e-05
2.69027e-06
2.45293e-05
2.68997e-06
2.45293e-05
2.6897e-06
2.45293e-05
2.68947e-06
2.45293e-05
2.68929e-06
2.45293e-05
2.68915e-06
2.45293e-05
2.6891e-06
2.45293e-05
2.68941e-06
2.45293e-05
2.69158e-06
2.45293e-05
2.70411e-06
2.45293e-05
2.7797e-06
2.45293e-05
3.26019e-06
2.45293e-05
5.94649e-06
2.45293e-05
1.59569e-05
2.45293e-05
3.69469e-05
2.45293e-05
6.43547e-05
2.45293e-05
9.03079e-05
2.45293e-05
0.000108919
2.45293e-05
0.000117509
2.45293e-05
0.000116116
2.45293e-05
0.000106541
2.45293e-05
9.14088e-05
2.45293e-05
7.3451e-05
2.45293e-05
5.50668e-05
2.45293e-05
3.81299e-05
2.45293e-05
2.39822e-05
2.45293e-05
1.35556e-05
2.45293e-05
7.61291e-06
3.68719
3.61479
3.36342
3.17992
3.04618
2.94552
2.86705
2.804
2.75219
2.70892
2.67228
2.64092
2.61381
2.59019
2.56946
2.55118
2.53496
2.52051
2.50756
2.49592
2.48542
2.47592
2.4673
2.45946
2.45231
2.44577
2.43979
2.43429
2.42923
2.42456
2.42026
2.41628
2.4126
2.40919
2.40604
2.40312
2.40042
2.39793
2.39562
2.3935
2.39155
2.38978
2.38818
2.38674
2.38549
2.38442
2.38355
2.38289
2.38247
2.38229
2.3824
2.38281
2.38357
2.3847
2.38624
2.38823
2.39071
2.39374
2.39736
2.40165
2.40667
2.41249
2.41953
2.42502
2.43063
2.43631
2.44231
2.44866
2.45533
2.46234
2.46968
2.47736
2.48539
2.49377
2.50251
2.51163
2.52115
2.53109
2.54148
2.55237
2.56384
2.57597
2.58891
2.60293
2.61827
2.63678
2.66206
2.76843
16.8721
15.7447
14.7442
14.0723
13.5916
13.2314
12.9505
12.7243
12.5379
12.3819
12.2494
12.1358
12.0374
11.9516
11.8761
11.8094
11.7502
11.6973
11.6499
11.6072
11.5687
11.5338
11.5021
11.4733
11.447
11.4229
11.4008
11.3806
11.3619
11.3446
11.3287
11.314
11.3004
11.2878
11.2762
11.2654
11.2554
11.2461
11.2376
11.2298
11.2226
11.216
11.2101
11.2049
11.2003
11.1965
11.1934
11.1911
11.1898
11.1894
11.1901
11.1921
11.1954
11.2001
11.2065
11.2147
11.2248
11.2371
11.2518
11.269
11.2893
11.3126
11.3412
11.364
11.3867
11.4093
11.4332
11.4587
11.4855
11.5138
11.5433
11.5743
11.6067
11.6406
11.6759
11.7128
11.7514
11.7917
11.8339
11.8782
11.925
11.9745
12.0275
12.085
12.1484
12.2217
12.3102
12.3068
18.5626
18.4964
17.5392
16.838
16.3244
15.9352
15.63
15.3835
15.1799
15.0092
14.8641
14.7394
14.6314
14.537
14.454
14.3806
14.3154
14.2572
14.205
14.158
14.1155
14.077
14.0421
14.0103
13.9813
13.9547
13.9304
13.908
13.8874
13.8684
13.8508
13.8346
13.8195
13.8056
13.7928
13.7808
13.7698
13.7596
13.7502
13.7415
13.7335
13.7263
13.7197
13.7138
13.7087
13.7043
13.7007
13.698
13.6963
13.6955
13.696
13.6976
13.7007
13.7053
13.7116
13.7197
13.7298
13.7422
13.757
13.7744
13.7948
13.8185
13.8469
13.8688
13.8919
13.9151
13.9393
13.9648
13.9917
14.0198
14.0493
14.08
14.1121
14.1455
14.1803
14.2165
14.2541
14.2932
14.334
14.3766
14.4211
14.468
14.5174
14.5705
14.6269
14.692
14.7439
14.6675
18.4197
19.5669
18.7628
18.0856
17.5726
17.1786
16.8675
16.6153
16.4065
16.2311
16.0818
15.9534
15.842
15.7447
15.659
15.5833
15.5159
15.4558
15.4018
15.3532
15.3093
15.2696
15.2334
15.2006
15.1705
15.1431
15.1179
15.0948
15.0735
15.0538
15.0356
15.0188
15.0033
14.9889
14.9756
14.9633
14.9518
14.9413
14.9315
14.9225
14.9142
14.9067
14.8998
14.8936
14.8882
14.8836
14.8797
14.8767
14.8746
14.8735
14.8735
14.8747
14.8772
14.8813
14.8869
14.8943
14.9036
14.915
14.9287
14.9449
14.9639
14.9861
15.012
15.0314
15.0528
15.0748
15.0974
15.1211
15.1459
15.1718
15.1988
15.227
15.2562
15.2866
15.3181
15.3507
15.3845
15.4195
15.4557
15.4932
15.5321
15.5727
15.6149
15.6595
15.7052
15.7569
15.7799
15.6961
17.5092
19.9418
19.3763
18.7568
18.2625
17.8753
17.5666
17.315
17.106
16.93
16.78
16.6509
16.5387
16.4406
16.3542
16.2778
16.2098
16.149
16.0946
16.0455
16.0011
15.9609
15.9244
15.8912
15.8609
15.8331
15.8076
15.7843
15.7627
15.7428
15.7245
15.7075
15.6918
15.6773
15.6638
15.6513
15.6398
15.6291
15.6192
15.6101
15.6017
15.594
15.587
15.5807
15.5751
15.5702
15.5661
15.5628
15.5604
15.5589
15.5584
15.5591
15.561
15.5643
15.569
15.5754
15.5835
15.5936
15.6057
15.6202
15.6371
15.657
15.6796
15.6959
15.7148
15.7346
15.7549
15.7759
15.7979
15.8207
15.8444
15.869
15.8945
15.9209
15.9481
15.9761
16.005
16.0347
16.0653
16.0967
16.1289
16.1621
16.196
16.2313
16.2655
16.303
16.3067
16.2422
16.1548
19.8902
19.6492
19.1202
18.6605
18.2892
17.989
17.7425
17.5368
17.363
17.2145
17.0864
16.975
16.8775
16.7915
16.7154
16.6477
16.5872
16.5329
16.4839
16.4397
16.3996
16.3632
16.33
16.2998
16.2721
16.2467
16.2233
16.2018
16.182
16.1637
16.1468
16.1311
16.1166
16.1032
16.0907
16.0792
16.0685
16.0586
16.0495
16.0411
16.0334
16.0263
16.0199
16.0142
16.0092
16.0049
16.0013
15.9986
15.9967
15.9958
15.9958
15.9971
15.9995
16.0032
16.0084
16.0152
16.0237
16.034
16.0464
16.0608
16.078
16.0969
16.1101
16.1259
16.143
16.1605
16.1785
16.1972
16.2165
16.2365
16.2571
16.2784
16.3004
16.3228
16.3459
16.3695
16.3935
16.418
16.4429
16.4682
16.4937
16.5194
16.5453
16.5687
16.5927
16.5843
16.5431
14.5027
19.5042
19.6798
19.2789
18.871
18.5253
18.2397
18.0024
17.8031
17.6339
17.4888
17.3633
17.254
17.1582
17.0736
16.9987
16.9319
16.8723
16.8187
16.7704
16.7267
16.6872
16.6512
16.6185
16.5886
16.5612
16.5361
16.5131
16.4918
16.4723
16.4542
16.4375
16.422
16.4077
16.3944
16.3821
16.3707
16.3602
16.3504
16.3413
16.333
16.3253
16.3183
16.3119
16.3061
16.301
16.2965
16.2928
16.2897
16.2875
16.286
16.2855
16.286
16.2875
16.2902
16.2941
16.2994
16.3062
16.3146
16.3246
16.3364
16.3507
16.3658
16.3758
16.3883
16.4024
16.4168
16.4315
16.4467
16.4623
16.4784
16.4949
16.5118
16.5291
16.5467
16.5647
16.5828
16.6012
16.6196
16.6381
16.6565
16.6747
16.6924
16.7094
16.723
16.7351
16.7189
16.6944
12.644
18.8111
19.5021
19.2748
18.9397
18.631
18.367
18.1437
17.9541
17.792
17.6523
17.5311
17.4252
17.3321
17.2499
17.1769
17.1119
17.0537
17.0014
16.9543
16.9116
16.8729
16.8378
16.8058
16.7765
16.7498
16.7253
16.7027
16.6819
16.6628
16.6451
16.6287
16.6136
16.5996
16.5866
16.5746
16.5635
16.5532
16.5436
16.5347
16.5265
16.5189
16.512
16.5056
16.4999
16.4947
16.4902
16.4862
16.4829
16.4803
16.4784
16.4773
16.477
16.4776
16.4792
16.4819
16.4856
16.4906
16.4969
16.5046
16.5137
16.5248
16.5362
16.5432
16.5523
16.563
16.5742
16.5855
16.5972
16.609
16.6212
16.6335
16.6461
16.6588
16.6716
16.6845
16.6974
16.7102
16.7228
16.7352
16.7471
16.7584
16.7688
16.7779
16.7827
16.7849
16.7632
16.7457
10.6543
17.811
19.1182
19.1202
18.8848
18.6273
18.3935
18.1899
18.0141
17.8622
17.7302
17.6151
17.5141
17.4251
17.3463
17.2762
17.2137
17.1576
17.1072
17.0617
17.0205
16.9831
16.9492
16.9182
16.89
16.8641
16.8404
16.8186
16.7985
16.78
16.7629
16.7471
16.7324
16.7189
16.7064
16.6948
16.684
16.674
16.6647
16.6562
16.6482
16.6408
16.634
16.6278
16.6221
16.617
16.6124
16.6083
16.6048
16.6019
16.5995
16.5978
16.5968
16.5965
16.5971
16.5984
16.6007
16.6039
16.6081
16.6135
16.6198
16.6277
16.6354
16.6396
16.6454
16.6528
16.6606
16.6686
16.6767
16.6849
16.6931
16.7014
16.7098
16.7181
16.7263
16.7344
16.7423
16.7499
16.7571
16.7639
16.7699
16.7751
16.7789
16.781
16.7785
16.7726
16.7462
16.7282
8.61111
16.4932
18.5107
18.8094
18.7076
18.5201
18.3277
18.1511
17.9942
17.8562
17.7348
17.6281
17.5339
17.4505
17.3763
17.3102
17.2511
17.198
17.1501
17.1069
17.0677
17.0322
16.9999
16.9704
16.9435
16.9189
16.8963
16.8755
16.8563
16.8386
16.8223
16.8073
16.7933
16.7804
16.7685
16.7574
16.7472
16.7377
16.7288
16.7206
16.713
16.706
16.6994
16.6934
16.6879
16.6828
16.6783
16.6742
16.6705
16.6673
16.6646
16.6624
16.6607
16.6596
16.6591
16.6592
16.66
16.6615
16.6637
16.6667
16.6703
16.6752
16.6794
16.6811
16.6839
16.6879
16.6924
16.6971
16.7018
16.7064
16.711
16.7155
16.7199
16.7241
16.728
16.7317
16.7351
16.738
16.7403
16.742
16.7429
16.7426
16.7408
16.737
16.7284
16.7161
16.6856
16.6632
6.60005
14.8492
17.6477
18.3222
18.3977
18.3044
18.1681
18.0281
17.8968
17.7775
17.6705
17.5751
17.49
17.4141
17.3462
17.2854
17.2308
17.1816
17.1373
17.0971
17.0606
17.0275
16.9974
16.9699
16.9448
16.9217
16.9006
16.8812
16.8633
16.8468
16.8315
16.8174
16.8044
16.7924
16.7812
16.7709
16.7613
16.7524
16.7442
16.7365
16.7294
16.7227
16.7166
16.7109
16.7056
16.7008
16.6963
16.6923
16.6886
16.6852
16.6822
16.6795
16.6773
16.6754
16.674
16.673
16.6724
16.6723
16.6726
16.6734
16.6745
16.6764
16.6774
16.6769
16.6769
16.678
16.6794
16.6809
16.6824
16.6837
16.6849
16.6859
16.6867
16.6872
16.6873
16.6871
16.6864
16.6851
16.6833
16.6806
16.677
16.6722
16.6657
16.6569
16.6435
16.6262
16.5924
16.5646
4.71675
12.8857
16.4879
17.6253
17.9332
17.966
17.9052
17.8145
17.7176
17.6235
17.5357
17.4554
17.3824
17.3164
17.2569
17.2031
17.1546
17.1107
17.0709
17.0347
17.0019
16.9719
16.9446
16.9197
16.897
16.8761
16.8569
16.8392
16.823
16.8079
16.7941
16.7813
16.7694
16.7585
16.7484
16.739
16.7303
16.7223
16.7148
16.7078
16.7013
16.6953
16.6897
16.6844
16.6796
16.675
16.6708
16.667
16.6633
16.6599
16.6568
16.6538
16.6511
16.6486
16.6464
16.6444
16.6427
16.6411
16.6397
16.6385
16.6373
16.6366
16.6346
16.6322
16.6299
16.6283
16.6269
16.6256
16.6241
16.6226
16.6207
16.6186
16.6162
16.6135
16.6103
16.6067
16.6025
16.5978
16.5923
16.5861
16.5788
16.5702
16.5599
16.5473
16.5301
16.509
16.4727
16.4406
3.06207
10.6402
14.9867
16.6734
17.2804
17.4807
17.5213
17.4968
17.4461
17.3858
17.3236
17.2634
17.2066
17.1538
17.1052
17.0608
17.0202
16.9832
16.9494
16.9186
16.8904
16.8646
16.8411
16.8196
16.7998
16.7817
16.7651
16.7497
16.7356
16.7225
16.7104
16.6993
16.689
16.6795
16.6707
16.6626
16.6551
16.6481
16.6416
16.6356
16.63
16.6247
16.6198
16.6152
16.6109
16.6069
16.6031
16.5995
16.5962
16.5929
16.5897
16.5866
16.5836
16.5807
16.5779
16.5751
16.5724
16.5696
16.5668
16.5639
16.5607
16.5576
16.5532
16.5492
16.545
16.5412
16.5374
16.5336
16.5297
16.5256
16.5211
16.5164
16.5113
16.5058
16.4999
16.4935
16.4865
16.4789
16.4706
16.4614
16.4512
16.4397
16.4264
16.4107
16.3907
16.3668
16.3293
16.2945
1.73124
8.19985
13.1083
15.41
16.393
16.8132
16.9892
17.0538
17.065
17.0499
17.0221
16.9886
16.9532
16.918
16.884
16.8519
16.8218
16.7939
16.768
16.7441
16.722
16.7017
16.683
16.6659
16.6502
16.6357
16.6223
16.61
16.5986
16.5881
16.5783
16.5694
16.5611
16.5534
16.5464
16.5399
16.5338
16.5283
16.5231
16.5182
16.5137
16.5095
16.5056
16.5019
16.4984
16.495
16.4919
16.4888
16.4859
16.483
16.48
16.477
16.474
16.4709
16.4677
16.4644
16.4609
16.4572
16.4532
16.449
16.4442
16.4392
16.4329
16.4276
16.422
16.4164
16.4107
16.405
16.399
16.3928
16.3863
16.3794
16.3722
16.3645
16.3564
16.3477
16.3385
16.3287
16.3181
16.3067
16.2942
16.2805
16.2649
16.2469
16.225
16.1991
16.1615
16.1256
0.79661
5.71939
10.8471
13.7742
15.2111
15.915
16.2706
16.4544
16.5488
16.5944
16.6125
16.6149
16.6081
16.5962
16.5815
16.5657
16.5495
16.5335
16.518
16.5032
16.4891
16.476
16.4637
16.4524
16.4418
16.4321
16.423
16.4146
16.4067
16.3995
16.3928
16.3866
16.3809
16.3757
16.3709
16.3665
16.3624
16.3586
16.3551
16.3519
16.3489
16.346
16.3433
16.3408
16.3383
16.336
16.3337
16.3315
16.3292
16.3269
16.3244
16.3218
16.319
16.3159
16.3127
16.3091
16.3053
16.301
16.2963
16.2911
16.2852
16.2787
16.271
16.2648
16.2581
16.2514
16.2444
16.2371
16.2296
16.2219
16.2137
16.2053
16.1964
16.1871
16.1773
16.167
16.1561
16.1446
16.1324
16.1193
16.1052
16.0898
16.0726
16.053
16.0297
16.0026
15.9659
15.93
0.277776
3.43007
8.26291
11.7159
13.6645
14.7229
15.3129
15.6554
15.8614
15.9886
16.0684
16.1188
16.1503
16.1696
16.1807
16.1865
16.1887
16.1885
16.1867
16.1839
16.1805
16.1767
16.1729
16.1691
16.1654
16.1617
16.1583
16.1549
16.1518
16.1488
16.1461
16.1436
16.1413
16.1392
16.1373
16.1356
16.134
16.1326
16.1313
16.1301
16.129
16.1279
16.1269
16.1259
16.1249
16.1239
16.1229
16.1217
16.1205
16.1191
16.1174
16.1155
16.1132
16.1106
16.1076
16.1042
16.1003
16.0959
16.0909
16.0852
16.0786
16.0713
16.0627
16.0559
16.0487
16.0412
16.0333
16.0252
16.0167
16.0078
15.9986
15.989
15.979
15.9686
15.9576
15.9462
15.9342
15.9215
15.9082
15.8939
15.8786
15.862
15.8437
15.823
15.799
15.7714
15.7362
15.7011
0.0744762
1.61209
5.52859
9.22958
11.6843
13.1605
14.048
14.5986
14.9534
15.1901
15.3529
15.4679
15.5509
15.6119
15.6575
15.6922
15.719
15.7399
15.7563
15.7694
15.78
15.7887
15.796
15.8021
15.8073
15.8118
15.8157
15.819
15.822
15.8247
15.8271
15.8294
15.8315
15.8335
15.8354
15.8372
15.839
15.8406
15.8422
15.8437
15.8451
15.8463
15.8475
15.8486
15.8495
15.8502
15.8508
15.8513
15.8515
15.8514
15.851
15.8501
15.8488
15.847
15.8447
15.8419
15.8384
15.8343
15.8294
15.8237
15.817
15.8094
15.8005
15.7935
15.7861
15.7783
15.77
15.7614
15.7524
15.743
15.7332
15.7229
15.7123
15.7011
15.6895
15.6774
15.6646
15.6512
15.6371
15.6221
15.606
15.5886
15.5695
15.5482
15.5239
15.4964
15.4633
15.4293
0.0166964
0.510467
2.97606
6.41606
9.23399
11.1492
12.3932
13.2088
13.7587
14.1412
14.4154
14.6173
14.7696
14.8868
14.9788
15.0524
15.1121
15.1612
15.202
15.2363
15.2656
15.2909
15.3129
15.3322
15.3493
15.3644
15.378
15.3902
15.4013
15.4113
15.4206
15.4291
15.437
15.4444
15.4513
15.4578
15.4638
15.4695
15.4748
15.4798
15.4845
15.4889
15.4929
15.4967
15.5001
15.5033
15.5061
15.5086
15.5108
15.5125
15.5138
15.5145
15.5147
15.5142
15.5131
15.5113
15.5088
15.5054
15.5012
15.4961
15.4898
15.4824
15.4738
15.467
15.4597
15.452
15.4438
15.4351
15.426
15.4164
15.4064
15.396
15.385
15.3736
15.3616
15.3491
15.336
15.3222
15.3076
15.2921
15.2755
15.2577
15.2381
15.2166
15.1925
15.1657
15.1347
15.1021
0.00327044
0.102656
1.08566
3.57648
6.37987
8.64168
10.2644
11.3968
12.1936
12.7663
13.1881
13.5064
13.7518
13.9448
14.0994
14.2253
14.3294
14.4163
14.4899
14.5528
14.6071
14.6545
14.6962
14.7331
14.766
14.7954
14.8219
14.8459
14.8676
14.8875
14.9058
14.9226
14.9382
14.9527
14.9662
14.9788
14.9905
15.0015
15.0118
15.0214
15.0304
15.0389
15.0467
15.054
15.0608
15.0671
15.0729
15.0782
15.083
15.0873
15.0909
15.0938
15.096
15.0975
15.0982
15.098
15.097
15.095
15.092
15.0879
15.0826
15.0761
15.0683
15.062
15.0552
15.0479
15.0401
15.0317
15.0229
15.0135
15.0036
14.9933
14.9824
14.9709
14.9589
14.9463
14.933
14.919
14.9042
14.8885
14.8716
14.8535
14.8339
14.8124
14.7888
14.7631
14.7344
14.7031
0.000557936
0.0153123
0.221567
1.30668
3.4221
5.70616
7.61852
9.07785
10.163
10.9722
11.5841
12.0551
12.4243
12.7188
12.9576
13.1541
13.318
13.4561
13.5739
13.6752
13.7633
13.8406
13.9087
13.9693
14.0233
14.0719
14.1156
14.1553
14.1914
14.2244
14.2547
14.2827
14.3085
14.3324
14.3547
14.3754
14.3947
14.4128
14.4296
14.4454
14.4601
14.4739
14.4868
14.4989
14.5101
14.5206
14.5304
14.5394
14.5477
14.5553
14.5621
14.5681
14.5731
14.5772
14.5803
14.5825
14.5836
14.5836
14.5825
14.5801
14.5764
14.5713
14.5649
14.5596
14.5535
14.547
14.5398
14.532
14.5237
14.5148
14.5053
14.4953
14.4846
14.4734
14.4615
14.449
14.4357
14.4217
14.4068
14.391
14.3741
14.356
14.3365
14.3154
14.2927
14.2683
14.2418
14.2116
7.91453e-05
0.00191117
0.0276544
0.244083
1.09892
2.71149
4.56869
6.23479
7.59214
8.663
9.50252
10.165
10.6939
11.1216
11.472
11.7627
12.0068
12.2138
12.3912
12.5445
12.6782
12.7957
12.8996
12.9921
13.0747
13.149
13.2161
13.2769
13.3323
13.3829
13.4295
13.4723
13.5118
13.5485
13.5825
13.6141
13.6435
13.6709
13.6966
13.7205
13.7429
13.7639
13.7835
13.8019
13.8191
13.8352
13.8502
13.8642
13.8772
13.8893
13.9003
13.9104
13.9192
13.9269
13.9335
13.9388
13.9429
13.9457
13.9471
13.9472
13.9457
13.9428
13.9383
13.9342
13.9293
13.9238
13.9176
13.9107
13.9031
13.8949
13.886
13.8765
13.8663
13.8554
13.8438
13.8315
13.8184
13.8045
13.7897
13.7739
13.7571
13.7392
13.7201
13.6997
13.678
13.6552
13.6307
13.6015
7.7803e-06
0.000200842
0.00268143
0.0251234
0.162172
0.660208
1.69601
3.09756
4.53195
5.80038
6.86156
7.73626
8.4553
9.04814
9.54059
9.95356
10.3031
10.6016
10.8586
11.0816
11.2766
11.4482
11.6003
11.7358
11.8571
11.9662
12.0647
12.1542
12.2357
12.3102
12.3785
12.4415
12.4995
12.5533
12.6031
12.6493
12.6923
12.7324
12.7699
12.8048
12.8375
12.8682
12.8969
12.9237
12.949
12.9726
12.9947
13.0154
13.0347
13.0527
13.0694
13.0849
13.0989
13.1115
13.1226
13.1322
13.1403
13.1469
13.1519
13.1552
13.1568
13.1567
13.1548
13.1525
13.1491
13.1449
13.14
13.1342
13.1276
13.1203
13.1123
13.1035
13.0939
13.0835
13.0723
13.0604
13.0476
13.0339
13.0194
13.0039
12.9874
12.9699
12.9514
12.9319
12.9115
12.8903
12.8676
12.8394
8.15799e-07
1.70393e-05
0.000216142
0.00193557
0.0130165
0.0677822
0.26557
0.747312
1.56397
2.6121
3.71599
4.74238
5.63807
6.40334
7.0565
7.61604
8.09697
8.51181
8.87138
9.18499
9.46035
9.70367
9.91988
10.113
10.2861
10.4421
10.5832
10.7112
10.8279
10.9346
11.0325
11.1225
11.2055
11.2823
11.3535
11.4195
11.4809
11.5382
11.5915
11.6414
11.6881
11.7318
11.7727
11.8111
11.8471
11.8809
11.9127
11.9424
11.9702
11.9963
12.0206
12.0432
12.0643
12.0834
12.1006
12.116
12.1296
12.1412
12.1509
12.1587
12.1644
12.1681
12.1697
12.1695
12.1682
12.1658
12.1625
12.1583
12.1531
12.147
12.14
12.1322
12.1234
12.1138
12.1033
12.0919
12.0796
12.0665
12.0524
12.0374
12.0215
12.0048
11.9872
11.9689
11.9499
11.9304
11.9095
11.8823
4.75379e-07
1.04412e-06
1.40683e-05
0.000122084
0.000793252
0.0041456
0.0181058
0.0664663
0.201016
0.489288
0.971415
1.63102
2.40333
3.20759
3.97836
4.67902
5.29857
5.84146
6.31808
6.73906
7.11314
7.447
7.74586
8.01404
8.25529
8.47295
8.67
8.84902
9.01226
9.16164
9.29877
9.42501
9.54153
9.64931
9.74922
9.842
9.92831
10.0087
10.0837
10.1538
10.2194
10.2808
10.3383
10.3923
10.4429
10.4905
10.5352
10.5771
10.6165
10.6534
10.6879
10.7202
10.7503
10.7784
10.804
10.8272
10.848
10.8665
10.8827
10.8964
10.9076
10.9164
10.9227
10.9256
10.9269
10.927
10.926
10.9238
10.9205
10.9161
10.9107
10.9042
10.8967
10.8882
10.8788
10.8684
10.857
10.8448
10.8316
10.8176
10.8028
10.7872
10.7709
10.7541
10.7368
10.719
10.7
10.674
4.64348e-07
1.43713e-07
6.94651e-07
6.16614e-06
3.91227e-05
0.00019857
0.000853757
0.00319247
0.010552
0.0310534
0.0812051
0.186568
0.374454
0.662061
1.04923
1.51906
2.04368
2.59186
3.13572
3.65466
4.13635
4.57558
4.97221
5.32916
5.65074
5.94152
6.20573
6.44697
6.66819
6.87176
7.05958
7.23322
7.39401
7.54309
7.68148
7.81009
7.92976
8.04124
8.14522
8.24233
8.33313
8.41812
8.49778
8.57249
8.64263
8.70852
8.77043
8.82863
8.88331
8.93468
8.9829
9.02811
9.07043
9.11012
9.14696
9.18075
9.21155
9.23936
9.2642
9.28604
9.30486
9.32065
9.33346
9.3404
9.34551
9.34911
9.35127
9.35203
9.35144
9.34956
9.34642
9.34208
9.33659
9.32997
9.32228
9.31356
9.30384
9.29319
9.28165
9.26929
9.25616
9.24236
9.22797
9.21308
9.19778
9.18207
9.16523
9.14122
4.64147e-07
1.15592e-07
5.61505e-08
2.39468e-07
1.51511e-06
7.5683e-06
3.1826e-05
0.000116945
0.000383175
0.00113527
0.00307731
0.00769526
0.017862
0.0385718
0.0773086
0.143349
0.245841
0.391465
0.582836
0.818162
1.09193
1.39606
1.72121
2.05784
2.39718
2.73182
3.05597
3.36552
3.6579
3.93178
4.18685
4.4235
4.64256
4.8452
5.03268
5.20631
5.36738
5.51707
5.65648
5.7866
5.90828
6.02228
6.12928
6.22984
6.32446
6.41357
6.49755
6.57671
6.65135
6.7217
6.78798
6.85036
6.90901
6.96408
7.01601
7.06423
7.10865
7.14931
7.18625
7.21947
7.24896
7.27472
7.29679
7.30965
7.32026
7.32897
7.33589
7.34109
7.34465
7.34666
7.34717
7.34628
7.34405
7.34055
7.33586
7.33004
7.32316
7.31531
7.30655
7.29697
7.28664
7.27566
7.2641
7.25205
7.2396
7.22675
7.2129
7.19229
4.64221e-07
1.14994e-07
3.86124e-08
2.10645e-08
4.84136e-08
2.21342e-07
9.19011e-07
3.32909e-06
1.07592e-05
3.15313e-05
8.48454e-05
0.000211662
0.0004937
0.00108432
0.0022545
0.00445765
0.00841647
0.0152211
0.0264018
0.0439236
0.0700673
0.107199
0.157475
0.222565
0.303452
0.400349
0.512738
0.639472
0.778935
0.929199
1.08817
1.25372
1.42378
1.59639
1.76978
1.94239
2.11288
2.28013
2.44322
2.60145
2.75428
2.90133
3.04236
3.17724
3.30592
3.42844
3.54486
3.65531
3.75995
3.85893
3.95243
4.04064
4.12373
4.20187
4.27524
4.34461
4.40903
4.46853
4.52315
4.57296
4.61798
4.65824
4.69378
4.71518
4.73383
4.75006
4.76403
4.77585
4.78566
4.79357
4.79971
4.80419
4.80711
4.80858
4.80872
4.80761
4.80535
4.80205
4.7978
4.79268
4.78678
4.78019
4.77298
4.76523
4.75701
4.74834
4.73894
4.72465
4.64306e-07
1.15001e-07
3.82934e-08
1.61707e-08
8.77867e-09
8.75142e-09
2.16232e-08
7.16649e-08
2.27125e-07
6.58493e-07
1.75638e-06
4.35046e-06
1.00908e-05
2.2072e-05
4.57883e-05
9.05322e-05
0.000171391
0.000311962
0.000547773
0.000930325
0.00153179
0.00245049
0.003817
0.00580019
0.00861155
0.0125061
0.0177783
0.0247525
0.0337685
0.0451639
0.0592553
0.0763202
0.096582
0.120199
0.147256
0.177768
0.211677
0.248859
0.289136
0.332282
0.378035
0.426105
0.476184
0.527955
0.581098
0.635293
0.690229
0.745604
0.801125
0.856517
0.911513
0.965865
1.01934
1.0717
1.12276
1.1723
1.22071
1.2678
1.31339
1.3573
1.39935
1.43937
1.4772
1.50113
1.52339
1.5441
1.56329
1.58103
1.59736
1.61234
1.62604
1.63852
1.64984
1.66006
1.66925
1.67747
1.68479
1.69126
1.69696
1.70193
1.70624
1.70995
1.7131
1.71575
1.71794
1.71972
1.72111
1.72184
4.64394e-07
1.15018e-07
3.82948e-08
1.60993e-08
8.1016e-09
4.70992e-09
3.21576e-09
3.00613e-09
4.71804e-09
1.07123e-08
2.66166e-08
6.44127e-08
1.47866e-07
3.21409e-07
6.63814e-07
1.30823e-06
2.47063e-06
4.4884e-06
7.87037e-06
1.33579e-05
2.19974e-05
3.52264e-05
5.49725e-05
8.37658e-05
0.000124858
0.000182336
0.000261228
0.000367581
0.000508527
0.000692329
0.000928408
0.00122736
0.00160091
0.00206193
0.00262422
0.00330239
0.00411155
0.00506694
0.00618349
0.00747529
0.00895502
0.0106334
0.0125185
0.0146152
0.016925
0.019445
0.0221677
0.025081
0.0281674
0.0314041
0.0347632
0.038211
0.0417087
0.0452123
0.0486644
0.052014
0.0555204
0.0591654
0.0629288
0.0667891
0.0707229
0.074706
0.0787132
0.0813488
0.0839106
0.0863933
0.0887921
0.0911035
0.0933247
0.0954539
0.0974901
0.0994331
0.101283
0.103042
0.104711
0.106291
0.107786
0.109199
0.110531
0.111788
0.112971
0.114085
0.115132
0.116118
0.117044
0.117915
0.118733
0.11953
4.64477e-07
1.15034e-07
3.83002e-08
1.61006e-08
8.09494e-09
4.66082e-09
2.97441e-09
2.0575e-09
1.52854e-09
1.23725e-09
1.15301e-09
1.34612e-09
2.01888e-09
3.57871e-09
6.76132e-09
1.28161e-08
2.37711e-08
4.27922e-08
7.46516e-08
1.26306e-07
2.07596e-07
3.32045e-07
5.17798e-07
7.88641e-07
1.17511e-06
1.71563e-06
2.45754e-06
3.45807e-06
4.78505e-06
6.51744e-06
8.74557e-06
1.15712e-05
1.51072e-05
1.94766e-05
2.48117e-05
3.12515e-05
3.89387e-05
4.80154e-05
5.86171e-05
7.08647e-05
8.48553e-05
0.00010065
0.000118262
0.000137635
0.000158632
0.00018101
0.0002044
0.000228287
0.000251982
0.000274609
0.00029508
0.000312084
0.00032404
0.000329189
0.000332455
0.000336459
0.000341216
0.00034673
0.000353
0.000360019
0.00036777
0.000376229
0.000385365
0.000391696
0.000398116
0.000404593
0.0004111
0.000417607
0.000424088
0.000430522
0.000436884
0.000443158
0.000449324
0.00045537
0.000461282
0.000467049
0.000472663
0.000478118
0.000483408
0.00048853
0.000493482
0.000498263
0.000502874
0.000507317
0.000511593
0.000515705
0.000519658
0.00052364
4.64535e-07
1.15046e-07
3.83039e-08
1.61021e-08
8.09561e-09
4.66084e-09
2.97271e-09
2.04961e-09
1.50052e-09
1.1514e-09
9.17559e-10
7.54982e-10
6.40049e-10
5.6071e-10
5.12731e-10
4.98571e-10
5.27867e-10
6.19061e-10
8.02095e-10
1.12195e-09
1.64317e-09
2.45514e-09
3.67819e-09
5.47033e-09
8.03444e-09
1.16258e-08
1.65591e-08
2.3215e-08
3.20454e-08
4.35769e-08
5.84118e-08
7.72274e-08
1.00771e-07
1.2985e-07
1.6532e-07
2.08058e-07
2.58935e-07
3.18766e-07
3.88254e-07
4.67904e-07
5.57925e-07
6.58103e-07
7.67653e-07
8.85048e-07
1.00784e-06
1.13247e-06
1.25412e-06
1.36661e-06
1.46229e-06
1.53222e-06
1.56666e-06
1.5623e-06
1.5589e-06
1.55591e-06
1.55314e-06
1.55055e-06
1.5481e-06
1.54574e-06
1.54344e-06
1.54116e-06
1.53885e-06
1.5365e-06
1.53406e-06
1.53268e-06
1.53129e-06
1.52991e-06
1.52853e-06
1.52715e-06
1.52579e-06
1.52444e-06
1.52311e-06
1.52181e-06
1.52055e-06
1.51932e-06
1.51815e-06
1.51702e-06
1.51596e-06
1.51497e-06
1.51405e-06
1.5132e-06
1.51244e-06
1.51177e-06
1.5112e-06
1.51071e-06
1.51032e-06
1.51003e-06
1.50984e-06
1.51032e-06
4.64562e-07
1.15051e-07
3.83057e-08
1.61029e-08
8.09596e-09
4.66104e-09
2.97282e-09
2.04964e-09
1.50041e-09
1.15091e-09
9.16113e-10
7.51222e-10
6.3112e-10
5.40943e-10
4.71495e-10
4.16873e-10
3.73173e-10
3.37759e-10
3.08837e-10
2.852e-10
2.66074e-10
2.51027e-10
2.39924e-10
2.32891e-10
2.30318e-10
2.32853e-10
2.41412e-10
2.57194e-10
2.81681e-10
3.16654e-10
3.64177e-10
4.26587e-10
5.06456e-10
6.06534e-10
7.29655e-10
8.786e-10
1.05589e-09
1.26353e-09
1.50259e-09
1.77279e-09
2.07182e-09
2.39468e-09
2.7328e-09
3.07327e-09
3.39805e-09
3.68353e-09
3.90054e-09
4.01531e-09
4.0596e-09
4.10924e-09
4.16266e-09
4.21906e-09
4.28145e-09
4.35444e-09
4.44523e-09
4.56503e-09
4.73133e-09
4.97126e-09
5.32664e-09
5.86145e-09
6.6726e-09
7.90531e-09
9.77427e-09
1.13598e-08
1.33482e-08
1.58177e-08
1.88536e-08
2.25475e-08
2.69963e-08
3.23e-08
3.85599e-08
4.58759e-08
5.43443e-08
6.4055e-08
7.50899e-08
8.75196e-08
1.01403e-07
1.16783e-07
1.3369e-07
1.52136e-07
1.72117e-07
1.93615e-07
2.16594e-07
2.41002e-07
2.66778e-07
2.93843e-07
3.2211e-07
3.51533e-07
4.64562e-07
1.15051e-07
3.83057e-08
1.61029e-08
8.09595e-09
4.66103e-09
2.97282e-09
2.04964e-09
1.50041e-09
1.15091e-09
9.1611e-10
7.51216e-10
6.31107e-10
5.40913e-10
4.71434e-10
4.16754e-10
3.72952e-10
3.37363e-10
3.08152e-10
2.84055e-10
2.64218e-10
2.48103e-10
2.35432e-10
2.26155e-10
2.20436e-10
2.18647e-10
2.21382e-10
2.29453e-10
2.43914e-10
2.66067e-10
2.97483e-10
3.40011e-10
3.95814e-10
4.67385e-10
5.57618e-10
6.69862e-10
8.0806e-10
9.76912e-10
1.18216e-09
1.43094e-09
1.7324e-09
2.09847e-09
2.54497e-09
3.09328e-09
3.7725e-09
4.62267e-09
5.69925e-09
7.07939e-09
8.87101e-09
1.12256e-08
1.43567e-08
1.85655e-08
2.42784e-08
3.20986e-08
4.28788e-08
5.78223e-08
7.86196e-08
1.07634e-07
1.48145e-07
2.04665e-07
2.83345e-07
3.92475e-07
5.43088e-07
6.63769e-07
8.06879e-07
9.75199e-07
1.17148e-06
1.3984e-06
1.65854e-06
1.95429e-06
2.28781e-06
2.66093e-06
3.07513e-06
3.53149e-06
4.03067e-06
4.57288e-06
5.15787e-06
5.78497e-06
6.45306e-06
7.16061e-06
7.90576e-06
8.68626e-06
9.49962e-06
1.03431e-05
1.12137e-05
1.21083e-05
1.30238e-05
1.39579e-05
4.64534e-07
1.15046e-07
3.83039e-08
1.61021e-08
8.0956e-09
4.66084e-09
2.9727e-09
2.04958e-09
1.50044e-09
1.15115e-09
9.16876e-10
7.53276e-10
6.36104e-10
5.52173e-10
4.95296e-10
4.64732e-10
4.65039e-10
5.07e-10
6.09254e-10
8.00863e-10
1.12435e-09
1.63971e-09
2.42875e-09
3.60026e-09
5.29572e-09
7.69496e-09
1.1023e-08
1.55547e-08
2.16224e-08
2.96182e-08
4.00014e-08
5.32994e-08
7.01152e-08
9.11292e-08
1.17109e-07
1.48918e-07
1.87532e-07
2.34058e-07
2.89777e-07
3.56183e-07
4.35065e-07
5.28594e-07
6.39471e-07
7.71106e-07
9.27867e-07
1.11541e-06
1.34112e-06
1.61466e-06
1.94874e-06
2.36007e-06
2.87058e-06
3.50903e-06
4.313e-06
5.33143e-06
6.62769e-06
8.28342e-06
1.04029e-05
1.31186e-05
1.65964e-05
2.1043e-05
2.67119e-05
3.39112e-05
4.30101e-05
4.99194e-05
5.76962e-05
6.63922e-05
7.60477e-05
8.66939e-05
9.83532e-05
0.000111038
0.000124751
0.000139482
0.000155213
0.000171915
0.000189547
0.000208063
0.000227407
0.000247518
0.000268328
0.000289765
0.000311754
0.000334219
0.000357082
0.000380265
0.000403692
0.000427287
0.000450977
0.000474713
4.64476e-07
1.15034e-07
3.83001e-08
1.61006e-08
8.09491e-09
4.66062e-09
2.97341e-09
2.05349e-09
1.51491e-09
1.19669e-09
1.04458e-09
1.08012e-09
1.41189e-09
2.27868e-09
4.12606e-09
7.72917e-09
1.43649e-08
2.60636e-08
4.59251e-08
7.85489e-08
1.30524e-07
2.11047e-07
3.32592e-07
5.11706e-07
7.6989e-07
1.13447e-06
1.63965e-06
2.32718e-06
3.24745e-06
4.45976e-06
6.03332e-06
8.0472e-06
1.05914e-05
1.37666e-05
1.76856e-05
2.24732e-05
2.82682e-05
3.5224e-05
4.35115e-05
5.33217e-05
6.48709e-05
7.84058e-05
9.42135e-05
0.000112631
0.000134061
0.000158989
0.000188004
0.000221827
0.000261336
0.000307605
0.000361936
0.000425903
0.000501395
0.000590653
0.000696319
0.000821474
0.000969667
0.00114494
0.00135185
0.00159542
0.00188113
0.00221486
0.00260264
0.00288244
0.00318205
0.00350125
0.00383937
0.0041956
0.004569
0.0049585
0.00536292
0.00578092
0.00621111
0.00665202
0.00710214
0.00755992
0.00802383
0.00849236
0.00896401
0.00943737
0.00991103
0.0103837
0.0108542
0.0113213
0.011784
0.0122414
0.0126925
0.0131372
4.64396e-07
1.15019e-07
3.8295e-08
1.60989e-08
8.09734e-09
4.68317e-09
3.0896e-09
2.52547e-09
3.14313e-09
6.15105e-09
1.46514e-08
3.54361e-08
8.22578e-08
1.81352e-07
3.80073e-07
7.60078e-07
1.45567e-06
2.68046e-06
4.76115e-06
8.18273e-06
1.36398e-05
2.21005e-05
3.48774e-05
5.37128e-05
8.08734e-05
0.000119245
0.000172435
0.00024484
0.00034174
0.000469312
0.000634716
0.000846082
0.00111259
0.00144443
0.00185286
0.00235017
0.0029496
0.00366529
0.00451217
0.00550575
0.00666211
0.00799761
0.00952893
0.0112729
0.0132465
0.0154669
0.0179517
0.0207185
0.0237859
0.0271727
0.030899