/*--------------------------------*- C++ -*----------------------------------*\
| =========                 |                                                 |
| \\      /  F ield         | OpenFOAM: The Open Source CFD Toolbox           |
|  \\    /   O peration     | Version:  5.x                                   |
|   \\  /    A nd           | Web:      www.OpenFOAM.org                      |
|    \\/     M anipulation  |                                                 |
\*---------------------------------------------------------------------------*/
FoamFile
{
    version     2.0;
    format      ascii;
    class       volScalarField;
    location    "500";
    object      nut;
}
// * * * * * * * * * * * * * * * * * * * * * * * * * * * * * * * * * * * * * //

dimensions      [0 2 -1 0 0 0 0];

internalField   nonuniform List<scalar> 
20540
(
2.10937e-10
3.19306e-11
2.10937e-10
6.41896e-11
2.10937e-10
1.51953e-10
2.10937e-10
3.20506e-10
2.10937e-10
5.98099e-10
2.10937e-10
1.00807e-09
2.10937e-10
1.5575e-09
2.10937e-10
2.2204e-09
2.10937e-10
2.91643e-09
2.10937e-10
3.49078e-09
2.10937e-10
3.71132e-09
2.10937e-10
3.32429e-09
2.10937e-10
2.25746e-09
2.10937e-10
9.73919e-10
2.10937e-10
2.46151e-10
2.10937e-10
6.78772e-11
2.10937e-10
4.1472e-11
2.10937e-10
3.77891e-11
2.10937e-10
3.72332e-11
2.10937e-10
3.71414e-11
2.10937e-10
3.71269e-11
2.10937e-10
3.71259e-11
2.10937e-10
3.71274e-11
2.10937e-10
3.71298e-11
2.10937e-10
3.71328e-11
2.10937e-10
3.71363e-11
2.10937e-10
3.71404e-11
2.10937e-10
3.71448e-11
2.10937e-10
3.71493e-11
2.10937e-10
3.71536e-11
2.10937e-10
3.71566e-11
2.10937e-10
3.7158e-11
2.10937e-10
3.7158e-11
2.10937e-10
3.71566e-11
2.10937e-10
3.71536e-11
2.10937e-10
3.71495e-11
2.10937e-10
3.71451e-11
2.10937e-10
3.71408e-11
2.10937e-10
3.71368e-11
2.10937e-10
3.71333e-11
2.10937e-10
3.71303e-11
2.10937e-10
3.71279e-11
2.10937e-10
3.71261e-11
2.10937e-10
3.71259e-11
2.10937e-10
3.71326e-11
2.10937e-10
3.71771e-11
2.10937e-10
3.74328e-11
2.10937e-10
3.89796e-11
2.10937e-10
4.92776e-11
2.10937e-10
1.19487e-10
2.10937e-10
4.97769e-10
2.10937e-10
1.51854e-09
2.10937e-10
2.77992e-09
2.10937e-10
3.58122e-09
2.10937e-10
3.72363e-09
2.10937e-10
3.36831e-09
2.10937e-10
2.75294e-09
2.10937e-10
2.07071e-09
2.10937e-10
1.44399e-09
2.10937e-10
9.33115e-10
2.10937e-10
5.54553e-10
2.10937e-10
2.98544e-10
2.10937e-10
1.42716e-10
2.10937e-10
6.11693e-11
2.10937e-10
3.09353e-11
1.75437e-06
1.71992e-06
1.60031e-06
1.513e-06
1.44937e-06
1.40148e-06
1.36414e-06
1.33414e-06
1.3095e-06
1.2889e-06
1.27147e-06
1.25655e-06
1.24365e-06
1.23241e-06
1.22255e-06
1.21385e-06
1.20613e-06
1.19926e-06
1.1931e-06
1.18756e-06
1.18256e-06
1.17804e-06
1.17394e-06
1.17021e-06
1.16681e-06
1.1637e-06
1.16085e-06
1.15824e-06
1.15583e-06
1.15361e-06
1.15156e-06
1.14967e-06
1.14792e-06
1.14629e-06
1.1448e-06
1.14341e-06
1.14212e-06
1.14094e-06
1.13984e-06
1.13883e-06
1.1379e-06
1.13706e-06
1.1363e-06
1.13562e-06
1.13502e-06
1.13451e-06
1.1341e-06
1.13378e-06
1.13358e-06
1.1335e-06
1.13355e-06
1.13375e-06
1.13411e-06
1.13465e-06
1.13538e-06
1.13633e-06
1.13751e-06
1.13896e-06
1.14068e-06
1.14273e-06
1.14512e-06
1.14789e-06
1.15125e-06
1.15386e-06
1.15654e-06
1.15924e-06
1.1621e-06
1.16512e-06
1.1683e-06
1.17164e-06
1.17514e-06
1.1788e-06
1.18263e-06
1.18662e-06
1.19079e-06
1.19513e-06
1.19966e-06
1.2044e-06
1.20935e-06
1.21454e-06
1.22e-06
1.22578e-06
1.23194e-06
1.23861e-06
1.24591e-06
1.25472e-06
1.26675e-06
1.31737e-06
3.45366e-05
3.84425e-05
3.80432e-05
3.73612e-05
3.67643e-05
3.62753e-05
3.58753e-05
3.55437e-05
3.52651e-05
3.50282e-05
3.48247e-05
3.46485e-05
3.44948e-05
3.43597e-05
3.42403e-05
3.41344e-05
3.404e-05
3.39554e-05
3.38794e-05
3.38108e-05
3.37487e-05
3.36924e-05
3.36412e-05
3.35946e-05
3.35519e-05
3.35129e-05
3.34771e-05
3.34442e-05
3.34138e-05
3.33858e-05
3.336e-05
3.3336e-05
3.33139e-05
3.32934e-05
3.32744e-05
3.32568e-05
3.32404e-05
3.32253e-05
3.32113e-05
3.31984e-05
3.31864e-05
3.31755e-05
3.31654e-05
3.31563e-05
3.31482e-05
3.3141e-05
3.31348e-05
3.31296e-05
3.31256e-05
3.31226e-05
3.3121e-05
3.31208e-05
3.31221e-05
3.31251e-05
3.31299e-05
3.31366e-05
3.31455e-05
3.31567e-05
3.31703e-05
3.31868e-05
3.32059e-05
3.32293e-05
3.32541e-05
3.32704e-05
3.32914e-05
3.3315e-05
3.33386e-05
3.33628e-05
3.33877e-05
3.34136e-05
3.34404e-05
3.34681e-05
3.34967e-05
3.35261e-05
3.35563e-05
3.35873e-05
3.36191e-05
3.36515e-05
3.36847e-05
3.37185e-05
3.3753e-05
3.37881e-05
3.38237e-05
3.38608e-05
3.38949e-05
3.39428e-05
3.39517e-05
3.40968e-05
6.18506e-05
7.57063e-05
7.71307e-05
7.67441e-05
7.61033e-05
7.54858e-05
7.49439e-05
7.44781e-05
7.40778e-05
7.3732e-05
7.34317e-05
7.31694e-05
7.29391e-05
7.27358e-05
7.25554e-05
7.23949e-05
7.22514e-05
7.21227e-05
7.20068e-05
7.19021e-05
7.18072e-05
7.17212e-05
7.16429e-05
7.15715e-05
7.15063e-05
7.14466e-05
7.13918e-05
7.13415e-05
7.12951e-05
7.12523e-05
7.12127e-05
7.11762e-05
7.11423e-05
7.1111e-05
7.1082e-05
7.1055e-05
7.103e-05
7.10068e-05
7.09853e-05
7.09652e-05
7.09466e-05
7.09293e-05
7.09133e-05
7.08984e-05
7.08846e-05
7.08719e-05
7.08603e-05
7.08496e-05
7.084e-05
7.08312e-05
7.08234e-05
7.08166e-05
7.08109e-05
7.08063e-05
7.08029e-05
7.08007e-05
7.07997e-05
7.07999e-05
7.08014e-05
7.08044e-05
7.08076e-05
7.08157e-05
7.08139e-05
7.08024e-05
7.08037e-05
7.08139e-05
7.08217e-05
7.08275e-05
7.0832e-05
7.08357e-05
7.08386e-05
7.08408e-05
7.0842e-05
7.08422e-05
7.08412e-05
7.08387e-05
7.08345e-05
7.08283e-05
7.08196e-05
7.08079e-05
7.07925e-05
7.07727e-05
7.07466e-05
7.07151e-05
7.06628e-05
7.0628e-05
7.04798e-05
7.10147e-05
8.7902e-05
0.000115109
0.00011998
0.000120503
0.000120089
0.000119478
0.000118869
0.000118313
0.00011782
0.000117384
0.000116999
0.000116659
0.000116359
0.000116091
0.000115853
0.00011564
0.00011545
0.000115278
0.000115123
0.000114983
0.000114857
0.000114741
0.000114636
0.000114541
0.000114453
0.000114373
0.0001143
0.000114232
0.00011417
0.000114113
0.00011406
0.000114011
0.000113965
0.000113924
0.000113885
0.000113849
0.000113815
0.000113784
0.000113755
0.000113728
0.000113703
0.000113679
0.000113657
0.000113636
0.000113616
0.000113597
0.000113579
0.000113562
0.000113546
0.000113529
0.000113513
0.000113497
0.000113481
0.000113465
0.000113449
0.000113432
0.000113415
0.000113398
0.000113379
0.000113359
0.000113335
0.000113316
0.000113273
0.000113223
0.00011319
0.000113172
0.000113152
0.000113127
0.000113098
0.000113066
0.000113031
0.000112992
0.00011295
0.000112905
0.000112856
0.000112803
0.000112745
0.000112681
0.000112612
0.000112535
0.00011245
0.000112356
0.000112248
0.000112128
0.000111974
0.000111841
0.000111599
0.0001126
0.000112862
0.000157168
0.000167677
0.000170045
0.000170292
0.000169916
0.00016937
0.000168806
0.000168272
0.000167782
0.000167339
0.00016694
0.000166583
0.000166262
0.000165975
0.000165716
0.000165483
0.000165273
0.000165083
0.000164911
0.000164754
0.000164612
0.000164483
0.000164364
0.000164256
0.000164157
0.000164067
0.000163983
0.000163906
0.000163835
0.00016377
0.000163709
0.000163653
0.000163602
0.000163554
0.00016351
0.000163468
0.00016343
0.000163394
0.000163361
0.000163329
0.000163299
0.000163271
0.000163244
0.000163218
0.000163193
0.000163168
0.000163144
0.000163119
0.000163094
0.000163067
0.00016304
0.00016301
0.000162979
0.000162946
0.00016291
0.000162871
0.000162828
0.00016278
0.000162728
0.000162667
0.000162608
0.000162512
0.000162415
0.000162333
0.000162272
0.000162211
0.000162143
0.000162069
0.000161988
0.000161901
0.000161808
0.000161709
0.000161604
0.000161492
0.000161373
0.000161246
0.00016111
0.000160965
0.000160808
0.00016064
0.000160456
0.000160255
0.000160036
0.000159775
0.000159547
0.000159271
0.000160632
0.000136187
0.000201613
0.000220638
0.000226235
0.000227837
0.000228076
0.000227822
0.000227396
0.000226921
0.000226448
0.000225999
0.000225581
0.000225198
0.000224849
0.000224531
0.000224243
0.000223982
0.000223745
0.000223529
0.000223333
0.000223155
0.000222992
0.000222844
0.000222708
0.000222584
0.000222471
0.000222367
0.000222271
0.000222183
0.000222101
0.000222026
0.000221957
0.000221893
0.000221834
0.00022178
0.000221729
0.000221682
0.000221638
0.000221597
0.000221559
0.000221523
0.000221488
0.000221455
0.000221423
0.000221392
0.000221361
0.00022133
0.000221298
0.000221265
0.000221229
0.000221191
0.000221149
0.000221104
0.000221055
0.000221
0.000220939
0.000220872
0.000220797
0.000220712
0.000220619
0.00022051
0.000220399
0.000220237
0.000220086
0.000219942
0.000219823
0.000219707
0.000219584
0.000219451
0.000219309
0.000219158
0.000218998
0.000218829
0.000218651
0.000218463
0.000218265
0.000218056
0.000217835
0.000217602
0.000217355
0.000217092
0.000216812
0.000216511
0.000216192
0.000215831
0.000215525
0.000215254
0.000216791
0.000156936
0.000247621
0.000278802
0.00028961
0.000293625
0.000295087
0.000295501
0.000295462
0.000295221
0.000294892
0.000294532
0.000294169
0.000293819
0.000293488
0.00029318
0.000292895
0.000292633
0.000292393
0.000292172
0.00029197
0.000291786
0.000291617
0.000291462
0.000291321
0.000291192
0.000291073
0.000290964
0.000290864
0.000290772
0.000290687
0.000290609
0.000290536
0.00029047
0.000290409
0.000290352
0.0002903
0.000290252
0.000290207
0.000290164
0.000290125
0.000290087
0.00029005
0.000290015
0.00028998
0.000289946
0.000289911
0.000289874
0.000289836
0.000289795
0.00028975
0.000289699
0.000289643
0.00028958
0.000289509
0.00028943
0.00028934
0.000289239
0.000289126
0.000288997
0.000288853
0.000288686
0.000288511
0.000288273
0.000288063
0.000287848
0.000287655
0.000287471
0.00028728
0.000287077
0.000286862
0.000286636
0.000286398
0.000286148
0.000285887
0.000285613
0.000285326
0.000285026
0.000284713
0.000284385
0.000284042
0.000283682
0.000283304
0.000282907
0.000282496
0.000282051
0.000281697
0.000281452
0.000283003
0.000173834
0.000293785
0.000341554
0.0003603
0.00036829
0.000371912
0.000373591
0.000374344
0.000374624
0.000374652
0.000374543
0.000374363
0.000374148
0.00037392
0.00037369
0.000373467
0.000373255
0.000373055
0.000372867
0.000372693
0.000372531
0.000372382
0.000372245
0.000372119
0.000372004
0.000371898
0.000371801
0.000371711
0.000371628
0.000371552
0.000371482
0.000371418
0.000371359
0.000371305
0.000371256
0.00037121
0.000371168
0.000371129
0.000371093
0.000371058
0.000371024
0.000370992
0.00037096
0.000370927
0.000370893
0.000370858
0.00037082
0.000370779
0.000370732
0.000370679
0.000370618
0.000370547
0.000370466
0.000370373
0.000370267
0.000370146
0.000370008
0.000369851
0.000369673
0.000369471
0.000369238
0.000368991
0.000368669
0.000368398
0.000368106
0.000367829
0.000367564
0.000367294
0.000367012
0.000366716
0.000366407
0.000366083
0.000365746
0.000365395
0.00036503
0.00036465
0.000364257
0.000363849
0.000363427
0.00036299
0.000362538
0.000362072
0.000361592
0.000361108
0.000360607
0.000360244
0.00036004
0.000361527
0.000185307
0.000338012
0.000407553
0.000437858
0.000452051
0.000459229
0.000463091
0.000465268
0.000466528
0.000467255
0.000467663
0.000467875
0.000467965
0.000467979
0.000467945
0.000467883
0.000467805
0.000467719
0.000467629
0.000467538
0.00046745
0.000467366
0.000467287
0.000467214
0.000467146
0.000467083
0.000467025
0.000466971
0.000466921
0.000466876
0.000466834
0.000466797
0.000466763
0.000466733
0.000466706
0.000466681
0.000466659
0.000466638
0.000466619
0.000466601
0.000466582
0.000466563
0.000466543
0.000466521
0.000466497
0.000466468
0.000466436
0.000466397
0.000466351
0.000466295
0.000466228
0.000466147
0.000466051
0.000465938
0.000465806
0.000465654
0.000465479
0.000465277
0.000465046
0.000464785
0.000464482
0.000464156
0.000463747
0.000463418
0.000463051
0.000462685
0.000462333
0.000461977
0.000461611
0.000461231
0.000460835
0.000460425
0.000459999
0.00045956
0.000459105
0.000458637
0.000458155
0.000457661
0.000457154
0.000456636
0.000456108
0.000455574
0.000455036
0.000454509
0.000453993
0.000453667
0.000453523
0.000454978
0.000189558
0.000377418
0.000474512
0.000521
0.000544477
0.00055723
0.000564641
0.000569207
0.000572151
0.000574114
0.000575456
0.000576393
0.000577059
0.00057754
0.000577891
0.00057815
0.000578345
0.000578493
0.000578605
0.000578692
0.00057876
0.000578815
0.000578861
0.0005789
0.000578935
0.000578965
0.000578992
0.000579016
0.000579038
0.000579058
0.000579079
0.000579098
0.000579118
0.000579139
0.000579159
0.000579179
0.000579199
0.000579218
0.000579235
0.000579251
0.000579265
0.000579276
0.000579283
0.000579287
0.000579285
0.000579276
0.000579261
0.000579237
0.000579202
0.000579153
0.000579088
0.000579005
0.000578902
0.000578776
0.000578626
0.000578448
0.00057824
0.000577998
0.000577719
0.0005774
0.00057703
0.00057663
0.000576138
0.000575757
0.000575325
0.000574877
0.000574439
0.000574
0.000573551
0.000573089
0.000572613
0.000572123
0.000571618
0.000571099
0.000570568
0.000570025
0.000569471
0.000568908
0.000568338
0.000567764
0.000567189
0.000566618
0.000566059
0.000565535
0.000565054
0.000564813
0.000564769
0.000566306
0.000184718
0.000408242
0.000538946
0.000607277
0.000644147
0.000665313
0.000678257
0.000686639
0.000692331
0.000696344
0.000699261
0.000701439
0.000703103
0.000704401
0.000705433
0.000706267
0.000706953
0.000707525
0.000708008
0.000708419
0.000708775
0.000709087
0.000709363
0.000709612
0.000709836
0.000710039
0.000710224
0.000710393
0.000710549
0.000710693
0.000710827
0.000710954
0.000711073
0.000711187
0.000711294
0.000711396
0.000711493
0.000711585
0.00071167
0.00071175
0.000711824
0.000711891
0.00071195
0.000712002
0.000712044
0.000712077
0.000712098
0.000712107
0.000712102
0.000712077
0.000712031
0.000711962
0.000711867
0.000711743
0.000711588
0.000711398
0.00071117
0.0007109
0.000710585
0.000710222
0.000709799
0.000709337
0.00070878
0.000708361
0.000707884
0.000707372
0.000706863
0.000706352
0.000705834
0.000705305
0.000704764
0.000704211
0.000703647
0.000703071
0.000702487
0.000701895
0.000701298
0.000700699
0.000700101
0.000699508
0.000698927
0.000698366
0.000697837
0.000697368
0.000696982
0.000696879
0.000696992
0.000698759
0.00016915
0.00042584
0.000595913
0.000692687
0.000748228
0.000781668
0.000802944
0.000817208
0.000827209
0.000834484
0.000839937
0.000844135
0.000847439
0.000850092
0.000852258
0.000854056
0.000855571
0.000856862
0.000857972
0.000858938
0.000859786
0.000860538
0.000861211
0.000861818
0.000862369
0.000862869
0.000863326
0.000863745
0.000864131
0.000864487
0.000864819
0.000865128
0.000865419
0.000865692
0.000865949
0.000866192
0.00086642
0.000866636
0.000866838
0.000867027
0.000867203
0.000867367
0.000867517
0.000867653
0.000867775
0.000867882
0.000867972
0.000868045
0.000868097
0.000868125
0.000868126
0.000868097
0.000868036
0.000867939
0.000867804
0.000867626
0.000867403
0.000867131
0.000866805
0.000866424
0.000865974
0.00086548
0.000864888
0.000864454
0.000863962
0.00086342
0.00086287
0.000862317
0.000861757
0.000861189
0.000860613
0.000860029
0.000859437
0.000858841
0.000858241
0.000857641
0.000857044
0.000856454
0.000855876
0.000855316
0.000854783
0.000854289
0.00085385
0.0008535
0.000853272
0.000853363
0.000853701
0.000855825
0.000142047
0.000424853
0.000638795
0.000771243
0.000851939
0.000902725
0.000936169
0.000959222
0.000975775
0.000988075
0.00099748
0.00100485
0.00101075
0.00101556
0.00101955
0.0010229
0.00102575
0.0010282
0.00103034
0.00103221
0.00103386
0.00103533
0.00103665
0.00103785
0.00103893
0.00103992
0.00104083
0.00104165
0.00104242
0.00104312
0.00104378
0.00104439
0.00104496
0.00104549
0.001046
0.00104647
0.00104691
0.00104733
0.00104772
0.00104809
0.00104844
0.00104876
0.00104906
0.00104934
0.00104959
0.00104982
0.00105003
0.00105021
0.00105037
0.00105049
0.00105058
0.00105064
0.00105065
0.00105062
0.00105055
0.00105042
0.00105024
0.00105001
0.00104972
0.00104936
0.00104893
0.00104845
0.00104788
0.00104746
0.001047
0.00104647
0.00104593
0.00104538
0.00104482
0.00104426
0.00104369
0.00104313
0.00104256
0.00104199
0.00104143
0.00104087
0.00104033
0.00103981
0.00103931
0.00103885
0.00103843
0.00103807
0.00103779
0.00103762
0.00103762
0.00103795
0.00103858
0.00104114
0.000104576
0.000399731
0.0006592
0.000834548
0.000947949
0.00102248
0.00107317
0.00110899
0.00113524
0.00115507
0.00117046
0.00118268
0.00119258
0.00120072
0.00120754
0.00121331
0.00121826
0.00122255
0.00122629
0.00122958
0.00123251
0.00123512
0.00123747
0.0012396
0.00124153
0.0012433
0.00124491
0.00124639
0.00124776
0.00124902
0.00125019
0.00125127
0.00125229
0.00125324
0.00125413
0.00125497
0.00125576
0.0012565
0.00125719
0.00125784
0.00125846
0.00125903
0.00125957
0.00126007
0.00126054
0.00126098
0.00126137
0.00126174
0.00126207
0.00126235
0.0012626
0.0012628
0.00126295
0.00126305
0.00126309
0.00126308
0.00126301
0.00126288
0.00126268
0.00126242
0.00126207
0.00126168
0.00126119
0.00126085
0.00126046
0.00126002
0.00125955
0.00125906
0.00125857
0.00125808
0.00125759
0.0012571
0.00125661
0.00125614
0.00125568
0.00125524
0.00125482
0.00125444
0.00125409
0.00125379
0.00125356
0.0012534
0.00125335
0.00125344
0.00125372
0.00125434
0.00125532
0.00125834
6.21986e-05
0.000345972
0.000647186
0.000871468
0.00102575
0.00113169
0.0012061
0.00125997
0.00130017
0.00133102
0.00135525
0.0013747
0.0013906
0.00140379
0.00141489
0.00142436
0.00143252
0.00143961
0.00144583
0.00145132
0.00145621
0.00146058
0.00146453
0.0014681
0.00147134
0.00147431
0.00147702
0.00147951
0.00148181
0.00148393
0.0014859
0.00148773
0.00148944
0.00149104
0.00149253
0.00149394
0.00149526
0.00149649
0.00149766
0.00149875
0.00149978
0.00150075
0.00150166
0.00150252
0.00150332
0.00150407
0.00150477
0.00150542
0.00150602
0.00150656
0.00150706
0.0015075
0.00150788
0.00150819
0.00150845
0.00150864
0.00150877
0.00150883
0.00150881
0.00150873
0.00150857
0.00150836
0.00150806
0.00150785
0.00150761
0.00150731
0.00150699
0.00150666
0.00150631
0.00150597
0.00150562
0.00150529
0.00150497
0.00150467
0.00150439
0.00150413
0.00150392
0.00150374
0.00150362
0.00150356
0.00150358
0.0015037
0.00150394
0.00150434
0.00150495
0.0015059
0.00150724
0.00151072
2.72656e-05
0.000262784
0.000592222
0.000868086
0.0010711
0.00121705
0.00132303
0.00140166
0.00146144
0.00150798
0.00154499
0.00157497
0.00159968
0.00162033
0.00163781
0.00165278
0.00166574
0.00167705
0.00168699
0.0016958
0.00170365
0.0017107
0.00171705
0.00172282
0.00172806
0.00173285
0.00173724
0.00174127
0.00174499
0.00174842
0.00175161
0.00175457
0.00175734
0.00175992
0.00176233
0.0017646
0.00176673
0.00176873
0.00177061
0.00177238
0.00177404
0.00177561
0.00177709
0.00177848
0.00177979
0.00178102
0.00178218
0.00178327
0.00178429
0.00178524
0.00178612
0.00178693
0.00178767
0.00178833
0.00178892
0.00178944
0.00178989
0.00179025
0.00179055
0.00179077
0.00179091
0.00179102
0.00179103
0.00179103
0.00179102
0.00179096
0.00179088
0.00179078
0.00179067
0.00179056
0.00179046
0.00179037
0.00179029
0.00179024
0.00179022
0.00179024
0.0017903
0.00179041
0.00179059
0.00179084
0.00179117
0.00179162
0.0017922
0.00179295
0.00179392
0.00179521
0.00179691
0.00180078
8.98993e-06
0.000158474
0.00048585
0.000808399
0.00106578
0.00126042
0.00140688
0.00151841
0.00160488
0.00167322
0.00172821
0.0017732
0.00181056
0.001842
0.00186876
0.00189179
0.0019118
0.00192931
0.00194476
0.00195848
0.00197074
0.00198175
0.0019917
0.00200073
0.00200896
0.00201647
0.00202337
0.0020297
0.00203555
0.00204095
0.00204596
0.00205063
0.00205497
0.00205903
0.00206283
0.00206639
0.00206973
0.00207287
0.00207583
0.00207861
0.00208123
0.00208369
0.00208602
0.00208822
0.0020903
0.00209226
0.00209411
0.00209586
0.00209751
0.00209907
0.00210053
0.0021019
0.00210318
0.00210437
0.00210547
0.00210648
0.0021074
0.00210825
0.00210901
0.0021097
0.0021103
0.00211087
0.00211135
0.00211167
0.00211197
0.00211224
0.00211249
0.00211272
0.00211294
0.00211317
0.00211339
0.00211363
0.00211389
0.00211418
0.00211449
0.00211485
0.00211525
0.00211572
0.00211624
0.00211685
0.00211756
0.00211837
0.00211932
0.00212043
0.00212176
0.00212337
0.00212538
0.00212954
2.44728e-06
6.29753e-05
0.000328814
0.000676976
0.000988177
0.00123844
0.00143447
0.00158811
0.00170981
0.00180755
0.00188722
0.00195306
0.0020082
0.00205491
0.0020949
0.00212948
0.00215963
0.00218613
0.00220957
0.00223043
0.00224911
0.00226593
0.00228114
0.00229496
0.00230756
0.00231909
0.00232967
0.0023394
0.00234838
0.00235669
0.00236441
0.00237158
0.00237826
0.00238451
0.00239035
0.00239583
0.00240097
0.0024058
0.00241034
0.00241462
0.00241865
0.00242245
0.00242604
0.00242943
0.00243264
0.00243568
0.00243855
0.00244128
0.00244387
0.00244632
0.00244863
0.00245083
0.0024529
0.00245486
0.0024567
0.00245843
0.00246006
0.00246159
0.00246303
0.00246438
0.00246564
0.00246687
0.002468
0.00246875
0.00246948
0.00247017
0.00247084
0.0024715
0.00247214
0.00247278
0.00247343
0.00247408
0.00247474
0.00247543
0.00247615
0.0024769
0.0024777
0.00247855
0.00247947
0.00248046
0.00248155
0.00248273
0.00248404
0.0024855
0.00248714
0.00248902
0.00249126
0.00249556
5.73234e-07
1.5489e-05
0.000151
0.000467393
0.000816338
0.00112323
0.00137613
0.00158113
0.00174751
0.00188363
0.00199614
0.0020902
0.00216968
0.00223751
0.00229594
0.00234673
0.00239121
0.00243044
0.00246526
0.00249633
0.00252421
0.00254937
0.00257216
0.0025929
0.00261183
0.00262916
0.00264508
0.00265975
0.00267329
0.00268583
0.00269747
0.0027083
0.00271839
0.00272783
0.00273666
0.00274493
0.00275269
0.00275999
0.00276685
0.00277332
0.00277941
0.00278516
0.00279059
0.00279573
0.00280059
0.0028052
0.00280957
0.00281372
0.00281767
0.00282143
0.00282498
0.00282836
0.00283158
0.00283464
0.00283754
0.0028403
0.00284292
0.00284542
0.00284779
0.00285006
0.00285222
0.00285432
0.00285631
0.00285763
0.0028589
0.00286013
0.00286133
0.0028625
0.00286365
0.00286478
0.00286591
0.00286703
0.00286815
0.00286929
0.00287045
0.00287163
0.00287284
0.00287409
0.0028754
0.00287677
0.00287821
0.00287973
0.00288135
0.00288308
0.00288496
0.00288701
0.00288937
0.00289356
1.12825e-07
2.79216e-06
3.74596e-05
0.000213195
0.000539432
0.000886665
0.00119688
0.00146002
0.00168017
0.00186427
0.00201897
0.00214999
0.00226187
0.00235815
0.00244167
0.00251468
0.00257895
0.00263587
0.00268656
0.00273194
0.00277277
0.00280969
0.0028432
0.00287375
0.00290167
0.00292728
0.00295083
0.00297254
0.00299261
0.0030112
0.00302848
0.00304456
0.00305956
0.00307358
0.0030867
0.003099
0.00311055
0.0031214
0.00313161
0.00314123
0.0031503
0.00315886
0.00316695
0.00317461
0.00318186
0.00318873
0.00319525
0.00320145
0.00320735
0.00321297
0.00321831
0.00322339
0.00322823
0.00323284
0.00323724
0.00324143
0.00324543
0.00324925
0.0032529
0.00325639
0.00325975
0.00326299
0.0032661
0.00326814
0.00327009
0.00327198
0.0032738
0.00327557
0.0032773
0.00327899
0.00328064
0.00328228
0.00328389
0.00328549
0.00328709
0.00328869
0.0032903
0.00329192
0.00329357
0.00329525
0.00329698
0.00329875
0.00330058
0.00330248
0.00330446
0.00330655
0.00330886
0.00331263
1.52905e-08
4.13943e-07
5.61202e-06
4.78519e-05
0.000213222
0.00051945
0.000863901
0.00118223
0.00146131
0.00170168
0.0019079
0.00208543
0.00223893
0.00237233
0.00248899
0.00259168
0.00268261
0.00276354
0.00283589
0.00290089
0.00295956
0.00301274
0.00306115
0.00310536
0.00314585
0.00318304
0.00321728
0.0032489
0.00327815
0.00330528
0.00333051
0.00335401
0.00337595
0.00339647
0.00341568
0.0034337
0.00345063
0.00346654
0.00348151
0.00349562
0.00350893
0.0035215
0.00353338
0.00354461
0.00355526
0.00356536
0.00357494
0.00358404
0.00359271
0.00360097
0.00360883
0.0036163
0.00362342
0.00363021
0.00363669
0.00364286
0.00364874
0.00365436
0.00365972
0.00366486
0.00366977
0.0036745
0.00367901
0.00368195
0.00368474
0.00368741
0.00368997
0.00369244
0.00369482
0.00369711
0.00369933
0.00370149
0.00370359
0.00370565
0.00370765
0.00370962
0.00371156
0.00371348
0.00371538
0.00371727
0.00371916
0.00372104
0.00372293
0.00372483
0.00372674
0.00372869
0.00373075
0.00373369
6.92078e-10
4.93428e-08
6.44285e-07
5.84697e-06
3.72741e-05
0.000152002
0.000393186
0.000715655
0.00104258
0.00133977
0.00160341
0.00183599
0.00204038
0.00222012
0.00237895
0.00252005
0.00264589
0.0027585
0.00285964
0.00295087
0.00303353
0.00310873
0.00317739
0.00324026
0.00329796
0.00335105
0.00340002
0.00344528
0.00348722
0.00352618
0.00356244
0.00359626
0.00362786
0.00365744
0.00368516
0.00371118
0.00373562
0.00375862
0.00378027
0.00380068
0.00381994
0.00383813
0.00385533
0.0038716
0.00388701
0.00390163
0.00391551
0.00392869
0.00394123
0.00395317
0.00396455
0.00397537
0.00398567
0.00399547
0.0040048
0.00401369
0.00402214
0.00403019
0.00403785
0.00404515
0.00405209
0.00405872
0.00406501
0.00406907
0.00407288
0.0040765
0.00407994
0.0040832
0.0040863
0.00408926
0.00409207
0.00409476
0.00409733
0.00409979
0.00410215
0.00410441
0.00410658
0.00410867
0.00411069
0.00411263
0.0041145
0.00411631
0.00411807
0.00411976
0.00412141
0.00412301
0.00412458
0.00412624
2.3202e-11
4.01147e-09
6.0139e-08
5.28147e-07
3.5098e-06
1.82548e-05
7.20602e-05
0.00020546
0.000436149
0.000732836
0.00104259
0.00133188
0.00159183
0.00182479
0.00203444
0.00222325
0.0023931
0.00254596
0.00268398
0.00280918
0.00292325
0.00302755
0.00312315
0.00321094
0.00329169
0.00336613
0.00343489
0.00349856
0.00355766
0.00361265
0.00366393
0.00371183
0.00375665
0.00379866
0.00383808
0.0038751
0.00390991
0.00394268
0.00397354
0.00400265
0.00403013
0.00405608
0.00408062
0.00410385
0.00412586
0.00414672
0.00416653
0.00418534
0.00420323
0.00422025
0.00423646
0.0042519
0.00426658
0.00428053
0.00429378
0.00430636
0.00431829
0.00432961
0.00434034
0.0043505
0.00436011
0.00436919
0.00437773
0.0043832
0.00438828
0.00439305
0.00439752
0.00440171
0.00440564
0.00440932
0.00441276
0.00441598
0.00441899
0.00442181
0.00442443
0.00442688
0.00442916
0.00443128
0.00443324
0.00443505
0.00443672
0.00443824
0.00443964
0.00444091
0.00444207
0.0044431
0.00444392
0.00444383
1.03641e-11
1.03955e-10
4.13326e-09
3.83305e-08
2.4788e-07
1.29407e-06
5.68263e-06
2.10698e-05
6.46075e-05
0.000159764
0.000322806
0.000550433
0.000818839
0.00109744
0.00136378
0.00160779
0.00182833
0.00202815
0.00221053
0.00237798
0.00253211
0.00267399
0.00280453
0.00292464
0.00303529
0.00313744
0.00323201
0.00331982
0.00340157
0.00347787
0.00354921
0.00361602
0.00367866
0.00373745
0.00379267
0.00384459
0.00389343
0.00393941
0.00398275
0.00402363
0.00406222
0.00409868
0.00413318
0.00416583
0.00419677
0.00422612
0.00425397
0.00428042
0.00430557
0.0043295
0.00435227
0.00437396
0.00439461
0.00441422
0.0044328
0.0044504
0.00446705
0.00448277
0.00449761
0.00451157
0.00452469
0.00453698
0.00454841
0.00455567
0.00456235
0.00456855
0.00457429
0.00457959
0.00458449
0.00458899
0.00459312
0.0045969
0.00460034
0.00460347
0.00460629
0.00460882
0.00461108
0.00461307
0.0046148
0.0046163
0.00461756
0.0046186
0.00461943
0.00462006
0.0046205
0.00462076
0.0046206
0.0046184
1.00202e-11
5.22642e-12
1.29183e-10
2.08132e-09
1.39167e-08
7.0992e-08
3.06842e-07
1.1573e-06
3.87006e-06
1.1542e-05
3.06421e-05
7.15399e-05
0.000145937
0.000262334
0.000422582
0.000620691
0.000844328
0.00107874
0.00131097
0.00153215
0.00173777
0.00192663
0.00209956
0.00225828
0.00240473
0.00254063
0.00266736
0.00278594
0.00289714
0.00300152
0.00309953
0.00319155
0.00327794
0.00335905
0.00343524
0.00350683
0.00357415
0.00363751
0.00369723
0.00375355
0.00380676
0.00385706
0.00390468
0.0039498
0.00399259
0.00403321
0.0040718
0.00410848
0.00414336
0.00417655
0.00420815
0.00423823
0.00426688
0.00429416
0.00432001
0.00434444
0.00436747
0.00438914
0.0044095
0.00442856
0.00444635
0.00446288
0.00447812
0.00448771
0.00449646
0.00450449
0.00451184
0.00451853
0.00452462
0.00453012
0.00453506
0.00453948
0.00454339
0.00454683
0.00454981
0.00455237
0.00455451
0.00455626
0.00455764
0.00455867
0.00455936
0.00455974
0.00455983
0.00455965
0.00455922
0.00455853
0.00455726
0.00455281
1.00134e-11
3.77814e-12
3.23181e-12
5.38663e-11
5.6545e-10
3.03426e-09
1.29429e-08
4.79936e-08
1.58912e-07
4.76467e-07
1.30887e-06
3.31978e-06
7.81745e-06
1.713e-05
3.485e-05
6.5591e-05
0.000114131
0.000184313
0.000278211
0.000395783
0.000534914
0.000691742
0.000861243
0.00103796
0.0012167
0.00139309
0.00156381
0.00172664
0.00188034
0.00202441
0.00215891
0.00228426
0.00240108
0.00251007
0.00261196
0.00270746
0.00279718
0.00288171
0.00296152
0.00303703
0.0031086
0.00317654
0.00324111
0.00330251
0.00336096
0.00341661
0.00346961
0.00352009
0.00356819
0.00361399
0.00365762
0.00369916
0.0037387
0.00377632
0.00381216
0.00384599
0.00387779
0.00390762
0.00393551
0.00396149
0.00398558
0.00400781
0.00402813
0.0040408
0.00405228
0.00406272
0.00407217
0.00408068
0.0040883
0.00409508
0.00410107
0.0041063
0.00411081
0.00411465
0.00411784
0.00412044
0.00412246
0.00412395
0.00412493
0.00412544
0.00412552
0.00412518
0.00412447
0.00412342
0.00412206
0.00412037
0.00411803
0.00411171
1.00149e-11
3.75005e-12
1.83721e-12
1.59618e-12
9.96877e-12
8.5157e-11
4.07305e-10
1.5237e-09
4.99469e-09
1.48105e-08
4.03399e-08
1.01931e-07
2.40876e-07
5.36088e-07
1.1297e-06
2.26389e-06
4.3311e-06
7.93356e-06
1.39341e-05
2.34685e-05
3.78928e-05
5.86615e-05
8.71601e-05
0.000124537
0.000171576
0.000228635
0.000295642
0.000372134
0.000457317
0.000550142
0.000649383
0.000753704
0.000861737
0.000972138
0.00108364
0.00119511
0.00130554
0.00141408
0.00152006
0.00162294
0.00172232
0.00181793
0.00190961
0.00199726
0.00208089
0.00216051
0.00223623
0.00230813
0.00237635
0.00244103
0.00250232
0.00256035
0.00261528
0.00266724
0.00271637
0.00276301
0.00280661
0.00284723
0.00288496
0.00291985
0.00295196
0.00298134
0.00300795
0.00302439
0.0030392
0.00305256
0.00306454
0.00307524
0.00308472
0.00309305
0.0031003
0.00310654
0.00311183
0.00311622
0.00311978
0.00312257
0.00312463
0.00312602
0.00312678
0.00312697
0.00312663
0.0031258
0.00312453
0.00312286
0.00312082
0.00311842
0.00311545
0.00310881
1.00166e-11
3.75013e-12
1.81523e-12
1.0708e-12
8.08157e-13
1.36551e-12
6.86778e-12
3.23901e-11
1.13732e-10
3.40753e-10
9.24261e-10
2.31972e-09
5.44738e-09
1.20613e-08
2.53289e-08
5.06961e-08
9.71385e-08
1.78899e-07
3.17747e-07
5.45745e-07
9.08527e-07
1.46914e-06
2.31241e-06
3.54934e-06
5.32075e-06
7.7989e-06
1.1186e-05
1.57091e-05
2.16111e-05
2.91397e-05
3.85339e-05
5.00109e-05
6.37547e-05
7.99066e-05
9.85595e-05
0.000119755
0.000143485
0.000169692
0.000198279
0.000229109
0.000262019
0.000296819