/*--------------------------------*- C++ -*----------------------------------*\
| =========                 |                                                 |
| \\      /  F ield         | OpenFOAM: The Open Source CFD Toolbox           |
|  \\    /   O peration     | Version:  5.x                                   |
|   \\  /    A nd           | Web:      www.OpenFOAM.org                      |
|    \\/     M anipulation  |                                                 |
\*---------------------------------------------------------------------------*/
FoamFile
{
    version     2.0;
    format      ascii;
    class       volScalarField;
    location    "500";
    object      p;
}
// * * * * * * * * * * * * * * * * * * * * * * * * * * * * * * * * * * * * * //

dimensions      [0 2 -2 0 0 0 0];

internalField   nonuniform List<scalar> 
20540
(
55.8736
57.9019
55.8736
57.9021
55.8736
57.9029
55.8736
57.9037
55.8736
57.9042
55.8736
57.9042
55.8736
57.9033
55.8736
57.901
55.8736
57.8968
55.8737
57.8899
55.8737
57.8795
55.8737
57.8647
55.8737
57.8443
55.8737
57.8173
55.8736
57.7828
55.8736
57.74
55.8736
57.6881
55.8736
57.6258
55.8735
57.5516
55.8734
57.4635
55.8733
57.3596
55.8731
57.2376
55.8727
57.0956
55.8722
56.9317
55.8714
56.745
55.8704
56.5357
55.8689
56.3061
55.8671
56.0623
55.865
55.8154
55.8626
55.5853
55.8608
55.4249
55.8599
55.3472
55.8599
55.348
55.8608
55.427
55.8626
55.5864
55.8649
55.8092
55.867
56.0486
55.8688
56.2861
55.8702
56.5111
55.8713
56.7176
55.8721
56.9031
55.8726
57.0671
55.873
57.2102
55.8733
57.3341
55.8734
57.4404
55.8735
57.5311
55.8736
57.6082
55.8736
57.6733
55.8737
57.7282
55.8737
57.774
55.8737
57.8115
55.8737
57.8416
55.8737
57.8651
55.8737
57.8827
55.8737
57.8956
55.8737
57.9045
55.8737
57.9104
55.8737
57.9139
55.8737
57.9158
55.8737
57.9165
55.8737
57.9164
55.8737
57.9159
55.8737
57.9151
55.8737
57.9144
55.8737
57.9142
51.6277
36.9242
25.6309
16.795
9.16152
2.06318
-4.64619
-10.957
-16.886
-22.4746
-27.7601
-32.7713
-37.5308
-42.059
-46.3735
-50.4891
-54.4187
-58.173
-61.7621
-65.1948
-68.4796
-71.6243
-74.6362
-77.5222
-80.2887
-82.9415
-85.486
-87.9272
-90.2698
-92.5184
-94.6772
-96.7506
-98.7425
-100.657
-102.497
-104.267
-105.97
-107.609
-109.187
-110.709
-112.177
-113.595
-114.968
-116.298
-117.591
-118.851
-120.084
-121.293
-122.485
-123.665
-124.84
-126.017
-127.203
-128.404
-129.629
-130.885
-132.182
-133.528
-134.932
-136.409
-137.962
-139.628
-141.327
-143.071
-144.508
-145.835
-147.199
-148.6
-150.033
-151.501
-153.002
-154.538
-156.109
-157.718
-159.364
-161.049
-162.776
-164.548
-166.367
-168.24
-170.173
-172.174
-174.255
-176.443
-178.723
-181.322
-183.603
-188.759
51.6412
36.9262
25.6315
16.7954
9.16177
2.06337
-4.64603
-10.9569
-16.8859
-22.4745
-27.76
-32.7712
-37.5307
-42.059
-46.3734
-50.4891
-54.4186
-58.1729
-61.762
-65.1947
-68.4796
-71.6243
-74.6362
-77.5222
-80.2887
-82.9414
-85.4859
-87.9271
-90.2698
-92.5183
-94.6772
-96.7506
-98.7425
-100.657
-102.497
-104.267
-105.97
-107.609
-109.187
-110.709
-112.177
-113.595
-114.968
-116.298
-117.591
-118.851
-120.084
-121.293
-122.485
-123.665
-124.84
-126.017
-127.203
-128.404
-129.629
-130.886
-132.182
-133.528
-134.933
-136.409
-137.962
-139.628
-141.327
-143.071
-144.508
-145.835
-147.199
-148.6
-150.033
-151.501
-153.002
-154.539
-156.11
-157.719
-159.364
-161.05
-162.777
-164.549
-166.368
-168.241
-170.174
-172.176
-174.257
-176.445
-178.726
-181.327
-183.611
-188.607
51.6579
36.93
25.6327
16.796
9.16223
2.06372
-4.64575
-10.9566
-16.8857
-22.4743
-27.7599
-32.7711
-37.5306
-42.0588
-46.3733
-50.489
-54.4185
-58.1729
-61.7619
-65.1947
-68.4795
-71.6242
-74.6361
-77.5221
-80.2886
-82.9414
-85.4859
-87.9271
-90.2697
-92.5183
-94.6772
-96.7506
-98.7425
-100.657
-102.497
-104.267
-105.97
-107.609
-109.187
-110.709
-112.177
-113.595
-114.968
-116.298
-117.591
-118.851
-120.084
-121.293
-122.485
-123.665
-124.841
-126.017
-127.203
-128.404
-129.629
-130.886
-132.182
-133.528
-134.933
-136.409
-137.962
-139.629
-141.327
-143.072
-144.508
-145.835
-147.2
-148.601
-150.034
-151.502
-153.003
-154.54
-156.111
-157.72
-159.366
-161.052
-162.779
-164.551
-166.37
-168.244
-170.177
-172.179
-174.26
-176.449
-178.731
-181.335
-183.62
-188.427
51.6701
36.9355
25.6345
16.797
9.1629
2.06421
-4.64536
-10.9563
-16.8854
-22.474
-27.7597
-32.7709
-37.5304
-42.0587
-46.3732
-50.4889
-54.4184
-58.1727
-61.7618
-65.1946
-68.4794
-71.6241
-74.6361
-77.5221
-80.2885
-82.9413
-85.4858
-87.927
-90.2697
-92.5182
-94.6771
-96.7505
-98.7424
-100.657
-102.497
-104.267
-105.97
-107.609
-109.187
-110.709
-112.177
-113.595
-114.968
-116.298
-117.591
-118.851
-120.084
-121.293
-122.485
-123.665
-124.841
-126.017
-127.203
-128.404
-129.629
-130.886
-132.182
-133.528
-134.933
-136.409
-137.962
-139.629
-141.328
-143.072
-144.509
-145.836
-147.201
-148.602
-150.035
-151.503
-153.004
-154.541
-156.113
-157.722
-159.368
-161.054
-162.781
-164.553
-166.373
-168.247
-170.18
-172.183
-174.265
-176.455
-178.738
-181.344
-183.625
-188.264
51.6791
36.9428
25.637
16.7983
9.16379
2.06488
-4.64483
-10.9559
-16.8851
-22.4737
-27.7594
-32.7706
-37.5302
-42.0585
-46.373
-50.4887
-54.4183
-58.1726
-61.7617
-65.1945
-68.4793
-71.624
-74.636
-77.522
-80.2884
-82.9412
-85.4857
-87.9269
-90.2696
-92.5182
-94.677
-96.7504
-98.7424
-100.657
-102.497
-104.267
-105.97
-107.609
-109.187
-110.709
-112.177
-113.595
-114.968
-116.298
-117.591
-118.851
-120.084
-121.293
-122.485
-123.665
-124.841
-126.018
-127.203
-128.404
-129.629
-130.886
-132.182
-133.529
-134.933
-136.41
-137.963
-139.63
-141.329
-143.073
-144.51
-145.837
-147.202
-148.603
-150.036
-151.505
-153.006
-154.543
-156.115
-157.724
-159.37
-161.057
-162.784
-164.557
-166.377
-168.251
-170.185
-172.188
-174.271
-176.461
-178.745
-181.352
-183.626
-188.155
51.6862
36.952
25.6404
16.8002
9.165
2.06576
-4.64414
-10.9553
-16.8846
-22.4733
-27.759
-32.7703
-37.5299
-42.0582
-46.3728
-50.4885
-54.4181
-58.1724
-61.7615
-65.1943
-68.4792
-71.6239
-74.6358
-77.5218
-80.2883
-82.9411
-85.4856
-87.9268
-90.2695
-92.5181
-94.677
-96.7503
-98.7423
-100.657
-102.497
-104.267
-105.97
-107.609
-109.187
-110.709
-112.177
-113.595
-114.968
-116.298
-117.591
-118.851
-120.083
-121.293
-122.485
-123.665
-124.841
-126.018
-127.203
-128.405
-129.63
-130.886
-132.183
-133.529
-134.934
-136.41
-137.963
-139.63
-141.33
-143.074
-144.511
-145.838
-147.203
-148.604
-150.038
-151.507
-153.008
-154.545
-156.117
-157.727
-159.373
-161.06
-162.788
-164.561
-166.381
-168.256
-170.19
-172.194
-174.277
-176.469
-178.754
-181.359
-183.624
-188.102
51.6914
36.9634
25.6451
16.8027
9.16662
2.06693
-4.64322
-10.9546
-16.8839
-22.4728
-27.7586
-32.7699
-37.5295
-42.0579
-46.3725
-50.4882
-54.4178
-58.1722
-61.7613
-65.1941
-68.479
-71.6237
-74.6356
-77.5217
-80.2882
-82.941
-85.4855
-87.9267
-90.2693
-92.5179
-94.6768
-96.7502
-98.7422
-100.656
-102.497
-104.267
-105.969
-107.608
-109.187
-110.709
-112.177
-113.595
-114.968
-116.298
-117.591
-118.851
-120.083
-121.293
-122.485
-123.665
-124.841
-126.018
-127.203
-128.405
-129.63
-130.886
-132.183
-133.529
-134.934
-136.411
-137.964
-139.631
-141.331
-143.076
-144.513
-145.84
-147.205
-148.606
-150.04
-151.509
-153.011
-154.548
-156.12
-157.73
-159.377
-161.064
-162.792
-164.565
-166.387
-168.262
-170.197
-172.201
-174.285
-176.477
-178.763
-181.364
-183.62
-188.083
51.694
36.9771
25.6513
16.806
9.16878
2.0685
-4.64201
-10.9536
-16.8831
-22.4721
-27.7579
-32.7693
-37.529
-42.0574
-46.372
-50.4878
-54.4175
-58.1719
-61.761
-65.1938
-68.4787
-71.6234
-74.6354
-77.5214
-80.288
-82.9408
-85.4853
-87.9265
-90.2692
-92.5178
-94.6767
-96.7501
-98.742
-100.656
-102.497
-104.267
-105.969
-107.608
-109.187
-110.709
-112.177
-113.595
-114.968
-116.298
-117.591
-118.851
-120.083
-121.293
-122.485
-123.665
-124.841
-126.018
-127.203
-128.405
-129.63
-130.887
-132.184
-133.53
-134.935
-136.412
-137.965
-139.633
-141.332
-143.077
-144.515
-145.842
-147.207
-148.608
-150.043
-151.512
-153.014
-154.552
-156.124
-157.734
-159.381
-161.069
-162.797
-164.571
-166.393
-168.268
-170.204
-172.209
-174.293
-176.485
-178.771
-181.364
-183.612
-188.069
51.6937
36.993
25.6594
16.8105
9.17167
2.07057
-4.64042
-10.9523
-16.882
-22.4711
-27.7571
-32.7686
-37.5284
-42.0569
-46.3715
-50.4873
-54.417
-58.1714
-61.7606
-65.1934
-68.4784
-71.6231
-74.6351
-77.5212
-80.2877
-82.9405
-85.4851
-87.9263
-90.269
-92.5176
-94.6765
-96.7499
-98.7418
-100.656
-102.497
-104.266
-105.969
-107.608
-109.187
-110.708
-112.177
-113.595
-114.967
-116.298
-117.591
-118.851
-120.083
-121.293
-122.485
-123.665
-124.841
-126.018
-127.204
-128.405
-129.63
-130.887
-132.184
-133.531
-134.936
-136.413
-137.966
-139.634
-141.334
-143.079
-144.517
-145.844
-147.209
-148.611
-150.046
-151.515
-153.017
-154.555
-156.128
-157.739
-159.386
-161.074
-162.803
-164.577
-166.399
-168.275
-170.211
-172.216
-174.301
-176.492
-178.778
-181.356
-183.601
-188.028
51.6902
37.0108
25.6697
16.8164
9.1755
2.07331
-4.63832
-10.9506
-16.8806
-22.4699
-27.7561
-32.7677
-37.5276
-42.0561
-46.3708
-50.4867
-54.4165
-58.1709
-61.7601
-65.193
-68.4779
-71.6227
-74.6347
-77.5208
-80.2873
-82.9402
-85.4847
-87.926
-90.2687
-92.5173
-94.6762
-96.7496
-98.7416
-100.656
-102.496
-104.266
-105.969
-107.608
-109.187
-110.708
-112.176
-113.595
-114.967
-116.298
-117.591
-118.851
-120.083
-121.293
-122.485
-123.665
-124.841
-126.018
-127.204
-128.406
-129.631
-130.888
-132.185
-133.531
-134.937
-136.414
-137.968
-139.635
-141.336
-143.081
-144.519
-145.847
-147.212
-148.614
-150.049
-151.518
-153.021
-154.56
-156.133
-157.744
-159.391
-161.08
-162.809
-164.584
-166.406
-168.282
-170.218
-172.223
-174.307
-176.496
-178.78
-181.337
-183.582
-187.935
51.6829
37.0302
25.6824
16.8241
9.18055
2.07693
-4.63555
-10.9484
-16.8788
-22.4683
-27.7547
-32.7665
-37.5265
-42.0551
-46.37
-50.4859
-54.4157
-58.1702
-61.7595
-65.1924
-68.4774
-71.6222
-74.6342
-77.5203
-80.2869
-82.9398
-85.4843
-87.9256
-90.2683
-92.5169
-94.6759
-96.7493
-98.7413
-100.656
-102.496
-104.266
-105.969
-107.608
-109.186
-110.708
-112.176
-113.595
-114.967
-116.298
-117.591
-118.851
-120.083
-121.293
-122.485
-123.665
-124.841
-126.018
-127.204
-128.406
-129.631
-130.888
-132.185
-133.532
-134.938
-136.415
-137.969
-139.637
-141.338
-143.083
-144.522
-145.85
-147.215
-148.617
-150.053
-151.522
-153.025
-154.564
-156.138
-157.749
-159.397
-161.085
-162.815
-164.59
-166.412
-168.288
-170.224
-172.228
-174.31
-176.495
-178.773
-181.301
-183.55
-187.767
51.6718
37.0507
25.6977
16.8339
9.18716
2.08169
-4.63191
-10.9455
-16.8764
-22.4663
-27.7529
-32.7649
-37.5251
-42.0539
-46.3688
-50.4849
-54.4147
-58.1693
-61.7587
-65.1916
-68.4766
-71.6215
-74.6336
-77.5197
-80.2863
-82.9392
-85.4838
-87.9251
-90.2678
-92.5165
-94.6754
-96.7489
-98.7409
-100.655
-102.496
-104.266
-105.968
-107.607
-109.186
-110.708
-112.176
-113.594
-114.967
-116.297
-117.591
-118.851
-120.083
-121.292
-122.485
-123.665
-124.841
-126.018
-127.204
-128.406
-129.632
-130.889
-132.186
-133.533
-134.939
-136.416
-137.971
-139.639
-141.34
-143.086
-144.525
-145.853
-147.218
-148.621
-150.056
-151.526
-153.029
-154.568
-156.142
-157.753
-159.402
-161.09
-162.82
-164.594
-166.416
-168.292
-170.226
-172.228
-174.307
-176.484
-178.754
-181.241
-183.493
-187.507
51.6563
37.0716
25.7154
16.8462
9.19568
2.08791
-4.62713
-10.9416
-16.8732
-22.4636
-27.7506
-32.7629
-37.5232
-42.0522
-46.3673
-50.4835
-54.4135
-58.1682
-61.7576
-65.1906
-68.4757
-71.6206
-74.6327
-77.5189
-80.2856
-82.9385
-85.4831
-87.9244
-90.2672
-92.5159
-94.6748
-96.7483
-98.7403
-100.655
-102.495
-104.265
-105.968
-107.607
-109.186
-110.707
-112.175
-113.594
-114.966
-116.297
-117.59
-118.851
-120.083
-121.292
-122.484
-123.665
-124.841
-126.018
-127.204
-128.406
-129.632
-130.889
-132.187
-133.534
-134.94
-136.417
-137.972
-139.64
-141.342
-143.087
-144.527
-145.856
-147.22
-148.623
-150.059
-151.529
-153.032
-154.572
-156.145
-157.757
-159.405
-161.093
-162.822
-164.596
-166.417
-168.291
-170.222
-172.22
-174.293
-176.459
-178.713
-181.148
-183.398
-187.145
51.6361
37.0924
25.735
16.8611
9.20651
2.09595
-4.62091
-10.9366
-16.869
-22.4601
-27.7475
-32.7602
-37.5209
-42.0501
-46.3654
-50.4817
-54.4118
-58.1667
-61.7562
-65.1893
-68.4745
-71.6194
-74.6316
-77.5179
-80.2846
-82.9375
-85.4822
-87.9236
-90.2664
-92.5151
-94.6741
-96.7476
-98.7396
-100.654
-102.494
-104.264
-105.967
-107.606
-109.185
-110.707
-112.175
-113.593
-114.966
-116.297
-117.59
-118.85
-120.082
-121.292
-122.484
-123.665
-124.841
-126.018
-127.204
-128.406
-129.632
-130.889
-132.187
-133.534
-134.94
-136.418
-137.973
-139.641
-141.343
-143.089
-144.529
-145.859
-147.222
-148.625
-150.061
-151.531
-153.034
-154.573
-156.146
-157.757
-159.404
-161.092
-162.82
-164.592
-166.411
-168.281
-170.208
-172.199
-174.262
-176.41
-178.64
-181.01
-183.244
-186.677
51.6104
37.113
25.7555
16.8785
9.21991
2.10621
-4.61288
-10.9301
-16.8636
-22.4555
-27.7435
-32.7567
-37.5177
-42.0473
-46.3628
-50.4794
-54.4097
-58.1647
-61.7543
-65.1876
-68.4728
-71.6179
-74.6302
-77.5165
-80.2833
-82.9363
-85.481
-87.9224
-90.2653
-92.514
-94.6731
-96.7466
-98.7387
-100.653
-102.494
-104.264
-105.966
-107.606
-109.184
-110.706
-112.174
-113.593
-114.965
-116.296
-117.589
-118.849
-120.082
-121.291
-122.484
-123.664
-124.84
-126.018
-127.204
-128.406
-129.632
-130.889
-132.187
-133.534
-134.941
-136.418
-137.974
-139.641
-141.344
-143.088
-144.529
-145.86
-147.222
-148.624
-150.06
-151.529
-153.032
-154.57
-156.143
-157.752
-159.398
-161.084
-162.809
-164.578
-166.393
-168.258
-170.177
-172.157
-174.204
-176.327
-178.52
-180.812
-183.006
-186.102
51.5779
37.1341
25.7755
16.8978
9.23598
2.11899
-4.60266
-10.9218
-16.8566
-22.4495
-27.7383
-32.7521
-37.5137
-42.0436
-46.3595
-50.4763
-54.4069
-58.1621
-61.7519
-65.1853
-68.4707
-71.6159
-74.6283
-77.5147
-80.2816
-82.9347
-85.4795
-87.921
-90.2638
-92.5126
-94.6717
-96.7453
-98.7374
-100.652
-102.492
-104.262
-105.965
-107.605
-109.183
-110.705
-112.173
-113.592
-114.964
-116.295
-117.588
-118.849
-120.081
-121.29
-122.483
-123.664
-124.839
-126.017
-127.203
-128.405
-129.631
-130.889
-132.186
-133.534
-134.94
-136.417
-137.973
-139.639
-141.343
-143.085
-144.526
-145.858
-147.218
-148.62
-150.055
-151.523
-153.025
-154.561
-156.132
-157.739
-159.382
-161.064
-162.786
-164.549
-166.357
-168.213
-170.12
-172.083
-174.106
-176.192
-178.334
-180.533
-182.66
-185.415
51.5363
37.1571
25.7942
16.9178
9.25438
2.13443
-4.58996
-10.9112
-16.8477
-22.4418
-27.7316
-32.7462
-37.5084
-42.0388
-46.3551
-50.4724
-54.4032
-58.1587
-61.7488
-65.1823
-68.4679
-71.6133
-74.6258
-77.5124
-80.2793
-82.9325
-85.4774
-87.919
-90.262
-92.5108
-94.67
-96.7436
-98.7358
-100.65
-102.491
-104.261
-105.964
-107.603
-109.182
-110.704
-112.172
-113.59
-114.963
-116.294
-117.587
-118.847
-120.08
-121.289
-122.481
-123.662
-124.838
-126.016
-127.202
-128.404
-129.629
-130.887
-132.184
-133.531
-134.937
-136.414
-137.969
-139.634
-141.339
-143.078
-144.519
-145.851
-147.209
-148.609
-150.042
-151.509
-153.008
-154.541
-156.109
-157.712
-159.351
-161.027
-162.741
-164.496
-166.293
-168.135
-170.023
-171.961
-173.949
-175.985
-178.057
-180.149
-182.177
-184.613
51.4839
37.1829
25.8114
16.9368
9.27412
2.15229
-4.57465
-10.8982
-16.8365
-22.432
-27.7231
-32.7385
-37.5015
-42.0326
-46.3495
-50.4672
-54.3985
-58.1542
-61.7446
-65.1785
-68.4643
-71.6099
-74.6226
-77.5093
-80.2764
-82.9297
-85.4748
-87.9164
-90.2595
-92.5084
-94.6677
-96.7414
-98.7336
-100.648
-102.489
-104.259
-105.962
-107.601
-109.18
-110.702
-112.17
-113.589
-114.961
-116.292
-117.585
-118.846
-120.078
-121.287
-122.479
-123.66
-124.836
-126.013
-127.199
-128.401
-129.626
-130.883
-132.18
-133.527
-134.932
-136.408
-137.963
-139.624
-141.331
-143.065
-144.503
-145.837
-147.191
-148.587
-150.018
-151.481
-152.977
-154.505
-156.067
-157.664
-159.295
-160.962
-162.665
-164.406
-166.186
-168.006
-169.867
-171.769
-173.708
-175.677
-177.659
-179.628
-181.531
-183.683
51.4201
37.2115
25.8283
16.9533
9.29356
2.17175
-4.55699
-10.8827
-16.8228
-22.42
-27.7123
-32.7289
-37.4928
-42.0247
-46.3422
-50.4605
-54.3923
-58.1485
-61.7392
-65.1734
-68.4595
-71.6054
-74.6183
-77.5052
-80.2725
-82.926
-85.4712
-87.913
-90.2562
-92.5053
-94.6646
-96.7384
-98.7308
-100.645
-102.486
-104.256
-105.959
-107.599
-109.178
-110.699
-112.168
-113.586
-114.959
-116.29
-117.583
-118.843
-120.075
-121.284
-122.476
-123.657
-124.832
-126.009
-127.195
-128.396
-129.621
-130.877
-132.173
-133.518
-134.922
-136.397
-137.95
-139.607
-141.315
-143.041
-144.477
-145.811
-147.159
-148.551
-149.977
-151.434
-152.923
-154.444
-155.997
-157.583
-159.202
-160.855
-162.541
-164.261
-166.016
-167.804
-169.625
-171.475
-173.348
-175.232
-177.105
-178.936
-180.696
-182.601
51.3441
37.2432
25.8456
16.9672
9.31074
2.19121
-4.53778
-10.8649
-16.8068
-22.4055
-27.6992
-32.717
-37.4819
-42.0147
-46.333
-50.4519
-54.3843
-58.141
-61.7323
-65.1669
-68.4534
-71.5995
-74.6127
-77.4999
-80.2674
-82.9212
-85.4666
-87.9086
-90.2519
-92.5011
-94.6606
-96.7345
-98.727
-100.642
-102.483
-104.253
-105.956
-107.595
-109.174
-110.696
-112.165
-113.583
-114.956
-116.286
-117.579
-118.839
-120.071
-121.28
-122.472
-123.652
-124.827
-126.003
-127.188
-128.388
-129.612
-130.867
-132.161
-133.505
-134.906
-136.378
-137.928
-139.579
-141.287
-143.003
-144.432
-145.765
-147.107
-148.49
-149.908
-151.357
-152.836
-154.345
-155.884
-157.454
-159.055
-160.685
-162.346
-164.035
-165.752
-167.495
-169.26
-171.041
-172.828
-174.606
-176.351
-178.033
-179.642
-181.332
51.2545
37.2794
25.8646
16.9792
9.32395
2.20816
-4.51869
-10.8458
-16.7887
-22.3888
-27.6838
-32.7028
-37.4687
-42.0024
-46.3216
-50.4412
-54.3743
-58.1316
-61.7234
-65.1585
-68.4454
-71.5919
-74.6055
-77.493
-80.2608
-82.9148
-85.4605
-87.9027
-90.2463
-92.4957
-94.6553
-96.7294
-98.7219
-100.637
-102.478
-104.248
-105.951
-107.591
-109.17
-110.692
-112.16
-113.579
-114.951
-116.282
-117.575
-118.834
-120.066
-121.275
-122.466
-123.645
-124.819
-125.994
-127.177
-128.376
-129.598
-130.851
-132.143
-133.483
-134.881
-136.348
-137.892
-139.535
-141.241
-142.942
-144.362
-145.691
-147.022
-148.394
-149.8
-151.235
-152.698
-154.189
-155.707
-157.253
-158.826
-160.424
-162.047
-163.692
-165.356
-167.036
-168.725
-170.415
-172.095
-173.746
-175.347
-176.873
-178.328
-179.83
51.1493
37.3212
25.8867
16.9916
9.33444
2.21961
-4.50382
-10.8276
-16.7694
-22.3699
-27.6661
-32.6862
-37.4533
-41.988
-46.308
-50.4284
-54.3621
-58.1201
-61.7124
-65.148
-68.4354
-71.5824
-74.5964
-77.4842
-80.2524
-82.9067
-85.4526
-87.8952
-90.239
-92.4886
-94.6485
-96.7227
-98.7154
-100.63
-102.471
-104.242
-105.945
-107.585
-109.164
-110.686
-112.154
-113.573
-114.945
-116.275
-117.568
-118.827
-120.058
-121.266
-122.456
-123.634
-124.807
-125.98
-127.161
-128.357
-129.576
-130.826
-132.113
-133.448
-134.84
-136.3
-137.837
-139.467
-141.168
-142.849
-144.253
-145.574
-146.891
-148.245
-149.632
-151.046
-152.485
-153.949
-155.436
-156.947
-158.479
-160.031
-161.599
-163.181
-164.772
-166.367
-167.957
-169.534
-171.083
-172.59
-174.034
-175.4
-176.702
-178.033
51.0267
37.3688
25.9131
17.006
9.34616
2.22909
-4.49531
-10.8172
-16.7548
-22.3516
-27.6462
-32.6668
-37.4351
-41.971
-46.2919
-50.4132
-54.3477
-58.1064
-61.6994
-65.1356
-68.4235
-71.5709
-74.5852
-77.4734
-80.2418
-82.8965
-85.4427
-87.8856
-90.2297
-92.4796
-94.6397
-96.7142
-98.707
-100.622
-102.463
-104.234
-105.937
-107.577
-109.156
-110.678
-112.146
-113.565
-114.937
-116.267
-117.559
-118.818
-120.048
-121.254
-122.443
-123.619
-124.789
-125.959
-127.137
-128.329
-129.544
-130.788
-132.069
-133.396
-134.779
-136.227
-137.751
-139.365
-141.054
-142.707
-144.088
-145.393
-146.69
-148.018
-149.377
-150.76
-152.164
-153.588
-155.03
-156.49
-157.963
-159.449
-160.942
-162.437
-163.931
-165.415
-166.881
-168.319
-169.718
-171.064
-172.344
-173.546
-174.696
-175.865
50.8851
37.4224
25.9445
17.0224
9.36003
2.24093
-4.48612
-10.8103
-16.7486
-22.3437
-27.6348
-32.6512
-37.4161
-41.9503
-46.2713
-50.3937
-54.3298
-58.0898
-61.6839
-65.1209
-68.4094
-71.5573
-74.5721
-77.4607
-80.2295
-82.8845
-85.431
-87.8741
-90.2185
-92.4686
-94.6289
-96.7036
-98.6966
-100.612
-102.453
-104.224
-105.927
-107.567
-109.146
-110.668
-112.136
-113.554
-114.926
-116.255
-117.546
-118.804
-120.033
-121.238
-122.424
-123.598
-124.764
-125.93
-127.102
-128.288
-129.495
-130.731
-132.002
-133.317
-134.686
-136.117
-137.622
-139.211
-140.879
-142.493
-143.841
-145.119
-146.386
-147.677
-148.995
-150.333
-151.685
-153.051
-154.429
-155.816
-157.208
-158.602
-159.992
-161.374
-162.74
-164.084
-165.398
-166.673
-167.9
-169.07
-170.173
-171.207
-172.197
-173.204
50.7236
37.4813
25.9815
17.0411
9.37582
2.25471
-4.47469
-10.8008
-16.7408
-22.3377
-27.6302
-32.6469
-37.4104
-41.9418
-46.259
-50.3775
-54.3101
-58.068
-61.6613
-65.0986
-68.3883
-71.5379
-74.5544
-77.4445
-80.2146
-82.8705
-85.4178
-87.8614
-90.2061
-92.4565
-94.617
-96.6917
-98.6848
-100.6
-102.441
-104.212
-105.915
-107.555
-109.133
-110.655
-112.123
-113.54
-114.911
-116.239
-117.529
-118.785
-120.012
-121.214
-122.397
-123.566
-124.728
-125.887
-127.051
-128.227
-129.423
-130.646
-131.902
-133.2
-134.547
-135.953
-137.428
-138.981
-140.614
-142.175
-143.475
-144.714
-145.936
-147.175
-148.435
-149.707
-150.987
-152.273
-153.562
-154.849
-156.132
-157.405
-158.662
-159.898
-161.107
-162.282
-163.417
-164.506
-165.543
-166.522
-167.441
-168.297
-169.12
-169.955
50.5423
37.5447
26.0246
17.0619
9.3935
2.27029
-4.46181
-10.79
-16.7312
-22.329
-27.6222
-32.6399
-37.405
-41.9381
-46.2565
-50.3753
-54.3072
-58.0633
-61.654
-65.0882
-68.3745
-71.5207
-74.5342
-77.422
-80.1904
-82.8455
-85.3926
-87.8366
-90.1823
-92.434
-94.596
-96.6723
-98.667
-100.584
-102.426
-104.198
-105.902
-107.542
-109.121
-110.643
-112.11
-113.527
-114.897
-116.224
-117.512
-118.766
-119.989
-121.187
-122.364
-123.527
-124.68
-125.83
-126.982
-128.143
-129.321
-130.524
-131.757
-133.028
-134.342
-135.711
-137.141
-138.643
-140.22
-141.705
-142.936
-144.113
-145.269
-146.433
-147.608
-148.788
-149.967
-151.141
-152.306
-153.46
-154.596
-155.71
-156.796
-157.849
-158.862
-159.832
-160.754
-161.623
-162.437
-163.194
-163.895
-164.542
-165.161
-165.794
50.3433
37.6107
26.0738
17.0846
9.41286
2.28759
-4.44753
-10.778
-16.7208
-22.3195
-27.6136
-32.632
-37.3976
-41.931
-46.2496
-50.3687
-54.3013
-58.0586
-61.6507
-65.0863
-68.3737
-71.5206
-74.5343
-77.4217
-80.1891
-82.8426
-85.3876
-87.8292
-90.1722
-92.421
-94.5802
-96.6538
-98.6459
-100.56
-102.401
-104.17
-105.873
-107.511
-109.089
-110.609
-112.075
-113.491
-114.859
-116.184
-117.47
-118.72
-119.939
-121.132
-122.303
-123.457
-124.6
-125.737
-126.874
-128.016
-129.169
-130.342
-131.542
-132.774
-134.043
-135.358
-136.726
-138.154
-139.649
-141.04
-142.182
-143.272
-144.338
-145.401
-146.464
-147.522
-148.569
-149.6
-150.611
-151.597
-152.554
-153.478
-154.362
-155.203
-155.996
-156.738
-157.427
-158.061
-158.639
-159.162
-159.633
-160.055
-160.445
-160.835
50.1316
37.6768
26.1283
17.1087
9.43338
2.30622
-4.43215
-10.7652
-16.7095
-22.3093
-27.6043
-32.6235
-37.3899
-41.9238
-46.2429
-50.3624
-54.2952
-58.0525
-61.6444
-65.0797
-68.3668
-71.5135
-74.5273
-77.4151
-80.1834
-82.838
-85.3842
-87.8271
-90.1714
-92.4215
-94.5819
-96.6565
-98.6494
-100.564
-102.405
-104.174
-105.876
-107.514
-109.09
-110.608
-112.071
-113.483
-114.847
-116.167
-117.446
-118.689
-119.899
-121.08
-122.238
-123.377
-124.501
-125.616
-126.726
-127.838
-128.955
-130.083
-131.229
-132.398
-133.597
-134.829
-136.101
-137.416
-138.779
-140.029
-141.051
-142.016
-142.947
-143.866
-144.775
-145.668
-146.537
-147.38
-148.191
-148.967
-149.702
-150.392
-151.032
-151.617
-152.143
-152.605
-153
-153.323
-153.571
-153.741
-153.832
-153.84
-153.767
-153.624
49.9172
37.7394
26.1856
17.1332
9.4541
2.32537
-4.41633
-10.752
-16.698
-22.2989
-27.5947
-32.6148
-37.3819
-41.9165
-46.2361
-50.3557
-54.2887
-58.0462
-61.6383
-65.0739
-68.3614
-71.5086
-74.5228
-77.411
-80.1795
-82.834
-85.3799
-87.8223
-90.1659
-92.4152
-94.5747
-96.6485
-98.6406
-100.555
-102.395
-104.164
-105.865
-107.502
-109.077
-110.594
-112.055
-113.465
-114.826
-116.142
-117.415
-118.651
-119.852
-121.022
-122.165
-123.286
-124.388
-125.476
-126.553
-127.625
-128.695
-129.767
-130.846
-131.937
-133.045
-134.171
-135.317
-136.484
-137.669
-138.762
-139.655
-140.464
-141.227
-141.969
-142.692
-143.389
-144.055
-144.685
-145.276
-145.826
-146.331
-146.788
-147.196
-147.551
-147.852
-148.099
-148.289
-148.423
-148.5
-148.522
-148.489
-148.403
-148.264
-148.075
49.7172
37.7938
26.2411
17.1563
9.47338
2.34351
-4.40132
-10.7395
-16.687
-22.2889
-27.5857
-32.6065
-37.3743
-41.9095
-46.2295
-50.3494
-54.2826
-58.0403
-61.6326
-65.0684
-68.356
-71.5032
-74.5175
-77.4057
-80.1743
-82.8289
-85.375
-87.8176
-90.1614
-92.411
-94.5709
-96.6451
-98.6377
-100.552
-102.392
-104.161
-105.862
-107.498
-109.072
-110.587
-112.045
-113.451
-114.806
-116.114
-117.379
-118.603
-119.789
-120.942
-122.063
-123.157
-124.227
-125.277
-126.308
-127.326
-128.332
-129.329
-130.322
-131.311
-132.3
-133.288
-134.275
-135.259
-136.233
-137.113
-137.821
-138.442
-139.01
-139.551
-140.066
-140.548
-140.994
-141.401
-141.769
-142.097
-142.384
-142.631
-142.837
-143.003
-143.13
-143.221
-143.276
-143.299
-143.291
-143.258
-143.201
-143.124
-143.033
-142.929
49.5778
37.8295
26.2811
17.1726
9.48685
2.35635
-4.39069
-10.7306
-16.6792
-22.2819
-27.5793
-32.6006
-37.369
-41.9046
-46.2249
-50.3451
-54.2784
-58.0362
-61.6286
-65.0645
-68.3522
-71.4996
-74.514
-77.4024
-80.1712
-82.826
-85.3723
-87.8149
-90.1586
-92.4081
-94.5677
-96.6416
-98.6338
-100.548
-102.387
-104.155
-105.855
-107.489
-109.061
-110.573
-112.028
-113.428
-114.778
-116.078
-117.333
-118.545
-119.716
-120.85
-121.948
-123.014
-124.049
-125.057
-126.039
-126.997
-127.933
-128.849
-129.746
-130.625
-131.485
-132.326
-133.144
-133.936
-134.697
-135.361
-135.878
-136.316
-136.703
-137.056
-137.378
-137.664
-137.912
-138.123
-138.296
-138.432
-138.532
-138.597
-138.629
-138.629
-138.599
-138.541
-138.458
-138.351
-138.224
-138.08
-137.921
-137.75
-137.57
-137.385
49.5105
37.8464
26.3012
17.181
9.49376
2.363
-4.38514
-10.726
-16.6751
-22.2782
-27.5759
-32.5975
-37.3661
-41.9019
-46.2223
-50.3426
-54.276
-58.0338
-61.6263
-65.0623
-68.3501
-71.4975
-74.512
-77.4005
-80.1693
-82.8242
-85.3704
-87.813
-90.1567
-92.4061
-94.5656
-96.6394
-98.6315
-100.545
-102.385
-104.152
-105.851
-107.484
-109.054
-110.564
-112.015
-113.411
-114.754
-116.047
-117.292
-118.491
-119.646
-120.76
-121.834
-122.871
-123.87
-124.835
-125.766
-126.664
-127.529
-128.363
-129.164
-129.933
-130.668
-131.366
-132.023
-132.635
-133.196
-133.655
-133.996
-134.271
-134.497
-134.687
-134.842
-134.962
-135.046
-135.096
-135.111
-135.095
-135.048
-134.973
-134.872
-134.746
-134.599
-134.431
-134.246
-134.046
-133.831
-133.606
-133.371
-133.128
-132.88
-132.629
49.511
37.8461
26.301
17.181
9.49373
2.36293
-4.38519
-10.726
-16.6752
-22.2782
-27.5759
-32.5975
-37.3661
-41.9019
-46.2224
-50.3427
-54.2761
-58.0339
-61.6263
-65.0623
-68.3501
-71.4975
-74.512
-77.4005
-80.1693
-82.8241
-85.3704
-87.8129
-90.1566
-92.4059
-94.5653
-96.639
-98.6309
-100.544
-102.383
-104.15
-105.848
-107.48
-109.047
-110.554
-112.002
-113.393
-114.731
-116.015
-117.25
-118.437
-119.576
-120.67
-121.72
-122.727
-123.691
-124.613
-125.493
-126.331
-127.127
-127.88
-128.589
-129.252
-129.866
-130.428
-130.933
-131.378
-131.754
-132.027
-132.209
-132.338
-132.422
-132.47
-132.484
-132.462
-132.408
-132.321
-132.205
-132.061
-131.892
-131.699
-131.486
-131.254
-131.005
-130.743
-130.469
-130.184
-129.891
-129.592
-129.288
-128.981
-128.673
-128.365
49.5794
37.8285
26.2806
17.1726
9.48678
2.35619
-4.39083
-10.7307
-16.6793
-22.282
-27.5794
-32.6007
-37.3691
-41.9046
-46.225
-50.3451
-54.2785
-58.0362
-61.6285
-65.0644
-68.3522
-71.4995
-74.514
-77.4024
-80.1711
-82.8259
-85.3721
-87.8146
-90.1582
-92.4075
-94.5669
-96.6404
-98.632
-100.545
-102.383
-104.149
-105.846
-107.476
-109.042
-110.545
-111.99
-113.376
-114.707
-115.985
-117.209
-118.383
-119.507
-120.582
-121.608
-122.586
-123.515
-124.396
-125.227
-126.007
-126.736
-127.412
-128.033
-128.595
-129.096
-129.533
-129.9
-130.191
-130.402
-130.509
-130.55
-130.549
-130.511
-130.439
-130.333
-130.193
-130.023
-129.824
-129.6
-129.352
-129.083
-128.795
-128.491
-128.173
-127.844
-127.505
-127.158
-126.806
-126.449
-126.09
-125.73
-125.371
-125.014
-124.661
49.7177
37.7926
26.2409
17.1566
9.47347
2.34344
-4.40137
-10.7395
-16.687
-22.289
-27.5857
-32.6065
-37.3744
-41.9095
-46.2296
-50.3495
-54.2827
-58.0403
-61.6325
-65.0682
-68.3559
-71.5031
-74.5175
-77.4057
-80.1742
-82.8287
-85.3747
-87.817
-90.1606
-92.4099
-94.5692
-96.6428
-98.6342
-100.547
-102.385
-104.15
-105.846
-107.475
-109.039
-110.541
-111.982
-113.365
-114.69
-115.96
-117.175
-118.337
-119.446
-120.501
-121.504
-122.453
-123.349
-124.189
-124.972
-125.697
-126.361
-126.963
-127.5
-127.968
-128.364
-128.684
-128.924
-129.078
-129.137
-129.087
-128.996
-128.879
-128.734
-128.557
-128.347
-128.105
-127.836
-127.542
-127.225
-126.889
-126.536
-126.168
-125.788
-125.398
-125.001
-124.599
-124.194
-123.787
-123.38
-122.975
-122.573
-122.175
-121.784
-121.399
49.9111
37.7397
26.1872
17.1344
9.45486
2.32587
-4.4159
-10.7517
-16.6976
-22.2986
-27.5944
-32.6146
-37.3817
-41.9163
-46.236
-50.3556
-54.2886
-58.046
-61.638
-65.0735
-68.361
-71.5082
-74.5225
-77.4106
-80.1791
-82.8335
-85.3794
-87.8216
-90.165
-92.414
-94.573
-96.6459
-98.6367
-100.549
-102.385
-104.149
-105.844
-107.471
-109.033
-110.532
-111.971
-113.349
-114.67
-115.934
-117.142
-118.294
-119.39
-120.431
-121.415
-122.341
-123.209
-124.016
-124.76
-125.44
-126.052
-126.594
-127.062
-127.454
-127.766
-127.994
-128.135
-128.184
-128.134
-127.953
-127.746
-127.542
-127.325
-127.074
-126.789
-126.473
-126.132
-125.769
-125.387
-124.987
-124.572
-124.146
-123.708
-123.263
-122.812
-122.357
-121.898
-121.437
-120.975
-120.512
-120.05
-119.589
-119.13
-118.671
50.1189
37.6789
26.1315
17.1108
9.43482
2.3073
-4.43124
-10.7645
-16.7088
-22.3087
-27.6036
-32.623
-37.3895
-41.9234
-46.2427