/*--------------------------------*- C++ -*----------------------------------*\
| =========                 |                                                 |
| \\      /  F ield         | OpenFOAM: The Open Source CFD Toolbox           |
|  \\    /   O peration     | Version:  5.x                                   |
|   \\  /    A nd           | Web:      www.OpenFOAM.org                      |
|    \\/     M anipulation  |                                                 |
\*---------------------------------------------------------------------------*/
FoamFile
{
    version     2.0;
    format      ascii;
    class       surfaceScalarField;
    location    "500";
    object      phi;
}
// * * * * * * * * * * * * * * * * * * * * * * * * * * * * * * * * * * * * * //

dimensions      [0 3 -1 0 0 0 0];

internalField   nonuniform List<scalar> 
40747
(
1.48845e-05
-4.01553e-09
6.49085e-06
8.39366e-06
1.80058e-05
-8.50787e-09
1.28336e-05
1.16631e-05
2.17818e-05
-1.36136e-08
1.94339e-05
1.51815e-05
2.63495e-05
-1.92393e-08
2.63931e-05
1.93904e-05
3.18748e-05
-2.51493e-08
3.37376e-05
2.45303e-05
3.85585e-05
-3.08849e-08
4.14457e-05
3.08503e-05
4.66431e-05
-3.56626e-08
4.94505e-05
3.86384e-05
5.64223e-05
-3.82592e-08
5.76351e-05
4.82376e-05
6.82511e-05
-3.68964e-08
6.58283e-05
6.00578e-05
8.25591e-05
-2.91369e-08
7.38009e-05
7.45865e-05
9.9866e-05
-1.17946e-08
8.12678e-05
9.23991e-05
0.000120801
1.91494e-08
8.79011e-05
0.000114167
0.000146124
6.86272e-08
9.33597e-05
0.000140665
0.000176756
1.42543e-07
9.7344e-05
0.000172772
0.000213811
2.47762e-07
9.96848e-05
0.00021147
0.000258636
3.91942e-07
0.00010047
0.00025785
0.000312862
5.83078e-07
0.00010007
0.000313262
0.000378464
8.2875e-07
9.88864e-05
0.000379648
0.000457829
1.13526e-06
9.71525e-05
0.000459563
0.000553848
1.50667e-06
9.49443e-05
0.000556056
0.000670017
1.94346e-06
9.22411e-05
0.000672721
0.00081057
2.44045e-06
8.89719e-05
0.000813839
0.000980626
2.98391e-06
8.50371e-05
0.000984561
0.00118638
3.54761e-06
8.03156e-05
0.00119111
0.00143534
4.08783e-06
7.46646e-05
0.00144099
0.00173658
4.53752e-06
6.79173e-05
0.00174333
0.00210107
4.80063e-06
5.98778e-05
0.00210911
0.00254209
4.74891e-06
5.0314e-05
0.00255165
0.0030757
4.22619e-06
3.89454e-05
0.00308707
0.00372128
3.07034e-06
2.54204e-05
0.0037348
0.00356597
1.60912e-06
1.26154e-05
0.00357878
0.00356613
-1.66016e-08
-1.18247e-07
0.00357887
0.00356613
-1.64083e-06
-1.28527e-05
0.00357887
0.00356597
-3.09746e-06
-2.56604e-05
0.00357877
0.00360839
-4.21694e-06
-3.87766e-05
0.0036215
0.00300139
-4.74009e-06
-4.98659e-05
0.00301248
0.00249648
-4.81355e-06
-5.92491e-05
0.00250587
0.00207652
-4.58042e-06
-6.71837e-05
0.00208445
0.00172722
-4.16011e-06
-7.38835e-05
0.00173392
0.0014367
-3.64369e-06
-7.95298e-05
0.00144234
0.00119506
-3.09611e-06
-8.42777e-05
0.00119981
0.000994089
-2.56085e-06
-8.82605e-05
0.000998072
0.000826927
-2.06496e-06
-9.15924e-05
0.000830259
0.000687888
-1.62348e-06
-9.43695e-05
0.000690665
0.000572238
-1.24302e-06
-9.66657e-05
0.000574534
0.00047604
-9.24533e-07
-9.85199e-05
0.000477894
0.000396021
-6.65239e-07
-9.99034e-05
0.000397405
0.000329458
-4.59978e-07
-0.000100669
0.000330224
0.000274088
-3.02138e-07
-0.000100507
0.000273926
0.000228026
-1.84407e-07
-9.90302e-05
0.000226549
0.000189707
-9.9496e-08
-9.60165e-05
0.000186693
0.000157828
-4.06813e-08
-9.15102e-05
0.000153322
0.000131307
-2.06094e-09
-8.57281e-05
0.000125525
0.000109242
2.13754e-08
-7.89646e-05
0.000102479
9.08851e-05
3.3775e-08
-7.15289e-05
8.34494e-05
7.56124e-05
3.84891e-08
-6.37073e-05
6.77909e-05
6.29059e-05
3.81498e-08
-5.57437e-05
5.49423e-05
5.23342e-05
3.47484e-08
-4.7832e-05
4.44224e-05
4.35389e-05
2.97212e-08
-4.01152e-05
3.58221e-05
3.62212e-05
2.40457e-08
-3.26899e-05
2.87958e-05
3.01333e-05
1.83421e-08
-2.56095e-05
2.30529e-05
2.50683e-05
1.29696e-08
-1.88877e-05
1.83466e-05
2.08547e-05
8.10973e-09
-1.24946e-05
1.44615e-05
1.73491e-05
3.83074e-09
-6.32845e-06
1.11829e-05
1.44329e-05
8.10446e-06
2.16351e-06
6.23015e-06
1.89758e-06
2.6593e-07
1.80021e-06
9.73661e-08
1.73781e-06
6.24009e-08
1.69326e-06
4.45478e-08
1.65959e-06
3.3676e-08
1.63302e-06
2.65662e-08
1.61142e-06
2.15996e-08
1.5935e-06
1.79233e-08
1.5784e-06
1.51004e-08
1.56551e-06
1.28816e-08
1.55441e-06
1.11037e-08
1.54476e-06
9.65496e-09
1.5363e-06
8.45711e-09
1.52884e-06
7.45387e-09
1.52224e-06
6.60548e-09
1.51636e-06
5.88302e-09
1.51109e-06
5.26429e-09
1.50636e-06
4.73085e-09
1.50209e-06
4.26732e-09
1.49823e-06
3.86125e-09
1.49473e-06
3.50314e-09
1.49154e-06
3.18593e-09
1.48864e-06
2.90431e-09
1.48599e-06
2.654e-09
1.48356e-06
2.43123e-09
1.48132e-06
2.23253e-09
1.47927e-06
2.05454e-09
1.47737e-06
1.89425e-09
1.47563e-06
1.74896e-09
1.47401e-06
1.61652e-09
1.47252e-06
1.49515e-09
1.47113e-06
1.3835e-09
1.46985e-06
1.28044e-09
1.46867e-06
1.18498e-09
1.46757e-06
1.09618e-09
1.46656e-06
1.01303e-09
1.46562e-06
9.3447e-10
1.46476e-06
8.59367e-10
1.46398e-06
7.86499e-10
1.46326e-06
7.14584e-10
1.46262e-06
6.42282e-10
1.46205e-06
5.68219e-10
1.46156e-06
4.90975e-10
1.46115e-06
4.09112e-10
1.46083e-06
3.21124e-10
1.46061e-06
2.25423e-10
1.46049e-06
1.19771e-10
1.46049e-06
9.54348e-13
1.46062e-06
-1.31417e-10
1.4609e-06
-2.77576e-10
1.46134e-06
-4.39751e-10
1.46196e-06
-6.19168e-10
1.46278e-06
-8.17289e-10
1.46382e-06
-1.036e-09
1.4651e-06
-1.27768e-09
1.46665e-06
-1.54564e-09
1.4685e-06
-1.84332e-09
1.47068e-06
-2.17229e-09
1.47323e-06
-2.54588e-09
1.47616e-06
-2.93232e-09
1.47969e-06
-3.52627e-09
1.48396e-06
-4.2555e-09
1.48684e-06
-2.87598e-09
1.48962e-06
-2.76161e-09
1.49269e-06
-3.06486e-09
1.49608e-06
-3.36784e-09
1.49967e-06
-3.58286e-09
1.50348e-06
-3.78734e-09
1.50749e-06
-3.99208e-09
1.51171e-06
-4.2042e-09
1.51614e-06
-4.42069e-09
1.52081e-06
-4.64855e-09
1.52571e-06
-4.88402e-09
1.53087e-06
-5.13698e-09
1.53629e-06
-5.40356e-09
1.54201e-06
-5.699e-09
1.54805e-06
-6.02204e-09
1.55447e-06
-6.39248e-09
1.56132e-06
-6.81994e-09
1.56868e-06
-7.33276e-09
1.57668e-06
-7.97223e-09
1.58551e-06
-8.80662e-09
1.59557e-06
-1.00383e-08
1.60764e-06
-1.20538e-08
1.62617e-06
-1.85126e-08
1.69152e-06
-6.53459e-08
-7.96769e-07
2.48829e-06
5.26808e-06
1.26252e-05
4.63261e-06
9.01399e-07
4.41578e-06
3.14199e-07
4.28452e-06
1.93662e-07
4.19262e-06
1.36447e-07
4.1237e-06
1.02597e-07
4.0695e-06
8.07684e-08
4.02547e-06
6.5629e-08
3.98893e-06
5.44568e-08
3.95815e-06
4.58886e-08
3.93187e-06
3.91581e-08
3.90921e-06
3.37666e-08
3.88949e-06
2.9373e-08
3.87221e-06
2.57392e-08
3.85697e-06
2.26952e-08
3.84345e-06
2.01203e-08
3.83141e-06
1.7927e-08
3.82063e-06
1.60478e-08
3.81093e-06
1.44271e-08
3.80218e-06
1.30182e-08
3.79426e-06
1.17835e-08
3.78707e-06
1.06942e-08
3.78052e-06
9.72892e-09
3.77456e-06
8.87157e-09
3.7691e-06
8.10925e-09
3.7641e-06
7.4306e-09
3.75951e-06
6.82507e-09
3.75528e-06
6.28255e-09
3.75138e-06
5.79379e-09
3.74778e-06
5.35066e-09
3.74445e-06
4.94649e-09
3.74137e-06
4.57594e-09
3.73852e-06
4.23486e-09
3.73588e-06
3.91984e-09
3.73344e-06
3.62785e-09
3.73118e-06
3.35594e-09
3.72909e-06
3.10101e-09
3.72717e-06
2.85975e-09
3.7254e-06
2.6286e-09
3.72378e-06
2.40373e-09
3.72232e-06
2.18111e-09
3.721e-06
1.95653e-09
3.71985e-06
1.72566e-09
3.71885e-06
1.48402e-09
3.71804e-06
1.22704e-09
3.71741e-06
9.49958e-10
3.71699e-06
6.47684e-10
3.7168e-06
3.12708e-10
3.71686e-06
-6.49581e-11
3.71722e-06
-4.86398e-10
3.7179e-06
-9.52413e-10
3.71893e-06
-1.46987e-09
3.72036e-06
-2.04277e-09
3.72222e-06
-2.67595e-09
3.72457e-06
-3.37508e-09
3.72744e-06
-4.1485e-09
3.73091e-06
-5.00571e-09
3.73503e-06
-5.95971e-09
3.73988e-06
-7.01147e-09
3.74556e-06
-8.21617e-09
3.75206e-06
-9.42639e-09
3.75998e-06
-1.14351e-08
3.76938e-06
-1.36334e-08
3.77584e-06
-9.32309e-09
3.78215e-06
-9.04734e-09
3.78891e-06
-9.80458e-09
3.79637e-06
-1.07974e-08
3.80433e-06
-1.15135e-08
3.81275e-06
-1.21754e-08
3.82163e-06
-1.28397e-08
3.83098e-06
-1.35175e-08
3.84081e-06
-1.42171e-08
3.85113e-06
-1.49428e-08
3.86198e-06
-1.57035e-08
3.87339e-06
-1.65089e-08
3.88539e-06
-1.73703e-08
3.89804e-06
-1.83112e-08
3.91142e-06
-1.93508e-08
3.92561e-06
-2.05302e-08
3.94074e-06
-2.18957e-08
3.95698e-06
-2.35233e-08
3.97462e-06
-2.55618e-08
3.99403e-06
-2.81686e-08
4.01623e-06
-3.21994e-08
4.0421e-06
-3.78874e-08
4.08258e-06
-5.89685e-08
4.1715e-06
-1.54273e-07
-9.88236e-07
4.36297e-06
8.24098e-06
1.95657e-05
7.22619e-06
1.91618e-06
6.88439e-06
6.55999e-07
6.68505e-06
3.93004e-07
6.54778e-06
2.73715e-07
6.4457e-06
2.04684e-07
6.36578e-06
1.60689e-07
6.30102e-06
1.30383e-07
6.24738e-06
1.08101e-07
6.20222e-06
9.10479e-08
6.16371e-06
7.76714e-08
6.13051e-06
6.69669e-08
6.10163e-06
5.82487e-08
6.07633e-06
5.10411e-08
6.05402e-06
4.50052e-08
6.03424e-06
3.99008e-08
6.01661e-06
3.55538e-08
6.00083e-06
3.18295e-08
5.98664e-06
2.86175e-08
5.97383e-06
2.58254e-08
5.96224e-06
2.33787e-08
5.95171e-06
2.12201e-08
5.94214e-06
1.93071e-08
5.9334e-06
1.76077e-08
5.92541e-06
1.60965e-08
5.91809e-06
1.47511e-08
5.91137e-06
1.35505e-08
5.90518e-06
1.24749e-08
5.89947e-06
1.15058e-08
5.89419e-06
1.06271e-08
5.88931e-06
9.8254e-09
5.8848e-06
9.09021e-09
5.88062e-06
8.41324e-09
5.87675e-06
7.78774e-09
5.87317e-06
7.2077e-09
5.86986e-06
6.66723e-09
5.8668e-06
6.16017e-09
5.86398e-06
5.67984e-09
5.86139e-06
5.21905e-09
5.85903e-06
4.77006e-09
5.85688e-06
4.32471e-09
5.85497e-06
3.87445e-09
5.85328e-06
3.41049e-09
5.85184e-06
2.92373e-09
5.85067e-06
2.4049e-09
5.84977e-06
1.84429e-09
5.84919e-06
1.23156e-09
5.84895e-06
5.50977e-10
5.84911e-06
-2.17682e-10
5.8497e-06
-1.07647e-09
5.85078e-06
-2.02687e-09
5.8524e-06
-3.08256e-09
5.85461e-06
-4.25182e-09
5.85748e-06
-5.54467e-09
5.86108e-06
-6.97248e-09
5.86549e-06
-8.55264e-09
5.8708e-06
-1.03041e-08
5.8771e-06
-1.22546e-08
5.8845e-06
-1.44035e-08
5.89317e-06
-1.68734e-08
5.90308e-06
-1.93241e-08
5.91518e-06
-2.35209e-08
5.92938e-06
-2.78228e-08
5.93928e-06
-1.92042e-08
5.94906e-06
-1.88009e-08
5.95935e-06
-2.00724e-08
5.97067e-06
-2.20863e-08
5.98277e-06
-2.35779e-08
5.99557e-06
-2.4944e-08
6.00908e-06
-2.63099e-08
6.02329e-06
-2.7697e-08
6.03824e-06
-2.91295e-08
6.05394e-06
-3.06107e-08
6.07044e-06
-3.21659e-08
6.08777e-06
-3.38069e-08
6.10601e-06
-3.55657e-08
6.12522e-06
-3.74801e-08
6.14552e-06
-3.95981e-08
6.16703e-06
-4.19932e-08
6.18996e-06
-4.47649e-08
6.21455e-06
-4.80567e-08
6.24122e-06
-5.2174e-08
6.27049e-06
-5.7388e-08
6.30387e-06
-6.55334e-08
6.34233e-06
-7.63208e-08
6.40041e-06
-1.17022e-07
6.49486e-06
-2.48722e-07
-9.46128e-07
6.45275e-06
1.1745e-05
2.72111e-05
1.0261e-05
3.40018e-06
9.75557e-06
1.16145e-06
9.46937e-06
6.79201e-07
9.27535e-06
4.67741e-07
9.13227e-06
3.47763e-07
9.02081e-06
2.72146e-07
8.93078e-06
2.20415e-07
8.85634e-06
1.82539e-07
8.79376e-06
1.53625e-07
8.74045e-06
1.30985e-07
8.69452e-06
1.12892e-07
8.6546e-06
9.81699e-08
8.61964e-06
8.60061e-08
8.58882e-06
7.58255e-08
8.5615e-06
6.72199e-08
8.53716e-06
5.98939e-08
8.51537e-06
5.36186e-08
8.49578e-06
4.82077e-08
8.4781e-06
4.35049e-08
8.4621e-06
3.93846e-08
8.44757e-06
3.57499e-08
8.43435e-06
3.25289e-08
8.42229e-06
2.96676e-08
8.41126e-06
2.71229e-08
8.40115e-06
2.48572e-08
8.39187e-06
2.28356e-08
8.38332e-06
2.10244e-08
8.37543e-06
1.93927e-08
8.36815e-06
1.79132e-08
8.36141e-06
1.65632e-08
8.35518e-06
1.53249e-08
8.34941e-06
1.41845e-08
8.34406e-06
1.31304e-08
8.33912e-06
1.21526e-08
8.33455e-06
1.12411e-08
8.33032e-06
1.03855e-08
8.32643e-06
9.57451e-09
8.32285e-06
8.79576e-09
8.31959e-06
8.0361e-09
8.31663e-06
7.28156e-09
8.31399e-06
6.51753e-09
8.31167e-06
5.72893e-09
8.3097e-06
4.90021e-09
8.30809e-06
4.01543e-09
8.30687e-06
3.058e-09
8.3061e-06
2.01013e-09
8.30581e-06
8.44465e-10
8.30606e-06
-4.73764e-10
8.30694e-06
-1.94809e-09
8.3085e-06
-3.58066e-09
8.31081e-06
-5.39443e-09
8.31397e-06
-7.40381e-09
8.31806e-06
-9.62613e-09
8.32317e-06
-1.20808e-08
8.32942e-06
-1.47978e-08
8.33694e-06
-1.78095e-08
8.34586e-06
-2.11641e-08
8.35632e-06
-2.48593e-08
8.36857e-06
-2.91118e-08
8.38258e-06
-3.33137e-08
8.39964e-06
-4.05739e-08
8.41954e-06
-4.76987e-08
8.43355e-06
-3.3195e-08
8.44755e-06
-3.27704e-08
8.46213e-06
-3.46177e-08
8.47807e-06
-3.7988e-08
8.4951e-06
-4.05716e-08
8.51313e-06
-4.29336e-08
8.53215e-06
-4.52867e-08
8.55217e-06
-4.76693e-08
8.57321e-06
-5.01275e-08
8.5953e-06
-5.26646e-08
8.61851e-06
-5.5327e-08
8.64288e-06
-5.81313e-08
8.66849e-06
-6.11357e-08
8.69546e-06
-6.43986e-08
8.72393e-06
-6.80059e-08
8.75408e-06
-7.20753e-08
8.78616e-06
-7.67764e-08
8.82052e-06
-8.23431e-08
8.8577e-06
-8.92832e-08
8.8984e-06
-9.80275e-08
8.94454e-06
-1.11625e-07
8.99744e-06
-1.29177e-07
9.07308e-06
-1.92629e-07
9.17173e-06
-3.47386e-07
-8.45213e-07
9.07081e-06
1.60741e-05
3.56673e-05
1.40048e-05
5.46948e-06
1.32807e-05
1.8855e-06
1.28802e-05
1.07974e-06
1.26127e-05
7.35268e-07
1.24171e-05
5.43342e-07
1.22656e-05
4.23687e-07
1.21436e-05
3.42407e-07
1.20429e-05
2.8317e-07
1.19585e-05
2.38084e-07
1.18866e-05
2.02856e-07
1.18247e-05
1.74747e-07
1.1771e-05
1.51901e-07
1.1724e-05
1.33041e-07
1.16825e-05
1.17267e-07
1.16458e-05
1.03942e-07
1.16131e-05
9.26033e-08
1.15838e-05
8.28939e-08
1.15575e-05
7.45241e-08
1.15338e-05
6.72518e-08
1.15123e-05
6.08818e-08
1.14928e-05
5.5264e-08
1.1475e-05
5.0286e-08
1.14588e-05
4.58641e-08
1.1444e-05
4.19314e-08
1.14304e-05
3.84301e-08
1.1418e-05
3.53059e-08
1.14065e-05
3.25071e-08
1.13959e-05
2.99859e-08
1.13861e-05
2.76999e-08
1.13771e-05
2.56141e-08
1.13687e-05
2.37008e-08
1.13609e-05
2.19383e-08
1.13537e-05
2.0309e-08
1.13471e-05
1.87971e-08
1.1341e-05
1.73874e-08
1.13353e-05
1.60636e-08
1.133e-05
1.4808e-08
1.13252e-05
1.36017e-08
1.13209e-05
1.24239e-08
1.13169e-05
1.1253e-08
1.13133e-05
1.0066e-08
1.13102e-05
8.83944e-09
1.13076e-05
7.54896e-09
1.13054e-05
6.16963e-09
1.13038e-05
4.67548e-09
1.13028e-05
3.03868e-09
1.13024e-05
1.21615e-09
1.13028e-05
-8.46897e-10
1.1304e-05
-3.15641e-09
1.13061e-05
-5.71498e-09
1.13093e-05
-8.5577e-09
1.13136e-05
-1.17074e-08
1.13192e-05
-1.51913e-08
1.13262e-05
-1.90396e-08
1.13347e-05
-2.32994e-08
1.13449e-05
-2.80209e-08
1.1357e-05
-3.328e-08
1.13713e-05
-3.9073e-08
1.13879e-05
-4.5739e-08
1.14069e-05
-5.23286e-08
1.143e-05
-6.36755e-08
1.14568e-05
-7.44339e-08
1.14758e-05
-5.21928e-08
1.14951e-05
-5.19662e-08
1.1515e-05
-5.44614e-08
1.15365e-05
-5.95371e-08
1.15596e-05
-6.35788e-08
1.1584e-05
-6.72841e-08
1.16097e-05
-7.09665e-08
1.16368e-05
-7.46863e-08
1.16653e-05
-7.85188e-08
1.16951e-05
-8.24677e-08
1.17265e-05
-8.6607e-08
1.17593e-05
-9.09589e-08
1.17939e-05
-9.56159e-08
1.18302e-05
-1.00662e-07
1.18685e-05
-1.06232e-07
1.1909e-05
-1.125e-07
1.19521e-05
-1.19724e-07
1.19981e-05
-1.28254e-07
1.20477e-05
-1.38844e-07
1.21019e-05
-1.52143e-07
1.21629e-05
-1.7259e-07
1.22325e-05
-1.98728e-07
1.23268e-05
-2.86828e-07
1.24321e-05
-4.52757e-07
-7.90426e-07
1.23773e-05
2.15073e-05
4.50103e-05
1.87099e-05
8.26692e-06
1.76921e-05
2.90329e-06
1.71388e-05
1.63305e-06
1.67745e-05
1.09961e-06
1.65105e-05
8.07328e-07
1.63071e-05
6.27046e-07
1.6144e-05
5.05485e-07
1.60099e-05
4.17339e-07
1.58975e-05
3.50481e-07
1.5802e-05
2.98367e-07
1.57198e-05
2.56859e-07
1.56486e-05
2.2317e-07
1.55862e-05
1.95388e-07
1.55313e-05
1.72172e-07
1.54827e-05
1.52574e-07
1.54394e-05
1.35907e-07
1.54006e-05
1.21641e-07
1.53658e-05
1.09348e-07
1.53344e-05
9.86698e-08
1.5306e-05
8.932e-08
1.52802e-05
8.10767e-08
1.52567e-05
7.37738e-08
1.52352e-05
6.72872e-08
1.52157e-05
6.15185e-08
1.51977e-05
5.63824e-08
1.51812e-05
5.17998e-08
1.5166e-05
4.76949e-08
1.5152e-05
4.39974e-08
1.51391e-05
4.06452e-08
1.51271e-05
3.75869e-08
1.5116e-05
3.47815e-08
1.51058e-05
3.21971e-08
1.50963e-05
2.98077e-08
1.50875e-05
2.75901e-08
1.50793e-05
2.55219e-08
1.50718e-05
2.3579e-08
1.50649e-05
2.17357e-08
1.50585e-05
1.99637e-08
1.50527e-05
1.82328e-08
1.50475e-05
1.65108e-08
1.50428e-05
1.4764e-08
1.50387e-05
1.29575e-08
1.50352e-05
1.10555e-08
1.50323e-05
9.02113e-09
1.50302e-05
6.81595e-09
1.50288e-05
4.39883e-09
1.50283e-05
1.70622e-09
1.50288e-05
-1.34382e-09
1.50304e-05
-4.76123e-09
1.50333e-05
-8.54847e-09
1.50375e-05
-1.27562e-08
1.50432e-05
-1.74184e-08
1.50506e-05
-2.25754e-08
1.50598e-05
-2.82716e-08
1.50711e-05
-3.45761e-08
1.50847e-05
-4.15631e-08
1.51008e-05
-4.93441e-08
1.51196e-05
-5.79155e-08
1.51417e-05
-6.77696e-08
1.51669e-05
-7.75412e-08
1.51974e-05
-9.41805e-08
1.52325e-05
-1.09485e-07
1.52577e-05
-7.73033e-08
1.52834e-05
-7.76438e-08
1.53099e-05
-8.08916e-08
1.53385e-05
-8.80425e-08
1.53689e-05
-9.39621e-08
1.54011e-05
-9.94219e-08
1.54351e-05
-1.04842e-07
1.54708e-05
-1.10307e-07
1.55082e-05
-1.15929e-07
1.55476e-05
-1.21712e-07
1.55888e-05
-1.27764e-07
1.5632e-05
-1.34115e-07
1.56774e-05
-1.409e-07
1.57251e-05
-1.48234e-07
1.57752e-05
-1.56312e-07
1.58282e-05
-1.65378e-07
1.58844e-05
-1.75797e-07
1.59443e-05
-1.88063e-07
1.60088e-05
-2.0322e-07
1.6079e-05
-2.22208e-07
1.61574e-05
-2.50964e-07
1.62464e-05
-2.87624e-07
1.6361e-05
-4.01368e-07
1.64782e-05
-5.69959e-07
-8.34512e-07
1.65223e-05
2.83644e-05
5.52842e-05
2.46697e-05
1.19616e-05
2.32575e-05
4.3155e-06
2.24984e-05
2.39216e-06
2.20051e-05
1.59287e-06
2.1651e-05
1.16145e-06
2.13799e-05
8.98134e-07
2.11635e-05
7.21939e-07
2.09859e-05
5.94891e-07
2.08375e-05
4.98897e-07
2.07116e-05
4.2428e-07
2.06035e-05
3.64974e-07
2.05097e-05
3.16915e-07
2.04278e-05
2.77334e-07
2.03557e-05
2.44293e-07
2.02918e-05
2.16424e-07
2.0235e-05
1.92739e-07
2.01841e-05
1.72476e-07
2.01385e-05
1.55023e-07
2.00973e-05
1.39869e-07
2.006e-05
1.26606e-07
2.00262e-05
1.14917e-07
1.99954e-05
1.04564e-07
1.99673e-05
9.53694e-08
1.99416e-05
8.71932e-08
1.99181e-05
7.99137e-08
1.98965e-05
7.3419e-08
1.98766e-05
6.76016e-08
1.98582e-05
6.23625e-08
1.98412e-05
5.76134e-08
1.98255e-05
5.32811e-08
1.9811e-05
4.93077e-08
1.97976e-05
4.56472e-08
1.97851e-05
4.22629e-08
1.97736e-05
3.91216e-08
1.97629e-05
3.61914e-08
1.9753e-05
3.34382e-08
1.9744e-05
3.08254e-08
1.97356e-05
2.8313e-08
1.9728e-05
2.58581e-08
1.97211e-05
2.34149e-08
1.97149e-05
2.09356e-08
1.97095e-05
1.83708e-08
1.97049e-05
1.56693e-08
1.97011e-05
1.27789e-08
1.96983e-05
9.64484e-09
1.96965e-05
6.20872e-09
1.96958e-05
2.38111e-09
1.96965e-05
-1.95645e-09
1.96985e-05
-6.82053e-09
1.97022e-05
-1.22123e-08
1.97076e-05
-1.82019e-08
1.97151e-05
-2.48381e-08
1.97247e-05
-3.21779e-08
1.97367e-05
-4.02842e-08
1.97514e-05
-4.92542e-08
1.97691e-05
-5.91927e-08
1.979e-05
-7.02569e-08
1.98146e-05
-8.24457e-08
1.98433e-05
-9.64374e-08
1.98761e-05
-1.10379e-07
1.99157e-05
-1.3373e-07
1.99609e-05
-1.54608e-07
1.99935e-05
-1.09846e-07
2.00272e-05
-1.11308e-07
2.00619e-05
-1.1548e-07
2.0099e-05
-1.25106e-07
2.01385e-05
-1.33381e-07
2.01803e-05
-1.41077e-07
2.02243e-05
-1.4872e-07
2.02705e-05
-1.56413e-07
2.03189e-05
-1.64316e-07
2.03698e-05
-1.72429e-07
2.0423e-05
-1.80906e-07
2.04788e-05
-1.89782e-07
2.05372e-05
-1.99246e-07
2.05986e-05
-2.09449e-07
2.0663e-05
-2.2066e-07
2.0731e-05
-2.33203e-07
2.08029e-05
-2.47575e-07
2.08795e-05
-2.64439e-07
2.09616e-05
-2.85174e-07
2.10506e-05
-3.11091e-07
2.11494e-05
-3.49669e-07
2.12608e-05
-3.98873e-07
2.1398e-05
-5.38585e-07
2.15339e-05
-7.05818e-07
-9.87245e-07
2.16866e-05
3.70302e-05
6.64916e-05
3.2246e-05
1.67458e-05
3.03067e-05
6.25479e-06
2.9269e-05
3.42986e-06
2.86027e-05
2.25919e-06
2.81288e-05
1.63542e-06
2.77684e-05
1.25853e-06
2.7482e-05
1.00832e-06
2.72479e-05
8.29007e-07
2.70527e-05
6.9411e-07
2.68873e-05
5.89582e-07
2.67456e-05
5.06702e-07
2.66229e-05
4.39666e-07
2.65157e-05
3.84536e-07
2.64214e-05
3.38572e-07
2.6338e-05
2.99843e-07
2.62638e-05
2.66954e-07
2.61974e-05
2.38834e-07
2.61378e-05
2.14625e-07
2.60841e-05
1.93616e-07
2.60354e-05
1.75238e-07
2.59913e-05
1.59048e-07
2.59511e-05
1.44713e-07
2.59145e-05
1.31986e-07
2.58811e-05
1.20669e-07
2.58504e-05
1.10594e-07
2.58222e-05
1.01605e-07
2.57962e-05
9.35541e-08
2.57723e-05
8.63047e-08
2.57502e-05
7.97347e-08
2.57297e-05
7.37427e-08
2.57108e-05
6.82479e-08
2.56933e-05
6.31866e-08
2.5677e-05
5.85073e-08
2.5662e-05
5.41641e-08
2.5648e-05
5.01123e-08
2.56352e-05
4.6305e-08
2.56233e-05
4.26914e-08
2.56124e-05
3.92163e-08
2.56025e-05
3.58204e-08
2.55934e-05
3.24405e-08
2.55854e-05
2.90105e-08
2.55783e-05
2.54623e-08
2.55722e-05
2.17252e-08
2.55673e-05
1.77267e-08
2.55635e-05
1.33917e-08
2.55611e-05
8.63912e-09
2.55602e-05
3.34787e-09
2.55609e-05
-2.64931e-09
2.55634e-05
-9.37981e-09
2.55681e-05
-1.68416e-08
2.5575e-05
-2.51288e-08
2.55845e-05
-3.43093e-08
2.55968e-05
-4.44612e-08
2.56122e-05
-5.56709e-08
2.5631e-05
-6.80712e-08
2.56537e-05
-8.18051e-08
2.56805e-05
-9.70874e-08
2.57121e-05
-1.13923e-07
2.57489e-05
-1.33212e-07
2.57911e-05
-1.52545e-07
2.58417e-05
-1.84273e-07
2.5899e-05
-2.11885e-07
2.59406e-05
-1.51365e-07
2.59841e-05
-1.54721e-07
2.60288e-05
-1.60095e-07
2.60765e-05
-1.72646e-07
2.6127e-05
-1.83819e-07
2.61804e-05
-1.94308e-07
2.62366e-05
-2.04739e-07
2.62955e-05
-2.15228e-07
2.63573e-05
-2.25987e-07
2.6422e-05
-2.37011e-07
2.64898e-05
-2.48509e-07
2.65606e-05
-2.6052e-07
2.66348e-05
-2.73297e-07
2.67126e-05
-2.87033e-07
2.67942e-05
-3.02083e-07
2.68801e-05
-3.1887e-07
2.69707e-05
-3.38038e-07
2.70669e-05
-3.60455e-07
2.71698e-05
-3.87873e-07
2.7281e-05
-4.22059e-07
2.74035e-05
-4.72002e-07
2.75406e-05
-5.35843e-07
2.77034e-05
-7.01294e-07
2.78654e-05
-8.67871e-07
-1.23075e-06
2.81088e-05
4.7973e-05
7.85764e-05
4.18929e-05
2.28259e-05
3.92552e-05
8.89257e-06
3.78396e-05
4.84542e-06
3.69394e-05
3.15934e-06
3.63049e-05
2.26997e-06
3.58258e-05
1.73763e-06
3.54471e-05
1.38704e-06
3.51387e-05
1.13742e-06
3.48822e-05
9.50552e-07
3.46655e-05
8.06262e-07
3.44801e-05
6.92165e-07
3.43197e-05
6.00079e-07
3.41797e-05
5.24481e-07
3.40568e-05
4.61541e-07
3.3948e-05
4.08571e-07
3.38514e-05
3.6363e-07
3.3765e-05
3.25235e-07
3.36874e-05
2.92199e-07
3.36175e-05
2.63547e-07
3.35542e-05
2.38496e-07
3.34968e-05
2.1644e-07
3.34446e-05
1.96921e-07
3.3397e-05
1.79595e-07
3.33535e-05
1.64192e-07
3.33136e-05
1.5048e-07
3.3277e-05
1.38246e-07
3.32432e-05
1.27291e-07
3.32121e-05
1.17427e-07
3.31833e-05
1.0849e-07
3.31568e-05
1.00342e-07
3.31321e-05
9.28714e-08
3.31093e-05
8.5992e-08
3.30882e-05
7.96327e-08
3.30686e-05
7.37307e-08
3.30505e-05
6.82249e-08
3.30338e-05
6.30515e-08
3.30183e-05
5.81414e-08
3.30041e-05
5.34199e-08
3.29912e-05
4.88065e-08
3.29794e-05
4.42161e-08
3.29688e-05
3.95593e-08
3.29596e-05
3.47436e-08
3.29516e-05
2.96738e-08
3.29451e-05
2.4252e-08
3.29401e-05
1.83761e-08
3.29368e-05
1.19372e-08
3.29354e-05
4.77578e-09
3.29361e-05
-3.33995e-09
3.29392e-05
-1.24549e-08
3.29449e-05
-2.25606e-08
3.29536e-05
-3.37809e-08
3.29655e-05
-4.62071e-08
3.2981e-05
-5.99444e-08
3.30005e-05
-7.51085e-08
3.30243e-05
-9.18762e-08
3.3053e-05
-1.10438e-07
3.30871e-05
-1.3108e-07
3.3127e-05
-1.5382e-07
3.31737e-05
-1.79813e-07
3.32272e-05
-2.06035e-07
3.32911e-05
-2.48081e-07
3.3363e-05
-2.83754e-07
3.34154e-05
-2.03645e-07
3.34707e-05
-2.09899e-07
3.35277e-05
-2.16915e-07
3.35881e-05
-2.32911e-07
3.36521e-05
-2.47603e-07
3.37195e-05
-2.61524e-07
3.37903e-05
-2.75399e-07
3.38646e-05
-2.89342e-07
3.39424e-05
-3.03627e-07
3.40238e-05
-3.18234e-07
3.41089e-05
-3.33439e-07
3.41979e-05
-3.49283e-07
3.42909e-05
-3.66096e-07
3.43882e-05
-3.84117e-07
3.44902e-05
-4.03802e-07
3.45972e-05
-4.25686e-07
3.47101e-05
-4.50583e-07
3.48295e-05
-4.79601e-07
3.49568e-05
-5.14893e-07
3.50937e-05
-5.58783e-07
3.52435e-05
-6.21636e-07
3.54101e-05
-7.02249e-07
3.56016e-05
-8.92671e-07
3.57971e-05
-1.06342e-06
-1.5369e-06
3.61031e-05
6.17613e-05
9.14017e-05
5.41822e-05
3.04049e-05
5.06304e-05
1.24444e-05
4.87027e-05
6.77316e-06
4.7485e-05
4.377e-06
4.66338e-05
3.12119e-06
4.59957e-05
2.37572e-06
4.54942e-05
1.8886e-06
4.50874e-05
1.54416e-06
4.47503e-05
1.28767e-06
4.44661e-05
1.09041e-06
4.42234e-05
9.34908e-07
4.40138e-05
8.09709e-07
4.38311e-05
7.07133e-07
4.36708e-05
6.21876e-07
4.35292e-05
5.50223e-07
4.34033e-05
4.89497e-07
4.32909e-05
4.37659e-07
4.319e-05
3.9309e-07
4.30991e-05
3.54461e-07
4.30168e-05
3.20711e-07
4.29423e-05
2.91013e-07
4.28745e-05
2.64746e-07
4.28126e-05
2.41439e-07
4.27561e-05
2.20722e-07
4.27043e-05
2.02282e-07
4.26567e-05
1.85831e-07
4.26129e-05
1.71101e-07
4.25725e-05
1.57841e-07
4.25352e-05
1.4583e-07
4.25006e-05
1.34882e-07
4.24686e-05
1.24849e-07
4.2439e-05
1.15612e-07
4.24116e-05
1.07077e-07
4.23862e-05
9.9156e-08
4.23626e-05
9.17685e-08
4.23409e-05
8.48279e-08
4.23208e-05
7.8242e-08
4.23023e-05
7.19108e-08
4.22854e-05
6.57271e-08
4.227e-05
5.95776e-08
4.22562e-05
5.33434e-08
4.22441e-05
4.69018e-08
4.22336e-05
4.01259e-08
4.2225e-05
3.28856e-08
4.22183e-05
2.50456e-08
4.22138e-05
1.6461e-08
4.22117e-05
6.92829e-09
4.22122e-05
-3.86951e-09
4.22158e-05
-1.60049e-08
4.22227e-05
-2.94592e-08
4.22334e-05
-4.43911e-08
4.22481e-05
-6.09215e-08
4.22674e-05
-7.9189e-08
4.22917e-05
-9.93456e-08
4.23215e-05
-1.21622e-07
4.23573e-05
-1.46268e-07
4.24e-05
-1.73655e-07
4.24501e-05
-2.03822e-07
4.25085e-05
-2.38214e-07
4.25757e-05
-2.73149e-07
4.26555e-05
-3.2776e-07
4.27449e-05
-3.73034e-07
4.28101e-05
-2.68718e-07
4.28795e-05
-2.79115e-07
4.29512e-05
-2.88421e-07
4.3027e-05
-3.08488e-07
4.31071e-05
-3.27419e-07
4.31913e-05
-3.45506e-07
4.32797e-05
-3.63579e-07
4.33724e-05
-3.81734e-07
4.34693e-05
-4.00313e-07
4.35706e-05
-4.19273e-07
4.36764e-05
-4.38969e-07
4.37868e-05
-4.5944e-07
4.39021e-05
-4.81106e-07
4.40225e-05
-5.04256e-07
4.41485e-05
-5.29463e-07
4.42805e-05
-5.57389e-07
4.44194e-05
-5.89041e-07
4.45659e-05
-6.25797e-07
4.47216e-05
-6.70241e-07
4.48885e-05
-7.25344e-07
4.50697e-05
-8.0262e-07
4.52698e-05
-9.02125e-07
4.54934e-05
-1.11615e-06
4.57287e-05
-1.29876e-06
-1.87939e-06
4.6071e-05
7.90782e-05
0.000104723
6.98318e-05
3.96513e-05
6.51051e-05
1.71712e-05
6.2486e-05
9.39224e-06
6.08359e-05
6.02709e-06
5.96905e-05
4.26661e-06
5.88379e-05
3.22833e-06
5.81716e-05
2.55485e-06
5.76338e-05
2.082e-06
5.71896e-05
1.7319e-06
5.68162e-05
1.46381e-06
5.64979e-05
1.25319e-06
5.62235e-05
1.08409e-06
5.59848e-05
9.45858e-07
5.57755e-05
8.31187e-07
5.55907e-05
7.34968e-07
5.54267e-05
6.53526e-07
5.52803e-05
5.84075e-07
5.5149e-05
5.24411e-07
5.50307e-05
4.72742e-07
5.49238e-05
4.27631e-07
5.48268e-05
3.87968e-07
5.47387e-05
3.52907e-07
5.46583e-05
3.21813e-07
5.45848e-05
2.94182e-07
5.45175e-05
2.69592e-07
5.44557e-05
2.47657e-07
5.43988e-05
2.28017e-07
5.43463e-05
2.10341e-07
5.42978e-05
1.94335e-07
5.4253e-05
1.79752e-07
5.42114e-05
1.66393e-07
5.41729e-05
1.541e-07
5.41373e-05
1.42743e-07
5.41042e-05
1.32209e-07
5.40736e-05
1.22387e-07
5.40453e-05
1.13161e-07
5.40191e-05
1.04411e-07
5.3995e-05
9.6003e-08
5.3973e-05
8.77969e-08
5.39529e-05
7.96433e-08
5.39349e-05
7.13864e-08
5.39189e-05
6.28651e-08
5.39051e-05
5.39132e-08
5.38937e-05
4.43603e-08
5.38847e-05
3.4029e-08
5.38785e-05
2.273e-08
5.38752e-05
1.02095e-08
5.38753e-05
-3.95901e-09
5.38792e-05
-1.98918e-08
5.38873e-05
-3.75551e-08
5.39001e-05
-5.71477e-08
5.39181e-05
-7.88267e-08
5.39417e-05
-1.02772e-07
5.39716e-05
-1.29179e-07
5.40084e-05
-1.58346e-07
5.40528e-05
-1.90592e-07
5.41056e-05
-2.26394e-07
5.41678e-05
-2.6582e-07
5.42403e-05
-3.10643e-07
5.43238e-05
-3.56489e-07
5.44224e-05
-4.26248e-07
5.45325e-05
-4.82953e-07
5.46128e-05
-3.48883e-07
5.46989e-05
-3.64891e-07
5.47881e-05
-3.77392e-07
5.48822e-05
-4.02291e-07
5.49814e-05
-4.26311e-07
5.50857e-05
-4.49413e-07
5.5195e-05
-4.72547e-07
5.53094e-05
-4.9578e-07
5.54289e-05
-5.19531e-07
5.55537e-05
-5.43722e-07
5.56839e-05
-5.68796e-07
5.58196e-05
-5.94791e-07
5.5961e-05
-6.22226e-07
5.61086e-05
-6.51448e-07
5.62627e-05
-6.8316e-07
5.6424e-05
-7.18168e-07
5.65931e-05
-7.57691e-07
5.67712e-05
-8.03413e-07
5.69597e-05
-8.5836e-07
5.7161e-05
-9.26232e-07
5.73781e-05
-1.01937e-06
5.76159e-05
-1.13973e-06
5.78753e-05
-1.37535e-06
5.8155e-05
-1.57858e-06
-2.23902e-06
5.85144e-05
0.000100732
0.000118158
8.97351e-05
5.06483e-05
8.35358e-05
2.33704e-05
7.99917e-05
1.29364e-05
7.77524e-05
8.26642e-06
7.62056e-05
5.81338e-06
7.50616e-05
4.37236e-06
7.41728e-05
3.44358e-06
7.34588e-05
2.79601e-06
7.28713e-05
2.31941e-06
7.2379e-05
1.95616e-06
7.19603e-05
1.67184e-06
7.16002e-05
1.44427e-06
7.12873e-05
1.25873e-06
7.10133e-05
1.10514e-06
7.07718e-05
9.76505e-07
7.05576e-05
8.67784e-07
7.03665e-05
7.7518e-07
7.01952e-05
6.95704e-07
7.0041e-05
6.26938e-07
6.99017e-05
5.66956e-07
6.97754e-05
5.1426e-07
6.96606e-05
4.67715e-07
6.95559e-05
4.26458e-07
6.94603e-05
3.89812e-07
6.93727e-05
3.57204e-07
6.92922e-05
3.28122e-07
6.92182e-05
3.02085e-07
6.91499e-05
2.78658e-07
6.90868e-05
2.57451e-07
6.90284e-05
2.38137e-07
6.89743e-05
2.20455e-07
6.89243e-05
2.04191e-07
6.88778e-05
1.89175e-07
6.88348e-05
1.75252e-07
6.87949e-05
1.62275e-07
6.8758e-05
1.50093e-07
6.87239e-05
1.38545e-07
6.86924e-05
1.27458e-07
6.86636e-05
1.16647e-07
6.86373e-05
1.0592e-07
6.86136e-05
9.50723e-08
6.85926e-05
8.38964e-08
6.85744e-05
7.21766e-08
6.8559e-05
5.96923e-08
6.85469e-05
4.62137e-08
6.85381e-05
3.14967e-08
6.85331e-05
1.52311e-08
6.85324e-05
-3.14554e-09
6.85363e-05
-2.38186e-08
6.85456e-05
-4.67373e-08
6.85606e-05
-7.21417e-08
6.85821e-05
-1.00233e-07
6.86106e-05
-1.31241e-07
6.86469e-05
-1.65416e-07
6.86918e-05
-2.03134e-07
6.87462e-05
-2.44799e-07
6.88109e-05
-2.91015e-07
6.88871e-05
-3.4189e-07
6.89762e-05
-3.99557e-07
6.90788e-05
-4.58947e-07
6.91996e-05
-5.46799e-07
6.9334e-05
-6.17156e-07
6.94321e-05
-4.46709e-07
6.95376e-05
-4.69991e-07
6.96474e-05
-4.8689e-07
6.97631e-05
-5.17551e-07
6.98849e-05
-5.4767e-07
7.00127e-05
-5.76778e-07
7.01466e-05
-6.05966e-07
7.02866e-05
-6.35267e-07
7.04327e-05
-6.65185e-07
7.0585e-05
-6.95602e-07
7.07437e-05
-7.27056e-07
7.09089e-05
-7.59584e-07
7.1081e-05
-7.9381e-07
7.12602e-05
-8.30156e-07
7.1447e-05
-8.69456e-07
7.16421e-05
-9.12686e-07
7.18464e-05
-9.6129e-07
7.20608e-05
-1.01729e-06
7.22871e-05
-1.08414e-06
7.25277e-05
-1.16633e-06
7.27853e-05
-1.27662e-06
7.30653e-05
-1.41943e-06
7.33642e-05
-1.67398e-06
7.36909e-05
-1.90541e-06
-2.60469e-06
7.40562e-05
0.000127658
0.000131165
0.000114987
6.33197e-05
0.000107009
3.13479e-05
0.000102246
1.76996e-05
9.92066e-05
1.13059e-05
9.71108e-05
7.90916e-06
9.55687e-05
5.91449e-06
9.43773e-05
4.63498e-06
9.34247e-05
3.74858e-06
9.2644e-05
3.10014e-06
9.19918e-05
2.60831e-06
9.14388e-05
2.22489e-06
9.0964e-05
1.91904e-06
9.05524e-05
1.67038e-06
9.01925e-05
1.46506e-06
8.98756e-05
1.29344e-06
8.95947e-05
1.14863e-06
8.93444e-05
1.02546e-06
8.91203e-05