/*--------------------------------*- C++ -*----------------------------------*\
| =========                 |                                                 |
| \\      /  F ield         | OpenFOAM: The Open Source CFD Toolbox           |
|  \\    /   O peration     | Version:  5.x                                   |
|   \\  /    A nd           | Web:      www.OpenFOAM.org                      |
|    \\/     M anipulation  |                                                 |
\*---------------------------------------------------------------------------*/
FoamFile
{
    version     2.0;
    format      ascii;
    class       volVectorField;
    location    "500";
    object      U;
}
// * * * * * * * * * * * * * * * * * * * * * * * * * * * * * * * * * * * * * //

dimensions      [0 1 -1 0 0 0 0];

internalField   nonuniform List<vector> 
20540
(
(44.1648 -8.14608e-07 0)
(44.2268 0.00467567 0)
(44.1648 -2.55642e-06 0)
(44.2268 0.0134778 0)
(44.1648 -4.50556e-06 0)
(44.2267 0.022079 0)
(44.1648 -6.6878e-06 0)
(44.2267 0.0311543 0)
(44.1648 -9.04943e-06 0)
(44.2266 0.0407871 0)
(44.1648 -1.14516e-05 0)
(44.2265 0.0509484 0)
(44.1648 -1.36443e-05 0)
(44.2264 0.0615567 0)
(44.1648 -1.52218e-05 0)
(44.2264 0.0724786 0)
(44.1649 -1.55714e-05 0)
(44.2265 0.0835111 0)
(44.165 -1.38267e-05 0)
(44.2266 0.0943749 0)
(44.1652 -8.82718e-06 0)
(44.2268 0.104717 0)
(44.1654 9.13297e-07 0)
(44.2272 0.114126 0)
(44.1657 1.72294e-05 0)
(44.2276 0.122158 0)
(44.1662 4.23176e-05 0)
(44.2282 0.128396 0)
(44.1668 7.87344e-05 0)
(44.229 0.132552 0)
(44.1675 0.000129359 0)
(44.2298 0.134614 0)
(44.1684 0.000197285 0)
(44.2309 0.134843 0)
(44.1695 0.000285598 0)
(44.2322 0.133709 0)
(44.1708 0.00039707 0)
(44.2337 0.131688 0)
(44.1723 0.000533799 0)
(44.2356 0.129012 0)
(44.1741 0.000696731 0)
(44.2378 0.125704 0)
(44.1762 0.000884964 0)
(44.2404 0.121691 0)
(44.1787 0.00109474 0)
(44.2434 0.116853 0)
(44.1816 0.00131804 0)
(44.2468 0.111041 0)
(44.1848 0.00154082 0)
(44.2507 0.104078 0)
(44.1884 0.00174078 0)
(44.2552 0.0957554 0)
(44.1924 0.00188504 0)
(44.26 0.0858298 0)
(44.1966 0.00192834 0)
(44.2651 0.0740133 0)
(44.2009 0.0018132 0)
(44.2703 0.0599606 0)
(44.2048 0.00147471 0)
(44.2751 0.0432433 0)
(44.2076 0.000945736 0)
(44.2785 0.0255588 0)
(44.2089 0.000321873 0)
(44.2801 0.00840836 0)
(44.2089 -0.000334854 0)
(44.2801 -0.00872338 0)
(44.2075 -0.00095742 0)
(44.2784 -0.025874 0)
(44.2048 -0.00147798 0)
(44.2751 -0.0432863 0)
(44.201 -0.00180919 0)
(44.2704 -0.0595417 0)
(44.1968 -0.00192887 0)
(44.2654 -0.0732864 0)
(44.1927 -0.00189607 0)
(44.2604 -0.084912 0)
(44.1888 -0.00176384 0)
(44.2557 -0.094736 0)
(44.1853 -0.00157464 0)
(44.2513 -0.103024 0)
(44.182 -0.00135993 0)
(44.2474 -0.110002 0)
(44.1792 -0.00114154 0)
(44.244 -0.115864 0)
(44.1767 -0.000933644 0)
(44.241 -0.120777 0)
(44.1746 -0.000744692 0)
(44.2384 -0.124881 0)
(44.1727 -0.000579004 0)
(44.2361 -0.128294 0)
(44.1711 -0.000438064 0)
(44.2342 -0.131099 0)
(44.1698 -0.000321469 0)
(44.2326 -0.133317 0)
(44.1687 -0.000227606 0)
(44.2312 -0.134828 0)
(44.1677 -0.000154118 0)
(44.2301 -0.135283 0)
(44.1669 -9.82408e-05 0)
(44.2292 -0.134207 0)
(44.1663 -5.70864e-05 0)
(44.2284 -0.131256 0)
(44.1658 -2.78789e-05 0)
(44.2277 -0.1263 0)
(44.1654 -8.09919e-06 0)
(44.2272 -0.11948 0)
(44.1651 4.45388e-06 0)
(44.2268 -0.111124 0)
(44.1649 1.16471e-05 0)
(44.2265 -0.10163 0)
(44.1648 1.50217e-05 0)
(44.2263 -0.0913934 0)
(44.1647 1.58107e-05 0)
(44.2262 -0.0807752 0)
(44.1646 1.49656e-05 0)
(44.2262 -0.0700765 0)
(44.1646 1.31882e-05 0)
(44.2262 -0.0595328 0)
(44.1646 1.0969e-05 0)
(44.2263 -0.0493128 0)
(44.1645 8.62972e-06 0)
(44.2264 -0.0395257 0)
(44.1645 6.36703e-06 0)
(44.2264 -0.0302372 0)
(44.1645 4.28903e-06 0)
(44.2265 -0.0214647 0)
(44.1645 2.43494e-06 0)
(44.2266 -0.0131081 0)
(44.1645 7.76741e-07 0)
(44.2266 -0.00454748 0)
(7.05383 0.00661015 0)
(5.82059 0.000181728 0)
(5.45904 7.11162e-05 0)
(5.23958 4.90504e-05 0)
(5.08705 3.66897e-05 0)
(4.97415 2.88505e-05 0)
(4.88651 2.36145e-05 0)
(4.81601 1.99024e-05 0)
(4.75796 1.71136e-05 0)
(4.70936 1.49362e-05 0)
(4.66812 1.31927e-05 0)
(4.63273 1.17699e-05 0)
(4.60207 1.05914e-05 0)
(4.5753 9.60371e-06 0)
(4.55177 8.76679e-06 0)
(4.53097 8.05091e-06 0)
(4.51249 7.43436e-06 0)
(4.49598 6.89939e-06 0)
(4.48118 6.43096e-06 0)
(4.46785 6.01619e-06 0)
(4.45581 5.64519e-06 0)
(4.44489 5.3114e-06 0)
(4.43498 5.01071e-06 0)
(4.42595 4.7402e-06 0)
(4.41771 4.49685e-06 0)
(4.41017 4.27685e-06 0)
(4.40326 4.0759e-06 0)
(4.3969 3.88983e-06 0)
(4.39105 3.71551e-06 0)
(4.38564 3.55112e-06 0)
(4.38065 3.39623e-06 0)
(4.37603 3.25115e-06 0)
(4.37176 3.11637e-06 0)
(4.36781 2.99178e-06 0)
(4.36415 2.87634e-06 0)
(4.36077 2.76787e-06 0)
(4.35764 2.66317e-06 0)
(4.35474 2.55824e-06 0)
(4.35208 2.44866e-06 0)
(4.34964 2.3298e-06 0)
(4.34741 2.19713e-06 0)
(4.34539 2.04615e-06 0)
(4.34359 1.87237e-06 0)
(4.34201 1.6709e-06 0)
(4.34067 1.43622e-06 0)
(4.33958 1.1616e-06 0)
(4.33876 8.38585e-07 0)
(4.33824 4.53445e-07 0)
(4.33805 -9.81753e-09 0)
(4.33823 -5.59913e-07 0)
(4.33883 -1.20917e-06 0)
(4.33988 -1.97684e-06 0)
(4.34144 -2.88113e-06 0)
(4.34356 -3.94315e-06 0)
(4.3463 -5.18971e-06 0)
(4.34972 -6.64938e-06 0)
(4.35389 -8.36439e-06 0)
(4.3589 -1.03716e-05 0)
(4.36485 -1.27147e-05 0)
(4.37181 -1.54775e-05 0)
(4.38001 -1.85922e-05 0)
(4.38913 -2.30201e-05 0)
(4.40136 -2.92819e-05 0)
(4.41186 -3.04859e-05 0)
(4.4205 -3.05004e-05 0)
(4.42882 -3.68396e-05 0)
(4.43851 -4.2775e-05 0)
(4.44889 -4.79162e-05 0)
(4.45988 -5.33069e-05 0)
(4.47147 -5.90304e-05 0)
(4.48369 -6.52231e-05 0)
(4.49654 -7.18303e-05 0)
(4.51004 -7.90552e-05 0)
(4.52424 -8.68597e-05 0)
(4.53915 -9.55962e-05 0)
(4.55484 -0.000105278 0)
(4.57136 -0.000116481 0)
(4.5888 -0.000129338 0)
(4.60726 -0.00014454 0)
(4.62691 -0.000162435 0)
(4.64794 -0.000183808 0)
(4.67063 -0.000209511 0)
(4.69552 -0.000241782 0)
(4.7229 -0.000283857 0)
(4.7562 -0.00035792 0)
(4.79084 -0.000555086 0)
(4.88262 -0.00252421 0)
(5.12344 -0.0247522 0)
(14.1915 0.0148494 0)
(11.7235 0.000886791 0)
(11.0388 0.000318813 0)
(10.6532 0.000207582 0)
(10.3919 0.000152766 0)
(10.2005 0.000119531 0)
(10.0526 9.77756e-05 0)
(9.93383 8.24979e-05 0)
(9.83603 7.10592e-05 0)
(9.75413 6.21424e-05 0)
(9.68461 5.50169e-05 0)
(9.62491 4.92097e-05 0)
(9.57317 4.4396e-05 0)
(9.52796 4.03491e-05 0)
(9.4882 3.6904e-05 0)
(9.45303 3.39429e-05 0)
(9.42176 3.13813e-05 0)
(9.39382 2.91522e-05 0)
(9.36875 2.7198e-05 0)
(9.34616 2.54679e-05 0)
(9.32574 2.39209e-05 0)
(9.30723 2.25269e-05 0)
(9.2904 2.12663e-05 0)
(9.27507 2.01262e-05 0)
(9.26107 1.90958e-05 0)
(9.24826 1.81638e-05 0)
(9.23651 1.73173e-05 0)
(9.22569 1.65423e-05 0)
(9.21573 1.58257e-05 0)
(9.20653 1.51565e-05 0)
(9.19803 1.45275e-05 0)
(9.19017 1.39339e-05 0)
(9.18289 1.3373e-05 0)
(9.17616 1.28418e-05 0)
(9.16992 1.23364e-05 0)
(9.16416 1.18507e-05 0)
(9.15882 1.13755e-05 0)
(9.1539 1.08992e-05 0)
(9.14936 1.04072e-05 0)
(9.1452 9.88288e-06 0)
(9.14142 9.30715e-06 0)
(9.138 8.65883e-06 0)
(9.13496 7.91436e-06 0)
(9.13231 7.04702e-06 0)
(9.13007 6.02649e-06 0)
(9.12829 4.81735e-06 0)
(9.12698 3.37747e-06 0)
(9.12621 1.6434e-06 0)
(9.12603 -4.65915e-07 0)
(9.12653 -2.98922e-06 0)
(9.12777 -5.9734e-06 0)
(9.12984 -9.50589e-06 0)
(9.13282 -1.36648e-05 0)
(9.13683 -1.85423e-05 0)
(9.14195 -2.42485e-05 0)
(9.14831 -3.0919e-05 0)
(9.15605 -3.87221e-05 0)
(9.1653 -4.78554e-05 0)
(9.17626 -5.84565e-05 0)
(9.18906 -7.11061e-05 0)
(9.20413 -8.47416e-05 0)
(9.22086 -0.000106575 0)
(9.24331 -0.000132895 0)
(9.26265 -0.00014075 0)
(9.2788 -0.000142477 0)
(9.29411 -0.000164531 0)
(9.31173 -0.000191291 0)
(9.33069 -0.000214612 0)
(9.35079 -0.00023875 0)
(9.37201 -0.00026472 0)
(9.39437 -0.000292913 0)
(9.41789 -0.000323585 0)
(9.44261 -0.00035715 0)
(9.46859 -0.000393996 0)
(9.49589 -0.000434872 0)
(9.52459 -0.000480442 0)
(9.55481 -0.000532133 0)
(9.58671 -0.000591181 0)
(9.62047 -0.000659844 0)
(9.65637 -0.000740648 0)
(9.69477 -0.000837404 0)
(9.73616 -0.000956904 0)
(9.78149 -0.0011076 0)
(9.83134 -0.00132646 0)
(9.89129 -0.00163803 0)
(9.95499 -0.00270826 0)
(10.1029 -0.00853505 0)
(10.3358 -0.0712283 0)
(18.3839 0.0233551 0)
(15.1289 0.00207056 0)
(14.2219 0.000737086 0)
(13.7336 0.000465211 0)
(13.4096 0.000338532 0)
(13.1747 0.000263631 0)
(12.9942 0.000215218 0)
(12.8496 0.000181459 0)
(12.7308 0.000156273 0)
(12.6315 0.000136676 0)
(12.5472 0.000121039 0)
(12.4749 0.000108309 0)
(12.4123 9.77608e-05 0)
(12.3576 8.88911e-05 0)
(12.3095 8.1336e-05 0)
(12.2669 7.48379e-05 0)
(12.2291 6.92123e-05 0)
(12.1953 6.43138e-05 0)
(12.1649 6.00184e-05 0)
(12.1376 5.62156e-05 0)
(12.1129 5.28155e-05 0)
(12.0905 4.97516e-05 0)
(12.0701 4.69793e-05 0)
(12.0516 4.44695e-05 0)
(12.0347 4.21992e-05 0)
(12.0191 4.01453e-05 0)
(12.0049 3.82812e-05 0)
(11.9918 3.65776e-05 0)
(11.9798 3.50059e-05 0)
(11.9686 3.35412e-05 0)
(11.9583 3.21647e-05 0)
(11.9488 3.0864e-05 0)
(11.94 2.96305e-05 0)
(11.9318 2.8457e-05 0)
(11.9243 2.73349e-05 0)
(11.9173 2.62511e-05 0)
(11.9108 2.51875e-05 0)
(11.9049 2.41196e-05 0)
(11.8994 2.30172e-05 0)
(11.8943 2.18437e-05 0)
(11.8898 2.05569e-05 0)
(11.8856 1.91084e-05 0)
(11.882 1.74437e-05 0)
(11.8788 1.55003e-05 0)
(11.8761 1.32074e-05 0)
(11.874 1.04826e-05 0)
(11.8725 7.2284e-06 0)
(11.8716 3.29879e-06 0)
(11.8715 -1.49139e-06 0)
(11.8722 -7.23223e-06 0)
(11.8739 -1.4028e-05 0)
(11.8766 -2.20734e-05 0)
(11.8804 -3.15447e-05 0)
(11.8855 -4.26506e-05 0)
(11.8921 -5.56349e-05 0)
(11.9001 -7.08092e-05 0)
(11.9099 -8.85433e-05 0)
(11.9216 -0.000109304 0)
(11.9355 -0.000133368 0)
(11.9516 -0.000162174 0)
(11.9706 -0.000192855 0)
(11.9917 -0.000243499 0)
(12.0199 -0.000300225 0)
(12.0442 -0.000322028 0)
(12.0648 -0.000329955 0)
(12.0843 -0.000373223 0)
(12.1064 -0.000432971 0)
(12.1302 -0.000486308 0)
(12.1554 -0.000541158 0)
(12.1821 -0.000600198 0)
(12.2102 -0.000664164 0)
(12.2398 -0.000734001 0)
(12.2709 -0.000810284 0)
(12.3035 -0.000894303 0)
(12.3378 -0.000987183 0)
(12.3739 -0.00109091 0)
(12.4118 -0.0012079 0)
(12.4518 -0.00134148 0)
(12.4941 -0.00149601 0)
(12.5391 -0.00167767 0)
(12.5872 -0.00189477 0)
(12.6389 -0.00216342 0)
(12.6955 -0.002501 0)
(12.7576 -0.00299738 0)
(12.8315 -0.00366696 0)
(12.9109 -0.00595294 0)
(13.0767 -0.0145354 0)
(13.2496 -0.0736132 0)
(21.6958 0.0339583 0)
(17.7875 0.00392057 0)
(16.6654 0.00138509 0)
(16.0815 0.000851417 0)
(15.7012 0.000612462 0)
(15.4284 0.000474219 0)
(15.2199 0.000385929 0)
(15.0536 0.000324812 0)
(14.9172 0.000279417 0)
(14.8034 0.0002442 0)
(14.7069 0.000216164 0)
(14.6242 0.000193383 0)
(14.5526 0.00017453 0)
(14.4901 0.000158686 0)
(14.4351 0.000145194 0)
(14.3865 0.000133591 0)
(14.3434 0.000123545 0)
(14.3048 0.000114797 0)
(14.2702 0.000107127 0)
(14.239 0.000100339 0)
(14.2108 9.42739e-05 0)
(14.1852 8.88099e-05 0)
(14.162 8.38657e-05 0)
(14.1408 7.93873e-05 0)
(14.1215 7.53341e-05 0)
(14.1038 7.16665e-05 0)
(14.0876 6.83401e-05 0)
(14.0726 6.53048e-05 0)
(14.0588 6.25101e-05 0)
(14.0461 5.99103e-05 0)
(14.0344 5.74694e-05 0)
(14.0235 5.51613e-05 0)
(14.0134 5.29679e-05 0)
(14.0041 5.08745e-05 0)
(13.9955 4.88649e-05 0)
(13.9875 4.6917e-05 0)
(13.9801 4.50002e-05 0)
(13.9733 4.30735e-05 0)
(13.9671 4.10845e-05 0)
(13.9613 3.89695e-05 0)
(13.9561 3.66528e-05 0)
(13.9514 3.40466e-05 0)
(13.9472 3.10506e-05 0)
(13.9436 2.75493e-05 0)
(13.9406 2.34109e-05 0)
(13.9382 1.84832e-05 0)
(13.9365 1.2587e-05 0)
(13.9356 5.45462e-06 0)
(13.9355 -3.25542e-06 0)
(13.9364 -1.37104e-05 0)
(13.9384 -2.60939e-05 0)
(13.9416 -4.07559e-05 0)
(13.9462 -5.80172e-05 0)
(13.9522 -7.82554e-05 0)
(13.9598 -0.000101908 0)
(13.9693 -0.000129544 0)
(13.9808 -0.000161825 0)
(13.9945 -0.000199615 0)
(14.0107 -0.000243393 0)
(14.0296 -0.000295874 0)
(14.0517 -0.000351489 0)
(14.0764 -0.000444401 0)
(14.1092 -0.000544115 0)
(14.1372 -0.000588922 0)
(14.1617 -0.000608637 0)
(14.1846 -0.000679712 0)
(14.2103 -0.00078634 0)
(14.238 -0.000883625 0)
(14.2674 -0.000983538 0)
(14.2985 -0.00109106 0)
(14.3312 -0.00120752 0)
(14.3656 -0.00133486 0)
(14.4018 -0.00147395 0)
(14.4397 -0.00162733 0)
(14.4796 -0.0017967 0)
(14.5215 -0.00198584 0)
(14.5655 -0.00219862 0)
(14.6119 -0.0024412 0)
(14.661 -0.00272102 0)
(14.7131 -0.00304949 0)
(14.7686 -0.00344144 0)
(14.8283 -0.00392654 0)
(14.8934 -0.00453524 0)
(14.9647 -0.00543204 0)
(15.0487 -0.00661268 0)
(15.1394 -0.0104943 0)
(15.3112 -0.0213858 0)
(15.4296 -0.067503 0)
(24.5626 0.0457891 0)
(20.1063 0.00658473 0)
(18.766 0.00233535 0)
(18.0857 0.00140299 0)
(17.6504 0.000997802 0)
(17.3412 0.000767957 0)
(17.1065 0.000622835 0)
(16.9199 0.000523123 0)
(16.7674 0.000449414 0)
(16.6403 0.000392414 0)
(16.5328 0.000347148 0)
(16.4407 0.000310435 0)
(16.361 0.000280092 0)
(16.2915 0.000254616 0)
(16.2304 0.000232933 0)
(16.1764 0.000214292 0)
(16.1284 0.000198158 0)
(16.0856 0.000184112 0)
(16.0471 0.000171801 0)
(16.0125 0.00016091 0)
(15.9812 0.000151183 0)
(15.9528 0.000142424 0)
(15.927 0.000134497 0)
(15.9035 0.000127316 0)
(15.882 0.000120815 0)
(15.8624 0.000114932 0)
(15.8444 0.000109599 0)
(15.8278 0.000104737 0)
(15.8125 0.000100267 0)
(15.7984 9.61133e-05 0)
(15.7853 9.22162e-05 0)
(15.7733 8.85301e-05 0)
(15.7621 8.50228e-05 0)
(15.7517 8.16687e-05 0)
(15.7422 7.8441e-05 0)
(15.7333 7.53053e-05 0)
(15.7251 7.22137e-05 0)
(15.7175 6.91024e-05 0)
(15.7106 6.58892e-05 0)
(15.7042 6.24723e-05 0)
(15.6984 5.87304e-05 0)
(15.6932 5.45207e-05 0)
(15.6885 4.96787e-05 0)
(15.6845 4.40149e-05 0)
(15.6812 3.73127e-05 0)
(15.6785 2.93216e-05 0)
(15.6767 1.97477e-05 0)
(15.6757 8.15396e-06 0)
(15.6756 -6.02208e-06 0)
(15.6767 -2.30579e-05 0)
(15.679 -4.32449e-05 0)
(15.6826 -6.71465e-05 0)
(15.6877 -9.52854e-05 0)
(15.6945 -0.000128275 0)
(15.7032 -0.000166821 0)
(15.7138 -0.000211849 0)
(15.7267 -0.000264428 0)
(15.7421 -0.000325973 0)
(15.7603 -0.000397252 0)
(15.7815 -0.000482723 0)
(15.8064 -0.000573203 0)
(15.8342 -0.000724491 0)
(15.8707 -0.000881764 0)
(15.9018 -0.000962014 0)
(15.9296 -0.00100265 0)
(15.9556 -0.00110922 0)
(15.9845 -0.00127849 0)
(16.0155 -0.00143665 0)
(16.0484 -0.00159927 0)
(16.0831 -0.00177416 0)
(16.1197 -0.00196349 0)
(16.1582 -0.00217055 0)
(16.1986 -0.00239665 0)
(16.241 -0.00264599 0)
(16.2854 -0.00292104 0)
(16.3321 -0.00322798 0)
(16.3812 -0.00357258 0)
(16.4329 -0.00396479 0)
(16.4874 -0.00441612 0)
(16.5452 -0.00494484 0)
(16.6067 -0.00557452 0)
(16.6728 -0.00635229 0)
(16.7445 -0.00732653 0)
(16.8229 -0.00875301 0)
(16.9143 -0.0106105 0)
(17.013 -0.0163441 0)
(17.1847 -0.0287539 0)
(17.2639 -0.0610292 0)
(27.1569 0.0587749 0)
(22.2483 0.0102415 0)
(20.682 0.00368374 0)
(19.9 0.00216954 0)
(19.4078 0.00152552 0)
(19.0618 0.00116669 0)
(18.8009 0.000942639 0)
(18.5945 0.000789859 0)
(18.4263 0.000677512 0)
(18.2864 0.000590941 0)
(18.1682 0.000522373 0)
(18.067 0.000466873 0)
(17.9796 0.000421073 0)
(17.9034 0.000382657 0)
(17.8365 0.000349988 0)
(17.7774 0.000321921 0)
(17.7249 0.000297639 0)
(17.678 0.000276509 0)
(17.6359 0.000257996 0)
(17.598 0.000241627 0)
(17.5638 0.000227013 0)
(17.5328 0.000213858 0)
(17.5046 0.000201957 0)
(17.4789 0.000191173 0)
(17.4554 0.000181408 0)
(17.4339 0.000172571 0)
(17.4142 0.000164563 0)
(17.3961 0.000157269 0)
(17.3794 0.000150569 0)
(17.3639 0.00014435 0)
(17.3497 0.000138519 0)
(17.3365 0.000133004 0)
(17.3242 0.000127752 0)
(17.3129 0.000122723 0)
(17.3025 0.000117875 0)
(17.2928 0.000113158 0)
(17.2838 0.0001085 0)
(17.2755 0.000103808 0)
(17.2679 9.89588e-05 0)
(17.2609 9.38016e-05 0)
(17.2546 8.81531e-05 0)
(17.2488 8.17977e-05 0)
(17.2438 7.44849e-05 0)
(17.2394 6.5926e-05 0)
(17.2357 5.57899e-05 0)
(17.2328 4.36945e-05 0)
(17.2308 2.91919e-05 0)
(17.2297 1.16185e-05 0)
(17.2297 -9.88817e-06 0)
(17.2308 -3.57598e-05 0)
(17.2333 -6.64277e-05 0)
(17.2373 -0.000102737 0)
(17.243 -0.000145483 0)
(17.2504 -0.000195594 0)
(17.2599 -0.000254134 0)
(17.2716 -0.000322504 0)
(17.2857 -0.000402314 0)
(17.3026 -0.000495711 0)
(17.3225 -0.000603869 0)
(17.3458 -0.000733489 0)
(17.373 -0.000870923 0)
(17.4035 -0.00109916 0)
(17.4432 -0.00133018 0)
(17.4768 -0.00146187 0)
(17.5074 -0.0015369 0)
(17.5363 -0.00168823 0)
(17.5679 -0.00193732 0)
(17.6017 -0.00217595 0)
(17.6376 -0.00242203 0)
(17.6755 -0.0026866 0)
(17.7154 -0.00297286 0)
(17.7573 -0.00328583 0)
(17.8013 -0.00362735 0)
(17.8474 -0.00400378 0)
(17.8958 -0.00441857 0)
(17.9465 -0.00488095 0)
(17.9998 -0.00539902 0)
(18.0558 -0.00598755 0)
(18.1148 -0.00666313 0)
(18.1772 -0.00745268 0)
(18.2436 -0.00839069 0)
(18.3146 -0.00954565 0)
(18.3915 -0.0109895 0)
(18.4753 -0.0130809 0)
(18.572 -0.0157925 0)
(18.6761 -0.0235381 0)
(18.8446 -0.0367676 0)
(18.9001 -0.0603626 0)
(29.5614 0.0730493 0)
(24.2976 0.0151236 0)
(22.4959 0.00556591 0)
(21.6039 0.0032238 0)
(21.0507 0.00224121 0)
(20.6658 0.00170255 0)
(20.3777 0.00136982 0)
(20.1508 0.00114471 0)
(19.9666 0.000980107 0)
(19.8137 0.000853776 0)
(19.6848 0.000754009 0)
(19.5747 0.000673438 0)
(19.4796 0.00060706 0)
(19.3968 0.000551456 0)
(19.3241 0.000504218 0)
(19.2599 0.000463668 0)
(19.203 0.000428611 0)
(19.1521 0.000398119 0)
(19.1065 0.000371416 0)
(19.0655 0.00034782 0)
(19.0284 0.000326765 0)
(18.9947 0.00030782 0)
(18.9642 0.000290684 0)
(18.9363 0.000275157 0)
(18.9109 0.000261096 0)
(18.8876 0.000248371 0)
(18.8663 0.000236842 0)
(18.8466 0.000226347 0)
(18.8285 0.000216715 0)
(18.8118 0.000207785 0)
(18.7963 0.000199416 0)
(18.782 0.000191503 0)
(18.7688 0.000183966 0)
(18.7565 0.000176744 0)
(18.7451 0.000169775 0)
(18.7346 0.000162984 0)
(18.7249 0.000156271 0)
(18.7159 0.000149502 0)
(18.7077 0.000142502 0)
(18.7001 0.000135056 0)
(18.6932 0.0001269 0)
(18.687 0.000117723 0)
(18.6815 0.000107162 0)
(18.6767 9.4799e-05 0)
(18.6727 8.01525e-05 0)
(18.6696 6.26674e-05 0)
(18.6674 4.16936e-05 0)
(18.6661 1.62748e-05 0)
(18.6661 -1.48533e-05 0)
(18.6673 -5.23353e-05 0)
(18.67 -9.67794e-05 0)
(18.6742 -0.000149396 0)
(18.6803 -0.000211337 0)
(18.6883 -0.000283944 0)
(18.6984 -0.000368751 0)
(18.711 -0.000467774 0)
(18.7263 -0.000583327 0)
(18.7444 -0.000718509 0)
(18.7659 -0.000875045 0)
(18.7909 -0.00106244 0)
(18.8202 -0.00126177 0)
(18.853 -0.00158884 0)
(18.8955 -0.001912 0)
(18.9311 -0.00211528 0)
(18.9641 -0.00224366 0)
(18.9955 -0.00245188 0)
(19.0295 -0.00280028 0)
(19.0659 -0.00314233 0)
(19.1044 -0.00349663 0)
(19.145 -0.00387763 0)
(19.1877 -0.00428962 0)
(19.2325 -0.00473985 0)
(19.2795 -0.00523074 0)
(19.3288 -0.00577138 0)
(19.3804 -0.00636631 0)
(19.4344 -0.00702864 0)
(19.4911 -0.00776921 0)
(19.5507 -0.00860878 0)
(19.6133 -0.00956999 0)
(19.6794 -0.0106903 0)
(19.7496 -0.0120176 0)
(19.8245 -0.0136455 0)
(19.9053 -0.0156758 0)
(19.993 -0.0185776 0)
(20.0932 -0.0223341 0)
(20.2006 -0.0322018 0)
(20.3647 -0.0458656 0)
(20.408 -0.0679205 0)
(31.8166 0.0886891 0)
(26.3035 0.0215073 0)
(24.2586 0.00816414 0)
(23.2458 0.004667 0)
(22.6254 0.00320845 0)
(22.1982 0.00242003 0)
(21.8807 0.00193808 0)
(21.6322 0.00161458 0)
(21.4311 0.00137951 0)
(21.2647 0.00119989 0)
(21.1248 0.00105851 0)
(21.0054 0.000944611 0)
(20.9024 0.000850964 0)
(20.8128 0.000772633 0)
(20.7342 0.000706171 0)
(20.6649 0.000649177 0)
(20.6034 0.000599944 0)
(20.5485 0.000557149 0)
(20.4993 0.000519694 0)
(20.455 0.000486617 0)
(20.415 0.000457121 0)
(20.3787 0.000430596 0)
(20.3458 0.000406611 0)
(20.3158 0.000384881 0)
(20.2884 0.0003652 0)
(20.2633 0.000347389 0)
(20.2403 0.000331253 0)
(20.2191 0.000316572 0)
(20.1996 0.000303109 0)
(20.1816 0.000290637 0)
(20.1649 0.00027896 0)
(20.1495 0.000267925 0)
(20.1352 0.000257417 0)
(20.122 0.000247345 0)
(20.1097 0.00023762 0)
(20.0984 0.000228135 0)
(20.0879 0.000218751 0)
(20.0782 0.000209281 0)
(20.0693 0.000199483 0)
(20.0611 0.000189057 0)
(20.0537 0.000177638 0)
(20.047 0.000164791 0)
(20.041 0.000150009 0)
(20.0359 0.000132707 0)
(20.0315 0.00011221 0)
(20.0281 8.77395e-05 0)
(20.0257 5.83842e-05 0)
(20.0243 2.28192e-05 0)
(20.0241 -2.07539e-05 0)
(20.0254 -7.32722e-05 0)
(20.0281 -0.00013556 0)
(20.0326 -0.000209295 0)
(20.039 -0.000296094 0)
(20.0474 -0.000397828 0)
(20.0582 -0.000516635 0)
(20.0715 -0.000655321 0)
(20.0877 -0.0008171 0)
(20.1069 -0.00100628 0)
(20.1297 -0.00122533 0)
(20.1562 -0.00148717 0)
(20.1873 -0.0017669 0)
(20.2222 -0.00221868 0)
(20.2668 -0.00265513 0)
(20.3041 -0.00295474 0)
(20.3392 -0.00316194 0)
(20.3728 -0.0034434 0)
(20.4089 -0.0039138 0)
(20.4474 -0.00438626 0)
(20.4881 -0.00487821 0)
(20.531 -0.00540765 0)
(20.576 -0.00597987 0)
(20.6233 -0.00660488 0)
(20.6728 -0.00728568 0)
(20.7246 -0.00803477 0)
(20.7789 -0.00885787 0)
(20.8357 -0.00977286 0)
(20.8951 -0.0107937 0)
(20.9574 -0.0119484 0)
(21.0229 -0.0132668 0)
(21.0919 -0.0147988 0)
(21.165 -0.0166083 0)
(21.2427 -0.0188177 0)
(21.3262 -0.0215658 0)
(21.4166 -0.0254351 0)
(21.5189 -0.0304418 0)
(21.6277 -0.0425125 0)
(21.7866 -0.056592 0)
(21.825 -0.0832631 0)
(33.9391 0.105665 0)
(28.2968 0.0296987 0)
(26.0053 0.0117167 0)
(24.8591 0.00663776 0)
(24.1635 0.00451464 0)
(23.689 0.00338002 0)
(23.3393 0.00269314 0)
(23.0671 0.00223579 0)
(22.8478 0.00190564 0)
(22.6669 0.00165462 0)
(22.5151 0.00145775 0)
(22.3859 0.00129959 0)
(22.2746 0.00116985 0)
(22.1778 0.00106153 0)
(22.0931 0.000969747 0)
(22.0184 0.000891139 0)
(21.9521 0.000823298 0)
(21.893 0.000764375 0)
(21.8401 0.00071284 0)
(21.7924 0.000667362 0)
(21.7494 0.000626839 0)
(21.7104 0.000590422 0)
(21.675 0.000557508 0)
(21.6428 0.000527693 0)
(21.6133 0.000500689 0)
(21.5864 0.000476248 0)
(21.5616 0.000454106 0)
(21.5389 0.000433966 0)
(21.5179 0.000415509 0)
(21.4985 0.000398426 0)
(21.4806 0.000382448 0)
(21.4641 0.000367363 0)
(21.4487 0.000353007 0)
(21.4345 0.00033925 0)
(21.4213 0.000325964 0)
(21.4091 0.000313002 0)
(21.3979 0.000300168 0)
(21.3874 0.00028721 0)
(21.3778 0.000273798 0)
(21.369 0.000259525 0)
(21.361 0.000243892 0)
(21.3538 0.000226312 0)
(21.3473 0.000206094 0)
(21.3417 0.000182438 0)
(21.337 0.000154426 0)
(21.3333 0.000120994 0)
(21.3306 8.08971e-05 0)
(21.329 3.2359e-05 0)
(21.3287 -2.71255e-05 0)
(21.3299 -9.88915e-05 0)
(21.3327 -0.000184022 0)
(21.3373 -0.000284788 0)
(21.3439 -0.000403395 0)
(21.3527 -0.000542396 0)
(21.3639 -0.000704694 0)
(21.3778 -0.000894092 0)
(21.3947 -0.00111494 0)
(21.4149 -0.00137306 0)
(21.4387 -0.00167193 0)
(21.4665 -0.00202851 0)
(21.4991 -0.00241138 0)
(21.5357 -0.00301834 0)
(21.5822 -0.0035925 0)
(21.6206 -0.00401811 0)
(21.6574 -0.00433699 0)
(21.6929 -0.00471375 0)
(21.7308 -0.00533299 0)
(21.7711 -0.00596761 0)
(21.8136 -0.00663194 0)
(21.8583 -0.00734778 0)
(21.9053 -0.0081212 0)
(21.9545 -0.00896554 0)
(22.006 -0.0098843 0)
(22.0599 -0.0108942 0)
(22.1162 -0.0120021 0)
(22.1751 -0.0132317 0)
(22.2366 -0.0146005 0)
(22.3011 -0.0161451 0)
(22.3687 -0.0179035 0)
(22.4397 -0.0199402 0)
(22.5148 -0.0223379 0)
(22.5944 -0.0252516 0)
(22.6797 -0.028864 0)
(22.7716 -0.0338691 0)
(22.8746 -0.0403457 0)
(22.9834 -0.0546753 0)
(23.1367 -0.069492 0)
(23.1732 -0.104459 0)
(35.9298 0.123836 0)
(30.2951 0.040014 0)
(27.7623 0.0165281 0)
(26.4693 0.00932458 0)
(25.6887 0.00628012 0)
(25.1609 0.00466611 0)
(24.7747 0.00369743 0)
(24.4761 0.00305753 0)
(24.2366 0.00259883 0)
(24.0398 0.00225194 0)
(23.8751 0.00198096 0)
(23.7351 0.00176396 0)
(23.6148 0.0015864 0)
(23.5104 0.00143845 0)
(23.419 0.00131333 0)
(23.3385 0.00120631 0)
(23.2672 0.00111405 0)
(23.2036 0.00103399 0)
(23.1467 0.000964029 0)
(23.0955 0.000902342 0)
(23.0493 0.000847424 0)
(23.0074 0.000798112 0)
(22.9694 0.000753571 0)
(22.9347 0.000713237 0)
(22.9031 0.000676707 0)
(22.8742 0.000643639 0)
(22.8476 0.000613679 0)
(22.8232 0.00058643 0)
(22.8007 0.000561471 0)
(22.7799 0.00053839 0)
(22.7607 0.000516826 0)
(22.7429 0.00049649 0)
(22.7264 0.000477156 0)
(22.7111 0.000458643 0)
(22.697 0.000440772 0)
(22.6839 0.000423337 0)
(22.6718 0.000406073 0)
(22.6606 0.000388635 0)
(22.6502 0.000370584 0)
(22.6408 0.000351373 0)
(22.6321 0.000330339 0)
(22.6243 0.000306697 0)
(22.6174 0.000279527 0)
(22.6113 0.000247762 0)
(22.6061 0.000210173 0)
(22.602 0.000165341 0)
(22.599 0.000111601 0)
(22.5972 4.66345e-05 0)
(22.5967 -3.29902e-05 0)
(22.5977 -0.000129148 0)
(22.6005 -0.000243225 0)
(22.6051 -0.000378238 0)
(22.6118 -0.000537135 0)
(22.6208 -0.000723326 0)
(22.6324 -0.000940679 0)
(22.6468 -0.00119424 0)
(22.6642 -0.00148978 0)
(22.6851 -0.00183501 0)
(22.7098 -0.00223468 0)
(22.7386 -0.00271057 0)
(22.7724 -0.00322429 0)
(22.8103 -0.00402209 0)
(22.8582 -0.00476239 0)
(22.8975 -0.00534874 0)
(22.9356 -0.00582006 0)
(22.9726 -0.00632153 0)
(23.0119 -0.00712171 0)
(23.0536 -0.00795592 0)
(23.0976 -0.00883343 0)
(23.1438 -0.0097803 0)
(23.1922 -0.0108031 0)
(23.2429 -0.0119192 0)
(23.2959 -0.0131323 0)
(23.3513 -0.0144644 0)
(23.4092 -0.0159234 0)
(23.4695 -0.01754 0)
(23.5325 -0.0193353 0)
(23.5984 -0.0213562 0)
(23.6674 -0.0236498 0)
(23.7398 -0.0262977 0)
(23.816 -0.0294038 0)
(23.8967 -0.0331591 0)
(23.9828 -0.0377981 0)
(24.0752 -0.0441176 0)
(24.1777 -0.0522966 0)
(24.2853 -0.0689142 0)
(24.4323 -0.0850544 0)
(24.4676 -0.12931 0)
(37.777 0.142928 0)
(32.3053 0.052744 0)
(29.5496 0.0229754 0)
(28.0977 0.0129813 0)
(27.2208 0.00867063 0)
(26.6318 0.00639368 0)
(26.2041 0.00503677 0)
(25.8754 0.00414709 0)
(25.6132 0.00351389 0)
(25.3985 0.0030378 0)
(25.2194 0.00266752 0)
(25.0676 0.00237204 0)
(24.9373 0.00213095 0)
(24.8244 0.00193055 0)
(24.7258 0.00176141 0)
(24.6389 0.00161697 0)
(24.5621 0.00149263 0)
(24.4936 0.00138484 0)
(24.4324 0.00129072 0)
(24.3773 0.00120782 0)
(24.3276 0.00113409 0)
(24.2826 0.00106796 0)
(24.2417 0.00100827 0)
(24.2045 0.000954251 0)
(24.1705 0.000905331 0)
(24.1394 0.000861041 0)
(24.1109 0.000820906 0)
(24.0847 0.000784402 0)
(24.0605 0.000750976 0)
(24.0382 0.000720087 0)
(24.0175 0.00069126 0)
(23.9984 0.00066411 0)
(23.9807 0.000638334 0)
(23.9644 0.000613683 0)
(23.9492 0.000589909 0)
(23.9351 0.000566732 0)
(23.9221 0.00054379 0)
(23.91 0.000520624 0)
(23.8989 0.000496646 0)
(23.8887 0.000471134 0)
(23.8793 0.000443217 0)
(23.8709 0.00041186 0)
(23.8634 0.000375859 0)
(23.8568 0.000333812 0)
(23.8511 0.000284107 0)
(23.8466 0.000224879 0)
(23.8432 0.000153942 0)
(23.841 6.83427e-05 0)
(23.8403 -3.65441e-05 0)
(23.8411 -0.00016333 0)
(23.8437 -0.000313759 0)
(23.8482 -0.000491766 0)
(23.855 -0.000701225 0)
(23.8641 -0.000946614 0)
(23.8758 -0.00123301 0)
(23.8905 -0.001567 0)
(23.9083 -0.00195608 0)
(23.9297 -0.00241032 0)
(23.955 -0.0029361 0)
(23.9846 -0.00356076 0)
(24.0192 -0.00423881 0)
(24.0582 -0.00526884 0)
(24.107 -0.00620882 0)
(24.1468 -0.00699579 0)
(24.1857 -0.00766835 0)
(24.2238 -0.00833284 0)
(24.2643 -0.00935262 0)
(24.307 -0.0104307 0)
(24.352 -0.0115691 0)
(24.3992 -0.0127992 0)
(24.4487 -0.0141276 0)
(24.5004 -0.0155766 0)
(24.5545 -0.0171499 0)
(24.6108 -0.0188755 0)
(24.6696 -0.0207626 0)
(24.7309 -0.0228498 0)
(24.7948 -0.0251624 0)
(24.8615 -0.0277587 0)
(24.9312 -0.0306967 0)
(25.0042 -0.0340764 0)
(25.0809 -0.0380266 0)
(25.1618 -0.0427765 0)
(25.2478 -0.0486199 0)
(25.3398 -0.0564414 0)
(25.4408 -0.0665631 0)
(25.5463 -0.0854676 0)
(25.6859 -0.103667 0)
(25.7196 -0.156042 0)
(39.4591 0.162492 0)
(34.3226 0.0680922 0)
(31.3823 0.0315049 0)
(29.7627 0.0179439 0)
(28.7774 0.0119135 0)
(28.1182 0.00872239 0)
(27.6424 0.00682977 0)
(27.2791 0.00559705 0)
(26.9908 0.00472592 0)
(26.7558 0.0040749 0)
(26.5603 0.00357096 0)
(26.395 0.00317032 0)
(26.2535 0.00284448 0)
(26.1311 0.00257435 0)
(26.0243 0.00234688 0)
(25.9305 0.00215302 0)
(25.8474 0.00198638 0)
(25.7736 0.00184209 0)
(25.7075 0.00171623 0)
(25.6481 0.00160549 0)
(25.5946 0.00150712 0)
(25.5461 0.00141899 0)
(25.5021 0.00133954 0)
(25.462 0.00126767 0)
(25.4255 0.00120262 0)
(25.392 0.00114372 0)
(25.3613 0.00109033 0)
(25.3331 0.00104177 0)
(25.3071 0.000997301 0)
(25.2831 0.000956232 0)
(25.2609 0.000917943 0)
(25.2404 0.000881929 0)
(25.2213 0.000847794 0)
(25.2037 0.000815201 0)
(25.1874 0.000783818 0)
(25.1722 0.000753265 0)
(25.1582 0.000723056 0)
(25.1452 0.000692578 0)
(25.1332 0.000661055 0)
(25.1221 0.000627541 0)
(25.1121 0.000590897 0)
(25.1029 0.00054978 0)
(25.0947 0.000502626 0)
(25.0875 0.000447623 0)
(25.0813 0.000382685 0)
(25.0763 0.000305398 0)
(25.0724 0.000212938 0)
(25.0699 0.000101608 0)
(25.0687 -3.46934e-05 0)
(25.0693 -0.000199604 0)
(25.0716 -0.000395316 0)
(25.076 -0.000626847 0)
(25.0826 -0.000899217 0)
(25.0916 -0.00121822 0)
(25.1034 -0.00159043 0)
(25.1181 -0.00202434 0)
(25.1362 -0.00252955 0)
(25.1578 -0.00311898 0)
(25.1835 -0.00380111 0)
(25.2135 -0.00460961 0)
(25.2486 -0.0054921 0)
(25.2882 -0.00680204 0)
(25.3376 -0.00798188 0)
(25.3776 -0.0090145 0)
(25.417 -0.00994492 0)
(25.4557 -0.0108211 0)
(25.4968 -0.0121068 0)
(25.5403 -0.0134812 0)
(25.5859 -0.0149366 0)
(25.6337 -0.0165105 0)
(25.6838 -0.0182098 0)
(25.7361 -0.0200624 0)
(25.7906 -0.0220718 0)
(25.8475 -0.0242734 0)
(25.9067 -0.0266772 0)
(25.9684 -0.0293311 0)
(26.0326 -0.0322652 0)
(26.0995 -0.0355503 0)
(26.1692 -0.0392567 0)
(26.2422 -0.0435049 0)
(26.3187 -0.0484511 0)
(26.3991 -0.054365 0)
(26.4844 -0.0616053 0)
(26.575 -0.0711238 0)
(26.6736 -0.0834248 0)
(26.7762 -0.104585 0)
(26.9075 -0.12558 0)
(26.9387 -0.183524 0)
(40.9464 0.181863 0)
(36.3285 0.0860792 0)
(33.2686 0.0426063 0)
(31.4802 0.0246457 0)
(30.375 0.0163177 0)
(29.6351 0.011873 0)
(29.1036 0.00924099 0)
(28.7001 0.00753561 0)
(28.3815 0.00633853 0)
(28.1229 0.00544943 0)
(27.9086 0.00476456 0)
(27.7279 0.00422228 0)
(27.5736 0.00378275 0)
(27.4404 0.00341946 0)
(27.3243 0.00311433 0)
(27.2225 0.00285486 0)
(27.1324 0.00263221 0)
(27.0524 0.0024397 0)
(26.9809 0.00227197 0)
(26.9167 0.00212455 0)
(26.8589 0.00199377 0)
(26.8065 0.00187675 0)
(26.759 0.0017714 0)
(26.7157 0.00167621 0)
(26.6763 0.00159008 0)
(26.6402 0.00151212 0)
(26.6071 0.00144144 0)
(26.5766 0.00137713 0)
(26.5486 0.00131825 0)
(26.5227 0.00126388 0)
(26.4987 0.00121322 0)
(26.4766 0.00116564 0)
(26.456 0.00112062 0)
(26.437 0.00107771 0)
(26.4194 0.00103648 0)
(26.403 0.000996426 0)
(26.3878 0.0009569 0)
(26.3738 0.000917092 0)
(26.3608 0.000875984 0)
(26.3489 0.000832339 0)
(26.3379 0.000784681 0)
(26.328 0.000731278 0)
(26.319 0.000670121 0)
(26.3111 0.000598889 0)
(26.3043 0.000514917 0)
(26.2987 0.000415117 0)
(26.2942 0.000295888 0)