/*--------------------------------*- C++ -*----------------------------------*\
| =========                 |                                                 |
| \\      /  F ield         | OpenFOAM: The Open Source CFD Toolbox           |
|  \\    /   O peration     | Version:  2312                                  |
|   \\  /    A nd           | Website:  www.openfoam.com                      |
|    \\/     M anipulation  |                                                 |
\*---------------------------------------------------------------------------*/
FoamFile
{
    version     2.0;
    format      ascii;
    arch        "LSB;label=64;scalar=64";
    class       volScalarField;
    location    "170";
    object      omega;
}
// * * * * * * * * * * * * * * * * * * * * * * * * * * * * * * * * * * * * * //

dimensions      [0 0 -1 0 0 0 0];

internalField   nonuniform List<scalar> 
404911
(
264.288
207.118
3441.4
1536.59
180.481
194.745
168.39
604.347
341.764
281.972
231.273
300.427
179.621
244.824
413.385
1104.74
236.991
189.471
212.848
317.274
447.245
234.504
683.925
435.71
170.205
958.677
235.155
139.057
178.384
970.949
204.606
125.52
255.458
376.959
191.2
125.572
241.003
404.36
198.955
102.194
210.045
1002.51
193.213
89.3977
92.6098
367.794
309.583
90.4579
100.932
599.506
378.503
312.922
141.234
1324.39
327.33
568.113
9402.28
140.323
308.452
206.413
218.207
128.09
167.948
87.9428
86.5331
186.103
168.358
344.965
166.711
85.8121
135.193
47.9024
135.004
86.0619
45.7005
592.63
2269.15
225.549
92.2488
188.783
80.823
183.876
49.4084
82.3315
102.398
74.4335
182.014
77.0501
1122.18
128.457
127.59
2957.08
131.256
196.105
135.573
78.5045
97.2271
192.195
75.1503
209.8
615.76
98.905
90.2648
455.415
1236.7
487.416
236.513
676.543
326.539
254.188
196.341
203.425
198.001
209.725
2265.09
512.436
218.741
4539.61
582.775
177.76
180.628
179.035
176.886
249.039
1298.99
306.347
205.905
200.449
184.323
529.146
464.673
494.967
171.102
159.303
168.862
159.311
207.364
226.443
170.569
272.191
1169.48
297.051
189.389
176.338
180.124
178.242
176.559
160.739
489.527
422.848
160.259
153.047
174.187
1770.13
278.841
975.719
243.321
167.051
157.942
166.552
163.971
168.906
169.332
163.204
154.049
149.902
153.88
157.632
174.155
247.781
383.829
572.157
434.55
402.857
403.508
399.845
482.694
159.582
163.295
155.238
156.182
157.632
169.662
185.268
192.945
193.663
276.272
690.276
444.292
375.374
367.033
232.502
311.682
493.663
416.783
148.543
155.134
155.395
166.242
176.437
185.174
218.191
1162.22
974.309
241.151
568.266
287.055
243.666
218.182
294.02
379.74
273.653
318.952
391.451
411.068
137.877
159.556
170.362
171.996
198.224
488.611
843.787
580.686
253.766
236.401
156.167
202.354
217.682
225.695
292.953
309.589
312.716
238.884
123.166
161.886
171.383
192.498
285.802
1200.05
1194.42
260.974
120.729
181.71
161.464
138.877
134.214
166.48
369.204
237.785
195.588
149.429
163.911
272.39
452.136
163.126
202.616
1098.32
441.823
150.134
103.07
227.605
149.236
134.103
124
151.62
150.102
157.362
152.011
169.571
214.022
362.299
443.025
514.648
407.029
459.961
197.267
145.422
364.525
177.926
134.127
143.805
124.282
127.879
153.814
143.682
154.814
299.9
326.32
409.977
456.719
1673.34
345.127
167.035
147.935
123.645
128.188
140.359
136.307
128.929
132.747
131.059
128.388
132.155
146.129
372.539
363.847
417.582
227.162
1014.23
963.376
871.478
285.832
226.451
106.96
96.3243
152.428
125.451
127.861
129.91
140.438
143.738
127.988
136.703
185.448
331.897
172.251
527.393
1091.67
235.356
136.142
146.347
146.933
136.102
128.467
82.7741
139.882
114.223
133.414
108.406
107.952
133.684
142.254
183.669
445.474
252.718
454.865
150.76
113.653
110.491
103.745
186.264
115.835
120.977
74.3984
95.8421
81.8812
88.6417
121
104.43
138.885
221.383
179.61
998.807
1128.69
253.583
143.752
111.662
96.0663
86.0854
101.924
103.819
94.0075
89.5321
82.2569
122.165
114.735
123.148
118.18
132.73
358.876
891.582
339.351
135.821
115.954
157.494
171.016
108.986
103.748
87.3753
73.0475
72.0206
75.9984
98.3536
130.954
135.271
158.312
134.54
275.624
713.176
1096.02
886.778
310.46
176.136
134.279
118.75
141.538
100.05
90.8418
79.2938
74.6971
76.6835
83.9649
108.262
161.19
154.437
148.34
440.546
422.507
160.6
144.407
133.228
119.834
106.042
93.9169
128.166
85.138
112.658
97.633
88.8471
89.9237
112.057
112.97
137.911
277.965
960.478
178.129
116.781
143.496
98.8526
98.0238
99.6893
91.927
96.8341
92.6977
99.3367
113.268
111.581
113.174
113.092
181.47
154.321
313.758
416.002
132.433
152.153
127.777
93.7442
87.4222
98.5804
85.805
77.8782
99.7525
129.102
115.623
110.621
128.872
130.41
178.938
172.685
988.532
235.987
111.055
98.3529
83.3882
84.0867
82.8847
89.8051
110.622
68.9269
67.1761
80.1863
106.568
141.186
148.617
196.021
159.437
276.522
1179.05
439.744
160.746
110.262
90.1785
80.9017
76.9166
86.3788
85.4913
72.0127
69.6857
69.622
74.8051
81.4563
93.702
180.933
108.293
177.315
1000.2
1103.76
213.719
107.714
136.106
94.2813
80.7077
76.1242
76.8195
76.9355
81.7135
69.1698
77.3176
101.181
96.4417
100.51
109.013
146.884
287.147
412.484
136.008
106.013
88.1358
78.0927
73.3664
71.525
77.7022
89.4286
77.6681
76.5222
80.521
94.495
121.362
143.664
140.846
169.285
992.402
1126.34
218.612
107.604
97.6661
83.182
75.2884
70.5594
67.6554
66.5129
73.2249
88.5232
89.4526
89.653
89.5852
107.813
124.991
164.073
257.805
894.098
148.107
115.486
97.1304
82.8831
75.5945
69.8204
66.1002
63.5336
63.325
65.8023
75.3253
80.9954
86.9769
96.3149
124.492
187.869
312.405
261.296
120.614
130.76
103.341
86.3385
77.019
72.3599
65.4399
60.2
60.3119
63.5336
69.5417
78.1777
86.0755
105.27
118.027
158.944
496.546
236.162
136.572
130.224
97.171
87.4652
77.1329
74.633
69.4596
61.7773
58.2948
62.3284
69.0324
77.0129
96.0423
104.799
124.01
240.996
1109.28
1150.21
174.191
106.842
109.718
95.1143
83.6533
77.0651
73.599
77.0871
72.1571
64.8875
65.1034
70.9404
78.3445
91.3408
141.523
159.921
452.729
919.074
156.366
107.147
86.2276
78.8873
75.4192
70.8654
66.5327
64.2528
70.3078
70.6768
69.916
73.8966
81.5065
90.6142
124.614
165.177
1057.08
275.981
132.287
114.161
90.5308
80.5784
78.6617
73.7791
64.4898
57.9843
55.9317
59.9678
66.2963
74.2685
80.3916
109.989
108.553
171.107
1091.32
262.05
116.045
96.9752
84.1101
76.0943
80.6503
83.4122
64.0101
54.978
55.413
60.4477
67.1239
74.8717
84.3772
97.3722
118.739
256.391
1023.47
190.471
114.507
95.9046
82.4766
77.4332
70.3633
75.033
72.7778
52.5227
50.8864
58.5612
66.092
73.7919
85.0962
109.294
141.484
434.181
423.286
142.891
136.419
125.123
88.1983
79.6185
75.2598
62.5085
69.9458
60.6923
47.0382
60.3446
69.8755
74.764
85.8583
111.391
159.156
991.414
271.74
121.545
94.8786
83.7199
75.5771
76.76
85.0282
80.0836
68.7891
50.0801
62.4769
62.9568
71.9341
78.3019
85.3076
122.834
203.699
1125.66
1043.58
176.506
112.767
97.7794
81.5911
74.4532
68.5867
78.1765
79.9576
73.2891
65.3955
47.8407
62.6718
74.1309
78.1757
99.934
107.437
229.634
1036.09
165.035
106.471
86.6739
76.2387
71.4284
67.467
63.794
75.5343
75.9489
71.3329
60.8847
59.4699
71.1355
82.804
93.4633
119.614
401.544
1018.7
162.449
106.719
84.3824
75.9188
70.2385
65.5585
62.4951
60.9821
61.4603
55.8633
68.5775
64.0464
77.3531
93.7964
119.84
133.621
883.407
1013.98
157.852
106.098
84.7933
75.4161
70.8604
65.1903
59.9931
60.0605
64.5671
58.6822
58.231
68.1756
81.6594
96.2452
136.61
192.998
1111.43
266.424
138.685
109.9
88.279
77.3407
70.477
64.8422
59.0249
55.3185
57.7186
67.7602
70.7757
74.7163
82.3169
94.702
131.284
218.706
1145.23
244.892
118.933
97.1924
85.8155
77.1019
71.133
64.3021
57.7581
55.9453
54.4543
59.5702
74.293
82.6728
86.4302
88.9131
129.12
215.53
1096.85
166.36
125.67
116.715
84.8075
76.388
70.4086
66.4512
61.0464
54.3738
55.8267
58.4544
62.7624
73.8929
87.0006
97.7706
113.654
233.266
972.417
162.193
106.738
83.073
74.8553
70.6326
67.0605
64.7914
68.1443
66.9431
59.4746
59.3648
64.108
69.1111
76.7482
94.7062
114.802
248.016
1036.54
160.557
105.431
82.3287
72.2515
67.9896
62.7517
58.0779
54.2393
60.9555
64.9312
60.9234
65.1259
70.4438
77.0728
95.3888
120.235
265.432
1032.69
161.896
115.575
83.7987
71.7472
65.5231
59.1853
52.6116
48.3166
45.1299
49.1309
55.8531
64.1434
70.5253
79.0431
95.7672
129.791
411.35
962.396
151.889
108.728
83.6386
71.5687
64.0845
55.9209
49.418
43.6095
42.8721
47.4001
55.6456
64.0024
70.8971
79.4865
100.628
154.458
975.631
269.262
146.802
102.355
85.4331
74.6007
64.2174
54.9168
47.4276
41.1677
39.0119
45.4542
55.1018
63.3565
71.041
80.61
100.857
156.052
1057.73
271.113
141.048
99.3562
85.774
79.4508
69.9502
57.3882
47.3022
40.5259
36.6667
42.758
57.7721
65.498
70.9126
83.2821
105.739
153.643
1023.01
1144.52
183.057
133.449
99.8445
80.3857
81.1296
80.8906
59.3837
55.6438
41.4946
43.588
43.5231
58.6087
71.4299
74.0524
83.1048
119.105
165.355
1008.77
1028.62
146.901
100.919
134.561
88.0827
71.9304
74.292
72.9541
59.4479
49.3705
43.9816
42.3149
57.7843
78.6426
79.7313
86.1879
114.512
208.355
151.111
96.3872
75.9527
69.3912
67.6628
65.4954
58.9697
54.3792
53.4358
52.0446
43.7737
59.8094
67.1698
77.3507
101.388
104.845
219.949
962.127
150.415
94.7403
72.4409
65.9338
65.0788
65.5961
61.8725
52.6282
57.249
45.9365
42.9752
58.8679
72.3143
77.2462
107.268
112.88
263.167
1006.59
144.562
93.7277
71.8353
65.6423
64.3834
61.7631
64.7485
60.3954
46.2375
51.8746
52.2162
66.9156
73.6262
74.8265
97.4962
118.706
409.408
1109.23
145.832
98.0454
75.2303
66.0138
62.5798
59.7605
57.2988
64.1655
59.1987
43.9268
56.2113
68.2699
69.8245
75.9441
90.1578
126.362
828.978
134.844
113.278
84.6074
68.4957
60.5769
58.326
55.7437
54.7971
62.3852
53.9255
54.3358
58.8286
64.216
75.8814
97.6934
147.759
930.747
723.654
196.204
85.9762
67.1971
57.6327
53.8189
53.9189
51.6811
49.5402
54.8226
56.8939
63.0684
66.1211
75.3854
102.681
152.154
1029
2146.98
306.685
147.539
96.3333
62.4463
52.4343
48.9267
47.3644
52.8785
53.5685
55.4891
61.7224
67.1757
72.566
83.2872
103.486
169.464
1076.84
249.193
109.859
104.381
75.0887
51.6847
45.5919
43.1919
42.666
47.1064
58.1583
56.4372
60.3989
70.2066
73.9019
97.6178
107.269
234.285
233.611
110.254
91.9303
68.4388
49.612
42.6991
41.1574
41.5033
41.7379
55.0895
55.2396
66.1555
78.4667
83.8122
93.9756
112.172
254.284
1157.67
202.483
103.579
93.605
82.4229
73.3829
70.8837
50.1539
38.938
40.5745
43.8546
51.7816
69.9149
83.0467
95.6115
116.322
133.698
829.692
932.313
151.629
107.986
85.5991
77.5039
74.0128
130.749
138.341
54.0128
36.8615
47.8985
61.8346
75.3961
87.6023
108.472
138.183
147.675
966.518
808.396
115.967
193.767
125.802
85.5702
62.6322
63.3409
84.0086
151.447
65.9994
44.4504
66.399
87.3261
97.6735
115.203
156.963
154.32
983.067
422.344
110.249
121.521
96.4647
79.4905
58.6944
67.6839
79.6984
83.1589
85.4515
64.2791
80.7826
91.717
95.269
108.578
169.07
162.499
1024.9
1009.87
219.06
110.316
114.394
111.967
85.258
54.8027
53.0231
85.8628
115.994
101.453
80.5741
84.798
87.9043
85.245
105.1
134.996
297.696
1035.6
901.806
136.229
150.942
108.124
101.561
98.0635
55.5386
30.2797
38.4092
55.6228
66.6884
64.274
71.5123
75.6665
82.6444
91.3447
111.802
179.845
1067.88
207.344
124.114
102.715
99.1028
92.5613
50.8873
28.9787
26.7148
32.7238
43.3462
61.2127
71.9629
75.9761
83.6276
102.255
114.091
232.736
1192.66
236.773
121.689
119.656
107.524
92.5607
39.3044
36.6387
36.3381
31.1776
39.2835
59.5114
78.1674
79.3823
85.3248
106.479
123.066
272.664
239.856
128.364
128.341
112.34
95.272
43.5845
29.4023
38.5055
41.5666
47.5695
76.7799
84.2225
83.3642
87.3415
110.833
129.203
424.522
212.947
204.205
143.144
112.737
94.2704
31.2952
23.5507
28.1377
38.5257
53.1111
80.7021
88.7789
86.618
94.5975
105.897
136.446
868.606
956.073
151.585
130.826
115.747
106.196
94.5318
42.6236
23.2787
26.968
39.0871
66.6103
89.8034
95.6311
92.4098
95.5558
127.579
169.319
972.087
908.499
159.21
139.012
115.015
102.14
95.2456
36.1551
26.9838
28.95
41.8967
68.2924
88.0159
91.5238
88.6988
98.9606
116.201
248.36
843.116
134.408
102.762
96.5629
94.479
91.5542
56.683
26.9709
30.3668
43.9608
69.8681
86.7683
79.2238
82.2334
97.2841
124.145
285.108
855.337
130.579
103.968
95.2715
90.8908
85.2026
41.9724
34.2927
37.4561
48.1911
67.4843
82.3403
77.4376
79.9559
97.2492
130.376
286.022
874.748
135.471
112.33
98.3646
91.6294
74.778
38.6106
34.9841
38.6267
47.7851
62.3055
78.2973
74.8665
80.7092
96.6217
135.269
855.717
890.695
141.106
126.186
115.826
100.503
73.1949
48.8886
35.8901
42.122
49.8985
59.7733
77.2304
74.9994
86.633
102.456
156.224
956.822
282.199
144.2
159.277
138.548
105.477
88.4731
125.245
109.114
56.7279
51.7088
60.4868
76.2828
80.4343
88.2393
124.489
158.452
1030.46
341.13
328.046
147.198
123.111
69.7033
48.2031
73.6144
128.244
76.9179
75.6147
87.557
90.43
109.152
120.87
198.276
1164.72
334.507
199.089
145.972
133.334
79.1348
47.605
59.8291
92.7475
108.907
112.053
113.872
96.6552
112.04
111.66
244.944
300.529
208.835
167.245
145.721
130.178
87.222
58.5588
82.7677
96.8435
112.168
110.027
96.1747
105.821
110.23
117.462
272.466
317.474
141.864
132.733
144.208
143.388
111.208
66.1714
87.1074
111.264
125.333
114.451
119.282
115.757
160.577
145.47
837.011
313.587
146.539
139.852
145.298
145.214
150.796
87.2336
103.883
111.437
111.475
118.997
128.328
144.93
201.666
169.975
1031.78
1165.86
280.255
164.761
117.672
149.823
165.229
141.589
140.787
113.172
143.135
135.737
122.413
115.422
159.976
220.628
470.329
1209.76
198.534
132.542
131.855
99.6115
179.918
171.045
131.207
91.3632
116.283
137.543
130.83
138.976
161.075
262.48
236.128
969.084
187.118
143.974
110.844
83.4882
110.948
136.567
215.427
133.663
114.932
140.832
151.342
165.444
184.172
286.35
812.977
269.691
138.872
515.813
247.187
133.908
76.6982
101.059
85.8326
84.9023
102.264
118.61
114.927
133.101
177.391
306.928
4107.25
281.629
520.422
232.344
148.446
130.057
91.2607
84.3531
115.038
110.375
107.08
129.843
144.9
147.819
189.147
298.269
807.439
1047.24
610.437
292.395
160.283
121.816
101.535
72.8897
84.378
111.527
117.638
142.726
170.731
203.372
197.614
324.646
1170.39
186.679
428.076
218.632
139.447
93.0016
72.7702
88.7811
110.408
124.179
133.107
144.739
131.785
190.789
230.825
1423.15
1161.04
204.843
153.001
306.408
206.54
137.394
77.6698
67.4203
109.722
122.567
138.382
152.798
161.861
154.085
314.269
1246.73
554.783
193.663
157.444
465.831
299.543
152.261
99.3097
87.6573
105.229
122.859
140.843
214.037
134.187
167.583
323.929
1112.03
519.987
445.073
327.967
197.055
110.15
103.773
109.28
131.802
145.901
220.394
156.123
221.602
1141.76
689.035
493.948
412.575
330.187
199.434
239.607
114.057
108.803
133.08
205.255
133.895
168.096
308.233
1121.73
178.799
149.163
462.95
465.991
152.9
225.832
278.294
131.796
160.139
198.471
155.857
197.567
512.884
1171.75
180.71
150.645
467.471
413.194
217.304
191.646
300.09
261.485
274.33
319.089
164.932
213.385
1191.79
1099.1
179.401
499.486
451.617
450.253
307.243
184.536
198.872
210.433
295.608
470.87
171.071
223.499
1282.74
1181.77
189.763
520.331
445.214
449.714
418.498
191.186
196.524
181.835
260.74
489.767
180.545
311.146
1337.66
1149.35
212.403
169.96
485.629
427.013
459.092
297.866
182.674
207.905
318.788
171.97
197.995
319.249
1455.19
1441.17
1143.99
186.748
170.13
464.046
453.773
572.192
297.087
247.448
356.277
522.16
204.379
341.888
180.027
513.308
457.775
464.759
159.522
517.642
537.909
562.039
525.004
181.818
163.732
474.362
557.082
186.94
210.96
290.714
1195.36
6280.91
588.266
166.391
501.786
541.467
224.53
384.67
2774.48
2085.3
501.636
788.999
215.439
244.441
1183.81
465.077
771.652
218.45
235.15
592.208
784.033
557.88
253.605
211.045
259.792
1180.26
1161.87
280.212
1878.42
746.078
516.927
335.712
200.794
185.344
214.231
207.675
647.951
277.355
214.205
377.655
691.289
1510.62
1317.11
6459.73
525.004
1519.21
603.816
573.663
1419.21
618.894
422.349
323.727
310.47
290.195
270.887
259.909
332.311
1415.65
609.486
399.606
301.255
287.908
267.966
255.983
254.561
261.14
259.086
253.926
239.424
240.515
245.157
235.189
1273.63
534.749
290.19
267.754
250.683
250.97
246.812
239.634
241.475
241.426
244.722
234.614
226.016
231.253
242.38
240.927
244.325
242.049
245.335
330.35
391.327
845.709
936.366
476.832
249.805
225.782
226.284
221.3
221.741
226.331
227.191
225.68
224.583
227.179
233.636
216.382
585.832
574.365
243.364
252.956
237.105
248.339
247.506
273.757
598.282
519.277
287.353
218.336
199.403
181.136
173.258
182.29
193.426
203.113
205.578
209.25
208.242
217.208
216.294
221.927
224.942
211.425
537.895
578.41
215.673
239.655
245.319
260.867
295.796
1281.6
414.192
192.645
150.41
140.248
173.287
180.653
398.866
577.309
704.579
166.971
184.61
195.192
189.055
184.89
191.944
214.797
221.72
211.894
200.583
520.054
571.559
221.586
248.206
289.148
619.994
1502.47
380.462
253.118
219.778
161.237
159.825
154.104
177.597
206.923
187.438
176.999
321.429
163.812
184.882
251.474
199.437
647.429
198.675
222.778
233.516
234.548
593.421
592.777
268.257
601.94
1245.44
300.732
284.577
202.77
146.776
128.033
135.23
158.482
161.836
150.546
237.228
185.583
161.245
156.567
235.584
395.436
169.769
183.794
502.689
222.75
234.598
233.282
237.909
264.138
544.623
392.636
1327.49
299.199
223.994
179.28
160.91
119.085
115.017
116.268
130.561
148.72
156.622
128.117
223.362
196.042
187.789
185.603
171.905
152.814
149.997
202.314
186.433
231.077
248.769
352.589
598.629
1054.37
364.971
157.691
149.023
181.499
151.948
153.653
122.552
110.436
99.3968
123.693
123.289
115.932
116.291
110.055
115.818
118.561
122.73
165.174
154.411
208.35
183.04
196.015
210.191
242.422
541.75
1132.64
203.504
126.059
171.804
152.483
132.654
146.762
132.705
131.789
128.028
126.067
117.411
111.575
117.966
131.085
105.424
111.95
117.297
121.822
126.975
247.591
160.609
568
542
679.27
4578.08
764.931
1380.49
290.709
180.416
134.173
119.112
116.058
133.99
176.335
158.799
140.384
134.884
132.963
129.966
141.707
146.173
134.918
121.775
128.85
125.92
126.436
133.712
136.412
557.989
1652.99
1280.11
330.409
184.499
129.526
112.9
115.02
117.915
114.639
120.088
119.96
177.231
149.88
138.074
119.983
167.229
162.848
146.702
144.685
158.502
142.55
135.38
124.072
189.47
428.077
441.886
180.219
179.312
176.974
157.203
113.642
102.348
103.606
112.915
120.08
117.952
114.778
112.887
103.957
135.641
122.776
114.849
158.845
158.76
165.112
190.876
188.445
120.365
178.501
444.067
419.694
184.663
139.68
141.207
116.474
110.115
105.365
104.975
100.496
102.655
108.482
116.878
113.915
100.463
98.0954
110.4
119.217
129.845
135.708
170.876
196.878
198.396
349.757
165.075
432.875
380.358
159.113
168.571
149.779
120.579
108.786
105.385
101.062
101.177
95.9603
94.6114
98.3096
102.113
108.102
93.2415
91.9613
102.667
118.32
135.948
131.836
155.283
221.37
234.472
373.657
811.69
1143.73
365.48
153.061
154.564
119.693
110.81
106.861
106.506
104.739
98.796
91.525
79.093
74.2905
82.357
97.3399
101.785
98.8272
101.263
104.226
112.737
123.109
134.815
158.239
195.428
361.431
391.061
1121.83
358.259
142.41
148.024
115.631
101.966
96.3742
92.9659
92.8628
98.0463
93.4497
79.7548
66.7408
62.5589
66.9216
80.3435
83.8785
91.4151
102.845
106.569
103.676
113.45
125.671
177.129
355.198
427.221
1006.8
240.758
138.018
153.963
116.739
101.168
93.6411
85.4905
77.1745
70.8358
69.7821
75.8418
69.6138
64.8432
61.938
69.0231
77.3328
83.8766
84.1319
92.4299
109.829
108.107
119.943
144.672
202.39
296.719
1327.46
1208.07
255.262
131.56
116.388
104.223
97.499
95.4547
87.194
72.7164
58.946
54.2096
53.8735
55.2116
58.0646
61.2068
66.3608
72.3281
83.8221
92.664
98.827
103.717
118.542
125.7
154.24
196.47
177.786
1519.75
387.369
139.237
157.443
114.857
97.5027
93.2967
88.8957
76.1261
54.646
47.2099
44.9079
45.267
47.4262
51.2988
56.5847
65.1701
76.0025
84.5852
93.5453
101.445
109.424
123.366
149.317
196.694
172.182
422.283
435.333
172.612
127.294
109.477
100.288
95.2265
88.0987
81.1083
51.1617
41.3754
38.5921
38.6651
40.4175
43.008
47.9375
55.2781
66.7064
78.2717
87.7262
94.0848
100.149
108.888
119.959
151.412
170.328
432.229
977.635
219.761
125.864
122.406
101.892
97.2341
93.7075
83.3326
51.9664
37.2509
33.1098
32.8766
33.6579
36.3591
39.8151
44.2606
51.7084
64.5852
78.1581
88.813
95.8296
104.347
118.55
136.844
146.911
384.129
374.931
137.24
113.549
95.3297
90.2185
86.4433
82.9952
57.5589
35.2133
30.338
29.6108
30.1837
31.3287
32.8043
36.2402
41.2156
49.0724
63.4571
77.8707
90.2586
98.6275
107.344
137.458
176.845
272.446
428.474
152.607
150.6
109.607
90.9725
83.0417
81.4767
71.0221
45.2349
33.1985
28.9998
28.0408
28.6802
29.7132
31.3386
34.4294
40.2765
52.5323
69.5139
84.6935
95.2377
105.725
116.254
136.177
163.951
817.126
913.89
199.987
123.029
120.428
95.3887
86.385
77.9744
72.6951
57.5315
42.0302
36.6865
34.0561
31.5794
29.6276
30.6574
33.5036
39.0357
50.0428
69.2489
86.9318
94.8032
105.132
118.995
135.01
141.094
391.9
920.579
214.18
128.235
125.534
99.8291
90.3236
82.4407
74.3557
62.6688
44.3325
36.1017
38.0287
36.5409
34.5516
32.894
33.6238
39.699
51.4437
76.0487
93.1661
100.384
108.651
115.183
147.829
196.282
238.859
1079.29
383.056
149.753
129.553
101.178
92.5014
87.2346
79.9546
69.8583
56.5318
36.4578
32.964
37.683
42.3205
41.1293
39.9587
42.6991
55.3146
76.8843
90.0371
96.7456
103.887
116.81
145.88
190.27
216.437
907.769
755.49
177.667
158.535
109.953
92.5121
87.6205
84.0043
75.6851
66.105
51.4861
35.2899
32.2131
39.3494
46.0036
47.7271
48.2409
55.4498
75.3566
85.0185
91.3511
96.1792
105.618
148.661
184.895
213.799
894.947
219.898
126.854
105.047
90.9437
83.1279
83.0531
79.2713
64.586
53.0111
47.3736
37.5646
33.368
38.8182
51.3382
59.7475
62.3619
69.8472
81.7697
89.1387
93.008
99.3265
114.981
139.627
194.356
888.386
742.041
135.344
115.043
93.5773
84.5873
75.2509
67.6071
67.0204
54.3593
44.2613
41.1498
38.9673
36.5023
39.2637
49.7511
60.9549
69.8851
77.0797
84.5213
88.6197
96.9145
110.412
139.557
185.285
365.071
229.936
124.438
102.1
90.8959
80.4216
68.976
56.1779
46.4735
43.4209
37.9193
35.8153
37.0346
38.4431
41.1692
47.4754
63.9897
71.4754
79.1682
88.0407
95.7418
100.321
122.352
168.308
221.966
926.192
913.855
178.015
113.487
94.7542
88.7376
80.0006
66.4672
45.9637
36.4247
33.7173
32.4567
32.2562
35.5327
42.3498
50.1635
59.5596
72.6113
80.014
83.4951
89.8408
98.8904
108.518
121.97
149.663
830.286
305.942
137.885
121.171
96.219
87.8001
81.8945
65.6455
41.0966
31.4874
28.2431
28.0685
29.9141
33.7206
41.1354
53.8713
71.5824
80.5411
87.8868
89.8808
93.2792
103.236
118.945
152.196
243.281
1193.62
698.481
129.645
107.134
90.8315
82.2864
81.2776
79.4296
60.151
35.5339
28.0655
25.343
25.0357
26.631
30.8263
37.1205
46.0968
62.2143
76.4459
85.3517
93.1879
99.3385
107.912
146.308
207.13
882
187.681
142.809
100.023
86.1879
78.3685
72.6404
71.9483
65.4241
39.5708
27.9322
24.9161
24.4079
25.4489
27.975
33.675
42.0181
55.0386
70.6271
83.7227
96.0398
112.83
132.359
132.318
390.996
677.913
129.201
102.703
84.0908
76.7088
72.1697
68.7362
64.044
58.2739
43.5657
30.5765
26.0859
26.0635
27.0601
28.7773
33.7385
43.0945
57.2821
72.4624
85.697
97.7985
115.152
168.54
215.372
993.959
214.432
118.023
93.4358
81.0364
73.4429
67.8373
64.2419
58.4997
49.0995
39.7224
31.4151
27.5532
28.3395
31.943
36.628
42.3168
53.5753
72.4292
79.9383
89.1518
102.172
133.94
173.342
381.9
686.133
127.32
104.538
87.616
77.3339
69.999
63.2536
57.0575
52.0691
42.2064
35.9057
31.2459
28.5274
29.8841
35.4023
46.7862
62.6312
71.0299
80.3918
89.032
94.7924
107.831
124.072
157.62
886.193
212.421
117.148
93.9565
82.6614
74.3528
66.2967
58.913
52.3532
46.8431
40.8001
32.5552
29.489
28.7935
30.8146
36.7496
46.2633
62.6182
74.1624
81.8225
89.6421
99.374
124.996
165.221
244.592
700.643
126.294
104.849
86.5914
78.4651
70.6051
62.2771
54.1313
48.0802
43.4538
40.0052
34.5598
30.5921
30.2315
33.3607
41.0607
51.7058
63.2328
72.6634
83.1532
91.0759
107.672
121.424
142.499
832.295
220.166
112.305
91.9904
84.1019
76.2293
68.9778
59.461
49.0656
42.3739
39.8605
38.8061
37.0535
34.1205
35.0066
40.6758
52.6415
64.305
69.7847
75.4118
83.6303
94.3049
105.85
172.028
231.028
184.685
140.788
96.2661
82.4986
74.7852
68.3876
59.2459
46.1092
38.1256
35.8998
36.282
37.7894
40.3689
42.915
49.0009
59.4273
67.5869
72.2715
76.5026
84.8239
101.15
128.235
123.014
687.066
731.501
125.539
102.888
85.4924
77.8735
73.2531
67.7862
59.5074
45.2664
35.657
32.3835
32.7029
35.2103
39.1406
44.6178
51.5411
58.6597
65.0003
71.7092
77.7108
84.2732
102.87
166.76
199.562
979.68
695.942
135.471
96.4979
80.0431
74.4543
71.7116
67.8459
59.6028
45.1061
34.6373
30.121
29.4729
31.5636
35.8808
42.2264
50.8821
58.7323
65.33
70.6478
76.5337
83.5647
98.454
167.38
631.484
332.235
127.564
94.0202
78.9124
69.8097
65.4037
64.3668
58.5587
44.5794
34.3519
28.9161
27.5134
28.9303
32.8588
38.9379
48.0444
58.2685
67.146
74.5644
80.2161
90.7666
109.868
156.073
766.545
182.668
148.324
96.6333
78.3992
68.0429
59.3297
53.7618
50.5481
42.9811
34.3841
28.9345
26.6285
28.2169
32.303
38.5609
47.5314
56.5911
66.4636
75.9156
85.4434
93.6378
136.127
213.581
697.028
147.456
118.988
85.5739
74.5087
66.478
56.8109
47.3731
40.8167
37.3069
33.0972
29.2916
27.856
29.1059
34.0021
40.4892
49.8578
58.4593
66.0761
75.2912
84.5829
114.615
123.545
705.539
345.074
124.211
91.0194
77.3685
70.6099
64.6639
55.9364
44.8315
36.255
32.1445
29.8231
28.3762
28.3659
30.6934
35.7503
43.3429
52.7787
61.2964
68.2122
74.2925
86.9421
108.83
162.77
954.677
177.979
144.863
96.7668
78.7156
69.4709
62.4558
54.4751
42.9922
33.914
28.8043
26.4576
26.3606
27.7719
31.1274
37.0216
45.0967
55.2052
63.3266
70.8219
77.3435
88.6627
119.972
205.07
735.092
127.866
102.442
82.6986
75.2612
68.6956
61.6567
53.7169
42.0817
32.0309
26.9008
24.1964
23.8825
25.8265
29.8889
36.1214
44.7923
56.3285
65.106
72.3915
81.778
90.8967
128.264
347.99
340.831
122.461
90.9678
81.1739
72.7029
66.4179
60.841
53.5062
42.495
30.8685
25.0768
22.6153
21.9814
23.5107
27.8218
34.843
44.2118
55.7683
65.5757
73.1143
82.845
111.897
119.241
682.693
228.53
108.737
87.5723
77.29
69.4192
62.3332
56.1127
49.6829
41.9123
31.5979
23.9406
21.242
21.0137
22.5366
26.4879
34.0954
45.761
56.9625
65.9283
74.5569
83.8086
115.267
165.229
965.026
189.585
144.727
93.6221
77.3758
68.3606
59.7804
52.5462
45.8749
39.1225
32.8049
25.3294
20.872
20.1255
21.8992
26.509
34.9707
48.2536
59.9636
68.3722
75.9006
92.6574
110.443
180.365
895.415
130.02
96.7878
81.5235
74.717
67.5259
58.6164
48.9344
42.3103
37.2122
32.0491
27.3273
22.6799
20.1932
21.0645
25.8655
35.9119
51.2963
61.5146
70.8868
80.3214
91.8101
145.395
333.644
709.549
121.152
101.404
82.7844
75.2015
68.4796
59.4998
48.4941
38.8782
34.3057
31.5204
28.1079
24.5126
22.1521
21.8544
25.7271
37.1564
55.3561
64.2059
72.103
82.1835
114.126
124.332
725.271
658.033
130.167
94.7875
81.902
74.6269
68.309
60.1512
49.0463
37.8695
31.7756
29.5671
28.7175
26.5946
24.234
24.7642
29.1183
41.4438
58.0644
66.4754
74.3759
89.9118
102.953
173.608
231.59
108.386
86.0745
76.7657
72.5902
67.3562
59.7532
49.1705
37.5155
30.8927
27.969
27.8025
28.6703
28.0916
28.3194
34.1871
47.6995
59.5046
67.1056
76.3159
93.5042
144.409
218.011
223.506
108.452
87.1818
78.448
71.1405
65.7898
59.2284
48.8411
37.3459
30.2574
27.0326
26.7705
28.6976
32.2946
36.9508
43.6574
54.5321
60.7654
67.0883
77.7638
90.6515
150.547
624.346
193.047
151.447
95.4655
76.556
67.892
62.2226
56.8535
48.331
37.4147
29.8563
25.9894
25.6403
27.9661
32.379
38.4894
47.3733
56.1255
61.4702
66.6557
75.8498
108.12
140.659
658.947
187.743
107.08
81.8794
72.6515
65.273
57.912
51.3699
44.5435
36.8766
29.7651
25.3242
24.3187
26.4941
30.8502
37.2128
45.7034
53.4604
59.8966
66.1495
75.7947
92.8052
144.733
794.158
176.338
103.445
79.8725
71.3567
64.0037
55.4368
46.7322
39.4844
34.0925
29.1448
25.3069
23.9407
25.5777
30.024
36.4449
44.951
52.7512
59.4401
65.2621
74.0631
96.8902
125.868
897.646
863.676
131.741
96.5952
78.869
71
63.8529
54.2995
43.6807
35.1761
30.4134
27.0241
24.7308
23.8923
25.4007
29.8024
36.9353
45.982
54.2078
61.2575
67.1464
74.0823
95.4882
160.331
681.712
132.175
111.177
81.3305
70.5063
63.4183
54.4933
42.1593
32.2624
27.2968
24.3943
23.0053
23.1189
25.1604
29.86
37.228
46.8349
55.0162
62.3831
69.8697
76.031
98.4438
166.977
673.316
128.811
88.315
73.7427
67.3304
61.558
55.0191
42.5562
30.5267
25.0391
22.1886
20.9341
21.3553
23.8242
28.6464
36.0901
46.4058
55.359
62.3788
70.1754
82.151
94.7595
173.261
337.112
117.438
84.1375
71.5133
65.8828
60.2317
54.6874
45.0942
30.3316
23.5358
20.6066
19.236
19.3969
21.7468
26.8653
34.4792
44.9194
54.7727
62.3098
70.2158
83.3447
115.245
221.653
223.325
101.85
79.1048
68.549
62.9444
58.5473
53.3759
46.4895
33.033
22.7958
19.2489
17.994
18.1215
20.2641
25.2704
33.6933
44.8578
54.5724
62.4826
69.6969
85.1435
120.343
600.081
227.013
102.589
79.5204
67.71
60.1846
55.2394
51.2663
45.3659
36.1018
25.6806
18.7788
16.7448
17.0605
19.5376
24.9692
34.0575
46.3331
55.7436
63.9538
70.9734
84.2145
127.675
636.099
191.501
107.884
83.4488
68.771
59.3197
51.6996
46.2912
42.0878
36.0076
28.3853
21.4509
17.0702
16.4789
18.8784
24.9167
34.7411
47.9786
57.5736
65.5103
75.7824
84.1247
124.208
665.409
177.819
108.346
80.4323
67.4967
57.9639
48.8165
41.1029
36.6418
34.0603
29.4236
23.8411
19.3751
17.3066
19.2369
25.6734
36.9477
50.1881
58.9259
65.8206
77.0919
101.44
115.748
733.545
186.075
109.494
81.1003
68.3811
57.5952
45.7992
36.5014
32.5118
30.2632
28.3569
24.9895
21.8316
20.4641
22.2192
29.1534
41.2252
51.4176
58.9994
66.2866
75.6382
103.9
154.91
924.925
180.011
112.462
87.5183
72.9117
60.1582
43.3311
33.0645
29.6567
27.3858
25.35
23.5104
21.9085
22.5804
26.2877
33.7062
44.3478
52.8316
59.2027
65.8359
75.8667
101.963
166.965
867.635
130.439
104.597
92.8894
77.3769
64.0331
41.6729
30.7444
27.4997
25.6975
23.7399
21.8194
20.6358
21.6306
26.2075
34.0661
45.2428
54.1584
60.9085
66.6868
74.9832
101.013
170.242
685.222
152.487
112.855
83.023
73.9212
65.5228
40.876
29.2753
25.8835
24.3601
23.0585
21.5472
20.5512
21.1373
25.2037
33.3687
45.1878
54.4006
61.4952
68.7854
76.2067
99.5889
176.615
692.844
134.705
93.7833
76.8244
69.3882
63.3933
47.8573
29.8569
24.8932
23.1785
22.0881
21.2707
20.9438
22.1439
25.6824
33.6349
46.7993
56.3368
63.4712
70.5579
83.7281
104.112
168.331
356.258
126.025
90.8686
76.9523
68.5765
59.0481
47.5768
31.8296
24.6552
22.3395
21.1841
20.3534
20.192
21.8365
26.6129
35.2682
50.0109
60.233
67.2038
74.1695
87.675
122.659
202.295
222.891
111.37
89.5702
77.9126
70.5759
62.1741
45.0855