# vtk DataFile Version 2.0
track0
ASCII
DATASET POLYDATA
POINTS 12045 float
-0.0205 0.001 1e-05
-0.02052 0.000999985 1e-05
-0.02054 0.000999974 1e-05
-0.02056 0.000999965 1e-05
-0.02058 0.000999959 1e-05
-0.0206 0.000999956 1e-05
-0.0205 0.00367778 1e-05
-0.02052 0.00367778 1e-05
-0.02054 0.00367777 1e-05
-0.02056 0.00367777 1e-05
-0.02058 0.00367777 1e-05
-0.0206 0.00367777 1e-05
-0.0205 0.00635556 1e-05
-0.02052 0.00635555 1e-05
-0.02054 0.00635555 1e-05
-0.02056 0.00635555 1e-05
-0.02058 0.00635555 1e-05
-0.0206 0.00635555 1e-05
-0.0205 0.00903333 1e-05
-0.02052 0.00903333 1e-05
-0.02054 0.00903333 1e-05
-0.02056 0.00903333 1e-05
-0.02058 0.00903333 1e-05
-0.0206 0.00903333 1e-05
-0.0205 0.0117111 1e-05
-0.02052 0.0117111 1e-05
-0.02054 0.0117111 1e-05
-0.02056 0.0117111 1e-05
-0.02058 0.0117111 1e-05
-0.0206 0.0117111 1e-05
-0.0205 0.0143889 1e-05
-0.02052 0.0143889 1e-05
-0.02054 0.0143889 1e-05
-0.02056 0.0143889 1e-05
-0.02058 0.0143889 1e-05
-0.0206 0.0143889 1e-05
-0.0205 0.0170667 1e-05
-0.02052 0.0170667 1e-05
-0.02054 0.0170667 1e-05
-0.02056 0.0170667 1e-05
-0.02058 0.0170667 1e-05
-0.0206 0.0170667 1e-05
-0.0205 0.0197444 1e-05
-0.02052 0.0197444 1e-05
-0.02054 0.0197444 1e-05
-0.02056 0.0197444 1e-05
-0.02058 0.0197444 1e-05
-0.0206 0.0197444 1e-05
-0.0205 0.0224222 1e-05
-0.02052 0.0224222 1e-05
-0.02054 0.0224222 1e-05
-0.02056 0.0224222 1e-05
-0.02058 0.0224222 1e-05
-0.0206 0.0224222 1e-05
-0.0205 0.0251 1e-05
-0.02052 0.0250998 1e-05
-0.02054 0.0250997 1e-05
-0.02056 0.0250995 1e-05
-0.02058 0.0250995 1e-05
-0.0206 0.0250994 1e-05
-0.0205 0.001 1e-05
-0.0202034 0.00100022 1e-05
-0.0199069 0.00100067 1e-05
-0.0196103 0.00100133 1e-05
-0.0193137 0.00100219 1e-05
-0.0190172 0.00100326 1e-05
-0.0187132 0.00100467 1e-05
-0.0184093 0.00100589 1e-05
-0.0181054 0.00100711 1e-05
-0.0178015 0.00100832 1e-05
-0.0174976 0.00100954 1e-05
-0.0172058 0.00101083 1e-05
-0.016914 0.00101193 1e-05
-0.0166222 0.00101303 1e-05
-0.0163305 0.00101413 1e-05
-0.0160387 0.00101523 1e-05
-0.0157586 0.00101637 1e-05
-0.0154784 0.00101745 1e-05
-0.0151983 0.00101856 1e-05
-0.0149182 0.00101971 1e-05
-0.0146381 0.0010209 1e-05
-0.0143745 0.00102209 1e-05
-0.0141108 0.00102327 1e-05
-0.0138472 0.00102449 1e-05
-0.0135836 0.00102574 1e-05
-0.013361 0.00102682 1e-05
-0.0133475 0.00102688 1e-05
-0.013334 0.00102695 1e-05
-0.0133205 0.00102702 1e-05
-0.0133069 0.00102709 1e-05
-0.0132934 0.00102715 1e-05
-0.0130353 0.00102844 1e-05
-0.0127771 0.00102974 1e-05
-0.0125189 0.00103106 1e-05
-0.0122607 0.0010324 1e-05
-0.0120025 0.00103375 1e-05
-0.0117547 0.00103505 1e-05
-0.0115068 0.00103637 1e-05
-0.0112589 0.00103769 1e-05
-0.0110111 0.00103901 1e-05
-0.0107632 0.00104034 1e-05
-0.0105252 0.00104162 1e-05
-0.0102873 0.00104289 1e-05
-0.0100493 0.00104417 1e-05
-0.00981133 0.00104545 1e-05
-0.00957337 0.00104673 1e-05
-0.00934491 0.00104795 1e-05
-0.00911645 0.00104917 1e-05
-0.00888799 0.00105039 1e-05
-0.00865954 0.0010516 1e-05
-0.00843108 0.00105282 1e-05
-0.00821175 0.00105397 1e-05
-0.00799242 0.00105513 1e-05
-0.00777309 0.00105628 1e-05
-0.00755376 0.00105743 1e-05
-0.00733443 0.00105857 1e-05
-0.00712387 0.00105966 1e-05
-0.0069133 0.00106075 1e-05
-0.00670273 0.00106184 1e-05
-0.00649216 0.00106292 1e-05
-0.0062816 0.001064 1e-05
-0.00607944 0.00106502 1e-05
-0.00587729 0.00106604 1e-05
-0.00567514 0.00106706 1e-05
-0.00547298 0.00106808 1e-05
-0.00527083 0.00106909 1e-05
-0.00507675 0.00107005 1e-05
-0.00488267 0.00107102 1e-05
-0.0046886 0.00107198 1e-05
-0.00449452 0.00107293 1e-05
-0.00430044 0.00107388 1e-05
-0.00411412 0.00107478 1e-05
-0.0039278 0.00107569 1e-05
-0.00374147 0.00107659 1e-05
-0.00355515 0.00107749 1e-05
-0.00336883 0.00107838 1e-05
-0.00318995 0.00107923 1e-05
-0.00301107 0.00108009 1e-05
-0.00283219 0.00108094 1e-05
-0.00265331 0.00108178 1e-05
-0.00247443 0.00108263 1e-05
-0.0023027 0.00108343 1e-05
-0.00213097 0.00108424 1e-05
-0.00195924 0.00108504 1e-05
-0.0017875 0.00108584 1e-05
-0.00161577 0.00108664 1e-05
-0.0014509 0.0010874 1e-05
-0.00128603 0.00108817 1e-05
-0.00112116 0.00108893 1e-05
-0.000956289 0.00108969 1e-05
-0.000791418 0.00109045 1e-05
-0.000633135 0.00109118 1e-05
-0.000474851 0.00109191 1e-05
-0.000316567 0.00109264 1e-05
-0.000158284 0.00109337 1e-05
0 0.00109409 1e-05
0.000105677 0.00109457 1e-05
0.000211355 0.00109505 1e-05
0.000317032 0.00109553 1e-05
0.00042271 0.001096 1e-05
0.000528387 0.00109647 1e-05
0.000634886 0.00109694 1e-05
0.000741385 0.00109741 1e-05
0.000847885 0.00109787 1e-05
0.000954384 0.00109833 1e-05
0.00106088 0.00109879 1e-05
0.00116821 0.00109924 1e-05
0.00127554 0.0010997 1e-05
0.00138286 0.00110014 1e-05
0.00149019 0.00110058 1e-05
0.00159752 0.00110102 1e-05
0.00170568 0.00110145 1e-05
0.00181384 0.00110187 1e-05
0.001922 0.00110229 1e-05
0.00203016 0.0011027 1e-05
0.00213833 0.0011031 1e-05
0.00224733 0.00110349 1e-05
0.00235633 0.00110388 1e-05
0.00246533 0.00110426 1e-05
0.00257434 0.00110463 1e-05
0.00268334 0.00110499 1e-05
0.00279319 0.00110534 1e-05
0.00290304 0.00110569 1e-05
0.00301289 0.00110603 1e-05
0.00312274 0.00110636 1e-05
0.00323259 0.00110669 1e-05
0.00334329 0.001107 1e-05
0.003454 0.00110732 1e-05
0.0035647 0.00110762 1e-05
0.0036754 0.00110792 1e-05
0.00378611 0.00110821 1e-05
0.00389767 0.00110849 1e-05
0.00400924 0.00110877 1e-05
0.0041208 0.00110904 1e-05
0.00423237 0.0011093 1e-05
0.00434393 0.00110955 1e-05
0.00445636 0.00110979 1e-05
0.00456879 0.00111003 1e-05
0.00468123 0.00111027 1e-05
0.00479366 0.00111049 1e-05
0.00490609 0.00111071 1e-05
0.0050194 0.00111092 1e-05
0.0051327 0.00111112 1e-05
0.00524601 0.00111131 1e-05
0.00535932 0.0011115 1e-05
0.00547262 0.00111168 1e-05
0.00558681 0.00111185 1e-05
0.005701 0.00111202 1e-05
0.00581518 0.00111218 1e-05
0.00592937 0.00111233 1e-05
0.00604356 0.00111247 1e-05
0.00615863 0.00111261 1e-05
0.00627371 0.00111274 1e-05
0.00638878 0.00111286 1e-05
0.00650386 0.00111297 1e-05
0.00661893 0.00111308 1e-05
0.0067349 0.00111318 1e-05
0.00685087 0.00111327 1e-05
0.00696684 0.00111336 1e-05
0.00708281 0.00111344 1e-05
0.00719878 0.00111351 1e-05
0.0072761 0.00111355 1e-05
0.00735342 0.00111359 1e-05
0.00743074 0.00111362 1e-05
0.00750806 0.00111365 1e-05
0.00758259 0.00111368 1e-05
0.0076227 0.00111369 1e-05
0.00766281 0.00111371 1e-05
0.00770292 0.00111372 1e-05
0.00774303 0.00111373 1e-05
0.00778313 0.00111374 1e-05
0.00790091 0.00111376 1e-05
0.00801869 0.00111378 1e-05
0.00813647 0.00111379 1e-05
0.00825425 0.00111379 1e-05
0.00837203 0.00111378 1e-05
0.00849073 0.00111376 1e-05
0.00860942 0.00111374 1e-05
0.00872812 0.00111371 1e-05
0.00884682 0.00111368 1e-05
0.00896551 0.00111363 1e-05
0.00908513 0.00111357 1e-05
0.00920475 0.00111351 1e-05
0.00932437 0.00111344 1e-05
0.00944398 0.00111336 1e-05
0.0095636 0.00111327 1e-05
0.00968415 0.00111317 1e-05
0.0098047 0.00111307 1e-05
0.00992525 0.00111295 1e-05
0.0100458 0.00111284 1e-05
0.0101663 0.00111271 1e-05
0.0102878 0.00111256 1e-05
0.0104093 0.00111241 1e-05
0.0105308 0.00111226 1e-05
0.0106523 0.0011121 1e-05
0.0107738 0.00111193 1e-05
0.0108962 0.00111174 1e-05
0.0110186 0.00111155 1e-05
0.0111411 0.00111135 1e-05
0.0112635 0.00111115 1e-05
0.0113859 0.00111093 1e-05
0.0115093 0.00111069 1e-05
0.0116327 0.00111046 1e-05
0.0117561 0.00111022 1e-05
0.0118795 0.00110997 1e-05
0.0120028 0.00110971 1e-05
0.0121272 0.00110943 1e-05
0.0122515 0.00110915 1e-05
0.0123759 0.00110886 1e-05
0.0125002 0.00110857 1e-05
0.0126245 0.00110826 1e-05
0.0127498 0.00110793 1e-05
0.0128752 0.00110761 1e-05
0.0130005 0.00110728 1e-05
0.0131258 0.00110693 1e-05
0.0132511 0.00110658 1e-05
0.0133774 0.00110621 1e-05
0.0135036 0.00110584 1e-05
0.0136299 0.00110545 1e-05
0.0137562 0.00110506 1e-05
0.0138825 0.00110467 1e-05
0.0140098 0.00110424 1e-05
0.014137 0.00110382 1e-05
0.0142643 0.00110339 1e-05
0.0143915 0.00110295 1e-05
0.0145188 0.0011025 1e-05
0.0146471 0.00110203 1e-05
0.0147753 0.00110156 1e-05
0.0149036 0.00110108 1e-05
0.0150318 0.0011006 1e-05
0.0151601 0.0011001 1e-05
0.0152893 0.00109958 1e-05
0.0154186 0.00109906 1e-05
0.0155478 0.00109853 1e-05
0.0156771 0.00109799 1e-05
0.0158063 0.00109744 1e-05
0.0159366 0.00109687 1e-05
0.0160668 0.0010963 1e-05
0.0161971 0.00109572 1e-05
0.0163274 0.00109513 1e-05
0.0164576 0.00109453 1e-05
0.0165889 0.00109392 1e-05
0.0167201 0.0010933 1e-05
0.0168514 0.00109266 1e-05
0.0169827 0.00109202 1e-05
0.0171139 0.00109137 1e-05
0.0172462 0.00109071 1e-05
0.0173785 0.00109004 1e-05
0.0175108 0.00108935 1e-05
0.0176431 0.00108866 1e-05
0.0177754 0.00108796 1e-05
0.0179087 0.00108725 1e-05
0.018042 0.00108653 1e-05
0.0181753 0.00108579 1e-05
0.0183087 0.00108504 1e-05
0.018442 0.00108429 1e-05
0.0185763 0.00108353 1e-05
0.0187107 0.00108276 1e-05
0.018845 0.00108197 1e-05
0.0189794 0.00108117 1e-05
0.0191137 0.00108037 1e-05
0.0192491 0.00107956 1e-05
0.0193845 0.00107874 1e-05
0.0195199 0.00107789 1e-05
0.0196553 0.00107704 1e-05
0.0197907 0.00107619 1e-05
0.0199272 0.00107534 1e-05
0.0200636 0.00107446 1e-05
0.0202001 0.00107356 1e-05
0.0203365 0.00107266 1e-05
0.020473 0.00107176 1e-05
0.0206105 0.00107085 1e-05
0.020748 0.00106993 1e-05
0.0208855 0.00106898 1e-05
0.021023 0.00106802 1e-05
0.0211606 0.00106707 1e-05
0.0212991 0.00106612 1e-05
0.0214377 0.00106514 1e-05
0.0215763 0.00106414 1e-05
0.0217149 0.00106313 1e-05
0.0218535 0.00106212 1e-05
0.0219931 0.00106112 1e-05
0.0221328 0.00106009 1e-05
0.0222724 0.00105904 1e-05
0.0224121 0.00105798 1e-05
0.0225517 0.00105693 1e-05
0.0226925 0.00105587 1e-05
0.0228332 0.00105479 1e-05
0.022974 0.00105369 1e-05
0.0231147 0.00105257 1e-05
0.0232555 0.00105147 1e-05
0.0233973 0.00105036 1e-05
0.0235391 0.00104923 1e-05
0.023681 0.00104807 1e-05
0.0238228 0.00104691 1e-05
0.0239647 0.00104575 1e-05
0.0241076 0.00104459 1e-05
0.0242505 0.00104341 1e-05
0.0243935 0.0010422 1e-05
0.0245364 0.00104098 1e-05
0.0246794 0.00103977 1e-05
0.0248234 0.00103856 1e-05
0.0249675 0.00103732 1e-05
0.0251115 0.00103606 1e-05
0.0252556 0.00103478 1e-05
[...]
POINT_DATA 12045
 FIELD attributes 1
U 3 12045 float
10.0004 	0.00734818 	0 10.0004 	0.00587855 	0 10.0003 	0.00440891 	0 10.0002 	0.00293927 	0 10.0001 	0.00146964 	0 10 	0 	0
10.0001 	0.000878159 	0 10 	0.000702527 	0 10 	0.000526895 	0 10 	0.000351264 	0 10 	0.000175632 	0 10 	0 	0
10.0001 	0.000466014 	0 10.0001 	0.000372621 	0 10.0001 	0.000279227 	0 10 	0.000185834 	0 10 	9.24407e-05 	0 10 	0 	0
10 	0.000266094 	0 10 	0.000212875 	0 10 	0.000159657 	0 10 	0.000106438 	0 10 	5.32189e-05 	0 10 	0 	0
10 	8.04701e-05 	0 10 	6.43761e-05 	0 10 	4.82821e-05 	0 10 	3.2188e-05 	0 10 	1.6094e-05 	0 10 	0 	0
10 	-2.61596e-05 	0 10 	-2.09277e-05 	0 10 	-1.56958e-05 	0 10 	-1.04639e-05 	0 10 	-5.23193e-06 	0 10 	0 	0
10 	-0.000216064 	0 10 	-0.000172851 	0 10 	-0.000129638 	0 10 	-8.64255e-05 	0 10 	-4.32128e-05 	0 10 	0 	0
10 	-0.000377635 	0 10 	-0.000302108 	0 10 	-0.000226581 	0 10 	-0.000151054 	0 10 	-7.5527e-05 	0 10 	0 	0
9.99999 	-0.000426484 	0 9.99999 	-0.000341187 	0 9.99999 	-0.00025589 	0 10 	-0.000170594 	0 10 	-8.52968e-05 	0 10 	0 	0
9.17387 	0.0871272 	0 9.1308 	0.0697018 	0 9.08741 	0.0522761 	0 9.04368 	0.0348501 	0 8.99963 	0.017424 	0 8.95524 	0 	0
10.0004 	0.00734818 	0 10.0024 	0.0152063 	0 10.0045 	0.0222281 	0 10.0065 	0.0292054 	0 10.0086 	0.0361385 	0 10.0136 	0.0463305 	0 10.0164 	0.0402112 	0 10.0208 	0.0401616 	0 10.0253 	0.0401123 	0 10.0297 	0.0400631 	0 10.0356 	0.0445215 	0 10.0385 	0.0378831 	0 10.0425 	0.0378396 	0 10.0464 	0.0377961 	0 10.0504 	0.0377526 	0 10.0545 	0.0408543 	0 10.0567 	0.0387762 	0 10.0592 	0.0400854 	0 10.0616 	0.0413962 	0 10.064 	0.0427087 	0 10.0662 	0.0451671 	0 10.0677 	0.0452781 	0 10.0691 	0.0464806 	0 10.0704 	0.0476843 	0 10.0717 	0.048889 	0 10.0729 	0.0499075 	0 10.0729 	0.0499697 	0 10.073 	0.0500319 	0 10.0731 	0.0500941 	0 10.0731 	0.0501563 	0 10.0732 	0.0502091 	0 10.0737 	0.0508356 	0 10.0743 	0.051456 	0 10.0748 	0.052077 	0 10.0753 	0.0526984 	0 10.0758 	0.053156 	0 10.0757 	0.0534512 	0 10.0753 	0.053641 	0 10.075 	0.053831 	0 10.0747 	0.054021 	0 10.0741 	0.0539728 	0 10.0737 	0.054117 	0 10.0726 	0.054093 	0 10.0715 	0.0540689 	0 10.0704 	0.0540449 	0 10.0689 	0.0537517 	0 10.0685 	0.0538311 	0 10.0669 	0.0536968 	0 10.0653 	0.0535625 	0 10.0636 	0.0534281 	0 10.0611 	0.0530074 	0 10.0611 	0.0530603 	0 10.0591 	0.0528646 	0 10.0571 	0.0526688 	0 10.0551 	0.052473 	0 10.0515 	0.0519782 	0 10.0521 	0.0520295 	0 10.0498 	0.0518071 	0 10.0475 	0.0515846 	0 10.0452 	0.0513621 	0 10.0406 	0.0508326 	0 10.0421 	0.050903 	0 10.0396 	0.050675 	0 10.037 	0.0504469 	0 10.0345 	0.0502187 	0 10.0288 	0.0496699 	0 10.0313 	0.0497654 	0 10.0286 	0.0495478 	0 10.026 	0.0493302 	0 10.0233 	0.0491124 	0 10.0165 	0.048567 	0 10.0201 	0.0486965 	0 10.0174 	0.0484888 	0 10.0146 	0.0482811 	0 10.0119 	0.0480733 	0 10.0038 	0.047519 	0 10.0087 	0.0476809 	0 10.0059 	0.0475239 	0 10.0032 	0.0473668 	0 10.0005 	0.0472097 	0 9.99125 	0.0467185 	0 9.99743 	0.0469506 	0 9.99474 	0.046807 	0 9.99206 	0.0466634 	0 9.98937 	0.0465197 	0 9.97894 	0.0459854 	0 9.9865 	0.0462238 	0 9.9839 	0.0461997 	0 9.9813 	0.0461756 	0 9.97869 	0.0461514 	0 9.9671 	0.0457849 	0 9.97612 	0.0460876 	9.57098e-22 9.97412 	0.0459583 	6.22019e-21 9.97212 	0.045829 	1.14834e-20 9.97012 	0.0456997 	1.67468e-20 9.95805 	0.0451142 	1.42156e-20 9.96831 	0.0452435 	9.78615e-20 9.96652 	0.0449514 	9.08388e-20 9.96473 	0.0446592 	8.38126e-20 9.96294 	0.0443669 	7.67829e-20 9.95067 	0.0436942 	-1.55591e-20 9.96079 	0.0436497 	-4.21836e-20 9.95905 	0.0433504 	-4.69313e-20 9.95732 	0.043051 	-5.16774e-20 9.95557 	0.0427515 	-5.64219e-20 9.94349 	0.0421776 	-2.22109e-20 9.95316 	0.0419644 	-1.95431e-20 9.95126 	0.0413928 	-1.36023e-20 9.94936 	0.0408212 	-7.66194e-21 9.94746 	0.0402495 	-1.72207e-21 9.93558 	0.0394595 	7.31053e-21 9.94483 	0.0391431 	-5.9074e-21 9.94273 	0.0383303 	-2.51921e-20 9.94062 	0.0375172 	-4.44788e-20 9.9385 	0.036704 	-6.37677e-20 9.92671 	0.0356251 	-9.09752e-20 9.93539 	0.0353798 	-1.28506e-19 9.93293 	0.0345592 	-1.15692e-19 9.93047 	0.0337385 	-1.02871e-19 9.928 	0.0329176 	-9.00417e-20 9.9162 	0.0317064 	-3.1001e-20 9.92415 	0.031584 	3.55945e-20 9.92129 	0.0308422 	4.95669e-20 9.91843 	0.0301001 	6.35296e-20 9.91556 	0.0293577 	7.74825e-20 9.90381 	0.0281229 	3.8121e-20 9.91095 	0.0280413 	-4.80771e-20 9.90771 	0.027336 	-5.43667e-20 9.90446 	0.0266305 	-6.06414e-20 9.9012 	0.0259247 	-6.69013e-20 9.88961 	0.0247014 	-3.524e-22 9.89581 	0.0245817 	6.23922e-20 9.89215 	0.0238837 	5.26638e-20 9.88849 	0.0231854 	4.29206e-20 9.88482 	0.0224869 	3.31625e-20 9.87345 	0.0213121 	-2.96486e-20 9.87853 	0.0211278 	-8.6254e-20 9.87441 	0.0204366 	-1.09215e-19 9.87029 	0.0197452 	-1.3217e-19 9.86616 	0.0190535 	-1.5512e-19 9.85512 	0.0179585 	-1.41465e-19 9.85884 	0.017705 	-1.61321e-19 9.85425 	0.0170247 	-1.48454e-19 9.84965 	0.0163442 	-1.35583e-19 9.84504 	0.0156633 	-1.22707e-19 9.83449 	0.0146637 	-8.64872e-20 9.8366 	0.0143484 	-7.26407e-20 9.83152 	0.0136845 	-5.35149e-20 9.82644 	0.0130203 	-3.43909e-20 9.82136 	0.0123558 	-1.52686e-20 9.81152 	0.0114549 	2.11681e-21 9.81172 	0.0110723 	0 9.80618 	0.0104202 	0 9.80063 	0.00976791 	0 9.79507 	0.0091153 	0 9.78626 	0.00830842 	0 9.78419 	0.00784433 	-1.71787e-20 9.77819 	0.00719847 	-3.6777e-20 9.77217 	0.0065523 	-5.6377e-20 9.76616 	0.00590582 	-7.59788e-20 9.75871 	0.00519376 	-9.62132e-20 9.75615 	0.0048494 	-1.00034e-19 9.75188 	0.00442629 	-1.00542e-19 9.74761 	0.00400304 	-1.01047e-19 9.74333 	0.00357964 	-1.0155e-19 9.7392 	0.00317137 	-1.02033e-19 9.73696 	0.00295038 	-1.02693e-19 9.73471 	0.00272936 	-1.03353e-19 9.73246 	0.00250829 	-1.04013e-19 9.73021 	0.00228717 	-1.04673e-19 9.72578 	0.00196786 	-1.04665e-19 9.72082 	0.00142173 	-7.76473e-20 9.71384 	0.000785517 	-4.75592e-20 9.70685 	0.000148911 	-1.74809e-20 9.69985 	-0.000488084 	1.25875e-20 9.68431 	-0.00150134 	5.16813e-20 9.68476 	-0.00179179 	5.26001e-20 9.67735 	-0.00242257 	5.37804e-20 9.66993 	-0.00305376 	5.49584e-20 9.6625 	-0.00368538 	5.61342e-20 9.6403 	-0.00494332 	5.94766e-20 9.64604 	-0.00500866 	4.68711e-20 9.63822 	-0.00563379 	3.4263e-20 9.63038 	-0.00625937 	2.16537e-20 9.62254 	-0.00688542 	9.04317e-21 9.59402 	-0.00834336 	-1.10487e-21 9.60474 	-0.0082267 	-8.51523e-21 9.59653 	-0.00884658 	-2.055e-20 9.5883 	-0.00946696 	-3.25835e-20 9.58007 	-0.0100878 	-4.46158e-20 9.54571 	-0.011694 	-5.66641e-20 9.56101 	-0.0114459 	-5.65572e-20 9.55244 	-0.0120629 	-6.41807e-20 9.54385 	-0.0126804 	-7.18009e-20 9.53526 	-0.0132984 	-7.9418e-20 9.49567 	-0.0149985 	-9.88887e-20 9.51505 	-0.0146696 	-1.55787e-19 9.50614 	-0.0152839 	-1.45965e-19 9.49722 	-0.0158987 	-1.36156e-19 9.48828 	-0.0165141 	-1.2636e-19 9.44414 	-0.0182479 	-4.30556e-20 9.46703 	-0.0178895 	-2.75378e-20 9.45781 	-0.0185007 	-1.93119e-20 9.44857 	-0.0191124 	-1.10851e-20 9.43933 	-0.0197248 	-2.85757e-21 9.39137 	-0.021435 	0 9.41717 	-0.0210958 	0 9.40766 	-0.021705 	0 9.39814 	-0.0223148 	0 9.3886 	-0.0229252 	0 9.33758 	-0.0245613 	0 9.36569 	-0.0242886 	1.68322e-21 9.35593 	-0.0248976 	9.33638e-21 9.34615 	-0.0255072 	1.69887e-20 9.33635 	-0.0261175 	2.46403e-20 9.28301 	-0.0276309 	4.32296e-20 9.31286 	-0.0274741 	1.661e-19 9.30286 	-0.0280831 	1.6913e-19 9.29284 	-0.0286927 	1.72175e-19 9.28281 	-0.0293031 	1.75235e-19 9.22786 	-0.0306414 	4.34269e-20 9.25889 	-0.0306431 	2.32358e-20 9.24868 	-0.0312507 	1.63908e-20 9.23846 	-0.031859 	9.54482e-21 9.22576 	-0.0324954 	3.90253e-21 9.17231 	-0.0335854 	1.82038e-20 9.20013 	-0.0338193 	1.08761e-19 9.19365 	-0.0343868 	1.19159e-19 9.18324 	-0.0349929 	1.20429e-19 9.16638 	-0.0356351 	1.05012e-19 9.11655 	-0.036459 	4.14589e-21 9.14101 	-0.0369108 	-1.03035e-19 9.13798 	-0.0374813 	-1.34381e-19 9.12741 	-0.0380848 	-1.4499e-19 9.1071 	-0.038682 	-1.33728e-19 9.06074 	-0.039261 	-6.39378e-20 9.08203 	-0.0399102 	-1.85257e-19 9.08189 	-0.0405266 	-2.26835e-19 9.07119 	-0.0411272 	-2.29185e-19 9.04809 	-0.0416348 	-1.80329e-19 9.00502 	-0.0419918 	-4.89236e-20 9.02337 	-0.0428173 	-2.58511e-20 9.0256 	-0.0435168 	-1.13587e-20 9.01479 	-0.0441145 	-3.80774e-21 8.98951 	-0.0444944 	0 8.94953 	-0.0446526 	0 8.96516 	-0.0456336 	0 8.9693 	-0.0464475 	0 8.95839 	-0.0470422 	0 8.93149 	-0.0472631 	2.09893e-21 8.89439 	-0.0472457 	5.53605e-21 8.90753 	-0.048362 	2.25913e-21 8.91317 	-0.0493159 	0 8.90219 	-0.0499075 	0 8.87415 	-0.0499446 	2.50405e-21 8.83972 	-0.049774 	5.94551e-21 8.85058 	-0.0510061 	2.66808e-21 8.85735 	-0.0521196 	1.27239e-21 8.84632 	-0.0527084 	8.12114e-21 8.81757 	-0.0525432 	2.54057e-20 8.78561 	-0.0522413 	4.45823e-20 8.79441 	-0.0535712 	1.74863e-19 8.80201 	-0.0548587 	2.97708e-19 8.79094 	-0.0554447 	3.01303e-19 8.76184 	-0.0550643 	1.75393e-19 8.73214 	-0.0546511 	4.51149e-20 8.73908 	-0.0560616 	2.62151e-20 8.74598 	-0.0574735 	7.31651e-21 8.73467 	-0.0580176 	2.9825e-22 8.70704 	-0.0575131 	3.6076e-21 8.67941 	-0.0570082 	6.91679e-21 8.68468 	-0.058484 	3.77561e-21 8.6899 	-0.0599613 	6.35272e-22 8.67896 	-0.0604749 	2.21567e-21 8.65321 	-0.0598961 	-1.8571e-21 8.62748 	-0.0593168 	-5.92887e-21 8.63125 	-0.060843 	-5.10046e-20 8.63496 	-0.0623707 	-9.60842e-20 8.62443 	-0.0628544 	-9.74826e-20 8.60041 	-0.0622178 	-5.62437e-20 8.57641 	-0.0615808 	-1.50027e-20 8.57884 	-0.0631486 	8.79733e-20 8.58122 	-0.064718 	1.90944e-19 8.57114 	-0.0651736 	1.99798e-19 8.54869 	-0.0644917 	1.14032e-19 8.52625 	-0.0638094 	2.82661e-20 8.5275 	-0.0654126 	1.64501e-20 8.5287 	-0.0670173 	4.63042e-21 8.5191 	-0.0674459 	5.461e-22 8.49806 	-0.0667272 	5.34844e-21 8.47704 	-0.066008 	1.01526e-20 8.47726 	-0.0676333 	4.39633e-21 8.47742 	-0.0692602 	-1.36528e-21 8.46832 	-0.0696626 	-2.16666e-20 8.44856 	-0.0689214 	-7.36348e-20 8.42882 	-0.0681796 	-1.25605e-19 8.42813 	-0.0698133 	-2.61599e-19 8.42738 	-0.0714486 	-3.97587e-19 8.4188 	-0.0718264 	-3.81882e-19 8.40019 	-0.071079 	-2.26002e-19 8.3816 	-0.0703311 	-7.01234e-20 8.38011 	-0.0719619 	5.86242e-20 8.37854 	-0.0735911 	1.87059e-19 8.37019 	-0.0739151 	1.84568e-19 8.35293 	-0.0732119 	9.39833e-20 8.33539 	-0.0724728 	3.73449e-22 8.33319 	-0.0740962 	-9.25213e-20 8.33011 	-0.0755397 	-1.73758e-19 8.32191 	-0.0758705 	-1.83389e-19 8.30679 	-0.0753369 	-1.18857e-19 8.29019 	-0.0746151 	-3.82119e-20 8.28737 	-0.0762278 	-2.65493e-20 8.28306 	-0.0774857 	-1.49882e-20 8.275 	-0.0778249 	-3.68255e-21 8.26175 	-0.0774647 	1.44126e-20 8.24601 	-0.0767662 	3.57898e-20 8.24264 	-0.0783665 	1.31403e-20 8.23734 	-0.0794418 	-2.52638e-21 8.22941 	-0.0797911 	-8.54255e-21 8.21778 	-0.0796052 	-3.2619e-21 8.20283 	-0.0789345 	1.22423e-20 8.19897 	-0.0805217 	-4.93697e-21 8.19288 	-0.0814194 	-1.61862e-20 8.18508 	-0.0817804 	-2.28184e-20 8.17486 	-0.0817678 	-3.53684e-20 8.16062 	-0.0811286 	-5.78369e-20 8.15633 	-0.0827024 	5.4762e-20 8.14964 	-0.0834287 	8.96009e-20 8.14196 	-0.0838028 	9.21167e-20 8.13296 	-0.0839614 	7.28399e-20 8.11938 	-0.0833565 	-2.35682e-20 8.11469 	-0.0849174 	7.14894e-20 8.10756 	-0.0854791 	8.83919e-20 8.09999 	-0.0858676 	9.17293e-20 8.09205 	-0.0861945 	8.97275e-20 8.07906 	-0.0856262 	1.06352e-20 8.07404 	-0.0871749 	-7.18087e-22 8.06659 	-0.0875794 	-4.88587e-22 8.05912 	-0.0879838 	-2.55146e-22 8.05164 	-0.0883884 	-2.17271e-23 8.03965 	-0.0879454 	1.87316e-20 8.03403 	-0.0893168 	0 8.02668 	-0.089738 	0 8.01931 	-0.0901595 	0 8.01192 	-0.0905812 	0 8.00112 	-0.0903217 	1.55511e-20 7.99504 	-0.0915232 	0 7.98777 	-0.0919627 	0 7.98049 	-0.0924026 	0 7.97319 	-0.0928427 	0 7.96344 	-0.0927628 	0 7.95701 	-0.0938023 	0 7.94983 	-0.0942614 	0 7.94263 	-0.0947208 	0 7.93541 	-0.0951805 	0 7.92656 	-0.095276 	-8.48236e-21 7.91988 	-0.0961616 	0 7.91278 	-0.0966414 	0 7.90565 	-0.0971216 	0 7.89851 	-0.097602 	0 7.89045 	-0.0978689 	-1.02114e-20 7.88362 	-0.098608 	0 7.87658 	-0.0991097 	0 7.86952 	-0.0996116 	0 7.86244 	-0.100114 	0 7.85507 	-0.100548 	-3.3217e-21 7.85175 	-0.100877 	-4.34204e-21 7.84839 	-0.10113 	-9.51215e-21 7.84502 	-0.101383 	-1.46826e-20 7.84165 	-0.101636 	-1.98533e-20 7.83834 	-0.101884 	-2.49205e-20 7.83459 	-0.102158 	-3.01211e-20 7.83084 	-0.102432 	-3.53212e-20 7.82708 	-0.102705 	-4.05209e-20 7.82331 	-0.102979 	-4.57203e-20 7.81996 	-0.103171 	-5.09234e-20 7.81269 	-0.103795 	-4.93289e-20 7.80555 	-0.104346 	-4.86703e-20 7.7984 	-0.104897 	-4.80088e-20 7.79122 	-0.105448 	-4.73444e-20 7.78524 	-0.105764 	-4.94603e-20 7.7777 	-0.106552 	-3.86485e-20 7.7706 	-0.107128 	-2.78228e-20 7.76349 	-0.107704 	-1.69956e-20 7.75635 	-0.10828 	-6.16693e-21 7.75118 	-0.108473 	0 7.74337 	-0.109422 	-2.67577e-21 7.73631 	-0.110024 	-7.64158e-21 7.72922 	-0.110627 	-1.26066e-20 7.72211 	-0.11123 	-1.75708e-20 7.71775 	-0.111308 	-2.25e-20 7.70966 	-0.112413 	-5.29564e-20 7.70262 	-0.113043 	-7.33812e-20 7.69556 	-0.113673 	-9.38077e-20 7.68847 	-0.114304 	-1.14236e-19 7.68488 	-0.114272 	-1.05401e-19 7.67651 	-0.115531 	-8.17231e-20 7.66949 	-0.11619 	-7.02075e-20 7.66244 	-0.116849 	-5.86851e-20 7.65537 	-0.117509 	-4.71558e-20 7.65252 	-0.117375 	-7.08965e-20 7.64393 	-0.118759 	-8.53941e-20 7.63686 	-0.119474 	-6.75637e-20 7.62982 	-0.120164 	-4.85045e-20 7.62338 	-0.120738 	-2.72162e-20 7.62064 	-0.120625 	7.16195e-21 7.61207 	-0.122022 	1.16598e-20 7.60468 	-0.122903 	8.72427e-21 7.59765 	-0.123625 	3.49621e-21 7.59199 	-0.124088 	0 7.58918 	-0.124028 	0 7.58063 	-0.12544 	0 7.57292 	-0.126483 	0 7.56587 	-0.127238 	0 7.56098 	-0.127596 	0 7.55809 	-0.127589 	0 7.54955 	-0.129017 	0 7.54151 	-0.130218 	-6.47353e-21 7.53445 	-0.131007 	-2.47275e-20 7.53029 	-0.131267 	-4.30385e-20 7.52731 	-0.131313 	-6.13732e-20 7.51878 	-0.132759 	-4.15731e-20 7.51041 	-0.134116 	-2.11473e-20 7.50332 	-0.134939 	2.98328e-21 7.49988 	-0.135107 	9.08145e-21 7.49681 	-0.135207 	1.33171e-20 7.48826 	-0.136672 	4.68495e-20 7.47967 	-0.138139 	8.03801e-20 7.47286 	-0.138968 	9.7506e-20 7.46969 	-0.139121 	8.21418e-20 7.46651 	-0.139274 	6.67759e-20 7.45796 	-0.140762 	4.20069e-20 7.44935 	-0.142249 	1.72291e-20 7.44296 	-0.143107 	2.95583e-21 7.43968 	-0.143315 	1.25881e-20 7.43639 	-0.143522 	2.22213e-20 7.42781 	-0.145032 	8.74876e-20 7.41919 	-0.146543 	1.52757e-19 7.41318 	-0.147431 	1.53443e-19 7.40978 	-0.147693 	8.88354e-20 7.40637 	-0.147954 	2.42261e-20 7.39777 	-0.149488 	1.54242e-20 7.38912 	-0.151023 	6.62606e-21 7.38349 	-0.151944 	6.78522e-21 7.37996 	-0.152259 	1.6182e-20 7.37642 	-0.152574 	2.558e-20 7.36778 	-0.154135 	8.929e-20 7.35909 	-0.155695 	1.53003e-19 7.35382 	-0.15665 	1.53725e-19 7.35016 	-0.157018 	9.07045e-20 7.34648 	-0.157387 	2.76821e-20 7.33779 	-0.158974 	1.91427e-20 7.32963 	-0.160463 	1.05878e-20 7.32445 	-0.16143 	1.93416e-21 7.32032 	-0.161974 	0 7.31649 	-0.162396 	0 7.30775 	-0.164011 	0 7.30032 	-0.165394 	0 7.29501 	-0.166402 	0 7.2904 	-0.167128 	0 7.28641 	-0.167605 	0 7.27761 	-0.169248 	0 7.27088 	-0.170529 	0 7.26544 	-0.171579 	0 7.26035 	-0.172485 	4.5055e-21 7.25618 	-0.173014 	2.08336e-20 7.24731 	-0.174688 	2.79553e-21 7.24126 	-0.17587 	7.47664e-21 7.23569 	-0.176962 	1.63265e-20 7.2301 	-0.178046 	2.52458e-20 7.22576 	-0.178628 	3.847e-20 7.21708 	-0.180284 	1.20107e-19 7.2114 	-0.181418 	1.24709e-19 7.20569 	-0.182552 	1.29287e-19 7.19993 	-0.183686 	1.33842e-19 7.19508 	-0.184447 	5.41574e-20 7.18711 	-0.185999 	1.24762e-19 7.18127 	-0.187175 	1.12479e-19 7.1754 	-0.188351 	1.00172e-19 7.16949 	-0.189527 	8.78416e-20 7.16411 	-0.190473 	3.98679e-20 7.15681 	-0.191923 	3.51617e-20 7.15081 	-0.193141 	3.56639e-20 7.14477 	-0.19436 	3.61716e-20 7.13869 	-0.195578 	3.66847e-20 7.13279 	-0.196706 	4.45254e-20 7.12828 	-0.197618 	4.6997e-20 7.12426 	-0.198438 	4.5269e-20 7.12024 	-0.199259 	4.3534e-20 7.11619 	-0.20008 	4.17918e-20 7.1123 	-0.200866 	4.0117e-20 7.11001 	-0.201312 	3.97901e-20 7.10772 	-0.201758 	3.94624e-20 7.10542 	-0.202204 	3.91341e-20 7.10312 	-0.20265 	3.8805e-20 7.10123 	-0.203052 	4.00998e-20 7.09449 	-0.204396 	3.5731e-20 7.08795 	-0.205697 	2.89972e-20 7.08136 	-0.206997 	2.22722e-20 7.07473 	-0.208297 	1.5556e-20 7.06965 	-0.209429 	1.19813e-21 7.06203 	-0.210941 	-2.62092e-22 7.05529 	-0.212282 	-1.83797e-22 7.0485 	-0.213624 	-1.05474e-22 7.04167 	-0.214966 	-2.71221e-23 7.03759 	-0.216016 	0 7.02906 	-0.217693 	-3.70768e-21 7.02211 	-0.219075 	-1.77674e-20 7.01512 	-0.220457 	-3.1821e-20 7.00807 	-0.22184 	-4.58684e-20 7.00501 	-0.222809 	-5.62654e-20 6.99567 	-0.224625 	-4.38686e-20 6.98836 	-0.226073 	-2.8476e-20 6.98115 	-0.227495 	-1.28676e-20 6.97489 	-0.228815 	8.16504e-22 6.97184 	-0.229805 	8.30053e-21 6.96229 	-0.231655 	1.79849e-21 6.954 	-0.233273 	7.64006e-21 6.94655 	-0.234734 	2.18773e-20 6.94135 	-0.235965 	4.00774e-20 6.93805 	-0.237001 	6.16699e-20 6.92827 	-0.238883 	3.91516e-20 6.91897 	-0.240672 	1.83004e-20 6.91129 	-0.242171 	2.60682e-21 6.90713 	-0.243313 	-2.66651e-21 6.90358 	-0.244392 	-6.0703e-21 6.89357 	-0.246306 	-5.87615e-20 6.88348 	-0.24822 	-1.11454e-19 6.87598 	-0.249733 	-1.13603e-19 6.87221 	-0.250853 	-7.21883e-20 6.86839 	-0.251974 	-3.07737e-20 6.85814 	-0.25392 	-7.284e-20 6.84781 	-0.255865 	-1.14914e-19 6.84058 	-0.25742 	-1.14199e-19 6.83653 	-0.258581 	-7.0101e-20 6.83245 	-0.259742 	-2.60022e-20 6.82194 	-0.261717 	-7.02859e-20 6.81135 	-0.263692 	-1.14576e-19 6.80439 	-0.26529 	-1.09579e-19 6.80007 	-0.26649 	-5.95829e-20 6.7957 	-0.26769 	-9.58209e-21 6.78492 	-0.269693 	-6.75363e-21 6.77475 	-0.271632 	-3.8886e-21 6.76797 	-0.273237 	-8.24918e-22 6.76276 	-0.274573 	0 6.75811 	-0.27581 	0 6.74706 	-0.277841 	0 6.73805 	-0.27967 	0 6.73099 	-0.281306 	0 6.72459 	-0.282825 	0 6.71964 	-0.284097 	0 6.70831 	-0.286154 	0 6.70048 	-0.28787 	-2.79035e-21 6.69313 	-0.289536 	-6.00172e-21 6.68573 	-0.291201 	-9.21464e-21 6.68025 	-0.292542 	-2.02645e-21 6.66959 	-0.294533 	-4.65186e-20 6.662 	-0.296226 	-4.31734e-20 6.65436 	-0.297919 	-3.9805e-20 6.64665 	-0.299612 	-3.64135e-20 6.63991 	-0.30114 	-8.34068e-21 6.63048 	-0.30301 	-7.22152e-21 6.62259 	-0.304729 	1.6901e-21 6.61464 	-0.306448 	1.06031e-20 6.60663 	-0.308166 	1.95175e-20 6.59857 	-0.309881 	2.83103e-20 6.59838 	-0.309918 	2.87224e-20 6.59822 	-0.309953 	2.87252e-20 6.59806 	-0.309987 	2.87279e-20 6.5979 	-0.310021 	2.87307e-20 6.59774 	-0.310055 	2.87335e-20 6.58927 	-0.311761 	3.02395e-20 6.58072 	-0.313466 	3.1737e-20 6.57212 	-0.315171 	3.32259e-20 6.56345 	-0.316875 	3.47062e-20 6.5558 	-0.318449 	4.12633e-20 6.54627 	-0.320356 	4.39609e-20 6.53721 	-0.322117 	4.17299e-20 6.52809 	-0.323878 	3.95042e-20 6.51889 	-0.325638 	3.72839e-20 6.51186 	-0.327133 	1.79899e-20 6.50139 	-0.329207 	3.79659e-20 6.49196 	-0.330991 	3.21078e-20 6.48247 	-0.332771 	2.59354e-20 6.47365 	-0.334464 	1.33476e-20 6.46671 	-0.335929 	-1.60778e-20 6.45586 	-0.338017 	-8.77474e-21 6.44545 	-0.339975 	-5.60076e-21 6.43559 	-0.341772 	-7.55956e-21 6.42761 	-0.343342 	-7.65223e-21 6.42032 	-0.344826 	-7.03796e-21 6.40909 	-0.346925 	-5.61888e-21 6.39777 	-0.349024 	-4.19158e-21 6.38791 	-0.350812 	1.01018e-21 6.38031 	-0.352313 	6.39693e-21 6.37266 	-0.353814 	1.17876e-20 6.36103 	-0.355922 	7.4265e-21 6.34932 	-0.35803 	3.06962e-21 6.33968 	-0.35985 	0 6.33172 	-0.361365 	0 6.3237 	-0.36288 	0 6.31167 	-0.364996 	0 6.29996 	-0.367065 	0 6.29051 	-0.368874 	0 6.2818 	-0.370487 	0 6.27341 	-0.372013 	0 6.26097 	-0.374133 	0 6.25023 	-0.376055 	3.03006e-21 6.24038 	-0.37787 	7.71077e-21 6.23054 	-0.379666 	1.23954e-20 6.22175 	-0.3812 	1.7097e-20 6.20934 	-0.383274 	1.41099e-20 6.19917 	-0.385092 	1.49771e-20 6.18893 	-0.386909 	1.58507e-20 6.17862 	-0.388725 	1.67308e-20 6.16872 	-0.390429 	1.83674e-20 6.16152 	-0.391619 	1.08431e-20 6.15519 	-0.392712 	7.18008e-21 6.14883 	-0.393805 	3.52205e-21 6.14244 	-0.394897 	-1.31015e-22 6.13628 	-0.395945 	-3.62959e-21 6.13213 	-0.39668 	-6.16006e-21 6.12796 	-0.397415 	-8.68851e-21 6.12378 	-0.398149 	-1.12149e-20 6.11959 	-0.398884 	-1.37393e-20 6.11545 	-0.399554 	-1.86553e-20 6.10517 	-0.401449 	-2.5746e-20 6.09462 	-0.403268 	-2.51376e-20 6.084 	-0.405087 	-2.45503e-20 6.0733 	-0.406905 	-2.39841e-20 6.06275 	-0.408493 	-6.79402e-21 6.05253 	-0.41