# vtk DataFile Version 2.0
track0
ASCII
DATASET POLYDATA
POINTS 12045 float
-0.0205 0.001 1e-05
-0.02052 0.000999985 1e-05
-0.02054 0.000999974 1e-05
-0.02056 0.000999965 1e-05
-0.02058 0.000999959 1e-05
-0.0206 0.000999956 1e-05
-0.0205 0.00367778 1e-05
-0.02052 0.00367778 1e-05
-0.02054 0.00367777 1e-05
-0.02056 0.00367777 1e-05
-0.02058 0.00367777 1e-05
-0.0206 0.00367777 1e-05
-0.0205 0.00635556 1e-05
-0.02052 0.00635555 1e-05
-0.02054 0.00635555 1e-05
-0.02056 0.00635555 1e-05
-0.02058 0.00635555 1e-05
-0.0206 0.00635555 1e-05
-0.0205 0.00903333 1e-05
-0.02052 0.00903333 1e-05
-0.02054 0.00903333 1e-05
-0.02056 0.00903333 1e-05
-0.02058 0.00903333 1e-05
-0.0206 0.00903333 1e-05
-0.0205 0.0117111 1e-05
-0.02052 0.0117111 1e-05
-0.02054 0.0117111 1e-05
-0.02056 0.0117111 1e-05
-0.02058 0.0117111 1e-05
-0.0206 0.0117111 1e-05
-0.0205 0.0143889 1e-05
-0.02052 0.0143889 1e-05
-0.02054 0.0143889 1e-05
-0.02056 0.0143889 1e-05
-0.02058 0.0143889 1e-05
-0.0206 0.0143889 1e-05
-0.0205 0.0170667 1e-05
-0.02052 0.0170667 1e-05
-0.02054 0.0170667 1e-05
-0.02056 0.0170667 1e-05
-0.02058 0.0170667 1e-05
-0.0206 0.0170667 1e-05
-0.0205 0.0197444 1e-05
-0.02052 0.0197444 1e-05
-0.02054 0.0197444 1e-05
-0.02056 0.0197444 1e-05
-0.02058 0.0197444 1e-05
-0.0206 0.0197444 1e-05
-0.0205 0.0224222 1e-05
-0.02052 0.0224222 1e-05
-0.02054 0.0224222 1e-05
-0.02056 0.0224222 1e-05
-0.02058 0.0224222 1e-05
-0.0206 0.0224222 1e-05
-0.0205 0.0251 1e-05
-0.02052 0.0250998 1e-05
-0.02054 0.0250997 1e-05
-0.02056 0.0250995 1e-05
-0.02058 0.0250995 1e-05
-0.0206 0.0250994 1e-05
-0.0205 0.001 1e-05
-0.0202034 0.00100022 1e-05
-0.0199069 0.00100067 1e-05
-0.0196103 0.00100133 1e-05
-0.0193137 0.00100219 1e-05
-0.0190172 0.00100326 1e-05
-0.0187132 0.00100467 1e-05
-0.0184093 0.00100589 1e-05
-0.0181054 0.00100711 1e-05
-0.0178015 0.00100832 1e-05
-0.0174976 0.00100954 1e-05
-0.0172058 0.00101083 1e-05
-0.016914 0.00101193 1e-05
-0.0166222 0.00101303 1e-05
-0.0163305 0.00101413 1e-05
-0.0160387 0.00101523 1e-05
-0.0157586 0.00101637 1e-05
-0.0154784 0.00101745 1e-05
-0.0151983 0.00101856 1e-05
-0.0149182 0.00101971 1e-05
-0.0146381 0.0010209 1e-05
-0.0143745 0.00102209 1e-05
-0.0141108 0.00102327 1e-05
-0.0138472 0.00102449 1e-05
-0.0135836 0.00102574 1e-05
-0.013361 0.00102682 1e-05
-0.0133475 0.00102688 1e-05
-0.013334 0.00102695 1e-05
-0.0133205 0.00102702 1e-05
-0.0133069 0.00102709 1e-05
-0.0132934 0.00102715 1e-05
-0.0130353 0.00102844 1e-05
-0.0127771 0.00102974 1e-05
-0.0125189 0.00103106 1e-05
-0.0122607 0.0010324 1e-05
-0.0120025 0.00103375 1e-05
-0.0117547 0.00103505 1e-05
-0.0115068 0.00103637 1e-05
-0.0112589 0.00103769 1e-05
-0.0110111 0.00103901 1e-05
-0.0107632 0.00104034 1e-05
-0.0105252 0.00104162 1e-05
-0.0102873 0.00104289 1e-05
-0.0100493 0.00104417 1e-05
-0.00981133 0.00104545 1e-05
-0.00957337 0.00104673 1e-05
-0.00934491 0.00104795 1e-05
-0.00911645 0.00104917 1e-05
-0.00888799 0.00105039 1e-05
-0.00865954 0.0010516 1e-05
-0.00843108 0.00105282 1e-05
-0.00821175 0.00105397 1e-05
-0.00799242 0.00105513 1e-05
-0.00777309 0.00105628 1e-05
-0.00755376 0.00105743 1e-05
-0.00733443 0.00105857 1e-05
-0.00712387 0.00105966 1e-05
-0.0069133 0.00106075 1e-05
-0.00670273 0.00106184 1e-05
-0.00649216 0.00106292 1e-05
-0.0062816 0.001064 1e-05
-0.00607944 0.00106502 1e-05
-0.00587729 0.00106604 1e-05
-0.00567514 0.00106706 1e-05
-0.00547298 0.00106808 1e-05
-0.00527083 0.00106909 1e-05
-0.00507675 0.00107005 1e-05
-0.00488267 0.00107102 1e-05
-0.0046886 0.00107198 1e-05
-0.00449452 0.00107293 1e-05
-0.00430044 0.00107388 1e-05
-0.00411412 0.00107478 1e-05
-0.0039278 0.00107569 1e-05
-0.00374147 0.00107659 1e-05
-0.00355515 0.00107749 1e-05
-0.00336883 0.00107838 1e-05
-0.00318995 0.00107923 1e-05
-0.00301107 0.00108009 1e-05
-0.00283219 0.00108094 1e-05
-0.00265331 0.00108178 1e-05
-0.00247443 0.00108263 1e-05
-0.0023027 0.00108343 1e-05
-0.00213097 0.00108424 1e-05
-0.00195924 0.00108504 1e-05
-0.0017875 0.00108584 1e-05
-0.00161577 0.00108664 1e-05
-0.0014509 0.0010874 1e-05
-0.00128603 0.00108817 1e-05
-0.00112116 0.00108893 1e-05
-0.000956289 0.00108969 1e-05
-0.000791418 0.00109045 1e-05
-0.000633135 0.00109118 1e-05
-0.000474851 0.00109191 1e-05
-0.000316567 0.00109264 1e-05
-0.000158284 0.00109337 1e-05
0 0.00109409 1e-05
0.000105677 0.00109457 1e-05
0.000211355 0.00109505 1e-05
0.000317032 0.00109553 1e-05
0.00042271 0.001096 1e-05
0.000528387 0.00109647 1e-05
0.000634886 0.00109694 1e-05
0.000741385 0.00109741 1e-05
0.000847885 0.00109787 1e-05
0.000954384 0.00109833 1e-05
0.00106088 0.00109879 1e-05
0.00116821 0.00109924 1e-05
0.00127554 0.0010997 1e-05
0.00138286 0.00110014 1e-05
0.00149019 0.00110058 1e-05
0.00159752 0.00110102 1e-05
0.00170568 0.00110145 1e-05
0.00181384 0.00110187 1e-05
0.001922 0.00110229 1e-05
0.00203016 0.0011027 1e-05
0.00213833 0.0011031 1e-05
0.00224733 0.00110349 1e-05
0.00235633 0.00110388 1e-05
0.00246533 0.00110426 1e-05
0.00257434 0.00110463 1e-05
0.00268334 0.00110499 1e-05
0.00279319 0.00110534 1e-05
0.00290304 0.00110569 1e-05
0.00301289 0.00110603 1e-05
0.00312274 0.00110636 1e-05
0.00323259 0.00110669 1e-05
0.00334329 0.001107 1e-05
0.003454 0.00110732 1e-05
0.0035647 0.00110762 1e-05
0.0036754 0.00110792 1e-05
0.00378611 0.00110821 1e-05
0.00389767 0.00110849 1e-05
0.00400924 0.00110877 1e-05
0.0041208 0.00110904 1e-05
0.00423237 0.0011093 1e-05
0.00434393 0.00110955 1e-05
0.00445636 0.00110979 1e-05
0.00456879 0.00111003 1e-05
0.00468123 0.00111027 1e-05
0.00479366 0.00111049 1e-05
0.00490609 0.00111071 1e-05
0.0050194 0.00111092 1e-05
0.0051327 0.00111112 1e-05
0.00524601 0.00111131 1e-05
0.00535932 0.0011115 1e-05
0.00547262 0.00111168 1e-05
0.00558681 0.00111185 1e-05
0.005701 0.00111202 1e-05
0.00581518 0.00111218 1e-05
0.00592937 0.00111233 1e-05
0.00604356 0.00111247 1e-05
0.00615863 0.00111261 1e-05
0.00627371 0.00111274 1e-05
0.00638878 0.00111286 1e-05
0.00650386 0.00111297 1e-05
0.00661893 0.00111308 1e-05
0.0067349 0.00111318 1e-05
0.00685087 0.00111327 1e-05
0.00696684 0.00111336 1e-05
0.00708281 0.00111344 1e-05
0.00719878 0.00111351 1e-05
0.0072761 0.00111355 1e-05
0.00735342 0.00111359 1e-05
0.00743074 0.00111362 1e-05
0.00750806 0.00111365 1e-05
0.00758259 0.00111368 1e-05
0.0076227 0.00111369 1e-05
0.00766281 0.00111371 1e-05
0.00770292 0.00111372 1e-05
0.00774303 0.00111373 1e-05
0.00778313 0.00111374 1e-05
0.00790091 0.00111376 1e-05
0.00801869 0.00111378 1e-05
0.00813647 0.00111379 1e-05
0.00825425 0.00111379 1e-05
0.00837203 0.00111378 1e-05
0.00849073 0.00111376 1e-05
0.00860942 0.00111374 1e-05
0.00872812 0.00111371 1e-05
0.00884682 0.00111368 1e-05
0.00896551 0.00111363 1e-05
0.00908513 0.00111357 1e-05
0.00920475 0.00111351 1e-05
0.00932437 0.00111344 1e-05
0.00944398 0.00111336 1e-05
0.0095636 0.00111327 1e-05
0.00968415 0.00111317 1e-05
0.0098047 0.00111307 1e-05
0.00992525 0.00111295 1e-05
0.0100458 0.00111284 1e-05
0.0101663 0.00111271 1e-05
0.0102878 0.00111256 1e-05
0.0104093 0.00111241 1e-05
0.0105308 0.00111226 1e-05
0.0106523 0.0011121 1e-05
0.0107738 0.00111193 1e-05
0.0108962 0.00111174 1e-05
0.0110186 0.00111155 1e-05
0.0111411 0.00111135 1e-05
0.0112635 0.00111115 1e-05
0.0113859 0.00111093 1e-05
0.0115093 0.00111069 1e-05
0.0116327 0.00111046 1e-05
0.0117561 0.00111022 1e-05
0.0118795 0.00110997 1e-05
0.0120028 0.00110971 1e-05
0.0121272 0.00110943 1e-05
0.0122515 0.00110915 1e-05
0.0123759 0.00110886 1e-05
0.0125002 0.00110857 1e-05
0.0126245 0.00110826 1e-05
0.0127498 0.00110793 1e-05
0.0128752 0.00110761 1e-05
0.0130005 0.00110728 1e-05
0.0131258 0.00110693 1e-05
0.0132511 0.00110658 1e-05
0.0133774 0.00110621 1e-05
0.0135036 0.00110584 1e-05
0.0136299 0.00110545 1e-05
0.0137562 0.00110506 1e-05
0.0138825 0.00110467 1e-05
0.0140098 0.00110424 1e-05
0.014137 0.00110382 1e-05
0.0142643 0.00110339 1e-05
0.0143915 0.00110295 1e-05
0.0145188 0.0011025 1e-05
0.0146471 0.00110203 1e-05
0.0147753 0.00110156 1e-05
0.0149036 0.00110108 1e-05
0.0150318 0.0011006 1e-05
0.0151601 0.0011001 1e-05
0.0152893 0.00109958 1e-05
0.0154186 0.00109906 1e-05
0.0155478 0.00109853 1e-05
0.0156771 0.00109799 1e-05
0.0158063 0.00109744 1e-05
0.0159366 0.00109687 1e-05
0.0160668 0.0010963 1e-05
0.0161971 0.00109572 1e-05
0.0163274 0.00109513 1e-05
0.0164576 0.00109453 1e-05
0.0165889 0.00109392 1e-05
0.0167201 0.0010933 1e-05
0.0168514 0.00109266 1e-05
0.0169827 0.00109202 1e-05
0.0171139 0.00109137 1e-05
0.0172462 0.00109071 1e-05
0.0173785 0.00109004 1e-05
0.0175108 0.00108935 1e-05
0.0176431 0.00108866 1e-05
0.0177754 0.00108796 1e-05
0.0179087 0.00108725 1e-05
0.018042 0.00108653 1e-05
0.0181753 0.00108579 1e-05
0.0183087 0.00108504 1e-05
0.018442 0.00108429 1e-05
0.0185763 0.00108353 1e-05
0.0187107 0.00108276 1e-05
0.018845 0.00108197 1e-05
0.0189794 0.00108117 1e-05
0.0191137 0.00108037 1e-05
0.0192491 0.00107956 1e-05
0.0193845 0.00107874 1e-05
0.0195199 0.00107789 1e-05
0.0196553 0.00107704 1e-05
0.0197907 0.00107619 1e-05
0.0199272 0.00107534 1e-05
0.0200636 0.00107446 1e-05
0.0202001 0.00107356 1e-05
0.0203365 0.00107266 1e-05
0.020473 0.00107176 1e-05
0.0206105 0.00107085 1e-05
0.020748 0.00106993 1e-05
0.0208855 0.00106898 1e-05
0.021023 0.00106802 1e-05
0.0211606 0.00106707 1e-05
0.0212991 0.00106612 1e-05
0.0214377 0.00106514 1e-05
0.0215763 0.00106414 1e-05
0.0217149 0.00106313 1e-05
0.0218535 0.00106212 1e-05
0.0219931 0.00106112 1e-05
0.0221328 0.00106009 1e-05
0.0222724 0.00105904 1e-05
0.0224121 0.00105798 1e-05
0.0225517 0.00105693 1e-05
0.0226925 0.00105587 1e-05
0.0228332 0.00105479 1e-05
0.022974 0.00105369 1e-05
0.0231147 0.00105257 1e-05
0.0232555 0.00105147 1e-05
0.0233973 0.00105036 1e-05
0.0235391 0.00104923 1e-05
0.023681 0.00104807 1e-05
0.0238228 0.00104691 1e-05
0.0239647 0.00104575 1e-05
0.0241076 0.00104459 1e-05
0.0242505 0.00104341 1e-05
0.0243935 0.0010422 1e-05
0.0245364 0.00104098 1e-05
0.0246794 0.00103977 1e-05
0.0248234 0.00103856 1e-05
0.0249675 0.00103732 1e-05
0.0251115 0.00103606 1e-05
0.0252556 0.00103478 1e-05
[...]
POINT_DATA 12045
 FIELD attributes 2
p 1 12045 float
-5.0845 -5.08119 -5.07788 -5.07458 -5.07127 -5.06796
-5.23751 -5.23749 -5.23747 -5.23745 -5.23742 -5.2374
-5.41131 -5.41119 -5.41106 -5.41094 -5.41082 -5.41071
-5.5043 -5.50425 -5.50419 -5.50414 -5.50408 -5.50403
-5.54907 -5.54896 -5.54884 -5.54873 -5.54862 -5.54851
-5.55536 -5.5552 -5.55503 -5.55487 -5.55471 -5.55455
-5.52824 -5.52816 -5.52809 -5.52802 -5.52795 -5.52788
-5.45855 -5.45851 -5.45847 -5.45843 -5.45839 -5.45835
-5.33727 -5.33728 -5.33728 -5.33729 -5.3373 -5.3373
-3.12475 -3.14407 -3.16327 -3.18233 -3.20126 -3.22005
-5.0845 -5.08384 -5.08027 -5.07663 -5.07291 -5.06464 -5.07857 -5.0936 -5.10864 -5.12368 -5.14816 -5.16995 -5.19991 -5.22987 -5.25983 -5.2926 -5.30828 -5.33001 -5.35174 -5.37347 -5.39682 -5.41574 -5.43668 -5.45762 -5.47856 -5.49625 -5.49732 -5.49839 -5.49946 -5.50053 -5.5016 -5.52329 -5.54499 -5.56668 -5.58838 -5.6098 -5.62861 -5.64722 -5.66583 -5.68444 -5.70248 -5.71815 -5.73354 -5.74894 -5.76433 -5.77917 -5.793 -5.80658 -5.82016 -5.83375 -5.84688 -5.85965 -5.87216 -5.88467 -5.89718 -5.90927 -5.92114 -5.93271 -5.94428 -5.95585 -5.967 -5.97805 -5.98882 -5.99959 -6.01037 -6.02078 -6.03121 -6.04137 -6.05152 -6.06168 -6.07152 -6.08145 -6.09118 -6.10092 -6.11065 -6.12017 -6.12978 -6.13911 -6.14844 -6.15777 -6.16688 -6.17627 -6.18578 -6.19529 -6.2048 -6.21446 -6.22434 -6.23396 -6.24358 -6.2532 -6.26266 -6.27266 -6.28355 -6.29443 -6.30532 -6.31645 -6.32655 -6.33749 -6.34844 -6.35938 -6.36988 -6.37941 -6.38848 -6.39756 -6.40663 -6.41488 -6.42214 -6.4304 -6.43866 -6.44692 -6.45589 -6.46409 -6.47271 -6.48133 -6.48995 -6.49868 -6.50685 -6.51403 -6.5212 -6.52838 -6.53469 -6.54144 -6.54691 -6.55237 -6.55783 -6.56223 -6.5679 -6.57252 -6.57714 -6.58177 -6.58544 -6.59033 -6.59433 -6.59832 -6.60232 -6.60551 -6.60944 -6.61262 -6.61581 -6.61899 -6.62158 -6.6245 -6.62688 -6.62927 -6.63165 -6.63366 -6.63586 -6.63771 -6.63957 -6.64142 -6.64308 -6.64493 -6.64656 -6.6482 -6.64984 -6.65138 -6.65304 -6.65458 -6.65612 -6.65765 -6.65916 -6.66016 -6.66112 -6.66208 -6.66304 -6.66396 -6.66446 -6.66496 -6.66546 -6.66596 -6.66649 -6.66784 -6.66923 -6.67063 -6.67202 -6.6736 -6.67478 -6.67617 -6.67757 -6.67896 -6.68077 -6.68174 -6.68318 -6.68461 -6.68605 -6.6882 -6.68897 -6.69051 -6.69206 -6.6936 -6.69623 -6.69682 -6.69849 -6.70016 -6.70184 -6.70493 -6.7053 -6.70707 -6.70884 -6.71061 -6.71414 -6.7143 -6.71618 -6.71806 -6.71993 -6.72392 -6.72395 -6.72596 -6.72797 -6.72998 -6.73441 -6.73435 -6.7365 -6.73865 -6.74081 -6.7456 -6.74548 -6.74777 -6.75006 -6.75236 -6.75746 -6.75734 -6.75977 -6.7622 -6.76479 -6.77001 -6.77018 -6.77251 -6.77509 -6.77809 -6.78325 -6.78377 -6.78602 -6.78874 -6.79211 -6.79721 -6.79808 -6.80029 -6.80316 -6.80685 -6.81187 -6.8131 -6.81531 -6.81832 -6.82229 -6.82723 -6.8288 -6.83105 -6.83421 -6.8384 -6.84327 -6.84517 -6.84751 -6.8508 -6.85519 -6.85998 -6.8622 -6.86465 -6.86808 -6.87261 -6.87734 -6.87986 -6.88245 -6.88601 -6.89066 -6.89535 -6.89814 -6.90094 -6.90466 -6.90931 -6.91397 -6.91702 -6.92008 -6.92392 -6.92856 -6.9332 -6.9365 -6.9398 -6.94377 -6.94841 -6.95305 -6.95659 -6.96014 -6.96423 -6.96886 -6.97349 -6.97726 -6.98103 -6.98521 -6.98982 -6.99442 -6.99838 -7.00234 -7.0066 -7.01119 -7.01577 -7.01987 -7.02397 -7.02832 -7.03291 -7.0375 -7.04171 -7.04593 -7.05036 -7.05497 -7.05958 -7.06389 -7.06822 -7.07272 -7.07734 -7.082 -7.08639 -7.09082 -7.09538 -7.10003 -7.10473 -7.10918 -7.1137 -7.11831 -7.12299 -7.12773 -7.13223 -7.13682 -7.14148 -7.14617 -7.15094 -7.15549 -7.16013 -7.16482 -7.16953 -7.17433 -7.1789 -7.18359 -7.1883 -7.19302 -7.19784 -7.20242 -7.20715 -7.21187 -7.2166 -7.22141 -7.22602 -7.23075 -7.23548 -7.2402 -7.245 -7.24962 -7.25434 -7.25905 -7.26377 -7.26854 -7.27316 -7.27785 -7.28254 -7.28723 -7.29196 -7.29656 -7.30122 -7.30587 -7.31053 -7.3152 -7.31977 -7.32437 -7.32897 -7.33358 -7.33818 -7.34036 -7.34254 -7.34473 -7.34691 -7.34906 -7.35141 -7.35377 -7.35613 -7.35849 -7.36086 -7.36531 -7.36977 -7.37422 -7.37868 -7.38315 -7.38751 -7.39187 -7.39623 -7.40058 -7.40496 -7.40922 -7.41347 -7.41772 -7.42197 -7.42624 -7.43038 -7.4345 -7.43862 -7.44274 -7.44687 -7.45088 -7.45484 -7.45881 -7.46277 -7.46673 -7.47059 -7.47438 -7.47817 -7.48195 -7.48572 -7.48941 -7.49303 -7.49662 -7.5002 -7.50377 -7.50726 -7.51069 -7.51407 -7.51742 -7.52075 -7.52402 -7.52725 -7.53039 -7.53347 -7.53654 -7.53957 -7.54258 -7.54545 -7.54823 -7.55101 -7.55376 -7.55652 -7.5591 -7.56156 -7.56403 -7.56648 -7.56894 -7.57122 -7.57334 -7.57546 -7.57759 -7.57972 -7.58167 -7.58343 -7.58518 -7.58696 -7.58874 -7.59033 -7.59169 -7.59305 -7.59445 -7.59585 -7.59707 -7.598 -7.59894 -7.59992 -7.60088 -7.60166 -7.6022 -7.60269 -7.60323 -7.60369 -7.604 -7.60415 -7.60415 -7.60422 -7.60414 -7.60395 -7.60368 -7.60317 -7.60273 -7.60207 -7.60136 -7.60065 -7.59959 -7.59859 -7.59732 -7.59605 -7.59479 -7.59325 -7.5916 -7.58974 -7.58789 -7.58603 -7.58399 -7.58165 -7.57917 -7.57669 -7.57421 -7.57166 -7.56967 -7.56763 -7.56558 -7.56354 -7.56158 -7.56049 -7.5594 -7.55831 -7.55722 -7.55609 -7.55236 -7.54858 -7.54481 -7.54104 -7.5371 -7.53281 -7.52831 -7.52382 -7.51933 -7.51454 -7.50967 -7.50442 -7.49918 -7.49394 -7.48822 -7.48272 -7.47673 -7.4707 -7.46455 -7.458 -7.4517 -7.44508 -7.43824 -7.4311 -7.4237 -7.41657 -7.4093 -7.40162 -7.39343 -7.38516 -7.37717 -7.36918 -7.36058 -7.35141 -7.34223 -7.33335 -7.32446 -7.31497 -7.30486 -7.29475 -7.28494 -7.27513 -7.26471 -7.25364 -7.24257 -7.2318 -7.22093 -7.20949 -7.19759 -7.18552 -7.17377 -7.16166 -7.14921 -7.13655 -7.12347 -7.1107 -7.0973 -7.08381 -7.07033 -7.05626 -7.04228 -7.02771 -7.01316 -6.99861 -6.98376 -6.96841 -6.95277 -6.93712 -6.92149 -6.90585 -6.90552 -6.9052 -6.90487 -6.90454 -6.90421 -6.88792 -6.87163 -6.85535 -6.83908 -6.82253 -6.80506 -6.78732 -6.76959 -6.75187 -6.73356 -6.71523 -6.69636 -6.67748 -6.65841 -6.63882 -6.61933 -6.5996 -6.57956 -6.55899 -6.53821 -6.51754 -6.49689 -6.47559 -6.45361 -6.43163 -6.40977 -6.38793 -6.3654 -6.3422 -6.319 -6.29594 -6.27276 -6.24891 -6.22466 -6.20024 -6.17596 -6.15115 -6.12606 -6.10094 -6.07528 -6.04963 -6.02329 -5.99695 -5.97062 -5.94406 -5.92774 -5.91114 -5.89455 -5.87796 -5.86206 -5.85096 -5.83986 -5.82877 -5.81768 -5.80646 -5.77779 -5.74903 -5.72029 -5.69155 -5.66236 -5.63268 -5.60266 -5.57266 -5.54249 -5.51188 -5.48096 -5.44992 -5.41866 -5.38688 -5.355 -5.32282 -5.29064 -5.25801 -5.22487 -5.19172 -5.15828 -5.12485 -5.0908 -5.05645 -5.02206 -4.98736 -4.95231 -4.917 -4.88168 -4.84604 -4.80998 -4.77342 -4.73687 -4.70033 -4.66371 -4.65265 -4.64147 -4.63029 -4.61911 -4.60814 -4.58157 -4.555 -4.52844 -4.50188 -4.47501 -4.43631 -4.39743 -4.35855 -4.31963 -4.28007 -4.2403 -4.20036 -4.16029 -4.11974 -4.07898 -4.03803 -3.99708 -3.95569 -3.91379 -3.87187 -3.82975 -3.78762 -3.74486 -3.70189 -3.65884 -3.61558 -3.57187 -3.52799 -3.48411 -3.44001 -3.40397 -3.36759 -3.3312 -3.29483 -3.26022 -3.25129 -3.24237 -3.23344 -3.22452 -3.2155 -3.1696 -3.12366 -3.07773 -3.03181 -2.98532 -2.9386 -2.8917 -2.84476 -2.79746 -2.74988 -2.70216 -2.65446 -2.60642 -2.5579 -2.50937 -2.46071 -2.41201 -2.36279 -2.31344 -2.26401 -2.21444 -2.16442 -2.11431 -2.06422 -2.01402 -1.98952 -1.96483 -1.94014 -1.91546 -1.89145 -1.8651 -1.83875 -1.8124 -1.78606 -1.75947 -1.70789 -1.65624 -1.60459 -1.55286 -1.50067 -1.4484 -1.39612 -1.34376 -1.29093 -1.23807 -1.18512 -1.13217 -1.07888 -1.02544 -0.971978 -0.918402 -0.864573 -0.810618 -0.756675 -0.702663 -0.672099 -0.641359 -0.610623 -0.579889 -0.550068 -0.526127 -0.502188 -0.478251 -0.454317 -0.430225 -0.375253 -0.320268 -0.265293 -0.210245 -0.154885 -0.0994612 -0.0440493 0.0113768 0.0670581 0.122776 0.178577 0.234365 0.290374 0.346335 0.40232 0.458399 0.514638 0.570886 0.627123 0.683378 0.693857 0.704362 0.714865 0.725369 0.735778 0.781787 0.82779 0.873787 0.919776 0.965938 1.02267 1.07932 1.13595 1.19266 1.24946 1.30629 1.36311 1.41994 1.4767 1.53351 1.59037 1.64724 1.70411 1.76097 1.81776 1.84408 1.87038 1.89668 1.92298 1.94876 1.97942 2.01008 2.04073 2.07139 2.10207 2.159 2.21578 2.27255 2.3293 2.38608 2.44287 2.49964 2.55628 2.61277 2.66932 2.72587 2.78236 2.83879 2.89521 2.95149 2.97791 3.00425 3.03059 3.05692 3.08279 3.11275 3.14271 3.17267 3.20262 3.23253 3.28867 3.34459 3.4005 3.45632 3.51212 3.56788 3.62363 3.67917 3.73446 3.78979 3.8451 3.90025 3.9553 4.01035 4.06531 4.07995 4.09451 4.10907 4.12363 4.13807 4.17824 4.21841 4.25858 4.29874 4.33875 4.39324 4.44754 4.50174 4.5557 4.60966 4.66356 4.71746 4.77106 4.82441 4.87772 4.92625 4.97448 5.02268 5.07088 5.118 5.12296 5.12793 5.13289 5.13784 5.14278 5.19534 5.24785 5.30035 5.35279 5.40499 5.45709 5.50918 5.56089 5.61232 5.66377 5.71512 5.76632 5.81728 5.86823 5.91894 5.94068 5.96227 5.98383 6.00539 6.02681 6.05562 6.08443 6.11325 6.14204 6.17064 6.22062 6.27033 6.32 6.36937 6.41865 6.46781 6.51696 6.56575 6.61421 6.66265 6.70503 6.74708 6.78907 6.83107 6.87282 6.87879 6.88476 6.89072 6.89668 6.90259 6.95002 6.99735 7.04469 7.09189 7.13876 7.18554 7.23232 7.27869 7.32467 7.37065 7.41655 7.46211 7.50751 7.55292 7.59822 7.60407 7.60987 7.61565 7.62144 7.62723 7.66625 7.70527 7.7443 7.78324 7.82183 7.86609 7.91035 7.95419 7.99764 8.04108 8.08444 8.12759 8.17044 8.2133 8.25591 8.26964 8.28324 8.29681 8.31038 8.32402 8.35262 8.38122 8.40981 8.43835 8.46661 8.50829 8.54983 8.59122 8.63212 8.673 8.71377 8.75444 8.79473 8.83496 8.87492 8.89567 8.91622 8.93671 8.95721 8.97801 8.99699 9.01597 9.03494 9.05388 9.07263 9.11171 9.15054 9.18935 9.22782 9.26613 9.30431 9.34249 9.38025 9.41778 9.45519 9.48458 9.51366 9.54269 9.57172 9.60173 9.60939 9.61705 9.62471 9.63236 9.63994 9.6763 9.71255 9.74881 9.7849 9.8207 9.85631 9.89191 9.92719 9.96214 9.99705 10.0318 10.0662 10.1005 10.1349 10.169 10.1765 10.1839 10.1913 10.1987 10.2062 10.2324 10.2587 10.2849 10.3111 10.3371 10.3701 10.4031 10.4359 10.4685 10.5009 10.5331 10.5653 10.5971 10.6288 10.6604 10.689 10.7174 10.7457 10.774 10.8044 10.8066 10.8089 10.8112 10.8135 10.8157 10.8461 10.8765 10.9069 10.9373 10.9674 10.9971 11.0269 11.0564 11.0856 11.1148 11.1437 11.1726 11.2013 11.2299 11.2583 11.2865 11.314 11.3416 11.3691 11.3964 11.4012 11.4061 11.411 11.416 11.4211 11.4436 11.4662 11.4887 11.5112 11.5346 11.5629 11.5864 11.6097 11.63 11.6472 11.6638 11.6803 11.7069 11.7438 11.7806 11.8168 11.8496 11.8661 11.8805 11.8865 11.8893 11.8946 11.9007 11.9068 11.9133 11.9176 11.9219 11.9262 11.931 11.9381 11.9524 11.9662 11.9799 11.9932 12.0061 12.0184 12.0305 12.0409 12.0497 12.0582 12.0651 12.0708 12.0764 12.0819 12.0883 12.0887 12.0892 12.0896 12.09 12.0904 12.0938 12.0971 12.1002 12.1031 12.1047 12.1048 12.1048 12.103 12.0996 12.0962 12.0911 12.0855 12.0781 12.07 12.0607 12.0512 12.0393 12.0275 12.0156 12.0012 11.9999 11.9985 11.9972 11.9959 11.9943 11.9753 11.9558 11.9362 11.9165 11.8942 11.869 11.8426 11.8148 11.7842 11.7532 11.7189 11.6846 11.6472 11.6064 11.5656 11.5213 11.4746 11.426 11.3773 11.3253 11.274 11.2194 11.1647 11.1101 11.0407 11.0376 11.0346 11.0315 11.0284 11.0252 10.9532 10.8808 10.8083 10.7358 10.6593 10.5764 10.4889 10.4012 10.3113 10.2179 10.119 10.0191 9.91398 9.80173 9.68934 9.5709 9.45238 9.32794 9.19768 9.0673 8.93033 8.79142 8.64224 8.48646 8.3273 8.16062 7.99195 7.82228 7.65246 7.48017 7.29544 7.08498 6.87456 6.6642 6.44189 6.2395 6.0475 5.85546 5.66338 5.43351 5.41341 5.39331 5.37321 5.35311 5.33385 5.03298 4.72717 4.42088 4.11414 3.75562 3.39731 3.13192 2.86583 2.59907 2.49511 2.41894 1.99855 1.5646 0.924672 0