# vtk DataFile Version 2.0
track0
ASCII
DATASET POLYDATA
POINTS 12045 float
-0.0205 0.001 1e-05
-0.02052 0.000999985 1e-05
-0.02054 0.000999974 1e-05
-0.02056 0.000999965 1e-05
-0.02058 0.000999959 1e-05
-0.0206 0.000999956 1e-05
-0.0205 0.00367778 1e-05
-0.02052 0.00367778 1e-05
-0.02054 0.00367777 1e-05
-0.02056 0.00367777 1e-05
-0.02058 0.00367777 1e-05
-0.0206 0.00367777 1e-05
-0.0205 0.00635556 1e-05
-0.02052 0.00635555 1e-05
-0.02054 0.00635555 1e-05
-0.02056 0.00635555 1e-05
-0.02058 0.00635555 1e-05
-0.0206 0.00635555 1e-05
-0.0205 0.00903333 1e-05
-0.02052 0.00903333 1e-05
-0.02054 0.00903333 1e-05
-0.02056 0.00903333 1e-05
-0.02058 0.00903333 1e-05
-0.0206 0.00903333 1e-05
-0.0205 0.0117111 1e-05
-0.02052 0.0117111 1e-05
-0.02054 0.0117111 1e-05
-0.02056 0.0117111 1e-05
-0.02058 0.0117111 1e-05
-0.0206 0.0117111 1e-05
-0.0205 0.0143889 1e-05
-0.02052 0.0143889 1e-05
-0.02054 0.0143889 1e-05
-0.02056 0.0143889 1e-05
-0.02058 0.0143889 1e-05
-0.0206 0.0143889 1e-05
-0.0205 0.0170667 1e-05
-0.02052 0.0170667 1e-05
-0.02054 0.0170667 1e-05
-0.02056 0.0170667 1e-05
-0.02058 0.0170667 1e-05
-0.0206 0.0170667 1e-05
-0.0205 0.0197444 1e-05
-0.02052 0.0197444 1e-05
-0.02054 0.0197444 1e-05
-0.02056 0.0197444 1e-05
-0.02058 0.0197444 1e-05
-0.0206 0.0197444 1e-05
-0.0205 0.0224222 1e-05
-0.02052 0.0224222 1e-05
-0.02054 0.0224222 1e-05
-0.02056 0.0224222 1e-05
-0.02058 0.0224222 1e-05
-0.0206 0.0224222 1e-05
-0.0205 0.0251 1e-05
-0.02052 0.0250998 1e-05
-0.02054 0.0250997 1e-05
-0.02056 0.0250995 1e-05
-0.02058 0.0250995 1e-05
-0.0206 0.0250994 1e-05
-0.0205 0.001 1e-05
-0.0202034 0.00100022 1e-05
-0.0199069 0.00100067 1e-05
-0.0196103 0.00100133 1e-05
-0.0193137 0.00100219 1e-05
-0.0190172 0.00100326 1e-05
-0.0187132 0.00100467 1e-05
-0.0184093 0.00100589 1e-05
-0.0181054 0.00100711 1e-05
-0.0178015 0.00100832 1e-05
-0.0174976 0.00100954 1e-05
-0.0172058 0.00101083 1e-05
-0.016914 0.00101193 1e-05
-0.0166222 0.00101303 1e-05
-0.0163305 0.00101413 1e-05
-0.0160387 0.00101523 1e-05
-0.0157586 0.00101637 1e-05
-0.0154784 0.00101745 1e-05
-0.0151983 0.00101856 1e-05
-0.0149182 0.00101971 1e-05
-0.0146381 0.0010209 1e-05
-0.0143745 0.00102209 1e-05
-0.0141109 0.00102327 1e-05
-0.0138473 0.00102449 1e-05
-0.0135837 0.00102574 1e-05
-0.0133611 0.00102682 1e-05
-0.0133476 0.00102688 1e-05
-0.013334 0.00102695 1e-05
-0.0133205 0.00102702 1e-05
-0.013307 0.00102709 1e-05
-0.0132934 0.00102715 1e-05
-0.0130353 0.00102844 1e-05
-0.0127771 0.00102974 1e-05
-0.0125189 0.00103106 1e-05
-0.0122607 0.0010324 1e-05
-0.0120025 0.00103375 1e-05
-0.0117547 0.00103505 1e-05
-0.0115068 0.00103637 1e-05
-0.0112589 0.00103769 1e-05
-0.0110111 0.00103901 1e-05
-0.0107632 0.00104034 1e-05
-0.0105252 0.00104162 1e-05
-0.0102873 0.0010429 1e-05
-0.0100493 0.00104417 1e-05
-0.00981133 0.00104545 1e-05
-0.00957337 0.00104673 1e-05
-0.00934491 0.00104795 1e-05
-0.00911645 0.00104917 1e-05
-0.00888799 0.00105039 1e-05
-0.00865954 0.00105161 1e-05
-0.00843108 0.00105282 1e-05
-0.00821175 0.00105397 1e-05
-0.00799242 0.00105513 1e-05
-0.00777309 0.00105628 1e-05
-0.00755376 0.00105743 1e-05
-0.00733443 0.00105858 1e-05
-0.00712387 0.00105967 1e-05
-0.0069133 0.00106076 1e-05
-0.00670273 0.00106184 1e-05
-0.00649216 0.00106292 1e-05
-0.0062816 0.001064 1e-05
-0.00607944 0.00106502 1e-05
-0.00587729 0.00106605 1e-05
-0.00567514 0.00106707 1e-05
-0.00547298 0.00106809 1e-05
-0.00527083 0.0010691 1e-05
-0.00507675 0.00107006 1e-05
-0.00488267 0.00107102 1e-05
-0.0046886 0.00107198 1e-05
-0.00449452 0.00107294 1e-05
-0.00430044 0.00107389 1e-05
-0.00411412 0.00107479 1e-05
-0.0039278 0.0010757 1e-05
-0.00374147 0.0010766 1e-05
-0.00355515 0.0010775 1e-05
-0.00336883 0.0010784 1e-05
-0.00318995 0.00107925 1e-05
-0.00301107 0.0010801 1e-05
-0.00283219 0.00108095 1e-05
-0.00265331 0.0010818 1e-05
-0.00247443 0.00108264 1e-05
-0.0023027 0.00108345 1e-05
-0.00213097 0.00108426 1e-05
-0.00195924 0.00108506 1e-05
-0.0017875 0.00108587 1e-05
-0.00161577 0.00108667 1e-05
-0.0014509 0.00108743 1e-05
-0.00128603 0.00108819 1e-05
-0.00112116 0.00108896 1e-05
-0.000956289 0.00108972 1e-05
-0.000791418 0.00109049 1e-05
-0.000633135 0.00109122 1e-05
-0.000474851 0.00109195 1e-05
-0.000316567 0.00109268 1e-05
-0.000158284 0.00109342 1e-05
0 0.00109415 1e-05
0.000105677 0.00109463 1e-05
0.000211355 0.00109511 1e-05
0.000317032 0.00109559 1e-05
0.00042271 0.00109607 1e-05
0.000528387 0.00109654 1e-05
0.000634886 0.00109701 1e-05
0.000741385 0.00109748 1e-05
0.000847885 0.00109795 1e-05
0.000954384 0.00109841 1e-05
0.00106088 0.00109887 1e-05
0.00116821 0.00109933 1e-05
0.00127554 0.00109978 1e-05
0.00138286 0.00110023 1e-05
0.00149019 0.00110067 1e-05
0.00159752 0.00110111 1e-05
0.00170568 0.00110154 1e-05
0.00181384 0.00110197 1e-05
0.001922 0.00110239 1e-05
0.00203016 0.0011028 1e-05
0.00213833 0.0011032 1e-05
0.00224733 0.00110359 1e-05
0.00235633 0.00110398 1e-05
0.00246533 0.00110437 1e-05
0.00257434 0.00110474 1e-05
0.00268334 0.0011051 1e-05
0.00279319 0.00110545 1e-05
0.00290304 0.00110581 1e-05
0.00301289 0.00110615 1e-05
0.00312274 0.00110649 1e-05
0.00323259 0.00110681 1e-05
0.00334329 0.00110713 1e-05
0.003454 0.00110744 1e-05
0.0035647 0.00110775 1e-05
0.0036754 0.00110805 1e-05
0.00378611 0.00110834 1e-05
0.00389767 0.00110862 1e-05
0.00400924 0.0011089 1e-05
0.0041208 0.00110917 1e-05
0.00423237 0.00110944 1e-05
0.00434393 0.00110969 1e-05
0.00445636 0.00110994 1e-05
0.00456879 0.00111018 1e-05
0.00468123 0.00111041 1e-05
0.00479366 0.00111064 1e-05
0.00490609 0.00111086 1e-05
0.0050194 0.00111107 1e-05
0.0051327 0.00111127 1e-05
0.00524601 0.00111147 1e-05
0.00535932 0.00111166 1e-05
0.00547262 0.00111184 1e-05
0.00558681 0.00111202 1e-05
0.005701 0.00111218 1e-05
0.00581518 0.00111235 1e-05
0.00592937 0.0011125 1e-05
0.00604356 0.00111264 1e-05
0.00615863 0.00111278 1e-05
0.00627371 0.00111291 1e-05
0.00638878 0.00111304 1e-05
0.00650386 0.00111315 1e-05
0.00661893 0.00111326 1e-05
0.0067349 0.00111336 1e-05
0.00685087 0.00111346 1e-05
0.00696684 0.00111354 1e-05
0.00708281 0.00111362 1e-05
0.00719878 0.00111369 1e-05
0.00727962 0.00111374 1e-05
0.00736046 0.00111378 1e-05
0.0074413 0.00111382 1e-05
0.00752215 0.00111385 1e-05
0.00759993 0.00111388 1e-05
0.00763657 0.00111389 1e-05
0.00767321 0.0011139 1e-05
0.00770985 0.00111391 1e-05
0.00774649 0.00111392 1e-05
0.00778313 0.00111393 1e-05
0.00790091 0.00111396 1e-05
0.00801869 0.00111398 1e-05
0.00813647 0.00111399 1e-05
0.00825425 0.00111399 1e-05
0.00837203 0.00111398 1e-05
0.00849073 0.00111397 1e-05
0.00860942 0.00111395 1e-05
0.00872812 0.00111392 1e-05
0.00884682 0.00111388 1e-05
0.00896551 0.00111384 1e-05
0.00908513 0.00111378 1e-05
0.00920475 0.00111372 1e-05
0.00932437 0.00111365 1e-05
0.00944398 0.00111357 1e-05
0.0095636 0.00111349 1e-05
0.00968415 0.00111338 1e-05
0.0098047 0.00111328 1e-05
0.00992525 0.00111317 1e-05
0.0100458 0.00111305 1e-05
0.0101663 0.00111293 1e-05
0.0102878 0.00111278 1e-05
0.0104093 0.00111263 1e-05
0.0105308 0.00111248 1e-05
0.0106523 0.00111232 1e-05
0.0107738 0.00111215 1e-05
0.0108962 0.00111196 1e-05
0.0110186 0.00111177 1e-05
0.0111411 0.00111157 1e-05
0.0112635 0.00111137 1e-05
0.0113859 0.00111116 1e-05
0.0115093 0.00111092 1e-05
0.0116327 0.00111069 1e-05
0.0117561 0.00111044 1e-05
0.0118795 0.00111019 1e-05
0.0120028 0.00110994 1e-05
0.0121272 0.00110965 1e-05
0.0122515 0.00110937 1e-05
0.0123759 0.00110909 1e-05
0.0125002 0.00110879 1e-05
0.0126245 0.00110849 1e-05
0.0127498 0.00110816 1e-05
0.0128752 0.00110783 1e-05
0.0130005 0.0011075 1e-05
0.0131258 0.00110716 1e-05
0.0132511 0.00110681 1e-05
0.0133774 0.00110643 1e-05
0.0135036 0.00110606 1e-05
0.0136299 0.00110567 1e-05
0.0137562 0.00110528 1e-05
0.0138825 0.00110488 1e-05
0.0140098 0.00110446 1e-05
0.014137 0.00110404 1e-05
0.0142643 0.00110361 1e-05
0.0143915 0.00110317 1e-05
0.0145188 0.00110272 1e-05
0.0146471 0.00110225 1e-05
0.0147753 0.00110177 1e-05
0.0149036 0.00110129 1e-05
0.0150318 0.0011008 1e-05
0.0151601 0.0011003 1e-05
0.0152893 0.00109978 1e-05
0.0154186 0.00109926 1e-05
0.0155478 0.00109873 1e-05
0.0156771 0.00109819 1e-05
0.0158063 0.00109764 1e-05
0.0159366 0.00109707 1e-05
0.0160668 0.00109649 1e-05
0.0161971 0.00109591 1e-05
0.0163274 0.00109532 1e-05
0.0164576 0.00109472 1e-05
0.0165889 0.0010941 1e-05
0.0167201 0.00109348 1e-05
0.0168514 0.00109284 1e-05
0.0169827 0.0010922 1e-05
0.0171139 0.00109154 1e-05
0.0172462 0.00109088 1e-05
0.0173785 0.0010902 1e-05
0.0175108 0.00108952 1e-05
0.0176431 0.00108882 1e-05
0.0177754 0.00108811 1e-05
0.0179087 0.0010874 1e-05
0.018042 0.00108668 1e-05
0.0181753 0.00108593 1e-05
0.0183087 0.00108518 1e-05
0.018442 0.00108443 1e-05
0.0185763 0.00108367 1e-05
0.0187107 0.00108289 1e-05
0.018845 0.0010821 1e-05
0.0189794 0.00108129 1e-05
0.0191137 0.00108049 1e-05
0.0192491 0.00107968 1e-05
0.0193845 0.00107885 1e-05
0.0195199 0.001078 1e-05
0.0196553 0.00107714 1e-05
0.0197907 0.00107628 1e-05
0.0199272 0.00107543 1e-05
0.0200636 0.00107454 1e-05
0.0202001 0.00107364 1e-05
0.0203365 0.00107273 1e-05
0.020473 0.00107182 1e-05
0.0206105 0.00107092 1e-05
0.020748 0.00106998 1e-05
0.0208855 0.00106903 1e-05
0.021023 0.00106806 1e-05
0.0211606 0.00106711 1e-05
0.0212991 0.00106615 1e-05
0.0214377 0.00106516 1e-05
0.0215763 0.00106416 1e-05
0.0217149 0.00106314 1e-05
0.0218535 0.00106213 1e-05
0.0219931 0.00106112 1e-05
0.0221328 0.00106009 1e-05
0.0222724 0.00105903 1e-05
0.0224121 0.00105796 1e-05
0.0225517 0.0010569 1e-05
0.0226925 0.00105584 1e-05
0.0228332 0.00105475 1e-05
0.022974 0.00105363 1e-05
0.0231147 0.00105251 1e-05
0.0232555 0.0010514 1e-05
0.0233973 0.00105029 1e-05
0.0235391 0.00104915 1e-05
0.023681 0.00104798 1e-05
0.0238228 0.0010468 1e-05
0.0239647 0.00104564 1e-05
0.0241076 0.00104447 1e-05
0.0242505 0.00104328 1e-05
0.0243935 0.00104206 1e-05
0.0245364 0.00104083 1e-05
0.0246794 0.00103961 1e-05
0.0248234 0.00103839 1e-05
0.0249675 0.00103714 1e-05
0.0251115 0.00103587 1e-05
0.0252556 0.00103459 1e-05
[...]
POINT_DATA 12045
 FIELD attributes 1
U 3 12045 float
10.0004 	0.00734821 	0 10.0004 	0.00587857 	0 10.0003 	0.00440893 	0 10.0002 	0.00293928 	0 10.0001 	0.00146964 	0 10 	0 	0
10.0001 	0.000878242 	0 10 	0.000702594 	0 10 	0.000526945 	0 10 	0.000351297 	0 10 	0.000175648 	0 10 	0 	0
10.0001 	0.000466133 	0 10.0001 	0.000372716 	0 10.0001 	0.000279299 	0 10 	0.000185882 	0 10 	9.2465e-05 	0 10 	0 	0
10 	0.000266256 	0 10 	0.000213005 	0 10 	0.000159753 	0 10 	0.000106502 	0 10 	5.32511e-05 	0 10 	0 	0
10 	8.06325e-05 	0 10 	6.4506e-05 	0 10 	4.83795e-05 	0 10 	3.2253e-05 	0 10 	1.61265e-05 	0 10 	0 	0
10 	-2.60111e-05 	0 10 	-2.08089e-05 	0 10 	-1.56067e-05 	0 10 	-1.04045e-05 	0 10 	-5.20223e-06 	0 10 	0 	0
10 	-0.000215954 	0 10 	-0.000172763 	0 10 	-0.000129573 	0 10 	-8.63817e-05 	0 10 	-4.31909e-05 	0 10 	0 	0
10 	-0.000377561 	0 10 	-0.000302049 	0 10 	-0.000226537 	0 10 	-0.000151025 	0 10 	-7.55123e-05 	0 10 	0 	0
9.99999 	-0.000426439 	0 9.99999 	-0.000341151 	0 9.99999 	-0.000255864 	0 10 	-0.000170576 	0 10 	-8.52879e-05 	0 10 	0 	0
9.17387 	0.0871272 	0 9.1308 	0.0697018 	0 9.08741 	0.0522761 	0 9.04368 	0.0348501 	0 8.99963 	0.017424 	0 8.95524 	0 	0
10.0004 	0.00734821 	0 10.0024 	0.0152065 	0 10.0045 	0.0222283 	0 10.0065 	0.0292057 	0 10.0086 	0.0361389 	0 10.0136 	0.046331 	0 10.0164 	0.0402118 	0 10.0208 	0.0401623 	0 10.0253 	0.040113 	0 10.0297 	0.0400639 	0 10.0356 	0.0445223 	0 10.0385 	0.037884 	0 10.0425 	0.0378406 	0 10.0464 	0.0377971 	0 10.0504 	0.0377536 	0 10.0545 	0.0408553 	0 10.0567 	0.0387774 	0 10.0592 	0.0400867 	0 10.0616 	0.0413976 	0 10.064 	0.0427101 	0 10.0662 	0.0451685 	0 10.0677 	0.0452796 	0 10.0691 	0.0464821 	0 10.0704 	0.0476857 	0 10.0717 	0.0488905 	0 10.0729 	0.0499089 	0 10.0729 	0.0499712 	0 10.073 	0.0500335 	0 10.0731 	0.0500959 	0 10.0731 	0.0501582 	0 10.0732 	0.0502112 	0 10.0737 	0.0508377 	0 10.0743 	0.0514583 	0 10.0748 	0.0520794 	0 10.0753 	0.0527011 	0 10.0758 	0.0531587 	0 10.0757 	0.0534542 	0 10.0753 	0.0536442 	0 10.075 	0.0538343 	0 10.0746 	0.0540246 	0 10.0741 	0.0539765 	0 10.0737 	0.054121 	0 10.0726 	0.0540973 	0 10.0715 	0.0540735 	0 10.0704 	0.0540497 	0 10.0689 	0.0537568 	0 10.0685 	0.0538366 	0 10.0669 	0.0537026 	0 10.0653 	0.0535687 	0 10.0636 	0.0534346 	0 10.0611 	0.0530143 	0 10.0611 	0.0530677 	0 10.0591 	0.0528725 	0 10.057 	0.0526773 	0 10.055 	0.052482 	0 10.0515 	0.0519877 	0 10.0521 	0.0520396 	0 10.0498 	0.0518178 	0 10.0475 	0.051596 	0 10.0452 	0.0513741 	0 10.0406 	0.0508451 	0 10.042 	0.0509167 	0 10.0395 	0.05069 	0 10.037 	0.0504632 	0 10.0345 	0.0502363 	0 10.0287 	0.0496892 	0 10.0312 	0.0497868 	0 10.0286 	0.0495713 	0 10.0259 	0.0493557 	0 10.0233 	0.0491401 	0 10.0164 	0.0485967 	0 10.02 	0.0487293 	0 10.0173 	0.0485262 	0 10.0146 	0.0483231 	0 10.0118 	0.0481199 	0 10.0038 	0.0475712 	0 10.0086 	0.047738 	0 10.0059 	0.0475834 	0 10.0032 	0.0474287 	0 10.0004 	0.047274 	0 9.99118 	0.0467833 	0 9.99736 	0.0470172 	0 9.99466 	0.0468748 	0 9.99197 	0.0467323 	0 9.98928 	0.0465899 	0 9.97884 	0.0460568 	0 9.98639 	0.0463024 	0 9.98379 	0.046305 	0 9.98119 	0.0463077 	0 9.97858 	0.0463103 	0 9.96699 	0.0459813 	0 9.97603 	0.0463083 	9.6191e-22 9.97404 	0.0462021 	6.26446e-21 9.97206 	0.0460959 	1.15671e-20 9.97008 	0.0459897 	1.68699e-20 9.95802 	0.0454198 	1.4316e-20 9.9683 	0.0455482 	9.86328e-20 9.96653 	0.0452475 	9.15629e-20 9.96476 	0.0449468 	8.44893e-20 9.96298 	0.0446461 	7.74121e-20 9.95071 	0.0439663 	-1.56776e-20 9.96085 	0.0439184 	-4.25201e-20 9.95912 	0.043607 	-4.73053e-20 9.95739 	0.0432956 	-5.20887e-20 9.95565 	0.0429842 	-5.68704e-20 9.94356 	0.0423968 	-2.23618e-20 9.95324 	0.0421835 	-1.96788e-20 9.95135 	0.0416054 	-1.36947e-20 9.94945 	0.0410272 	-7.71097e-21 9.94754 	0.040449 	-1.72775e-21 9.93564 	0.0396487 	7.37556e-21 9.94492 	0.0393354 	-5.92666e-21 9.94281 	0.0385204 	-2.53478e-20 9.9407 	0.0377053 	-4.4771e-20 9.93858 	0.03689 	-6.41964e-20 9.92676 	0.0358044 	-9.16131e-20 9.93547 	0.0355649 	-1.29514e-19 9.93301 	0.0347445 	-1.16612e-19 9.93054 	0.033924 	-1.03701e-19 9.92807 	0.0331032 	-9.07818e-20 9.91624 	0.0318864 	-3.12104e-20 9.92422 	0.0317689 	3.5987e-20 9.92136 	0.0310268 	5.006e-20 9.9185 	0.0302845 	6.41233e-20 9.91563 	0.029542 	7.81767e-20 9.90384 	0.0283016 	3.83828e-20 9.91101 	0.0282227 	-4.8661e-20 9.90776 	0.0275164 	-5.49984e-20 9.90451 	0.0268098 	-6.13207e-20 9.90125 	0.026103 	-6.76281e-20 9.88961 	0.0248748 	-3.54191e-22 9.89585 	0.0247567 	6.30949e-20 9.89218 	0.0240576 	5.3302e-20 9.88851 	0.0233582 	4.34941e-20 9.88484 	0.0226585 	3.36712e-20 9.87342 	0.0214797 	-2.98121e-20 9.87853 	0.0212967 	-8.69694e-20 9.87441 	0.0206044 	-1.10096e-19 9.87028 	0.0199118 	-1.33217e-19 9.86614 	0.0192189 	-1.56332e-19 9.85504 	0.0181204 	-1.42378e-19 9.85881 	0.0178683 	-1.6256e-19 9.8542 	0.0171867 	-1.49602e-19 9.84959 	0.0165049 	-1.3664e-19 9.84497 	0.0158227 	-1.23674e-19 9.83435 	0.0148195 	-8.70246e-20 9.83652 	0.0145056 	-7.31185e-20 9.83143 	0.0138401 	-5.38563e-20 9.82633 	0.0131743 	-3.45959e-20 9.82123 	0.0125082 	-1.53374e-20 9.81133 	0.0116031 	2.15421e-21 9.81158 	0.0112219 	0 9.80602 	0.0105678 	0 9.80046 	0.00991339 	0 9.79488 	0.00925871 	0 9.78599 	0.00844692 	0 9.78398 	0.00798416 	-1.72612e-20 9.77796 	0.00733596 	-3.70013e-20 9.77193 	0.00668745 	-5.67431e-20 9.7659 	0.00603863 	-7.64867e-20 9.75837 	0.00532118 	-9.68957e-20 9.75568 	0.0049596 	-1.00915e-19 9.7512 	0.00451548 	-1.01449e-19 9.74672 	0.0040712 	-1.01981e-19 9.74223 	0.00362676 	-1.0251e-19 9.73791 	0.003199 	-1.03016e-19 9.73586 	0.00299631 	-1.03622e-19 9.73379 	0.00279358 	-1.04229e-19 9.73173 	0.00259082 	-1.04836e-19 9.72967 	0.00238802 	-1.05443e-19 9.72562 	0.00209539 	-1.05435e-19 9.72047 	0.0015388 	-7.79481e-20 9.71347 	0.000899796 	-4.76382e-20 9.70646 	0.000260399 	-1.73382e-20 9.69944 	-0.000379391 	1.29518e-20 9.68406 	-0.00138744 	5.21265e-20 9.68432 	-0.00168835 	5.30563e-20 9.67689 	-0.00232214 	5.42436e-20 9.66945 	-0.00295636 	5.54287e-20 9.662 	-0.00359101 	5.66114e-20 9.63997 	-0.00484403 	5.99486e-20 9.6455 	-0.00492004 	4.72501e-20 9.63766 	-0.00554839 	3.4549e-20 9.6298 	-0.00617719 	2.18467e-20 9.62194 	-0.00680647 	9.14309e-21 9.59359 	-0.00825952 	-1.10243e-21 9.6041 	-0.00815401 	-8.61211e-21 9.59587 	-0.00877742 	-2.07373e-20 9.58762 	-0.00940133 	-3.28614e-20 9.57937 	-0.0100257 	-4.49842e-20 9.54519 	-0.011627 	-5.71229e-20 9.56027 	-0.0113906 	-5.7069e-20 9.55168 	-0.0120114 	-6.47468e-20 9.54307 	-0.0126328 	-7.24213e-20 9.53445 	-0.0132547 	-8.00925e-20 9.49506 	-0.0149497 	-9.96372e-20 9.5142 	-0.0146332 	-1.56565e-19 9.50527 	-0.0152515 	-1.46667e-19 9.49633 	-0.0158704 	-1.36784e-19 9.48737 	-0.0164898 	-1.26913e-19 9.44344 	-0.018218 	-4.33506e-20 9.46608 	-0.0178725 	-2.77554e-20 9.45684 	-0.0184879 	-1.94711e-20 9.44758 	-0.019104 	-1.1186e-20 9.43831 	-0.0197206 	-2.90005e-21 9.39057 	-0.0214249 	0 9.41612 	-0.0210995 	0 9.40659 	-0.0217132 	0 9.39705 	-0.0223276 	0 9.38749 	-0.0229426 	0 9.3367 	-0.0245721 	0 9.36455 	-0.0243145 	1.71648e-21 9.35476 	-0.0249282 	9.4241e-21 9.34496 	-0.0255427 	1.71309e-20 9.33514 	-0.0261578 	2.48369e-20 9.28204 	-0.0276636 	4.35293e-20 9.31162 	-0.027523 	1.66945e-19 9.3016 	-0.0281369 	1.69999e-19 9.29156 	-0.0287515 	1.73068e-19 9.28151 	-0.0293669 	1.76153e-19 9.22681 	-0.0306966 	4.37283e-20 9.25757 	-0.0307155 	2.3424e-20 9.24734 	-0.0313282 	1.6528e-20 9.2371 	-0.0319416 	9.63095e-21 9.2245 	-0.0325813 	3.89338e-21 9.1712 	-0.0336638 	1.8299e-20 9.19884 	-0.0339138 	1.09535e-19 9.19223 	-0.0344886 	1.19784e-19 9.1818 	-0.0351 	1.21068e-19 9.16504 	-0.035745 	1.05787e-19 9.11537 	-0.0365613 	4.16676e-21 9.13965 	-0.0370294 	-1.03815e-19 9.13648 	-0.0376081 	-1.35154e-19 9.1259 	-0.0382171 	-1.4584e-19 9.1057 	-0.0388165 	-1.34675e-19 9.05949 	-0.0393883 	-6.43594e-20 9.08062 	-0.0400537 	-1.86593e-19 9.08034 	-0.0406792 	-2.28209e-19 9.06962 	-0.0412857 	-2.30583e-19 9.04663 	-0.0417948 	-1.81654e-19 9.00371 	-0.0421451 	-4.92627e-20 9.02191 	-0.0429867 	-2.60197e-20 9.024 	-0.0436962 	-1.14552e-20 9.01316 	-0.0443 	-3.8502e-21 8.98801 	-0.0446809 	0 8.94817 	-0.0448331 	0 8.96366 	-0.0458299 	0 8.96765 	-0.0466548 	0 8.95672 	-0.0472558 	0 8.92995 	-0.0474772 	2.10803e-21 8.89299 	-0.0474547 	5.5704e-21 8.90599 	-0.0485864 	2.26966e-21 8.91148 	-0.0495519 	0 8.90048 	-0.0501501 	0 8.87257 	-0.0501874 	2.51682e-21 8.83827 	-0.0500128 	5.98357e-21 8.849 	-0.0512599 	2.68235e-21 8.85563 	-0.0523858 	1.29209e-21 8.84458 	-0.0529814 	8.18945e-21 8.81596 	-0.0528159 	2.55856e-20 8.78413 	-0.0525109 	4.49057e-20 8.7928 	-0.0538551 	1.76171e-19 8.80025 	-0.0551555 	2.99781e-19 8.78917 	-0.0557485 	3.03411e-19 8.76021 	-0.0553679 	1.76705e-19 8.73063 	-0.054953 	4.54439e-20 8.73745 	-0.0563774 	2.64034e-20 8.74422 	-0.0578033 	7.36414e-21 8.73291 	-0.0583545 	2.97533e-22 8.70538 	-0.0578493 	3.63137e-21 8.67786 	-0.0573438 	6.96505e-21 8.68302 	-0.0588329 	3.80102e-21 8.68813 	-0.0603234 	6.3784e-22 8.67718 	-0.0608441 	2.24317e-21 8.65153 	-0.0602653 	-1.85788e-21 8.6259 	-0.059686 	-5.95791e-21 8.62957 	-0.0612242 	-5.13776e-20 8.63318 	-0.0627639 	-9.68013e-20 8.62265 	-0.0632546 	-9.82108e-20 8.59871 	-0.0626198 	-5.66585e-20 8.5748 	-0.0619845 	-1.51042e-20 8.57714 	-0.0635647 	8.86424e-20 8.57942 	-0.0651465 	1.92383e-19 8.56934 	-0.0656093 	2.01303e-19 8.54697 	-0.0649296 	1.14892e-19 8.52461 	-0.0642494 	2.84809e-20 8.52578 	-0.0658644 	1.65726e-20 8.52689 	-0.067481 	4.66054e-21 8.51729 	-0.0679167 	5.41659e-22 8.49633 	-0.0672007 	5.38218e-21 8.47538 	-0.0664842 	1.02245e-20 8.47552 	-0.06812 	4.41964e-21 8.47561 	-0.0697575 	-1.39064e-21 8.4665 	-0.0701669 	-2.18125e-20 8.44681 	-0.0694297 	-7.4172e-20 8.42713 	-0.068692 	-1.26534e-19 8.42637 	-0.0703354 	-2.63542e-19 8.42555 	-0.0719805 	-4.00545e-19 8.41696 	-0.0723654 	-3.84696e-19 8.39841 	-0.0716231 	-2.2765e-19 8.37987 	-0.0708802 	-7.06066e-20 8.37832 	-0.07252 	5.91156e-20 8.37668 	-0.0741556 	1.88275e-19 8.36832 	-0.0744869 	1.85758e-19 8.35113 	-0.0737916 	9.46873e-20 8.33363 	-0.0730583 	3.77772e-22 8.33137 	-0.0746898 	-9.32094e-20 8.32823 	-0.0761382 	-1.7485e-19 8.32002 	-0.0764762 	-1.84543e-19 8.30496 	-0.0759521 	-1.19771e-19 8.2884 	-0.0752368 	-3.85238e-20 8.28553 	-0.0768572 	-2.67784e-20 8.28116 	-0.078119 	-1.51355e-20 8.27308 	-0.0784657 	-3.74711e-21 8.25988 	-0.0781165 	1.44492e-20 8.24418 	-0.0774256 	3.5986e-20 8.24075 	-0.0790338 	1.31614e-20 8.2354 	-0.0801127 	-2.56603e-21 8.22746 	-0.0804699 	-8.62583e-21 8.21588 	-0.080296 	-3.39063e-21 8.20095 	-0.0796334 	1.22304e-20 8.19704 	-0.0812284 	-5.086e-21 8.19091 	-0.0821289 	-1.63776e-20 8.1831 	-0.0824976 	-2.30565e-20 8.17291 	-0.0824974 	-3.56223e-20 8.1587 	-0.0818661 	-5.82544e-20 8.15436 	-0.0834472 	5.51651e-20 8.14763 	-0.0841751 	8.97175e-20 8.13994 	-0.0845567 	9.22374e-20 8.13097 	-0.0847283 	7.33506e-20 8.1174 	-0.0841314 	-2.37597e-20 8.11268 	-0.0856994 	7.19836e-20 8.10551 	-0.0862623 	8.84871e-20 8.09792 	-0.0866586 	9.183e-20 8.09001 	-0.0869992 	9.0314e-20 8.07703 	-0.0864394 	1.06509e-20 8.07195 	-0.0879887 	-7.20713e-22 8.06449 	-0.0884009 	-4.88213e-22 8.05701 	-0.0888133 	-2.55736e-22 8.04951 	-0.0892259 	-2.32833e-23 8.03757 	-0.0887985 	1.87187e-20 8.03189 	-0.0901697 	0 8.02453 	-0.0905993 	0 8.01714 	-0.0910291 	0 8.00974 	-0.0914592 	0 7.99898 	-0.0912162 	1.54954e-20 7.99285 	-0.0924174 	0 7.98557 	-0.0928657 	0 7.97827 	-0.0933143 	0 7.97095 	-0.0937631 	0 7.96123 	-0.0937006 	0 7.95476 	-0.0947397 	0 7.94756 	-0.095208 	0 7.94034 	-0.0956765 	0 7.93311 	-0.0961454 	0 7.92428 	-0.0962592 	-8.34008e-21 7.91757 	-0.0971442 	0 7.91045 	-0.0976337 	0 7.9033 	-0.0981234 	0 7.89614 	-0.0986135 	0 7.8881 	-0.0988995 	-9.83661e-21 7.88124 	-0.0996381 	0 7.87418 	-0.10015 	0 7.8671 	-0.100662 	0 7.85999 	-0.101174 	0 7.85264 	-0.101628 	-2.85761e-21 7.84982 	-0.101912 	-3.70461e-21 7.84696 	-0.102131 	-8.12129e-21 7.84409 	-0.10235 	-1.25382e-20 7.84123 	-0.102569 	-1.69553e-20 7.8384 	-0.102784 	-2.12965e-20 7.83412 	-0.103103 	-2.72629e-20 7.82983 	-0.103421 	-3.32288e-20 7.82554 	-0.103739 	-3.91942e-20 7.82123 	-0.104058 	-4.51591e-20 7.81741 	-0.104283 	-5.11281e-20 7.81009 	-0.104928 	-4.93789e-20 7.80293 	-0.10549 	-4.87106e-20 7.79574 	-0.106052 	-4.80394e-20 7.78854 	-0.106614 	-4.73651e-20 7.7826 	-0.106929 	-4.96417e-20 7.77501 	-0.10774 	-3.8755e-20 7.76789 	-0.108327 	-2.78535e-20 7.76074 	-0.108915 	-1.69505e-20 7.75357 	-0.109503 	-6.04593e-21 7.74845 	-0.109695 	0 7.74059 	-0.110668 	-2.60973e-21 7.7335 	-0.111283 	-7.60497e-21 7.72639 	-0.111898 	-1.25994e-20 7.71925 	-0.112513 	-1.7593e-20 7.71492 	-0.112589 	-2.25516e-20 7.70678 	-0.11372 	-5.3475e-20 7.69971 	-0.114362 	-7.40353e-20 7.69262 	-0.115005 	-9.45974e-20 7.6855 	-0.115649 	-1.15161e-19 7.68196 	-0.115616 	-1.05615e-19 7.67353 	-0.116901 	-8.14925e-20 7.66648 	-0.117574 	-6.98896e-20 7.6594 	-0.118247 	-5.82797e-20 7.65229 	-0.11892 	-4.66628e-20 7.6495 	-0.118786 	-7.12421e-20 7.64087 	-0.120182 	-8.58233e-20 7.63373 	-0.120926 	-6.85927e-20 7.62666 	-0.121631 	-4.94192e-20 7.62028 	-0.122202 	-2.76913e-20 7.6175 	-0.122105 	6.89643e-21 7.6089 	-0.123516 	1.14111e-20 7.60144 	-0.124427 	8.67235e-21 7.59437 	-0.125163 	3.40714e-21 7.58877 	-0.125624 	0 7.58592 	-0.12558 	0 7.57733 	-0.127006 	0 7.56955 	-0.12808 	0 7.56247 	-0.12885 	0 7.55763 	-0.129207 	0 7.55469 	-0.129215 	0 7.54612 	-0.130659 	0 7.53801 	-0.131892 	-6.02752e-21 7.53091 	-0.132697 	-2.43866e-20 7.52681 	-0.132955 	-4.28052e-20 7.52378 	-0.133018 	-6.12456e-20 7.51521 	-0.134479 	-4.13156e-20 7.50676 	-0.13587 	-2.08796e-20 7.49963 	-0.13671 	3.40256e-21 7.49625 	-0.136875 	9.00762e-21 7.49313 	-0.136992 	1.32663e-20 7.48455 	-0.138474 	4.69881e-20 7.47591 	-0.139957 	8.07081e-20 7.46912 	-0.140802 	9.73671e-20 7.4659 	-0.140973 	8.19138e-20 7.46267 	-0.141144 	6.64588e-20 7.45408 	-0.142648 	4.1528e-20 7.44543 	-0.144153 	1.65882e-20 7.43905 	-0.145027 	3.26035e-21 7.43572 	-0.145253 	1.29467e-20 7.43238 	-0.145478 	2.2634e-20 7.42376 	-0.147006 	8.82708e-20 7.41509 	-0.148534 	1.53911e-19 7.40911 	-0.14944 	1.54608e-19 7.40565 	-0.149719 	8.96421e-20 7.40218 	-0.149999 	2.4675e-20 7.39354 	-0.151552 	1.58328e-20 7.38483 	-0.153105 	6.99453e-21 7.37922 	-0.154043 	7.14419e-21 7.37564 	-0.154377 	1.65923e-20 7.37204 	-0.154711 	2.60417e-20 7.36335 	-0.156289 	9.01024e-20 7.3546 	-0.157869 	1.54167e-19 7.34939 	-0.158828 	1.53516e-19 7.34563 	-0.159229 	9.15419e-20 7.34188 	-0.159617 	2.81823e-20 7.33315 	-0.161223 	1.96061e-20 7.32506 	-0.162707 	1.1009e-20 7.31982 	-0.163692 	2.31379e-21 7.31557 	-0.164279 	0 7.31167 	-0.164721 	0 7.30288 	-0.166355 	0 7.29552 	-0.167733 	0 7.29016 	-0.16876 	0 7.28542 	-0.169529 	0 7.28136 	-0.170025 	0 7.2725 	-0.171688 	0 7.26585 	-0.172963 	0 7.26035 	-0.174032 	0 7.25512 	-0.174983 	3.72986e-21 7.25088 	-0.175532 	2.01354e-20 7.24195 	-0.177225 	1.98915e-21 7.23598 	-0.1784 	7.92262e-21 7.23034 	-0.179512 	1.68228e-20 7.22466 	-0.180623 	2.57254e-20 7.22019 	-0.181243 	3.88566e-20 7.21161 	-0.182892 	1.16841e-19 7.20586 	-0.184046 	1.21416e-19 7.20007 	-0.185199 	1.25967e-19 7.19424 	-0.186353 	1.30495e-19 7.18924 	-0.187161 	5.6666e-20 7.18136 	-0.188704 	1.21361e-19 7.17545 	-0.1899 	1.08966e-19 7.1695 	-0.191096 	9.6547e-20 7.16351 	-0.192291 	8.41033e-20 7.15798 	-0.193285 	4.03271e-20 7.15077 	-0.194726 	3.62638e-20 7.14469 	-0.195963 	3.6776e-20 7.13857 	-0.197201 	3.72937e-20 7.1324 	-0.198439 	3.7817e-20 7.12635 	-0.199617 	4.32557e-20 7.12333 	-0.200226 	4.49101e-20 7.12066 	-0.200774 	4.37528e-20 7.11798 	-0.201323 	4.25925e-20 7.1153 	-0.201871 	4.1429e-20 7.11268 	-0.202404 	4.02953e-20 7.10895 	-0.203137 	3.9759e-20 7.10521 	-0.203871 	3.92207e-20 7.10146 	-0.204604 	3.86805e-20 7.09769 	-0.205337 	3.81384e-20 7.09458 	-0.205998 	4.02608e-20 7.08761 	-0.20739 	3.74017e-20 7.08097 	-0.20871 	3.06558e-20 7.0743 	-0.210029 	2.39189e-20 7.06757 	-0.211349 	1.7191e-20 7.06268 	-0.212471 	1.46569e-21 7.0548 	-0.214031 	-2.65029e-22 7.04797 	-0.215392 	-1.84234e-22 7.04109 	-0.216752 	-1.0341e-22 7.03416 	-0.218113 	-2.25564e-23 7.03027 	-0.219152 	0 7.02147 	-0.22088 	-2.63186e-21 7.01443 	-0.222281 	-1.6732e-20 7.00734 	-0.223682 	-3.08258e-20 7.00025 	-0.225078 	-4.48639e-20 6.99732 	-0.22604 	-5.50637e-20 6.9879 	-0.227876 	-4.25996e-20 6.9803 	-0.229375 	-2.73979e-20 6.97299 	-0.230815 	-1.17186e-20 6.96694 	-0.232122 	1.42231e-21 6.96378 	-0.23313 	8.93106e-21 6.95413 	-0.234999 	2.42164e-21 6.94555 	-0.23667 	6.48614e-21 6.938 	-0.23815 	2.07641e-20 6.93301 	-0.239366 	3.95865e-20 6.9296 	-0.240419 	6.12419e-20 6.91972 	-0.242321 	3.86418e-20 6.91011 	-0.244163 	1.7085e-20 6.90232 	-0.245681 	1.323e-21 6.89839 	-0.246807 	-2.97322e-21 6.89472 	-0.247903 	-6.38762e-21 6.8846 	-0.249836 	-5.92307e-20 6.87442 	-0.251769 	-1.12075e-19 6.86694 	-0.253301 	-1.15189e-19 6.86305 	-0.254439 	-7.36654e-20 6.85912 	-0.255577 	-3.21427e-20 6.84875 	-0.257541 	-7.43383e-20 6.83831 	-0.259505 	-1.16542e-19 6.83111 	-0.26108 	-1.15486e-19 6.82694 	-0.262258 	-7.12803e-20 6.82273 	-0.263436 	-2.70736e-20 6.81211 	-0.265429 	-7.14787e-20 6.80141 	-0.267422 	-1.1589e-19 6.79447 	-0.26904 	-1.10191e-19 6.79002 	-0.270256 	-6.00782e-20 6.78553 	-0.271473 	-9.96077e-21 6.77464 	-0.273495 	-7.13175e-21 6.76474 	-0.275413 	-4.2419e-21 6.75784 	-0.277035 	-1.17312e-21 6.75226 	-0.278429 	0 6.74747 	-0.279682 	0 6.7363 	-0.281731 	0 6.72758 	-0.283538 	0 6.7204 	-0.28519 	0 6.7136 	-0.286769 	0 6.70852 	-0.288057 	0 6.69706 	-0.290132 	0 6.68953 	-0.291824 	-3.13532e-21 6.68205 	-0.293506 	-6.35667e-21 6.67452 	-0.295188 	-9.5796e-21 6.66862 	-0.296591 	-3.84891e-21 6.65828 	-0.298556 	-4.16087e-20 6.65056 	-0.300266 	-3.82067e-20 6.64278 	-0.301975 	-3.47812e-20 6.63494 	-0.303684 	-3.13322e-20 6.62776 	-0.305276 	-1.02765e-20 6.62085 	-0.306642 	-9.35822e-21 6.61504 	-0.307901 	-2.88247e-21 6.60919 	-0.30916 	3.59402e-21 6.60332 	-0.310419 	1.00713e-20 6.59771 	-0.311613 	1.62184e-20 6.59526 	-0.312101 	1.86036e-20 6.59281 	-0.312589 	2.09887e-20 6.59035 	-0.313077 	2.33736e-20 6.58789 	-0.313565 	2.57584e-20 6.58573 	-0.314016 	2.77371e-20 6.57678 	-0.315814 	2.81983e-20 6.56793 	-0.317569 	2.97065e-20 6.559 	-0.319324 	3.12057e-20 6.55001 	-0.321079 	3.26957e-20 6.54237 	-0.322662 	4.08921e-20 6.53251 	-0.324632 	4.51752e-20 6.5233 	-0.326409 	4.29505e-20 6.51402 	-0.328185 	4.07313e-20 6.50467 	-0.329962 	3.85175e-20 6.49782 	-0.331429 	1.64487e-20 6.48721 	-0.333519 	3.64107e-20 6.47742 	-0.335368 	3.49357e-20 6.46777 	-0.337163 	2.87888e-20 6.45916 	-0.338827 	1.29526e-20 6.45205 	-0.340308 	-1.64822e-20 6.44105 	-0.342411 	-9.18218e-21 6.43027 	-0.344436 	-4.37592e-21 6.42024 	-0.346248 	-6.32275e-21 6.41248 	-0.347787 	-6.03141e-21 6.40501 	-0.349286 	-5.40543e-21 6.39361 	-0.351401 	-3.96604e-21 6.38213 	-0.353515 	-2.5183e-21 6.37229 	-0.355324 	1.82297e-21 6.36451 	-0.356839 	7.21525e-21 6.35667 	-0.358354 	1.26115e-20 6.34487 	-0.360477 	8.26046e-21 6.33299 	-0.3626 	3.91369e-21 6.32337 	-0.364442 	0 6.31522 	-0.36597 	0 6.307 	-0.367498 	0 6.29479 	-0.369627 	0 6.28335 	-0.371661 	0 6.27371 	-0.373484 	0 6.26457 	-0.375167 	0 6.25597 	-0.376705 	0 6.24335 	-0.378838 	0 6.23288 	-0.380722 	3.81761e-21 6.22284 	-0.382548 	8.49894e-21 6.21273 	-0.384374 	1.31834e-20 6.20355 	-0.385962 	1.78836e-20 6.19142 	-0.387994 	1.5706e-20 6.18106 	-0.389822 	1.65869e-20 6.17062 	-0.39165 	1.74744e-20 6.1601 	-0.393477 	1.83683e-20 6.14972 	-0.395254 	1.95955e-20 6.14658 	-0.395767 	1.63562e-20 6.14381 	-0.396238 	1.47957e-20 6.14104 	-0.396709 	1.3236e-20 6.13827 	-0.39718 	1.16773e-20 6.13554 	-0.397642 	1.0147e-20 6.12783 	-0.399002 	5.50381e-21 6.12009 	-0.400362 	8.67465e-22 6.1123 	-0.401722 	-3.76198e-21 6.10447 	-0.403081 	-8.38451e-21 6.09672 	-0.404318 	-1.74379e-20 6.08638 	-0.406287 	-3.11697e-20 6.07563 	-0.408112 	-3.06145e-20 6.06479 	-0.409937 	-3.00805e-20 6.05389 	-0.411761 	-2.9568e-20 6.04317 	-0.413298 	-8.2634e-21 6.03278 	-0.415402 	2.82725e-20 6.02174 	-0.417