# vtk DataFile Version 2.0
track0
ASCII
DATASET POLYDATA
POINTS 12045 float
-0.0205 0.001 1e-05
-0.02052 0.000999985 1e-05
-0.02054 0.000999974 1e-05
-0.02056 0.000999965 1e-05
-0.02058 0.000999959 1e-05
-0.0206 0.000999956 1e-05
-0.0205 0.00367778 1e-05
-0.02052 0.00367778 1e-05
-0.02054 0.00367777 1e-05
-0.02056 0.00367777 1e-05
-0.02058 0.00367777 1e-05
-0.0206 0.00367777 1e-05
-0.0205 0.00635556 1e-05
-0.02052 0.00635555 1e-05
-0.02054 0.00635555 1e-05
-0.02056 0.00635555 1e-05
-0.02058 0.00635555 1e-05
-0.0206 0.00635555 1e-05
-0.0205 0.00903333 1e-05
-0.02052 0.00903333 1e-05
-0.02054 0.00903333 1e-05
-0.02056 0.00903333 1e-05
-0.02058 0.00903333 1e-05
-0.0206 0.00903333 1e-05
-0.0205 0.0117111 1e-05
-0.02052 0.0117111 1e-05
-0.02054 0.0117111 1e-05
-0.02056 0.0117111 1e-05
-0.02058 0.0117111 1e-05
-0.0206 0.0117111 1e-05
-0.0205 0.0143889 1e-05
-0.02052 0.0143889 1e-05
-0.02054 0.0143889 1e-05
-0.02056 0.0143889 1e-05
-0.02058 0.0143889 1e-05
-0.0206 0.0143889 1e-05
-0.0205 0.0170667 1e-05
-0.02052 0.0170667 1e-05
-0.02054 0.0170667 1e-05
-0.02056 0.0170667 1e-05
-0.02058 0.0170667 1e-05
-0.0206 0.0170667 1e-05
-0.0205 0.0197444 1e-05
-0.02052 0.0197444 1e-05
-0.02054 0.0197444 1e-05
-0.02056 0.0197444 1e-05
-0.02058 0.0197444 1e-05
-0.0206 0.0197444 1e-05
-0.0205 0.0224222 1e-05
-0.02052 0.0224222 1e-05
-0.02054 0.0224222 1e-05
-0.02056 0.0224222 1e-05
-0.02058 0.0224222 1e-05
-0.0206 0.0224222 1e-05
-0.0205 0.0251 1e-05
-0.02052 0.0250998 1e-05
-0.02054 0.0250997 1e-05
-0.02056 0.0250995 1e-05
-0.02058 0.0250995 1e-05
-0.0206 0.0250994 1e-05
-0.0205 0.001 1e-05
-0.0202034 0.00100022 1e-05
-0.0199069 0.00100067 1e-05
-0.0196103 0.00100133 1e-05
-0.0193137 0.00100219 1e-05
-0.0190172 0.00100326 1e-05
-0.0187132 0.00100467 1e-05
-0.0184093 0.00100589 1e-05
-0.0181054 0.00100711 1e-05
-0.0178015 0.00100832 1e-05
-0.0174976 0.00100954 1e-05
-0.0172058 0.00101083 1e-05
-0.016914 0.00101193 1e-05
-0.0166222 0.00101303 1e-05
-0.0163305 0.00101413 1e-05
-0.0160387 0.00101523 1e-05
-0.0157586 0.00101637 1e-05
-0.0154784 0.00101745 1e-05
-0.0151983 0.00101856 1e-05
-0.0149182 0.00101971 1e-05
-0.0146381 0.0010209 1e-05
-0.0143745 0.00102209 1e-05
-0.0141109 0.00102327 1e-05
-0.0138473 0.00102449 1e-05
-0.0135837 0.00102574 1e-05
-0.0133611 0.00102682 1e-05
-0.0133476 0.00102688 1e-05
-0.013334 0.00102695 1e-05
-0.0133205 0.00102702 1e-05
-0.013307 0.00102709 1e-05
-0.0132934 0.00102715 1e-05
-0.0130353 0.00102844 1e-05
-0.0127771 0.00102974 1e-05
-0.0125189 0.00103106 1e-05
-0.0122607 0.0010324 1e-05
-0.0120025 0.00103375 1e-05
-0.0117547 0.00103505 1e-05
-0.0115068 0.00103637 1e-05
-0.0112589 0.00103769 1e-05
-0.0110111 0.00103901 1e-05
-0.0107632 0.00104034 1e-05
-0.0105252 0.00104162 1e-05
-0.0102873 0.0010429 1e-05
-0.0100493 0.00104417 1e-05
-0.00981133 0.00104545 1e-05
-0.00957337 0.00104673 1e-05
-0.00934491 0.00104795 1e-05
-0.00911645 0.00104917 1e-05
-0.00888799 0.00105039 1e-05
-0.00865954 0.00105161 1e-05
-0.00843108 0.00105282 1e-05
-0.00821175 0.00105397 1e-05
-0.00799242 0.00105513 1e-05
-0.00777309 0.00105628 1e-05
-0.00755376 0.00105743 1e-05
-0.00733443 0.00105858 1e-05
-0.00712387 0.00105967 1e-05
-0.0069133 0.00106076 1e-05
-0.00670273 0.00106184 1e-05
-0.00649216 0.00106292 1e-05
-0.0062816 0.001064 1e-05
-0.00607944 0.00106502 1e-05
-0.00587729 0.00106605 1e-05
-0.00567514 0.00106707 1e-05
-0.00547298 0.00106809 1e-05
-0.00527083 0.0010691 1e-05
-0.00507675 0.00107006 1e-05
-0.00488267 0.00107102 1e-05
-0.0046886 0.00107198 1e-05
-0.00449452 0.00107294 1e-05
-0.00430044 0.00107389 1e-05
-0.00411412 0.00107479 1e-05
-0.0039278 0.0010757 1e-05
-0.00374147 0.0010766 1e-05
-0.00355515 0.0010775 1e-05
-0.00336883 0.0010784 1e-05
-0.00318995 0.00107925 1e-05
-0.00301107 0.0010801 1e-05
-0.00283219 0.00108095 1e-05
-0.00265331 0.0010818 1e-05
-0.00247443 0.00108264 1e-05
-0.0023027 0.00108345 1e-05
-0.00213097 0.00108426 1e-05
-0.00195924 0.00108506 1e-05
-0.0017875 0.00108587 1e-05
-0.00161577 0.00108667 1e-05
-0.0014509 0.00108743 1e-05
-0.00128603 0.00108819 1e-05
-0.00112116 0.00108896 1e-05
-0.000956289 0.00108972 1e-05
-0.000791418 0.00109049 1e-05
-0.000633135 0.00109122 1e-05
-0.000474851 0.00109195 1e-05
-0.000316567 0.00109268 1e-05
-0.000158284 0.00109342 1e-05
0 0.00109415 1e-05
0.000105677 0.00109463 1e-05
0.000211355 0.00109511 1e-05
0.000317032 0.00109559 1e-05
0.00042271 0.00109607 1e-05
0.000528387 0.00109654 1e-05
0.000634886 0.00109701 1e-05
0.000741385 0.00109748 1e-05
0.000847885 0.00109795 1e-05
0.000954384 0.00109841 1e-05
0.00106088 0.00109887 1e-05
0.00116821 0.00109933 1e-05
0.00127554 0.00109978 1e-05
0.00138286 0.00110023 1e-05
0.00149019 0.00110067 1e-05
0.00159752 0.00110111 1e-05
0.00170568 0.00110154 1e-05
0.00181384 0.00110197 1e-05
0.001922 0.00110239 1e-05
0.00203016 0.0011028 1e-05
0.00213833 0.0011032 1e-05
0.00224733 0.00110359 1e-05
0.00235633 0.00110398 1e-05
0.00246533 0.00110437 1e-05
0.00257434 0.00110474 1e-05
0.00268334 0.0011051 1e-05
0.00279319 0.00110545 1e-05
0.00290304 0.00110581 1e-05
0.00301289 0.00110615 1e-05
0.00312274 0.00110649 1e-05
0.00323259 0.00110681 1e-05
0.00334329 0.00110713 1e-05
0.003454 0.00110744 1e-05
0.0035647 0.00110775 1e-05
0.0036754 0.00110805 1e-05
0.00378611 0.00110834 1e-05
0.00389767 0.00110862 1e-05
0.00400924 0.0011089 1e-05
0.0041208 0.00110917 1e-05
0.00423237 0.00110944 1e-05
0.00434393 0.00110969 1e-05
0.00445636 0.00110994 1e-05
0.00456879 0.00111018 1e-05
0.00468123 0.00111041 1e-05
0.00479366 0.00111064 1e-05
0.00490609 0.00111086 1e-05
0.0050194 0.00111107 1e-05
0.0051327 0.00111127 1e-05
0.00524601 0.00111147 1e-05
0.00535932 0.00111166 1e-05
0.00547262 0.00111184 1e-05
0.00558681 0.00111202 1e-05
0.005701 0.00111218 1e-05
0.00581518 0.00111235 1e-05
0.00592937 0.0011125 1e-05
0.00604356 0.00111264 1e-05
0.00615863 0.00111278 1e-05
0.00627371 0.00111291 1e-05
0.00638878 0.00111304 1e-05
0.00650386 0.00111315 1e-05
0.00661893 0.00111326 1e-05
0.0067349 0.00111336 1e-05
0.00685087 0.00111346 1e-05
0.00696684 0.00111354 1e-05
0.00708281 0.00111362 1e-05
0.00719878 0.00111369 1e-05
0.00727962 0.00111374 1e-05
0.00736046 0.00111378 1e-05
0.0074413 0.00111382 1e-05
0.00752215 0.00111385 1e-05
0.00759993 0.00111388 1e-05
0.00763657 0.00111389 1e-05
0.00767321 0.0011139 1e-05
0.00770985 0.00111391 1e-05
0.00774649 0.00111392 1e-05
0.00778313 0.00111393 1e-05
0.00790091 0.00111396 1e-05
0.00801869 0.00111398 1e-05
0.00813647 0.00111399 1e-05
0.00825425 0.00111399 1e-05
0.00837203 0.00111398 1e-05
0.00849073 0.00111397 1e-05
0.00860942 0.00111395 1e-05
0.00872812 0.00111392 1e-05
0.00884682 0.00111388 1e-05
0.00896551 0.00111384 1e-05
0.00908513 0.00111378 1e-05
0.00920475 0.00111372 1e-05
0.00932437 0.00111365 1e-05
0.00944398 0.00111357 1e-05
0.0095636 0.00111349 1e-05
0.00968415 0.00111338 1e-05
0.0098047 0.00111328 1e-05
0.00992525 0.00111317 1e-05
0.0100458 0.00111305 1e-05
0.0101663 0.00111293 1e-05
0.0102878 0.00111278 1e-05
0.0104093 0.00111263 1e-05
0.0105308 0.00111248 1e-05
0.0106523 0.00111232 1e-05
0.0107738 0.00111215 1e-05
0.0108962 0.00111196 1e-05
0.0110186 0.00111177 1e-05
0.0111411 0.00111157 1e-05
0.0112635 0.00111137 1e-05
0.0113859 0.00111116 1e-05
0.0115093 0.00111092 1e-05
0.0116327 0.00111069 1e-05
0.0117561 0.00111044 1e-05
0.0118795 0.00111019 1e-05
0.0120028 0.00110994 1e-05
0.0121272 0.00110965 1e-05
0.0122515 0.00110937 1e-05
0.0123759 0.00110909 1e-05
0.0125002 0.00110879 1e-05
0.0126245 0.00110849 1e-05
0.0127498 0.00110816 1e-05
0.0128752 0.00110783 1e-05
0.0130005 0.0011075 1e-05
0.0131258 0.00110716 1e-05
0.0132511 0.00110681 1e-05
0.0133774 0.00110643 1e-05
0.0135036 0.00110606 1e-05
0.0136299 0.00110567 1e-05
0.0137562 0.00110528 1e-05
0.0138825 0.00110488 1e-05
0.0140098 0.00110446 1e-05
0.014137 0.00110404 1e-05
0.0142643 0.00110361 1e-05
0.0143915 0.00110317 1e-05
0.0145188 0.00110272 1e-05
0.0146471 0.00110225 1e-05
0.0147753 0.00110177 1e-05
0.0149036 0.00110129 1e-05
0.0150318 0.0011008 1e-05
0.0151601 0.0011003 1e-05
0.0152893 0.00109978 1e-05
0.0154186 0.00109926 1e-05
0.0155478 0.00109873 1e-05
0.0156771 0.00109819 1e-05
0.0158063 0.00109764 1e-05
0.0159366 0.00109707 1e-05
0.0160668 0.00109649 1e-05
0.0161971 0.00109591 1e-05
0.0163274 0.00109532 1e-05
0.0164576 0.00109472 1e-05
0.0165889 0.0010941 1e-05
0.0167201 0.00109348 1e-05
0.0168514 0.00109284 1e-05
0.0169827 0.0010922 1e-05
0.0171139 0.00109154 1e-05
0.0172462 0.00109088 1e-05
0.0173785 0.0010902 1e-05
0.0175108 0.00108952 1e-05
0.0176431 0.00108882 1e-05
0.0177754 0.00108811 1e-05
0.0179087 0.0010874 1e-05
0.018042 0.00108668 1e-05
0.0181753 0.00108593 1e-05
0.0183087 0.00108518 1e-05
0.018442 0.00108443 1e-05
0.0185763 0.00108367 1e-05
0.0187107 0.00108289 1e-05
0.018845 0.0010821 1e-05
0.0189794 0.00108129 1e-05
0.0191137 0.00108049 1e-05
0.0192491 0.00107968 1e-05
0.0193845 0.00107885 1e-05
0.0195199 0.001078 1e-05
0.0196553 0.00107714 1e-05
0.0197907 0.00107628 1e-05
0.0199272 0.00107543 1e-05
0.0200636 0.00107454 1e-05
0.0202001 0.00107364 1e-05
0.0203365 0.00107273 1e-05
0.020473 0.00107182 1e-05
0.0206105 0.00107092 1e-05
0.020748 0.00106998 1e-05
0.0208855 0.00106903 1e-05
0.021023 0.00106806 1e-05
0.0211606 0.00106711 1e-05
0.0212991 0.00106615 1e-05
0.0214377 0.00106516 1e-05
0.0215763 0.00106416 1e-05
0.0217149 0.00106314 1e-05
0.0218535 0.00106213 1e-05
0.0219931 0.00106112 1e-05
0.0221328 0.00106009 1e-05
0.0222724 0.00105903 1e-05
0.0224121 0.00105796 1e-05
0.0225517 0.0010569 1e-05
0.0226925 0.00105584 1e-05
0.0228332 0.00105475 1e-05
0.022974 0.00105363 1e-05
0.0231147 0.00105251 1e-05
0.0232555 0.0010514 1e-05
0.0233973 0.00105029 1e-05
0.0235391 0.00104915 1e-05
0.023681 0.00104798 1e-05
0.0238228 0.0010468 1e-05
0.0239647 0.00104564 1e-05
0.0241076 0.00104447 1e-05
0.0242505 0.00104328 1e-05
0.0243935 0.00104206 1e-05
0.0245364 0.00104083 1e-05
0.0246794 0.00103961 1e-05
0.0248234 0.00103839 1e-05
0.0249675 0.00103714 1e-05
0.0251115 0.00103587 1e-05
0.0252556 0.00103459 1e-05
[...]
POINT_DATA 12045
 FIELD attributes 2
p 1 12045 float
-4.98527 -4.98196 -4.97865 -4.97534 -4.97204 -4.96873
-5.13829 -5.13827 -5.13825 -5.13822 -5.1382 -5.13818
-5.31211 -5.31198 -5.31186 -5.31174 -5.31161 -5.31151
-5.40512 -5.40507 -5.40502 -5.40496 -5.40491 -5.40486
-5.44992 -5.44981 -5.4497 -5.44959 -5.44947 -5.44936
-5.45624 -5.45608 -5.45592 -5.45576 -5.4556 -5.45544
-5.42914 -5.42907 -5.429 -5.42893 -5.42886 -5.42879
-5.35948 -5.35944 -5.3594 -5.35936 -5.35932 -5.35928
-5.2382 -5.23821 -5.23822 -5.23822 -5.23823 -5.23823
-3.02568 -3.04501 -3.0642 -3.08327 -3.10219 -3.12099
-4.98527 -4.9846 -4.98104 -4.97739 -4.97367 -4.96541 -4.97933 -4.99437 -5.0094 -5.02444 -5.04892 -5.07071 -5.10067 -5.13062 -5.16058 -5.19335 -5.20903 -5.23075 -5.25248 -5.2742 -5.29755 -5.31647 -5.3374 -5.35833 -5.37927 -5.39696 -5.39803 -5.3991 -5.40017 -5.40124 -5.40231 -5.424 -5.44569 -5.46738 -5.48907 -5.51049 -5.52928 -5.54788 -5.56649 -5.58509 -5.60313 -5.61879 -5.63417 -5.64955 -5.66494 -5.67977 -5.69359 -5.70716 -5.72073 -5.7343 -5.74742 -5.76018 -5.77268 -5.78517 -5.79767 -5.80974 -5.8216 -5.83315 -5.8447 -5.85626 -5.86738 -5.87841 -5.88916 -5.89991 -5.91067 -5.92106 -5.93146 -5.94159 -5.95172 -5.96185 -5.97166 -5.98155 -5.99125 -6.00095 -6.01064 -6.02013 -6.0297 -6.03898 -6.04827 -6.05755 -6.06662 -6.07596 -6.08542 -6.09489 -6.10435 -6.11397 -6.12382 -6.13339 -6.14296 -6.15253 -6.16196 -6.17196 -6.18289 -6.19382 -6.20475 -6.21597 -6.2262 -6.23733 -6.24845 -6.25958 -6.27027 -6.27997 -6.28923 -6.29849 -6.30774 -6.31614 -6.3235 -6.33182 -6.34013 -6.34845 -6.35747 -6.36569 -6.37431 -6.38294 -6.39156 -6.40029 -6.40849 -6.41568 -6.42287 -6.43006 -6.43637 -6.44316 -6.44865 -6.45414 -6.45963 -6.46405 -6.46974 -6.47438 -6.47902 -6.48366 -6.48735 -6.49226 -6.49626 -6.50027 -6.50428 -6.50748 -6.51142 -6.51462 -6.51781 -6.52101 -6.52361 -6.52655 -6.52895 -6.53135 -6.53375 -6.53578 -6.538 -6.53988 -6.54175 -6.54362 -6.54531 -6.54718 -6.54885 -6.55051 -6.55217 -6.55374 -6.55543 -6.55699 -6.55856 -6.56013 -6.56166 -6.56273 -6.56375 -6.56478 -6.5658 -6.56678 -6.56725 -6.56771 -6.56818 -6.56864 -6.56914 -6.57052 -6.57195 -6.57338 -6.5748 -6.57642 -6.57763 -6.57906 -6.58048 -6.58191 -6.58375 -6.58476 -6.58624 -6.58771 -6.58918 -6.59137 -6.59218 -6.59376 -6.59535 -6.59693 -6.59959 -6.60022 -6.60193 -6.60365 -6.60536 -6.60849 -6.6089 -6.61071 -6.61252 -6.61432 -6.6179 -6.6181 -6.62002 -6.62193 -6.62384 -6.62787 -6.62794 -6.62999 -6.63204 -6.63409 -6.63855 -6.63853 -6.64072 -6.64291 -6.6451 -6.64992 -6.64984 -6.65217 -6.6545 -6.65682 -6.66196 -6.66188 -6.66434 -6.66681 -6.66942 -6.67467 -6.67489 -6.67725 -6.67986 -6.68289 -6.68808 -6.68864 -6.69092 -6.69367 -6.69707 -6.70219 -6.7031 -6.70534 -6.70824 -6.71195 -6.71699 -6.71825 -6.7205 -6.72354 -6.72752 -6.73248 -6.73409 -6.73638 -6.73956 -6.74377 -6.74864 -6.75058 -6.75295 -6.75626 -6.76066 -6.76546 -6.76771 -6.77019 -6.77364 -6.77818 -6.78292 -6.78547 -6.78808 -6.79166 -6.79631 -6.801 -6.80382 -6.80665 -6.81038 -6.81503 -6.81969 -6.82276 -6.82584 -6.82969 -6.83433 -6.83897 -6.8423 -6.84562 -6.8496 -6.85423 -6.85887 -6.86243 -6.866 -6.87009 -6.87471 -6.87933 -6.88311 -6.8869 -6.89108 -6.89567 -6.90026 -6.90422 -6.90819 -6.91245 -6.91702 -6.92159 -6.92569 -6.92979 -6.93413 -6.9387 -6.94328 -6.94749 -6.9517 -6.95612 -6.96071 -6.96532 -6.96962 -6.97395 -6.97843 -6.98304 -6.98768 -6.99206 -6.99649 -7.00103 -7.00567 -7.01035 -7.01479 -7.0193 -7.0239 -7.02855 -7.03327 -7.03776 -7.04233 -7.04697 -7.05165 -7.0564 -7.06092 -7.06555 -7.07022 -7.07491 -7.07969 -7.08423 -7.0889 -7.0936 -7.09829 -7.10308 -7.10765 -7.11235 -7.11705 -7.12175 -7.12654 -7.13112 -7.13582 -7.14052 -7.14522 -7.14999 -7.15458 -7.15927 -7.16396 -7.16864 -7.17338 -7.17797 -7.18263 -7.18729 -7.19195 -7.19665 -7.20122 -7.20584 -7.21046 -7.21508 -7.21972 -7.22425 -7.22882 -7.23338 -7.23795 -7.24252 -7.24434 -7.24618 -7.24802 -7.24986 -7.25166 -7.25433 -7.25699 -7.25966 -7.26232 -7.265 -7.26941 -7.27382 -7.27823 -7.28264 -7.28707 -7.29139 -7.2957 -7.30001 -7.30432 -7.30865 -7.31286 -7.31706 -7.32126 -7.32546 -7.32967 -7.33376 -7.33783 -7.34189 -7.34595 -7.35002 -7.35397 -7.35787 -7.36177 -7.36567 -7.36956 -7.37336 -7.37708 -7.38079 -7.38451 -7.3882 -7.39182 -7.39537 -7.39889 -7.40239 -7.40587 -7.40929 -7.41264 -7.41594 -7.41921 -7.42244 -7.42564 -7.42878 -7.43183 -7.43482 -7.43779 -7.44073 -7.44365 -7.44642 -7.4491 -7.45177 -7.45443 -7.45709 -7.45956 -7.46192 -7.46427 -7.46662 -7.46897 -7.47113 -7.47313 -7.47514 -7.47715 -7.47917 -7.481 -7.48262 -7.48424 -7.48589 -7.48755 -7.48901 -7.49023 -7.49145 -7.49271 -7.49397 -7.49504 -7.49583 -7.49662 -7.49745 -7.49825 -7.49887 -7.49927 -7.49959 -7.49998 -7.50027 -7.50041 -7.5004 -7.50023 -7.50013 -7.49986 -7.49951 -7.49907 -7.49837 -7.49776 -7.49689 -7.496 -7.4951 -7.49386 -7.49266 -7.49119 -7.48973 -7.48826 -7.48654 -7.48467 -7.4826 -7.48053 -7.47847 -7.47624 -7.47366 -7.47096 -7.46825 -7.46555 -7.4628 -7.4614 -7.45995 -7.4585 -7.45706 -7.45565 -7.45375 -7.45185 -7.44994 -7.44804 -7.44608 -7.44214 -7.43811 -7.4341 -7.43008 -7.42587 -7.42136 -7.41661 -7.41186 -7.40711 -7.40202 -7.39692 -7.39141 -7.38589 -7.38038 -7.37436 -7.36858 -7.36235 -7.35604 -7.34957 -7.34272 -7.33614 -7.32927 -7.32213 -7.31465 -7.30695 -7.29952 -7.29201 -7.28401 -7.27547 -7.26688 -7.25857 -7.25027 -7.24136 -7.23185 -7.22235 -7.21313 -7.20392 -7.1941 -7.18365 -7.17319 -7.16304 -7.1529 -7.14213 -7.1307 -7.11927 -7.10815 -7.09685 -7.08505 -7.07285 -7.06041 -7.0483 -7.03574 -7.0229 -7.00995 -6.99648 -6.98333 -6.96946 -6.95557 -6.94169 -6.9273 -6.91283 -6.89786 -6.88289 -6.86793 -6.85276 -6.84131 -6.82965 -6.81798 -6.80633 -6.79527 -6.79078 -6.78629 -6.7818 -6.77732 -6.77275 -6.75577 -6.73871 -6.72166 -6.70462 -6.68722 -6.66938 -6.65118 -6.63299 -6.6148 -6.59593 -6.57713 -6.55787 -6.53851 -6.51886 -6.49878 -6.4788 -6.45868 -6.43814 -6.41695 -6.39566 -6.37449 -6.35332 -6.3315 -6.30899 -6.28648 -6.26409 -6.24172 -6.21864 -6.19489 -6.17115 -6.14754 -6.12368 -6.09927 -6.07458 -6.04959 -6.02474 -5.99922 -5.97355 -5.9479 -5.92174 -5.89536 -5.86842 -5.84149 -5.81457 -5.78755 -5.7804 -5.77312 -5.76585 -5.75858 -5.75143 -5.73055 -5.70966 -5.68879 -5.66791 -5.6468 -5.6176 -5.58822 -5.55885 -5.52949 -5.49957 -5.46928 -5.43869 -5.40806 -5.37714 -5.34588 -5.31432 -5.28273 -5.25081 -5.21828 -5.18576 -5.15292 -5.1201 -5.08678 -5.05299 -5.0192 -4.9851 -4.95089 -4.91619 -4.88129 -4.84626 -4.81091 -4.77507 -4.73912 -4.70318 -4.66698 -4.63232 -4.59731 -4.5623 -4.52731 -4.4944 -4.49181 -4.48922 -4.48663 -4.48405 -4.48143 -4.44314 -4.40485 -4.36657 -4.32829 -4.28956 -4.25036 -4.21088 -4.17141 -4.13175 -4.09162 -4.05127 -4.01086 -3.97023 -3.92899 -3.88771 -3.84621 -3.80472 -3.76276 -3.72038 -3.67798 -3.63537 -3.59258 -3.54937 -3.50607 -3.4626 -3.4189 -3.37463 -3.33036 -3.2861 -3.24173 -3.22257 -3.20324 -3.18391 -3.16458 -3.14574 -3.11972 -3.09371 -3.0677 -3.04169 -3.01542 -2.96934 -2.92315 -2.87696 -2.83072 -2.78392 -2.73698 -2.68997 -2.64285 -2.59526 -2.54756 -2.4997 -2.45186 -2.40364 -2.35512 -2.30657 -2.25786 -2.20898 -2.15979 -2.11057 -2.06124 -2.01168 -1.96172 -1.91176 -1.86182 -1.81185 -1.80588 -1.79986 -1.79385 -1.78784 -1.78186 -1.73723 -1.69262 -1.648 -1.6034 -1.55846 -1.50725 -1.45599 -1.40473 -1.35328 -1.30158 -1.24976 -1.19795 -1.14602 -1.09382 -1.04159 -0.989228 -0.936839 -0.88416 -0.831493 -0.778801 -0.72596 -0.672843 -0.619719 -0.566605 -0.513471 -0.500786 -0.488045 -0.475304 -0.462564 -0.449973 -0.409132 -0.368296 -0.327467 -0.286643 -0.245598 -0.191641 -0.137725 -0.0838183 -0.0297836 0.0244211 0.0787193 0.133007 0.187313 0.24173 0.296179 0.350734 0.405321 0.460029 0.514693 0.56932 0.620867 0.672525 0.724175 0.775818 0.825309 0.828962 0.832614 0.836267 0.83992 0.843584 0.898658 0.953713 1.00876 1.0638 1.11902 1.17429 1.22948 1.2846 1.33981 1.39507 1.45038 1.50568 1.56102 1.61622 1.67146 1.72676 1.78207 1.83738 1.89269 1.94794 1.96483 1.98171 1.99859 2.01547 2.03214 2.07061 2.10908 2.14754 2.18599 2.22449 2.27989 2.3351 2.3903 2.44548 2.50071 2.55594 2.61116 2.66628 2.72124 2.77624 2.83125 2.88622 2.94114 2.99606 3.05085 3.07399 3.09709 3.12018 3.14327 3.16602 3.19774 3.22945 3.26116 3.29287 3.32455 3.37927 3.43375 3.48823 3.54265 3.59706 3.65144 3.70582 3.76002 3.814 3.86801 3.92201 3.97591 4.02973 4.08355 4.13724 4.15518 4.17305 4.19091 4.20878 4.22647 4.26216 4.29786 4.33355 4.36923 4.40483 4.45823 4.5114 4.56453 4.61751 4.67047 4.72339 4.77631 4.82904 4.88145 4.9339 4.98632 5.03853 5.09069 5.14285 5.195 5.1993 5.20358 5.20785 5.21212 5.21639 5.26396 5.31152 5.35908 5.40663 5.454 5.50557 5.55705 5.60834 5.65938 5.71045 5.76145 5.81241 5.86313 5.91375 5.96423 5.99948 6.03454 6.06959 6.10463 6.13921 6.15446 6.16971 6.18496 6.2002 6.21538 6.26529 6.31505 6.36481 6.41445 6.46397 6.51337 6.56277 6.6119 6.66075 6.70963 6.75841 6.80699 6.85546 6.90393 6.95231 6.96231 6.97224 6.98217 6.9921 7.002 7.04012 7.07824 7.11636 7.15444 7.19231 7.24001 7.28764 7.33506 7.38217 7.42929 7.47633 7.52329 7.56998 7.61665 7.6631 7.68569 7.70813 7.73055 7.75296 7.77534 7.79909 7.82285 7.84661 7.87033 7.89391 7.93977 7.98543 8.03105 8.07639 8.12165 8.16682 8.212 8.2568 8.30148 8.34604 8.37566 8.40508 8.43445 8.46382 8.49333 8.50813 8.52293 8.53774 8.55251 8.56719 8.61106 8.65475 8.69844 8.74191 8.78521 8.82841 8.87161 8.9145 8.95713 8.9997 9.03384 9.06773 9.10156 9.13539 9.16976 9.17797 9.18618 9.19439 9.20258 9.21072 9.25247 9.29412 9.33578 9.37727 9.41853 9.45965 9.50077 9.5416 9.58214 9.62264 9.66157 9.70021 9.73877 9.77734 9.81718 9.81835 9.81952 9.82069 9.82186 9.82302 9.86255 9.90207 9.94159 9.98103 10.0202 10.0591 10.098 10.1367 10.1751 10.2134 10.2515 10.2895 10.3273 10.365 10.4027 10.4115 10.4203 10.429 10.4378 10.4466 10.4751 10.5035 10.5319 10.5603 10.5884 10.625 10.6616 10.698 10.7341 10.7701 10.8059 10.8417 10.8771 10.9125 10.9477 10.9724 10.9969 11.0214 11.0459 11.0717 11.0816 11.0915 11.1014 11.1112 11.1211 11.1552 11.1891 11.2231 11.257 11.2906 11.3239 11.3572 11.3902 11.4229 11.4556 11.4879 11.5202 11.5523 11.5845 11.6162 11.6356 11.6546 11.6736 11.6925 11.7132 11.7248 11.7364 11.7481 11.7597 11.7712 11.8016 11.8322 11.8628 11.8936 11.9253 11.9566 11.9873 12.013 12.0332 12.0533 12.0727 12.0921 12.1222 12.1611 12.2003 12.2373 12.26 12.2777 12.2953 12.3158 12.3162 12.3166 12.317 12.3174 12.3175 12.3283 12.3391 12.3499 12.362 12.3782 12.3936 12.409 12.4238 12.438 12.4521 12.4653 12.4772 12.488 12.4988 12.5086 12.5108 12.5125 12.5141 12.5158 12.5175 12.523 12.5284 12.5338 12.5391 12.5432 12.5474 12.5507 12.5534 12.5545 12.5554 12.5545 12.5536 12.5507 12.5462 12.5414 12.5348 12.5258 12.5165 12.5072 12.4974 12.4955 12.4931 12.4908 12.4885 12.4861 12.4735 12.4609 12.4482 12.4354 12.4207 12.4003 12.3782 12.3555 12.3308 12.3051 12.2763 12.2473 12.2154 12.1804 12.1453 12.1068 12.0669 12.0245 11.9813 11.9359 11.8863 11.8327 11.7791 11.7254 11.671 11.6578 11.644 11.6301 11.6162 11.6015 11.5508 11.5 11.4492 11.3983 11.3449 11.2697 11.1913 11.1127 11.033 10.949 10.8597 10.7685 10.6744 10.5755 10.4755 10.3699 10.2642 10.1516 10.0325 9.91323 9.78777 9.66224 9.53047 9.39355 9.25612 9.11196 8.96211 8.80584 8.64665 8.48034 8.30636 8.12974 7.95294 7.7761 7.59746 7.39843 7.1814 6.96442 6.74748 6.52507 6.41866 6.3171 6.21554 6.11396 6.00256 5.87793 5.7533 5.62867 5.50405 5.38415 5.09745 4.78593 4.47397 4.16158 3.78273 3.39358 3.12465 2.85499 2.58465 2.49336 2.40868 2.02286 1.58399 0.914691 0