# vtk DataFile Version 2.0
track0
ASCII
DATASET POLYDATA
POINTS 12070 float
-0.0205 0.001 1e-05
-0.02052 0.000999985 1e-05
-0.02054 0.000999974 1e-05
-0.02056 0.000999965 1e-05
-0.02058 0.000999959 1e-05
-0.0206 0.000999956 1e-05
-0.0205 0.00367778 1e-05
-0.02052 0.00367778 1e-05
-0.02054 0.00367777 1e-05
-0.02056 0.00367777 1e-05
-0.02058 0.00367777 1e-05
-0.0206 0.00367777 1e-05
-0.0205 0.00635556 1e-05
-0.02052 0.00635555 1e-05
-0.02054 0.00635555 1e-05
-0.02056 0.00635555 1e-05
-0.02058 0.00635555 1e-05
-0.0206 0.00635555 1e-05
-0.0205 0.00903333 1e-05
-0.02052 0.00903333 1e-05
-0.02054 0.00903333 1e-05
-0.02056 0.00903333 1e-05
-0.02058 0.00903333 1e-05
-0.0206 0.00903333 1e-05
-0.0205 0.0117111 1e-05
-0.02052 0.0117111 1e-05
-0.02054 0.0117111 1e-05
-0.02056 0.0117111 1e-05
-0.02058 0.0117111 1e-05
-0.0206 0.0117111 1e-05
-0.0205 0.0143889 1e-05
-0.02052 0.0143889 1e-05
-0.02054 0.0143889 1e-05
-0.02056 0.0143889 1e-05
-0.02058 0.0143889 1e-05
-0.0206 0.0143889 1e-05
-0.0205 0.0170667 1e-05
-0.02052 0.0170667 1e-05
-0.02054 0.0170667 1e-05
-0.02056 0.0170667 1e-05
-0.02058 0.0170667 1e-05
-0.0206 0.0170667 1e-05
-0.0205 0.0197444 1e-05
-0.02052 0.0197444 1e-05
-0.02054 0.0197444 1e-05
-0.02056 0.0197444 1e-05
-0.02058 0.0197444 1e-05
-0.0206 0.0197444 1e-05
-0.0205 0.0224222 1e-05
-0.02052 0.0224222 1e-05
-0.02054 0.0224222 1e-05
-0.02056 0.0224222 1e-05
-0.02058 0.0224222 1e-05
-0.0206 0.0224222 1e-05
-0.0205 0.0251 1e-05
-0.02052 0.0250998 1e-05
-0.02054 0.0250997 1e-05
-0.02056 0.0250995 1e-05
-0.02058 0.0250995 1e-05
-0.0206 0.0250994 1e-05
-0.0205 0.001 1e-05
-0.0202034 0.00100022 1e-05
-0.0199069 0.00100067 1e-05
-0.0196103 0.00100133 1e-05
-0.0193137 0.0010022 1e-05
-0.0190172 0.00100327 1e-05
-0.0187132 0.00100468 1e-05
-0.0184093 0.00100591 1e-05
-0.0181054 0.00100714 1e-05
-0.0178015 0.00100837 1e-05
-0.0174976 0.0010096 1e-05
-0.0172058 0.0010109 1e-05
-0.016914 0.00101202 1e-05
-0.0166222 0.00101314 1e-05
-0.0163305 0.00101425 1e-05
-0.0160387 0.00101537 1e-05
-0.0157586 0.00101653 1e-05
-0.0154784 0.00101763 1e-05
-0.0151983 0.00101877 1e-05
-0.0149182 0.00101995 1e-05
-0.0146381 0.00102117 1e-05
-0.0143922 0.0010223 1e-05
-0.0141462 0.00102343 1e-05
-0.0139003 0.0010246 1e-05
-0.0136544 0.00102579 1e-05
-0.0134465 0.00102682 1e-05
-0.0134159 0.00102697 1e-05
-0.0133853 0.00102713 1e-05
-0.0133547 0.00102728 1e-05
-0.0133241 0.00102744 1e-05
-0.0132934 0.0010276 1e-05
-0.0130353 0.00102892 1e-05
-0.0127771 0.00103027 1e-05
-0.0125189 0.00103163 1e-05
-0.0122607 0.00103301 1e-05
-0.0120025 0.00103441 1e-05
-0.0117547 0.00103576 1e-05
-0.0115068 0.00103713 1e-05
-0.0112589 0.0010385 1e-05
-0.0110111 0.00103989 1e-05
-0.0107632 0.00104128 1e-05
-0.0105252 0.00104261 1e-05
-0.0102873 0.00104395 1e-05
-0.0100493 0.0010453 1e-05
-0.00981133 0.00104664 1e-05
-0.00957337 0.001048 1e-05
-0.00934491 0.00104929 1e-05
-0.00911645 0.00105059 1e-05
-0.00888799 0.00105189 1e-05
-0.00865954 0.00105319 1e-05
-0.00843108 0.00105449 1e-05
-0.00821175 0.00105573 1e-05
-0.00799242 0.00105698 1e-05
-0.00777309 0.00105823 1e-05
-0.00755376 0.00105948 1e-05
-0.00733443 0.00106072 1e-05
-0.00712387 0.00106192 1e-05
-0.0069133 0.00106312 1e-05
-0.00670273 0.00106432 1e-05
-0.00649217 0.00106552 1e-05
-0.0062816 0.00106672 1e-05
-0.00607944 0.00106787 1e-05
-0.00587729 0.00106903 1e-05
-0.00567514 0.00107019 1e-05
-0.00547298 0.00107135 1e-05
-0.00527083 0.00107252 1e-05
-0.00507675 0.00107363 1e-05
-0.00488267 0.00107476 1e-05
-0.0046886 0.00107589 1e-05
-0.00449452 0.00107703 1e-05
-0.00430044 0.00107817 1e-05
-0.00411412 0.00107926 1e-05
-0.0039278 0.00108037 1e-05
-0.00374147 0.00108149 1e-05
-0.00355515 0.00108261 1e-05
-0.00336883 0.00108374 1e-05
-0.00318995 0.00108484 1e-05
-0.00301107 0.00108595 1e-05
-0.00283219 0.00108707 1e-05
-0.00265331 0.00108821 1e-05
-0.00247443 0.00108936 1e-05
-0.0023027 0.00109048 1e-05
-0.00213097 0.00109163 1e-05
-0.00195924 0.0010928 1e-05
-0.00178751 0.00109399 1e-05
-0.00161577 0.0010952 1e-05
-0.0014509 0.00109638 1e-05
-0.00128603 0.0010976 1e-05
-0.00112116 0.00109885 1e-05
-0.000956291 0.00110015 1e-05
-0.000791418 0.0011015 1e-05
-0.000633135 0.00110283 1e-05
-0.000474852 0.00110421 1e-05
-0.000316569 0.00110565 1e-05
-0.000158287 0.00110714 1e-05
0 0.00110869 1e-05
0.000105677 0.00110975 1e-05
0.000211355 0.00111084 1e-05
0.000317032 0.00111195 1e-05
0.000422708 0.00111308 1e-05
0.000528387 0.00111423 1e-05
0.000634886 0.0011154 1e-05
0.000741385 0.00111658 1e-05
0.000847884 0.00111776 1e-05
0.000954383 0.00111895 1e-05
0.00106088 0.00112014 1e-05
0.00116821 0.00112134 1e-05
0.00127554 0.00112255 1e-05
0.00138286 0.00112376 1e-05
0.00149019 0.00112496 1e-05
0.00159752 0.00112617 1e-05
0.00170568 0.00112738 1e-05
0.00181384 0.0011286 1e-05
0.001922 0.00112982 1e-05
0.00203016 0.00113103 1e-05
0.00213833 0.00113225 1e-05
0.00224733 0.00113347 1e-05
0.00235633 0.00113471 1e-05
0.00246533 0.00113594 1e-05
0.00257433 0.00113718 1e-05
0.00268334 0.00113841 1e-05
0.00279319 0.00113966 1e-05
0.00290304 0.00114091 1e-05
0.00301289 0.00114217 1e-05
0.00312274 0.00114344 1e-05
0.00323259 0.0011447 1e-05
0.00334329 0.00114598 1e-05
0.00345399 0.00114727 1e-05
0.0035647 0.00114857 1e-05
0.0036754 0.00114987 1e-05
0.00378611 0.00115118 1e-05
0.00389767 0.0011525 1e-05
0.00400924 0.00115385 1e-05
0.0041208 0.0011552 1e-05
0.00423236 0.00115657 1e-05
0.00434393 0.00115794 1e-05
0.00445636 0.00115933 1e-05
0.00456879 0.00116075 1e-05
0.00468123 0.00116217 1e-05
0.00479366 0.00116362 1e-05
0.00490609 0.00116507 1e-05
0.0050194 0.00116654 1e-05
0.0051327 0.00116804 1e-05
0.00524601 0.00116956 1e-05
0.00535931 0.00117109 1e-05
0.00547262 0.00117264 1e-05
0.00558681 0.00117419 1e-05
0.00570099 0.00117579 1e-05
0.00581518 0.00117741 1e-05
0.00592937 0.00117904 1e-05
0.00604356 0.00118069 1e-05
0.00615863 0.00118234 1e-05
0.00627371 0.00118404 1e-05
0.00638878 0.00118576 1e-05
0.00650385 0.0011875 1e-05
0.00661893 0.00118926 1e-05
0.0067349 0.00119101 1e-05
0.00685087 0.00119283 1e-05
0.00696684 0.00119466 1e-05
0.00708281 0.00119651 1e-05
0.00719878 0.00119837 1e-05
0.00731565 0.00120024 1e-05
0.00743252 0.00120217 1e-05
0.00754939 0.00120411 1e-05
0.00766626 0.00120608 1e-05
0.00778313 0.00120806 1e-05
0.00790091 0.00121004 1e-05
0.00801869 0.00121208 1e-05
0.00813647 0.00121414 1e-05
0.00825425 0.00121622 1e-05
0.00837203 0.00121832 1e-05
0.00849073 0.00122041 1e-05
0.00860942 0.00122257 1e-05
0.00872812 0.00122475 1e-05
0.00884681 0.00122695 1e-05
0.00896551 0.00122916 1e-05
0.00908513 0.00123136 1e-05
0.00920475 0.00123363 1e-05
0.00932436 0.00123593 1e-05
0.00944398 0.00123825 1e-05
0.0095636 0.00124057 1e-05
0.00968415 0.00124289 1e-05
0.0098047 0.00124527 1e-05
0.00992524 0.00124768 1e-05
0.0100458 0.00125011 1e-05
0.0101663 0.00125254 1e-05
0.0102878 0.00125497 1e-05
0.0104093 0.00125746 1e-05
0.0105308 0.00125998 1e-05
0.0106523 0.00126252 1e-05
0.0107738 0.00126507 1e-05
0.0108962 0.0012676 1e-05
0.0110186 0.0012702 1e-05
0.0111411 0.00127283 1e-05
0.0112635 0.00127548 1e-05
0.0113859 0.00127812 1e-05
0.0115093 0.00128076 1e-05
0.0116327 0.00128346 1e-05
0.0117561 0.00128619 1e-05
0.0118794 0.00128894 1e-05
0.0120028 0.00129169 1e-05
0.0121272 0.00129443 1e-05
0.0122515 0.00129723 1e-05
0.0123759 0.00130006 1e-05
0.0125002 0.0013029 1e-05
0.0126245 0.00130574 1e-05
0.0127498 0.00130859 1e-05
0.0128752 0.00131147 1e-05
0.0130005 0.00131439 1e-05
0.0131258 0.00131733 1e-05
0.0132511 0.00132026 1e-05
0.0133774 0.00132319 1e-05
0.0135036 0.00132617 1e-05
0.0136299 0.00132917 1e-05
0.0137562 0.00133219 1e-05
0.0138825 0.0013352 1e-05
0.0140098 0.00133823 1e-05
0.014137 0.00134128 1e-05
0.0142643 0.00134437 1e-05
0.0143915 0.00134746 1e-05
0.0145188 0.00135055 1e-05
0.0146471 0.00135367 1e-05
0.0147753 0.0013568 1e-05
0.0149036 0.00135995 1e-05
0.0150318 0.00136312 1e-05
0.0151601 0.00136629 1e-05
0.0152893 0.00136948 1e-05
0.0154186 0.00137269 1e-05
0.0155478 0.00137591 1e-05
0.0156771 0.00137914 1e-05
0.0158063 0.00138238 1e-05
0.0159366 0.00138564 1e-05
0.0160668 0.00138892 1e-05
0.0161971 0.0013922 1e-05
0.0163273 0.00139549 1e-05
0.0164576 0.0013988 1e-05
0.0165889 0.00140213 1e-05
0.0167201 0.00140547 1e-05
0.0168514 0.00140881 1e-05
0.0169827 0.00141216 1e-05
0.0171139 0.00141552 1e-05
0.0172462 0.00141893 1e-05
0.0173785 0.00142233 1e-05
0.0175108 0.00142572 1e-05
0.0176431 0.00142912 1e-05
0.0177754 0.00143254 1e-05
0.0179087 0.001436 1e-05
0.018042 0.00143945 1e-05
0.0181753 0.0014429 1e-05
0.0183087 0.00144634 1e-05
0.018442 0.00144981 1e-05
0.0185763 0.00145333 1e-05
0.0187107 0.00145683 1e-05
0.018845 0.00146031 1e-05
0.0189794 0.0014638 1e-05
0.0191137 0.00146732 1e-05
0.0192491 0.00147087 1e-05
0.0193845 0.00147442 1e-05
0.0195199 0.00147794 1e-05
0.0196553 0.00148147 1e-05
0.0197907 0.00148501 1e-05
0.0199272 0.00148861 1e-05
0.0200636 0.00149218 1e-05
0.0202001 0.00149574 1e-05
0.0203365 0.00149929 1e-05
0.020473 0.00150286 1e-05
0.0206105 0.00150649 1e-05
0.020748 0.00151009 1e-05
0.0208855 0.00151367 1e-05
0.021023 0.00151724 1e-05
0.0211606 0.00152084 1e-05
0.0212991 0.00152448 1e-05
0.0214377 0.0015281 1e-05
0.0215763 0.00153169 1e-05
0.0217149 0.00153528 1e-05
0.0218535 0.00153889 1e-05
0.0219931 0.00154255 1e-05
0.0221328 0.00154618 1e-05
0.0222724 0.00154978 1e-05
0.0224121 0.00155337 1e-05
0.0225517 0.00155699 1e-05
0.0226925 0.00156065 1e-05
0.0228332 0.00156428 1e-05
0.022974 0.00156788 1e-05
0.0231147 0.00157147 1e-05
0.0232555 0.00157508 1e-05
0.0233973 0.00157874 1e-05
0.0235391 0.00158236 1e-05
0.023681 0.00158595 1e-05
0.0238228 0.00158954 1e-05
0.0239647 0.00159313 1e-05
0.0241076 0.00159677 1e-05
0.0242505 0.00160038 1e-05
0.0243935 0.00160396 1e-05
0.0245364 0.00160753 1e-05
0.0246794 0.0016111 1e-05
0.0248234 0.00161471 1e-05
0.0249675 0.0016183 1e-05
0.0251115 0.00162184 1e-05
0.0252556 0.00162538 1e-05
0.0253996 0.00162892 1e-05
0.0255448 0.00163249 1e-05
0.02569 0.00163604 1e-05
0.0258351 0.00163955 1e-05
0.0259803 0.00164304 1e-05
[...]
POINT_DATA 12070
 FIELD attributes 1
U 3 12070 float
10.0004 	0.00733126 	0 10.0004 	0.00586501 	0 10.0003 	0.00439876 	0 10.0002 	0.0029325 	0 10.0001 	0.00146625 	0 10 	0 	0
10 	0.000930128 	0 10 	0.000744102 	0 10 	0.000558077 	0 10 	0.000372051 	0 10 	0.000186026 	0 10 	0 	0
10.0001 	0.000543462 	0 10.0001 	0.000434654 	0 10 	0.000325845 	0 10 	0.000217037 	0 10 	0.000108228 	0 10 	0 	0
10 	0.000371529 	0 10 	0.000297223 	0 10 	0.000222917 	0 10 	0.000148612 	0 10 	7.43058e-05 	0 10 	0 	0
10 	0.000194352 	0 10 	0.000155481 	0 10 	0.000116611 	0 10 	7.77406e-05 	0 10 	3.88703e-05 	0 10 	0 	0
10 	8.29483e-05 	0 10 	6.63586e-05 	0 10 	4.9769e-05 	0 10 	3.31793e-05 	0 10 	1.65897e-05 	0 10 	0 	0
10 	-0.000130416 	0 10 	-0.000104333 	0 10 	-7.82496e-05 	0 10 	-5.21664e-05 	0 10 	-2.60832e-05 	0 10 	0 	0
10 	-0.000317473 	0 10 	-0.000253978 	0 10 	-0.000190484 	0 10 	-0.000126989 	0 10 	-6.34945e-05 	0 10 	0 	0
9.99999 	-0.000389595 	0 10 	-0.000311676 	0 10 	-0.000233757 	0 10 	-0.000155838 	0 10 	-7.7919e-05 	0 10 	0 	0
9.17388 	0.087103 	0 9.13081 	0.0696824 	0 9.08741 	0.0522615 	0 9.04369 	0.0348404 	0 8.99963 	0.0174192 	0 8.95524 	0 	0
10.0004 	0.00733126 	0 10.0024 	0.0152237 	0 10.0044 	0.0222846 	0 10.0064 	0.029301 	0 10.0084 	0.0362733 	0 10.0133 	0.0465246 	0 10.0161 	0.040473 	0 10.0204 	0.040481 	0 10.0248 	0.0404891 	0 10.0291 	0.0404972 	0 10.035 	0.0449903 	0 10.0377 	0.0384313 	0 10.0416 	0.0384424 	0 10.0454 	0.0384534 	0 10.0493 	0.0384645 	0 10.0532 	0.0415777 	0 10.0552 	0.0396065 	0 10.0574 	0.0409808 	0 10.0597 	0.0423569 	0 10.0619 	0.0437347 	0 10.0639 	0.0462056 	0 10.0651 	0.046358 	0 10.0661 	0.0475537 	0 10.0671 	0.0487505 	0 10.0681 	0.0499484 	0 10.0689 	0.0509615 	0 10.0691 	0.0511118 	0 10.0692 	0.051262 	0 10.0693 	0.0514123 	0 10.0694 	0.0515625 	0 10.0696 	0.0516913 	0 10.0698 	0.05242 	0 10.07 	0.0531341 	0 10.0702 	0.0538489 	0 10.0703 	0.0545643 	0 10.0705 	0.0551026 	0 10.07 	0.0555193 	0 10.0692 	0.0558208 	0 10.0685 	0.0561225 	0 10.0677 	0.0564245 	0 10.0668 	0.056477 	0 10.0659 	0.0567649 	0 10.0643 	0.0568734 	0 10.0627 	0.056982 	0 10.0611 	0.0570905 	0 10.0591 	0.0569225 	0 10.0582 	0.0571681 	0 10.056 	0.0571865 	0 10.0538 	0.0572049 	0 10.0516 	0.0572233 	0 10.0484 	0.0569528 	0 10.0479 	0.057205 	0 10.0451 	0.057195 	0 10.0424 	0.0571851 	0 10.0397 	0.0571751 	0 10.0354 	0.056874 	0 10.0354 	0.0571841 	0 10.0322 	0.0572055 	0 10.0291 	0.0572268 	0 10.026 	0.0572482 	0 10.0203 	0.0569798 	0 10.0211 	0.057395 	0 10.0176 	0.057493 	0 10.0141 	0.0575911 	0 10.0106 	0.0576891 	0 10.0036 	0.057493 	0 10.0054 	0.058052 	0 10.0016 	0.0582795 	0 9.99784 	0.058507 	0 9.99404 	0.0587346 	0 9.98559 	0.058677 	0 9.98856 	0.0594417 	0 9.98445 	0.0598488 	0 9.98035 	0.060256 	0 9.97626 	0.0606634 	0 9.9662 	0.0607877 	0 9.97041 	0.0618491 	0 9.96609 	0.0626381 	0 9.96178 	0.0634274 	0 9.95747 	0.064217 	0 9.94587 	0.0648088 	0 9.95159 	0.0664148 	0 9.94704 	0.0676562 	0 9.94249 	0.0688982 	0 9.93795 	0.0701406 	0 9.92459 	0.0710966 	0 9.93204 	0.0732931 	0 9.92775 	0.0757717 	0 9.92348 	0.0782509 	0 9.91924 	0.0807307 	0 9.90479 	0.0831977 	0 9.91491 	0.0867861 	2.01586e-22 9.9124 	0.09016 	6.42052e-21 9.90991 	0.0935349 	1.26351e-20 9.9072 	0.0968877 	1.86014e-20 9.89324 	0.0992476 	1.40693e-20 9.90572 	0.102021 	1.28868e-19 9.90516 	0.10396 	1.26326e-19 9.90409 	0.105866 	1.19018e-19 9.90259 	0.107733 	1.07634e-19 9.88889 	0.108497 	-2.10702e-20 9.90307 	0.109607 	-5.87955e-20 9.90268 	0.110045 	-6.58098e-20 9.90186 	0.110462 	-7.19088e-20 9.90069 	0.11087 	-7.64469e-20 9.88591 	0.110907 	-2.24352e-20 9.90056 	0.111452 	-2.06329e-20 9.89897 	0.111309 	-1.37856e-20 9.89701 	0.111151 	-6.82467e-21 9.89475 	0.110988 	2.3833e-22 9.8779 	0.11064 	1.24265e-20 9.89296 	0.111448 	1.90822e-22 9.89007 	0.111379 	-2.20483e-20 9.8869 	0.111297 	-4.4446e-20 9.88351 	0.111208 	-6.70331e-20 9.86442 	0.110621 	-1.03792e-19 9.88037 	0.111722 	-1.81167e-19 9.87638 	0.111845 	-1.6786e-19 9.8722 	0.111959 	-1.53703e-19 9.8679 	0.112068 	-1.38894e-19 9.8465 	0.111472 	-3.28624e-20 9.86385 	0.112731 	8.96619e-20 9.85882 	0.113013 	1.075e-19 9.8537 	0.113292 	1.2497e-19 9.84855 	0.11357 	1.42215e-19 9.82455 	0.113192 	4.19483e-20 9.84385 	0.114778 	-1.44302e-19 9.83783 	0.115299 	-1.53611e-19 9.83182 	0.115822 	-1.62935e-19 9.82582 	0.116344 	-1.72274e-19 9.7988 	0.116183 	-4.91487e-24 9.8206 	0.118333 	1.71871e-19 9.81377 	0.119137 	1.63033e-19 9.80696 	0.119942 	1.54218e-19 9.80016 	0.120747 	1.45425e-19 9.76961 	0.120588 	-1.66501e-20 9.79458 	0.123372 	-1.42348e-19 9.787 	0.124393 	-1.70322e-19 9.77942 	0.125416 	-1.98308e-19 9.77186 	0.126438 	-2.263e-19 9.73718 	0.12606 	-1.26511e-19 9.76583 	0.129472 	-2.26221e-19 9.75752 	0.13064 	-2.12099e-19 9.74919 	0.131807 	-1.97888e-19 9.74066 	0.132961 	-1.82955e-19 9.70147 	0.13225 	-6.66e-20 9.73395 	0.136265 	-6.71754e-20 9.72527 	0.137553 	-4.47963e-20 9.71621 	0.138815 	-2.21821e-20 9.70649 	0.140033 	2.43303e-22 9.66252 	0.13893 	1.28543e-20 9.69892 	0.14351 	3.04692e-22 9.69027 	0.144898 	0 9.68051 	0.146208 	0 9.66935 	0.147415 	0 9.62053 	0.145891 	0 9.66082 	0.150973 	0 9.65271 	0.15246 	-2.08599e-20 9.64239 	0.153783 	-4.26801e-20 9.6295 	0.154912 	-6.53666e-20 9.57594 	0.15297 	-1.01723e-19 9.61989 	0.158501 	-1.79304e-19 9.6129 	0.160109 	-1.86618e-19 9.60211 	0.161423 	-1.88661e-19 9.58716 	0.162413 	-1.8363e-19 9.52916 	0.160054 	-1.05794e-19 9.57633 	0.16595 	4.35055e-20 9.57109 	0.167706 	9.21687e-20 9.55995 	0.168995 	1.29468e-19 9.54258 	0.169787 	1.50186e-19 9.48064 	0.167032 	5.2823e-20 9.53038 	0.17317 	1.50475e-19 9.52751 	0.175095 	1.66041e-19 9.51614 	0.176341 	1.68332e-19 9.496 	0.176879 	1.54221e-19 9.43085 	0.173788 	5.61408e-20 9.48229 	0.18002 	4.03298e-20 9.48231 	0.182131 	2.5709e-20 9.47083 	0.18332 	1.13528e-20 9.44766 	0.183566 	0 9.38021 	0.180242 	0 9.4324 	0.186434 	0 9.4357 	0.188742 	-1.06007e-20 9.42422 	0.189875 	-2.44079e-20 9.39787 	0.18982 	-3.8595e-20 9.32918 	0.186383 	-5.38694e-20 9.3811 	0.19242 	-1.50845e-19 9.38789 	0.194917 	-1.85687e-19 9.3765 	0.195989 	-1.95497e-19 9.34695 	0.195628 	-1.69618e-19 9.27812 	0.19217 	-6.66537e-20 9.32878 	0.197917 	5.50678e-20 9.33907 	0.20057 	1.07933e-19 9.32786 	0.201575 	1.2414e-19 9.29529 	0.200932 	8.9368e-20 9.22742 	0.197568 	-2.95254e-20 9.27594 	0.202922 	-2.18914e-20 9.28954 	0.205683 	-1.36082e-20 9.27858 	0.206622 	-4.86951e-21 9.2433 	0.205742 	-5.82853e-21 9.17737 	0.202569 	-1.89903e-20 9.22292 	0.207428 	-6.18066e-21 9.2394 	0.210216 	0 9.22875 	0.21107 	0 9.19126 	0.209995 	0 9.1282 	0.207081 	0 9.17018 	0.211355 	0 9.18901 	0.214082 	3.70276e-21 9.17873 	0.214862 	1.20579e-20 9.13965 	0.213691 	1.21803e-20 9.08018 	0.211139 	6.47822e-21 9.11819 	0.214779 	-9.88281e-20 9.13874 	0.217356 	-1.66556e-19 9.12883 	0.218079 	-1.68918e-19 9.08878 	0.216928 	-1.00361e-19 9.03333 	0.214819 	4.38747e-21 9.06701 	0.217776 	9.50219e-21 9.08847 	0.220083 	1.10291e-20 9.07898 	0.220738 	3.49905e-21 9.03873 	0.219704 	-2.77082e-20 8.98777 	0.218081 	-6.71556e-20 9.0171 	0.220354 	-1.39032e-19 9.03882 	0.222294 	-1.97269e-19 9.02978 	0.222882 	-2.00467e-19 8.98999 	0.222046 	-1.32268e-19 8.94364 	0.220907 	-4.88328e-20 8.96862 	0.222527 	8.66964e-20 8.9899 	0.224026 	2.06401e-19 8.98132 	0.224548 	1.99649e-19 8.94268 	0.223978 	1.16438e-19 8.90102 	0.223298 	2.55613e-20 8.92201 	0.224325 	1.1735e-19 8.94238 	0.225342 	2.0726e-19 8.93432 	0.225811 	2.1078e-19 8.89725 	0.225555 	1.07503e-19 8.86007 	0.225298 	3.76088e-21 8.8774 	0.225805 	-1.44539e-21 8.89473 	0.226312 	-6.65142e-21 8.8868 	0.22671 	-2.22168e-21 8.85381 	0.226812 	-2.86162e-20 8.82085 	0.226916 	-5.50148e-20 8.83503 	0.226966 	-2.95965e-20 8.8492 	0.227016 	-4.17677e-21 8.8418 	0.227323 	-4.64008e-21 8.81258 	0.227705 	-3.12779e-20 8.7834 	0.228089 	-5.79204e-20 8.79485 	0.22774 	-3.22869e-20 8.80629 	0.227391 	-6.65053e-21 8.7993 	0.227596 	0 8.77347 	0.228206 	0 8.74767 	0.228818 	0 8.75685 	0.22816 	0 8.76599 	0.2275 	0 8.75935 	0.227589 	9.5256e-21 8.7365 	0.228328 	2.98518e-20 8.71369 	0.229069 	5.01786e-20 8.72098 	0.228125 	-7.91297e-20 8.72824 	0.227179 	-2.08439e-19 8.72186 	0.227125 	-2.20659e-19 8.70163 	0.227934 	-1.17263e-19 8.68144 	0.228745 	-1.38744e-20 8.68717 	0.227567 	-8.72803e-21 8.69284 	0.226386 	-3.57683e-21 8.68667 	0.226203 	-1.44913e-20 8.66875 	0.227066 	-4.11874e-20 8.65088 	0.227931 	-6.78885e-20 8.65527 	0.226631 	-4.2236e-20 8.65961 	0.225329 	-1.6577e-20 8.65361 	0.225024 	1.11267e-20 8.63779 	0.225851 	3.14192e-20 8.62201 	0.226681 	5.17127e-20 8.62529 	0.225241 	1.40919e-19 8.62853 	0.223798 	2.30124e-19 8.62265 	0.223362 	2.30226e-19 8.60872 	0.224157 	1.41226e-19 8.59483 	0.224953 	5.22299e-20 8.59721 	0.22339 	-7.69237e-20 8.59955 	0.221825 	-2.0608e-19 8.59377 	0.22126 	-2.16028e-19 8.58154 	0.222011 	-9.27728e-20 8.56934 	0.222763 	3.04749e-20 8.57098 	0.22109 	1.24728e-19 8.57256 	0.219415 	2.18985e-19 8.56687 	0.218726 	2.43463e-19 8.55618 	0.219421 	1.74899e-19 8.54551 	0.220117 	1.06339e-19 8.54654 	0.21836 	6.64688e-20 8.54751 	0.2166 	2.6594e-20 8.54184 	0.215808 	3.95733e-20 8.5326 	0.216392 	3.82214e-20 8.52334 	0.217001 	3.66293e-20 8.52386 	0.215168 	-6.7e-20 8.52384 	0.213411 	-1.65091e-19 8.51851 	0.212511 	-2.02459e-19 8.51078 	0.212833 	-1.46509e-19 8.50278 	0.213299 	-7.9609e-20 8.50289 	0.211323 	-1.44951e-19 8.50211 	0.209507 	-1.98973e-19 8.49714 	0.208493 	-1.96494e-19 8.49065 	0.208605 	-1.0833e-19 8.48382 	0.20898 	-1.03645e-22 8.48358 	0.206911 	1.0783e-19 8.48223 	0.205074 	1.92136e-19 8.47762 	0.203949 	2.04364e-19 8.47217 	0.203826 	1.38608e-19 8.46641 	0.204076 	4.39031e-20 8.46589 	0.201906 	3.10239e-20 8.46413 	0.200029 	1.83093e-20 8.45988 	0.19877 	5.94679e-21 8.45531 	0.198391 	1.94194e-20 8.45059 	0.198482 	4.66431e-20 8.44984 	0.196186 	2.32958e-19 8.44783 	0.194235 	3.34281e-19 8.44394 	0.192817 	3.05136e-19 8.44012 	0.192172 	1.6867e-19 8.43635 	0.192084 	-4.51998e-20 8.4354 	0.18962 	-4.74803e-20 8.43326 	0.187562 	-4.97736e-20 8.42974 	0.185979 	-5.20897e-20 8.42657 	0.185088 	-7.39055e-20 8.42374 	0.184848 	-1.14071e-19 8.42269 	0.182206 	-2.87645e-19 8.42055 	0.18003 	-3.42275e-19 8.41742 	0.178281 	-2.87746e-19 8.41481 	0.177155 	-1.48703e-19 8.41285 	0.176773 	9.11123e-20 8.41176 	0.173976 	6.56069e-20 8.4097 	0.171674 	4.04169e-20 8.40693 	0.169738 	1.54588e-20 8.40479 	0.168346 	6.11967e-21 8.40363 	0.167757 	1.97687e-20 8.40252 	0.164768 	5.873e-21 8.40061 	0.1623 	-1.55701e-20 8.39818 	0.160149 	-4.16085e-20 8.39647 	0.158481 	-5.81581e-20 8.39607 	0.157666 	-5.79559e-20 8.39497 	0.154468 	1.52266e-19 8.39324 	0.151803 	2.40235e-19 8.39116 	0.149414 	2.65002e-19 8.38983 	0.147457 	2.21022e-19 8.39014 	0.146392 	3.59336e-20 8.38903 	0.142968 	9.04996e-21 8.3875 	0.140081 	4.53198e-22 8.38575 	0.137438 	1.85926e-22 8.3848 	0.135194 	0 8.38582 	0.133865 	0 8.38469 	0.130192 	0 8.38339 	0.127057 	1.78699e-20 8.38196 	0.124147 	4.3238e-20 8.38142 	0.121619 	6.10241e-20 8.38313 	0.120015 	6.05372e-20 8.38206 	0.116067 	-1.47725e-19 8.381 	0.112645 	-2.0848e-19 8.37989 	0.109438 	-2.08861e-19 8.37976 	0.106611 	-1.55384e-19 8.3821 	0.1047 	2.74633e-20 8.38111 	0.100437 	-1.54104e-19 8.38028 	0.0966842 	-2.27397e-19 8.37948 	0.0931486 	-2.54552e-19 8.37978 	0.0900135 	-2.25059e-19 8.38268 	0.0877728 	-6.90855e-20 8.38178 	0.0831742 	-2.2395e-19 8.38118 	0.0790572 	-2.83187e-19 8.38065 	0.075169 	-2.96925e-19 8.38143 	0.0717185 	-2.39853e-19 8.38485 	0.069117 	-4.54815e-20 8.38409 	0.0641618 	2.75612e-19 8.38368 	0.0596417 	3.94283e-19 8.38344 	0.0553693 	3.97645e-19 8.38475 	0.0515882 	2.8504e-19 8.38862 	0.0485823 	-1.05717e-20 8.38804 	0.0432358 	-2.29739e-20 8.38781 	0.0382737 	-2.05564e-20 8.38781 	0.0335927 	-7.30517e-21 8.38972 	0.0294806 	-1.17079e-20 8.39395 	0.026053 	-3.73436e-20 8.39354 	0.0203008 	-2.15467e-19 8.39345 	0.0148787 	-2.94545e-19 8.39367 	0.0097896 	-2.73672e-19 8.39621 	0.00537181 	-1.41021e-19 8.40073 	0.00152662 	8.69574e-20 8.40054 	-0.00462701 	2.62961e-19 8.40055 	-0.0105288 	3.80611e-19 8.40096 	-0.0160448 	4.08705e-19 8.40417 	-0.0207851 	3.36855e-19 8.40887 	-0.0251011 	2.10403e-19 8.40891 	-0.0316831 	3.34959e-19 8.409 	-0.0381131 	4.20719e-19 8.40952 	-0.0441277 	3.99322e-19 8.41336 	-0.0492831 	2.6737e-19 8.41808 	-0.0541896 	1.03563e-19 8.41821 	-0.0613039 	6.50943e-20 8.41826 	-0.0683577 	2.7979e-20 8.4188 	-0.0749383 	2.07068e-21 8.42328 	-0.0805439 	-1.13789e-20 8.42793 	-0.086074 	-2.39072e-20 8.42806 	-0.0937675 	-2.10077e-19 8.42801 	-0.101457 	-3.96263e-19 8.42895 	-0.108558 	-3.76645e-19 8.43366 	-0.114715 	-1.79855e-19 8.43824 	-0.120869 	1.68962e-20 8.43843 	-0.129127 	1.40121e-20 8.43843 	-0.137379 	1.10508e-20 8.44002 	-0.145009 	8.79971e-21 8.44451 	-0.151858 	7.49585e-21 8.44885 	-0.158704 	6.12917e-21 8.44908 	-0.167583 	-1.94405e-19 8.44911 	-0.176456 	-3.95017e-19 8.45136 	-0.184673 	-3.98189e-19 8.45547 	-0.192271 	-2.02109e-19 8.45943 	-0.199866 	-6.06012e-21 8.45964 	-0.209447 	1.87637e-19 8.45963 	-0.219021 	3.81239e-19 8.46254 	-0.227897 	3.97141e-19 8.46613 	-0.236288 	1.98868e-19 8.46955 	-0.244676 	5.4549e-22 8.46964 	-0.255011 	-1.97822e-19 8.46994 	-0.265248 	-3.69243e-19 8.47304 	-0.274858 	-3.57046e-19 8.47595 	-0.284166 	-2.00619e-19 8.47867 	-0.293384 	-2.82204e-21 8.47854 	-0.304515 	-2.12409e-21 8.47964 	-0.315334 	-7.43781e-21 8.48219 	-0.325797 	-1.96477e-20 8.48442 	-0.336109 	-1.51499e-20 8.48627 	-0.346177 	1.78675e-20 8.48581 	-0.358131 	-2.56228e-20 8.48745 	-0.369577 	-3.42576e-20 8.48929 	-0.380918 	-3.63583e-20 8.49091 	-0.392246 	-3.85097e-20 8.49179 	-0.403221 	-2.99997e-20 8.4915 	-0.415891 	-4.31313e-20 8.49274 	-0.428144 	-4.55874e-20 8.49374 	-0.440383 	-4.80987e-20 8.4945 	-0.452608 	-5.06653e-20 8.49468 	-0.464681 	-6.52981e-20 8.49441 	-0.472863 	-5.48601e-20 8.49462 	-0.480893 	-5.6446e-20 8.49474 	-0.488917 	-5.80541e-20 8.49475 	-0.496936 	-5.96846e-20 8.49469 	-0.503863 	-6.11132e-20 8.49443 	-0.509154 	-6.45806e-20 8.49413 	-0.514442 	-6.80787e-20 8.49378 	-0.519728 	-7.16072e-20 8.4934 	-0.525011 	-7.51662e-20 8.49377 	-0.530256 	-5.82727e-20 8.49267 	-0.54427 	-4.44537e-20 8.49137 	-0.558203 	-3.07124e-20 8.48979 	-0.572116 	-1.69393e-20 8.48793 	-0.58601 	-3.13449e-21 8.48833 	-0.599796 	0 8.48608 	-0.61492 	0 8.4834 	-0.62973 	0 8.48042 	-0.644516 	0 8.47821 	-0.659237 	0 8.47746 	-0.673884 	0 8.47409 	-0.689937 	0 8.47032 	-0.705912 	2.97157e-21 8.4658 	-0.721522 	2.43846e-20 8.46323 	-0.736983 	7.35258e-20 8.46036 	-0.752447 	1.22736e-19 8.45566 	-0.76938 	2.71553e-19 8.45063 	-0.786289 	4.20342e-19 8.44641 	-0.802958 	3.99721e-19 8.4415 	-0.819128 	1.97935e-19 8.43628 	-0.835306 	-4.12669e-21 8.43004 	-0.853037 	-2.93058e-19 8.42407 	-0.870626 	-4.42113e-19 8.41843 	-0.88806 	-4.36826e-19 8.41235 	-0.90542 	-4.15232e-19 8.40453 	-0.922174 	-2.00641e-19 8.39756 	-0.938389 	-3.37519e-19 8.39085 	-0.954324 	-2.51846e-19 8.38388 	-0.970239 	-1.65409e-19 8.37664 	-0.986135 	-7.82069e-20 8.37032 	-0.999509 	-4.10483e-21 8.36902 	-1.00208 	7.85453e-21 8.36771 	-1.00466 	1.98279e-20 8.36639 	-1.00723 	3.18154e-20 8.36506 	-1.0098 	4.38169e-20 8.36395 	-1.01237 	2.8509e-20 8.35413 	-1.03087 	5.03967e-20 8.34372 	-1.0492 	8.17913e-20 8.33296 	-1.06751 	1.12955e-19 8.32193 	-1.08578 	1.45072e-19 8.31165 	-1.10394 	1.97918e-19 8.30051 	-1.12342 	2.25028e-19 8.28855 	-1.14262 	2.3795e-19 8.2751 	-1.16114 	2.13176e-19 8.26199 	-1.17931 	1.44446e-19 8.24849 	-1.19751 	7.54837e-20 8.23487 	-1.21718 	-5.51568e-21 8.22089 	-1.23679 	-8.1666e-20 8.20674 	-1.25585 	-7.76431e-20 8.19118 	-1.2743 	-5.21961e-20 8.17427 	-1.29228 	-7.62594e-21 8.16142 	-1.30771 	-1.27796e-21 8.14815 	-1.32256 	-5.68158e-22 8.13464 	-1.33732 	-4.52717e-22 8.12089 	-1.35208 	-3.37898e-22 8.10861 	-1.36504 	-2.37469e-22 8.10444 	-1.3694 	-1.75411e-22 8.10025 	-1.37377 	-1.13305e-22 8.09604 	-1.37813 	-5.11538e-23 8.09184 	-1.38248 	0 8.08775 	-1.38672 	0 8.06881 	-1.4058 	-7.60571e-21 8.04865 	-1.42423 	-2.32379e-20 8.02813 	-1.44265 	-3.87513e-20 8.00741 	-1.46068 	-5.06117e-20 7.98641 	-1.47835 	-5.84655e-20 7.96525 	-1.49739 	-3.16754e-20 7.9437 	-1.51641 	-4.75138e-21 7.92175 	-1.53457 	1.10492e-20 7.89764 	-1.55108 	2.58044e-20 7.87307 	-1.56768 	4.06876e-20 7.85512 	-1.58107 	3.61673e-20 7.83684 	-1.59373 	3.87216e-20 7.8183 	-1.60604 	4.45281e-20 7.79957 	-1.61835 	5.03932e-20 7.78249 	-1.62944 	5.57384e-20 7.7753 	-1.6342 	5.80671e-20 7.76808 	-1.63895 	6.04047e-20 7.76083 	-1.64371 	6.27512e-20 7.75339 	-1.6483 	6.15653e-20 7.74567 	-1.65267 	5.52974e-20 7.71961 	-1.66992 	7.44422e-20 7.69115 	-1.68587 	7.37213e-20 7.66232 	-1.70183 	7.32008e-20 7.63179 	-1.7164 	4.76528e-20 7.60044 	-1.73077 	1.66773e-20 7.57139 	-1.74663 	1.72037e-20 7.54143 	-1.76191 	1.56981e-20 7.50991 	-1.77588 	9.56895e-21 7.47802 	-1.78984 	3.50141e-21 7.44463 	-1.80328 	-4.66228e-21 7.44131 	-1.80475 	-1.66569e-21 7.43789 	-1.80611 	-6.05209e-22 7.43438 	-1.80736 	-1.96774e-21 7.43086 	-1.8086 	-3.33068e-21 7.42737 	-1.80984 	-4.67821e-21 7.3989 	-1.82163 	-9.30056e-21 7.37016 	-1.83344 	-1.38834e-20 7.34115 	-1.84524 	-1.84262e-20 7.31006 	-1.85606 	-9.18721e-22 7.27681 	-1.86602 	3.75899e-20 7.24529 	-1.87862 	-7.81176e-20 7.21343 	-1.89123 	-1.93529e-19 7.1777 	-1.90174 	-1.31198e-19 7.14029 	-1.91155 	-2.63581e-20 7.10045 	-1.9205 	1.2612e-19 7.09014 	-1.92364 	1.25345e-19 7.07935 	-1.92651 	1.25988e-19 7.06783 	-1.92895 	1.2889e-19 7.05628 	-1.93139 	1.31811e-19 7.04503 	-1.93375 	1.34669e-19 7.01971 	-1.94032 	1.54347e-19 6.99423 	-1.94689 	1.74224e-19 6.96861 	-1.95347 	1.94302e-19 6.94124 	-1.95906 	1.40057e-19 6.91243 	-1.96395 	3.10512e-20 6.87713 	-1.97248 	1.42814e-20 6.8415 	-1.98101 	-2.63555e-21 6.80285 	-1.98778 	-1.15675e-21 6.76047 	-1.99269 	0 6.71715 	-1.99747 	0 6.70275 	-1.99987 	0 6.68784 	-2.00196 	0 6.67194 	-2.00343 	0 6.656 	-2.00491 	0 6.64051 	-2.00634 	0 6.6161 	-2.00951 	0 6.59157 	-2.01269 	0 6.56694 	-2.01587 	0 6.54073 	-2.01806 	1.61774e-20 6.5134 	-2.01967 	4.23518e-20 6.47524 	-2.02386 	2.79595e-20 6.43681 	-2.02805 	1.36919e-20 6.39561 	-2.03058 	1.39615e-20 6.35041 	-2.0311 	4.40554e-20 6.30464 	-2.03162 	7.43242e-20 6.28889 	-2.03243 	6.1276e-20 6.27267 	-2.03296 	5.13916e-20 6.25544 	-2.03286 	4.86208e-20 6.23817 	-2.03277 	4.5858e-20 6.22132 	-2.03268 	4.31756e-20 6.19605 	-2.0332 	3.1087e-20 6.17068 	-2.03373 	1.89862e-20 6.14523 	-2.03426 	6.87329e-21 6.11828 	-2.03381 	9.48421e-21 6.09037 	-2.03283 	2.01804e-20 6.05036 	-2.03289 	1.33543e-20 6.0101 	-2.03296 	6.57487e-21 5.96734 	-2.03144 	5.06664e-22 5.92092 	-2.02814 	9.6587e-21 5.8739 	-2.02479 	1.93103e-20 5.85868 	-2.02414 	3.6848e-20 5.84308 	-2.02326 	4.77042e-20 5.82662 	-2.02179 	4.2219e-20 5.81014 	-2.02031 	3.67101e-20 5.79396 	-2.01887 	3.12904e-20 5.76701 	-2.01694 	1.26926e-20 5.73998 	-2.01502 	-6.00845e-21 5.71286 	-2.0131 	-2.48142e-20 5.68438 	-2.01016 	-1.99624e-21 5.65502 	-2.00668 	4.25533e-20 5.61427 	-2.00298 	1.54153e-19 5.57333 	-1.99929 	2.65614e-19 5.53005 	-1.99394 	2.50652e-19 5.48405 	-1.98725 	1.46382e-19 5.4371 	-1.98032 	2.9699e-20 5.42335 	-1.9786 	5.13572e-20 5.40932 	-1.97668 	6.29986e-20 5.39463 	-1.97426 	4.95826e-20 5.37991 	-1.97185 	3.61422e-20 5.3654 	-1.96947 	2.28749e-20 5.33704 	-1.96507 	-1.04207e-20 5.3086 	-1.96068 	-4.38343e-20 5.28009 	-1.95628 	-7.73677e-20 5.25036 	-1.95088 	-6.16673e-20 5.21985 	-1.94493 	-2.01742e-20 5.17956 	-1.938 	-1.88425e-20 5.1391 	-1.93106 	-1.76183e-20 5.09656 	-1.9225 	-4.20701e-20 5.05204 	-1.91297 	-8.01113e-20 5.00635 	-1.90308 	-1.22536e-19 4.99398 	-1.90063 	-1.2544e-19 4.98139 	-1.89801 	-1.26408e-19 4.96828 	-1.89499 	-1.2272e-19 4.95516 	-1.89197 	-1.19039e-19 4.94216 	-1.88898 	-1.15402e-19 4.91361 	-1.88242 	-1.0845e-19 4.885 	-1.87586 	-1.01534e-19 4.85633 	-1.8693 	-9.46541e-20 4.82663 	-1.86182 	-6.37735e-20 4.79624 	-1.85379 	-1.94692e-20 4.75741 	-1.84433 	4.56302e-20 4.71847 	-1.83488 	1.10696e-19 4.67773 	-1.82391 	9.43721e-20 4.63532 	-1.81213 	4.26129e-20 4.59182 	-1.79999 	-2.03488e-20 4.579