# vtk DataFile Version 2.0
track0
ASCII
DATASET POLYDATA
POINTS 12070 float
-0.0205 0.001 1e-05
-0.02052 0.000999985 1e-05
-0.02054 0.000999974 1e-05
-0.02056 0.000999965 1e-05
-0.02058 0.000999959 1e-05
-0.0206 0.000999956 1e-05
-0.0205 0.00367778 1e-05
-0.02052 0.00367778 1e-05
-0.02054 0.00367777 1e-05
-0.02056 0.00367777 1e-05
-0.02058 0.00367777 1e-05
-0.0206 0.00367777 1e-05
-0.0205 0.00635556 1e-05
-0.02052 0.00635555 1e-05
-0.02054 0.00635555 1e-05
-0.02056 0.00635555 1e-05
-0.02058 0.00635555 1e-05
-0.0206 0.00635555 1e-05
-0.0205 0.00903333 1e-05
-0.02052 0.00903333 1e-05
-0.02054 0.00903333 1e-05
-0.02056 0.00903333 1e-05
-0.02058 0.00903333 1e-05
-0.0206 0.00903333 1e-05
-0.0205 0.0117111 1e-05
-0.02052 0.0117111 1e-05
-0.02054 0.0117111 1e-05
-0.02056 0.0117111 1e-05
-0.02058 0.0117111 1e-05
-0.0206 0.0117111 1e-05
-0.0205 0.0143889 1e-05
-0.02052 0.0143889 1e-05
-0.02054 0.0143889 1e-05
-0.02056 0.0143889 1e-05
-0.02058 0.0143889 1e-05
-0.0206 0.0143889 1e-05
-0.0205 0.0170667 1e-05
-0.02052 0.0170667 1e-05
-0.02054 0.0170667 1e-05
-0.02056 0.0170667 1e-05
-0.02058 0.0170667 1e-05
-0.0206 0.0170667 1e-05
-0.0205 0.0197444 1e-05
-0.02052 0.0197444 1e-05
-0.02054 0.0197444 1e-05
-0.02056 0.0197444 1e-05
-0.02058 0.0197444 1e-05
-0.0206 0.0197444 1e-05
-0.0205 0.0224222 1e-05
-0.02052 0.0224222 1e-05
-0.02054 0.0224222 1e-05
-0.02056 0.0224222 1e-05
-0.02058 0.0224222 1e-05
-0.0206 0.0224222 1e-05
-0.0205 0.0251 1e-05
-0.02052 0.0250998 1e-05
-0.02054 0.0250997 1e-05
-0.02056 0.0250995 1e-05
-0.02058 0.0250995 1e-05
-0.0206 0.0250994 1e-05
-0.0205 0.001 1e-05
-0.0202034 0.00100022 1e-05
-0.0199069 0.00100067 1e-05
-0.0196103 0.00100133 1e-05
-0.0193137 0.0010022 1e-05
-0.0190172 0.00100327 1e-05
-0.0187132 0.00100468 1e-05
-0.0184093 0.00100591 1e-05
-0.0181054 0.00100714 1e-05
-0.0178015 0.00100837 1e-05
-0.0174976 0.0010096 1e-05
-0.0172058 0.0010109 1e-05
-0.016914 0.00101202 1e-05
-0.0166222 0.00101314 1e-05
-0.0163305 0.00101425 1e-05
-0.0160387 0.00101537 1e-05
-0.0157586 0.00101653 1e-05
-0.0154784 0.00101763 1e-05
-0.0151983 0.00101877 1e-05
-0.0149182 0.00101995 1e-05
-0.0146381 0.00102117 1e-05
-0.0143922 0.0010223 1e-05
-0.0141462 0.00102343 1e-05
-0.0139003 0.0010246 1e-05
-0.0136544 0.00102579 1e-05
-0.0134465 0.00102682 1e-05
-0.0134159 0.00102697 1e-05
-0.0133853 0.00102713 1e-05
-0.0133547 0.00102728 1e-05
-0.0133241 0.00102744 1e-05
-0.0132934 0.0010276 1e-05
-0.0130353 0.00102892 1e-05
-0.0127771 0.00103027 1e-05
-0.0125189 0.00103163 1e-05
-0.0122607 0.00103301 1e-05
-0.0120025 0.00103441 1e-05
-0.0117547 0.00103576 1e-05
-0.0115068 0.00103713 1e-05
-0.0112589 0.0010385 1e-05
-0.0110111 0.00103989 1e-05
-0.0107632 0.00104128 1e-05
-0.0105252 0.00104261 1e-05
-0.0102873 0.00104395 1e-05
-0.0100493 0.0010453 1e-05
-0.00981133 0.00104664 1e-05
-0.00957337 0.001048 1e-05
-0.00934491 0.00104929 1e-05
-0.00911645 0.00105059 1e-05
-0.00888799 0.00105189 1e-05
-0.00865954 0.00105319 1e-05
-0.00843108 0.00105449 1e-05
-0.00821175 0.00105573 1e-05
-0.00799242 0.00105698 1e-05
-0.00777309 0.00105823 1e-05
-0.00755376 0.00105948 1e-05
-0.00733443 0.00106072 1e-05
-0.00712387 0.00106192 1e-05
-0.0069133 0.00106312 1e-05
-0.00670273 0.00106432 1e-05
-0.00649217 0.00106552 1e-05
-0.0062816 0.00106672 1e-05
-0.00607944 0.00106787 1e-05
-0.00587729 0.00106903 1e-05
-0.00567514 0.00107019 1e-05
-0.00547298 0.00107135 1e-05
-0.00527083 0.00107252 1e-05
-0.00507675 0.00107363 1e-05
-0.00488267 0.00107476 1e-05
-0.0046886 0.00107589 1e-05
-0.00449452 0.00107703 1e-05
-0.00430044 0.00107817 1e-05
-0.00411412 0.00107926 1e-05
-0.0039278 0.00108037 1e-05
-0.00374147 0.00108149 1e-05
-0.00355515 0.00108261 1e-05
-0.00336883 0.00108374 1e-05
-0.00318995 0.00108484 1e-05
-0.00301107 0.00108595 1e-05
-0.00283219 0.00108707 1e-05
-0.00265331 0.00108821 1e-05
-0.00247443 0.00108936 1e-05
-0.0023027 0.00109048 1e-05
-0.00213097 0.00109163 1e-05
-0.00195924 0.0010928 1e-05
-0.00178751 0.00109399 1e-05
-0.00161577 0.0010952 1e-05
-0.0014509 0.00109638 1e-05
-0.00128603 0.0010976 1e-05
-0.00112116 0.00109885 1e-05
-0.000956291 0.00110015 1e-05
-0.000791418 0.0011015 1e-05
-0.000633135 0.00110283 1e-05
-0.000474852 0.00110421 1e-05
-0.000316569 0.00110565 1e-05
-0.000158287 0.00110714 1e-05
0 0.00110869 1e-05
0.000105677 0.00110975 1e-05
0.000211355 0.00111084 1e-05
0.000317032 0.00111195 1e-05
0.000422708 0.00111308 1e-05
0.000528387 0.00111423 1e-05
0.000634886 0.0011154 1e-05
0.000741385 0.00111658 1e-05
0.000847884 0.00111776 1e-05
0.000954383 0.00111895 1e-05
0.00106088 0.00112014 1e-05
0.00116821 0.00112134 1e-05
0.00127554 0.00112255 1e-05
0.00138286 0.00112376 1e-05
0.00149019 0.00112496 1e-05
0.00159752 0.00112617 1e-05
0.00170568 0.00112738 1e-05
0.00181384 0.0011286 1e-05
0.001922 0.00112982 1e-05
0.00203016 0.00113103 1e-05
0.00213833 0.00113225 1e-05
0.00224733 0.00113347 1e-05
0.00235633 0.00113471 1e-05
0.00246533 0.00113594 1e-05
0.00257433 0.00113718 1e-05
0.00268334 0.00113841 1e-05
0.00279319 0.00113966 1e-05
0.00290304 0.00114091 1e-05
0.00301289 0.00114217 1e-05
0.00312274 0.00114344 1e-05
0.00323259 0.0011447 1e-05
0.00334329 0.00114598 1e-05
0.00345399 0.00114727 1e-05
0.0035647 0.00114857 1e-05
0.0036754 0.00114987 1e-05
0.00378611 0.00115118 1e-05
0.00389767 0.0011525 1e-05
0.00400924 0.00115385 1e-05
0.0041208 0.0011552 1e-05
0.00423236 0.00115657 1e-05
0.00434393 0.00115794 1e-05
0.00445636 0.00115933 1e-05
0.00456879 0.00116075 1e-05
0.00468123 0.00116217 1e-05
0.00479366 0.00116362 1e-05
0.00490609 0.00116507 1e-05
0.0050194 0.00116654 1e-05
0.0051327 0.00116804 1e-05
0.00524601 0.00116956 1e-05
0.00535931 0.00117109 1e-05
0.00547262 0.00117264 1e-05
0.00558681 0.00117419 1e-05
0.00570099 0.00117579 1e-05
0.00581518 0.00117741 1e-05
0.00592937 0.00117904 1e-05
0.00604356 0.00118069 1e-05
0.00615863 0.00118234 1e-05
0.00627371 0.00118404 1e-05
0.00638878 0.00118576 1e-05
0.00650385 0.0011875 1e-05
0.00661893 0.00118926 1e-05
0.0067349 0.00119101 1e-05
0.00685087 0.00119283 1e-05
0.00696684 0.00119466 1e-05
0.00708281 0.00119651 1e-05
0.00719878 0.00119837 1e-05
0.00731565 0.00120024 1e-05
0.00743252 0.00120217 1e-05
0.00754939 0.00120411 1e-05
0.00766626 0.00120608 1e-05
0.00778313 0.00120806 1e-05
0.00790091 0.00121004 1e-05
0.00801869 0.00121208 1e-05
0.00813647 0.00121414 1e-05
0.00825425 0.00121622 1e-05
0.00837203 0.00121832 1e-05
0.00849073 0.00122041 1e-05
0.00860942 0.00122257 1e-05
0.00872812 0.00122475 1e-05
0.00884681 0.00122695 1e-05
0.00896551 0.00122916 1e-05
0.00908513 0.00123136 1e-05
0.00920475 0.00123363 1e-05
0.00932436 0.00123593 1e-05
0.00944398 0.00123825 1e-05
0.0095636 0.00124057 1e-05
0.00968415 0.00124289 1e-05
0.0098047 0.00124527 1e-05
0.00992524 0.00124768 1e-05
0.0100458 0.00125011 1e-05
0.0101663 0.00125254 1e-05
0.0102878 0.00125497 1e-05
0.0104093 0.00125746 1e-05
0.0105308 0.00125998 1e-05
0.0106523 0.00126252 1e-05
0.0107738 0.00126507 1e-05
0.0108962 0.0012676 1e-05
0.0110186 0.0012702 1e-05
0.0111411 0.00127283 1e-05
0.0112635 0.00127548 1e-05
0.0113859 0.00127812 1e-05
0.0115093 0.00128076 1e-05
0.0116327 0.00128346 1e-05
0.0117561 0.00128619 1e-05
0.0118794 0.00128894 1e-05
0.0120028 0.00129169 1e-05
0.0121272 0.00129443 1e-05
0.0122515 0.00129723 1e-05
0.0123759 0.00130006 1e-05
0.0125002 0.0013029 1e-05
0.0126245 0.00130574 1e-05
0.0127498 0.00130859 1e-05
0.0128752 0.00131147 1e-05
0.0130005 0.00131439 1e-05
0.0131258 0.00131733 1e-05
0.0132511 0.00132026 1e-05
0.0133774 0.00132319 1e-05
0.0135036 0.00132617 1e-05
0.0136299 0.00132917 1e-05
0.0137562 0.00133219 1e-05
0.0138825 0.0013352 1e-05
0.0140098 0.00133823 1e-05
0.014137 0.00134128 1e-05
0.0142643 0.00134437 1e-05
0.0143915 0.00134746 1e-05
0.0145188 0.00135055 1e-05
0.0146471 0.00135367 1e-05
0.0147753 0.0013568 1e-05
0.0149036 0.00135995 1e-05
0.0150318 0.00136312 1e-05
0.0151601 0.00136629 1e-05
0.0152893 0.00136948 1e-05
0.0154186 0.00137269 1e-05
0.0155478 0.00137591 1e-05
0.0156771 0.00137914 1e-05
0.0158063 0.00138238 1e-05
0.0159366 0.00138564 1e-05
0.0160668 0.00138892 1e-05
0.0161971 0.0013922 1e-05
0.0163273 0.00139549 1e-05
0.0164576 0.0013988 1e-05
0.0165889 0.00140213 1e-05
0.0167201 0.00140547 1e-05
0.0168514 0.00140881 1e-05
0.0169827 0.00141216 1e-05
0.0171139 0.00141552 1e-05
0.0172462 0.00141893 1e-05
0.0173785 0.00142233 1e-05
0.0175108 0.00142572 1e-05
0.0176431 0.00142912 1e-05
0.0177754 0.00143254 1e-05
0.0179087 0.001436 1e-05
0.018042 0.00143945 1e-05
0.0181753 0.0014429 1e-05
0.0183087 0.00144634 1e-05
0.018442 0.00144981 1e-05
0.0185763 0.00145333 1e-05
0.0187107 0.00145683 1e-05
0.018845 0.00146031 1e-05
0.0189794 0.0014638 1e-05
0.0191137 0.00146732 1e-05
0.0192491 0.00147087 1e-05
0.0193845 0.00147442 1e-05
0.0195199 0.00147794 1e-05
0.0196553 0.00148147 1e-05
0.0197907 0.00148501 1e-05
0.0199272 0.00148861 1e-05
0.0200636 0.00149218 1e-05
0.0202001 0.00149574 1e-05
0.0203365 0.00149929 1e-05
0.020473 0.00150286 1e-05
0.0206105 0.00150649 1e-05
0.020748 0.00151009 1e-05
0.0208855 0.00151367 1e-05
0.021023 0.00151724 1e-05
0.0211606 0.00152084 1e-05
0.0212991 0.00152448 1e-05
0.0214377 0.0015281 1e-05
0.0215763 0.00153169 1e-05
0.0217149 0.00153528 1e-05
0.0218535 0.00153889 1e-05
0.0219931 0.00154255 1e-05
0.0221328 0.00154618 1e-05
0.0222724 0.00154978 1e-05
0.0224121 0.00155337 1e-05
0.0225517 0.00155699 1e-05
0.0226925 0.00156065 1e-05
0.0228332 0.00156428 1e-05
0.022974 0.00156788 1e-05
0.0231147 0.00157147 1e-05
0.0232555 0.00157508 1e-05
0.0233973 0.00157874 1e-05
0.0235391 0.00158236 1e-05
0.023681 0.00158595 1e-05
0.0238228 0.00158954 1e-05
0.0239647 0.00159313 1e-05
0.0241076 0.00159677 1e-05
0.0242505 0.00160038 1e-05
0.0243935 0.00160396 1e-05
0.0245364 0.00160753 1e-05
0.0246794 0.0016111 1e-05
0.0248234 0.00161471 1e-05
0.0249675 0.0016183 1e-05
0.0251115 0.00162184 1e-05
0.0252556 0.00162538 1e-05
0.0253996 0.00162892 1e-05
0.0255448 0.00163249 1e-05
0.02569 0.00163604 1e-05
0.0258351 0.00163955 1e-05
0.0259803 0.00164304 1e-05
[...]
POINT_DATA 12070
 FIELD attributes 2
p 1 12070 float
-4.93526 -4.93195 -4.92863 -4.92532 -4.92201 -4.9187
-5.09641 -5.09639 -5.09638 -5.09636 -5.09634 -5.09632
-5.28875 -5.28864 -5.28853 -5.28841 -5.2883 -5.28821
-5.40717 -5.40713 -5.40708 -5.40704 -5.407 -5.40696
-5.4806 -5.48049 -5.48038 -5.48028 -5.48017 -5.48006
-5.51518 -5.515 -5.51483 -5.51465 -5.51448 -5.5143
-5.51393 -5.51385 -5.51376 -5.51368 -5.51359 -5.51351
-5.46455 -5.4645 -5.46444 -5.46439 -5.46434 -5.46429
-5.35631 -5.35631 -5.35631 -5.35631 -5.35631 -5.35631
-3.14869 -3.16802 -3.18722 -3.20629 -3.22522 -3.24402
-4.93526 -4.93435 -4.93052 -4.92662 -4.92263 -4.91395 -4.92703 -4.94103 -4.95504 -4.96904 -4.99234 -5.01243 -5.04047 -5.06851 -5.09655 -5.12726 -5.14067 -5.16005 -5.17942 -5.19881 -5.21973 -5.23473 -5.25162 -5.26851 -5.28541 -5.29969 -5.30179 -5.30389 -5.30599 -5.30808 -5.31017 -5.32801 -5.34583 -5.36366 -5.38149 -5.39898 -5.41333 -5.42745 -5.44157 -5.45569 -5.46917 -5.48 -5.49046 -5.50093 -5.51139 -5.52116 -5.52915 -5.53668 -5.5442 -5.55173 -5.55852 -5.56387 -5.56862 -5.57337 -5.57813 -5.58216 -5.5851 -5.58742 -5.58974 -5.59206 -5.59379 -5.59488 -5.59532 -5.59577 -5.59621 -5.5962 -5.59563 -5.59415 -5.59268 -5.5912 -5.58911 -5.58634 -5.5823 -5.57827 -5.57423 -5.56953 -5.56395 -5.55635 -5.54875 -5.54116 -5.53295 -5.5243 -5.51407 -5.50384 -5.49361 -5.48454 -5.47593 -5.46498 -5.45404 -5.4431 -5.43423 -5.42731 -5.42634 -5.42537 -5.42461 -5.43272 -5.43995 -5.45941 -5.47936 -5.49957 -5.52693 -5.55094 -5.57661 -5.60233 -5.62794 -5.64945 -5.66939 -5.68429 -5.69906 -5.71371 -5.7216 -5.73321 -5.74122 -5.74917 -5.75704 -5.75891 -5.76369 -5.76667 -5.76963 -5.77257 -5.7728 -5.77131 -5.76898 -5.76663 -5.7643 -5.76451 -5.76045 -5.75682 -5.75318 -5.74955 -5.75169 -5.75072 -5.75069 -5.75066 -5.75063 -5.75517 -5.75943 -5.76378 -5.76814 -5.7725 -5.77784 -5.78527 -5.79133 -5.7974 -5.80345 -5.80754 -5.81494 -5.82022 -5.82549 -5.8307 -5.8333 -5.83921 -5.84352 -5.84779 -5.85201 -5.85483 -5.85997 -5.86499 -5.87001 -5.87506 -5.88059 -5.88682 -5.89463 -5.90256 -5.91068 -5.92074 -5.92962 -5.94121 -5.95311 -5.96535 -5.98011 -5.99178 -6.0066 -6.02192 -6.03773 -6.05605 -6.06962 -6.08646 -6.10403 -6.12225 -6.14294 -6.15755 -6.1755 -6.19446 -6.21431 -6.23666 -6.25191 -6.27058 -6.29063 -6.31189 -6.33573 -6.35168 -6.37108 -6.39232 -6.41512 -6.44052 -6.45744 -6.47771 -6.50034 -6.52494 -6.552 -6.57023 -6.59153 -6.61571 -6.64224 -6.67102 -6.69083 -6.71329 -6.73908 -6.76757 -6.79798 -6.81945 -6.84307 -6.87046 -6.90095 -6.93302 -6.95663 -6.98173 -7.01061 -7.04261 -7.07569 -7.1013 -7.12782 -7.15799 -7.19115 -7.22495 -7.25239 -7.28026 -7.31153 -7.34553 -7.37979 -7.4089 -7.43807 -7.47026 -7.50475 -7.53926 -7.56979 -7.60031 -7.63331 -7.6681 -7.70289 -7.73477 -7.76664 -7.80042 -7.83558 -7.87074 -7.90386 -7.93698 -7.97156 -8.00722 -8.04287 -8.07714 -8.11141 -8.14679 -8.18302 -8.21925 -8.25456 -8.28986 -8.32602 -8.36294 -8.39986 -8.43615 -8.47244 -8.50935 -8.54695 -8.58454 -8.62171 -8.65888 -8.69649 -8.73476 -8.77303 -8.811 -8.84897 -8.88727 -8.92625 -8.96523 -9.00395 -9.04267 -9.08167 -9.12138 -9.16109 -9.20073 -9.24037 -9.28005 -9.32033 -9.36061 -9.40088 -9.44115 -9.48156 -9.52276 -9.56397 -9.60507 -9.64619 -9.68742 -9.72938 -9.77142 -9.81342 -9.85543 -9.89751 -9.94025 -9.98315 -10.0261 -10.069 -10.1119 -10.1554 -10.1992 -10.243 -10.2869 -10.3306 -10.375 -10.4196 -10.4644 -10.5091 -10.5538 -10.599 -10.6445 -10.6903 -10.736 -10.7815 -10.8275 -10.8738 -10.9206 -10.9672 -11.0136 -11.0603 -11.1073 -11.155 -11.2024 -11.2495 -11.2969 -11.3447 -11.3933 -11.4414 -11.4893 -11.5374 -11.5859 -11.6352 -11.684 -11.7326 -11.7814 -11.8306 -11.8807 -11.9302 -11.9794 -12.0287 -12.0784 -12.1292 -12.1792 -12.2289 -12.2787 -12.3287 -12.3799 -12.4302 -12.4802 -12.5303 -12.5806 -12.6324 -12.683 -12.7331 -12.7832 -12.8332 -12.8852 -12.9358 -12.9859 -13.0359 -13.0857 -13.1378 -13.1885 -13.2384 -13.2881 -13.3376 -13.3896 -13.4402 -13.4898 -13.5391 -13.588 -13.6398 -13.6901 -13.7391 -13.7874 -13.8352 -13.8863 -13.9361 -13.9839 -14.0307 -14.0769 -14.1268 -14.1758 -14.2222 -14.2671 -14.3116 -14.36 -14.4081 -14.4527 -14.4952 -14.5377 -14.5844 -14.6312 -14.6737 -14.7134 -14.7532 -14.7977 -14.8423 -14.8825 -14.919 -14.9556 -14.9975 -15.0394 -15.0769 -15.1095 -15.1423 -15.1807 -15.2193 -15.2534 -15.2815 -15.3097 -15.3441 -15.3778 -15.4071 -15.4311 -15.4537 -15.4831 -15.5097 -15.5332 -15.5541 -15.5705 -15.5941 -15.6121 -15.6291 -15.6462 -15.6564 -15.6715 -15.6812 -15.691 -15.7009 -15.708 -15.7113 -15.7124 -15.7135 -15.7147 -15.7157 -15.7171 -15.7184 -15.7198 -15.7212 -15.7209 -15.7175 -15.7119 -15.7064 -15.7011 -15.6886 -15.6824 -15.6672 -15.6521 -15.6333 -15.6083 -15.5919 -15.5744 -15.5486 -15.5123 -15.4761 -15.4487 -15.4216 -15.3846 -15.3368 -15.2891 -15.2503 -15.2058 -15.1551 -15.1038 -15.044 -14.9968 -14.9404 -14.8841 -14.8281 -14.781 -14.7724 -14.7638 -14.7552 -14.7466 -14.7362 -14.6645 -14.5911 -14.5181 -14.4446 -14.3574 -14.2795 -14.1995 -14.1131 -14.013 -13.9128 -13.8214 -13.7294 -13.6243 -13.5153 -13.4023 -13.3197 -13.2273 -13.1341 -13.041 -12.9593 -12.9332 -12.907 -12.8809 -12.8542 -12.8246 -12.7015 -12.5753 -12.4494 -12.3172 -12.1773 -12.0452 -11.9135 -11.7723 -11.6226 -11.4723 -11.3664 -11.2543 -11.1395 -11.0248 -10.9215 -10.8802 -10.8389 -10.7977 -10.7552 -10.7109 -10.5531 -10.3929 -10.2329 -10.0652 -9.89511 -9.72884 -9.56034 -9.38646 -9.21288 -9.0376 -9.01969 -9.00149 -8.98294 -8.96439 -8.94606 -8.7861 -8.62638 -8.46693 -8.30518 -8.14031 -7.95855 -7.7771 -7.5915 -7.40562 -7.21844 -7.16264 -7.1065 -7.04978 -6.99309 -6.93804 -6.80591 -6.67392 -6.54206 -6.40903 -6.27451 -6.08379 -5.89334 -5.70194 -5.51101 -5.31906 -5.24604 -5.17298 -5.09981 -5.02668 -4.95582 -4.83635 -4.71697 -4.59769 -4.47844 -4.35872 -4.16585 -3.97321 -3.7815 -3.59198 -3.40133 -3.32628 -3.25152 -3.17739 -3.10329 -3.03116 -2.91509 -2.79909 -2.68316 -2.56812 -2.45312 -2.26414 -2.07535 -1.88888 -1.70587 -1.52188 -1.45417 -1.3869 -1.32071 -1.25454 -1.18974 -1.07344 -0.957201 -0.841021 -0.726589 -0.612628 -0.432441 -0.252399 -0.0759284 0.0970169 0.27029 0.327685 0.384581 0.440254 0.495913 0.550742 0.666547 0.782305 0.898014 1.01156 1.12437 1.29266 1.46085 1.62484 1.78593 1.94669 1.9956 2.04402 2.09129 2.13855 2.18532 2.29673 2.40811 2.51945 2.62835 2.73622 2.89114 3.046 3.19639 3.34406 3.49111 3.53682 3.58198 3.62596 3.66993 3.71358 3.81431 3.91503 4.01572 4.11415 4.21134 4.3521 4.49282 4.62966 4.76316 4.89642 4.94602 4.99493 5.04258 5.09022 5.13761 5.2205 5.30338 5.38625 5.46728 5.54703 5.67393 5.80082 5.92414 6.04362 6.16321 6.22468 6.28514 6.3441 6.40306 6.46189 6.51936 6.57684 6.63431 6.69057 6.74573 6.85915 6.97242 7.08229 7.18877 7.2952 7.37653 7.45632 7.53426 7.6122 7.69053 7.71525 7.73998 7.7647 7.78886 7.81236 7.91282 8.01132 8.10983 8.20425 8.29759 8.39213 8.48529 8.57506 8.66486 8.75318 8.76747 8.78137 8.79492 8.80848 8.82207 8.89474 8.96742 9.04011 9.11065 9.17891 9.26216 9.34544 9.42496 9.50166 9.57774 9.61572 9.65259 9.68837 9.72415 9.76043 9.79906 9.83769 9.87633 9.91391 9.95029 10.0228 10.0951 10.165 10.2318 10.2984 10.3575 10.4149 10.4708 10.5267 10.5846 10.5928 10.6009 10.609 10.6169 10.6246 10.6871 10.749 10.8109 10.8709 10.9294 10.9888 11.048 11.1045 11.1608 11.2156 11.2361 11.2561 11.2757 11.2952 11.3152 11.3494 11.3837 11.4179 11.4515 11.484 11.5362 11.5884 11.6389 11.6877 11.7362 11.7852 11.833 11.8799 11.9269 11.9734 11.9749 11.9764 11.9778 11.9792 11.9806 12.0243 12.068 12.1117 12.1549 12.1966 12.24 12.2834 12.3255 12.3663 12.4068 12.445 12.4821 12.5188 12.5556 12.5954 12.5973 12.5993 12.6013 12.6032 12.6051 12.643 12.6809 12.7187 12.7561 12.7924 12.8287 12.8651 12.9005 12.935 12.9692 13.0036 13.0372 13.0704 13.1036 13.1363 13.145 13.1535 13.1619 13.1703 13.179 13.2023 13.2256 13.2489 13.2721 13.2946 13.3253 13.3556 13.3858 13.4153 13.4445 13.4735 13.5026 13.5309 13.5587 13.5864 13.6139 13.6408 13.6675 13.6943 13.7208 13.7267 13.7324 13.7382 13.7439 13.7498 13.7696 13.7895 13.8093 13.8292 13.8485 13.8732 13.8976 13.922 13.9461 13.9698 13.9932 14.0166 14.0397 14.0623 14.0849 14.1071 14.1293 14.151 14.1727 14.1942 14.2153 14.236 14.2567 14.2774 14.298 14.303 14.3078 14.3127 14.3176 14.3226 14.3375 14.3525 14.3674 14.3823 14.397 14.4161 14.435 14.4539 14.4728 14.4914 14.5095 14.5276 14.5457 14.5634 14.5811 14.5984 14.6157 14.6328 14.6497 14.6667 14.6832 14.6996 14.7159 14.7321 14.7482 14.764 14.7796 14.7951 14.8106 14.8261 14.8411 14.856 14.8708 14.8857 14.9005 14.9031 14.9056 14.9082 14.9107 14.9133 14.9251 14.9368 14.9485 14.9602 14.9719 14.9856 14.9992 15.0129 15.0266 15.0401 15.0532 15.0662 15.0793 15.0923 15.1052 15.1177 15.1301 15.1426 15.155 15.1673 15.1792 15.191 15.2029 15.2147 15.2265 15.2378 15.2491 15.2604 15.2716 15.2829 15.2937 15.3045 15.3152 15.3259 15.3366 15.3469 15.3572 15.3673 15.3775 15.3878 15.3976 15.4073 15.417 15.4267 15.4365 15.4458 15.4551 15.4643 15.4736 15.4828 15.4917 15.5004 15.5092 15.518 15.5269 15.5271 15.5273 15.5274 15.5276 15.5278 15.536 15.5442 15.5525 15.5607 15.5689 15.5769 15.5848 15.5928 15.6008 15.6089 15.6163 15.6239 15.6315 15.6391 15.6468 15.6539 15.6611 15.6684 15.6757 15.6831 15.6898 15.6967 15.7037 15.7107 15.7178 15.7242 15.7307 15.7373 15.7441 15.7508 15.7569 15.763 15.7693 15.7758 15.7822 15.788 15.7938 15.7998 15.806 15.8122 15.8177 15.8233 15.829 15.8349 15.8408 15.8461 15.8514 15.8569 15.8625 15.8681 15.8732 15.8782 15.8833 15.8887 15.8941 15.8988 15.9036 15.9085 15.9136 15.9188 15.9233 15.9279 15.9326 15.9375 15.9424 15.9468 15.9512 15.9557 15.9603 15.9651 15.9692 15.9735 15.9779 15.9823 15.9869 15.991 15.9952 15.9994 16.0037 16.0081 16.012 16.0161 16.0202 16.0242 16.0285 16.0323 16.0363 16.0403 16.0443 16.0484 16.0522 16.0562 16.0601 16.064 16.0681 16.0718 16.0756 16.0793 16.0831 16.087 16.0906 16.0943 16.098 16.1017 16.1055 16.1091 16.1129 16.1166 16.1203 16.124 16.1277 16.1314 16.135 16.1387 16.1423 16.146 16.1496 16.1533 16.1569 16.1606 16.1616 16.1626 16.1636 16.1646 16.1658 16.1685 16.1712 16.1739 16.1766 16.1793 16.1833 16.1873 16.1913 16.1953 16.1994 16.2039 16.2085 16.213 16.2175 16.2221 16.2279 16.2336 16.2394 16.2451 16.251 16.2534 16.2557 16.2579 16.2601 16.2604 16.2628 16.2652 16.2676 16.2701 16.2721 16.2742 16.2765 16.2787 16.2808 16.2825 16.2794 16.2704 16.2615 16.2526 16.2411 16.2356 16.23 16.2244 16.2187 16.2078 16.1678 16.127 16.0862 16.0452 15.9982 15.9491 15.9046 15.86 15.8158 15.7749 15.7336 15.6924 15.6513 15.6102 15.5692 15.5268 15.4837 15.439 15.3921 15.3444 15.2951 15.2457 15.1958 15.1448 15.0938 15.0412 14.9885 14.9352 14.8811 14.827 14.7714 14.7157 14.6578 14.5977 14.5375 14.4757 14.4139 14.3489 14.2812 14.2135 14.1439 14.0739 14.0017 13.9282 13.8543 13.778 13.701 13.6227 13.5434 13.4633 13.3805 13.2964 13.2116 13.1262 13.0393 12.9494 12.8567 12.7637 12.6708 12.5749 12.4749 12.3717 12.2686 12.1654 12.0598 11.9475 11.8329 11.7182 11.6036 11.4875 11.3619 11.2348 11.1078 10.9807 10.8529 10.7674 10.6811 10.5949 10.5086 10.4111 10.3585 10.3058 10.2532 10.2005 10.1475 9.99113 9.83429 9.67744 9.52058 9.36217 9.1887 9.0129 8.83708 8.66125 8.4818 8.2888 8.09256 7.89631 7.70004 7.49968 7.28625 7.06057 6.83486 6.60913 6.36879 6.11742 5.86994 5.62253 5.3757 5.13276 4.87956 4.58218 4.27115 3.93956 3.568 3.18135 2.85259 2.57131 2.34461 2.17048 1.98819 1.73012 1.31609 0.685288 0