# vtk DataFile Version 2.0
track0
ASCII
DATASET POLYDATA
POINTS 12035 float
-0.0205 0.001 1e-05
-0.02052 0.000999985 1e-05
-0.02054 0.000999974 1e-05
-0.02056 0.000999965 1e-05
-0.02058 0.000999959 1e-05
-0.0206 0.000999956 1e-05
-0.0205 0.00367778 1e-05
-0.02052 0.00367778 1e-05
-0.02054 0.00367777 1e-05
-0.02056 0.00367777 1e-05
-0.02058 0.00367777 1e-05
-0.0206 0.00367777 1e-05
-0.0205 0.00635556 1e-05
-0.02052 0.00635555 1e-05
-0.02054 0.00635555 1e-05
-0.02056 0.00635555 1e-05
-0.02058 0.00635555 1e-05
-0.0206 0.00635555 1e-05
-0.0205 0.00903333 1e-05
-0.02052 0.00903333 1e-05
-0.02054 0.00903333 1e-05
-0.02056 0.00903333 1e-05
-0.02058 0.00903333 1e-05
-0.0206 0.00903333 1e-05
-0.0205 0.0117111 1e-05
-0.02052 0.0117111 1e-05
-0.02054 0.0117111 1e-05
-0.02056 0.0117111 1e-05
-0.02058 0.0117111 1e-05
-0.0206 0.0117111 1e-05
-0.0205 0.0143889 1e-05
-0.02052 0.0143889 1e-05
-0.02054 0.0143889 1e-05
-0.02056 0.0143889 1e-05
-0.02058 0.0143889 1e-05
-0.0206 0.0143889 1e-05
-0.0205 0.0170667 1e-05
-0.02052 0.0170667 1e-05
-0.02054 0.0170667 1e-05
-0.02056 0.0170667 1e-05
-0.02058 0.0170667 1e-05
-0.0206 0.0170667 1e-05
-0.0205 0.0197444 1e-05
-0.02052 0.0197444 1e-05
-0.02054 0.0197444 1e-05
-0.02056 0.0197444 1e-05
-0.02058 0.0197444 1e-05
-0.0206 0.0197444 1e-05
-0.0205 0.0224222 1e-05
-0.02052 0.0224222 1e-05
-0.02054 0.0224222 1e-05
-0.02056 0.0224222 1e-05
-0.02058 0.0224222 1e-05
-0.0206 0.0224222 1e-05
-0.0205 0.0251 1e-05
-0.02052 0.0250998 1e-05
-0.02054 0.0250997 1e-05
-0.02056 0.0250995 1e-05
-0.02058 0.0250995 1e-05
-0.0206 0.0250994 1e-05
-0.0205 0.001 1e-05
-0.0202034 0.00100022 1e-05
-0.0199069 0.00100067 1e-05
-0.0196103 0.00100132 1e-05
-0.0193137 0.00100219 1e-05
-0.0190172 0.00100326 1e-05
-0.0187132 0.00100466 1e-05
-0.0184093 0.00100588 1e-05
-0.0181054 0.0010071 1e-05
-0.0178015 0.00100832 1e-05
-0.0174976 0.00100953 1e-05
-0.0172058 0.00101083 1e-05
-0.016914 0.00101193 1e-05
-0.0166222 0.00101303 1e-05
-0.0163305 0.00101413 1e-05
-0.0160387 0.00101523 1e-05
-0.0157586 0.00101637 1e-05
-0.0154784 0.00101745 1e-05
-0.0151983 0.00101857 1e-05
-0.0149182 0.00101972 1e-05
-0.0146381 0.00102091 1e-05
-0.0143752 0.00102209 1e-05
-0.0141123 0.00102328 1e-05
-0.0138494 0.00102449 1e-05
-0.0135866 0.00102574 1e-05
-0.0133646 0.00102682 1e-05
-0.0133503 0.00102689 1e-05
-0.0133361 0.00102696 1e-05
-0.0133219 0.00102703 1e-05
-0.0133077 0.0010271 1e-05
-0.0132934 0.00102717 1e-05
-0.0130353 0.00102846 1e-05
-0.0127771 0.00102976 1e-05
-0.0125189 0.00103109 1e-05
-0.0122607 0.00103242 1e-05
-0.0120025 0.00103378 1e-05
-0.0117547 0.00103509 1e-05
-0.0115068 0.0010364 1e-05
-0.0112589 0.00103773 1e-05
-0.0110111 0.00103905 1e-05
-0.0107632 0.00104039 1e-05
-0.0105252 0.00104166 1e-05
-0.0102873 0.00104295 1e-05
-0.0100493 0.00104423 1e-05
-0.00981133 0.00104551 1e-05
-0.00957337 0.00104679 1e-05
-0.00934491 0.00104801 1e-05
-0.00911645 0.00104924 1e-05
-0.00888799 0.00105046 1e-05
-0.00865954 0.00105168 1e-05
-0.00843108 0.0010529 1e-05
-0.00821175 0.00105406 1e-05
-0.00799242 0.00105522 1e-05
-0.00777309 0.00105638 1e-05
-0.00755376 0.00105754 1e-05
-0.00733443 0.00105869 1e-05
-0.00712387 0.00105978 1e-05
-0.0069133 0.00106088 1e-05
-0.00670273 0.00106197 1e-05
-0.00649216 0.00106306 1e-05
-0.0062816 0.00106415 1e-05
-0.00607944 0.00106518 1e-05
-0.00587729 0.00106622 1e-05
-0.00567514 0.00106725 1e-05
-0.00547298 0.00106827 1e-05
-0.00527083 0.0010693 1e-05
-0.00507675 0.00107027 1e-05
-0.00488267 0.00107125 1e-05
-0.0046886 0.00107222 1e-05
-0.00449452 0.00107319 1e-05
-0.00430044 0.00107416 1e-05
-0.00411412 0.00107508 1e-05
-0.0039278 0.001076 1e-05
-0.00374147 0.00107692 1e-05
-0.00355515 0.00107784 1e-05
-0.00336883 0.00107876 1e-05
-0.00318995 0.00107963 1e-05
-0.00301107 0.00108051 1e-05
-0.00283219 0.00108139 1e-05
-0.00265331 0.00108227 1e-05
-0.00247443 0.00108315 1e-05
-0.0023027 0.00108399 1e-05
-0.00213097 0.00108483 1e-05
-0.00195924 0.00108568 1e-05
-0.0017875 0.00108653 1e-05
-0.00161577 0.00108738 1e-05
-0.0014509 0.0010882 1e-05
-0.00128603 0.00108902 1e-05
-0.00112116 0.00108985 1e-05
-0.00095629 0.00109069 1e-05
-0.000791418 0.00109154 1e-05
-0.000633135 0.00109235 1e-05
-0.000474851 0.00109318 1e-05
-0.000316568 0.00109402 1e-05
-0.000158284 0.00109487 1e-05
0 0.00109572 1e-05
0.000105677 0.00109629 1e-05
0.000211355 0.00109687 1e-05
0.000317032 0.00109745 1e-05
0.00042271 0.00109803 1e-05
0.000528387 0.00109861 1e-05
0.000634886 0.00109918 1e-05
0.000741385 0.00109976 1e-05
0.000847885 0.00110033 1e-05
0.000954384 0.00110089 1e-05
0.00106088 0.00110145 1e-05
0.00116821 0.00110201 1e-05
0.00127554 0.00110256 1e-05
0.00138286 0.0011031 1e-05
0.00149019 0.00110364 1e-05
0.00159752 0.00110416 1e-05
0.00170568 0.00110468 1e-05
0.00181384 0.00110519 1e-05
0.001922 0.00110569 1e-05
0.00203016 0.00110618 1e-05
0.00213833 0.00110666 1e-05
0.00224733 0.00110712 1e-05
0.00235633 0.00110759 1e-05
0.00246533 0.00110804 1e-05
0.00257434 0.00110849 1e-05
0.00268334 0.00110892 1e-05
0.00279319 0.00110935 1e-05
0.00290304 0.00110977 1e-05
0.00301289 0.00111018 1e-05
0.00312274 0.00111058 1e-05
0.00323259 0.00111098 1e-05
0.00334329 0.00111136 1e-05
0.003454 0.00111174 1e-05
0.0035647 0.00111211 1e-05
0.0036754 0.00111247 1e-05
0.00378611 0.00111282 1e-05
0.00389767 0.00111316 1e-05
0.00400924 0.0011135 1e-05
0.0041208 0.00111382 1e-05
0.00423237 0.00111414 1e-05
0.00434393 0.00111446 1e-05
0.00445636 0.00111475 1e-05
0.00456879 0.00111505 1e-05
0.00468123 0.00111534 1e-05
0.00479366 0.00111562 1e-05
0.00490609 0.00111589 1e-05
0.0050194 0.00111614 1e-05
0.0051327 0.0011164 1e-05
0.00524601 0.00111664 1e-05
0.00535932 0.00111688 1e-05
0.00547262 0.00111711 1e-05
0.00558681 0.00111733 1e-05
0.005701 0.00111754 1e-05
0.00581518 0.00111775 1e-05
0.00592937 0.00111794 1e-05
0.00604356 0.00111813 1e-05
0.00615863 0.00111831 1e-05
0.00627371 0.00111848 1e-05
0.00638878 0.00111865 1e-05
0.00650386 0.0011188 1e-05
0.00661893 0.00111895 1e-05
0.0067349 0.00111909 1e-05
0.00685087 0.00111922 1e-05
0.00696684 0.00111934 1e-05
0.00708281 0.00111946 1e-05
0.00719878 0.00111956 1e-05
0.00731565 0.00111966 1e-05
0.00743252 0.00111975 1e-05
0.00754939 0.00111983 1e-05
0.00766626 0.00111991 1e-05
0.00778313 0.00111997 1e-05
0.0078558 0.00112 1e-05
0.00792846 0.00112003 1e-05
0.00800112 0.00112006 1e-05
0.00807379 0.00112009 1e-05
0.00814373 0.00112011 1e-05
0.00818939 0.00112012 1e-05
0.00823505 0.00112013 1e-05
0.00828071 0.00112014 1e-05
0.00832637 0.00112015 1e-05
0.00837203 0.00112015 1e-05
0.00849073 0.00112016 1e-05
0.00860942 0.00112017 1e-05
0.00872812 0.00112016 1e-05
0.00884682 0.00112015 1e-05
0.00896551 0.00112013 1e-05
0.00908513 0.00112009 1e-05
0.00920475 0.00112005 1e-05
0.00932437 0.00112 1e-05
0.00944398 0.00111994 1e-05
0.0095636 0.00111987 1e-05
0.00968415 0.00111978 1e-05
0.0098047 0.00111969 1e-05
0.00992525 0.0011196 1e-05
0.0100458 0.00111949 1e-05
0.0101663 0.00111937 1e-05
0.0102878 0.00111924 1e-05
0.0104093 0.0011191 1e-05
0.0105308 0.00111895 1e-05
0.0106523 0.0011188 1e-05
0.0107738 0.00111863 1e-05
0.0108962 0.00111845 1e-05
0.0110186 0.00111826 1e-05
0.0111411 0.00111806 1e-05
0.0112635 0.00111786 1e-05
0.0113859 0.00111764 1e-05
0.0115093 0.0011174 1e-05
0.0116327 0.00111716 1e-05
0.0117561 0.00111691 1e-05
0.0118795 0.00111665 1e-05
0.0120028 0.00111638 1e-05
0.0121272 0.00111609 1e-05
0.0122515 0.0011158 1e-05
0.0123759 0.0011155 1e-05
0.0125002 0.00111518 1e-05
0.0126245 0.00111486 1e-05
0.0127498 0.00111451 1e-05
0.0128752 0.00111417 1e-05
0.0130005 0.00111381 1e-05
0.0131258 0.00111344 1e-05
0.0132511 0.00111306 1e-05
0.0133774 0.00111266 1e-05
0.0135036 0.00111225 1e-05
0.0136299 0.00111183 1e-05
0.0137562 0.00111141 1e-05
0.0138825 0.00111097 1e-05
0.0140098 0.00111051 1e-05
0.014137 0.00111005 1e-05
0.0142643 0.00110957 1e-05
0.0143915 0.00110908 1e-05
0.0145188 0.00110859 1e-05
0.0146471 0.00110807 1e-05
0.0147753 0.00110755 1e-05
0.0149036 0.00110701 1e-05
0.0150318 0.00110646 1e-05
0.0151601 0.0011059 1e-05
0.0152893 0.00110533 1e-05
0.0154186 0.00110475 1e-05
0.0155478 0.00110415 1e-05
0.0156771 0.00110354 1e-05
0.0158063 0.00110292 1e-05
0.0159366 0.00110229 1e-05
0.0160668 0.00110164 1e-05
0.0161971 0.00110098 1e-05
0.0163273 0.0011003 1e-05
0.0164576 0.00109962 1e-05
0.0165889 0.00109893 1e-05
0.0167201 0.00109822 1e-05
0.0168514 0.0010975 1e-05
0.0169827 0.00109676 1e-05
0.0171139 0.00109601 1e-05
0.0172462 0.00109526 1e-05
0.0173785 0.00109449 1e-05
0.0175108 0.0010937 1e-05
0.0176431 0.00109289 1e-05
0.0177754 0.00109208 1e-05
0.0179087 0.00109127 1e-05
0.018042 0.00109043 1e-05
0.0181753 0.00108958 1e-05
0.0183087 0.00108871 1e-05
0.018442 0.00108783 1e-05
0.0185763 0.00108696 1e-05
0.0187107 0.00108605 1e-05
0.018845 0.00108513 1e-05
0.0189794 0.00108419 1e-05
0.0191137 0.00108325 1e-05
0.0192491 0.00108231 1e-05
0.0193845 0.00108135 1e-05
0.0195199 0.00108035 1e-05
0.0196553 0.00107935 1e-05
0.0197907 0.00107834 1e-05
0.0199272 0.00107734 1e-05
0.0200636 0.0010763 1e-05
0.0202001 0.00107524 1e-05
0.0203365 0.00107417 1e-05
0.020473 0.0010731 1e-05
0.0206105 0.00107202 1e-05
0.020748 0.00107092 1e-05
0.0208855 0.00106979 1e-05
0.021023 0.00106865 1e-05
0.0211606 0.00106751 1e-05
0.0212991 0.00106637 1e-05
0.0214377 0.0010652 1e-05
0.0215763 0.001064 1e-05
0.0217149 0.00106279 1e-05
0.0218535 0.00106158 1e-05
0.0219931 0.00106038 1e-05
0.0221328 0.00105914 1e-05
0.0222724 0.00105787 1e-05
0.0224121 0.00105658 1e-05
0.0225517 0.00105531 1e-05
0.0226925 0.00105403 1e-05
0.0228332 0.00105272 1e-05
0.022974 0.00105138 1e-05
0.0231147 0.00105003 1e-05
0.0232555 0.00104868 1e-05
0.0233973 0.00104733 1e-05
0.0235391 0.00104595 1e-05
0.023681 0.00104454 1e-05
0.0238228 0.00104311 1e-05
0.0239647 0.00104169 1e-05
0.0241076 0.00104027 1e-05
0.0242505 0.00103882 1e-05
0.0243935 0.00103733 1e-05
0.0245364 0.00103583 1e-05
0.0246794 0.00103434 1e-05
0.0248234 0.00103285 1e-05
0.0249675 0.00103132 1e-05
0.0251115 0.00102975 1e-05
0.0252556 0.00102818 1e-05
[...]
POINT_DATA 12035
 FIELD attributes 1
U 3 12035 float
10.0004 	0.00731844 	0 10.0004 	0.00585475 	0 10.0003 	0.00439106 	0 10.0002 	0.00292737 	0 10.0001 	0.00146369 	0 10 	0 	0
10.0001 	0.000881413 	0 10 	0.00070513 	0 10 	0.000528848 	0 10 	0.000352565 	0 10 	0.000176283 	0 10 	0 	0
10.0001 	0.000469555 	0 10.0001 	0.000375454 	0 10.0001 	0.000281354 	0 10 	0.000187253 	0 10 	9.31518e-05 	0 10 	0 	0
10 	0.000270113 	0 10 	0.00021609 	0 10 	0.000162068 	0 10 	0.000108045 	0 10 	5.40226e-05 	0 10 	0 	0
10 	8.44401e-05 	0 10 	6.75521e-05 	0 10 	5.0664e-05 	0 10 	3.3776e-05 	0 10 	1.6888e-05 	0 10 	0 	0
10 	-2.25639e-05 	0 10 	-1.80511e-05 	0 10 	-1.35383e-05 	0 10 	-9.02556e-06 	0 10 	-4.51278e-06 	0 10 	0 	0
10 	-0.000213519 	0 10 	-0.000170815 	0 10 	-0.000128111 	0 10 	-8.54076e-05 	0 10 	-4.27038e-05 	0 10 	0 	0
10 	-0.000376088 	0 10 	-0.000300871 	0 10 	-0.000225653 	0 10 	-0.000150435 	0 10 	-7.52177e-05 	0 10 	0 	0
9.99999 	-0.000426473 	0 9.99999 	-0.000341178 	0 9.99999 	-0.000255884 	0 10 	-0.000170589 	0 10 	-8.52946e-05 	0 10 	0 	0
9.17387 	0.0870993 	0 9.1308 	0.0696795 	0 9.08741 	0.0522593 	0 9.04368 	0.034839 	0 8.99962 	0.0174184 	0 8.95524 	0 	0
10.0004 	0.00731844 	0 10.0024 	0.0151698 	0 10.0045 	0.0221897 	0 10.0065 	0.0291654 	0 10.0085 	0.0360971 	0 10.0135 	0.0463134 	0 10.0163 	0.0402141 	0 10.0207 	0.0401746 	0 10.0251 	0.0401352 	0 10.0296 	0.0400961 	0 10.0355 	0.0445588 	0 10.0384 	0.0379213 	0 10.0424 	0.0378795 	0 10.0464 	0.0378378 	0 10.0504 	0.037796 	0 10.0545 	0.040898 	0 10.0566 	0.0388239 	0 10.0591 	0.0401358 	0 10.0615 	0.0414493 	0 10.0639 	0.0427644 	0 10.0661 	0.0452237 	0 10.0676 	0.0453371 	0 10.0689 	0.04654 	0 10.0702 	0.0477441 	0 10.0715 	0.0489492 	0 10.0727 	0.0499679 	0 10.0727 	0.0500336 	0 10.0728 	0.0500994 	0 10.0729 	0.0501651 	0 10.0729 	0.0502308 	0 10.073 	0.0502867 	0 10.0735 	0.0509181 	0 10.074 	0.0515431 	0 10.0745 	0.0521687 	0 10.0751 	0.0527949 	0 10.0755 	0.0532565 	0 10.0754 	0.0535584 	0 10.075 	0.0537545 	0 10.0747 	0.0539508 	0 10.0743 	0.0541471 	0 10.0737 	0.0541047 	0 10.0733 	0.0542581 	0 10.0722 	0.0542428 	0 10.0711 	0.0542274 	0 10.07 	0.054212 	0 10.0684 	0.0539272 	0 10.068 	0.0540189 	0 10.0663 	0.0538964 	0 10.0647 	0.0537738 	0 10.063 	0.0536512 	0 10.0604 	0.0532425 	0 10.0604 	0.0533123 	0 10.0583 	0.0531329 	0 10.0563 	0.0529535 	0 10.0542 	0.0527741 	0 10.0506 	0.0522966 	0 10.0512 	0.0523717 	0 10.0488 	0.0521728 	0 10.0465 	0.0519737 	0 10.0441 	0.0517747 	0 10.0394 	0.0512706 	0 10.0409 	0.0513758 	0 10.0383 	0.0511823 	0 10.0357 	0.0509888 	0 10.0331 	0.0507952 	0 10.0273 	0.0502848 	0 10.0297 	0.0504328 	0 10.027 	0.0502693 	0 10.0242 	0.0501058 	0 10.0215 	0.0499423 	0 10.0145 	0.0494583 	0 10.0181 	0.0496703 	0 10.0152 	0.0495486 	0 10.0124 	0.0494269 	0 10.0096 	0.0493052 	0 10.0013 	0.0488483 	0 10.0061 	0.0491445 	0 10.0033 	0.0491397 	0 10.0004 	0.0491349 	0 9.99757 	0.0491301 	0 9.98816 	0.0488138 	0 9.99431 	0.0492685 	0 9.99147 	0.0493564 	0 9.98863 	0.0494442 	0 9.9858 	0.0495321 	0 9.97515 	0.0492375 	0 9.98274 	0.0498142 	0 9.98007 	0.0502643 	0 9.97739 	0.0507145 	0 9.97472 	0.0511648 	0 9.96298 	0.0513331 	0 9.97232 	0.0522452 	6.55471e-22 9.97059 	0.052808 	4.57997e-21 9.96886 	0.053371 	8.50401e-21 9.96714 	0.053934 	1.24276e-20 9.95523 	0.0539197 	1.04206e-20 9.96617 	0.0544787 	7.42034e-20 9.96493 	0.0544849 	6.90214e-20 9.96368 	0.0544911 	6.38396e-20 9.96243 	0.0544973 	5.86579e-20 9.95038 	0.0539296 	-1.19953e-20 9.96142 	0.0538115 	-3.25519e-20 9.96021 	0.0533215 	-3.61381e-20 9.95899 	0.0528315 	-3.97223e-20 9.95777 	0.0523414 	-4.33044e-20 9.94569 	0.0515749 	-1.64153e-20 9.95627 	0.0511381 	-1.45214e-20 9.95462 	0.0502605 	-1.00539e-20 9.95296 	0.0493828 	-5.58692e-21 9.95129 	0.048505 	-1.12046e-21 9.93899 	0.0474546 	5.79567e-21 9.94914 	0.0470474 	-3.88652e-21 9.94704 	0.046029 	-1.84667e-20 9.94494 	0.0450104 	-3.30489e-20 9.94283 	0.0439916 	-4.7633e-20 9.93026 	0.042656 	-6.86078e-20 9.93991 	0.0424232 	-9.96513e-20 9.93736 	0.0414858 	-8.99935e-20 9.9348 	0.0405481 	-8.03288e-20 9.93223 	0.0396101 	-7.06574e-20 9.91939 	0.0381627 	-2.31349e-20 9.92845 	0.0380535 	3.06742e-20 9.92542 	0.0372098 	4.1304e-20 9.92238 	0.0363658 	5.19254e-20 9.91934 	0.0355216 	6.25385e-20 9.9063 	0.0340665 	2.86974e-20 9.91469 	0.0339591 	-4.29034e-20 9.91117 	0.0331451 	-4.77467e-20 9.90765 	0.0323308 	-5.2577e-20 9.90412 	0.0315162 	-5.73942e-20 9.89097 	0.0301027 	-2.04217e-22 9.89855 	0.0299502 	5.42812e-20 9.89452 	0.0291523 	4.69539e-20 9.89048 	0.0283541 	3.96137e-20 9.88644 	0.0275556 	3.22606e-20 9.87322 	0.0262209 	-2.14496e-20 9.87984 	0.0260159 	-6.83896e-20 9.87527 	0.0252333 	-8.59147e-20 9.87069 	0.0244505 	-1.03435e-19 9.86611 	0.0236673 	-1.20951e-19 9.85293 	0.0224235 	-1.0539e-19 9.85836 	0.022171 	-1.25214e-19 9.85325 	0.0214049 	-1.1544e-19 9.84812 	0.0206385 	-1.05662e-19 9.84299 	0.0198718 	-9.58798e-20 9.83004 	0.0187177 	-6.39458e-20 9.83401 	0.0184242 	-5.43716e-20 9.82835 	0.0176749 	-3.97898e-20 9.82268 	0.0169253 	-2.52096e-20 9.81701 	0.0161753 	-1.06309e-20 9.80454 	0.0151035 	2.17017e-21 9.80671 	0.0147582 	0 9.80053 	0.0140185 	0 9.79433 	0.0132785 	0 9.78813 	0.0125381 	0 9.77648 	0.0115433 	0 9.77645 	0.011129 	-1.20879e-20 9.76975 	0.0103971 	-2.7065e-20 9.76304 	0.00966475 	-4.20437e-20 9.75633 	0.00893204 	-5.70238e-20 9.74589 	0.00802472 	-7.31801e-20 9.74321 	0.00752024 	-7.99145e-20 9.73602 	0.0067966 	-8.0468e-20 9.72881 	0.00607254 	-8.1017e-20 9.7216 	0.00534805 	-8.15612e-20 9.71281 	0.00454879 	-7.95791e-20 9.70996 	0.00419791 	-6.17732e-20 9.70524 	0.00375426 	-4.75612e-20 9.7005 	0.00331043 	-3.33525e-20 9.69577 	0.00286641 	-1.91471e-20 9.6912 	0.00243883 	-5.47596e-21 9.68819 	0.00215796 	3.45754e-21 9.68517 	0.00187702 	1.23898e-20 9.68215 	0.001596 	2.13207e-20 9.67913 	0.0013149 	3.02503e-20 9.67364 	0.000921563 	4.11603e-20 9.66769 	0.000300396 	4.19606e-20 9.65948 	-0.000420773 	4.28183e-20 9.65126 	-0.00114249 	4.36741e-20 9.64303 	-0.00186477 	4.45278e-20 9.62612 	-0.00295968 	4.63689e-20 9.62536 	-0.00335273 	3.67068e-20 9.61671 	-0.00407242 	2.7043e-20 9.60806 	-0.00479272 	1.73781e-20 9.59938 	-0.00551363 	7.71215e-21 9.57624 	-0.00681351 	-6.01218e-22 9.58032 	-0.00703305 	-7.31812e-21 9.57127 	-0.0077548 	-1.65684e-20 9.56221 	-0.00847721 	-2.58175e-20 9.55314 	-0.00920028 	-3.50656e-20 9.52433 	-0.010647 	-4.43229e-20 9.53277 	-0.0107492 	-4.54819e-20 9.52336 	-0.0114747 	-5.12604e-20 9.51392 	-0.0122009 	-5.70359e-20 9.50448 	-0.0129278 	-6.28086e-20 9.4707 	-0.0144589 	-7.60912e-20 9.48296 	-0.014498 	-1.10643e-19 9.4732 	-0.0152276 	-1.03085e-19 9.46343 	-0.015958 	-9.55383e-20 9.45365 	-0.0166892 	-8.80043e-20 9.41564 	-0.0182428 	-3.23968e-20 9.43111 	-0.0182755 	-2.13744e-20 9.42105 	-0.0190106 	-1.51385e-20 9.41097 	-0.0197465 	-8.90181e-21 9.40088 	-0.0204832 	-2.66441e-21 9.35942 	-0.0219982 	0 9.3775 	-0.0220827 	0 9.36717 	-0.0228243 	0 9.35681 	-0.0235668 	0 9.34644 	-0.0243101 	0 9.30231 	-0.0257257 	0 9.32241 	-0.0259163 	1.74708e-21 9.31183 	-0.0266637 	7.54646e-21 9.30123 	-0.027412 	1.33451e-20 9.29061 	-0.0281612 	1.9143e-20 9.24455 	-0.0294188 	3.25944e-20 9.2661 	-0.0297625 	1.18555e-19 9.25531 	-0.0305144 	1.20923e-19 9.24449 	-0.0312673 	1.23305e-19 9.23365 	-0.032021 	1.25702e-19 9.18634 	-0.0330699 	3.27513e-20 9.20885 	-0.0336063 	1.81014e-20 9.19787 	-0.0343616 	1.28471e-20 9.18686 	-0.0351179 	7.59196e-21 9.17584 	-0.0358752 	2.33593e-21 9.12789 	-0.0366732 	1.29951e-20 9.14996 	-0.0374337 	8.2484e-20 9.13977 	-0.0381919 	8.5556e-20 9.1286 	-0.038951 	8.66591e-20 9.1142 	-0.0396897 	8.02915e-20 9.06938 	-0.0402263 	2.97238e-21 9.08817 	-0.0412046 	-7.91961e-20 9.08125 	-0.041997 	-9.80134e-20 9.06994 	-0.0427587 	-1.06069e-19 9.05236 	-0.0434257 	-1.01307e-19 9.01097 	-0.0437294 	-4.77125e-20 9.02675 	-0.0448983 	-1.40976e-19 9.02254 	-0.0457698 	-1.67129e-19 9.01112 	-0.0465349 	-1.69115e-19 8.99103 	-0.0470861 	-1.37838e-19 8.9528 	-0.0471885 	-3.69309e-20 8.96584 	-0.0485259 	-1.92784e-20 8.96385 	-0.0495146 	-8.92873e-21 8.95234 	-0.050283 	-3.20026e-21 8.93033 	-0.05068 	0 8.89503 	-0.0506064 	0 8.90559 	-0.052084 	0 8.90537 	-0.053218 	0 8.8938 	-0.0539888 	0 8.87039 	-0.0542029 	1.48011e-21 8.83776 	-0.0539828 	4.11327e-21 8.84609 	-0.0555793 	1.60907e-21 8.84727 	-0.0568824 	0 8.83564 	-0.0576562 	0 8.81129 	-0.0576658 	1.80758e-21 8.78111 	-0.0573244 	4.44445e-21 8.78744 	-0.0590181 	1.94028e-21 8.7897 	-0.0605061 	1.16594e-21 8.77805 	-0.0612805 	6.3477e-21 8.75314 	-0.0610661 	1.92564e-20 8.72516 	-0.0606217 	3.39596e-20 8.72972 	-0.0623802 	1.34155e-19 8.73278 	-0.0640526 	2.25651e-19 8.72112 	-0.0648297 	2.28595e-19 8.69598 	-0.0643995 	1.34585e-19 8.66999 	-0.0638921 	3.44101e-20 8.67298 	-0.0657166 	1.99385e-20 8.67591 	-0.067543 	5.46832e-21 8.66408 	-0.0682809 	1.8152e-22 8.63987 	-0.0677173 	2.72044e-21 8.61567 	-0.0671534 	5.25922e-21 8.61728 	-0.0690238 	2.85851e-21 8.61883 	-0.0708962 	4.58638e-22 8.60746 	-0.0716013 	1.88188e-21 8.58486 	-0.0709902 	-1.15139e-21 8.56227 	-0.0703788 	-4.18383e-21 8.56267 	-0.0722763 	-3.88627e-20 8.56301 	-0.0741757 	-7.35454e-20 8.55215 	-0.0748489 	-7.46505e-20 8.53097 	-0.0742113 	-4.29378e-20 8.50981 	-0.0735731 	-1.12233e-20 8.50918 	-0.0754935 	6.78385e-20 8.50848 	-0.0774157 	1.46895e-19 8.49814 	-0.0780605 	1.53696e-19 8.47823 	-0.0774066 	8.77297e-20 8.45834 	-0.0767523 	2.17634e-20 8.4568 	-0.0786726 	1.25767e-20 8.45519 	-0.0805948 	3.38654e-21 8.4454 	-0.0812133 	1.05423e-22 8.42662 	-0.080569 	3.83386e-21 8.40786 	-0.0799243 	7.56353e-21 8.40551 	-0.0818363 	3.02743e-21 8.4031 	-0.0837502 	-1.51357e-21 8.39387 	-0.0843467 	-1.61714e-20 8.37611 	-0.0837262 	-5.61512e-20 8.35836 	-0.0831053 	-9.61327e-20 8.35531 	-0.0850037 	-2.00544e-19 8.35219 	-0.0869038 	-3.0495e-19 8.34352 	-0.0874812 	-2.92174e-19 8.32667 	-0.0868934 	-1.72468e-19 8.30984 	-0.0863053 	-5.27621e-20 8.30616 	-0.0881881 	4.63583e-20 8.3021 	-0.0899836 	1.38801e-19 8.29353 	-0.0905209 	1.36737e-19 8.27829 	-0.0900833 	7.21523e-20 8.26229 	-0.0895323 	3.14206e-22 8.25805 	-0.091399 	-7.09483e-20 8.25284 	-0.0929791 	-1.28186e-19 8.24439 	-0.0935314 	-1.35362e-19 8.23095 	-0.0933043 	-9.18799e-20 8.2157 	-0.0927935 	-2.99729e-20 8.21096 	-0.094644 	-2.11381e-20 8.20484 	-0.0960154 	-1.23775e-20 8.19649 	-0.096584 	-3.73804e-21 8.18461 	-0.0965643 	9.31965e-21 8.17004 	-0.0960957 	2.57484e-20 8.16485 	-0.0979308 	8.20751e-21 8.15802 	-0.0991013 	-2.45009e-21 8.14976 	-0.0996873 	-7.05435e-21 8.13923 	-0.0998711 	-5.07899e-21 8.12529 	-0.0994461 	6.85063e-21 8.1197 	-0.101267 	-6.5453e-21 8.11232 	-0.102245 	-1.41453e-20 8.10415 	-0.102849 	-1.91759e-20 8.09479 	-0.103232 	-2.69427e-20 8.0814 	-0.102852 	-4.41169e-20 8.07545 	-0.10466 	4.21488e-20 8.06768 	-0.105453 	5.59453e-20 8.05958 	-0.106077 	5.75641e-20 8.05123 	-0.106655 	5.54787e-20 8.03835 	-0.10632 	-1.83442e-20 8.03204 	-0.10809 	5.27623e-20 8.02403 	-0.108734 	5.48845e-20 8.016 	-0.109379 	5.69958e-20 8.00794 	-0.110024 	5.90961e-20 7.99609 	-0.109857 	6.76658e-21 7.98927 	-0.111429 	-3.39301e-22 7.98132 	-0.112094 	-2.36913e-22 7.97335 	-0.11276 	-1.34542e-22 7.96535 	-0.113426 	-3.21872e-23 7.9546 	-0.113469 	1.08167e-20 7.9474 	-0.114851 	0 7.9395 	-0.115539 	0 7.93157 	-0.116227 	0 7.92361 	-0.116915 	0 7.91382 	-0.117162 	7.92061e-21 7.90635 	-0.118363 	0 7.89848 	-0.119073 	0 7.8906 	-0.119784 	0 7.88268 	-0.120495 	0 7.87371 	-0.120941 	0 7.86606 	-0.121968 	0 7.85823 	-0.122701 	0 7.85037 	-0.123435 	0 7.84248 	-0.12417 	0 7.83422 	-0.124811 	-1.71044e-21 7.82988 	-0.12534 	0 7.82549 	-0.125766 	0 7.8211 	-0.126192 	0 7.8167 	-0.126618 	0 7.81241 	-0.127032 	0 7.80884 	-0.127368 	0 7.80526 	-0.127703 	0 7.80167 	-0.128039 	0 7.79808 	-0.128375 	0 7.7949 	-0.128629 	0 7.78674 	-0.129488 	0 7.7787 	-0.130274 	0 7.77062 	-0.131059 	0 7.76252 	-0.131846 	0 7.75575 	-0.132368 	0 7.74722 	-0.133418 	-5.21789e-21 7.73918 	-0.134229 	-1.27196e-20 7.73111 	-0.135041 	-2.02197e-20 7.72301 	-0.135853 	-2.77182e-20 7.71716 	-0.136224 	-3.52319e-20 7.70827 	-0.137462 	-3.06976e-20 7.70022 	-0.1383 	-3.00804e-20 7.69214 	-0.139138 	-2.94598e-20 7.68403 	-0.139977 	-2.88359e-20 7.67909 	-0.140206 	-3.38217e-20 7.66982 	-0.141627 	-2.56131e-20 7.66176 	-0.142494 	-1.73778e-20 7.65366 	-0.143361 	-9.14068e-21 7.64553 	-0.144229 	-9.0185e-22 7.64148 	-0.144322 	0 7.63182 	-0.145923 	-1.10088e-22 7.62374 	-0.146819 	-3.77326e-21 7.61562 	-0.147715 	-7.43553e-21 7.60792 	-0.148527 	-1.1098e-20 7.60429 	-0.148575 	-1.47695e-20 7.59456 	-0.150207 	-4.1377e-20 7.58612 	-0.151276 	-5.89895e-20 7.57797 	-0.152201 	-7.43293e-20 7.5712 	-0.152867 	-8.08523e-20 7.56748 	-0.152967 	-6.81956e-20 7.55773 	-0.154609 	-4.85756e-20 7.54886 	-0.155866 	-3.49534e-20 7.54068 	-0.156822 	-2.60239e-20 7.53481 	-0.157349 	-3.17212e-20 7.53099 	-0.1575 	-5.02373e-20 7.52122 	-0.159154 	-6.07729e-20 7.51192 	-0.160596 	-6.34857e-20 7.50369 	-0.161583 	-4.94329e-20 7.49872 	-0.161976 	-2.68601e-20 7.49479 	-0.162178 	-1.5234e-21 7.48499 	-0.163846 	1.5249e-21 7.47524 	-0.165469 	4.07998e-21 7.46697 	-0.166487 	7.43055e-23 7.46287 	-0.166753 	0 7.45883 	-0.167005 	0 7.449 	-0.168689 	0 7.4391 	-0.170372 	0 7.43136 	-0.171381 	0 7.42723 	-0.171683 	0 7.42309 	-0.171985 	0 7.41321 	-0.173684 	0 7.40327 	-0.175384 	0 7.39603 	-0.176416 	-7.37269e-21 7.39177 	-0.176767 	-2.07095e-20 7.38751 	-0.177119 	-3.40455e-20 7.37758 	-0.178836 	-1.93217e-20 7.3676 	-0.180554 	-4.59171e-21 7.36083 	-0.181609 	8.90424e-22 7.35645 	-0.182011 	3.93307e-21 7.35206 	-0.182412 	6.97551e-21 7.34208 	-0.18415 	3.12928e-20 7.33204 	-0.185887 	5.56085e-20 7.32573 	-0.186967 	5.57722e-20 7.32123 	-0.187418 	4.45947e-20 7.3167 	-0.187869 	3.34143e-20 7.30666 	-0.189628 	1.50338e-20 7.2973 	-0.191261 	1.35615e-21 7.29112 	-0.19234 	8.26908e-21 7.28607 	-0.192994 	1.51732e-20 7.2814 	-0.193495 	2.20751e-20 7.2713 	-0.195277 	6.91235e-20 7.26287 	-0.196765 	9.44363e-20 7.25658 	-0.197881 	9.23646e-20 7.25094 	-0.198743 	7.04031e-20 7.24613 	-0.199295 	2.40034e-20 7.23597 	-0.201102 	1.78779e-20 7.22846 	-0.20245 	1.63794e-20 7.22205 	-0.203604 	1.68266e-20 7.21584 	-0.204674 	1.82351e-20 7.21088 	-0.205279 	2.49081e-20 7.20065 	-0.207116 	7.04188e-20 7.19405 	-0.208329 	6.96673e-20 7.18752 	-0.209523 	6.75375e-20 7.18095 	-0.210718 	6.53951e-20 7.17562 	-0.211454 	2.69142e-20 7.16623 	-0.213166 	2.09908e-20 7.15961 	-0.214399 	1.49218e-20 7.15296 	-0.215632 	8.85506e-21 7.14626 	-0.216865 	2.79056e-21 7.14032 	-0.217813 	0 7.13186 	-0.219381 	0 7.12512 	-0.220653 	0 7.11834 	-0.221924 	0 7.11151 	-0.223195 	0 7.10496 	-0.224353 	0 7.09966 	-0.225355 	0 7.09504 	-0.226239 	0 7.0904 	-0.227123 	0 7.08574 	-0.228007 	0 7.08126 	-0.228854 	0 7.07886 	-0.229289 	0 7.07646 	-0.229724 	0 7.07406 	-0.230159 	0 7.07165 	-0.230595 	0 7.06969 	-0.230976 	-3.10543e-22 7.06225 	-0.232381 	4.89627e-21 7.05502 	-0.233736 	1.04199e-20 7.04774 	-0.23509 	1.5941e-20 7.04041 	-0.236445 	2.14598e-20 7.03489 	-0.237587 	2.57209e-20 7.02653 	-0.239188 	1.51588e-20 7.01916 	-0.240591 	1.82737e-20 7.01174 	-0.241994 	2.13717e-20 7.00426 	-0.243397 	2.44525e-20 7.00003 	-0.244431 	4.76152e-20 6.9907 	-0.246229 	1.94901e-20 6.98319 	-0.247684 	1.07966e-20 6.97563 	-0.249139 	2.08564e-21 6.9682 	-0.250574 	-5.26905e-21 6.96508 	-0.251526 	1.96254e-20 6.95521 	-0.25344 	1.5993e-20 6.94712 	-0.255028 	1.43398e-20 6.93941 	-0.256537 	1.31608e-20 6.93331 	-0.257863 	1.53406e-20 6.93004 	-0.258877 	2.33043e-20 6.92003 	-0.260835 	1.49653e-20 6.91092 	-0.262626 	9.78818e-21 6.90307 	-0.264191 	8.92124e-21 6.89833 	-0.265413 	1.61806e-20 6.8949 	-0.26649 	2.69004e-20 6.88475 	-0.268496 	3.71195e-20 6.87459 	-0.27049 	4.69213e-20 6.86677 	-0.272093 	4.19956e-20 6.86322 	-0.273238 	2.37355e-20 6.85963 	-0.274382 	5.47426e-21 6.84933 	-0.276439 	3.16101e-21 6.83896 	-0.278497 	8.49555e-22 6.8317 	-0.28014 	0 6.82798 	-0.281356 	0 6.82422 	-0.282573 	0 6.81378 	-0.284687 	0 6.80326 	-0.286801 	0 6.79648 	-0.288497 	5.86613e-23 6.79259 	-0.289792 	-6.62028e-21 6.78866 	-0.291087 	-1.32953e-20 6.77807 	-0.293263 	-4.64279e-21 6.76792 	-0.295386 	3.34671e-21 6.76163 	-0.297111 	6.2873e-21 6.75706 	-0.298569 	1.07685e-20 6.75297 	-0.29995 	1.57024e-20 6.74224 	-0.302193 	1.16208e-20 6.73361 	-0.304212 	9.87378e-21 6.72715 	-0.305999 	1.05266e-20 6.72139 	-0.307673 	1.56313e-20 6.7171 	-0.309115 	2.98238e-20 6.7062 	-0.311401 	1.47701e-20 6.69911 	-0.313307 	7.05389e-21 6.69249 	-0.31516 	3.60115e-22 6.68581 	-0.317012 	-6.33213e-21 6.68106 	-0.318583 	-9.15372e-21 6.67121 	-0.320829 	-3.56448e-20 6.66449 	-0.322784 	-4.02395e-20 6.6577 	-0.324738 	-4.48187e-20 6.65085 	-0.326691 	-4.93824e-20 6.64483 	-0.328528 	-4.15714e-20 6.63794 	-0.330321 	-4.8686e-20 6.63242 	-0.331982 	-4.53624e-20 6.62687 	-0.333643 	-4.20306e-20 6.62127 	-0.335303 	-3.86903e-20 6.61596 	-0.336863 	-3.55422e-20 6.61438 	-0.337292 	-3.47348e-20 6.6128 	-0.337722 	-3.39269e-20 6.61122 	-0.338151 	-3.31185e-20 6.60963 	-0.33858 	-3.23096e-20 6.60829 	-0.338977 	-3.28032e-20 6.60068 	-0.34118 	-2.35203e-20 6.59311 	-0.343352 	-1.65495e-20 6.58547 	-0.345524 	-9.55975e-21 6.57775 	-0.347694 	-2.55103e-21 6.57139 	-0.349677 	-1.19665e-20 6.56299 	-0.352136 	-7.21199e-21 6.55516 	-0.354424 	-4.81254e-21 6.54724 	-0.356712 	-2.41143e-21 6.53925 	-0.358998 	-8.66898e-24 6.53385 	-0.360946 	0 6.52484 	-0.363609 	0 6.5165 	-0.366077 	0 6.5083 	-0.368486 	0 6.50126 	-0.370737 	0 6.49556 	-0.37281 	0 6.48625 	-0.375587 	0 6.47702 	-0.378319 	-3.13169e-22 6.46851 	-0.380849 	-2.06164e-21 6.46246 	-0.383066 	-3.69281e-21 6.45645 	-0.385266 	-5.31721e-21 6.44682 	-0.388155 	1.22882e-20 6.43709 	-0.391042 	2.98952e-20 6.42903 	-0.393661 	2.83705e-20 6.42278 	-0.396007 	7.17722e-21 6.41646 	-0.398351 	-1.40233e-20 6.40649 	-0.40137 	-8.73669e-21 6.39641 	-0.404387 	-3.45191e-21 6.38882 	-0.407113 	-4.2448e-22 6.38214 	-0.409633 	2.71634e-21 6.37547 	-0.41213 	5.87485e-21 6.36514 	-0.41529 	1.79681e-21 6.35604 	-0.418301 	1.87998e-21 6.34816 	-0.421167 	6.06386e-21 6.34041 	-0.423984 	1.12877e-20 6.33336 	-0.426637 	2.02582e-20 6.32279 	-0.429926 	2.45212e-20 6.31462 	-0.43295 	1.60162e-20 6.30634 	-0.435972 	7.49646e-21 6.29797 	-0.438992 	-1.0382e-21 6.29 	-0.441913 	-1.27114e-20 6.28339 	-0.444124 	-8.66021e-21 6.27774 	-0.446234 	-1.05148e-20 6.27204 	-0.448343 	-1.23798e-20 6.2663 	-0.450451 	-1.42552e-20 6.26084 	-0.452433 	-1.60294e-20 6.25795 	-0.453535 	-1.75719e-20 6.25505 	-0.454636 	-1.91189e-20 6.25213 	-0.455737 	-2.06704e-20 6.2492 	-0.456838 	-2.22265e-20 6.24631 	-0.457882 	-1.73916e-20 6.23808 	-0.461292 	-9.81069e-21 6.22954 	-0.464645 	-3.3779e-21 6.2209 	-0.467995 	3.05467e-21 6.21214 	-0.471343 	9.48702e-21 6.20346 	-0.474475 	1.31954e-20 6.19532 	-0.47821 	3.49789e-20 6.18633 	-0.481744 	3.79859e-20 6.1772 	-0.485271 	4.06656e-20 6.16804 	-0.488697 	3.38151e-20 6.15887 	-0.491961 	1.11646e-20 6.15024 	-0.495872 	7.40978e-21 6.14134 	-0.499747 	3.66927e-21 6.13169 	-0.503458 	1.32766e-23 6.12207 	-0.506919 	-6.65468e-21 6.11232 	-0.510377 	-1.33447e-20 6.10315 	-0.51447 	-8.37848e-21 6.09383 	-0.518559 	-3.42127e-21 6.08421 	-0.522435 	-4.30837e-21 6.07396 	-0.526091 	-1.10836e-20 6.06358 	-0.529745 	-1.78711e-20 6.05381 	-0.534022 	-1.29105e-20 6.04392 	-0.538225 	-5.97598e-21 6.03392 	-0.542268 	5.52313e-21 6.02347 	-0.546233 	1.60122e-20 6.0124 	-0.550086 	2.49765e-20 6.00199 	-0.55455 	3.98437e-20 5.99143 	-0.558793 	3.97352e-20 5.98073 	-0.563029 	3.94697e-20 5.96987 	-0.56726 	3.91875e-20 5.95852 	-0.571414 	3.38229e-20 5.95396 	-0.573298 	3.36913e-20 5.94935 	-0.575121 	3.11172e-20 5.94472 	-0.576943 	2.85425e-20 5.94007 	-0.578764 	2.5967e-20 5.93558 	-0.580509 	2.34976e-20 5.92913 	-0.583131 	1.92338e-20 5.92263 	-0.585751 	1.49653e-20 5.91608 	-0.588369 	1.06923e-20 5.90947 	-0.590985 	6.41454e-21 5.90287 	-0.593521 	6.82065e-21 5.89191 	-0.598254 	1.62873e-20 5.88041 	-0.602877 	1.42589e-20 5.86875 	-0.607494 	1.2274e-20 5.85695 	-0.612076 	6.68443e