# vtk DataFile Version 2.0
track0
ASCII
DATASET POLYDATA
POINTS 12035 float
-0.0205 0.001 1e-05
-0.02052 0.000999985 1e-05
-0.02054 0.000999974 1e-05
-0.02056 0.000999965 1e-05
-0.02058 0.000999959 1e-05
-0.0206 0.000999956 1e-05
-0.0205 0.00367778 1e-05
-0.02052 0.00367778 1e-05
-0.02054 0.00367777 1e-05
-0.02056 0.00367777 1e-05
-0.02058 0.00367777 1e-05
-0.0206 0.00367777 1e-05
-0.0205 0.00635556 1e-05
-0.02052 0.00635555 1e-05
-0.02054 0.00635555 1e-05
-0.02056 0.00635555 1e-05
-0.02058 0.00635555 1e-05
-0.0206 0.00635555 1e-05
-0.0205 0.00903333 1e-05
-0.02052 0.00903333 1e-05
-0.02054 0.00903333 1e-05
-0.02056 0.00903333 1e-05
-0.02058 0.00903333 1e-05
-0.0206 0.00903333 1e-05
-0.0205 0.0117111 1e-05
-0.02052 0.0117111 1e-05
-0.02054 0.0117111 1e-05
-0.02056 0.0117111 1e-05
-0.02058 0.0117111 1e-05
-0.0206 0.0117111 1e-05
-0.0205 0.0143889 1e-05
-0.02052 0.0143889 1e-05
-0.02054 0.0143889 1e-05
-0.02056 0.0143889 1e-05
-0.02058 0.0143889 1e-05
-0.0206 0.0143889 1e-05
-0.0205 0.0170667 1e-05
-0.02052 0.0170667 1e-05
-0.02054 0.0170667 1e-05
-0.02056 0.0170667 1e-05
-0.02058 0.0170667 1e-05
-0.0206 0.0170667 1e-05
-0.0205 0.0197444 1e-05
-0.02052 0.0197444 1e-05
-0.02054 0.0197444 1e-05
-0.02056 0.0197444 1e-05
-0.02058 0.0197444 1e-05
-0.0206 0.0197444 1e-05
-0.0205 0.0224222 1e-05
-0.02052 0.0224222 1e-05
-0.02054 0.0224222 1e-05
-0.02056 0.0224222 1e-05
-0.02058 0.0224222 1e-05
-0.0206 0.0224222 1e-05
-0.0205 0.0251 1e-05
-0.02052 0.0250998 1e-05
-0.02054 0.0250997 1e-05
-0.02056 0.0250995 1e-05
-0.02058 0.0250995 1e-05
-0.0206 0.0250994 1e-05
-0.0205 0.001 1e-05
-0.0202034 0.00100022 1e-05
-0.0199069 0.00100067 1e-05
-0.0196103 0.00100132 1e-05
-0.0193137 0.00100219 1e-05
-0.0190172 0.00100326 1e-05
-0.0187132 0.00100466 1e-05
-0.0184093 0.00100588 1e-05
-0.0181054 0.0010071 1e-05
-0.0178015 0.00100832 1e-05
-0.0174976 0.00100953 1e-05
-0.0172058 0.00101083 1e-05
-0.016914 0.00101193 1e-05
-0.0166222 0.00101303 1e-05
-0.0163305 0.00101413 1e-05
-0.0160387 0.00101523 1e-05
-0.0157586 0.00101637 1e-05
-0.0154784 0.00101745 1e-05
-0.0151983 0.00101857 1e-05
-0.0149182 0.00101972 1e-05
-0.0146381 0.00102091 1e-05
-0.0143752 0.00102209 1e-05
-0.0141123 0.00102328 1e-05
-0.0138494 0.00102449 1e-05
-0.0135866 0.00102574 1e-05
-0.0133646 0.00102682 1e-05
-0.0133503 0.00102689 1e-05
-0.0133361 0.00102696 1e-05
-0.0133219 0.00102703 1e-05
-0.0133077 0.0010271 1e-05
-0.0132934 0.00102717 1e-05
-0.0130353 0.00102846 1e-05
-0.0127771 0.00102976 1e-05
-0.0125189 0.00103109 1e-05
-0.0122607 0.00103242 1e-05
-0.0120025 0.00103378 1e-05
-0.0117547 0.00103509 1e-05
-0.0115068 0.0010364 1e-05
-0.0112589 0.00103773 1e-05
-0.0110111 0.00103905 1e-05
-0.0107632 0.00104039 1e-05
-0.0105252 0.00104166 1e-05
-0.0102873 0.00104295 1e-05
-0.0100493 0.00104423 1e-05
-0.00981133 0.00104551 1e-05
-0.00957337 0.00104679 1e-05
-0.00934491 0.00104801 1e-05
-0.00911645 0.00104924 1e-05
-0.00888799 0.00105046 1e-05
-0.00865954 0.00105168 1e-05
-0.00843108 0.0010529 1e-05
-0.00821175 0.00105406 1e-05
-0.00799242 0.00105522 1e-05
-0.00777309 0.00105638 1e-05
-0.00755376 0.00105754 1e-05
-0.00733443 0.00105869 1e-05
-0.00712387 0.00105978 1e-05
-0.0069133 0.00106088 1e-05
-0.00670273 0.00106197 1e-05
-0.00649216 0.00106306 1e-05
-0.0062816 0.00106415 1e-05
-0.00607944 0.00106518 1e-05
-0.00587729 0.00106622 1e-05
-0.00567514 0.00106725 1e-05
-0.00547298 0.00106827 1e-05
-0.00527083 0.0010693 1e-05
-0.00507675 0.00107027 1e-05
-0.00488267 0.00107125 1e-05
-0.0046886 0.00107222 1e-05
-0.00449452 0.00107319 1e-05
-0.00430044 0.00107416 1e-05
-0.00411412 0.00107508 1e-05
-0.0039278 0.001076 1e-05
-0.00374147 0.00107692 1e-05
-0.00355515 0.00107784 1e-05
-0.00336883 0.00107876 1e-05
-0.00318995 0.00107963 1e-05
-0.00301107 0.00108051 1e-05
-0.00283219 0.00108139 1e-05
-0.00265331 0.00108227 1e-05
-0.00247443 0.00108315 1e-05
-0.0023027 0.00108399 1e-05
-0.00213097 0.00108483 1e-05
-0.00195924 0.00108568 1e-05
-0.0017875 0.00108653 1e-05
-0.00161577 0.00108738 1e-05
-0.0014509 0.0010882 1e-05
-0.00128603 0.00108902 1e-05
-0.00112116 0.00108985 1e-05
-0.00095629 0.00109069 1e-05
-0.000791418 0.00109154 1e-05
-0.000633135 0.00109235 1e-05
-0.000474851 0.00109318 1e-05
-0.000316568 0.00109402 1e-05
-0.000158284 0.00109487 1e-05
0 0.00109572 1e-05
0.000105677 0.00109629 1e-05
0.000211355 0.00109687 1e-05
0.000317032 0.00109745 1e-05
0.00042271 0.00109803 1e-05
0.000528387 0.00109861 1e-05
0.000634886 0.00109918 1e-05
0.000741385 0.00109976 1e-05
0.000847885 0.00110033 1e-05
0.000954384 0.00110089 1e-05
0.00106088 0.00110145 1e-05
0.00116821 0.00110201 1e-05
0.00127554 0.00110256 1e-05
0.00138286 0.0011031 1e-05
0.00149019 0.00110364 1e-05
0.00159752 0.00110416 1e-05
0.00170568 0.00110468 1e-05
0.00181384 0.00110519 1e-05
0.001922 0.00110569 1e-05
0.00203016 0.00110618 1e-05
0.00213833 0.00110666 1e-05
0.00224733 0.00110712 1e-05
0.00235633 0.00110759 1e-05
0.00246533 0.00110804 1e-05
0.00257434 0.00110849 1e-05
0.00268334 0.00110892 1e-05
0.00279319 0.00110935 1e-05
0.00290304 0.00110977 1e-05
0.00301289 0.00111018 1e-05
0.00312274 0.00111058 1e-05
0.00323259 0.00111098 1e-05
0.00334329 0.00111136 1e-05
0.003454 0.00111174 1e-05
0.0035647 0.00111211 1e-05
0.0036754 0.00111247 1e-05
0.00378611 0.00111282 1e-05
0.00389767 0.00111316 1e-05
0.00400924 0.0011135 1e-05
0.0041208 0.00111382 1e-05
0.00423237 0.00111414 1e-05
0.00434393 0.00111446 1e-05
0.00445636 0.00111475 1e-05
0.00456879 0.00111505 1e-05
0.00468123 0.00111534 1e-05
0.00479366 0.00111562 1e-05
0.00490609 0.00111589 1e-05
0.0050194 0.00111614 1e-05
0.0051327 0.0011164 1e-05
0.00524601 0.00111664 1e-05
0.00535932 0.00111688 1e-05
0.00547262 0.00111711 1e-05
0.00558681 0.00111733 1e-05
0.005701 0.00111754 1e-05
0.00581518 0.00111775 1e-05
0.00592937 0.00111794 1e-05
0.00604356 0.00111813 1e-05
0.00615863 0.00111831 1e-05
0.00627371 0.00111848 1e-05
0.00638878 0.00111865 1e-05
0.00650386 0.0011188 1e-05
0.00661893 0.00111895 1e-05
0.0067349 0.00111909 1e-05
0.00685087 0.00111922 1e-05
0.00696684 0.00111934 1e-05
0.00708281 0.00111946 1e-05
0.00719878 0.00111956 1e-05
0.00731565 0.00111966 1e-05
0.00743252 0.00111975 1e-05
0.00754939 0.00111983 1e-05
0.00766626 0.00111991 1e-05
0.00778313 0.00111997 1e-05
0.0078558 0.00112 1e-05
0.00792846 0.00112003 1e-05
0.00800112 0.00112006 1e-05
0.00807379 0.00112009 1e-05
0.00814373 0.00112011 1e-05
0.00818939 0.00112012 1e-05
0.00823505 0.00112013 1e-05
0.00828071 0.00112014 1e-05
0.00832637 0.00112015 1e-05
0.00837203 0.00112015 1e-05
0.00849073 0.00112016 1e-05
0.00860942 0.00112017 1e-05
0.00872812 0.00112016 1e-05
0.00884682 0.00112015 1e-05
0.00896551 0.00112013 1e-05
0.00908513 0.00112009 1e-05
0.00920475 0.00112005 1e-05
0.00932437 0.00112 1e-05
0.00944398 0.00111994 1e-05
0.0095636 0.00111987 1e-05
0.00968415 0.00111978 1e-05
0.0098047 0.00111969 1e-05
0.00992525 0.0011196 1e-05
0.0100458 0.00111949 1e-05
0.0101663 0.00111937 1e-05
0.0102878 0.00111924 1e-05
0.0104093 0.0011191 1e-05
0.0105308 0.00111895 1e-05
0.0106523 0.0011188 1e-05
0.0107738 0.00111863 1e-05
0.0108962 0.00111845 1e-05
0.0110186 0.00111826 1e-05
0.0111411 0.00111806 1e-05
0.0112635 0.00111786 1e-05
0.0113859 0.00111764 1e-05
0.0115093 0.0011174 1e-05
0.0116327 0.00111716 1e-05
0.0117561 0.00111691 1e-05
0.0118795 0.00111665 1e-05
0.0120028 0.00111638 1e-05
0.0121272 0.00111609 1e-05
0.0122515 0.0011158 1e-05
0.0123759 0.0011155 1e-05
0.0125002 0.00111518 1e-05
0.0126245 0.00111486 1e-05
0.0127498 0.00111451 1e-05
0.0128752 0.00111417 1e-05
0.0130005 0.00111381 1e-05
0.0131258 0.00111344 1e-05
0.0132511 0.00111306 1e-05
0.0133774 0.00111266 1e-05
0.0135036 0.00111225 1e-05
0.0136299 0.00111183 1e-05
0.0137562 0.00111141 1e-05
0.0138825 0.00111097 1e-05
0.0140098 0.00111051 1e-05
0.014137 0.00111005 1e-05
0.0142643 0.00110957 1e-05
0.0143915 0.00110908 1e-05
0.0145188 0.00110859 1e-05
0.0146471 0.00110807 1e-05
0.0147753 0.00110755 1e-05
0.0149036 0.00110701 1e-05
0.0150318 0.00110646 1e-05
0.0151601 0.0011059 1e-05
0.0152893 0.00110533 1e-05
0.0154186 0.00110475 1e-05
0.0155478 0.00110415 1e-05
0.0156771 0.00110354 1e-05
0.0158063 0.00110292 1e-05
0.0159366 0.00110229 1e-05
0.0160668 0.00110164 1e-05
0.0161971 0.00110098 1e-05
0.0163273 0.0011003 1e-05
0.0164576 0.00109962 1e-05
0.0165889 0.00109893 1e-05
0.0167201 0.00109822 1e-05
0.0168514 0.0010975 1e-05
0.0169827 0.00109676 1e-05
0.0171139 0.00109601 1e-05
0.0172462 0.00109526 1e-05
0.0173785 0.00109449 1e-05
0.0175108 0.0010937 1e-05
0.0176431 0.00109289 1e-05
0.0177754 0.00109208 1e-05
0.0179087 0.00109127 1e-05
0.018042 0.00109043 1e-05
0.0181753 0.00108958 1e-05
0.0183087 0.00108871 1e-05
0.018442 0.00108783 1e-05
0.0185763 0.00108696 1e-05
0.0187107 0.00108605 1e-05
0.018845 0.00108513 1e-05
0.0189794 0.00108419 1e-05
0.0191137 0.00108325 1e-05
0.0192491 0.00108231 1e-05
0.0193845 0.00108135 1e-05
0.0195199 0.00108035 1e-05
0.0196553 0.00107935 1e-05
0.0197907 0.00107834 1e-05
0.0199272 0.00107734 1e-05
0.0200636 0.0010763 1e-05
0.0202001 0.00107524 1e-05
0.0203365 0.00107417 1e-05
0.020473 0.0010731 1e-05
0.0206105 0.00107202 1e-05
0.020748 0.00107092 1e-05
0.0208855 0.00106979 1e-05
0.021023 0.00106865 1e-05
0.0211606 0.00106751 1e-05
0.0212991 0.00106637 1e-05
0.0214377 0.0010652 1e-05
0.0215763 0.001064 1e-05
0.0217149 0.00106279 1e-05
0.0218535 0.00106158 1e-05
0.0219931 0.00106038 1e-05
0.0221328 0.00105914 1e-05
0.0222724 0.00105787 1e-05
0.0224121 0.00105658 1e-05
0.0225517 0.00105531 1e-05
0.0226925 0.00105403 1e-05
0.0228332 0.00105272 1e-05
0.022974 0.00105138 1e-05
0.0231147 0.00105003 1e-05
0.0232555 0.00104868 1e-05
0.0233973 0.00104733 1e-05
0.0235391 0.00104595 1e-05
0.023681 0.00104454 1e-05
0.0238228 0.00104311 1e-05
0.0239647 0.00104169 1e-05
0.0241076 0.00104027 1e-05
0.0242505 0.00103882 1e-05
0.0243935 0.00103733 1e-05
0.0245364 0.00103583 1e-05
0.0246794 0.00103434 1e-05
0.0248234 0.00103285 1e-05
0.0249675 0.00103132 1e-05
0.0251115 0.00102975 1e-05
0.0252556 0.00102818 1e-05
[...]
POINT_DATA 12035
 FIELD attributes 2
p 1 12035 float
-4.48919 -4.48587 -4.48255 -4.47924 -4.47593 -4.47261
-4.64175 -4.64173 -4.64171 -4.64169 -4.64166 -4.64164
-4.81635 -4.81623 -4.81611 -4.81598 -4.81586 -4.81575
-4.91032 -4.91027 -4.91022 -4.91016 -4.91011 -4.91006
-4.95613 -4.95602 -4.95591 -4.9558 -4.95568 -4.95557
-4.96339 -4.96323 -4.96307 -4.9629 -4.96274 -4.96258
-4.9371 -4.93703 -4.93696 -4.93689 -4.93682 -4.93675
-4.86804 -4.868 -4.86796 -4.86791 -4.86787 -4.86783
-4.74706 -4.74707 -4.74708 -4.74708 -4.74709 -4.7471
-2.53458 -2.55391 -2.57312 -2.59219 -2.61112 -2.62992
-4.48919 -4.48846 -4.48483 -4.48112 -4.47733 -4.46893 -4.48274 -4.49767 -4.51261 -4.52754 -4.55192 -4.57363 -4.60349 -4.63336 -4.66323 -4.69591 -4.71147 -4.73308 -4.75469 -4.7763 -4.79952 -4.81825 -4.83898 -4.85971 -4.88045 -4.89797 -4.89909 -4.90021 -4.90132 -4.90244 -4.90356 -4.92506 -4.94657 -4.96807 -4.98958 -5.01081 -5.02938 -5.04775 -5.06613 -5.0845 -5.1023 -5.11769 -5.13279 -5.14789 -5.16299 -5.17753 -5.191 -5.20422 -5.21744 -5.23066 -5.24342 -5.25575 -5.26781 -5.27986 -5.29192 -5.30353 -5.31486 -5.32585 -5.33685 -5.34784 -5.3584 -5.36876 -5.37881 -5.38885 -5.39889 -5.40856 -5.41812 -5.42734 -5.43655 -5.44576 -5.45463 -5.46347 -5.472 -5.48053 -5.48906 -5.49738 -5.50565 -5.51341 -5.52118 -5.52895 -5.53655 -5.54439 -5.55225 -5.56011 -5.56797 -5.57636 -5.5851 -5.59324 -5.60139 -5.60953 -5.61806 -5.62829 -5.6408 -5.65331 -5.66582 -5.68009 -5.69445 -5.71198 -5.72951 -5.74703 -5.76431 -5.78008 -5.79599 -5.8119 -5.82782 -5.8419 -5.8528 -5.86367 -5.87454 -5.88542 -5.89633 -5.90573 -5.91483 -5.92393 -5.93303 -5.94197 -5.95112 -5.95896 -5.96679 -5.97463 -5.98123 -5.989 -5.99528 -6.00156 -6.00785 -6.01275 -6.01895 -6.02394 -6.02894 -6.03393 -6.03785 -6.04273 -6.04667 -6.05061 -6.05455 -6.05775 -6.0616 -6.06474 -6.06789 -6.07103 -6.07369 -6.07676 -6.0793 -6.08184 -6.08438 -6.08662 -6.08916 -6.09133 -6.09349 -6.09565 -6.09763 -6.09991 -6.10192 -6.10393 -6.10593 -6.10782 -6.10997 -6.11192 -6.11387 -6.11583 -6.11771 -6.11977 -6.12171 -6.12365 -6.12559 -6.1275 -6.12876 -6.12997 -6.13118 -6.1324 -6.13356 -6.13432 -6.13509 -6.13585 -6.13661 -6.13745 -6.1394 -6.14144 -6.14347 -6.14551 -6.1479 -6.14972 -6.15192 -6.15412 -6.15631 -6.1592 -6.1609 -6.16329 -6.16568 -6.16807 -6.17152 -6.17306 -6.17559 -6.17813 -6.18067 -6.18461 -6.18598 -6.18864 -6.1913 -6.19397 -6.19836 -6.19958 -6.20238 -6.20518 -6.20798 -6.2128 -6.21393 -6.21688 -6.21983 -6.22278 -6.228 -6.2291 -6.2322 -6.2353 -6.2384 -6.24395 -6.24507 -6.24832 -6.25156 -6.25481 -6.26061 -6.2618 -6.26518 -6.26857 -6.27196 -6.27793 -6.27932 -6.28277 -6.28629 -6.29004 -6.29591 -6.29768 -6.30106 -6.30471 -6.30879 -6.31451 -6.31667 -6.32002 -6.3238 -6.32816 -6.33374 -6.33627 -6.33963 -6.34353 -6.34811 -6.35354 -6.35639 -6.3598 -6.3638 -6.36852 -6.37381 -6.37693 -6.3804 -6.38448 -6.38929 -6.39444 -6.39781 -6.40135 -6.4055 -6.41036 -6.4154 -6.41898 -6.42263 -6.42684 -6.43175 -6.4367 -6.44049 -6.44429 -6.44858 -6.45338 -6.45818 -6.46211 -6.46605 -6.47035 -6.47499 -6.47962 -6.48364 -6.48766 -6.49197 -6.49654 -6.50112 -6.50526 -6.5094 -6.51374 -6.51829 -6.52284 -6.52706 -6.53128 -6.53565 -6.54017 -6.54469 -6.54893 -6.55318 -6.55755 -6.56202 -6.56649 -6.57072 -6.57495 -6.5793 -6.58374 -6.58818 -6.59239 -6.5966 -6.60092 -6.60532 -6.60973 -6.61389 -6.61809 -6.62237 -6.62672 -6.63109 -6.6352 -6.63936 -6.64359 -6.64788 -6.65219 -6.65624 -6.66036 -6.66453 -6.66874 -6.67299 -6.67697 -6.68103 -6.68513 -6.68924 -6.69343 -6.69731 -6.70131 -6.70532 -6.70934 -6.71344 -6.71723 -6.72115 -6.72507 -6.72898 -6.73297 -6.73668 -6.74049 -6.7443 -6.74811 -6.75197 -6.75558 -6.75927 -6.76295 -6.76664 -6.77037 -6.77387 -6.77742 -6.78097 -6.78453 -6.78811 -6.79148 -6.79489 -6.7983 -6.80171 -6.80513 -6.80694 -6.80877 -6.81059 -6.81242 -6.81419 -6.81564 -6.81708 -6.81852 -6.81997 -6.82141 -6.82451 -6.8276 -6.8307 -6.8338 -6.83691 -6.83982 -6.84272 -6.84563 -6.84854 -6.85147 -6.85418 -6.85688 -6.85959 -6.8623 -6.86502 -6.86753 -6.87003 -6.87252 -6.87502 -6.87753 -6.87985 -6.88212 -6.8844 -6.88668 -6.88896 -6.89105 -6.8931 -6.89514 -6.89718 -6.8992 -6.90105 -6.90286 -6.90465 -6.90642 -6.90817 -6.90977 -6.91134 -6.91285 -6.91434 -6.91582 -6.91714 -6.91847 -6.9197 -6.92088 -6.92207 -6.92312 -6.92417 -6.92512 -6.92599 -6.92687 -6.92762 -6.92838 -6.92904 -6.9296 -6.93016 -6.93062 -6.93109 -6.93144 -6.93165 -6.93186 -6.93198 -6.93212 -6.93215 -6.932 -6.93186 -6.93165 -6.93141 -6.93108 -6.93061 -6.9301 -6.92953 -6.9289 -6.92821 -6.92743 -6.92654 -6.92561 -6.92459 -6.92352 -6.92243 -6.92117 -6.91988 -6.91845 -6.91701 -6.91557 -6.91396 -6.91226 -6.91043 -6.9086 -6.90678 -6.90484 -6.9027 -6.90047 -6.89824 -6.89602 -6.89374 -6.892 -6.89021 -6.88842 -6.88664 -6.88493 -6.88407 -6.8832 -6.88234 -6.88148 -6.88059 -6.87758 -6.87453 -6.87149 -6.86845 -6.8653 -6.86195 -6.85845 -6.85496 -6.85146 -6.84774 -6.84406 -6.84009 -6.83612 -6.83214 -6.82782 -6.82375 -6.81936 -6.8149 -6.8103 -6.80545 -6.8009 -6.79617 -6.7912 -6.78594 -6.78057 -6.77551 -6.77046 -6.76495 -6.75901 -6.75307 -6.74751 -6.74195 -6.7359 -6.72936 -6.72283 -6.71672 -6.71061 -6.70399 -6.69679 -6.6896 -6.6829 -6.67614 -6.66886 -6.66112 -6.65324 -6.64595 -6.63832 -6.63035 -6.62215 -6.6135 -6.60552 -6.59682 -6.58802 -6.57923 -6.56972 -6.56061 -6.55086 -6.54112 -6.53138 -6.52129 -6.513 -6.50441 -6.49583 -6.48726 -6.4792 -6.477 -6.47479 -6.47259 -6.47038 -6.46812 -6.45662 -6.44506 -6.43351 -6.42197 -6.41001 -6.39785 -6.38524 -6.37265 -6.36006 -6.34666 -6.33368 -6.32013 -6.30643 -6.29233 -6.27777 -6.26365 -6.24941 -6.23451 -6.21868 -6.20281 -6.18745 -6.1721 -6.15578 -6.13847 -6.12117 -6.10445 -6.08773 -6.06988 -6.05113 -6.03229 -6.01411 -5.99528 -5.97579 -5.95608 -5.93553 -5.91567 -5.89439 -5.87312 -5.85186 -5.83001 -5.81529 -5.79995 -5.78462 -5.76929 -5.75488 -5.7469 -5.73893 -5.73096 -5.72299 -5.71479 -5.68998 -5.66493 -5.63991 -5.61489 -5.58885 -5.56269 -5.53546 -5.50822 -5.48043 -5.45173 -5.42327 -5.39463 -5.36502 -5.33383 -5.30263 -5.27177 -5.24093 -5.20851 -5.17449 -5.14046 -5.10684 -5.07267 -5.03719 -5.00119 -4.96433 -4.92793 -4.88949 -4.85105 -4.81264 -4.77358 -4.75715 -4.74007 -4.72299 -4.70592 -4.68955 -4.66514 -4.64074 -4.61635 -4.59197 -4.56662 -4.52315 -4.47871 -4.43429 -4.38952 -4.34269 -4.29654 -4.24981 -4.20188 -4.15155 -4.10098 -4.05113 -4.00131 -3.94929 -3.89502 -3.84071 -3.78718 -3.73218 -3.67588 -3.61961 -3.56149 -3.52026 -3.47715 -3.43406 -3.39099 -3.3512 -3.33345 -3.31571 -3.29796 -3.28022 -3.26168 -3.1986 -3.13474 -3.07092 -3.00671 -2.93971 -2.87369 -2.80728 -2.73911 -2.66798 -2.59675 -2.5265 -2.4563 -2.38288 -2.30807 -2.23247 -2.15786 -2.08 -2.00213 -1.92432 -1.84818 -1.84782 -1.84746 -1.8471 -1.84674 -1.84637 -1.76515 -1.68397 -1.60286 -1.52174 -1.43741 -1.35417 -1.27056 -1.18527 -1.09723 -1.00898 -0.921786 -0.834114 -0.744049 -0.653565 -0.561473 -0.507544 -0.452298 -0.396831 -0.341389 -0.289562 -0.250972 -0.212396 -0.173834 -0.13512 -0.0953977 -0.000642094 0.0954321 0.191421 0.288915 0.387578 0.485255 0.582844 0.682065 0.782427 0.883452 0.952282 1.0218 1.09155 1.16125 1.22583 1.2585 1.29115 1.32379 1.35655 1.38972 1.49176 1.59438 1.6969 1.8 1.90385 2.00694 2.10993 2.21319 2.3165 2.42067 2.46381 2.50685 2.5498 2.59274 2.63389 2.69461 2.75529 2.81594 2.87649 2.93714 3.03994 3.14262 3.24499 3.34659 3.44874 3.54166 3.63381 3.72529 3.81667 3.90069 3.91087 3.92106 3.93124 3.94137 3.95144 4.05067 4.14968 4.24858 4.34635 4.44402 4.54103 4.63767 4.73236 4.82694 4.92159 4.94197 4.9621 4.98192 5.00173 5.02124 5.09432 5.16734 5.2403 5.31235 5.38386 5.47423 5.5645 5.65288 5.73993 5.82731 5.86513 5.90244 5.93907 5.97569 6.01154 6.06007 6.10858 6.15707 6.20489 6.25225 6.3349 6.41749 6.4985 6.57793 6.65761 6.70662 6.75499 6.80249 6.84997 6.89677 6.9263 6.95583 6.98535 7.01445 7.0432 7.11812 7.19261 7.26638 7.33825 7.4102 7.46994 7.52884 7.5867 7.64458 7.70262 7.71352 7.72442 7.73533 7.74602 7.75656 7.82344 7.8897 7.95598 8.02028 8.08411 8.14633 8.20758 8.26746 8.32738 8.38895 8.38944 8.38994 8.39043 8.39091 8.39139 8.45007 8.50877 8.56751 8.62499 8.68137 8.73698 8.79231 8.84584 8.89945 8.95209 8.96216 8.97204 8.98169 8.99135 9.00112 9.04263 9.08417 9.12574 9.16654 9.20646 9.25514 9.30388 9.35131 9.39752 9.44343 9.46723 9.49056 9.51346 9.53639 9.56034 9.5814 9.60247 9.62356 9.64431 9.66459 9.70697 9.74906 9.79054 9.83069 9.87062 9.90974 9.94819 9.98595 10.0238 10.0611 10.0651 10.069 10.0728 10.0766 10.0805 10.1124 10.1444 10.1763 10.208 10.2387 10.2724 10.3061 10.3388 10.3707 10.4024 10.4332 10.4634 10.4932 10.5231 10.5527 10.5556 10.5584 10.5612 10.564 10.5668 10.592 10.6173 10.6425 10.6676 10.692 10.7182 10.7443 10.7699 10.7947 10.8194 10.8433 10.8671 10.8903 10.9132 10.9357 10.9539 10.9715 10.9891 11.0067 11.027 11.03 11.0329 11.0359 11.0389 11.0418 11.0614 11.081 11.1006 11.1201 11.1391 11.1572 11.1752 11.1929 11.2101 11.2273 11.2437 11.2601 11.2761 11.2916 11.3072 11.322 11.3366 11.3511 11.3654 11.3794 11.3927 11.4058 11.4188 11.4318 11.4448 11.4483 11.4519 11.4554 11.4589 11.4626 11.4709 11.4793 11.4876 11.4959 11.5041 11.515 11.5258 11.5366 11.5473 11.5579 11.5678 11.5776 11.5873 11.5969 11.6064 11.6154 11.6244 11.6331 11.6417 11.6503 11.6585 11.6666 11.6746 11.6824 11.6902 11.6976 11.7049 11.7122 11.7193 11.7264 11.7331 11.7398 11.7465 11.753 11.7595 11.7657 11.7718 11.7779 11.784 11.7899 11.7956 11.8012 11.8068 11.8125 11.818 11.8232 11.8285 11.8337 11.8389 11.8441 11.849 11.8539 11.8588 11.8637 11.8686 11.8694 11.8703 11.8711 11.872 11.8728 11.8766 11.8804 11.8842 11.888 11.8918 11.8962 11.9006 11.9051 11.9095 11.9139 11.9182 11.9224 11.9267 11.9309 11.9352 11.9394 11.9435 11.9476 11.9517 11.956 11.96 11.964 11.9681 11.9721 11.9763 11.9803 11.9843 11.9882 11.9923 11.9964 12.0004 12.0043 12.0083 12.0124 12.0165 12.0205 12.0244 12.0284 12.0326 12.0367 12.0407 12.0448 12.0489 12.0531 12.0573 12.0614 12.0655 12.0698 12.0741 12.0784 12.0827 12.0869 12.0913 12.0959 12.1004 12.1048 12.1093 12.114 12.1187 12.1234 12.128 12.1327 12.1378 12.1429 12.148 12.1531 12.1582 12.1634 12.1684 12.1731 12.1779 12.1835 12.1898 12.1964 12.2035 12.2104 12.2147 12.2179 12.22 12.2182 12.2159 12.2212 12.2279 12.2355 12.2497 12.2634 12.2615 12.2595 12.2576 12.2525 12.249 12.2464 12.2438 12.2413 12.2386 12.2302 12.2217 12.2133 12.2048 12.1986 12.1902 12.1816 12.173 12.1643 12.1553 12.1453 12.135 12.1237 12.111 12.0982 12.0843 12.0703 12.0558 12.0406 12.0253 12.0088 11.992 11.9746 11.957 11.9388 11.9191 11.8984 11.8777 11.857 11.8358 11.8267 11.8172 11.8078 11.7983 11.7883 11.7735 11.7587 11.744 11.7292 11.7139 11.6861 11.6576 11.629 11.6003 11.5706 11.5387 11.5059 11.4723 11.4376 11.4024 11.3648 11.3272 11.2878 11.2467 11.2057 11.162 11.1181 11.0721 11.0242 10.9759 10.9246 10.8717 10.8179 10.7641 10.7079 10.6477 10.5853 10.5228 10.4604 10.3974 10.3828 10.3677 10.3526 10.3374 10.3216 10.2653 10.2089 10.1524 10.096 10.0379 9.95719 9.87423 9.79122 9.70805 9.62094 9.52923 9.43409 9.33726 9.23715 9.13465 9.02706 8.91943 8.80634 8.68852 8.57062 8.44717 8.32367 8.19019 8.04683 7.90339 7.75351 7.60305 7.44945 7.29354 7.13656 6.97275 6.79072 6.59821 6.40368 6.1874 5.96456 5.76111 5.55765 5.35417 5.15992 4.94599 4.68153 4.41743 4.15367 3.80779 3.77858 3.74937 3.72016 3.69094 3.65702 3.39063 3.13192 2.87253 2.61248 2.44951 2.26003 1.83735 1.41983 0.909511 0