/*--------------------------------*- C++ -*----------------------------------*\
  =========                 |
  \\      /  F ield         | OpenFOAM: The Open Source CFD Toolbox
   \\    /   O peration     | Website:  https://openfoam.org
    \\  /    A nd           | Version:  8
     \\/     M anipulation  |
\*---------------------------------------------------------------------------*/
FoamFile
{
    version     2.0;
    format      ascii;
    class       volScalarField;
    location    "215";
    object      epsilon;
}
// * * * * * * * * * * * * * * * * * * * * * * * * * * * * * * * * * * * * * //

dimensions      [0 2 -3 0 0 0 0];

internalField   nonuniform List<scalar> 
12225
(
285.514
270.701
257.917
243.809
232.464
223.083
216.813
212.697
212.741
213.965
217.229
220.938
228.101
232.725
241.287
246.784
254.022
264.438
52.4936
91.8811
106.971
114.749
124.841
136.784
152.688
169.903
191.112
210.929
235.235
255.476
281.071
299.324
324.774
339.307
364.653
373.455
20.3231
34.8568
44.6744
50.47
55.3955
59.6078
64.6637
69.6423
76.3182
83.1821
91.439
99.3173
108.177
116.939
125.548
135.29
142.594
153.76
15.3481
19.6977
24.1124
27.5688
30.4972
32.8696
35.1553
37.293
39.503
41.917
44.3377
47.2011
49.6829
53.0392
55.4152
59.2378
61.4364
65.6496
14.6508
15.8626
17.367
19.0737
20.6383
22.0258
23.2461
24.4309
25.4442
26.5944
27.5236
28.7578
29.6324
30.9855
31.8138
33.2657
34.0791
35.6475
14.7068
14.8769
15.2015
15.8667
16.5667
17.2867
17.9237
18.5841
19.1191
19.7339
20.1933
20.7989
21.2085
21.8226
22.1984
22.8255
23.1797
23.8587
14.7421
14.6201
14.6248
14.737
14.9297
15.219
15.4913
15.8088
16.0709
16.3826
16.6181
16.9202
17.1309
17.427
17.6159
17.9122
18.0817
18.4064
14.7626
14.5866
14.4638
14.3812
14.3669
14.39
14.4381
14.5337
14.6185
14.7366
14.8308
14.9564
15.0477
15.1762
15.261
15.3918
15.4699
15.6197
14.7667
14.5908
14.4346
14.2963
14.1849
14.1044
14.0398
14.0066
13.9814
13.9785
13.9809
13.9916
14.0041
14.0295
14.0472
14.0794
14.1032
14.1457
14.7663
14.5939
14.432
14.282
14.143
14.0219
13.9115
13.8193
13.737
13.6698
13.6102
13.5633
13.5181
13.4872
13.4516
13.4342
13.4022
13.4008
14.7658
14.5945
14.4321
14.2803
14.1361
14.0032
13.8782
13.7644
13.6582
13.5629
13.4735
13.3952
13.3198
13.2561
13.1915
13.1408
13.0838
13.0451
14.7657
14.5943
14.4321
14.2798
14.1353
13.9998
13.8715
13.7518
13.6385
13.5336
13.4341
13.343
13.2557
13.1771
13.1003
13.0328
12.9647
12.9074
14.7657
14.5941
14.432
14.2794
14.1349
13.9989
13.8699
13.7485
13.6331
13.5249
13.422
13.3257
13.2338
13.1483
13.0663
12.9906
12.9172
12.8502
14.7657
14.5939
14.4318
14.279
14.1346
13.9983
13.8691
13.7472
13.6315
13.5223
13.4184
13.3203
13.227
13.1389
13.055
12.9759
12.9002
12.8291
14.7657
14.5938
14.4317
14.2787
14.1342
13.9977
13.8686
13.7464
13.6307
13.5211
13.4171
13.3185
13.2248
13.136
13.0516
12.9715
12.8952
12.8228
14.7657
14.5937
14.4316
14.2785
14.1339
13.9973
13.8681
13.7458
13.63
13.5202
13.4161
13.3174
13.2236
13.1346
13.05
12.9696
12.8932
12.8204
14.7657
14.5937
14.4315
14.2783
14.1337
13.997
13.8677
13.7453
13.6294
13.5195
13.4154
13.3165
13.2227
13.1336
13.0489
12.9684
12.8918
12.819
14.7657
14.5937
14.4314
14.2782
14.1335
13.9968
13.8674
13.745
13.629
13.5191
13.4148
13.3159
13.222
13.1329
13.0481
12.9675
12.8909
12.818
14.7657
14.5937
14.4314
14.2782
14.1335
13.9967
13.8673
13.7448
13.6288
13.5189
13.4146
13.3157
13.2217
13.1325
13.0477
12.9671
12.8904
12.8174
14.7657
14.5937
14.4314
14.2782
14.1336
13.9968
13.8674
13.745
13.629
13.5191
13.4148
13.3159
13.2219
13.1327
13.0479
12.9673
12.8907
12.8177
14.7657
14.5937
14.4315
14.2784
14.1337
13.997
13.8677
13.7453
13.6294
13.5196
13.4154
13.3166
13.2229
13.1338
13.0493
12.9689
12.8927
12.82
14.7657
14.5937
14.4316
14.2785
14.1341
13.9974
13.8685
13.7464
13.6312
13.522
13.419
13.3214
13.2293
13.1418
13.0595
12.981
12.9074
12.8368
14.7658
14.5937
14.4318
14.2788
14.1353
14.0002
13.8742
13.756
13.6463
13.5435
13.4485
13.3591
13.277
13.1992
13.1282
13.0601
12.9988
12.9386
14.7655
14.5928
14.4328
14.2844
14.1515
14.0321
13.929
13.8375
13.7593
13.6894
13.6307
13.5769
13.5328
13.4905
13.4574
13.423
13.3989
13.3693
14.7592
14.5932
14.4603
14.3602
14.3029
14.2766
14.2805
14.2921
14.321
14.3531
14.3959
14.4345
14.4824
14.5217
14.572
14.6089
14.6616
14.6939
14.7213
14.6911
14.754
14.9176
15.1828
15.4611
15.7476
16.012
16.2723
16.5038
16.7361
16.9386
17.1507
17.3309
17.5309
17.6936
17.8888
18.036
14.7477
15.5124
16.5473
17.6841
18.7044
19.5675
20.3372
20.9968
21.6194
22.1661
22.7189
23.2108
23.74
24.2043
24.7328
25.1827
25.7251
26.166
15.9871
20.992
25.0238
27.7604
29.7847
31.3585
32.7771
34.0579
35.3595
36.6164
37.9755
39.2972
40.7617
42.1459
43.718
45.1739
46.8839
48.3587
29.9032
47.2182
54.8696
58.6734
61.614
64.4319
67.5807
70.9776
74.7389
78.7147
82.9858
87.345
91.9059
96.451
101.101
105.623
110.176
114.578
165.798
160.075
154.899
149.564
144.479
139.677
135.615
132.108
129.27
126.973
125.32
124.044
123.34
122.825
122.841
122.96
123.284
123.828
0.358403
0.398976
0.71932
1.0211
1.34208
1.68989
2.06972
2.48134
2.91896
3.37415
3.83844
4.3049
4.76839
5.22546
5.67361
6.1108
6.53479
6.94299
7.33223
7.69913
8.04033
8.35317
8.6358
8.88746
9.10794
39.5067
40.5087
41.1919
42.1366
42.5836
42.6858
42.7607
42.5221
40.8907
9.08219
9.32055
40.4375
41.3944
41.6818
46.3536
49.0346
52.6553
56.2286
60.0325
63.9968
68.1298
72.4392
76.9216
81.5842
86.4285
91.4586
96.6786
102.091
107.701
113.51
119.523
125.742
132.17
138.809
145.662
152.73
160.015
167.516
175.237
183.174
191.33
199.701
208.288
217.086
226.096
235.31
244.729
254.343
264.153
274.146
284.323
294.669
305.184
315.852
326.672
337.625
348.71
359.905
371.208
382.596
394.063
405.584
417.151
428.737
440.327
451.895
463.412
474.851
486.181
497.383
508.452
519.428
530.371
541.129
551.752
562.205
572.477
582.547
592.398
602.007
611.36
620.434
629.215
637.681
645.816
653.599
661.016
668.043
674.667
680.866
686.628
691.931
696.763
701.105
704.946
708.27
711.067
713.326
715.038
716.192
716.758
716.66
715.851
714.564
712.876
710.517
707.479
703.856
699.627
694.817
689.425
683.469
676.916
669.796
662.159
654.022
645.415
636.369
626.921
617.104
606.959
596.521
585.833
574.93
563.856
552.648
541.347
529.994
518.628
507.299
496.091
485.255
476.396
469.947
463.834
457.791
451.796
445.883
440.088
434.427
428.923
423.599
418.479
413.587
408.945
404.569
400.472
396.657
393.144
389.931
386.895
383.94
380.737
375.913
355.742
1.61687
0.966214
0.971133
1.10217
1.30072
1.54998
1.84385
2.17572
2.53773
2.92178
3.32082
3.72948
4.14435
4.56373
4.98755
5.41748
5.85751
6.31534
6.80524
7.35284
8.00335
8.83533
9.98439
11.6852
14.3496
18.7194
19.8697
20.4853
20.971
21.2664
21.3705
21.2777
20.8154
19.9233
19.0061
22.0845
25.1662
26.2352
27.7221
29.547
31.2008
32.996
34.8321
36.7397
38.7113
40.7499
42.8575
45.0352
47.2851
49.6082
52.0061
54.48
57.0309
59.6599
62.3679
65.1558
68.0239
70.9732
74.0037
77.116
80.3098
83.5855
86.9425
90.3807
93.8992
97.4976
101.175
104.93
108.761
112.667
116.646
120.696
124.815
129.001
133.251
137.562
141.93
146.354
150.828
155.35
159.915
164.518
169.155
173.821
178.51
183.216
187.932
192.653
197.369
202.075
206.761
211.419
216.042
220.627
225.177
229.706
234.242
238.849
243.381
247.86
252.273
256.615
260.878
265.055
269.138
273.122
276.998
280.761
284.402
287.915
291.292
294.527
297.612
300.54
303.305
305.899
308.316
310.55
312.593
314.441
316.087
317.525
318.75
319.756
320.536
321.076
321.361
321.398
321.225
320.846
320.206
319.291
318.129
316.715
315.055
313.149
311.001
308.609
305.981
303.129
300.06
296.783
293.312
289.658
285.834
281.855
277.735
273.489
269.133
264.682
260.152
255.56
250.922
246.254
241.577
236.921
232.373
228.232
224.591
221.107
217.687
214.315
211.002
207.757
204.59
201.509
198.524
195.645
192.881
190.242
187.737
185.371
183.152
181.086
179.19
177.455
175.875
174.525
173.155
171.484
3.26828
1.65052
1.46931
1.51798
1.6614
1.86931
2.12883
2.43121
2.76822
3.13195
3.51558
3.91399
4.32401
4.74416
5.17457
5.61744
6.07724
6.56111
7.08113
7.65641
8.31565
9.09808
10.0498
11.2082
12.5596
13.9422
14.836
15.5544
16.211
16.8199
17.3933
17.9542
18.5376
19.2527
20.2769
21.7785
23.1847
24.4391
25.7861
27.1986
28.6355
30.1304
31.6776
33.2796
34.9358
36.6473
38.4149
40.2393
42.1214
44.062
46.0618
48.1216
50.2419
52.4234
54.6665
56.9718
59.3396
61.7701
64.2637
66.8204
69.4401
72.1229
74.8685
77.6765
80.5464
83.4778
86.4697
89.5214
92.6317
95.7997
99.0237
102.302
105.634
109.017
112.449
115.928
119.451
123.016
126.621
130.261
133.935
137.638
141.367
145.118
148.887
152.671
156.463
160.261
164.059
167.854
171.64
175.415
179.175
182.921
186.655
190.379
194.099
197.806
201.468
205.085
208.65
212.158
215.602
218.977
222.277
225.497
228.632
231.675
234.621
237.464
240.198
242.818
245.318
247.693
249.937
252.044
254.008
255.826
257.491
258.998
260.342
261.519
262.523
263.35
263.994
264.442
264.682
264.747
264.637
264.333
263.825
263.108
262.189
261.07
259.751
258.236
256.526
254.624
252.536
250.267
247.826
245.218
242.454
239.543
236.496
233.323
230.035
226.645
223.165
219.607
215.985
212.31
208.596
204.856
201.105
197.366
193.687
190.173
186.866
183.671
180.544
177.473
174.461
171.516
168.644
165.852
163.147
160.537
158.028
155.627
153.342
151.178
149.142
147.241
145.489
143.898
142.482
141.322
140.372
139.877
5.0207
2.38585
2.01551
1.99502
2.10448
2.29012
2.53201
2.81952
3.14459
3.50019
3.88027
4.28007
4.6964
5.12772
5.57399
6.03614
6.51629
7.01835
7.5482
8.11436
8.72831
9.40348
10.1516
10.9746
11.8524
12.7334
13.5592
14.3669
15.1808
16.0087
16.857
17.7363
18.6666
19.6806
20.8182
22.0335
23.2664
24.5174
25.8219
27.1732
28.5631
29.9999
31.4858
33.022
34.6095
36.249
37.9414
39.6875
41.4881
43.3441
45.256
47.2248
49.2508
51.3347
53.477
55.6784
57.9391
60.2596
62.6403
65.0813
67.5829
70.145
72.7675
75.4505
78.1934
80.996
83.8577
86.7777
89.7554
92.7896
95.8792
99.023
102.219
105.467
108.763
112.107
115.495
118.926
122.397
125.905
129.447
133.02
136.621
140.246
143.891
147.553
151.228
154.911
158.6
162.29
165.978
169.661
173.335
177
180.653
184.294
187.917
191.51
195.063
198.57
202.026
205.425
208.761
212.029
215.223
218.338
221.367
224.306
227.149
229.89
232.524
235.045
237.448
239.728
241.879
243.896
245.773
247.506
249.09
250.519
251.789
252.896
253.834
254.6
255.189
255.585
255.774
255.826
255.679
255.342
254.812
254.085
253.165
252.051
250.747
249.254
247.575
245.714
243.676
241.466
239.092
236.561
233.881
231.061
228.112
225.043
221.866
218.592
215.233
211.801
208.307
204.765
201.186
197.584
193.973
190.371
186.81
183.341
179.99
176.728
173.533
170.399
167.329
164.328
161.403
158.56
155.805
153.145
150.586
148.134
145.796
143.577
141.485
139.528
137.719
136.075
134.62
133.422
132.497
132.051
6.71867
3.11756
2.55892
2.47347
2.54936
2.71502
2.94268
3.21898
3.53537
3.8852
4.263
4.66442
5.08636
5.52695
5.98548
6.46214
6.95793
7.47464
8.01488
8.58226
9.1814
9.8176
10.4956
11.217
11.9771
12.7656
13.5748
14.4101
15.2764
16.1758
17.1091
18.0773
19.0852
20.1409
21.2554
22.4274
23.641
24.8959
26.1946
27.5372
28.9262
30.3627
31.848
33.3836
34.9705
36.6099
38.3026
40.0497
41.8523
43.7112
45.6276
47.6026
49.6364
51.7299
53.8838
56.0988
58.3757
60.715
63.1173
65.5831
68.1129
70.7068
73.3651
76.0879
78.8751
81.7265
84.6419
87.6207
90.6624
93.766
96.9306
100.155
103.438
106.778
110.173
113.621
117.12
120.667
124.26
127.897
131.573
135.286
139.032
142.808
146.609
150.433
154.275
158.13
161.995
165.866
169.738
173.608
177.472
181.325
185.163
188.978
192.767
196.52
200.23
203.892
207.498
211.043
214.521
217.925
221.25
224.49
227.638
230.689
233.636
236.475
239.199
241.803
244.281
246.627
248.837
250.904
252.824
254.591
256.2
257.647
258.927
260.035
260.966
261.718
262.286
262.65
262.812
262.821
262.623
262.227
261.632
260.837
259.842
258.649
257.26
255.678
253.905
251.947
249.808
247.495
245.014
242.373
239.581
236.647
233.582
230.395
227.099
223.704
220.224
216.67
213.055
209.391
205.692
201.969
198.238
194.515
190.823
187.191
183.64
180.163
176.753
173.408
170.132
166.929
163.806
160.77
157.826
154.981
152.241
149.612
147.099
144.71
142.452
140.335
138.371
136.581
134.993
133.667
132.632
131.99
8.30634
3.81519
3.07555
2.92709
2.96977
3.1156
3.32917
3.59417
3.90113
4.24342
4.61591
5.01456
5.43639
5.87944
6.34268
6.82592
7.32961
7.85476
8.40287
8.9759
9.57625
10.2067
10.8698
11.5678
12.3008
13.0682
13.8696
14.7066
15.5809
16.4937
17.4452
18.4359
19.4672
20.5423
21.6647
22.8349
24.0508
25.3126
26.621
27.9768
29.3812
30.8352
32.3404
33.8979
35.5092
37.1755
38.898
40.678
42.5166
44.415
46.3742
48.3953
50.4798
52.6288
54.8434
57.1249
59.4741
61.8921
64.3798
66.9379
69.5672
72.2684
75.0419
77.888
80.8071
83.7992
86.8641
90.0017
93.2113
96.4925
99.8441
103.265
106.754
110.31
113.93
117.613
121.356
125.157
129.012
132.919
136.874
140.874
144.914
148.991
153.101
157.238
161.399
165.579
169.772
173.974
178.18
182.385
186.582
190.767
194.931
199.07
203.175
207.24
211.257
215.219
219.12
222.952
226.709
230.384
233.971
237.461
240.85
244.131
247.296
250.341
253.258
256.042
258.686
261.185
263.533
265.725
267.755
269.618
271.308
272.822
274.154
275.299
276.254
277.014
277.576
277.918
278.057
278.015
277.756
277.284
276.601
275.705
274.598
273.28
271.755
270.025
268.095
265.969
263.652
261.151
258.474
255.629
252.626
249.473
246.182
242.763
239.23
235.594
231.869
228.067
224.201
220.286
216.334
212.359
208.374
204.395
200.441
196.533
192.688
188.908
185.194
181.549
177.977
174.483
171.074
167.757
164.538
161.423
158.418
155.529
152.763
150.127
147.628
145.277
143.088
141.083
139.289
137.76
136.516
135.556
9.74308
4.45724
3.54782
3.33821
3.34786
3.47324
3.67172
3.92403
4.21958
4.55152
4.91487
5.30585
5.72163
6.16029
6.62072
7.10254
7.60598
8.13175
8.68098
9.25512
9.85589
10.4852
11.1451
11.8374
12.5636
13.3248
14.1223
14.9574
15.8314
16.7456
17.7008
18.6979
19.7379
20.8223
21.953
23.131
24.3568
25.6314
26.9557
28.3306
29.7575
31.2376
32.7723
34.3631
36.0116
37.7193
39.4877
41.3183
43.2128
45.1725
47.1992
49.2942
51.4593
53.696
56.0059
58.3904
60.8511
63.3891
66.0059
68.7027
71.4805
74.3404
77.2832
80.3095
83.4199
86.6148
89.8942
93.2581
96.7062
100.238
103.852
107.548
111.325
115.18
119.112
123.118
127.196
131.342
135.555
139.829
144.162
148.549
152.985
157.466
161.988
166.544
171.129
175.738
180.365
185.003
189.647
194.29
198.924
203.543
208.139
212.703
217.229
221.708
226.133
230.495
234.786
238.999
243.127
247.16
251.093
254.917
258.624
262.209
265.663
268.979
272.152
275.173
278.038
280.74
283.272
285.629
287.805
289.795
291.594
293.196
294.598
295.795
296.782
297.556
298.113
298.43
298.536
298.431
298.094
297.528
296.732
295.708
294.457
292.979
291.279
289.359
287.223
284.878
282.33
279.586
276.653
273.541
270.26
266.82
263.232
259.51
255.665
251.711
247.662
243.532
239.336
235.086
230.798
226.485
222.161
217.842
213.543
209.283
205.076
200.93
196.849
192.84
188.907
185.058
181.299
177.636
174.078
170.629
167.297
164.087
161.006
158.062
155.263
152.62
150.148
147.868
145.807
144.011
142.488
141.165
10.9996
5.02824
3.96406
3.69392
3.67251
3.77638
3.95844
4.19645
4.47861
4.7977
5.14876
5.52822
5.93345
6.36265
6.81475
7.28934
7.78658
8.30707
8.85178
9.42194
10.0191
10.6448
11.3009
11.9891
12.7112
13.4685
14.2628
15.0953
15.9677
16.8813
17.8374
18.8372
19.8818
20.9727
22.1113
23.2991
24.5371
25.8267
27.1693
28.5662
30.0191
31.5295
33.0992
34.7299
36.4234
38.1817
40.0065
41.8999
43.8639
45.9002
48.0111
50.1986
52.4646
54.8112
57.2405
59.7543
62.3547
65.0433
67.8221
70.6927
73.6565
76.7151
79.8695
83.1209
86.4702
89.9178
93.4643
97.1097
100.854
104.696
108.636
112.672
116.803
121.028
125.343
129.746
134.234
138.805
143.454
148.177
152.969
157.826
162.743
167.714
172.733
177.794
182.89
188.014
193.16
198.32
203.487
208.651
213.806
218.942
224.05
229.122
234.148
239.119
244.026
248.861
253.614
258.276
262.839
267.294
271.632
275.845
279.924
283.861
287.649
291.279
294.745
298.039
301.155
304.085
306.824
309.365
311.703
313.832
315.747
317.442
318.915
320.159
321.173
321.952
322.491
322.769
322.822
322.633
322.194
321.507
320.571
319.388
317.959
316.286
314.372
312.222
309.841
307.234
304.41
301.375
298.138
294.71
291.1
287.321
283.384
279.303
275.092
270.764
266.336
261.82
257.234
252.591
247.907
243.195
238.472
233.751
229.048
224.379
219.759
215.196
210.7
206.277
201.934
197.678
193.518
189.46
185.511
181.677
177.967
174.385
170.939
167.636
164.486
161.501
158.694
156.087
153.705
151.587
149.727
148.004
12.059
5.51788
4.31631
3.98848
3.9372
4.01931
4.184
4.40647
4.67377
4.97826
5.31498
5.68048
6.07232
6.48888
6.92917
7.39287
7.88018
8.39169
8.92832
9.49075
10.0806
10.6995
11.3493
12.0315
12.7479
13.5002
14.2899
15.1188
15.9884
16.9003
17.856
18.8571
19.9051
21.0015
22.1481
23.3463
24.5977
25.904
27.2664
28.6874
30.1691
31.7135
33.3227
34.999
36.7445
38.5615
40.4523
42.4194
44.4653
46.5924
48.8032
51.1004
53.4866
55.9642
58.5358
61.204
63.9712
66.8399
69.8122
72.8903
76.0762
79.3719
82.7789
86.2986
89.9322
93.6806
97.5444
101.524
105.619
109.829
114.154
118.591
123.14
127.799
132.564
137.433
142.402
147.468
152.626
157.87
163.197
168.6
174.072
179.608
185.199
190.84
196.522
202.236
207.974
213.728
219.488
225.245
230.988
236.708
242.395
248.037
253.625
259.148
264.596
269.958
275.225
280.385
285.43
290.348
295.131
299.768
304.251
308.57
312.717
316.683
320.461
324.042
327.419
330.586
333.535
336.261
338.757
341.018
343.039
344.816
346.343
347.617
348.636
349.396
349.888
350.107
350.071
349.768
349.195
348.352
347.241
345.862
344.217
342.309
340.142
337.722
335.053
332.143
329
325.632
322.049
318.261
314.28
310.119
305.79
301.308
296.686
291.942
287.089
282.144
277.123
272.042
266.916
261.761
256.592
251.424
246.272
241.152
236.077
231.059
226.108
221.232
216.439
211.738
207.136
202.641
198.26
194
189.869
185.872
182.018
178.315
174.771
171.398
168.212
165.232
162.482
159.994
157.75
155.604
12.9137
5.9211
4.60172
4.22124
4.14121
4.20164
4.34846
4.55464
4.80624
5.0952
5.41649
5.76678
6.14383
6.54618
6.9725
7.4229
7.89786
8.39821
8.9253
9.47934
10.0615
10.6733
11.3163
11.9921
12.7024
13.4491
14.2337
15.0582
15.9242
16.8335
17.788
18.7894
19.8395
20.9402
22.0936
23.3014
24.5659
25.8891
27.2733
28.722
30.2364
31.8198
33.4748
35.204
37.0103
38.8963
40.865
42.9192
45.0621
47.2967
49.6262
52.0537
54.5825
57.2157
59.9564
62.8079
65.7732
68.8552
72.0568
75.3806
78.8292
82.4048
86.1095
89.945
93.9129
98.0141
102.25
106.62
111.124
115.762
120.534
125.436
130.469
135.628
140.911
146.314
151.834
157.464
163.201
169.039
174.97
180.989
187.087
193.256
199.49
205.777
212.11
218.479
224.872
231.281
237.694
244.1
250.488
256.845
263.16
269.422
275.617
281.734
287.761
293.687
299.5
305.188
310.739
316.144
321.39
326.467
331.366
336.075
340.586
344.889
348.976
352.838
356.468
359.859
363.003
365.894
368.527
370.896
372.996
374.823
376.373
377.642
378.629
379.33
379.739
379.857
379.688
379.228
378.477
377.436
376.104
374.485
372.58
370.393
367.929
365.195
362.196
358.941
355.438
351.697
347.728
343.543
339.153
334.572
329.815
324.894
319.828
314.63
309.319
303.91
298.42
292.866
287.264
281.632
275.983
270.334
264.7
259.097
253.537
248.034
242.598
237.239
231.966
226.788
221.713
216.749
211.904
207.184
202.599
198.153
193.856
189.716
185.741
181.945
178.341
174.949
171.788
168.889
166.223
163.634
13.5646
6.23735
4.82133
4.39444
4.28741
4.32679
4.45572
4.64539
4.881
5.15416
5.45974
5.79424
6.15605
6.54452
6.95875
7.39795
7.86212
8.35168
8.86709
9.4091
9.97959
10.5802
11.2127
11.8786
12.5799
13.3183
14.0958
14.9143
15.7758
16.6824
17.6363
18.6394
19.6942
20.8029
21.968
23.1918
24.4769
25.8258
27.2403
28.7222
30.2764
31.907
33.6179
35.4122
37.293
39.2638
41.3279
43.4889
45.7504
48.1164
50.5905
53.1766
55.8787
58.7005
61.646
64.7188
67.9227
71.2613
74.7379
78.3556
82.1176
86.0264
90.0844
94.2936
98.6558
103.172
107.843
112.669
117.65
122.785
128.073
133.512
139.099
144.831
150.705
156.715
162.856
169.124
175.511
182.011
188.616
195.317
202.106
208.974
215.91
222.903
229.944
237.021
244.121
251.233
258.344
265.442
272.512
279.542
286.517
293.426
300.253
306.985
313.61
320.113
326.482
332.703
338.765
344.654
350.358
355.867
361.168
366.252
371.107
375.725
380.095
384.21
388.06
391.64
394.941
397.959
400.686
403.117
405.249
407.078
408.599
409.812
410.713
411.301
411.573
411.532
411.176
410.504
409.52
408.225
406.621
404.709
402.492
399.977
397.169
394.075
390.702
387.059
383.156
379.002
374.61
369.991
365.158
360.125
354.907
349.519
343.978
338.3
332.503
326.604
320.62
314.569
308.468
302.333
296.182
290.029
283.891
277.782
271.717
265.708
259.767
253.904
248.13
242.453
236.882
231.426
226.092
220.889
215.823
210.903
206.135
201.53
197.096
192.845
188.792
184.955
181.351
178.007
174.887
171.838
14.0226
6.47038
4.97914
4.51284
4.38117
4.40069
4.51227
4.68581
4.90545
5.16323
5.4548
5.77643
6.12548
6.50012
6.89885
7.32252
7.77158
8.24662
8.74851
9.27872
9.83843
10.4291
11.0523
11.7099
12.4039
13.1362
13.9089
14.7243
15.5847
16.4924
17.4501
18.4602
19.5255
20.6486
21.8324
23.0801
24.3953
25.78
27.2368
28.7659
30.3756
32.0708
33.8559
35.7357
37.7144
39.7956
41.9834
44.282
46.6958
49.2295
51.8875
54.6745
57.5951
60.6538
63.8552
67.2036
70.7034
74.3587
78.1732
82.1507
86.2943
90.6071
95.0915
99.7496
104.583
109.593
114.779
120.143
125.682
131.396
137.283
143.34
149.563
155.949
162.492
169.186
176.026
183.005
190.113
197.344
204.687
212.134
219.672
227.292
234.982
242.729
250.52
258.343
266.183
274.028
281.862
289.671
297.44
305.153
312.797
320.354
327.811
335.152
342.362
349.427
356.332
363.064
369.607
375.949
382.077
387.978
393.64
399.052
404.203
409.083
413.683
417.993
422.005
425.712
429.108
432.186
434.94
437.367
439.462
441.222
442.645
443.728
444.473
444.878
444.942
444.673
444.057
443.106
441.824
440.212
438.273
436.008
433.424
430.526
427.322
423.819
420.026
415.952
411.607
407.004
402.153
397.067
391.761
386.248
380.543
374.664
368.626
362.448
356.147
349.741
343.247
336.684
330.07
323.42
316.753
310.084
303.429
296.803
290.221
283.695
277.238
270.861
264.573
258.385
252.306
246.344
240.507
234.803
229.241
223.828
218.571
213.48
208.566
203.838
199.313
195.005
190.932
187.117
183.521
179.998
14.3058
6.62905
5.08172
4.58303
4.42958
4.43094
4.52593
4.68472
4.89154
5.13653
5.41354
5.71898
6.05166
6.41064
6.79583
7.20691
7.64414
8.10816
8.59992
9.12066
9.67179
10.2549
10.8718
11.5244
12.2149
12.9457
13.7191
14.5377
15.4042
16.3213
17.2922
18.3203
19.4086
20.5599
21.7775
23.0645
24.423
25.8565
27.3714
28.9736
30.6684
32.4607
34.3557
36.3586
38.4753
40.7102
43.0683
45.5548
48.175
50.9343
53.8381
56.8917
60.1004
63.4694
67.0039
70.7087
74.5886
78.648
82.8911
87.3216
91.9427
96.7574
101.768
106.976
112.383
117.989
123.793
129.796
135.996
142.389
148.973
155.744
162.696
169.825
177.124
184.585
192.201
199.963
207.86
215.884
224.023
232.265
240.598
249.009
257.484
266.009
274.571
283.153
291.741
300.318
308.869
317.378
325.827
334.201
342.482
350.654
358.701
366.605
374.351
381.923
389.305
396.483
403.441
410.165
416.641
422.857
428.8
434.458
439.82
444.876
449.615
454.03
458.113
461.855
465.252
468.296
470.984
473.312
475.276
476.875
478.106
478.97
479.468
479.601
479.377
478.783
477.826
476.519
474.863
472.861
470.518
467.836
464.822
461.483
457.828
453.866
449.606
445.058
440.234
435.145
429.804
424.224
418.418
412.403
406.194
399.807
393.259
386.569
379.755
372.834
365.825
358.746
351.614
344.447
337.263
330.076
322.904
315.761
308.661
301.619
294.645
287.752
280.95
274.249
267.657
261.185
254.84
248.63
242.564
236.649
230.893
225.306
219.898
214.68
209.666
204.872
200.312
196.008
191.921
187.917
14.4095
6.71285
5.13307
4.61097
4.43884
4.42639
4.50879
4.65434
4.84568
5.0751
5.33772
5.63058
5.95163
6.2998
6.6747
7.07634
7.50513
7.96186
8.44762
8.96378
9.5119
10.0938
10.7114
11.3671
12.0635
12.8035
13.59
14.4256
15.3134
16.2567
17.259
18.3231
19.4498
20.6458
21.916
23.2657
24.7006
26.2256
27.8462
29.5688
31.3991
33.3431
35.4071
37.598
39.9212
42.3829
44.9894
47.7471
50.6626
53.7421
56.9915
60.4168
64.0237
67.8179
71.8048
75.9894
80.3765
84.9704
89.775
94.7936
100.029
105.483
111.157
117.053
123.169
129.505
136.06
142.831
149.814
157.006
164.401
171.994
179.778
187.744
195.886
204.193
212.655
221.263
230.003
238.864
247.833
256.896
266.039
275.248
284.507
293.8
303.111
312.424
321.721
330.986
340.202
349.349
358.411
367.37
376.208
384.907
393.449
401.819
409.997
417.968
425.716
433.224
440.478
447.463
454.165
460.569
466.665
472.44
477.883
482.984
487.734
492.124
496.147
499.795
503.065
505.95
508.448
510.554
512.267
513.586
514.511
515.041
515.185
514.95
514.318
513.301
511.914
510.161
508.047
505.576
502.753
499.582
496.073
492.234
488.074
483.603
478.831
473.771
468.432
462.828
456.971
450.875
444.554
438.023
431.299
424.398
417.337
410.135
402.809
395.378
387.86
380.272
372.633
364.959
357.267
349.575
341.896
334.248
326.643
319.094
311.616
304.217
296.91
289.704
282.608
275.632
268.784
262.072
255.504
249.088
242.833
236.747
230.842
225.128
219.62
214.33
209.274
204.473
199.887
195.401
14.3852
6.72841
5.13925
4.60528
4.42118
4.39614
4.46402
4.59586
4.77607
4.99553
5.24906
5.53366
5.84759
6.18988
6.56023
6.95883
7.38631
7.84371
8.33251
8.85486
9.41206
10.0061
10.6395
11.3149
12.0353
12.8032
13.6191
14.4888
15.4169
16.4082
17.4671
18.5988
19.809
21.1023
22.4847
23.9624
25.5422
27.2307
29.0347
30.9612
33.0173
35.2102
37.5475
40.0368
42.6849
45.4993
48.4879
51.6588
55.0198
58.5774
62.3377
66.3066
70.4896
74.8921
79.5188
84.3741
89.462
94.7857
100.348
106.15
112.193
118.477
125.003
131.768
138.769
146.005
153.471
161.161
169.07
177.192
185.518
194.041
202.751
211.638
220.691
229.899
239.25
248.73
258.327
268.026
277.812
287.67
297.584
307.539
317.518
327.503
337.477
347.424
357.323
367.159
376.912
386.565
396.098
405.493
414.732
423.797
432.67
441.333
449.77
457.962
465.895
473.552
480.917
487.978
494.718
501.126
507.19
512.898
518.239
523.204
527.785
531.974
535.765
539.15
542.128
544.692
546.841
548.574
549.887
550.785
551.265
551.326
551.006
550.253
549.1
547.56
545.638
543.342
540.679
537.655
534.275
530.546
526.477
522.079
517.363
512.339
507.018
501.413
495.534
489.394
483.006
476.384
469.541
462.494
455.257
447.848
440.284
432.583
424.762
416.839
408.831
400.757
392.633
384.477
376.303
368.13
359.971
351.841
343.756
335.726
327.766
319.885
312.094
304.404
296.823
289.361
282.026
274.825
267.768
260.863
254.117
247.541
241.145
234.939
228.938
223.155
217.603
212.305
207.22
202.259
14.2823
6.71029
5.12018
4.57512
4.37784
4.34239
4.40215
4.52721
4.70168
4.91684
5.16779
5.45186
5.76798
6.11497
6.49264
6.90154
7.3426
7.81706
8.3262
8.87083
9.45329
10.0774
10.7468
11.4653
12.2367
13.0657
13.9575
14.9166
15.9486
17.0592
18.2548
19.5424
20.9291
22.4219
24.0284
25.7565
27.6149
29.6119
31.7561
34.0561
36.5204
39.1575
41.9754
44.981
48.1834
51.592
55.2162
59.0655
63.1519
67.479
72.0506
76.8705
81.9423
87.2691
92.8533
98.6969
104.801
111.165
117.789
124.671
131.809
139.199
146.837
154.718
162.836
171.184
179.754
188.539
197.528
206.712
216.081
225.623
235.327
245.18
255.169
265.28
275.5
285.815
296.208
306.666
317.171
327.709
338.263
348.816
359.351
369.851
380.298
390.674
400.963
411.145
421.203
431.118
440.873
450.449
459.829
468.995
477.929
486.614
495.034
503.172
511.013
518.542
525.745
532.607
539.115
545.258
551.024
556.403
561.385
565.963
570.127
573.874
577.197
580.09
582.554
584.583
586.176
587.336
588.057
588.35
588.212
587.656
586.658
585.254
583.448
581.25
578.669
575.715
572.396
568.72
564.693
560.322
555.622
550.602
545.273
539.648
533.738
527.555
521.11
514.415
507.484
500.329
492.963
485.403
477.663
469.759
461.708
453.527
445.233
436.844
428.375
419.844
411.266
402.658
394.035
385.412
376.805
368.227
359.692
351.213
342.8
334.466
326.219
318.07
310.029
302.103
294.302
286.633
279.105
271.725
264.504
257.45
250.573
243.885
237.399
231.129
225.086
219.296
213.717
208.294
14.0857
6.65837
5.07292
4.52427
4.32519
4.28941
4.35061
4.47986
4.66109
4.88561
5.14873
5.44764
5.78013
6.14589
6.54639
6.98308
7.45783
7.97296
8.53143
9.13723
9.79371
10.5051
11.2765
12.1133
13.0217
14.0084
15.0807
16.246
17.5122
18.8878
20.3819
22.004
23.7641
25.6723
27.7392
29.9752
32.391
34.9973
37.8045
40.8226
44.0613
47.5296
51.236
55.1885
59.3948
63.8629
68.6008
73.6155
78.915
84.5017
90.3728
96.5263
102.96
109.672
116.659
123.916
131.439
139.221
147.257
155.54
164.06
172.81
181.781
190.962
200.345
209.917
219.668
229.586
239.66
249.877
260.225
270.691
281.262
291.924
302.663
313.467
324.32
335.208
346.118
357.033
367.94
378.823
389.667
400.455
411.173
421.804
432.332
442.74
453.013
463.133
473.085
482.851
492.415
501.76
510.869
519.727
528.318
536.625
544.633
552.327
559.694
566.72
573.392
579.697
585.623
591.159
596.297
601.027
605.341
609.231
612.692
615.722
618.313
620.461
622.173
623.439
624.261
624.65
624.582
624.112
623.16
621.803
620.028
617.846
615.269
612.308
608.974
605.28
601.234
596.845
592.12
587.069
581.707
576.044
570.092
563.864
557.371
550.623
543.634
536.413
528.972
521.324
513.482
505.459
497.269
488.927
480.45
471.854
463.153
454.365
445.504
436.586
427.625
418.636
409.633
400.631
391.643
382.683
373.764
364.897
356.094
347.365
338.719
330.166
321.715
313.376
305.156
297.062
289.104
281.29
273.628
266.129
258.802
251.659
244.714
237.981
231.469
225.208
219.154
213.296
13.8432
6.56571
5.00922
4.4756
4.28928
4.26726
4.34406
4.48955
4.6886
4.9349
5.22495
5.55734
5.9325
6.35108
6.81502
7.32724
7.89144
8.51212
9.19462
9.94516
10.7702
11.6772
12.6746
13.7714
14.9775
16.3037
17.7615
19.363
21.1209
23.0482
25.1585
27.4651
29.9817
32.722
35.6991
38.9255
42.4128
46.172
50.2134
54.5454
59.1746
64.1063
69.3453
74.8959
80.7588
86.9349
93.4268
100.233
107.356
114.776
122.482
130.462
138.707
147.204
155.942
164.909
174.093
183.481
193.062
202.823
212.752
222.836
233.064
243.422
253.9
264.484
275.163
285.926
296.76
307.655
318.597
329.576
340.58
351.598
362.617
373.626
384.613
395.567
406.475
417.326
428.107
438.805
449.408
459.902
470.276
480.514
490.604
500.531
510.283
519.843
529.199
538.336
547.238
555.891
564.281
572.394
580.215
587.731
594.927
601.79
608.308
614.47
620.265
625.68
630.705
635.331
639.549
643.355
646.74
649.696
652.218
654.314