/*--------------------------------*- C++ -*----------------------------------*\
  =========                 |
  \\      /  F ield         | OpenFOAM: The Open Source CFD Toolbox
   \\    /   O peration     | Website:  https://openfoam.org
    \\  /    A nd           | Version:  8
     \\/     M anipulation  |
\*---------------------------------------------------------------------------*/
FoamFile
{
    version     2.0;
    format      ascii;
    class       volScalarField;
    location    "215";
    object      k;
}
// * * * * * * * * * * * * * * * * * * * * * * * * * * * * * * * * * * * * * //

dimensions      [0 2 -2 0 0 0 0];

internalField   nonuniform List<scalar> 
12225
(
0.362826
0.343995
0.327747
0.309818
0.295401
0.283481
0.275513
0.270283
0.270341
0.271869
0.276076
0.280643
0.289936
0.295697
0.30678
0.312753
0.325834
0.323421
0.440271
0.468738
0.461615
0.448372
0.450346
0.458316
0.474542
0.498544
0.524398
0.552123
0.580759
0.606169
0.633877
0.653879
0.679871
0.693034
0.718509
0.724535
0.390407
0.417859
0.420244
0.41683
0.411634
0.407803
0.408017
0.410037
0.414557
0.421398
0.43073
0.439718
0.451191
0.461162
0.472877
0.483562
0.493631
0.506001
0.377043
0.387169
0.391466
0.391343
0.39026
0.387884
0.38566
0.38408
0.382882
0.382897
0.383357
0.384382
0.38628
0.388467
0.390919
0.394255
0.396571
0.40101
0.374434
0.376094
0.378427
0.378665
0.378275
0.377201
0.375488
0.373737
0.37201
0.370455
0.369256
0.36811
0.367381
0.366806
0.366445
0.366341
0.366363
0.366715
0.373779
0.372704
0.372659
0.372366
0.371772
0.370818
0.369553
0.368082
0.366571
0.364976
0.363528
0.362063
0.360755
0.359529
0.358397
0.357428
0.356442
0.355788
0.373775
0.37174
0.370388
0.369284
0.368235
0.367114
0.365915
0.364587
0.363238
0.361808
0.360422
0.359024
0.357678
0.356382
0.355121
0.353967
0.352794
0.351804
0.373818
0.371559
0.369635
0.367976
0.366501
0.365108
0.363775
0.362429
0.361107
0.359766
0.35845
0.357144
0.355863
0.354622
0.353401
0.35225
0.351099
0.350052
0.373832
0.371553
0.369449
0.367525
0.365776
0.364153
0.362645
0.361199
0.359817
0.358473
0.35717
0.355903
0.354667
0.353475
0.352308
0.351196
0.350097
0.349073
0.373831
0.37156
0.369418
0.367405
0.365529
0.363772
0.362133
0.360585
0.359122
0.357728
0.356395
0.355118
0.353888
0.35271
0.351569
0.350481
0.34942
0.34842
0.373829
0.37156
0.369413
0.367378
0.365458
0.363645
0.361937
0.360324
0.358798
0.357353
0.355979
0.354672
0.353424
0.352235
0.351094
0.350009
0.348959
0.347969
0.373828
0.371558
0.369409
0.36737
0.365439
0.363609
0.361875
0.360234
0.358677
0.357201
0.3558
0.354468
0.3532
0.351995
0.350842
0.349747
0.348695
0.347701
0.373827
0.371556
0.369405
0.367365
0.36543
0.363593
0.361851
0.360197
0.358626
0.357134
0.355715
0.354368
0.353084
0.351864
0.3507
0.349594
0.348535
0.347532
0.373826
0.371555
0.369401
0.367359
0.365422
0.363583
0.361837
0.360178
0.3586
0.357101
0.355674
0.354317
0.353024
0.351794
0.350622
0.349506
0.34844
0.347427
0.373826
0.371553
0.369398
0.367355
0.365416
0.363575
0.361826
0.360164
0.358584
0.357081
0.355651
0.354289
0.352993
0.351758
0.35058
0.349459
0.348388
0.347368
0.373826
0.371552
0.369396
0.367351
0.36541
0.363567
0.361817
0.360153
0.358572
0.357067
0.355634
0.354271
0.352971
0.351734
0.350554
0.349429
0.348356
0.347333
0.373825
0.371551
0.369394
0.367348
0.365406
0.363562
0.36181
0.360145
0.358562
0.357055
0.355621
0.354256
0.352955
0.351716
0.350535
0.349408
0.348333
0.347308
0.373825
0.371551
0.369393
0.367346
0.365403
0.363558
0.361805
0.360139
0.358555
0.357047
0.355612
0.354245
0.352944
0.351703
0.35052
0.349393
0.348317
0.34729
0.373825
0.37155
0.369393
0.367346
0.365402
0.363557
0.361804
0.360137
0.358552
0.357044
0.355608
0.354241
0.352938
0.351697
0.350513
0.349385
0.348308
0.347281
0.373825
0.371551
0.369393
0.367347
0.365404
0.363559
0.361806
0.36014
0.358555
0.357047
0.355611
0.354244
0.352942
0.3517
0.350517
0.349389
0.348312
0.347285
0.373825
0.371551
0.369395
0.367349
0.365407
0.363563
0.361811
0.360146
0.358562
0.357055
0.355621
0.354256
0.352955
0.351715
0.350534
0.349407
0.348333
0.347308
0.373826
0.371552
0.369397
0.367352
0.365412
0.363571
0.361822
0.360161
0.358583
0.357083
0.355656
0.354299
0.353006
0.351775
0.350602
0.349483
0.348417
0.347398
0.373826
0.371554
0.369399
0.367359
0.365429
0.363602
0.361875
0.36024
0.358691
0.35722
0.355823
0.354493
0.353227
0.352019
0.350866
0.349763
0.348711
0.347701
0.373828
0.371551
0.369412
0.367417
0.365556
0.363819
0.362189
0.360651
0.359189
0.357793
0.356456
0.355171
0.353936
0.352745
0.351601
0.350496
0.349436
0.34841
0.373823
0.371554
0.369604
0.367893
0.366339
0.364892
0.363495
0.362122
0.360761
0.359414
0.358081
0.35677
0.355488
0.354238
0.353029
0.351855
0.350734
0.349645
0.373781
0.37199
0.371113
0.370265
0.36936
0.368311
0.367048
0.36563
0.364121
0.362575
0.36103
0.359522
0.358073
0.356682
0.355382
0.354141
0.35301
0.351924
0.374297
0.375564
0.377778
0.377858
0.377291
0.375885
0.373835
0.371641
0.369505
0.367482
0.365664
0.364084
0.36271
0.361535
0.36061
0.359818
0.359289
0.358801
0.378732
0.394394
0.398293
0.396566
0.392558
0.387608
0.383641
0.380455
0.378266
0.376851
0.376496
0.376749
0.377399
0.378697
0.380442
0.382422
0.384826
0.387137
0.408344
0.427539
0.422424
0.411051
0.402226
0.397923
0.398556
0.401117
0.405985
0.413038
0.420995
0.429827
0.438834
0.44819
0.457304
0.466551
0.475318
0.484178
0.366033
0.353411
0.341988
0.33021
0.318982
0.308382
0.299409
0.291674
0.285403
0.280333
0.276682
0.273867
0.27231
0.271184
0.271175
0.27152
0.272155
0.273385
0.00122404
0.00624509
0.0112606
0.0159766
0.0209927
0.0264284
0.0323742
0.0388333
0.0457211
0.0529066
0.0602553
0.0676488
0.0749921
0.0822052
0.0892156
0.0959456
0.102305
0.108179
0.113428
0.117873
0.121292
0.1234
0.123824
0.122034
0.117224
0.108074
0.109839
0.11343
0.117402
0.120315
0.124257
0.126797
0.130726
0.13631
0.142347
0.142817
0.13636
0.142136
0.150778
0.158848
0.165332
0.173366
0.181001
0.189055
0.197203
0.205543
0.214044
0.222708
0.231536
0.240526
0.249678
0.258993
0.268469
0.278107
0.287907
0.297867
0.307986
0.318264
0.328697
0.339285
0.350023
0.360909
0.371938
0.38311
0.394414
0.405851
0.41741
0.42909
0.44088
0.452778
0.464771
0.476858
0.489024
0.501266
0.51357
0.525932
0.538335
0.550778
0.563241
0.575723
0.588204
0.60068
0.613131
0.625554
0.637925
0.65024
0.662475
0.674623
0.68666
0.698573
0.710338
0.721932
0.73333
0.744507
0.755446
0.766145
0.776639
0.787025
0.797126
0.807015
0.816654
0.826042
0.835163
0.844005
0.852555
0.860801
0.86873
0.876333
0.883596
0.89051
0.897059
0.903237
0.909028
0.914425
0.919413
0.923985
0.928127
0.931833
0.935091
0.937894
0.940231
0.942096
0.943482
0.944385
0.944797
0.944703
0.944056
0.942763
0.941004
0.938856
0.936247
0.932971
0.929196
0.924876
0.920039
0.914679
0.908811
0.902411
0.895477
0.888057
0.880159
0.871801
0.863005
0.853798
0.844205
0.834255
0.823974
0.813396
0.80255
0.79147
0.780188
0.768739
0.757157
0.745478
0.73375
0.722054
0.710641
0.701121
0.693952
0.687097
0.680252
0.67342
0.666632
0.659913
0.653283
0.646772
0.640404
0.634205
0.628197
0.622404
0.616846
0.611543
0.606504
0.601715
0.597187
0.592855
0.588613
0.584049
0.578001
0.555235
0.00555001
0.0194398
0.0284633
0.0354011
0.0416977
0.0480176
0.0546464
0.0616671
0.0690435
0.0766817
0.0844738
0.0923218
0.100146
0.107883
0.115475
0.122863
0.129977
0.136726
0.142995
0.148646
0.153521
0.157467
0.160377
0.162282
0.163531
0.165198
0.169987
0.176066
0.18266
0.189657
0.197374
0.205712
0.215213
0.227061
0.241707
0.251939
0.262534
0.276525
0.290766
0.303063
0.315297
0.32832
0.341684
0.355403
0.369438
0.383795
0.398465
0.413449
0.428746
0.444356
0.460281
0.476523
0.493083
0.509962
0.527163
0.544686
0.562531
0.5807
0.599191
0.618003
0.637134
0.656583
0.676346
0.696418
0.716795
0.737473
0.758442
0.779698
0.801232
0.823034
0.845095
0.867405
0.889951
0.912723
0.935705
0.958886
0.982248
1.00578
1.02946
1.05327
1.07721
1.10124
1.12535
1.14952
1.17372
1.19795
1.22216
1.24635
1.27048
1.29453
1.31847
1.34226
1.36587
1.38925
1.41236
1.43513
1.4575
1.4794
1.50103
1.52235
1.54334
1.56398
1.58426
1.60413
1.62359
1.6426
1.66115
1.6792
1.69673
1.71373
1.73016
1.74599
1.76122
1.7758
1.78972
1.80294
1.81545
1.82722
1.83822
1.84843
1.85783
1.86638
1.87407
1.88088
1.88679
1.89177
1.89578
1.89862
1.90036
1.9012
1.90136
1.90022
1.89799
1.89468
1.89028
1.88479
1.87823
1.8706
1.8619
1.85216
1.8414
1.82963
1.8169
1.80325
1.78871
1.77333
1.75717
1.74028
1.72271
1.70453
1.6858
1.66658
1.64694
1.62694
1.60666
1.58617
1.56562
1.54535
1.5255
1.50574
1.48605
1.46651
1.44717
1.42811
1.40938
1.39104
1.37314
1.35572
1.33885
1.32256
1.30691
1.29192
1.27765
1.2641
1.25129
1.23921
1.22779
1.21695
1.2046
1.17305
0.0112375
0.0320153
0.0436767
0.0524548
0.0602706
0.0678305
0.0754637
0.0833095
0.0913931
0.0996763
0.108095
0.116583
0.125085
0.13356
0.141972
0.15029
0.15848
0.166498
0.174292
0.181807
0.189001
0.195867
0.202473
0.209007
0.215823
0.22343
0.232287
0.242112
0.25271
0.264056
0.276187
0.289098
0.303061
0.317949
0.333305
0.348066
0.363288
0.379274
0.395457
0.41174
0.428281
0.445248
0.462627
0.480407
0.498578
0.517136
0.536081
0.555411
0.575127
0.595231
0.615721
0.636601
0.657872
0.679533
0.701586
0.724031
0.746867
0.770094
0.79371
0.817712
0.842098
0.866863
0.892002
0.91751
0.94338
0.969605
0.996175
1.02308
1.05031
1.07786
1.10571
1.13384
1.16225
1.19092
1.21982
1.24895
1.27829
1.30781
1.33749
1.36732
1.39727
1.42732
1.45744
1.48761
1.5178
1.54799
1.57815
1.60825
1.63826
1.66815
1.69789
1.72746
1.7568
1.7859
1.81472
1.84323
1.87141
1.89925
1.92673
1.95382
1.98049
2.00672
2.03247
2.05771
2.08241
2.10653
2.13005
2.15295
2.17518
2.19671
2.21752
2.23758
2.25684
2.27529
2.29289
2.30961
2.32541
2.34026
2.35414
2.36701
2.37884
2.38959
2.39925
2.40777
2.41514
2.42131
2.42624
2.42986
2.43202
2.43298
2.43291
2.43136
2.42843
2.42412
2.41844
2.4114
2.403
2.39324
2.38216
2.36976
2.35607
2.34113
2.32497
2.30765
2.28923
2.26975
2.24928
2.2279
2.20566
2.18266
2.15896
2.13465
2.10981
2.08452
2.05886
2.03295
2.00691
1.98097
1.95526
1.92968
1.90423
1.87897
1.85398
1.82934
1.80511
1.78138
1.7582
1.73565
1.71378
1.69266
1.67234
1.65289
1.63435
1.61679
1.60023
1.58473
1.57027
1.55686
1.54305
1.51744
0.0172796
0.0435391
0.0576424
0.0680129
0.0770254
0.0855355
0.0939443
0.102445
0.111114
0.119958
0.128949
0.138049
0.147222
0.156441
0.16569
0.174958
0.184237
0.193523
0.202809
0.212097
0.221403
0.230772
0.240289
0.250094
0.260369
0.271299
0.282997
0.295437
0.308581
0.322417
0.336951
0.352194
0.368157
0.384762
0.401863
0.419283
0.437147
0.455484
0.474207
0.493275
0.512699
0.532531
0.552789
0.573479
0.594603
0.616162
0.638157
0.66059
0.683463
0.706779
0.730539
0.754745
0.779399
0.804502
0.830055
0.85606
0.882514
0.909419
0.936771
0.964569
0.99281
1.02149
1.0506
1.08014
1.11009
1.14046
1.17123
1.20239
1.23393
1.26583
1.29808
1.33067
1.36358
1.39678
1.43027
1.46402
1.498
1.5322
1.5666
1.60116
1.63586
1.67067
1.70557
1.74052
1.7755
1.81048
1.84542
1.88029
1.91505
1.94969
1.98416
2.01843
2.05247
2.08624
2.11972
2.15286
2.18564
2.21803
2.24999
2.28149
2.31249
2.34295
2.37284
2.40212
2.43076
2.45872
2.48596
2.51245
2.53815
2.56303
2.58705
2.61018
2.63239
2.65362
2.67386
2.69306
2.7112
2.72822
2.74411
2.75881
2.77231
2.78456
2.79553
2.80518
2.81349
2.82042
2.82592
2.82995
2.83229
2.83325
2.8329
2.83092
2.82735
2.8222
2.81547
2.80716
2.79729
2.78587
2.77292
2.75846
2.74251
2.72513
2.70636
2.68624
2.66485
2.64225
2.61851
2.59371
2.56793
2.54127
2.51379
2.48561
2.45681
2.4275
2.39776
2.36772
2.33751
2.30731
2.27723
2.24728
2.21748
2.1879
2.15863
2.12975
2.10134
2.07349
2.04627
2.01976
1.99404
1.96917
1.94523
1.92229
1.90043
1.87971
1.86022
1.84206
1.82527
1.80995
1.79491
1.77293
0.0231388
0.0541049
0.0704372
0.0822845
0.092393
0.101751
0.110836
0.119894
0.129052
0.138359
0.147824
0.157437
0.167182
0.177047
0.187029
0.19713
0.207361
0.217735
0.22827
0.238992
0.249936
0.26115
0.272702
0.284675
0.297159
0.310237
0.323955
0.338327
0.353348
0.369016
0.385332
0.402295
0.419895
0.4381
0.456863
0.476137
0.495915
0.516182
0.536906
0.558065
0.579658
0.601701
0.624208
0.647187
0.670644
0.694583
0.719008
0.743923
0.769332
0.795239
0.821647
0.848559
0.875978
0.903906
0.932345
0.961297
0.990762
1.02074
1.05123
1.08223
1.11374
1.14575
1.17826
1.21126
1.24474
1.2787
1.31313
1.348
1.38332
1.41907
1.45522
1.49177
1.52869
1.56596
1.60357
1.64148
1.67967
1.71812
1.7568
1.79568
1.83473
1.87391
1.91321
1.95257
1.99198
2.03138
2.07076
2.11006
2.14925
2.18831
2.22718
2.26583
2.30423
2.34233
2.3801
2.41748
2.45446
2.49097
2.52699
2.56248
2.59738
2.63166
2.66528
2.69819
2.73036
2.76174
2.79229
2.82198
2.85076
2.8786
2.90546
2.9313
2.95607
2.97975
3.00229
3.02366
3.04381
3.06272
3.08034
3.09663
3.11156
3.12509
3.13718
3.14781
3.15693
3.16451
3.17051
3.17489
3.17743
3.1784
3.17783
3.17549
3.1714
3.16555
3.15795
3.1486
3.13751
3.1247
3.11018
3.09399
3.07615
3.05671
3.03572
3.01325
2.98934
2.96409
2.93756
2.90984
2.88103
2.85121
2.8205
2.78898
2.75676
2.72396
2.69068
2.65705
2.62318
2.58925
2.55536
2.52156
2.48793
2.45452
2.42144
2.38877
2.35661
2.32504
2.29416
2.26405
2.23479
2.20648
2.17918
2.15299
2.12799
2.1043
2.08201
2.06128
2.04222
2.02496
2.00854
1.98798
0.0286211
0.0635781
0.0819039
0.0951049
0.106227
0.11637
0.126076
0.135638
0.145223
0.154921
0.164774
0.1748
0.185003
0.195389
0.205965
0.216742
0.227741
0.238983
0.250497
0.262316
0.274477
0.287023
0.300004
0.313473
0.327481
0.342072
0.357276
0.373105
0.389565
0.406654
0.424374
0.44272
0.461686
0.481257
0.501414
0.522135
0.543405
0.565207
0.587524
0.610346
0.633668
0.657496
0.681838
0.7067
0.73209
0.758013
0.784476
0.811485
0.839046
0.867163
0.895841
0.925086
0.954902
0.985292
1.01626
1.04781
1.07994
1.11265
1.14595
1.17983
1.21429
1.24933
1.28494
1.32111
1.35785
1.39513
1.43296
1.47131
1.51017
1.54953
1.58936
1.62966
1.6704
1.71155
1.75309
1.795
1.83724
1.87979
1.92261
1.96567
2.00895
2.05239
2.09596
2.13963
2.18336
2.2271
2.27082
2.31446
2.35799
2.40137
2.44456
2.4875
2.53015
2.57247
2.6144
2.65591
2.69694
2.73744
2.77738
2.8167
2.85535
2.8933
2.93049
2.96687
3.00241
3.03705
3.07076
3.10348
3.13518
3.16582
3.19534
3.22372
3.25091
3.27687
3.30156
3.32495
3.34698
3.36762
3.38684
3.4046
3.42085
3.43557
3.44871
3.46024
3.47012
3.47832
3.48479
3.48952
3.49228
3.4933
3.49258
3.48997
3.48545
3.47902
3.47069
3.46045
3.44831
3.4343
3.41843
3.40073
3.38123
3.35999
3.33706
3.31249
3.28636
3.25874
3.22972
3.19939
3.16785
3.1352
3.10155
3.06701
3.03169
2.9957
2.95916
2.92221
2.88496
2.84756
2.81013
2.77276
2.73553
2.69851
2.66182
2.62554
2.58978
2.55464
2.52022
2.4866
2.45388
2.42215
2.39152
2.36207
2.33392
2.30719
2.28202
2.2586
2.23708
2.21762
2.19942
2.17877
0.0335858
0.0718687
0.0919252
0.106326
0.118362
0.129221
0.139496
0.149517
0.159485
0.169519
0.179692
0.190047
0.200611
0.211402
0.222439
0.233743
0.245337
0.25725
0.269513
0.282157
0.29522
0.308736
0.322745
0.337282
0.352381
0.368071
0.384372
0.401295
0.418847
0.437029
0.455839
0.475277
0.495337
0.516012
0.537293
0.559171
0.581635
0.604676
0.628285
0.652456
0.677187
0.702482
0.728346
0.754786
0.781809
0.809423
0.837635
0.866453
0.895885
0.925938
0.956619
0.987934
1.01989
1.05249
1.08575
1.11966
1.15423
1.18946
1.22535
1.26191
1.29913
1.33702
1.37555
1.41474
1.45457
1.49504
1.53613
1.57782
1.62011
1.66298
1.70641
1.75037
1.79484
1.8398
1.88522
1.93107
1.97732
2.02393
2.07086
2.11808
2.16556
2.21324
2.26109
2.30905
2.3571
2.40517
2.45322
2.5012
2.54907
2.59677
2.64425
2.69145
2.73834
2.78485
2.83092
2.87651
2.92155
2.966
3.0098
3.0529
3.09525
3.1368
3.17749
3.21727
3.2561
3.29392
3.33069
3.36635
3.40088
3.43421
3.4663
3.49712
3.52662
3.55475
3.58148
3.60677
3.63058
3.65287
3.67359
3.69272
3.71022
3.72604
3.74016
3.75253
3.76313
3.77191
3.77885
3.78391
3.78691
3.78801
3.7872
3.78438
3.77951
3.77259
3.76362
3.75261
3.73956
3.7245
3.70744
3.68841
3.66745
3.6446
3.61993
3.59348
3.56534
3.53559
3.50431
3.4716
3.43757
3.40232
3.36597
3.32862
3.29041
3.25144
3.21185
3.17176
3.1313
3.09061
3.04982
3.00903
2.96833
2.92783
2.88762
2.84782
2.80852
2.76985
2.73189
2.69475
2.65855
2.62337
2.58932
2.55652
2.52509
2.49518
2.46695
2.44061
2.41635
2.39434
2.37388
2.35206
0.0379306
0.0789226
0.100434
0.115859
0.128686
0.140178
0.150961
0.161395
0.171702
0.182028
0.192468
0.203088
0.213931
0.225032
0.236419
0.24812
0.260163
0.272579
0.285398
0.298652
0.312372
0.32659
0.341335
0.356636
0.372516
0.388996
0.406093
0.423816
0.442173
0.461167
0.480798
0.501066
0.52197
0.543507
0.565675
0.588469
0.611886
0.635923
0.660577
0.685847
0.711735
0.738244
0.765382
0.793154
0.821571
0.850641
0.880374
0.910779
0.941867
0.973646
1.00613
1.03931
1.07322
1.10786
1.14322
1.17933
1.21618
1.25378
1.29213
1.33124
1.3711
1.41171
1.45307
1.49518
1.53802
1.58159
1.62587
1.67086
1.71652
1.76286
1.80983
1.85743
1.90562
1.95438
2.00367
2.05345
2.1037
2.15438
2.20544
2.25683
2.30853
2.36046
2.4126
2.46489
2.51727
2.56969
2.6221
2.67443
2.72664
2.77867
2.83045
2.88193
2.93305
2.98373
3.03393
3.08357
3.13261
3.18097
3.2286
3.27544
3.32144
3.36653
3.41066
3.45378
3.49582
3.53674
3.57648
3.615
3.65225
3.68817
3.72273
3.75587
3.78757
3.81776
3.84642
3.8735
3.89897
3.92278
3.9449
3.96529
3.98392
4.00076
4.01576
4.0289
4.04015
4.04946
4.05682
4.06218
4.06541
4.06659
4.06573
4.06272
4.05754
4.0502
4.04068
4.02899
4.01515
3.99916
3.98105
3.96084
3.93857
3.9143
3.88806
3.85993
3.82999
3.7983
3.76498
3.7301
3.69379
3.65615
3.61729
3.57735
3.53643
3.49467
3.45219
3.40913
3.36562
3.32179
3.27777
3.23368
3.18963
3.14573
3.10208
3.05879
3.01599
2.97379
2.93229
2.89161
2.85186
2.81315
2.77559
2.73931
2.70445
2.67118
2.63967
2.61015
2.58284
2.5579
2.53472
2.51089
0.041596
0.0847317
0.107421
0.123684
0.13717
0.149197
0.160418
0.171209
0.181811
0.192387
0.20305
0.21388
0.224939
0.236271
0.247915
0.259905
0.272272
0.285048
0.298263
0.311946
0.326127
0.340833
0.356087
0.371913
0.38833
0.405357
0.423007
0.441289
0.460213
0.479783
0.500004
0.520878
0.542406
0.564592
0.587435
0.610939
0.635103
0.659931
0.685425
0.711588
0.738424
0.765942
0.79415
0.823056
0.852672
0.88301
0.914081
0.945896
0.978469
1.01181
1.04593
1.08085
1.11657
1.1531
1.19045
1.22864
1.26766
1.30753
1.34825
1.38982
1.43224
1.47552
1.51965
1.56462
1.61043
1.65706
1.70451
1.75276
1.80179
1.85158
1.90211
1.95334
2.00526
2.05782
2.11099
2.16473
2.21901
2.27377
2.32897
2.38456
2.44049
2.49671
2.55315
2.60977
2.6665
2.72328
2.78005
2.83675
2.8933
2.94964
3.00571
3.06144
3.11675
3.17158
3.22586
3.27952
3.33249
3.3847
3.4361
3.48661
3.53617
3.58472
3.63219
3.67853
3.72368
3.76758
3.81018
3.85142
3.89125
3.92963
3.96651
4.00183
4.03557
4.06767
4.0981
4.12682
4.15378
4.17897
4.20233
4.22384
4.24347
4.26118
4.27694
4.29073
4.30252
4.31227
4.31996
4.32555
4.32896
4.3302
4.32928
4.3261
4.32063
4.31289
4.30287
4.29059
4.27603
4.25922
4.24018
4.21893
4.19552
4.16997
4.14236
4.11274
4.08118
4.04777
4.01261
3.97578
3.9374
3.89758
3.85643
3.81409
3.77067
3.72631
3.68113
3.63527
3.58886
3.54204
3.49494
3.44769
3.4004
3.35319
3.30618
3.25948
3.21322
3.1675
3.12246
3.07821
3.03487
2.99255
2.95138
2.91151
2.87308
2.83626
2.80126
2.76831
2.73764
2.70943
2.6831
2.65658
0.044554
0.0893241
0.112926
0.129846
0.143854
0.156314
0.167893
0.178981
0.189829
0.200611
0.211453
0.222447
0.233666
0.245163
0.256985
0.269171
0.281754
0.294767
0.308241
0.322204
0.336681
0.351698
0.367275
0.383434
0.400193
0.417566
0.435568
0.454211
0.473504
0.493455
0.514072
0.53536
0.557327
0.579977
0.603316
0.627351
0.652089
0.677534
0.703696
0.730581
0.758198
0.786559
0.815674
0.845556
0.876219
0.907678
0.939946
0.973038
1.00697
1.04176
1.07741
1.11395
1.15138
1.18972
1.22898
1.26918
1.31031
1.35239
1.39543
1.43942
1.48438
1.5303
1.57717
1.625
1.67377
1.72347
1.77409
1.82561
1.87802
1.93128
1.98537
2.04026
2.09592
2.1523
2.20937
2.26709
2.3254
2.38426
2.44362
2.50341
2.56358
2.62407
2.68482
2.74575
2.80681
2.86792
2.92902
2.99002
3.05086
3.11146
3.17175
3.23164
3.29107
3.34996
3.40822
3.46578
3.52257
3.57852
3.63354
3.68758
3.74056
3.79241
3.84307
3.89247
3.94054
3.98724
4.03251
4.07628
4.1185
4.15913
4.19812
4.23542
4.27099
4.30478
4.33677
4.36691
4.39517
4.42151
4.44591
4.46834
4.48877
4.50716
4.52351
4.53778
4.54995
4.56
4.5679
4.57362
4.57711
4.57835
4.57733
4.57394
4.56818
4.56005
4.54957
4.53673
4.52154
4.50401
4.48415
4.462
4.43759
4.41095
4.38214
4.35122
4.31826
4.28334
4.24656
4.208
4.16778
4.12602
4.08281
4.0383
3.99261
3.94586
3.89818
3.84972
3.80061
3.75099
3.70098
3.65073
3.60035
3.54996
3.4997
3.44967
3.40002
3.35085
3.3023
3.25448
3.20753
3.16157
3.11673
3.07317
3.03105
2.99054
2.95187
2.91528
2.88099
2.84919
2.81936
2.7898
0.0468068
0.0927622
0.117034
0.134439
0.14884
0.161628
0.173482
0.1848
0.195838
0.206779
0.217755
0.228867
0.240193
0.251795
0.263725
0.276026
0.288735
0.301884
0.315503
0.32962
0.344258
0.359441
0.37519
0.391524
0.408461
0.426017
0.444207
0.463045
0.482543
0.502713
0.523566
0.545112
0.56736
0.590323
0.614009
0.63843
0.663597
0.689523
0.716218
0.743696
0.771967
0.801047
0.830952
0.861698
0.893302
0.925782
0.959156
0.993442
1.02866
1.06482
1.10195
1.14006
1.17916
1.21928
1.26042
1.30261
1.34584
1.39013
1.43549
1.48192
1.52942
1.578
1.62764
1.67835
1.73011
1.78292
1.83674
1.89157
1.94738
2.00415
2.06183
2.1204
2.17982
2.24005
2.30103
2.36272
2.42506
2.48801
2.55149
2.61545
2.67983
2.74454
2.80952
2.8747
2.94
3.00535
3.07066
3.13585
3.20085
3.26557
3.32992
3.39383
3.4572
3.51996
3.58202
3.64329
3.70369
3.76315
3.82158
3.87891
3.93507
3.98997
4.04356
4.09576
4.1465
4.19573
4.24338
4.2894
4.33374
4.37634
4.41715
4.45613
4.49325
4.52845
4.56171
4.59299
4.62226
4.6495
4.67467
4.69775
4.71872
4.73756
4.75426
4.76879
4.78113
4.79129
4.79923
4.80494
4.80837
4.80951
4.80833
4.80468
4.79856
4.79004
4.77911
4.76576
4.75
4.73184
4.7113
4.68838
4.66312
4.63556
4.60575
4.57374
4.5396
4.5034
4.46524
4.42521
4.38341
4.33996
4.29496
4.24854
4.20083
4.15195
4.10204
4.05122
3.99964
3.94744
3.89475
3.84169
3.78841
3.73503
3.68167
3.62846
3.57553
3.52301
3.47102
3.4197
3.36917
3.31958
3.27106
3.22378
3.17789
3.1336
3.09113
3.05072
3.0126
2.97697
2.94335
2.91034
0.0483929
0.0951506
0.119864
0.137599
0.152266
0.16528
0.177326
0.188803
0.199973
0.21102
0.222081
0.233264
0.24465
0.256306
0.268285
0.280633
0.293386
0.306581
0.320245
0.334407
0.349091
0.36432
0.380115
0.396495
0.413479
0.431085
0.449332
0.468234
0.48781
0.508074
0.529041
0.550725
0.573142
0.596305
0.620231
0.644935
0.670435
0.696747
0.723888
0.751875
0.780724
0.810454
0.841086
0.872642
0.905141
0.938606
0.973059
1.00852
1.04501
1.08255
1.12116
1.16086
1.20166
1.24359
1.28666
1.33088
1.37627
1.42283
1.47058
1.51951
1.56963
1.62094
1.67343
1.7271
1.78192
1.83789
1.89499
1.95319
2.01245
2.07276
2.13407
2.19634
2.25953
2.32359
2.38847
2.4541
2.52043
2.5874
2.65494
2.72297
2.79143
2.86023
2.92931
2.99857
3.06794
3.13732
3.20664
3.2758
3.34472
3.4133
3.48146
3.54909
3.61612
3.68244
3.74798
3.81263
3.87632
3.93895
4.00044
4.06071
4.11968
4.17727
4.23342
4.28804
4.34107
4.39245
4.44211
4.49
4.53606
4.58024
4.6225
4.66279
4.70108
4.73732
4.77149
4.80355
4.83348
4.86126
4.88686
4.91027
4.93148
4.95046
4.96722
4.98174
4.99401
5.00404
5.01182
5.01733
5.02055
5.02143
5.02001
5.016
5.00948
5.00054
4.98916
4.97535
4.95909
4.94039
4.91927
4.89573
4.8698
4.84151
4.8109
4.77802
4.74294
4.70573
4.66647
4.62525
4.58216
4.53732
4.49083
4.44281
4.39339
4.34268
4.29083
4.23796
4.1842
4.1297
4.07458
4.01899
3.96306
3.9069
3.85066
3.79446
3.73844
3.68272
3.62744
3.57273
3.51872
3.46557
3.41342
3.36242
3.31277
3.26466
3.21832
3.17399
3.1319
3.09227
3.05467
3.01796
0.0493739
0.0965988
0.121554
0.139475
0.154297
0.167441
0.179595
0.19116
0.2024
0.213501
0.224602
0.235808
0.247203
0.258856
0.270822
0.283148
0.295874
0.309035
0.322661
0.33678
0.351419
0.366604
0.382356
0.398687
0.415621
0.43318
0.451389
0.470266
0.489834
0.510112
0.531119
0.552875
0.575399
0.598707
0.622817
0.647759
0.673553
0.70022
0.72778
0.756258
0.785676
0.816061
0.847436
0.879828
0.913261
0.947762
0.983355
1.02006
1.05791
1.09692
1.13712
1.17852
1.22115
1.26502
1.31015
1.35655
1.40424
1.45322
1.5035
1.55509
1.60797
1.66215
1.71762
1.77437
1.83237
1.89161
1.95207
2.0137
2.07648
2.14037
2.20532
2.27129
2.33823
2.40608
2.47477
2.54425
2.61445
2.68529
2.75671
2.82862
2.90094
2.9736
3.0465
3.11955
3.19267
3.26576
3.33873
3.41148
3.48393
3.55596
3.62749
3.69842
3.76865
3.83808
3.90662
3.97417
4.04065
4.10595
4.17
4.2327
4.29398
4.35375
4.41193
4.46847
4.52327
4.57628
4.62744
4.6767
4.72398
4.76926
4.81248
4.8536
4.89259
4.92941
4.96403
4.99644
5.0266
5.05451
5.08014
5.1035
5.12456
5.14334
5.15982
5.17401
5.18592
5.19556
5.20293
5.20803
5.21086
5.21135
5.20956
5.20507
5.19809
5.1887
5.17688
5.16264
5.14595
5.12682
5.10525
5.08124
5.05482
5.02601
4.99484
4.96136
4.92561
4.88768
4.84762
4.80553
4.76149
4.71561
4.66798
4.61872
4.56795
4.51578
4.46234
4.40776
4.35218
4.29572
4.23852
4.18071
4.12242
4.0638
4.00495
3.94603
3.88715
3.82846
3.77009
3.71217
3.65485
3.59827
3.54259
3.48798
3.43462
3.38272
3.33251
3.28423
3.23811
3.1944
3.15269
3.11216
0.0497323
0.097132
0.122215
0.140219
0.155099
0.168287
0.180474
0.192062
0.203313
0.21441
0.225491
0.236665
0.248015
0.259611
0.271509
0.283756
0.296393
0.309456
0.322978
0.336988
0.351515
0.36659
0.382244
0.398477
0.415318
0.432795
0.450932
0.469756
0.489291
0.509563
0.530596
0.552415
0.575045
0.598508
0.622828
0.648055
0.674191
0.701265
0.729313
0.758365
0.788452
0.819605
0.851854
0.88523
0.919762
0.955478
0.992406
1.03057
1.07
1.11072
1.15274
1.1961
1.24081
1.28688
1.33434
1.38318
1.43344
1.4851
1.53816
1.59264
1.64852
1.70579
1.76443
1.82443
1.88577
1.9484
2.01231
2.07745
2.14378
2.21125
2.27982
2.34942
2.42
2.49149
2.56383
2.63695
2.71076
2.78519
2.86017
2.9356
3.0114
3.08748
3.16375
3.24012
3.31648
3.39274
3.46881
3.54458
3.61995
3.69483
3.7691
3.84268
3.91545
3.98732
4.05819
4.12797
4.19654
4.26383
4.32974
4.39419
4.45709
4.51835
4.5779
4.63567
4.69158
4.74557
4.79758
4.84756
4.89544
4.9412
4.98478
5.02614
5.06526
5.1021
5.13665
5.16887
5.19877
5.22632
5.25153
5.27439
5.2949
5.31307
5.32891
5.34243
5.35366
5.36261
5.3693
5.37377
5.37604
5.376
5.37367
5.36857
5.36107
5.35122
5.33898
5.32436
5.30733
5.28788
5.26602
5.24174
5.21505
5.18595
5.15449
5.12069
5.0846
5.04627
5.00578
4.96319
4.91858
4.87206
4.8237
4.77361
4.72191
4.6687
4.6141
4.55823
4.50123
4.44322
4.38433
4.3247
4.26444
4.2037
4.14261
4.08128
4.01987
3.9585
3.89731
3.83644
3.77604
3.71624
3.65723
3.59916
3.54223
3.48664
3.43263
3.38045
3.33033
3.28252
3.23669
3.19229
0.0496455
0.0970069
0.122055
0.140038
0.154895
0.168057
0.180212
0.19176
0.202964
0.214008
0.22503
0.236136
0.247411
0.258924
0.270729
0.282876
0.295405
0.308354
0.321754
0.335639
0.350037
0.364975
0.380476
0.396568
0.413287
0.430664
0.448731
0.467519
0.487059
0.507383
0.528524
0.550509
0.573372
0.597143
0.621853
0.647517
0.67416
0.701838
0.730593
0.760465
0.791488
0.8237
0.857135
0.891834
0.927829
0.965142
1.0038
1.04384
1.08528
1.12814
1.17245
1.21822
1.26546
1.31418
1.36441
1.41613
1.46937
1.5241
1.58033
1.63804
1.69722
1.75786
1.81991
1.88336
1.94818
2.01431
2.08172
2.15037
2.2202
2.29115
2.36317
2.43619
2.51015
2.58497
2.66058
2.73691
2.81387
2.89137
2.96935
3.04769
3.12633
3.20515
3.28407
3.363
3.44182
3.52045
3.59879
3.67672
3.75416
3.83099
3.90711
3.98243
4.05684
4.13023
4.20251
4.27359
4.34335
4.41171
4.47858
4.54387
4.60749
4.66937
4.72942
4.78758
4.84376
4.89791
4.94997
4.99989
5.04762
5.09312
5.13634
5.17726
5.21584
5.25207
5.28592
5.31737
5.34643
5.3731
5.39737
5.41926
5.43877
5.45591
5.47072
5.48321
5.49342
5.50139
5.50715
5.51075
5.51224
5.51156
5.50851
5.50273
5.4947
5.48438
5.47177
5.45685
5.4396
5.42
5.39804
5.37371
5.347
5.31792
5.28648
5.2527
5.21663
5.17831
5.13778
5.09512
5.0504
5.00369
4.95507
4.90464
4.85249
4.79872
4.74345
4.68679
4.62885
4.56977
4.50966
4.44866
4.38689
4.32447
4.26154
4.19823
4.13466
4.07099
4.00733
3.94383
3.88065
3.81793
3.75583
3.69454
3.63424
3.57515
3.5175
3.46155
3.40752
3.3557
3.30579
3.25759
0.049324
0.0964889
0.121344
0.139197
0.153932
0.166971
0.179002
0.190426
0.201503
0.212419
0.223309
0.234279
0.245411
0.256774
0.268425
0.280411
0.292777
0.305563
0.318804
0.332537
0.346795
0.361612
0.377026
0.393073
0.409789
0.427208
0.445368
0.464309
0.484072
0.504706
0.52624
0.548704
0.572139
0.596577
0.622044
0.648538
0.676148
0.704953
0.734995
0.766314
0.798948
0.832932
0.8683
0.905079
0.943296
0.982985
1.02417
1.06689
1.11117
1.15702
1.20444
1.25344
1.30402
1.35618
1.40992
1.46524
1.52211
1.58053
1.64047
1.70191
1.76482
1.82917
1.89491
1.96201
2.03041
2.10008
2.17095
2.24297
2.31608
2.39022
2.46531
2.5413
2.6181
2.69565
2.77386
2.85266
2.93197
3.01169
3.09175
3.17205
3.25251
3.33304
3.41353
3.4939
3.57405
3.65388
3.73329
3.81219
3.89047
3.96803
4.04477
4.1206
4.1954
4.26909
4.34156
4.41271
4.48246
4.5507
4.61736
4.68233
4.74555
4.80693
4.86639
4.92386
4.97927
5.03256
5.08369
5.1326
5.17925
5.22359
5.2656
5.30524
5.34249
5.37733
5.40976
5.43976
5.46733
5.49249
5.51524
5.53561
5.55361
5.56926
5.5826
5.59367
5.60251
5.60918
5.61373
5.61625
5.61676
5.61529
5.61131
5.60485
5.59625
5.5855
5.57258
5.55747
5.54015
5.52059
5.49876
5.47464
5.44822
5.41947
5.38841
5.35505
5.31941
5.28152
5.24142
5.19917
5.15481
5.10842
5.06006
5.0098
4.95773
4.90394
4.84853
4.7916
4.73326
4.67362
4.6128
4.55093
4.48811
4.42449
4.36018
4.29532
4.23002
4.16444
4.0987
4.03294
3.96731
3.90198
3.83711
3.77286
3.70945
3.64708
3.58599
3.52644
3.46865
3.41295
3.35907
3.30719
0.048605
0.0953977
0.119911
0.137512
0.152022
0.164853
0.176691
0.187934
0.198842
0.209598
0.220337
0.231164
0.242162
0.253399
0.264934
0.276817
0.289098
0.301819
0.315026
0.32876
0.343064
0.35798
0.373553
0.389832
0.406875
0.424714
0.443389
0.462949
0.483439
0.504889
0.527294
0.550749
0.575323
0.601076
0.628071
0.65637
0.686019
0.71707
0.749569
0.783558
0.819071
0.856137
0.894784
0.935031
0.976894
1.02039
1.06553
1.11232
1.16076
1.21082
1.26252
1.31582
1.37073
1.42722
1.48526
1.54484
1.60591
1.66844
1.73239
1.79773
1.8644
1.93236
2.00155
2.07193
2.14344
2.21603
2.28962
2.36418
2.43962
2.51589
2.59291
2.67063
2.74897
2.82786
2.90723
2.98699
3.06708
3.14742
3.22792
3.30851
3.38909
3.4696
3.54993
3.63
3.70972
3.789
3.86775
3.94587