/*--------------------------------*- C++ -*----------------------------------*\
  =========                 |
  \\      /  F ield         | OpenFOAM: The Open Source CFD Toolbox
   \\    /   O peration     | Website:  https://openfoam.org
    \\  /    A nd           | Version:  8
     \\/     M anipulation  |
\*---------------------------------------------------------------------------*/
FoamFile
{
    version     2.0;
    format      ascii;
    class       volScalarField;
    location    "215";
    object      nut;
}
// * * * * * * * * * * * * * * * * * * * * * * * * * * * * * * * * * * * * * //

dimensions      [0 2 -1 0 0 0 0];

internalField   nonuniform List<scalar> 
12225
(
4.14966e-05
3.9342e-05
3.74835e-05
3.54329e-05
3.37841e-05
3.24208e-05
3.15096e-05
3.09114e-05
3.09184e-05
3.10898e-05
3.15779e-05
3.20835e-05
3.3168e-05
3.38139e-05
3.51045e-05
3.5672e-05
3.76152e-05
3.56004e-05
0.000332335
0.000215217
0.000179283
0.000157677
0.00014621
0.00013821
0.000132735
0.000131659
0.000129502
0.00013007
0.000129042
0.000129443
0.000128658
0.000128557
0.00012809
0.000127397
0.000127417
0.000126509
0.000674975
0.000450833
0.000355784
0.000309833
0.00027529
0.000251096
0.000231707
0.000217278
0.000202667
0.000192131
0.000182609
0.000175213
0.000169368
0.000163677
0.000160298
0.000155554
0.000153796
0.000149866
0.000833621
0.000684902
0.000571992
0.000499965
0.00044946
0.000411956
0.000380768
0.000356007
0.000333997
0.000314786
0.000298315
0.000281719
0.000270296
0.000256068
0.000248192
0.000236156
0.000230387
0.000220455
0.000861256
0.000802526
0.000742131
0.000676579
0.000623998
0.000581377
0.000545862
0.00051456
0.000489511
0.000464433
0.000445852
0.000424073
0.00040993
0.000390802
0.000379878
0.000363093
0.000354468
0.000339525
0.00085498
0.000840348
0.000822205
0.000786494
0.00075086
0.000715901
0.000685757
0.000656132
0.000632544
0.000607517
0.000588993
0.000567246
0.000552278
0.000533095
0.000520775
0.000503732
0.000493302
0.000477505
0.000852908
0.000850686
0.000844239
0.000832828
0.00081741
0.000797001
0.000777885
0.000756737
0.000738898
0.000719145
0.000703531
0.000685619
0.00067212
0.000655921
0.000644302
0.000629534
0.000619508
0.000605169
0.000851922
0.000851814
0.000850172
0.000847396
0.000841453
0.000833728
0.000824896
0.000813416
0.000802807
0.00079047
0.000779714
0.000767539
0.000757423
0.000745783
0.000736536
0.000725531
0.000717153
0.000706051
0.000851751
0.000851542
0.000851034
0.000850339
0.00084888
0.000846168
0.000843034
0.000838304
0.000833402
0.00082736
0.000821216
0.000814772
0.000808408
0.000801526
0.00079524
0.000788418
0.000782171
0.000775265
0.000851769
0.00085139
0.000851046
0.000850633
0.000850248
0.000849368
0.000848405
0.000846781
0.000844956
0.00084253
0.000839923
0.000836799
0.000833794
0.000830152
0.00082697
0.000822927
0.0008199
0.000815301
0.000851787
0.000851359
0.000851012
0.000850613
0.000850329
0.000849905
0.000849525
0.000848929
0.000848303
0.000847393
0.000846465
0.000845177
0.00084399
0.000842351
0.000840996
0.000839032
0.000837639
0.000835362
0.000851789
0.000851359
0.000850995
0.000850605
0.000850292
0.000849938
0.000849646
0.00084928
0.000848955
0.000848504
0.000848098
0.000847507
0.000846997
0.000846244
0.000845641
0.000844721
0.000844058
0.000842976
0.000851786
0.000851363
0.000850985
0.000850604
0.000850269
0.000849926
0.00084963
0.000849313
0.000849042
0.000848728
0.000848462
0.000848126
0.000847843
0.000847465
0.000847156
0.000846726
0.000846386
0.000845902
0.000851783
0.000851364
0.000850978
0.000850602
0.000850256
0.000849916
0.000849607
0.0008493
0.000849022
0.00084874
0.000848488
0.000848224
0.000847988
0.000847735
0.000847508
0.000847258
0.000847033
0.000846783
0.000851781
0.000851364
0.000850973
0.000850598
0.000850246
0.000849908
0.000849591
0.000849286
0.000849
0.000848723
0.000848463
0.000848211
0.000847975
0.000847744
0.000847527
0.000847316
0.000847114
0.000846919
0.00085178
0.000851363
0.000850969
0.000850594
0.000850239
0.000849901
0.00084958
0.000849275
0.000848984
0.000848707
0.000848443
0.000848191
0.000847951
0.000847721
0.000847502
0.000847293
0.000847092
0.000846901
0.000851779
0.000851362
0.000850967
0.000850591
0.000850234
0.000849895
0.000849572
0.000849265
0.000848973
0.000848694
0.000848428
0.000848175
0.000847933
0.000847701
0.00084748
0.000847269
0.000847067
0.000846874
0.000851779
0.000851362
0.000850965
0.000850588
0.000850231
0.00084989
0.000849567
0.000849259
0.000848965
0.000848685
0.000848418
0.000848163
0.00084792
0.000847687
0.000847465
0.000847252
0.000847048
0.000846854
0.000851779
0.000851362
0.000850965
0.000850588
0.00085023
0.000849889
0.000849565
0.000849256
0.000848962
0.000848681
0.000848414
0.000848158
0.000847913
0.00084768
0.000847457
0.000847243
0.000847039
0.000846843
0.000851779
0.000851362
0.000850966
0.000850589
0.000850231
0.000849891
0.000849567
0.000849259
0.000848965
0.000848685
0.000848417
0.000848161
0.000847917
0.000847683
0.00084746
0.000847246
0.00084704
0.000846844
0.000851779
0.000851363
0.000850967
0.000850592
0.000850235
0.000849897
0.000849573
0.000849267
0.000848972
0.000848693
0.000848424
0.000848168
0.000847919
0.000847683
0.000847451
0.000847231
0.000847012
0.000846806
0.000851778
0.000851366
0.000850968
0.000850599
0.00085024
0.000849907
0.00084958
0.000849274
0.000848964
0.000848671
0.000848364
0.000848072
0.000847756
0.000847455
0.000847123
0.000846811
0.000846457
0.000846136
0.000851777
0.000851374
0.000850971
0.000850615
0.000850241
0.000849889
0.000849478
0.000849054
0.000848529
0.000847978
0.000847301
0.000846604
0.000845766
0.000844939
0.000843954
0.000843029
0.000841917
0.000840939
0.000851802
0.00085141
0.00085097
0.000850549
0.000849861
0.000848967
0.000847607
0.000845979
0.000843903
0.000841635
0.000838954
0.000836214
0.000833116
0.000830113
0.000826762
0.000823679
0.000820183
0.000817177
0.000852138
0.000851403
0.000850234
0.000848252
0.000844472
0.000839355
0.000832711
0.000825763
0.000817913
0.00081
0.000801615
0.000793626
0.00078533
0.000777705
0.000769742
0.000762699
0.000755121
0.000748793
0.000854142
0.000847718
0.000840125
0.000827123
0.000808707
0.000789647
0.000769972
0.000751416
0.000733303
0.000716894
0.000700932
0.000686779
0.000672828
0.000660669
0.000648376
0.000637939
0.000626951
0.000618018
0.00085497
0.000818336
0.000776229
0.000726635
0.000684938
0.000649857
0.000618459
0.000592021
0.00056838
0.00054831
0.000529686
0.000513991
0.000498748
0.000486015
0.0004732
0.000462706
0.000451621
0.000442803
0.000807486
0.00066688
0.000570551
0.000509855
0.000465648
0.000431194
0.000404132
0.0003825
0.000364193
0.000349066
0.000335939
0.000325076
0.000314478
0.000306246
0.000297961
0.000291367
0.00028428
0.000278931
0.000501854
0.000348405
0.00029269
0.000259174
0.000236322
0.000221177
0.000211543
0.000204015
0.00019848
0.000195059
0.000192218
0.000190367
0.000188582
0.000187439
0.000186164
0.000185473
0.000184554
0.000184142
7.27285e-05
7.02231e-05
6.79539e-05
6.56136e-05
6.33827e-05
6.12765e-05
5.94929e-05
5.79572e-05
5.67103e-05
5.57029e-05
5.49774e-05
5.44182e-05
5.41083e-05
5.38869e-05
5.38764e-05
5.39614e-05
5.40712e-05
5.43217e-05
3.76235e-07
8.7978e-06
1.5865e-05
2.2498e-05
2.95528e-05
3.71985e-05
4.55752e-05
5.46971e-05
6.44538e-05
7.46617e-05
8.51291e-05
9.56754e-05
0.000106146
0.00011639
0.00012626
0.00013558
0.000144146
0.0001517
0.000157925
0.000162417
0.000164677
0.000164067
0.00015979
0.000150808
0.000135785
2.66079e-05
2.68047e-05
2.81115e-05
2.94397e-05
3.05944e-05
3.25538e-05
3.38387e-05
3.61704e-05
4.08953e-05
0.000200794
0.000196952
4.13841e-05
4.39249e-05
4.90876e-05
4.89916e-05
5.0171e-05
5.13724e-05
5.24381e-05
5.35838e-05
5.46903e-05
5.58099e-05
5.69213e-05
5.80319e-05
5.9139e-05
6.02434e-05
6.13449e-05
6.24435e-05
6.35392e-05
6.46321e-05
6.5722e-05
6.68091e-05
6.78931e-05
6.8974e-05
7.00514e-05
7.11255e-05
7.21957e-05
7.32619e-05
7.43238e-05
7.53811e-05
7.64333e-05
7.74802e-05
7.85213e-05
7.95563e-05
8.05845e-05
8.16058e-05
8.26193e-05
8.3625e-05
8.46219e-05
8.561e-05
8.65883e-05
8.75568e-05
8.85143e-05
8.9461e-05
9.03957e-05
9.13184e-05
9.22281e-05
9.31248e-05
9.40073e-05
9.48756e-05
9.57286e-05
9.65661e-05
9.7387e-05
9.81911e-05
9.89771e-05
9.97448e-05
0.000100493
0.00010122
0.000101926
0.000102608
0.000103266
0.0001039
0.000104509
0.000105109
0.000105681
0.000106234
0.000106764
0.000107273
0.000107759
0.000108223
0.000108664
0.000109082
0.000109475
0.000109845
0.000110191
0.000110512
0.000110808
0.00011108
0.000111325
0.000111545
0.000111738
0.000111905
0.000112046
0.000112159
0.000112245
0.000112304
0.000112334
0.000112337
0.000112311
0.000112256
0.000112173
0.000112063
0.000111924
0.000111744
0.000111528
0.000111282
0.000111032
0.00011073
0.000110401
0.000110038
0.000109644
0.000109218
0.00010876
0.000108272
0.000107748
0.000107192
0.000106604
0.000105983
0.000105332
0.00010465
0.000103939
0.0001032
0.000102434
0.000101642
0.000100826
9.99871e-05
9.91272e-05
9.82481e-05
9.73516e-05
9.64398e-05
9.55157e-05
9.45845e-05
9.3664e-05
9.28668e-05
9.22258e-05
9.16043e-05
9.09735e-05
9.03382e-05
8.97004e-05
8.90587e-05
8.84155e-05
8.77738e-05
8.71356e-05
8.65023e-05
8.58752e-05
8.52556e-05
8.46455e-05
8.40474e-05
8.34631e-05
8.28845e-05
8.23143e-05
8.17612e-05
8.12156e-05
8.06336e-05
7.99859e-05
7.7994e-05
1.71457e-06
3.52007e-05
7.50817e-05
0.000102336
0.000120305
0.000133881
0.000145761
0.000157307
0.000169061
0.000181125
0.000193393
0.000205685
0.000217799
0.000229523
0.000240618
0.000250777
0.000259574
0.000266407
0.000270421
0.000270453
0.000265035
0.000252578
0.00023185
0.000202835
0.000167727
0.000131208
0.000130882
0.000136192
0.000143189
0.000152224
0.000164061
0.000178994
0.00020026
0.0002329
0.000276649
0.00025867
0.000246489
0.000262317
0.000274475
0.000279766
0.000286759
0.000294019
0.000301657
0.00030942
0.000317313
0.000325322
0.000333424
0.000341613
0.000349879
0.000358221
0.000366635
0.000375122
0.000383682
0.000392316
0.000401025
0.000409809
0.000418672
0.000427614
0.000436636
0.000445738
0.000454921
0.000464185
0.00047353
0.000482956
0.00049246
0.000502042
0.000511701
0.000521432
0.000531235
0.000541106
0.000551042
0.000561039
0.000571094
0.000581201
0.000591359
0.00060156
0.000611801
0.000622075
0.000632379
0.000642708
0.000653057
0.000663421
0.000673796
0.000684178
0.000694562
0.000704944
0.00071532
0.000725686
0.000736038
0.000746372
0.000756685
0.000766963
0.000777184
0.000787311
0.000797275
0.000806963
0.0008162
0.000824691
0.00083317
0.000841516
0.000849755
0.000857876
0.000865877
0.000873751
0.000881494
0.0008891
0.000896563
0.000903877
0.000911038
0.00091804
0.000924878
0.000931545
0.000938035
0.000944341
0.000950457
0.000956377
0.000962092
0.000967596
0.00097288
0.000977938
0.00098276
0.000987338
0.000991667
0.000995741
0.000999564
0.00100316
0.00100653
0.00100943
0.00101183
0.00101392
0.00101612
0.00101781
0.00101913
0.0010201
0.00102072
0.00102098
0.00102089
0.00102045
0.00101967
0.00101853
0.00101702
0.00101515
0.00101292
0.00101034
0.00100741
0.00100414
0.00100055
0.000996642
0.000992433
0.000987937
0.00098317
0.000978146
0.000972884
0.000967396
0.00096169
0.000955738
0.000949354
0.00094172
0.000932553
0.000922866
0.000913017
0.000903147
0.000893302
0.000883511
0.00087381
0.000864227
0.000854786
0.000845505
0.000836405
0.000827501
0.00081881
0.00081035
0.000802144
0.000794181
0.000786398
0.000778828
0.000771418
0.000763709
0.000754214
0.000722191
3.47748e-06
5.58905e-05
0.00011685
0.000163135
0.000196779
0.000221518
0.000240756
0.000256926
0.000271562
0.000285504
0.000299127
0.000312531
0.000325663
0.000338403
0.000350568
0.000361882
0.000371952
0.000380261
0.000386094
0.000388543
0.000386613
0.000379504
0.000367127
0.000350773
0.000333782
0.000322249
0.000327321
0.000339171
0.00035455
0.000373089
0.0003947
0.000418954
0.000445912
0.000472569
0.000493089
0.000500653
0.00051232
0.000529741
0.000545827
0.000560973
0.000576496
0.000592162
0.000608069
0.000624142
0.000640378
0.000656764
0.000673292
0.000689956
0.000706753
0.000723683
0.000740747
0.000757945
0.00077528
0.000792754
0.000810369
0.000828127
0.000846029
0.000864075
0.000882268
0.000900605
0.000919087
0.000937712
0.000956478
0.000975382
0.00099442
0.00101359
0.00103288
0.00105229
0.00107182
0.00109145
0.00111118
0.001131
0.0011509
0.00117088
0.00119092
0.00121101
0.00123115
0.00125132
0.00127151
0.00129172
0.00131193
0.00133212
0.0013523
0.00137245
0.00139256
0.00141261
0.0014326
0.00145251
0.00147233
0.00149205
0.00151163
0.00153105
0.00155028
0.00156925
0.00158789
0.00160614
0.00162389
0.00164122
0.00165835
0.00167524
0.00169188
0.00170827
0.0017244
0.00174025
0.00175581
0.00177107
0.00178602
0.00180065
0.00181495
0.00182891
0.00184251
0.00185574
0.0018686
0.00188106
0.00189312
0.00190477
0.00191599
0.00192676
0.00193707
0.00194691
0.00195626
0.00196511
0.00197344
0.00198125
0.00198853
0.00199532
0.00200165
0.00200713
0.00201153
0.00201543
0.0020192
0.00202213
0.00202432
0.00202579
0.00202655
0.00202658
0.0020259
0.00202449
0.00202237
0.00201951
0.00201591
0.00201159
0.00200654
0.00200078
0.00199433
0.0019872
0.00197941
0.001971
0.00196198
0.00195239
0.00194227
0.00193164
0.00192054
0.00190899
0.00189703
0.00188461
0.00187153
0.00185717
0.00184129
0.00182463
0.00180759
0.00179041
0.00177319
0.00175601
0.00173893
0.00172201
0.0017053
0.00168885
0.0016727
0.00165689
0.00164146
0.00162645
0.00161189
0.00159779
0.00158408
0.00157073
0.00155752
0.00154359
0.00152658
0.00148155
5.35237e-06
7.15086e-05
0.000148368
0.000208679
0.000253727
0.000287526
0.000313702
0.000335004
0.000353358
0.000370006
0.000385673
0.000400738
0.00041536
0.000429557
0.00044327
0.000456403
0.000468811
0.000480255
0.000490426
0.00049895
0.000505452
0.000509705
0.00051189
0.000512932
0.000514773
0.000520229
0.000531582
0.000546776
0.00056453
0.000584415
0.000606173
0.000629425
0.000653497
0.000676999
0.000698162
0.000718082
0.000739209
0.000761577
0.000783772
0.000805895
0.000828252
0.00085077
0.000873469
0.000896343
0.000919394
0.000942618
0.000966014
0.000989584
0.00101333
0.00103724
0.00106133
0.00108561
0.00111007
0.00113471
0.00115955
0.00118458
0.0012098
0.00123522
0.00126083
0.00128663
0.00131262
0.00133879
0.00136515
0.00139168
0.00141838
0.00144524
0.00147226
0.00149943
0.00152673
0.00155415
0.0015817
0.00160934
0.00163708
0.00166489
0.00169277
0.00172069
0.00174865
0.00177663
0.00180462
0.0018326
0.00186054
0.00188845
0.0019163
0.00194407
0.00197174
0.00199931
0.00202675
0.00205403
0.00208114
0.00210805
0.00213474
0.00216117
0.0021873
0.00221309
0.00223847
0.0022634
0.00228788
0.00231198
0.00233576
0.0023592
0.00238228
0.002405
0.00242733
0.00244927
0.0024708
0.0024919
0.00251256
0.00253277
0.0025525
0.00257176
0.00259051
0.00260875
0.00262647
0.00264364
0.00266025
0.00267628
0.00269172
0.00270655
0.00272075
0.00273431
0.00274719
0.0027594
0.0027709
0.00278168
0.00279172
0.00280114
0.00280999
0.00281744
0.00282374
0.00282937
0.00283455
0.00283868
0.00284183
0.00284399
0.00284516
0.00284535
0.00284454
0.00284273
0.00283991
0.00283608
0.00283123
0.00282537
0.0028185
0.00281065
0.00280183
0.00279206
0.00278138
0.00276982
0.00275741
0.0027442
0.00273022
0.00271552
0.00270015
0.00268415
0.00266756
0.00265035
0.0026324
0.00261333
0.00259303
0.00257188
0.00255023
0.00252831
0.00250626
0.00248419
0.00246219
0.00244034
0.00241872
0.00239739
0.00237642
0.00235588
0.00233582
0.00231631
0.00229739
0.0022791
0.00226141
0.00224425
0.00222736
0.00220976
0.00218839
0.00214232
7.17199e-06
8.45084e-05
0.000174497
0.000246361
0.000301363
0.000343201
0.000375716
0.000401904
0.000423971
0.000443447
0.000461335
0.000478252
0.000494553
0.000510428
0.00052597
0.00054122
0.000556182
0.000570832
0.000585119
0.000598975
0.000612338
0.000625199
0.000637694
0.000650225
0.000663544
0.000678561
0.000695791
0.000714907
0.000735576
0.000757647
0.000781064
0.000805745
0.00083143
0.000857649
0.000883784
0.000909765
0.000936252
0.00096321
0.000990437
0.00101787
0.00104543
0.00107316
0.00110108
0.0011292
0.00115751
0.00118602
0.00121474
0.00124365
0.00127278
0.0013021
0.00133164
0.00136137
0.00139132
0.0014215
0.00145191
0.00148253
0.00151339
0.00154446
0.00157576
0.00160727
0.001639
0.00167094
0.00170307
0.0017354
0.00176791
0.0018006
0.00183345
0.00186646
0.0018996
0.00193287
0.00196626
0.00199973
0.0020333
0.00206692
0.00210059
0.00213429
0.00216801
0.00220172
0.0022354
0.00226903
0.00230261
0.00233609
0.00236948
0.00240273
0.00243584
0.00246878
0.00250153
0.00253406
0.00256635
0.00259838
0.0026301
0.00266151
0.00269255
0.00272321
0.00275345
0.00278329
0.00281269
0.00284168
0.00287026
0.00289843
0.00292617
0.00295346
0.00298028
0.00300663
0.00303248
0.00305781
0.00308262
0.00310688
0.00313058
0.0031537
0.00317623
0.00319816
0.00321946
0.00324012
0.00326012
0.00327945
0.00329808
0.003316
0.00333319
0.00334962
0.00336528
0.00338015
0.0033942
0.00340742
0.00341978
0.00343146
0.00344235
0.00345176
0.00345988
0.00346722
0.00347386
0.00347933
0.00348366
0.00348683
0.00348884
0.00348967
0.00348933
0.00348778
0.00348503
0.00348107
0.00347589
0.0034695
0.0034619
0.00345311
0.00344314
0.00343203
0.0034198
0.00340649
0.00339214
0.00337679
0.00336049
0.0033433
0.00332526
0.00330643
0.00328685
0.00326653
0.00324541
0.00322332
0.0032002
0.00317626
0.00315174
0.00312685
0.00310173
0.00307652
0.00305131
0.00302621
0.00300131
0.0029767
0.00295247
0.0029287
0.00290548
0.00288288
0.00286098
0.00283983
0.00281945
0.00279979
0.00278059
0.00276088
0.0027375
0.00269481
8.87577e-06
9.53546e-05
0.000196304
0.000278107
0.000341973
0.000391187
0.000429704
0.000460688
0.000486547
0.000509033
0.000529373
0.000548391
0.00056662
0.000584399
0.000601944
0.000619397
0.000636858
0.0006544
0.00067208
0.000689944
0.00070804
0.000726428
0.000745202
0.000764527
0.000784657
0.000805866
0.000828297
0.000851909
0.000876614
0.000902353
0.000929103
0.000956835
0.000985447
0.00101473
0.00104444
0.00107451
0.00110499
0.00113585
0.001167
0.00119838
0.00122998
0.00126178
0.00129378
0.00132599
0.00135841
0.00139104
0.00142389
0.00145695
0.00149024
0.00152375
0.0015575
0.00159149
0.00162571
0.00166016
0.00169484
0.00172974
0.00176487
0.00180022
0.0018358
0.00187159
0.00190758
0.00194378
0.00198017
0.00201675
0.0020535
0.00209042
0.00212749
0.0021647
0.00220203
0.00223948
0.00227702
0.00231464
0.00235232
0.00239004
0.00242779
0.00246555
0.00250329
0.002541
0.00257866
0.00261625
0.00265374
0.00269111
0.00272834
0.00276542
0.00280231
0.00283899
0.00287544
0.00291164
0.00294755
0.00298316
0.00301844
0.00305336
0.00308791
0.00312205
0.00315577
0.00318906
0.00322191
0.00325431
0.00328626
0.00331774
0.00334873
0.00337923
0.00340921
0.00343865
0.00346754
0.00349586
0.0035236
0.00355073
0.00357726
0.00360315
0.00362839
0.00365298
0.00367689
0.0037001
0.0037226
0.00374437
0.0037654
0.00378566
0.00380513
0.0038238
0.00384165
0.00385865
0.00387478
0.00389002
0.00390435
0.00391799
0.00393064
0.00394191
0.00395182
0.00396085
0.00396902
0.00397596
0.00398166
0.00398611
0.00398929
0.00399119
0.00399178
0.00399106
0.003989
0.0039856
0.00398085
0.00397474
0.00396728
0.00395848
0.00394836
0.00393694
0.00392425
0.00391033
0.00389521
0.00387894
0.00386156
0.00384314
0.00382372
0.00380337
0.00378213
0.00376005
0.00373709
0.00371323
0.00368843
0.00366284
0.00363661
0.00360992
0.00358291
0.00355572
0.00352846
0.00350125
0.00347418
0.00344738
0.00342093
0.00339495
0.00336954
0.00334479
0.00332082
0.0032977
0.0032755
0.00325421
0.00323362
0.00321287
0.00318914
0.00315172
1.04198e-05
0.000104293
0.000214363
0.000304797
0.000376616
0.000432686
0.000476974
0.000512736
0.000542514
0.000568226
0.000591273
0.000612649
0.000633042
0.000652921
0.000672605
0.000692319
0.000712222
0.000732438
0.000753064
0.000774182
0.000795861
0.000818165
0.000841159
0.000864915
0.00088952
0.000915051
0.000941545
0.000968982
0.000997319
0.00102651
0.00105651
0.00108728
0.00111878
0.00115089
0.00118351
0.00121657
0.00125004
0.00128385
0.00131797
0.00135235
0.00138696
0.00142179
0.00145684
0.0014921
0.00152757
0.00156326
0.00159916
0.00163527
0.00167161
0.00170817
0.00174496
0.00178198
0.00181922
0.00185669
0.00189438
0.00193228
0.00197041
0.00200875
0.00204731
0.00208606
0.00212502
0.00216417
0.0022035
0.00224301
0.00228268
0.0023225
0.00236246
0.00240255
0.00244275
0.00248305
0.00252343
0.00256388
0.00260437
0.0026449
0.00268543
0.00272595
0.00276645
0.0028069
0.00284728
0.00288756
0.00292774
0.00296777
0.00300765
0.00304735
0.00308684
0.00312611
0.00316512
0.00320386
0.0032423
0.00328041
0.00331818
0.00335558
0.00339258
0.00342917
0.00346533
0.00350105
0.00353631
0.0035711
0.00360541
0.00363921
0.00367251
0.00370526
0.00373747
0.00376911
0.00380017
0.00383063
0.00386048
0.00388969
0.00391826
0.00394618
0.00397342
0.00399997
0.00402582
0.00405095
0.00407536
0.00409901
0.00412189
0.004144
0.0041653
0.00418579
0.00420544
0.00422423
0.00424214
0.00425914
0.00427522
0.00429064
0.00430491
0.00431798
0.00432971
0.00434047
0.00435026
0.00435881
0.00436607
0.00437204
0.00437668
0.00437998
0.00438192
0.00438246
0.0043816
0.00437931
0.00437557
0.00437039
0.00436375
0.00435568
0.00434616
0.00433524
0.00432292
0.00430924
0.00429424
0.00427796
0.00426044
0.00424174
0.00422191
0.00420102
0.00417911
0.00415624
0.00413243
0.00410769
0.00408204
0.00405557
0.00402841
0.00400071
0.00397259
0.0039442
0.00391565
0.00388706
0.00385856
0.00383026
0.00380228
0.00377473
0.00374775
0.00372146
0.00369597
0.00367143
0.00364791
0.00362548
0.003604
0.00358276
0.00355946
0.00352705
1.17719e-05
0.000111488
0.000229017
0.00032705
0.000405829
0.000468303
0.000518143
0.00055865
0.000592447
0.000621562
0.000647526
0.000671467
0.000694198
0.000716297
0.000738172
0.000760112
0.000782327
0.00080497
0.000828159
0.000851987
0.000876518
0.000901802
0.000927879
0.000954781
0.000982531
0.00101114
0.00104061
0.00107092
0.00110201
0.00113384
0.00116637
0.00119955
0.00123333
0.00126765
0.00130245
0.00133768
0.00137328
0.00140923
0.00144547
0.00148199
0.00151873
0.0015557
0.00159287
0.00163025
0.00166783
0.00170561
0.0017436
0.00178179
0.00182018
0.00185879
0.0018976
0.00193662
0.00197586
0.0020153
0.00205495
0.0020948
0.00213486
0.00217512
0.00221557
0.00225621
0.00229704
0.00233805
0.00237923
0.00242058
0.00246207
0.00250371
0.00254548
0.00258737
0.00262936
0.00267144
0.0027136
0.00275582
0.00279808
0.00284037
0.00288267
0.00292495
0.00296721
0.00300941
0.00305154
0.00309358
0.00313551
0.0031773
0.00321893
0.00326037
0.00330161
0.00334262
0.00338338
0.00342385
0.00346403
0.00350388
0.00354339
0.00358252
0.00362127
0.0036596
0.0036975
0.00373496
0.00377194
0.00380845
0.00384446
0.00387995
0.00391492
0.00394933
0.00398318
0.00401644
0.00404911
0.00408116
0.00411258
0.00414337
0.0041735
0.00420295
0.00423173
0.00425981
0.00428719
0.00431384
0.00433977
0.00436494
0.00438935
0.00441299
0.00443584
0.00445788
0.00447909
0.00449947
0.00451897
0.00453759
0.00455533
0.00457241
0.00458828
0.00460312
0.00461671
0.00462928
0.00464082
0.00465112
0.00466013
0.00466783
0.0046742
0.0046792
0.00468281
0.00468501
0.00468574
0.00468501
0.00468277
0.00467903
0.00467376
0.00466697
0.00465867
0.00464886
0.00463756
0.0046248
0.0046106
0.00459501
0.00457806
0.00455981
0.0045403
0.0045196
0.00449776
0.00447484
0.00445088
0.00442592
0.00440001
0.00437324
0.0043457
0.00431752
0.00428882
0.00425975
0.00423041
0.00420094
0.00417147
0.00414211
0.00411302
0.00408431
0.00405613
0.00402862
0.00400195
0.00397625
0.00395167
0.00392832
0.00390614
0.00388461
0.00386191
0.00383373
1.29131e-05
0.000117101
0.000240609
0.000345194
0.000430103
0.000498441
0.00055355
0.000598695
0.000636527
0.000669138
0.000698144
0.000724769
0.000749923
0.000774274
0.000798304
0.000822354
0.000846667
0.000871421
0.000896748
0.000922788
0.000949579
0.000977146
0.00100551
0.00103468
0.00106465
0.00109541
0.00112695
0.00115924
0.00119222
0.00122585
0.0012601
0.00129491
0.00133023
0.00136603
0.00140226
0.00143887
0.00147583
0.00151312
0.00155072
0.00158857
0.00162664
0.00166491
0.00170336
0.00174199
0.0017808
0.00181979
0.00185895
0.0018983
0.00193783
0.00197754
0.00201744
0.00205753
0.00209781
0.00213828
0.00217893
0.00221978
0.00226081
0.00230202
0.00234342
0.002385
0.00242676
0.00246868
0.00251077
0.00255303
0.00259543
0.00263797
0.00268065
0.00272346
0.00276637
0.00280938
0.00285248
0.00289565
0.00293888
0.00298215
0.00302544
0.00306874
0.00311202
0.00315527
0.00319847
0.00324159
0.00328462
0.00332753
0.00337029
0.0034129
0.00345531
0.00349751
0.00353947
0.00358118
0.00362259
0.0036637
0.00370447
0.00374488
0.00378492
0.00382455
0.00386376
0.00390253
0.00394083
0.00397865
0.00401597
0.00405277
0.00408903
0.00412474
0.00415988
0.00419442
0.00422837
0.00426169
0.00429439
0.00432644
0.00435783
0.00438855
0.00441859
0.00444795
0.0044766
0.00450453
0.00453175
0.00455823
0.00458397
0.00460896
0.00463318
0.00465662
0.00467927
0.00470111
0.00472212
0.00474229
0.00476166
0.00478028
0.00479783
0.00481444
0.00482993
0.00484441
0.00485784
0.00487004
0.00488096
0.00489059
0.00489891
0.00490588
0.00491146
0.00491562
0.00491831
0.0049195
0.00491917
0.00491729
0.00491384
0.00490881
0.0049022
0.00489401
0.00488425
0.00487294
0.0048601
0.00484575
0.00482994
0.0048127
0.00479409
0.00477415
0.00475294
0.00473053
0.00470696
0.0046823
0.0046566
0.00462994
0.00460243
0.00457416
0.00454526
0.00451586
0.00448608
0.00445606
0.00442591
0.0043958
0.00436584
0.00433621
0.00430704
0.0042785
0.00425077
0.00422404
0.00419848
0.00417424
0.00415137
0.00412947
0.00410721
0.00408195
1.38345e-05
0.000121277
0.000249409
0.000359466
0.000449739
0.000523385
0.00058341
0.000632998
0.00067478
0.000710871
0.000742934
0.00077226
0.000799821
0.000826352
0.000852454
0.000878464
0.000904634
0.000931138
0.000958077
0.000985656
0.00101395
0.001043
0.00107281
0.0011034
0.00113474
0.00116681
0.0011996
0.00123306
0.00126716
0.00130185
0.0013371
0.00137285
0.00140907
0.00144571
0.00148275
0.00152013
0.00155784
0.00159584
0.00163409
0.00167249
0.00171111
0.00174988
0.00178878
0.00182783
0.00186701
0.00190633
0.00194579
0.00198541
0.00202518
0.00206511
0.0021052
0.00214546
0.00218588
0.00222648
0.00226725
0.00230819
0.00234932
0.00239062
0.00243211
0.00247377
0.00251562
0.00255765
0.00259985
0.00264223
0.00268477
0.00272748
0.00277034
0.00281335
0.0028565
0.00289979
0.00294319
0.0029867
0.0030303
0.00307398
0.00311772
0.0031615
0.00320532
0.00324914
0.00329294
0.00333672
0.00338043
0.00342407
0.0034676
0.00351101
0.00355426
0.00359733
0.0036402
0.00368283
0.00372521
0.0037673
0.00380908
0.00385053
0.00389162
0.00393232
0.00397262
0.00401248
0.00405189
0.00409082
0.00412925
0.00416717
0.00420454
0.00424137
0.00427762
0.00431328
0.00434833
0.00438277
0.00441657
0.00444973
0.00448224
0.00451408
0.00454524
0.00457573
0.00460552
0.00463461
0.004663
0.00469067
0.00471763
0.00474386
0.00476936
0.00479412
0.00481813
0.00484137
0.00486385
0.00488553
0.00490649
0.00492665
0.00494593
0.00496434
0.00498178
0.00499825
0.0050137
0.00502794
0.00504091
0.00505265
0.00506312
0.00507228
0.00508008
0.00508648
0.00509143
0.00509487
0.00509679
0.00509713
0.00509588
0.00509301
0.00508851
0.00508237
0.00507459
0.00506517
0.00505414
0.0050415
0.00502729
0.00501154
0.00499429
0.00497558
0.00495547
0.00493402
0.00491129
0.00488733
0.00486222
0.00483604
0.00480887
0.00478083
0.00475202
0.00472256
0.0046926
0.00466225
0.00463166
0.00460097
0.00457033
0.0045399
0.00450985
0.00448037
0.00445164
0.00442389
0.00439732
0.00437213
0.00434842
0.00432597
0.0043038
0.00428069
1.45363e-05
0.000124161
0.000255681
0.000370162
0.000465034
0.000543386
0.000607901
0.00066164
0.00070718
0.000746618
0.000781641
0.000813602
0.000843451
0.000871884
0.000899527
0.000926897
0.000954335
0.000982084
0.00101034
0.00103925
0.00106881
0.00109902
0.00112989
0.00116143
0.00119362
0.00122644
0.00125986
0.00129386
0.00132838
0.0013634
0.00139887
0.00143476
0.00147103
0.00150764
0.00154455
0.00158174
0.00161918
0.00165686
0.00169481
0.00173306
0.00177148
0.00180998
0.00184852
0.00188712
0.0019258
0.00196457
0.00200345
0.00204244
0.00208156
0.00212081
0.00216021
0.00219975
0.00223946
0.00227933
0.00231937
0.0023596
0.00240001
0.00244062
0.00248142
0.00252244
0.00256366
0.00260509
0.00264673
0.00268859
0.00273067
0.00277295
0.00281544
0.00285814
0.00290103
0.00294412
0.00298738
0.00303081
0.0030744
0.00311813
0.00316199
0.00320595
0.00325001
0.00329413
0.00333831
0.00338251
0.00342671
0.00347089
0.00351502
0.00355907
0.00360302
0.00364683
0.00369048
0.00373394
0.00377719
0.00382018
0.00386289
0.0039053
0.00394737
0.00398907
0.00403038
0.00407128
0.00411173
0.00415171
0.0041912
0.00423018
0.00426862
0.00430651
0.00434382
0.00438054
0.00441666
0.00445215
0.00448701
0.00452123
0.00455479
0.00458769
0.00461992
0.00465148
0.00468235
0.00471254
0.00474204
0.00477085
0.00479897
0.0048264
0.00485312
0.00487915
0.00490448
0.0049291
0.00495301
0.0049762
0.0049987
0.00502046
0.00504148
0.00506175
0.00508117
0.00509969
0.00511731
0.00513368
0.00514881
0.0051628
0.00517559
0.00518714
0.00519739
0.00520627
0.00521372
0.00521971
0.00522416
0.00522705
0.00522832
0.00522796
0.00522592
0.0052222
0.00521678
0.00520965
0.00520083
0.0051903
0.0051781
0.00516424
0.00514876
0.00513169
0.00511309
0.00509299
0.00507147
0.00504858
0.0050244
0.004999
0.00497248
0.00494493
0.00491646
0.00488719
0.00485725
0.00482678
0.00479591
0.0047648
0.0047336
0.00470248
0.00467163
0.00464124
0.00461152
0.00458271
0.00455506
0.00452879
0.00450408
0.0044808
0.00445829
0.00443619
1.50306e-05
0.000125932
0.000259697
0.000377589
0.000476276
0.000558683
0.000627178
0.000684661
0.00073368
0.00077619
0.000813745
0.000847767
0.00087941
0.000909573
0.000938986
0.000967961
0.000996812
0.00102578
0.00105505
0.00108469
0.00111479
0.00114541
0.00117657
0.00120827
0.00124049
0.00127321
0.00130642
0.00134009
0.00137419
0.00140868
0.00144352
0.00147869
0.00151414
0.00154985
0.0015858
0.00162195
0.00165825
0.00169477
0.00173153
0.00176871
0.00180598
0.00184327
0.00188057
0.00191784
0.0019551
0.00199239
0.00202975
0.00206721
0.00210477
0.00214246
0.00218029
0.00221827
0.00225643
0.00229477
0.00233331
0.00237207
0.00241106
0.00245029
0.00248978
0.00252952
0.00256955
0.00260985
0.00265044
0.00269132