/*--------------------------------*- C++ -*----------------------------------*\
  =========                 |
  \\      /  F ield         | OpenFOAM: The Open Source CFD Toolbox
   \\    /   O peration     | Website:  https://openfoam.org
    \\  /    A nd           | Version:  8
     \\/     M anipulation  |
\*---------------------------------------------------------------------------*/
FoamFile
{
    version     2.0;
    format      ascii;
    class       volScalarField;
    location    "215";
    object      p;
}
// * * * * * * * * * * * * * * * * * * * * * * * * * * * * * * * * * * * * * //

dimensions      [0 2 -2 0 0 0 0];

internalField   nonuniform List<scalar> 
12225
(
-2.24941
-4.43736
-5.53737
-5.85805
-6.03938
-6.20847
-6.34011
-6.4354
-6.5122
-6.57983
-6.64013
-6.6954
-6.74569
-6.79274
-6.83691
-6.87369
-6.91967
-6.89179
-5.41178
-6.18058
-6.34108
-6.24888
-6.2364
-6.30432
-6.38197
-6.44785
-6.50765
-6.56533
-6.62024
-6.67153
-6.71992
-6.76564
-6.80969
-6.84865
-6.8935
-6.924
-5.81241
-5.7982
-5.92562
-6.00403
-6.09898
-6.21922
-6.32655
-6.41152
-6.48352
-6.5491
-6.60951
-6.66479
-6.71643
-6.76475
-6.81127
-6.85385
-6.90211
-6.94415
-5.69103
-5.63438
-5.87602
-6.03438
-6.13616
-6.24243
-6.34021
-6.42038
-6.48929
-6.5526
-6.61144
-6.66581
-6.71688
-6.76501
-6.81161
-6.85593
-6.90388
-6.95137
-5.68111
-5.70546
-5.93352
-6.0751
-6.15875
-6.25086
-6.34216
-6.41999
-6.48769
-6.55011
-6.60848
-6.66279
-6.71399
-6.76258
-6.80979
-6.85568
-6.9038
-6.95371
-5.73921
-5.78798
-5.96223
-6.08614
-6.16768
-6.25555
-6.34366
-6.42027
-6.48737
-6.54926
-6.60727
-6.66149
-6.71273
-6.76159
-6.80914
-6.85581
-6.90381
-6.95369
-5.79952
-5.84363
-5.97879
-6.09511
-6.17886
-6.26303
-6.34701
-6.42173
-6.48793
-6.54909
-6.60656
-6.66053
-6.71167
-6.76061
-6.80825
-6.85515
-6.90271
-6.95143
-5.85299
-5.89056
-6.00049
-6.10877
-6.19177
-6.2714
-6.35086
-6.42341
-6.48855
-6.54889
-6.60573
-6.65936
-6.71029
-6.75916
-6.80669
-6.85343
-6.90023
-6.94736
-5.90265
-5.93575
-6.02665
-6.12459
-6.20466
-6.28005
-6.35524
-6.42541
-6.48929
-6.54868
-6.60478
-6.65792
-6.70853
-6.75714
-6.80433
-6.85057
-6.89638
-6.94176
-5.94964
-5.97888
-6.05437
-6.14157
-6.21776
-6.28931
-6.36044
-6.42797
-6.49033
-6.5486
-6.6038
-6.65629
-6.70639
-6.75454
-6.80118
-6.84666
-6.89129
-6.93491
-5.99389
-6.01938
-6.08255
-6.1597
-6.23137
-6.29918
-6.36641
-6.43111
-6.49172
-6.54871
-6.60287
-6.65454
-6.70395
-6.75143
-6.79733
-6.84186
-6.88521
-6.92713
-6.03186
-6.05419
-6.10837
-6.17717
-6.24426
-6.30864
-6.37245
-6.43449
-6.49332
-6.549
-6.60208
-6.65284
-6.70147
-6.7482
-6.79326
-6.8368
-6.87893
-6.91938
-6.06691
-6.08662
-6.13342
-6.19477
-6.25724
-6.31821
-6.37879
-6.43819
-6.49515
-6.54943
-6.60134
-6.65111
-6.69885
-6.74471
-6.78885
-6.83135
-6.87227
-6.91134
-6.10362
-6.12081
-6.1608
-6.21478
-6.27207
-6.3292
-6.38629
-6.44274
-6.49748
-6.55005
-6.60054
-6.64905
-6.69566
-6.74042
-6.78341
-6.82468
-6.86424
-6.90187
-6.14075
-6.15552
-6.18949
-6.23655
-6.28839
-6.34134
-6.39476
-6.44803
-6.50023
-6.55079
-6.59957
-6.64657
-6.69178
-6.7352
-6.77684
-6.81671
-6.85479
-6.89093
-6.17631
-6.18893
-6.21784
-6.25876
-6.30529
-6.35395
-6.40365
-6.45365
-6.50313
-6.55142
-6.59826
-6.64351
-6.6871
-6.72897
-6.76909
-6.80742
-6.84397
-6.87861
-6.2074
-6.21827
-6.2432
-6.27912
-6.32096
-6.36565
-6.41185
-6.45873
-6.50547
-6.55143
-6.5962
-6.63957
-6.6814
-6.7216
-6.7601
-6.79687
-6.83188
-6.86507
-6.22967
-6.23931
-6.26156
-6.294
-6.33241
-6.37401
-6.41741
-6.46171
-6.50612
-6.54996
-6.59279
-6.63436
-6.67448
-6.71305
-6.74998
-6.78523
-6.81879
-6.85064
-6.23622
-6.24537
-6.26657
-6.2977
-6.33476
-6.375
-6.41701
-6.4599
-6.5029
-6.54536
-6.58683
-6.62703
-6.6658
-6.70303
-6.73865
-6.77265
-6.80501
-6.83576
-6.2199
-6.22967
-6.25226
-6.28532
-6.32429
-6.36595
-6.40886
-6.45233
-6.49563
-6.53814
-6.57941
-6.61925
-6.65753
-6.69419
-6.72917
-6.76249
-6.79416
-6.82423
-6.19293
-6.20372
-6.22898
-6.26598
-6.30872
-6.3532
-6.39824
-6.44342
-6.48799
-6.53128
-6.57298
-6.61301
-6.65131
-6.68785
-6.72262
-6.75566
-6.78702
-6.81678
-6.15763
-6.16945
-6.19879
-6.24235
-6.2906
-6.33855
-6.38631
-6.43398
-6.48048
-6.525
-6.56746
-6.60795
-6.6465
-6.68311
-6.71783
-6.75075
-6.78193
-6.81148
-6.11703
-6.12892
-6.16336
-6.21661
-6.27213
-6.32405
-6.37489
-6.42528
-6.47374
-6.51956
-6.56292
-6.60404
-6.64297
-6.67977
-6.71455
-6.74744
-6.77855
-6.80802
-6.0733
-6.08426
-6.12602
-6.19042
-6.25257
-6.30921
-6.36478
-6.41859
-6.4688
-6.51556
-6.55963
-6.60125
-6.64045
-6.67735
-6.71213
-6.74497
-6.776
-6.80535
-6.02639
-6.03184
-6.09447
-6.17266
-6.23457
-6.29278
-6.35388
-6.41219
-6.46466
-6.51266
-6.55762
-6.59983
-6.63931
-6.67629
-6.71105
-6.74382
-6.77476
-6.80407
-5.98311
-5.94666
-6.05618
-6.16713
-6.22935
-6.2846
-6.34677
-6.40646
-6.45964
-6.5083
-6.55397
-6.59671
-6.63652
-6.6737
-6.70857
-6.74139
-6.77237
-6.80168
-5.9972
-5.8382
-5.96712
-6.12119
-6.21128
-6.28261
-6.3515
-6.41237
-6.46512
-6.51335
-6.55858
-6.60078
-6.64002
-6.67663
-6.71095
-6.74328
-6.77384
-6.80287
-6.11992
-5.93992
-5.95411
-6.02625
-6.1146
-6.21379
-6.30445
-6.37818
-6.43983
-6.49492
-6.54518
-6.5909
-6.63265
-6.67109
-6.70673
-6.74001
-6.7714
-6.80151
-5.82723
-6.4188
-6.50765
-6.38339
-6.32903
-6.35616
-6.4031
-6.4463
-6.48781
-6.52994
-6.57138
-6.61066
-6.64757
-6.68225
-6.71476
-6.74526
-6.77396
-6.80265
-2.83898
-4.60174
-5.60643
-5.90555
-6.0547
-6.1983
-6.31229
-6.39321
-6.45739
-6.5142
-6.56541
-6.61139
-6.65302
-6.6912
-6.72644
-6.75853
-6.78733
-6.81108
-7.69455
-7.69461
-7.69509
-7.69607
-7.69742
-7.69912
-7.70115
-7.70351
-7.70623
-7.70933
-7.71284
-7.7168
-7.72124
-7.72621
-7.73175
-7.73792
-7.74479
-7.75241
-7.76084
-7.7702
-7.78055
-7.7919
-7.80416
-7.81741
-7.83195
-7.848
-7.86501
-7.88245
-7.90025
-7.91836
-7.93738
-7.95792
-7.98025
-8.00449
-8.02882
-8.0526
-8.07603
-8.09655
-8.11633
-8.13926
-8.16431
-8.19035
-8.21716
-8.24458
-8.27245
-8.30067
-8.3291
-8.35769
-8.3863
-8.41489
-8.44334
-8.4716
-8.49954
-8.52711
-8.55418
-8.58068
-8.60649
-8.63151
-8.65561
-8.67871
-8.70064
-8.7213
-8.74052
-8.75819
-8.77414
-8.78823
-8.80028
-8.81016
-8.81765
-8.82262
-8.82484
-8.82418
-8.82041
-8.81337
-8.80284
-8.78865
-8.77058
-8.74845
-8.72202
-8.69114
-8.65555
-8.61511
-8.56957
-8.5188
-8.46255
-8.40069
-8.33298
-8.25922
-8.17914
-8.09255
-7.99933
-7.89948
-7.79304
-7.67999
-7.56014
-7.43317
-7.29866
-7.15635
-7.00627
-6.84848
-6.68299
-6.50975
-6.32875
-6.13996
-5.94336
-5.73898
-5.52684
-5.307
-5.07953
-4.84454
-4.60214
-4.35249
-4.09575
-3.83212
-3.56182
-3.28507
-3.00217
-2.71343
-2.41916
-2.11974
-1.81552
-1.50691
-1.1943
-0.878147
-0.558932
-0.237162
0.0866134
0.411869
0.73807
1.0647
1.39119
1.71696
2.04143
2.36402
2.68415
3.00127
3.31482
3.62428
3.92913
4.22893
4.52322
4.81158
5.09362
5.36898
5.63735
5.89847
6.15211
6.3981
6.63631
6.86666
7.0891
7.30363
7.51028
7.70912
7.90027
8.08386
8.26005
8.42914
8.59139
8.74685
8.89561
9.03789
9.17399
9.30422
9.42889
9.54832
9.66281
9.77265
9.87814
9.9796
10.0774
10.1717
10.2631
10.3518
10.4385
10.5237
10.6092
10.6961
10.796
10.9021
-7.69259
-7.69308
-7.69381
-7.69461
-7.69533
-7.69606
-7.69704
-7.6984
-7.70021
-7.7025
-7.70529
-7.70858
-7.7124
-7.71677
-7.72171
-7.72727
-7.73349
-7.74043
-7.74813
-7.75663
-7.7659
-7.77588
-7.78666
-7.79836
-7.81112
-7.82448
-7.83829
-7.85293
-7.86834
-7.88494
-7.90237
-7.91993
-7.93779
-7.9551
-7.97425
-7.99738
-8.02245
-8.05116
-8.08288
-8.11254
-8.14028
-8.16768
-8.19517
-8.22289
-8.25083
-8.27897
-8.30726
-8.33565
-8.36405
-8.39241
-8.42064
-8.44867
-8.4764
-8.50378
-8.53068
-8.55703
-8.58272
-8.60765
-8.6317
-8.65476
-8.6767
-8.6974
-8.7167
-8.73449
-8.7506
-8.76489
-8.77719
-8.78735
-8.79518
-8.80052
-8.80318
-8.80299
-8.79975
-8.79328
-8.78338
-8.76987
-8.75254
-8.73119
-8.70561
-8.67562
-8.641
-8.60157
-8.55711
-8.50746
-8.45242
-8.39181
-8.32545
-8.25314
-8.17465
-8.08983
-7.99852
-7.90057
-7.79581
-7.68407
-7.5652
-7.43903
-7.30552
-7.16467
-7.01639
-6.86053
-6.69704
-6.52585
-6.34692
-6.16024
-5.96579
-5.76357
-5.55361
-5.33596
-5.1107
-4.87793
-4.63775
-4.3903
-4.13576
-3.87431
-3.60615
-3.33152
-3.0507
-2.76398
-2.47168
-2.17415
-1.87175
-1.56487
-1.25393
-0.93934
-0.621579
-0.301152
0.0214113
0.345568
0.670802
0.996596
1.3224
1.64763
1.97171
2.29406
2.61412
2.93133
3.24513
3.55499
3.86041
4.16092
4.45607
4.74543
5.0286
5.30521
5.57495
5.83754
6.09275
6.34039
6.58032
6.81245
7.03671
7.2531
7.46164
7.6624
7.85547
8.041
8.21914
8.38992
8.55347
8.71007
8.85995
9.00335
9.14055
9.27187
9.3976
9.51804
9.63348
9.74422
9.85057
9.95284
10.0514
10.1465
10.2385
10.328
10.4154
10.5016
10.5884
10.6765
10.7787
10.8794
-7.68718
-7.68864
-7.6907
-7.69227
-7.6932
-7.69387
-7.69462
-7.69568
-7.69716
-7.69912
-7.7016
-7.70462
-7.7082
-7.71236
-7.71712
-7.72252
-7.7286
-7.73539
-7.74295
-7.7513
-7.76045
-7.77039
-7.78111
-7.79266
-7.805
-7.81799
-7.83153
-7.8459
-7.86134
-7.87817
-7.8963
-7.91529
-7.9349
-7.95482
-7.97529
-7.99675
-8.01914
-8.04336
-8.06955
-8.09626
-8.123
-8.14988
-8.17697
-8.20426
-8.23175
-8.25941
-8.28718
-8.31504
-8.34291
-8.37074
-8.39845
-8.42598
-8.45324
-8.48016
-8.50665
-8.53261
-8.55794
-8.58255
-8.60632
-8.62913
-8.65087
-8.67141
-8.6906
-8.70832
-8.72441
-8.73873
-8.75111
-8.7614
-8.76943
-8.77501
-8.77798
-8.77816
-8.77535
-8.76938
-8.76004
-8.74715
-8.7305
-8.70991
-8.68517
-8.65608
-8.62244
-8.58406
-8.54073
-8.49227
-8.43848
-8.37919
-8.3142
-8.24332
-8.16637
-8.08319
-7.99367
-7.89765
-7.79492
-7.68527
-7.56848
-7.44443
-7.31305
-7.17437
-7.02831
-6.87476
-6.71364
-6.54488
-6.36845
-6.1843
-5.99242
-5.7928
-5.58549
-5.37052
-5.14796
-4.91789
-4.68044
-4.43573
-4.18391
-3.92518
-3.65972
-3.38777
-3.10959
-2.82547
-2.53572
-2.24067
-1.94068
-1.63614
-1.32745
-1.01503
-0.699334
-0.380852
-0.060097
0.262383
0.586084
0.910475
1.23503
1.55916
1.88232
2.20392
2.52341
2.84022
3.15381
3.46364
3.76921
4.07006
4.36571
4.65575
4.93977
5.21739
5.48828
5.75216
6.00878
6.25796
6.49953
6.73339
6.95948
7.17775
7.38823
7.59096
7.78599
7.97342
8.1534
8.32608
8.49165
8.65036
8.80238
8.9479
9.08718
9.2205
9.34815
9.4704
9.58756
9.69992
9.80778
9.91145
10.0113
10.1076
10.2008
10.2913
10.3799
10.4673
10.5556
10.6444
10.7483
10.8369
-7.67896
-7.68153
-7.68546
-7.6885
-7.69038
-7.69168
-7.69283
-7.69407
-7.69558
-7.69749
-7.69986
-7.70275
-7.70619
-7.71021
-7.71483
-7.7201
-7.72603
-7.73267
-7.74004
-7.74818
-7.75709
-7.76678
-7.77728
-7.78858
-7.80065
-7.81341
-7.8268
-7.8409
-7.85589
-7.87198
-7.88933
-7.90793
-7.92769
-7.94849
-7.97015
-7.99247
-8.01535
-8.03898
-8.06349
-8.08869
-8.11437
-8.14044
-8.16686
-8.19357
-8.22052
-8.24767
-8.27496
-8.30234
-8.32976
-8.35715
-8.38445
-8.4116
-8.4385
-8.46509
-8.49127
-8.51696
-8.54206
-8.56647
-8.59007
-8.61276
-8.6344
-8.65489
-8.67407
-8.69182
-8.70798
-8.72241
-8.73495
-8.74544
-8.75371
-8.75959
-8.7629
-8.76346
-8.76108
-8.75559
-8.74678
-8.73447
-8.71846
-8.69856
-8.67455
-8.64626
-8.61347
-8.57598
-8.53361
-8.48616
-8.43343
-8.37524
-8.31139
-8.24171
-8.16599
-8.08408
-7.99586
-7.90116
-7.79981
-7.69162
-7.5764
-7.454
-7.32436
-7.18744
-7.04316
-6.89143
-6.73218
-6.56533
-6.39083
-6.20865
-6.01876
-5.82117
-5.6159
-5.403
-5.18251
-4.95454
-4.71918
-4.47657
-4.22685
-3.97019
-3.7068
-3.43689
-3.16073
-2.87859
-2.59078
-2.29761
-1.99945
-1.69667
-1.38968
-1.07891
-0.764779
-0.447775
-0.128403
0.192811
0.515359
0.838705
1.16232
1.48563
1.8081
2.12914
2.4482
2.76472
3.07816
3.38798
3.69369
3.99481
4.29088
4.58147
4.86616
5.14457
5.41639
5.6813
5.93907
6.18948
6.4324
6.66767
6.89523
7.11504
7.32711
7.53146
7.72815
7.91727
8.09897
8.2734
8.44077
8.60131
8.75518
8.90252
9.04358
9.17859
9.30784
9.43161
9.55019
9.66388
9.77298
9.87779
9.97866
10.0759
10.17
10.2614
10.3507
10.4387
10.5274
10.6153
10.7171
10.7916
-7.67006
-7.67379
-7.67975
-7.68447
-7.68757
-7.68979
-7.69163
-7.69339
-7.69526
-7.69741
-7.69996
-7.70297
-7.7065
-7.71059
-7.71529
-7.72063
-7.72663
-7.73335
-7.7408
-7.749
-7.75797
-7.76772
-7.77824
-7.78957
-7.80168
-7.81457
-7.82819
-7.84258
-7.8578
-7.87394
-7.89111
-7.90935
-7.92868
-7.94906
-7.97042
-7.99262
-8.01551
-8.03904
-8.06315
-8.08779
-8.11288
-8.13838
-8.16425
-8.19045
-8.21692
-8.24362
-8.27048
-8.29746
-8.3245
-8.35154
-8.37851
-8.40534
-8.43196
-8.4583
-8.48425
-8.50975
-8.53467
-8.55894
-8.58244
-8.60504
-8.62665
-8.64712
-8.66632
-8.68412
-8.70036
-8.71491
-8.7276
-8.73827
-8.74676
-8.75288
-8.75648
-8.75736
-8.75534
-8.75024
-8.74187
-8.73002
-8.71451
-8.69514
-8.67172
-8.64403
-8.61189
-8.5751
-8.53346
-8.48678
-8.43485
-8.37751
-8.31454
-8.24578
-8.17102
-8.0901
-8.00288
-7.90921
-7.8089
-7.7018
-7.58775
-7.46661
-7.33828
-7.20268
-7.05973
-6.90935
-6.75146
-6.58599
-6.41289
-6.23213
-6.04367
-5.84753
-5.64371
-5.43226
-5.21324
-4.98674
-4.75283
-4.51167
-4.26338
-4.00814
-3.74614
-3.47761
-3.20279
-2.92196
-2.63541
-2.34346
-2.04646
-1.74479
-1.43886
-1.12909
-0.815906
-0.499779
-0.181223
0.13928
0.461195
0.784009
1.10716
1.43011
1.75228
2.07313
2.39209
2.7086
3.02212
3.33213
3.63813
3.93963
4.23617
4.52731
4.81263
5.09175
5.36434
5.63011
5.88879
6.14018
6.38412
6.62047
6.84915
7.07013
7.28337
7.48893
7.68684
7.87719
8.06011
8.23575
8.40432
8.56603
8.72103
8.86951
9.01165
9.14772
9.27797
9.40269
9.52215
9.63665
9.7465
9.852
9.95347
10.0513
10.1458
10.2376
10.3272
10.4151
10.5033
10.5892
10.6873
10.7488
-7.6623
-7.66709
-7.67485
-7.68112
-7.68544
-7.68866
-7.69133
-7.69376
-7.69617
-7.69877
-7.70168
-7.70499
-7.7088
-7.71314
-7.71807
-7.72363
-7.72986
-7.7368
-7.74447
-7.7529
-7.7621
-7.77207
-7.78282
-7.79436
-7.80668
-7.81978
-7.83368
-7.84838
-7.86392
-7.88034
-7.89766
-7.91591
-7.93508
-7.95516
-7.97611
-7.99785
-8.02031
-8.04341
-8.06709
-8.09127
-8.11592
-8.14098
-8.16642
-8.1922
-8.21827
-8.24459
-8.2711
-8.29775
-8.32449
-8.35125
-8.37796
-8.40457
-8.43099
-8.45714
-8.48295
-8.50832
-8.53315
-8.55735
-8.5808
-8.6034
-8.62501
-8.64552
-8.66478
-8.68267
-8.69903
-8.71372
-8.72658
-8.73744
-8.74614
-8.75251
-8.75637
-8.75754
-8.75584
-8.75107
-8.74306
-8.7316
-8.71651
-8.69758
-8.67461
-8.64742
-8.6158
-8.57955
-8.53847
-8.49238
-8.44108
-8.38438
-8.32209
-8.25403
-8.18
-8.09985
-8.01341
-7.92054
-7.82105
-7.71479
-7.60163
-7.48142
-7.35406
-7.21945
-7.0775
-6.92812
-6.77125
-6.60681
-6.43474
-6.25501
-6.0676
-5.8725
-5.66974
-5.45935
-5.24138
-5.01592
-4.78305
-4.54291
-4.29562
-4.04136
-3.78033
-3.51272
-3.2388
-2.95883
-2.6731
-2.38193
-2.08567
-1.78468
-1.47938
-1.17018
-0.857526
-0.541883
-0.223746
0.0964043
0.418051
0.740662
1.06368
1.38656
1.70874
2.02966
2.34874
2.66545
2.97924
3.28958
3.59598
3.89794
4.195
4.48671
4.77265
5.05244
5.32572
5.59223
5.85169
6.1039
6.34867
6.58588
6.81543
7.03728
7.2514
7.45783
7.6566
7.8478
8.03154
8.20797
8.37729
8.5397
8.69538
8.8445
8.98727
9.12395
9.25477
9.38003
9.49998
9.61494
9.72517
9.83101
9.93277
10.0308
10.1255
10.2172
10.3066
10.3941
10.4811
10.5645
10.6591
10.709
-7.65692
-7.66261
-7.67173
-7.67928
-7.68468
-7.68885
-7.69235
-7.69548
-7.69851
-7.70163
-7.705
-7.70873
-7.7129
-7.7176
-7.72286
-7.72874
-7.73527
-7.7425
-7.75045
-7.75915
-7.76861
-7.77885
-7.78986
-7.80165
-7.81422
-7.82757
-7.84171
-7.85664
-7.87239
-7.88898
-7.90641
-7.92469
-7.94381
-7.96373
-7.98443
-8.00586
-8.02797
-8.05071
-8.07401
-8.09783
-8.12211
-8.14683
-8.17194
-8.1974
-8.22317
-8.24921
-8.27546
-8.30187
-8.32839
-8.35496
-8.38151
-8.40797
-8.43427
-8.46034
-8.48608
-8.5114
-8.53622
-8.56042
-8.5839
-8.60654
-8.62822
-8.64882
-8.6682
-8.68621
-8.70272
-8.71757
-8.73061
-8.74167
-8.75059
-8.75718
-8.76129
-8.76272
-8.76129
-8.75682
-8.74911
-8.73797
-8.72321
-8.70463
-8.68203
-8.65522
-8.62399
-8.58815
-8.54751
-8.50186
-8.45102
-8.3948
-8.33301
-8.26546
-8.19197
-8.11238
-8.02652
-7.93424
-7.83536
-7.72973
-7.61722
-7.4977
-7.37104
-7.23715
-7.09593
-6.94729
-6.79116
-6.62746
-6.45614
-6.27716
-6.09051
-5.89616
-5.69416
-5.48452
-5.2673
-5.04257
-4.81043
-4.57099
-4.3244
-4.07081
-3.81042
-3.54344
-3.2701
-2.99068
-2.70547
-2.41478
-2.11895
-1.81836
-1.5134
-1.20449
-0.892085
-0.576663
-0.258685
0.0613496
0.382958
0.705576
1.02868
1.35168
1.67403
1.99516
2.31452
2.63154
2.9457
3.25646
3.56332
3.8658
4.16339
4.45566
4.74219
5.0226
5.29655
5.56372
5.82387
6.07676
6.32223
6.56013
6.79036
7.01288
7.22767
7.43472
7.63412
7.82591
8.01022
8.18718
8.35699
8.51984
8.67593
8.82543
8.96857
9.10557
9.23671
9.36223
9.48243
9.59758
9.70797
9.8139
9.9157
10.0137
10.1082
10.1997
10.2886
10.3752
10.4607
10.5415
10.6327
10.6724
-7.65465
-7.66096
-7.67099
-7.67946
-7.68573
-7.69071
-7.69494
-7.69874
-7.70236
-7.70601
-7.70987
-7.71404
-7.71863
-7.7237
-7.72933
-7.73555
-7.74241
-7.74995
-7.7582
-7.76717
-7.7769
-7.78739
-7.79864
-7.81067
-7.82347
-7.83704
-7.85138
-7.8665
-7.8824
-7.89909
-7.91658
-7.93485
-7.9539
-7.9737
-7.99422
-8.01544
-8.0373
-8.05978
-8.08281
-8.10637
-8.1304
-8.15487
-8.17975
-8.205
-8.23057
-8.25642
-8.28251
-8.30878
-8.33518
-8.36165
-8.38812
-8.41453
-8.4408
-8.46686
-8.49261
-8.51797
-8.54284
-8.56711
-8.59068
-8.61342
-8.63523
-8.65596
-8.67548
-8.69365
-8.71033
-8.72536
-8.73858
-8.74984
-8.75896
-8.76577
-8.77009
-8.77175
-8.77055
-8.76631
-8.75885
-8.74796
-8.73345
-8.71513
-8.6928
-8.66627
-8.63532
-8.59978
-8.55944
-8.5141
-8.46359
-8.4077
-8.34625
-8.27906
-8.20594
-8.12673
-8.04128
-7.9494
-7.85095
-7.74577
-7.63372
-7.51467
-7.38851
-7.25512
-7.1144
-6.96628
-6.81066
-6.64748
-6.47668
-6.29822
-6.11208
-5.91827
-5.71678
-5.50765
-5.29094
-5.06671
-4.83505
-4.59608
-4.34994
-4.09678
-3.83679
-3.57018
-3.2972
-3.0181
-2.73316
-2.44272
-2.1471
-1.84668
-1.54185
-1.23303
-0.92067
-0.60526
-0.287264
0.0328396
0.354557
0.677341
1.00065
1.32391
1.64655
1.96799
2.2877
2.60511
2.91968
3.23088
3.53823
3.84122
4.13935
4.43218
4.71929
5.00027
5.2748
5.54256
5.80328
6.05674
6.30277
6.5412
6.77197
6.99498
7.21025
7.41777
7.6176
7.8098
7.9945
8.17181
8.34194
8.50507
8.6614
8.81112
8.95446
9.09163
9.22291
9.34854
9.46882
9.58399
9.69438
9.80024
9.90191
9.99967
10.0939
10.1849
10.2731
10.3585
10.4423
10.5205
10.6085
10.6394
-7.6557
-7.66235
-7.67283
-7.68187
-7.68876
-7.69435
-7.69918
-7.70354
-7.70768
-7.71182
-7.71612
-7.72071
-7.72568
-7.73112
-7.73708
-7.74363
-7.7508
-7.75862
-7.76713
-7.77636
-7.78631
-7.79701
-7.80847
-7.82068
-7.83365
-7.84738
-7.86187
-7.87712
-7.89313
-7.9099
-7.92741
-7.94567
-7.96467
-7.98437
-8.00477
-8.02583
-8.04753
-8.06983
-8.09268
-8.11607
-8.13994
-8.16427
-8.18901
-8.21414
-8.2396
-8.26537
-8.29139
-8.31761
-8.34398
-8.37044
-8.39692
-8.42337
-8.44969
-8.47581
-8.50165
-8.5271
-8.55208
-8.57648
-8.60019
-8.62308
-8.64504
-8.66593
-8.68562
-8.70397
-8.72082
-8.73603
-8.74943
-8.76087
-8.77017
-8.77716
-8.78166
-8.78349
-8.78247
-8.77841
-8.77111
-8.7604
-8.74606
-8.72792
-8.70576
-8.67939
-8.64863
-8.61326
-8.5731
-8.52796
-8.47763
-8.42194
-8.3607
-8.29373
-8.22084
-8.14187
-8.05666
-7.96504
-7.86686
-7.76196
-7.6502
-7.53146
-7.40561
-7.27256
-7.13217
-6.98439
-6.8291
-6.66626
-6.4958
-6.31769
-6.13189
-5.93841
-5.73726
-5.52846
-5.31207
-5.08815
-4.85679
-4.61811
-4.37222
-4.11931
-3.85954
-3.59312
-3.32031
-3.04134
-2.75651
-2.46613
-2.17056
-1.87014
-1.56528
-1.25637
-0.943922
-0.628373
-0.310223
0.0100811
0.332014
0.655075
0.978688
1.30229
1.62527
1.94708
2.26717
2.58501
2.90004
3.21174
3.51958
3.82308
4.12173
4.41507
4.70268
4.98418
5.25919
5.52743
5.7886
6.0425
6.28893
6.52776
6.75888
6.98225
7.19782
7.40563
7.60572
7.79816
7.98307
8.16058
8.33087
8.49413
8.65055
8.80036
8.94374
9.08095
9.21223
9.33785
9.45807
9.57317
9.68341
9.7891
9.8905
9.98794
10.0817
10.1721
10.2594
10.3436
10.4256
10.501
10.5861
10.6094
-7.65995
-7.66668
-7.67721
-7.68646
-7.6937
-7.6997
-7.70495
-7.70974
-7.71429
-7.71882
-7.72348
-7.72841
-7.7337
-7.73944
-7.74569
-7.7525
-7.75992
-7.76797
-7.7767
-7.78612
-7.79625
-7.80711
-7.8187
-7.83104
-7.84412
-7.85796
-7.87253
-7.88786
-7.90392
-7.92072
-7.93825
-7.9565
-7.97546
-7.99511
-8.01543
-8.0364
-8.058
-8.08021
-8.10297
-8.12628
-8.15008
-8.17434
-8.19904
-8.22413
-8.24958
-8.27535
-8.30139
-8.32765
-8.35407
-8.3806
-8.40718
-8.43372
-8.46015
-8.48641
-8.51238
-8.53799
-8.56313
-8.58769
-8.61156
-8.63462
-8.65675
-8.67781
-8.69767
-8.71619
-8.7332
-8.74857
-8.76212
-8.7737
-8.78314
-8.79025
-8.79487
-8.79682
-8.7959
-8.79193
-8.78473
-8.77409
-8.75984
-8.74176
-8.71967
-8.69338
-8.66267
-8.62737
-8.58728
-8.5422
-8.49195
-8.43633
-8.37517
-8.30829
-8.23549
-8.15663
-8.07154
-7.98005
-7.882
-7.77725
-7.66565
-7.54708
-7.42142
-7.28854
-7.14836
-7.00077
-6.84569
-6.68305
-6.5128
-6.33489
-6.1493
-5.95603
-5.75508
-5.54648
-5.33027
-5.10653
-4.87533
-4.63679
-4.39104
-4.13823
-3.87854
-3.61219
-3.3394
-3.06044
-2.77558
-2.48515
-2.18949
-1.88896
-1.58394
-1.27487
-0.962205
-0.646427
-0.328015
-0.00744303
0.314786
0.63817
0.962153
1.28614
1.60953
1.93176
2.25229
2.57058
2.88607
3.19825
3.50658
3.81055
4.10966
4.40346
4.69151
4.97341
5.24882
5.51741
5.77892
6.03313
6.27983
6.51891
6.75024
6.97379
7.18952
7.39746
7.59765
7.79018
7.97515
8.1527
8.32301
8.48626
8.64265
8.7924
8.93571
9.07284
9.20401
9.32951
9.44957
9.56448
9.6745
9.77991
9.88097
9.97798
10.0712
10.1608
10.2471
10.33
10.4102
10.4831
10.5653
10.5823
-7.66704
-7.67363
-7.68385
-7.693
-7.70033
-7.70652
-7.71202
-7.71707
-7.7219
-7.7267
-7.73162
-7.73679
-7.74231
-7.74826
-7.7547
-7.7617
-7.76927
-7.77748
-7.78634
-7.79588
-7.80611
-7.81706
-7.82873
-7.84114
-7.85428
-7.86816
-7.88278
-7.89813
-7.91422
-7.93104
-7.94857
-7.96682
-7.98576
-8.00539
-8.02568
-8.04663
-8.0682
-8.09038
-8.11313
-8.13643
-8.16024
-8.18452
-8.20925
-8.2344
-8.25991
-8.28576
-8.3119
-8.33826
-8.36481
-8.39147
-8.41819
-8.44489
-8.47149
-8.49791
-8.52405
-8.54984
-8.57515
-8.59989
-8.62393
-8.64716
-8.66945
-8.69066
-8.71066
-8.7293
-8.74644
-8.76191
-8.77555
-8.78721
-8.79671
-8.80387
-8.80853
-8.8105
-8.80959
-8.80562
-8.79841
-8.78775
-8.77346
-8.75535
-8.73322
-8.70687
-8.67612
-8.64077
-8.60062
-8.55549
-8.5052
-8.44954
-8.38835
-8.32144
-8.24863
-8.16976
-8.08467
-7.9932
-7.89518
-7.79046
-7.67892
-7.56041
-7.43483
-7.30204
-7.16195
-7.01445
-6.85947
-6.69693
-6.52679
-6.34899
-6.16352
-5.97036
-5.76952
-5.56102
-5.34491
-5.12125
-4.89013
-4.65164
-4.40593
-4.15313
-3.89344
-3.62706
-3.35422
-3.07518
-2.79022
-2.49967
-2.20385
-1.90314
-1.59792
-1.28862
-0.975702
-0.659646
-0.340909
-0.0200132
0.302572
0.62632
0.950716
1.27512
1.59893
1.92158
2.24255
2.56128
2.87724
3.18986
3.49862
3.803
4.10252
4.39668
4.68507
4.96729
5.24297
5.51181
5.77353
6.0279
6.27475
6.51392
6.74532
6.9689
7.18464
7.39255
7.5927
7.78515
7.97004
8.14749
8.31768
8.48078
8.63702
8.78659
8.92973
9.06665
9.19762
9.32288
9.4427
9.55732
9.66704
9.77209
9.87274
9.96923
10.0618
10.1506
10.2359
10.3174
10.3958
10.4662
10.5457
10.5575
-7.67647
-7.68271
-7.69236
-7.70114
-7.70833
-7.71451
-7.72006
-7.72521
-7.73016
-7.73509
-7.74014
-7.74543
-7.75106
-7.75712
-7.76365
-7.77072
-7.77836
-7.78662
-7.79552
-7.8051
-7.81536
-7.82634
-7.83803
-7.85045
-7.8636
-7.8775
-7.89212
-7.90749
-7.92359
-7.94041
-7.95796
-7.97622
-7.99517
-8.01482
-8.03514
-8.05611
-8.0777
-8.09991
-8.1227
-8.14605
-8.16993
-8.1943
-8.21914
-8.24441
-8.27005
-8.29604
-8.32233
-8.34885
-8.37556
-8.4024
-8.42929
-8.45616
-8.48294
-8.50954
-8.53586
-8.56181
-8.58728
-8.61217
-8.63635
-8.6597
-8.6821
-8.7034
-8.72348
-8.74218
-8.75935
-8.77483
-8.78848
-8.80011
-8.80957
-8.81668
-8.82126
-8.82314
-8.82212
-8.81804
-8.81069
-8.79989
-8.78545
-8.76718
-8.74489
-8.71838
-8.68746
-8.65194
-8.61164
-8.56635
-8.5159
-8.4601
-8.39878
-8.33174
-8.25882
-8.17985
-8.09468
-8.00313
-7.90506
-7.8003
-7.68873
-7.57021
-7.44462
-7.31184
-7.17177
-7.0243
-6.86936
-6.70687
-6.53677
-6.35903
-6.17361
-5.98051
-5.77972
-5.57128
-5.35521
-5.13159
-4.90049
-4.66202
-4.41631
-4.1635
-3.90378
-3.63735
-3.36444
-3.0853
-2.80021
-2.5095
-2.2135
-1.91258
-1.60713
-1.29758
-0.984379
-0.668001
-0.348927
-0.0276776
0.295266
0.619403
0.944202
1.26901
1.59322
1.91628
2.23765
2.55679
2.87314
3.18614
3.49527
3.79999
4.09981
4.39425
4.68289
4.9653
5.24115
5.51011
5.77191
6.02631
6.27316
6.51229
6.74362
6.96709
7.18269
7.39044
7.5904
7.78265
7.96732
8.14453
8.31448
8.47733
8.6333
8.78259
8.92545
9.06208
9.19275
9.3177
9.43719
9.55148
9.66081
9.76545
9.86562
9.96155
10.0534
10.1414
10.2256
10.3057
10.3822
10.4504
10.5274
10.5348
-7.68766
-7.69343
-7.70229
-7.71049
-7.71733
-7.7233
-7.72872
-7.7338
-7.7387
-7.7436
-7.74863
-7.75391
-7.75953
-7.76555
-7.77206
-7.77909
-7.7867
-7.79493
-7.8038
-7.81334
-7.82358
-7.83452
-7.84619
-7.85859
-7.87173
-7.88561
-7.90023
-7.91559
-7.9317
-7.94854
-7.96611
-7.9844
-8.00339
-8.02307
-8.04343
-8.06445
-8.0861
-8.10838
-8.13125
-8.15471
-8.1787
-8.20322
-8.22821
-8.25364
-8.27945
-8.30561
-8.33207
-8.35876
-8.38564
-8.41265
-8.4397
-8.46673
-8.49366
-8.52039
-8.54684
-8.5729
-8.59846
-8.62342
-8.64766
-8.67104
-8.69344
-8.71473
-8.73477
-8.7534
-8.77049
-8.78586
-8.79937
-8.81086
-8.82014
-8.82705
-8.83142
-8.83307
-8.83182
-8.82748
-8.81987
-8.8088
-8.79409
-8.77554
-8.75297
-8.72618
-8.69498
-8.65919
-8.61862
-8.57309
-8.52239
-8.46636
-8.40482
-8.33758
-8.26447
-8.18534
-8.10002
-8.00835
-7.91016
-7.80531
-7.69366
-7.57509
-7.44945
-7.31665
-7.17656
-7.02911
-6.87418
-6.71172
-6.54166
-6.36397
-6.17861
-5.98557
-5.78484
-5.57645
-5.36044
-5.13687
-4.9058
-4.66735
-4.42165
-4.16884
-3.90909
-3.64261
-3.36963
-3.09039
-2.80519
-2.51433
-2.21816
-1.91703
-1.61136
-1.30156
-0.988076
-0.671371
-0.35198
-0.0303903
0.292883
0.617388
0.942547
1.26772
1.59227
1.91568
2.2374
2.55687
2.87354
3.18684
3.49623
3.80119
4.1012
4.3958
4.68454
4.96704
5.2429
5.51184
5.77357
6.02788
6.27456
6.51351
6.74461
6.96783
7.18314
7.39059
7.59021
7.78214
7.96645
8.14332
8.3129
8.47539
8.63099
8.77992
8.92239
9.05866
9.18895
9.31353
9.43263
9.54652
9.65543
9.75961
9.85926
9.95459
10.0458
10.1329
10.216
10.2946
10.3694
10.4354
10.5099
10.5139
-7.70007
-7.70527
-7.71321
-7.72067
-7.72699
-7.73257
-7.73767
-7.74248
-7.74717
-7.75187
-7.75672
-7.76183
-7.76729
-7.77317
-7.77954
-7.78644
-7.79394
-7.80205
-7.81082
-7.82027
-7.83042
-7.84129
-7.85289
-7.86524
-7.87833
-7.89218
-7.90678
-7.92214
-7.93824
-7.95508
-7.97267
-7.99098
-8.01
-8.02973
-8.05014
-8.07122
-8.09296
-8.11535
-8.13834
-8.16193
-8.18607
-8.21074
-8.23588
-8.26147
-8.28743
-8.31374
-8.34032
-8.36715
-8.39414
-8.42124
-8.44839
-8.47549
-8.50247
-8.52924
-8.5557
-8.58175
-8.60727
-8.63217
-8.65631
-8.67957
-8.70182
-8.72294
-8.74277
-8.76118
-8.77801
-8.79311
-8.80632
-8.81749
-8.82643
-8.833
-8.83701
-8.83828
-8.83664
-8.83192
-8.82392
-8.81246
-8.79735
-8.77842
-8.75546
-8.7283
-8.69675
-8.66061
-8.61971
-8.57385
-8.52286
-8.46654
-8.40474
-8.33726
-8.26394
-8.18463
-8.09915
-8.00733
-7.90902
-7.80407
-7.69235
-7.57372
-7.44806
-7.31525
-7.17517
-7.02773
-6.87285
-6.71045
-6.54047
-6.36285
-6.17758
-5.98464
-5.78401
-5.57572
-5.35981
-5.13632
-4.90533
-4.66695
-4.42129
-4.16851
-3.90878
-3.64229
-3.36927
-3.08998
-2.8047
-2.51373
-2.21742
-1.91614
-1.61029
-1.30027
-0.98653
-0.669562
-0.349892
-0.0280256
0.295536
0.620334
0.945792
1.27124
1.59605
1.91972
2.24168
2.56139
2.87827
3.19175
3.50128
3.80634
4.10641
4.40103
4.68974
4.97215
5.24789
5.51666
5.77817
6.03221
6.2786
6.5172
6.74793
6.97074
7.18563
7.39263
7.59181
7.78326
7.96711
8.14352
8.31264
8.47467
8.62981
8.77829
8.92033
9.05616
9.18603
9.31018
9.42885
9.5423
9.65076
9.75445
9.85356
9.94828
10.0387
10.1249
10.2069
10.2842
10.3574
10.4213
10.4934
10.4948
-7.71322
-7.71781
-7.72476
-7.73136
-7.73701
-7.742
-7.7466
-7.75095
-7.75522
-7.75954
-7.76404
-7.76883
-7.774
-7.77961
-7.78573
-7.79242
-7.79971
-7.80764
-7.81625
-7.82555
-7.83557
-7.84632
-7.85781
-7.87007
-7.88308
-7.89686
-7.91141
-7.92672
-7.9428
-7.95963
-7.97721
-7.99553
-8.01457
-8.03434
-8.05481
-8.07597
-8.09781
-8.12029
-8.14338
-8.16707
-8.1913
-8.21605
-8.24127
-8.26691
-8.29293
-8.31926
-8.34586
-8.37267
-8.39964
-8.4267
-8.45377
-8.48079
-8.50765
-8.53427
-8.56056
-8.5864
-8.61169
-8.63632
-8.66016
-8.6831
-8.70501
-8.72575
-8.74518
-8.76317
-8.77956
-8.79421
-8.80696
-8.81764
-8.8261
-8.83217
-8.83567
-8.83645
-8.83431
-8.82908
-8.82059
-8.80864
-8.79307
-8.77367
-8.75027
-8.72268
-8.69071
-8.65419
-8.61291
-8.56672
-8.5154
-8.4588
-8.39674
-8.32903
-8.25552
-8.17603
-8.09041
-7.99847
-7.90008
-7.79507
-7.68332
-7.56469
-7.43905
-7.30628
-7.16627
-7.01892
-6.86415
-6.70187
-6.53203
-6.35457
-6.16947
-5.97669
-5.77624
-5.56813
-5.35239
-5.12906
-4.89823
-4.65999
-4.41447
-4.1618
-3.90215
-3.63573
-3.36276
-3.08349
-2.79821
-2.50722
-2.21087
-1.90953
-1.60356
-1.2934
-0.979495
-0.662369
-0.342508
-0.0204615
0.303299
0.628277
0.953914
1.2795
1.60446
1.92825
2.25034
2.57014
2.88708
3.20058
3.51011
3.81511
4.11508
4.40954
4.69806
4.98021
5.25566
5.52408
5.78521
6.03881
6.28474
6.52284
6.75305
6.97531
7.18964
7.39606
7.59466
7.78553
7.96882
8.14466
8.31323
8.47472
8.62934
8.7773
8.91885
9.0542
9.18361
9.3073
9.42553
9.53853
9.64653
9.74972
9.84831
9.94241
10.0321
10.1175
10.1984
10.2744
10.3459
10.408
10.4778
10.4772
-7.72727
-7.73125
-7.73722
-7.74286
-7.74766
-7.75187
-7.7557
-7.75935
-7.76296
-7.76668
-7.77062
-7.77491
-7.77961
-7.7848
-7.79055
-7.79689
-7.80387
-7.81152
-7.81987
-7.82894
-7.83874
-7.8493
-7.86062
-7.87271
-7.88557
-7.89922
-7.91364
-7.92885
-7.94482
-7.96157
-7.97908
-7.99734
-8.01635
-8.03609
-8.05654
-8.07769
-8.0995
-8.12194
-8.14498
-8.1686
-8.19275
-8.2174
-8.24249
-8.26799
-8.29383
-8.31998
-8.34637
-8.37295
-8.39966
-8.42645
-8.45322
-8.4799
-8.5064
-8.53263
-8.55848
-8.58387
-8.60867
-8.63279
-8.6561
-8.67848
-8.69981
-8.71997
-8.7388
-8.75617
-8.77194
-8.78597
-8.79808
-8.80814
-8.81597
-8.82142
-8.82431
-8.82448
-8.82175
-8.81596
-8.80691
-8.79442
-8.77834
-8.75845
-8.73459
-8.70655
-8.67419
-8.63728
-8.59567
-8.54915
-8.49757
-8.44073
-8.37847
-8.3106
-8.23695
-8.15735
-8.07165
-7.97968
-7.88127
-7.7763
-7.66461
-7.54607
-7.42054
-7.28791
-7.14808
-7.00093
-6.84637
-6.68434
-6.51475
-6.33756
-6.15274
-5.96025
-5.76009
-5.55227
-5.33682
-5.11379
-4.88323
-4.64527
-4.4
-4.14757
-3.88816
-3.62194
-3.34914
-3.07004
-2.7849
-2.49404
-2.19778
-1.89649
-1.59055
-1.2804
-0.966507
-0.64936
-0.329472
-0.00737743
0.316422
0.641426
0.967046
1.2926
1.61753
1.94128
2.2633
2.58301
2.89982
3.21316