/*--------------------------------*- C++ -*----------------------------------*\
  =========                 |
  \\      /  F ield         | OpenFOAM: The Open Source CFD Toolbox
   \\    /   O peration     | Website:  https://openfoam.org
    \\  /    A nd           | Version:  8
     \\/     M anipulation  |
\*---------------------------------------------------------------------------*/
FoamFile
{
    version     2.0;
    format      ascii;
    class       surfaceScalarField;
    location    "215";
    object      phi;
}
// * * * * * * * * * * * * * * * * * * * * * * * * * * * * * * * * * * * * * //

dimensions      [0 3 -1 0 0 0 0];

internalField   nonuniform List<scalar> 
24170
(
3.12889e-06
5.95171e-08
3.04664e-06
8.22516e-08
2.97354e-06
7.30955e-08
2.9049e-06
6.86433e-08
2.84057e-06
6.43282e-08
2.78324e-06
5.7324e-08
2.73392e-06
4.93224e-08
2.69197e-06
4.19495e-08
2.6563e-06
3.56707e-08
2.62586e-06
3.04408e-08
2.59966e-06
2.6192e-08
2.57688e-06
2.27819e-08
2.55684e-06
2.00368e-08
2.53898e-06
1.78628e-08
2.52288e-06
1.61012e-08
2.50764e-06
1.52426e-08
2.49356e-06
1.40762e-08
1.92873e-08
2.47427e-06
3.45314e-06
2.36263e-08
3.45702e-06
7.83727e-08
3.45055e-06
7.95663e-08
3.43909e-06
8.00989e-08
3.42431e-06
7.91076e-08
3.40706e-06
7.45739e-08
3.38784e-06
6.85409e-08
3.36731e-06
6.2475e-08
3.34617e-06
5.68168e-08
3.32499e-06
5.16218e-08
3.30425e-06
4.69231e-08
3.28425e-06
4.27871e-08
3.26517e-06
3.91191e-08
3.24704e-06
3.59891e-08
3.22998e-06
3.31626e-08
3.21386e-06
3.13555e-08
3.19905e-06
2.88859e-08
3.07987e-08
3.18754e-06
3.66826e-06
1.78818e-08
3.67919e-06
6.74466e-08
3.68542e-06
7.3333e-08
3.68946e-06
7.60572e-08
3.69106e-06
7.75095e-08
3.69009e-06
7.55387e-08
3.68696e-06
7.16765e-08
3.68212e-06
6.73148e-08
3.67597e-06
6.29668e-08
3.66883e-06
5.87591e-08
3.66098e-06
5.47683e-08
3.65268e-06
5.10925e-08
3.64409e-06
4.77014e-08
3.6354e-06
4.46877e-08
3.62665e-06
4.19046e-08
3.6182e-06
3.98102e-08
3.60955e-06
3.75285e-08
3.70598e-08
3.60329e-06
3.92587e-06
1.73967e-08
3.93592e-06
5.73996e-08
3.94257e-06
6.66831e-08
3.94811e-06
7.05149e-08
3.95253e-06
7.30945e-08
3.95547e-06
7.25896e-08
3.95714e-06
7.00059e-08
3.95778e-06
6.66801e-08
3.95757e-06
6.31789e-08
3.95665e-06
5.96711e-08
3.95518e-06
5.62457e-08
3.95325e-06
5.30133e-08
3.95098e-06
4.99756e-08
3.94845e-06
4.7212e-08
3.94571e-06
4.46441e-08
3.94301e-06
4.25132e-08
3.94011e-06
4.04275e-08
3.89538e-08
3.93822e-06
4.20819e-06
1.63299e-08
4.21599e-06
4.96074e-08
4.22168e-06
6.09836e-08
4.22679e-06
6.54111e-08
4.23154e-06
6.83459e-08
4.23551e-06
6.86178e-08
4.23868e-06
6.68374e-08
4.24115e-06
6.42027e-08
4.24304e-06
6.12867e-08
4.24444e-06
5.82763e-08
4.24542e-06
5.52682e-08
4.24606e-06
5.23712e-08
4.24642e-06
4.96119e-08
4.24658e-06
4.70509e-08
4.24657e-06
4.46534e-08
4.24655e-06
4.25323e-08
4.24648e-06
4.05003e-08
3.8645e-08
4.24679e-06
4.51069e-06
1.47286e-08
4.51688e-06
4.34108e-08
4.52213e-06
5.57332e-08
4.52695e-06
6.05952e-08
4.53166e-06
6.36331e-08
4.53591e-06
6.43687e-08
4.53958e-06
6.31632e-08
4.54275e-06
6.1041e-08
4.54547e-06
5.85636e-08
4.54781e-06
5.593e-08
4.54984e-06
5.32468e-08
4.55159e-06
5.06154e-08
4.55312e-06
4.80796e-08
4.55449e-06
4.56835e-08
4.55573e-06
4.34163e-08
4.55694e-06
4.13199e-08
4.55814e-06
3.9294e-08
3.72887e-08
4.5595e-06
4.83431e-06
1.31413e-08
4.83963e-06
3.80886e-08
4.84475e-06
5.06072e-08
4.84946e-06
5.5892e-08
4.85409e-06
5.89999e-08
4.85841e-06
6.0051e-08
4.86228e-06
5.92906e-08
4.86575e-06
5.75755e-08
4.86886e-06
5.54479e-08
4.87167e-06
5.3118e-08
4.87422e-06
5.07005e-08
4.87654e-06
4.829e-08
4.87868e-06
4.59397e-08
4.88068e-06
4.36834e-08
4.88258e-06
4.15212e-08
4.88444e-06
3.94604e-08
4.88629e-06
3.74401e-08
3.53889e-08
4.88819e-06
5.18103e-06
1.16909e-08
5.18575e-06
3.33659e-08
5.19076e-06
4.56037e-08
5.19541e-06
5.12401e-08
5.19999e-06
5.44139e-08
5.20435e-06
5.56916e-08
5.20835e-06
5.52942e-08
5.212e-06
5.39247e-08
5.21535e-06
5.20949e-08
5.21844e-06
5.00258e-08
5.22131e-06
4.78371e-08
5.22398e-06
4.56195e-08
5.22649e-06
4.34299e-08
5.22887e-06
4.12979e-08
5.23116e-06
3.92279e-08
5.23341e-06
3.72141e-08
5.23563e-06
3.52157e-08
3.31765e-08
5.23785e-06
5.55268e-06
1.03449e-08
5.55689e-06
2.91614e-08
5.5617e-06
4.07953e-08
5.5663e-06
4.66307e-08
5.57087e-06
4.98493e-08
5.57527e-06
5.12865e-08
5.57938e-06
5.11894e-08
5.58318e-06
5.01243e-08
5.58671e-06
4.85603e-08
5.59001e-06
4.67259e-08
5.5931e-06
4.47439e-08
5.59602e-06
4.27028e-08
5.59879e-06
4.06602e-08
5.60144e-06
3.8645e-08
5.60401e-06
3.66645e-08
5.60651e-06
3.47109e-08
5.60897e-06
3.27563e-08
3.07681e-08
5.61138e-06
5.95103e-06
9.08654e-09
5.95478e-06
2.54114e-08
5.95936e-06
3.62212e-08
5.96391e-06
4.20745e-08
5.96846e-06
4.53022e-08
5.9729e-06
4.68421e-08
5.97711e-06
4.69864e-08
5.98104e-06
4.61888e-08
5.98474e-06
4.48661e-08
5.98821e-06
4.32478e-08
5.9915e-06
4.14587e-08
5.99462e-06
3.95848e-08
5.99759e-06
3.76833e-08
6.00045e-06
3.57844e-08
6.00322e-06
3.3898e-08
6.00591e-06
3.202e-08
6.00853e-06
3.01329e-08
2.82244e-08
6.01108e-06
6.37798e-06
7.91762e-09
6.38134e-06
2.20484e-08
6.38567e-06
3.18921e-08
6.39016e-06
3.75884e-08
6.39468e-06
4.07781e-08
6.39915e-06
4.23705e-08
6.40344e-06
4.26976e-08
6.4075e-06
4.21289e-08
6.41134e-06
4.10243e-08
6.41498e-06
3.96064e-08
6.41844e-06
3.79999e-08
6.42174e-06
3.6288e-08
6.42489e-06
3.45269e-08
6.42793e-06
3.27483e-08
6.43086e-06
3.09657e-08
6.4337e-06
2.91801e-08
6.43645e-06
2.73828e-08
2.55772e-08
6.4391e-06
5.74176e-06
6.99238e-09
5.74434e-06
1.94662e-08
5.74781e-06
2.84224e-08
5.75154e-06
3.38603e-08
5.75534e-06
3.69758e-08
5.75913e-06
3.85788e-08
5.76281e-06
3.9016e-08
5.76633e-06
3.86086e-08
5.76969e-06
3.76703e-08
5.77288e-06
3.64104e-08
5.77593e-06
3.49515e-08
5.77884e-06
3.33741e-08
5.78164e-06
3.17332e-08
5.78432e-06
3.00618e-08
5.78691e-06
2.8376e-08
5.78941e-06
2.66817e-08
5.79182e-06
2.4976e-08
2.3273e-08
5.79412e-06
6.99914e-06
6.00943e-09
7.00187e-06
1.6734e-08
7.00563e-06
2.46579e-08
7.0098e-06
2.96932e-08
7.01412e-06
3.26556e-08
7.01847e-06
3.42249e-08
7.02275e-06
3.47428e-08
7.02687e-06
3.44844e-08
7.03083e-06
3.37138e-08
7.03462e-06
3.26211e-08
7.03824e-06
3.13239e-08
7.04172e-06
2.98986e-08
7.04505e-06
2.83984e-08
7.04826e-06
2.68569e-08
7.05134e-06
2.52932e-08
7.0543e-06
2.37178e-08
7.05715e-06
2.21333e-08
2.05616e-08
7.05986e-06
8.53188e-06
4.97659e-09
8.53473e-06
1.38788e-08
8.53877e-06
2.06261e-08
8.54336e-06
2.50941e-08
8.54822e-06
2.77992e-08
8.55317e-06
2.92714e-08
8.55809e-06
2.9824e-08
8.56289e-06
2.96882e-08
8.56752e-06
2.90776e-08
8.57199e-06
2.81568e-08
8.57628e-06
2.70334e-08
8.5804e-06
2.57789e-08
8.58435e-06
2.44428e-08
8.58815e-06
2.30586e-08
8.5918e-06
2.16478e-08
8.59529e-06
2.02245e-08
8.59863e-06
1.87956e-08
1.73875e-08
8.6018e-06
1.04003e-05
3.90307e-09
1.04033e-05
1.092e-08
1.04075e-05
1.63488e-08
1.04125e-05
2.00718e-08
1.0418e-05
2.23904e-08
1.04235e-05
2.36814e-08
1.04292e-05
2.42059e-08
1.04347e-05
2.41512e-08
1.04401e-05
2.36819e-08
1.04453e-05
2.29309e-08
1.04504e-05
2.19913e-08
1.04552e-05
2.09262e-08
1.04599e-05
1.97801e-08
1.04644e-05
1.85848e-08
1.04686e-05
1.73622e-08
1.04727e-05
1.61285e-08
1.04766e-05
1.48931e-08
1.36838e-08
1.04803e-05
1.26779e-05
2.79377e-09
1.2681e-05
7.85196e-09
1.26855e-05
1.18245e-08
1.26909e-05
1.46207e-08
1.26969e-05
1.64017e-08
1.27032e-05
1.74063e-08
1.27096e-05
1.78248e-08
1.27159e-05
1.77965e-08
1.27222e-05
1.74387e-08
1.27283e-05
1.68491e-08
1.27342e-05
1.61002e-08
1.27398e-05
1.52432e-08
1.27453e-05
1.43149e-08
1.27505e-05
1.33428e-08
1.27556e-05
1.23471e-08
1.27603e-05
1.13435e-08
1.27649e-05
1.03417e-08
9.36842e-09
1.27692e-05
1.54543e-05
1.63794e-09
1.54576e-05
4.6287e-09
1.54624e-05
6.99549e-09
1.54683e-05
8.68096e-09
1.5475e-05
9.75962e-09
1.5482e-05
1.03564e-08
1.54893e-05
1.05808e-08
1.54965e-05
1.05169e-08
1.55037e-05
1.02351e-08
1.55108e-05
9.79499e-09
1.55177e-05
9.2432e-09
1.55243e-05
8.61415e-09
1.55307e-05
7.93375e-09
1.55368e-05
7.2219e-09
1.55426e-05
6.49415e-09
1.55482e-05
5.76321e-09
1.55535e-05
5.03705e-09
4.3385e-09
1.55586e-05
1.88389e-05
3.95502e-10
1.88424e-05
1.12582e-09
1.88477e-05
1.68817e-09
1.88543e-05
2.06168e-09
1.88618e-05
2.26661e-09
1.88698e-05
2.33045e-09
1.88781e-05
2.27521e-09
1.88865e-05
2.12061e-09
1.88949e-05
1.88679e-09
1.89031e-05
1.59202e-09
1.89111e-05
1.25158e-09
1.89188e-05
8.78103e-10
1.89263e-05
4.82441e-10
1.89334e-05
7.3843e-11
1.89402e-05
-3.39719e-10
1.89467e-05
-7.51034e-10
1.89529e-05
-1.15584e-09
-1.53674e-09
1.89588e-05
2.29648e-05
-1.03471e-09
2.29688e-05
-2.94573e-09
2.2975e-05
-4.51703e-09
2.29828e-05
-5.71345e-09
2.29916e-05
-6.55529e-09
2.30011e-05
-7.12906e-09
2.30109e-05
-7.52209e-09
2.30208e-05
-7.78897e-09
2.30307e-05
-7.96647e-09
2.30403e-05
-8.08575e-09
2.30498e-05
-8.17068e-09
2.30589e-05
-8.23565e-09
2.30676e-05
-8.28872e-09
2.3076e-05
-8.33405e-09
2.30841e-05
-8.37384e-09
2.30917e-05
-8.40801e-09
2.3099e-05
-8.43732e-09
-8.45094e-09
2.31059e-05
1.68118e-05
-2.15743e-09
1.6815e-05
-6.11627e-09
1.68198e-05
-9.34772e-09
1.68258e-05
-1.17123e-08
1.68325e-05
-1.32692e-08
1.68397e-05
-1.42464e-08
1.6847e-05
-1.48315e-08
1.68543e-05
-1.51283e-08
1.68616e-05
-1.52157e-08
1.68686e-05
-1.51659e-08
1.68755e-05
-1.50316e-08
1.68821e-05
-1.48456e-08
1.68884e-05
-1.46288e-08
1.68945e-05
-1.43949e-08
1.69003e-05
-1.41527e-08
1.69058e-05
-1.39066e-08
1.6911e-05
-1.36601e-08
-1.34065e-08
1.6916e-05
1.46356e-05
-3.23562e-09
1.46387e-05
-9.2026e-09
1.46434e-05
-1.4063e-08
1.46492e-05
-1.74576e-08
1.46555e-05
-1.95582e-08
1.4662e-05
-2.08147e-08
1.46687e-05
-2.14975e-08
1.46753e-05
-2.17426e-08
1.46818e-05
-2.1681e-08
1.46881e-05
-2.14292e-08
1.46941e-05
-2.10629e-08
1.46999e-05
-2.06267e-08
1.47054e-05
-2.01508e-08
1.47106e-05
-1.96563e-08
1.47157e-05
-1.91566e-08
1.47204e-05
-1.8659e-08
1.47249e-05
-1.81685e-08
-1.76809e-08
1.47292e-05
1.27411e-05
-4.24506e-09
1.27443e-05
-1.23292e-08
1.27491e-05
-1.88948e-08
1.27547e-05
-2.31055e-08
1.27607e-05
-2.55409e-08
1.27669e-05
-2.69756e-08
1.27731e-05
-2.76725e-08
1.27791e-05
-2.77809e-08
1.27849e-05
-2.75082e-08
1.27905e-05
-2.70194e-08
1.27959e-05
-2.64043e-08
1.28009e-05
-2.57144e-08
1.28058e-05
-2.49867e-08
1.28104e-05
-2.42469e-08
1.28147e-05
-2.35103e-08
1.28188e-05
-2.27852e-08
1.28228e-05
-2.20765e-08
-2.13813e-08
1.28265e-05
1.10918e-05
-5.08723e-09
1.1095e-05
-1.55504e-08
1.11001e-05
-2.40226e-08
1.11057e-05
-2.87322e-08
1.11115e-05
-3.12781e-08
1.11173e-05
-3.27909e-08
1.1123e-05
-3.34022e-08
1.11285e-05
-3.32941e-08
1.11338e-05
-3.27691e-08
1.11388e-05
-3.20243e-08
1.11436e-05
-3.11517e-08
1.1148e-05
-3.02078e-08
1.11523e-05
-2.92358e-08
1.11563e-05
-2.82641e-08
1.11601e-05
-2.7308e-08
1.11637e-05
-2.63757e-08
1.11671e-05
-2.5471e-08
-2.45916e-08
1.11703e-05
9.65581e-06
-5.68689e-09
9.65924e-06
-1.89791e-08
9.66459e-06
-2.93706e-08
9.67009e-06
-3.42311e-08
9.67565e-06
-3.68369e-08
9.68121e-06
-3.83503e-08
9.68654e-06
-3.87349e-08
9.69157e-06
-3.83219e-08
9.69631e-06
-3.75137e-08
9.70079e-06
-3.65046e-08
9.70501e-06
-3.53733e-08
9.70898e-06
-3.41795e-08
9.71272e-06
-3.29706e-08
9.71623e-06
-3.17761e-08
9.71953e-06
-3.06111e-08
9.72264e-06
-2.94827e-08
9.72556e-06
-2.8393e-08
-2.73381e-08
9.72831e-06
8.4053e-06
-5.63344e-09
8.40964e-06
-2.33168e-08
8.41487e-06
-3.46089e-08
8.4199e-06
-3.92593e-08
8.42527e-06
-4.22022e-08
8.43067e-06
-4.37574e-08
8.43576e-06
-4.38195e-08
8.44046e-06
-4.3027e-08
8.44483e-06
-4.18819e-08
8.44889e-06
-4.05605e-08
8.45264e-06
-3.91325e-08
8.45613e-06
-3.76601e-08
8.45935e-06
-3.61931e-08
8.46233e-06
-3.4759e-08
8.46509e-06
-3.3373e-08
8.46765e-06
-3.20413e-08
8.47002e-06
-3.07659e-08
-2.95431e-08
8.47223e-06
7.3145e-06
-2.85057e-09
7.32119e-06
-3.00068e-08
7.32675e-06
-4.01633e-08
7.33169e-06
-4.42079e-08
7.33709e-06
-4.75986e-08
7.34241e-06
-4.90771e-08
7.34729e-06
-4.8696e-08
7.3517e-06
-4.74386e-08
7.35567e-06
-4.58588e-08
7.35923e-06
-4.41148e-08
7.36238e-06
-4.22877e-08
7.36517e-06
-4.04499e-08
7.36763e-06
-3.8654e-08
7.3698e-06
-3.69243e-08
7.3717e-06
-3.52756e-08
7.37337e-06
-3.37113e-08
7.37483e-06
-3.22313e-08
-3.08262e-08
7.37612e-06
6.36243e-06
4.78172e-09
6.3719e-06
-3.94702e-08
6.37932e-06
-4.75888e-08
6.38596e-06
-5.08451e-08
6.39224e-06
-5.38798e-08
6.39755e-06
-5.43894e-08
6.40184e-06
-5.29894e-08
6.40532e-06
-5.09181e-08
6.40812e-06
-4.8658e-08
6.41031e-06
-4.62984e-08
6.41194e-06
-4.3919e-08
6.41308e-06
-4.15959e-08
6.41381e-06
-3.93798e-08
6.41417e-06
-3.72894e-08
6.41423e-06
-3.53371e-08
6.41404e-06
-3.35209e-08
6.41365e-06
-3.18409e-08
-3.02763e-08
6.4131e-06
5.54129e-06
8.95278e-09
5.55032e-06
-4.85001e-08
5.55834e-06
-5.56025e-08
5.56604e-06
-5.85516e-08
5.5725e-06
-6.03406e-08
5.57683e-06
-5.87146e-08
5.57907e-06
-5.52301e-08
5.57963e-06
-5.14769e-08
5.57887e-06
-4.79042e-08
5.57709e-06
-4.45123e-08
5.57449e-06
-4.13246e-08
5.57128e-06
-3.83817e-08
5.56759e-06
-3.56914e-08
5.56355e-06
-3.32479e-08
5.55925e-06
-3.10428e-08
5.5548e-06
-2.90651e-08
5.55027e-06
-2.73152e-08
-2.57395e-08
5.54573e-06
4.86019e-06
-2.36302e-08
4.86538e-06
-5.36914e-08
4.86523e-06
-5.54539e-08
4.86217e-06
-5.54889e-08
4.857e-06
-5.51686e-08
4.84949e-06
-5.12121e-08
4.8398e-06
-4.55373e-08
4.82841e-06
-4.00838e-08
4.81583e-06
-3.53264e-08
4.80255e-06
-3.12335e-08
4.78895e-06
-2.77258e-08
4.77531e-06
-2.47434e-08
4.76183e-06
-2.22062e-08
4.74863e-06
-2.00488e-08
4.7358e-06
-1.82153e-08
4.72342e-06
-1.66819e-08
4.71159e-06
-1.54852e-08
-1.51361e-08
4.70098e-06
4.17905e-06
4.12535e-06
4.0699e-06
4.01441e-06
3.95924e-06
3.90803e-06
3.86249e-06
3.82241e-06
3.78708e-06
3.75585e-06
3.72812e-06
3.70338e-06
3.68117e-06
3.66113e-06
3.64291e-06
3.62623e-06
3.61074e-06
3.59561e-06
1.36854e-08
-1.3701e-08
2.69091e-08
-1.32451e-08
3.41584e-08
-7.26883e-09
3.47264e-08
-5.83283e-10
2.92824e-08
5.42766e-09
1.90688e-08
1.02007e-08
5.32809e-09
1.37255e-08
-1.09396e-08
1.62564e-08
-2.9051e-08
1.80978e-08
-4.85373e-08
1.9477e-08
-6.91138e-08
2.05646e-08
-9.06006e-08
2.14789e-08
-1.12899e-07
2.22881e-08
-1.35937e-07
2.30308e-08
-1.59675e-07
2.37284e-08
-1.84078e-07
2.43962e-08
-2.09132e-07
2.50454e-08
-2.34825e-07
2.56868e-08
-2.61162e-07
2.63274e-08
-2.88137e-07
2.69692e-08
-3.15752e-07
2.7606e-08
-3.43987e-07
2.82284e-08
-3.72822e-07
2.88248e-08
-4.02209e-07
2.93805e-08
-4.32082e-07
2.98626e-08
-4.62381e-07
3.02919e-08
-4.93076e-07
3.06848e-08
-5.23917e-07
3.0833e-08
-5.55026e-07
3.10976e-08
-5.86762e-07
3.17269e-08
-6.18855e-07
3.2081e-08
-6.52214e-07
3.33494e-08
-6.9002e-07
3.77928e-08
-7.36289e-07
4.62548e-08
-7.79061e-07
4.27536e-08
-8.13469e-07
3.43897e-08
-8.54439e-07
4.09532e-08
-8.97569e-07
4.3113e-08
-9.36956e-07
3.93717e-08
-9.76059e-07
3.90886e-08
-1.01802e-06
4.19459e-08
-1.06044e-06
4.24058e-08
-1.1031e-06
4.26549e-08
-1.14593e-06
4.28194e-08
-1.18885e-06
4.29109e-08
-1.23179e-06
4.29224e-08
-1.27467e-06
4.28721e-08
-1.31745e-06
4.2776e-08
-1.36011e-06
4.26459e-08
-1.40261e-06
4.24909e-08
-1.44494e-06
4.23156e-08
-1.48707e-06
4.21236e-08
-1.529e-06
4.19158e-08
-1.57071e-06
4.1693e-08
-1.61217e-06
4.14542e-08
-1.65339e-06
4.11987e-08
-1.69433e-06
4.09248e-08
-1.73497e-06
4.06311e-08
-1.7753e-06
4.03156e-08
-1.81529e-06
3.99765e-08
-1.85492e-06
3.96119e-08
-1.89415e-06
3.92202e-08
-1.93296e-06
3.87995e-08
-1.97133e-06
3.8348e-08
-2.0092e-06
3.78642e-08
-2.04656e-06
3.73465e-08
-2.08336e-06
3.67936e-08
-2.11958e-06
3.62042e-08
-2.15516e-06
3.55777e-08
-2.19009e-06
3.49126e-08
-2.2243e-06
3.42086e-08
-2.25778e-06
3.34646e-08
-2.29046e-06
3.26803e-08
-2.32233e-06
3.18546e-08
-2.35332e-06
3.09878e-08
-2.38341e-06
3.00788e-08
-2.41255e-06
2.91287e-08
-2.4407e-06
2.81367e-08
-2.46781e-06
2.7104e-08
-2.49385e-06
2.60291e-08
-2.51877e-06
2.49134e-08
-2.54253e-06
2.37555e-08
-2.56509e-06
2.25564e-08
-2.58641e-06
2.13132e-08
-2.60644e-06
2.00266e-08
-2.62514e-06
1.86938e-08
-2.64245e-06
1.73159e-08
-2.65833e-06
1.589e-08
-2.67273e-06
1.44156e-08
-2.68559e-06
1.28895e-08
-2.69687e-06
1.1301e-08
-2.70649e-06
9.64074e-09
-2.71437e-06
7.89508e-09
-2.7204e-06
6.05052e-09
-2.72448e-06
4.09514e-09
-2.72652e-06
2.04429e-09
-2.72649e-06
-1.92213e-11
-2.72456e-06
-1.91347e-09
-2.72092e-06
-3.64187e-09
-2.71557e-06
-5.3441e-09
-2.70853e-06
-7.05049e-09
-2.69976e-06
-8.77529e-09
-2.68926e-06
-1.05199e-08
-2.677e-06
-1.2286e-08
-2.66296e-06
-1.40691e-08
-2.64712e-06
-1.58703e-08
-2.62946e-06
-1.76838e-08
-2.60997e-06
-1.95118e-08
-2.58864e-06
-2.13486e-08
-2.56545e-06
-2.31965e-08
-2.5404e-06
-2.50492e-08
-2.51349e-06
-2.69087e-08
-2.4847e-06
-2.87681e-08
-2.45406e-06
-3.06285e-08
-2.42154e-06
-3.24826e-08
-2.38718e-06
-3.43309e-08
-2.35097e-06
-3.61669e-08
-2.31294e-06
-3.79904e-08
-2.27309e-06
-3.97946e-08
-2.23146e-06
-4.15774e-08
-2.18807e-06
-4.33325e-08
-2.14295e-06
-4.5056e-08
-2.09614e-06
-4.67433e-08
-2.04768e-06
-4.83909e-08
-1.9976e-06
-4.99989e-08
-1.94595e-06
-5.15671e-08
-1.89276e-06
-5.3095e-08
-1.83812e-06
-5.45585e-08
-1.78208e-06
-5.59552e-08
-1.7247e-06
-5.72912e-08
-1.66605e-06
-5.85707e-08
-1.6062e-06
-5.97734e-08
-1.54524e-06
-6.08993e-08
-1.48326e-06
-6.19356e-08
-1.42034e-06
-6.28882e-08
-1.35658e-06
-6.37447e-08
-1.29209e-06
-6.45117e-08
-1.22696e-06
-6.51779e-08
-1.1613e-06
-6.57499e-08
-1.0952e-06
-6.62151e-08
-1.02878e-06
-6.65719e-08
-9.62118e-07
-6.68132e-08
-8.95336e-07
-6.69373e-08
-8.2855e-07
-6.69448e-08
-7.6187e-07
-6.6839e-08
-6.95409e-07
-6.66224e-08
-6.29271e-07
-6.62979e-08
-5.63562e-07
-6.58693e-08
-4.98379e-07
-6.53407e-08
-4.33821e-07
-6.4716e-08
-3.69977e-07
-6.40004e-08
-3.06938e-07
-6.31957e-08
-2.44781e-07
-6.23104e-08
-1.83603e-07
-6.13325e-08
-1.23465e-07
-6.02894e-08
-6.43921e-08
-5.92223e-08
-6.45234e-09
-5.80839e-08
5.04352e-08
-5.70254e-08
1.06191e-07
-5.58827e-08
1.60539e-07
-5.44654e-08
2.13403e-07
-5.29703e-08
2.64782e-07
-5.14786e-08
3.14705e-07
-5.00103e-08
3.63199e-07
-4.85747e-08
4.10298e-07
-4.71691e-08
4.56032e-07
-4.57978e-08
5.00438e-07
-4.44586e-08
5.4355e-07
-4.31579e-08
5.85406e-07
-4.18919e-08
6.26038e-07
-4.06619e-08
6.65472e-07
-3.94525e-08
7.03713e-07
-3.82524e-08
7.40732e-07
-3.70199e-08
7.76429e-07
-3.5689e-08
8.10564e-07
-3.41133e-08
8.426e-07
-3.2003e-08
8.71311e-07
-2.86634e-08
8.93527e-07
-2.2165e-08
9.01396e-07
-7.81949e-09
3.41725e-08
8.67246e-07
7.84623e-09
-2.15611e-08
8.09795e-09
-1.35127e-08
3.69062e-09
-2.87254e-09
-3.86918e-09
6.96831e-09
-1.41257e-08
1.56762e-08
-2.70108e-08
2.30793e-08
-4.24304e-08
2.91379e-08
-6.01491e-08
3.39692e-08
-7.98495e-08
3.77916e-08
-1.01227e-07
4.08494e-08
-1.24032e-07
4.33627e-08
-1.48063e-07
4.55053e-08
-1.73184e-07
4.7403e-08
-1.993e-07
4.91424e-08
-2.2636e-07
5.07831e-08
-2.54336e-07
5.23673e-08
-2.83222e-07
5.39265e-08
-3.13024e-07
5.54836e-08
-3.43755e-07
5.70528e-08
-3.7543e-07
5.86398e-08
-4.08073e-07
6.02436e-08
-4.41708e-07
6.18583e-08
-4.76363e-07
6.3473e-08
-5.12058e-07
6.50703e-08
-5.48847e-07
6.6645e-08
-5.86784e-07
6.8223e-08
-6.25938e-07
6.98314e-08
-6.6659e-07
7.14787e-08
-7.08777e-07
7.32768e-08
-7.52377e-07
7.53199e-08
-7.97782e-07
7.74766e-08
-8.44511e-07
8.00699e-08
-8.90052e-07
8.33242e-08
-9.29872e-07
8.6064e-08
-9.72616e-07
8.5487e-08
-1.02178e-06
8.3547e-08
-1.06501e-06
8.41669e-08
-1.1061e-06
8.41945e-08
-1.14976e-06
8.30193e-08
-1.19331e-06
8.26352e-08
-1.23442e-06
8.30471e-08
-1.2751e-06
8.30766e-08
-1.31536e-06
8.29059e-08
-1.35519e-06
8.26481e-08
-1.39463e-06
8.23427e-08
-1.43371e-06
8.19957e-08
-1.47245e-06
8.16117e-08
-1.51088e-06
8.11953e-08
-1.54899e-06
8.07506e-08
-1.58679e-06
8.02807e-08
-1.62426e-06
7.97868e-08
-1.66142e-06
7.92696e-08
-1.69824e-06
7.87277e-08
-1.73471e-06
7.81595e-08
-1.77083e-06
7.75621e-08
-1.80657e-06
7.69329e-08
-1.84192e-06
7.62682e-08
-1.87687e-06
7.55651e-08
-1.91138e-06
7.48196e-08
-1.94544e-06
7.40287e-08
-1.97903e-06
7.31888e-08
-2.01211e-06
7.2297e-08
-2.04467e-06
7.13499e-08
-2.07668e-06
7.03449e-08
-2.1081e-06
6.92791e-08
-2.13891e-06
6.81504e-08
-2.16908e-06
6.69562e-08
-2.19858e-06
6.56949e-08
-2.22737e-06
6.43647e-08
-2.25543e-06
6.29643e-08
-2.28272e-06
6.14921e-08
-2.30921e-06
5.99472e-08
-2.33486e-06
5.83286e-08
-2.35964e-06
5.66354e-08
-2.38353e-06
5.48672e-08
-2.40648e-06
5.30235e-08
-2.42846e-06
5.11046e-08
-2.44944e-06
4.91104e-08
-2.46938e-06
4.70409e-08
-2.48826e-06
4.48957e-08
-2.50602e-06
4.26753e-08
-2.52265e-06
4.03792e-08
-2.53811e-06
3.80073e-08
-2.55236e-06
3.55588e-08
-2.56537e-06
3.30339e-08
-2.57711e-06
3.04322e-08
-2.58754e-06
2.77546e-08
-2.59665e-06
2.50004e-08
-2.60439e-06
2.21701e-08
-2.61074e-06
1.9258e-08
-2.61569e-06
1.626e-08
-2.61921e-06
1.31737e-08
-2.62131e-06
1.00049e-08
-2.62202e-06
6.77032e-09
-2.62141e-06
3.49548e-09
-2.61958e-06
2.15897e-10
-2.61655e-06
-3.04471e-09
-2.61215e-06
-6.30785e-09
-2.60618e-06
-9.60755e-09
-2.59858e-06
-1.29462e-08
-2.58931e-06
-1.63262e-08
-2.57835e-06
-1.97494e-08
-2.56567e-06
-2.32161e-08
-2.55125e-06
-2.67234e-08
-2.53507e-06
-3.02677e-08
-2.51712e-06
-3.3845e-08
-2.49737e-06
-3.74511e-08
-2.47581e-06
-4.10829e-08
-2.45243e-06
-4.47359e-08
-2.42723e-06
-4.84072e-08
-2.40019e-06
-5.20914e-08
-2.3713e-06
-5.57849e-08
-2.34058e-06
-5.94811e-08
-2.30802e-06
-6.31753e-08
-2.27363e-06
-6.68598e-08
-2.23741e-06
-7.05292e-08
-2.19938e-06
-7.41755e-08
-2.15955e-06
-7.77927e-08
-2.11794e-06
-8.13717e-08
-2.07458e-06
-8.49048e-08
-2.02949e-06
-8.83818e-08
-1.98271e-06
-9.17947e-08
-1.93428e-06
-9.51341e-08
-1.88424e-06
-9.83937e-08
-1.83262e-06
-1.01568e-07
-1.77948e-06
-1.04657e-07
-1.72487e-06
-1.07654e-07
-1.66884e-06
-1.10529e-07
-1.61148e-06
-1.13268e-07
-1.55284e-06
-1.15882e-07
-1.49299e-06
-1.18372e-07
-1.43201e-06
-1.20711e-07
-1.36999e-06
-1.22887e-07
-1.30701e-06
-1.24888e-07
-1.24317e-06
-1.2671e-07
-1.17857e-06
-1.28343e-07
-1.11331e-06
-1.29784e-07
-1.04749e-06
-1.31027e-07
-9.81224e-07
-1.32067e-07
-9.14615e-07
-1.32895e-07
-8.47765e-07
-1.33499e-07
-7.80784e-07
-1.33876e-07
-7.13784e-07
-1.34017e-07
-6.46882e-07
-1.33929e-07
-5.80191e-07
-1.3361e-07
-5.13824e-07
-1.33071e-07
-4.47888e-07
-1.32313e-07
-3.82488e-07
-1.3135e-07
-3.17723e-07
-1.30183e-07
-2.5369e-07
-1.28827e-07
-1.90478e-07
-1.27287e-07
-1.28176e-07
-1.25574e-07
-6.68564e-08
-1.23703e-07
-6.56495e-09
-1.21697e-07
5.26528e-08
-1.19576e-07
1.10704e-07
-1.1734e-07
1.67533e-07
-1.14976e-07
2.22983e-07
-1.12535e-07
2.76988e-07
-1.09944e-07
3.29651e-07
-1.0718e-07
3.80982e-07
-1.0435e-07
4.30982e-07
-1.01523e-07
4.79661e-07
-9.87302e-08
5.2704e-07
-9.59893e-08
5.73148e-07
-9.33094e-08
6.18019e-07
-9.06957e-08
6.61692e-07
-8.81554e-08
7.0421e-07
-8.56921e-08
7.45613e-07
-8.33095e-08
7.85944e-07
-8.09982e-08
8.25232e-07
-7.87438e-08
8.63494e-07
-7.65086e-08
9.00709e-07
-7.42269e-08
9.368e-07
-7.17605e-08
9.71562e-07
-6.88514e-08
1.00458e-06
-6.49848e-08
1.03494e-06
-5.89886e-08
1.06128e-06
-4.84517e-08
1.08118e-06
-2.76725e-08
2.12764e-08
1.09411e-06
-2.91876e-09
-1.86533e-08
-1.18938e-08
-4.54845e-09
-2.31312e-08
8.35778e-09
-3.58462e-08
1.96782e-08
-4.98703e-08
2.96954e-08
-6.52801e-08
3.84849e-08
-8.22158e-08
4.60692e-08
-1.00763e-07
5.25124e-08
-1.2092e-07
5.79443e-08
-1.42613e-07
6.2539e-08
-1.65735e-07
6.64806e-08
-1.90171e-07
6.99378e-08
-2.15823e-07
7.30507e-08
-2.42612e-07
7.59283e-08
-2.70485e-07
7.8652e-08
-2.99403e-07
8.1282e-08
-3.29342e-07
8.38618e-08
-3.60284e-07
8.6422e-08
-3.92218e-07
8.89822e-08
-4.25133e-07
9.15518e-08
-4.59026e-07
9.41315e-08
-4.93886e-07
9.67143e-08
-5.29704e-07
9.92865e-08
-5.66468e-07
1.0183e-07
-6.04159e-07
1.04331e-07
-6.42722e-07
1.06781e-07
-6.82079e-07
1.09183e-07
-7.22147e-07
1.11542e-07
-7.62743e-07
1.13866e-07
-8.03568e-07
1.1614e-07
-8.44368e-07
1.1827e-07
-8.84525e-07
1.20221e-07
-9.23177e-07
1.2197e-07
-9.6014e-07
1.2302e-07
-9.9757e-07
1.22911e-07
-1.03616e-06
1.22128e-07
-1.07359e-06
1.21594e-07
-1.1104e-06
1.21001e-07
-1.14763e-06
1.20239e-07
-1.18469e-06
1.19692e-07
-1.22097e-06
1.1932e-07
-1.25676e-06
1.18858e-07
-1.29218e-06
1.1833e-07
-1.32731e-06
1.17765e-07
-1.36214e-06
1.17177e-07
-1.39672e-06
1.16568e-07
-1.43105e-06
1.15938e-07
-1.46515e-06
1.15287e-07
-1.49901e-06
1.14611e-07
-1.53264e-06
1.1391e-07
-1.56604e-06
1.13181e-07
-1.5992e-06
1.1242e-07
-1.6321e-06
1.11625e-07
-1.66474e-06
1.10791e-07
-1.69709e-06
1.09914e-07
-1.72916e-06
1.08988e-07
-1.7609e-06
1.0801e-07
-1.79232e-06
1.06973e-07
-1.82338e-06
1.05874e-07
-1.85406e-06
1.04707e-07
-1.88435e-06
1.03467e-07
-1.91421e-06
1.02151e-07
-1.94362e-06
1.00753e-07
-1.97255e-06
9.92708e-08
-2.00097e-06
9.76998e-08
-2.02887e-06
9.60368e-08
-2.05619e-06
9.42789e-08
-2.08293e-06
9.24235e-08
-2.10904e-06
9.04681e-08
-2.13449e-06
8.84107e-08
-2.15925e-06
8.62495e-08
-2.18329e-06
8.39829e-08
-2.20657e-06
8.16097e-08
-2.22907e-06
7.91287e-08
-2.25074e-06
7.65393e-08
-2.27156e-06
7.3841e-08
-2.2915e-06
7.10336e-08
-2.31051e-06
6.81172e-08
-2.32856e-06
6.50916e-08
-2.34563e-06
6.19569e-08
-2.36167e-06
5.87133e-08
-2.37665e-06
5.5361e-08
-2.39055e-06
5.19002e-08
-2.40332e-06
4.83311e-08
-2.41495e-06
4.46546e-08
-2.42539e-06
4.08712e-08
-2.43461e-06
3.69826e-08
-2.4426e-06
3.29904e-08
-2.44932e-06
2.88952e-08
-2.45475e-06
2.46975e-08
-2.45888e-06
2.03962e-08
-2.46169e-06
1.5995e-08
-2.46319e-06
1.15049e-08
-2.46335e-06
6.94188e-09
-2.46218e-06
2.32678e-09
-2.45964e-06
-2.32704e-09
-2.45566e-06
-7.0232e-09
-2.45018e-06
-1.17879e-08
-2.44315e-06
-1.66351e-08
-2.43454e-06
-2.15604e-08
-2.42432e-06
-2.6559e-08
-2.41245e-06
-3.16276e-08
-2.39892e-06
-3.67627e-08
-2.3837e-06
-4.19586e-08
-2.36677e-06
-4.72108e-08
-2.34812e-06
-5.25121e-08
-2.32773e-06
-5.78582e-08
-2.30558e-06
-6.3242e-08
-2.28166e-06
-6.86593e-08
-2.25597e-06
-7.41024e-08
-2.2285e-06
-7.95663e-08
-2.19924e-06
-8.50421e-08
-2.16819e-06
-9.05231e-08
-2.13535e-06
-9.59993e-08
-2.10074e-06
-1.01462e-07
-2.06435e-06
-1.06901e-07
-2.02621e-06
-1.12305e-07
-1.98632e-06
-1.17663e-07
-1.9447e-06
-1.22964e-07
-1.90139e-06
-1.28193e-07
-1.85641e-06
-1.33339e-07
-1.80979e-06
-1.38387e-07
-1.76157e-06
-1.43325e-07
-1.7118e-06
-1.4814e-07
-1.66051e-06
-1.52824e-07
-1.60776e-06
-1.57372e-07
-1.55361e-06
-1.61772e-07
-1.4981e-06
-1.65996e-07
-1.44132e-06
-1.70016e-07
-1.38333e-06
-1.73842e-07
-1.32419e-06
-1.77471e-07
-1.264e-06
-1.80876e-07
-1.20283e-06
-1.84033e-07
-1.14077e-06
-1.86927e-07
-1.07792e-06
-1.89548e-07
-1.01438e-06
-1.91884e-07
-9.50244e-07
-1.93928e-07
-8.8562e-07
-1.95672e-07
-8.20616e-07
-1.97106e-07
-7.55333e-07
-1.98219e-07
-6.89878e-07
-1.99e-07
-6.24357e-07
-1.99438e-07
-5.58884e-07
-1.99531e-07
-4.9357e-07
-1.99279e-07
-4.28527e-07
-1.98689e-07
-3.63862e-07
-1.97769e-07
-2.99682e-07
-1.96527e-07
-2.36086e-07
-1.94976e-07
-1.73171e-07
-1.93129e-07
-1.11027e-07
-1.90999e-07
-4.97358e-08
-1.88607e-07
1.0637e-08
-1.85972e-07
7.00158e-08
-1.83108e-07
1.28323e-07
-1.80027e-07
1.85479e-07
-1.76757e-07
2.41433e-07
-1.73316e-07
2.96161e-07
-1.69727e-07
3.49613e-07
-1.66008e-07
4.01778e-07
-1.62129e-07
4.52682e-07
-1.58104e-07
5.02331e-07
-1.54017e-07
5.50724e-07
-1.49934e-07
5.97873e-07
-1.45896e-07
6.43798e-07
-1.41931e-07
6.8853e-07
-1.38057e-07
7.32107e-07
-1.34287e-07
7.74573e-07
-1.30635e-07
8.15976e-07
-1.27108e-07
8.56364e-07
-1.23709e-07
8.95783e-07
-1.20429e-07
9.34275e-07
-1.17245e-07
9.71862e-07
-1.14105e-07
1.00854e-06
-1.10913e-07
1.04425e-06
-1.07479e-07
1.07885e-06
-1.03453e-07
1.11203e-06
-9.81738e-08
1.14331e-06
-9.02681e-08
1.17206e-06
-7.72011e-08
1.19818e-06
-5.37905e-08
-6.36314e-09
1.22581e-06
-1.13454e-08
-7.31734e-09
-2.62251e-08
1.03228e-08
-4.20636e-08
2.41909e-08
-5.84851e-08
3.60959e-08
-7.54961e-08
4.67027e-08
-9.32296e-08
5.62153e-08
-1.11864e-07
6.47e-08
-1.31559e-07
7.22052e-08
-1.52428e-07
7.88097e-08
-1.74519e-07
8.46272e-08
-1.97834e-07
8.97919e-08
-2.22339e-07
9.44401e-08
-2.47988e-07
9.86966e-08
-2.74729e-07
1.02666e-07
-3.02513e-07
1.06433e-07
-3.31293e-07
1.10059e-07
-3.61023e-07
1.13589e-07
-3.91657e-07
1.17053e-07
-4.23145e-07
1.20467e-07
-4.55434e-07
1.23838e-07
-4.88467e-07
1.2716e-07
-5.22178e-07
1.30422e-07
-5.56495e-07
1.336e-07
-5.91336e-07
1.36667e-07
-6.26603e-07
1.39593e-07
-6.62179e-07
1.42354e-07
-6.97928e-07
1.44927e-07
-7.33687e-07
1.47297e-07
-7.69274e-07
1.49448e-07
-8.04491e-07
1.51352e-07
-8.39191e-07
1.52965e-07
-8.73234e-07
1.54258e-07
-9.06468e-07
1.55199e-07
-9.3911e-07
1.55658e-07
-9.71761e-07
1.55556e-07
-1.00468e-06
1.55038e-07
-1.03746e-06
1.54373e-07
-1.07008e-06
1.53619e-07
-1.10266e-06
1.52816e-07
-1.13505e-06
1.52075e-07
-1.16713e-06
1.51393e-07
-1.19898e-06
1.50701e-07
-1.23063e-06
1.49984e-07
-1.26212e-06
1.49248e-07
-1.29344e-06
1.48494e-07
-1.3246e-06
1.47724e-07
-1.3556e-06
1.46936e-07
-1.38644e-06
1.46126e-07
-1.41713e-06
1.4529e-07
-1.44764e-06
1.44424e-07
-1.47799e-06
1.43523e-07
-1.50815e-06
1.4258e-07
-1.53812e-06
1.41591e-07
-1.56788e-06
1.40549e-07
-1.59742e-06
1.39448e-07
-1.62672e-06
1.38281e-07
-1.65576e-06
1.37042e-07
-1.68451e-06
1.35726e-07
-1.71297e-06
1.34324e-07
-1.7411e-06
1.32832e-07
-1.76888e-06
1.31244e-07
-1.79629e-06
1.29554e-07
-1.8233e-06
1.27756e-07
-1.84988e-06
1.25846e-07
-1.876e-06
1.2382e-07
-1.90164e-06
1.21673e-07
-1.92677e-06
1.19401e-07
-1.95135e-06
1.17001e-07
-1.97536e-06
1.1447e-07
-1.99875e-06
1.11806e-07
-2.02151e-06
1.09005e-07
-2.0436e-06
1.06067e-07
-2.06498e-06
1.0299e-07
-2.08563e-06
9.97719e-08
-2.1055e-06
9.64123e-08
-2.12458e-06
9.29106e-08
-2.14281e-06
8.92666e-08
-2.16018e-06
8.54801e-08
-2.17664e-06
8.15513e-08
-2.19216e-06
7.74805e-08
-2.20672e-06
7.32681e-08
-2.22028e-06
6.89147e-08
-2.2328e-06
6.44211e-08
-2.24426e-06
5.97883e-08
-2.25462e-06
5.50175e-08
-2.26387e-06
5.01106e-08
-2.27195e-06
4.50696e-08
-2.27886e-06
3.9897e-08
-2.28455e-06
3.45957e-08
-2.28902e-06
2.91664e-08
-2.29223e-06
2.36133e-08
-2.29417e-06
1.79407e-08
-2.29482e-06
1.21583e-08
-2.29416e-06
6.2776e-09
-2.29214e-06
3.09921e-10
-2.28873e-06
-5.74134e-09
-2.28387e-06
-1.1883e-08
-2.27753e-06
-1.81289e-08
-2.26968e-06
-2.44847e-08
-2.26031e-06
-3.09465e-08
-2.24936e-06
-3.75088e-08
-2.23684e-06
-4.41654e-08
-2.22271e-06
-5.09107e-08
-2.20694e-06
-5.77369e-08
-2.18953e-06
-6.46377e-08
-2.17046e-06
-7.16042e-08
-2.14969e-06
-7.86303e-08
-2.12724e-06
-8.57072e-08
-2.10307e-06
-9.28286e-08
-2.07719e-06
-9.99845e-08
-2.04959e-06
-1.07168e-07
-2.02027e-06
-1.14367e-07
-1.98921e-06
-1.21572e-07
-1.95643e-06
-1.28771e-07
-1.92193e-06
-1.35951e-07
-1.88572e-06
-1.43099e-07