/*--------------------------------*- C++ -*----------------------------------*\
| =========                 |                                                 |
| \\      /  F ield         | OpenFOAM: The Open Source CFD Toolbox           |
|  \\    /   O peration     | Version:  2312                                  |
|   \\  /    A nd           | Website:  www.openfoam.com                      |
|    \\/     M anipulation  |                                                 |
\*---------------------------------------------------------------------------*/
FoamFile
{
    version     2.0;
    format      ascii;
    arch        "LSB;label=64;scalar=64";
    class       volScalarField;
    location    "30";
    object      p;
}
// * * * * * * * * * * * * * * * * * * * * * * * * * * * * * * * * * * * * * //

dimensions      [0 2 -2 0 0 0 0];

internalField   nonuniform List<scalar> 
404911
(
0.244025
0.243799
0.243855
0.243878
0.244171
0.243913
0.24386
0.243914
0.243896
0.243887
0.247335
0.246205
0.245111
0.244636
0.244201
0.243999
0.248709
0.247725
0.246518
0.245618
0.25048
0.249557
0.248319
0.252566
0.251544
0.250533
0.254533
0.253629
0.252803
0.257079
0.256282
0.255377
0.254394
0.253517
0.257783
0.257073
0.256094
0.260429
0.259562
0.25863
0.257906
0.261587
0.260999
0.260302
0.259519
0.258885
0.262219
0.261572
0.260897
0.260211
0.263696
0.262972
0.262133
0.261565
0.263926
0.263564
0.272303
0.242784
0.243791
0.2435
0.246072
0.245048
0.248763
0.247567
0.246477
0.250529
0.249621
0.248346
0.252604
0.251157
0.254491
0.253699
0.252553
0.256316
0.255461
0.254261
0.253362
0.257852
0.257031
0.259678
0.258397
0.261132
0.260613
0.259444
0.262571
0.261599
0.264183
0.263073
0.26215
0.264592
0.263781
0.271915
0.272539
0.271672
0.275195
0.27418
0.273279
0.277216
0.27621
0.27504
0.279128
0.278365
0.277144
0.279001
0.0957798
0.094677
0.0936544
0.100794
0.0995309
0.0980763
0.0973461
0.0963729
0.0954049
0.0945896
0.0932879
0.103634
0.102701
0.100145
0.0987162
0.0975504
0.0969121
0.0959691
0.0950261
0.0908489
0.107009
0.105941
0.105025
0.10412
0.103315
0.102678
0.101202
0.0995163
0.0981838
0.0974784
0.0965919
0.0954725
0.09385
0.0919664
0.0910098
0.0904005
0.109879
0.108575
0.107367
0.106299
0.105375
0.104516
0.103709
0.102951
0.102032
0.100455
0.099237
0.0982129
0.0972856
0.0960973
0.0910718
0.113585
0.111839
0.11027
0.10882
0.107488
0.1065
0.105644
0.10482
0.103994
0.103164
0.102141
0.100993
0.0999097
0.0989135
0.0982078
0.11576
0.114483
0.112673
0.111034
0.109509
0.107933
0.106775
0.105826
0.105122
0.104358
0.103476
0.10254
0.101474
0.100432
0.0994415
0.0986764
0.119727
0.118162
0.116544
0.115079
0.113225
0.111815
0.110298
0.108488
0.107187
0.10611
0.105499
0.104708
0.103839
0.102902
0.101901
0.100884
0.0999565
0.125352
0.123656
0.122373
0.120623
0.118949
0.117356
0.115887
0.11418
0.11266
0.110955
0.109014
0.107713
0.106702
0.105967
0.105158
0.104245
0.103321
0.10235
0.128063
0.1266
0.124702
0.123128
0.121478
0.119771
0.118294
0.116611
0.115006
0.113339
0.111784
0.109773
0.108044
0.107264
0.106517
0.105628
0.104716
0.10381
0.131788
0.130479
0.12923
0.127783
0.125861
0.124118
0.122415
0.120657
0.119045
0.117369
0.115742
0.114172
0.112591
0.110782
0.108965
0.107749
0.107075
0.106237
0.133959
0.13269
0.131367
0.13019
0.12865
0.126874
0.125188
0.123414
0.121693
0.120051
0.118352
0.116688
0.114935
0.113464
0.112061
0.110154
0.108524
0.137123
0.136029
0.134722
0.133611
0.132381
0.131029
0.129513
0.127881
0.126151
0.124392
0.122639
0.120908
0.119264
0.117624
0.115856
0.1142
0.113039
0.140099
0.138727
0.137745
0.137023
0.135894
0.13466
0.133378
0.132087
0.130635
0.129
0.127203
0.125273
0.123418
0.121666
0.120335
0.118486
0.116551
0.115148
0.144625
0.143355
0.141301
0.139622
0.138298
0.137974
0.136844
0.135577
0.134311
0.133126
0.131972
0.13014
0.128143
0.126147
0.124218
0.122231
0.121079
0.119676
0.147352
0.14645
0.145596
0.144741
0.142829
0.140815
0.139265
0.138718
0.137956
0.136602
0.135148
0.134021
0.133309
0.131374
0.128974
0.126882
0.125223
0.123145
0.149046
0.148007
0.147117
0.146288
0.145635
0.144185
0.142273
0.140655
0.139393
0.138716
0.137156
0.135522
0.134677
0.134084
0.132384
0.129758
0.127351
0.125894
0.151967
0.150849
0.149622
0.148564
0.14771
0.146708
0.145847
0.144966
0.143689
0.142176
0.140445
0.139486
0.138123
0.136375
0.135148
0.134633
0.133285
0.130671
0.153983
0.152537
0.151516
0.150406
0.14915
0.148116
0.147393
0.146144
0.14516
0.144569
0.143812
0.142443
0.140766
0.139228
0.137504
0.135988
0.135129
0.134002
0.158898
0.157502
0.155364
0.15355
0.152313
0.151332
0.150157
0.148954
0.148013
0.146768
0.145437
0.144987
0.144397
0.143658
0.14243
0.140709
0.138735
0.137128
0.160866
0.159959
0.159075
0.157159
0.15523
0.15381
0.152526
0.151411
0.150129
0.148886
0.147467
0.146198
0.145551
0.144861
0.14402
0.142976
0.141537
0.163557
0.162587
0.161591
0.160778
0.160054
0.158533
0.156694
0.155188
0.153895
0.152413
0.151042
0.149845
0.148385
0.147025
0.146326
0.145508
0.144594
0.143562
0.165372
0.164352
0.163365
0.162271
0.161375
0.16073
0.159314
0.157846
0.156515
0.155172
0.153839
0.152336
0.150799
0.149154
0.147962
0.147063
0.146222
0.145262
0.167003
0.166124
0.165196
0.164234
0.162946
0.16172
0.160961
0.159937
0.158666
0.157802
0.156857
0.155315
0.153509
0.151905
0.150273
0.149149
0.14802
0.147081
0.169604
0.16867
0.16777
0.166898
0.166022
0.165268
0.164196
0.162619
0.16129
0.160156
0.158925
0.158264
0.157476
0.156669
0.154878
0.152944
0.151445
0.150077
0.172068
0.171163
0.170293
0.169413
0.168551
0.167696
0.166765
0.165802
0.165082
0.163603
0.162205
0.160869
0.159386
0.15869
0.157874
0.156892
0.155492
0.153988
0.173664
0.172728
0.171828
0.170978
0.170123
0.169336
0.168612
0.167826
0.166462
0.165263
0.164175
0.163079
0.161634
0.160074
0.159254
0.15843
0.157478
0.156246
0.176186
0.175222
0.174298
0.17338
0.172441
0.171608
0.170814
0.170079
0.169459
0.16894
0.167616
0.166314
0.164979
0.163716
0.162655
0.161127
0.15991
0.159107
0.177753
0.176801
0.175865
0.17494
0.173955
0.173026
0.172205
0.171439
0.170717
0.170079
0.169563
0.168602
0.16738
0.166013
0.164488
0.163491
0.162194
0.160954
0.179574
0.178371
0.177315
0.176454
0.175529
0.174466
0.173491
0.172731
0.172012
0.171284
0.170565
0.169823
0.168921
0.167806
0.166564
0.165357
0.164206
0.162992
0.181733
0.180568
0.179015
0.177684
0.177111
0.17625
0.175033
0.173757
0.173148
0.172547
0.171833
0.171068
0.170246
0.169312
0.168274
0.167196
0.166012
0.164991
0.184375
0.183461
0.182688
0.18185
0.180214
0.178768
0.178068
0.177374
0.176053
0.174555
0.173675
0.173131
0.172424
0.17163
0.170767
0.169854
0.168864
0.167745
0.186172
0.185169
0.184153
0.183227
0.182241
0.180999
0.179852
0.179075
0.178628
0.177389
0.175694
0.17453
0.173855
0.173101
0.172254
0.171407
0.170514
0.169543
0.187981
0.186984
0.185934
0.184912
0.183655
0.182351
0.181257
0.18044
0.179704
0.179059
0.178181
0.176902
0.175648
0.174695
0.173813
0.172958
0.172104
0.171288
0.189744
0.188739
0.187749
0.186704
0.185845
0.184562
0.182896
0.181401
0.180844
0.180192
0.179462
0.178609
0.177573
0.176512
0.175501
0.174561
0.173645
0.192715
0.191673
0.19059
0.189541
0.188429
0.187384
0.186669
0.185616
0.183763
0.181918
0.181295
0.180702
0.179984
0.179153
0.178211
0.177233
0.176232
0.175286
0.194519
0.193546
0.192544
0.191492
0.190323
0.189069
0.187812
0.18701
0.186359
0.184836
0.182706
0.181675
0.181249
0.180581
0.179777
0.178913
0.177972
0.177027
0.196148
0.195289
0.1944
0.193469
0.192531
0.191332
0.189965
0.188625
0.187482
0.186888
0.185915
0.184219
0.182521
0.181963
0.181279
0.180493
0.179652
0.178797
0.198578
0.197733
0.196899
0.196086
0.195268
0.19448
0.193807
0.192727
0.191171
0.189641
0.188251
0.18741
0.186882
0.185389
0.183812
0.182906
0.182089
0.181237
0.200138
0.19929
0.198487
0.19768
0.196875
0.196105
0.195391
0.194846
0.193934
0.192272
0.190667
0.189093
0.187734
0.187371
0.186425
0.185083
0.183939
0.182908
0.201781
0.200898
0.20005
0.199235
0.198426
0.197647
0.196886
0.19615
0.195539
0.194983
0.193772
0.191678
0.190149
0.188517
0.187923
0.187096
0.186006
0.184962
0.203313
0.202496
0.201645
0.200799
0.199973
0.199173
0.198416
0.197655
0.196808
0.195953
0.195246
0.194615
0.192811
0.191124
0.189645
0.188745
0.18787
0.186909
0.205036
0.204179
0.203235
0.202371
0.201489
0.200667
0.1999
0.1992
0.198512
0.197612
0.196299
0.195387
0.194791
0.193676
0.192016
0.190823
0.189753
0.207469
0.206582
0.205754
0.20488
0.203943
0.203049
0.202114
0.201286
0.200577
0.199957
0.199423
0.198972
0.197512
0.196223
0.195087
0.194296
0.193077
0.191891
0.208987
0.208142
0.207337
0.206503
0.205663
0.204786
0.203789
0.202618
0.201703
0.201126
0.200612
0.200137
0.199813
0.198775
0.197249
0.195913
0.194981
0.193963
0.210623
0.209735
0.20888
0.208073
0.20723
0.206457
0.205733
0.204935
0.203515
0.202278
0.20163
0.201206
0.200675
0.200099
0.19929
0.198054
0.196865
0.19583
0.212242
0.211323
0.210455
0.209587
0.208744
0.207927
0.207197
0.206583
0.206181
0.205152
0.203444
0.202473
0.201898
0.201271
0.200559
0.1997
0.198743
0.197715
0.213985
0.212981
0.212033
0.211142
0.210243
0.209369
0.208548
0.207815
0.207176
0.206617
0.205838
0.204696
0.203567
0.202727
0.201951
0.201144
0.200289
0.199379
0.215829
0.214724
0.213677
0.212717
0.211777
0.210852
0.20994
0.209086
0.208333
0.207675
0.207022
0.206269
0.205362
0.204403
0.203517
0.202675
0.201827
0.20094
0.217921
0.216724
0.21542
0.214257
0.213273
0.212363
0.21145
0.210456
0.209523
0.208751
0.208149
0.207526
0.206816
0.206
0.205129
0.204276
0.203428
0.202526
0.219732
0.218856
0.217783
0.216221
0.214583
0.213686
0.212891
0.212129
0.211083
0.209862
0.208936
0.20857
0.208085
0.207431
0.206673
0.205858
0.205009
0.2042
0.222362
0.221535
0.220669
0.219896
0.219142
0.217859
0.21585
0.214334
0.213243
0.212799
0.212237
0.211006
0.209916
0.209207
0.208759
0.208126
0.207385
0.206616
0.205778
0.223945
0.223174
0.222365
0.221564
0.220834
0.220324
0.219503
0.21766
0.21599
0.214664
0.21348
0.21311
0.212335
0.211106
0.210228
0.209605
0.208897
0.208147
0.224734
0.223943
0.22315
0.222343
0.221647
0.221089
0.220539
0.219643
0.21753
0.216085
0.214869
0.213793
0.213393
0.212445
0.211351
0.210498
0.209684
0.227148
0.226345
0.225544
0.22473
0.223904
0.223082
0.222336
0.221739
0.22124
0.220409
0.21864
0.217207
0.215968
0.21483
0.214073
0.213246
0.21233
0.211433
0.228772
0.227906
0.227108
0.226315
0.225501
0.224669
0.223775
0.222893
0.222257
0.22186
0.221159
0.219577
0.218194
0.216739
0.215894
0.215002
0.214112
0.213178
0.230074
0.229383
0.22864
0.227852
0.227071
0.226302
0.225527
0.224585
0.223262
0.222496
0.222295
0.221884
0.220566
0.219232
0.217904
0.216866
0.215942
0.215037
0.230683
0.229948
0.229294
0.228554
0.227806
0.227087
0.226449
0.225872
0.22438
0.223271
0.222649
0.222254
0.22132
0.220057
0.218914
0.217851
0.216886
0.23286
0.231456
0.230378
0.229939
0.229263
0.228496
0.227768
0.227208
0.226793
0.225315
0.224034
0.223242
0.222674
0.221838
0.22084
0.219807
0.218798
0.237739
0.236021
0.234276
0.232662
0.231384
0.230771
0.230048
0.229172
0.228263
0.227688
0.227481
0.226156
0.224691
0.224005
0.223303
0.222494
0.221554
0.220588
0.239634
0.23881
0.237276
0.235443
0.233681
0.232493
0.231714
0.230975
0.230054
0.22885
0.228064
0.227879
0.227145
0.225813
0.224855
0.224022
0.223223
0.241209
0.240349
0.239285
0.237832
0.236297
0.2344
0.233091
0.232479
0.2319
0.231218
0.230082
0.229089
0.228331
0.227726
0.226722
0.225719
0.224817
0.243874
0.242893
0.242049
0.24116
0.240048
0.23863
0.237199
0.235627
0.234026
0.233206
0.232386
0.231835
0.231086
0.230142
0.229195
0.228413
0.227501
0.226572
0.245618
0.244631
0.243578
0.242788
0.242028
0.241176
0.240045
0.238665
0.23713
0.235499
0.234602
0.233559
0.23227
0.2314
0.230821
0.230042
0.229225
0.228369
0.247679
0.246309
0.245412
0.244377
0.243608
0.243082
0.242595
0.241746
0.24058
0.238748
0.23737
0.236224
0.234998
0.233635
0.232207
0.231528
0.230861
0.230055
0.249961
0.248918
0.24757
0.246384
0.245516
0.244718
0.244104
0.243714
0.242958
0.242096
0.240496
0.239057
0.237896
0.236586
0.23516
0.233603
0.232629
0.231824
0.252962
0.251946
0.250955
0.249814
0.248698
0.247562
0.246623
0.24569
0.245059
0.244404
0.24367
0.242794
0.241701
0.240458
0.239547
0.238373
0.236931
0.235146
0.233846
0.254619
0.253721
0.252803
0.25192
0.250882
0.24965
0.248551
0.247305
0.246502
0.245683
0.244942
0.244094
0.243336
0.242498
0.241381
0.240216
0.239187
0.237929
0.236572
0.255495
0.254562
0.253489
0.252683
0.251633
0.250534
0.249357
0.248187
0.247215
0.246296
0.245564
0.244718
0.243898
0.243005
0.241973
0.240944
0.239874
0.23885
0.257588
0.256586
0.255555
0.254475
0.253552
0.252524
0.251404
0.250336
0.249125
0.248026
0.247004
0.246074
0.245395
0.244553
0.243635
0.242678
0.241667
0.259529
0.258533
0.257549
0.256498
0.255458
0.254394
0.253355
0.252533
0.251253
0.249955
0.248742
0.247862
0.246957
0.246156
0.245281
0.244368
0.243372
0.261578
0.260339
0.259421
0.258362
0.257361
0.256239
0.255241
0.254244
0.253285
0.252107
0.250807
0.249603
0.248717
0.24784
0.246969
0.24608
0.245136
0.264477
0.263478
0.262466
0.261279
0.260144
0.259065
0.258035
0.257016
0.256166
0.255173
0.254116
0.25307
0.25162
0.250412
0.249587
0.248688
0.247787
0.246938
0.266511
0.265468
0.264383
0.263269
0.26204
0.260897
0.259905
0.258931
0.257752
0.256929
0.255994
0.255092
0.253978
0.2527
0.251461
0.250501
0.249539
0.268515
0.267472
0.266375
0.265206
0.263848
0.262562
0.261512
0.260659
0.259585
0.258533
0.257696
0.256698
0.255771
0.254841
0.253635
0.252499
0.251479
0.27045
0.269419
0.268468
0.26733
0.265836
0.264336
0.263246
0.262042
0.261238
0.26032
0.259447
0.258576
0.257604
0.256525
0.25555
0.254491
0.253437
0.272576
0.271469
0.270339
0.269138
0.268106
0.266538
0.265007
0.263865
0.262838
0.261892
0.261184
0.26028
0.259364
0.25842
0.257378
0.256389
0.255352
0.274446
0.273525
0.272455
0.271337
0.27012
0.268785
0.267357
0.265622
0.264188
0.263645
0.263049
0.262139
0.261155
0.260212
0.259251
0.258238
0.257226
0.276317
0.275288
0.274407
0.273375
0.272341
0.271271
0.269982
0.268336
0.267014
0.265613
0.26469
0.264049
0.263177
0.262067
0.261105
0.260145
0.25913
0.277349
0.276021
0.275281
0.274187
0.273283
0.272081
0.271034
0.269626
0.268016
0.266638
0.265581
0.264807
0.263901
0.262916
0.261983
0.261043
0.280616
0.278875
0.27729
0.276388
0.275128
0.274109
0.273012
0.271672
0.270342
0.269014
0.267657
0.266441
0.26565
0.26473
0.263755
0.284767
0.283889
0.282229
0.280443
0.278677
0.277424
0.276216
0.275332
0.274011
0.272522
0.270968
0.269573
0.268663
0.267541
0.266549
0.265615
0.286798
0.285783
0.28483
0.283486
0.281875
0.280208
0.278415
0.277277
0.27608
0.275073
0.273589
0.271796
0.269912
0.269261
0.268408
0.267456
0.288833
0.287953
0.286975
0.285705
0.284362
0.282959
0.281598
0.280405
0.278841
0.277215
0.276126
0.275085
0.273209
0.271391
0.270116
0.269347
0.291795
0.290777
0.289822
0.288933
0.288298
0.286865
0.285516
0.284235
0.283015
0.281703
0.280199
0.278417
0.276794
0.27603
0.274636
0.273006
0.293646
0.292555
0.291676
0.290843
0.289937
0.289076
0.287773
0.286515
0.285335
0.284346
0.282968
0.281551
0.279815
0.27821
0.276988
0.275986
0.295752
0.29442
0.293277
0.292425
0.291678
0.290787
0.289741
0.28867
0.287497
0.286532
0.285694
0.28487
0.283313
0.281421
0.279671
0.278133
0.298227
0.296688
0.295128
0.293699
0.293025
0.29237
0.291557
0.290433
0.289365
0.288318
0.287558
0.286783
0.286054
0.285022
0.282941
0.281083
0.300877
0.299355
0.297878
0.296455
0.294985
0.293912
0.293173
0.292343
0.29114
0.290053
0.289055
0.288211
0.287542
0.286751
0.285712
0.28436
0.3034
0.302192
0.300707
0.299319
0.297968
0.296785
0.295528
0.294441
0.293458
0.292067
0.290765
0.289755
0.289138
0.288277
0.287384
0.305647
0.304742
0.303511
0.302046
0.300568
0.299212
0.298083
0.296987
0.2958
0.294653
0.293411
0.291811
0.290579
0.289963
0.289191
0.288285
0.307523
0.306593
0.305727
0.30475
0.303314
0.301805
0.300571
0.299311
0.298302
0.297121
0.296009
0.294931
0.293358
0.291877
0.291026
0.290137
0.309101
0.308369
0.307433
0.306532
0.305512
0.304205
0.303
0.301811
0.300619
0.299502
0.298405
0.297377
0.296452
0.29501
0.293428
0.310642
0.309387
0.308487
0.307607
0.306512
0.305194
0.304023
0.302981
0.301914
0.300846
0.299535
0.298493
0.297352
0.296118
0.314892
0.312863
0.311051
0.309891
0.308702
0.307549
0.306261
0.305197
0.304077
0.303099
0.302097
0.300734
0.299539
0.318046
0.317204
0.315944
0.314566
0.312814
0.311306
0.30997
0.308742
0.307499
0.306358
0.305148
0.304002
0.302924
0.301693
0.31996
0.318887
0.317972
0.316905
0.315585
0.314045
0.312653
0.311127
0.309807
0.308538
0.307277
0.306149
0.305018
0.303893
0.322064
0.320997
0.319867
0.318664
0.317836
0.316623
0.315214
0.313746
0.312374
0.311087
0.309592
0.308224
0.307191
0.306116
0.323889
0.323104
0.322138
0.321023
0.319894
0.318755
0.317702
0.316339
0.314817
0.313482
0.312355
0.310804
0.309467
0.308305
0.325514
0.324805
0.32411
0.323301
0.322288
0.321325
0.319992
0.31879
0.317265
0.315678
0.314356
0.313281
0.311987
0.310739
0.326996
0.326169
0.325511
0.325181
0.324479
0.323394
0.322395
0.321461
0.320267
0.318566
0.316471
0.315245
0.314174
0.326222
0.32601
0.324899
0.323507
0.322741
0.321934
0.319995
0.317632
0.316215
0.327262
0.327074
0.326193
0.324749
0.323567
0.32284
0.321477
0.319377
0.3293
0.328267
0.327967
0.327627
0.326376
0.32481
0.323685
0.333
0.331574
0.32995
0.328923
0.328509
0.32748
0.326121
0.333145
0.332035
0.330737
0.329674
0.328675
0.338098
0.336037
0.333863
0.333292
0.332158
0.330993
0.348512
0.347485
0.342101
0.340109
0.334316
0.348718
0.347404
0.346198
0.345093
0.343955
0.337164
0.350423
0.345547
0.344374
0.343277
0.341359
0.35151
0.34847
0.34593
0.0224756
0.0214593
0.02064
0.0294173
0.0280886
0.026688
0.0254473
0.0241152
0.0228327
0.0216903
0.0207801
0.0161392
0.0354087
0.034049
0.0325245
0.0311822
0.0298004
0.0284373
0.0271017
0.0257765
0.0244021
0.0230603
0.0218002
0.0207152
0.0195515
0.0181063
0.0168084
0.0402001
0.0387423
0.0373483
0.0358646
0.0344448
0.032923
0.0314994
0.0301537
0.0288389
0.0275165
0.026156
0.0246011
0.0231285
0.0218645
0.0207253
0.019589
0.0183396
0.0169914
0.0158004
0.0141004
0.0121465
0.0105985
0.0455131
0.0439482
0.0422739
0.0406932
0.0391766
0.0377422
0.0363174
0.034803
0.0332651
0.0317866
0.0304428
0.0291887
0.0279568
0.0266872
0.0251973
0.0233662
0.0217287
0.0207695
0.0196834
0.0184888
0.0172119
0.0158313
0.0142973
0.0509587
0.0494042
0.0480021
0.0462996
0.0445519
0.0426396
0.0409644
0.0395125
0.0381917
0.0367808
0.0352081
0.0335114
0.0319505
0.0306378
0.0294128
0.0283652
0.0273876
0.0259324
0.0235026
0.0217264
0.0208652
0.019833
0.0186419
0.0174173
0.0161762
0.055038
0.0532394
0.0517774
0.050202
0.0487332
0.0469833
0.0453239
0.0431418
0.0412331
0.0396984
0.0386191
0.0373407
0.0357814
0.0336381
0.0318316
0.0307151
0.0296273
0.0286187
0.0277367
0.0262937
0.0238381
0.021948
0.0210688
0.020017
0.0188514
0.0609495
0.0580982
0.0553944
0.0541257
0.0525475
0.050708
0.0493762
0.0484703
0.0466028
0.0442445
0.0418739
0.0398809
0.0390703
0.0380109
0.036898
0.0343535
0.0318146
0.0307458
0.0297665
0.0287274
0.0276723
0.0264939
0.0242819
0.0224797
0.0213955
0.0667119
0.0642639
0.0615984
0.0586481
0.0560914
0.0549182
0.0536882
0.0515253
0.0497343
0.0492146
0.0478124
0.0455386
0.0431324
0.0408051
0.0393933
0.0386709
0.0377797
0.0350846
0.0321404
0.0308784
0.0298996
0.0287687
0.0275955
0.0262137
0.0246061
0.0750947
0.073458
0.0705175
0.0677925
0.0649332
0.0619342
0.0591313
0.057135
0.0555266
0.0544958
0.052336
0.0503798
0.0497673
0.0489212
0.0470735
0.0448676
0.0423239
0.0400507
0.038957
0.0378262
0.035581
0.0326151
0.0312626
0.0301049
0.0288836
0.0276585
0.0801588
0.0787393
0.0773132
0.0760068
0.0740649
0.0714027
0.0687837
0.0654612
0.0625191
0.0603515
0.0584344
0.0561264
0.0543602
0.0525276
0.0511104
0.0502005
0.0492293
0.0479502
0.0462245
0.0438249
0.0413301
0.0395045
0.0374816
0.0351716
0.0333707
0.0317162
0.0304292
0.082165
0.0808782
0.079451
0.0781265
0.0766818
0.0746725
0.0717768
0.0696953
0.0667326
0.0640138
0.0616259
0.0593755
0.0570418
0.0548253
0.0525793
0.0516875
0.0507393
0.0496786
0.0484622
0.0470315
0.0451681
0.0427404
0.0404478
0.0382525
0.0356351
0.0904873
0.0891028
0.0864435
0.0837371
0.0819205
0.0799596
0.0789727
0.0772636
0.075208
0.0729481
0.0706047
0.068015
0.0654404
0.0627528
0.060258
0.0579506
0.0554978
0.053056
0.0522096
0.0513011
0.0502517
0.0491895
0.0480354
0.0465276
0.0441034
0.0928848
0.0910324
0.0899292
0.0882027
0.085858
0.084012
0.0814974
0.0800056
0.078295
0.0761952
0.0738773
0.071886
0.0691608
0.0666399
0.0637329
0.0612406
0.0587447
0.056199
0.0538513
0.052839
0.0518745
0.0509008
0.0499017
0.0488784
0.0978529
0.096994
0.0959586
0.0940649
0.0920466
0.0907852
0.0894179
0.0874082
0.0853714
0.0832546
0.0813893
0.0795449
0.0774865
0.0749299
0.0733921
0.0705418
0.0679295
0.0651524
0.0622919
0.0594613
0.0569166
0.0547595
0.0535961
0.0524798
0.0514566
0.100619
0.0994833
0.0984239
0.0975547
0.0967813
0.0950835
0.0934209
0.0922205
0.0913395
0.0889651
0.0868599
0.0848577
0.0828788
0.0809859
0.0790825
0.0772546
0.0746249
0.0724026
0.0694148
0.0668779
0.0639392
0.0604334
0.0570486
0.0555841
0.0541082
0.10336
0.102294
0.101234
0.100076
0.0989069
0.0978914
0.0969718
0.0958016
0.0946178
0.093644
0.0925337
0.0903092
0.0883874
0.0863409
0.0840916
0.0824367
0.0801761
0.0786869
0.0764691
0.0739344
0.0713899
0.0685892
0.0657529
0.0622367
0.0587515
0.107194
0.106043
0.104978
0.103974
0.10296
0.101963
0.100728
0.0994232
0.098179
0.0972389
0.0963359
0.0953783
0.0946172
0.0935014
0.0912936
0.0895719
0.0877194
0.0854583
0.0842291
0.0820762
0.0795773
0.0778715
0.0755203
0.0730323
0.0704631
0.067604
0.110246
0.109028
0.107758
0.106614
0.105545
0.104513
0.103583
0.102665
0.101646
0.0999906
0.0984522
0.0974998
0.0968354
0.095964
0.0951342
0.0939799
0.0918741
0.0908566
0.0896841
0.0873232
0.0862665
0.0845864
0.08176
0.0794438
0.0773021
0.0749268
0.11382
0.112371
0.11086
0.109532
0.108288
0.107053
0.105942
0.104978
0.104088
0.103279
0.102598
0.101116
0.0992978
0.0981162
0.0974247
0.0965399
0.0954362
0.0938836
0.0920025
0.0909034
0.0898617
0.0883013
0.0871987
0.0860559
0.0835609
0.0812277
0.0790474
0.117214
0.115836
0.114421
0.112965
0.111431
0.109952
0.108602
0.107404
0.106296
0.105349
0.10449
0.103687
0.102933
0.101936
0.100284
0.0990274
0.0981651
0.0973103
0.0961136
0.0944664
0.0917921
0.0908696
0.0899735
0.0888048
0.0877521
0.0868235
0.0854989
0.119583
0.118048
0.116616
0.115168
0.113623
0.111878
0.110296
0.108847
0.107537
0.106465
0.105623
0.10483
0.104009
0.103146
0.10215
0.100956
0.0998255
0.0989208
0.0982906
0.0971327
0.094979
0.0928953
0.0913448
0.090412
0.0893016
0.0882003
0.123567
0.121978
0.120405
0.118868
0.117319
0.11589
0.114443
0.112585
0.110883
0.109292
0.10777
0.106515
0.105792
0.105129
0.104328
0.103444
0.102471
0.101424
0.100398
0.0994638
0.0986898
0.0975887
0.0956032
0.0935386
0.0921397
0.0909905
0.127335
0.125916
0.124395
0.122895
0.121302
0.1197
0.11799
0.1165
0.114958
0.113352
0.111721
0.11008
0.108522
0.106997
0.106069
0.10547
0.104693
0.103811
0.102853
0.101843
0.100862
0.0998602
0.0987725
0.0975698
0.0961751
0.0945233
0.129685
0.128317
0.126915
0.1253
0.123594
0.122185
0.120459
0.118758
0.117219
0.115686
0.114117
0.112494
0.110746
0.109068
0.107585
0.106691
0.105954
0.105138
0.104247
0.103269
0.102217
0.101257
0.100228
0.099154
0.0979823
0.133357
0.132046
0.130718
0.129416
0.128043
0.12648
0.124486
0.122937
0.121364
0.119688
0.118074
0.116536
0.114905
0.113269
0.111582
0.109723
0.108016
0.107252
0.106504
0.105647
0.104743
0.103754
0.102721
0.101705
0.100718
0.0996819
0.136744
0.135483
0.134253
0.132981
0.131675
0.130373
0.129185
0.127672
0.125694
0.123969
0.122283
0.120558
0.118917
0.117369
0.115734
0.114074
0.112511
0.110758
0.108816
0.107761
0.10713
0.106239
0.10524
0.104264
0.103271
0.102256
0.140112
0.138809
0.137512
0.136311
0.135089
0.133905
0.132626
0.131301
0.130014
0.128513
0.126662
0.125072
0.123298
0.121552
0.119867
0.118259
0.1166
0.114857
0.113406
0.11203
0.110129
0.108736
0.107877
0.106881
0.105873
0.104852
0.103881
0.142257
0.140871
0.139541
0.138214
0.137105
0.135957
0.134794
0.133642
0.132269
0.130806
0.129334
0.127697
0.125999
0.124242
0.122466
0.120766
0.119181
0.117464
0.115736
0.114177
0.112879
0.111282
0.109806
0.108648
0.107555
0.106581
0.145656
0.144483
0.143259
0.141794
0.14021
0.138772
0.137755
0.136943
0.135822
0.134624
0.133236
0.131865
0.130483
0.128899
0.127133
0.125132
0.123261
0.121566
0.120339
0.118176
0.116604
0.115081
0.113655
0.11215
0.110611
0.109431
0.147578
0.146503
0.145475
0.144385
0.143104
0.141182
0.139386
0.138329
0.137905
0.136901
0.135559
0.134203
0.132972
0.131996
0.130115
0.128024
0.125982
0.124021
0.122115
0.121123
0.11937
0.117493
0.116029
0.114549
0.113029
0.150508
0.14944
0.148365
0.14727
0.1463
0.145465
0.144677
0.142808
0.140645
0.139278
0.13877
0.138091
0.136645
0.135181
0.133977
0.133139
0.131285
0.128757
0.126688
0.125137
0.123091
0.121661
0.120097
0.118543
0.11698
0.152612
0.151339
0.150205
0.149115
0.147998
0.147054
0.146239
0.145562
0.14407
0.142002
0.140637
0.139555
0.138772
0.137313
0.135614
0.134648
0.133935
0.132206
0.129511
0.127449
0.125821
0.12402
0.122397
0.120791
0.119478
0.156268
0.154819
0.153412
0.152053
0.150873
0.149758
0.148574
0.147632
0.146738
0.145871
0.14497
0.143579
0.142137
0.140701
0.139523
0.138145
0.136228
0.135141
0.13461
0.13268
0.130391
0.128609
0.126812
0.125112
0.123307
0.158722
0.157367
0.155862
0.154203
0.152647
0.151555
0.150485
0.14913
0.148082
0.147293
0.14611
0.145206
0.144465
0.14357
0.142437
0.140956
0.139415
0.137562
0.136043
0.135206
0.133568
0.131311
0.129698
0.127959
0.126175
0.161802
0.160808
0.159736
0.158586
0.157265
0.155286
0.153423
0.152228
0.151382
0.150231
0.148853
0.147868
0.146636
0.145583
0.144972
0.144324
0.143593
0.142526
0.140738
0.138842
0.137186
0.135874
0.134302
0.132407
0.130765
0.163682
0.162698
0.161699
0.160732
0.159802
0.159061
0.157304
0.155283
0.153816
0.152599
0.151426
0.150031
0.148758
0.147277
0.146248
0.145577
0.144867
0.143987
0.142914
0.141488
0.139973
0.138406
0.136897
0.135098
0.166408
0.165453
0.164474
0.163471
0.1625
0.161551
0.160753
0.159951
0.158533
0.156767
0.155353
0.153973
0.152492
0.151074
0.149639
0.148197
0.147035
0.146299
0.14551
0.144561
0.143427
0.142249
0.140942
0.139502
0.138151
0.168079
0.167126
0.166236
0.165315
0.164311
0.163381
0.162269
0.161352
0.160551
0.159269
0.15788
0.156723
0.155526
0.153922
0.152452
0.150694
0.148948
0.147998
0.1471
0.14626
0.145264
0.144131
0.143061
0.141871
0.170599
0.169709
0.168807
0.167872
0.166984
0.166113
0.165148
0.164172
0.162983
0.161823
0.160968
0.159886
0.158692
0.157762
0.156877
0.155429
0.153661
0.151839
0.150166
0.149151
0.14817
0.147122
0.146047
0.145005
0.143898
0.172268
0.171321
0.170433
0.169561
0.168624
0.167737
0.166881
0.16598
0.1651
0.163986
0.162576
0.161384
0.160259
0.159074
0.158267
0.157455
0.156559
0.154959
0.15303
0.151541
0.150273
0.149079
0.148019
0.146923
0.174866
0.173934
0.172976
0.172008
0.171099
0.170269
0.169401
0.168501
0.167649
0.166739
0.165752
0.164821
0.163479
0.162193
0.160878
0.15954
0.158716
0.157863
0.156853
0.15548
0.153934
0.152564
0.151234
0.150091
0.149012
0.176488
0.175533
0.174597
0.173677
0.172724
0.171788
0.170928
0.170076
0.169268
0.16851
0.167652
0.16641
0.165259
0.164111
0.162985
0.16166
0.16021
0.159266
0.158388
0.157403
0.156122
0.154709
0.153466
0.152198
0.178167
0.177194
0.1762
0.175219
0.174317
0.173356
0.172426
0.171571
0.170763
0.170014
0.169341
0.168622
0.167442
0.166169
0.164886
0.163691
0.162581
0.161173
0.160051
0.159095
0.15805
0.156843
0.155622
0.154382
0.180934
0.179955
0.178935
0.177841
0.176823
0.17586
0.174934
0.173961
0.173027
0.172183
0.171401
0.170664
0.169987
0.169327
0.168329
0.16716
0.165893
0.164537
0.163459
0.162122
0.16094
0.159878
0.158755
0.157548
0.156492
0.182742
0.181775
0.180767
0.179627
0.178478
0.177383
0.176484
0.175556
0.174522
0.17354
0.172734
0.171987
0.17124
0.1705
0.169734
0.168815
0.167724
0.166576
0.165329
0.164151
0.16288
0.161748
0.160704
0.159597
0.184682
0.183583
0.182647
0.181654
0.180514
0.1791
0.177928
0.177154
0.176277
0.175158
0.173995
0.173213
0.172546
0.171808
0.17103
0.170204
0.169278
0.168225
0.167154
0.166046
0.164873
0.163685
0.162554
0.161483
0.186442
0.185455
0.184401
0.183436
0.182549
0.181674
0.180243
0.178918
0.178083
0.177296
0.176128
0.174744
0.173803
0.173155
0.172419
0.171619
0.170761
0.169842
0.16881
0.167694
0.166657
0.165559
0.164479
0.189205
0.188231
0.187266
0.186213
0.185175
0.184184
0.183207
0.18221
0.180992
0.179865
0.179043
0.17838
0.177306
0.175849
0.174664
0.173892
0.1731
0.172258
0.171393
0.170466
0.169436
0.168388
0.167368
0.166252
0.191021
0.190007
0.189009
0.188002
0.187002
0.185952
0.184931
0.183755
0.1825
0.181365
0.180473
0.179699
0.17899
0.178073
0.176853
0.175666
0.174719
0.173837
0.172942
0.172077
0.171141
0.170101
0.169115
0.168136
0.192808
0.191825
0.190827
0.189805
0.188764
0.187735
0.186711
0.185769
0.184554
0.183032
0.181705
0.180919
0.180211
0.179455
0.178568
0.177547
0.176478
0.175495
0.174567
0.17365
0.172732
0.171796
0.170781
0.195469
0.194534
0.1936
0.192608
0.191622
0.190607
0.189547
0.188452
0.187405
0.186552
0.185489
0.183887
0.182331
0.18143
0.180745
0.179996
0.17915
0.178213
0.177235
0.176209
0.175237
0.174341
0.173448
0.172448
0.197081
0.196202
0.195336
0.194452
0.1935
0.192537
0.191488
0.190351
0.189144
0.187958
0.187039
0.186264
0.184909
0.183217
0.181972
0.181324
0.180614
0.179796
0.178924
0.177976
0.177006
0.17604
0.175091
0.174201
0.198618
0.197789
0.196969
0.196106
0.195245
0.194348
0.193417
0.192453
0.191316
0.19001
0.188714
0.187554
0.186835
0.185871
0.184378
0.182881
0.18205
0.181309
0.180503
0.179675
0.178699
0.17777
0.176812
0.175892
0.200272
0.199411
0.198539
0.197699
0.196893
0.196049
0.195202
0.194386
0.193603
0.192526
0.191084
0.189661
0.188337
0.187472
0.186736
0.185442
0.183982
0.182991
0.182114
0.181274
0.180411
0.179449
0.178539
0.202675
0.201882
0.201013
0.200139
0.19929
0.19846
0.19765
0.196828
0.196034
0.195295
0.194631
0.193643
0.192145
0.190626
0.189183
0.188009
0.187347
0.186348
0.185078
0.183996
0.182989
0.182092
0.181183
0.18019
0.204402
0.203483
0.202623
0.201749
0.200889
0.200049
0.199221
0.198411
0.197612
0.196832
0.196077
0.195393
0.194603