/*--------------------------------*- C++ -*----------------------------------*\
  =========                 |
  \\      /  F ield         | OpenFOAM: The Open Source CFD Toolbox
   \\    /   O peration     | Website:  https://openfoam.org
    \\  /    A nd           | Version:  8
     \\/     M anipulation  |
\*---------------------------------------------------------------------------*/
FoamFile
{
    version     2.0;
    format      ascii;
    class       volScalarField;
    location    "150";
    object      epsilon;
}
// * * * * * * * * * * * * * * * * * * * * * * * * * * * * * * * * * * * * * //

dimensions      [0 2 -3 0 0 0 0];

internalField   nonuniform List<scalar> 
12225
(
285.53
270.703
257.912
243.817
232.444
223.109
216.771
212.708
212.742
213.973
217.235
220.934
228.133
232.754
241.516
246.235
256.62
254.92
52.4831
91.9125
106.946
114.793
124.802
136.851
152.645
169.986
191.121
211.032
235.335
255.616
281.337
299.558
325.306
340.012
364.845
380.692
20.5239
34.8893
44.6563
50.4943
55.3688
59.6435
64.6299
69.6893
76.2878
83.2484
91.4275
99.4216
108.192
117.134
125.606
135.725
142.726
154.973
16.0038
19.4916
24.0704
27.5761
30.483
32.8861
35.1398
37.3137
39.4867
41.9436
44.3254
47.2397
49.6808
53.098
55.4415
59.345
61.4955
65.9483
15.0388
15.7144
17.3941
19.0847
20.6329
22.0332
23.2397
24.4392
25.4384
26.6038
27.5203
28.7698
29.6349
31.0022
31.8277
33.3025
34.084
35.7452
14.7898
14.826
15.2491
15.8695
16.5645
17.2899
17.9211
18.5872
19.1174
19.7372
20.193
20.8029
21.2109
21.8287
22.2048
22.841
23.1775
23.8956
14.7657
14.6147
14.6409
14.7263
14.9338
15.221
15.4906
15.81
16.0704
16.3837
16.6184
16.9217
17.1323
17.4297
17.6189
17.9196
18.0784
18.4228
14.7686
14.5867
14.4659
14.3804
14.3675
14.3895
14.4394
14.5336
14.6183
14.737
14.831
14.957
15.0483
15.1774
15.2622
15.3957
15.4659
15.6284
14.768
14.5911
14.4348
14.2964
14.185
14.1044
14.0398
14.0067
13.9814
13.9786
13.9809
13.9919
14.0039
14.0303
14.0468
14.0821
14.0982
14.1539
14.7665
14.5941
14.432
14.2821
14.1429
14.0219
13.9115
13.8193
13.737
13.6698
13.6102
13.5633
13.5181
13.4873
13.4517
13.4347
13.4022
13.4019
14.7658
14.5945
14.4321
14.2803
14.1361
14.0032
13.8781
13.7644
13.6581
13.5628
13.4735
13.3951
13.3197
13.256
13.1915
13.1408
13.0839
13.0454
14.7657
14.5943
14.4321
14.2798
14.1353
13.9998
13.8715
13.7518
13.6384
13.5336
13.434
13.3429
13.2556
13.1769
13.1001
13.0327
12.9646
12.9074
14.7657
14.5941
14.432
14.2794
14.1349
13.9989
13.8698
13.7484
13.6331
13.5249
13.4219
13.3256
13.2337
13.1482
13.0662
12.9905
12.9171
12.8502
14.7657
14.5939
14.4318
14.279
14.1346
13.9983
13.8691
13.7472
13.6315
13.5222
13.4184
13.3203
13.227
13.1389
13.0549
12.9758
12.9002
12.8291
14.7657
14.5938
14.4317
14.2787
14.1342
13.9977
13.8686
13.7464
13.6307
13.521
13.417
13.3185
13.2248
13.136
13.0516
12.9714
12.8952
12.8228
14.7657
14.5938
14.4316
14.2785
14.1339
13.9973
13.8681
13.7458
13.63
13.5202
13.4161
13.3174
13.2237
13.1346
13.0501
12.9697
12.8932
12.8205
14.7657
14.5937
14.4315
14.2783
14.1337
13.997
13.8677
13.7453
13.6294
13.5196
13.4154
13.3166
13.2227
13.1337
13.049
12.9685
12.892
12.8192
14.7657
14.5937
14.4314
14.2782
14.1335
13.9968
13.8674
13.745
13.629
13.5191
13.4149
13.316
13.2221
13.1329
13.0482
12.9677
12.891
12.8181
14.7657
14.5937
14.4314
14.2782
14.1335
13.9967
13.8673
13.7449
13.6288
13.5189
13.4146
13.3157
13.2218
13.1326
13.0478
12.9672
12.8905
12.8176
14.7657
14.5937
14.4314
14.2783
14.1336
13.9968
13.8674
13.745
13.629
13.5191
13.4148
13.3159
13.222
13.1328
13.048
12.9675
12.8908
12.8179
14.7657
14.5937
14.4315
14.2784
14.1338
13.997
13.8678
13.7453
13.6295
13.5196
13.4155
13.3167
13.223
13.1339
13.0494
12.9691
12.8928
12.8201
14.7657
14.5937
14.4316
14.2785
14.1341
13.9975
13.8685
13.7464
13.6312
13.5221
13.4191
13.3214
13.2294
13.1419
13.0596
12.9811
12.9075
12.8369
14.7658
14.5937
14.4318
14.2788
14.1353
14.0002
13.8742
13.756
13.6464
13.5435
13.4485
13.3592
13.2771
13.1993
13.1283
13.0602
12.9989
12.9387
14.7661
14.5928
14.4329
14.2844
14.1515
14.0321
13.9289
13.8376
13.7593
13.6894
13.6307
13.5769
13.5328
13.4905
13.4574
13.423
13.3988
13.3693
14.7641
14.5936
14.461
14.3604
14.3029
14.2767
14.2796
14.2939
14.3202
14.3529
14.3958
14.4344
14.4823
14.5215
14.5718
14.6087
14.6614
14.6936
14.757
14.6921
14.7579
14.9172
15.1828
15.4611
15.7475
16.012
16.2722
16.5036
16.7358
16.9383
17.1503
17.3305
17.5304
17.693
17.8882
18.0352
14.9575
15.4344
16.5693
17.6883
18.7052
19.5676
20.337
20.9965
21.619
22.1655
22.7182
23.21
23.7389
24.2031
24.7314
25.1812
25.7233
26.1641
16.2579
20.9389
25.015
27.7586
29.7842
31.3581
32.7761
34.0575
35.3581
36.6147
37.9734
39.2947
40.7585
42.1422
43.7137
45.1689
46.8782
48.3524
29.9428
47.2248
54.8701
58.6728
61.6128
64.4304
67.5771
70.9755
74.7334
78.7078
82.9776
87.3347
91.8938
96.4365
101.085
105.605
110.156
114.556
165.79
160.073
154.899
149.564
144.479
139.678
135.613
132.11
129.269
126.972
125.318
124.043
123.337
122.826
122.823
122.977
123.264
123.821
1.46198
1.17754
1.92267
2.62166
3.32096
4.01893
4.71134
5.38814
6.03504
6.63662
7.17864
7.65098
8.04983
8.34793
8.58966
8.8466
38.3603
40.3044
41.8304
42.6309
42.5406
41.5489
39.0697
8.89
8.53941
39.2523
45.3376
40.5454
45.8079
49.1192
53.0947
57.1552
61.4006
65.825
70.4152
75.1879
80.1294
85.2609
90.5685
96.0747
101.761
107.645
113.707
119.978
126.437
133.116
139.994
147.104
154.424
161.989
169.772
177.811
186.077
194.611
203.381
212.429
221.718
231.294
241.119
251.238
261.608
272.279
283.206
294.44
305.929
317.73
329.785
342.153
354.775
367.712
380.9
394.403
408.152
422.213
436.512
451.118
465.952
481.086
496.44
512.086
527.936
544.062
560.371
576.933
593.641
610.562
627.588
644.775
662.027
679.369
696.743
714.099
731.432
748.762
766.214
783.776
801.275
818.717
836.07
853.28
870.309
887.095
903.579
919.693
935.362
950.522
965.083
978.981
992.115
1004.42
1015.79
1026.16
1035.43
1043.51
1050.24
1055.39
1058.23
1060.35
1059.81
1057.97
1054.84
1049.35
1042.12
1033.07
1022.16
1009.07
994.385
978.097
960.393
941.384
921.266
900.175
878.315
855.839
832.944
809.822
786.766
764.137
743.768
728.072
713.351
698.678
683.99
669.342
654.803
640.436
626.293
612.422
598.86
585.641
572.79
560.326
548.261
536.605
525.363
514.538
504.132
494.142
484.566
475.396
466.626
458.235
450.227
442.595
435.342
428.449
421.904
415.69
409.79
404.19
398.877
393.828
389.019
384.413
379.957
375.554
371.022
365.895
359.748
335.944
4.44109
2.59178
2.52815
2.794
3.20765
3.7104
4.27516
4.88178
5.51467
6.16543
6.83775
7.55691
8.38602
9.45758
11.0397
13.6253
18.1177
20.0186
21.0378
21.5817
21.7086
21.3865
20.5114
18.9128
21.5929
26.217
28.1715
28.786
30.8903
32.8686
34.9332
37.0551
39.251
41.5119
43.8382
46.2348
48.7025
51.2455
53.8638
56.5613
59.3369
62.1934
65.1303
68.1527
71.2601
74.4573
77.7435
81.1236
84.5962
88.1663
91.8322
95.5987
99.4636
103.432
107.502
111.677
115.955
120.341
124.83
129.429
134.133
138.946
143.864
148.892
154.025
159.267
164.613
170.067
175.622
181.284
187.045
192.91
198.87
204.93
211.081
217.327
223.656
230.076
236.573
243.152
249.799
256.516
263.29
270.12
276.989
283.897
290.827
297.776
304.729
311.689
318.638
325.576
332.509
339.467
346.499
353.687
360.899
368.073
375.204
382.274
389.269
396.166
402.947
409.586
416.061
422.345
428.415
434.239
439.789
445.033
449.938
454.471
458.594
462.264
465.42
467.996
469.827
471.209
471.565
471.534
470.8
469.196
466.836
463.712
459.812
455.111
449.708
443.631
436.928
429.654
421.865
413.627
405.004
396.064
386.876
377.512
368.057
358.655
349.632
341.457
333.642
325.959
318.362
310.862
303.48
296.241
289.163
282.261
275.549
269.036
262.73
256.636
250.756
245.09
239.639
234.4
229.371
224.547
219.926
215.503
211.26
207.195
203.315
199.616
196.093
192.738
189.546
186.508
183.616
180.864
178.245
175.753
173.381
171.122
168.968
166.915
164.948
163.083
162.098
159.752
8.17051
4.18306
3.66389
3.71398
3.9884
4.39944
4.90842
5.49245
6.13569
6.82903
7.57266
8.3805
9.2847
10.3373
11.5961
13.0896
14.7295
16.0074
17.0311
17.9039
18.6873
19.4405
20.2609
21.3543
23.0443
24.9009
26.4415
27.8783
29.5034
31.1738
32.8952
34.6694
36.4989
38.3838
40.3246
42.3231
44.384
46.5061
48.6899
50.9367
53.2473
55.6231
58.0652
60.5754
63.1549
65.8054
68.528
71.3244
74.1953
77.1424
80.1663
83.2684
86.4491
89.7098
93.0507
96.473
99.9766
103.562
107.23
110.981
114.813
118.728
122.725
126.803
130.962
135.201
139.52
143.916
148.389
152.938
157.56
162.254
167.017
171.848
176.743
181.7
186.716
191.788
196.913
202.086
207.304
212.562
217.856
223.181
228.532
233.906
239.296
244.699
250.114
255.539
260.975
266.422
271.886
277.375
282.899
288.454
294.001
299.521
305.005
310.445
315.828
321.142
326.372
331.502
336.517
341.398
346.125
350.677
355.029
359.156
363.029
366.618
369.89
372.808
375.331
377.421
378.977
380.068
380.509
380.581
380.05
378.889
377.12
374.743
371.759
368.175
364.027
359.346
354.165
348.529
342.481
336.072
329.35
322.371
315.183
307.845
300.422
293.011
285.759
278.817
272.083
265.478
258.977
252.588
246.326
240.206
234.241
228.443
222.82
217.377
212.12
207.049
202.165
197.467
192.952
188.618
184.461
180.477
176.66
173.006
169.505
166.153
162.947
159.883
156.956
154.16
151.489
148.938
146.501
144.172
141.947
139.82
137.791
135.858
134.02
132.283
130.657
129.187
128.2
127.085
12.0478
5.90462
4.94077
4.82338
5.01273
5.37579
5.85968
6.43754
7.09215
7.81175
8.58942
9.42394
10.3198
11.2854
12.3267
13.4359
14.5752
15.6781
16.7474
17.8064
18.8793
19.992
21.1766
22.4736
23.8971
25.4024
26.8865
28.3867
29.9531
31.5697
33.2356
34.9509
36.7167
38.5337
40.4019
42.321
44.294
46.3237
48.4116
50.5589
52.7667
55.0363
57.3688
59.7657
62.2281
64.7574
67.3549
70.022
72.7596
75.5689
78.4508
81.4062
84.4359
87.5408
90.7215
93.9787
97.3127
100.724
104.212
107.779
111.422
115.142
118.94
122.813
126.761
130.784
134.88
139.048
143.286
147.593
151.966
156.403
160.902
165.461
170.076
174.744
179.462
184.228
189.036
193.884
198.768
203.684
208.628
213.596
218.586
223.592
228.614
233.647
238.691
243.745
248.811
253.886
258.972
264.071
269.182
274.289
279.38
284.443
289.471
294.457
299.391
304.263
309.062
313.774
318.387
322.885
327.249
331.461
335.499
339.339
342.952
346.31
349.381
352.129
354.519
356.513
358.069
359.146
359.662
359.795
359.359
358.352
356.771
354.617
351.892
348.608
344.788
340.46
335.657
330.418
324.786
318.806
312.526
305.995
299.265
292.394
285.445
278.494
271.626
264.915
258.345
251.893
245.554
239.337
233.256
227.323
221.552
215.951
210.527
205.285
200.228
195.355
190.667
186.161
181.834
177.682
173.7
169.884
166.228
162.727
159.373
156.16
153.083
150.138
147.318
144.618
142.032
139.554
137.179
134.903
132.721
130.629
128.626
126.713
124.891
123.171
121.57
120.139
119.039
118.063
15.8145
7.63636
6.23587
5.96097
6.068
6.38535
6.84238
7.40534
8.05398
8.77411
9.55513
10.3895
11.2725
12.2017
13.1751
14.1883
15.2324
16.2979
17.3851
18.5007
19.6526
20.8492
22.1001
23.4154
24.7959
26.2287
27.698
29.2075
30.7645
32.3684
34.0194
35.7199
37.4712
39.2749
41.1323
43.0457
45.0168
47.0459
49.1336
51.2812
53.4897
55.7604
58.0946
60.4937
62.9589
65.4918
68.0936
70.7659
73.5101
76.3276
79.2188
82.1848
85.2266
88.3452
91.5412
94.8155
98.1685
101.601
105.113
108.704
112.375
116.126
119.955
123.863
127.848
131.909
136.046
140.256
144.537
148.889
153.308
157.792
162.339
166.944
171.606
176.321
181.084
185.893
190.744
195.631
200.553
205.504
210.481
215.479
220.496
225.528
230.572
235.625
240.685
245.751
250.821
255.892
260.962
266.029
271.086
276.125
281.138
286.118
291.059
295.955
300.797
305.577
310.285
314.911
319.442
323.866
328.166
332.324
336.32
340.131
343.731
347.091
350.179
352.961
355.403
357.468
359.118
360.316
360.954
361.193
360.876
359.996
358.544
356.515
353.913
350.747
347.036
342.805
338.089
332.923
327.351
321.418
315.173
308.669
301.963
295.11
288.172
281.212
274.295
267.469
260.749
254.138
247.644
241.28
235.06
228.999
223.106
217.392
211.863
206.522
201.372
196.413
191.643
187.06
182.658
178.435
174.384
170.5
166.777
163.209
159.788
156.508
153.363
150.347
147.453
144.676
142.01
139.448
136.987
134.621
132.347
130.161
128.062
126.053
124.137
122.327
120.643
119.133
117.887
116.77
19.3349
9.29238
7.47153
7.04188
7.06496
7.33184
7.75402
8.29028
8.91707
9.61862
10.3832
11.2019
12.0679
12.9766
13.925
14.9108
15.9322
16.9882
18.0802
19.2112
20.3845
21.6036
22.8718
24.1924
25.5657
26.9892
28.4597
29.9776
31.5441
33.1602
34.8268
36.5455
38.3174
40.1442
42.0271
43.9677
45.9673
48.027
50.1478
52.3309
54.5778
56.8897
59.2681
61.7145
64.2302
66.8169
69.476
72.2089
75.0169
77.9015
80.8641
83.9064
87.0295
90.2346
93.5228
96.895
100.352
103.894
107.523
111.237
115.038
118.925
122.898
126.956
131.098
135.323
139.63
144.017
148.483
153.024
157.638
162.323
167.075
171.892
176.768
181.701
186.687
191.72
196.797
201.913
207.064
212.245
217.451
222.679
227.924
233.182
238.449
243.722
248.996
254.27
259.539
264.799
270.045
275.271
280.472
285.645
290.782
295.878
300.928
305.926
310.865
315.738
320.537
325.252
329.873
334.389
338.784
343.042
347.145
351.071
354.793
358.285
361.515
364.449
367.05
369.282
371.107
372.491
373.309
373.697
373.531
372.788
371.456
369.528
367.002
363.886
360.196
355.958
351.201
345.965
340.293
334.234
327.843
321.173
314.284
307.234
300.082
292.886
285.704
278.579
271.539
264.6
257.78
251.095
244.563
238.197
232.01
226.012
220.208
214.604
209.199
203.995
198.988
194.176
189.554
185.117
180.859
176.773
172.853
169.092
165.483
162.019
158.692
155.495
152.423
149.467
146.624
143.885
141.247
138.705
136.255
133.894
131.623
129.443
127.361
125.39
123.551
121.887
120.45
119.095
22.4945
10.8064
8.59305
8.00772
7.95039
8.16216
8.54373
9.04607
9.64241
10.3158
11.0544
11.8492
12.6937
13.5832
14.5147
15.4866
16.4981
17.5498
18.6426
19.7784
20.9592
22.1868
23.4632
24.7897
26.1671
27.5954
29.0745
30.6048
32.187
33.8221
35.5113
37.2558
39.0569
40.9162
42.8349
44.8146
46.8564
48.962
51.1324
53.3694
55.6743
58.0487
60.4942
63.0126
65.6055
68.2747
71.0219
73.8489
76.7573
79.7491
82.8259
85.9896
89.2416
92.5835
96.0167
99.5424
103.162
106.876
110.685
114.59
118.591
122.687
126.88
131.168
135.55
140.026
144.593
149.25
153.995
158.825
163.737
168.728
173.795
178.933
184.139
189.408
194.734
200.114
205.541
211.011
216.518
222.056
227.621
233.207
238.807
244.418
250.034
255.65
261.261
266.862
272.449
278.016
283.557
289.066
294.538
299.969
305.352
310.684
315.959
321.171
326.314
331.383
336.371
341.268
346.068
350.758
355.328
359.761
364.04
368.146
372.053
375.736
379.162
382.298
385.107
387.549
389.585
391.174
392.229
392.774
392.778
392.184
390.973
389.137
386.67
383.577
379.872
375.577
370.723
365.352
359.508
353.245
346.618
339.685
332.507
325.144
317.656
310.103
302.537
295.006
287.542
280.173
272.922
265.811
258.859
252.082
245.494
239.105
232.921
226.947
221.185
215.634
210.291
205.153
200.214
195.47
190.913
186.537
182.333
178.296
174.416
170.685
167.098
163.645
160.319
157.114
154.023
151.041
148.16
145.378
142.691
140.096
137.594
135.187
132.883
130.695
128.644
126.767
125.091
123.456
25.2191
12.1317
9.56328
8.82805
8.69364
8.85077
9.19044
9.65698
10.2207
10.8637
11.574
12.343
13.1645
14.0343
14.9496
15.9087
16.9113
17.9574
19.0479
20.1839
21.3668
22.598
23.8787
25.2102
26.5935
28.0294
29.5187
31.0623
32.6611
34.3166
36.0298
37.8022
39.6353
41.5305
43.4895
45.5137
47.6047
49.7642
51.9937
54.295
56.6699
59.1202
61.6478
64.2547
66.9429
69.7144
72.5715
75.5161
78.5506
81.677
84.8974
88.2141
91.6289
95.1438
98.7605
102.481
106.306
110.237
114.276
118.422
122.677
127.04
131.513
136.093
140.78
145.573
150.471
155.472
160.572
165.769
171.061
176.443
181.911
187.46
193.086
198.784
204.547
210.37
216.246
222.17
228.134
234.132
240.157
246.203
252.262
258.327
264.393
270.452
276.498
282.525
288.527
294.496
300.426
306.311
312.144
317.921
323.635
329.282
334.857
340.354
345.767
351.092
356.322
361.451
366.471
371.373
376.147
380.78
385.257
389.559
393.665
397.547
401.177
404.521
407.54
410.193
412.438
414.231
415.507
416.231
416.398
415.946
414.849
413.093
410.672
407.585
403.845
399.471
394.497
388.963
382.915
376.409
369.502
362.254
354.729
346.99
339.099
331.117
323.099
315.094
307.142
299.278
291.53
283.924
276.482
269.223
262.161
255.308
248.672
242.258
236.066
230.097
224.347
218.814
213.491
208.372
203.449
198.716
194.165
189.787
185.573
181.516
177.607
173.839
170.202
166.691
163.297
160.015
156.839
153.765
150.789
147.91
145.127
142.445
139.871
137.419
135.107
132.968
131.01
129.063
27.4709
13.2436
10.3661
9.49402
9.28696
9.39209
9.69135
10.1233
10.6557
11.2695
11.9525
12.6965
13.4955
14.3457
15.2443
16.1898
17.1816
18.2198
19.3048
20.4376
21.619
22.8503
24.1325
25.4669
26.8547
28.2971
29.7955
31.3513
32.966
34.6411
36.3781
38.1787
40.0447
41.9777
43.9796
46.0521
48.1971
50.4166
52.7125
55.0868
57.5416
60.0792
62.7017
65.4116
68.2112
71.1031
74.0897
77.1737
80.3576
83.6441
87.0357
90.535
94.1445
97.8664
101.703
105.656
109.728
113.92
118.234
122.67
127.23
131.913
136.72
141.65
146.703
151.878
157.171
162.582
168.108
173.745
179.49
185.339
191.286
197.326
203.454
209.664
215.948
222.3
228.712
235.176
241.685
248.231
254.804
261.396
268
274.607
281.207
287.793
294.357
300.891
307.387
313.836
320.231
326.563
332.826
339.014
345.12
351.138
357.062
362.888
368.609
374.22
379.717
385.093
390.343
395.46
400.434
405.256
409.913
414.388
418.663
422.714
426.513
430.027
433.219
436.046
438.464
440.425
441.875
442.76
443.06
442.721
441.709
440.011
437.615
434.519
430.732
426.271
421.167
415.46
409.197
402.432
395.225
387.639
379.74
371.594
363.265
354.816
346.308
337.792
329.315
320.916
312.63
304.485
296.509
288.72
281.138
273.773
266.636
259.731
253.06
246.622
240.416
234.437
228.678
223.134
217.796
212.657
207.708
202.939
198.343
193.911
189.632
185.5
181.505
177.64
173.897
170.27
166.754
163.343
160.035
156.828
153.723
150.723
147.837
145.077
142.461
140.016
137.738
135.451
29.2416
14.135
11.0003
10.0086
9.73526
9.79263
10.0544
10.4543
10.9576
11.5446
12.2025
12.9231
13.7009
14.5318
15.4134
16.3442
17.3237
18.3517
19.429
20.5564
21.735
22.9643
24.2458
25.5813
26.9721
28.4195
29.9244
31.491
33.1207
34.815
36.5759
38.4055
40.3059
42.2792
44.3276
46.4532
48.6582
50.945
53.3159
55.7733
58.3197
60.9579
63.6904
66.52
69.4497
72.4825
75.6213
78.8692
82.2293
85.7047
89.2985
93.0138
96.8534
100.82
104.917
109.146
113.51
118.01
122.648
127.426
132.344
137.404
142.604
147.946
153.427
159.047
164.803
170.693
176.714
182.863
189.134
195.524
202.026
208.634
215.341
222.141
229.025
235.984
243.011
250.095
257.228
264.399
271.598
278.814
286.039
293.26
300.468
307.652
314.803
321.91
328.964
335.955
342.873
349.708
356.452
363.096
369.634
376.058
382.361
388.536
394.579
400.484
406.246
411.86
417.322
422.625
427.764
432.731
437.516
442.107
446.487
450.636
454.529
458.137
461.423
464.346
466.861
468.918
470.464
471.449
471.822
471.544
470.563
468.882
466.483
463.357
459.509
454.952
449.714
443.832
437.352
430.329
422.822
414.895
406.617
398.055
389.278
380.352
371.341
362.3
353.282
344.331
335.487
326.782
318.247
309.904
301.773
293.867
286.198
278.77
271.587
264.648
257.951
251.491
245.261
239.256
233.465
227.882
222.498
217.301
212.284
207.437
202.751
198.216
193.824
189.567
185.437
181.427
177.532
173.747
170.069
166.497
163.031
159.677
156.441
153.336
150.377
147.588
144.955
142.305
30.5459
14.8113
11.4742
10.3825
10.0509
10.0658
10.2936
10.6642
11.1412
11.7036
12.3386
13.0378
13.7959
14.609
15.4738
16.3893
17.3551
18.3715
19.4392
20.5591
21.7329
22.9584
24.2384
25.5745
26.9685
28.422
29.9361
31.5167
33.1638
34.8782
36.6647
38.5264
40.4656
42.4849
44.5867
46.7738
49.0488
51.4144
53.8735
56.4291
59.0841
61.8418
64.7053
67.6779
70.7631
73.9644
77.2854
80.7297
84.3009
88.0026
91.8386
95.8122
99.927
104.186
108.593
113.15
117.86
122.725
127.747
132.928
138.269
143.77
149.431
155.252
161.232
167.368
173.66
180.103
186.695
193.43
200.304
207.31
214.443
221.695
229.058
236.523
244.081
251.723
259.437
267.213
275.04
282.905
290.796
298.702
306.61
314.506
322.38
330.218
338.008
345.739
353.398
360.974
368.453
375.826
383.08
390.207
397.196
404.038
410.725
417.249
423.604
429.783
435.783
441.598
447.225
452.66
457.898
462.935
467.764
472.375
476.759
480.899
484.774
488.358
491.619
494.519
497.014
499.055
500.59
501.567
501.924
501.625
500.6
498.878
496.428
493.239
489.306
484.64
479.263
473.209
466.52
459.249
451.455
443.202
434.558
425.595
416.382
406.989
397.483
387.925
378.371
368.872
359.47
350.204
341.105
332.2
323.511
315.054
306.839
298.875
291.163
283.704
276.496
269.534
262.811
256.32
250.053
244.001
238.154
232.502
227.036
221.746
216.622
211.655
206.836
202.156
197.607
193.183
188.878
184.687
180.608
176.639
172.781
169.04
165.422
161.939
158.605
155.439
152.422
149.388
31.4056
15.2837
11.8012
10.6313
10.2498
10.2293
10.4264
10.7708
11.2244
11.7644
12.3781
13.0574
13.7976
14.5957
15.4466
16.3496
17.3043
18.3108
19.3696
20.4814
21.647
22.8684
24.1475
25.4866
26.8875
28.3525
29.8831
31.4822
33.1525
34.8932
36.7128
38.6146
40.6026
42.6794
44.8483
47.1124
49.4748
51.9391
54.5085
57.1866
59.9771
62.8837
65.9102
69.0607
72.3391
75.7497
79.2964
82.9835
86.8153
90.7958
94.9292
99.2195
103.67
108.286
113.069
118.023
123.15
128.454
133.936
139.597
145.439
151.461
157.665
164.047
170.609
177.346
184.256
191.335
198.579
205.983
213.54
221.243
229.085
237.056
245.149
253.351
261.654
270.044
278.51
287.039
295.617
304.232
312.868
321.511
330.146
338.76
347.336
355.861
364.32
372.7
380.986
389.163
397.217
405.135
412.902
420.507
427.937
435.181
442.228
449.069
455.696
462.103
468.283
474.232
479.947
485.426
490.665
495.663
500.417
504.923
509.174
513.16
516.866
520.271
523.349
526.068
528.386
530.261
531.643
532.485
532.7
532.249
531.085
529.239
526.672
523.366
519.314
514.518
508.995
502.773
495.889
488.391
480.336
471.786
462.81
453.477
443.861
434.033
424.063
414.017
403.955
393.93
383.992
374.182
364.534
355.08
345.842
336.838
328.082
319.581
311.34
303.358
295.634
288.163
280.937
273.951
267.194
260.658
254.333
248.209
242.276
236.523
230.941
225.521
220.252
215.126
210.136
205.274
200.534
195.913
191.407
187.016
182.741
178.586
174.559
170.671
166.934
163.365
159.94
156.505
31.8892
15.5781
11.9992
10.7713
10.3491
10.2999
10.471
10.7921
11.2255
11.7479
12.3455
13.0094
13.7335
14.5132
15.3477
16.2362
17.1784
18.1748
19.2262
20.3341
21.4998
22.7248
24.0113
25.3618
26.7792
28.2671
29.8261
31.4589
33.1685
34.9539
36.8248
38.7869
40.8443
43.0009
45.2614
47.6303
50.1111
52.7079
55.4246
58.2656
61.2353
64.3381
67.5787
70.9617
74.4917
78.1736
82.0119
86.0116
90.1773
94.5135
99.0248
103.715
108.59
113.651
118.903
124.349
129.991
135.832
141.873
148.116
154.56
161.206
168.053
175.1
182.342
189.778
197.404
205.214
213.202
221.363
229.688
238.169
246.797
255.561
264.451
273.455
282.56
291.753
301.019
310.344
319.712
329.108
338.515
347.916
357.296
366.636
375.92
385.132
394.255
403.273
412.17
420.927
429.53
437.96
446.203
454.242
462.063
469.652
476.996
484.084
490.904
497.451
503.715
509.694
515.383
520.781
525.887
530.702
535.227
539.463
543.409
547.061
550.411
553.446
556.148
558.493
560.445
561.968
563.021
563.545
563.46
562.703
561.285
559.209
556.438
552.947
548.726
543.772
538.095
531.71
524.651
516.958
508.683
499.883
490.625
480.977
471.011
460.802
450.422
439.938
429.415
418.912
408.479
398.163
388.002
378.028
368.269
358.743
349.466
340.447
331.691
323.198
314.967
306.993
299.269
291.788
284.541
277.519
270.712
264.109
257.7
251.475
245.425
239.538
233.806
228.22
222.773
217.456
212.266
207.196
202.246
197.413
192.701
188.113
183.657
179.342
175.18
171.187
167.336
163.488
31.898
15.6748
12.0724
10.8146
10.3656
10.2963
10.4497
10.7541
11.1696
11.6727
12.252
12.8995
13.6101
14.3807
15.2088
16.0935
17.0346
18.0327
19.0892
20.206
21.3859
22.6294
23.9387
25.3171
26.7677
28.2933
29.8937
31.5756
33.3439
35.204
37.1616
39.2221
41.3906
43.6722
46.0721
48.5961
51.2495
54.037
56.9639
60.0354
63.2568
66.6335
70.1708
73.8741
77.7486
81.7996
86.0325
90.4522
95.0638
99.872
104.881
110.096
115.52
121.157
127.01
133.081
139.372
145.885
152.621
159.579
166.76
174.16
181.779
189.613
197.657
205.908
214.359
223.004
231.836
240.845
250.023
259.358
268.841
278.46
288.2
298.049
307.992
318.014
328.098
338.229
348.389
358.559
368.722
378.86
388.952
398.982
408.929
418.776
428.504
438.095
447.531
456.792
465.86
474.714
483.337
491.71
499.816
507.638
515.16
522.368
529.25
535.797
542
547.853
553.355
558.502
563.297
567.743
571.845
575.61
579.042
582.147
584.923
587.364
589.466
591.214
592.578
593.532
594.056
594.052
593.449
592.22
590.415
587.988
584.907
581.15
576.705
571.561
565.718
559.185
551.981
544.138
535.698
526.714
517.245
507.356
497.12
486.608
475.893
465.047
454.136
443.222
432.359
421.597
410.977
400.536
390.301
380.296
370.537
361.035
351.794
342.818
334.104
325.647
317.443
309.482
301.757
294.258
286.974
279.897
273.015
266.318
259.797
253.441
247.242
241.19
235.278
229.499
223.848
218.32
212.913
207.628
202.465
197.431
192.53
187.775
183.173
178.742
174.452
170.184
31.7636
15.6634
12.0626
10.793
10.3284
10.2421
10.377
10.6644
11.0662
11.5608
12.1346
12.7794
13.4902
14.2641
15.1001
15.9965
16.9531
17.971
19.052
20.1979
21.4103
22.6895
24.0411
25.4695
26.9792
28.5752
30.2619
32.0445
33.9287
35.9207
38.0266
40.2525
42.6047
45.0894
47.7129
50.482
53.4032
56.483
59.7282
63.1458
66.7421
70.5231
74.4949
78.6634
83.0341
87.6126
92.4042
97.4139
102.646
108.106
113.796
119.721
125.882
132.284
138.926
145.811
152.939
160.308
167.919
175.768
183.854
192.171
200.717
209.485
218.469
227.661
237.054
246.639
256.405
266.343
276.44
286.684
297.063
307.562
318.167
328.862
339.63
350.456
361.321
372.208
383.098
393.97
404.806
415.585
426.288
436.893
447.381
457.732
467.927
477.947
487.77
497.378
506.747
515.856
524.684
533.211
541.417
549.281
556.786
563.915
570.654
576.992
582.92
588.431
593.523
598.194
602.446
606.287
609.728
612.777
615.449
617.76
619.714
621.309
622.56
623.469
623.997
624.138
623.886
623.089
621.766
619.945
617.59
614.675
611.175
607.072
602.346
596.985
590.974
584.316
577.012
569.083
560.556
551.475
541.891
531.863
521.458
510.747
499.802
488.693
477.491
466.259
455.054
443.929
432.929
422.092
411.45
401.028
390.843
380.909
371.232
361.815
352.657
343.754
335.1
326.687
318.508
310.553
302.812
295.275
287.932
280.774
273.791
266.972
260.309
253.794
247.418
241.177
235.063
229.074
223.208
217.465
211.847
206.358
201.007
195.802
190.752
185.874
181.139
176.448
31.3832
15.5572
11.9855
10.711
10.2348
10.1403
10.2723
10.5599
10.9653
11.468
12.0539
12.715
13.4467
14.2462
15.1116
16.04
17.0342
18.0968
19.2306
20.4389
21.7258
23.0951
24.5514
26.1001
27.7469
29.4984
31.3608
33.3409
35.4457
37.6827
40.0593
42.5832
45.2618
48.1027
51.1132
54.3004
57.6726
61.239
65.0089
68.9925
73.1965
77.6268
82.2891
87.1888
92.3311
97.7206
103.361
109.257
115.411
121.825
128.501
135.44
142.642
150.107
157.833
165.818
174.058
182.551
191.291
200.273
209.49
218.935
228.6
238.477
248.554
258.823
269.272
279.89
290.663
301.579
312.624
323.785
335.045
346.391
357.804
369.27
380.771
392.289
403.805
415.302
426.76
438.158
449.476
460.694
471.79
482.743
493.535
504.144
514.55
524.735
534.676
544.353
553.741
562.818
571.559
579.943
587.946
595.548
602.728
609.467
615.75
621.564
626.9
631.751
636.115
639.992
643.382
646.299
648.763
650.782
652.381
653.594
654.422
654.861
654.969
654.771
654.17
653.177
651.81
650.047
647.858
645.234
642.159
638.615
634.587
630.058
625.009
619.414
613.25
606.504
599.164
591.23
582.716
573.647
564.065
554.022
543.576
532.792
521.739
510.49
499.114
487.675
476.234
464.846
453.558
442.411
431.441
420.674
410.132
399.828
389.77
379.963
370.407
361.098
352.032
343.2
334.595
326.209
318.032
310.055
302.268
294.661
287.226
279.953
272.833
265.86
259.024
252.321
245.746
239.296
232.968
226.765
220.687
214.741
208.933
203.274
197.771
192.441
187.257
182.145
30.649
15.3091
11.8203
10.5777
10.1227
10.048
10.2034
10.5176
10.9529
11.4875
12.1083
12.8108
13.5922
14.4512
15.3883
16.4049
17.5029
18.6857
19.9576
21.3235
22.7894
24.3615
26.0466
27.852
29.7857
31.8562
34.0721
36.4423
38.9761
41.6832
44.5731
47.6552
50.939
54.4338
58.149
62.0934
66.2763
70.7074
75.3961
80.353
85.5846
91.0964
96.8917
102.973
109.342
115.999
122.945
130.178
137.697
145.501
153.584
161.944
170.574
179.469
188.621
198.024
207.667
217.544
227.642
237.953
248.465
259.168
270.048
281.094
292.293
303.631
315.095
326.671
338.346
350.105
361.932
373.814
385.736
397.68
409.633
421.577
433.496
445.375
457.194
468.937
480.585
492.119
503.519
514.764
525.835
536.711
547.375
557.806
567.986
577.896
587.514
596.819
605.786
614.39
622.605
630.408
637.775
644.684
651.112
657.038
662.447
667.328
671.67
675.468
678.717
681.425
683.581
685.213
686.366
687.014
687.216
687.04
686.445
685.41
684.055
682.399
680.434
678.157
675.567
672.654
669.419
665.852
661.948
657.698
653.098
648.132
642.78
637.001
630.755
624.018
616.757
608.95
600.593
591.694
582.282
572.394
562.081
551.4
540.414
529.194
517.809
506.324
494.801
483.295
471.857
460.532
449.356
438.36
427.567
416.994
406.649
396.539
386.665
377.025
367.614
358.427
349.455
340.691
332.127
323.754
315.562
307.545
299.691
291.995
284.446
277.039
269.767
262.623
255.606
248.71
241.937
235.286
228.761
222.368
216.113
210.007
204.059
198.285
192.659
187.137
29.8358
14.9846
11.6259
10.4515
10.0501
10.0265
10.2304
10.5937
11.0867
11.6925
12.4014
13.2087
14.1128
15.1147
16.217
17.4238
18.7398
20.1709
21.7241
23.4076
25.2301
27.2011
29.3311
31.631
34.1119
36.7855
39.6637
42.7585
46.0822
49.6466
53.4632
57.5434
61.8978
66.5363
71.4677
76.7004
82.242
88.0994
94.278
100.781
107.622
114.8
122.307
130.135
138.279
146.729
155.478
164.517
173.836
183.424
193.271
203.362
213.688
224.232
234.983
245.927
257.049
268.336
279.773
291.346
303.043
314.847
326.746
338.727
350.774
362.875
375.015
387.183
399.362
411.542
423.709
435.85
447.951
460
471.982
483.886
495.697
507.401
518.984
530.43
541.725
552.851
563.79
574.523
585.033
595.3
605.309
615.042
624.483
633.613
642.412
650.858
658.925
666.587
673.816
680.586
686.876
692.661
697.918
702.624
706.766
710.336
713.324
715.719
717.52
718.748
719.356
719.402
719.006
718.002
716.524
714.661