/*--------------------------------*- C++ -*----------------------------------*\
  =========                 |
  \\      /  F ield         | OpenFOAM: The Open Source CFD Toolbox
   \\    /   O peration     | Website:  https://openfoam.org
    \\  /    A nd           | Version:  8
     \\/     M anipulation  |
\*---------------------------------------------------------------------------*/
FoamFile
{
    version     2.0;
    format      ascii;
    class       volScalarField;
    location    "150";
    object      k;
}
// * * * * * * * * * * * * * * * * * * * * * * * * * * * * * * * * * * * * * //

dimensions      [0 2 -2 0 0 0 0];

internalField   nonuniform List<scalar> 
12225
(
0.362823
0.343989
0.327739
0.309828
0.295377
0.283513
0.275461
0.270297
0.270341
0.27189
0.276074
0.280682
0.289996
0.295628
0.307185
0.312437
0.327424
0.335763
0.440198
0.468689
0.461606
0.448364
0.450353
0.458314
0.474426
0.498771
0.524274
0.552412
0.580723
0.606515
0.634018
0.654325
0.680284
0.693941
0.718967
0.731357
0.39055
0.417863
0.420231
0.41682
0.411634
0.4078
0.408008
0.410039
0.414489
0.421516
0.430691
0.439861
0.451207
0.461379
0.472987
0.484019
0.493907
0.507373
0.377545
0.386979
0.391409
0.391342
0.390222
0.387894
0.385661
0.384082
0.382872
0.382895
0.383385
0.384343
0.386301
0.388532
0.39097
0.394385
0.396712
0.401432
0.374562
0.376088
0.378414
0.378665
0.378263
0.377204
0.375488
0.373737
0.372007
0.370453
0.369253
0.368112
0.367374
0.366822
0.366454
0.366385
0.366415
0.366837
0.373815
0.372708
0.372645
0.372383
0.371761
0.370816
0.369553
0.368082
0.366569
0.364976
0.363523
0.362063
0.360749
0.359531
0.358394
0.357437
0.356453
0.355821
0.373783
0.371742
0.370386
0.369286
0.368234
0.367113
0.365914
0.364586
0.363236
0.361807
0.360418
0.359021
0.357672
0.356379
0.355115
0.353963
0.352791
0.351808
0.37382
0.37156
0.369634
0.367976
0.3665
0.365107
0.363774
0.362428
0.361105
0.359765
0.358447
0.357141
0.355858
0.354617
0.353394
0.352243
0.351092
0.350047
0.373832
0.371553
0.369449
0.367525
0.365776
0.364153
0.362644
0.361198
0.359816
0.358471
0.357167
0.355899
0.354663
0.35347
0.352301
0.351189
0.35009
0.349066
0.373831
0.37156
0.369418
0.367405
0.365529
0.363772
0.362132
0.360584
0.35912
0.357726
0.356392
0.355115
0.353884
0.352705
0.351564
0.350475
0.349413
0.348414
0.373829
0.371561
0.369413
0.367378
0.365458
0.363645
0.361937
0.360323
0.358797
0.357351
0.355977
0.35467
0.353421
0.352231
0.35109
0.350004
0.348954
0.347965
0.373828
0.371559
0.369409
0.367371
0.365439
0.363609
0.361875
0.360233
0.358676
0.3572
0.355798
0.354466
0.353198
0.351992
0.350839
0.349744
0.348692
0.347698
0.373827
0.371557
0.369405
0.367365
0.36543
0.363593
0.361851
0.360196
0.358625
0.357133
0.355714
0.354366
0.353082
0.351862
0.350698
0.349592
0.348533
0.34753
0.373826
0.371555
0.369402
0.36736
0.365422
0.363583
0.361837
0.360177
0.3586
0.3571
0.355673
0.354316
0.353023
0.351793
0.35062
0.349505
0.348439
0.347426
0.373826
0.371553
0.369398
0.367355
0.365416
0.363575
0.361826
0.360164
0.358584
0.357081
0.35565
0.354289
0.352992
0.351757
0.35058
0.349458
0.348388
0.347369
0.373826
0.371552
0.369396
0.367351
0.36541
0.363568
0.361817
0.360153
0.358572
0.357067
0.355634
0.354271
0.352972
0.351734
0.350555
0.34943
0.348358
0.347335
0.373825
0.371551
0.369394
0.367348
0.365406
0.363562
0.36181
0.360145
0.358562
0.357055
0.355622
0.354256
0.352956
0.351717
0.350536
0.34941
0.348335
0.347311
0.373825
0.371551
0.369393
0.367346
0.365403
0.363558
0.361806
0.36014
0.358555
0.357048
0.355613
0.354246
0.352945
0.351704
0.350522
0.349395
0.348319
0.347293
0.373825
0.37155
0.369393
0.367346
0.365402
0.363557
0.361804
0.360137
0.358552
0.357044
0.355609
0.354242
0.352939
0.351698
0.350515
0.349387
0.34831
0.347284
0.373825
0.371551
0.369393
0.367347
0.365404
0.363559
0.361806
0.36014
0.358555
0.357048
0.355612
0.354245
0.352943
0.351702
0.350519
0.349391
0.348314
0.347288
0.373825
0.371551
0.369395
0.367349
0.365407
0.363563
0.361812
0.360146
0.358563
0.357056
0.355622
0.354257
0.352956
0.351717
0.350536
0.349409
0.348335
0.34731
0.373826
0.371553
0.369397
0.367352
0.365412
0.363571
0.361823
0.360162
0.358584
0.357084
0.355657
0.3543
0.353008
0.351777
0.350604
0.349485
0.348419
0.3474
0.373826
0.371554
0.369399
0.36736
0.365429
0.363603
0.361875
0.360241
0.358691
0.357221
0.355824
0.354495
0.353228
0.35202
0.350867
0.349765
0.348713
0.347703
0.373828
0.371551
0.369412
0.367417
0.365556
0.36382
0.36219
0.360652
0.35919
0.357794
0.356457
0.355172
0.353937
0.352747
0.351602
0.350497
0.349438
0.348412
0.373823
0.371554
0.369605
0.367893
0.366339
0.364892
0.363495
0.362123
0.360762
0.359414
0.358082
0.356771
0.35549
0.354239
0.35303
0.351857
0.350736
0.349646
0.373788
0.371991
0.371113
0.370266
0.36936
0.368312
0.367049
0.36563
0.364121
0.362576
0.361031
0.359523
0.358074
0.356683
0.355382
0.354142
0.35301
0.351924
0.374355
0.375572
0.377775
0.377858
0.377288
0.375886
0.373835
0.371641
0.369505
0.367482
0.365664
0.364083
0.36271
0.361534
0.360608
0.359816
0.359287
0.358798
0.379125
0.394296
0.398249
0.396574
0.392539
0.387603
0.383645
0.380448
0.378267
0.376851
0.376493
0.376736
0.37741
0.378683
0.380432
0.382412
0.384815
0.387124
0.408394
0.42754
0.422415
0.411055
0.402225
0.39792
0.398621
0.400956
0.406059
0.41304
0.420981
0.429805
0.438808
0.448158
0.45727
0.46651
0.475277
0.484133
0.36605
0.353416
0.341988
0.33021
0.318982
0.308381
0.299411
0.29167
0.285403
0.280332
0.27668
0.273863
0.272307
0.271168
0.271202
0.271462
0.272177
0.273376
0.00500536
0.0185329
0.0303023
0.0413349
0.0523417
0.063313
0.0741886
0.0848213
0.0949921
0.104457
0.112951
0.12019
0.125812
0.129296
0.129894
0.126275
0.115853
0.116473
0.120083
0.123311
0.127581
0.133385
0.141869
0.155239
0.150522
0.138906
0.146917
0.14614
0.157677
0.164784
0.17364
0.182234
0.191112
0.200119
0.209262
0.218558
0.227973
0.237548
0.247244
0.257103
0.26708
0.277203
0.287435
0.297825
0.308333
0.319007
0.329806
0.340781
0.351886
0.363174
0.374596
0.386206
0.397952
0.40989
0.421965
0.434234
0.446639
0.459237
0.471968
0.484892
0.497942
0.511182
0.524543
0.538091
0.551751
0.565592
0.579536
0.593654
0.607865
0.622243
0.636705
0.651325
0.666018
0.68086
0.69576
0.710797
0.725877
0.741082
0.75632
0.771671
0.787038
0.8025
0.817959
0.833493
0.84899
0.864528
0.879998
0.895467
0.910842
0.926157
0.941363
0.956413
0.971296
0.986003
1.0006
1.0152
1.02968
1.04397
1.05809
1.07199
1.08564
1.09902
1.11207
1.12475
1.13701
1.14882
1.16011
1.17084
1.18094
1.19038
1.19908
1.207
1.21408
1.22028
1.22549
1.22962
1.23248
1.23357
1.23407
1.23259
1.23013
1.22635
1.22097
1.21418
1.20598
1.19613
1.18473
1.17195
1.1579
1.14262
1.12627
1.10889
1.09067
1.07167
1.05208
1.03198
1.01159
0.991085
0.97112
0.955019
0.941167
0.927438
0.913595
0.899657
0.885695
0.871769
0.857938
0.84425
0.830749
0.817466
0.804435
0.791677
0.779214
0.76706
0.75523
0.74373
0.732571
0.721752
0.711284
0.701154
0.691366
0.681916
0.672833
0.664109
0.655741
0.647713
0.64002
0.632649
0.625594
0.618838
0.61237
0.606168
0.600208
0.594451
0.588837
0.583274
0.577549
0.57123
0.564111
0.5374
0.0152761
0.0410217
0.0575567
0.0705991
0.082441
0.0939417
0.10534
0.116615
0.127621
0.138156
0.148007
0.156967
0.164841
0.171475
0.176786
0.180892
0.184593
0.19077
0.198474
0.207093
0.216936
0.228492
0.241857
0.256102
0.269397
0.279336
0.287737
0.305549
0.322412
0.336928
0.351593
0.366615
0.381994
0.39768
0.413646
0.429885
0.446387
0.463168
0.48023
0.497596
0.515282
0.533223
0.551417
0.569879
0.588607
0.607621
0.626916
0.646511
0.666402
0.686607
0.707119
0.727955
0.749106
0.77059
0.792397
0.814541
0.83701
0.859818
0.882953
0.906425
0.930219
0.954347
0.978792
1.00357
1.02865
1.05405
1.07974
1.10574
1.13203
1.15861
1.18547
1.21261
1.24
1.26767
1.29557
1.32373
1.35212
1.38074
1.40958
1.43864
1.46791
1.49738
1.52705
1.55691
1.58694
1.61713
1.64747
1.67795
1.70855
1.73927
1.77007
1.80091
1.83174
1.86247
1.89304
1.92337
1.95362
1.98386
2.01405
2.04415
2.07413
2.10394
2.1335
2.16275
2.19161
2.21999
2.24781
2.27495
2.30131
2.32675
2.35115
2.37437
2.39626
2.41669
2.43553
2.45252
2.46737
2.47984
2.48933
2.49655
2.49981
2.50168
2.50004
2.49527
2.48739
2.47642
2.46238
2.4454
2.42558
2.40307
2.37807
2.35075
2.32134
2.29007
2.25718
2.22292
2.18755
2.15139
2.1148
2.07815
2.04141
2.0045
1.96759
1.93085
1.89448
1.8586
1.82332
1.78875
1.75496
1.722
1.68993
1.65877
1.62855
1.59929
1.57099
1.54366
1.51729
1.49187
1.46739
1.4438
1.42109
1.39927
1.37833
1.35825
1.33899
1.32051
1.30279
1.28578
1.26946
1.25378
1.2387
1.22418
1.21018
1.19665
1.18352
1.17071
1.158
1.14527
1.13015
1.09218
0.0281277
0.0633894
0.0836147
0.0991282
0.112898
0.125968
0.138766
0.151437
0.163978
0.176316
0.188363
0.200051
0.21136
0.222334
0.233089
0.243837
0.254937
0.266872
0.279631
0.293225
0.307825
0.323538
0.340139
0.357251
0.374344
0.391072
0.408319
0.427421
0.446639
0.465758
0.485071
0.504701
0.524675
0.544988
0.565628
0.586591
0.607871
0.629472
0.651394
0.673641
0.696213
0.719109
0.742333
0.765895
0.789801
0.814063
0.838686
0.863682
0.889055
0.914815
0.940966
0.967516
0.994465
1.02182
1.04958
1.07775
1.10633
1.13532
1.16471
1.1945
1.2247
1.25528
1.28626
1.31761
1.34934
1.38143
1.41387
1.44666
1.47978
1.51322
1.54696
1.58101
1.61533
1.64992
1.68477
1.71986
1.75517
1.79069
1.82641
1.86232
1.89839
1.93463
1.97101
2.00752
2.04415
2.08088
2.1177
2.15459
2.19155
2.22858
2.26566
2.30278
2.33991
2.37704
2.41416
2.45125
2.4883
2.52532
2.56226
2.59908
2.63575
2.6722
2.70837
2.74418
2.77955
2.81437
2.84854
2.88192
2.91439
2.94577
2.97591
3.0046
3.03165
3.05685
3.07996
3.10072
3.11891
3.13424
3.14643
3.15537
3.15987
3.16207
3.16028
3.15464
3.14515
3.13184
3.11476
3.09403
3.06978
3.04221
3.01152
2.97798
2.94182
2.90335
2.86284
2.82059
2.77694
2.73227
2.68702
2.64147
2.59568
2.54972
2.50379
2.45807
2.41277
2.36806
2.32407
2.28092
2.23872
2.19753
2.15741
2.11841
2.08055
2.04386
2.00834
1.97399
1.94082
1.90879
1.87791
1.84813
1.81943
1.79179
1.76519
1.73959
1.71495
1.69124
1.66841
1.64643
1.62524
1.60483
1.58513
1.56611
1.54774
1.52997
1.51276
1.49607
1.47979
1.46394
1.44752
1.41546
0.0414595
0.0843876
0.108371
0.126371
0.142015
0.156627
0.17081
0.184846
0.198852
0.212861
0.226874
0.240894
0.254949
0.269094
0.283407
0.297995
0.312981
0.32848
0.344551
0.361272
0.378739
0.397002
0.415996
0.435589
0.455635
0.476059
0.496984
0.518556
0.540528
0.562802
0.585394
0.60833
0.63162
0.655269
0.679273
0.703632
0.728345
0.753416
0.778845
0.804639
0.8308
0.857336
0.884252
0.911559
0.939264
0.96738
0.995912
1.02487
1.05427
1.08411
1.1144
1.14515
1.17636
1.20804
1.24018
1.27279
1.30587
1.33942
1.37344
1.40792
1.44285
1.47823
1.51405
1.5503
1.58698
1.62406
1.66154
1.6994
1.73762
1.7762
1.81511
1.85433
1.89385
1.93365
1.9737
2.01399
2.05449
2.09519
2.13607
2.1771
2.21826
2.25955
2.30094
2.3424
2.38394
2.42552
2.46714
2.50879
2.55045
2.59212
2.6338
2.67546
2.7171
2.75871
2.80027
2.84176
2.88316
2.92446
2.96562
3.0066
3.04737
3.08786
3.12802
3.16777
3.20703
3.24569
3.28364
3.32076
3.35689
3.39187
3.4255
3.45758
3.48788
3.51616
3.54216
3.5656
3.58623
3.60377
3.61797
3.62855
3.63444
3.63728
3.63591
3.63025
3.62025
3.60595
3.58739
3.56468
3.53798
3.50748
3.47343
3.43608
3.39572
3.35266
3.30725
3.25984
3.21082
3.1606
3.10958
3.05805
3.00616
2.95409
2.90204
2.85021
2.79882
2.74806
2.69808
2.64901
2.60098
2.55405
2.50831
2.46379
2.42054
2.37857
2.33789
2.29851
2.26042
2.2236
2.18803
2.15369
2.12054
2.08855
2.05768
2.02791
1.99918
1.97145
1.94469
1.91884
1.89387
1.86974
1.8464
1.82383
1.80199
1.78086
1.76043
1.74071
1.72167
1.70337
1.68502
1.6567
0.0544097
0.104015
0.131582
0.152038
0.169551
0.185679
0.20118
0.216451
0.231704
0.247052
0.262556
0.278259
0.2942
0.310429
0.326999
0.343966
0.361382
0.379297
0.397757
0.416818
0.436538
0.45695
0.478038
0.49976
0.522059
0.544891
0.568238
0.592089
0.61639
0.641102
0.66621
0.691709
0.717597
0.743874
0.77054
0.797596
0.825044
0.852889
0.881135
0.909787
0.938853
0.968339
0.998255
1.02861
1.05942
1.09068
1.12242
1.15463
1.18734
1.22054
1.25425
1.28848
1.32322
1.35849
1.39429
1.43062
1.46747
1.50486
1.54277
1.5812
1.62014
1.65959
1.69954
1.73997
1.78087
1.82223
1.86404
1.90626
1.94889
1.9919
2.03528
2.07899
2.12302
2.16733
2.21191
2.25673
2.30175
2.34695
2.39231
2.4378
2.48339
2.52906
2.57479
2.62054
2.66631
2.71207
2.75781
2.8035
2.84913
2.89471
2.94021
2.98562
3.03093
3.07612
3.12117
3.16607
3.2108
3.25534
3.29966
3.34373
3.38751
3.43096
3.47402
3.51663
3.5587
3.60015
3.64088
3.68074
3.71961
3.75731
3.79365
3.82841
3.86137
3.89226
3.92081
3.94672
3.96972
3.98951
4.00582
4.01836
4.02629
4.03027
4.03007
4.02523
4.01571
4.00149
3.98262
3.95919
3.93135
3.8993
3.86329
3.82358
3.78049
3.73437
3.68559
3.63456
3.58168
3.52736
3.472
3.41591
3.35934
3.30249
3.24559
3.1889
3.13262
3.07697
3.02211
2.9682
2.91535
2.86367
2.81322
2.76408
2.71627
2.66981
2.62473
2.58103
2.53869
2.4977
2.45803
2.41967
2.38256
2.34669
2.312
2.27846
2.24603
2.21465
2.18428
2.15488
2.12641
2.09883
2.0721
2.0462
2.02111
1.99683
1.97337
1.95078
1.92911
1.90844
1.88806
1.8612
0.0665217
0.121777
0.152595
0.175349
0.194633
0.212196
0.228918
0.245283
0.261581
0.277984
0.294604
0.311516
0.328777
0.346438
0.364543
0.383134
0.402248
0.421916
0.442168
0.463037
0.48455
0.506722
0.529552
0.553019
0.577094
0.601741
0.626932
0.652638
0.678832
0.705491
0.732599
0.760147
0.788129
0.816544
0.845391
0.874672
0.904388
0.934546
0.965149
0.996206
1.02772
1.05971
1.09217
1.12513
1.15858
1.19255
1.22704
1.26207
1.29764
1.33377
1.37046
1.40773
1.44558
1.48401
1.52303
1.56265
1.60286
1.64367
1.68506
1.72704
1.7696
1.81273
1.85641
1.90064
1.9454
1.99068
2.03645
2.08268
2.12937
2.17648
2.22399
2.27187
2.32008
2.3686
2.41739
2.46642
2.51566
2.56507
2.61462
2.66427
2.71399
2.76374
2.81351
2.86325
2.91293
2.96254
3.01205
3.06144
3.11068
3.15976
3.20867
3.25739
3.30589
3.35415
3.40218
3.44993
3.49741
3.5446
3.59147
3.63799
3.68415
3.72991
3.77521
3.82001
3.86425
3.90785
3.95071
3.99273
4.03377
4.07367
4.11225
4.1493
4.18459
4.21785
4.24881
4.27716
4.30259
4.32479
4.34346
4.35826
4.36868
4.37459
4.37618
4.37294
4.36475
4.35155
4.33336
4.31025
4.28235
4.24985
4.213
4.17208
4.12743
4.07941
4.02843
3.97489
3.91921
3.86183
3.80313
3.74346
3.68311
3.62236
3.56145
3.50066
3.44023
3.38037
3.32127
3.26311
3.20602
3.1501
3.09545
3.04212
2.99016
2.93961
2.89047
2.84275
2.79645
2.75154
2.70801
2.66583
2.62495
2.58534
2.54697
2.50977
2.47372
2.43876
2.40484
2.37193
2.33999
2.30897
2.27885
2.24962
2.22126
2.19379
2.16726
2.14175
2.11735
2.09416
2.07153
2.04449
0.0774053
0.137283
0.170921
0.195715
0.216602
0.235482
0.253319
0.270666
0.287866
0.305144
0.322649
0.340486
0.358731
0.377444
0.396671
0.41645
0.436811
0.457779
0.479373
0.50161
0.524501
0.548051
0.572257
0.597104
0.622573
0.648639
0.675277
0.702464
0.730178
0.758404
0.787127
0.816339
0.846033
0.876208
0.906862
0.937997
0.969617
1.00173
1.03433
1.06744
1.10106
1.1352
1.16987
1.20508
1.24085
1.27719
1.31411
1.35163
1.38975
1.42848
1.46785
1.50785
1.5485
1.58981
1.63177
1.6744
1.71769
1.76165
1.80627
1.85155
1.89747
1.94404
1.99124
2.03905
2.08746
2.13644
2.18597
2.23604
2.2866
2.33763
2.38911
2.44099
2.49323
2.54581
2.59867
2.65179
2.70511
2.75859
2.8122
2.86588
2.9196
2.97331
3.02697
3.08055
3.13401
3.18731
3.24042
3.29331
3.34595
3.39832
3.45039
3.50214
3.55355
3.60459
3.65524
3.70551
3.75536
3.80479
3.85379
3.90233
3.9504
3.99797
4.04502
4.09151
4.1374
4.18262
4.22711
4.27077
4.3135
4.35515
4.39556
4.43454
4.47186
4.50726
4.54048
4.57119
4.59908
4.6238
4.64503
4.66242
4.6756
4.6841
4.68804
4.68708
4.68098
4.66964
4.653
4.63113
4.60413
4.57218
4.53552
4.49444
4.44927
4.40038
4.34818
4.29308
4.23552
4.17593
4.11472
4.05226
3.98889
3.92492
3.86065
3.79636
3.73231
3.66875
3.60589
3.54391
3.48295
3.42315
3.3646
3.30737
3.25152
3.19709
3.14408
3.09252
3.04239
2.99368
2.94636
2.90042
2.85581
2.81249
2.77043
2.72957
2.68987
2.65128
2.61376
2.57727
2.54176
2.50722
2.47361
2.44092
2.40918
2.3784
2.34866
2.32005
2.29271
2.26675
2.24154
2.21319
0.0868026
0.15032
0.186299
0.212829
0.235113
0.255166
0.274009
0.292243
0.310248
0.328284
0.346531
0.365116
0.384135
0.403654
0.423727
0.444393
0.465678
0.487605
0.510188
0.533436
0.557353
0.58194
0.60719
0.633093
0.659633
0.686793
0.714556
0.742902
0.771817
0.801287
0.831302
0.861854
0.892939
0.924555
0.956701
0.989381
1.0226
1.05635
1.09066
1.12553
1.16096
1.19697
1.23357
1.27077
1.30859
1.34704
1.38613
1.42588
1.46631
1.50742
1.54922
1.59174
1.63498
1.67895
1.72365
1.7691
1.81529
1.86222
1.9099
1.95831
2.00745
2.05732
2.10788
2.15914
2.21107
2.26365
2.31684
2.37063
2.42498
2.47985
2.53521
2.59102
2.64724
2.70381
2.76069
2.81784
2.87519
2.93271
2.99033
3.048
3.10567
3.16328
3.2208
3.27816
3.33532
3.39223
3.44885
3.50514
3.56105
3.61657
3.67165
3.72627
3.78039
3.83399
3.88705
3.93956
3.99149
4.04286
4.09363
4.14382
4.1934
4.24237
4.29071
4.33841
4.38545
4.4318
4.4774
4.52219
4.5661
4.609
4.65077
4.69123
4.73018
4.76739
4.80259
4.83547
4.8657
4.89292
4.91679
4.93693
4.95297
4.96451
4.97132
4.97321
4.96984
4.96106
4.94677
4.92699
4.90181
4.87137
4.83589
4.79564
4.75094
4.70215
4.64967
4.59391
4.53532
4.47434
4.4114
4.3469
4.2812
4.21466
4.14761
4.08036
4.01321
3.9464
3.88018
3.81475
3.75026
3.68688
3.62469
3.56379
3.50424
3.44609
3.38935
3.33405
3.28017
3.22772
3.17666
3.12698
3.07863
3.03157
2.98578
2.94119
2.89777
2.85547
2.81424
2.77405
2.73487
2.69666
2.65941
2.62313
2.58784
2.55357
2.52042
2.48852
2.45799
2.42896
2.40083
2.3704
0.0945792
0.160843
0.198687
0.226637
0.250097
0.271163
0.290894
0.309918
0.328641
0.347344
0.366226
0.385432
0.405068
0.425213
0.445925
0.467245
0.489202
0.511818
0.535105
0.559072
0.583722
0.609052
0.635057
0.661731
0.689061
0.717035
0.745642
0.774867
0.804701
0.835133
0.866157
0.897769
0.929964
0.962743
0.996107
1.03006
1.0646
1.09975
1.1355
1.17187
1.20887
1.24652
1.28481
1.32378
1.36342
1.40377
1.44483
1.48663
1.52917
1.57247
1.61655
1.66141
1.70708
1.75356
1.80087
1.849
1.89796
1.94775
1.99837
2.04981
2.10208
2.15515
2.20901
2.26364
2.31902
2.37513
2.43194
2.4894
2.5475
2.60618
2.6654
2.72512
2.78528
2.84584
2.90673
2.9679
3.02928
3.09082
3.15244
3.2141
3.27571
3.33723
3.39858
3.45969
3.52053
3.58101
3.64109
3.70071
3.75984
3.81841
3.8764
3.93375
3.99044
4.04643
4.1017
4.15623
4.21
4.26302
4.31526
4.36674
4.41745
4.46739
4.51658
4.56501
4.61268
4.6596
4.70574
4.75108
4.79556
4.83911
4.88164
4.92301
4.96306
5.00157
5.03831
5.07297
5.10524
5.13475
5.16114
5.18402
5.20298
5.21765
5.2277
5.23284
5.23272
5.22714
5.21591
5.19904
5.17654
5.14853
5.11518
5.07673
5.03347
4.98573
4.9339
4.8784
4.81965
4.75812
4.69424
4.62844
4.56113
4.49268
4.42346
4.35381
4.28405
4.21446
4.1453
4.07679
4.00912
3.94245
3.8769
3.81256
3.74951
3.68781
3.62748
3.56855
3.51102
3.45488
3.40012
3.3467
3.29461
3.2438
3.19422
3.14585
3.09863
3.05252
3.00748
2.96348
2.92049
2.87848
2.83745
2.79741
2.7584
2.72046
2.68371
2.64827
2.6143
2.58191
2.55053
2.51752
0.100702
0.168933
0.208199
0.237265
0.261676
0.283584
0.304069
0.323776
0.343122
0.362398
0.381815
0.401529
0.421653
0.442273
0.463453
0.485237
0.507659
0.530741
0.554498
0.578942
0.604075
0.629899
0.656411
0.683606
0.711477
0.740018
0.769221
0.799076
0.82958
0.860726
0.89251
0.924932
0.957991
0.99169
1.02603
1.06102
1.09666
1.13297
1.16995
1.20761
1.24597
1.28504
1.32484
1.36539
1.40669
1.44877
1.49164
1.53532
1.57984
1.6252
1.67142
1.71853
1.76652
1.81542
1.86523
1.91596
1.96761
2.02019
2.0737
2.12812
2.18346
2.23969
2.29681
2.35479
2.4136
2.47322
2.53362
2.59475
2.65658
2.71906
2.78214
2.84577
2.90988
2.97442
3.03932
3.10451
3.16993
3.2355
3.30114
3.36677
3.43233
3.49773
3.5629
3.62776
3.69223
3.75625
3.81975
3.88265
3.9449
4.00645
4.06724
4.12722
4.18633
4.24455
4.30184
4.35818
4.41355
4.46793
4.52133
4.57374
4.62518
4.67566
4.72521
4.77384
4.82159
4.86847
4.91451
4.95971
5.00407
5.04755
5.09012
5.13167
5.1721
5.21123
5.24885
5.28471
5.31849
5.34986
5.37842
5.40379
5.42555
5.44329
5.45666
5.46533
5.46886
5.46704
5.45951
5.44625
5.42725
5.40254
5.37225
5.33655
5.29569
5.24998
5.19976
5.14545
5.08746
5.02625
4.96228
4.89599
4.82781
4.75815
4.68742
4.61597
4.54417
4.47231
4.40068
4.32952
4.25905
4.18944
4.12082
4.05332
3.98701
3.92196
3.85822
3.79581
3.73474
3.675
3.6166
3.5595
3.50368
3.4491
3.39574
3.34354
3.29247
3.24249
3.19356
3.14565
3.09874
3.05282
3.00787
2.96393
2.92104
2.87927
2.83872
2.79955
2.76189
2.72586
2.69094
2.65487
0.105217
0.174752
0.215044
0.244943
0.270086
0.292659
0.313754
0.334018
0.353876
0.373621
0.393467
0.413575
0.434064
0.455024
0.476522
0.498607
0.521317
0.544678
0.568709
0.593425
0.618833
0.644937
0.67174
0.69924
0.727436
0.756326
0.785906
0.816174
0.847129
0.878771
0.9111
0.944118
0.977828
1.01224
1.04735
1.08317
1.11972
1.157
1.19502
1.2338
1.27335
1.3137
1.35486
1.39684
1.43966
1.48335
1.52793
1.57341
1.61981
1.66715
1.71545
1.76472
1.81499
1.86626
1.91853
1.97183
2.02616
2.08151
2.13788
2.19528
2.25368
2.31307
2.37344
2.43477
2.49701
2.56015
2.62414
2.68895
2.75452
2.8208
2.88774
2.95527
3.02333
3.09185
3.16076
3.22997
3.2994
3.36897
3.4386
3.50819
3.57766
3.64691
3.71585
3.78439
3.85245
3.91994
3.98677
4.05286
4.11814
4.18254
4.246
4.30845
4.36982
4.43008
4.48918
4.54708
4.60376
4.65921
4.71341
4.76638
4.81812
4.86866
4.91804
4.9663
5.01349
5.05966
5.10487
5.14917
5.1926
5.23518
5.27691
5.31777
5.35769
5.39656
5.43423
5.47048
5.50504
5.53759
5.56776
5.59515
5.61936
5.63996
5.65655
5.66875
5.67623
5.67852
5.67532
5.66631
5.65152
5.63093
5.60458
5.57258
5.53511
5.49242
5.44482
5.39269
5.33643
5.27649
5.21334
5.14742
5.0792
5.00912
4.9376
4.86503
4.79181
4.71826
4.64469
4.57138
4.49855
4.4264
4.35509
4.28475
4.21548
4.14735
4.08042
4.01472
3.95028
3.8871
3.82516
3.76447
3.705
3.64671
3.58958
3.53356
3.47864
3.42476
3.37189
3.32002
3.26913
3.2192
3.17025
3.1223
3.07541
3.02966
2.98516
2.94207
2.90053
2.86064
2.82193
2.78246
0.108198
0.178501
0.219473
0.249952
0.275618
0.298679
0.320229
0.340915
0.361158
0.381253
0.401413
0.421797
0.442528
0.463698
0.485377
0.507619
0.530465
0.553945
0.578084
0.6029
0.628405
0.65461
0.681522
0.709146
0.737486
0.766542
0.796317
0.826815
0.858039
0.889993
0.922684
0.956122
0.990314
1.02527
1.06099
1.0975
1.13479
1.1729
1.21183
1.2516
1.29224
1.33375
1.37617
1.4195
1.46378
1.50903
1.55525
1.60249
1.65074
1.70005
1.75042
1.80186
1.85441
1.90806
1.96283
2.01872
2.07574
2.1339
2.19318
2.25357
2.31507
2.37766
2.44132
2.50601
2.57172
2.63839
2.70599
2.77447
2.84378
2.91386
2.98464
3.05606
3.12804
3.2005
3.27336
3.34653
3.41992
3.49342
3.56696
3.64041
3.71369
3.78667
3.85927
3.93137
4.00287
4.07368
4.14368
4.21279
4.28092
4.34799
4.41391
4.4786
4.542
4.60403
4.66465
4.72381
4.78147
4.83761
4.89221
4.94528
4.99684
5.04691
5.09554
5.1428
5.18874
5.23346
5.27705
5.31959
5.36119
5.40192
5.44184
5.48098
5.51937
5.55695
5.59365
5.62931
5.66372
5.69659
5.72759
5.75635
5.78247
5.80551
5.82503
5.84063
5.85195
5.85865
5.86015
5.85606
5.84612
5.83042
5.80888
5.78151
5.74841
5.70978
5.66585
5.61695
5.56346
5.50581
5.44446
5.37987
5.31253
5.24288
5.17138
5.09847
5.02453
4.94996
4.87507
4.80016
4.7255
4.6513
4.57774
4.50497
4.43309
4.36221
4.29239
4.22368
4.1561
4.08967
4.02439
3.96025
3.89725
3.83535
3.77454
3.71477
3.65603
3.59828
3.5415
3.48566
3.43076
3.37679
3.32378
3.27177
3.2208
3.17097
3.12241
3.07527
3.02968
2.98577
2.94307
2.89997
0.109879
0.180436
0.221759
0.252581
0.278576
0.301953
0.323802
0.344766
0.365261
0.385577
0.405928
0.426469
0.447323
0.468582
0.490317
0.512585
0.535431
0.558891
0.582993
0.607763
0.63322
0.659381
0.686262
0.713875
0.742236
0.771325
0.801157
0.831745
0.863096
0.895209
0.928128
0.961865
0.996426
1.03182
1.06806
1.10515
1.14311
1.18196
1.22173
1.26244
1.3041
1.34675
1.39041
1.4351
1.48084
1.52765
1.57556
1.62459
1.67476
1.72609
1.7786
1.8323
1.88721
1.94333
2.00068
2.05926
2.11908
2.18012
2.24239
2.30587
2.37054
2.43639
2.50339
2.5715
2.64069
2.71092
2.78214
2.85429
2.92731
3.00114
3.07571
3.15093
3.22674
3.30303
3.37972
3.4567
3.53388
3.61116
3.68841
3.76552
3.84239
3.91888
3.99489
4.0703
4.14498
4.21883
4.29172
4.36356
4.43423
4.50364
4.57169
4.63829
4.70334
4.76678
4.82853
4.88853
4.94673
5.00309
5.0576
5.11026
5.16106
5.21005
5.25728
5.30283
5.34677
5.38923
5.43032
5.4702
5.50899
5.54684
5.58388
5.62021
5.65592
5.69108
5.72567
5.75963
5.79281
5.82499
5.85589
5.88517
5.91246
5.93731
5.95931
5.978
5.99299
6.00392
6.01036
6.01167
6.00734
5.99721
5.98132
5.95951
5.93181
5.89828
5.85912
5.81457
5.76497
5.71071
5.65224
5.59003
5.52456
5.45631
5.38574
5.31333
5.23949
5.16464
5.08913
5.01329
4.93741
4.86172
4.78643
4.71171
4.63768
4.56446
4.49212
4.42072
4.35031
4.28091
4.21253
4.14518
4.07884
4.01351
3.94916
3.88577
3.82332
3.76179
3.70115
3.6414
3.58253
3.52456
3.4675
3.4114
3.35633
3.30239
3.2497
3.19842
3.14869
3.10064
3.05384
3.00694
0.109922
0.180483
0.222009
0.253034
0.279216
0.302766
0.324775
0.345881
0.366498
0.386911
0.407326
0.4279
0.448752
0.469978
0.49165
0.513829
0.536562
0.559889
0.583844
0.608457
0.633757
0.659767
0.686509
0.714005
0.74228
0.771307
0.801116
0.831723
0.863139
0.895374
0.928495
0.962507
0.997421
1.03325
1.06999
1.10767
1.14628
1.18589
1.22652
1.2682
1.31096
1.35482
1.39981
1.44595
1.49326
1.54178
1.59153
1.64251
1.69476
1.7483
1.80312
1.85926
1.91671
1.97549
2.0356
2.09705
2.15982
2.2239
2.2893
2.35599
2.42394
2.49314
2.56354
2.63511
2.70781
2.78158
2.85637
2.93213
3.00877
3.08623
3.16443
3.24329
3.32271
3.4026
3.48285
3.56337
3.64404
3.72474
3.80535
3.88575
3.96582
4.04542
4.12442
4.20269
4.2801
4.35653
4.43184
4.50591
4.57863
4.64988
4.71956
4.78754
4.85373
4.91803
4.98036
5.04063
5.09879
5.15479
5.20858
5.26016
5.30953
5.35673
5.40182
5.44487
5.48599
5.5253
5.56298
5.5992
5.63417
5.66808
5.70113
5.7335
5.76535
5.79688
5.82818
5.85925
5.89004
5.92042
5.95016
5.97898
6.00654
6.03244
6.05625
6.07754
6.0959
6.11088
6.12206
6.12904
6.13089
6.1273
6.11788
6.10252
6.08123
6.05392
6.02067
5.98165
5.93712
5.88744
5.83302
5.77432
5.71183
5.64602
5.57739
5.50643
5.43359
5.35931
5.28398
5.20796
5.13155
5.05503
4.97862
4.90251
4.82686
4.75178
4.67737
4.60371
4.53085
4.45883
4.38768
4.3174
4.248
4.17947
4.1118
4.04498
3.979
3.91384
3.84949
3.78595
3.72321
3.66131
3.60027
3.54014
3.481
3.42296
3.36614
3.31071
3.2568
3.20455
3.15358
3.10282
0.109464
0.179722
0.221121
0.252085
0.278234
0.301761
0.323749
0.34483
0.365411
0.385775
0.406127
0.42662
0.447373
0.468479
0.490013
0.512035
0.534596
0.55774
0.581504
0.605924
0.631032
0.656858
0.683425
0.710756
0.738876
0.767807
0.797579
0.828215
0.859738
0.892171
0.92554
0.959875
0.995194
1.03151
1.06885
1.10722
1.14663
1.18716
1.22883
1.27169
1.31576
1.36107
1.40763
1.4555
1.50467
1.5552
1.60709
1.66035
1.71501
1.77107
1.82855
1.88744
1.94775
2.00949
2.07264
2.1372
2.20316
2.2705
2.33921
2.40925
2.48059
2.55321
2.62705
2.70207
2.77822
2.85544
2.93367
3.01284
3.09287
3.17369
3.2552
3.33733
3.41996
3.50301
3.58635
3.66989
3.75349
3.83704
3.92042
4.00348
4.08609
4.16812
4.24943
4.32986
4.40929
4.48757
4.56457
4.64014
4.71416
4.78651
4.85705
4.92567
4.99224
5.05664
5.11878
5.17856
5.2359
5.29074
5.34302
5.39272
5.43983
5.4844
5.52648
5.56615
5.60354
5.63877
5.67204
5.70361
5.73372
5.76261
5.79058
5.81787
5.84463
5.87099
5.8974
5.924
5.95088
5.978
6.00523
6.03237
6.05914
6.08522
6.1102
6.13369
6.15523
6.17438
6.19063
6.20347
6.21208
6.216
6.21452
6.2064
6.19256
6.17259
6.14645
6.1142
6.07601
6.03215
5.98304
5.92909
5.87076
5.80855
5.74296
5.6745
5.60366
5.53089
5.45663
5.38125
5.30512
5.2285
5.15167
5.07482
4.99815
4.92178
4.84584
4.77041
4.69557
4.62136
4.54783
4.47499
4.40286
4.33145
4.26076
4.19078
4.12152
4.05295
3.98509
3.91794
3.8515
3.78582
3.72092
3.65688
3.59377
3.5317
3.47081
3.41126
3.35319
3.29676
3.24163
3.18699
0.108151
0.177706
0.218692
0.249422
0.275383
0.29874
0.320565
0.341484
0.3619
0.38209
0.402257
0.422553
0.443095
0.463977
0.485275
0.507052
0.529363
0.552255
0.575774
0.599962
0.624858
0.650502
0.676929
0.704181
0.732289
0.761286
0.791208
0.822082
0.853938
0.886813
0.920744
0.955778
0.991916
1.02917
1.06757
1.10714
1.14787
1.18981
1.23304
1.27759
1.32351
1.37082
1.41954
1.46971
1.52136
1.57452
1.62919
1.68538
1.74307
1.80228
1.863
1.92521
1.98892
2.05411
2.12076
2.18886
2.25837
2.32927
2.40153
2.4751
2.54995
2.62603
2.70329
2.78167
2.86111
2.94154
3.0229
3.10512
3.1881
3.27176
3.35603
3.44079
3.52596
3.61142
3.69707
3.78279
3.86847
3.95396
4.03915
4.1239
4.20806
4.2915
4.37407
4.45562
4.53599
4.61505
4.69265
4.76863
4.84287
4.91522
4.98555
5.05371
5.11957
5.183
5.24387
5.30207
5.35752
5.41012
5.45981
5.50655
5.55031
5.59114
5.62912
5.66432
5.69687
5.72691
5.75459
5.77999
5.80358
5.82574
5.84684
5.86724
5.88724
5.9077
5.92864
5.95023
5.9726
5.99582
6.01982
6.0445
6.06967
6.09507
6.12038
6.14522
6.16918
6.1918
6.21254
6.23082
6.24594
6.25758
6.26498
6.26664
6.26218
6.25141
6.23379
6.2097
6.17922
6.14258
6.10015
6.0523
5.99945
5.94209
5.88074
5.81592
5.74815
5.67792
5.60569
5.53187
5.45684
5.38093
5.30441
5.22752
5.15047
5.07341
4.99649
4.91982
4.84347
4.76752
4.69202
4.61701
4.54251
4.46855
4.39513
4.32227
4.24997
4.17824
4.10708
4.03651
3.96655
3.89725
3.82864
3.76081
3.69383
3.62783
3.56295
3.49934
3.43716
3.37659
3.31731
3.25885
0.105632
0.174266
0.214724
0.245068
0.270699
0.293756
0.315304
0.335963
0.356132
0.376089
0.396031
0.41611
0.436444
0.45713
0.478249
0.49987
0.522054
0.544856
0.568329
0.592523
0.617489
0.643272
0.669917
0.697473
0.725987
0.755514
0.78612
0.817798
0.850586
0.884533
0.919677
0.956052
0.993581
1.03237
1.07246
1.11392
1.1568
1.20113
1.24694
1.29426
1.3431
1.39351
1.44549
1.49906
1.55424
1.61102
1.66941
1.72938
1.79093
1.85402
1.91863
1.98475
2.05234
2.12138
2.19182
2.26363
2.33677
2.4112
2.48687
2.56373
2.64172
2.7208
2.8009
2.88196
2.96391
3.04669
3.13022
3.21442
3.29922
3.38453
3.47027
3.55634
3.64264
3.72907
3.81554
3.90191
3.98809
4.07394
4.15934
4.24415
4.32824
4.41146
4.49366
4.57469
4.65439
4.73263
4.80924
4.88408
4.95699
5.02783
5.09645
5.16271
5.22645
5.2875
5.34572
5.40101
5.45326
5.50236
5.54823
5.59081
5.63001
5.66579
5.69825
5.72752
5.75375
5.77712
5.79787
5.81664
5.83352
5.84888
5.86315
5.87677
5.89013
5.90375
5.91813
5.93355
5.95028
5.96848
5.9882
6.00942
6.0321
6.05607
6.08112
6.10691
6.13309
6.1592
6.1847