/*--------------------------------*- C++ -*----------------------------------*\
  =========                 |
  \\      /  F ield         | OpenFOAM: The Open Source CFD Toolbox
   \\    /   O peration     | Website:  https://openfoam.org
    \\  /    A nd           | Version:  8
     \\/     M anipulation  |
\*---------------------------------------------------------------------------*/
FoamFile
{
    version     2.0;
    format      ascii;
    class       volScalarField;
    location    "150";
    object      nut;
}
// * * * * * * * * * * * * * * * * * * * * * * * * * * * * * * * * * * * * * //

dimensions      [0 2 -1 0 0 0 0];

internalField   nonuniform List<scalar> 
12225
(
4.14935e-05
3.93404e-05
3.74824e-05
3.54339e-05
3.37814e-05
3.24243e-05
3.15039e-05
3.09129e-05
3.09182e-05
3.10935e-05
3.15764e-05
3.20929e-05
3.31771e-05
3.37937e-05
3.51639e-05
3.56795e-05
3.75986e-05
3.98018e-05
0.000332291
0.000215099
0.000179316
0.000157612
0.00014626
0.000138141
0.000132707
0.000131714
0.000129435
0.000130143
0.000128971
0.00012952
0.000128594
0.000128632
0.000128036
0.000127466
0.000127512
0.000126453
0.000668861
0.000450421
0.000355906
0.000309668
0.000275422
0.000250942
0.000231818
0.000217133
0.000202682
0.000192086
0.000182598
0.000175143
0.000169355
0.00016356
0.000160299
0.000155349
0.000153826
0.0001495
0.0008016
0.000691463
0.000572824
0.00049983
0.00044958
0.000411772
0.000380938
0.000355814
0.000334118
0.000314584
0.000298442
0.000281433
0.000270337
0.000255869
0.000248139
0.000235884
0.000230329
0.00021992
0.000839606
0.00081007
0.000740928
0.000676189
0.000624123
0.000581189
0.000546016
0.000514385
0.000489615
0.000464264
0.000445901
0.000423902
0.00040988
0.000390625
0.00037973
0.000362779
0.000354518
0.000338821
0.000850344
0.000843248
0.000819576
0.000786429
0.00075092
0.00071576
0.000685852
0.000656019
0.000632595
0.000607413
0.000588986
0.000567137
0.000552197
0.00053295
0.000520616
0.000503414
0.000493378
0.000476858
0.000851583
0.000851009
0.000843301
0.000833443
0.000817181
0.000796894
0.000777912
0.00075668
0.000738911
0.000719091
0.000703504
0.000685549
0.000672044
0.000655806
0.000644172
0.000629262
0.000619609
0.000604641
0.000851586
0.000851809
0.000850046
0.000847446
0.000841415
0.000833755
0.000824814
0.000813417
0.00080281
0.000790445
0.00077969
0.000767495
0.00075737
0.000745699
0.00073645
0.000725319
0.000717313
0.000705636
0.000851676
0.000851526
0.00085102
0.000850338
0.000848877
0.000846169
0.000843028
0.000838297
0.000833398
0.000827349
0.0008212
0.000814744
0.000808397
0.000801455
0.000795233
0.000788234
0.000782418
0.000774782
0.000851756
0.000851384
0.000851045
0.000850631
0.000850248
0.000849366
0.000848405
0.000846778
0.000844953
0.000842524
0.000839915
0.000836786
0.000833778
0.000830124
0.000826942
0.000822869
0.000819869
0.000815208
0.000851785
0.000851358
0.000851012
0.000850613
0.000850329
0.000849904
0.000849525
0.000848927
0.000848301
0.00084739
0.000846461
0.00084517
0.000843981
0.000842338
0.00084098
0.000839009
0.000837614
0.000835326
0.000851789
0.000851359
0.000850996
0.000850605
0.000850292
0.000849938
0.000849645
0.000849279
0.000848954
0.000848502
0.000848096
0.000847504
0.000846993
0.000846237
0.000845633
0.00084471
0.000844045
0.00084296
0.000851786
0.000851363
0.000850986
0.000850604
0.000850269
0.000849926
0.00084963
0.000849312
0.000849041
0.000848727
0.00084846
0.000848124
0.000847841
0.000847462
0.000847152
0.000846721
0.000846381
0.000845896
0.000851783
0.000851364
0.000850978
0.000850602
0.000850256
0.000849916
0.000849607
0.000849299
0.000849022
0.00084874
0.000848487
0.000848223
0.000847987
0.000847733
0.000847506
0.000847256
0.000847031
0.000846781
0.000851781
0.000851364
0.000850973
0.000850598
0.000850246
0.000849908
0.000849591
0.000849286
0.000849
0.000848723
0.000848463
0.000848211
0.000847974
0.000847744
0.000847527
0.000847315
0.000847115
0.00084692
0.00085178
0.000851363
0.000850969
0.000850594
0.000850239
0.000849901
0.00084958
0.000849275
0.000848984
0.000848707
0.000848443
0.000848191
0.000847951
0.000847721
0.000847503
0.000847293
0.000847094
0.000846903
0.000851779
0.000851362
0.000850967
0.000850591
0.000850234
0.000849895
0.000849572
0.000849265
0.000848973
0.000848694
0.000848429
0.000848175
0.000847933
0.000847702
0.000847482
0.000847271
0.000847069
0.000846877
0.000851779
0.000851362
0.000850965
0.000850588
0.000850231
0.00084989
0.000849567
0.000849259
0.000848966
0.000848686
0.000848419
0.000848164
0.000847921
0.000847688
0.000847466
0.000847254
0.000847051
0.000846857
0.000851779
0.000851362
0.000850965
0.000850588
0.00085023
0.000849889
0.000849565
0.000849257
0.000848963
0.000848682
0.000848415
0.000848159
0.000847915
0.000847682
0.000847459
0.000847245
0.000847041
0.000846846
0.000851779
0.000851362
0.000850966
0.000850589
0.000850232
0.000849892
0.000849568
0.00084926
0.000848966
0.000848686
0.000848418
0.000848163
0.000847918
0.000847685
0.000847462
0.000847248
0.000847043
0.000846847
0.000851779
0.000851363
0.000850967
0.000850592
0.000850235
0.000849897
0.000849573
0.000849267
0.000848973
0.000848695
0.000848425
0.00084817
0.000847921
0.000847685
0.000847453
0.000847233
0.000847015
0.000846809
0.000851778
0.000851366
0.000850968
0.000850599
0.00085024
0.000849908
0.00084958
0.000849275
0.000848965
0.000848672
0.000848366
0.000848073
0.000847758
0.000847457
0.000847125
0.000846814
0.00084646
0.000846139
0.000851773
0.000851376
0.000850971
0.000850615
0.000850241
0.00084989
0.000849479
0.000849054
0.00084853
0.000847979
0.000847302
0.000846606
0.000845769
0.000844942
0.000843958
0.000843033
0.000841922
0.000840944
0.000851767
0.000851415
0.000850964
0.000850548
0.000849861
0.000848967
0.000847611
0.000845977
0.000843906
0.000841638
0.000838958
0.000836218
0.000833121
0.000830119
0.000826769
0.000823687
0.000820192
0.000817187
0.000851858
0.00085138
0.000850195
0.000848244
0.00084447
0.000839355
0.000832767
0.000825661
0.000817965
0.000810016
0.000801624
0.000793636
0.000785341
0.000777718
0.000769756
0.000762714
0.000755139
0.000748811
0.000852108
0.000847667
0.000839902
0.000827147
0.000808709
0.000789649
0.000769979
0.000751419
0.000733312
0.000716905
0.000700945
0.000686794
0.000672845
0.000660688
0.000648397
0.000637962
0.000626976
0.000618044
0.000843241
0.000822507
0.000775185
0.000726461
0.000684899
0.000649856
0.000618467
0.000592028
0.000568391
0.000548324
0.000529703
0.000514007
0.00049877
0.000486036
0.000473223
0.000462731
0.000451647
0.00044283
0.000795686
0.000668242
0.000570627
0.000509908
0.000465609
0.000431189
0.000404152
0.000382489
0.000364208
0.000349081
0.000335952
0.000325075
0.000314521
0.00030625
0.000297975
0.000291384
0.000284299
0.00027895
0.000501314
0.000348358
0.000292674
0.000259182
0.000236325
0.000221179
0.000211623
0.000203858
0.000198566
0.000195078
0.000192223
0.00019037
0.000188584
0.00018744
0.000186167
0.000185473
0.000184555
0.000184142
7.27385e-05
7.02256e-05
6.79542e-05
6.56137e-05
6.33828e-05
6.12762e-05
5.94943e-05
5.79551e-05
5.67107e-05
5.57028e-05
5.49771e-05
5.44173e-05
5.41086e-05
5.38801e-05
5.38952e-05
5.39307e-05
5.40892e-05
5.43212e-05
1.54231e-06
2.62515e-05
4.29823e-05
5.86544e-05
7.42462e-05
8.97672e-05
0.000105141
0.000120175
0.000134566
0.000147969
0.000159948
0.000169928
0.000176971
0.000180234
0.000176785
0.00016222
3.14904e-05
3.02931e-05
3.1025e-05
3.21013e-05
3.44357e-05
3.85389e-05
4.63635e-05
0.000243974
0.000238788
4.42406e-05
4.28475e-05
4.74066e-05
4.88474e-05
4.97535e-05
5.11085e-05
5.22933e-05
5.3536e-05
5.47554e-05
5.59702e-05
5.71776e-05
5.83739e-05
5.95654e-05
6.0746e-05
6.19224e-05
6.30874e-05
6.42456e-05
6.53934e-05
6.65374e-05
6.76719e-05
6.88041e-05
6.99279e-05
7.10506e-05
7.21656e-05
7.32803e-05
7.4388e-05
7.54957e-05
7.65967e-05
7.76978e-05
7.87924e-05
7.98874e-05
8.09755e-05
8.20638e-05
8.31451e-05
8.42263e-05
8.53e-05
8.63732e-05
8.74384e-05
8.85029e-05
8.95587e-05
9.06132e-05
9.16584e-05
9.27018e-05
9.37352e-05
9.47665e-05
9.57872e-05
9.68052e-05
9.78121e-05
9.88159e-05
9.98078e-05
0.000100796
0.000101772
0.000102743
0.000103702
0.000104656
0.000105597
0.000106533
0.000107456
0.000108373
0.000109276
0.000110172
0.000111053
0.000111927
0.000112785
0.000113633
0.000114468
0.000115286
0.000116084
0.000116857
0.000117601
0.000118346
0.000119086
0.000119808
0.000120516
0.000121208
0.000121883
0.000122541
0.00012318
0.000123798
0.000124392
0.000124964
0.000125508
0.000126026
0.000126513
0.000126969
0.00012739
0.000127775
0.00012812
0.000128429
0.000128698
0.000128935
0.000129189
0.000129158
0.000129328
0.000129243
0.00012911
0.000128988
0.000128746
0.000128434
0.000128057
0.000127609
0.000127035
0.00012638
0.000125643
0.000124818
0.000123919
0.000122939
0.000121893
0.000120774
0.000119598
0.000118357
0.000117058
0.000115689
0.000114117
0.000112744
0.000111757
0.000110799
0.000109825
0.00010883
0.00010782
0.0001068
0.000105774
0.000104745
0.000103719
0.000102695
0.000101678
0.000100669
9.96709e-05
9.86839e-05
9.77106e-05
9.67511e-05
9.58071e-05
9.48782e-05
9.39671e-05
9.3071e-05
9.21913e-05
9.13305e-05
9.04952e-05
8.96839e-05
8.88948e-05
8.8127e-05
8.73807e-05
8.6656e-05
8.59539e-05
8.52729e-05
8.4612e-05
8.39697e-05
8.3344e-05
8.27325e-05
8.21294e-05
8.15294e-05
8.09133e-05
8.02616e-05
7.96111e-05
7.73697e-05
4.72907e-06
5.84349e-05
0.000117932
0.000160552
0.000190696
0.000214062
0.0002336
0.000250713
0.000265807
0.000278625
0.000288333
0.000293436
0.00029162
0.00027981
0.000254788
0.000216139
0.000169265
0.000163616
0.000168519
0.00017885
0.000195108
0.000219707
0.000256664
0.000312114
0.000302494
0.000267863
0.000264499
0.000291893
0.00030286
0.00031084
0.000318482
0.000326449
0.000334583
0.000342877
0.000351274
0.000359731
0.000368226
0.00037676
0.00038534
0.000393983
0.000402724
0.00041145
0.000420164
0.000428868
0.00043757
0.000446273
0.000454985
0.000463711
0.00047246
0.000481234
0.000490041
0.000498884
0.000507768
0.000516694
0.000525669
0.000534693
0.000543769
0.000552896
0.000562078
0.000571313
0.000580603
0.000589944
0.000599338
0.000608782
0.000618278
0.00062782
0.00063741
0.000647042
0.00065672
0.000666438
0.0006762
0.000686003
0.000695851
0.000705741
0.000715676
0.000725655
0.000735681
0.000745755
0.000755884
0.000766074
0.000776335
0.000786673
0.000797103
0.000807632
0.000818275
0.000829037
0.00083993
0.000850964
0.000862148
0.000873481
0.000884965
0.000896553
0.000908165
0.000919655
0.000930812
0.000941344
0.000951785
0.000962342
0.000973002
0.000983769
0.000994641
0.00100561
0.00101667
0.0010278
0.00103899
0.00105021
0.00106144
0.00107265
0.00108379
0.00109484
0.00110574
0.00111644
0.00112689
0.00113709
0.00114706
0.00115671
0.0011662
0.00117456
0.00118268
0.00118963
0.00119459
0.00120048
0.00120495
0.00120846
0.00121102
0.00121276
0.00121345
0.00121316
0.00121189
0.00120965
0.00120647
0.00120239
0.00119746
0.00119172
0.00118524
0.00117804
0.00117016
0.00116146
0.00115125
0.00113831
0.00112414
0.00110941
0.00109443
0.00107938
0.00106437
0.00104946
0.00103473
0.00102021
0.00100595
0.000991971
0.000978293
0.000964935
0.000951911
0.00093923
0.000926902
0.00091493
0.000903318
0.000892061
0.000881161
0.000870567
0.000860335
0.000850482
0.000840968
0.000831773
0.000822872
0.000814249
0.000805889
0.000797776
0.000789894
0.000782223
0.000774738
0.000767416
0.000760227
0.000753137
0.000746086
0.000738996
0.000731659
0.000723853
0.000709153
0.000672022
8.71492e-06
8.64535e-05
0.000171738
0.000238121
0.000287618
0.000324611
0.000353074
0.000375787
0.000394412
0.000409702
0.000421682
0.000429789
0.000433033
0.000430377
0.00042167
0.000408803
0.000397119
0.000400431
0.000413211
0.000432213
0.000456356
0.000484603
0.000513919
0.000537903
0.000547293
0.000552764
0.000567486
0.000589779
0.000608533
0.000626286
0.000643754
0.000661249
0.000678803
0.000696415
0.000714058
0.000731705
0.000749272
0.000766806
0.000784315
0.000801804
0.000819274
0.000836714
0.000854131
0.000871535
0.000888938
0.000906352
0.00092379
0.000941265
0.00095879
0.000976374
0.000994029
0.00101176
0.00102958
0.00104749
0.0010655
0.00108361
0.00110183
0.00112015
0.00113857
0.0011571
0.00117573
0.00119447
0.0012133
0.00123222
0.00125124
0.00127034
0.00128952
0.00130878
0.00132811
0.0013475
0.00136696
0.00138648
0.00140606
0.00142569
0.00144538
0.00146511
0.0014849
0.00150474
0.00152463
0.00154459
0.00156462
0.00158472
0.00160491
0.00162519
0.00164558
0.00166608
0.00168669
0.00170742
0.00172826
0.00174921
0.00177025
0.00179134
0.0018124
0.00183336
0.00185415
0.00187474
0.0018954
0.00191623
0.00193722
0.00195838
0.0019797
0.00200117
0.00202277
0.00204448
0.00206626
0.00208807
0.00210986
0.00213157
0.00215314
0.00217449
0.00219553
0.00221617
0.00223629
0.00225582
0.00227467
0.00229268
0.00231013
0.0023262
0.0023416
0.00235449
0.00236451
0.00237505
0.0023835
0.00239006
0.00239477
0.00239766
0.0023986
0.00239761
0.0023947
0.00238991
0.0023833
0.00237494
0.00236493
0.00235334
0.00234031
0.0023259
0.00231016
0.00229301
0.00227397
0.00225223
0.00222865
0.00220395
0.00217859
0.00215287
0.00212698
0.00210108
0.00207528
0.00204968
0.00202436
0.00199939
0.00197482
0.0019507
0.00192706
0.00190393
0.00188134
0.0018593
0.00183783
0.00181693
0.00179661
0.00177683
0.00175764
0.00173905
0.001721
0.00170347
0.00168643
0.00166986
0.00165374
0.00163803
0.00162271
0.00160775
0.00159311
0.00157877
0.00156465
0.00155068
0.00153679
0.0015228
0.00150838
0.00149303
0.00147097
0.00141889
1.28406e-05
0.000108545
0.000213932
0.000297977
0.000362109
0.000410709
0.00044812
0.000477686
0.000501793
0.00052202
0.00053932
0.000554195
0.000566864
0.000577474
0.000586429
0.000594834
0.000604876
0.000619395
0.000637973
0.000659683
0.00068381
0.00070953
0.00073547
0.000759841
0.000781863
0.00080295
0.000826786
0.000852547
0.000877885
0.000902992
0.000927973
0.000952932
0.000977892
0.00100286
0.00102785
0.00105288
0.00107789
0.00110283
0.00112771
0.00115252
0.00117727
0.00120197
0.00122664
0.0012513
0.00127594
0.00130061
0.0013253
0.00135005
0.00137485
0.00139974
0.00142472
0.00144981
0.00147501
0.00150035
0.00152581
0.00155141
0.00157716
0.00160305
0.00162908
0.00165525
0.00168156
0.00170801
0.00173459
0.00176129
0.00178812
0.00181506
0.00184211
0.00186925
0.00189649
0.0019238
0.0019512
0.00197866
0.00200619
0.00203377
0.0020614
0.00208907
0.00211679
0.00214455
0.00217234
0.00220017
0.00222804
0.00225595
0.00228391
0.00231192
0.00233997
0.00236808
0.00239624
0.00242444
0.00245267
0.00248094
0.00250921
0.00253747
0.00256568
0.00259378
0.00262178
0.00264977
0.00267785
0.00270606
0.00273443
0.00276295
0.0027916
0.00282039
0.00284929
0.00287828
0.00290732
0.00293636
0.00296535
0.00299423
0.00302291
0.00305132
0.00307934
0.00310687
0.00313378
0.00315994
0.00318522
0.00320947
0.00323261
0.00325451
0.00327551
0.00329346
0.00330817
0.00332267
0.00333488
0.00334468
0.00335205
0.00335694
0.00335928
0.00335906
0.00335627
0.00335096
0.00334319
0.00333305
0.00332062
0.00330604
0.00328942
0.00327089
0.0032505
0.00322824
0.00320386
0.00317705
0.00314825
0.003118
0.00308675
0.00305482
0.00302246
0.00298985
0.00295716
0.00292453
0.00289206
0.00285986
0.002828
0.00279657
0.00276561
0.00273518
0.00270532
0.00267605
0.00264741
0.00261942
0.00259207
0.00256537
0.00253934
0.00251398
0.00248927
0.00246518
0.00244168
0.00241876
0.00239639
0.00237454
0.00235318
0.00233229
0.00231184
0.00229177
0.00227205
0.00225259
0.00223332
0.00221403
0.00219438
0.00217358
0.00214666
0.00209227
1.68477e-05
0.000127512
0.000249883
0.000349004
0.000426381
0.000485941
0.000532359
0.000569397
0.000599928
0.000626062
0.000649309
0.000670726
0.000691046
0.000710798
0.000730436
0.000750487
0.000771628
0.000794457
0.00081903
0.000845178
0.000872705
0.000901342
0.000930622
0.000959981
0.00098924
0.00101879
0.00104919
0.00108024
0.00111149
0.00114282
0.00117419
0.00120553
0.00123682
0.00126802
0.00129912
0.00133009
0.00136089
0.00139157
0.00142216
0.00145266
0.00148309
0.00151346
0.0015438
0.00157411
0.00160442
0.00163475
0.00166511
0.00169553
0.00172601
0.00175658
0.00178725
0.00181805
0.00184899
0.00188008
0.00191132
0.00194272
0.00197429
0.00200602
0.00203792
0.00206999
0.00210221
0.0021346
0.00216713
0.00219981
0.00223262
0.00226556
0.00229862
0.00233178
0.00236504
0.00239837
0.00243179
0.00246526
0.00249878
0.00253234
0.00256593
0.00259954
0.00263316
0.00266678
0.0027004
0.00273401
0.00276761
0.00280118
0.00283474
0.00286827
0.00290177
0.00293525
0.00296868
0.00300207
0.00303542
0.00306872
0.00310196
0.00313514
0.00316824
0.00320126
0.00323423
0.00326722
0.00330027
0.00333341
0.00336665
0.0034
0.00343345
0.003467
0.00350064
0.00353434
0.00356807
0.0036018
0.00363547
0.00366904
0.00370241
0.00373551
0.00376824
0.00380047
0.00383209
0.00386295
0.00389289
0.00392174
0.00394935
0.00397555
0.00400106
0.00402347
0.00404291
0.00406083
0.00407686
0.00409022
0.00410082
0.00410859
0.00411345
0.00411536
0.0041143
0.00411029
0.00410339
0.00409367
0.00408121
0.00406614
0.00404859
0.00402867
0.00400648
0.00398205
0.00395534
0.0039263
0.00389518
0.00386238
0.00382827
0.00379317
0.00375733
0.00372097
0.00368427
0.00364741
0.00361052
0.00357372
0.00353713
0.00350084
0.00346492
0.00342945
0.00339448
0.00336007
0.00332624
0.00329304
0.00326047
0.00322856
0.00319732
0.00316677
0.00313688
0.00310765
0.00307906
0.00305109
0.00302372
0.00299694
0.00297069
0.00294499
0.00291979
0.00289508
0.0028708
0.0028469
0.00282331
0.00279987
0.00277622
0.00275149
0.00272151
0.00266992
2.05981e-05
0.000143631
0.000280489
0.000392973
0.000482577
0.000552721
0.000608239
0.000653145
0.000690607
0.000723053
0.000752297
0.000779675
0.000806147
0.000832396
0.000858902
0.000886019
0.000914019
0.000943077
0.000973227
0.00100443
0.00103662
0.00106969
0.00110346
0.00113774
0.0011724
0.00120746
0.00124295
0.00127876
0.00131477
0.00135085
0.00138695
0.001423
0.00145895
0.00149479
0.00153048
0.00156602
0.00160141
0.00163666
0.00167178
0.0017068
0.00174172
0.00177657
0.00181136
0.00184612
0.00188087
0.00191563
0.00195042
0.00198526
0.00202019
0.00205522
0.00209036
0.00212562
0.00216102
0.00219656
0.00223225
0.00226811
0.00230414
0.00234033
0.00237669
0.00241322
0.00244991
0.00248675
0.00252375
0.00256089
0.00259816
0.00263556
0.00267306
0.00271066
0.00274834
0.00278608
0.00282388
0.00286172
0.00289958
0.00293745
0.00297531
0.00301314
0.00305094
0.00308869
0.00312637
0.00316398
0.0032015
0.00323893
0.00327624
0.00331345
0.00335053
0.00338748
0.0034243
0.00346098
0.00349752
0.00353392
0.00357018
0.00360632
0.00364236
0.00367832
0.0037142
0.00375006
0.0037859
0.00382176
0.00385765
0.00389359
0.00392958
0.00396562
0.00400172
0.00403787
0.00407405
0.00411023
0.0041464
0.00418249
0.00421845
0.00425421
0.00428968
0.00432477
0.00435934
0.00439327
0.0044264
0.00445856
0.00448955
0.00451914
0.00454826
0.00457456
0.00459851
0.00462014
0.00464007
0.00465739
0.00467189
0.00468345
0.00469195
0.00469731
0.00469949
0.00469849
0.00469431
0.00468701
0.00467666
0.00466335
0.0046472
0.00462832
0.00460682
0.00458278
0.00455625
0.00452731
0.00449615
0.00446308
0.00442841
0.00439243
0.00435539
0.00431752
0.00427902
0.00424009
0.00420088
0.00416154
0.0041222
0.00408297
0.00404394
0.00400522
0.00396686
0.00392894
0.00389151
0.00385461
0.00381827
0.00378253
0.0037474
0.0037129
0.00367904
0.00364581
0.00361322
0.00358124
0.00354987
0.0035191
0.00348891
0.00345929
0.00343023
0.00340171
0.00337372
0.00334622
0.00331916
0.00329243
0.00326572
0.0032382
0.0032064
0.00315879
2.39722e-05
0.000156962
0.000305974
0.000430508
0.000531103
0.000611439
0.000675974
0.000728869
0.00077346
0.000812357
0.000847555
0.000880544
0.000912415
0.000943941
0.00097565
0.00100789
0.00104087
0.00107469
0.00110939
0.00114494
0.0011813
0.0012184
0.00125614
0.00129441
0.00133312
0.00137218
0.00141154
0.00145111
0.0014908
0.00153054
0.00157024
0.00160987
0.00164937
0.00168873
0.00172793
0.00176696
0.00180582
0.00184451
0.00188306
0.00192148
0.00195978
0.00199799
0.00203612
0.00207419
0.00211224
0.00215028
0.00218834
0.00222645
0.00226461
0.00230285
0.0023412
0.00237965
0.00241823
0.00245695
0.00249582
0.00253485
0.00257403
0.00261338
0.00265289
0.00269257
0.0027324
0.00277239
0.00281252
0.00285279
0.00289319
0.00293369
0.0029743
0.00301499
0.00305574
0.00309655
0.00313738
0.00317823
0.00321907
0.00325989
0.00330065
0.00334135
0.00338197
0.00342248
0.00346286
0.0035031
0.00354319
0.0035831
0.00362282
0.00366235
0.00370165
0.00374074
0.0037796
0.00381823
0.00385662
0.00389478
0.00393272
0.00397045
0.00400799
0.00404536
0.00408257
0.00411967
0.00415666
0.00419358
0.00423046
0.00426731
0.00430415
0.00434101
0.0043779
0.00441482
0.00445179
0.00448881
0.00452585
0.00456291
0.00459995
0.00463692
0.00467376
0.00471039
0.00474672
0.00478262
0.00481797
0.0048526
0.00488633
0.00491894
0.00495086
0.00498106
0.00500922
0.00503507
0.00505915
0.00508096
0.00510007
0.0051163
0.00512946
0.00513946
0.00514621
0.00514965
0.00514977
0.00514656
0.00514007
0.00513035
0.00511749
0.00510159
0.00508275
0.00506108
0.00503667
0.00500964
0.00498019
0.00494856
0.00491501
0.00487982
0.00484323
0.00480549
0.0047668
0.00472737
0.00468737
0.00464697
0.00460632
0.00456555
0.00452477
0.00448409
0.0044436
0.00440339
0.00436351
0.00432402
0.00428498
0.00424643
0.00420839
0.00417089
0.00413395
0.00409758
0.0040618
0.00402659
0.00399197
0.00395792
0.00392446
0.00389159
0.0038593
0.0038276
0.00379649
0.00376598
0.00373605
0.00370663
0.00367749
0.00364789
0.00361501
0.0035708
2.68893e-05
0.000167631
0.000326632
0.000461785
0.000572262
0.000662076
0.000735254
0.000795956
0.000847577
0.000892818
0.000933777
0.000972044
0.0010088
0.00104489
0.0010809
0.00111722
0.00115409
0.00119162
0.00122986
0.00126883
0.00130847
0.00134874
0.00138957
0.00143087
0.00147255
0.00151454
0.00155674
0.00159909
0.0016415
0.0016839
0.00172623
0.00176845
0.00181052
0.00185242
0.00189414
0.00193565
0.00197698
0.00201811
0.00205908
0.00209988
0.00214054
0.00218108
0.00222153
0.0022619
0.00230221
0.0023425
0.00238279
0.0024231
0.00246345
0.00250386
0.00254435
0.00258494
0.00262564
0.00266647
0.00270744
0.00274855
0.00278982
0.00283124
0.00287282
0.00291456
0.00295645
0.00299849
0.00304067
0.00308298
0.00312541
0.00316794
0.00321057
0.00325326
0.00329601
0.0033388
0.00338159
0.00342438
0.00346713
0.00350983
0.00355245
0.00359496
0.00363734
0.00367956
0.00372161
0.00376345
0.00380506
0.00384643
0.00388753
0.00392835
0.00396886
0.00400906
0.00404894
0.00408849
0.0041277
0.00416658
0.00420513
0.00424338
0.00428132
0.00431899
0.00435639
0.00439357
0.00443055
0.00446736
0.00450403
0.0045406
0.0045771
0.00461358
0.00465005
0.00468657
0.00472315
0.00475983
0.00479663
0.00483355
0.00487059
0.00490775
0.00494499
0.00498226
0.00501952
0.00505666
0.00509359
0.00513016
0.00516623
0.0052016
0.00523634
0.00527013
0.00530231
0.00533284
0.00536163
0.00538849
0.00541292
0.00543466
0.00545345
0.00546916
0.00548165
0.00549081
0.00549658
0.00549889
0.00549775
0.00549316
0.00548516
0.00547382
0.00545924
0.00544151
0.00542075
0.0053971
0.00537073
0.00534187
0.00531075
0.00527763
0.00524275
0.00520635
0.00516866
0.0051299
0.00509025
0.00504989
0.00500899
0.00496771
0.00492617
0.0048845
0.0048428
0.00480118
0.00475971
0.00471846
0.0046775
0.00463688
0.00459665
0.00455684
0.00451748
0.0044786
0.00444023
0.00440236
0.00436503
0.00432824
0.004292
0.00425635
0.00422128
0.00418684
0.00415305
0.00411994
0.00408753
0.0040558
0.00402461
0.00399332
0.00395968
0.00391817
2.93062e-05
0.000175808
0.000342744
0.000486916
0.000606157
0.000704598
0.000785827
0.000853913
0.000912232
0.000963513
0.0010099
0.00105306
0.00109423
0.00113432
0.00117398
0.00121364
0.00125359
0.00129399
0.00133492
0.00137642
0.00141846
0.00146103
0.00150407
0.0015475
0.00159125
0.00163524
0.00167939
0.00172362
0.00176785
0.00181202
0.00185608
0.00189998
0.0019437
0.00198721
0.0020305
0.00207356
0.0021164
0.00215902
0.00220143
0.00224366
0.00228572
0.00232763
0.00236942
0.00241111
0.00245272
0.00249429
0.00253583
0.00257737
0.00261893
0.00266054
0.00270222
0.00274398
0.00278584
0.00282782
0.00286993
0.00291218
0.00295458
0.00299713
0.00303984
0.00308271
0.00312573
0.0031689
0.00321221
0.00325566
0.00329923
0.00334291
0.00338668
0.00343052
0.00347441
0.00351834
0.00356227
0.00360618
0.00365005
0.00369384
0.00373753
0.00378108
0.00382447
0.00386767
0.00391065
0.00395337
0.00399581
0.00403793
0.00407972
0.00412115
0.00416219
0.00420284
0.00424306
0.00428285
0.00432221
0.00436112
0.0043996
0.00443765
0.00447529
0.00451252
0.00454938
0.00458588
0.00462208
0.00465799
0.00469368
0.00472917
0.00476453
0.0047998
0.00483505
0.00487034
0.00490572
0.00494126
0.004977
0.00501299
0.00504928
0.00508588
0.00512282
0.00516009
0.00519768
0.00523552
0.00527357
0.00531172
0.00534984
0.00538778
0.00542544
0.00546269
0.00549901
0.00553429
0.00556835
0.00560084
0.00563125
0.00565928
0.00568456
0.00570693
0.00572621
0.00574222
0.00575484
0.00576393
0.00576943
0.00577128
0.00576948
0.00576406
0.00575508
0.00574262
0.00572678
0.00570771
0.00568558
0.00566058
0.00563295
0.00560292
0.00557075
0.00553667
0.00550092
0.00546372
0.00542529
0.00538582
0.0053455
0.00530449
0.00526294
0.00522101
0.0051788
0.00513643
0.005094
0.00505161
0.00500931
0.00496719
0.0049253
0.00488369
0.0048424
0.00480148
0.00476095
0.00472084
0.0046812
0.00464203
0.00460338
0.00456528
0.00452777
0.00449089
0.00445469
0.00441924
0.0043846
0.0043508
0.00431775
0.00428494
0.00425061
0.00421119
3.12115e-05
0.000181708
0.000354648
0.000506218
0.000633027
0.000739105
0.000827622
0.000902482
0.00096699
0.00102385
0.00107523
0.00112281
0.0011679
0.00121145
0.00125416
0.00129654
0.0013389
0.00138143
0.00142427
0.00146746
0.001511
0.001555
0.0015994
0.00164411
0.00168908
0.00173425
0.00177958
0.00182487
0.00187007
0.00191516
0.00196008
0.00200479
0.00204926
0.00209347
0.00213741
0.00218109
0.00222449
0.00226765
0.00231056
0.00235326
0.00239576
0.00243809
0.00248027
0.00252232
0.00256429
0.00260619
0.00264805
0.00268989
0.00273175
0.00277365
0.00281561
0.00285764
0.00289978
0.00294204
0.00298443
0.00302696
0.00306965
0.00311251
0.00315554
0.00319874
0.00324211
0.00328565
0.00332935
0.00337321
0.00341721
0.00346134
0.00350558
0.00354991
0.00359432
0.00363877
0.00368324
0.0037277
0.00377212
0.00381647
0.00386072
0.00390482
0.00394875
0.00399246
0.00403593
0.0040791
0.00412195
0.00416443
0.00420652
0.00424819
0.00428939
0.00433011
0.00437032
0.00441001
0.00444915
0.00448774
0.00452578
0.00456326
0.0046002
0.00463661
0.00467252
0.00470794
0.00474292
0.0047775
0.00481173
0.00484567
0.0048794
0.00491297
0.00494647
0.00497999
0.00501362
0.00504745
0.00508157
0.00511607
0.00515103
0.00518653
0.00522263
0.00525938
0.0052968
0.00533491
0.00537368
0.00541306
0.00545296
0.00549326
0.00553382
0.00557447
0.00561503
0.00565515
0.00569479
0.0057334
0.00577032
0.00580538
0.00583789
0.00586777
0.00589476
0.00591862
0.00593913
0.00595611
0.00596939
0.00597886
0.00598445
0.00598613
0.00598391
0.00597786
0.00596805
0.00595463
0.00593773
0.00591756
0.00589433
0.00586828
0.00583965
0.0058087
0.00577566
0.00574078
0.00570429
0.0056664
0.0056273
0.0055872
0.00554625
0.00550462
0.00546245
0.00541987
0.00537699
0.00533392
0.00529075
0.00524756
0.00520442
0.0051614
0.00511856
0.00507594
0.00503359
0.00499157
0.0049499
0.00490865
0.00486784
0.00482754
0.0047878
0.00474869
0.00471028
0.00467267
0.00463595
0.00460018
0.00456535
0.00453106
0.00449592
0.00445768
3.26184e-05
0.000185565
0.000362723
0.000520083
0.000653194
0.000765805
0.000860702
0.000941574
0.00101161
0.00107346
0.00112926
0.00118072
0.00122913
0.00127553
0.00132072
0.00136521
0.00140935
0.00145337
0.00149743
0.00154159
0.00158588
0.00163055
0.00167549
0.00172063
0.00176593
0.00181136
0.0018569
0.00190225
0.0019475
0.00199269
0.00203764
0.00208227
0.00212658
0.00217056
0.00221422
0.00225754
0.00230055
0.00234326
0.0023857
0.00242789
0.00246985
0.00251162
0.00255323
0.0025947
0.00263607
0.00267737
0.00271864
0.00275989
0.00280115
0.00284247
0.00288385
0.00292533
0.00296693
0.00300867
0.00305057
0.00309264
0.0031349
0.00317736
0.00322003
0.00326291
0.003306
0.0033493
0.00339282
0.00343653
0.00348044
0.00352452
0.00356876
0.00361314
0.00365764
0.00370222
0.00374687
0.00379154
0.0038362
0.00388082
0.00392536
0.00396977
0.004014
0.00405803
0.0041018
0.00414526
0.00418837
0.00423109
0.00427336
0.00431516
0.00435643
0.00439715
0.00443727
0.00447677
0.00451563
0.00455382
0.00459133
0.00462817
0.00466432
0.0046998
0.00473463
0.00476884
0.00480246
0.00483554
0.00486813
0.00490032
0.00493217
0.00496378
0.00499524
0.00502668
0.0050582
0.00508995
0.00512205
0.00515463
0.00518783
0.00522178
0.00525658
0.00529234
0.00532915
0.00536708
0.00540617
0.00544642
0.00548776
0.00553014
0.00557341
0.00561742
0.00566211
0.00570711
0.00575247
0.00579726
0.00584125
0.00588376
0.00592438
0.00596243
0.00599789
0.00603046
0.00605981
0.00608565
0.00610774
0.00612587
0.00613991
0.00614975
0.00615536
0.00615674
0.00615398
0.00614715
0.00613642
0.00612194
0.00610395
0.00608266
0.00605834
0.00603123
0.0060016
0.00596969
0.00593576
0.00590004
0.00586275
0.00582409
0.00578425
0.00574342
0.00570176
0.00565941
0.0056165
0.00557316
0.00552949
0.0054856
0.00544156
0.00539745
0.00535335
0.00530933
0.00526544
0.00522175
0.00517831
0.00513518
0.00509242
0.00505011
0.00500832
0.00496713
0.00492665
0.00488698
0.00484826
0.00481058
0.00477397
0.00473816
0.00470205
0.00466427
3.35487e-05
0.000187627
0.00036735
0.000528896
0.000667027
0.000784888
0.000885176
0.000971151
0.00104586
0.00111198
0.00117158
0.00122629
0.00127738
0.00132583
0.00137268
0.00141845
0.00146353
0.00150824
0.00155276
0.00159725
0.00164181
0.00168644
0.00173113
0.00177584
0.00182053
0.00186519
0.00190981
0.00195431
0.00199866
0.00204303
0.00208704
0.00213068
0.00217388
0.00221665
0.00225902
0.00230098
0.00234256
0.00238379
0.00242472
0.00246536
0.00250577
0.00254598
0.00258602
0.00262594
0.00266577
0.00270555
0.00274531
0.00278509
0.00282492
0.00286483
0.00290486
0.00294503
0.00298537
0.0030259
0.00306665
0.00310763
0.00314887
0.00319037
0.00323215
0.00327422
0.00331658
0.00335924
0.00340218
0.0034454
0.00348889
0.00353264
0.00357663
0.00362083
0.00366522
0.00370978
0.00375446
0.00379924
0.00384406
0.0038889
0.00393369