/*--------------------------------*- C++ -*----------------------------------*\
  =========                 |
  \\      /  F ield         | OpenFOAM: The Open Source CFD Toolbox
   \\    /   O peration     | Website:  https://openfoam.org
    \\  /    A nd           | Version:  8
     \\/     M anipulation  |
\*---------------------------------------------------------------------------*/
FoamFile
{
    version     2.0;
    format      ascii;
    class       volScalarField;
    location    "150";
    object      p;
}
// * * * * * * * * * * * * * * * * * * * * * * * * * * * * * * * * * * * * * //

dimensions      [0 2 -2 0 0 0 0];

internalField   nonuniform List<scalar> 
12225
(
-0.978948
-3.16757
-4.26722
-4.58751
-4.76826
-4.93667
-5.06752
-5.16171
-5.23715
-5.30306
-5.36122
-5.41367
-5.46026
-5.50214
-5.53902
-5.56403
-5.59341
-5.52877
-4.14248
-4.91073
-5.07103
-4.97836
-4.96534
-5.03259
-5.10939
-5.17419
-5.23265
-5.28865
-5.34144
-5.38999
-5.43478
-5.47558
-5.51305
-5.54167
-5.57551
-5.58234
-4.54364
-4.52846
-4.65559
-4.73357
-4.82796
-4.94754
-5.05399
-5.13793
-5.20861
-5.27256
-5.3309
-5.38357
-5.43182
-5.47562
-5.51634
-5.55067
-5.59134
-5.62383
-4.42168
-4.36467
-4.606
-4.76394
-4.86518
-4.97079
-5.06773
-5.14689
-5.21452
-5.27626
-5.33315
-5.38507
-5.43305
-5.47724
-5.51905
-5.55744
-5.60103
-5.64684
-4.41135
-4.43571
-4.6635
-4.80467
-4.88781
-4.97927
-5.06976
-5.1466
-5.21309
-5.27403
-5.33058
-5.38265
-5.43113
-5.47641
-5.51993
-5.56192
-5.60811
-5.65973
-4.46934
-4.51821
-4.69222
-4.81575
-4.89679
-4.98404
-5.07138
-5.14705
-5.21301
-5.27351
-5.32986
-5.38211
-5.43103
-5.47727
-5.52215
-5.56657
-5.61432
-5.66749
-4.52971
-4.57388
-4.7088
-4.82477
-4.90805
-4.99163
-5.07488
-5.14872
-5.21386
-5.27377
-5.32977
-5.38205
-5.43131
-5.47829
-5.52419
-5.5701
-5.61854
-5.67117
-4.58329
-4.62086
-4.73058
-4.83852
-4.92108
-5.00015
-5.07893
-5.15067
-5.21486
-5.2741
-5.32968
-5.38192
-5.43142
-5.47894
-5.52552
-5.57219
-5.62056
-5.67166
-4.63308
-4.66614
-4.75683
-4.85445
-4.93411
-5.00899
-5.08357
-5.15301
-5.21605
-5.2745
-5.32956
-5.38163
-5.43122
-5.47902
-5.52591
-5.57272
-5.62047
-5.6696
-4.6802
-4.70938
-4.78468
-4.87158
-4.9474
-5.01849
-5.08907
-5.15597
-5.21761
-5.27512
-5.32952
-5.38124
-5.4307
-5.4785
-5.52532
-5.57179
-5.61851
-5.66556
-4.72459
-4.75001
-4.81301
-4.88989
-4.96122
-5.02863
-5.09539
-5.15957
-5.21959
-5.27599
-5.32958
-5.38075
-5.42987
-5.47738
-5.52381
-5.56958
-5.61504
-5.66003
-4.7627
-4.78497
-4.83899
-4.90756
-4.97436
-5.03838
-5.1018
-5.16341
-5.22178
-5.27703
-5.32973
-5.38024
-5.42883
-5.47585
-5.52167
-5.56658
-5.61076
-5.65396
-4.79791
-4.81756
-4.86423
-4.92538
-4.98759
-5.04827
-5.10854
-5.16761
-5.22423
-5.27823
-5.32995
-5.37966
-5.42758
-5.47394
-5.519
-5.56291
-5.60579
-5.64732
-4.83483
-4.85196
-4.89184
-4.94566
-5.00276
-5.05967
-5.11653
-5.17276
-5.22731
-5.27976
-5.33023
-5.37889
-5.42587
-5.4713
-5.51531
-5.558
-5.59935
-5.63916
-4.87221
-4.88695
-4.92085
-4.96779
-5.0195
-5.07231
-5.1256
-5.17878
-5.23093
-5.28154
-5.33047
-5.37779
-5.42353
-5.46773
-5.51043
-5.55165
-5.59136
-5.62937
-4.90811
-4.92071
-4.94958
-4.99045
-5.03691
-5.08553
-5.13521
-5.18524
-5.23481
-5.28329
-5.33044
-5.37614
-5.42037
-5.46307
-5.50424
-5.54381
-5.5818
-5.61801
-4.93964
-4.9505
-4.97544
-5.01135
-5.05321
-5.09793
-5.14422
-5.19124
-5.23821
-5.28447
-5.32965
-5.37357
-5.41608
-5.45711
-5.49658
-5.53445
-5.57068
-5.6052
-4.96244
-4.9721
-4.99438
-5.02687
-5.06537
-5.10709
-5.15066
-5.1952
-5.23991
-5.28414
-5.32745
-5.36959
-5.41038
-5.44972
-5.4875
-5.5237
-5.55826
-5.59118
-4.9696
-4.97878
-5.00005
-5.03128
-5.06848
-5.10891
-5.15115
-5.19434
-5.23769
-5.28057
-5.32251
-5.36326
-5.40264
-5.44055
-5.47689
-5.51166
-5.5448
-5.57638
-4.9538
-4.9636
-4.98627
-5.01946
-5.0586
-5.10048
-5.14364
-5.18743
-5.23108
-5.27401
-5.31573
-5.35608
-5.39489
-5.43214
-5.46771
-5.50167
-5.53395
-5.56468
-4.92717
-4.938
-4.96335
-5.00049
-5.04342
-5.08812
-5.13343
-5.17892
-5.22386
-5.26753
-5.30968
-5.35015
-5.38896
-5.42599
-5.4613
-5.49486
-5.52677
-5.55703
-4.89212
-4.90397
-4.93341
-4.97713
-5.02557
-5.07375
-5.12178
-5.16977
-5.21661
-5.26152
-5.30439
-5.34531
-5.3843
-5.42137
-5.45656
-5.48993
-5.52158
-5.55158
-4.85169
-4.86363
-4.89817
-4.95158
-5.00729
-5.05944
-5.11056
-5.16126
-5.21006
-5.25625
-5.3
-5.34153
-5.38087
-5.4181
-5.45327
-5.48661
-5.5181
-5.54798
-4.80807
-4.81909
-4.86096
-4.92551
-4.98787
-5.04474
-5.10059
-5.15471
-5.20525
-5.25237
-5.29681
-5.33882
-5.37841
-5.4157
-5.45087
-5.4841
-5.5155
-5.54519
-4.76121
-4.76675
-4.82951
-4.90785
-4.96996
-5.02842
-5.08979
-5.1484
-5.2012
-5.24955
-5.29488
-5.33745
-5.37731
-5.41466
-5.44979
-5.48292
-5.51422
-5.54382
-4.71794
-4.68165
-4.79129
-4.9024
-4.96481
-5.0203
-5.08274
-5.14274
-5.19623
-5.24524
-5.29126
-5.33436
-5.37454
-5.41208
-5.4473
-5.48047
-5.51178
-5.54137
-4.73219
-4.57328
-4.7023
-4.85652
-4.94679
-5.01836
-5.08752
-5.14868
-5.20175
-5.25032
-5.29589
-5.33844
-5.37804
-5.41501
-5.44967
-5.48234
-5.51321
-5.54252
-4.8554
-4.67506
-4.68933
-4.7616
-4.85013
-4.94955
-5.04048
-5.1145
-5.17648
-5.2319
-5.2825
-5.32855
-5.37066
-5.40946
-5.44544
-5.47905
-5.51075
-5.54111
-4.56279
-5.15392
-5.24284
-5.11873
-5.06455
-5.09192
-5.13913
-5.18262
-5.22445
-5.26692
-5.30869
-5.34831
-5.38557
-5.4206
-5.45345
-5.48428
-5.51328
-5.54222
-1.57347
-3.33681
-4.3416
-4.64088
-4.79021
-4.93404
-5.0483
-5.12951
-5.19401
-5.25115
-5.30269
-5.34902
-5.391
-5.42952
-5.4651
-5.49752
-5.52661
-5.55061
-6.53759
-6.53732
-6.53787
-6.53981
-6.54271
-6.54636
-6.55063
-6.55548
-6.56089
-6.56702
-6.57401
-6.58181
-6.59008
-6.59878
-6.60769
-6.61691
-6.62758
-6.64069
-6.65555
-6.67169
-6.68844
-6.7044
-6.72031
-6.73808
-6.7558
-6.77338
-6.79231
-6.81113
-6.83126
-6.85352
-6.87708
-6.90168
-6.92702
-6.95303
-6.97951
-7.00643
-7.03362
-7.06109
-7.08866
-7.11637
-7.14405
-7.17174
-7.19927
-7.22668
-7.25381
-7.28071
-7.30719
-7.33331
-7.3589
-7.38398
-7.40839
-7.43215
-7.45506
-7.47715
-7.49819
-7.51821
-7.53699
-7.55453
-7.57058
-7.58516
-7.59801
-7.60911
-7.61818
-7.62523
-7.62996
-7.63235
-7.63208
-7.62913
-7.62315
-7.61411
-7.60169
-7.58585
-7.56628
-7.54289
-7.51533
-7.48347
-7.44693
-7.40554
-7.35888
-7.30674
-7.24869
-7.18451
-7.11377
-7.03628
-6.95164
-6.85961
-6.75974
-6.65175
-6.53525
-6.40988
-6.27521
-6.13061
-5.9754
-5.80889
-5.63042
-5.43946
-5.23559
-5.01839
-4.7874
-4.54214
-4.28218
-4.0071
-3.71652
-3.41013
-3.08768
-2.7491
-2.3944
-2.02377
-1.63755
-1.23625
-0.820576
-0.391419
0.050104
0.502691
0.964812
1.43478
1.91063
2.39029
2.87163
3.35257
3.83097
4.30459
4.77112
5.2284
5.67441
6.1074
6.52574
6.92813
7.31338
7.68061
8.02913
8.35853
8.66857
8.95928
9.23078
9.48344
9.71761
9.9342
10.1346
10.3197
10.4898
10.6454
10.7871
10.9158
11.0324
11.1378
11.2328
11.3183
11.3953
11.4645
11.5266
11.5825
11.6327
11.6779
11.7188
11.7558
11.7895
11.8203
11.8488
11.8752
11.9
11.9234
11.9458
11.9673
11.9884
12.009
12.0295
12.05
12.0705
12.0913
12.1124
12.134
12.1563
12.1795
12.204
12.2307
12.2616
12.2991
12.3575
12.4311
-6.53418
-6.53481
-6.53582
-6.53729
-6.53889
-6.54067
-6.54291
-6.54578
-6.54936
-6.55372
-6.5588
-6.56439
-6.5704
-6.57705
-6.58431
-6.59277
-6.60304
-6.61408
-6.62504
-6.63554
-6.64546
-6.65638
-6.67068
-6.68666
-6.70513
-6.72719
-6.74985
-6.77409
-6.79908
-6.82371
-6.84849
-6.87367
-6.89928
-6.92536
-6.9518
-6.97859
-7.00562
-7.03286
-7.0602
-7.08763
-7.11505
-7.14243
-7.16967
-7.19676
-7.22361
-7.25019
-7.27641
-7.30226
-7.32761
-7.35245
-7.37666
-7.40023
-7.42299
-7.44492
-7.46588
-7.48581
-7.50456
-7.52206
-7.53815
-7.55277
-7.56572
-7.57692
-7.58618
-7.59341
-7.5984
-7.60105
-7.60114
-7.59854
-7.59301
-7.58443
-7.57254
-7.55724
-7.53828
-7.51551
-7.4887
-7.45765
-7.42205
-7.38168
-7.33623
-7.28544
-7.22895
-7.16648
-7.09766
-7.02221
-6.93975
-6.84995
-6.7524
-6.6467
-6.53243
-6.40924
-6.27665
-6.13417
-5.98121
-5.81725
-5.64183
-5.45447
-5.25463
-5.04179
-4.81544
-4.57511
-4.32033
-4.0507
-3.76581
-3.46533
-3.14902
-2.81675
-2.4685
-2.10443
-1.72478
-1.33006
-0.92084
-0.497991
-0.0625025
0.384355
0.841191
1.30633
1.77795
2.25399
2.73242
3.21115
3.6881
4.16101
4.62763
5.08573
5.53333
5.96859
6.38988
6.79577
7.18507
7.55679
7.91021
8.24482
8.56033
8.85667
9.13394
9.39253
9.63278
9.85494
10.0597
10.2484
10.422
10.5811
10.7264
10.8587
10.9789
11.0878
11.1863
11.2752
11.3553
11.4276
11.4926
11.5511
11.6039
11.6515
11.6945
11.7335
11.769
11.8015
11.8314
11.8591
11.885
11.9094
11.9325
11.9548
11.9763
11.9973
12.0181
12.0387
12.0593
12.0801
12.1012
12.1227
12.1449
12.168
12.1926
12.2195
12.2508
12.2882
12.346
12.4105
-6.52531
-6.52789
-6.53142
-6.53433
-6.53639
-6.5381
-6.53994
-6.54221
-6.54506
-6.54859
-6.55278
-6.55753
-6.5627
-6.56844
-6.57495
-6.58266
-6.59186
-6.60216
-6.613
-6.62423
-6.63581
-6.64835
-6.66248
-6.67789
-6.69466
-6.71338
-6.73348
-6.75518
-6.7782
-6.80195
-6.82621
-6.85094
-6.87607
-6.90159
-6.92743
-6.95357
-6.97993
-7.00649
-7.03315
-7.0599
-7.08665
-7.11338
-7.13999
-7.16648
-7.19275
-7.21878
-7.24449
-7.26984
-7.29473
-7.31914
-7.34297
-7.36616
-7.3886
-7.41022
-7.43092
-7.45062
-7.46919
-7.48654
-7.50253
-7.51707
-7.53
-7.54121
-7.55054
-7.55787
-7.56303
-7.56588
-7.56625
-7.56397
-7.55886
-7.55073
-7.5394
-7.52469
-7.50638
-7.4843
-7.45824
-7.42798
-7.39329
-7.35393
-7.30962
-7.26011
-7.20509
-7.14428
-7.07734
-7.00398
-6.92385
-6.83658
-6.74176
-6.63896
-6.52777
-6.40776
-6.27851
-6.13951
-5.99023
-5.83021
-5.65901
-5.47617
-5.28117
-5.0735
-4.85264
-4.6181
-4.36944
-4.10621
-3.82801
-3.53451
-3.22544
-2.90065
-2.56009
-2.20386
-1.83218
-1.44546
-1.04423
-0.629266
-0.201476
0.237947
0.687717
1.14623
1.61177
2.08238
2.55612
3.03091
3.50472
3.97528
4.44042
4.8979
5.3458
5.78216
6.20539
6.61395
7.00664
7.38237
7.74039
8.08008
8.40112
8.70336
8.98681
9.25159
9.49815
9.72703
9.93907
10.1352
10.3161
10.4823
10.6344
10.7733
10.8998
11.0146
11.1188
11.213
11.2981
11.3749
11.4442
11.5067
11.5631
11.614
11.66
11.7017
11.7396
11.7742
11.8059
11.8352
11.8625
11.888
11.9122
11.9352
11.9573
11.9788
11.9998
12.0206
12.0413
12.062
12.0829
12.1043
12.1263
12.1492
12.1738
12.2006
12.2322
12.2685
12.3243
12.3722
-6.51123
-6.51606
-6.52304
-6.52842
-6.53195
-6.53454
-6.5368
-6.53911
-6.54169
-6.54475
-6.54836
-6.55254
-6.55726
-6.56258
-6.56865
-6.57569
-6.58389
-6.59324
-6.60356
-6.61484
-6.62714
-6.64066
-6.65554
-6.6717
-6.68897
-6.70744
-6.72699
-6.74769
-6.7695
-6.7922
-6.8156
-6.83956
-6.86399
-6.88883
-6.914
-6.93947
-6.96516
-6.99105
-7.01706
-7.04316
-7.0693
-7.09543
-7.12148
-7.14742
-7.17319
-7.19874
-7.22401
-7.24894
-7.27346
-7.29753
-7.32104
-7.34395
-7.36615
-7.38757
-7.40809
-7.42766
-7.44613
-7.46341
-7.47938
-7.49393
-7.50692
-7.51823
-7.5277
-7.53521
-7.5406
-7.54372
-7.54441
-7.54251
-7.53783
-7.53021
-7.51945
-7.50538
-7.48779
-7.46649
-7.44125
-7.41187
-7.37812
-7.33976
-7.29654
-7.24821
-7.19448
-7.13507
-7.06968
-6.998
-6.9197
-6.83443
-6.74177
-6.64131
-6.53262
-6.41529
-6.28888
-6.1529
-6.00686
-5.85029
-5.68274
-5.50374
-5.31279
-5.10938
-4.893
-4.66316
-4.4194
-4.16127
-3.88838
-3.60035
-3.29693
-2.97795
-2.64333
-2.29314
-1.92756
-1.54694
-1.15179
-0.742794
-0.320837
0.112999
0.557437
1.01097
1.47194
1.93849
2.40874
2.88066
3.35216
3.82102
4.28507
4.74213
5.19024
5.62748
6.05219
6.4628
6.85808
7.2369
7.59846
7.94211
8.26754
8.57451
8.86303
9.13325
9.38556
9.62047
9.83872
10.041
10.2279
10.3999
10.5577
10.702
10.8337
10.9535
11.0624
11.161
11.2504
11.3311
11.4041
11.4699
11.5294
11.5831
11.6317
11.6757
11.7157
11.7522
11.7855
11.8162
11.8446
11.8711
11.896
11.9196
11.9422
11.964
11.9852
12.006
12.0266
12.0472
12.0679
12.089
12.1107
12.1333
12.1574
12.1837
12.2143
12.2479
12.2983
12.3286
-6.49556
-6.50271
-6.51345
-6.52167
-6.52712
-6.53109
-6.53434
-6.53729
-6.54026
-6.54351
-6.5472
-6.55144
-6.5563
-6.56186
-6.56821
-6.57549
-6.58377
-6.59312
-6.60349
-6.61492
-6.62745
-6.6412
-6.65623
-6.67252
-6.68995
-6.70847
-6.72794
-6.74835
-6.76961
-6.79166
-6.81436
-6.83764
-6.86139
-6.88557
-6.91008
-6.93491
-6.95998
-6.98526
-7.01068
-7.03622
-7.0618
-7.0874
-7.11296
-7.13844
-7.16377
-7.18892
-7.2138
-7.2384
-7.26261
-7.28639
-7.30965
-7.33234
-7.35435
-7.37561
-7.39602
-7.41548
-7.43389
-7.45114
-7.46711
-7.48169
-7.49474
-7.50615
-7.51575
-7.52343
-7.52902
-7.53239
-7.53336
-7.53179
-7.52749
-7.5203
-7.51003
-7.49651
-7.47954
-7.45893
-7.43446
-7.40592
-7.37308
-7.33571
-7.29356
-7.24638
-7.1939
-7.13583
-7.0719
-7.00178
-6.92516
-6.84169
-6.75098
-6.65261
-6.54618
-6.43127
-6.30745
-6.17424
-6.03114
-5.87767
-5.71335
-5.53771
-5.35023
-5.15043
-4.93776
-4.71177
-4.47193
-4.21782
-3.949
-3.66511
-3.36587
-3.05108
-2.72066
-2.37461
-2.01312
-1.63645
-1.24513
-0.83974
-0.421186
0.00955973
0.451174
0.902258
1.36111
1.82603
2.29505
2.76626
3.23741
3.70637
4.17083
4.6288
5.07812
5.51702
5.94364
6.35656
6.75436
7.13607
7.50076
7.84789
8.17696
8.48781
8.78033
9.0547
9.31117
9.5503
9.77264
9.97889
10.1696
10.3453
10.5066
10.6544
10.7893
10.9124
11.0242
11.1257
11.2177
11.3009
11.3762
11.4442
11.5056
11.5611
11.6113
11.6567
11.698
11.7355
11.7698
11.8013
11.8304
11.8574
11.8827
11.9066
11.9294
11.9512
11.9724
11.9931
12.0136
12.0339
12.0544
12.0751
12.0964
12.1185
12.142
12.1673
12.1961
12.2262
12.2706
12.2851
-6.48158
-6.49086
-6.50484
-6.51568
-6.5231
-6.52865
-6.53315
-6.53711
-6.54087
-6.54476
-6.549
-6.55376
-6.55914
-6.56526
-6.5722
-6.58005
-6.58885
-6.59867
-6.60949
-6.62135
-6.63424
-6.64825
-6.66336
-6.67958
-6.69686
-6.71513
-6.73431
-6.75435
-6.77515
-6.79666
-6.81878
-6.84147
-6.86463
-6.88822
-6.91217
-6.93644
-6.96096
-6.98571
-7.01061
-7.03566
-7.06078
-7.08594
-7.11108
-7.13618
-7.16115
-7.18598
-7.21057
-7.2349
-7.25887
-7.28245
-7.30554
-7.32807
-7.34996
-7.37112
-7.39145
-7.41088
-7.42926
-7.44653
-7.46253
-7.47717
-7.49031
-7.50183
-7.51158
-7.51944
-7.52524
-7.52884
-7.53009
-7.52883
-7.52488
-7.51808
-7.50827
-7.49525
-7.47884
-7.45885
-7.43507
-7.4073
-7.37531
-7.33888
-7.29775
-7.25169
-7.20042
-7.14367
-7.08116
-7.01257
-6.93758
-6.85586
-6.76702
-6.67066
-6.56637
-6.45377
-6.33241
-6.20181
-6.06146
-5.91088
-5.74956
-5.57702
-5.39274
-5.1962
-4.98688
-4.76427
-4.52787
-4.27719
-4.0118
-3.73132
-3.43543
-3.12392
-2.79666
-2.45364
-2.09498
-1.72095
-1.33197
-0.928658
-0.511815
-0.0824591
0.35817
0.808621
1.26728
1.73239
2.20204
2.67421
3.14669
3.61721
4.08355
4.54359
4.99523
5.43658
5.86588
6.28161
6.68241
7.06725
7.43519
7.78559
8.11797
8.4321
8.72786
9.0054
9.26496
9.50703
9.73215
9.94096
10.134
10.312
10.4755
10.6253
10.7622
10.887
11.0006
11.1037
11.1971
11.2817
11.3582
11.4273
11.4898
11.5461
11.5971
11.6432
11.685
11.723
11.7576
11.7894
11.8186
11.8457
11.8711
11.8949
11.9176
11.9393
11.9603
11.9807
12.0009
12.0209
12.041
12.0613
12.082
12.1036
12.1262
12.1503
12.177
12.2035
12.2424
12.2433
-6.47172
-6.48272
-6.49905
-6.51197
-6.52112
-6.52817
-6.53397
-6.53903
-6.54375
-6.54848
-6.55347
-6.55892
-6.56498
-6.57175
-6.57932
-6.58777
-6.59714
-6.60746
-6.61875
-6.63102
-6.64428
-6.65854
-6.67379
-6.69003
-6.70721
-6.72529
-6.7442
-6.76391
-6.78432
-6.8054
-6.82706
-6.84927
-6.87195
-6.89506
-6.91852
-6.94232
-6.96639
-6.9907
-7.01519
-7.03985
-7.06459
-7.08941
-7.11424
-7.13904
-7.16375
-7.18834
-7.21273
-7.23688
-7.2607
-7.28415
-7.30713
-7.32959
-7.35142
-7.37255
-7.39287
-7.4123
-7.43072
-7.44803
-7.46411
-7.47884
-7.49209
-7.50374
-7.51365
-7.52169
-7.52769
-7.53153
-7.53304
-7.53207
-7.52845
-7.52203
-7.51263
-7.50007
-7.48417
-7.46475
-7.44161
-7.41454
-7.38333
-7.34776
-7.30759
-7.26257
-7.21245
-7.15696
-7.09579
-7.02867
-6.95526
-6.87522
-6.78818
-6.69374
-6.59151
-6.48109
-6.36205
-6.2339
-6.09613
-5.94822
-5.7897
-5.62002
-5.43868
-5.24512
-5.03885
-4.81928
-4.58592
-4.33826
-4.07583
-3.79823
-3.50513
-3.19627
-2.87148
-2.53073
-2.17407
-1.80175
-1.41414
-1.01185
-0.595594
-0.166447
0.274425
0.725526
1.1853
1.65189
2.12343
2.59773
3.07266
3.54578
4.01498
4.47794
4.93272
5.37723
5.80985
6.22887
6.63306
7.02115
7.39233
7.7458
8.08117
8.39809
8.69654
8.97656
9.23848
9.48267
9.70975
9.92026
10.1149
10.2942
10.4589
10.6099
10.7478
10.8736
10.988
11.0918
11.186
11.2711
11.3481
11.4176
11.4804
11.537
11.5881
11.6343
11.6761
11.714
11.7486
11.7802
11.8092
11.8361
11.8612
11.8847
11.907
11.9283
11.9489
11.969
11.9887
12.0083
12.0279
12.0477
12.0678
12.0886
12.1102
12.1328
12.1574
12.1803
12.2145
12.2037
-6.4674
-6.47946
-6.49716
-6.51148
-6.52196
-6.53026
-6.53721
-6.54331
-6.54897
-6.55456
-6.56033
-6.56652
-6.57325
-6.58066
-6.58883
-6.59783
-6.60769
-6.61846
-6.63014
-6.64275
-6.65628
-6.67074
-6.68611
-6.70237
-6.71948
-6.73742
-6.75613
-6.77557
-6.79568
-6.81643
-6.83773
-6.85957
-6.88186
-6.90459
-6.92768
-6.95113
-6.97485
-6.99884
-7.02302
-7.04739
-7.07187
-7.09646
-7.12107
-7.14569
-7.17024
-7.1947
-7.21897
-7.24303
-7.26679
-7.2902
-7.31316
-7.33561
-7.35745
-7.37861
-7.39898
-7.41847
-7.43696
-7.45436
-7.47053
-7.48538
-7.49875
-7.51055
-7.52061
-7.52882
-7.53502
-7.53908
-7.54083
-7.54013
-7.53682
-7.53073
-7.5217
-7.50956
-7.49414
-7.47524
-7.45268
-7.42626
-7.39578
-7.361
-7.32172
-7.27768
-7.22864
-7.17432
-7.11444
-7.04871
-6.9768
-6.89838
-6.81307
-6.72048
-6.62021
-6.51188
-6.39504
-6.2692
-6.13383
-5.98844
-5.8325
-5.66548
-5.48683
-5.29601
-5.09247
-4.87564
-4.64498
-4.39995
-4.14007
-3.86491
-3.5741
-3.26735
-2.94446
-2.60532
-2.24999
-1.87864
-1.49163
-1.08949
-0.672982
-0.243096
0.19894
0.651698
1.11354
1.58262
2.05693
2.53429
3.01245
3.48905
3.96183
4.42851
4.88703
5.33532
5.77163
6.19428
6.6019
6.99327
7.36749
7.72381
8.06179
8.38109
8.68167
8.96362
9.22725
9.47295
9.7013
9.91286
10.1083
10.2883
10.4536
10.605
10.7433
10.8693
10.9839
11.0879
11.1821
11.2673
11.3442
11.4136
11.4762
11.5325
11.5834
11.6292
11.6707
11.7082
11.7423
11.7735
11.802
11.8284
11.853
11.876
11.8978
11.9186
11.9387
11.9582
11.9775
11.9965
12.0156
12.0347
12.0542
12.0741
12.0946
12.1157
12.138
12.1574
12.1873
12.1666
-6.46893
-6.4814
-6.49955
-6.51454
-6.52587
-6.53505
-6.54288
-6.54984
-6.5563
-6.56264
-6.56911
-6.57594
-6.58327
-6.59123
-6.59989
-6.60934
-6.6196
-6.63072
-6.6427
-6.65555
-6.66927
-6.68386
-6.69929
-6.71555
-6.7326
-6.75044
-6.76899
-6.78824
-6.80812
-6.82862
-6.84965
-6.87122
-6.89323
-6.91569
-6.93853
-6.96172
-6.98521
-7.00898
-7.03297
-7.05717
-7.0815
-7.10596
-7.13047
-7.15501
-7.17951
-7.20393
-7.22819
-7.25225
-7.27603
-7.29947
-7.32248
-7.345
-7.36691
-7.38815
-7.40861
-7.42819
-7.44678
-7.46429
-7.48058
-7.49554
-7.50905
-7.52098
-7.53119
-7.53955
-7.54592
-7.55016
-7.55212
-7.55165
-7.54859
-7.54279
-7.53409
-7.52232
-7.50731
-7.48888
-7.46685
-7.44102
-7.41119
-7.37716
-7.3387
-7.29558
-7.24755
-7.19435
-7.13569
-7.07129
-7.00083
-6.92396
-6.84031
-6.7495
-6.65112
-6.54479
-6.43005
-6.30641
-6.17333
-6.0303
-5.87677
-5.71223
-5.53608
-5.34779
-5.14674
-4.93238
-4.7041
-4.46138
-4.2037
-3.93058
-3.64164
-3.33654
-3.01503
-2.67697
-2.32237
-1.95135
-1.56427
-1.16157
-0.744076
-0.312696
0.131293
0.586516
1.05123
1.52362
2.00148
2.48272
2.96484
3.44568
3.92269
4.39373
4.85643
5.3089
5.74909
6.17549
6.58651
6.98107
7.3581
7.717
8.05717
8.37842
8.68063
8.96399
9.22872
9.47534
9.70432
9.91632
10.112
10.2921
10.4573
10.6085
10.7466
10.8723
10.9865
11.09
11.1838
11.2684
11.3448
11.4137
11.4756
11.5314
11.5816
11.6268
11.6676
11.7044
11.7379
11.7683
11.7962
11.8219
11.8458
11.8681
11.8893
11.9095
11.929
11.948
11.9666
11.9851
12.0035
12.0221
12.0408
12.0598
12.0791
12.0986
12.1186
12.1347
12.1609
12.1318
-6.4759
-6.48822
-6.506
-6.521
-6.53265
-6.54232
-6.5507
-6.55824
-6.56529
-6.5722
-6.5792
-6.58653
-6.59431
-6.60268
-6.61172
-6.62149
-6.63203
-6.64339
-6.65555
-6.66856
-6.68239
-6.69704
-6.71249
-6.72874
-6.74574
-6.76348
-6.78192
-6.80103
-6.82075
-6.84108
-6.86194
-6.88333
-6.90517
-6.92746
-6.95014
-6.9732
-6.99656
-7.02023
-7.04414
-7.06828
-7.09257
-7.11702
-7.14153
-7.16609
-7.19063
-7.2151
-7.23943
-7.26358
-7.28745
-7.311
-7.33411
-7.35674
-7.37877
-7.40013
-7.4207
-7.4404
-7.4591
-7.47672
-7.49312
-7.50819
-7.5218
-7.53384
-7.54416
-7.55264
-7.55913
-7.56351
-7.56561
-7.56531
-7.56244
-7.55686
-7.54841
-7.53694
-7.52226
-7.50423
-7.48265
-7.45734
-7.4281
-7.39474
-7.35704
-7.31477
-7.26768
-7.21553
-7.15803
-7.09489
-7.02581
-6.95043
-6.86839
-6.77929
-6.68274
-6.57833
-6.46561
-6.34407
-6.21318
-6.07238
-5.92116
-5.75893
-5.58513
-5.39916
-5.20041
-4.98827
-4.76214
-4.52145
-4.26565
-3.99425
-3.70681
-3.40295
-3.08239
-2.74495
-2.39057
-2.01937
-1.63162
-1.22782
-0.808694
-0.375206
0.0714369
0.529776
0.998078
1.4744
1.95657
2.44229
2.92915
3.41477
3.89663
4.37238
4.83968
5.29647
5.74076
6.17087
6.58527
6.98281
7.36245
7.72355
8.06557
8.3883
8.69168
8.97589
9.24122
9.48815
9.7172
9.92905
10.1244
10.3039
10.4685
10.6191
10.7563
10.8812
10.9945
11.0972
11.19
11.2737
11.3492
11.4171
11.4781
11.5329
11.5822
11.6264
11.6663
11.7022
11.7348
11.7643
11.7914
11.8163
11.8393
11.861
11.8814
11.9009
11.9198
11.9381
11.9562
11.974
11.9919
12.0097
12.0277
12.0457
12.0639
12.0817
12.0995
12.1126
12.1354
12.0992
-6.48744
-6.49913
-6.51589
-6.53031
-6.54182
-6.55156
-6.56015
-6.56797
-6.57536
-6.58261
-6.58995
-6.5976
-6.60567
-6.6143
-6.62357
-6.63354
-6.64424
-6.65572
-6.66799
-6.68106
-6.69493
-6.70959
-6.72503
-6.74124
-6.75818
-6.77585
-6.7942
-6.81322
-6.83285
-6.85309
-6.87386
-6.89516
-6.91693
-6.93915
-6.96178
-6.9848
-7.00815
-7.03182
-7.05575
-7.07993
-7.10429
-7.12882
-7.15343
-7.1781
-7.20276
-7.22737
-7.25184
-7.27613
-7.30015
-7.32384
-7.34711
-7.36987
-7.39204
-7.41352
-7.43421
-7.45402
-7.47282
-7.49052
-7.50699
-7.52213
-7.5358
-7.54789
-7.55825
-7.56678
-7.57332
-7.57775
-7.57992
-7.57969
-7.57692
-7.57147
-7.56319
-7.55191
-7.53749
-7.51975
-7.49854
-7.47366
-7.44493
-7.41215
-7.37512
-7.33362
-7.28741
-7.23623
-7.17982
-7.11788
-7.05011
-6.97615
-6.89565
-6.8082
-6.7134
-6.61085
-6.50007
-6.38054
-6.25173
-6.11306
-5.96401
-5.80395
-5.63234
-5.44851
-5.25187
-5.04174
-4.81753
-4.5786
-4.32442
-4.05444
-3.76818
-3.46523
-3.14525
-2.80805
-2.45348
-2.08168
-1.69284
-1.28749
-0.86628
-0.430213
0.0195869
0.481567
0.954042
1.43486
1.92193
2.41271
2.9049
3.39578
3.88294
4.36368
4.83582
5.29701
5.74543
6.17915
6.59682
6.99707
7.37905
7.74197
8.08546
8.40921
8.71329
8.99783
9.26323
9.5099
9.73849
9.9496
10.1441
10.3226
10.4861
10.6353
10.7713
10.8949
11.0069
11.1082
11.1998
11.2822
11.3564
11.423
11.4828
11.5364
11.5844
11.6275
11.6662
11.7011
11.7325
11.7611
11.7871
11.8111
11.8333
11.8541
11.8737
11.8925
11.9107
11.9284
11.9458
11.963
11.9802
11.9974
12.0146
12.0317
12.0486
12.0648
12.0805
12.0908
12.1104
12.0684
-6.50244
-6.51314
-6.52838
-6.54175
-6.5527
-6.56215
-6.57061
-6.57843
-6.58587
-6.59324
-6.60071
-6.60849
-6.61669
-6.62542
-6.63477
-6.6448
-6.65555
-6.66706
-6.67934
-6.6924
-6.70625
-6.72089
-6.73628
-6.75245
-6.76934
-6.78696
-6.80525
-6.82423
-6.84383
-6.86404
-6.8848
-6.9061
-6.92788
-6.95014
-6.97281
-6.99589
-7.01931
-7.04308
-7.06713
-7.09144
-7.11595
-7.14063
-7.16541
-7.19026
-7.21511
-7.2399
-7.26456
-7.28903
-7.31322
-7.33707
-7.36048
-7.38338
-7.40566
-7.42725
-7.44801
-7.46788
-7.48673
-7.50445
-7.52093
-7.53605
-7.54969
-7.56174
-7.57205
-7.58052
-7.587
-7.59137
-7.59349
-7.59324
-7.59046
-7.58502
-7.57678
-7.56559
-7.55131
-7.53376
-7.5128
-7.48825
-7.45992
-7.42764
-7.3912
-7.35038
-7.30495
-7.25467
-7.19927
-7.13846
-7.07192
-6.99932
-6.92028
-6.8344
-6.74128
-6.64049
-6.53155
-6.41394
-6.28708
-6.15043
-6.0034
-5.8454
-5.6758
-5.49396
-5.29923
-5.09093
-4.86842
-4.63107
-4.37829
-4.1095
-3.8242
-3.52194
-3.20234
-2.86513
-2.51017
-2.13748
-1.74728
-1.34003
-0.916399
-0.477311
-0.0239408
0.442201
0.919294
1.4052
1.89762
2.39405
2.89194
3.38855
3.8812
4.36723
4.84423
5.30991
5.7623
6.19954
6.62017
7.0229
7.40682
7.7712
8.11567
8.43999
8.74425
9.02863
9.29354
9.53944
9.767
9.97689
10.1699
10.3469
10.5088
10.6564
10.7907
10.9126
11.0229
11.1226
11.2124
11.2933
11.3659
11.4309
11.4892
11.5414
11.588
11.6298
11.6672
11.7008
11.731
11.7584
11.7834
11.8063
11.8276
11.8475
11.8663
11.8844
11.9018
11.9188
11.9356
11.9522
11.9688
11.9853
12.0017
12.0178
12.0336
12.0482
12.0619
12.0696
12.0864
12.0396
-6.51969
-6.52918
-6.54256
-6.55453
-6.56457
-6.5734
-6.58145
-6.58898
-6.59624
-6.60347
-6.61086
-6.61857
-6.62671
-6.6354
-6.64469
-6.65467
-6.66536
-6.67681
-6.68902
-6.70202
-6.71581
-6.7304
-6.74575
-6.76187
-6.77873
-6.79634
-6.81462
-6.8336
-6.8532
-6.87343
-6.89423
-6.91559
-6.93746
-6.95983
-6.98263
-7.00585
-7.02943
-7.05337
-7.0776
-7.10211
-7.12682
-7.15171
-7.1767
-7.20176
-7.2268
-7.25179
-7.27663
-7.30127
-7.32561
-7.34959
-7.37311
-7.39608
-7.41842
-7.44002
-7.46079
-7.48062
-7.4994
-7.51704
-7.5334
-7.54839
-7.56187
-7.57374
-7.58387
-7.59214
-7.59842
-7.6026
-7.60453
-7.6041
-7.60117
-7.59561
-7.58728
-7.57605
-7.56178
-7.54431
-7.52348
-7.49915
-7.47112
-7.43923
-7.40327
-7.36305
-7.31832
-7.26886
-7.21438
-7.15462
-7.08924
-7.01791
-6.94026
-6.85588
-6.76434
-6.66525
-6.55808
-6.44231
-6.31733
-6.18262
-6.03752
-5.88149
-5.71382
-5.53388
-5.34096
-5.1344
-4.91351
-4.67764
-4.42615
-4.15845
-3.87399
-3.57227
-3.25288
-2.91547
-2.55989
-2.18604
-1.79419
-1.38468
-0.958239
-0.515698
-0.0583217
0.412446
0.894578
1.38602
1.88419
2.38668
2.89056
3.39316
3.89143
4.38285
4.86467
5.33476
5.79087
6.23138
6.65459
7.05943
7.44481
7.81021
8.15514
8.47955
8.78344
9.06713
9.33097
9.57558
9.80156
10.0097
10.2009
10.3759
10.5357
10.6813
10.8135
10.9333
11.0416
11.1393
11.2272
11.3062
11.3769
11.4403
11.4969
11.5474
11.5925
11.6327
11.6687
11.7009
11.7299
11.756
11.7799
11.8017
11.822
11.841
11.859
11.8762
11.8929
11.9093
11.9255
11.9415
11.9574
11.9732
11.9889
12.0041
12.0187
12.0318
12.0437
12.049
12.0631
12.0124
-6.5381
-6.54621
-6.55754
-6.56788
-6.57676
-6.58471
-6.59205
-6.59904
-6.60586
-6.61274
-6.61983
-6.62728
-6.6352
-6.64368
-6.6528
-6.66261
-6.67316
-6.68448
-6.69658
-6.70949
-6.72319
-6.73771
-6.753
-6.76909
-6.78592
-6.80351
-6.82181
-6.8408
-6.86045
-6.88075
-6.90164
-6.92312
-6.94513
-6.96766
-6.99063
-7.01404
-7.03783
-7.06197
-7.08641
-7.11113
-7.13605
-7.16114
-7.18633
-7.21157
-7.23679
-7.26192
-7.28688
-7.31161
-7.33601
-7.36002
-7.38353
-7.40646
-7.42872
-7.45021
-7.47082
-7.49046
-7.50903
-7.52641
-7.54249
-7.55717
-7.57033
-7.58185
-7.59162
-7.59953
-7.60545
-7.60926
-7.61085
-7.61009
-7.60686
-7.60103
-7.59248
-7.58108
-7.56669
-7.54918
-7.52838
-7.50416
-7.47634
-7.44476
-7.40921
-7.36951
-7.32542
-7.27672
-7.22312
-7.16436
-7.10011
-7.03003
-6.95374
-6.87085
-6.78092
-6.68348
-6.57808
-6.46411
-6.34101
-6.20818
-6.06503
-5.9109
-5.74514
-5.56704
-5.37591
-5.17102
-4.95167
-4.71719
-4.46689
-4.20014
-3.91634
-3.61496
-3.29553
-2.95768
-2.60116
-2.2259
-1.83204
-1.41998
-0.990346
-0.544033
-0.082252
0.393438
0.881024
1.37824
1.88255
2.39124
2.90134
3.40989
3.91385
4.41048
4.89705
5.37124
5.83085
6.27414
6.69953
7.1059
7.49227
7.85807
8.20295
8.52684
8.82983
9.11223
9.37448
9.61721
9.84112
10.0471
10.2359
10.4085
10.5659
10.709
10.8388
10.9562
11.0622
11.1577
11.2434
11.3203
11.3891
11.4505
11.5053
11.554
11.5974
11.6361
11.6705
11.7013
11.7289
11.7538
11.7765
11.7972
11.8165
11.8346
11.8517
11.8682
11.8842
11.9
11.9155
11.931
11.9463
11.9615
11.9764
11.9907
12.0042
12.016
12.026
12.0292
12.0407
11.9872
-6.55667
-6.56333
-6.57258
-6.58115
-6.58867
-6.5955
-6.60191
-6.6081
-6.61425
-6.62054
-6.62713
-6.63414
-6.64167
-6.64982
-6.65865
-6.66821
-6.67852
-6.68964
-6.70157
-6.71433
-6.7279
-6.74231
-6.75753
-6.77356
-6.79036
-6.80794
-6.82625
-6.84529
-6.86501
-6.8854
-6.90642
-6.92804
-6.9502
-6.97289
-6.99605
-7.01964
-7.04362
-7.06794
-7.09254
-7.11741
-7.14246
-7.16767
-7.19296
-7.21828
-7.24353
-7.26868
-7.29362
-7.31828
-7.34257
-7.36643
-7.38975
-7.41245
-7.43443
-7.4556
-7.47586
-7.49511
-7.51325
-7.53017
-7.54577
-7.55994
-7.57258
-7.58357
-7.5928
-7.60016
-7.60554
-7.60882
-7.6099
-7.60866
-7.60499
-7.59876
-7.58987
-7.57819
-7.56359
-7.54594
-7.5251
-7.50092
-7.47325
-7.44192
-7.40675
-7.36754
-7.32407
-7.27611
-7.22339
-7.16564
-7.10253
-7.03371
-6.95883
-6.87741
-6.78908
-6.69332
-6.58965
-6.47746
-6.35621
-6.22523
-6.08396
-5.93168
-5.76775
-5.5914
-5.40195
-5.19862
-4.98071
-4.74748
-4.49822
-4.23226
-3.94894
-3.64771
-3.32802
-2.9895
-2.63181
-2.25488
-1.8588
-1.44397
-1.01092
-0.560619
-0.0942122
0.386575
0.879803
1.38292
1.89345
2.40828
2.92449
3.43875
3.94817
4.44965
4.94065
5.41849
5.88116
6.32666
6.75366
7.1609
7.54763
7.91319
8.25743
8.58019
8.8817
9.16223
9.42236
9.6627
9.88409
10.0873
10.2735
10.4433
10.5979
10.7383
10.8654
10.9802
11.0837
11.1767
11.2602
11.3349
11.4015
11.4609
11.5138
11.5607
11.6024
11.6394
11.6723
11.7016
11.7279
11.7515
11.773
11.7927
11.8109
11.8281
11.8445
11.8602
11.8756
11.8908
11.9058
11.9207
11.9355
11.95
11.9643
11.9778
11.9902
12.0006
12.009
12.0102
12.0193
11.9636
-6.57534
-6.58062
-6.58782
-6.59456
-6.60052
-6.60599
-6.61117
-6.61627
-6.62144
-6.62688
-6.6327
-6.63904
-6.64597
-6.65359
-6.66195
-6.67109
-6.68104
-6.69185
-6.70349
-6.71601
-6.72937
-6.74361
-6.75868
-6.77459
-6.79131
-6.80884
-6.82712
-6.84615
-6.86588
-6.88631
-6.90737
-6.92904
-6.95126
-6.97402
-6.99724
-7.02091
-7.04495
-7.06933
-7.09397
-7.11885
-7.14387
-7.16902
-7.1942
-7.21938
-7.24445
-7.26937
-7.29402
-7.31837
-7.34229
-7.36574
-7.3886
-7.41081
-7.43225
-7.45286
-7.4725
-7.49113
-7.50859
-7.52483
-7.53972
-7.55318
-7.56507
-7.57534
-7.58384
-7.59049
-7.59517
-7.59779
-7.59822
-7.59639
-7.59216
-7.58546
-7.57613
-7.56411
-7.54923
-7.53141
-7.51049
-7.48633
-7.45882
-7.42773
-7.39295
-7.35423
-7.31141
-7.26421
-7.21243
-7.15571
-7.09378
-7.02626
-6.95276
-6.87288
-6.78612
-6.69202
-6.59005
-6.47962
-6.36013
-6.23098
-6.09149
-5.94101
-5.77879
-5.60413
-5.41625
-5.21439
-4.9978
-4.76571
-4.51739
-4.25209
-3.96913
-3.66789
-3.34783
-3.00844
-2.64943
-2.27066
-1.87224
-1.45446
-1.01791
-0.563495
-0.0924909
0.393434
0.892159
1.40112
1.91752
2.43823
2.96005
3.47967
3.99395
4.49985
4.99463
5.47564
5.94068
6.38786
6.81578
7.22327
7.60958
7.97426
8.31714
8.63818
8.93759
9.21573
9.4732
9.71071
9.92914
10.1294
10.3124
10.4792
10.6309
10.7683
10.8925
11.0046
11.1054
11.1959
11.277
11.3494
11.4139
11.4713
11.5222
11.5673
11.6072
11.6426
11.6739
11.7018
11.7267
11.7491
11.7695
11.7881
11.8054
11.8218