/*--------------------------------*- C++ -*----------------------------------*\
  =========                 |
  \\      /  F ield         | OpenFOAM: The Open Source CFD Toolbox
   \\    /   O peration     | Website:  https://openfoam.org
    \\  /    A nd           | Version:  8
     \\/     M anipulation  |
\*---------------------------------------------------------------------------*/
FoamFile
{
    version     2.0;
    format      ascii;
    class       surfaceScalarField;
    location    "150";
    object      phi;
}
// * * * * * * * * * * * * * * * * * * * * * * * * * * * * * * * * * * * * * //

dimensions      [0 3 -1 0 0 0 0];

internalField   nonuniform List<scalar> 
24170
(
3.12901e-06
5.94e-08
3.04661e-06
8.23931e-08
2.9735e-06
7.31062e-08
2.90484e-06
6.86559e-08
2.84048e-06
6.43583e-08
2.7831e-06
5.73698e-08
2.73373e-06
4.93679e-08
2.69172e-06
4.20082e-08
2.65597e-06
3.57464e-08
2.62543e-06
3.05411e-08
2.5991e-06
2.63258e-08
2.57613e-06
2.2965e-08
2.55583e-06
2.02935e-08
2.53757e-06
1.82601e-08
2.5209e-06
1.66649e-08
2.50438e-06
1.65162e-08
2.48848e-06
1.59068e-08
2.49464e-08
2.46353e-06
3.45306e-06
2.35865e-08
3.457e-06
7.845e-08
3.45053e-06
7.95745e-08
3.43906e-06
8.01197e-08
3.42427e-06
7.91509e-08
3.407e-06
7.46305e-08
3.38775e-06
6.86178e-08
3.36718e-06
6.25712e-08
3.34598e-06
5.6941e-08
3.32474e-06
5.17822e-08
3.30392e-06
4.71347e-08
3.28381e-06
4.30715e-08
3.26459e-06
3.95105e-08
3.24629e-06
3.65623e-08
3.22897e-06
3.39761e-08
3.2126e-06
3.2888e-08
3.19757e-06
3.09362e-08
3.57264e-08
3.18678e-06
3.66815e-06
1.79482e-08
3.67919e-06
6.74124e-08
3.68541e-06
7.33557e-08
3.68943e-06
7.60982e-08
3.69101e-06
7.75691e-08
3.69002e-06
7.56179e-08
3.68685e-06
7.17822e-08
3.68197e-06
6.74488e-08
3.67577e-06
6.31406e-08
3.66857e-06
5.89831e-08
3.66064e-06
5.50617e-08
3.65222e-06
5.1484e-08
3.6435e-06
4.8234e-08
3.63461e-06
4.54448e-08
3.6256e-06
4.29888e-08
3.61691e-06
4.15694e-08
3.60781e-06
4.00392e-08
4.1454e-08
3.60208e-06
3.92584e-06
1.74913e-08
3.93591e-06
5.7348e-08
3.94255e-06
6.67135e-08
3.94807e-06
7.05715e-08
3.95246e-06
7.31724e-08
3.95538e-06
7.26936e-08
3.95702e-06
7.01416e-08
3.95761e-06
6.68534e-08
3.95735e-06
6.34015e-08
3.95637e-06
5.99577e-08
3.95481e-06
5.66183e-08
3.95279e-06
5.3506e-08
3.95038e-06
5.06374e-08
3.94769e-06
4.81296e-08
3.94475e-06
4.59348e-08
3.94189e-06
4.44258e-08
3.93881e-06
4.3116e-08
4.29495e-08
3.93731e-06
4.2082e-06
1.64216e-08
4.21597e-06
4.95713e-08
4.22166e-06
6.10275e-08
4.22674e-06
6.54826e-08
4.23147e-06
6.84453e-08
4.23541e-06
6.8749e-08
4.23855e-06
6.70068e-08
4.24098e-06
6.44184e-08
4.24282e-06
6.15614e-08
4.24415e-06
5.86272e-08
4.24504e-06
5.57199e-08
4.24559e-06
5.29604e-08
4.24583e-06
5.03907e-08
4.24586e-06
4.81025e-08
4.2457e-06
4.60886e-08
4.2456e-06
4.45281e-08
4.24552e-06
4.31979e-08
4.22813e-08
4.24618e-06
4.51071e-06
1.48014e-08
4.51687e-06
4.34062e-08
4.5221e-06
5.57908e-08
4.5269e-06
6.06822e-08
4.53159e-06
6.37542e-08
4.53581e-06
6.45274e-08
4.53945e-06
6.33669e-08
4.54256e-06
6.12989e-08
4.54523e-06
5.88897e-08
4.54751e-06
5.63432e-08
4.54946e-06
5.37734e-08
4.55112e-06
5.12928e-08
4.55255e-06
4.89593e-08
4.55381e-06
4.68402e-08
4.55496e-06
4.49444e-08
4.55614e-06
4.3343e-08
4.55742e-06
4.19119e-08
4.05841e-08
4.55912e-06
4.83433e-06
1.31939e-08
4.83961e-06
3.81177e-08
4.84472e-06
5.06796e-08
4.84941e-06
5.59969e-08
4.85402e-06
5.91447e-08
4.8583e-06
6.02392e-08
4.86214e-06
5.95303e-08
4.86556e-06
5.78772e-08
4.86862e-06
5.58261e-08
4.87137e-06
5.35926e-08
4.87384e-06
5.12981e-08
4.87609e-06
4.9047e-08
4.87814e-06
4.69037e-08
4.88006e-06
4.4918e-08
4.88191e-06
4.31007e-08
4.88378e-06
4.14672e-08
4.88576e-06
3.99311e-08
3.8371e-08
4.88797e-06
5.18104e-06
1.17304e-08
5.18574e-06
3.34198e-08
5.19073e-06
4.56905e-08
5.19536e-06
5.13635e-08
5.19992e-06
5.45819e-08
5.20425e-06
5.59088e-08
5.2082e-06
5.55691e-08
5.21181e-06
5.42684e-08
5.21511e-06
5.25224e-08
5.21815e-06
5.0557e-08
5.22094e-06
4.84979e-08
5.22354e-06
4.64435e-08
5.22599e-06
4.44589e-08
5.22832e-06
4.25829e-08
5.2306e-06
4.08233e-08
5.23289e-06
3.91701e-08
5.23527e-06
3.75562e-08
3.58731e-08
5.23776e-06
5.55269e-06
1.03779e-08
5.55687e-06
2.92331e-08
5.56167e-06
4.08978e-08
5.56625e-06
4.67742e-08
5.57079e-06
5.00417e-08
5.57517e-06
5.15334e-08
5.57923e-06
5.14996e-08
5.58299e-06
5.05091e-08
5.58648e-06
4.90348e-08
5.58973e-06
4.73091e-08
5.59276e-06
4.54598e-08
5.59562e-06
4.35808e-08
5.59835e-06
4.1735e-08
5.60097e-06
3.99551e-08
5.60355e-06
3.82463e-08
5.60613e-06
3.65909e-08
5.60875e-06
3.49356e-08
3.32056e-08
5.61141e-06
5.95104e-06
9.1179e-09
5.95477e-06
2.5494e-08
5.95933e-06
3.6338e-08
5.96386e-06
4.22369e-08
5.96839e-06
4.55173e-08
5.9728e-06
4.71165e-08
5.97697e-06
4.73289e-08
5.98086e-06
4.66107e-08
5.98451e-06
4.53815e-08
5.98795e-06
4.38746e-08
5.99119e-06
4.2218e-08
5.99426e-06
4.05011e-08
5.99721e-06
3.87836e-08
6.00007e-06
3.70955e-08
6.00287e-06
3.54416e-08
6.00566e-06
3.38054e-08
6.00845e-06
3.21479e-08
3.04246e-08
6.01122e-06
6.37798e-06
7.94966e-09
6.38133e-06
2.21401e-08
6.38564e-06
3.20233e-08
6.39011e-06
3.77695e-08
6.39461e-06
4.10156e-08
6.39905e-06
4.26711e-08
6.40331e-06
4.30701e-08
6.40734e-06
4.25839e-08
6.41114e-06
4.15748e-08
6.41474e-06
4.02681e-08
6.41817e-06
3.87906e-08
6.42144e-06
3.72268e-08
6.42459e-06
3.56332e-08
6.42765e-06
3.40391e-08
6.43064e-06
3.24508e-08
6.43358e-06
3.08578e-08
6.43649e-06
2.92334e-08
2.75599e-08
6.43936e-06
5.74176e-06
7.02601e-09
5.74433e-06
1.95633e-08
5.74779e-06
2.8564e-08
5.7515e-06
3.40552e-08
5.75528e-06
3.723e-08
5.75905e-06
3.88989e-08
5.76271e-06
3.94102e-08
5.76621e-06
3.90868e-08
5.76953e-06
3.82443e-08
5.77271e-06
3.70937e-08
5.77574e-06
3.57583e-08
5.77864e-06
3.43196e-08
5.78145e-06
3.28309e-08
5.78416e-06
3.1321e-08
5.78681e-06
2.97998e-08
5.78941e-06
2.82615e-08
5.79195e-06
2.66906e-08
2.50841e-08
5.79442e-06
6.99914e-06
6.04479e-09
7.00186e-06
1.68372e-08
7.00561e-06
2.48105e-08
7.00976e-06
2.99025e-08
7.01406e-06
3.2927e-08
7.01839e-06
3.45643e-08
7.02264e-06
3.51577e-08
7.02675e-06
3.49834e-08
7.03068e-06
3.4307e-08
7.03445e-06
3.3319e-08
7.03807e-06
3.21378e-08
7.04155e-06
3.08382e-08
7.04491e-06
2.94714e-08
7.04816e-06
2.80665e-08
7.05133e-06
2.66358e-08
7.05441e-06
2.51815e-08
7.0574e-06
2.3695e-08
2.21903e-08
7.0603e-06
8.53188e-06
5.01418e-09
8.53472e-06
1.39878e-08
8.53874e-06
2.07897e-08
8.54333e-06
2.53176e-08
8.54816e-06
2.8087e-08
8.5531e-06
2.96284e-08
8.558e-06
3.02563e-08
8.56278e-06
3.0203e-08
8.5674e-06
2.96822e-08
8.57186e-06
2.88593e-08
8.57615e-06
2.784e-08
8.5803e-06
2.66955e-08
8.58429e-06
2.5471e-08
8.58816e-06
2.41968e-08
8.59191e-06
2.28878e-08
8.59554e-06
2.15524e-08
8.59905e-06
2.01903e-08
1.88226e-08
8.60241e-06
1.04003e-05
3.9424e-09
1.04032e-05
1.10344e-08
1.04075e-05
1.65217e-08
1.04125e-05
2.03071e-08
1.04179e-05
2.26911e-08
1.04235e-05
2.40512e-08
1.04291e-05
2.46489e-08
1.04346e-05
2.46722e-08
1.044e-05
2.4286e-08
1.04453e-05
2.36216e-08
1.04503e-05
2.27723e-08
1.04552e-05
2.17974e-08
1.04599e-05
2.07403e-08
1.04645e-05
1.96273e-08
1.04689e-05
1.84779e-08
1.04732e-05
1.73023e-08
1.04773e-05
1.61075e-08
1.49174e-08
1.04812e-05
1.26779e-05
2.83452e-09
1.2681e-05
7.96945e-09
1.26855e-05
1.20034e-08
1.26909e-05
1.48628e-08
1.26969e-05
1.67085e-08
1.27032e-05
1.77796e-08
1.27096e-05
1.82667e-08
1.27159e-05
1.83092e-08
1.27222e-05
1.80239e-08
1.27283e-05
1.75078e-08
1.27342e-05
1.68314e-08
1.274e-05
1.60446e-08
1.27455e-05
1.51811e-08
1.27509e-05
1.42666e-08
1.27561e-05
1.33174e-08
1.2761e-05
1.2348e-08
1.27657e-05
1.13646e-08
1.03951e-08
1.27703e-05
1.54543e-05
1.67859e-09
1.54576e-05
4.74601e-09
1.54624e-05
7.17403e-09
1.54683e-05
8.92093e-09
1.5475e-05
1.00608e-08
1.5482e-05
1.07186e-08
1.54893e-05
1.1004e-08
1.54966e-05
1.10009e-08
1.55038e-05
1.07788e-08
1.5511e-05
1.03964e-08
1.55179e-05
9.89904e-09
1.55246e-05
9.31969e-09
1.55311e-05
8.68249e-09
1.55374e-05
8.00563e-09
1.55434e-05
7.30318e-09
1.55491e-05
6.58665e-09
1.55546e-05
5.86312e-09
5.15608e-09
1.55599e-05
1.88389e-05
4.34027e-10
1.88424e-05
1.23666e-09
1.88477e-05
1.85682e-09
1.88543e-05
2.28658e-09
1.88618e-05
2.54612e-09
1.88699e-05
2.66252e-09
1.88782e-05
2.65799e-09
1.88867e-05
2.55171e-09
1.88951e-05
2.36337e-09
1.89034e-05
2.11025e-09
1.89115e-05
1.80691e-09
1.89193e-05
1.4648e-09
1.89269e-05
1.09394e-09
1.89342e-05
7.02574e-10
1.89412e-05
2.9818e-10
1.89479e-05
-1.12462e-10
1.89543e-05
-5.25235e-10
-9.21738e-10
1.89604e-05
2.29648e-05
-1.0017e-09
2.29689e-05
-2.84985e-09
2.29751e-05
-4.37068e-09
2.29829e-05
-5.51942e-09
2.29917e-05
-6.31676e-09
2.30012e-05
-6.84857e-09
2.30111e-05
-7.20347e-09
2.30211e-05
-7.4348e-09
2.3031e-05
-7.58148e-09
2.30408e-05
-7.67334e-09
2.30504e-05
-7.73663e-09
2.30596e-05
-7.78449e-09
2.30685e-05
-7.82709e-09
2.30771e-05
-7.86726e-09
2.30853e-05
-7.90889e-09
2.30931e-05
-7.95032e-09
2.31006e-05
-7.99357e-09
-8.02534e-09
2.31077e-05
1.68118e-05
-2.12979e-09
1.6815e-05
-6.03524e-09
1.68199e-05
-9.22249e-09
1.68259e-05
-1.15469e-08
1.68326e-05
-1.3066e-08
1.68398e-05
-1.40098e-08
1.68471e-05
-1.45637e-08
1.68545e-05
-1.48342e-08
1.68619e-05
-1.48976e-08
1.6869e-05
-1.48295e-08
1.6876e-05
-1.46798e-08
1.68826e-05
-1.44848e-08
1.68891e-05
-1.42623e-08
1.68952e-05
-1.40294e-08
1.69011e-05
-1.37915e-08
1.69067e-05
-1.3556e-08
1.69121e-05
-1.3323e-08
-1.30879e-08
1.69171e-05
1.46357e-05
-3.21321e-09
1.46387e-05
-9.13623e-09
1.46435e-05
-1.3958e-08
1.46492e-05
-1.7319e-08
1.46556e-05
-1.9389e-08
1.46622e-05
-2.06179e-08
1.46689e-05
-2.12768e-08
1.46755e-05
-2.15004e-08
1.46821e-05
-2.14217e-08
1.46884e-05
-2.11556e-08
1.46945e-05
-2.07796e-08
1.47003e-05
-2.03372e-08
1.47059e-05
-1.98598e-08
1.47113e-05
-1.93675e-08
1.47163e-05
-1.88744e-08
1.47212e-05
-1.83866e-08
1.47258e-05
-1.79099e-08
-1.7438e-08
1.47301e-05
1.27411e-05
-4.22735e-09
1.27443e-05
-1.22765e-08
1.27491e-05
-1.88083e-08
1.27548e-05
-2.29909e-08
1.27608e-05
-2.54016e-08
1.2767e-05
-2.68145e-08
1.27732e-05
-2.74923e-08
1.27793e-05
-2.75846e-08
1.27852e-05
-2.72983e-08
1.27908e-05
-2.67992e-08
1.27962e-05
-2.61773e-08
1.28013e-05
-2.54833e-08
1.28062e-05
-2.47558e-08
1.28109e-05
-2.40185e-08
1.28153e-05
-2.32889e-08
1.28195e-05
-2.25724e-08
1.28234e-05
-2.18762e-08
-2.11946e-08
1.28272e-05
1.10918e-05
-5.07493e-09
1.1095e-05
-1.55096e-08
1.11001e-05
-2.3951e-08
1.11058e-05
-2.8638e-08
1.11116e-05
-3.11649e-08
1.11174e-05
-3.2661e-08
1.11232e-05
-3.32574e-08
1.11287e-05
-3.31367e-08
1.1134e-05
-3.26014e-08
1.11391e-05
-3.1849e-08
1.11438e-05
-3.09711e-08
1.11484e-05
-3.00251e-08
1.11527e-05
-2.9053e-08
1.11567e-05
-2.80851e-08
1.11606e-05
-2.71339e-08
1.11642e-05
-2.621e-08
1.11677e-05
-2.53147e-08
-2.44474e-08
1.11709e-05
9.65582e-06
-5.68524e-09
9.65926e-06
-1.89432e-08
9.66461e-06
-2.93113e-08
9.67013e-06
-3.41539e-08
9.67571e-06
-3.67466e-08
9.68129e-06
-3.82473e-08
9.68665e-06
-3.86206e-08
9.69171e-06
-3.81977e-08
9.69649e-06
-3.73816e-08
9.70101e-06
-3.63667e-08
9.70526e-06
-3.52316e-08
9.70927e-06
-3.40363e-08
9.71304e-06
-3.28283e-08
9.71659e-06
-3.16363e-08
9.71993e-06
-3.04761e-08
9.72308e-06
-2.93538e-08
9.72603e-06
-2.82718e-08
-2.72266e-08
9.72881e-06
8.40533e-06
-5.65856e-09
8.40965e-06
-2.32665e-08
8.41489e-06
-3.45587e-08
8.41994e-06
-3.9198e-08
8.42532e-06
-4.21322e-08
8.43075e-06
-4.36781e-08
8.43586e-06
-4.37314e-08
8.44059e-06
-4.29311e-08
8.44499e-06
-4.17799e-08
8.44907e-06
-4.04538e-08
8.45286e-06
-3.90231e-08
8.45637e-06
-3.75499e-08
8.45963e-06
-3.60838e-08
8.46264e-06
-3.46519e-08
8.46543e-06
-3.32696e-08
8.46802e-06
-3.19427e-08
8.47042e-06
-3.06736e-08
-2.94577e-08
8.47265e-06
7.31455e-06
-2.92311e-09
7.3212e-06
-2.99169e-08
7.32676e-06
-4.01208e-08
7.33172e-06
-4.41632e-08
7.33713e-06
-4.75468e-08
7.34247e-06
-4.90181e-08
7.34737e-06
-4.86305e-08
7.35181e-06
-4.73669e-08
7.35581e-06
-4.57819e-08
7.35939e-06
-4.40347e-08
7.36257e-06
-4.22051e-08
7.36538e-06
-4.03675e-08
7.36787e-06
-3.85723e-08
7.37006e-06
-3.68442e-08
7.37199e-06
-3.51985e-08
7.37368e-06
-3.36378e-08
7.37517e-06
-3.21626e-08
-3.07629e-08
7.37647e-06
6.36245e-06
4.6908e-09
6.3719e-06
-3.93647e-08
6.37933e-06
-4.75569e-08
6.38598e-06
-5.08161e-08
6.39228e-06
-5.38427e-08
6.39761e-06
-5.4347e-08
6.40192e-06
-5.29429e-08
6.40542e-06
-5.08666e-08
6.40824e-06
-4.86021e-08
6.41044e-06
-4.62403e-08
6.41209e-06
-4.386e-08
6.41326e-06
-4.15365e-08
6.41401e-06
-3.93213e-08
6.4144e-06
-3.72318e-08
6.41448e-06
-3.52823e-08
6.41431e-06
-3.34686e-08
6.41394e-06
-3.17916e-08
-3.02327e-08
6.4134e-06
5.5412e-06
8.95162e-09
5.55033e-06
-4.84927e-08
5.55835e-06
-5.55828e-08
5.56606e-06
-5.8528e-08
5.57254e-06
-6.0316e-08
5.57687e-06
-5.8685e-08
5.57913e-06
-5.51993e-08
5.5797e-06
-5.14422e-08
5.57897e-06
-4.78658e-08
5.5772e-06
-4.4474e-08
5.57462e-06
-4.12854e-08
5.57143e-06
-3.83423e-08
5.56776e-06
-3.5653e-08
5.56373e-06
-3.32093e-08
5.55946e-06
-3.10079e-08
5.55502e-06
-2.90316e-08
5.55051e-06
-2.72834e-08
-2.57125e-08
5.54599e-06
4.86004e-06
-2.34851e-08
4.86539e-06
-5.38384e-08
4.86525e-06
-5.54431e-08
4.86218e-06
-5.54666e-08
4.85702e-06
-5.51551e-08
4.84953e-06
-5.11955e-08
4.83984e-06
-4.55158e-08
4.82846e-06
-4.00631e-08
4.8159e-06
-3.5308e-08
4.80264e-06
-3.12127e-08
4.78906e-06
-2.77052e-08
4.77544e-06
-2.47223e-08
4.76197e-06
-2.21871e-08
4.74879e-06
-2.00285e-08
4.73598e-06
-1.81996e-08
4.72362e-06
-1.66675e-08
4.7118e-06
-1.54708e-08
-1.5128e-08
4.70121e-06
4.17919e-06
4.12535e-06
4.06991e-06
4.01444e-06
3.95929e-06
3.90809e-06
3.86258e-06
3.82251e-06
3.7872e-06
3.75599e-06
3.72829e-06
3.70356e-06
3.68138e-06
3.66135e-06
3.64315e-06
3.62648e-06
3.61101e-06
3.59588e-06
1.92338e-08
-1.93017e-08
3.46974e-08
-1.55641e-08
4.22416e-08
-7.60307e-09
4.16865e-08
4.86841e-10
3.41694e-08
7.47555e-09
2.11551e-08
1.29595e-08
4.10282e-09
1.70201e-08
-1.58788e-08
1.99352e-08
-3.7932e-08
2.20267e-08
-6.15417e-08
2.35681e-08
-8.6339e-08
2.47753e-08
-1.12189e-07
2.58077e-08
-1.38968e-07
2.67618e-08
-1.66622e-07
2.76085e-08
-1.94825e-07
2.81899e-08
-2.23292e-07
2.84187e-08
-2.51923e-07
2.86229e-08
-2.81469e-07
2.94986e-08
-3.12675e-07
3.11984e-08
-3.46208e-07
3.34878e-08
-3.8262e-07
3.64027e-08
-4.21804e-07
3.91438e-08
-4.63537e-07
4.17218e-08
-5.10204e-07
4.66199e-08
-5.52088e-07
4.186e-08
-5.81099e-07
2.89578e-08
-6.26691e-07
4.55704e-08
-6.79144e-07
5.23876e-08
-7.19547e-07
4.03707e-08
-7.61758e-07
4.21356e-08
-8.05386e-07
4.36023e-08
-8.49855e-07
4.43958e-08
-8.94589e-07
4.47147e-08
-9.39431e-07
4.47723e-08
-9.84118e-07
4.46826e-08
-1.02868e-06
4.45025e-08
-1.07296e-06
4.42733e-08
-1.11703e-06
4.40122e-08
-1.16076e-06
4.37403e-08
-1.20428e-06
4.34607e-08
-1.24746e-06
4.31865e-08
-1.29043e-06
4.29137e-08
-1.33308e-06
4.26529e-08
-1.37553e-06
4.2399e-08
-1.41767e-06
4.21605e-08
-1.45965e-06
4.19286e-08
-1.50134e-06
4.17113e-08
-1.54289e-06
4.14974e-08
-1.58417e-06
4.12941e-08
-1.62532e-06
4.10889e-08
-1.6662e-06
4.08904e-08
-1.70696e-06
4.06846e-08
-1.74744e-06
4.04805e-08
-1.78778e-06
4.02659e-08
-1.82784e-06
4.00499e-08
-1.86773e-06
3.98169e-08
-1.90732e-06
3.95773e-08
-1.94671e-06
3.93176e-08
-1.98576e-06
3.90489e-08
-2.02459e-06
3.87541e-08
-2.06304e-06
3.84466e-08
-2.10122e-06
3.81115e-08
-2.13897e-06
3.77622e-08
-2.17641e-06
3.73805e-08
-2.21336e-06
3.69821e-08
-2.24997e-06
3.65484e-08
-2.28604e-06
3.60973e-08
-2.3217e-06
3.56095e-08
-2.35677e-06
3.51042e-08
-2.39137e-06
3.45601e-08
-2.42533e-06
3.3996e-08
-2.45875e-06
3.33886e-08
-2.49147e-06
3.27564e-08
-2.52358e-06
3.20745e-08
-2.55491e-06
3.13651e-08
-2.58557e-06
3.06019e-08
-2.61535e-06
2.98075e-08
-2.64436e-06
2.89589e-08
-2.6724e-06
2.80774e-08
-2.69956e-06
2.71321e-08
-2.72565e-06
2.6144e-08
-2.75075e-06
2.50832e-08
-2.77464e-06
2.39683e-08
-2.7974e-06
2.27603e-08
-2.8188e-06
2.148e-08
-2.83887e-06
2.0092e-08
-2.85738e-06
1.86148e-08
-2.87428e-06
1.70099e-08
-2.88936e-06
1.52712e-08
-2.90247e-06
1.33895e-08
-2.91353e-06
1.13084e-08
-2.92231e-06
9.01588e-09
-2.92858e-06
6.4807e-09
-2.93211e-06
3.74415e-09
-2.93285e-06
9.31464e-10
-2.93086e-06
-1.77845e-09
-2.92626e-06
-4.41736e-09
-2.91896e-06
-7.11842e-09
-2.90886e-06
-9.939e-09
-2.89582e-06
-1.28932e-08
-2.87972e-06
-1.59898e-08
-2.86042e-06
-1.92319e-08
-2.83777e-06
-2.26127e-08
-2.81164e-06
-2.61372e-08
-2.78187e-06
-2.97832e-08
-2.74834e-06
-3.35568e-08
-2.71091e-06
-3.7428e-08
-2.66949e-06
-4.14028e-08
-2.62398e-06
-4.54491e-08
-2.57434e-06
-4.95672e-08
-2.52049e-06
-5.37221e-08
-2.46245e-06
-5.79049e-08
-2.40018e-06
-6.20812e-08
-2.33374e-06
-6.62293e-08
-2.26317e-06
-7.03209e-08
-2.18857e-06
-7.43189e-08
-2.11005e-06
-7.8216e-08
-2.02776e-06
-8.19858e-08
-1.94192e-06
-8.55591e-08
-1.85274e-06
-8.88713e-08
-1.76046e-06
-9.1928e-08
-1.66533e-06
-9.468e-08
-1.56772e-06
-9.71228e-08
-1.46798e-06
-9.91988e-08
-1.36655e-06
-1.00945e-07
-1.26377e-06
-1.023e-07
-1.16008e-06
-1.03308e-07
-1.05583e-06
-1.03894e-07
-9.5148e-07
-1.04121e-07
-8.47346e-07
-1.03929e-07
-7.43889e-07
-1.03395e-07
-6.41392e-07
-1.02467e-07
-5.40279e-07
-1.01232e-07
-4.40782e-07
-9.96531e-08
-3.43277e-07
-9.7807e-08
-2.47898e-07
-9.57187e-08
-1.54742e-07
-9.3628e-08
-6.37043e-08
-9.1577e-08
2.54087e-08
-8.98067e-08
1.12316e-07
-8.76329e-08
1.95932e-07
-8.43505e-08
2.75759e-07
-8.0491e-08
3.51609e-07
-7.64455e-08
4.23419e-07
-7.23372e-08
4.91181e-07
-6.82423e-08
5.54948e-07
-6.41975e-08
6.14791e-07
-6.02349e-08
6.70812e-07
-5.63709e-08
7.23117e-07
-5.26232e-08
7.71835e-07
-4.90018e-08
8.17095e-07
-4.55185e-08
8.59042e-07
-4.21798e-08
8.97822e-07
-3.89935e-08
9.33596e-07
-3.59647e-08
9.6652e-07
-3.31001e-08
9.96771e-07
-3.04034e-08
1.02451e-06
-2.788e-08
1.04992e-06
-2.55327e-08
1.07318e-06
-2.33665e-08
1.09448e-06
-2.13841e-08
1.11399e-06
-1.95887e-08
1.13192e-06
-1.79817e-08
1.14844e-06
-1.65635e-08
1.16375e-06
-1.53339e-08
1.17801e-06
-1.42894e-08
1.19144e-06
-1.34273e-08
1.20417e-06
-1.2738e-08
1.2164e-06
-1.22143e-08
1.22826e-06
-1.18394e-08
1.23988e-06
-1.15965e-08
1.25136e-06
-1.14515e-08
1.26276e-06
-1.13666e-08
1.27406e-06
-1.12688e-08
1.28516e-06
-1.10555e-08
1.29572e-06
-1.05165e-08
1.30502e-06
-9.246e-09
1.31134e-06
-6.24724e-09
1.30973e-06
1.67996e-09
1.28873e-06
2.10599e-08
6.67448e-08
1.222e-06
9.37566e-09
-2.87345e-08
9.70087e-09
-1.59544e-08
4.72688e-09
-2.66446e-09
-4.16945e-09
9.34798e-09
-1.65367e-08
1.9819e-08
-3.22661e-08
2.86615e-08
-5.11791e-08
3.59134e-08
-7.30217e-08
4.17536e-08
-9.74615e-08
4.64488e-08
-1.24203e-07
5.02864e-08
-1.52973e-07
5.35288e-08
-1.83578e-07
5.63873e-08
-2.15841e-07
5.90104e-08
-2.49748e-07
6.1488e-08
-2.85414e-07
6.38425e-08
-3.23103e-07
6.60799e-08
-3.62851e-07
6.83592e-08
-4.04398e-07
7.10192e-08
-4.47421e-07
7.42113e-08
-4.91752e-07
7.77942e-08
-5.36937e-07
8.15771e-08
-5.82878e-07
8.50646e-08
-6.28968e-07
8.78004e-08
-6.72035e-07
8.96664e-08
-7.19247e-07
8.90577e-08
-7.77465e-07
8.71529e-08
-8.21666e-07
8.9755e-08
-8.61094e-07
9.17876e-08
-9.10338e-07
8.95939e-08
-9.57022e-07
8.87892e-08
-1.00185e-06
8.84142e-08
-1.04557e-06
8.80798e-08
-1.08853e-06
8.76548e-08
-1.13092e-06
8.71326e-08
-1.17278e-06
8.65372e-08
-1.2142e-06
8.58953e-08
-1.25517e-06
8.52299e-08
-1.29574e-06
8.45579e-08
-1.3359e-06
8.3893e-08
-1.37571e-06
8.3243e-08
-1.41514e-06
8.26147e-08
-1.45426e-06
8.20103e-08
-1.49305e-06
8.14318e-08
-1.53155e-06
8.08771e-08
-1.56974e-06
8.03455e-08
-1.60766e-06
7.98323e-08
-1.64528e-06
7.93351e-08
-1.68265e-06
7.88479e-08
-1.71973e-06
7.83678e-08
-1.75655e-06
7.78881e-08
-1.79307e-06
7.74054e-08
-1.82932e-06
7.69138e-08
-1.86527e-06
7.64114e-08
-1.90092e-06
7.58917e-08
-1.93624e-06
7.53525e-08
-1.97124e-06
7.47873e-08
-2.00588e-06
7.41954e-08
-2.04016e-06
7.35707e-08
-2.07404e-06
7.29124e-08
-2.10753e-06
7.22143e-08
-2.14058e-06
7.14776e-08
-2.17319e-06
7.06965e-08
-2.20531e-06
6.9872e-08
-2.23695e-06
6.89976e-08
-2.26805e-06
6.80751e-08
-2.29862e-06
6.70981e-08
-2.32859e-06
6.60696e-08
-2.35798e-06
6.49833e-08
-2.38672e-06
6.38421e-08
-2.41481e-06
6.26385e-08
-2.44218e-06
6.13749e-08
-2.46884e-06
6.00421e-08
-2.49472e-06
5.86427e-08
-2.51982e-06
5.71668e-08
-2.54406e-06
5.5617e-08
-2.56746e-06
5.39825e-08
-2.58992e-06
5.2268e-08
-2.61143e-06
5.04615e-08
-2.63191e-06
4.85643e-08
-2.65134e-06
4.65604e-08
-2.66962e-06
4.44497e-08
-2.68674e-06
4.22133e-08
-2.70259e-06
3.9848e-08
-2.71714e-06
3.73314e-08
-2.73029e-06
3.46616e-08
-2.74199e-06
3.18186e-08
-2.75212e-06
2.88009e-08
-2.76063e-06
2.55854e-08
-2.7674e-06
2.21767e-08
-2.7724e-06
1.8549e-08
-2.77564e-06
1.47059e-08
-2.77713e-06
1.06419e-08
-2.77689e-06
6.36598e-09
-2.77493e-06
1.91156e-09
-2.77116e-06
-2.72196e-09
-2.76526e-06
-7.56412e-09
-2.75692e-06
-1.26547e-08
-2.74595e-06
-1.79947e-08
-2.7322e-06
-2.36058e-08
-2.71553e-06
-2.94907e-08
-2.69581e-06
-3.56618e-08
-2.67289e-06
-4.2116e-08
-2.64666e-06
-4.88524e-08
-2.61695e-06
-5.58616e-08
-2.58364e-06
-6.31271e-08
-2.54658e-06
-7.06339e-08
-2.50567e-06
-7.8355e-08
-2.46079e-06
-8.62719e-08
-2.41186e-06
-9.4349e-08
-2.35881e-06
-1.02559e-07
-2.30161e-06
-1.10855e-07
-2.24023e-06
-1.19198e-07
-2.17467e-06
-1.27527e-07
-2.10498e-06
-1.35795e-07
-2.03122e-06
-1.4393e-07
-1.9535e-06
-1.5188e-07
-1.87196e-06
-1.59577e-07
-1.78681e-06
-1.66979e-07
-1.69823e-06
-1.73977e-07
-1.60649e-06
-1.80448e-07
-1.51185e-06
-1.86353e-07
-1.41463e-06
-1.91652e-07
-1.31519e-06
-1.96274e-07
-1.21394e-06
-2.0017e-07
-1.11129e-06
-2.03324e-07
-1.00766e-06
-2.057e-07
-9.03457e-07
-2.07294e-07
-7.99116e-07
-2.08074e-07
-6.95036e-07
-2.08066e-07
-5.91624e-07
-2.0726e-07
-4.89256e-07
-2.05711e-07
-3.883e-07
-2.03424e-07
-2.89089e-07
-2.00478e-07
-1.91918e-07
-1.96906e-07
-9.69695e-08
-1.9287e-07
-4.35433e-09
-1.88486e-07
8.56138e-08
-1.83777e-07
1.72458e-07
-1.7865e-07
2.55472e-07
-1.7309e-07
3.34439e-07
-1.66903e-07
4.09783e-07
-1.59991e-07
4.81649e-07
-1.52634e-07
5.50005e-07
-1.45046e-07
6.14816e-07
-1.37375e-07
6.76077e-07
-1.29708e-07
7.33812e-07
-1.22125e-07
7.88071e-07
-1.14669e-07
8.38925e-07
-1.07389e-07
8.86465e-07
-1.00311e-07
9.30794e-07
-9.3468e-08
9.72028e-07
-8.68779e-08
1.0103e-06
-8.05639e-08
1.04574e-06
-7.45391e-08
1.0785e-06
-6.88203e-08
1.10873e-06
-6.34193e-08
1.1366e-06
-5.83477e-08
1.16227e-06
-5.36163e-08
1.18591e-06
-4.9232e-08
1.2077e-06
-4.52058e-08
1.22782e-06
-4.15405e-08
1.24644e-06
-3.8246e-08
1.26376e-06
-3.53192e-08
1.27995e-06
-3.27664e-08
1.2952e-06
-3.05788e-08
1.30967e-06
-2.87584e-08
1.32355e-06
-2.7287e-08
1.33698e-06
-2.61579e-08
1.35014e-06
-2.53416e-08
1.36315e-06
-2.48185e-08
1.37613e-06
-2.4538e-08
1.38917e-06
-2.44519e-08
1.40231e-06
-2.44663e-08
1.41555e-06
-2.44627e-08
1.42878e-06
-2.42252e-08
1.44171e-06
-2.33939e-08
1.4538e-06
-2.12685e-08
1.46395e-06
-1.63297e-08
1.47112e-06
-5.418e-09
1.47318e-06
1.90633e-08
7.45178e-08
1.46545e-06
-4.56278e-09
-2.42153e-08
-1.54126e-08
-5.14833e-09
-2.89265e-08
1.08267e-08
-4.44401e-08
2.48395e-08
-6.18157e-08
3.71793e-08
-8.11637e-08
4.79916e-08
-1.02631e-07
5.73669e-08
-1.26325e-07
6.54312e-08
-1.52258e-07
7.2369e-08
-1.80389e-07
7.84002e-08
-2.1062e-07
8.37474e-08
-2.42857e-07
8.86068e-08
-2.76987e-07
9.31279e-08
-3.12923e-07
9.74052e-08
-3.50571e-07
1.0148e-07
-3.89879e-07
1.05368e-07
-4.30655e-07
1.09125e-07
-4.72507e-07
1.12853e-07
-5.14894e-07
1.16591e-07
-5.5737e-07
1.20254e-07
-5.9949e-07
1.2369e-07
-6.41059e-07
1.26621e-07
-6.82017e-07
1.28752e-07
-7.22357e-07
1.29995e-07
-7.63556e-07
1.30248e-07
-8.06366e-07
1.2995e-07
-8.46747e-07
1.30125e-07
-8.85168e-07
1.30193e-07
-9.249e-07
1.29313e-07
-9.64451e-07
1.28323e-07
-1.00342e-06
1.27367e-07
-1.04178e-06
1.26428e-07
-1.07962e-06
1.25476e-07
-1.11701e-06
1.24504e-07
-1.15399e-06
1.23515e-07
-1.19064e-06
1.2252e-07
-1.22695e-06
1.21533e-07
-1.26297e-06
1.20562e-07
-1.2987e-06
1.19617e-07
-1.33418e-06
1.18703e-07
-1.36939e-06
1.17822e-07
-1.40437e-06
1.16976e-07
-1.43911e-06
1.16164e-07
-1.47363e-06
1.15382e-07
-1.50791e-06
1.14627e-07
-1.54198e-06
1.13893e-07
-1.57583e-06
1.13175e-07
-1.60945e-06
1.12465e-07
-1.64285e-06
1.11758e-07
-1.67601e-06
1.11046e-07
-1.70894e-06
1.10323e-07
-1.74162e-06
1.09583e-07
-1.77403e-06
1.0882e-07
-1.80618e-06
1.08028e-07
-1.83804e-06
1.07201e-07
-1.86961e-06
1.06335e-07
-1.90085e-06
1.05423e-07
-1.93175e-06
1.04463e-07
-1.9623e-06
1.03448e-07
-1.99248e-06
1.02375e-07
-2.02226e-06
1.01241e-07
-2.05162e-06
1.00042e-07
-2.08054e-06
9.87757e-08
-2.10899e-06
9.74375e-08
-2.13695e-06
9.60252e-08
-2.1644e-06
9.45352e-08
-2.19131e-06
9.29658e-08
-2.21765e-06
9.13133e-08
-2.24339e-06
8.95758e-08
-2.2685e-06
8.77488e-08
-2.29295e-06
8.58294e-08
-2.31672e-06
8.38122e-08
-2.33977e-06
8.16939e-08
-2.36207e-06
7.94679e-08
-2.38358e-06
7.71306e-08
-2.40428e-06
7.46751e-08
-2.42411e-06
7.20972e-08
-2.44303e-06
6.93882e-08
-2.461e-06
6.65409e-08
-2.47798e-06
6.3543e-08
-2.4939e-06
6.03853e-08
-2.50873e-06
5.70528e-08
-2.5224e-06
5.35329e-08
-2.53486e-06
4.98085e-08
-2.54605e-06
4.58683e-08
-2.5559e-06
4.1696e-08
-2.56436e-06
3.72809e-08
-2.57134e-06
3.26116e-08
-2.57677e-06
2.76737e-08
-2.58058e-06
2.2466e-08
-2.58274e-06
1.69682e-08
-2.5832e-06
1.11739e-08
-2.58185e-06
5.08553e-09
-2.57857e-06
-1.31439e-09
-2.57318e-06
-8.04674e-09
-2.56553e-06
-1.51572e-08
-2.55548e-06
-2.26585e-08
-2.54287e-06
-3.05662e-08
-2.52755e-06
-3.88822e-08
-2.5094e-06
-4.76177e-08
-2.48828e-06
-5.67755e-08
-2.46405e-06
-6.63557e-08
-2.43658e-06
-7.63552e-08
-2.40572e-06
-8.67563e-08
-2.37134e-06
-9.75451e-08
-2.33331e-06
-1.08688e-07
-2.29152e-06
-1.20162e-07
-2.24586e-06
-1.31922e-07
-2.19627e-06
-1.4393e-07
-2.14266e-06
-1.56129e-07
-2.08501e-06
-1.6846e-07
-2.02329e-06
-1.80848e-07
-1.95753e-06
-1.93215e-07
-1.88777e-06
-2.05471e-07
-1.81408e-06
-2.17518e-07
-1.73659e-06
-2.2926e-07
-1.65546e-06
-2.40595e-07
-1.5709e-06
-2.51434e-07
-1.48311e-06
-2.61651e-07
-1.39237e-06
-2.71074e-07
-1.29896e-06
-2.79605e-07
-1.20324e-06
-2.87201e-07
-1.10555e-06
-2.93757e-07
-1.00632e-06
-2.99211e-07
-9.05936e-07
-3.0351e-07
-8.0485e-07
-3.06631e-07
-7.03451e-07
-3.08541e-07
-6.02176e-07
-3.0924e-07
-5.01404e-07
-3.08737e-07
-4.01546e-07
-3.07062e-07
-3.02946e-07
-3.04264e-07
-2.0597e-07
-3.00398e-07
-1.10889e-07
-2.95569e-07
-1.79492e-08
-2.89896e-07
7.25738e-08
-2.83456e-07
1.60294e-07
-2.763e-07
2.44885e-07
-2.6848e-07
3.2612e-07
-2.60028e-07
4.03805e-07
-2.50945e-07
4.77905e-07
-2.41184e-07
5.48546e-07
-2.30808e-07
6.15778e-07
-2.20014e-07
6.79596e-07
-2.08993e-07
7.4e-07
-1.97885e-07
7.97004e-07
-1.8681e-07
8.50654e-07
-1.75854e-07
9.01007e-07
-1.65097e-07
9.48149e-07
-1.54591e-07
9.92172e-07
-1.44391e-07
1.03319e-06
-1.34532e-07
1.07132e-06
-1.25054e-07
1.1067e-06
-1.15981e-07
1.13947e-06
-1.07344e-07
1.16977e-06
-9.91582e-08
1.19777e-06
-9.14494e-08
1.22362e-06
-8.42293e-08
1.24749e-06
-7.75179e-08
1.26956e-06
-7.13228e-08
1.28999e-06
-6.56604e-08
1.30896e-06
-6.05341e-08
1.32665e-06
-5.59556e-08
1.34324e-06
-5.19217e-08
1.35889e-06
-4.84369e-08
1.37379e-06
-4.5491e-08
1.3881e-06
-4.30799e-08
1.40199e-06
-4.11818e-08
1.4156e-06
-3.97786e-08
1.42908e-06
-3.88323e-08
1.44256e-06
-3.83049e-08
1.45614e-06
-3.81295e-08
1.46991e-06
-3.8227e-08
1.4839e-06
-3.847e-08
1.49811e-06
-3.86822e-08
1.51245e-06
-3.85706e-08
1.5267e-06
-3.76498e-08
1.54047e-06
-3.50452e-08
1.55316e-06
-2.90261e-08
1.56421e-06
-1.64711e-08
1.57398e-06
9.28585e-09
6.26379e-08
1.58584e-06
-1.5634e-08
-8.61703e-09
-3.43553e-08
1.3541e-08
-5.41937e-08
3.06484e-08
-7.48815e-08
4.55108e-08
-9.64798e-08
5.87662e-08
-1.19181e-07
7.06795e-08
-1.43199e-07
8.1374e-08
-1.68728e-07
9.09472e-08
-1.95888e-07
9.95191e-08
-2.24736e-07
1.07234e-07
-2.55243e-07
1.14244e-07
-2.87335e-07
1.20684e-07
-3.20873e-07
1.26656e-07
-3.55698e-07
1.32216e-07
-3.91609e-07
1.37383e-07
-4.28415e-07
1.4216e-07
-4.65857e-07
1.4656e-07
-5.03629e-07
1.50612e-07
-5.41373e-07
1.54329e-07
-5.78807e-07
1.57677e-07
-6.15698e-07
1.60577e-07
-6.51989e-07
1.62902e-07
-6.87783e-07
1.64541e-07
-7.23278e-07
1.65482e-07
-7.58816e-07
1.6578e-07
-7.94491e-07
1.65616e-07
-8.29622e-07
1.65249e-07
-8.64112e-07
1.64672e-07
-8.98571e-07
1.63764e-07
-9.32929e-07
1.62669e-07
-9.6706e-07
1.61488e-07
-1.00092e-06
1.60269e-07
-1.03448e-06
1.59029e-07
-1.06777e-06
1.57781e-07
-1.1008e-06
1.56536e-07
-1.1336e-06
1.55304e-07
-1.16617e-06
1.54094e-07
-1.19853e-06
1.52916e-07
-1.2307e-06
1.51773e-07
-1.26267e-06
1.5067e-07
-1.29447e-06
1.49606e-07
-1.32608e-06
1.48583e-07
-1.35752e-06
1.47595e-07
-1.38879e-06
1.46639e-07
-1.41988e-06
1.4571e-07
-1.45079e-06
1.448e-07
-1.48152e-06
1.43902e-07
-1.51207e-06
1.43007e-07
-1.54242e-06
1.42109e-07
-1.57258e-06
1.41198e-07
-1.60253e-06
1.40267e-07
-1.63226e-06
1.39308e-07
-1.66176e-06
1.38314e-07
-1.69101e-06
1.37276e-07
-1.72001e-06
1.3619e-07
-1.74873e-06
1.35046e-07
-1.77716e-06
1.33841e-07
-1.80527e-06
1.32568e-07
-1.83306e-06
1.31222e-07
-1.86049e-06
1.29798e-07
-1.88756e-06
1.28292e-07
-1.91423e-06
1.26699e-07
-1.94048e-06
1.25016e-07
-1.96629e-06
1.23238e-07
-1.99164e-06
1.21362e-07
-2.0165e-06
1.19385e-07
-2.04085e-06
1.17303e-07
-2.06466e-06
1.15112e-07
-2.08789e-06
1.1281e-07
-2.11054e-06
1.10391e-07
-2.13256e-06
1.0785e-07
-2.15393e-06
1.05184e-07
-2.17462e-06
1.02385e-07
-2.1946e-06
9.94489e-08
-2.21383e-06
9.63674e-08
-2.23229e-06
9.31335e-08
-2.24993e-06
8.97399e-08
-2.26671e-06
8.61765e-08
-2.2826e-06
8.24329e-08
-2.29754e-06
7.8496e-08
-2.3115e-06
7.43526e-08
-2.32443e-06
6.99868e-08
-2.33627e-06
6.53824e-08
-2.34697e-06
6.05217e-08
-2.35647e-06
5.53879e-08
-2.36473e-06
4.99641e-08
-2.37166e-06
4.42344e-08
-2.37721e-06
3.81815e-08
-2.38127e-06
3.17961e-08
-2.38379e-06
2.50473e-08
-2.3847e-06
1.79323e-08
-2.3839e-06
1.04208e-08
-2.38128e-06
2.49917e-09
-2.3767e-06
-5.86053e-09
-2.37003e-06
-1.46875e-08
-2.36115e-06
-2.40164e-08
-2.34993e-06
-3.38652e-08
-2.33624e-06
-4.42505e-08
-2.31994e-06
-5.51799e-08
-2.3009e-06
-6.66628e-08
-2.27899e-06
-7.87041e-08
-2.25408e-06
-9.13011e-08
-2.22603e-06
-1.0445e-07
-2.19471e-06
-1.18128e-07
-2.15998e-06
-1.32316e-07
-2.12172e-06
-1.46976e-07
-2.07982e-06
-1.62073e-07
-2.03419e-06
-1.77552e-07
-1.98475e-06
-1.9336e-07
-1.93143e-06
-2.09418e-07
-1.87421e-06
-2.25648e-07
-1.81306e-06
-2.41946e-07
-1.748e-06
-2.58209e-07
-1.67909e-06
-2.7431e-07
-1.60641e-06
-2.90121e-07
-1.53008e-06
-3.05503e-07
-1.45027e-06
-3.20315e-07
-1.3672e-06
-3.34427e-07
-1.28108e-06
-3.47681e-07
-1.19218e-06
-3.59877e-07