/*--------------------------------*- C++ -*----------------------------------*\
  =========                 |
  \\      /  F ield         | OpenFOAM: The Open Source CFD Toolbox
   \\    /   O peration     | Website:  https://openfoam.org
    \\  /    A nd           | Version:  8
     \\/     M anipulation  |
\*---------------------------------------------------------------------------*/
FoamFile
{
    version     2.0;
    format      ascii;
    class       volVectorField;
    location    "150";
    object      U;
}
// * * * * * * * * * * * * * * * * * * * * * * * * * * * * * * * * * * * * * //

dimensions      [0 1 -1 0 0 0 0];

internalField   nonuniform List<vector> 
12225
(
(9.85699 -0.886389 0)
(9.66662 -0.740762 0)
(9.45566 -0.429469 0)
(9.22437 -0.222216 0)
(9.00628 -0.106441 0)
(8.81401 -0.0458467 0)
(8.64693 -0.0151555 0)
(8.50462 0.000487616 0)
(8.38266 0.00843563 0)
(8.27967 0.0123418 0)
(8.1908 0.0140864 0)
(8.11417 0.0151352 0)
(8.04661 0.0155599 0)
(7.98663 0.0158755 0)
(7.93164 0.0159902 0)
(7.88286 0.0168905 0)
(7.82317 0.0165983 0)
(7.81191 0.0155737 0)
(10.0545 0.227541 0)
(10.1211 0.326944 0)
(10.1196 0.261574 0)
(10.0855 0.186572 0)
(10.0433 0.134695 0)
(9.99657 0.101158 0)
(9.9438 0.0793471 0)
(9.8849 0.0646357 0)
(9.82344 0.0543544 0)
(9.7607 0.0467992 0)
(9.69906 0.0410835 0)
(9.63891 0.0366062 0)
(9.58128 0.0330681 0)
(9.5264 0.0304036 0)
(9.47385 0.0282365 0)
(9.4258 0.0281125 0)
(9.37611 0.0266358 0)
(9.3449 0.0397763 0)
(10.0035 0.0579195 0)
(10.0303 0.0560128 0)
(10.056 0.0338028 0)
(10.0703 0.032922 0)
(10.0769 0.0406911 0)
(10.0777 0.0466024 0)
(10.0723 0.0494363 0)
(10.061 0.0504069 0)
(10.0457 0.0503427 0)
(10.0271 0.0496781 0)
(10.0064 0.0487059 0)
(9.98386 0.0476458 0)
(9.96039 0.0466159 0)
(9.93628 0.0458072 0)
(9.91172 0.0451451 0)
(9.88766 0.045621 0)
(9.86322 0.0458505 0)
(9.8413 0.0512334 0)
(9.99779 0.0110595 0)
(10.011 0.0266211 0)
(10.035 0.0371779 0)
(10.0524 0.0481259 0)
(10.0642 0.0555097 0)
(10.0732 0.058263 0)
(10.0792 0.0584601 0)
(10.082 0.0577548 0)
(10.0823 0.0567544 0)
(10.0806 0.0556257 0)
(10.0773 0.0544479 0)
(10.0727 0.053356 0)
(10.067 0.0523669 0)
(10.0605 0.0516403 0)
(10.0532 0.0511307 0)
(10.0458 0.0514688 0)
(10.0382 0.0519306 0)
(10.0314 0.0546206 0)
(9.99935 0.00720529 0)
(10.009 0.0316748 0)
(10.0274 0.0439574 0)
(10.0417 0.0499758 0)
(10.0526 0.0536865 0)
(10.0627 0.0553374 0)
(10.0713 0.0556524 0)
(10.078 0.0554071 0)
(10.083 0.0549241 0)
(10.0867 0.054302 0)
(10.0893 0.0536069 0)
(10.091 0.0529509 0)
(10.0919 0.0523738 0)
(10.0922 0.0520006 0)
(10.092 0.051842 0)
(10.0916 0.0522336 0)
(10.0913 0.0528553 0)
(10.0916 0.0543233 0)
(10.0003 0.00918771 0)
(10.0083 0.0311959 0)
(10.0227 0.040988 0)
(10.0349 0.0454585 0)
(10.0449 0.0491298 0)
(10.0546 0.0514968 0)
(10.0635 0.0525193 0)
(10.071 0.0528054 0)
(10.0774 0.0527421 0)
(10.0828 0.052474 0)
(10.0875 0.0520885 0)
(10.0915 0.0516905 0)
(10.0949 0.0513394 0)
(10.0979 0.0511303 0)
(10.1005 0.0510945 0)
(10.103 0.0513916 0)
(10.1057 0.0518683 0)
(10.1088 0.0525739 0)
(10.0005 0.00895612 0)
(10.0071 0.0271175 0)
(10.019 0.0364667 0)
(10.0301 0.0414695 0)
(10.0395 0.0455239 0)
(10.0485 0.0482265 0)
(10.057 0.049543 0)
(10.0646 0.0500733 0)
(10.0713 0.0502259 0)
(10.0772 0.0501543 0)
(10.0826 0.0499476 0)
(10.0875 0.0496987 0)
(10.0919 0.0494726 0)
(10.096 0.0493386 0)
(10.0999 0.0493267 0)
(10.1037 0.0494992 0)
(10.1076 0.0497566 0)
(10.1119 0.0499745 0)
(10.0004 0.00792929 0)
(10.006 0.0234178 0)
(10.0161 0.032799 0)
(10.0262 0.0381944 0)
(10.035 0.0422246 0)
(10.0434 0.0449502 0)
(10.0515 0.0464143 0)
(10.0589 0.0471154 0)
(10.0655 0.0474244 0)
(10.0716 0.0474938 0)
(10.0772 0.0474125 0)
(10.0824 0.0472644 0)
(10.0873 0.0471127 0)
(10.0919 0.0470079 0)
(10.0963 0.0469706 0)
(10.1007 0.0470119 0)
(10.1051 0.0470503 0)
(10.1098 0.0469367 0)
(10.0004 0.00697567 0)
(10.005 0.0204721 0)
(10.0136 0.0295275 0)
(10.0228 0.0349686 0)
(10.0311 0.0388591 0)
(10.039 0.0415682 0)
(10.0466 0.0431588 0)
(10.0537 0.044006 0)
(10.0602 0.0444389 0)
(10.0663 0.0446147 0)
(10.0719 0.0446234 0)
(10.0772 0.0445418 0)
(10.0822 0.0444281 0)
(10.087 0.0443198 0)
(10.0917 0.0442281 0)
(10.0963 0.0441402 0)
(10.101 0.0439848 0)
(10.1058 0.0436406 0)
(10.0004 0.00614689 0)
(10.0043 0.0179132 0)
(10.0116 0.0263599 0)
(10.0198 0.031703 0)
(10.0275 0.0354717 0)
(10.035 0.0381499 0)
(10.0422 0.0398252 0)
(10.049 0.0407808 0)
(10.0554 0.041306 0)
(10.0613 0.0415597 0)
(10.0669 0.0416314 0)
(10.0722 0.0415914 0)
(10.0773 0.0414909 0)
(10.0821 0.0413596 0)
(10.0869 0.0412014 0)
(10.0915 0.0409959 0)
(10.0962 0.0406831 0)
(10.1009 0.04018 0)
(10.0003 0.00538893 0)
(10.0036 0.01561 0)
(10.0099 0.0233315 0)
(10.0172 0.0284807 0)
(10.0244 0.0321112 0)
(10.0314 0.034717 0)
(10.0382 0.0364216 0)
(10.0447 0.0374453 0)
(10.0509 0.0380345 0)
(10.0567 0.0383425 0)
(10.0622 0.0384564 0)
(10.0674 0.0384393 0)
(10.0725 0.0383367 0)
(10.0773 0.0381725 0)
(10.082 0.037948 0)
(10.0867 0.0376428 0)
(10.0913 0.0372108 0)
(10.0958 0.0366024 0)
(10.0003 0.0047255 0)
(10.0032 0.0136739 0)
(10.0086 0.0206932 0)
(10.0152 0.0255803 0)
(10.0218 0.0290481 0)
(10.0284 0.0315514 0)
(10.0349 0.0332399 0)
(10.0412 0.0342926 0)
(10.0471 0.0349167 0)
(10.0528 0.0352549 0)
(10.0582 0.0353906 0)
(10.0633 0.0353815 0)
(10.0683 0.0352678 0)
(10.0731 0.0350703 0)
(10.0778 0.0347902 0)
(10.0823 0.0344114 0)
(10.0868 0.0339 0)
(10.0912 0.0332324 0)
(10.0003 0.00411231 0)
(10.0027 0.0119094 0)
(10.0075 0.0182013 0)
(10.0134 0.0227497 0)
(10.0196 0.0260196 0)
(10.0258 0.0283943 0)
(10.0319 0.030033 0)
(10.0379 0.0310859 0)
(10.0437 0.0317246 0)
(10.0492 0.0320772 0)
(10.0545 0.0322225 0)
(10.0595 0.0322129 0)
(10.0644 0.0320843 0)
(10.0691 0.0318556 0)
(10.0737 0.0315293 0)
(10.0782 0.0310952 0)
(10.0825 0.0305295 0)
(10.0867 0.0298292 0)
(10.0002 0.00347884 0)
(10.0024 0.0100755 0)
(10.0064 0.0155281 0)
(10.0117 0.0196126 0)
(10.0174 0.0226008 0)
(10.0231 0.0247864 0)
(10.0289 0.0263234 0)
(10.0346 0.0273372 0)
(10.0401 0.0279633 0)
(10.0455 0.0283109 0)
(10.0506 0.0284512 0)
(10.0555 0.0284311 0)
(10.0603 0.0282821 0)
(10.0649 0.0280217 0)
(10.0694 0.0276547 0)
(10.0737 0.0271773 0)
(10.0779 0.0265757 0)
(10.0819 0.0258621 0)
(10.0002 0.00282096 0)
(10.002 0.00817011 0)
(10.0055 0.0126831 0)
(10.0101 0.0161734 0)
(10.0152 0.018777 0)
(10.0206 0.0206969 0)
(10.026 0.0220664 0)
(10.0313 0.0229872 0)
(10.0366 0.0235611 0)
(10.0417 0.023875 0)
(10.0467 0.0239898 0)
(10.0515 0.0239458 0)
(10.0561 0.0237702 0)
(10.0606 0.0234794 0)
(10.0649 0.0230808 0)
(10.0691 0.0225762 0)
(10.0731 0.0219608 0)
(10.0769 0.0212558 0)
(10.0002 0.00213772 0)
(10.0017 0.00619469 0)
(10.0047 0.00967342 0)
(10.0087 0.012435 0)
(10.0134 0.0145334 0)
(10.0182 0.0160931 0)
(10.0233 0.017214 0)
(10.0283 0.0179726 0)
(10.0333 0.0184411 0)
(10.0382 0.0186825 0)
(10.043 0.0187446 0)
(10.0476 0.0186598 0)
(10.052 0.0184507 0)
(10.0563 0.0181321 0)
(10.0605 0.017713 0)
(10.0645 0.0171996 0)
(10.0683 0.0165924 0)
(10.072 0.0159178 0)
(10.0002 0.00142582 0)
(10.0015 0.00413405 0)
(10.0041 0.00648109 0)
(10.0076 0.00837781 0)
(10.0118 0.00983822 0)
(10.0163 0.0109267 0)
(10.0209 0.0117046 0)
(10.0257 0.012221 0)
(10.0304 0.0125203 0)
(10.0351 0.012643 0)
(10.0396 0.0126205 0)
(10.044 0.012476 0)
(10.0483 0.012226 0)
(10.0524 0.0118827 0)
(10.0564 0.0114545 0)
(10.0602 0.0109494 0)
(10.0639 0.0103698 0)
(10.0674 0.00974315 0)
(10.0001 0.000668274 0)
(10.0013 0.00193494 0)
(10.0036 0.00303156 0)
(10.0069 0.0039185 0)
(10.0107 0.00459672 0)
(10.0149 0.00508843 0)
(10.0193 0.00541673 0)
(10.0237 0.0056013 0)
(10.0282 0.00566082 0)
(10.0327 0.0056126 0)
(10.037 0.00547081 0)
(10.0413 0.00524647 0)
(10.0454 0.00494804 0)
(10.0493 0.0045826 0)
(10.0531 0.00415605 0)
(10.0568 0.00367449 0)
(10.0602 0.00314069 0)
(10.0636 0.0025782 0)
(10.0001 -0.000178575 0)
(10.0013 -0.000526429 0)
(10.0035 -0.000850965 0)
(10.0066 -0.00113839 0)
(10.0103 -0.00138774 0)
(10.0143 -0.00161331 0)
(10.0186 -0.00183317 0)
(10.0229 -0.00205962 0)
(10.0273 -0.00230087 0)
(10.0316 -0.00256315 0)
(10.0358 -0.00285206 0)
(10.0399 -0.00317095 0)
(10.0439 -0.00352193 0)
(10.0477 -0.00390537 0)
(10.0513 -0.00432102 0)
(10.0548 -0.00476684 0)
(10.0581 -0.00524277 0)
(10.0613 -0.0057313 0)
(10.0001 -0.000989833 0)
(10.0013 -0.00289152 0)
(10.0037 -0.00458794 0)
(10.007 -0.00599632 0)
(10.0109 -0.00711276 0)
(10.0151 -0.00799776 0)
(10.0194 -0.00871265 0)
(10.0238 -0.00930007 0)
(10.0282 -0.00979452 0)
(10.0325 -0.0102285 0)
(10.0367 -0.0106272 0)
(10.0408 -0.0110084 0)
(10.0447 -0.0113836 0)
(10.0485 -0.0117615 0)
(10.052 -0.0121471 0)
(10.0555 -0.0125436 0)
(10.0587 -0.0129532 0)
(10.0618 -0.0133652 0)
(10.0002 -0.00168983 0)
(10.0015 -0.00495808 0)
(10.0041 -0.00785498 0)
(10.0078 -0.0101774 0)
(10.012 -0.0119457 0)
(10.0165 -0.0133106 0)
(10.0211 -0.0143782 0)
(10.0257 -0.015206 0)
(10.0302 -0.015851 0)
(10.0346 -0.0163727 0)
(10.0389 -0.0168156 0)
(10.0429 -0.0172094 0)
(10.0469 -0.0175734 0)
(10.0506 -0.0179222 0)
(10.0542 -0.018265 0)
(10.0575 -0.018608 0)
(10.0608 -0.0189552 0)
(10.0638 -0.0192993 0)
(10.0002 -0.0023545 0)
(10.0017 -0.00699958 0)
(10.0047 -0.0111184 0)
(10.009 -0.0142647 0)
(10.0138 -0.0165378 0)
(10.0186 -0.0182486 0)
(10.0235 -0.0195572 0)
(10.0283 -0.0205347 0)
(10.033 -0.021263 0)
(10.0376 -0.0218232 0)
(10.0419 -0.022273 0)
(10.046 -0.0226487 0)
(10.05 -0.0229778 0)
(10.0537 -0.0232797 0)
(10.0573 -0.0235682 0)
(10.0607 -0.0238504 0)
(10.0639 -0.0241327 0)
(10.0669 -0.0244094 0)
(10.0002 -0.00297643 0)
(10.0018 -0.00906592 0)
(10.0054 -0.0144025 0)
(10.0105 -0.0182734 0)
(10.0159 -0.0209992 0)
(10.0212 -0.0230037 0)
(10.0264 -0.0244419 0)
(10.0315 -0.0254394 0)
(10.0365 -0.0261508 0)
(10.0411 -0.0266861 0)
(10.0456 -0.0271023 0)
(10.0498 -0.0274353 0)
(10.0538 -0.0277148 0)
(10.0575 -0.0279635 0)
(10.0611 -0.0281957 0)
(10.0645 -0.0284198 0)
(10.0676 -0.0286415 0)
(10.0707 -0.028858 0)
(10.0001 -0.00352464 0)
(10.0018 -0.0115265 0)
(10.0063 -0.0178483 0)
(10.0123 -0.0219319 0)
(10.0184 -0.024985 0)
(10.0241 -0.0273809 0)
(10.0298 -0.0290057 0)
(10.0352 -0.0300032 0)
(10.0403 -0.0306439 0)
(10.0451 -0.031093 0)
(10.0497 -0.0314182 0)
(10.0539 -0.0316607 0)
(10.058 -0.0318542 0)
(10.0618 -0.0320231 0)
(10.0653 -0.0321805 0)
(10.0687 -0.0323343 0)
(10.0718 -0.0324876 0)
(10.0748 -0.0326377 0)
(9.99991 -0.00337518 0)
(10.0016 -0.014949 0)
(10.0073 -0.0226956 0)
(10.0143 -0.0261966 0)
(10.0207 -0.028773 0)
(10.0269 -0.0311281 0)
(10.0332 -0.0328393 0)
(10.0392 -0.0339177 0)
(10.0446 -0.0346085 0)
(10.0496 -0.0350642 0)
(10.0543 -0.0353556 0)
(10.0586 -0.0355371 0)
(10.0627 -0.035655 0)
(10.0664 -0.0357398 0)
(10.0698 -0.0358101 0)
(10.073 -0.0358757 0)
(10.076 -0.0359415 0)
(10.0788 -0.0360061 0)
(9.9986 -0.000393922 0)
(9.99909 -0.0157421 0)
(10.0076 -0.0274066 0)
(10.0166 -0.0324592 0)
(10.0238 -0.0348276 0)
(10.0307 -0.0361755 0)
(10.0377 -0.0369195 0)
(10.0442 -0.0373787 0)
(10.05 -0.0377203 0)
(10.0552 -0.0379612 0)
(10.0598 -0.038101 0)
(10.0639 -0.0381654 0)
(10.0675 -0.0381839 0)
(10.0707 -0.0381774 0)
(10.0735 -0.0381616 0)
(10.076 -0.0381449 0)
(10.0781 -0.0381314 0)
(10.08 -0.0381187 0)
(9.99488 0.00133852 0)
(9.99288 -0.00808239 0)
(10.0061 -0.0203349 0)
(10.0202 -0.0322535 0)
(10.0307 -0.0404495 0)
(10.0393 -0.044115 0)
(10.0468 -0.0450212 0)
(10.053 -0.0448706 0)
(10.058 -0.0443982 0)
(10.0618 -0.0437975 0)
(10.0649 -0.0431489 0)
(10.0671 -0.0425097 0)
(10.0685 -0.0419136 0)
(10.0694 -0.0413684 0)
(10.0698 -0.0408842 0)
(10.0697 -0.0404577 0)
(10.0692 -0.0400862 0)
(10.0685 -0.0397444 0)
(9.99473 -0.0305594 0)
(9.99926 -0.0228646 0)
(10.0147 -0.00262325 0)
(10.0304 -0.00189257 0)
(10.0435 -0.0116375 0)
(10.0534 -0.0208968 0)
(10.0595 -0.0272495 0)
(10.062 -0.0314731 0)
(10.0617 -0.0342441 0)
(10.0593 -0.0359369 0)
(10.0553 -0.0368662 0)
(10.05 -0.0372979 0)
(10.0438 -0.0374225 0)
(10.0368 -0.0373594 0)
(10.0293 -0.0371992 0)
(10.0214 -0.0369971 0)
(10.0133 -0.0368185 0)
(10.0051 -0.0366321 0)
(10.0273 -0.182757 0)
(10.0763 -0.288309 0)
(10.0872 -0.247748 0)
(10.0777 -0.18651 0)
(10.0664 -0.140284 0)
(10.0538 -0.108206 0)
(10.0366 -0.0858635 0)
(10.0146 -0.0704008 0)
(9.98951 -0.0596294 0)
(9.96251 -0.0518538 0)
(9.93457 -0.0460306 0)
(9.90629 -0.041532 0)
(9.87815 -0.0379755 0)
(9.85049 -0.0351007 0)
(9.82354 -0.0327353 0)
(9.79741 -0.030816 0)
(9.77235 -0.029302 0)
(9.74839 -0.028486 0)
(9.93574 0.68932 0)
(9.86862 0.609607 0)
(9.76456 0.380627 0)
(9.62669 0.217448 0)
(9.48597 0.119275 0)
(9.35733 0.0631958 0)
(9.24284 0.0315857 0)
(9.14134 0.0136272 0)
(9.05171 0.00327526 0)
(8.97278 -0.00278554 0)
(8.90293 -0.0063409 0)
(8.8408 -0.00845983 0)
(8.78515 -0.00971024 0)
(8.73509 -0.0104573 0)
(8.6897 -0.0109608 0)
(8.6484 -0.0112302 0)
(8.61024 -0.0114395 0)
(8.57492 -0.0121026 0)
(0.0105108 -0.0211657 -5.76703e-19)
(0.0262362 -0.022077 3.13044e-19)
(0.0354441 -0.0129761 0)
(0.0386867 -0.00195204 0)
(0.0349345 0.00762128 0)
(0.025532 0.0147182 -1.22537e-19)
(0.0119217 0.0194485 0)
(-0.0047012 0.022309 0)
(-0.0234396 0.0238498 0)
(-0.043759 0.0245551 0)
(-0.0653552 0.0247989 7.41467e-20)
(-0.0880273 0.0248736 0)
(-0.111655 0.0249976 0)
(-0.136153 0.025109 0)
(-0.161312 0.0249383 0)
(-0.186827 0.0245697 5.32356e-20)
(-0.212435 0.0251712 0)
(-0.238181 0.0284427 0)
(-0.265115 0.034054 0)
(-0.294262 0.041221 0)
(-0.325573 0.0504285 0)
(-0.359455 0.0588977 0)
(-0.396276 0.0661123 0)
(-0.432903 0.0788884 5.32319e-20)
(-0.473046 0.0555195 -6.98998e-20)
(-0.514757 0.00471542 6.33383e-20)
(-0.54321 0.0620047 5.01362e-20)
(-0.579584 0.0847442 0)
(-0.630386 0.0385431 0)
(-0.665773 0.0373747 -6.29288e-20)
(-0.704519 0.0383969 -6.02951e-20)
(-0.744534 0.0390632 0)
(-0.785103 0.0392115 0)
(-0.825888 0.0390808 -5.36697e-20)
(-0.866697 0.0387906 0)
(-0.907427 0.0384086 0)
(-0.948017 0.0379789 4.85743e-20)
(-0.988433 0.0375223 0)
(-1.02866 0.0370592 4.57976e-20)
(-1.06868 0.0365945 8.91118e-20)
(-1.10851 0.0361381 0)
(-1.14813 0.0356866 0)
(-1.18757 0.0352492 0)
(-1.22683 0.0348239 0)
(-1.26591 0.0344171 0)
(-1.30484 0.0340227 7.72205e-20)
(-1.34361 0.0336459 7.5619e-20)
(-1.38225 0.0332788 7.4099e-20)
(-1.42075 0.0329256 0)
(-1.45913 0.032578 -7.12763e-20)
(-1.49738 0.0322411 0)
(-1.53551 0.0319055 6.87019e-20)
(-1.57352 0.0315771 6.74949e-20)
(-1.6114 0.0312478 0)
(-1.64914 0.0309224 0)
(-1.68674 0.0305909 0)
(-1.72419 0.0302601 6.31035e-20)
(-1.76146 0.0299214 0)
(-1.79855 0.0295812 0)
(-1.83545 0.0292292 0)
(-1.87213 0.0288744 0)
(-1.90858 0.0285074 0)
(-1.94476 0.0281364 0)
(-1.98067 0.0277503 0)
(-2.01628 0.027359 0)
(-2.05157 0.0269515 -5.49698e-20)
(-2.08651 0.0265392 0)
(-2.12109 0.0261111 0)
(-2.15526 0.02568 5.25898e-20)
(-2.18902 0.0252347 5.18185e-20)
(-2.22232 0.0247892 0)
(-2.25514 0.0243325 -5.0301e-20)
(-2.28746 0.023879 4.95527e-20)
(-2.31923 0.0234149 0)
(-2.35043 0.0229529 -4.8073e-20)
(-2.38102 0.0224748 0)
(-2.41096 0.0219915 0)
(-2.4402 0.0214855 4.58865e-20)
(-2.46869 0.0209629 0)
(-2.49639 0.0203973 -4.4442e-20)
(-2.52324 0.0197933 0)
(-2.5492 0.0191253 4.29976e-20)
(-2.57418 0.0183982 4.22718e-20)
(-2.59814 0.0175865 4.15419e-20)
(-2.621 0.0167031 8.16131e-20)
(-2.64266 0.0157321 -8.01299e-20)
(-2.66302 0.0146937 0)
(-2.68196 0.013579 0)
(-2.69935 0.0124062 0)
(-2.71502 0.0111876 -7.40592e-20)
(-2.72888 0.00991122 -7.25138e-20)
(-2.74075 0.00858514 7.0958e-20)
(-2.75043 0.00719475 0)
(-2.75765 0.00576225 -6.77915e-20)
(-2.76222 0.00433071 -6.61459e-20)
(-2.76413 0.00296808 -6.44169e-20)
(-2.76369 0.00164629 0)
(-2.76076 0.000287575 0)
(-2.75525 -0.00113887 0)
(-2.74703 -0.00264422 -5.67783e-20)
(-2.73598 -0.0042374 0)
(-2.72196 -0.00592514 0)
(-2.70482 -0.0077096 4.99811e-20)
(-2.68442 -0.00960006 0)
(-2.66062 -0.0115915 0)
(-2.63325 -0.013695 4.17887e-20)
(-2.6022 -0.0159018 0)
(-2.56734 -0.0182231 0)
(-2.52856 -0.0206478 -3.15944e-20)
(-2.48577 -0.0231835 -2.76234e-20)
(-2.43893 -0.0258159 0)
(-2.38796 -0.028545 1.86282e-20)
(-2.33285 -0.0313539 0)
(-2.2736 -0.0342271 -7.98578e-21)
(-2.21024 -0.0371479 0)
(-2.14281 -0.0400689 4.61314e-21)
(-2.07142 -0.0430131 1.1746e-20)
(-1.99615 -0.045945 0)
(-1.91721 -0.0487944 0)
(-1.83478 -0.0515944 0)
(-1.74899 -0.0542877 0)
(-1.66015 -0.0568202 0)
(-1.56852 -0.0592107 0)
(-1.47446 -0.0614129 0)
(-1.37832 -0.0634283 9.42481e-20)
(-1.28048 -0.0652202 -1.08434e-19)
(-1.18132 -0.0668087 0)
(-1.08121 -0.0681404 0)
(-0.980539 -0.0692404 0)
(-0.879686 -0.0700749 0)
(-0.779027 -0.0706766 -3.93314e-19)
(-0.678929 -0.0710183 0)
(-0.579731 -0.0711416 4.83836e-19)
(-0.48176 -0.0710322 -5.34508e-19)
(-0.38532 -0.0707406 0)
(-0.290665 -0.0702368 0)
(-0.197913 -0.0695276 0)
(-0.107681 -0.0685751 7.84359e-19)
(-0.01884 -0.0668983 8.22676e-19)
(0.0689991 -0.0641176 0)
(0.153947 -0.0607159 7.85078e-19)
(0.235451 -0.0571786 7.64444e-19)
(0.313343 -0.0536906 -7.46466e-19)
(0.387462 -0.0502981 0)
(0.457755 -0.0470288 0)
(0.524231 -0.0438903 -7.0423e-19)
(0.586937 -0.0408906 0)
(0.645946 -0.0380281 0)
(0.70135 -0.035304 0)
(0.753253 -0.0327146 0)
(0.801769 -0.0302595 6.5831e-19)
(0.847025 -0.0279346 6.51514e-19)
(0.889153 -0.0257388 0)
(0.928297 -0.0236678 6.39627e-19)
(0.964606 -0.0217206 0)
(0.998235 -0.0198938 0)
(1.02935 -0.0181865 6.25182e-19)
(1.0581 -0.0165948 0)
(1.08468 -0.0151186 6.17238e-19)
(1.10926 -0.0137559 0)
(1.13201 -0.0125068 0)
(1.15313 -0.0113677 6.07006e-19)
(1.17279 -0.0103361 0)
(1.19119 -0.00940893 6.00827e-19)
(1.20851 -0.00858451 0)
(1.22494 -0.00786081 0)
(1.24065 -0.0072344 0)
(1.25581 -0.00670037 -5.88799e-19)
(1.2706 -0.00625193 0)
(1.28515 -0.0058804 5.82542e-19)
(1.29958 -0.00557272 0)
(1.31397 -0.00531267 0)
(1.32837 -0.00507287 0)
(1.34269 -0.00481423 0)
(1.35677 -0.0044621 0)
(1.3699 -0.00387862 0)
(1.38149 -0.00274557 0)
(1.38655 -2.29484e-05 -1.12357e-18)
(1.38714 0.00626009 0)
(1.32653 0.0211406 0)
(0.00537098 -0.0529437 1.25239e-18)
(0.00982163 -0.0364532 -4.93754e-19)
(0.00719172 -0.0149211 0)
(0.00100587 0.00487828 1.46856e-19)
(-0.00836852 0.0217832 0)
(-0.020904 0.0353706 5.40934e-20)
(-0.0363764 0.0457665 -9.82624e-20)
(-0.0545632 0.0534474 -9.08418e-20)
(-0.075206 0.0590327 0)
(-0.0980498 0.0631295 -8.0218e-20)
(-0.12287 0.0662502 -3.81612e-20)
(-0.149468 0.0687909 0)
(-0.177666 0.0710306 0)
(-0.207322 0.0731291 0)
(-0.238435 0.0750547 0)
(-0.27123 0.0766743 -3.17331e-20)
(-0.305828 0.0781618 0)
(-0.342219 0.0801899 5.98603e-20)
(-0.380296 0.0831984 0)
(-0.419613 0.0869148 0)
(-0.459644 0.0908671 -5.79871e-20)
(-0.500598 0.0942865 0)
(-0.541962 0.0967924 5.85787e-20)
(-0.582045 0.099275 -3.00998e-20)
(-0.62451 0.100797 3.06463e-20)
(-0.672468 0.0999659 -2.93836e-20)
(-0.715301 0.101291 -2.76468e-20)
(-0.755567 0.104069 0)
(-0.796095 0.103063 0)
(-0.839335 0.103034 2.7088e-20)
(-0.880781 0.102865 -2.61261e-20)
(-0.921034 0.102352 0)
(-0.960527 0.101513 0)
(-0.999481 0.100444 2.45253e-20)
(-1.038 0.0992312 0)
(-1.07612 0.0979329 0)
(-1.11389 0.0965941 -2.30163e-20)
(-1.15132 0.0952426 0)
(-1.18844 0.0939024 2.19675e-20)
(-1.22526 0.0925843 -4.35127e-20)
(-1.26181 0.0913008 0)
(-1.29809 0.0900532 0)
(-1.33413 0.0888467 -8.23542e-20)
(-1.36994 0.0876776 -8.1059e-20)
(-1.40553 0.0865484 -7.98231e-20)
(-1.4409 0.0854516 3.91415e-20)
(-1.47608 0.0843877 -3.89323e-20)
(-1.51105 0.0833473 -1.14807e-19)
(-1.54583 0.0823301 7.53718e-20)
(-1.58041 0.0813254 3.73551e-20)
(-1.61479 0.0803338 0)
(-1.64897 0.079345 -3.63895e-20)
(-1.68294 0.0783609 3.55868e-20)
(-1.71668 0.0773721 0)
(-1.7502 0.0763803 0)
(-1.78347 0.0753746 0)
(-1.81648 0.0743588 -3.41936e-20)
(-1.84922 0.0733235 0)
(-1.88168 0.0722726 6.64394e-20)
(-1.91382 0.0711957 0)
(-1.94564 0.0700991 6.48704e-20)
(-1.97711 0.0689741 0)
(-2.00821 0.0678269 -6.33411e-20)
(-2.03892 0.0666467 0)
(-2.06922 0.0654414 6.18406e-20)
(-2.09908 0.0642004 -3.04054e-20)
(-2.12848 0.062933 0)
(-2.15739 0.0616281 -5.96233e-20)
(-2.18579 0.0602955 -2.95804e-20)
(-2.21365 0.058922 -2.92105e-20)
(-2.24093 0.0575168 0)
(-2.2676 0.0560656 -2.82128e-20)
(-2.29364 0.0545791 -2.80951e-20)
(-2.31901 0.0530438 0)
(-2.34369 0.0514727 2.73442e-20)
(-2.36763 0.049852 -5.36979e-20)
(-2.39079 0.0481957 0)
(-2.41314 0.0464905 -2.62024e-20)
(-2.43461 0.0447473 0)
(-2.45517 0.0429462 7.60612e-20)
(-2.47477 0.0410963 0)
(-2.49333 0.0391748 -7.36937e-20)
(-2.51081 0.0371862 -2.42311e-20)
(-2.52714 0.0351014 2.36209e-20)
(-2.54225 0.0329258 4.64243e-20)
(-2.55607 0.0306331 -4.55953e-20)
(-2.56853 0.0282279 0)
(-2.57953 0.0256813 0)
(-2.589 0.0229937 0)
(-2.59685 0.0201497 1.26905e-19)
(-2.60307 0.0171352 4.14502e-20)
(-2.60767 0.013951 -4.05048e-20)
(-2.61065 0.0106065 0)
(-2.61202 0.00715363 -3.83839e-20)
(-2.61181 0.00366124 3.75177e-20)
(-2.60985 0.000176718 3.64415e-20)
(-2.60567 -0.00335178 0)
(-2.59908 -0.00697583 0)
(-2.58995 -0.0107277 0)
(-2.57813 -0.0146114 3.17292e-20)
(-2.56347 -0.0186343 0)
(-2.54585 -0.022793 -5.8198e-20)
(-2.52512 -0.0270827 -8.30319e-20)
(-2.50113 -0.0314982 5.2446e-20)
(-2.47376 -0.036022 0)
(-2.44284 -0.0406477 2.31842e-20)
(-2.40825 -0.0453513 0)
(-2.36987 -0.050126 3.88959e-20)
(-2.32759 -0.0549443 -1.77789e-20)
(-2.28134 -0.059795 -1.57498e-20)
(-2.23104 -0.0646453 0)
(-2.17665 -0.0694772 -3.20289e-20)
(-2.11814 -0.0742545 1.66301e-20)
(-2.05553 -0.0789546 5.03756e-21)
(-1.98884 -0.0835404 0)
(-1.91814 -0.0879904 -9.90247e-22)
(-1.84353 -0.092263 -1.11821e-20)
(-1.76518 -0.0963366 0)
(-1.68328 -0.100148 -2.08604e-20)
(-1.598 -0.10361 -2.8413e-20)
(-1.50958 -0.10674 -3.63188e-20)
(-1.41832 -0.109518 0)
(-1.32451 -0.111896 0)
(-1.22853 -0.11385 0)
(-1.13076 -0.115393 3.43141e-20)
(-1.03161 -0.116499 4.19368e-20)
(-0.931476 -0.117179 0)
(-0.830756 -0.11741 1.00849e-19)
(-0.729853 -0.117221 1.1112e-19)
(-0.629161 -0.116601 0)
(-0.529062 -0.115595 1.35399e-19)
(-0.429921 -0.114201 2.85867e-19)
(-0.332085 -0.112476 -1.57011e-19)
(-0.235864 -0.110422 -1.61479e-19)
(-0.141548 -0.108097 0)
(-0.0492328 -0.105616 0)
(0.0410136 -0.103129 0)
(0.128645 -0.100578 -1.99206e-19)
(0.212975 -0.0974716 1.97889e-19)
(0.293589 -0.0934093 4.09489e-19)
(0.370614 -0.0887248 -2.11192e-19)
(0.444345 -0.0838408 2.10254e-19)
(0.514823 -0.0789328 2.18313e-19)
(0.58199 -0.0740885 0)
(0.645811 -0.0693566 0)
(0.706282 -0.0647709 -2.2363e-19)
(0.763428 -0.0603495 0)
(0.817298 -0.0561081 0)
(0.867961 -0.0520533 4.65667e-19)
(0.915502 -0.0481933 0)
(0.960019 -0.0445303 2.35586e-19)
(1.00162 -0.041068 -2.39757e-19)
(1.04044 -0.0378066 0)
(1.0766 -0.0347472 2.40695e-19)
(1.11025 -0.0318896 0)
(1.14153 -0.0292332 0)
(1.1706 -0.0267777 -2.46003e-19)
(1.19763 -0.0245208 4.92437e-19)
(1.22278 -0.0224625 -2.47659e-19)
(1.24623 -0.0205992 0)
(1.26816 -0.0189309 0)
(1.28874 -0.017452 2.48467e-19)
(1.30815 -0.0161609 0)
(1.32659 -0.0150507 2.49237e-19)
(1.34422 -0.0141177 0)
(1.36123 -0.0133511 0)
(1.37778 -0.0127432 0)
(1.39404 -0.0122793 2.49937e-19)
(1.41016 -0.0119472 0)
(1.42628 -0.0117248 -2.49388e-19)
(1.4425 -0.0115883 0)
(1.4589 -0.0114993 0)
(1.47551 -0.0114066 4.95735e-19)
(1.49226 -0.0112246 -4.94678e-19)
(1.509 -0.010804 0)
(1.52521 -0.00986455 0)
(1.54047 -0.00773543 0)
(1.55177 -0.00296955 1.48129e-18)
(1.56376 0.00831559 0)
(1.55658 0.0331619 -1.00807e-18)
(-0.00397826 -0.0542204 -1.16661e-21)
(-0.00927409 -0.0231455 4.81163e-19)
(-0.0192881 0.00475523 0)
(-0.0320137 0.0292215 -1.94849e-19)
(-0.0466545 0.0503259 0)
(-0.0629933 0.0682234 0)
(-0.0811394 0.083092 -1.75821e-23)
(-0.101232 0.0952461 6.06535e-20)
(-0.123342 0.105134 5.75364e-20)
(-0.147471 0.113265 5.50193e-20)
(-0.173567 0.120127 0)
(-0.201539 0.126123 0)
(-0.231273 0.131546 -4.99434e-20)
(-0.262662 0.136578 -9.72777e-20)
(-0.295598 0.1413 9.47324e-20)
(-0.330034 0.145757 0)
(-0.365926 0.150117 8.96857e-20)
(-0.40307 0.154683 -4.37327e-20)
(-0.441032 0.159568 0)
(-0.479265 0.164581 8.32773e-20)
(-0.517327 0.169421 4.0919e-20)
(-0.555019 0.173516 -8.01489e-20)
(-0.592276 0.17628 -3.94378e-20)
(-0.629095 0.177554 0)
(-0.666151 0.176473 7.58137e-20)
(-0.703992 0.174014 7.37465e-20)
(-0.741315 0.173821 0)
(-0.777349 0.173397 7.05696e-20)
(-0.813016 0.170503 0)
(-0.849038 0.167978 6.74904e-20)
(-0.884753 0.165702 3.31056e-20)
(-0.919992 0.16348 0)
(-0.954776 0.161224 0)
(-0.989169 0.15892 0)
(-1.02323 0.156588 0)
(-1.05699 0.154252 0)
(-1.09049 0.151936 0)
(-1.12376 0.149658 5.77726e-20)
(-1.15681 0.147432 -8.53541e-20)
(-1.18966 0.145266 0)
(-1.22232 0.143166 0)
(-1.2548 0.141133 0)
(-1.28711 0.139167 1.91514e-22)
(-1.31925 0.137263 5.30033e-20)
(-1.35124 0.135416 1.04408e-19)
(-1.38307 0.133618 -1.03057e-19)
(-1.41475 0.131863 -5.07794e-20)
(-1.44627 0.130141 5.03455e-20)
(-1.47763 0.128446 -1.95373e-22)
(-1.50883 0.126768 4.89497e-20)
(-1.53987 0.125101 0)
(-1.57073 0.123436 4.78144e-20)
(-1.60142 0.12177 -1.93773e-22)
(-1.6319 0.120094 0)
(-1.66219 0.118404 0)
(-1.69225 0.116692 -4.56899e-20)
(-1.72208 0.114957 0)
(-1.75167 0.113193 0)
(-1.78098 0.111396 4.39994e-20)
(-1.81002 0.109563 8.73892e-20)
(-1.83875 0.107692 -4.33898e-20)
(-1.86716 0.105779 0)
(-1.89522 0.103825 4.24217e-20)
(-1.92292 0.101824 0)
(-1.95022 0.0997769 4.1116e-20)
(-1.97712 0.0976804 4.09805e-20)
(-2.00359 0.0955359 -8.06664e-20)
(-2.02959 0.0933393 -3.96904e-20)
(-2.05511 0.0910925 0)
(-2.08011 0.0887898 7.77856e-20)
(-2.10457 0.0864322 0)
(-2.12846 0.0840129 1.13912e-19)
(-2.15175 0.0815325 7.4857e-20)
(-2.17441 0.0789837 7.38652e-20)
(-2.19641 0.0763677 -7.2864e-20)
(-2.21771 0.073678 1.07916e-19)
(-2.23828 0.0709167 0)
(-2.25808 0.0680759 0)
(-2.27706 0.0651549 -6.87514e-20)
(-2.29519 0.0621426 -1.01662e-19)
(-2.31241 0.0590368 0)
(-2.32867 0.055824 3.28837e-20)
(-2.34392 0.052499 0)
(-2.35811 0.0490459 -9.50706e-20)
(-2.37119 0.0454612 -2.13115e-22)
(-2.38309 0.0417311 2.02473e-22)
(-2.39375 0.0378531 5.98301e-20)
(-2.40309 0.0338162 0)
(-2.41106 0.0296192 -5.74092e-20)
(-2.41756 0.0252576 -1.41734e-22)
(-2.42257 0.020728 0)
(-2.42604 0.0160313 0)
(-2.42787 0.0111748 0)
(-2.42797 0.00616101 5.09766e-20)
(-2.4262 0.00097124 0)
(-2.42239 -0.00442389 0)
(-2.41639 -0.0100307 0)
(-2.40804 -0.0158501 0)
(-2.39721 -0.0218853 0)
(-2.38376 -0.028137 4.15516e-20)
(-2.36754 -0.0346054 0)
(-2.34844 -0.0412839 3.78721e-20)
(-2.32629 -0.0481652 3.59428e-20)
(-2.30097 -0.055232 -3.39259e-20)
(-2.27233 -0.0624675 0)
(-2.24023 -0.0698462 -2.95951e-20)
(-2.20455 -0.0773443 0)
(-2.16517 -0.0849319 -2.48092e-20)
(-2.12199 -0.0925779 2.22231e-20)
(-2.07493 -0.100245 5.9463e-20)
(-2.02393 -0.10789 0)
(-1.96894 -0.115469 4.19999e-20)
(-1.90995 -0.122927 1.17861e-20)
(-1.84697 -0.130212 0)
(-1.78005 -0.137263 8.62265e-21)
(-1.70926 -0.144027 1.31722e-21)
(-1.63473 -0.150447 1.05693e-20)
(-1.55663 -0.156479 0)
(-1.47515 -0.162042 1.26018e-20)
(-1.3905 -0.167027 1.70587e-20)
(-1.30292 -0.171394 6.22348e-20)
(-1.21273 -0.175136 0)
(-1.12025 -0.178195 0)
(-1.02586 -0.180543 0)
(-0.929932 -0.18217 3.81332e-20)
(-0.83288 -0.183068 0)
(-0.735102 -0.183238 0)
(-0.636998 -0.182685 -5.73094e-20)
(-0.538965 -0.181434 -6.26719e-20)
(-0.441386 -0.179509 0)
(-0.344633 -0.176959 0)
(-0.249056 -0.173818 -1.57516e-19)
(-0.154975 -0.170147 0)
(-0.0626543 -0.166025 1.78223e-19)
(0.0277125 -0.16158 1.82798e-19)
(0.11575 -0.156818 0)
(0.201067 -0.151682 0)
(0.283396 -0.146191 -2.02504e-19)
(0.362512 -0.140402 -3.24803e-21)
(0.438289 -0.134282 -3.08616e-21)
(0.510777 -0.127839 0)
(0.580069 -0.121213 -4.53721e-19)
(0.64617 -0.11453 0)
(0.709062 -0.107879 0)
(0.768737 -0.101326 0)
(0.825214 -0.0949223 2.46555e-19)
(0.878531 -0.0887027 0)
(0.928749 -0.0826959 -5.04499e-19)
(0.975945 -0.0769225 -2.57543e-19)
(1.02021 -0.0713993 0)
(1.06166 -0.0661388 -2.63686e-19)
(1.10039 -0.0611504 0)
(1.13655 -0.0564413 0)
(1.17026 -0.0520166 -8.11615e-19)
(1.20168 -0.0478809 5.44807e-19)
(1.23095 -0.044036 0)
(1.25823 -0.0404846 5.52693e-19)
(1.28368 -0.0372255 -2.78843e-19)
(1.30748 -0.0342604 0)
(1.32979 -0.0315858 0)
(1.35079 -0.0292013 0)
(1.37066 -0.0271004 -8.50231e-19)
(1.38956 -0.0252798 0)
(1.40769 -0.0237296 -2.8532e-19)
(1.4252 -0.0224435 0)
(1.44228 -0.0214061 0)
(1.45907 -0.0206051 0)
(1.47574 -0.0200189 0)
(1.49243 -0.0196273 0)
(1.50926 -0.019397 0)
(1.52633 -0.0192913 -5.73305e-19)
(1.54372 -0.0192521 0)
(1.56144 -0.0192028 -2.86438e-19)
(1.57945 -0.0190165 8.58099e-19)
(1.59762 -0.0184844 0)
(1.61557 -0.0172234 0)
(1.63307 -0.0144502 -5.7128e-19)
(1.64825 -0.00868526 -5.72922e-19)
(1.66469 0.00335635 5.76191e-19)
(1.67257 0.0293108 5.84606e-19)
(-0.0120061 -0.0333548 -1.7903e-18)
(-0.0240074 0.00526215 -5.77215e-19)
(-0.0391779 0.0363489 -2.12117e-19)
(-0.0568864 0.0631657 -7.65812e-20)
(-0.0757445 0.0865481 0)
(-0.0954561 0.106947 1.11072e-19)
(-0.116219 0.12463 -5.08278e-20)
(-0.13826 0.139854 0)
(-0.161735 0.152944 -4.51523e-20)
(-0.186731 0.164268 0)
(-0.213268 0.174201 8.36561e-20)
(-0.241296 0.183065 0)
(-0.270709 0.191098 3.93771e-20)
(-0.301358 0.19843 7.66598e-20)
(-0.333068 0.205108 -7.46334e-20)
(-0.365673 0.211151 0)
(-0.399008 0.216621 -7.06395e-20)
(-0.43284 0.221629 0)
(-0.466851 0.226222 0)
(-0.500728 0.230332 -6.49714e-20)
(-0.53423 0.233793 0)
(-0.567246 0.236322 4.2928e-24)
(-0.599809 0.237651 0)
(-0.632073 0.237717 0)
(-0.664238 0.236527 -3.64451e-23)
(-0.696458 0.234549 -5.58019e-20)
(-0.728529 0.232588 -5.44301e-20)
(-0.760193 0.230332 -5.32532e-20)
(-0.791599 0.227316 0)
(-0.822947 0.224079 -1.02023e-19)
(-0.854173 0.220818 0)
(-0.885211 0.217573 -4.89833e-20)
(-0.916032 0.214346 0)
(-0.946639 0.211141 0)
(-0.977047 0.20797 4.63696e-20)
(-1.00727 0.204846 0)
(-1.03733 0.201784 -4.48464e-20)
(-1.06723 0.198796 -7.22023e-23)
(-1.09698 0.195888 8.70275e-20)
(-1.12661 0.193066 -8.56843e-20)
(-1.1561 0.19033 0)
(-1.18547 0.187679 0)
(-1.21473 0.185109 -4.10258e-20)
(-1.24386 0.182612 0)
(-1.27288 0.18018 -4.01551e-20)
(-1.30178 0.177804 3.96662e-20)
(-1.33056 0.175475 3.91939e-20)
(-1.35922 0.173181 0)
(-1.38775 0.170913 -3.82929e-20)
(-1.41615 0.16866 -3.78612e-20)
(-1.4444 0.166414 7.46996e-20)
(-1.47251 0.164165 -3.70287e-20)
(-1.50046 0.161906 -3.66257e-20)
(-1.52823 0.159628 0)
(-1.55582 0.157324 0)
(-1.58321 0.154988 3.54574e-20)
(-1.61038 0.152615 0)
(-1.63733 0.150198 0)
(-1.66402 0.147734 -6.86647e-20)
(-1.69046 0.145219 -6.79271e-20)
(-1.7166 0.142649 0)
(-1.74245 0.140021 0)
(-1.76796 0.137333 0)