/*--------------------------------*- C++ -*----------------------------------*\
| =========                 |                                                 |
| \\      /  F ield         | OpenFOAM: The Open Source CFD Toolbox           |
|  \\    /   O peration     | Version:  2312                                  |
|   \\  /    A nd           | Website:  www.openfoam.com                      |
|    \\/     M anipulation  |                                                 |
\*---------------------------------------------------------------------------*/
FoamFile
{
    version     2.0;
    format      ascii;
    arch        "LSB;label=64;scalar=64";
    class       volScalarField;
    location    "100";
    object      nut_ML_ND;
}
// * * * * * * * * * * * * * * * * * * * * * * * * * * * * * * * * * * * * * //

dimensions      [0 0 0 0 0 0 0];

internalField   nonuniform List<scalar> 
404911
(
0.482356
0.547243
0.0625519
0.0739125
0.566196
0.566328
0.552853
0.0674439
0.228983
0.386197
0.570784
0.552441
0.586422
0.5604
0.535814
0.344419
0.558673
0.590513
0.579742
0.537234
0.501443
0.582433
0.489877
0.517836
0.584318
0.50426
0.572696
0.592024
0.595049
0.472196
0.581631
0.590698
0.582881
0.545975
0.569885
0.583485
0.56099
0.52332
0.551351
0.575175
0.558209
0.340393
0.543673
0.575458
0.579405
0.519708
0.524729
0.569265
0.571825
0.485391
0.42282
0.531789
0.54794
0.368862
0.458863
0.379086
0.0739187
0.577118
0.53945
0.537198
0.552564
0.57615
0.550721
0.584036
0.576943
0.556195
0.582305
0.548123
0.575436
0.581851
0.572884
0.585812
0.574382
0.578473
0.585469
0.529468
0.0684684
0.556878
0.579719
0.571705
0.577124
0.569969
0.585911
0.569764
0.578943
0.577905
0.538396
0.580353
0.367468
0.570372
0.550517
0.121081
0.577852
0.560127
0.564767
0.578666
0.574483
0.572633
0.583094
0.54649
0.510477
0.581852
0.573823
0.519099
0.515421
0.534488
0.558397
0.538552
0.568613
0.581244
0.579105
0.575305
0.572376
0.564881
0.336798
0.547331
0.578748
0.349362
0.533115
0.563319
0.56248
0.565671
0.569059
0.557003
0.516779
0.570269
0.580223
0.577141
0.572005
0.535701
0.540174
0.542462
0.569258
0.566135
0.568786
0.571057
0.563902
0.566836
0.56545
0.542343
0.522972
0.570315
0.579764
0.577399
0.570382
0.569874
0.574954
0.579531
0.525861
0.539252
0.572607
0.566694
0.568152
0.484574
0.543373
0.525611
0.573961
0.580584
0.577644
0.570435
0.570724
0.567611
0.566046
0.567178
0.566588
0.566288
0.566719
0.567182
0.563395
0.551499
0.560789
0.545425
0.549632
0.543286
0.538299
0.540141
0.526839
0.568971
0.567414
0.566739
0.567695
0.567299
0.565025
0.566895
0.569785
0.568656
0.575392
0.541355
0.554509
0.543865
0.524957
0.537455
0.541394
0.532659
0.534214
0.569592
0.569057
0.56937
0.567828
0.570736
0.574012
0.573363
0.5142
0.524517
0.577515
0.552158
0.567818
0.557106
0.552734
0.537834
0.522417
0.53943
0.536116
0.539252
0.537409
0.570345
0.569185
0.570511
0.575362
0.57597
0.547619
0.527171
0.540874
0.569801
0.569547
0.574747
0.563111
0.553924
0.543379
0.558082
0.543042
0.557544
0.565149
0.572735
0.568725
0.571849
0.576863
0.566463
0.514898
0.515116
0.565036
0.58201
0.575945
0.575461
0.576481
0.574343
0.574872
0.568858
0.549556
0.554224
0.573799
0.574409
0.550247
0.535791
0.575531
0.577904
0.517414
0.544299
0.574609
0.579924
0.567542
0.575128
0.576066
0.577334
0.579503
0.579453
0.57777
0.576307
0.575462
0.543379
0.538255
0.540861
0.542168
0.554268
0.548155
0.573141
0.5736
0.548321
0.573395
0.578168
0.578295
0.577287
0.575741
0.578977
0.578267
0.578059
0.564172
0.534766
0.537689
0.545809
0.514208
0.561704
0.581583
0.576808
0.576236
0.576467
0.576291
0.580048
0.579421
0.576677
0.567671
0.573
0.574491
0.577925
0.565611
0.544249
0.545205
0.570008
0.521409
0.520185
0.523775
0.564734
0.573166
0.579509
0.58291
0.578804
0.576462
0.578248
0.578048
0.575355
0.57158
0.57678
0.577654
0.57568
0.552158
0.576615
0.54044
0.518315
0.571959
0.582398
0.577351
0.578905
0.574526
0.573259
0.582672
0.576018
0.57602
0.574534
0.580198
0.579907
0.577362
0.578906
0.577162
0.557859
0.569292
0.547476
0.581275
0.582594
0.581534
0.578692
0.572969
0.576652
0.577371
0.582926
0.581576
0.581615
0.584031
0.582317
0.577515
0.573324
0.569257
0.578367
0.518408
0.517993
0.569886
0.580544
0.579537
0.582799
0.584322
0.582596
0.577265
0.581086
0.581976
0.583642
0.578429
0.581521
0.577657
0.572832
0.575367
0.54241
0.519106
0.56677
0.583733
0.57804
0.57314
0.577475
0.58381
0.581138
0.584159
0.586036
0.58524
0.585096
0.582019
0.580263
0.575223
0.576791
0.580739
0.565099
0.529888
0.516364
0.525554
0.563187
0.578117
0.572386
0.582287
0.58017
0.581142
0.584782
0.586476
0.587008
0.58432
0.581318
0.578984
0.574678
0.576405
0.579895
0.549961
0.558406
0.588158
0.58279
0.580404
0.580995
0.583322
0.583004
0.581623
0.58381
0.581597
0.582798
0.585702
0.582144
0.580402
0.583004
0.580839
0.56142
0.52615
0.587683
0.5923
0.584426
0.581537
0.581116
0.583147
0.584305
0.58155
0.578429
0.577499
0.578766
0.581447
0.581063
0.58184
0.580242
0.582393
0.560738
0.558881
0.591542
0.587118
0.58526
0.582578
0.582283
0.581736
0.584408
0.584067
0.580399
0.577585
0.579897
0.581114
0.578333
0.580661
0.578909
0.580957
0.519187
0.578272
0.591719
0.590111
0.586801
0.584766
0.585069
0.582827
0.576687
0.585553
0.585265
0.58151
0.581699
0.57934
0.577918
0.579656
0.580738
0.567261
0.516725
0.552053
0.586342
0.588765
0.587195
0.585245
0.584523
0.582888
0.584834
0.58589
0.583226
0.582535
0.582995
0.580982
0.578392
0.576007
0.582739
0.576604
0.519466
0.516998
0.575213
0.587697
0.583032
0.584138
0.584403
0.584075
0.585141
0.58578
0.584534
0.586143
0.584429
0.581806
0.579871
0.580264
0.581319
0.57716
0.55824
0.547917
0.58262
0.584607
0.585063
0.584298
0.583933
0.584356
0.585004
0.583495
0.586123
0.585958
0.58599
0.581976
0.580132
0.579325
0.579318
0.576341
0.516318
0.509599
0.570851
0.584628
0.584323
0.584554
0.584258
0.583952
0.583652
0.58357
0.584426
0.58308
0.585151
0.584915
0.584829
0.581163
0.5816
0.577834
0.565929
0.518135
0.584216
0.584496
0.5836
0.584248
0.584688
0.584782
0.584627
0.584204
0.584149
0.584572
0.58482
0.584701
0.584121
0.582858
0.58118
0.576667
0.558906
0.576365
0.591679
0.584483
0.582045
0.583523
0.584821
0.585081
0.585126
0.585174
0.585111
0.585087
0.584947
0.583955
0.583466
0.583187
0.582989
0.58051
0.543609
0.581489
0.592044
0.587708
0.583069
0.583758
0.585206
0.585608
0.585354
0.585474
0.585488
0.585516
0.585244
0.584545
0.583212
0.583719
0.583717
0.569675
0.516128
0.518165
0.588886
0.593902
0.590457
0.585495
0.584951
0.584962
0.58563
0.585013
0.585276
0.584959
0.585343
0.585092
0.584256
0.583402
0.581172
0.580544
0.549619
0.52517
0.589867
0.592042
0.589666
0.585504
0.584478
0.585225
0.585227
0.585866
0.58528
0.585711
0.584826
0.584475
0.582663
0.582717
0.580888
0.579033
0.515226
0.572352
0.590193
0.589553
0.587582
0.585345
0.583568
0.584606
0.585359
0.584865
0.585366
0.58582
0.585678
0.584625
0.582908
0.580521
0.583077
0.576345
0.513254
0.574739
0.589428
0.589874
0.586491
0.585103
0.584335
0.584439
0.585236
0.584892
0.584298
0.583285
0.583697
0.584061
0.582779
0.581554
0.581711
0.563362
0.518878
0.584363
0.588937
0.587755
0.58599
0.584111
0.584821
0.583907
0.585361
0.586071
0.585392
0.584899
0.583459
0.58221
0.581122
0.577608
0.578099
0.547559
0.553687
0.588232
0.588061
0.584359
0.584882
0.585287
0.585517
0.586038
0.583627
0.585033
0.58605
0.584674
0.584357
0.58357
0.581338
0.576115
0.574189
0.516004
0.572205
0.589874
0.589273
0.586332
0.585199
0.585651
0.584961
0.585453
0.584958
0.585959
0.584778
0.585733
0.58531
0.583136
0.582447
0.576323
0.563051
0.513805
0.517714
0.583908
0.589963
0.587442
0.585355
0.58479
0.585632
0.584708
0.585799
0.585771
0.585449
0.585928
0.585156
0.585218
0.584781
0.581023
0.578596
0.559761
0.517876
0.585101
0.589635
0.587678
0.584873
0.584976
0.585794
0.58593
0.583874
0.585554
0.585756
0.585703
0.586003
0.584896
0.583069
0.580398
0.575471
0.545223
0.518714
0.58696
0.589801
0.58789
0.584194
0.585228
0.58622
0.586135
0.585825
0.585916
0.58557
0.585488
0.585436
0.58571
0.582156
0.577631
0.571734
0.517985
0.518497
0.588772
0.590101
0.587705
0.584538
0.58357
0.585715
0.586053
0.585455
0.584341
0.585503
0.585804
0.5857
0.585423
0.583186
0.577108
0.560899
0.513095
0.576114
0.591891
0.589635
0.586239
0.584286
0.584085
0.584592
0.5852
0.585275
0.585743
0.585826
0.585887
0.585723
0.582602
0.581964
0.576077
0.559193
0.514864
0.580519
0.593667
0.59047
0.585015
0.583402
0.584675
0.584927
0.585169
0.584776
0.585073
0.585733
0.585296
0.585739
0.584589
0.582354
0.578394
0.561226
0.517565
0.589158
0.592319
0.587821
0.584923
0.583741
0.584106
0.584194
0.585097
0.584968
0.58301
0.582539
0.584732
0.583833
0.584164
0.581968
0.58045
0.562478
0.522487
0.588824
0.593169
0.590666
0.585482
0.583149
0.584758
0.58567
0.585232
0.584471
0.583846
0.583837
0.581787
0.581998
0.582932
0.582937
0.583708
0.562976
0.520513
0.587795
0.591888
0.59019
0.586557
0.583334
0.583168
0.58429
0.585579
0.585442
0.585659
0.584736
0.584639
0.583712
0.584039
0.584193
0.585382
0.562759
0.519273
0.588194
0.590624
0.588596
0.585919
0.584757
0.584756
0.584453
0.584506
0.58505
0.585827
0.585676
0.585093
0.584492
0.584283
0.585662
0.585115
0.551489
0.520827
0.588737
0.589571
0.587357
0.584758
0.585082
0.585742
0.585669
0.585448
0.585086
0.584497
0.584864
0.584322
0.583876
0.58382
0.582937
0.58225
0.517302
0.572777
0.589329
0.588817
0.586003
0.584099
0.584582
0.585531
0.586022
0.585955
0.585862
0.585549
0.584963
0.584235
0.583933
0.584052
0.582453
0.580853
0.514579
0.57152
0.588848
0.588314
0.586045
0.5846
0.585054
0.585658
0.585999
0.585792
0.585274
0.585961
0.585785
0.585089
0.584657
0.584259
0.582777
0.579473
0.515402
0.513149
0.583082
0.588374
0.586825
0.585126
0.584569
0.585425
0.586
0.585616
0.584579
0.584206
0.58212
0.585065
0.585363
0.584886
0.584275
0.581933
0.577637
0.515712
0.517074
0.583002
0.588301
0.5826
0.582833
0.583876
0.584098
0.585592
0.582946
0.582139
0.581944
0.580444
0.581689
0.585749
0.584762
0.58375
0.581138
0.5687
0.580397
0.585606
0.586597
0.585245
0.583312
0.584323
0.585828
0.581338
0.57869
0.578595
0.576632
0.582433
0.585619
0.584291
0.582209
0.580824
0.564552
0.516387
0.576944
0.583163
0.585282
0.58523
0.584914
0.584522
0.584802
0.585821
0.584897
0.575762
0.573394
0.581349
0.585731
0.582788
0.580217
0.578893
0.555715
0.514579
0.574303
0.579913
0.583663
0.584689
0.585349
0.58541
0.584923
0.585475
0.585776
0.584204
0.577173
0.5805
0.585682
0.584391
0.581475
0.578408
0.544024
0.511488
0.569034
0.571863
0.58023
0.583954
0.585392
0.585639
0.585831
0.585695
0.585888
0.585883
0.58563
0.585354
0.58569
0.583298
0.581801
0.577963
0.517733
0.570395
0.561702
0.578712
0.583094
0.584828
0.585293
0.585709
0.584554
0.584153
0.585277
0.586097
0.585515
0.584908
0.583225
0.579603
0.575551
0.514738
0.51677
0.57263
0.581088
0.583871
0.584178
0.584884
0.584714
0.585605
0.584179
0.581661
0.58471
0.584602
0.583782
0.58308
0.579731
0.574345
0.511446
0.387477
0.550584
0.576379
0.582044
0.58484
0.584955
0.58517
0.585139
0.584933
0.585886
0.585673
0.585222
0.585736
0.584271
0.58196
0.580202
0.572276
0.512781
0.54577
0.5749
0.579218
0.583223
0.585183
0.584765
0.585228
0.585771
0.58502
0.585498
0.585773
0.585994
0.585382
0.584656
0.580773
0.578045
0.558492
0.549067
0.565393
0.577428
0.583464
0.585603
0.585433
0.583252
0.585433
0.585634
0.585482
0.582958
0.585729
0.584093
0.582795
0.57924
0.574228
0.554628
0.50768
0.557306
0.568577
0.577264
0.582021
0.584287
0.584868
0.585262
0.585864
0.585823
0.583773
0.583438
0.585341
0.585473
0.582523
0.576825
0.570257
0.520872
0.515459
0.569205
0.572845
0.580922
0.581809
0.584744
0.58267
0.585107
0.585566
0.581504
0.584821
0.585264
0.585652
0.584183
0.579491
0.575487
0.569161
0.515893
0.519966
0.57823
0.566495
0.578156
0.583853
0.585174
0.585824
0.585838
0.584415
0.581674
0.582379
0.584666
0.585759
0.58519
0.581854
0.573051
0.571983
0.511638
0.538836
0.577633
0.578536
0.582471
0.585406
0.585681
0.584712
0.580264
0.585186
0.585068
0.585644
0.585592
0.584872
0.584595
0.583146
0.57829
0.575397
0.51312
0.512462
0.569504
0.580082
0.579691
0.582031
0.58576
0.580112
0.565326
0.574002
0.585402
0.585761
0.584737
0.583703
0.583164
0.584951
0.58044
0.578385
0.553823
0.511561
0.523049
0.582515
0.578831
0.580905
0.583218
0.585762
0.571325
0.553124
0.564546
0.584334
0.585586
0.585779
0.584782
0.584162
0.582476
0.581332
0.579209
0.571415
0.510904
0.57547
0.581077
0.583939
0.584629
0.585408
0.56863
0.553539
0.55913
0.57479
0.585775
0.586
0.584893
0.582365
0.58131
0.579095
0.581208
0.563487
0.510734
0.575209
0.583463
0.580592
0.585202
0.583924
0.557521
0.555158
0.570177
0.5758
0.583833
0.585809
0.584929
0.584233
0.582128
0.580174
0.579658
0.557787
0.579491
0.587785
0.582759
0.583248
0.583794
0.561619
0.552762
0.564505
0.582712
0.581554
0.585821
0.58545
0.582365
0.582347
0.580221
0.578793
0.545705
0.578766
0.581787
0.585037
0.582394
0.585645
0.558217
0.553213
0.56154
0.573933
0.581747
0.585343
0.585863
0.583949
0.581263
0.581134
0.57818
0.518709
0.521329
0.579875
0.584762
0.584665
0.583649
0.585998
0.573319
0.558097
0.569079
0.579588
0.585545
0.58588
0.585203
0.582916
0.582853
0.578468
0.574897
0.515794
0.520809
0.578582
0.580095
0.583069
0.583684
0.585388
0.562374
0.560734
0.573401
0.584304
0.586061
0.584669
0.582757
0.584036
0.582857
0.582619
0.565171
0.522499
0.583473
0.584332
0.58391
0.584341
0.585569
0.568973
0.557151
0.56764
0.584201
0.586038
0.584993
0.584173
0.582799
0.582346
0.581856
0.559911
0.526801
0.587892
0.586931
0.584706
0.584264
0.584359
0.560177
0.56446
0.580598
0.585609
0.585919
0.584487
0.584808
0.584055
0.582728
0.5817
0.55921
0.533097
0.593824
0.59064
0.584486
0.583388
0.585815
0.565819
0.564755
0.578721
0.585885
0.585705
0.584861
0.585084
0.584503
0.5834
0.581035
0.522066
0.538803
0.597527
0.593123
0.587643
0.58403
0.585586
0.585733
0.576505
0.57748
0.585839
0.58489
0.584373
0.585176
0.584139
0.581182
0.577749
0.520203
0.592813
0.595776
0.591249
0.584474
0.584321
0.584995
0.583975
0.585557
0.58581
0.585807
0.585318
0.585632
0.58471
0.58269
0.578766
0.574469
0.517591
0.578243
0.570658
0.581576
0.585803
0.583017
0.56231
0.576397
0.585625
0.585465
0.585494
0.585502
0.584569
0.580264
0.575497
0.56522
0.516029
0.57574
0.579184
0.579206
0.585844
0.565127
0.558751
0.565521
0.584137
0.585916
0.585274
0.58471
0.584038
0.57992
0.573589
0.556797
0.581481
0.58442
0.584157
0.574875
0.580692
0.566051
0.559353
0.571164
0.583315
0.586212
0.585299
0.585922
0.583595
0.576514
0.571438
0.550115
0.580345
0.591426
0.584188
0.578703
0.577448
0.585925
0.568605
0.571721
0.585928
0.585357
0.584648
0.581954
0.579717
0.573898
0.57137
0.519709
0.579045
0.589289
0.586167
0.578755
0.577715
0.578447
0.584494
0.584822
0.584315
0.584225
0.583521
0.580729
0.578818
0.572478
0.572055
0.516138
0.525401
0.580924
0.588312
0.582913
0.579372
0.576166
0.577998
0.580418
0.581082
0.57339
0.574822
0.576841
0.583424
0.577489
0.570369
0.541622
0.524306
0.585438
0.585956
0.579593
0.580347
0.577756
0.579078
0.581514
0.585533
0.583597
0.580729
0.57921
0.579515
0.574987
0.550467
0.568353
0.532472
0.584305
0.581032
0.578122
0.582951
0.576827
0.582325
0.582407
0.584208
0.584558
0.578589
0.575361
0.576166
0.574721
0.545764
0.522185
0.571667
0.58463
0.547119
0.557696
0.577703
0.585647
0.583424
0.585618
0.585838
0.58494
0.58224
0.581173
0.576928
0.572919
0.565654
0.380841
0.564564
0.553051
0.567828
0.579383
0.579294
0.581882
0.584279
0.580936
0.579665
0.580234
0.583643
0.57881
0.573321
0.577383
0.566784
0.533151
0.518643
0.539402
0.563387
0.574068
0.579269
0.579648
0.583423
0.583701
0.579186
0.57899
0.577259
0.57735
0.569631
0.57871
0.568455
0.515038
0.574381
0.547078
0.562332
0.577687
0.580837
0.583048
0.580612
0.579202
0.577894
0.579485
0.578409
0.576701
0.578387
0.579991
0.509382
0.515564
0.57475
0.57591
0.542767
0.553686
0.578539
0.583103
0.58244
0.578033
0.578251
0.578285
0.575429
0.577761
0.581975
0.567808
0.519135
0.546278
0.577979
0.577457
0.536934
0.532964
0.575503
0.580618
0.579936
0.579
0.577953
0.577067
0.571312
0.576563
0.575695
0.563194
0.516989
0.549542
0.539166
0.526114
0.548649
0.579723
0.580179
0.579089
0.5774
0.575012
0.569693
0.57671
0.573752
0.516199
0.523611
0.541756
0.544142
0.537878
0.550304
0.541842
0.578713
0.578486
0.577018
0.570817
0.574739
0.575146
0.558794
0.515752
0.572421
0.571253
0.538909
0.533888
0.571641
0.543455
0.527225
0.57941
0.575788
0.572195
0.576468
0.572991
0.549802
0.516698
0.571619
0.571542
0.536705
0.523615
0.548162
0.574044
0.561224
0.526959
0.555566
0.559627
0.578628
0.575322
0.513588
0.520419
0.566006
0.542361
0.527478
0.519949
0.527688
0.557634
0.561099
0.571712
0.542033
0.543833
0.58032
0.577941
0.512188
0.520913
0.562598
0.535096
0.530033
0.51857
0.517413
0.554662
0.56932
0.578401
0.56446
0.542326
0.579515
0.56784
0.515114
0.524076
0.560123
0.565489
0.52651
0.51542
0.515829
0.505862
0.570995
0.57273
0.553679
0.578914
0.58271
0.568097
0.511214
0.397867
0.47885
0.564168
0.569688
0.519045
0.517101
0.515374
0.5252
0.56043
0.538236
0.539584
0.586945
0.575045
0.570143
0.518327
0.521623
0.529897
0.576394
0.545127
0.541573
0.553046
0.565746
0.572315
0.575344
0.531271
0.533434
0.58387
0.586524
0.579033
0.524677
0.375324
0.508365
0.568063
0.542742
0.548166
0.587463
0.577461
0.281087
0.33967
0.537244
0.527173
0.577727
0.586403
0.525318
0.532251
0.524527
0.575289
0.58381
0.561308
0.523837
0.528876
0.56099
0.57441
0.583035
0.524794
0.510754
0.556732
0.478892
0.527573
0.565948
0.543229
0.571164
0.569395
0.568004
0.572896
0.558972
0.564081
0.569336
0.547604
0.542029
0.51715
0.514819
0.249446
0.52373
0.52657
0.570393
0.565028
0.554285
0.599606
0.607562
0.609167
0.603213
0.595288
0.588691
0.595093
0.614912
0.554029
0.598092
0.612373
0.617376
0.616886
0.612144
0.605332
0.597145
0.587735
0.582414
0.584964
0.591131
0.597061
0.602007
0.606618
0.550926
0.595098
0.609884
0.610926
0.60856
0.606078
0.602912
0.599242
0.594665
0.588017
0.581253
0.578963
0.581434
0.580781
0.58317
0.600499
0.604594
0.610734
0.613948
0.606042
0.591626
0.583327
0.554702
0.585839
0.602178
0.603229
0.60235
0.599503
0.595991
0.591053
0.584763
0.581896
0.582451
0.58321
0.581774
0.579115
0.559336
0.564731
0.577521
0.585893
0.594605
0.601323
0.611415
0.612868
0.591414
0.566218
0.587366
0.595201
0.59515
0.594172
0.596322
0.595785
0.592278
0.586197
0.580197
0.575054
0.575599
0.577781
0.581234
0.583687
0.582774
0.57958
0.553552
0.559376
0.584243
0.581629
0.586209
0.594951
0.608335
0.539572
0.572034
0.590061
0.591581
0.593132
0.591314
0.585508
0.572551
0.563037
0.547766
0.576239
0.571203
0.571125
0.575275
0.581668
0.58509
0.585327
0.584563
0.582588
0.578151
0.55323
0.559718
0.574818
0.571984
0.568389
0.550296
0.515673
0.573825
0.578585
0.578866
0.582236
0.582476
0.582542
0.579586
0.579224
0.581629
0.580204
0.576402
0.575041
0.575201
0.568471
0.587034
0.565174
0.587618
0.584911
0.580966
0.57483
0.547735
0.555015
0.572343
0.552713
0.522759
0.577567
0.576379
0.581837
0.585276
0.584973
0.584289
0.582766
0.584864
0.584168
0.580159
0.581006
0.582383
0.578658
0.575513
0.570059
0.595218
0.593775
0.582782
0.592999
0.590413
0.587605
0.58311
0.579625
0.559143
0.56935
0.524907
0.583087
0.582553
0.579552
0.583269
0.586281
0.585768
0.584969
0.583788
0.583412
0.585226
0.583967
0.577114
0.580425
0.581706
0.581941
0.586101
0.586863
0.589793
0.590056
0.596888
0.597313
0.593951
0.584027
0.564106
0.527436
0.56985
0.588924
0.588581
0.58932
0.580599
0.581705
0.586234
0.585886
0.585817
0.583994
0.584454
0.585934
0.584656
0.585167
0.585429
0.585501
0.585614
0.579419
0.582314
0.580878
0.588693
0.593941
0.593954
0.593225
0.572335
0.534953
0.581166
0.588432
0.585175
0.586393
0.583381
0.582434
0.586557
0.584342
0.585393
0.585238
0.585138
0.586392
0.586603
0.585908
0.583036
0.585655
0.585961
0.585284
0.583601
0.579881
0.588222
0.56987
0.580427
0.571399
0.497287
0.538754
0.511019
0.574693
0.583381
0.585063
0.584691
0.583033
0.584736
0.587
0.587776
0.587335
0.587035
0.586685
0.586572
0.586622
0.585897
0.586038
0.58422
0.584752
0.58454
0.585929
0.590865
0.594412
0.566032
0.521261
0.517902
0.576014
0.577796
0.581038
0.583551
0.583979
0.584957
0.586155
0.58625
0.587184
0.587293
0.586862
0.586946
0.586853
0.58632
0.585838
0.585737
0.585751
0.583769
0.581807
0.587614
0.595542
0.59306
0.571235
0.575003
0.595237
0.590124
0.586063
0.582337
0.584374
0.584181
0.581299
0.585866
0.586273
0.58596
0.584898
0.585919
0.587236
0.587088
0.586838
0.58664
0.585762
0.585014
0.583967
0.582965
0.579649
0.588347
0.587067
0.567542
0.574487
0.597128
0.598268
0.592809
0.585939
0.583889
0.584982
0.584505
0.585004
0.585106
0.586218
0.585989
0.586138
0.584708
0.585281
0.586874
0.586836
0.586141
0.585596
0.584019
0.582046
0.581522
0.570104
0.580091
0.559215
0.580762
0.598212
0.595284
0.594257
0.589935
0.586876
0.584067
0.584882
0.585936
0.585871
0.585566
0.585572
0.585912
0.586218
0.586287
0.585623
0.586562
0.586734
0.585178
0.583064
0.582756
0.579194
0.575823
0.564032
0.533129
0.533572
0.585155
0.600158
0.597225
0.593865
0.590534
0.588256
0.585929
0.585644
0.585675
0.586666
0.586919
0.58716
0.587112
0.586467
0.586
0.586645
0.586756
0.586569
0.586348
0.5871
0.581845
0.579205
0.577859
0.568542
0.551463
0.536376
0.587654
0.602569
0.598214
0.594065
0.590446
0.587779
0.586025
0.585704
0.585838
0.58685
0.587426
0.587553
0.587638
0.587785
0.587397
0.58676
0.584955
0.584384
0.586388
0.586418
0.585909
0.583637
0.579921
0.572207
0.553512
0.540422
0.597403
0.603958
0.596693
0.591914
0.588576
0.586761
0.585917
0.585705
0.585911
0.586097
0.584886
0.586935
0.588329
0.588117
0.587704
0.587099
0.587116
0.58751
0.585299
0.582021
0.583219
0.578639
0.576741
0.580846
0.572212
0.514629
0.530386
0.591038
0.600319
0.597125
0.591245
0.587108
0.585824
0.585657
0.585744
0.586006
0.586163
0.58668
0.586803
0.585959
0.587236
0.588966
0.588586
0.587741
0.586881
0.586702
0.587924
0.583346
0.579911
0.577866
0.57401
0.580208
0.515182
0.578915
0.598642
0.594204
0.590992
0.587162
0.585706
0.585469
0.585547
0.586357
0.58679
0.586915
0.587164
0.587655
0.587998
0.588187
0.589071
0.589672
0.58895
0.587858
0.586312
0.586437
0.585085
0.57987
0.578647
0.581424
0.559216
0.572146
0.596676
0.596254
0.592093
0.587907
0.58542
0.585773
0.584032
0.582189
0.581931
0.583728
0.585998
0.586943
0.587765
0.58871
0.589336
0.589516
0.58918
0.588033
0.585668
0.581886
0.58204
0.582765
0.582582
0.583909
0.560214
0.537131
0.59079
0.596837
0.594311
0.589646
0.586473
0.58551
0.585309
0.582677
0.57846
0.575983
0.575526
0.578856
0.584199
0.586546
0.587647
0.58851
0.588637
0.587977
0.586801
0.585617
0.583284
0.58534
0.588609
0.590346
0.565158
0.57699
0.59591
0.594978
0.59079
0.587806
0.586092
0.584171
0.580145
0.576653
0.573571
0.570669
0.570197
0.572572
0.578128
0.583528
0.586299
0.587273
0.587375
0.586902
0.58618
0.585502
0.585873
0.586176
0.585979
0.581057
0.567906
0.591908
0.591177
0.590482
0.588223
0.586518
0.583707
0.576769
0.568885
0.565549
0.565882
0.565091
0.563433
0.565498
0.571454
0.579336
0.584547
0.586507
0.586803
0.586254
0.585765
0.584947
0.586195
0.588837
0.590388
0.537454
0.534178
0.586728
0.591331
0.588876
0.58766
0.586883
0.585902
0.582675
0.570327
0.560483
0.55631
0.556693
0.558617
0.559873
0.560684
0.565913
0.575411
0.581408
0.585674
0.586547
0.586044
0.584696
0.585865
0.589069
0.591889
0.569368
0.531042
0.586528
0.591896
0.588453
0.586684
0.586056
0.585734
0.584273
0.579696
0.569545
0.559856
0.555519
0.553271
0.553431
0.555299
0.559558
0.565567
0.574446
0.583119
0.58517
0.586083
0.585537
0.586015
0.58761
0.587527
0.583097
0.524885
0.568568
0.589686
0.588957
0.58684
0.585599
0.585763
0.584903
0.582332
0.576291
0.566306
0.559194
0.55721
0.556125
0.554332
0.554896
0.560107
0.570191
0.578466
0.583041
0.585844
0.584404
0.585494
0.587532
0.588249
0.584763
0.532647
0.541592
0.590153
0.589568
0.587268
0.58551
0.585662
0.585441
0.583347
0.579889
0.573586
0.564185
0.560354
0.561422
0.563222
0.558818
0.557376
0.562608
0.574767
0.583784
0.585794
0.585227
0.585285
0.586673
0.587592
0.585824
0.534879
0.586905
0.5935
0.590886
0.587298
0.585315
0.585367
0.581389
0.58026
0.577107
0.572297
0.565243
0.561834
0.566429
0.571641
0.569637
0.562675
0.566052
0.577008
0.584698
0.585593
0.585438
0.586491
0.589962
0.58717
0.534725
0.541205
0.592881
0.591905
0.588787
0.586712
0.585721
0.585886
0.580325
0.574389
0.573922
0.573581
0.571683
0.568787
0.569062
0.574658
0.578493
0.574912
0.572997
0.582075
0.585848
0.586018
0.586684
0.587935
0.586641
0.569754
0.582093
0.591929
0.589568
0.587182
0.585874
0.584795
0.583692
0.581443
0.573572
0.568999
0.569907
0.571366
0.572673
0.572587
0.574325
0.581182
0.584968
0.58365
0.584852
0.585042
0.587014
0.58849
0.588034
0.583211
0.531648
0.526623
0.586
0.590634
0.58802
0.586349
0.585218
0.582849
0.579915
0.576834
0.573482
0.569289
0.567847
0.569597
0.570905
0.570662
0.571041
0.577042
0.584348
0.585929
0.58571
0.586179
0.587529
0.59085
0.590565
0.534073
0.570025
0.587003
0.587987
0.585783
0.585946
0.584691
0.580958
0.576267
0.572463
0.568572
0.566382
0.567265
0.569181
0.572294
0.574508
0.574173
0.575589
0.581908
0.585631
0.585919
0.586272
0.587992
0.586141
0.579462
0.519024
0.537526
0.589418
0.589902
0.587434
0.585903
0.585576
0.579486
0.576093
0.570798
0.565854
0.56343
0.561582
0.562324
0.567266
0.572257
0.577645
0.582464
0.584974
0.585369
0.585931
0.586191
0.587313
0.586497
0.582632
0.53166
0.581753
0.586933
0.587754
0.586483
0.585787
0.586018
0.580083
0.569058
0.563674
0.560963
0.559274
0.559144
0.558917
0.563282
0.571146
0.577569
0.582732
0.585517
0.5856
0.583423
0.583379
0.584219
0.585386
0.56318
0.53917
0.589792
0.58907
0.587293
0.586665
0.586002
0.585772
0.58362
0.572353
0.561765
0.557541
0.555962
0.55703
0.558983
0.562703
0.569652
0.577181
0.582338
0.585234
0.585731
0.584952
0.583631
0.580818
0.575477
0.525004
0.579207
0.589128
0.588132
0.586563
0.585911
0.585297
0.583663
0.580903
0.57557
0.566837
0.560025
0.558029
0.557939
0.561662
0.565538
0.570292
0.577164
0.582482
0.584984
0.585696
0.585044
0.583987
0.581687
0.559046
0.536743
0.58881
0.588813
0.587511
0.586417
0.585522
0.583832
0.581111
0.576075
0.570564
0.568633
0.566421
0.563894
0.56508
0.568039
0.57215
0.574728
0.578729
0.583386
0.585525
0.58556
0.585025
0.58582
0.583128
0.525966
0.578253
0.588711
0.588019
0.586808
0.586022
0.584743
0.582677
0.579391
0.574378
0.567678
0.562252
0.562641
0.565766
0.569518
0.573944
0.578799
0.582845
0.584295
0.584986
0.585743
0.584867
0.584469
0.583879
0.574563
0.535268
0.589476
0.589185
0.587581
0.586513
0.585413
0.58386
0.581092
0.57771
0.573565
0.567838
0.562515
0.559003
0.56039
0.565702
0.573841
0.580369
0.584271
0.585748
0.585612
0.585053
0.583589
0.585433
0.584403
0.529186
0.578262
0.590054
0.589024
0.587268
0.586094
0.584428
0.582108
0.579489
0.576339
0.573009
0.56895
0.562938
0.559495
0.559578
0.563767
0.57108
0.57931
0.58374
0.585671
0.585247
0.583867
0.584563
0.580777
0.574787
0.582948
0.587534
0.587776
0.586922
0.585577
0.583096
0.580195
0.577477
0.575133
0.57283
0.570513
0.567859
0.563385
0.561741
0.564807
0.572177
0.579924
0.583597
0.585315
0.585093
0.583748
0.583621
0.584633
0.534945
0.532764
0.588439
0.590176
0.588318
0.586871
0.58502
0.58175
0.578163
0.575405
0.573551
0.572259
0.571026
0.569777
0.569317
0.569006
0.570803
0.57556
0.581838
0.585484
0.585719
0.585451
0.583785
0.58098
0.57469
0.522226
0.536618
0.586725
0.588939
0.588264
0.586899
0.584987
0.5808
0.576162
0.57305
0.571383
0.570707
0.570464
0.570304
0.570493
0.571926
0.574936
0.579042
0.58273
0.585058
0.585673
0.58447
0.583382
0.579575
0.534244
0.565108
0.588858
0.588875
0.587841
0.586842
0.584313
0.578836
0.574107
0.570222
0.567665
0.567445
0.568711
0.569894
0.571014
0.572871
0.576144
0.580253
0.583582
0.585415
0.585541
0.583533
0.583066
0.57957
0.528519
0.582735
0.587921
0.588044
0.587431
0.586239
0.584238
0.578197
0.572069
0.569047
0.565668
0.562763
0.564206
0.568401
0.57109
0.573429
0.57664
0.58056
0.583993
0.585673
0.584914
0.584291
0.58123
0.57226
0.535065
0.586313
0.588133
0.587615
0.58673
0.584832
0.582162
0.577877
0.571957
0.568441
0.5668
0.564393
0.5625
0.565142
0.570608
0.574353
0.57768
0.581178
0.58418
0.585726
0.584915
0.582522
0.583312
0.531066
0.561068
0.587272
0.588085
0.587442
0.586064
0.584162
0.580418
0.575614
0.57115
0.568062
0.567078
0.567284
0.566589
0.566514
0.569605
0.574461
0.578879
0.582494
0.584729
0.585707
0.584304
0.58314
0.577832
0.52061
0.579936
0.585794
0.58703
0.586723
0.585553
0.583491
0.580255
0.574596
0.56804
0.564141
0.564638
0.566417
0.568539
0.570189
0.571511
0.574641
0.578828
0.582589
0.585121
0.58566
0.58433
0.582963
0.573284
0.530932
0.587075
0.588041
0.587355
0.586582
0.585183
0.582667
0.578836
0.57418
0.568138
0.562036
0.559042
0.561599
0.565989
0.569696
0.573016
0.576053
0.579563
0.58294
0.585457
0.585072
0.584766
0.582583
0.558354
0.560007
0.586655
0.58802
0.587112
0.586269
0.584835
0.582042
0.577151
0.571161
0.565532
0.561366
0.558619
0.557013
0.559979
0.566591
0.572054
0.57644
0.580431
0.583563
0.585517
0.584851
0.58367
0.584611
0.531019
0.574921
0.588021
0.587882
0.587322
0.586047
0.583952
0.580828
0.575999
0.56898
0.561459
0.556862
0.555886
0.556837
0.557342
0.560582
0.568771
0.575908
0.580493
0.584182
0.585731
0.585291
0.583953
0.579589
0.519805
0.581396
0.585242
0.5866
0.586851
0.585805
0.583364
0.579515
0.574872
0.569087
0.561668
0.554785
0.552034
0.553333
0.557106
0.561089
0.566632
0.574535
0.580812
0.584334
0.585794
0.584152
0.58462
0.576382
0.524228
0.586941
0.589301
0.587715
0.58657
0.58485
0.582702
0.578644
0.573846
0.569454
0.564737
0.559032
0.553164
0.550793
0.553206
0.560199
0.568474
0.575771
0.581551
0.585229
0.58522
0.584554
0.581778
0.558027
0.532913
0.588454
0.588343
0.58743
0.586474
0.584623
0.582169
0.578862
0.574014
0.569976
0.566561
0.5631
0.559381
0.554666
0.55243
0.556624
0.567126
0.577125
0.583176
0.585758
0.585428
0.583699
0.584029
0.528034
0.536761
0.585776
0.58781
0.587348
0.586462
0.584697
0.581876
0.579017
0.576076
0.572206
0.568411
0.565082
0.562177
0.559584
0.557673
0.558153
0.565566
0.576889
0.583961
0.585796
0.58463
0.586259
0.578983
0.574116
0.588115
0.588447
0.587594
0.586368
0.584714
0.58144
0.577807
0.575538
0.57394
0.571115
0.566983
0.56253
0.559207
0.559039
0.562539
0.568864
0.578306
0.584785
0.585904
0.584618
0.582414