/*--------------------------------*- C++ -*----------------------------------*\
| =========                 |                                                 |
| \\      /  F ield         | OpenFOAM: The Open Source CFD Toolbox           |
|  \\    /   O peration     | Version:  2312                                  |
|   \\  /    A nd           | Website:  www.openfoam.com                      |
|    \\/     M anipulation  |                                                 |
\*---------------------------------------------------------------------------*/
FoamFile
{
    version     2.0;
    format      ascii;
    arch        "LSB;label=64;scalar=64";
    class       volScalarField;
    location    "100";
    object      omega;
}
// * * * * * * * * * * * * * * * * * * * * * * * * * * * * * * * * * * * * * //

dimensions      [0 0 -1 0 0 0 0];

internalField   nonuniform List<scalar> 
404911
(
240.618
159.661
3436.12
1536.61
160.811
196.539
142.145
603.045
341.445
281.846
231.563
307.326
165.658
252.321
418.341
1102.18
239.197
164.047
177.896
292.87
441.657
201.997
590.784
408.553
165.69
942.475
251.126
157.2
213.819
987.239
223.62
155.695
282.3
457.277
227.039
152.817
295.235
421.182
221.935
109.303
282.003
1006.9
209.732
96.0946
129.615
385.798
319.195
110.701
130.663
741.124
382.647
313.26
164.688
1335
331.36
574.134
9402.32
112.275
324.783
217.757
192.936
121.129
164.016
48.7612
81.0924
174.242
63.0542
250.893
99.0506
75.759
136.968
34.1814
133.251
92.7852
47.3098
590.125
2262.86
239.73
84.2096
115.581
87.6048
122.639
36.1777
119.252
64.0232
75.7287
230.098
59.6458
1129.43
87.2898
142.451
2949.92
71.771
94.2148
116.548
75.5527
102.657
100.68
51.6774
218.532
594.938
55.5897
81.0602
445.619
1175.29
427.268
189.21
627.611
293.059
231.604
170.847
168.019
157.345
166.649
2198.87
460.345
176.166
4471.72
532.892
120.869
129.021
136.276
141.86
203.98
1261.82
274.691
170.954
156.001
136.386
453.129
410.296
460.391
129.229
121.721
139.881
138.332
184.368
186.893
127.263
213.563
1138.6
274.154
165.547
145.031
137.021
124.608
124.437
117.417
437.257
394.533
134.952
120.093
143.915
1717.91
209.952
936.589
224.237
152.85
137.589
134.302
122.355
127.344
128.784
125.932
122.582
120.546
122.699
124.151
132.778
197.458
359.65
544.051
406.502
367.774
375.718
375.369
441.499
126.348
132.306
127.366
126.607
127.311
137.005
150.122
154.722
151.862
260.123
671.704
430.465
355.695
341.331
251.568
298.591
469.923
384.219
115.24
133.164
132.996
140.463
148.891
155.682
183.478
1102.58
940.239
227.96
552.02
277.008
239.967
221.895
208.811
368.037
267.973
322.353
385.42
394.097
118.476
140.985
147.827
146.204
167.892
445.374
803.961
548.348
242.765
170.41
101.326
168.955
214.42
214.021
163.289
208.064
194.797
174.742
101.787
135.13
147.774
165.521
250.872
1146.39
1161.22
236.847
103.579
149.994
103.099
91.9146
104.298
118.4
152.964
202.728
192.667
121.003
115.208
255.117
415.847
138.111
181.105
1057.24
410.235
132.159
89.3675
187.364
107.045
99.7828
90.6928
91.5537
95.6346
102.937
106.361
115.449
256.344
324.049
408.121
483.971
388.893
425.113
170.35
127.047
303.387
124.535
99.3317
100.65
98.8686
114.915
101.574
94.105
90.6491
138.662
305.898
376.895
427.01
1635.01
321.655
149.997
121.736
79.8461
92.1478
116.738
97.3608
91.5017
103.758
144.216
111.206
104.026
94.5371
155.759
345.567
388.82
208.751
975.921
919.734
824.425
258.166
168.463
62.7275
55.7927
100.488
119.429
94.8064
90.4714
102.794
123.123
99.9487
95.626
109.321
317.928
158.889
494.174
1055.88
211.517
117.574
142.429
112.987
114.267
112.216
56.0614
103.699
94.8946
111.491
54.2564
58.284
102.431
97.4983
104.894
264.345
224.733
420.031
133.196
89.97
75.1392
75.0044
120.481
91.255
83.242
49.4745
54.4465
53.5753
46.2577
56.3723
83.1835
129.805
161.106
152.821
948.159
1088.02
223.625
121.626
83.9531
55.2959
49.1615
55.1591
81.1133
66.2401
60.9615
47.4339
82.7943
68.1768
76.8509
82.6297
99.3767
344.748
829.321
316.051
119.625
89.4095
101.475
94.5782
52.6867
72.7903
52.5666
40.3532
41.2613
41.0861
61.5538
78.6521
118.175
123.107
111.106
233.639
656.128
1044.62
836.541
276.291
118.732
121.902
60.756
76.1461
73.1117
59.8564
45.3475
36.3476
40.2624
49.6306
66.4684
109.739
127.672
115.716
393.339
389.969
138.529
139.952
98.354
77.0923
57.9452
58.7967
67.5407
61.2478
74.3495
64.179
40.2063
55.5083
72.7381
76.6759
104.659
224.611
925.822
159.686
103.965
114.106
70.8035
68.0102
56.7503
51.7614
68.7183
90.8148
86.8347
75.6913
66.183
66.7067
71.5523
114.024
119.844
259.806
388.868
118.126
125.386
99.2731
68.6532
52.5915
61.7854
50.1612
51.5571
66.9943
87.6807
77.2969
70.0725
90.0209
90.1883
126.196
141.358
919.077
216.316
99.4466
80.5618
62.8603
55.2536
43.1019
48.2092
83.8839
38.1575
38.8443
58.3703
62.5148
86.2732
112.449
155.88
135.693
238.769
1118.4
415.892
146.085
95.9371
71.4342
58.1442
47.0932
58.3946
46.4515
37.8534
45.1951
41.3453
40.6123
50.8924
67.5877
136.545
90.6682
148.915
945.271
1071.84
197.404
97.8361
114.197
70.1254
52.8392
42.7246
37.9527
38.0253
46.6633
32.6016
48.5696
47.517
60.8349
71.684
80.5207
116.362
243.259
381.094
123.072
89.1902
66.5567
56.9367
48.6516
41.7974
41.2777
49.9318
31.2664
30.5887
35.1399
60.6583
79.569
105.315
111.956
137.968
930.106
1071.05
188.166
94.0625
72.8135
57.675
50.1631
44.9276
42.8133
42.5599
43.178
54.9004
44.6525
46.616
48.7273
73.6399
83.5587
147.409
222.898
837.831
118.847
87.7585
65.3645
52.6279
44.9772
41.119
40.5272
40.3378
39.2244
40.2218
40.5471
43.7915
52.1246
67.3537
99.9139
160.364
273.992
223.334
97.5805
96.3853
67.6112
49.5137
41.1542
40.0437
37.8641
37.3606
37.2134
36.0188
36.9422
43.6786
54.6497
75.8727
102.144
132.064
454.696
203.622
119.169
108.631
65.4069
45.1106
37.5671
39.982
39.3828
36.229
36.3015
36.2422
37.3642
44.1592
58.6381
75.9048
101.238
204.089
1055.5
1109.61
153.193
90.6265
89.3882
74.8666
48.3941
39.1209
37.1611
47.9481
44.5586
39.0307
37.4129
38.9864
45.9228
57.7658
94.8897
131.085
410.025
883.088
139.075
91.8384
66.5563
55.1799
45.0358
37.4031
35.2031
34.0006
44.1117
41.3093
38.3086
40.9665
51.7704
61.6949
93.9404
135.016
1000.16
252.079
118.664
93.1064
66.0446
54.1158
47.7002
38.9433
35.3546
36.6813
35.0394
33.2388
34.3307
39.9404
52.8964
82.7989
87.5536
140.296
1036.08
239.158
105.484
75.923
62.5846
50.0592
55.8264
48.6909
37.1064
36.1197
37.5167
39.301
40.6641
42.9343
54.7788
75.1308
97.9286
220.249
983.532
168.814
103.667
74.6631
58.3249
51.6292
41.0822
51.184
44.2203
33.5426
33.3543
35.1344
40.553
48.782
60.0601
99.3704
116.296
394.602
386.851
123.114
94.288
84.69
56.9685
44.3964
38.6453
33.1796
49.0407
45.0838
31.3004
37.0627
40.7399
47.2518
59.9121
100.444
129.251
940.074
240.005
102.958
74.438
59.3123
48.8442
39.8569
48.7407
41.2644
41.1767
29.5956
44.0796
36.6199
40.4193
50.908
58.3723
98.6378
165.832
1067.99
996.189
150.883
94.7727
77.0976
57.859
46.2658
36.0502
46.2167
37.8559
37.3325
39.35
29.0533
42.9094
46.376
49.0817
66.5607
89.7197
192.072
988.514
141.179
89.7271
67.5799
55.7318
43.7579
36.5415
33.4813
46.4778
40.7555
36.6146
33.5589
29.891
39.3016
47.8188
61.5452
99.4046
363.089
975.199
140.053
90.7951
65.1272
56.9055
44.2811
37.0674
34.7895
33.5254
31.703
29.9048
32.7658
32.528
37.2504
53.0159
75.1314
111.544
833.278
975.142
138.103
90.4994
65.1745
55.2073
47.6788
42.4662
39.2148
36.5957
37.7686
32.5657
29.7062
38.4895
43.537
55.2022
86.5733
161.863
1058.31
239.932
122.242
93.7126
67.1091
53.1202
42.953
43.4456
42.2738
39.0506
33.826
33.2394
30.1755
34.6514
56.4881
59.3483
94.8287
185.145
1102.35
219.097
103.043
80.2448
66.751
52.2905
39.8251
39.4804
40.5019
40.9811
36.3304
30.673
31.3688
36.1044
45.5642
56.0959
88.9681
180.128
1053.23
145.124
106.186
93.4345
64.6768
50.3182
43.0204
40.7347
37.1752
37.8082
43.5484
40.8628
38.0844
49.6732
57.0934
68.2235
90.2089
196.976
931.942
142.505
93.4757
68.399
61.1812
51.3723
39.7783
37.0455
43.2459
44.2894
39.8674
39.8392
43.9562
46.9925
52.963
74.9589
90.444
209.579
998.843
142.949
93.2464
68.3821
57.1896
52.2823
43.8755
40.1814
37.5896
43.1408
42.9227
38.5883
39.4468
46.1927
55.4799
79.8187
95.4819
226.802
1000.71
146.961
95.6443
68.4504
56.4044
46.2642
38.1893
38.0967
37.5639
36.7181
33.2679
33.8865
38.5409
46.6309
60.4776
78.5546
106.88
372.944
933.969
139.758
93.714
68.1741
55.8713
42.834
36.816
35.6004
34.6897
34.75
35.5294
35.14
41.1907
49.5805
62.3456
98.3583
132.125
931.615
249.992
135.11
91.9054
67.7925
54.6916
41.0354
38.3412
35.9223
34.3579
33.1324
34.1251
34.6727
39.861
48.6945
60.3878
94.3753
133.842
1014.69
255.963
129.862
88.2751
65.19
50.3819
36.5654
34.7509
33.7935
30.5467
28.3788
30.1902
33.4481
38.2473
45.1199
57.655
88.9899
131.21
979.651
1124.92
173.762
125.467
88.7991
60.8875
60.0518
44.7196
30.3241
28.4492
25.9968
27.1087
23.5008
30.431
38.2895
45.0763
55.9444
91.2109
141.898
963.066
1009.1
139.619
96.0511
110
67.007
45.3155
48.5311
34.0196
25.2631
23.4903
22.7034
20.7157
22.7393
39.402
45.6603
57.7336
88.4592
178.658
143.276
89.0912
62.5749
51.6219
44.8593
35.8762
31.4415
21.4577
19.2376
19.0897
17.0894
22.3462
34.7232
45.3274
64.2184
89.3435
188.469
939.994
139.082
85.3295
57.8924
47.6094
39.6624
36.5648
34.4609
29.7522
28.955
16.4865
14.661
22.3302
35.2012
50.3099
72.0709
93.7532
226.382
976.888
127.154
81.5342
53.5979
44.5645
37.5296
34.9709
36.1641
33.4396
29.0744
26.6112
17.6485
21.3902
35.0533
47.4598
68.934
95.9117
370.89
1071.58
121.294
101.748
55.8273
42.6577
38.1369
35.1063
32.1167
29.5143
28.6871
28.7301
31.2252
31.9538
38.5479
52.2962
70.3519
103.549
780.643
110.534
133.506
55.7246
41.902
37.7412
35.8831
32.8153
26.7688
27.6145
30.461
30.8252
34.2959
41.5259
53.5454
85.559
121.896
883.741
674.02
124.31
54.6777
40.5784
38.4721
35.759
35.9813
32.7157
25.2877
22.7296
28.8727
39.8681
45.257
55.7781
85.25
125.981
981.733
2093.56
229.6
92.4069
69.3765
41.1978
37.42
35.7558
35.723
35.9626
31.7581
29.3251
31.0827
35.5465
46.393
62.5697
87.5197
144.092
1030.45
214.859
75.9643
76.1036
60.3719
39.3007
39.1086
35.9744
32.0619
28.4845
31.9415
33.1678
31.1314
38.2379
42.8371
62.6316
92.9068
205.467
200.161
105.377
59.697
44.0942
34.8346
37.9497
43.5386
34.115
29.077
31.9691
24.6188
36.8807
41.2383
45.1469
60.6545
95.2115
223.251
1108.62
171.415
102.141
59.6414
57.2731
47.0885
45.92
44.5449
33.7687
31.8022
23.9498
23.1769
27.9021
36.2554
46.5299
73.8481
109.431
781.804
882.413
123.885
87.039
49.0325
54.1813
46.4455
65.3665
50.0781
34.6241
21.6711
28.662
30.9584
29.2466
38.9744
57.1194
84.1651
114.977
905.692
755.19
95.5744
129.452
70.3857
46.6613
42.9405
39.4778
38.7701
59.7981
23.3243
23.7414
28.7506
36.4698
42.8582
64.3075
108.566
118.953
917.452
368.565
86.2164
90.7535
54.8534
40.6712
34.6323
30.2224
21.52
31.9612
53.0656
33.767
40.7039
45.1586
47.8096
62.9575
120.007
129.882
960.032
943.633
178.349
86.5025
59.8599
58.0289
36.2212
20.6971
10.0006
15.4571
34.0826
37.6593
45.9987
49.1463
51.668
42.1045
62.4368
101.128
253.269
968.843
835.286
105.409
96.5943
58.5606
53.909
35.8664
13.3242
4.93853
9.58007
28.634
42.2378
37.1901
38.556
40.3039
47.5994
60.2981
81.3761
137.842
996.093
160.365
78.8821
50.6421
48.1628
31.9975
11.7445
5.09096
7.21038
15.6528
34.3759
31.2881
37.9191
44.347
53.4217
79.3622
84.0911
184.397
1120.91
194.968
90.3448
84.3594
46.9839
27.1943
6.58803
5.69409
12.678
16.5184
26.7385
37.7849
37.9169
39.5021
52.2167
74.0312
93.5287
222.52
210.577
103.331
100.939
64.9934
27.6173
8.3474
4.84517
9.66657
24.6401
22.4996
35.0878
38.7914
46.9832
53.5055
77.0751
97.454
371.151
189.187
192.769
126.949
81.9786
35.2891
6.95568
5.01507
8.31834
15.1043
22.7483
31.7511
35.3352
45.553
60.715
74.9851
102.843
800.376
891.608
125.826
104.202
102.858
64.4298
38.6796
15.2851
6.88524
12.1858
20.6065
33.1828
40.2616
45.6052
55.3784
62.9291
102.106
130.701
901.345
835.62
125.418
107.504
92.2102
60.4011
33.8973
8.70467
8.00837
15.0449
28.8969
38.5146
49.519
59.3148
54.2682
70.0628
90.7451
199.895
772.74
103.226
73.6162
73.7032
56.1548
34.9842
12.1314
6.47287
11.3753
28.6429
40.9991
46.6365
46.6519
55.2292
73.1965
95.9796
234.158
792.442
104.19
77.7359
76.3812
60.6071
28.869
7.67107
9.63557
21.8178
34.2945
42.4961
52.0778
49.0899
55.5775
77.8318
100.103
235.295
820.165
113.381
85.4735
73.3104
66.0729
39.0513
10.1766
9.72987
19.3105
36.4054
42.2287
51.0281
45.0571
54.9584
75.31
108.456
795.245
845.498
122.81
92.855
86.2671
67.3456
42.8642
34.3681
17.1249
17.9029
36.69
46.9321
52.8761
42.772
52.0528
81.6607
132.33
901.381
256.419
128.241
126.008
97.0693
61.1466
30.3093
27.0575
33.0989
37.5169
35.8865
43.4455
36.3182
40.6262
50.7037
80.3855
135.886
974.545
303.031
240.981
79.2317
44.17
25.6785
8.59261
16.9362
39.9032
41.866
41.8818
38.4626
40.1875
54.8967
88.3388
168.395
1104.17
282.551
147.443
82.5566
43.5325
9.95853
7.09346
10.1639
27.9396
41.088
45.2569
49.5585
42.2918
51.5231
92.6155
205.509
242.414
200.091
130.784
116.493
69.612
10.3888
7.34198
13.3752
25.9255
40.3516
44.8731
35.8989
42.0098
59.7527
89.3959
222.812
264.632
110.672
116.211
120.998
96.2469
43.6959
11.7828
13.7208
36.3317
48.9524
51.596
59.4063
61.7632
84.9447
112.179
770.68
273.719
116.67
117.338
125.716
103.203
100.104
56.6745
53.5624
52.8352
54.6368
52.8865
71.2997
84.0566
131.935
140.845
967.084
1132.28
251
137.101
94.3328
103.935
120.968
108.228
88.4277
74.0347
122.781
119.241
101.512
63.2894
92.0287
150.081
412.89
1182.19
179.063
111.016
101.558
65.9616
102.245
96.9924
89.8546
57.3597
67.5768
87.0343
99.4097
102.462
108.684
224.792
186.278
947.657
169.887
122.628
87.9373
57.2717
105.567
81.2075
82.6333
77.0122
66.7447
98.6832
113.134
123.616
128.691
278.262
738.395
254.102
129.803
436.298
170.543
90.4179
56.1374
80.0907
63.3015
61.8819
62.6216
60.9088
63.1591
84.6042
124.802
244.363
4003.44
253.774
498.603
242.934
107.199
100.145
74.6338
75.3184
103.075
99.7644
81.6993
54.0801
77.9653
103.334
133.643
227.831
724.038
993.533
569.507
263.083
114.155
83.9662
100.227
68.8517
69.3509
83.2577
94.3296
96.7568
89.6614
153.742
149.257
263.843
1109.94
149.483
379.327
166.557
97.1429
81.4069
72.1215
82.6309
93.0097
104.236
95.4412
99.3981
96.5029
148.66
184.792
1340.78
1101.88
167.401
117.943
256.775
229.93
94.0712
63.7686
71.9299
95.8151
95.9246
100.763
119.23
126.593
121.602
260.844
1175.98
511.534
164.24
126.029
402.15
241.911
111.665
75.6279
79.4096
94.6831
95.3738
100.501
145.489
96.663
123.463
266.999
1053.14
484.716
393.691
277.279
226.728
91.6544
85.0206
85.5051
96.3968
111.514
164.769
115.765
173.174
1060.2
626.674
446.553
380.576
312.29
168.343
226.643
98.4373
94.4626
98.2784
134.344
95.9185
125.026
248.491
1079.44
148.463
115.964
419.234
308.791
115.727
233.971
367.202
105.573
113.164
155.796
113.684
145.937
452.38
1139.26
163.461
123.838
419.926
376.249
206.251
120.154
169.397
329.956
233.94
280.557
126.492
162.618
1104.59
1059.1
157.125
475.557
397.721
402.964
283.703
177.703
184.736
125.124
265.72
424.028
133.716
173.905
1193.52
1122.65
153.518
476.244
401.802
403.678
375.324
171.808
156.449
109.15
169.495
417.899
130.46
245.041
1246.81
1070.8
162.505
123.548
422.701
379.233
412.331
500.587
137.03
125.327
261.424
131.852
145.353
244.428
1349.78
1333.11
1052.1
117.47
115.268
393.7
390.894
510.846
350.489
160.747
269.867
428.915
161.284
272.627
115.176
418.17
378.555
387.884
113.881
421.98
433.275
475.699
452.516
113.289
109.255
384.577
467.851
139.827
153.093
213.574
1078.55
6171.64
487.285
111.991
416.756
454.616
168.511
307.313
2701.38
1983.26
410.216
694.468
161.096
184.452
1082.98
383.251
675.512
160.531
174.538
507.129
741.309
515.935
181.635
160.182
202.782
1075.3
1053.32
197.367
1859.85
731.06
460.676
247.965
124.281
122.083
150.362
153.222
580.984
208.02
128.038
275.224
611.086
1404.3
1211.14
6313.94
383.109
1345.91
465.193
431.834
1308.94
525.187
338.572
246.508
225.815
197.73
171.881
159.514
244.183
1348.01
547.34
342.284
250.086
235.657
214.646
197.797
186.14
178.602
169.917
171.276
164.509
164.669
168.645
166.197
1248.13
509.135
266.292
237.554
215.68
211.679
205.164
194.764
190.005
180.816
172.877
160.61
163.914
171.745
178.676
169.808
169.873
174.595
204.954
312.164
387.681
827.485
928.082
468.974
243.54
217.969
213.625
200.984
192.264
189.042
186.189
183.603
177.577
173.611
172.825
151.182
483.555
498.512
181.344
176.235
156.565
166.416
172.925
207.232
526.171
494.451
276.537
211
197.696
178.409
168.231
172.548
176.039
177.057
167.181
164.081
165.395
173.87
171.131
169.993
164.934
141.736
431.773
509.986
138.213
154.054
158.058
174.016
204.968
1133.33
362.801
164.074
130.549
123.619
156.336
171.04
376.587
566.315
660.95
126.186
143.877
143.282
143.258
143.14
144.824
162.849
164.404
148.627
127.823
397.817
500.553
158.93
181.357
215.058
514.982
1424.75
338.065
173.801
135.776
99.0327
112.557
105.889
126.479
169.307
155.948
130.193
141.075
113.045
131.19
253.361
167.067
566.543
141.659
158.434
161.2
152.557
452.746
489.231
206.766
512.851
1180.48
269.802
232.238
123.607
71.2266
69.3549
79.2612
109.194
69.0075
83.2449
144.116
150.589
118.883
125.613
220.202
369.17
146.558
163.198
424.229
163.723
171.927
169.231
171.24
195.503
454.003
367.223
1288.18
271.243
202.894
171.982
114.381
58.5075
57.7396
60.8439
69.3691
78.3716
62.6061
78.2529
146.023
153.906
144.33
137.647
114.154
127.474
122.988
179.837
135.734
173.477
190.972
287.199
525.527
1019.05
340.413
142.951
133.781
160.218
121.8
130.876
69.741
59.1988
54.963
84.6496
68.4563
51.5265
55.1723
55.6353
60.5006
67.6346
73.6704
109.052
112.058
204.814
168.799
175.605
177.962
200.241
468.597
1057.81
193.312
119.554
168.169
130.856
103.105
114.528
56.4204
68.2324
64.5058
66.3761
69.9033
69.115
61.6756
66.096
68.463
55.5937
57.5873
67.0061
93.9324
196.012
142.291
541.76
509.185
622.447
4470.19
704.092
1290.8
259.353
143.238
98.4025
83.9399
75.2417
72.1808
61.3429
60.9811
64.0018
65.6444
67.4832
67.2563
64.9694
70.3611
75.682
69.3362
65.6436
78.8572
99.2171
116.419
120.712
522.85
1593.67
1200.84
283.592
136.815
90.0308
67.5077
85.3608
61.1545
48.9047
40.3762
49.4905
57.1328
63.0799
61.763
58.5154
62.9975
68.7564
75.8154
77.3423
76.1263
104.074
116.331
110.347
169.568
392.897
397.031
151.607
176.009
142.783
123.932
62.4169
56.5719
79.7718
51.6221
41.6923
38.5238
33.5934
37.4833
36.2705
49.9913
43.2685
45.0623
62.7447
78.293
91.9181
95.1471
145.998
107.968
164.265
421.455
374.043
157.309
120.331
118.363
91.4889
83.916
60.409
54.2872
57.5545
58.829
38.6592
37.705
41.2696
31.7153
32.7108
43.2262
42.8287
50.3335
59.3492
77.8362
103.29
110.468
217.478
148.549
404.46
337.278
134.915
151.76
129.556
100.019
83.7546
72.1137
62.5981
52.0085
46.1262
51.308
54.961
43.808
44.0177
36.4813
34.1653
41.7512
47.9928
62.3936
77.2012
83.9092
127.545
181.766
274.281
775.225
1093.35
329.273
132.923
131.022
100.954
94.8677
88.247
79.9256
62.454
55.2797
52.0278
45.9536
42.5135
46.5485
50.4315
53.4505
46.9713
44.1591
42.9304
42.817
44.6737
78.5874
113.649
136.354
223.847
347.329
1080.54
330.186
128.577
122.351
95.4969
84.0742
75.8962
67.7629
57.109
42.0567
38.3852
40.4835
39.8656
37.98
38.5889
43.1292
45.1101
52.2991
62.0745
55.1617
42.8998
47.7394
78.6749
125.54
234.611
373.855
972.294
220.88
126.282
128.197
95.7491
79.1424
67.3512
57.6763
47.1096
39.965
36.3627
31.9698
34.5741
37.5009
37.9943
36.0969
35.0384
35.1017
37.2298
47.2025
63.6649
55.6797
68.5783
107.472
138.936
270.135
1258.57
1171.15
235.774
121.072
99.723
86.374
74.6556
57.5268
45.989
39.2357
36.3997
33.5247
33.222
33.9779
32.4661
34.778
37.5822
38.773
37.5954
37.361
43.7744
41.4767
55.0643
75.7004
107.083
161.02
143.146
1443.76
359.217
126.766
130.45
91.5263
71.8257
55.6094
39.5753
34.2904
32.516
31.3564
31.226
31.4843
32.9966
34.7939
34.9862
36.133
38.0322
40.6144
45.6335
57.328
49.986
69.1936
103.307
132.81
143.712
372.547
401.987
154.219
110.323
88.6848
74.775
61.7244
42.3151
30.9183
26.7851
26.1575
27.9809
30.334
31.4787
32.7915
34.9736
37.3244
38.5988
40.0116
43.2872
51.8254
67.9211
76.9091
88.2694
123.847
142.716
388.179
939.569
197.041
110.264
102.753
81.669
66.7713
52.9565
35.0487
26.4916
20.9575
18.4539
18.1664
21.8051
28.4497
31.3666
33.7654
36.6087
39.8641
43.4514
48.0612
55.4995
80.5877
94.2749
110.316
115.765
336.419
352.444
124.835
98.9108
79.249
65.2434
49.1374
32.0238
22.3542
18.4072
15.8542
13.7393
13.437
15.3331
20.5216
27.2482
31.3571
34.6088
38.3348
43.447
51.4843
61.1178
74.4677
115.386
167.61
229.856
402.477
141.788
132.28
93.0696
72.296
53.4859
31.5177
18.5871
12.4472
10.4976
10.7127
10.2681
9.38704
10.4932
14.3941
21.6834
28.495
32.736
37.9111
46.2233
55.4662
75.0705
88.7538
109.96
132.489
757.522
881.689
183.567
107.764
99.3798
72.8611
57.1481
41.9559
27.1236
13.3959
7.99539
6.22683
6.39437
7.18883
7.70736
8.08077
10.7711
17.5172
25.0288
31.8919
37.6361
47.9568
71.4162
87.7307
104.767
114.321
341.404
880.04
192.955
110.131
101.033
74.2239
57.8719
41.844
31.0733
21.7245
12.8432
7.69961
5.90681
5.07483
5.13521
5.83673
7.5793
10.4848
16.4042
26.0605
33.5133
42.1589
61.0106
79.9447
109.337
151.189
201.303
1011.63
348.45
128.79
104.821
76.2532
61.4332
43.8039
31.5215
24.5882
18.0616
11.0149
7.47582
6.58536
6.13274
5.45402
5.67835
7.82886
13.1567
20.1131
26.9132
39.1973
59.8038
79.1957
109.398
146.806
185.004
846.457
721.039
156.605
128.648
84.8276
65.6929
47.266
33.8116
25.5239
20.9605
15.671
9.84966
7.96719
8.42177
9.17264
7.23191
6.65441
9.01491
16.4332
27.8525
40.8516
51.991
70.175
112.096
148.896
184.926
840.41
203.733
108.116
84.1346
70.6481
56.7679
36.5817
23.2654
20.658
17.8058
14.5891
10.3676
8.61148
10.75
13.7042
12.6905
9.07316
10.8428
18.9951
31.1676
46.2201
61.983
82.4781
107.236
166.096
838.02
721.619
126.954
92.581
72.0421
59.2669
47.4504
34.6867
22.091
15.7822
15.111
14.8843
13.8605
12.1265
12.1008
15.421
18.5533
16.6333
15.521
25.4664
40.4005
59.5424
78.9953
106.463
152.104
326.012
215.475
106.55
78.5968
63.9775
47.0105
33.4618
26.5345
22.0145
15.3186
12.2256
12.5656
13.3299
14.3748
14.4733
15.5105
21.035
27.8033
27.8481
32.8361
59.6197
69.4662
101.38
148.06
189.776
872.011
881.751
161.044
96.7736
70.0548
54.2503
37.3663
26.6073
21.1639
17.6965
14.9264
12.3494
11.5466
12.438
13.1601
13.2432
13.775
18.2854
25.9806
35.2262
49.1477
65.8253
85.6205
101.228
124.292
779.692
281.343
129.933
101.518
72.9805
45.9406
30.7511
22.5712
17.5756
14.5191
12.1142
10.8857
11.1428
12.0506
13.9402
15.6867
15.9027
17.4773
25.4347
36.406
53.8795
72.588
97.5319
144.475
208.754
1142.38
671.252
114.246
88.4225
73.0936
60.7421
38.8238
21.4531
17.2183
13.5152
10.7219
9.44177
8.5644
8.90467
11.206
13.775
17.5731
23.2008
29.2913
32.3691
44.301
58.3505
75.2611
123.081
180.272
836.749
169.984
121.867
81.1515
68.5904
56.4504
40.5311
22.0225
12.4141
9.48115
8.22589
7.48027
7.43714
7.34826
9.31185
13.4857
17.894
23.5293
31.3025
40.2614
56.0601
72.99
95.4102
112.354
358.751
654.564
116.903
86.0812
65.974
54.2331
43.8069
36.5979
25.6002
14.1543
8.50043
6.71161
6.10023
6.51756
7.34914
9.02217
12.7824
18.2326
24.0228
31.794
42.9516
55.7856
73.3961
121.759
174.965
934.942
197.093
101.885
75.1403
63.4077
47.9432
38.2299
29.3803
21.914
16.0151
10.7784
7.654
6.84291
6.85307
8.47454
10.4812
13.4532
18.7143
25.7217
32.925
47.3696
63.3257
83.5654
116.14
332.167
660.114
114.569
85.4634
68.8229
54.4218
41.4042
31.2171
24.0941
17.5631
12.9605
11.6014
10.4485
9.20334
9.77463
11.4563
14.1714
16.5031
20.4422
28.0068
38.507
53.6664
71.8432
88.7094
127.579
817.879
194.492
98.5034
72.6387
60.0414
47.8097
35.1938
26.9696
20.9853
15.7795
11.4256
8.65317
8.72701
10.1293
11.9184
14.4978
18.5202
23.9348
28.2037
31.418
43.7894
64.3665
91.2238
123.589
207.419
676.045
114.856
83.7053
63.3818
50.8478
38.4549
30.207
23.5626
18.8775
15.0455
11.3228
8.69801
7.20976
7.78895
10.2711
14.7875
20.0177
26.1374
33.6678
41.8403
51.8693
76.7176
94.5386
120.666
783.95
202.709
96.2791
70.8715
57.1049
43.1811
31.8551
24.9981
20.673
17.2411
14.5877
12.0449
8.93215
7.39467
7.43271
9.31784
13.437
20.0728
25.8807
33.34
48.3057
63.8817
77.0889
141.707
203.034
166.587
122.928
73.1015
53.1433
37.3423
27.0086
21.4541
18.1381
15.9385
14.2104
12.7392
11.32
9.1502
8.43905
9.9473
14.2157
21.3439
28.083
34.2986
51.6962
74.6093
94.4665
107.274
650.947
699.256
110.034
83.6299
64.5879
48.3215
33.3551
23.8611
18.9044
16.2299
14.7115
13.7779
12.9607
12.2107
12.0115
11.9581
13.19
16.8992
23.8975
34.442
41.2713
51.4177
76.6908
133.674
178.772
943.844
664.659
115.471
76.6496
60.3271
48.6609
32.2769
21.8529
16.8891
14.5426
13.385
12.8582
12.6723
12.5616
12.675
13.6246
15.8635
19.9207
25.5759
32.4304
43.1168
56.8159
74.3267
134.24
602.213
309.967
109.84
74.7081
58.4058
45.9967
30.9719
19.42
15.0778
12.7299
11.3689
11.1586
11.692
12.345
13.0361
14.3066
16.9223
21.2791
27.1146
34.7034
46.6576
65.2768
87.8695
135.112
736.076
168.025
118.813
74.8677
54.7095
41.6456
30.8375
19.729
13.8684
11.9053
10.2365
8.92358
9.59328
11.5706
13.0721
14.634
17.3445
21.8151
28.2075
37.9261
54.5088
68.3909
112.499
190.66
675.021
124.15
94.1195
65.8214
49.8247
35.6411
26.3014
19.0956
13.8624
11.5597
10.6016
9.49803
8.75504
10.083
12.9044
15.2634
18.0884
22.4288
28.797
40.4444
56.1338
89.5197
106.369
672.712
324.652
108.108
73.3935
56.7525
44.2619
32.8467
23.7642
17.2819
13.3296
11.3131
10.6984
10.7296
10.4488
10.5987
12.4475
15.5367
19.2493
24.1499
30.1632
41.7796
61.6617
85.7753
140.398
919.477
160.78
119.295
73.9911
55.4742
40.249
29.7011
22.7663
16.4495
11.8017
9.57853
9.61378
10.3278
11.3487
12.3207
13.3273
15.6959
19.4721
24.4586
32.274
44.9046
63.969
95.7102
180.513
705.757
112.721
81.9602
62.2513
49.8765
37.2469
27.0784
20.4249
15.6416
11.5841
8.57891
7.29115
8.28324
10.1667
12.0674
14.1089
16.5019
20.1463
25.1957
34.5023
52.8679
67.082
107.83
322.344
314.931
103.829
70.2507
59.1082
46.2399
34.3967
25.5786
18.6288
13.6154
10.1973
8.1385
7.02097
6.44268
7.64473
10.5604
13.6003
16.7698
20.789
26.2853
35.2067
55.6543
88.6824
104.024
652.518
206.862
89.2316
64.1869
51.8493
40.438
30.4427
23.1773
17.3935
12.3107
8.38727
6.38743
5.94187
6.27695
6.55259
7.96339
11.9141
16.4942
20.8797
26.928
39.3399
55.2361
89.5438
146.039
934.089
170.89
119.585
68.1282
48.4156
37.8228
28.3051
21.1805
16.2052
12.1634
8.42388
5.61275
4.60298
5.0249
6.38559
8.10099
10.9139
15.8856
21.5614
28.3466
41.2574
64.151
86.0221
159.884
871.819
117.258
78.2666
58.6606
44.4035
33.4216
26.6132
20.0059
15.2491
12.2513
9.70515
7.20992
4.99483
4.1771
5.00731
7.67086
11.6651
16.6581
22.7214
32.3136
49.5045
66.1712
114.9
308.12
684.833
108.7
85.4481
60.9371
45.6631
33.2045
25.6258
19.9505
15.2595
12.5394
10.5955
8.84852
7.26263
5.50138
4.74332
6.31606
11.0288
17.5584
25.2598
38.8618
55.4639
88.1948
107.043
691.547
630.989
110.86
76.3352
62.8236
47.5782
33.604
25.01
19.8643
16.5188
13.8093
11.5962
9.82126
8.41072
7.29245
6.59726
6.88888
10.3438
17.8584
27.5207
43.8572
66.6381
83.762
156.257
210.958
92.1651
66.7514
54.6407
46.1058
33.9535
24.0505
18.5147
15.9922
14.7935
13.0527
10.7728
8.67266
7.22626
7.12257
8.62259
11.9603
19.1557
30.842
47.2018
71.5575
119.475
203.709
202.026
88.7813
64.2257
55.5137
42.8676
31.8536
23.3104
17.7278
14.9643
13.9477
13.3829
12.094
10.1944
8.12702
6.93004
8.27504
12.7519
20.2725
33.2768
52.2255
69.5707
127.416
607.391
172.479
118.222
69.2113
49.1143
38.613
30.6939
22.4103
17.0202
14.1712
12.5602
12.2055
12.4188
12.0352
11.2756
10.4103
10.6396
14.3411
21.72
33.3985
51.8805
86.298
120.182
643.161
169.64
88.5514
61.7677
46.6729
35.1237
27.6339
22.0108
17.0085
13.3694
11.042
9.50469
10.1556
11.8762
12.5278
13.342
14.8291
18.5642
25.8054
36.687
55.8621
77.6356
127.867
775.791
163.3
88.8403
63.0258
47.3238
34.8312
26.4855
20.1573
16.4733
13.9075
11.4989
9.6214
8.45319
9.53047
12.0299
13.6245
15.875
20.248
27.6958
37.1801
55.335
84.2666
113.254
874.569
846.324
123.961
85.7641
64.8
49.1129
35.0526
25.9777
19.4382
15.2017
13.1907
11.9319
10.7017
9.79157
9.58273
10.9183
13.3495
16.1021
20.3806
27.3381
37.7052
51.0304
81.9593
140.966
660.887
126.991
102.13
70.1849
51.0649
34.6372
25.2614
19.0212
14.8654
12.5821
11.3801
10.7104
10.4548
10.7625
11.5129
13.337
16.3944
20.801
28.1749
41.1971
53.9673
83.7293
147.423
650.236
112.658
72.9641
58.4584
47.4664
32.6075
23.1145
17.9432
14.5963
12.442
10.6934
9.64109
9.55921
10.3012
11.6217
13.5568
16.5596
21.0577
27.786
42.0701
61.5154
78.6593
156.785
318.427
103.597
70.371
56.0691
43.5003
31.5249
21.2789
14.9682
12.2852
10.6714
9.13479
7.47465
6.84167
7.92966
10.1818
12.7604
16.0324
20.9021
27.7058
40.4371
62.1601
101.051
203.875
208.263
91.0858
65.5318
51.8911
40.3798
29.6775
21.386
13.5755
9.07785
7.18251
6.26014
5.4036
4.45924
4.67631
6.93529
11.0572
15.3249
20.66
28.4588
40.0062
60.9205
103.04
575.987
212.685
92.416
65.8387
50.3759
37.014
27.8437
20.7993
14.7139
9.67514
5.7761
3.79441
3.2595
3.3039
3.77157
5.22039
8.9376
14.4711
20.4428
29.63
42.2307
59.6677
104.416
611.124
178.34
92.0139
66.8246
50.614
35.9827
25.5791
19.2784
15.0156
11.3995
8.02616
4.51229
2.69767
2.42225
3.06351
5.11626
8.92544
14.4
20.8357
30.0965
46.8305
61.9855
103.174
639.538
165.191
89.792
62.2964
47.0675
33.6343
24.0169
18.0356
14.3454
11.9187
9.637
6.82517
3.92254
2.58583
2.74764
4.47771
8.75902
14.9941
21.8768
30.5636
47.8821
71.2116
105.426
705.503
171.981
88.917
58.7826
43.1231
30.4544
22.0892
17.0075
13.807
11.5432
9.70711
8.05602
6.18177
4.13042
3.46057
4.67002
8.58781
14.7392
22.1327
32.6984
48.6625
77.1079
139.53
897.296
163.592
88.1528
58.4188
39.2668
27.1751
20.1526
16.0138
13.3668
11.2596
9.02853
7.047
6.34847
6.22398
5.78874
6.52645
9.91335
15.9965
22.8613
33.295
51.9389
80.5271
150.043
833.806
113.773
84.1639
60.5245
33.6763
22.9346
18.0032
15.2056
13.1072
11.2728
9.24798
6.61272
4.8387
5.28612
7.28461
9.38681
12.5485
17.7817
24.8028
34.6659
52.4052
83.5533
152.042
649.215
131.705
84.7698
48.7934
24.5842
16.4997
15.3245
14.0663
12.8525
11.3676
9.84283
7.9877
5.72942
4.61158
6.17336
10.1343
14.462
19.4575
26.0166
37.2738
50.6135
80.9958
156.839
654.716
110.077
69.0627
47.549
24.1794
12.7115
11.1942
12.0698
12.009
11.0181
9.49843
8.08994
7.07824
6.31789
6.46223
9.58733
14.8618
20.6119
27.6677
39.0571
57.0289
77.3043
147.736
323.886
103.837
65.9105
48.242
30.6531
15.3354
10.5284
10.3829
11.0492
10.4977
8.90013
6.8022
5.59646
6.16216
7.96063
10.5049
14.9778
21.0336
29.3402
41.6202
58.9689
94.4188
178.133
197.075
89.9997
63.4728
46.9807
32.8862
20.6794