/*--------------------------------*- C++ -*----------------------------------*\
| =========                 |                                                 |
| \\      /  F ield         | OpenFOAM: The Open Source CFD Toolbox           |
|  \\    /   O peration     | Version:  2312                                  |
|   \\  /    A nd           | Website:  www.openfoam.com                      |
|    \\/     M anipulation  |                                                 |
\*---------------------------------------------------------------------------*/
FoamFile
{
    version     2.0;
    format      ascii;
    arch        "LSB;label=64;scalar=64";
    class       volScalarField;
    location    "100";
    object      p;
}
// * * * * * * * * * * * * * * * * * * * * * * * * * * * * * * * * * * * * * //

dimensions      [0 2 -2 0 0 0 0];

internalField   nonuniform List<scalar> 
404911
(
1.35349
1.35463
1.35602
1.35449
1.35191
1.35395
1.35535
1.35519
1.35481
1.35463
1.34868
1.34696
1.34898
1.35034
1.3529
1.35463
1.34616
1.34648
1.34731
1.34856
1.34329
1.34405
1.34503
1.34047
1.34212
1.33897
1.33856
1.33957
1.34174
1.33609
1.3361
1.33732
1.33814
1.34391
1.3337
1.33449
1.33534
1.32863
1.33006
1.33115
1.332
1.32664
1.32749
1.32882
1.32997
1.32886
1.32549
1.32653
1.32779
1.33
1.32368
1.32462
1.32559
1.32644
1.32336
1.32369
1.31746
1.35416
1.35197
1.35306
1.34913
1.35023
1.34554
1.34642
1.34749
1.34352
1.34468
1.34554
1.34081
1.34248
1.33836
1.33962
1.34129
1.33599
1.33726
1.33898
1.34002
1.33293
1.33443
1.33034
1.33159
1.32778
1.32902
1.33039
1.32556
1.32668
1.32351
1.32447
1.32555
1.3227
1.32359
1.31696
1.3158
1.31711
1.31202
1.31318
1.3146
1.30963
1.31069
1.31196
1.3074
1.3085
1.30952
1.30736
1.5248
1.52674
1.52848
1.51615
1.51924
1.51903
1.52237
1.52346
1.52545
1.527
1.52947
1.51203
1.51344
1.51733
1.51924
1.52123
1.52273
1.52454
1.52627
1.5323
1.50681
1.50823
1.51
1.51144
1.51268
1.51413
1.51613
1.51809
1.52004
1.5219
1.52356
1.52542
1.52787
1.52963
1.53177
1.53346
1.50238
1.50423
1.50606
1.50765
1.50936
1.51078
1.51213
1.51344
1.51491
1.51675
1.51863
1.52068
1.52237
1.52413
1.53099
1.49792
1.4999
1.50179
1.50365
1.50564
1.50726
1.5088
1.51025
1.51162
1.51299
1.51449
1.51611
1.51774
1.51941
1.52104
1.49496
1.49692
1.49872
1.50066
1.50272
1.50488
1.50657
1.50838
1.50972
1.51098
1.5124
1.51393
1.51546
1.51703
1.5186
1.52059
1.4904
1.49173
1.49342
1.49592
1.49771
1.49968
1.50181
1.50407
1.5061
1.50793
1.50911
1.51038
1.51171
1.51319
1.51476
1.51626
1.51804
1.48373
1.48549
1.48663
1.48889
1.49054
1.49259
1.49485
1.4968
1.49847
1.50051
1.50328
1.50538
1.50699
1.50832
1.5097
1.51098
1.51246
1.51417
1.48042
1.48246
1.48413
1.48562
1.48745
1.48921
1.49137
1.49384
1.49568
1.49777
1.49965
1.50233
1.50478
1.506
1.5074
1.50872
1.51032
1.5116
1.47551
1.47726
1.47895
1.48087
1.4829
1.48465
1.48642
1.48829
1.49022
1.49242
1.49463
1.49654
1.49862
1.50096
1.50331
1.50506
1.50629
1.50794
1.47276
1.47458
1.47611
1.47772
1.47973
1.48183
1.48358
1.48542
1.48735
1.48928
1.4914
1.49339
1.49541
1.49731
1.49946
1.50161
1.50307
1.46858
1.47024
1.47167
1.47317
1.4749
1.47685
1.47871
1.48047
1.48228
1.4841
1.48625
1.48828
1.49047
1.49254
1.49453
1.49622
1.49793
1.46556
1.46689
1.46784
1.46915
1.47036
1.47204
1.47374
1.47588
1.47758
1.47929
1.48102
1.48307
1.48504
1.48713
1.4892
1.49143
1.49336
1.49522
1.46084
1.46229
1.46426
1.46595
1.46745
1.46821
1.46959
1.47111
1.47277
1.47459
1.47626
1.47803
1.47998
1.48206
1.4842
1.48612
1.48818
1.49038
1.45724
1.45859
1.45987
1.46159
1.46324
1.46516
1.4667
1.46749
1.46881
1.47029
1.47217
1.47379
1.4749
1.47663
1.47892
1.48075
1.48282
1.4852
1.45468
1.45636
1.45769
1.45888
1.46026
1.4622
1.46411
1.46561
1.46682
1.46806
1.46982
1.47162
1.47301
1.47422
1.47601
1.478
1.4803
1.48174
1.45079
1.45222
1.45356
1.45542
1.4568
1.4582
1.45968
1.46108
1.46283
1.46432
1.46583
1.46718
1.46877
1.47064
1.47221
1.47344
1.47519
1.47647
1.44872
1.45008
1.45139
1.45275
1.45442
1.45613
1.45724
1.45908
1.46074
1.46188
1.46309
1.46443
1.46625
1.46776
1.46911
1.47125
1.47248
1.47417
1.44427
1.44592
1.44709
1.44889
1.45054
1.4516
1.4532
1.45501
1.45651
1.45826
1.45996
1.46108
1.46224
1.46358
1.46522
1.46676
1.46811
1.46998
1.44226
1.44339
1.44482
1.44612
1.44774
1.4493
1.45063
1.45205
1.45373
1.45545
1.45708
1.45895
1.46014
1.46135
1.46275
1.46427
1.46572
1.43888
1.43997
1.44124
1.44247
1.44363
1.44492
1.44656
1.4479
1.44931
1.45096
1.4526
1.45434
1.45614
1.45801
1.45917
1.46038
1.46177
1.46326
1.43666
1.43779
1.43903
1.44026
1.44156
1.44272
1.44408
1.44534
1.44649
1.44794
1.44977
1.4514
1.45319
1.45506
1.45683
1.45817
1.45951
1.46073
1.43476
1.4358
1.43688
1.43813
1.43938
1.44076
1.44199
1.44317
1.44438
1.44539
1.44651
1.44824
1.45009
1.45181
1.45365
1.45576
1.45693
1.4586
1.4315
1.43251
1.43375
1.43487
1.43596
1.43706
1.43811
1.43984
1.44144
1.44271
1.44386
1.44483
1.44596
1.4472
1.44905
1.45081
1.45242
1.45425
1.42843
1.42963
1.43074
1.43173
1.4329
1.43397
1.43508
1.43628
1.43739
1.43873
1.4403
1.44167
1.44319
1.4442
1.44528
1.44658
1.44799
1.44981
1.42659
1.42766
1.42883
1.42993
1.43101
1.43208
1.43306
1.43404
1.43545
1.43694
1.43812
1.43938
1.44084
1.4424
1.44345
1.44454
1.44584
1.44716
1.42359
1.42476
1.42586
1.42695
1.42805
1.42917
1.43025
1.43129
1.43223
1.43313
1.43436
1.43581
1.43719
1.43867
1.43998
1.44139
1.44212
1.44385
1.42183
1.42292
1.42398
1.42511
1.42618
1.42734
1.42847
1.42952
1.43051
1.43148
1.43238
1.43343
1.43472
1.43608
1.43763
1.43915
1.44042
1.44169
1.41995
1.4211
1.42221
1.42316
1.42428
1.42541
1.42665
1.42779
1.42881
1.42977
1.43075
1.43177
1.43286
1.43411
1.43544
1.43678
1.43824
1.43954
1.41806
1.41928
1.42012
1.42126
1.42229
1.42336
1.42466
1.42601
1.42716
1.4281
1.42905
1.43003
1.43106
1.43216
1.43341
1.43471
1.43605
1.43744
1.41462
1.41626
1.41734
1.41842
1.41938
1.42054
1.42148
1.42235
1.42352
1.42505
1.42643
1.42734
1.4283
1.42928
1.43028
1.43137
1.4326
1.43384
1.41291
1.41398
1.41523
1.41645
1.41757
1.41868
1.41973
1.42064
1.42147
1.42245
1.42384
1.42537
1.42642
1.42746
1.42851
1.42954
1.43059
1.43184
1.41119
1.41212
1.41324
1.41441
1.41561
1.41692
1.4181
1.41907
1.42001
1.42084
1.42177
1.42298
1.42429
1.42545
1.42655
1.42764
1.42886
1.42997
1.40883
1.41019
1.41129
1.41237
1.41349
1.41462
1.41613
1.41756
1.41845
1.41936
1.42029
1.42125
1.4223
1.42345
1.42456
1.42567
1.42684
1.40611
1.40679
1.40804
1.40921
1.41032
1.4115
1.4125
1.41354
1.41515
1.41688
1.41772
1.41857
1.41954
1.42053
1.42154
1.42262
1.42367
1.42484
1.40421
1.40503
1.40599
1.40704
1.40817
1.4094
1.4107
1.41173
1.4126
1.41399
1.416
1.41696
1.41775
1.41871
1.41967
1.42066
1.42173
1.42292
1.40212
1.40322
1.4041
1.40502
1.40605
1.40715
1.40841
1.40965
1.411
1.41186
1.4128
1.41439
1.4159
1.41682
1.4178
1.41882
1.41985
1.42105
1.39958
1.40033
1.40137
1.40236
1.40325
1.40416
1.40505
1.40595
1.40734
1.40877
1.4102
1.41117
1.41195
1.41319
1.41462
1.41572
1.41676
1.41786
1.39754
1.39854
1.39964
1.40063
1.40154
1.40244
1.40342
1.40429
1.40513
1.40643
1.4078
1.40937
1.4105
1.41128
1.41234
1.41351
1.41463
1.41585
1.39584
1.39671
1.39775
1.39881
1.39978
1.4007
1.40169
1.40267
1.40352
1.40426
1.40512
1.40668
1.40818
1.40956
1.41047
1.41145
1.41263
1.41372
1.3933
1.39494
1.39593
1.39693
1.39797
1.39891
1.39987
1.40087
1.40185
1.40288
1.4037
1.40445
1.4057
1.40712
1.40852
1.40955
1.41051
1.41172
1.39204
1.39308
1.39401
1.39509
1.39611
1.39708
1.39797
1.39896
1.3999
1.40086
1.40219
1.40321
1.40396
1.40498
1.40621
1.40744
1.4085
1.38926
1.38994
1.39113
1.39216
1.39327
1.39436
1.39539
1.39634
1.39723
1.39812
1.39899
1.39966
1.40085
1.40209
1.40333
1.40422
1.40531
1.40642
1.38701
1.38809
1.38923
1.39026
1.39136
1.3925
1.39356
1.39475
1.39571
1.39658
1.39743
1.39828
1.39899
1.39983
1.40102
1.40231
1.40346
1.40456
1.38528
1.38621
1.38723
1.38832
1.38939
1.3905
1.39153
1.39249
1.39361
1.3949
1.39581
1.39661
1.39753
1.39838
1.39928
1.40033
1.40144
1.40251
1.38319
1.38434
1.38542
1.38633
1.38736
1.38842
1.38953
1.39057
1.39146
1.39217
1.3934
1.39473
1.39568
1.39664
1.39759
1.39854
1.39953
1.40066
1.38155
1.38229
1.38344
1.38448
1.38545
1.38644
1.38751
1.38861
1.38962
1.39051
1.39133
1.39244
1.39361
1.39467
1.39568
1.39671
1.39775
1.39875
1.37945
1.38058
1.38155
1.3825
1.38349
1.38451
1.38563
1.38673
1.3878
1.38879
1.38972
1.39062
1.39162
1.39266
1.39369
1.39472
1.39579
1.39679
1.3777
1.37859
1.37963
1.38066
1.38158
1.3825
1.38362
1.38478
1.38598
1.38703
1.38797
1.38889
1.38979
1.39077
1.39177
1.39278
1.39372
1.39462
1.37585
1.37677
1.37765
1.37868
1.37982
1.38085
1.3817
1.3827
1.38399
1.38531
1.38646
1.38727
1.38804
1.38891
1.38987
1.39085
1.39183
1.39293
1.37296
1.3739
1.37481
1.37582
1.37665
1.37744
1.37892
1.38023
1.38114
1.38201
1.38293
1.38414
1.38534
1.3864
1.38714
1.388
1.38893
1.38993
1.39098
1.37135
1.37231
1.37316
1.37394
1.3749
1.3757
1.37644
1.37763
1.37902
1.38007
1.38123
1.38214
1.38313
1.38423
1.38528
1.38619
1.3871
1.388
1.37033
1.37132
1.37225
1.37316
1.37408
1.37484
1.37554
1.37638
1.37786
1.379
1.38018
1.38133
1.38214
1.38316
1.38418
1.38512
1.38614
1.36738
1.3684
1.36943
1.37035
1.37134
1.37236
1.37332
1.37409
1.37468
1.37551
1.37693
1.37808
1.37933
1.38045
1.38133
1.38226
1.38324
1.38413
1.36555
1.36639
1.36753
1.36846
1.36947
1.3705
1.37155
1.37263
1.37341
1.374
1.37475
1.37598
1.37716
1.37847
1.3795
1.38044
1.38133
1.38234
1.36331
1.36478
1.36565
1.36658
1.36756
1.36856
1.36957
1.3706
1.37192
1.37285
1.3734
1.37404
1.37511
1.37628
1.37742
1.37853
1.37955
1.38052
1.36309
1.36402
1.36488
1.36574
1.36667
1.36768
1.36854
1.36936
1.37068
1.37194
1.37281
1.37346
1.37442
1.37546
1.37652
1.37757
1.3786
1.36073
1.36217
1.36337
1.36415
1.365
1.3659
1.36685
1.36766
1.36839
1.36967
1.37094
1.372
1.3728
1.37375
1.37475
1.37572
1.37667
1.35748
1.35851
1.35977
1.36116
1.36255
1.36335
1.36419
1.36514
1.36623
1.36696
1.36766
1.36881
1.37005
1.37101
1.37194
1.37285
1.37394
1.375
1.35558
1.35661
1.35763
1.35882
1.36027
1.36156
1.36246
1.36327
1.36421
1.36535
1.36625
1.36698
1.36785
1.36892
1.36995
1.37094
1.37198
1.35358
1.3548
1.35591
1.35716
1.35824
1.35958
1.36083
1.36165
1.36234
1.36314
1.36421
1.36525
1.36625
1.36712
1.36807
1.36903
1.37007
1.35045
1.35174
1.35281
1.35394
1.35511
1.35637
1.35743
1.35859
1.36007
1.36093
1.36167
1.36245
1.3632
1.36418
1.36524
1.36623
1.36719
1.36815
1.34861
1.34963
1.35088
1.352
1.35306
1.35427
1.35555
1.35657
1.35762
1.35903
1.35975
1.36064
1.36186
1.3626
1.36342
1.36435
1.36533
1.36628
1.34624
1.34771
1.34874
1.34985
1.35103
1.3522
1.35345
1.35507
1.35607
1.35656
1.35756
1.35845
1.35949
1.36057
1.36166
1.36257
1.36348
1.36438
1.34411
1.34518
1.34646
1.34768
1.34883
1.34988
1.35118
1.35244
1.35378
1.35475
1.35538
1.3563
1.35728
1.35833
1.35933
1.36033
1.36133
1.36258
1.34086
1.34203
1.34322
1.34438
1.34551
1.34665
1.3478
1.34906
1.35021
1.35146
1.35245
1.3533
1.35415
1.35504
1.35588
1.35696
1.35799
1.35937
1.36032
1.33921
1.34007
1.34101
1.34219
1.34338
1.34458
1.34565
1.34678
1.34792
1.34904
1.35022
1.35117
1.35203
1.35294
1.35394
1.35498
1.35612
1.35715
1.35832
1.33752
1.33896
1.33993
1.34109
1.34229
1.34355
1.34465
1.34578
1.34691
1.34805
1.34922
1.35018
1.35115
1.3521
1.3531
1.35409
1.35528
1.35646
1.33539
1.33671
1.33794
1.33895
1.33994
1.34103
1.34243
1.34356
1.34467
1.34593
1.34714
1.34836
1.34921
1.35019
1.35113
1.35213
1.3532
1.33247
1.334
1.33557
1.33675
1.33779
1.33868
1.33989
1.34135
1.34247
1.34366
1.34496
1.34612
1.34724
1.34823
1.3492
1.35018
1.35116
1.32954
1.33107
1.33244
1.33391
1.33508
1.33609
1.33735
1.33883
1.34018
1.34144
1.34265
1.34393
1.34508
1.34613
1.34717
1.34818
1.34916
1.32553
1.32698
1.32802
1.32954
1.33074
1.33205
1.33338
1.33469
1.33613
1.33768
1.33909
1.34034
1.34165
1.34288
1.34399
1.34507
1.34609
1.34729
1.32342
1.32454
1.32571
1.32688
1.32821
1.32931
1.33062
1.33185
1.33333
1.33486
1.33639
1.33774
1.33906
1.34023
1.34151
1.34271
1.34387
1.32112
1.32228
1.32339
1.3246
1.32573
1.3269
1.32792
1.32934
1.33062
1.33219
1.3337
1.33525
1.33661
1.33785
1.33915
1.34036
1.3415
1.31858
1.32007
1.32123
1.32231
1.32357
1.32456
1.32566
1.32674
1.32802
1.32946
1.33091
1.33249
1.33397
1.33542
1.33678
1.33806
1.3394
1.31604
1.31747
1.31892
1.32018
1.32117
1.32235
1.32333
1.32435
1.32561
1.32698
1.32834
1.32976
1.33132
1.33277
1.33423
1.33563
1.33691
1.31278
1.31465
1.31605
1.31758
1.31885
1.32
1.32116
1.32227
1.32343
1.32466
1.3258
1.32709
1.32864
1.33008
1.33154
1.33293
1.33441
1.31118
1.31188
1.31295
1.3143
1.31592
1.31752
1.31874
1.3199
1.32109
1.32235
1.32367
1.32484
1.32606
1.32747
1.3289
1.3304
1.33173
1.3091
1.31078
1.31153
1.31301
1.31455
1.31627
1.31766
1.31887
1.32006
1.32145
1.32286
1.32396
1.32512
1.32646
1.32793
1.32934
1.30623
1.30807
1.30945
1.31064
1.31204
1.31338
1.31486
1.31639
1.31786
1.31907
1.32042
1.32185
1.32298
1.32414
1.32548
1.30067
1.30276
1.30453
1.30663
1.30814
1.30929
1.31066
1.31203
1.31354
1.3153
1.31698
1.31824
1.31946
1.32074
1.32197
1.32322
1.29707
1.2989
1.30064
1.30274
1.30479
1.30653
1.30791
1.30923
1.31082
1.31232
1.31399
1.31592
1.3175
1.31849
1.31969
1.32078
1.29413
1.2958
1.29717
1.29928
1.30116
1.30324
1.30491
1.30626
1.30773
1.30925
1.31095
1.31234
1.31449
1.31613
1.3177
1.31852
1.28937
1.29067
1.29194
1.29383
1.29553
1.29774
1.2997
1.30152
1.30325
1.30459
1.30612
1.30788
1.30988
1.31107
1.31273
1.31428
1.28489
1.28723
1.2893
1.29067
1.29206
1.29371
1.29621
1.29813
1.29988
1.3014
1.30288
1.30434
1.30609
1.30813
1.30977
1.311
1.28166
1.28389
1.28573
1.28773
1.28927
1.29082
1.29271
1.29481
1.29668
1.29823
1.29949
1.30082
1.3028
1.30452
1.30634
1.30832
1.27834
1.28043
1.28222
1.28505
1.28648
1.28796
1.28964
1.29181
1.29358
1.29521
1.29671
1.29793
1.29921
1.30085
1.30269
1.30407
1.27512
1.27615
1.27872
1.28077
1.28311
1.28516
1.2865
1.28823
1.29046
1.29256
1.29405
1.29532
1.29673
1.298
1.29911
1.30109
1.271
1.2728
1.27496
1.277
1.27907
1.28118
1.28314
1.2847
1.28651
1.28877
1.29113
1.29283
1.29408
1.29529
1.29673
1.26804
1.26949
1.271
1.27324
1.27524
1.2771
1.27928
1.28127
1.28297
1.28498
1.28712
1.28928
1.29133
1.29241
1.29407
1.2948
1.26483
1.26658
1.26808
1.26981
1.27174
1.27385
1.27542
1.27734
1.27931
1.28126
1.28323
1.28538
1.28728
1.28951
1.2908
1.29299
1.26275
1.26376
1.26517
1.26656
1.26833
1.27056
1.27263
1.27428
1.27583
1.27783
1.27966
1.28158
1.28356
1.28559
1.28773
1.26089
1.26205
1.26375
1.26527
1.26699
1.26921
1.27109
1.27296
1.27465
1.27642
1.27812
1.28015
1.28209
1.28411
1.25692
1.25838
1.26056
1.2622
1.26405
1.26573
1.26773
1.26958
1.27146
1.27327
1.27494
1.27692
1.27883
1.25181
1.25325
1.25503
1.25657
1.25872
1.26046
1.2623
1.26436
1.26615
1.26803
1.27007
1.27186
1.27356
1.27539
1.2485
1.25026
1.25187
1.25342
1.25518
1.2571
1.25908
1.26079
1.26255
1.26469
1.26647
1.2685
1.27028
1.27209
1.24506
1.24679
1.24862
1.25058
1.25202
1.25366
1.25553
1.25735
1.25958
1.26151
1.26337
1.26537
1.26702
1.26891
1.24157
1.24341
1.24505
1.2471
1.24906
1.25072
1.25228
1.25393
1.2559
1.25795
1.26009
1.26189
1.26378
1.26573
1.23842
1.23987
1.24167
1.24318
1.24536
1.24697
1.24905
1.25094
1.25255
1.25435
1.25652
1.25851
1.26041
1.26213
1.23539
1.23696
1.23912
1.24024
1.24174
1.24359
1.24504
1.24721
1.24936
1.2516
1.25316
1.25519
1.25724
1.239
1.23984
1.2417
1.24379
1.24572
1.24808
1.25001
1.25174
1.25382
1.23728
1.23803
1.24012
1.24213
1.24467
1.24643
1.24831
1.25017
1.23388
1.23566
1.23684
1.23846
1.24058
1.24247
1.24512
1.22911
1.23141
1.23357
1.23569
1.23696
1.2387
1.24012
1.22978
1.23139
1.23341
1.23533
1.23729
1.22222
1.22475
1.22771
1.22996
1.23191
1.23359
1.20888
1.21043
1.21722
1.21965
1.22711
1.20792
1.21011
1.21136
1.21304
1.21474
1.2208
1.20325
1.2119
1.21338
1.21487
1.21775
1.2018
1.20678
1.21047
1.62096
1.62456
1.62852
1.61027
1.61159
1.61477
1.61925
1.62272
1.6268
1.63216
1.63871
1.6877
1.60032
1.60317
1.60411
1.60775
1.61001
1.61345
1.61756
1.62166
1.6266
1.63186
1.63794
1.64612
1.6578
1.67451
1.69508
1.59117
1.59383
1.59746
1.59959
1.60313
1.60508
1.60762
1.61088
1.6147
1.61904
1.62375
1.62845
1.63408
1.64167
1.65098
1.66263
1.67777
1.69999
1.72526
1.74814
1.74004
1.66251
1.58134
1.58555
1.58832
1.59148
1.59394
1.59658
1.59942
1.60238
1.60552
1.60833
1.61141
1.61524
1.61959
1.62424
1.6279
1.63621
1.6455
1.65443
1.66491
1.67933
1.69909
1.72571
1.75133
1.57464
1.57613
1.57933
1.58149
1.58484
1.58775
1.59085
1.59344
1.59627
1.5992
1.60232
1.60535
1.60869
1.61234
1.61594
1.62029
1.62451
1.63069
1.63817
1.64833
1.65604
1.66667
1.67956
1.69602
1.71518
1.56943
1.57082
1.57355
1.57584
1.57854
1.58002
1.58365
1.58679
1.58972
1.59317
1.59544
1.59855
1.60126
1.60511
1.60935
1.61306
1.61699
1.62122
1.62562
1.63186
1.63885
1.64819
1.65547
1.66508
1.67682
1.56268
1.56543
1.56826
1.5704
1.57256
1.57513
1.57728
1.57958
1.5827
1.58543
1.58863
1.59271
1.59493
1.5972
1.60016
1.60434
1.60901
1.61383
1.61732
1.62183
1.6268
1.63168
1.63809
1.64579
1.65332
1.55649
1.5595
1.56235
1.56477
1.56755
1.56955
1.57159
1.57416
1.57699
1.57876
1.58138
1.58426
1.58753
1.59066
1.59427
1.59696
1.59926
1.60464
1.60828
1.61356
1.61774
1.62193
1.62669
1.63162
1.63772
1.5487
1.54945
1.55276
1.55574
1.55827
1.56134
1.56411
1.56662
1.56887
1.57081
1.5733
1.57653
1.57822
1.58023
1.58304
1.5861
1.58957
1.59354
1.59587
1.59928
1.60482
1.6095
1.61288
1.6175
1.62149
1.62505
1.54095
1.54286
1.54549
1.5472
1.54927
1.55217
1.55436
1.55726
1.56003
1.56291
1.5655
1.56801
1.57038
1.57308
1.57562
1.57773
1.57964
1.58193
1.58496
1.58823
1.59239
1.59595
1.60009
1.60422
1.60879
1.61241
1.61664
1.53836
1.54015
1.54224
1.54428
1.54649
1.54845
1.55129
1.55327
1.5559
1.55866
1.56156
1.5643
1.56699
1.56927
1.57263
1.57507
1.57696
1.57897
1.58099
1.58404
1.5872
1.58966
1.59578
1.59862
1.60354
1.53134
1.53318
1.53496
1.53731
1.53931
1.54132
1.54333
1.54537
1.54773
1.54994
1.55215
1.55465
1.55737
1.5605
1.56326
1.56592
1.56846
1.57184
1.5744
1.5762
1.57811
1.58045
1.58322
1.58518
1.5895
1.52777
1.53032
1.53182
1.53379
1.53577
1.53754
1.54018
1.54212
1.54424
1.54682
1.54915
1.55113
1.55354
1.55648
1.55937
1.56216
1.56495
1.56776
1.571
1.57327
1.57541
1.5774
1.57963
1.58231
1.52071
1.52319
1.52464
1.52679
1.52907
1.53101
1.53268
1.53448
1.53658
1.53892
1.54095
1.5431
1.5454
1.54823
1.55018
1.55262
1.55541
1.55815
1.56102
1.56394
1.56715
1.57005
1.57224
1.57437
1.57651
1.51704
1.51835
1.52006
1.52198
1.52397
1.52618
1.52804
1.52994
1.53142
1.53336
1.53547
1.5377
1.53978
1.54209
1.54407
1.54632
1.54898
1.5515
1.5541
1.55678
1.55963
1.56286
1.56666
1.56912
1.57099
1.51232
1.51417
1.51593
1.5176
1.51932
1.52102
1.52299
1.52496
1.52688
1.52861
1.53049
1.53242
1.53454
1.53653
1.53891
1.54083
1.54286
1.54531
1.54755
1.55037
1.5531
1.5556
1.55857
1.56148
1.5644
1.50618
1.50779
1.50992
1.51162
1.51314
1.51487
1.51663
1.51867
1.52016
1.52188
1.52366
1.5255
1.52745
1.52954
1.53153
1.53337
1.53533
1.53748
1.53942
1.54162
1.54464
1.5465
1.54912
1.552
1.55455
1.55744
1.50166
1.50446
1.50561
1.50737
1.50914
1.51071
1.51222
1.5137
1.51549
1.51744
1.51938
1.52122
1.52267
1.52438
1.52636
1.52852
1.53055
1.53232
1.5342
1.53603
1.53787
1.53981
1.54271
1.54541
1.54799
1.55084
1.49884
1.49926
1.50078
1.50299
1.50496
1.50664
1.50827
1.5099
1.51134
1.51278
1.51436
1.51616
1.51811
1.52017
1.5217
1.52341
1.52545
1.52773
1.5299
1.53174
1.53366
1.53542
1.53708
1.53885
1.5411
1.54414
1.54723
1.49302
1.4955
1.49699
1.49864
1.50046
1.50243
1.50425
1.50602
1.50769
1.50925
1.51068
1.51207
1.51354
1.5152
1.517
1.51893
1.5206
1.52239
1.52441
1.52666
1.5293
1.53118
1.53298
1.53487
1.5366
1.53855
1.54105
1.49035
1.49219
1.49391
1.49583
1.49783
1.49981
1.50176
1.50371
1.5056
1.5073
1.50878
1.51016
1.51155
1.51299
1.51454
1.51618
1.51788
1.51956
1.5214
1.52338
1.52558
1.52778
1.53035
1.532
1.5338
1.53589
1.48609
1.48719
1.48921
1.49117
1.49306
1.49495
1.49681
1.49883
1.50091
1.50295
1.50493
1.50684
1.50837
1.50969
1.51102
1.5124
1.51386
1.51545
1.51705
1.51869
1.52069
1.52263
1.5247
1.52704
1.52902
1.53116
1.48145
1.48302
1.4848
1.4863
1.48817
1.49011
1.49206
1.49398
1.49591
1.49786
1.49996
1.5021
1.50421
1.50611
1.50784
1.50908
1.51039
1.51174
1.5132
1.51473
1.51626
1.51791
1.51983
1.52184
1.52388
1.52626
1.47774
1.48
1.48178
1.48353
1.48525
1.48698
1.48898
1.49096
1.49296
1.49499
1.49697
1.49906
1.50122
1.50342
1.5055
1.50703
1.5083
1.50964
1.511
1.51244
1.51398
1.51543
1.51728
1.5189
1.52101
1.47342
1.47548
1.47697
1.47864
1.48046
1.48227
1.4841
1.48597
1.4879
1.4899
1.49191
1.49394
1.49597
1.49809
1.50021
1.5024
1.50462
1.50602
1.50734
1.50874
1.51011
1.51154
1.51314
1.51465
1.51638
1.51823
1.46959
1.47126
1.47266
1.47417
1.47583
1.47741
1.47909
1.48097
1.4829
1.48485
1.48681
1.48883
1.49083
1.49283
1.49486
1.49694
1.49892
1.50083
1.50316
1.5049
1.50625
1.50772
1.50911
1.51058
1.51217
1.51422
1.46622
1.467
1.46843
1.47003
1.47154
1.47307
1.47457
1.47625
1.47795
1.47982
1.48175
1.48369
1.4857
1.4877
1.48969
1.4917
1.49374
1.49572
1.49765
1.49947
1.50164
1.50372
1.50513
1.50665
1.50818
1.50984
1.51115
1.46286
1.46474
1.46618
1.46757
1.46906
1.47046
1.47193
1.47347
1.47513
1.4769
1.47874
1.48061
1.48245
1.48451
1.48655
1.48857
1.49059
1.49262
1.49455
1.49649
1.49833
1.50037
1.50234
1.50402
1.50579
1.50735
1.4594
1.46072
1.46212
1.46374
1.46537
1.46679
1.46815
1.46943
1.47084
1.47233
1.47406
1.47584
1.47754
1.47923
1.48115
1.4834
1.48555
1.48754
1.48946
1.49144
1.49336
1.49519
1.49719
1.49905
1.50093
1.50301
1.45664
1.45826
1.45963
1.46105
1.46256
1.46429
1.46594
1.46734
1.46843
1.46972
1.47123
1.47304
1.47477
1.47632
1.47801
1.48011
1.48241
1.48448
1.48658
1.48828
1.49009
1.49201
1.4939
1.49598
1.49783
1.45298
1.45441
1.45587
1.45723
1.45854
1.45991
1.46138
1.46323
1.46509
1.46646
1.46758
1.46881
1.47036
1.47215
1.47381
1.47522
1.47697
1.47917
1.48135
1.4833
1.48533
1.48727
1.48912
1.49088
1.49242
1.45051
1.45184
1.45346
1.45488
1.4563
1.45767
1.45901
1.46043
1.46219
1.46414
1.46554
1.46669
1.46803
1.46971
1.4715
1.47301
1.47441
1.47615
1.47826
1.48035
1.48219
1.48425
1.486
1.48821
1.4903
1.44634
1.44809
1.44956
1.45092
1.45246
1.45393
1.45539
1.45683
1.45824
1.45968
1.4613
1.46296
1.4644
1.46572
1.46713
1.46881
1.47062
1.47221
1.47359
1.47532
1.47717
1.47912
1.48094
1.4831
1.48475
1.44405
1.44559
1.44698
1.44872
1.45015
1.45158
1.45297
1.45451
1.45604
1.45755
1.45905
1.46058
1.46189
1.46323
1.4646
1.46609
1.46779
1.46958
1.47118
1.47259
1.47433
1.47603
1.47796
1.47996
1.48191
1.44041
1.44185
1.44318
1.44456
1.44592
1.44743
1.44911
1.45065
1.45198
1.45353
1.4552
1.45678
1.45834
1.4598
1.46102
1.46228
1.46367
1.46514
1.46669
1.46841
1.47006
1.47156
1.47328
1.47489
1.47671
1.43859
1.43971
1.4409
1.44219
1.4435
1.44474
1.44618
1.44778
1.44938
1.45083
1.45235
1.45401
1.45574
1.45745
1.45888
1.46011
1.46139
1.46276
1.46425
1.46575
1.46748
1.46903
1.47049
1.4719
1.43546
1.43626
1.43756
1.4388
1.44002
1.4412
1.44248
1.44367
1.44495
1.44633
1.44784
1.44946
1.45111
1.45274
1.45467
1.45638
1.45788
1.45917
1.46044
1.46186
1.46331
1.46472
1.46641
1.46798
1.46943
1.4331
1.43431
1.43555
1.43674
1.43791
1.43916
1.44038
1.44159
1.44278
1.44393
1.44512
1.44639
1.44792
1.44971
1.45134
1.45335
1.45524
1.45677
1.45808
1.45946
1.46087
1.46243
1.46383
1.4653
1.43021
1.43111
1.43235
1.43352
1.43468
1.43583
1.43701
1.43822
1.43948
1.44077
1.44205
1.44318
1.44428
1.44544
1.44676
1.44841
1.45012
1.45199
1.45389
1.45558
1.45704
1.45844
1.45979
1.46129
1.46279
1.42823
1.42928
1.43042
1.43155
1.43271
1.43384
1.43498
1.43611
1.43726
1.43853
1.43989
1.44131
1.44253
1.44367
1.44474
1.44596
1.44747
1.44913
1.45086
1.45263
1.45428
1.45588
1.45735
1.45885
1.42534
1.42627
1.42737
1.42847
1.42963
1.43073
1.4319
1.433
1.43411
1.43524
1.43639
1.43766
1.43895
1.4404
1.44173
1.44298
1.44405
1.44522
1.4466
1.44822
1.44978
1.45143
1.45301
1.45483
1.45641
1.42343
1.42446
1.42552
1.4266
1.42772
1.42884
1.42997
1.43109
1.43217
1.43322
1.43432
1.43551
1.43686
1.43815
1.43955
1.4409
1.44218
1.44328
1.44442
1.44583
1.44729
1.44882
1.45045
1.45196
1.42144
1.42269
1.42365
1.42475
1.42582
1.42695
1.42808
1.42921
1.43032
1.43137
1.43237
1.43342
1.4346
1.43595
1.43731
1.43872
1.44005
1.4413
1.44241
1.44362
1.44505
1.44649
1.44786
1.44942
1.41867
1.41963
1.42073
1.42186
1.4229
1.42396
1.42505
1.42616
1.42733
1.42848
1.42958
1.4306
1.4316
1.43265
1.43377
1.43504
1.43642
1.43785
1.43923
1.44046
1.44157
1.44272
1.44414
1.44567
1.4471
1.41673
1.41782
1.41886
1.41997
1.42108
1.4221
1.42314
1.42423
1.42539
1.42658
1.42775
1.42883
1.42985
1.43087
1.43195
1.43309
1.43431
1.4356
1.43692
1.43822
1.4395
1.44072
1.44199
1.44314
1.4149
1.41578
1.417
1.41805
1.41916
1.42025
1.42129
1.42231
1.42341
1.42459
1.42584
1.42702
1.42806
1.42907
1.43011
1.43122
1.43238
1.43355
1.43479
1.43606
1.43736
1.43851
1.43984
1.44112
1.41266
1.41394
1.415
1.41609
1.4172
1.41831
1.41946
1.4205
1.42151
1.42256
1.42372
1.42499
1.42623
1.42724
1.42827
1.4293
1.43041
1.43158
1.43275
1.43395
1.43524
1.43654
1.43778
1.4099
1.4109
1.41186
1.41299
1.41416
1.41525
1.41638
1.41752
1.41866
1.41973
1.42071
1.42171
1.42284
1.42409
1.42532
1.42637
1.42742
1.42847
1.42959
1.43077
1.43186
1.43312
1.43427
1.43537
1.40772
1.40893
1.40998
1.41099
1.41208
1.41324
1.41441
1.41561
1.41678
1.41793
1.41898
1.41998
1.42094
1.42201
1.42319
1.42438
1.4255
1.42658
1.42765
1.42877
1.42998
1.43108
1.43237
1.43345
1.40597
1.40693
1.40801
1.40907
1.4101
1.4112
1.41233
1.41349
1.4147
1.41595
1.41722
1.41827
1.41928
1.42027
1.4213
1.42238
1.4235
1.42462
1.42572
1.42678
1.42788
1.42908
1.43016
1.40297
1.4039
1.40502
1.40604
1.40711
1.40816
1.40922
1.41032
1.41145
1.41255
1.41374
1.41508
1.41645
1.41749
1.41845
1.41948
1.42051
1.42157
1.42265
1.42374
1.42487
1.42601
1.4271
1.42797
1.40134
1.40208
1.4031
1.40411
1.40514
1.4062
1.40722
1.40831
1.40945
1.41062
1.41172
1.41279
1.41406
1.4155
1.41663
1.41757
1.41859
1.41963
1.42068
1.42177
1.42283
1.42401
1.4251
1.42658
1.39911
1.40025
1.40129
1.40227
1.40322
1.40423
1.40523
1.40625
1.40734
1.40851
1.40976
1.4109
1.4119
1.41298
1.41436
1.41562
1.41663
1.41766
1.41875
1.41981
1.42091
1.42197
1.4231
1.42429
1.39721
1.39837
1.39936
1.40039
1.40143
1.40238
1.40333
1.40432
1.4053
1.40635
1.40753
1.40888
1.41015
1.41116
1.41215
1.41332
1.41457
1.41567
1.41672
1.41782
1.4189
1.42001
1.4212
1.39435
1.39563
1.39647
1.39752
1.39854
1.39958
1.4006
1.40155
1.40252
1.40351
1.40446
1.4054
1.40649
1.40789
1.40922
1.41029
1.41127
1.41235
1.41356
1.41469
1.41578
1.41696
1.41805
1.41917
1.39297
1.3935
1.39468
1.39569
1.39669
1.39771
1.39876
1.39976
1.40072
1.40171
1.40271
1.40365
1.40451
1.40549
1.40685
1.40822
1.40936
1.41037
1.41142
1.41259
1.41371
1.41485
1.41595
1.41724
1.39054
1.39184
1.39281
1.39382
1.39486
1.39587
1.3969
1.39794
1.39891
1.39987
1.40087
1.40189
1.4029
1.40378
1.40474
1.40596
1.40726
1.40841
1.40946
1.4105
1.41164
1.41271
1.41383
1.38896
1.38986
1.39092
1.39193
1.39298
1.39403
1.39506
1.3961
1.39711
1.39806
1.39901
1.39998
1.401
1.40211
1.40312
1.40409
1.40516
1.40632
1.40747
1.40851
1.40959
1.41074
1.41182
1.38684
1.38792
1.38899
1.3901
1.39112
1.39215
1.39322
1.39429
1.39532
1.39632
1.39725
1.39818
1.39908
1.4
1.40108
1.40222
1.40327
1.4043
1.40541
1.40652
1.40753
1.40852
1.40974
1.38499
1.38608
1.38705
1.38812
1.38918
1.39026
1.39132
1.39242
1.39351
1.39458
1.39559
1.3965
1.3974
1.39828
1.39916
1.4002
1.40131
1.4024
1.40344
1.40446
1.40551
1.40648
1.40799
1.38322
1.38417
1.38517
1.38619
1.38722
1.38826
1.38934
1.39045
1.39152
1.39259
1.3936
1.3947
1.39569
1.39657
1.39751
1.39842
1.39943
1.4005
1.40157
1.40259
1.40362
1.40459
1.40542
1.38128
1.38231
1.3833
1.38429
1.38531
1.38632
1.38734
1.38842
1.38953
1.39058
1.39158
1.39253
1.39362
1.39472
1.39566
1.39663
1.39761
1.39862
1.39963
1.40065
1.4017
1.40262
1.40374
1.37825
1.3793
1.38042
1.38144
1.3824
1.38341
1.38443
1.38544
1.38645
1.38754
1.38862
1.38963
1.39059
1.39153
1.39258
1.39365
1.39468
1.39569
1.39669
1.39768
1.39868
1.39973
1.4008
1.37696
1.37764
1.37853
1.37957
1.38051
1.38148
1.3825
1.38351
1.38452
1.38558
1.38666
1.38772
1.38875
1.38973
1.39067
1.39166
1.39269
1.39372
1.39476
1.39578
1.39678
1.3978
1.39882
1.37469
1.37586
1.3768
1.37765
1.37862
1.37961
1.3806
1.38159
1.38257
1.38362
1.38474
1.38584
1.38689
1.38788
1.38886
1.38982
1.39079
1.39179
1.39281
1.39384
1.39487
1.39578
1.39689
1.3731
1.37395
1.37499
1.3759
1.3768
1.37774
1.37872
1.37978
1.3808
1.38174
1.38277
1.38392
1.38508
1.38612
1.38704
1.38795
1.38891
1.38987
1.39086
1.39185
1.39289
1.39392
1.39491
1.37119
1.37219
1.37309
1.37407
1.37501
1.3759
1.37682
1.37781
1.37887
1.38005
1.38101
1.382
1.38305
1.38414
1.3852
1.38614
1.38702
1.38797
1.38894
1.38992
1.39092
1.39197
1.39315
1.36925
1.37033
1.37128
1.37221
1.37318
1.37413
1.37501
1.37588
1.37679
1.37778
1.37906
1.38014
1.38114
1.38213
1.38313
1.38418
1.38517
1.38608
1.38703
1.38801
1.38896
1.39
1.39101
1.36767
1.36837
1.36942
1.37038
1.37131
1.37229
1.37324
1.37416
1.37498
1.37576
1.37662
1.37789
1.37912
1.38023
1.38122
1.38219
1.38319
1.38419
1.38514
1.38613
1.38713
1.38807
1.38901
1.36557
1.36655
1.36746
1.36846
1.36944
1.37041
1.37137
1.37237
1.37334
1.37418
1.37492
1.37578
1.37699
1.3782
1.37935
1.38036
1.38131
1.38227
1.38325
1.3842
1.38519
1.38614
1.38701
1.36341
1.3647
1.3656
1.36657
1.36754
1.36852
1.3695
1.37049
1.37152
1.37254
1.37342
1.37418
1.37502
1.37614
1.3773
1.37841
1.37941
1.38039
1.38134
1.38229
1.38329
1.38432
1.38527
1.36157
1.36265
1.36371
1.36474
1.36568
1.36663
1.3676
1.3686
1.36959
1.37062
1.37172
1.37268
1.37348
1.3743
1.3753
1.3764
1.37748
1.37848
1.37946
1.38042
1.38137
1.3823
1.35878
1.35927
1.36064
1.36188
1.36302
1.364
1.36488
1.36577
1.36672
1.36771
1.36863
1.36959
1.37071
1.37181
1.37271
1.37355
1.37451
1.37557
1.3766
1.3776
1.37857
1.37955
1.38049
1.35649
1.35755
1.35842
1.3596
1.3609
1.36217
1.36327
1.3641
1.36497
1.3659
1.36685
1.36772
1.3686
1.36972
1.37089
1.37187
1.37275
1.3737
1.37473
1.37575
1.3767
1.37766
1.37855
1.354
1.35545
1.35653
1.35749
1.35862
1.35991
1.36123
1.36238
1.36328
1.36416
1.36512
1.36611
1.36694
1.36779
1.36882
1.36994
1.37095
1.37189
1.37286
1.37388
1.37493
1.37586
1.37674
1.35225
1.35336
1.35452
1.35558
1.35656
1.35768
1.35895
1.36029
1.36145
1.3624
1.36328
1.36423
1.36524
1.36612
1.367
1.36794
1.36899
1.37002
1.37098
1.37197
1.37295
1.37402
1.37509
1.35007
1.35137
1.35254
1.35363
1.35471