/*--------------------------------*- C++ -*----------------------------------*\
| =========                 |                                                 |
| \\      /  F ield         | OpenFOAM: The Open Source CFD Toolbox           |
|  \\    /   O peration     | Version:  2312                                  |
|   \\  /    A nd           | Website:  www.openfoam.com                      |
|    \\/     M anipulation  |                                                 |
\*---------------------------------------------------------------------------*/
FoamFile
{
    version     2.0;
    format      ascii;
    arch        "LSB;label=64;scalar=64";
    class       volScalarField;
    location    "200";
    object      omega;
}
// * * * * * * * * * * * * * * * * * * * * * * * * * * * * * * * * * * * * * //

dimensions      [0 0 -1 0 0 0 0];

internalField   nonuniform List<scalar> 
404911
(
242.835
193.796
3437.43
1536.58
167.588
182.504
144.141
603.361
341.348
281.724
214.331
289.432
166.181
209.341
399.727
1100.01
223.154
173.725
202.347
297.163
398.274
198.942
654.316
380.435
130.957
942.794
224.872
104.869
133.604
968.555
203.136
94.6223
200.19
304.114
178.271
94.1887
202.422
400.1
188.522
79.1298
207.708
1001.8
186.268
71.8865
68.6101
358.107
306.209
77.0049
84.195
384.326
377.271
340.605
127.327
1322.07
326.007
566.351
9402.16
133.683
304.942
203.39
190.444
114.353
160.757
70.8659
81.499
217.957
120.764
323.217
162.989
75.8464
128.11
45.5779
127.637
90.7744
45.9052
586.64
2266.11
221.792
84.8435
184.215
73.3025
164.01
47.0626
73.7022
52.4707
80.7787
155.012
75.3436
1121.31
122.679
152.32
2952.84
112.404
160.885
122.264
65.7743
76.2805
145.686
53.9102
201.789
599.958
70.1085
74.8888
440.961
1213.04
466.346
220.195
651.697
308.221
239.271
181.021
186.182
180.84
192.154
2238.6
481.238
199.035
4513.74
561.275
160.625
162.236
160.462
159.145
230.847
1266.41
280.821
183.562
180.076
169.072
506.147
443.624
471.448
152.848
142.022
151.787
143.894
188.947
206.635
156.55
258.319
1143.28
276.962
171.045
156.533
159.637
159.762
161.849
150.142
470.332
403.506
148.193
140.915
161.531
1750.15
262.437
949.172
225.735
152.023
142.757
149.581
145.01
148.686
151.082
149.138
144.245
141.616
145.114
147.782
162.493
233.882
362.49
547.88
411.958
380.032
383.899
378.701
453.275
138.192
145.316
141.896
146.622
149.027
159.795
173.659
179.838
180.84
257.926
667.553
424.132
356.435
350.584
210.048
295.765
472.961
391.389
127.582
138.127
142.473
155.705
165.267
172.146
203.264
1137.99
948.151
223.145
545.731
275.631
231.652
208.906
269.437
368.719
261.699
309.344
379.404
390.88
123.849
144.964
156.35
158.031
182.157
467.413
818.024
557.216
238.25
224.79
142.306
184.304
209.151
212.371
275.313
282.857
275.833
219.804
113.701
148.692
155.757
175.237
265.577
1172.17
1171.57
243.358
107.754
163.546
142.599
121.692
116.169
148.844
356.321
220.098
184.794
139.457
153.785
262.078
436.479
148.63
185.957
1072.48
424.676
138.467
92.3037
203.175
128.578
117.401
104.992
134.221
137.753
143.542
146.537
163.502
200.658
346.29
428.203
496.401
389.134
440.716
183.44
134.883
331.16
160.199
116.959
124.578
110.733
111.541
131.997
123.385
137.684
277.55
316.677
394.533
438.812
1650.95
328.187
153.794
135.662
111.243
114.508
124.116
116.281
111.314
114.933
119.226
114.748
113.632
125.637
341.938
356.015
405.328
214.235
994.98
940.425
848.817
268.459
211.933
91.9313
81.6981
134.125
108.98
107.204
108.14
120.272
129.492
116.879
126.282
169.762
323.671
163.239
513.811
1070.5
220.487
124.428
138.31
132.795
122.77
112.891
67.2956
117.708
93.4033
109.892
92.8456
96.0804
123.153
136.713
176.856
417.923
241.036
437.98
140.001
100.874
100.056
92.1536
159.425
100.785
114.173
65.874
84.8812
71.0899
77.6869
110.509
96.0983
129.302
208.73
167.856
979.512
1107.56
238.677
133.156
101.844
86.08
76.9406
85.8381
86.8649
79.4632
79.4945
71.997
113.117
110.12
111.902
107.924
121.986
347.039
869.028
323.311
124.174
105.318
145.01
151.699
99.1851
93.5077
73.0557
57.8311
58.5102
62.6366
84.1387
118.94
128.524
150.45
123.129
258.9
691.974
1070.22
863.228
295.835
168.254
126.425
103.025
123.42
92.4471
76.5766
65.7101
60.8919
63.1142
70.1136
94.6276
147.499
144.44
136.406
421.765
400.208
145.911
133.797
122.834
112.084
96.5552
84.4952
111.038
72.6381
94.841
82.0514
73.9302
76.6325
97.7551
101.15
127.17
260.316
935.423
162.689
105.214
129.709
87.6942
87.0123
86.8404
82.7053
87.4146
83.1081
84.6371
94.5098
95.1287
98.6591
99.5207
167.28
140.349
293.677
394.74
120.069
136.116
112.142
82.1779
76.9463
87.2073
75.4292
70.6451
95.8587
123.552
104.906
97.6488
112.893
115.652
164.284
156.171
958.878
218.138
100.175
86.6886
71.9081
72.5027
73.2149
80.2172
99.9774
61.0644
59.6949
70.9733
95.9228
129.25
136.129
180.673
144.101
256.132
1149.15
420.793
145.918
99.0059
78.3014
68.5146
64.9358
75.0071
76.6828
64.8731
62.9556
64.1151
67.2511
71.758
82.9004
166.456
97.1087
161.469
973.965
1087.39
200.654
96.7322
125.597
83.4383
69.083
63.7655
64.2366
67.0158
74.674
64.1817
71.343
92.945
87.0853
90.2722
98.1542
132.225
267.323
400.501
127.219
98.5388
80.6282
69.1489
63.7175
60.9753
64.8458
75.9137
69.3711
70.2225
73.533
86.6892
110.562
131.722
129.229
153.009
965.853
1109.75
208.393
100.667
91.2278
76.4439
67.3156
62.2724
58.8545
56.5329
60.8788
73.7151
77.4826
79.0069
78.6989
96.5795
112.441
150.267
239.807
875.227
138.678
107.767
89.7239
75.4392
67.9048
62.1551
58.1159
54.6227
53.2372
54.9004
62.7393
68.4476
74.9912
84.0656
112.159
173.83
293.944
244.52
111.428
119.644
93.3347
77.2033
68.403
63.9534
57.5377
52.1129
51.0639
53.172
57.9748
65.3357
73.4684
92.8402
106.283
146.338
476.605
217.886
125.366
117.996
84.3863
76.0989
66.7314
64.658
60.1671
53.8798
49.9057
52.7432
57.9713
64.6484
82.1682
92.9575
113.387
224.68
1085.75
1123.53
157.981
95.0473
97.7633
82.4078
70.5802
64.224
61.3993
66.4687
63.8653
55.7807
55.7273
60.246
66.1409
78.1868
127.818
145.268
432.037
894.478
141.156
95.938
74.9177
67.2707
63.913
59.4358
55.4502
52.8741
59.0891
60.1292
58.9231
62.5574
69.2381
77.7538
110.461
149.104
1030.17
258.377
119.426
103.324
79.7263
68.8593
66.5543
62.1263
53.9521
48.6753
46.8247
50.0592
55.3364
61.9033
67.9526
94.9429
97.0452
154.767
1064.55
245.988
105.148
86.6231
74.287
65.9113
69.5972
70.6815
53.3553
46.0502
46.3432
49.9885
55.5569
62.4286
71.7701
85.3375
107.1
238.035
1002.15
176.646
104.488
86.0192
72.407
68.1867
61.8877
64.7759
61.7566
44.041
42.9728
49.0929
55.1959
61.8643
73.1586
97.3088
128.325
413.561
404.889
131.278
124.104
112.447
76.8981
69.4213
67.4329
56.2864
59.9011
52.1899
40.3647
51.2459
58.7205
63.0197
74.6975
101.584
144.12
967.775
255.187
110.796
85.229
73.3619
65.1773
65.9174
74.5742
73.8041
62.5984
43.4755
51.949
52.9649
60.5096
67.2345
74.4209
113.416
185.92
1100.92
1021.15
162.243
102.211
87.6788
71.3737
64.3169
58.8093
67.0742
69.1815
64.497
57.7887
42.0687
53.0842
62.997
67.8946
90.9886
94.5702
211.214
1013.86
151.475
96.9224
77.1092
66.5702
62.0206
58.3349
54.4395
64.52
66.1414
62.7366
54.1765
54.7914
63.4057
74.3446
86.0217
106.518
380.264
997.47
149.612
97.5363
75.2635
66.3497
61.1709
57.1161
53.924
51.7058
52.5807
49.7448
61.5478
59.8303
69.6844
84.9328
111.636
120.344
861.145
993.101
145.762
97.0959
75.8109
66.2865
61.9301
57.0645
52.1286
51.1796
55.3084
53.7753
55.2926
63.4834
73.1325
86.9685
126.903
179.787
1090.06
251.236
127.886
100.586
78.4583
67.5965
61.6511
56.9239
51.5497
47.3935
48.2137
58.2
65.8691
69.5221
74.6226
85.0635
121.416
205.317
1122.76
229.522
108.939
87.1405
74.7346
65.8968
60.8403
55.8431
50.4736
47.9845
46.529
50.3662
63.6585
73.033
75.7887
78.3846
115.962
202.288
1072.09
151.954
119.579
106.635
72.9166
64.2027
58.9089
55.2649
52.1757
46.6224
47.4564
50
53.8205
63.2506
74.5598
83.0898
103.389
219.444
946.545
146.575
98.046
72.1967
63.166
58.7829
55.2298
52.3024
57.224
56.205
49.5254
50.5292
55.0777
59.5086
66.2821
81.0957
104.939
232.626
1009.67
144.29
94.4201
71.2805
61.0895
56.7273
51.7179
47.2427
42.9804
49.1441
53.0557
51.222
55.3849
60.4153
67.0296
83.966
109.063
248.428
1006.61
145.837
103.719
73.5919
61.3139
55.5071
49.651
43.8208
40.1417
38.4944
41.9861
47.3047
54.1967
59.9327
68.7592
85.7133
117.192
390.863
936.943
136.795
92.889
72.0812
61.6749
55.4015
48.3022
42.5442
37.6704
37.6155
41.323
47.3236
54.0806
60.1851
69.0549
90.6486
140.711
951.547
250.405
132.057
90.747
73.4059
65.3893
56.9477
48.9958
42.009
36.6184
34.9458
40.1864
47.388
53.7945
60.5855
70.7995
91.0926
142.028
1034.26
252.241
126.59
88.6893
73.9148
68.9429
63.1992
52.2626
41.9919
35.1068
31.975
37.2429
49.9703
55.7348
60.561
73.8584
98.4914
139.106
1000.16
1121.64
166.479
119.286
88.0492
67.8362
67.884
70.2139
55.1263
49.0118
35.8526
38.1852
38.7753
51.5802
61.2618
63.2696
73.6146
111.626
149.601
985.955
1008.29
132.555
89.2916
116.246
72.855
58.5151
61.5607
62.057
52.296
44.1543
39.0613
37.7942
49.7679
67.7852
68.5729
75.3904
105.742
191.404
138.287
86.9142
65.1118
56.6256
54.0276
52.6571
48.4714
45.1522
45.8693
45.4492
39.5166
53.2109
57.5059
65.956
88.8814
93.0995
202.904
947.292
139.465
86.5141
63.211
54.7755
52.2868
51.7707
49.4423
43.4314
47.4158
40.5218
40.6883
55.4593
61.5313
65.5735
92.2473
100.968
245.358
992.299
134.347
86.0135
63.4913
54.8909
51.8849
48.668
50.9211
48.799
39.247
44.0987
47.475
58.8289
61.5275
63.4024
82.6837
106.715
389.873
1093.98
135.648
89.8849
66.5228
55.6436
50.5879
47.1953
44.4264
49.6651
48.5563
37.8656
47.5111
56.846
58.0916
64.5674
79.7343
114.15
806.331
123.999
103.336
74.1532
57.9838
49.4324
45.9703
43.4916
41.1183
50.1341
46.3706
46.8521
50.5919
54.9305
65.7296
86.8947
133.715
908.303
705.872
186.696
72.9497
56.1416
47.3251
43.0372
41.7046
40.3269
38.7954
46.0452
50.2122
55.8501
59.5018
66.7459
95.0166
137.291
1006.22
2126.9
300.606
141.124
87.4541
50.6276
42.8586
39.504
37.9248
40.6538
43.1855
46.4832
53.8873
60.0337
66.8232
81.2438
91.1453
153.539
1055.02
236.647
100.902
95.064
69.2789
44.4222
38.6411
36.3724
35.5855
36.3843
45.9763
49.2788
55.6547
63.9546
68.108
94.7433
96.0328
219.194
222.993
103.359
83.8564
63.8236
46.8835
37.3943
35.1051
35.2404
34.8843
44.105
48.5101
61.6098
71.6184
78.3414
88.7928
102.97
240.443
1143.63
192.553
96.0904
86.5338
74.0999
70.5969
71.7847
44.2732
33.8315
34.0635
36.4915
47.0489
63.3175
75.0164
89.0137
111.705
125.057
815.765
918.828
142.339
100.254
78.7694
70.6285
67.067
101.186
134.79
47.3247
32.2438
40.8377
55.3579
68.6372
79.0266
99.6545
131.986
138.447
952.281
795.15
108.01
184.89
117.897
77.9689
62.205
55.5945
79.5371
136.27
57.9907
40.0482
61.6936
80.1272
87.6689
103.562
145.847
143.847
966.761
410.406
103.528
116.977
93.7623
73.5293
60.0667
60.9271
69.2794
77.9497
77.5672
57.6376
71.3144
81.1232
83.9255
96.4006
154.345
151.117
1006.14
990.322
207.632
103.594
106.982
105.198
83.1947
56.9675
47.355
75.2272
105.417
98.8031
77.3027
76.076
77.0038
74.9336
94.5365
122.695
283.914
1015.07
880.83
126.562
141.001
99.5869
92.5059
88.0216
59.3185
31.2313
37.4464
50.3296
57.8445
57.5457
62.8873
66.386
72.9976
81.8725
101.951
166.655
1046.13
193.182
113.862
93.0299
89.995
84.109
55.5316
28.1523
27.8226
33.512
42.4957
58.2764
64.2234
66.9855
73.9041
93.5307
103.934
216.846
1170.41
221.262
111.069
107.899
96.2176
84.7311
39.7388
30.2004
30.8842
30.6906
40.2405
61.8373
69.8797
69.9381
75.1988
96.2859
112.009
256.121
226.12
117.651
115.836
98.6155
86.0995
47.6796
28.5424
34.1854
39.1177
47.5902
76.4876
74.4253
72.6613
76.5817
99.0635
117.623
405.152
202.146
187.996
129.772
98.7157
86.3078
33.441
25.0216
28.5701
37.9908
53.3871
76.3992
76.9088
74.4146
82.0731
94.3804
124.52
845.391
937.781
142.147
121.51
104.668
92.8899
86.7059
49.0067
24.7312
27.6994
37.9078
62.0949
79.0438
82.0643
77.8547
82.3279
111.385
155.774
948.478
887.238
147.945
128.838
103.849
89.1773
85.4975
41.0355
28.9824
29.2023
39.7195
61.0667
74.5458
77.042
74.5037
84.5793
106.42
231.023
822.422
123.149
94.1639
87.4992
82.4661
80.3623
60.0902
28.2987
29.8958
40.4287
60.2791
72.5238
65.5994
69.6434
84.3233
112.859
266.675
837.78
120.741
100.065
89.4556
81.6535
73.5743
40.7019
35.6507
36.2214
44.5
56.2695
68.4918
65.1663
68.8806
85.63
116.872
267.014
858.277
127.63
108.032
92.9888
85.5657
64.1529
35.1795
35.1576
37.7527
43.6114
52.3009
65.4611
64.9116
73.1207
86.3471
120.68
828.823
872.303
133.138
117.367
108.549
95.9804
76.148
48.1877
35.0914
41.6335
46.2605
51.7495
66.4468
67.49
81.5033
100.88
140.419
930.822
268.954
135.07
149.886
125.713
104.75
73.0473
101.272
90.7056
54.4206
52.8493
58.4894
70.1643
73.9106
82.8441
121.973
143.736
1006.87
329.3
317.802
134.399
112.472
83.4151
43.2694
64.9048
94.1493
77.0169
80.2531
81.359
83.2604
101.974
117.337
184.216
1142.9
320.351
186.629
133.083
120.843
75.6803
46.5246
56.5322
85.8406
98.7583
99.7561
100.137
88.1705
103.846
103.1
232.16
278.31
201.215
151.431
130.979
116.742
72.7224
52.5321
73.8614
86.6587
98.1824
96.1458
85.7042
98.4465
103.3
109.285
259.728
289.23
131.148
115.001
128.215
126.528
94.2628
57.8147
73.5289
89.5559
102.192
96.6418
105.048
106.711
151.675
136.536
821.979
283.234
132.741
122.396
125.303
128.825
132.25
76.7464
89.7771
96.8063
94.5933
105.498
113.707
132.654
193.454
162.091
1018.31
1127.45
252.931
146.993
101.104
127.982
142.492
125.432
126.219
102.385
132.093
127.205
110.479
106.027
147.685
208.354
460.724
1176.91
177.347
116.449
113.26
77.4666
148.214
145.291
112.775
79.8392
100.229
126.899
121.897
132.391
159.389
255.316
224.726
943.561
170.093
129.554
96.6376
66.6648
86.4392
107.896
175.546
107.346
93.3802
119.888
137.352
150.555
172.102
278.608
796.347
254.045
125.562
491.319
223.646
110.181
57.3516
77.3435
70.7102
70.1823
83.0932
102.641
101.711
121.142
163.566
292.812
4084.6
268.168
502.487
231.553
133.063
116.584
76.8485
68.8299
94.8737
95.009
92.6785
113.708
131.745
135.879
175.915
279.713
784.015
1027.86
593.159
278.641
151.627
113.656
90.7754
60.9662
70.0526
91.3738
104.27
125.979
156.255
189.434
182.286
303.422
1147.78
173.689
413.259
209.565
132.313
86.4134
63.4687
77.6249
96.5452
111.119
119.587
129.648
121.179
176.175
213.071
1391.6
1135.54
188.861
141.101
292.874
195.807
122.134
64.7101
58.9064
98.2905
110.125
125.745
141.263
153.875
141.917
295.443
1218.93
531.418
177.06
142.545
444.434
284.617
129.958
91.3806
79.2895
101.16
115.242
132.945
206.162
124.645
155.529
306.445
1082.56
496.343
416.569
298.592
210.859
100.451
101.32
107.261
124.959
138.447
215.454
146.307
208.387
1120.99
655.989
468.052
389.747
307.521
188.936
228.375
108.658
104.381
126.628
201.685
125.521
157.746
294.578
1093.13
157.734
131.259
440.782
401.942
142.123
221.845
309.305
130.268
156.484
194.583
147.616
188.033
496.793
1150.63
163.364
131.052
442.636
396.984
207.301
180.616
295.363
258.723
273.228
310.587
157.407
204.75
1177.58
1085.2
168.263
479.896
427.121
430.424
295.567
168.316
191.777
203.998
296.52
468.386
164.985
216.054
1270.07
1170.1
181.604
508.027
429.003
431.101
401.1
183.525
194.055
181.254
262.025
484.868
174.699
302.926
1325.49
1135.54
202.821
162.413
476.206
414.661
444.917
288.197
175.922
208.036
309.904
165.723
191.404
310.253
1442.3
1424.48
1125.44
176.575
162.912
452.886
442.315
561.737
287.258
236.262
345.408
513.236
197.368
332.331
170.568
498.819
446.474
455.942
152.374
503.008
523.152
548.991
512.886
169.528
155.071
461.697
543.71
177.551
199.315
276.1
1174.77
6243.03
562.963
158.046
486.364
523.101
211.013
366.19
2735.4
2036
470.874
758.97
202.088
228.29
1154.01
428.718
731.583
199.977
216.537
566.661
745.432
522.699
226.656
190.774
239.791
1146.28
1142.12
270.271
1867.84
728.699
493.862
318.936
192.26
182.059
214.908
209.332
627.836
259.383
213.551
378.507
688.472
1491.01
1293.24
6445.17
519.405
1493.17
585.864
558.858
1370.33
582.253
396.785
304.505
294.027
276.703
260.347
250.934
319.142
1349.22
558.309
361.432
273.787
266.244
249.814
240.042
239.987
248.09
248.389
245.431
231.607
232.209
235.885
224.384
1216.16
487.112
253.752
235.724
223.374
227.35
227.359
224.091
228.097
229.455
234.06
225.387
218.177
223.918
234.27
232.03
234.226
229.52
231.797
310.645
364.227
806.256
893.385
438.941
218.229
195.327
196.127
193.06
196.18
203.605
207.785
209.882
211.884
216.576
224.478
208.6
570.943
557.993
233.981
243.228
227.176
237.244
234.962
259.011
572.992
500.937
270.421
200.901
179.186
160.209
151.996
159.646
169.714
178.809
183.38
189.546
191.986
203.772
205.812
213.53
217.987
205.648
526.901
564.819
207.122
229.855
234.312
248.317
280.938
1250.03
397.97
183.053
142.877
131.927
161.441
165.607
379.078
530.261
643.644
146.497
161.944
174.085
172.073
173.111
183.446
206.972
214.843
205.884
195.367
510.147
561.031
211.77
235.756
273.908
598.482
1467.52
360.401
227.349
196.486
137.409
136.667
131.614
154.603
185.295
164.369
160.005
274.97
143.007
165.442
255.392
177.52
609.541
191.028
213.641
223.437
223.899
573.759
571.279
249.984
575.241
1211.79
283.552
261.842
174.425
121.598
104.153
106.624
130.335
133.332
124.734
205.514
160.319
144.739
134.746
190.67
327.378
154.868
161.012
458.713
209.431
219.483
216.251
218.39
241.643
513.275
370.063
1295.62
277.09
205.352
166.824
139.466
99.5953
93.8349
91.6557
100.595
119.311
128.572
103.954
198.505
172.318
165.949
171.261
148.469
131.177
131.594
186.084
170.763
211.604
226.501
321.797
558.537
1034.97
347.72
143.864
133.525
160.848
133.531
135.757
105.35
93.1589
82.2235
99.1051
99.7081
91.8234
90.5012
88.8614
93.8105
97.4338
101.295
143.075
131.967
185.698
160.86
173.53
189.467
221.103
509.562
1092.52
194.132
117.325
155.245
136.18
114.68
126.646
117.898
117.75
114.711
111.664
98.6251
94.3958
99.6253
111.132
89.3865
92.8774
95.8794
97.9632
101.85
213.191
143.5
534.876
505.316
638.005
4519.08
749.012
1363.34
280.255
170.444
123.575
105.952
99.5568
112.217
152.864
145.619
126.469
122.573
119.562
115.112
118.457
122.553
116.032
103.231
105.728
102.501
103.128
110.877
121.637
524.55
1604.33
1256.94
316.644
171.631
117.812
100.296
101.042
101.078
99.4088
107.264
110.652
161.194
134.598
125.713
111.516
148.81
139.569
124.497
121.734
132.573
119.598
115.101
110.183
168.852
396.309
423.02
168.648
172.133
154.991
137.339
100.333
90.3359
91.3461
96.8334
103.392
107.448
107.793
103.895
92.9948
119.485
113.643
106.647
140.278
135.152
139.842
169.911
169.235
106.012
158.736
415.045
399.342
171.868
128.026
126.476
102.514
96.3047
92.0753
92.5307
88.5965
90.0608
94.3064
101.286
102.545
90.5228
85.1627
94.4981
106.437
113.072
111.47
136.108
164.838
174.768
329.839
148.027
406.469
356.475
144.566
154.997
134.215
104.65
92.9737
89.2091
86.0243
87.8253
84.5365
81.4391
85.5275
89.1688
94.0759
81.2114
79.1407
89.3453
103.473
122.158
111.982
123.871
191.484
208.349
360.531
786.214
1111.23
341.639
137.88
142.112
104.516
94.1123
88.7933
86.555
85.3118
81.1264
77.4372
70.2916
66.0843
69.8436
81.7009
85.7434
84.9621
87.0359
87.9411
97.2705
106.716
121.453
138.55
166.966
342.022
377.26
1090.32
335.449
128.62
134.863
101.337
86.7546
79.534
74.2566
71.9674
73.9369
72.4972
67.3651
60.2896
55.676
59.153
69.3336
72.1629
79.9872
91.7306
93.6852
91.8466
100.044
111.498
168.435
344.165
401.894
975.226
220.711
124.454
140.405
102.519
86.3351
78.1959
69.9467
61.9051
55.3672
53.6049
55.909
55.0061
54.1576
52.267
58.9232
66.6353
73.1379
77.3628
84.3625
99.4539
97.4557
108.951
132.099
189.323
277.947
1297.06
1175.18
234.169
117.777
103.116
90.3308
82.5781
79.1359
71.6589
60.6304
49.4866
44.2974
43.2923
44.4093
46.0344
48.706
53.7143
60.0475
70.2153
78.1449
85.2002
92.498
105.433
112.35
140.465
182.435
163.818
1491.98
363.743
125.386
144.676
101.855
83.2026
77.6823
71.7896
62.4457
48.3725
40.8084
37.8709
37.3937
38.5713
41.2063
45.093
51.7643
59.831
68.3373
78.8477
87.4094
94.8243
107.37
131.967
176.851
158.605
400.521
409.547
156.384
113.741
95.9903
87.3121
82.0503
73.0383
64.1428
44.6105
36.5526
33.9414
33.3977
34.2005
35.5927
38.4967
43.0991
50.8293
59.8934
68.5063
76.823
85.6386
94.7545
105.819
130.922
158.883
412.583
944.086
199.251
111.466
106.843
87.3447
83.8444
80.1274
69.2692
45.2635
33.2372
30.1036
29.5751
29.9469
31.5716
33.8602
36.8294
41.7092
49.9884
60.1226
70.0927
78.7282
89.188
103.964
122.397
137.773
367.703
350.106
121.75
99.075
80.8828
75.5664
72.3613
70.4145
54.7466
34.6375
29.2318
28.2275
28.2598
28.655
29.6219
32.2752
36.4696
42.9691
52.9223
63.3285
74.0629
82.9329
92.7132
125.786
163.537
255.351
405.886
137.425
135.163
95.6218
77.5949
69.4355
66.9536
61.5029
46.4046
35.6869
30.6503
28.6081
28.304
28.5687
29.7473
32.5723
38.8375
50.8494
61.9289
73.0374
81.7566
91.6609
103.216
124.734
149.789
791.135
891.508
185.258
111.365
107.24
83.0335
74.3982
66.902
61.4011
50.8653
39.9191
36.9594
36.3073
34.2965
31.0149
30.6608
33.1907
39.7607
53.2544
66.0662
76.5088
82.3008
92.8012
105.615
122.735
126.734
368.712
896.726
199.693
117.092
113.154
87.7381
77.9175
71.1495
65.1743
57.1183
42.7625
34.0342
36.5826
37.2845
36.7546
35.891
35.7971
40.6555
52.8519
69.5315
78.7169
85.3824
94.6579
101.561
134.346
185.244
218.852
1048.87
361.286
134.838
116
88.0261
79.4056
74.2216
68.9945
62.5293
55.3069
36.8942
32.0175
36.1598
40.503
41.3456
42.2207
46.7116
59.7615
69.6543
76.7463
82.3997
89.8536
103.397
132.456
176.848
198.216
878.475
727.875
160.752
148.701
96.5437
78.0325
72.6479
69.2259
64.613
59.462
50.5163
36.4781
31.3499
36.4116
43.8139
47.663
50.2992
58.6865
69.2578
74.5718
79.4951
83.746
92.4879
134.263
172.049
195.492
865.929
200.803
114.105
93.5913
79.664
70.0715
66.9972
62.8712
55.3135
47.1077
43.791
36.4609
32.3247
35.7983
46.1392
53.5283
57.7828
64.0271
71.6343
77.5901
80.6228
85.9289
100.188
124.373
176.613
858.743
719.15
122.049
103.276
82.3922
73.6356
64.6926
56.3193
52.3667
44.7353
39.0407
35.7621
34.6132
33.3704
35.9841
45.5373
54.4159
61.2006
67.3099
73.6689
76.7983
83.1603
94.7343
120.071
162.215
341.946
214.695
112.505
90.8187
80.4534
70.0913
60.7199
50.2152
40.5677
36.7533
33.2357
31.75
32.3797
34.5185
38.1875
45.6534
57.5005
63.4468
69.5734
76.5662
82.4267
86.6464
103.073
143.325
203.533
892.97
891.555
164.849
101.816
83.1575
77.9108
70.5477
61.0194
45.5348
34.1383
30.7938
29.4471
29.3858
31.8
36.9941
44.3132
53.7746
64.0616
70.0506
73.3243
78.9666
86.7192
94.9014
107.098
134.891
798.269
287.763
123.257
107.188
83.1566
75.523
71.6143
63.6746
43.7218
31.1919
27.1701
26.4474
27.5597
30.153
35.2305
43.9195
57.9574
66.8808
74.3701
77.5862
81.9517
92.308
106.918
138.401
222.785
1161.47
675.222
116.807
94.1583
77.5302
69.4758
68.2645
66.7189
60.8184
40.0251
29.0991
25.2805
24.5369
25.367
28.1201
32.3231
38.4908
49.9544
62.0128
70.7388
79.5639
87.292
97.442
137.054
191.545
856.148
171.759
127.709
86.4947
72.5331
65.3105
60.9043
60.3573
57.3229
41.3527
29.8102
25.2987
24.1944
24.9036
26.7776
31.0252
37.1671
46.8246
58.3145
69.1856
81.5737
99.9194
122.672
121.76
373.371
656.964
116.755
91.2597
72.4839
64.3782
59.8104
57.1953
54.2347
51.0761
40.2657
30.7706
26.3741
25.5499
26.4639
28.4609
33.2422
40.8981
50.8281
61.213
72.0827
83.4053
101.631
159.048
199.731
971.512
199.099
107.236
82.6599
69.539
61.7404
56.4681
53.483
50.2958
44.9848
37.4943
30.4882
27.6116
28.0597
31.3015
36.1055
42.6424
53.0324
63.0959
67.5399
75.2178
88.0233
119.639
162.42
360.826
665.896
115.463
94.4429
77.7366
66.8377
59.1862
53.0171
48.2326
45.5757
40.7893
35.7641
31.1734
28.589
29.9291
34.4894
43.8091
55.7011
61.9402
67.7138
74.2637
79.7899
92.9971
109.622
142.277
856.427
197.5
106.546
84.3501
73.5125
65.1411
57.3209
50.3961
44.9225
41.1886
38.6023
33.403
30.6641
29.6909
31.3978
36.4197
43.9539
55.2133
63.062
68.3686
74.7428
84.925
110.589
150.725
223.715
681.463
115.266
94.1683
76.9819
69.3371
62.4463
55.6183
48.1954
42.0348
37.9782
36.6168
34.6376
32.3821
32.6794
35.7257
42.0374
49.7965
56.1179
62.005
69.4763
76.2499
92.6583
107.537
128.042
803.781
206.552
102.733
82.237
74.3292
67.0913
61.0435
54.4489
46.3159
38.8997
35.2262
34.2086
34.8224
34.9912
36.9316
42.0675
51.2357
57.2
59.5896
62.9671
69.4665
79.4197
90.6988
157.374
211.691
171.646
128.696
85.5776
72.0345
65.3652
60.2578
54.5104
45.5999
36.8078
32.5271
31.64
32.8775
35.964
39.6156
45.4589
52.3871
57.6978
61.0836
64.0588
70.8716
85.7215
111.955
109.671
661.336
709.485
114.111
91.6322
73.9746
66.2595
62.6005
58.9568
53.9949
45.3935
35.5245
30.4776
29.0841
30.143
33.1134
37.848
43.6603
49.5209
54.8502
60.7465
65.7861
71.1234
87.9607
146.412
182.231
953.873
673.449
121.716
84.5291
68.6578
62.1207
58.9579
56.6816
52.5019
44.196
34.4464
28.9375
27.0184
27.7527
30.5246
35.472
42.0105
48.5649
54.3967
59.3454
64.7793
71.4816
85.6091
146.879
608.928
313.6
114.29
82.1318
67.3262
58.8381
53.4529
50.8905
48.1124
41.0671
32.9637
27.8158
25.7439
26.2404
28.9918
33.8507
40.3639
47.7744
54.6834
61.3295
67.2992
78.25
97.626
141.962
743.999
167.378
134.798
84.0886
66.5311
57.1643
49.9078
43.9555
40.0066
35.7238
31.0364
27.03
25.1851
26.2674
29.2367
34.3837
40.9453
47.522
54.751
62.4558
71.6796
80.9004
121.595
197.87
676.854
133.579
106.455
74.1917
63.1479
55.9791
48.2946
40.8197
34.9771
31.1733
28.5524
26.281
25.5042
26.9034
30.8925
36.3572
43.0349
49.2565
54.8861
62.5468
71.2482
100.633
112.22
684.298
328.587
113.109
80.3726
66.6852
60.0464
54.9912
48.2894
39.6831
32.2429
28.2652
26.0681
24.9498
25.2311
27.3501
31.4025
37.5982
44.646
51.1124
56.6963
62.3024
74.2024
95.576
148.528
932.454
165.097
133.282
85.9982
68.1318
59.3622
53.2954
47.7442
39.2768
30.8095
26.2446
23.9121
23.3972
24.4176
27.1644
31.7708
38.5516
45.8801
52.2681
58.7941
65.2159
76.4101
106.086
188.684
715.069
117.208
92.1418
72.2583
64.7353
58.6728
52.7183
46.7865
39.1728
30.1525
25.0796
22.4279
21.7564
23.0415
26.2868
31.1165
38.2799
46.3626
53.2217
59.9944
69.5606
79.2198
114.565
329.015
323.122
111.074
80.3444
70.6823
62.233
56.4935
51.731
46.068
39.0657
29.9616
24.2258
21.4709
20.5942
21.6509
25.1663
30.8195
38.5358
46.4376
53.9895
60.9028
70.8685
99.9194
107.678
661.617
212.793
97.8321
76.8411
66.6995
59.3953
53.0271
47.6115
42.5322
37.3674
30.4684
24.0322
20.8772
20.1792
21.1978
24.496
30.781
40.0408
47.6338
54.5076
62.6691
71.943
103.478
151.022
943.135
174.849
130.513
81.9291
66.4197
58.7634
51.6865
45.2448
39.4636
34.3339
29.9282
24.9914
21.1602
19.9461
21.0813
24.8619
31.9619
41.8659
50.1401
56.8155
63.9236
80.7374
98.5627
165.126
875.331
118.542
86.6684
70.7751
63.8125
57.7823
51.2672
43.6578
37.3215
32.5822
28.7019
25.6105
22.533
20.5522
21.0591
25.253
34.4631
44.9229
51.7066
59.708
68.5859
79.8236
133.839
314.499
691.005
110.68
91.3128
72.4168
64.3925
58.447
51.8965
43.8629
35.7708
30.8108
28.0467
25.806
23.878
22.6511
22.6845
26.4273
37.7482
48.6334
54.709
61.0597
71.009
103.125
110.03
701.157
639.391
119.051
84.7542
71.3593
63.91
58.2138
52.1332
44.3469
35.6855
29.3213
26.7492
26.0381
25.6368
25.2682
26.7483
31.1296
41.8973
51.0104
57.2483
64.1343
78.5149
91.2798
156.154
216.617
98.2953
76.1122
66.4042
61.6812
56.807
51.2704
44.0639
35.3379
28.786
25.657
25.1988
26.7055
28.7223
31.3192
37.1281
45.9852
52.0779
57.7107
65.7705
81.6987
132.329
200.296
207.521
97.0457
76.3903
67.6859
59.9801
54.6454
49.4642
42.6199
34.3822
28.1854
24.9141
24.2094
25.9218
29.6791
35.0485
42.2857
48.3986
52.0422
56.9651
66.3024
78.4053
135.431
603.32
176.463
135.893
82.2363
64.4052
56.5393
51.1582
46.4013
40.6071
33.0759
27.3294
23.9391
23.2314
25.0092
28.7056
34.3282
40.9505
47.0296
51.2283
55.7996
63.4137
94.2319
124.373
639.348
170.851
93.7866
69.1891
60.4271
54.0632
47.8593
42.1463
36.8055
31.2601
26.5005
23.1244
22.2072
24.0034
27.6967
33.3477
39.5613
45.3189
50.0603
55.2232
63.5117
78.0941
126.803
775.4
160.363
90.9786
67.5208
59.2953
53.2821
46.5661
39.2918
33.2034
28.4899
25.1125
22.5085
21.6457
23.1329
27.0074
32.853
39.4678
45.2817
50.2503
54.8962
62.9299
83.2817
115.603
879.121
841.785
118.409
84.5681
66.7281
58.863
53.2178
46.4866
38.1609
30.7044
25.9717
23.1734
21.4299
21.0589
22.6332
26.4852
32.5374
39.6891
46.177
51.8653
56.9068
63.5592
84.2312
147.142
661.349
120.239
97.6732
69.0202
58.7963
52.6526
46.9058
38.3797
29.3957
24.2216
21.4394
20.0737
20.1594
22.0119
26.0173
32.1148
39.5143
46.0905
52.4217
59.4237
65.6112
87.8137
152.817
653.302
116.879
77.7909
62.5124
56.0249
51.0539
46.8069
39.7075
29.3818
23.1981
20.1486
18.7924
18.9915
21.0832
25.1786
31.305
39.0277
45.8966
52.0457
59.6418
71.8252
84.5266
159.34
320.649
105.697
73.7241
60.747
54.3861
49.7838
45.5251
40.8823
30.6924
23.052
19.405
17.8632
17.8598
19.8529
24.3367
30.8453
38.6315
45.8983
52.1204
59.6834
73.2475
104.378
207.134
208.867
91.2411
69.039
58.4204
52.3204
47.7823
43.9033
39.4471
31.9017
23.3574
18.9909
17.3821
17.3533
19.1766
23.6359
31.0203
39.1783
46.1393
52.7011
59.3527
74.9984
110.534
582.02
212.561
92.5435
70.0362
58.1197
50.6009
45.3059
41.5166
37.4316
31.723
25.0426
19.3142
17.0197
17.041
19.1652
23.9773
32.0359
40.752
47.2455
53.9417
60.5456
73.6235
118.2
617.311
177.915
98.5142
74.9802
60.0633
50.4954
43.0695
37.7901
34.3376
30.4861
25.794
21.1355
17.8357
17.243
19.2896
24.8425
33.8283
42.473
48.7874
55.0477
64.47
73.1196
112.68
646.206
164.822
97.9339
71.792
59.5617
50.2525
41.6658
34.5484
30.4633
28.4162
25.6734
22.2111
19.4471
18.3587
20.3576
26.3373
36.1225
43.6265
49.4375
54.9913
65.0376
87.8652
103.978
713.649
173.527
99.665
72.4715
60.8032
51.3064
40.9242
31.9312
27.641
25.7522
24.5008
22.5141
20.7271
20.4733
22.7069
28.8534
37.9968
44.0355
49.4751
55.3945
64.0763
89.3693
141.506
905.076
167.982
101.451
77.8231
64.73
54.3913
41.69
29.9803
25.687
23.7433
22.441
21.3978
20.5233
21.4044
24.7089
30.6992
38.8957
44.9332
50.1732
55.9257
64.9939
88.9603
153.743
848.692
120.103
95.2468
82.0144
67.9443
57.3292
43.504
29.0048
24.2341
22.3786
21.1614
20.1519
19.6065
20.6211
24.5181
31.0494
39.5493
45.9478
51.5727
57.0159
65.6658
90.1856
157.629
666.035
142.374
103.064
73.1167
63.641
56.796
43.9168
28.5397
23.2305
21.2847
20.3389
19.6735
19.4639
20.4161
24.0429
31.0628
40.2999
46.9964
52.9223
59.8225
67.1886
91.2465
164.318
673.402
123.825
84.2458
67.7953
60.1848
53.5849
44.8585
28.9931
22.5973
20.3681
19.4933
19.2307
19.5785
21.1803
24.8433
32.2026
42.9086
49.7774
55.7829
62.4331
76.4963
94.957
156.036
339.759
115.906
81.7469
67.9367
60.3284
51.7364
42.2412
29.0783
22.3077
19.7117
18.8036
18.6234
19.1059
21.147
26.136
34.7687
46.518
53.7529
59.6918
66.8034
81.1612
120.424