/*--------------------------------*- C++ -*----------------------------------*\
| =========                 |                                                 |
| \\      /  F ield         | OpenFOAM: The Open Source CFD Toolbox           |
|  \\    /   O peration     | Version:  2312                                  |
|   \\  /    A nd           | Website:  www.openfoam.com                      |
|    \\/     M anipulation  |                                                 |
\*---------------------------------------------------------------------------*/
FoamFile
{
    version     2.0;
    format      ascii;
    arch        "LSB;label=64;scalar=64";
    class       volScalarField;
    location    "200";
    object      p;
}
// * * * * * * * * * * * * * * * * * * * * * * * * * * * * * * * * * * * * * //

dimensions      [0 2 -2 0 0 0 0];

internalField   nonuniform List<scalar> 
404911
(
0.0484317
0.0481803
0.0496404
0.0471902
0.0468323
0.0477255
0.0480833
0.0477785
0.0474292
0.047282
0.0480571
0.0457656
0.0456155
0.047479
0.04777
0.0478723
0.0463776
0.0466523
0.0464779
0.0468823
0.0465556
0.0452755
0.0447526
0.0468833
0.0465144
0.0429389
0.0471036
0.0469177
0.0465138
0.0474914
0.0472457
0.0473022
0.0473044
0.0477005
0.0474134
0.0473252
0.0472016
0.0473042
0.0473446
0.0474231
0.047569
0.0471802
0.0472453
0.0472864
0.0472631
0.0471501
0.0471958
0.0472183
0.0473585
0.0474484
0.0474493
0.0474149
0.0473063
0.047282
0.0474866
0.0474106
0.0484329
0.0457614
0.0460502
0.046444
0.0460923
0.0464926
0.0466095
0.0460363
0.0460309
0.0464706
0.0461687
0.0462345
0.0468426
0.0464052
0.0470244
0.0469456
0.0464704
0.0472812
0.0471354
0.0471216
0.0466524
0.0473693
0.0473649
0.0472869
0.0474151
0.0471732
0.0472564
0.0473333
0.0470505
0.0471733
0.0473455
0.0472762
0.047353
0.0475018
0.0473912
0.0476562
0.0475183
0.0478291
0.0469335
0.0470608
0.0473529
0.0466057
0.0465426
0.0468189
0.0461398
0.0463747
0.0464772
0.0461533
0.029778
0.0295189
0.0305384
0.0303346
0.0319154
0.0280946
0.0323264
0.030023
0.0301662
0.030317
0.0300956
0.0316674
0.0309499
0.0307393
0.0313199
0.0307652
0.0307473
0.030256
0.030662
0.03114
0.0325569
0.0321391
0.0323453
0.031928
0.0317389
0.0315265
0.0312803
0.0311099
0.0308363
0.030795
0.0307162
0.0308506
0.0301488
0.0287682
0.03162
0.0317535
0.0327199
0.0323263
0.0325551
0.0321486
0.0320193
0.0319663
0.0317411
0.0314503
0.0311899
0.0312817
0.0311388
0.0305657
0.0309075
0.0309652
0.0287731
0.0335694
0.0330445
0.0329796
0.032363
0.032224
0.0322326
0.0321604
0.0320752
0.0318413
0.031646
0.0311733
0.0309909
0.0312852
0.0305332
0.0303517
0.0334391
0.0339206
0.0331924
0.0329818
0.0327323
0.0324693
0.0323804
0.032365
0.0321832
0.0320423
0.0317719
0.0317884
0.0313185
0.030997
0.0306441
0.0317103
0.0353268
0.0339028
0.0330344
0.0334636
0.0329731
0.033087
0.0328906
0.0327074
0.0325738
0.0324436
0.032326
0.0321297
0.0318654
0.03172
0.0314589
0.0311871
0.0312375
0.0349991
0.0349256
0.0346122
0.034869
0.0343382
0.0338437
0.0338072
0.0335992
0.033402
0.0332042
0.0329452
0.0327479
0.0325862
0.0325047
0.0324108
0.0318178
0.0319786
0.0324741
0.034739
0.0353352
0.0347995
0.0344093
0.0343583
0.0340717
0.0342735
0.0340281
0.0337627
0.0335835
0.0333508
0.0331066
0.0326995
0.032668
0.0326528
0.0320175
0.0325455
0.0319409
0.0346889
0.0347152
0.0346371
0.0348381
0.0346675
0.0343134
0.0343231
0.0342985
0.0343325
0.0341804
0.0339774
0.0337812
0.0335181
0.0332692
0.0329846
0.0329254
0.0327559
0.0328263
0.0344714
0.0350188
0.0350266
0.0346269
0.0347598
0.0344544
0.0342721
0.0344356
0.0342883
0.0344297
0.0344111
0.0341519
0.0339046
0.0333426
0.0335867
0.0331561
0.0320305
0.0343407
0.0345077
0.0340763
0.0347766
0.0349779
0.0347879
0.0345799
0.0343247
0.0342231
0.0344474
0.0344598
0.0344446
0.0344564
0.0342525
0.0338923
0.0336711
0.0331641
0.035497
0.0353124
0.0339539
0.0347299
0.0347984
0.0347208
0.0345734
0.0344986
0.0342509
0.0342547
0.0344901
0.0343596
0.0343825
0.0344391
0.0344252
0.0341962
0.033693
0.033473
0.0355619
0.0343809
0.0351615
0.0351303
0.0342927
0.0345244
0.034525
0.0345239
0.0343469
0.0342638
0.0341659
0.0342916
0.0344023
0.0344886
0.0343776
0.0337923
0.0340227
0.0349728
0.0367488
0.0364972
0.0358523
0.0360684
0.0355039
0.0350329
0.034643
0.0345797
0.0347058
0.0344964
0.0342576
0.0341111
0.034184
0.0342041
0.0344984
0.0345422
0.0345517
0.0345263
0.0366133
0.0368548
0.0365141
0.036107
0.0357314
0.0354649
0.0349779
0.0347442
0.0346198
0.0346753
0.0344778
0.0341192
0.0339794
0.0342438
0.034003
0.0343724
0.0347463
0.0334097
0.0371033
0.0368448
0.035875
0.0367823
0.0365266
0.0361907
0.0359474
0.0355624
0.0351297
0.0347944
0.0347098
0.0347399
0.0344564
0.0343151
0.0340208
0.0339104
0.0337873
0.0335797
0.036993
0.0372432
0.0368747
0.036723
0.0367432
0.0364824
0.0363074
0.0361008
0.0357483
0.0352532
0.034824
0.0345592
0.0346246
0.0343268
0.034192
0.0343912
0.0342087
0.0344904
0.0367396
0.0365518
0.0364395
0.0373473
0.0371935
0.0367533
0.0369591
0.0367549
0.0365755
0.0362048
0.0358978
0.0355147
0.0350399
0.034582
0.0343776
0.0342725
0.0339848
0.0341558
0.0379687
0.037274
0.0374095
0.037261
0.0371072
0.0371893
0.0369884
0.0370809
0.0368931
0.0368662
0.0363995
0.0360147
0.035739
0.0352249
0.034986
0.0345493
0.0341625
0.0382034
0.0379101
0.0378732
0.0373359
0.0373259
0.0371529
0.0371492
0.0371554
0.0371509
0.0370616
0.0369543
0.0368336
0.0365393
0.0361813
0.036113
0.0355035
0.0353217
0.0349963
0.0382255
0.0380718
0.0379039
0.0377939
0.0377577
0.0375641
0.0373937
0.0372451
0.0373002
0.037341
0.03722
0.0371124
0.0369027
0.0366917
0.0362581
0.0361241
0.035731
0.0355239
0.0386431
0.0383195
0.0381695
0.0381197
0.0379533
0.0378772
0.0378026
0.0374957
0.0374094
0.0374319
0.0373126
0.0372599
0.0370699
0.0368273
0.0367667
0.0371156
0.035862
0.0361505
0.0387764
0.0384983
0.0384291
0.0383325
0.0382006
0.0380832
0.0380052
0.0380811
0.0377505
0.0375483
0.0374648
0.0374179
0.0373096
0.0374183
0.0368449
0.0369111
0.0364142
0.0359649
0.0390435
0.0391138
0.0389468
0.0385736
0.0385548
0.0383064
0.0382434
0.0381714
0.0380796
0.0380339
0.0379498
0.0377937
0.0373992
0.0374797
0.0372634
0.0373226
0.0363059
0.0370279
0.0390832
0.0389568
0.0390987
0.0389193
0.0387145
0.0385258
0.0383416
0.0382095
0.0382963
0.0380186
0.0379255
0.0379799
0.0379982
0.0377118
0.0376506
0.0373379
0.0371609
0.0365869
0.0393992
0.0392216
0.0391184
0.0390525
0.0390282
0.0388887
0.0387683
0.0385426
0.0383522
0.0381614
0.0381322
0.0381253
0.037959
0.0377696
0.0377413
0.0377086
0.0359589
0.0381213
0.03944
0.0394617
0.0392297
0.0391558
0.0390482
0.0389839
0.0389187
0.0387737
0.0385879
0.0383827
0.0381527
0.0379458
0.0378329
0.037746
0.0377337
0.0382254
0.0378284
0.0376258
0.0397479
0.039649
0.0394222
0.0391551
0.0390605
0.0390469
0.0390208
0.0389677
0.0388351
0.0386792
0.0384778
0.0382419
0.0380578
0.037892
0.0377843
0.0378505
0.0378198
0.0377712
0.0401535
0.0395862
0.0397835
0.0394867
0.0391521
0.0390458
0.0390106
0.0390849
0.0390816
0.0389342
0.038792
0.0386346
0.0383766
0.0381766
0.0380601
0.0376849
0.0376157
0.037964
0.0396326
0.0406432
0.0402557
0.0395945
0.0394496
0.0393296
0.0391172
0.0390741
0.0391216
0.0392322
0.039221
0.0390757
0.0389109
0.0387486
0.0385513
0.0381951
0.0380061
0.0377067
0.0408973
0.0401505
0.0402114
0.0402921
0.039961
0.039613
0.0394211
0.039271
0.039191
0.0392776
0.0393847
0.0393128
0.0391853
0.0390272
0.0387865
0.0385228
0.038314
0.0383207
0.041326
0.040926
0.0405704
0.040493
0.0403974
0.0402093
0.0398906
0.0395998
0.0394223
0.0393135
0.03928
0.0392934
0.0392741
0.0392095
0.0391009
0.0391094
0.0392522
0.0388695
0.0406278
0.0412685
0.041189
0.040822
0.0405879
0.0404764
0.0403746
0.0399872
0.0397689
0.0395794
0.0394365
0.0393783
0.0393129
0.039289
0.0392199
0.0391003
0.0391501
0.0419142
0.0408874
0.0410756
0.0412145
0.041237
0.0410132
0.0407847
0.0405453
0.0404553
0.0401636
0.0399363
0.0397509
0.0396023
0.0394813
0.0394223
0.0393299
0.0393192
0.0392031
0.0418327
0.0417262
0.0414396
0.0412514
0.0412352
0.0412618
0.0410553
0.04093
0.0407122
0.0405881
0.0402999
0.0401271
0.0399636
0.0397855
0.0396473
0.0395078
0.0393667
0.0397563
0.0418233
0.0419424
0.0416633
0.0416827
0.0414717
0.0413528
0.0414132
0.0412321
0.0410608
0.040892
0.0407504
0.0405053
0.0402686
0.0401699
0.0400179
0.0399585
0.0400182
0.0398489
0.0429187
0.0422184
0.0419954
0.0418839
0.0417993
0.0417285
0.0415745
0.0414146
0.0415106
0.0413249
0.0411256
0.0409556
0.0408316
0.0407059
0.0404457
0.0402902
0.0401555
0.040061
0.042604
0.0423924
0.0424968
0.0422512
0.0421485
0.0419553
0.0418525
0.0417455
0.0416072
0.0416402
0.0415019
0.0412948
0.0410685
0.0409534
0.0408054
0.04062
0.0403256
0.0402393
0.0429377
0.0425951
0.0424699
0.0424583
0.0423291
0.0422123
0.0420804
0.0420167
0.041921
0.0418173
0.0418295
0.0417553
0.0414926
0.0411751
0.0410894
0.0408552
0.0408251
0.0405271
0.0421347
0.0431781
0.0427576
0.0426043
0.042563
0.0424114
0.0422801
0.0421708
0.0421028
0.0420762
0.0420044
0.0419632
0.0418515
0.0416515
0.041342
0.0412008
0.0410993
0.0406703
0.043411
0.0433021
0.0430335
0.0429034
0.0426726
0.0426085
0.0424775
0.0423416
0.042233
0.0421702
0.042206
0.0420718
0.042017
0.0419217
0.0416456
0.0414943
0.0409643
0.0444336
0.0434583
0.0434377
0.0430281
0.0429853
0.0429217
0.0427888
0.0426898
0.0425393
0.042388
0.042282
0.0421817
0.0422473
0.0422779
0.042012
0.0419011
0.0417818
0.0416434
0.0439672
0.0439095
0.0437486
0.0435052
0.0431406
0.0430351
0.0429656
0.0428976
0.0428092
0.0426565
0.0424787
0.0423378
0.042184
0.0421197
0.0421005
0.0419461
0.0419074
0.041759
0.0444522
0.0442089
0.0440236
0.0438197
0.0435497
0.0433184
0.0431756
0.0430485
0.0430244
0.0429658
0.0428334
0.0426377
0.0424564
0.0423333
0.0421764
0.0420639
0.0418724
0.041735
0.0443814
0.0444609
0.0443736
0.0440935
0.0439774
0.0436663
0.043484
0.0433339
0.043201
0.0431658
0.0431456
0.0429513
0.042797
0.0426512
0.0425189
0.0423798
0.0421588
0.0419248
0.0450119
0.0445147
0.0445594
0.0444582
0.0442883
0.0440896
0.0438441
0.0436387
0.0434813
0.0433584
0.0432541
0.043147
0.043048
0.0429452
0.0427925
0.0428042
0.0426121
0.0425051
0.0451
0.0451118
0.0449815
0.0447877
0.044651
0.0444573
0.0442429
0.0440058
0.0437812
0.0436015
0.0434475
0.0433245
0.0432266
0.0431321
0.0430702
0.0428737
0.0428054
0.0426399
0.0453607
0.0452163
0.0451922
0.0451592
0.0449585
0.0447805
0.0445838
0.0443827
0.0441406
0.0438972
0.0437085
0.0435491
0.0434166
0.0433293
0.0432926
0.0433107
0.0429653
0.0424637
0.0455012
0.045219
0.0453571
0.0452831
0.0453002
0.0450709
0.044868
0.0446863
0.0444971
0.0442265
0.0439863
0.0438609
0.0437175
0.0435875
0.0434505
0.0433616
0.0433122
0.0436477
0.0458081
0.0455731
0.0452767
0.0453848
0.045265
0.0451604
0.0453209
0.0450723
0.0448934
0.0447567
0.0445755
0.0443757
0.0441331
0.044088
0.0439066
0.0438105
0.0436297
0.0435569
0.0434838
0.0459242
0.0460277
0.0458214
0.0454336
0.0453461
0.0452532
0.0451277
0.0452748
0.0452103
0.0449607
0.0448407
0.0446909
0.0445745
0.0444071
0.0442925
0.0441068
0.0440077
0.0440037
0.0460458
0.0458778
0.0457257
0.0455483
0.0454063
0.0453097
0.0452512
0.0452909
0.0452737
0.0451239
0.0449337
0.0448093
0.044699
0.0444961
0.044308
0.0441113
0.0442729
0.0460124
0.046075
0.0460717
0.0458848
0.0457361
0.0455775
0.0454809
0.0453911
0.0453111
0.0452951
0.0453416
0.0452286
0.0451026
0.0449053
0.0448056
0.0446396
0.0444944
0.0440085
0.046583
0.0461538
0.0462655
0.0461324
0.0459573
0.0458067
0.0456497
0.0455656
0.0454903
0.0453834
0.0453777
0.0454427
0.0453528
0.0452287
0.0450819
0.0449139
0.044786
0.0445212
0.0453057
0.0466787
0.0464002
0.0463295
0.0461904
0.0460396
0.0458929
0.0457211
0.0456241
0.0454805
0.0454093
0.0453757
0.0454036
0.0452476
0.0451987
0.0452401
0.0449167
0.0451876
0.0468313
0.0464989
0.0464069
0.0463392
0.0462329
0.0461084
0.0459738
0.0458009
0.0457085
0.0454963
0.0454226
0.0453574
0.0453176
0.0452365
0.0452248
0.0450633
0.0449605
0.0465
0.0466752
0.0464939
0.0464191
0.0463607
0.0462631
0.0461648
0.0460531
0.0459086
0.0458462
0.0456773
0.0455447
0.0454884
0.0454357
0.0453209
0.0454077
0.0453198
0.0471025
0.0474715
0.0472072
0.0468719
0.0466267
0.0464933
0.0464109
0.0463001
0.0462163
0.0461195
0.046055
0.0459324
0.0457188
0.0456298
0.0455892
0.0455222
0.0453919
0.0454612
0.0472489
0.0473858
0.0474433
0.0471669
0.0468606
0.0467139
0.0465968
0.0464841
0.0463626
0.0462801
0.0460853
0.0459714
0.0459427
0.0457996
0.0456988
0.0454955
0.0459196
0.0470808
0.0475424
0.0475024
0.047674
0.0473537
0.0470122
0.0468351
0.0466859
0.0465325
0.0463372
0.0462531
0.0460648
0.0460163
0.0459776
0.0457984
0.0455646
0.0456376
0.0472847
0.0472016
0.0471644
0.0473787
0.0475876
0.0476799
0.047654
0.0472302
0.0469249
0.0467544
0.0465664
0.0463972
0.0462902
0.0461795
0.0460432
0.0458625
0.0457708
0.0453882
0.0475624
0.0471495
0.0468919
0.0470059
0.04708
0.0470932
0.0472385
0.0476514
0.0474394
0.0470079
0.0467896
0.0466131
0.0463725
0.0463719
0.0463168
0.04616
0.046228
0.0458872
0.0463714
0.0470189
0.0468414
0.0467874
0.0467182
0.0466608
0.046709
0.0467448
0.0473833
0.0474481
0.0471032
0.0468728
0.0467376
0.0466149
0.0464778
0.046344
0.0463107
0.0462576
0.0465986
0.0466982
0.0468475
0.046777
0.0466366
0.0466041
0.0466305
0.0465248
0.0466788
0.0471282
0.0473394
0.0471699
0.0469923
0.0468345
0.0467629
0.0465991
0.0463404
0.0466789
0.0483529
0.047458
0.0463653
0.0467806
0.0467893
0.046614
0.0463751
0.0462033
0.0462084
0.0464248
0.0467649
0.047173
0.0472803
0.0470893
0.0467882
0.0467717
0.0465424
0.0461858
0.0464104
0.0477539
0.0481695
0.0475029
0.0467965
0.0467187
0.0466977
0.0465283
0.0463897
0.04628
0.0463295
0.0465023
0.0468221
0.0469339
0.0469842
0.0468906
0.0468057
0.0470963
0.046359
0.0463268
0.0457514
0.0478705
0.04723
0.046864
0.0468194
0.0467655
0.046574
0.0465477
0.0466395
0.046675
0.0467941
0.0468593
0.0469762
0.0470319
0.0469051
0.046959
0.0469357
0.0471163
0.0467937
0.0468457
0.0473208
0.0472201
0.0469416
0.0469694
0.0468409
0.0467391
0.0468679
0.0469556
0.0469418
0.0470141
0.0470162
0.0470389
0.0469993
0.046973
0.0467904
0.0470688
0.0471125
0.0472882
0.0472891
0.0471872
0.0470919
0.0470454
0.0469329
0.0469283
0.0470867
0.0471608
0.0472405
0.047136
0.0470929
0.0471273
0.0471731
0.0467827
0.0472102
0.0471887
0.0473283
0.0474729
0.0474818
0.0473087
0.0471929
0.0470979
0.046967
0.047027
0.0471031
0.0472085
0.0472538
0.0472696
0.0474609
0.0470739
0.0470607
0.0466573
0.0471537
0.0469297
0.0472767
0.0474507
0.0476
0.0475798
0.0473428
0.0472053
0.0470501
0.0469893
0.0470225
0.0472028
0.0473394
0.0472852
0.0472465
0.0473034
0.0478119
0.0475362
0.0473198
0.0465624
0.046805
0.046999
0.0473147
0.0474673
0.0474124
0.0473262
0.0471915
0.0470378
0.0470197
0.0470804
0.0470522
0.0471573
0.0469738
0.0470831
0.0473927
0.0472971
0.0467599
0.0466063
0.0465852
0.0468508
0.0471884
0.0472965
0.0473026
0.0472027
0.0470947
0.0470071
0.0470544
0.0469889
0.0471406
0.0469373
0.0468209
0.0470345
0.0474947
0.0471907
0.0467786
0.0465233
0.0466484
0.0469922
0.0471191
0.0471974
0.0471067
0.047005
0.0469303
0.0469664
0.0470433
0.0470656
0.0470862
0.047444
0.0472243
0.0472743
0.047543
0.0473638
0.0471186
0.0469194
0.0471793
0.0471922
0.0472764
0.047208
0.0470279
0.0468994
0.0469152
0.0469247
0.047262
0.0473088
0.0472608
0.0464215
0.0474147
0.0475263
0.0477065
0.0477971
0.047725
0.0476562
0.0476034
0.0475628
0.0474608
0.0472716
0.0470406
0.0469703
0.0469668
0.0469038
0.0467824
0.0472968
0.0471432
0.0466713
0.0472149
0.0474398
0.0475465
0.0475723
0.048066
0.0484608
0.0480957
0.0479073
0.0477182
0.0474561
0.0472851
0.047144
0.0471944
0.0472532
0.0467027
0.0456947
0.0466045
0.0467396
0.0472249
0.0474069
0.0473394
0.0476048
0.0480858
0.048319
0.048151
0.0478614
0.0476184
0.0474483
0.0473434
0.047737
0.0471378
0.0456009
0.046519
0.046176
0.046228
0.0469771
0.0471629
0.0471957
0.0474218
0.0478993
0.0482679
0.0481613
0.0478451
0.0475869
0.0472248
0.0473825
0.0462878
0.0460703
0.0453852
0.0455803
0.0458874
0.0461909
0.0466802
0.0470453
0.0470832
0.0473152
0.0476905
0.0478096
0.0477309
0.0476591
0.0475132
0.047489
0.0469651
0.0471516
0.0462739
0.045769
0.0458179
0.0455979
0.0459909
0.0463242
0.0466176
0.0470436
0.0473792
0.0474633
0.0472883
0.0474982
0.0479539
0.0472691
0.0479521
0.0475921
0.0474183
0.0469019
0.04609
0.0460539
0.0456544
0.0457784
0.0459788
0.0463244
0.0466364
0.0472334
0.0473198
0.0476217
0.047951
0.0476025
0.0492831
0.0486966
0.0481594
0.0478062
0.0474069
0.0468846
0.0464366
0.0463291
0.0461422
0.045866
0.0459493
0.0463462
0.0463199
0.0464935
0.0472017
0.0473854
0.048093
0.0486405
0.0486724
0.0484451
0.0480923
0.0477062
0.0474074
0.0466533
0.0461393
0.0460629
0.0460542
0.0459985
0.0464693
0.0469569
0.0470284
0.0475102
0.0485479
0.0485476
0.0483562
0.0485923
0.048517
0.0481466
0.0477038
0.0474752
0.0470058
0.0465643
0.0461746
0.0458078
0.0460461
0.046203
0.0470383
0.0472307
0.0491403
0.0488478
0.048139
0.0482604
0.048556
0.0485908
0.0483535
0.0479358
0.0475334
0.0471824
0.0469257
0.0465494
0.045374
0.0456369
0.0462148
0.0461353
0.0492762
0.0479472
0.0484462
0.0486884
0.0486028
0.0486199
0.0485932
0.0485386
0.0481804
0.0477532
0.0475202
0.0466625
0.0474515
0.047046
0.0457354
0.0469074
0.0476135
0.0480172
0.0485997
0.0488722
0.0488782
0.048803
0.048639
0.0486494
0.0486904
0.0483496
0.0479861
0.0480063
0.0475829
0.0473982
0.0475398
0.0475138
0.0478605
0.0476832
0.0488629
0.0489813
0.0488137
0.0487428
0.0487232
0.048743
0.0487317
0.0486281
0.0482847
0.0482425
0.0481118
0.0482527
0.0473953
0.04794
0.047885
0.0481229
0.0487544
0.0487303
0.0489321
0.0488004
0.0487767
0.0487808
0.0487571
0.0486805
0.0486958
0.0485522
0.048613
0.0481049
0.049144
0.0500595
0.0486569
0.0479933
0.0480398
0.0480312
0.0486802
0.048945
0.0489696
0.048917
0.0488139
0.0488813
0.0487082
0.0482487
0.048192
0.0485024
0.0492753
0.0479297
0.0479079
0.0482721
0.048435
0.0487401
0.0490067
0.049114
0.0490535
0.0491276
0.048732
0.0488687
0.048018
0.0481397
0.0489683
0.0480365
0.0483242
0.0484704
0.0485715
0.0486766
0.0488909
0.0492783
0.0492586
0.049358
0.0490368
0.0486997
0.0491176
0.048005
0.0482634
0.0482877
0.0481507
0.0482898
0.0483579
0.0485025
0.0490364
0.049271
0.0493033
0.0491923
0.0485474
0.0490544
0.0483524
0.0473135
0.0476224
0.0481336
0.048183
0.0480805
0.0477332
0.0479791
0.0484185
0.048476
0.0492674
0.0489665
0.0486304
0.0487068
0.0490544
0.0462488
0.0468285
0.0471291
0.0472017
0.0473851
0.047115
0.0471763
0.0471908
0.0477736
0.0488989
0.0482587
0.0488558
0.0486279
0.0495675
0.0442527
0.0457694
0.0460451
0.046353
0.0466062
0.0462357
0.0466545
0.0465019
0.0470205
0.047619
0.0479485
0.0472879
0.0476436
0.0485877
0.0455184
0.0445091
0.0446778
0.0454562
0.0463291
0.0468704
0.0461032
0.0458596
0.0462502
0.0456176
0.0474584
0.0481498
0.0482426
0.0472906
0.0465721
0.0461618
0.044734
0.0441805
0.0449369
0.0441397
0.045107
0.0455404
0.045056
0.0445295
0.0463078
0.0469632
0.0488174
0.0438362
0.0436851
0.0450233
0.0436822
0.0446386
0.0437924
0.0440032
0.0439224
0.0456279
0.0447268
0.0444124
0.0434212
0.0450852
0.0459594
0.0441556
0.0447081
0.0440276
0.0459749
0.0457005
0.0450756
0.0454755
0.0442335
0.0434983
0.0449246
0.0458963
0.0462386
0.0452431
0.0457347
0.0450812
0.043697
0.0424755
0.0458311
0.045235
0.0452225
0.0448774
0.0440807
0.0447906
0.0451451
0.0438367
0.0471277
0.0453939
0.0450787
0.0401669
0.0428872
0.0444357
0.0453007
0.0446838
0.0411231
0.0401452
0.0415077
0.0425015
0.0454653
0.0395906
0.0438596
0.0411713
0.0371762
0.0425498
0.0433768
0.0454824
0.0417331
0.0385488
0.0172549
0.0179779
0.0202802
0.0266139
0.0215153
0.0209828
0.0213671
0.0193617
0.0170017
0.0147032
0.0211501
0.0200974
0.0296329
0.0282625
0.0254341
0.0261485
0.0239091
0.0230562
0.0226503
0.0214457
0.0201484
0.0183941
0.0144373
0.015686
0.0166626
0.0163023
0.0206526
0.0292254
0.0282776
0.0296069
0.0287252
0.0289641
0.0265046
0.0254982
0.0251643
0.023701
0.0226402
0.0216362
0.0200512
0.0186752
0.0161126
0.0141463
0.0160971
0.0155221
0.0159834
0.0246186
0.0244172
0.0219856
0.0190057
0.0282564
0.028864
0.0295168
0.029591
0.0285626
0.0289166
0.0286888
0.0277497
0.0268495
0.0259323
0.0250598
0.0242079
0.0227758
0.0220324
0.0192626
0.0217424
0.0170447
0.0166519
0.0162436
0.01521
0.0165664
0.0185802
0.0202035
0.0292514
0.028124
0.0285504
0.0283814
0.0293671
0.0292347
0.029205
0.0288927
0.0288782
0.0284976
0.0275311
0.0270718
0.0257937
0.0254551
0.0229937
0.0232935
0.0215193
0.0243671
0.0220513
0.0204449
0.0166102
0.0167145
0.0150362
0.0156248
0.0168853
0.0297314
0.0279638
0.0288194
0.0282202
0.0279181
0.0273595
0.0287495
0.0291042
0.0291679
0.02904
0.0290185
0.028463
0.0278645
0.0271442
0.0266898
0.0257189
0.0250463
0.0248194
0.0229942
0.0212019
0.0187766
0.0223878
0.019267
0.017657
0.0164817
0.0314161
0.0307879
0.0294047
0.0287392
0.0282221
0.0279852
0.0278124
0.0281923
0.0287907
0.0290197
0.0291678
0.0287356
0.028757
0.0285658
0.0289092
0.0285249
0.027621
0.0274368
0.0246948
0.0248976
0.0235519
0.0236794
0.0219815
0.0218062
0.0204408
0.0311944
0.0323257
0.0309213
0.0306013
0.0297917
0.0292968
0.0285425
0.0281113
0.027631
0.0281231
0.0288755
0.0291449
0.0292472
0.0286906
0.0286326
0.0287191
0.0280381
0.0283029
0.0275652
0.0264393
0.0263505
0.0257634
0.0257007
0.0243822
0.0235191
0.031269
0.0289834
0.0296619
0.0312933
0.0314248
0.0309396
0.0306885
0.0302203
0.0298432
0.0290465
0.0284215
0.0276596
0.0279806
0.0285446
0.0290812
0.0289683
0.0288609
0.0291982
0.029018
0.0280145
0.0279094
0.0273111
0.026556
0.0270254
0.0267518
0.0251287
0.031331
0.0307427
0.0316567
0.0309823
0.0305611
0.0309522
0.0309721
0.0309624
0.0309498
0.0306359
0.0302649
0.0300073
0.0293166
0.0286223
0.0280218
0.0278165
0.0280804
0.0283995
0.028783
0.0284707
0.0281515
0.0289703
0.0287045
0.0279148
0.0287796
0.0272239
0.0274747
0.0303517
0.0309568
0.0307113
0.0310026
0.0310828
0.0308827
0.0305357
0.0306005
0.030786
0.0308382
0.0306551
0.0303027
0.0299461
0.0296249
0.0287497
0.0283704
0.0281392
0.0279811
0.0278966
0.0283705
0.028174
0.026917
0.0291233
0.0282174
0.0288251
0.0298571
0.0294839
0.0303279
0.0302626
0.03079
0.0308845
0.0309328
0.0308225
0.0305185
0.0305374
0.0304433
0.0304396
0.030399
0.0302379
0.0301927
0.0301042
0.0296419
0.0286099
0.02859
0.028406
0.0281482
0.0281393
0.0282575
0.0275292
0.0287943
0.0295097
0.0306998
0.0299612
0.0298645
0.0300059
0.0303227
0.0307784
0.0306614
0.0305192
0.0298943
0.0300471
0.0301681
0.0301107
0.029535
0.0295952
0.0298938
0.029712
0.0292465
0.0283396
0.0285685
0.0285387
0.0282985
0.0281194
0.0278768
0.0299938
0.0315425
0.0296299
0.0296327
0.0297364
0.0295603
0.0296986
0.029814
0.0304194
0.030588
0.0305135
0.0303678
0.0298968
0.0296658
0.0297399
0.0295928
0.0290684
0.0288495
0.029113
0.0290914
0.0287893
0.0285003
0.0285374
0.0283976
0.0281789
0.0324506
0.0309894
0.0306186
0.030922
0.0301759
0.0296204
0.0294173
0.0293054
0.0295133
0.0298473
0.0301898
0.0304126
0.0302685
0.0301161
0.0300174
0.0297931
0.029757
0.0294904
0.0289218
0.0283368
0.0284228
0.0284071
0.0284109
0.0286508
0.0284284
0.0319339
0.0320109
0.0316651
0.0312519
0.0309152
0.0306807
0.0306255
0.0300614
0.0297781
0.0297219
0.0296786
0.0296531
0.0298952
0.0302527
0.0302149
0.0301408
0.0300353
0.0298626
0.0298803
0.0295851
0.0288456
0.0281266
0.027715
0.0282866
0.02734
0.0324563
0.0312118
0.0323475
0.0320079
0.0318149
0.031499
0.0308753
0.0309434
0.0304879
0.0306638
0.030421
0.0301364
0.0299909
0.030074
0.0300428
0.0302267
0.0304901
0.0305175
0.0304121
0.0301761
0.0298881
0.0299964
0.0297465
0.0289662
0.0282066
0.0271937
0.0323177
0.0335395
0.0327698
0.0323354
0.0322789
0.0320065
0.0317896
0.0314167
0.0309036
0.0307141
0.0307066
0.0307506
0.0306305
0.0304271
0.0302448
0.0302001
0.0301105
0.0304577
0.0309322
0.0308246
0.0307997
0.0305043
0.0301782
0.0305093
0.0295308
0.028301
0.0356767
0.0329932
0.0320181
0.032511
0.0325581
0.0323186
0.0321338
0.0320054
0.0318225
0.0315144
0.0310673
0.0308027
0.0307446
0.0308147
0.0306704
0.0305577
0.0304693
0.0304566
0.0300408
0.0300264
0.0304798
0.0301719
0.0301401
0.0299922
0.0297976
0.0288131
0.0302826
0.0337982
0.0347937
0.0339756
0.0333152
0.032903
0.0325197
0.032348
0.0322284
0.0321524
0.0320726
0.0319184
0.0316781
0.0313532
0.0309709
0.030814
0.0307964
0.0306386
0.0305746
0.0305674
0.0306715
0.0300522
0.0304148
0.0301641
0.0299069
0.0297039
0.0295135
0.030259
0.0339163
0.0342975
0.0338983
0.0336553
0.0332754
0.0329188
0.032551
0.032308
0.0321726
0.032146
0.0321228
0.0320046
0.0317949
0.0315065
0.0311926
0.030937
0.0307474
0.0305445
0.0304957
0.0304406
0.0306316
0.0307573
0.0306238
0.0300656
0.029542
0.0298308
0.034949
0.0337479
0.0340695
0.0340941
0.0341129
0.0337605
0.0333563
0.0330744
0.0326946
0.0324199
0.0322293
0.0322042
0.0322206
0.0321218
0.0319243
0.031657
0.0313849
0.0311354
0.0308978
0.0305457
0.030367
0.0298377
0.0304083
0.0306769
0.0303399
0.0302712
0.0352571
0.0346167
0.0349961
0.0341257
0.0341625
0.0342669
0.0341893
0.0339271
0.0335648
0.0331837
0.0329376
0.0327169
0.0325121
0.0323761
0.0323504
0.0322557
0.0320515
0.0318087
0.0315765
0.0313817
0.0311157
0.0308894
0.0304882
0.0300736
0.0304641
0.0306739
0.0342774
0.0349252
0.0347236
0.0345848
0.0343709
0.034282
0.0343474
0.0342566
0.0340034
0.0337417
0.0334651
0.0332233
0.0330012
0.0327713
0.032611
0.0325166
0.0324068
0.0322198
0.0319816
0.0317828
0.031587
0.0313668
0.0313324
0.0309132
0.0308332
0.0344608
0.0352275
0.0346896
0.0348939
0.0347285
0.034519
0.0344017
0.0343428
0.0343424
0.0342918
0.0341614
0.0339468
0.0337004
0.0334644
0.0332426
0.0329902
0.032772
0.032676
0.0326019
0.0324362
0.032187
0.0319938
0.0317328
0.031577
0.0315797
0.0318549
0.0349819
0.0350843
0.0351055
0.0349405
0.0349745
0.0349455
0.0348029
0.034579
0.0344215
0.0343385
0.0343335
0.034336
0.0343011
0.0341397
0.0339027
0.0336726
0.0334736
0.0332884
0.0330151
0.0328818
0.0327792
0.0326388
0.0322658
0.0321878
0.0320291
0.0330486
0.0365271
0.0350529
0.0349085
0.034645
0.0348929
0.0349077
0.0349798
0.0349838
0.0348526
0.0346285
0.0344122
0.0343483
0.0343489
0.0343732
0.0343935
0.0343035
0.0341118
0.0338253
0.0335481
0.0333668
0.0332216
0.0329921
0.0328695
0.0325246
0.0324068
0.0323291
0.0318901
0.0349466
0.0354647
0.0351639
0.0348469
0.0346555
0.0347115
0.0347825
0.0348964
0.034948
0.0347242
0.034499
0.0343601
0.0343604
0.0344117
0.0344573
0.0345126
0.0344739
0.0342668
0.0339974
0.0337068
0.0334073
0.0331955
0.0331031
0.0330412
0.032857
0.0328337
0.0364585
0.0361363
0.0355185
0.0351493
0.0349968
0.0347406
0.0345768
0.0345872
0.0346965
0.034795
0.0346762
0.0344496
0.034284
0.0342884
0.0343859
0.0344664
0.0345174
0.0344869
0.0344205
0.03422
0.0338702
0.0335615
0.0333625
0.0331266
0.0322597
0.0329713
0.0360311
0.036437
0.0360955
0.0357164
0.0352249
0.0349634
0.0347249
0.034508
0.0345457
0.0346359
0.0345933
0.0344381
0.034234
0.0341723
0.0342806
0.0343816
0.0343868
0.0343752
0.0343033
0.0341399
0.0339542
0.033641
0.033236
0.0329628
0.0329439
0.0363928
0.0366231
0.0366418
0.0364648
0.0362291
0.0358816
0.0354253
0.0350181
0.0348038
0.034593
0.0346312
0.034628
0.0344888
0.0342862
0.0341166
0.0340919
0.0341401
0.034302
0.0343266
0.0341679
0.0340976
0.0338993
0.03376
0.0334277
0.0325817
0.0366916
0.0367059
0.0366841
0.0366708
0.0365608
0.0363201
0.0360614
0.035688
0.035269
0.0349758
0.0347887
0.0347118
0.0346303
0.0344445
0.0341994
0.034061
0.0340022
0.0339602
0.0342424
0.0343054
0.0340737
0.033961
0.0337393
0.0338643
0.033969
0.036743
0.0369157
0.0368235
0.0367965
0.0368344
0.0367281
0.0365922
0.0364331
0.0361674
0.0358682
0.0354803
0.0351571
0.0349
0.0347225
0.0345862
0.0344029
0.0342236
0.0341769
0.0340447
0.0339647
0.0341655
0.034248
0.0342364
0.0341301
0.0337758
0.0372729
0.0370306
0.036803
0.0368908
0.0369128
0.0369251
0.036819
0.0366748
0.0364689
0.0362367
0.0359504
0.0356566
0.0353135
0.0349698
0.0346565
0.0344248
0.0342623
0.034166
0.0342257
0.0341778
0.0341865
0.0342873
0.0345107
0.0344516
0.0343396
0.0378754
0.0378704
0.0374063
0.037144
0.0368462
0.0368857
0.0369874
0.0370287
0.0369258
0.0367364
0.0365348
0.0363168
0.0360274
0.0357885
0.0354955
0.0351154
0.0347612
0.0343527
0.0340805
0.0340488
0.0340755
0.0342109
0.0343698
0.0343799
0.0344028
0.0383986
0.0380362
0.0379364
0.0376184
0.0373513
0.0370471
0.0369454
0.0370735
0.0370955
0.0370378
0.0368805
0.0366858
0.0364286
0.0361588
0.0359528
0.0357101
0.0353219
0.0349791
0.0346482
0.0342907
0.0341739
0.0342033
0.0343204
0.0336616
0.0390515
0.0382702
0.0382877
0.0380659
0.0379265
0.0377158
0.0375474
0.03734
0.0372034
0.0371976
0.037226
0.0371762
0.0370112
0.0368035
0.0366005
0.0363447
0.0361498
0.0359334
0.0356097
0.0352812
0.034915
0.0345844
0.0343791
0.0341034
0.0341826
0.0386896
0.0386036
0.0385422
0.0383216
0.0380897
0.0379645
0.0378462
0.0377048
0.0375368
0.0374209
0.0373652
0.0374054
0.0373558
0.0371869
0.0369976
0.0367712
0.0365061
0.0362891
0.0360209
0.0357968
0.0355261
0.0352278
0.0349271
0.0346245
0.0391921
0.0387421
0.0388104
0.0386079
0.0384865
0.038305
0.0381143
0.0379969
0.0379412
0.0378139
0.0376885
0.0375814
0.0374835
0.0374655
0.0373887
0.037274
0.0371135
0.0368236
0.0365391
0.0363989
0.0361193
0.0358758
0.0355051
0.0352343
0.0350037
0.0390445
0.0389929
0.0389637
0.0388217
0.0386833
0.0384829
0.0383089
0.0381495
0.0380594
0.03801
0.037892
0.0377603
0.0376489
0.0375385
0.0374586
0.0373057
0.0371743
0.0370354
0.0368085
0.0365135
0.0363031
0.0360951
0.0360134
0.0357639
0.0392655
0.0390479
0.0390202
0.0389962
0.0389993
0.0388808
0.0387136
0.0385061
0.038311
0.0381471
0.0380882
0.0380184
0.0379299
0.0378423
0.0377541
0.0376309
0.0375018
0.0373207
0.0371103
0.0370117
0.0367526
0.0365205
0.0361717
0.036521
0.0365857
0.0392982
0.0392323
0.0390683
0.0390723
0.0390592
0.0390109
0.0389023
0.0387341
0.0385114
0.0383235
0.0381445
0.0380585
0.0379523
0.0378672
0.0378056
0.0378079
0.0377284
0.0375521
0.037371
0.0371828
0.0369847
0.0367691
0.0365993
0.0363889
0.0394563
0.039472
0.0392084
0.0391043
0.039078
0.0390616
0.0390268
0.0389173
0.0387401
0.0385295
0.038338
0.0381404
0.0380124
0.0378899
0.0377822
0.0376947
0.0376917
0.0376202
0.0374048
0.0373832
0.0371992
0.0369931
0.0369635
0.0370307
0.040117
0.0397518
0.0395939
0.0393533
0.0392056
0.0390762
0.0390513
0.039061
0.0390242
0.0389222
0.0387586
0.0385694
0.0383738
0.0381637
0.0379579
0.0377898
0.037647
0.0375398
0.0375993
0.0375828
0.0374661
0.0373912
0.0371435
0.0370161
0.0370112
0.0404131