/*--------------------------------*- C++ -*----------------------------------*\
| =========                 |                                                 |
| \\      /  F ield         | OpenFOAM: The Open Source CFD Toolbox           |
|  \\    /   O peration     | Version:  2312                                  |
|   \\  /    A nd           | Website:  www.openfoam.com                      |
|    \\/     M anipulation  |                                                 |
\*---------------------------------------------------------------------------*/
FoamFile
{
    version     2.0;
    format      ascii;
    arch        "LSB;label=64;scalar=64";
    class       volScalarField;
    location    "160";
    object      nut_ML_ND;
}
// * * * * * * * * * * * * * * * * * * * * * * * * * * * * * * * * * * * * * //

dimensions      [0 0 0 0 0 0 0];

internalField   nonuniform List<scalar> 
404911
(
0.349533
0.503988
0.221683
0.0739031
0.511035
0.515565
0.523927
0.0933632
0.0798601
0.0740847
0.490887
0.494075
0.541587
0.495313
0.510609
0.347164
0.483191
0.524503
0.501976
0.467212
0.440751
0.520855
0.427056
0.474331
0.567273
0.475607
0.523397
0.580343
0.575505
0.194804
0.535915
0.57593
0.542656
0.512504
0.515018
0.560626
0.501861
0.203257
0.445156
0.554555
0.508128
0.165503
0.476732
0.565173
0.557775
0.462773
0.345479
0.550135
0.535475
0.343732
0.124791
0.367421
0.516873
0.31761
0.378086
0.386075
0.0739037
0.488702
0.500969
0.495104
0.526734
0.574391
0.546971
0.581569
0.57704
0.563228
0.573179
0.541987
0.572884
0.580092
0.574171
0.586024
0.569831
0.578936
0.585625
0.527902
0.295274
0.542558
0.5811
0.572951
0.578941
0.570778
0.585462
0.573716
0.574933
0.578676
0.528447
0.578818
0.105747
0.567045
0.542108
0.0849605
0.576819
0.553663
0.563904
0.577438
0.572017
0.570891
0.580633
0.53433
0.345671
0.577996
0.567575
0.353347
0.38514
0.515048
0.532595
0.51285
0.53081
0.549896
0.55498
0.549209
0.547796
0.541691
0.247937
0.517009
0.550412
0.221975
0.43819
0.55273
0.55046
0.551668
0.547203
0.516823
0.407189
0.534299
0.55057
0.553574
0.558232
0.493724
0.522946
0.498823
0.556695
0.555788
0.550726
0.549412
0.534846
0.531767
0.533584
0.518254
0.439273
0.535357
0.554145
0.555504
0.551387
0.555529
0.557692
0.563516
0.518824
0.500276
0.554036
0.555552
0.549411
0.268283
0.521415
0.503501
0.544015
0.561915
0.561604
0.558056
0.554125
0.550725
0.552002
0.553775
0.55628
0.557339
0.55547
0.552934
0.541681
0.52939
0.527954
0.519004
0.520493
0.524864
0.523364
0.516889
0.447951
0.555
0.551139
0.551439
0.551451
0.551237
0.550019
0.548182
0.543349
0.539305
0.543601
0.51004
0.523813
0.525425
0.509856
0.525072
0.530325
0.521941
0.474762
0.560483
0.556424
0.555613
0.55231
0.550773
0.549821
0.543752
0.371544
0.484437
0.546501
0.520325
0.526763
0.535948
0.533197
0.526034
0.513626
0.530978
0.527578
0.525809
0.519692
0.561839
0.557072
0.555561
0.553997
0.547326
0.521871
0.51114
0.514277
0.535285
0.559269
0.572825
0.559351
0.536912
0.531149
0.546251
0.535715
0.546107
0.54522
0.566705
0.556896
0.55453
0.5485
0.53195
0.38114
0.377759
0.53535
0.570055
0.557685
0.571908
0.573822
0.574158
0.571509
0.559318
0.545339
0.544777
0.568852
0.568927
0.533055
0.498073
0.553556
0.545583
0.384932
0.517109
0.554468
0.570342
0.550895
0.573317
0.574796
0.576089
0.576653
0.576282
0.574209
0.57362
0.571683
0.537418
0.522522
0.52296
0.521402
0.519832
0.515895
0.5429
0.558555
0.535127
0.570587
0.574199
0.574606
0.574203
0.573312
0.575885
0.576902
0.575545
0.554557
0.518629
0.4973
0.517445
0.348889
0.523973
0.559405
0.560172
0.569265
0.569964
0.572525
0.575403
0.575758
0.573404
0.568481
0.570459
0.573611
0.57603
0.558529
0.52699
0.518009
0.536203
0.416598
0.480551
0.500868
0.530143
0.556842
0.575089
0.579881
0.573538
0.573348
0.575318
0.574657
0.57241
0.570727
0.57346
0.574637
0.572171
0.527729
0.556418
0.514001
0.445163
0.542234
0.567721
0.558265
0.57074
0.571468
0.558425
0.58177
0.572731
0.573858
0.572176
0.580812
0.580169
0.5714
0.574058
0.572509
0.524943
0.536393
0.514912
0.561274
0.572644
0.577799
0.579655
0.573786
0.574653
0.572016
0.581871
0.579623
0.583611
0.584144
0.579107
0.57298
0.562503
0.552095
0.546925
0.477764
0.470242
0.537336
0.562253
0.572053
0.581718
0.584471
0.582689
0.577406
0.5808
0.579258
0.583936
0.576526
0.578488
0.575601
0.567987
0.565733
0.504359
0.41722
0.52866
0.57115
0.56849
0.568272
0.573173
0.582241
0.578345
0.582391
0.585533
0.584901
0.584047
0.578477
0.576908
0.573611
0.570085
0.565465
0.532203
0.50714
0.497017
0.501956
0.518304
0.572688
0.569833
0.579699
0.578234
0.58018
0.583452
0.584788
0.585872
0.58471
0.582978
0.577471
0.560866
0.556049
0.559694
0.518746
0.524036
0.570112
0.566961
0.575051
0.579016
0.58144
0.581418
0.580615
0.582774
0.579929
0.581718
0.585448
0.583559
0.579646
0.576649
0.566233
0.530406
0.505692
0.56456
0.579539
0.574033
0.580143
0.578554
0.581902
0.583227
0.579258
0.576737
0.577481
0.578462
0.580392
0.580726
0.579795
0.568192
0.563472
0.528601
0.523683
0.574842
0.57241
0.577386
0.581549
0.583064
0.580209
0.583248
0.583085
0.580713
0.576761
0.577931
0.581282
0.576368
0.576772
0.56763
0.56112
0.466236
0.548527
0.577646
0.581068
0.583527
0.584213
0.584815
0.583715
0.576063
0.585303
0.585237
0.581255
0.579566
0.574917
0.573578
0.566833
0.561763
0.534521
0.41122
0.517403
0.563313
0.57652
0.581467
0.583178
0.58437
0.582274
0.58355
0.585443
0.584607
0.584516
0.583798
0.581999
0.577561
0.550171
0.568706
0.550624
0.422232
0.453485
0.546296
0.575638
0.57246
0.580695
0.583264
0.583834
0.58492
0.5856
0.583688
0.585769
0.582756
0.581681
0.581188
0.579067
0.574443
0.556857
0.525541
0.515924
0.568024
0.576429
0.581109
0.582922
0.583691
0.584017
0.584563
0.582594
0.585772
0.585739
0.585486
0.581092
0.578696
0.57331
0.566951
0.553933
0.405109
0.481303
0.548566
0.578909
0.581018
0.582264
0.583623
0.584102
0.584221
0.584356
0.584861
0.581679
0.583737
0.583487
0.584105
0.578978
0.575374
0.559854
0.53432
0.499466
0.574057
0.580965
0.582514
0.582898
0.58387
0.584309
0.5844
0.584518
0.584617
0.584764
0.584959
0.58485
0.583988
0.580206
0.568668
0.550354
0.522967
0.550231
0.583805
0.58285
0.582672
0.583084
0.584024
0.5843
0.584519
0.584606
0.584649
0.584694
0.584498
0.583892
0.582576
0.578244
0.570928
0.558151
0.516997
0.556301
0.578906
0.585158
0.584457
0.583642
0.584643
0.585369
0.585233
0.584579
0.584354
0.584628
0.58445
0.583709
0.580827
0.576476
0.569636
0.539005
0.383833
0.499025
0.568938
0.584081
0.583851
0.583816
0.58482
0.584689
0.585514
0.584114
0.584308
0.584731
0.583382
0.583758
0.58327
0.579952
0.5681
0.558419
0.521994
0.50465
0.572117
0.581748
0.584488
0.584931
0.584768
0.584865
0.584941
0.58563
0.584578
0.585538
0.584712
0.582846
0.581475
0.579081
0.566226
0.554953
0.382613
0.541285
0.576124
0.579896
0.583223
0.584636
0.584485
0.584789
0.584966
0.584876
0.585056
0.585382
0.585325
0.58396
0.581724
0.573373
0.569172
0.551813
0.367385
0.543886
0.57866
0.582712
0.583836
0.584653
0.583026
0.583611
0.585669
0.585122
0.584816
0.584566
0.584318
0.583614
0.581339
0.575297
0.565782
0.530859
0.499139
0.560131
0.578791
0.581906
0.584147
0.584884
0.585187
0.583234
0.584461
0.585768
0.585268
0.584823
0.584216
0.583202
0.580253
0.56907
0.558686
0.521974
0.520554
0.572789
0.576446
0.57874
0.583678
0.585523
0.585707
0.585718
0.584002
0.584572
0.585481
0.585336
0.584393
0.583465
0.580401
0.568882
0.552486
0.358636
0.541152
0.578634
0.583004
0.583328
0.584571
0.585618
0.584398
0.585074
0.584581
0.585727
0.584628
0.585681
0.585478
0.58311
0.580137
0.567999
0.539592
0.355853
0.499031
0.566016
0.581144
0.582076
0.583402
0.584346
0.585215
0.584094
0.5854
0.585441
0.585136
0.585679
0.58475
0.584332
0.584022
0.577248
0.569016
0.533913
0.499517
0.570771
0.582131
0.583557
0.583493
0.584151
0.584655
0.585378
0.584104
0.585114
0.585501
0.58569
0.585673
0.584937
0.582512
0.576852
0.562423
0.522643
0.499523
0.571926
0.58241
0.583896
0.583475
0.583762
0.584589
0.584926
0.585333
0.585727
0.584552
0.5857
0.585723
0.585449
0.580708
0.572781
0.557977
0.370853
0.498557
0.57209
0.582155
0.583693
0.583636
0.583377
0.584191
0.584754
0.585103
0.585298
0.585638
0.585509
0.585327
0.584153
0.581146
0.566563
0.539123
0.360552
0.545654
0.578157
0.580434
0.582455
0.583275
0.583638
0.584083
0.584489
0.584898
0.585663
0.585451
0.585594
0.585641
0.582614
0.580735
0.56833
0.533474
0.494639
0.552241
0.582376
0.584478
0.582498
0.582866
0.583666
0.584251
0.584523
0.584478
0.584976
0.585734
0.585716
0.584969
0.584243
0.581135
0.571152
0.535945
0.49865
0.57202
0.58226
0.581799
0.583191
0.582839
0.583604
0.584911
0.585174
0.584771
0.584391
0.584499
0.585107
0.583124
0.582102
0.578208
0.570666
0.534339
0.501195
0.573133
0.583051
0.585332
0.584912
0.583897
0.58378
0.585191
0.584425
0.584648
0.585224
0.584625
0.584115
0.583653
0.582247
0.578011
0.572115
0.532168
0.500238
0.572511
0.582511
0.584716
0.585121
0.584688
0.584298
0.584536
0.585538
0.584723
0.585289
0.585097
0.584588
0.583871
0.58236
0.577242
0.571368
0.53104
0.498674
0.571906
0.581517
0.583979
0.584729
0.584775
0.5848
0.584895
0.584913
0.585109
0.585391
0.585495
0.584895
0.584104
0.58162
0.577595
0.56782
0.525608
0.500876
0.572335
0.581491
0.583714
0.584483
0.5846
0.584966
0.585182
0.585212
0.585057
0.584935
0.584914
0.584603
0.583914
0.581367
0.57318
0.560707
0.443261
0.539685
0.572343
0.580532
0.583032
0.584465
0.584757
0.584927
0.585357
0.58554
0.585492
0.58521
0.584932
0.584537
0.583878
0.58138
0.57356
0.55875
0.397212
0.538219
0.572317
0.579393
0.583132
0.584971
0.5852
0.5855
0.585685
0.585206
0.584795
0.585459
0.585452
0.584724
0.584027
0.581308
0.573235
0.55877
0.387814
0.445562
0.554008
0.571998
0.577847
0.582229
0.582807
0.584529
0.584477
0.584612
0.584724
0.584945
0.584637
0.585537
0.585217
0.584158
0.581153
0.570399
0.556185
0.386376
0.458013
0.562132
0.57636
0.574175
0.581118
0.584147
0.583383
0.585719
0.583917
0.583662
0.583683
0.583471
0.584602
0.585435
0.583925
0.580573
0.568169
0.539519
0.560186
0.574723
0.581371
0.58364
0.584413
0.584953
0.585732
0.580873
0.581954
0.582837
0.58246
0.583423
0.58582
0.584176
0.577569
0.570375
0.535055
0.388878
0.552826
0.573024
0.581315
0.583981
0.584675
0.584968
0.585372
0.58561
0.584419
0.5811
0.580749
0.584133
0.585843
0.583789
0.576599
0.567351
0.525947
0.360104
0.551759
0.567986
0.580907
0.584006
0.584686
0.585198
0.585466
0.585621
0.585591
0.584491
0.582426
0.583945
0.585798
0.584501
0.577848
0.564776
0.521579
0.357165
0.549258
0.562798
0.579951
0.583939
0.584764
0.585297
0.585724
0.58472
0.585226
0.585567
0.58558
0.585698
0.585902
0.583598
0.57723
0.563377
0.408031
0.559581
0.562436
0.579351
0.583658
0.584769
0.585149
0.585577
0.584647
0.585139
0.585611
0.585688
0.585667
0.585223
0.582352
0.573535
0.557038
0.375685
0.365123
0.559921
0.581688
0.583402
0.584569
0.585089
0.585342
0.585642
0.584259
0.584618
0.585381
0.58549
0.584244
0.580794
0.572124
0.554457
0.361802
0.280588
0.522072
0.573223
0.579954
0.584691
0.584477
0.585036
0.585523
0.585717
0.58573
0.584989
0.585685
0.585785
0.584118
0.578373
0.570405
0.551443
0.355253
0.522482
0.570763
0.575018
0.582173
0.585295
0.584947
0.584964
0.58564
0.584915
0.585597
0.585728
0.585702
0.585654
0.584316
0.577404
0.566737
0.531903
0.526593
0.551496
0.575883
0.583577
0.585509
0.585611
0.585105
0.585417
0.585679
0.585627
0.585219
0.585412
0.585131
0.582625
0.576188
0.562812
0.527276
0.360641
0.535965
0.564099
0.57679
0.580228
0.582193
0.58365
0.584592
0.585726
0.585478
0.584208
0.583921
0.585555
0.585575
0.58178
0.57196
0.556577
0.363139
0.429226
0.553173
0.569903
0.581119
0.58158
0.582896
0.574111
0.579416
0.585774
0.58309
0.585353
0.585712
0.585428
0.585222
0.58001
0.565853
0.552361
0.354621
0.498717
0.569721
0.563384
0.576495
0.582777
0.58437
0.585203
0.581429
0.575501
0.585881
0.584624
0.58565
0.585381
0.58465
0.581384
0.5656
0.55366
0.361052
0.514113
0.573304
0.574184
0.581053
0.584717
0.585379
0.585303
0.585266
0.585785
0.582047
0.585793
0.585381
0.584409
0.583849
0.581943
0.573179
0.557416
0.367917
0.489574
0.547392
0.577278
0.579048
0.580859
0.585543
0.584073
0.578315
0.585313
0.583746
0.585001
0.584796
0.584231
0.58339
0.584892
0.579927
0.570092
0.518999
0.368862
0.505966
0.575114
0.571899
0.58068
0.581934
0.58558
0.579061
0.56516
0.574471
0.585637
0.584236
0.585754
0.585191
0.58439
0.582616
0.579196
0.569357
0.547096
0.360381
0.563001
0.580979
0.582745
0.583503
0.585762
0.578016
0.56584
0.569485
0.579783
0.585754
0.585671
0.585138
0.583442
0.581107
0.573557
0.567356
0.533639
0.353072
0.556642
0.582934
0.58254
0.583275
0.58557
0.569446
0.568623
0.579751
0.580093
0.585024
0.585609
0.58525
0.583454
0.581147
0.574175
0.564521
0.52739
0.552899
0.581847
0.583368
0.582857
0.585782
0.574108
0.563435
0.573693
0.583762
0.584064
0.58574
0.585683
0.583594
0.581301
0.573885
0.560956
0.520859
0.549436
0.565985
0.581083
0.583529
0.585907
0.569678
0.563646
0.569974
0.5775
0.583544
0.585659
0.585711
0.584365
0.580299
0.57449
0.559551
0.386049
0.497262
0.567745
0.577598
0.581879
0.584335
0.585764
0.578872
0.567344
0.574915
0.581229
0.585551
0.585688
0.584731
0.583557
0.580297
0.568793
0.553323
0.366858
0.501084
0.571884
0.576336
0.581269
0.58306
0.585695
0.570612
0.570781
0.577505
0.584619
0.585802
0.584676
0.582605
0.583495
0.577983
0.570986
0.535749
0.506417
0.583111
0.586129
0.583638
0.583614
0.585762
0.576806
0.567627
0.574821
0.584288
0.585639
0.584742
0.585185
0.582973
0.577628
0.568087
0.528782
0.510497
0.586028
0.587809
0.585115
0.583481
0.585797
0.571274
0.573623
0.583208
0.585682
0.58563
0.584651
0.58537
0.583016
0.577351
0.565938
0.529435
0.510893
0.586805
0.587723
0.585123
0.583269
0.585122
0.575818
0.575142
0.582403
0.585765
0.585335
0.584597
0.585103
0.582176
0.575971
0.564384
0.436439
0.51025
0.58457
0.585955
0.585153
0.583913
0.58443
0.585796
0.580889
0.582191
0.585601
0.584671
0.584059
0.584936
0.58172
0.572171
0.557885
0.400643
0.561178
0.584105
0.577946
0.582974
0.584799
0.58577
0.585575
0.585846
0.585713
0.585493
0.584462
0.585385
0.584389
0.580996
0.570174
0.55401
0.37272
0.541157
0.546789
0.580818
0.585652
0.584578
0.573471
0.580909
0.585823
0.585242
0.5846
0.58536
0.583485
0.577332
0.563284
0.542433
0.367741
0.539433
0.575328
0.574209
0.584828
0.573348
0.569833
0.57576
0.585198
0.585659
0.58498
0.583506
0.583155
0.575968
0.560742
0.529393
0.558205
0.563932
0.574713
0.575696
0.581073
0.574983
0.570258
0.577147
0.58417
0.58584
0.585066
0.585447
0.582065
0.57295
0.558093
0.524817
0.55264
0.580555
0.58047
0.572811
0.575896
0.585676
0.576408
0.579348
0.585813
0.585346
0.584576
0.582373
0.580311
0.569807
0.555492
0.370726
0.545419
0.577104
0.57517
0.575322
0.574768
0.574642
0.583579
0.585297
0.585064
0.584055
0.583393
0.579445
0.57544
0.56178
0.551478
0.369051
0.495447
0.546502
0.568698
0.577188
0.574992
0.573906
0.575881
0.577806
0.58018
0.574657
0.57239
0.575558
0.581027
0.57331
0.55619
0.509812
0.476177
0.557596
0.570896
0.5706
0.582771
0.576243
0.57657
0.578327
0.583919
0.581852
0.577902
0.575508
0.572239
0.566707
0.525999
0.546372
0.509958
0.558736
0.564701
0.566973
0.582701
0.577355
0.580515
0.580279
0.581448
0.582131
0.575669
0.573071
0.572698
0.570504
0.524183
0.496978
0.537215
0.570185
0.529762
0.568436
0.575636
0.584829
0.582698
0.584201
0.58453
0.583093
0.578922
0.576054
0.568757
0.558532
0.529229
0.300997
0.531373
0.519458
0.539367
0.575147
0.573323
0.578215
0.581697
0.577507
0.576556
0.578458
0.580381
0.57334
0.568928
0.562466
0.541847
0.509908
0.391391
0.513739
0.532778
0.570437
0.577215
0.576568
0.581073
0.581904
0.578448
0.575216
0.574325
0.569979
0.556632
0.563113
0.53737
0.376986
0.549706
0.518358
0.55463
0.574247
0.578196
0.581104
0.578922
0.57644
0.575992
0.576
0.5748
0.569614
0.561157
0.554003
0.431334
0.385782
0.546329
0.560562
0.505195
0.544912
0.576407
0.582561
0.580802
0.576624
0.57586
0.573423
0.569845
0.568792
0.569777
0.535442
0.479666
0.517662
0.552664
0.558772
0.467266
0.515827
0.571843
0.579454
0.578796
0.576582
0.575126
0.574103
0.561202
0.572734
0.565693
0.533706
0.377249
0.525061
0.44941
0.51862
0.540242
0.577057
0.577487
0.576155
0.572666
0.569692
0.549626
0.567232
0.555073
0.461567
0.367816
0.521344
0.52377
0.516985
0.53669
0.52941
0.575714
0.575963
0.573339
0.560365
0.573163
0.56715
0.533799
0.360828
0.551091
0.561688
0.495559
0.511334
0.563114
0.534076
0.52273
0.574673
0.572887
0.561737
0.572807
0.560296
0.52638
0.352246
0.544492
0.560737
0.510747
0.496741
0.532574
0.564761
0.545538
0.532376
0.535802
0.540633
0.573732
0.561418
0.470393
0.348399
0.543856
0.490971
0.516663
0.505999
0.51407
0.553641
0.548628
0.562137
0.530354
0.516608
0.575043
0.564199
0.484797
0.340336
0.539824
0.500642
0.485437
0.501256
0.500724
0.539887
0.56672
0.574909
0.554492
0.525717
0.57824
0.55108
0.494769
0.342386
0.538131
0.552012
0.465198
0.492615
0.466651
0.460174
0.554591
0.56717
0.538146
0.577671
0.579793
0.553669
0.491757
0.31675
0.320992
0.544731
0.558772
0.499683
0.505574
0.464707
0.504635
0.545182
0.523225
0.512197
0.583557
0.557538
0.561716
0.508081
0.516736
0.522744
0.571256
0.532799
0.524657
0.527199
0.545692
0.561538
0.566535
0.516685
0.519342
0.576456
0.582561
0.575594
0.51037
0.074797
0.509363
0.565017
0.527063
0.522619
0.57655
0.561626
0.386586
0.366785
0.425242
0.393111
0.567888
0.571893
0.503267
0.424892
0.357963
0.564629
0.570965
0.534086
0.353676
0.398783
0.538591
0.564445
0.571837
0.507172
0.349481
0.545001
0.306904
0.352597
0.546259
0.514653
0.558032
0.558701
0.549041
0.55162
0.536903
0.524501
0.546664
0.527797
0.52527
0.5057
0.349217
0.0748848
0.503764
0.548156
0.707691
0.732221
0.523718
0.606153
0.659029
0.697458
0.71118
0.721193
0.717856
0.713594
0.710159
0.515774
0.56662
0.600997
0.622372
0.640965
0.660359
0.686114
0.694651
0.699534
0.705862
0.702781
0.700705
0.69548
0.689529
0.671174
0.513346
0.556499
0.589259
0.596049
0.601584
0.610931
0.622307
0.638415
0.664016
0.688779
0.679353
0.675867
0.688409
0.691435
0.693825
0.685869
0.675977
0.647409
0.610973
0.609474
0.683776
0.728064
0.516773
0.544064
0.578616
0.58427
0.585554
0.587661
0.593268
0.601104
0.607827
0.617916
0.636941
0.662777
0.678516
0.659715
0.592056
0.632406
0.694368
0.687583
0.676142
0.666032
0.640964
0.607535
0.590686
0.524625
0.556045
0.570404
0.576014
0.57933
0.581269
0.579089
0.577678
0.584613
0.593813
0.600119
0.601411
0.612493
0.633416
0.654378
0.663314
0.652852
0.599235
0.631655
0.685744
0.685446
0.679674
0.668327
0.646402
0.595534
0.538548
0.570338
0.576572
0.577893
0.571877
0.568704
0.526357
0.530789
0.51852
0.581788
0.589
0.594748
0.59874
0.597365
0.608378
0.627028
0.637841
0.646789
0.648513
0.592229
0.61648
0.686031
0.685707
0.680684
0.657266
0.481746
0.54028
0.568886
0.568574
0.578278
0.577063
0.576407
0.572178
0.573627
0.577434
0.577805
0.558802
0.593493
0.596414
0.505528
0.591272
0.533524
0.618147
0.625715
0.637646
0.656325
0.57597
0.612218
0.673494
0.648149
0.502138
0.556166
0.570419
0.577087
0.583021
0.5838
0.583825
0.580076
0.580509
0.579988
0.575122
0.578323
0.580402
0.583167
0.577484
0.56533
0.581111
0.589218
0.572335
0.611489
0.617668
0.626353
0.640783
0.651363
0.608212
0.532745
0.501833
0.554701
0.579574
0.580623
0.57978
0.582697
0.584046
0.584236
0.583765
0.580603
0.581043
0.582244
0.576703
0.577868
0.579027
0.580734
0.585428
0.587045
0.592136
0.587889
0.602208
0.605505
0.610902
0.595928
0.552276
0.507275
0.534498
0.572493
0.575156
0.58002
0.581274
0.581185
0.584486
0.584487
0.5843
0.581725
0.583096
0.584603
0.584108
0.584521
0.584198
0.584089
0.583911
0.581984
0.581384
0.574326
0.57954
0.582245
0.587575
0.592928
0.542523
0.487516
0.561174
0.57751
0.571516
0.578436
0.581569
0.5824
0.585683
0.583615
0.583863
0.583013
0.583624
0.584911
0.585125
0.583897
0.585087
0.584908
0.584684
0.58434
0.583766
0.579113
0.575457
0.538144
0.539529
0.528604
0.34313
0.511737
0.466714
0.537912
0.574977
0.580856
0.58319
0.584205
0.584466
0.585777
0.585892
0.585724
0.58564
0.58558
0.585723
0.585587
0.585355
0.584754
0.584306
0.58363
0.583044
0.581755
0.579017
0.576079
0.530343
0.504582
0.495225
0.54454
0.577733
0.578826
0.580227
0.580814
0.583519
0.585984
0.586299
0.586843
0.586732
0.585957
0.58598
0.586286
0.585844
0.58498
0.584889
0.584419
0.5814
0.579683
0.576827
0.574566
0.563939
0.535894
0.543821
0.586135
0.581294
0.584593
0.583295
0.582224
0.5809
0.577483
0.584467
0.585932
0.585965
0.585341
0.58609
0.585576
0.586869
0.586737
0.586565
0.585425
0.583933
0.582507
0.578326
0.571097
0.570913
0.560271
0.530714
0.545898
0.586395
0.592775
0.590827
0.58899
0.585677
0.583588
0.581766
0.581879
0.582363
0.585851
0.586107
0.586154
0.583343
0.583789
0.58631
0.586552
0.586162
0.584964
0.582652
0.579753
0.576541
0.551336
0.556754
0.528995
0.55542
0.590819
0.588571
0.590179
0.589014
0.588404
0.586999
0.585173
0.584565
0.584736
0.584872
0.584186
0.58533
0.585735
0.585237
0.584117
0.585788
0.586324
0.585328
0.58281
0.580865
0.576836
0.568512
0.538462
0.398449
0.507497
0.55739
0.590719
0.589585
0.590353
0.588848
0.588054
0.587045
0.586707
0.585937
0.585828
0.585971
0.586146
0.586289
0.585006
0.584798
0.585687
0.586434
0.586241
0.585973
0.585891
0.583451
0.579604
0.574052
0.542852
0.519136
0.506628
0.555768
0.590283
0.587932
0.588579
0.588384
0.587842
0.587133
0.586352
0.585401
0.584624
0.585199
0.585641
0.585772
0.586114
0.586579
0.58625
0.585209
0.584241
0.5846
0.585944
0.585785
0.583677
0.578924
0.563639
0.524597
0.50899
0.572609
0.590465
0.585227
0.586707
0.587261
0.58704
0.586321
0.585452
0.584773
0.584411
0.58368
0.584316
0.58533
0.585695
0.58572
0.585819
0.586154
0.586354
0.584931
0.579428
0.579408
0.57828
0.566338
0.568294
0.535303
0.447389
0.501784
0.567079
0.589178
0.589781
0.587472
0.586552
0.586532
0.585749
0.584757
0.584352
0.584183
0.58445
0.584605
0.584365
0.585173
0.58608
0.58644
0.586444
0.586195
0.586134
0.586101
0.581277
0.57666
0.56987
0.55365
0.554234
0.365868
0.545356
0.588624
0.585681
0.587297
0.586663
0.586236
0.586025
0.584231
0.583444
0.58381
0.584306
0.584715
0.585139
0.585339
0.585453
0.585946
0.586464
0.586741
0.585719
0.58399
0.584189
0.581771
0.575077
0.564732
0.564766
0.526072
0.536807
0.582244
0.588945
0.589185
0.587741
0.586937
0.586286
0.584766
0.58154
0.580196
0.58142
0.583259
0.584461
0.585267
0.585808
0.586028
0.585994
0.585831
0.585768
0.585544
0.582271
0.580901
0.580412
0.570207
0.566282
0.523941
0.510446
0.570335
0.586655
0.587533
0.58756
0.58737
0.586657
0.584831
0.582558
0.579267
0.576924
0.576937
0.579083
0.582251
0.584245
0.585261
0.585738
0.585812
0.585634
0.585543
0.58582
0.584474
0.581659
0.579591
0.574655
0.53042
0.541704
0.582783
0.586598
0.587733
0.58779
0.586684
0.583346
0.579485
0.577155
0.575611
0.574019
0.573356
0.574748
0.577867
0.581498
0.58384
0.58481
0.585123
0.585307
0.585701
0.585606
0.584637
0.579874
0.569602
0.550412
0.52988
0.577691
0.580496
0.585354
0.587492
0.586949
0.583663
0.577442
0.572147
0.570266
0.570097
0.569581
0.569189
0.570579
0.573608
0.577689
0.581714
0.583816
0.584724
0.585437
0.585754
0.584636
0.582776
0.580308
0.57317
0.508991
0.504678
0.564727
0.58153
0.582745
0.586315
0.587197
0.584955
0.58041
0.573175
0.567132
0.564287
0.564016
0.564883
0.566081
0.567657
0.57092
0.575655
0.579686
0.58278
0.584933
0.585815
0.584931
0.582841
0.580813
0.578029
0.536204
0.504858
0.56148
0.582058
0.582498
0.584506
0.586426
0.586077
0.582281
0.576884
0.571099
0.566047
0.56272
0.560991
0.561202
0.563131
0.566666
0.571042
0.575884
0.581037
0.584214
0.585746
0.584375
0.583185
0.579728
0.568902
0.556489
0.501911
0.535149
0.57839
0.583841
0.584847
0.585176
0.586553
0.584745
0.579771
0.574376
0.569536
0.566041
0.563936
0.562421
0.561354
0.562471
0.566573
0.573198
0.579692
0.583939
0.585878
0.583826
0.581236
0.577896
0.565009
0.559195
0.505934
0.512327
0.572458
0.579754
0.585062
0.585613
0.586217
0.586124
0.583532
0.578002
0.572815
0.56859
0.566296
0.565629
0.565054
0.564327
0.564436
0.567415
0.574091
0.581484
0.585814
0.585619
0.583393
0.577883
0.563938
0.558283
0.505819
0.561235
0.583428
0.586073
0.58707
0.586973
0.586214
0.58351
0.580993
0.576443
0.572494
0.569042
0.566881
0.566879
0.568072
0.568147
0.568062
0.570354
0.576292
0.583592
0.586561
0.585831
0.583138
0.580616
0.561158
0.505774
0.508309
0.579103
0.585055
0.586652
0.58747
0.586358
0.584076
0.580808
0.577085
0.57514
0.572309
0.570089
0.568143
0.568014
0.570334
0.573454
0.574652
0.575631
0.581313
0.585839
0.586727
0.584556
0.581365
0.567892
0.535818
0.55004
0.581571
0.585486
0.586692
0.586931
0.583995
0.580359
0.57706
0.574257
0.571917
0.571467
0.570772
0.570307
0.569286
0.570623
0.575533
0.580988
0.583614
0.585704
0.586311
0.585938
0.58288
0.571662
0.559077
0.505634
0.501845
0.5645
0.583852
0.585517
0.586467
0.58636
0.582144
0.577055
0.573388
0.571303
0.569766
0.569228
0.570174
0.570961
0.57154
0.571996
0.575574
0.581748
0.585286
0.58649
0.585613
0.583305
0.581582
0.574481
0.505893
0.537781
0.576928
0.582745
0.584829
0.586678
0.585863
0.580549
0.574315
0.570698
0.568421
0.567445
0.567869
0.56917
0.57146
0.57418
0.576838
0.578904
0.582681
0.586085
0.586632
0.58437
0.581002
0.5699
0.550348
0.469444
0.51154
0.576796
0.584682
0.586246
0.586846
0.587053
0.582792
0.577146
0.570901
0.567335
0.56535
0.564629
0.565141
0.567558
0.570726
0.57454
0.579503
0.583616
0.585612
0.586509
0.585438
0.582632
0.574118
0.555488
0.510587
0.561105
0.57733
0.584683
0.586745
0.587563
0.586486
0.582525
0.574248
0.568041
0.564778
0.563164
0.562672
0.563276
0.565333
0.569488
0.57415
0.579029
0.583635
0.586108
0.585285
0.581928
0.57735
0.569688
0.531124
0.513407
0.576608
0.583853
0.586894
0.587824
0.586877
0.585199
0.581907
0.575781
0.568709
0.564188
0.562393
0.562246
0.562878
0.56471
0.568704
0.574367
0.579309
0.583776
0.58623
0.58558
0.581601
0.570753
0.547566
0.439024
0.553263
0.580423
0.585057
0.587268
0.587144
0.585259
0.582596
0.578932
0.575112
0.57101
0.566904
0.56419
0.56355
0.564477
0.566298
0.569539
0.574972
0.581066
0.584632
0.586403
0.584859
0.579842
0.569646
0.529695
0.511219
0.576452
0.583574
0.586116
0.587482
0.586141
0.583049
0.579437
0.575681
0.572163
0.57048
0.569558
0.567869
0.56729
0.568209
0.570901
0.574103
0.577812
0.58248
0.586082
0.586259
0.58296
0.579509
0.567199
0.503486
0.553533
0.581025
0.584972
0.586835
0.587188
0.58496
0.581402
0.577598
0.573859
0.570309
0.567821
0.567695
0.568732
0.569839
0.571658
0.574829
0.579593
0.583213
0.585368
0.586634
0.584608
0.57936
0.568085
0.54504
0.509625
0.576702
0.583777
0.586082
0.587352
0.586305
0.583465
0.579877
0.576261
0.57306
0.569886
0.567347
0.566077
0.566917
0.569433
0.573095
0.576554
0.580769
0.584786
0.586451
0.585842
0.582189
0.578383
0.567246
0.505918
0.549358
0.581634
0.585492
0.586593
0.587333
0.585122
0.581504
0.578056
0.575101
0.572651
0.570375
0.567841
0.566387
0.566644
0.568983
0.573166
0.578188
0.581753
0.584908
0.586459
0.584526
0.581566
0.566214
0.543659
0.559946
0.577355
0.585308
0.587181
0.587056
0.583995
0.579928
0.576401
0.573866
0.572029
0.570705
0.5696
0.568315
0.567923
0.569628
0.573763
0.579264
0.583454
0.585721
0.586182
0.582615
0.57729
0.569914
0.510535
0.511112
0.575759
0.584656
0.587253
0.588011
0.586644
0.583171
0.578639
0.574995
0.572719
0.571335
0.570441
0.569984
0.569997
0.570329
0.571678
0.574796
0.579712
0.584776
0.586325
0.585628
0.581158
0.565203
0.546639
0.445113
0.514195
0.576614
0.585314
0.588106
0.588142
0.586191
0.582385
0.577412
0.573535
0.571436
0.5705
0.570125
0.570037
0.57039
0.571452
0.573421
0.576488
0.580492
0.58427
0.586328
0.584855
0.580389
0.561417
0.509581
0.532321
0.579356
0.585759
0.588295
0.587328
0.584725
0.580809
0.576098
0.572011
0.569628
0.568989
0.569467
0.570053
0.570687
0.571966
0.574302
0.577819
0.581847
0.585202
0.586364
0.583233
0.577522
0.556446
0.49503
0.559531
0.577663
0.585648
0.58809
0.586252
0.582677
0.57872
0.574618
0.571133
0.568617
0.567267
0.567539
0.569408
0.571139
0.572621
0.574964
0.578591
0.582835
0.585928
0.58556
0.582
0.57012
0.54307
0.509949
0.571494
0.581828
0.586746
0.58778
0.585108
0.580948
0.576746
0.573147
0.570395
0.568647
0.567482
0.566912
0.567758
0.570409
0.573172
0.575955
0.579393
0.583403
0.586251
0.584949
0.577615
0.569282
0.508098
0.528116
0.57739
0.584899
0.587678
0.587169
0.584279
0.57999
0.575354
0.571614
0.569297
0.568238
0.56803
0.568115
0.568508
0.569946
0.572786
0.576385
0.580606
0.584261
0.586426
0.583816
0.577476
0.554347
0.439478
0.559246
0.57592
0.584547
0.587529
0.586584
0.583061
0.578849
0.57451
0.570366
0.567402
0.566671
0.567261
0.568301
0.56952
0.570982
0.573253
0.576596
0.58086
0.584901
0.586383
0.582715
0.574255
0.545269
0.508291
0.574865
0.583365
0.586741
0.587773
0.586009
0.582085
0.577205
0.572881
0.569386
0.566489
0.564795
0.565217
0.567009
0.569113
0.571391
0.57406
0.577552
0.581735
0.585498
0.585795
0.582194
0.570094
0.53047
0.530003
0.578185
0.585015
0.587017
0.587472
0.585214
0.581246
0.575926
0.570889
0.567191
0.564997
0.563799
0.563443
0.564664
0.567628
0.570875
0.574203
0.578141
0.582569
0.585886
0.584963
0.577687
0.569976
0.50878
0.548688
0.581656
0.585471
0.587691
0.586911
0.583691
0.579569
0.574771
0.569691
0.565359
0.562687
0.561907
0.56249
0.563442
0.565598
0.569618
0.574163
0.578708
0.583488
0.586363
0.584688
0.576947
0.553529
0.451257
0.559353
0.576249
0.585
0.587656
0.586524
0.583079
0.578552
0.574032
0.569664
0.565387
0.561922
0.560186
0.56052
0.56259
0.565348
0.569094
0.574099
0.579743
0.584543
0.586412
0.582081
0.576514
0.547267
0.504701
0.573859
0.58462
0.587458
0.587792
0.585574
0.582304
0.578136
0.573765
0.570007
0.566729
0.563449
0.560714
0.559573
0.560812
0.564528
0.569544
0.575067
0.580972
0.58574
0.585754
0.581923
0.565438
0.528176
0.509805
0.576596
0.583745
0.587329
0.587745
0.585244
0.581647
0.577942
0.574006
0.570433
0.567716
0.565419
0.563134
0.561196
0.560951
0.5636
0.569242
0.576265
0.582619
0.586433
0.585093
0.577876
0.569268
0.505648
0.512628
0.576688
0.584715
0.587223
0.587698
0.585283
0.581345
0.577531
0.5744
0.571405
0.568762
0.56658
0.564887
0.563747
0.563451
0.565106
0.569754
0.577078
0.584019
0.586695
0.583084
0.578928
0.551895
0.547963
0.581785
0.586163
0.588035
0.587417
0.585247
0.581319
0.57697
0.573866
0.571874
0.570011
0.567938
0.56582
0.564393
0.56477
0.567155
0.571635
0.578415
0.584986
0.586484
0.581899
0.567206
0.539999
0.550826
0.582839