/*--------------------------------*- C++ -*----------------------------------*\
| =========                 |                                                 |
| \\      /  F ield         | OpenFOAM: The Open Source CFD Toolbox           |
|  \\    /   O peration     | Version:  2312                                  |
|   \\  /    A nd           | Website:  www.openfoam.com                      |
|    \\/     M anipulation  |                                                 |
\*---------------------------------------------------------------------------*/
FoamFile
{
    version     2.0;
    format      ascii;
    arch        "LSB;label=64;scalar=64";
    class       volScalarField;
    location    "160";
    object      omega;
}
// * * * * * * * * * * * * * * * * * * * * * * * * * * * * * * * * * * * * * //

dimensions      [0 0 -1 0 0 0 0];

internalField   nonuniform List<scalar> 
404911
(
226.059
155.078
3433.78
1536.57
134.557
151.499
123.636
602.579
340.938
281.622
235.209
282.529
139.973
228.188
393.23
1099.11
204.32
130.224
145.505
238.022
366.281
172.765
554.911
354.703
139.436
915.979
223.76
102.696
139.278
969.224
201.806
87.3229
193.97
293.949
179.134
86.4426
194.405
400.614
189.878
74.1731
191.919
1002.19
188.615
73.5348
72.5326
358.6
306.831
73.6505
76.5161
515.513
377.259
314.608
123.771
1322.24
325.348
566.402
9402.12
92.8605
298.959
199.91
154.514
86.4861
156.147
48.7319
62.1116
140.482
98.4983
261.241
92.3634
59.512
88.987
30.6228
93.1117
56.8697
34.2732
585.695
2263
218.13
48.0326
72.2013
48.2019
76.9408
28.9435
63.836
55.7024
45.3488
194.949
41.2028
1120.79
62.5687
99.3703
2948.17
42.4949
65.4019
70.9355
50.1585
73.252
65.0837
38.9605
205.934
586.997
42.0628
57.4298
434.89
1140.87
398.148
163.774
582.68
250.51
186.5
133.733
133.961
125.08
137.274
2188.88
419.631
144.332
4448.51
501.958
102.578
106.766
106.094
109.632
171.571
1208.38
231.741
137.234
127.255
113.684
425.149
385.844
422.192
104.137
98.2349
107.912
100.909
144.045
139.818
93.9308
193.677
1081.65
226.97
128.462
113.396
110.483
107.869
112.065
108.025
425.474
366.524
106.168
97.32
113.823
1686.26
192.533
892.555
181.336
111.365
101.062
102.872
101.46
105.245
109.152
109.71
106.508
102.001
100.762
100.425
107.98
171.343
316.987
500.511
367.306
338.11
359.098
351.129
425.163
106.278
110.152
103.196
102.88
101.947
109.86
122.403
125.007
122.596
214.571
618.822
389.526
332.2
328.918
233.815
287.978
455.617
362.822
97.2259
103.955
101.932
109.989
118.093
123.638
148.829
1063.3
892.815
181.351
496.297
298.236
211.81
202.232
195.821
360.122
259.793
311.172
368.473
371.772
96.2241
108.742
115.016
115.47
135.341
404.346
764.668
505.332
200.974
121.699
83.0758
129.209
204.312
202.513
149.772
203.966
176.999
157.354
85.1014
111.492
115.976
131.753
213.261
1103.4
1118.88
202.401
78.0486
122.965
83.0767
81.2951
80.9516
94.5202
134.425
173.297
181.973
100.648
94.2869
234.628
390.363
104.334
141.274
1010.2
372.027
103.26
68.0979
145.292
78.4396
74.8799
71.8514
76.0979
78.4341
91.3701
82.2834
84.6953
194.909
308.593
377.874
444.736
341.158
381.028
136.038
98.5926
206.404
85.437
77.4757
83.7176
76.5609
86.218
84.8035
73.6596
75.1549
116.926
289.067
351.255
385.334
1585.38
275.531
113.021
91.7682
59.6756
71.9301
81.028
79.8186
74.5634
75.7805
83.5753
81.2796
81.0893
73.7508
129.402
317.223
355.055
169.152
931.715
885.142
789.323
222.807
128.452
48.214
40.8498
74.9195
83.3422
76.1998
70.592
72.4396
71.3921
74.484
76.1682
90.2064
285.543
123.75
456.028
1013.55
177.715
91.1234
129.02
81.1563
76.2114
100.862
35.7839
75.7346
68.1939
75.4297
36.9126
38.515
83.3227
80.1814
85.8025
265.679
187.498
380.174
101.705
74.6004
50.4994
42.5789
67.0862
63.1796
62.9045
36.0884
43.0517
31.2931
29.4717
36.4159
51.4542
88.2907
125.763
121.745
908.044
1042.46
187.51
92.3962
65.1566
36.9632
30.5103
36.6313
55.8435
41.3614
43.0843
29.707
54.4581
49.2644
57.2684
67.5511
76.9471
316.502
787.627
271.68
89.8773
68.5306
74.8774
67.7214
39.8278
59.234
40.1864
28.3457
28.4395
29.2252
44.7754
53.413
75.0148
94.6402
81.5596
198.578
617.921
1007.03
799.546
252.173
100.667
82.7659
45.6955
58.0685
52.2054
43.145
35.8656
26.5344
28.2692
29.92
42.9576
85.4758
104.517
86.1264
351.55
350.275
108.912
117.476
78.2692
56.071
42.2383
43.8063
50.5735
43.3467
59.4278
48.4884
27.7189
32.5108
41.7501
52.0693
80.3942
194.731
880.953
125.776
76.1109
87.3346
47.9078
49.2291
42.6081
39.1022
55.784
68.7038
64.5129
58.2622
47.7387
43.659
44.4188
85.555
92.8075
227.884
346.819
87.4266
94.7708
70.7221
42.8512
33.4422
43.5544
37.1449
40.5153
47.5626
64.0498
60.1744
43.7979
67.4019
59.6006
95.7673
108.098
881.448
176.088
70.402
53.2015
38.1448
35.0868
30.4988
31.2806
56.8807
28.0625
27.8126
39.151
43.3316
70.7689
80.5384
107.271
103.299
201.425
1074.91
373.043
111.003
71.1036
45.4931
35.8807
31.3435
40.0394
36.2041
27.5568
28.5914
27.0311
28.4779
32.3277
41.861
106.501
62.4766
115.625
906.183
1031.14
161.14
69.5204
80.6985
44.0476
34.1779
31.3791
28.5674
27.3163
36.5806
25.6444
35.7374
36.1274
35.7085
41.7843
53.4905
90.16
210.747
347.663
93.5372
66.977
44.5006
35.8608
31.8917
30.0476
29.7478
36.7633
25.5722
25.5094
26.9671
42.673
49.5628
66.768
79.5175
110.735
898.424
1044.16
162.243
70.0494
54.2079
39.7292
33.3673
30.5321
29.1251
28.4976
28.3315
41.1773
35.7886
37.0805
33.0156
47.2775
58.771
113.138
189.793
812.545
99.7932
70.4596
49.1601
37.5974
32.492
29.8124
29.163
28.458
27.8167
27.7895
27.3033
28.6369
31.8378
40.842
75.8142
128.434
238.987
194.7
77.6315
73.5829
49.6954
37.0654
31.5714
29.8729
28.617
28.4209
28.1849
27.4561
27.7688
29.4431
33.0277
46.13
71.5757
101.309
416.617
172.292
96.5935
79.7799
46.0768
36.6754
29.881
27.5588
27.4755
28.417
28.5445
27.3935
28.0492
30.2063
37.3346
52.1734
73.7549
170.294
1017.93
1063.97
119.374
65.7998
64.1533
49.4434
34.0051
30.0536
26.5544
35.3917
34.2752
27.5329
29.8519
29.3941
31.0551
39.2244
79.6391
100.21
369.815
840.799
107.071
69.2445
44.3858
35.8373
31.2415
28.432
27.7567
25.5682
34.0779
29.0438
27.5058
31.4606
33.8692
39.7552
80.1585
104.298
962.551
215.031
89.5512
70.9158
45.0179
35.9093
33.1153
28.8532
27.4689
27.3608
26.8616
26.2391
26.3223
29.9354
33.5865
56.4286
62.8444
109.851
1001.43
202.162
77.3386
53.5446
40.2795
33.5956
39.0713
36.9854
25.6725
27.2303
27.1617
26.9372
27.8171
29.873
33.754
49.9742
70.4492
187.316
944.324
136.163
75.5018
52.5369
37.4774
32.2142
29.2837
37.2868
34.9497
25.1127
26.4509
26.9062
27.9799
30.0193
35.2885
67.799
87.4392
356.389
350.845
94.6422
80.6231
62.7053
37.707
29.9456
27.1126
25.7705
34.7333
34.6737
22.9764
26.3371
29.0285
30.6205
35.5305
68.0566
101.623
907.198
206.839
76.5445
53.5366
40.4821
33.3011
28.9197
35.7789
32.972
33.7455
25.1388
34.5405
28.751
27.2684
32.052
37.2664
70.4691
141.69
1038.48
962.208
121.501
70.5532
54.2466
38.7726
32.5534
28.4088
34.8467
32.2453
33.0727
33.0959
24.2522
32.4761
34.9643
31.4971
45.9104
66.8815
166.33
955.713
112.83
69.3622
46.9071
36.9147
32.0954
29.1267
27.1032
33.8945
33.8012
32.9571
29.7229
24.1283
29.0379
33.1823
46.2346
76.0677
332.626
940.762
111.959
70.0201
44.8024
36.2787
31.5676
28.9204
28.2908
27.4079
24.738
21.304
28.2201
29.3026
28.7445
38.7474
60.2899
88.0604
808.002
937.139
108.821
69.0902
44.4183
35.2171
31.5306
28.8346
28.666
28.1159
27.5202
25.5801
22.9067
31.5746
37.0478
40.2155
79.67
140.465
1036.57
205.869
93.6807
72.3531
46.3602
35.7863
30.6177
28.0434
28.0487
28.1076
25.9337
22.4547
22.5948
25.8548
37.6045
40.8927
73.8658
162.478
1064.4
185.872
77.5979
57.7739
45.471
36.4999
30.7284
27.6573
27.2497
28.4746
26.9706
23.8486
28.1064
33.4281
33.2932
40.6706
70.2065
158.244
1014.43
114.561
79.2756
66.8918
43.3523
37.0682
31.6715
27.0931
25.9284
26.7188
28.0768
26.5924
26.0773
35.7919
41.5327
51.6559
73.1889
172.613
893.414
111.366
71.2203
45.8953
37.9087
34.1656
30.8699
27.2218
31.8705
30.1162
25.7619
26.8181
27.7775
29.4134
34.0635
51.4341
69.2034
183.785
959.291
111.529
70.6227
44.8955
35.8917
32.7035
29.5554
27.8084
26.2991
33.6882
30.833
27.043
28.2999
30.5572
34.934
55.6494
72.8745
199.293
960.555
115.27
74.282
44.8891
35.0154
31.8736
29.0205
27.3457
27.6036
27.6766
27.1326
25.7518
27.9655
30.4916
37.6298
55.2035
80.6456
339.379
893.606
108.13
71.6277
44.4123
34.146
30.7969
28.5359
27.7013
27.3081
27.8478
27.2396
26.8292
28.196
30.5452
37.4439
70.0596
101.867
893.614
216.506
104.826
70.9666
45.3029
33.7493
29.3839
28.1064
27.4544
26.9725
26.4959
27.1217
27.1265
28.2981
30.5519
37.2032
66.5515
103.577
976.458
220.198
100.92
67.8383
43.467
33.5484
28.676
26.4118
25.9992
22.5899
21.727
22.6026
26.2791
28.8685
30.4479
37.2365
68.1723
101.652
943.929
1085
139.382
95.9597
68.3047
40.889
40.4276
35.8944
21.014
21.486
22.2412
24.0837
23.9647
25.784
28.794
30.7969
37.448
73.3806
112.565
929.46
971.812
107.068
69.2876
77.7723
41.6578
30.5281
35.1434
27.816
22.5592
22.3347
21.8869
21.3976
23.6397
32.2716
32.2806
39.1705
75.7025
149.408
111.625
68.5873
41.8156
33.368
29.5825
27.4132
24.4976
17.5773
20.396
22.0839
20.9606
20.144
25.9879
30.9636
48.1136
64.815
158.55
905.725
109.421
66.0255
37.9633
31.1289
28.9815
27.5631
26.5139
23.795
22.5565
19.5928
19.281
23.3959
25.7117
32.5458
50.6457
70.9895
198.869
945.437
100.802
72.5028
36.0483
30.033
28.8718
27.0991
26.321
26.0422
23.9619
22.7307
20.8713
23.1928
25.8426
31.5203
48.8111
75.6963
341.269
1042.37
98.4911
79.7651
36.5007
29.2946
28.1539
27.0438
24.6441
20.9685
22.0211
23.2724
24.8899
27.5286
26.8447
32.7964
50.8014
81.1773
754.349
91.8924
87.5351
38.1671
29.6805
27.5875
27.3486
26.6115
21.6423
24.7879
26.3222
23.7337
25.8243
27.9773
34.5537
62.0588
98.2057
856.069
659.989
116.367
36.1466
30.4815
27.8907
27.1179
27.0291
26.1872
20.9449
23.9009
25.1681
27.3864
29.317
36.774
64.2918
101.73
954.829
2073.47
245.972
73.2362
49.762
29.7709
28.6487
27.6157
26.5803
25.0341
25.1113
21.6867
27.2773
25.908
30.4385
42.0996
66.6812
117.564
1003.58
194.664
58.7173
59.6938
39.6232
28.7694
28.7786
28.4485
26.2626
22.111
25.3314
25.8669
23.9933
25.8612
29.2987
44.1809
69.8415
178.981
180.378
95.773
46.5702
31.8123
27.8124
27.697
29.0002
27.9629
24.7417
26.1951
24.9807
31.222
27.8575
31.9351
46.6639
72.7466
194.973
1087.59
151.7
77.8731
44.3111
40.6677
40.7806
39.9313
36.381
26.4365
24.0143
20.7433
20.2305
23.939
26.4625
34.1545
61.407
87.4359
756.411
859.169
105.702
68.2561
36.1466
37.3651
38.4346
78.5033
65.8237
33.3087
20.5436
25.1316
27.9469
23.7449
28.3834
38.9771
77.8152
95.447
885.996
731.573
74.1617
101.034
53.0412
37.3115
36.0319
33.3091
45.0976
84.9819
32.8064
24.3182
28.1752
33.5378
34.5472
42.5217
83.8004
98.3036
896.658
346.876
69.2661
69.9036
43.9237
34.5208
34.3646
38.0202
27.6814
29.1998
48.5481
32.4087
34.1697
36.6859
37.0602
43.2487
81.2181
106.009
933.399
916.034
155.925
70.4103
52.0091
45.1458
32.682
24.2194
17.0648
29.0358
50.8193
38.3598
35.3402
35.5491
36.5612
29.2389
41.8407
78.5187
225.3
941.299
805.038
83.0803
88.7256
50.3654
44.1078
33.0112
17.8457
9.3702
14.2352
30.3163
40.7148
27.7721
28.4815
29.3208
32.1764
38.7648
62.4925
113.149
969.965
140.61
67.6768
46.7485
42.1637
30.2666
17.0653
9.74084
11.5467
18.5904
30.5476
24.7699
28.3611
30.2382
33.2889
52.706
61.914
156.638
1092.8
170.931
69.0133
63.1214
47.4818
29.3853
11.5741
11.2326
19.1554
18.9691
26.3152
31.0887
27.9663
30.341
33.3731
51.0634
69.219
193.566
176.307
73.9895
68.163
54.5326
31.9757
14.6751
8.74526
14.1701
24.0398
23.6867
30.5665
26.4033
30.556
33.5253
52.8682
73.3879
337.459
149.914
133.655
78.4033
52.4646
34.5052
11.8829
8.93928
12.0447
16.6475
22.7651
28.2599
25.6345
30.3476
37.214
52.2267
77.9591
769.807
855.455
93.616
81.2882
65.1664
46.2562
31.7193
18.2701
10.5914
15.1526
20.3401
28.6229
32.0877
34.7929
33.7026
39.6106
72.3912
103.607
872.458
810.543
101.53
86.1049
64.9489
48.4858
30.7333
12.0292
12.4094
16.9879
25.9619
31.4083
35.4851
39.5146
33.0444
45.3158
66.1107
170.529
753.939
85.4355
60.7281
56.2865
47.9387
32.7992
16.1398
10.5449
14.7639
24.7515
34.1709
35.579
28.9135
32.3755
44.147
70.2667
203.573
771.037
88.1186
62.3549
55.5682
51.4947
32.3972
12.2849
13.8945
23.6136
30.7284
33.5159
35.9215
28.6344
32.9975
46.3792
75.0069
204.154
786.26
94.5288
62.9837
50.9767
50.9398
38.8685
14.7051
14.6576
21.578
30.9981
34.0261
35.6811
28.9531
34.3233
52.4862
81.0306
759.568
794.625
95.6726
63.8793
55.1546
51.0964
41.2467
32.8513
18.7129
20.4614
33.6691
36.3359
36.2083
28.5586
33.6911
63.3021
100.438
864.186
210.588
94.9074
109.398
58.6087
42.2897
30.1384
27.4405
30.4498
33.8918
34.643
36.5546
28.4712
28.8163
33.3363
63.3986
103.984
939.561
262.297
195.625
58.3034
35.3143
25.8128
13.3467
18.6506
29.4557
35.177
35.6645
28.2517
30.2995
38.5153
71.3563
140.248
1072.19
244.905
109.818
80.7959
41.4328
13.3935
11.5418
15.092
27.4682
33.9874
35.6745
37.2678
30.4153
40.5196
67.0923
176.857
205.952
180.905
108.147
80.5348
48.4628
14.189
11.7215
16.2447
24.4078
33.9733
34.9255
28.5476
32.9835
47.8896
68.2204
197.481
223.733
82.7334
75.45
90.5317
65.1631
33.0345
14.8403
17.7046
30.3496
36.5321
36.9883
39.2669
39.3428
64.7548
89.1793
745.61
226.915
86.383
92.7962
82.324
77.3807
80.7744
42.5978
36.7467
36.8686
39.7311
39.1853
50.8363
63.0606
107.07
112.632
937.133
1069.23
203.544
102.118
62.7747
69.1108
78.4832
80.2402
69.7174
48.8707
70.197
81.7971
66.6756
41.9841
69.8
122.383
379.834
1115.27
133.492
77.7306
80.5402
37.4766
72.0225
73.9579
71.6676
39.8761
44.2184
57.7353
71.0711
80.7326
86.9804
179.191
159.003
883.233
125.745
87.9578
85.1879
37.4215
67.3269
58.6938
64.0248
58.264
47.3898
65.5916
73.1262
79.1316
95.028
233.654
706.522
203.619
88.2854
297.851
74.8987
65.8243
36.5485
47.9412
44.3768
43.3317
43.2227
45.7056
46.642
65.9473
103.807
209.073
3972.41
210.799
442.19
204.175
82.0258
80.0741
60.8324
51.7121
76.1597
83.0008
61.0025
42.6871
63.2932
78.4928
109.668
199.706
686.537
952.794
523.3
223.506
92.4964
66.2645
73.6179
50.204
47.5102
63.8992
79.8824
73.1211
75.5506
128.222
122.369
228.896
1070.11
118.34
342.865
135.079
81.6091
65.4851
48.0143
55.9187
73.8162
76.7889
75.2091
80.4538
75.2559
118.877
150.472
1295.28
1059.78
133.464
89.865
268.248
192.401
81.181
46.5491
50.2667
72.5722
75.839
76.4617
86.7761
102.422
89.8749
223.614
1128.03
468.219
128.595
92.6923
373.364
230.434
96.479
56.9689
61.1651
75.5366
77.9318
79.6036
112.562
76.4991
97.8132
230.836
1017.64
438.186
362.448
268.673
196.082
71.6366
72.0014
72.4405
82.2784
86.6663
135.137
92.1231
144.824
1027.53
596.293
408.726
346.873
292.377
143.341
216.741
80.3901
75.1816
83.4618
112.691
76.7711
100.396
220.281
1042.92
119.591
91.7903
384.996
294.665
99.098
225.14
307.897
87.676
92.6834
129.784
94.5844
124.992
417.204
1099.86
127.425
96.7396
391.806
365.244
193.05
102.532
147.777
232.069
253.325
250.639
102.786
138.399
1076.91
1023.79
126.564
429.568
382.597
392.22
274.29
138.705
172.604
99.1894
250.155
392.86
105.535
146.176
1162.13
1086.85
124.776
444.096
381.669
391.79
364.467
140.48
117.339
81.1033
157.927
399.041
110.166
218.491
1212.51
1037.38
133.088
100.843
403.213
366.767
400.591
436.65
110.433
94.2705
246.274
107.716
123.96
223.053
1319.05
1315.6
1027.21
102.142
97.4277
382.71
380.251
496.421
321.17
144.448
259.086
406.782
128.672
241.602
104.505
410.998
367.435
374.564
95.0464
406.457
415.837
437.78
413.512
105.318
95.0154
364.885
442.151
112.63
132.721
197.852
1054.65
6163.49
479.13
93.6343
383.753
419.252
140.599
281.425
2697.18
1976.21
380.203
661.952
132.114
154.367
1038.48
360.013
650.016
133.792
147.049
466.494
709.371
486.366
153.189
130.677
172.892
1036.47
1031.81
190.468
1822.73
698.291
416.276
229.784
109.385
104.972
133.108
135.5
536.918
175.828
114.738
257.918
573.112
1365.76
1187.84
6309.58
367.035
1367.48
502.113
509.368
1243.23
479.487
298.872
212.527
204.71
200.103
207.679
224.938
398.802
1245.86
472.994
276.684
194.985
183.537
166.056
154.037
157.464
176.125
189.448
209.525
223.956
250.711
280.049
294.37
1142.18
427.302
200.62
176.139
155.503
150.18
147.492
145.979
148.612
149.002
163.552
167.247
172.546
199.456
235.706
258.774
284.981
301.807
330.858
463.092
565.212
1135.58
834.258
389.842
180.415
159
153.977
141.176
133.101
132.743
138.197
143.049
146.939
147.138
149.874
145.511
466.021
492.554
206.423
240.563
248.673
282.947
302.879
362.869
771.821
424.643
213.042
153.216
138.536
124.322
120.699
123.868
122.541
123.669
123.92
129.623
137.511
146.451
145.562
143.681
141.524
137.228
429.464
492.075
177.174
221.227
249.206
289.907
353.738
1432.99
305.798
113.798
85.2136
81.6427
108.029
113.519
359.648
437.663
504.776
93.4936
115.938
122.735
117.258
124.668
125.58
139.559
138.681
126.206
122.13
405.536
477.267
172.357
216.428
279.025
643.408
1367.07
286.916
123.945
103.286
57.116
65.6189
63.892
89.8829
121.365
101.961
91.8977
205.894
101.915
111.888
576.47
129.503
543.294
119.461
132.825
136.378
136.878
451
482.042
209.382
545.474
1130.31
229.774
164.66
98.128
41.7384
36.9557
38.5451
60.4709
51.5398
62.1881
105.191
98.8181
89.1581
88.6982
177.08
246.029
182.656
122.472
221.885
126.452
133.991
134.101
138.704
167.659
426.336
312.707
1225.19
224.096
130.237
96.0731
80.6768
42.3223
37.1427
36.6275
37.5191
51.024
51.3059
50.6754
87.8188
89.1956
85.3098
88.9377
84.2805
96.6774
95.8098
136.86
98.885
127.961
146.894
244.239
468.838
964.091
289.957
102.258
98.6767
107.6
63.932
66.9866
39.0322
35.3021
35.205
49.8153
44.2246
34.7452
35.8958
35.1649
36.7999
38.7343
41.8386
58.0724
80.0401
151.164
123.524
129.842
118.549
140.064
401.534
992.8
151.829
83.0187
114.063
80.6706
56.2309
60.8707
32.5338
41.2696
41.6752
46.4382
45.6642
43.6704
41.9268
42.6875
35.5973
34.6392
36.1721
39.3651
45.3971
71.7362
100.178
466.617
432.853
543.478
4369.83
665.593
1258.56
215.165
93.7739
59.3312
48.8044
41.416
45.2443
40.7898
41.3979
43.2663
44.9563
45.3274
44.0114
43.5181
44.6769
44.0407
38.0468
38.0198
41.5868
48.2288
63.6713
80.4635
452.632
1517.82
1154.88
246.832
95.1173
55.5958
45.4593
53.7972
44.4589
33.4279
32.9243
36.2984
39.5762
43.7529
44.5551
40.4156
41.2391
45.3368
46.0761
45.1161
44.5576
47.6557
60.7263
74.8218
119.262
328.328
348.988
117.108
148.512
115.181
86.1744
49.7951
40.5878
56.6787
39.0568
34.0825
30.7396
28.8616
30.4417
26.2243
34.5462
33.0703
33.9976
40.6411
45.7414
51.3236
64.9505
68.4718
70.9983
112.518
352.081
328.883
121.245
87.2422
82.2165
59.4199
55.2357
50.1874
46.5112
38.786
42.7982
34.1244
32.9891
32.3051
23.2524
23.2267
29.7615
31.3624
35.2497
39.8844
47.3319
59.9648
74.6565
130.763
102.415
344.62
293.156
101.488
106.984
86.3283
61.0659
50.0857
45.3302
41.2859
37.8276
32.6546
31.8643
37.753
35.2522
37.71
25.4035
23.5148
27.5242
31.0609
37.2891
43.867
49.4812
68.2969
99.4431
162.149
714.87
1036.65
283.5
99.4036
94.975
63.8433
54.8967
49.0966
44.8983
38.4994
31.128
28.1314
26.051
24.8025
27.9894
36.5846
38.6397
37.043
32.1658
30.0839
29.6885
26.0471
39.522
54.6625
81.2541
155.047
307.166
1013.87
277.123
92.2165
90.2011
59.8182
46.4994
39.8183
34.718
32.621
29.3702
24.3778
21.9457
21.5693
21.3901
21.9402
24.6791
26.6714
30.0638
35.602
39.2434
27.6408
27.5325
40.9403
64.3848
139.978
337.149
904.662
171.275
87.9848
95.0483
59.6883
43.5476
34.8853
29.1662
25.6358
23.4662
22.9418
22.1852
21.037
20.4592
20.4485
20.6393
21.1092
22.1691
22.4841
24.6602
36.0641
38.1676
38.9262
74.1176
91.935
226.228
1216.62
1103.29
184.889
83.7666
65.6319
52.9595
43.9856
35.7926
27.1493
22.7514
20.851
20.0652
20.4006
21.2199
21.1162
20.968
20.8972
21.3247
22.6594
24.3188
28.0749
25.8916
34.7136
46.7545
68.4043
101.731
104.505
1394.32
305.684
89.7638
94.6569
59.1633
43.8725
37.9719
29.867
23.1306
20.1899
19.236
19.1888
19.5195
20.1276
20.7112
20.8678
21.0627
21.5804
23.4057
28.4136
39.5693
43.6443
54.1134
75.1019
105.83
105.835
325.811
349.926
114.798
78.0864
57.572
46.2291
38.6411
31.3571
25.2822
19.9953
18.3968
18.5347
19.1542
19.5899
20.1316
20.7102
21.2085
21.5866
22.0249
23.2181
27.7738
37.5578
44.4929
54.2093
88.1416
103.582
339.843
879.43
153.672
76.5395
67.7542
49.3161
40.6092
32.9043
26.0045
21.1264
17.9771
16.3929
16.5127
17.6887
19.0384
19.8296
20.595
21.3433
22.1447
23.1285
24.9017
29.1694
38.677
53.1331
71.0569
83.0425
291.324
297.006
88.3252
61.8406
44.6674
37.9092
30.4344
23.5979
18.4013
16.2811
15.2835
14.3839
14.0816
15.0112
16.6362
18.2829
19.5954
20.7281
21.9406
23.6471
27.6029
33.5186
40.9188
69.0946
111.754
186.062
348.887
99.8535
91.2147
53.4122
37.7037
29.472
23.5759
16.696
13.1204
12.0997
12.0707
11.7742
11.5635
12.3592
14.098
16.2108
18.201
19.6939
21.4955
24.9064
31.177
39.5257
49.8121
70.5982
95.911
704.093
824.598
139.604
77.4334
63.9809
39.8666
30.5533
23.8271
18.8689
13.6439
10.4528
9.21538
9.14885
9.52091
10.016
10.7651
12.4289
15.0306
17.5807
19.5642
22.3103
26.9423
37.5594
49.2213
66.7927
80.9713
293.753
828.982
150.906
78.3198
70.0581
45.3615
34.1146
25.1395
19.614
15.6092
12.3631
9.894
8.49879
7.85679
7.95464
8.73741
10.2531
12.354
14.9165
18.0614
22.2683
27.853
38.2707
45.6172
72.8838
115.539
159.486
959.523
304.708
94.2519
70.9116
48.2033
39.398
29.5253
21.659
16.8115
13.9595
11.6496
10.0003
8.99588
8.37811
7.98237
8.44841
10.2082
13.4085
17.5668
22.0036
29.1679
37.8263
51.499
75.0136
115.346
141.905
795.814
670.685
121.324
93.0913
54.2853
41.1415
33.508
25.9043
19.4825
15.2756
12.8999
11.1191
10.0565
9.66365
9.2899
9.11497
9.24044
10.5759
13.8765
19.1655
26.9467
34.4743
44.1875
75.7423
112.17
138.411
784.26
161.37
76.1947
52.212
39.6367
31.9716
27.8597
20.8096
16.8948
14.0084
12.5607
11.1549
10.166
9.91367
10.3234
10.5377
10.8566
12.0765
15.5946
22.2274
29.4601
37.7707
52.3039
72.2084
124.283
779.066
666.807
90.3346
62.2063
42.3582
32.4594
25.608
20.9411
18.0295
14.7331
13.1582
11.8612
11.1359
10.3403
10.178
10.9605
12.4725
13.8964
15.0637
19.6639
26.1449
35.8648
48.2811
73.3802
114.535
277.156
171.762
78.0788
52.8815
39.1755
28.0854
21.0801
16.8741
14.4719
13.3876
11.9866
11.4684
11.1171
11.0483
10.6272
11.0766
13.069
16.5763
20.7916
25.9999
36.3681
41.2923
65.4572
110.297
147.2
819.474
833.972
122.892
67.7734
48.2414
37.3438
25.8495
18.8399
14.6143
12.461
11.5397
11.0153
10.6834
10.8965
11.2338
11.6834
12.1013
13.9829
17.6892
21.833
28.0819
37.6241
50.7414
65.4191
89.1557
728.69
241.528
86.9733
67.395
48.5
35.6316
25.1841
17.4304
13.2796
11.4521
10.4515
10.0023
10.0692
10.4391
11.2725
12.6774
14.7255
16.5779
19.9326
24.478
30.386
39.5689
56.3497
98.8217
166.432
1091.97
626.783
84.5527
59.323
44.1798
36.1506
30.7906
20.8822
15.1025
11.6478
10.2723
9.40632
9.09051
9.18324
9.91322
10.9574
12.477
15.336
19.2773
22.6478
27.115
32.9187
42.7174
78.4979
137.82
783.101
135.311
89.5642
52.0433
40.0081
31.9527
25.4228
19.972
13.6196
10.3944
9.07968
8.52831
8.34659
8.62414
9.28079
10.7164
12.5827
15.0951
18.7557
23.7259
30.6071
39.8268
56.8238
74.93
306.414
609.616
86.4503
56.9669
39.1122
31.7294
26.6496
22.7379
18.2526
13.9715
10.6097
8.80245
8.21557
8.19496
8.44792
9.11791
10.6501
13.1269
15.8281
19.7301
24.9244
32.0398
44.0206
79.2635
136.501
884.485
160.959
72.7811
47.1581
35.7595
28.1807
23.4984
19.7655
16.0032
13.2188
11.3054
9.70141
8.70798
8.59421
8.96281
9.72802
11.2349
13.8716
17.8414
21.6278
27.3499
36.2198
56.1095
86.366
290.388
618.073
84.8668
58.3173
41.3628
31.6912
24.9656
20.1899
16.7031
14.0462
11.8856
10.9158
10.5609
9.85912
9.63877
10.1121
11.4055
13.2967
15.645
19.3663
25.3878
31.6167
43.6526
59.8871
94.9331
777.505
160.686
72.6039
47.9675
36.7553
28.5172
22.5724
18.2212
15.0831
12.7821
11.089
9.97133
9.8146
10.1345
10.432
11.0896
12.5576
15.4229
18.8844
22.0378
27.1292
37.3409
59.0074
95.1554
169.046
634.605
85.6512
60.112
41.6426
32.2918
24.8363
20.1507
16.6195
14.0071
12.1898
10.7288
9.741
9.26043
9.53584
10.4728
11.8877
13.3559
15.7436
19.497
24.6007
30.5349
42.7375
59.0306
85.6705
738.542
166.748
70.0101
48.9045
39.321
29.451
22.3702
17.8323
15.0087
13.0994
11.8049
10.8643
9.89734
9.35397
9.45046
10.3686
12.2427
14.8567
17.0313
20.0909
25.2632
33.699
43.4514
93.0035
162.865
132.378
88.5494
48.8647
36.6103
27.6012
20.8716
16.4867
13.8435
12.3118
11.3661
10.7946
10.4611
10.0776
9.97694
10.7107
12.5507
15.6051
18.9709
22.2924
27.986
39.017
59.1854
75.5082
605.657
658.716
81.5888
55.4003
40.4774
32.7504
26.1015
19.9785
15.5754
13.0569
11.7416
11.0407
10.6256
10.428
10.4874
10.7248
11.4147
12.9865
15.7748
20.3887
24.6988
29.9587
42.777
90.1796
141.233
899.972
623.887
86.0666
49.5546
36.2945
31.0407
25.4946
19.3599
14.7787
12.3414
11.2221
10.7276
10.5312
10.4617
10.5781
11.0335
11.9794
13.6296
16.2165
19.6358
24.5056
31.1325
43.2107
92.6193
560.099
271.342
79.9437
46.9401
34.1863
27.2747
22.992
18.2176
14.045
11.6307
10.5653
10.247
10.3443
10.5154
10.7255
11.2625
12.381
14.3419
17.2151
21.1627
26.5956
36.3107
54.9754
103.23
692.894
133.634
85.4714
46.3513
32.3439
25.1194
20.263
16.4627
13.3128
11.2167
10.1221
9.69359
9.75945
10.3512
10.9594
11.5539
12.6837
14.7738
18.1388
22.9918
30.4199
40.2535
77.2612
155.104
631.731
93.2691
64.2763
39.0796
29.5118
23.3517
18.5597
14.9584
12.4306
10.8483
10.0103
9.60945
9.51036
9.81752
10.7352
11.8106
13.113
15.126
18.4467
23.893
32.6932
56.9984
76.4197
630.524
286.196
79.6585
46.9643
34.0209
26.9204
21.8762
17.6026
14.157
11.7733
10.4089
9.81824
9.68221
9.73519
9.95769
10.5504
11.6852
13.3276
15.8988
19.2221
24.4801
35.2447
57.6474
109.038
878.674
128.879
88.9877
48.331
33.7957
25.7768
20.2493
16.3915
13.4723
11.2843
9.83706
9.34823
9.42529
9.73861
10.1827
10.8066
11.8292
13.4446
16.055
20.1576
26.6429
38.3594
68.6866
147.481
667.269
84.6633
56.0407
38.1698
30.7819
24.5559
19.2372
15.1509
12.4325
10.6693
9.49187
8.82187
8.84837
9.3548
10.0492
10.9044
12.0601
13.8633
16.7082
21.2428
29.2468
40.2817
79.4807
284.702
280.165
77.8596
46.6573
36.8526
28.6571
22.9984
18.3699
14.3347
11.5088
9.75595
8.81556
8.39864
8.30931
8.69753
9.65989
10.8188
12.1742
14.1119
17.2406
22.0675
31.9837
57.0856
75.7337
613.614
174.041
66.3032
43.7714
32.9586
25.8616
20.7737
16.7823
13.4949
10.9327
9.11895
8.0564
7.70518
7.89582
8.29321
9.10001
10.5409
12.3423
14.5861
18.1582
24.1364
32.5127
60.237
114.493
893.547
139.425
94.1178
47.026
32.4208
25.2539
20.0231
15.9729
12.9455
10.7345
9.05653
7.81744
7.18509
7.2404
7.9157
8.94802
10.4377
12.5429
15.5314
19.7392
26.6079
40.7656
59.6817
127.078
829.609
88.3622
54.2491
37.9788
29.7804
23.7029
19.2818
15.5829
12.7192
10.765
9.40349
8.26156
7.35476
6.97449
7.36917
8.62162
10.5132
12.967
16.5269
22.2128
30.7025
42.2753
91.5709
271.267
645.21
81.3876
56.2671
38.2606
29.7853
23.5157
18.7532
15.3436
12.7165
10.8827
9.72359
8.84909
8.06728
7.45895
7.44435
8.40781
10.5269
13.6838
17.8824
24.2779
33.8442
61.3521
79.5178
653.458
591.767
83.7796
49.9468
38.448
30.1958
23.6296
18.4969
14.967
12.7465
11.1999
10.1102
9.2813
8.64557
8.23451
8.19645
8.92622
10.8575
14.4065
19.6847
26.7828
39.7505
56.3612
123.633
177.298
67.7369
43.1009
33.4545
28.6255
23.5971
18.4232
14.556
12.3589
11.2743
10.5199
9.75422
9.01388
8.51439
8.64028
9.56459
11.5332
15.1207
20.9002
29.1723
43.6113
86.8772
167.702
169.74
65.2322
42.7163
34.155
27.0988
22.3775
18.2408
14.4431
12.0072
10.9477
10.5386
10.1743
9.65618
9.15696
9.10728
10.0334
12.1449
15.6068
21.4234
31.2119
43.5278
93.239
565.925
142.369
94.9301
47.9569
32.3328
25.356
21.2381
17.6006
14.4305
11.9976
10.6018
10.1452
10.0777
10.0694
10.0033
10.1602
11.0483
13.1269
16.5811
21.818
31.1256
57.0729
91.7925
602.774
139.28
62.9216
40.2823
30.7583
24.2722
19.6592
16.4195
13.9316
11.9606
10.527
9.7126
9.58817
9.87811
10.2164
10.7714
11.8539
13.9461
17.3679
22.4599
31.7091
49.8392
98.3368
737.347
130.686
61.2251
39.6104
30.4309
23.8897
19.0054
15.4835
13.104
11.5393
10.5567
9.83136
9.39246
9.49454
10.1163
10.8922
12.1581
14.2896
17.6105
21.9726
30.6354
52.5144
84.3286
839.438
802.792
92.7824
56.1579
38.7412
30.2058
23.6061
18.4951
14.8671
12.4698
11.0063
10.2357
9.84777
9.62123
9.57617
9.9385
10.854
12.2874
14.5854
18.0051
22.7831
29.7088
49.3384
113.545
620.589
87.8341
64.6138
39.5673
29.788
23.0488
17.8445
14.228
11.9683
10.5821
9.84691
9.55847
9.53811
9.66701
10.0162
10.8333
12.2854
14.6035
18.2347
23.7583
31.552
52.0017
120.903
609.988
84.003
46.5091
33.6374
27.2016
21.8347
16.9762
13.3578
11.2319
10.0839
9.34591
8.98857
9.03659
9.39505
9.93905
10.7972
12.2411
14.5465
18.0632
23.7731
34.5772
52.7056
127.693
279.785
76.2754
44.4726
32.8486
25.8868
20.6698
16.2438
12.4923
10.1852
9.05025
8.42379
7.9078
7.86576
8.43277
9.44452
10.5841
12.1184
14.4992
18.0256
23.6337
34.9623
69.9478
172.565
172.082
65.1912
41.4366
31.1256
24.7564
19.8031
15.663
12.1614
9.34105
7.72432
7.04473
6.74751
6.5763
7.04833
8.27371
10.0531
11.9344
14.4908
18.2648
23.7754
35.5362
71.2549
540.231
175.935
65.7367
41.4509
30.3808
23.5439
18.8373
15.0409
12.0493
9.5548
7.33602
5.95509
5.48097
5.58307
6.15791
7.36328
9.31792
11.7673
14.6231
18.826
24.8373
36.1367
74.511
574.905
144.462
65.14
41.6474
29.8351
22.5794
17.5779
14.1447
11.7015
9.86179
8.12372
6.24985
5.09643
4.90117
5.48716
6.90147
8.98573
11.6274
14.9643
19.4892
27.0419
37.7108
75.9933
603.61
131.675
61.7217
38.0416
27.6155
21.0412
16.4383
13.3616
11.3256
9.88745
8.71299
7.38519
5.87027
5.06149
5.25381
6.50427
8.70773
11.5926
15.2971
19.9377
28.466
47.1728
77.3166
669.806
137.154
61.4578
36.3954
25.4567
19.1784
15.1681
12.6233
10.9679
9.74454
8.80918
8.05437
7.19491
6.21633
5.9498
6.76461
8.74354
11.5474
15.3236
20.7202
28.6299
50.3753
109.47
861.602
128.443
64.3422
38.756
25.4346
18.0497
14.1142
11.9632
10.646
9.60665
8.5908
7.77723
7.47815
7.39801
7.29835
7.85373
9.42001
12.003
15.5058
20.6332
29.7374
51.0045
119.968
791.523
84.2729
58.175
41.0257
25.1121
17.2725
13.3776
11.4472
10.3546
9.5583
8.73054
7.71527
7.07626
7.23804
8.03233
8.97427
10.4059
12.73
16.1377
20.8102
28.8995
50.9554
122.925
608.425
101.127
58.4967
32.9138
21.8229
14.9786
12.3678
11.0127
10.1229
9.42724
8.83426
8.21195
7.43614
7.13153
7.81556
9.29837
11.0665
13.4685
16.9189
22.0142
29.4051
49.0628
128.821
615.139
82.8512
45.576
29.9228
20.4509
13.7754
11.0054
10.2597
9.82448
9.25066
8.62997
8.15116
7.91721
7.75727
8.07996
9.31774
11.297
14.0399
17.8141
23.4241
33.7928
52.4509
120.182
288.411
78.5294
44.5132
30.675
20.989
13.8964
10.5938
9.53812
9.28585
8.96892
8.36144
7.66231
7.36198
7.69738
8.48188
9.61473
11.4703
14.4056
18.8005
25.0234
36.4785
67.6009
148.808
164.916