/*--------------------------------*- C++ -*----------------------------------*\
| =========                 |                                                 |
| \\      /  F ield         | OpenFOAM: The Open Source CFD Toolbox           |
|  \\    /   O peration     | Version:  2312                                  |
|   \\  /    A nd           | Website:  www.openfoam.com                      |
|    \\/     M anipulation  |                                                 |
\*---------------------------------------------------------------------------*/
FoamFile
{
    version     2.0;
    format      ascii;
    arch        "LSB;label=64;scalar=64";
    class       volScalarField;
    location    "160";
    object      p;
}
// * * * * * * * * * * * * * * * * * * * * * * * * * * * * * * * * * * * * * //

dimensions      [0 2 -2 0 0 0 0];

internalField   nonuniform List<scalar> 
404911
(
5.76786
5.76807
5.76912
5.76898
5.76738
5.76787
5.76884
5.76899
5.76899
5.76899
5.7666
5.76598
5.76618
5.76707
5.76787
5.76869
5.76558
5.76586
5.76591
5.76626
5.76466
5.7651
5.76523
5.76422
5.7643
5.76219
5.76412
5.7643
5.76488
5.76348
5.76381
5.76399
5.76412
5.76484
5.76307
5.76339
5.76375
5.76225
5.76251
5.76272
5.76286
5.7618
5.76201
5.76226
5.7625
5.76241
5.76157
5.76178
5.762
5.76222
5.76108
5.7613
5.76153
5.76185
5.761
5.76113
5.75935
5.76709
5.76681
5.76731
5.76618
5.76667
5.76572
5.76578
5.76589
5.76492
5.76539
5.76551
5.76437
5.76449
5.76408
5.76421
5.76437
5.76363
5.76387
5.76415
5.76429
5.76305
5.76334
5.76256
5.76281
5.76204
5.76227
5.76255
5.76157
5.76183
5.76103
5.76132
5.76161
5.76085
5.76111
5.7593
5.75912
5.75938
5.75835
5.75863
5.75892
5.75778
5.75801
5.75833
5.75726
5.75751
5.75775
5.75726
5.8026
5.80305
5.80357
5.8007
5.80135
5.80137
5.80219
5.80239
5.80281
5.80318
5.80372
5.79971
5.80006
5.80098
5.80146
5.80193
5.80226
5.80268
5.80311
5.80447
5.79857
5.7989
5.79931
5.79963
5.79991
5.80023
5.80073
5.80124
5.80169
5.80208
5.80246
5.80297
5.80361
5.80413
5.80448
5.80475
5.79775
5.7981
5.7985
5.79883
5.79919
5.7995
5.79981
5.80016
5.80053
5.80095
5.80138
5.80179
5.80224
5.80269
5.80439
5.79679
5.79719
5.79766
5.79802
5.79841
5.79877
5.7991
5.79942
5.79976
5.80008
5.80041
5.80076
5.80114
5.80155
5.80191
5.79605
5.79659
5.79696
5.79741
5.7978
5.79826
5.79867
5.79904
5.79935
5.79965
5.79998
5.80029
5.80063
5.80096
5.80136
5.80185
5.79518
5.79538
5.79568
5.79626
5.79672
5.79716
5.79761
5.7981
5.79854
5.79897
5.79923
5.79955
5.79985
5.80015
5.80049
5.80084
5.80119
5.79376
5.79417
5.79445
5.79486
5.79518
5.79561
5.79609
5.79646
5.79687
5.79737
5.79796
5.79843
5.79878
5.79908
5.79938
5.79967
5.8
5.8004
5.79304
5.79349
5.79383
5.79424
5.79458
5.79496
5.79539
5.79586
5.79632
5.79669
5.79716
5.79775
5.7983
5.79858
5.79887
5.79915
5.79955
5.7998
5.7921
5.79242
5.79272
5.79315
5.79361
5.79402
5.79436
5.79469
5.79514
5.79561
5.79609
5.79649
5.79696
5.79749
5.79801
5.79839
5.79861
5.79892
5.79148
5.79187
5.7922
5.79251
5.79292
5.7934
5.79376
5.79411
5.79451
5.7949
5.79539
5.79585
5.79625
5.7967
5.79715
5.79764
5.79805
5.79069
5.79098
5.79127
5.79156
5.79197
5.79236
5.79273
5.79313
5.79348
5.79384
5.79427
5.79473
5.79519
5.79565
5.7961
5.79653
5.7969
5.78996
5.7903
5.79051
5.7908
5.79105
5.79137
5.79179
5.79221
5.79256
5.79288
5.79322
5.79362
5.79408
5.79451
5.79492
5.79541
5.79586
5.79628
5.78892
5.78911
5.78967
5.79005
5.79045
5.79063
5.79089
5.7912
5.79159
5.79197
5.79232
5.79267
5.79303
5.79345
5.79389
5.79431
5.79476
5.79518
5.78818
5.78847
5.78872
5.78906
5.78941
5.78989
5.79028
5.79049
5.79072
5.79105
5.79144
5.79184
5.7921
5.79245
5.79287
5.79323
5.7936
5.79414
5.78761
5.78798
5.78828
5.78854
5.78879
5.78918
5.78968
5.79003
5.79033
5.79059
5.79093
5.79134
5.79167
5.79198
5.79235
5.79271
5.79314
5.7934
5.78693
5.78724
5.78742
5.78781
5.78808
5.7884
5.78872
5.78905
5.78947
5.78976
5.79011
5.79042
5.79075
5.7911
5.79147
5.79179
5.79205
5.79245
5.78644
5.78676
5.78705
5.7873
5.78762
5.78796
5.78821
5.78859
5.78898
5.78923
5.78947
5.78978
5.79019
5.79054
5.79082
5.79125
5.79154
5.79195
5.78545
5.78573
5.78614
5.78646
5.78688
5.78709
5.78739
5.78775
5.78807
5.78842
5.78882
5.78905
5.78927
5.78955
5.7899
5.79031
5.79068
5.79104
5.78511
5.78529
5.78566
5.78589
5.78624
5.78661
5.78687
5.78714
5.78752
5.78787
5.78822
5.78865
5.78888
5.7891
5.7894
5.78974
5.79007
5.78448
5.78462
5.78491
5.78504
5.78534
5.78565
5.78599
5.7863
5.78658
5.7869
5.78725
5.78766
5.78804
5.78846
5.78869
5.78893
5.78924
5.78957
5.78395
5.78424
5.78439
5.7847
5.78494
5.78517
5.78547
5.78574
5.78599
5.78628
5.78664
5.787
5.7874
5.7878
5.78819
5.78848
5.78872
5.78902
5.78364
5.78382
5.78406
5.78427
5.78453
5.7848
5.78506
5.78531
5.78556
5.78576
5.78599
5.78635
5.78676
5.78714
5.78754
5.78797
5.78823
5.78854
5.78297
5.7832
5.78344
5.78365
5.78388
5.78408
5.7843
5.78462
5.78496
5.78523
5.78544
5.78564
5.78586
5.78611
5.78647
5.78688
5.78727
5.78762
5.7824
5.78263
5.78284
5.78302
5.78327
5.78348
5.7837
5.78393
5.78416
5.78443
5.78475
5.78504
5.78534
5.78554
5.78573
5.786
5.78627
5.7867
5.78197
5.78224
5.7825
5.78269
5.78289
5.78311
5.78331
5.7835
5.78375
5.78404
5.7843
5.78456
5.78487
5.78521
5.78544
5.78562
5.78585
5.7861
5.78136
5.78163
5.78187
5.78212
5.78233
5.78254
5.78275
5.78295
5.78314
5.78332
5.78354
5.78381
5.78409
5.78441
5.78468
5.78497
5.78511
5.78554
5.78096
5.78119
5.78145
5.78172
5.78195
5.78218
5.78239
5.7826
5.7828
5.78299
5.78318
5.78339
5.78361
5.78389
5.78422
5.78455
5.78482
5.78504
5.78061
5.78084
5.78101
5.78125
5.78152
5.78178
5.78203
5.78224
5.78245
5.78266
5.78286
5.78305
5.78327
5.7835
5.78375
5.78406
5.78436
5.78464
5.78024
5.78043
5.78066
5.78082
5.78109
5.78134
5.78162
5.78189
5.78209
5.78229
5.7825
5.7827
5.78291
5.78312
5.78337
5.78361
5.78387
5.78421
5.77948
5.77987
5.78007
5.78025
5.78048
5.78074
5.78095
5.78115
5.78141
5.78169
5.78193
5.78212
5.78232
5.78254
5.78274
5.78296
5.7832
5.78346
5.77926
5.77937
5.77965
5.77991
5.78013
5.78036
5.7806
5.78081
5.78102
5.78124
5.78147
5.78175
5.78195
5.78216
5.78236
5.78256
5.7828
5.78304
5.77887
5.77905
5.77927
5.77949
5.77977
5.78003
5.78026
5.78047
5.78068
5.78089
5.7811
5.78131
5.78156
5.78177
5.78199
5.7822
5.78247
5.78264
5.77835
5.77867
5.77888
5.77907
5.77929
5.77956
5.77987
5.78015
5.78034
5.78054
5.78075
5.78096
5.78117
5.78139
5.78159
5.7818
5.78202
5.77792
5.77796
5.77823
5.77847
5.77869
5.77891
5.77911
5.77933
5.77965
5.78001
5.78021
5.78039
5.78059
5.7808
5.78101
5.78121
5.78142
5.78167
5.77744
5.77767
5.77784
5.77803
5.77826
5.77851
5.77876
5.77896
5.77913
5.77939
5.77982
5.78006
5.78022
5.78042
5.78063
5.78084
5.78104
5.78125
5.7771
5.77734
5.77748
5.77766
5.77784
5.77806
5.77832
5.77855
5.7788
5.77899
5.77918
5.7795
5.77984
5.78003
5.78023
5.78044
5.78067
5.7809
5.77661
5.77671
5.77692
5.77714
5.77733
5.77749
5.77766
5.77784
5.77811
5.77838
5.77864
5.77885
5.77902
5.77927
5.77958
5.77981
5.78002
5.78023
5.77613
5.77633
5.77657
5.77678
5.77699
5.77718
5.77735
5.7775
5.77768
5.77791
5.77817
5.77846
5.7787
5.77887
5.77909
5.77934
5.77957
5.77985
5.77577
5.77593
5.77615
5.77638
5.7766
5.77682
5.77703
5.77721
5.77735
5.77749
5.77765
5.77794
5.77821
5.77851
5.77871
5.77891
5.77916
5.77936
5.77519
5.77564
5.77578
5.77598
5.7762
5.77642
5.77664
5.77685
5.77705
5.77721
5.77735
5.77751
5.77774
5.778
5.77829
5.77852
5.77872
5.77895
5.77501
5.77521
5.77543
5.77563
5.77581
5.77601
5.77622
5.77644
5.77664
5.77683
5.77706
5.77723
5.77738
5.77757
5.77781
5.77806
5.77827
5.77444
5.77453
5.77482
5.77498
5.77522
5.77546
5.77566
5.77584
5.77604
5.77625
5.77642
5.77658
5.77676
5.77699
5.77721
5.7774
5.77763
5.7779
5.77394
5.77417
5.77437
5.77459
5.7748
5.77504
5.77528
5.7755
5.7757
5.77588
5.77606
5.77624
5.77641
5.77656
5.77677
5.77701
5.77725
5.77746
5.77357
5.77376
5.77398
5.77418
5.77438
5.7746
5.77483
5.77505
5.77528
5.77549
5.77572
5.77589
5.77608
5.77626
5.77643
5.77662
5.77685
5.77708
5.77311
5.77336
5.77358
5.77377
5.77399
5.77419
5.77441
5.77464
5.77485
5.77503
5.77525
5.77551
5.77571
5.7759
5.7761
5.77627
5.77648
5.77666
5.77279
5.7729
5.77313
5.77334
5.77356
5.77379
5.77401
5.77424
5.77445
5.77465
5.77484
5.77505
5.77528
5.77549
5.7757
5.77593
5.77611
5.77634
5.77248
5.77264
5.77277
5.77294
5.77312
5.77334
5.77359
5.77384
5.77406
5.77427
5.77448
5.77467
5.77487
5.77508
5.77528
5.77549
5.7757
5.77589
5.77207
5.77228
5.77246
5.77261
5.77276
5.77292
5.77313
5.7734
5.77367
5.77389
5.77409
5.7743
5.77449
5.77468
5.77488
5.77509
5.77528
5.77546
5.77174
5.77186
5.77208
5.77228
5.77246
5.77263
5.77277
5.77295
5.77322
5.7735
5.77376
5.77394
5.77412
5.7743
5.77449
5.77468
5.77487
5.77512
5.7712
5.77138
5.77153
5.77173
5.77188
5.77204
5.77227
5.7725
5.77266
5.7728
5.773
5.77328
5.77354
5.77377
5.77393
5.77411
5.77429
5.77449
5.77468
5.7708
5.77103
5.77123
5.77136
5.77156
5.77172
5.77186
5.77204
5.77228
5.77243
5.77264
5.77285
5.77308
5.77332
5.77354
5.77372
5.77389
5.77408
5.77067
5.77084
5.77103
5.77122
5.7714
5.77156
5.77169
5.77183
5.77206
5.77225
5.77243
5.77269
5.77287
5.77308
5.77329
5.77348
5.77369
5.77002
5.7702
5.77045
5.77066
5.77086
5.77106
5.77124
5.77141
5.77153
5.77166
5.77188
5.77208
5.7723
5.77253
5.77272
5.77292
5.7731
5.77325
5.76962
5.76983
5.77006
5.77026
5.77049
5.7707
5.7709
5.7711
5.77126
5.77138
5.77151
5.77171
5.7719
5.77214
5.77234
5.77253
5.77273
5.77294
5.76917
5.76949
5.76968
5.76988
5.7701
5.77032
5.77053
5.77073
5.77095
5.77114
5.77125
5.77136
5.77153
5.77173
5.77194
5.77217
5.77235
5.77256
5.76914
5.76934
5.76952
5.76971
5.76993
5.77014
5.77033
5.77051
5.77074
5.77092
5.7711
5.77122
5.77138
5.77157
5.77178
5.77197
5.77217
5.76863
5.76893
5.76919
5.76935
5.76953
5.76975
5.76995
5.77014
5.77031
5.77054
5.77073
5.77092
5.77107
5.77125
5.77141
5.77161
5.77181
5.76804
5.76827
5.76843
5.76871
5.76898
5.76915
5.76934
5.76956
5.76979
5.76997
5.77012
5.77034
5.77054
5.77072
5.77088
5.77106
5.77127
5.77143
5.76766
5.7679
5.76811
5.76829
5.76854
5.76878
5.76896
5.76914
5.76935
5.76959
5.76977
5.76994
5.7701
5.77032
5.77052
5.77069
5.77089
5.7673
5.76756
5.76777
5.768
5.76819
5.76842
5.76864
5.76879
5.76894
5.76913
5.76936
5.76955
5.76977
5.76994
5.77014
5.77032
5.77052
5.76666
5.76691
5.76715
5.7674
5.76764
5.76786
5.76806
5.76824
5.76849
5.76865
5.7688
5.76899
5.76915
5.76932
5.76954
5.76975
5.76995
5.77013
5.76628
5.7665
5.76674
5.76698
5.76721
5.76748
5.76781
5.76803
5.76806
5.76829
5.76843
5.7686
5.76885
5.76901
5.76916
5.76935
5.76957
5.76975
5.76576
5.76606
5.76627
5.76651
5.76678
5.76703
5.76731
5.76773
5.76809
5.76789
5.76801
5.76818
5.76837
5.7686
5.76881
5.76898
5.76913
5.76935
5.76528
5.76558
5.76585
5.76608
5.7663
5.76653
5.76687
5.76712
5.76731
5.76756
5.76761
5.76777
5.76794
5.76813
5.76834
5.76856
5.76877
5.76895
5.76483
5.76507
5.76517
5.76543
5.76568
5.76589
5.76609
5.76629
5.76662
5.76696
5.7671
5.76724
5.76737
5.76754
5.76768
5.76788
5.76807
5.76835
5.76857
5.76439
5.76463
5.7648
5.76499
5.76522
5.76546
5.76567
5.76584
5.76604
5.76628
5.76656
5.7668
5.76698
5.76715
5.76733
5.76752
5.76772
5.76791
5.76815
5.76391
5.76441
5.76458
5.76477
5.76496
5.76513
5.76533
5.76559
5.76581
5.76606
5.76635
5.76656
5.76677
5.76696
5.76714
5.76735
5.76757
5.7678
5.7634
5.76374
5.76415
5.76437
5.76451
5.7646
5.76478
5.76503
5.76531
5.76561
5.76587
5.76615
5.76635
5.76656
5.76676
5.76697
5.76714
5.76284
5.76311
5.76346
5.76381
5.76406
5.7642
5.76433
5.76452
5.76483
5.76512
5.76543
5.76569
5.76593
5.76615
5.76635
5.76656
5.76679
5.7623
5.76257
5.76282
5.76312
5.76344
5.76367
5.76391
5.76417
5.76444
5.76467
5.76495
5.76524
5.76548
5.76571
5.76596
5.76615
5.76635
5.76146
5.76176
5.76202
5.76229
5.76258
5.76284
5.76311
5.76339
5.76368
5.76398
5.76422
5.76448
5.76476
5.76504
5.76526
5.76548
5.76572
5.76594
5.76096
5.76128
5.76152
5.76182
5.76207
5.76233
5.76256
5.7628
5.7631
5.76341
5.7637
5.76395
5.76424
5.7645
5.76478
5.76502
5.76525
5.76029
5.76065
5.76098
5.7613
5.76158
5.76184
5.76203
5.7623
5.76255
5.76286
5.76315
5.76344
5.76373
5.76399
5.76428
5.76453
5.76479
5.75954
5.75999
5.76032
5.76068
5.76101
5.7613
5.76153
5.76179
5.76204
5.76231
5.76261
5.7629
5.76318
5.7635
5.76378
5.76405
5.76435
5.75906
5.75926
5.75961
5.75996
5.76032
5.7607
5.76097
5.76124
5.76155
5.76185
5.7621
5.76238
5.76267
5.76295
5.76327
5.76355
5.76382
5.75846
5.75882
5.75895
5.75919
5.75959
5.76
5.76036
5.76069
5.76104
5.76132
5.7616
5.76187
5.76215
5.76243
5.76271
5.76299
5.76329
5.75823
5.75825
5.75845
5.75864
5.75893
5.75934
5.7597
5.76006
5.76042
5.76076
5.76108
5.76138
5.76164
5.7619
5.76218
5.76248
5.76274
5.75764
5.75812
5.7582
5.75845
5.7588
5.75921
5.7595
5.75985
5.7602
5.76054
5.76087
5.76115
5.76141
5.76167
5.76194
5.76227
5.75706
5.7574
5.75785
5.75805
5.75833
5.75864
5.75896
5.75932
5.75967
5.76
5.76032
5.76064
5.76092
5.76117
5.76143
5.75578
5.75613
5.75662
5.75706
5.75751
5.75776
5.75804
5.75835
5.75872
5.75914
5.75952
5.75984
5.76013
5.7604
5.76067
5.76096
5.75501
5.75547
5.75572
5.75617
5.75665
5.7571
5.75746
5.75774
5.75808
5.75847
5.75888
5.75932
5.75967
5.75991
5.7602
5.76042
5.75448
5.7547
5.75503
5.75546
5.75587
5.75635
5.75674
5.75708
5.75745
5.75779
5.7582
5.75854
5.759
5.75937
5.75973
5.75992
5.7534
5.75375
5.75409
5.75441
5.75467
5.7552
5.75562
5.75608
5.75644
5.75676
5.75711
5.75753
5.75796
5.75826
5.75861
5.75898
5.75261
5.7531
5.75344
5.75376
5.75408
5.7544
5.75494
5.75536
5.75577
5.75612
5.75643
5.75677
5.75722
5.75763
5.75798
5.75831
5.75196
5.75246
5.75281
5.75321
5.7535
5.75385
5.75426
5.75466
5.75504
5.7554
5.75569
5.75607
5.75646
5.75688
5.75724
5.75757
5.75123
5.75161
5.7521
5.75265
5.75292
5.75324
5.75363
5.75409
5.75444
5.7548
5.75509
5.75536
5.7557
5.75604
5.75644
5.75689
5.75035
5.75056
5.75113
5.75166
5.75222
5.75264
5.75292
5.75332
5.75382
5.75422
5.75456
5.75481
5.75512
5.75541
5.75565
5.7561
5.74941
5.74981
5.75018
5.75065
5.75121
5.75174
5.75216
5.75253
5.75295
5.75343
5.75394
5.75429
5.75455
5.75481
5.75522
5.74871
5.74902
5.74935
5.74974
5.75018
5.75069
5.75128
5.75169
5.75211
5.75256
5.75304
5.75352
5.75395
5.75424
5.75454
5.75478
5.7482
5.74847
5.74869
5.749
5.74938
5.74983
5.75024
5.7508
5.75125
5.75171
5.75212
5.75266
5.7531
5.75355
5.75385
5.75437
5.7476
5.74792
5.7482
5.74842
5.74874
5.74918
5.74962
5.74997
5.75042
5.75093
5.75136
5.75176
5.75224
5.75266
5.75315
5.74708
5.7475
5.7479
5.7481
5.74843
5.74887
5.74933
5.74974
5.75018
5.75067
5.7511
5.75152
5.75196
5.75232
5.7462
5.74658
5.74709
5.74749
5.74781
5.74806
5.74856
5.74899
5.74945
5.74989
5.75034
5.75074
5.75118
5.7452
5.74548
5.74583
5.74615
5.74663
5.74706
5.74742
5.74781
5.74824
5.74866
5.74912
5.74954
5.74999
5.75045
5.7445
5.74486
5.74519
5.7455
5.74586
5.74624
5.74666
5.74705
5.7475
5.74797
5.74841
5.74883
5.74924
5.74967
5.74369
5.74411
5.74449
5.74491
5.74511
5.74545
5.74583
5.74625
5.74665
5.7472
5.74768
5.74815
5.74855
5.74898
5.74288
5.74329
5.7437
5.7441
5.74441
5.74472
5.74509
5.74547
5.74587
5.74625
5.7468
5.74718
5.74766
5.74826
5.74214
5.74249
5.7429
5.74327
5.74363
5.74376
5.74423
5.74476
5.74524
5.74554
5.74601
5.74654
5.74689
5.74723
5.74145
5.7418
5.74219
5.74246
5.74279
5.74312
5.74318
5.7436
5.74428
5.74487
5.74524
5.74576
5.74632
5.74204
5.74224
5.7426
5.74287
5.74313
5.74367
5.74436
5.74477
5.74531
5.74157
5.74181
5.74217
5.74248
5.74287
5.74322
5.74373
5.74428
5.74066
5.74126
5.74145
5.74179
5.74215
5.74246
5.74306
5.73977
5.74013
5.7406
5.7411
5.74148
5.74174
5.742
5.73959
5.74006
5.74061
5.74106
5.74129
5.73809
5.73862
5.73918
5.73968
5.74007
5.74051
5.7342
5.7345
5.73689
5.73748
5.73911
5.73427
5.73487
5.73538
5.73583
5.73627
5.73717
5.73389
5.73569
5.73615
5.73638
5.73682
5.73352
5.73469
5.73551
5.63484
5.56792
5.46812
5.78393
5.77206
5.75609
5.74011
5.71271
5.67343
5.61874
5.55211
5.35026
5.80771
5.80527
5.80122
5.79751
5.79007
5.78218
5.77132
5.75618
5.73823
5.7142
5.68419
5.63927
5.59013
5.53766
5.50926
5.81159
5.81114
5.81091
5.80976
5.8085
5.80576
5.80199
5.79724
5.79113
5.78285
5.77277
5.76621
5.75153
5.72888
5.70472
5.68565
5.6557
5.64477
5.61377
5.52523
5.2539
4.74167
5.81208
5.81226
5.81256
5.81274
5.81259
5.81229
5.81157
5.81036
5.80874
5.80644
5.8031
5.79945
5.79482
5.7905
5.78337
5.77578
5.76989
5.76793
5.76392
5.7546
5.74499
5.7254
5.64985
5.81158
5.81173
5.81223
5.81248
5.81299
5.81323
5.8136
5.81378
5.81367
5.81321
5.81249
5.81179
5.81073
5.80957
5.8087
5.80736
5.80505
5.80231
5.80484
5.80986
5.80989
5.80888
5.81473
5.82413
5.84342
5.81091
5.81103
5.81167
5.81206
5.81247
5.81255
5.81296
5.81362
5.81416
5.81483
5.81496
5.8148
5.81451
5.8142
5.81539
5.81655
5.81768
5.81804
5.81722
5.8191
5.82453
5.83079
5.83504
5.84231
5.85728
5.80977
5.81044
5.81093
5.81126
5.81172
5.8123
5.81286
5.81321
5.81361
5.8142
5.81488
5.81561
5.81599
5.81639
5.81621
5.81766
5.81953
5.82208
5.82254
5.82418
5.82675
5.82903
5.8379
5.84406
5.8501
5.80864
5.80937
5.80993
5.81049
5.81101
5.81136
5.81174
5.8124
5.81321
5.81364
5.8142
5.81482
5.81552
5.81642
5.81777
5.81865
5.81912
5.82119
5.82411
5.82697
5.82889
5.83157
5.83499
5.83976
5.84473
5.80722
5.80727
5.80771
5.80844
5.80912
5.80983
5.81051
5.81098
5.81149
5.81193
5.81258
5.81353
5.8142
5.81494
5.81579
5.8167
5.81784
5.81944
5.82044
5.82209
5.82436
5.82855
5.83015
5.83246
5.83569
5.83913
5.80592
5.80624
5.80676
5.80696
5.80744
5.8079
5.80834
5.80913
5.80977
5.81037
5.81085
5.81153
5.81216
5.813
5.81371
5.8145
5.81538
5.81629
5.81726
5.81827
5.81982
5.82143
5.82386
5.82707
5.8294
5.83171
5.83469
5.80536
5.80581
5.8062
5.80656
5.80692
5.80731
5.80782
5.80825
5.80889
5.80955
5.81021
5.81088
5.81151
5.81217
5.81319
5.81392
5.81468
5.8155
5.81638
5.81743
5.8184
5.81943
5.82158
5.82424
5.82732
5.80387
5.80419
5.80472
5.80522
5.80572
5.80614
5.80647
5.80684
5.80721
5.80767
5.80818
5.80874
5.80944
5.81022
5.81092
5.81163
5.81235
5.81342
5.81413
5.81486
5.8157
5.81667
5.81753
5.81792
5.81996
5.80313
5.80375
5.80415
5.8046
5.80497
5.80532
5.8059
5.80626
5.80674
5.80725
5.80764
5.80815
5.80873
5.80949
5.81022
5.81096
5.81178
5.81259
5.81363
5.81428
5.81505
5.81588
5.81677
5.81758
5.80159
5.80228
5.80246
5.803
5.80347
5.80405
5.80443
5.80478
5.80518
5.80565
5.80607
5.80654
5.80711
5.80768
5.8081
5.80872
5.80942
5.81014
5.81096
5.81184
5.81275
5.81369
5.81439
5.81511
5.8159
5.80098
5.80119
5.80157
5.80197
5.80228
5.80283
5.80339
5.80391
5.80428
5.80467
5.80502
5.80544
5.80587
5.80639
5.80687
5.80743
5.80795
5.80855
5.80921
5.80994
5.81071
5.81169
5.81291
5.81361
5.81432
5.79979
5.80024
5.80063
5.80104
5.80146
5.8018
5.80217
5.8026
5.8031
5.8036
5.80406
5.80448
5.80486
5.80527
5.80575
5.80615
5.80659
5.80724
5.80777
5.80838
5.8091
5.80981
5.81061
5.81146
5.81243
5.79843
5.79856
5.79927
5.79961
5.79999
5.80039
5.80077
5.8013
5.80164
5.80202
5.80238
5.80282
5.80329
5.80384
5.80432
5.80465
5.80508
5.80545
5.80587
5.80638
5.80712
5.80758
5.80818
5.80893
5.80968
5.81045
5.79756
5.79808
5.79833
5.79867
5.79908
5.79942
5.79976
5.80011
5.80052
5.80101
5.80144
5.80186
5.80221
5.80264
5.80312
5.80368
5.8042
5.80456
5.80492
5.80522
5.80558
5.80598
5.80664
5.80732
5.80797
5.80867
5.79715
5.79702
5.79732
5.7978
5.79822
5.79857
5.79892
5.79927
5.79959
5.79992
5.8003
5.80074
5.80118
5.80162
5.80201
5.80245
5.80298
5.80358
5.8041
5.80451
5.80489
5.80522
5.80549
5.80581
5.80636
5.80699
5.80767
5.79566
5.79631
5.79661
5.79691
5.7973
5.79771
5.79811
5.79849
5.79885
5.79917
5.79947
5.7998
5.80017
5.80056
5.80096
5.80137
5.80176
5.80222
5.80277
5.80331
5.80395
5.80441
5.80479
5.80513
5.80545
5.80589
5.80638
5.79503
5.79549
5.79585
5.79631
5.79673
5.79716
5.79759
5.79801
5.79841
5.79878
5.7991
5.7994
5.79972
5.80006
5.8004
5.80075
5.80114
5.80154
5.802
5.80252
5.80304
5.80354
5.80418
5.80454
5.80494
5.80538
5.79433
5.79447
5.7949
5.79524
5.79566
5.79608
5.79652
5.79697
5.79739
5.79781
5.79824
5.7987
5.79905
5.79934
5.79964
5.79996
5.80028
5.80061
5.80098
5.80136
5.80184
5.8023
5.80283
5.80335
5.80385
5.80436
5.79334
5.79356
5.79407
5.7943
5.79468
5.79506
5.79546
5.79589
5.79632
5.79675
5.79718
5.79762
5.79808
5.79854
5.79896
5.79925
5.79954
5.79985
5.80016
5.80049
5.80084
5.80124
5.80168
5.80213
5.80266
5.80316
5.79253
5.793
5.79335
5.79371
5.79408
5.79445
5.79486
5.79524
5.79568
5.79613
5.79656
5.79699
5.79744
5.79793
5.79843
5.79881
5.7991
5.79939
5.79969
5.80001
5.80034
5.8007
5.80112
5.80152
5.802
5.79156
5.79211
5.79233
5.79272
5.79306
5.79344
5.79385
5.79426
5.79466
5.79504
5.79547
5.79592
5.79636
5.79679
5.79722
5.79772
5.79824
5.7986
5.79889
5.79918
5.79949
5.79982
5.80016
5.80054
5.80096
5.80138
5.79088
5.7912
5.79148
5.79182
5.79215
5.79246
5.7928
5.79321
5.79364
5.79405
5.79445
5.79483
5.79525
5.7957
5.79613
5.79656
5.79699
5.79744
5.79793
5.79835
5.79864
5.79895
5.79925
5.79961
5.8
5.80048
5.7901
5.79026
5.79067
5.79091
5.79125
5.79159
5.79191
5.79223
5.79258
5.79301
5.79342
5.79383
5.79423
5.79461
5.79503
5.79548
5.79591
5.79632
5.79675
5.79719
5.79765
5.79809
5.79841
5.79869
5.79906
5.79943
5.79972
5.78929
5.78976
5.79007
5.79043
5.79073
5.79104
5.79135
5.79167
5.79202
5.79239
5.7928
5.79319
5.79358
5.79399
5.7944
5.79481
5.79526
5.79571
5.79612
5.79654
5.79697
5.7974
5.79781
5.79817
5.79855
5.79891
5.78865
5.78893
5.78917
5.78951
5.78988
5.79024
5.79056
5.79084
5.79112
5.79145
5.79182
5.79221
5.79259
5.79292
5.79333
5.79377
5.79419
5.79459
5.79502
5.79545
5.79586
5.79626
5.79671
5.79712
5.79746
5.79793
5.78801
5.78843
5.78869
5.78894
5.78924
5.78966
5.79005
5.7904
5.79065
5.79092
5.79124
5.79162
5.79201
5.79236
5.79271
5.79313
5.79356
5.79397
5.79441
5.79477
5.79517
5.7956
5.796
5.79642
5.79686
5.78728
5.78759
5.78791
5.78818
5.78846
5.78871
5.78901
5.78945
5.78988
5.79022
5.79049
5.79075
5.79107
5.79145
5.79184
5.79219
5.79256
5.79294
5.79335
5.79373
5.79417
5.79457
5.79494
5.79533
5.79569
5.78677
5.78712
5.78741
5.78769
5.788
5.78827
5.78854
5.78885
5.78928
5.78968
5.79
5.79029
5.79058
5.7909
5.79129
5.79167
5.79203
5.79241
5.79277
5.79317
5.79351
5.79388
5.7943
5.79477
5.79515
5.78589
5.78629
5.78658
5.7869
5.78723
5.78751
5.78781
5.7881
5.78839
5.78872
5.78913
5.78947
5.78976
5.79006
5.79039
5.79072
5.79108
5.79147
5.79179
5.79216
5.79253
5.79289
5.79328
5.79369
5.79402
5.78543
5.78573
5.78606
5.78641
5.78674
5.78705
5.78733
5.78763
5.78795
5.78827
5.78859
5.78895
5.78924
5.78952
5.78983
5.79019
5.79053
5.79089
5.79127
5.79159
5.79194
5.79227
5.79263
5.793
5.79345
5.78473
5.78506
5.78527
5.78552
5.78582
5.78616
5.7865
5.78686
5.78713
5.78743
5.78778
5.78813
5.78845
5.78877
5.78905
5.78931
5.78962
5.78996
5.79032
5.79069
5.79103
5.79138
5.79173
5.79203
5.79241
5.78443
5.78457
5.78485
5.78507
5.78532
5.78557
5.7859
5.78624
5.78659
5.7869
5.78721
5.78756
5.78794
5.78829
5.78861
5.78888
5.78912
5.78942
5.78977
5.79012
5.79048
5.79081
5.79111
5.79145
5.78379
5.78391
5.78421
5.78442
5.78465
5.78488
5.78513
5.78538
5.78565
5.78594
5.78625
5.78659
5.78693
5.78729
5.78772
5.78811
5.78844
5.78871
5.78895
5.78924
5.78957
5.78991
5.79026
5.79057
5.79089
5.78331
5.78355
5.7838
5.78403
5.78426
5.78449
5.78472
5.78496
5.78521
5.78546
5.7857
5.78596
5.78628
5.78663
5.787
5.78742
5.78785
5.7882
5.78848
5.78876
5.78905
5.78938
5.7897
5.79005
5.78274
5.78291
5.78317
5.78338
5.78362
5.78386
5.78408
5.78432
5.78456
5.7848
5.78508
5.78532
5.78554
5.78576
5.78604
5.78637
5.78674
5.78713
5.78756
5.78794
5.78824
5.78853
5.78882
5.78915
5.78947
5.78233
5.78254
5.78279
5.783
5.78323
5.78346
5.78369
5.78391
5.78415
5.7844
5.78464
5.78492
5.78518
5.7854
5.78562
5.78587
5.78617
5.78652
5.7869
5.78729
5.78764
5.78798
5.78831
5.78862
5.7817
5.78193
5.78216
5.78238
5.78262
5.78284
5.78307
5.7833
5.78352
5.78374
5.78398
5.78424
5.78449
5.78476
5.78503
5.78527
5.7855
5.78573
5.786
5.78633
5.78668
5.78704
5.78737
5.78776
5.78807
5.78127
5.78152
5.78176
5.782
5.78225
5.78247
5.78269
5.78291
5.78313
5.78335
5.78357
5.7838
5.78406
5.78433
5.78461
5.78489
5.78514
5.78536
5.78559
5.78585
5.78615
5.78649
5.78682
5.78716
5.78089
5.78113
5.78136
5.78162
5.78186
5.78209
5.78232
5.78254
5.78276
5.78297
5.78319
5.78341
5.78364
5.78389
5.78416
5.78444
5.78472
5.78497
5.78519
5.78544
5.78569
5.78596
5.78627
5.78663
5.78033
5.7805
5.78073
5.78095
5.7812
5.78145
5.7817
5.78193
5.78216
5.78239
5.78261
5.78282
5.78304
5.78326
5.78348
5.78372
5.78399
5.78428
5.78456
5.7848
5.78503
5.78527
5.78553
5.78582
5.78606
5.77997
5.78017
5.78036
5.78056
5.78078
5.78103
5.78128
5.78152
5.78177
5.78201
5.78224
5.78246
5.78267
5.78288
5.7831
5.78332
5.78356
5.78382
5.78409
5.78436
5.78461
5.78484
5.78508
5.78532
5.77961
5.77974
5.78
5.78021
5.78041
5.78063
5.78087
5.78111
5.78135
5.7816
5.78184
5.78207
5.78229
5.78251
5.78272
5.78294
5.78317
5.78341
5.78366
5.78392
5.78418
5.78441
5.78467
5.78491
5.77922
5.77941
5.77959
5.77983
5.78005
5.78026
5.78049
5.78073
5.78096
5.7812
5.78143
5.78166
5.7819
5.78212
5.78233
5.78255
5.78277
5.783
5.78323
5.78348
5.78374
5.78399
5.78426
5.77863
5.77883
5.77903
5.77922
5.77943
5.77966
5.77989
5.78012
5.78036
5.7806
5.78082
5.78106
5.78128
5.7815
5.78173
5.78195
5.78216
5.78237
5.7826
5.78283
5.78305
5.78331
5.78355
5.78374
5.7782
5.77844
5.77864
5.77885
5.77904
5.77925
5.77949
5.77974
5.77997
5.78021
5.78045
5.78067
5.7809
5.78112
5.78134
5.78156
5.78178
5.78199
5.7822
5.78242
5.78267
5.78289
5.78314
5.78338
5.77787
5.77803
5.77825
5.77846
5.77866
5.77887
5.77908
5.77931
5.77956
5.7798
5.78006
5.7803
5.78052
5.78074
5.78096
5.78117
5.78139
5.78161
5.78182
5.78202
5.78225
5.7825
5.78267
5.77733
5.77744
5.77768
5.77786
5.77807
5.77827
5.77848
5.7787
5.77891
5.77914
5.77938
5.77962
5.7799
5.78015
5.78036
5.78057
5.78079
5.781
5.78121
5.78142
5.78163
5.78185
5.78207
5.78229
5.77692
5.77708
5.77728
5.77748
5.77768
5.77788
5.77808
5.7783
5.77852
5.77874
5.77896
5.77919
5.77942
5.7797
5.77997
5.78018
5.78039
5.78061
5.78082
5.78103
5.78124
5.78146
5.78165
5.78192
5.77644
5.7767
5.77692
5.77711
5.7773
5.7775
5.7777
5.7779
5.77811
5.77834
5.77856
5.77878
5.779
5.77922
5.77948
5.77975
5.77999
5.7802
5.78042
5.78064
5.78084
5.78105
5.78128
5.78151
5.7761
5.77631
5.77651
5.77673
5.77695
5.77714
5.77733
5.77752
5.77772
5.77794
5.77816
5.77839
5.77861
5.77884
5.77906
5.77929
5.77954
5.77978
5.78
5.78023
5.78045
5.78068
5.78086
5.77552
5.77575
5.77589
5.77613
5.77633
5.77656
5.77678
5.77698
5.77717
5.77737
5.77756
5.77776
5.77796
5.7782
5.77842
5.77865
5.77887
5.77909
5.77933
5.77957
5.7798
5.78003
5.78024
5.78052
5.77526
5.77532
5.77557
5.77574
5.77595
5.77616
5.77638
5.7766
5.77681
5.77702
5.77722
5.7774
5.77757
5.77776
5.77799
5.77822
5.77846
5.77868
5.7789
5.77914
5.77937
5.7796
5.77983
5.78005
5.77474
5.77502
5.77516
5.77537
5.77557
5.77577
5.77599
5.77621
5.77642
5.77663
5.77685
5.77705
5.77723
5.7774
5.7776
5.77781
5.77803
5.77827
5.7785
5.77871
5.77894
5.77917
5.77938
5.77441
5.77457
5.77479
5.77498
5.77519
5.7754
5.7756
5.77581
5.77602
5.77623
5.77645
5.77666
5.77686
5.77705
5.77723
5.77743
5.77763
5.77784
5.77807
5.7783
5.77852
5.77873
5.77895
5.77392
5.77417
5.77438
5.77459
5.77479
5.77499
5.77522
5.77544
5.77565
5.77585
5.77605
5.77626
5.77646
5.77667
5.77685
5.77703
5.77724
5.77745
5.77766
5.77788
5.77808
5.77828
5.77857
5.77354
5.77375
5.77396
5.77417
5.77438
5.77459
5.7748
5.77503
5.77526
5.77547
5.77567
5.77588
5.77609
5.77628
5.77647
5.77666
5.77685
5.77705
5.77727
5.77747
5.77767
5.77789
5.77816
5.77317
5.77336
5.77356
5.77376
5.77397
5.77418
5.77439
5.77461
5.77484
5.77507
5.77527
5.77547
5.7757
5.7759
5.7761
5.77629
5.77648
5.77667
5.77688
5.77709
5.77729
5.77749
5.77765
5.77277
5.77297
5.77317
5.77336
5.77357
5.77377
5.77398
5.7742
5.77442
5.77465
5.77488
5.77508
5.77528
5.7755
5.77571
5.77591
5.77611
5.7763
5.77649
5.77669
5.77689
5.7771
5.77731
5.77223
5.77242
5.77259
5.77279
5.77297
5.77317
5.77337
5.77357
5.77379
5.77401
5.77423
5.77446
5.77468
5.77488
5.77508
5.77529
5.7755
5.77571
5.77591
5.7761
5.7763
5.77651
5.77671
5.77195
5.77209
5.77228
5.77244
5.7726
5.77279
5.77297
5.77315
5.77336
5.77359
5.77382
5.77405
5.77426
5.77447
5.77467
5.77487
5.77508
5.77529
5.7755
5.7757
5.77591
5.77611
5.77634
5.77153
5.77174
5.77192
5.7721
5.77227
5.77244
5.77261
5.77278
5.77295
5.77314
5.77339
5.77363
5.77385
5.77407
5.77428
5.77448
5.77467
5.77488
5.77508
5.77529
5.7755
5.77568
5.77591
5.77121
5.77137
5.77156
5.77174
5.77192
5.7721
5.77227
5.77244
5.77261
5.77277
5.77295
5.77319
5.77343
5.77366
5.77388
5.77408
5.77428
5.77447
5.77467
5.77488
5.77509
5.77529
5.7755
5.77079
5.77104
5.77121
5.77138
5.77156
5.77175
5.77193
5.7721
5.77227
5.77245
5.77261
5.77279
5.77302
5.77325
5.77347
5.77369
5.77389
5.77407
5.77427
5.77447
5.77468
5.77489
5.77512
5.77041
5.77063
5.77083
5.77103
5.77121
5.77139
5.77158
5.77176
5.77193
5.77209
5.77228
5.77245
5.77263
5.77285
5.77307
5.77329
5.7735
5.77369
5.77387
5.77406
5.77426
5.77448
5.77468
5.7701
5.77023
5.77044
5.77064
5.77084
5.77104
5.77123
5.77142
5.77159
5.77174
5.7719
5.77209
5.77228
5.77246
5.77267
5.77288
5.77309
5.77329
5.77348
5.77367
5.77387
5.77406
5.77427
5.76961
5.76986
5.77004
5.77025
5.77046
5.77066
5.77087
5.77107
5.77125
5.77143
5.77158
5.77173
5.77192
5.77211
5.77231
5.77251
5.77271
5.7729
5.7731
5.77328
5.77347
5.77365
5.77383
5.7692
5.76945
5.76966
5.76987
5.77006
5.77028
5.77049
5.7707
5.7709
5.77109
5.77126
5.77142
5.77159
5.77176
5.77194
5.77214
5.77234
5.77253
5.77272
5.7729
5.77309
5.77328
5.77346
5.76885
5.76905
5.76928
5.7695
5.76969
5.76989
5.7701
5.77031
5.77052
5.77072
5.7709
5.77108
5.77126
5.77143
5.77158
5.77176
5.77196
5.77215
5.77235
5.77253
5.77272
5.77289
5.76834
5.76844
5.76869
5.7689
5.76912
5.76934
5.76952
5.76971
5.76992
5.77013
5.77033
5.77053
5.77071
5.77088
5.77107
5.77124
5.77141
5.77159
5.77178
5.77197
5.77216
5.77234
5.77251
5.7678
5.76806
5.76823
5.76846
5.76868
5.76893
5.76916
5.76934
5.76953
5.76974
5.76994
5.77013
5.77033
5.77052
5.7707
5.77089
5.77107
5.77124
5.77143
5.77162
5.7718
5.772
5.77215
5.76734
5.76763
5.76786
5.76806
5.76827
5.76849
5.76873
5.76896
5.76915
5.76934
5.76955
5.76975
5.76994
5.77014
5.77032
5.77051
5.7707
5.77088
5.77106
5.77125
5.77145
5.77163
5.77183
5.76691
5.76719
5.76746
5.76769
5.76789
5.76811
5.76832
5.76854
5.76876
5.76896
5.76914
5.76935
5.76954
5.76973
5.76993
5.77013
5.77032
5.77051
5.7707
5.77088
5.77106
5.77126
5.77146
5.76655
5.76683
5.76705
5.7673