/*--------------------------------*- C++ -*----------------------------------*\
| =========                 |                                                 |
| \\      /  F ield         | OpenFOAM: The Open Source CFD Toolbox           |
|  \\    /   O peration     | Version:  2312                                  |
|   \\  /    A nd           | Website:  www.openfoam.com                      |
|    \\/     M anipulation  |                                                 |
\*---------------------------------------------------------------------------*/
FoamFile
{
    version     2.0;
    format      ascii;
    arch        "LSB;label=64;scalar=64";
    class       volScalarField;
    location    "140";
    object      p;
}
// * * * * * * * * * * * * * * * * * * * * * * * * * * * * * * * * * * * * * //

dimensions      [0 2 -2 0 0 0 0];

internalField   nonuniform List<scalar> 
404911
(
0.0606652
0.0606487
0.0606814
0.0606487
0.0606445
0.0606423
0.0606547
0.0606568
0.0606527
0.060651
0.0613394
0.0609637
0.0608103
0.0607621
0.0607014
0.0606792
0.0615605
0.0613362
0.0611026
0.0609872
0.0619023
0.0617163
0.0614161
0.0623869
0.0621358
0.0617004
0.062819
0.0626305
0.0624874
0.0634176
0.0632512
0.0630469
0.0627936
0.0627061
0.0635296
0.0634072
0.0631985
0.0641842
0.0639608
0.0637459
0.063507
0.0644187
0.0643062
0.0641519
0.0639723
0.0636778
0.0645555
0.0644393
0.0642905
0.064171
0.0648913
0.0647488
0.0645402
0.0644632
0.0649289
0.0648892
0.0673079
0.0604028
0.0604503
0.0604385
0.061096
0.0608404
0.0615604
0.0613282
0.0611426
0.0619505
0.0617153
0.0614394
0.0624305
0.0620586
0.0628347
0.0625229
0.0624875
0.0632365
0.0630311
0.0626952
0.0625702
0.0634855
0.0633543
0.0640251
0.0637435
0.064322
0.0641112
0.0640461
0.0645985
0.0644775
0.0649459
0.0646901
0.0645106
0.0649737
0.0649597
0.0671754
0.0673042
0.0671439
0.0679097
0.0676496
0.0674973
0.068253
0.0680084
0.0677307
0.0685747
0.0684984
0.0682924
0.0685383
0.0244987
0.0242523
0.0240282
0.0258414
0.02561
0.0250726
0.0250076
0.0246721
0.0244358
0.0242459
0.0238952
0.0266175
0.0263267
0.0256789
0.0253202
0.0250143
0.0248237
0.0245584
0.0243493
0.0232694
0.027518
0.0272266
0.0270113
0.0267506
0.0265274
0.0263469
0.0259337
0.0255111
0.0251643
0.0249586
0.0247354
0.0244541
0.0239715
0.0234389
0.0233268
0.0232361
0.028238
0.0279191
0.0276293
0.027336
0.0270809
0.0268465
0.0266264
0.0264105
0.0261232
0.0257758
0.0254622
0.025131
0.0249118
0.0246154
0.0233013
0.0291566
0.0287295
0.0283841
0.0280108
0.0276714
0.0274153
0.0271607
0.0269224
0.0266946
0.0264838
0.0261797
0.0258862
0.0256393
0.0253409
0.0251655
0.0296904
0.0294152
0.0289469
0.0285681
0.0282093
0.027801
0.0275244
0.0272327
0.0270087
0.0268169
0.0265747
0.0263439
0.0260405
0.0257682
0.0255086
0.0253417
0.0307348
0.030289
0.0298633
0.0295586
0.0290542
0.0287857
0.0284161
0.0279075
0.0276006
0.0273246
0.0271292
0.0269108
0.0266758
0.02643
0.0261631
0.0258967
0.0256638
0.0320436
0.0316806
0.0313492
0.0309196
0.0304785
0.0300944
0.0297689
0.0293602
0.0289957
0.0285882
0.028053
0.0277646
0.0274886
0.0272765
0.0270538
0.026787
0.0265547
0.026305
0.0327177
0.032379
0.03189
0.0315323
0.0311232
0.0306923
0.0303494
0.0299352
0.0295547
0.0291485
0.0287639
0.0282903
0.0278922
0.0276533
0.0274402
0.0271691
0.0269465
0.0266884
0.0336115
0.0333033
0.0329857
0.0326165
0.0321775
0.0317636
0.0313625
0.0309293
0.0305445
0.0301333
0.0297526
0.0293631
0.028975
0.0285174
0.0280879
0.0278124
0.0276033
0.0273653
0.0341871
0.0338655
0.0335257
0.0332186
0.0328525
0.0324243
0.0320338
0.0316085
0.0311816
0.0307985
0.0303865
0.0299938
0.02956
0.0291699
0.0288483
0.0283676
0.0279236
0.0349975
0.0346933
0.0343101
0.0340661
0.0337708
0.0334431
0.0330676
0.03267
0.032267
0.0318431
0.0314357
0.031015
0.0306115
0.0302242
0.0297841
0.0293769
0.0290827
0.035758
0.0354437
0.0351277
0.0349719
0.034655
0.0343432
0.0340015
0.0336961
0.0333431
0.0329679
0.0325557
0.032076
0.031638
0.0312121
0.0308638
0.030411
0.0299919
0.0296331
0.0368095
0.0364747
0.0359771
0.0356177
0.0353061
0.0351748
0.0348512
0.0345562
0.0342247
0.0339319
0.0336603
0.0332389
0.0327772
0.0323071
0.0318228
0.0313601
0.0310889
0.0307765
0.0374711
0.0372661
0.0370459
0.0368375
0.0363413
0.0358804
0.0355433
0.0353719
0.0351301
0.034803
0.0344258
0.034149
0.0339521
0.033518
0.0329731
0.0324906
0.0320723
0.0316038
0.037889
0.0376341
0.0374122
0.0371997
0.036989
0.0366699
0.0362154
0.0358563
0.0355433
0.035319
0.0349338
0.0345548
0.0343324
0.0341661
0.0337482
0.0331585
0.0326664
0.0322534
0.0385985
0.038326
0.0379722
0.0377705
0.0375557
0.0372823
0.0370674
0.0367939
0.0364914
0.0361371
0.0357893
0.0355562
0.035157
0.034738
0.0344598
0.0342966
0.0339205
0.0333641
0.0390793
0.0387674
0.0384934
0.0382028
0.0379187
0.0376774
0.0374192
0.0371309
0.0368708
0.0366771
0.0364515
0.0360867
0.0357659
0.0354041
0.0349667
0.0346566
0.0344489
0.0341744
0.0401625
0.0398441
0.0393202
0.0389442
0.0387119
0.0384057
0.0381173
0.0378332
0.037588
0.0372497
0.0369601
0.0368016
0.0366286
0.0364242
0.0361215
0.0357282
0.0352593
0.0348617
0.0406798
0.0404367
0.0401902
0.0397295
0.0393063
0.0389966
0.0387111
0.0384416
0.0380824
0.037812
0.0373938
0.0371345
0.0369413
0.0367548
0.0365399
0.0362978
0.0359345
0.0412768
0.0410408
0.0408106
0.0406186
0.0404306
0.0399928
0.0396417
0.0392677
0.0389814
0.0386186
0.0382776
0.0380175
0.0376361
0.0373332
0.0371335
0.0369144
0.0366943
0.0364324
0.0417109
0.0414513
0.0412242
0.040974
0.040778
0.0405665
0.0402441
0.0399147
0.0395986
0.039318
0.0389802
0.0385817
0.0382036
0.037839
0.0375286
0.037295
0.0370737
0.0368412
0.0420994
0.0418814
0.0416492
0.0414172
0.0411341
0.0408735
0.0406693
0.0403957
0.0401044
0.039855
0.0396102
0.0392844
0.0388179
0.0384534
0.038072
0.0378699
0.037511
0.0372837
0.0427446
0.0424898
0.042272
0.0420633
0.0418492
0.0416581
0.0413302
0.0410513
0.0407706
0.0404624
0.0401903
0.0400047
0.0397849
0.0395488
0.0391217
0.0386978
0.0383295
0.0380058
0.0433343
0.0431179
0.0429033
0.0426776
0.0424698
0.0422488
0.0420238
0.0418104
0.0415742
0.0412544
0.0409369
0.0406247
0.0403021
0.0401199
0.0398977
0.0396464
0.0392606
0.038945
0.0437477
0.0434962
0.0432808
0.0430686
0.0428487
0.0426544
0.0424689
0.0422266
0.0419966
0.0417226
0.041424
0.0411146
0.0408305
0.0405021
0.0402755
0.0400522
0.0398101
0.0394702
0.0443507
0.0441163
0.0438918
0.043665
0.0434248
0.0432227
0.0430239
0.0428363
0.0426763
0.0424917
0.0421999
0.041906
0.0416056
0.0413455
0.0410535
0.0407069
0.040334
0.0402491
0.0447329
0.0445094
0.0442797
0.0440537
0.0438107
0.0435832
0.0433781
0.0431791
0.0429953
0.0428378
0.0426996
0.0424246
0.0421317
0.0418065
0.0414876
0.0412909
0.0409652
0.0406679
0.0451502
0.044897
0.0446461
0.0444238
0.0442007
0.0439485
0.0437164
0.0435219
0.0433296
0.0431415
0.0429632
0.0427779
0.0425496
0.0422715
0.041973
0.0416981
0.041438
0.0411264
0.0456464
0.0453495
0.0450568
0.0447806
0.0446086
0.0443802
0.0441096
0.0438172
0.0436499
0.0434712
0.0432833
0.0430914
0.0428853
0.0426502
0.0423902
0.0421306
0.0418501
0.0416289
0.0462127
0.0460517
0.0458799
0.0456158
0.045298
0.0450301
0.0448273
0.0446025
0.0443161
0.0439795
0.0437944
0.0436232
0.0434356
0.0432311
0.0430145
0.0427829
0.0425457
0.042244
0.0466801
0.0464189
0.0461964
0.0460092
0.0457667
0.0454773
0.0452357
0.045052
0.0448911
0.0446085
0.0442219
0.0439716
0.0437997
0.0436089
0.043385
0.0431724
0.0429511
0.042718
0.0471115
0.0468685
0.0466136
0.0463829
0.0460997
0.0458275
0.0455822
0.0453806
0.0451974
0.0450346
0.0448084
0.0445054
0.0442152
0.043995
0.0437835
0.0435774
0.0433735
0.0431617
0.0474815
0.0472762
0.0470535
0.0467913
0.0465875
0.0462857
0.0459912
0.0456491
0.0454936
0.0453177
0.0451393
0.0449358
0.044681
0.044438
0.0441907
0.0439584
0.0437454
0.0482109
0.0479285
0.047694
0.0474692
0.0472179
0.0469787
0.046796
0.0464849
0.0461503
0.0458041
0.0456226
0.0454545
0.0452765
0.0450725
0.0448419
0.0446076
0.0443692
0.0441221
0.0486413
0.0483938
0.0481511
0.0479131
0.0476426
0.0473705
0.0471096
0.0469164
0.0466899
0.0463976
0.0460662
0.0457367
0.0456118
0.0454326
0.0452323
0.0450161
0.0447832
0.0445765
0.049007
0.0488053
0.0485861
0.0483593
0.0481433
0.0478797
0.0476243
0.0472708
0.0470667
0.0468902
0.0466247
0.0462571
0.0459718
0.0457975
0.045612
0.0454207
0.0452263
0.0450034
0.0496041
0.0493758
0.0491833
0.0489879
0.0487904
0.0486035
0.0484357
0.0481042
0.0478528
0.0475179
0.0472238
0.0470423
0.0468411
0.0465361
0.0462325
0.0460072
0.0458036
0.0455988
0.0499497
0.0497432
0.0495624
0.0493677
0.049178
0.0489921
0.0488198
0.0486771
0.0484133
0.0481109
0.0477549
0.0474572
0.0471548
0.0470332
0.0468066
0.0464876
0.0462271
0.0459694
0.0503556
0.0501277
0.0499226
0.0497335
0.0495385
0.0493563
0.0491754
0.0490044
0.0488586
0.0486859
0.0482903
0.0480333
0.0476387
0.0473514
0.0471824
0.0469713
0.046712
0.0464721
0.0506889
0.0505297
0.0503148
0.0501084
0.0499104
0.0497142
0.0495319
0.0493503
0.0491523
0.0489671
0.0488036
0.0485847
0.0482433
0.0478877
0.0475955
0.0473701
0.0471697
0.0469131
0.0511474
0.0509424
0.0507014
0.0504964
0.0502758
0.0500783
0.0498903
0.0497189
0.049546
0.0493238
0.0491011
0.0488896
0.04869
0.0484472
0.0481049
0.0478402
0.0475841
0.0517495
0.0515155
0.0513176
0.0510932
0.0508552
0.0506537
0.0504331
0.0502363
0.0500605
0.049902
0.0497665
0.0495509
0.049332
0.0490364
0.0488345
0.0486201
0.0483457
0.048087
0.0520948
0.0518934
0.0517008
0.051498
0.0512843
0.0510636
0.0508226
0.0505685
0.0503639
0.0502154
0.0500759
0.0499571
0.0498818
0.0495463
0.0492608
0.0489909
0.048788
0.0485557
0.0524931
0.0522795
0.0520754
0.0518847
0.0516697
0.0514808
0.0512975
0.0510539
0.0508161
0.0505125
0.0503525
0.0502322
0.0500989
0.0499621
0.0497528
0.0494664
0.0492072
0.0489797
0.0528692
0.0526591
0.0524601
0.0522484
0.0520488
0.05184
0.0516623
0.0515085
0.0513621
0.0511611
0.050764
0.0505406
0.0504015
0.0502472
0.0500785
0.0498642
0.0496401
0.0494069
0.053313
0.0530538
0.0528351
0.0526278
0.0524085
0.0521958
0.051991
0.0518129
0.0516521
0.0515061
0.0512947
0.0510285
0.050776
0.0505914
0.0504105
0.0502141
0.050017
0.0497849
0.0537458
0.0534945
0.053248
0.0530145
0.0527826
0.0525539
0.0523329
0.0521227
0.0519369
0.0517712
0.0516071
0.0514193
0.0512015
0.0509758
0.0507752
0.0505781
0.0503841
0.0501677
0.0542154
0.0539384
0.0536541
0.0534107
0.0531633
0.0529269
0.0526962
0.0524569
0.0522356
0.052044
0.051892
0.0517311
0.0515597
0.05136
0.0511539
0.050959
0.0507554
0.0505295
0.0546385
0.0544165
0.0541742
0.0538421
0.0535221
0.0532905
0.0530637
0.0528628
0.052632
0.0523433
0.0521221
0.0520083
0.0518781
0.0517177
0.0515299
0.0513294
0.0511295
0.0509568
0.0552619
0.0550637
0.054849
0.054669
0.0544685
0.0540551
0.0537312
0.0535063
0.0532058
0.0530472
0.0527684
0.0526078
0.0523273
0.05217
0.0520463
0.0518918
0.0517049
0.0515189
0.0513154
0.0556408
0.0554693
0.055281
0.0550803
0.0548998
0.0547671
0.0544897
0.0541861
0.0537994
0.05346
0.0532946
0.0530865
0.0528607
0.0525761
0.0523935
0.0522489
0.0520766
0.0518949
0.0558355
0.0556454
0.0554579
0.0552608
0.0550976
0.0549591
0.0547919
0.0545137
0.0541562
0.0538602
0.0535183
0.0532998
0.0531569
0.052915
0.0526494
0.0524489
0.0522645
0.0564245
0.0562319
0.0560432
0.0558383
0.055638
0.0554397
0.0552647
0.0551223
0.0549823
0.0546774
0.0544282
0.0540853
0.0537896
0.0535306
0.0533252
0.0531194
0.0528908
0.0526625
0.0568427
0.0566031
0.0564283
0.0562315
0.0560258
0.0558196
0.0556068
0.0554061
0.055255
0.0551394
0.054898
0.0546325
0.054306
0.0539833
0.053766
0.0535442
0.053326
0.0530692
0.0571242
0.0569966
0.0568106
0.0566101
0.0564166
0.0562258
0.0560322
0.0557908
0.0555356
0.0553437
0.0552648
0.0550821
0.0548394
0.0545253
0.0542188
0.0539799
0.0537644
0.0535609
0.0573427
0.0571601
0.0569777
0.0567858
0.0566005
0.0564235
0.0562653
0.0560517
0.055758
0.0554884
0.055376
0.055264
0.0550271
0.0547169
0.0544593
0.0542093
0.05399
0.0578292
0.0575149
0.057292
0.0571464
0.0569669
0.0567759
0.0565996
0.0564604
0.0562824
0.0560234
0.0557019
0.0555124
0.0553771
0.0551633
0.0549145
0.0546739
0.0544353
0.0589052
0.058523
0.0581501
0.0577869
0.0575508
0.0573534
0.0571581
0.0569353
0.0567387
0.0565992
0.0564795
0.0562174
0.0558986
0.0557002
0.0555301
0.0553318
0.0550918
0.0548592
0.0593462
0.0591028
0.0587779
0.0584097
0.0580118
0.0577822
0.0575837
0.0573877
0.0571519
0.0569575
0.0567221
0.0566343
0.056397
0.0561098
0.0558925
0.0556875
0.0555198
0.0597006
0.0595134
0.0592391
0.0589484
0.058619
0.0582318
0.0579492
0.0577843
0.0576237
0.0573407
0.0571579
0.0569368
0.0567596
0.0566085
0.0563389
0.056089
0.0558723
0.0603636
0.0601226
0.0599151
0.0597026
0.0594107
0.0591571
0.0588383
0.058456
0.0581843
0.0579729
0.0577827
0.0576431
0.0573939
0.0571496
0.0569484
0.0567635
0.0565326
0.0562997
0.0607798
0.0605348
0.0602836
0.0601084
0.0599082
0.0596989
0.0594508
0.0591166
0.0587847
0.05857
0.0582075
0.0580307
0.0577878
0.0575547
0.0573673
0.0571649
0.0569684
0.0567535
0.0612302
0.0609429
0.0607727
0.0604714
0.0603494
0.0601714
0.0601297
0.0599895
0.0596518
0.0591566
0.0588359
0.0585759
0.0583182
0.0580127
0.0576977
0.0575226
0.0573604
0.0571676
0.061799
0.0615169
0.0612058
0.0609538
0.0607529
0.0605763
0.0604743
0.0602642
0.0600887
0.0599706
0.059556
0.0592155
0.0589464
0.0586481
0.0583372
0.058004
0.057775
0.0575915
0.0624942
0.0622629
0.0620069
0.0617227
0.0614717
0.061224
0.0610301
0.0608936
0.0608996
0.0605801
0.0603234
0.0600854
0.0598139
0.0595163
0.0592638
0.0590286
0.0586659
0.0582968
0.05804
0.0628591
0.0626622
0.062459
0.062239
0.0619838
0.0617157
0.0614951
0.0612899
0.0611733
0.060878
0.0606503
0.0604317
0.0602177
0.0600038
0.0597367
0.0594646
0.0592458
0.0589249
0.0586226
0.0630121
0.0628438
0.0626208
0.0624168
0.0621791
0.0619461
0.0616518
0.0614219
0.0612391
0.0609736
0.0607691
0.0605608
0.060361
0.060141
0.0598871
0.0596504
0.0594076
0.0591631
0.0635412
0.0633032
0.0630647
0.0628273
0.0626145
0.062443
0.0621848
0.0618992
0.0615712
0.061351
0.0611084
0.0609034
0.0607248
0.0605172
0.0602896
0.0600573
0.0598131
0.064024
0.063777
0.0635435
0.0632917
0.0630424
0.0628218
0.062467
0.0624384
0.0620878
0.061802
0.0615142
0.0612939
0.0610933
0.0609062
0.0606933
0.0604751
0.0602004
0.0645448
0.064258
0.0640059
0.0637535
0.0634913
0.0631872
0.0629539
0.062678
0.0625454
0.0623464
0.0620018
0.0617418
0.0615164
0.0613084
0.0610997
0.0608848
0.0606526
0.0652145
0.0649904
0.0647593
0.0644634
0.06421
0.063923
0.0636032
0.0633837
0.063196
0.062994
0.0627708
0.0625214
0.0621998
0.0619487
0.0617301
0.0615175
0.0612973
0.0611091
0.0657347
0.0654821
0.0651931
0.0649461
0.0646593
0.0643636
0.0641656
0.064063
0.063619
0.0634131
0.063198
0.0629897
0.0627442
0.0624142
0.0621669
0.0619398
0.0617206
0.0662157
0.0659655
0.0656854
0.065402
0.0650847
0.0647691
0.0643995
0.0642022
0.0640543
0.0638523
0.0636264
0.063401
0.0632027
0.0629658
0.0626845
0.0624064
0.0621696
0.0666735
0.0664381
0.0662139
0.065911
0.0655444
0.0651327
0.0648911
0.0647281
0.0644436
0.0642761
0.0640719
0.0638483
0.0635969
0.0633771
0.0631472
0.0628934
0.0626451
0.0672198
0.0669319
0.0666577
0.0664015
0.0660586
0.0656582
0.0652864
0.0651103
0.0647874
0.0646428
0.0644914
0.0642906
0.0640667
0.0638371
0.0635834
0.0633652
0.063109
0.0676742
0.0674678
0.0671865
0.0668976
0.0666221
0.0662928
0.065848
0.0650965
0.0652024
0.0650827
0.0649446
0.0647271
0.064495
0.0642723
0.0640353
0.0637877
0.06356
0.0681279
0.0678927
0.0676757
0.0674739
0.0671815
0.0669996
0.0666877
0.0661797
0.0658155
0.0655491
0.0653597
0.0651943
0.0649847
0.0647154
0.0644899
0.0642537
0.063997
0.068324
0.0680906
0.0678687
0.0676121
0.0673852
0.0671327
0.0669823
0.0665893
0.0661575
0.0658374
0.0656102
0.0654009
0.0651737
0.0649296
0.0647279
0.0644595
0.0690884
0.0686866
0.0683385
0.0681135
0.06786
0.0676364
0.0675117
0.0670819
0.0667491
0.0664079
0.0660666
0.0658034
0.0656087
0.0653673
0.0651331
0.0701233
0.0698728
0.0694655
0.0690467
0.0686087
0.0684217
0.0681043
0.067773
0.06762
0.0672644
0.0669109
0.0665963
0.0663528
0.0660688
0.065824
0.0655947
0.0706089
0.0703846
0.0701623
0.0697965
0.0693829
0.0688706
0.0684583
0.0685317
0.0680685
0.0678309
0.0675145
0.0671395
0.0667103
0.0665182
0.0662884
0.0660495
0.0711615
0.0709131
0.0706578
0.0703295
0.0699871
0.0696173
0.0691792
0.0689698
0.0686058
0.068339
0.0681044
0.0678076
0.0674024
0.0670148
0.0667355
0.0665149
0.0719542
0.0716759
0.0714075
0.0711549
0.07096
0.070614
0.0702778
0.0699777
0.0696831
0.0693701
0.0690209
0.0686289
0.0683014
0.0680403
0.0677232
0.0673719
0.0723943
0.0721225
0.0719145
0.0716966
0.0714265
0.0711931
0.07084
0.0705089
0.070196
0.0699851
0.069668
0.0693319
0.0689398
0.068602
0.0683599
0.0680766
0.072966
0.0726295
0.0723222
0.0721039
0.0719045
0.0716337
0.0714041
0.0711187
0.0707623
0.0705288
0.0703202
0.0700823
0.0697489
0.0693209
0.0689466
0.0685912
0.0736152
0.0732137
0.0727837
0.0724934
0.072289
0.0720915
0.071847
0.0715265
0.0712708
0.0709989
0.0707879
0.0706137
0.0704039
0.0701293
0.0696681
0.0692837
0.074286
0.0738194
0.0734784
0.0731254
0.072754
0.0725419
0.0722945
0.0720593
0.0717146
0.0714628
0.0712069
0.0709599
0.0708422
0.0706644
0.0703705
0.0700554
0.0748784
0.0745663
0.0741891
0.0738484
0.0735045
0.0732105
0.0728767
0.0725844
0.0723481
0.0719619
0.0716444
0.0714353
0.0712581
0.0710152
0.0708147
0.075457
0.0752124
0.0748726
0.0745196
0.0741298
0.0737945
0.0735065
0.0732253
0.0729274
0.0726251
0.0723021
0.0718913
0.0716277
0.0714563
0.0712655
0.0710084
0.075966
0.0757089
0.0754743
0.0752238
0.0748331
0.0744256
0.0740997
0.0737586
0.0735453
0.0732368
0.0729503
0.0726561
0.0722327
0.0719275
0.0717273
0.0715113
0.076428
0.0762155
0.0759428
0.0756861
0.0754065
0.0750574
0.0747421
0.0744379
0.0741129
0.0738324
0.0735573
0.0732893
0.0730397
0.0726552
0.0722691
0.0767349
0.0764177
0.0761939
0.0759806
0.0756804
0.0753224
0.0749865
0.0747191
0.0744412
0.0741566
0.0738198
0.0735777
0.0732635
0.0729568
0.0777092
0.0772087
0.0768131
0.0765414
0.0762387
0.0759251
0.0755814
0.075301
0.0749982
0.0747566
0.0744725
0.074111
0.0738407
0.0785319
0.0782987
0.0779461
0.0776026
0.077231
0.0768586
0.076525
0.0762227
0.0759009
0.0755887
0.0752629
0.0749602
0.0747027
0.0743414
0.0790103
0.0787341
0.0785156
0.0782097
0.0779053
0.077501
0.0771947
0.0767876
0.0764715
0.0761619
0.0758173
0.0755099
0.0752293
0.0749573
0.0795527
0.0792721
0.0789765
0.078662
0.0784535
0.0781356
0.0778048
0.0774375
0.0771018
0.0768016
0.0763921
0.0760655
0.0757819
0.0755284
0.0800044
0.0798167
0.0795386
0.0792517
0.0789801
0.0786531
0.0784167
0.0780853
0.0777127
0.0773704
0.0770807
0.076667
0.0763627
0.0760824
0.0804592
0.0802487
0.0800589
0.0798511
0.0796331
0.079398
0.0789885
0.0786699
0.0783205
0.077944
0.0776181
0.0773441
0.0770189
0.0766648
0.0808803
0.0806321
0.0804334
0.0803176
0.08014
0.0798105
0.0795843
0.079342
0.0790175
0.0786178
0.0781537
0.0778457
0.0775981
0.0805495
0.0804611
0.0802159
0.0798296
0.0796396
0.0793714
0.0789098
0.0783546
0.0780395
0.0807959
0.0807269
0.0804772
0.0801107
0.0798705
0.0796503
0.0793089
0.0788061
0.0813277
0.0810307
0.0809616
0.0808716
0.0805172
0.080114
0.0798684
0.0822067
0.0818511
0.0813902
0.0811973
0.0810666
0.0807803
0.0804171
0.0822403
0.0819037
0.0815798
0.0813242
0.0810791
0.0834043
0.082932
0.0823064
0.0822918
0.0819331
0.0816456
0.0859598
0.0857129
0.0844111
0.083875
0.0824222
0.0860314
0.0856922
0.0854049
0.0850932
0.0848685
0.0829458
0.0864941
0.0852549
0.0848254
0.0846508
0.084157
0.0867617
0.0859859
0.0853174
0.00615586
0.005902
0.00572839
0.00814132
0.00772311
0.00734217
0.00702293
0.00664892
0.00628665
0.00595553
0.00576365
0.0042821
0.00979559
0.00943534
0.00896995
0.00863828
0.0082392
0.00784407
0.00748774
0.00712128
0.00674279
0.0063768
0.00597802
0.00569945
0.00534313
0.00486534
0.00451988
0.0110644
0.0106787
0.0103364
0.00991674
0.0095657
0.0091031
0.00872278
0.00836715
0.00797924
0.00759647
0.00721912
0.00678402
0.00640814
0.00603351
0.00567502
0.00535673
0.00495845
0.00452145
0.00424223
0.00367482
0.00308491
0.00273828
0.0124225
0.012111
0.0116553
0.0112449
0.0107945
0.010422
0.0100469
0.00962867
0.00922129
0.00882176
0.00845733
0.00809525
0.00772321
0.00735459
0.00692222
0.00652522
0.00600753
0.005711
0.00539475
0.00500595
0.00463201
0.00421131
0.00372669
0.014011
0.01352
0.0131645
0.012668
0.0122804
0.0117616
0.0113295
0.0109141
0.0105518
0.0101635
0.00973157
0.00930006
0.0088829
0.00853125
0.00812904
0.00786063
0.00755211
0.00720159
0.00649067
0.0060534
0.00573702
0.00544468
0.00507045
0.00472143
0.00432483
0.0149687
0.0144655
0.0141807
0.0137583
0.0133418
0.0127592
0.0124067
0.0118747
0.0114194
0.011013
0.0106832
0.0103079
0.00989404
0.00933963
0.00889882
0.00858281
0.00824582
0.00796575
0.00767802
0.00725121
0.00656452
0.00614364
0.0058341
0.00551911
0.00515055
0.0162607
0.0156667
0.0150803
0.0147423
0.0143231
0.0138589
0.0135251
0.013243
0.0127446
0.0121078
0.0115351
0.0111168
0.0108354
0.0104834
0.0102219
0.00948906
0.00892915
0.00863555
0.00832136
0.00801792
0.0076967
0.0073526
0.00672484
0.00629395
0.00595083
0.0175611
0.017049
0.0164457
0.015784
0.0152647
0.0149367
0.0145404
0.0141165
0.0136615
0.0134398
0.0130464
0.0124468
0.0118063
0.011269
0.0109889
0.0107294
0.0104427
0.00973278
0.009012
0.0086854
0.00838805
0.00804171
0.00771077
0.00731013
0.00686073
0.0195951
0.0191144
0.0183724
0.017837
0.0171996
0.016528
0.0159623
0.0154785
0.0151173
0.0147646
0.0142556
0.0138381
0.0136057
0.0133211
0.0127995
0.0122289
0.0116044
0.0111115
0.0108033
0.0105501
0.00988901
0.00917807
0.00878414
0.00847366
0.0081122
0.00771162
0.0208218
0.0204628
0.0201083
0.0197557
0.0192986
0.0186648
0.0180581
0.0173605
0.0166749
0.0162583
0.0157609
0.0153051
0.0148254
0.0143317
0.0139703
0.0137019
0.0134073
0.0130196
0.0125532
0.0118898
0.0113522
0.0109412
0.0104321
0.00985806
0.00943276
0.0089152
0.00858882
0.021321
0.0209974
0.0206391
0.0203023
0.0198749
0.0194166
0.0188579
0.0182925
0.0177127
0.0170925
0.0165381
0.0159805
0.015466
0.014947
0.0143916
0.0141158
0.0138304
0.0135194
0.0131684
0.0128042
0.0123225
0.011641
0.0111988
0.0106207
0.00995122
0.023284
0.0228565
0.022276
0.0217166
0.0212787
0.0207898
0.0204997
0.0201146
0.0195126
0.0190314
0.0185096
0.017951
0.0173981
0.0167532
0.0162204
0.0157048
0.0150876
0.0145251
0.0142506
0.013972
0.0136575
0.0133702
0.0130622
0.0126431
0.0120532
0.0238634
0.0234376
0.0230999
0.0226399
0.0220855
0.0214765
0.0210759
0.0207541
0.0202532
0.0197712
0.0191937
0.0187452
0.0182138
0.0176582
0.0169872
0.0164426
0.0158461
0.0152605
0.0147161
0.014382
0.0141049
0.0138359
0.0135552
0.0132528
0.0251026
0.0249092
0.0245461
0.0240941
0.0236252
0.0233256
0.0229681
0.0224562
0.0219841
0.0214073
0.0210248
0.0205597
0.0200563
0.0196442
0.019065
0.0184799
0.0179164
0.0172834
0.0166775
0.0160708
0.0154466
0.0149156
0.014573
0.0142637
0.0139501
0.0258711
0.0255239
0.0252444
0.0250396
0.0248137
0.0242722
0.0239465
0.0236581
0.0233079
0.0229018
0.0223024
0.0217625
0.0213602
0.0208725
0.0203967
0.0199097
0.0193906
0.0188209
0.0182268
0.0176335
0.0169505
0.0161917
0.0154938
0.0151141
0.0146824
0.0265645
0.0262748
0.0259944
0.0256815
0.0253736
0.0251114
0.0248739
0.0245152
0.0242344
0.0239787
0.0236605
0.0232208
0.0226254
0.0221819
0.0215997
0.0211815
0.0207231
0.0202922
0.0197406
0.0191911
0.0186516
0.0180119
0.0173688
0.0165698
0.0157619
0.0275305
0.0272445
0.0269868
0.0267191
0.0264478
0.0261833
0.0258181
0.025543
0.0251745
0.0249544
0.0246806
0.0244316
0.0241843
0.0238166
0.0234974
0.0229949
0.0224416
0.0219278
0.0215607
0.0210535
0.0206035
0.0200858
0.0195227
0.0189803
0.018416
0.0178006
0.0283136
0.0280869
0.0277124
0.0274106
0.0271419
0.0268532
0.0266024
0.0263371
0.0260323
0.025695
0.0253688
0.0250549
0.0248199
0.0245757
0.0243572
0.0239726
0.023499
0.0232155
0.0227679
0.0223514
0.0219721
0.0214029
0.0209112
0.0203832
0.0198889
0.0193381
0.0293116
0.0288784
0.0284689
0.0281684
0.0278646
0.0275176
0.02722
0.0269758
0.0267396
0.026503
0.0261397
0.0258072
0.0256058
0.0252196
0.0249662
0.0247159
0.0244176
0.0240087
0.0235183
0.0232692
0.0230267
0.0225008
0.0222184
0.0218803
0.021258
0.0207261
0.0202266
0.0300499
0.0297776
0.0294145
0.0290298
0.0286325
0.0282591
0.0279232
0.0276204
0.0273391
0.0270898
0.0268506
0.0266191
0.0263828
0.0260033
0.0256658
0.0254177
0.0251438
0.0248968
0.0245578
0.0240632
0.0235761
0.0232741
0.0229787
0.0226347
0.0223516
0.0220971
0.0217442
0.030667
0.0302739
0.029927
0.0295738
0.0291721
0.0287447
0.0283717
0.0280205
0.0276862
0.0274085
0.0271676
0.0269373
0.0267094
0.026472
0.0261964
0.0258888
0.025609
0.0253584
0.0251334
0.0248599
0.0242953
0.0237284
0.0233532
0.0230838
0.022758
0.0224425
0.0316869
0.0312172
0.0308371
0.0304564
0.0300747
0.0297263
0.0292611
0.0289625
0.02862
0.0282126
0.0278676
0.0275222
0.0272319
0.0270238
0.0268034
0.0265643
0.0263056
0.0260292
0.0257625
0.0255204
0.0253475
0.0249924
0.024378
0.0238852
0.0235249
0.0232086
0.032574
0.0322026
0.0318523
0.0314724
0.031065
0.030668
0.0302987
0.0298481
0.0294934
0.0291516
0.0287265
0.028323
0.0278847
0.0276514
0.027341
0.0271254
0.0269089
0.026673
0.0264174
0.026154
0.0259015
0.0256355
0.0253331
0.0249772
0.0246193
0.0241416
0.0331222
0.0328043
0.0324435
0.0320301
0.0316609
0.0311693
0.0308936
0.0305005
0.0300347
0.0296762
0.0293264
0.0288873
0.0285034
0.0280541
0.027701
0.0274861
0.0272637
0.0270346
0.0267941
0.0265405
0.0262575
0.0260026
0.0257313
0.0254334
0.0251247
0.0340433
0.0337267
0.0333902
0.0330649
0.0327068
0.0322843
0.0320012
0.0314942
0.0310372
0.0305887
0.0302579
0.0299109
0.0294997
0.0291001
0.0287069
0.0282917
0.027926
0.0276532
0.0274269
0.0271854
0.0269389
0.0266714
0.0263898
0.026111
0.0258634
0.0255888
0.0349247
0.0346062
0.0342859
0.0339532
0.0336158
0.0332865
0.0329532
0.0324133
0.0321671
0.0317838
0.0313232
0.0308993
0.0304728
0.0300639
0.0297181
0.0293215
0.0288744
0.0284823
0.0282394
0.0278315
0.0276156
0.0273533
0.0270716
0.0267965
0.0265452
0.0262768
0.0357885
0.035433
0.0351092
0.0348034
0.0344829
0.034184
0.0338642
0.0335372
0.0331709
0.0327144
0.0323535
0.0320224
0.0315516
0.0311293
0.0307108
0.0302899
0.0299052
0.0295999
0.0292128
0.0286729
0.0283239
0.0280308
0.0278182
0.0275251
0.027242
0.0269723
0.0266947
0.036265
0.0359322
0.0356205
0.0352815
0.0349928
0.0346859
0.034395
0.0340964
0.0337875
0.0334651
0.0330462
0.0326301
0.0322874
0.03179
0.0313647
0.0309296
0.0304964
0.0301856
0.0297567
0.0295157
0.0290265
0.0286571
0.0282978
0.0280048
0.0277138
0.0274405
0.0370931
0.0368124
0.0365109
0.0361337
0.0357808
0.0354502
0.0351723
0.034938
0.0346646
0.0343518
0.0340079
0.0336679
0.0333098
0.0329747
0.0325284
0.0320543
0.0315916
0.0311039
0.0305813
0.0305772
0.0300327
0.0296008
0.0292637
0.0288745
0.02847
0.0281905
0.0375361
0.0372893
0.0370409
0.0367589
0.0363675
0.0361423
0.0357949
0.0354395
0.0351227
0.0348341
0.0345706
0.034231
0.0338798
0.0334463
0.0331577
0.0327819
0.032234
0.0317708
0.0315245
0.0311129
0.0306409
0.0301903
0.0298211
0.0294884
0.0290989
0.0382673
0.0380057
0.0377392
0.0374488
0.0372221
0.0369963
0.0366103
0.0361832
0.0359998
0.0357473
0.0353798
0.0349781
0.0347402
0.0344731
0.034122
0.0337712
0.0333828
0.0330395
0.0326172
0.0320366
0.0316027
0.0312625
0.0308524
0.0304603
0.030021
0.0387605
0.0384569
0.0381847
0.0378996
0.0376258
0.0373964
0.0371647
0.0368138
0.0363805
0.0362121
0.0360106
0.0356633
0.0352652
0.0349519
0.0346445
0.0343023
0.0339962
0.0336112
0.0332802
0.032745
0.0322463
0.0318142
0.0314249
0.0310522
0.0307275
0.0395862
0.0392699
0.0389511
0.0386107
0.0383268
0.0380383
0.0377703
0.037524
0.0373047
0.0370221
0.0365976
0.0362819
0.0360686
0.0359641
0.0355676
0.0351949
0.0348557
0.0344646
0.0342056
0.0340071
0.0334041
0.0329202
0.0324733
0.0320933
0.0316503
0.0401776
0.0398504
0.0394966
0.0391413
0.0387866
0.0385093
0.0382263
0.0379569
0.0377011
0.0372949
0.0372378
0.0368802
0.0365725
0.0362639
0.0359472
0.0357282
0.0354584
0.035039
0.0346541
0.0344471
0.0340771
0.0335338
0.0331776
0.0327589
0.0323258
0.0408732
0.0406564
0.0403923
0.0401004
0.039723
0.0395171
0.0392761
0.0388322
0.0384647
0.0381872
0.0379132
0.0375027
0.0373055
0.0370903
0.0367766
0.0365544
0.036304
0.0359488
0.0356479
0.035303
0.0348959
0.0346016
0.0342436
0.0338042
0.0334153
0.041332
0.0410978
0.0408638
0.0406246
0.0403917
0.0399744
0.0395525
0.0394042
0.0390746
0.0387666
0.0383786
0.0380367
0.0377123
0.0374208
0.0371955
0.0369446
0.0367162
0.0365317
0.0362742
0.0359331
0.0355723
0.0351801
0.0348315
0.0343681
0.0419881
0.0417317
0.0415011
0.0412571
0.0410248
0.0408144
0.0405833
0.040249
0.0397841
0.0396241
0.0393454
0.0390169
0.0386898
0.038316
0.0379789
0.0376742
0.0374002
0.0371566
0.0369059
0.0366845
0.0364055
0.0361055
0.0357812
0.0354365
0.0351099
0.0423728
0.0421331
0.0419212
0.0416957
0.0414565
0.0412149
0.0410104
0.0407612
0.0404116
0.0401171
0.0398926
0.0396486
0.0393127
0.038967
0.0385947
0.0382576
0.0379368
0.0375554
0.0373085
0.0370938
0.0368348
0.0365559
0.0362989
0.0359785
0.0430027
0.0427653
0.0425463
0.0422993
0.0420843
0.0418793
0.0416461
0.0414153
0.0412072
0.0409816
0.0406411
0.040303
0.0400773
0.0398116
0.0394033
0.0390787
0.0387949
0.0385425
0.0381284
0.0378159
0.0375544
0.0372841
0.0369992
0.0367551
0.0364822
0.0434054
0.043166
0.0429476
0.0427211
0.0424818
0.0422669
0.0420473
0.0418361
0.0415672
0.0412402
0.0411086
0.0408288
0.0405027
0.040294
0.0400001
0.0397366
0.0394036
0.0390124
0.0387029
0.0383585
0.0380463
0.037758
0.0374976
0.0372184
0.0440432
0.0438088
0.0435723
0.0433153
0.0431009
0.0429002
0.0426709
0.0424715
0.0422451
0.0420263
0.0417999
0.0413955
0.0412001
0.0409342
0.0406975
0.0404468
0.0401359
0.0398953
0.0396394
0.0392988
0.038923
0.0385964
0.0382573
0.0380076
0.0377509
0.0444236
0.0441931
0.0439682
0.0437357
0.0434924
0.0432748
0.0430551
0.0428607
0.0426529
0.0424485
0.0421643
0.0420422
0.0417398
0.0414128
0.0410703
0.0408855
0.0406191
0.0403109
0.0400481
0.039798
0.0394578
0.0390946
0.0388189
0.0385057
0.0448226
0.0446061
0.0443591
0.0441101
0.043895
0.0436555
0.0434446
0.0432202
0.0430223
0.0428272
0.0426324
0.0423114
0.042116
0.0418728
0.0416351
0.0413385
0.0409681
0.0407146
0.0404374
0.040221
0.0399603
0.0396304
0.0393339
0.0390501
0.0454455
0.0452309
0.0450063
0.0447453
0.0445025
0.0442771
0.0440357
0.0438096
0.0435822
0.0433763
0.0431742
0.042987