/*--------------------------------*- C++ -*----------------------------------*\
| =========                 |                                                 |
| \\      /  F ield         | OpenFOAM: The Open Source CFD Toolbox           |
|  \\    /   O peration     | Version:  5.x                                   |
|   \\  /    A nd           | Web:      www.OpenFOAM.org                      |
|    \\/     M anipulation  |                                                 |
\*---------------------------------------------------------------------------*/
FoamFile
{
    version     2.0;
    format      ascii;
    class       volScalarField;
    location    "700";
    object      epsilon;
}
// * * * * * * * * * * * * * * * * * * * * * * * * * * * * * * * * * * * * * //

dimensions      [0 2 -3 0 0 0 0];

internalField   nonuniform List<scalar> 
20540
(
0.241032
0.157972
0.241032
0.258822
0.241032
0.347297
0.241032
0.418202
0.241032
0.466914
0.241032
0.489711
0.241032
0.484621
0.241032
0.45208
0.241032
0.395584
0.241032
0.32204
0.241032
0.241375
0.241032
0.164971
0.241032
0.10268
0.241032
0.0591027
0.241032
0.0326677
0.241032
0.0204322
0.241032
0.0171312
0.241032
0.0165628
0.241032
0.016475
0.241032
0.0164608
0.241032
0.0164587
0.241032
0.016459
0.241032
0.0164598
0.241032
0.016461
0.241032
0.0164624
0.241032
0.0164642
0.241032
0.0164661
0.241032
0.0164683
0.241032
0.0164705
0.241032
0.0164725
0.241032
0.016474
0.241032
0.0164747
0.241032
0.0164747
0.241032
0.016474
0.241032
0.0164725
0.241032
0.0164705
0.241032
0.0164684
0.241032
0.0164663
0.241032
0.0164644
0.241032
0.0164627
0.241032
0.0164612
0.241032
0.01646
0.241032
0.0164591
0.241032
0.0164587
0.241032
0.0164595
0.241032
0.0164663
0.241032
0.0165064
0.241032
0.01675
0.241032
0.0182261
0.241032
0.0250067
0.241032
0.0432241
0.241032
0.0759604
0.241032
0.125888
0.241032
0.192432
0.241032
0.269215
0.241032
0.346408
0.241032
0.413851
0.241032
0.463203
0.241032
0.488955
0.241032
0.48856
0.241032
0.462056
0.241032
0.411509
0.241032
0.340537
0.241032
0.25384
0.241032
0.158308
654830
641978
597339
564755
541007
523130
509193
497992
488788
481099
474592
469022
464209
460016
456337
453090
450210
447642
445343
443275
441410
439722
438191
436798
435529
434368
433304
432327
431428
430599
429834
429128
428475
427870
427311
426794
426315
425873
425465
425091
424748
424437
424158
423911
423698
423520
423380
423281
423227
423223
423274
423386
423565
423818
424153
424576
425099
425731
426483
427368
428401
429595
431039
432162
433311
434472
435701
436999
438365
439800
441305
442879
444525
446244
448038
449911
451868
453913
456053
458301
460669
463178
465858
468766
471961
475796
480996
501075
696499
544904
482872
447902
424613
407828
395048
384922
376680
369844
364090
359186
354963
351293
348081
345251
342745
340513
338516
336722
335106
333643
332317
331112
330013
329009
328088
327244
326466
325750
325089
324478
323914
323392
322909
322462
322049
321668
321318
320997
320705
320441
320207
320003
319831
319693
319592
319531
319516
319551
319641
319794
320016
320314
320697
321172
321752
322445
323267
324230
325357
326636
328258
329588
330856
332084
333414
334837
336346
337939
339617
341382
343237
345184
347229
349376
351634
354012
356521
359178
362006
365036
368316
371912
375991
380657
386903
385951
470752
381861
337022
312183
295899
284266
275459
268504
262856
258179
254246
250897
248015
245511
243320
241390
239681
238159
236798
235576
234473
233477
232573
231751
231002
230317
229690
229114
228584
228095
227644
227228
226843
226487
226157
225852
225571
225311
225071
224852
224653
224473
224313
224173
224056
223961
223892
223850
223839
223862
223923
224027
224178
224380
224640
224963
225357
225828
226386
227039
227803
228672
229758
230638
231510
232357
233255
234212
235226
236296
237422
238604
239844
241144
242506
243933
245429
247000
248652
250394
252239
254203
256311
258600
261132
263979
266857
262506
326157
281058
247945
229372
217293
208720
202259
197175
193055
189649
186787
184353
182259
180441
178851
177451
176211
175107
174121
173234
172435
171713
171057
170462
169919
169422
168967
168550
168166
167812
167485
167183
166904
166645
166406
166185
165981
165792
165618
165459
165314
165183
165066
164964
164877
164807
164754
164721
164710
164723
164763
164832
164935
165074
165253
165476
165748
166075
166462
166915
167445
168050
168790
169378
169988
170587
171209
171868
172564
173297
174066
174872
175716
176599
177521
178484
179489
180541
181641
182795
184008
185289
186649
188105
189667
191369
192583
188978
229533
213809
189206
174833
165501
158908
153960
150080
146944
144356
142184
140338
138752
137375
136172
135112
134175
133340
132594
131924
131320
130774
130279
129829
129419
129044
128700
128385
128095
127827
127580
127352
127141
126946
126765
126598
126444
126301
126169
126048
125938
125838
125749
125671
125604
125549
125507
125479
125467
125472
125496
125542
125612
125708
125832
125988
126179
126409
126681
127000
127373
127800
128312
128709
129138
129567
130006
130467
130952
131460
131993
132550
133131
133736
134366
135022
135704
136412
137150
137917
138718
139554
140429
141350
142301
143287
143718
141374
161930
165815
147869
136551
129149
123932
120030
116981
114523
112498
110801
109360
108123
107051
106114
105289
104560
103911
103331
102810
102341
101917
101532
101182
100864
100572
100305
100060
99835
99627.2
99435.4
99258.2
99094.4
98942.7
98802.3
98672.4
98552.1
98440.9
98338.4
98244.1
98158
98079.7
98009.5
97947.5
97894
97849.5
97814.6
97790
97776.8
97776.4
97790
97819.3
97865.7
97931
98017
98125.8
98259.7
98421.1
98613
98838.4
99100.7
99403.8
99757.6
100025
100325
100633
100943
101267
101605
101958
102327
102711
103110
103525
103954
104399
104858
105333
105823
106329
106851
107389
107942
108511
109071
109608
109682
108302
113249
129816
117385
108447
102487
98276.8
95136.3
92689.2
90721.6
89103.6
87750.2
86602.5
85618
84765.1
84020.4
83365.6
82786.5
82271.5
81811.3
81398.3
81026.2
80689.9
80385
80107.9
79855.4
79624.6
79413.2
79219
79040.4
78875.8
78723.9
78583.5
78453.7
78333.5
78222.3
78119.2
78023.8
77935.5
77854
77779
77710.2
77647.6
77591.1
77540.9
77497.1
77460.1
77430.3
77408.1
77394.3
77389.7
77395.5
77412.6
77442.2
77485.5
77543.7
77618.2
77710.8
77823
77956.8
78114.3
78297.5
78510.3
78752.6
78930.2
79136.2
79353.4
79571.7
79796.6
80030.3
80273.3
80525.7
80787.3
81057.9
81337.4
81625.3
81921.5
82225.7
82537.3
82856.1
83181.5
83512.6
83848.2
84185.4
84520.9
84829.3
85088.2
85004.2
84204.2
77712.5
101779
94095.2
87132.7
82305.6
78868.6
76304.1
74310.2
72710.5
71397.6
70301
69372.3
68576.5
67887.7
67286.8
66758.7
66291.9
65877
65506.4
65173.9
64874.4
64603.8
64358.5
64135.6
63932.5
63746.9
63576.9
63420.8
63277.2
63144.8
63022.7
62909.8
62805.4
62708.7
62619.2
62536.3
62459.4
62388.3
62322.5
62261.8
62206.1
62155.1
62109
62067.6
62031.2
61999.8
61973.9
61953.6
61939.4
61932
61932
61940.3
61957.5
61984.6
62022.4
62071.8
62134
62210
62301.1
62408.8
62534.1
62680.3
62842.8
62957.9
63095
63244
63394
63547.3
63705.4
63868.7
64037.3
64211
64389.7
64572.9
64760.4
64951.6
65146.2
65343.5
65542.8
65743.2
65943.4
66141.5
66333.8
66515.4
66663.2
66755
66604.9
66104.1
51763
79305.6
75783.6
70553.8
66666
63847.3
61735
60093.2
58778
57700.1
56801
56040.5
55389.5
54826.6
54335.8
53904.8
53524.1
53185.9
52883.9
52613
52369.1
52148.8
51949.1
51767.7
51602.5
51451.5
51313.2
51186.2
51069.4
50961.7
50862.4
50770.6
50685.6
50607
50534.1
50466.6
50404
50346
50292.2
50242.6
50196.9
50154.9
50116.7
50082.2
50051.4
50024.5
50001.6
49983
49968.7
49959.3
49955.2
49957.1
49965.3
49980.5
50003.2
50034.1
50073.7
50123
50182.6
50253.5
50336.1
50433
50538
50609.5
50696.4
50794.2
50893.3
50994.2
51097.3
51202.9
51311.1
51421.7
51534.5
51649.2
51765.3
51882.5
52000.2
52117.7
52234.3
52348.9
52460.1
52565.8
52662.4
52744.5
52792.6
52788.3
52614.1
52253.1
33054.7
60904.1
61018.3
57382.5
54315.8
52014.1
50270.1
48910.4
47821.1
46928.9
46185.3
45556.9
45019.5
44555.2
44150.6
43795.7
43482.2
43203.9
42955.5
42732.8
42532.3
42351.3
42187.3
42038.3
41902.6
41778.6
41665
41560.8
41464.9
41376.5
41294.9
41219.6
41149.8
41085.2
41025.4
40969.9
40918.4
40870.6
40826.3
40785.3
40747.4
40712.5
40680.6
40651.5
40625.2
40601.9
40581.6
40564.5
40550.3
40539.7
40532.8
40530.1
40531.8
40538.3
40549.9
40567.2
40590.3
40619.9
40656.3
40700.1
40751.3
40811.9
40875.7
40916.8
40967.9
41027.8
41089.1
41151.5
41214.7
41278.9
41343.9
41409.6
41475.7
41542
41608.2
41673.7
41738.2
41800.9
41861.2
41918
41970
42015.2
42050.2
42070.1
42059.1
42003.6
41826.1
41532.8
19927.1
45640.4
48830.8
46712.4
44402.7
42555.2
41123.4
39997.7
39093
38351.3
37733
37210.6
36764.1
36378.5
36042.8
35748.3
35488.5
35257.8
35052
34867.5
34701.5
34551.6
34415.9
34292.6
34180.3
34077.8
33983.8
33897.6
33818.3
33745.2
33677.7
33615.4
33557.7
33504.3
33454.8
33408.8
33366.1
33326.5
33289.7
33255.6
33224
33194.7
33167.7
33143
33120.5
33100.2
33082.1
33066.3
33052.6
33041.3
33032.6
33026.7
33023.8
33024.1
33027.8
33035.1
33046.3
33061.5
33081.1
33105.2
33133.7
33167.8
33202.4
33222.8
33249
33281.4
33315.3
33349.8
33384.5
33419.2
33453.8
33488
33521.8
33554.7
33586.6
33617
33645.5
33671.6
33694.7
33713.8
33727.7
33734.7
33731.9
33715
33671.5
33592.3
33423.6
33173.4
11114
32948
38548.8
37896.8
36320
34893.5
33739.3
32815.4
32066.8
31450.5
30935.8
30500.6
30128.3
29806.9
29527
29281.6
29065.1
28873
28701.6
28548
28409.8
28285
28172.1
28069.5
27976.1
27890.8
27812.6
27740.9
27674.9
27614.1
27558
27506.1
27458.1
27413.6
27372.4
27334.1
27298.6
27265.5
27234.8
27206.2
27179.6
27155
27132.1
27111
27091.5
27073.8
27057.6
27043.1
27030.1
27018.6
27008.9
27000.9
26995
26991
26989.2
26989.6
26992.2
26997.3
27004.8
27014.9
27027.3
27042.6
27057
27063.6
27073
27086.5
27101
27115.8
27130.6
27144.9
27158.6
27171.4
27183.3
27193.9
27203.1
27210.4
27215.6
27218.3
27217.8
27213.4
27204.1
27188.4
27164
27127.1
27068.6
26982.1
26829.3
26616.8
5577.69
22517.6
29710.8
30459.3
29618.6
28603.9
27710.3
26968.9
26357.7
25849.9
25423.5
25061.8
24751.8
24483.9
24250.4
24045.6
23864.8
23704.4
23561.2
23432.9
23317.5
23213.4
23119
23033.4
22955.4
22884.1
22818.9
22759
22703.9
22653.1
22606.2
22562.9
22522.8
22485.6
22451.1
22419.1
22389.4
22361.7
22335.9
22311.8
22289.4
22268.6
22249.1
22231
22214.2
22198.6
22184.3
22171
22158.8
22147.6
22137.4
22128.4
22120.5
22113.8
22108.3
22104
22100.9
22099
22098.3
22098.8
22100.1
22102.5
22103.4
22101.2
22099.9
22100.8
22102.3
22104
22105.3
22106
22105.9
22104.9
22102.6
22099
22093.9
22086.9
22077.9
22066.4
22052
22034.1
22011.8
21984
21948.7
21902.9
21840
21755.6
21622.7
21446.4
2421.82
14213.5
22026.1
24044.4
23954.9
23362
22727
22160.3
21676.5
21266.6
20918.5
20621
20365
20142.8
19948.9
19778.5
19627.9
19494.1
19374.7
19267.6
19171.3
19084.2
19005.5
18933.9
18868.7
18809.1
18754.6
18704.4
18658.3
18615.8
18576.6
18540.3
18506.8
18475.7
18446.8
18420
18395
18371.7
18350.1
18329.8
18310.9
18293.2
18276.6
18261.1
18246.6
18233
18220.2
18208.3
18197
18186.3
18176.2
18166.7
18157.9
18149.6
18141.9
18134.7
18128
18121.6
18115.6
18109.9
18104
18098.1
18090.4
18082.8
18075.2
18068.6
18062
18055.2
18048.2
18040.4
18031.8
18022.3
18011.6
17999.6
17986.2
17971.1
17954.1
17935
17913.3
17888.6
17860.2
17827.1
17787.8
17740
17679
17601.7
17490
17347.2
862.115
7989.41
15362.4
18396.7
19060.9
18912.5
18547.5
18157.8
17798.9
17482.5
17207.3
16968.6
16761.1
16579.8
16420.7
16280.4
16156.1
16045.4
15946.5
15857.6
15777.5
15705.1
15639.5
15579.9
15525.6
15475.9
15430.4
15388.6
15350.1
15314.6
15281.8
15251.5
15223.4
15197.4
15173.2
15150.8
15129.9
15110.4
15092.2
15075.1
15059.1
15044.2
15030.1
15016.8
15004.3
14992.5
14981.3
14970.6
14960.4
14950.5
14940.8
14931.5
14922.3
14913.4
14904.6
14895.8
14887.1
14878.2
14869.1
14859.7
14849.6
14838.8
14826.2
14815.7
14804.7
14794
14783
14771.6
14759.8
14747.3
14734.1
14719.9
14704.8
14688.5
14670.9
14651.9
14631.3
14608.9
14584.3
14557.2
14527.1
14493.1
14454.1
14408.3
14352.5
14284.6
14193.3
14079.9
239.124
3783.22
9741.78
13361.2
14730.6
15050.1
14976.4
14775.6
14546.6
14324.7
14121.6
13939.7
13778.2
13635.1
13508.2
13395.4
13294.8
13204.9
13124.2
13051.4
12985.7
12926.3
12872.3
12823.1
12778.3
12737.3
12699.6
12665
12633
12603.6
12576.4
12551.2
12527.9
12506.3
12486.2
12467.5
12450
12433.8
12418.6
12404.3
12390.9
12378.3
12366.4
12355.1
12344.5
12334.3
12324.5
12315.2
12306.1
12297.1
12288.2
12279.3
12270.5
12261.5
12252.4
12243.2
12233.6
12223.6
12213
12201.8
12189.7
12176.5
12161.6
12150
12137.7
12125.3
12112.3
12098.9
12085
12070.5
12055.3
12039.3
12022.4
12004.6
11985.7
11965.6
11944.1
11921.2
11896.5
11869.7
11840.4
11808.1
11771.7
11730.1
11681.1
11623.4
11550.4
11461.5
52.1346
1385.71
5315.95
8904.19
10824.1
11611.5
11853.1
11860.2
11773.1
11652.7
11525.1
11401.6
11286.4
11181.1
11085.5
10999.2
10921.2
10850.9
10787.2
10729.4
10677
10629.4
10586
10546.3
10510.1
10476.8
10446.2
10418
10392
10368
10345.8
10325.2
10306.1
10288.3
10271.9
10256.5
10242.2
10228.8
10216.3
10204.5
10193.4
10182.9
10173
10163.6
10154.6
10146
10137.6
10129.6
10121.7
10113.8
10105.8
10097.8
10089.5
10081.1
10072.4
10063.3
10053.7
10043.6
10032.8
10021.2
10008.5
9994.66
9979.35
9967.69
9955.41
9942.82
9929.64
9915.95
9901.76
9887
9871.61
9855.54
9838.73
9821.11
9802.6
9783.11
9762.53
9740.71
9717.48
9692.57
9665.67
9636.29
9603.79
9567.29
9525.57
9477.75
9420.26
9351.23
9.62514
349.632
2276.07
5138.28
7291.2
8481.49
9047.53
9283.33
9355.5
9348.5
9304.44
9244.39
9178.88
9113.25
9050.18
8990.9
8935.81
8884.93
8838.07
8795.02
8755.52
8719.29
8686.06
8655.53
8627.43
8601.52
8577.59
8555.45
8534.96
8515.98
8498.37
8482.04
8466.86
8452.75
8439.61
8427.36
8415.9
8405.17
8395.1
8385.61
8376.66
8368.18
8360.12
8352.42
8345.04
8337.92
8331
8324.23
8317.54
8310.87
8304.02
8296.97
8289.68
8282.09
8274.15
8265.77
8256.86
8247.33
8237.05
8225.93
8213.73
8200.43
8185.82
8174.89
8163.4
8151.56
8139.16
8126.25
8112.87
8098.96
8084.5
8069.45
8053.78
8037.43
8020.34
8002.45
7983.66
7963.87
7942.93
7920.64
7896.76
7870.94
7842.74
7811.61
7776.89
7738.1
7693.42
7640.16
1.57659
57.4889
659.561
2312.49
4213.14
5617.99
6469.38
6941.51
7189.6
7311.32
7362.64
7374.77
7365.15
7343.78
7316.48
7286.59
7256.01
7225.83
7196.68
7168.92
7142.76
7118.24
7095.35
7074
7054.09
7035.54
7018.23
7002.1
6987.07
6973.06
6960
6947.84
6936.5
6925.92
6916.03
6906.78
6898.1
6889.94
6882.26
6875
6868.12
6861.57
6855.32
6849.32
6843.54
6837.91
6832.41
6826.98
6821.57
6816.16
6810.54
6804.66
6798.51
6792.02
6785.14
6777.8
6769.93
6761.43
6752.21
6742.17
6731.13
6719.06
6705.87
6696.09
6685.82
6675.21
6664.11
6652.56
6640.56
6628.1
6615.16
6601.71
6587.72
6573.17
6558
6542.16
6525.59
6508.2
6489.87
6470.47
6449.82
6427.68
6403.78
6377.81
6349.47
6318.57
6284.15
6243.25
0.233131
7.09515
110.734
676.714
1834.42
3103
4097.78
4769.39
5194.55
5456.77
5616.32
5711.68
5766.85
5796.74
5810.64
5814.36
5811.57
5804.66
5795.25
5784.43
5772.91
5761.16
5749.45
5737.96
5726.81
5716.07
5705.78
5695.97
5686.66
5677.86
5669.55
5661.72
5654.35
5647.41
5640.88
5634.71
5628.88
5623.36
5618.12
5613.13
5608.37
5603.81
5599.41
5595.16
5591.02
5586.95
5582.93
5578.91
5574.85
5570.73
5566.47
5561.91
5557.04
5551.82
5546.2
5540.12
5533.53
5526.34
5518.48
5509.85
5500.32
5489.88
5478.48
5470.06
5461.21
5452.04
5442.46
5432.48
5422.1
5411.32
5400.12
5388.48
5376.39
5363.81
5350.71
5337.06
5322.79
5307.86
5292.17
5275.63
5258.12
5239.52
5219.66
5198.41
5175.67
5151.41
5125.07
5093.78
0.0346149
0.745533
11.5139
105.198
478.569
1195.98
2041.62
2778.43
3333.08
3726.66
3999.28
4186.79
4316.1
4405.71
4467.98
4511.2
4541.03
4561.4
4575.06
4583.93
4589.35
4592.27
4593.34
4593.07
4591.82
4589.88
4587.46
4584.73
4581.81
4578.79
4575.74
4572.69
4569.69
4566.74
4563.86
4561.05
4558.32
4555.66
4553.07
4550.55
4548.08
4545.66
4543.27
4540.91
4538.55
4536.17
4533.76
4531.28
4528.7
4525.99
4523.18
4520.05
4516.59
4512.77
4508.55
4503.89
4498.73
4493.02
4486.68
4479.65
4471.81
4463.16
4453.69
4446.69
4439.3
4431.62
4423.59
4415.2
4406.47
4397.39
4387.94
4378.11
4367.88
4357.24
4346.16
4334.62
4322.57
4309.97
4296.78
4282.92
4268.35
4252.98
4236.78
4219.69
4201.72
4182.9
4162.85
4138.98
0.00739054
0.0690695
0.942866
9.12091
59.619
242.307
618.183
1132.92
1664.65
2122
2481.21
2754.55
2960.77
3116.01
3233.12
3322.04
3390.19
3442.95
3484.14
3516.53
3542.13
3562.48
3578.71
3591.71
3602.18
3610.65
3617.52
3623.12
3627.7
3631.45
3634.52
3637.03
3639.08
3640.74
3642.07
3643.12
3643.94
3644.56
3645.01
3645.3
3645.46
3645.48
3645.39
3645.19
3644.86
3644.4
3643.81
3643.07
3642.16
3641.06
3639.77
3638.25
3636.36
3634.09
3631.41
3628.28
3624.68
3620.54
3615.83
3610.47
3604.4
3597.59
3590.07
3584.47
3578.51
3572.28
3565.74
3558.88
3551.72
3544.23
3536.43
3528.29
3519.82
3510.98
3501.77
3492.17
3482.16
3471.71
3460.79
3449.38
3437.45
3424.99
3411.99
3398.47
3384.47
3370.03
3354.84
3336.71
0.00242375
0.00611495
0.0656291
0.599317
4.07886
21.2674
82.7057
229.696
473.913
786.765
1119.19
1426.89
1687.42
1898.71
2068.18
2204.57
2314.95
2404.63
2477.76
2537.67
2587.06
2628.08
2662.43
2691.43
2716.09
2737.19
2755.36
2771.07
2784.73
2796.64
2807.08
2816.26
2824.36
2831.53
2837.9
2843.58
2848.65
2853.2
2857.29
2860.96
2864.26
2867.23
2869.88
2872.25
2874.34
2876.17
2877.74
2879.05
2880.09
2880.86
2881.35
2881.59
2881.47
2880.93
2879.95
2878.51
2876.59
2874.14
2871.14
2867.52
2863.25
2858.29
2852.69
2848.46
2843.87
2839.02
2833.89
2828.47
2822.76
2816.77
2810.48
2803.9
2797.02
2789.83
2782.33
2774.5
2766.33
2757.82
2748.97
2739.75
2730.19
2720.28
2710.05
2699.54
2688.78
2677.82
2666.39
2652.7
0.00184248
0.000886074
0.00404531
0.0328508
0.214487
1.12224
4.87518
17.7196
52.8546
126.631
247.029
408.399
596.068
792.206
980.675
1150.64
1297.54
1421.68
1525.92
1613.8
1688.49
1752.52
1807.75
1855.62
1897.25
1933.54
1965.28
1993.12
2017.65
2039.35
2058.62
2075.82
2091.23
2105.1
2117.63
2128.98
2139.3
2148.7
2157.3
2165.16
2172.36
2178.95
2185
2190.54
2195.61
2200.23
2204.43
2208.21
2211.6
2214.6
2217.21
2219.45
2221.37
2222.81
2223.75
2224.2
2224.13
2223.52
2222.34
2220.57
2218.16
2215.1
2211.42
2208.53
2205.29
2201.78
2198
2193.95
2189.62
2185.03
2180.17
2175.04
2169.64
2163.98
2158.05
2151.85
2145.39
2138.67
2131.69
2124.47
2117.01
2109.35
2101.5
2093.51
2085.41
2077.22
2068.74
2058.51
0.00181832
0.000333914
0.000315576
0.00154327
0.00929239
0.0469347
0.200764
0.744329
2.43162
7.06075
18.1859
41.1147
81.1892
141.191
220.139
314.156
418.009
526.229
633.797
736.65
831.976
918.247
995.03
1062.68
1122.04
1174.13
1220.02
1260.67
1296.91
1329.4
1358.7
1385.23
1409.35
1431.33
1451.41
1469.79
1486.63
1502.09
1516.29
1529.35
1541.37
1552.45
1562.65
1572.06
1580.74
1588.73
1596.09
1602.85
1609.04
1614.69
1619.82
1624.44
1628.59
1632.32
1635.48
1638.08
1640.11
1641.56
1642.41
1642.66
1642.26
1641.21
1639.55
1638.05
1636.19
1634.05
1631.63
1628.95
1625.99
1622.78
1619.32
1615.62
1611.67
1607.49
1603.08
1598.45
1593.62
1588.59
1583.37
1577.98
1572.44
1566.78
1561.01
1555.16
1549.27
1543.34
1537.23
1529.8
0.00181797
0.000298835
8.24316e-05
8.99385e-05
0.000342994
0.00159523
0.00661436
0.0240867
0.0780956
0.228615
0.611398
1.5072
3.4484
7.33864
14.4912
26.4737
44.7491
70.2617
103.183
142.926
188.362
238.096
290.686
344.766
399.117
452.695
504.652
554.342
601.313
645.287
686.138
723.86
758.538
790.321
819.399
845.982
870.289
892.535
912.924
931.643
948.865
964.74
979.403
992.97
1005.54
1017.21
1028.03
1038.09
1047.42
1056.07
1064.08
1071.47
1078.26
1084.53
1090.27
1095.38
1099.86
1103.72
1106.95
1109.54
1111.47
1112.73
1113.37
1113.43
1113.11
1112.5
1111.59
1110.4
1108.95
1107.24
1105.28
1103.09
1100.67
1098.05
1095.23
1092.22
1089.05
1085.71
1082.24
1078.64
1074.94
1071.15
1067.28
1063.37
1059.43
1055.46
1051.38
1046.35
0.00181828
0.000297967
6.8573e-05
2.34887e-05
1.98655e-05
4.86158e-05
0.000175265
0.000614875
0.00195924
0.00567399
0.0150801
0.0371352
0.0854863
0.185289
0.380135
0.741649
1.38212
2.46794
4.22776
6.94765
10.9496
16.5557
24.0449
33.6149
45.356
59.2441
75.1503
92.8639
112.12
132.629
154.095
176.235
198.791
221.529
244.248
266.773
288.957
310.678
331.837
352.356
372.174
391.247
409.544
427.044
443.739
459.625
474.707
488.993
502.495
515.227
527.203
538.439
548.951
558.757
567.944
576.485
584.312
591.423
597.815
603.484
608.427
612.638
616.138
618.11
619.674
620.89
621.777
622.355
622.643
622.658
622.418
621.941
621.245
620.345
619.26
618.004
616.594
615.047
613.377
611.599
609.729
607.779
605.764
603.696
601.585
599.44
597.229
594.506
0.00181863
0.000297997
6.8261e-05
2.06352e-05
8.05777e-06
4.73935e-06
5.75382e-06
1.34042e-05
3.83459e-05
0.000107566
0.00028206
0.000689327
0.00157901
0.00341192
0.00699251
0.0136593
0.025553
0.0459731
0.0798106
0.134041
0.218285
0.345462
0.53252
0.801107
1.17799
1.69497
2.3881
3.2963
4.4594
5.91586
7.70058
9.8428
12.3645
15.2794
18.5922
22.299
26.3875
30.838
35.6246
40.7163
46.0786
51.6741
57.4644
63.4103
69.473
75.6145
81.7981
87.9884
94.152
100.257
106.273
112.172
117.927
123.511
128.903
134.136
139.225
144.149
148.884
153.411
157.708
161.757
165.538
167.905
170.085
172.089
173.922
175.592
177.104
178.467
179.687
180.772
181.73
182.568
183.294
183.916
184.441
184.877
185.232
185.511
185.722
185.872
185.966
186.01
186.011
185.972
185.899
185.783
0.001819
0.000298044
6.82671e-05
2.05856e-05
7.73866e-06
3.4759e-06
1.8414e-06
1.22962e-06
1.22499e-06
1.96209e-06
4.16941e-06
9.50095e-06
2.12253e-05
4.53784e-05
9.25087e-05
0.000180188
0.000336516
0.000604807
0.00104947
0.00176304
0.00287427
0.0045577
0.00704463
0.0106353
0.0157116
0.0227482
0.0323219
0.0451186
0.0619372
0.0836925
0.111416
0.146256
0.189472
0.24243
0.306583
0.383449
0.474576
0.581499
0.705689
0.848491
1.01106
1.19431
1.39882
1.62481
1.87206
2.13984
2.42695
2.73157
3.05135
3.38331
3.72387
4.06888
4.41358
4.75222
5.07803
5.41138
5.76004
6.12185
6.4945
6.87551
7.26228
7.6521
8.0422
8.29752
8.54461
8.78297
9.01216
9.23184
9.44179
9.64189
9.83207
10.0124
10.1829
10.3439
10.4955
10.638
10.7716
10.8968
11.014
11.1233
11.2254
11.3205
11.4091
11.4915
11.5682
11.6394
11.7057
11.7702
0.00181934
0.000298088
6.82769e-05
2.05878e-05
7.73547e-06
3.4565e-06
1.76949e-06
1.00913e-06
6.2988e-07
4.29532e-07
3.28937e-07
3.02358e-07
3.57189e-07
5.34732e-07
9.21031e-07
1.66575e-06
3.01094e-06
5.33083e-06
9.18297e-06
1.53703e-05
2.5014e-05
3.9637e-05
6.12589e-05
9.24998e-05
0.000136689
0.000197973
0.000281409
0.000393043
0.000539967
0.000730346
0.000973427
0.00127951
0.00165991
0.00212683
0.00269318
0.00337234
0.00417778
0.00512251
0.00621845
0.00747547
0.00890039
0.0104956
0.0122575
0.0141747
0.016226
0.0183785
0.0205846
0.0227806
0.0248838
0.026791
0.0283771
0.0294907
0.0299603
0.0299577
0.0300433
0.0302141
0.0304694
0.0308083
0.0312294
0.0317305
0.0323088
0.0329607
0.0336818
0.034184
0.0346981
0.0352207
0.0357485
0.0362784
0.0368077
0.0373339
0.0378548
0.0383682
0.0388725
0.0393663
0.0398482
0.0403172
0.0407726
0.0412136
0.04164
0.0420512
0.0424474
0.0428283
0.0431941
0.0435449
0.043881
0.0442028
0.0445105
0.0448228
0.00181958
0.000298119
6.82839e-05
2.05898e-05
7.73614e-06
3.45663e-06
1.76897e-06
1.00701e-06
6.23578e-07
4.13006e-07
2.88894e-07
2.11492e-07
1.61137e-07
1.27609e-07
1.05548e-07
9.23978e-08
8.74935e-08
9.17465e-08
1.0767e-07
1.39611e-07
1.94105e-07
2.80325e-07
4.10618e-07
6.01112e-07
8.72366e-07
1.25003e-06
1.76545e-06
2.45618e-06
3.3664e-06
4.54704e-06
6.05582e-06
7.95693e-06
1.03203e-05
1.32207e-05
1.67355e-05
2.09427e-05
2.59168e-05
3.1724e-05
3.84155e-05
4.60185e-05
5.45258e-05
6.38822e-05
7.39691e-05
8.45877e-05
9.5441e-05
0.000106118
0.000116082
0.000124665
0.000131063
0.000134396
0.000133748
0.000132139
0.000130659
0.000129265
0.00012795
0.000126707
0.00012553
0.000124412
0.000123349
0.000122333
0.000121361
0.000120426
0.000119525
0.000118951
0.000118403
0.000117879
0.000117377
0.000116896
0.000116436
0.000115996
0.000115576
0.000115174
0.000114791
0.000114427
0.000114083
0.000113757
0.00011345
0.000113164
0.000112896
0.000112649
0.000112421
0.000112214
0.000112026
0.000111857
0.000111709
0.000111579
0.000111468
0.000111425
0.00181969
0.000298134
6.82872e-05
2.05908e-05
7.73647e-06
3.45677e-06
1.76904e-06
1.00703e-06
6.23561e-07
4.1291e-07
2.88629e-07
2.10868e-07
1.5978e-07
1.24813e-07
1.00039e-07
8.19623e-08
6.84413e-08
5.81153e-08
5.00965e-08
4.37941e-08
3.88104e-08
3.48793e-08
3.18276e-08
2.9552e-08
2.80038e-08
2.71801e-08
2.71179e-08
2.78905e-08
2.96052e-08
3.24009e-08
3.64451e-08
4.19313e-08
4.90731e-08
5.80971e-08
6.92322e-08
8.26942e-08
9.86641e-08
1.17259e-07
1.38494e-07
1.62233e-07
1.88126e-07
2.15543e-07
2.43498e-07
2.70578e-07
2.94887e-07
3.14043e-07
3.25223e-07
3.25492e-07
3.26434e-07
3.27869e-07
3.29645e-07
3.31922e-07
3.35075e-07
3.39689e-07
3.46694e-07
3.57564e-07
3.74637e-07
4.016e-07
4.44228e-07
5.11485e-07
6.17141e-07
7.82098e-07
1.03763e-06
1.25764e-06
1.5366e-06
1.88652e-06
2.32059e-06
2.85312e-06
3.49936e-06
4.27517e-06
5.19679e-06
6.2804e-06
7.54177e-06
8.99589e-06
1.06565e-05
1.2536e-05
1.46447e-05
1.69909e-05
1.95805e-05
2.24171e-05
2.55017e-05
2.88325e-05
3.24057e-05
3.62147e-05
4.02508e-05
4.45033e-05
4.89597e-05
5.36127e-05
0.00181969
0.000298134
6.82872e-05
2.05908e-05
7.73647e-06
3.45677e-06
1.76904e-06
1.00703e-06
6.23561e-07
4.1291e-07
2.88629e-07
2.10867e-07
1.59778e-07
1.24809e-07
1.0003e-07
8.19469e-08
6.84139e-08
5.80679e-08
5.00172e-08
4.3665e-08
3.86059e-08
3.45629e-08
3.13493e-08
2.88445e-08
2.69783e-08
2.57219e-08
2.50816e-08
2.50955e-08
2.58314e-08
2.73855e-08
2.98827e-08
3.34765e-08
3.83507e-08
4.47221e-08
5.28454e-08
6.30215e-08
7.56099e-08
9.10488e-08
1.09885e-07
1.32815e-07
1.6075e-07
1.94903e-07
2.36917e-07
2.89044e-07
3.54401e-07
4.37341e-07
5.43974e-07
6.82926e-07
8.66442e-07
1.11197e-06
1.44445e-06
1.89967e-06
2.529e-06
3.40626e-06
4.63735e-06
6.37383e-06
8.83158e-06
1.23163e-05
1.72574e-05
2.42527e-05
3.41254e-05
4.79961e-05
6.73696e-05
8.30559e-05
0.000101795
0.00012399
0.000150041
0.000180342
0.000215277
0.000255206
0.000300457
0.000351317
0.000408025
0.000470763
0.000539657
0.000614768
0.000696093
0.000783566
0.00087706
0.000976387
0.00108131
0.00119153
0.00130672
0.00142651
0.00155049
0.00167825
0.00180934
0.00194344
0.00181958
0.000298119
6.82838e-05
2.05898e-05
7.73613e-06
3.45663e-06
1.76896e-06
1.007e-06
6.23558e-07
4.12953e-07
2.88767e-07
2.11209e-07
1.60539e-07
1.26401e-07
1.03212e-07
8.80534e-08
7.97075e-08
7.82497e-08
8.49623e-08
1.02448e-07
1.34868e-07
1.88261e-07
2.70929e-07
3.93887e-07
5.71375e-07
8.21381e-07
1.1662e-06
1.63294e-06
2.25401e-06
3.0675e-06
4.1176e-06
5.45486e-06
7.1367e-06
9.2278e-06
1.1801e-05
1.49383e-05
1.8733e-05
2.32921e-05
2.87406e-05
3.52274e-05
4.29336e-05
5.20838e-05
6.29628e-05
7.59364e-05
9.14812e-05
0.000110223
0.000132989
0.000160874
0.000195336
0.000238305
0.000292345
0.000360849
0.000448294
0.000560562
0.000705344
0.000892633
0.00113531
0.00144986
0.00185714
0.00238327
0.00306057
0.00392853
0.00503477
0.00588156
0.00683981
0.00791676
0.0091182
0.0104488
0.011912
0.0135101
0.0152439
0.0171128
0.0191149
0.021247
0.0235043
0.0258813
0.0283711
0.030966
0.0336575
0.0364367
0.039294
0.0422196
0.0452034
0.0482356
0.051306
0.054405
0.057523
0.0606533
0.00181934
0.000298088
6.82769e-05
2.05878e-05
7.73546e-06
3.45641e-06
1.76915e-06
1.00805e-06
6.26853e-07
4.21815e-07
3.1067e-07
2.61876e-07
2.71438e-07
3.5904e-07
5.73943e-07
1.00681e-06
1.80824e-06
3.21536e-06
5.58746e-06
9.45063e-06
1.55511e-05
2.49172e-05
3.89292e-05
5.93984e-05
8.86538e-05
0.000129631
0.000185964
0.000262057
0.000363163
0.000495427
0.00066594
0.000882763
0.00115498
0.00149273
0.00190731
0.00241119
0.00301826
0.00374394
0.00460549
0.00562245
0.00681717
0.00821563
0.00984846
0.0117523
0.0139716
0.0165607
0.0195865
0.0231312
0.0272964
0.0322068
0.038015
0.0449058
0.0531022
0.0628703
0.074525
0.0884348
0.105027
0.124789
0.148275
0.176099
0.208934
0.247504
0.29256
0.325254
0.360387
0.397943
0.437852
0.480022
0.524349
0.57071
0.618964
0.668956
0.72052
0.773481
0.827657
0.882864
0.938915
0.995626
1.05282
1.11031
1.16794
1.22555
1.28298
1.34009
1.39675
1.45284
1.50826
1.56297
0.00181901
0.000298045
6.82674e-05
2.05854e-05
7.73639e-06
3.46544e-06
1.80467e-06
1.12132e-06
9.42092e-07
1.23662e-06
2.35703e-06
5.21212e-06
1.16613e-05
2.52167e-05
5.21465e-05
0.000103093
0.000195356
0.000356031
0.000626122
0.0010656
0.00175936
0.00282403
0.00441596
0.00674032
0.0100612
0.0147118
0.0211038
0.0297347
0.0411937
0.0561652
0.0754318
0.0998763
0.130485
0.168346
0.214656
0.270708
0.337896
0.417701
0.51168
0.621456
0.748704
0.895138
1.06251
1.2526
1.46722
1.70825
1.97759
2.27725
2.60934
2.97607
3.3798
3.82307
4.30856
4.83915
5.41785
6.04785
6.73241
7.47486
8.27851
9.14654
10.0818
11.0868
12.1621
12.9006
13.6534
14.4178
15.1914
15.9717
16.7566
17.5439
18.3314
19.1171
19.899
20.6754
21.4444
22.2045
22.9541
23.6921
24.4171
25.1281
25.8242
26.5046
27.1685
27.8155
28.4451
29.057
29.6509
30.2335
0.00181866
0.000298
6.82589e-05
2.0605e-05
7.88264e-06
4.09277e-06
3.81682e-06
7.25659e-06
1.96469e-05
5.51978e-05
0.000146926
0.000365484
0.000852148
0.00187341
0.00390516
0.0077547
0.014734
0.0268999
0.0473652
0.0806674
0.133183
0.2136
0.333463
0.507774
0.755541
1.10009
1.56898
2.19332
3.00667
4.04335
5.33669
6.91711
8.81053
11.037
13.6099
16.5353
19.8123
23.4333
27.3847
31.648
36.2009
41.0181
46.0731
51.3385
56.7873
62.3935
68.1328
73.983
79.9242
85.9391
92.0131
98.1343
104.293
110.482
116.697
122.934
129.192
135.47
141.768
148.087
154.428
160.79
167.16
171.369
175.479
179.493
183.41
187.228
190.947
194.565
198.082
201.497
204.811
208.023
211.134
214.144
217.053
219.863
222.574
225.188
227.706
230.129
232.46
234.7
236.851
238.915
240.896
242.863
0.00181831
0.000297962
6.83782e-05
2.18861e-05
1.39089e-05
2.54749e-05
8.51911e-05
0.000300104
0.000973739
0.00287735
0.00780444
0.0196059
0.0460008
0.101576
0.212307
0.421886
0.800385
1.45525
2.54205
4.26934
6.89212
10.6916
15.9441
22.8864
31.6841
42.4122
55.0496
69.4869
85.5448
102.997
121.592
141.073
161.194
181.724
202.458
223.215
243.841
264.205
284.199
303.738
322.752
341.192
359.022
376.217
392.769
408.675
423.942
438.584
452.622
466.08
478.986
491.372
503.27
514.714
525.74
536.383
546.675
556.652
566.343