/*--------------------------------*- C++ -*----------------------------------*\
| =========                 |                                                 |
| \\      /  F ield         | OpenFOAM: The Open Source CFD Toolbox           |
|  \\    /   O peration     | Version:  5.x                                   |
|   \\  /    A nd           | Web:      www.OpenFOAM.org                      |
|    \\/     M anipulation  |                                                 |
\*---------------------------------------------------------------------------*/
FoamFile
{
    version     2.0;
    format      ascii;
    class       volScalarField;
    location    "700";
    object      k;
}
// * * * * * * * * * * * * * * * * * * * * * * * * * * * * * * * * * * * * * //

dimensions      [0 2 -2 0 0 0 0];

internalField   nonuniform List<scalar> 
20540
(
2.45293e-05
7.72618e-06
2.45293e-05
1.40218e-05
2.45293e-05
2.49906e-05
2.45293e-05
3.98274e-05
2.45293e-05
5.74879e-05
2.45293e-05
7.64339e-05
2.45293e-05
9.4512e-05
2.45293e-05
0.000108992
2.45293e-05
0.000116847
2.45293e-05
0.000115342
2.45293e-05
0.000102963
2.45293e-05
8.0561e-05
2.45293e-05
5.23749e-05
2.45293e-05
2.60997e-05
2.45293e-05
9.75507e-06
2.45293e-05
4.05126e-06
2.45293e-05
2.89963e-06
2.45293e-05
2.72158e-06
2.45293e-05
2.69432e-06
2.45293e-05
2.68984e-06
2.45293e-05
2.68915e-06
2.45293e-05
2.68913e-06
2.45293e-05
2.68925e-06
2.45293e-05
2.68943e-06
2.45293e-05
2.68966e-06
2.45293e-05
2.68993e-06
2.45293e-05
2.69024e-06
2.45293e-05
2.69057e-06
2.45293e-05
2.69092e-06
2.45293e-05
2.69124e-06
2.45293e-05
2.69147e-06
2.45293e-05
2.69158e-06
2.45293e-05
2.69157e-06
2.45293e-05
2.69147e-06
2.45293e-05
2.69124e-06
2.45293e-05
2.69093e-06
2.45293e-05
2.69059e-06
2.45293e-05
2.69027e-06
2.45293e-05
2.68997e-06
2.45293e-05
2.6897e-06
2.45293e-05
2.68947e-06
2.45293e-05
2.68929e-06
2.45293e-05
2.68915e-06
2.45293e-05
2.68911e-06
2.45293e-05
2.68941e-06
2.45293e-05
2.69158e-06
2.45293e-05
2.70411e-06
2.45293e-05
2.77969e-06
2.45293e-05
3.26018e-06
2.45293e-05
5.94646e-06
2.45293e-05
1.59568e-05
2.45293e-05
3.69468e-05
2.45293e-05
6.43547e-05
2.45293e-05
9.0308e-05
2.45293e-05
0.000108919
2.45293e-05
0.000117509
2.45293e-05
0.000116116
2.45293e-05
0.000106541
2.45293e-05
9.14088e-05
2.45293e-05
7.34511e-05
2.45293e-05
5.50668e-05
2.45293e-05
3.81299e-05
2.45293e-05
2.39822e-05
2.45293e-05
1.35556e-05
2.45293e-05
7.61289e-06
3.6872
3.61483
3.36348
3.18001
3.04629
2.94563
2.86715
2.80408
2.75226
2.70896
2.67232
2.64096
2.61386
2.59024
2.56953
2.55125
2.53503
2.52057
2.50763
2.49598
2.48548
2.47598
2.46736
2.45951
2.45236
2.44583
2.43984
2.43433
2.42927
2.42461
2.4203
2.41632
2.41264
2.40924
2.40609
2.40318
2.40048
2.398
2.3957
2.39359
2.39166
2.38991
2.38834
2.38695
2.38575
2.38475
2.38396
2.3834
2.3831
2.38308
2.38336
2.38399
2.385
2.38643
2.38831
2.3907
2.39364
2.3972
2.40144
2.40642
2.41224
2.41897
2.4271
2.43343
2.4399
2.44644
2.45336
2.46067
2.46837
2.47645
2.48492
2.49379
2.50306
2.51274
2.52285
2.5334
2.54442
2.55594
2.568
2.58066
2.59399
2.60813
2.62322
2.63961
2.6576
2.6792
2.70849
2.82157
16.8722
15.7448
14.7444
14.0727
13.592
13.2318
12.9508
12.7245
12.5381
12.382
12.2496
12.136
12.0376
11.9518
11.8763
11.8097
11.7504
11.6976
11.6501
11.6075
11.5689
11.534
11.5023
11.4735
11.4472
11.4231
11.401
11.3807
11.362
11.3448
11.3289
11.3142
11.3006
11.288
11.2764
11.2656
11.2556
11.2464
11.2379
11.2301
11.223
11.2165
11.2108
11.2057
11.2013
11.1977
11.195
11.1931
11.1923
11.1925
11.1939
11.1967
11.201
11.2069
11.2147
11.2244
11.2364
11.2508
11.2678
11.2879
11.3113
11.3381
11.3711
11.3974
11.4235
11.4493
11.4769
11.5062
11.5371
11.5695
11.6036
11.6392
11.6765
11.7155
11.7563
11.7989
11.8434
11.8899
11.9388
11.9901
12.0443
12.1019
12.1635
12.2305
12.3046
12.3904
12.4943
12.5052
18.5626
18.4965
17.5394
16.8384
16.3248
15.9356
15.6304
15.3838
15.1802
15.0094
14.8642
14.7396
14.6316
14.5372
14.4543
14.3809
14.3157
14.2575
14.2053
14.1582
14.1158
14.0773
14.0423
14.0105
13.9815
13.9549
13.9306
13.9082
13.8875
13.8685
13.851
13.8347
13.8197
13.8058
13.793
13.7811
13.7701
13.7599
13.7505
13.7418
13.7339
13.7268
13.7203
13.7146
13.7097
13.7056
13.7024
13.7001
13.6988
13.6987
13.6999
13.7024
13.7065
13.7123
13.72
13.7297
13.7417
13.7562
13.7735
13.7937
13.8174
13.8447
13.8774
13.9026
13.9291
13.9558
13.9837
14.013
14.0439
14.0763
14.1101
14.1455
14.1824
14.2209
14.2609
14.3026
14.346
14.3911
14.4382
14.4874
14.5389
14.5932
14.6505
14.712
14.7778
14.8533
14.9169
14.8469
18.4198
19.567
18.7631
18.086
17.573
17.1791
16.8679
16.6156
16.4068
16.2312
16.0819
15.9536
15.8422
15.7449
15.6593
15.5836
15.5162
15.4561
15.4021
15.3535
15.3096
15.2698
15.2337
15.2008
15.1708
15.1433
15.1181
15.095
15.0736
15.054
15.0358
15.019
15.0035
14.9891
14.9758
14.9635
14.9521
14.9416
14.9318
14.9229
14.9146
14.9072
14.9004
14.8944
14.8892
14.8848
14.8813
14.8786
14.877
14.8765
14.8772
14.8792
14.8828
14.8879
14.8949
14.9038
14.9149
14.9283
14.9443
14.9632
14.9852
15.0108
15.0406
15.063
15.0876
15.1129
15.1389
15.1661
15.1946
15.2244
15.2555
15.2878
15.3214
15.3564
15.3926
15.4301
15.469
15.5093
15.551
15.5943
15.6392
15.686
15.7349
15.7864
15.8394
15.8989
15.9297
15.8462
17.5093
19.9419
19.3766
18.7571
18.2629
17.8757
17.567
17.3153
17.1063
16.9302
16.7802
16.651
16.5389
16.4408
16.3545
16.2781
16.2101
16.1493
16.0948
16.0458
16.0014
15.9612
15.9247
15.8914
15.8611
15.8333
15.8079
15.7845
15.7629
15.743
15.7247
15.7077
15.692
15.6775
15.664
15.6516
15.64
15.6294
15.6195
15.6104
15.6021
15.5945
15.5876
15.5814
15.576
15.5714
15.5675
15.5646
15.5626
15.5616
15.5618
15.5632
15.566
15.5703
15.5763
15.5841
15.5938
15.6057
15.6199
15.6367
15.6563
15.6793
15.7053
15.7242
15.7458
15.7687
15.792
15.8161
15.8413
15.8675
15.8947
15.923
15.9523
15.9825
16.0137
16.046
16.0791
16.1133
16.1484
16.1844
16.2215
16.2597
16.2988
16.3393
16.379
16.4216
16.4295
16.3612
16.1549
19.8904
19.6495
19.1205
18.6609
18.2896
17.9894
17.7428
17.5371
17.3632
17.2146
17.0866
16.9752
16.8777
16.7918
16.7157
16.648
16.5875
16.5332
16.4842
16.44
16.3999
16.3634
16.3303
16.3
16.2723
16.2469
16.2235
16.202
16.1822
16.1639
16.147
16.1313
16.1168
16.1034
16.091
16.0794
16.0688
16.0589
16.0498
16.0414
16.0338
16.0268
16.0206
16.015
16.0102
16.0062
16.003
16.0006
15.9991
15.9987
15.9995
16.0015
16.0048
16.0096
16.016
16.0242
16.0342
16.0463
16.0608
16.0775
16.0974
16.1192
16.1344
16.1525
16.1722
16.1923
16.2129
16.2343
16.2565
16.2794
16.303
16.3274
16.3525
16.3782
16.4046
16.4315
16.4591
16.4871
16.5156
16.5445
16.5738
16.6032
16.6327
16.6596
16.6864
16.6793
16.6312
14.5028
19.5043
19.68
19.2792
18.8714
18.5257
18.2401
18.0028
17.8034
17.6341
17.4889
17.3635
17.2542
17.1584
17.0739
16.999
16.9323
16.8726
16.819
16.7707
16.727
16.6874
16.6515
16.6187
16.5888
16.5615
16.5364
16.5133
16.492
16.4724
16.4544
16.4376
16.4222
16.4079
16.3946
16.3823
16.3709
16.3604
16.3506
16.3416
16.3333
16.3257
16.3187
16.3124
16.3068
16.3019
16.2976
16.2942
16.2914
16.2895
16.2885
16.2886
16.2897
16.292
16.2955
16.3005
16.3069
16.315
16.3249
16.3366
16.3503
16.3668
16.3842
16.3957
16.41
16.4262
16.4427
16.4596
16.4769
16.4948
16.5131
16.532
16.5512
16.5709
16.591
16.6114
16.6321
16.6529
16.6739
16.6949
16.7158
16.7365
16.7565
16.7757
16.791
16.804
16.7867
16.7528
12.644
18.8112
19.5023
19.2751
18.9401
18.6314
18.3673
18.144
17.9544
17.7922
17.6525
17.5313
17.4254
17.3324
17.2502
17.1773
17.1122
17.054
17.0017
16.9545
16.9119
16.8732
16.838
16.806
16.7768
16.75
16.7255
16.7029
16.6821
16.663
16.6453
16.6289
16.6138
16.5998
16.5868
16.5748
16.5637
16.5534
16.5438
16.535
16.5268
16.5193
16.5124
16.5061
16.5005
16.4955
16.4911
16.4874
16.4843
16.482
16.4804
16.4797
16.4799
16.4812
16.4834
16.4869
16.4916
16.4976
16.5051
16.5141
16.5246
16.5375
16.5505
16.5585
16.5689
16.5812
16.594
16.607
16.6202
16.6337
16.6475
16.6615
16.6757
16.69
16.7045
16.719
16.7335
16.7479
16.7621
16.776
16.7893
16.802
16.8134
16.8233
16.8286
16.83
16.8051
16.7769
10.6544
17.8111
19.1184
19.1205
18.8851
18.6277
18.3938
18.1902
18.0144
17.8624
17.7304
17.6153
17.5144
17.4254
17.3466
17.2765
17.214
17.1579
17.1075
17.062
17.0208
16.9834
16.9494
16.9185
16.8902
16.8644
16.8406
16.8188
16.7987
16.7802
16.7631
16.7473
16.7326
16.7191
16.7066
16.695
16.6842
16.6742
16.665
16.6564
16.6484
16.6411
16.6344
16.6282
16.6226
16.6176
16.6131
16.6092
16.6059
16.6031
16.601
16.5996
16.599
16.5992
16.6002
16.6021
16.605
16.609
16.6141
16.6203
16.6276
16.6368
16.6456
16.6504
16.657
16.6654
16.6743
16.6833
16.6925
16.7017
16.711
16.7203
16.7296
16.7388
16.748
16.7569
16.7656
16.774
16.7819
16.7892
16.7957
16.8011
16.805
16.8068
16.8034
16.7954
16.7645
16.735
8.61112
16.4933
18.5109
18.8097
18.708
18.5204
18.328
18.1514
17.9945
17.8564
17.735
17.6283
17.5342
17.4508
17.3766
17.3105
17.2514
17.1983
17.1504
17.1072
17.068
17.0325
17.0001
16.9707
16.9437
16.9191
16.8965
16.8757
16.8565
16.8388
16.8225
16.8075
16.7935
16.7806
16.7687
16.7576
16.7474
16.7378
16.729
16.7208
16.7132
16.7062
16.6997
16.6937
16.6882
16.6833
16.6788
16.6748
16.6712
16.6681
16.6656
16.6635
16.6621
16.6613
16.6611
16.6616
16.6628
16.6647
16.6674
16.671
16.6752
16.6808
16.6855
16.6874
16.6905
16.6951
16.7001
16.7053
16.7105
16.7156
16.7207
16.7256
16.7303
16.7348
16.739
16.7428
16.7462
16.7491
16.7514
16.7528
16.7533
16.7525
16.7499
16.7448
16.7344
16.719
16.683
16.6489
6.60006
14.8493
17.6479
18.3224
18.398
18.3047
18.1684
18.0283
17.897
17.7777
17.6707
17.5753
17.4903
17.4144
17.3465
17.2857
17.2311
17.182
17.1376
17.0974
17.0609
17.0278
16.9976
16.9701
16.945
16.922
16.9008
16.8814
16.8635
16.847
16.8317
16.8176
16.8046
16.7925
16.7814
16.771
16.7615
16.7526
16.7443
16.7366
16.7295
16.7229
16.7168
16.7111
16.7059
16.701
16.6966
16.6926
16.6889
16.6856
16.6827
16.6801
16.6779
16.6762
16.6749
16.674
16.6736
16.6737
16.6742
16.6752
16.6765
16.6787
16.6796
16.6789
16.6789
16.68
16.6814
16.683
16.6845
16.6858
16.687
16.6878
16.6884
16.6886
16.6883
16.6876
16.6864
16.6845
16.6819
16.6783
16.6737
16.6676
16.6596
16.6489
16.6329
16.6117
16.5718
16.5327
4.71675
12.8858
16.4881
17.6256
17.9334
17.9662
17.9054
17.8147
17.7178
17.6237
17.5359
17.4556
17.3827
17.3167
17.2572
17.2035
17.1549
17.111
17.0712
17.0351
17.0022
16.9722
16.9449
16.92
16.8972
16.8763
16.8571
16.8394
16.8232
16.8081
16.7943
16.7814
16.7696
16.7587
16.7485
16.7392
16.7305
16.7224
16.7149
16.7079
16.7014
16.6954
16.6898
16.6846
16.6797
16.6752
16.671
16.6671
16.6634
16.66
16.6568
16.6538
16.6511
16.6486
16.6463
16.6443
16.6424
16.6408
16.6393
16.638
16.6366
16.6356
16.6333
16.6304
16.6276
16.6256
16.6238
16.6221
16.6203
16.6182
16.6159
16.6132
16.6101
16.6065
16.6025
16.5979
16.5927
16.5868
16.5801
16.5724
16.5636
16.5532
16.5408
16.5257
16.5053
16.4799
16.4372
16.3946
3.06207
10.6403
14.9869
16.6736
17.2807
17.4809
17.5215
17.4971
17.4463
17.386
17.3239
17.2636
17.2068
17.1541
17.1056
17.0612
17.0206
16.9836
16.9498
16.9189
16.8907
16.8649
16.8414
16.8198
16.8001
16.782
16.7653
16.7499
16.7358
16.7227
16.7106
16.6995
16.6892
16.6797
16.6709
16.6628
16.6552
16.6482
16.6417
16.6357
16.63
16.6248
16.6198
16.6152
16.6109
16.6069
16.6031
16.5995
16.596
16.5926
16.5893
16.5861
16.583
16.5799
16.5769
16.5739
16.5708
16.5678
16.5646
16.5613
16.5576
16.5539
16.5487
16.5439
16.539
16.5345
16.5299
16.5254
16.5207
16.5157
16.5104
16.5046
16.4985
16.4918
16.4847
16.4769
16.4685
16.4593
16.4493
16.4383
16.4261
16.4124
16.3966
16.378
16.3545
16.3259
16.2819
16.2376
1.73124
8.19986
13.1084
15.4101
16.3932
16.8134
16.9894
17.054
17.0652
17.0501
17.0223
16.9888
16.9535
16.9183
16.8844
16.8522
16.8222
16.7942
16.7683
16.7444
16.7223
16.702
16.6833
16.6662
16.6504
16.6359
16.6225
16.6102
16.5988
16.5882
16.5785
16.5695
16.5612
16.5536
16.5465
16.54
16.534
16.5284
16.5232
16.5183
16.5138
16.5096
16.5056
16.5018
16.4983
16.4949
16.4917
16.4886
16.4855
16.4824
16.4792
16.476
16.4728
16.4694
16.4659
16.4622
16.4582
16.454
16.4495
16.4446
16.439
16.4331
16.4257
16.4194
16.4129
16.4063
16.3996
16.3928
16.3857
16.3784
16.3706
16.3625
16.3539
16.3447
16.3351
16.3248
16.3138
16.3022
16.2896
16.2761
16.2614
16.2451
16.2268
16.2057
16.1799
16.1492
16.1052
16.0607
0.796605
5.71938
10.8472
13.7743
15.2113
15.9152
16.2708
16.4545
16.549
16.5946
16.6127
16.6151
16.6084
16.5965
16.5819
16.566
16.5498
16.5338
16.5183
16.5035
16.4894
16.4763
16.464
16.4526
16.4421
16.4323
16.4232
16.4148
16.4069
16.3997
16.393
16.3868
16.3811
16.3759
16.371
16.3666
16.3625
16.3587
16.3552
16.3519
16.3489
16.346
16.3433
16.3407
16.3382
16.3358
16.3334
16.3311
16.3287
16.3261
16.3234
16.3204
16.3173
16.3139
16.3102
16.3062
16.3017
16.2968
16.2913
16.2852
16.2783
16.2708
16.2616
16.2543
16.2466
16.2387
16.2304
16.2219
16.2131
16.2039
16.1944
16.1844
16.1739
16.1629
16.1514
16.1393
16.1265
16.1129
16.0985
16.0832
16.0666
16.0485
16.0283
16.0053
15.9781
15.9461
15.9033
15.8597
0.277772
3.43005
8.26292
11.7159
13.6646
14.723
15.3131
15.6555
15.8615
15.9888
16.0686
16.119
16.1506
16.1698
16.181
16.1868
16.189
16.1888
16.187
16.1842
16.1808
16.177
16.1732
16.1693
16.1656
16.162
16.1585
16.1551
16.152
16.149
16.1463
16.1437
16.1414
16.1393
16.1374
16.1357
16.1341
16.1327
16.1314
16.1301
16.129
16.1279
16.1268
16.1258
16.1247
16.1236
16.1224
16.1212
16.1198
16.1181
16.1162
16.1139
16.1112
16.1082
16.1047
16.1007
16.0961
16.0909
16.085
16.0783
16.0705
16.0619
16.0517
16.0438
16.0353
16.0265
16.0173
16.0077
15.9978
15.9874
15.9766
15.9653
15.9536
15.9413
15.9285
15.9151
15.901
15.8862
15.8705
15.8539
15.836
15.8166
15.7951
15.7709
15.7429
15.7105
15.6695
15.6274
0.0744747
1.61208
5.52857
9.22959
11.6843
13.1606
14.0481
14.5987
14.9535
15.1902
15.3531
15.4681
15.5511
15.6121
15.6578
15.6925
15.7193
15.7401
15.7566
15.7697
15.7803
15.789
15.7962
15.8023
15.8075
15.812
15.8159
15.8192
15.8222
15.8248
15.8273
15.8295
15.8316
15.8336
15.8355
15.8373
15.839
15.8407
15.8422
15.8437
15.845
15.8463
15.8474
15.8484
15.8492
15.8499
15.8504
15.8507
15.8507
15.8503
15.8495
15.8483
15.8465
15.8443
15.8414
15.8379
15.8337
15.8287
15.8228
15.816
15.808
15.799
15.7884
15.7802
15.7715
15.7623
15.7527
15.7425
15.732
15.7209
15.7094
15.6975
15.685
15.6719
15.6583
15.6441
15.6292
15.6136
15.597
15.5795
15.5608
15.5405
15.5182
15.4933
15.465
15.4328
15.3942
15.354
0.016696
0.510454
2.97603
6.41604
9.23399
11.1493
12.3932
13.2089
13.7588
14.1414
14.4155
14.6175
14.7698
14.887
14.9791
15.0527
15.1124
15.1614
15.2022
15.2366
15.2659
15.2911
15.3131
15.3324
15.3495
15.3646
15.3782
15.3904
15.4014
15.4115
15.4207
15.4292
15.4371
15.4445
15.4514
15.4578
15.4639
15.4696
15.4749
15.4798
15.4845
15.4888
15.4928
15.4965
15.4998
15.5029
15.5056
15.5079
15.5099
15.5114
15.5123
15.5126
15.5123
15.5113
15.5096
15.5071
15.5038
15.4995
15.4943
15.4879
15.4803
15.4714
15.4611
15.453
15.4444
15.4353
15.4256
15.4154
15.4047
15.3935
15.3817
15.3695
15.3566
15.3433
15.3293
15.3146
15.2993
15.2832
15.2661
15.2481
15.2287
15.2079
15.1851
15.16
15.1319
15.1005
15.0645
15.0262
0.00327032
0.102651
1.08563
3.57644
6.37984
8.64169
10.2644
11.3968
12.1937
12.7664
13.1883
13.5065
13.7519
13.945
14.0996
14.2255
14.3296
14.4166
14.4901
14.553
14.6074
14.6547
14.6964
14.7333
14.7662
14.7956
14.8221
14.846
14.8678
14.8877
14.9059
14.9227
14.9383
14.9528
14.9663
14.9789
14.9906
15.0016
15.0118
15.0214
15.0304
15.0388
15.0466
15.0538
15.0605
15.0667
15.0724
15.0775
15.0821
15.0861
15.0894
15.0919
15.0936
15.0945
15.0946
15.0937
15.0918
15.0889
15.0848
15.0796
15.0729
15.0648
15.0553
15.0477
15.0396
15.0309
15.0215
15.0116
15.0011
14.9901
14.9785
14.9662
14.9534
14.94
14.9259
14.9111
14.8956
14.8792
14.8619
14.8436
14.8239
14.8028
14.7798
14.7548
14.7273
14.6972
14.6637
14.6272
0.000557909
0.0153111
0.221555
1.30664
3.42206
5.70614
7.61854
9.0779
10.1631
10.9723
11.5842
12.0552
12.4245
12.719
12.9578
13.1543
13.3181
13.4563
13.5741
13.6754
13.7635
13.8407
13.9089
13.9694
14.0235
14.072
14.1158
14.1554
14.1915
14.2245
14.2548
14.2828
14.3086
14.3325
14.3548
14.3755
14.3948
14.4128
14.4296
14.4453
14.4601
14.4738
14.4866
14.4986
14.5098
14.5202
14.5298
14.5387
14.5468
14.5541
14.5606
14.5662
14.5707
14.5742
14.5767
14.5782
14.5784
14.5775
14.5753
14.5717
14.5666
14.56
14.5518
14.5451
14.5377
14.5297
14.5211
14.5117
14.5017
14.4911
14.4799
14.468
14.4554
14.4421
14.4282
14.4134
14.3979
14.3814
14.364
14.3454
14.3256
14.3044
14.2816
14.2569
14.2303
14.2018
14.1708
14.1359
7.91402e-05
0.00191097
0.0276517
0.244069
1.09889
2.71147
4.5687
6.23484
7.59222
8.6631
9.50263
10.1651
10.694
11.1217
11.4721
11.7628
12.0069
12.214
12.3913
12.5447
12.6784
12.7959
12.8998
12.9922
13.0749
13.1491
13.2162
13.277
13.3324
13.3831
13.4296
13.4724
13.5119
13.5486
13.5825
13.6141
13.6435
13.671
13.6966
13.7205
13.7429
13.7638
13.7834
13.8017
13.8188
13.8348
13.8497
13.8636
13.8764
13.8882
13.899
13.9086
13.9169
13.924
13.9299
13.9345
13.9377
13.9396
13.9399
13.9388
13.9359
13.9313
13.9251
13.9197
13.9134
13.9064
13.8987
13.8901
13.8809
13.8709
13.8602
13.8488
13.8366
13.8237
13.8099
13.7953
13.7798
13.7634
13.746
13.7274
13.7077
13.6866
13.6641
13.6402
13.6147
13.5879
13.5592
13.5257
7.77965e-06
0.000200816
0.00268105
0.0251208
0.162165
0.660203
1.69602
3.09761
4.53203
5.80048
6.86166
7.73636
8.4554
9.04823
9.54068
9.95365
10.3032
10.6017
10.8587
11.0817
11.2767
11.4484
11.6004
11.7359
11.8572
11.9663
12.0649
12.1543
12.2358
12.3103
12.3787
12.4416
12.4996
12.5533
12.6031
12.6494
12.6924
12.7325
12.7699
12.8048
12.8375
12.8681
12.8967
12.9235
12.9487
12.9722
12.9942
13.0147
13.0339
13.0517
13.0681
13.0832
13.0967
13.1087
13.1191
13.128
13.1352
13.1408
13.1446
13.1467
13.1468
13.1451
13.1414
13.1377
13.1329
13.1272
13.1207
13.1132
13.105
13.0959
13.0859
13.0751
13.0634
13.0509
13.0375
13.0232
13.0079
12.9916
12.9743
12.9559
12.9364
12.9157
12.8939
12.8709
12.8468
12.8218
12.7951
12.7629
8.15762e-07
1.70364e-05
0.000216102
0.00193529
0.0130157
0.0677824
0.26558
0.747346
1.56404
2.61219
3.71609
4.74247
5.63816
6.40342
7.05657
7.61611
8.09705
8.51189
8.87147
9.18509
9.46046
9.70378
9.92
10.1131
10.2863
10.4423
10.5833
10.7114
10.828
10.9347
11.0326
11.1226
11.2056
11.2824
11.3535
11.4196
11.481
11.5382
11.5916
11.6414
11.688
11.7317
11.7726
11.8109
11.8469
11.8806
11.9121
11.9417
11.9694
11.9952
12.0192
12.0416
12.0621
12.0806
12.0972
12.1118
12.1244
12.135
12.1435
12.15
12.1541
12.1561
12.1559
12.1543
12.1514
12.1475
12.1425
12.1365
12.1295
12.1215
12.1125
12.1026
12.0916
12.0797
12.0669
12.053
12.0381
12.0222
12.0053
11.9874
11.9684
11.9484
11.9275
11.9057
11.8832
11.8599
11.8353
11.8043
4.75378e-07
1.04391e-06
1.4065e-05
0.00012206
0.000793179
0.00414569
0.0181077
0.0664744
0.201038
0.489327
0.97147
1.63108
2.4034
3.20766
3.97843
4.6791
5.29865
5.84155
6.31817
6.73916
7.11325
7.44712
7.74598
8.01416
8.25541
8.47308
8.67013
8.84915
9.01239
9.16177
9.29889
9.42512
9.54163
9.64941
9.74932
9.84209
9.92838
10.0088
10.0838
10.1538
10.2193
10.2807
10.3382
10.3921
10.4427
10.4901
10.5346
10.5764
10.6156
10.6522
10.6865
10.7185
10.7484
10.7757
10.8005
10.8229
10.8428
10.8602
10.875
10.8873
10.8969
10.9038
10.9082
10.9095
10.9092
10.9076
10.9048
10.9008
10.8955
10.8891
10.8815
10.8728
10.863
10.8521
10.8401
10.8271
10.813
10.7979
10.7819
10.7648
10.7468
10.728
10.7084
10.6882
10.6674
10.646
10.6234
10.5939
4.64348e-07
1.43706e-07
6.94447e-07
6.16458e-06
3.91178e-05
0.000198576
0.000853898
0.00319318
0.0105541
0.0310578
0.0812113
0.186576
0.374465
0.662079
1.04926
1.51911
2.04376
2.59195
3.13582
3.65477
4.13648
4.57571
4.97234
5.32929
5.65087
5.94166
6.20587
6.44712
6.66834
6.8719
7.05972
7.23335
7.39413
7.54321
7.68159
7.81019
7.92985
8.04131
8.14528
8.24235
8.33312
8.41807
8.49766
8.5723
8.64235
8.70812
8.76989
8.82791
8.88239
8.93351
8.98144
9.0263
9.06826
9.1075
9.14352
9.17638
9.2061
9.23269
9.25615
9.27643
9.29348
9.30728
9.31789
9.3232
9.32657
9.32834
9.32858
9.32733
9.32464
9.32056
9.31514
9.30843
9.30046
9.29129
9.28095
9.26948
9.25694
9.24337
9.22883
9.21338
9.19711
9.18009
9.16241
9.1442
9.12554
9.10645
9.08621
9.05883
4.64147e-07
1.15592e-07
5.61438e-08
2.39395e-07
1.51486e-06
7.56854e-06
3.18328e-05
0.000116982
0.000383292
0.0011355
0.00307751
0.007695
0.0178608
0.03857
0.0773082
0.143354
0.245856
0.391494
0.582882
0.818226
1.09201
1.39616
1.72132
2.05796
2.39732
2.73197
3.05612
3.36568
3.65806
3.93194
4.18701
4.42365
4.64271
4.84533
5.0328
5.20643
5.36748
5.51716
5.65655
5.78663
5.90827
6.02223
6.12916
6.22963
6.32415
6.41314
6.49697
6.57595
6.65036
6.72045
6.7864
6.84841
6.90662
6.96135
7.01255
7.05975
7.103
7.14234
7.17778
7.20929
7.23686
7.26046
7.28015
7.29124
7.29998
7.30673
7.3116
7.31465
7.31598
7.31565
7.31376
7.31038
7.30557
7.29942
7.29199
7.28336
7.27362
7.26283
7.25108
7.23845
7.22504
7.21093
7.19623
7.18102
7.16539
7.14936
7.13235
7.10869
4.64221e-07
1.14994e-07
3.86124e-08
2.10626e-08
4.8405e-08
2.21348e-07
9.19243e-07
3.3304e-06
1.07636e-05
3.15402e-05
8.48524e-05
0.000211642
0.000493606
0.00108412
0.00225422
0.0044575
0.00841692
0.0152229
0.0264056
0.0439305
0.0700782
0.107214
0.157497
0.222595
0.30349
0.400398
0.512797
0.63954
0.779012
0.929284
1.08826
1.25382
1.42388
1.59649
1.76988
1.94249
2.11297
2.2802
2.44327
2.60146
2.75425
2.90124
3.04221
3.177
3.30557
3.42795
3.5442
3.65446
3.75885
3.85755
3.95071
4.03852
4.12114
4.19874
4.27187
4.34025
4.40347
4.46159
4.51464
4.56267
4.60568
4.64368
4.67672
4.6963
4.71301
4.72724
4.7391
4.74875
4.7563
4.76189
4.76563
4.76765
4.76805
4.76696
4.76448
4.76071
4.75577
4.74974
4.74275
4.73487
4.72622
4.71686
4.7069
4.69642
4.68548
4.67413
4.66209
4.64536
4.64306e-07
1.15001e-07
3.82935e-08
1.61707e-08
8.77852e-09
8.7515e-09
2.16287e-08
7.16976e-08
2.2724e-07
6.5874e-07
1.75661e-06
4.34997e-06
1.0088e-05
2.20651e-05
4.57766e-05
9.05195e-05
0.00017139
0.000311994
0.00054787
0.000930526
0.00153214
0.00245104
0.00381784
0.00580144
0.0086134
0.0125087
0.0177819
0.0247571
0.0337741
0.0451705
0.0592628
0.0763285
0.0965908
0.120207
0.147264
0.177774
0.211677
0.248851
0.289114
0.33224
0.377963
0.425992
0.476017
0.527717
0.580767
0.634846
0.689635
0.744826
0.800123
0.85524
0.909906
0.963861
1.01686
1.06868
1.11909
1.16825
1.21621
1.26276
1.3077
1.35083
1.39197
1.43095
1.46758
1.49062
1.51195
1.53166
1.54982
1.56647
1.58167
1.59549
1.60799
1.61924
1.62929
1.63823
1.64612
1.65302
1.659
1.66414
1.66849
1.67212
1.67509
1.67746
1.67928
1.68062
1.68151
1.68201
1.68215
1.68166
4.64394e-07
1.15018e-07
3.82949e-08
1.60993e-08
8.10163e-09
4.70995e-09
3.21586e-09
3.00668e-09
4.72006e-09
1.07169e-08
2.66218e-08
6.44069e-08
1.4782e-07
3.21281e-07
6.63569e-07
1.3079e-06
2.47037e-06
4.48859e-06
7.87157e-06
1.33608e-05
2.2003e-05
3.52356e-05
5.4987e-05
8.37881e-05
0.000124891
0.000182385
0.000261295
0.000367666
0.000508626
0.000692432
0.0009285
0.00122741
0.00160091
0.00206179
0.00262385
0.00330161
0.00411006
0.00506426
0.00617889
0.0074677
0.00894294
0.0106147
0.0124904
0.0145741
0.0168659
0.0193616
0.0220521
0.024923
0.0279545
0.031121
0.0343914
0.0377285
0.0410894
0.0444216
0.0476624
0.0509866
0.0544612
0.058067
0.0617829
0.065586
0.0694521
0.0733557
0.0772703
0.0798362
0.0823233
0.0847267
0.0870417
0.089265
0.0913939
0.093427
0.0953636
0.0972038
0.0989484
0.100599
0.102157
0.103625
0.105007
0.106304
0.107522
0.108662
0.109729
0.110727
0.111659
0.112529
0.113341
0.114099
0.114806
0.115491
4.64477e-07
1.15035e-07
3.83003e-08
1.61007e-08
8.09499e-09
4.66085e-09
2.97444e-09
2.05753e-09
1.52858e-09
1.23732e-09
1.15309e-09
1.34612e-09
2.01846e-09
3.5774e-09
6.75853e-09
1.28118e-08
2.37665e-08
4.27908e-08
7.46588e-08
1.26331e-07
2.07646e-07
3.32135e-07
5.17945e-07
7.88874e-07
1.17547e-06
1.71617e-06
2.45829e-06
3.45903e-06
4.78616e-06
6.51853e-06
8.74636e-06
1.15712e-05
1.51057e-05
1.94723e-05
2.48024e-05
3.12331e-05
3.89047e-05
4.79549e-05
5.85128e-05
7.06905e-05
8.45723e-05
0.000100202
0.000117567
0.000136583
0.000157069
0.000178729
0.000201129
0.00022367
0.000245567
0.000265827
0.000283235
0.000296303
0.000303329
0.000305827
0.000309034
0.000312943
0.000317563
0.000322898
0.000328949
0.000335705
0.000343149
0.000351256
0.000359988
0.000365982
0.000372048
0.000378153
0.000384269
0.000390366
0.000396421
0.00040241
0.000408313
0.000414111
0.000419789
0.000425332
0.000430731
0.000435976
0.00044106
0.000445979
0.000450727
0.000455305
0.00045971
0.000463944
0.000468009
0.000471906
0.00047564
0.000479213
0.00048263
0.000486075
4.64535e-07
1.15046e-07
3.8304e-08
1.61022e-08
8.09565e-09
4.66087e-09
2.97273e-09
2.04962e-09
1.50053e-09
1.15141e-09
9.17573e-10
7.54994e-10
6.40058e-10
5.60712e-10
5.12721e-10
4.98549e-10
5.27835e-10
6.19045e-10
8.02127e-10
1.1221e-09
1.64351e-09
2.45578e-09
3.67929e-09
5.47214e-09
8.03733e-09
1.16302e-08
1.65653e-08
2.32231e-08
3.20549e-08
4.35863e-08
5.84184e-08
7.7226e-08
1.00753e-07
1.298e-07
1.6521e-07
2.07843e-07
2.58538e-07
3.18062e-07
3.87045e-07
4.65889e-07
5.54654e-07
6.52925e-07
7.59645e-07
8.72937e-07
9.89912e-07
1.10648e-06
1.21723e-06
1.3153e-06
1.39236e-06
1.43907e-06
1.44556e-06
1.44159e-06
1.43817e-06
1.43492e-06
1.43181e-06
1.42882e-06
1.42592e-06
1.42306e-06
1.42022e-06
1.41737e-06
1.41447e-06
1.41149e-06
1.40839e-06
1.40636e-06
1.40431e-06
1.40225e-06
1.40018e-06
1.3981e-06
1.39603e-06
1.39396e-06
1.39191e-06
1.38988e-06
1.3879e-06
1.38596e-06
1.38409e-06
1.38228e-06
1.38056e-06
1.37894e-06
1.37742e-06
1.37601e-06
1.37473e-06
1.37358e-06
1.37256e-06
1.37168e-06
1.37094e-06
1.37035e-06
1.3699e-06
1.37013e-06
4.64562e-07
1.15052e-07
3.83058e-08
1.61029e-08
8.096e-09
4.66107e-09
2.97284e-09
2.04966e-09
1.50043e-09
1.15093e-09
9.16126e-10
7.51234e-10
6.31131e-10
5.40953e-10
4.71504e-10
4.16881e-10
3.7318e-10
3.37766e-10
3.08844e-10
2.85207e-10
2.66081e-10
2.51036e-10
2.39934e-10
2.32905e-10
2.30337e-10
2.32878e-10
2.41446e-10
2.57237e-10
2.81732e-10
3.16704e-10
3.64209e-10
4.26569e-10
5.06328e-10
6.06192e-10
7.28915e-10
8.77149e-10
1.05321e-09
1.25878e-09
1.49448e-09
1.75933e-09
2.0501e-09
2.36053e-09
2.68044e-09
2.99497e-09
3.28383e-09
3.52108e-09
3.67552e-09
3.7139e-09
3.75804e-09
3.80635e-09
3.85746e-09
3.9132e-09
3.97764e-09
4.05716e-09
4.16185e-09
4.30767e-09
4.51986e-09
4.83806e-09
5.32416e-09
6.074e-09
7.23437e-09
9.02757e-09
1.17855e-08
1.41514e-08
1.7142e-08
2.08837e-08
2.55149e-08
3.11858e-08
3.80557e-08
4.62907e-08
5.60601e-08
6.75328e-08
8.08728e-08
9.62359e-08
1.13765e-07
1.33588e-07
1.55811e-07
1.8052e-07
2.07775e-07
2.37613e-07
2.70041e-07
3.05042e-07
3.42572e-07
3.82561e-07
4.2492e-07
4.69533e-07
5.16271e-07
5.65053e-07
4.64562e-07
1.15052e-07
3.83058e-08
1.61029e-08
8.09599e-09
4.66106e-09
2.97284e-09
2.04966e-09
1.50043e-09
1.15093e-09
9.16123e-10
7.51229e-10
6.31118e-10
5.40923e-10
4.71443e-10
4.16763e-10
3.72959e-10
3.37369e-10
3.08158e-10
2.84061e-10
2.64223e-10
2.48107e-10
2.35435e-10
2.26157e-10
2.20436e-10
2.18646e-10
2.21378e-10
2.29447e-10
2.43906e-10
2.66061e-10
2.97487e-10
3.40046e-10
3.95919e-10
4.67639e-10
5.58154e-10
6.70917e-10
8.10028e-10
9.80441e-10
1.18829e-09
1.44133e-09
1.74964e-09
2.12653e-09
2.58996e-09
3.16441e-09
3.88366e-09
4.79471e-09
5.96332e-09
7.48213e-09
9.48222e-09
1.21498e-08
1.57506e-08
2.06642e-08
2.74346e-08
3.68409e-08
4.9998e-08
6.84972e-08
9.46001e-08
1.31501e-07
1.8368e-07
2.57358e-07
3.61091e-07
5.06504e-07
7.09183e-07
8.73061e-07
1.06858e-06
1.29985e-06
1.57099e-06
1.88603e-06
2.24889e-06
2.66324e-06
3.13242e-06
3.65934e-06
4.24642e-06
4.89551e-06
5.60783e-06
6.384e-06
7.22395e-06
8.12696e-06
9.09169e-06
1.01162e-05
1.1198e-05
1.2334e-05
1.35209e-05
1.47548e-05
1.60316e-05
1.73469e-05
1.86962e-05
2.00761e-05
4.64534e-07
1.15046e-07
3.8304e-08
1.61022e-08
8.09564e-09
4.66087e-09
2.97272e-09
2.0496e-09
1.50045e-09
1.15116e-09
9.16889e-10
7.53288e-10
6.36113e-10
5.52177e-10
4.95292e-10
4.64714e-10
4.65013e-10
5.06956e-10
6.09211e-10
8.00806e-10
1.1243e-09
1.63962e-09
2.42862e-09
3.60009e-09
5.29547e-09
7.69472e-09
1.10226e-08
1.55543e-08
2.16217e-08
2.96178e-08
4.00022e-08
5.33047e-08
7.01308e-08
9.11673e-08
1.1719e-07
1.49078e-07
1.87829e-07
2.34588e-07
2.90691e-07
3.5772e-07
4.37589e-07
5.32664e-07
6.45922e-07
7.8117e-07
9.43346e-07
1.13891e-06
1.37638e-06
1.66702e-06
2.02574e-06
2.47232e-06
3.03297e-06
3.74231e-06
4.64598e-06
5.80387e-06
7.29419e-06
9.21843e-06
1.17073e-05
1.49279e-05
1.90914e-05
2.4462e-05
3.13664e-05
4.02035e-05
5.14537e-05
6.00581e-05
6.97866e-05
8.07114e-05
9.289e-05
0.000106368
0.000121181
0.000137349
0.00015488
0.000173769
0.000193994
0.000215522
0.000238306
0.000262289
0.000287401
0.000313565
0.000340695
0.000368701
0.000397487
0.000426953
0.000457
0.000487526
0.000518432
0.00054962
0.000580993
0.000612485
4.64477e-07
1.15035e-07
3.83002e-08
1.61007e-08
8.09495e-09
4.66065e-09
2.97343e-09
2.05351e-09
1.51494e-09
1.19673e-09
1.04462e-09
1.08008e-09
1.41162e-09
2.27771e-09
4.12429e-09
7.72572e-09
1.43611e-08
2.60588e-08
4.59229e-08
7.85485e-08
1.30529e-07
2.11055e-07
3.32605e-07
5.11729e-07
7.69921e-07
1.13453e-06
1.63971e-06
2.32728e-06
3.24754e-06
4.4599e-06
6.03356e-06
8.0479e-06
1.05931e-05
1.37705e-05
1.76936e-05
2.24886e-05
2.82962e-05
3.5273e-05
4.35945e-05
5.34588e-05
6.50926e-05
7.8758e-05
9.47629e-05
0.000113474
0.000135335
0.000160885
0.000190785
0.000225848
0.000267076
0.000315696
0.000373206
0.000441427
0.000522546
0.00061918
0.00073442
0.000871886
0.00103577
0.00123087
0.0014626
0.00173699
0.00206064
0.00244064
0.00288435
0.00320616
0.00355178
0.00392105
0.00431327
0.00472753
0.00516279
0.00561785
0.00609132
0.00658167
0.00708727
0.00760641
0.00813729
0.00867812
0.00922707
0.00978234
0.0103422
0.0109048
0.0114687
0.0120322
0.0125939
0.0131523
0.0137062
0.0142545
0.0147961
0.0153307
4.64397e-07
1.15019e-07
3.82951e-08
1.6099e-08
8.09738e-09
4.68321e-09
3.08967e-09
2.52581e-09
3.14417e-09
6.15355e-09
1.46534e-08
3.54299e-08
8.22281e-08
1.8126e-07
3.79919e-07
7.59806e-07
1.45544e-06
2.68027e-06
4.7614e-06
8.18345e-06
1.36414e-05
2.2103e-05
3.48811e-05
5.37186e-05
8.08818e-05
0.000119258
0.000172452
0.000244865
0.000341767
0.000469349
0.000634767
0.000846172
0.00111275
0.00144474
0.00185343
0.00235117
0.00295129
0.00366806
0.00451659
0.00551268
0.00667275
0.0080137
0.00955285
0.0113079
0.0132968
0.0155383
0.0180512
0.0208554
0.0239714
0.0274209
0.0312267
0.0354131