/*--------------------------------*- C++ -*----------------------------------*\
| =========                 |                                                 |
| \\      /  F ield         | OpenFOAM: The Open Source CFD Toolbox           |
|  \\    /   O peration     | Version:  5.x                                   |
|   \\  /    A nd           | Web:      www.OpenFOAM.org                      |
|    \\/     M anipulation  |                                                 |
\*---------------------------------------------------------------------------*/
FoamFile
{
    version     2.0;
    format      ascii;
    class       volScalarField;
    location    "700";
    object      nut;
}
// * * * * * * * * * * * * * * * * * * * * * * * * * * * * * * * * * * * * * //

dimensions      [0 2 -1 0 0 0 0];

internalField   nonuniform List<scalar> 
20540
(
2.10937e-10
3.19305e-11
2.10937e-10
6.41894e-11
2.10937e-10
1.51953e-10
2.10937e-10
3.20505e-10
2.10937e-10
5.98098e-10
2.10937e-10
1.00807e-09
2.10937e-10
1.5575e-09
2.10937e-10
2.2204e-09
2.10937e-10
2.91643e-09
2.10937e-10
3.49078e-09
2.10937e-10
3.71132e-09
2.10937e-10
3.32429e-09
2.10937e-10
2.25746e-09
2.10937e-10
9.73915e-10
2.10937e-10
2.46149e-10
2.10937e-10
6.78768e-11
2.10937e-10
4.1472e-11
2.10937e-10
3.77891e-11
2.10937e-10
3.72332e-11
2.10937e-10
3.71414e-11
2.10937e-10
3.71269e-11
2.10937e-10
3.71259e-11
2.10937e-10
3.71274e-11
2.10937e-10
3.71298e-11
2.10937e-10
3.71328e-11
2.10937e-10
3.71364e-11
2.10937e-10
3.71404e-11
2.10937e-10
3.71448e-11
2.10937e-10
3.71494e-11
2.10937e-10
3.71536e-11
2.10937e-10
3.71566e-11
2.10937e-10
3.7158e-11
2.10937e-10
3.7158e-11
2.10937e-10
3.71566e-11
2.10937e-10
3.71536e-11
2.10937e-10
3.71495e-11
2.10937e-10
3.71451e-11
2.10937e-10
3.71408e-11
2.10937e-10
3.71368e-11
2.10937e-10
3.71333e-11
2.10937e-10
3.71303e-11
2.10937e-10
3.71279e-11
2.10937e-10
3.71261e-11
2.10937e-10
3.71259e-11
2.10937e-10
3.71326e-11
2.10937e-10
3.71771e-11
2.10937e-10
3.74328e-11
2.10937e-10
3.89796e-11
2.10937e-10
4.92775e-11
2.10937e-10
1.19486e-10
2.10937e-10
4.97766e-10
2.10937e-10
1.51853e-09
2.10937e-10
2.77992e-09
2.10937e-10
3.58122e-09
2.10937e-10
3.72363e-09
2.10937e-10
3.3683e-09
2.10937e-10
2.75294e-09
2.10937e-10
2.07071e-09
2.10937e-10
1.44399e-09
2.10937e-10
9.33114e-10
2.10937e-10
5.54552e-10
2.10937e-10
2.98544e-10
2.10937e-10
1.42715e-10
2.10937e-10
6.11691e-11
2.10937e-10
3.09351e-11
1.75437e-06
1.71994e-06
1.60035e-06
1.51305e-06
1.44942e-06
1.40153e-06
1.36419e-06
1.33418e-06
1.30952e-06
1.28893e-06
1.27149e-06
1.25657e-06
1.24367e-06
1.23244e-06
1.22258e-06
1.21389e-06
1.20617e-06
1.19929e-06
1.19313e-06
1.18759e-06
1.18259e-06
1.17807e-06
1.17397e-06
1.17024e-06
1.16684e-06
1.16373e-06
1.16088e-06
1.15826e-06
1.15585e-06
1.15363e-06
1.15158e-06
1.14969e-06
1.14794e-06
1.14632e-06
1.14482e-06
1.14343e-06
1.14215e-06
1.14097e-06
1.13987e-06
1.13887e-06
1.13795e-06
1.13712e-06
1.13637e-06
1.13571e-06
1.13514e-06
1.13466e-06
1.13429e-06
1.13402e-06
1.13388e-06
1.13387e-06
1.13401e-06
1.13431e-06
1.13479e-06
1.13547e-06
1.13636e-06
1.1375e-06
1.1389e-06
1.14059e-06
1.14261e-06
1.14498e-06
1.14775e-06
1.15095e-06
1.15482e-06
1.15784e-06
1.16092e-06
1.16403e-06
1.16732e-06
1.1708e-06
1.17447e-06
1.17831e-06
1.18234e-06
1.18657e-06
1.19098e-06
1.19559e-06
1.2004e-06
1.20542e-06
1.21066e-06
1.21615e-06
1.22189e-06
1.22791e-06
1.23426e-06
1.24099e-06
1.24817e-06
1.25597e-06
1.26453e-06
1.27482e-06
1.28876e-06
1.34256e-06
3.45366e-05
3.84426e-05
3.80435e-05
3.73616e-05
3.67648e-05
3.62759e-05
3.58759e-05
3.55442e-05
3.52655e-05
3.50285e-05
3.48249e-05
3.46487e-05
3.4495e-05
3.436e-05
3.42407e-05
3.41348e-05
3.40403e-05
3.39558e-05
3.38798e-05
3.38112e-05
3.37491e-05
3.36928e-05
3.36416e-05
3.35949e-05
3.35523e-05
3.35133e-05
3.34774e-05
3.34445e-05
3.34141e-05
3.33861e-05
3.33602e-05
3.33363e-05
3.33142e-05
3.32937e-05
3.32747e-05
3.32571e-05
3.32408e-05
3.32257e-05
3.32117e-05
3.31988e-05
3.3187e-05
3.31761e-05
3.31662e-05
3.31573e-05
3.31493e-05
3.31424e-05
3.31366e-05
3.31319e-05
3.31283e-05
3.3126e-05
3.31252e-05
3.31259e-05
3.31283e-05
3.31325e-05
3.31388e-05
3.31472e-05
3.3158e-05
3.31714e-05
3.31876e-05
3.32069e-05
3.32292e-05
3.32564e-05
3.32851e-05
3.3304e-05
3.33284e-05
3.33557e-05
3.3383e-05
3.34108e-05
3.34397e-05
3.34696e-05
3.35005e-05
3.35324e-05
3.35654e-05
3.35993e-05
3.36342e-05
3.367e-05
3.37066e-05
3.37442e-05
3.37825e-05
3.38216e-05
3.38615e-05
3.39022e-05
3.39434e-05
3.39862e-05
3.40261e-05
3.40794e-05
3.40943e-05
3.4238e-05
6.18506e-05
7.57064e-05
7.7131e-05
7.67446e-05
7.6104e-05
7.54866e-05
7.49448e-05
7.4479e-05
7.40785e-05
7.37326e-05
7.34321e-05
7.31697e-05
7.29394e-05
7.27361e-05
7.25559e-05
7.23953e-05
7.22519e-05
7.21232e-05
7.20073e-05
7.19026e-05
7.18078e-05
7.17217e-05
7.16435e-05
7.15721e-05
7.15069e-05
7.14472e-05
7.13924e-05
7.1342e-05
7.12956e-05
7.12528e-05
7.12132e-05
7.11766e-05
7.11428e-05
7.11115e-05
7.10825e-05
7.10556e-05
7.10306e-05
7.10074e-05
7.09859e-05
7.09658e-05
7.09472e-05
7.093e-05
7.0914e-05
7.08992e-05
7.08855e-05
7.08729e-05
7.08614e-05
7.08511e-05
7.08415e-05
7.0833e-05
7.08256e-05
7.08193e-05
7.08141e-05
7.08102e-05
7.08074e-05
7.0806e-05
7.0806e-05
7.08072e-05
7.08098e-05
7.0814e-05
7.08185e-05
7.08286e-05
7.0827e-05
7.08141e-05
7.08163e-05
7.08288e-05
7.08383e-05
7.08453e-05
7.0851e-05
7.08558e-05
7.08597e-05
7.08627e-05
7.08646e-05
7.08653e-05
7.08647e-05
7.08624e-05
7.08581e-05
7.08515e-05
7.08421e-05
7.08294e-05
7.08125e-05
7.07905e-05
7.07613e-05
7.0725e-05
7.06664e-05
7.06208e-05
7.0459e-05
7.09557e-05
8.79021e-05
0.000115109
0.00011998
0.000120504
0.00012009
0.000119479
0.00011887
0.000118315
0.000117821
0.000117385
0.000117
0.00011666
0.000116359
0.000116092
0.000115854
0.000115641
0.00011545
0.000115279
0.000115124
0.000114984
0.000114857
0.000114742
0.000114637
0.000114542
0.000114454
0.000114374
0.000114301
0.000114233
0.000114171
0.000114113
0.00011406
0.000114011
0.000113966
0.000113924
0.000113885
0.000113849
0.000113816
0.000113785
0.000113756
0.000113729
0.000113703
0.00011368
0.000113657
0.000113636
0.000113616
0.000113597
0.000113579
0.000113562
0.000113545
0.000113528
0.000113511
0.000113495
0.000113478
0.000113461
0.000113444
0.000113427
0.000113409
0.000113389
0.000113369
0.000113347
0.000113321
0.000113299
0.000113251
0.000113194
0.000113156
0.000113137
0.000113115
0.000113087
0.000113054
0.000113018
0.000112978
0.000112934
0.000112887
0.000112835
0.00011278
0.000112719
0.000112653
0.000112581
0.000112502
0.000112414
0.000112318
0.00011221
0.000112088
0.00011195
0.000111775
0.000111614
0.00011134
0.000112279
0.000112862
0.000157168
0.000167678
0.000170045
0.000170293
0.000169917
0.000169372
0.000168808
0.000168274
0.000167783
0.00016734
0.000166941
0.000166584
0.000166263
0.000165976
0.000165717
0.000165484
0.000165274
0.000165084
0.000164912
0.000164756
0.000164613
0.000164484
0.000164366
0.000164258
0.000164159
0.000164068
0.000163984
0.000163907
0.000163836
0.000163771
0.00016371
0.000163654
0.000163603
0.000163555
0.00016351
0.000163469
0.000163431
0.000163395
0.000163361
0.000163329
0.000163299
0.000163271
0.000163243
0.000163217
0.000163191
0.000163166
0.000163141
0.000163114
0.000163087
0.000163059
0.000163029
0.000162998
0.000162964
0.000162927
0.000162887
0.000162844
0.000162796
0.000162742
0.000162683
0.000162614
0.000162547
0.000162437
0.000162325
0.000162231
0.000162163
0.000162094
0.000162016
0.00016193
0.000161838
0.000161738
0.000161632
0.000161519
0.000161398
0.000161269
0.000161133
0.000160987
0.000160831
0.000160664
0.000160485
0.000160291
0.000160081
0.000159851
0.000159599
0.000159302
0.00015903
0.000158707
0.000159999
0.000136187
0.000201613
0.000220639
0.000226236
0.000227839
0.000228078
0.000227824
0.000227398
0.000226923
0.00022645
0.000226
0.000225583
0.000225199
0.00022485
0.000224533
0.000224245
0.000223984
0.000223747
0.000223531
0.000223335
0.000223156
0.000222994
0.000222845
0.00022271
0.000222586
0.000222473
0.000222369
0.000222273
0.000222184
0.000222103
0.000222028
0.000221958
0.000221895
0.000221835
0.000221781
0.00022173
0.000221683
0.000221639
0.000221598
0.000221559
0.000221523
0.000221488
0.000221454
0.000221421
0.000221389
0.000221357
0.000221324
0.00022129
0.000221254
0.000221216
0.000221174
0.000221128
0.000221078
0.000221023
0.000220961
0.000220893
0.000220817
0.000220731
0.000220635
0.000220528
0.000220403
0.000220276
0.000220089
0.000219914
0.000219749
0.000219613
0.00021948
0.000219338
0.000219185
0.000219022
0.000218848
0.000218663
0.000218468
0.000218263
0.000218046
0.000217817
0.000217576
0.000217322
0.000217053
0.000216768
0.000216466
0.000216144
0.000215798
0.000215431
0.000215017
0.000214654
0.000214328
0.000215808
0.000156937
0.000247622
0.000278803
0.000289611
0.000293627
0.00029509
0.000295504
0.000295465
0.000295224
0.000294895
0.000294534
0.000294171
0.000293821
0.00029349
0.000293182
0.000292897
0.000292635
0.000292395
0.000292175
0.000291973
0.000291788
0.000291619
0.000291465
0.000291324
0.000291194
0.000291076
0.000290967
0.000290867
0.000290774
0.000290689
0.000290611
0.000290539
0.000290472
0.000290411
0.000290354
0.000290302
0.000290253
0.000290208
0.000290165
0.000290125
0.000290086
0.000290049
0.000290013
0.000289977
0.000289941
0.000289904
0.000289865
0.000289824
0.000289778
0.000289727
0.000289671
0.000289608
0.000289536
0.000289456
0.000289366
0.000289264
0.000289148
0.000289018
0.000288869
0.000288703
0.00028851
0.000288309
0.000288033
0.000287789
0.000287541
0.000287319
0.000287106
0.000286885
0.000286651
0.000286403
0.000286141
0.000285866
0.000285577
0.000285273
0.000284956
0.000284624
0.000284277
0.000283914
0.000283534
0.000283137
0.000282722
0.000282286
0.000281829
0.000281354
0.000280844
0.000280422
0.000280122
0.000281644
0.000173834
0.000293786
0.000341555
0.000360302
0.000368292
0.000371915
0.000373594
0.000374347
0.000374628
0.000374656
0.000374547
0.000374367
0.000374152
0.000373923
0.000373694
0.000373471
0.000373259
0.000373059
0.000372871
0.000372697
0.000372535
0.000372386
0.000372249
0.000372123
0.000372008
0.000371902
0.000371805
0.000371715
0.000371632
0.000371556
0.000371486
0.000371421
0.000371362
0.000371308
0.000371258
0.000371213
0.00037117
0.000371131
0.000371093
0.000371058
0.000371024
0.00037099
0.000370956
0.000370922
0.000370886
0.000370847
0.000370806
0.00037076
0.000370707
0.000370646
0.000370576
0.000370495
0.000370402
0.000370295
0.000370173
0.000370033
0.000369873
0.000369691
0.000369484
0.00036925
0.00036898
0.000368692
0.000368318
0.000368002
0.000367664
0.000367343
0.000367037
0.000366724
0.000366397
0.000366054
0.000365695
0.00036532
0.000364928
0.00036452
0.000364095
0.000363655
0.000363198
0.000362724
0.000362234
0.000361727
0.000361204
0.000360665
0.00036011
0.00035955
0.000358975
0.000358541
0.00035829
0.000359791
0.000185307
0.000338012
0.000407555
0.000437861
0.000452055
0.000459233
0.000463095
0.000465272
0.000466532
0.00046726
0.000467668
0.00046788
0.000467971
0.000467984
0.000467951
0.000467889
0.000467811
0.000467725
0.000467634
0.000467544
0.000467456
0.000467372
0.000467293
0.000467219
0.000467151
0.000467088
0.00046703
0.000466976
0.000466926
0.000466881
0.000466839
0.000466801
0.000466767
0.000466737
0.000466709
0.000466684
0.000466662
0.000466641
0.000466621
0.000466601
0.000466581
0.000466561
0.000466539
0.000466514
0.000466486
0.000466454
0.000466416
0.000466372
0.000466317
0.00046625
0.00046617
0.000466075
0.000465962
0.00046583
0.000465677
0.000465499
0.000465294
0.000465058
0.000464789
0.000464483
0.000464129
0.000463749
0.000463272
0.000462887
0.00046246
0.000462035
0.000461625
0.000461213
0.000460787
0.000460344
0.000459884
0.000459407
0.000458912
0.000458399
0.00045787
0.000457325
0.000456764
0.000456188
0.000455599
0.000454997
0.000454384
0.000453764
0.000453141
0.000452532
0.000451939
0.000451545
0.000451374
0.000452895
0.000189558
0.000377418
0.000474514
0.000521003
0.000544482
0.000557235
0.000564646
0.000569212
0.000572157
0.00057412
0.000575462
0.0005764
0.000577067
0.000577547
0.000577898
0.000578158
0.000578353
0.000578501
0.000578613
0.0005787
0.000578768
0.000578823
0.000578868
0.000578908
0.000578942
0.000578972
0.000578999
0.000579023
0.000579045
0.000579065
0.000579085
0.000579105
0.000579125
0.000579144
0.000579164
0.000579184
0.000579203
0.000579221
0.000579237
0.000579252
0.000579264
0.000579273
0.000579278
0.000579278
0.000579272
0.000579258
0.000579236
0.000579204
0.000579158
0.000579095
0.000579015
0.000578913
0.000578788
0.000578638
0.000578458
0.000578247
0.000578001
0.000577715
0.000577386
0.000577011
0.000576576
0.000576107
0.000575531
0.000575084
0.000574579
0.000574056
0.000573546
0.000573034
0.000572511
0.000571972
0.000571417
0.000570845
0.000570256
0.00056965
0.00056903
0.000568396
0.00056775
0.000567094
0.00056643
0.000565761
0.000565092
0.00056443
0.000563782
0.000563174
0.000562621
0.000562328
0.000562286
0.000563946
0.000184718
0.000408243
0.000538948
0.000607281
0.000644153
0.00066532
0.000678264
0.000686646
0.000692338
0.000696352
0.000699269
0.000701448
0.000703113
0.000704411
0.000705443
0.000706277
0.000706964
0.000707536
0.000708018
0.00070843
0.000708785
0.000709097
0.000709374
0.000709622
0.000709846
0.000710049
0.000710234
0.000710403
0.000710558
0.000710702
0.000710837
0.000710963
0.000711082
0.000711195
0.000711302
0.000711403
0.000711499
0.000711589
0.000711674
0.000711752
0.000711823
0.000711888
0.000711944
0.000711991
0.000712029
0.000712055
0.000712069
0.000712068
0.000712048
0.000712008
0.000711943
0.000711851
0.000711729
0.000711574
0.000711383
0.000711152
0.000710878
0.000710555
0.00071018
0.000709748
0.000709246
0.000708701
0.000708044
0.00070755
0.000706989
0.00070639
0.000705794
0.000705197
0.000704591
0.000703973
0.00070334
0.000702694
0.000702033
0.00070136
0.000700676
0.000699984
0.000699287
0.000698587
0.000697888
0.000697197
0.00069652
0.000695868
0.000695254
0.000694711
0.000694268
0.000694139
0.00069429
0.000696236
0.00016915
0.000425841
0.000595916
0.000692692
0.000748235
0.000781676
0.000802952
0.000817216
0.000827218
0.000834493
0.000839948
0.000844147
0.000847452
0.000850105
0.000852271
0.00085407
0.000855584
0.000856875
0.000857986
0.000858952
0.0008598
0.000860552
0.000861225
0.000861832
0.000862382
0.000862882
0.000863339
0.000863758
0.000864143
0.0008645
0.000864831
0.00086514
0.00086543
0.000865703
0.000865959
0.000866201
0.000866428
0.000866642
0.000866843
0.00086703
0.000867204
0.000867365
0.000867511
0.000867643
0.000867759
0.000867858
0.000867939
0.000868
0.000868036
0.000868046
0.000868024
0.000867969
0.000867876
0.000867743
0.000867566
0.000867341
0.000867064
0.00086673
0.000866335
0.000865875
0.000865335
0.000864745
0.000864041
0.000863525
0.000862943
0.000862305
0.000861658
0.000861008
0.00086035
0.000859683
0.000859007
0.000858321
0.000857627
0.000856927
0.000856223
0.00085552
0.00085482
0.000854129
0.000853453
0.000852799
0.000852177
0.000851602
0.000851093
0.000850688
0.00085043
0.000850528
0.000850949
0.000853303
0.000142047
0.000424853
0.000638798
0.000771248
0.000851946
0.000902734
0.000936178
0.000959232
0.000975786
0.000988087
0.000997493
0.00100487
0.00101077
0.00101558
0.00101956
0.00102291
0.00102577
0.00102822
0.00103035
0.00103222
0.00103388
0.00103535
0.00103667
0.00103787
0.00103895
0.00103994
0.00104084
0.00104167
0.00104243
0.00104314
0.00104379
0.0010444
0.00104497
0.00104551
0.00104601
0.00104648
0.00104692
0.00104734
0.00104773
0.0010481
0.00104844
0.00104876
0.00104905
0.00104933
0.00104957
0.0010498
0.00105
0.00105017
0.0010503
0.00105041
0.00105047
0.0010505
0.00105048
0.00105041
0.00105029
0.00105011
0.00104987
0.00104957
0.0010492
0.00104876
0.00104823
0.00104765
0.00104695
0.00104645
0.00104589
0.00104527
0.00104463
0.00104398
0.00104332
0.00104265
0.00104198
0.00104131
0.00104064
0.00103997
0.00103931
0.00103865
0.00103802
0.0010374
0.00103682
0.00103628
0.00103578
0.00103536
0.00103504
0.00103485
0.00103485
0.00103524
0.001036
0.00103883
0.000104576
0.000399731
0.000659202
0.000834554
0.000947958
0.00102249
0.00107318
0.001109
0.00113525
0.00115508
0.00117048
0.0011827
0.00119259
0.00120074
0.00120756
0.00121333
0.00121828
0.00122257
0.00122631
0.00122961
0.00123253
0.00123514
0.00123749
0.00123962
0.00124156
0.00124332
0.00124493
0.00124641
0.00124778
0.00124904
0.00125021
0.00125129
0.00125231
0.00125326
0.00125415
0.00125499
0.00125577
0.00125651
0.0012572
0.00125785
0.00125846
0.00125904
0.00125957
0.00126007
0.00126053
0.00126095
0.00126134
0.00126169
0.001262
0.00126227
0.00126249
0.00126265
0.00126277
0.00126283
0.00126282
0.00126276
0.00126263
0.00126242
0.00126214
0.00126179
0.00126135
0.00126085
0.00126024
0.00125981
0.00125934
0.0012588
0.00125823
0.00125765
0.00125706
0.00125647
0.00125588
0.00125529
0.00125472
0.00125415
0.0012536
0.00125308
0.00125258
0.00125212
0.00125171
0.00125136
0.00125108
0.00125089
0.00125083
0.00125094
0.00125127
0.001252
0.00125314
0.00125648
6.21982e-05
0.000345971
0.000647188
0.000871473
0.00102576
0.0011317
0.00120611
0.00125998
0.00130019
0.00133103
0.00135527
0.00137472
0.00139062
0.00140381
0.00141492
0.00142438
0.00143254
0.00143963
0.00144585
0.00145134
0.00145623
0.00146061
0.00146455
0.00146812
0.00147137
0.00147433
0.00147705
0.00147954
0.00148184
0.00148396
0.00148593
0.00148776
0.00148947
0.00149106
0.00149256
0.00149396
0.00149528
0.00149651
0.00149767
0.00149877
0.00149979
0.00150076
0.00150167
0.00150252
0.00150331
0.00150405
0.00150474
0.00150538
0.00150596
0.00150649
0.00150696
0.00150736
0.00150771
0.00150798
0.00150819
0.00150833
0.00150839
0.00150838
0.00150829
0.00150812
0.00150786
0.00150756
0.00150715
0.00150686
0.00150654
0.00150616
0.00150576
0.00150534
0.00150491
0.00150448
0.00150405
0.00150364
0.00150324
0.00150286
0.00150252
0.0015022
0.00150193
0.00150172
0.00150156
0.00150148
0.0015015
0.00150163
0.0015019
0.00150236
0.00150307
0.00150418
0.00150573
0.00150955
2.72653e-05
0.000262783
0.000592223
0.00086809
0.00107111
0.00121706
0.00132304
0.00140167
0.00146146
0.001508
0.00154501
0.001575
0.0015997
0.00162035
0.00163784
0.00165281
0.00166577
0.00167708
0.00168702
0.00169583
0.00170368
0.00171073
0.00171708
0.00172285
0.00172809
0.00173288
0.00173727
0.0017413
0.00174502
0.00174845
0.00175164
0.0017546
0.00175736
0.00175995
0.00176236
0.00176463
0.00176675
0.00176875
0.00177063
0.00177239
0.00177406
0.00177562
0.0017771
0.00177848
0.00177979
0.00178101
0.00178216
0.00178324
0.00178425
0.00178518
0.00178604
0.00178682
0.00178752
0.00178815
0.0017887
0.00178917
0.00178955
0.00178986
0.00179008
0.00179023
0.00179029
0.00179031
0.00179023
0.00179017
0.00179009
0.00178997
0.00178982
0.00178965
0.00178948
0.00178931
0.00178915
0.00178901
0.00178888
0.00178879
0.00178873
0.00178872
0.00178876
0.00178887
0.00178905
0.00178932
0.00178969
0.0017902
0.00179086
0.00179172
0.00179284
0.00179433
0.00179627
0.0018005
8.98976e-06
0.000158473
0.00048585
0.000808401
0.00106578
0.00126043
0.00140689
0.00151842
0.0016049
0.00167324
0.00172824
0.00177323
0.00181059
0.00184203
0.00186879
0.00189182
0.00191183
0.00192935
0.0019448
0.00195852
0.00197077
0.00198179
0.00199174
0.00200077
0.00200899
0.00201651
0.0020234
0.00202974
0.00203558
0.00204099
0.002046
0.00205066
0.00205501
0.00205907
0.00206286
0.00206642
0.00206976
0.0020729
0.00207585
0.00207863
0.00208125
0.00208372
0.00208604
0.00208824
0.00209031
0.00209226
0.00209411
0.00209585
0.0020975
0.00209903
0.00210048
0.00210182
0.00210307
0.00210423
0.00210529
0.00210626
0.00210714
0.00210793
0.00210864
0.00210927
0.00210981
0.00211031
0.00211072
0.002111
0.00211126
0.00211149
0.00211169
0.00211189
0.00211208
0.00211227
0.00211247
0.00211268
0.00211293
0.0021132
0.00211352
0.00211388
0.00211431
0.0021148
0.00211538
0.00211605
0.00211683
0.00211775
0.00211883
0.0021201
0.00212161
0.00212345
0.00212574
0.00213025
2.44721e-06
6.29737e-05
0.000328811
0.000676976
0.000988181
0.00123845
0.00143449
0.00158813
0.00170983
0.00180758
0.00188724
0.00195309
0.00200823
0.00205494
0.00209493
0.00212951
0.00215967
0.00218616
0.0022096
0.00223047
0.00224915
0.00226597
0.00228118
0.002295
0.0023076
0.00231913
0.00232971
0.00233944
0.00234843
0.00235674
0.00236445
0.00237162
0.00237831
0.00238455
0.00239039
0.00239587
0.00240101
0.00240584
0.00241038
0.00241465
0.00241868
0.00242248
0.00242607
0.00242946
0.00243267
0.0024357
0.00243857
0.0024413
0.00244388
0.00244632
0.00244862
0.0024508
0.00245285
0.00245479
0.0024566
0.0024583
0.0024599
0.00246139
0.00246279
0.0024641
0.00246532
0.0024665
0.00246759
0.00246832
0.00246903
0.00246971
0.00247037
0.00247101
0.00247165
0.00247229
0.00247294
0.0024736
0.00247428
0.002475
0.00247575
0.00247655
0.0024774
0.00247833
0.00247933
0.00248043
0.00248163
0.00248295
0.00248442
0.00248607
0.00248793
0.00249005
0.00249257
0.00249719
5.73213e-07
1.54882e-05
0.000150996
0.000467389
0.000816338
0.00112324
0.00137614
0.00158115
0.00174753
0.00188365
0.00199617
0.00209023
0.00216971
0.00223755
0.00229598
0.00234677
0.00239125
0.00243048
0.0024653
0.00249637
0.00252426
0.00254941
0.00257221
0.00259294
0.00261187
0.00262921
0.00264513
0.00265979
0.00267334
0.00268588
0.00269752
0.00270835
0.00271844
0.00272788
0.0027367
0.00274498
0.00275274
0.00276004
0.0027669
0.00277336
0.00277946
0.00278521
0.00279064
0.00279577
0.00280064
0.00280524
0.00280962
0.00281377
0.00281772
0.00282146
0.00282501
0.00282839
0.00283159
0.00283464
0.00283752
0.00284026
0.00284286
0.00284533
0.00284769
0.00284993
0.00285207
0.00285415
0.00285614
0.00285745
0.00285872
0.00285996
0.00286116
0.00286235
0.00286352
0.00286468
0.00286583
0.00286699
0.00286816
0.00286935
0.00287057
0.00287182
0.00287312
0.00287447
0.00287589
0.00287738
0.00287895
0.00288063
0.00288243
0.00288436
0.00288644
0.00288873
0.00289133
0.00289581
1.12819e-07
2.79196e-06
3.74575e-05
0.000213189
0.000539428
0.000886667
0.00119688
0.00146004
0.0016802
0.0018643
0.00201901
0.00215003
0.00226191
0.00235819
0.00244171
0.00251472
0.00257899
0.00263591
0.0026866
0.00273198
0.00277282
0.00280974
0.00284325
0.0028738
0.00290173
0.00292733
0.00295088
0.00297259
0.00299266
0.00301126
0.00302853
0.00304462
0.00305962
0.00307363
0.00308676
0.00309906
0.0031106
0.00312146
0.00313167
0.00314129
0.00315036
0.00315892
0.00316701
0.00317467
0.00318192
0.0031888
0.00319532
0.00320153
0.00320743
0.00321305
0.00321838
0.00322346
0.0032283
0.0032329
0.00323729
0.00324147
0.00324546
0.00324926
0.0032529
0.00325639
0.00325973
0.00326298
0.00326609
0.00326813
0.0032701
0.003272
0.00327385
0.00327564
0.0032774
0.00327913
0.00328083
0.00328251
0.00328418
0.00328584
0.00328751
0.00328919
0.00329088
0.00329261
0.00329437
0.00329617
0.00329802
0.00329993
0.00330192
0.00330398
0.00330613
0.0033084
0.0033109
0.00331486
1.52893e-08
4.13902e-07
5.61148e-06
4.78491e-05
0.000213217
0.000519447
0.000863906
0.00118225
0.00146133
0.0017017
0.00190793
0.00208546
0.00223897
0.00237238
0.00248903
0.00259173
0.00268266
0.00276358
0.00283594
0.00290094
0.00295961
0.0030128
0.00306121
0.00310542
0.00314591
0.0031831
0.00321735
0.00324896
0.00327821
0.00330535
0.00333058
0.00335408
0.00337602
0.00339654
0.00341575
0.00343377
0.00345069
0.0034666
0.00348158
0.00349569
0.003509
0.00352157
0.00353345
0.00354469
0.00355534
0.00356544
0.00357503
0.00358414
0.00359282
0.00360108
0.00360893
0.00361641
0.00362353
0.00363031
0.00363678
0.00364294
0.00364881
0.00365442
0.00365977
0.00366489
0.00366979
0.00367451
0.00367902
0.00368196
0.00368475
0.00368744
0.00369001
0.00369249
0.00369489
0.00369721
0.00369946
0.00370165
0.00370379
0.00370588
0.00370794
0.00370996
0.00371196
0.00371394
0.00371591
0.00371788
0.00371984
0.00372181
0.00372378
0.00372576
0.00372777
0.0037298
0.00373193
0.00373494
6.91991e-10
4.93363e-08
6.44196e-07
5.84638e-06
3.72724e-05
0.000152
0.000393189
0.000715667
0.0010426
0.00133979
0.00160344
0.00183603
0.00204042
0.00222016
0.00237899
0.00252009
0.00264594
0.00275855
0.00285969
0.00295092
0.00303358
0.00310879
0.00317745
0.00324032
0.00329803
0.00335112
0.00340009
0.00344535
0.00348729
0.00352625
0.00356251
0.00359633
0.00362794
0.00365751
0.00368523
0.00371125
0.0037357
0.00375869
0.00378035
0.00380076
0.00382002
0.00383821
0.00385541
0.00387168
0.0038871
0.00390173
0.00391561
0.0039288
0.00394135
0.0039533
0.00396469
0.00397549
0.00398578
0.00399557
0.00400488
0.00401374
0.00402217
0.00403019
0.00403781
0.00404507
0.00405198
0.00405856
0.0040648
0.00406883
0.00407262
0.00407621
0.00407961
0.00408285
0.00408593
0.00408885
0.00409165
0.00409431
0.00409686
0.00409929
0.00410163
0.00410387
0.00410602
0.00410809
0.00411008
0.004112
0.00411384
0.00411562
0.00411733
0.00411898
0.00412057
0.00412211
0.00412359
0.00412513
2.32004e-11
4.0107e-09
6.01279e-08
5.28069e-07
3.50956e-06
1.82548e-05
7.20628e-05
0.000205469
0.000436168
0.000732863
0.00104262
0.00133192
0.00159187
0.00182483
0.00203449
0.0022233
0.00239315
0.00254601
0.00268404
0.00280924
0.00292331
0.00302762
0.00312322
0.003211
0.00329176
0.0033662
0.00343496
0.00349863
0.00355774
0.00361273
0.00366401
0.00371191
0.00375674
0.00379875
0.00383816
0.00387518
0.00390999
0.00394276
0.00397363
0.00400274
0.00403021
0.00405617
0.00408071
0.00410394
0.00412595
0.00414682
0.00416663
0.00418544
0.00420333
0.00422036
0.00423658
0.00425201
0.00426666
0.00428057
0.00429377
0.00430629
0.00431816
0.0043294
0.00434004
0.0043501
0.0043596
0.00436856
0.00437696
0.00438233
0.00438731
0.00439197
0.00439633
0.00440041
0.00440421
0.00440776
0.00441108
0.00441417
0.00441704
0.00441971
0.00442219
0.00442448
0.00442659
0.00442854
0.00443032
0.00443193
0.0044334
0.00443471
0.00443587
0.00443689
0.00443778
0.00443853
0.00443904
0.00443861
1.03641e-11
1.03923e-10
4.13222e-09
3.83228e-08
2.47855e-07
1.29409e-06
5.68318e-06
2.10724e-05
6.46145e-05
0.000159777
0.000322825
0.000550458
0.000818868
0.00109747
0.00136381
0.00160783
0.00182838
0.0020282
0.00221059
0.00237804
0.00253217
0.00267405
0.0028046
0.00292471
0.00303537
0.00313752
0.00323209
0.0033199
0.00340166
0.00347795
0.0035493
0.00361611
0.00367875
0.00373754
0.00379276
0.00384468
0.00389352
0.0039395
0.00398284
0.00402371
0.0040623
0.00409877
0.00413326
0.00416591
0.00419685
0.00422619
0.00425404
0.00428049
0.00430564
0.00432956
0.00435232
0.004374
0.00439461
0.00441413
0.00443261
0.00445009
0.0044666
0.00448216
0.00449681
0.00451057
0.00452345
0.00453547
0.00454661
0.00455366
0.00456011
0.00456608
0.00457156
0.00457661
0.00458123
0.00458544
0.00458927
0.00459274
0.00459587
0.00459865
0.00460113
0.00460329
0.00460517
0.00460676
0.00460808
0.00460914
0.00460994
0.0046105
0.00461083
0.00461093
0.00461084
0.00461053
0.00460979
0.00460696
1.00202e-11
5.226e-12
1.29131e-10
2.08076e-09
1.39148e-08
7.09934e-08
3.0689e-07
1.15755e-06
3.87085e-06
1.15437e-05
3.06447e-05
7.15433e-05
0.000145942
0.000262343
0.000422598
0.000620716
0.000844363
0.00107879
0.00131102
0.0015322
0.00173783
0.0019267
0.00209963
0.00225836
0.00240481
0.00254071
0.00266744
0.00278603
0.00289723
0.00300161
0.00309962
0.00319164
0.00327803
0.00335915
0.00343533
0.00350692
0.00357424
0.0036376
0.00369731
0.00375364
0.00380683
0.00385713
0.00390474
0.00394985
0.00399264
0.00403324
0.00407181
0.00410847
0.00414334
0.0041765
0.00420807
0.00423812
0.00426671
0.00429388
0.00431955
0.00434374
0.00436652
0.0043879
0.00440793
0.00442661
0.00444398
0.00446003
0.00447474
0.00448394
0.00449228
0.00449987
0.00450677
0.00451299
0.00451857
0.00452355
0.00452795
0.00453181
0.00453514
0.00453796
0.00454032
0.00454221
0.00454367
0.00454471
0.00454536
0.00454562
0.00454553
0.0045451
0.00454435
0.0045433
0.00454199
0.00454039
0.0045382
0.00453281
1.00134e-11
3.77814e-12
3.23122e-12
5.38445e-11
5.65347e-10
3.0343e-09
1.29455e-08
4.80081e-08
1.58961e-07
4.76568e-07
1.30898e-06
3.31973e-06
7.81703e-06
1.71293e-05
3.485e-05
6.55934e-05
0.000114139
0.000184327
0.000278233
0.000395815
0.000534955
0.000691793
0.000861302
0.00103802
0.00121677
0.00139316
0.00156389
0.00172673
0.00188043
0.0020245
0.002159
0.00228435
0.00240117
0.00251016
0.00261205
0.00270754
0.00279727
0.00288179
0.00296159
0.00303709
0.00310866
0.00317659
0.00324113
0.00330252
0.00336094
0.00341656
0.00346953
0.00351997
0.00356801
0.00361376
0.00365732
0.00369877
0.00373822
0.00377575
0.00381133
0.00384478
0.00387616
0.00390551
0.00393285
0.00395822
0.00398162
0.00400308
0.00402253
0.00403457
0.00404539
0.00405512
0.00406384
0.00407158
0.0040784
0.00408435
0.00408947
0.0040938
0.00409738
0.00410025
0.00410245
0.00410402
0.00410498
0.00410538
0.00410524
0.0041046
0.0041035
0.00410196
0.00410003
0.00409773
0.0040951
0.00409214
0.00408851
0.00408092
1.00149e-11
3.75006e-12
1.8372e-12
1.59596e-12
9.96635e-12
8.51587e-11
4.07402e-10
1.52427e-09
4.99672e-09
1.48149e-08
4.03442e-08
1.01924e-07
2.40836e-07
5.35994e-07
1.12957e-06
2.26382e-06
4.33131e-06
7.93441e-06
1.39361e-05
2.3472e-05
3.78985e-05
5.86701e-05
8.71723e-05
0.000124553
0.000171598
0.000228663
0.000295676
0.000372174
0.000457362
0.000550193
0.000649438
0.000753763
0.000861799
0.000972202
0.00108371
0.00119517
0.0013056
0.00141414
0.0015201
0.00162296
0.00172233
0.00181792
0.00190956
0.00199718
0.00208076
0.00216033
0.00223598
0.00230781
0.00237594
0.00244051
0.00250167
0.00255956
0.00261431
0.00266607
0.0027151
0.0027612
0.00280416
0.00284405
0.00288096
0.00291493
0.00294602
0.00297425
0.00299959
0.0030151
0.00302894
0.00304128
0.00305221
0.0030618
0.00307013
0.00307727
0.0030833
0.00308827
0.00309226
0.00309532
0.00309752
0.00309891
0.00309955
0.00309948
0.00309877
0.00309747
0.00309562
0.00309327
0.00309046
0.00308725
0.00308367
0.00307973
0.00307523
0.00306718
1.00166e-11
3.75014e-12
1.81524e-12
1.0708e-12
8.08136e-13
1.36554e-12
6.87007e-12
3.2406e-11
1.13791e-10
3.40887e-10
9.24411e-10
2.31955e-09
5.44609e-09
1.20578e-08
2.53227e-08
5.06889e-08
9.71366e-08
1.78914e-07
3.17798e-07
5.45855e-07
9.08723e-07
1.46946e-06
2.3129e-06
3.55008e-06
5.32186e-06
7.8005e-06
1.11882e-05
1.57119e-05
2.16146e-05
2.91439e-05
3.85387e-05
5.00163e-05
6.37605e-05
7.99125e-05
9.85649e-05
0.000119759
0.000143485
0.000169687
0.000198265
0.000229082
0.000261973
0.000296747