/*--------------------------------*- C++ -*----------------------------------*\
| =========                 |                                                 |
| \\      /  F ield         | OpenFOAM: The Open Source CFD Toolbox           |
|  \\    /   O peration     | Version:  5.x                                   |
|   \\  /    A nd           | Web:      www.OpenFOAM.org                      |
|    \\/     M anipulation  |                                                 |
\*---------------------------------------------------------------------------*/
FoamFile
{
    version     2.0;
    format      ascii;
    class       volScalarField;
    location    "700";
    object      p;
}
// * * * * * * * * * * * * * * * * * * * * * * * * * * * * * * * * * * * * * //

dimensions      [0 2 -2 0 0 0 0];

internalField   nonuniform List<scalar> 
20540
(
53.6237
55.6515
53.6237
55.6518
53.6237
55.6525
53.6237
55.6533
53.6237
55.6539
53.6237
55.6539
53.6237
55.6529
53.6237
55.6507
53.6237
55.6465
53.6237
55.6396
53.6237
55.6292
53.6237
55.6143
53.6237
55.5939
53.6237
55.567
53.6237
55.5325
53.6237
55.4897
53.6237
55.4377
53.6236
55.3754
53.6236
55.3012
53.6235
55.2132
53.6233
55.1092
53.6231
54.9873
53.6228
54.8452
53.6222
54.6814
53.6215
54.4947
53.6204
54.2853
53.619
54.0558
53.6172
53.8119
53.615
53.5651
53.6127
53.3349
53.6109
53.1745
53.6099
53.0969
53.6099
53.0976
53.6109
53.1767
53.6127
53.3361
53.615
53.5589
53.6171
53.7983
53.6189
54.0358
53.6203
54.2608
53.6214
54.4673
53.6221
54.6528
53.6227
54.8168
53.6231
54.96
53.6233
55.0838
53.6235
55.1901
53.6236
55.2809
53.6237
55.3579
53.6237
55.4231
53.6237
55.4779
53.6237
55.5237
53.6238
55.5613
53.6238
55.5914
53.6238
55.6148
53.6238
55.6325
53.6238
55.6453
53.6238
55.6542
53.6238
55.6601
53.6238
55.6637
53.6238
55.6655
53.6238
55.6663
53.6238
55.6662
53.6238
55.6656
53.6238
55.6648
53.6238
55.6641
53.6238
55.6639
49.3759
34.6699
23.3732
14.5349
6.90123
-0.195115
-6.90008
-13.206
-19.1306
-24.7167
-30.0026
-35.0162
-39.7793
-44.3106
-48.6265
-52.7418
-56.6693
-60.4206
-64.0062
-67.4354
-70.7169
-73.8585
-76.8676
-79.7508
-82.5146
-85.1648
-87.7069
-90.1459
-92.4867
-94.7339
-96.8917
-98.9642
-100.955
-102.869
-104.708
-106.478
-108.18
-109.819
-111.398
-112.921
-114.391
-115.813
-117.19
-118.526
-119.827
-121.096
-122.34
-123.563
-124.773
-125.974
-127.175
-128.382
-129.603
-130.846
-132.12
-133.434
-134.796
-136.218
-137.711
-139.287
-140.955
-142.755
-144.593
-146.507
-148.086
-149.538
-151.038
-152.582
-154.166
-155.791
-157.458
-159.167
-160.919
-162.716
-164.56
-166.452
-168.396
-170.394
-172.451
-174.573
-176.768
-179.048
-181.426
-183.934
-186.567
-189.556
-192.297
-197.993
49.3895
34.6718
23.3738
14.5353
6.90148
-0.194926
-6.89993
-13.2058
-19.1305
-24.7166
-30.0025
-35.0161
-39.7793
-44.3105
-48.6264
-52.7417
-56.6693
-60.4206
-64.0061
-67.4354
-70.7168
-73.8585
-76.8675
-79.7508
-82.5146
-85.1648
-87.7068
-90.1459
-92.4867
-94.7339
-96.8917
-98.9642
-100.955
-102.869
-104.708
-106.478
-108.18
-109.819
-111.398
-112.921
-114.391
-115.813
-117.19
-118.526
-119.827
-121.096
-122.34
-123.563
-124.773
-125.974
-127.175
-128.382
-129.603
-130.846
-132.12
-133.434
-134.796
-136.218
-137.711
-139.288
-140.955
-142.755
-144.593
-146.507
-148.086
-149.538
-151.038
-152.582
-154.166
-155.791
-157.458
-159.167
-160.92
-162.717
-164.561
-166.453
-168.397
-170.395
-172.452
-174.574
-176.77
-179.05
-181.428
-183.937
-186.57
-189.562
-192.305
-197.839
49.4061
34.6756
23.3749
14.5359
6.90194
-0.194577
-6.89965
-13.2056
-19.1303
-24.7165
-30.0024
-35.016
-39.7791
-44.3104
-48.6263
-52.7416
-56.6692
-60.4205
-64.0061
-67.4353
-70.7168
-73.8584
-76.8675
-79.7508
-82.5145
-85.1647
-87.7068
-90.1458
-92.4867
-94.7338
-96.8916
-98.9641
-100.955
-102.869
-104.708
-106.478
-108.18
-109.819
-111.398
-112.921
-114.391
-115.813
-117.189
-118.526
-119.827
-121.096
-122.34
-123.563
-124.773
-125.974
-127.175
-128.382
-129.603
-130.847
-132.12
-133.434
-134.796
-136.218
-137.711
-139.288
-140.955
-142.756
-144.594
-146.508
-148.087
-149.539
-151.039
-152.583
-154.167
-155.792
-157.459
-159.168
-160.921
-162.719
-164.562
-166.455
-168.399
-170.397
-172.454
-174.577
-176.773
-179.053
-181.432
-183.941
-186.576
-189.571
-192.316
-197.659
49.4183
34.6812
23.3767
14.5369
6.9026
-0.194079
-6.89925
-13.2053
-19.13
-24.7162
-30.0021
-35.0158
-39.779
-44.3102
-48.6262
-52.7415
-56.6691
-60.4204
-64.006
-67.4352
-70.7167
-73.8583
-76.8674
-79.7507
-82.5145
-85.1647
-87.7067
-90.1458
-92.4866
-94.7338
-96.8916
-98.9641
-100.955
-102.869
-104.708
-106.478
-108.18
-109.819
-111.398
-112.921
-114.391
-115.813
-117.189
-118.526
-119.827
-121.096
-122.34
-123.563
-124.773
-125.974
-127.175
-128.382
-129.603
-130.847
-132.121
-133.434
-134.797
-136.219
-137.711
-139.288
-140.956
-142.756
-144.594
-146.508
-148.088
-149.539
-151.04
-152.584
-154.168
-155.794
-157.461
-159.17
-160.923
-162.721
-164.565
-166.457
-168.401
-170.4
-172.458
-174.581
-176.777
-179.058
-181.437
-183.948
-186.583
-189.581
-192.323
-197.497
49.4274
34.6884
23.3792
14.5383
6.9035
-0.193416
-6.89873
-13.2049
-19.1297
-24.7159
-30.0019
-35.0156
-39.7787
-44.31
-48.626
-52.7413
-56.6689
-60.4203
-64.0058
-67.4351
-70.7166
-73.8582
-76.8673
-79.7506
-82.5144
-85.1646
-87.7066
-90.1457
-92.4865
-94.7337
-96.8915
-98.964
-100.955
-102.869
-104.708
-106.477
-108.18
-109.819
-111.398
-112.921
-114.391
-115.813
-117.189
-118.526
-119.827
-121.096
-122.34
-123.563
-124.773
-125.974
-127.175
-128.382
-129.603
-130.847
-132.121
-133.434
-134.797
-136.219
-137.712
-139.289
-140.956
-142.757
-144.595
-146.509
-148.089
-149.54
-151.041
-152.585
-154.17
-155.796
-157.463
-159.172
-160.925
-162.723
-164.568
-166.461
-168.405
-170.404
-172.462
-174.585
-176.782
-179.064
-181.444
-183.955
-186.592
-189.591
-192.326
-197.389
49.4345
34.6977
23.3827
14.5401
6.90471
-0.192533
-6.89804
-13.2043
-19.1292
-24.7155
-30.0015
-35.0152
-39.7784
-44.3098
-48.6258
-52.7411
-56.6687
-60.4201
-64.0056
-67.4349
-70.7164
-73.8581
-76.8671
-79.7504
-82.5143
-85.1645
-87.7065
-90.1456
-92.4864
-94.7336
-96.8914
-98.9639
-100.955
-102.869
-104.708
-106.477
-108.18
-109.819
-111.398
-112.921
-114.391
-115.812
-117.189
-118.526
-119.827
-121.096
-122.34
-123.563
-124.773
-125.974
-127.175
-128.382
-129.604
-130.847
-132.121
-133.435
-134.797
-136.219
-137.712
-139.289
-140.957
-142.758
-144.596
-146.511
-148.09
-149.542
-151.043
-152.587
-154.172
-155.798
-157.465
-159.175
-160.928
-162.726
-164.571
-166.464
-168.409
-170.408
-172.467
-174.591
-176.789
-179.071
-181.452
-183.964
-186.602
-189.599
-192.324
-197.335
49.4396
34.7091
23.3874
14.5426
6.90633
-0.191358
-6.89712
-13.2035
-19.1286
-24.7149
-30.001
-35.0148
-39.7781
-44.3094
-48.6255
-52.7408
-56.6684
-60.4198
-64.0054
-67.4347
-70.7162
-73.8579
-76.867
-79.7503
-82.5141
-85.1643
-87.7064
-90.1454
-92.4863
-94.7335
-96.8913
-98.9638
-100.955
-102.869
-104.708
-106.477
-108.18
-109.819
-111.398
-112.921
-114.391
-115.812
-117.189
-118.526
-119.826
-121.096
-122.34
-123.563
-124.773
-125.975
-127.175
-128.382
-129.604
-130.847
-132.121
-133.435
-134.798
-136.22
-137.713
-139.29
-140.958
-142.759
-144.598
-146.512
-148.092
-149.544
-151.045
-152.589
-154.174
-155.8
-157.468
-159.178
-160.932
-162.73
-164.575
-166.469
-168.414
-170.414
-172.473
-174.598
-176.796
-179.079
-181.46
-183.973
-186.612
-189.605
-192.32
-197.314
49.4422
34.7227
23.3936
14.5459
6.90849
-0.189796
-6.89591
-13.2025
-19.1277
-24.7142
-30.0004
-35.0143
-39.7776
-44.309
-48.6251
-52.7405
-56.6681
-60.4195
-64.0051
-67.4344
-70.7159
-73.8576
-76.8667
-79.7501
-82.5139
-85.1641
-87.7062
-90.1453
-92.4861
-94.7333
-96.8911
-98.9637
-100.955
-102.868
-104.708
-106.477
-108.18
-109.818
-111.398
-112.92
-114.391
-115.812
-117.189
-118.526
-119.826
-121.096
-122.34
-123.563
-124.773
-125.975
-127.175
-128.383
-129.604
-130.847
-132.122
-133.435
-134.798
-136.221
-137.714
-139.291
-140.959
-142.76
-144.599
-146.514
-148.094
-149.546
-151.047
-152.592
-154.177
-155.804
-157.471
-159.182
-160.936
-162.735
-164.58
-166.474
-168.42
-170.42
-172.48
-174.605
-176.804
-179.088
-181.47
-183.983
-186.621
-189.605
-192.31
-197.291
49.442
34.7386
23.4017
14.5504
6.91138
-0.187725
-6.89431
-13.2013
-19.1267
-24.7133
-29.9996
-35.0136
-39.7769
-44.3084
-48.6245
-52.74
-56.6676
-60.4191
-64.0047
-67.434
-70.7156
-73.8573
-76.8664
-79.7498
-82.5136
-85.1639
-87.7059
-90.145
-92.4859
-94.7331
-96.8909
-98.9635
-100.955
-102.868
-104.708
-106.477
-108.179
-109.818
-111.397
-112.92
-114.391
-115.812
-117.189
-118.526
-119.826
-121.096
-122.34
-123.563
-124.773
-125.975
-127.175
-128.383
-129.604
-130.848
-132.122
-133.436
-134.799
-136.221
-137.715
-139.292
-140.96
-142.762
-144.601
-146.516
-148.096
-149.549
-151.05
-152.595
-154.181
-155.807
-157.476
-159.186
-160.941
-162.74
-164.586
-166.481
-168.426
-170.427
-172.488
-174.613
-176.812
-179.096
-181.479
-183.99
-186.628
-189.597
-192.295
-197.236
49.4384
34.7565
23.412
14.5563
6.91521
-0.184985
-6.89221
-13.1996
-19.1252
-24.7121
-29.9985
-35.0126
-39.7761
-44.3077
-48.6239
-52.7394
-56.6671
-60.4186
-64.0043
-67.4336
-70.7152
-73.8569
-76.8661
-79.7494
-82.5133
-85.1635
-87.7056
-90.1447
-92.4856
-94.7328
-96.8907
-98.9632
-100.954
-102.868
-104.708
-106.477
-108.179
-109.818
-111.397
-112.92
-114.39
-115.812
-117.189
-118.526
-119.826
-121.096
-122.34
-123.563
-124.773
-125.975
-127.176
-128.383
-129.604
-130.848
-132.122
-133.436
-134.799
-136.222
-137.716
-139.293
-140.962
-142.764
-144.603
-146.519
-148.099
-149.552
-151.053
-152.598
-154.184
-155.811
-157.48
-159.191
-160.946
-162.746
-164.592
-166.487
-168.433
-170.435
-172.495
-174.621
-176.82
-179.104
-181.486
-183.995
-186.63
-189.575
-192.268
-197.12
49.4312
34.7759
23.4247
14.564
6.92026
-0.181365
-6.88944
-13.1973
-19.1234
-24.7105
-29.9972
-35.0114
-39.775
-44.3067
-48.623
-52.7385
-56.6663
-60.4179
-64.0036
-67.433
-70.7146
-73.8564
-76.8656
-79.7489
-82.5128
-85.1631
-87.7052
-90.1443
-92.4852
-94.7325
-96.8903
-98.9629
-100.954
-102.868
-104.707
-106.477
-108.179
-109.818
-111.397
-112.92
-114.39
-115.812
-117.189
-118.525
-119.826
-121.096
-122.34
-123.563
-124.773
-125.975
-127.176
-128.383
-129.605
-130.848
-132.123
-133.437
-134.8
-136.223
-137.717
-139.295
-140.964
-142.765
-144.605
-146.521
-148.102
-149.555
-151.056
-152.602
-154.189
-155.816
-157.485
-159.196
-160.951
-162.752
-164.598
-166.494
-168.44
-170.442
-172.502
-174.628
-176.827
-179.109
-181.489
-183.993
-186.621
-189.534
-192.222
-196.92
49.42
34.7964
23.44
14.5738
6.92687
-0.176604
-6.8858
-13.1944
-19.121
-24.7085
-29.9954
-35.0099
-39.7736
-44.3054
-48.6218
-52.7375
-56.6654
-60.417
-64.0028
-67.4322
-70.7139
-73.8557
-76.8649
-79.7483
-82.5122
-85.1625
-87.7047
-90.1438
-92.4847
-94.732
-96.8899
-98.9625
-100.954
-102.867
-104.707
-106.476
-108.179
-109.818
-111.397
-112.92
-114.39
-115.812
-117.189
-118.525
-119.826
-121.096
-122.339
-123.563
-124.773
-125.975
-127.176
-128.383
-129.605
-130.849
-132.123
-133.438
-134.801
-136.224
-137.718
-139.296
-140.965
-142.767
-144.608
-146.524
-148.106
-149.559
-151.06
-152.606
-154.193
-155.82
-157.489
-159.201
-160.957
-162.757
-164.604
-166.499
-168.446
-170.447
-172.507
-174.632
-176.829
-179.109
-181.485
-183.981
-186.597
-189.465
-192.145
-196.616
49.4045
34.8173
23.4577
14.5861
6.93539
-0.170382
-6.88102
-13.1906
-19.1178
-24.7058
-29.9931
-35.0078
-39.7718
-44.3038
-48.6203
-52.7361
-56.6641
-60.4158
-64.0017
-67.4312
-70.7129
-73.8548
-76.8641
-79.7475
-82.5115
-85.1618
-87.704
-90.1432
-92.4841
-94.7314
-96.8893
-98.9619
-100.953
-102.867
-104.706
-106.476
-108.178
-109.817
-111.396
-112.919
-114.389
-115.811
-117.188
-118.525
-119.826
-121.095
-122.339
-123.563
-124.773
-125.975
-127.176
-128.383
-129.605
-130.849
-132.124
-133.438
-134.802
-136.225
-137.719
-139.298
-140.967
-142.769
-144.61
-146.526
-148.109
-149.562
-151.063
-152.609
-154.196
-155.824
-157.493
-159.205
-160.96
-162.761
-164.607
-166.502
-168.448
-170.449
-172.507
-174.63
-176.824
-179.1
-181.468
-183.95
-186.547
-189.357
-192.02
-196.196
49.3843
34.838
23.4772
14.601
6.94621
-0.162335
-6.8748
-13.1856
-19.1136
-24.7022
-29.99
-35.0051
-39.7694
-44.3016
-48.6184
-52.7344
-56.6625
-60.4143
-64.0003
-67.4299
-70.7117
-73.8536
-76.863
-79.7465
-82.5105
-85.1609
-87.7031
-90.1423
-92.4833
-94.7306
-96.8885
-98.9612
-100.952
-102.866
-104.706
-106.475
-108.177
-109.816
-111.396
-112.919
-114.389
-115.811
-117.188
-118.524
-119.825
-121.095
-122.339
-123.563
-124.772
-125.974
-127.176
-128.383
-129.605
-130.849
-132.124
-133.439
-134.802
-136.226
-137.72
-139.299
-140.968
-142.77
-144.612
-146.527
-148.111
-149.565
-151.064
-152.611
-154.198
-155.826
-157.495
-159.207
-160.962
-162.761
-164.607
-166.501
-168.445
-170.444
-172.5
-174.619
-176.808
-179.075
-181.431
-183.892
-186.46
-189.195
-191.823
-195.656
49.3587
34.8587
23.4977
14.6184
6.95962
-0.152082
-6.86677
-13.1791
-19.1082
-24.6976
-29.986
-35.0016
-39.7663
-44.2988
-48.6158
-52.732
-56.6603
-60.4123
-63.9984
-67.4282
-70.7101
-73.8521
-76.8615
-79.7451
-82.5092
-85.1596
-87.7019
-90.1412
-92.4822
-94.7296
-96.8875
-98.9602
-100.951
-102.865
-104.705
-106.474
-108.177
-109.816
-111.395
-112.918
-114.388
-115.81
-117.187
-118.524
-119.824
-121.094
-122.338
-123.562
-124.772
-125.974
-127.175
-128.383
-129.605
-130.849
-132.124
-133.439
-134.802
-136.226
-137.72
-139.299
-140.969
-142.77
-144.613
-146.527
-148.111
-149.566
-151.064
-152.61
-154.197
-155.824
-157.493
-159.204
-160.958
-162.756
-164.6
-166.492
-168.433
-170.428
-172.479
-174.592
-176.771
-179.025
-181.362
-183.794
-186.317
-188.962
-191.528
-194.989
49.3261
34.8798
23.5178
14.6377
6.97568
-0.139303
-6.85655
-13.1707
-19.1012
-24.6917
-29.9808
-34.997
-39.7622
-44.2952
-48.6125
-52.729
-56.6575
-60.4097
-63.996
-67.4259
-70.708
-73.8501
-76.8596
-79.7433
-82.5075
-85.158
-87.7004
-90.1397
-92.4808
-94.7282
-96.8862
-98.9589
-100.95
-102.864
-104.704
-106.473
-108.176
-109.815
-111.394
-112.917
-114.387
-115.809
-117.186
-118.523
-119.824
-121.093
-122.337
-123.561
-124.771
-125.973
-127.174
-128.382
-129.604
-130.848
-132.123
-133.438
-134.802
-136.225
-137.719
-139.298
-140.968
-142.768
-144.612
-146.524
-148.108
-149.564
-151.06
-152.605
-154.191
-155.817
-157.484
-159.193
-160.945
-162.741
-164.582
-166.469
-168.406
-170.394
-172.437
-174.539
-176.704
-178.938
-181.247
-183.635
-186.096
-188.632
-191.104
-194.191
49.2846
34.9028
23.5364
14.6577
6.99407
-0.123864
-6.84384
-13.1602
-19.0923
-24.684
-29.9741
-34.9911
-39.7569
-44.2904
-48.6082
-52.725
-56.6539
-60.4063
-63.9929
-67.4229
-70.7052
-73.8475
-76.8571
-79.741
-82.5053
-85.1559
-87.6983
-90.1377
-92.4789
-94.7264
-96.8845
-98.9572
-100.949
-102.862
-104.702
-106.472
-108.174
-109.813
-111.392
-112.915
-114.386
-115.808
-117.185
-118.521
-119.822
-121.092
-122.336
-123.56
-124.77
-125.972
-127.173
-128.381
-129.602
-130.847
-132.121
-133.436
-134.799
-136.223
-137.717
-139.295
-140.964
-142.762
-144.608
-146.516
-148.099
-149.557
-151.049
-152.593
-154.177
-155.801
-157.465
-159.171
-160.919
-162.71
-164.545
-166.426
-168.355
-170.333
-172.362
-174.447
-176.59
-178.794
-181.062
-183.391
-185.769
-188.177
-190.521
-193.254
49.2322
34.9286
23.5537
14.6767
7.01381
-0.106007
-6.82854
-13.1471
-19.0811
-24.6742
-29.9655
-34.9835
-39.7501
-44.2842
-48.6025
-52.7198
-56.6491
-60.4019
-63.9887
-67.4191
-70.7015
-73.844
-76.8539
-79.7379
-82.5023
-85.1531
-87.6956
-90.1352
-92.4764
-94.724
-96.8822
-98.955
-100.946
-102.86
-104.7
-106.47
-108.172
-109.811
-111.391
-112.914
-114.384
-115.806
-117.183
-118.52
-119.821
-121.09
-122.334
-123.558
-124.768
-125.97
-127.171
-128.378
-129.6
-130.844
-132.118
-133.432
-134.795
-136.218
-137.711
-139.288
-140.957
-142.751
-144.598
-146.5
-148.082
-149.541
-151.029
-152.568
-154.15
-155.77
-157.43
-159.13
-160.872
-162.655
-164.481
-166.352
-168.267
-170.228
-172.238
-174.298
-176.408
-178.569
-180.778
-183.028
-185.299
-187.56
-189.749
-192.162
49.1683
34.9572
23.5705
14.6932
7.03325
-0.0865647
-6.8109
-13.1316
-19.0674
-24.6621
-29.9548
-34.9738
-39.7414
-44.2763
-48.5953
-52.7131
-56.6429
-60.3961
-63.9833
-67.414
-70.6968
-73.8395
-76.8496
-79.7338
-82.4984
-85.1494
-87.6921
-90.1317
-92.4731
-94.7208
-96.8791
-98.9521
-100.944
-102.858
-104.697
-106.467
-108.17
-109.809
-111.388
-112.911
-114.382
-115.803
-117.181
-118.517
-119.818
-121.088
-122.332
-123.555
-124.765
-125.966
-127.167
-128.374
-129.595
-130.838
-132.112
-133.425
-134.787
-136.209
-137.7
-139.275
-140.942
-142.732
-144.58
-146.474
-148.051
-149.511
-150.992
-152.526
-154.102
-155.716
-157.368
-159.06
-160.791
-162.563
-164.375
-166.228
-168.123
-170.061
-172.04
-174.062
-176.125
-178.226
-180.356
-182.504
-184.645
-186.742
-188.756
-190.889
49.0923
34.9889
23.5879
14.7071
7.05043
-0.067112
-6.7917
-13.1139
-19.0514
-24.6476
-29.9416
-34.9619
-39.7305
-44.2663
-48.586
-52.7046
-56.6349
-60.3887
-63.9764
-67.4074
-70.6906
-73.8337
-76.844
-79.7285
-82.4934
-85.1445
-87.6874
-90.1273
-92.4688
-94.7167
-96.8751
-98.9481
-100.94
-102.854
-104.694
-106.463
-108.166
-109.805
-111.385
-112.908
-114.378
-115.8
-117.177
-118.514
-119.814
-121.084
-122.328
-123.551
-124.76
-125.961
-127.161
-128.367
-129.588
-130.83
-132.102
-133.414
-134.774
-136.193
-137.683
-139.254
-140.918
-142.7
-144.549
-146.43
-148.001
-149.459
-150.932
-152.457
-154.024
-155.628
-157.268
-158.946
-160.662
-162.415
-164.205
-166.033
-167.898
-169.799
-171.735
-173.703
-175.7
-177.719
-179.748
-181.77
-183.757
-185.676
-187.506
-189.394
49.0027
35.025
23.6068
14.7191
7.06365
-0.0501715
-6.77264
-13.0948
-19.0332
-24.6309
-29.9262
-34.9477
-39.7173
-44.254
-48.5747
-52.6939
-56.6249
-60.3793
-63.9675
-67.3991
-70.6826
-73.8261
-76.8368
-79.7216
-82.4868
-85.1382
-87.6813
-90.1214
-92.4632
-94.7112
-96.8698
-98.943
-100.935
-102.849
-104.689
-106.459
-108.162
-109.801
-111.38
-112.903
-114.374
-115.796
-117.173
-118.509
-119.809
-121.079
-122.322
-123.545
-124.753
-125.953
-127.152
-128.357
-129.576
-130.817
-132.087
-133.396
-134.753
-136.169
-137.654
-139.22
-140.878
-142.65
-144.497
-146.361
-147.921
-149.375
-150.836
-152.347
-153.9
-155.488
-157.11
-158.767
-160.459
-162.184
-163.942
-165.732
-167.553
-169.402
-171.275
-173.17
-175.077
-176.989
-178.89
-180.762
-182.579
-184.31
-185.955
-187.624
48.8976
35.0668
23.6289
14.7315
7.07415
-0.0387298
-6.75779
-13.0766
-19.014
-24.612
-29.9084
-34.9311
-39.7019
-44.2396
-48.5611
-52.6811
-56.6128
-60.3678
-63.9565
-67.3886
-70.6726
-73.8166
-76.8277
-79.7128
-82.4783
-85.13
-87.6735
-90.1138
-92.4558
-94.7041
-96.8629
-98.9363
-100.928
-102.843
-104.683
-106.453
-108.156
-109.795
-111.374
-112.897
-114.368
-115.79
-117.166
-118.503
-119.803
-121.071
-122.314
-123.536
-124.743
-125.942
-127.139
-128.342
-129.558
-130.796
-132.063
-133.368
-134.721
-136.131
-137.609
-139.166
-140.815
-142.573
-144.414
-146.254
-147.797
-149.241
-150.686
-152.176
-153.708
-155.272
-156.867
-158.493
-160.148
-161.833
-163.544
-165.279
-167.037
-168.812
-170.6
-172.394
-174.186
-175.963
-177.71
-179.411
-181.041
-182.58
-184.04
-185.51
48.7749
35.1145
23.6554
14.7459
7.08588
-0.0292355
-6.7493
-13.0662
-18.9995
-24.5938
-29.8886
-34.9116
-39.6836
-44.2225
-48.545
-52.666
-56.5985
-60.3542
-63.9436
-67.3762
-70.6607
-73.805
-76.8165
-79.702
-82.4678
-85.1198
-87.6636
-90.1042
-92.4465
-94.695
-96.854
-98.9277
-100.92
-102.834
-104.675
-106.445
-108.148
-109.787
-111.367
-112.89
-114.36
-115.781
-117.158
-118.494
-119.793
-121.061
-122.303
-123.523
-124.729
-125.926
-127.12
-128.32
-129.532
-130.765
-132.027
-133.326
-134.671
-136.072
-137.539
-139.084
-140.718
-142.457
-144.284
-146.092
-147.609
-149.035
-150.456
-151.917
-153.416
-154.945
-156.499
-158.079
-159.683
-161.308
-162.951
-164.61
-166.279
-167.954
-169.628
-171.292
-172.938
-174.552
-176.122
-177.632
-179.065
-180.409
-181.686
-182.965
48.6333
35.168
23.6868
14.7624
7.09977
-0.0173728
-6.74014
-13.0594
-18.9933
-24.5859
-29.8771
-34.8959
-39.6644
-44.2017
-48.5244
-52.6465
-56.5806
-60.3376
-63.9281
-67.3615
-70.6466
-73.7914
-76.8033
-79.6892
-82.4554
-85.1078
-87.6519
-90.0928
-92.4353
-94.684
-96.8432
-98.917
-100.909
-102.824
-104.664
-106.434
-108.137
-109.777
-111.356
-112.879
-114.349
-115.77
-117.146
-118.481
-119.78
-121.047
-122.287
-123.505
-124.708
-125.902
-127.093
-128.287
-129.493
-130.72
-131.974
-133.263
-134.596
-135.983
-137.434
-138.96
-140.572
-142.282
-144.086
-145.849
-147.327
-148.724
-150.109
-151.528
-152.98
-154.456
-155.952
-157.465
-158.994
-160.535
-162.085
-163.637
-165.187
-166.729
-168.255
-169.756
-171.223
-172.645
-174.013
-175.314
-176.539
-177.682
-178.769
-179.858
48.4718
35.227
23.7238
14.781
7.11558
-0.00357145
-6.72874
-13.05
-18.9855
-24.5799
-29.8726
-34.8916
-39.6587
-44.1931
-48.512
-52.6303
-56.561
-60.3159
-63.9056
-67.3393
-70.6256
-73.772
-76.7856
-79.6731
-82.4405
-85.0939
-87.6387
-90.0801
-92.4229
-94.6719
-96.8312
-98.9051
-100.897
-102.812
-104.652
-106.422
-108.125
-109.765
-111.344
-112.866
-114.336
-115.756
-117.131
-118.465
-119.762
-121.027
-122.264
-123.48
-124.679
-125.867
-127.052
-128.239
-129.436
-130.651
-131.893
-133.168
-134.484
-135.851
-137.277
-138.775
-140.353
-142.023
-143.785
-145.488
-146.911
-148.262
-149.596
-150.955
-152.34
-153.741
-155.154
-156.575
-158.001
-159.428
-160.85
-162.262
-163.658
-165.031
-166.373
-167.677
-168.936
-170.141
-171.285
-172.363
-173.369
-174.303
-175.19
-176.08
48.2905
35.2903
23.7669
14.8018
7.13328
0.0120386
-6.7159
-13.0392
-18.976
-24.5712
-29.8646
-34.8846
-39.6532
-44.1892
-48.5094
-52.628
-56.558
-60.3113
-63.8984
-67.329
-70.6119
-73.7549
-76.7655
-79.6505
-82.4163
-85.0688
-87.6135
-90.0554
-92.3992
-94.6494
-96.8102
-98.8856
-100.879
-102.796
-104.637
-106.408
-108.112
-109.752
-111.331
-112.854
-114.323
-115.743
-117.117
-118.449
-119.743
-121.005
-122.239
-123.449
-124.642
-125.823
-126.999
-128.175
-129.358
-130.556
-131.778
-133.031
-134.321
-135.657
-137.047
-138.501
-140.028
-141.639
-143.337
-144.954
-146.299
-147.578
-148.837
-150.11
-151.398
-152.693
-153.989
-155.281
-156.566
-157.839
-159.093
-160.322
-161.52
-162.681
-163.798
-164.865
-165.877
-166.828
-167.716
-168.538
-169.294
-169.986
-170.64
-171.298
48.0915
35.3564
23.8161
14.8245
7.15266
0.029374
-6.70165
-13.0273
-18.9657
-24.5619
-29.856
-34.8767
-39.6457
-44.1819
-48.5022
-52.6212
-56.5521
-60.3066
-63.8951
-67.3272
-70.6112
-73.755
-76.7657
-79.6503
-82.415
-85.0659
-87.6085
-90.0479
-92.389
-94.6364
-96.7944
-98.867
-100.858
-102.772
-104.611
-106.38
-108.082
-109.721
-111.299
-112.82
-114.288
-115.706
-117.077
-118.407
-119.699
-120.957
-122.186
-123.39
-124.575
-125.747
-126.91
-128.072
-129.237
-130.413
-131.606
-132.827
-134.079
-135.371
-136.709
-138.103
-139.558
-141.085
-142.69
-144.198
-145.439
-146.621
-147.776
-148.932
-150.092
-151.247
-152.391
-153.519
-154.625
-155.705
-156.753
-157.763
-158.729
-159.646
-160.508
-161.313
-162.057
-162.738
-163.354
-163.908
-164.399
-164.833
-165.224
-165.606
47.8799
35.4225
23.8706
14.8487
7.1732
0.0480478
-6.68629
-13.0146
-18.9545
-24.5518
-29.8468
-34.8682
-39.6378
-44.1746
-48.4954
-52.6148
-56.546
-60.3005
-63.889
-67.3207
-70.6044
-73.748
-76.7589
-79.6438
-82.4093
-85.0612
-87.605
-90.0457
-92.3882
-94.637
-96.7961
-98.8698
-100.862
-102.776
-104.615
-106.384
-108.085
-109.722
-111.299
-112.818
-114.282
-115.697
-117.064
-118.388
-119.673
-120.922
-122.141
-123.333
-124.503
-125.657
-126.8
-127.936
-129.072
-130.213
-131.364
-132.532
-133.725
-134.947
-136.205
-137.505
-138.853
-140.252
-141.709
-143.054
-144.157
-145.196
-146.198
-147.191
-148.174
-149.139
-150.081
-150.993
-151.872
-152.71
-153.504
-154.248
-154.935
-155.562
-156.123
-156.614
-157.03
-157.368
-157.624
-157.796
-157.881
-157.878
-157.787
-157.619
47.6654
35.4851
23.928
14.8732
7.19395
0.067241
-6.6705
-13.0015
-18.943
-24.5414
-29.8373
-34.8595
-39.6297
-44.167
-48.4882
-52.608
-56.5395
-60.2943
-63.883
-67.3152
-70.5993
-73.7433
-76.7545
-79.6398
-82.4054
-85.0571
-87.6006
-90.0408
-92.3827
-94.6306
-96.789
-98.8618
-100.853
-102.766
-104.605
-106.373
-108.074
-109.71
-111.285
-112.802
-114.265
-115.677
-117.04
-118.36
-119.638
-120.879
-122.087
-123.266
-124.42
-125.553
-126.67
-127.775
-128.873
-129.969
-131.067
-132.171
-133.288
-134.422
-135.577
-136.756
-137.962
-139.194
-140.449
-141.612
-142.562
-143.423
-144.234
-145.025
-145.796
-146.538
-147.246
-147.915
-148.541
-149.121
-149.651
-150.127
-150.548
-150.91
-151.213
-151.455
-151.635
-151.754
-151.811
-151.808
-151.746
-151.626
-151.451
-151.222
47.4654
35.5395
23.9835
14.8963
7.21325
0.0854173
-6.6555
-12.989
-18.9321
-24.5316
-29.8283
-34.8512
-39.622
-44.1598
-48.4814
-52.6016
-56.5334
-60.2885
-63.8774
-67.3098
-70.594
-73.7381
-76.7494
-79.6346
-82.4001
-85.052
-87.5955
-90.036
-92.3781
-94.6264
-96.7852
-98.8585
-100.85
-102.764
-104.603
-106.37
-108.07
-109.705
-111.279
-112.794
-114.253
-115.66
-117.017
-118.328
-119.596
-120.825
-122.016
-123.175
-124.304
-125.407
-126.488
-127.549
-128.596
-129.63
-130.656
-131.676
-132.695
-133.714
-134.735
-135.758
-136.783
-137.808
-138.825
-139.745
-140.483
-141.13
-141.722
-142.284
-142.817
-143.315
-143.772
-144.186
-144.557
-144.882
-145.161
-145.395
-145.582
-145.724
-145.823
-145.88
-145.897
-145.878
-145.826
-145.745
-145.637
-145.508
-145.361
-145.2
47.3261
35.5752
24.0234
14.9126
7.22674
0.098285
-6.64488
-12.9803
-18.9245
-24.5246
-29.822
-34.8453
-39.6166
-44.1548
-48.4767
-52.5971
-56.5291
-60.2844
-63.8735
-67.306
-70.5903
-73.7346
-76.746
-79.6314
-82.3971
-85.049
-87.5927
-90.0332
-92.3754
-94.6236
-96.7822
-98.8551
-100.846
-102.759
-104.597
-106.364
-108.062
-109.695
-111.266
-112.778
-114.233
-115.635
-116.986
-118.288
-119.545
-120.759
-121.934
-123.071
-124.173
-125.244
-126.285
-127.299
-128.289
-129.256
-130.203
-131.131
-132.041
-132.934
-133.81
-134.666
-135.501
-136.309
-137.084
-137.757
-138.279
-138.719
-139.104
-139.453
-139.767
-140.041
-140.274
-140.465
-140.614
-140.721
-140.788
-140.815
-140.804
-140.758
-140.678
-140.567
-140.427
-140.263
-140.076
-139.87
-139.649
-139.414
-139.17
-138.919
47.2587
35.5921
24.0436
14.921
7.23366
0.104939
-6.63934
-12.9756
-18.9204
-24.5209
-29.8186
-34.8422
-39.6136
-44.152
-48.474
-52.5946
-56.5267
-60.2821
-63.8713
-67.3038
-70.5883
-73.7326
-76.7441
-79.6295
-82.3952
-85.0472
-87.5908
-90.0313
-92.3734
-94.6215
-96.78
-98.8529
-100.844
-102.756
-104.594
-106.36
-108.057
-109.689
-111.258
-112.767
-114.219
-115.615
-116.959
-118.252
-119.498
-120.698
-121.854
-122.969
-124.043
-125.08
-126.081
-127.046
-127.978
-128.877
-129.744
-130.579
-131.382
-132.151
-132.885
-133.58
-134.233
-134.837
-135.386
-135.828
-136.153
-136.409
-136.613
-136.777
-136.904
-136.992
-137.04
-137.049
-137.02
-136.956
-136.857
-136.727
-136.567
-136.38
-136.169
-135.936
-135.683
-135.415
-135.131
-134.837
-134.533
-134.222
-133.905
-133.585
47.2593
35.5917
24.0434
14.921
7.23362
0.104869
-6.6394
-12.9757
-18.9204
-24.521
-29.8186
-34.8422
-39.6137
-44.152
-48.474
-52.5946
-56.5267
-60.2821
-63.8713
-67.3038
-70.5883
-73.7326
-76.7441
-79.6295
-82.3952
-85.0472
-87.5908
-90.0312
-92.3733
-94.6213
-96.7797
-98.8523
-100.843
-102.755
-104.592
-106.357
-108.054
-109.684
-111.25
-112.756
-114.204
-115.595
-116.931
-118.216
-119.45
-120.635
-121.774
-122.866
-123.913
-124.916
-125.876
-126.794
-127.668
-128.5
-129.288
-130.032
-130.73
-131.379
-131.977
-132.519
-133.001
-133.416
-133.756
-133.99
-134.136
-134.227
-134.273
-134.279
-134.246
-134.176
-134.069
-133.927
-133.752
-133.547
-133.313
-133.054
-132.772
-132.469
-132.149
-131.814
-131.466
-131.108
-130.743
-130.371
-129.996
-129.619
-129.242
-128.866
47.3276
35.5741
24.0229
14.9126
7.22666
0.0981098
-6.64503
-12.9804
-18.9246
-24.5247
-29.8221
-34.8454
-39.6167
-44.1548
-48.4767
-52.5971
-56.5291
-60.2844
-63.8735
-67.306
-70.5904
-73.7346
-76.746
-79.6314
-82.3971
-85.049
-87.5926
-90.033
-92.3749
-94.623
-96.7812
-98.8536
-100.844
-102.756
-104.592
-106.356
-108.051
-109.679
-111.243
-112.746
-114.189
-115.575
-116.905
-118.18
-119.403
-120.574
-121.694
-122.764
-123.784
-124.755
-125.676
-126.546
-127.365
-128.132
-128.845
-129.501
-130.099
-130.636
-131.107
-131.507
-131.832
-132.075
-132.229
-132.277
-132.265
-132.213
-132.123
-131.994
-131.828
-131.627
-131.392
-131.127
-130.834
-130.515
-130.173
-129.811
-129.432
-129.038
-128.631
-128.215
-127.792
-127.364
-126.932
-126.5
-126.068
-125.639
-125.214
-124.795
47.466
35.5383
23.9832
14.8966
7.21334
0.0853347
-6.65557
-12.9891
-18.9322
-24.5316
-29.8283
-34.8512
-39.622
-44.1598
-48.4814
-52.6016
-56.5334
-60.2885
-63.8774
-67.3097
-70.594
-73.7381
-76.7494
-79.6346
-82.4002
-85.0519
-87.5953
-90.0355
-92.3774
-94.6252
-96.7834
-98.8557
-100.846
-102.757
-104.593
-106.357
-108.051
-109.678
-111.241
-112.74
-114.18
-115.561
-116.884
-118.151
-119.363
-120.52
-121.622
-122.671
-123.665
-124.603
-125.485
-126.31
-127.075
-127.779
-128.419
-128.993
-129.496
-129.927
-130.279
-130.549
-130.731
-130.819
-130.804
-130.677
-130.519
-130.339
-130.13
-129.886
-129.606
-129.292
-128.95
-128.58
-128.188
-127.774
-127.343
-126.896
-126.437
-125.968
-125.493
-125.012
-124.53
-124.047
-123.565
-123.088
-122.615
-122.149
-121.691
-121.242
47.6594
35.4853
23.9295
14.8744
7.1947
0.0677228
-6.6701
-13.0011
-18.9427
-24.5411
-29.8371
-34.8592
-39.6295
-44.1668
-48.488
-52.6079
-56.5393
-60.2942
-63.8828
-67.3149
-70.599
-73.7431
-76.7543
-79.6395
-82.4051
-85.0568
-87.6002
-90.0403
-92.3818
-94.6294
-96.787
-98.8586
-100.848
-102.759
-104.593
-106.356
-108.048
-109.674
-111.234
-112.731
-114.167
-115.543
-116.861
-118.121
-119.324
-120.469
-121.558
-122.589
-123.562
-124.474
-125.325
-126.112
-126.834
-127.487
-128.067
-128.573
-129
-129.344
-129.601
-129.767
-129.838
-129.808
-129.671
-129.399
-129.114
-128.838
-128.548
-128.222
-127.859
-127.464
-127.044
-126.6
-126.137
-125.655
-125.159
-124.651
-124.133
-123.608
-123.077
-122.543
-122.006
-121.469
-120.933
-120.399
-119.867
-119.339
-118.815
-118.293
47.8672
35.4245
23.8738
14.8507
7.17463
0.0490962
-6.68543
-13.0138
-18.9538
-24.5511
-29.8462