/*--------------------------------*- C++ -*----------------------------------*\
| =========                 |                                                 |
| \\      /  F ield         | OpenFOAM: The Open Source CFD Toolbox           |
|  \\    /   O peration     | Version:  5.x                                   |
|   \\  /    A nd           | Web:      www.OpenFOAM.org                      |
|    \\/     M anipulation  |                                                 |
\*---------------------------------------------------------------------------*/
FoamFile
{
    version     2.0;
    format      ascii;
    class       surfaceScalarField;
    location    "700";
    object      phi;
}
// * * * * * * * * * * * * * * * * * * * * * * * * * * * * * * * * * * * * * //

dimensions      [0 3 -1 0 0 0 0];

internalField   nonuniform List<scalar> 
40747
(
1.48845e-05
-4.01592e-09
6.49085e-06
8.39366e-06
1.80058e-05
-8.50955e-09
1.28336e-05
1.16631e-05
2.17818e-05
-1.3618e-08
1.94339e-05
1.51815e-05
2.63495e-05
-1.92483e-08
2.6393e-05
1.93904e-05
3.18749e-05
-2.51655e-08
3.37375e-05
2.45304e-05
3.85585e-05
-3.09112e-08
4.14457e-05
3.08503e-05
4.66431e-05
-3.57027e-08
4.94504e-05
3.86384e-05
5.64223e-05
-3.8317e-08
5.7635e-05
4.82377e-05
6.82511e-05
-3.69759e-08
6.58282e-05
6.00579e-05
8.25591e-05
-2.92424e-08
7.38007e-05
7.45866e-05
9.98661e-05
-1.19302e-08
8.12675e-05
9.23992e-05
0.000120801
1.89799e-08
8.79007e-05
0.000114168
0.000146124
6.84204e-08
9.33593e-05
0.000140665
0.000176756
1.42296e-07
9.73434e-05
0.000172772
0.000213811
2.47472e-07
9.96841e-05
0.00021147
0.000258636
3.91607e-07
0.00010047
0.000257851
0.000312863
5.82698e-07
0.00010007
0.000313263
0.000378464
8.28324e-07
9.88854e-05
0.000379648
0.000457829
1.13479e-06
9.71515e-05
0.000459563
0.000553848
1.50616e-06
9.49433e-05
0.000556056
0.000670017
1.9429e-06
9.224e-05
0.000672721
0.00081057
2.43985e-06
8.89708e-05
0.000813839
0.000980627
2.98326e-06
8.50361e-05
0.000984562
0.00118638
3.54693e-06
8.03146e-05
0.00119111
0.00143534
4.08712e-06
7.46637e-05
0.001441
0.00173658
4.53678e-06
6.79165e-05
0.00174333
0.00210107
4.79987e-06
5.98772e-05
0.00210911
0.00254209
4.74811e-06
5.03137e-05
0.00255165
0.0030757
4.22532e-06
3.89452e-05
0.00308707
0.00372128
3.06936e-06
2.54205e-05
0.0037348
0.00356597
1.60813e-06
1.26157e-05
0.00357878
0.00356613
-1.7562e-08
-1.17626e-07
0.00357887
0.00356613
-1.64174e-06
-1.28518e-05
0.00357887
0.00356597
-3.09834e-06
-2.56593e-05
0.00357877
0.00360839
-4.21783e-06
-3.87754e-05
0.0036215
0.00300139
-4.74088e-06
-4.98646e-05
0.00301248
0.00249648
-4.81421e-06
-5.92477e-05
0.00250587
0.00207652
-4.58094e-06
-6.71822e-05
0.00208445
0.00172722
-4.16048e-06
-7.38821e-05
0.00173392
0.0014367
-3.64393e-06
-7.95284e-05
0.00144235
0.00119506
-3.09623e-06
-8.42763e-05
0.00119981
0.000994089
-2.56089e-06
-8.82591e-05
0.000998072
0.000826927
-2.06492e-06
-9.15911e-05
0.00083026
0.000687888
-1.62338e-06
-9.43683e-05
0.000690665
0.000572238
-1.24288e-06
-9.66646e-05
0.000574534
0.00047604
-9.24372e-07
-9.85188e-05
0.000477894
0.000396021
-6.65066e-07
-9.99025e-05
0.000397405
0.000329458
-4.59802e-07
-0.000100668
0.000330224
0.000274088
-3.01966e-07
-0.000100506
0.000273926
0.000228026
-1.84245e-07
-9.90295e-05
0.000226549
0.000189707
-9.93488e-08
-9.6016e-05
0.000186693
0.000157828
-4.05512e-08
-9.15097e-05
0.000153322
0.000131307
-1.94923e-09
-8.57277e-05
0.000125525
0.000109242
2.14684e-08
-7.89643e-05
0.000102479
9.08851e-05
3.38499e-08
-7.15287e-05
8.34495e-05
7.56125e-05
3.85472e-08
-6.37071e-05
6.77909e-05
6.29059e-05
3.8193e-08
-5.57436e-05
5.49424e-05
5.23342e-05
3.4779e-08
-4.78319e-05
4.44225e-05
4.35389e-05
2.97416e-08
-4.01152e-05
3.58222e-05
3.62212e-05
2.40583e-08
-3.26898e-05
2.87959e-05
3.01333e-05
1.83491e-08
-2.56095e-05
2.30529e-05
2.50683e-05
1.29729e-08
-1.88877e-05
1.83466e-05
2.08547e-05
8.11106e-09
-1.24946e-05
1.44615e-05
1.73491e-05
3.83112e-09
-6.32845e-06
1.1183e-05
1.44329e-05
8.10446e-06
2.16352e-06
6.23015e-06
1.8976e-06
2.65919e-07
1.80024e-06
9.73565e-08
1.73785e-06
6.23944e-08
1.6933e-06
4.45461e-08
1.65962e-06
3.36792e-08
1.63305e-06
2.65729e-08
1.61144e-06
2.16074e-08
1.59351e-06
1.79291e-08
1.57841e-06
1.51023e-08
1.56553e-06
1.28792e-08
1.55443e-06
1.10987e-08
1.54478e-06
9.64996e-09
1.53633e-06
8.45371e-09
1.52888e-06
7.45269e-09
1.52227e-06
6.60614e-09
1.51638e-06
5.88481e-09
1.51112e-06
5.26641e-09
1.50639e-06
4.73271e-09
1.50212e-06
4.2686e-09
1.49826e-06
3.86195e-09
1.49475e-06
3.50353e-09
1.49157e-06
3.18637e-09
1.48866e-06
2.9051e-09
1.486e-06
2.65519e-09
1.48357e-06
2.43264e-09
1.48134e-06
2.23377e-09
1.47928e-06
2.05529e-09
1.47739e-06
1.8943e-09
1.47564e-06
1.74837e-09
1.47403e-06
1.61546e-09
1.47253e-06
1.49387e-09
1.47115e-06
1.38218e-09
1.46987e-06
1.27912e-09
1.46869e-06
1.18355e-09
1.46759e-06
1.09434e-09
1.46658e-06
1.01036e-09
1.46565e-06
9.3047e-10
1.4648e-06
8.53476e-10
1.46402e-06
7.78131e-10
1.46332e-06
7.03125e-10
1.46269e-06
6.27085e-10
1.46214e-06
5.48573e-10
1.46167e-06
4.66079e-10
1.4613e-06
3.78018e-10
1.46101e-06
2.82715e-10
1.46084e-06
1.78265e-10
1.46077e-06
6.11887e-11
1.46084e-06
-7.03189e-11
1.46106e-06
-2.16435e-10
1.46144e-06
-3.78881e-10
1.462e-06
-5.59455e-10
1.46276e-06
-7.59597e-10
1.46374e-06
-9.81048e-10
1.46497e-06
-1.22632e-09
1.46647e-06
-1.49859e-09
1.46827e-06
-1.80119e-09
1.47041e-06
-2.13814e-09
1.47292e-06
-2.5105e-09
1.47585e-06
-2.93496e-09
1.47923e-06
-3.37443e-09
1.48328e-06
-4.05399e-09
1.48818e-06
-4.89472e-09
1.49147e-06
-3.29751e-09
1.49464e-06
-3.16286e-09
1.49816e-06
-3.52574e-09
1.50204e-06
-3.8754e-09
1.50616e-06
-4.12255e-09
1.51052e-06
-4.35753e-09
1.51512e-06
-4.59561e-09
1.51996e-06
-4.83995e-09
1.52505e-06
-5.09209e-09
1.53041e-06
-5.35511e-09
1.53604e-06
-5.63168e-09
1.54196e-06
-5.92625e-09
1.54821e-06
-6.24328e-09
1.5548e-06
-6.59011e-09
1.56178e-06
-6.97552e-09
1.56919e-06
-7.41318e-09
1.57712e-06
-7.92261e-09
1.58565e-06
-8.53388e-09
1.59495e-06
-9.30006e-09
1.60526e-06
-1.03029e-08
1.61704e-06
-1.17787e-08
1.63122e-06
-1.41737e-08
1.6526e-06
-2.13782e-08
1.72316e-06
-7.056e-08
-8.17589e-07
2.54075e-06
5.26811e-06
1.26252e-05
4.63266e-06
9.01367e-07
4.41585e-06
3.1417e-07
4.2846e-06
1.93643e-07
4.1927e-06
1.36443e-07
4.12377e-06
1.02608e-07
4.06955e-06
8.07895e-08
4.02551e-06
6.56525e-08
3.98897e-06
5.44738e-08
3.95817e-06
4.58926e-08
3.93191e-06
3.91489e-08
3.90925e-06
3.375e-08
3.88955e-06
2.93569e-08
3.87227e-06
2.57288e-08
3.85703e-06
2.2692e-08
3.84352e-06
2.0123e-08
3.83147e-06
1.79331e-08
3.82068e-06
1.60548e-08
3.81098e-06
1.4433e-08
3.80223e-06
1.30222e-08
3.7943e-06
1.17857e-08
3.78711e-06
1.06955e-08
3.78057e-06
9.73056e-09
3.7746e-06
8.87436e-09
3.76914e-06
8.11328e-09
3.76414e-06
7.43518e-09
3.75954e-06
6.82901e-09
3.75531e-06
6.2848e-09
3.75141e-06
5.79382e-09
3.74781e-06
5.34865e-09
3.74448e-06
4.94306e-09
3.74141e-06
4.57191e-09
3.73856e-06
4.23079e-09
3.73592e-06
3.91584e-09
3.73348e-06
3.62347e-09
3.73122e-06
3.35021e-09
3.72914e-06
3.09259e-09
3.72723e-06
2.84703e-09
3.72547e-06
2.6098e-09
3.72387e-06
2.377e-09
3.72243e-06
2.14452e-09
3.72115e-06
1.90803e-09
3.72003e-06
1.66299e-09
3.71909e-06
1.40462e-09
3.71834e-06
1.12788e-09
3.7178e-06
8.27434e-10
3.71748e-06
4.97224e-10
3.71742e-06
1.25417e-10
3.71764e-06
-2.93098e-10
3.71818e-06
-7.58279e-10
3.71908e-06
-1.27615e-09
3.72037e-06
-1.85227e-09
3.7221e-06
-2.4913e-09
3.72432e-06
-3.19881e-09
3.72708e-06
-3.98282e-09
3.73044e-06
-4.85361e-09
3.73446e-06
-5.82171e-09
3.73922e-06
-6.90076e-09
3.7448e-06
-8.09113e-09
3.75133e-06
-9.4591e-09
3.75879e-06
-1.08333e-08
3.76787e-06
-1.31342e-08
3.77863e-06
-1.56605e-08
3.78601e-06
-1.06789e-08
3.79321e-06
-1.0354e-08
3.80094e-06
-1.12555e-08
3.80947e-06
-1.24075e-08
3.81857e-06
-1.32269e-08
3.82821e-06
-1.39898e-08
3.83837e-06
-1.47576e-08
3.84907e-06
-1.55427e-08
3.86034e-06
-1.63525e-08
3.87218e-06
-1.71957e-08
3.88463e-06
-1.80824e-08
3.89773e-06
-1.90254e-08
3.91153e-06
-2.00405e-08
3.92609e-06
-2.11492e-08
3.9415e-06
-2.2381e-08
3.95786e-06
-2.37774e-08
3.97535e-06
-2.54013e-08
3.99416e-06
-2.73438e-08
4.01465e-06
-2.97823e-08
4.03727e-06
-3.29229e-08
4.0632e-06
-3.77051e-08
4.09361e-06
-4.45796e-08
4.14006e-06
-6.78197e-08
4.23874e-06
-1.69231e-07
-1.02599e-06
4.44714e-06
8.24101e-06
1.95657e-05
7.22626e-06
1.91612e-06
6.88449e-06
6.55941e-07
6.68517e-06
3.92966e-07
6.5479e-06
2.73708e-07
6.4458e-06
2.04708e-07
6.36586e-06
1.60733e-07
6.30108e-06
1.3043e-07
6.24742e-06
1.08134e-07
6.20226e-06
9.1054e-08
6.16376e-06
7.76505e-08
6.13058e-06
6.69312e-08
6.10172e-06
5.8215e-08
6.07643e-06
5.10197e-08
6.05412e-06
4.49991e-08
6.03434e-06
3.9907e-08
6.0167e-06
3.55669e-08
6.00091e-06
3.18443e-08
5.98672e-06
2.86302e-08
5.9739e-06
2.58341e-08
5.96231e-06
2.33838e-08
5.95178e-06
2.12234e-08
5.9422e-06
1.93111e-08
5.93346e-06
1.76141e-08
5.92547e-06
1.61054e-08
5.91814e-06
1.47609e-08
5.91141e-06
1.35589e-08
5.90522e-06
1.24796e-08
5.8995e-06
1.15058e-08
5.89423e-06
1.06228e-08
5.88935e-06
9.81833e-09
5.88484e-06
9.08202e-09
5.88067e-06
8.40513e-09
5.87681e-06
7.77992e-09
5.87323e-06
7.19922e-09
5.86992e-06
6.65606e-09
5.86687e-06
6.14347e-09
5.86407e-06
5.65424e-09
5.8615e-06
5.1809e-09
5.85916e-06
4.71556e-09
5.85705e-06
4.24992e-09
5.85518e-06
3.77524e-09
5.85356e-06
3.28227e-09
5.85221e-06
2.76133e-09
5.85113e-06
2.20216e-09
5.85037e-06
1.59391e-09
5.84994e-06
9.24228e-10
5.8499e-06
1.68106e-10
5.85029e-06
-6.84309e-10
5.85116e-06
-1.63212e-09
5.85258e-06
-2.68802e-09
5.85459e-06
-3.86327e-09
5.85726e-06
-5.16739e-09
5.86068e-06
-6.6118e-09
5.86491e-06
-8.21284e-09
5.87005e-06
-9.99161e-09
5.87619e-06
-1.19695e-08
5.88347e-06
-1.41752e-08
5.89199e-06
-1.66068e-08
5.90194e-06
-1.94109e-08
5.9133e-06
-2.21917e-08
5.92716e-06
-2.69992e-08
5.94344e-06
-3.19409e-08
5.95475e-06
-2.19833e-08
5.96589e-06
-2.14963e-08
5.97765e-06
-2.30125e-08
5.99059e-06
-2.53522e-08
6.00442e-06
-2.70567e-08
6.01907e-06
-2.86298e-08
6.03451e-06
-3.02045e-08
6.05078e-06
-3.18109e-08
6.0679e-06
-3.3466e-08
6.08589e-06
-3.5187e-08
6.10481e-06
-3.69956e-08
6.1247e-06
-3.89166e-08
6.14564e-06
-4.09828e-08
6.16773e-06
-4.32367e-08
6.19109e-06
-4.57378e-08
6.21589e-06
-4.85684e-08
6.24234e-06
-5.18549e-08
6.27078e-06
-5.57757e-08
6.30169e-06
-6.06902e-08
6.33574e-06
-6.69706e-08
6.37465e-06
-7.66059e-08
6.41983e-06
-8.97556e-08
6.48661e-06
-1.34595e-07
6.59454e-06
-2.77154e-07
-1.0043e-06
6.57285e-06
1.17451e-05
2.7211e-05
1.02611e-05
3.40007e-06
9.7557e-06
1.16135e-06
9.46953e-06
6.79138e-07
9.27551e-06
4.67731e-07
9.13241e-06
3.47807e-07
9.02092e-06
2.72223e-07
8.93085e-06
2.20497e-07
8.85639e-06
1.82595e-07
8.79381e-06
1.53633e-07
8.74052e-06
1.30947e-07
8.69462e-06
1.12829e-07
8.65473e-06
9.81102e-08
8.61978e-06
8.59686e-08
8.58896e-06
7.5815e-08
8.56164e-06
6.72312e-08
8.53729e-06
5.99172e-08
8.51549e-06
5.36449e-08
8.49589e-06
4.82301e-08
8.4782e-06
4.35206e-08
8.46219e-06
3.9394e-08
8.44766e-06
3.57564e-08
8.43443e-06
3.25367e-08
8.42237e-06
2.96795e-08
8.41133e-06
2.71391e-08
8.40122e-06
2.4875e-08
8.39193e-06
2.28505e-08
8.38337e-06
2.10328e-08
8.37549e-06
1.93928e-08
8.3682e-06
1.79058e-08
8.36147e-06
1.65509e-08
8.35524e-06
1.53108e-08
8.34948e-06
1.41706e-08
8.34414e-06
1.31173e-08
8.3392e-06
1.21385e-08
8.33463e-06
1.12225e-08
8.33042e-06
1.03574e-08
8.32654e-06
9.531e-09
8.32299e-06
8.73051e-09
8.31977e-06
7.94253e-09
8.31686e-06
7.15289e-09
8.31429e-06
6.34664e-09
8.31207e-06
5.50801e-09
8.31021e-06
4.62038e-09
8.30874e-06
3.6662e-09
8.30771e-06
2.62683e-09
8.30715e-06
1.48108e-09
8.30714e-06
1.85064e-10
8.30773e-06
-1.2778e-09
8.309e-06
-2.90503e-09
8.31103e-06
-4.7186e-09
8.31391e-06
-6.73777e-09
8.31772e-06
-8.97896e-09
8.32257e-06
-1.14618e-08
8.32857e-06
-1.42143e-08
8.33586e-06
-1.72727e-08
8.34456e-06
-2.06738e-08
8.35485e-06
-2.44673e-08
8.3669e-06
-2.86485e-08
8.38096e-06
-3.34758e-08
8.39701e-06
-3.82424e-08
8.41657e-06
-4.6559e-08
8.43938e-06
-5.47432e-08
8.45538e-06
-3.79894e-08
8.47134e-06
-3.74519e-08
8.48799e-06
-3.96588e-08
8.50621e-06
-4.3577e-08
8.52569e-06
-4.65292e-08
8.5463e-06
-4.9247e-08
8.56806e-06
-5.19567e-08
8.59096e-06
-5.47147e-08
8.61505e-06
-5.75522e-08
8.64036e-06
-6.04987e-08
8.66696e-06
-6.35915e-08
8.69492e-06
-6.6872e-08
8.72433e-06
-7.03959e-08
8.75533e-06
-7.42337e-08
8.78808e-06
-7.84855e-08
8.82281e-06
-8.32879e-08
8.85981e-06
-8.88512e-08
8.89951e-06
-9.54702e-08
8.94256e-06
-1.03741e-07
8.98986e-06
-1.14263e-07
9.04359e-06
-1.30332e-07
9.10564e-06
-1.51792e-07
9.19296e-06
-2.21909e-07
9.30889e-06
-3.93077e-07
-9.30015e-07
9.23461e-06
1.60742e-05
3.56672e-05
1.40049e-05
5.46932e-06
1.32809e-05
1.88535e-06
1.28804e-05
1.07964e-06
1.26129e-05
7.35255e-07
1.24173e-05
5.43413e-07
1.22657e-05
4.23808e-07
1.21437e-05
3.42536e-07
1.2043e-05
2.83256e-07
1.19585e-05
2.38095e-07
1.18867e-05
2.02793e-07
1.18249e-05
1.74644e-07
1.17712e-05
1.51805e-07
1.17242e-05
1.32981e-07
1.16827e-05
1.17251e-07
1.1646e-05
1.0396e-07
1.16133e-05
9.26406e-08
1.1584e-05
8.29361e-08
1.15577e-05
7.45604e-08
1.15339e-05
6.72773e-08
1.15124e-05
6.08976e-08
1.14929e-05
5.52751e-08
1.14751e-05
5.02992e-08
1.14589e-05
4.58839e-08
1.14441e-05
4.19579e-08
1.14305e-05
3.84587e-08
1.1418e-05
3.533e-08
1.14065e-05
3.25207e-08
1.1396e-05
2.99862e-08
1.13862e-05
2.76882e-08
1.13771e-05
2.55946e-08
1.13688e-05
2.36784e-08
1.1361e-05
2.19166e-08
1.13538e-05
2.02885e-08
1.13472e-05
1.87754e-08
1.13411e-05
1.73587e-08
1.13354e-05
1.602e-08
1.13302e-05
1.47403e-08
1.13254e-05
1.34997e-08
1.13211e-05
1.22773e-08
1.13172e-05
1.10511e-08
1.13137e-05
9.79761e-09
1.13108e-05
8.49232e-09
1.13083e-05
7.10923e-09
1.13063e-05
5.62088e-09
1.13049e-05
3.99811e-09
1.13042e-05
2.20773e-09
1.13042e-05
1.8016e-10
1.13051e-05
-2.11076e-09
1.13068e-05
-4.66026e-09
1.13096e-05
-7.50237e-09
1.13135e-05
-1.06672e-08
1.13187e-05
-1.41805e-08
1.13253e-05
-1.80732e-08
1.13335e-05
-2.23887e-08
1.13434e-05
-2.71838e-08
1.13553e-05
-3.25161e-08
1.13693e-05
-3.84636e-08
1.13856e-05
-4.50187e-08
1.14048e-05
-5.25858e-08
1.14266e-05
-6.00603e-08
1.14531e-05
-7.30578e-08
1.14837e-05
-8.54166e-08
1.15055e-05
-5.97301e-08
1.15274e-05
-5.9383e-08
1.15501e-05
-6.23669e-08
1.15748e-05
-6.82708e-08
1.16012e-05
-7.28912e-08
1.16291e-05
-7.71533e-08
1.16585e-05
-8.13911e-08
1.16895e-05
-8.56954e-08
1.17221e-05
-9.0117e-08
1.17563e-05
-9.47016e-08
1.17922e-05
-9.95064e-08
1.18299e-05
-1.04595e-07
1.18696e-05
-1.10051e-07
1.19113e-05
-1.15983e-07
1.19554e-05
-1.2254e-07
1.2002e-05
-1.2993e-07
1.20517e-05
-1.38468e-07
1.21048e-05
-1.48597e-07
1.21623e-05
-1.61202e-07
1.22252e-05
-1.77185e-07
1.22962e-05
-2.01345e-07
1.23777e-05
-2.33314e-07
1.2487e-05
-3.31139e-07
1.26136e-05
-5.19736e-07
-9.08816e-07
1.25925e-05
2.15074e-05
4.50101e-05
1.87101e-05
8.26667e-06
1.76923e-05
2.90307e-06
1.71391e-05
1.63291e-06
1.67747e-05
1.09959e-06
1.65107e-05
8.07435e-07
1.63073e-05
6.27227e-07
1.61442e-05
5.05676e-07
1.601e-05
4.17467e-07
1.58976e-05
3.50495e-07
1.58021e-05
2.9827e-07
1.572e-05
2.56704e-07
1.56488e-05
2.23025e-07
1.55865e-05
1.95297e-07
1.55316e-05
1.72147e-07
1.54829e-05
1.52601e-07
1.54396e-05
1.35963e-07
1.54009e-05
1.21705e-07
1.5366e-05
1.09403e-07
1.53346e-05
9.87089e-08
1.53061e-05
8.93447e-08
1.52803e-05
8.10945e-08
1.52568e-05
7.37946e-08
1.52354e-05
6.73176e-08
1.52158e-05
6.15587e-08
1.51978e-05
5.64258e-08
1.51813e-05
5.18362e-08
1.51661e-05
4.77155e-08
1.51521e-05
4.39981e-08
1.51392e-05
4.0628e-08
1.51272e-05
3.7558e-08
1.51161e-05
3.47482e-08
1.51059e-05
3.21648e-08
1.50964e-05
2.97774e-08
1.50876e-05
2.75581e-08
1.50795e-05
2.54797e-08
1.5072e-05
2.35149e-08
1.50651e-05
2.16357e-08
1.50588e-05
1.9813e-08
1.5053e-05
1.80158e-08
1.50479e-05
1.62116e-08
1.50433e-05
1.4366e-08
1.50394e-05
1.24426e-08
1.50361e-05
1.04032e-08
1.50335e-05
8.20704e-09
1.50317e-05
5.81112e-09
1.50307e-05
3.16637e-09
1.50307e-05
1.69461e-10
1.50318e-05
-3.21957e-09
1.50342e-05
-6.99316e-09
1.50379e-05
-1.12002e-08
1.50431e-05
-1.58849e-08
1.505e-05
-2.1086e-08
1.50588e-05
-2.68486e-08
1.50696e-05
-3.32368e-08
1.50828e-05
-4.03341e-08
1.50985e-05
-4.82254e-08
1.5117e-05
-5.70256e-08
1.51388e-05
-6.67258e-08
1.51641e-05
-7.79122e-08
1.5193e-05
-8.89968e-08
1.5228e-05
-1.08055e-07
1.52682e-05
-1.25637e-07
1.5297e-05
-8.84779e-08
1.53263e-05
-8.87344e-08
1.53566e-05
-9.26173e-08
1.53893e-05
-1.00938e-07
1.54241e-05
-1.07709e-07
1.54609e-05
-1.13989e-07
1.54998e-05
-1.20225e-07
1.55406e-05
-1.26547e-07
1.55835e-05
-1.33032e-07
1.56286e-05
-1.39744e-07
1.56758e-05
-1.46766e-07
1.57254e-05
-1.54188e-07
1.57775e-05
-1.62132e-07
1.58323e-05
-1.70748e-07
1.589e-05
-1.80252e-07
1.5951e-05
-1.90934e-07
1.60158e-05
-2.03238e-07
1.6085e-05
-2.17789e-07
1.61596e-05
-2.35814e-07
1.6241e-05
-2.58603e-07
1.63323e-05
-2.92592e-07
1.64364e-05
-3.37391e-07
1.65697e-05
-4.64439e-07
1.67125e-05
-6.62559e-07
-9.92449e-07
1.67962e-05
2.83645e-05
5.5284e-05
2.46699e-05
1.19613e-05
2.32578e-05
4.31518e-06
2.24988e-05
2.39197e-06
2.20055e-05
1.59285e-06
2.16513e-05
1.16161e-06
2.13802e-05
8.98394e-07
2.11636e-05
7.2221e-07
2.0986e-05
5.95071e-07
2.08376e-05
4.98914e-07
2.07117e-05
4.2414e-07
2.06037e-05
3.64749e-07
2.051e-05
3.16706e-07
2.04281e-05
2.77202e-07
2.0356e-05
2.44255e-07
2.02921e-05
2.16463e-07
2.02353e-05
1.9282e-07
2.01844e-05
1.72568e-07
2.01387e-05
1.55103e-07
2.00975e-05
1.39927e-07
2.00602e-05
1.26643e-07
2.00263e-05
1.14944e-07
1.99955e-05
1.04595e-07
1.99674e-05
9.54139e-08
1.99418e-05
8.72514e-08
1.99182e-05
7.99764e-08
1.98966e-05
7.34716e-08
1.98767e-05
6.76317e-08
1.98583e-05
6.2364e-08
1.98413e-05
5.75891e-08
1.98256e-05
5.324e-08
1.98111e-05
4.92601e-08
1.97977e-05
4.5601e-08
1.97853e-05
4.22195e-08
1.97737e-05
3.90757e-08
1.97631e-05
3.61311e-08
1.97533e-05
3.33468e-08
1.97442e-05
3.06831e-08
1.97359e-05
2.80983e-08
1.97284e-05
2.55488e-08
1.97216e-05
2.29884e-08
1.97156e-05
2.03682e-08
1.97104e-05
1.76366e-08
1.97061e-05
1.4739e-08
1.97027e-05
1.16179e-08
1.97003e-05
8.21187e-09
1.9699e-05
4.45132e-09
1.9699e-05
1.89876e-10
1.97004e-05
-4.63251e-09
1.97034e-05
-1.00055e-08
1.97082e-05
-1.59951e-08
1.9715e-05
-2.26643e-08
1.97239e-05
-3.00682e-08
1.97354e-05
-3.82709e-08
1.97495e-05
-4.73627e-08
1.97666e-05
-5.7461e-08
1.97871e-05
-6.86865e-08
1.98113e-05
-8.12011e-08
1.98395e-05
-9.4997e-08
1.98725e-05
-1.10881e-07
1.99102e-05
-1.26698e-07
1.99556e-05
-1.53441e-07
2.00074e-05
-1.77425e-07
2.00447e-05
-1.25752e-07
2.00832e-05
-1.2724e-07
2.01228e-05
-1.32217e-07
2.01653e-05
-1.4342e-07
2.02104e-05
-1.52892e-07
2.02582e-05
-1.61745e-07
2.03085e-05
-1.70535e-07
2.03614e-05
-1.79435e-07
2.04169e-05
-1.88548e-07
2.04751e-05
-1.97964e-07
2.05362e-05
-2.07796e-07
2.06002e-05
-2.18167e-07
2.06673e-05
-2.29241e-07
2.07378e-05
-2.41225e-07
2.08119e-05
-2.54408e-07
2.08902e-05
-2.69182e-07
2.09731e-05
-2.86146e-07
2.10615e-05
-3.06137e-07
2.11564e-05
-3.30779e-07
2.12597e-05
-3.61842e-07
2.13746e-05
-4.07467e-07
2.15047e-05
-4.67507e-07
2.16649e-05
-6.24595e-07
2.1831e-05
-8.28663e-07
-1.18887e-06
2.20274e-05
3.70304e-05
6.64913e-05
3.22463e-05
1.67453e-05
3.03071e-05
6.25437e-06
2.92695e-05
3.4296e-06
2.86032e-05
2.25917e-06
2.81292e-05
1.63564e-06
2.77687e-05
1.25889e-06
2.74822e-05
1.0087e-06
2.7248e-05
8.29254e-07
2.70528e-05
6.94132e-07
2.68875e-05
5.89385e-07
2.67459e-05
5.06388e-07
2.66232e-05
4.39373e-07
2.65161e-05
3.84351e-07
2.64218e-05
3.38519e-07
2.63384e-05
2.99897e-07
2.62641e-05
2.67067e-07
2.61977e-05
2.38964e-07
2.61381e-05
2.14738e-07
2.60843e-05
1.93699e-07
2.60357e-05
1.75292e-07
2.59915e-05
1.59087e-07
2.59514e-05
1.44758e-07
2.59147e-05
1.32049e-07
2.58812e-05
1.2075e-07
2.58505e-05
1.10681e-07
2.58223e-05
1.01678e-07
2.57964e-05
9.35964e-08
2.57724e-05
8.63075e-08
2.57503e-05
7.97017e-08
2.57299e-05
7.36861e-08
2.57109e-05
6.81821e-08
2.56934e-05
6.31222e-08
2.56772e-05
5.84467e-08
2.56622e-05
5.40999e-08
2.56483e-05
5.00282e-08
2.56354e-05
4.61778e-08
2.56236e-05
4.24938e-08
2.56128e-05
3.89186e-08
2.5603e-05
3.53918e-08
2.55941e-05
3.18496e-08
2.55862e-05
2.82245e-08
2.55794e-05
2.44451e-08
2.55737e-05
2.04363e-08
2.55692e-05
1.61183e-08
2.5566e-05
1.14064e-08
2.55643e-05
6.20454e-09
2.55642e-05
3.13005e-10
2.55659e-05
-6.35774e-09
2.55697e-05
-1.37955e-08
2.55758e-05
-2.2085e-08
2.55844e-05
-3.13133e-08
2.55959e-05
-4.15567e-08
2.56106e-05
-5.29032e-08
2.56287e-05
-6.54763e-08
2.56506e-05
-7.94365e-08
2.56769e-05
-9.49497e-08
2.57079e-05
-1.12236e-07
2.57442e-05
-1.31295e-07
2.57866e-05
-1.53192e-07
2.5835e-05
-1.7513e-07
2.5893e-05
-2.1146e-07
2.59588e-05
-2.4318e-07
2.60064e-05
-1.73332e-07
2.6056e-05
-1.76928e-07
2.61071e-05
-1.83319e-07
2.61617e-05
-1.97924e-07
2.62195e-05
-2.1072e-07
2.62805e-05
-2.22788e-07
2.63448e-05
-2.34782e-07
2.64123e-05
-2.46915e-07
2.64831e-05
-2.59321e-07
2.65572e-05
-2.72115e-07
2.66349e-05
-2.85447e-07
2.67162e-05
-2.99478e-07
2.68014e-05
-3.14424e-07
2.68907e-05
-3.30554e-07
2.69846e-05
-3.48247e-07
2.70834e-05
-3.68016e-07
2.71879e-05
-3.90635e-07
2.7299e-05
-4.17195e-07
2.7418e-05
-4.49762e-07
2.75468e-05
-4.90687e-07
2.76892e-05
-5.49801e-07
2.78493e-05
-6.27553e-07
2.80396e-05
-8.14903e-07
2.82367e-05
-1.02582e-06
-1.47869e-06
2.85266e-05
4.79732e-05
7.8576e-05
4.18933e-05
2.28252e-05
3.92556e-05
8.892e-06
3.78402e-05
4.84508e-06
3.694e-05
3.15932e-06
3.63054e-05
2.27026e-06
3.58262e-05
1.73812e-06
3.54473e-05
1.38754e-06
3.51388e-05
1.13775e-06
3.48824e-05
9.50578e-07
3.46658e-05
8.05992e-07
3.44804e-05
6.91737e-07
3.43201e-05
5.99679e-07
3.41802e-05
5.24227e-07
3.40573e-05
4.61468e-07
3.39485e-05
4.08644e-07
3.38518e-05
3.63786e-07
3.37654e-05
3.25413e-07
3.36877e-05
2.92356e-07
3.36178e-05
2.63663e-07
3.35545e-05
2.38573e-07
3.34971e-05
2.16497e-07
3.34449e-05
1.96984e-07
3.33972e-05
1.79682e-07
3.33537e-05
1.64303e-07
3.33138e-05
1.50598e-07
3.32771e-05
1.38346e-07
3.32433e-05
1.27349e-07
3.32122e-05
1.17432e-07
3.31835e-05
1.08447e-07
3.31569e-05
1.00266e-07
3.31323e-05
9.27827e-08
3.31095e-05
8.59046e-08
3.30884e-05
7.95498e-08
3.30689e-05
7.36424e-08
3.30508e-05
6.81094e-08
3.30341e-05
6.28776e-08
3.30187e-05
5.78721e-08
3.30046e-05
5.30151e-08
3.29918e-05
4.82248e-08
3.29802e-05
4.34148e-08
3.29699e-05
3.84938e-08
3.2961e-05
3.33653e-08
3.29535e-05
2.79275e-08
3.29476e-05
2.20727e-08
3.29433e-05
1.56865e-08
3.29409e-05
8.63897e-09
3.29405e-05
6.6629e-10
3.29425e-05
-8.36438e-09
3.29472e-05
-1.84418e-08
3.29548e-05
-2.96691e-08
3.29656e-05
-4.2164e-08
3.29801e-05
-5.60296e-08
3.29986e-05
-7.13844e-08
3.30215e-05
-8.8393e-08
3.30493e-05
-1.0727e-07
3.30826e-05
-1.28236e-07
3.3122e-05
-1.51587e-07
3.3168e-05
-1.77331e-07
3.32217e-05
-2.06838e-07
3.32831e-05
-2.366e-07
3.33564e-05
-2.84733e-07
3.34389e-05
-3.25707e-07
3.34989e-05
-2.33273e-07
3.35621e-05
-2.40126e-07
3.36272e-05
-2.48429e-07
3.36963e-05
-2.67039e-07
3.37695e-05
-2.83871e-07
3.38466e-05
-2.99891e-07
3.39276e-05
-3.15842e-07
3.40127e-05
-3.31971e-07
3.41018e-05
-3.48438e-07
3.41951e-05
-3.6539e-07
3.42927e-05
-3.83016e-07
3.43947e-05
-4.01521e-07
3.45015e-05
-4.21182e-07
3.46133e-05
-4.42341e-07
3.47305e-05
-4.65481e-07
3.48538e-05
-4.91251e-07
3.49838e-05
-5.20628e-07
3.51216e-05
-5.54995e-07
3.52688e-05
-5.96901e-07
3.54275e-05
-6.49384e-07
3.56016e-05
-7.2385e-07
3.57959e-05
-8.21815e-07
3.602e-05
-1.03904e-06
3.62557e-05
-1.26149e-06
-1.83313e-06
3.66102e-05
6.17615e-05
9.14011e-05
5.41827e-05
3.04041e-05
5.0631e-05
1.24437e-05
4.87034e-05
6.77272e-06
4.74857e-05
4.37698e-06
4.66344e-05
3.12159e-06
4.59962e-05
2.37637e-06
4.54944e-05
1.88926e-06
4.50876e-05
1.54459e-06
4.47505e-05
1.2877e-06
4.44664e-05
1.09005e-06
4.42238e-05
9.34334e-07
4.40143e-05
8.09173e-07
4.38318e-05
7.06794e-07
4.36714e-05
6.21777e-07
4.35298e-05
5.50321e-07
4.34038e-05
4.89707e-07
4.32914e-05
4.37902e-07
4.31904e-05
3.93305e-07
4.30994e-05
3.54621e-07
4.30172e-05
3.20818e-07
4.29426e-05
2.91094e-07
4.28748e-05
2.64833e-07
4.28129e-05
2.41556e-07
4.27563e-05
2.2087e-07
4.27045e-05
2.02439e-07
4.26569e-05
1.85964e-07
4.2613e-05
1.71178e-07
4.25726e-05
1.57848e-07
4.25353e-05
1.45773e-07
4.25008e-05
1.34783e-07
4.24688e-05
1.24732e-07
4.24392e-05
1.15496e-07
4.24118e-05
1.06965e-07
4.23864e-05
9.90367e-08
4.23629e-05
9.16122e-08
4.23412e-05
8.45935e-08
4.23212e-05
7.78805e-08
4.23028e-05
7.13692e-08
4.22861e-05
6.49505e-08
4.2271e-05
5.85094e-08
4.22576e-05
5.19242e-08
4.22459e-05
4.50667e-08
4.2236e-05
3.78015e-08
4.22281e-05
2.99855e-08
4.22223e-05
2.14666e-08
4.22189e-05
1.20726e-08
4.22181e-05
1.46464e-09
4.22203e-05
-1.05535e-08
4.22258e-05
-2.39772e-08
4.22351e-05
-3.8925e-08
4.22485e-05
-5.55529e-08
4.22664e-05
-7.3998e-08
4.22895e-05
-9.44166e-08
4.23181e-05
-1.17024e-07
4.23529e-05
-1.421e-07
4.23947e-05
-1.69937e-07
4.2444e-05
-2.00917e-07
4.25017e-05
-2.35073e-07
4.2569e-05
-2.74113e-07
4.26462e-05
-3.1377e-07
4.27377e-05
-3.76268e-07
4.28403e-05
-4.28259e-07
4.29149e-05
-3.07922e-07
4.29943e-05
-3.19459e-07
4.30763e-05
-3.30409e-07
4.3163e-05
-3.53744e-07
4.32545e-05
-3.75439e-07
4.33509e-05
-3.96257e-07
4.34521e-05
-4.17028e-07
4.35582e-05
-4.38025e-07
4.36692e-05
-4.59438e-07
4.37852e-05
-4.8144e-07
4.39065e-05
-5.04266e-07
4.40332e-05
-5.2817e-07
4.41655e-05
-5.535e-07
4.43038e-05
-5.80678e-07
4.44487e-05
-6.10308e-07
4.46006e-05
-6.43194e-07
4.47606e-05
-6.80542e-07
4.49297e-05
-7.24061e-07
4.51096e-05
-7.76821e-07
4.53029e-05
-8.42645e-07
4.55134e-05
-9.343e-07
4.57465e-05
-1.05493e-06
4.60085e-05
-1.30093e-06
4.62891e-05
-1.54212e-06
-2.22601e-06
4.6682e-05
7.90785e-05
0.000104722
6.98324e-05
3.96502e-05
6.51058e-05
1.71702e-05
6.24868e-05
9.39168e-06
6.08367e-05
6.02707e-06
5.96912e-05
4.26714e-06
5.88384e-05
3.22918e-06
5.81719e-05
2.55572e-06
5.7634e-05
2.08256e-06
5.71897e-05
1.73193e-06
5.68165e-05
1.46333e-06
5.64984e-05
1.25243e-06
5.62242e-05
1.08338e-06
5.59855e-05
9.4541e-07
5.57763e-05
8.31059e-07
5.55915e-05
7.351e-07
5.54274e-05
6.53807e-07
5.52809e-05
5.844e-07
5.51495e-05
5.24701e-07
5.50311e-05
4.7296e-07
5.49242e-05
4.27781e-07
5.48272e-05
3.8808e-07
5.4739e-05
3.53026e-07
5.46586e-05
3.21968e-07
5.45851e-05
2.94376e-07
5.45177e-05
2.69797e-07
5.44559e-05
2.47829e-07
5.43989e-05
2.28118e-07
5.43464e-05
2.10352e-07
5.42979e-05
1.94263e-07
5.42531e-05
1.79624e-07
5.42116e-05
1.66241e-07
5.41731e-05
1.53948e-07
5.41375e-05
1.42596e-07
5.41045e-05
1.3205e-07
5.40739e-05
1.22178e-07
5.40457e-05
1.12849e-07
5.40196e-05
1.03932e-07
5.39957e-05
9.5288e-08
5.39739e-05
8.67742e-08
5.39541e-05
7.82392e-08
5.39365e-05
6.95231e-08
5.39212e-05
6.04577e-08
5.39081e-05
5.08652e-08
5.38975e-05
4.05582e-08
5.38896e-05
2.93375e-08
5.38847e-05
1.69783e-08
5.38831e-05
3.05696e-09
5.38853e-05
-1.27146e-08
5.38917e-05
-3.0349e-08
5.39027e-05
-4.99722e-08
5.3919e-05
-7.17883e-08
5.3941e-05
-9.59765e-08
5.39693e-05
-1.2274e-07
5.40046e-05
-1.52355e-07
5.40477e-05
-1.85182e-07
5.40994e-05
-2.21599e-07
5.41606e-05
-2.62094e-07
5.42322e-05
-3.06735e-07
5.43157e-05
-3.57609e-07
5.44116e-05
-4.09658e-07
5.45248e-05
-4.89465e-07
5.46511e-05
-5.54559e-07
5.47432e-05
-3.99933e-07
5.48415e-05
-4.1784e-07
5.49436e-05
-4.32467e-07
5.50513e-05
-4.61403e-07
5.51648e-05
-4.88933e-07
5.52841e-05
-5.15525e-07
5.54091e-05
-5.42102e-07
5.55401e-05
-5.68966e-07
5.5677e-05
-5.96329e-07
5.582e-05
-6.24395e-07
5.59692e-05
-6.53447e-07
5.61248e-05
-6.83793e-07
5.62872e-05
-7.1586e-07
5.64567e-05
-7.50163e-07
5.66338e-05
-7.87439e-07
5.68193e-05
-8.28668e-07
5.70141e-05
-8.75307e-07
5.72195e-05
-9.2943e-07
5.74374e-05
-9.94647e-07
5.76704e-05
-1.07565e-06
5.79224e-05
-1.18624e-06
5.81993e-05
-1.33177e-06
5.85031e-05
-1.60465e-06
5.88334e-05
-1.87247e-06
-2.63856e-06
5.9246e-05
0.000100732
0.000118157
8.97357e-05
5.0647e-05
8.35367e-05
2.33692e-05
7.99927e-05
1.29357e-05
7.77534e-05
8.26642e-06
7.62064e-05
5.81407e-06
7.50622e-05
4.37345e-06
7.41732e-05
3.44469e-06
7.3459e-05
2.79672e-06
7.28715e-05
2.31944e-06
7.23793e-05
1.95553e-06
7.19609e-05
1.67085e-06
7.16009e-05
1.44335e-06
7.12882e-05
1.25814e-06
7.10143e-05
1.10498e-06
7.07727e-05
9.76682e-07
7.05584e-05
8.68157e-07
7.03672e-05
7.75612e-07
7.01958e-05
6.96091e-07
7.00415e-05
6.27233e-07
6.99021e-05
5.67161e-07
6.97758e-05
5.14416e-07
6.96609e-05
4.67876e-07
6.95562e-05
4.26663e-07
6.94605e-05
3.90063e-07
6.93729e-05
3.57468e-07
6.92924e-05
3.28343e-07
6.92183e-05
3.02215e-07
6.91499e-05
2.78672e-07
6.90868e-05
2.57359e-07
6.90285e-05
2.37974e-07
6.89745e-05
2.2026e-07
6.89244e-05
2.03996e-07
6.8878e-05
1.88983e-07
6.88351e-05
1.75043e-07
6.87952e-05
1.61999e-07
6.87584e-05
1.49682e-07
6.87244e-05
1.37917e-07
6.86932e-05
1.26524e-07
6.86646e-05
1.15316e-07
6.86388e-05
1.04096e-07
6.86156e-05
9.26561e-08
6.85953e-05
8.07776e-08
6.85779e-05
6.82303e-08
6.85637e-05
5.47713e-08
6.85529e-05
4.0143e-08
6.85459e-05
2.40555e-08
6.85429e-05
5.99383e-09
6.85447e-05
-1.44618e-08
6.85517e-05
-3.73586e-08
6.85645e-05
-6.28165e-08
6.85838e-05
-9.10986e-08
6.86103e-05
-1.22436e-07
6.86447e-05
-1.57088e-07
6.86877e-05
-1.95408e-07
6.87404e-05
-2.37849e-07
6.88037e-05
-2.84895e-07
6.88788e-05
-3.37157e-07
6.89668e-05
-3.94761e-07
6.90694e-05
-4.602e-07
6.91874e-05
-5.2763e-07
6.9326e-05
-6.28096e-07
6.94803e-05
-7.08828e-07
6.95927e-05
-5.12281e-07
6.97133e-05
-5.38472e-07
6.9839e-05
-5.58142e-07
6.99713e-05
-5.93742e-07
7.01107e-05
-6.28265e-07
7.02569e-05
-6.61765e-07
7.04101e-05
-6.95282e-07
7.05703e-05
-7.29149e-07
7.07376e-05
-7.63604e-07
7.09121e-05
-7.98879e-07
7.1094e-05
-8.35313e-07
7.12835e-05
-8.73271e-07
7.14809e-05
-9.13266e-07
7.16867e-05
-9.55921e-07
7.19014e-05
-1.00212e-06
7.21258e-05
-1.05303e-06
7.2361e-05
-1.11039e-06
7.26082e-05
-1.17667e-06
7.28696e-05
-1.25601e-06
7.31481e-05
-1.35402e-06
7.3447e-05
-1.48514e-06
7.37726e-05
-1.65733e-06
7.41224e-05
-1.95436e-06
7.45051e-05
-2.25516e-06
-3.0601e-06
7.49266e-05
0.000127659
0.000131164
0.000114988
6.3318e-05
0.00010701
3.13464e-05
0.000102247
1.76988e-05
9.92078e-05
1.13059e-05
9.71118e-05
7.91006e-06
9.55694e-05
5.91589e-06
9.43777e-05
4.63638e-06
9.34249e-05
3.74947e-06
9.26442e-05
3.10015e-06
9.19922e-05
2.60748e-06
9.14395e-05
2.22361e-06
9.0965e-05
1.91785e-06
9.05535e-05
1.66964e-06
9.01936e-05
1.46485e-06
8.98766e-05
1.29368e-06
8.95957e-05
1.14913e-06
8.93452e-05
1.02603e-06
8.91209e-05