/*--------------------------------*- C++ -*----------------------------------*\
| =========                 |                                                 |
| \\      /  F ield         | OpenFOAM: The Open Source CFD Toolbox           |
|  \\    /   O peration     | Version:  5.x                                   |
|   \\  /    A nd           | Web:      www.OpenFOAM.org                      |
|    \\/     M anipulation  |                                                 |
\*---------------------------------------------------------------------------*/
FoamFile
{
    version     2.0;
    format      ascii;
    class       volVectorField;
    location    "700";
    object      U;
}
// * * * * * * * * * * * * * * * * * * * * * * * * * * * * * * * * * * * * * //

dimensions      [0 1 -1 0 0 0 0];

internalField   nonuniform List<vector> 
20540
(
(44.1648 -8.1448e-07 0)
(44.2268 0.00467567 0)
(44.1648 -2.55646e-06 0)
(44.2268 0.0134778 0)
(44.1648 -4.50615e-06 0)
(44.2268 0.022079 0)
(44.1648 -6.68973e-06 0)
(44.2267 0.0311543 0)
(44.1648 -9.05365e-06 0)
(44.2266 0.040787 0)
(44.1648 -1.14593e-05 0)
(44.2265 0.0509483 0)
(44.1648 -1.36569e-05 0)
(44.2265 0.0615566 0)
(44.1648 -1.52408e-05 0)
(44.2264 0.0724785 0)
(44.1649 -1.55986e-05 0)
(44.2265 0.083511 0)
(44.165 -1.38639e-05 0)
(44.2266 0.0943747 0)
(44.1652 -8.87621e-06 0)
(44.2268 0.104717 0)
(44.1654 8.50579e-07 0)
(44.2272 0.114126 0)
(44.1658 1.71514e-05 0)
(44.2277 0.122157 0)
(44.1662 4.22228e-05 0)
(44.2283 0.128395 0)
(44.1668 7.86216e-05 0)
(44.229 0.132551 0)
(44.1675 0.000129227 0)
(44.2299 0.134613 0)
(44.1684 0.000197133 0)
(44.2309 0.134843 0)
(44.1695 0.000285426 0)
(44.2322 0.133709 0)
(44.1708 0.000396879 0)
(44.2338 0.131688 0)
(44.1723 0.000533588 0)
(44.2356 0.129011 0)
(44.1741 0.0006965 0)
(44.2378 0.125704 0)
(44.1763 0.000884714 0)
(44.2404 0.121691 0)
(44.1787 0.00109447 0)
(44.2434 0.116853 0)
(44.1816 0.00131776 0)
(44.2468 0.111041 0)
(44.1848 0.00154052 0)
(44.2508 0.104078 0)
(44.1884 0.00174046 0)
(44.2552 0.0957552 0)
(44.1924 0.00188471 0)
(44.26 0.0858296 0)
(44.1966 0.00192799 0)
(44.2651 0.0740132 0)
(44.2009 0.00181284 0)
(44.2703 0.0599604 0)
(44.2048 0.00147429 0)
(44.2751 0.0432427 0)
(44.2076 0.000945278 0)
(44.2785 0.0255579 0)
(44.2089 0.000321413 0)
(44.2801 0.00840726 0)
(44.2089 -0.0003353 0)
(44.2801 -0.0087246 0)
(44.2076 -0.000957855 0)
(44.2785 -0.0258754 0)
(44.2048 -0.00147841 0)
(44.2751 -0.043288 0)
(44.201 -0.00180961 0)
(44.2704 -0.0595436 0)
(44.1968 -0.00192925 0)
(44.2654 -0.0732883 0)
(44.1927 -0.00189638 0)
(44.2604 -0.0849138 0)
(44.1888 -0.00176408 0)
(44.2557 -0.0947376 0)
(44.1853 -0.00157481 0)
(44.2514 -0.103026 0)
(44.1821 -0.00136004 0)
(44.2475 -0.110004 0)
(44.1792 -0.0011416 0)
(44.244 -0.115865 0)
(44.1767 -0.000933668 0)
(44.241 -0.120777 0)
(44.1746 -0.000744685 0)
(44.2384 -0.124881 0)
(44.1727 -0.000578973 0)
(44.2361 -0.128294 0)
(44.1712 -0.000438017 0)
(44.2342 -0.131099 0)
(44.1698 -0.000321411 0)
(44.2326 -0.133317 0)
(44.1687 -0.000227542 0)
(44.2312 -0.134829 0)
(44.1677 -0.000154053 0)
(44.2301 -0.135283 0)
(44.1669 -9.8177e-05 0)
(44.2292 -0.134207 0)
(44.1663 -5.70265e-05 0)
(44.2284 -0.131256 0)
(44.1658 -2.78246e-05 0)
(44.2278 -0.1263 0)
(44.1654 -8.05163e-06 0)
(44.2272 -0.11948 0)
(44.1651 4.49425e-06 0)
(44.2268 -0.111124 0)
(44.1649 1.16802e-05 0)
(44.2265 -0.10163 0)
(44.1648 1.50479e-05 0)
(44.2263 -0.0913933 0)
(44.1647 1.58306e-05 0)
(44.2262 -0.080775 0)
(44.1646 1.498e-05 0)
(44.2262 -0.0700764 0)
(44.1646 1.3198e-05 0)
(44.2262 -0.0595327 0)
(44.1646 1.09751e-05 0)
(44.2263 -0.0493127 0)
(44.1645 8.63308e-06 0)
(44.2264 -0.0395256 0)
(44.1645 6.36858e-06 0)
(44.2265 -0.0302372 0)
(44.1645 4.28953e-06 0)
(44.2265 -0.0214647 0)
(44.1645 2.43501e-06 0)
(44.2266 -0.0131081 0)
(44.1645 7.76662e-07 0)
(44.2266 -0.00454748 0)
(7.05385 0.00661016 0)
(5.82064 0.000181729 0)
(5.45912 7.11205e-05 0)
(5.23969 4.90611e-05 0)
(5.08717 3.67027e-05 0)
(4.97427 2.886e-05 0)
(4.88661 2.36149e-05 0)
(4.81609 1.98918e-05 0)
(4.75802 1.7094e-05 0)
(4.7094 1.49129e-05 0)
(4.66816 1.31731e-05 0)
(4.63278 1.17597e-05 0)
(4.60214 1.05931e-05 0)
(4.57538 9.61558e-06 0)
(4.55186 8.7847e-06 0)
(4.53106 8.07044e-06 0)
(4.51257 7.45192e-06 0)
(4.49606 6.91329e-06 0)
(4.48126 6.44102e-06 0)
(4.46792 6.02323e-06 0)
(4.45587 5.65026e-06 0)
(4.44496 5.31496e-06 0)
(4.43504 5.01239e-06 0)
(4.42601 4.73902e-06 0)
(4.41777 4.49191e-06 0)
(4.41023 4.26822e-06 0)
(4.40331 4.06504e-06 0)
(4.39694 3.87949e-06 0)
(4.39109 3.70889e-06 0)
(4.38568 3.55089e-06 0)
(4.38069 3.4035e-06 0)
(4.37608 3.26507e-06 0)
(4.37181 3.13413e-06 0)
(4.36786 3.0093e-06 0)
(4.36421 2.88916e-06 0)
(4.36083 2.77209e-06 0)
(4.3577 2.65615e-06 0)
(4.35482 2.53905e-06 0)
(4.35217 2.41798e-06 0)
(4.34975 2.28957e-06 0)
(4.34754 2.14979e-06 0)
(4.34556 1.99387e-06 0)
(4.34381 1.8162e-06 0)
(4.3423 1.61019e-06 0)
(4.34104 1.36817e-06 0)
(4.34005 1.08115e-06 0)
(4.33936 7.38139e-07 0)
(4.33899 3.21621e-07 0)
(4.33899 -1.82287e-07 0)
(4.3394 -7.83711e-07 0)
(4.34027 -1.49919e-06 0)
(4.34164 -2.34688e-06 0)
(4.34358 -3.34558e-06 0)
(4.34614 -4.51738e-06 0)
(4.3494 -5.89003e-06 0)
(4.35342 -7.49737e-06 0)
(4.35829 -9.37776e-06 0)
(4.3641 -1.15764e-05 0)
(4.37098 -1.41333e-05 0)
(4.37899 -1.71534e-05 0)
(4.38842 -2.05675e-05 0)
(4.39889 -2.5396e-05 0)
(4.41294 -3.23216e-05 0)
(4.42499 -3.34632e-05 0)
(4.43483 -3.32517e-05 0)
(4.44435 -4.02587e-05 0)
(4.45546 -4.64767e-05 0)
(4.46736 -5.18757e-05 0)
(4.47994 -5.76313e-05 0)
(4.49323 -6.39255e-05 0)
(4.50723 -7.08274e-05 0)
(4.52197 -7.84058e-05 0)
(4.53747 -8.67687e-05 0)
(4.55377 -9.60326e-05 0)
(4.57091 -0.000106363 0)
(4.58896 -0.000117951 0)
(4.60798 -0.000131072 0)
(4.62809 -0.000146078 0)
(4.64941 -0.000163485 0)
(4.67211 -0.000184032 0)
(4.69646 -0.000208878 0)
(4.72279 -0.000239882 0)
(4.75174 -0.000280642 0)
(4.7838 -0.000337482 0)
(4.8226 -0.000437038 0)
(4.8643 -0.000687105 0)
(4.96584 -0.00279941 0)
(5.22855 -0.025728 0)
(14.1915 0.0148494 0)
(11.7236 0.000886766 0)
(11.039 0.000318795 0)
(10.6534 0.000207582 0)
(10.3921 0.000152784 0)
(10.2007 0.000119558 0)
(10.0528 9.77986e-05 0)
(9.93395 8.25058e-05 0)
(9.83611 7.10454e-05 0)
(9.7542 6.21085e-05 0)
(9.68468 5.49741e-05 0)
(9.62501 4.91729e-05 0)
(9.5733 4.43782e-05 0)
(9.52811 4.03538e-05 0)
(9.48836 3.69272e-05 0)
(9.45319 3.39764e-05 0)
(9.42191 3.14166e-05 0)
(9.39396 2.91834e-05 0)
(9.36888 2.72222e-05 0)
(9.34628 2.54852e-05 0)
(9.32585 2.3933e-05 0)
(9.30734 2.25361e-05 0)
(9.2905 2.12741e-05 0)
(9.27517 2.01323e-05 0)
(9.26117 1.90986e-05 0)
(9.24835 1.81615e-05 0)
(9.23658 1.73093e-05 0)
(9.22576 1.65302e-05 0)
(9.2158 1.58132e-05 0)
(9.2066 1.51484e-05 0)
(9.1981 1.45276e-05 0)
(9.19025 1.39436e-05 0)
(9.18298 1.33901e-05 0)
(9.17625 1.28611e-05 0)
(9.17002 1.23503e-05 0)
(9.16426 1.18505e-05 0)
(9.15893 1.13529e-05 0)
(9.15402 1.08471e-05 0)
(9.14951 1.03202e-05 0)
(9.14539 9.75666e-06 0)
(9.14165 9.1379e-06 0)
(9.13831 8.44167e-06 0)
(9.13536 7.64176e-06 0)
(9.13283 6.70742e-06 0)
(9.13074 5.60272e-06 0)
(9.12913 4.28574e-06 0)
(9.12805 2.7055e-06 0)
(9.12756 7.73709e-07 0)
(9.12773 -1.57123e-06 0)
(9.12864 -4.36795e-06 0)
(9.13037 -7.69515e-06 0)
(9.13303 -1.1637e-05 0)
(9.13671 -1.628e-05 0)
(9.14152 -2.17259e-05 0)
(9.14758 -2.81037e-05 0)
(9.15503 -3.55718e-05 0)
(9.16403 -4.43078e-05 0)
(9.17474 -5.45317e-05 0)
(9.18738 -6.63833e-05 0)
(9.2021 -8.05532e-05 0)
(9.2194 -9.58271e-05 0)
(9.23858 -0.000120397 0)
(9.26433 -0.00015012 0)
(9.2865 -0.000158411 0)
(9.30489 -0.000159959 0)
(9.32235 -0.000185176 0)
(9.34253 -0.000215072 0)
(9.36422 -0.000240892 0)
(9.38721 -0.000267829 0)
(9.41149 -0.000297068 0)
(9.43708 -0.000329014 0)
(9.46401 -0.000364037 0)
(9.49234 -0.000402602 0)
(9.52212 -0.000445279 0)
(9.55345 -0.000492778 0)
(9.58641 -0.000546001 0)
(9.62116 -0.000606149 0)
(9.65786 -0.000674841 0)
(9.69676 -0.000754347 0)
(9.73817 -0.000848032 0)
(9.78254 -0.000960848 0)
(9.83046 -0.00110182 0)
(9.88308 -0.00128308 0)
(9.94129 -0.0015486 0)
(10.011 -0.00193741 0)
(10.0872 -0.00315583 0)
(10.2518 -0.00939608 0)
(10.5166 -0.0738763 0)
(18.3839 0.0233551 0)
(15.129 0.0020705 0)
(14.2221 0.000737033 0)
(13.7339 0.000465195 0)
(13.4099 0.000338556 0)
(13.1749 0.000263684 0)
(12.9944 0.000215275 0)
(12.8498 0.000181494 0)
(12.7309 0.000156267 0)
(12.6316 0.000136625 0)
(12.5473 0.00012096 0)
(12.4751 0.00010823 0)
(12.4125 9.77119e-05 0)
(12.3578 8.88839e-05 0)
(12.3097 8.13666e-05 0)
(12.2671 7.48925e-05 0)
(12.2293 6.92747e-05 0)
(12.1955 6.43719e-05 0)
(12.1651 6.00649e-05 0)
(12.1378 5.62494e-05 0)
(12.113 5.28396e-05 0)
(12.0906 4.97708e-05 0)
(12.0703 4.69977e-05 0)
(12.0517 4.44877e-05 0)
(12.0348 4.22144e-05 0)
(12.0192 4.01527e-05 0)
(12.005 3.82769e-05 0)
(11.9919 3.65617e-05 0)
(11.9798 3.49829e-05 0)
(11.9687 3.3519e-05 0)
(11.9584 3.21514e-05 0)
(11.9489 3.08644e-05 0)
(11.9401 2.9644e-05 0)
(11.9319 2.84766e-05 0)
(11.9244 2.7348e-05 0)
(11.9174 2.62416e-05 0)
(11.911 2.51379e-05 0)
(11.905 2.40131e-05 0)
(11.8996 2.28379e-05 0)
(11.8946 2.1577e-05 0)
(11.8901 2.01878e-05 0)
(11.886 1.86199e-05 0)
(11.8825 1.68132e-05 0)
(11.8794 1.46975e-05 0)
(11.877 1.21907e-05 0)
(11.8751 9.1969e-06 0)
(11.8738 5.59968e-06 0)
(11.8733 1.1922e-06 0)
(11.8736 -4.16293e-06 0)
(11.8749 -1.05495e-05 0)
(11.8772 -1.815e-05 0)
(11.8806 -2.71548e-05 0)
(11.8853 -3.77614e-05 0)
(11.8914 -5.02018e-05 0)
(11.8991 -6.47692e-05 0)
(11.9086 -8.18264e-05 0)
(11.92 -0.000101777 0)
(11.9335 -0.000125131 0)
(11.9495 -0.000152179 0)
(11.968 -0.000184619 0)
(11.9898 -0.000219146 0)
(12.014 -0.000276513 0)
(12.0463 -0.000340863 0)
(12.0741 -0.000364407 0)
(12.0976 -0.00037263 0)
(12.1198 -0.000422377 0)
(12.1451 -0.000489976 0)
(12.1723 -0.00054961 0)
(12.2012 -0.000611347 0)
(12.2317 -0.000678105 0)
(12.2639 -0.000750903 0)
(12.2977 -0.000830639 0)
(12.3333 -0.00091834 0)
(12.3707 -0.00101531 0)
(12.41 -0.00112311 0)
(12.4514 -0.00124379 0)
(12.495 -0.00137997 0)
(12.541 -0.00153529 0)
(12.5897 -0.00171472 0)
(12.6416 -0.00192572 0)
(12.697 -0.00217904 0)
(12.7569 -0.00249478 0)
(12.8224 -0.00289759 0)
(12.8948 -0.00348982 0)
(12.9808 -0.00431591 0)
(13.0753 -0.00688824 0)
(13.2612 -0.0162188 0)
(13.4691 -0.0776893 0)
(21.6958 0.0339582 0)
(17.7876 0.00392045 0)
(16.6656 0.00138499 0)
(16.0817 0.000851368 0)
(15.7015 0.000612485 0)
(15.4286 0.000474304 0)
(15.2201 0.000386035 0)
(15.0537 0.000324897 0)
(14.9173 0.000279441 0)
(14.8034 0.000244143 0)
(14.707 0.000216047 0)
(14.6243 0.000193249 0)
(14.5528 0.000174431 0)
(14.4903 0.00015865 0)
(14.4354 0.000145221 0)
(14.3868 0.000133661 0)
(14.3436 0.000123634 0)
(14.305 0.000114885 0)
(14.2704 0.0001072 0)
(14.2392 0.000100393 0)
(14.2109 9.43126e-05 0)
(14.1854 8.88415e-05 0)
(14.1621 8.38984e-05 0)
(14.141 7.94244e-05 0)
(14.1216 7.53718e-05 0)
(14.1039 7.16959e-05 0)
(14.0876 6.83513e-05 0)
(14.0727 6.52929e-05 0)
(14.0589 6.24778e-05 0)
(14.0462 5.98679e-05 0)
(14.0345 5.74298e-05 0)
(14.0236 5.51352e-05 0)
(14.0136 5.29587e-05 0)
(14.0042 5.08758e-05 0)
(13.9956 4.88603e-05 0)
(13.9877 4.68825e-05 0)
(13.9803 4.49067e-05 0)
(13.9735 4.28893e-05 0)
(13.9673 4.07774e-05 0)
(13.9616 3.85064e-05 0)
(13.9564 3.59989e-05 0)
(13.9518 3.31625e-05 0)
(13.9478 2.98877e-05 0)
(13.9444 2.60463e-05 0)
(13.9415 2.1488e-05 0)
(13.9394 1.60376e-05 0)
(13.9381 9.4825e-06 0)
(13.9375 1.43849e-06 0)
(13.938 -8.34395e-06 0)
(13.9395 -2.00116e-05 0)
(13.9422 -3.38985e-05 0)
(13.9463 -5.03518e-05 0)
(13.9519 -6.97326e-05 0)
(13.9591 -9.24642e-05 0)
(13.9681 -0.000119082 0)
(13.9792 -0.000150249 0)
(13.9925 -0.000186704 0)
(14.0083 -0.000229385 0)
(14.027 -0.000278803 0)
(14.0487 -0.000338158 0)
(14.0741 -0.000400996 0)
(14.1024 -0.000506754 0)
(14.14 -0.000620403 0)
(14.1721 -0.000669364 0)
(14.2 -0.000690479 0)
(14.2261 -0.00077272 0)
(14.2555 -0.000894475 0)
(14.2872 -0.00100414 0)
(14.3208 -0.00111737 0)
(14.3563 -0.00123952 0)
(14.3938 -0.00137257 0)
(14.4332 -0.00151819 0)
(14.4746 -0.00167826 0)
(14.518 -0.00185514 0)
(14.5637 -0.00205162 0)
(14.6118 -0.00227142 0)
(14.6624 -0.00251922 0)
(14.7157 -0.00280154 0)
(14.7722 -0.00312724 0)
(14.8322 -0.00350961 0)
(14.8963 -0.00396767 0)
(14.9653 -0.00453713 0)
(15.0406 -0.0052603 0)
(15.1237 -0.0063206 0)
(15.2213 -0.00776389 0)
(15.329 -0.0121093 0)
(15.5229 -0.0241548 0)
(15.6774 -0.0733254 0)
(24.5626 0.0457889 0)
(20.1065 0.00658453 0)
(18.7662 0.00233517 0)
(18.0859 0.00140289 0)
(17.6507 0.00099782 0)
(17.3415 0.000768085 0)
(17.1067 0.000623013 0)
(16.9201 0.000523282 0)
(16.7676 0.000449484 0)
(16.6404 0.000392354 0)
(16.5329 0.000346978 0)
(16.4408 0.000310222 0)
(16.3612 0.000279923 0)
(16.2917 0.000254537 0)
(16.2306 0.000232951 0)
(16.1766 0.000214383 0)
(16.1286 0.000198284 0)
(16.0858 0.000184241 0)
(16.0473 0.000171909 0)
(16.0127 0.000160992 0)
(15.9814 0.000151242 0)
(15.953 0.000142472 0)
(15.9272 0.000134551 0)
(15.9037 0.000127382 0)
(15.8822 0.000120888 0)
(15.8625 0.000114997 0)
(15.8445 0.000109637 0)
(15.8279 0.000104736 0)
(15.8126 0.000100225 0)
(15.7985 9.60435e-05 0)
(15.7854 9.21379e-05 0)
(15.7734 8.84623e-05 0)
(15.7622 8.49754e-05 0)
(15.7519 8.16372e-05 0)
(15.7423 7.84054e-05 0)
(15.7334 7.52312e-05 0)
(15.7253 7.20565e-05 0)
(15.7177 6.88105e-05 0)
(15.7108 6.54067e-05 0)
(15.7045 6.17404e-05 0)
(15.6988 5.76852e-05 0)
(15.6937 5.30904e-05 0)
(15.6892 4.77776e-05 0)
(15.6854 4.15374e-05 0)
(15.6823 3.41249e-05 0)
(15.6799 2.52538e-05 0)
(15.6784 1.45773e-05 0)
(15.6779 1.46184e-06 0)
(15.6784 -1.45008e-05 0)
(15.6802 -3.35432e-05 0)
(15.6833 -5.62083e-05 0)
(15.6879 -8.30619e-05 0)
(15.6942 -0.000114694 0)
(15.7023 -0.000151794 0)
(15.7125 -0.000195234 0)
(15.7249 -0.000246095 0)
(15.7399 -0.000305583 0)
(15.7577 -0.00037523 0)
(15.7787 -0.000455863 0)
(15.8031 -0.000552736 0)
(15.8316 -0.000655174 0)
(15.8634 -0.000827775 0)
(15.9053 -0.00100747 0)
(15.941 -0.00109583 0)
(15.9726 -0.00114001 0)
(16.0023 -0.00126368 0)
(16.0353 -0.00145786 0)
(16.0707 -0.00163694 0)
(16.1084 -0.00182185 0)
(16.1481 -0.00202097 0)
(16.19 -0.00223761 0)
(16.234 -0.00247453 0)
(16.2802 -0.00273473 0)
(16.3288 -0.00302202 0)
(16.3798 -0.00334086 0)
(16.4334 -0.00369717 0)
(16.4897 -0.00409839 0)
(16.5491 -0.00455485 0)
(16.6118 -0.0050806 0)
(16.6784 -0.00569655 0)
(16.7494 -0.00643261 0)
(16.8256 -0.0073446 0)
(16.9087 -0.00849845 0)
(16.9999 -0.0101768 0)
(17.106 -0.0124332 0)
(17.223 -0.0188508 0)
(17.4179 -0.0328819 0)
(17.5333 -0.069097 0)
(27.157 0.0587746 0)
(22.2485 0.0102412 0)
(20.6822 0.00368346 0)
(19.9003 0.00216938 0)
(19.4082 0.00152553 0)
(19.0621 0.00116688 0)
(18.8012 0.000942915 0)
(18.5947 0.000790121 0)
(18.4264 0.000677649 0)
(18.2864 0.00059088 0)
(18.1683 0.000522134 0)
(18.0672 0.000466555 0)
(17.9798 0.000420805 0)
(17.9037 0.000382518 0)
(17.8368 0.000349993 0)
(17.7777 0.000322038 0)
(17.7251 0.000297814 0)
(17.6782 0.000276692 0)
(17.6361 0.000258152 0)
(17.5983 0.000241744 0)
(17.564 0.000227097 0)
(17.533 0.000213929 0)
(17.5047 0.000202038 0)
(17.479 0.000191278 0)
(17.4556 0.000181531 0)
(17.4341 0.000172689 0)
(17.4143 0.000164644 0)
(17.3962 0.000157288 0)
(17.3795 0.00015052 0)
(17.364 0.000144247 0)
(17.3498 0.000138388 0)
(17.3366 0.000132876 0)
(17.3244 0.000127646 0)
(17.3131 0.000122639 0)
(17.3026 0.000117789 0)
(17.2929 0.000113022 0)
(17.284 0.000108251 0)
(17.2757 0.000103368 0)
(17.2681 9.82408e-05 0)
(17.2612 9.27112e-05 0)
(17.255 8.65872e-05 0)
(17.2494 7.96401e-05 0)
(17.2445 7.15989e-05 0)
(17.2403 6.21454e-05 0)
(17.2369 5.09074e-05 0)
(17.2344 3.74503e-05 0)
(17.2327 2.12469e-05 0)
(17.2321 1.32958e-06 0)
(17.2327 -2.29289e-05 0)
(17.2347 -5.1877e-05 0)
(17.2381 -8.63313e-05 0)
(17.2431 -0.000127151 0)
(17.25 -0.000175232 0)
(17.2589 -0.000231623 0)
(17.2701 -0.000297643 0)
(17.2837 -0.000374931 0)
(17.3002 -0.000465317 0)
(17.3197 -0.000571126 0)
(17.3427 -0.000693627 0)
(17.3694 -0.000840715 0)
(17.4007 -0.000996503 0)
(17.4356 -0.00125721 0)
(17.4812 -0.00152153 0)
(17.5197 -0.00166738 0)
(17.5546 -0.00174983 0)
(17.5875 -0.00192563 0)
(17.6236 -0.00221212 0)
(17.6624 -0.00248305 0)
(17.7034 -0.00276343 0)
(17.7468 -0.00306501 0)
(17.7924 -0.00339276 0)
(17.8404 -0.00375089 0)
(17.8907 -0.00414382 0)
(17.9436 -0.00457722 0)
(17.999 -0.00505767 0)
(18.0572 -0.0055939 0)
(18.1184 -0.00619686 0)
(18.1827 -0.0068817 0)
(18.2506 -0.00766893 0)
(18.3225 -0.00858904 0)
(18.3991 -0.00968551 0)
(18.4811 -0.0110386 0)
(18.57 -0.0127447 0)
(18.6674 -0.0151987 0)
(18.7797 -0.0184761 0)
(18.9028 -0.0271674 0)
(19.0952 -0.0425382 0)
(19.1859 -0.0711716 0)
(29.5614 0.073049 0)
(24.2977 0.0151232 0)
(22.4961 0.0055655 0)
(21.6043 0.00322355 0)
(21.0511 0.00224121 0)
(20.6661 0.00170281 0)
(20.3779 0.00137023 0)
(20.151 0.0011451 0)
(19.9667 0.000980333 0)
(19.8138 0.000853716 0)
(19.6849 0.000753682 0)
(19.5749 0.000672981 0)
(19.4799 0.000606663 0)
(19.3971 0.000551236 0)
(19.3244 0.000504205 0)
(19.2603 0.000463819 0)
(19.2033 0.000428849 0)
(19.1524 0.000398374 0)
(19.1068 0.000371635 0)
(19.0657 0.000347982 0)
(19.0286 0.000326879 0)
(18.9949 0.000307917 0)
(18.9643 0.000290799 0)
(18.9365 0.000275314 0)
(18.911 0.000261287 0)
(18.8877 0.000248563 0)
(18.8664 0.000236986 0)
(18.8467 0.000226402 0)
(18.8286 0.000216665 0)
(18.8119 0.000207642 0)
(18.7964 0.000199219 0)
(18.7821 0.000191295 0)
(18.7689 0.000183778 0)
(18.7566 0.000176581 0)
(18.7453 0.000169609 0)
(18.7348 0.000162754 0)
(18.7251 0.000155888 0)
(18.7161 0.000148855 0)
(18.7079 0.000141466 0)
(18.7004 0.000133489 0)
(18.6936 0.000124648 0)
(18.6876 0.000114611 0)
(18.6822 0.000102985 0)
(18.6777 8.93102e-05 0)
(18.674 7.30464e-05 0)
(18.6712 5.3564e-05 0)
(18.6694 3.00995e-05 0)
(18.6688 1.25206e-06 0)
(18.6694 -3.39067e-05 0)
(18.6714 -7.58827e-05 0)
(18.6751 -0.000125838 0)
(18.6805 -0.000185017 0)
(18.6879 -0.00025472 0)
(18.6975 -0.000336462 0)
(18.7095 -0.000432147 0)
(18.7242 -0.000544142 0)
(18.7419 -0.000675091 0)
(18.7629 -0.000828349 0)
(18.7876 -0.0010058 0)
(18.8164 -0.00121861 0)
(18.8501 -0.00144478 0)
(18.8877 -0.00181864 0)
(18.9364 -0.00218874 0)
(18.9772 -0.002415 0)
(19.0149 -0.00255722 0)
(19.0508 -0.00279907 0)
(19.0897 -0.00320047 0)
(19.1312 -0.00358962 0)
(19.1753 -0.00399387 0)
(19.2217 -0.00442852 0)
(19.2706 -0.00490046 0)
(19.3219 -0.00541563 0)
(19.3757 -0.00598027 0)
(19.4322 -0.00660235 0)
(19.4913 -0.00729106 0)
(19.5534 -0.00805862 0)
(19.6185 -0.00892027 0)
(19.6869 -0.00989708 0)
(19.7589 -0.0110175 0)
(19.8351 -0.0123235 0)
(19.916 -0.0138751 0)
(20.0024 -0.0157814 0)
(20.0959 -0.0181764 0)
(20.1978 -0.0215766 0)
(20.3141 -0.0260988 0)
(20.4409 -0.0372167 0)
(20.6288 -0.0535903 0)
(20.706 -0.0818535 0)
(31.8166 0.0886886 0)
(26.3037 0.0215067 0)
(24.2589 0.00816358 0)
(23.2462 0.00466665 0)
(22.6258 0.00320843 0)
(22.1985 0.00242038 0)
(21.881 0.00193864 0)
(21.6324 0.00161515 0)
(21.4312 0.00137985 0)
(21.2648 0.00119984 0)
(21.1249 0.00105807 0)
(21.0055 0.000943977 0)
(20.9026 0.000850399 0)
(20.8131 0.000772308 0)
(20.7345 0.000706134 0)
(20.6652 0.000649373 0)
(20.6037 0.000600266 0)
(20.5488 0.000557498 0)
(20.4995 0.000519994 0)
(20.4552 0.000486838 0)
(20.4152 0.000457273 0)
(20.3789 0.000430723 0)
(20.346 0.000406767 0)
(20.316 0.0003851 0)
(20.2885 0.000365479 0)
(20.2634 0.00034768 0)
(20.2404 0.000331486 0)
(20.2192 0.000316684 0)
(20.1997 0.000303069 0)
(20.1817 0.000290458 0)
(20.165 0.000278688 0)
(20.1496 0.000267619 0)
(20.1353 0.000257122 0)
(20.1221 0.000247072 0)
(20.1099 0.000237336 0)
(20.0986 0.000227763 0)
(20.0881 0.000218172 0)
(20.0784 0.000208344 0)
(20.0696 0.000198013 0)
(20.0615 0.000186857 0)
(20.0541 0.000174486 0)
(20.0476 0.000160437 0)
(20.0418 0.000144159 0)
(20.0369 0.000125008 0)
(20.0329 0.000102228 0)
(20.0298 7.49353e-05 0)
(20.0279 4.20627e-05 0)
(20.0271 1.65992e-06 0)
(20.0276 -4.76138e-05 0)
(20.0297 -0.00010648 0)
(20.0335 -0.000176526 0)
(20.0392 -0.000259493 0)
(20.0471 -0.000357205 0)
(20.0572 -0.000471781 0)
(20.0699 -0.000605874 0)
(20.0855 -0.000762783 0)
(20.1043 -0.000946199 0)
(20.1266 -0.00116079 0)
(20.1529 -0.00140927 0)
(20.1834 -0.00170681 0)
(20.2191 -0.00202444 0)
(20.2591 -0.00254112 0)
(20.3104 -0.00304129 0)
(20.353 -0.00337623 0)
(20.3932 -0.00360725 0)
(20.4315 -0.00393389 0)
(20.4729 -0.00447651 0)
(20.5169 -0.00501493 0)
(20.5634 -0.00557693 0)
(20.6124 -0.00618131 0)
(20.664 -0.00683708 0)
(20.7181 -0.00755223 0)
(20.7748 -0.00833517 0)
(20.8342 -0.00919665 0)
(20.8964 -0.010149 0)
(20.9616 -0.0112088 0)
(21.0298 -0.0123962 0)
(21.1014 -0.0137396 0)
(21.1768 -0.0152767 0)
(21.2562 -0.0170633 0)
(21.3404 -0.019179 0)
(21.4301 -0.021766 0)
(21.5267 -0.0250039 0)
(21.6316 -0.0295351 0)
(21.7503 -0.0355425 0)
(21.8786 -0.0492109 0)
(22.0611 -0.0666078 0)
(22.1313 -0.100565 0)
(33.9392 0.105664 0)
(28.2969 0.0296978 0)
(26.0056 0.011716 0)
(24.8594 0.0066373 0)
(24.1638 0.00451461 0)
(23.6894 0.00338047 0)
(23.3395 0.00269389 0)
(23.0673 0.00223657 0)
(22.8479 0.00190613 0)
(22.667 0.00165457 0)
(22.5152 0.00145717 0)
(22.386 0.00129874 0)
(22.2748 0.00116908 0)
(22.1781 0.00106107 0)
(22.0934 0.000969682 0)
(22.0187 0.000891395 0)
(21.9524 0.000823733 0)
(21.8933 0.000764852 0)
(21.8403 0.000713251 0)
(21.7927 0.000667661 0)
(21.7496 0.00062704 0)
(21.7106 0.000590583 0)
(21.6752 0.000557707 0)
(21.6429 0.000527984 0)
(21.6135 0.000501071 0)
(21.5865 0.000476661 0)
(21.5617 0.000454454 0)
(21.5389 0.00043416 0)
(21.518 0.000415499 0)
(21.4986 0.00039822 0)
(21.4807 0.000382101 0)
(21.4642 0.000366948 0)
(21.4488 0.000352584 0)
(21.4346 0.000338835 0)
(21.4215 0.000325518 0)
(21.4093 0.000312425 0)
(21.398 0.000299307 0)
(21.3877 0.000285866 0)
(21.3781 0.000271738 0)
(21.3694 0.00025648 0)
(21.3615 0.000239561 0)
(21.3544 0.000220349 0)
(21.3481 0.000198091 0)
(21.3428 0.000171906 0)
(21.3384 0.000140763 0)
(21.3351 0.000103456 0)
(21.3329 5.85271e-05 0)
(21.3319 3.34717e-06 0)
(21.3324 -6.3989e-05 0)
(21.3345 -0.000144503 0)
(21.3384 -0.000240286 0)
(21.3443 -0.000353717 0)
(21.3524 -0.00048729 0)
(21.363 -0.000643889 0)
(21.3763 -0.000827122 0)
(21.3926 -0.00104146 0)
(21.4123 -0.00129193 0)
(21.4356 -0.00158484 0)
(21.4632 -0.00192404 0)
(21.4952 -0.00232943 0)
(21.5326 -0.00276446 0)
(21.5745 -0.00345888 0)
(21.6279 -0.00411712 0)
(21.672 -0.00459472 0)
(21.714 -0.00495217 0)
(21.7546 -0.00538886 0)
(21.798 -0.00610382 0)
(21.844 -0.00682805 0)
(21.8927 -0.00758787 0)
(21.9438 -0.00840553 0)
(21.9976 -0.00929227 0)
(22.0539 -0.0102584 0)
(22.1129 -0.0113149 0)
(22.1747 -0.0124757 0)
(22.2392 -0.0137571 0)
(22.3068 -0.0151805 0)
(22.3774 -0.0167722 0)
(22.4515 -0.018569 0)
(22.5292 -0.0206195 0)
(22.611 -0.0229957 0)
(22.6975 -0.0257999 0)
(22.7894 -0.0292116 0)
(22.888 -0.0334642 0)
(22.9946 -0.0393255 0)
(23.114 -0.0470743 0)
(23.2422 -0.0633916 0)
(23.4183 -0.0821542 0)
(23.4845 -0.125284 0)
(35.9299 0.123835 0)
(30.2953 0.0400128 0)
(27.7625 0.0165271 0)
(26.4697 0.009324 0)
(25.6891 0.0062801 0)
(25.1612 0.00466669 0)
(24.775 0.00369841 0)
(24.4763 0.00305856 0)
(24.2367 0.00259948 0)
(24.0399 0.00225189 0)
(23.8752 0.00198021 0)
(23.7353 0.00176283 0)
(23.6151 0.00158537 0)
(23.5107 0.00143784 0)
(23.4194 0.00131323 0)
(23.3389 0.00120665 0)
(23.2675 0.00111464 0)
(23.2039 0.00103464 0)
(23.1469 0.000964591 0)
(23.0957 0.000902749 0)
(23.0495 0.000847689 0)
(23.0076 0.000798313 0)
(22.9695 0.000753816 0)
(22.9349 0.000713602 0)
(22.9032 0.000677202 0)
(22.8743 0.000644192 0)
(22.8477 0.000614167 0)
(22.8232 0.000586732 0)
(22.8007 0.000561515 0)
(22.7799 0.000538175 0)
(22.7607 0.000516415 0)
(22.743 0.000495968 0)
(22.7265 0.000476596 0)
(22.7113 0.000458062 0)
(22.6971 0.000440119 0)
(22.684 0.000422482 0)
(22.6719 0.00040482 0)
(22.6608 0.000386729 0)
(22.6505 0.00036772 0)
(22.6411 0.000347202 0)
(22.6326 0.000324462 0)
(22.6249 0.000298652 0)
(22.6182 0.000268765 0)
(22.6124 0.000233622 0)
(22.6076 0.000191841 0)
(22.6039 0.000141808 0)
(22.6014 8.15733e-05 0)
(22.6002 7.68886e-06 0)
(22.6005 -8.25232e-05 0)
(22.6025 -0.000190503 0)
(22.6064 -0.000318927 0)
(22.6124 -0.000470977 0)
(22.6207 -0.000649994 0)
(22.6316 -0.000859829 0)
(22.6453 -0.00110528 0)
(22.6622 -0.00139229 0)
(22.6825 -0.00172755 0)
(22.7068 -0.00211943 0)
(22.7353 -0.00257323 0)
(22.7685 -0.00311445 0)
(22.8073 -0.00369847 0)
(22.8508 -0.00461145 0)
(22.9058 -0.00546036 0)
(22.9509 -0.00612054 0)
(22.9944 -0.00665122 0)
(23.0366 -0.00723161 0)
(23.0817 -0.00815613 0)
(23.1294 -0.00910929 0)
(23.1797 -0.0101141 0)
(23.2325 -0.0111963 0)
(23.2879 -0.0123695 0)
(23.346 -0.0136467 0)
(23.4067 -0.0150416 0)
(23.4702 -0.0165722 0)
(23.5365 -0.0182589 0)
(23.6057 -0.0201291 0)
(23.6781 -0.0222162 0)
(23.7537 -0.0245666 0)
(23.833 -0.0272419 0)
(23.9163 -0.0303321 0)
(24.0042 -0.0339657 0)
(24.0972 -0.0383636 0)
(24.1967 -0.0438212 0)
(24.3038 -0.0512244 0)
(24.4227 -0.0609847 0)
(24.5493 -0.0800196 0)
(24.7182 -0.100732 0)
(24.7806 -0.153791 0)
(37.7771 0.142927 0)
(32.3055 0.0527424 0)
(29.5499 0.0229741 0)
(28.0981 0.0129806 0)
(27.2212 0.00867065 0)
(26.6322 0.00639446 0)
(26.2044 0.00503803 0)
(25.8756 0.0041484 0)
(25.6133 0.00351472 0)
(25.3986 0.00303773 0)
(25.2195 0.00266655 0)
(25.0677 0.00237057 0)
(24.9376 0.0021296 0)
(24.8247 0.00192975 0)
(24.7261 0.00176128 0)
(24.6393 0.00161743 0)
(24.5624 0.00149341 0)
(24.4939 0.00138571 0)
(24.4326 0.00129149 0)
(24.3775 0.00120838 0)
(24.3278 0.00113445 0)
(24.2827 0.00106821 0)
(24.2419 0.00100857 0)
(24.2046 0.00095469 0)
(24.1706 0.000905939 0)
(24.1395 0.00086174 0)
(24.111 0.000821546 0)
(24.0847 0.00078483 0)
(24.0605 0.000751094 0)
(24.0382 0.000719887 0)
(24.0176 0.000690808 0)
(23.9985 0.000663503 0)
(23.9808 0.00063765 0)
(23.9644 0.000612933 0)
(23.9493 0.000589017 0)
(23.9352 0.000565527 0)
(23.9222 0.00054202 0)
(23.9102 0.000517961 0)
(23.8991 0.000492704 0)
(23.889 0.000465468 0)
(23.8798 0.000435314 0)
(23.8715 0.000401121 0)
(23.8642 0.000361567 0)
(23.8579 0.000315093 0)
(23.8526 0.000259881 0)
(23.8485 0.000193806 0)
(23.8456 0.000114304 0)
(23.8441 1.69615e-05 0)
(23.8442 -0.000101952 0)
(23.846 -0.000244467 0)
(23.8498 -0.000413908 0)
(23.8558 -0.000614466 0)
(23.8641 -0.00085054 0)
(23.8752 -0.00112719 0)
(23.8891 -0.00145069 0)
(23.9064 -0.00182879 0)
(23.9272 -0.00227026 0)
(23.952 -0.00278597 0)
(23.9813 -0.00338317 0)
(24.0154 -0.00409375 0)
(24.0551 -0.00486494 0)
(24.0999 -0.00604386 0)
(24.156 -0.00712181 0)
(24.2016 -0.00801049 0)
(24.2462 -0.00877061 0)
(24.2897 -0.0095385 0)
(24.336 -0.0107174 0)
(24.3849 -0.0119505 0)
(24.4364 -0.0132555 0)
(24.4904 -0.0146622 0)
(24.547 -0.0161868 0)
(24.6062 -0.0178451 0)
(24.6681 -0.0196542 0)
(24.7327 -0.0216363 0)
(24.8 -0.023817 0)
(24.8703 -0.0262302 0)
(24.9437 -0.0289176 0)
(25.0203 -0.0319367 0)
(25.1004 -0.0353636 0)
(25.1843 -0.039309 0)
(25.2726 -0.0439308 0)
(25.366 -0.0494947 0)
(25.4654 -0.0563659 0)
(25.5719 -0.0655343 0)
(25.689 -0.0775837 0)
(25.8129 -0.0993695 0)
(25.9733 -0.122742 0)
(26.0315 -0.184342 0)
(39.4592 0.16249 0)
(34.3227 0.0680901 0)
(31.3826 0.0315032 0)
(29.763 0.0179431 0)
(28.7778 0.0119136 0)
(28.1185 0.00872345 0)
(27.6427 0.00683138 0)
(27.2793 0.00559868 0)
(26.9909 0.00472692 0)
(26.7558 0.00407477 0)
(26.5603 0.00356967 0)
(26.3952 0.00316842 0)
(26.2538 0.00284274 0)
(26.1315 0.00257333 0)
(26.0247 0.00234674 0)
(25.9308 0.00215363 0)
(25.8478 0.00198743 0)
(25.7738 0.00184327 0)
(25.7077 0.00171729 0)
(25.6483 0.00160627 0)
(25.5948 0.00150763 0)
(25.5463 0.00141934 0)
(25.5022 0.00133989 0)
(25.4622 0.00126819 0)
(25.4256 0.00120333 0)
(25.3921 0.00114455 0)
(25.3614 0.00109111 0)
(25.3332 0.00104231 0)
(25.3071 0.000997494 0)
(25.2831 0.000956059 0)
(25.261 0.000917476 0)
(25.2404 0.000881277 0)
(25.2214 0.00084703 0)
(25.2038 0.000814316 0)
(25.1874 0.000782692 0)
(25.1723 0.000751662 0)
(25.1583 0.000720643 0)
(25.1453 0.000688937 0)
(25.1334 0.000655699 0)
(25.1225 0.000619911 0)
(25.1125 0.00058035 0)
(25.1035 0.000535561 0)
(25.0956 0.000483819 0)
(25.0886 0.000423103 0)
(25.0828 0.000351049 0)
(25.0782 0.000264897 0)
(25.0749 0.000161322 0)
(25.073 3.4812e-05 0)
(25.0727 -0.000119798 0)
(25.0743 -0.000305371 0)
(25.0778 -0.00052592 0)
(25.0836 -0.000786886 0)
(25.0919 -0.00109398 0)
(25.1029 -0.00145375 0)
(25.117 -0.00187429 0)
(25.1344 -0.00236557 0)
(25.1555 -0.00293889 0)
(25.1806 -0.00360819 0)
(25.2103 -0.00438319 0)
(25.2449 -0.00530304 0)
(25.2853 -0.00630713 0)
(25.3309 -0.00780649 0)
(25.3875 -0.00915933 0)
(25.4335 -0.0103285 0)
(25.4785 -0.0113834 0)
(25.5228 -0.0123944 0)
(25.5699 -0.0138812 0)
(25.6196 -0.0154549 0)
(25.6718 -0.0171248 0)
(25.7265 -0.018926 0)
(25.7838 -0.0208774 0)
(25.8436 -0.0229981 0)
(25.9061 -0.0253088 0)
(25.9712 -0.0278369 0)
(26.0391 -0.0306134 0)
(26.1098 -0.0336802 0)
(26.1834 -0.0370881 0)
(26.2602 -0.0409071 0)
(26.3404 -0.0452297 0)
(26.4243 -0.0501896 0)
(26.5123 -0.0559775 0)
(26.6051 -0.0629059 0)
(26.7035 -0.0714161 0)
(26.8084 -0.0825819 0)
(26.9227 -0.0971925 0)
(27.0428 -0.121724 0)
(27.1936 -0.14844 0)
(27.2468 -0.215842 0)
(40.9464 0.181862 0)
(36.3286 0.0860764 0)
(33.2689 0.0426039 0)
(31.4806 0.0246446 0)
(30.3754 0.0163181 0)
(29.6354 0.0118745 0)
(29.1039 0.0092431 0)
(28.7003 0.00753763 0)
(28.3816 0.00633969 0)
(28.123 0.00544913 0)
(27.9086 0.00476283 0)
(27.7281 0.0042198 0)
(27.5739 0.00378052 0)
(27.4407 0.00341818 0)
(27.3247 0.00311421 0)
(27.2228 0.00285571 0)
(27.1328 0.00263363 0)
(27.0527 0.00244129 0)
(26.9812 0.0022734 0)
(26.9169 0.00212565 0)
(26.859 0.00199451 0)
(26.8066 0.00187726 0)
(26.7591 0.00177187 0)
(26.7158 0.00167682 0)
(26.6764 0.0015909 0)
(26.6402 0.00151306 0)
(26.6071 0.00144232 0)
(26.5766 0.00137775 0)
(26.5486 0.00131847 0)
(26.5227 0.0012637 0)
(26.4987 0.00121275 0)
(26.4766 0.00116499 0)
(26.4561 0.00111985 0)
(26.4371 0.00107677 0)
(26.4194 0.00103518 0)
(26.4031 0.000994432 0)
(26.3879 0.000953757 0)
(26.3739 0.000912254 0)
(26.361 0.000868833 0)
(26.3492 0.00082218 0)
(26.3383 0.000770721 0)
(26.3286 0.000712584 0)
(26.3199 0.000645553 0)
(26.3122 0.00056703 0)
(26.3058 0.00047398 0)
(26.3006 0.000362864 0)
(26.2967 0.000229423 0)
(26.2944 6.69365e-05 0)