# vtk DataFile Version 2.0
track0
ASCII
DATASET POLYDATA
POINTS 12040 float
-0.0205 0.001 1e-05
-0.02052 0.000999985 1e-05
-0.02054 0.000999974 1e-05
-0.02056 0.000999965 1e-05
-0.02058 0.000999959 1e-05
-0.0206 0.000999956 1e-05
-0.0205 0.00367778 1e-05
-0.02052 0.00367778 1e-05
-0.02054 0.00367777 1e-05
-0.02056 0.00367777 1e-05
-0.02058 0.00367777 1e-05
-0.0206 0.00367777 1e-05
-0.0205 0.00635556 1e-05
-0.02052 0.00635555 1e-05
-0.02054 0.00635555 1e-05
-0.02056 0.00635555 1e-05
-0.02058 0.00635555 1e-05
-0.0206 0.00635555 1e-05
-0.0205 0.00903333 1e-05
-0.02052 0.00903333 1e-05
-0.02054 0.00903333 1e-05
-0.02056 0.00903333 1e-05
-0.02058 0.00903333 1e-05
-0.0206 0.00903333 1e-05
-0.0205 0.0117111 1e-05
-0.02052 0.0117111 1e-05
-0.02054 0.0117111 1e-05
-0.02056 0.0117111 1e-05
-0.02058 0.0117111 1e-05
-0.0206 0.0117111 1e-05
-0.0205 0.0143889 1e-05
-0.02052 0.0143889 1e-05
-0.02054 0.0143889 1e-05
-0.02056 0.0143889 1e-05
-0.02058 0.0143889 1e-05
-0.0206 0.0143889 1e-05
-0.0205 0.0170667 1e-05
-0.02052 0.0170667 1e-05
-0.02054 0.0170667 1e-05
-0.02056 0.0170667 1e-05
-0.02058 0.0170667 1e-05
-0.0206 0.0170667 1e-05
-0.0205 0.0197444 1e-05
-0.02052 0.0197444 1e-05
-0.02054 0.0197444 1e-05
-0.02056 0.0197444 1e-05
-0.02058 0.0197444 1e-05
-0.0206 0.0197444 1e-05
-0.0205 0.0224222 1e-05
-0.02052 0.0224222 1e-05
-0.02054 0.0224222 1e-05
-0.02056 0.0224222 1e-05
-0.02058 0.0224222 1e-05
-0.0206 0.0224222 1e-05
-0.0205 0.0251 1e-05
-0.02052 0.0250998 1e-05
-0.02054 0.0250997 1e-05
-0.02056 0.0250995 1e-05
-0.02058 0.0250995 1e-05
-0.0206 0.0250994 1e-05
-0.0205 0.001 1e-05
-0.0202034 0.00100022 1e-05
-0.0199069 0.00100067 1e-05
-0.0196103 0.00100133 1e-05
-0.0193137 0.00100219 1e-05
-0.0190172 0.00100326 1e-05
-0.0187132 0.00100467 1e-05
-0.0184093 0.00100589 1e-05
-0.0181054 0.00100711 1e-05
-0.0178015 0.00100832 1e-05
-0.0174976 0.00100954 1e-05
-0.0172058 0.00101083 1e-05
-0.016914 0.00101193 1e-05
-0.0166222 0.00101303 1e-05
-0.0163305 0.00101413 1e-05
-0.0160387 0.00101523 1e-05
-0.0157586 0.00101637 1e-05
-0.0154784 0.00101745 1e-05
-0.0151983 0.00101856 1e-05
-0.0149182 0.00101972 1e-05
-0.0146381 0.0010209 1e-05
-0.0143745 0.00102209 1e-05
-0.014111 0.00102327 1e-05
-0.0138475 0.00102449 1e-05
-0.0135839 0.00102574 1e-05
-0.0133614 0.00102682 1e-05
-0.0133478 0.00102688 1e-05
-0.0133342 0.00102695 1e-05
-0.0133206 0.00102702 1e-05
-0.013307 0.00102709 1e-05
-0.0132934 0.00102715 1e-05
-0.0130353 0.00102844 1e-05
-0.0127771 0.00102974 1e-05
-0.0125189 0.00103106 1e-05
-0.0122607 0.0010324 1e-05
-0.0120025 0.00103375 1e-05
-0.0117547 0.00103506 1e-05
-0.0115068 0.00103637 1e-05
-0.0112589 0.00103769 1e-05
-0.0110111 0.00103902 1e-05
-0.0107632 0.00104035 1e-05
-0.0105252 0.00104162 1e-05
-0.0102873 0.0010429 1e-05
-0.0100493 0.00104418 1e-05
-0.00981133 0.00104546 1e-05
-0.00957337 0.00104673 1e-05
-0.00934491 0.00104795 1e-05
-0.00911645 0.00104918 1e-05
-0.00888799 0.00105039 1e-05
-0.00865954 0.00105161 1e-05
-0.00843108 0.00105282 1e-05
-0.00821175 0.00105398 1e-05
-0.00799242 0.00105514 1e-05
-0.00777309 0.00105629 1e-05
-0.00755376 0.00105744 1e-05
-0.00733443 0.00105859 1e-05
-0.00712387 0.00105968 1e-05
-0.0069133 0.00106077 1e-05
-0.00670273 0.00106185 1e-05
-0.00649216 0.00106293 1e-05
-0.0062816 0.00106401 1e-05
-0.00607944 0.00106504 1e-05
-0.00587729 0.00106606 1e-05
-0.00567514 0.00106708 1e-05
-0.00547298 0.0010681 1e-05
-0.00527083 0.00106911 1e-05
-0.00507675 0.00107008 1e-05
-0.00488267 0.00107104 1e-05
-0.0046886 0.001072 1e-05
-0.00449452 0.00107296 1e-05
-0.00430044 0.00107391 1e-05
-0.00411412 0.00107481 1e-05
-0.0039278 0.00107572 1e-05
-0.00374147 0.00107663 1e-05
-0.00355515 0.00107753 1e-05
-0.00336883 0.00107842 1e-05
-0.00318995 0.00107928 1e-05
-0.00301107 0.00108013 1e-05
-0.00283219 0.00108098 1e-05
-0.00265331 0.00108183 1e-05
-0.00247443 0.00108268 1e-05
-0.0023027 0.00108349 1e-05
-0.00213097 0.0010843 1e-05
-0.00195924 0.00108511 1e-05
-0.0017875 0.00108591 1e-05
-0.00161577 0.00108672 1e-05
-0.0014509 0.00108749 1e-05
-0.00128603 0.00108825 1e-05
-0.00112116 0.00108902 1e-05
-0.000956289 0.00108979 1e-05
-0.000791418 0.00109057 1e-05
-0.000633135 0.0010913 1e-05
-0.000474851 0.00109204 1e-05
-0.000316567 0.00109278 1e-05
-0.000158284 0.00109352 1e-05
0 0.00109426 1e-05
0.000105677 0.00109475 1e-05
0.000211355 0.00109524 1e-05
0.000317032 0.00109573 1e-05
0.00042271 0.00109621 1e-05
0.000528387 0.00109669 1e-05
0.000634886 0.00109717 1e-05
0.000741385 0.00109765 1e-05
0.000847885 0.00109813 1e-05
0.000954384 0.0010986 1e-05
0.00106088 0.00109907 1e-05
0.00116821 0.00109953 1e-05
0.00127554 0.00109999 1e-05
0.00138286 0.00110045 1e-05
0.00149019 0.0011009 1e-05
0.00159752 0.00110134 1e-05
0.00170568 0.00110178 1e-05
0.00181384 0.00110222 1e-05
0.001922 0.00110264 1e-05
0.00203016 0.00110306 1e-05
0.00213833 0.00110347 1e-05
0.00224733 0.00110387 1e-05
0.00235633 0.00110427 1e-05
0.00246533 0.00110465 1e-05
0.00257434 0.00110503 1e-05
0.00268334 0.0011054 1e-05
0.00279319 0.00110576 1e-05
0.00290304 0.00110612 1e-05
0.00301289 0.00110647 1e-05
0.00312274 0.00110681 1e-05
0.00323259 0.00110714 1e-05
0.00334329 0.00110747 1e-05
0.003454 0.00110779 1e-05
0.0035647 0.0011081 1e-05
0.0036754 0.00110841 1e-05
0.00378611 0.0011087 1e-05
0.00389767 0.00110899 1e-05
0.00400924 0.00110928 1e-05
0.0041208 0.00110955 1e-05
0.00423237 0.00110982 1e-05
0.00434393 0.00111008 1e-05
0.00445636 0.00111033 1e-05
0.00456879 0.00111058 1e-05
0.00468123 0.00111082 1e-05
0.00479366 0.00111105 1e-05
0.00490609 0.00111128 1e-05
0.0050194 0.00111149 1e-05
0.0051327 0.0011117 1e-05
0.00524601 0.0011119 1e-05
0.00535932 0.0011121 1e-05
0.00547262 0.00111228 1e-05
0.00558681 0.00111246 1e-05
0.005701 0.00111263 1e-05
0.00581518 0.0011128 1e-05
0.00592937 0.00111296 1e-05
0.00604356 0.00111311 1e-05
0.00615863 0.00111325 1e-05
0.00627371 0.00111338 1e-05
0.00638878 0.00111351 1e-05
0.00650386 0.00111363 1e-05
0.00661893 0.00111375 1e-05
0.0067349 0.00111385 1e-05
0.00685087 0.00111395 1e-05
0.00696684 0.00111404 1e-05
0.00708281 0.00111412 1e-05
0.00719878 0.0011142 1e-05
0.00728917 0.00111425 1e-05
0.00737956 0.0011143 1e-05
0.00746996 0.00111434 1e-05
0.00756035 0.00111438 1e-05
0.00764687 0.00111442 1e-05
0.00767412 0.00111443 1e-05
0.00770138 0.00111443 1e-05
0.00772863 0.00111444 1e-05
0.00775588 0.00111445 1e-05
0.00778313 0.00111446 1e-05
0.00790091 0.00111449 1e-05
0.00801869 0.00111451 1e-05
0.00813647 0.00111452 1e-05
0.00825425 0.00111453 1e-05
0.00837203 0.00111453 1e-05
0.00849073 0.00111452 1e-05
0.00860942 0.0011145 1e-05
0.00872812 0.00111447 1e-05
0.00884682 0.00111444 1e-05
0.00896551 0.0011144 1e-05
0.00908513 0.00111434 1e-05
0.00920475 0.00111428 1e-05
0.00932437 0.00111422 1e-05
0.00944398 0.00111414 1e-05
0.0095636 0.00111406 1e-05
0.00968415 0.00111396 1e-05
0.0098047 0.00111386 1e-05
0.00992525 0.00111375 1e-05
0.0100458 0.00111364 1e-05
0.0101663 0.00111351 1e-05
0.0102878 0.00111337 1e-05
0.0104093 0.00111322 1e-05
0.0105308 0.00111307 1e-05
0.0106523 0.00111291 1e-05
0.0107738 0.00111275 1e-05
0.0108962 0.00111255 1e-05
0.0110186 0.00111237 1e-05
0.0111411 0.00111217 1e-05
0.0112635 0.00111197 1e-05
0.0113859 0.00111176 1e-05
0.0115093 0.00111152 1e-05
0.0116327 0.00111129 1e-05
0.0117561 0.00111105 1e-05
0.0118795 0.0011108 1e-05
0.0120028 0.00111054 1e-05
0.0121272 0.00111026 1e-05
0.0122515 0.00110998 1e-05
0.0123759 0.00110969 1e-05
0.0125002 0.00110939 1e-05
0.0126245 0.00110909 1e-05
0.0127498 0.00110876 1e-05
0.0128752 0.00110843 1e-05
0.0130005 0.0011081 1e-05
0.0131258 0.00110776 1e-05
0.0132511 0.0011074 1e-05
0.0133774 0.00110703 1e-05
0.0135036 0.00110665 1e-05
0.0136299 0.00110627 1e-05
0.0137562 0.00110587 1e-05
0.0138825 0.00110547 1e-05
0.0140098 0.00110505 1e-05
0.014137 0.00110462 1e-05
0.0142643 0.00110419 1e-05
0.0143915 0.00110374 1e-05
0.0145188 0.00110329 1e-05
0.0146471 0.00110282 1e-05
0.0147753 0.00110234 1e-05
0.0149036 0.00110186 1e-05
0.0150318 0.00110136 1e-05
0.0151601 0.00110086 1e-05
0.0152893 0.00110034 1e-05
0.0154186 0.00109981 1e-05
0.0155478 0.00109927 1e-05
0.0156771 0.00109872 1e-05
0.0158063 0.00109817 1e-05
0.0159366 0.0010976 1e-05
0.0160668 0.00109702 1e-05
0.0161971 0.00109643 1e-05
0.0163274 0.00109583 1e-05
0.0164576 0.00109522 1e-05
0.0165889 0.0010946 1e-05
0.0167201 0.00109397 1e-05
0.0168514 0.00109332 1e-05
0.0169827 0.00109267 1e-05
0.0171139 0.00109201 1e-05
0.0172462 0.00109134 1e-05
0.0173785 0.00109065 1e-05
0.0175108 0.00108996 1e-05
0.0176431 0.00108925 1e-05
0.0177754 0.00108854 1e-05
0.0179087 0.00108782 1e-05
0.018042 0.00108708 1e-05
0.0181753 0.00108633 1e-05
0.0183087 0.00108557 1e-05
0.018442 0.00108481 1e-05
0.0185763 0.00108404 1e-05
0.0187107 0.00108325 1e-05
0.018845 0.00108244 1e-05
0.0189794 0.00108162 1e-05
0.0191137 0.00108081 1e-05
0.0192491 0.00107999 1e-05
0.0193845 0.00107915 1e-05
0.0195199 0.00107829 1e-05
0.0196553 0.00107741 1e-05
0.0197907 0.00107654 1e-05
0.0199272 0.00107567 1e-05
0.0200636 0.00107478 1e-05
0.0202001 0.00107386 1e-05
0.0203365 0.00107294 1e-05
0.020473 0.00107202 1e-05
0.0206105 0.00107109 1e-05
0.020748 0.00107015 1e-05
0.0208855 0.00106918 1e-05
0.021023 0.0010682 1e-05
0.0211606 0.00106722 1e-05
0.0212991 0.00106625 1e-05
0.0214377 0.00106525 1e-05
0.0215763 0.00106422 1e-05
0.0217149 0.00106319 1e-05
0.0218535 0.00106216 1e-05
0.0219931 0.00106114 1e-05
0.0221328 0.00106008 1e-05
0.0222724 0.00105901 1e-05
0.0224121 0.00105792 1e-05
0.0225517 0.00105684 1e-05
0.0226925 0.00105576 1e-05
0.0228332 0.00105465 1e-05
0.022974 0.00105352 1e-05
0.0231147 0.00105238 1e-05
0.0232555 0.00105124 1e-05
0.0233973 0.00105011 1e-05
0.0235391 0.00104895 1e-05
0.023681 0.00104776 1e-05
0.0238228 0.00104656 1e-05
0.0239647 0.00104537 1e-05
0.0241076 0.00104419 1e-05
0.0242505 0.00104297 1e-05
0.0243935 0.00104172 1e-05
0.0245364 0.00104047 1e-05
0.0246794 0.00103923 1e-05
0.0248234 0.00103799 1e-05
0.0249675 0.00103672 1e-05
0.0251115 0.00103542 1e-05
0.0252556 0.00103411 1e-05
[...]
POINT_DATA 12040
 FIELD attributes 2
p 1 12040 float
-4.47972 -4.47641 -4.4731 -4.46979 -4.46649 -4.46318
-4.63277 -4.63275 -4.63272 -4.6327 -4.63268 -4.63266
-4.80664 -4.80652 -4.8064 -4.80627 -4.80615 -4.80604
-4.89974 -4.89968 -4.89963 -4.89958 -4.89952 -4.89947
-4.94462 -4.9445 -4.94439 -4.94428 -4.94417 -4.94405
-4.951 -4.95084 -4.95068 -4.95052 -4.95036 -4.9502
-4.92397 -4.9239 -4.92383 -4.92376 -4.92369 -4.92362
-4.85436 -4.85432 -4.85428 -4.85424 -4.8542 -4.85416
-4.73311 -4.73312 -4.73312 -4.73313 -4.73314 -4.73314
-2.5206 -2.53993 -2.55912 -2.57818 -2.59711 -2.61591
-4.47972 -4.47905 -4.47548 -4.47184 -4.46812 -4.45985 -4.47377 -4.4888 -4.50384 -4.51887 -4.54334 -4.56513 -4.59508 -4.62503 -4.65498 -4.68774 -4.70342 -4.72513 -4.74685 -4.76857 -4.79191 -4.81081 -4.83173 -4.85265 -4.87357 -4.89125 -4.89232 -4.8934 -4.89447 -4.89555 -4.89662 -4.9183 -4.93997 -4.96165 -4.98332 -5.00473 -5.02351 -5.04209 -5.06068 -5.07927 -5.09728 -5.11292 -5.12828 -5.14365 -5.15901 -5.17382 -5.18761 -5.20115 -5.2147 -5.22824 -5.24134 -5.25406 -5.26652 -5.27898 -5.29145 -5.30348 -5.31529 -5.3268 -5.33831 -5.34982 -5.3609 -5.37188 -5.38257 -5.39327 -5.40396 -5.4143 -5.42463 -5.43469 -5.44474 -5.4548 -5.46453 -5.47434 -5.48394 -5.49355 -5.50315 -5.51255 -5.52201 -5.53117 -5.54033 -5.54949 -5.55845 -5.56766 -5.57699 -5.58632 -5.59565 -5.60517 -5.61492 -5.62438 -5.63383 -5.64328 -5.65264 -5.66265 -5.67369 -5.68472 -5.69576 -5.70719 -5.71773 -5.72933 -5.74093 -5.75254 -5.76372 -5.77387 -5.78363 -5.79339 -5.80315 -5.81198 -5.8196 -5.82812 -5.83663 -5.84515 -5.85431 -5.86262 -5.87129 -5.87996 -5.88863 -5.89738 -5.90565 -5.9129 -5.92014 -5.92738 -5.93373 -5.94059 -5.94615 -5.9517 -5.95725 -5.96172 -5.96746 -5.97215 -5.97683 -5.98151 -5.98523 -5.99016 -5.99419 -5.99822 -6.00225 -6.00546 -6.00943 -6.01265 -6.01587 -6.01908 -6.02171 -6.02469 -6.02712 -6.02956 -6.03199 -6.03406 -6.03633 -6.03825 -6.04017 -6.0421 -6.04383 -6.04576 -6.04748 -6.0492 -6.05092 -6.05255 -6.0543 -6.05592 -6.05755 -6.05917 -6.06076 -6.062 -6.06319 -6.06438 -6.06557 -6.06671 -6.06707 -6.06742 -6.06778 -6.06814 -6.06853 -6.06999 -6.07148 -6.07298 -6.07447 -6.07614 -6.07743 -6.07893 -6.08043 -6.08193 -6.08384 -6.08493 -6.08649 -6.08804 -6.08959 -6.09185 -6.09275 -6.09442 -6.09608 -6.09775 -6.10049 -6.10121 -6.103 -6.10479 -6.10659 -6.1098 -6.1103 -6.11219 -6.11408 -6.11597 -6.11962 -6.11993 -6.12192 -6.12392 -6.12592 -6.13003 -6.1302 -6.13233 -6.13447 -6.1366 -6.14112 -6.14121 -6.14348 -6.14575 -6.14803 -6.15291 -6.15294 -6.15535 -6.15775 -6.16016 -6.16535 -6.16538 -6.16792 -6.17046 -6.17314 -6.17845 -6.17876 -6.18122 -6.1839 -6.18698 -6.19222 -6.19288 -6.19525 -6.19807 -6.20151 -6.20668 -6.20768 -6.21002 -6.21297 -6.21673 -6.2218 -6.22316 -6.22549 -6.22858 -6.2326 -6.23758 -6.23928 -6.24165 -6.24488 -6.24911 -6.254 -6.25603 -6.25847 -6.26183 -6.26624 -6.27105 -6.27338 -6.27594 -6.27942 -6.28397 -6.28871 -6.29133 -6.29401 -6.29763 -6.30228 -6.30697 -6.30985 -6.31274 -6.31649 -6.32114 -6.3258 -6.32893 -6.33206 -6.33594 -6.34057 -6.34521 -6.34858 -6.35196 -6.35595 -6.36057 -6.36519 -6.3688 -6.3724 -6.3765 -6.38109 -6.38568 -6.38949 -6.3933 -6.39747 -6.40203 -6.40658 -6.41055 -6.41452 -6.41877 -6.4233 -6.42783 -6.43192 -6.43601 -6.44033 -6.44488 -6.44942 -6.45362 -6.45782 -6.46222 -6.46678 -6.47135 -6.47564 -6.47995 -6.48441 -6.48898 -6.49358 -6.49793 -6.50233 -6.50683 -6.51142 -6.51605 -6.52045 -6.52491 -6.52945 -6.53405 -6.53871 -6.54315 -6.54767 -6.55225 -6.55686 -6.56155 -6.56601 -6.57058 -6.57518 -6.5798 -6.58451 -6.58898 -6.59358 -6.5982 -6.60282 -6.60753 -6.61201 -6.61662 -6.62124 -6.62586 -6.63055 -6.63505 -6.63965 -6.64426 -6.64886 -6.65353 -6.65802 -6.6626 -6.66718 -6.67177 -6.67639 -6.68087 -6.68541 -6.68996 -6.69451 -6.69908 -6.70353 -6.70802 -6.71251 -6.71701 -6.72152 -6.72592 -6.73034 -6.73477 -6.73919 -6.74362 -6.74462 -6.74562 -6.74662 -6.74762 -6.74861 -6.75196 -6.75531 -6.75866 -6.76201 -6.76536 -6.76961 -6.77387 -6.77812 -6.78237 -6.78664 -6.79078 -6.79492 -6.79905 -6.80319 -6.80735 -6.81138 -6.81539 -6.8194 -6.82341 -6.82744 -6.83133 -6.83519 -6.83905 -6.84291 -6.84676 -6.85051 -6.85418 -6.85786 -6.86153 -6.8652 -6.86877 -6.87225 -6.87573 -6.8792 -6.88265 -6.88603 -6.88932 -6.89258 -6.89582 -6.89904 -6.90219 -6.90528 -6.90829 -6.91127 -6.91422 -6.91712 -6.91998 -6.92273 -6.9254 -6.92806 -6.93069 -6.93331 -6.93575 -6.93809 -6.94043 -6.94275 -6.94508 -6.94721 -6.9492 -6.95119 -6.95318 -6.95517 -6.95697 -6.95858 -6.9602 -6.96183 -6.96346 -6.9649 -6.96611 -6.96732 -6.96856 -6.96981 -6.97086 -6.97164 -6.97241 -6.97323 -6.97404 -6.97465 -6.975 -6.97532 -6.97568 -6.97599 -6.97612 -6.97606 -6.97588 -6.97576 -6.97551 -6.97514 -6.97465 -6.97394 -6.97331 -6.97247 -6.97156 -6.97062 -6.96936 -6.96818 -6.96669 -6.96522 -6.96374 -6.96195 -6.96011 -6.95803 -6.95595 -6.95387 -6.95158 -6.94903 -6.94632 -6.9436 -6.94089 -6.93808 -6.93503 -6.9319 -6.92877 -6.92565 -6.92271 -6.92243 -6.92214 -6.92186 -6.92157 -6.92128 -6.91727 -6.91324 -6.90922 -6.9052 -6.90105 -6.89647 -6.89172 -6.88697 -6.88223 -6.87721 -6.87203 -6.86653 -6.86103 -6.85553 -6.84959 -6.84382 -6.83752 -6.83124 -6.82486 -6.81805 -6.81147 -6.80455 -6.79745 -6.79008 -6.78243 -6.77503 -6.76746 -6.75951 -6.75111 -6.74259 -6.73432 -6.72606 -6.71721 -6.70779 -6.69838 -6.68922 -6.68007 -6.67033 -6.65999 -6.64965 -6.63958 -6.62951 -6.61885 -6.60756 -6.59628 -6.58527 -6.57418 -6.56251 -6.55039 -6.53814 -6.52616 -6.51386 -6.50121 -6.48834 -6.4751 -6.46213 -6.44857 -6.43491 -6.42125 -6.40703 -6.3929 -6.3782 -6.3635 -6.34881 -6.33382 -6.31837 -6.30261 -6.28686 -6.27112 -6.25536 -6.25405 -6.25272 -6.25139 -6.25005 -6.24873 -6.23336 -6.218 -6.20264 -6.18729 -6.1717 -6.15417 -6.13641 -6.11865 -6.1009 -6.08263 -6.06427 -6.04541 -6.02656 -6.00755 -5.98804 -5.96858 -5.94889 -5.92894 -5.90851 -5.88788 -5.86731 -5.84674 -5.8256 -5.80384 -5.78207 -5.76038 -5.73869 -5.71639 -5.69348 -5.67058 -5.64775 -5.62484 -5.6013 -5.5774 -5.55335 -5.52939 -5.50497 -5.48028 -5.45555 -5.43036 -5.40516 -5.37931 -5.35347 -5.32763 -5.30158 -5.28426 -5.26668 -5.2491 -5.23152 -5.2147 -5.20517 -5.19563 -5.1861 -5.17657 -5.16695 -5.13894 -5.11088 -5.08282 -5.05478 -5.02637 -4.99741 -4.96821 -4.93902 -4.9097 -4.87999 -4.84992 -4.81974 -4.78942 -4.75868 -4.72783 -4.69662 -4.66541 -4.63385 -4.60188 -4.5699 -4.53756 -4.50523 -4.47242 -4.43934 -4.40625 -4.3728 -4.33908 -4.30512 -4.27113 -4.23694 -4.20232 -4.16725 -4.1322 -4.09715 -4.06202 -4.04688 -4.03161 -4.01633 -4.00106 -3.98618 -3.96529 -3.94439 -3.92349 -3.9026 -3.88151 -3.84449 -3.80736 -3.77025 -3.73315 -3.69546 -3.65752 -3.61942 -3.58126 -3.54275 -3.50401 -3.46502 -3.42604 -3.38674 -3.34697 -3.30719 -3.26717 -3.22716 -3.18664 -3.14586 -3.10506 -3.06403 -3.02267 -2.98108 -2.93949 -2.89769 -2.85551 -2.81292 -2.77034 -2.72776 -2.68517 -2.68278 -2.68037 -2.67796 -2.67555 -2.67315 -2.63206 -2.59099 -2.54992 -2.50886 -2.46738 -2.42314 -2.37871 -2.33429 -2.28966 -2.24462 -2.19946 -2.15429 -2.1089 -2.06295 -2.01699 -1.97091 -1.92484 -1.87829 -1.83146 -1.78461 -1.73765 -1.69037 -1.64283 -1.59531 -1.5476 -1.50462 -1.46125 -1.41789 -1.37454 -1.33331 -1.32787 -1.32242 -1.31698 -1.31154 -1.30604 -1.2569 -1.20774 -1.1586 -1.10947 -1.05978 -1.00998 -0.960062 -0.910112 -0.859789 -0.809219 -0.758616 -0.708025 -0.657102 -0.605794 -0.554459 -0.50308 -0.451578 -0.399661 -0.347703 -0.295642 -0.243494 -0.190855 -0.138225 -0.0856054 -0.0329414 -0.0272657 -0.0215431 -0.0158206 -0.0100982 -0.00440883 0.0431569 0.0907148 0.138265 0.185807 0.233789 0.287606 0.341511 0.395419 0.449636 0.504106 0.558555 0.612992 0.667709 0.722739 0.777807 0.832856 0.88806 0.943575 0.999097 1.05473 1.10157 1.14876 1.19594 1.24311 1.28821 1.29751 1.3068 1.31609 1.32539 1.33475 1.39129 1.44785 1.50439 1.56094 1.61797 1.67494 1.73192 1.78893 1.84635 1.90382 1.96124 2.01865 2.07641 2.13422 2.19209 2.24992 2.30804 2.3662 2.42435 2.48256 2.49136 2.50021 2.50905 2.5179 2.52668 2.57636 2.62604 2.67571 2.72537 2.77536 2.83416 2.89295 2.95175 3.01077 3.06992 3.12898 3.18803 3.24727 3.30656 3.3659 3.42517 3.48461 3.54407 3.60352 3.66303 3.67024 3.67747 3.6847 3.69194 3.69912 3.75155 3.80397 3.85639 3.9088 3.96142 4.0212 4.08095 4.14067 4.20051 4.26042 4.32024 4.38005 4.43993 4.49977 4.55966 4.60776 4.65588 4.70399 4.7521 4.79839 4.8105 4.8226 4.8347 4.8468 4.85892 4.9188 4.97863 5.03846 5.09828 5.15819 5.21797 5.27774 5.33742 5.39704 5.45673 5.51631 5.57583 5.6353 5.69476 5.75424 5.76797 5.78168 5.79538 5.80908 5.82264 5.86829 5.91394 5.95958 6.0052 6.05081 6.10995 6.16903 6.22803 6.28688 6.3458 6.40455 6.46324 6.52177 6.58029 6.63876 6.66604 6.69324 6.72041 6.74758 6.7743 6.8054 6.8365 6.8676 6.89868 6.9297 6.98759 7.04536 7.10311 7.16066 7.21824 7.27554 7.33282 7.38983 7.44678 7.50371 7.53512 7.56639 7.59762 7.62884 7.65963 7.68496 7.71029 7.73563 7.76092 7.7861 7.8422 7.89814 7.95404 8.00958 8.06512 8.12042 8.17564 8.23046 8.28525 8.3399 8.36152 8.383 8.40441 8.42581 8.44712 8.47988 8.51265 8.54542 8.57809 8.61055 8.66412 8.71763 8.7709 8.82366 8.87644 8.92898 8.98123 9.03314 9.08505 9.13685 9.14384 9.15076 9.15765 9.16454 9.17144 9.21574 9.26004 9.30434 9.34844 9.39215 9.44248 9.49281 9.54264 9.59198 9.64128 9.68235 9.72301 9.76344 9.80388 9.84511 9.85291 9.8607 9.8685 9.87626 9.88394 9.93159 9.97911 10.0266 10.0737 10.1204 10.1668 10.2133 10.259 10.3044 10.3496 10.3759 10.4019 10.4278 10.4536 10.4802 10.4986 10.517 10.5353 10.5536 10.5717 10.6153 10.6585 10.7017 10.7443 10.7866 10.8286 10.8705 10.9117 10.9528 10.9935 11.0126 11.0314 11.0502 11.0689 11.0882 11.1093 11.1303 11.1513 11.1722 11.1928 11.2316 11.2703 11.3088 11.3466 11.3843 11.4215 11.4586 11.4951 11.5314 11.5674 11.5897 11.6116 11.6334 11.6552 11.6783 11.6912 11.7041 11.717 11.7298 11.7424 11.7763 11.81 11.8436 11.8768 11.9097 11.942 11.9743 12.0061 12.0374 12.0686 12.0993 12.1295 12.1595 12.1895 12.2192 12.2271 12.2349 12.2426 12.2504 12.2584 12.2793 12.3002 12.3211 12.342 12.3625 12.3901 12.4174 12.4446 12.4715 12.4982 12.5243 12.5503 12.576 12.6012 12.6263 12.6509 12.6753 12.6996 12.7238 12.7476 12.7672 12.7864 12.8055 12.8246 12.8472 12.85 12.8528 12.8556 12.8584 12.8612 12.8832 12.9052 12.9272 12.9492 12.9719 12.9943 13.0126 13.0303 13.0458 13.0588 13.071 13.0836 13.1024 13.1299 13.1574 13.1843 13.2112 13.2227 13.2229 13.2216 13.2189 13.2196 13.2205 13.2214 13.2224 13.2225 13.2226 13.2226 13.2227 13.2227 13.2239 13.2251 13.2262 13.2272 13.2278 13.2268 13.2252 13.2228 13.2187 13.2144 13.2083 13.2022 13.1947 13.1856 13.1765 13.1655 13.1532 13.1404 13.1275 13.1136 13.1043 13.094 13.0837 13.0734 13.0618 13.0544 13.0471 13.0398 13.0324 13.0245 13.0021 12.9789 12.9556 12.932 12.9067 12.8786 12.8498 12.8198 12.7879 12.7556 12.7203 12.685 12.6474 12.6073 12.5672 12.5239 12.4796 12.4334 12.3861 12.3374 12.2852 12.2296 12.174 12.1183 12.0612 12.0238 11.9849 11.9461 11.9072 11.8623 11.8368 11.8113 11.7857 11.7602 11.7339 11.6587 11.5825 11.5062 11.4299 11.3503 11.2651 11.1763 11.0871 10.9962 10.9023 10.8032 10.7031 10.5997 10.492 10.3838 10.2699 10.1559 10.036 9.91029 9.7845 9.65241 9.52027 9.38354 9.242 9.10036 8.95192 8.7995 8.64018 8.47667 8.30792 8.13142 7.95472 7.77794 7.60113 7.42379 7.23256 7.01714 6.80177 6.58645 6.35845 6.12636 5.90827 5.69017 5.47204 5.25552 5.21988 5.17789 5.13591 5.09394 5.04964 4.78323 4.5165 4.24943 3.98204 3.67753 3.35741 3.10678 2.85515 2.6026 2.49227 2.37661 1.9397 1.50857 0.963199 0