# vtk DataFile Version 2.0
track0
ASCII
DATASET POLYDATA
POINTS 12040 float
-0.0205 0.001 1e-05
-0.02052 0.000999985 1e-05
-0.02054 0.000999974 1e-05
-0.02056 0.000999965 1e-05
-0.02058 0.000999959 1e-05
-0.0206 0.000999956 1e-05
-0.0205 0.00367778 1e-05
-0.02052 0.00367778 1e-05
-0.02054 0.00367777 1e-05
-0.02056 0.00367777 1e-05
-0.02058 0.00367777 1e-05
-0.0206 0.00367777 1e-05
-0.0205 0.00635556 1e-05
-0.02052 0.00635555 1e-05
-0.02054 0.00635555 1e-05
-0.02056 0.00635555 1e-05
-0.02058 0.00635555 1e-05
-0.0206 0.00635555 1e-05
-0.0205 0.00903333 1e-05
-0.02052 0.00903333 1e-05
-0.02054 0.00903333 1e-05
-0.02056 0.00903333 1e-05
-0.02058 0.00903333 1e-05
-0.0206 0.00903333 1e-05
-0.0205 0.0117111 1e-05
-0.02052 0.0117111 1e-05
-0.02054 0.0117111 1e-05
-0.02056 0.0117111 1e-05
-0.02058 0.0117111 1e-05
-0.0206 0.0117111 1e-05
-0.0205 0.0143889 1e-05
-0.02052 0.0143889 1e-05
-0.02054 0.0143889 1e-05
-0.02056 0.0143889 1e-05
-0.02058 0.0143889 1e-05
-0.0206 0.0143889 1e-05
-0.0205 0.0170667 1e-05
-0.02052 0.0170667 1e-05
-0.02054 0.0170667 1e-05
-0.02056 0.0170667 1e-05
-0.02058 0.0170667 1e-05
-0.0206 0.0170667 1e-05
-0.0205 0.0197444 1e-05
-0.02052 0.0197444 1e-05
-0.02054 0.0197444 1e-05
-0.02056 0.0197444 1e-05
-0.02058 0.0197444 1e-05
-0.0206 0.0197444 1e-05
-0.0205 0.0224222 1e-05
-0.02052 0.0224222 1e-05
-0.02054 0.0224222 1e-05
-0.02056 0.0224222 1e-05
-0.02058 0.0224222 1e-05
-0.0206 0.0224222 1e-05
-0.0205 0.0251 1e-05
-0.02052 0.0250998 1e-05
-0.02054 0.0250997 1e-05
-0.02056 0.0250995 1e-05
-0.02058 0.0250995 1e-05
-0.0206 0.0250994 1e-05
-0.0205 0.001 1e-05
-0.0202034 0.00100022 1e-05
-0.0199069 0.00100067 1e-05
-0.0196103 0.00100133 1e-05
-0.0193137 0.00100219 1e-05
-0.0190172 0.00100326 1e-05
-0.0187132 0.00100467 1e-05
-0.0184093 0.00100589 1e-05
-0.0181054 0.00100711 1e-05
-0.0178015 0.00100832 1e-05
-0.0174976 0.00100954 1e-05
-0.0172058 0.00101083 1e-05
-0.016914 0.00101193 1e-05
-0.0166222 0.00101303 1e-05
-0.0163305 0.00101413 1e-05
-0.0160387 0.00101523 1e-05
-0.0157586 0.00101637 1e-05
-0.0154784 0.00101745 1e-05
-0.0151983 0.00101856 1e-05
-0.0149182 0.00101972 1e-05
-0.0146381 0.0010209 1e-05
-0.0143745 0.00102209 1e-05
-0.014111 0.00102327 1e-05
-0.0138475 0.00102449 1e-05
-0.0135839 0.00102574 1e-05
-0.0133614 0.00102682 1e-05
-0.0133478 0.00102688 1e-05
-0.0133342 0.00102695 1e-05
-0.0133206 0.00102702 1e-05
-0.013307 0.00102709 1e-05
-0.0132934 0.00102715 1e-05
-0.0130353 0.00102844 1e-05
-0.0127771 0.00102974 1e-05
-0.0125189 0.00103106 1e-05
-0.0122607 0.0010324 1e-05
-0.0120025 0.00103375 1e-05
-0.0117547 0.00103506 1e-05
-0.0115068 0.00103637 1e-05
-0.0112589 0.00103769 1e-05
-0.0110111 0.00103902 1e-05
-0.0107632 0.00104035 1e-05
-0.0105252 0.00104162 1e-05
-0.0102873 0.0010429 1e-05
-0.0100493 0.00104418 1e-05
-0.00981133 0.00104546 1e-05
-0.00957337 0.00104673 1e-05
-0.00934491 0.00104795 1e-05
-0.00911645 0.00104918 1e-05
-0.00888799 0.00105039 1e-05
-0.00865954 0.00105161 1e-05
-0.00843108 0.00105282 1e-05
-0.00821175 0.00105398 1e-05
-0.00799242 0.00105514 1e-05
-0.00777309 0.00105629 1e-05
-0.00755376 0.00105744 1e-05
-0.00733443 0.00105859 1e-05
-0.00712387 0.00105968 1e-05
-0.0069133 0.00106077 1e-05
-0.00670273 0.00106185 1e-05
-0.00649216 0.00106293 1e-05
-0.0062816 0.00106401 1e-05
-0.00607944 0.00106504 1e-05
-0.00587729 0.00106606 1e-05
-0.00567514 0.00106708 1e-05
-0.00547298 0.0010681 1e-05
-0.00527083 0.00106911 1e-05
-0.00507675 0.00107008 1e-05
-0.00488267 0.00107104 1e-05
-0.0046886 0.001072 1e-05
-0.00449452 0.00107296 1e-05
-0.00430044 0.00107391 1e-05
-0.00411412 0.00107481 1e-05
-0.0039278 0.00107572 1e-05
-0.00374147 0.00107663 1e-05
-0.00355515 0.00107753 1e-05
-0.00336883 0.00107842 1e-05
-0.00318995 0.00107928 1e-05
-0.00301107 0.00108013 1e-05
-0.00283219 0.00108098 1e-05
-0.00265331 0.00108183 1e-05
-0.00247443 0.00108268 1e-05
-0.0023027 0.00108349 1e-05
-0.00213097 0.0010843 1e-05
-0.00195924 0.00108511 1e-05
-0.0017875 0.00108591 1e-05
-0.00161577 0.00108672 1e-05
-0.0014509 0.00108749 1e-05
-0.00128603 0.00108825 1e-05
-0.00112116 0.00108902 1e-05
-0.000956289 0.00108979 1e-05
-0.000791418 0.00109057 1e-05
-0.000633135 0.0010913 1e-05
-0.000474851 0.00109204 1e-05
-0.000316567 0.00109278 1e-05
-0.000158284 0.00109352 1e-05
0 0.00109426 1e-05
0.000105677 0.00109475 1e-05
0.000211355 0.00109524 1e-05
0.000317032 0.00109573 1e-05
0.00042271 0.00109621 1e-05
0.000528387 0.00109669 1e-05
0.000634886 0.00109717 1e-05
0.000741385 0.00109765 1e-05
0.000847885 0.00109813 1e-05
0.000954384 0.0010986 1e-05
0.00106088 0.00109907 1e-05
0.00116821 0.00109953 1e-05
0.00127554 0.00109999 1e-05
0.00138286 0.00110045 1e-05
0.00149019 0.0011009 1e-05
0.00159752 0.00110134 1e-05
0.00170568 0.00110178 1e-05
0.00181384 0.00110222 1e-05
0.001922 0.00110264 1e-05
0.00203016 0.00110306 1e-05
0.00213833 0.00110347 1e-05
0.00224733 0.00110387 1e-05
0.00235633 0.00110427 1e-05
0.00246533 0.00110465 1e-05
0.00257434 0.00110503 1e-05
0.00268334 0.0011054 1e-05
0.00279319 0.00110576 1e-05
0.00290304 0.00110612 1e-05
0.00301289 0.00110647 1e-05
0.00312274 0.00110681 1e-05
0.00323259 0.00110714 1e-05
0.00334329 0.00110747 1e-05
0.003454 0.00110779 1e-05
0.0035647 0.0011081 1e-05
0.0036754 0.00110841 1e-05
0.00378611 0.0011087 1e-05
0.00389767 0.00110899 1e-05
0.00400924 0.00110928 1e-05
0.0041208 0.00110955 1e-05
0.00423237 0.00110982 1e-05
0.00434393 0.00111008 1e-05
0.00445636 0.00111033 1e-05
0.00456879 0.00111058 1e-05
0.00468123 0.00111082 1e-05
0.00479366 0.00111105 1e-05
0.00490609 0.00111128 1e-05
0.0050194 0.00111149 1e-05
0.0051327 0.0011117 1e-05
0.00524601 0.0011119 1e-05
0.00535932 0.0011121 1e-05
0.00547262 0.00111228 1e-05
0.00558681 0.00111246 1e-05
0.005701 0.00111263 1e-05
0.00581518 0.0011128 1e-05
0.00592937 0.00111296 1e-05
0.00604356 0.00111311 1e-05
0.00615863 0.00111325 1e-05
0.00627371 0.00111338 1e-05
0.00638878 0.00111351 1e-05
0.00650386 0.00111363 1e-05
0.00661893 0.00111375 1e-05
0.0067349 0.00111385 1e-05
0.00685087 0.00111395 1e-05
0.00696684 0.00111404 1e-05
0.00708281 0.00111412 1e-05
0.00719878 0.0011142 1e-05
0.00728917 0.00111425 1e-05
0.00737956 0.0011143 1e-05
0.00746996 0.00111434 1e-05
0.00756035 0.00111438 1e-05
0.00764687 0.00111442 1e-05
0.00767412 0.00111443 1e-05
0.00770138 0.00111443 1e-05
0.00772863 0.00111444 1e-05
0.00775588 0.00111445 1e-05
0.00778313 0.00111446 1e-05
0.00790091 0.00111449 1e-05
0.00801869 0.00111451 1e-05
0.00813647 0.00111452 1e-05
0.00825425 0.00111453 1e-05
0.00837203 0.00111453 1e-05
0.00849073 0.00111452 1e-05
0.00860942 0.0011145 1e-05
0.00872812 0.00111447 1e-05
0.00884682 0.00111444 1e-05
0.00896551 0.0011144 1e-05
0.00908513 0.00111434 1e-05
0.00920475 0.00111428 1e-05
0.00932437 0.00111422 1e-05
0.00944398 0.00111414 1e-05
0.0095636 0.00111406 1e-05
0.00968415 0.00111396 1e-05
0.0098047 0.00111386 1e-05
0.00992525 0.00111375 1e-05
0.0100458 0.00111364 1e-05
0.0101663 0.00111351 1e-05
0.0102878 0.00111337 1e-05
0.0104093 0.00111322 1e-05
0.0105308 0.00111307 1e-05
0.0106523 0.00111291 1e-05
0.0107738 0.00111275 1e-05
0.0108962 0.00111255 1e-05
0.0110186 0.00111237 1e-05
0.0111411 0.00111217 1e-05
0.0112635 0.00111197 1e-05
0.0113859 0.00111176 1e-05
0.0115093 0.00111152 1e-05
0.0116327 0.00111129 1e-05
0.0117561 0.00111105 1e-05
0.0118795 0.0011108 1e-05
0.0120028 0.00111054 1e-05
0.0121272 0.00111026 1e-05
0.0122515 0.00110998 1e-05
0.0123759 0.00110969 1e-05
0.0125002 0.00110939 1e-05
0.0126245 0.00110909 1e-05
0.0127498 0.00110876 1e-05
0.0128752 0.00110843 1e-05
0.0130005 0.0011081 1e-05
0.0131258 0.00110776 1e-05
0.0132511 0.0011074 1e-05
0.0133774 0.00110703 1e-05
0.0135036 0.00110665 1e-05
0.0136299 0.00110627 1e-05
0.0137562 0.00110587 1e-05
0.0138825 0.00110547 1e-05
0.0140098 0.00110505 1e-05
0.014137 0.00110462 1e-05
0.0142643 0.00110419 1e-05
0.0143915 0.00110374 1e-05
0.0145188 0.00110329 1e-05
0.0146471 0.00110282 1e-05
0.0147753 0.00110234 1e-05
0.0149036 0.00110186 1e-05
0.0150318 0.00110136 1e-05
0.0151601 0.00110086 1e-05
0.0152893 0.00110034 1e-05
0.0154186 0.00109981 1e-05
0.0155478 0.00109927 1e-05
0.0156771 0.00109872 1e-05
0.0158063 0.00109817 1e-05
0.0159366 0.0010976 1e-05
0.0160668 0.00109702 1e-05
0.0161971 0.00109643 1e-05
0.0163274 0.00109583 1e-05
0.0164576 0.00109522 1e-05
0.0165889 0.0010946 1e-05
0.0167201 0.00109397 1e-05
0.0168514 0.00109332 1e-05
0.0169827 0.00109267 1e-05
0.0171139 0.00109201 1e-05
0.0172462 0.00109134 1e-05
0.0173785 0.00109065 1e-05
0.0175108 0.00108996 1e-05
0.0176431 0.00108925 1e-05
0.0177754 0.00108854 1e-05
0.0179087 0.00108782 1e-05
0.018042 0.00108708 1e-05
0.0181753 0.00108633 1e-05
0.0183087 0.00108557 1e-05
0.018442 0.00108481 1e-05
0.0185763 0.00108404 1e-05
0.0187107 0.00108325 1e-05
0.018845 0.00108244 1e-05
0.0189794 0.00108162 1e-05
0.0191137 0.00108081 1e-05
0.0192491 0.00107999 1e-05
0.0193845 0.00107915 1e-05
0.0195199 0.00107829 1e-05
0.0196553 0.00107741 1e-05
0.0197907 0.00107654 1e-05
0.0199272 0.00107567 1e-05
0.0200636 0.00107478 1e-05
0.0202001 0.00107386 1e-05
0.0203365 0.00107294 1e-05
0.020473 0.00107202 1e-05
0.0206105 0.00107109 1e-05
0.020748 0.00107015 1e-05
0.0208855 0.00106918 1e-05
0.021023 0.0010682 1e-05
0.0211606 0.00106722 1e-05
0.0212991 0.00106625 1e-05
0.0214377 0.00106525 1e-05
0.0215763 0.00106422 1e-05
0.0217149 0.00106319 1e-05
0.0218535 0.00106216 1e-05
0.0219931 0.00106114 1e-05
0.0221328 0.00106008 1e-05
0.0222724 0.00105901 1e-05
0.0224121 0.00105792 1e-05
0.0225517 0.00105684 1e-05
0.0226925 0.00105576 1e-05
0.0228332 0.00105465 1e-05
0.022974 0.00105352 1e-05
0.0231147 0.00105238 1e-05
0.0232555 0.00105124 1e-05
0.0233973 0.00105011 1e-05
0.0235391 0.00104895 1e-05
0.023681 0.00104776 1e-05
0.0238228 0.00104656 1e-05
0.0239647 0.00104537 1e-05
0.0241076 0.00104419 1e-05
0.0242505 0.00104297 1e-05
0.0243935 0.00104172 1e-05
0.0245364 0.00104047 1e-05
0.0246794 0.00103923 1e-05
0.0248234 0.00103799 1e-05
0.0249675 0.00103672 1e-05
0.0251115 0.00103542 1e-05
0.0252556 0.00103411 1e-05
[...]
POINT_DATA 12040
 FIELD attributes 1
U 3 12040 float
10.0004 	0.00734826 	0 10.0004 	0.00587861 	0 10.0003 	0.00440895 	0 10.0002 	0.0029393 	0 10.0001 	0.00146965 	0 10 	0 	0
10.0001 	0.000878452 	0 10 	0.000702762 	0 10 	0.000527071 	0 10 	0.000351381 	0 10 	0.00017569 	0 10 	0 	0
10.0001 	0.000466372 	0 10.0001 	0.000372908 	0 10.0001 	0.000279444 	0 10 	0.00018598 	0 10 	9.25163e-05 	0 10 	0 	0
10 	0.000266704 	0 10 	0.000213363 	0 10 	0.000160022 	0 10 	0.000106682 	0 10 	5.33408e-05 	0 10 	0 	0
10 	8.11005e-05 	0 10 	6.48804e-05 	0 10 	4.86603e-05 	0 10 	3.24402e-05 	0 10 	1.62201e-05 	0 10 	0 	0
10 	-2.55742e-05 	0 10 	-2.04593e-05 	0 10 	-1.53445e-05 	0 10 	-1.02297e-05 	0 10 	-5.11483e-06 	0 10 	0 	0
10 	-0.000215631 	0 10 	-0.000172505 	0 10 	-0.000129378 	0 10 	-8.62523e-05 	0 10 	-4.31262e-05 	0 10 	0 	0
10 	-0.00037734 	0 10 	-0.000301872 	0 10 	-0.000226404 	0 10 	-0.000150936 	0 10 	-7.5468e-05 	0 10 	0 	0
9.99999 	-0.000426301 	0 9.99999 	-0.000341041 	0 9.99999 	-0.00025578 	0 10 	-0.00017052 	0 10 	-8.52601e-05 	0 10 	0 	0
9.17387 	0.0871273 	0 9.1308 	0.0697018 	0 9.08741 	0.0522761 	0 9.04368 	0.0348501 	0 8.99963 	0.017424 	0 8.95524 	0 	0
10.0004 	0.00734826 	0 10.0024 	0.0152066 	0 10.0045 	0.0222286 	0 10.0065 	0.0292061 	0 10.0086 	0.0361394 	0 10.0136 	0.0463316 	0 10.0164 	0.0402125 	0 10.0208 	0.0401631 	0 10.0253 	0.0401139 	0 10.0297 	0.0400649 	0 10.0356 	0.0445234 	0 10.0385 	0.0378854 	0 10.0425 	0.0378421 	0 10.0464 	0.0377989 	0 10.0504 	0.0377556 	0 10.0545 	0.0408574 	0 10.0567 	0.0387798 	0 10.0591 	0.0400894 	0 10.0616 	0.0414006 	0 10.064 	0.0427134 	0 10.0662 	0.0451719 	0 10.0677 	0.0452832 	0 10.069 	0.0464858 	0 10.0704 	0.0476895 	0 10.0717 	0.0488943 	0 10.0728 	0.0499128 	0 10.0729 	0.0499754 	0 10.073 	0.0500379 	0 10.0731 	0.0501005 	0 10.0731 	0.0501631 	0 10.0732 	0.0502163 	0 10.0737 	0.0508433 	0 10.0742 	0.0514643 	0 10.0748 	0.0520858 	0 10.0753 	0.0527079 	0 10.0758 	0.0531659 	0 10.0757 	0.0534618 	0 10.0753 	0.0536524 	0 10.075 	0.053843 	0 10.0746 	0.0540338 	0 10.0741 	0.0539862 	0 10.0736 	0.0541314 	0 10.0726 	0.0541083 	0 10.0715 	0.0540852 	0 10.0704 	0.0540621 	0 10.0688 	0.0537699 	0 10.0685 	0.0538506 	0 10.0668 	0.0537175 	0 10.0652 	0.0535845 	0 10.0636 	0.0534513 	0 10.061 	0.053032 	0 10.061 	0.0530866 	0 10.059 	0.0528926 	0 10.057 	0.0526986 	0 10.055 	0.0525045 	0 10.0514 	0.0520115 	0 10.052 	0.0520653 	0 10.0497 	0.0518453 	0 10.0474 	0.0516253 	0 10.0451 	0.0514053 	0 10.0405 	0.0508784 	0 10.0419 	0.0509525 	0 10.0394 	0.0507281 	0 10.0369 	0.0505036 	0 10.0344 	0.050279 	0 10.0286 	0.0497342 	0 10.0311 	0.0498351 	0 10.0284 	0.0496231 	0 10.0258 	0.0494111 	0 10.0231 	0.049199 	0 10.0163 	0.0486599 	0 10.0199 	0.0487978 	0 10.0171 	0.0485988 	0 10.0144 	0.0483996 	0 10.0117 	0.0482004 	0 10.0036 	0.0476558 	0 10.0084 	0.0478311 	0 10.0057 	0.0476894 	0 10.0029 	0.0475476 	0 10.0002 	0.0474058 	0 9.99092 	0.0469323 	0 9.99709 	0.0471875 	0 9.99439 	0.0470685 	0 9.99169 	0.0469494 	0 9.98898 	0.0468303 	0 9.97854 	0.0463221 	0 9.98609 	0.0465974 	0 9.98348 	0.0466214 	0 9.98087 	0.0466453 	0 9.97826 	0.0466693 	0 9.96665 	0.0463551 	0 9.97571 	0.0467202 	8.70922e-22 9.97374 	0.0466618 	5.70079e-21 9.97176 	0.0466035 	1.05307e-20 9.96979 	0.0465451 	1.53607e-20 9.95773 	0.0460187 	1.302e-20 9.96806 	0.0461936 	8.99945e-20 9.96633 	0.0459346 	8.35533e-20 9.9646 	0.0456755 	7.71093e-20 9.96286 	0.0454164 	7.06624e-20 9.95061 	0.0447574 	-1.43471e-20 9.96082 	0.0447068 	-3.88856e-20 9.95913 	0.0443905 	-4.32483e-20 9.95745 	0.0440741 	-4.76093e-20 9.95576 	0.0437577 	-5.19688e-20 9.94367 	0.043167 	-2.03755e-20 9.95343 	0.0429332 	-1.79384e-20 9.95156 	0.0423339 	-1.24786e-20 9.94968 	0.0417345 	-7.01934e-21 9.9478 	0.041135 	-1.56047e-21 9.93588 	0.0403223 	6.75744e-21 9.94522 	0.04 	-5.36293e-21 9.94312 	0.0391701 	-2.31093e-20 9.94101 	0.03834 	-4.08576e-20 9.93889 	0.0375098 	-5.86078e-20 9.92702 	0.0364087 	-8.36952e-20 9.9358 	0.0361681 	-1.18566e-19 9.93334 	0.0353391 	-1.06778e-19 9.93086 	0.03451 	-9.49829e-20 9.92839 	0.0336806 	-8.31802e-20 9.91648 	0.032449 	-2.84837e-20 9.92455 	0.032332 	3.32457e-20 9.92168 	0.0315835 	4.61125e-20 9.9188 	0.0308347 	5.89703e-20 9.91591 	0.0300857 	7.18191e-20 9.90403 	0.0288318 	3.50669e-20 9.9113 	0.0287519 	-4.51026e-20 9.90803 	0.028039 	-5.09034e-20 9.90476 	0.0273259 	-5.66905e-20 9.90148 	0.0266125 	-6.24636e-20 9.88972 	0.0253722 	-3.13919e-22 9.89607 	0.0252531 	5.83645e-20 9.89237 	0.024548 	4.94111e-20 9.88868 	0.0238425 	4.04439e-20 9.88497 	0.0231369 	3.14628e-20 9.87342 	0.0219475 	-2.71789e-20 9.87865 	0.0217642 	-7.98407e-20 9.87449 	0.0210659 	-1.01005e-19 9.87033 	0.0203673 	-1.22165e-19 9.86616 	0.0196684 	-1.43319e-19 9.8549 	0.0185592 	-1.30056e-19 9.8588 	0.0183077 	-1.48978e-19 9.85415 	0.0176201 	-1.37126e-19 9.8495 	0.0169321 	-1.2527e-19 9.84484 	0.0162439 	-1.13409e-19 9.83404 	0.0152291 	-7.94498e-20 9.83634 	0.0149174 	-6.68183e-20 9.83121 	0.0142458 	-4.91895e-20 9.82607 	0.0135739 	-3.15623e-20 9.82093 	0.0129017 	-1.39368e-20 9.81082 	0.0119837 	2.02639e-21 9.81123 	0.0116056 	0 9.80562 	0.0109451 	0 9.8 	0.0102843 	0 9.79438 	0.00962327 	0 9.78527 	0.00879725 	0 9.78342 	0.0083383 	-1.57021e-20 9.77735 	0.00768369 	-3.37779e-20 9.77126 	0.00702876 	-5.18553e-20 9.76517 	0.00637351 	-6.99344e-20 9.75742 	0.00564124 	-8.86925e-20 9.75437 	0.00523279 	-9.27962e-20 9.74932 	0.00473131 	-9.33415e-20 9.74426 	0.00422963 	-9.38837e-20 9.7392 	0.00372774 	-9.4423e-20 9.73436 	0.00324714 	-9.49363e-20 9.73281 	0.00309487 	-9.53484e-20 9.73126 	0.00294259 	-9.57605e-20 9.72972 	0.00279028 	-9.61727e-20 9.72817 	0.00263796 	-9.6585e-20 9.72514 	0.00241844 	-9.65794e-20 9.71946 	0.00183446 	-7.07328e-20 9.7124 	0.00118881 	-4.29687e-20 9.70533 	0.000542766 	-1.52138e-20 9.69825 	-0.000103685 	1.2532e-20 9.68333 	-0.00109708 	4.79061e-20 9.68305 	-0.00142491 	4.87683e-20 9.67556 	-0.00206593 	4.98521e-20 9.66806 	-0.00270738 	5.09337e-20 9.66054 	-0.00334927 	5.20133e-20 9.63898 	-0.00458866 	5.49966e-20 9.64396 	-0.00469199 	4.33644e-20 9.63605 	-0.00532831 	3.17298e-20 9.62814 	-0.00596511 	2.0094e-20 9.62021 	-0.00660237 	8.45713e-21 9.59234 	-0.00804238 	-9.84664e-22 9.60228 	-0.00796512 	-7.97463e-21 9.59399 	-0.00859721 	-1.90884e-20 9.58568 	-0.00922982 	-3.02011e-20 9.57736 	-0.00986294 	-4.13127e-20 9.54368 	-0.011451 	-5.24385e-20 9.55817 	-0.0112442 	-5.25233e-20 9.54951 	-0.0118742 	-5.95559e-20 9.54084 	-0.0125048 	-6.65855e-20 9.53216 	-0.013136 	-7.36119e-20 9.49329 	-0.0148164 	-9.13516e-20 9.51182 	-0.0145319 	-1.42562e-19 9.50283 	-0.0151601 	-1.33489e-19 9.49382 	-0.0157889 	-1.24428e-19 9.4848 	-0.0164183 	-1.1538e-19 9.44142 	-0.0181303 	-3.96773e-20 9.46342 	-0.0178187 	-2.54757e-20 9.45412 	-0.0184448 	-1.78882e-20 9.4448 	-0.0190716 	-1.02999e-20 9.43547 	-0.019699 	-2.71084e-21 9.38831 	-0.0213866 	0 9.41319 	-0.0210973 	0 9.40361 	-0.0217228 	0 9.394 	-0.0223491 	0 9.38439 	-0.022976 	0 9.33421 	-0.0245879 	0 9.36138 	-0.0243697 	1.62594e-21 9.35153 	-0.0249963 	8.69115e-21 9.34167 	-0.0256236 	1.57556e-20 9.3318 	-0.0262516 	2.28193e-20 9.27934 	-0.0277376 	3.98781e-20 9.30821 	-0.0276397 	1.52167e-19 9.29814 	-0.0282672 	1.54971e-19 9.28804 	-0.0288954 	1.57789e-19 9.27794 	-0.0295243 	1.60621e-19 9.22391 	-0.030832 	4.00605e-20 9.25394 	-0.0308965 	2.15283e-20 9.24366 	-0.0315235 	1.52021e-20 9.23337 	-0.0321512 	8.87489e-21 9.22102 	-0.0328003 	3.47958e-21 9.16811 	-0.0338635 	1.66934e-20 9.19531 	-0.0341568 	1.00422e-19 9.18835 	-0.0347515 	1.09263e-19 9.17787 	-0.0353778 	1.10451e-19 9.16139 	-0.0360311 	9.70511e-20 9.1121 	-0.0368284 	3.79842e-21 9.13596 	-0.0373402 	-9.53154e-20 9.13243 	-0.037941 	-1.23483e-19 9.12179 	-0.0385655 	-1.33288e-19 9.10188 	-0.0391716 	-1.23499e-19 9.05606 	-0.0397253 	-5.89566e-20 9.07677 	-0.0404344 	-1.71213e-19 9.07612 	-0.0410843 	-2.08747e-19 9.06535 	-0.0417066 	-2.10943e-19 9.04267 	-0.0422209 	-1.66747e-19 9.00013 	-0.0425544 	-4.51752e-20 9.01792 	-0.043439 	-2.38353e-20 9.01963 	-0.0441751 	-1.05501e-20 9.00875 	-0.0447951 	-3.5712e-21 8.98391 	-0.0451795 	0 8.94444 	-0.0453167 	0 8.95953 	-0.0463555 	0 8.96315 	-0.0472089 	0 8.95218 	-0.0478265 	0 8.92572 	-0.0480496 	1.92214e-21 8.88912 	-0.0480141 	5.10515e-21 8.90174 	-0.0491861 	2.07135e-21 8.90685 	-0.0501819 	0 8.89581 	-0.0507969 	0 8.86823 	-0.0508345 	2.29966e-21 8.83427 	-0.0506491 	5.48675e-21 8.84465 	-0.051935 	2.45254e-21 8.85089 	-0.0530927 	1.21393e-21 8.8398 	-0.0537051 	7.5509e-21 8.81151 	-0.0535386 	2.35017e-20 8.77999 	-0.053225 	4.12662e-20 8.78834 	-0.0546058 	1.61985e-19 8.79541 	-0.0559389 	2.75252e-19 8.78428 	-0.056549 	2.78608e-19 8.75566 	-0.0561665 	1.62478e-19 8.72637 	-0.0557457 	4.17646e-20 8.73289 	-0.0572048 	2.4259e-20 8.73935 	-0.0586656 	6.75452e-21 8.72799 	-0.0592337 	2.66346e-22 8.70073 	-0.0587247 	3.33487e-21 8.67349 	-0.0582154 	6.40324e-21 8.67836 	-0.0597368 	3.49195e-21 8.68318 	-0.0612598 	5.81468e-22 8.67219 	-0.0617969 	2.09468e-21 8.64679 	-0.0612167 	-1.66916e-21 8.62141 	-0.0606361 	-5.43207e-21 8.62481 	-0.0622047 	-4.72249e-20 8.62815 	-0.0637749 	-8.90215e-20 8.61759 	-0.0642823 	-9.03153e-20 8.59388 	-0.0636493 	-5.20804e-20 8.57019 	-0.0630158 	-1.38437e-20 8.57229 	-0.0646268 	8.16648e-20 8.57433 	-0.0662394 	1.77168e-19 8.56422 	-0.0667188 	1.85372e-19 8.54205 	-0.0660414 	1.05806e-19 8.5199 	-0.0653634 	2.62409e-20 8.52084 	-0.0670067 	1.52641e-20 8.52173 	-0.0686517 	4.28393e-21 8.51211 	-0.0691038 	4.76952e-22 8.49133 	-0.0683925 	4.93004e-21 8.47056 	-0.0676808 	9.38481e-21 8.4705 	-0.0693424 	4.03602e-21 8.47038 	-0.0710056 	-1.31781e-21 8.46126 	-0.0714312 	-2.00589e-20 8.44172 	-0.0707018 	-6.82961e-20 8.42221 	-0.0699718 	-1.16536e-19 8.42126 	-0.0716379 	-2.42762e-19 8.42025 	-0.0733055 	-3.68983e-19 8.41165 	-0.0737063 	-3.54319e-19 8.39324 	-0.0729747 	-2.09628e-19 8.37484 	-0.0722426 	-6.49376e-20 8.37311 	-0.0739027 	5.45957e-20 8.37127 	-0.0755527 	1.73054e-19 8.36289 	-0.0759003 	1.70714e-19 8.34586 	-0.0752242 	8.72352e-20 8.32848 	-0.0745046 	3.4294e-22 8.32607 	-0.076156 	-8.58959e-20 8.32275 	-0.0776163 	-1.60671e-19 8.31451 	-0.0779716 	-1.69579e-19 8.29959 	-0.0774707 	-1.10433e-19 8.28313 	-0.0767714 	-3.556e-20 8.28011 	-0.0784118 	-2.47466e-20 8.27559 	-0.079684 	-1.4028e-20 8.26749 	-0.080049 	-3.53687e-21 8.2544 	-0.079726 	1.31585e-20 8.23879 	-0.0790526 	3.30113e-20 8.23522 	-0.0806806 	1.19581e-20 8.22974 	-0.0817681 	-2.41542e-21 8.22177 	-0.0821442 	-8.00549e-21 8.21028 	-0.081999 	-3.37907e-21 8.19543 	-0.0813553 	1.10159e-20 8.19138 	-0.0829699 	-4.96015e-21 8.18514 	-0.0838777 	-1.52761e-20 8.1773 	-0.0842661 	-2.1435e-20 8.16719 	-0.0842975 	-3.28515e-20 8.15304 	-0.0836867 	-5.3718e-20 8.14857 	-0.0852879 	5.09016e-20 8.14175 	-0.0860223 	8.15456e-20 8.13402 	-0.0864245 	8.38384e-20 8.12511 	-0.0866301 	6.76255e-20 8.1116 	-0.0860549 	-2.19443e-20 8.10675 	-0.0876433 	6.6373e-20 8.0995 	-0.0882115 	8.04105e-20 8.09187 	-0.088629 	8.34514e-20 8.08401 	-0.0890057 	8.31912e-20 8.07107 	-0.0884685 	9.69137e-21 8.06584 	-0.0900209 	-6.47348e-22 8.05834 	-0.0904548 	-4.39689e-22 8.05081 	-0.090889 	-2.32052e-22 8.04327 	-0.0913235 	-2.44364e-23 8.03144 	-0.0909357 	1.69295e-20 8.02563 	-0.0923089 	0 8.01822 	-0.092761 	0 8.01079 	-0.0932133 	0 8.00334 	-0.0936659 	0 7.99267 	-0.0934648 	1.39097e-20 7.98642 	-0.094667 	0 7.97909 	-0.0951385 	0 7.97174 	-0.0956102 	0 7.96438 	-0.0960823 	0 7.95473 	-0.0960638 	0 7.94815 	-0.0971032 	0 7.9409 	-0.0975953 	0 7.93362 	-0.0980878 	0 7.92633 	-0.0985805 	0 7.91757 	-0.0987405 	-7.23115e-21 7.91076 	-0.0996252 	0 7.90358 	-0.100139 	0 7.89638 	-0.100654 	0 7.88916 	-0.101168 	0 7.88117 	-0.101502 	-8.04818e-21 7.87421 	-0.10224 	0 7.86709 	-0.102777 	0 7.85995 	-0.103314 	0 7.85278 	-0.103852 	0 7.84547 	-0.104357 	-1.51228e-21 7.84386 	-0.104523 	-1.92143e-21 7.84224 	-0.104652 	-4.21954e-21 7.84061 	-0.104782 	-6.51772e-21 7.83898 	-0.104911 	-8.81596e-21 7.83736 	-0.105039 	-1.10913e-20 7.83176 	-0.105473 	-1.82475e-20 7.82614 	-0.105907 	-2.5403e-20 7.82051 	-0.106341 	-3.25576e-20 7.81486 	-0.106775 	-3.97113e-20 7.80984 	-0.107085 	-4.687e-20 7.80239 	-0.107785 	-4.4923e-20 7.79515 	-0.108373 	-4.42938e-20 7.7879 	-0.108962 	-4.36618e-20 7.78061 	-0.109551 	-4.30269e-20 7.77476 	-0.109862 	-4.54667e-20 7.76703 	-0.110729 	-3.54136e-20 7.75983 	-0.111344 	-2.53453e-20 7.7526 	-0.111959 	-1.52754e-20 7.74535 	-0.112575 	-5.2041e-21 7.74032 	-0.112762 	0 7.73231 	-0.113793 	-2.21759e-21 7.72513 	-0.114436 	-6.82514e-21 7.71793 	-0.11508 	-1.14319e-20 7.7107 	-0.115723 	-1.60379e-20 7.70648 	-0.115794 	-2.06126e-20 7.69817 	-0.116985 	-4.97945e-20 7.69102 	-0.117657 	-6.87792e-20 7.68383 	-0.118329 	-8.77657e-20 7.67662 	-0.119002 	-1.06754e-19 7.67317 	-0.118963 	-9.64075e-20 7.66458 	-0.120311 	-7.34656e-20 7.65743 	-0.121014 	-6.27181e-20 7.65025 	-0.121717 	-5.19639e-20 7.64318 	-0.122397 	-4.21905e-20 7.64036 	-0.12228 	-6.54729e-20 7.63164 	-0.123706 	-7.89089e-20 7.62431 	-0.124517 	-6.46609e-20 7.61714 	-0.125253 	-4.69858e-20 7.61087 	-0.125816 	-2.62349e-20 7.60799 	-0.125751 	5.65941e-21 7.59928 	-0.127192 	9.79619e-21 7.59163 	-0.128173 	7.76239e-21 7.58445 	-0.128942 	2.88942e-21 7.57897 	-0.129394 	0 7.57601 	-0.129383 	0 7.56732 	-0.13084 	0 7.55933 	-0.131986 	0 7.55213 	-0.132789 	0 7.54742 	-0.133136 	0 7.54437 	-0.133179 	0 7.53568 	-0.134655 	0 7.52734 	-0.135963 	-4.43906e-21 7.52012 	-0.136801 	-2.1359e-20 7.51615 	-0.137049 	-3.83386e-20 7.51301 	-0.137147 	-5.53335e-20 7.50431 	-0.138642 	-3.693e-20 7.49563 	-0.14011 	-1.83437e-20 7.48837 	-0.140984 	4.06736e-21 7.48513 	-0.141138 	8.02039e-21 7.48188 	-0.14129 	1.19465e-20 7.47317 	-0.142807 	4.3045e-20 7.46441 	-0.144324 	7.41418e-20 7.45764 	-0.145201 	8.81936e-20 7.45429 	-0.145408 	7.39218e-20 7.45093 	-0.145616 	5.96481e-20 7.4422 	-0.147155 	3.66241e-20 7.43341 	-0.148695 	1.35915e-20 7.42706 	-0.149603 	3.66527e-21 7.42359 	-0.149865 	1.2591e-20 7.4201 	-0.150127 	2.15177e-20 7.41134 	-0.151691 	8.2018e-20 7.40252 	-0.153255 	1.42521e-19 7.39657 	-0.154195 	1.43179e-19 7.39296 	-0.154512 	8.33173e-20 7.38935 	-0.154829 	2.34544e-20 7.38055 	-0.156418 	1.53271e-20 7.37169 	-0.158008 	7.20334e-21 7.36611 	-0.158981 	7.3153e-21 7.36236 	-0.159353 	1.60164e-20 7.3586 	-0.159724 	2.47188e-20 7.34976 	-0.16134 	8.37293e-20 7.34109 	-0.162916 	1.38817e-19 7.3358 	-0.163898 	1.36626e-19 7.33173 	-0.16439 	8.50931e-20 7.32782 	-0.164816 	2.675e-20 7.31892 	-0.16646 	1.88737e-20 7.311 	-0.167923 	1.09642e-20 7.3056 	-0.168946 	2.96816e-21 7.30103 	-0.169627 	0 7.29695 	-0.170106 	0 7.28798 	-0.171778 	0 7.2808 	-0.173133 	0 7.27526 	-0.174197 	0 7.27018 	-0.175064 	0 7.26593 	-0.175596 	0 7.25689 	-0.177297 	0 7.25041 	-0.178546 	0 7.24473 	-0.179652 	0 7.23915 	-0.180702 	1.62965e-21 7.23471 	-0.181286 	1.66931e-20 7.22558 	-0.183016 	8.42771e-24 7.21979 	-0.184163 	8.19763e-21 7.21396 	-0.185311 	1.63892e-20 7.20808 	-0.186458 	2.45831e-20 7.20324 	-0.187177 	3.61481e-20 7.19484 	-0.188796 	9.87266e-20 7.18888 	-0.189984 	1.02821e-19 7.18289 	-0.191172 	1.06893e-19 7.17685 	-0.192361 	1.10943e-19 7.17147 	-0.19327 	5.70751e-20 7.16377 	-0.194779 	1.0253e-19 7.15764 	-0.196007 	9.10344e-20 7.15148 	-0.197236 	7.95154e-20 7.14527 	-0.198466 	6.79732e-20 7.13935 	-0.199561 	3.76219e-20 7.13279 	-0.200869 	3.53256e-20 7.12695 	-0.202043 	3.57669e-20 7.12109 	-0.203218 	3.62127e-20 7.11518 	-0.204392 	3.6663e-20 7.1096 	-0.205496 	3.70906e-20 7.10903 	-0.205605 	3.6984e-20 7.10846 	-0.205713 	3.68773e-20 7.10789 	-0.205822 	3.67707e-20 7.10731 	-0.205931 	3.6664e-20 7.10685 	-0.206028 	3.68437e-20 7.10015 	-0.207346 	3.56939e-20 7.09347 	-0.208653 	3.48132e-20 7.08674 	-0.20996 	3.3927e-20 7.07997 	-0.211267 	3.30351e-20 7.07446 	-0.212433 	3.68526e-20 7.06687 	-0.213921 	3.75812e-20 7.05998 	-0.215267 	3.14361e-20 7.05305 	-0.216612 	2.52994e-20 7.04607 	-0.217958 	1.91712e-20 7.04158 	-0.219035 	1.91398e-21 7.03307 	-0.220692 	-2.47661e-22 7.02597 	-0.222076 	-1.68302e-22 7.01883 	-0.223459 	-8.89134e-23 7.01163 	-0.224842 	-9.49499e-24 7.00817 	-0.22583 	0 6.9987 	-0.227656 	-3.90591e-23 6.99138 	-0.229076 	-1.28784e-20 6.98402 	-0.230496 	-2.57118e-20 6.97736 	-0.231837 	-3.79042e-20 6.97417 	-0.232814 	-4.71801e-20 6.96448 	-0.234671 	-3.57727e-20 6.95618 	-0.236263 	-2.24482e-20 6.94858 	-0.237718 	-8.13049e-21 6.94299 	-0.238963 	2.5661e-21 6.93954 	-0.239982 	9.40686e-21 6.92962 	-0.241867 	3.5072e-21 6.9203 	-0.243632 	3.36574e-21 6.91246 	-0.245122 	1.63692e-20 6.90794 	-0.246268 	3.4717e-20 6.90424 	-0.247327 	5.44287e-20 6.89408 	-0.24924 	3.38272e-20 6.88385 	-0.251153 	1.32219e-20 6.87611 	-0.25265 	-2.33341e-22 6.87218 	-0.253746 	-3.32457e-21 6.86822 	-0.254843 	-6.41714e-21 6.85781 	-0.256783 	-5.44227e-20 6.84733 	-0.258722 	-1.0243e-19 6.83987 	-0.260259 	-1.07274e-19 6.83567 	-0.261391 	-6.95681e-20 6.83143 	-0.262524 	-3.18627e-20 6.82077 	-0.264489 	-7.01518e-20 6.81003 	-0.266454 	-1.08449e-19 6.80286 	-0.268029 	-1.06767e-19 6.79837 	-0.269196 	-6.66896e-20 6.79385 	-0.270362 	-2.66113e-20 6.78292 	-0.272351 	-6.68255e-20 6.77244 	-0.274288 	-1.00944e-19 6.76552 	-0.275867 	-9.21491e-20 6.76025 	-0.277151 	-5.50907e-20 6.75544 	-0.278349 	-9.73501e-21 6.74423 	-0.28036 	-7.19198e-21 6.73493 	-0.282177 	-4.54095e-21 6.72773 	-0.283781 	-1.77109e-21 6.72126 	-0.28525 	0 6.71615 	-0.286478 	0 6.70466 	-0.28851 	0 6.69656 	-0.290204 	0 6.68907 	-0.291832 	0 6.68152 	-0.29346 	0 6.67596 	-0.29474 	0 6.66503 	-0.296708 	-5.9772e-22 6.6573 	-0.298358 	-3.49123e-21 6.64951 	-0.300008 	-6.38613e-21 6.64167 	-0.301658 	-9.28245e-21 6.63484 	-0.303126 	-7.06612e-21 6.62516 	-0.304962 	-2.74267e-20 6.61713 	-0.306632 	-2.42924e-20 6.60903 	-0.308302 	-2.1137e-20 6.60088 	-0.309972 	-1.79605e-20 6.59275 	-0.311628 	-1.29952e-20 6.59197 	-0.311774 	-1.2921e-20 6.59131 	-0.311907 	-1.2289e-20 6.59066 	-0.312041 	-1.1657e-20 6.59 	-0.312174 	-1.1025e-20 6.58935 	-0.312307 	-1.03965e-20 6.58125 	-0.313859 	-3.43132e-21 6.57309 	-0.315411 	3.53247e-21 6.56488 	-0.316963 	1.04949e-20 6.55661 	-0.318515 	1.7456e-20 6.54931 	-0.319939 	2.32077e-20 6.5397 	-0.321783 	2.14205e-20 6.53052 	-0.323483 	2.2733e-20 6.52127 	-0.325184 	2.40374e-20 6.51196 	-0.326884 	2.53338e-20 6.50473 	-0.328318 	3.57114e-20 6.49419 	-0.330332 	4.25055e-20 6.48466 	-0.332046 	4.05214e-20 6.47506 	-0.33376 	3.85422e-20 6.46607 	-0.33539 	3.19155e-20 6.45899 	-0.336779 	1.17465e-20 6.44807 	-0.338804 	2.94418e-20 6.4376 	-0.340688 	3.62673e-20 6.42763 	-0.342413 	3.08538e-20 6.41949 	-0.343909 	1.08128e-20 6.41207 	-0.34531 	-1.53126e-20 6.40078 	-0.34734 	-8.85578e-21 6.3894 	-0.34937 	-2.40094e-21 6.37942 	-0.351076 	-2.96678e-21 6.37171 	-0.352487 	-2.41007e-21 6.36395 	-0.353898 	-1.84831e-21 6.35227 	-0.355931 	-5.48166e-22 6.34051 	-0.357964 	7.59251e-22 6.33077 	-0.359697 	3.05276e-21 6.32271 	-0.361115 	7.81992e-21 6.3146 	-0.362533 	1.25905e-20 6.30253 	-0.364566 	8.75964e-21 6.29073 	-0.366558 	4.93024e-21 6.28122 	-0.368273 	1.08932e-21 6.27248 	-0.369778 	0 6.264 	-0.371201 	0 6.25154 	-0.373232 	0 6.24071 	-0.375064 	0 6.23083 	-0.376778 	0 6.22099 	-0.378466 	0 6.21214 	-0.37989 	0 6.19965 	-0.381873 	5.53153e-22 6.18947 	-0.383584 	4.62244e-21 6.17921 	-0.385293 	8.69432e-21 6.16889 	-0.387002 	1.27688e-20 6.15901 	-0.388587 	1.68521e-20 6.15122 	-0.389805 	1.59892e-20 6.14436 	-0.390914 	1.64935e-20 6.13747 	-0.392024 	1.70001e-20 6.13055 	-0.393133 	1.7509e-20 6.12389 	-0.394194 	1.79985e-20 6.12024 	-0.394799 	1.88746e-20 6.11658 	-0.395404 	1.97528e-20 6.11292 	-0.396009 	2.0633e-20 6.10924 	-0.396614 	2.15152e-20 6.10562 	-0.39716 	1.89818e-20 6.09533 	-0.398928 	1.52702e-20 6.08482 	-0.400627 	9.87917e-21 6.07423 	-0.402326 	4.49848e-21 6.06357 	-0.404025 	-8.71861e-22 6.05307 	-0.405495 	-1.31967e-20 6.04288 	-0.407446 	-3.51612e-20 6.03198 	-0.409135 	-3.47261e-20 6.02101 	-0.410823 	-3.43085e-20 6.01005 	-0.412431 	-2.91235e-20 5.99925 	-0.413796 	