/*--------------------------------*- C++ -*----------------------------------*\
| =========                 |                                                 |
| \\      /  F ield         | OpenFOAM: The Open Source CFD Toolbox           |
|  \\    /   O peration     | Version:  5.x                                   |
|   \\  /    A nd           | Web:      www.OpenFOAM.org                      |
|    \\/     M anipulation  |                                                 |
\*---------------------------------------------------------------------------*/
FoamFile
{
    version     2.0;
    format      ascii;
    class       volScalarField;
    location    "990";
    object      epsilon;
}
// * * * * * * * * * * * * * * * * * * * * * * * * * * * * * * * * * * * * * //

dimensions      [0 2 -3 0 0 0 0];

internalField   nonuniform List<scalar> 
20540
(
0.241032
0.157972
0.241032
0.258821
0.241032
0.347296
0.241032
0.418202
0.241032
0.466914
0.241032
0.489711
0.241032
0.484621
0.241032
0.452079
0.241032
0.395583
0.241032
0.322039
0.241032
0.241375
0.241032
0.164971
0.241032
0.10268
0.241032
0.0591027
0.241032
0.0326677
0.241032
0.0204323
0.241032
0.0171312
0.241032
0.0165628
0.241032
0.016475
0.241032
0.0164608
0.241032
0.0164587
0.241032
0.016459
0.241032
0.0164598
0.241032
0.016461
0.241032
0.0164624
0.241032
0.0164641
0.241032
0.0164661
0.241032
0.0164683
0.241032
0.0164705
0.241032
0.0164725
0.241032
0.016474
0.241032
0.0164747
0.241032
0.0164747
0.241032
0.016474
0.241032
0.0164725
0.241032
0.0164705
0.241032
0.0164684
0.241032
0.0164663
0.241032
0.0164644
0.241032
0.0164627
0.241032
0.0164612
0.241032
0.01646
0.241032
0.0164591
0.241032
0.0164587
0.241032
0.0164595
0.241032
0.0164663
0.241032
0.0165064
0.241032
0.01675
0.241032
0.0182261
0.241032
0.0250067
0.241032
0.0432241
0.241032
0.0759604
0.241032
0.125888
0.241032
0.192432
0.241032
0.269215
0.241032
0.346408
0.241032
0.413851
0.241032
0.463203
0.241032
0.488954
0.241032
0.48856
0.241032
0.462055
0.241032
0.411509
0.241032
0.340536
0.241032
0.25384
0.241032
0.158308
654829
641976
597338
564753
541005
523128
509191
497990
488786
481097
474589
469019
464206
460013
456334
453087
450207
447639
445340
443272
441407
439719
438188
436795
435525
434365
433301
432324
431425
430596
429831
429125
428472
427867
427308
426791
426313
425871
425464
425090
424748
424439
424161
423917
423706
423532
423396
423302
423254
423257
423317
423440
423632
423899
424251
424695
425241
425900
426683
427603
428678
429918
431418
432585
433777
434983
436260
437608
439028
440519
442082
443719
445430
447218
449085
451035
453072
455202
457433
459776
462246
464865
467664
470702
474042
478044
483455
503868
696498
544903
482871
447900
424611
407826
395046
384920
376678
369842
364088
359184
354961
351291
348079
345249
342742
340510
338513
336720
335103
333641
332315
331109
330010
329006
328086
327241
326464
325747
325086
324476
323911
323389
322907
322460
322048
321667
321317
320997
320706
320444
320212
320010
319841
319706
319609
319553
319544
319587
319687
319851
320086
320399
320800
321296
321900
322622
323477
324476
325648
326975
328659
330040
331356
332630
334011
335489
337057
338712
340456
342291
344219
346245
348373
350609
352961
355439
358055
360828
363780
366945
370373
374135
378403
383293
389814
389101
470751
381860
337021
312182
295898
284265
275458
268503
262855
258178
254245
250896
248013
245509
243318
241388
239679
238157
236796
235574
234471
233475
232571
231749
231000
230315
229688
229112
228582
228093
227643
227226
226841
226485
226156
225851
225569
225310
225071
224852
224654
224475
224316
224178
224062
223970
223903
223865
223858
223887
223955
224066
224225
224438
224710
225048
225458
225949
226529
227208
228001
228904
230031
230945
231850
232729
233661
234655
235709
236821
237990
239219
240508
241860
243278
244763
246322
247958
249681
251498
253422
255473
257675
260068
262716
265696
268725
264453
326157
281057
247944
229371
217292
208719
202258
197174
193054
189648
186786
184352
182258
180440
178850
177450
176210
175106
174119
173233
172434
171711
171056
170460
169917
169421
168966
168549
168164
167810
167484
167182
166902
166644
166405
166184
165980
165791
165618
165459
165314
165184
165068
164967
164881
164813
164763
164732
164724
164740
164785
164859
164968
165114
165302
165536
165820
166160
166562
167034
167584
168212
168981
169591
170224
170846
171492
172176
172899
173661
174461
175299
176176
177094
178053
179055
180102
181198
182344
183547
184812
186149
187568
189089
190722
192501
193794
190206
229533
213808
189205
174833
165500
158907
153960
150080
146944
144355
142183
140337
138751
137374
136171
135111
134174
133339
132593
131923
131319
130773
130278
129828
129418
129043
128699
128384
128094
127826
127579
127351
127140
126945
126765
126597
126443
126300
126169
126048
125938
125839
125750
125673
125607
125553
125513
125487
125476
125484
125512
125562
125636
125737
125868
126031
126230
126469
126753
127085
127472
127916
128447
128859
129305
129751
130206
130685
131189
131717
132271
132849
133453
134083
134738
135420
136130
136868
137635
138435
139269
140141
141053
142014
143008
144036
144506
142154
161930
165815
147869
136550
129149
123931
120030
116980
114522
112497
110800
109360
108123
107050
106113
105289
104559
103910
103330
102809
102340
101916
101531
101181
100863
100572
100305
100060
99834.2
99626.5
99434.7
99257.5
99093.7
98942
98801.7
98671.7
98551.5
98440.5
98338.1
98244.1
98158.2
98080.3
98010.5
97949.1
97896.3
97852.6
97818.7
97795.5
97783.8
97785.3
97801.3
97833.3
97882.9
97952
98042.4
98156.4
98296.2
98464.6
98664.4
98898.8
99171.6
99486.5
99853.9
100131
100443
100763
101085
101421
101772
102139
102522
102922
103336
103767
104213
104676
105153
105647
106157
106684
107227
107787
108364
108956
109540
110099
110188
108789
113249
129816
117384
108447
102486
98276.4
95135.9
92688.8
90721.1
89103.1
87749.7
86602
85617.5
84764.6
84019.8
83365.1
82785.9
82271
81810.8
81397.7
81025.6
80689.3
80384.4
80107.3
79854.8
79624
79412.6
79218.5
79039.9
78875.3
78723.4
78583
78453.1
78333
78221.7
78118.7
78023.3
77935.1
77853.7
77778.8
77710.3
77647.9
77591.8
77541.9
77498.7
77462.3
77433.2
77412
77399.2
77396.1
77403.5
77422.6
77454.5
77500.4
77561.8
77640.1
77736.8
77853.9
77993.3
78157.3
78347.8
78568.9
78820.6
79005
79219
79444.5
79671.1
79904.6
80147.2
80399.6
80661.6
80933.3
81214.4
81504.6
81803.8
82111.5
82427.5
82751.4
83082.7
83420.8
83765
84113.8
84464.2
84812.7
85133.4
85401.9
85320.6
84496.6
77712.4
101779
94095
87132.5
82305.3
78868.3
76303.8
74309.8
72710.2
71397.2
70300.7
69371.9
68576.1
67887.3
67286.3
66758.3
66291.5
65876.6
65506
65173.4
64873.9
64603.3
64358
64135.1
63932
63746.4
63576.4
63420.3
63276.7
63144.4
63022.2
62909.3
62804.9
62708.3
62618.8
62535.8
62459
62387.9
62322.2
62261.7
62206.1
62155.3
62109.4
62068.3
62032.2
62001.3
61975.9
61956.3
61942.8
61936.4
61937.6
61947.2
61966.1
61995.1
62035.1
62087.1
62152.2
62231.6
62326.6
62438.8
62569.1
62721.1
62889.8
63009.3
63151.7
63306.3
63462
63621.2
63785.2
63954.7
64129.6
64309.9
64495.3
64685.4
64879.9
65078.3
65280.2
65484.9
65691.7
65899.6
66107.2
66312.5
66511.6
66699.5
66852.4
66946.4
66792.1
66267.1
51763
79305.5
75783.4
70553.6
66665.8
63847
61734.8
60092.9
58777.7
57699.8
56800.7
56040.2
55389.1
54826.2
54335.4
53904.5
53523.8
53185.5
52883.5
52612.6
52368.7
52148.4
51948.8
51767.4
51602.1
51451.1
51312.8
51185.8
51069
50961.4
50862
50770.2
50685.3
50606.6
50533.8
50466.3
50403.7
50345.7
50292
50242.4
50196.8
50155
50116.9
50082.6
50052.1
50025.5
50003
49984.8
49971
49962.2
49959
49961.8
49971.1
49987.6
50011.8
50044.4
50086.1
50137.7
50199.9
50273.8
50359.7
50460.5
50569.5
50643.6
50733.9
50835.4
50938.2
51042.7
51149.7
51259.2
51371.4
51486
51602.9
51721.7
51842
51963.3
52085.2
52206.8
52327.4
52445.9
52560.7
52669.8
52769.2
52853.4
52902.3
52896.1
52714.6
52331.5
33054.7
60904
61018.2
57382.4
54315.7
52013.9
50269.9
48910.2
47820.9
46928.6
46185.1
45556.7
45019.2
44554.9
44150.4
43795.4
43482
43203.7
42955.2
42732.5
42532
42351
42187
42038
41902.3
41778.3
41664.7
41560.5
41464.6
41376.2
41294.6
41219.3
41149.5
41085
41025.1
40969.6
40918.1
40870.4
40826.1
40785.2
40747.4
40712.5
40680.7
40651.7
40625.6
40602.5
40582.5
40565.6
40551.8
40541.5
40535.2
40533.1
40535.5
40542.9
40555.5
40573.8
40598.3
40629.3
40667.4
40713.1
40766.5
40829.4
40895.7
40938.3
40991.4
41053.4
41117
41181.6
41247.1
41313.5
41380.8
41448.7
41517.1
41585.6
41654
41721.6
41788.1
41852.7
41914.7
41973.1
42026.3
42072.5
42107.9
42127.4
42114.8
42055.4
41869.8
41557.7
19927.1
45640.3
48830.7
46712.2
44402.6
42555
41123.2
39997.5
39092.8
38351.1
37732.8
37210.5
36763.9
36378.3
36042.6
35748.1
35488.2
35257.6
35051.7
34867.3
34701.3
34551.4
34415.7
34292.4
34180.1
34077.5
33983.6
33897.4
33818.1
33745
33677.5
33615.2
33557.5
33504.1
33454.5
33408.6
33365.9
33326.3
33289.5
33255.4
33223.8
33194.6
33167.7
33143.1
33120.7
33100.5
33082.5
33066.9
33053.4
33042.3
33034
33028.4
33026
33026.8
33031.1
33039.1
33051.1
33067.2
33087.7
33112.9
33142.6
33178.1
33214
33235.1
33262.2
33295.9
33330.9
33366.6
33402.4
33438.3
33473.9
33509.2
33543.9
33577.8
33610.5
33641.7
33670.9
33697.5
33720.8
33740
33753.7
33760.2
33756.4
33737.8
33691.7
33607.9
33431.3
33166.1
11114
32947.9
38548.7
37896.7
36319.9
34893.4
33739.2
32815.3
32066.6
31450.4
30935.7
30500.4
30128.2
29806.8
29526.9
29281.5
29065
28872.8
28701.4
28547.8
28409.6
28284.8
28171.9
28069.3
27975.9
27890.6
27812.4
27740.7
27674.7
27613.9
27557.8
27505.9
27457.9
27413.5
27372.2
27333.9
27298.4
27265.3
27234.6
27206
27179.5
27154.9
27132
27111
27091.6
27073.9
27057.8
27043.4
27030.4
27019.1
27009.5
27001.8
26996
26992.4
26990.8
26991.6
26994.7
27000.2
27008.2
27018.8
27031.7
27047.7
27062.6
27069.4
27079.1
27093
27108
27123.3
27138.4
27153.1
27167.1
27180.2
27192.2
27202.9
27212.1
27219.4
27224.4
27226.6
27225.6
27220.5
27210.2
27193.3
27167.1
27128
27066.4
26975.3
26815.6
26591.4
5577.69
22517.6
29710.7
30459.2
29618.5
28603.8
27710.2
26968.8
26357.6
25849.8
25423.4
25061.7
24751.7
24483.7
24250.2
24045.4
23864.7
23704.2
23561.1
23432.8
23317.4
23213.2
23118.9
23033.2
22955.2
22884
22818.7
22758.8
22703.7
22652.9
22606
22562.7
22522.6
22485.5
22451
22419
22389.2
22361.5
22335.7
22311.7
22289.3
22268.4
22249
22230.9
22214.1
22198.6
22184.3
22171.1
22158.9
22147.7
22137.6
22128.6
22120.8
22114.2
22108.8
22104.6
22101.7
22100
22099.4
22100
22101.4
22104
22104.9
22102.6
22101.2
22102.1
22103.6
22105.1
22106.4
22107
22106.7
22105.4
22102.8
22098.9
22093.2
22085.7
22075.9
22063.6
22048.3
22029.2
22005.6
21976.2
21938.9
21890.7
21824.7
21736.1
21597.4
21412.4
2421.81
14213.5
22026.1
24044.4
23954.9
23361.9
22726.9
22160.3
21676.4
21266.5
20918.4
20621
20364.9
20142.7
19948.8
19778.4
19627.8
19494
19374.6
19267.5
19171.1
19084.1
19005.3
18933.8
18868.6
18809
18754.4
18704.3
18658.2
18615.7
18576.5
18540.2
18506.6
18475.5
18446.7
18419.8
18394.9
18371.6
18349.9
18329.7
18310.8
18293.1
18276.5
18261
18246.5
18232.8
18220.1
18208.2
18196.9
18186.2
18176
18166.5
18157.7
18149.4
18141.6
18134.4
18127.7
18121.3
18115.2
18109.3
18103.3
18097.3
18089.3
18081.4
18073.4
18066.5
18059.6
18052.5
18045
18036.9
18027.8
18017.8
18006.5
17993.8
17979.6
17963.7
17945.8
17925.6
17902.8
17876.8
17847
17812.3
17771
17720.9
17657
17576.1
17459.7
17310.4
862.115
7989.41
15362.4
18396.6
19060.8
18912.4
18547.5
18157.8
17798.8
17482.4
17207.2
16968.6
16761
16579.7
16420.6
16280.3
16156
16045.4
15946.4
15857.5
15777.4
15705
15639.4
15579.8
15525.5
15475.8
15430.3
15388.5
15350
15314.5
15281.7
15251.4
15223.3
15197.3
15173.1
15150.7
15129.8
15110.3
15092
15075
15059
15044
15029.9
15016.7
15004.1
14992.3
14981.1
14970.4
14960.2
14950.2
14940.5
14931
14921.8
14912.8
14903.8
14895
14886.1
14877
14867.7
14858.1
14847.7
14836.5
14823.5
14812.6
14801.2
14790
14778.5
14766.6
14754.3
14741.3
14727.4
14712.6
14696.8
14679.7
14661.3
14641.4
14619.8
14596.3
14570.6
14542.2
14510.6
14475.1
14434.2
14386.3
14328.1
14257.2
14162.1
14043.9
239.125
3783.22
9741.78
13361.2
14730.5
15050
14976.4
14775.5
14546.5
14324.7
14121.5
13939.7
13778.2
13635
13508.1
13395.3
13294.8
13204.8
13124.1
13051.4
12985.7
12926.2
12872.2
12823.1
12778.2
12737.2
12699.5
12664.9
12633
12603.5
12576.3
12551.1
12527.8
12506.2
12486.1
12467.4
12449.9
12433.7
12418.5
12404.2
12390.8
12378.2
12366.3
12355
12344.3
12334.1
12324.3
12314.9
12305.8
12296.7
12287.7
12278.8
12269.8
12260.7
12251.5
12242
12232.2
12222
12211.2
12199.7
12187.1
12173.5
12158.1
12146
12133.3
12120.4
12106.9
12093
12078.5
12063.4
12047.5
12030.8
12013.2
11994.6
11974.9
11953.9
11931.5
11907.5
11881.7
11853.7
11823.2
11789.4
11751.4
11708
11656.9
11596.7
11520.7
11428.3
52.1347
1385.72
5315.95
8904.18
10824.1
11611.5
11853.1
11860.1
11773.1
11652.7
11525.1
11401.5
11286.4
11181
11085.4
10999.1
10921.2
10850.8
10787.1
10729.4
10676.9
10629.3
10585.9
10546.3
10510
10476.8
10446.2
10418
10392
10367.9
10345.7
10325.1
10306
10288.3
10271.8
10256.4
10242.1
10228.7
10216.2
10204.4
10193.3
10182.8
10172.9
10163.4
10154.4
10145.8
10137.4
10129.3
10121.3
10113.4
10105.3
10097.1
10088.8
10080.2
10071.3
10062
10052.3
10041.9
10030.8
10018.8
10005.7
9991.44
9975.59
9963.51
9950.78
9937.71
9924.03
9909.81
9895.06
9879.71
9863.7
9846.98
9829.47
9811.12
9791.84
9771.54
9750.09
9727.34
9703.12
9677.16
9649.1
9618.48
9584.6
9546.57
9503.12
9453.3
9393.53
9321.9
9.62518
349.633
2276.07
5138.28
7291.19
8481.48
9047.51
9283.3
9355.48
9348.47
9304.41
9244.36
9178.85
9113.22
9050.15
8990.86
8935.78
8884.89
8838.03
8794.98
8755.48
8719.25
8686.01
8655.48
8627.38
8601.47
8577.54
8555.4
8534.91
8515.93
8498.32
8481.99
8466.81
8452.7
8439.56
8427.3
8415.84
8405.1
8395.02
8385.53
8376.57
8368.08
8360
8352.29
8344.88
8337.73
8330.77
8323.96
8317.22
8310.46
8303.52
8296.36
8288.94
8281.22
8273.11
8264.54
8255.42
8245.63
8235.07
8223.61
8211.03
8197.29
8182.18
8170.86
8158.95
8146.68
8133.81
8120.43
8106.53
8092.08
8077.06
8061.42
8045.13
8028.13
8010.35
7991.74
7972.19
7951.59
7929.78
7906.58
7881.72
7854.84
7825.48
7793.07
7756.94
7716.57
7670.13
7614.95
1.5766
57.4893
659.563
2312.49
4213.14
5617.99
6469.37
6941.5
7189.59
7311.3
7362.62
7374.75
7365.13
7343.76
7316.45
7286.56
7255.98
7225.8
7196.65
7168.89
7142.73
7118.21
7095.32
7073.96
7054.06
7035.5
7018.2
7002.07
6987.03
6973.02
6959.97
6947.8
6936.46
6925.88
6915.99
6906.73
6898.05
6889.89
6882.2
6874.93
6868.04
6861.49
6855.22
6849.21
6843.4
6837.75
6832.21
6826.74
6821.28
6815.8
6810.08
6804.11
6797.84
6791.22
6784.19
6776.67
6768.6
6759.87
6750.38
6740.04
6728.64
6716.18
6702.55
6692.43
6681.79
6670.8
6659.3
6647.31
6634.87
6621.94
6608.5
6594.54
6580.02
6564.9
6549.14
6532.68
6515.45
6497.37
6478.31
6458.13
6436.64
6413.61
6388.75
6361.74
6332.26
6300.12
6264.35
6222.02
0.233133
7.09522
110.735
676.716
1834.42
3103
4097.77
4769.39
5194.55
5456.76
5616.31
5711.67
5766.83
5796.72
5810.63
5814.34
5811.55
5804.64
5795.23
5784.41
5772.89
5761.13
5749.43
5737.94
5726.79
5716.04
5705.75
5695.94
5686.63
5677.83
5669.52
5661.69
5654.32
5647.38
5640.84
5634.67
5628.84
5623.31
5618.07
5613.08
5608.31
5603.73
5599.33
5595.06
5590.9
5586.81
5582.75
5578.7
5574.6
5570.43
5566.08
5561.43
5556.45
5551.11
5545.36
5539.13
5532.35
5524.96
5516.87
5507.98
5498.14
5487.36
5475.57
5466.86
5457.69
5448.19
5438.27
5427.92
5417.16
5405.98
5394.37
5382.29
5369.74
5356.68
5343.08
5328.9
5314.08
5298.56
5282.26
5265.07
5246.87
5227.52
5206.87
5184.78
5161.13
5135.91
5108.54
5076.17
0.0346152
0.745542
11.514
105.199
478.571
1195.99
2041.63
2778.43
3333.08
3726.66
3999.28
4186.79
4316.09
4405.7
4467.98
4511.19
4541.02
4561.39
4575.05
4583.92
4589.34
4592.25
4593.32
4593.05
4591.8
4589.86
4587.44
4584.71
4581.79
4578.77
4575.72
4572.67
4569.67
4566.72
4563.84
4561.03
4558.29
4555.63
4553.04
4550.5
4548.03
4545.6
4543.21
4540.83
4538.45
4536.05
4533.61
4531.1
4528.48
4525.73
4522.86
4519.65
4516.1
4512.17
4507.84
4503.04
4497.73
4491.84
4485.3
4478.04
4469.94
4461
4451.21
4443.96
4436.31
4428.35
4420.03
4411.34
4402.29
4392.86
4383.06
4372.86
4362.25
4351.21
4339.71
4327.72
4315.21
4302.13
4288.42
4274.02
4258.87
4242.9
4226.05
4208.29
4189.6
4170.04
4149.2
4124.53
0.00739059
0.0690705
0.942879
9.12102
59.6196
242.309
618.186
1132.92
1664.66
2122.01
2481.21
2754.55
2960.77
3116.01
3233.12
3322.04
3390.19
3442.95
3484.14
3516.52
3542.13
3562.47
3578.7
3591.7
3602.17
3610.64
3617.51
3623.11
3627.69
3631.44
3634.51
3637.02
3639.06
3640.72
3642.05
3643.11
3643.92
3644.54
3644.98
3645.27
3645.42
3645.44
3645.34
3645.12
3644.78
3644.31
3643.69
3642.92
3641.98
3640.84
3639.51
3637.93
3635.96
3633.6
3630.82
3627.58
3623.84
3619.56
3614.68
3609.13
3602.83
3595.78
3587.99
3582.19
3576
3569.54
3562.75
3555.64
3548.21
3540.44
3532.35
3523.9
3515.1
3505.93
3496.37
3486.4
3476
3465.14
3453.79
3441.94
3429.54
3416.59
3403.08
3389.02
3374.46
3359.43
3343.65
3324.92
0.00242376
0.00611505
0.0656303
0.599326
4.07892
21.2677
82.7068
229.698
473.916
786.769
1119.19
1426.89
1687.43
1898.71
2068.19
2204.58
2314.95
2404.63
2477.76
2537.67
2587.05
2628.07
2662.43
2691.43
2716.08
2737.19
2755.35
2771.07
2784.72
2796.64
2807.07
2816.25
2824.35
2831.52
2837.89
2843.57
2848.64
2853.19
2857.27
2860.94
2864.23
2867.19
2869.84
2872.2
2874.28
2876.09
2877.65
2878.93
2879.95
2880.68
2881.14
2881.35
2881.16
2880.54
2879.47
2877.94
2875.9
2873.33
2870.18
2866.41
2861.95
2856.79
2850.96
2846.55
2841.78
2836.73
2831.4
2825.76
2819.83
2813.6
2807.06
2800.23
2793.07
2785.6
2777.8
2769.66
2761.18
2752.33
2743.13
2733.55
2723.6
2713.3
2702.66
2691.73
2680.54
2669.13
2657.26
2643.11
0.00184248
0.000886084
0.00404539
0.0328514
0.214491
1.12226
4.87527
17.7199
52.8555
126.633
247.032
408.403
596.073
792.211
980.68
1150.64
1297.54
1421.68
1525.92
1613.8
1688.5
1752.52
1807.75
1855.62
1897.24
1933.54
1965.28
1993.12
2017.65
2039.34
2058.62
2075.81
2091.23
2105.09
2117.62
2128.97
2139.29
2148.69
2157.28
2165.14
2172.34
2178.93
2184.97
2190.5
2195.56
2200.17
2204.35
2208.12
2211.49
2214.46
2217.04
2219.24
2221.12
2222.49
2223.36
2223.73
2223.56
2222.85
2221.55
2219.64
2217.08
2213.84
2209.97
2206.94
2203.54
2199.87
2195.91
2191.68
2187.16
2182.37
2177.3
2171.95
2166.33
2160.43
2154.25
2147.8
2141.08
2134.08
2126.81
2119.29
2111.53
2103.56
2095.39
2087.08
2078.65
2070.12
2061.3
2050.73
0.00181832
0.000333915
0.000315581
0.0015433
0.0092926
0.0469358
0.200769
0.744348
2.43168
7.06092
18.1863
41.1156
81.1907
141.193
220.142
314.159
418.013
526.234
633.802
736.655
831.981
918.252
995.034
1062.69
1122.04
1174.13
1220.02
1260.68
1296.91
1329.4
1358.7
1385.23
1409.35
1431.33
1451.41
1469.79
1486.63
1502.08
1516.28
1529.34
1541.36
1552.43
1562.63
1572.04
1580.7
1588.68
1596.03
1602.77
1608.94
1614.57
1619.67
1624.26
1628.4
1632.07
1635.17
1637.7
1639.65
1641
1641.76
1641.88
1641.35
1640.15
1638.33
1636.7
1634.71
1632.43
1629.87
1627.03
1623.92
1620.54
1616.91
1613.02
1608.88
1604.5
1599.9
1595.06
1590.01
1584.76
1579.31
1573.69
1567.91
1562.01
1555.99
1549.9
1543.76
1537.58
1531.22
1523.54
0.00181797
0.000298835
8.24319e-05
8.994e-05
0.000343002
0.00159527
0.00661456
0.0240874
0.0780981
0.228623
0.611417
1.50725
3.4485
7.33884
14.4916
26.4744
44.7502
70.2633
103.185
142.929
188.365
238.1
290.69
344.771
399.121
452.699
504.657
554.347
601.317
645.291
686.142
723.864
758.541
790.324
819.401
845.983
870.29
892.534
912.921
931.638
948.857
964.728
979.387
992.949
1005.51
1017.17
1027.99
1038.03
1047.35
1055.98
1063.96
1071.33
1078.09
1084.34
1090.03
1095.08
1099.5
1103.28
1106.42
1108.91
1110.72
1111.86
1112.35
1112.31
1111.89
1111.15
1110.12
1108.81
1107.22
1105.37
1103.27
1100.93
1098.37
1095.59
1092.6
1089.43
1086.09
1082.58
1078.93
1075.16
1071.27
1067.3
1063.26
1059.17
1055.04
1050.89
1046.63
1041.44
0.00181828
0.000297967
6.85729e-05
2.34887e-05
1.98658e-05
4.86172e-05
0.00017527
0.000614897
0.00195931
0.0056742
0.0150807
0.0371365
0.0854892
0.185295
0.380148
0.741674
1.38216
2.46803
4.22791
6.94789
10.95
16.5562
24.0456
33.6158
45.3572
59.2455
75.152
92.8659
112.123
132.631
154.097
176.238
198.794
221.532
244.251
266.775
288.959
310.679
331.837
352.354
372.171
391.241
409.534
427.03
443.719
459.599
474.672
488.948
502.438
515.155
527.113
538.329
548.816
558.595
567.775
576.272
584.047
591.097
597.419
603.009
607.861
611.97
615.357
617.246
618.722
619.845
620.637
621.116
621.301
621.21
620.861
620.273
619.463
618.448
617.245
615.87
614.34
612.672
610.881
608.983
606.992
604.923
602.79
600.605
598.379
596.121
593.8
590.974
0.00181863
0.000297997
6.82609e-05
2.06351e-05
8.05777e-06
4.73938e-06
5.75396e-06
1.34047e-05
3.83475e-05
0.00010757
0.000282072
0.000689356
0.00157908
0.00341205
0.00699278
0.0136598
0.0255541
0.0459751
0.0798141
0.134047
0.218294
0.345477
0.532541
0.801138
1.17804
1.69503
2.38818
3.29642
4.45955
5.91606
7.70082
9.84308
12.3648
15.2797
18.5925
22.2992
26.3875
30.8377
35.6238
40.7149
46.0762
51.6704
57.4588
63.4023
69.4619
75.5993
81.7778
87.9617
94.1174
100.213
106.217
112.102
117.839
123.404
128.774
133.996
139.073
143.98
148.695
153.197
157.466
161.481
165.224
167.563
169.713
171.685
173.485
175.119
176.595
177.92
179.102
180.147
181.064
181.861
182.545
183.125
183.608
184.001
184.312
184.549
184.717
184.824
184.876
184.879
184.839
184.759
184.646
184.491
0.001819
0.000298044
6.8267e-05
2.05856e-05
7.73865e-06
3.47589e-06
1.84139e-06
1.22963e-06
1.22501e-06
1.96216e-06
4.1696e-06
9.50139e-06
2.12262e-05
4.53804e-05
9.25128e-05
0.000180196
0.000336532
0.000604837
0.00104953
0.00176313
0.00287441
0.00455792
0.00704495
0.0106358
0.0157123
0.0227491
0.0323232
0.0451203
0.0619394
0.0836952
0.111419
0.146259
0.189474
0.242429
0.306575
0.383428
0.474533
0.58142
0.705552
0.848265
1.0107
1.19376
1.39799
1.62359
1.87029
2.13735
2.42347
2.72682
3.04493
3.37475
3.71262
4.05427
4.39481
4.72816
5.04757
5.38041
5.72837
6.08927
6.46076
6.84033
7.22535
7.61307
8.00067
8.25408
8.49913
8.7353
8.96216
9.17938
9.38676
9.58415
9.77154
9.94895
10.1165
10.2744
10.4229
10.5622
10.6926
10.8145
10.9284
11.0344
11.1332
11.225
11.3102
11.3894
11.4628
11.5308
11.5939
11.6551
0.00181934
0.000298088
6.82769e-05
2.05878e-05
7.73546e-06
3.45649e-06
1.76948e-06
1.00913e-06
6.29878e-07
4.29532e-07
3.28938e-07
3.02362e-07
3.57199e-07
5.34752e-07
9.21072e-07
1.66583e-06
3.0111e-06
5.33113e-06
9.18349e-06
1.53712e-05
2.50154e-05
3.96392e-05
6.12622e-05
9.25044e-05
0.000136696
0.000197982
0.000281421
0.000393059
0.000539986
0.000730367
0.000973445
0.00127952
0.00165989
0.00212673
0.00269294
0.00337184
0.00417683
0.0051208
0.00621549
0.00747054
0.0088924
0.010483
0.012238
0.0141451
0.0161822
0.0183144
0.0204928
0.022651
0.0247037
0.0265446
0.0280452
0.0290495
0.0293828
0.0293855
0.0294739
0.0296464
0.0299024
0.0302409
0.0306604
0.0311586
0.0317327
0.032379
0.0330929
0.0335887
0.0340959
0.0346109
0.0351305
0.0356517
0.0361718
0.0366883
0.037199
0.0377018
0.0381952
0.0386776
0.0391479
0.039605
0.0400482
0.0404769
0.0408906
0.0412892
0.0416725
0.0420404
0.0423933
0.0427311
0.0430542
0.043363
0.0436577
0.043957
0.00181958
0.000298119
6.82838e-05
2.05898e-05
7.73612e-06
3.45662e-06
1.76896e-06
1.007e-06
6.23576e-07
4.13005e-07
2.88893e-07
2.11491e-07
1.61137e-07
1.27608e-07
1.05548e-07
9.23981e-08
8.74944e-08
9.17484e-08
1.07674e-07
1.39617e-07
1.94115e-07
2.80341e-07
4.10642e-07
6.01145e-07
8.72413e-07
1.25009e-06
1.76553e-06
2.45629e-06
3.36651e-06
4.54715e-06
6.05587e-06
7.9568e-06
1.03198e-05
1.32193e-05
1.67325e-05
2.09369e-05
2.5906e-05
3.17049e-05
3.83828e-05
4.59643e-05
5.44384e-05
6.37443e-05
7.37567e-05
8.42674e-05
9.49684e-05
0.000105435
0.000115115
0.000123324
0.000129247
0.000131995
0.000130656
0.000129082
0.000127627
0.000126256
0.000124961
0.000123736
0.000122575
0.000121471
0.00012042
0.000119414
0.00011845
0.000117521
0.000116624
0.000116048
0.000115496
0.000114968
0.000114461
0.000113975
0.000113509
0.000113063
0.000112636
0.000112229
0.00011184
0.00011147
0.00011112
0.00011079
0.00011048
0.00011019
0.000109921
0.000109672
0.000109445
0.000109239
0.000109054
0.00010889
0.000108748
0.000108626
0.000108524
0.00010849
0.00181969
0.000298134
6.82871e-05
2.05907e-05
7.73645e-06
3.45677e-06
1.76903e-06
1.00703e-06
6.23559e-07
4.12909e-07
2.88628e-07
2.10867e-07
1.5978e-07
1.24813e-07
1.00038e-07
8.1962e-08
6.8441e-08
5.8115e-08
5.00963e-08
4.37939e-08
3.88103e-08
3.48792e-08
3.18276e-08
2.9552e-08
2.80039e-08
2.71803e-08
2.71181e-08
2.78908e-08
2.96055e-08
3.24009e-08
3.64447e-08
4.19295e-08
4.90684e-08
5.80869e-08
6.92117e-08
8.26553e-08
9.85936e-08
1.17136e-07
1.38286e-07
1.61891e-07
1.87578e-07
2.14688e-07
2.42195e-07
2.6864e-07
2.92078e-07
3.10074e-07
3.19771e-07
3.20085e-07
3.21045e-07
3.22472e-07
3.24222e-07
3.26524e-07
3.29782e-07
3.34632e-07
3.42088e-07
3.5377e-07
3.72252e-07
4.01612e-07
4.48256e-07
5.22161e-07
6.387e-07
8.21271e-07
1.10497e-06
1.34995e-06
1.66114e-06
2.05217e-06
2.53805e-06
3.13505e-06
3.86057e-06
4.73277e-06
5.77022e-06
6.9915e-06
8.41478e-06
1.00573e-05
1.19352e-05
1.40625e-05
1.64516e-05
1.91121e-05
2.20514e-05
2.52737e-05
2.87805e-05
3.25705e-05
3.66394e-05
4.09803e-05
4.55836e-05
5.04375e-05
5.55282e-05
6.08471e-05
0.00181969
0.000298134
6.82871e-05
2.05907e-05
7.73645e-06
3.45676e-06
1.76903e-06
1.00703e-06
6.23559e-07
4.12909e-07
2.88628e-07
2.10866e-07
1.59777e-07
1.24809e-07
1.0003e-07
8.19466e-08
6.84136e-08
5.80676e-08
5.0017e-08
4.36648e-08
3.86057e-08
3.45627e-08
3.13492e-08
2.88444e-08
2.69782e-08
2.57218e-08
2.50816e-08
2.50957e-08
2.58317e-08
2.73862e-08
2.98841e-08
3.34793e-08
3.8356e-08
4.47321e-08
5.28637e-08
6.30542e-08
7.56671e-08
9.11471e-08
1.10051e-07
1.33091e-07
1.61201e-07
1.95632e-07
2.3808e-07
2.90879e-07
3.5727e-07
4.41788e-07
5.50824e-07
6.93428e-07
8.82481e-07
1.1364e-06
1.48163e-06
1.95618e-06
2.61486e-06
3.53666e-06
4.83529e-06
6.67398e-06
9.28596e-06
1.30024e-05
1.82897e-05
2.5799e-05
3.64288e-05
5.14047e-05
7.23756e-05
8.93992e-05
0.000109768
0.000133927
0.000162322
0.000195392
0.000233565
0.000277244
0.000326798
0.000382549
0.000444769
0.000513667
0.000589388
0.000672008
0.000761533
0.000857896
0.000960964
0.00107054
0.00118636
0.00130811
0.00143544
0.00156793
0.00170515
0.00184663
0.00199189
0.00214058
0.00181958
0.000298119
6.82837e-05
2.05898e-05
7.73611e-06
3.45662e-06
1.76896e-06
1.00699e-06
6.23556e-07
4.12952e-07
2.88766e-07
2.11208e-07
1.60538e-07
1.26401e-07
1.03212e-07
8.80532e-08
7.97075e-08
7.82501e-08
8.49632e-08
1.0245e-07
1.34872e-07
1.88267e-07
2.70937e-07
3.939e-07
5.71392e-07
8.21407e-07
1.16624e-06
1.63301e-06
2.25411e-06
3.06768e-06
4.11791e-06
5.45544e-06
7.13773e-06
9.22963e-06
1.18042e-05
1.49439e-05
1.87426e-05
2.33083e-05
2.87675e-05
3.52716e-05
4.30049e-05
5.21975e-05
6.31415e-05
7.62136e-05
9.1906e-05
0.000110867
0.000133954
0.000162309
0.000197449
0.000241396
0.000296834
0.000367327
0.000457588
0.000573823
0.000724163
0.000919199
0.00117261
0.00150193
0.00192939
0.00248288
0.00319697
0.00411394
0.00528488
0.00618304
0.00720059
0.0083454
0.00962385
0.0110411
0.0126009
0.014306
0.0161573
0.0181544
0.0202953
0.0225766
0.0249936
0.0275401
0.0302091
0.0329923
0.0358807
0.0388647
0.0419341
0.0450785
0.0482871
0.0515491
0.054854
0.0581913
0.0615507
0.0649251
0.00181934
0.000298088
6.82769e-05
2.05878e-05
7.73544e-06
3.4564e-06
1.76914e-06
1.00804e-06
6.26851e-07
4.21814e-07
3.1067e-07
2.61876e-07
2.7144e-07
3.59045e-07
5.73954e-07
1.00684e-06
1.80829e-06
3.21547e-06
5.58766e-06
9.45098e-06
1.55517e-05
2.49181e-05
3.89306e-05
5.94005e-05
8.86568e-05
0.000129636
0.00018597
0.000262067
0.000363178
0.000495453
0.000665982
0.000882835
0.0011551
0.00149294
0.00190766
0.00241179
0.00301925
0.00374557
0.00460814
0.00562671
0.00682394
0.00822622
0.00986479
0.0117772
0.0140089
0.016616
0.0196671
0.0232476
0.0274623
0.0324405
0.0383405
0.0453543
0.053714
0.0636967
0.0756306
0.0899007
0.106953
0.1273
0.151519
0.180256
0.214219
0.254167
0.300894
0.334852
0.371371
0.410436
0.451977
0.495901
0.542099
0.590444
0.640792
0.692981
0.746837
0.802178
0.858815
0.916553
0.9752
1.03456
1.09445
1.15468
1.21507
1.27546
1.33568
1.3956
1.45506
1.51395
1.57215
1.62964
0.00181901
0.000298045
6.82673e-05
2.05853e-05
7.73637e-06
3.46543e-06
1.80467e-06
1.12132e-06
9.42098e-07
1.23664e-06
2.35709e-06
5.21227e-06
1.16616e-05
2.52174e-05
5.21479e-05
0.000103096
0.000195362
0.000356043
0.000626146
0.00106565
0.00175943
0.00282414
0.00441612
0.00674057
0.0100616
0.0147124
0.0211046
0.0297359
0.0411955
0.0561679
0.0754359
0.0998829
0.130495
0.168363
0.214681
0.270748
0.33796
0.4178
0.511833
0.62169
0.749056
0.895662
1.06328
1.25371
1.46881
1.71049
1.9807
2.28151
2.61508
2.98373
3.3899
3.83623
4.32553
4.86079
5.44518
6.08201
6.77474
7.52685
8.34181
9.22297
10.1734
11.1956
12.2904
13.0432
13.8109
14.591
15.3809
16.178
16.9802
17.7852
18.5909
19.395
20.1956
20.9907
21.7787
22.5577
23.3264
24.0833
24.8272
25.5569
26.2715
26.9703
27.6524
28.3172
28.9644
29.5936
30.2045
30.8039
0.00181866
0.000298
6.82588e-05
2.0605e-05
7.88262e-06
4.09277e-06
3.81686e-06
7.25674e-06
1.96474e-05
5.51995e-05
0.00014693
0.000365495
0.000852173
0.00187347
0.00390527
0.00775494
0.0147345
0.0269009
0.047367
0.0806704
0.133188
0.213608
0.333475
0.507792
0.755567
1.10013
1.56903
2.1934
3.00679
4.04352
5.33691
6.91742
8.81095
11.0376
13.6106
16.5363
19.8137
23.4351
27.3872
31.6513
36.2052
41.0239
46.0808
51.3486
56.8005
62.4107
68.155
74.0113
79.9601
85.9842
92.0694
98.2038
104.378
110.586
116.822
123.084
129.37
135.68
142.014
148.374
154.76
161.173
167.597
171.845
175.995
180.051
184.01
187.871
191.633
195.295
198.856
202.316
205.674
208.93
212.084
215.137
218.089
220.941
223.694
226.349
228.907
231.37
233.74
236.017
238.205
240.305
242.321
244.324
0.00181831
0.000297961
6.83781e-05
2.18861e-05
1.3909e-05
2.54753e-05
8.5193e-05
0.000300112
0.000973767
0.00287744
0.00780467
0.0196065
0.046002
0.101578
0.212313
0.421899
0.80041
1.4553
2.54214
4.26949
6.89234
10.6919
15.9446
22.887
31.6849
42.4133
55.051
69.4885
85.5467
102.999
121.594
141.076
161.197
181.728
202.462
223.22
243.847
264.211
284.207
303.747
322.764
341.206
359.039
376.239
392.795
408.707
423.982
438.634
452.684
466.156
479.079
491.484
503.405
514.876
525.932
536.609
546.941