/*--------------------------------*- C++ -*----------------------------------*\
| =========                 |                                                 |
| \\      /  F ield         | OpenFOAM: The Open Source CFD Toolbox           |
|  \\    /   O peration     | Version:  5.x                                   |
|   \\  /    A nd           | Web:      www.OpenFOAM.org                      |
|    \\/     M anipulation  |                                                 |
\*---------------------------------------------------------------------------*/
FoamFile
{
    version     2.0;
    format      ascii;
    class       volScalarField;
    location    "990";
    object      k;
}
// * * * * * * * * * * * * * * * * * * * * * * * * * * * * * * * * * * * * * //

dimensions      [0 2 -2 0 0 0 0];

internalField   nonuniform List<scalar> 
20540
(
2.45293e-05
7.72618e-06
2.45293e-05
1.40218e-05
2.45293e-05
2.49906e-05
2.45293e-05
3.98274e-05
2.45293e-05
5.74878e-05
2.45293e-05
7.64338e-05
2.45293e-05
9.45119e-05
2.45293e-05
0.000108992
2.45293e-05
0.000116847
2.45293e-05
0.000115342
2.45293e-05
0.000102963
2.45293e-05
8.0561e-05
2.45293e-05
5.23749e-05
2.45293e-05
2.60997e-05
2.45293e-05
9.75507e-06
2.45293e-05
4.05127e-06
2.45293e-05
2.89963e-06
2.45293e-05
2.72158e-06
2.45293e-05
2.69432e-06
2.45293e-05
2.68984e-06
2.45293e-05
2.68915e-06
2.45293e-05
2.68913e-06
2.45293e-05
2.68925e-06
2.45293e-05
2.68943e-06
2.45293e-05
2.68966e-06
2.45293e-05
2.68993e-06
2.45293e-05
2.69024e-06
2.45293e-05
2.69057e-06
2.45293e-05
2.69092e-06
2.45293e-05
2.69124e-06
2.45293e-05
2.69147e-06
2.45293e-05
2.69158e-06
2.45293e-05
2.69157e-06
2.45293e-05
2.69147e-06
2.45293e-05
2.69124e-06
2.45293e-05
2.69093e-06
2.45293e-05
2.69059e-06
2.45293e-05
2.69027e-06
2.45293e-05
2.68997e-06
2.45293e-05
2.6897e-06
2.45293e-05
2.68947e-06
2.45293e-05
2.68929e-06
2.45293e-05
2.68915e-06
2.45293e-05
2.68911e-06
2.45293e-05
2.68941e-06
2.45293e-05
2.69158e-06
2.45293e-05
2.70411e-06
2.45293e-05
2.77969e-06
2.45293e-05
3.26019e-06
2.45293e-05
5.94647e-06
2.45293e-05
1.59569e-05
2.45293e-05
3.69468e-05
2.45293e-05
6.43547e-05
2.45293e-05
9.03079e-05
2.45293e-05
0.000108919
2.45293e-05
0.000117509
2.45293e-05
0.000116116
2.45293e-05
0.000106541
2.45293e-05
9.14087e-05
2.45293e-05
7.3451e-05
2.45293e-05
5.50668e-05
2.45293e-05
3.81298e-05
2.45293e-05
2.39822e-05
2.45293e-05
1.35556e-05
2.45293e-05
7.61289e-06
3.6872
3.61482
3.36347
3.18
3.04628
2.94562
2.86714
2.80407
2.75224
2.70895
2.6723
2.64094
2.61384
2.59023
2.56951
2.55123
2.53501
2.52056
2.50761
2.49597
2.48546
2.47596
2.46734
2.4595
2.45235
2.44581
2.43982
2.43432
2.42925
2.42459
2.42028
2.4163
2.41263
2.40922
2.40608
2.40316
2.40047
2.39798
2.39569
2.39359
2.39166
2.38992
2.38836
2.38698
2.38579
2.38481
2.38405
2.38352
2.38325
2.38327
2.3836
2.38429
2.38537
2.38688
2.38886
2.39136
2.39444
2.39815
2.40256
2.40774
2.41379
2.42078
2.42922
2.43579
2.44251
2.44929
2.45648
2.46408
2.47207
2.48047
2.48927
2.49848
2.50812
2.51819
2.5287
2.53968
2.55115
2.56315
2.57571
2.5889
2.60281
2.61756
2.63332
2.65043
2.66923
2.69177
2.72224
2.83719
16.8722
15.7448
14.7444
14.0726
13.592
13.2318
12.9508
12.7245
12.5381
12.382
12.2495
12.1359
12.0376
11.9517
11.8763
11.8096
11.7504
11.6975
11.6501
11.6074
11.5689
11.534
11.5023
11.4734
11.4471
11.423
11.4009
11.3806
11.362
11.3447
11.3288
11.3141
11.3005
11.2879
11.2763
11.2655
11.2556
11.2463
11.2379
11.2301
11.223
11.2166
11.2108
11.2058
11.2015
11.198
11.1953
11.1936
11.1929
11.1932
11.1949
11.1979
11.2025
11.2087
11.2169
11.2271
11.2395
11.2545
11.2723
11.2931
11.3174
11.3453
11.3795
11.4068
11.4338
11.4607
11.4893
11.5197
11.5517
11.5854
11.6208
11.6578
11.6966
11.7371
11.7795
11.8237
11.87
11.9185
11.9693
12.0228
12.0793
12.1393
12.2036
12.2734
12.3508
12.4404
12.5488
12.5636
18.5626
18.4965
17.5394
16.8384
16.3247
15.9356
15.6304
15.3838
15.1801
15.0093
14.8642
14.7395
14.6315
14.5372
14.4542
14.3809
14.3156
14.2574
14.2052
14.1582
14.1157
14.0772
14.0423
14.0104
13.9814
13.9548
13.9305
13.9081
13.8875
13.8685
13.8509
13.8347
13.8197
13.8058
13.7929
13.781
13.77
13.7598
13.7504
13.7418
13.734
13.7268
13.7204
13.7148
13.7099
13.7059
13.7027
13.7006
13.6994
13.6995
13.7009
13.7037
13.708
13.7142
13.7223
13.7324
13.745
13.76
13.778
13.7991
13.8236
13.852
13.8859
13.9121
13.9396
13.9673
13.9962
14.0267
14.0587
14.0923
14.1275
14.1642
14.2025
14.2425
14.2841
14.3274
14.3725
14.4194
14.4684
14.5196
14.5733
14.6297
14.6895
14.7536
14.8222
14.9008
14.9679
14.8995
18.4198
19.567
18.7631
18.0859
17.573
17.179
16.8679
16.6156
16.4067
16.2312
16.0819
15.9535
15.8422
15.7449
15.6592
15.5835
15.5162
15.456
15.402
15.3534
15.3095
15.2697
15.2336
15.2007
15.1707
15.1432
15.118
15.0949
15.0736
15.0539
15.0357
15.019
15.0034
14.9891
14.9758
14.9634
14.952
14.9415
14.9318
14.9228
14.9146
14.9072
14.9005
14.8946
14.8894
14.8851
14.8816
14.8791
14.8776
14.8772
14.8781
14.8804
14.8842
14.8897
14.897
14.9063
14.9179
14.9319
14.9486
14.9682
14.991
15.0177
15.0486
15.0718
15.0973
15.1236
15.1505
15.1788
15.2083
15.2392
15.2715
15.3051
15.34
15.3762
15.4138
15.4528
15.4932
15.5351
15.5784
15.6234
15.6702
15.7189
15.7697
15.8233
15.8785
15.9403
15.9734
15.89
17.5093
19.9419
19.3765
18.7571
18.2629
17.8757
17.5669
17.3152
17.1062
16.9302
16.7801
16.651
16.5388
16.4408
16.3544
16.278
16.21
16.1493
16.0948
16.0457
16.0013
15.9611
15.9246
15.8914
15.861
15.8333
15.8078
15.7844
15.7628
15.743
15.7246
15.7076
15.6919
15.6774
15.664
15.6515
15.64
15.6293
15.6195
15.6104
15.6021
15.5945
15.5876
15.5815
15.5761
15.5716
15.5678
15.565
15.5631
15.5623
15.5626
15.5643
15.5673
15.5719
15.5782
15.5863
15.5965
15.6089
15.6237
15.6412
15.6615
15.6855
15.7125
15.732
15.7544
15.7781
15.8023
15.8274
15.8535
15.8806
15.9089
15.9382
15.9685
15.9999
16.0323
16.0657
16.1002
16.1356
16.172
16.2095
16.248
16.2876
16.3283
16.3703
16.4116
16.4556
16.4648
16.3954
16.1549
19.8903
19.6494
19.1205
18.6608
18.2896
17.9894
17.7428
17.537
17.3631
17.2146
17.0865
16.9751
16.8776
16.7917
16.7157
16.6479
16.5874
16.5331
16.4841
16.4399
16.3998
16.3634
16.3302
16.2999
16.2722
16.2468
16.2235
16.202
16.1821
16.1638
16.1469
16.1312
16.1167
16.1033
16.0909
16.0794
16.0687
16.0589
16.0498
16.0414
16.0338
16.0269
16.0206
16.0151
16.0104
16.0064
16.0033
16.001
15.9997
15.9994
16.0004
16.0026
16.0061
16.0112
16.018
16.0265
16.037
16.0496
16.0646
16.082
16.1027
16.1253
16.141
16.1598
16.1803
16.2011
16.2225
16.2446
16.2676
16.2913
16.3158
16.341
16.367
16.3937
16.421
16.4489
16.4775
16.5065
16.5361
16.566
16.5963
16.6267
16.6573
16.6851
16.7127
16.7059
16.6558
14.5028
19.5043
19.68
19.2792
18.8713
18.5256
18.24
18.0027
17.8033
17.634
17.4889
17.3634
17.2542
17.1584
17.0738
16.9989
16.9322
16.8725
16.8189
16.7706
16.7269
16.6873
16.6514
16.6186
16.5887
16.5614
16.5363
16.5132
16.492
16.4724
16.4543
16.4376
16.4221
16.4078
16.3945
16.3822
16.3709
16.3603
16.3506
16.3416
16.3333
16.3257
16.3187
16.3125
16.3069
16.302
16.2978
16.2944
16.2918
16.29
16.2891
16.2893
16.2906
16.2931
16.2969
16.3021
16.3089
16.3173
16.3276
16.3398
16.354
16.3711
16.3892
16.4011
16.4159
16.4326
16.4497
16.4672
16.4851
16.5036
16.5226
16.5421
16.562
16.5824
16.6032
16.6242
16.6456
16.6671
16.6888
16.7105
16.7321
16.7534
16.774
16.7937
16.8095
16.8226
16.8049
16.7684
12.644
18.8112
19.5023
19.275
18.9401
18.6313
18.3673
18.1439
17.9543
17.7921
17.6524
17.5312
17.4254
17.3323
17.2502
17.1772
17.1122
17.054
17.0017
16.9545
16.9118
16.8731
16.838
16.8059
16.7767
16.7499
16.7254
16.7028
16.6821
16.6629
16.6452
16.6288
16.6137
16.5997
16.5868
16.5748
16.5636
16.5533
16.5438
16.5349
16.5268
16.5193
16.5124
16.5062
16.5005
16.4956
16.4912
16.4876
16.4846
16.4823
16.4808
16.4803
16.4806
16.482
16.4845
16.4881
16.4931
16.4994
16.5072
16.5166
16.5275
16.5408
16.5543
16.5626
16.5733
16.5861
16.5992
16.6126
16.6263
16.6402
16.6544
16.6689
16.6835
16.6983
16.7132
16.7282
16.7431
16.7579
16.7725
16.7867
16.8004
16.8134
16.825
16.8351
16.8402
16.8412
16.8154
16.784
10.6544
17.811
19.1184
19.1205
18.8851
18.6277
18.3938
18.1902
18.0143
17.8623
17.7303
17.6152
17.5143
17.4253
17.3465
17.2765
17.2139
17.1579
17.1074
17.0619
17.0207
16.9833
16.9494
16.9184
16.8902
16.8643
16.8406
16.8187
16.7986
16.7801
16.763
16.7472
16.7326
16.719
16.7065
16.6949
16.6841
16.6741
16.6649
16.6563
16.6484
16.6411
16.6344
16.6282
16.6226
16.6176
16.6132
16.6093
16.606
16.6033
16.6013
16.6
16.5995
16.5997
16.6009
16.603
16.6061
16.6103
16.6155
16.622
16.6296
16.6391
16.6482
16.6531
16.6599
16.6686
16.6777
16.687
16.6964
16.7059
16.7154
16.725
16.7345
16.744
16.7534
16.7625
16.7714
16.7799
16.7879
16.7953
16.8018
16.8072
16.811
16.8125
16.8088
16.8
16.7677
16.7348
8.61112
16.4932
18.5108
18.8097
18.7079
18.5204
18.3279
18.1513
17.9944
17.8563
17.735
17.6283
17.5341
17.4507
17.3766
17.3105
17.2513
17.1982
17.1504
17.1071
17.068
17.0324
17.0001
16.9706
16.9437
16.919
16.8964
16.8756
16.8564
16.8388
16.8225
16.8074
16.7934
16.7805
16.7686
16.7575
16.7473
16.7378
16.7289
16.7208
16.7132
16.7061
16.6997
16.6937
16.6882
16.6833
16.6788
16.6748
16.6713
16.6682
16.6657
16.6637
16.6623
16.6616
16.6615
16.662
16.6634
16.6654
16.6683
16.672
16.6763
16.6821
16.6869
16.6888
16.6919
16.6966
16.7018
16.7071
16.7124
16.7176
16.7227
16.7277
16.7324
16.737
16.7412
16.745
16.7484
16.7512
16.7533
16.7546
16.7548
16.7537
16.7507
16.7451
16.734
16.7176
16.6799
16.6424
6.60006
14.8493
17.6478
18.3224
18.398
18.3047
18.1683
18.0283
17.897
17.7777
17.6707
17.5753
17.4902
17.4143
17.3464
17.2856
17.2311
17.1819
17.1375
17.0973
17.0609
17.0277
16.9976
16.9701
16.9449
16.9219
16.9008
16.8813
16.8634
16.8469
16.8316
16.8175
16.8045
16.7925
16.7813
16.771
16.7614
16.7525
16.7442
16.7366
16.7295
16.7228
16.7167
16.711
16.7058
16.701
16.6966
16.6926
16.6889
16.6856
16.6827
16.6801
16.678
16.6763
16.675
16.6742
16.6738
16.6739
16.6744
16.6755
16.6768
16.679
16.6799
16.6791
16.679
16.68
16.6815
16.683
16.6844
16.6857
16.6868
16.6875
16.688
16.688
16.6876
16.6867
16.6852
16.6831
16.6801
16.6762
16.6711
16.6646
16.6559
16.6445
16.6276
16.6052
16.5633
16.521
4.71675
12.8857
16.488
17.6255
17.9334
17.9662
17.9054
17.8147
17.7177
17.6237
17.5359
17.4555
17.3826
17.3167
17.2572
17.2034
17.1549
17.111
17.0712
17.035
17.0021
16.9721
16.9448
16.9199
16.8971
16.8762
16.857
16.8394
16.8231
16.8081
16.7942
16.7814
16.7695
16.7586
16.7485
16.7391
16.7304
16.7223
16.7148
16.7079
16.7014
16.6953
16.6897
16.6845
16.6796
16.6751
16.6709
16.667
16.6633
16.6599
16.6566
16.6537
16.6509
16.6484
16.6461
16.644
16.6422
16.6405
16.639
16.6376
16.6361
16.6351
16.6325
16.6294
16.6265
16.6244
16.6224
16.6205
16.6185
16.6163
16.6137
16.6108
16.6074
16.6036
16.5992
16.5943
16.5887
16.5824
16.5752
16.567
16.5575
16.5465
16.5334
16.5174
16.496
16.4691
16.4245
16.3788
3.06207
10.6402
14.9868
16.6735
17.2806
17.4809
17.5215
17.497
17.4462
17.3859
17.3238
17.2636
17.2068
17.1541
17.1055
17.0611
17.0205
16.9835
16.9497
16.9188
16.8906
16.8648
16.8413
16.8198
16.8
16.7819
16.7652
16.7499
16.7357
16.7226
16.7106
16.6994
16.6891
16.6796
16.6708
16.6627
16.6551
16.6481
16.6416
16.6356
16.6299
16.6247
16.6198
16.6151
16.6108
16.6068
16.6029
16.5993
16.5958
16.5924
16.589
16.5858
16.5826
16.5795
16.5764
16.5733
16.5702
16.567
16.5637
16.5603
16.5564
16.5525
16.5471
16.542
16.5369
16.5321
16.5273
16.5224
16.5174
16.5121
16.5065
16.5004
16.4939
16.4868
16.4792
16.471
16.462
16.4523
16.4417
16.4301
16.4172
16.4028
16.3861
16.3666
16.3419
16.3118
16.2659
16.2187
1.73124
8.19986
13.1084
15.4101
16.3932
16.8134
16.9894
17.054
17.0652
17.0501
17.0223
16.9888
16.9535
16.9183
16.8843
16.8522
16.8221
16.7942
16.7683
16.7443
16.7222
16.7019
16.6833
16.6661
16.6504
16.6359
16.6225
16.6101
16.5987
16.5882
16.5784
16.5695
16.5612
16.5535
16.5465
16.5399
16.5339
16.5283
16.5231
16.5182
16.5137
16.5095
16.5055
16.5017
16.4982
16.4948
16.4915
16.4884
16.4853
16.4821
16.4789
16.4756
16.4723
16.4688
16.4652
16.4614
16.4573
16.453
16.4482
16.4431
16.4373
16.4311
16.4233
16.4167
16.4098
16.403
16.3959
16.3887
16.3813
16.3735
16.3654
16.3568
16.3477
16.3381
16.3279
16.3171
16.3055
16.2932
16.2801
16.2658
16.2503
16.2332
16.214
16.1918
16.1648
16.1326
16.0867
16.0397
0.796605
5.71938
10.8472
13.7742
15.2113
15.9151
16.2707
16.4545
16.5489
16.5946
16.6127
16.6151
16.6083
16.5964
16.5818
16.566
16.5498
16.5338
16.5183
16.5034
16.4894
16.4762
16.464
16.4526
16.442
16.4322
16.4231
16.4147
16.4069
16.3996
16.3929
16.3867
16.381
16.3758
16.371
16.3665
16.3624
16.3586
16.3551
16.3518
16.3488
16.3459
16.3432
16.3406
16.338
16.3356
16.3332
16.3308
16.3284
16.3257
16.3229
16.3199
16.3167
16.3132
16.3094
16.3052
16.3005
16.2954
16.2897
16.2833
16.2761
16.2682
16.2586
16.251
16.2429
16.2346
16.2259
16.217
16.2077
16.1981
16.1881
16.1776
16.1666
16.1551
16.143
16.1302
16.1168
16.1026
16.0875
16.0714
16.054
16.035
16.0138
15.9898
15.9613
15.9279
15.8832
15.8372
0.277773
3.43006
8.26292
11.7159
13.6646
14.723
15.313
15.6555
15.8615
15.9888
16.0686
16.119
16.1505
16.1698
16.1809
16.1867
16.189
16.1888
16.187
16.1842
16.1807
16.177
16.1731
16.1693
16.1655
16.1619
16.1584
16.1551
16.1519
16.1489
16.1462
16.1437
16.1414
16.1392
16.1373
16.1356
16.134
16.1326
16.1313
16.1301
16.1289
16.1278
16.1267
16.1256
16.1246
16.1234
16.1222
16.1209
16.1195
16.1177
16.1157
16.1133
16.1105
16.1073
16.1037
16.0995
16.0947
16.0893
16.0831
16.0761
16.0679
16.0589
16.0483
16.04
16.0311
16.0219
16.0123
16.0022
15.9918
15.9809
15.9696
15.9578
15.9455
15.9327
15.9192
15.9052
15.8904
15.8749
15.8585
15.8411
15.8223
15.802
15.7796
15.7543
15.725
15.6911
15.6484
15.6042
0.0744749
1.61208
5.52858
9.22958
11.6843
13.1606
14.0481
14.5987
14.9535
15.1902
15.3531
15.4681
15.5511
15.6121
15.6577
15.6924
15.7192
15.7401
15.7566
15.7697
15.7802
15.7889
15.7962
15.8023
15.8075
15.812
15.8158
15.8192
15.8221
15.8248
15.8272
15.8294
15.8315
15.8335
15.8354
15.8372
15.839
15.8406
15.8421
15.8436
15.8449
15.8462
15.8473
15.8482
15.8491
15.8497
15.8502
15.8504
15.8504
15.8499
15.849
15.8477
15.8458
15.8434
15.8403
15.8366
15.8322
15.827
15.8208
15.8136
15.8052
15.7958
15.7847
15.7761
15.7669
15.7574
15.7472
15.7366
15.7256
15.7141
15.702
15.6895
15.6764
15.6628
15.6485
15.6337
15.6181
15.6017
15.5845
15.5661
15.5465
15.5253
15.502
15.476
15.4465
15.4129
15.3726
15.3305
0.016696
0.510456
2.97604
6.41604
9.23399
11.1493
12.3932
13.2089
13.7588
14.1413
14.4155
14.6175
14.7697
14.887
14.9791
15.0526
15.1123
15.1614
15.2022
15.2366
15.2658
15.2911
15.3131
15.3324
15.3494
15.3646
15.3781
15.3903
15.4014
15.4114
15.4207
15.4292
15.4371
15.4445
15.4513
15.4578
15.4638
15.4695
15.4748
15.4798
15.4844
15.4887
15.4927
15.4963
15.4997
15.5027
15.5054
15.5077
15.5096
15.511
15.5118
15.512
15.5115
15.5104
15.5085
15.5058
15.5022
15.4977
15.4921
15.4854
15.4774
15.4681
15.4572
15.4488
15.4397
15.4302
15.42
15.4093
15.3981
15.3864
15.3741
15.3613
15.3479
15.3339
15.3193
15.304
15.2879
15.2711
15.2533
15.2344
15.2142
15.1924
15.1687
15.1424
15.1131
15.0803
15.0427
15.0027
0.00327034
0.102652
1.08563
3.57644
6.37985
8.64169
10.2644
11.3968
12.1937
12.7664
13.1883
13.5065
13.7519
13.945
14.0996
14.2255
14.3295
14.4165
14.4901
14.553
14.6073
14.6547
14.6964
14.7333
14.7662
14.7956
14.822
14.846
14.8677
14.8876
14.9059
14.9227
14.9383
14.9528
14.9662
14.9788
14.9905
15.0015
15.0118
15.0214
15.0303
15.0387
15.0465
15.0537
15.0604
15.0665
15.0722
15.0773
15.0818
15.0857
15.0889
15.0913
15.0929
15.0936
15.0934
15.0924
15.0902
15.087
15.0827
15.077
15.0699
15.0614
15.0513
15.0434
15.0348
15.0257
15.0159
15.0055
14.9945
14.9829
14.9708
14.958
14.9446
14.9306
14.9158
14.9004
14.8842
14.8671
14.849
14.8298
14.8093
14.7872
14.7632
14.737
14.7083
14.6769
14.642
14.6039
0.000557913
0.0153113
0.221557
1.30665
3.42207
5.70615
7.61854
9.0779
10.1631
10.9723
11.5842
12.0552
12.4245
12.719
12.9578
13.1543
13.3181
13.4563
13.574
13.6754
13.7635
13.8407
13.9089
13.9694
14.0235
14.072
14.1158
14.1554
14.1915
14.2245
14.2548
14.2827
14.3085
14.3325
14.3547
14.3754
14.3947
14.4127
14.4296
14.4453
14.46
14.4737
14.4865
14.4985
14.5097
14.52
14.5296
14.5384
14.5465
14.5538
14.5601
14.5655
14.5699
14.5733
14.5756
14.5768
14.5769
14.5756
14.5731
14.5691
14.5636
14.5566
14.5478
14.5408
14.533
14.5246
14.5154
14.5056
14.4951
14.484
14.4722
14.4597
14.4466
14.4327
14.4181
14.4026
14.3864
14.3692
14.3509
14.3316
14.3109
14.2887
14.2648
14.2391
14.2113
14.1815
14.1491
14.1128
7.9141e-05
0.00191099
0.027652
0.244071
1.0989
2.71148
4.56871
6.23485
7.59223
8.66311
9.50264
10.1652
10.694
11.1217
11.4721
11.7628
12.0069
12.214
12.3913
12.5447
12.6784
12.7959
12.8998
12.9922
13.0748
13.1491
13.2162
13.277
13.3324
13.383
13.4295
13.4724
13.5119
13.5485
13.5825
13.6141
13.6435
13.6709
13.6965
13.7204
13.7428
13.7637
13.7833
13.8016
13.8187
13.8346
13.8495
13.8633
13.8761
13.8878
13.8985
13.908
13.9162
13.9231
13.9288
13.9332
13.9362
13.9377
13.9378
13.9362
13.9329
13.9279
13.9212
13.9154
13.9087
13.9012
13.893
13.884
13.8743
13.8638
13.8526
13.8405
13.8278
13.8142
13.7997
13.7845
13.7683
13.7511
13.7328
13.7134
13.6928
13.6707
13.6472
13.6221
13.5956
13.5675
13.5375
13.5027
7.77975e-06
0.000200819
0.00268109
0.0251212
0.162167
0.660208
1.69603
3.09762
4.53204
5.80049
6.86168
7.73637
8.45541
9.04824
9.54068
9.95365
10.3032
10.6017
10.8587
11.0817
11.2767
11.4484
11.6004
11.7359
11.8572
11.9663
12.0648
12.1543
12.2358
12.3103
12.3786
12.4416
12.4996
12.5533
12.6031
12.6493
12.6924
12.7324
12.7698
12.8048
12.8374
12.868
12.8966
12.9234
12.9485
12.972
12.994
13.0145
13.0336
13.0513
13.0677
13.0826
13.096
13.1078
13.118
13.1267
13.1337
13.139
13.1425
13.1442
13.1439
13.1417
13.1375
13.1333
13.1281
13.122
13.115
13.1071
13.0983
13.0886
13.0781
13.0667
13.0544
13.0412
13.0271
13.0121
12.996
12.979
12.9609
12.9416
12.9212
12.8995
12.8766
12.8525
12.8273
12.8011
12.7732
12.7397
8.15768e-07
1.70367e-05
0.000216105
0.00193532
0.0130159
0.0677835
0.265583
0.747354
1.56405
2.61221
3.71611
4.74249
5.63817
6.40343
7.05658
7.61612
8.09706
8.51191
8.87148
9.1851
9.46047
9.70379
9.92001
10.1131
10.2863
10.4423
10.5833
10.7114
10.828
10.9347
11.0326
11.1226
11.2056
11.2824
11.3535
11.4196
11.481
11.5382
11.5915
11.6414
11.688
11.7316
11.7725
11.8108
11.8467
11.8804
11.912
11.9415
11.9691
11.9949
12.0188
12.0411
12.0614
12.0798
12.0961
12.1105
12.1229
12.1332
12.1414
12.1474
12.1511
12.1526
12.1518
12.1498
12.1465
12.1421
12.1366
12.1301
12.1226
12.114
12.1044
12.0939
12.0823
12.0697
12.0561
12.0415
12.0258
12.0091
11.9913
11.9725
11.9526
11.9316
11.9097
11.8868
11.8632
11.8388
11.813
11.7807
4.75378e-07
1.04393e-06
1.40653e-05
0.000122062
0.000793195
0.00414577
0.018108
0.0664757
0.201041
0.489335
0.971482
1.6311
2.40342
3.20768
3.97845
4.67912
5.29867
5.84157
6.31819
6.73918
7.11327
7.44713
7.746
8.01417
8.25543
8.47309
8.67014
8.84916
9.0124
9.16177
9.29889
9.42513
9.54164
9.64941
9.74931
9.84208
9.92837
10.0088
10.0837
10.1538
10.2193
10.2806
10.3381
10.392
10.4425
10.49
10.5345
10.5762
10.6153
10.6519
10.6861
10.718
10.7477
10.7749
10.7995
10.8216
10.8412
10.8583
10.8728
10.8846
10.8938
10.9002
10.9039
10.9048
10.9041
10.902
10.8987
10.8941
10.8882
10.8812
10.873
10.8636
10.8531
10.8415
10.8288
10.815
10.8001
10.7842
10.7672
10.7492
10.7303
10.7105
10.6899
10.6686
10.6467
10.6243
10.6005
10.5699
4.64348e-07
1.43706e-07
6.94464e-07
6.16472e-06
3.91187e-05
0.000198581
0.00085392
0.00319326
0.0105544
0.0310585
0.0812132
0.18658
0.374472
0.66209
1.04928
1.51913
2.04378
2.59198
3.13585
3.6548
4.1365
4.57573
4.97237
5.32932
5.6509
5.94168
6.20589
6.44714
6.66836
6.87192
7.05973
7.23337
7.39415
7.54322
7.6816
7.8102
7.92985
8.04131
8.14527
8.24234
8.33309
8.41802
8.4976
8.57222
8.64224
8.70798
8.76971
8.82768
8.8821
8.93316
8.981
9.02576
9.06766
9.1067
9.14248
9.17507
9.20449
9.23074
9.2538
9.27363
9.29018
9.30342
9.3134
9.31823
9.3211
9.32234
9.32202
9.32018
9.31688
9.31216
9.30607
9.29866
9.28996
9.28003
9.2689
9.25662
9.24323
9.22878
9.21334
9.19697
9.17974
9.16174
9.14307
9.12384
9.10415
9.08402
9.06273
9.03432
4.64147e-07
1.15592e-07
5.61443e-08
2.39401e-07
1.5149e-06
7.56875e-06
3.18338e-05
0.000116985
0.000383305
0.00113554
0.00307761
0.00769523
0.0178613
0.0385711
0.0773103
0.143358
0.245862
0.391503
0.582895
0.818243
1.09203
1.39619
1.72134
2.05799
2.39735
2.732
3.05615
3.36571
3.65809
3.93197
4.18704
4.42367
4.64273
4.84536
5.03283
5.20645
5.36749
5.51716
5.65655
5.78662
5.90825
6.02219
6.1291
6.22956
6.32405
6.413
6.49679
6.57572
6.65007
6.72008
6.78595
6.84785
6.90595
6.96062
7.01157
7.05847
7.10139
7.14035
7.17536
7.20639
7.23341
7.25639
7.2754
7.28598
7.29418
7.30037
7.30464
7.30707
7.30775
7.30675
7.30415
7.30003
7.29447
7.28753
7.2793
7.26985
7.25925
7.24758
7.23494
7.22141
7.20707
7.19203
7.17637
7.16021
7.14362
7.12662
7.10866
7.08406
4.64221e-07
1.14994e-07
3.86123e-08
2.10627e-08
4.84062e-08
2.21355e-07
9.19275e-07
3.33053e-06
1.0764e-05
3.15414e-05
8.48557e-05
0.00021165
0.000493623
0.00108415
0.0022543
0.00445766
0.00841723
0.0152234
0.0264066
0.0439321
0.0700806
0.107218
0.157502
0.222601
0.303499
0.400409
0.512809
0.639555
0.779029
0.929303
1.08829
1.25384
1.4239
1.59651
1.7699
1.94251
2.11299
2.28021
2.44327
2.60146
2.75423
2.90122
3.04216
3.17693
3.30547
3.42781
3.54402
3.65422
3.75855
3.85717
3.95024
4.03794
4.12042
4.19788
4.27097
4.33906
4.40195
4.45967
4.51229
4.55981
4.60224
4.6396
4.67194
4.69099
4.70715
4.7208
4.73206
4.74108
4.74798
4.7529
4.75595
4.75725
4.75692
4.75508
4.75184
4.74729
4.74156
4.73474
4.72694
4.71825
4.70878
4.69861
4.68784
4.67654
4.6648
4.65265
4.63983
4.62236
4.64306e-07
1.15001e-07
3.82934e-08
1.61707e-08
8.77853e-09
8.75164e-09
2.16294e-08
7.17006e-08
2.2725e-07
6.58769e-07
1.75669e-06
4.35015e-06
1.00885e-05
2.20659e-05
4.57784e-05
9.05233e-05
0.000171397
0.000312008
0.000547895
0.000930568
0.00153221
0.00245115
0.003818
0.00580168
0.00861374
0.0125092
0.0177826
0.024758
0.0337753
0.0451721
0.0592648
0.0763309
0.0965935
0.12021
0.147267
0.177776
0.211678
0.24885
0.28911
0.33223
0.377946
0.425965
0.475976
0.527658
0.580684
0.634732
0.689482
0.744625
0.799861
0.854904
0.909479
0.963327
1.0162
1.06786
1.1181
1.16716
1.215
1.2614
1.30616
1.34908
1.38996
1.42864
1.46494
1.48774
1.5088
1.52823
1.54609
1.56243
1.57732
1.59081
1.60296
1.61386
1.62355
1.63212
1.63964
1.64616
1.65176
1.65651
1.66048
1.66372
1.6663
1.66829
1.66973
1.67068
1.6712
1.67133
1.6711
1.67027
4.64394e-07
1.15018e-07
3.82949e-08
1.60993e-08
8.10162e-09
4.70994e-09
3.21587e-09
3.00672e-09
4.72021e-09
1.07174e-08
2.66231e-08
6.441e-08
1.47827e-07
3.21296e-07
6.636e-07
1.30796e-06
2.47049e-06
4.48881e-06
7.87197e-06
1.33615e-05
2.20041e-05
3.52374e-05
5.49896e-05
8.37919e-05
0.000124897
0.000182393
0.000261306
0.00036768
0.000508645
0.000692456
0.000928528
0.00122744
0.00160093
0.00206179
0.0026238
0.00330145
0.00410972
0.00506362
0.00617776
0.00746581
0.00893991
0.01061
0.0124833
0.0145636
0.0168507
0.01934
0.0220219
0.0248815
0.0278982
0.0310459
0.0342922
0.0375991
0.0409227
0.0442072
0.0473901
0.0507072
0.0541732
0.0577683
0.0614714
0.0652591
0.0691068
0.0729888
0.0768782
0.079425
0.0818918
0.0842734
0.0865654
0.0887644
0.0908679
0.0928746
0.0947837
0.0965955
0.0983108
0.0999313
0.101459
0.102896
0.104246
0.105512
0.106697
0.107805
0.10884
0.109805
0.110705
0.111543
0.112323
0.113049
0.113725
0.114378
4.64477e-07
1.15034e-07
3.83002e-08
1.61007e-08
8.09497e-09
4.66084e-09
2.97443e-09
2.05752e-09
1.52858e-09
1.23732e-09
1.1531e-09
1.34615e-09
2.01853e-09
3.57756e-09
6.75885e-09
1.28125e-08
2.37678e-08
4.27932e-08
7.46631e-08
1.26338e-07
2.07658e-07
3.32154e-07
5.17973e-07
7.88915e-07
1.17553e-06
1.71625e-06
2.4584e-06
3.45918e-06
4.78634e-06
6.51873e-06
8.74655e-06
1.15713e-05
1.51055e-05
1.94715e-05
2.48003e-05
3.12288e-05
3.88963e-05
4.79397e-05
5.84863e-05
7.0646e-05
8.44997e-05
0.000100087
0.000117388
0.00013631
0.000156662
0.000178132
0.000200269
0.000222451
0.000243867
0.000263492
0.000280076
0.000292085
0.000297784
0.000300276
0.000303457
0.000307332
0.00031191
0.000317195
0.000323185
0.00032987
0.000337232
0.000345243
0.000353865
0.000359771
0.000365743
0.000371749
0.00037776
0.00038375
0.000389691
0.000395563
0.000401345
0.000407018
0.000412568
0.000417981
0.000423246
0.000428354
0.0004333
0.000438079
0.000442686
0.000447121
0.000451383
0.000455474
0.000459394
0.000463148
0.000466738
0.000470168
0.000473443
0.000476744
4.64535e-07
1.15046e-07
3.8304e-08
1.61022e-08
8.09564e-09
4.66086e-09
2.97272e-09
2.04962e-09
1.50053e-09
1.15141e-09
9.17571e-10
7.54992e-10
6.40057e-10
5.60711e-10
5.12722e-10
4.98553e-10
5.27844e-10
6.19063e-10
8.0216e-10
1.12215e-09
1.6436e-09
2.45593e-09
3.67951e-09
5.47246e-09
8.03778e-09
1.16308e-08
1.65661e-08
2.32241e-08
3.20561e-08
4.35875e-08
5.84191e-08
7.72251e-08
1.00748e-07
1.29787e-07
1.65183e-07
2.07789e-07
2.58436e-07
3.1788e-07
3.86732e-07
4.65365e-07
5.53804e-07
6.51577e-07
7.57558e-07
8.69776e-07
9.85224e-07
1.09968e-06
1.20755e-06
1.30182e-06
1.37398e-06
1.41463e-06
1.41388e-06
1.40995e-06
1.40648e-06
1.40317e-06
1.4e-06
1.39693e-06
1.39394e-06
1.39098e-06
1.38804e-06
1.38506e-06
1.38202e-06
1.37889e-06
1.37564e-06
1.37344e-06
1.37123e-06
1.369e-06
1.36676e-06
1.36451e-06
1.36227e-06
1.36003e-06
1.35781e-06
1.35562e-06
1.35347e-06
1.35138e-06
1.34936e-06
1.34742e-06
1.34558e-06
1.34384e-06
1.34222e-06
1.34073e-06
1.33938e-06
1.33817e-06
1.33712e-06
1.33622e-06
1.33548e-06
1.3349e-06
1.33449e-06
1.33476e-06
4.64562e-07
1.15052e-07
3.83058e-08
1.61029e-08
8.09598e-09
4.66106e-09
2.97283e-09
2.04966e-09
1.50042e-09
1.15093e-09
9.16123e-10
7.51232e-10
6.31129e-10
5.40951e-10
4.71502e-10
4.16879e-10
3.73179e-10
3.37765e-10
3.08843e-10
2.85206e-10
2.6608e-10
2.51036e-10
2.39934e-10
2.32905e-10
2.30338e-10
2.3288e-10
2.41449e-10
2.5724e-10
2.81736e-10
3.16706e-10
3.64206e-10
4.26552e-10
5.06283e-10
6.06091e-10
7.2871e-10
8.76756e-10
1.05249e-09
1.25752e-09
1.49234e-09
1.75579e-09
2.0444e-09
2.35158e-09
2.66674e-09
2.9745e-09
3.25399e-09
3.47869e-09
3.61694e-09
3.65517e-09
3.69891e-09
3.7466e-09
3.79692e-09
3.85243e-09
3.91751e-09
3.99907e-09
4.10814e-09
4.26222e-09
4.48907e-09
4.83248e-09
5.36105e-09
6.18134e-09
7.45706e-09
9.43682e-09
1.24927e-08
1.51224e-08
1.84532e-08
2.26283e-08
2.7805e-08
3.41539e-08
4.18569e-08
5.11036e-08
6.20878e-08
7.5003e-08
9.00381e-08
1.07373e-07
1.27172e-07
1.49585e-07
1.74735e-07
2.02725e-07
2.33628e-07
2.67486e-07
3.04316e-07
3.44099e-07
3.86791e-07
4.32318e-07
4.80579e-07
5.3145e-07
5.84784e-07
6.40492e-07
4.64562e-07
1.15052e-07
3.83058e-08
1.61029e-08
8.09598e-09
4.66105e-09
2.97283e-09
2.04966e-09
1.50042e-09
1.15092e-09
9.16121e-10
7.51226e-10
6.31116e-10
5.40921e-10
4.71442e-10
4.16761e-10
3.72958e-10
3.37368e-10
3.08157e-10
2.8406e-10
2.64222e-10
2.48106e-10
2.35435e-10
2.26157e-10
2.20436e-10
2.18646e-10
2.21379e-10
2.29449e-10
2.4391e-10
2.66069e-10
2.97501e-10
3.40075e-10
3.95974e-10
4.67742e-10
5.58342e-10
6.71254e-10
8.10618e-10
9.81458e-10
1.19001e-09
1.4442e-09
1.75435e-09
2.13417e-09
2.60217e-09
3.18372e-09
3.9139e-09
4.84164e-09
6.0357e-09
7.59315e-09
9.65182e-09
1.24082e-08
1.61434e-08
2.12607e-08
2.83398e-08
3.82136e-08
5.20783e-08
7.16462e-08
9.93581e-08
1.38672e-07
1.94449e-07
2.7346e-07
3.85033e-07
5.41873e-07
7.61046e-07
9.38716e-07
1.15102e-06
1.40251e-06
1.69775e-06
2.04124e-06
2.43734e-06
2.89016e-06
3.40345e-06
3.98048e-06
4.624e-06
5.33611e-06
6.11827e-06
6.97121e-06
7.89494e-06
8.88876e-06
9.95126e-06
1.10804e-05
1.22734e-05
1.35271e-05
1.48377e-05
1.62011e-05
1.76128e-05
1.9068e-05
2.05617e-05
2.20902e-05
4.64534e-07
1.15046e-07
3.83039e-08
1.61022e-08
8.09563e-09
4.66086e-09
2.97272e-09
2.04959e-09
1.50045e-09
1.15116e-09
9.16887e-10
7.53285e-10
6.36111e-10
5.52175e-10
4.95291e-10
4.64714e-10
4.65015e-10
5.0696e-10
6.0922e-10
8.00824e-10
1.12433e-09
1.63967e-09
2.42869e-09
3.60021e-09
5.29564e-09
7.69498e-09
1.10229e-08
1.55549e-08
2.16227e-08
2.96196e-08
4.00052e-08
5.33102e-08
7.01407e-08
9.11849e-08
1.17222e-07
1.49132e-07
1.87922e-07
2.34745e-07
2.90953e-07
3.58152e-07
4.3829e-07
5.33784e-07
6.47686e-07
7.83914e-07
9.47562e-07
1.14532e-06
1.38601e-06
1.68135e-06
2.04689e-06
2.5033e-06
3.07801e-06
3.80736e-06
4.73937e-06
5.93717e-06
7.48341e-06
9.48556e-06
1.20824e-05
1.54513e-05
1.98175e-05
2.54626e-05
3.27359e-05
4.20642e-05
5.39623e-05
6.30808e-05
7.34025e-05
8.50057e-05
9.79535e-05
0.000112297
0.000128074
0.000145309
0.000164012
0.000184178
0.000205786
0.000228801
0.000253174
0.000278844
0.000305739
0.000333775
0.000362863
0.000392905
0.000423799
0.000455438
0.000487717
0.000520527
0.000553761
0.000587314
0.000621085
0.000654998
4.64477e-07
1.15034e-07
3.83002e-08
1.61007e-08
8.09494e-09
4.66064e-09
2.97343e-09
2.05351e-09
1.51493e-09
1.19673e-09
1.04462e-09
1.08009e-09
1.41164e-09
2.27776e-09
4.12438e-09
7.72593e-09
1.43615e-08
2.60597e-08
4.59245e-08
7.85515e-08
1.30534e-07
2.11063e-07
3.32617e-07
5.11748e-07
7.69948e-07
1.13457e-06
1.63977e-06
2.32738e-06
3.24768e-06
4.46014e-06
6.03395e-06
8.04855e-06
1.05942e-05
1.37724e-05
1.76968e-05
2.2494e-05
2.83052e-05
3.52878e-05
4.36187e-05
5.3498e-05
6.5155e-05
7.88559e-05
9.49145e-05
0.000113706
0.000135684
0.000161403
0.000191543
0.000226946
0.000268644
0.00031791
0.000376298
0.000445696
0.000528381
0.000627075
0.000745001
0.000885934
0.00105425
0.00125498
0.00149378
0.00177698
0.0021115
0.00250479
0.0029646
0.0032986
0.00365757
0.00404137
0.00444929
0.00488042
0.00533368
0.00580781
0.00630139
0.00681284
0.00734044
0.00788242
0.0084369
0.009002
0.00957583
0.0101565
0.0107421
0.011331
0.0119213
0.0125114
0.0130998
0.0136851
0.0142658
0.0148408
0.015409
0.0159701
4.64397e-07
1.15019e-07
3.8295e-08
1.60989e-08
8.09737e-09
4.6832e-09
3.08967e-09
2.52582e-09
3.14421e-09
6.1537e-09
1.46538e-08
3.5431e-08
8.22305e-08
1.81265e-07
3.7993e-07
7.59829e-07
1.45549e-06
2.68036e-06
4.76158e-06
8.18378e-06
1.3642e-05
2.21038e-05
3.48825e-05
5.37206e-05
8.08847e-05
0.000119263
0.000172458
0.000244874
0.000341782
0.000469372
0.000634802
0.000846228
0.00111284
0.00144488
0.00185365
0.00235152
0.00295183
0.00366891
0.0045179
0.00551469
0.0066758
0.00801825
0.00955955
0.0113176
0.0133108
0.0155579
0.0180785
0.0208929
0.0240222
0.0274889
0.0313166
0.0355305
0.0401572