/*--------------------------------*- C++ -*----------------------------------*\
| =========                 |                                                 |
| \\      /  F ield         | OpenFOAM: The Open Source CFD Toolbox           |
|  \\    /   O peration     | Version:  5.x                                   |
|   \\  /    A nd           | Web:      www.OpenFOAM.org                      |
|    \\/     M anipulation  |                                                 |
\*---------------------------------------------------------------------------*/
FoamFile
{
    version     2.0;
    format      ascii;
    class       volScalarField;
    location    "990";
    object      p;
}
// * * * * * * * * * * * * * * * * * * * * * * * * * * * * * * * * * * * * * //

dimensions      [0 2 -2 0 0 0 0];

internalField   nonuniform List<scalar> 
20540
(
52.8107
54.8386
52.8107
54.8388
52.8107
54.8396
52.8107
54.8404
52.8107
54.8409
52.8107
54.8409
52.8107
54.84
52.8107
54.8377
52.8107
54.8335
52.8107
54.8266
52.8107
54.8163
52.8107
54.8014
52.8107
54.781
52.8107
54.754
52.8107
54.7195
52.8107
54.6768
52.8106
54.6248
52.8106
54.5625
52.8106
54.4883
52.8105
54.4002
52.8103
54.2963
52.8101
54.1743
52.8097
54.0323
52.8092
53.8684
52.8084
53.6817
52.8074
53.4724
52.806
53.2428
52.8042
52.999
52.802
52.7521
52.7996
52.522
52.7978
52.3616
52.7969
52.2839
52.7969
52.2847
52.7978
52.3637
52.7997
52.5231
52.8019
52.746
52.804
52.9853
52.8058
53.2229
52.8073
53.4478
52.8083
53.6544
52.8091
53.8399
52.8097
54.0038
52.81
54.147
52.8103
54.2709
52.8105
54.3772
52.8106
54.4679
52.8106
54.545
52.8107
54.6101
52.8107
54.665
52.8107
54.7107
52.8107
54.7483
52.8107
54.7784
52.8107
54.8019
52.8107
54.8195
52.8107
54.8323
52.8107
54.8413
52.8107
54.8471
52.8107
54.8507
52.8107
54.8526
52.8107
54.8533
52.8107
54.8532
52.8107
54.8527
52.8107
54.8519
52.8107
54.8512
52.8107
54.851
48.5634
33.858
22.5617
13.7238
6.09032
-1.00582
-7.71059
-14.0163
-19.9407
-25.5267
-30.8124
-35.8258
-40.5888
-45.12
-49.4358
-53.551
-57.4784
-61.2296
-64.815
-68.2441
-71.5255
-74.667
-77.676
-80.5593
-83.3231
-85.9732
-88.5153
-90.9543
-93.2951
-95.5422
-97.7
-99.7724
-101.764
-103.677
-105.517
-107.286
-108.989
-110.628
-112.207
-113.731
-115.202
-116.625
-118.003
-119.341
-120.644
-121.917
-123.164
-124.391
-125.606
-126.813
-128.021
-129.237
-130.468
-131.724
-133.011
-134.341
-135.723
-137.167
-138.684
-140.29
-141.99
-143.829
-145.707
-147.67
-149.291
-150.778
-152.318
-153.904
-155.532
-157.204
-158.919
-160.679
-162.485
-164.339
-166.241
-168.195
-170.203
-172.268
-174.396
-176.593
-178.867
-181.231
-183.697
-186.301
-189.039
-192.143
-195.017
-200.866
48.577
33.8599
22.5623
13.7241
6.09057
-1.00563
-7.71044
-14.0162
-19.9406
-25.5266
-30.8123
-35.8258
-40.5888
-45.1199
-49.4358
-53.551
-57.4784
-61.2296
-64.815
-68.2441
-71.5254
-74.667
-77.676
-80.5593
-83.323
-85.9732
-88.5152
-90.9543
-93.2951
-95.5422
-97.7
-99.7724
-101.764
-103.677
-105.517
-107.286
-108.989
-110.628
-112.207
-113.731
-115.202
-116.625
-118.003
-119.341
-120.644
-121.917
-123.164
-124.391
-125.606
-126.813
-128.021
-129.237
-130.468
-131.724
-133.012
-134.341
-135.723
-137.167
-138.685
-140.29
-141.991
-143.83
-145.707
-147.67
-149.291
-150.779
-152.319
-153.904
-155.533
-157.204
-158.92
-160.68
-162.486
-164.34
-166.242
-168.196
-170.204
-172.269
-174.398
-176.595
-178.869
-181.233
-183.7
-186.304
-189.042
-192.149
-195.026
-200.712
48.5936
33.8637
22.5635
13.7248
6.09103
-1.00528
-7.71016
-14.0159
-19.9404
-25.5264
-30.8121
-35.8256
-40.5886
-45.1198
-49.4357
-53.5509
-57.4783
-61.2295
-64.8149
-68.244
-71.5254
-74.6669
-77.676
-80.5592
-83.323
-85.9732
-88.5152
-90.9542
-93.295
-95.5422
-97.6999
-99.7724
-101.764
-103.677
-105.517
-107.286
-108.989
-110.628
-112.207
-113.731
-115.202
-116.625
-118.003
-119.341
-120.644
-121.917
-123.164
-124.391
-125.606
-126.813
-128.021
-129.237
-130.468
-131.724
-133.012
-134.341
-135.723
-137.167
-138.685
-140.291
-141.991
-143.83
-145.708
-147.671
-149.291
-150.779
-152.319
-153.905
-155.534
-157.205
-158.921
-160.681
-162.488
-164.341
-166.244
-168.198
-170.206
-172.272
-174.4
-176.597
-178.872
-181.236
-183.704
-186.309
-189.048
-192.158
-195.037
-200.531
48.6058
33.8693
22.5653
13.7258
6.09169
-1.00478
-7.70977
-14.0156
-19.9402
-25.5261
-30.8119
-35.8254
-40.5885
-45.1196
-49.4355
-53.5507
-57.4782
-61.2294
-64.8148
-68.2439
-71.5253
-74.6668
-77.6759
-80.5591
-83.3229
-85.9731
-88.5151
-90.9542
-93.295
-95.5421
-97.6999
-99.7723
-101.763
-103.677
-105.517
-107.286
-108.988
-110.628
-112.207
-113.731
-115.202
-116.625
-118.003
-119.341
-120.644
-121.917
-123.164
-124.391
-125.606
-126.813
-128.021
-129.237
-130.468
-131.724
-133.012
-134.342
-135.723
-137.167
-138.685
-140.291
-141.991
-143.831
-145.709
-147.672
-149.292
-150.78
-152.32
-153.906
-155.535
-157.207
-158.922
-160.683
-162.489
-164.343
-166.246
-168.2
-170.209
-172.275
-174.404
-176.601
-178.876
-181.241
-183.709
-186.316
-189.056
-192.168
-195.045
-200.369
48.6149
33.8765
22.5678
13.7271
6.09259
-1.00412
-7.70924
-14.0152
-19.9398
-25.5258
-30.8116
-35.8252
-40.5882
-45.1194
-49.4354
-53.5506
-57.478
-61.2292
-64.8147
-68.2438
-71.5252
-74.6667
-77.6758
-80.559
-83.3228
-85.973
-88.515
-90.9541
-93.2949
-95.542
-97.6998
-99.7723
-101.763
-103.677
-105.517
-107.286
-108.988
-110.628
-112.207
-113.731
-115.202
-116.625
-118.003
-119.341
-120.644
-121.917
-123.164
-124.391
-125.606
-126.813
-128.021
-129.237
-130.469
-131.724
-133.012
-134.342
-135.723
-137.168
-138.686
-140.291
-141.992
-143.831
-145.71
-147.673
-149.293
-150.781
-152.322
-153.908
-155.537
-157.209
-158.924
-160.685
-162.492
-164.346
-166.249
-168.204
-170.212
-172.279
-174.408
-176.606
-178.882
-181.247
-183.716
-186.324
-189.065
-192.179
-195.048
-200.261
48.622
33.8858
22.5713
13.729
6.0938
-1.00324
-7.70855
-14.0146
-19.9393
-25.5254
-30.8113
-35.8249
-40.588
-45.1192
-49.4351
-53.5504
-57.4778
-61.2291
-64.8145
-68.2436
-71.525
-74.6666
-77.6756
-80.5589
-83.3227
-85.9729
-88.5149
-90.954
-93.2948
-95.5419
-97.6997
-99.7722
-101.763
-103.677
-105.517
-107.286
-108.988
-110.628
-112.207
-113.731
-115.202
-116.625
-118.003
-119.341
-120.644
-121.917
-123.164
-124.391
-125.606
-126.814
-128.021
-129.237
-130.469
-131.724
-133.012
-134.342
-135.724
-137.168
-138.686
-140.292
-141.993
-143.832
-145.711
-147.674
-149.295
-150.783
-152.323
-153.91
-155.539
-157.211
-158.927
-160.688
-162.495
-164.349
-166.253
-168.207
-170.217
-172.284
-174.413
-176.612
-178.888
-181.254
-183.724
-186.333
-189.075
-192.188
-195.047
-200.208
48.6271
33.8972
22.576
13.7315
6.09542
-1.00206
-7.70763
-14.0138
-19.9387
-25.5249
-30.8108
-35.8244
-40.5876
-45.1188
-49.4348
-53.5501
-57.4776
-61.2288
-64.8143
-68.2434
-71.5248
-74.6664
-77.6755
-80.5587
-83.3225
-85.9727
-88.5148
-90.9538
-93.2946
-95.5418
-97.6996
-99.7721
-101.763
-103.677
-105.516
-107.286
-108.988
-110.628
-112.207
-113.731
-115.202
-116.625
-118.003
-119.341
-120.644
-121.917
-123.164
-124.391
-125.606
-126.814
-128.022
-129.237
-130.469
-131.724
-133.012
-134.342
-135.724
-137.169
-138.687
-140.293
-141.994
-143.833
-145.712
-147.676
-149.297
-150.785
-152.325
-153.912
-155.541
-157.214
-158.93
-160.691
-162.499
-164.353
-166.257
-168.212
-170.222
-172.289
-174.42
-176.619
-178.896
-181.263
-183.733
-186.342
-189.086
-192.193
-195.042
-200.186
48.6297
33.9109
22.5822
13.7348
6.09758
-1.0005
-7.70642
-14.0129
-19.9378
-25.5242
-30.8102
-35.8239
-40.5871
-45.1184
-49.4344
-53.5497
-57.4772
-61.2285
-64.814
-68.2431
-71.5246
-74.6662
-77.6752
-80.5585
-83.3223
-85.9725
-88.5146
-90.9536
-93.2945
-95.5416
-97.6994
-99.7719
-101.763
-103.677
-105.516
-107.286
-108.988
-110.627
-112.207
-113.731
-115.202
-116.625
-118.003
-119.341
-120.644
-121.916
-123.164
-124.391
-125.606
-126.814
-128.022
-129.238
-130.469
-131.725
-133.013
-134.343
-135.725
-137.169
-138.688
-140.294
-141.995
-143.835
-145.714
-147.677
-149.299
-150.787
-152.328
-153.915
-155.544
-157.217
-158.934
-160.695
-162.503
-164.358
-166.262
-168.218
-170.228
-172.296
-174.427
-176.627
-178.904
-181.272
-183.743
-186.352
-189.096
-192.194
-195.033
-200.162
48.6295
33.9267
22.5903
13.7393
6.10047
-0.998431
-7.70483
-14.0116
-19.9368
-25.5232
-30.8094
-35.8232
-40.5864
-45.1178
-49.4339
-53.5492
-57.4768
-61.2281
-64.8136
-68.2428
-71.5242
-74.6658
-77.6749
-80.5582
-83.3221
-85.9723
-88.5144
-90.9534
-93.2943
-95.5414
-97.6992
-99.7717
-101.763
-103.676
-105.516
-107.285
-108.988
-110.627
-112.207
-113.73
-115.202
-116.624
-118.003
-119.341
-120.644
-121.916
-123.164
-124.391
-125.606
-126.814
-128.022
-129.238
-130.469
-131.725
-133.013
-134.343
-135.725
-137.17
-138.688
-140.295
-141.996
-143.836
-145.716
-147.68
-149.301
-150.79
-152.331
-153.918
-155.548
-157.221
-158.938
-160.7
-162.508
-164.363
-166.268
-168.224
-170.235
-172.303
-174.435
-176.635
-178.913
-181.281
-183.752
-186.36
-189.103
-192.186
-195.016
-200.103
48.6259
33.9446
22.6005
13.7452
6.1043
-0.99569
-7.70272
-14.0099
-19.9353
-25.522
-30.8083
-35.8223
-40.5856
-45.1171
-49.4332
-53.5486
-57.4762
-61.2275
-64.8131
-68.2423
-71.5238
-74.6654
-77.6745
-80.5579
-83.3217
-85.972
-88.514
-90.9531
-93.294
-95.5411
-97.6989
-99.7715
-101.763
-103.676
-105.516
-107.285
-108.988
-110.627
-112.207
-113.73
-115.201
-116.624
-118.003
-119.341
-120.644
-121.916
-123.164
-124.391
-125.606
-126.814
-128.022
-129.238
-130.47
-131.725
-133.014
-134.344
-135.726
-137.171
-138.69
-140.296
-141.998
-143.838
-145.718
-147.682
-149.304
-150.793
-152.334
-153.921
-155.552
-157.225
-158.943
-160.705
-162.513
-164.369
-166.274
-168.231
-170.242
-172.311
-174.443
-176.643
-178.921
-181.289
-183.76
-186.365
-189.104
-192.163
-194.987
-199.981
48.6187
33.964
22.6133
13.7529
6.10935
-0.99207
-7.69995
-14.0076
-19.9335
-25.5204
-30.8069
-35.821
-40.5845
-45.1161
-49.4323
-53.5478
-57.4754
-61.2269
-64.8125
-68.2417
-71.5232
-74.6649
-77.674
-80.5574
-83.3213
-85.9715
-88.5136
-90.9527
-93.2936
-95.5408
-97.6986
-99.7711
-101.762
-103.676
-105.516
-107.285
-108.988
-110.627
-112.206
-113.73
-115.201
-116.624
-118.002
-119.341
-120.644
-121.916
-123.164
-124.391
-125.606
-126.814
-128.022
-129.238
-130.47
-131.726
-133.014
-134.345
-135.727
-137.172
-138.691
-140.298
-142
-143.84
-145.72
-147.685
-149.308
-150.797
-152.337
-153.925
-155.556
-157.23
-158.948
-160.71
-162.519
-164.375
-166.281
-168.238
-170.249
-172.318
-174.45
-176.65
-178.928
-181.294
-183.763
-186.363
-189.095
-192.121
-194.938
-199.773
48.6075
33.9845
22.6286
13.7627
6.11596
-0.987309
-7.69631
-14.0047
-19.9311
-25.5184
-30.8051
-35.8195
-40.5831
-45.1148
-49.4312
-53.5467
-57.4745
-61.226
-64.8116
-68.2409
-71.5225
-74.6642
-77.6734
-80.5568
-83.3207
-85.971
-88.5131
-90.9522
-93.2931
-95.5403
-97.6982
-99.7707
-101.762
-103.675
-105.515
-107.285
-108.987
-110.626
-112.206
-113.73
-115.201
-116.624
-118.002
-119.341
-120.644
-121.916
-123.163
-124.391
-125.606
-126.814
-128.022
-129.238
-130.47
-131.726
-133.015
-134.345
-135.728
-137.173
-138.692
-140.299
-142.001
-143.842
-145.723
-147.687
-149.311
-150.8
-152.341
-153.929
-155.56
-157.234
-158.952
-160.715
-162.524
-164.381
-166.287
-168.244
-170.255
-172.323
-174.455
-176.654
-178.93
-181.294
-183.758
-186.35
-189.069
-192.049
-194.855
-199.458
48.592
34.0054
22.6462
13.7749
6.12448
-0.981087
-7.69154
-14.0009
-19.9279
-25.5157
-30.8028
-35.8174
-40.5813
-45.1132
-49.4297
-53.5454
-57.4732
-61.2248
-64.8105
-68.2399
-71.5216
-74.6633
-77.6726
-80.556
-83.3199
-85.9703
-88.5124
-90.9516
-93.2925
-95.5397
-97.6976
-99.7701
-101.761
-103.675
-105.515
-107.284
-108.987
-110.626
-112.206
-113.729
-115.201
-116.623
-118.002
-119.34
-120.643
-121.916
-123.163
-124.391
-125.606
-126.814
-128.022
-129.238
-130.47
-131.726
-133.015
-134.346
-135.729
-137.174
-138.693
-140.301
-142.003
-143.844
-145.725
-147.69
-149.314
-150.804
-152.344
-153.932
-155.564
-157.238
-158.956
-160.719
-162.528
-164.385
-166.29
-168.247
-170.257
-172.325
-174.455
-176.653
-178.925
-181.284
-183.741
-186.318
-189.017
-191.937
-194.721
-199.022
48.5718
34.0262
22.6658
13.7898
6.1353
-0.97304
-7.68531
-13.9959
-19.9238
-25.5122
-30.7998
-35.8147
-40.5789
-45.111
-49.4277
-53.5436
-57.4716
-61.2233
-64.8091
-68.2386
-71.5203
-74.6622
-77.6715
-80.5549
-83.3189
-85.9693
-88.5115
-90.9507
-93.2917
-95.5389
-97.6968
-99.7694
-101.761
-103.674
-105.514
-107.283
-108.986
-110.625
-112.205
-113.729
-115.2
-116.623
-118.001
-119.34
-120.643
-121.915
-123.163
-124.391
-125.605
-126.813
-128.022
-129.238
-130.47
-131.727
-133.015
-134.346
-135.729
-137.175
-138.694
-140.302
-142.005
-143.845
-145.727
-147.691
-149.316
-150.807
-152.346
-153.934
-155.566
-157.24
-158.958
-160.721
-162.53
-164.385
-166.29
-168.245
-170.254
-172.32
-174.447
-176.641
-178.908
-181.258
-183.702
-186.257
-188.925
-191.769
-194.512
-198.461
48.5462
34.0468
22.6863
13.8073
6.14871
-0.962788
-7.67728
-13.9894
-19.9183
-25.5076
-30.7958
-35.8112
-40.5758
-45.1082
-49.4252
-53.5413
-57.4694
-61.2213
-64.8073
-68.2369
-71.5187
-74.6606
-77.67
-80.5536
-83.3176
-85.9681
-88.5103
-90.9496
-93.2906
-95.5379
-97.6958
-99.7684
-101.76
-103.673
-105.513
-107.283
-108.985
-110.625
-112.204
-113.728
-115.199
-116.622
-118.001
-119.339
-120.642
-121.915
-123.162
-124.39
-125.605
-126.813
-128.022
-129.238
-130.47
-131.726
-133.015
-134.346
-135.729
-137.175
-138.694
-140.302
-142.005
-143.845
-145.728
-147.691
-149.316
-150.808
-152.345
-153.934
-155.565
-157.239
-158.956
-160.718
-162.525
-164.38
-166.283
-168.236
-170.242
-172.304
-174.425
-176.612
-178.87
-181.206
-183.63
-186.154
-188.776
-191.525
-194.201
-197.769
48.5136
34.0679
22.7064
13.8266
6.16478
-0.950009
-7.66706
-13.981
-19.9114
-25.5016
-30.7906
-35.8067
-40.5717
-45.1046
-49.4218
-53.5382
-57.4666
-61.2187
-64.8049
-68.2346
-71.5166
-74.6586
-77.6681
-80.5518
-83.3159
-85.9665
-88.5088
-90.9481
-93.2891
-95.5365
-97.6945
-99.7672
-101.758
-103.672
-105.512
-107.281
-108.984
-110.624
-112.203
-113.727
-115.198
-116.621
-118
-119.338
-120.641
-121.914
-123.161
-124.389
-125.604
-126.812
-128.021
-129.237
-130.469
-131.726
-133.015
-134.346
-135.728
-137.174
-138.694
-140.301
-142.004
-143.843
-145.727
-147.688
-149.313
-150.806
-152.341
-153.928
-155.559
-157.231
-158.947
-160.707
-162.513
-164.364
-166.264
-168.213
-170.213
-172.269
-174.382
-176.557
-178.799
-181.115
-183.509
-185.988
-188.545
-191.18
-193.754
-196.939
48.4721
34.0909
22.725
13.8466
6.18316
-0.934569
-7.65436
-13.9705
-19.9024
-25.4939
-30.7839
-35.8007
-40.5664
-45.0998
-49.4175
-53.5342
-57.463
-61.2153
-64.8017
-68.2317
-71.5138
-74.656
-77.6656
-80.5494
-83.3137
-85.9643
-88.5067
-90.9461
-93.2873
-95.5347
-97.6927
-99.7655
-101.757
-103.671
-105.51
-107.28
-108.983
-110.622
-112.202
-113.726
-115.197
-116.62
-117.998
-119.337
-120.64
-121.913
-123.16
-124.388
-125.603
-126.811
-128.019
-129.236
-130.468
-131.724
-133.013
-134.344
-135.726
-137.172
-138.691
-140.298
-142.001
-143.837
-145.723
-147.679
-149.304
-150.799
-152.33
-153.915
-155.544
-157.214
-158.927
-160.684
-162.485
-164.332
-166.226
-168.168
-170.16
-172.204
-174.304
-176.461
-178.681
-180.965
-183.316
-185.732
-188.202
-190.704
-193.142
-195.963
48.4197
34.1167
22.7423
13.8655
6.2029
-0.916713
-7.63905
-13.9574
-19.8912
-25.4841
-30.7753
-35.7931
-40.5596
-45.0936
-49.4119
-53.5291
-57.4582
-61.2109
-64.7976
-68.2278
-71.5101
-74.6526
-77.6624
-80.5463
-83.3108
-85.9615
-88.5041
-90.9435
-93.2848
-95.5323
-97.6904
-99.7632
-101.755
-103.669
-105.508
-107.278
-108.981
-110.62
-112.2
-113.724
-115.195
-116.618
-117.997
-119.335
-120.638
-121.911
-123.158
-124.386
-125.601
-126.809
-128.017
-129.233
-130.465
-131.721
-133.009
-134.34
-135.722
-137.166
-138.685
-140.291
-141.993
-143.825
-145.713
-147.664
-149.287
-150.782
-152.309
-153.89
-155.516
-157.182
-158.89
-160.641
-162.436
-164.275
-166.159
-168.09
-170.068
-172.096
-174.174
-176.305
-178.49
-180.729
-183.019
-185.353
-187.71
-190.058
-192.332
-194.824
48.3558
34.1453
22.7591
13.8821
6.22234
-0.89727
-7.62141
-13.9419
-19.8775
-25.472
-30.7645
-35.7834
-40.5509
-45.0857
-49.4046
-53.5224
-57.452
-61.2051
-64.7922
-68.2227
-71.5054
-74.6481
-77.6581
-80.5423
-83.3069
-85.9578
-88.5005
-90.9401
-93.2815
-95.5292
-97.6874
-99.7603
-101.752
-103.666
-105.506
-107.275
-108.978
-110.618
-112.198
-113.721
-115.193
-116.616
-117.994
-119.333
-120.636
-121.908
-123.155
-124.383
-125.598
-126.805
-128.013
-129.229
-130.46
-131.715
-133.003
-134.333
-135.714
-137.157
-138.674
-140.278
-141.978
-143.805
-145.694
-147.636
-149.255
-150.751
-152.271
-153.847
-155.466
-157.126
-158.827
-160.569
-162.353
-164.179
-166.049
-167.962
-169.919
-171.921
-173.968
-176.06
-178.195
-180.37
-182.579
-184.806
-187.026
-189.202
-191.291
-193.493
48.2798
34.177
22.7765
13.896
6.23952
-0.877817
-7.60221
-13.9242
-19.8615
-25.4575
-30.7514
-35.7715
-40.54
-45.0757
-49.3954
-53.5138
-57.444
-61.1977
-64.7852
-68.2162
-71.4992
-74.6422
-77.6525
-80.537
-83.3018
-85.9529
-88.4958
-90.9357
-93.2772
-95.525
-97.6833
-99.7564
-101.748
-103.662
-105.502
-107.272
-108.975
-110.614
-112.194
-113.718
-115.189
-116.612
-117.991
-119.329
-120.632
-121.904
-123.151
-124.379
-125.593
-126.8
-128.007
-129.222
-130.453
-131.707
-132.993
-134.321
-135.7
-137.141
-138.656
-140.256
-141.953
-143.773
-145.662
-147.591
-149.203
-150.698
-152.209
-153.775
-155.385
-157.035
-158.723
-160.45
-162.218
-164.025
-165.872
-167.759
-169.684
-171.648
-173.649
-175.685
-177.752
-179.841
-181.943
-184.038
-186.098
-188.087
-189.983
-191.93
48.1902
34.2132
22.7954
13.908
6.25274
-0.860877
-7.58315
-13.9051
-19.8434
-25.4408
-30.736
-35.7573
-40.5268
-45.0635
-49.384
-53.5032
-57.4341
-61.1883
-64.7763
-68.2078
-71.4912
-74.6346
-77.6453
-80.5301
-83.2952
-85.9466
-88.4898
-90.9298
-93.2715
-95.5195
-97.6781
-99.7512
-101.743
-103.657
-105.497
-107.267
-108.97
-110.61
-112.19
-113.714
-115.185
-116.608
-117.986
-119.324
-120.627
-121.899
-123.146
-124.373
-125.586
-126.792
-127.998
-129.212
-130.441
-131.693
-132.978
-134.303
-135.679
-137.116
-138.626
-140.221
-141.911
-143.721
-145.609
-147.52
-149.12
-150.61
-152.109
-153.661
-155.257
-156.89
-158.559
-160.265
-162.007
-163.786
-165.599
-167.446
-169.325
-171.235
-173.171
-175.129
-177.102
-179.08
-181.047
-182.985
-184.866
-186.658
-188.359
-190.078
48.0851
34.2549
22.8175
13.9204
6.26324
-0.849436
-7.5683
-13.8869
-19.8241
-25.4219
-30.7182
-35.7407
-40.5114
-45.0491
-49.3704
-53.4904
-57.4219
-61.1768
-64.7654
-68.1973
-71.4813
-74.6251
-77.6362
-80.5213
-83.2867
-85.9385
-88.4819
-90.9222
-93.2642
-95.5124
-97.6712
-99.7445
-101.736
-103.651
-105.491
-107.261
-108.964
-110.604
-112.184
-113.708
-115.179
-116.602
-117.98
-119.318
-120.62
-121.892
-123.138
-124.364
-125.576
-126.781
-127.985
-129.196
-130.423
-131.672
-132.953
-134.274
-135.645
-137.077
-138.579
-140.166
-141.847
-143.642
-145.523
-147.409
-148.992
-150.472
-151.953
-153.484
-155.058
-156.666
-158.306
-159.98
-161.685
-163.421
-165.185
-166.975
-168.788
-170.621
-172.467
-174.321
-176.172
-178.009
-179.816
-181.573
-183.259
-184.849
-186.356
-187.867
47.9625
34.3026
22.844
13.9348
6.27497
-0.839942
-7.55982
-13.8765
-19.8096
-25.4037
-30.6983
-35.7212
-40.4931
-45.032
-49.3544
-53.4752
-57.4076
-61.1632
-64.7525
-68.1849
-71.4693
-74.6135
-77.625
-80.5104
-83.2762
-85.9283
-88.472
-90.9126
-93.2549
-95.5033
-97.6623
-99.7359
-101.728
-103.643
-105.483
-107.253
-108.956
-110.596
-112.176
-113.7
-115.171
-116.593
-117.971
-119.309
-120.611
-121.881
-123.126
-124.351
-125.561
-126.764
-127.965
-129.173
-130.396
-131.641
-132.916
-134.231
-135.594
-137.016
-138.508
-140.081
-141.747
-143.522
-145.389
-147.242
-148.797
-150.258
-151.715
-153.215
-154.756
-156.326
-157.925
-159.551
-161.202
-162.876
-164.569
-166.279
-168.001
-169.728
-171.455
-173.173
-174.872
-176.538
-178.158
-179.716
-181.195
-182.581
-183.894
-185.205
47.8209
34.3561
22.8754
13.9513
6.28886
-0.828079
-7.55066
-13.8697
-19.8034
-25.3958
-30.6869
-35.7055
-40.4739
-45.0112
-49.3337
-53.4558
-57.3897
-61.1466
-64.737
-68.1702
-71.4552
-74.5999
-77.6118
-80.4977
-83.2639
-85.9163
-88.4603
-90.9012
-93.2437
-95.4923
-97.6515
-99.7252
-101.718
-103.632
-105.473
-107.243
-108.946
-110.586
-112.166
-113.689
-115.16
-116.583
-117.96
-119.297
-120.597
-121.867
-123.11
-124.333
-125.54
-126.74
-127.937
-129.14
-130.356
-131.594
-132.861
-134.166
-135.517
-136.925
-138.4
-139.953
-141.596
-143.341
-145.183
-146.99
-148.506
-149.936
-151.356
-152.812
-154.303
-155.82
-157.357
-158.914
-160.487
-162.074
-163.669
-165.268
-166.865
-168.454
-170.026
-171.574
-173.085
-174.551
-175.96
-177.299
-178.559
-179.734
-180.847
-181.959
47.6593
34.4151
22.9124
13.9699
6.30467
-0.814278
-7.53926
-13.8603
-19.7956
-25.3898
-30.6824
-35.7012
-40.4682
-45.0025
-49.3213
-53.4395
-57.3701
-61.1249
-64.7144
-68.1481
-71.4342
-74.5806
-77.5941
-80.4815
-83.249
-85.9023
-88.4471
-90.8885
-93.2313
-95.4802
-97.6395
-99.7133
-101.706
-103.62
-105.461
-107.231
-108.934
-110.573
-112.153
-113.676
-115.147
-116.568
-117.944
-119.28
-120.579
-121.846
-123.087
-124.306
-125.51
-126.704
-127.895
-129.09
-130.297
-131.523
-132.778
-134.068
-135.401
-136.788
-138.238
-139.761
-141.369
-143.073
-144.873
-146.616
-148.075
-149.458
-150.825
-152.219
-153.64
-155.079
-156.53
-157.99
-159.456
-160.924
-162.387
-163.84
-165.276
-166.688
-168.069
-169.411
-170.705
-171.943
-173.118
-174.224
-175.255
-176.209
-177.114
-178.017
47.478
34.4785
22.9555
13.9907
6.32237
-0.798669
-7.52641
-13.8495
-19.7862
-25.3812
-30.6744
-35.6942
-40.4627
-44.9987
-49.3187
-53.4372
-57.3672
-61.1202
-64.7072
-68.1377
-71.4205
-74.5634
-77.574
-80.459
-83.2248
-85.8773
-88.4219
-90.8638
-93.2075
-95.4577
-97.6185
-99.6938
-101.688
-103.604
-105.446
-107.217
-108.921
-110.561
-112.141
-113.664
-115.134
-116.555
-117.93
-119.263
-120.56
-121.824
-123.061
-124.275
-125.472
-126.659
-127.841
-129.024
-130.216
-131.425
-132.66
-133.927
-135.233
-136.588
-138
-139.478
-141.034
-142.676
-144.409
-146.064
-147.441
-148.751
-150.039
-151.343
-152.664
-153.992
-155.322
-156.649
-157.968
-159.275
-160.563
-161.825
-163.056
-164.248
-165.394
-166.489
-167.526
-168.5
-169.408
-170.247
-171.017
-171.72
-172.382
-173.043
47.279
34.5445
23.0047
14.0134
6.34175
-0.781334
-7.51216
-13.8376
-19.7758
-25.3718
-30.6658
-35.6863
-40.4552
-44.9914
-49.3116
-53.4305
-57.3612
-61.1156
-64.704
-68.1359
-71.4198
-74.5635
-77.5742
-80.4587
-83.2234
-85.8743
-88.4169
-90.8563
-93.1974
-95.4448
-97.6027
-99.6753
-101.666
-103.58
-105.42
-107.189
-108.891
-110.529
-112.108
-113.63
-115.098
-116.517
-117.89
-119.221
-120.515
-121.775
-123.007
-124.215
-125.404
-126.581
-127.75
-128.918
-130.092
-131.277
-132.482
-133.716
-134.984
-136.293
-137.651
-139.067
-140.548
-142.104
-143.74
-145.281
-146.552
-147.759
-148.94
-150.123
-151.31
-152.493
-153.665
-154.821
-155.954
-157.061
-158.135
-159.169
-160.158
-161.096
-161.978
-162.8
-163.558
-164.25
-164.876
-165.436
-165.93
-166.364
-166.753
-167.129
47.0674
34.6106
23.0592
14.0375
6.36229
-0.762661
-7.49681
-13.8249
-19.7646
-25.3617
-30.6566
-35.6778
-40.4473
-44.984
-49.3047
-53.4241
-57.3551
-61.1095
-64.6978
-68.1295
-71.4131
-74.5565
-77.5673
-80.4523
-83.2177
-85.8696
-88.4134
-90.8541
-93.1966
-95.4453
-97.6044
-99.678
-101.67
-103.584
-105.424
-107.192
-108.894
-110.531
-112.108
-113.627
-115.093
-116.508
-117.876
-119.202
-120.488
-121.74
-122.961
-124.156
-125.33
-126.488
-127.636
-128.778
-129.921
-131.071
-132.232
-133.412
-134.618
-135.855
-137.131
-138.451
-139.82
-141.244
-142.727
-144.099
-145.226
-146.285
-147.308
-148.321
-149.325
-150.312
-151.274
-152.205
-153.102
-153.958
-154.768
-155.526
-156.227
-156.864
-157.434
-157.931
-158.352
-158.692
-158.948
-159.117
-159.198
-159.188
-159.089
-158.91
46.853
34.6732
23.1166
14.0621
6.38304
-0.743468
-7.48101
-13.8118
-19.7531
-25.3513
-30.6471
-35.6691
-40.4392
-44.9764
-49.2976
-53.4173
-57.3486
-61.1033
-64.6919
-68.1239
-71.4079
-74.5518
-77.563
-80.4482
-83.2138
-85.8656
-88.409
-90.8492
-93.191
-95.4389
-97.5972
-99.67
-101.661
-103.574
-105.413
-107.181
-108.882
-110.518
-112.094
-113.612
-115.075
-116.487
-117.852
-119.173
-120.452
-121.695
-122.905
-124.087
-125.244
-126.38
-127.501
-128.612
-129.716
-130.818
-131.924
-133.038
-134.166
-135.312
-136.481
-137.676
-138.898
-140.149
-141.424
-142.607
-143.573
-144.449
-145.274
-146.078
-146.862
-147.617
-148.336
-149.015
-149.65
-150.237
-150.773
-151.254
-151.677
-152.04
-152.342
-152.58
-152.756
-152.868
-152.917
-152.904
-152.83
-152.698
-152.508
-152.264
46.6529
34.7276
23.172
14.0852
6.40234
-0.725292
-7.46602
-13.7993
-19.7423
-25.3415
-30.6381
-35.6608
-40.4315
-44.9692
-49.2907
-53.4108
-57.3425
-61.0975
-64.6863
-68.1185
-71.4026
-74.5466
-77.5578
-80.443
-83.2086
-85.8604
-88.4039
-90.8444
-93.1865
-95.4348
-97.5935
-99.6667
-101.658
-103.572
-105.411
-107.178
-108.878
-110.514
-112.087
-113.603
-115.063
-116.47
-117.828
-119.14
-120.409
-121.639
-122.832
-123.993
-125.124
-126.23
-127.313
-128.378
-129.429
-130.468
-131.5
-132.527
-133.553
-134.581
-135.611
-136.645
-137.681
-138.717
-139.746
-140.677
-141.423
-142.078
-142.676
-143.244
-143.781
-144.282
-144.741
-145.157
-145.527
-145.85
-146.126
-146.354
-146.535
-146.669
-146.758
-146.804
-146.809
-146.776
-146.709
-146.611
-146.486
-146.339
-146.173
-145.992
46.5136
34.7633
23.212
14.1015
6.41583
-0.712425
-7.4554
-13.7906
-19.7346
-25.3346
-30.6318
-35.655
-40.4261
-44.9642
-49.286
-53.4063
-57.3382
-61.0934
-64.6824
-68.1147
-71.399
-74.5431
-77.5544
-80.4398
-83.2055
-85.8575
-88.4012
-90.8416
-93.1837
-95.4319
-97.5904
-99.6633
-101.654
-103.567
-105.405
-107.172
-108.87
-110.504
-112.075
-113.587
-115.042
-116.444
-117.795
-119.099
-120.356
-121.571
-122.747
-123.885
-124.989
-126.061
-127.103
-128.12
-129.112
-130.082
-131.032
-131.963
-132.877
-133.775
-134.655
-135.516
-136.355
-137.168
-137.946
-138.622
-139.144
-139.585
-139.97
-140.317
-140.627
-140.897
-141.125
-141.309
-141.449
-141.547
-141.604
-141.619
-141.595
-141.534
-141.439
-141.311
-141.155
-140.972
-140.766
-140.541
-140.299
-140.044
-139.779
-139.507
46.4463
34.7802
23.2322
14.1099
6.42275
-0.705771
-7.44985
-13.7859
-19.7305
-25.3309
-30.6284
-35.6518
-40.4231
-44.9614
-49.2833
-53.4038
-57.3358
-61.0911
-64.6802
-68.1126
-71.3969
-74.5411
-77.5525
-80.4379
-83.2036
-85.8556
-88.3992
-90.8397
-93.1817
-95.4299
-97.5883
-99.661
-101.652
-103.564
-105.402
-107.168
-108.865
-110.497
-112.066
-113.575
-115.027
-116.424
-117.768
-119.062
-120.308
-121.508
-122.664
-123.779
-124.854
-125.892
-126.893
-127.859
-128.791
-129.69
-130.558
-131.393
-132.196
-132.966
-133.699
-134.394
-135.045
-135.648
-136.193
-136.63
-136.949
-137.199
-137.397
-137.554
-137.672
-137.749
-137.786
-137.782
-137.74
-137.661
-137.548
-137.401
-137.224
-137.019
-136.789
-136.536
-136.263
-135.974
-135.67
-135.354
-135.029
-134.697
-134.359
-134.017
46.4468
34.7799
23.232
14.1099
6.42271
-0.705841
-7.44991
-13.786
-19.7306
-25.3309
-30.6284
-35.6518
-40.4232
-44.9614
-49.2834
-53.4038
-57.3359
-61.0911
-64.6802
-68.1126
-71.3969
-74.5411
-77.5525
-80.4379
-83.2037
-85.8556
-88.3992
-90.8396
-93.1816
-95.4297
-97.5879
-99.6605
-101.651
-103.563
-105.4
-107.165
-108.861
-110.491
-112.058
-113.564
-115.011
-116.402
-117.739
-119.024
-120.258
-121.443
-122.581
-123.673
-124.719
-125.722
-126.681
-127.597
-128.47
-129.3
-130.086
-130.828
-131.522
-132.168
-132.761
-133.298
-133.773
-134.18
-134.51
-134.732
-134.868
-134.949
-134.983
-134.976
-134.93
-134.845
-134.722
-134.564
-134.372
-134.148
-133.896
-133.618
-133.316
-132.993
-132.652
-132.296
-131.927
-131.547
-131.16
-130.768
-130.371
-129.973
-129.575
-129.178
46.5152
34.7622
23.2115
14.1015
6.41575
-0.712599
-7.45555
-13.7907
-19.7347
-25.3346
-30.6318
-35.655
-40.4262
-44.9642
-49.286
-53.4064
-57.3383
-61.0934
-64.6824
-68.1147
-71.399
-74.5431
-77.5545
-80.4398
-83.2055
-85.8574
-88.401
-90.8414
-93.1833
-95.4313
-97.5894
-99.6617
-101.652
-103.563
-105.4
-107.164
-108.858
-110.487
-112.051
-113.553
-114.997
-116.382
-117.712
-118.987
-120.209
-121.38
-122.499
-123.568
-124.587
-125.555
-126.474
-127.341
-128.157
-128.92
-129.628
-130.28
-130.872
-131.401
-131.863
-132.253
-132.567
-132.796
-132.934
-132.965
-132.938
-132.871
-132.766
-132.621
-132.438
-132.218
-131.965
-131.68
-131.367
-131.028
-130.665
-130.282
-129.881
-129.466
-129.038
-128.6
-128.155
-127.705
-127.252
-126.799
-126.346
-125.897
-125.452
-125.012
46.6535
34.7264
23.1718
14.0854
6.40243
-0.725374
-7.46609
-13.7994
-19.7423
-25.3415
-30.6381
-35.6608
-40.4315
-44.9692
-49.2907
-53.4108
-57.3425
-61.0975
-64.6863
-68.1184
-71.4026
-74.5466
-77.5579
-80.4431
-83.2086
-85.8603
-88.4037
-90.8439
-93.1857
-95.4335
-97.5916
-99.6638
-101.654
-103.565
-105.401
-107.165
-108.858
-110.485
-112.048
-113.547
-114.987
-116.367
-117.69
-118.956
-120.167
-121.323
-122.424
-123.471
-124.462
-125.398
-126.277
-127.097
-127.857
-128.556
-129.189
-129.754
-130.249
-130.668
-131.008
-131.264
-131.431
-131.5
-131.464
-131.315
-131.139
-130.941
-130.714
-130.45
-130.15
-129.816
-129.453
-129.062
-128.648
-128.212
-127.758
-127.29
-126.809
-126.318
-125.82
-125.318
-124.814
-124.31
-123.808
-123.309
-122.817
-122.331
-121.854
-121.387
46.8469
34.6734
23.1181
14.0632
6.38379
-0.742985
-7.48062
-13.8114
-19.7528
-25.351
-30.6468
-35.6688
-40.439
-44.9762
-49.2973
-53.4171
-57.3485
-61.1032
-64.6917
-68.1236
-71.4076
-74.5516
-77.5628
-80.448
-83.2135
-85.8652
-88.4086
-90.8487
-93.1902
-95.4376
-97.5952
-99.6667
-101.656
-103.566
-105.401
-107.163
-108.856
-110.481
-112.041
-113.538
-114.973
-116.349
-117.666
-118.925
-120.127
-121.271
-122.358
-123.386
-124.356
-125.264
-126.111
-126.893
-127.608
-128.253
-128.825
-129.32
-129.736
-130.066
-130.308
-130.457
-130.508
-130.456
-130.294
-129.997
-129.69
-129.394
-129.084
-128.737
-128.352
-127.935
-127.492
-127.026
-126.539
-126.035
-125.516
-124.986
-124.445
-123.898
-123.345
-122.789
-122.231
-121.673
-121.117
-120.562
-120.012
-119.465
-118.922
-118.383
47.0547
34.6126
23.0624
14.0396
6.36372
-0.761611
-7.49595
-13.8241