/*--------------------------------*- C++ -*----------------------------------*\
| =========                 |                                                 |
| \\      /  F ield         | OpenFOAM: The Open Source CFD Toolbox           |
|  \\    /   O peration     | Version:  5.x                                   |
|   \\  /    A nd           | Web:      www.OpenFOAM.org                      |
|    \\/     M anipulation  |                                                 |
\*---------------------------------------------------------------------------*/
FoamFile
{
    version     2.0;
    format      ascii;
    class       surfaceScalarField;
    location    "990";
    object      phi;
}
// * * * * * * * * * * * * * * * * * * * * * * * * * * * * * * * * * * * * * //

dimensions      [0 3 -1 0 0 0 0];

internalField   nonuniform List<scalar> 
40747
(
1.48845e-05
-4.01367e-09
6.49085e-06
8.39366e-06
1.80058e-05
-8.50465e-09
1.28336e-05
1.16631e-05
2.17818e-05
-1.36099e-08
1.94339e-05
1.51815e-05
2.63495e-05
-1.92366e-08
2.6393e-05
1.93904e-05
3.18749e-05
-2.51494e-08
3.37375e-05
2.45304e-05
3.85585e-05
-3.08902e-08
4.14457e-05
3.08503e-05
4.66431e-05
-3.56758e-08
4.94504e-05
3.86384e-05
5.64223e-05
-3.82835e-08
5.7635e-05
4.82377e-05
6.82511e-05
-3.69351e-08
6.58282e-05
6.00579e-05
8.25591e-05
-2.91934e-08
7.38007e-05
7.45866e-05
9.9866e-05
-1.18721e-08
8.12675e-05
9.23992e-05
0.000120801
1.90479e-08
8.79008e-05
0.000114167
0.000146124
6.84989e-08
9.33594e-05
0.000140665
0.000176756
1.42386e-07
9.73435e-05
0.000172772
0.000213811
2.47574e-07
9.96843e-05
0.00021147
0.000258636
3.91721e-07
0.00010047
0.000257851
0.000312863
5.82825e-07
0.00010007
0.000313263
0.000378464
8.28464e-07
9.88856e-05
0.000379648
0.000457829
1.13494e-06
9.71517e-05
0.000459563
0.000553848
1.50632e-06
9.49435e-05
0.000556056
0.000670017
1.94308e-06
9.22402e-05
0.000672721
0.00081057
2.44004e-06
8.8971e-05
0.000813839
0.000980627
2.98346e-06
8.50363e-05
0.000984561
0.00118638
3.54714e-06
8.03148e-05
0.00119111
0.00143534
4.08734e-06
7.46639e-05
0.00144099
0.00173658
4.53701e-06
6.79167e-05
0.00174333
0.00210107
4.8001e-06
5.98773e-05
0.00210911
0.00254209
4.74835e-06
5.03137e-05
0.00255165
0.0030757
4.22559e-06
3.89453e-05
0.00308707
0.00372128
3.06967e-06
2.54207e-05
0.0037348
0.00356597
1.60845e-06
1.2616e-05
0.00357878
0.00356613
-1.72589e-08
-1.17306e-07
0.00357887
0.00356613
-1.64145e-06
-1.28515e-05
0.00357887
0.00356597
-3.09806e-06
-2.56589e-05
0.00357877
0.00360839
-4.21754e-06
-3.87748e-05
0.0036215
0.00300139
-4.74062e-06
-4.9864e-05
0.00301248
0.00249648
-4.81399e-06
-5.92471e-05
0.00250587
0.00207652
-4.58077e-06
-6.71818e-05
0.00208445
0.00172722
-4.16036e-06
-7.38817e-05
0.00173392
0.0014367
-3.64385e-06
-7.95281e-05
0.00144234
0.00119506
-3.09619e-06
-8.42761e-05
0.00119981
0.000994089
-2.56088e-06
-8.8259e-05
0.000998072
0.000826927
-2.06494e-06
-9.15911e-05
0.000830259
0.000687888
-1.62341e-06
-9.43682e-05
0.000690665
0.000572238
-1.24293e-06
-9.66646e-05
0.000574534
0.00047604
-9.24429e-07
-9.85188e-05
0.000477894
0.000396021
-6.65128e-07
-9.99025e-05
0.000397405
0.000329458
-4.59866e-07
-0.000100668
0.000330224
0.000274088
-3.0203e-07
-0.000100506
0.000273926
0.000228026
-1.84307e-07
-9.90296e-05
0.000226549
0.000189707
-9.94076e-08
-9.6016e-05
0.000186693
0.000157828
-4.06056e-08
-9.15098e-05
0.000153322
0.000131307
-1.99864e-09
-8.57278e-05
0.000125525
0.000109242
2.14244e-08
-7.89644e-05
0.000102479
9.08851e-05
3.38114e-08
-7.15287e-05
8.34494e-05
7.56125e-05
3.85142e-08
-6.37072e-05
6.77909e-05
6.29059e-05
3.81652e-08
-5.57436e-05
5.49424e-05
5.23342e-05
3.47561e-08
-4.78319e-05
4.44225e-05
4.35389e-05
2.97233e-08
-4.01152e-05
3.58222e-05
3.62212e-05
2.40442e-08
-3.26898e-05
2.87959e-05
3.01333e-05
1.83386e-08
-2.56095e-05
2.30529e-05
2.50683e-05
1.29657e-08
-1.88877e-05
1.83466e-05
2.08547e-05
8.10654e-09
-1.24946e-05
1.44615e-05
1.73491e-05
3.829e-09
-6.32845e-06
1.11829e-05
1.44329e-05
8.10446e-06
2.16351e-06
6.23015e-06
1.89759e-06
2.6592e-07
1.80024e-06
9.73568e-08
1.73784e-06
6.23946e-08
1.6933e-06
4.45463e-08
1.65962e-06
3.36795e-08
1.63304e-06
2.65732e-08
1.61144e-06
2.16076e-08
1.59351e-06
1.79294e-08
1.5784e-06
1.51025e-08
1.56553e-06
1.28793e-08
1.55443e-06
1.10988e-08
1.54478e-06
9.65002e-09
1.53632e-06
8.45376e-09
1.52887e-06
7.45278e-09
1.52226e-06
6.60628e-09
1.51638e-06
5.88498e-09
1.51111e-06
5.2666e-09
1.50638e-06
4.73289e-09
1.50211e-06
4.26873e-09
1.49825e-06
3.86202e-09
1.49474e-06
3.50353e-09
1.49156e-06
3.18634e-09
1.48865e-06
2.90505e-09
1.486e-06
2.65514e-09
1.48357e-06
2.43259e-09
1.48133e-06
2.23373e-09
1.47928e-06
2.05527e-09
1.47738e-06
1.8943e-09
1.47563e-06
1.74837e-09
1.47402e-06
1.61544e-09
1.47252e-06
1.49381e-09
1.47114e-06
1.38203e-09
1.46986e-06
1.27884e-09
1.46868e-06
1.18307e-09
1.46759e-06
1.0936e-09
1.46658e-06
1.00929e-09
1.46565e-06
9.28987e-10
1.4648e-06
8.51486e-10
1.46402e-06
7.75521e-10
1.46332e-06
6.99761e-10
1.4627e-06
6.22805e-10
1.46216e-06
5.43181e-10
1.4617e-06
4.59339e-10
1.46133e-06
3.69645e-10
1.46105e-06
2.72364e-10
1.46089e-06
1.65486e-10
1.46084e-06
4.51989e-11
1.46093e-06
-8.98374e-11
1.46117e-06
-2.39767e-10
1.46158e-06
-4.06815e-10
1.46217e-06
-5.92572e-10
1.46297e-06
-7.986e-10
1.464e-06
-1.02683e-09
1.46528e-06
-1.27982e-09
1.46684e-06
-1.56088e-09
1.46871e-06
-1.87347e-09
1.47094e-06
-2.22169e-09
1.47354e-06
-2.60649e-09
1.47659e-06
-3.04549e-09
1.48009e-06
-3.50002e-09
1.48429e-06
-4.20378e-09
1.48937e-06
-5.07708e-09
1.49279e-06
-3.4176e-09
1.49606e-06
-3.27653e-09
1.49972e-06
-3.65669e-09
1.50374e-06
-4.01993e-09
1.50802e-06
-4.2764e-09
1.51254e-06
-4.5207e-09
1.51731e-06
-4.76876e-09
1.52233e-06
-5.02336e-09
1.52762e-06
-5.28651e-09
1.53318e-06
-5.56099e-09
1.53903e-06
-5.85011e-09
1.54519e-06
-6.15804e-09
1.55168e-06
-6.49002e-09
1.55853e-06
-6.85319e-09
1.56579e-06
-7.25725e-09
1.57351e-06
-7.7161e-09
1.58176e-06
-8.25047e-09
1.59065e-06
-8.8917e-09
1.60035e-06
-9.69522e-09
1.6111e-06
-1.07466e-08
1.62339e-06
-1.22897e-08
1.63818e-06
-1.47871e-08
1.66037e-06
-2.21863e-08
1.73236e-06
-7.19877e-08
-8.23164e-07
2.55552e-06
5.2681e-06
1.26252e-05
4.63265e-06
9.01369e-07
4.41584e-06
3.14171e-07
4.28459e-06
1.93643e-07
4.19269e-06
1.36444e-07
4.12376e-06
1.02609e-07
4.06955e-06
8.07903e-08
4.0255e-06
6.56533e-08
3.98895e-06
5.44746e-08
3.95816e-06
4.58933e-08
3.93189e-06
3.91494e-08
3.90924e-06
3.37503e-08
3.88954e-06
2.93571e-08
3.87226e-06
2.5729e-08
3.85702e-06
2.26923e-08
3.8435e-06
2.01234e-08
3.83145e-06
1.79336e-08
3.82067e-06
1.60554e-08
3.81097e-06
1.44336e-08
3.80221e-06
1.30226e-08
3.79429e-06
1.17859e-08
3.7871e-06
1.06955e-08
3.78055e-06
9.73044e-09
3.77458e-06
8.87418e-09
3.76912e-06
8.1131e-09
3.76412e-06
7.43503e-09
3.75953e-06
6.82891e-09
3.7553e-06
6.28475e-09
3.7514e-06
5.79382e-09
3.7478e-06
5.34865e-09
3.74447e-06
4.94302e-09
3.74139e-06
4.57172e-09
3.73854e-06
4.23032e-09
3.73591e-06
3.91492e-09
3.73347e-06
3.62192e-09
3.73121e-06
3.34783e-09
3.72913e-06
3.08914e-09
3.72722e-06
2.84225e-09
3.72547e-06
2.60339e-09
3.72388e-06
2.36862e-09
3.72244e-06
2.13373e-09
3.72117e-06
1.89433e-09
3.72007e-06
1.64575e-09
3.71914e-06
1.38308e-09
3.71841e-06
1.10113e-09
3.71789e-06
7.94365e-10
3.7176e-06
4.56343e-10
3.71757e-06
7.42524e-11
3.71784e-06
-3.55561e-10
3.71843e-06
-8.3296e-10
3.71939e-06
-1.36549e-09
3.72076e-06
-1.95815e-09
3.72257e-06
-2.61596e-09
3.72489e-06
-3.3451e-09
3.72777e-06
-4.15373e-09
3.73126e-06
-5.05263e-09
3.73544e-06
-6.05264e-09
3.74038e-06
-7.16771e-09
3.74617e-06
-8.39774e-09
3.75294e-06
-9.81255e-09
3.76067e-06
-1.1233e-08
3.77009e-06
-1.36169e-08
3.78125e-06
-1.62382e-08
3.7889e-06
-1.10654e-08
3.79635e-06
-1.07253e-08
3.80436e-06
-1.16687e-08
3.81321e-06
-1.28666e-08
3.82265e-06
-1.37165e-08
3.83264e-06
-1.45094e-08
3.84318e-06
-1.53086e-08
3.85428e-06
-1.61265e-08
3.86597e-06
-1.69709e-08
3.87826e-06
-1.78505e-08
3.89118e-06
-1.87765e-08
3.90479e-06
-1.97618e-08
3.91912e-06
-2.08236e-08
3.93426e-06
-2.19839e-08
3.95027e-06
-2.3274e-08
3.9673e-06
-2.4737e-08
3.98549e-06
-2.64389e-08
4.00507e-06
-2.84751e-08
4.02641e-06
-3.10298e-08
4.04999e-06
-3.43218e-08
4.07701e-06
-3.93102e-08
4.10874e-06
-4.65051e-08
4.15686e-06
-7.03098e-08
4.25823e-06
-1.73349e-07
-1.03596e-06
4.47103e-06
8.24101e-06
1.95657e-05
7.22625e-06
1.91612e-06
6.88448e-06
6.55943e-07
6.68516e-06
3.92968e-07
6.54789e-06
2.7371e-07
6.44579e-06
2.04709e-07
6.36585e-06
1.60734e-07
6.30107e-06
1.30432e-07
6.24741e-06
1.08136e-07
6.20224e-06
9.10553e-08
6.16374e-06
7.76515e-08
6.13056e-06
6.69318e-08
6.1017e-06
5.82153e-08
6.07641e-06
5.102e-08
6.0541e-06
4.49996e-08
6.03432e-06
3.99079e-08
6.01668e-06
3.5568e-08
6.00089e-06
3.18455e-08
5.9867e-06
2.86312e-08
5.97388e-06
2.58349e-08
5.96229e-06
2.33841e-08
5.95176e-06
2.12234e-08
5.94218e-06
1.93108e-08
5.93344e-06
1.76138e-08
5.92545e-06
1.61051e-08
5.91812e-06
1.47607e-08
5.91139e-06
1.35587e-08
5.9052e-06
1.24795e-08
5.89948e-06
1.15058e-08
5.89421e-06
1.06229e-08
5.88934e-06
9.81828e-09
5.88483e-06
9.08166e-09
5.88065e-06
8.40419e-09
5.87679e-06
7.77806e-09
5.87321e-06
7.19604e-09
5.86991e-06
6.65115e-09
5.86686e-06
6.13635e-09
5.86406e-06
5.64441e-09
5.8615e-06
5.16773e-09
5.85917e-06
4.69834e-09
5.85707e-06
4.22779e-09
5.85522e-06
3.74713e-09
5.85362e-06
3.24694e-09
5.85229e-06
2.71722e-09
5.85124e-06
2.14742e-09
5.85051e-06
1.52626e-09
5.85012e-06
8.40531e-10
5.85013e-06
6.33717e-11
5.85059e-06
-8.12172e-10
5.85154e-06
-1.78503e-09
5.85305e-06
-2.87085e-09
5.85517e-06
-4.07988e-09
5.85798e-06
-5.42239e-09
5.86154e-06
-6.91102e-09
5.86595e-06
-8.56244e-09
5.8713e-06
-1.03987e-08
5.87769e-06
-1.2442e-08
5.88524e-06
-1.47214e-08
5.89408e-06
-1.7234e-08
5.9044e-06
-2.01343e-08
5.91618e-06
-2.30083e-08
5.93055e-06
-2.79899e-08
5.94743e-06
-3.31171e-08
5.95914e-06
-2.27787e-08
5.97068e-06
-2.22664e-08
5.98287e-06
-2.38541e-08
5.99629e-06
-2.62882e-08
6.01063e-06
-2.80562e-08
6.02581e-06
-2.96908e-08
6.04184e-06
-3.13296e-08
6.05871e-06
-3.30028e-08
6.07647e-06
-3.4728e-08
6.09515e-06
-3.65232e-08
6.11478e-06
-3.84113e-08
6.13544e-06
-4.04182e-08
6.1572e-06
-4.25788e-08
6.18015e-06
-4.49371e-08
6.20443e-06
-4.75557e-08
6.23022e-06
-5.05207e-08
6.25775e-06
-5.3964e-08
6.28735e-06
-5.8073e-08
6.31954e-06
-6.322e-08
6.35503e-06
-6.98031e-08
6.39557e-06
-7.98474e-08
6.4427e-06
-9.36342e-08
6.51194e-06
-1.3955e-07
6.62359e-06
-2.8499e-07
-1.01947e-06
6.60711e-06
1.17451e-05
2.7211e-05
1.02611e-05
3.40008e-06
9.75569e-06
1.16135e-06
9.46952e-06
6.7914e-07
9.27549e-06
4.67733e-07
9.13239e-06
3.47809e-07
9.0209e-06
2.72225e-07
8.93084e-06
2.205e-07
8.85637e-06
1.82597e-07
8.79379e-06
1.53635e-07
8.7405e-06
1.30949e-07
8.6946e-06
1.1283e-07
8.6547e-06
9.81107e-08
8.61975e-06
8.59691e-08
8.58894e-06
7.5816e-08
8.56161e-06
6.72328e-08
8.53726e-06
5.99191e-08
8.51546e-06
5.3647e-08
8.49586e-06
4.8232e-08
8.47817e-06
4.35218e-08
8.46216e-06
3.93946e-08
8.44763e-06
3.57564e-08
8.4344e-06
3.25362e-08
8.42234e-06
2.96789e-08
8.41131e-06
2.71384e-08
8.40119e-06
2.48745e-08
8.3919e-06
2.28502e-08
8.38335e-06
2.10327e-08
8.37546e-06
1.93929e-08
8.36818e-06
1.79059e-08
8.36144e-06
1.65508e-08
8.35522e-06
1.53102e-08
8.34945e-06
1.4169e-08
8.34411e-06
1.31141e-08
8.33918e-06
1.2133e-08
8.33461e-06
1.1214e-08
8.33041e-06
1.03451e-08
8.32654e-06
9.51399e-09
8.323e-06
8.70774e-09
8.31978e-06
7.91277e-09
8.3169e-06
7.11465e-09
8.31434e-06
6.29813e-09
8.31214e-06
5.44705e-09
8.31032e-06
4.54432e-09
8.30889e-06
3.57184e-09
8.30791e-06
2.51027e-09
8.30741e-06
1.33676e-09
8.30747e-06
4.53166e-12
8.30816e-06
-1.4982e-09
8.30954e-06
-3.16871e-09
8.3117e-06
-5.03373e-09
8.31474e-06
-7.11105e-09
8.31873e-06
-9.41834e-09
8.3238e-06
-1.19773e-08
8.33005e-06
-1.48166e-08
8.33763e-06
-1.79741e-08
8.34667e-06
-2.14878e-08
8.35736e-06
-2.54084e-08
8.36986e-06
-2.97292e-08
8.38445e-06
-3.47224e-08
8.40109e-06
-3.96485e-08
8.42136e-06
-4.82668e-08
8.44501e-06
-5.67587e-08
8.46159e-06
-3.9365e-08
8.47812e-06
-3.87943e-08
8.49537e-06
-4.11069e-08
8.51427e-06
-4.51844e-08
8.53446e-06
-4.82472e-08
8.55584e-06
-5.10711e-08
8.57841e-06
-5.38906e-08
8.60217e-06
-5.6763e-08
8.62716e-06
-5.97204e-08
8.65343e-06
-6.27936e-08
8.68105e-06
-6.6022e-08
8.71008e-06
-6.94489e-08
8.74063e-06
-7.31332e-08
8.77285e-06
-7.71484e-08
8.80689e-06
-8.15993e-08
8.843e-06
-8.6629e-08
8.8815e-06
-9.2457e-08
8.92282e-06
-9.9393e-08
8.96766e-06
-1.08054e-07
9.01694e-06
-1.19082e-07
9.07293e-06
-1.35832e-07
9.13765e-06
-1.58346e-07
9.2283e-06
-2.30193e-07
9.34901e-06
-4.05696e-07
-9.52114e-07
9.28166e-06
1.60742e-05
3.56672e-05
1.40049e-05
5.46933e-06
1.32809e-05
1.88536e-06
1.28804e-05
1.07965e-06
1.26129e-05
7.35258e-07
1.24173e-05
5.43417e-07
1.22657e-05
4.23812e-07
1.21436e-05
3.4254e-07
1.2043e-05
2.83261e-07
1.19585e-05
2.38099e-07
1.18867e-05
2.02796e-07
1.18248e-05
1.74646e-07
1.17712e-05
1.51806e-07
1.17241e-05
1.32982e-07
1.16827e-05
1.17252e-07
1.1646e-05
1.03963e-07
1.16133e-05
9.26437e-08
1.1584e-05
8.29394e-08
1.15576e-05
7.45632e-08
1.15339e-05
6.72793e-08
1.15124e-05
6.08984e-08
1.14928e-05
5.5275e-08
1.14751e-05
5.02984e-08
1.14589e-05
4.58828e-08
1.14441e-05
4.19569e-08
1.14305e-05
3.8458e-08
1.1418e-05
3.53295e-08
1.14065e-05
3.25205e-08
1.13959e-05
2.99863e-08
1.13861e-05
2.76884e-08
1.13771e-05
2.55946e-08
1.13687e-05
2.36776e-08
1.1361e-05
2.19141e-08
1.13538e-05
2.02835e-08
1.13472e-05
1.87668e-08
1.1341e-05
1.73454e-08
1.13354e-05
1.60007e-08
1.13302e-05
1.47135e-08
1.13254e-05
1.34638e-08
1.13211e-05
1.22304e-08
1.13172e-05
1.09909e-08
1.13138e-05
9.72126e-09
1.13109e-05
8.39642e-09
1.13084e-05
6.98961e-09
1.13065e-05
5.47253e-09
1.13052e-05
3.81488e-09
1.13046e-05
1.98071e-09
1.13047e-05
-1.03648e-10
1.13056e-05
-2.45724e-09
1.13075e-05
-5.07501e-09
1.13105e-05
-7.99786e-09
1.13147e-05
-1.1254e-08
1.13201e-05
-1.48711e-08
1.1327e-05
-1.88833e-08
1.13355e-05
-2.33351e-08
1.13458e-05
-2.82859e-08
1.13582e-05
-3.3795e-08
1.13727e-05
-3.99422e-08
1.13897e-05
-4.67167e-08
1.14095e-05
-5.45443e-08
1.14321e-05
-6.22693e-08
1.14596e-05
-7.57385e-08
1.14914e-05
-8.85627e-08
1.15139e-05
-6.18963e-08
1.15366e-05
-6.1515e-08
1.15602e-05
-6.46434e-08
1.15858e-05
-7.07886e-08
1.16131e-05
-7.5583e-08
1.16421e-05
-8.00116e-08
1.16726e-05
-8.44207e-08
1.17047e-05
-8.89034e-08
1.17385e-05
-9.35115e-08
1.1774e-05
-9.8293e-08
1.18113e-05
-1.03308e-07
1.18505e-05
-1.08623e-07
1.18917e-05
-1.14327e-07
1.19351e-05
-1.20532e-07
1.19809e-05
-1.27397e-07
1.20294e-05
-1.35136e-07
1.2081e-05
-1.44079e-07
1.21363e-05
-1.54692e-07
1.21962e-05
-1.67891e-07
1.22617e-05
-1.84641e-07
1.23357e-05
-2.09827e-07
1.24208e-05
-2.43373e-07
1.25343e-05
-3.43722e-07
1.26669e-05
-5.38291e-07
-9.39919e-07
1.26547e-05
2.15074e-05
4.50101e-05
1.871e-05
8.26669e-06
1.76923e-05
2.90308e-06
1.71391e-05
1.63291e-06
1.67747e-05
1.0996e-06
1.65107e-05
8.0744e-07
1.63073e-05
6.27233e-07
1.61441e-05
5.05682e-07
1.60099e-05
4.17473e-07
1.58975e-05
3.505e-07
1.5802e-05
2.98274e-07
1.572e-05
2.56706e-07
1.56488e-05
2.23026e-07
1.55864e-05
1.95298e-07
1.55315e-05
1.72149e-07
1.54829e-05
1.52605e-07
1.54396e-05
1.35968e-07
1.54008e-05
1.2171e-07
1.5366e-05
1.09407e-07
1.53345e-05
9.87117e-08
1.53061e-05
8.9346e-08
1.52803e-05
8.10943e-08
1.52568e-05
7.37934e-08
1.52353e-05
6.7316e-08
1.52157e-05
6.15572e-08
1.51978e-05
5.64247e-08
1.51813e-05
5.18355e-08
1.51661e-05
4.77153e-08
1.51521e-05
4.39983e-08
1.51391e-05
4.06283e-08
1.51272e-05
3.75579e-08
1.51161e-05
3.4747e-08
1.51058e-05
3.21611e-08
1.50964e-05
2.977e-08
1.50876e-05
2.75453e-08
1.50795e-05
2.54598e-08
1.5072e-05
2.34861e-08
1.50651e-05
2.15959e-08
1.50588e-05
1.97596e-08
1.50531e-05
1.79461e-08
1.50479e-05
1.61221e-08
1.50434e-05
1.42526e-08
1.50395e-05
1.23002e-08
1.50363e-05
1.02256e-08
1.50338e-05
7.98681e-09
1.5032e-05
5.53918e-09
1.50312e-05
2.82936e-09
1.50313e-05
-2.51746e-10
1.50326e-05
-3.73398e-09
1.50351e-05
-7.60914e-09
1.50391e-05
-1.19358e-08
1.50446e-05
-1.6756e-08
1.50518e-05
-2.21109e-08
1.5061e-05
-2.80508e-08
1.50723e-05
-3.46411e-08
1.5086e-05
-4.19691e-08
1.51023e-05
-5.01226e-08
1.51216e-05
-5.92188e-08
1.51441e-05
-6.92444e-08
1.51704e-05
-8.08163e-08
1.52004e-05
-9.22732e-08
1.52367e-05
-1.12023e-07
1.52784e-05
-1.30268e-07
1.53082e-05
-9.16928e-08
1.53386e-05
-9.19274e-08
1.537e-05
-9.59993e-08
1.54038e-05
-1.04661e-07
1.54399e-05
-1.11689e-07
1.54781e-05
-1.18215e-07
1.55184e-05
-1.24702e-07
1.55608e-05
-1.31286e-07
1.56053e-05
-1.38044e-07
1.56521e-05
-1.45043e-07
1.57012e-05
-1.52372e-07
1.57527e-05
-1.60125e-07
1.58068e-05
-1.68429e-07
1.58637e-05
-1.77442e-07
1.59237e-05
-1.8739e-07
1.59871e-05
-1.98576e-07
1.60545e-05
-2.11464e-07
1.61265e-05
-2.26708e-07
1.62042e-05
-2.45582e-07
1.62891e-05
-2.69462e-07
1.63841e-05
-3.04901e-07
1.64927e-05
-3.51907e-07
1.66314e-05
-4.82414e-07
1.67814e-05
-6.88311e-07
-1.03445e-06
1.6876e-05
2.83645e-05
5.5284e-05
2.46699e-05
1.19613e-05
2.32578e-05
4.3152e-06
2.24987e-05
2.39198e-06
2.20055e-05
1.59286e-06
2.16513e-05
1.16162e-06
2.13801e-05
8.98402e-07
2.11636e-05
7.22219e-07
2.0986e-05
5.95079e-07
2.08376e-05
4.98922e-07
2.07117e-05
4.24145e-07
2.06036e-05
3.64753e-07
2.051e-05
3.16708e-07
2.0428e-05
2.77204e-07
2.03559e-05
2.44258e-07
2.02921e-05
2.16468e-07
2.02352e-05
1.92826e-07
2.01844e-05
1.72575e-07
2.01386e-05
1.55109e-07
2.00974e-05
1.39931e-07
2.00601e-05
1.26645e-07
2.00263e-05
1.14943e-07
1.99955e-05
1.04593e-07
1.99674e-05
9.54116e-08
1.99417e-05
8.72492e-08
1.99181e-05
7.99747e-08
1.98965e-05
7.34706e-08
1.98766e-05
6.76314e-08
1.98582e-05
6.23643e-08
1.98413e-05
5.75896e-08
1.98256e-05
5.32399e-08
1.98111e-05
4.92583e-08
1.97976e-05
4.55958e-08
1.97852e-05
4.22089e-08
1.97737e-05
3.90575e-08
1.9763e-05
3.61028e-08
1.97532e-05
3.33057e-08
1.97442e-05
3.06261e-08
1.97359e-05
2.80222e-08
1.97284e-05
2.54493e-08
1.97217e-05
2.28607e-08
1.97157e-05
2.02063e-08
1.97106e-05
1.74333e-08
1.97063e-05
1.44855e-08
1.9703e-05
1.13036e-08
1.97007e-05
7.82383e-09
1.96996e-05
3.97065e-09
1.96998e-05
-4.11004e-10
1.97014e-05
-5.36693e-09
1.97047e-05
-1.0885e-08
1.97098e-05
-1.70451e-08
1.97169e-05
-2.39073e-08
1.97264e-05
-3.15306e-08
1.97383e-05
-3.99858e-08
1.9753e-05
-4.93655e-08
1.97708e-05
-5.97925e-08
1.97921e-05
-7.13915e-08
1.98172e-05
-8.43277e-08
1.98466e-05
-9.85873e-08
1.98808e-05
-1.15019e-07
1.99199e-05
-1.31369e-07
1.99669e-05
-1.59082e-07
2.00206e-05
-1.8397e-07
2.00593e-05
-1.3033e-07
2.00992e-05
-1.3183e-07
2.01402e-05
-1.37049e-07
2.01843e-05
-1.48713e-07
2.02311e-05
-1.58545e-07
2.02807e-05
-1.67744e-07
2.03328e-05
-1.76889e-07
2.03877e-05
-1.86156e-07
2.04453e-05
-1.95653e-07
2.05058e-05
-2.05473e-07
2.05691e-05
-2.15734e-07
2.06356e-05
-2.26565e-07
2.07053e-05
-2.38141e-07
2.07785e-05
-2.50676e-07
2.08556e-05
-2.64473e-07
2.0937e-05
-2.79944e-07
2.10232e-05
-2.9771e-07
2.11152e-05
-3.18654e-07
2.12141e-05
-3.44455e-07
2.13216e-05
-3.77001e-07
2.14413e-05
-4.24585e-07
2.1577e-05
-4.87567e-07
2.17438e-05
-6.49187e-07
2.19185e-05
-8.62973e-07
-1.24317e-06
2.21272e-05
3.70303e-05
6.64913e-05
3.22463e-05
1.67454e-05
3.03071e-05
6.25438e-06
2.92695e-05
3.42961e-06
2.86031e-05
2.25918e-06
2.81291e-05
1.63565e-06
2.77686e-05
1.2589e-06
2.74821e-05
1.00871e-06
2.72479e-05
8.29265e-07
2.70527e-05
6.94142e-07
2.68875e-05
5.89392e-07
2.67458e-05
5.06392e-07
2.66232e-05
4.39375e-07
2.6516e-05
3.84353e-07
2.64217e-05
3.38523e-07
2.63383e-05
2.99903e-07
2.62641e-05
2.67076e-07
2.61977e-05
2.38973e-07
2.6138e-05
2.14746e-07
2.60842e-05
1.93704e-07
2.60356e-05
1.75294e-07
2.59915e-05
1.59087e-07
2.59513e-05
1.44755e-07
2.59147e-05
1.32045e-07
2.58812e-05
1.20747e-07
2.58505e-05
1.10679e-07
2.58223e-05
1.01677e-07
2.57963e-05
9.35959e-08
2.57723e-05
8.63079e-08
2.57502e-05
7.97024e-08
2.57298e-05
7.3686e-08
2.57109e-05
6.81796e-08
2.56933e-05
6.3115e-08
2.56771e-05
5.8432e-08
2.56621e-05
5.40746e-08
2.56482e-05
4.99888e-08
2.56354e-05
4.61208e-08
2.56236e-05
4.24148e-08
2.56128e-05
3.88129e-08
2.5603e-05
3.52537e-08
2.55942e-05
3.16724e-08
2.55864e-05
2.79999e-08
2.55797e-05
2.41631e-08
2.55741e-05
2.00847e-08
2.55697e-05
1.56825e-08
2.55667e-05
1.08685e-08
2.55651e-05
5.53894e-09
2.55652e-05
-5.19619e-10
2.55672e-05
-7.37665e-09
2.55713e-05
-1.50155e-08
2.55778e-05
-2.35411e-08
2.5587e-05
-3.30367e-08
2.5599e-05
-4.35838e-08
2.56143e-05
-5.52797e-08
2.56332e-05
-6.82512e-08
2.56561e-05
-8.26662e-08
2.56834e-05
-9.86959e-08
2.57156e-05
-1.16566e-07
2.57533e-05
-1.36266e-07
2.57972e-05
-1.58919e-07
2.58474e-05
-1.81598e-07
2.59076e-05
-2.19245e-07
2.59758e-05
-2.52157e-07
2.60251e-05
-1.79655e-07
2.60766e-05
-1.83328e-07
2.61296e-05
-1.90025e-07
2.61861e-05
-2.05232e-07
2.62461e-05
-2.18517e-07
2.63094e-05
-2.31057e-07
2.6376e-05
-2.43535e-07
2.64461e-05
-2.56169e-07
2.65195e-05
-2.69095e-07
2.65965e-05
-2.82437e-07
2.66771e-05
-2.9635e-07
2.67615e-05
-3.11003e-07
2.685e-05
-3.26624e-07
2.69429e-05
-3.43494e-07
2.70404e-05
-3.62011e-07
2.71432e-05
-3.82709e-07
2.72519e-05
-4.06397e-07
2.73674e-05
-4.34219e-07
2.74913e-05
-4.68317e-07
2.76255e-05
-5.11187e-07
2.77738e-05
-5.72856e-07
2.79406e-05
-6.54396e-07
2.81389e-05
-8.47478e-07
2.83461e-05
-1.07013e-06
-1.54624e-06
2.86492e-05
4.79732e-05
7.8576e-05
4.18932e-05
2.28253e-05
3.92556e-05
8.89202e-06
3.78401e-05
4.84509e-06
3.69399e-05
3.15933e-06
3.63053e-05
2.27028e-06
3.58261e-05
1.73813e-06
3.54472e-05
1.38756e-06
3.51387e-05
1.13777e-06
3.48823e-05
9.50591e-07
3.46657e-05
8.06002e-07
3.44803e-05
6.91743e-07
3.432e-05
5.99682e-07
3.41801e-05
5.2423e-07
3.40572e-05
4.61473e-07
3.39484e-05
4.08653e-07
3.38517e-05
3.63797e-07
3.37653e-05
3.25426e-07
3.36876e-05
2.92367e-07
3.36177e-05
2.6367e-07
3.35544e-05
2.38576e-07
3.3497e-05
2.16497e-07
3.34448e-05
1.96981e-07
3.33971e-05
1.79677e-07
3.33536e-05
1.64299e-07
3.33137e-05
1.50595e-07
3.3277e-05
1.38344e-07
3.32432e-05
1.27348e-07
3.32121e-05
1.17433e-07
3.31834e-05
1.08448e-07
3.31568e-05
1.00266e-07
3.31322e-05
9.27792e-08
3.31094e-05
8.58947e-08
3.30883e-05
7.95298e-08
3.30688e-05
7.36081e-08
3.30507e-05
6.8056e-08
3.3034e-05
6.28001e-08
3.30187e-05
5.7765e-08
3.30046e-05
5.28718e-08
3.29918e-05
4.80376e-08
3.29803e-05
4.31745e-08
3.29702e-05
3.81892e-08
3.29613e-05
3.29828e-08
3.2954e-05
2.74507e-08
3.29482e-05
2.14818e-08
3.29441e-05
1.49572e-08
3.29419e-05
7.73811e-09
3.29418e-05
-4.61736e-10
3.29442e-05
-9.74688e-09
3.29493e-05
-2.00967e-08
3.29574e-05
-3.16437e-08
3.29688e-05
-4.45006e-08
3.2984e-05
-5.87775e-08
3.30034e-05
-7.4605e-08
3.30273e-05
-9.21525e-08
3.30562e-05
-1.11644e-07
3.30909e-05
-1.33309e-07
3.31317e-05
-1.57447e-07
3.31795e-05
-1.8406e-07
3.32352e-05
-2.14585e-07
3.3299e-05
-2.45354e-07
3.3375e-05
-2.9523e-07
3.34605e-05
-3.3774e-07
3.35227e-05
-2.41798e-07
3.35882e-05
-2.48836e-07
3.36557e-05
-2.57527e-07
3.37274e-05
-2.76903e-07
3.38032e-05
-2.94381e-07
3.38832e-05
-3.11029e-07
3.39673e-05
-3.27622e-07
3.40556e-05
-3.44414e-07
3.4148e-05
-3.61572e-07
3.42449e-05
-3.79248e-07
3.43462e-05
-3.9764e-07
3.44521e-05
-4.16964e-07
3.4563e-05
-4.3751e-07
3.46792e-05
-4.59638e-07
3.4801e-05
-4.83852e-07
3.49291e-05
-5.1083e-07
3.50644e-05
-5.41594e-07
3.52077e-05
-5.77589e-07
3.53609e-05
-6.21462e-07
3.55262e-05
-6.76428e-07
3.57075e-05
-7.54139e-07
3.59099e-05
-8.56837e-07
3.61436e-05
-1.08111e-06
3.63908e-05
-1.31731e-06
-1.91466e-06
3.67592e-05
6.17615e-05
9.14011e-05
5.41826e-05
3.04042e-05
5.0631e-05
1.24437e-05
4.87033e-05
6.77273e-06
4.74856e-05
4.37699e-06
4.66343e-05
3.12161e-06
4.59961e-05
2.37639e-06
4.54943e-05
1.88929e-06
4.50875e-05
1.54461e-06
4.47504e-05
1.28772e-06
4.44663e-05
1.09006e-06
4.42237e-05
9.34341e-07
4.40142e-05
8.09177e-07
4.38316e-05
7.06797e-07
4.36713e-05
6.21784e-07
4.35296e-05
5.50333e-07
4.34037e-05
4.89722e-07
4.32912e-05
4.37918e-07
4.31903e-05
3.93319e-07
4.30993e-05
3.54631e-07
4.30171e-05
3.20823e-07
4.29425e-05
2.91093e-07
4.28746e-05
2.64828e-07
4.28128e-05
2.4155e-07
4.27562e-05
2.20864e-07
4.27044e-05
2.02435e-07
4.26567e-05
1.85961e-07
4.26129e-05
1.71177e-07
4.25725e-05
1.57849e-07
4.25352e-05
1.45774e-07
4.25006e-05
1.34782e-07
4.24687e-05
1.24727e-07
4.24391e-05
1.15483e-07
4.24117e-05
1.06939e-07
4.23863e-05
9.89909e-08
4.23628e-05
9.15411e-08
4.23411e-05
8.44903e-08
4.23212e-05
7.77378e-08
4.23029e-05
7.11784e-08
4.22862e-05
6.47012e-08
4.22712e-05
5.81893e-08
4.22579e-05
5.15186e-08
4.22463e-05
4.45575e-08
4.22366e-05
3.71667e-08
4.22288e-05
2.91987e-08
4.22233e-05
2.04956e-08
4.22202e-05
1.08753e-08
4.22197e-05
-3.59427e-11
4.22224e-05
-1.23954e-08
4.22285e-05
-2.61817e-08
4.22384e-05
-4.15549e-08
4.22526e-05
-5.86644e-08
4.22714e-05
-7.76564e-08
4.22955e-05
-9.8703e-08
4.23254e-05
-1.22026e-07
4.23617e-05
-1.47918e-07
4.24051e-05
-1.76681e-07
4.24563e-05
-2.08706e-07
4.25163e-05
-2.44014e-07
4.25861e-05
-2.84401e-07
4.26661e-05
-3.25402e-07
4.27611e-05
-3.9016e-07
4.28674e-05
-4.4409e-07
4.29448e-05
-3.19193e-07
4.30271e-05
-3.31073e-07
4.31121e-05
-3.42524e-07
4.3202e-05
-3.66816e-07
4.3297e-05
-3.89345e-07
4.33969e-05
-4.10979e-07
4.35019e-05
-4.32584e-07
4.36119e-05
-4.54443e-07
4.37271e-05
-4.76751e-07
4.38476e-05
-4.9969e-07
4.39734e-05
-5.23506e-07
4.41049e-05
-5.48465e-07
4.42424e-05
-5.74932e-07
4.43861e-05
-6.03351e-07
4.45366e-05
-6.34352e-07
4.46946e-05
-6.68776e-07
4.48609e-05
-7.07881e-07
4.50368e-05
-7.53457e-07
4.5224e-05
-8.08689e-07
4.54252e-05
-8.77612e-07
4.56444e-05
-9.73292e-07
4.58873e-05
-1.09969e-06
4.61603e-05
-1.35415e-06
4.6454e-05
-1.611e-06
-2.32224e-06
4.68617e-05
7.90785e-05
0.000104722
6.98323e-05
3.96503e-05
6.51057e-05
1.71703e-05
6.24867e-05
9.3917e-06
6.08366e-05
6.0271e-06
5.96911e-05
4.26716e-06
5.88383e-05
3.22921e-06
5.81718e-05
2.55575e-06
5.76338e-05
2.08258e-06
5.71896e-05
1.73196e-06
5.68163e-05
1.46335e-06
5.64982e-05
1.25244e-06
5.6224e-05
1.08338e-06
5.59854e-05
9.45415e-07
5.57761e-05
8.31067e-07
5.55913e-05
7.35115e-07
5.54272e-05
6.53827e-07
5.52807e-05
5.84421e-07
5.51493e-05
5.2472e-07
5.5031e-05
4.72972e-07
5.4924e-05
4.27786e-07
5.4827e-05
3.88079e-07
5.47388e-05
3.5302e-07
5.46584e-05
3.2196e-07
5.45849e-05
2.94369e-07
5.45176e-05
2.69791e-07
5.44557e-05
2.47826e-07
5.43988e-05
2.28117e-07
5.43463e-05
2.10353e-07
5.42978e-05
1.94264e-07
5.42529e-05
1.79623e-07
5.42114e-05
1.66234e-07
5.4173e-05
1.5393e-07
5.41374e-05
1.42561e-07
5.41044e-05
1.3199e-07
5.40738e-05
1.22085e-07
5.40456e-05
1.12714e-07
5.40196e-05
1.03745e-07
5.39957e-05
9.50376e-08
5.3974e-05
8.64473e-08
5.39543e-05
7.78194e-08
5.39369e-05
6.89911e-08
5.39216e-05
5.97897e-08
5.39088e-05
5.00326e-08
5.38985e-05
3.95263e-08
5.38909e-05
2.80642e-08
5.38863e-05
1.54099e-08
5.38852e-05
1.09123e-09
5.3888e-05
-1.51301e-08
5.3895e-05
-3.32411e-08
5.39069e-05
-5.34222e-08
5.39241e-05
-7.58694e-08
5.39472e-05
-1.00774e-07
5.39769e-05
-1.28359e-07
5.40138e-05
-1.5891e-07
5.40586e-05
-1.92803e-07
5.41124e-05
-2.3043e-07
5.4176e-05
-2.72288e-07
5.42504e-05
-3.18434e-07
5.43371e-05
-3.71062e-07
5.44365e-05
-4.24877e-07
5.45539e-05
-5.07562e-07
5.46849e-05
-5.75071e-07
5.47803e-05
-4.14593e-07
5.48823e-05
-4.33064e-07
5.49882e-05
-4.48338e-07
5.50998e-05
-4.78457e-07
5.52175e-05
-5.07047e-07
5.53412e-05
-5.34678e-07
5.5471e-05
-5.6232e-07
5.56068e-05
-5.90284e-07
5.57489e-05
-6.18788e-07
5.58972e-05
-6.48045e-07
5.60521e-05
-6.78352e-07
5.62137e-05
-7.10033e-07
5.63823e-05
-7.43535e-07
5.65583e-05
-7.79399e-07
5.67424e-05
-8.18393e-07
5.69352e-05
-8.61544e-07
5.71377e-05
-9.1037e-07
5.73513e-05
-9.67043e-07
5.75779e-05
-1.03531e-06
5.78205e-05
-1.12011e-06
5.80828e-05
-1.2356e-06
5.83712e-05
-1.38802e-06
5.86879e-05
-1.67082e-06
5.90329e-05
-1.95599e-06
-2.75033e-06
5.9461e-05
0.000100732
0.000118157
8.97356e-05
5.06471e-05
8.35366e-05
2.33693e-05
7.99926e-05
1.29357e-05
7.77533e-05
8.26644e-06
7.62063e-05
5.8141e-06
7.5062e-05
4.37349e-06
7.4173e-05
3.44473e-06
7.34589e-05
2.79675e-06
7.28714e-05
2.31947e-06
7.23792e-05
1.95555e-06
7.19607e-05
1.67086e-06
7.16008e-05
1.44335e-06
7.1288e-05
1.25815e-06
7.10141e-05
1.10499e-06
7.07725e-05
9.76701e-07
7.05582e-05
8.68182e-07
7.0367e-05
7.75639e-07
7.01956e-05
6.96115e-07
7.00413e-05
6.2725e-07
6.99019e-05
5.67168e-07
6.97756e-05
5.14414e-07
6.96607e-05
4.67868e-07
6.9556e-05
4.26653e-07
6.94603e-05
3.90054e-07
6.93727e-05
3.57461e-07
6.92922e-05
3.28338e-07
6.92181e-05
3.02214e-07
6.91497e-05
2.78673e-07
6.90866e-05
2.57361e-07
6.90283e-05
2.37973e-07
6.89743e-05
2.20252e-07
6.89242e-05
2.03973e-07
6.88779e-05
1.88938e-07
6.88349e-05
1.74964e-07
6.87951e-05
1.61878e-07
6.87583e-05
1.49507e-07
6.87244e-05
1.37675e-07
6.86932e-05
1.262e-07
6.86648e-05
1.14893e-07
6.8639e-05
1.03553e-07
6.8616e-05
9.19676e-08
6.85959e-05
7.9913e-08
6.85788e-05
6.71525e-08
6.85649e-05
5.34356e-08
6.85545e-05
3.84951e-08
6.85478e-05
2.20269e-08
6.85455e-05
3.45308e-09
6.85479e-05
-1.75862e-08
6.85558e-05
-4.11026e-08
6.85697e-05
-6.72831e-08
6.85902e-05
-9.63819e-08
6.86181e-05
-1.28645e-07
6.86541e-05
-1.64358e-07
6.8699e-05
-2.03884e-07
6.87539e-05
-2.477e-07
6.88198e-05
-2.96304e-07
6.88979e-05
-3.50324e-07
6.89893e-05
-4.09867e-07
6.90958e-05
-4.77556e-07
6.92182e-05
-5.47275e-07
6.9362e-05
-6.51352e-07
6.9522e-05
-7.35059e-07
6.96385e-05
-5.31083e-07
6.97635e-05
-5.58129e-07
6.98939e-05
-5.78641e-07
7.00311e-05
-6.15688e-07
7.01756e-05
-6.51539e-07
7.03273e-05
-6.86346e-07
7.04862e-05
-7.21202e-07
7.06524e-05
-7.56451e-07
7.08259e-05
-7.92336e-07
7.1007e-05
-8.29103e-07
7.11958e-05
-8.67104e-07
7.13925e-05
-9.06725e-07
7.15974e-05
-9.48503e-07
7.18112e-05
-9.93091e-07
7.20342e-05
-1.04141e-06
7.22674e-05
-1.09469e-06
7.25117e-05
-1.15473e-06
7.27688e-05
-1.22412e-06
7.30407e-05
-1.30716e-06
7.33304e-05
-1.40975e-06
7.36416e-05
-1.54672e-06
7.39806e-05
-1.72699e-06
7.43452e-05
-2.0354e-06
7.47442e-05
-2.35495e-06
-3.18838e-06
7.51823e-05
0.000127658
0.000131164
0.000114987
6.33181e-05
0.00010701
3.13464e-05
0.000102247
1.76988e-05
9.92076e-05
1.1306e-05
9.71116e-05
7.9101e-06
9.55692e-05
5.91594e-06
9.43775e-05
4.63643e-06
9.34247e-05
3.74951e-06
9.2644e-05
3.10019e-06
9.1992e-05
2.60751e-06
9.14393e-05
2.22363e-06
9.09648e-05
1.91786e-06
9.05533e-05
1.66964e-06
9.01934e-05
1.46487e-06
8.98764e-05
1.2937e-06
8.95954e-05
1.14916e-06
8.9345e-05
1.02607e-06
8.91207e-05