/*--------------------------------*- C++ -*----------------------------------*\
  =========                 |
  \\      /  F ield         | OpenFOAM: The Open Source CFD Toolbox
   \\    /   O peration     | Website:  https://openfoam.org
    \\  /    A nd           | Version:  8
     \\/     M anipulation  |
\*---------------------------------------------------------------------------*/
FoamFile
{
    version     2.0;
    format      ascii;
    class       volScalarField;
    location    "180";
    object      p;
}
// * * * * * * * * * * * * * * * * * * * * * * * * * * * * * * * * * * * * * //

dimensions      [0 2 -2 0 0 0 0];

internalField   nonuniform List<scalar> 
404911
(
0.416368
0.416295
0.416754
0.423596
0.416059
0.415384
0.416307
0.420193
0.422097
0.422961
0.416856
0.416665
0.415506
0.415644
0.415224
0.416579
0.416881
0.416347
0.416714
0.416856
0.416591
0.416103
0.415631
0.415572
0.415146
0.414568
0.413847
0.413694
0.412878
0.415795
0.414875
0.413725
0.41245
0.412551
0.414342
0.413755
0.412619
0.416196
0.414639
0.413423
0.412153
0.417428
0.416424
0.414649
0.412498
0.41159
0.416775
0.415536
0.414459
0.41302
0.419269
0.416266
0.415212
0.414706
0.420316
0.417115
0.417078
0.415853
0.417064
0.415535
0.416528
0.415771
0.416104
0.416126
0.41613
0.416602
0.415988
0.41652
0.415355
0.415439
0.413905
0.413702
0.413767
0.414578
0.413374
0.414726
0.414379
0.413901
0.413767
0.414332
0.412865
0.415195
0.41411
0.412666
0.416766
0.415097
0.417649
0.416044
0.41646
0.41775
0.416382
0.415163
0.416769
0.416273
0.417823
0.416437
0.41663
0.418796
0.416364
0.415858
0.421494
0.419232
0.417144
0.420586
0.309332
0.306888
0.304029
0.322041
0.32289
0.314536
0.31459
0.310821
0.308204
0.30407
0.294912
0.329919
0.325935
0.319225
0.316998
0.313894
0.311214
0.308169
0.30456
0.295261
0.334388
0.332892
0.331829
0.32988
0.327573
0.324726
0.319115
0.316308
0.314448
0.310508
0.306406
0.302761
0.299965
0.292277
0.295626
0.292073
0.337964
0.336283
0.334634
0.332805
0.331336
0.329827
0.327918
0.324942
0.320999
0.318535
0.315449
0.310998
0.30676
0.302789
0.295781
0.341827
0.340172
0.33905
0.337207
0.335503
0.333199
0.331525
0.329899
0.328236
0.325962
0.322855
0.319764
0.317216
0.311452
0.306563
0.344119
0.342587
0.340949
0.340004
0.338119
0.33705
0.334039
0.331276
0.329433
0.327822
0.325961
0.323985
0.321462
0.31746
0.313511
0.310231
0.347459
0.345914
0.344971
0.343494
0.342677
0.341056
0.339624
0.338827
0.335558
0.331712
0.329416
0.327655
0.325713
0.323828
0.321023
0.317894
0.31453
0.349499
0.348637
0.347622
0.346719
0.346022
0.345507
0.344803
0.343068
0.341285
0.339358
0.339508
0.336014
0.332413
0.330075
0.328095
0.326024
0.323919
0.321187
0.34988
0.349404
0.348208
0.348101
0.347304
0.346276
0.345522
0.344191
0.343292
0.341533
0.340853
0.33842
0.335335
0.332852
0.330806
0.3287
0.327197
0.32379
0.353939
0.351572
0.349566
0.347869
0.347988
0.347264
0.346674
0.345993
0.345298
0.344474
0.342643
0.341029
0.339864
0.337807
0.335361
0.333613
0.331556
0.32956
0.356119
0.353902
0.351923
0.349809
0.34827
0.347588
0.346559
0.345336
0.34508
0.344209
0.343906
0.34247
0.340706
0.338805
0.336793
0.335145
0.33225
0.359605
0.357265
0.355287
0.353634
0.352064
0.350398
0.34862
0.346998
0.345781
0.345092
0.344488
0.343869
0.343024
0.341546
0.340237
0.338773
0.337319
0.363695
0.361644
0.359348
0.357089
0.355312
0.35337
0.351757
0.350985
0.3486
0.345838
0.345553
0.344856
0.344851
0.344484
0.343119
0.341384
0.340537
0.338871
0.364593
0.362837
0.363222
0.362446
0.359723
0.357212
0.355591
0.35427
0.353703
0.350926
0.349429
0.347603
0.345877
0.345345
0.345114
0.34436
0.343444
0.342947
0.36736
0.365587
0.364433
0.363064
0.363518
0.362512
0.359489
0.356714
0.354901
0.354488
0.353968
0.352265
0.350475
0.349329
0.347584
0.345752
0.345418
0.344626
0.368676
0.366803
0.365311
0.364239
0.362604
0.363186
0.362371
0.359794
0.356495
0.354391
0.35426
0.353656
0.351715
0.350207
0.347805
0.347683
0.347288
0.343862
0.370427
0.368844
0.367714
0.366709
0.365599
0.364546
0.362785
0.362164
0.361275
0.359493
0.356659
0.354955
0.353867
0.353872
0.351702
0.348772
0.344844
0.3437
0.372487
0.370911
0.369178
0.368074
0.367524
0.366162
0.365509
0.363651
0.360894
0.359117
0.357148
0.356143
0.355016
0.353753
0.352725
0.351397
0.349557
0.346307
0.37311
0.373034
0.372225
0.371317
0.369677
0.368342
0.367396
0.367334
0.365997
0.364096
0.360873
0.358599
0.356722
0.355101
0.354814
0.353224
0.351998
0.349404
0.375887
0.373483
0.372916
0.37356
0.372013
0.370011
0.367919
0.366525
0.36641
0.365081
0.364267
0.360834
0.358523
0.35647
0.355347
0.354426
0.352381
0.376738
0.37511
0.374189
0.372925
0.372557
0.372981
0.371631
0.369573
0.367694
0.366213
0.365414
0.364503
0.362927
0.360698
0.358513
0.356814
0.355004
0.353495
0.379163
0.376434
0.374859
0.373678
0.372501
0.371638
0.371959
0.371137
0.369587
0.367965
0.365922
0.364822
0.363764
0.362161
0.360836
0.358588
0.355988
0.354875
0.380634
0.378137
0.37606
0.374575
0.373241
0.372529
0.371996
0.372153
0.370437
0.369044
0.368406
0.36672
0.365234
0.363584
0.362261
0.361963
0.358486
0.35678
0.385813
0.38226
0.379948
0.37796
0.376313
0.374557
0.372262
0.373062
0.372708
0.371984
0.370468
0.368903
0.367341
0.366236
0.365327
0.364684
0.362711
0.361148
0.388741
0.386887
0.384967
0.38256
0.380145
0.37777
0.376611
0.375246
0.373576
0.373498
0.373375
0.372846
0.371202
0.369191
0.36769
0.366778
0.364937
0.364511
0.391477
0.388843
0.387102
0.384967
0.382577
0.379907
0.377438
0.376139
0.376431
0.37447
0.373942
0.373617
0.372957
0.371592
0.36952
0.368164
0.366924
0.365289
0.392787
0.392089
0.390877
0.389427
0.387372
0.385445
0.383217
0.380362
0.377295
0.374354
0.376825
0.376873
0.375605
0.374464
0.373391
0.371921
0.368221
0.369414
0.393551
0.393359
0.392314
0.391175
0.389618
0.387802
0.386147
0.384204
0.381507
0.377926
0.374033
0.372943
0.374776
0.375273
0.374988
0.374354
0.371627
0.370444
0.394378
0.393971
0.393567
0.392665
0.391459
0.3899
0.388257
0.386741
0.385022
0.382581
0.379033
0.375446
0.373324
0.373203
0.373385
0.373651
0.372954
0.37055
0.395751
0.393594
0.393623
0.393235
0.392854
0.391585
0.390263
0.388924
0.387093
0.385402
0.383223
0.380159
0.376941
0.374575
0.373274
0.372794
0.372675
0.371669
0.396695
0.397221
0.39532
0.392682
0.392327
0.393001
0.392734
0.391108
0.389795
0.388884
0.387601
0.385831
0.383745
0.381108
0.378238
0.376115
0.374308
0.372227
0.399211
0.397254
0.396267
0.39536
0.393939
0.392922
0.392644
0.392326
0.390521
0.389214
0.388294
0.387646
0.38598
0.384001
0.381753
0.379268
0.377063
0.375567
0.399609
0.398648
0.397575
0.396861
0.395899
0.394894
0.393683
0.393131
0.392557
0.39126
0.389959
0.38854
0.387214
0.385738
0.384049
0.382407
0.380753
0.37861
0.398467
0.39921
0.398714
0.397611
0.396786
0.39607
0.395644
0.394488
0.393584
0.392872
0.391741
0.390444
0.388868
0.387236
0.385612
0.383967
0.382835
0.40097
0.39852
0.398495
0.398382
0.398669
0.397887
0.39694
0.395862
0.395829
0.394887
0.393897
0.393012
0.391916
0.390607
0.389008
0.387271
0.385738
0.383103
0.402609
0.400113
0.398292
0.397721
0.397967
0.398547
0.397662
0.396966
0.396406
0.396239
0.395085
0.394073
0.393037
0.391991
0.390679
0.388998
0.387185
0.386179
0.402555
0.401228
0.399128
0.397505
0.396396
0.397229
0.398618
0.397517
0.397073
0.395997
0.395774
0.395554
0.394258
0.393118
0.392012
0.390766
0.389641
0.387468
0.406102
0.403733
0.402147
0.400722
0.398809
0.396743
0.394846
0.394401
0.397867
0.397556
0.396982
0.395641
0.395359
0.394633
0.394106
0.392996
0.391696
0.390567
0.406262
0.404995
0.403965
0.402169
0.400733
0.398921
0.396838
0.394494
0.392627
0.395878
0.396933
0.39662
0.395381
0.394719
0.39431
0.393847
0.392813
0.390452
0.40756
0.406381
0.40493
0.403759
0.402262
0.400723
0.399171
0.397608
0.395257
0.392988
0.395179
0.395999
0.396622
0.395392
0.394608
0.394124
0.393544
0.392324
0.406971
0.408023
0.406313
0.405154
0.403951
0.402378
0.400724
0.399238
0.398228
0.396736
0.395297
0.395744
0.395508
0.395567
0.395154
0.394645
0.394231
0.392569
0.409419
0.408625
0.407214
0.406414
0.405076
0.403878
0.402405
0.400507
0.398582
0.397664
0.398144
0.397088
0.396242
0.395234
0.394923
0.394829
0.39423
0.412385
0.40992
0.409327
0.407688
0.40673
0.405911
0.404988
0.403863
0.402513
0.400537
0.398019
0.395925
0.39758
0.399339
0.397471
0.395754
0.395148
0.394751
0.411926
0.411023
0.409959
0.409059
0.407665
0.406588
0.405533
0.405156
0.404225
0.402847
0.400983
0.398328
0.395681
0.395219
0.397918
0.397241
0.396395
0.39499
0.413124
0.411838
0.410637
0.409749
0.408749
0.407688
0.406631
0.405048
0.405214
0.404466
0.403565
0.401615
0.399131
0.396732
0.395266
0.395407
0.395538
0.394767
0.413262
0.41255
0.41172
0.410678
0.409931
0.409058
0.408238
0.407145
0.405083
0.40414
0.404265
0.403954
0.40224
0.399885
0.397599
0.395877
0.394916
0.39434
0.413606
0.412998
0.412492
0.411682
0.410902
0.410244
0.409588
0.408886
0.407945
0.40659
0.405212
0.404441
0.403723
0.402263
0.400232
0.398229
0.396827
0.394459
0.413161
0.413759
0.413418
0.412619
0.411824
0.411239
0.410664
0.410044
0.409362
0.408428
0.407219
0.406008
0.404813
0.403519
0.402079
0.400285
0.39872
0.397349
0.412608
0.412885
0.413415
0.413661
0.412869
0.412101
0.411555
0.411009
0.410328
0.409569
0.408636
0.407519
0.406305
0.404928
0.403433
0.401929
0.400071
0.398146
0.413205
0.411729
0.411919
0.413
0.413816
0.412959
0.412144
0.411644
0.411329
0.410874
0.410027
0.40881
0.407711
0.406504
0.405031
0.40336
0.401681
0.400711
0.414725
0.413482
0.411815
0.411045
0.410299
0.410703
0.41311
0.412586
0.411878
0.411354
0.411182
0.411082
0.410593
0.409028
0.407875
0.406554
0.405005
0.403404
0.401966
0.415384
0.414913
0.413708
0.412155
0.410334
0.408991
0.407985
0.410995
0.412011
0.411894
0.411218
0.410682
0.410213
0.409776
0.408999
0.407822
0.406519
0.405419
0.415692
0.414265
0.41303
0.41166
0.410149
0.408808
0.407887
0.408675
0.410166
0.410831
0.410964
0.409999
0.409574
0.409213
0.40852
0.407314
0.406389
0.417078
0.416186
0.415347
0.414081
0.412983
0.411811
0.41054
0.409168
0.408224
0.408508
0.409391
0.409814
0.410013
0.409624
0.409194
0.408616
0.407791
0.406396
0.417476
0.416611
0.416131
0.415171
0.414157
0.413275
0.412353
0.411211
0.409945
0.409283
0.409244
0.409182
0.40941
0.40957
0.409244
0.408684
0.408075
0.406164
0.416961
0.417402
0.41667
0.415972
0.415082
0.41421
0.413387
0.41278
0.411974
0.410513
0.409763
0.409489
0.40892
0.409102
0.408923
0.408698
0.408086
0.407902
0.418066
0.417497
0.416631
0.415789
0.414953
0.414049
0.41313
0.412309
0.412326
0.411626
0.410068
0.40917
0.408688
0.408446
0.408195
0.407708
0.407183
0.418041
0.418016
0.417565
0.416541
0.415686
0.414862
0.413853
0.412805
0.412023
0.411589
0.411263
0.410141
0.409175
0.408588
0.408152
0.40785
0.407194
0.416842
0.416094
0.417433
0.417634
0.417223
0.416255
0.415525
0.414816
0.413864
0.412445
0.411633
0.410869
0.410364
0.40972
0.408987
0.408357
0.407882
0.407451
0.41646
0.415453
0.415038
0.416301
0.41674
0.416443
0.415798
0.415171
0.414707
0.414486
0.412883
0.411309
0.410376
0.409929
0.409334
0.408525
0.408657
0.416537
0.416451
0.415563
0.415415
0.416022
0.416456
0.416175
0.415341
0.414643
0.414069
0.413801
0.41315
0.411648
0.410714
0.409823
0.408938
0.408274
0.417629
0.416649
0.416471
0.416301
0.41579
0.415662
0.416015
0.416577
0.415963
0.415184
0.414333
0.413427
0.412743
0.412342
0.411745
0.410792
0.409745
0.408981
0.417114
0.41687
0.416456
0.416302
0.416068
0.415751
0.415592
0.415692
0.416213
0.415619
0.415475
0.414668
0.413372
0.412598
0.412163
0.41164
0.410835
0.410113
0.415886
0.416316
0.416456
0.416309
0.416118
0.415868
0.415697
0.414854
0.414616
0.41489
0.415076
0.414911
0.414527
0.413733
0.412541
0.41186
0.411159
0.410371
0.416589
0.415802
0.415661
0.416038
0.4162
0.415797
0.415146
0.415307
0.414704
0.413905
0.413662
0.413747
0.413953
0.413741
0.413387
0.412261
0.411138
0.41048
0.416961
0.415675
0.415386
0.415932
0.415421
0.415842
0.415944
0.415306
0.414854
0.414401
0.413857
0.413097
0.41283
0.412924
0.412606
0.412372
0.411849
0.410904
0.410003
0.416639
0.415621
0.414944
0.415102
0.415624
0.41543
0.415551
0.415477
0.415369
0.414733
0.414129
0.413273
0.412404
0.411809
0.411471
0.411517
0.411746
0.410283
0.409366
0.414094
0.414974
0.41441
0.414738
0.415287
0.415384
0.415149
0.415293
0.415265
0.414855
0.414087
0.413386
0.41242
0.411692
0.411033
0.410768
0.41074
0.409771
0.415884
0.415259
0.415053
0.414429
0.414311
0.414051
0.414326
0.414691
0.414725
0.414834
0.414892
0.414093
0.413202
0.412292
0.411446
0.410688
0.410042
0.416336
0.415479
0.415422
0.414937
0.414312
0.413749
0.413372
0.413291
0.413716
0.414173
0.414141
0.414053
0.413537
0.412826
0.412038
0.411436
0.409496
0.416653
0.415716
0.415237
0.414716
0.414623
0.413665
0.413301
0.413088
0.41298
0.413164
0.413475
0.413497
0.413488
0.412888
0.412295
0.411503
0.410989
0.417334
0.416858
0.415933
0.414886
0.414555
0.414106
0.413875
0.413265
0.412926
0.412963
0.41245
0.412721
0.412751
0.413028
0.412756
0.412234
0.411716
0.411745
0.417873
0.417497
0.416376
0.415697
0.414559
0.414138
0.413312
0.413024
0.412486
0.412602
0.412935
0.412763
0.412693
0.412246
0.411974
0.411444
0.410951
0.417917
0.41721
0.416326
0.416057
0.415362
0.414436
0.413954
0.413484
0.412895
0.41238
0.412581
0.412762
0.41244
0.41163
0.411345
0.410647
0.410023
0.417961
0.417473
0.41644
0.416037
0.41596
0.415607
0.414479
0.414186
0.413738
0.413215
0.41296
0.412831
0.412377
0.411782
0.411081
0.410641
0.4101
0.418615
0.417829
0.416904
0.416139
0.415684
0.415787
0.41474
0.414508
0.414056
0.413468
0.413329
0.412861
0.412312
0.411653
0.411077
0.410715
0.410112
0.418755
0.417929
0.417226
0.416679
0.416075
0.41508
0.414084
0.414262
0.414197
0.41322
0.412732
0.412618
0.412042
0.411482
0.410711
0.409898
0.409903
0.419796
0.418166
0.417357
0.417309
0.416966
0.415764
0.414308
0.413129
0.413218
0.413111
0.412428
0.411806
0.411572
0.411301
0.410632
0.410023
0.408589
0.418244
0.418029
0.417037
0.416843
0.416617
0.415744
0.414743
0.41339
0.412937
0.412813
0.411664
0.411233
0.410767
0.410235
0.410315
0.408518
0.419254
0.418612
0.417683
0.416892
0.416184
0.416003
0.415767
0.414909
0.41354
0.412289
0.411788
0.411114
0.410633
0.409793
0.409452
0.422003
0.420153
0.418833
0.417966
0.417834
0.416859
0.416021
0.415545
0.415658
0.414822
0.413273
0.411513
0.410888
0.410386
0.409657
0.409069
0.42332
0.422812
0.421216
0.418705
0.41687
0.417377
0.417009
0.416057
0.414642
0.414441
0.413794
0.412182
0.410822
0.410005
0.409485
0.408843
0.426749
0.424135
0.422607
0.421655
0.419206
0.417718
0.417206
0.416835
0.416058
0.414779
0.413292
0.412886
0.411349
0.410029
0.409673
0.408358
0.434747
0.430124
0.426653
0.424644
0.422817
0.42255
0.421161
0.419599
0.417678
0.416009
0.415432
0.415008
0.413088
0.412092
0.410155
0.409221
0.437149
0.433659
0.430045
0.427147
0.42536
0.423646
0.422785
0.42211
0.421215
0.419398
0.417989
0.417429
0.416197
0.414325
0.411794
0.410832
0.442462
0.438454
0.434184
0.430846
0.427979
0.4264
0.425298
0.423334
0.4224
0.421054
0.419568
0.419532
0.420678
0.420845
0.417051
0.412897
0.446173
0.443773
0.44093
0.436623
0.43262
0.42975
0.427936
0.42792
0.426045
0.423763
0.421008
0.419138
0.418409
0.417977
0.418609
0.418689
0.446825
0.445781
0.444258
0.441393
0.438639
0.435287
0.431841
0.428617
0.42904
0.42678
0.424446
0.421773
0.420388
0.418876
0.416931
0.416329
0.446486
0.446205
0.444964
0.443164
0.440878
0.438112
0.437258
0.434132
0.43168
0.430231
0.428284
0.426337
0.423446
0.420878
0.419374
0.44621
0.445713
0.445023
0.443494
0.442469
0.439488
0.437723
0.436263
0.434409
0.432277
0.431226
0.429471
0.427002
0.424431
0.421705
0.418886
0.446564
0.445751
0.444575
0.443561
0.442941
0.442094
0.439954
0.43744
0.435141
0.435008
0.433374
0.431828
0.429535
0.427696
0.424664
0.423106
0.447407
0.446427
0.445465
0.444161
0.442004
0.441717
0.441693
0.440468
0.437569
0.436298
0.435334
0.433893
0.431882
0.429603
0.427089
0.446369
0.446349
0.445024
0.444208
0.441971
0.442085
0.441344
0.44113
0.438886
0.437437
0.435908
0.434358
0.432027
0.429875
0.443515
0.445336
0.445593
0.443121
0.443306
0.43867
0.441971
0.440684
0.439739
0.438866
0.437081
0.43541
0.434696
0.448316
0.445775
0.444958
0.444497
0.444538
0.443382
0.441475
0.441774
0.440388
0.439312
0.43857
0.437215
0.43657
0.433823
0.451206
0.449145
0.447244
0.446111
0.444115
0.442876
0.443931
0.443506
0.440976
0.440238
0.43952
0.437797
0.437001
0.436093
0.453742
0.451666
0.450354
0.448906
0.446157
0.444366
0.443542
0.442477
0.44294
0.441551
0.440518
0.439045
0.437237
0.436768
0.456064
0.453592
0.451767
0.449883
0.446362
0.445053
0.445487
0.443937
0.443598
0.443271
0.442507
0.439911
0.438707
0.437577
0.458404
0.455818
0.453325
0.451591
0.449506
0.440371
0.445751
0.445417
0.445326
0.44413
0.443536
0.442841
0.441834
0.43823
0.462132
0.459711
0.455874
0.452909
0.451676
0.448297
0.438958
0.4439
0.446317
0.446446
0.444533
0.443541
0.443808
0.451675
0.449043
0.444811
0.441545
0.440373
0.441568
0.442558
0.442174
0.440128
0.450527
0.446141
0.442994
0.440156
0.439824
0.439078
0.440565
0.43838
0.454296
0.45116
0.446912
0.443884
0.43909
0.436358
0.437377
0.458321
0.454334
0.451708
0.448659
0.443793
0.438198
0.43448
0.454325
0.453203
0.449265
0.444042
0.439637
0.462337
0.457658
0.45503
0.454425
0.450402
0.44504
0.476747
0.472829
0.469771
0.465147
0.452954
0.482818
0.480975
0.476463
0.472264
0.467627
0.447481
0.491934
0.473098
0.466834
0.46216
0.458868
0.495033
0.488942
0.474346
0.120903
0.119192
0.118781
0.164755
0.15179
0.146149
0.144572
0.137701
0.127352
0.111769
0.133388
0.0666453
0.184881
0.179445
0.169322
0.168686
0.161766
0.157639
0.154344
0.147124
0.139871
0.133523
0.115047
0.115335
0.103638
0.0829956
0.0788295
0.205136
0.197153
0.192931
0.184994
0.1812
0.172593
0.168219
0.16597
0.16023
0.155538
0.148555
0.137807
0.129433
0.121211
0.114237
0.109508
0.0976215
0.0827644
0.0797535
0.0565844
0.0434765
0.0310022
0.230671
0.223344
0.216417
0.207732
0.198638
0.192938
0.186583
0.180486
0.175479
0.171326
0.166844
0.163305
0.158191
0.149446
0.134706
0.13362
0.122893
0.117561
0.112164
0.105118
0.0960638
0.0813258
0.0641655
0.251661
0.245583
0.241434
0.233398
0.226862
0.217356
0.208833
0.201261
0.194428
0.188757
0.182773
0.177891
0.173116
0.168927
0.16346
0.15884
0.148172
0.136134
0.124461
0.121633
0.116665
0.11255
0.107209
0.0994043
0.0883161
0.254492
0.252789
0.252146
0.248664
0.243765
0.235007
0.227791
0.220631
0.212886
0.202597
0.196443
0.190583
0.18402
0.178749
0.17537
0.17012
0.165094
0.159409
0.148158
0.130226
0.121894
0.122282
0.117151
0.112473
0.107171
0.260092
0.257047
0.255666
0.254629
0.253152
0.25064
0.246101
0.239507
0.231052
0.222549
0.214467
0.20432
0.198031
0.191808
0.18542
0.177711
0.176429
0.171448
0.165859
0.159409
0.149079
0.136919
0.125348
0.123221
0.116848
0.269284
0.264188
0.260432
0.258481
0.257126
0.255521
0.252764
0.251585
0.247841
0.241897
0.23441
0.224324
0.215061
0.2068
0.199121
0.193718
0.185145
0.178916
0.176599
0.172098
0.166527
0.159814
0.151894
0.141276
0.131415
0.286024
0.278778
0.272112
0.269302
0.265415
0.262067
0.259329
0.257487
0.25567
0.252344
0.250476
0.249018
0.244465
0.238835
0.229439
0.219165
0.211227
0.202255
0.194392
0.186686
0.179694
0.177791
0.172791
0.168972
0.162666
0.152487
0.295423
0.2931
0.29025
0.285045
0.280013
0.274554
0.270597
0.26687
0.263475
0.260036
0.257678
0.256307
0.252883
0.250628
0.248766
0.24578
0.240947
0.233314
0.223811
0.212573
0.203827
0.196618
0.190026
0.185375
0.181367
0.175358
0.170984
0.297724
0.295106
0.29298
0.290285
0.285671
0.280829
0.275815
0.272061
0.268315
0.264368
0.261357
0.258062
0.255861
0.253627
0.251373
0.248644
0.246461
0.242217
0.235103
0.226657
0.216231
0.204691
0.19838
0.191614
0.1864
0.304251
0.302264
0.300284
0.298352
0.294752
0.293045
0.290472
0.287707
0.28357
0.278814
0.273858
0.270083
0.266666
0.262731
0.258879
0.255438
0.253498
0.252166
0.249023
0.246793
0.242679
0.236049
0.226514
0.215466
0.203872
0.307831
0.304746
0.302832
0.301071
0.297845
0.292693
0.292707
0.290656
0.288414
0.286105
0.280906
0.276717
0.272292
0.268475
0.26427
0.260157
0.256646
0.254631
0.253117
0.249864
0.247298
0.242967
0.23661
0.226261
0.319012
0.316221
0.309243
0.305556
0.30409
0.302497
0.301127
0.298916
0.295454
0.293571
0.291249
0.288859
0.286942
0.281964
0.278252
0.273415
0.269585
0.265273
0.261558
0.258697
0.256119
0.253355
0.250704
0.247855
0.242591
0.327671
0.322946
0.318998
0.31634
0.311016
0.30699
0.304265
0.301265
0.297173
0.298999
0.298959
0.295329
0.29236
0.289344
0.28656
0.283735
0.278985
0.27421
0.269344
0.265031
0.26166
0.258834
0.256189
0.253621
0.25053
0.332018
0.329326
0.326903
0.323963
0.320523
0.317113
0.313316
0.309031
0.30549
0.300628
0.295551
0.297081
0.302307
0.297859
0.293395
0.29012
0.286885
0.283374
0.279454
0.275227
0.270323
0.266104
0.26236
0.258937
0.256272
0.337215
0.334839
0.334183
0.331776
0.329498
0.327087
0.323514
0.321303
0.31784
0.313908
0.310074
0.306382
0.300485
0.293279
0.292222
0.299179
0.299829
0.295212
0.290372
0.28579
0.281745
0.279432
0.275495
0.27051
0.266633
0.26319
0.340547
0.341618
0.337888
0.335494
0.333823
0.33133
0.329234
0.326825
0.32362
0.321453
0.318385
0.314181
0.310318
0.306359
0.301052
0.293951
0.290901
0.291935
0.292834
0.293365
0.289969
0.285393
0.280232
0.277348
0.27429
0.269648
0.348085
0.342612
0.339693
0.339015
0.33709
0.334935
0.333231
0.331338
0.329302
0.326951
0.32341
0.320675
0.318254
0.31435
0.310127
0.305966
0.301686
0.29912
0.295801
0.293701
0.292251
0.293056
0.291583
0.286816
0.278925
0.273676
0.271707
0.347407
0.347636
0.345158
0.342352
0.340269
0.338486
0.336897
0.335175
0.333437
0.331549
0.329508
0.327267
0.324411
0.320828
0.318389
0.314768
0.310291
0.305767
0.302409
0.30198
0.299738
0.297641
0.295633
0.294539
0.293047
0.28788
0.279789
0.349103
0.347645
0.345651
0.343927
0.342029
0.340603
0.339228
0.337821
0.336195
0.334067
0.331787
0.32968
0.327574
0.325093
0.322279
0.319305
0.315553
0.31106
0.306118
0.301613
0.301777
0.300465
0.298892
0.296404
0.294085
0.290802
0.352584
0.348876
0.347738
0.346619
0.345274
0.343818
0.342384
0.341339
0.340394
0.339291
0.338017
0.335531
0.332203
0.329803
0.327718
0.325405
0.322883
0.319988
0.316368
0.312182
0.307888
0.303113
0.302604
0.301081
0.298236
0.295193
0.354185
0.35137
0.350712
0.348856
0.34755
0.346529
0.345345
0.344264
0.343207
0.342207
0.341151
0.3399
0.338607
0.336592
0.332931
0.330202
0.328021
0.325647
0.323099
0.320343
0.31703
0.313336
0.30875
0.304709
0.302845
0.299814
0.355394
0.353162
0.351124
0.349371
0.348526
0.347608
0.346495
0.345383
0.344634
0.343751
0.342734
0.34158
0.340234
0.338751
0.336479
0.333405
0.330801
0.328477
0.326066
0.323342
0.320569
0.317405
0.313769
0.310266
0.306324
0.358994
0.357449
0.354647
0.352476
0.350239
0.348888
0.34846
0.347672
0.346553
0.345636
0.344799
0.343884
0.342834
0.341619
0.340301
0.338665
0.336269
0.333637
0.331303
0.32903
0.326556
0.323664
0.320261
0.317026
0.314084
0.311022
0.362021
0.360826
0.358513
0.356568
0.353964
0.351763
0.349849
0.348609
0.348128
0.347464
0.346575
0.345673
0.344775
0.34376
0.34264
0.341276
0.33979
0.338159
0.336441
0.334079
0.331748
0.329255
0.326222
0.323441
0.32078
0.318127
0.365622
0.363071
0.361457
0.359828
0.357872
0.35578
0.353533
0.351559
0.350018
0.348823
0.347977
0.347094
0.346324
0.345459
0.344472
0.343388
0.342263
0.340937
0.339386
0.33781
0.336494
0.334568
0.33248
0.329259
0.326767
0.323872
0.320427
0.36573
0.364545
0.363292
0.361222
0.359221
0.35723
0.3551
0.353175
0.351622
0.350412
0.349109
0.34786
0.346915
0.346134
0.345224
0.344186
0.343056
0.341853
0.340569
0.339327
0.337958
0.336366
0.334457
0.332752
0.330089
0.327794
0.368352
0.367125
0.3658
0.364431
0.363286
0.361482
0.359086
0.356718
0.354622
0.353144
0.351923
0.350511
0.349048
0.347689
0.346826
0.346105
0.345261
0.344301
0.343158
0.341912
0.340601
0.339244
0.337713
0.33649
0.333028
0.332465
0.368538
0.367563
0.366297
0.364885
0.363944
0.363351
0.361723
0.359254
0.356327
0.354555
0.353473
0.352509
0.350883
0.34904
0.347747
0.346934
0.346178
0.345295
0.344399
0.343371
0.34196
0.340138
0.338129
0.337688
0.335908
0.370979
0.369779
0.368422
0.366619
0.365406
0.364165
0.363362
0.362883
0.361704
0.359236
0.356214
0.354482
0.353757
0.353085
0.351602
0.349829
0.348633
0.347515
0.346676
0.345713
0.344553
0.343347
0.341553
0.339853
0.336428
0.372158
0.370532
0.368968
0.367616
0.366243
0.364994
0.363851
0.362778
0.362203
0.361116
0.35888
0.356396
0.354704
0.353977
0.353053
0.351233
0.349423
0.348454
0.347978
0.346822
0.345589
0.343995
0.34269
0.340946
0.340071
0.374252
0.373239
0.372036
0.370034
0.36864
0.367253
0.366337
0.365237
0.363987
0.362647
0.361579
0.360254
0.358369
0.356353
0.354918
0.353971
0.352812
0.351201
0.348892
0.346582
0.345922
0.345026
0.343672
0.343123
0.34181
0.375914
0.374298
0.373639
0.372244
0.370427
0.368625
0.367424
0.366725
0.36583
0.364444
0.362894
0.361188
0.359389
0.357511
0.355828
0.354913
0.353975
0.352729
0.351229
0.348748
0.346409
0.344783
0.344256
0.343248
0.342046
0.3773
0.37617
0.375013
0.373988
0.373438
0.372294
0.370565
0.368868
0.367476
0.36683
0.366134
0.364956
0.363367
0.361242
0.359019
0.35694
0.355202
0.354359
0.353835
0.352614
0.350707
0.348636
0.346638
0.345402
0.343847
0.379165
0.377373
0.375653
0.374271
0.373519
0.373024
0.372206
0.370668
0.369008
0.367545
0.366683
0.365928
0.365005
0.363613
0.361356
0.358917
0.356837
0.355235
0.354317
0.353273
0.351986
0.350023
0.348136
0.344714
0.382976
0.380339
0.378485
0.376466
0.374944
0.373673
0.372819
0.372258
0.371808
0.370344
0.368786
0.367378
0.366411
0.365654
0.36468
0.363272
0.361295
0.358909
0.356813
0.355299
0.354234
0.35288
0.35133
0.349825
0.347772
0.384627
0.382272
0.380354
0.378253
0.376274
0.374799
0.373572
0.372531
0.371827
0.371396
0.370024
0.368467
0.367092
0.365939
0.365067
0.364189
0.362973
0.361251
0.359031
0.356817
0.355294
0.353996
0.352786
0.350299
0.38869
0.386467
0.384843
0.382266
0.380128
0.37809
0.376383
0.374943
0.373692
0.372718
0.372086
0.371442
0.37005
0.368552
0.36722
0.365978
0.365074
0.364184
0.362967
0.361294
0.359129
0.356886
0.354852
0.353593
0.352389
0.390645
0.38864
0.386834
0.384688
0.382302
0.380113
0.378156
0.376705
0.375193
0.373884
0.373162
0.372618
0.371735
0.370319
0.368764
0.36728
0.365963
0.36514
0.364357
0.362861
0.360924
0.358921
0.357381
0.355081
0.393399
0.391834
0.390551
0.388619
0.386881
0.384641
0.382329
0.380102
0.378158
0.376987
0.375557
0.37425
0.373635
0.37312
0.372181
0.3708
0.369132
0.367639
0.366449
0.365463
0.364217
0.362574
0.360501
0.359228
0.357635
0.39403
0.393214
0.391915
0.390548
0.388838
0.386917
0.384768
0.382451
0.380029
0.377907
0.376866
0.37595
0.374834
0.374126
0.373467
0.372492
0.371266
0.369645
0.368167
0.366857
0.365525
0.364051
0.36267
0.360616
0.394845
0.394267
0.393164
0.392122
0.390716
0.389099
0.387213
0.385101
0.382751
0.380096
0.377497
0.375898
0.376023
0.375563
0.374927
0.374152
0.373208
0.371915
0.370131
0.368641
0.367296
0.365632
0.36412
0.362885
0.397064
0.395642
0.394718
0.393784
0.393128
0.392211
0.390989
0.389419
0.387602
0.385649
0.383358
0.380587
0.37756
0.374905
0.37422
0.374892
0.375072
0.374531
0.37367
0.372183
0.37033
0.368654
0.367193
0.36559
0.364021
0.398274
0.396949
0.395478
0.394365
0.393763
0.393226
0.392461
0.391293
0.389764
0.388056
0.386248
0.384088
0.381389
0.378391
0.375614
0.373939
0.373589
0.373611
0.373354
0.372608
0.371365
0.369851
0.368831
0.367221
0.400192
0.397815
0.396898
0.395374
0.394166
0.393632
0.393276
0.392639
0.391466
0.390041
0.38849
0.386711
0.384667
0.382239
0.379515
0.376932
0.374994
0.373915
0.373376
0.372684
0.371984
0.370717
0.369702
0.368153
0.399935
0.399416
0.397958
0.39673
0.395357
0.394043
0.393508
0.393243
0.392603
0.391391
0.390058
0.388634
0.387038
0.385172
0.383036
0.380664
0.378347
0.376381
0.37485
0.373735
0.37289
0.371967
0.371005
0.401336
0.400559
0.399932
0.398654
0.39771
0.39663
0.395485
0.394363
0.3936
0.393169
0.392467
0.391226
0.389977
0.388601
0.387182
0.385512
0.383641
0.38159
0.379514
0.377517
0.375839
0.374442
0.373134
0.371476
0.402252
0.400819
0.399961
0.399174
0.398401
0.397584
0.39675
0.395777
0.39477
0.393912
0.393308
0.392524
0.391324
0.390008
0.388603
0.387175
0.385648
0.383984
0.382224
0.380311
0.378568
0.37674
0.375637
0.373379
0.402781
0.401527
0.400278
0.399342
0.398831
0.398285
0.397579
0.396819
0.396019
0.39516
0.394317
0.393519
0.392644
0.391482
0.390108
0.38864
0.387219
0.385757
0.38425
0.382562
0.380716
0.378902
0.376936
0.405069
0.40309
0.402204
0.400523
0.399419
0.398808
0.398618
0.398346
0.39766
0.396906
0.396186
0.395461
0.394629
0.393664
0.392687
0.391523
0.390126
0.38869
0.387295
0.385877
0.384414
0.382888
0.381234
0.37812
0.407078
0.404434
0.402787
0.401488
0.399813
0.398626
0.398135
0.398333
0.398313
0.39764
0.396884
0.396174
0.395554
0.394753
0.393755
0.392704
0.391547
0.390206
0.388779
0.387281
0.385937
0.3844
0.38281
0.3821
0.405885
0.405467
0.404196
0.402474
0.400811
0.399197
0.39788
0.3972
0.397639
0.397946
0.397417
0.396766
0.395981
0.395355
0.394698
0.393874
0.392809
0.391648
0.390315
0.388829
0.387319
0.385734
0.384798
0.382613
0.407458
0.406375
0.405181
0.403701
0.402143
0.400502
0.398824
0.397314
0.396302
0.396531
0.397278
0.397114
0.39665
0.395828
0.395148
0.394588
0.393919
0.392852
0.391653
0.39028
0.388723
0.386945
0.385855
0.409364
0.408787
0.407322
0.406027
0.404858
0.403505
0.402001
0.400436
0.398796
0.397277
0.395918
0.395463
0.396494
0.39666
0.396446
0.395751
0.395019
0.394479
0.393811
0.392669
0.391391
0.390106
0.38869
0.38649
0.411911
0.409473
0.408472
0.407199
0.406037
0.404747
0.403462
0.402011
0.400498
0.399004
0.397669
0.396284
0.395429
0.396038
0.396202
0.39614
0.395631
0.394941
0.394326
0.393469
0.392427
0.391069
0.389674
0.388572
0.411982
0.41126
0.409609
0.408137
0.407109
0.40602
0.404824
0.403527
0.402086
0.40056
0.399134
0.39807
0.396999
0.396208
0.396126
0.395977
0.395838
0.39549
0.39488
0.394154
0.393171
0.391819
0.390599
0.413276
0.411896
0.410569
0.409286
0.408091
0.406991
0.405962
0.404795
0.403564
0.402114
0.400466
0.398926
0.398061
0.397621
0.397015
0.396449
0.395929
0.395661
0.395357
0.394789
0.393949
0.393035
0.391725
0.413107
0.412376
0.411489
0.41019
0.408926
0.407861
0.406835
0.40583
0.404743
0.403539
0.402089
0.400279
0.398462
0.397574
0.397795
0.397677
0.396984
0.396196
0.395637
0.395091