# vtk DataFile Version 2.0
track0
ASCII
DATASET POLYDATA
POINTS 12085 float
-0.0205 0.001 1e-05
-0.02052 0.000999985 1e-05
-0.02054 0.000999974 1e-05
-0.02056 0.000999965 1e-05
-0.02058 0.000999959 1e-05
-0.0206 0.000999956 1e-05
-0.0205 0.00367778 1e-05
-0.02052 0.00367778 1e-05
-0.02054 0.00367777 1e-05
-0.02056 0.00367777 1e-05
-0.02058 0.00367777 1e-05
-0.0206 0.00367777 1e-05
-0.0205 0.00635556 1e-05
-0.02052 0.00635555 1e-05
-0.02054 0.00635555 1e-05
-0.02056 0.00635555 1e-05
-0.02058 0.00635555 1e-05
-0.0206 0.00635555 1e-05
-0.0205 0.00903333 1e-05
-0.02052 0.00903333 1e-05
-0.02054 0.00903333 1e-05
-0.02056 0.00903333 1e-05
-0.02058 0.00903333 1e-05
-0.0206 0.00903333 1e-05
-0.0205 0.0117111 1e-05
-0.02052 0.0117111 1e-05
-0.02054 0.0117111 1e-05
-0.02056 0.0117111 1e-05
-0.02058 0.0117111 1e-05
-0.0206 0.0117111 1e-05
-0.0205 0.0143889 1e-05
-0.02052 0.0143889 1e-05
-0.02054 0.0143889 1e-05
-0.02056 0.0143889 1e-05
-0.02058 0.0143889 1e-05
-0.0206 0.0143889 1e-05
-0.0205 0.0170667 1e-05
-0.02052 0.0170667 1e-05
-0.02054 0.0170667 1e-05
-0.02056 0.0170667 1e-05
-0.02058 0.0170667 1e-05
-0.0206 0.0170667 1e-05
-0.0205 0.0197444 1e-05
-0.02052 0.0197444 1e-05
-0.02054 0.0197444 1e-05
-0.02056 0.0197444 1e-05
-0.02058 0.0197444 1e-05
-0.0206 0.0197444 1e-05
-0.0205 0.0224222 1e-05
-0.02052 0.0224222 1e-05
-0.02054 0.0224222 1e-05
-0.02056 0.0224222 1e-05
-0.02058 0.0224222 1e-05
-0.0206 0.0224222 1e-05
-0.0205 0.0251 1e-05
-0.02052 0.0250998 1e-05
-0.02054 0.0250997 1e-05
-0.02056 0.0250995 1e-05
-0.02058 0.0250995 1e-05
-0.0206 0.0250994 1e-05
-0.0205 0.001 1e-05
-0.0202034 0.00100022 1e-05
-0.0199069 0.00100067 1e-05
-0.0196103 0.00100133 1e-05
-0.0193137 0.00100221 1e-05
-0.0190172 0.00100329 1e-05
-0.0187132 0.0010047 1e-05
-0.0184093 0.00100594 1e-05
-0.0181054 0.00100717 1e-05
-0.0178015 0.00100841 1e-05
-0.0174976 0.00100965 1e-05
-0.0172058 0.00101097 1e-05
-0.016914 0.0010121 1e-05
-0.0166222 0.00101324 1e-05
-0.0163305 0.00101437 1e-05
-0.0160387 0.0010155 1e-05
-0.0157586 0.00101668 1e-05
-0.0154784 0.0010178 1e-05
-0.0151983 0.00101896 1e-05
-0.0149182 0.00102016 1e-05
-0.0146381 0.0010214 1e-05
-0.0144056 0.00102248 1e-05
-0.0141731 0.00102357 1e-05
-0.0139406 0.00102468 1e-05
-0.0137081 0.00102582 1e-05
-0.0135105 0.00102682 1e-05
-0.0134671 0.00102704 1e-05
-0.0134237 0.00102726 1e-05
-0.0133803 0.00102749 1e-05
-0.0133369 0.00102771 1e-05
-0.0132934 0.00102794 1e-05
-0.0130353 0.00102929 1e-05
-0.0127771 0.00103066 1e-05
-0.0125189 0.00103205 1e-05
-0.0122607 0.00103346 1e-05
-0.0120025 0.00103488 1e-05
-0.0117547 0.00103627 1e-05
-0.0115068 0.00103767 1e-05
-0.0112589 0.00103908 1e-05
-0.0110111 0.0010405 1e-05
-0.0107632 0.00104192 1e-05
-0.0105252 0.0010433 1e-05
-0.0102873 0.00104468 1e-05
-0.0100493 0.00104607 1e-05
-0.00981133 0.00104747 1e-05
-0.00957337 0.00104888 1e-05
-0.00934491 0.00105022 1e-05
-0.00911645 0.00105158 1e-05
-0.00888799 0.00105295 1e-05
-0.00865954 0.00105431 1e-05
-0.00843108 0.00105569 1e-05
-0.00821175 0.001057 1e-05
-0.00799242 0.00105833 1e-05
-0.00777309 0.00105965 1e-05
-0.00755376 0.00106099 1e-05
-0.00733443 0.00106232 1e-05
-0.00712387 0.0010636 1e-05
-0.0069133 0.00106489 1e-05
-0.00670273 0.00106619 1e-05
-0.00649217 0.00106749 1e-05
-0.0062816 0.00106879 1e-05
-0.00607944 0.00107004 1e-05
-0.00587729 0.00107131 1e-05
-0.00567514 0.00107258 1e-05
-0.00547298 0.00107386 1e-05
-0.00527083 0.00107515 1e-05
-0.00507675 0.00107638 1e-05
-0.00488267 0.00107764 1e-05
-0.0046886 0.0010789 1e-05
-0.00449452 0.00108018 1e-05
-0.00430044 0.00108147 1e-05
-0.00411412 0.00108272 1e-05
-0.0039278 0.00108399 1e-05
-0.00374147 0.00108528 1e-05
-0.00355515 0.00108659 1e-05
-0.00336883 0.00108792 1e-05
-0.00318995 0.00108921 1e-05
-0.00301107 0.00109053 1e-05
-0.00283219 0.00109189 1e-05
-0.00265331 0.00109327 1e-05
-0.00247443 0.00109468 1e-05
-0.0023027 0.00109607 1e-05
-0.00213097 0.0010975 1e-05
-0.00195924 0.00109898 1e-05
-0.00178751 0.0011005 1e-05
-0.00161577 0.00110206 1e-05
-0.0014509 0.00110361 1e-05
-0.00128603 0.00110522 1e-05
-0.00112116 0.00110691 1e-05
-0.000956293 0.00110867 1e-05
-0.000791418 0.00111051 1e-05
-0.000633135 0.00111235 1e-05
-0.000474852 0.00111428 1e-05
-0.000316571 0.00111632 1e-05
-0.000158291 0.00111846 1e-05
0 0.00112071 1e-05
0.000105677 0.00112228 1e-05
0.000211354 0.0011239 1e-05
0.00031703 0.00112557 1e-05
0.000422705 0.00112729 1e-05
0.000528387 0.00112905 1e-05
0.000634886 0.00113087 1e-05
0.000741385 0.00113271 1e-05
0.000847883 0.00113457 1e-05
0.000954381 0.00113645 1e-05
0.00106088 0.00113836 1e-05
0.00116821 0.0011403 1e-05
0.00127554 0.00114227 1e-05
0.00138286 0.00114425 1e-05
0.00149019 0.00114624 1e-05
0.00159752 0.00114825 1e-05
0.00170568 0.0011503 1e-05
0.00181384 0.00115238 1e-05
0.001922 0.00115449 1e-05
0.00203016 0.00115663 1e-05
0.00213833 0.00115878 1e-05
0.00224733 0.00116096 1e-05
0.00235633 0.00116319 1e-05
0.00246533 0.00116546 1e-05
0.00257433 0.00116776 1e-05
0.00268334 0.00117008 1e-05
0.00279319 0.00117242 1e-05
0.00290304 0.0011748 1e-05
0.00301288 0.00117723 1e-05
0.00312273 0.00117969 1e-05
0.00323259 0.00118217 1e-05
0.00334329 0.00118467 1e-05
0.00345399 0.00118723 1e-05
0.0035647 0.00118982 1e-05
0.0036754 0.00119244 1e-05
0.00378611 0.00119508 1e-05
0.00389767 0.00119776 1e-05
0.00400924 0.00120048 1e-05
0.0041208 0.00120325 1e-05
0.00423236 0.00120605 1e-05
0.00434393 0.00120887 1e-05
0.00445636 0.00121172 1e-05
0.00456879 0.00121462 1e-05
0.00468122 0.00121758 1e-05
0.00479365 0.00122056 1e-05
0.00490609 0.00122355 1e-05
0.0050194 0.00122658 1e-05
0.0051327 0.00122967 1e-05
0.005246 0.00123281 1e-05
0.00535931 0.00123598 1e-05
0.00547262 0.00123916 1e-05
0.00558681 0.00124236 1e-05
0.00570099 0.00124563 1e-05
0.00581518 0.00124896 1e-05
0.00592936 0.00125232 1e-05
0.00604356 0.00125568 1e-05
0.00615863 0.00125906 1e-05
0.0062737 0.00126251 1e-05
0.00638878 0.00126603 1e-05
0.00650385 0.00126958 1e-05
0.00661893 0.00127311 1e-05
0.0067349 0.00127667 1e-05
0.00685087 0.00128029 1e-05
0.00696683 0.00128399 1e-05
0.0070828 0.0012877 1e-05
0.00719878 0.00129141 1e-05
0.00731565 0.00129512 1e-05
0.00743252 0.00129891 1e-05
0.00754939 0.00130277 1e-05
0.00766625 0.00130665 1e-05
0.00778313 0.00131051 1e-05
0.00790091 0.00131438 1e-05
0.00801869 0.00131831 1e-05
0.00813647 0.00132232 1e-05
0.00825424 0.00132634 1e-05
0.00837203 0.00133034 1e-05
0.00849073 0.00133435 1e-05
0.00860942 0.00133841 1e-05
0.00872811 0.00134254 1e-05
0.0088468 0.00134669 1e-05
0.00896551 0.00135081 1e-05
0.00908513 0.00135493 1e-05
0.00920475 0.00135911 1e-05
0.00932436 0.00136334 1e-05
0.00944397 0.00136759 1e-05
0.0095636 0.00137181 1e-05
0.00968415 0.00137603 1e-05
0.0098047 0.0013803 1e-05
0.00992524 0.00138461 1e-05
0.0100458 0.00138894 1e-05
0.0101663 0.00139324 1e-05
0.0102878 0.00139755 1e-05
0.0104093 0.00140189 1e-05
0.0105308 0.00140627 1e-05
0.0106523 0.00141065 1e-05
0.0107738 0.00141502 1e-05
0.0108962 0.0014194 1e-05
0.0110186 0.00142381 1e-05
0.0111411 0.00142823 1e-05
0.0112635 0.00143266 1e-05
0.0113859 0.00143708 1e-05
0.0115093 0.00144152 1e-05
0.0116327 0.00144598 1e-05
0.0117561 0.00145044 1e-05
0.0118794 0.0014549 1e-05
0.0120028 0.00145936 1e-05
0.0121272 0.00146384 1e-05
0.0122515 0.00146833 1e-05
0.0123759 0.00147282 1e-05
0.0125002 0.00147731 1e-05
0.0126245 0.00148179 1e-05
0.0127498 0.0014863 1e-05
0.0128752 0.00149081 1e-05
0.0130005 0.00149531 1e-05
0.0131258 0.0014998 1e-05
0.0132511 0.00150429 1e-05
0.0133774 0.00150882 1e-05
0.0135036 0.00151333 1e-05
0.0136299 0.00151783 1e-05
0.0137562 0.00152232 1e-05
0.0138825 0.0015268 1e-05
0.0140098 0.00153132 1e-05
0.014137 0.00153582 1e-05
0.0142643 0.00154031 1e-05
0.0143915 0.00154478 1e-05
0.0145188 0.00154924 1e-05
0.0146471 0.00155375 1e-05
0.0147753 0.00155822 1e-05
0.0149036 0.00156268 1e-05
0.0150318 0.00156713 1e-05
0.0151601 0.00157156 1e-05
0.0152893 0.00157603 1e-05
0.0154186 0.00158047 1e-05
0.0155478 0.00158489 1e-05
0.0156771 0.00158929 1e-05
0.0158063 0.00159368 1e-05
0.0159366 0.00159809 1e-05
0.0160668 0.00160248 1e-05
0.0161971 0.00160684 1e-05
0.0163274 0.00161118 1e-05
0.0164576 0.0016155 1e-05
0.0165889 0.00161985 1e-05
0.0167201 0.00162416 1e-05
0.0168514 0.00162844 1e-05
0.0169827 0.0016327 1e-05
0.0171139 0.00163693 1e-05
0.0172462 0.00164119 1e-05
0.0173785 0.0016454 1e-05
0.0175108 0.00164959 1e-05
0.0176431 0.00165374 1e-05
0.0177754 0.00165787 1e-05
0.0179087 0.001662 1e-05
0.018042 0.0016661 1e-05
0.0181753 0.00167016 1e-05
0.0183087 0.00167418 1e-05
0.018442 0.00167817 1e-05
0.0185763 0.00168216 1e-05
0.0187107 0.00168611 1e-05
0.018845 0.00169002 1e-05
0.0189794 0.00169389 1e-05
0.0191137 0.00169772 1e-05
0.0192489 0.00170153 1e-05
0.019384 0.0017053 1e-05
0.0195191 0.00170902 1e-05
0.0196542 0.0017127 1e-05
0.0197907 0.00171637 1e-05
0.0197983 0.00171658 1e-05
0.0198059 0.00171678 1e-05
0.0198136 0.00171698 1e-05
0.0198212 0.00171718 1e-05
0.0198289 0.00171739 1e-05
0.0199577 0.00172079 1e-05
0.0200865 0.00172416 1e-05
0.0202154 0.00172747 1e-05
0.0203442 0.00173074 1e-05
0.020473 0.00173397 1e-05
0.0206105 0.00173736 1e-05
0.020748 0.0017407 1e-05
0.0208855 0.00174398 1e-05
0.021023 0.0017472 1e-05
0.0211606 0.00175036 1e-05
0.0212991 0.00175349 1e-05
0.0214377 0.00175655 1e-05
0.0215763 0.00175955 1e-05
0.0217149 0.00176249 1e-05
0.0218535 0.00176535 1e-05
0.0219931 0.00176818 1e-05
0.0221328 0.00177093 1e-05
0.0222724 0.00177361 1e-05
0.0224121 0.00177621 1e-05
0.0225517 0.00177875 1e-05
0.0226925 0.00178123 1e-05
0.0228332 0.00178362 1e-05
0.022974 0.00178593 1e-05
0.0231147 0.00178816 1e-05
0.0232555 0.00179031 1e-05
0.0233973 0.0017924 1e-05
0.0235391 0.00179439 1e-05
0.023681 0.00179628 1e-05
0.0238228 0.00179809 1e-05
0.0239647 0.0017998 1e-05
0.0241076 0.00180144 1e-05
0.0242505 0.00180297 1e-05
0.0243935 0.00180439 1e-05
0.0245364 0.00180571 1e-05
0.0246794 0.00180693 1e-05
0.0248234 0.00180806 1e-05
0.0249675 0.00180906 1e-05
0.0251115 0.00180995 1e-05
0.0252556 0.00181072 1e-05
[...]
POINT_DATA 12085
 FIELD attributes 1
U 3 12085 float
10.0004 	0.00734601 	0 10.0004 	0.00587681 	0 10.0003 	0.00440761 	0 10.0002 	0.0029384 	0 10.0001 	0.0014692 	0 10 	0 	0
10 	0.000964105 	0 10 	0.000771284 	0 10 	0.000578463 	0 10 	0.000385642 	0 10 	0.000192821 	0 10 	0 	0
10.0001 	0.000601889 	0 10.0001 	0.000481363 	0 10 	0.000360837 	0 10 	0.000240311 	0 10 	0.000119784 	0 10 	0 	0
10 	0.000432419 	0 10 	0.000345936 	0 10 	0.000259452 	0 10 	0.000172968 	0 10 	8.64839e-05 	0 10 	0 	0
10 	0.000256957 	0 10 	0.000205565 	0 10 	0.000154174 	0 10 	0.000102783 	0 10 	5.13913e-05 	0 10 	0 	0
10 	0.00014049 	0 10 	0.000112392 	0 10 	8.42937e-05 	0 10 	5.61958e-05 	0 10 	2.80979e-05 	0 10 	0 	0
10 	-8.71193e-05 	0 10 	-6.96955e-05 	0 10 	-5.22716e-05 	0 10 	-3.48477e-05 	0 10 	-1.74239e-05 	0 10 	0 	0
10 	-0.000286981 	0 10 	-0.000229585 	0 10 	-0.000172189 	0 10 	-0.000114792 	0 10 	-5.73962e-05 	0 10 	0 	0
9.99999 	-0.000369921 	0 9.99999 	-0.000295937 	0 10 	-0.000221953 	0 10 	-0.000147969 	0 10 	-7.39843e-05 	0 10 	0 	0
9.17391 	0.0871118 	0 9.13083 	0.0696894 	0 9.08743 	0.0522668 	0 9.0437 	0.0348439 	0 8.99963 	0.0174209 	0 8.95524 	0 	0
10.0004 	0.00734601 	0 10.0024 	0.0152758 	0 10.0044 	0.0223735 	0 10.0064 	0.0294265 	0 10.0084 	0.036435 	0 10.0133 	0.0467161 	0 10.016 	0.0406982 	0 10.0202 	0.0407578 	0 10.0245 	0.0408172 	0 10.0288 	0.0408764 	0 10.0346 	0.0454193 	0 10.0372 	0.0389378 	0 10.0409 	0.0389814 	0 10.0446 	0.039025 	0 10.0483 	0.0390687 	0 10.0521 	0.0421655 	0 10.0539 	0.0402594 	0 10.056 	0.0416559 	0 10.0581 	0.0430542 	0 10.0602 	0.0444542 	0 10.062 	0.0469022 	0 10.063 	0.0470626 	0 10.0638 	0.0482284 	0 10.0646 	0.0493952 	0 10.0654 	0.050563 	0 10.0661 	0.0515562 	0 10.0662 	0.0517758 	0 10.0664 	0.0519954 	0 10.0665 	0.0522151 	0 10.0667 	0.0524348 	0 10.0669 	0.0526245 	0 10.0668 	0.0534084 	0 10.0668 	0.0541712 	0 10.0668 	0.0549347 	0 10.0667 	0.0556989 	0 10.0667 	0.0562778 	0 10.0658 	0.0567919 	0 10.0647 	0.0571838 	0 10.0636 	0.057576 	0 10.0625 	0.0579684 	0 10.0612 	0.058105 	0 10.0599 	0.0585555 	0 10.0579 	0.0588154 	0 10.056 	0.0590754 	0 10.054 	0.0593355 	0 10.0515 	0.0593054 	0 10.0503 	0.0597448 	0 10.0477 	0.0599368 	0 10.045 	0.0601289 	0 10.0424 	0.0603211 	0 10.0388 	0.0602 	0 10.0379 	0.0606399 	0 10.0347 	0.0607937 	0 10.0315 	0.0609476 	0 10.0283 	0.0611016 	0 10.0234 	0.060944 	0 10.023 	0.0614408 	0 10.0193 	0.0616337 	0 10.0155 	0.0618268 	0 10.0118 	0.0620199 	0 10.0054 	0.0619306 	0 10.0057 	0.0625803 	0 10.0015 	0.0629115 	0 9.99718 	0.0632429 	0 9.99291 	0.0635744 	0 9.98488 	0.0636592 	0 9.98614 	0.0645673 	0 9.98139 	0.0651535 	0 9.97664 	0.06574 	0 9.97189 	0.0663268 	0 9.96216 	0.0667142 	0 9.96456 	0.0680119 	0 9.95932 	0.0689683 	0 9.9541 	0.0699251 	0 9.94887 	0.0708823 	0 9.93724 	0.071677 	0 9.94092 	0.0735344 	0 9.93525 	0.0751476 	0 9.92959 	0.0767615 	0 9.92394 	0.0783763 	0 9.91036 	0.0799361 	0 9.91564 	0.082686 	0 9.90955 	0.0851938 	0 9.90348 	0.087703 	0 9.89743 	0.0902134 	0 9.88174 	0.0926834 	0 9.88906 	0.0966148 	0 9.88297 	0.101081 	0 9.87691 	0.105549 	0 9.87044 	0.110025 	0 9.85348 	0.114648 	0 9.86232 	0.120517 	0 9.85978 	0.127004 	4.51445e-21 9.85614 	0.133554 	9.47788e-21 9.85082 	0.139986 	1.30361e-20 9.83657 	0.145805 	9.38964e-21 9.84839 	0.15088 	9.75117e-20 9.85007 	0.155519 	1.11195e-19 9.84924 	0.160051 	1.0636e-19 9.84591 	0.164355 	8.16149e-20 9.83323 	0.167815 	-1.701e-20 9.84784 	0.17035 	-4.5271e-20 9.85114 	0.172327 	-5.57042e-20 9.85114 	0.174141 	-6.09219e-20 9.8478 	0.175997 	-5.48199e-20 9.83418 	0.177984 	-1.38324e-20 9.84998 	0.180318 	-1.29298e-20 9.85305 	0.181901 	-8.87942e-21 9.85159 	0.183215 	-3.70422e-21 9.8458 	0.184505 	2.7474e-21 9.82909 	0.185736 	1.2411e-20 9.84581 	0.189634 	2.90762e-21 9.84886 	0.19228 	-1.17127e-20 9.84589 	0.194375 	-2.85863e-20 9.83735 	0.195925 	-4.91634e-20 9.81745 	0.196367 	-7.72794e-20 9.83595 	0.201325 	-1.37288e-19 9.83998 	0.204749 	-1.52191e-19 9.836 	0.207324 	-1.4213e-19 9.82472 	0.208848 	-1.04437e-19 9.80164 	0.208677 	-2.21756e-20 9.82258 	0.213673 	7.20974e-20 9.82836 	0.217267 	1.19759e-19 9.82336 	0.219865 	1.34253e-19 9.80873 	0.221252 	1.08037e-19 9.78206 	0.221128 	3.09262e-20 9.80606 	0.226133 	-1.11579e-19 9.81455 	0.229881 	-1.85386e-19 9.80846 	0.232446 	-1.94672e-19 9.78962 	0.233747 	-1.31475e-19 9.75874 	0.233856 	1.10899e-22 9.78673 	0.239137 	1.30382e-19 9.79939 	0.243187 	2.01784e-19 9.79235 	0.245654 	1.97569e-19 9.76826 	0.246666 	1.23659e-19 9.73248 	0.246681 	1.98595e-21 9.76529 	0.252362 	-9.38049e-20 9.78388 	0.256868 	-1.63911e-19 9.77602 	0.259189 	-1.86323e-19 9.74529 	0.259673 	-1.40485e-19 9.70386 	0.259298 	-6.26984e-20 9.74185 	0.265516 	-1.40185e-19 9.76813 	0.270721 	-1.95618e-19 9.75954 	0.272914 	-1.85706e-19 9.72069 	0.272614 	-1.11946e-19 9.67321 	0.271603 	-1.99522e-20 9.71631 	0.278364 	-2.1127e-20 9.75193 	0.284448 	-1.95839e-20 9.74279 	0.286498 	-2.04164e-21 9.69449 	0.285159 	9.35588e-21 9.64102 	0.283374 	1.9945e-20 9.68874 	0.290607 	9.83677e-21 9.73503 	0.297704 	0 9.72544 	0.299576 	0 9.66656 	0.296963 	0 9.60756 	0.294339 	0 9.65899 	0.301873 	0 9.71051 	0.309413 	0 9.70045 	0.311084 	-1.74692e-20 9.6369 	0.307713 	-4.77622e-20 9.57332 	0.30434 	-7.80608e-20 9.62737 	0.311959 	-1.43026e-19 9.68152 	0.319584 	-2.07985e-19 9.67262 	0.321172 	-2.08728e-19 9.60569 	0.317206 	-1.43535e-19 9.53872 	0.313237 	-7.83347e-20 9.59397 	0.320631 	4.71367e-20 9.64932 	0.328031 	1.72613e-19 9.64174 	0.329468 	1.96762e-19 9.57307 	0.325102 	1.14733e-19 9.50434 	0.320732 	3.26948e-20 9.55935 	0.327556 	1.15681e-19 9.61447 	0.334388 	1.9866e-19 9.60826 	0.335606 	1.9869e-19 9.53956 	0.331109 	1.15204e-19 9.4708 	0.326609 	3.17109e-20 9.52402 	0.332671 	1.82491e-20 9.57734 	0.33874 	4.78065e-21 9.57231 	0.339708 	0 9.50532 	0.335298 	0 9.43828 	0.330883 	0 9.48862 	0.336047 	0 9.53904 	0.341216 	0 9.53492 	0.341944 	-2.76355e-21 9.4709 	0.33788 	-1.58708e-20 9.40682 	0.333813 	-2.89822e-20 9.45327 	0.338012 	-1.14513e-19 9.49977 	0.342217 	-2.00038e-19 9.49571 	0.34268 	-1.86367e-19 9.43627 	0.339184 	-9.53824e-20 9.37629 	0.335648 	-3.70391e-21 9.41818 	0.338879 	1.06976e-19 9.45394 	0.341708 	2.0152e-19 9.44832 	0.34183 	1.87904e-19 9.40176 	0.339395 	9.61431e-20 9.34668 	0.336428 	-1.18526e-20 9.38376 	0.338711 	-4.29228e-21 9.40868 	0.340307 	-2.58925e-21 9.40284 	0.340169 	-1.56733e-20 9.36786 	0.338512 	-2.83224e-20 9.31817 	0.336088 	-4.07516e-20 9.35052 	0.337464 	-2.91251e-20 9.36614 	0.338066 	-1.74805e-20 9.36022 	0.337672 	-5.81229e-21 9.33509 	0.336517 	0 9.29086 	0.334607 	0 9.31877 	0.335143 	0 9.32672 	0.334984 	-8.14184e-21 9.32081 	0.334341 	-2.1935e-20 9.30364 	0.333424 	-3.30015e-20 9.26465 	0.331978 	-3.87834e-20 9.28846 	0.331705 	-1.40949e-19 9.29032 	0.330994 	-1.65594e-19 9.28453 	0.330129 	-1.63209e-19 9.27361 	0.329242 	-1.42999e-19 9.23963 	0.328259 	-4.2131e-20 9.25992 	0.327346 	-3.76686e-20 9.25719 	0.326308 	-6.13803e-20 9.25161 	0.325254 	-8.85625e-20 9.2454 	0.324209 	-1.16039e-19 9.21594 	0.323562 	-1.55286e-19 9.23236 	0.322193 	-2.23755e-19 9.22706 	0.320948 	-2.09025e-19 9.22173 	0.319702 	-1.94303e-19 9.21638 	0.318454 	-1.79587e-19 9.19359 	0.317845 	-1.06172e-19 9.20482 	0.316104 	1.24685e-20 9.19984 	0.314654 	6.23675e-20 9.19483 	0.313202 	1.12288e-19 9.18978 	0.311748 	1.62231e-19 9.1726 	0.31102 	1.10921e-19 9.1798 	0.308959 	1.68963e-19 9.17517 	0.307289 	1.53463e-19 9.17049 	0.305617 	1.37979e-19 9.16578 	0.303942 	1.22512e-19 9.15294 	0.302995 	5.59451e-20 9.15705 	0.300676 	3.54052e-20 9.15281 	0.298764 	-4.44631e-21 9.14852 	0.296848 	-4.42946e-20 9.14419 	0.29493 	-8.41397e-20 9.1347 	0.293652 	-1.18036e-19 9.13653 	0.291106 	-1.08216e-19 9.13273 	0.28891 	-1.09717e-19 9.12888 	0.286712 	-1.11202e-19 9.12497 	0.28451 	-1.12669e-19 9.11802 	0.282803 	-1.22288e-19 9.11826 	0.280025 	-9.68266e-20 9.11496 	0.277547 	-7.13251e-20 9.1116 	0.275065 	-4.58135e-20 9.10817 	0.272581 	-2.02918e-20 9.10316 	0.270446 	0 9.10239 	0.267486 	1.01186e-20 9.09962 	0.264736 	2.26951e-20 9.09679 	0.261984 	3.52665e-20 9.09388 	0.259227 	4.78327e-20 9.09033 	0.256652 	6.11486e-20 9.08899 	0.253484 	2.75138e-20 9.08676 	0.250412 	3.82657e-21 9.08444 	0.247336 	-1.99133e-20 9.08205 	0.244257 	-4.37058e-20 9.07953 	0.241153 	-6.71789e-20 9.07947 	0.240956 	-6.78436e-20 9.07938 	0.240764 	-6.85961e-20 9.07929 	0.240572 	-6.93484e-20 9.0792 	0.24038 	-7.01007e-20 9.07911 	0.240184 	-7.08668e-20 9.07743 	0.23693 	-8.55332e-20 9.07567 	0.233673 	-1.0012e-19 9.07383 	0.230412 	-1.14629e-19 9.07192 	0.227149 	-1.29058e-19 9.0686 	0.223858 	-1.2962e-19 9.06854 	0.21999 	-9.05402e-20 9.06728 	0.21616 	-5.05704e-20 9.06592 	0.212326 	-1.06077e-20 9.06446 	0.208489 	2.9348e-20 9.06065 	0.204634 	6.58413e-20 9.06193 	0.200285 	6.33853e-20 9.0613 	0.196038 	6.26532e-20 9.06055 	0.191787 	6.19385e-20 9.05971 	0.187534 	6.12411e-20 9.05598 	0.183283 	6.52905e-20 9.05823 	0.178396 	6.9155e-20 9.05826 	0.17368 	5.68382e-20 9.05817 	0.168961 	4.44544e-20 9.05797 	0.16424 	3.20037e-20 9.05472 	0.159546 	5.80328e-21 9.05767 	0.154073 	-7.06703e-22 9.0584 	0.148833 	2.45911e-20 9.05901 	0.14359 	4.99954e-20 9.05948 	0.138345 	7.5506e-20 9.05704 	0.133155 	1.31639e-19 9.06049 	0.127045 	1.71552e-19 9.06194 	0.121206 	1.83655e-19 9.06325 	0.115365 	1.95628e-19 9.06442 	0.109522 	2.07472e-19 9.06304 	0.103749 	1.88252e-19 9.06682 	0.0969393 	1.84707e-19 9.06895 	0.0904042 	1.45144e-19 9.07094 	0.0838684 	1.05411e-19 9.07277 	0.0773318 	6.5505e-20 9.07263 	0.0708667 	-1.96834e-21 9.0766 	0.0632967 	-1.67702e-21 9.07936 	0.0559612 	-1.27845e-21 9.08196 	0.0486261 	-8.80404e-22 9.0844 	0.0412912 	-4.82882e-22 9.08562 	0.0340066 	-1.29434e-22 9.08966 	0.0256082 	1.17444e-20 9.09297 	0.017355 	2.49406e-20 9.0961 	0.00910332 	3.81535e-20 9.09905 	0.000853235 	5.13832e-20 9.10175 	-0.00739132 	6.46295e-20 9.10204 	-0.00799638 	6.38552e-20 9.10229 	-0.00859132 	6.30848e-20 9.10254 	-0.00918625 	6.23146e-20 9.10279 	-0.00978117 	6.15444e-20 9.10303 	-0.0103518 	6.08058e-20 9.1065 	-0.0190439 	4.89192e-20 9.1098 	-0.0277317 	3.70146e-20 9.11291 	-0.0364151 	2.50919e-20 9.11585 	-0.0450942 	1.31511e-20 9.11899 	-0.0535783 	6.08119e-21 9.12329 	-0.0641219 	1.36567e-20 9.12709 	-0.0745848 	-4.38185e-21 9.13066 	-0.0850404 	-2.20229e-20 9.13402 	-0.0954888 	-3.92669e-20 9.138 	-0.105531 	-1.10322e-19 9.14281 	-0.117494 	-1.09256e-19 9.14661 	-0.129284 	-1.08157e-19 9.15017 	-0.141065 	-1.06958e-19 9.1535 	-0.152836 	-1.0566e-19 9.1579 	-0.164006 	-1.23941e-19 9.16322 	-0.177545 	-1.97581e-19 9.16675 	-0.190794 	-1.56573e-19 9.17003 	-0.204031 	-1.16021e-19 9.17304 	-0.217255 	-7.59258e-20 9.17749 	-0.229716 	1.08832e-19 9.1834 	-0.245003 	8.1185e-20 9.18632 	-0.259805 	5.37379e-20 9.18896 	-0.274591 	2.62298e-20 9.19139 	-0.289331 	2.11415e-22 9.19524 	-0.30324 	1.45306e-20 9.20123 	-0.320329 	2.11631e-21 9.20388 	-0.336837 	-1.95851e-20 9.2055 	-0.353192 	-4.34583e-20 9.20727 	-0.369248 	-5.61269e-20 9.2095 	-0.384834 	-5.05618e-20 9.21466 	-0.40363 	1.72385e-19 9.21789 	-0.422089 	3.31461e-19 9.21805 	-0.439984 	3.80436e-19 9.21831 	-0.457373 	2.44023e-19 9.21839 	-0.474616 	5.41559e-20 9.22222 	-0.495115 	2.91738e-20 9.22569 	-0.51559 	4.28662e-21 9.22471 	-0.534964 	0 9.22248 	-0.553647 	0 9.21993 	-0.572333 	0 9.22194 	-0.594336 	0 9.22358 	-0.616316 	0 9.22318 	-0.637474 	-1.91391e-20 9.21783 	-0.65724 	-2.76644e-20 9.21216 	-0.677016 	-3.63868e-20 9.2118 	-0.700173 	-2.72164e-19 9.21059 	-0.723053 	-4.37659e-19 9.20793 	-0.745348 	-4.46799e-19 9.20244 	-0.766855 	-3.72348e-19 9.19324 	-0.787346 	-1.8485e-19 9.19001 	-0.81126 	-3.987e-19 9.1843 	-0.834243 	-3.94198e-19 9.17809 	-0.857149 	-3.76098e-19 9.17153 	-0.880032 	-3.57545e-19 9.16144 	-0.901875 	-2.6446e-19 9.15773 	-0.913899 	-3.18975e-19 9.15293 	-0.925485 	-2.75389e-19 9.14805 	-0.937068 	-2.31631e-19 9.14308 	-0.948646 	-1.87703e-19 9.1386 	-0.958895 	-1.48649e-19 9.13336 	-0.97064 	-1.14081e-19 9.12804 	-0.98238 	-7.94539e-20 9.12263 	-0.994116 	-4.47671e-20 9.11712 	-1.00585 	-1.00209e-20 9.11121 	-1.01729 	-1.044e-20 9.10066 	-1.04153 	-7.45467e-20 9.0869 	-1.06434 	-7.49649e-20 9.07281 	-1.08714 	-7.60181e-20 9.058 	-1.10967 	-4.65784e-20 9.04169 	-1.13143 	7.73578e-20 9.02889 	-1.15599 	5.40927e-20 9.01547 	-1.1804 	2.88673e-20 8.99695 	-1.20231 	-2.20906e-20 8.97647 	-1.2231 	-4.30324e-20 8.95559 	-1.24397 	-6.39275e-20 8.93863 	-1.26754 	-3.01969e-20 8.92109 	-1.29092 	-9.8322e-22 8.90121 	-1.31279 	-1.01359e-20 8.87878 	-1.33342 	-1.97372e-20 8.85362 	-1.35281 	-2.98464e-20 8.83577 	-1.3715 	-2.40468e-20 8.81568 	-1.3885 	-5.44102e-20 8.79529 	-1.40544 	-8.61013e-20 8.77468 	-1.42238 	-1.17911e-19 8.75664 	-1.43704 	-1.45541e-19 8.75236 	-1.44065 	-1.51002e-19 8.74808 	-1.44426 	-1.56465e-19 8.74378 	-1.44787 	-1.61931e-19 8.73944 	-1.45144 	-1.65955e-19 8.73484 	-1.45471 	-1.59905e-19 8.7088 	-1.47423 	-1.2542e-19 8.68124 	-1.49291 	-9.56679e-20 8.65337 	-1.5116 	-6.56858e-20 8.62457 	-1.5296 	-5.65727e-20 8.59413 	-1.54633 	-8.75938e-20 8.56623 	-1.56512 	-1.03214e-19 8.53802 	-1.58393 	-1.18794e-19 8.50738 	-1.60057 	-1.09369e-19 8.47394 	-1.61484 	-7.14914e-20 8.44008 	-1.62919 	-3.35282e-20 8.40969 	-1.64497 	-3.37715e-20 8.37787 	-1.65893 	-2.75231e-20 8.34542 	-1.67229 	-1.91359e-20 8.31272 	-1.68566 	-1.08035e-20 8.28354 	-1.6975 	-3.47755e-21 8.28173 	-1.69831 	-2.52709e-21 8.27992 	-1.69911 	-1.57647e-21 8.27811 	-1.69991 	-6.25715e-22 8.27627 	-1.70066 	0 8.27437 	-1.70133 	0 8.23886 	-1.71393 	0 8.20274 	-1.72627 	0 8.16637 	-1.73864 	0 8.12908 	-1.74996 	0 8.09044 	-1.75991 	0 8.05378 	-1.77137 	0 8.01687 	-1.78286 	0 7.97875 	-1.79237 	0 7.9388 	-1.80025 	0 7.89798 	-1.8078 	0 7.87762 	-1.81244 	0 7.85695 	-1.81643 	1.06482e-22 7.83603 	-1.8199 	2.95955e-22 7.81506 	-1.82337 	4.85636e-22 7.79498 	-1.82669 	6.66826e-22 7.7755 	-1.8305 	7.39379e-22 7.75597 	-1.83432 	8.11674e-22 7.73638 	-1.83815 	8.83709e-22 7.71615 	-1.84146 	9.73089e-22 7.69518 	-1.84423 	1.08162e-21 7.65559 	-1.8509 	4.03331e-20 7.61537 	-1.85737 	7.53943e-20 7.57293 	-1.86253 	8.27689e-20 7.52852 	-1.86608 	4.59301e-20 7.48369 	-1.86968 	8.91556e-21 7.45002 	-1.87326 	3.25331e-20 7.41552 	-1.87616 	4.35567e-20 7.38009 	-1.87828 	3.99652e-20 7.34453 	-1.88041 	3.63142e-20 7.31091 	-1.88244 	3.28189e-20 7.3026 	-1.88312 	3.06803e-20 7.29429 	-1.8838 	2.85363e-20 7.28596 	-1.88448 	2.63869e-20 7.27729 	-1.88497 	2.91108e-20 7.26827 	-1.88527 	3.66981e-20 7.22741 	-1.88737 	1.10445e-19 7.18472 	-1.88891 	1.45986e-19 7.14186 	-1.89049 	1.81755e-19 7.09643 	-1.89073 	1.31732e-19 7.05007 	-1.89069 	6.13335e-20 7.00872 	-1.89133 	6.94119e-20 6.96632 	-1.89148 	6.8866e-20 6.92213 	-1.8907 	5.23441e-20 6.87776 	-1.88994 	3.58043e-20 6.83259 	-1.88906 	1.75495e-20 6.83026 	-1.88902 	1.74465e-20 6.82787 	-1.88896 	1.74382e-20 6.82541 	-1.88885 	1.75595e-20 6.82295 	-1.88874 	1.76809e-20 6.8205 	-1.88863 	1.78019e-20 6.78028 	-1.88709 	1.44411e-20 6.73993 	-1.88556 	1.10678e-20 6.69945 	-1.88405 	7.68187e-21 6.65779 	-1.88182 	6.79991e-21 6.61486 	-1.8789 	8.30116e-21 6.57397 	-1.87668 	4.22756e-21 6.53295 	-1.87447 	1.49036e-22 6.49003 	-1.87104 	0 6.44641 	-1.86747 	4.36473e-22 6.40124 	-1.86362 	1.99211e-21 6.38855 	-1.86268 	7.17745e-22 6.37565 	-1.86159 	0 6.36248 	-1.8603 	0 6.34929 	-1.85902 	0 6.33627 	-1.85775 	0 6.3078 	-1.85494 	0 6.27928 	-1.85213 	0 6.2507 	-1.84933 	0 6.22149 	-1.84608 	0 6.19158 	-1.84237 	0 6.15265 	-1.83803 	0 6.1136 	-1.8337 	0 6.073 	-1.82865 	4.89063e-21 6.03053 	-1.82291 	1.53153e-20 5.98782 	-1.81717 	2.57637e-20 5.96485 	-1.81431 	7.48389e-20 5.94147 	-1.81119 	9.03929e-20 5.91763 	-1.80775 	6.68222e-20 5.89375 	-1.80432 	4.32043e-20 5.87034 	-1.80096 	2.00323e-20 5.85446 	-1.79857 	7.45155e-21 5.83856 	-1.79619 	-5.14558e-21 5.82265 	-1.79381 	-1.77592e-20 5.80643 	-1.79119 	-9.49329e-21 5.78987 	-1.78832 	2.16009e-20 5.75349 	-1.78248 	6.86516e-20 5.71619 	-1.77651 	1.0117e-19 5.67784 	-1.77034 	1.13771e-19 5.63818 	-1.76324 	6.94869e-20 5.59832 	-1.75614 	2.5105e-20 5.56478 	-1.75052 	-2.45113e-20 5.5306 	-1.74451 	-4.62363e-20 5.49574 	-1.73809 	-3.93814e-20 5.46082 	-1.73167 	-3.24722e-20 5.42673 	-1.72542 	-2.56872e-20 5.42407 	-1.7249 	-2.68233e-20 5.42141 	-1.72439 	-2.79593e-20 5.41875 	-1.72387 	-2.90954e-20 5.41605 	-1.72332 	-2.98529e-20 5.41329 	-1.72273 	-3.01416e-20 5.37847 	-1.71577 	2.35475e-21 5.34315 	-1.70875 	2.852e-20 5.30777 	-1.70174 	5.4731e-20 5.27158 	-1.69421 	3.85102e-20 5.23468 	-1.68627 	-1.09695e-20 5.20152 	-1.67955 	-8.04037e-21 5.16825 	-1.67281 	-5.47045e-21 5.13372 	-1.66527 	-1.46795e-20 5.0988 	-1.6577 	-2.49346e-20 5.0625 	-1.64997 	-3.91796e-20 5.05165 	-1.64779 	-5.56184e-20 5.04058 	-1.64548 	-5.9378e-20 5.02932 	-1.64305 	-5.11258e-20 5.01805 	-1.64063 	-4.28688e-20 5.00686 	-1.63822 	-3.46693e-20 4.98509 	-1.6332 	-2.02154e-20 4.96329 	-1.62818 	-5.74826e-21 4.94147 	-1.62316 	8.7324e-21 4.91927 	-1.61789 	9.56207e-21 4.89654 	-1.61227 	-8.67289e-21 4.86616 	-1.60524 	-5.73028e-21 4.83573 	-1.59821 	-2.78236e-21 4.80355 	-1.59069 	8.88557e-23 4.77022 	-1.58262 	2.5164e-22 4.73678 	-1.57454 	4.14661e-22 4.71211 	-1.56896 	1.62558e-20 4.68687 	-1.56303 	1.96402e-20 4.66117 	-1.55683 	1.31263e-20 4.63543 	-1.55063 	6.60303e-21 4.61005 	-1.54452 	1.68904e-22 4.60464 	-1.54313 	-1.18087e-21 4.59923 	-1.54174 	-2.531e-21 4.59382 	-1.54035 	-3.88147e-21 4.58833 	-1.53889 	-3.62673e-21 4.5827 	-1.53734 	-7.18892e-22 4.55429 	-1.5301 	-2.25375e-22 4.52495 	-1.5227 	-9.62652e-22 4.49557 	-1.51529 	-1.69909e-21 4.4654 	-1.50736 	7.81297e-22 4.43472 	-1.4991 	5.12445e-21 4.40734 	-1.49227 	1.36895e-20 4.37988 	-1.48542 	2.20315e-20 4.35126 	-1.47779 	2.30945e-20 4.32216 	-1.47008 	2.29673e-20 4.29191 	-1.46217 	1.99529e-20 4.28108 	-1.45955 	1.93754e-20 4.26998 	-1.45674 	1.88589e-20 4.25868 	-1.45381 	1.83855e-20 4.24738 	-1.45089 	1.79127e-20 4.23614 	-1.44798 	1.74437e-20 4.22002 	-1.44351 	1.61775e-20 4.2039 	-1.43905 	1.49121e-20 4.18776 	-1.43458 	1.36474e-20 4.17138 	-1.42994 	1.07831e-20 4.15453 	-1.42494 	4.84629e-21 4.12963 	-1.41816 	3.18903e-21 4.10433 	-1.41129 	1.505e-21 4.07767 	-1.40402 	-4.22421e-22 4.05003 	-1.39604 	-3.21513e-21 4.02232 	-1.38804 	-6.01214e-21 3.99769 	-1.38152 	-1.24143e-20 3.97245 	-1.37457 	-1.32274e-20 3.94663 	-1.36723 	-8.85991e-21 3.92078 	-1.35988 	-4.49033e-21 3.8945 	-1.35244 	1.05057e-21 3.89254 	-1.35193 	2.08862e-21 3.89051 	-1.35139 	2.32106e-21 3.88846 	-1.35082 	2.06098e-21 3.8864 	-1.35024 	1.80086e-21 3.88435 	-1.34967 	1.54098e-21 3.86219 	-1.34312 	2.57485e-21 3.84001 	-1.33656 	3.60797e-21 3.81782 	-1.33 	4.64035e-21 3.79529 	-1.32318 	3.50556e-21 3.772 	-1.31577 	-2.52314e-21 3.74968 	-1.30931 	-2.48827e-20 3.72734 	-1.30285 	-4.72429e-20 3.70371 	-1.29573 	-5.06894e-20 3.67872 	-1.28795 	-3.53117e-20 3.65369 	-1.28016 	-1.99208e-20 3.63447 	-1.27472 	-1.67183e-20 3.61458 	-1.26877 	-1.3496e-20 3.59435 	-1.26256 	-1.02646e-20 3.57411 	-1.25635 	-7.03489e-21 3.55401 	-1.2502 	-3.8328e-21 3.55112 	-1.24926 	-2.80762e-21 3.54824 	-1.24832 	-1.78243e-21 3.54535 	-1.24738 	-7.57225e-22 3.54244 	-1.24641 	-2.15678e-22 3.53942 	-1.24534 	-1.04083e-21 3.51828 	-1.2386 	-2.48732e-21 3.49663 	-1.23168 	-6.23289e-21 3.47497 	-1.22476 	-9.97707e-21 3.45288 	-1.21742 	-1.97454e-20 3.43022 	-1.20952 	-3.73363e-20 3.41024 	-1.20329 	-2.29313e-20 3.39024 	-1.19706 	-8.52854e-21 3.36946 	-1.19012 	1.52211e-22 3.34708 	-1.18244 	-6.94477e-21 3.32468 	-1.17476 	-1.40451e-20 3.30934 	-1.17004 	-1.87251e-21 3.29347 	-1.16482 	6.24595e-21 3.27737 	-1.15939 	1.26972e-20 3.26126 	-1.15395 	1.91488e-20 3.24522 	-1.14854 	2.55761e-20 3.24084 	-1.14698 	3.01172e-20 3.23646 	-1.14541 	3.46583e-20 3.23208 	-1.14385 	3.91994e-20 3.22777 	-1.14225 	4.07989e-20 3.22369 	-1.14049 	3.201e-20 3.20462 	-1.13397 	2.11924e-20 3.18539 	-1.12719 	1.27063e-20 3.16616 	-1.1204 	4.22019e-21 3.14757 	-1.11321 	0 3.12962 	-1.1056 	0 3.11095 	-1.09945 	0 3.09227 	-1.09329 	0 3.07447 	-1.08654 	-9.7415e-21 3.0