# vtk DataFile Version 2.0
track0
ASCII
DATASET POLYDATA
POINTS 12085 float
-0.0205 0.001 1e-05
-0.02052 0.000999985 1e-05
-0.02054 0.000999974 1e-05
-0.02056 0.000999965 1e-05
-0.02058 0.000999959 1e-05
-0.0206 0.000999956 1e-05
-0.0205 0.00367778 1e-05
-0.02052 0.00367778 1e-05
-0.02054 0.00367777 1e-05
-0.02056 0.00367777 1e-05
-0.02058 0.00367777 1e-05
-0.0206 0.00367777 1e-05
-0.0205 0.00635556 1e-05
-0.02052 0.00635555 1e-05
-0.02054 0.00635555 1e-05
-0.02056 0.00635555 1e-05
-0.02058 0.00635555 1e-05
-0.0206 0.00635555 1e-05
-0.0205 0.00903333 1e-05
-0.02052 0.00903333 1e-05
-0.02054 0.00903333 1e-05
-0.02056 0.00903333 1e-05
-0.02058 0.00903333 1e-05
-0.0206 0.00903333 1e-05
-0.0205 0.0117111 1e-05
-0.02052 0.0117111 1e-05
-0.02054 0.0117111 1e-05
-0.02056 0.0117111 1e-05
-0.02058 0.0117111 1e-05
-0.0206 0.0117111 1e-05
-0.0205 0.0143889 1e-05
-0.02052 0.0143889 1e-05
-0.02054 0.0143889 1e-05
-0.02056 0.0143889 1e-05
-0.02058 0.0143889 1e-05
-0.0206 0.0143889 1e-05
-0.0205 0.0170667 1e-05
-0.02052 0.0170667 1e-05
-0.02054 0.0170667 1e-05
-0.02056 0.0170667 1e-05
-0.02058 0.0170667 1e-05
-0.0206 0.0170667 1e-05
-0.0205 0.0197444 1e-05
-0.02052 0.0197444 1e-05
-0.02054 0.0197444 1e-05
-0.02056 0.0197444 1e-05
-0.02058 0.0197444 1e-05
-0.0206 0.0197444 1e-05
-0.0205 0.0224222 1e-05
-0.02052 0.0224222 1e-05
-0.02054 0.0224222 1e-05
-0.02056 0.0224222 1e-05
-0.02058 0.0224222 1e-05
-0.0206 0.0224222 1e-05
-0.0205 0.0251 1e-05
-0.02052 0.0250998 1e-05
-0.02054 0.0250997 1e-05
-0.02056 0.0250995 1e-05
-0.02058 0.0250995 1e-05
-0.0206 0.0250994 1e-05
-0.0205 0.001 1e-05
-0.0202034 0.00100022 1e-05
-0.0199069 0.00100067 1e-05
-0.0196103 0.00100133 1e-05
-0.0193137 0.00100221 1e-05
-0.0190172 0.00100329 1e-05
-0.0187132 0.0010047 1e-05
-0.0184093 0.00100594 1e-05
-0.0181054 0.00100717 1e-05
-0.0178015 0.00100841 1e-05
-0.0174976 0.00100965 1e-05
-0.0172058 0.00101097 1e-05
-0.016914 0.0010121 1e-05
-0.0166222 0.00101324 1e-05
-0.0163305 0.00101437 1e-05
-0.0160387 0.0010155 1e-05
-0.0157586 0.00101668 1e-05
-0.0154784 0.0010178 1e-05
-0.0151983 0.00101896 1e-05
-0.0149182 0.00102016 1e-05
-0.0146381 0.0010214 1e-05
-0.0144056 0.00102248 1e-05
-0.0141731 0.00102357 1e-05
-0.0139406 0.00102468 1e-05
-0.0137081 0.00102582 1e-05
-0.0135105 0.00102682 1e-05
-0.0134671 0.00102704 1e-05
-0.0134237 0.00102726 1e-05
-0.0133803 0.00102749 1e-05
-0.0133369 0.00102771 1e-05
-0.0132934 0.00102794 1e-05
-0.0130353 0.00102929 1e-05
-0.0127771 0.00103066 1e-05
-0.0125189 0.00103205 1e-05
-0.0122607 0.00103346 1e-05
-0.0120025 0.00103488 1e-05
-0.0117547 0.00103627 1e-05
-0.0115068 0.00103767 1e-05
-0.0112589 0.00103908 1e-05
-0.0110111 0.0010405 1e-05
-0.0107632 0.00104192 1e-05
-0.0105252 0.0010433 1e-05
-0.0102873 0.00104468 1e-05
-0.0100493 0.00104607 1e-05
-0.00981133 0.00104747 1e-05
-0.00957337 0.00104888 1e-05
-0.00934491 0.00105022 1e-05
-0.00911645 0.00105158 1e-05
-0.00888799 0.00105295 1e-05
-0.00865954 0.00105431 1e-05
-0.00843108 0.00105569 1e-05
-0.00821175 0.001057 1e-05
-0.00799242 0.00105833 1e-05
-0.00777309 0.00105965 1e-05
-0.00755376 0.00106099 1e-05
-0.00733443 0.00106232 1e-05
-0.00712387 0.0010636 1e-05
-0.0069133 0.00106489 1e-05
-0.00670273 0.00106619 1e-05
-0.00649217 0.00106749 1e-05
-0.0062816 0.00106879 1e-05
-0.00607944 0.00107004 1e-05
-0.00587729 0.00107131 1e-05
-0.00567514 0.00107258 1e-05
-0.00547298 0.00107386 1e-05
-0.00527083 0.00107515 1e-05
-0.00507675 0.00107638 1e-05
-0.00488267 0.00107764 1e-05
-0.0046886 0.0010789 1e-05
-0.00449452 0.00108018 1e-05
-0.00430044 0.00108147 1e-05
-0.00411412 0.00108272 1e-05
-0.0039278 0.00108399 1e-05
-0.00374147 0.00108528 1e-05
-0.00355515 0.00108659 1e-05
-0.00336883 0.00108792 1e-05
-0.00318995 0.00108921 1e-05
-0.00301107 0.00109053 1e-05
-0.00283219 0.00109189 1e-05
-0.00265331 0.00109327 1e-05
-0.00247443 0.00109468 1e-05
-0.0023027 0.00109607 1e-05
-0.00213097 0.0010975 1e-05
-0.00195924 0.00109898 1e-05
-0.00178751 0.0011005 1e-05
-0.00161577 0.00110206 1e-05
-0.0014509 0.00110361 1e-05
-0.00128603 0.00110522 1e-05
-0.00112116 0.00110691 1e-05
-0.000956293 0.00110867 1e-05
-0.000791418 0.00111051 1e-05
-0.000633135 0.00111235 1e-05
-0.000474852 0.00111428 1e-05
-0.000316571 0.00111632 1e-05
-0.000158291 0.00111846 1e-05
0 0.00112071 1e-05
0.000105677 0.00112228 1e-05
0.000211354 0.0011239 1e-05
0.00031703 0.00112557 1e-05
0.000422705 0.00112729 1e-05
0.000528387 0.00112905 1e-05
0.000634886 0.00113087 1e-05
0.000741385 0.00113271 1e-05
0.000847883 0.00113457 1e-05
0.000954381 0.00113645 1e-05
0.00106088 0.00113836 1e-05
0.00116821 0.0011403 1e-05
0.00127554 0.00114227 1e-05
0.00138286 0.00114425 1e-05
0.00149019 0.00114624 1e-05
0.00159752 0.00114825 1e-05
0.00170568 0.0011503 1e-05
0.00181384 0.00115238 1e-05
0.001922 0.00115449 1e-05
0.00203016 0.00115663 1e-05
0.00213833 0.00115878 1e-05
0.00224733 0.00116096 1e-05
0.00235633 0.00116319 1e-05
0.00246533 0.00116546 1e-05
0.00257433 0.00116776 1e-05
0.00268334 0.00117008 1e-05
0.00279319 0.00117242 1e-05
0.00290304 0.0011748 1e-05
0.00301288 0.00117723 1e-05
0.00312273 0.00117969 1e-05
0.00323259 0.00118217 1e-05
0.00334329 0.00118467 1e-05
0.00345399 0.00118723 1e-05
0.0035647 0.00118982 1e-05
0.0036754 0.00119244 1e-05
0.00378611 0.00119508 1e-05
0.00389767 0.00119776 1e-05
0.00400924 0.00120048 1e-05
0.0041208 0.00120325 1e-05
0.00423236 0.00120605 1e-05
0.00434393 0.00120887 1e-05
0.00445636 0.00121172 1e-05
0.00456879 0.00121462 1e-05
0.00468122 0.00121758 1e-05
0.00479365 0.00122056 1e-05
0.00490609 0.00122355 1e-05
0.0050194 0.00122658 1e-05
0.0051327 0.00122967 1e-05
0.005246 0.00123281 1e-05
0.00535931 0.00123598 1e-05
0.00547262 0.00123916 1e-05
0.00558681 0.00124236 1e-05
0.00570099 0.00124563 1e-05
0.00581518 0.00124896 1e-05
0.00592936 0.00125232 1e-05
0.00604356 0.00125568 1e-05
0.00615863 0.00125906 1e-05
0.0062737 0.00126251 1e-05
0.00638878 0.00126603 1e-05
0.00650385 0.00126958 1e-05
0.00661893 0.00127311 1e-05
0.0067349 0.00127667 1e-05
0.00685087 0.00128029 1e-05
0.00696683 0.00128399 1e-05
0.0070828 0.0012877 1e-05
0.00719878 0.00129141 1e-05
0.00731565 0.00129512 1e-05
0.00743252 0.00129891 1e-05
0.00754939 0.00130277 1e-05
0.00766625 0.00130665 1e-05
0.00778313 0.00131051 1e-05
0.00790091 0.00131438 1e-05
0.00801869 0.00131831 1e-05
0.00813647 0.00132232 1e-05
0.00825424 0.00132634 1e-05
0.00837203 0.00133034 1e-05
0.00849073 0.00133435 1e-05
0.00860942 0.00133841 1e-05
0.00872811 0.00134254 1e-05
0.0088468 0.00134669 1e-05
0.00896551 0.00135081 1e-05
0.00908513 0.00135493 1e-05
0.00920475 0.00135911 1e-05
0.00932436 0.00136334 1e-05
0.00944397 0.00136759 1e-05
0.0095636 0.00137181 1e-05
0.00968415 0.00137603 1e-05
0.0098047 0.0013803 1e-05
0.00992524 0.00138461 1e-05
0.0100458 0.00138894 1e-05
0.0101663 0.00139324 1e-05
0.0102878 0.00139755 1e-05
0.0104093 0.00140189 1e-05
0.0105308 0.00140627 1e-05
0.0106523 0.00141065 1e-05
0.0107738 0.00141502 1e-05
0.0108962 0.0014194 1e-05
0.0110186 0.00142381 1e-05
0.0111411 0.00142823 1e-05
0.0112635 0.00143266 1e-05
0.0113859 0.00143708 1e-05
0.0115093 0.00144152 1e-05
0.0116327 0.00144598 1e-05
0.0117561 0.00145044 1e-05
0.0118794 0.0014549 1e-05
0.0120028 0.00145936 1e-05
0.0121272 0.00146384 1e-05
0.0122515 0.00146833 1e-05
0.0123759 0.00147282 1e-05
0.0125002 0.00147731 1e-05
0.0126245 0.00148179 1e-05
0.0127498 0.0014863 1e-05
0.0128752 0.00149081 1e-05
0.0130005 0.00149531 1e-05
0.0131258 0.0014998 1e-05
0.0132511 0.00150429 1e-05
0.0133774 0.00150882 1e-05
0.0135036 0.00151333 1e-05
0.0136299 0.00151783 1e-05
0.0137562 0.00152232 1e-05
0.0138825 0.0015268 1e-05
0.0140098 0.00153132 1e-05
0.014137 0.00153582 1e-05
0.0142643 0.00154031 1e-05
0.0143915 0.00154478 1e-05
0.0145188 0.00154924 1e-05
0.0146471 0.00155375 1e-05
0.0147753 0.00155822 1e-05
0.0149036 0.00156268 1e-05
0.0150318 0.00156713 1e-05
0.0151601 0.00157156 1e-05
0.0152893 0.00157603 1e-05
0.0154186 0.00158047 1e-05
0.0155478 0.00158489 1e-05
0.0156771 0.00158929 1e-05
0.0158063 0.00159368 1e-05
0.0159366 0.00159809 1e-05
0.0160668 0.00160248 1e-05
0.0161971 0.00160684 1e-05
0.0163274 0.00161118 1e-05
0.0164576 0.0016155 1e-05
0.0165889 0.00161985 1e-05
0.0167201 0.00162416 1e-05
0.0168514 0.00162844 1e-05
0.0169827 0.0016327 1e-05
0.0171139 0.00163693 1e-05
0.0172462 0.00164119 1e-05
0.0173785 0.0016454 1e-05
0.0175108 0.00164959 1e-05
0.0176431 0.00165374 1e-05
0.0177754 0.00165787 1e-05
0.0179087 0.001662 1e-05
0.018042 0.0016661 1e-05
0.0181753 0.00167016 1e-05
0.0183087 0.00167418 1e-05
0.018442 0.00167817 1e-05
0.0185763 0.00168216 1e-05
0.0187107 0.00168611 1e-05
0.018845 0.00169002 1e-05
0.0189794 0.00169389 1e-05
0.0191137 0.00169772 1e-05
0.0192489 0.00170153 1e-05
0.019384 0.0017053 1e-05
0.0195191 0.00170902 1e-05
0.0196542 0.0017127 1e-05
0.0197907 0.00171637 1e-05
0.0197983 0.00171658 1e-05
0.0198059 0.00171678 1e-05
0.0198136 0.00171698 1e-05
0.0198212 0.00171718 1e-05
0.0198289 0.00171739 1e-05
0.0199577 0.00172079 1e-05
0.0200865 0.00172416 1e-05
0.0202154 0.00172747 1e-05
0.0203442 0.00173074 1e-05
0.020473 0.00173397 1e-05
0.0206105 0.00173736 1e-05
0.020748 0.0017407 1e-05
0.0208855 0.00174398 1e-05
0.021023 0.0017472 1e-05
0.0211606 0.00175036 1e-05
0.0212991 0.00175349 1e-05
0.0214377 0.00175655 1e-05
0.0215763 0.00175955 1e-05
0.0217149 0.00176249 1e-05
0.0218535 0.00176535 1e-05
0.0219931 0.00176818 1e-05
0.0221328 0.00177093 1e-05
0.0222724 0.00177361 1e-05
0.0224121 0.00177621 1e-05
0.0225517 0.00177875 1e-05
0.0226925 0.00178123 1e-05
0.0228332 0.00178362 1e-05
0.022974 0.00178593 1e-05
0.0231147 0.00178816 1e-05
0.0232555 0.00179031 1e-05
0.0233973 0.0017924 1e-05
0.0235391 0.00179439 1e-05
0.023681 0.00179628 1e-05
0.0238228 0.00179809 1e-05
0.0239647 0.0017998 1e-05
0.0241076 0.00180144 1e-05
0.0242505 0.00180297 1e-05
0.0243935 0.00180439 1e-05
0.0245364 0.00180571 1e-05
0.0246794 0.00180693 1e-05
0.0248234 0.00180806 1e-05
0.0249675 0.00180906 1e-05
0.0251115 0.00180995 1e-05
0.0252556 0.00181072 1e-05
[...]
POINT_DATA 12085
 FIELD attributes 2
p 1 12085 float
-2.61699 -2.61368 -2.61036 -2.60705 -2.60374 -2.60043
-2.78433 -2.78431 -2.7843 -2.78428 -2.78426 -2.78425
-2.98888 -2.98877 -2.98866 -2.98855 -2.98843 -2.98834
-3.12314 -3.12311 -3.12307 -3.12303 -3.123 -3.12296
-3.21401 -3.2139 -3.21379 -3.21369 -3.21358 -3.21348
-3.26538 -3.26519 -3.265 -3.26482 -3.26463 -3.26444
-3.27898 -3.27888 -3.27879 -3.27869 -3.2786 -3.27851
-3.241 -3.24094 -3.24089 -3.24083 -3.24077 -3.24072
-3.13999 -3.13999 -3.13998 -3.13998 -3.13998 -3.13998
-0.935221 -0.954547 -0.973743 -0.992807 -1.01174 -1.03053
-2.61699 -2.61626 -2.61264 -2.60893 -2.60514 -2.59653 -2.60962 -2.62326 -2.6369 -2.65054 -2.67323 -2.69182 -2.71752 -2.74322 -2.76892 -2.79683 -2.80884 -2.82702 -2.8452 -2.86339 -2.88318 -2.8972 -2.91293 -2.92867 -2.94442 -2.9578 -2.96074 -2.96367 -2.96661 -2.96955 -2.97246 -2.98626 -3.00001 -3.01377 -3.02753 -3.04071 -3.04852 -3.05607 -3.06363 -3.07119 -3.07822 -3.08458 -3.09086 -3.09714 -3.10342 -3.10954 -3.1164 -3.12295 -3.12951 -3.13607 -3.14198 -3.14644 -3.14978 -3.15312 -3.15646 -3.15804 -3.15646 -3.15308 -3.14969 -3.14631 -3.14074 -3.13228 -3.12201 -3.11175 -3.10148 -3.08976 -3.07622 -3.06113 -3.04604 -3.03095 -3.01552 -2.9989 -2.98066 -2.96243 -2.94419 -2.92641 -2.90754 -2.88604 -2.86453 -2.84304 -2.82238 -2.80117 -2.77585 -2.75053 -2.72523 -2.70196 -2.6818 -2.66195 -2.64212 -2.62249 -2.60717 -2.59324 -2.5864 -2.58031 -2.57556 -2.5777 -2.56641 -2.57801 -2.59531 -2.61772 -2.65911 -2.67174 -2.69093 -2.71205 -2.73596 -2.76846 -2.78129 -2.78858 -2.79389 -2.8008 -2.81172 -2.83252 -2.84794 -2.86099 -2.87181 -2.87805 -2.91124 -2.93957 -2.96522 -2.98341 -2.98954 -3.02062 -3.04654 -3.06878 -3.08203 -3.08402 -3.10091 -3.11425 -3.12425 -3.1289 -3.12849 -3.13366 -3.13744 -3.13945 -3.14189 -3.14463 -3.14697 -3.15004 -3.15447 -3.16488 -3.17809 -3.18747 -3.19856 -3.21473 -3.23978 -3.26737 -3.28884 -3.31162 -3.34204 -3.38105 -3.42119 -3.45363 -3.4863 -3.5272 -3.57438 -3.62159 -3.66019 -3.69882 -3.74395 -3.79286 -3.84178 -3.88188 -3.92198 -3.9668 -4.01467 -4.06255 -4.10175 -4.14096 -4.18426 -4.231 -4.27775 -4.3159 -4.35405 -4.39619 -4.44252 -4.48884 -4.52637 -4.56391 -4.60589 -4.65349 -4.7011 -4.73943 -4.77777 -4.82101 -4.87144 -4.92187 -4.96252 -5.00317 -5.04904 -5.10322 -5.15748 -5.20188 -5.24699 -5.29685 -5.35336 -5.41126 -5.46008 -5.51024 -5.56378 -5.6218 -5.6821 -5.73487 -5.78921 -5.84554 -5.90445 -5.9659 -6.0216 -6.07873 -6.13684 -6.19621 -6.25802 -6.31581 -6.37458 -6.4337 -6.49328 -6.55498 -6.61418 -6.67383 -6.73353 -6.79329 -6.85492 -6.91505 -6.97544 -7.03584 -7.09623 -7.15827 -7.21968 -7.28117 -7.34266 -7.40416 -7.46706 -7.53004 -7.59288 -7.65573 -7.71858 -7.78251 -7.8471 -7.91157 -7.97604 -8.04052 -8.10587 -8.17233 -8.2386 -8.30487 -8.37116 -8.43802 -8.50633 -8.57442 -8.64252 -8.71063 -8.77908 -8.84911 -8.91889 -8.98868 -9.05848 -9.1284 -9.19968 -9.2708 -9.34195 -9.4131 -9.485 -9.48905 -9.49309 -9.49714 -9.50118 -9.5053 -9.57379 -9.6423 -9.71082 -9.77936 -9.84777 -9.92118 -9.99467 -10.0682 -10.1417 -10.2149 -10.2889 -10.363 -10.4372 -10.5113 -10.5849 -10.6593 -10.7337 -10.8081 -10.8826 -10.9563 -11.0307 -11.1049 -11.1792 -11.2535 -11.3269 -11.4006 -11.4742 -11.5478 -11.6215 -11.6942 -11.7669 -11.8393 -11.9118 -11.9843 -12.056 -12.1269 -12.1976 -12.2684 -12.3392 -12.4094 -12.4777 -12.5458 -12.6139 -12.6822 -12.7505 -12.7546 -12.7587 -12.7628 -12.7669 -12.7709 -12.8313 -12.8918 -12.9524 -13.0131 -13.0733 -13.1341 -13.1938 -13.2537 -13.3137 -13.3722 -13.4287 -13.4823 -13.536 -13.5899 -13.6406 -13.6923 -13.7383 -13.7844 -13.8307 -13.8712 -13.9177 -13.9546 -13.9916 -14.0285 -14.0568 -14.0954 -14.1242 -14.1508 -14.1736 -14.19 -14.2172 -14.2399 -14.2549 -14.261 -14.2648 -14.2792 -14.294 -14.2953 -14.2845 -14.2741 -14.274 -14.2743 -14.2621 -14.2364 -14.211 -14.1955 -14.1757 -14.1459 -14.1113 -14.07 -14.0378 -13.9919 -13.9454 -13.8993 -13.848 -13.8215 -13.7898 -13.7581 -13.7266 -13.6987 -13.6689 -13.6391 -13.6095 -13.58 -13.5439 -13.475 -13.4007 -13.3269 -13.2495 -13.16 -13.0792 -12.9984 -12.9082 -12.8048 -12.7013 -12.6058 -12.5091 -12.3987 -12.2857 -12.1693 -12.0765 -11.9718 -11.8669 -11.7623 -11.672 -11.6514 -11.6308 -11.6103 -11.5894 -11.5662 -11.4364 -11.3057 -11.1754 -11.0411 -10.8983 -10.7606 -10.6233 -10.4803 -10.3321 -10.1835 -10.0431 -9.89741 -9.75019 -9.60326 -9.47347 -9.46556 -9.45766 -9.44976 -9.44173 -9.43343 -9.27928 -9.12551 -8.97204 -8.81666 -8.65782 -8.5007 -8.34386 -8.18495 -8.0269 -7.86868 -7.78669 -7.70446 -7.62203 -7.53967 -7.46114 -7.38425 -7.30741 -7.23063 -7.15395 -7.0772 -6.91754 -6.75873 -6.60272 -6.44813 -6.293 -6.16626 -6.04064 -5.9163 -5.7921 -5.67525 -5.64445 -5.61366 -5.58287 -5.5524 -5.52223 -5.36797 -5.21647 -5.06513 -4.91692 -4.76892 -4.61951 -4.47166 -4.32656 -4.18162 -4.03704 -4.02907 -4.02119 -4.01344 -4.0057 -3.99797 -3.86256 -3.72726 -3.59206 -3.45877 -3.3268 -3.1862 -3.04571 -2.9088 -2.77303 -2.63914 -2.5975 -2.55632 -2.51572 -2.47512 -2.43509 -2.3418 -2.24855 -2.15535 -2.06327 -1.97209 -1.83976 -1.70752 -1.57795 -1.45154 -1.32481 -1.24945 -1.17486 -1.10115 -1.02747 -0.955353 -0.903224 -0.851105 -0.798996 -0.747382 -0.696244 -0.571305 -0.447686 -0.325562 -0.205586 -0.0853332 0.0264507 0.137196 0.246879 0.356519 0.46329 0.472157 0.481025 0.489892 0.498691 0.507409 0.624012 0.740022 0.855998 0.970833 1.08503 1.19877 1.31242 1.42431 1.53576 1.64586 1.68218 1.71821 1.75397 1.78974 1.82523 1.89891 1.97258 2.04624 2.11943 2.19206 2.30001 2.40794 2.51395 2.61862 2.72347 2.80916 2.89417 2.97864 3.0631 3.14627 3.16517 3.18407 3.20298 3.22178 3.24044 3.34234 3.44342 3.54449 3.64469 3.74454 3.84368 3.94276 4.04061 4.13806 4.23473 4.27314 4.31126 4.34919 4.38712 4.4248 4.48254 4.54028 4.59802 4.65551 4.71258 4.80692 4.90097 4.99396 5.08593 5.17801 5.26941 5.36025 5.45057 5.54089 5.63107 5.63824 5.64534 5.65242 5.65949 5.66656 5.74813 5.8297 5.91126 5.99252 6.07318 6.16024 6.24729 6.33335 6.41839 6.50351 6.57702 6.64992 6.72251 6.79509 6.86709 6.87817 6.88925 6.90033 6.91137 6.92231 7.00443 7.08629 7.16814 7.24956 7.33047 7.41079 7.4911 7.57066 7.64923 7.72784 7.78838 7.84838 7.90816 7.96793 8.02748 8.04495 8.06241 8.07988 8.09727 8.11442 8.19036 8.26583 8.34129 8.41604 8.49011 8.56423 8.63834 8.71143 8.78335 8.85529 8.91446 8.97279 9.03085 9.08892 9.14705 9.15976 9.17248 9.18519 9.19782 9.21022 9.28011 9.34957 9.41902 9.48757 9.55524 9.62349 9.69174 9.7586 9.8244 9.89004 9.93534 9.97981 10.0239 10.068 10.1124 10.1329 10.1535 10.174 10.1944 10.2145 10.2783 10.3415 10.4048 10.4668 10.5284 10.5903 10.6523 10.7126 10.7726 10.8322 10.864 10.8952 10.9262 10.9571 10.9884 11.0161 11.0437 11.0714 11.0988 11.1256 11.1834 11.2406 11.2977 11.3534 11.4088 11.4646 11.5201 11.5743 11.6284 11.6818 11.7037 11.7252 11.7465 11.7678 11.7894 11.8206 11.8519 11.8832 11.9142 11.9445 11.9961 12.0474 12.0984 12.1478 12.197 12.2466 12.2959 12.344 12.3921 12.4394 12.4571 12.4744 12.4915 12.5086 12.526 12.5554 12.5848 12.6142 12.6433 12.6717 12.7173 12.7625 12.8074 12.8508 12.894 12.9376 12.9809 13.0231 13.0651 13.1065 13.1271 13.1472 13.1671 13.187 13.2076 13.2281 13.2486 13.2691 13.2894 13.3091 13.3488 13.3878 13.4268 13.4648 13.5022 13.5399 13.5777 13.6143 13.6502 13.6858 13.7178 13.7487 13.7795 13.8102 13.8432 13.8466 13.85 13.8535 13.8569 13.8602 13.8937 13.927 13.9604 13.9935 14.0254 14.0577 14.0899 14.1213 14.1517 14.1819 14.2124 14.2427 14.272 14.3012 14.3299 14.3519 14.3729 14.394 14.4151 14.4378 14.4442 14.4506 14.457 14.4634 14.4695 14.4963 14.5229 14.5494 14.5758 14.6012 14.6267 14.6521 14.6771 14.7012 14.7251 14.7492 14.7732 14.7963 14.819 14.8416 14.8642 14.886 14.9077 14.9294 14.9507 14.9602 14.9694 14.9785 14.9876 14.9973 15.0085 15.0197 15.0309 15.0421 15.053 15.0725 15.0918 15.111 15.1302 15.1486 15.167 15.1853 15.2034 15.2208 15.238 15.2552 15.2724 15.2891 15.3053 15.3215 15.3377 15.3536 15.369 15.3844 15.3995 15.4147 15.4292 15.4437 15.4582 15.4725 15.4821 15.4915 15.5009 15.5102 15.5205 15.5246 15.5286 15.5327 15.5368 15.5407 15.5536 15.5665 15.5793 15.5922 15.6047 15.6168 15.6289 15.641 15.653 15.6648 15.6761 15.6875 15.699 15.7102 15.7213 15.7321 15.7428 15.7535 15.7642 15.7749 15.7851 15.7953 15.8056 15.8159 15.8262 15.8361 15.8459 15.8558 15.8658 15.8758 15.8853 15.8949 15.9045 15.9141 15.9238 15.933 15.9423 15.9516 15.9609 15.9703 15.9792 15.9884 15.9975 16.0066 16.0158 16.0246 16.0336 16.0426 16.0516 16.0607 16.0632 16.0659 16.0685 16.0711 16.0739 16.0801 16.0864 16.0926 16.0989 16.1053 16.114 16.1228 16.1316 16.1404 16.1495 16.1581 16.1668 16.1756 16.1844 16.1936 16.2021 16.2109 16.2196 16.2283 16.2376 16.2461 16.2548 16.2634 16.2721 16.2811 16.2895 16.298 16.3065 16.3149 16.3235 16.3316 16.3398 16.3479 16.356 16.364 16.3718 16.3796 16.3873 16.3946 16.4019 16.4092 16.4165 16.4235 16.4299 16.4362 16.4428 16.4494 16.4556 16.461 16.4663 16.4721 16.4779 16.483 16.4873 16.4915 16.4962 16.5008 16.5047 16.5076 16.5105 16.514 16.5174 16.52 16.5221 16.5241 16.5266 16.5292 16.5311 16.5326 16.5341 16.5361 16.5382 16.5396 16.5406 16.5416 16.5431 16.5445 16.5453 16.5459 16.5464 16.5473 16.5481 16.5485 16.5489 16.5491 16.5497 16.5502 16.5505 16.5508 16.551 16.5515 16.5518 16.552 16.5521 16.5521 16.5523 16.5523 16.5522 16.5521 16.5519 16.5519 16.5517 16.5514 16.5512 16.5509 16.5507 16.5505 16.5502 16.55 16.5498 16.5497 16.5495 16.5493 16.5491 16.549 16.5489 16.5487 16.5485 16.5484 16.5481 16.548 16.5478 16.5475 16.5473 16.547 16.5468 16.5465 16.5462 16.5459 16.5456 16.5454 16.5451 16.5448 16.5445 16.5442 16.544 16.5437 16.5434 16.5431 16.5429 16.5427 16.5424 16.5422 16.542 16.5417 16.5415 16.5412 16.541 16.5407 16.5404 16.5402 16.5399 16.5395 16.5392 16.5389 16.5386 16.5384 16.5381 16.5379 16.5376 16.5375 16.5374 16.5372 16.5371 16.537 16.5369 16.5368 16.5368 16.5367 16.5366 16.5366 16.5366 16.5366 16.5367 16.5367 16.537 16.5373 16.5376 16.538 16.5383 16.5391 16.5399 16.5406 16.5414 16.5422 16.5432 16.5442 16.5452 16.5462 16.5481 16.5483 16.5485 16.5487 16.5489 16.5491 16.5512 16.5533 16.5554 16.5574 16.5595 16.5625 16.5654 16.5684 16.5713 16.5716 16.5722 16.5727 16.5732 16.5737 16.5742 16.5785 16.5828 16.5871 16.5913 16.5955 16.5981 16.6005 16.6029 16.6053 16.6068 16.6065 16.6068 16.607 16.6071 16.6067 16.6004 16.5855 16.5707 16.5558 16.5345 16.5315 16.5284 16.5253 16.5223 16.5167 16.4718 16.4266 16.3814 16.3362 16.2853 16.2343 16.1895 16.1447 16.0999 16.0637 16.0288 15.9942 15.9597 15.9262 15.895 15.8627 15.827 15.788 15.7448 15.6991 15.6513 15.603 15.5516 15.4946 15.4374 15.3779 15.3183 15.2591 15.1993 15.1395 15.0777 15.0159 14.9556 14.8967 14.8377 14.7772 14.7167 14.6549 14.5917 14.5284 14.4637 14.3987 14.3316 14.2622 14.1922 14.1205 14.0471 13.9712 13.893 13.8128 13.7302 13.6454 13.5592 13.4723 13.3827 13.2902 13.1945 13.0985 13.0025 12.9034 12.8001 12.6932 12.5863 12.4794 12.3699 12.2539 12.1359 12.0178 11.8998 11.7804 11.6522 11.5223 11.3923 11.2624 11.1316 11.0241 10.9157 10.8073 10.6989 10.5717 10.5397 10.5077 10.4757 10.4437 10.4114 10.2512 10.0906 9.92997 9.76935 9.60704 9.42895 9.24862 9.06828 8.88793 8.70398 8.50518 8.30171 8.09822 7.89472 7.68477 7.46135 7.22964 6.99793 6.76619 6.52443 6.27244 6.01672 5.76101 5.50522 5.24574 4.97699 4.67182 4.36209 4.04317 3.69042 3.32518 2.99861 2.68885 2.39881 2.14353 1.87948 1.53783 1.12067 0.592823 0