# vtk DataFile Version 2.0
track0
ASCII
DATASET POLYDATA
POINTS 12070 float
-0.0205 0.001 1e-05
-0.02052 0.000999985 1e-05
-0.02054 0.000999974 1e-05
-0.02056 0.000999965 1e-05
-0.02058 0.000999959 1e-05
-0.0206 0.000999956 1e-05
-0.0205 0.00367778 1e-05
-0.02052 0.00367778 1e-05
-0.02054 0.00367777 1e-05
-0.02056 0.00367777 1e-05
-0.02058 0.00367777 1e-05
-0.0206 0.00367777 1e-05
-0.0205 0.00635556 1e-05
-0.02052 0.00635555 1e-05
-0.02054 0.00635555 1e-05
-0.02056 0.00635555 1e-05
-0.02058 0.00635555 1e-05
-0.0206 0.00635555 1e-05
-0.0205 0.00903333 1e-05
-0.02052 0.00903333 1e-05
-0.02054 0.00903333 1e-05
-0.02056 0.00903333 1e-05
-0.02058 0.00903333 1e-05
-0.0206 0.00903333 1e-05
-0.0205 0.0117111 1e-05
-0.02052 0.0117111 1e-05
-0.02054 0.0117111 1e-05
-0.02056 0.0117111 1e-05
-0.02058 0.0117111 1e-05
-0.0206 0.0117111 1e-05
-0.0205 0.0143889 1e-05
-0.02052 0.0143889 1e-05
-0.02054 0.0143889 1e-05
-0.02056 0.0143889 1e-05
-0.02058 0.0143889 1e-05
-0.0206 0.0143889 1e-05
-0.0205 0.0170667 1e-05
-0.02052 0.0170667 1e-05
-0.02054 0.0170667 1e-05
-0.02056 0.0170667 1e-05
-0.02058 0.0170667 1e-05
-0.0206 0.0170667 1e-05
-0.0205 0.0197444 1e-05
-0.02052 0.0197444 1e-05
-0.02054 0.0197444 1e-05
-0.02056 0.0197444 1e-05
-0.02058 0.0197444 1e-05
-0.0206 0.0197444 1e-05
-0.0205 0.0224222 1e-05
-0.02052 0.0224222 1e-05
-0.02054 0.0224222 1e-05
-0.02056 0.0224222 1e-05
-0.02058 0.0224222 1e-05
-0.0206 0.0224222 1e-05
-0.0205 0.0251 1e-05
-0.02052 0.0250998 1e-05
-0.02054 0.0250997 1e-05
-0.02056 0.0250995 1e-05
-0.02058 0.0250995 1e-05
-0.0206 0.0250994 1e-05
-0.0205 0.001 1e-05
-0.0202034 0.00100022 1e-05
-0.0199069 0.00100067 1e-05
-0.0196103 0.00100133 1e-05
-0.0193137 0.00100219 1e-05
-0.0190172 0.00100326 1e-05
-0.0187132 0.00100467 1e-05
-0.0184093 0.00100589 1e-05
-0.0181054 0.00100711 1e-05
-0.0178015 0.00100833 1e-05
-0.0174976 0.00100954 1e-05
-0.0172058 0.00101084 1e-05
-0.016914 0.00101194 1e-05
-0.0166222 0.00101304 1e-05
-0.0163305 0.00101414 1e-05
-0.0160387 0.00101523 1e-05
-0.0157586 0.00101637 1e-05
-0.0154784 0.00101745 1e-05
-0.0151983 0.00101857 1e-05
-0.0149182 0.00101973 1e-05
-0.0146381 0.00102092 1e-05
-0.0143754 0.0010221 1e-05
-0.0141127 0.00102328 1e-05
-0.0138501 0.00102449 1e-05
-0.0135874 0.00102574 1e-05
-0.0133656 0.00102682 1e-05
-0.0133512 0.00102689 1e-05
-0.0133367 0.00102696 1e-05
-0.0133223 0.00102703 1e-05
-0.0133079 0.0010271 1e-05
-0.0132934 0.00102718 1e-05
-0.0130353 0.00102846 1e-05
-0.0127771 0.00102977 1e-05
-0.0125189 0.00103109 1e-05
-0.0122607 0.00103243 1e-05
-0.0120025 0.00103378 1e-05
-0.0117547 0.00103509 1e-05
-0.0115068 0.00103641 1e-05
-0.0112589 0.00103773 1e-05
-0.0110111 0.00103906 1e-05
-0.0107632 0.00104039 1e-05
-0.0105252 0.00104167 1e-05
-0.0102873 0.00104295 1e-05
-0.0100493 0.00104424 1e-05
-0.00981133 0.00104552 1e-05
-0.00957337 0.0010468 1e-05
-0.00934491 0.00104802 1e-05
-0.00911645 0.00104925 1e-05
-0.00888799 0.00105047 1e-05
-0.00865954 0.0010517 1e-05
-0.00843108 0.00105292 1e-05
-0.00821175 0.00105408 1e-05
-0.00799242 0.00105524 1e-05
-0.00777309 0.0010564 1e-05
-0.00755376 0.00105756 1e-05
-0.00733443 0.00105871 1e-05
-0.00712387 0.00105981 1e-05
-0.0069133 0.0010609 1e-05
-0.00670273 0.001062 1e-05
-0.00649216 0.00106309 1e-05
-0.0062816 0.00106418 1e-05
-0.00607944 0.00106521 1e-05
-0.00587729 0.00106625 1e-05
-0.00567514 0.00106728 1e-05
-0.00547298 0.00106831 1e-05
-0.00527083 0.00106934 1e-05
-0.00507675 0.00107032 1e-05
-0.00488267 0.00107129 1e-05
-0.0046886 0.00107227 1e-05
-0.00449452 0.00107325 1e-05
-0.00430044 0.00107422 1e-05
-0.00411412 0.00107514 1e-05
-0.0039278 0.00107607 1e-05
-0.00374147 0.001077 1e-05
-0.00355515 0.00107792 1e-05
-0.00336883 0.00107885 1e-05
-0.00318995 0.00107973 1e-05
-0.00301107 0.00108062 1e-05
-0.00283219 0.0010815 1e-05
-0.00265331 0.00108239 1e-05
-0.00247443 0.00108328 1e-05
-0.0023027 0.00108413 1e-05
-0.00213097 0.00108499 1e-05
-0.00195924 0.00108585 1e-05
-0.0017875 0.00108672 1e-05
-0.00161577 0.00108759 1e-05
-0.0014509 0.00108842 1e-05
-0.00128603 0.00108927 1e-05
-0.00112116 0.00109012 1e-05
-0.00095629 0.00109098 1e-05
-0.000791418 0.00109186 1e-05
-0.000633135 0.00109271 1e-05
-0.000474851 0.00109357 1e-05
-0.000316568 0.00109445 1e-05
-0.000158284 0.00109534 1e-05
0 0.00109625 1e-05
0.000105677 0.00109686 1e-05
0.000211355 0.00109747 1e-05
0.000317032 0.00109809 1e-05
0.00042271 0.0010987 1e-05
0.000528387 0.00109932 1e-05
0.000634886 0.00109994 1e-05
0.000741385 0.00110055 1e-05
0.000847885 0.00110116 1e-05
0.000954384 0.00110177 1e-05
0.00106088 0.00110236 1e-05
0.00116821 0.00110296 1e-05
0.00127554 0.00110354 1e-05
0.00138286 0.00110412 1e-05
0.00149019 0.00110469 1e-05
0.00159752 0.00110524 1e-05
0.00170568 0.00110578 1e-05
0.00181384 0.00110632 1e-05
0.001922 0.00110685 1e-05
0.00203016 0.00110737 1e-05
0.00213833 0.00110787 1e-05
0.00224733 0.00110836 1e-05
0.00235633 0.00110885 1e-05
0.00246533 0.00110933 1e-05
0.00257434 0.00110979 1e-05
0.00268334 0.00111025 1e-05
0.00279319 0.00111069 1e-05
0.00290304 0.00111113 1e-05
0.00301289 0.00111156 1e-05
0.00312274 0.00111198 1e-05
0.00323259 0.00111239 1e-05
0.00334329 0.00111278 1e-05
0.003454 0.00111318 1e-05
0.0035647 0.00111356 1e-05
0.0036754 0.00111393 1e-05
0.00378611 0.0011143 1e-05
0.00389767 0.00111465 1e-05
0.00400924 0.001115 1e-05
0.0041208 0.00111533 1e-05
0.00423237 0.00111566 1e-05
0.00434393 0.00111598 1e-05
0.00445636 0.00111628 1e-05
0.00456879 0.00111658 1e-05
0.00468123 0.00111688 1e-05
0.00479366 0.00111716 1e-05
0.00490609 0.00111743 1e-05
0.0050194 0.00111769 1e-05
0.0051327 0.00111794 1e-05
0.00524601 0.00111819 1e-05
0.00535932 0.00111843 1e-05
0.00547262 0.00111865 1e-05
0.00558681 0.00111887 1e-05
0.005701 0.00111908 1e-05
0.00581518 0.00111928 1e-05
0.00592937 0.00111947 1e-05
0.00604356 0.00111965 1e-05
0.00615863 0.00111982 1e-05
0.00627371 0.00111999 1e-05
0.00638878 0.00112015 1e-05
0.00650386 0.00112029 1e-05
0.00661893 0.00112043 1e-05
0.0067349 0.00112056 1e-05
0.00685087 0.00112068 1e-05
0.00696684 0.00112079 1e-05
0.00708281 0.00112089 1e-05
0.00719878 0.00112098 1e-05
0.00731565 0.00112106 1e-05
0.00743252 0.00112114 1e-05
0.00754939 0.0011212 1e-05
0.00766626 0.00112126 1e-05
0.00778313 0.0011213 1e-05
0.0078787 0.00112133 1e-05
0.00797427 0.00112136 1e-05
0.00806983 0.00112138 1e-05
0.0081654 0.00112139 1e-05
0.00825596 0.00112139 1e-05
0.00827917 0.00112139 1e-05
0.00830239 0.00112139 1e-05
0.0083256 0.00112139 1e-05
0.00834882 0.00112139 1e-05
0.00837203 0.00112139 1e-05
0.00849073 0.00112138 1e-05
0.00860942 0.00112136 1e-05
0.00872812 0.00112133 1e-05
0.00884682 0.00112129 1e-05
0.00896551 0.00112124 1e-05
0.00908513 0.00112118 1e-05
0.00920475 0.00112111 1e-05
0.00932437 0.00112103 1e-05
0.00944398 0.00112095 1e-05
0.0095636 0.00112085 1e-05
0.00968415 0.00112073 1e-05
0.0098047 0.00112061 1e-05
0.00992525 0.00112048 1e-05
0.0100458 0.00112035 1e-05
0.0101663 0.0011202 1e-05
0.0102878 0.00112003 1e-05
0.0104093 0.00111985 1e-05
0.0105308 0.00111967 1e-05
0.0106523 0.00111948 1e-05
0.0107738 0.00111928 1e-05
0.0108962 0.00111905 1e-05
0.0110186 0.00111883 1e-05
0.0111411 0.00111859 1e-05
0.0112635 0.00111834 1e-05
0.0113859 0.00111808 1e-05
0.0115093 0.0011178 1e-05
0.0116327 0.00111752 1e-05
0.0117561 0.00111723 1e-05
0.0118795 0.00111692 1e-05
0.0120028 0.00111661 1e-05
0.0121272 0.00111627 1e-05
0.0122515 0.00111593 1e-05
0.0123759 0.00111558 1e-05
0.0125002 0.00111521 1e-05
0.0126245 0.00111484 1e-05
0.0127498 0.00111444 1e-05
0.0128752 0.00111404 1e-05
0.0130005 0.00111363 1e-05
0.0131258 0.0011132 1e-05
0.0132511 0.00111277 1e-05
0.0133774 0.00111231 1e-05
0.0135036 0.00111184 1e-05
0.0136299 0.00111137 1e-05
0.0137562 0.00111088 1e-05
0.0138825 0.00111038 1e-05
0.0140098 0.00110986 1e-05
0.014137 0.00110934 1e-05
0.0142643 0.0011088 1e-05
0.0143915 0.00110824 1e-05
0.0145188 0.00110768 1e-05
0.0146471 0.0011071 1e-05
0.0147753 0.00110651 1e-05
0.0149036 0.0011059 1e-05
0.0150318 0.00110528 1e-05
0.0151601 0.00110465 1e-05
0.0152893 0.00110401 1e-05
0.0154186 0.00110335 1e-05
0.0155478 0.00110268 1e-05
0.0156771 0.00110199 1e-05
0.0158063 0.00110129 1e-05
0.0159366 0.00110058 1e-05
0.0160668 0.00109986 1e-05
0.0161971 0.00109912 1e-05
0.0163273 0.00109836 1e-05
0.0164576 0.0010976 1e-05
0.0165889 0.00109682 1e-05
0.0167201 0.00109603 1e-05
0.0168514 0.00109521 1e-05
0.0169827 0.00109439 1e-05
0.0171139 0.00109356 1e-05
0.0172462 0.00109272 1e-05
0.0173785 0.00109185 1e-05
0.0175108 0.00109097 1e-05
0.0176431 0.00109007 1e-05
0.0177754 0.00108917 1e-05
0.0179087 0.00108826 1e-05
0.018042 0.00108732 1e-05
0.0181753 0.00108636 1e-05
0.0183087 0.00108539 1e-05
0.018442 0.00108442 1e-05
0.0185763 0.00108344 1e-05
0.0187107 0.00108244 1e-05
0.018845 0.0010814 1e-05
0.0189794 0.00108036 1e-05
0.0191137 0.00107931 1e-05
0.0192491 0.00107826 1e-05
0.0193845 0.00107718 1e-05
0.0195199 0.00107608 1e-05
0.0196553 0.00107495 1e-05
0.0197907 0.00107383 1e-05
0.0199272 0.00107271 1e-05
0.0200636 0.00107156 1e-05
0.0202001 0.00107037 1e-05
0.0203365 0.00106917 1e-05
0.020473 0.00106798 1e-05
0.0206105 0.00106678 1e-05
0.020748 0.00106555 1e-05
0.0208855 0.00106429 1e-05
0.021023 0.00106302 1e-05
0.0211606 0.00106175 1e-05
0.0212991 0.00106047 1e-05
0.0214377 0.00105916 1e-05
0.0215763 0.00105782 1e-05
0.0217149 0.00105647 1e-05
0.0218535 0.00105512 1e-05
0.0219931 0.00105377 1e-05
0.0221328 0.00105239 1e-05
0.0222724 0.00105097 1e-05
0.0224121 0.00104953 1e-05
0.0225517 0.00104811 1e-05
0.0226925 0.00104668 1e-05
0.0228332 0.00104521 1e-05
0.022974 0.00104371 1e-05
0.0231147 0.0010422 1e-05
0.0232555 0.00104069 1e-05
0.0233973 0.00103918 1e-05
0.0235391 0.00103763 1e-05
0.023681 0.00103605 1e-05
0.0238228 0.00103445 1e-05
0.0239647 0.00103286 1e-05
0.0241076 0.00103127 1e-05
0.0242505 0.00102963 1e-05
0.0243935 0.00102797 1e-05
0.0245364 0.00102628 1e-05
0.0246794 0.00102461 1e-05
0.0248234 0.00102292 1e-05
0.0249675 0.0010212 1e-05
0.0251115 0.00101945 1e-05
0.0252556 0.00101769 1e-05
[...]
POINT_DATA 12070
 FIELD attributes 1
U 3 12070 float
10.0004 	0.0073486 	0 10.0004 	0.00587888 	0 10.0003 	0.00440916 	0 10.0002 	0.00293944 	0 10.0001 	0.00146972 	0 10 	0 	0
10.0001 	0.000880198 	0 10 	0.000704159 	0 10 	0.000528119 	0 10 	0.000352079 	0 10 	0.00017604 	0 10 	0 	0
10.0001 	0.000469515 	0 10.0001 	0.000375419 	0 10.0001 	0.000281324 	0 10 	0.000187229 	0 10 	9.3133e-05 	0 10 	0 	0
10 	0.000269583 	0 10 	0.000215667 	0 10 	0.00016175 	0 10 	0.000107833 	0 10 	5.39167e-05 	0 10 	0 	0
10 	8.38643e-05 	0 10 	6.70914e-05 	0 10 	5.03186e-05 	0 10 	3.35457e-05 	0 10 	1.67729e-05 	0 10 	0 	0
10 	-2.31253e-05 	0 10 	-1.85003e-05 	0 10 	-1.38752e-05 	0 10 	-9.25013e-06 	0 10 	-4.62506e-06 	0 10 	0 	0
10 	-0.000213964 	0 10 	-0.000171171 	0 10 	-0.000128379 	0 10 	-8.55857e-05 	0 10 	-4.27929e-05 	0 10 	0 	0
10 	-0.000376273 	0 10 	-0.000301019 	0 10 	-0.000225764 	0 10 	-0.000150509 	0 10 	-7.52546e-05 	0 10 	0 	0
9.99999 	-0.000425645 	0 9.99999 	-0.000340516 	0 9.99999 	-0.000255387 	0 10 	-0.000170258 	0 10 	-8.5129e-05 	0 10 	0 	0
9.17387 	0.0871274 	0 9.1308 	0.0697019 	0 9.08741 	0.0522761 	0 9.04368 	0.0348502 	0 8.99963 	0.017424 	0 8.95524 	0 	0
10.0004 	0.0073486 	0 10.0024 	0.0152083 	0 10.0045 	0.0222317 	0 10.0065 	0.0292106 	0 10.0086 	0.0361453 	0 10.0135 	0.0463388 	0 10.0164 	0.040222 	0 10.0208 	0.0401755 	0 10.0252 	0.0401292 	0 10.0297 	0.0400832 	0 10.0356 	0.0445445 	0 10.0385 	0.0379106 	0 10.0424 	0.0378704 	0 10.0464 	0.0378302 	0 10.0504 	0.03779 	0 10.0545 	0.0408927 	0 10.0566 	0.03882 	0 10.0591 	0.040133 	0 10.0615 	0.0414475 	0 10.0639 	0.0427637 	0 10.0661 	0.0452234 	0 10.0676 	0.0453374 	0 10.0689 	0.0465405 	0 10.0702 	0.0477446 	0 10.0715 	0.0489499 	0 10.0726 	0.0499686 	0 10.0727 	0.0500353 	0 10.0728 	0.050102 	0 10.0729 	0.0501687 	0 10.0729 	0.0502354 	0 10.073 	0.0502921 	0 10.0735 	0.0509248 	0 10.074 	0.051551 	0 10.0745 	0.0521778 	0 10.075 	0.0528051 	0 10.0755 	0.0532679 	0 10.0754 	0.0535713 	0 10.075 	0.053769 	0 10.0746 	0.0539667 	0 10.0743 	0.0541646 	0 10.0737 	0.0541237 	0 10.0733 	0.0542792 	0 10.0721 	0.0542658 	0 10.071 	0.0542525 	0 10.0699 	0.0542392 	0 10.0683 	0.0539567 	0 10.0679 	0.0540514 	0 10.0663 	0.0539319 	0 10.0646 	0.0538123 	0 10.0629 	0.0536928 	0 10.0604 	0.0532874 	0 10.0603 	0.0533615 	0 10.0582 	0.0531866 	0 10.0562 	0.0530116 	0 10.0541 	0.0528366 	0 10.0505 	0.0523641 	0 10.0511 	0.0524458 	0 10.0487 	0.0522537 	0 10.0463 	0.0520615 	0 10.044 	0.0518693 	0 10.0393 	0.051373 	0 10.0407 	0.0514886 	0 10.0381 	0.051306 	0 10.0355 	0.0511234 	0 10.0329 	0.0509408 	0 10.027 	0.0504431 	0 10.0294 	0.0506079 	0 10.0267 	0.0504623 	0 10.0239 	0.0503168 	0 10.0212 	0.0501711 	0 10.0142 	0.049708 	0 10.0177 	0.0499471 	0 10.0148 	0.0498544 	0 10.012 	0.0497617 	0 10.0091 	0.0496689 	0 10.0008 	0.0492454 	0 10.0056 	0.0495858 	0 10.0027 	0.0496304 	0 9.99982 	0.0496751 	0 9.99693 	0.0497198 	0 9.98746 	0.0494618 	0 9.99359 	0.0499975 	0 9.99071 	0.0501781 	0 9.98782 	0.0503588 	0 9.98494 	0.0505396 	0 9.97423 	0.0503495 	0 9.98185 	0.0510752 	0 9.97917 	0.0517128 	0 9.97649 	0.0523504 	0 9.97382 	0.0529882 	0 9.96208 	0.053351 	0 9.97155 	0.0544961 	9.65629e-22 9.96995 	0.0553263 	6.90821e-21 9.96836 	0.0561566 	1.28498e-20 9.96677 	0.0569871 	1.87903e-20 9.95497 	0.0571893 	1.56858e-20 9.9662 	0.0579177 	1.13072e-19 9.96519 	0.0580429 	1.05303e-19 9.96417 	0.0581681 	9.75358e-20 9.96316 	0.0582934 	8.97707e-20 9.95123 	0.0577588 	-1.81392e-20 9.96265 	0.0575984 	-4.94041e-20 9.96166 	0.0570181 	-5.48622e-20 9.96067 	0.0564377 	-6.03167e-20 9.95968 	0.0558573 	-6.57676e-20 9.94764 	0.0549964 	-2.46311e-20 9.9586 	0.0544383 	-2.18113e-20 9.95707 	0.053408 	-1.50731e-20 9.95553 	0.0523777 	-8.33587e-21 9.95398 	0.0513473 	-1.59956e-21 9.94155 	0.0501677 	8.87711e-21 9.95205 	0.0496778 	-5.49751e-21 9.94997 	0.0485409 	-2.72374e-20 9.94789 	0.0474038 	-4.89807e-20 9.9458 	0.0462665 	-7.07272e-20 9.93295 	0.0448047 	-1.02241e-19 9.94298 	0.0445297 	-1.49991e-19 9.9404 	0.0435074 	-1.35621e-19 9.9378 	0.0424849 	-1.21239e-19 9.9352 	0.041462 	-1.06846e-19 9.92199 	0.0398933 	-3.44545e-20 9.93147 	0.0397438 	4.74484e-20 9.92837 	0.0388212 	6.33134e-20 9.92526 	0.0378983 	7.91648e-20 9.92215 	0.0369751 	9.50026e-20 9.90864 	0.0354025 	4.26228e-20 9.91748 	0.0352394 	-6.68753e-20 9.91385 	0.0343429 	-7.41117e-20 9.91022 	0.0334461 	-8.13268e-20 9.90657 	0.0325489 	-8.85206e-20 9.89283 	0.0310284 	-3.29098e-22 9.90091 	0.0308146 	8.37918e-20 9.89672 	0.0299353 	7.29889e-20 9.89252 	0.0290557 	6.2165e-20 9.88831 	0.0281757 	5.132e-20 9.8744 	0.0267451 	-3.11082e-20 9.88154 	0.0264822 	-1.02497e-19 9.87677 	0.0256192 	-1.28477e-19 9.87199 	0.0247558 	-1.54449e-19 9.8672 	0.0238921 	-1.80413e-19 9.85323 	0.0225551 	-1.54998e-19 9.85922 	0.0222529 	-1.86434e-19 9.85386 	0.0214067 	-1.7194e-19 9.84849 	0.02056 	-1.5744e-19 9.84312 	0.0197131 	-1.42934e-19 9.82929 	0.0184609 	-9.37699e-20 9.83383 	0.0181292 	-8.00358e-20 9.8279 	0.0173033 	-5.84629e-20 9.82195 	0.0164771 	-3.68925e-20 9.816 	0.0156505 	-1.53246e-20 9.80259 	0.0144772 	3.43688e-21 9.80533 	0.014107 	0 9.79884 	0.0132986 	0 9.79234 	0.0124897 	0 9.78583 	0.0116805 	0 9.7732 	0.0105862 	0 9.7737 	0.0101539 	-1.74285e-20 9.76667 	0.00935716 	-3.95001e-20 9.75964 	0.00856002 	-6.15741e-20 9.75259 	0.00776243 	-8.36506e-20 9.74117 	0.00675717 	-1.07703e-19 9.73896 	0.00623296 	-1.18852e-19 9.73142 	0.00544503 	-1.19617e-19 9.72387 	0.0046566 	-1.20375e-19 9.7163 	0.00386768 	-1.21125e-19 9.70658 	0.00297375 	-1.16902e-19 9.70266 	0.00247273 	-8.23211e-20 9.69615 	0.00184043 	-5.48099e-20 9.68963 	0.00120778 	-2.73077e-20 9.6831 	0.000574775 	1.85403e-22 9.67691 	-2.54229e-05 	2.62301e-20 9.6753 	-0.000180288 	3.29136e-20 9.67369 	-0.000335175 	3.95965e-20 9.67208 	-0.000490085 	4.6279e-20 9.67047 	-0.000645018 	5.29608e-20 9.66759 	-0.000858172 	6.11522e-20 9.66017 	-0.00158401 	6.23304e-20 9.65159 	-0.00236166 	6.35505e-20 9.64298 	-0.00313995 	6.47674e-20 9.63437 	-0.00391887 	6.59812e-20 9.61818 	-0.00502171 	6.84794e-20 9.61602 	-0.00551612 	5.42456e-20 9.60699 	-0.00629205 	4.00098e-20 9.59795 	-0.00706866 	2.57723e-20 9.58889 	-0.00784597 	1.15332e-20 9.56642 	-0.0091519 	-8.23623e-22 9.5691 	-0.00947546 	-1.09062e-20 9.55966 	-0.0102543 	-2.44798e-20 9.55022 	-0.0110338 	-3.80517e-20 9.54075 	-0.0118141 	-5.1622e-20 9.51264 	-0.0132614 	-6.52051e-20 9.51967 	-0.0134725 	-6.7059e-20 9.50987 	-0.0142559 	-7.54331e-20 9.50005 	-0.0150402 	-8.38026e-20 9.49022 	-0.0158253 	-9.21674e-20 9.45719 	-0.0173484 	-1.11317e-19 9.46798 	-0.0175062 	-1.60532e-19 9.45785 	-0.0182953 	-1.49495e-19 9.4477 	-0.0190853 	-1.38477e-19 9.43753 	-0.0198762 	-1.27478e-19 9.40038 	-0.0214087 	-4.70833e-20 9.41431 	-0.0215752 	-3.10912e-20 9.40388 	-0.0223716 	-2.20284e-20 9.39343 	-0.0231689 	-1.29645e-20 9.38296 	-0.0239672 	-3.89942e-21 9.34251 	-0.0254441 	0 9.35895 	-0.0256807 	0 9.34826 	-0.0264844 	0 9.33755 	-0.0272891 	0 9.32681 	-0.0280947 	0 9.28385 	-0.0294501 	0 9.30221 	-0.0298112 	2.51491e-21 9.29129 	-0.0306213 	1.08826e-20 9.28034 	-0.0314324 	1.92491e-20 9.26938 	-0.0322446 	2.76144e-20 9.22464 	-0.03342 	4.71765e-20 9.24437 	-0.0339531 	1.72726e-19 9.23325 	-0.0347687 	1.7628e-19 9.2221 	-0.0355854 	1.79856e-19 9.21093 	-0.0364032 	1.83455e-19 9.1651 	-0.0373488 	4.74335e-20 9.18571 	-0.0380918 	2.6055e-20 9.17441 	-0.0389124 	1.84192e-20 9.16309 	-0.039734 	1.07821e-20 9.15175 	-0.0405568 	3.14359e-21 9.10543 	-0.0412337 	1.87843e-20 9.12522 	-0.0422117 	1.19556e-19 9.11505 	-0.0430431 	1.25325e-19 9.10358 	-0.0438693 	1.2707e-19 9.08867 	-0.0446524 	1.16429e-19 9.04581 	-0.0450743 	4.36063e-21 9.06242 	-0.0462628 	-1.14547e-19 9.05541 	-0.0471506 	-1.43491e-19 9.04382 	-0.0479815 	-1.55125e-19 9.02592 	-0.0486711 	-1.46622e-19 8.98641 	-0.0488728 	-6.89561e-20 9.00013 	-0.050245 	-2.03714e-19 8.99572 	-0.0512335 	-2.44383e-19 8.98403 	-0.0520694 	-2.47449e-19 8.9638 	-0.0526213 	-1.99141e-19 8.92738 	-0.0526333 	-5.3373e-20 8.9385 	-0.0541607 	-2.79365e-20 8.93619 	-0.0552857 	-1.25999e-20 8.92444 	-0.0561273 	-4.37658e-21 8.90246 	-0.0565077 	0 8.86886 	-0.0563627 	0 8.87763 	-0.0580233 	0 8.87701 	-0.0593143 	0 8.86521 	-0.0601626 	0 8.84199 	-0.0603445 	2.23383e-21 8.81096 	-0.0600692 	5.9986e-21 8.81764 	-0.0618395 	2.42605e-21 8.81837 	-0.0633168 	0 8.80654 	-0.0641709 	0 8.78251 	-0.0641331 	2.72156e-21 8.75379 	-0.0637513 	6.49189e-21 8.75862 	-0.065601 	2.91965e-21 8.76036 	-0.0672717 	1.3424e-21 8.74853 	-0.0681328 	8.69926e-21 8.72407 	-0.0678729 	2.77335e-20 8.69745 	-0.06742 	4.87762e-20 8.70064 	-0.0693409 	1.92328e-19 8.70316 	-0.071221 	3.30237e-19 8.69133 	-0.0720913 	3.34653e-19 8.66674 	-0.0716004 	1.92984e-19 8.642 	-0.0710921 	4.94795e-20 8.64375 	-0.0730714 	2.87885e-20 8.64544 	-0.0750528 	8.09955e-21 8.63365 	-0.0758689 	4.50622e-22 8.61058 	-0.0753192 	4.05869e-21 8.58752 	-0.0747691 	7.6666e-21 8.58803 	-0.0767935 	4.26455e-21 8.58846 	-0.0788201 	8.63789e-22 8.5772 	-0.0796047 	1.71361e-21 8.55562 	-0.0790192 	-2.60217e-21 8.53406 	-0.0784333 	-6.91689e-21 8.53348 	-0.0804781 	-5.65426e-20 8.53284 	-0.0825249 	-1.06174e-19 8.52213 	-0.0832756 	-1.08124e-19 8.50187 	-0.0826731 	-6.27919e-20 8.48163 	-0.0820701 	-1.74575e-20 8.48012 	-0.0841113 	9.49409e-20 8.47855 	-0.0861545 	2.07331e-19 8.46842 	-0.0868772 	2.17554e-19 8.44933 	-0.0862923 	1.23745e-19 8.43025 	-0.0857071 	2.99344e-20 8.42793 	-0.087742 	1.68245e-20 8.42555 	-0.0897787 	3.70959e-21 8.416 	-0.0904809 	-1.43728e-21 8.39796 	-0.0899288 	3.93871e-21 8.37992 	-0.0893765 	9.3161e-21 8.37689 	-0.0914007 	2.7227e-21 8.37379 	-0.0934269 	-3.87813e-21 8.36483 	-0.0941119 	-2.11516e-20 8.34773 	-0.0936009 	-7.78162e-20 8.33063 	-0.0930897 	-1.34483e-19 8.32696 	-0.0951013 	-2.82158e-19 8.32315 	-0.0970956 	-4.27437e-19 8.31448 	-0.0977302 	-4.02593e-19 8.2986 	-0.09732 	-2.4046e-19 8.28236 	-0.0968545 	-7.10969e-20 8.27812 	-0.0988528 	6.93906e-20 8.27309 	-0.10062 	1.85075e-19 8.26454 	-0.101276 	1.82031e-19 8.25058 	-0.101095 	1.02124e-19 8.23509 	-0.100678 	5.46099e-22 8.23036 	-0.102664 	-1.00087e-19 8.22435 	-0.104212 	-1.70348e-19 8.2159 	-0.10489 	-1.80306e-19 8.20361 	-0.104935 	-1.31224e-19 8.18882 	-0.104569 	-4.38083e-20 8.18364 	-0.106543 	-3.14055e-20 8.17686 	-0.107881 	-1.91208e-20 8.16851 	-0.108582 	-6.95257e-21 8.15766 	-0.108848 	9.92602e-21 8.1435 	-0.108534 	3.30872e-20 8.13792 	-0.110499 	8.2365e-21 8.13055 	-0.111635 	-4.30619e-21 8.12229 	-0.112361 	-1.07475e-20 8.1127 	-0.112844 	-1.14394e-20 8.09911 	-0.112583 	5.42477e-21 8.09317 	-0.114539 	-1.36648e-20 8.08537 	-0.115483 	-2.26095e-20 8.07718 	-0.116236 	-2.96284e-20 8.06868 	-0.11693 	-3.76852e-20 8.0556 	-0.116723 	-6.17784e-20 8.04932 	-0.118656 	5.72379e-20 8.04123 	-0.119435 	5.92243e-20 8.03312 	-0.120215 	6.11903e-20 8.02498 	-0.120995 	6.31356e-20 8.01294 	-0.120964 	-2.66073e-20 8.00612 	-0.12269 	5.58579e-20 7.9981 	-0.123498 	5.84647e-20 7.99005 	-0.124307 	6.10526e-20 7.98197 	-0.125116 	6.36214e-20 7.97109 	-0.125314 	7.33214e-21 7.96388 	-0.126843 	-3.6627e-22 7.95591 	-0.127682 	-2.62323e-22 7.94791 	-0.128521 	-1.58398e-22 7.93987 	-0.129361 	-5.44944e-23 7.93002 	-0.129782 	1.0483e-20 7.92251 	-0.131125 	0 7.91458 	-0.131995 	0 7.90663 	-0.132866 	0 7.89863 	-0.133737 	0 7.88967 	-0.134377 	6.01772e-21 7.88197 	-0.135541 	0 7.87408 	-0.136444 	0 7.86615 	-0.137349 	0 7.85819 	-0.138253 	0 7.84999 	-0.139107 	0 7.84777 	-0.139434 	0 7.84551 	-0.139703 	0 7.84326 	-0.139973 	0 7.841 	-0.140242 	0 7.83877 	-0.140507 	0 7.83296 	-0.141179 	0 7.82713 	-0.14185 	0 7.82127 	-0.142522 	0 7.8154 	-0.143194 	0 7.81024 	-0.143723 	0 7.80189 	-0.144827 	0 7.79377 	-0.145803 	0 7.78562 	-0.14678 	0 7.77742 	-0.147758 	0 7.77093 	-0.148398 	0 7.7622 	-0.149714 	0 7.75408 	-0.150729 	0 7.74592 	-0.151745 	0 7.73772 	-0.152762 	0 7.73222 	-0.153253 	0 7.7231 	-0.154778 	-3.8726e-21 7.71498 	-0.155836 	-1.42077e-20 7.70681 	-0.156893 	-2.454e-20 7.6986 	-0.157952 	-3.48693e-20 7.69407 	-0.158302 	-4.52343e-20 7.68456 	-0.160032 	-3.53004e-20 7.67642 	-0.161134 	-3.43365e-20 7.66824 	-0.162235 	-3.33666e-20 7.66008 	-0.163324 	-3.25653e-20 7.65643 	-0.163556 	-4.30021e-20 7.6467 	-0.165406 	-3.15913e-20 7.63835 	-0.166635 	-2.01362e-20 7.63015 	-0.167784 	-8.67257e-21 7.62301 	-0.168726 	0 7.61927 	-0.169027 	0 7.60953 	-0.170905 	0 7.60075 	-0.172354 	-3.14527e-21 7.59252 	-0.173552 	-8.13396e-21 7.58638 	-0.174357 	-1.31397e-20 7.58254 	-0.17473 	-1.8165e-20 7.57279 	-0.176638 	-5.45764e-20 7.56357 	-0.178304 	-8.53904e-20 7.5553 	-0.179555 	-1.06615e-19 7.55013 	-0.180231 	-1.00258e-19 7.54618 	-0.180678 	-8.29134e-20 7.53642 	-0.182621 	-5.56904e-20 7.52674 	-0.1845 	-2.99103e-20 7.51843 	-0.185806 	-1.73563e-20 7.51422 	-0.186362 	-4.12205e-20 7.51016 	-0.186886 	-6.66477e-20 7.50037 	-0.188867 	-8.10558e-20 7.49051 	-0.190848 	-9.54609e-20 7.48276 	-0.192163 	-7.90176e-20 7.4786 	-0.192766 	-4.42457e-20 7.47443 	-0.193369 	-9.47408e-21 7.46461 	-0.195392 	-5.45876e-21 7.45472 	-0.197416 	-1.45143e-21 7.44752 	-0.198775 	0 7.44325 	-0.199459 	0 7.43895 	-0.200142 	0 7.42909 	-0.202212 	0 7.41916 	-0.204283 	0 7.41251 	-0.205689 	0 7.4081 	-0.206456 	0 7.40366 	-0.207222 	0 7.39376 	-0.209344 	0 7.38379 	-0.211466 	0 7.37775 	-0.212889 	0 7.37312 	-0.213773 	-1.71775e-20 7.36853 	-0.214625 	-3.5405e-20 7.35858 	-0.216803 	-1.49277e-20 7.34963 	-0.218795 	2.15694e-23 7.3435 	-0.220286 	1.01083e-22 7.33826 	-0.22143 	2.75226e-21 7.33352 	-0.222371 	6.90626e-21 7.32351 	-0.22461 	4.01311e-20 7.31558 	-0.226477 	5.37128e-20 7.30933 	-0.228045 	5.14879e-20 7.30347 	-0.229448 	4.51868e-20 7.29856 	-0.230481 	2.98106e-20 7.28849 	-0.232786 	4.22695e-21 7.28156 	-0.234537 	8.32405e-21 7.27518 	-0.236186 	1.78943e-20 7.26873 	-0.237834 	2.74685e-20 7.26361 	-0.238974 	3.70128e-20 7.254 	-0.241259 	9.21017e-20 7.24753 	-0.242993 	8.86781e-20 7.241 	-0.244726 	8.52294e-20 7.23441 	-0.246459 	8.17554e-20 7.22862 	-0.247872 	4.02339e-20 7.22004 	-0.250043 	3.60417e-20 7.21342 	-0.251867 	3.68847e-20 7.20674 	-0.25369 	3.77363e-20 7.2 	-0.255513 	3.85967e-20 7.19355 	-0.257201 	4.17704e-20 7.18766 	-0.258789 	5.49516e-20 7.18258 	-0.26023 	5.2268e-20 7.17746 	-0.261671 	4.9569e-20 7.17231 	-0.263111 	4.68546e-20 7.16742 	-0.264468 	4.42831e-20 7.16556 	-0.264961 	4.39683e-20 7.16369 	-0.265454 	4.3653e-20 7.16181 	-0.265947 	4.33369e-20 7.15993 	-0.26644 	4.30203e-20 7.15844 	-0.266887 	4.31383e-20 7.15108 	-0.26894 	3.40162e-20 7.14385 	-0.270951 	2.44934e-20 7.13655 	-0.272962 	1.49657e-20 7.12918 	-0.274973 	5.43304e-21 7.12368 	-0.276762 	-1.9503e-21 7.11529 	-0.279077 	0 7.10787 	-0.281194 	0 7.10037 	-0.28331 	0 7.0928 	-0.285426 	0 7.08866 	-0.28715 	0 7.07922 	-0.289728 	0 7.07158 	-0.291955 	0 7.06387 	-0.294182 	0 7.05673 	-0.296337 	-6.24547e-22 7.05331 	-0.298074 	-4.91992e-21 7.04349 	-0.30079 	-1.25686e-21 7.03492 	-0.30326 	4.96822e-21 7.02697 	-0.305602 	1.2529e-20 7.02123 	-0.307697 	1.78437e-20 7.01755 	-0.309562 	2.10697e-20 7.00751 	-0.312386 	-1.5807e-20 6.99779 	-0.315135 	-4.43563e-20 6.98959 	-0.317597 	-4.10708e-20 6.98526 	-0.319641 	-2.36915e-21 6.98129 	-0.321639 	4.01928e-20 6.97101 	-0.324578 	-5.15405e-21 6.96063 	-0.327515 	-5.05176e-20 6.95292 	-0.330061 	-5.80731e-20 6.9487 	-0.332198 	-2.367e-20 6.94442 	-0.334334 	1.07328e-20 6.93389 	-0.337394 	5.36176e-21 6.92325 	-0.340453 	-2.02263e-23 6.91602 	-0.34312 	4.5952e-21 6.91147 	-0.345401 	1.5655e-20 6.90685 	-0.347682 	2.67147e-20 6.89604 	-0.35087 	1.49374e-20 6.88565 	-0.354004 	5.24299e-21 6.87887 	-0.356768 	9.93589e-21 6.87345 	-0.359284 	2.22818e-20 6.86845 	-0.361714 	3.72867e-20 6.85734 	-0.365036 	5.16803e-20 6.84847 	-0.368127 	5.49299e-20 6.84133 	-0.371037 	4.94741e-20 6.83451 	-0.373877 	3.97929e-20 6.8291 	-0.376459 	1.42264e-20 6.81771 	-0.379916 	1.1092e-20 6.81029 	-0.382977 	7.77654e-21 6.80277 	-0.386036 	4.46457e-21 6.79515 	-0.389093 	1.15604e-21 6.78865 	-0.39194 	0 6.77878 	-0.39536 	1.78506e-21 6.77095 	-0.398573 	5.56315e-21 6.76302 	-0.401785 	9.34443e-21 6.75498 	-0.404995 	1.31289e-20 6.74694 	-0.408184 	1.61191e-20 6.7459 	-0.408549 	1.70021e-20 6.74506 	-0.408896 	1.74622e-20 6.74422 	-0.409243 	1.79224e-20 6.74338 	-0.409589 	1.83827e-20 6.74254 	-0.409932 	1.88384e-20 6.73474 	-0.412935 	2.36094e-20 6.72684 	-0.415935 	2.83951e-20 6.71885 	-0.418933 	3.31955e-20 6.71077 	-0.42193 	3.80106e-20 6.70367 	-0.424768 	3.40317e-20 6.69417 	-0.42844 	4.22976e-20 6.68489 	-0.431943 	4.37619e-20 6.67549 	-0.435443 	4.52415e-20 6.66597 	-0.438941 	4.67364e-20 6.65863 	-0.442112 	3.32352e-20 6.64834 	-0.446061 	4.6211e-20 6.63833 	-0.449803 	4.4705e-20 6.62835 	-0.453465 	3.77595e-20 6.6195 	-0.45695 	2.26895e-20 6.61156 	-0.460288 	8.94295e-22 6.60067 	-0.464396 	-1.13545e-21 6.58964 	-0.468501 	-3.15167e-21 6.57929 	-0.47228 	-1.10896e-20 6.57082 	-0.475774 	-2.22736e-20 6.56222 	-0.479267 	-3.34476e-20 6.5507 	-0.483517 	-1.88425e-20 6.53903 	-0.487764 	-4.21919e-21 6.52892 	-0.491731 	-6.35785e-21 6.51974 	-0.495387 	-2.10003e-20 6.51043 	-0.499041 	-3.56454e-20 6.49823 	-0.503441 	4.615e-21 6.48659 	-0.507744 	3.00006e-20 6.47627 	-0.51185 	2.48328e-20 6.46601 	-0.515843 	8.37868e-21 6.4559 	-0.519667 	-2.54673e-20 6.44294 	-0.524228 	-1.70148e-20 6.4319 	-0.528493 	-1.20366e-20 6.42079 	-0.532743 	-7.19147e-21 6.40953 	-0.536989 	-2.35534e-21 6.39836 	-0.541083 	0 6.39108 	-0.543635 	0 6.38456 	-0.546071 	0 6.37799 	-0.548506 	0 6.37137 	-0.550939 	0 6.36508 	-0.553233 	0 6.35997 	-0.555197 	0 6.35483 	-0.557161 	0 6.34966 	-0.559123 	0 6.34446 	-0.561085 	0 6.33919 	-0.562955 	0 6.32786 	-0.567584 	8.23257e-23 6.31591 	-0.572083 	2.20732e-22 6.3038 	-0.576577 	3.58866e-22 6.29153 	-0.581067 	4.96724e-22 6.27889 	-0.58528 	-2.35137e-21 6.26736 	-0.590232 	-2.13217e-20 6.25489 	-0.59497 	-3.31003e-20 6.24183 	-0.599587 	-4.09228e-20 6.22842 	-0.604004 	-2.63072e-20 6.21474 	-0.608329 	-1.16684e-21 6.20225 	-0.613392 	-4.22296e-20 6.18957 	-0.618451 	-8.32662e-20 6.17581 	-0.623167 	-7.74618e-20 6.1612 	-0.627573 	-2.47946e-20 6.1464 	-0.631979 	2.79373e-20 6.13288 	-0.637121 	5.9638e-20 6.11909 	-0.642208 	8.11281e-20 6.10476 	-0.647041 	5.22574e-20 6.08956 	-0.65168 	1.2669e-20 6.07358 	-0.65615 	-3.64713e-20 6.05894 	-0.661355 	-5.22357e-20 6.04362 	-0.666254 	-6.68581e-20 6.02809 	-0.671133 	-8.1453e-20 6.01235 	-0.676007 	-9.60773e-20 5.99595 	-0.680747 	-1.0985e-19 5.99145 	-0.682206 	-1.16416e-19 5.9868 	-0.683588 	-1.11985e-19 5.98213 	-0.684969 	-1.07551e-19 5.97745 	-0.68635 	-1.03114e-19 5.97289 	-0.68769 	-9.8803e-20 5.96151 	-0.691228 	-9.0664e-20 5.95004 	-0.694763 	-8.25274e-20 5.93847 	-0.698295 	-7.43932e-20 5.9268 	-0.701825 	-6.62615e-20 5.91491 	-0.705178 	-4.61321e-20 5.89901 	-0.710447 	-3.53439e-20 5.88197 	-0.715338 	-2.1509e-20 5.86474 	-0.720223 	-7.65283e-21 5.84719 	-0.724965 	2.39092e-21 5.82926 	-0.729515 	7.15854e-21 5.81219 	-0.734794 	-2.82006e-20 5.79491 	-0.740067 	-6.3546e-20 5.77637 	-0.744851 	-6.54508e-20 5.7572 	-0.749291 	-3.7479e-20 5.73779 	-0.753733 	-9.47505e-21 5.71933 	-0.758918 	-6.91794e-21 5.70057 	-0.764026 	-7.61742e-21 5.68127 	-0.768811 	-2.29625e-20 5.66126 	-0.773385 	-4.18431e-20 5.6403 	-0.777682 	-6.55763e-20 5.62134 	-0.78246 	-9.79542e-20 5.60178 	-0.786837 	-8.29806e-20 5.58202 	-0.79121 	-6.79339e-20 5.56205 	-0.795577 	-5.28134e-20 5.54377 	-0.79953 	-3.90444e-20 5.54239 	-0.799847 	-3.8201e-20 5.54101 	-0.800164 	-3.73575e-20 5.53963 	-0.800481 	-3.65138e-20 5.53825 	-0.800797 	-3.56698e-20 5.53686 	-0.801087 	-3.54085e-20 5.5161 	-0.805589 	-2.88651e-20 5.49502 	-0.81003 	-2.19889e-20 5.47373 	-0.814467 	-1.50907e-20 5.45221 	-0.818893 	-8.39148e-21 5.43044 	-0.82283 	-1.79598e-20 5.40901 	-0.827556 	-5.77089e-20 5.38701 	-0.832079 	-8.90187e-20 5.36414 	-0.836206 	-1.0368e-19 5.34102 	-0.839791 	-7.01856e-20 5.31765 	-0.843377 	-3.63762e-20 5.29467 	-0.847783 	-6.54063e-20 5.27145 	-0.852179 	-9.41557e-20 5.24798 	-0.855987 	-9.02174e-20 5.22363 	-0.859404 	-6.76862e