# vtk DataFile Version 2.0
track0
ASCII
DATASET POLYDATA
POINTS 12070 float
-0.0205 0.001 1e-05
-0.02052 0.000999985 1e-05
-0.02054 0.000999974 1e-05
-0.02056 0.000999965 1e-05
-0.02058 0.000999959 1e-05
-0.0206 0.000999956 1e-05
-0.0205 0.00367778 1e-05
-0.02052 0.00367778 1e-05
-0.02054 0.00367777 1e-05
-0.02056 0.00367777 1e-05
-0.02058 0.00367777 1e-05
-0.0206 0.00367777 1e-05
-0.0205 0.00635556 1e-05
-0.02052 0.00635555 1e-05
-0.02054 0.00635555 1e-05
-0.02056 0.00635555 1e-05
-0.02058 0.00635555 1e-05
-0.0206 0.00635555 1e-05
-0.0205 0.00903333 1e-05
-0.02052 0.00903333 1e-05
-0.02054 0.00903333 1e-05
-0.02056 0.00903333 1e-05
-0.02058 0.00903333 1e-05
-0.0206 0.00903333 1e-05
-0.0205 0.0117111 1e-05
-0.02052 0.0117111 1e-05
-0.02054 0.0117111 1e-05
-0.02056 0.0117111 1e-05
-0.02058 0.0117111 1e-05
-0.0206 0.0117111 1e-05
-0.0205 0.0143889 1e-05
-0.02052 0.0143889 1e-05
-0.02054 0.0143889 1e-05
-0.02056 0.0143889 1e-05
-0.02058 0.0143889 1e-05
-0.0206 0.0143889 1e-05
-0.0205 0.0170667 1e-05
-0.02052 0.0170667 1e-05
-0.02054 0.0170667 1e-05
-0.02056 0.0170667 1e-05
-0.02058 0.0170667 1e-05
-0.0206 0.0170667 1e-05
-0.0205 0.0197444 1e-05
-0.02052 0.0197444 1e-05
-0.02054 0.0197444 1e-05
-0.02056 0.0197444 1e-05
-0.02058 0.0197444 1e-05
-0.0206 0.0197444 1e-05
-0.0205 0.0224222 1e-05
-0.02052 0.0224222 1e-05
-0.02054 0.0224222 1e-05
-0.02056 0.0224222 1e-05
-0.02058 0.0224222 1e-05
-0.0206 0.0224222 1e-05
-0.0205 0.0251 1e-05
-0.02052 0.0250998 1e-05
-0.02054 0.0250997 1e-05
-0.02056 0.0250995 1e-05
-0.02058 0.0250995 1e-05
-0.0206 0.0250994 1e-05
-0.0205 0.001 1e-05
-0.0202034 0.00100022 1e-05
-0.0199069 0.00100067 1e-05
-0.0196103 0.00100133 1e-05
-0.0193137 0.00100219 1e-05
-0.0190172 0.00100326 1e-05
-0.0187132 0.00100467 1e-05
-0.0184093 0.00100589 1e-05
-0.0181054 0.00100711 1e-05
-0.0178015 0.00100833 1e-05
-0.0174976 0.00100954 1e-05
-0.0172058 0.00101084 1e-05
-0.016914 0.00101194 1e-05
-0.0166222 0.00101304 1e-05
-0.0163305 0.00101414 1e-05
-0.0160387 0.00101523 1e-05
-0.0157586 0.00101637 1e-05
-0.0154784 0.00101745 1e-05
-0.0151983 0.00101857 1e-05
-0.0149182 0.00101973 1e-05
-0.0146381 0.00102092 1e-05
-0.0143754 0.0010221 1e-05
-0.0141127 0.00102328 1e-05
-0.0138501 0.00102449 1e-05
-0.0135874 0.00102574 1e-05
-0.0133656 0.00102682 1e-05
-0.0133512 0.00102689 1e-05
-0.0133367 0.00102696 1e-05
-0.0133223 0.00102703 1e-05
-0.0133079 0.0010271 1e-05
-0.0132934 0.00102718 1e-05
-0.0130353 0.00102846 1e-05
-0.0127771 0.00102977 1e-05
-0.0125189 0.00103109 1e-05
-0.0122607 0.00103243 1e-05
-0.0120025 0.00103378 1e-05
-0.0117547 0.00103509 1e-05
-0.0115068 0.00103641 1e-05
-0.0112589 0.00103773 1e-05
-0.0110111 0.00103906 1e-05
-0.0107632 0.00104039 1e-05
-0.0105252 0.00104167 1e-05
-0.0102873 0.00104295 1e-05
-0.0100493 0.00104424 1e-05
-0.00981133 0.00104552 1e-05
-0.00957337 0.0010468 1e-05
-0.00934491 0.00104802 1e-05
-0.00911645 0.00104925 1e-05
-0.00888799 0.00105047 1e-05
-0.00865954 0.0010517 1e-05
-0.00843108 0.00105292 1e-05
-0.00821175 0.00105408 1e-05
-0.00799242 0.00105524 1e-05
-0.00777309 0.0010564 1e-05
-0.00755376 0.00105756 1e-05
-0.00733443 0.00105871 1e-05
-0.00712387 0.00105981 1e-05
-0.0069133 0.0010609 1e-05
-0.00670273 0.001062 1e-05
-0.00649216 0.00106309 1e-05
-0.0062816 0.00106418 1e-05
-0.00607944 0.00106521 1e-05
-0.00587729 0.00106625 1e-05
-0.00567514 0.00106728 1e-05
-0.00547298 0.00106831 1e-05
-0.00527083 0.00106934 1e-05
-0.00507675 0.00107032 1e-05
-0.00488267 0.00107129 1e-05
-0.0046886 0.00107227 1e-05
-0.00449452 0.00107325 1e-05
-0.00430044 0.00107422 1e-05
-0.00411412 0.00107514 1e-05
-0.0039278 0.00107607 1e-05
-0.00374147 0.001077 1e-05
-0.00355515 0.00107792 1e-05
-0.00336883 0.00107885 1e-05
-0.00318995 0.00107973 1e-05
-0.00301107 0.00108062 1e-05
-0.00283219 0.0010815 1e-05
-0.00265331 0.00108239 1e-05
-0.00247443 0.00108328 1e-05
-0.0023027 0.00108413 1e-05
-0.00213097 0.00108499 1e-05
-0.00195924 0.00108585 1e-05
-0.0017875 0.00108672 1e-05
-0.00161577 0.00108759 1e-05
-0.0014509 0.00108842 1e-05
-0.00128603 0.00108927 1e-05
-0.00112116 0.00109012 1e-05
-0.00095629 0.00109098 1e-05
-0.000791418 0.00109186 1e-05
-0.000633135 0.00109271 1e-05
-0.000474851 0.00109357 1e-05
-0.000316568 0.00109445 1e-05
-0.000158284 0.00109534 1e-05
0 0.00109625 1e-05
0.000105677 0.00109686 1e-05
0.000211355 0.00109747 1e-05
0.000317032 0.00109809 1e-05
0.00042271 0.0010987 1e-05
0.000528387 0.00109932 1e-05
0.000634886 0.00109994 1e-05
0.000741385 0.00110055 1e-05
0.000847885 0.00110116 1e-05
0.000954384 0.00110177 1e-05
0.00106088 0.00110236 1e-05
0.00116821 0.00110296 1e-05
0.00127554 0.00110354 1e-05
0.00138286 0.00110412 1e-05
0.00149019 0.00110469 1e-05
0.00159752 0.00110524 1e-05
0.00170568 0.00110578 1e-05
0.00181384 0.00110632 1e-05
0.001922 0.00110685 1e-05
0.00203016 0.00110737 1e-05
0.00213833 0.00110787 1e-05
0.00224733 0.00110836 1e-05
0.00235633 0.00110885 1e-05
0.00246533 0.00110933 1e-05
0.00257434 0.00110979 1e-05
0.00268334 0.00111025 1e-05
0.00279319 0.00111069 1e-05
0.00290304 0.00111113 1e-05
0.00301289 0.00111156 1e-05
0.00312274 0.00111198 1e-05
0.00323259 0.00111239 1e-05
0.00334329 0.00111278 1e-05
0.003454 0.00111318 1e-05
0.0035647 0.00111356 1e-05
0.0036754 0.00111393 1e-05
0.00378611 0.0011143 1e-05
0.00389767 0.00111465 1e-05
0.00400924 0.001115 1e-05
0.0041208 0.00111533 1e-05
0.00423237 0.00111566 1e-05
0.00434393 0.00111598 1e-05
0.00445636 0.00111628 1e-05
0.00456879 0.00111658 1e-05
0.00468123 0.00111688 1e-05
0.00479366 0.00111716 1e-05
0.00490609 0.00111743 1e-05
0.0050194 0.00111769 1e-05
0.0051327 0.00111794 1e-05
0.00524601 0.00111819 1e-05
0.00535932 0.00111843 1e-05
0.00547262 0.00111865 1e-05
0.00558681 0.00111887 1e-05
0.005701 0.00111908 1e-05
0.00581518 0.00111928 1e-05
0.00592937 0.00111947 1e-05
0.00604356 0.00111965 1e-05
0.00615863 0.00111982 1e-05
0.00627371 0.00111999 1e-05
0.00638878 0.00112015 1e-05
0.00650386 0.00112029 1e-05
0.00661893 0.00112043 1e-05
0.0067349 0.00112056 1e-05
0.00685087 0.00112068 1e-05
0.00696684 0.00112079 1e-05
0.00708281 0.00112089 1e-05
0.00719878 0.00112098 1e-05
0.00731565 0.00112106 1e-05
0.00743252 0.00112114 1e-05
0.00754939 0.0011212 1e-05
0.00766626 0.00112126 1e-05
0.00778313 0.0011213 1e-05
0.0078787 0.00112133 1e-05
0.00797427 0.00112136 1e-05
0.00806983 0.00112138 1e-05
0.0081654 0.00112139 1e-05
0.00825596 0.00112139 1e-05
0.00827917 0.00112139 1e-05
0.00830239 0.00112139 1e-05
0.0083256 0.00112139 1e-05
0.00834882 0.00112139 1e-05
0.00837203 0.00112139 1e-05
0.00849073 0.00112138 1e-05
0.00860942 0.00112136 1e-05
0.00872812 0.00112133 1e-05
0.00884682 0.00112129 1e-05
0.00896551 0.00112124 1e-05
0.00908513 0.00112118 1e-05
0.00920475 0.00112111 1e-05
0.00932437 0.00112103 1e-05
0.00944398 0.00112095 1e-05
0.0095636 0.00112085 1e-05
0.00968415 0.00112073 1e-05
0.0098047 0.00112061 1e-05
0.00992525 0.00112048 1e-05
0.0100458 0.00112035 1e-05
0.0101663 0.0011202 1e-05
0.0102878 0.00112003 1e-05
0.0104093 0.00111985 1e-05
0.0105308 0.00111967 1e-05
0.0106523 0.00111948 1e-05
0.0107738 0.00111928 1e-05
0.0108962 0.00111905 1e-05
0.0110186 0.00111883 1e-05
0.0111411 0.00111859 1e-05
0.0112635 0.00111834 1e-05
0.0113859 0.00111808 1e-05
0.0115093 0.0011178 1e-05
0.0116327 0.00111752 1e-05
0.0117561 0.00111723 1e-05
0.0118795 0.00111692 1e-05
0.0120028 0.00111661 1e-05
0.0121272 0.00111627 1e-05
0.0122515 0.00111593 1e-05
0.0123759 0.00111558 1e-05
0.0125002 0.00111521 1e-05
0.0126245 0.00111484 1e-05
0.0127498 0.00111444 1e-05
0.0128752 0.00111404 1e-05
0.0130005 0.00111363 1e-05
0.0131258 0.0011132 1e-05
0.0132511 0.00111277 1e-05
0.0133774 0.00111231 1e-05
0.0135036 0.00111184 1e-05
0.0136299 0.00111137 1e-05
0.0137562 0.00111088 1e-05
0.0138825 0.00111038 1e-05
0.0140098 0.00110986 1e-05
0.014137 0.00110934 1e-05
0.0142643 0.0011088 1e-05
0.0143915 0.00110824 1e-05
0.0145188 0.00110768 1e-05
0.0146471 0.0011071 1e-05
0.0147753 0.00110651 1e-05
0.0149036 0.0011059 1e-05
0.0150318 0.00110528 1e-05
0.0151601 0.00110465 1e-05
0.0152893 0.00110401 1e-05
0.0154186 0.00110335 1e-05
0.0155478 0.00110268 1e-05
0.0156771 0.00110199 1e-05
0.0158063 0.00110129 1e-05
0.0159366 0.00110058 1e-05
0.0160668 0.00109986 1e-05
0.0161971 0.00109912 1e-05
0.0163273 0.00109836 1e-05
0.0164576 0.0010976 1e-05
0.0165889 0.00109682 1e-05
0.0167201 0.00109603 1e-05
0.0168514 0.00109521 1e-05
0.0169827 0.00109439 1e-05
0.0171139 0.00109356 1e-05
0.0172462 0.00109272 1e-05
0.0173785 0.00109185 1e-05
0.0175108 0.00109097 1e-05
0.0176431 0.00109007 1e-05
0.0177754 0.00108917 1e-05
0.0179087 0.00108826 1e-05
0.018042 0.00108732 1e-05
0.0181753 0.00108636 1e-05
0.0183087 0.00108539 1e-05
0.018442 0.00108442 1e-05
0.0185763 0.00108344 1e-05
0.0187107 0.00108244 1e-05
0.018845 0.0010814 1e-05
0.0189794 0.00108036 1e-05
0.0191137 0.00107931 1e-05
0.0192491 0.00107826 1e-05
0.0193845 0.00107718 1e-05
0.0195199 0.00107608 1e-05
0.0196553 0.00107495 1e-05
0.0197907 0.00107383 1e-05
0.0199272 0.00107271 1e-05
0.0200636 0.00107156 1e-05
0.0202001 0.00107037 1e-05
0.0203365 0.00106917 1e-05
0.020473 0.00106798 1e-05
0.0206105 0.00106678 1e-05
0.020748 0.00106555 1e-05
0.0208855 0.00106429 1e-05
0.021023 0.00106302 1e-05
0.0211606 0.00106175 1e-05
0.0212991 0.00106047 1e-05
0.0214377 0.00105916 1e-05
0.0215763 0.00105782 1e-05
0.0217149 0.00105647 1e-05
0.0218535 0.00105512 1e-05
0.0219931 0.00105377 1e-05
0.0221328 0.00105239 1e-05
0.0222724 0.00105097 1e-05
0.0224121 0.00104953 1e-05
0.0225517 0.00104811 1e-05
0.0226925 0.00104668 1e-05
0.0228332 0.00104521 1e-05
0.022974 0.00104371 1e-05
0.0231147 0.0010422 1e-05
0.0232555 0.00104069 1e-05
0.0233973 0.00103918 1e-05
0.0235391 0.00103763 1e-05
0.023681 0.00103605 1e-05
0.0238228 0.00103445 1e-05
0.0239647 0.00103286 1e-05
0.0241076 0.00103127 1e-05
0.0242505 0.00102963 1e-05
0.0243935 0.00102797 1e-05
0.0245364 0.00102628 1e-05
0.0246794 0.00102461 1e-05
0.0248234 0.00102292 1e-05
0.0249675 0.0010212 1e-05
0.0251115 0.00101945 1e-05
0.0252556 0.00101769 1e-05
[...]
POINT_DATA 12070
 FIELD attributes 2
p 1 12070 float
-5.46358 -5.46027 -5.45696 -5.45366 -5.45035 -5.44704
-5.61699 -5.61696 -5.61694 -5.61692 -5.6169 -5.61688
-5.7916 -5.79148 -5.79136 -5.79124 -5.79111 -5.79101
-5.88563 -5.88558 -5.88553 -5.88547 -5.88542 -5.88536
-5.93147 -5.93136 -5.93125 -5.93113 -5.93102 -5.93091
-5.93872 -5.93856 -5.9384 -5.93823 -5.93807 -5.93791
-5.9124 -5.91232 -5.91225 -5.91218 -5.91211 -5.91204
-5.84326 -5.84322 -5.84318 -5.84314 -5.8431 -5.84306
-5.7223 -5.72231 -5.72232 -5.72232 -5.72233 -5.72233
-3.5099 -3.52923 -3.54842 -3.56748 -3.58641 -3.6052
-5.46358 -5.4629 -5.45932 -5.45566 -5.45192 -5.44363 -5.45751 -5.47249 -5.48748 -5.50246 -5.52689 -5.5486 -5.57848 -5.60835 -5.63823 -5.67091 -5.68648 -5.70808 -5.72969 -5.7513 -5.77452 -5.79322 -5.81393 -5.83464 -5.85536 -5.87285 -5.87399 -5.87512 -5.87626 -5.87739 -5.87852 -5.90001 -5.9215 -5.94299 -5.96448 -5.9857 -6.00424 -6.02259 -6.04094 -6.05929 -6.07706 -6.09241 -6.10748 -6.12254 -6.1376 -6.1521 -6.16552 -6.17868 -6.19184 -6.205 -6.21771 -6.22996 -6.24194 -6.25391 -6.26588 -6.27741 -6.28863 -6.2995 -6.31038 -6.32126 -6.33168 -6.3419 -6.35177 -6.36164 -6.37152 -6.38101 -6.39036 -6.39933 -6.4083 -6.41727 -6.42589 -6.43444 -6.44264 -6.45084 -6.45903 -6.46704 -6.47493 -6.48224 -6.48955 -6.49686 -6.50404 -6.51144 -6.51882 -6.5262 -6.53358 -6.54165 -6.55015 -6.55793 -6.56571 -6.57349 -6.5819 -6.5925 -6.60601 -6.61953 -6.63304 -6.64897 -6.66541 -6.68604 -6.70667 -6.72731 -6.74772 -6.7664 -6.78555 -6.80471 -6.82386 -6.8407 -6.85335 -6.86561 -6.87787 -6.89014 -6.90216 -6.91211 -6.92145 -6.93079 -6.94013 -6.94927 -6.95873 -6.96676 -6.97478 -6.98281 -6.98953 -6.99769 -7.0043 -7.01091 -7.01752 -7.02261 -7.02906 -7.03423 -7.0394 -7.04457 -7.04857 -7.05344 -7.05731 -7.06119 -7.06506 -7.06821 -7.07192 -7.07492 -7.07792 -7.08092 -7.0835 -7.08647 -7.08891 -7.09135 -7.09379 -7.09597 -7.09848 -7.1006 -7.10271 -7.10482 -7.10675 -7.10901 -7.11096 -7.11292 -7.11487 -7.11669 -7.1188 -7.12069 -7.12258 -7.12447 -7.12627 -7.12829 -7.13018 -7.13207 -7.13395 -7.13579 -7.13744 -7.13901 -7.14059 -7.14217 -7.14367 -7.14405 -7.14444 -7.14482 -7.1452 -7.14563 -7.14768 -7.14978 -7.15188 -7.15398 -7.15642 -7.15839 -7.16072 -7.16304 -7.16537 -7.16841 -7.17026 -7.1728 -7.17535 -7.17789 -7.18151 -7.18321 -7.18592 -7.18862 -7.19133 -7.19546 -7.19702 -7.19988 -7.20275 -7.20561 -7.21023 -7.2117 -7.21475 -7.2178 -7.22084 -7.22593 -7.22736 -7.2306 -7.23383 -7.23707 -7.24256 -7.24401 -7.24742 -7.25083 -7.25425 -7.26007 -7.26159 -7.26517 -7.26875 -7.27234 -7.2784 -7.28005 -7.2838 -7.28755 -7.2913 -7.29754 -7.29946 -7.30329 -7.3072 -7.31135 -7.31746 -7.31981 -7.3236 -7.32766 -7.33216 -7.33813 -7.34089 -7.34469 -7.3489 -7.35367 -7.35951 -7.36265 -7.36651 -7.37086 -7.37585 -7.38156 -7.38505 -7.38899 -7.39345 -7.39859 -7.40418 -7.40796 -7.41199 -7.41655 -7.42177 -7.42725 -7.43127 -7.43541 -7.44005 -7.44532 -7.45069 -7.45494 -7.45921 -7.46393 -7.4692 -7.47448 -7.47893 -7.48338 -7.48816 -7.49326 -7.49837 -7.50291 -7.50746 -7.51221 -7.51713 -7.52206 -7.52664 -7.53122 -7.53595 -7.54083 -7.5457 -7.55037 -7.55504 -7.55982 -7.5647 -7.56957 -7.5743 -7.57904 -7.58384 -7.58871 -7.59357 -7.59831 -7.60306 -7.60786 -7.61268 -7.6175 -7.62222 -7.62694 -7.63171 -7.63648 -7.64126 -7.64593 -7.65061 -7.65533 -7.66006 -7.66479 -7.6694 -7.67403 -7.67869 -7.68336 -7.68803 -7.69258 -7.69715 -7.70175 -7.70635 -7.71095 -7.71541 -7.71991 -7.72443 -7.72895 -7.73347 -7.73785 -7.74227 -7.74671 -7.75114 -7.75556 -7.75985 -7.76418 -7.76851 -7.77285 -7.77717 -7.78136 -7.78558 -7.78981 -7.79403 -7.79824 -7.80233 -7.80644 -7.81055 -7.81467 -7.81876 -7.82273 -7.82671 -7.8307 -7.83468 -7.83865 -7.84249 -7.84633 -7.85017 -7.85401 -7.85786 -7.85891 -7.85998 -7.86104 -7.8621 -7.86314 -7.86579 -7.86845 -7.8711 -7.87376 -7.87641 -7.87998 -7.88354 -7.88709 -7.89065 -7.89421 -7.89763 -7.90101 -7.90439 -7.90778 -7.91114 -7.91441 -7.9176 -7.9208 -7.92399 -7.92715 -7.93027 -7.93326 -7.93625 -7.93925 -7.94218 -7.94513 -7.94793 -7.95072 -7.95349 -7.9562 -7.95897 -7.96161 -7.96418 -7.9667 -7.96916 -7.97172 -7.97419 -7.97651 -7.97872 -7.9809 -7.9832 -7.98548 -7.98751 -7.98939 -7.99126 -7.99329 -7.99533 -7.99707 -7.99863 -8.00018 -8.00193 -8.00368 -8.00516 -8.00637 -8.00759 -8.00903 -8.01048 -8.01166 -8.01249 -8.01333 -8.01444 -8.01555 -8.01639 -8.01683 -8.01725 -8.01799 -8.01865 -8.01908 -8.01921 -8.01916 -8.01948 -8.0196 -8.01957 -8.01938 -8.01884 -8.0187 -8.01822 -8.01769 -8.01716 -8.01607 -8.01537 -8.01427 -8.01318 -8.01209 -8.01062 -8.00919 -8.00749 -8.0058 -8.00411 -8.00224 -8.0006 -7.99884 -7.99707 -7.99531 -7.99366 -7.99307 -7.99249 -7.99191 -7.99133 -7.9907 -7.98778 -7.9848 -7.98182 -7.97885 -7.97561 -7.97224 -7.96847 -7.96471 -7.96096 -7.95666 -7.95283 -7.94819 -7.94356 -7.93882 -7.9334 -7.92877 -7.92351 -7.91791 -7.91186 -7.90537 -7.89978 -7.89397 -7.88733 -7.8798 -7.87217 -7.8655 -7.85885 -7.85103 -7.84212 -7.83322 -7.82536 -7.81751 -7.80851 -7.79821 -7.78793 -7.77876 -7.76945 -7.75899 -7.74752 -7.73572 -7.72513 -7.71375 -7.70174 -7.68945 -7.67601 -7.66386 -7.65016 -7.63648 -7.6228 -7.60813 -7.59349 -7.57795 -7.56243 -7.54693 -7.53133 -7.52962 -7.52782 -7.52601 -7.52421 -7.52243 -7.50696 -7.49151 -7.47608 -7.46066 -7.44456 -7.42605 -7.40669 -7.38735 -7.36803 -7.34707 -7.32697 -7.30576 -7.28415 -7.26161 -7.23829 -7.2159 -7.19354 -7.16931 -7.14341 -7.11751 -7.09262 -7.06776 -7.04107 -7.0124 -6.98375 -6.95616 -6.92789 -6.89817 -6.86776 -6.83623 -6.80584 -6.77325 -6.74059 -6.70797 -6.67435 -6.65535 -6.63542 -6.61551 -6.59559 -6.57683 -6.56093 -6.54504 -6.52916 -6.51328 -6.4968 -6.45882 -6.42015 -6.38152 -6.34292 -6.30217 -6.26183 -6.22035 -6.17827 -6.13464 -6.09027 -6.04639 -6.00255 -5.95657 -5.90847 -5.86037 -5.8128 -5.76486 -5.71491 -5.664 -5.61218 -5.56094 -5.50735 -5.45368 -5.40005 -5.34575 -5.33012 -5.31391 -5.2977 -5.28149 -5.26576 -5.22489 -5.18403 -5.1432 -5.1024 -5.0601 -5.00116 -4.94072 -4.88033 -4.81896 -4.75611 -4.69377 -4.63149 -4.56716 -4.50086 -4.43451 -4.36858 -4.30229 -4.23421 -4.1655 -4.09581 -4.0298 -3.96207 -3.89439 -3.82675 -3.7655 -3.76072 -3.75593 -3.75115 -3.74636 -3.74145 -3.66792 -3.59433 -3.5208 -3.44732 -3.37203 -3.2969 -3.2215 -3.14551 -3.06813 -2.99063 -2.91312 -2.83566 -2.75714 -2.67821 -2.59888 -2.52752 -2.45549 -2.38347 -2.31151 -2.24551 -2.23608 -2.22665 -2.21722 -2.20779 -2.19826 -2.11681 -2.03534 -1.95394 -1.87255 -1.7907 -1.70858 -1.62653 -1.54454 -1.46276 -1.38082 -1.2984 -1.21631 -1.13468 -1.05313 -0.971606 -0.941144 -0.911028 -0.880991 -0.850964 -0.82184 -0.770354 -0.718897 -0.667468 -0.616154 -0.565279 -0.484143 -0.403452 -0.323035 -0.2439 -0.164744 -0.0849073 -0.00530209 0.0725825 0.150108 0.227278 0.271223 0.314214 0.356905 0.399576 0.440756 0.474574 0.508381 0.542176 0.575796 0.608795 0.684239 0.758651 0.832983 0.905657 0.97792 1.05071 1.12345 1.19377 1.26339 1.33259 1.37462 1.41548 1.45593 1.49636 1.53593 1.56337 1.59082 1.61825 1.64549 1.67207 1.73863 1.80394 1.86923 1.93286 1.99592 2.05917 2.12239 2.18337 2.24349 2.30307 2.34058 2.37701 2.41306 2.44912 2.4851 2.50711 2.52912 2.55113 2.573 2.59431 2.65103 2.70661 2.7622 2.81662 2.8704 2.92393 2.97748 3.02953 3.08023 3.13066 3.17013 3.20856 3.24675 3.28496 3.32407 3.33457 3.34507 3.35557 3.36604 3.37628 3.42359 3.47038 3.51721 3.56364 3.60929 3.65428 3.6993 3.74318 3.78593 3.82864 3.87072 3.91225 3.95345 3.9947 4.03522 4.04592 4.0564 4.06687 4.07733 4.08799 4.11674 4.14551 4.1743 4.2031 4.23133 4.26944 4.30668 4.34366 4.38013 4.41637 4.45199 4.48765 4.52274 4.55659 4.59039 4.62366 4.6565 4.68921 4.72196 4.75402 4.76513 4.77605 4.78697 4.79791 4.80922 4.82914 4.84908 4.86903 4.88899 4.90853 4.9386 4.96764 4.99672 5.02555 5.05394 5.08218 5.11045 5.13753 5.16402 5.19048 5.21684 5.24321 5.26907 5.29411 5.31878 5.34341 5.36765 5.39183 5.41603 5.43949 5.45336 5.46704 5.48074 5.49444 5.50919 5.51801 5.52683 5.53566 5.54449 5.55317 5.57502 5.59646 5.61792 5.63939 5.66038 5.68152 5.70201 5.72215 5.74203 5.76176 5.78166 5.80157 5.82065 5.83929 5.8579 5.8767 5.89551 5.91408 5.93178 5.94941 5.96722 5.98494 6.00258 6.02008 6.03688 6.05384 6.0707 6.08756 6.10443 6.12092 6.13242 6.14391 6.1554 6.16689 6.17936 6.18392 6.18847 6.19303 6.19758 6.20213 6.21801 6.23377 6.24954 6.26531 6.28106 6.29687 6.31224 6.3276 6.34296 6.35835 6.37392 6.38919 6.40427 6.4194 6.43456 6.44991 6.46523 6.48015 6.49521 6.51025 6.52548 6.54072 6.55585 6.57091 6.58596 6.60119 6.61643 6.63187 6.64704 6.6622 6.67755 6.69299 6.7086 6.7241 6.73949 6.75505 6.77086 6.78673 6.8026 6.81831 6.83426 6.85049 6.86671 6.88294 6.89912 6.91212 6.92525 6.93838 6.95151 6.96433 6.96793 6.97153 6.97512 6.97872 6.98235 6.99951 7.01667 7.03383 7.05099 7.06836 7.08611 7.10387 7.12164 7.13942 7.15758 7.17595 7.19436 7.2128 7.23146 7.25033 7.26939 7.28848 7.30766 7.32727 7.34689 7.36671 7.38653 7.40666 7.42709 7.44753 7.46815 7.48882 7.50991 7.53114 7.55243 7.57389 7.59566 7.61761 7.63958 7.66175 7.6842 7.70702 7.72985 7.75269 7.7756 7.78224 7.78896 7.79568 7.80241 7.80898 7.82594 7.8429 7.85987 7.87684 7.89401 7.9184 7.94293 7.96747 7.99205 8.01705 8.04226 8.06759 8.09303 8.11882 8.14473 8.17085 8.19697 8.22343 8.25022 8.27703 8.30405 8.33117 8.35863 8.38619 8.4139 8.44181 8.47014 8.49848 8.52682 8.55528 8.56488 8.5746 8.58432 8.59403 8.60358 8.62303 8.64247 8.66192 8.68137 8.70105 8.7308 8.76074 8.79067 8.82075 8.85113 8.88167 8.91223 8.94306 8.97424 9.00544 9.03681 9.06818 9.09995 9.13188 9.16388 9.19604 9.22854 9.2611 9.29366 9.32631 9.33617 9.34612 9.35608 9.36603 9.37592 9.39922 9.42251 9.4458 9.4691 9.49264 9.52639 9.56033 9.59426 9.6284 9.66272 9.69717 9.73162 9.76635 9.80136 9.83637 9.8715 9.90674 9.94222 9.97774 10.0134 10.0427 10.0722 10.1017 10.1312 10.161 10.1675 10.174 10.1805 10.187 10.1936 10.2301 10.2667 10.3032 10.3398 10.3767 10.4136 10.4506 10.4877 10.5251 10.5624 10.5998 10.6373 10.6749 10.7126 10.7503 10.7881 10.8261 10.8641 10.9022 10.9402 10.952 10.9637 10.9755 10.9872 10.9993 11.0255 11.0517 11.0779 11.104 11.1301 11.1682 11.2067 11.2452 11.2844 11.3244 11.3644 11.4043 11.4384 11.4672 11.4959 11.5243 11.5531 11.5947 11.6431 11.6935 11.7375 11.7676 11.7928 11.818 11.8462 11.8503 11.8544 11.8585 11.8621 11.864 11.8843 11.9054 11.9264 11.9496 11.9769 12.0041 12.0313 12.0588 12.0865 12.1141 12.1416 12.1668 12.1912 12.2156 12.2395 12.2412 12.2428 12.2443 12.2458 12.2474 12.2669 12.2864 12.3058 12.3249 12.3424 12.3604 12.3782 12.3946 12.4095 12.4244 12.4382 12.4513 12.4625 12.4733 12.4826 12.4879 12.4912 12.4943 12.4974 12.501 12.503 12.5051 12.5071 12.5091 12.5103 12.5106 12.5095 12.5083 12.506 12.5011 12.4939 12.4865 12.4756 12.4615 12.4473 12.4304 12.4127 12.3908 12.3672 12.3418 12.3134 12.2798 12.2461 12.2123 12.1774 12.1676 12.1567 12.1457 12.1347 12.123 12.0887 12.0544 12.02 11.9856 11.9476 11.8917 11.8317 11.7716 11.7094 11.6425 11.5713 11.499 11.4222 11.3382 11.254 11.1651 11.0762 10.9802 10.8776 10.7748 10.6668 10.5568 10.4397 10.3187 10.1946 10.0648 9.92851 9.79016 9.65179 9.50736 9.35266 9.18898 9.02528 8.86156 8.69456 8.58603 8.47592 8.36579 8.25565 8.12044 8.04899 7.97753 7.90606 7.83459 7.76198 7.54481 7.32346 7.10197 6.88035 6.64492 6.39409 6.15079 5.90749 5.66419 5.43212 5.19362 4.87843 4.5592 4.21736 3.80747 3.38307 3.04031 2.75845 2.55613 2.42458 2.28825 2.09235 1.65165 0.832149 0