# vtk DataFile Version 2.0
track0
ASCII
DATASET POLYDATA
POINTS 12069 float
-0.0205 0.001 1e-05
-0.02052 0.000999985 1e-05
-0.02054 0.000999974 1e-05
-0.02056 0.000999965 1e-05
-0.02058 0.000999959 1e-05
-0.0206 0.000999956 1e-05
-0.0205 0.00367778 1e-05
-0.02052 0.00367778 1e-05
-0.02054 0.00367777 1e-05
-0.02056 0.00367777 1e-05
-0.02058 0.00367777 1e-05
-0.0206 0.00367777 1e-05
-0.0205 0.00635556 1e-05
-0.02052 0.00635555 1e-05
-0.02054 0.00635555 1e-05
-0.02056 0.00635555 1e-05
-0.02058 0.00635555 1e-05
-0.0206 0.00635555 1e-05
-0.0205 0.00903333 1e-05
-0.02052 0.00903333 1e-05
-0.02054 0.00903333 1e-05
-0.02056 0.00903333 1e-05
-0.02058 0.00903333 1e-05
-0.0206 0.00903333 1e-05
-0.0205 0.0117111 1e-05
-0.02052 0.0117111 1e-05
-0.02054 0.0117111 1e-05
-0.02056 0.0117111 1e-05
-0.02058 0.0117111 1e-05
-0.0206 0.0117111 1e-05
-0.0205 0.0143889 1e-05
-0.02052 0.0143889 1e-05
-0.02054 0.0143889 1e-05
-0.02056 0.0143889 1e-05
-0.02058 0.0143889 1e-05
-0.0206 0.0143889 1e-05
-0.0205 0.0170667 1e-05
-0.02052 0.0170667 1e-05
-0.02054 0.0170667 1e-05
-0.02056 0.0170667 1e-05
-0.02058 0.0170667 1e-05
-0.0206 0.0170667 1e-05
-0.0205 0.0197444 1e-05
-0.02052 0.0197444 1e-05
-0.02054 0.0197444 1e-05
-0.02056 0.0197444 1e-05
-0.02058 0.0197444 1e-05
-0.0206 0.0197444 1e-05
-0.0205 0.0224222 1e-05
-0.02052 0.0224222 1e-05
-0.02054 0.0224222 1e-05
-0.02056 0.0224222 1e-05
-0.02058 0.0224222 1e-05
-0.0206 0.0224222 1e-05
-0.0205 0.0251 1e-05
-0.02052 0.0250998 1e-05
-0.02054 0.0250997 1e-05
-0.02056 0.0250995 1e-05
-0.02058 0.0250995 1e-05
-0.0206 0.0250994 1e-05
-0.0205 0.001 1e-05
-0.0202034 0.00100022 1e-05
-0.0199069 0.00100067 1e-05
-0.0196103 0.00100133 1e-05
-0.0193137 0.0010022 1e-05
-0.0190172 0.00100328 1e-05
-0.0187132 0.00100469 1e-05
-0.0184093 0.00100592 1e-05
-0.0181054 0.00100714 1e-05
-0.0178015 0.00100837 1e-05
-0.0174976 0.00100959 1e-05
-0.0172058 0.0010109 1e-05
-0.016914 0.00101201 1e-05
-0.0166222 0.00101313 1e-05
-0.0163305 0.00101424 1e-05
-0.0160387 0.00101535 1e-05
-0.0157586 0.00101651 1e-05
-0.0154784 0.00101761 1e-05
-0.0151983 0.00101874 1e-05
-0.0149182 0.00101992 1e-05
-0.0146381 0.00102113 1e-05
-0.0143894 0.00102227 1e-05
-0.0141406 0.00102341 1e-05
-0.0138919 0.00102458 1e-05
-0.0136432 0.00102578 1e-05
-0.013433 0.00102682 1e-05
-0.0134051 0.00102696 1e-05
-0.0133772 0.0010271 1e-05
-0.0133493 0.00102724 1e-05
-0.0133214 0.00102738 1e-05
-0.0132934 0.00102752 1e-05
-0.0130353 0.00102884 1e-05
-0.0127771 0.00103018 1e-05
-0.0125189 0.00103153 1e-05
-0.0122607 0.00103291 1e-05
-0.0120025 0.0010343 1e-05
-0.0117547 0.00103564 1e-05
-0.0115068 0.001037 1e-05
-0.0112589 0.00103837 1e-05
-0.0110111 0.00103974 1e-05
-0.0107632 0.00104111 1e-05
-0.0105252 0.00104244 1e-05
-0.0102873 0.00104377 1e-05
-0.0100493 0.0010451 1e-05
-0.00981133 0.00104644 1e-05
-0.00957337 0.00104777 1e-05
-0.00934491 0.00104905 1e-05
-0.00911645 0.00105034 1e-05
-0.00888799 0.00105162 1e-05
-0.00865954 0.00105291 1e-05
-0.00843108 0.00105419 1e-05
-0.00821175 0.00105542 1e-05
-0.00799242 0.00105665 1e-05
-0.00777309 0.00105788 1e-05
-0.00755376 0.00105911 1e-05
-0.00733443 0.00106034 1e-05
-0.00712387 0.00106151 1e-05
-0.0069133 0.0010627 1e-05
-0.00670273 0.00106388 1e-05
-0.00649217 0.00106506 1e-05
-0.0062816 0.00106624 1e-05
-0.00607944 0.00106736 1e-05
-0.00587729 0.0010685 1e-05
-0.00567514 0.00106963 1e-05
-0.00547298 0.00107077 1e-05
-0.00527083 0.00107191 1e-05
-0.00507675 0.001073 1e-05
-0.00488267 0.00107409 1e-05
-0.0046886 0.0010752 1e-05
-0.00449452 0.0010763 1e-05
-0.00430044 0.00107741 1e-05
-0.00411412 0.00107847 1e-05
-0.0039278 0.00107954 1e-05
-0.00374147 0.00108063 1e-05
-0.00355515 0.00108171 1e-05
-0.00336883 0.00108281 1e-05
-0.00318995 0.00108386 1e-05
-0.00301107 0.00108492 1e-05
-0.00283219 0.001086 1e-05
-0.00265331 0.0010871 1e-05
-0.00247443 0.0010882 1e-05
-0.0023027 0.00108927 1e-05
-0.00213097 0.00109036 1e-05
-0.00195924 0.00109148 1e-05
-0.00178751 0.00109261 1e-05
-0.00161577 0.00109376 1e-05
-0.0014509 0.00109488 1e-05
-0.00128603 0.00109603 1e-05
-0.00112116 0.00109722 1e-05
-0.000956291 0.00109845 1e-05
-0.000791418 0.00109972 1e-05
-0.000633135 0.00110097 1e-05
-0.000474851 0.00110227 1e-05
-0.000316569 0.00110362 1e-05
-0.000158286 0.00110502 1e-05
0 0.00110647 1e-05
0.000105677 0.00110746 1e-05
0.000211355 0.00110847 1e-05
0.000317032 0.0011095 1e-05
0.000422709 0.00111055 1e-05
0.000528387 0.00111162 1e-05
0.000634886 0.0011127 1e-05
0.000741385 0.00111378 1e-05
0.000847884 0.00111487 1e-05
0.000954383 0.00111595 1e-05
0.00106088 0.00111704 1e-05
0.00116821 0.00111814 1e-05
0.00127554 0.00111923 1e-05
0.00138286 0.00112032 1e-05
0.00149019 0.0011214 1e-05
0.00159752 0.00112247 1e-05
0.00170568 0.00112355 1e-05
0.00181384 0.00112462 1e-05
0.001922 0.00112569 1e-05
0.00203016 0.00112676 1e-05
0.00213833 0.00112782 1e-05
0.00224733 0.00112887 1e-05
0.00235633 0.00112993 1e-05
0.00246533 0.00113099 1e-05
0.00257434 0.00113204 1e-05
0.00268334 0.00113309 1e-05
0.00279319 0.00113414 1e-05
0.00290304 0.00113519 1e-05
0.00301289 0.00113624 1e-05
0.00312274 0.00113729 1e-05
0.00323259 0.00113833 1e-05
0.00334329 0.00113937 1e-05
0.003454 0.00114043 1e-05
0.0035647 0.00114148 1e-05
0.0036754 0.00114254 1e-05
0.00378611 0.00114359 1e-05
0.00389767 0.00114465 1e-05
0.00400924 0.00114572 1e-05
0.0041208 0.00114679 1e-05
0.00423237 0.00114787 1e-05
0.00434393 0.00114895 1e-05
0.00445636 0.00115004 1e-05
0.00456879 0.00115114 1e-05
0.00468123 0.00115225 1e-05
0.00479366 0.00115336 1e-05
0.00490609 0.00115448 1e-05
0.0050194 0.0011556 1e-05
0.0051327 0.00115675 1e-05
0.00524601 0.0011579 1e-05
0.00535931 0.00115906 1e-05
0.00547262 0.00116023 1e-05
0.00558681 0.0011614 1e-05
0.005701 0.0011626 1e-05
0.00581518 0.00116381 1e-05
0.00592937 0.00116502 1e-05
0.00604356 0.00116625 1e-05
0.00615863 0.00116747 1e-05
0.00627371 0.00116873 1e-05
0.00638878 0.00117 1e-05
0.00650385 0.00117128 1e-05
0.00661893 0.00117257 1e-05
0.0067349 0.00117386 1e-05
0.00685087 0.00117519 1e-05
0.00696684 0.00117652 1e-05
0.00708281 0.00117787 1e-05
0.00719878 0.00117923 1e-05
0.00731565 0.00118059 1e-05
0.00743252 0.00118199 1e-05
0.00754939 0.00118341 1e-05
0.00766626 0.00118483 1e-05
0.00778313 0.00118627 1e-05
0.00790091 0.0011877 1e-05
0.00801869 0.00118918 1e-05
0.00813647 0.00119068 1e-05
0.00825425 0.00119218 1e-05
0.00837203 0.0011937 1e-05
0.00849073 0.00119522 1e-05
0.00860942 0.00119678 1e-05
0.00872812 0.00119836 1e-05
0.00884681 0.00119995 1e-05
0.00896551 0.00120156 1e-05
0.00908513 0.00120315 1e-05
0.00920475 0.0012048 1e-05
0.00932436 0.00120647 1e-05
0.00944398 0.00120814 1e-05
0.0095636 0.00120984 1e-05
0.00968415 0.00121152 1e-05
0.0098047 0.00121325 1e-05
0.00992525 0.00121501 1e-05
0.0100458 0.00121677 1e-05
0.0101663 0.00121855 1e-05
0.0102878 0.00122031 1e-05
0.0104093 0.00122214 1e-05
0.0105308 0.00122397 1e-05
0.0106523 0.00122582 1e-05
0.0107738 0.00122769 1e-05
0.0108962 0.00122954 1e-05
0.0110186 0.00123145 1e-05
0.0111411 0.00123337 1e-05
0.0112635 0.0012353 1e-05
0.0113859 0.00123725 1e-05
0.0115093 0.00123919 1e-05
0.0116327 0.00124118 1e-05
0.0117561 0.00124319 1e-05
0.0118794 0.0012452 1e-05
0.0120028 0.00124723 1e-05
0.0121272 0.00124925 1e-05
0.0122515 0.00125133 1e-05
0.0123759 0.00125341 1e-05
0.0125002 0.00125551 1e-05
0.0126245 0.00125762 1e-05
0.0127498 0.00125972 1e-05
0.0128752 0.00126187 1e-05
0.0130005 0.00126404 1e-05
0.0131258 0.00126621 1e-05
0.0132511 0.0012684 1e-05
0.0133774 0.00127058 1e-05
0.0135036 0.0012728 1e-05
0.0136299 0.00127504 1e-05
0.0137562 0.00127729 1e-05
0.0138825 0.00127955 1e-05
0.0140098 0.00128181 1e-05
0.014137 0.0012841 1e-05
0.0142643 0.00128641 1e-05
0.0143915 0.00128873 1e-05
0.0145188 0.00129106 1e-05
0.0146471 0.00129339 1e-05
0.0147753 0.00129576 1e-05
0.0149036 0.00129813 1e-05
0.0150318 0.00130052 1e-05
0.0151601 0.00130292 1e-05
0.0152893 0.00130532 1e-05
0.0154186 0.00130775 1e-05
0.0155478 0.0013102 1e-05
0.0156771 0.00131265 1e-05
0.0158063 0.00131511 1e-05
0.0159366 0.00131759 1e-05
0.0160668 0.00132008 1e-05
0.0161971 0.00132259 1e-05
0.0163273 0.00132511 1e-05
0.0164576 0.00132763 1e-05
0.0165889 0.00133018 1e-05
0.0167201 0.00133273 1e-05
0.0168514 0.0013353 1e-05
0.0169827 0.00133788 1e-05
0.0171139 0.00134047 1e-05
0.0172462 0.00134308 1e-05
0.0173785 0.0013457 1e-05
0.0175108 0.00134833 1e-05
0.0176431 0.00135096 1e-05
0.0177754 0.00135361 1e-05
0.0179087 0.00135628 1e-05
0.018042 0.00135896 1e-05
0.0181753 0.00136165 1e-05
0.0183087 0.00136434 1e-05
0.018442 0.00136704 1e-05
0.0185763 0.00136977 1e-05
0.0187107 0.00137251 1e-05
0.018845 0.00137524 1e-05
0.0189794 0.00137798 1e-05
0.0191137 0.00138073 1e-05
0.0192491 0.00138352 1e-05
0.0193845 0.0013863 1e-05
0.0195199 0.00138908 1e-05
0.0196553 0.00139187 1e-05
0.0197907 0.00139467 1e-05
0.0199272 0.00139751 1e-05
0.0200636 0.00140033 1e-05
0.0202001 0.00140315 1e-05
0.0203365 0.00140598 1e-05
0.020473 0.00140882 1e-05
0.0206105 0.0014117 1e-05
0.020748 0.00141457 1e-05
0.0208855 0.00141743 1e-05
0.021023 0.00142029 1e-05
0.0211606 0.00142317 1e-05
0.0212991 0.00142609 1e-05
0.0214377 0.001429 1e-05
0.0215763 0.00143189 1e-05
0.0217149 0.00143479 1e-05
0.0218535 0.0014377 1e-05
0.0219931 0.00144066 1e-05
0.0221328 0.0014436 1e-05
0.0222724 0.00144652 1e-05
0.0224121 0.00144945 1e-05
0.0225517 0.0014524 1e-05
0.0226925 0.00145539 1e-05
0.0228332 0.00145835 1e-05
0.022974 0.00146131 1e-05
0.0231147 0.00146426 1e-05
0.0232555 0.00146723 1e-05
0.0233973 0.00147024 1e-05
0.0235391 0.00147323 1e-05
0.023681 0.0014762 1e-05
0.0238228 0.00147917 1e-05
0.0239647 0.00148216 1e-05
0.0241076 0.00148519 1e-05
0.0242505 0.00148819 1e-05
0.0243935 0.00149117 1e-05
0.0245364 0.00149415 1e-05
0.0246794 0.00149715 1e-05
0.0248234 0.00150019 1e-05
0.0249675 0.0015032 1e-05
0.0251115 0.00150619 1e-05
0.0252556 0.00150918 1e-05
0.0253996 0.00151218 1e-05
0.0255448 0.00151523 1e-05
0.02569 0.00151825 1e-05
0.0258351 0.00152124 1e-05
0.0259803 0.00152423 1e-05
0.0261255 0.00152724 1e-05
[...]
POINT_DATA 12069
 FIELD attributes 1
U 3 12069 float
10.0004 	0.00735889 	0 10.0004 	0.00588711 	0 10.0003 	0.00441533 	0 10.0002 	0.00294356 	0 10.0001 	0.00147178 	0 10 	0 	0
10 	0.000921553 	0 10 	0.000737242 	0 10 	0.000552932 	0 10 	0.000368621 	0 10 	0.000184311 	0 10 	0 	0
10.0001 	0.000530395 	0 10.0001 	0.000424194 	0 10 	0.000317992 	0 10 	0.000211791 	0 10 	0.000105589 	0 10 	0 	0
10 	0.000354431 	0 10 	0.000283545 	0 10 	0.000212659 	0 10 	0.000141773 	0 10 	7.08863e-05 	0 10 	0 	0
10 	0.000174858 	0 10 	0.000139886 	0 10 	0.000104915 	0 10 	6.99431e-05 	0 10 	3.49715e-05 	0 10 	0 	0
10 	6.38502e-05 	0 10 	5.10802e-05 	0 10 	3.83101e-05 	0 10 	2.55401e-05 	0 10 	1.277e-05 	0 10 	0 	0
10 	-0.000145343 	0 10 	-0.000116275 	0 10 	-8.72061e-05 	0 10 	-5.81374e-05 	0 10 	-2.90687e-05 	0 10 	0 	0
10 	-0.000327652 	0 10 	-0.000262121 	0 10 	-0.000196591 	0 10 	-0.000131061 	0 10 	-6.55303e-05 	0 10 	0 	0
9.99999 	-0.000395027 	0 9.99999 	-0.000316021 	0 10 	-0.000237016 	0 10 	-0.000158011 	0 10 	-7.90053e-05 	0 10 	0 	0
9.17388 	0.0871308 	0 9.13081 	0.0697046 	0 9.08741 	0.0522782 	0 9.04369 	0.0348515 	0 8.99963 	0.0174247 	0 8.95524 	0 	0
10.0004 	0.00735889 	0 10.0024 	0.0152537 	0 10.0044 	0.0223122 	0 10.0064 	0.029326 	0 10.0085 	0.0362954 	0 10.0134 	0.0465194 	0 10.0162 	0.0404423 	0 10.0206 	0.0404339 	0 10.0249 	0.0404256 	0 10.0293 	0.0404174 	0 10.0352 	0.0449015 	0 10.0379 	0.0383303 	0 10.0418 	0.0383323 	0 10.0456 	0.0383344 	0 10.0495 	0.0383364 	0 10.0535 	0.0414475 	0 10.0555 	0.0394588 	0 10.0578 	0.040822 	0 10.0601 	0.0421869 	0 10.0624 	0.0435536 	0 10.0644 	0.0460216 	0 10.0656 	0.0461665 	0 10.0667 	0.0473621 	0 10.0678 	0.0485588 	0 10.0688 	0.0497566 	0 10.0697 	0.0507698 	0 10.0698 	0.0509052 	0 10.07 	0.0510406 	0 10.0701 	0.051176 	0 10.0702 	0.0513114 	0 10.0703 	0.0514273 	0 10.0706 	0.0521373 	0 10.0709 	0.0528343 	0 10.0711 	0.0535318 	0 10.0714 	0.05423 	0 10.0716 	0.0547532 	0 10.0712 	0.0551466 	0 10.0705 	0.0554267 	0 10.0698 	0.0557069 	0 10.0692 	0.0559873 	0 10.0683 	0.0560206 	0 10.0675 	0.0562806 	0 10.066 	0.0563632 	0 10.0646 	0.0564458 	0 10.0631 	0.0565284 	0 10.0611 	0.0563361 	0 10.0603 	0.0565512 	0 10.0583 	0.0565421 	0 10.0562 	0.0565331 	0 10.0541 	0.056524 	0 10.051 	0.0562275 	0 10.0506 	0.0564473 	0 10.048 	0.0564073 	0 10.0454 	0.0563673 	0 10.0428 	0.0563272 	0 10.0386 	0.055994 	0 10.0388 	0.0562629 	0 10.0358 	0.0562454 	0 10.0328 	0.056228 	0 10.0299 	0.0562106 	0 10.0244 	0.055899 	0 10.0254 	0.0562589 	0 10.0221 	0.0563043 	0 10.0188 	0.0563496 	0 10.0155 	0.056395 	0 10.0087 	0.0561394 	0 10.0106 	0.0566233 	0 10.0071 	0.0567807 	0 10.0035 	0.0569383 	0 9.9999 	0.0570959 	0 9.99175 	0.0569617 	0 9.99484 	0.05763 	0 9.99099 	0.0579471 	0 9.98714 	0.0582643 	0 9.9833 	0.0585817 	0 9.9736 	0.0586071 	0 9.97793 	0.0595437 	0 9.9739 	0.060211 	0 9.96987 	0.0608784 	0 9.96585 	0.0615461 	0 9.95468 	0.0620016 	0 9.9605 	0.0634408 	0 9.95629 	0.0645253 	0 9.95209 	0.0656102 	0 9.94789 	0.0666955 	0 9.93507 	0.0674803 	0 9.94261 	0.0694813 	0 9.93873 	0.0717281 	0 9.93486 	0.0739753 	0 9.93102 	0.0762231 	0 9.91723 	0.0784039 	0 9.92743 	0.0816825 	2.64187e-22 9.92532 	0.084716 	4.94516e-21 9.92324 	0.0877502 	9.62318e-21 9.92118 	0.0907852 	1.42982e-20 9.90762 	0.0927678 	1.0952e-20 9.92043 	0.0952198 	9.70842e-20 9.91978 	0.096799 	9.23676e-20 9.919 	0.0983695 	8.67403e-20 9.91821 	0.0999382 	8.09771e-20 9.90472 	0.100338 	-1.56837e-20 9.91903 	0.101072 	-4.41737e-20 9.91842 	0.101139 	-4.87143e-20 9.91782 	0.101207 	-5.32552e-20 9.91722 	0.101274 	-5.77965e-20 9.9028 	0.100959 	-1.74e-20 9.91727 	0.101011 	-1.59757e-20 9.91551 	0.100412 	-1.06947e-20 9.91375 	0.0998124 	-5.41413e-21 9.91199 	0.099213 	-1.33979e-22 9.89577 	0.0984952 	9.00313e-21 9.91033 	0.0986798 	-5.58974e-22 9.90737 	0.0980648 	-1.78208e-20 9.9044 	0.0974496 	-3.50839e-20 9.90143 	0.0968344 	-5.23485e-20 9.88329 	0.095876 	-8.01385e-20 9.89832 	0.0963292 	-1.36107e-19 9.89435 	0.0958842 	-1.25074e-19 9.89038 	0.095439 	-1.14038e-19 9.8864 	0.0949937 	-1.02998e-19 9.8663 	0.0939967 	-2.5666e-20 9.88217 	0.0946393 	6.33225e-20 9.87727 	0.0943633 	7.65816e-20 9.87237 	0.0940872 	8.98379e-20 9.86748 	0.0938111 	1.03092e-19 9.84523 	0.0929535 	3.26508e-20 9.86229 	0.0939037 	-9.99218e-20 9.85651 	0.0938574 	-1.06726e-19 9.85074 	0.0938111 	-1.13531e-19 9.84496 	0.0937648 	-1.20336e-19 9.82029 	0.0930612 	-2.37667e-23 9.83891 	0.0944667 	1.19289e-19 9.8323 	0.0946704 	1.11934e-19 9.8257 	0.0948743 	1.04585e-19 9.8191 	0.0950783 	9.72415e-20 9.7917 	0.0943965 	-1.5576e-20 9.81221 	0.096265 	-1.04015e-19 9.80482 	0.096661 	-1.25402e-19 9.79743 	0.0970573 	-1.46792e-19 9.79004 	0.0974539 	-1.68187e-19 9.7596 	0.0966773 	-1.03808e-19 9.78223 	0.0989755 	-1.69162e-19 9.77405 	0.0995065 	-1.57992e-19 9.76588 	0.100038 	-1.46827e-19 9.75772 	0.10057 	-1.35665e-19 9.72397 	0.099641 	-5.70556e-20 9.7489 	0.102351 	-5.49113e-20 9.73996 	0.10299 	-3.74825e-20 9.73103 	0.103629 	-2.00519e-20 9.72211 	0.104269 	-2.61943e-21 9.6849 	0.103168 	8.19866e-21 9.71227 	0.106285 	0 9.70263 	0.107012 	0 9.69301 	0.10774 	0 9.6834 	0.108468 	0 9.6426 	0.107172 	0 9.67256 	0.11068 	-2.77013e-21 9.66232 	0.111477 	-1.98941e-20 9.65209 	0.112276 	-3.70158e-20 9.64188 	0.113076 	-5.41352e-20 9.59745 	0.111567 	-8.06623e-20 9.63007 	0.115456 	-1.31345e-19 9.6193 	0.116313 	-1.32596e-19 9.60856 	0.117172 	-1.33855e-19 9.59783 	0.118031 	-1.35121e-19 9.54977 	0.116282 	-8.45768e-20 9.58504 	0.120527 	1.73392e-20 9.57384 	0.121422 	4.57634e-20 9.56267 	0.122319 	7.42021e-20 9.55152 	0.123217 	1.02656e-19 9.4999 	0.121193 	4.35174e-20 9.53767 	0.125725 	1.07594e-19 9.52614 	0.126635 	1.08895e-19 9.51464 	0.127546 	1.10205e-19 9.50316 	0.128458 	1.11526e-19 9.44821 	0.126165 	4.70494e-20 9.48822 	0.130914 	3.49065e-20 9.47644 	0.131818 	2.37954e-20 9.46469 	0.132724 	1.26826e-20 9.45297 	0.133631 	1.56798e-21 9.39502 	0.131091 	0 9.4369 	0.135976 	-1.49299e-21 9.42497 	0.136858 	-1.23327e-20 9.41306 	0.137742 	-2.31707e-20 9.40118 	0.138628 	-3.4007e-20 9.34071 	0.135885 	-4.58788e-20 9.38404 	0.140826 	-1.13215e-19 9.37204 	0.14168 	-1.20377e-19 9.36007 	0.142535 	-1.27548e-19 9.34813 	0.143393 	-1.34729e-19 9.28569 	0.140505 	-6.39371e-20 9.32994 	0.145426 	2.26498e-20 9.31796 	0.146243 	3.43466e-20 9.30601 	0.147063 	4.60604e-20 9.29409 	0.147884 	5.77913e-20 9.23033 	0.144907 	-2.65125e-20 9.27494 	0.149722 	-2.06129e-20 9.26306 	0.1505 	-1.38623e-20 9.25121 	0.151281 	-7.11075e-21 9.23939 	0.152063 	-3.58193e-22 9.17499 	0.149071 	-9.59663e-21 9.21938 	0.153697 	0 9.20766 	0.154428 	0 9.19597 	0.155162 	0 9.18431 	0.155897 	0 9.11996 	0.152956 	0 9.16347 	0.157305 	6.29068e-23 9.15197 	0.157984 	6.6237e-21 9.1405 	0.158664 	1.31836e-20 9.12836 	0.1593 	1.95948e-20 9.06552 	0.156534 	1.52276e-20 9.10621 	0.160429 	-6.71109e-20 9.09638 	0.161156 	-7.03016e-20 9.08517 	0.161796 	-7.12845e-20 9.07147 	0.162279 	-6.79812e-20 9.01185 	0.159855 	1.42189e-20 9.04871 	0.163198 	1.84259e-20 9.04096 	0.163985 	1.3267e-20 9.03001 	0.164589 	7.43044e-21 9.01491 	0.164953 	-7.13017e-22 8.95903 	0.162951 	-3.14127e-20 8.99179 	0.165726 	-8.75267e-20 8.98594 	0.166537 	-9.52334e-20 8.9753 	0.167105 	-9.69359e-20 8.95907 	0.167383 	-8.944e-20 8.90729 	0.165821 	-2.37411e-20 8.93584 	0.168038 	8.28255e-20 8.93163 	0.168826 	9.44297e-20 8.92135 	0.169351 	8.84303e-20 8.90429 	0.169572 	7.0451e-20 8.85683 	0.16843 	-1.05038e-21 8.88126 	0.170109 	7.06773e-20 8.87841 	0.170848 	8.6854e-20 8.86854 	0.171344 	8.87096e-20 8.85097 	0.171558 	7.12335e-20 8.80786 	0.170834 	-1.03333e-20 8.82842 	0.172017 	-1.46432e-20 8.82664 	0.172672 	-1.09876e-20 8.81717 	0.173145 	-4.58903e-21 8.79937 	0.173389 	-5.82853e-21 8.76039 	0.173051 	-2.64346e-20 8.77732 	0.173758 	-6.24831e-21 8.7763 	0.174273 	0 8.76725 	0.174704 	0 8.7495 	0.174994 	-6.98793e-21 8.71451 	0.175003 	-2.77863e-20 8.72828 	0.175286 	-7.43114e-21 8.72782 	0.175626 	0 8.71919 	0.175999 	0 8.70165 	0.176334 	0 8.67023 	0.176608 	0 8.68114 	0.176508 	0 8.681 	0.176635 	3.55129e-21 8.6728 	0.176927 	9.7004e-21 8.65569 	0.1773 	2.02176e-20 8.62759 	0.177771 	3.61246e-20 8.6362 	0.177372 	-6.53283e-20 8.63632 	0.177301 	-1.14898e-19 8.62855 	0.177536 	-1.16296e-19 8.61192 	0.177969 	-7.59333e-20 8.58664 	0.178598 	5.26251e-21 8.59327 	0.177958 	9.48772e-21 8.59348 	0.177701 	8.92684e-21 8.58612 	0.177897 	2.70773e-21 8.57005 	0.178408 	-1.17554e-20 8.54728 	0.179164 	-3.25776e-20 8.55224 	0.178317 	-1.22541e-20 8.55246 	0.177861 	1.98136e-21 8.54551 	0.178003 	6.97074e-21 8.53005 	0.178581 	1.87589e-20 8.50951 	0.179421 	3.46365e-20 8.51305 	0.178407 	1.04361e-19 8.5132 	0.177765 	1.51282e-19 8.50664 	0.177866 	1.52976e-19 8.49187 	0.178519 	1.0582e-19 8.47334 	0.179429 	3.61864e-20 8.47568 	0.178328 	-6.4793e-20 8.47568 	0.177542 	-1.37177e-19 8.46956 	0.177602 	-1.33305e-19 8.45555 	0.178284 	-6.05133e-20 8.43887 	0.17918 	3.57832e-20 8.44019 	0.177982 	1.09408e-19 8.44001 	0.177031 	1.67678e-19 8.43431 	0.177013 	1.68181e-19 8.42108 	0.177679 	1.25074e-19 8.40607 	0.17851 	7.15159e-20 8.40651 	0.177183 	4.03587e-20 8.40608 	0.176035 	7.49849e-21 8.40078 	0.175933 	-3.52039e-20 8.38835 	0.176606 	-4.21504e-20 8.37485 	0.177398 	-4.36214e-20 8.37454 	0.17598 	-1.24717e-19 8.37379 	0.174669 	-1.98907e-19 8.36887 	0.174519 	-1.98829e-19 8.35727 	0.175233 	-1.50769e-19 8.34518 	0.176015 	-9.89594e-20 8.34422 	0.174555 	-1.50201e-19 8.34314 	0.173123 	-1.99472e-19 8.3386 	0.172942 	-1.68235e-19 8.32786 	0.173682 	-8.45881e-20 8.31707 	0.174436 	-2.47361e-22 8.3156 	0.172942 	8.37417e-20 8.31408 	0.171445 	1.67731e-19 8.30976 	0.171204 	1.6829e-19 8.30014 	0.17188 	9.45877e-20 8.29055 	0.172557 	2.0889e-20 8.28865 	0.170977 	1.0803e-20 8.28669 	0.169394 	7.13893e-22 8.28257 	0.169071 	1.84594e-20 8.27404 	0.169717 	3.95814e-20 8.26555 	0.170364 	6.06999e-20 8.26328 	0.168757 	2.04899e-19 8.26097 	0.167148 	3.49105e-19 8.25703 	0.166746 	3.46293e-19 8.24954 	0.167306 	1.81093e-19 8.24207 	0.167867 	1.58921e-20 8.2395 	0.166215 	1.42245e-20 8.23688 	0.164562 	1.25687e-20 8.23313 	0.164049 	-1.2151e-20 8.22661 	0.164469 	-4.29536e-20 8.22011 	0.16489 	-7.37565e-20 8.21729 	0.163112 	-2.0717e-19 8.21441 	0.161332 	-3.40581e-19 8.21084 	0.160693 	-3.22998e-19 8.20524 	0.161025 	-1.38621e-19 8.19964 	0.161357 	4.57516e-20 8.19662 	0.159479 	2.60152e-20 8.19353 	0.157598 	6.27217e-21 8.19015 	0.156844 	7.19286e-21 8.18543 	0.15708 	1.77751e-20 8.18071 	0.157316 	2.83563e-20 8.1775 	0.155353 	1.761e-20 8.17424 	0.153388 	6.86719e-21 8.17108 	0.152513 	5.7815e-21 8.16724 	0.152622 	5.91511e-21 8.1634 	0.152732 	6.04738e-21 8.16008 	0.150656 	1.66826e-19 8.15669 	0.148578 	3.27621e-19 8.15378 	0.147569 	3.35892e-19 8.15079 	0.147554 	1.94342e-19 8.1478 	0.147539 	5.27975e-20 8.14441 	0.145329 	3.22235e-20 8.14096 	0.143116 	1.16576e-20 8.13832 	0.141959 	0 8.13616 	0.141809 	0 8.13399 	0.141659 	0 8.1306 	0.139294 	0 8.12715 	0.136927 	0 8.12481 	0.135601 	-1.43695e-21 8.12339 	0.135294 	-1.61078e-21 8.12197 	0.134988 	-1.78668e-21 8.11859 	0.132455 	-1.59814e-19 8.11514 	0.129921 	-3.17861e-19 8.11309 	0.128409 	-3.28137e-19 8.11243 	0.127922 	-1.88916e-19 8.11175 	0.127435 	-4.97056e-20 8.10842 	0.12472 	-1.87224e-19 8.105 	0.122004 	-3.24772e-19 8.10327 	0.120292 	-3.35007e-19 8.10332 	0.119602 	-2.16379e-19 8.10335 	0.118912 	-9.77614e-20 8.10005 	0.115999 	-2.14924e-19 8.09667 	0.113085 	-3.32108e-19 8.09528 	0.11116 	-3.18605e-19 8.09605 	0.110252 	-1.71301e-19 8.0968 	0.109345 	-2.40018e-20 8.09358 	0.106215 	2.19172e-19 8.09026 	0.103084 	4.62353e-19 8.08926 	0.100933 	4.72451e-19 8.09074 	0.0997912 	2.48189e-19 8.0922 	0.0986492 	2.39431e-20 8.0891 	0.0952761 	1.42094e-20 8.08591 	0.0919015 	4.49455e-21 8.08533 	0.0894993 	-9.2729e-21 8.08749 	0.0880923 	-2.83958e-20 8.08962 	0.0866848 	-4.75231e-20 8.08669 	0.0830382 	-1.81877e-19 8.08365 	0.0793903 	-3.16246e-19 8.08353 	0.076713 	-2.979e-19 8.08633 	0.0750084 	-1.25417e-19 8.08908 	0.0733035 	4.70516e-20 8.08634 	0.0693609 	1.8016e-19 8.0835 	0.0654173 	3.13254e-19 8.08387 	0.0624424 	3.3285e-19 8.08724 	0.0604033 	2.37814e-19 8.09056 	0.058364 	1.42774e-19 8.08806 	0.0540975 	2.37115e-19 8.08544 	0.0498303 	3.31441e-19 8.08633 	0.0465298 	3.18147e-19 8.09023 	0.0441119 	1.94616e-19 8.09405 	0.041694 	7.10843e-20 8.09182 	0.0370663 	4.21363e-20 8.08946 	0.0324383 	1.318e-20 8.09091 	0.0287898 	-6.00057e-21 8.09525 	0.0259673 	-1.52451e-20 8.09953 	0.0231449 	-2.44946e-20 8.09759 	0.0181366 	-1.64805e-19 8.09552 	0.0131286 	-3.05126e-19 8.09755 	0.00912816 	-3.07701e-19 8.10227 	0.00589528 	-1.5835e-19 8.10691 	0.00266299 	-9.02491e-21 8.10528 	-0.00272871 	-1.0344e-20 8.10351 	-0.00811948 	-1.17028e-20 8.10615 	-0.0124654 	-1.21441e-20 8.11115 	-0.016097 	-1.20429e-20 8.11607 	-0.0197276 	-1.1968e-20 8.11476 	-0.0254737 	-1.6127e-19 8.11331 	-0.0312181 	-3.10614e-19 8.11658 	-0.0359758 	-3.11773e-19 8.12175 	-0.0401674 	-1.64027e-19 8.12682 	-0.0443574 	-1.63088e-20 8.12583 	-0.0506041 	1.28779e-19 8.12503 	-0.056782 	2.64592e-19 8.1287 	-0.0620756 	2.77918e-19 8.13363 	-0.0669609 	1.47917e-19 8.13862 	-0.0717952 	5.74652e-22 8.13771 	-0.0786477 	-1.46138e-19 8.13775 	-0.0852792 	-2.5815e-19 8.14139 	-0.0911785 	-2.5399e-19 8.14598 	-0.0967402 	-1.48435e-19 8.15088 	-0.102166 	-2.30706e-21 8.15001 	-0.109561 	-1.70519e-21 8.15096 	-0.116591 	-4.86727e-21 8.15454 	-0.123109 	-1.33361e-20 8.15872 	-0.129412 	-4.29401e-21 8.1635 	-0.135506 	2.19627e-20 8.16273 	-0.143487 	-8.52664e-21 8.16467 	-0.150974 	-2.04133e-20 8.16815 	-0.158166 	-2.12429e-20 8.17181 	-0.16526 	-1.96967e-20 8.17632 	-0.172087 	-1.12592e-20 8.1756 	-0.180732 	-2.2632e-20 8.17849 	-0.188752 	-2.49652e-20 8.18178 	-0.196672 	-2.59489e-20 8.1849 	-0.204585 	-2.69595e-20 8.18896 	-0.21218 	-5.30088e-20 8.18879 	-0.22144 	-2.91215e-20 8.19195 	-0.230137 	-3.01957e-20 8.19493 	-0.238825 	-3.12993e-20 8.19772 	-0.247505 	-3.24324e-20 8.20092 	-0.255985 	-5.00149e-20 8.20174 	-0.265813 	-3.06667e-20 8.20447 	-0.275305 	-2.24611e-20 8.20701 	-0.284788 	-1.4272e-20 8.20934 	-0.294262 	-6.09926e-21 8.21165 	-0.303656 	0 8.21232 	-0.309975 	0 8.21368 	-0.316177 	0 8.21496 	-0.322374 	0 8.21616 	-0.328568 	0 8.21712 	-0.33385 	0 8.21772 	-0.338104 	0 8.21829 	-0.342355 	0 8.21883 	-0.346603 	0 8.21932 	-0.35085 	0 8.22058 	-0.355055 	0 8.22165 	-0.36615 	1.28243e-20 8.22282 	-0.377215 	2.8822e-20 8.22375 	-0.388265 	4.47795e-20 8.22444 	-0.399302 	6.06969e-20 8.22756 	-0.410223 	8.81941e-20 8.22715 	-0.42222 	1.62308e-19 8.22745 	-0.434134 	1.49448e-19 8.2275 	-0.446033 	1.36911e-19 8.22757 	-0.457908 	1.15851e-19 8.23122 	-0.469656 	-3.02275e-20 8.22977 	-0.482556 	-2.38505e-19 8.22872 	-0.495363 	-3.38536e-19 8.22773 	-0.508115 	-3.84937e-19 8.22862 	-0.520799 	-3.16277e-19 8.23083 	-0.533441 	-1.63158e-19 8.22856 	-0.54723 	-3.15543e-19 8.22601 	-0.561 	-4.67891e-19 8.22424 	-0.574593 	-4.40582e-19 8.22508 	-0.588109 	-2.27151e-19 8.22566 	-0.601622 	-1.34696e-20 8.22241 	-0.616295 	1.38051e-19 8.21887 	-0.630948 	2.8959e-19 8.21721 	-0.6455 	3.18704e-19 8.21625 	-0.659837 	2.05769e-19 8.21501 	-0.674174 	9.28314e-20 8.2106 	-0.689703 	1.46894e-19 8.20685 	-0.705184 	1.70096e-19 8.20431 	-0.7206 	1.43985e-19 8.20143 	-0.735909 	1.11324e-19 8.19815 	-0.751003 	6.18464e-20 8.19259 	-0.767331 	4.10471e-20 8.18855 	-0.783536 	2.47042e-20 8.18421 	-0.799717 	8.39459e-21 8.17955 	-0.815875 	-7.88172e-21 8.17443 	-0.831939 	-1.76754e-20 8.17292 	-0.835651 	-2.06753e-20 8.17166 	-0.839331 	-1.98798e-20 8.17038 	-0.84301 	-1.90851e-20 8.16908 	-0.846688 	-1.82912e-20 8.16783 	-0.850211 	-1.75311e-20 8.16283 	-0.863321 	-1.33475e-20 8.15762 	-0.876414 	-9.15443e-21 8.15222 	-0.889491 	-4.952e-21 8.14661 	-0.902552 	-7.40183e-22 8.14222 	-0.915699 	0 8.1344 	-0.933411 	2.86649e-22 8.12586 	-0.950676 	1.51376e-20 8.11697 	-0.967916 	2.99115e-20 8.10868 	-0.985141 	3.34976e-20 8.10091 	-1.00239 	2.64746e-20 8.09111 	-1.02066 	-1.25979e-19 8.08095 	-1.0389 	-2.78541e-19 8.07057 	-1.05671 	-2.70259e-19 8.06032 	-1.07419 	-9.90541e-20 8.04969 	-1.0917 	7.24634e-20 8.03771 	-1.11035 	1.69584e-19 8.02574 	-1.12885 	2.21836e-19 8.01398 	-1.14717 	2.08507e-19 8.00185 	-1.16545 	1.94641e-19 7.98817 	-1.18303 	7.63148e-20 7.98034 	-1.19329 	6.94003e-20 7.97266 	-1.20329 	6.24549e-20 7.96488 	-1.21328 	5.55322e-20 7.95699 	-1.22325 	4.86351e-20 7.94969 	-1.23235 	4.23657e-20 7.94272 	-1.24086 	3.17959e-20 7.93566 	-1.24938 	2.12098e-20 7.92853 	-1.25788 	1.06074e-20 7.92139 	-1.26638 	9.22381e-22 7.91476 	-1.27481 	-1.4917e-21 7.89868 	-1.29383 	-6.45403e-20 7.88136 	-1.31201 	-8.49505e-20 7.86368 	-1.33017 	-1.05681e-19 7.84637 	-1.34803 	-8.17433e-20 7.82902 	-1.36582 	-3.50145e-20 7.81024 	-1.38462 	-9.1278e-20 7.79107 	-1.40339 	-1.47603e-19 7.7722 	-1.42157 	-1.41048e-19 7.75216 	-1.43883 	-9.75686e-20 7.73139 	-1.45593 	-4.64917e-20 7.71613 	-1.46881 	-8.72933e-20 7.70093 	-1.48119 	-8.49504e-20 7.68565 	-1.49338 	-6.71987e-20 7.67017 	-1.50556 	-4.93321e-20 7.65606 	-1.51653 	-3.31221e-20 7.6489 	-1.522 	-2.48361e-20 7.64171 	-1.52747 	-1.65256e-20 7.63448 	-1.53294 	-8.19051e-21 7.62713 	-1.5383 	-8.10814e-21 7.61959 	-1.54347 	-2.23734e-20 7.59629 	-1.56139 	-1.22625e-20 7.57093 	-1.57817 	-6.65445e-21 7.54518 	-1.59494 	-1.02749e-21 7.51829 	-1.61068 	0 7.49068 	-1.62626 	0 7.46434 	-1.64315 	0 7.43731 	-1.65963 	0 7.40907 	-1.67498 	0 7.38043 	-1.69031 	0 7.3501 	-1.70496 	0 7.34536 	-1.70746 	0 7.34051 	-1.70983 	1.52122e-23 7.33555 	-1.71205 	4.68676e-23 7.33058 	-1.71427 	7.85391e-23 7.3257 	-1.71645 	1.09605e-22 7.30147 	-1.72882 	1.76304e-22 7.277 	-1.74118 	2.42452e-22 7.25227 	-1.75354 	3.08044e-22 7.22585 	-1.7652 	-1.56851e-21 7.19751 	-1.77617 	-5.51694e-21 7.16865 	-1.7906 	-3.03343e-20 7.13942 	-1.80502 	-5.51532e-20 7.10703 	-1.81792 	-3.99611e-20 7.07146 	-1.82939 	-6.26212e-21 7.03463 	-1.84062 	3.0065e-20 7.02169 	-1.84574 	1.14878e-20 7.00811 	-1.85051 	6.6716e-21 6.9936 	-1.85477 	2.17837e-20 6.97903 	-1.85902 	3.69526e-20 6.96503 	-1.86309 	5.15281e-20 6.94482 	-1.87006 	8.81766e-20 6.92449 	-1.87702 	1.25043e-19 6.90404 	-1.88399 	1.62129e-19 6.88224 	-1.89022 	1.36847e-19 6.85929 	-1.8959 	6.32803e-20 6.82609 	-1.90688 	-7.06689e-21 6.79252 	-1.91785 	-7.73569e-20 6.75567 	-1.92706 	-9.76628e-20 6.71526 	-1.93438 	-6.80284e-20 6.67421 	-1.94176 	-3.81559e-20 6.65627 	-1.94619 	-6.86389e-20 6.63763 	-1.95019 	-7.97244e-20 6.61775 	-1.95341 	-5.4494e-20 6.59778 	-1.95664 	-2.91762e-20 6.57864 	-1.95971 	-4.92388e-21 6.55959 	-1.96362 	2.02789e-20 6.54044 	-1.96753 	4.55732e-20 6.52122 	-1.97144 	7.09594e-20 6.50079 	-1.97457 	6.94137e-20 6.47951 	-1.97724 	5.1545e-20 6.44274 	-1.98408 	1.02934e-19 6.40565 	-1.99092 	1.54401e-19 6.36515 	-1.99584 	1.53053e-19 6.32146 	-1.9989 	9.64552e-20 6.27712 	-2.00198 	3.94747e-20 6.25781 	-2.00427 	3.40107e-20 6.23791 	-2.00618 	2.95848e-20 6.21674 	-2.00724 	2.75593e-20 6.19551 	-2.0083 	2.55443e-20 6.17501 	-2.00931 	2.36165e-20 6.15433 	-2.01105 	1.67425e-20 6.13358 	-2.0128 	9.86111e-21 6.11275 	-2.01455 	2.97219e-21 6.09068 	-2.01541 	1.23168e-20 6.06785 	-2.01582 	2.99695e-20 6.02848 	-2.0183 	-3.55349e-20 5.98881 	-2.02079 	-1.00895e-19 5.94617 	-2.02146 	-9.91371e-20 5.90025 	-2.02024 	-2.91178e-20 5.85371 	-2.01902 	4.14642e-20 5.83603 	-2.0192 	4.22692e-20 5.81793 	-2.01909 	4.40043e-20 5.79876 	-2.01823 	4.82611e-20 5.77954 	-2.01736 	5.25326e-20 5.76081 	-2.01651 	5.66994e-20 5.73652 	-2.01602 	6.17738e-20 5.71214 	-2.01553 	6.68729e-20 5.68768 	-2.01504 	7.19971e-20 5.6619 	-2.01353 	6.12237e-20 5.63535 	-2.01154 	4.31764e-20 5.5944 	-2.00988 	2.54569e-20 5.5532 	-2.00821 	7.73548e-21 5.50971 	-2.00488 	-2.79033e-23 5.46301 	-1.99981 	-1.601e-21 5.41556 	-1.99463 	-3.04897e-21 5.40154 	-1.99349 	-1.98902e-20 5.38725 	-1.99216 	-2.95527e-20 5.37223 	-1.99027 	-1.74345e-20 5.35718 	-1.98837 	-5.29872e-21 5.34238 	-1.9865 	6.63735e-21 5.31362 	-1.98331 	2.66799e-20 5.28478 	-1.98013 	4.67797e-20 5.25583 	-1.97694 	6.69376