# vtk DataFile Version 2.0
track0
ASCII
DATASET POLYDATA
POINTS 12069 float
-0.0205 0.001 1e-05
-0.02052 0.000999985 1e-05
-0.02054 0.000999974 1e-05
-0.02056 0.000999965 1e-05
-0.02058 0.000999959 1e-05
-0.0206 0.000999956 1e-05
-0.0205 0.00367778 1e-05
-0.02052 0.00367778 1e-05
-0.02054 0.00367777 1e-05
-0.02056 0.00367777 1e-05
-0.02058 0.00367777 1e-05
-0.0206 0.00367777 1e-05
-0.0205 0.00635556 1e-05
-0.02052 0.00635555 1e-05
-0.02054 0.00635555 1e-05
-0.02056 0.00635555 1e-05
-0.02058 0.00635555 1e-05
-0.0206 0.00635555 1e-05
-0.0205 0.00903333 1e-05
-0.02052 0.00903333 1e-05
-0.02054 0.00903333 1e-05
-0.02056 0.00903333 1e-05
-0.02058 0.00903333 1e-05
-0.0206 0.00903333 1e-05
-0.0205 0.0117111 1e-05
-0.02052 0.0117111 1e-05
-0.02054 0.0117111 1e-05
-0.02056 0.0117111 1e-05
-0.02058 0.0117111 1e-05
-0.0206 0.0117111 1e-05
-0.0205 0.0143889 1e-05
-0.02052 0.0143889 1e-05
-0.02054 0.0143889 1e-05
-0.02056 0.0143889 1e-05
-0.02058 0.0143889 1e-05
-0.0206 0.0143889 1e-05
-0.0205 0.0170667 1e-05
-0.02052 0.0170667 1e-05
-0.02054 0.0170667 1e-05
-0.02056 0.0170667 1e-05
-0.02058 0.0170667 1e-05
-0.0206 0.0170667 1e-05
-0.0205 0.0197444 1e-05
-0.02052 0.0197444 1e-05
-0.02054 0.0197444 1e-05
-0.02056 0.0197444 1e-05
-0.02058 0.0197444 1e-05
-0.0206 0.0197444 1e-05
-0.0205 0.0224222 1e-05
-0.02052 0.0224222 1e-05
-0.02054 0.0224222 1e-05
-0.02056 0.0224222 1e-05
-0.02058 0.0224222 1e-05
-0.0206 0.0224222 1e-05
-0.0205 0.0251 1e-05
-0.02052 0.0250998 1e-05
-0.02054 0.0250997 1e-05
-0.02056 0.0250995 1e-05
-0.02058 0.0250995 1e-05
-0.0206 0.0250994 1e-05
-0.0205 0.001 1e-05
-0.0202034 0.00100022 1e-05
-0.0199069 0.00100067 1e-05
-0.0196103 0.00100133 1e-05
-0.0193137 0.0010022 1e-05
-0.0190172 0.00100328 1e-05
-0.0187132 0.00100469 1e-05
-0.0184093 0.00100592 1e-05
-0.0181054 0.00100714 1e-05
-0.0178015 0.00100837 1e-05
-0.0174976 0.00100959 1e-05
-0.0172058 0.0010109 1e-05
-0.016914 0.00101201 1e-05
-0.0166222 0.00101313 1e-05
-0.0163305 0.00101424 1e-05
-0.0160387 0.00101535 1e-05
-0.0157586 0.00101651 1e-05
-0.0154784 0.00101761 1e-05
-0.0151983 0.00101874 1e-05
-0.0149182 0.00101992 1e-05
-0.0146381 0.00102113 1e-05
-0.0143894 0.00102227 1e-05
-0.0141406 0.00102341 1e-05
-0.0138919 0.00102458 1e-05
-0.0136432 0.00102578 1e-05
-0.013433 0.00102682 1e-05
-0.0134051 0.00102696 1e-05
-0.0133772 0.0010271 1e-05
-0.0133493 0.00102724 1e-05
-0.0133214 0.00102738 1e-05
-0.0132934 0.00102752 1e-05
-0.0130353 0.00102884 1e-05
-0.0127771 0.00103018 1e-05
-0.0125189 0.00103153 1e-05
-0.0122607 0.00103291 1e-05
-0.0120025 0.0010343 1e-05
-0.0117547 0.00103564 1e-05
-0.0115068 0.001037 1e-05
-0.0112589 0.00103837 1e-05
-0.0110111 0.00103974 1e-05
-0.0107632 0.00104111 1e-05
-0.0105252 0.00104244 1e-05
-0.0102873 0.00104377 1e-05
-0.0100493 0.0010451 1e-05
-0.00981133 0.00104644 1e-05
-0.00957337 0.00104777 1e-05
-0.00934491 0.00104905 1e-05
-0.00911645 0.00105034 1e-05
-0.00888799 0.00105162 1e-05
-0.00865954 0.00105291 1e-05
-0.00843108 0.00105419 1e-05
-0.00821175 0.00105542 1e-05
-0.00799242 0.00105665 1e-05
-0.00777309 0.00105788 1e-05
-0.00755376 0.00105911 1e-05
-0.00733443 0.00106034 1e-05
-0.00712387 0.00106151 1e-05
-0.0069133 0.0010627 1e-05
-0.00670273 0.00106388 1e-05
-0.00649217 0.00106506 1e-05
-0.0062816 0.00106624 1e-05
-0.00607944 0.00106736 1e-05
-0.00587729 0.0010685 1e-05
-0.00567514 0.00106963 1e-05
-0.00547298 0.00107077 1e-05
-0.00527083 0.00107191 1e-05
-0.00507675 0.001073 1e-05
-0.00488267 0.00107409 1e-05
-0.0046886 0.0010752 1e-05
-0.00449452 0.0010763 1e-05
-0.00430044 0.00107741 1e-05
-0.00411412 0.00107847 1e-05
-0.0039278 0.00107954 1e-05
-0.00374147 0.00108063 1e-05
-0.00355515 0.00108171 1e-05
-0.00336883 0.00108281 1e-05
-0.00318995 0.00108386 1e-05
-0.00301107 0.00108492 1e-05
-0.00283219 0.001086 1e-05
-0.00265331 0.0010871 1e-05
-0.00247443 0.0010882 1e-05
-0.0023027 0.00108927 1e-05
-0.00213097 0.00109036 1e-05
-0.00195924 0.00109148 1e-05
-0.00178751 0.00109261 1e-05
-0.00161577 0.00109376 1e-05
-0.0014509 0.00109488 1e-05
-0.00128603 0.00109603 1e-05
-0.00112116 0.00109722 1e-05
-0.000956291 0.00109845 1e-05
-0.000791418 0.00109972 1e-05
-0.000633135 0.00110097 1e-05
-0.000474851 0.00110227 1e-05
-0.000316569 0.00110362 1e-05
-0.000158286 0.00110502 1e-05
0 0.00110647 1e-05
0.000105677 0.00110746 1e-05
0.000211355 0.00110847 1e-05
0.000317032 0.0011095 1e-05
0.000422709 0.00111055 1e-05
0.000528387 0.00111162 1e-05
0.000634886 0.0011127 1e-05
0.000741385 0.00111378 1e-05
0.000847884 0.00111487 1e-05
0.000954383 0.00111595 1e-05
0.00106088 0.00111704 1e-05
0.00116821 0.00111814 1e-05
0.00127554 0.00111923 1e-05
0.00138286 0.00112032 1e-05
0.00149019 0.0011214 1e-05
0.00159752 0.00112247 1e-05
0.00170568 0.00112355 1e-05
0.00181384 0.00112462 1e-05
0.001922 0.00112569 1e-05
0.00203016 0.00112676 1e-05
0.00213833 0.00112782 1e-05
0.00224733 0.00112887 1e-05
0.00235633 0.00112993 1e-05
0.00246533 0.00113099 1e-05
0.00257434 0.00113204 1e-05
0.00268334 0.00113309 1e-05
0.00279319 0.00113414 1e-05
0.00290304 0.00113519 1e-05
0.00301289 0.00113624 1e-05
0.00312274 0.00113729 1e-05
0.00323259 0.00113833 1e-05
0.00334329 0.00113937 1e-05
0.003454 0.00114043 1e-05
0.0035647 0.00114148 1e-05
0.0036754 0.00114254 1e-05
0.00378611 0.00114359 1e-05
0.00389767 0.00114465 1e-05
0.00400924 0.00114572 1e-05
0.0041208 0.00114679 1e-05
0.00423237 0.00114787 1e-05
0.00434393 0.00114895 1e-05
0.00445636 0.00115004 1e-05
0.00456879 0.00115114 1e-05
0.00468123 0.00115225 1e-05
0.00479366 0.00115336 1e-05
0.00490609 0.00115448 1e-05
0.0050194 0.0011556 1e-05
0.0051327 0.00115675 1e-05
0.00524601 0.0011579 1e-05
0.00535931 0.00115906 1e-05
0.00547262 0.00116023 1e-05
0.00558681 0.0011614 1e-05
0.005701 0.0011626 1e-05
0.00581518 0.00116381 1e-05
0.00592937 0.00116502 1e-05
0.00604356 0.00116625 1e-05
0.00615863 0.00116747 1e-05
0.00627371 0.00116873 1e-05
0.00638878 0.00117 1e-05
0.00650385 0.00117128 1e-05
0.00661893 0.00117257 1e-05
0.0067349 0.00117386 1e-05
0.00685087 0.00117519 1e-05
0.00696684 0.00117652 1e-05
0.00708281 0.00117787 1e-05
0.00719878 0.00117923 1e-05
0.00731565 0.00118059 1e-05
0.00743252 0.00118199 1e-05
0.00754939 0.00118341 1e-05
0.00766626 0.00118483 1e-05
0.00778313 0.00118627 1e-05
0.00790091 0.0011877 1e-05
0.00801869 0.00118918 1e-05
0.00813647 0.00119068 1e-05
0.00825425 0.00119218 1e-05
0.00837203 0.0011937 1e-05
0.00849073 0.00119522 1e-05
0.00860942 0.00119678 1e-05
0.00872812 0.00119836 1e-05
0.00884681 0.00119995 1e-05
0.00896551 0.00120156 1e-05
0.00908513 0.00120315 1e-05
0.00920475 0.0012048 1e-05
0.00932436 0.00120647 1e-05
0.00944398 0.00120814 1e-05
0.0095636 0.00120984 1e-05
0.00968415 0.00121152 1e-05
0.0098047 0.00121325 1e-05
0.00992525 0.00121501 1e-05
0.0100458 0.00121677 1e-05
0.0101663 0.00121855 1e-05
0.0102878 0.00122031 1e-05
0.0104093 0.00122214 1e-05
0.0105308 0.00122397 1e-05
0.0106523 0.00122582 1e-05
0.0107738 0.00122769 1e-05
0.0108962 0.00122954 1e-05
0.0110186 0.00123145 1e-05
0.0111411 0.00123337 1e-05
0.0112635 0.0012353 1e-05
0.0113859 0.00123725 1e-05
0.0115093 0.00123919 1e-05
0.0116327 0.00124118 1e-05
0.0117561 0.00124319 1e-05
0.0118794 0.0012452 1e-05
0.0120028 0.00124723 1e-05
0.0121272 0.00124925 1e-05
0.0122515 0.00125133 1e-05
0.0123759 0.00125341 1e-05
0.0125002 0.00125551 1e-05
0.0126245 0.00125762 1e-05
0.0127498 0.00125972 1e-05
0.0128752 0.00126187 1e-05
0.0130005 0.00126404 1e-05
0.0131258 0.00126621 1e-05
0.0132511 0.0012684 1e-05
0.0133774 0.00127058 1e-05
0.0135036 0.0012728 1e-05
0.0136299 0.00127504 1e-05
0.0137562 0.00127729 1e-05
0.0138825 0.00127955 1e-05
0.0140098 0.00128181 1e-05
0.014137 0.0012841 1e-05
0.0142643 0.00128641 1e-05
0.0143915 0.00128873 1e-05
0.0145188 0.00129106 1e-05
0.0146471 0.00129339 1e-05
0.0147753 0.00129576 1e-05
0.0149036 0.00129813 1e-05
0.0150318 0.00130052 1e-05
0.0151601 0.00130292 1e-05
0.0152893 0.00130532 1e-05
0.0154186 0.00130775 1e-05
0.0155478 0.0013102 1e-05
0.0156771 0.00131265 1e-05
0.0158063 0.00131511 1e-05
0.0159366 0.00131759 1e-05
0.0160668 0.00132008 1e-05
0.0161971 0.00132259 1e-05
0.0163273 0.00132511 1e-05
0.0164576 0.00132763 1e-05
0.0165889 0.00133018 1e-05
0.0167201 0.00133273 1e-05
0.0168514 0.0013353 1e-05
0.0169827 0.00133788 1e-05
0.0171139 0.00134047 1e-05
0.0172462 0.00134308 1e-05
0.0173785 0.0013457 1e-05
0.0175108 0.00134833 1e-05
0.0176431 0.00135096 1e-05
0.0177754 0.00135361 1e-05
0.0179087 0.00135628 1e-05
0.018042 0.00135896 1e-05
0.0181753 0.00136165 1e-05
0.0183087 0.00136434 1e-05
0.018442 0.00136704 1e-05
0.0185763 0.00136977 1e-05
0.0187107 0.00137251 1e-05
0.018845 0.00137524 1e-05
0.0189794 0.00137798 1e-05
0.0191137 0.00138073 1e-05
0.0192491 0.00138352 1e-05
0.0193845 0.0013863 1e-05
0.0195199 0.00138908 1e-05
0.0196553 0.00139187 1e-05
0.0197907 0.00139467 1e-05
0.0199272 0.00139751 1e-05
0.0200636 0.00140033 1e-05
0.0202001 0.00140315 1e-05
0.0203365 0.00140598 1e-05
0.020473 0.00140882 1e-05
0.0206105 0.0014117 1e-05
0.020748 0.00141457 1e-05
0.0208855 0.00141743 1e-05
0.021023 0.00142029 1e-05
0.0211606 0.00142317 1e-05
0.0212991 0.00142609 1e-05
0.0214377 0.001429 1e-05
0.0215763 0.00143189 1e-05
0.0217149 0.00143479 1e-05
0.0218535 0.0014377 1e-05
0.0219931 0.00144066 1e-05
0.0221328 0.0014436 1e-05
0.0222724 0.00144652 1e-05
0.0224121 0.00144945 1e-05
0.0225517 0.0014524 1e-05
0.0226925 0.00145539 1e-05
0.0228332 0.00145835 1e-05
0.022974 0.00146131 1e-05
0.0231147 0.00146426 1e-05
0.0232555 0.00146723 1e-05
0.0233973 0.00147024 1e-05
0.0235391 0.00147323 1e-05
0.023681 0.0014762 1e-05
0.0238228 0.00147917 1e-05
0.0239647 0.00148216 1e-05
0.0241076 0.00148519 1e-05
0.0242505 0.00148819 1e-05
0.0243935 0.00149117 1e-05
0.0245364 0.00149415 1e-05
0.0246794 0.00149715 1e-05
0.0248234 0.00150019 1e-05
0.0249675 0.0015032 1e-05
0.0251115 0.00150619 1e-05
0.0252556 0.00150918 1e-05
0.0253996 0.00151218 1e-05
0.0255448 0.00151523 1e-05
0.02569 0.00151825 1e-05
0.0258351 0.00152124 1e-05
0.0259803 0.00152423 1e-05
0.0261255 0.00152724 1e-05
[...]
POINT_DATA 12069
 FIELD attributes 2
p 1 12069 float
-5.02031 -5.017 -5.01369 -5.01038 -5.00707 -5.00377
-5.18065 -5.18063 -5.18061 -5.1806 -5.18058 -5.18056
-5.36954 -5.36942 -5.36931 -5.3692 -5.36908 -5.36898
-5.48321 -5.48317 -5.48312 -5.48308 -5.48303 -5.48299
-5.55123 -5.55112 -5.55101 -5.5509 -5.55079 -5.55069
-5.58042 -5.58025 -5.58007 -5.5799 -5.57973 -5.57956
-5.57423 -5.57414 -5.57406 -5.57398 -5.5739 -5.57381
-5.52098 -5.52093 -5.52088 -5.52084 -5.52079 -5.52074
-5.41033 -5.41033 -5.41034 -5.41034 -5.41034 -5.41034
-3.20186 -3.22118 -3.24038 -3.25944 -3.27836 -3.29716
-5.02031 -5.01946 -5.01571 -5.01188 -5.00798 -4.99945 -5.01273 -5.02697 -5.0412 -5.05544 -5.07899 -5.09943 -5.12788 -5.15634 -5.18479 -5.21595 -5.22982 -5.24966 -5.2695 -5.28934 -5.31073 -5.32641 -5.344 -5.3616 -5.37919 -5.39407 -5.39604 -5.39801 -5.39998 -5.40194 -5.4039 -5.42256 -5.4412 -5.45985 -5.47849 -5.49681 -5.51208 -5.52711 -5.54214 -5.55718 -5.57158 -5.58326 -5.59458 -5.6059 -5.61722 -5.62787 -5.63686 -5.64543 -5.654 -5.66257 -5.6705 -5.67727 -5.68354 -5.68981 -5.69609 -5.70175 -5.70659 -5.71087 -5.71516 -5.71944 -5.72318 -5.72638 -5.72897 -5.73156 -5.73416 -5.73624 -5.73779 -5.73848 -5.73917 -5.73986 -5.73991 -5.7393 -5.73759 -5.73588 -5.73416 -5.73188 -5.7288 -5.72398 -5.71917 -5.71435 -5.70913 -5.70358 -5.69693 -5.69028 -5.68363 -5.67836 -5.67351 -5.6665 -5.6595 -5.6525 -5.64753 -5.64514 -5.64892 -5.6527 -5.65649 -5.66899 -5.68154 -5.70522 -5.72902 -5.75282 -5.78142 -5.80806 -5.83625 -5.86444 -5.89262 -5.91546 -5.93605 -5.95275 -5.96946 -5.98616 -5.99678 -6.00803 -6.01679 -6.02556 -6.03432 -6.03915 -6.04383 -6.04734 -6.05086 -6.05438 -6.05703 -6.05698 -6.05623 -6.05547 -6.05472 -6.05637 -6.05495 -6.05331 -6.05167 -6.05003 -6.05184 -6.05264 -6.05314 -6.05364 -6.05414 -6.05631 -6.05973 -6.06203 -6.06433 -6.06664 -6.06808 -6.07194 -6.07381 -6.07569 -6.07756 -6.07734 -6.07975 -6.08011 -6.08047 -6.08084 -6.07955 -6.08066 -6.0805 -6.08034 -6.08018 -6.07971 -6.08108 -6.08234 -6.0836 -6.08486 -6.08704 -6.09027 -6.09442 -6.09856 -6.10271 -6.10845 -6.11422 -6.12151 -6.1288 -6.13609 -6.14503 -6.15285 -6.16246 -6.17207 -6.18169 -6.19285 -6.20169 -6.21266 -6.22362 -6.23459 -6.24726 -6.25649 -6.26839 -6.28029 -6.29218 -6.30624 -6.31579 -6.32875 -6.34171 -6.35467 -6.37043 -6.38063 -6.39498 -6.40933 -6.42368 -6.44146 -6.45262 -6.46857 -6.48453 -6.50049 -6.52039 -6.53271 -6.55029 -6.56787 -6.58546 -6.60738 -6.62096 -6.64003 -6.6591 -6.67823 -6.70178 -6.71658 -6.73678 -6.75713 -6.77772 -6.80264 -6.81887 -6.83998 -6.86145 -6.88332 -6.90913 -6.92676 -6.94869 -6.97116 -6.99417 -7.02065 -7.03971 -7.06241 -7.08579 -7.10982 -7.13674 -7.15722 -7.18066 -7.20486 -7.22976 -7.25696 -7.27879 -7.30301 -7.32806 -7.35383 -7.3814 -7.40468 -7.42985 -7.45587 -7.48257 -7.51062 -7.53535 -7.56154 -7.58856 -7.61619 -7.64475 -7.67083 -7.69799 -7.72594 -7.7544 -7.78347 -7.81069 -7.8387 -7.86745 -7.89661 -7.92616 -7.9543 -7.98303 -8.01246 -8.04223 -8.07228 -8.10118 -8.13054 -8.1606 -8.19097 -8.22153 -8.25111 -8.28106 -8.31172 -8.34269 -8.3738 -8.40401 -8.4345 -8.46573 -8.4973 -8.52898 -8.55992 -8.59105 -8.62287 -8.65495 -8.68708 -8.71853 -8.75012 -8.78255 -8.81536 -8.84822 -8.88031 -8.91248 -8.94555 -8.97905 -9.01258 -9.04535 -9.07815 -9.11192 -9.14617 -9.18042 -9.21393 -9.24745 -9.28197 -9.31701 -9.35206 -9.38637 -9.42069 -9.456 -9.4919 -9.52779 -9.56296 -9.59814 -9.63432 -9.67114 -9.70795 -9.74409 -9.78022 -9.81732 -9.85505 -9.89278 -9.9299 -9.96702 -10.0051 -10.0437 -10.0824 -10.1205 -10.1586 -10.1976 -10.2372 -10.2768 -10.316 -10.3552 -10.3952 -10.4358 -10.4764 -10.5166 -10.5569 -10.5979 -10.6394 -10.681 -10.7224 -10.7637 -10.8057 -10.8482 -10.8906 -10.933 -10.9754 -11.0183 -11.0616 -11.105 -11.1482 -11.1914 -11.2352 -11.2795 -11.3239 -11.3682 -11.4125 -11.4571 -11.502 -11.5469 -11.5921 -11.6373 -11.6827 -11.7283 -11.7739 -11.82 -11.8661 -11.9123 -11.9586 -12.0049 -12.0518 -12.0988 -12.1457 -12.1925 -12.2393 -12.2871 -12.3349 -12.3823 -12.4294 -12.4764 -12.5247 -12.5731 -12.6208 -12.6679 -12.7149 -12.7636 -12.8122 -12.8601 -12.907 -12.9539 -13.0027 -13.0516 -13.0995 -13.146 -13.1925 -13.2412 -13.2901 -13.3377 -13.3832 -13.4288 -13.4771 -13.5255 -13.5724 -13.6168 -13.6612 -13.7086 -13.7561 -13.802 -13.8447 -13.8875 -13.9336 -13.9796 -14.0238 -14.0649 -14.1057 -14.1501 -14.1941 -14.2361 -14.2756 -14.3139 -14.3563 -14.3976 -14.4372 -14.4747 -14.5102 -14.5502 -14.5881 -14.6248 -14.6603 -14.6922 -14.7292 -14.7628 -14.7959 -14.829 -14.857 -14.8898 -14.9186 -14.9474 -14.9763 -15.0015 -15.0282 -15.0518 -15.0756 -15.0994 -15.1216 -15.1335 -15.1441 -15.1547 -15.1654 -15.1745 -15.1822 -15.19 -15.1977 -15.2055 -15.2122 -15.2254 -15.2372 -15.2492 -15.2613 -15.2692 -15.2794 -15.284 -15.2888 -15.2933 -15.2905 -15.2953 -15.2948 -15.2917 -15.2837 -15.2723 -15.2687 -15.2653 -15.2524 -15.2312 -15.2102 -15.1972 -15.1844 -15.1629 -15.1317 -15.1006 -15.078 -15.0513 -15.018 -14.9824 -14.9402 -14.9058 -14.861 -14.8163 -14.7718 -14.7251 -14.7148 -14.7023 -14.6899 -14.6775 -14.6657 -14.6233 -14.5811 -14.539 -14.4971 -14.4471 -14.3898 -14.3237 -14.2579 -14.1856 -14.1069 -14.0373 -13.9678 -13.8875 -13.7961 -13.7047 -13.6222 -13.5343 -13.4383 -13.3425 -13.2384 -13.1862 -13.1268 -13.0671 -13.0075 -12.9532 -12.9044 -12.8557 -12.8071 -12.7578 -12.7024 -12.5913 -12.4735 -12.3559 -12.2292 -12.0975 -11.9741 -11.8511 -11.7167 -11.5756 -11.4327 -11.3378 -11.2359 -11.1317 -11.0276 -10.9338 -10.8897 -10.8455 -10.8014 -10.756 -10.7082 -10.5582 -10.4046 -10.2513 -10.0893 -9.92466 -9.76501 -9.60303 -9.434 -9.26523 -9.09367 -9.0666 -9.03887 -9.01042 -8.98198 -8.9541 -8.8075 -8.66112 -8.51496 -8.36601 -8.21325 -8.03352 -7.8541 -7.6704 -7.48476 -7.29777 -7.22265 -7.1468 -7.06985 -6.99294 -6.91936 -6.80672 -6.69419 -6.58176 -6.46782 -6.35221 -6.16026 -5.9686 -5.77559 -5.58142 -5.38602 -5.28905 -5.19182 -5.09404 -4.99632 -4.90311 -4.80419 -4.70534 -4.60656 -4.50738 -4.40757 -4.21024 -4.01317 -3.81689 -3.62117 -3.42415 -3.32685 -3.22979 -3.1332 -3.03667 -2.94388 -2.84368 -2.74354 -2.64346 -2.54378 -2.44394 -2.24796 -2.0522 -1.85849 -1.66708 -1.47438 -1.39174 -1.30953 -1.22839 -1.1473 -1.06849 -0.958501 -0.848567 -0.738695 -0.630203 -0.521892 -0.332747 -0.143783 0.0420764 0.224249 0.40741 0.468271 0.528706 0.587886 0.647048 0.705136 0.827116 0.949035 1.07089 1.19052 1.30971 1.48765 1.66546 1.83855 2.00997 2.18067 2.21913 2.25728 2.29444 2.3316 2.36839 2.49989 2.63133 2.76271 2.89098 3.01847 3.1828 3.34683 3.50508 3.66325 3.82025 3.84053 3.86061 3.8801 3.89958 3.91898 4.05406 4.18909 4.32407 4.45557 4.58594 4.73537 4.88376 5.02732 5.17082 5.31393 5.3232 5.33236 5.34124 5.35012 5.35898 5.48996 5.62091 5.75184 5.87929 6.00525 6.13974 6.27294 6.40179 6.53063 6.65904 6.66604 6.67295 6.67965 6.68635 6.69304 6.81137 6.92969 7.048 7.16322 7.27664 7.39647 7.51546 7.63003 7.74461 7.85789 7.87194 7.88576 7.89918 7.9126 7.92602 8.02299 8.11997 8.21697 8.3111 8.40296 8.50897 8.61498 8.71572 8.81544 8.91338 8.94399 8.97389 9.00283 9.03177 9.06084 9.12789 9.19495 9.26202 9.32657 9.38936 9.48204 9.57473 9.66334 9.74849 9.83312 9.86942 9.90482 9.93884 9.97286 10.0073 10.0558 10.1044 10.153 10.1999 10.2454 10.3253 10.4053 10.4819 10.5553 10.6282 10.671 10.7127 10.7529 10.793 10.8342 10.8647 10.8952 10.9257 10.9552 10.9838 11.0526 11.121 11.1874 11.2507 11.3136 11.3658 11.4166 11.4659 11.5151 11.5668 11.5776 11.5884 11.5993 11.6098 11.62 11.6787 11.7366 11.7945 11.8499 11.9042 11.9592 12.0135 12.0656 12.1177 12.1684 12.1799 12.1909 12.2017 12.2125 12.2235 12.2622 12.3009 12.3396 12.3775 12.414 12.4614 12.5089 12.5546 12.5987 12.6424 12.6798 12.716 12.7516 12.7873 12.8259 12.8318 12.8377 12.8436 12.8495 12.8551 12.8956 12.9357 12.9759 13.0152 13.0534 13.0916 13.1298 13.1668 13.2026 13.2382 13.2689 13.2987 13.3283 13.3578 13.3905 13.3945 13.3986 13.4026 13.4067 13.4106 13.4433 13.4759 13.5085 13.5408 13.572 13.6029 13.6339 13.6641 13.6935 13.7227 13.7517 13.7803 13.8083 13.8363 13.8637 13.8779 13.8917 13.9055 13.9193 13.934 13.9465 13.959 13.9714 13.9839 13.9959 14.0212 14.0462 14.0712 14.096 14.1202 14.144 14.1678 14.1911 14.214 14.2368 14.2591 14.2814 14.3032 14.3249 14.3463 14.3674 14.388 14.4085 14.429 14.4494 14.4548 14.4601 14.4654 14.4706 14.4761 14.4903 14.5045 14.5187 14.5329 14.5469 14.5655 14.584 14.6025 14.6209 14.6391 14.6567 14.6742 14.6917 14.7089 14.7261 14.7428 14.7594 14.7759 14.7922 14.8085 14.8243 14.84 14.8555 14.8711 14.8865 14.9015 14.9164 14.9311 14.9459 14.9606 14.9748 14.9889 15.0029 15.017 15.031 15.0317 15.0325 15.0332 15.0339 15.0346 15.0474 15.0601 15.0728 15.0856 15.0982 15.111 15.1238 15.1366 15.1495 15.1621 15.1743 15.1865 15.1987 15.2108 15.2229 15.2345 15.2461 15.2577 15.2693 15.2808 15.2918 15.3029 15.3139 15.325 15.336 15.3465 15.3571 15.3676 15.3781 15.3886 15.3987 15.4088 15.4188 15.4288 15.4389 15.4485 15.4581 15.4677 15.4773 15.4869 15.4961 15.5053 15.5144 15.5236 15.5328 15.5416 15.5503 15.559 15.5678 15.5765 15.5849 15.5932 15.6016 15.6099 15.6182 15.6188 15.6193 15.6198 15.6203 15.6209 15.6283 15.6358 15.6433 15.6507 15.6582 15.6658 15.6734 15.6811 15.6887 15.6964 15.7036 15.7109 15.7182 15.7255 15.7329 15.7397 15.7467 15.7536 15.7606 15.7677 15.7742 15.7808 15.7874 15.7941 15.8008 15.807 15.8132 15.8196 15.826 15.8324 15.8383 15.8441 15.8502 15.8563 15.8625 15.8681 15.8737 15.8794 15.8853 15.8912 15.8965 15.9018 15.9072 15.9128 15.9184 15.9234 15.9285 15.9336 15.9389 15.9443 15.949 15.9537 15.9586 15.9637 15.9687 15.9732 15.9777 15.9824 15.9872 15.992 15.9962 16.0005 16.0049 16.0094 16.014 16.018 16.0221 16.0263 16.0305 16.0349 16.0387 16.0426 16.0465 16.0505 16.0546 16.0582 16.0619 16.0657 16.0694 16.0733 16.0767 16.0803 16.0839 16.0874 16.0912 16.0945 16.098 16.1014 16.1049 16.1084 16.1117 16.115 16.1184 16.1217 16.1251 16.1284 16.1317 16.1351 16.1384 16.1418 16.1452 16.1486 16.1521 16.1555 16.159 16.1626 16.1661 16.1697 16.1733 16.1769 16.1795 16.1822 16.1848 16.1874 16.1907 16.1918 16.193 16.1941 16.1953 16.1965 16.2009 16.2053 16.2097 16.2142 16.2187 16.2239 16.2291 16.2344 16.2397 16.2451 16.2514 16.2577 16.2639 16.2702 16.2767 16.2846 16.2926 16.3006 16.3085 16.3169 16.3246 16.3315 16.3385 16.3454 16.3522 16.3543 16.3563 16.3582 16.3602 16.3613 16.3657 16.3701 16.3744 16.3787 16.3829 16.3825 16.3785 16.3746 16.3707 16.3662 16.3608 16.3552 16.3495 16.3436 16.3292 16.2928 16.2552 16.2175 16.1797 16.1349 16.0876 16.0457 16.0039 15.9627 15.9244 15.885 15.8457 15.8064 15.767 15.7275 15.6864 15.6448 15.6011 15.5543 15.5072 15.4583 15.4094 15.3591 15.307 15.2549 15.2011 15.1472 15.0921 15.0358 14.9795 14.9213 14.8632 14.803 14.7411 14.6791 14.615 14.5508 14.4844 14.4164 14.3481 14.2775 14.2063 14.1339 14.0607 13.9869 13.9106 13.8331 13.7546 13.6755 13.5952 13.5123 13.427 13.341 13.2547 13.1661 13.0747 12.9797 12.8846 12.7896 12.6918 12.5897 12.4846 12.3796 12.2745 12.1674 12.0536 11.9377 11.8217 11.7058 11.5888 11.4619 11.3338 11.2058 11.0777 10.9494 10.9187 10.8878 10.8568 10.8259 10.7935 10.6828 10.5721 10.4614 10.3507 10.2392 10.0822 9.92419 9.76617 9.60814 9.44808 9.27385 9.09645 8.91904 8.74161 8.55981 8.36548 8.1675 7.96952 7.77153 7.56927 7.3557 7.12792 6.90012 6.67194 6.42802 6.17377 5.92518 5.67734 5.43101 5.1902 4.93897 4.64598 4.33259 3.99149 3.61306 3.21898 2.87612 2.59497 2.38307 2.21698 2.0427 1.81392 1.39238 0.711475 0