# vtk DataFile Version 2.0
track0
ASCII
DATASET POLYDATA
POINTS 12075 float
-0.0205 0.001 1e-05
-0.02052 0.000999985 1e-05
-0.02054 0.000999974 1e-05
-0.02056 0.000999965 1e-05
-0.02058 0.000999959 1e-05
-0.0206 0.000999956 1e-05
-0.0205 0.00367778 1e-05
-0.02052 0.00367778 1e-05
-0.02054 0.00367777 1e-05
-0.02056 0.00367777 1e-05
-0.02058 0.00367777 1e-05
-0.0206 0.00367777 1e-05
-0.0205 0.00635556 1e-05
-0.02052 0.00635555 1e-05
-0.02054 0.00635555 1e-05
-0.02056 0.00635555 1e-05
-0.02058 0.00635555 1e-05
-0.0206 0.00635555 1e-05
-0.0205 0.00903333 1e-05
-0.02052 0.00903333 1e-05
-0.02054 0.00903333 1e-05
-0.02056 0.00903333 1e-05
-0.02058 0.00903333 1e-05
-0.0206 0.00903333 1e-05
-0.0205 0.0117111 1e-05
-0.02052 0.0117111 1e-05
-0.02054 0.0117111 1e-05
-0.02056 0.0117111 1e-05
-0.02058 0.0117111 1e-05
-0.0206 0.0117111 1e-05
-0.0205 0.0143889 1e-05
-0.02052 0.0143889 1e-05
-0.02054 0.0143889 1e-05
-0.02056 0.0143889 1e-05
-0.02058 0.0143889 1e-05
-0.0206 0.0143889 1e-05
-0.0205 0.0170667 1e-05
-0.02052 0.0170667 1e-05
-0.02054 0.0170667 1e-05
-0.02056 0.0170667 1e-05
-0.02058 0.0170667 1e-05
-0.0206 0.0170667 1e-05
-0.0205 0.0197444 1e-05
-0.02052 0.0197444 1e-05
-0.02054 0.0197444 1e-05
-0.02056 0.0197444 1e-05
-0.02058 0.0197444 1e-05
-0.0206 0.0197444 1e-05
-0.0205 0.0224222 1e-05
-0.02052 0.0224222 1e-05
-0.02054 0.0224222 1e-05
-0.02056 0.0224222 1e-05
-0.02058 0.0224222 1e-05
-0.0206 0.0224222 1e-05
-0.0205 0.0251 1e-05
-0.02052 0.0250998 1e-05
-0.02054 0.0250997 1e-05
-0.02056 0.0250995 1e-05
-0.02058 0.0250995 1e-05
-0.0206 0.0250994 1e-05
-0.0205 0.001 1e-05
-0.0202034 0.00100022 1e-05
-0.0199069 0.00100067 1e-05
-0.0196103 0.00100133 1e-05
-0.0193137 0.00100219 1e-05
-0.0190172 0.00100327 1e-05
-0.0187132 0.00100467 1e-05
-0.0184093 0.00100589 1e-05
-0.0181054 0.00100711 1e-05
-0.0178015 0.00100833 1e-05
-0.0174976 0.00100955 1e-05
-0.0172058 0.00101084 1e-05
-0.016914 0.00101195 1e-05
-0.0166222 0.00101305 1e-05
-0.0163305 0.00101415 1e-05
-0.0160387 0.00101525 1e-05
-0.0157586 0.00101639 1e-05
-0.0154784 0.00101747 1e-05
-0.0151983 0.00101859 1e-05
-0.0149182 0.00101974 1e-05
-0.0146381 0.00102094 1e-05
-0.0143768 0.00102211 1e-05
-0.0141155 0.00102329 1e-05
-0.0138542 0.0010245 1e-05
-0.0135929 0.00102574 1e-05
-0.0133723 0.00102682 1e-05
-0.0133566 0.0010269 1e-05
-0.0133408 0.00102697 1e-05
-0.013325 0.00102705 1e-05
-0.0133092 0.00102713 1e-05
-0.0132934 0.00102721 1e-05
-0.0130353 0.0010285 1e-05
-0.0127771 0.00102981 1e-05
-0.0125189 0.00103114 1e-05
-0.0122607 0.00103248 1e-05
-0.0120025 0.00103383 1e-05
-0.0117547 0.00103515 1e-05
-0.0115068 0.00103647 1e-05
-0.0112589 0.0010378 1e-05
-0.0110111 0.00103913 1e-05
-0.0107632 0.00104047 1e-05
-0.0105252 0.00104175 1e-05
-0.0102873 0.00104304 1e-05
-0.0100493 0.00104433 1e-05
-0.00981133 0.00104562 1e-05
-0.00957337 0.00104691 1e-05
-0.00934491 0.00104814 1e-05
-0.00911645 0.00104937 1e-05
-0.00888799 0.00105061 1e-05
-0.00865954 0.00105184 1e-05
-0.00843108 0.00105307 1e-05
-0.00821175 0.00105424 1e-05
-0.00799242 0.00105541 1e-05
-0.00777309 0.00105658 1e-05
-0.00755376 0.00105775 1e-05
-0.00733443 0.00105891 1e-05
-0.00712387 0.00106002 1e-05
-0.0069133 0.00106113 1e-05
-0.00670273 0.00106224 1e-05
-0.00649216 0.00106335 1e-05
-0.0062816 0.00106445 1e-05
-0.00607944 0.0010655 1e-05
-0.00587729 0.00106656 1e-05
-0.00567514 0.00106761 1e-05
-0.00547298 0.00106866 1e-05
-0.00527083 0.00106971 1e-05
-0.00507675 0.00107071 1e-05
-0.00488267 0.00107171 1e-05
-0.0046886 0.00107271 1e-05
-0.00449452 0.00107371 1e-05
-0.00430044 0.00107471 1e-05
-0.00411412 0.00107567 1e-05
-0.0039278 0.00107663 1e-05
-0.00374147 0.0010776 1e-05
-0.00355515 0.00107856 1e-05
-0.00336883 0.00107953 1e-05
-0.00318995 0.00108045 1e-05
-0.00301107 0.00108139 1e-05
-0.00283219 0.00108233 1e-05
-0.00265331 0.00108327 1e-05
-0.00247443 0.00108422 1e-05
-0.0023027 0.00108514 1e-05
-0.00213097 0.00108607 1e-05
-0.00195924 0.00108702 1e-05
-0.00178751 0.00108797 1e-05
-0.00161577 0.00108894 1e-05
-0.0014509 0.00108987 1e-05
-0.00128603 0.00109083 1e-05
-0.00112116 0.00109181 1e-05
-0.00095629 0.00109281 1e-05
-0.000791418 0.00109384 1e-05
-0.000633135 0.00109486 1e-05
-0.000474851 0.00109591 1e-05
-0.000316568 0.00109699 1e-05
-0.000158285 0.0010981 1e-05
0 0.00109925 1e-05
0.000105677 0.00110003 1e-05
0.000211355 0.00110083 1e-05
0.000317032 0.00110163 1e-05
0.000422709 0.00110244 1e-05
0.000528387 0.00110326 1e-05
0.000634886 0.00110408 1e-05
0.000741385 0.0011049 1e-05
0.000847885 0.00110571 1e-05
0.000954384 0.00110651 1e-05
0.00106088 0.0011073 1e-05
0.00116821 0.00110808 1e-05
0.00127554 0.00110886 1e-05
0.00138286 0.00110961 1e-05
0.00149019 0.00111035 1e-05
0.00159752 0.00111108 1e-05
0.00170568 0.00111179 1e-05
0.00181384 0.00111249 1e-05
0.001922 0.00111318 1e-05
0.00203016 0.00111384 1e-05
0.00213833 0.00111449 1e-05
0.00224733 0.00111512 1e-05
0.00235633 0.00111574 1e-05
0.00246533 0.00111635 1e-05
0.00257434 0.00111694 1e-05
0.00268334 0.00111751 1e-05
0.00279319 0.00111807 1e-05
0.00290304 0.00111862 1e-05
0.00301289 0.00111915 1e-05
0.00312274 0.00111967 1e-05
0.00323259 0.00112018 1e-05
0.00334329 0.00112066 1e-05
0.003454 0.00112114 1e-05
0.0035647 0.00112161 1e-05
0.0036754 0.00112206 1e-05
0.00378611 0.00112249 1e-05
0.00389767 0.00112291 1e-05
0.00400924 0.00112332 1e-05
0.0041208 0.00112372 1e-05
0.00423237 0.0011241 1e-05
0.00434393 0.00112447 1e-05
0.00445636 0.00112482 1e-05
0.00456879 0.00112516 1e-05
0.00468123 0.00112549 1e-05
0.00479366 0.00112581 1e-05
0.00490609 0.00112611 1e-05
0.0050194 0.00112639 1e-05
0.0051327 0.00112667 1e-05
0.00524601 0.00112693 1e-05
0.00535932 0.00112718 1e-05
0.00547262 0.00112742 1e-05
0.00558681 0.00112764 1e-05
0.005701 0.00112785 1e-05
0.00581518 0.00112806 1e-05
0.00592937 0.00112824 1e-05
0.00604356 0.00112842 1e-05
0.00615863 0.00112858 1e-05
0.00627371 0.00112873 1e-05
0.00638878 0.00112887 1e-05
0.00650386 0.001129 1e-05
0.00661893 0.00112912 1e-05
0.0067349 0.00112922 1e-05
0.00685087 0.00112932 1e-05
0.00696684 0.0011294 1e-05
0.00708281 0.00112947 1e-05
0.00719878 0.00112953 1e-05
0.00731565 0.00112958 1e-05
0.00743252 0.00112962 1e-05
0.00754939 0.00112964 1e-05
0.00766626 0.00112966 1e-05
0.00778313 0.00112967 1e-05
0.00790091 0.00112966 1e-05
0.00801869 0.00112964 1e-05
0.00813647 0.00112961 1e-05
0.00825425 0.00112958 1e-05
0.00837203 0.00112953 1e-05
0.00848555 0.00112947 1e-05
0.00859906 0.0011294 1e-05
0.00871257 0.00112932 1e-05
0.00882608 0.00112924 1e-05
0.00893254 0.00112914 1e-05
0.00893913 0.00112914 1e-05
0.00894573 0.00112913 1e-05
0.00895232 0.00112913 1e-05
0.00895892 0.00112912 1e-05
0.00896551 0.00112911 1e-05
0.00908513 0.001129 1e-05
0.00920475 0.00112887 1e-05
0.00932437 0.00112874 1e-05
0.00944398 0.00112859 1e-05
0.0095636 0.00112843 1e-05
0.00968415 0.00112826 1e-05
0.0098047 0.00112808 1e-05
0.00992525 0.00112789 1e-05
0.0100458 0.00112769 1e-05
0.0101663 0.00112748 1e-05
0.0102878 0.00112725 1e-05
0.0104093 0.00112702 1e-05
0.0105308 0.00112677 1e-05
0.0106523 0.00112652 1e-05
0.0107738 0.00112625 1e-05
0.0108962 0.00112597 1e-05
0.0110186 0.00112567 1e-05
0.0111411 0.00112537 1e-05
0.0112635 0.00112506 1e-05
0.0113859 0.00112474 1e-05
0.0115093 0.0011244 1e-05
0.0116327 0.00112405 1e-05
0.0117561 0.00112369 1e-05
0.0118795 0.00112333 1e-05
0.0120028 0.00112295 1e-05
0.0121272 0.00112255 1e-05
0.0122515 0.00112215 1e-05
0.0123759 0.00112173 1e-05
0.0125002 0.0011213 1e-05
0.0126245 0.00112087 1e-05
0.0127498 0.00112041 1e-05
0.0128752 0.00111995 1e-05
0.0130005 0.00111948 1e-05
0.0131258 0.00111899 1e-05
0.0132511 0.0011185 1e-05
0.0133774 0.00111799 1e-05
0.0135036 0.00111747 1e-05
0.0136299 0.00111693 1e-05
0.0137562 0.00111639 1e-05
0.0138825 0.00111583 1e-05
0.0140098 0.00111526 1e-05
0.014137 0.00111468 1e-05
0.0142643 0.00111409 1e-05
0.0143915 0.00111348 1e-05
0.0145188 0.00111286 1e-05
0.0146471 0.00111224 1e-05
0.0147753 0.00111159 1e-05
0.0149036 0.00111093 1e-05
0.0150318 0.00111026 1e-05
0.0151601 0.00110958 1e-05
0.0152893 0.00110889 1e-05
0.0154186 0.00110819 1e-05
0.0155478 0.00110746 1e-05
0.0156771 0.00110673 1e-05
0.0158063 0.00110598 1e-05
0.0159366 0.00110523 1e-05
0.0160668 0.00110446 1e-05
0.0161971 0.00110367 1e-05
0.0163273 0.00110286 1e-05
0.0164576 0.00110205 1e-05
0.0165889 0.00110124 1e-05
0.0167201 0.0011004 1e-05
0.0168514 0.00109954 1e-05
0.0169827 0.00109867 1e-05
0.0171139 0.00109779 1e-05
0.0172462 0.00109691 1e-05
0.0173785 0.001096 1e-05
0.0175108 0.00109507 1e-05
0.0176431 0.00109412 1e-05
0.0177754 0.00109317 1e-05
0.0179087 0.00109222 1e-05
0.018042 0.00109124 1e-05
0.0181753 0.00109023 1e-05
0.0183087 0.00108921 1e-05
0.018442 0.00108819 1e-05
0.0185763 0.00108716 1e-05
0.0187107 0.00108611 1e-05
0.018845 0.00108502 1e-05
0.0189794 0.00108392 1e-05
0.0191137 0.00108282 1e-05
0.0192491 0.00108172 1e-05
0.0193845 0.00108059 1e-05
0.0195199 0.00107942 1e-05
0.0196553 0.00107823 1e-05
0.0197907 0.00107705 1e-05
0.0199272 0.00107587 1e-05
0.0200636 0.00107466 1e-05
0.0202001 0.00107341 1e-05
0.0203365 0.00107214 1e-05
0.020473 0.00107088 1e-05
0.0206105 0.00106961 1e-05
0.020748 0.00106831 1e-05
0.0208855 0.00106698 1e-05
0.021023 0.00106562 1e-05
0.0211606 0.00106427 1e-05
0.0212991 0.00106293 1e-05
0.0214377 0.00106154 1e-05
0.0215763 0.00106011 1e-05
0.0217149 0.00105867 1e-05
0.0218535 0.00105724 1e-05
0.0219931 0.0010558 1e-05
0.0221328 0.00105432 1e-05
0.0222724 0.0010528 1e-05
0.0224121 0.00105126 1e-05
0.0225517 0.00104973 1e-05
0.0226925 0.00104819 1e-05
0.0228332 0.00104661 1e-05
0.022974 0.001045 1e-05
0.0231147 0.00104336 1e-05
0.0232555 0.00104173 1e-05
0.0233973 0.00104009 1e-05
0.0235391 0.00103841 1e-05
0.023681 0.00103669 1e-05
0.0238228 0.00103496 1e-05
0.0239647 0.00103322 1e-05
0.0241076 0.00103148 1e-05
0.0242505 0.0010297 1e-05
0.0243935 0.00102787 1e-05
0.0245364 0.00102603 1e-05
0.0246794 0.00102419 1e-05
0.0248234 0.00102234 1e-05
0.0249675 0.00102044 1e-05
0.0251115 0.00101851 1e-05
0.0252556 0.00101656 1e-05
[...]
POINT_DATA 12075
 FIELD attributes 1
U 3 12075 float
10.0004 	0.00734972 	0 10.0004 	0.00587978 	0 10.0003 	0.00440983 	0 10.0002 	0.00293989 	0 10.0001 	0.00146994 	0 10 	0 	0
10 	0.000884977 	0 10 	0.000707982 	0 10 	0.000530986 	0 10 	0.000353991 	0 10 	0.000176995 	0 10 	0 	0
10.0001 	0.000475231 	0 10.0001 	0.000380009 	0 10.0001 	0.000284787 	0 10 	0.000189565 	0 10 	9.43429e-05 	0 10 	0 	0
10 	0.000279371 	0 10 	0.000223497 	0 10 	0.000167623 	0 10 	0.000111749 	0 10 	5.58743e-05 	0 10 	0 	0
10 	9.39655e-05 	0 10 	7.51724e-05 	0 10 	5.63793e-05 	0 10 	3.75862e-05 	0 10 	1.87931e-05 	0 10 	0 	0
10 	-1.37621e-05 	0 10 	-1.10097e-05 	0 10 	-8.25726e-06 	0 10 	-5.50484e-06 	0 10 	-2.75242e-06 	0 10 	0 	0
10 	-0.000207006 	0 10 	-0.000165604 	0 10 	-0.000124203 	0 10 	-8.28022e-05 	0 10 	-4.14011e-05 	0 10 	0 	0
10 	-0.000371531 	0 10 	-0.000297224 	0 10 	-0.000222918 	0 10 	-0.000148612 	0 10 	-7.43061e-05 	0 10 	0 	0
9.99999 	-0.000422782 	0 9.99999 	-0.000338226 	0 9.99999 	-0.000253669 	0 10 	-0.000169113 	0 10 	-8.45564e-05 	0 10 	0 	0
9.17387 	0.0871276 	0 9.1308 	0.0697021 	0 9.08741 	0.0522763 	0 9.04368 	0.0348503 	0 8.99963 	0.0174241 	0 8.95524 	0 	0
10.0004 	0.00734972 	0 10.0024 	0.015213 	0 10.0045 	0.02224 	0 10.0065 	0.0292224 	0 10.0086 	0.0361606 	0 10.0135 	0.0463571 	0 10.0163 	0.0402437 	0 10.0208 	0.0402002 	0 10.0252 	0.0401569 	0 10.0296 	0.0401138 	0 10.0356 	0.0445764 	0 10.0384 	0.0379482 	0 10.0424 	0.0379122 	0 10.0463 	0.0378762 	0 10.0503 	0.0378402 	0 10.0544 	0.0409443 	0 10.0565 	0.0388808 	0 10.0589 	0.0401998 	0 10.0613 	0.0415205 	0 10.0638 	0.0428428 	0 10.0659 	0.0453046 	0 10.0674 	0.0454233 	0 10.0687 	0.0466275 	0 10.0699 	0.0478329 	0 10.0712 	0.0490393 	0 10.0723 	0.0500587 	0 10.0724 	0.0501321 	0 10.0725 	0.0502055 	0 10.0726 	0.0502789 	0 10.0726 	0.0503523 	0 10.0727 	0.0504148 	0 10.0732 	0.0510578 	0 10.0737 	0.0516938 	0 10.0742 	0.0523303 	0 10.0746 	0.0529674 	0 10.0751 	0.0534389 	0 10.0749 	0.0537554 	0 10.0745 	0.0539654 	0 10.0741 	0.0541755 	0 10.0737 	0.0543857 	0 10.0731 	0.0543566 	0 10.0726 	0.0545288 	0 10.0714 	0.0545316 	0 10.0703 	0.0545344 	0 10.0691 	0.0545372 	0 10.0675 	0.0542708 	0 10.067 	0.0543879 	0 10.0653 	0.05429 	0 10.0636 	0.0541921 	0 10.0619 	0.0540942 	0 10.0592 	0.0537114 	0 10.0591 	0.0538164 	0 10.057 	0.0536717 	0 10.0548 	0.0535269 	0 10.0527 	0.0533821 	0 10.049 	0.0529418 	0 10.0495 	0.0530672 	0 10.047 	0.0529184 	0 10.0446 	0.0527694 	0 10.0421 	0.0526205 	0 10.0373 	0.0521716 	0 10.0386 	0.05235 	0 10.0359 	0.0522301 	0 10.0332 	0.0521102 	0 10.0305 	0.0519903 	0 10.0245 	0.0515624 	0 10.0268 	0.0518209 	0 10.0239 	0.0517731 	0 10.021 	0.0517253 	0 10.0181 	0.0516774 	0 10.0109 	0.051327 	0 10.0143 	0.0517142 	0 10.0112 	0.0517747 	0 10.0082 	0.0518352 	0 10.0051 	0.0518958 	0 9.99655 	0.0516465 	0 10.0012 	0.0522285 	0 9.99807 	0.0525538 	0 9.99494 	0.0528792 	0 9.99181 	0.0532046 	0 9.98203 	0.053277 	0 9.98811 	0.0542341 	0 9.98495 	0.0548631 	0 9.98179 	0.0554923 	0 9.97865 	0.0561216 	0 9.96755 	0.0564054 	0 9.97527 	0.0577897 	0 9.97251 	0.0593226 	0 9.96976 	0.0608557 	0 9.96702 	0.062389 	0 9.95511 	0.0637395 	0 9.96523 	0.066039 	7.7742e-22 9.96419 	0.068125 	6.5307e-21 9.96317 	0.0702113 	1.22815e-20 9.96216 	0.0722979 	1.80298e-20 9.95069 	0.0734479 	1.47102e-20 9.96322 	0.0749553 	1.12742e-19 9.96326 	0.0756627 	1.05423e-19 9.96329 	0.0763702 	9.81134e-20 9.96334 	0.0770777 	9.08131e-20 9.95183 	0.0767364 	-1.83408e-20 9.96502 	0.0764725 	-5.03419e-20 9.96508 	0.07566 	-5.57529e-20 9.96514 	0.0748474 	-6.1159e-20 9.96519 	0.0740349 	-6.65602e-20 9.95319 	0.0729337 	-2.3235e-20 9.96598 	0.0718788 	-2.07873e-20 9.96501 	0.0703053 	-1.42184e-20 9.96402 	0.0687318 	-7.65079e-21 9.96303 	0.0671582 	-1.08462e-21 9.9499 	0.0655865 	9.47244e-21 9.96223 	0.0645775 	-3.80582e-21 9.96023 	0.0628943 	-2.51155e-20 9.95823 	0.0612109 	-4.643e-20 9.95621 	0.0595272 	-6.77493e-20 9.94193 	0.0576416 	-9.97515e-20 9.95397 	0.0569165 	-1.5386e-19 9.95113 	0.0553912 	-1.39872e-19 9.94829 	0.0538656 	-1.25869e-19 9.94543 	0.0523395 	-1.11849e-19 9.93011 	0.050316 	-3.30843e-20 9.94189 	0.0497645 	5.64622e-20 9.93828 	0.0483595 	7.21601e-20 9.93465 	0.0469541 	8.78377e-20 9.93101 	0.0455482 	1.03495e-19 9.9147 	0.0434935 	4.13259e-20 9.92618 	0.0429947 	-8.27528e-20 9.92178 	0.041654 	-8.99996e-20 9.91736 	0.0403128 	-9.7215e-20 9.91294 	0.0389712 	-1.04399e-19 9.89569 	0.0369652 	-2.24583e-22 9.90674 	0.0364958 	1.00194e-19 9.90153 	0.0352027 	8.9702e-20 9.89631 	0.033909 	7.91794e-20 9.89108 	0.0326149 	6.86263e-20 9.87298 	0.0306818 	-2.7678e-20 9.88341 	0.0302323 	-1.07708e-19 9.8774 	0.0289751 	-1.33354e-19 9.87139 	0.0277174 	-1.58988e-19 9.86536 	0.0264592 	-1.84612e-19 9.84657 	0.0246009 	-1.46843e-19 9.85611 	0.0241944 	-1.89251e-19 9.84934 	0.0229937 	-1.74986e-19 9.84256 	0.0217925 	-1.60712e-19 9.83576 	0.0205906 	-1.46428e-19 9.81658 	0.0188188 	-8.77114e-20 9.82485 	0.0184728 	-7.65147e-20 9.81738 	0.0173464 	-5.52744e-20 9.80989 	0.0162194 	-3.40375e-20 9.80239 	0.0150917 	-1.2804e-20 9.78324 	0.0134154 	4.6429e-21 9.78978 	0.0131097 	0 9.78165 	0.0120547 	0 9.77351 	0.0109991 	0 9.76536 	0.00994272 	0 9.74676 	0.0083719 	0 9.75101 	0.0080619 	-1.49008e-20 9.74228 	0.00706767 	-3.65908e-20 9.73354 	0.00607273 	-5.82838e-20 9.72479 	0.00507706 	-7.99798e-20 9.70732 	0.00363335 	-1.05038e-19 9.70869 	0.00326768 	-1.23364e-19 9.6994 	0.0023252 	-1.2395e-19 9.6901 	0.00138195 	-1.24526e-19 9.68078 	0.000437941 	-1.25093e-19 9.66511 	-0.000845713 	-1.13084e-19 9.66296 	-0.00131793 	-6.19673e-20 9.65315 	-0.00221493 	-2.87119e-20 9.64333 	-0.00311273 	4.52777e-21 9.63349 	-0.00401134 	3.77516e-20 9.62025 	-0.0050969 	6.04953e-20 9.61445 	-0.00569074 	6.8031e-20 9.60463 	-0.00651088 	6.81209e-20 9.59479 	-0.00733179 	6.82011e-20 9.58494 	-0.00815349 	6.82716e-20 9.57569 	-0.00892482 	6.83286e-20 9.57511 	-0.00897306 	6.83859e-20 9.57453 	-0.0090213 	6.84433e-20 9.57395 	-0.00906954 	6.85007e-20 9.57337 	-0.00911779 	6.8558e-20 9.57243 	-0.00918018 	6.86786e-20 9.56196 	-0.0100002 	5.46742e-20 9.55115 	-0.0108331 	4.06681e-20 9.54033 	-0.011667 	2.66601e-20 9.52949 	-0.0125018 	1.26503e-20 9.51228 	-0.0135614 	-4.06806e-22 9.50678 	-0.0141802 	-1.19766e-20 9.4956 	-0.0149892 	-2.52912e-20 9.4844 	-0.0157991 	-3.8604e-20 9.47319 	-0.01661 	-5.19151e-20 9.45042 	-0.0177713 	-6.52342e-20 9.44923 	-0.0182685 	-6.88843e-20 9.43773 	-0.0190597 	-7.68722e-20 9.42621 	-0.019852 	-8.48555e-20 9.41467 	-0.0206452 	-9.28342e-20 9.38726 	-0.021831 	-1.08998e-19 9.38966 	-0.0222856 	-1.43675e-19 9.37788 	-0.0230634 	-1.32931e-19 9.36608 	-0.0238422 	-1.22206e-19 9.35426 	-0.0246221 	-1.11501e-19 9.32313 	-0.0257545 	-4.47892e-20 9.32843 	-0.0262412 	-3.04748e-20 9.31641 	-0.0270084 	-2.17846e-20 9.30437 	-0.0277766 	-1.30932e-20 9.2923 	-0.028546 	-4.40066e-21 9.25835 	-0.0295526 	0 9.26589 	-0.0301368 	0 9.25366 	-0.0308971 	0 9.24141 	-0.0316585 	0 9.22914 	-0.032421 	0 9.1932 	-0.0332422 	0 9.20236 	-0.0339831 	2.99568e-21 9.18996 	-0.0347414 	1.09915e-20 9.17754 	-0.0355008 	1.89861e-20 9.1651 	-0.0362614 	2.69797e-20 9.12791 	-0.0368483 	4.4954e-20 9.13817 	-0.0377929 	1.56768e-19 9.12563 	-0.0385535 	1.60335e-19 9.11308 	-0.0393154 	1.63923e-19 9.1005 	-0.0400784 	1.67533e-19 9.06271 	-0.0403944 	4.52281e-20 9.07361 	-0.0415813 	2.54743e-20 9.06097 	-0.0423487 	1.80511e-20 9.0483 	-0.0431173 	1.06266e-20 9.03561 	-0.0438871 	3.20091e-21 8.99777 	-0.0439044 	1.68903e-20 9.00896 	-0.0453592 	1.12818e-19 8.99623 	-0.0461389 	1.14706e-19 8.98348 	-0.0469198 	1.16609e-19 8.9695 	-0.0476495 	1.12844e-19 8.93327 	-0.0474101 	3.97514e-21 8.94222 	-0.0490722 	-1.11476e-19 8.93165 	-0.0499584 	-1.33241e-19 8.91884 	-0.0507573 	-1.44345e-19 8.90253 	-0.0513506 	-1.40629e-19 8.86934 	-0.0509428 	-6.50288e-20 8.87584 	-0.0527649 	-1.96221e-19 8.86745 	-0.0538122 	-2.28814e-19 8.8546 	-0.0546294 	-2.32028e-19 8.83656 	-0.0550486 	-1.92689e-19 8.8061 	-0.054508 	-5.09403e-20 8.81044 	-0.056448 	-2.63275e-20 8.80377 	-0.0576817 	-1.24292e-20 8.79089 	-0.0585175 	-4.56763e-21 8.77165 	-0.0587404 	0 8.74362 	-0.058112 	0 8.74608 	-0.0601512 	0 8.74077 	-0.0615955 	0 8.72788 	-0.062457 	0 8.70788 	-0.0624748 	1.99135e-21 8.68201 	-0.0617941 	5.62926e-21 8.68284 	-0.0639296 	2.18054e-21 8.6786 	-0.0656089 	0 8.66572 	-0.066501 	0 8.64531 	-0.0663014 	2.47282e-21 8.62136 	-0.0655844 	6.1162e-21 8.62079 	-0.0677979 	2.66791e-21 8.6174 	-0.0697199 	1.58302e-21 8.60455 	-0.0706372 	8.58529e-21 8.58401 	-0.0702051 	2.64041e-20 8.56172 	-0.0694621 	4.67093e-20 8.55994 	-0.0717169 	1.85925e-19 8.55721 	-0.073868 	3.14262e-19 8.54441 	-0.0748101 	3.18649e-19 8.52394 	-0.0741641 	1.86577e-19 8.50309 	-0.0734351 	4.74215e-20 8.50029 	-0.075734 	2.74739e-20 8.4974 	-0.0780355 	7.52874e-21 8.4847 	-0.0789388 	3.18932e-22 8.46509 	-0.0782204 	3.80481e-21 8.44549 	-0.0775014 	7.29043e-21 8.44179 	-0.0798039 	4.0086e-21 8.43802 	-0.082109 	7.28241e-22 8.42593 	-0.0829934 	2.24539e-21 8.40741 	-0.0823127 	-1.75378e-21 8.3889 	-0.0816315 	-5.7516e-21 8.38442 	-0.083921 	-5.37267e-20 8.37987 	-0.0862129 	-1.01708e-19 8.3684 	-0.0870969 	-1.03514e-19 8.35084 	-0.0865041 	-5.9733e-20 8.3333 	-0.0859108 	-1.59494e-20 8.32814 	-0.0882428 	9.24452e-20 8.32289 	-0.0905772 	2.0083e-19 8.31204 	-0.0914711 	2.10474e-19 8.29532 	-0.0909251 	1.19875e-19 8.27861 	-0.0903788 	2.92748e-20 8.27284 	-0.0927239 	1.65518e-20 8.26699 	-0.0950715 	3.82301e-21 8.25674 	-0.0959608 	-1.0848e-21 8.24074 	-0.0954545 	4.17226e-21 8.22475 	-0.0949478 	9.4306e-21 8.21841 	-0.0972561 	2.94444e-21 8.212 	-0.0995668 	-3.55021e-21 8.20234 	-0.100453 	-2.05207e-20 8.18699 	-0.100033 	-7.50728e-20 8.17165 	-0.0996129 	-1.29627e-19 8.16481 	-0.101897 	-2.71586e-19 8.15787 	-0.104165 	-4.11355e-19 8.14854 	-0.105019 	-3.87194e-19 8.13402 	-0.104753 	-2.31527e-19 8.11922 	-0.104426 	-6.87655e-20 8.11191 	-0.106695 	6.6332e-20 8.10418 	-0.108717 	1.76504e-19 8.09486 	-0.109611 	1.73518e-19 8.0817 	-0.10963 	9.79721e-20 8.06739 	-0.109384 	6.30704e-22 8.05964 	-0.11163 	-9.55967e-20 8.05131 	-0.113413 	-1.61234e-19 8.04197 	-0.114343 	-1.70598e-19 8.02997 	-0.114635 	-1.25653e-19 8.01607 	-0.114471 	-4.20117e-20 8.00788 	-0.116694 	-3.0295e-20 7.99906 	-0.118254 	-1.86394e-20 7.98969 	-0.119219 	-7.03741e-21 7.97867 	-0.119773 	8.66945e-21 7.96513 	-0.119689 	3.07101e-20 7.95652 	-0.121907 	6.93579e-21 7.94734 	-0.123253 	-4.32718e-21 7.9379 	-0.12424 	-1.04373e-20 7.9277 	-0.125024 	-1.21806e-20 7.91449 	-0.124974 	3.87937e-21 7.90548 	-0.12716 	-1.44719e-20 7.89606 	-0.128275 	-2.23337e-20 7.88656 	-0.129264 	-2.89435e-20 7.87703 	-0.130252 	-3.55574e-20 7.86409 	-0.130234 	-5.81784e-20 7.85473 	-0.132264 	4.6462e-20 7.8452 	-0.133281 	4.80449e-20 7.83563 	-0.134298 	4.96019e-20 7.82602 	-0.135317 	5.11328e-20 7.81395 	-0.135603 	-2.52435e-20 7.8043 	-0.137464 	4.42318e-20 7.79464 	-0.138528 	4.63073e-20 7.78494 	-0.139594 	4.83586e-20 7.77519 	-0.14066 	5.03858e-20 7.76379 	-0.141187 	5.92063e-21 7.75392 	-0.142854 	-1.93115e-22 7.7441 	-0.143922 	-1.40169e-22 7.73425 	-0.144991 	-8.7237e-23 7.72435 	-0.14606 	-3.43198e-23 7.71351 	-0.146778 	7.13101e-21 7.70353 	-0.148188 	0 7.69357 	-0.149244 	0 7.68358 	-0.150301 	0 7.67355 	-0.15136 	0 7.66317 	-0.152298 	2.53181e-21 7.65775 	-0.152984 	0 7.65235 	-0.15355 	0 7.64694 	-0.154116 	0 7.64152 	-0.154683 	0 7.63627 	-0.155231 	0 7.63136 	-0.155731 	0 7.62644 	-0.156232 	0 7.62151 	-0.156732 	0 7.61658 	-0.157233 	0 7.61215 	-0.157634 	0 7.60141 	-0.158804 	0 7.59082 	-0.159872 	0 7.58019 	-0.160942 	0 7.56952 	-0.162012 	0 7.56042 	-0.162771 	0 7.54904 	-0.16416 	0 7.53822 	-0.165228 	0 7.52736 	-0.166296 	0 7.51646 	-0.167366 	0 7.50826 	-0.167912 	0 7.49621 	-0.169516 	0 7.48515 	-0.170578 	0 7.47405 	-0.171641 	0 7.46291 	-0.172704 	0 7.45556 	-0.173033 	0 7.44285 	-0.174852 	-9.82079e-22 7.43154 	-0.175903 	-9.88081e-21 7.42019 	-0.176955 	-1.87767e-20 7.40903 	-0.177964 	-2.76718e-20 7.40229 	-0.178113 	-3.66048e-20 7.38918 	-0.180001 	-2.67504e-20 7.37735 	-0.181169 	-2.43583e-20 7.36573 	-0.182199 	-2.34052e-20 7.35545 	-0.182962 	-2.54028e-20 7.34838 	-0.183091 	-3.43879e-20 7.33503 	-0.184925 	-2.44462e-20 7.32251 	-0.186288 	-1.44784e-20 7.31065 	-0.187278 	-4.49013e-21 7.30126 	-0.187779 	0 7.29391 	-0.187881 	0 7.28031 	-0.189651 	0 7.2671 	-0.191197 	-1.11196e-21 7.255 	-0.192141 	-5.20832e-21 7.24652 	-0.192386 	-9.37121e-21 7.23889 	-0.192465 	-1.35499e-20 7.22503 	-0.194184 	-4.35709e-20 7.21111 	-0.195904 	-7.35894e-20 7.19904 	-0.196762 	-8.88444e-20 7.19116 	-0.196807 	-7.40926e-20 7.18327 	-0.196853 	-5.93385e-20 7.16916 	-0.198525 	-3.70533e-20 7.15498 	-0.200198 	-1.47581e-20 7.14336 	-0.201029 	-1.08901e-20 7.13521 	-0.201031 	-3.11808e-20 7.12706 	-0.201033 	-5.14726e-20 7.11269 	-0.202656 	-6.23652e-20 7.09826 	-0.20428 	-7.32554e-20 7.0871 	-0.205078 	-6.71521e-20 7.07868 	-0.205024 	-3.98029e-20 7.07024 	-0.204969 	-1.24525e-20 7.05564 	-0.206531 	-9.48785e-21 7.04096 	-0.208094 	-6.52909e-21 7.03028 	-0.20885 	0 7.0216 	-0.208738 	0 7.01291 	-0.208626 	0 6.99808 	-0.210123 	0 6.98394 	-0.211473 	0 6.97341 	-0.212104 	0 6.96407 	-0.212118 	0 6.95513 	-0.211918 	0 6.94004 	-0.213331 	0 6.92694 	-0.214343 	0 6.91623 	-0.214877 	0 6.90619 	-0.21506 	-5.46055e-21 6.8971 	-0.214759 	-1.84591e-20 6.88189 	-0.216076 	-3.75213e-21 6.86992 	-0.216736 	7.90257e-23 6.85904 	-0.217171 	1.85129e-22 6.84828 	-0.217529 	5.17101e-22 6.83897 	-0.21714 	3.06175e-21 6.82373 	-0.218325 	2.55791e-20 6.81273 	-0.218657 	2.39953e-20 6.8017 	-0.218989 	2.24071e-20 6.79066 	-0.219322 	2.08143e-20 6.78084 	-0.219041 	1.23546e-20 6.76678 	-0.219855 	2.43714e-21 6.75566 	-0.220079 	8.58049e-21 6.74452 	-0.220302 	1.47247e-20 6.73337 	-0.220526 	2.08698e-20 6.7229 	-0.220413 	2.6992e-20 6.71005 	-0.220852 	4.13225e-20 6.69887 	-0.220956 	3.91292e-20 6.68769 	-0.221061 	3.69316e-20 6.67648 	-0.221167 	3.47298e-20 6.66542 	-0.221203 	2.90962e-20 6.66219 	-0.221266 	2.87101e-20 6.65931 	-0.221259 	2.87371e-20 6.65642 	-0.221252 	2.87642e-20 6.65354 	-0.221245 	2.87914e-20 6.65067 	-0.221239 	2.88185e-20 6.6422 	-0.221229 	2.78195e-20 6.63373 	-0.22122 	2.682e-20 6.62525 	-0.221211 	2.58198e-20 6.61677 	-0.221202 	2.4819e-20 6.60954 	-0.220994 	2.46143e-20 6.59754 	-0.221033 	2.33056e-20 6.5862 	-0.22088 	2.26344e-20 6.57484 	-0.220727 	2.19625e-20 6.56348 	-0.220575 	2.129e-20 6.55512 	-0.219948 	2.23066e-20 6.54234 	-0.220103 	1.79899e-20 6.53112 	-0.219818 	1.22874e-20 6.51989 	-0.219534 	6.58468e-21 6.50867 	-0.21925 	8.81873e-22 6.50221 	-0.218218 	-2.16504e-21 6.48865 	-0.218493 	0 6.4776 	-0.218084 	0 6.46656 	-0.217674 	0 6.45638 	-0.217127 	0 6.45106 	-0.215811 	0 6.43762 	-0.215968 	0 6.426 	-0.215637 	0 6.41522 	-0.215088 	0 6.40706 	-0.214119 	-9.74834e-22 6.40206 	-0.212646 	-3.12013e-21 6.38891 	-0.212645 	-1.23195e-21 6.37668 	-0.212403 	1.3429e-21 6.36623 	-0.211706 	5.20757e-21 6.36015 	-0.210305 	7.44492e-21 6.35554 	-0.208675 	9.15277e-21 6.34275 	-0.208512 	-8.78862e-21 6.32997 	-0.208342 	-2.65408e-20 6.3202 	-0.207458 	-2.34785e-20 6.31598 	-0.205688 	-2.33032e-21 6.31182 	-0.203917 	1.88225e-20 6.29946 	-0.203605 	-2.62724e-21 6.28709 	-0.203293 	-2.40772e-20 6.27859 	-0.202222 	-2.74213e-20 6.27486 	-0.200324 	-1.10091e-20 6.27118 	-0.198425 	5.40597e-21 6.25931 	-0.197972 	2.94201e-21 6.24746 	-0.197519 	4.7818e-22 6.24021 	-0.196267 	2.21046e-21 6.23701 	-0.194257 	7.13273e-21 6.23387 	-0.192247 	1.20559e-20 6.22257 	-0.191663 	6.93278e-21 6.21128 	-0.191079 	1.80975e-21 6.20532 	-0.18966 	3.14989e-21 6.20269 	-0.187565 	9.6456e-21 6.20011 	-0.185469 	1.61413e-20 6.18943 	-0.184777 	2.19987e-20 6.17972 	-0.183937 	2.65363e-20 6.17478 	-0.182367 	2.45205e-20 6.17204 	-0.180354 	1.58514e-20 6.17006 	-0.178196 	5.002e-21 6.16005 	-0.17741 	3.64876e-21 6.15247 	-0.176261 	2.24662e-21 6.14815 	-0.174625 	7.78784e-22 6.14522 	-0.172728 	0 6.14384 	-0.170536 	0 6.13455 	-0.169677 	0 6.12904 	-0.16827 	9.3762e-22 6.12535 	-0.166599 	2.32379e-21 6.12228 	-0.164825 	2.64847e-21 6.12153 	-0.162637 	-1.28007e-21 6.11298 	-0.161739 	3.3477e-21 6.10944 	-0.160138 	5.07749e-21 6.1064 	-0.158471 	6.53557e-21 6.1034 	-0.156805 	7.99183e-21 6.10311 	-0.154691 	1.04059e-20 6.09609 	-0.153686 	8.55097e-21 6.09366 	-0.152062 	8.68079e-21 6.09126 	-0.150439 	8.80828e-21 6.0889 	-0.148816 	8.93343e-21 6.08855 	-0.146891 	1.44365e-20 6.08341 	-0.145779 	8.00077e-21 6.08161 	-0.144237 	4.42096e-21 6.07984 	-0.142696 	8.40539e-22 6.07811 	-0.141155 	-2.7405e-21 6.07774 	-0.13943 	-5.11464e-21 6.07434 	-0.138278 	-1.47029e-20 6.07315 	-0.136858 	-1.77056e-20 6.07199 	-0.135439 	-2.07139e-20 6.07087 	-0.13402 	-2.37275e-20 6.0705 	-0.132512 	-2.21586e-20 6.0687 	-0.13139 	-2.43622e-20 6.0681 	-0.130135 	-2.27131e-20 6.06752 	-0.128881 	-2.10679e-20 6.06698 	-0.127627 	-1.94265e-20 6.06663 	-0.126355 	-1.69672e-20 6.06634 	-0.126059 	-1.70947e-20 6.06632 	-0.125735 	-1.62253e-20 6.0663 	-0.125411 	-1.53563e-20 6.06628 	-0.125087 	-1.44877e-20 6.06626 	-0.124756 	-1.3598e-20 6.06613 	-0.124027 	-1.16456e-20 6.06601 	-0.123298 	-9.69522e-21 6.0659 	-0.122569 	-7.747e-21 6.0658 	-0.121841 	-5.80089e-21 6.06607 	-0.12107 	-5.77888e-21 6.06618 	-0.120279 	-4.32784e-21 6.06647 	-0.119471 	-3.15566e-21 6.06678 	-0.118664 	-1.98376e-21 6.06711 	-0.117857 	-8.12148e-22 6.06827 	-0.116967 	0 6.06861 	-0.116484 	0 6.06934 	-0.115977 	0 6.07008 	-0.115471 	0 6.07083 	-0.114965 	0 6.07278 	-0.114363 	0 6.0733 	-0.11424 	-5.0842e-22 6.07438 	-0.114111 	-1.55488e-21 6.07547 	-0.113982 	-2.6014e-21 6.07656 	-0.113852 	-3.64796e-21 6.07916 	-0.113649 	-4.65722e-21 6.0798 	-0.113962 	2.19678e-21 6.08116 	-0.114311 	2.57707e-21 6.08252 	-0.114659 	2.95845e-21 6.08387 	-0.115007 	3.34093e-21 6.08702 	-0.115324 	-6.24996e-21 6.08772 	-0.116146 	-3.14744e-21 6.08929 	-0.117037 	8.96533e-23 6.09085 	-0.117927 	3.32644e-21 6.09238 	-0.118817 	6.56292e-21 6.09597 	-0.1197 	8.68113e-21 6.09673 	-0.121049 	6.42462e-21 6.09838 	-0.122465 	7.12106e-21 6.10006 	-0.123884 	8.01883e-21 6.10204 	-0.125301 	9.67883e-21 6.10564 	-0.126711 	1.51e-20 6.10653 	-0.128554 	1.83558e-20 6.10806 	-0.130459 	1.85009e-20 6.10979 	-0.132385 	1.75496e-20 6.11214 	-0.134317 	1.38249e-20 6.11566 	-0.136261 	5.08324e-21 6.11658 	-0.138608 	1.35524e-20 6.11791 	-0.141013 	1.59573e-20 6.1196 	-0.143469 	1.29539e-20 6.12222 	-0.14596 	4.8812e-21 6.12557 	-0.148478 	-7.23779e-21 6.12643 	-0.151373 	-4.05506e-21 6.12748 	-0.154303 	-2.10845e-21 6.12904 	-0.157322 	-3.06842e-21 6.13182 	-0.160414 	-3.19165e-21 6.13491 	-0.163525 	-3.0657e-21 6.13563 	-0.166993 	-2.76243e-21 6.13631 	-0.170464 	-2.36498e-21 6.13766 	-0.174065 	2.03711e-23 6.14049 	-0.177785 	2.32948e-21 6.14325 	-0.181503 	4.64143e-21 6.14373 	-0.18556 	2.57025e-21 6.14411 	-0.189613 	5.01917e-22 6.14536 	-0.193812 	0 6.14778 	-0.198151 	0 6.1501 	-0.202487 	0 6.15025 	-0.207148 	0 6.15029 	-0.211805 	0 6.1513 	-0.216615 	0 6.15322 	-0.221578 	0 6.15504 	-0.226538 	0 6.15475 	-0.231815 	0 6.15435 	-0.237087 	0 6.15505 	-0.242521 	2.17929e-21 6.15638 	-0.248115 	4.69131e-21 6.15759 	-0.253706 	7.20816e-21 6.15679 	-0.259607 	5.05484e-21 6.15613 	-0.265545 	3.45265e-21 6.15636 	-0.271626 	3.77577e-21 6.15681 	-0.277798 	4.76566e-21 6.15734 	-0.284018 	6.11591e-21 6.15591 	-0.290547 	-4.57382e-21 6.15509 	-0.29719 	-1.11553e-20 6.15461 	-0.303905 	-1.50765e-20 6.15407 	-0.310637 	-1.7259e-20 6.15382 	-0.317485 	-1.11561e-20 6.15172 	-0.324649 	-7.5762e-21 6.15061 	-0.332 	-5.2847e-21 6.14934 	-0.339343 	-2.99915e-21 6.1479 	-0.346678 	-7.19542e-22 6.14659 	-0.354094 	-1.30238e-21 6.14421 	-0.361972 	-1.29899e-21 6.14223 	-0.369941 	-4.20773e-21 6.14008 	-0.377902 	-7.12284e-21 6.13774 	-0.385856 	-1.00443e-20 6.13545 	-0.393081 	-1.2707e-20 6.1354 	-0.393225 	-1.27073e-20 6.13536 	-0.393369 	-1.27075e-20 6.13532 	-0.393513 	-1.27077e-20 6.13527 	-0.393657 	-1.27079e-20 6.13522 	-0.393803 	-1.29726e-20 6.13278 	-0.402324 	-1.97128e-20 6.13015 	-0.410837 	-