# vtk DataFile Version 2.0
track0
ASCII
DATASET POLYDATA
POINTS 12075 float
-0.0205 0.001 1e-05
-0.02052 0.000999985 1e-05
-0.02054 0.000999974 1e-05
-0.02056 0.000999965 1e-05
-0.02058 0.000999959 1e-05
-0.0206 0.000999956 1e-05
-0.0205 0.00367778 1e-05
-0.02052 0.00367778 1e-05
-0.02054 0.00367777 1e-05
-0.02056 0.00367777 1e-05
-0.02058 0.00367777 1e-05
-0.0206 0.00367777 1e-05
-0.0205 0.00635556 1e-05
-0.02052 0.00635555 1e-05
-0.02054 0.00635555 1e-05
-0.02056 0.00635555 1e-05
-0.02058 0.00635555 1e-05
-0.0206 0.00635555 1e-05
-0.0205 0.00903333 1e-05
-0.02052 0.00903333 1e-05
-0.02054 0.00903333 1e-05
-0.02056 0.00903333 1e-05
-0.02058 0.00903333 1e-05
-0.0206 0.00903333 1e-05
-0.0205 0.0117111 1e-05
-0.02052 0.0117111 1e-05
-0.02054 0.0117111 1e-05
-0.02056 0.0117111 1e-05
-0.02058 0.0117111 1e-05
-0.0206 0.0117111 1e-05
-0.0205 0.0143889 1e-05
-0.02052 0.0143889 1e-05
-0.02054 0.0143889 1e-05
-0.02056 0.0143889 1e-05
-0.02058 0.0143889 1e-05
-0.0206 0.0143889 1e-05
-0.0205 0.0170667 1e-05
-0.02052 0.0170667 1e-05
-0.02054 0.0170667 1e-05
-0.02056 0.0170667 1e-05
-0.02058 0.0170667 1e-05
-0.0206 0.0170667 1e-05
-0.0205 0.0197444 1e-05
-0.02052 0.0197444 1e-05
-0.02054 0.0197444 1e-05
-0.02056 0.0197444 1e-05
-0.02058 0.0197444 1e-05
-0.0206 0.0197444 1e-05
-0.0205 0.0224222 1e-05
-0.02052 0.0224222 1e-05
-0.02054 0.0224222 1e-05
-0.02056 0.0224222 1e-05
-0.02058 0.0224222 1e-05
-0.0206 0.0224222 1e-05
-0.0205 0.0251 1e-05
-0.02052 0.0250998 1e-05
-0.02054 0.0250997 1e-05
-0.02056 0.0250995 1e-05
-0.02058 0.0250995 1e-05
-0.0206 0.0250994 1e-05
-0.0205 0.001 1e-05
-0.0202034 0.00100022 1e-05
-0.0199069 0.00100067 1e-05
-0.0196103 0.00100133 1e-05
-0.0193137 0.00100219 1e-05
-0.0190172 0.00100327 1e-05
-0.0187132 0.00100467 1e-05
-0.0184093 0.00100589 1e-05
-0.0181054 0.00100711 1e-05
-0.0178015 0.00100833 1e-05
-0.0174976 0.00100955 1e-05
-0.0172058 0.00101084 1e-05
-0.016914 0.00101195 1e-05
-0.0166222 0.00101305 1e-05
-0.0163305 0.00101415 1e-05
-0.0160387 0.00101525 1e-05
-0.0157586 0.00101639 1e-05
-0.0154784 0.00101747 1e-05
-0.0151983 0.00101859 1e-05
-0.0149182 0.00101974 1e-05
-0.0146381 0.00102094 1e-05
-0.0143768 0.00102211 1e-05
-0.0141155 0.00102329 1e-05
-0.0138542 0.0010245 1e-05
-0.0135929 0.00102574 1e-05
-0.0133723 0.00102682 1e-05
-0.0133566 0.0010269 1e-05
-0.0133408 0.00102697 1e-05
-0.013325 0.00102705 1e-05
-0.0133092 0.00102713 1e-05
-0.0132934 0.00102721 1e-05
-0.0130353 0.0010285 1e-05
-0.0127771 0.00102981 1e-05
-0.0125189 0.00103114 1e-05
-0.0122607 0.00103248 1e-05
-0.0120025 0.00103383 1e-05
-0.0117547 0.00103515 1e-05
-0.0115068 0.00103647 1e-05
-0.0112589 0.0010378 1e-05
-0.0110111 0.00103913 1e-05
-0.0107632 0.00104047 1e-05
-0.0105252 0.00104175 1e-05
-0.0102873 0.00104304 1e-05
-0.0100493 0.00104433 1e-05
-0.00981133 0.00104562 1e-05
-0.00957337 0.00104691 1e-05
-0.00934491 0.00104814 1e-05
-0.00911645 0.00104937 1e-05
-0.00888799 0.00105061 1e-05
-0.00865954 0.00105184 1e-05
-0.00843108 0.00105307 1e-05
-0.00821175 0.00105424 1e-05
-0.00799242 0.00105541 1e-05
-0.00777309 0.00105658 1e-05
-0.00755376 0.00105775 1e-05
-0.00733443 0.00105891 1e-05
-0.00712387 0.00106002 1e-05
-0.0069133 0.00106113 1e-05
-0.00670273 0.00106224 1e-05
-0.00649216 0.00106335 1e-05
-0.0062816 0.00106445 1e-05
-0.00607944 0.0010655 1e-05
-0.00587729 0.00106656 1e-05
-0.00567514 0.00106761 1e-05
-0.00547298 0.00106866 1e-05
-0.00527083 0.00106971 1e-05
-0.00507675 0.00107071 1e-05
-0.00488267 0.00107171 1e-05
-0.0046886 0.00107271 1e-05
-0.00449452 0.00107371 1e-05
-0.00430044 0.00107471 1e-05
-0.00411412 0.00107567 1e-05
-0.0039278 0.00107663 1e-05
-0.00374147 0.0010776 1e-05
-0.00355515 0.00107856 1e-05
-0.00336883 0.00107953 1e-05
-0.00318995 0.00108045 1e-05
-0.00301107 0.00108139 1e-05
-0.00283219 0.00108233 1e-05
-0.00265331 0.00108327 1e-05
-0.00247443 0.00108422 1e-05
-0.0023027 0.00108514 1e-05
-0.00213097 0.00108607 1e-05
-0.00195924 0.00108702 1e-05
-0.00178751 0.00108797 1e-05
-0.00161577 0.00108894 1e-05
-0.0014509 0.00108987 1e-05
-0.00128603 0.00109083 1e-05
-0.00112116 0.00109181 1e-05
-0.00095629 0.00109281 1e-05
-0.000791418 0.00109384 1e-05
-0.000633135 0.00109486 1e-05
-0.000474851 0.00109591 1e-05
-0.000316568 0.00109699 1e-05
-0.000158285 0.0010981 1e-05
0 0.00109925 1e-05
0.000105677 0.00110003 1e-05
0.000211355 0.00110083 1e-05
0.000317032 0.00110163 1e-05
0.000422709 0.00110244 1e-05
0.000528387 0.00110326 1e-05
0.000634886 0.00110408 1e-05
0.000741385 0.0011049 1e-05
0.000847885 0.00110571 1e-05
0.000954384 0.00110651 1e-05
0.00106088 0.0011073 1e-05
0.00116821 0.00110808 1e-05
0.00127554 0.00110886 1e-05
0.00138286 0.00110961 1e-05
0.00149019 0.00111035 1e-05
0.00159752 0.00111108 1e-05
0.00170568 0.00111179 1e-05
0.00181384 0.00111249 1e-05
0.001922 0.00111318 1e-05
0.00203016 0.00111384 1e-05
0.00213833 0.00111449 1e-05
0.00224733 0.00111512 1e-05
0.00235633 0.00111574 1e-05
0.00246533 0.00111635 1e-05
0.00257434 0.00111694 1e-05
0.00268334 0.00111751 1e-05
0.00279319 0.00111807 1e-05
0.00290304 0.00111862 1e-05
0.00301289 0.00111915 1e-05
0.00312274 0.00111967 1e-05
0.00323259 0.00112018 1e-05
0.00334329 0.00112066 1e-05
0.003454 0.00112114 1e-05
0.0035647 0.00112161 1e-05
0.0036754 0.00112206 1e-05
0.00378611 0.00112249 1e-05
0.00389767 0.00112291 1e-05
0.00400924 0.00112332 1e-05
0.0041208 0.00112372 1e-05
0.00423237 0.0011241 1e-05
0.00434393 0.00112447 1e-05
0.00445636 0.00112482 1e-05
0.00456879 0.00112516 1e-05
0.00468123 0.00112549 1e-05
0.00479366 0.00112581 1e-05
0.00490609 0.00112611 1e-05
0.0050194 0.00112639 1e-05
0.0051327 0.00112667 1e-05
0.00524601 0.00112693 1e-05
0.00535932 0.00112718 1e-05
0.00547262 0.00112742 1e-05
0.00558681 0.00112764 1e-05
0.005701 0.00112785 1e-05
0.00581518 0.00112806 1e-05
0.00592937 0.00112824 1e-05
0.00604356 0.00112842 1e-05
0.00615863 0.00112858 1e-05
0.00627371 0.00112873 1e-05
0.00638878 0.00112887 1e-05
0.00650386 0.001129 1e-05
0.00661893 0.00112912 1e-05
0.0067349 0.00112922 1e-05
0.00685087 0.00112932 1e-05
0.00696684 0.0011294 1e-05
0.00708281 0.00112947 1e-05
0.00719878 0.00112953 1e-05
0.00731565 0.00112958 1e-05
0.00743252 0.00112962 1e-05
0.00754939 0.00112964 1e-05
0.00766626 0.00112966 1e-05
0.00778313 0.00112967 1e-05
0.00790091 0.00112966 1e-05
0.00801869 0.00112964 1e-05
0.00813647 0.00112961 1e-05
0.00825425 0.00112958 1e-05
0.00837203 0.00112953 1e-05
0.00848555 0.00112947 1e-05
0.00859906 0.0011294 1e-05
0.00871257 0.00112932 1e-05
0.00882608 0.00112924 1e-05
0.00893254 0.00112914 1e-05
0.00893913 0.00112914 1e-05
0.00894573 0.00112913 1e-05
0.00895232 0.00112913 1e-05
0.00895892 0.00112912 1e-05
0.00896551 0.00112911 1e-05
0.00908513 0.001129 1e-05
0.00920475 0.00112887 1e-05
0.00932437 0.00112874 1e-05
0.00944398 0.00112859 1e-05
0.0095636 0.00112843 1e-05
0.00968415 0.00112826 1e-05
0.0098047 0.00112808 1e-05
0.00992525 0.00112789 1e-05
0.0100458 0.00112769 1e-05
0.0101663 0.00112748 1e-05
0.0102878 0.00112725 1e-05
0.0104093 0.00112702 1e-05
0.0105308 0.00112677 1e-05
0.0106523 0.00112652 1e-05
0.0107738 0.00112625 1e-05
0.0108962 0.00112597 1e-05
0.0110186 0.00112567 1e-05
0.0111411 0.00112537 1e-05
0.0112635 0.00112506 1e-05
0.0113859 0.00112474 1e-05
0.0115093 0.0011244 1e-05
0.0116327 0.00112405 1e-05
0.0117561 0.00112369 1e-05
0.0118795 0.00112333 1e-05
0.0120028 0.00112295 1e-05
0.0121272 0.00112255 1e-05
0.0122515 0.00112215 1e-05
0.0123759 0.00112173 1e-05
0.0125002 0.0011213 1e-05
0.0126245 0.00112087 1e-05
0.0127498 0.00112041 1e-05
0.0128752 0.00111995 1e-05
0.0130005 0.00111948 1e-05
0.0131258 0.00111899 1e-05
0.0132511 0.0011185 1e-05
0.0133774 0.00111799 1e-05
0.0135036 0.00111747 1e-05
0.0136299 0.00111693 1e-05
0.0137562 0.00111639 1e-05
0.0138825 0.00111583 1e-05
0.0140098 0.00111526 1e-05
0.014137 0.00111468 1e-05
0.0142643 0.00111409 1e-05
0.0143915 0.00111348 1e-05
0.0145188 0.00111286 1e-05
0.0146471 0.00111224 1e-05
0.0147753 0.00111159 1e-05
0.0149036 0.00111093 1e-05
0.0150318 0.00111026 1e-05
0.0151601 0.00110958 1e-05
0.0152893 0.00110889 1e-05
0.0154186 0.00110819 1e-05
0.0155478 0.00110746 1e-05
0.0156771 0.00110673 1e-05
0.0158063 0.00110598 1e-05
0.0159366 0.00110523 1e-05
0.0160668 0.00110446 1e-05
0.0161971 0.00110367 1e-05
0.0163273 0.00110286 1e-05
0.0164576 0.00110205 1e-05
0.0165889 0.00110124 1e-05
0.0167201 0.0011004 1e-05
0.0168514 0.00109954 1e-05
0.0169827 0.00109867 1e-05
0.0171139 0.00109779 1e-05
0.0172462 0.00109691 1e-05
0.0173785 0.001096 1e-05
0.0175108 0.00109507 1e-05
0.0176431 0.00109412 1e-05
0.0177754 0.00109317 1e-05
0.0179087 0.00109222 1e-05
0.018042 0.00109124 1e-05
0.0181753 0.00109023 1e-05
0.0183087 0.00108921 1e-05
0.018442 0.00108819 1e-05
0.0185763 0.00108716 1e-05
0.0187107 0.00108611 1e-05
0.018845 0.00108502 1e-05
0.0189794 0.00108392 1e-05
0.0191137 0.00108282 1e-05
0.0192491 0.00108172 1e-05
0.0193845 0.00108059 1e-05
0.0195199 0.00107942 1e-05
0.0196553 0.00107823 1e-05
0.0197907 0.00107705 1e-05
0.0199272 0.00107587 1e-05
0.0200636 0.00107466 1e-05
0.0202001 0.00107341 1e-05
0.0203365 0.00107214 1e-05
0.020473 0.00107088 1e-05
0.0206105 0.00106961 1e-05
0.020748 0.00106831 1e-05
0.0208855 0.00106698 1e-05
0.021023 0.00106562 1e-05
0.0211606 0.00106427 1e-05
0.0212991 0.00106293 1e-05
0.0214377 0.00106154 1e-05
0.0215763 0.00106011 1e-05
0.0217149 0.00105867 1e-05
0.0218535 0.00105724 1e-05
0.0219931 0.0010558 1e-05
0.0221328 0.00105432 1e-05
0.0222724 0.0010528 1e-05
0.0224121 0.00105126 1e-05
0.0225517 0.00104973 1e-05
0.0226925 0.00104819 1e-05
0.0228332 0.00104661 1e-05
0.022974 0.001045 1e-05
0.0231147 0.00104336 1e-05
0.0232555 0.00104173 1e-05
0.0233973 0.00104009 1e-05
0.0235391 0.00103841 1e-05
0.023681 0.00103669 1e-05
0.0238228 0.00103496 1e-05
0.0239647 0.00103322 1e-05
0.0241076 0.00103148 1e-05
0.0242505 0.0010297 1e-05
0.0243935 0.00102787 1e-05
0.0245364 0.00102603 1e-05
0.0246794 0.00102419 1e-05
0.0248234 0.00102234 1e-05
0.0249675 0.00102044 1e-05
0.0251115 0.00101851 1e-05
0.0252556 0.00101656 1e-05
[...]
POINT_DATA 12075
 FIELD attributes 2
p 1 12075 float
-5.60927 -5.60596 -5.60265 -5.59935 -5.59604 -5.59273
-5.76339 -5.76337 -5.76335 -5.76333 -5.76331 -5.76328
-5.93946 -5.93934 -5.93922 -5.9391 -5.93897 -5.93887
-6.03545 -6.0354 -6.03534 -6.03529 -6.03524 -6.03519
-6.08341 -6.0833 -6.08318 -6.08307 -6.08296 -6.08285
-6.09265 -6.09249 -6.09233 -6.09216 -6.092 -6.09184
-6.06809 -6.06802 -6.06794 -6.06787 -6.0678 -6.06773
-6.00031 -6.00026 -6.00022 -6.00018 -6.00014 -6.0001
-5.8802 -5.88021 -5.88021 -5.88022 -5.88023 -5.88023
-3.6681 -3.68743 -3.70662 -3.72569 -3.74462 -3.76341
-5.60927 -5.60857 -5.60497 -5.60129 -5.59753 -5.58921 -5.60302 -5.61791 -5.6328 -5.64769 -5.672 -5.69356 -5.72326 -5.75297 -5.78268 -5.81518 -5.83055 -5.85194 -5.87334 -5.89474 -5.91775 -5.93609 -5.95643 -5.97678 -5.99712 -6.0143 -6.01553 -6.01675 -6.01798 -6.0192 -6.02042 -6.04157 -6.06272 -6.08387 -6.10502 -6.12588 -6.14401 -6.16194 -6.17987 -6.1978 -6.21514 -6.22999 -6.24454 -6.25908 -6.27363 -6.2876 -6.3004 -6.31292 -6.32544 -6.33796 -6.34999 -6.36149 -6.37266 -6.38384 -6.39501 -6.40572 -6.41601 -6.42589 -6.43578 -6.44567 -6.45507 -6.46412 -6.47274 -6.48136 -6.48997 -6.49816 -6.50603 -6.51335 -6.52067 -6.528 -6.53493 -6.54157 -6.54766 -6.55374 -6.55983 -6.56575 -6.57131 -6.5759 -6.58048 -6.58506 -6.58963 -6.59435 -6.59887 -6.60339 -6.60791 -6.61384 -6.62042 -6.62557 -6.63072 -6.63588 -6.64264 -6.6534 -6.66988 -6.68636 -6.70284 -6.72521 -6.74969 -6.78201 -6.81432 -6.84663 -6.87886 -6.90985 -6.94276 -6.97567 -7.00858 -7.03663 -7.0584 -7.07929 -7.10018 -7.12107 -7.1399 -7.15392 -7.16695 -7.17998 -7.19301 -7.20571 -7.21665 -7.22612 -7.23559 -7.24506 -7.25379 -7.26286 -7.27023 -7.2776 -7.28497 -7.29108 -7.29822 -7.30371 -7.3092 -7.31469 -7.31879 -7.32377 -7.32736 -7.33095 -7.33454 -7.33708 -7.3401 -7.34201 -7.34393 -7.34585 -7.34717 -7.34874 -7.34946 -7.35018 -7.3509 -7.35139 -7.3523 -7.35256 -7.35283 -7.35309 -7.35325 -7.35407 -7.35438 -7.35469 -7.355 -7.35516 -7.35596 -7.35632 -7.35669 -7.35705 -7.35722 -7.35781 -7.35805 -7.3583 -7.35854 -7.35863 -7.35906 -7.35928 -7.35951 -7.35974 -7.3599 -7.36048 -7.36099 -7.3615 -7.36201 -7.36249 -7.36252 -7.36255 -7.36258 -7.36261 -7.36266 -7.36365 -7.36466 -7.36567 -7.36668 -7.36814 -7.36919 -7.37066 -7.37213 -7.3736 -7.37593 -7.37702 -7.37889 -7.38076 -7.38263 -7.38573 -7.38687 -7.38912 -7.39136 -7.3936 -7.39738 -7.39864 -7.40125 -7.40386 -7.40647 -7.41086 -7.41235 -7.41535 -7.41836 -7.42136 -7.42633 -7.42815 -7.4316 -7.43504 -7.43849 -7.444 -7.44627 -7.45017 -7.45408 -7.45799 -7.46397 -7.46676 -7.47111 -7.47546 -7.47981 -7.48616 -7.48948 -7.49422 -7.49896 -7.5038 -7.51029 -7.51424 -7.51919 -7.52424 -7.52954 -7.53602 -7.54052 -7.54564 -7.55094 -7.55657 -7.56301 -7.56796 -7.57327 -7.57878 -7.58466 -7.59106 -7.59639 -7.60191 -7.6076 -7.61366 -7.62002 -7.62564 -7.63134 -7.63717 -7.64331 -7.64959 -7.65537 -7.66117 -7.66705 -7.67318 -7.67936 -7.68516 -7.69097 -7.69684 -7.70292 -7.709 -7.71477 -7.72053 -7.72635 -7.73233 -7.73831 -7.74397 -7.74963 -7.75535 -7.76118 -7.767 -7.77248 -7.77797 -7.7835 -7.7891 -7.7947 -7.7999 -7.80511 -7.81037 -7.81569 -7.821 -7.82587 -7.83074 -7.83569 -7.84067 -7.84566 -7.85015 -7.85465 -7.85922 -7.86382 -7.86841 -7.87246 -7.87651 -7.88067 -7.88481 -7.88895 -7.89249 -7.89606 -7.89973 -7.90337 -7.90701 -7.90999 -7.91303 -7.91617 -7.91932 -7.92247 -7.92497 -7.92753 -7.93013 -7.93271 -7.93527 -7.93733 -7.93932 -7.9413 -7.94324 -7.94502 -7.94644 -7.94772 -7.94898 -7.95025 -7.95127 -7.95193 -7.95244 -7.95294 -7.95345 -7.9538 -7.95364 -7.9534 -7.95315 -7.95291 -7.95261 -7.95167 -7.95074 -7.94981 -7.94889 -7.94795 -7.94633 -7.94474 -7.94314 -7.94155 -7.93996 -7.93873 -7.9375 -7.93627 -7.93505 -7.93386 -7.93282 -7.93177 -7.93072 -7.92967 -7.92862 -7.92565 -7.92267 -7.91969 -7.91671 -7.9137 -7.90999 -7.90622 -7.90245 -7.89868 -7.89487 -7.89043 -7.88588 -7.88134 -7.8768 -7.87221 -7.86705 -7.86181 -7.85658 -7.85135 -7.84613 -7.84029 -7.83447 -7.82865 -7.82288 -7.81717 -7.81074 -7.80439 -7.79809 -7.79189 -7.78579 -7.77885 -7.77198 -7.76525 -7.75872 -7.75224 -7.74485 -7.73747 -7.73035 -7.72351 -7.71668 -7.70887 -7.70107 -7.69358 -7.68644 -7.6793 -7.6711 -7.66291 -7.65514 -7.64779 -7.64044 -7.63194 -7.62344 -7.6155 -7.60809 -7.60067 -7.59199 -7.58344 -7.5755 -7.56803 -7.56072 -7.55203 -7.54374 -7.53591 -7.5284 -7.52132 -7.51277 -7.50495 -7.49739 -7.4899 -7.48317 -7.47491 -7.46774 -7.46056 -7.45339 -7.44698 -7.43951 -7.43291 -7.42632 -7.41973 -7.41364 -7.40727 -7.40144 -7.39561 -7.38979 -7.38408 -7.38269 -7.38142 -7.38014 -7.37887 -7.3776 -7.37392 -7.37023 -7.36655 -7.36287 -7.3595 -7.35523 -7.35127 -7.34731 -7.34336 -7.34019 -7.33657 -7.33374 -7.33091 -7.32808 -7.32656 -7.32366 -7.32209 -7.32051 -7.3192 -7.31931 -7.3177 -7.31712 -7.31701 -7.31773 -7.31943 -7.31936 -7.31984 -7.32136 -7.3243 -7.32769 -7.32929 -7.33091 -7.33424 -7.33937 -7.34449 -7.34784 -7.35118 -7.35631 -7.36325 -7.37018 -7.37536 -7.38055 -7.38752 -7.3963 -7.40507 -7.41212 -7.41918 -7.428 -7.43865 -7.44929 -7.45826 -7.46753 -7.47832 -7.49039 -7.50287 -7.51379 -7.52543 -7.53805 -7.55145 -7.56574 -7.57858 -7.59249 -7.6069 -7.62163 -7.63765 -7.65238 -7.66841 -7.68454 -7.70067 -7.71824 -7.73495 -7.75271 -7.77047 -7.78821 -7.80693 -7.82553 -7.84477 -7.864 -7.88323 -7.90304 -7.92328 -7.94383 -7.96438 -7.98492 -8.00574 -8.02731 -8.04898 -8.07065 -8.09231 -8.11402 -8.12099 -8.12798 -8.13496 -8.14195 -8.1491 -8.16466 -8.18021 -8.19576 -8.2113 -8.22686 -8.24996 -8.27314 -8.29632 -8.31949 -8.34261 -8.36592 -8.38934 -8.41277 -8.43619 -8.45936 -8.48257 -8.50579 -8.529 -8.55222 -8.57485 -8.59759 -8.62012 -8.64266 -8.6652 -8.68673 -8.70872 -8.73017 -8.75162 -8.77308 -8.79303 -8.81397 -8.8341 -8.85419 -8.87399 -8.89234 -8.91191 -8.93066 -8.94913 -8.96687 -8.98332 -9.00119 -9.01836 -9.03491 -9.05019 -9.06446 -9.08035 -9.09578 -9.11008 -9.12235 -9.13404 -9.14757 -9.16102 -9.17264 -9.18135 -9.19006 -9.20083 -9.2116 -9.2198 -9.22503 -9.23027 -9.23776 -9.24527 -9.24966 -9.251 -9.25235 -9.25615 -9.25997 -9.26009 -9.25701 -9.25394 -9.25351 -9.25213 -9.24738 -9.24055 -9.23262 -9.22752 -9.21955 -9.20973 -9.19932 -9.186 -9.17553 -9.16016 -9.14478 -9.12941 -9.1117 -9.09302 -9.0716 -9.05019 -9.02878 -9.00931 -9.00893 -9.00855 -9.00818 -9.0078 -9.00738 -8.98026 -8.95312 -8.926 -8.8989 -8.86924 -8.8377 -8.80374 -8.7698 -8.73525 -8.6964 -8.65882 -8.61947 -8.57832 -8.53321 -8.48682 -8.44175 -8.39669 -8.34709 -8.29289 -8.23861 -8.18571 -8.13177 -8.07318 -8.01263 -7.95009 -7.889 -7.82213 -7.7551 -7.68808 -7.61981 -7.60507 -7.58919 -7.57331 -7.55743 -7.54217 -7.48359 -7.42504 -7.36651 -7.308 -7.24528 -7.16642 -7.08413 -7.00154 -6.91525 -6.82641 -6.73869 -6.651 -6.55845 -6.46097 -6.36321 -6.26661 -6.16615 -6.06344 -5.96073 -5.85587 -5.82946 -5.8017 -5.77377 -5.74583 -5.71902 -5.63696 -5.55493 -5.47294 -5.39043 -5.30352 -5.18921 -5.07351 -4.95599 -4.83248 -4.70844 -4.58575 -4.46181 -4.33343 -4.20499 -4.07305 -4.0229 -3.9713 -3.91909 -3.86688 -3.81753 -3.7346 -3.6517 -3.56884 -3.48495 -3.39831 -3.26015 -3.12141 -2.98017 -2.83459 -2.68815 -2.54333 -2.3961 -2.24686 -2.0977 -1.94749 -1.94634 -1.94518 -1.944 -1.94282 -1.94164 -1.79004 -1.63854 -1.48715 -1.33408 -1.17774 -1.02194 -0.866241 -0.707634 -0.54852 -0.387262 -0.336964 -0.286378 -0.235388 -0.184409 -0.135286 -0.024627 0.0859732 0.196513 0.307919 0.420703 0.583227 0.745626 0.908886 1.07313 1.23885 1.30475 1.37068 1.43672 1.50274 1.56601 1.66513 1.76421 1.86324 1.96242 2.06228 2.22683 2.39125 2.55519 2.71885 2.88411 2.93842 2.99259 3.04638 3.10016 3.15232 3.26201 3.37164 3.4812 3.59006 3.69941 3.86119 4.02283 4.18227 4.34139 4.50164 4.52613 4.55053 4.57454 4.59856 4.62228 4.75613 4.88989 5.02356 5.15527 5.2875 5.4299 5.57161 5.71053 5.84935 5.97993 5.99427 6.00862 6.02296 6.03706 6.05111 6.20097 6.3502 6.49933 6.64459 6.79099 6.88134 6.97128 7.05886 7.14642 7.23143 7.28627 7.3411 7.39593 7.44937 7.50264 7.64187 7.78103 7.91715 8.05028 8.18416 8.22747 8.27056 8.31218 8.3538 8.39508 8.4843 8.57349 8.66268 8.74846 8.83408 8.95186 9.06921 9.18158 9.29396 9.40549 9.41453 9.42357 9.43261 9.44127 9.44991 9.56909 9.6876 9.8057 9.91859 10.0313 10.0888 10.1461 10.2007 10.2553 10.3104 10.3649 10.4193 10.4737 10.5256 10.5773 10.6828 10.7884 10.8892 10.9894 11.088 11.0993 11.1105 11.1212 11.1319 11.1427 11.2289 11.3152 11.4015 11.4837 11.5648 11.6352 11.7052 11.7718 11.8385 11.9089 11.929 11.9492 11.9693 11.9885 12.0076 12.0926 12.1772 12.2602 12.3397 12.4183 12.4614 12.5039 12.5446 12.5854 12.6285 12.663 12.6975 12.732 12.7651 12.7976 12.8701 12.9426 13.0127 13.0804 13.1472 13.1815 13.2153 13.2478 13.2804 13.3153 13.3465 13.3776 13.4088 13.439 13.4683 13.5294 13.5904 13.6495 13.7065 13.7628 13.8068 13.8495 13.8912 13.9329 13.9803 13.9906 14.001 14.0114 14.0215 14.0314 14.0819 14.1318 14.1818 14.2301 14.2772 14.3233 14.3695 14.4135 14.457 14.4998 14.5258 14.5509 14.5757 14.6005 14.6284 14.6432 14.658 14.6728 14.6875 14.7016 14.7392 14.7763 14.8134 14.8496 14.8848 14.9188 14.9528 14.9857 15.0178 15.0496 15.0802 15.1101 15.1394 15.1687 15.1975 15.2107 15.2233 15.2359 15.2485 15.2624 15.2762 15.29 15.3038 15.3176 15.3309 15.3553 15.3795 15.4037 15.4276 15.4509 15.4727 15.4946 15.5162 15.5371 15.558 15.5775 15.5971 15.616 15.6348 15.6535 15.6709 15.6881 15.7049 15.7217 15.7385 15.754 15.769 15.7841 15.7991 15.814 15.8223 15.8303 15.8384 15.8464 15.8555 15.8607 15.8659 15.8711 15.8762 15.8814 15.8934 15.9055 15.9176 15.9296 15.9415 15.952 15.9627 15.9735 15.9841 15.9947 16.0039 16.0133 16.0228 16.0322 16.0416 16.0498 16.0579 16.0663 16.0747 16.083 16.0902 16.0974 16.1047 16.1121 16.1195 16.1258 16.1321 16.1385 16.145 16.1516 16.1571 16.1627 16.1683 16.174 16.1798 16.1847 16.1896 16.1945 16.1995 16.2047 16.209 16.2133 16.2176 16.222 16.2266 16.2304 16.2342 16.2381 16.2419 16.246 16.2493 16.2528 16.2562 16.2596 16.2632 16.2663 16.2694 16.2725 16.2756 16.2788 16.2817 16.2846 16.2875 16.2904 16.2933 16.2951 16.297 16.2988 16.3006 16.3027 16.3037 16.3046 16.3055 16.3064 16.3074 16.3103 16.3131 16.316 16.3189 16.3219 16.3249 16.3281 16.3313 16.3345 16.3378 16.3414 16.3452 16.3489 16.3526 16.3567 16.3612 16.3659 16.3706 16.3754 16.3807 16.3866 16.3925 16.3985 16.4044 16.4111 16.4188 16.4269 16.435 16.443 16.4531 16.4632 16.4706 16.4781 16.4854 16.4932 16.5014 16.5105 16.5194 16.5283 16.5402 16.5445 16.5388 16.5327 16.5263 16.4957 16.4581 16.4199 16.3814 16.3405 16.2953 16.2477 16.2026 16.1619 16.1247 16.0884 16.0504 16.0124 15.9747 15.9374 15.9001 15.8605 15.8209 15.7791 15.7351 15.6912 15.6446 15.598 15.5502 15.5015 15.4528 15.4014 15.3499 15.2977 15.2451 15.1924 15.1369 15.081 15.0244 14.9672 14.9095 14.8489 14.7873 14.7252 14.6626 14.599 14.5322 14.4639 14.3954 14.3268 14.2566 14.1828 14.1071 14.0314 13.9557 13.8786 13.7964 13.7127 13.629 13.5454 13.4606 13.369 13.2763 13.1835 13.0908 12.9975 12.9218 12.8456 12.7694 12.6932 12.6055 12.5811 12.5566 12.5321 12.5077 12.483 12.369 12.2546 12.1403 12.0259 11.9103 11.7842 11.6566 11.529 11.4014 11.2714 11.1316 10.9888 10.846 10.7031 10.556 10.4007 10.2408 10.0808 9.92085 9.75519 9.58315 9.40268 9.2222 9.04103 8.85147 8.65585 8.45518 8.25349 8.05018 7.84225 7.62758 7.40124 7.16821 6.9268 6.67485 6.41454 6.15734 5.90397 5.65481 5.40832 5.15348 4.88094 4.55947 4.18236 3.79135 3.38656 2.99106 2.70012 2.5139 2.33414 2.14777 1.96152 1.49076 0.744866 0