/*--------------------------------*- C++ -*----------------------------------*\
  =========                 |
  \\      /  F ield         | OpenFOAM: The Open Source CFD Toolbox
   \\    /   O peration     | Website:  https://openfoam.org
    \\  /    A nd           | Version:  8
     \\/     M anipulation  |
\*---------------------------------------------------------------------------*/
FoamFile
{
    version     2.0;
    format      ascii;
    class       volScalarField;
    location    "170";
    object      p;
}
// * * * * * * * * * * * * * * * * * * * * * * * * * * * * * * * * * * * * * //

dimensions      [0 2 -2 0 0 0 0];

internalField   nonuniform List<scalar> 
404911
(
-0.592873
-0.591591
-0.589562
-0.572312
-0.59397
-0.592172
-0.58856
-0.580749
-0.576077
-0.573968
-0.604109
-0.602296
-0.600483
-0.597014
-0.594152
-0.589703
-0.607227
-0.605485
-0.603053
-0.600549
-0.610929
-0.609048
-0.607256
-0.615093
-0.613382
-0.612184
-0.619438
-0.617629
-0.616377
-0.623813
-0.622531
-0.620388
-0.619343
-0.616546
-0.62709
-0.624833
-0.622886
-0.633356
-0.631922
-0.63013
-0.628269
-0.635984
-0.634376
-0.633244
-0.632442
-0.630826
-0.638543
-0.636814
-0.634657
-0.633508
-0.64122
-0.640946
-0.638716
-0.636605
-0.640796
-0.641523
-0.656863
-0.593292
-0.594034
-0.593741
-0.601894
-0.599749
-0.607877
-0.605634
-0.603459
-0.610788
-0.609004
-0.606256
-0.614941
-0.612826
-0.619367
-0.617408
-0.615387
-0.622284
-0.620724
-0.61714
-0.616106
-0.627413
-0.624405
-0.631618
-0.630047
-0.635918
-0.634149
-0.632413
-0.638923
-0.637619
-0.642802
-0.641292
-0.63746
-0.643672
-0.642344
-0.659635
-0.659561
-0.657405
-0.666215
-0.664318
-0.661335
-0.670308
-0.66937
-0.665909
-0.672296
-0.672175
-0.670936
-0.672364
-0.25907
-0.255339
-0.251263
-0.276855
-0.268098
-0.269692
-0.263104
-0.261245
-0.257777
-0.255096
-0.253482
-0.285013
-0.283354
-0.275384
-0.269541
-0.265596
-0.263442
-0.260819
-0.256502
-0.242914
-0.3013
-0.296943
-0.291843
-0.287853
-0.284466
-0.282082
-0.278545
-0.27305
-0.267575
-0.266263
-0.264619
-0.260575
-0.253918
-0.254626
-0.245244
-0.243178
-0.311679
-0.307679
-0.303306
-0.299197
-0.294634
-0.29004
-0.286184
-0.283511
-0.281707
-0.275069
-0.270693
-0.269173
-0.266775
-0.264309
-0.246401
-0.321589
-0.317514
-0.312803
-0.30896
-0.304467
-0.300573
-0.295958
-0.291262
-0.286966
-0.28383
-0.281242
-0.277428
-0.272334
-0.271657
-0.270292
-0.327262
-0.324168
-0.320079
-0.315467
-0.311449
-0.306113
-0.302362
-0.298009
-0.293631
-0.289045
-0.285325
-0.281904
-0.278188
-0.275196
-0.271902
-0.267427
-0.33713
-0.333517
-0.329701
-0.326053
-0.321638
-0.318362
-0.313586
-0.307802
-0.304254
-0.299708
-0.296307
-0.292086
-0.288455
-0.284763
-0.281208
-0.277363
-0.273792
-0.352313
-0.348011
-0.345196
-0.340973
-0.336079
-0.33134
-0.327499
-0.324262
-0.321188
-0.317079
-0.309666
-0.305648
-0.302203
-0.298811
-0.295116
-0.291549
-0.287345
-0.283269
-0.360732
-0.355711
-0.351802
-0.347478
-0.342978
-0.33832
-0.334074
-0.330417
-0.32641
-0.323109
-0.318699
-0.313991
-0.307699
-0.304726
-0.301463
-0.297989
-0.293255
-0.29017
-0.3704
-0.367491
-0.364359
-0.360426
-0.355345
-0.350919
-0.346014
-0.341347
-0.336944
-0.332432
-0.329227
-0.325799
-0.321647
-0.317155
-0.31173
-0.306751
-0.30384
-0.300368
-0.376705
-0.373121
-0.369775
-0.367051
-0.362796
-0.358191
-0.354488
-0.350499
-0.345002
-0.340659
-0.335728
-0.331975
-0.328729
-0.32491
-0.320878
-0.31585
-0.311463
-0.38544
-0.383012
-0.379868
-0.376572
-0.372302
-0.368646
-0.365279
-0.36136
-0.358036
-0.354122
-0.349179
-0.343891
-0.338996
-0.335366
-0.331369
-0.327469
-0.323568
-0.391471
-0.389353
-0.387663
-0.385424
-0.382738
-0.378754
-0.37446
-0.370071
-0.368445
-0.36619
-0.361217
-0.356731
-0.351125
-0.345906
-0.34229
-0.338257
-0.333453
-0.329761
-0.403255
-0.400833
-0.394472
-0.391314
-0.388548
-0.38741
-0.384524
-0.379978
-0.3749
-0.372701
-0.370338
-0.367503
-0.363833
-0.358795
-0.353379
-0.348596
-0.344665
-0.340048
-0.41156
-0.408922
-0.405948
-0.403077
-0.397019
-0.393598
-0.391133
-0.388926
-0.386547
-0.381341
-0.376625
-0.373184
-0.371155
-0.367403
-0.363874
-0.360687
-0.355929
-0.351415
-0.416832
-0.414102
-0.411292
-0.408333
-0.405467
-0.399333
-0.39552
-0.393218
-0.39047
-0.38831
-0.382559
-0.378026
-0.375627
-0.373154
-0.370127
-0.364445
-0.360051
-0.358907
-0.425116
-0.422813
-0.419809
-0.416218
-0.412954
-0.409604
-0.406232
-0.401979
-0.398049
-0.395329
-0.392559
-0.390081
-0.385848
-0.380884
-0.377192
-0.376027
-0.3745
-0.370343
-0.428707
-0.426329
-0.424354
-0.421593
-0.417478
-0.41412
-0.411315
-0.407461
-0.403712
-0.401485
-0.399615
-0.39573
-0.39086
-0.387218
-0.383929
-0.37934
-0.376512
-0.374832
-0.439131
-0.435646
-0.431656
-0.429178
-0.426339
-0.423685
-0.420301
-0.415584
-0.412692
-0.409271
-0.405525
-0.403697
-0.402111
-0.399002
-0.393822
-0.389798
-0.385882
-0.383256
-0.441881
-0.440986
-0.438217
-0.433027
-0.431173
-0.428552
-0.426208
-0.423552
-0.418926
-0.415741
-0.411742
-0.407741
-0.405806
-0.404256
-0.401097
-0.397017
-0.394056
-0.449334
-0.447747
-0.445169
-0.44329
-0.440691
-0.436816
-0.434156
-0.431998
-0.429489
-0.426196
-0.42202
-0.417997
-0.414602
-0.410012
-0.408188
-0.405833
-0.403306
-0.40013
-0.452563
-0.451402
-0.449381
-0.447242
-0.44551
-0.443809
-0.440397
-0.437528
-0.434788
-0.432163
-0.429069
-0.425328
-0.420857
-0.416681
-0.412494
-0.410089
-0.408762
-0.405705
-0.456061
-0.454955
-0.453402
-0.4513
-0.449229
-0.447153
-0.445024
-0.442203
-0.439977
-0.437968
-0.435139
-0.431227
-0.426971
-0.423144
-0.418964
-0.414109
-0.413211
-0.40967
-0.460171
-0.460043
-0.458548
-0.456683
-0.454616
-0.453132
-0.452324
-0.44866
-0.445716
-0.443372
-0.441548
-0.439994
-0.4382
-0.435319
-0.429911
-0.425131
-0.42203
-0.418718
-0.466251
-0.464637
-0.462763
-0.461371
-0.460063
-0.458589
-0.455939
-0.45413
-0.453094
-0.450114
-0.447286
-0.444919
-0.442352
-0.441276
-0.439734
-0.436833
-0.433761
-0.428943
-0.469223
-0.468397
-0.466479
-0.464891
-0.463524
-0.462221
-0.460852
-0.458521
-0.454575
-0.453609
-0.451317
-0.448891
-0.446397
-0.443683
-0.442696
-0.441227
-0.438772
-0.436301
-0.475707
-0.473599
-0.471762
-0.469946
-0.468501
-0.466646
-0.465017
-0.463902
-0.463145
-0.462382
-0.455248
-0.452665
-0.451467
-0.449412
-0.447437
-0.445518
-0.446378
-0.441561
-0.478719
-0.476611
-0.47534
-0.473547
-0.471788
-0.470082
-0.468092
-0.466237
-0.464998
-0.464695
-0.464875
-0.46179
-0.456483
-0.453158
-0.45046
-0.448194
-0.448
-0.446003
-0.4816
-0.479684
-0.477968
-0.476613
-0.474943
-0.473295
-0.471428
-0.469311
-0.467483
-0.466231
-0.465866
-0.465496
-0.463774
-0.460373
-0.457076
-0.45385
-0.451573
-0.450888
-0.484789
-0.48412
-0.481206
-0.479746
-0.477807
-0.476549
-0.4749
-0.472771
-0.470719
-0.469164
-0.467862
-0.467085
-0.466424
-0.464941
-0.462803
-0.459967
-0.457078
-0.454668
-0.491592
-0.488113
-0.487289
-0.486865
-0.484139
-0.481517
-0.479588
-0.478915
-0.477245
-0.475376
-0.472068
-0.470843
-0.469533
-0.46842
-0.467506
-0.46588
-0.46432
-0.462802
-0.49324
-0.49276
-0.491078
-0.48905
-0.487718
-0.486152
-0.483991
-0.481939
-0.481263
-0.479448
-0.477644
-0.474204
-0.472821
-0.471403
-0.469946
-0.468666
-0.467307
-0.465387
-0.496651
-0.495574
-0.494177
-0.492305
-0.490409
-0.488614
-0.487163
-0.485297
-0.483403
-0.482094
-0.480689
-0.478997
-0.476934
-0.475147
-0.473356
-0.471387
-0.469201
-0.467905
-0.501807
-0.498713
-0.496977
-0.495864
-0.494445
-0.492618
-0.490413
-0.488372
-0.486528
-0.484671
-0.483145
-0.481711
-0.480246
-0.478625
-0.47706
-0.475349
-0.47299
-0.505036
-0.505251
-0.502844
-0.500837
-0.498436
-0.497198
-0.496164
-0.495055
-0.492925
-0.490118
-0.488013
-0.486305
-0.48481
-0.483351
-0.481827
-0.480432
-0.478783
-0.477947
-0.50765
-0.507361
-0.506521
-0.504694
-0.502296
-0.500048
-0.499136
-0.497669
-0.496217
-0.494428
-0.491966
-0.489675
-0.488157
-0.486714
-0.485144
-0.483618
-0.482307
-0.480263
-0.51161
-0.510181
-0.509609
-0.508433
-0.507148
-0.504197
-0.501455
-0.501467
-0.499363
-0.498088
-0.496628
-0.494408
-0.491503
-0.489942
-0.48845
-0.486697
-0.484427
-0.483215
-0.514582
-0.514618
-0.513479
-0.512132
-0.511134
-0.510519
-0.510223
-0.508435
-0.503737
-0.503152
-0.501408
-0.499815
-0.498168
-0.49638
-0.493497
-0.491849
-0.490426
-0.488607
-0.519078
-0.517703
-0.515945
-0.515026
-0.513743
-0.512792
-0.512252
-0.512388
-0.512103
-0.507464
-0.505341
-0.503423
-0.501529
-0.500158
-0.498358
-0.495921
-0.493932
-0.493144
-0.522665
-0.52098
-0.519608
-0.517914
-0.516687
-0.515637
-0.514605
-0.513613
-0.513758
-0.514598
-0.51092
-0.508088
-0.505321
-0.503235
-0.501787
-0.50009
-0.497893
-0.496321
-0.528324
-0.524008
-0.52301
-0.521325
-0.519675
-0.518559
-0.517649
-0.516589
-0.515001
-0.513974
-0.513917
-0.511723
-0.51006
-0.507732
-0.505127
-0.503375
-0.501517
-0.500526
-0.529775
-0.528167
-0.526866
-0.524784
-0.523319
-0.52182
-0.520627
-0.519853
-0.519157
-0.517437
-0.514286
-0.513282
-0.512363
-0.511527
-0.509558
-0.507361
-0.505765
-0.533681
-0.533991
-0.531755
-0.530874
-0.529178
-0.527212
-0.525311
-0.523777
-0.522517
-0.521704
-0.521503
-0.52117
-0.51662
-0.512644
-0.512422
-0.512373
-0.510922
-0.509085
-0.538597
-0.537012
-0.535549
-0.533859
-0.53268
-0.531159
-0.529528
-0.52693
-0.525131
-0.524013
-0.523216
-0.523078
-0.523091
-0.520652
-0.51519
-0.514077
-0.513103
-0.512631
-0.541768
-0.540623
-0.539332
-0.537713
-0.536123
-0.534662
-0.533247
-0.532467
-0.529087
-0.52739
-0.525157
-0.524641
-0.524249
-0.523815
-0.522664
-0.520009
-0.517773
-0.516587
-0.545852
-0.544431
-0.542911
-0.541394
-0.539597
-0.537926
-0.536234
-0.534897
-0.534745
-0.532814
-0.530089
-0.527152
-0.526258
-0.525698
-0.525045
-0.524025
-0.522557
-0.521029
-0.549159
-0.548103
-0.546543
-0.545041
-0.543291
-0.541351
-0.539366
-0.537518
-0.536027
-0.535058
-0.53403
-0.532094
-0.529963
-0.528612
-0.527632
-0.526745
-0.525259
-0.524964
-0.552453
-0.550398
-0.549254
-0.548162
-0.546751
-0.544899
-0.542892
-0.540806
-0.538824
-0.537255
-0.536061
-0.534909
-0.533555
-0.532184
-0.530833
-0.52969
-0.528403
-0.527139
-0.556363
-0.554061
-0.551902
-0.550226
-0.549327
-0.548076
-0.546364
-0.544488
-0.542562
-0.540635
-0.539014
-0.537716
-0.536581
-0.535353
-0.534125
-0.532863
-0.531987
-0.531189
-0.558728
-0.558147
-0.55605
-0.55318
-0.551251
-0.550452
-0.549393
-0.547919
-0.54603
-0.544113
-0.542237
-0.54073
-0.539592
-0.538418
-0.537214
-0.536094
-0.535093
-0.533293
-0.563242
-0.562089
-0.5614
-0.559866
-0.558695
-0.556271
-0.552914
-0.55215
-0.550946
-0.549667
-0.548207
-0.546223
-0.544278
-0.542338
-0.541325
-0.540249
-0.539107
-0.537918
-0.536734
-0.566323
-0.564329
-0.563048
-0.56203
-0.561873
-0.561363
-0.560568
-0.556145
-0.554192
-0.552733
-0.551319
-0.549808
-0.548133
-0.546047
-0.544139
-0.543116
-0.542023
-0.540588
-0.567297
-0.56644
-0.565275
-0.564295
-0.563666
-0.56329
-0.56297
-0.560627
-0.557062
-0.554416
-0.552531
-0.55109
-0.549748
-0.548041
-0.546338
-0.545271
-0.543674
-0.573098
-0.571371
-0.569435
-0.568232
-0.56694
-0.565815
-0.564904
-0.564578
-0.564407
-0.562569
-0.558992
-0.556283
-0.554137
-0.552471
-0.551142
-0.549758
-0.548501
-0.547813
-0.576891
-0.575274
-0.573041
-0.571356
-0.569882
-0.5684
-0.566929
-0.565622
-0.564983
-0.564174
-0.562523
-0.560237
-0.557951
-0.555606
-0.5541
-0.552834
-0.551542
-0.551541
-0.581422
-0.578615
-0.576878
-0.574858
-0.573122
-0.571558
-0.570069
-0.568247
-0.566205
-0.565401
-0.564415
-0.5631
-0.56163
-0.559456
-0.557641
-0.556045
-0.554863
-0.553056
-0.581463
-0.579966
-0.578346
-0.576549
-0.574809
-0.57332
-0.572057
-0.570764
-0.567949
-0.566063
-0.565231
-0.564718
-0.563408
-0.561613
-0.559872
-0.558515
-0.557192
-0.584346
-0.583157
-0.581172
-0.579941
-0.578238
-0.576469
-0.575122
-0.573968
-0.572644
-0.570417
-0.568242
-0.566779
-0.566004
-0.56475
-0.56325
-0.561643
-0.560418
-0.58973
-0.58817
-0.586171
-0.585003
-0.582881
-0.581775
-0.580076
-0.578258
-0.576657
-0.575748
-0.574291
-0.57275
-0.570497
-0.568972
-0.567687
-0.566389
-0.564919
-0.563386
-0.593841
-0.592525
-0.590813
-0.588765
-0.586993
-0.585217
-0.58372
-0.582125
-0.580211
-0.578015
-0.577125
-0.576004
-0.574842
-0.572785
-0.57104
-0.569779
-0.567563
-0.596999
-0.59501
-0.593615
-0.59207
-0.590344
-0.588632
-0.586806
-0.58548
-0.584123
-0.582558
-0.580329
-0.578726
-0.57717
-0.576009
-0.574569
-0.573073
-0.571572
-0.6008
-0.599787
-0.598077
-0.596311
-0.594858
-0.59319
-0.591641
-0.590369
-0.588321
-0.586896
-0.585547
-0.583944
-0.582448
-0.580867
-0.579004
-0.577665
-0.576255
-0.574888
-0.603899
-0.602452
-0.600985
-0.599296
-0.597646
-0.595774
-0.59409
-0.592534
-0.590987
-0.589497
-0.588216
-0.587075
-0.585152
-0.583646
-0.582263
-0.580753
-0.579255
-0.577502
-0.608097
-0.605669
-0.603953
-0.602482
-0.600601
-0.598543
-0.596522
-0.59541
-0.593868
-0.592197
-0.590683
-0.589255
-0.588019
-0.586687
-0.585144
-0.583593
-0.582423
-0.581177
-0.61047
-0.609409
-0.607458
-0.605586
-0.603603
-0.601847
-0.600012
-0.597672
-0.596328
-0.595328
-0.593891
-0.592055
-0.590163
-0.588665
-0.58705
-0.585893
-0.584967
-0.58386
-0.614082
-0.613935
-0.612669
-0.610202
-0.608728
-0.606648
-0.604756
-0.603231
-0.601612
-0.599629
-0.598187
-0.597045
-0.595274
-0.593176
-0.591719
-0.589912
-0.588522
-0.587372
-0.586505
-0.617253
-0.616899
-0.616039
-0.614255
-0.611886
-0.610189
-0.608114
-0.606242
-0.604525
-0.603046
-0.601282
-0.600189
-0.599231
-0.597849
-0.5961
-0.594029
-0.591756
-0.591265
-0.590146
-0.621976
-0.619064
-0.617962
-0.615986
-0.613578
-0.611671
-0.609972
-0.607794
-0.605831
-0.604341
-0.602757
-0.601622
-0.600622
-0.599282
-0.597842
-0.596187
-0.594187
-0.59291
-0.624894
-0.622589
-0.620515
-0.619281
-0.617379
-0.61573
-0.613902
-0.611942
-0.609858
-0.607695
-0.605743
-0.604166
-0.603314
-0.602236
-0.600911
-0.599617
-0.598397
-0.629817
-0.627328
-0.624283
-0.622217
-0.620689
-0.619256
-0.617724
-0.616229
-0.614148
-0.611954
-0.609853
-0.607918
-0.606401
-0.605166
-0.603892
-0.60241
-0.602408
-0.634741
-0.63239
-0.62976
-0.626694
-0.624307
-0.622982
-0.621293
-0.619587
-0.618013
-0.616137
-0.614048
-0.611833
-0.609868
-0.608509
-0.607162
-0.605881
-0.604426
-0.641664
-0.63952
-0.637465
-0.635197
-0.632183
-0.629344
-0.627119
-0.625346
-0.623373
-0.621622
-0.620389
-0.618085
-0.616059
-0.613492
-0.611905
-0.610514
-0.609004
-0.606849
-0.645685
-0.643493
-0.641589
-0.639119
-0.637329
-0.634712
-0.632616
-0.630641
-0.628186
-0.625756
-0.623521
-0.621553
-0.619416
-0.617737
-0.615852
-0.614532
-0.61318
-0.650514
-0.648328
-0.646516
-0.643842
-0.641441
-0.639422
-0.636937
-0.634656
-0.632998
-0.630569
-0.627877
-0.625444
-0.623348
-0.621958
-0.619926
-0.618649
-0.617426
-0.655673
-0.653044
-0.651192
-0.648656
-0.64553
-0.643167
-0.641102
-0.638981
-0.636684
-0.634929
-0.632264
-0.629647
-0.627604
-0.625606
-0.623911
-0.622034
-0.620543
-0.660242
-0.657888
-0.65584
-0.653333
-0.650834
-0.647389
-0.645529
-0.643372
-0.640791
-0.638802
-0.636519
-0.634272
-0.631974
-0.630065
-0.628147
-0.625958
-0.624359
-0.664999
-0.662891
-0.660634
-0.658272
-0.655865
-0.653381
-0.65106
-0.647726
-0.645267
-0.643695
-0.641585
-0.639095
-0.636798
-0.634642
-0.632767
-0.631208
-0.628624
-0.668301
-0.667551
-0.665812
-0.662554
-0.659775
-0.658084
-0.656586
-0.654336
-0.651271
-0.648779
-0.646586
-0.644541
-0.642308
-0.639652
-0.637365
-0.635279
-0.634429
-0.671985
-0.66927
-0.667861
-0.664752
-0.661961
-0.659833
-0.658323
-0.656597
-0.653741
-0.651219
-0.649009
-0.646968
-0.644812
-0.642497
-0.639364
-0.638183
-0.676144
-0.673926
-0.671711
-0.669429
-0.666934
-0.664462
-0.662041
-0.660317
-0.658709
-0.656556
-0.654032
-0.651497
-0.649442
-0.647554
-0.645051
-0.686182
-0.683266
-0.679877
-0.676875
-0.673818
-0.671685
-0.669657
-0.66744
-0.664347
-0.662073
-0.660268
-0.658508
-0.656517
-0.65434
-0.652304
-0.650137
-0.694643
-0.689329
-0.685959
-0.683886
-0.681058
-0.676921
-0.67398
-0.672332
-0.670516
-0.667776
-0.665271
-0.663224
-0.660721
-0.65896
-0.656916
-0.655232
-0.701365
-0.698426
-0.694362
-0.689771
-0.687183
-0.684424
-0.680624
-0.67716
-0.674644
-0.672763
-0.671073
-0.668844
-0.666522
-0.663759
-0.660808
-0.659744
-0.710466
-0.708963
-0.706326
-0.702716
-0.699283
-0.693355
-0.689358
-0.686325
-0.684001
-0.681428
-0.678529
-0.674987
-0.673237
-0.671586
-0.669983
-0.667184
-0.719371
-0.715817
-0.71326
-0.710268
-0.706441
-0.702214
-0.697133
-0.692598
-0.68852
-0.686321
-0.684029
-0.680368
-0.677149
-0.675555
-0.67447
-0.672521
-0.725204
-0.72179
-0.719124
-0.716318
-0.71334
-0.709584
-0.703748
-0.700719
-0.696848
-0.693587
-0.691986
-0.687803
-0.68123
-0.676309
-0.676237
-0.676463
-0.732977
-0.728937
-0.723621
-0.71941
-0.718056
-0.715068
-0.710802
-0.704149
-0.701154
-0.698562
-0.697416
-0.696049
-0.692546
-0.687989
-0.681835
-0.67762
-0.742382
-0.738239
-0.733041
-0.728963
-0.723842
-0.719819
-0.717404
-0.714491
-0.70752
-0.703775
-0.701279
-0.699987
-0.698132
-0.695868
-0.693269
-0.689179
-0.752318
-0.747502
-0.742866
-0.737763
-0.73379
-0.729508
-0.723586
-0.720141
-0.716418
-0.711072
-0.70643
-0.70325
-0.702473
-0.701394
-0.698923
-0.760574
-0.756917
-0.752742
-0.747648
-0.742952
-0.739603
-0.734139
-0.729197
-0.725381
-0.721348
-0.7154
-0.710583
-0.706509
-0.705326
-0.704056
-0.702878
-0.767038
-0.763836
-0.760959
-0.756928
-0.751516
-0.746837
-0.743406
-0.738636
-0.734809
-0.729354
-0.724968
-0.719692
-0.715431
-0.71069
-0.709079
-0.705754
-0.772107
-0.770008
-0.766998
-0.764072
-0.760823
-0.754916
-0.749497
-0.746094
-0.743231
-0.73815
-0.733241
-0.728929
-0.725134
-0.720918
-0.717203
-0.776173
-0.772886
-0.770243
-0.766101
-0.763359
-0.757447
-0.752305
-0.74802
-0.744889
-0.74034
-0.736148
-0.732278
-0.72873
-0.725079
-0.787291
-0.781712
-0.776616
-0.774327
-0.769045
-0.769611
-0.760436
-0.756139
-0.752056
-0.747912
-0.744574
-0.740673
-0.735813
-0.797244
-0.794563
-0.790624
-0.786895
-0.780775
-0.776374
-0.773757
-0.768643
-0.764683
-0.760438
-0.756267
-0.752913
-0.748615
-0.745856
-0.804127
-0.800145
-0.796744
-0.793348
-0.790046
-0.785704
-0.778638
-0.774965
-0.77265
-0.768022
-0.763624
-0.760386
-0.756495
-0.752416
-0.812789
-0.808161
-0.80341
-0.798308
-0.796561
-0.793473
-0.788522
-0.783837
-0.778386
-0.775039
-0.770856
-0.766727
-0.764205
-0.759899
-0.821273
-0.81715
-0.813135
-0.807521
-0.804565
-0.80061
-0.795372
-0.791736
-0.786716
-0.781871
-0.777958
-0.775074
-0.770946
-0.76652
-0.829068
-0.824811
-0.821201
-0.817472
-0.81141
-0.814906
-0.803556
-0.798083
-0.792817
-0.789151
-0.784944
-0.780964
-0.776512
-0.774996
-0.835494
-0.831828
-0.826954
-0.8247
-0.820402
-0.816018
-0.819697
-0.80844
-0.799676
-0.793811
-0.791118
-0.787604
-0.782611
-0.827505
-0.826009
-0.823105
-0.819366
-0.814043
-0.807871
-0.800507
-0.795999
-0.793385
-0.830956
-0.831356
-0.828312
-0.823961
-0.816885
-0.812432
-0.805328
-0.802439
-0.838595
-0.833377
-0.832489
-0.830593
-0.82815
-0.823684
-0.816938
-0.847635
-0.843458
-0.838296
-0.834471
-0.833271
-0.832125
-0.829124
-0.847381
-0.842627
-0.839065
-0.836986
-0.834218
-0.861994
-0.857021
-0.849301
-0.845209
-0.842394
-0.840218
-0.889646
-0.88901
-0.870094
-0.865707
-0.850225
-0.887202
-0.882341
-0.880351
-0.878993
-0.878127
-0.870685
-0.891402
-0.880899
-0.882239
-0.880522
-0.87475
-0.894427
-0.885442
-0.882836
-0.0774266
-0.0653223
-0.0497552
-0.096939
-0.100613
-0.0944678
-0.0831124
-0.0779646
-0.0761067
-0.0802069
-0.0386503
-0.0578793
-0.125912
-0.12061
-0.120269
-0.108698
-0.105204
-0.0983795
-0.0891817
-0.0845398
-0.0795447
-0.0731111
-0.0814941
-0.0657262
-0.0619219
-0.0682072
-0.0533553
-0.145298
-0.14167
-0.132836
-0.130208
-0.122176
-0.120788
-0.113743
-0.104539
-0.100057
-0.0934806
-0.0881713
-0.0865938
-0.0807556
-0.0766484
-0.0710509
-0.06084
-0.0575766
-0.0563656
-0.0374318
-0.0430555
-0.0353125
-0.0295007
-0.159448
-0.155037
-0.148897
-0.145455
-0.14343
-0.137397
-0.132502
-0.127764
-0.121563
-0.114536
-0.10828
-0.101457
-0.0961376
-0.0935551
-0.0967685
-0.0783923
-0.0752408
-0.0689456
-0.0618364
-0.0550649
-0.046715
-0.0425253
-0.0395645
-0.170436
-0.169195
-0.16322
-0.160361
-0.154058
-0.150708
-0.146715
-0.143047
-0.139203
-0.134325
-0.129511
-0.122717
-0.116171
-0.109729
-0.10593
-0.100215
-0.10125
-0.0960481
-0.0899822
-0.0756129
-0.0712298
-0.0646102
-0.0562918
-0.0471646
-0.0404401
-0.183931
-0.180027
-0.173556
-0.169079
-0.164603
-0.162903
-0.158897
-0.151479
-0.14611
-0.142973
-0.140255
-0.136812
-0.133048
-0.125445
-0.116578
-0.1119
-0.107415
-0.103425
-0.104875
-0.107105
-0.0956505
-0.0777743
-0.0733521
-0.0670926
-0.0587222
-0.195163
-0.191748
-0.185776
-0.181733
-0.176284
-0.169844
-0.165412
-0.163052
-0.159075
-0.155377
-0.15001
-0.143664
-0.141866
-0.139615
-0.138026
-0.133011
-0.119665
-0.113702
-0.110138
-0.106945
-0.106412
-0.105341
-0.0988113
-0.0841509
-0.078429
-0.201351
-0.201152
-0.198746
-0.193636
-0.187192
-0.183894
-0.180353
-0.172275
-0.165953
-0.164483
-0.160298
-0.157748
-0.153409
-0.148133
-0.143247
-0.141112
-0.142253
-0.136206
-0.124775
-0.117339
-0.113647
-0.110314
-0.106378
-0.103673
-0.0982821
-0.213987
-0.215219
-0.211086
-0.206013
-0.203393
-0.199859
-0.194002
-0.189637
-0.185801
-0.183201
-0.176731
-0.167278
-0.164262
-0.161021
-0.1575
-0.153388
-0.147157
-0.14293
-0.143293
-0.142957
-0.138992
-0.128831
-0.123339
-0.116729
-0.112336
-0.110812
-0.226529
-0.223393
-0.219557
-0.218375
-0.215314
-0.212463
-0.208999
-0.204502
-0.200555
-0.196599
-0.193172
-0.187905
-0.184464
-0.178091
-0.170806
-0.165772
-0.161029
-0.15701
-0.152656
-0.151155
-0.147601
-0.144993
-0.141685
-0.135893
-0.130024
-0.125654
-0.120247
-0.231154
-0.228562
-0.224592
-0.221756
-0.22011
-0.217493
-0.213416
-0.210607
-0.206556
-0.203232
-0.199195
-0.195399
-0.19132
-0.187623
-0.179524
-0.174092
-0.16871
-0.163059
-0.158381
-0.153646
-0.152787
-0.154204
-0.148732
-0.146185
-0.140003
-0.245183
-0.242364
-0.237868
-0.23294
-0.230807
-0.226236
-0.22342
-0.220193
-0.21782
-0.21485
-0.211444
-0.207816
-0.204249
-0.200931
-0.197334
-0.193912
-0.190015
-0.181551
-0.177081
-0.17187
-0.165997
-0.161005
-0.158725
-0.160868
-0.158788
-0.250213
-0.24624
-0.243033
-0.239277
-0.236859
-0.237084
-0.229531
-0.22516
-0.220528
-0.216622
-0.215285
-0.211824
-0.207887
-0.204428
-0.20139
-0.198563
-0.195211
-0.191015
-0.183426
-0.179714
-0.174883
-0.169248
-0.164291
-0.163569
-0.264349
-0.260325
-0.261205
-0.254867
-0.249255
-0.245055
-0.241179
-0.23801
-0.235281
-0.230257
-0.226268
-0.222364
-0.217929
-0.214736
-0.212377
-0.208446
-0.205038
-0.202775
-0.199968
-0.19633
-0.191616
-0.185818
-0.182
-0.17699
-0.173285
-0.271594
-0.269854
-0.267104
-0.263076
-0.261657
-0.25772
-0.252988
-0.249269
-0.247296
-0.238648
-0.232872
-0.230336
-0.227098
-0.223112
-0.219879
-0.216758
-0.213313
-0.210142
-0.207447
-0.205355
-0.202593
-0.198572
-0.191558
-0.188257
-0.1851
-0.282963
-0.279416
-0.275346
-0.271717
-0.268175
-0.264866
-0.261763
-0.259324
-0.255825
-0.253301
-0.250543
-0.241879
-0.231409
-0.230186
-0.227573
-0.224721
-0.221399
-0.217899
-0.214792
-0.211567
-0.208532
-0.205916
-0.203875
-0.200833
-0.195824
-0.298398
-0.295417
-0.289459
-0.285904
-0.282327
-0.278458
-0.275382
-0.269959
-0.266865
-0.264205
-0.261862
-0.25884
-0.25677
-0.255065
-0.248631
-0.23541
-0.230009
-0.228206
-0.226874
-0.224205
-0.219251
-0.216171
-0.212938
-0.209623
-0.20697
-0.204208
-0.309866
-0.302847
-0.300429
-0.296935
-0.292685
-0.289308
-0.285598
-0.282165
-0.278675
-0.273279
-0.269686
-0.266652
-0.26451
-0.261868
-0.259139
-0.257282
-0.253496
-0.245886
-0.238552
-0.231619
-0.229095
-0.227102
-0.223074
-0.218165
-0.214201
-0.211331
-0.314894
-0.315952
-0.313322
-0.307997
-0.304103
-0.300344
-0.296048
-0.292084
-0.288403
-0.284958
-0.282064
-0.277327
-0.272679
-0.269195
-0.267415
-0.26497
-0.261044
-0.255292
-0.252162
-0.247544
-0.24199
-0.234634
-0.229281
-0.227582
-0.225384
-0.221401
-0.216502
-0.329262
-0.32364
-0.320914
-0.31873
-0.315383
-0.311356
-0.306882
-0.302575
-0.298355
-0.294302
-0.290417
-0.286785
-0.283439
-0.280194
-0.275434
-0.271914
-0.269986
-0.267659
-0.262426
-0.255558
-0.250435
-0.245359
-0.240489
-0.235163
-0.229908
-0.227316
-0.22714
-0.335259
-0.331469
-0.328251
-0.324872
-0.321664
-0.31766
-0.313382
-0.30873
-0.304172
-0.300002
-0.29606
-0.291983
-0.288042
-0.284559
-0.281174
-0.277529
-0.274306
-0.271764
-0.269304
-0.265731
-0.257465
-0.252322
-0.24582
-0.241975
-0.237527
-0.233807
-0.343472
-0.342824
-0.339075
-0.335192
-0.331277
-0.327561
-0.324072
-0.319908
-0.315422
-0.310728
-0.305877
-0.301528
-0.297876
-0.293852
-0.289807
-0.286255
-0.282963
-0.279596
-0.276437
-0.273286
-0.269768
-0.266403
-0.259062
-0.253391
-0.24956
-0.245897
-0.355488
-0.353083
-0.348094
-0.345262
-0.341873
-0.337892
-0.333815
-0.329945
-0.32606
-0.32195
-0.317667
-0.313148
-0.308265
-0.303575
-0.299723
-0.296033
-0.292118
-0.288636
-0.28532
-0.281927
-0.278601
-0.274936
-0.271955
-0.26821
-0.262265
-0.258108
-0.363103
-0.359325
-0.355955
-0.352383
-0.348377
-0.344741
-0.340684
-0.336619
-0.332258
-0.328152
-0.324154
-0.319954
-0.31552
-0.310539
-0.305723
-0.301923
-0.298425
-0.294807
-0.291278
-0.287858
-0.284335
-0.280933
-0.277396
-0.273568
-0.270149
-0.37357
-0.369333
-0.366479
-0.362968
-0.359687
-0.355714
-0.351378
-0.347418
-0.343318
-0.339021
-0.334718
-0.330593
-0.326648
-0.322574
-0.318315
-0.313504
-0.308488
-0.304585
-0.301183
-0.29753
-0.293733
-0.290237
-0.287258
-0.28411
-0.280059
-0.276352
-0.382961
-0.379586
-0.376759
-0.37319
-0.369981
-0.366496
-0.362945
-0.358787
-0.35449
-0.350325
-0.346085
-0.341781
-0.337474
-0.333365
-0.329465
-0.325614
-0.321619
-0.317271
-0.312029
-0.307423
-0.303915
-0.300352
-0.297261
-0.293679
-0.289793
-0.285466
-0.390435
-0.388871
-0.385962
-0.383226
-0.380055
-0.376407
-0.372904
-0.369281
-0.365442
-0.36138
-0.357418
-0.353465
-0.349172
-0.344891
-0.340618
-0.336484
-0.33254
-0.328705
-0.324552
-0.320349
-0.315282
-0.310315
-0.306223
-0.303255
-0.299669
-0.296266
-0.293509
-0.397336
-0.393851
-0.390556
-0.388398
-0.386042
-0.382901
-0.379325
-0.375536
-0.371617
-0.367655
-0.364057
-0.36048
-0.356581
-0.352201
-0.347857
-0.343561
-0.339446
-0.335499
-0.331529
-0.327174
-0.322778
-0.3181
-0.313677
-0.309382
-0.305815
-0.301708
-0.405447
-0.402347
-0.39925
-0.396164
-0.392614
-0.390298
-0.388175
-0.385314
-0.381856
-0.377753
-0.373545
-0.370099
-0.367122
-0.363844
-0.359599
-0.354918
-0.3504
-0.34593
-0.34182
-0.337879
-0.333834
-0.329856
-0.325566
-0.320961
-0.318654
-0.312868
-0.411859
-0.408479
-0.405381
-0.402794
-0.399155
-0.395065
-0.39242
-0.389807
-0.387483
-0.383903
-0.379525
-0.375164
-0.372001
-0.369635
-0.366426
-0.362088
-0.35745
-0.353034
-0.348569
-0.344545
-0.340787
-0.33726
-0.334166
-0.328676
-0.324812
-0.42027
-0.41738
-0.414372
-0.411697
-0.408535
-0.405874
-0.402228
-0.39782
-0.394138
-0.391441
-0.38921
-0.385876
-0.381355
-0.376826
-0.373448
-0.370791
-0.367455
-0.36385
-0.359477
-0.355406
-0.351457
-0.347542
-0.344249
-0.340898
-0.339125
-0.425386
-0.423093
-0.420501
-0.417199
-0.414088
-0.411035
-0.40814
-0.404619
-0.400145
-0.396222
-0.39345
-0.390989
-0.387962
-0.383552
-0.379056
-0.375916
-0.37314
-0.368962
-0.364873
-0.361118
-0.35787
-0.354563
-0.350976
-0.347672
-0.343304
-0.433754
-0.430575
-0.427607
-0.425644
-0.422772
-0.41964
-0.416102
-0.412846
-0.409732
-0.406191
-0.402169
-0.398715
-0.395877
-0.39317
-0.39001
-0.386091
-0.381828
-0.378065
-0.375473
-0.372508
-0.368417
-0.364967
-0.362113
-0.358003
-0.354608
-0.438253
-0.43587
-0.43229
-0.429444
-0.427282
-0.424805
-0.421666
-0.418109
-0.414408
-0.410968
-0.407537
-0.40417
-0.401415
-0.398774
-0.395629
-0.391846
-0.388065
-0.383919
-0.379901
-0.377334
-0.374808
-0.371902
-0.368211
-0.365015
-0.36135
-0.445654
-0.44327
-0.441041
-0.438482
-0.434976
-0.432147
-0.42977
-0.426902
-0.423948
-0.420416
-0.416441
-0.412682
-0.40922
-0.406055
-0.403682
-0.401456
-0.398539
-0.394459
-0.390082
-0.38598
-0.382666
-0.379607
-0.376776
-0.37374
-0.371414
-0.448883
-0.447187
-0.445318
-0.443402
-0.440994
-0.437967
-0.435073
-0.432605
-0.429585
-0.426465
-0.423026
-0.419131
-0.415048
-0.411246
-0.408069
-0.405842
-0.403784
-0.400988
-0.397259
-0.39325
-0.389077
-0.385824
-0.382991
-0.381428
-0.453861
-0.453061
-0.451301
-0.449705
-0.447568
-0.445607
-0.443481
-0.440969
-0.438159
-0.436077
-0.433134
-0.429714
-0.426041
-0.422022
-0.417672
-0.413707
-0.410268
-0.408058
-0.405973
-0.403083
-0.39953
-0.395924
-0.392251
-0.38848
-0.386138
-0.457524
-0.456435
-0.454646
-0.452932
-0.451283
-0.449184
-0.447286
-0.445513
-0.44337
-0.440896
-0.439017
-0.436366
-0.43299
-0.429205
-0.425273
-0.420785
-0.416316
-0.412566
-0.410108
-0.408005
-0.405126
-0.401726
-0.398194
-0.395503
-0.462008
-0.461001
-0.459215
-0.458072
-0.456365
-0.454575
-0.452685
-0.450747
-0.44895
-0.447137
-0.444865
-0.442686
-0.440958
-0.438714
-0.43567
-0.431862
-0.427774
-0.423381
-0.41904
-0.415238
-0.41249
-0.410247
-0.407944
-0.40454
-0.400995
-0.465284
-0.464175
-0.462493
-0.461004
-0.459586
-0.457901
-0.456052
-0.453959
-0.452292
-0.450661
-0.448636
-0.446198
-0.444145
-0.442454
-0.440608
-0.438243
-0.434898
-0.430444
-0.425938
-0.422118
-0.41881
-0.415794
-0.412448
-0.410329
-0.470725
-0.469336
-0.467597
-0.46622
-0.464292
-0.462852
-0.461313
-0.459595
-0.457742
-0.455388
-0.453823
-0.452236
-0.450049
-0.447673
-0.445634
-0.443813
-0.442188
-0.440254
-0.437427
-0.433473
-0.429361
-0.425697
-0.422638
-0.418556
-0.415327
-0.47474
-0.473116
-0.471498
-0.469618
-0.467923
-0.466262
-0.4647
-0.463112
-0.461478
-0.459793
-0.457322
-0.455383
-0.453642
-0.451448
-0.449147
-0.447096
-0.445163
-0.443681
-0.441853
-0.439314
-0.436107
-0.432535
-0.428529
-0.425573
-0.47825
-0.476401
-0.475073
-0.473298
-0.471552
-0.469782
-0.46813
-0.466494
-0.464829
-0.463343
-0.462134
-0.460113
-0.456848
-0.454661
-0.452515
-0.450224
-0.448023
-0.446254
-0.445045
-0.443203
-0.440744
-0.438134
-0.435106
-0.431315
-0.48277
-0.481605
-0.480039
-0.478627
-0.476915
-0.47515
-0.473315
-0.471623
-0.469953
-0.468131
-0.466371
-0.464964
-0.464094
-0.463164
-0.460353
-0.456712
-0.453761
-0.451433
-0.449188
-0.447667
-0.446446
-0.444884
-0.442679
-0.440182
-0.437418
-0.486257
-0.48473
-0.483386
-0.481932
-0.480257
-0.478575
-0.476763
-0.474978
-0.473367
-0.47168
-0.469722
-0.467916
-0.46652
-0.465482