# vtk DataFile Version 2.0
track0
ASCII
DATASET POLYDATA
POINTS 12040 float
-0.0205 0.001 1e-05
-0.02052 0.000999985 1e-05
-0.02054 0.000999974 1e-05
-0.02056 0.000999965 1e-05
-0.02058 0.000999959 1e-05
-0.0206 0.000999956 1e-05
-0.0205 0.00367778 1e-05
-0.02052 0.00367778 1e-05
-0.02054 0.00367777 1e-05
-0.02056 0.00367777 1e-05
-0.02058 0.00367777 1e-05
-0.0206 0.00367777 1e-05
-0.0205 0.00635556 1e-05
-0.02052 0.00635555 1e-05
-0.02054 0.00635555 1e-05
-0.02056 0.00635555 1e-05
-0.02058 0.00635555 1e-05
-0.0206 0.00635555 1e-05
-0.0205 0.00903333 1e-05
-0.02052 0.00903333 1e-05
-0.02054 0.00903333 1e-05
-0.02056 0.00903333 1e-05
-0.02058 0.00903333 1e-05
-0.0206 0.00903333 1e-05
-0.0205 0.0117111 1e-05
-0.02052 0.0117111 1e-05
-0.02054 0.0117111 1e-05
-0.02056 0.0117111 1e-05
-0.02058 0.0117111 1e-05
-0.0206 0.0117111 1e-05
-0.0205 0.0143889 1e-05
-0.02052 0.0143889 1e-05
-0.02054 0.0143889 1e-05
-0.02056 0.0143889 1e-05
-0.02058 0.0143889 1e-05
-0.0206 0.0143889 1e-05
-0.0205 0.0170667 1e-05
-0.02052 0.0170667 1e-05
-0.02054 0.0170667 1e-05
-0.02056 0.0170667 1e-05
-0.02058 0.0170667 1e-05
-0.0206 0.0170667 1e-05
-0.0205 0.0197444 1e-05
-0.02052 0.0197444 1e-05
-0.02054 0.0197444 1e-05
-0.02056 0.0197444 1e-05
-0.02058 0.0197444 1e-05
-0.0206 0.0197444 1e-05
-0.0205 0.0224222 1e-05
-0.02052 0.0224222 1e-05
-0.02054 0.0224222 1e-05
-0.02056 0.0224222 1e-05
-0.02058 0.0224222 1e-05
-0.0206 0.0224222 1e-05
-0.0205 0.0251 1e-05
-0.02052 0.0250998 1e-05
-0.02054 0.0250997 1e-05
-0.02056 0.0250995 1e-05
-0.02058 0.0250995 1e-05
-0.0206 0.0250994 1e-05
-0.0205 0.001 1e-05
-0.0202034 0.00100022 1e-05
-0.0199069 0.00100067 1e-05
-0.0196103 0.00100133 1e-05
-0.0193137 0.00100219 1e-05
-0.0190172 0.00100326 1e-05
-0.0187132 0.00100467 1e-05
-0.0184093 0.00100589 1e-05
-0.0181054 0.00100711 1e-05
-0.0178015 0.00100832 1e-05
-0.0174976 0.00100954 1e-05
-0.0172058 0.00101083 1e-05
-0.016914 0.00101193 1e-05
-0.0166222 0.00101303 1e-05
-0.0163305 0.00101413 1e-05
-0.0160387 0.00101523 1e-05
-0.0157586 0.00101637 1e-05
-0.0154784 0.00101745 1e-05
-0.0151983 0.00101856 1e-05
-0.0149182 0.00101972 1e-05
-0.0146381 0.0010209 1e-05
-0.0143745 0.00102209 1e-05
-0.014111 0.00102327 1e-05
-0.0138474 0.00102449 1e-05
-0.0135839 0.00102574 1e-05
-0.0133613 0.00102682 1e-05
-0.0133478 0.00102688 1e-05
-0.0133342 0.00102695 1e-05
-0.0133206 0.00102702 1e-05
-0.013307 0.00102709 1e-05
-0.0132934 0.00102715 1e-05
-0.0130353 0.00102844 1e-05
-0.0127771 0.00102974 1e-05
-0.0125189 0.00103106 1e-05
-0.0122607 0.0010324 1e-05
-0.0120025 0.00103375 1e-05
-0.0117547 0.00103506 1e-05
-0.0115068 0.00103637 1e-05
-0.0112589 0.00103769 1e-05
-0.0110111 0.00103902 1e-05
-0.0107632 0.00104035 1e-05
-0.0105252 0.00104162 1e-05
-0.0102873 0.0010429 1e-05
-0.0100493 0.00104418 1e-05
-0.00981133 0.00104546 1e-05
-0.00957337 0.00104673 1e-05
-0.00934491 0.00104795 1e-05
-0.00911645 0.00104917 1e-05
-0.00888799 0.00105039 1e-05
-0.00865954 0.00105161 1e-05
-0.00843108 0.00105282 1e-05
-0.00821175 0.00105398 1e-05
-0.00799242 0.00105514 1e-05
-0.00777309 0.00105629 1e-05
-0.00755376 0.00105744 1e-05
-0.00733443 0.00105858 1e-05
-0.00712387 0.00105967 1e-05
-0.0069133 0.00106076 1e-05
-0.00670273 0.00106185 1e-05
-0.00649216 0.00106293 1e-05
-0.0062816 0.00106401 1e-05
-0.00607944 0.00106503 1e-05
-0.00587729 0.00106606 1e-05
-0.00567514 0.00106708 1e-05
-0.00547298 0.00106809 1e-05
-0.00527083 0.00106911 1e-05
-0.00507675 0.00107007 1e-05
-0.00488267 0.00107103 1e-05
-0.0046886 0.00107199 1e-05
-0.00449452 0.00107295 1e-05
-0.00430044 0.0010739 1e-05
-0.00411412 0.00107481 1e-05
-0.0039278 0.00107571 1e-05
-0.00374147 0.00107662 1e-05
-0.00355515 0.00107752 1e-05
-0.00336883 0.00107841 1e-05
-0.00318995 0.00107926 1e-05
-0.00301107 0.00108012 1e-05
-0.00283219 0.00108097 1e-05
-0.00265331 0.00108182 1e-05
-0.00247443 0.00108266 1e-05
-0.0023027 0.00108347 1e-05
-0.00213097 0.00108428 1e-05
-0.00195924 0.00108509 1e-05
-0.0017875 0.00108589 1e-05
-0.00161577 0.00108669 1e-05
-0.0014509 0.00108746 1e-05
-0.00128603 0.00108822 1e-05
-0.00112116 0.00108899 1e-05
-0.000956289 0.00108976 1e-05
-0.000791418 0.00109053 1e-05
-0.000633135 0.00109126 1e-05
-0.000474851 0.001092 1e-05
-0.000316567 0.00109273 1e-05
-0.000158284 0.00109347 1e-05
0 0.0010942 1e-05
0.000105677 0.00109469 1e-05
0.000211355 0.00109518 1e-05
0.000317032 0.00109566 1e-05
0.00042271 0.00109614 1e-05
0.000528387 0.00109662 1e-05
0.000634886 0.00109709 1e-05
0.000741385 0.00109756 1e-05
0.000847885 0.00109803 1e-05
0.000954384 0.0010985 1e-05
0.00106088 0.00109897 1e-05
0.00116821 0.00109943 1e-05
0.00127554 0.00109989 1e-05
0.00138286 0.00110034 1e-05
0.00149019 0.00110078 1e-05
0.00159752 0.00110122 1e-05
0.00170568 0.00110166 1e-05
0.00181384 0.00110209 1e-05
0.001922 0.00110251 1e-05
0.00203016 0.00110293 1e-05
0.00213833 0.00110333 1e-05
0.00224733 0.00110373 1e-05
0.00235633 0.00110412 1e-05
0.00246533 0.0011045 1e-05
0.00257434 0.00110488 1e-05
0.00268334 0.00110525 1e-05
0.00279319 0.0011056 1e-05
0.00290304 0.00110596 1e-05
0.00301289 0.0011063 1e-05
0.00312274 0.00110664 1e-05
0.00323259 0.00110697 1e-05
0.00334329 0.00110729 1e-05
0.003454 0.00110761 1e-05
0.0035647 0.00110792 1e-05
0.0036754 0.00110822 1e-05
0.00378611 0.00110852 1e-05
0.00389767 0.0011088 1e-05
0.00400924 0.00110908 1e-05
0.0041208 0.00110936 1e-05
0.00423237 0.00110962 1e-05
0.00434393 0.00110988 1e-05
0.00445636 0.00111013 1e-05
0.00456879 0.00111037 1e-05
0.00468123 0.00111061 1e-05
0.00479366 0.00111084 1e-05
0.00490609 0.00111106 1e-05
0.0050194 0.00111127 1e-05
0.0051327 0.00111148 1e-05
0.00524601 0.00111168 1e-05
0.00535932 0.00111187 1e-05
0.00547262 0.00111206 1e-05
0.00558681 0.00111223 1e-05
0.005701 0.0011124 1e-05
0.00581518 0.00111256 1e-05
0.00592937 0.00111272 1e-05
0.00604356 0.00111287 1e-05
0.00615863 0.00111301 1e-05
0.00627371 0.00111314 1e-05
0.00638878 0.00111327 1e-05
0.00650386 0.00111338 1e-05
0.00661893 0.00111349 1e-05
0.0067349 0.0011136 1e-05
0.00685087 0.00111369 1e-05
0.00696684 0.00111378 1e-05
0.00708281 0.00111386 1e-05
0.00719878 0.00111394 1e-05
0.00728423 0.00111399 1e-05
0.00736969 0.00111403 1e-05
0.00745514 0.00111407 1e-05
0.0075406 0.00111411 1e-05
0.00762261 0.00111414 1e-05
0.00765472 0.00111415 1e-05
0.00768682 0.00111416 1e-05
0.00771893 0.00111417 1e-05
0.00775103 0.00111418 1e-05
0.00778313 0.00111419 1e-05
0.00790091 0.00111421 1e-05
0.00801869 0.00111423 1e-05
0.00813647 0.00111425 1e-05
0.00825425 0.00111425 1e-05
0.00837203 0.00111425 1e-05
0.00849073 0.00111423 1e-05
0.00860942 0.00111421 1e-05
0.00872812 0.00111419 1e-05
0.00884682 0.00111415 1e-05
0.00896551 0.00111411 1e-05
0.00908513 0.00111405 1e-05
0.00920475 0.00111399 1e-05
0.00932437 0.00111392 1e-05
0.00944398 0.00111385 1e-05
0.0095636 0.00111377 1e-05
0.00968415 0.00111366 1e-05
0.0098047 0.00111356 1e-05
0.00992525 0.00111345 1e-05
0.0100458 0.00111334 1e-05
0.0101663 0.00111321 1e-05
0.0102878 0.00111307 1e-05
0.0104093 0.00111292 1e-05
0.0105308 0.00111277 1e-05
0.0106523 0.00111261 1e-05
0.0107738 0.00111244 1e-05
0.0108962 0.00111225 1e-05
0.0110186 0.00111206 1e-05
0.0111411 0.00111187 1e-05
0.0112635 0.00111166 1e-05
0.0113859 0.00111145 1e-05
0.0115093 0.00111121 1e-05
0.0116327 0.00111098 1e-05
0.0117561 0.00111074 1e-05
0.0118795 0.00111049 1e-05
0.0120028 0.00111023 1e-05
0.0121272 0.00110995 1e-05
0.0122515 0.00110967 1e-05
0.0123759 0.00110939 1e-05
0.0125002 0.00110909 1e-05
0.0126245 0.00110879 1e-05
0.0127498 0.00110846 1e-05
0.0128752 0.00110813 1e-05
0.0130005 0.0011078 1e-05
0.0131258 0.00110745 1e-05
0.0132511 0.0011071 1e-05
0.0133774 0.00110673 1e-05
0.0135036 0.00110635 1e-05
0.0136299 0.00110597 1e-05
0.0137562 0.00110558 1e-05
0.0138825 0.00110518 1e-05
0.0140098 0.00110475 1e-05
0.014137 0.00110433 1e-05
0.0142643 0.0011039 1e-05
0.0143915 0.00110346 1e-05
0.0145188 0.00110301 1e-05
0.0146471 0.00110253 1e-05
0.0147753 0.00110206 1e-05
0.0149036 0.00110158 1e-05
0.0150318 0.00110109 1e-05
0.0151601 0.00110058 1e-05
0.0152893 0.00110006 1e-05
0.0154186 0.00109954 1e-05
0.0155478 0.001099 1e-05
0.0156771 0.00109846 1e-05
0.0158063 0.00109791 1e-05
0.0159366 0.00109734 1e-05
0.0160668 0.00109676 1e-05
0.0161971 0.00109618 1e-05
0.0163274 0.00109558 1e-05
0.0164576 0.00109498 1e-05
0.0165889 0.00109436 1e-05
0.0167201 0.00109373 1e-05
0.0168514 0.00109309 1e-05
0.0169827 0.00109244 1e-05
0.0171139 0.00109179 1e-05
0.0172462 0.00109112 1e-05
0.0173785 0.00109044 1e-05
0.0175108 0.00108975 1e-05
0.0176431 0.00108905 1e-05
0.0177754 0.00108834 1e-05
0.0179087 0.00108763 1e-05
0.018042 0.0010869 1e-05
0.0181753 0.00108615 1e-05
0.0183087 0.00108539 1e-05
0.018442 0.00108464 1e-05
0.0185763 0.00108387 1e-05
0.0187107 0.00108309 1e-05
0.018845 0.00108229 1e-05
0.0189794 0.00108148 1e-05
0.0191137 0.00108067 1e-05
0.0192491 0.00107985 1e-05
0.0193845 0.00107902 1e-05
0.0195199 0.00107816 1e-05
0.0196553 0.0010773 1e-05
0.0197907 0.00107644 1e-05
0.0199272 0.00107557 1e-05
0.0200636 0.00107469 1e-05
0.0202001 0.00107378 1e-05
0.0203365 0.00107286 1e-05
0.020473 0.00107195 1e-05
0.0206105 0.00107103 1e-05
0.020748 0.00107009 1e-05
0.0208855 0.00106913 1e-05
0.021023 0.00106816 1e-05
0.0211606 0.00106719 1e-05
0.0212991 0.00106623 1e-05
0.0214377 0.00106524 1e-05
0.0215763 0.00106422 1e-05
0.0217149 0.0010632 1e-05
0.0218535 0.00106218 1e-05
0.0219931 0.00106116 1e-05
0.0221328 0.00106012 1e-05
0.0222724 0.00105905 1e-05
0.0224121 0.00105797 1e-05
0.0225517 0.0010569 1e-05
0.0226925 0.00105583 1e-05
0.0228332 0.00105473 1e-05
0.022974 0.00105361 1e-05
0.0231147 0.00105248 1e-05
0.0232555 0.00105136 1e-05
0.0233973 0.00105023 1e-05
0.0235391 0.00104908 1e-05
0.023681 0.0010479 1e-05
0.0238228 0.00104672 1e-05
0.0239647 0.00104554 1e-05
0.0241076 0.00104437 1e-05
0.0242505 0.00104316 1e-05
0.0243935 0.00104193 1e-05
0.0245364 0.00104069 1e-05
0.0246794 0.00103946 1e-05
0.0248234 0.00103823 1e-05
0.0249675 0.00103697 1e-05
0.0251115 0.00103568 1e-05
0.0252556 0.00103439 1e-05
[...]
POINT_DATA 12040
 FIELD attributes 1
U 3 12040 float
10.0004 	0.00734823 	0 10.0004 	0.00587859 	0 10.0003 	0.00440894 	0 10.0002 	0.00293929 	0 10.0001 	0.00146965 	0 10 	0 	0
10.0001 	0.000878318 	0 10 	0.000702654 	0 10 	0.000526991 	0 10 	0.000351327 	0 10 	0.000175664 	0 10 	0 	0
10.0001 	0.000466279 	0 10.0001 	0.000372833 	0 10.0001 	0.000279387 	0 10 	0.00018594 	0 10 	9.24932e-05 	0 10 	0 	0
10 	0.000266361 	0 10 	0.000213089 	0 10 	0.000159817 	0 10 	0.000106544 	0 10 	5.32722e-05 	0 10 	0 	0
10 	8.0732e-05 	0 10 	6.45856e-05 	0 10 	4.84392e-05 	0 10 	3.22928e-05 	0 10 	1.61464e-05 	0 10 	0 	0
10 	-2.59233e-05 	0 10 	-2.07386e-05 	0 10 	-1.5554e-05 	0 10 	-1.03693e-05 	0 10 	-5.18465e-06 	0 10 	0 	0
10 	-0.000215893 	0 10 	-0.000172714 	0 10 	-0.000129536 	0 10 	-8.63571e-05 	0 10 	-4.31785e-05 	0 10 	0 	0
10 	-0.00037752 	0 10 	-0.000302016 	0 10 	-0.000226512 	0 10 	-0.000151008 	0 10 	-7.55041e-05 	0 10 	0 	0
9.99999 	-0.000426413 	0 9.99999 	-0.000341131 	0 9.99999 	-0.000255848 	0 10 	-0.000170565 	0 10 	-8.52827e-05 	0 10 	0 	0
9.17387 	0.0871273 	0 9.1308 	0.0697018 	0 9.08741 	0.0522761 	0 9.04368 	0.0348501 	0 8.99963 	0.017424 	0 8.95524 	0 	0
10.0004 	0.00734823 	0 10.0024 	0.0152066 	0 10.0045 	0.0222286 	0 10.0065 	0.0292061 	0 10.0086 	0.0361394 	0 10.0136 	0.0463316 	0 10.0164 	0.0402125 	0 10.0208 	0.0401631 	0 10.0253 	0.040114 	0 10.0297 	0.040065 	0 10.0356 	0.0445236 	0 10.0385 	0.0378854 	0 10.0425 	0.0378422 	0 10.0464 	0.0377988 	0 10.0504 	0.0377555 	0 10.0545 	0.0408572 	0 10.0567 	0.0387795 	0 10.0592 	0.0400889 	0 10.0616 	0.0414 	0 10.064 	0.0427127 	0 10.0662 	0.0451711 	0 10.0677 	0.0452823 	0 10.069 	0.0464847 	0 10.0704 	0.0476883 	0 10.0717 	0.048893 	0 10.0729 	0.0499113 	0 10.0729 	0.0499739 	0 10.073 	0.0500364 	0 10.0731 	0.050099 	0 10.0731 	0.0501615 	0 10.0732 	0.0502147 	0 10.0737 	0.0508415 	0 10.0743 	0.0514623 	0 10.0748 	0.0520836 	0 10.0753 	0.0527054 	0 10.0758 	0.0531633 	0 10.0757 	0.0534589 	0 10.0753 	0.0536492 	0 10.075 	0.0538396 	0 10.0746 	0.0540301 	0 10.0741 	0.0539822 	0 10.0737 	0.0541271 	0 10.0726 	0.0541037 	0 10.0715 	0.0540802 	0 10.0704 	0.0540568 	0 10.0689 	0.0537642 	0 10.0685 	0.0538444 	0 10.0669 	0.0537109 	0 10.0652 	0.0535774 	0 10.0636 	0.0534438 	0 10.0611 	0.053024 	0 10.0611 	0.053078 	0 10.059 	0.0528835 	0 10.057 	0.0526889 	0 10.055 	0.0524942 	0 10.0515 	0.0520006 	0 10.0521 	0.0520534 	0 10.0498 	0.0518325 	0 10.0475 	0.0516116 	0 10.0451 	0.0513906 	0 10.0405 	0.0508627 	0 10.042 	0.0509354 	0 10.0395 	0.0507098 	0 10.037 	0.050484 	0 10.0344 	0.0502582 	0 10.0287 	0.0497121 	0 10.0312 	0.0498113 	0 10.0285 	0.0495974 	0 10.0259 	0.0493834 	0 10.0232 	0.0491693 	0 10.0163 	0.0486277 	0 10.0199 	0.0487634 	0 10.0172 	0.0485634 	0 10.0145 	0.0483633 	0 10.0118 	0.0481631 	0 10.0037 	0.0476177 	0 10.0085 	0.0477895 	0 10.0058 	0.047641 	0 10.003 	0.0474924 	0 10.0003 	0.0473438 	0 9.99106 	0.04686 	0 9.99724 	0.0471012 	0 9.99454 	0.0469688 	0 9.99185 	0.0468365 	0 9.98915 	0.0467041 	0 9.9787 	0.0461841 	0 9.98626 	0.0464441 	0 9.98365 	0.0464563 	0 9.98104 	0.0464686 	0 9.97844 	0.0464809 	0 9.96683 	0.0461584 	0 9.97588 	0.0465048 	9.09692e-22 9.9739 	0.0464197 	5.93969e-21 9.97193 	0.0463347 	1.09698e-20 9.96995 	0.0462496 	1.59999e-20 9.95789 	0.045696 	1.35698e-20 9.96819 	0.0458444 	9.36446e-20 9.96644 	0.0455646 	8.69364e-20 9.96469 	0.0452847 	8.02251e-20 9.96294 	0.0450049 	7.35106e-20 9.95068 	0.044338 	-1.49088e-20 9.96086 	0.0442896 	-4.04196e-20 9.95915 	0.0439779 	-4.49608e-20 9.95744 	0.0436662 	-4.95003e-20 9.95572 	0.0433544 	-5.40381e-20 9.94364 	0.0427682 	-2.12177e-20 9.95336 	0.0425449 	-1.86762e-20 9.95147 	0.0419555 	-1.29945e-20 9.94958 	0.041366 	-7.31321e-21 9.94769 	0.0407764 	-1.63241e-21 9.93578 	0.0399688 	7.01741e-21 9.94508 	0.0396493 	-5.60629e-21 9.94298 	0.0388258 	-2.40646e-20 9.94086 	0.0380021 	-4.2525e-20 9.93875 	0.0371782 	-6.09874e-20 9.9269 	0.0360846 	-8.70619e-20 9.93564 	0.0358441 	-1.23202e-19 9.93318 	0.0350199 	-1.10939e-19 9.93071 	0.0341955 	-9.86693e-20 9.92823 	0.0333709 	-8.63915e-20 9.91636 	0.0321477 	-2.96433e-20 9.92439 	0.0320309 	3.43874e-20 9.92152 	0.0312866 	4.77667e-20 9.91865 	0.0305421 	6.11367e-20 9.91577 	0.0297973 	7.44974e-20 9.90394 	0.0285515 	3.648e-20 9.91116 	0.0284729 	-4.65713e-20 9.9079 	0.0277643 	-5.25998e-20 9.90464 	0.0270554 	-5.86141e-20 9.90137 	0.0263463 	-6.4614e-20 9.88967 	0.0251131 	-3.30912e-22 9.89596 	0.0249953 	6.03297e-20 9.89229 	0.0242938 	5.10173e-20 9.8886 	0.0235921 	4.16907e-20 9.88491 	0.0228901 	3.23497e-20 9.87343 	0.0217067 	-2.83116e-20 9.87861 	0.021524 	-8.28594e-20 9.87446 	0.0208292 	-1.04859e-19 9.87032 	0.0201342 	-1.26854e-19 9.86617 	0.0194388 	-1.48843e-19 9.85499 	0.0183354 	-1.35323e-19 9.85882 	0.018084 	-1.54747e-19 9.8542 	0.0173998 	-1.42424e-19 9.84957 	0.0167154 	-1.30097e-19 9.84493 	0.0160307 	-1.17765e-19 9.83423 	0.0150221 	-8.26928e-20 9.83646 	0.0147095 	-6.95106e-20 9.83135 	0.0140413 	-5.11857e-20 9.82624 	0.0133728 	-3.28625e-20 9.82112 	0.0127041 	-1.4541e-20 9.81112 	0.011793 	2.07668e-21 9.81145 	0.0114134 	0 9.80587 	0.0107564 	0 9.80028 	0.0100991 	0 9.79469 	0.00944153 	0 9.78569 	0.00862307 	0 9.78376 	0.00816224 	-1.63733e-20 9.77771 	0.00751108 	-3.51575e-20 9.77166 	0.00685961 	-5.39433e-20 9.7656 	0.00620783 	-7.27309e-20 9.75797 	0.00548339 	-9.21866e-20 9.75511 	0.00509936 	-9.62238e-20 9.75035 	0.00462778 	-9.67604e-20 9.7456 	0.00415602 	-9.72942e-20 9.74084 	0.00368408 	-9.78253e-20 9.73626 	0.00323095 	-9.83324e-20 9.73445 	0.00305254 	-9.88374e-20 9.73264 	0.00287411 	-9.93426e-20 9.73082 	0.00269565 	-9.98479e-20 9.72901 	0.00251716 	-1.00353e-19 9.72545 	0.00225977 	-1.00347e-19 9.72004 	0.00169017 	-7.38509e-20 9.71302 	0.00104817 	-4.50046e-20 9.70598 	0.000405779 	-1.61677e-20 9.69894 	-0.000237009 	1.26597e-20 9.68379 	-0.0012377 	4.96859e-20 9.68378 	-0.00155142 	5.05763e-20 9.67632 	-0.00218846 	5.17045e-20 9.66886 	-0.00282593 	5.28305e-20 9.66138 	-0.00346384 	5.39544e-20 9.63957 	-0.00470996 	5.70933e-20 9.64484 	-0.00479898 	4.50084e-20 9.63697 	-0.00543091 	3.2921e-20 9.62909 	-0.00606331 	2.08324e-20 9.6212 	-0.00669618 	8.74267e-21 9.59308 	-0.00814262 	-1.03654e-21 9.60332 	-0.00805053 	-8.23852e-21 9.59506 	-0.00867786 	-1.97801e-20 9.58678 	-0.00930569 	-3.13206e-20 9.5785 	-0.00993403 	-4.28599e-20 9.54457 	-0.0115287 	-5.44142e-20 9.55936 	-0.0113063 	-5.44312e-20 9.55074 	-0.0119313 	-6.17373e-20 9.5421 	-0.0125568 	-6.90402e-20 9.53345 	-0.0131829 	-7.634e-20 9.49432 	-0.0148707 	-9.48554e-20 9.51316 	-0.0145692 	-1.4855e-19 9.5042 	-0.015192 	-1.39128e-19 9.49523 	-0.0158153 	-1.29719e-19 9.48624 	-0.0164392 	-1.20323e-19 9.44258 	-0.0181595 	-4.12358e-20 9.46492 	-0.0178298 	-2.64384e-20 9.45565 	-0.01845 	-1.85556e-20 9.44636 	-0.0190708 	-1.06719e-20 9.43706 	-0.0196922 	-2.78753e-21 9.38961 	-0.0213883 	0 9.41483 	-0.0210796 	0 9.40528 	-0.0216986 	0 9.39571 	-0.0223183 	0 9.38612 	-0.0229386 	0 9.33563 	-0.0245594 	0 9.36315 	-0.0243201 	1.66064e-21 9.35334 	-0.0249396 	8.99614e-21 9.34351 	-0.0255598 	1.63309e-20 9.33367 	-0.0261808 	2.36648e-20 9.28088 	-0.0276769 	4.14151e-20 9.31012 	-0.027556 	1.58433e-19 9.30007 	-0.0281761 	1.61341e-19 9.29001 	-0.0287969 	1.64264e-19 9.27994 	-0.0294183 	1.67201e-19 9.22557 	-0.0307374 	4.16042e-20 9.25597 	-0.0307774 	2.23226e-20 9.24572 	-0.0313966 	1.5757e-20 9.23546 	-0.0320166 	9.19043e-21 9.22299 	-0.0326604 	3.65879e-21 9.16987 	-0.0337338 	1.73712e-20 9.19731 	-0.0340037 	1.04237e-19 9.19053 	-0.0345879 	1.13698e-19 9.18008 	-0.0352063 	1.14925e-19 9.16346 	-0.035855 	1.00704e-19 9.11397 	-0.0366625 	3.95485e-21 9.13806 	-0.0371508 	-9.88582e-20 9.13471 	-0.0377399 	-1.28381e-19 9.12411 	-0.0383563 	-1.38553e-19 9.10405 	-0.0389589 	-1.28166e-19 9.05803 	-0.0395224 	-6.12152e-20 9.07897 	-0.0402082 	-1.77621e-19 9.0785 	-0.0408453 	-2.16886e-19 9.06776 	-0.0414595 	-2.19154e-19 9.04493 	-0.0419713 	-1.72954e-19 9.00219 	-0.0423141 	-4.68802e-20 9.0202 	-0.0431759 	-2.47479e-20 9.02211 	-0.0438981 	-1.09261e-20 9.01126 	-0.0445099 	-3.68611e-21 8.98626 	-0.044893 	0 8.9466 	-0.0450387 	0 8.9619 	-0.0460555 	0 8.96571 	-0.0468941 	0 8.95477 	-0.0475033 	0 8.92816 	-0.0477264 	1.99958e-21 8.89137 	-0.0476985 	5.29818e-21 8.9042 	-0.0488495 	2.15384e-21 8.9095 	-0.0498296 	0 8.89849 	-0.0504364 	0 8.87074 	-0.0504749 	2.38982e-21 8.8366 	-0.0502961 	5.69263e-21 8.84718 	-0.051562 	2.54785e-21 8.85362 	-0.0527033 	1.24592e-21 8.84255 	-0.0533076 	7.81444e-21 8.8141 	-0.053143 	2.4361e-20 8.78241 	-0.0528349 	4.27662e-20 8.79094 	-0.0541971 	1.67826e-19 8.79821 	-0.0555133 	2.85348e-19 8.78711 	-0.0561152 	2.88814e-19 8.75832 	-0.0557352 	1.68336e-19 8.72887 	-0.0553187 	4.32805e-20 8.73556 	-0.0567603 	2.51425e-20 8.74219 	-0.0582034 	7.00568e-21 8.73086 	-0.0587637 	2.78784e-22 8.70346 	-0.058258 	3.4562e-21 8.67607 	-0.0577519 	6.63347e-21 8.6811 	-0.0592571 	3.61835e-21 8.68608 	-0.0607639 	6.0404e-22 8.67511 	-0.0612935 	2.15754e-21 8.64958 	-0.0607151 	-1.74512e-21 8.62406 	-0.0601364 	-5.64681e-21 8.62761 	-0.0616897 	-4.89239e-20 8.6311 	-0.0632446 	-9.22048e-20 8.62056 	-0.0637444 	-9.35445e-20 8.59673 	-0.0631117 	-5.3952e-20 8.57292 	-0.0624786 	-1.43577e-20 8.57515 	-0.0640744 	8.45187e-20 8.57733 	-0.0656717 	1.8339e-19 8.56724 	-0.0661436 	1.91884e-19 8.54496 	-0.0654662 	1.0952e-19 8.52269 	-0.0647882 	2.71575e-20 8.52376 	-0.0664177 	1.58018e-20 8.52478 	-0.0680488 	4.44252e-21 8.51517 	-0.0684935 	5.11153e-22 8.49428 	-0.0677811 	5.12201e-21 8.47342 	-0.0670681 	9.73462e-21 8.47347 	-0.0687175 	4.20075e-21 8.47346 	-0.0703684 	-1.33829e-21 8.46436 	-0.0707868 	-2.07813e-20 8.44473 	-0.0700543 	-7.06945e-20 8.42513 	-0.0693212 	-1.2061e-19 8.42428 	-0.0709765 	-2.51222e-19 8.42338 	-0.0726333 	-3.81829e-19 8.41479 	-0.0730268 	-3.66695e-19 8.3963 	-0.07229 	-2.16978e-19 8.37782 	-0.0715526 	-6.7263e-20 8.37619 	-0.0732025 	5.64073e-20 8.37446 	-0.0748457 	1.79304e-19 8.36609 	-0.0751854 	1.76894e-19 8.34897 	-0.0744996 	9.02625e-20 8.33153 	-0.0737734 	3.58427e-22 8.3292 	-0.0754149 	-8.88614e-20 8.32598 	-0.0768699 	-1.6649e-19 8.31776 	-0.0772169 	-1.75719e-19 8.30275 	-0.0767042 	-1.14211e-19 8.28624 	-0.0759974 	-3.67533e-20 8.2833 	-0.0776281 	-2.55608e-20 8.27886 	-0.078896 	-1.44661e-20 8.27078 	-0.0792522 	-3.61081e-21 8.25762 	-0.0789159 	1.3702e-20 8.24196 	-0.0782339 	3.42353e-20 8.23847 	-0.0798523 	1.24674e-20 8.23306 	-0.0809362 	-2.47009e-21 8.22511 	-0.081303 	-8.25021e-21 8.21356 	-0.081143 	-3.35319e-21 8.19867 	-0.0804896 	1.1537e-20 8.19469 	-0.0820944 	-4.97895e-21 8.18851 	-0.082999 	-1.57011e-20 8.18069 	-0.0833775 	-2.20707e-20 8.17053 	-0.0833925 	-3.39724e-20 8.15634 	-0.0827711 	-5.55522e-20 8.15194 	-0.0843623 	5.26195e-20 8.14517 	-0.0850938 	8.49853e-20 8.13746 	-0.0854856 	8.73726e-20 8.12852 	-0.0856735 	6.99398e-20 8.11497 	-0.0850871 	-2.26744e-20 8.11019 	-0.0866651 	6.86382e-20 8.10298 	-0.0872309 	8.38053e-20 8.09538 	-0.0876374 	8.69724e-20 8.08749 	-0.0879953 	8.60778e-20 8.07452 	-0.0874462 	1.00927e-20 8.06937 	-0.0889972 	-6.79387e-22 8.06189 	-0.0894198 	-4.60802e-22 8.05439 	-0.0898426 	-2.42239e-22 8.04687 	-0.0902657 	-2.3698e-23 8.03497 	-0.0898569 	1.76857e-20 8.02923 	-0.0912291 	0 8.02184 	-0.0916693 	0 8.01443 	-0.0921098 	0 8.00701 	-0.0925506 	0 7.99629 	-0.0923274 	1.45883e-20 7.9901 	-0.093529 	0 7.98279 	-0.0939882 	0 7.97547 	-0.0944477 	0 7.96813 	-0.0949075 	0 7.95843 	-0.0948658 	0 7.95191 	-0.0959048 	0 7.94468 	-0.0963843 	0 7.93744 	-0.0968641 	0 7.93017 	-0.0973442 	0 7.92138 	-0.0974799 	-7.72447e-21 7.91462 	-0.0983645 	0 7.90746 	-0.0988654 	0 7.90029 	-0.0993667 	0 7.89309 	-0.0998682 	0 7.88508 	-0.100177 	-8.8719e-21 7.87817 	-0.100915 	0 7.87107 	-0.101438 	0 7.86396 	-0.101962 	0 7.85683 	-0.102486 	0 7.84949 	-0.102964 	-2.16749e-21 7.84725 	-0.103192 	-2.78243e-21 7.84499 	-0.103369 	-6.10486e-21 7.84272 	-0.103545 	-9.42743e-21 7.84045 	-0.103722 	-1.27501e-20 7.8382 	-0.103896 	-1.60272e-20 7.83328 	-0.104268 	-2.25434e-20 7.82835 	-0.104641 	-2.90589e-20 7.82341 	-0.105014 	-3.55737e-20 7.81846 	-0.105387 	-4.2088e-20 7.81405 	-0.105651 	-4.86067e-20 7.80667 	-0.106323 	-4.6773e-20 7.79947 	-0.106897 	-4.61294e-20 7.79225 	-0.107471 	-4.54829e-20 7.785 	-0.108045 	-4.48335e-20 7.7791 	-0.108357 	-4.71732e-20 7.77144 	-0.109194 	-3.6787e-20 7.76428 	-0.109794 	-2.6386e-20 7.75709 	-0.110394 	-1.59834e-20 7.74988 	-0.110995 	-5.5794e-21 7.7448 	-0.111184 	0 7.73686 	-0.112184 	-2.39414e-21 7.72973 	-0.112811 	-7.15732e-21 7.72257 	-0.113438 	-1.19197e-20 7.71538 	-0.114066 	-1.66813e-20 7.7111 	-0.114138 	-2.14099e-20 7.70288 	-0.115297 	-5.12237e-20 7.69577 	-0.115953 	-7.0836e-20 7.68863 	-0.116608 	-9.04501e-20 7.68146 	-0.117265 	-1.10066e-19 7.67796 	-0.117227 	-1.00193e-19 7.66945 	-0.118541 	-7.68497e-20 7.66235 	-0.119227 	-6.57642e-20 7.65522 	-0.119913 	-5.46718e-20 7.64809 	-0.120596 	-4.37331e-20 7.64532 	-0.12046 	-6.78021e-20 7.63664 	-0.121869 	-8.16963e-20 7.62941 	-0.122644 	-6.60873e-20 7.62229 	-0.123361 	-4.78125e-20 7.61596 	-0.123927 	-2.67443e-20 7.61313 	-0.123843 	6.22625e-21 7.60448 	-0.125267 	1.05172e-20 7.59692 	-0.126209 	8.15095e-21 7.58979 	-0.126959 	3.12277e-21 7.58425 	-0.127413 	0 7.58134 	-0.127383 	0 7.5727 	-0.128822 	0 7.56482 	-0.129928 	0 7.55768 	-0.130711 	0 7.5529 	-0.131061 	0 7.54991 	-0.131083 	0 7.54128 	-0.13254 	0 7.53306 	-0.133807 	-5.18999e-21 7.52589 	-0.134625 	-2.26834e-20 7.52186 	-0.134875 	-4.02358e-20 7.51877 	-0.134952 	-5.78067e-20 7.51014 	-0.136427 	-3.87992e-20 7.50158 	-0.137851 	-1.94499e-20 7.49439 	-0.138705 	3.70247e-21 7.49107 	-0.138862 	8.44268e-21 7.48788 	-0.138993 	1.25007e-20 7.47924 	-0.140488 	4.46456e-20 7.47054 	-0.141984 	7.67888e-20 7.46376 	-0.142841 	9.20196e-20 7.46048 	-0.143026 	7.72772e-20 7.45719 	-0.143212 	6.2533e-20 7.44853 	-0.14473 	3.87555e-20 7.43982 	-0.146248 	1.49693e-20 7.43345 	-0.147135 	3.43189e-21 7.43005 	-0.147375 	1.26602e-20 7.42664 	-0.147614 	2.18894e-20 7.41796 	-0.149156 	8.44306e-20 7.40922 	-0.150698 	1.46975e-19 7.40325 	-0.151616 	1.47646e-19 7.39972 	-0.151911 	8.57541e-20 7.39619 	-0.152205 	2.38605e-20 7.38747 	-0.153772 	1.54462e-20 7.3787 	-0.155339 	7.03556e-21 7.3731 	-0.15629 	7.16472e-21 7.36944 	-0.156639 	1.61628e-20 7.36577 	-0.156988 	2.5162e-20 7.35701 	-0.158581 	8.6178e-20 7.34826 	-0.160164 	1.46109e-19 7.34306 	-0.161122 	1.43879e-19 7.33916 	-0.161564 	8.75669e-20 7.33534 	-0.161967 	2.72288e-20 7.32653 	-0.163587 	1.90714e-20 7.31853 	-0.165058 	1.08876e-20 7.31321 	-0.166058 	2.61207e-21 7.30882 	-0.166687 	0 7.30484 	-0.167144 	0 7.29597 	-0.168793 	0 7.2887 	-0.170157 	0 7.28326 	-0.171199 	0 7.27837 	-0.172012 	0 7.27423 	-0.172523 	0 7.26529 	-0.174202 	0 7.25873 	-0.175463 	0 7.25315 	-0.176547 	0 7.24777 	-0.177543 	2.67583e-21 7.24345 	-0.178108 	1.82756e-20 7.23443 	-0.179817 	9.98123e-22 7.22855 	-0.180978 	7.98066e-21 7.22283 	-0.182105 	1.64529e-20 7.21707 	-0.183233 	2.49275e-20 7.21244 	-0.183899 	3.71761e-20 7.20395 	-0.185534 	1.06967e-19 7.19812 	-0.186704 	1.11268e-19 7.19224 	-0.187874 	1.15546e-19 7.18633 	-0.189045 	1.19801e-19 7.18116 	-0.189901 	5.63177e-20 7.17338 	-0.19143 	1.11105e-19 7.16738 	-0.192643 	9.92656e-20 7.16134 	-0.193856 	8.74022e-20 7.15526 	-0.195069 	7.55153e-20 7.14956 	-0.196113 	3.86316e-20 7.14245 	-0.197538 	3.54766e-20 7.13628 	-0.198794 	3.59668e-20 7.13007 	-0.20005 	3.64624e-20 7.12381 	-0.201306 	3.69634e-20 7.11758 	-0.202535 	3.95301e-20 7.11625 	-0.202804 	4.02233e-20 7.11507 	-0.203046 	3.97383e-20 7.11389 	-0.203289 	3.92527e-20 7.11271 	-0.203531 	3.87666e-20 7.11154 	-0.20377 	3.82859e-20 7.10622 	-0.204825 	3.75571e-20 7.10087 	-0.20588 	3.68246e-20 7.09549 	-0.206935 	3.60883e-20 7.09009 	-0.20799 	3.53482e-20 7.08562 	-0.208941 	3.82297e-20 7.07837 	-0.210384 	3.71241e-20 7.07164 	-0.211722 	3.07328e-20 7.06486 	-0.213061 	2.43502e-20 7.05803 	-0.214399 	1.79763e-20 7.05334 	-0.215507 	1.66699e-21 7.04519 	-0.21712 	-2.54137e-22 7.03825 	-0.2185 	-1.74876e-22 7.03126 	-0.21988 	-9.55862e-23 7.02423 	-0.221259 	-1.62666e-23 7.02055 	-0.222284 	0 7.01146 	-0.224066 	-1.35867e-21 7.0043 	-0.225486 	-1.47171e-20 6.9971 	-0.226907 	-2.80695e-20 6.99023 	-0.228288 	-4.10847e-20 6.9872 	-0.229269 	-5.07414e-20 6.97766 	-0.231125 	-3.89053e-20 6.96976 	-0.232679 	-2.47527e-20 6.96233 	-0.234139 	-9.87744e-21 6.95651 	-0.23543 	1.96275e-21 6.95323 	-0.236457 	9.08115e-21 6.94347 	-0.238347 	2.92506e-21 6.93456 	-0.240075 	4.91903e-21 6.92689 	-0.241574 	1.84464e-20 6.92214 	-0.242774 	3.6866e-20 6.91861 	-0.243846 	5.73819e-20 6.90861 	-0.245768 	3.59562e-20 6.89867 	-0.247669 	1.4871e-20 6.89081 	-0.249199 	1.09059e-22 6.88706 	-0.250314 	-3.11759e-21 6.88327 	-0.251429 	-6.34564e-21 6.87303 	-0.253383 	-5.6371e-20 6.86272 	-0.255336 	-1.06398e-19 6.85527 	-0.256889 	-1.10327e-19 6.85124 	-0.258045 	-7.10284e-20 6.84718 	-0.259202 	-3.17298e-20 6.83668 	-0.261186 	-7.16586e-20 6.82612 	-0.263169 	-1.11595e-19 6.81894 	-0.264766 	-1.10244e-19 6.81463 	-0.265961 	-6.84331e-20 6.81028 	-0.267157 	-2.6621e-20 6.79953 	-0.269169 	-6.86052e-20 6.78875 	-0.271177 	-1.09939e-19 6.78199 	-0.272785 	-1.00797e-19 6.77718 	-0.274054 	-5.71364e-20 6.77255 	-0.275286 	-9.76845e-21 6.76151 	-0.277327 	-7.1037e-21 6.7519 	-0.279221 	-4.35595e-21 6.74487 	-0.28086 	-1.46014e-21 6.73886 	-0.282315 	0 6.73392 	-0.283583 	0 6.72261 	-0.285649 	0 6.71418 	-0.287428 	0 6.70685 	-0.289096 	0 6.69963 	-0.290737 	0 6.69438 	-0.292037 	0 6.68312 	-0.294093 	-2.59726e-22 6.67554 	-0.295789 	-3.29321e-21 6.66791 	-0.297483 	-6.32819e-21 6.66022 	-0.299178 	-9.36467e-21 6.65387 	-0.300641 	-5.45324e-21 6.64384 	-0.302572 	-3.41401e-20 6.63596 	-0.304292 	-3.08864e-20 6.62802 	-0.306011 	-2.76103e-20 6.62001 	-0.307731 	-2.43117e-20 6.61236 	-0.309383 	-1.16027e-20 6.60842 	-0.310149 	-1.11697e-20 6.60512 	-0.310855 	-7.77166e-21 6.6018 	-0.31156 	-4.37344e-21 6.59848 	-0.312266 	-9.75002e-22 6.59524 	-0.312951 	2.32633e-21 6.59001 	-0.31399 	7.07487e-21 6.58475 	-0.315028 	1.18228e-20 6.57948 	-0.316067 	1.65701e-20 6.57418 	-0.317105 	2.13168e-20 6.56951 	-0.318063 	2.52447e-20 6.56021 	-0.319913 	2.45311e-20 6.55117 	-0.321672 	2.59265e-20 6.54206 	-0.323431 	2.73133e-20 6.53289 	-0.325189 	2.86914e-20 6.52542 	-0.326729 	3.79927e-20 6.5152 	-0.328752 	4.35821e-20 6.50579 	-0.330528 	4.14973e-20 6.49632 	-0.332304 	3.94178e-20 6.48708 	-0.334042 	3.51375e-20 6.48012 	-0.335497 	1.38885e-20 6.46931 	-0.337586 	3.25724e-20 6.45914 	-0.339483 	3.55404e-20 6.44929 	-0.341272 	2.98139e-20 6.44088 	-0.342882 	1.17713e-20 6.43356 	-0.344353 	-1.58005e-20 6.42237 	-0.34645 	-8.97702e-21 6.41118 	-0.348522 	-2.87345e-21 6.40101 	-0.350315 	-4.63044e-21 6.39339 	-0.351799 	-4.04034e-21 6.38571 	-0.353283 	-3.44472e-21 6.37412 	-0.355386 	-2.08193e-21 6.36245 	-0.357487 	-7.11303e-22 6.3526 	-0.359286 	2.49911e-21 6.3446 	-0.360779 	7.54197e-21 6.33655 	-0.362273 	1.25886e-20 6.32456 	-0.364377 	8.53218e-21 6.31247 	-0.366482 	4.47978e-21 6.30297 	-0.368279 	4.13351e-22 6.29448 	-0.369808 	0 6.28605 	-0.371307 	0 6.27364 	-0.373411 	0 6.26245 	-0.375365 	0 6.2526 	-0.377156 	0 6.243 	-0.378868 	0 6.23418 	-0.38037 	0 6.22135 	-0.38247 	0 6.21115 	-0.384262 	4.28704e-21 6.20091 	-0.38605 	8.62377e-21 6.19059 	-0.387837 	1.29634e-20 6.18093 	-0.389446 	1.73147e-20 6.16981 	-0.391256 	1.60041e-20 6.15999 	-0.392912 	1.67725e-20 6.15009 	-0.394568 	1.75461e-20 6.14014 	-0.396224 	1.83249e-20 6.13074 	-0.397776 	1.90601e-20 6.12989 	-0.397922 	1.9277e-20 6.12904 	-0.398068 	1.9494e-20 6.12819 	-0.398214 	1.97111e-20 6.12734 	-0.398359 	1.99283e-20 6.1265 	-0.398491 	1.9303e-20 6.11606 	-0.400284 	1.39607e-20 6.10551 	-0.40206 	8.21104e-21 6.09488 	-0.403836 	2.47267e-21 6.08419 	-0.405611 	-3.25431e-21 6.07359 	-0.407205 	-1.49459e-20 6.06323 	-0.409181 	-3.37049e-20 6.05227 	-0.410944 	-3.32385e-20 6.04124 	-0.412706 	-3.27914e-20 6.03017 	-0.414433 	-3.01137e-20 6.019