# vtk DataFile Version 2.0
track0
ASCII
DATASET POLYDATA
POINTS 12040 float
-0.0205 0.001 1e-05
-0.02052 0.000999985 1e-05
-0.02054 0.000999974 1e-05
-0.02056 0.000999965 1e-05
-0.02058 0.000999959 1e-05
-0.0206 0.000999956 1e-05
-0.0205 0.00367778 1e-05
-0.02052 0.00367778 1e-05
-0.02054 0.00367777 1e-05
-0.02056 0.00367777 1e-05
-0.02058 0.00367777 1e-05
-0.0206 0.00367777 1e-05
-0.0205 0.00635556 1e-05
-0.02052 0.00635555 1e-05
-0.02054 0.00635555 1e-05
-0.02056 0.00635555 1e-05
-0.02058 0.00635555 1e-05
-0.0206 0.00635555 1e-05
-0.0205 0.00903333 1e-05
-0.02052 0.00903333 1e-05
-0.02054 0.00903333 1e-05
-0.02056 0.00903333 1e-05
-0.02058 0.00903333 1e-05
-0.0206 0.00903333 1e-05
-0.0205 0.0117111 1e-05
-0.02052 0.0117111 1e-05
-0.02054 0.0117111 1e-05
-0.02056 0.0117111 1e-05
-0.02058 0.0117111 1e-05
-0.0206 0.0117111 1e-05
-0.0205 0.0143889 1e-05
-0.02052 0.0143889 1e-05
-0.02054 0.0143889 1e-05
-0.02056 0.0143889 1e-05
-0.02058 0.0143889 1e-05
-0.0206 0.0143889 1e-05
-0.0205 0.0170667 1e-05
-0.02052 0.0170667 1e-05
-0.02054 0.0170667 1e-05
-0.02056 0.0170667 1e-05
-0.02058 0.0170667 1e-05
-0.0206 0.0170667 1e-05
-0.0205 0.0197444 1e-05
-0.02052 0.0197444 1e-05
-0.02054 0.0197444 1e-05
-0.02056 0.0197444 1e-05
-0.02058 0.0197444 1e-05
-0.0206 0.0197444 1e-05
-0.0205 0.0224222 1e-05
-0.02052 0.0224222 1e-05
-0.02054 0.0224222 1e-05
-0.02056 0.0224222 1e-05
-0.02058 0.0224222 1e-05
-0.0206 0.0224222 1e-05
-0.0205 0.0251 1e-05
-0.02052 0.0250998 1e-05
-0.02054 0.0250997 1e-05
-0.02056 0.0250995 1e-05
-0.02058 0.0250995 1e-05
-0.0206 0.0250994 1e-05
-0.0205 0.001 1e-05
-0.0202034 0.00100022 1e-05
-0.0199069 0.00100067 1e-05
-0.0196103 0.00100133 1e-05
-0.0193137 0.00100219 1e-05
-0.0190172 0.00100326 1e-05
-0.0187132 0.00100467 1e-05
-0.0184093 0.00100589 1e-05
-0.0181054 0.00100711 1e-05
-0.0178015 0.00100832 1e-05
-0.0174976 0.00100954 1e-05
-0.0172058 0.00101083 1e-05
-0.016914 0.00101193 1e-05
-0.0166222 0.00101303 1e-05
-0.0163305 0.00101413 1e-05
-0.0160387 0.00101523 1e-05
-0.0157586 0.00101637 1e-05
-0.0154784 0.00101745 1e-05
-0.0151983 0.00101856 1e-05
-0.0149182 0.00101972 1e-05
-0.0146381 0.0010209 1e-05
-0.0143745 0.00102209 1e-05
-0.014111 0.00102327 1e-05
-0.0138474 0.00102449 1e-05
-0.0135839 0.00102574 1e-05
-0.0133613 0.00102682 1e-05
-0.0133478 0.00102688 1e-05
-0.0133342 0.00102695 1e-05
-0.0133206 0.00102702 1e-05
-0.013307 0.00102709 1e-05
-0.0132934 0.00102715 1e-05
-0.0130353 0.00102844 1e-05
-0.0127771 0.00102974 1e-05
-0.0125189 0.00103106 1e-05
-0.0122607 0.0010324 1e-05
-0.0120025 0.00103375 1e-05
-0.0117547 0.00103506 1e-05
-0.0115068 0.00103637 1e-05
-0.0112589 0.00103769 1e-05
-0.0110111 0.00103902 1e-05
-0.0107632 0.00104035 1e-05
-0.0105252 0.00104162 1e-05
-0.0102873 0.0010429 1e-05
-0.0100493 0.00104418 1e-05
-0.00981133 0.00104546 1e-05
-0.00957337 0.00104673 1e-05
-0.00934491 0.00104795 1e-05
-0.00911645 0.00104917 1e-05
-0.00888799 0.00105039 1e-05
-0.00865954 0.00105161 1e-05
-0.00843108 0.00105282 1e-05
-0.00821175 0.00105398 1e-05
-0.00799242 0.00105514 1e-05
-0.00777309 0.00105629 1e-05
-0.00755376 0.00105744 1e-05
-0.00733443 0.00105858 1e-05
-0.00712387 0.00105967 1e-05
-0.0069133 0.00106076 1e-05
-0.00670273 0.00106185 1e-05
-0.00649216 0.00106293 1e-05
-0.0062816 0.00106401 1e-05
-0.00607944 0.00106503 1e-05
-0.00587729 0.00106606 1e-05
-0.00567514 0.00106708 1e-05
-0.00547298 0.00106809 1e-05
-0.00527083 0.00106911 1e-05
-0.00507675 0.00107007 1e-05
-0.00488267 0.00107103 1e-05
-0.0046886 0.00107199 1e-05
-0.00449452 0.00107295 1e-05
-0.00430044 0.0010739 1e-05
-0.00411412 0.00107481 1e-05
-0.0039278 0.00107571 1e-05
-0.00374147 0.00107662 1e-05
-0.00355515 0.00107752 1e-05
-0.00336883 0.00107841 1e-05
-0.00318995 0.00107926 1e-05
-0.00301107 0.00108012 1e-05
-0.00283219 0.00108097 1e-05
-0.00265331 0.00108182 1e-05
-0.00247443 0.00108266 1e-05
-0.0023027 0.00108347 1e-05
-0.00213097 0.00108428 1e-05
-0.00195924 0.00108509 1e-05
-0.0017875 0.00108589 1e-05
-0.00161577 0.00108669 1e-05
-0.0014509 0.00108746 1e-05
-0.00128603 0.00108822 1e-05
-0.00112116 0.00108899 1e-05
-0.000956289 0.00108976 1e-05
-0.000791418 0.00109053 1e-05
-0.000633135 0.00109126 1e-05
-0.000474851 0.001092 1e-05
-0.000316567 0.00109273 1e-05
-0.000158284 0.00109347 1e-05
0 0.0010942 1e-05
0.000105677 0.00109469 1e-05
0.000211355 0.00109518 1e-05
0.000317032 0.00109566 1e-05
0.00042271 0.00109614 1e-05
0.000528387 0.00109662 1e-05
0.000634886 0.00109709 1e-05
0.000741385 0.00109756 1e-05
0.000847885 0.00109803 1e-05
0.000954384 0.0010985 1e-05
0.00106088 0.00109897 1e-05
0.00116821 0.00109943 1e-05
0.00127554 0.00109989 1e-05
0.00138286 0.00110034 1e-05
0.00149019 0.00110078 1e-05
0.00159752 0.00110122 1e-05
0.00170568 0.00110166 1e-05
0.00181384 0.00110209 1e-05
0.001922 0.00110251 1e-05
0.00203016 0.00110293 1e-05
0.00213833 0.00110333 1e-05
0.00224733 0.00110373 1e-05
0.00235633 0.00110412 1e-05
0.00246533 0.0011045 1e-05
0.00257434 0.00110488 1e-05
0.00268334 0.00110525 1e-05
0.00279319 0.0011056 1e-05
0.00290304 0.00110596 1e-05
0.00301289 0.0011063 1e-05
0.00312274 0.00110664 1e-05
0.00323259 0.00110697 1e-05
0.00334329 0.00110729 1e-05
0.003454 0.00110761 1e-05
0.0035647 0.00110792 1e-05
0.0036754 0.00110822 1e-05
0.00378611 0.00110852 1e-05
0.00389767 0.0011088 1e-05
0.00400924 0.00110908 1e-05
0.0041208 0.00110936 1e-05
0.00423237 0.00110962 1e-05
0.00434393 0.00110988 1e-05
0.00445636 0.00111013 1e-05
0.00456879 0.00111037 1e-05
0.00468123 0.00111061 1e-05
0.00479366 0.00111084 1e-05
0.00490609 0.00111106 1e-05
0.0050194 0.00111127 1e-05
0.0051327 0.00111148 1e-05
0.00524601 0.00111168 1e-05
0.00535932 0.00111187 1e-05
0.00547262 0.00111206 1e-05
0.00558681 0.00111223 1e-05
0.005701 0.0011124 1e-05
0.00581518 0.00111256 1e-05
0.00592937 0.00111272 1e-05
0.00604356 0.00111287 1e-05
0.00615863 0.00111301 1e-05
0.00627371 0.00111314 1e-05
0.00638878 0.00111327 1e-05
0.00650386 0.00111338 1e-05
0.00661893 0.00111349 1e-05
0.0067349 0.0011136 1e-05
0.00685087 0.00111369 1e-05
0.00696684 0.00111378 1e-05
0.00708281 0.00111386 1e-05
0.00719878 0.00111394 1e-05
0.00728423 0.00111399 1e-05
0.00736969 0.00111403 1e-05
0.00745514 0.00111407 1e-05
0.0075406 0.00111411 1e-05
0.00762261 0.00111414 1e-05
0.00765472 0.00111415 1e-05
0.00768682 0.00111416 1e-05
0.00771893 0.00111417 1e-05
0.00775103 0.00111418 1e-05
0.00778313 0.00111419 1e-05
0.00790091 0.00111421 1e-05
0.00801869 0.00111423 1e-05
0.00813647 0.00111425 1e-05
0.00825425 0.00111425 1e-05
0.00837203 0.00111425 1e-05
0.00849073 0.00111423 1e-05
0.00860942 0.00111421 1e-05
0.00872812 0.00111419 1e-05
0.00884682 0.00111415 1e-05
0.00896551 0.00111411 1e-05
0.00908513 0.00111405 1e-05
0.00920475 0.00111399 1e-05
0.00932437 0.00111392 1e-05
0.00944398 0.00111385 1e-05
0.0095636 0.00111377 1e-05
0.00968415 0.00111366 1e-05
0.0098047 0.00111356 1e-05
0.00992525 0.00111345 1e-05
0.0100458 0.00111334 1e-05
0.0101663 0.00111321 1e-05
0.0102878 0.00111307 1e-05
0.0104093 0.00111292 1e-05
0.0105308 0.00111277 1e-05
0.0106523 0.00111261 1e-05
0.0107738 0.00111244 1e-05
0.0108962 0.00111225 1e-05
0.0110186 0.00111206 1e-05
0.0111411 0.00111187 1e-05
0.0112635 0.00111166 1e-05
0.0113859 0.00111145 1e-05
0.0115093 0.00111121 1e-05
0.0116327 0.00111098 1e-05
0.0117561 0.00111074 1e-05
0.0118795 0.00111049 1e-05
0.0120028 0.00111023 1e-05
0.0121272 0.00110995 1e-05
0.0122515 0.00110967 1e-05
0.0123759 0.00110939 1e-05
0.0125002 0.00110909 1e-05
0.0126245 0.00110879 1e-05
0.0127498 0.00110846 1e-05
0.0128752 0.00110813 1e-05
0.0130005 0.0011078 1e-05
0.0131258 0.00110745 1e-05
0.0132511 0.0011071 1e-05
0.0133774 0.00110673 1e-05
0.0135036 0.00110635 1e-05
0.0136299 0.00110597 1e-05
0.0137562 0.00110558 1e-05
0.0138825 0.00110518 1e-05
0.0140098 0.00110475 1e-05
0.014137 0.00110433 1e-05
0.0142643 0.0011039 1e-05
0.0143915 0.00110346 1e-05
0.0145188 0.00110301 1e-05
0.0146471 0.00110253 1e-05
0.0147753 0.00110206 1e-05
0.0149036 0.00110158 1e-05
0.0150318 0.00110109 1e-05
0.0151601 0.00110058 1e-05
0.0152893 0.00110006 1e-05
0.0154186 0.00109954 1e-05
0.0155478 0.001099 1e-05
0.0156771 0.00109846 1e-05
0.0158063 0.00109791 1e-05
0.0159366 0.00109734 1e-05
0.0160668 0.00109676 1e-05
0.0161971 0.00109618 1e-05
0.0163274 0.00109558 1e-05
0.0164576 0.00109498 1e-05
0.0165889 0.00109436 1e-05
0.0167201 0.00109373 1e-05
0.0168514 0.00109309 1e-05
0.0169827 0.00109244 1e-05
0.0171139 0.00109179 1e-05
0.0172462 0.00109112 1e-05
0.0173785 0.00109044 1e-05
0.0175108 0.00108975 1e-05
0.0176431 0.00108905 1e-05
0.0177754 0.00108834 1e-05
0.0179087 0.00108763 1e-05
0.018042 0.0010869 1e-05
0.0181753 0.00108615 1e-05
0.0183087 0.00108539 1e-05
0.018442 0.00108464 1e-05
0.0185763 0.00108387 1e-05
0.0187107 0.00108309 1e-05
0.018845 0.00108229 1e-05
0.0189794 0.00108148 1e-05
0.0191137 0.00108067 1e-05
0.0192491 0.00107985 1e-05
0.0193845 0.00107902 1e-05
0.0195199 0.00107816 1e-05
0.0196553 0.0010773 1e-05
0.0197907 0.00107644 1e-05
0.0199272 0.00107557 1e-05
0.0200636 0.00107469 1e-05
0.0202001 0.00107378 1e-05
0.0203365 0.00107286 1e-05
0.020473 0.00107195 1e-05
0.0206105 0.00107103 1e-05
0.020748 0.00107009 1e-05
0.0208855 0.00106913 1e-05
0.021023 0.00106816 1e-05
0.0211606 0.00106719 1e-05
0.0212991 0.00106623 1e-05
0.0214377 0.00106524 1e-05
0.0215763 0.00106422 1e-05
0.0217149 0.0010632 1e-05
0.0218535 0.00106218 1e-05
0.0219931 0.00106116 1e-05
0.0221328 0.00106012 1e-05
0.0222724 0.00105905 1e-05
0.0224121 0.00105797 1e-05
0.0225517 0.0010569 1e-05
0.0226925 0.00105583 1e-05
0.0228332 0.00105473 1e-05
0.022974 0.00105361 1e-05
0.0231147 0.00105248 1e-05
0.0232555 0.00105136 1e-05
0.0233973 0.00105023 1e-05
0.0235391 0.00104908 1e-05
0.023681 0.0010479 1e-05
0.0238228 0.00104672 1e-05
0.0239647 0.00104554 1e-05
0.0241076 0.00104437 1e-05
0.0242505 0.00104316 1e-05
0.0243935 0.00104193 1e-05
0.0245364 0.00104069 1e-05
0.0246794 0.00103946 1e-05
0.0248234 0.00103823 1e-05
0.0249675 0.00103697 1e-05
0.0251115 0.00103568 1e-05
0.0252556 0.00103439 1e-05
[...]
POINT_DATA 12040
 FIELD attributes 2
p 1 12040 float
-4.69005 -4.68674 -4.68343 -4.68012 -4.67682 -4.67351
-4.84309 -4.84307 -4.84305 -4.84302 -4.843 -4.84298
-5.01694 -5.01682 -5.01669 -5.01657 -5.01645 -5.01634
-5.11 -5.10995 -5.10989 -5.10984 -5.10979 -5.10973
-5.15484 -5.15473 -5.15462 -5.15451 -5.15439 -5.15428
-5.1612 -5.16104 -5.16088 -5.16071 -5.16055 -5.16039
-5.13413 -5.13406 -5.13399 -5.13392 -5.13385 -5.13378
-5.06449 -5.06445 -5.06441 -5.06437 -5.06433 -5.06429
-4.94323 -4.94324 -4.94325 -4.94325 -4.94326 -4.94327
-2.73072 -2.75004 -2.76924 -2.7883 -2.80723 -2.82602
-4.69005 -4.68938 -4.68582 -4.68217 -4.67845 -4.67018 -4.68411 -4.69914 -4.71418 -4.72921 -4.75369 -4.77548 -4.80543 -4.83539 -4.86534 -4.89811 -4.91378 -4.9355 -4.95723 -4.97895 -5.00229 -5.02121 -5.04213 -5.06305 -5.08398 -5.10166 -5.10274 -5.10381 -5.10489 -5.10596 -5.10703 -5.12872 -5.1504 -5.17208 -5.19377 -5.21518 -5.23397 -5.25256 -5.27116 -5.28976 -5.30778 -5.32344 -5.33881 -5.35418 -5.36956 -5.38438 -5.39819 -5.41174 -5.4253 -5.43886 -5.45197 -5.46472 -5.4772 -5.48968 -5.50216 -5.51422 -5.52605 -5.53758 -5.54912 -5.56065 -5.57176 -5.58276 -5.59348 -5.60421 -5.61494 -5.6253 -5.63567 -5.64577 -5.65586 -5.66596 -5.67573 -5.68559 -5.69524 -5.7049 -5.71455 -5.724 -5.73351 -5.74274 -5.75198 -5.76121 -5.77023 -5.77951 -5.78891 -5.79832 -5.80772 -5.8173 -5.8271 -5.83661 -5.84612 -5.85563 -5.86502 -5.87503 -5.886 -5.89698 -5.90796 -5.91927 -5.92964 -5.94099 -5.95233 -5.96368 -5.97459 -5.98449 -5.99398 -6.00346 -6.01295 -6.02154 -6.02902 -6.03742 -6.04582 -6.05423 -6.06331 -6.07157 -6.08021 -6.08885 -6.09749 -6.10623 -6.11446 -6.12167 -6.12889 -6.1361 -6.14243 -6.14925 -6.15478 -6.1603 -6.16582 -6.17026 -6.17598 -6.18065 -6.18531 -6.18998 -6.19368 -6.19861 -6.20263 -6.20665 -6.21068 -6.21389 -6.21785 -6.22106 -6.22427 -6.22748 -6.2301 -6.23307 -6.23549 -6.23791 -6.24033 -6.24238 -6.24463 -6.24653 -6.24843 -6.25034 -6.25205 -6.25395 -6.25565 -6.25734 -6.25904 -6.26064 -6.26236 -6.26396 -6.26555 -6.26715 -6.26871 -6.26987 -6.27097 -6.27208 -6.27318 -6.27424 -6.27466 -6.27508 -6.27549 -6.27591 -6.27635 -6.27778 -6.27924 -6.28071 -6.28217 -6.28382 -6.28508 -6.28654 -6.28801 -6.28948 -6.29136 -6.29241 -6.29393 -6.29544 -6.29696 -6.29919 -6.30005 -6.30168 -6.30331 -6.30494 -6.30764 -6.30832 -6.31008 -6.31183 -6.31359 -6.31676 -6.31723 -6.31908 -6.32093 -6.32278 -6.3264 -6.32666 -6.32862 -6.33058 -6.33255 -6.33662 -6.33674 -6.33884 -6.34093 -6.34303 -6.34752 -6.34756 -6.3498 -6.35203 -6.35427 -6.35912 -6.35911 -6.36148 -6.36385 -6.36622 -6.37139 -6.37137 -6.37388 -6.37638 -6.37903 -6.38431 -6.38458 -6.387 -6.38965 -6.39271 -6.39793 -6.39854 -6.40088 -6.40367 -6.40709 -6.41223 -6.4132 -6.41549 -6.41842 -6.42216 -6.42722 -6.42854 -6.43083 -6.4339 -6.43791 -6.44288 -6.44454 -6.44687 -6.45008 -6.45431 -6.4592 -6.46118 -6.4636 -6.46694 -6.47135 -6.47616 -6.47845 -6.48098 -6.48445 -6.48899 -6.49374 -6.49633 -6.49898 -6.50258 -6.50724 -6.51193 -6.51479 -6.51765 -6.52139 -6.52605 -6.53071 -6.53382 -6.53693 -6.5408 -6.54544 -6.55008 -6.55343 -6.55678 -6.56077 -6.56541 -6.57004 -6.57363 -6.57722 -6.58131 -6.58592 -6.59053 -6.59433 -6.59813 -6.60231 -6.60689 -6.61147 -6.61544 -6.6194 -6.62366 -6.62821 -6.63277 -6.63686 -6.64096 -6.64529 -6.64985 -6.65441 -6.65861 -6.66282 -6.66723 -6.67181 -6.6764 -6.68069 -6.68502 -6.68949 -6.69409 -6.69872 -6.70309 -6.7075 -6.71203 -6.71665 -6.72131 -6.72573 -6.73022 -6.73479 -6.73943 -6.74412 -6.74858 -6.75313 -6.75774 -6.76238 -6.7671 -6.7716 -6.77619 -6.78083 -6.78548 -6.79022 -6.79474 -6.79937 -6.80402 -6.80868 -6.81343 -6.81796 -6.82262 -6.82727 -6.83193 -6.83668 -6.84122 -6.84587 -6.85053 -6.85518 -6.8599 -6.86444 -6.86908 -6.87372 -6.87835 -6.88304 -6.88757 -6.89218 -6.89678 -6.90139 -6.90603 -6.91054 -6.9151 -6.91966 -6.92422 -6.9288 -6.93327 -6.93776 -6.94226 -6.94676 -6.95126 -6.95268 -6.95411 -6.95553 -6.95696 -6.95836 -6.96137 -6.96437 -6.96737 -6.97038 -6.97339 -6.97773 -6.98206 -6.9864 -6.99073 -6.99509 -6.99932 -7.00355 -7.00778 -7.01201 -7.01626 -7.02039 -7.0245 -7.02861 -7.03272 -7.03685 -7.04085 -7.04482 -7.04879 -7.05276 -7.05673 -7.06059 -7.06438 -7.06818 -7.07198 -7.07577 -7.07946 -7.08308 -7.08669 -7.09029 -7.09388 -7.09739 -7.10082 -7.10423 -7.10762 -7.11098 -7.11428 -7.11752 -7.12069 -7.12383 -7.12695 -7.13001 -7.13304 -7.13595 -7.13881 -7.14165 -7.14446 -7.14725 -7.14989 -7.15243 -7.15496 -7.15748 -7.16 -7.16233 -7.16454 -7.16675 -7.16895 -7.17116 -7.17317 -7.17502 -7.17687 -7.17873 -7.1806 -7.18227 -7.18373 -7.18519 -7.18668 -7.18818 -7.18948 -7.19053 -7.19158 -7.19267 -7.19376 -7.19465 -7.19528 -7.19588 -7.19654 -7.19715 -7.19759 -7.19782 -7.19795 -7.19815 -7.19823 -7.19818 -7.198 -7.19762 -7.19733 -7.19684 -7.19628 -7.19566 -7.19475 -7.19393 -7.19283 -7.19172 -7.19061 -7.18917 -7.18772 -7.18603 -7.18433 -7.18264 -7.1807 -7.17858 -7.17627 -7.17395 -7.17165 -7.1692 -7.16634 -7.16338 -7.16042 -7.15746 -7.15448 -7.15381 -7.15313 -7.15245 -7.15177 -7.1511 -7.14817 -7.14525 -7.14232 -7.1394 -7.13639 -7.1322 -7.12789 -7.12358 -7.11928 -7.11474 -7.10997 -7.10491 -7.09985 -7.0948 -7.08935 -7.08398 -7.07814 -7.0723 -7.06642 -7.06006 -7.05395 -7.04742 -7.04077 -7.0339 -7.02669 -7.01975 -7.01258 -7.00508 -6.99717 -6.98909 -6.98128 -6.97344 -6.96505 -6.95606 -6.94707 -6.93836 -6.92966 -6.92034 -6.91041 -6.90048 -6.89084 -6.88121 -6.87095 -6.86005 -6.84915 -6.83855 -6.82795 -6.81668 -6.80484 -6.79294 -6.78135 -6.76951 -6.75722 -6.74461 -6.73169 -6.71907 -6.70594 -6.6926 -6.67922 -6.66524 -6.65151 -6.6371 -6.62268 -6.60828 -6.59346 -6.57836 -6.56284 -6.54733 -6.53183 -6.51621 -6.5096 -6.50286 -6.49612 -6.48939 -6.48284 -6.473 -6.46315 -6.45331 -6.44347 -6.43347 -6.41601 -6.39838 -6.38077 -6.36316 -6.34509 -6.32677 -6.30799 -6.28923 -6.27039 -6.25092 -6.23153 -6.21179 -6.19186 -6.17152 -6.15086 -6.1303 -6.10969 -6.08856 -6.0667 -6.04484 -6.02308 -6.00133 -5.97893 -5.95586 -5.93279 -5.90983 -5.88687 -5.86316 -5.83893 -5.81464 -5.79047 -5.76592 -5.74096 -5.71587 -5.69036 -5.66497 -5.63879 -5.61261 -5.58643 -5.55992 -5.53481 -5.50931 -5.48382 -5.45834 -5.43445 -5.43222 -5.42999 -5.42776 -5.42553 -5.42328 -5.39474 -5.36619 -5.33765 -5.30912 -5.28026 -5.25073 -5.22096 -5.19121 -5.1614 -5.13108 -5.10041 -5.06957 -5.03861 -5.00728 -4.97575 -4.94387 -4.91201 -4.87976 -4.84704 -4.81431 -4.78124 -4.74817 -4.71463 -4.68073 -4.64682 -4.61257 -4.5781 -4.5433 -4.50843 -4.47336 -4.43795 -4.40199 -4.36604 -4.3301 -4.29402 -4.27146 -4.24869 -4.22592 -4.20316 -4.18125 -4.1668 -4.15235 -4.1379 -4.12346 -4.10886 -4.07084 -4.03274 -3.99464 -3.95656 -3.91796 -3.87902 -3.83989 -3.80072 -3.76127 -3.72152 -3.68152 -3.64152 -3.60123 -3.56046 -3.51968 -3.47864 -3.43762 -3.39614 -3.35438 -3.3126 -3.27057 -3.22829 -3.18574 -3.14318 -3.10045 -3.05736 -3.01387 -2.97038 -2.9269 -2.88338 -2.87616 -2.86887 -2.86159 -2.85431 -2.84709 -2.81001 -2.77294 -2.73588 -2.69882 -2.66143 -2.61635 -2.57116 -2.52597 -2.48064 -2.43491 -2.38902 -2.34311 -2.29709 -2.25059 -2.20407 -2.15737 -2.11068 -2.06363 -2.01638 -1.96911 -1.92166 -1.87399 -1.8261 -1.77822 -1.73025 -1.68407 -1.63758 -1.5911 -1.54463 -1.50045 -1.49789 -1.49534 -1.49279 -1.49023 -1.48766 -1.43846 -1.38925 -1.34006 -1.29088 -1.24131 -1.19154 -1.14173 -1.09193 -1.04187 -0.991616 -0.941251 -0.890896 -0.840366 -0.789575 -0.738759 -0.687832 -0.63684 -0.585543 -0.534243 -0.482904 -0.431443 -0.379637 -0.32784 -0.276051 -0.224238 -0.215268 -0.206252 -0.197236 -0.18822 -0.179279 -0.136017 -0.0927616 -0.049512 -0.0062686 0.0372492 0.0899438 0.142607 0.19526 0.248081 0.301089 0.354158 0.407218 0.460354 0.513659 0.566995 0.620397 0.673858 0.727521 0.781155 0.834781 0.887261 0.939955 0.99264 1.04532 1.0957 1.09741 1.09913 1.10085 1.10256 1.10429 1.15852 1.21274 1.26696 1.32116 1.37565 1.43016 1.48462 1.53904 1.59364 1.64833 1.70303 1.75772 1.81254 1.86733 1.92215 1.977 2.03196 2.08697 2.14197 2.19694 2.21985 2.24282 2.26579 2.28876 2.31132 2.34358 2.37584 2.4081 2.44035 2.47272 2.52807 2.5833 2.63853 2.69383 2.74925 2.80465 2.86004 2.9154 2.97078 3.0262 3.0816 3.13704 3.19252 3.248 3.30338 3.33515 3.36696 3.39876 3.43056 3.46163 3.48546 3.50928 3.53311 3.55693 3.58081 3.63637 3.69184 3.74729 3.80277 3.85833 3.91384 3.96934 4.02476 4.08013 4.13555 4.19094 4.24631 4.30168 4.35705 4.41232 4.43864 4.46495 4.49125 4.51755 4.54338 4.57244 4.60149 4.63054 4.65959 4.68865 4.74392 4.79904 4.85415 4.90923 4.96434 5.0194 5.07445 5.12941 5.1842 5.23905 5.29385 5.34857 5.40325 5.45793 5.51261 5.52137 5.53011 5.53885 5.54759 5.55629 5.60208 5.64787 5.69366 5.73944 5.78517 5.83956 5.89388 5.94809 6.00216 6.05629 6.11033 6.16434 6.21821 6.27201 6.32575 6.36119 6.39652 6.43184 6.46716 6.50179 6.52015 6.53851 6.55686 6.57521 6.59353 6.64688 6.70011 6.75335 6.8065 6.85961 6.91256 6.96551 7.0183 7.07089 7.12353 7.17601 7.22831 7.28057 7.33283 7.38512 7.38528 7.38544 7.38559 7.38575 7.38591 7.43775 7.48959 7.54142 7.59321 7.64482 7.69645 7.74808 7.79948 7.85066 7.90187 7.95293 8.0038 8.05457 8.10533 8.15608 8.16037 8.16464 8.16891 8.17317 8.17743 8.22358 8.26974 8.3159 8.36198 8.40786 8.45784 8.50783 8.55755 8.60702 8.6565 8.70582 8.7549 8.80386 8.85282 8.90176 8.90368 8.90558 8.90748 8.90938 8.91128 8.95794 9.0046 9.05126 9.09782 9.1441 9.19212 9.24014 9.28786 9.33527 9.38268 9.42649 9.47001 9.51341 9.55682 9.60081 9.60411 9.60742 9.61072 9.61401 9.61728 9.66365 9.70997 9.7563 9.80246 9.84831 9.89396 9.93961 9.98491 10.0299 10.0748 10.1115 10.1479 10.1842 10.2205 10.2578 10.2656 10.2734 10.2812 10.289 10.2967 10.3404 10.384 10.4277 10.471 10.5141 10.5569 10.5997 10.6422 10.6842 10.7262 10.7596 10.7927 10.8257 10.8586 10.893 10.901 10.909 10.9169 10.9249 10.9328 10.9733 11.0137 11.0541 11.0943 11.1341 11.1735 11.213 11.252 11.2906 11.3292 11.3665 11.4033 11.4401 11.4768 11.5165 11.5167 11.517 11.5173 11.5176 11.5178 11.5546 11.5913 11.628 11.6647 11.7008 11.7364 11.7721 11.8073 11.8421 11.8769 11.9112 11.9453 11.979 12.0128 12.0461 12.0646 12.0829 12.1011 12.1193 12.1388 12.1528 12.1669 12.1809 12.1949 12.2088 12.2404 12.2718 12.3031 12.3343 12.3653 12.3958 12.4262 12.4559 12.4849 12.5139 12.5423 12.571 12.6003 12.6296 12.659 12.6871 12.71 12.7329 12.7558 12.7777 12.7812 12.7862 12.7911 12.7961 12.8013 12.8222 12.8431 12.864 12.8849 12.9113 12.9454 12.9701 12.9945 13.0063 13.0118 13.016 13.0202 13.028 13.0385 13.0492 13.0581 13.0663 13.0743 13.0823 13.0919 13.0922 13.0925 13.0929 13.0932 13.0935 13.0997 13.1056 13.1115 13.1171 13.1207 13.1226 13.1244 13.1246 13.1232 13.1217 13.1185 13.1149 13.1096 13.1035 13.0968 13.0879 13.077 13.066 13.055 13.0436 13.0429 13.0421 13.0413 13.0405 13.0397 13.0245 13.0091 12.9937 12.9783 12.961 12.9398 12.9171 12.8938 12.8687 12.8428 12.8138 12.7848 12.7532 12.719 12.6848 12.6473 12.6089 12.568 12.5259 12.4823 12.4351 12.3844 12.3336 12.2827 12.2304 12.2018 12.1718 12.1418 12.1118 12.0776 12.0472 12.0168 11.9864 11.956 11.9242 11.8531 11.7803 11.7075 11.6346 11.5574 11.4751 11.3896 11.303 11.2136 11.1217 11.0246 10.9274 10.825 10.7178 10.6106 10.4976 10.3845 10.265 10.1392 10.0132 9.88091 9.74776 9.60951 9.46774 9.32444 9.1743 9.01713 8.85539 8.69219 8.5206 8.34113 8.15999 7.97881 7.79761 7.61529 7.41074 7.19011 6.96952 6.74897 6.52386 6.42752 6.33562 6.24371 6.1518 6.05311 5.91648 5.77986 5.64324 5.50663 5.37541 5.08772 4.77431 4.46048 4.14623 3.76649 3.38069 3.11528 2.84908 2.58213 2.49341 2.41971 2.01345 1.57394 0.925798 0