/*--------------------------------*- C++ -*----------------------------------*\
  =========                 |
  \\      /  F ield         | OpenFOAM: The Open Source CFD Toolbox
   \\    /   O peration     | Website:  https://openfoam.org
    \\  /    A nd           | Version:  8
     \\/     M anipulation  |
\*---------------------------------------------------------------------------*/
FoamFile
{
    version     2.0;
    format      ascii;
    class       volScalarField;
    location    "265";
    object      epsilon;
}
// * * * * * * * * * * * * * * * * * * * * * * * * * * * * * * * * * * * * * //

dimensions      [0 2 -3 0 0 0 0];

internalField   nonuniform List<scalar> 
12225
(
285.515
270.698
257.921
243.803
232.471
223.073
216.825
212.694
212.742
213.942
217.258
220.839
228.185
232.548
241.624
245.742
257.338
263.802
52.4947
91.8781
106.973
114.745
124.843
136.777
152.686
169.896
191.091
210.921
235.186
255.46
280.978
299.275
324.619
339.119
364.389
373.16
20.3235
34.8558
44.6752
50.4689
55.3957
59.6066
64.6624
69.6425
76.3111
83.1822
91.4215
99.3127
108.146
116.916
125.497
135.214
142.492
153.578
15.3483
19.6974
24.1126
27.5687
30.4969
32.8697
35.1541
37.2936
39.5004
41.9173
44.3329
47.1992
49.6749
53.0308
55.401
59.2151
61.4049
65.6021
14.6508
15.8626
17.367
19.0738
20.6381
22.0259
23.2455
24.4311
25.4432
26.5943
27.5222
28.7566
29.6299
30.9819
31.809
33.2575
34.0685
35.6313
14.7068
14.8769
15.2015
15.8667
16.5666
17.2868
17.9234
18.5841
19.1188
19.7337
20.1928
20.7981
21.2075
21.8209
22.1963
22.8221
23.1753
23.8522
14.7421
14.6201
14.6248
14.737
14.9297
15.219
15.4912
15.8088
16.0708
16.3824
16.6179
16.9198
17.1304
17.4263
17.615
17.9106
18.0797
18.4034
14.7626
14.5866
14.4637
14.3812
14.3669
14.39
14.4381
14.5337
14.6185
14.7366
14.8307
14.9563
15.0475
15.1758
15.2606
15.3911
15.469
15.6183
14.7666
14.5908
14.4346
14.2963
14.1849
14.1044
14.0398
14.0066
13.9814
13.9785
13.9808
13.9916
14.004
14.0294
14.047
14.0791
14.1028
14.145
14.7663
14.5939
14.432
14.282
14.143
14.0219
13.9115
13.8194
13.737
13.6698
13.6102
13.5633
13.5181
13.4871
13.4516
13.4341
13.4021
13.4006
14.7658
14.5945
14.4321
14.2803
14.1362
14.0032
13.8782
13.7644
13.6582
13.5629
13.4736
13.3952
13.3198
13.2561
13.1916
13.1408
13.0838
13.0451
14.7657
14.5943
14.4321
14.2798
14.1353
13.9999
13.8715
13.7518
13.6385
13.5337
13.4341
13.343
13.2557
13.1771
13.1003
13.0328
12.9647
12.9074
14.7657
14.5941
14.432
14.2794
14.1349
13.9989
13.8699
13.7485
13.6332
13.525
13.422
13.3257
13.2338
13.1484
13.0663
12.9906
12.9172
12.8502
14.7657
14.5939
14.4318
14.279
14.1346
13.9983
13.8692
13.7472
13.6315
13.5223
13.4184
13.3204
13.227
13.139
13.055
12.9759
12.9002
12.8291
14.7657
14.5938
14.4317
14.2787
14.1342
13.9977
13.8686
13.7464
13.6307
13.5211
13.4171
13.3185
13.2248
13.136
13.0516
12.9714
12.8951
12.8227
14.7657
14.5937
14.4315
14.2785
14.1339
13.9973
13.8681
13.7458
13.63
13.5202
13.4161
13.3174
13.2236
13.1346
13.05
12.9696
12.8931
12.8204
14.7657
14.5937
14.4315
14.2783
14.1337
13.997
13.8677
13.7453
13.6294
13.5195
13.4154
13.3165
13.2227
13.1336
13.0489
12.9684
12.8918
12.819
14.7657
14.5937
14.4314
14.2782
14.1335
13.9968
13.8674
13.7449
13.629
13.5191
13.4148
13.3159
13.222
13.1328
13.0481
12.9675
12.8908
12.8179
14.7657
14.5937
14.4314
14.2782
14.1335
13.9967
13.8673
13.7448
13.6288
13.5189
13.4146
13.3156
13.2217
13.1325
13.0477
12.967
12.8904
12.8174
14.7657
14.5937
14.4314
14.2782
14.1336
13.9968
13.8674
13.745
13.629
13.519
13.4148
13.3158
13.2219
13.1327
13.0479
12.9673
12.8906
12.8177
14.7657
14.5937
14.4315
14.2784
14.1337
13.997
13.8677
13.7453
13.6294
13.5195
13.4154
13.3166
13.2229
13.1338
13.0493
12.9689
12.8926
12.8199
14.7657
14.5937
14.4316
14.2785
14.1341
13.9974
13.8685
13.7464
13.6312
13.522
13.419
13.3213
13.2293
13.1418
13.0594
12.981
12.9073
12.8368
14.7658
14.5937
14.4318
14.2788
14.1353
14.0002
13.8742
13.756
13.6463
13.5435
13.4485
13.3591
13.277
13.1992
13.1282
13.0601
12.9988
12.9386
14.7655
14.5928
14.4328
14.2844
14.1515
14.0321
13.929
13.8375
13.7593
13.6894
13.6306
13.5769
13.5328
13.4905
13.4574
13.423
13.3989
13.3693
14.7592
14.5932
14.4603
14.3602
14.3029
14.2766
14.2805
14.2921
14.3211
14.3531
14.3959
14.4346
14.4825
14.5217
14.572
14.609
14.6617
14.6939
14.7213
14.6911
14.754
14.9176
15.1828
15.4611
15.7476
16.012
16.2724
16.5038
16.7361
16.9387
17.1508
17.331
17.5311
17.6938
17.889
18.0362
14.7477
15.5124
16.5473
17.6841
18.7044
19.5676
20.3373
20.9969
21.6196
22.1662
22.7191
23.2111
23.7403
24.2047
24.7331
25.1831
25.7256
26.1666
15.9871
20.9921
25.0238
27.7605
29.7847
31.3586
32.7772
34.0581
35.3598
36.6168
37.9761
39.2979
40.7626
42.1469
43.7192
45.1754
46.8857
48.3606
29.9032
47.2183
54.8697
58.6737
61.6143
64.4325
67.5814
70.9786
74.7402
78.7165
82.9881
87.3479
91.9093
96.4551
101.106
105.629
110.182
114.584
165.798
160.075
154.899
149.565
144.479
139.678
135.614
132.109
129.27
126.974
125.32
124.045
123.341
122.826
122.842
122.961
123.285
123.829
0.180441
0.226318
0.420586
0.593989
0.76491
0.957143
1.17917
1.44004
1.74286
2.08434
2.45709
2.85273
3.26347
3.68301
4.10627
4.52943
4.94935
5.36353
5.76953
6.16502
6.5473
6.91348
7.2602
7.58405
7.88152
8.14968
8.38636
8.5909
8.76372
8.88056
8.9982
9.15049
9.23763
9.30088
9.33839
9.28542
9.08039
8.89541
9.36082
40.092
40.7561
40.7072
45.2588
47.6952
51.4177
54.819
58.6251
62.4906
66.5796
70.8145
75.236
79.8288
84.6042
89.5623
94.7068
100.042
105.569
111.293
117.215
123.339
129.664
136.196
142.932
149.877
157.028
164.39
171.956
179.731
187.708
195.891
204.272
212.851
221.621
230.582
239.723
249.045
258.533
268.188
277.996
287.954
298.047
308.271
318.608
329.055
339.591
350.211
360.892
371.627
382.392
393.174
403.95
414.694
425.381
435.984
446.48
456.85
467.098
477.279
487.36
497.287
507.072
516.693
526.136
535.385
544.423
553.234
561.801
570.11
578.144
585.89
593.33
600.452
607.241
613.684
619.767
625.479
630.808
635.743
640.274
644.391
648.087
651.354
654.187
656.581
658.534
660.041
661.098
661.742
661.907
661.602
660.723
659.482
657.923
655.913
653.437
650.557
647.275
643.603
639.557
635.145
630.384
625.284
619.867
614.148
608.146
601.878
595.362
588.616
581.66
574.514
567.196
559.727
552.125
544.412
536.606
528.726
520.792
512.821
504.832
496.849
488.904
481.083
474.039
469.984
466.975
464.077
461.221
458.403
455.625
452.891
450.203
447.557
444.945
442.349
439.728
437
434.006
430.308
424.825
401.135
0.914218
0.565061
0.571922
0.647222
0.763125
0.913192
1.09867
1.32066
1.57804
1.8673
2.18341
2.52106
2.87545
3.24265
3.61955
4.00382
4.39371
4.78787
5.18526
5.58499
5.98631
6.38857
6.79133
7.1945
7.59855
8.00468
8.41498
8.83229
9.2762
9.76804
10.3317
10.9817
11.7386
12.6452
13.7836
15.2099
16.9387
18.6155
21.8279
24.5939
25.5236
26.9611
28.7604
30.3386
32.1018
33.8733
35.7342
37.6466
39.6308
41.6793
43.798
45.9864
48.2465
50.5794
52.986
55.4675
58.0245
60.6579
63.368
66.1555
69.0205
71.9635
74.984
78.0823
81.2575
84.5097
87.8376
91.2409
94.718
98.2681
101.889
105.58
109.339
113.164
117.051
121
125.006
129.068
133.181
137.343
141.549
145.797
150.08
154.395
158.736
163.099
167.477
171.865
176.255
180.642
185.017
189.372
193.7
197.996
202.258
206.492
210.716
214.973
219.237
223.439
227.587
231.672
235.689
239.63
243.49
247.263
250.941
254.52
257.992
261.353
264.596
267.715
270.705
273.56
276.276
278.846
281.268
283.536
285.645
287.592
289.374
290.988
292.43
293.698
294.79
295.705
296.441
296.998
297.365
297.537
297.519
297.332
296.998
296.482
295.78
294.909
293.869
292.667
291.305
289.788
288.122
286.311
284.362
282.282
280.076
277.751
275.314
272.772
270.132
267.402
264.59
261.703
258.749
255.736
252.672
249.564
246.421
243.25
240.059
236.858
233.661
230.506
227.55
225.184
223.094
221.075
219.09
217.13
215.196
213.289
211.41
209.56
207.741
205.95
204.186
202.45
200.725
199.068
197.354
194.498
1.9424
0.999687
0.900467
0.937462
1.03232
1.17036
1.34781
1.56281
1.8127
2.09355
2.40064
2.7293
3.07548
3.43606
3.80885
4.19246
4.58614
4.9896
5.40294
5.82652
6.26098
6.7073
7.167
7.64242
8.13723
8.65695
9.20981
9.80739
10.4532
11.1524
11.9149
12.7543
13.6788
14.6963
15.8162
17.0374
18.3452
19.7142
21.1978
22.5106
23.7122
25.0273
26.4036
27.7977
29.2548
30.7601
32.3207
33.9334
35.6006
37.3221
39.0991
40.9322
42.822
44.7693
46.7744
48.8379
50.9604
53.1421
55.3833
57.6844
60.0455
62.4666
64.9476
67.4887
70.0891
72.7485
75.4663
78.2419
81.0744
83.963
86.9065
89.9037
92.9532
96.0535
99.2027
102.399
105.64
108.925
112.249
115.612
119.009
122.438
125.896
129.379
132.883
136.406
139.942
143.488
147.039
150.592
154.141
157.684
161.218
164.739
168.25
171.75
175.245
178.734
182.198
185.621
189
192.329
195.604
198.817
201.966
205.044
208.047
210.969
213.805
216.551
219.202
221.753
224.199
226.537
228.761
230.868
232.855
234.716
236.45
238.052
239.52
240.851
242.043
243.094
244.001
244.764
245.38
245.849
246.166
246.314
246.333
246.207
245.944
245.537
244.984
244.292
243.463
242.5
241.408
240.189
238.849
237.391
235.821
234.143
232.362
230.484
228.515
226.459
224.323
222.113
219.835
217.495
215.1
212.656
210.169
207.646
205.092
202.515
199.92
197.317
194.715
192.137
189.652
187.384
185.254
183.185
181.152
179.145
177.166
175.214
173.29
171.398
169.539
167.716
165.935
164.212
162.559
161.065
159.737
158.594
3.11244
1.48784
1.27184
1.27167
1.35529
1.49108
1.66923
1.88536
2.13595
2.41718
2.72491
3.05513
3.40441
3.77016
4.15069
4.54512
4.95326
5.37541
5.81229
6.2649
6.73457
7.22286
7.7318
8.26395
8.82256
9.41171
10.0361
10.7004
11.4087
12.1648
12.9729
13.8359
14.7548
15.7296
16.7606
17.8474
18.985
20.1594
21.3499
22.5409
23.7574
25.0272
26.3425
27.6966
29.098
30.5473
32.0461
33.5948
35.1943
36.8454
38.5488
40.3052
42.1154
43.9799
45.8993
47.8742
49.9049
51.9921
54.136
56.3371
58.5956
60.9117
63.2855
65.717
68.2062
70.7527
73.3563
76.0165
78.7327
81.5043
84.3304
87.21
90.142
93.1249
96.1574
99.2376
102.364
105.534
108.746
111.997
115.285
118.607
121.96
125.341
128.747
132.173
135.617
139.075
142.543
146.017
149.494
152.971
156.445
159.913
163.373
166.823
170.263
173.682
177.071
180.421
183.728
186.986
190.19
193.335
196.414
199.424
202.359
205.213
207.983
210.662
213.247
215.732
218.113
220.386
222.546
224.59
226.514
228.313
229.986
231.528
232.937
234.21
235.346
236.341
237.194
237.903
238.468
238.888
239.15
239.255
239.238
239.073
238.768
238.321
237.733
237.008
236.149
235.159
234.042
232.802
231.444
229.971
228.388
226.701
224.914
223.033
221.063
219.009
216.879
214.677
212.41
210.083
207.703
205.276
202.809
200.307
197.777
195.225
192.657
190.081
187.505
184.947
182.443
180.045
177.734
175.475
173.253
171.06
168.898
166.766
164.667
162.603
160.578
158.597
156.67
154.812
153.051
151.472
150.11
149.067
4.28249
1.98557
1.64892
1.61198
1.68144
1.81258
1.98969
2.20584
2.4566
2.73811
3.04665
3.37871
3.73132
4.10221
4.4899
4.89369
5.3135
5.74978
6.20338
6.67543
7.16732
7.68063
8.21718
8.77909
9.36877
9.98897
10.6427
11.3328
12.0621
12.8328
13.6467
14.5045
15.4061
16.3509
17.338
18.3656
19.4313
20.5375
21.684
22.8647
24.0862
25.3538
26.6649
28.0211
29.424
30.8749
32.3752
33.9259
35.528
37.1823
38.89
40.6518
42.4689
44.3421
46.2723
48.2599
50.3056
52.41
54.5739
56.7979
59.0825
61.4281
63.8352
66.3039
68.8345
71.4271
74.0815
76.7977
79.5751
82.4135
85.3121
88.2701
91.2865
94.3602
97.4898
100.674
103.91
107.197
110.532
113.914
117.338
120.803
124.306
127.842
131.41
135.004
138.622
142.26
145.914
149.579
153.252
156.929
160.606
164.279
167.943
171.593
175.223
178.827
182.397
185.927
189.411
192.843
196.217
199.527
202.768
205.934
209.019
212.017
214.924
217.733
220.441
223.041
225.529
227.9
230.15
232.274
234.269
236.131
237.857
239.442
240.885
242.182
243.331
244.33
245.178
245.872
246.412
246.796
247.007
247.07
246.99
246.754
246.368
245.832
245.148
244.319
243.349
242.242
241.001
239.632
238.138
236.524
234.796
232.96
231.02
228.982
226.852
224.637
222.341
219.973
217.537
215.041
212.491
209.893
207.255
204.582
201.882
199.16
196.423
193.677
190.933
188.201
185.505
182.872
180.298
177.771
175.28
172.823
170.4
168.013
165.663
163.355
161.094
158.886
156.744
154.689
152.752
151.009
149.489
148.22
5.39606
2.46745
2.0122
1.93824
1.99169
2.11593
2.28967
2.50355
2.75218
3.03153
3.33813
3.66886
4.02109
4.39278
4.7826
5.18986
5.61447
6.05684
6.51776
6.99833
7.49986
8.02383
8.57187
9.14578
9.74749
10.3791
11.0427
11.7406
12.4748
13.2471
14.0589
14.9112
15.8046
16.7392
17.715
18.7319
19.7904
20.8915
22.0355
23.2225
24.4544
25.733
27.0587
28.4323
29.855
31.3282
32.8531
34.4312
36.0636
37.7515
39.4961
41.2986
43.1601
45.0814
47.0639
49.1089
51.2175
53.3908
55.6298
57.9354
60.3086
62.7501
65.2606
67.8408
70.4911
73.2119
76.0034
78.8657
81.7987
84.802
87.8753
91.0177
94.2285
97.5064
100.85
104.258
107.728
111.259
114.847
118.49
122.186
125.931
129.722
133.555
137.427
141.333
145.269
149.23
153.213
157.212
161.223
165.24
169.258
173.272
177.275
181.262
185.226
189.159
193.054
196.905
200.705
204.448
208.126
211.732
215.262
218.707
222.062
225.32
228.476
231.523
234.455
237.268
239.955
242.511
244.933
247.214
249.351
251.34
253.177
254.858
256.381
257.743
258.941
259.972
260.837
261.532
262.058
262.407
262.569
262.579
262.421
262.094
261.602
260.946
260.129
259.154
258.026
256.749
255.327
253.765
252.07
250.246
248.298
246.234
244.06
241.78
239.403
236.934
234.381
231.75
229.049
226.283
223.462
220.591
217.678
214.73
211.753
208.755
205.743
202.723
199.703
196.695
193.712
190.773
187.88
185.029
182.216
179.441
176.705
174.009
171.359
168.756
166.209
163.726
161.32
159.015
156.842
154.866
153.103
151.5
6.41434
2.9156
2.34744
2.23651
2.27252
2.38779
2.5558
2.76488
3.00869
3.28292
3.58422
3.90975
4.25717
4.62467
5.01104
5.41564
5.83837
6.2796
6.74007
7.22083
7.72317
8.24851
8.79844
9.3746
9.97874
10.6126
11.2782
11.9772
12.7116
13.483
14.2929
15.1426
16.0332
16.9655
17.9401
18.9577
20.0191
21.1253
22.2772
23.4758
24.7226
26.0189
27.3657
28.764
30.2153
31.7209
33.2823
34.9013
36.5791
38.3175
40.118
41.982
43.9112
45.9069
47.9709
50.1048
52.3099
54.5879
56.9402
59.3681
61.8729
64.4559
67.118
69.8603
72.6837
75.5887
78.576
81.6458
84.7982
88.0332
91.3504
94.7492
98.2287
101.788
105.425
109.139
112.928
116.788
120.718
124.715
128.775
132.894
137.07
141.297
145.571
149.887
154.242
158.628
163.041
167.475
171.923
176.381
180.841
185.296
189.739
194.163
198.56
202.922
207.241
211.509
215.72
219.864
223.936
227.927
231.829
235.635
239.338
242.931
246.407
249.76
252.981
256.067
259.009
261.804
264.445
266.928
269.247
271.398
273.378
275.183
276.809
278.253
279.514
280.588
281.475
282.173
282.681
282.986
283.098
283.033
282.78
282.339
281.715
280.91
279.927
278.77
277.444
275.955
274.306
272.505
270.557
268.469
266.247
263.898
261.429
258.847
256.159
253.373
250.496
247.535
244.499
241.396
238.233
235.018
231.758
228.462
225.138
221.791
218.431
215.064
211.697
208.341
205.007
201.707
198.447
195.228
192.049
188.912
185.819
182.773
179.779
176.843
173.97
171.172
168.463
165.866
163.412
161.156
159.095
157.123
7.31012
3.31648
2.64419
2.49709
2.51459
2.61904
2.77911
2.98102
3.21746
3.48381
3.77677
4.09369
4.4325
4.79161
5.16998
5.56706
5.98279
6.41753
6.87204
7.34736
7.84479
8.36577
8.91187
9.48474
10.0861
10.7172
11.38
12.0764
12.8081
13.5768
14.3842
15.2317
16.1207
17.0523
18.0277
19.0481
20.1144
21.2282
22.3905
23.6026
24.8662
26.1829
27.5541
28.9811
30.4657
32.0096
33.6149
35.2832
37.0166
38.8171
40.6865
42.6269
44.6404
46.7288
48.8943
51.1389
53.4646
55.8734
58.3672
60.9479
63.6172
66.3767
69.228
72.1725
75.2114
78.3457
81.5762
84.9036
88.3281
91.8498
95.4685
99.1837
102.995
106.9
110.898
114.987
119.165
123.428
127.775
132.201
136.703
141.276
145.917
150.619
155.378
160.188
165.043
169.937
174.863
179.814
184.784
189.763
194.746
199.722
204.684
209.623
214.531
219.398
224.215
228.973
233.665
238.28
242.81
247.247
251.582
255.807
259.913
263.891
267.736
271.438
274.99
278.386
281.619
284.682
287.57
290.277
292.799
295.13
297.266
299.203
300.938
302.468
303.791
304.904
305.806
306.497
306.974
307.222
307.265
307.101
306.727
306.146
305.361
304.375
303.192
301.817
300.255
298.513
296.596
294.512
292.267
289.868
287.324
284.641
281.828
278.892
275.841
272.685
269.43
266.086
262.661
259.165
255.604
251.989
248.328
244.628
240.899
237.149
233.385
229.615
225.847
222.09
218.354
214.648
210.981
207.354
203.771
200.235
196.749
193.318
189.946
186.64
183.408
180.262
177.216
174.293
171.522
168.947
166.55
164.192
8.067
3.66151
2.89614
2.71418
2.71274
2.80473
2.95492
3.14758
3.37449
3.63072
3.91294
4.21867
4.54606
4.89374
5.26086
5.64703
6.05225
6.47677
6.92138
7.38727
7.87581
8.38847
8.92685
9.49265
10.0877
10.7137
11.3718
12.0637
12.7913
13.5561
14.3599
15.2044
16.091
17.0214
17.9969
19.0191
20.0895
21.2097
22.3816
23.6073
24.8895
26.2291
27.6279
29.087
30.609
32.1965
33.8518
35.5773
37.3754
39.2486
41.1992
43.2298
45.3431
47.5414
49.8276
52.204
54.6734
57.2382
59.9009
62.6639
65.5295
68.4998
71.5768
74.7623
78.0579
81.4651
84.9849
88.6182
92.3655
96.227
100.203
104.292
108.493
112.806
117.228
121.757
126.391
131.126
135.958
140.884
145.9
150.999
156.177
161.428
166.745
172.121
177.55
183.024
188.535
194.074
199.633
205.204
210.776
216.34
221.885
227.403
232.883
238.314
243.686
248.989
254.213
259.349
264.385
269.312
274.12
278.801
283.343
287.739
291.98
296.057
299.961
303.687
307.225
310.569
313.713
316.651
319.378
321.887
324.176
326.24
328.076
329.68
331.05
332.185
333.084
333.745
334.163
334.335
334.277
333.985
333.459
332.705
331.724
330.521
329.1
327.468
325.63
323.595
321.368
318.958
316.373
313.62
310.709
307.648
304.446
301.111
297.652
294.079
290.402
286.628
282.769
278.833
274.829
270.768
266.659
262.511
258.332
254.132
249.92
245.703
241.49
237.289
233.11
228.962
224.852
220.786
216.768
212.801
208.892
205.045
201.266
197.563
193.944
190.421
187.009
183.731
180.611
177.687
174.927
172.175
8.67684
3.9463
3.10062
2.88451
2.86511
2.94352
3.08229
3.26401
3.47971
3.72414
3.9939
4.28667
4.60074
4.93481
5.28839
5.66153
6.05476
6.46923
6.90467
7.36185
7.84196
8.34638
8.87666
9.43436
10.021
10.6381
11.2876
11.9712
12.6908
13.4484
14.2459
15.0852
15.9679
16.8961
17.8716
18.8962
19.972
21.101
22.2853
23.5267
24.8273
26.1896
27.6166
29.1115
30.6764
32.3141
34.0278
35.8203
37.6946
39.6536
41.7003
43.838
46.0697
48.3986
50.8281
53.3613
56.0013
58.7514
61.6146
64.5939
67.6921
70.9119
74.2557
77.7258
81.3242
85.0526
88.9124
92.9045
97.0296
101.288
105.679
110.203
114.858
119.642
124.553
129.589
134.746
140.021
145.408
150.904
156.502
162.197
167.981
173.849
179.791
185.801
191.87
197.988
204.146
210.335
216.543
222.762
228.979
235.183
241.363
247.508
253.605
259.643
265.61
271.495
277.286
282.971
288.54
293.982
299.285
304.439
309.433
314.257
318.902
323.358
327.617
331.67
335.509
339.127
342.517
345.673
348.589
351.259
353.681
355.848
357.759
359.41
360.799
361.925
362.787
363.384
363.71
363.772
363.572
363.111
362.395
361.426
360.208
358.746
357.046
355.114
352.958
350.586
348.007
345.229
342.261
339.112
335.793
332.311
328.678
324.903
320.996
316.967
312.826
308.583
304.25
299.835
295.351
290.806
286.211
281.577
276.912
272.227
267.53
262.831
258.138
253.461
248.807
244.186
239.606
235.074
230.594
226.173
221.816
217.529
213.32
209.196
205.167
201.244
197.445
193.787
190.295
186.998
183.855
180.704
9.13918
4.16945
3.25714
3.0099
2.97286
3.03702
3.16325
3.33281
3.5361
3.76759
4.02357
4.30235
4.60295
4.92533
5.26785
5.63001
6.01179
6.41313
6.83476
7.27821
7.74485
8.23609
8.75343
9.29844
9.87278
10.4782
11.1168
11.7907
12.5017
13.2517
14.0428
14.877
15.7567
16.6839
17.6609
18.6901
19.7739
20.9148
22.1153
23.3783
24.7066
26.1032
27.5711
29.112
30.7291
32.4278
34.2129
36.0876
38.0553
40.1197
42.2842
44.5528
46.9292
49.4174
52.0213
54.7448
57.5917
60.5659
63.671
66.9106
70.2881
73.8066
77.4691
81.2781
85.2359
89.3444
93.6052
98.0193
102.587
107.309
112.184
117.212
122.39
127.717
133.19
138.804
144.557
150.443
156.456
162.592
168.842
175.201
181.658
188.208
194.839
201.543
208.309
215.127
221.985
228.873
235.778
242.688
249.59
256.472
263.32
270.121
276.862
283.53
290.112
296.594
302.963
309.208
315.315
321.272
327.067
332.688
338.124
343.364
348.398
353.215
357.806
362.162
366.275
370.136
373.74
377.079
380.148
382.942
385.455
387.685
389.628
391.281
392.643
393.714
394.491
394.976
395.166
395.065
394.674
393.996
393.039
391.807
390.304
388.536
386.509
384.231
381.711
378.958
375.983
372.793
369.4
365.814
362.046
358.105
354.003
349.751
345.358
340.837
336.199
331.453
326.613
321.689
316.691
311.632
306.522
301.373
296.193
290.995
285.787
280.58
275.382
270.202
265.05
259.935
254.864
249.845
244.886
239.991
235.169
230.426
225.769
221.207
216.751
212.412
208.207
204.153
200.269
196.583
193.047
189.497
9.46079
4.3331
3.36809
3.09342
3.03936
3.08902
3.20197
3.3584
3.54857
3.76744
4.01224
4.2798
4.56827
4.87593
5.20259
5.54861
5.91432
6.30033
6.70796
7.13802
7.59166
8.07027
8.57537
9.10861
9.67181
10.2669
10.8959
11.5609
12.2643
13.0081
13.7948
14.6269
15.5068
16.4372
17.4209
18.4608
19.5599
20.721
21.9475
23.2427
24.6108
26.0543
27.5757
29.1762
30.8651
32.6467
34.5256
36.5079
38.5975
40.7982
43.1146
45.551
48.1121
50.8026
53.627
56.5901
59.6963
62.9501
66.3557
69.9172
73.6384
77.5228
81.5738
85.7939
90.1857
94.7509
99.491
104.407
109.498
114.766
120.207
125.821
131.606
137.557
143.672
149.946
156.372
162.946
169.66
176.508
183.479
190.567
197.761
205.05
212.425
219.874
227.385
234.945
242.541
250.162
257.792
265.417
273.025
280.599
288.125
295.589
302.975
310.27
317.457
324.524
331.456
338.239
344.859
351.302
357.557
363.61
369.45
375.063
380.441
385.571
390.444
395.051
399.383
403.433
407.192
410.656
413.817
416.672
419.215
421.443
423.355
424.947
426.218
427.168
427.798
428.108
428.098
427.776
427.128
426.175
424.919
423.368
421.524
419.394
416.988
414.314
411.381
408.201
404.783
401.139
397.28
393.217
388.962
384.525
379.92
375.157
370.248
365.205
360.04
354.765
349.392
343.933
338.399
332.804
327.157
321.472
315.759
310.029
304.292
298.559
292.839
287.142
281.476
275.852
270.278
264.762
259.311
253.933
248.635
243.424
238.31
233.301
228.407
223.642
219.02
214.559
210.274
206.189
202.253
198.309
9.65525
4.44258
3.43773
3.13953
3.06948
3.10466
3.20471
3.3502
3.52974
3.73685
3.96702
4.21878
4.49106
4.78331
5.09553
5.4276
5.7798
6.15278
6.54748
6.96496
7.40651
7.87356
8.36777
8.89093
9.44502
10.0321
10.6545
11.3145
12.0148
12.758
13.5469
14.3844
15.2734
16.2172
17.2191
18.2827
19.4125
20.6111
21.8819
23.2283
24.6518
26.1583
27.7547
29.4482
31.2439
33.1468
35.1625
37.2971
39.5562
41.9448
44.4681
47.1316
49.9407
52.9008
56.0172
59.2952
62.7399
66.3561
70.1485
74.1215
78.2792
82.625
87.1622
91.8933
96.8205
101.945
107.268
112.789
118.508
124.423
130.532
136.833
143.321
149.992
156.841
163.861
171.045
178.386
185.876
193.504
201.261
209.136
217.117
225.194
233.352
241.579
249.86
258.183
266.532
274.891
283.247
291.583
299.883
308.132
316.313
324.41
332.406
340.287
348.036
355.638
363.077
370.339
377.409
384.273
390.917
397.329
403.495
409.404
415.044
420.404
425.475
430.247
434.712
438.861
442.688
446.187
449.352
452.179
454.664
456.804
458.597
460.042
461.138
461.886
462.287
462.343
462.064
461.431
460.459
459.159
457.538
455.6
453.353
450.803
447.961
444.837
441.441
437.784
433.879
429.738
425.373
420.795
416.019
411.054
405.916
400.614
395.164
389.576
383.863
378.039
372.116
366.105
360.021
353.876
347.681
341.449
335.192
328.921
322.648
316.382
310.133
303.913
297.729
291.593
285.512
279.495
273.55
267.686
261.91
256.231
250.657
245.198
239.865
234.671
229.629
224.756
220.066
215.581
211.246
206.917
9.7141
4.49676
3.46854
3.15219
3.06897
3.09362
3.18292
3.3151
3.47996
3.67207
3.88834
4.12679
4.38612
4.66569
4.96535
5.28521
5.62573
5.98761
6.37183
6.77959
7.21229
7.67159
8.15935
8.67765
9.22875
9.815
10.439
11.1035
11.8115
12.5664
13.3721
14.2319
15.1488
16.1268
17.1694
18.2798
19.4594
20.715
22.0528
23.4788
25.0001
26.6221
28.3511
30.1939
32.1567
34.2461
36.4687
38.8321
41.3416
44.0038
46.8255
49.813
52.9728
56.3106
59.8324
63.5435
67.4492
71.5546
75.8643
80.3822
85.1122
90.0571
95.2195
100.601
106.203
112.025
118.067
124.328
130.804
137.495
144.394
151.498
158.8
166.295
173.975
181.832
189.856
198.038
206.367
214.831
223.42
232.12
240.917
249.798
258.748
267.753
276.796
285.863
294.936
304
313.037
322.032
330.966
339.822
348.584
357.234
365.755
374.13
382.344
390.378
398.219
405.85
413.257
420.425
427.34
433.989
440.359
446.439
452.216
457.681
462.823
467.634
472.106
476.23
480.001
483.413
486.461
489.142
491.453
493.391
494.954
496.144
496.96
497.401
497.475
497.194
496.533
495.506
494.126
492.401
490.337
487.942
485.223
482.189
478.852
475.221
471.31
467.13
462.694
458.016
453.108
447.984
442.656
437.138
431.443
425.584
419.574
413.426
407.154
400.77
394.288
387.721
381.082
374.384
367.64
360.862
354.063
347.254
340.446
333.652
326.88
320.141
313.446
306.803
300.222
293.712
287.281
280.939
274.693
268.552
262.525
256.623
250.857
245.239
239.783
234.503
229.412
224.531
219.807
215.109
9.69326
4.50606
3.46796
3.14184
3.04847
3.05974
3.13517
3.25452
3.40741
3.58796
3.79289
4.02025
4.26894
4.53847
4.82878
5.14019
5.47333
5.82911
6.20864
6.61332
7.04484
7.50516
7.99655
8.5218
9.084
9.68547
10.3292
11.0186
11.7571
12.5477
13.3926
14.2957
15.2635
16.3014
17.4149
18.6099
19.8939
21.2717
22.75
24.3361
26.0377
27.8623
29.8172
31.9101
34.1485
36.5402
39.093
41.8149
44.713
47.7954
51.0698
54.5441
58.2249
62.1179
66.2283
70.5609
75.1203
79.9106
84.9351
90.1968
95.6976
101.439
107.421
113.644
120.107
126.807
133.742
140.907
148.298
155.909
163.733
171.764
179.993
188.411
197.008
205.773
214.695
223.762
232.961
242.28
251.703
261.216
270.805
280.454
290.147
299.868
309.6
319.326
329.029
338.692
348.297
357.826
367.263
376.588
385.785
394.836
403.724
412.431
420.942
429.239
437.308
445.132
452.698
459.99
466.996
473.703
480.097
486.168
491.905
497.298
502.337
507.015
511.324
515.257
518.809
521.976
524.752
527.137
529.127
530.721
531.919
532.722
533.131
533.141
532.795
532.034
530.892
529.377
527.495
525.255
522.668
519.738
516.476
512.893
509.001
504.81
500.335
495.587
490.582
485.333
479.853
474.157
468.257
462.168
455.903
449.475
442.899
436.188
429.355
422.414
415.378
408.26
401.075
393.835
386.553
379.242
371.914
364.583
357.258
349.952
342.674
335.436
328.247
321.117
314.055
307.071
300.173
293.37
286.672
280.087
273.626
267.297
261.114
255.087
249.23
243.557
238.078
232.816
227.716
222.672
9.62571
4.49376
3.44972
3.11081
3.00496
3.00545
3.0707
3.18021
3.32367
3.4955
3.69257
3.9131
4.15617
4.4215
4.70931
5.02033
5.35589
5.71724
6.10558
6.52272
6.97081
7.4522
7.96934
8.52429
9.11804
9.75642
10.4443
11.1864
11.9877
12.8537
13.7909
14.8051
15.9023
17.0895
18.374
19.7639
21.2679
22.894
24.6508
26.5473
28.5927
30.7961
33.1667
35.7135
38.4453
41.3705
44.4969
47.8303
51.3807
55.1576
59.1701
63.4291
67.9402
72.7047
77.7247
83.0022
88.5389
94.3357
100.393
106.71
113.285
120.117
127.201
134.534
142.11
149.924
157.969
166.238
174.722
183.412
192.298
201.371
210.618
220.029
229.59
239.29
249.114
259.049
269.081
279.195
289.375
299.607
309.874
320.161
330.451
340.727
350.972
361.17
371.303
381.354
391.306
401.142
410.843
420.394
429.776
438.973
447.968
456.746
465.289
473.583
481.612
489.362
496.82
503.971
510.804
517.306
523.466
529.273
534.718
539.792
544.487
548.795
552.711
556.228
559.343
562.051
564.352
566.242
567.719
568.787
569.44
569.689
569.533
568.983
568.016
566.656
564.909
562.781
560.282
557.422
554.21
550.654
546.764
542.555
538.037
533.223
528.127
522.762
517.144
511.285
505.201
498.906
492.413
485.735
478.888
471.884
464.737
457.462
450.071
442.578
434.996
427.339
419.621
411.854
404.052
396.227
388.393
380.56
372.741
364.947
357.188
349.475
341.818
334.225
326.708
319.275
311.936
304.699
297.573
290.569
283.696
276.964
270.384
263.97
257.732
251.686
245.839
240.215
234.76
229.398
9.48945
4.45529
3.40986
3.06435
2.95225
2.94715
3.00734
3.11296
3.25404
3.42543
3.62479
3.85026
4.10112
4.37745
4.67974
5.00866
5.3645
5.74839
6.1639
6.61422
7.10271
7.6331
8.20962
8.83728
9.52223
10.2693
11.0846
11.9752
12.9488
14.0136
15.1787
16.4532
17.8463
19.3681
21.0289
22.84
24.8124
26.9575
29.2865
31.8105
34.5405
37.4868
40.6595
44.068
47.7213
51.627
55.7916
60.2209
64.922
69.901
75.1642
80.7183
86.5609
92.6874
99.0937
105.776
112.729
119.949
127.428
135.161
143.14
151.358
159.805
168.472
177.351
186.43
195.7
205.149
214.765
224.538
234.455
244.503
254.671
264.945
275.312
285.759
296.272
306.837
317.441
328.068
338.705
349.336
359.947
370.524
381.049
391.51
401.889
412.171
422.341
432.382
442.28
452.017
461.58
470.951
480.115
489.058
497.763
506.217
514.405
522.312
529.926
537.232
544.22
550.876
557.191
563.154
568.754
573.981
578.829
583.289
587.355
591.02
594.279
597.13
599.568
601.589
603.197
604.387
605.157
605.52
605.452
605.012
604.118
602.836
601.154
599.079
596.62
593.783
590.581
587.024
583.121
578.88
574.315
569.44
564.265
558.805
553.072
547.082
540.848
534.385
527.708
520.829
513.763
506.524
499.124
491.578
483.898
476.1
468.195
460.197
452.119
443.974
435.775
427.536
419.269
410.986
402.701
394.425
386.17
377.945
369.762
361.631
353.561
345.562
337.645
329.817
322.088
314.467
306.964
299.589
292.351
285.26
278.329
271.568
264.99
258.608
252.43
246.481
240.704
235.068
9.35041
4.39561
3.36105
3.01867
2.90863
2.90669
2.97271
3.0865
3.23829
3.42279
3.6363
3.87851
4.15024
4.45263
4.78733
5.1567
5.56412
6.01325
6.50799
7.05332
7.65507
8.31989
9.0554
9.8702
10.7737
11.7752
12.8851
14.1153
15.4785
16.9878
18.657
20.5003
22.5318
24.7661
27.218
29.9017
32.8307
36.0177
39.4749
43.2133
47.2425
51.5696
56.2006
61.1406
66.3941
71.9617
77.8418
84.033
90.5375
97.3508
104.476
111.897
119.591
127.548
135.756
144.203
152.877
161.766
170.856
180.136
189.593
199.216
208.991
218.908
228.954
239.118
249.387
259.751
270.198
280.717
291.296
301.925
312.593
323.288
333.999
344.714
355.423
366.115
376.776
387.397
397.965
408.468
418.895
429.232
439.467
449.589
459.583
469.437
479.137
488.67
498.023
507.183
516.136
524.868
533.367
541.618
549.609
557.327
564.76
571.894
578.719
585.223
591.395
597.224
602.703
607.822
612.572
616.944
620.931
624.529
627.733
630.534