/*--------------------------------*- C++ -*----------------------------------*\
  =========                 |
  \\      /  F ield         | OpenFOAM: The Open Source CFD Toolbox
   \\    /   O peration     | Website:  https://openfoam.org
    \\  /    A nd           | Version:  8
     \\/     M anipulation  |
\*---------------------------------------------------------------------------*/
FoamFile
{
    version     2.0;
    format      ascii;
    class       volScalarField;
    location    "265";
    object      k;
}
// * * * * * * * * * * * * * * * * * * * * * * * * * * * * * * * * * * * * * //

dimensions      [0 2 -2 0 0 0 0];

internalField   nonuniform List<scalar> 
12225
(
0.362828
0.343991
0.327752
0.309811
0.295411
0.283469
0.275529
0.270279
0.270337
0.271893
0.27603
0.280781
0.2898
0.295877
0.306568
0.313539
0.325503
0.330229
0.44027
0.468738
0.461616
0.448371
0.450344
0.458315
0.474575
0.498487
0.524418
0.552063
0.580743
0.606107
0.633809
0.653801
0.679673
0.692991
0.717896
0.724613
0.390406
0.41786
0.420244
0.416831
0.411634
0.407803
0.40802
0.410036
0.414567
0.42138
0.430723
0.439701
0.45116
0.461132
0.472804
0.483501
0.493456
0.505826
0.377043
0.387169
0.391466
0.391343
0.39026
0.387882
0.385662
0.384079
0.382884
0.382896
0.383355
0.384377
0.386271
0.388458
0.390898
0.394228
0.39652
0.400935
0.374434
0.376094
0.378427
0.378665
0.378275
0.377201
0.375489
0.373737
0.37201
0.370455
0.369256
0.368109
0.367379
0.366802
0.366441
0.366329
0.366346
0.36669
0.373779
0.372704
0.372659
0.372365
0.371773
0.370818
0.369554
0.368083
0.366572
0.364977
0.363528
0.362063
0.360756
0.359529
0.358397
0.357426
0.356437
0.35578
0.373775
0.37174
0.370388
0.369284
0.368235
0.367114
0.365915
0.364587
0.363239
0.361808
0.360423
0.359024
0.357679
0.356383
0.355122
0.353967
0.352795
0.351803
0.373818
0.371559
0.369635
0.367976
0.366501
0.365108
0.363776
0.36243
0.361108
0.359767
0.358451
0.357145
0.355864
0.354624
0.353403
0.352252
0.3511
0.350054
0.373832
0.371553
0.369449
0.367525
0.365777
0.364154
0.362645
0.361199
0.359818
0.358474
0.35717
0.355904
0.354668
0.353476
0.352309
0.351198
0.350099
0.349074
0.373831
0.37156
0.369418
0.367405
0.365529
0.363773
0.362133
0.360585
0.359122
0.357728
0.356395
0.355119
0.353889
0.352711
0.351571
0.350483
0.349421
0.348422
0.373829
0.37156
0.369413
0.367378
0.365458
0.363645
0.361937
0.360324
0.358799
0.357353
0.355979
0.354673
0.353425
0.352236
0.351095
0.35001
0.34896
0.34797
0.373828
0.371558
0.369409
0.36737
0.365439
0.363609
0.361876
0.360234
0.358678
0.357202
0.3558
0.354469
0.353201
0.351995
0.350843
0.349748
0.348696
0.347701
0.373827
0.371556
0.369405
0.367365
0.36543
0.363593
0.361851
0.360197
0.358626
0.357134
0.355716
0.354368
0.353085
0.351865
0.350701
0.349595
0.348536
0.347532
0.373826
0.371555
0.369401
0.367359
0.365422
0.363583
0.361837
0.360178
0.3586
0.357101
0.355674
0.354317
0.353025
0.351795
0.350622
0.349506
0.34844
0.347427
0.373826
0.371553
0.369398
0.367355
0.365416
0.363575
0.361826
0.360164
0.358584
0.357081
0.355651
0.35429
0.352993
0.351758
0.35058
0.349458
0.348388
0.347368
0.373826
0.371552
0.369396
0.367351
0.36541
0.363567
0.361817
0.360153
0.358571
0.357067
0.355634
0.35427
0.352971
0.351734
0.350554
0.349429
0.348356
0.347333
0.373825
0.371551
0.369394
0.367348
0.365406
0.363562
0.36181
0.360145
0.358561
0.357055
0.355621
0.354256
0.352955
0.351716
0.350534
0.349408
0.348333
0.347308
0.373825
0.371551
0.369393
0.367346
0.365403
0.363558
0.361805
0.360139
0.358554
0.357047
0.355612
0.354245
0.352943
0.351703
0.35052
0.349392
0.348316
0.347289
0.373825
0.37155
0.369393
0.367346
0.365402
0.363557
0.361804
0.360137
0.358552
0.357043
0.355608
0.35424
0.352938
0.351696
0.350513
0.349384
0.348307
0.34728
0.373825
0.371551
0.369393
0.367347
0.365404
0.363559
0.361806
0.360139
0.358555
0.357046
0.355611
0.354244
0.352941
0.3517
0.350517
0.349388
0.348311
0.347284
0.373825
0.371551
0.369395
0.367349
0.365407
0.363563
0.361811
0.360146
0.358562
0.357055
0.355621
0.354255
0.352954
0.351715
0.350533
0.349407
0.348332
0.347307
0.373826
0.371552
0.369397
0.367352
0.365412
0.363571
0.361822
0.360161
0.358583
0.357083
0.355656
0.354298
0.353006
0.351774
0.350602
0.349483
0.348417
0.347397
0.373826
0.371554
0.369399
0.367359
0.365428
0.363602
0.361875
0.36024
0.35869
0.35722
0.355823
0.354493
0.353227
0.352018
0.350865
0.349762
0.34871
0.3477
0.373828
0.371551
0.369412
0.367417
0.365556
0.363819
0.362189
0.360651
0.359189
0.357793
0.356456
0.355171
0.353935
0.352745
0.3516
0.350495
0.349436
0.348409
0.373823
0.371554
0.369604
0.367893
0.366339
0.364892
0.363495
0.362122
0.360761
0.359413
0.358081
0.356769
0.355488
0.354237
0.353029
0.351855
0.350734
0.349645
0.373781
0.37199
0.371113
0.370265
0.36936
0.368311
0.367048
0.36563
0.36412
0.362575
0.36103
0.359522
0.358073
0.356682
0.355381
0.354141
0.353009
0.351923
0.374297
0.375564
0.377778
0.377858
0.377291
0.375885
0.373835
0.371641
0.369505
0.367482
0.365664
0.364084
0.36271
0.361535
0.36061
0.359818
0.359289
0.358801
0.378732
0.394393
0.398293
0.396565
0.392558
0.387608
0.383642
0.380455
0.378266
0.376852
0.376497
0.37675
0.3774
0.378699
0.380444
0.382424
0.384829
0.38714
0.408344
0.427539
0.422424
0.411051
0.402227
0.397924
0.398558
0.401118
0.405988
0.413042
0.421
0.429834
0.438841
0.448198
0.457314
0.466562
0.475331
0.484191
0.366033
0.353412
0.341988
0.33021
0.318982
0.308382
0.299409
0.291674
0.285403
0.280333
0.276682
0.273868
0.272311
0.271185
0.271177
0.271523
0.272157
0.273388
0.000623679
0.00357261
0.00663604
0.00936436
0.0120475
0.0150606
0.0185388
0.022627
0.0273783
0.0327437
0.0386101
0.0448476
0.0513361
0.0579765
0.0646901
0.071414
0.0780973
0.0846948
0.0911672
0.0974754
0.103583
0.109455
0.115057
0.120359
0.125335
0.129962
0.134218
0.138073
0.141499
0.14446
0.146982
0.148928
0.150019
0.150188
0.149811
0.148175
0.145215
0.142059
0.140794
0.135991
0.14007
0.146104
0.156992
0.162423
0.170822
0.178166
0.186275
0.194292
0.202604
0.211022
0.21963
0.228388
0.237311
0.246393
0.255633
0.265034
0.27459
0.284306
0.294174
0.304199
0.314372
0.324696
0.335163
0.345776
0.356523
0.367407
0.378417
0.389553
0.400802
0.412166
0.42363
0.435194
0.446843
0.458575
0.470375
0.482242
0.494157
0.506118
0.518108
0.530124
0.542146
0.554171
0.56618
0.578168
0.590114
0.602013
0.613842
0.625595
0.637249
0.648792
0.660202
0.671458
0.682535
0.693412
0.704067
0.714487
0.724681
0.734707
0.744547
0.75414
0.763508
0.772631
0.781504
0.790112
0.798446
0.806495
0.814248
0.821695
0.828826
0.835632
0.842102
0.84823
0.854004
0.859419
0.864466
0.869138
0.873427
0.877329
0.880837
0.883947
0.886654
0.888954
0.890846
0.892327
0.893396
0.894052
0.894291
0.894159
0.893583
0.892581
0.891062
0.889197
0.887038
0.884484
0.881495
0.878137
0.87441
0.870324
0.865892
0.86112
0.856021
0.850602
0.844882
0.838873
0.832588
0.826042
0.819249
0.812225
0.804985
0.797544
0.789919
0.782127
0.774183
0.766104
0.757908
0.749612
0.741231
0.732783
0.724285
0.715761
0.707241
0.698821
0.69123
0.686555
0.682769
0.67907
0.675404
0.671766
0.668162
0.664594
0.661066
0.657576
0.654116
0.650668
0.647194
0.643613
0.639768
0.635225
0.628923
0.604438
0.00316438
0.0127984
0.0193037
0.024159
0.028453
0.0326765
0.0371823
0.0421588
0.0476684
0.0536806
0.0601127
0.0668648
0.0738416
0.0809626
0.0881639
0.0953959
0.102619
0.109803
0.116919
0.123943
0.130854
0.13763
0.144252
0.150706
0.15698
0.163068
0.168971
0.174695
0.180252
0.185659
0.190912
0.195998
0.200929
0.205695
0.21064
0.216728
0.224779
0.2349
0.242609
0.253036
0.267196
0.281198
0.293238
0.305113
0.317929
0.331004
0.344477
0.358258
0.372373
0.386803
0.401552
0.416616
0.431996
0.447693
0.463706
0.480039
0.49669
0.513662
0.530953
0.548565
0.566496
0.584744
0.603308
0.622185
0.64137
0.660862
0.680652
0.700737
0.721107
0.741758
0.762677
0.783858
0.805288
0.826958
0.848853
0.870962
0.893269
0.91576
0.938419
0.961231
0.984176
1.00724
1.0304
1.05363
1.07692
1.10025
1.12358
1.14691
1.1702
1.19343
1.21656
1.23957
1.26242
1.28507
1.30747
1.32959
1.35134
1.37266
1.39359
1.41424
1.43457
1.45456
1.4742
1.49346
1.51231
1.53073
1.54871
1.56622
1.58323
1.59973
1.6157
1.63111
1.64594
1.66018
1.6738
1.6868
1.69914
1.71082
1.72181
1.73211
1.7417
1.75057
1.75869
1.76608
1.77271
1.77858
1.78369
1.78804
1.79161
1.79441
1.79621
1.79719
1.79762
1.79736
1.79622
1.79432
1.79167
1.78828
1.78417
1.77936
1.77386
1.76768
1.76086
1.75341
1.74536
1.73672
1.72752
1.7178
1.70757
1.69686
1.68571
1.67414
1.66218
1.64988
1.63725
1.62433
1.61116
1.59776
1.58417
1.57041
1.55654
1.5426
1.52878
1.51548
1.50239
1.48933
1.47632
1.46337
1.4505
1.43771
1.42502
1.41243
1.39994
1.38754
1.3752
1.36287
1.35037
1.33769
1.32313
1.28918
0.00672763
0.0219836
0.0306319
0.0370585
0.0427477
0.0482736
0.0539467
0.0599394
0.0663229
0.0730941
0.0802042
0.0875847
0.095166
0.102888
0.110704
0.118578
0.126486
0.134412
0.142343
0.150274
0.158199
0.166118
0.174036
0.181964
0.189921
0.197939
0.206064
0.214358
0.222885
0.231701
0.240857
0.250394
0.260354
0.270805
0.281948
0.29398
0.306971
0.32088
0.334849
0.349755
0.36555
0.381486
0.397478
0.413721
0.430425
0.447537
0.465054
0.482961
0.501258
0.519941
0.539009
0.558463
0.578302
0.598526
0.619136
0.640132
0.661514
0.683282
0.705434
0.727971
0.750888
0.774184
0.797856
0.821899
0.846308
0.871077
0.896198
0.921665
0.947467
0.973595
1.00004
1.02678
1.05382
1.08113
1.1087
1.13651
1.16455
1.1928
1.22124
1.24984
1.27859
1.30747
1.33645
1.36551
1.39461
1.42374
1.45287
1.48197
1.51101
1.53996
1.56879
1.59747
1.62596
1.65422
1.68224
1.70997
1.73739
1.76448
1.79122
1.81759
1.84357
1.86913
1.89422
1.91883
1.94292
1.96646
1.98943
2.0118
2.03353
2.0546
2.07498
2.09465
2.11359
2.13175
2.14913
2.1657
2.18144
2.19632
2.21033
2.22344
2.23565
2.24692
2.25725
2.26663
2.27504
2.28248
2.28893
2.2944
2.29887
2.30232
2.30467
2.30591
2.30634
2.30585
2.30431
2.3018
2.29832
2.2939
2.28856
2.28231
2.27519
2.26721
2.2584
2.24878
2.2384
2.22726
2.21541
2.20289
2.18972
2.17593
2.16158
2.14669
2.13131
2.11548
2.09923
2.08261
2.06566
2.04842
2.03093
2.01323
1.99538
1.97742
1.95949
1.9418
1.92424
1.90674
1.88929
1.8719
1.8546
1.83742
1.82036
1.80344
1.78668
1.77009
1.75366
1.7374
1.72126
1.70532
1.68816
1.65921
0.010786
0.030632
0.0412956
0.0490722
0.0558385
0.0622877
0.0687684
0.0754705
0.0824842
0.0898298
0.0974833
0.105398
0.113522
0.121809
0.130221
0.138736
0.147338
0.156021
0.164789
0.173647
0.182607
0.191686
0.200906
0.210297
0.219899
0.22976
0.239937
0.250488
0.261471
0.272936
0.284921
0.297449
0.31054
0.324224
0.33856
0.353614
0.369397
0.38584
0.402769
0.420258
0.438285
0.456703
0.475462
0.494579
0.514114
0.534078
0.554476
0.575307
0.596573
0.618275
0.640413
0.662991
0.686007
0.709465
0.733364
0.757706
0.782492
0.80772
0.833392
0.859505
0.886058
0.913047
0.94047
0.968322
0.996598
1.02529
1.05439
1.08389
1.11379
1.14406
1.1747
1.20569
1.23702
1.26868
1.30064
1.33289
1.3654
1.39816
1.43114
1.46433
1.49768
1.53119
1.56482
1.59855
1.63234
1.66616
1.69999
1.73379
1.76753
1.80117
1.83469
1.86804
1.9012
1.93413
1.9668
1.99916
2.0312
2.06288
2.09416
2.12501
2.1554
2.18528
2.21462
2.24338
2.27153
2.29904
2.32586
2.35196
2.37732
2.40189
2.42565
2.44857
2.47061
2.49175
2.51195
2.5312
2.54947
2.56673
2.58295
2.59813
2.61223
2.62524
2.63714
2.64791
2.65755
2.66604
2.67338
2.67955
2.68456
2.68837
2.69093
2.69218
2.69247
2.69162
2.68959
2.68641
2.6821
2.67669
2.6702
2.66266
2.65409
2.64451
2.63397
2.62248
2.61009
2.59683
2.58273
2.56784
2.55219
2.53584
2.51881
2.50115
2.48292
2.46416
2.44491
2.42522
2.40515
2.38474
2.36403
2.34308
2.32194
2.30067
2.27938
2.25818
2.23707
2.21601
2.195
2.17407
2.15325
2.13255
2.11201
2.09166
2.07151
2.05162
2.032
2.01273
1.99386
1.97552
1.95655
1.93032
0.0148472
0.03872
0.0512284
0.060245
0.0679686
0.0751966
0.0823269
0.0895787
0.0970678
0.104842
0.112903
0.121228
0.129782
0.138532
0.147453
0.156527
0.165748
0.17512
0.184651
0.19436
0.204268
0.214402
0.224795
0.235483
0.24651
0.257924
0.269774
0.282109
0.294972
0.308396
0.322404
0.337005
0.352206
0.368015
0.384451
0.401532
0.419252
0.437573
0.456441
0.475844
0.495761
0.516149
0.536977
0.558244
0.579967
0.602157
0.624822
0.647966
0.671593
0.695707
0.720311
0.745408
0.771002
0.797094
0.823688
0.850784
0.878385
0.906491
0.935103
0.96422
0.993841
1.02396
1.05459
1.0857
1.11731
1.1494
1.18196
1.21499
1.24847
1.2824
1.31676
1.35153
1.3867
1.42226
1.45817
1.49443
1.531
1.56787
1.60501
1.64239
1.67999
1.71777
1.7557
1.79376
1.8319
1.8701
1.90832
1.94652
1.98466
2.02271
2.06064
2.0984
2.13594
2.17325
2.21026
2.24695
2.28328
2.31919
2.35465
2.38961
2.42405
2.4579
2.49113
2.5237
2.55557
2.5867
2.61704
2.64655
2.67521
2.70297
2.7298
2.75566
2.78051
2.80433
2.82708
2.84874
2.86927
2.88865
2.90686
2.92386
2.93964
2.95417
2.96744
2.97943
2.99012
2.99951
3.00758
3.01434
3.01976
3.02384
3.02651
3.02772
3.02782
3.02658
3.02403
3.02017
3.01505
3.00867
3.00107
2.99228
2.98232
2.97123
2.95905
2.9458
2.93152
2.91626
2.90006
2.88295
2.865
2.84623
2.82671
2.80647
2.78558
2.76409
2.74205
2.71951
2.69653
2.67317
2.64946
2.62548
2.60127
2.5769
2.55246
2.52804
2.50366
2.47932
2.45503
2.43083
2.40673
2.38279
2.35904
2.33552
2.31226
2.28934
2.26681
2.24481
2.22343
2.20287
2.18213
2.15664
0.0187145
0.0460562
0.0602206
0.0703681
0.0789577
0.086875
0.0945634
0.102271
0.110141
0.118245
0.126612
0.135242
0.144119
0.153226
0.162546
0.172072
0.181803
0.191749
0.201926
0.212355
0.223065
0.234087
0.245456
0.257211
0.269392
0.282039
0.295193
0.30889
0.323159
0.338023
0.353494
0.369579
0.386279
0.403597
0.421534
0.440092
0.459263
0.47903
0.499369
0.520266
0.541706
0.563672
0.586151
0.609137
0.632635
0.656651
0.681193
0.706266
0.731877
0.758031
0.784733
0.811987
0.8398
0.868175
0.897116
0.926627
0.956709
0.987366
1.0186
1.05041
1.0828
1.11576
1.14929
1.1834
1.21807
1.2533
1.28908
1.3254
1.36225
1.39961
1.43749
1.47584
1.51467
1.55395
1.59366
1.63377
1.67426
1.7151
1.75627
1.79773
1.83945
1.88141
1.92355
1.96585
2.00827
2.05077
2.0933
2.13583
2.17832
2.22072
2.26299
2.30509
2.34696
2.38856
2.42985
2.47077
2.51128
2.55132
2.59086
2.62984
2.66822
2.70594
2.74296
2.77923
2.8147
2.84934
2.88309
2.91591
2.94776
2.97859
3.00837
3.03706
3.06461
3.091
3.11619
3.14014
3.16283
3.18423
3.2043
3.22303
3.24038
3.25634
3.27088
3.284
3.29566
3.30587
3.31461
3.32187
3.32765
3.33194
3.33466
3.33582
3.33566
3.33402
3.33091
3.32637
3.32041
3.31306
3.30435
3.29432
3.283
3.27041
3.25661
3.24163
3.22551
3.2083
3.19003
3.17077
3.15055
3.12944
3.10749
3.08474
3.06126
3.03711
3.01235
2.98703
2.96122
2.93497
2.90834
2.88139
2.85418
2.82678
2.79926
2.77171
2.74416
2.71663
2.68915
2.66176
2.63449
2.60739
2.58052
2.55391
2.52764
2.50177
2.47643
2.45175
2.42791
2.40508
2.38241
2.35638
0.0222527
0.0525227
0.0681289
0.0792756
0.0886337
0.0971598
0.105335
0.113431
0.121613
0.129977
0.138575
0.147427
0.156537
0.165903
0.17552
0.185389
0.195516
0.205914
0.216603
0.227608
0.238959
0.250688
0.262829
0.275418
0.28849
0.302078
0.316213
0.330923
0.346229
0.362147
0.378686
0.395851
0.413643
0.432063
0.451108
0.470777
0.491065
0.511963
0.533462
0.555554
0.57823
0.601485
0.625313
0.64971
0.67468
0.700226
0.726357
0.753078
0.780397
0.808322
0.836858
0.866014
0.895796
0.92621
0.957262
0.988957
1.0213
1.05429
1.08794
1.12225
1.15722
1.19284
1.22912
1.26606
1.30365
1.34188
1.38074
1.42024
1.46035
1.50106
1.54235
1.58422
1.62663
1.66957
1.71302
1.75694
1.80131
1.8461
1.89127
1.9368
1.98264
2.02875
2.07511
2.12166
2.16835
2.21516
2.26202
2.3089
2.35574
2.4025
2.44912
2.49556
2.54175
2.58765
2.63319
2.67833
2.72301
2.76718
2.81077
2.85374
2.89603
2.93759
2.97836
3.01829
3.05733
3.09543
3.13254
3.16861
3.2036
3.23745
3.27012
3.30157
3.33176
3.36065
3.3882
3.41438
3.43916
3.46249
3.48436
3.50474
3.52359
3.54091
3.55666
3.57082
3.58339
3.59435
3.60369
3.61141
3.61749
3.62193
3.62466
3.62572
3.62527
3.62319
3.61951
3.61424
3.60743
3.59909
3.58927
3.57799
3.56529
3.55122
3.53581
3.5191
3.50115
3.48199
3.46169
3.44029
3.41784
3.39441
3.37005
3.34482
3.31878
3.292
3.26455
3.23647
3.20785
3.17874
3.14921
3.11932
3.08913
3.05872
3.02815
2.99749
2.96681
2.93613
2.9055
2.87495
2.84454
2.81432
2.78435
2.75469
2.72542
2.69665
2.6685
2.64114
2.61478
2.58957
2.56474
2.53731
0.0253668
0.0580466
0.0748657
0.0868628
0.09688
0.10593
0.114521
0.122947
0.131386
0.139956
0.148725
0.157734
0.167005
0.176549
0.186373
0.196487
0.206903
0.217636
0.228711
0.240151
0.251986
0.264248
0.276967
0.290175
0.303903
0.318177
0.333024
0.348463
0.364513
0.381187
0.398492
0.416435
0.435018
0.454243
0.474108
0.494614
0.515759
0.53754
0.559956
0.583004
0.606683
0.630991
0.655929
0.681498
0.707702
0.734546
0.762038
0.790186
0.818999
0.848486
0.878657
0.909519
0.941084
0.973357
1.00635
1.04007
1.07451
1.1097
1.14563
1.18231
1.21973
1.25791
1.29684
1.33651
1.37693
1.41809
1.45998
1.50259
1.54591
1.58992
1.63461
1.67996
1.72595
1.77254
1.81972
1.86746
1.91571
1.96446
2.01366
2.06327
2.11325
2.16355
2.21414
2.26497
2.31597
2.36712
2.41834
2.46958
2.5208
2.57193
2.62292
2.67371
2.72423
2.77442
2.82423
2.87359
2.92243
2.9707
3.01833
3.06526
3.11144
3.1568
3.20129
3.24484
3.28741
3.32892
3.36934
3.4086
3.44665
3.48345
3.51894
3.55308
3.58583
3.61714
3.64698
3.6753
3.70208
3.72727
3.75085
3.77279
3.79306
3.81164
3.82851
3.84365
3.85705
3.86868
3.87855
3.88665
3.89296
3.8975
3.90018
3.9011
3.9003
3.89774
3.89344
3.88742
3.87973
3.87038
3.85942
3.84688
3.8328
3.81723
3.80021
3.78179
3.76202
3.74094
3.71861
3.69509
3.67044
3.64471
3.61797
3.59028
3.56171
3.53233
3.50221
3.47141
3.44
3.40806
3.37565
3.34283
3.30968
3.27627
3.24266
3.20894
3.17515
3.14135
3.10759
3.07391
3.04038
3.00706
2.97401
2.94132
2.90908
2.87739
2.84643
2.81636
2.7874
2.75971
2.73251
2.7032
0.0279992
0.0626031
0.0804016
0.0930912
0.103649
0.113131
0.122067
0.130761
0.139407
0.148133
0.157026
0.166141
0.175514
0.185169
0.195125
0.205398
0.216007
0.22697
0.23831
0.250055
0.26223
0.274864
0.287986
0.301623
0.315803
0.330548
0.34588
0.361818
0.378376
0.395567
0.4134
0.431883
0.451021
0.470818
0.491276
0.512399
0.534189
0.556649
0.57978
0.603586
0.628071
0.653239
0.679094
0.705643
0.73289
0.760845
0.789516
0.818915
0.849053
0.879941
0.91159
0.944012
0.977219
1.01122
1.04603
1.08165
1.1181
1.15538
1.1935
1.23246
1.27227
1.31294
1.35445
1.39682
1.44004
1.48409
1.52898
1.57469
1.62121
1.66853
1.71661
1.76545
1.81502
1.86528
1.91622
1.96779
2.01996
2.07269
2.12594
2.17966
2.2338
2.28833
2.34318
2.3983
2.45363
2.50913
2.56471
2.62034
2.67593
2.73143
2.78678
2.8419
2.89673
2.95119
3.00522
3.05875
3.11171
3.16403
3.21564
3.26648
3.31648
3.36557
3.41369
3.46078
3.50677
3.55161
3.59522
3.63757
3.67859
3.71822
3.75642
3.79314
3.82832
3.86194
3.89393
3.92428
3.95293
3.97985
4.00502
4.0284
4.04997
4.0697
4.08758
4.10358
4.11769
4.1299
4.1402
4.14858
4.15504
4.15959
4.16217
4.16285
4.16166
4.15857
4.1536
4.1468
4.13818
4.1278
4.11568
4.10188
4.08642
4.06936
4.05074
4.03062
4.00904
3.98606
3.96174
3.93614
3.90931
3.88133
3.85225
3.82215
3.79109
3.75916
3.72641
3.69293
3.65879
3.62406
3.58881
3.55311
3.51704
3.48067
3.44407
3.40732
3.37047
3.33359
3.29674
3.25998
3.22337
3.18698
3.15089
3.11519
3.07999
3.04542
3.01163
2.97883
2.94721
2.91693
2.88726
2.85605
0.030121
0.066205
0.0847577
0.0979809
0.108957
0.118776
0.127979
0.13688
0.145681
0.154519
0.163492
0.172667
0.182093
0.191803
0.201825
0.212183
0.222898
0.233994
0.245495
0.257425
0.26981
0.282676
0.296048
0.309953
0.324412
0.339448
0.35508
0.371324
0.388198
0.405712
0.42388
0.442711
0.462213
0.482394
0.503261
0.524821
0.547081
0.570047
0.593728
0.61813
0.643262
0.669132
0.69575
0.723125
0.751267
0.780188
0.809901
0.840418
0.871755
0.903925
0.936942
0.970821
1.00558
1.04122
1.07777
1.11523
1.15361
1.19293
1.23319
1.27441
1.31658
1.35971
1.4038
1.44886
1.49487
1.54183
1.58973
1.63855
1.68829
1.73893
1.79044
1.8428
1.89597
1.94994
2.00466
2.06009
2.1162
2.17293
2.23025
2.28809
2.34642
2.40516
2.46427
2.52367
2.58332
2.64314
2.70306
2.76302
2.82294
2.88275
2.94239
3.00177
3.06082
3.11946
3.17762
3.23522
3.29218
3.34843
3.40389
3.4585
3.51217
3.56484
3.61645
3.66691
3.71617
3.76415
3.8108
3.85606
3.89986
3.94214
3.98287
4.02197
4.05942
4.09514
4.12912
4.1613
4.19165
4.22012
4.24671
4.27136
4.29406
4.31478
4.33351
4.35022
4.3649
4.37755
4.38815
4.3967
4.40319
4.40764
4.41003
4.41039
4.40875
4.40505
4.39937
4.39172
4.38216
4.37072
4.35743
4.34235
4.32552
4.30699
4.2868
4.265
4.24167
4.21684
4.19057
4.16294
4.13401
4.10383
4.07249
4.04005
4.00658
3.97217
3.93688
3.9008
3.864
3.82656
3.78855
3.75005
3.71114
3.67188
3.63236
3.59266
3.55283
3.51295
3.47309
3.43331
3.39368
3.35429
3.31522
3.27657
3.23846
3.20103
3.16444
3.12891
3.09461
3.06169
3.02945
2.9961
0.0317303
0.068896
0.0879913
0.101597
0.112873
0.122933
0.132325
0.141369
0.150271
0.159175
0.168186
0.177379
0.186812
0.196527
0.206561
0.216941
0.227695
0.238844
0.250414
0.262428
0.274911
0.287886
0.301378
0.315409
0.330001
0.345174
0.360949
0.377343
0.394372
0.412052
0.430397
0.449421
0.469135
0.489551
0.510682
0.532537
0.55513
0.57847
0.602569
0.627441
0.653097
0.679552
0.706819
0.734913
0.763848
0.793638
0.824301
0.855854
0.888315
0.9217
0.956027
0.991314
1.02758
1.06483
1.10309
1.14237
1.18269
1.22405
1.26647
1.30995
1.3545
1.40013
1.44683
1.49461
1.54346
1.59336
1.64432
1.69631
1.74932
1.80333
1.8583
1.91422
1.97104
2.02874
2.08726
2.14657
2.20663
2.26737
2.32874
2.39069
2.45316
2.51609
2.5794
2.64303
2.70691
2.77096
2.83511
2.89929
2.96341
3.0274
3.09118
3.15465
3.21775
3.28039
3.34248
3.40394
3.4647
3.52465
3.58374
3.64188
3.69899
3.755
3.80983
3.86341
3.91567
3.96654
4.01595
4.06385
4.11016
4.15484
4.19781
4.23904
4.27847
4.31606
4.35175
4.38551
4.41731
4.4471
4.47485
4.50055
4.52415
4.54565
4.56502
4.58225
4.59732
4.61023
4.62097
4.62953
4.63592
4.64015
4.64223
4.64217
4.63999
4.63561
4.62914
4.62062
4.61007
4.59755
4.58309
4.56675
4.54856
4.52858
4.50686
4.48346
4.45842
4.43181
4.40369
4.37412
4.34317
4.31091
4.2774
4.24273
4.20697
4.1702
4.13249
4.09393
4.0546
4.01457
3.97393
3.93275
3.89112
3.8491
3.80678
3.76425
3.72156
3.6788
3.63604
3.59336
3.55082
3.50854
3.46658
3.42507
3.38413
3.34391
3.30458
3.26634
3.22937
3.19381
3.15899
3.12341
0.0328504
0.070752
0.0901925
0.104042
0.115504
0.125712
0.135215
0.144336
0.153283
0.162206
0.171214
0.180389
0.189795
0.199478
0.209478
0.219826
0.230552
0.241679
0.253234
0.265239
0.277719
0.290696
0.304192
0.318231
0.332834
0.348021
0.363814
0.380232
0.397293
0.415016
0.433419
0.45252
0.472334
0.492879
0.51417
0.536225
0.559058
0.582686
0.607125
0.63239
0.6585
0.685473
0.713331
0.742091
0.771772
0.802396
0.833982
0.866553
0.900129
0.934731
0.970381
1.0071
1.0449
1.0838
1.12383
1.16499
1.2073
1.25077
1.29542
1.34125
1.38828
1.43649
1.48589
1.53648
1.58826
1.6412
1.6953
1.75053
1.80689
1.86432
1.92282
1.98234
2.04284
2.10429
2.16663
2.22981
2.29379
2.35849
2.42387
2.48985
2.55638
2.62337
2.69075
2.75845
2.8264
2.8945
2.96268
3.03086
3.09895
3.16686
3.2345
3.3018
3.36865
3.43497
3.50068
3.56568
3.62988
3.6932
3.75556
3.81686
3.87704
3.93601
3.99369
4.05001
4.10489
4.15826
4.21006
4.26022
4.30867
4.35535
4.40021
4.4432
4.48426
4.52335
4.56041
4.59542
4.62834
4.65912
4.68775
4.71419
4.73842
4.76042
4.78018
4.79768
4.81291
4.82586
4.83653
4.84493
4.85106
4.85492
4.85654
4.85596
4.85314
4.84799
4.84068
4.83122
4.81967
4.80606
4.79044
4.77285
4.75335
4.73198
4.7088
4.68386
4.65722
4.62893
4.59907
4.56768
4.53486
4.50065
4.46514
4.42839
4.3905
4.35153
4.31158
4.27071
4.22902
4.18658
4.14348
4.0998
4.05562
4.01102
3.96608
3.92089
3.87551
3.83004
3.78455
3.73912
3.69384
3.6488
3.60411
3.55987
3.51623
3.47333
3.43135
3.39048
3.3509
3.31275
3.2754
3.2376
0.0335282
0.071857
0.0914673
0.105433
0.116979
0.127246
0.136784
0.145918
0.154861
0.163763
0.172734
0.181857
0.1912
0.200807
0.210723
0.220985
0.231622
0.242661
0.254128
0.266046
0.278439
0.29133
0.30474
0.318694
0.333214
0.348322
0.364041
0.380394
0.397402
0.415088
0.433474
0.452582
0.472434
0.493053
0.514459
0.536675
0.559721
0.583618
0.608387
0.634045
0.660605
0.688101
0.71656
0.746009
0.776472
0.807977
0.840547
0.87421
0.908988
0.944908
0.981989
1.02026
1.05973
1.10042
1.14236
1.18555
1.23002
1.27577
1.32282
1.37118
1.42083
1.4718
1.52406
1.57763
1.63247
1.68859
1.74595
1.80454
1.86433
1.92528
1.98735
2.05051
2.1147
2.17989
2.246
2.313
2.3808
2.44936
2.5186
2.58844
2.65882
2.72965
2.80086
2.87236
2.94407
3.01591
3.08777
3.15958
3.23124
3.30267
3.37376
3.44443
3.51458
3.58412
3.65296
3.72099
3.78815
3.85432
3.91943
3.98339
4.04611
4.10751
4.16752
4.22605
4.28303
4.33839
4.39206
4.44397
4.49405
4.54225
4.58852
4.63279
4.67501
4.71515
4.75316
4.78899
4.82261
4.854
4.88312
4.90995
4.93446
4.95664
4.97647
4.99395
5.00907
5.02181
5.03219
5.04021
5.04588
5.04921
5.05022
5.04902
5.04542
5.03943
5.03121
5.02079
5.00822
4.99353
4.97677
4.95798
4.93723
4.91455
4.89001
4.86365
4.83553
4.80571
4.77426
4.74124
4.70671
4.67075
4.63343
4.59482
4.555
4.51406
4.47208
4.42914
4.38532
4.34071
4.29539
4.24944
4.20295
4.156
4.10867
4.06105
4.01321
3.96525
3.91725
3.86929
3.82147
3.77389
3.72664
3.67987
3.63369
3.58827
3.54379
3.50043
3.45836
3.41772
3.37794
3.33803
0.0337344
0.0722301
0.0918897
0.105874
0.117419
0.127672
0.137184
0.146279
0.155167
0.164
0.172889
0.181924
0.191176
0.200694
0.210518
0.220681
0.231215
0.242147
0.253502
0.265306
0.277581
0.290352
0.303641
0.317474
0.331876
0.34687
0.362483
0.37874
0.395668
0.41329
0.431635
0.450732
0.470607
0.49129
0.512807
0.535188
0.558459
0.582644
0.607769
0.633861
0.660942
0.689059
0.718243
0.748523
0.779927
0.812488
0.846236
0.881202
0.917411
0.95489
0.993661
1.03375
1.07516
1.11793
1.16207
1.2076
1.25452
1.30284
1.35258
1.40373
1.4563
1.51027
1.56564
1.6224
1.68052
1.73999
1.80077
1.86283
1.92614
1.99065
2.05633
2.12311
2.19094
2.25977
2.32954
2.40017
2.4716
2.54376
2.61657
2.68995
2.76383
2.83811
2.91272
2.98756
3.06254
3.13758
3.21259
3.28746
3.3621
3.43642
3.51033
3.58372
3.65651
3.72859
3.79987
3.87026
3.93966
4.00798
4.07514
4.14104
4.2056
4.26874
4.33037
4.39043
4.44883
4.5055
4.56038
4.61339
4.66447
4.71357
4.76063
4.80559
4.84842
4.88905
4.92746
4.96361
4.99745
5.02897
5.05814
5.08492
5.10931
5.13129
5.15085
5.16798
5.18267
5.19493
5.20476
5.21217
5.21718
5.2198
5.22006
5.21813
5.21361
5.20671
5.19755
5.18615
5.17255
5.15681
5.13896
5.11906
5.09715
5.07328
5.04751
5.01989
4.99047
4.95931
4.92648
4.89203
4.85604
4.81857
4.77969
4.73948
4.69802
4.65539
4.61167
4.56694
4.52129
4.4748
4.42755
4.37964
4.33114
4.28214
4.23271
4.18296
4.13296
4.0828
4.03256
3.98235
3.93226
3.88238
3.83284
3.78376
3.73528
3.68756
3.64077
3.5951
3.55071
3.50775
3.4657
3.42384
0.033662
0.0721348
0.0917313
0.105664
0.117156
0.12735
0.136794
0.145812
0.154616
0.163357
0.172146
0.18107
0.190193
0.199566
0.209232
0.219226
0.229583
0.240332
0.251501
0.263115
0.2752
0.287782
0.300888
0.314544
0.328781
0.343627
0.359113
0.375272
0.392136
0.409741
0.428123
0.447312
0.46734
0.48824
0.510045
0.53279
0.556515
0.581254
0.607028
0.633863
0.661759
0.690799
0.721022
0.752467
0.78517
0.819166
0.85449
0.891187
0.929276
0.968778
1.00972
1.05211
1.09597
1.14131
1.18814
1.23647
1.28632
1.33767
1.39053
1.4449
1.50075
1.55809
1.61688
1.6771
1.73872
1.80172
1.86604
1.93166
1.99851
2.06656
2.13573
2.20599
2.27726
2.34948
2.42257
2.49647
2.57111
2.6464
2.72226
2.79861
2.87536
2.95244
3.02974
3.10719
3.18468
3.26213
3.33945
3.41653
3.49329
3.56962
3.64544
3.72064
3.79513
3.86882
3.94161
4.01341
4.08412
4.15366
4.22193
4.28886
4.35434
4.41832
4.4807
4.54141
4.60037
4.65752
4.71278
4.7661
4.8174
4.86665
4.91377
4.95873
5.00148
5.04197
5.08016
5.11602
5.14952
5.18064
5.20934
5.23561
5.25943
5.2808
5.29969
5.31611
5.33005
5.34153
5.35054
5.35711
5.36125
5.36299
5.36243
5.35956
5.35404
5.34619
5.33606
5.32369
5.30911
5.29238
5.27354
5.25263
5.22971
5.20482
5.17801
5.14934
5.11884
5.0866
5.05265
5.01706
4.97989
4.94122
4.9011
4.85963
4.81686
4.77288
4.72777
4.68161
4.63449
4.58649
4.53769
4.48818
4.43804
4.38735
4.3362
4.28467
4.23286
4.18085
4.12873
4.07661
4.02457
3.97273
3.9212
3.87011
3.81962
3.76986
3.72103
3.67329
3.62681
3.58175
3.53764
3.49408
0.0334303
0.0717671
0.0911682
0.104944
0.116283
0.126321
0.135604
0.144458
0.153093
0.16166
0.17027
0.179007
0.187938
0.197114
0.206584
0.216388
0.226557
0.237119
0.248106
0.259545
0.271466
0.2839
0.29688
0.310439
0.324612
0.339434
0.354942
0.371174
0.388171
0.405973
0.424628
0.444189
0.464686
0.486154
0.508631
0.532152
0.556735
0.582391
0.609207
0.637248
0.666582
0.697242
0.729262
0.762679
0.797529
0.833844
0.871649
0.91096
0.951805
0.994212
1.03821
1.08381
1.131
1.17977
1.23014
1.2821
1.33564
1.39074
1.44739
1.50557
1.56526
1.62641
1.68901
1.753
1.81835
1.88501
1.95293
2.02205
2.09232
2.16369
2.23607
2.30942
2.38366
2.45872
2.53453
2.61102
2.6881
2.76569
2.84372
2.92211
3.00076
3.0796
3.15853
3.23747
3.31634
3.39503
3.47347
3.55155
3.62919
3.7063
3.78278
3.85853
3.93348
4.00753
4.08058
4.15255
4.22334
4.29288
4.36108
4.42784
4.49309
4.55676
4.61877
4.67904
4.73751
4.7941
4.84875
4.90139
4.95198
5.00046
5.04678
5.09089
5.13275
5.17231
5.20955
5.24443
5.27693
5.30701
5.33466
5.35986
5.38261
5.40287
5.42065
5.43596
5.44879
5.45914
5.46704
5.4725
5.47555
5.47621
5.47474
5.4707
5.46414
5.45529
5.44418
5.43086
5.41535
5.39772
5.37799
5.35622
5.33245
5.30673
5.2791
5.24961
5.21831
5.18525
5.15048
5.11406
5.07606
5.03652
4.99553
4.95315
4.90945
4.86451
4.8184
4.77122
4.72303
4.67392
4.62398
4.57328
4.5219
4.46993
4.41746
4.36456
4.31134
4.25787
4.20425
4.15058
4.09697
4.04351
3.99034
3.93759
3.88539
3.83391
3.78332
3.7338
3.68549
3.63858
3.59266
3.54768
0.0329561
0.0709953
0.0900997
0.103641
0.114759
0.124581
0.133655
0.142305
0.150742
0.159115
0.167535
0.176088
0.18484
0.193847
0.203154
0.212804
0.222834
0.233276
0.244165
0.255536
0.267428
0.279879
0.292927
0.306614
0.320987
0.336103
0.352009
0.368742
0.38635
0.404878
0.424365
0.444818
0.466298
0.488892
0.512663
0.537673
0.56399
0.591682
0.620784
0.651351
0.683437
0.717076
0.7523
0.789136
0.82761
0.867737
0.909526
0.952984
0.998113
1.04491
1.09338
1.14346
1.19515
1.24845
1.30332
1.35976
1.41772
1.47717
1.53808
1.6004
1.6641
1.72912
1.79542
1.86295
1.93164
2.00146
2.07233
2.1442
2.21701
2.2907
2.36521
2.44046
2.51639
2.59294
2.67003
2.7476