/*--------------------------------*- C++ -*----------------------------------*\
  =========                 |
  \\      /  F ield         | OpenFOAM: The Open Source CFD Toolbox
   \\    /   O peration     | Website:  https://openfoam.org
    \\  /    A nd           | Version:  8
     \\/     M anipulation  |
\*---------------------------------------------------------------------------*/
FoamFile
{
    version     2.0;
    format      ascii;
    class       volScalarField;
    location    "265";
    object      nut;
}
// * * * * * * * * * * * * * * * * * * * * * * * * * * * * * * * * * * * * * //

dimensions      [0 2 -1 0 0 0 0];

internalField   nonuniform List<scalar> 
12225
(
4.14968e-05
3.93416e-05
3.7484e-05
3.54321e-05
3.37852e-05
3.24194e-05
3.15113e-05
3.09109e-05
3.09172e-05
3.10986e-05
3.15632e-05
3.21294e-05
3.31246e-05
3.38808e-05
3.50073e-05
3.60037e-05
3.7055e-05
3.72044e-05
0.000332327
0.000215224
0.000179279
0.000157683
0.000146207
0.000138216
0.000132755
0.000131634
0.000129526
0.000130047
0.000129062
0.000129425
0.000128673
0.000128548
0.000128076
0.000127452
0.000127292
0.000126637
0.000674957
0.000450846
0.000355778
0.00030984
0.000275289
0.000251101
0.000231714
0.000217276
0.000202695
0.000192114
0.000182637
0.000175208
0.000169393
0.000163689
0.000160314
0.000155602
0.000153798
0.00014994
0.000833609
0.000684911
0.000571988
0.000499967
0.000449465
0.000411952
0.000380785
0.000355999
0.000334022
0.000314784
0.000298345
0.000281724
0.000270327
0.000256096
0.000248229
0.000236213
0.000230446
0.000220533
0.000861252
0.000802528
0.000742131
0.000676577
0.000624006
0.000581371
0.000545879
0.000514555
0.000489531
0.000464437
0.000445876
0.000424091
0.00040996
0.000390839
0.000379927
0.000363158
0.000354546
0.000339632
0.000854979
0.000840347
0.000822206
0.000786491
0.000750868
0.000715897
0.000685768
0.000656133
0.000632557
0.000607527
0.00058901
0.000567267
0.000552305
0.000533134
0.000520822
0.0005038
0.000493382
0.000477614
0.000852907
0.000850685
0.00084424
0.000832828
0.000817414
0.000796999
0.00077789
0.00075674
0.000738905
0.000719155
0.000703543
0.000685638
0.000672141
0.000655954
0.000644341
0.00062959
0.000619577
0.000605262
0.000851922
0.000851813
0.000850173
0.000847395
0.000841454
0.000833728
0.000824897
0.000813418
0.00080281
0.000790476
0.000779722
0.000767552
0.000757438
0.000745806
0.000736565
0.000725571
0.000717203
0.000706118
0.000851751
0.000851542
0.000851035
0.000850339
0.000848881
0.000846168
0.000843035
0.000838306
0.000833404
0.000827364
0.000821221
0.000814779
0.000808418
0.000801539
0.000795258
0.000788443
0.000782203
0.000775309
0.000851769
0.000851389
0.000851046
0.000850633
0.000850248
0.000849368
0.000848405
0.000846781
0.000844956
0.000842532
0.000839926
0.000836803
0.000833798
0.00083016
0.000826979
0.00082294
0.000819916
0.000815323
0.000851787
0.000851359
0.000851012
0.000850613
0.000850329
0.000849905
0.000849526
0.000848929
0.000848303
0.000847394
0.000846467
0.000845179
0.000843992
0.000842355
0.000841
0.000839038
0.000837647
0.000835372
0.000851789
0.000851359
0.000850995
0.000850605
0.000850292
0.000849938
0.000849646
0.00084928
0.000848955
0.000848505
0.000848099
0.000847508
0.000846998
0.000846246
0.000845643
0.000844723
0.000844061
0.00084298
0.000851786
0.000851363
0.000850985
0.000850604
0.000850269
0.000849926
0.00084963
0.000849313
0.000849042
0.000848729
0.000848462
0.000848126
0.000847844
0.000847466
0.000847157
0.000846727
0.000846388
0.000845903
0.000851783
0.000851364
0.000850978
0.000850602
0.000850256
0.000849916
0.000849607
0.0008493
0.000849022
0.000848741
0.000848488
0.000848224
0.000847989
0.000847735
0.000847508
0.000847258
0.000847033
0.000846783
0.000851781
0.000851364
0.000850972
0.000850598
0.000850246
0.000849908
0.000849591
0.000849286
0.000849
0.000848723
0.000848463
0.000848211
0.000847975
0.000847744
0.000847527
0.000847316
0.000847114
0.000846918
0.00085178
0.000851363
0.000850969
0.000850594
0.000850239
0.000849901
0.00084958
0.000849274
0.000848984
0.000848707
0.000848443
0.000848191
0.000847951
0.000847721
0.000847502
0.000847292
0.000847092
0.0008469
0.000851779
0.000851362
0.000850967
0.000850591
0.000850234
0.000849894
0.000849572
0.000849265
0.000848973
0.000848694
0.000848428
0.000848174
0.000847932
0.000847701
0.00084748
0.000847268
0.000847066
0.000846873
0.000851779
0.000851362
0.000850965
0.000850588
0.000850231
0.00084989
0.000849567
0.000849258
0.000848965
0.000848685
0.000848418
0.000848163
0.000847919
0.000847686
0.000847464
0.000847251
0.000847047
0.000846853
0.000851779
0.000851362
0.000850965
0.000850588
0.000850229
0.000849889
0.000849565
0.000849256
0.000848962
0.000848681
0.000848413
0.000848157
0.000847913
0.000847679
0.000847456
0.000847242
0.000847038
0.000846842
0.000851779
0.000851362
0.000850965
0.000850589
0.000850231
0.000849891
0.000849567
0.000849259
0.000848965
0.000848685
0.000848417
0.000848161
0.000847916
0.000847683
0.000847459
0.000847245
0.00084704
0.000846843
0.000851779
0.000851363
0.000850967
0.000850592
0.000850235
0.000849896
0.000849573
0.000849266
0.000848972
0.000848693
0.000848423
0.000848168
0.000847919
0.000847682
0.00084745
0.00084723
0.000847011
0.000846805
0.000851778
0.000851366
0.000850968
0.000850599
0.00085024
0.000849907
0.00084958
0.000849274
0.000848964
0.000848671
0.000848364
0.000848071
0.000847755
0.000847455
0.000847122
0.00084681
0.000846456
0.000846134
0.000851777
0.000851374
0.000850971
0.000850615
0.00085024
0.000849889
0.000849478
0.000849054
0.000848529
0.000847977
0.0008473
0.000846604
0.000845766
0.000844938
0.000843953
0.000843027
0.000841916
0.000840937
0.000851802
0.00085141
0.00085097
0.000850549
0.000849861
0.000848967
0.000847607
0.000845979
0.000843903
0.000841634
0.000838953
0.000836212
0.000833114
0.000830111
0.00082676
0.000823676
0.00082018
0.000817173
0.000852138
0.000851403
0.000850234
0.000848252
0.000844472
0.000839355
0.000832711
0.000825762
0.000817912
0.000809998
0.000801613
0.000793623
0.000785327
0.000777701
0.000769737
0.000762694
0.000755116
0.000748787
0.000854142
0.000847718
0.000840125
0.000827122
0.000808707
0.000789646
0.00076997
0.000751414
0.000733301
0.000716891
0.000700928
0.000686774
0.000672823
0.000660663
0.00064837
0.000637931
0.000626943
0.000618009
0.00085497
0.000818336
0.000776229
0.000726634
0.000684937
0.000649855
0.000618457
0.000592018
0.000568377
0.000548306
0.000529682
0.000513986
0.000498742
0.000486009
0.000473193
0.000462699
0.000451612
0.000442794
0.000807487
0.000666879
0.000570551
0.000509854
0.000465647
0.000431192
0.00040413
0.000382498
0.00036419
0.000349062
0.000335935
0.000325072
0.000314474
0.000306242
0.000297956
0.000291361
0.000284274
0.000278924
0.000501854
0.000348404
0.00029269
0.000259174
0.000236321
0.000221176
0.000211543
0.000204014
0.000198479
0.000195058
0.000192217
0.000190366
0.000188581
0.000187438
0.000186163
0.000185473
0.000184553
0.000184142
7.27285e-05
7.02231e-05
6.79539e-05
6.56136e-05
6.33827e-05
6.12765e-05
5.94929e-05
5.79573e-05
5.67103e-05
5.5703e-05
5.49775e-05
5.44184e-05
5.41085e-05
5.38873e-05
5.38766e-05
5.39621e-05
5.40718e-05
5.43223e-05
1.94013e-07
5.0757e-06
9.42337e-06
1.32868e-05
1.70774e-05
2.1328e-05
2.62319e-05
3.1998e-05
3.87073e-05
4.62944e-05
5.46039e-05
6.34542e-05
7.26789e-05
8.2138e-05
9.17215e-05
0.000101337
0.000110909
0.000120366
0.000129652
0.000138707
0.000147489
0.000155961
0.000164104
0.000171909
0.000179382
0.000186524
0.000193325
0.00019972
0.000205617
0.000211492
0.000216081
0.000218147
0.000219267
0.000218268
0.000216301
0.000212808
0.000209006
0.00020418
0.000190589
4.15149e-05
4.33254e-05
4.71951e-05
4.90114e-05
4.97808e-05
5.10762e-05
5.21145e-05
5.32685e-05
5.43673e-05
5.54877e-05
5.65946e-05
5.77034e-05
5.88069e-05
5.99082e-05
6.1006e-05
6.21005e-05
6.31921e-05
6.428e-05
6.5365e-05
6.64461e-05
6.75241e-05
6.85979e-05
6.96681e-05
7.07338e-05
7.17953e-05
7.28517e-05
7.39033e-05
7.49491e-05
7.59892e-05
7.70228e-05
7.80498e-05
7.90693e-05
8.00814e-05
8.1085e-05
8.20801e-05
8.30657e-05
8.40417e-05
8.50071e-05
8.59619e-05
8.69049e-05
8.78361e-05
8.87545e-05
8.966e-05
9.05514e-05
9.14287e-05
9.22908e-05
9.31375e-05
9.39676e-05
9.47811e-05
9.55766e-05
9.63537e-05
9.71112e-05
9.78481e-05
9.85633e-05
9.92555e-05
9.99238e-05
0.000100568
0.000101188
0.000101789
0.000102371
0.000102929
0.000103466
0.000103981
0.000104474
0.000104943
0.00010539
0.000105813
0.000106212
0.000106587
0.000106938
0.000107265
0.000107566
0.000107843
0.000108094
0.00010832
0.00010852
0.000108694
0.000108843
0.000108965
0.000109061
0.00010913
0.000109174
0.00010919
0.000109181
0.000109144
0.000109082
0.000108993
0.000108877
0.000108738
0.000108571
0.000108378
0.000108153
0.000107904
0.000107635
0.000107344
0.000107023
0.00010668
0.000106312
0.000105922
0.000105509
0.000105074
0.000104618
0.00010414
0.000103642
0.000103124
0.000102588
0.000102032
0.00010146
0.00010087
0.000100265
9.96441e-05
9.9009e-05
9.83605e-05
9.76993e-05
9.70265e-05
9.6343e-05
9.56498e-05
9.49478e-05
9.42383e-05
9.35222e-05
9.28012e-05
9.20777e-05
9.13597e-05
9.07138e-05
9.02631e-05
8.98454e-05
8.94297e-05
8.90143e-05
8.85994e-05
8.81855e-05
8.77731e-05
8.73623e-05
8.69533e-05
8.65457e-05
8.61383e-05
8.57291e-05
8.53121e-05
8.48773e-05
8.43953e-05
8.37968e-05
8.19701e-05
9.85756e-07
2.60892e-05
5.86393e-05
8.11612e-05
9.54781e-05
0.000105233
0.000113252
0.000121123
0.000129594
0.000138888
0.00014895
0.000159608
0.000170663
0.000181933
0.000193273
0.000204563
0.00021571
0.000226635
0.000237269
0.000247551
0.000257428
0.000266847
0.000275761
0.000284122
0.000291879
0.000298977
0.000305361
0.000310977
0.000315235
0.00031759
0.000317494
0.000314829
0.000309535
0.000301138
0.000289709
0.000277936
0.000268456
0.000266769
0.000242685
0.000234304
0.000251745
0.000263954
0.000269085
0.000276165
0.000283383
0.000291106
0.000298867
0.000306838
0.000314896
0.000323075
0.000331339
0.000339692
0.000348125
0.000356639
0.00036523
0.000373901
0.000382651
0.000391481
0.000400392
0.000409386
0.000418463
0.000427624
0.000436869
0.000446199
0.000455614
0.000465112
0.000474692
0.000484354
0.000494094
0.000503911
0.000513802
0.000523762
0.00053379
0.00054388
0.000554028
0.00056423
0.00057448
0.000584773
0.000595104
0.000605467
0.000615857
0.000626266
0.000636691
0.000647124
0.000657561
0.000667995
0.000678421
0.000688834
0.000699229
0.000709601
0.000719944
0.000730246
0.000740491
0.000750652
0.000760682
0.000770499
0.000779959
0.000788826
0.000797261
0.000805619
0.000813838
0.000821928
0.000829882
0.000837695
0.00084536
0.000852872
0.000860224
0.000867412
0.000874429
0.000881271
0.000887931
0.000894405
0.000900688
0.000906775
0.00091266
0.000918338
0.000923806
0.000929058
0.000934089
0.000938896
0.000943473
0.000947817
0.000951924
0.00095579
0.000959414
0.000962793
0.000965928
0.000968818
0.00097149
0.000973967
0.000975981
0.000977661
0.000979227
0.000980646
0.000981729
0.000982546
0.000983109
0.000983421
0.000983485
0.000983305
0.000982886
0.000982232
0.000981345
0.000980231
0.000978895
0.000977343
0.00097558
0.000973615
0.000971452
0.000969101
0.000966569
0.000963865
0.000960997
0.000957974
0.000954806
0.000951502
0.000948071
0.000944522
0.000940862
0.000937092
0.000933201
0.000929107
0.000924388
0.000917918
0.000910581
0.000902997
0.000895331
0.00088763
0.000879916
0.000872199
0.000864484
0.000856773
0.000849061
0.000841338
0.000833577
0.00082572
0.000817618
0.000809006
0.000798364
0.000769047
2.09715e-06
4.35088e-05
9.37824e-05
0.000131845
0.000159314
0.000179202
0.000194331
0.0002069
0.000218395
0.000229681
0.000241162
0.000252958
0.000265029
0.000277276
0.000289583
0.000301843
0.000313965
0.000325875
0.00033751
0.000348818
0.000359755
0.00037028
0.000380352
0.000389926
0.000398943
0.000407323
0.000414952
0.000421667
0.000427713
0.000433238
0.000438197
0.000442419
0.000445986
0.000449105
0.000452354
0.000456538
0.000462289
0.000470057
0.000476047
0.000489085
0.000507182
0.000523344
0.000538524
0.000554176
0.000569955
0.00058602
0.000602237
0.000618641
0.000635196
0.000651905
0.000668757
0.000685751
0.000702886
0.00072016
0.000737576
0.000755135
0.000772838
0.000790686
0.00080868
0.000826821
0.000845109
0.000863543
0.000882121
0.000900842
0.000919706
0.00093871
0.000957851
0.000977123
0.000996522
0.00101604
0.00103567
0.00105541
0.00107525
0.00109518
0.00111518
0.00113526
0.00115539
0.00117558
0.0011958
0.00121605
0.00123632
0.00125658
0.00127684
0.00129708
0.00131728
0.00133744
0.00135753
0.00137755
0.00139748
0.0014173
0.00143699
0.00145653
0.00147587
0.00149497
0.00151379
0.00153222
0.00155021
0.00156771
0.00158488
0.0016018
0.00161846
0.00163484
0.00165093
0.00166671
0.00168219
0.00169733
0.00171214
0.0017266
0.0017407
0.00175443
0.00176778
0.00178073
0.00179328
0.00180542
0.00181714
0.00182842
0.00183926
0.00184966
0.00185959
0.00186906
0.00187805
0.00188655
0.00189457
0.00190209
0.0019091
0.00191562
0.00192163
0.00192713
0.00193216
0.00193681
0.00194061
0.00194369
0.00194648
0.00194889
0.00195069
0.00195194
0.00195268
0.0019529
0.00195261
0.00195182
0.00195054
0.00194877
0.00194653
0.00194383
0.00194067
0.00193706
0.00193303
0.00192858
0.00192373
0.00191849
0.00191288
0.00190692
0.00190062
0.001894
0.00188709
0.0018799
0.00187245
0.00186476
0.00185684
0.0018487
0.00184032
0.0018316
0.0018221
0.001811
0.00179885
0.00178622
0.00177335
0.00176036
0.00174729
0.00173416
0.00172101
0.00170782
0.00169461
0.00168134
0.00166798
0.00165439
0.00164031
0.001625
0.00160571
0.00156227
3.36405e-06
5.67592e-05
0.000120675
0.000170427
0.000207051
0.000234179
0.000254978
0.000271896
0.000286676
0.000300451
0.000313871
0.000327249
0.000340692
0.000354193
0.000367695
0.000381131
0.000394438
0.000407568
0.000420486
0.000433173
0.000445622
0.000457838
0.000469836
0.00048164
0.000493281
0.000504804
0.000516264
0.000527735
0.000539331
0.000551135
0.000563188
0.000575521
0.000588227
0.000601468
0.000615496
0.000630562
0.000646873
0.00066463
0.000683847
0.000705185
0.000727707
0.000750063
0.000772355
0.000794854
0.000817519
0.000840387
0.000863441
0.000886686
0.000910117
0.000933732
0.000957531
0.000981513
0.00100568
0.00103003
0.00105457
0.0010793
0.00110423
0.00112935
0.00115466
0.00118017
0.00120587
0.00123177
0.00125785
0.00128412
0.00131057
0.00133719
0.00136399
0.00139094
0.00141805
0.0014453
0.00147269
0.0015002
0.00152782
0.00155554
0.00158334
0.00161121
0.00163914
0.00166711
0.0016951
0.0017231
0.00175109
0.00177906
0.00180698
0.00183484
0.00186263
0.00189031
0.00191787
0.0019453
0.00197256
0.00199963
0.00202648
0.00205308
0.0020794
0.00210538
0.00213099
0.00215617
0.00218087
0.00220514
0.00222904
0.00225257
0.00227574
0.00229851
0.00232088
0.00234282
0.00236432
0.00238537
0.00240595
0.00242603
0.00244562
0.00246469
0.00248323
0.00250122
0.00251865
0.00253552
0.00255179
0.00256747
0.00258254
0.00259699
0.0026108
0.00262397
0.00263649
0.00264834
0.00265951
0.00267
0.0026798
0.00268891
0.00269732
0.00270503
0.00271217
0.00271869
0.00272405
0.00272848
0.00273256
0.00273596
0.00273858
0.00274046
0.00274162
0.00274207
0.00274181
0.00274086
0.00273922
0.00273692
0.00273395
0.00273033
0.00272607
0.0027212
0.00271573
0.00270967
0.00270304
0.00269587
0.00268818
0.00267998
0.00267131
0.00266219
0.00265265
0.00264271
0.00263239
0.00262173
0.00261074
0.00259944
0.00258781
0.00257576
0.002563
0.00254905
0.00253414
0.00251867
0.00250284
0.0024868
0.00247062
0.00245433
0.00243797
0.00242156
0.0024051
0.00238857
0.00237194
0.0023551
0.00233774
0.00231885
0.00229517
0.00224967
4.63269e-06
6.79562e-05
0.00014324
0.000202639
0.000247273
0.000280765
0.000306578
0.000327399
0.00034519
0.000361294
0.000376558
0.000391467
0.000406264
0.000421043
0.000435824
0.000450591
0.000465328
0.000480021
0.000494674
0.000509305
0.000523947
0.000538648
0.000553468
0.000568477
0.000583755
0.000599384
0.000615451
0.000632034
0.000649206
0.000667019
0.00068551
0.000704711
0.000724673
0.000745473
0.000767232
0.000790095
0.000814125
0.000839066
0.000864716
0.000891263
0.000918375
0.000945693
0.000973226
0.00100093
0.00102884
0.00105695
0.00108528
0.00111382
0.00114257
0.00117154
0.00120073
0.00123013
0.00125974
0.00128957
0.00131961
0.00134988
0.00138037
0.00141109
0.00144204
0.0014732
0.00150459
0.00153619
0.001568
0.00160002
0.00163223
0.00166464
0.00169722
0.00172997
0.00176288
0.00179594
0.00182913
0.00186244
0.00189585
0.00192935
0.00196291
0.00199654
0.00203019
0.00206386
0.00209753
0.00213118
0.00216479
0.00219833
0.00223179
0.00226514
0.00229837
0.00233144
0.00236434
0.00239704
0.00242951
0.00246173
0.00249367
0.0025253
0.00255658
0.00258749
0.002618
0.00264808
0.00267774
0.00270696
0.00273575
0.00276411
0.00279202
0.00281946
0.00284642
0.00287287
0.0028988
0.00292419
0.00294901
0.00297326
0.00299691
0.00301995
0.00304237
0.00306414
0.00308525
0.00310568
0.00312543
0.00314447
0.00316279
0.00318039
0.00319723
0.00321332
0.00322864
0.00324318
0.00325693
0.00326987
0.003282
0.00329332
0.00330382
0.00331351
0.0033226
0.00333073
0.0033377
0.00334357
0.00334902
0.00335359
0.00335727
0.00336007
0.00336202
0.00336312
0.00336338
0.00336281
0.00336143
0.00335924
0.00335625
0.00335249
0.00334796
0.00334268
0.00333667
0.00332995
0.00332254
0.00331447
0.00330575
0.00329643
0.00328651
0.00327604
0.00326504
0.00325355
0.00324159
0.00322919
0.00321638
0.00320317
0.00318958
0.00317553
0.00316086
0.00314532
0.00312898
0.00311206
0.00309474
0.00307714
0.00305934
0.00304139
0.00302334
0.00300521
0.00298702
0.00296877
0.00295042
0.00293184
0.00291274
0.00289213
0.00286678
0.00282418
5.84146e-06
7.73697e-05
0.000162204
0.000229926
0.000281715
0.000321019
0.000351492
0.000376006
0.000396699
0.000415092
0.000432204
0.000448675
0.000464881
0.000481023
0.000497199
0.000513459
0.00052983
0.00054634
0.000563023
0.000579926
0.000597106
0.000614631
0.000632579
0.000651031
0.000670068
0.000689768
0.000710198
0.000731406
0.000753427
0.000776271
0.000799935
0.00082441
0.000849695
0.0008758
0.00090275
0.000930568
0.000959206
0.000988547
0.0010185
0.00104902
0.00107997
0.00111123
0.00114276
0.00117452
0.00120651
0.00123873
0.00127118
0.00130385
0.00133675
0.00136988
0.00140324
0.00143683
0.00147066
0.00150473
0.00153905
0.00157359
0.00160836
0.00164336
0.00167858
0.00171402
0.00174967
0.00178554
0.0018216
0.00185786
0.00189431
0.00193094
0.00196773
0.00200468
0.00204177
0.00207899
0.00211633
0.00215376
0.00219128
0.00222887
0.0022665
0.00230417
0.00234185
0.00237952
0.00241716
0.00245476
0.00249229
0.00252972
0.00256705
0.00260424
0.00264128
0.00267813
0.00271477
0.00275119
0.00278735
0.00282323
0.00285879
0.00289403
0.0029289
0.00296338
0.00299745
0.00303109
0.00306429
0.00309704
0.00312933
0.00316114
0.00319246
0.00322326
0.00325353
0.00328325
0.00331239
0.00334094
0.00336887
0.00339618
0.00342283
0.00344882
0.00347412
0.00349872
0.0035226
0.00354575
0.00356815
0.00358978
0.00361063
0.00363069
0.00364993
0.00366835
0.00368593
0.00370267
0.00371854
0.00373354
0.00374765
0.00376087
0.0037732
0.00378471
0.00379555
0.00380518
0.0038137
0.00382111
0.00382794
0.00383379
0.00383867
0.0038426
0.00384558
0.00384763
0.00384875
0.00384895
0.00384825
0.00384664
0.00384415
0.00384079
0.00383657
0.00383151
0.00382563
0.00381895
0.00381148
0.00380326
0.00379431
0.00378466
0.00377434
0.00376337
0.0037518
0.00373964
0.00372695
0.00371374
0.00370005
0.0036859
0.0036713
0.00365623
0.0036406
0.00362428
0.00360729
0.00358975
0.00357179
0.0035535
0.00353498
0.00351627
0.00349744
0.00347851
0.00345952
0.0034405
0.00342142
0.00340219
0.00338256
0.00336161
0.0033365
0.00329852
6.94795e-06
8.51546e-05
0.000177955
0.0002529
0.000311124
0.000355811
0.000390713
0.000418822
0.000442412
0.000463146
0.000482188
0.000500317
0.000518032
0.000535635
0.000553309
0.000571162
0.000589269
0.000607689
0.00062648
0.000645701
0.000665418
0.000685701
0.000706618
0.000728242
0.000750634
0.000773852
0.00079793
0.00082289
0.000848731
0.000875439
0.000902983
0.00093133
0.000960446
0.000990305
0.00102089
0.00105217
0.00108412
0.00111665
0.00114971
0.00118324
0.00121717
0.00125142
0.00128597
0.00132079
0.00135585
0.00139115
0.00142669
0.00146245
0.00149844
0.00153466
0.00157111
0.00160779
0.0016447
0.00168183
0.0017192
0.00175678
0.00179459
0.00183261
0.00187084
0.00190928
0.00194792
0.00198676
0.00202579
0.002065
0.00210439
0.00214393
0.00218363
0.00222347
0.00226343
0.00230351
0.00234369
0.00238395
0.00242428
0.00246467
0.00250508
0.00254552
0.00258595
0.00262636
0.00266673
0.00270703
0.00274726
0.00278738
0.00282737
0.00286722
0.00290689
0.00294637
0.00298563
0.00302464
0.00306339
0.00310185
0.00313999
0.00317779
0.00321522
0.00325226
0.0032889
0.0033251
0.00336087
0.00339616
0.00343098
0.00346531
0.00349912
0.00353239
0.0035651
0.00359724
0.00362878
0.0036597
0.00368999
0.00371961
0.00374856
0.00377681
0.00380435
0.00383116
0.00385722
0.00388251
0.00390702
0.00393073
0.00395363
0.0039757
0.00399692
0.00401728
0.00403677
0.00405538
0.00407308
0.00408988
0.00410575
0.00412069
0.00413468
0.00414792
0.00416025
0.00417144
0.00418148
0.00419045
0.00419868
0.00420589
0.00421208
0.00421727
0.00422145
0.00422465
0.00422687
0.0042281
0.00422837
0.00422768
0.00422604
0.00422347
0.00421996
0.00421556
0.00421026
0.00420409
0.00419707
0.00418922
0.00418058
0.00417117
0.00416101
0.00415014
0.0041386
0.00412641
0.00411361
0.00410023
0.00408631
0.00407188
0.00405695
0.00404153
0.00402556
0.00400901
0.00399187
0.00397422
0.00395613
0.00393771
0.00391901
0.0039001
0.00388105
0.0038619
0.0038427
0.00382348
0.00380428
0.00378503
0.00376554
0.00374501
0.00372109
0.00368768
7.92227e-06
9.14362e-05
0.000190772
0.000271943
0.000335926
0.0003856
0.000424727
0.000456363
0.000482871
0.000506021
0.000527095
0.000546989
0.000566308
0.000585451
0.000604674
0.000624144
0.000643977
0.000664259
0.000685062
0.000706447
0.000728476
0.000751207
0.000774693
0.000798984
0.000824118
0.000850161
0.000877106
0.000904942
0.000933652
0.000963206
0.000993563
0.00102468
0.00105651
0.00108902
0.00112216
0.00115591
0.00119022
0.00122505
0.00126034
0.00129606
0.00133216
0.00136858
0.0014053
0.00144231
0.00147956
0.00151705
0.00155476
0.0015927
0.00163084
0.0016692
0.00170777
0.00174656
0.00178555
0.00182475
0.00186415
0.00190376
0.00194357
0.00198358
0.00202377
0.00206416
0.00210473
0.00214548
0.0021864
0.00222749
0.00226873
0.00231012
0.00235164
0.0023933
0.00243507
0.00247694
0.00251891
0.00256095
0.00260305
0.0026452
0.00268738
0.00272958
0.00277177
0.00281393
0.00285606
0.00289813
0.00294012
0.00298201
0.00302377
0.00306539
0.00310685
0.00314812
0.00318917
0.00323
0.00327056
0.00331084
0.00335081
0.00339046
0.00342975
0.00346867
0.00350719
0.00354529
0.00358295
0.00362016
0.00365689
0.00369312
0.00372883
0.003764
0.00379861
0.00383264
0.00386606
0.00389886
0.00393101
0.00396249
0.00399329
0.00402338
0.00405275
0.00408137
0.00410923
0.00413632
0.00416261
0.00418809
0.00421274
0.00423654
0.00425949
0.00428156
0.00430274
0.00432302
0.00434238
0.00436081
0.00437831
0.00439484
0.00441043
0.00442528
0.00443904
0.00445177
0.00446334
0.0044739
0.00448358
0.0044922
0.00449978
0.00450633
0.00451185
0.00451634
0.00451981
0.00452227
0.00452372
0.00452417
0.00452363
0.0045221
0.0045196
0.00451615
0.00451175
0.00450643
0.0045002
0.00449309
0.00448513
0.00447634
0.00446675
0.00445639
0.0044453
0.0044335
0.00442104
0.00440794
0.00439424
0.00437998
0.00436517
0.00434984
0.00433397
0.00431755
0.0043006
0.00428315
0.00426526
0.00424702
0.00422849
0.00420973
0.00419081
0.00417179
0.00415272
0.00413368
0.00411471
0.00409581
0.00407683
0.00405713
0.00403481
0.00400542
8.74623e-06
9.63326e-05
0.000200887
0.000287356
0.000356421
0.000410691
0.000453826
0.000488899
0.000518324
0.000543945
0.00056713
0.000588869
0.000609859
0.000630578
0.000651346
0.000672382
0.00069384
0.000715845
0.000738475
0.000761777
0.000785797
0.000810577
0.000836155
0.000862551
0.000889775
0.000917853
0.000946814
0.000976652
0.00100734
0.00103884
0.0010711
0.0011041
0.00113777
0.00117207
0.00120697
0.00124242
0.00127839
0.00131483
0.00135169
0.00138891
0.00142641
0.00146421
0.0015023
0.00154068
0.00157932
0.00161818
0.00165723
0.00169648
0.00173591
0.00177552
0.00181532
0.0018553
0.00189546
0.00193581
0.00197633
0.00201703
0.00205791
0.00209896
0.00214019
0.00218158
0.00222314
0.00226486
0.00230674
0.00234877
0.00239096
0.00243328
0.00247574
0.00251832
0.00256102
0.00260382
0.00264672
0.00268971
0.00273277
0.00277589
0.00281905
0.00286224
0.00290545
0.00294865
0.00299184
0.00303498
0.00307807
0.00312108
0.003164
0.0032068
0.00324945
0.00329195
0.00333426
0.00337636
0.00341823
0.00345985
0.00350118
0.00354221
0.00358292
0.00362327
0.00366325
0.00370284
0.003742
0.00378073
0.00381898
0.00385676
0.00389402
0.00393075
0.00396693
0.00400253
0.00403753
0.00407191
0.00410564
0.00413872
0.00417111
0.00420279
0.00423375
0.00426397
0.00429342
0.0043221
0.00434997
0.00437704
0.00440327
0.00442866
0.00445318
0.00447682
0.00449958
0.00452142
0.00454235
0.00456234
0.00458138
0.00459946
0.00461664
0.00463297
0.00464821
0.00466248
0.00467561
0.00468776
0.00469893
0.00470903
0.00471807
0.00472606
0.00473301
0.00473891
0.00474377
0.0047476
0.00475039
0.00475215
0.00475289
0.00475261
0.00475132
0.00474903
0.00474577
0.00474154
0.00473636
0.00473025
0.00472324
0.00471535
0.00470662
0.00469706
0.00468671
0.00467561
0.00466379
0.00465128
0.00463812
0.00462435
0.00460998
0.00459506
0.00457958
0.00456356
0.00454701
0.00452998
0.00451251
0.00449467
0.00447651
0.00445811
0.00443954
0.00442086
0.00440216
0.00438351
0.00436498
0.00434662
0.00432834
0.00430963
0.00428901
0.0042639
9.41066e-06
9.99618e-05
0.000208522
0.000299539
0.000372914
0.000431352
0.00047824
0.000516617
0.000548911
0.000577008
0.000602337
0.000625954
0.000648633
0.000670938
0.00069322
0.000715699
0.000738515
0.000761728
0.000785569
0.000810133
0.000835475
0.00086163
0.000888624
0.000916475
0.000945199
0.000974816
0.00100529
0.00103661
0.00106871
0.00110156
0.00113511
0.00116932
0.00120414
0.00123953
0.00127546
0.00131187
0.00134872
0.00138599
0.00142364
0.00146164
0.00149999
0.00153864
0.00157753
0.00161661
0.00165587
0.00169531
0.00173489
0.00177461
0.00181448
0.00185449
0.00189465
0.00193495
0.00197541
0.00201602
0.00205678
0.00209769
0.00213876
0.00217999
0.00222137
0.00226292
0.00230462
0.00234648
0.00238851
0.00243068
0.00247302
0.00251551
0.00255814
0.00260092
0.00264384
0.00268689
0.00273006
0.00277335
0.00281675
0.00286024
0.00290381
0.00294745
0.00299115
0.00303488
0.00307864
0.00312241
0.00316616
0.00320988
0.00325355
0.00329714
0.00334064
0.00338402
0.00342726
0.00347033
0.00351321
0.00355588
0.0035983
0.00364046
0.00368233
0.00372388
0.00376509
0.00380593
0.00384638
0.00388641
0.003926
0.00396512
0.00400375
0.00404186
0.00407943
0.00411644
0.00415286
0.00418868
0.00422385
0.00425838
0.00429222
0.00432537
0.0043578
0.0043895
0.00442044
0.0044506
0.00447997
0.00450853
0.00453626
0.00456315
0.00458919
0.00461434
0.00463861
0.00466197
0.00468442
0.00470594
0.00472651
0.00474612
0.00476486
0.00478262
0.00479941
0.00481522
0.00482996
0.00484371
0.00485646
0.00486808
0.00487864
0.00488815
0.00489662
0.00490403
0.00491039
0.0049157
0.00491997
0.00492318
0.00492535
0.00492647
0.00492657
0.00492563
0.00492368
0.00492073
0.0049168
0.0049119
0.00490605
0.00489928
0.00489162
0.00488309
0.00487372
0.00486355
0.0048526
0.00484092
0.00482854
0.00481549
0.0048018
0.00478751
0.00477264
0.00475721
0.00474125
0.0047248
0.00470789
0.00469059
0.00467296
0.00465507
0.00463699
0.0046188
0.00460059
0.00458245
0.00456449
0.00454677
0.00452926
0.00451157
0.00449256
0.00447081
9.91479e-06
0.000102459
0.000213937
0.000308643
0.000385697
0.000447847
0.000498188
0.000539682
0.000574734
0.000605243
0.000632719
0.000658177
0.00068236
0.000705752
0.000728963
0.000752347
0.000776147
0.000800576
0.00082573
0.000851608
0.000878241
0.000905655
0.00093387
0.000962896
0.000992734
0.00102337
0.00105476
0.00108686
0.00111966
0.00115312
0.00118721
0.00122189
0.00125711
0.00129283
0.00132902
0.00136563
0.00140262
0.00143996
0.00147762
0.00151557
0.00155376
0.00159218
0.00163082
0.00166972
0.00170886
0.00174812
0.00178741
0.00182677
0.00186621
0.00190574
0.00194538
0.00198514
0.00202501
0.00206502
0.00210516
0.00214544
0.00218587
0.00222645
0.0022672
0.00230812
0.00234921
0.00239048
0.00243193
0.00247358
0.00251541
0.00255743
0.00259965
0.00264206
0.00268466
0.00272744
0.0027704
0.00281354
0.00285685
0.00290031
0.00294392
0.00298766
0.00303152
0.00307549
0.00311955
0.00316367
0.00320785
0.00325206
0.00329628
0.00334048
0.00338464
0.00342875
0.00347276
0.00351667
0.00356043
0.00360403
0.00364743
0.00369061
0.00373354
0.00377619
0.00381854
0.00386054
0.00390219
0.00394345
0.00398429
0.00402468
0.00406461
0.00410404
0.00414294
0.0041813
0.00421908
0.00425627
0.00429283
0.00432875
0.00436401
0.00439857
0.00443243
0.00446556
0.00449794
0.00452955
0.00456038
0.0045904
0.0046196
0.00464797
0.00467548
0.00470213
0.00472789
0.00475276
0.00477672
0.00479976
0.00482187
0.00484303
0.00486327
0.00488256
0.00490091
0.0049183
0.00493468
0.00495007
0.00496448
0.00497767
0.00498981
0.00500092
0.00501098
0.00502
0.00502797
0.00503488
0.00504073
0.00504552
0.00504926
0.00505193
0.00505355
0.00505412
0.00505365
0.00505215
0.00504963
0.00504611
0.00504161
0.00503614
0.00502974
0.00502243
0.00501423
0.00500518
0.00499531
0.00498465
0.00497324
0.00496111
0.0049483
0.00493483
0.00492075
0.00490608
0.00489085
0.0048751
0.00485889
0.00484225
0.00482526
0.00480799
0.00479051
0.00477291
0.00475529
0.00473775
0.00472042
0.00470338
0.00468666
0.00466996
0.0046524
0.00463338
1.02659e-05
0.000103973
0.00021737
0.000314934
0.000395054
0.000460442
0.000513897
0.000558288
0.000595908
0.000628537
0.000657558
0.00068429
0.000709674
0.000734473
0.0007591
0.000783822
0.000808861
0.00083437
0.000860392
0.000887035
0.000914358
0.000942392
0.00097115
0.00100064
0.00103084
0.00106174
0.0010933
0.0011255
0.0011583
0.00119168
0.00122558
0.00125999
0.00129485
0.00133013
0.00136579
0.0014018
0.00143811
0.00147469
0.00151152
0.00154855
0.00158573
0.00162309
0.00166073
0.00169874
0.00173682
0.00177493
0.00181307
0.00185117
0.00188927
0.00192741
0.00196564
0.00200395
0.00204238