/*--------------------------------*- C++ -*----------------------------------*\
  =========                 |
  \\      /  F ield         | OpenFOAM: The Open Source CFD Toolbox
   \\    /   O peration     | Website:  https://openfoam.org
    \\  /    A nd           | Version:  8
     \\/     M anipulation  |
\*---------------------------------------------------------------------------*/
FoamFile
{
    version     2.0;
    format      ascii;
    class       volScalarField;
    location    "265";
    object      p;
}
// * * * * * * * * * * * * * * * * * * * * * * * * * * * * * * * * * * * * * //

dimensions      [0 2 -2 0 0 0 0];

internalField   nonuniform List<scalar> 
12225
(
-1.57572
-3.76368
-4.86378
-5.18457
-5.36602
-5.5353
-5.66713
-5.76271
-5.83986
-5.90795
-5.96883
-6.02484
-6.07615
-6.1246
-6.17069
-6.21085
-6.26111
-6.24273
-4.73808
-5.50692
-5.66748
-5.57539
-5.56304
-5.63113
-5.70899
-5.77516
-5.83531
-5.89343
-5.94891
-6.00094
-6.0503
-6.09734
-6.14318
-6.18485
-6.23277
-6.26973
-5.13871
-5.12453
-5.25202
-5.33053
-5.42561
-5.54602
-5.65357
-5.73881
-5.81116
-5.87717
-5.93813
-5.99412
-6.04667
-6.0962
-6.14431
-6.18906
-6.23945
-6.2842
-5.01732
-4.9607
-5.20242
-5.36088
-5.46279
-5.56921
-5.66722
-5.74765
-5.81689
-5.88061
-5.93998
-5.99501
-6.04691
-6.09611
-6.14401
-6.18991
-6.23911
-6.28719
-5.00739
-5.03177
-5.25991
-5.40158
-5.48536
-5.57763
-5.66914
-5.74722
-5.81524
-5.87806
-5.93692
-5.99182
-6.04376
-6.09324
-6.14146
-6.18841
-6.23711
-6.28667
-5.06548
-5.11428
-5.28861
-5.41261
-5.49427
-5.58229
-5.6706
-5.74746
-5.81486
-5.87711
-5.93556
-5.99032
-6.04218
-6.09175
-6.14003
-6.18732
-6.23545
-6.28452
-5.12579
-5.16992
-5.30514
-5.42155
-5.50543
-5.58975
-5.67391
-5.74886
-5.81534
-5.87683
-5.93469
-5.98912
-6.04076
-6.09023
-6.13835
-6.18554
-6.23289
-6.28062
-5.17923
-5.21682
-5.32683
-5.43519
-5.5183
-5.59807
-5.6777
-5.75046
-5.81585
-5.87648
-5.93365
-5.98765
-6.03898
-6.08821
-6.13601
-6.18278
-6.22918
-6.27528
-5.22888
-5.26199
-5.35295
-5.45097
-5.53115
-5.60666
-5.68201
-5.75237
-5.81647
-5.87611
-5.93247
-5.9859
-6.03678
-6.08561
-6.1329
-6.17899
-6.22428
-6.26868
-5.27584
-5.30509
-5.38064
-5.46791
-5.5442
-5.61586
-5.68712
-5.75481
-5.81736
-5.87583
-5.93125
-5.98394
-6.03421
-6.08244
-6.12904
-6.17426
-6.21832
-6.26103
-5.32005
-5.34555
-5.40878
-5.48599
-5.55774
-5.62565
-5.693
-5.75784
-5.81859
-5.87574
-5.93005
-5.98184
-6.03132
-6.0788
-6.12454
-6.16873
-6.21151
-6.2526
-5.35798
-5.38033
-5.43455
-5.50341
-5.57058
-5.63503
-5.69894
-5.76109
-5.82003
-5.87582
-5.929
-5.97982
-6.02845
-6.07509
-6.11994
-6.1631
-6.20467
-6.24436
-5.39299
-5.41271
-5.45955
-5.52096
-5.58348
-5.64452
-5.70517
-5.76466
-5.82169
-5.87604
-5.928
-5.97777
-6.02545
-6.07117
-6.11504
-6.15715
-6.19752
-6.23591
-5.42965
-5.44684
-5.48686
-5.54089
-5.59822
-5.6554
-5.71254
-5.76904
-5.82382
-5.87641
-5.92689
-5.97536
-6.02185
-6.06642
-6.10912
-6.14999
-6.18904
-6.22606
-5.4667
-5.48148
-5.51547
-5.56256
-5.61443
-5.6674
-5.72084
-5.77413
-5.82633
-5.87687
-5.9256
-5.9725
-6.01755
-6.06075
-6.10209
-6.14156
-6.17918
-6.21479
-5.50216
-5.51479
-5.54371
-5.58464
-5.63118
-5.67985
-5.72954
-5.77953
-5.82896
-5.8772
-5.92394
-5.96906
-6.01246
-6.05409
-6.09391
-6.13188
-6.16802
-6.2022
-5.53314
-5.544
-5.56894
-5.60486
-5.64669
-5.69135
-5.73752
-5.78435
-5.83103
-5.87689
-5.92154
-5.96475
-6.00638
-6.04634
-6.08456
-6.12101
-6.15567
-6.18848
-5.55526
-5.5649
-5.58714
-5.61956
-5.65794
-5.6995
-5.74285
-5.78708
-5.83138
-5.87511
-5.91781
-5.95921
-5.99914
-6.03749
-6.07417
-6.10915
-6.14242
-6.17397
-5.56164
-5.57079
-5.59197
-5.62307
-5.66009
-5.70027
-5.7422
-5.78501
-5.82791
-5.87025
-5.91157
-5.95162
-5.99021
-6.02726
-6.06268
-6.09646
-6.1286
-6.15912
-5.5452
-5.55495
-5.57752
-5.61054
-5.64946
-5.69105
-5.73389
-5.77726
-5.82047
-5.86285
-5.904
-5.9437
-5.98183
-6.01832
-6.05314
-6.08629
-6.11779
-6.14769
-5.51813
-5.52891
-5.55415
-5.59111
-5.63379
-5.6782
-5.72316
-5.76825
-5.81272
-5.8559
-5.89748
-5.93738
-5.97555
-6.01195
-6.04658
-6.07949
-6.11071
-6.14032
-5.48277
-5.49457
-5.52389
-5.56741
-5.6156
-5.66348
-5.71116
-5.75874
-5.80514
-5.84956
-5.89191
-5.93228
-5.97071
-6.0072
-6.0418
-6.0746
-6.10567
-6.13511
-5.44212
-5.454
-5.48841
-5.54162
-5.59708
-5.64893
-5.69969
-5.74999
-5.79836
-5.84407
-5.88733
-5.92835
-5.96717
-6.00386
-6.03853
-6.07132
-6.10233
-6.13171
-5.39836
-5.40931
-5.45103
-5.51539
-5.57748
-5.63405
-5.68955
-5.74327
-5.79339
-5.84006
-5.88402
-5.92554
-5.96464
-6.00144
-6.03613
-6.06888
-6.09982
-6.12909
-5.35142
-5.35686
-5.41947
-5.4976
-5.55946
-5.6176
-5.67863
-5.73685
-5.78923
-5.83714
-5.882
-5.92411
-5.9635
-6.00038
-6.03505
-6.06774
-6.0986
-6.12784
-5.30813
-5.27167
-5.38115
-5.49206
-5.55422
-5.60941
-5.6715
-5.73111
-5.78419
-5.83277
-5.87834
-5.92099
-5.96071
-5.9978
-6.03258
-6.06533
-6.09623
-6.12548
-5.32221
-5.1632
-5.29209
-5.44611
-5.53614
-5.60741
-5.67622
-5.737
-5.78967
-5.83781
-5.88295
-5.92506
-5.96421
-6.00073
-6.03497
-6.06723
-6.09772
-6.12669
-5.44492
-5.2649
-5.27908
-5.35117
-5.43946
-5.53858
-5.62916
-5.70281
-5.76438
-5.81938
-5.86955
-5.91518
-5.95685
-5.9952
-6.03076
-6.06397
-6.09529
-6.12535
-5.15223
-5.74379
-5.83261
-5.7083
-5.65389
-5.68095
-5.72782
-5.77093
-5.81236
-5.8544
-5.89575
-5.93494
-5.97176
-6.00635
-6.03879
-6.06922
-6.09785
-6.12649
-2.16397
-3.92673
-4.93138
-5.23047
-5.37956
-5.52309
-5.637
-5.71784
-5.78193
-5.83866
-5.88978
-5.93568
-5.97722
-6.01531
-6.05047
-6.0825
-6.11124
-6.13494
-6.99639
-6.99642
-6.9968
-6.99758
-6.9986
-6.9998
-7.00118
-7.00279
-7.00464
-7.0068
-7.0093
-7.01218
-7.0155
-7.01929
-7.0236
-7.02848
-7.03396
-7.0401
-7.04693
-7.05451
-7.0629
-7.07217
-7.0824
-7.09369
-7.10614
-7.1198
-7.13471
-7.15083
-7.168
-7.18585
-7.20425
-7.22337
-7.24315
-7.26379
-7.28603
-7.30926
-7.33254
-7.35675
-7.38488
-7.41504
-7.44051
-7.4611
-7.48398
-7.51054
-7.53795
-7.56629
-7.59524
-7.62466
-7.65438
-7.6843
-7.71428
-7.74425
-7.77408
-7.8037
-7.83299
-7.86187
-7.89022
-7.91795
-7.94493
-7.97107
-7.99622
-8.02027
-8.04308
-8.06451
-8.08442
-8.10265
-8.11905
-8.13345
-8.14568
-8.15558
-8.16294
-8.16761
-8.16937
-8.16806
-8.16346
-8.1554
-8.14365
-8.12803
-8.10832
-8.08435
-8.05589
-8.02277
-7.98477
-7.94171
-7.89341
-7.83968
-7.78033
-7.7152
-7.6441
-7.56689
-7.48344
-7.39361
-7.29727
-7.19432
-7.08478
-6.96876
-6.84619
-6.71655
-6.57949
-6.43516
-6.28367
-6.12506
-5.95936
-5.78658
-5.60676
-5.41995
-5.22621
-5.02563
-4.8183
-4.60435
-4.38392
-4.15714
-3.9242
-3.68527
-3.44056
-3.19029
-2.93468
-2.674
-2.40851
-2.13848
-1.8642
-1.58599
-1.30416
-1.01904
-0.730973
-0.440308
-0.147395
0.147417
0.443777
0.741322
1.03965
1.33839
1.63721
1.93576
2.2337
2.53067
2.82634
3.1204
3.41253
3.70246
3.9899
4.27459
4.55627
4.83471
5.10969
5.381
5.64846
5.9119
6.17118
6.42616
6.67673
6.9228
7.16428
7.40113
7.63329
7.86075
8.08348
8.30149
8.51479
8.72342
8.92741
9.12682
9.32177
9.51239
9.6985
9.87993
10.0568
10.2292
10.3973
10.5611
10.7206
10.876
11.0273
11.1745
11.3179
11.4579
11.5956
11.7321
11.8788
12.031
-6.99519
-6.99549
-6.99603
-6.99672
-6.99737
-6.99795
-6.9986
-6.99946
-7.00064
-7.00218
-7.00412
-7.00649
-7.00932
-7.01262
-7.01644
-7.02081
-7.02576
-7.03133
-7.03758
-7.04453
-7.05225
-7.06078
-7.07018
-7.0805
-7.09174
-7.10388
-7.11685
-7.13053
-7.14482
-7.15996
-7.17629
-7.19358
-7.21163
-7.23083
-7.25051
-7.26989
-7.29059
-7.31451
-7.33781
-7.36037
-7.3876
-7.42209
-7.45645
-7.48655
-7.51602
-7.54538
-7.57485
-7.60446
-7.6342
-7.66402
-7.69386
-7.72363
-7.75327
-7.78269
-7.81179
-7.84049
-7.86869
-7.89628
-7.92316
-7.94921
-7.97432
-7.99836
-8.02119
-8.04269
-8.06269
-8.08107
-8.09765
-8.11228
-8.12478
-8.13499
-8.14273
-8.1478
-8.15003
-8.14923
-8.14519
-8.13773
-8.12665
-8.11174
-8.09281
-8.06966
-8.04208
-8.00989
-7.97288
-7.93087
-7.88367
-7.83109
-7.77297
-7.70913
-7.63939
-7.56362
-7.48168
-7.39343
-7.29874
-7.19747
-7.0895
-6.97464
-6.85267
-6.7237
-6.58789
-6.44514
-6.29535
-6.13849
-5.97456
-5.80357
-5.62555
-5.44055
-5.24862
-5.04984
-4.84432
-4.63217
-4.41351
-4.1885
-3.9573
-3.72009
-3.47706
-3.22843
-2.97444
-2.71532
-2.45133
-2.18276
-1.90989
-1.63301
-1.35245
-1.06853
-0.781593
-0.491978
-0.200037
0.0938813
0.389432
0.686257
0.983958
1.28215
1.58051
1.87869
2.17634
2.47311
2.76867
3.0627
3.35489
3.64495
3.93261
4.21758
4.49962
4.77848
5.05395
5.32582
5.5939
5.85801
6.11801
6.37376
6.62514
6.87206
7.11443
7.35219
7.5853
7.81372
8.03744
8.25646
8.47079
8.68047
8.88555
9.08606
9.28201
9.47316
9.65945
9.8411
10.0182
10.1909
10.3593
10.5234
10.6832
10.8389
10.9906
11.1383
11.2823
11.4232
11.5623
11.7005
11.85
11.997
-6.99123
-6.99222
-6.99362
-6.9948
-6.99551
-6.99596
-6.99639
-6.99698
-6.99788
-6.99915
-7.00084
-7.00299
-7.00561
-7.00874
-7.0124
-7.01663
-7.02146
-7.02693
-7.03308
-7.03994
-7.04757
-7.056
-7.06528
-7.07543
-7.08647
-7.09838
-7.11114
-7.12471
-7.13905
-7.15418
-7.17021
-7.18728
-7.20567
-7.22556
-7.2467
-7.26868
-7.29168
-7.31578
-7.33959
-7.36267
-7.38716
-7.41449
-7.4431
-7.47154
-7.50018
-7.52901
-7.55801
-7.58715
-7.6164
-7.6457
-7.67501
-7.70426
-7.73337
-7.76228
-7.7909
-7.81914
-7.8469
-7.8741
-7.90062
-7.92635
-7.95117
-7.97497
-7.9976
-8.01895
-8.03885
-8.05717
-8.07375
-8.08842
-8.10103
-8.1114
-8.11935
-8.1247
-8.12726
-8.12685
-8.12328
-8.11634
-8.10585
-8.0916
-8.07339
-8.05103
-8.02431
-7.99305
-7.95704
-7.9161
-7.87003
-7.81866
-7.7618
-7.69929
-7.63095
-7.55664
-7.47621
-7.38954
-7.29648
-7.19693
-7.09076
-6.9778
-6.85784
-6.7309
-6.59704
-6.45626
-6.30848
-6.15368
-5.99185
-5.82299
-5.64712
-5.46428
-5.27453
-5.07795
-4.87463
-4.66467
-4.44821
-4.22538
-3.99635
-3.76128
-3.52038
-3.27386
-3.02192
-2.76483
-2.50282
-2.23618
-1.96518
-1.69012
-1.41131
-1.12907
-0.843729
-0.55564
-0.265146
0.0274058
0.321677
0.617306
0.913908
1.21111
1.50856
1.80593
2.10286
2.39901
2.69404
2.98763
3.27947
3.56928
3.85675
4.14164
4.42367
4.70261
4.97822
5.25031
5.51867
5.78313
6.04354
6.29975
6.55164
6.79911
7.04207
7.28045
7.5142
7.74329
7.96768
8.18738
8.40238
8.61269
8.81833
9.01936
9.21582
9.40771
9.59504
9.77783
9.9561
10.1299
10.2993
10.4644
10.6253
10.782
10.9346
11.0834
11.2287
11.371
11.5121
11.6518
11.8038
11.9388
-6.98482
-6.98662
-6.98935
-6.99155
-6.99292
-6.99382
-6.99456
-6.99534
-6.99631
-6.99759
-6.99925
-7.00135
-7.00392
-7.007
-7.01061
-7.01479
-7.01958
-7.02501
-7.03112
-7.03793
-7.04551
-7.05387
-7.06306
-7.07309
-7.08396
-7.09567
-7.10819
-7.12151
-7.13564
-7.15061
-7.16648
-7.18335
-7.20137
-7.22068
-7.24125
-7.26299
-7.28588
-7.30977
-7.33421
-7.35887
-7.38407
-7.41018
-7.43704
-7.46438
-7.49214
-7.52025
-7.54863
-7.57721
-7.60594
-7.63476
-7.6636
-7.69241
-7.7211
-7.74961
-7.77786
-7.80576
-7.83323
-7.86015
-7.88643
-7.91196
-7.93662
-7.9603
-7.98285
-8.00415
-8.02406
-8.04242
-8.05908
-8.07389
-8.08667
-8.09725
-8.10546
-8.11112
-8.11405
-8.11404
-8.11092
-8.10448
-8.09454
-8.08088
-8.06332
-8.04166
-8.01568
-7.98521
-7.95004
-7.90999
-7.86485
-7.81446
-7.75863
-7.69719
-7.62995
-7.55679
-7.47754
-7.39207
-7.30023
-7.20191
-7.09699
-6.98533
-6.8668
-6.74138
-6.60907
-6.46982
-6.32361
-6.17039
-6.01017
-5.84293
-5.66869
-5.48751
-5.29942
-5.10451
-4.90285
-4.69457
-4.47977
-4.2586
-4.03121
-3.79778
-3.5585
-3.31356
-3.06319
-2.80762
-2.54711
-2.28193
-2.01234
-1.73865
-1.46116
-1.18018
-0.896056
-0.609118
-0.319714
-0.0281883
0.265125
0.559854
0.855619
1.15207
1.44886
1.74562
2.04202
2.3377
2.63233
2.9256
3.21719
3.50681
3.79417
4.079
4.36105
4.64005
4.9158
5.18807
5.45668
5.72143
5.98218
6.23877
6.49109
6.73901
6.98246
7.22136
7.45565
7.68527
7.91021
8.13047
8.34604
8.55693
8.76316
8.96473
9.1617
9.35416
9.54215
9.72566
9.90466
10.0792
10.2493
10.415
10.5765
10.7339
10.8872
11.0367
11.1827
11.3258
11.4676
11.6069
11.7571
11.8783
-6.9775
-6.98016
-6.98443
-6.9879
-6.99017
-6.99176
-6.99305
-6.99426
-6.99558
-6.99712
-6.99899
-7.00127
-7.00399
-7.00721
-7.01097
-7.01529
-7.02021
-7.02578
-7.03202
-7.03899
-7.04671
-7.05522
-7.06455
-7.07471
-7.08572
-7.09757
-7.11024
-7.12372
-7.13802
-7.15318
-7.16927
-7.18633
-7.20445
-7.22366
-7.24396
-7.26532
-7.28766
-7.3109
-7.33489
-7.3595
-7.38473
-7.41059
-7.43698
-7.4638
-7.49102
-7.51859
-7.54646
-7.57456
-7.60283
-7.63122
-7.65967
-7.6881
-7.71646
-7.74465
-7.77261
-7.80025
-7.82748
-7.8542
-7.88031
-7.9057
-7.93026
-7.95386
-7.97638
-7.99767
-8.0176
-8.03602
-8.05278
-8.06772
-8.08066
-8.09144
-8.09988
-8.10581
-8.10903
-8.10935
-8.10659
-8.10056
-8.09104
-8.07785
-8.06079
-8.03965
-8.01424
-7.98436
-7.94982
-7.91042
-7.86598
-7.8163
-7.76121
-7.70054
-7.63411
-7.56176
-7.48337
-7.39876
-7.30782
-7.21041
-7.10641
-6.99571
-6.87822
-6.75387
-6.62263
-6.48447
-6.33934
-6.18723
-6.0281
-5.86198
-5.68887
-5.50881
-5.32185
-5.12807
-4.92754
-4.72038
-4.50671
-4.28665
-4.06037
-3.82803
-3.58981
-3.34593
-3.09659
-2.84204
-2.58252
-2.31829
-2.04962
-1.77682
-1.50018
-1.22003
-0.936678
-0.650476
-0.361768
-0.0708849
0.221827
0.515989
0.811228
1.10722
1.4036
1.70001
1.99609
2.2915
2.58591
2.879
3.17047
3.46001
3.74733
4.03217
4.31426
4.59337
4.86924
5.14169
5.4105
5.6755
5.93652
6.19343
6.44608
6.69437
6.9382
7.17749
7.41219
7.64226
7.86766
8.08837
8.3044
8.51574
8.7224
8.92439
9.12174
9.31452
9.50281
9.6866
9.8659
10.0407
10.2111
10.3772
10.539
10.6966
10.8502
11
11.1463
11.2894
11.4309
11.5686
11.7152
11.8236
-6.97076
-6.97424
-6.97994
-6.98466
-6.98787
-6.99023
-6.99218
-6.99395
-6.99574
-6.99771
-6.99995
-7.00256
-7.0056
-7.00912
-7.01317
-7.01778
-7.02299
-7.02885
-7.03538
-7.04263
-7.05063
-7.05943
-7.06903
-7.07948
-7.09076
-7.1029
-7.11587
-7.12967
-7.1443
-7.15979
-7.17615
-7.19344
-7.21169
-7.23093
-7.25115
-7.27231
-7.29434
-7.31718
-7.34073
-7.36494
-7.38977
-7.41519
-7.44112
-7.4675
-7.49428
-7.52142
-7.54887
-7.57657
-7.60447
-7.63252
-7.66065
-7.68879
-7.71687
-7.74483
-7.77258
-7.80004
-7.82711
-7.85371
-7.87973
-7.90505
-7.92957
-7.95316
-7.97569
-7.99703
-8.01704
-8.03556
-8.05244
-8.06753
-8.08065
-8.09163
-8.1003
-8.10647
-8.10996
-8.11058
-8.10813
-8.10243
-8.09327
-8.08046
-8.06379
-8.04307
-8.01809
-7.98867
-7.9546
-7.91568
-7.87174
-7.82259
-7.76804
-7.70793
-7.64206
-7.57031
-7.49251
-7.40852
-7.31821
-7.22144
-7.1181
-7.00809
-6.89131
-6.76769
-6.6372
-6.49977
-6.35539
-6.20401
-6.04564
-5.88026
-5.7079
-5.52859
-5.34239
-5.14936
-4.94959
-4.74318
-4.53025
-4.31093
-4.08538
-3.85376
-3.61626
-3.37307
-3.12442
-2.87052
-2.61164
-2.34803
-2.07997
-1.80775
-1.53166
-1.25203
-0.969173
-0.683441
-0.395172
-0.104694
0.187634
0.481429
0.776338
1.07204
1.36817
1.66435
1.96023
2.25548
2.54975
2.84273
3.13412
3.4236
3.7109
3.99575
4.27787
4.55703
4.83299
5.10555
5.37449
5.63964
5.90084
6.15794
6.4108
6.65931
6.90338
7.14293
7.3779
7.60823
7.8339
8.05489
8.27118
8.48278
8.6897
8.89193
9.0895
9.28247
9.4709
9.65482
9.83425
10.0092
10.1798
10.346
10.5079
10.6657
10.8194
10.9692
11.1154
11.2582
11.3988
11.5343
11.6775
11.7746
-6.96571
-6.96993
-6.97678
-6.98255
-6.98665
-6.98977
-6.99239
-6.99476
-6.99709
-6.99954
-7.00223
-7.00526
-7.0087
-7.01261
-7.01704
-7.02203
-7.02762
-7.03384
-7.04074
-7.04835
-7.0567
-7.06584
-7.07577
-7.08652
-7.09811
-7.11054
-7.1238
-7.1379
-7.15282
-7.16859
-7.1852
-7.20268
-7.22103
-7.24027
-7.2604
-7.28138
-7.30318
-7.32574
-7.349
-7.3729
-7.39741
-7.42248
-7.44805
-7.47409
-7.50053
-7.52734
-7.55448
-7.58189
-7.60952
-7.63731
-7.66521
-7.69315
-7.72106
-7.74887
-7.7765
-7.80386
-7.83087
-7.85742
-7.88342
-7.90875
-7.9333
-7.95695
-7.97956
-8.001
-8.02112
-8.03978
-8.05682
-8.07208
-8.08539
-8.09658
-8.10547
-8.11187
-8.11561
-8.11649
-8.11431
-8.10889
-8.10002
-8.0875
-8.07114
-8.05074
-8.02608
-7.99699
-7.96325
-7.92469
-7.8811
-7.8323
-7.77812
-7.71837
-7.65289
-7.58152
-7.50412
-7.42053
-7.33063
-7.23427
-7.13136
-7.02179
-6.90546
-6.78231
-6.65228
-6.51533
-6.37141
-6.2205
-6.06259
-5.89768
-5.72579
-5.54696
-5.36123
-5.16867
-4.96938
-4.76344
-4.55098
-4.33213
-4.10703
-3.87587
-3.63881
-3.39606
-3.14783
-2.89435
-2.63588
-2.37266
-2.10497
-1.8331
-1.55735
-1.27804
-0.995493
-0.71005
-0.422046
-0.131816
0.160268
0.453829
0.748535
1.04406
1.34003
1.63607
1.93182
2.22694
2.52112
2.81402
3.10534
3.39478
3.68205
3.96687
4.24899
4.52816
4.80416
5.07675
5.34575
5.61097
5.87225
6.12943
6.3824
6.63102
6.87521
7.11488
7.34997
7.58043
7.80623
8.02733
8.24374
8.45545
8.66247
8.86481
9.06247
9.25552
9.444
9.62797
9.80745
9.98248
10.1531
10.3194
10.4813
10.6391
10.7928
10.9425
11.0885
11.2307
11.3701
11.5033
11.6432
11.7304
-6.96309
-6.96785
-6.97552
-6.9821
-6.98693
-6.99073
-6.99397
-6.99691
-6.99977
-7.00271
-7.00587
-7.00934
-7.01321
-7.01754
-7.02237
-7.02776
-7.03375
-7.04036
-7.04764
-7.05563
-7.06434
-7.07381
-7.08407
-7.09513
-7.107
-7.11969
-7.1332
-7.14754
-7.16269
-7.17867
-7.19546
-7.21307
-7.23151
-7.25076
-7.27083
-7.29168
-7.3133
-7.33564
-7.35866
-7.38232
-7.40658
-7.4314
-7.45672
-7.48251
-7.50873
-7.53532
-7.56225
-7.58947
-7.61693
-7.64457
-7.67235
-7.70018
-7.72801
-7.75576
-7.78336
-7.81071
-7.83773
-7.86432
-7.89038
-7.91579
-7.94043
-7.96419
-7.98693
-8.00851
-8.02879
-8.04762
-8.06484
-8.08029
-8.0938
-8.10519
-8.11429
-8.1209
-8.12486
-8.12596
-8.124
-8.1188
-8.11015
-8.09786
-8.08172
-8.06153
-8.0371
-8.00822
-7.9747
-7.93635
-7.89298
-7.84439
-7.79042
-7.73089
-7.66562
-7.59446
-7.51728
-7.43391
-7.34422
-7.24809
-7.1454
-7.03606
-6.91998
-6.79708
-6.6673
-6.53059
-6.38692
-6.23626
-6.07859
-5.91393
-5.74229
-5.5637
-5.37823
-5.18593
-4.98689
-4.78121
-4.569
-4.3504
-4.12557
-3.89465
-3.65784
-3.41533
-3.16734
-2.9141
-2.65584
-2.39284
-2.12535
-1.85368
-1.57812
-1.29899
-1.01661
-0.731323
-0.44346
-0.153372
0.138567
0.431994
0.726582
1.022
1.31788
1.61382
1.90949
2.20453
2.49863
2.79146
3.08272
3.3721
3.65932
3.94411
4.2262
4.50534
4.78131
5.0539
5.3229
5.58813
5.84942
6.10662
6.35961
6.60826
6.85247
7.09216
7.32727
7.55775
7.78357
8.00469
8.22112
8.43284
8.63986
8.8422
9.03986
9.2329
9.42138
9.60532
9.78478
9.95979
10.1304
10.2966
10.4586
10.6163
10.7698
10.9193
11.0648
11.2062
11.3443
11.475
11.6121
11.6907
-6.96318
-6.96829
-6.97644
-6.98355
-6.98894
-6.99328
-6.99704
-7.00048
-7.00382
-7.00721
-7.0108
-7.01468
-7.01895
-7.02367
-7.02889
-7.03465
-7.041
-7.04797
-7.0556
-7.06392
-7.07296
-7.08274
-7.09328
-7.1046
-7.11672
-7.12962
-7.14334
-7.15785
-7.17316
-7.18928
-7.20618
-7.22388
-7.24236
-7.26162
-7.28164
-7.30242
-7.32391
-7.34611
-7.36897
-7.39246
-7.41655
-7.44119
-7.46635
-7.49199
-7.51807
-7.54454
-7.57136
-7.59849
-7.62588
-7.65347
-7.6812
-7.70903
-7.73687
-7.76465
-7.79229
-7.81972
-7.84682
-7.87352
-7.89969
-7.92524
-7.95003
-7.97395
-7.99685
-8.01861
-8.03907
-8.05809
-8.0755
-8.09113
-8.10483
-8.11641
-8.12569
-8.13249
-8.13662
-8.13789
-8.13609
-8.13105
-8.12255
-8.1104
-8.09439
-8.07433
-8.05001
-8.02124
-7.98782
-7.94956
-7.90627
-7.85777
-7.80387
-7.74441
-7.6792
-7.60811
-7.53098
-7.44767
-7.35804
-7.26197
-7.15934
-7.05007
-6.93405
-6.81121
-6.68151
-6.54487
-6.40127
-6.25068
-6.09309
-5.9285
-5.75694
-5.57844
-5.39305
-5.20084
-5.00189
-4.7963
-4.5842
-4.3657
-4.14096
-3.91015
-3.67344
-3.43104
-3.18315
-2.93
-2.67184
-2.40893
-2.14154
-1.86995
-1.59447
-1.31542
-1.03311
-0.747893
-0.460095
-0.17008
0.121779
0.415136
0.709656
1.00501
1.30083
1.59671
1.8923
2.18728
2.4813
2.77406
3.06524
3.35455
3.6417
3.92641
4.20843
4.48752
4.76343
5.03596
5.30491
5.57008
5.83132
6.08847
6.3414
6.58999
6.83414
7.07378
7.30883
7.53926
7.76501
7.98607
8.20243
8.41408
8.62103
8.8233
9.0209
9.21387
9.40227
9.58615
9.76553
9.94047
10.111
10.2771
10.439
10.5965
10.7498
10.8989
11.0439
11.1844
11.321
11.4494
11.5838
11.6551
-6.966
-6.97124
-6.97955
-6.98693
-6.99267
-6.99741
-7.00157
-7.00541
-7.00913
-7.01289
-7.01684
-7.02107
-7.02568
-7.03072
-7.03626
-7.04233
-7.04898
-7.05625
-7.06417
-7.07276
-7.08205
-7.09206
-7.10282
-7.11434
-7.12663
-7.13969
-7.15353
-7.16816
-7.18357
-7.19976
-7.21673
-7.23447
-7.25297
-7.27223
-7.29222
-7.31294
-7.33437
-7.35648
-7.37925
-7.40265
-7.42664
-7.4512
-7.47629
-7.50187
-7.52789
-7.55433
-7.58113
-7.60826
-7.63566
-7.66329
-7.69108
-7.71897
-7.7469
-7.77479
-7.80255
-7.83011
-7.85736
-7.88421
-7.91055
-7.93627
-7.96125
-7.98535
-8.00844
-8.03039
-8.05104
-8.07023
-8.08781
-8.10362
-8.11748
-8.1292
-8.13863
-8.14555
-8.1498
-8.15117
-8.14947
-8.1445
-8.13606
-8.12396
-8.10798
-8.08794
-8.06363
-8.03486
-8.00142
-7.96314
-7.91981
-7.87126
-7.81731
-7.75778
-7.69251
-7.62134
-7.54414
-7.46075
-7.37104
-7.27489
-7.17219
-7.06283
-6.94674
-6.82384
-6.69406
-6.55736
-6.41369
-6.26304
-6.10539
-5.94075
-5.76915
-5.5906
-5.40518
-5.21294
-5.01397
-4.80836
-4.59625
-4.37774
-4.15301
-3.9222
-3.68549
-3.4431
-3.19522
-2.94209
-2.68395
-2.42105
-2.15367
-1.88211
-1.60665
-1.32761
-1.04533
-0.760127
-0.472357
-0.182385
0.109433
0.402748
0.697222
0.992526
1.28828
1.5841
1.87961
2.1745
2.46844
2.7611
3.05219
3.3414
3.62845
3.91305
4.19497
4.47394
4.74974
5.02215
5.29098
5.55603
5.81715
6.07418
6.32698
6.57545
6.81947
7.05898
7.2939
7.52419
7.7498
7.97073
8.18695
8.39848
8.6053
8.80744
9.00492
9.19777
9.38606
9.56982
9.74909
9.92391
10.0943
10.2603
10.422
10.5793
10.7324
10.881
11.0253
11.1648
11.3
11.4261
11.5581
11.6232
-6.9713
-6.9765
-6.98469
-6.9921
-6.998
-7.00296
-7.00738
-7.0115
-7.01549
-7.01953
-7.02374
-7.02824
-7.03309
-7.03837
-7.04413
-7.05042
-7.05728
-7.06475
-7.07285
-7.08161
-7.09106
-7.10122
-7.1121
-7.12373
-7.13611
-7.14926
-7.16317
-7.17786
-7.19332
-7.20955
-7.22655
-7.24431
-7.26282
-7.28207
-7.30206
-7.32276
-7.34417
-7.36625
-7.38899
-7.41236
-7.43634
-7.46089
-7.48599
-7.51158
-7.53764
-7.56413
-7.591
-7.6182
-7.6457
-7.67344
-7.70135
-7.72938
-7.75745
-7.7855
-7.81343
-7.84117
-7.86861
-7.89565
-7.92218
-7.94809
-7.97325
-7.99753
-8.0208
-8.04291
-8.06372
-8.08306
-8.10078
-8.1167
-8.13066
-8.14247
-8.15196
-8.15894
-8.16322
-8.16461
-8.1629
-8.15791
-8.14944
-8.13727
-8.12123
-8.1011
-8.07668
-8.04779
-8.01422
-7.97579
-7.93231
-7.88359
-7.82947
-7.76976
-7.7043
-7.63295
-7.55555
-7.47197
-7.38207
-7.28572
-7.18283
-7.07329
-6.95702
-6.83394
-6.70399
-6.56712
-6.4233
-6.27249
-6.11469
-5.94991
-5.77817
-5.5995
-5.41397
-5.22162
-5.02255
-4.81686
-4.60467
-4.3861
-4.1613
-3.93043
-3.69369
-3.45125
-3.20334
-2.95018
-2.69201
-2.4291
-2.16171
-1.89013
-1.61467
-1.33564
-1.05336
-0.768178
-0.48044
-0.190509
0.101269
0.394537
0.688954
0.984197
1.27988
1.57561
1.87102
2.1658
2.45962
2.75215
3.0431
3.33216
3.61904
3.90349
4.18523
4.46402
4.73965
5.01188
5.28052
5.54539
5.80631
6.06315
6.31576
6.56402
6.80785
7.04715
7.28187
7.51195
7.73737
7.9581
8.17413
8.38545
8.59209
8.79405
8.99137
9.18407
9.3722
9.55581
9.73494
9.90961
10.0799
10.2457
10.4072
10.5643
10.7169
10.8651
11.0087
11.1471
11.2809
11.4047
11.5346
11.5945
-6.97873
-6.98373
-6.99159
-6.9988
-7.00468
-7.0097
-7.01424
-7.01849
-7.02264
-7.02683
-7.0312
-7.03583
-7.04082
-7.04622
-7.05209
-7.05849
-7.06543
-7.07298
-7.08115
-7.08997
-7.09948
-7.10969
-7.12062
-7.13228
-7.1447
-7.15787
-7.17181
-7.18651
-7.20199
-7.21823
-7.23524
-7.25301
-7.27153
-7.2908
-7.3108
-7.33151
-7.35294
-7.37505
-7.39782
-7.42123
-7.44525
-7.46986
-7.49501
-7.52068
-7.54684
-7.57344
-7.60043
-7.62779
-7.65544
-7.68334
-7.71142
-7.73963
-7.76789
-7.79612
-7.82424
-7.85216
-7.87979
-7.90701
-7.93372
-7.95979
-7.98511
-8.00953
-8.03293
-8.05515
-8.07605
-8.09546
-8.11323
-8.12919
-8.14316
-8.15496
-8.16442
-8.17134
-8.17555
-8.17684
-8.17501
-8.16989
-8.16125
-8.14892
-8.13268
-8.11234
-8.0877
-8.05858
-8.02476
-7.98607
-7.94233
-7.89334
-7.83894
-7.77894
-7.7132
-7.64156
-7.56388
-7.48001
-7.38983
-7.29322
-7.19005
-7.08025
-6.96372
-6.8404
-6.7102
-6.5731
-6.42905
-6.27803
-6.12003
-5.95507
-5.78315
-5.60432
-5.41863
-5.22614
-5.02695
-4.82115
-4.60885
-4.39019
-4.16531
-3.93438
-3.69758
-3.4551
-3.20716
-2.95397
-2.69579
-2.43286
-2.16547
-1.8939
-1.61845
-1.33944
-1.05719
-0.772048
-0.484367
-0.194493
0.0972233
0.390412
0.684742
0.979889
1.27545
1.57103
1.8663
2.16091
2.45454
2.74689
3.03763
3.32647
3.61313
3.89734
4.17885
4.4574
4.73277
5.00474
5.27313
5.53774
5.7984
6.05497
6.30731
6.5553
6.79886
7.03789
7.27234
7.50216
7.72731
7.94778
8.16356
8.37465
8.58105
8.78279
8.9799
9.17241
9.36036
9.5438
9.72275
9.89726
10.0673
10.233
10.3942
10.551
10.7033
10.851
10.9938
11.1312
11.2634
11.3853
11.513
11.5687
-6.98785
-6.99255
-6.99989
-7.00674
-7.01243
-7.01736
-7.02186
-7.02611
-7.03026
-7.03447
-7.03885
-7.04349
-7.04847
-7.05386
-7.05971
-7.06608
-7.073
-7.08052
-7.08866
-7.09746
-7.10694
-7.11712
-7.12802
-7.13965
-7.15204
-7.16519
-7.17911
-7.19379
-7.20925
-7.22549
-7.2425
-7.26027
-7.27881
-7.2981
-7.31814
-7.3389
-7.36038
-7.38255
-7.40538
-7.42886
-7.45296
-7.47766
-7.50292
-7.52872
-7.55502
-7.58178
-7.60895
-7.63648
-7.66432
-7.6924
-7.72066
-7.74904
-7.77747
-7.80587
-7.83415
-7.86222
-7.88998
-7.91733
-7.94415
-7.97031
-7.9957
-8.02018
-8.0436
-8.06583
-8.0867
-8.10607
-8.12377
-8.13963
-8.15349
-8.16515
-8.17444
-8.18118
-8.18517
-8.18623
-8.18416
-8.17877
-8.16985
-8.15722
-8.14067
-8.12001
-8.09504
-8.06557
-8.0314
-7.99236
-7.94825
-7.8989
-7.84413
-7.78377
-7.71767
-7.64567
-7.56764
-7.48344
-7.39292
-7.29598
-7.1925
-7.08239
-6.96557
-6.84196
-6.7115
-6.57414
-6.42985
-6.27861
-6.1204
-5.95524
-5.78315
-5.60416
-5.41833
-5.22572
-5.02642
-4.82052
-4.60814
-4.38942
-4.16449
-3.93352
-3.6967
-3.45421
-3.20626
-2.95308
-2.69492
-2.43202
-2.16467
-1.89315
-1.61776
-1.33881
-1.05664
-0.771607
-0.484034
-0.194266
0.097319
0.390361
0.684544
0.97953
1.27489
1.57025
1.86528
2.15965
2.45303
2.7451
3.03555
3.3241
3.61045
3.89435
4.17553
4.45376
4.72879
5.00044
5.26848
5.53275
5.79307
6.0493
6.30129
6.54894
6.79216
7.03085
7.26497
7.49446
7.71929
7.93945
8.15493
8.36572
8.57185
8.77334
8.97021
9.1625
9.35024
9.53348
9.71225
9.88657
10.0565
10.2219
10.3829
10.5394
10.6913
10.8384
10.9804
11.1167
11.2476
11.3675
11.4933
11.5456
-6.99825
-7.00256
-7.00927
-7.01562
-7.02098
-7.02566
-7.02996
-7.03403
-7.03803
-7.04209
-7.04632
-7.05081
-7.05564
-7.06089
-7.06661
-7.07284
-7.07963
-7.08702
-7.09504
-7.10372
-7.11309
-7.12317
-7.13397
-7.14553
-7.15784
-7.17092
-7.18478
-7.19942
-7.21485
-7.23108
-7.24808
-7.26587
-7.28442
-7.30374
-7.32381
-7.34461
-7.36614
-7.38837
-7.41127
-7.43484
-7.45905
-7.48387
-7.50928
-7.53523
-7.56169
-7.58861
-7.61594
-7.64363
-7.67161
-7.69982
-7.7282
-7.75669
-7.78521
-7.81369
-7.84204
-7.87016
-7.89795
-7.9253
-7.95209
-7.97821
-8.00352
-8.02789
-8.05119
-8.07326
-8.09395
-8.11311
-8.13058
-8.14619
-8.15976
-8.17112
-8.1801
-8.1865
-8.19014
-8.19083
-8.18837
-8.18259
-8.17327
-8.16022
-8.14325
-8.12217
-8.09677
-8.06687
-8.03228
-7.99281
-7.94828
-7.89852
-7.84333
-7.78257
-7.71608
-7.6437
-7.5653
-7.48074
-7.38988
-7.2926
-7.1888
-7.07839
-6.96129
-6.83741
-6.7067
-6.56911
-6.42461
-6.27317
-6.11479
-5.94948
-5.77725
-5.59814
-5.41221
-5.21953
-5.02017
-4.81423
-4.60183
-4.3831
-4.15819
-3.92725
-3.69046
-3.44803
-3.20015
-2.94706
-2.68899
-2.4262
-2.15897
-1.88757
-1.61232
-1.33353
-1.05154
-0.766693
-0.479301
-0.189736
0.101619
0.394421
0.688375
0.983099
1.27815
1.57319
1.86789
2.16192
2.45494
2.74664
3.03671
3.32487
3.61082
3.89431
4.17507
4.45288
4.7275
4.99872
5.26634
5.53018
5.79008
6.04588
6.29745
6.54469
6.78749
7.02578
7.2595
7.48861
7.71307
7.93286
8.14799
8.35846
8.56428
8.76548
8.96209
9.15413
9.34165
9.52468
9.70325
9.87738
10.0471
10.2123
10.3731
10.5292
10.6807
10.8272
10.9685
11.1037
11.2332
11.3514
11.4753
11.5249
-7.00953
-7.01342
-7.01945
-7.02519
-7.03006
-7.03434
-7.03825
-7.04197
-7.04563
-7.04936
-7.05327
-7.05746
-7.06201
-7.06698
-7.07244
-7.07842
-7.08498
-7.09215
-7.09997
-7.10846
-7.11765
-7.12757
-7.13824
-7.14966
-7.16186
-7.17484
-7.18861
-7.20318
-7.21855
-7.23472
-7.25168
-7.26944
-7.28798
-7.3073
-7.32738
-7.34821
-7.36977
-7.39205
-7.41504
-7.43871
-7.46303
-7.48796
-7.51347
-7.53951
-7.56605
-7.59304
-7.62042
-7.64813
-7.67612
-7.70433
-7.73268
-7.76112
-7.78958
-7.81797
-7.84621
-7.87419
-7.90181
-7.92897
-7.95555
-7.98142
-8.00645
-8.03053
-8.0535
-8.07522
-8.09554
-8.11431
-8.13137
-8.14655
-8.15968
-8.17059
-8.1791
-8.18503
-8.18819
-8.18839
-8.18545
-8.17917
-8.16936
-8.15582
-8.13836
-8.11679
-8.09092
-8.06055
-8.02549
-7.98556
-7.94059
-7.89039
-7.83479
-7.77362
-7.70675
-7.63401
-7.55526
-7.47036
-7.37918
-7.2816
-7.17753
-7.06687
-6.94953
-6.82544
-6.69454
-6.55678
-6.41214
-6.26058
-6.10211
-5.93672
-5.76444
-5.58531
-5.39938
-5.20671
-5.00738
-4.8015
-4.58919
-4.37055
-4.14576
-3.91495
-3.67832
-3.43605
-3.18835
-2.93545
-2.67759
-2.41503
-2.14803
-1.87688
-1.60189
-1.32338
-1.04169
-0.757126
-0.470042
-0.18082
0.11018
0.402632
0.696241
0.990565
1.28518
1.57978
1.87403
2.1676
2.46015
2.75136
3.04094
3.32859
3.61404
3.89701
4.17726
4.45454
4.72864
4.99934
5.26645
5.52977
5.78916
6.04446
6.29554
6.54228
6.78461
7.02243
7.25569
7.48435
7.70839
7.92778
8.14253
8.35264
8.55812
8.75901
8.95533
9.14712
9.33441
9.51723
9.6956
9.86955
10.039
10.2041
10.3646
10.5204
10.6715
10.8174
10.9579
11.0922
11.2204
11.3369
11.4589
11.5067
-7.02189
-7.02537
-7.0307
-7.03575
-7.03998
-7.04363
-7.04694
-7.05006
-7.05315
-7.05634
-7.05974
-7.06345
-7.06754
-7.07209
-7.07715
-7.08277
-7.08899
-7.09585
-7.10337
-7.11159
-7.12052
-7.1302
-7.14064
-7.15185
-7.16385
-7.17665
-7.19025
-7.20467
-7.21989
-7.23592
-7.25276
-7.2704
-7.28885
-7.30809
-7.32812
-7.34891
-7.37045
-7.39271
-7.41568
-7.43931
-7.46358
-7.48845
-7.51388
-7.53982
-7.56623
-7.59306
-7.62026
-7.64778
-7.67554
-7.7035
-7.7316
-7.75976
-7.78793
-7.816
-7.84388
-7.87149
-7.8987
-7.92542
-7.95153
-7.97692
-8.00145
-8.025
-8.04743
-8.0686
-8.08835
-8.10655
-8.12303
-8.13763
-8.15017
-8.16049
-8.16842
-8.17376
-8.17635
-8.17598
-8.17248
-8.16564
-8.15529
-8.14122
-8.12325
-8.10118
-8.07482
-8.04397
-8.00847
-7.96811
-7.92272
-7.87213
-7.81617
-7.75468
-7.68748
-7.61444
-7.5354
-7.45025
-7.35883
-7.26105
-7.15679
-7.04598
-6.92851
-6.80431
-6.67334
-6.53553
-6.39086
-6.23931
-6.08087
-5.91554
-5.74334
-5.56432
-5.37852
-5.18601
-4.98687
-4.78119
-4.5691
-4.35072
-4.12619
-3.89567
-3.65935
-3.4174
-3.17004
-2.9175
-2.66001
-2.39783
-2.13123
-1.8605
-1.58594
-1.30787
-1.02662
-0.742511
-0.455922
-0.16721
0.123274
0.415235
0.70833
1.00208
1.29609
1.59011
1.88376
2.17672
2.46866
2.75925