/*--------------------------------*- C++ -*----------------------------------*\
  =========                 |
  \\      /  F ield         | OpenFOAM: The Open Source CFD Toolbox
   \\    /   O peration     | Website:  https://openfoam.org
    \\  /    A nd           | Version:  8
     \\/     M anipulation  |
\*---------------------------------------------------------------------------*/
FoamFile
{
    version     2.0;
    format      ascii;
    class       surfaceScalarField;
    location    "265";
    object      phi;
}
// * * * * * * * * * * * * * * * * * * * * * * * * * * * * * * * * * * * * * //

dimensions      [0 3 -1 0 0 0 0];

internalField   nonuniform List<scalar> 
24170
(
3.12889e-06
5.95165e-08
3.04664e-06
8.22487e-08
2.97355e-06
7.30914e-08
2.90491e-06
6.86371e-08
2.84059e-06
6.43198e-08
2.78328e-06
5.73108e-08
2.73397e-06
4.93092e-08
2.69204e-06
4.19337e-08
2.65639e-06
3.56494e-08
2.62597e-06
3.04144e-08
2.59982e-06
2.61547e-08
2.57708e-06
2.27325e-08
2.55712e-06
1.99631e-08
2.53936e-06
1.77635e-08
2.52346e-06
1.58929e-08
2.50854e-06
1.49195e-08
2.49494e-06
1.36002e-08
1.76751e-08
2.47727e-06
3.45314e-06
2.36255e-08
3.45702e-06
7.83692e-08
3.45055e-06
7.95602e-08
3.4391e-06
8.00898e-08
3.42432e-06
7.90948e-08
3.40707e-06
7.45572e-08
3.38786e-06
6.85189e-08
3.36735e-06
6.2448e-08
3.34622e-06
5.67816e-08
3.32505e-06
5.15779e-08
3.30434e-06
4.68629e-08
3.28437e-06
4.27094e-08
3.26532e-06
3.90093e-08
3.24725e-06
3.58373e-08
3.23024e-06
3.2901e-08
3.21417e-06
3.0984e-08
3.19942e-06
2.83534e-08
2.93824e-08
3.18771e-06
3.66826e-06
1.78803e-08
3.67919e-06
6.7442e-08
3.68542e-06
7.33247e-08
3.68947e-06
7.60447e-08
3.69107e-06
7.74921e-08
3.69011e-06
7.55161e-08
3.68698e-06
7.16467e-08
3.68215e-06
6.72773e-08
3.67602e-06
6.29181e-08
3.6689e-06
5.86973e-08
3.66108e-06
5.4686e-08
3.6528e-06
5.09849e-08
3.64425e-06
4.75537e-08
3.63561e-06
4.44813e-08
3.62692e-06
4.15899e-08
3.61855e-06
3.93553e-08
3.61004e-06
3.68618e-08
3.58362e-08
3.60359e-06
3.92587e-06
1.73945e-08
3.93592e-06
5.73933e-08
3.94257e-06
6.66719e-08
3.94812e-06
7.04984e-08
3.95254e-06
7.30717e-08
3.9555e-06
7.25601e-08
3.95718e-06
6.99675e-08
3.95782e-06
6.66314e-08
3.95762e-06
6.31165e-08
3.95673e-06
5.95915e-08
3.95527e-06
5.61417e-08
3.95338e-06
5.28773e-08
3.95114e-06
4.97924e-08
3.94866e-06
4.69598e-08
3.94597e-06
4.42835e-08
3.94332e-06
4.20036e-08
3.94048e-06
3.97032e-08
3.78571e-08
3.93846e-06
4.20819e-06
1.6327e-08
4.21599e-06
4.95993e-08
4.22169e-06
6.09694e-08
4.2268e-06
6.53902e-08
4.23155e-06
6.83174e-08
4.23553e-06
6.85808e-08
4.23871e-06
6.67898e-08
4.2412e-06
6.41425e-08
4.2431e-06
6.12102e-08
4.24452e-06
5.8179e-08
4.24552e-06
5.51428e-08
4.24618e-06
5.22085e-08
4.24658e-06
4.93968e-08
4.24678e-06
4.67617e-08
4.2468e-06
4.42579e-08
4.24681e-06
4.19929e-08
4.24675e-06
3.97683e-08
3.76511e-08
4.24695e-06
4.51069e-06
1.4725e-08
4.51689e-06
4.34008e-08
4.52214e-06
5.57157e-08
4.52696e-06
6.05696e-08
4.53168e-06
6.35985e-08
4.53594e-06
6.43239e-08
4.53962e-06
6.31061e-08
4.54279e-06
6.09689e-08
4.54553e-06
5.84728e-08
4.54789e-06
5.58152e-08
4.54994e-06
5.31008e-08
4.55172e-06
5.04282e-08
4.55328e-06
4.78368e-08
4.55467e-06
4.53652e-08
4.55593e-06
4.29966e-08
4.55716e-06
4.07689e-08
4.55834e-06
3.85802e-08
3.63873e-08
4.55961e-06
4.83431e-06
1.31368e-08
4.83963e-06
3.80766e-08
4.84476e-06
5.05863e-08
4.84947e-06
5.58616e-08
4.85411e-06
5.8959e-08
4.85843e-06
5.99983e-08
4.86232e-06
5.92237e-08
4.86579e-06
5.74916e-08
4.86892e-06
5.53429e-08
4.87175e-06
5.29866e-08
4.87432e-06
5.05351e-08
4.87666e-06
4.8081e-08
4.87883e-06
4.56738e-08
4.88085e-06
4.33436e-08
4.88276e-06
4.10875e-08
4.88461e-06
3.89114e-08
4.88644e-06
3.67583e-08
3.45708e-08
4.88825e-06
5.18103e-06
1.16857e-08
5.18576e-06
3.33519e-08
5.19076e-06
4.55794e-08
5.19542e-06
5.12048e-08
5.20001e-06
5.43666e-08
5.20438e-06
5.56309e-08
5.20838e-06
5.52176e-08
5.21205e-06
5.38291e-08
5.21541e-06
5.19763e-08
5.21852e-06
4.98786e-08
5.2214e-06
4.76543e-08
5.22409e-06
4.5392e-08
5.22662e-06
4.31462e-08
5.22902e-06
4.0944e-08
5.23132e-06
3.87894e-08
5.23355e-06
3.66772e-08
5.23573e-06
3.45728e-08
3.24341e-08
5.23787e-06
5.55268e-06
1.03388e-08
5.55689e-06
2.91454e-08
5.5617e-06
4.07676e-08
5.56632e-06
4.65905e-08
5.57089e-06
4.97957e-08
5.5753e-06
5.12179e-08
5.57941e-06
5.11033e-08
5.58323e-06
5.00176e-08
5.58677e-06
4.8429e-08
5.59009e-06
4.65647e-08
5.59319e-06
4.45462e-08
5.59613e-06
4.24605e-08
5.59891e-06
4.03638e-08
5.60157e-06
3.82841e-08
5.60413e-06
3.6229e-08
5.60661e-06
3.41935e-08
5.60903e-06
3.21559e-08
3.00948e-08
5.61137e-06
5.95104e-06
9.07973e-09
5.95479e-06
2.53935e-08
5.95936e-06
3.61901e-08
5.96392e-06
4.20296e-08
5.96848e-06
4.52424e-08
5.97293e-06
4.6766e-08
5.97714e-06
4.68915e-08
5.98109e-06
4.6072e-08
5.98479e-06
4.47235e-08
5.98828e-06
4.30746e-08
5.99158e-06
4.12491e-08
5.99471e-06
3.93319e-08
5.99769e-06
3.73798e-08
6.00055e-06
3.54229e-08
6.00331e-06
3.34725e-08
6.00597e-06
3.15276e-08
6.00855e-06
2.95764e-08
2.7615e-08
6.01103e-06
6.37798e-06
7.91005e-09
6.38135e-06
2.20287e-08
6.38568e-06
3.18578e-08
6.39017e-06
3.7539e-08
6.3947e-06
4.07126e-08
6.39918e-06
4.22874e-08
6.40347e-06
4.25947e-08
6.40754e-06
4.20032e-08
6.41139e-06
4.08722e-08
6.41504e-06
3.94237e-08
6.41851e-06
3.77818e-08
6.42181e-06
3.6029e-08
6.42497e-06
3.42217e-08
6.428e-06
3.23923e-08
6.43092e-06
3.05559e-08
6.43373e-06
2.87167e-08
6.43643e-06
2.68707e-08
2.50271e-08
6.43902e-06
5.74176e-06
6.9842e-09
5.74434e-06
1.9445e-08
5.74782e-06
2.83856e-08
5.75155e-06
3.38074e-08
5.75535e-06
3.69059e-08
5.75915e-06
3.84905e-08
5.76284e-06
3.89072e-08
5.76636e-06
3.84767e-08
5.76972e-06
3.75119e-08
5.77293e-06
3.6222e-08
5.77598e-06
3.4729e-08
5.77889e-06
3.31134e-08
5.78168e-06
3.14306e-08
5.78436e-06
2.97145e-08
5.78693e-06
2.79831e-08
5.78941e-06
2.6245e-08
5.79178e-06
2.45012e-08
2.277e-08
5.79403e-06
6.99914e-06
6.00057e-09
7.00187e-06
1.67113e-08
7.00564e-06
2.46185e-08
7.00981e-06
2.96367e-08
7.01413e-06
3.25814e-08
7.01849e-06
3.41316e-08
7.02277e-06
3.46286e-08
7.0269e-06
3.4347e-08
7.03086e-06
3.35504e-08
7.03466e-06
3.24289e-08
7.03828e-06
3.10998e-08
7.04176e-06
2.96398e-08
7.04509e-06
2.81028e-08
7.04828e-06
2.65236e-08
7.05134e-06
2.49228e-08
7.05427e-06
2.33135e-08
7.05707e-06
2.17009e-08
2.01096e-08
7.05973e-06
8.53188e-06
4.96704e-09
8.53474e-06
1.38546e-08
8.53877e-06
2.05842e-08
8.54337e-06
2.50343e-08
8.54823e-06
2.77211e-08
8.55319e-06
2.91738e-08
8.55811e-06
2.97054e-08
8.56291e-06
2.95469e-08
8.56755e-06
2.89115e-08
8.57202e-06
2.79638e-08
8.57631e-06
2.68118e-08
8.58042e-06
2.55271e-08
8.58436e-06
2.41601e-08
8.58814e-06
2.27456e-08
8.59175e-06
2.13063e-08
8.59521e-06
1.98583e-08
8.5985e-06
1.84102e-08
1.69901e-08
8.60162e-06
1.04003e-05
3.89288e-09
1.04033e-05
1.08945e-08
1.04075e-05
1.63049e-08
1.04126e-05
2.00095e-08
1.0418e-05
2.23094e-08
1.04236e-05
2.35811e-08
1.04292e-05
2.40851e-08
1.04347e-05
2.40089e-08
1.04401e-05
2.35168e-08
1.04453e-05
2.27418e-08
1.04504e-05
2.17776e-08
1.04552e-05
2.06875e-08
1.04599e-05
1.95171e-08
1.04643e-05
1.82989e-08
1.04685e-05
1.70561e-08
1.04726e-05
1.5806e-08
1.04765e-05
1.45591e-08
1.33441e-08
1.04801e-05
1.26779e-05
2.78315e-09
1.2681e-05
7.82568e-09
1.26855e-05
1.17795e-08
1.26909e-05
1.45573e-08
1.26969e-05
1.63199e-08
1.27032e-05
1.73059e-08
1.27096e-05
1.77053e-08
1.27159e-05
1.76574e-08
1.27222e-05
1.72797e-08
1.27282e-05
1.667e-08
1.27341e-05
1.59011e-08
1.27398e-05
1.50249e-08
1.27452e-05
1.40788e-08
1.27504e-05
1.3091e-08
1.27554e-05
1.20823e-08
1.27601e-05
1.10694e-08
1.27646e-05
1.00624e-08
9.08831e-09
1.27689e-05
1.54543e-05
1.62726e-09
1.54576e-05
4.60254e-09
1.54624e-05
6.95114e-09
1.54683e-05
8.61882e-09
1.5475e-05
9.68014e-09
1.5482e-05
1.02598e-08
1.54892e-05
1.04673e-08
1.54965e-05
1.03867e-08
1.55037e-05
1.00885e-08
1.55107e-05
9.63262e-09
1.55176e-05
9.06597e-09
1.55242e-05
8.42345e-09
1.55305e-05
7.73136e-09
1.55366e-05
7.01011e-09
1.55424e-05
6.27563e-09
1.55479e-05
5.54101e-09
1.55532e-05
4.81435e-09
4.11856e-09
1.55582e-05
1.88389e-05
3.85354e-10
1.88424e-05
1.10109e-09
1.88477e-05
1.64669e-09
1.88543e-05
2.00406e-09
1.88618e-05
2.19365e-09
1.88698e-05
2.24285e-09
1.88781e-05
2.17362e-09
1.88865e-05
2.00577e-09
1.88948e-05
1.75957e-09
1.8903e-05
1.45353e-09
1.89109e-05
1.10315e-09
1.89186e-05
7.2136e-10
1.89261e-05
3.19246e-10
1.89332e-05
-9.36799e-11
1.89399e-05
-5.09309e-10
1.89464e-05
-9.20301e-10
1.89525e-05
-1.3224e-09
-1.69834e-09
1.89584e-05
2.29648e-05
-1.04349e-09
2.29688e-05
-2.96725e-09
2.2975e-05
-4.55274e-09
2.29828e-05
-5.76258e-09
2.29916e-05
-6.61685e-09
2.30011e-05
-7.20212e-09
2.30108e-05
-7.60569e-09
2.30207e-05
-7.88209e-09
2.30305e-05
-8.06797e-09
2.30402e-05
-8.19439e-09
2.30496e-05
-8.28503e-09
2.30587e-05
-8.35419e-09
2.30674e-05
-8.40977e-09
2.30757e-05
-8.45592e-09
2.30837e-05
-8.49473e-09
2.30913e-05
-8.52624e-09
2.30986e-05
-8.5512e-09
-8.55905e-09
2.31054e-05
1.68118e-05
-2.1649e-09
1.6815e-05
-6.13479e-09
1.68198e-05
-9.37821e-09
1.68258e-05
-1.17541e-08
1.68325e-05
-1.33212e-08
1.68396e-05
-1.43077e-08
1.68469e-05
-1.49011e-08
1.68542e-05
-1.52051e-08
1.68615e-05
-1.52986e-08
1.68685e-05
-1.52537e-08
1.68754e-05
-1.5123e-08
1.68819e-05
-1.49393e-08
1.68883e-05
-1.47233e-08
1.68943e-05
-1.44889e-08
1.69e-05
-1.42446e-08
1.69055e-05
-1.39953e-08
1.69107e-05
-1.37442e-08
-1.3485e-08
1.69156e-05
1.46356e-05
-3.24183e-09
1.46387e-05
-9.21817e-09
1.46434e-05
-1.40886e-08
1.46492e-05
-1.74924e-08
1.46555e-05
-1.96014e-08
1.4662e-05
-2.08654e-08
1.46687e-05
-2.15547e-08
1.46753e-05
-2.18053e-08
1.46817e-05
-2.17482e-08
1.4688e-05
-2.14999e-08
1.4694e-05
-2.11359e-08
1.46997e-05
-2.07008e-08
1.47052e-05
-2.02249e-08
1.47105e-05
-1.97293e-08
1.47155e-05
-1.92273e-08
1.47202e-05
-1.87264e-08
1.47247e-05
-1.82316e-08
-1.77389e-08
1.47289e-05
1.27411e-05
-4.25014e-09
1.27443e-05
-1.23421e-08
1.27491e-05
-1.89158e-08
1.27547e-05
-2.31341e-08
1.27607e-05
-2.55762e-08
1.27669e-05
-2.70169e-08
1.2773e-05
-2.77189e-08
1.2779e-05
-2.78317e-08
1.27849e-05
-2.75623e-08
1.27904e-05
-2.7076e-08
1.27958e-05
-2.64625e-08
1.28008e-05
-2.57731e-08
1.28057e-05
-2.5045e-08
1.28102e-05
-2.43038e-08
1.28146e-05
-2.3565e-08
1.28187e-05
-2.28368e-08
1.28226e-05
-2.21243e-08
-2.14247e-08
1.28263e-05
1.10918e-05
-5.09129e-09
1.1095e-05
-1.55608e-08
1.11001e-05
-2.40397e-08
1.11057e-05
-2.87552e-08
1.11115e-05
-3.13066e-08
1.11173e-05
-3.28241e-08
1.1123e-05
-3.34395e-08
1.11285e-05
-3.33347e-08
1.11337e-05
-3.28122e-08
1.11387e-05
-3.20693e-08
1.11435e-05
-3.11977e-08
1.1148e-05
-3.02541e-08
1.11522e-05
-2.92815e-08
1.11562e-05
-2.83085e-08
1.116e-05
-2.73505e-08
1.11636e-05
-2.64155e-08
1.11669e-05
-2.55075e-08
-2.46245e-08
1.11701e-05
9.65581e-06
-5.69007e-09
9.65924e-06
-1.89873e-08
9.66458e-06
-2.93839e-08
9.67008e-06
-3.42493e-08
9.67563e-06
-3.68594e-08
9.68118e-06
-3.83766e-08
9.68651e-06
-3.87643e-08
9.69153e-06
-3.83539e-08
9.69626e-06
-3.75477e-08
9.70073e-06
-3.65399e-08
9.70494e-06
-3.54094e-08
9.7089e-06
-3.42156e-08
9.71263e-06
-3.30061e-08
9.71613e-06
-3.18105e-08
9.71942e-06
-3.06438e-08
9.72252e-06
-2.95132e-08
9.72544e-06
-2.84208e-08
-2.73629e-08
9.72817e-06
8.4053e-06
-5.63585e-09
8.40963e-06
-2.33231e-08
8.41487e-06
-3.46192e-08
8.41989e-06
-3.92733e-08
8.42525e-06
-4.22195e-08
8.43065e-06
-4.37776e-08
8.43573e-06
-4.38422e-08
8.44043e-06
-4.30517e-08
8.44479e-06
-4.19082e-08
8.44884e-06
-4.05877e-08
8.45259e-06
-3.91602e-08
8.45606e-06
-3.76879e-08
8.45927e-06
-3.62203e-08
8.46225e-06
-3.47853e-08
8.465e-06
-3.33979e-08
8.46755e-06
-3.20645e-08
8.46992e-06
-3.07869e-08
-2.95617e-08
8.47212e-06
7.3145e-06
-2.85229e-09
7.32119e-06
-3.00114e-08
7.32674e-06
-4.01709e-08
7.33169e-06
-4.42182e-08
7.33708e-06
-4.76116e-08
7.34239e-06
-4.90922e-08
7.34726e-06
-4.8713e-08
7.35167e-06
-4.74571e-08
7.35564e-06
-4.58785e-08
7.35918e-06
-4.41352e-08
7.36233e-06
-4.23085e-08
7.36512e-06
-4.04707e-08
7.36757e-06
-3.86744e-08
7.36973e-06
-3.69439e-08
7.37162e-06
-3.52942e-08
7.37329e-06
-3.37285e-08
7.37475e-06
-3.22468e-08
-3.08398e-08
7.37603e-06
6.36243e-06
4.78058e-09
6.37189e-06
-3.94734e-08
6.37932e-06
-4.75942e-08
6.38595e-06
-5.08524e-08
6.39223e-06
-5.3889e-08
6.39754e-06
-5.44003e-08
6.40183e-06
-5.30016e-08
6.4053e-06
-5.09315e-08
6.40809e-06
-4.86722e-08
6.41027e-06
-4.63132e-08
6.4119e-06
-4.3934e-08
6.41304e-06
-4.16109e-08
6.41376e-06
-3.93945e-08
6.41412e-06
-3.73035e-08
6.41417e-06
-3.53504e-08
6.41398e-06
-3.35331e-08
6.41358e-06
-3.1852e-08
-3.02859e-08
6.41303e-06
5.54129e-06
8.95206e-09
5.55032e-06
-4.85022e-08
5.55833e-06
-5.56061e-08
5.56604e-06
-5.85566e-08
5.57249e-06
-6.03468e-08
5.57682e-06
-5.87219e-08
5.57905e-06
-5.52384e-08
5.57961e-06
-5.1486e-08
5.57885e-06
-4.79138e-08
5.57706e-06
-4.45223e-08
5.57446e-06
-4.13347e-08
5.57124e-06
-3.83916e-08
5.56755e-06
-3.57011e-08
5.5635e-06
-3.32571e-08
5.5592e-06
-3.10515e-08
5.55474e-06
-2.9073e-08
5.55021e-06
-2.73222e-08
-2.57455e-08
5.54567e-06
4.86019e-06
-2.36309e-08
4.86538e-06
-5.36929e-08
4.86523e-06
-5.54563e-08
4.86217e-06
-5.54921e-08
4.85699e-06
-5.51725e-08
4.84949e-06
-5.12166e-08
4.83979e-06
-4.55422e-08
4.82839e-06
-4.00891e-08
4.81581e-06
-3.53319e-08
4.80253e-06
-3.1239e-08
4.78892e-06
-2.77312e-08
4.77528e-06
-2.47486e-08
4.76179e-06
-2.22112e-08
4.74859e-06
-2.00534e-08
4.73575e-06
-1.82194e-08
4.72337e-06
-1.66854e-08
4.71153e-06
-1.54881e-08
-1.51382e-08
4.70092e-06
4.17905e-06
4.12535e-06
4.0699e-06
4.0144e-06
3.95923e-06
3.90801e-06
3.86247e-06
3.82238e-06
3.78705e-06
3.75581e-06
3.72808e-06
3.70333e-06
3.68112e-06
3.66107e-06
3.64285e-06
3.62616e-06
3.61067e-06
3.59554e-06
1.13759e-08
-1.13808e-08
2.46534e-08
-1.32858e-08
3.39078e-08
-9.25991e-09
3.77628e-08
-3.86152e-09
3.62282e-08
1.53053e-09
3.00155e-08
6.20727e-09
2.01322e-08
9.8804e-09
7.52286e-09
1.26049e-08
-7.08784e-09
1.46086e-08
-2.32465e-08
1.61554e-08
-4.06647e-08
1.74167e-08
-5.91728e-08
1.85062e-08
-7.86794e-08
1.95053e-08
-9.91335e-08
2.04538e-08
-1.20503e-07
2.13676e-08
-1.42752e-07
2.2251e-08
-1.65856e-07
2.31029e-08
-1.89774e-07
2.39211e-08
-2.14479e-07
2.47034e-08
-2.39925e-07
2.545e-08
-2.66089e-07
2.61619e-08
-2.9293e-07
2.68434e-08
-3.2043e-07
2.74999e-08
-3.48569e-07
2.81403e-08
-3.77348e-07
2.87793e-08
-4.06775e-07
2.9433e-08
-4.36873e-07
3.00989e-08
-4.67615e-07
3.07582e-08
-4.99022e-07
3.14087e-08
-5.30957e-07
3.19589e-08
-5.63353e-07
3.23948e-08
-5.96061e-07
3.27321e-08
-6.28729e-07
3.26621e-08
-6.6209e-07
3.33741e-08
-6.99099e-07
3.69941e-08
-7.40581e-07
4.14801e-08
-7.84508e-07
4.3902e-08
-8.22517e-07
3.79891e-08
-8.59925e-07
3.7379e-08
-9.05056e-07
4.51067e-08
-9.49412e-07
4.43334e-08
-9.89289e-07
3.98565e-08
-1.0295e-06
4.01916e-08
-1.07253e-06
4.30141e-08
-1.11591e-06
4.33757e-08
-1.15956e-06
4.36369e-08
-1.20335e-06
4.37845e-08
-1.24721e-06
4.38451e-08
-1.29103e-06
4.38155e-08
-1.33476e-06
4.37172e-08
-1.37834e-06
4.3567e-08
-1.42173e-06
4.33789e-08
-1.4649e-06
4.31627e-08
-1.50784e-06
4.29235e-08
-1.55052e-06
4.26654e-08
-1.59292e-06
4.23885e-08
-1.63502e-06
4.20944e-08
-1.67682e-06
4.1781e-08
-1.71828e-06
4.14487e-08
-1.75938e-06
4.10941e-08
-1.80011e-06
4.0717e-08
-1.84044e-06
4.03141e-08
-1.88032e-06
3.98849e-08
-1.91976e-06
3.94257e-08
-1.9587e-06
3.89362e-08
-1.99713e-06
3.84129e-08
-2.03498e-06
3.78558e-08
-2.07226e-06
3.72616e-08
-2.10889e-06
3.66307e-08
-2.14486e-06
3.596e-08
-2.18011e-06
3.52503e-08
-2.21462e-06
3.44987e-08
-2.24832e-06
3.37064e-08
-2.2812e-06
3.28707e-08
-2.3132e-06
3.19932e-08
-2.34428e-06
3.10715e-08
-2.37439e-06
3.01076e-08
-2.4035e-06
2.90998e-08
-2.43155e-06
2.80502e-08
-2.45852e-06
2.69566e-08
-2.48434e-06
2.58214e-08
-2.509e-06
2.46431e-08
-2.53242e-06
2.3424e-08
-2.55459e-06
2.21618e-08
-2.57545e-06
2.08591e-08
-2.59497e-06
1.95138e-08
-2.61309e-06
1.8128e-08
-2.62979e-06
1.66988e-08
-2.64501e-06
1.52259e-08
-2.6587e-06
1.37056e-08
-2.67082e-06
1.21318e-08
-2.68131e-06
1.04985e-08
-2.69011e-06
8.79884e-09
-2.69713e-06
7.02272e-09
-2.70228e-06
5.15361e-09
-2.70546e-06
3.17981e-09
-2.7066e-06
1.14097e-09
-2.70578e-06
-8.21152e-10
-2.70319e-06
-2.59225e-09
-2.69895e-06
-4.24115e-09
-2.69309e-06
-5.86482e-09
-2.68561e-06
-7.48613e-09
-2.6765e-06
-9.11289e-09
-2.66577e-06
-1.0747e-08
-2.65339e-06
-1.2386e-08
-2.63937e-06
-1.40296e-08
-2.6237e-06
-1.56743e-08
-2.60639e-06
-1.73198e-08
-2.58743e-06
-1.89626e-08
-2.56683e-06
-2.06024e-08
-2.54459e-06
-2.22356e-08
-2.52073e-06
-2.38617e-08
-2.49524e-06
-2.54771e-08
-2.46815e-06
-2.70807e-08
-2.43947e-06
-2.86692e-08
-2.40922e-06
-3.02411e-08
-2.37741e-06
-3.17933e-08
-2.34408e-06
-3.3324e-08
-2.30923e-06
-3.48297e-08
-2.27291e-06
-3.63082e-08
-2.23513e-06
-3.77564e-08
-2.19594e-06
-3.91713e-08
-2.15537e-06
-4.05507e-08
-2.11345e-06
-4.18916e-08
-2.07024e-06
-4.31928e-08
-2.02576e-06
-4.4451e-08
-1.98007e-06
-4.56665e-08
-1.93321e-06
-4.68358e-08
-1.88523e-06
-4.79609e-08
-1.83617e-06
-4.90377e-08
-1.78609e-06
-5.00582e-08
-1.73506e-06
-5.10164e-08
-1.68313e-06
-5.19248e-08
-1.63034e-06
-5.27797e-08
-1.57676e-06
-5.35779e-08
-1.52245e-06
-5.43146e-08
-1.46747e-06
-5.49935e-08
-1.41188e-06
-5.56124e-08
-1.35573e-06
-5.61743e-08
-1.29909e-06
-5.66771e-08
-1.24201e-06
-5.71223e-08
-1.18454e-06
-5.75094e-08
-1.12674e-06
-5.78386e-08
-1.06867e-06
-5.8111e-08
-1.01038e-06
-5.83279e-08
-9.51919e-07
-5.84909e-08
-8.9335e-07
-5.86011e-08
-8.34718e-07
-5.86607e-08
-7.76074e-07
-5.86706e-08
-7.17463e-07
-5.86338e-08
-6.58931e-07
-5.85515e-08
-6.0052e-07
-5.84274e-08
-5.42268e-07
-5.82631e-08
-4.84214e-07
-5.80626e-08
-4.26391e-07
-5.78274e-08
-3.68829e-07
-5.75623e-08
-3.11557e-07
-5.72674e-08
-2.54601e-07
-5.69473e-08
-1.97986e-07
-5.66012e-08
-1.41735e-07
-5.62328e-08
-8.58727e-08
-5.5839e-08
-3.04717e-08
-5.53742e-08
2.44038e-08
-5.48434e-08
7.87654e-08
-5.43272e-08
1.32601e-07
-5.37973e-08
1.85914e-07
-5.32721e-08
2.38766e-07
-5.28078e-08
2.91206e-07
-5.23942e-08
3.43271e-07
-5.20148e-08
3.94982e-07
-5.16592e-08
4.46344e-07
-5.13075e-08
4.97338e-07
-5.09379e-08
5.47904e-07
-5.05065e-08
5.97908e-07
-4.99421e-08
6.47074e-07
-4.91018e-08
6.94834e-07
-4.76936e-08
7.3995e-07
-4.50483e-08
7.79372e-07
-3.93558e-08
8.05634e-07
-2.61997e-08
1.7576e-08
7.88108e-07
8.8553e-09
-2.02404e-08
1.1514e-08
-1.59503e-08
9.47878e-09
-7.22806e-09
4.25473e-09
1.35928e-09
-3.51531e-09
9.29839e-09
-1.3655e-08
1.63444e-08
-2.61238e-08
2.23477e-08
-4.0819e-08
2.72981e-08
-5.75324e-08
3.13208e-08
-7.59946e-08
3.46161e-08
-9.59688e-08
3.73899e-08
-1.17278e-07
3.98144e-08
-1.39789e-07
4.2015e-08
-1.63408e-07
4.40731e-08
-1.88079e-07
4.60373e-08
-2.13761e-07
4.79344e-08
-2.40438e-07
4.97793e-08
-2.68097e-07
5.15808e-08
-2.96739e-07
5.33458e-08
-3.26369e-07
5.50813e-08
-3.57004e-07
5.67959e-08
-3.8866e-07
5.84994e-08
-4.21363e-07
6.02023e-08
-4.55137e-07
6.19152e-08
-4.90006e-07
6.36476e-08
-5.25978e-07
6.54074e-08
-5.63082e-07
6.72031e-08
-6.01363e-07
6.9048e-08
-6.40892e-07
7.09397e-08
-6.81753e-07
7.28321e-08
-7.24037e-07
7.46816e-08
-7.67779e-07
7.64864e-08
-8.13433e-07
7.83153e-08
-8.6058e-07
8.05265e-08
-9.06872e-07
8.32785e-08
-9.51062e-07
8.56642e-08
-9.93801e-07
8.66271e-08
-1.04134e-06
8.55154e-08
-1.08904e-06
8.50656e-08
-1.13041e-06
8.6461e-08
-1.17211e-06
8.60229e-08
-1.21684e-06
8.45696e-08
-1.26096e-06
8.43046e-08
-1.30264e-06
8.46802e-08
-1.34384e-06
8.45693e-08
-1.38449e-06
8.4281e-08
-1.42463e-06
8.39191e-08
-1.4643e-06
8.3509e-08
-1.50354e-06
8.30561e-08
-1.5424e-06
8.25631e-08
-1.58087e-06
8.20342e-08
-1.61897e-06
8.14734e-08
-1.6567e-06
8.0884e-08
-1.69405e-06
8.02671e-08
-1.73102e-06
7.96228e-08
-1.76759e-06
7.89497e-08
-1.80374e-06
7.82457e-08
-1.83948e-06
7.75077e-08
-1.87477e-06
7.67327e-08
-1.9096e-06
7.59167e-08
-1.94394e-06
7.50565e-08
-1.97779e-06
7.4148e-08
-2.01109e-06
7.3188e-08
-2.04385e-06
7.21726e-08
-2.07601e-06
7.10989e-08
-2.10757e-06
6.99634e-08
-2.13848e-06
6.87637e-08
-2.16872e-06
6.74968e-08
-2.19826e-06
6.61611e-08
-2.22705e-06
6.4754e-08
-2.25508e-06
6.32744e-08
-2.28231e-06
6.17202e-08
-2.30869e-06
6.0091e-08
-2.33421e-06
5.83851e-08
-2.35882e-06
5.66026e-08
-2.3825e-06
5.47425e-08
-2.4052e-06
5.28056e-08
-2.4269e-06
5.07914e-08
-2.44755e-06
4.87008e-08
-2.46713e-06
4.65334e-08
-2.4856e-06
4.42907e-08
-2.50294e-06
4.19727e-08
-2.5191e-06
3.95807e-08
-2.53405e-06
3.71148e-08
-2.54777e-06
3.45766e-08
-2.56023e-06
3.19662e-08
-2.57138e-06
2.92854e-08
-2.58122e-06
2.6534e-08
-2.5897e-06
2.3713e-08
-2.59681e-06
2.08214e-08
-2.60253e-06
1.78586e-08
-2.60685e-06
1.48256e-08
-2.60978e-06
1.17247e-08
-2.61131e-06
8.56145e-09
-2.61151e-06
5.34765e-09
-2.61044e-06
2.11449e-09
-2.60821e-06
-1.09098e-09
-2.60478e-06
-4.25405e-09
-2.59997e-06
-7.4089e-09
-2.59363e-06
-1.05793e-08
-2.58573e-06
-1.37669e-08
-2.57625e-06
-1.6972e-08
-2.56518e-06
-2.01947e-08
-2.5525e-06
-2.34326e-08
-2.53821e-06
-2.66823e-08
-2.5223e-06
-2.994e-08
-2.50478e-06
-3.32016e-08
-2.48564e-06
-3.64633e-08
-2.46489e-06
-3.97211e-08
-2.44252e-06
-4.29714e-08
-2.41854e-06
-4.62097e-08
-2.39297e-06
-4.94323e-08
-2.36581e-06
-5.26344e-08
-2.33707e-06
-5.58119e-08
-2.30677e-06
-5.89597e-08
-2.27493e-06
-6.20738e-08
-2.24157e-06
-6.51488e-08
-2.2067e-06
-6.81802e-08
-2.17036e-06
-7.11622e-08
-2.13257e-06
-7.40897e-08
-2.09336e-06
-7.69568e-08
-2.05276e-06
-7.97582e-08
-2.01081e-06
-8.24883e-08
-1.96754e-06
-8.51422e-08
-1.92301e-06
-8.77151e-08
-1.87724e-06
-9.02026e-08
-1.83029e-06
-9.26017e-08
-1.7822e-06
-9.49097e-08
-1.73302e-06
-9.71265e-08
-1.6828e-06
-9.92465e-08
-1.63159e-06
-1.01255e-07
-1.57946e-06
-1.03145e-07
-1.52644e-06
-1.04929e-07
-1.47261e-06
-1.06607e-07
-1.41802e-06
-1.0817e-07
-1.36273e-06
-1.09612e-07
-1.30679e-06
-1.10937e-07
-1.25027e-06
-1.12145e-07
-1.19322e-06
-1.13236e-07
-1.13571e-06
-1.14212e-07
-1.07778e-06
-1.15071e-07
-1.0195e-06
-1.15816e-07
-9.60914e-07
-1.16446e-07
-9.02081e-07
-1.16963e-07
-8.43058e-07
-1.1737e-07
-7.83896e-07
-1.1767e-07
-7.24648e-07
-1.17865e-07
-6.65364e-07
-1.17959e-07
-6.06092e-07
-1.17956e-07
-5.46879e-07
-1.17858e-07
-4.87768e-07
-1.17672e-07
-4.288e-07
-1.17402e-07
-3.70014e-07
-1.17055e-07
-3.11445e-07
-1.16634e-07
-2.53126e-07
-1.16149e-07
-1.95084e-07
-1.15603e-07
-1.37347e-07
-1.15002e-07
-7.99363e-08
-1.14351e-07
-2.28769e-08
-1.13653e-07
3.38095e-08
-1.12908e-07
9.01117e-08
-1.12129e-07
1.46056e-07
-1.11303e-07
2.01661e-07
-1.10432e-07
2.56872e-07
-1.09518e-07
3.1168e-07
-1.08586e-07
3.66126e-07
-1.07694e-07
4.20226e-07
-1.06883e-07
4.74006e-07
-1.06147e-07
5.2749e-07
-1.0547e-07
5.80692e-07
-1.04829e-07
6.33612e-07
-1.04195e-07
6.86225e-07
-1.03515e-07
7.38465e-07
-1.0271e-07
7.90196e-07
-1.01633e-07
8.41148e-07
-1.00013e-07
8.90824e-07
-9.73242e-08
9.38201e-07
-9.23811e-08
9.81699e-07
-8.28078e-08
1.01787e-06
-6.23243e-08
-1.19665e-08
1.04745e-06
-1.29497e-10
-2.0114e-08
-6.47119e-09
-9.6123e-09
-1.54139e-08
1.71265e-09
-2.60119e-08
1.19554e-08
-3.79512e-08
2.12364e-08
-5.11968e-08
2.95886e-08
-6.58383e-08
3.69882e-08
-8.19785e-08
4.34371e-08
-9.96623e-08
4.90039e-08
-1.18864e-07
5.38169e-08
-1.39507e-07
5.80323e-08
-1.61496e-07
6.18024e-08
-1.84738e-07
6.52561e-08
-2.09156e-07
6.84911e-08
-2.34696e-07
7.15765e-08
-2.6132e-07
7.45587e-08
-2.89008e-07
7.7468e-08
-3.17752e-07
8.03246e-08
-3.47549e-07
8.31432e-08
-3.78402e-07
8.59349e-08
-4.10316e-07
8.8709e-08
-4.4329e-07
9.14736e-08
-4.77324e-07
9.42348e-08
-5.12406e-07
9.69969e-08
-5.48522e-07
9.97616e-08
-5.8564e-07
1.02526e-07
-6.23719e-07
1.05281e-07
-6.62672e-07
1.08005e-07
-7.02395e-07
1.10663e-07
-7.42761e-07
1.13205e-07
-7.83662e-07
1.15584e-07
-8.24935e-07
1.17767e-07
-8.6638e-07
1.19759e-07
-9.0749e-07
1.21639e-07
-9.47554e-07
1.23338e-07
-9.86371e-07
1.24477e-07
-1.02455e-06
1.248e-07
-1.06356e-06
1.24514e-07
-1.10258e-06
1.24078e-07
-1.13988e-06
1.2375e-07
-1.17687e-06
1.23004e-07
-1.21441e-06
1.22103e-07
-1.25163e-06
1.2152e-07
-1.288e-06
1.21046e-07
-1.32389e-06
1.20448e-07
-1.35939e-06
1.19779e-07
-1.39455e-06
1.19074e-07
-1.42939e-06
1.18346e-07
-1.46393e-06
1.17595e-07
-1.4982e-06
1.16821e-07
-1.53219e-06
1.16021e-07
-1.56591e-06
1.15193e-07
-1.59937e-06
1.14334e-07
-1.63254e-06
1.13442e-07
-1.66544e-06
1.12513e-07
-1.69804e-06
1.11542e-07
-1.73032e-06
1.10526e-07
-1.76228e-06
1.09459e-07
-1.79389e-06
1.08336e-07
-1.82513e-06
1.07152e-07
-1.85598e-06
1.05901e-07
-1.88641e-06
1.04579e-07
-1.91641e-06
1.0318e-07
-1.94594e-06
1.01699e-07
-1.97498e-06
1.00132e-07
-2.00349e-06
9.84748e-08
-2.03145e-06
9.67234e-08
-2.05883e-06
9.48744e-08
-2.0856e-06
9.29248e-08
-2.11172e-06
9.08717e-08
-2.13716e-06
8.87131e-08
-2.16189e-06
8.64468e-08
-2.18587e-06
8.40713e-08
-2.20908e-06
8.15853e-08
-2.23146e-06
7.89882e-08
-2.253e-06
7.62793e-08
-2.27366e-06
7.34589e-08
-2.2934e-06
7.05269e-08
-2.31218e-06
6.74841e-08
-2.32998e-06
6.4331e-08
-2.34676e-06
6.10687e-08
-2.36249e-06
5.76984e-08
-2.37713e-06
5.42216e-08
-2.39066e-06
5.06397e-08
-2.40304e-06
4.69548e-08
-2.41424e-06
4.31689e-08
-2.42424e-06
3.92845e-08
-2.43301e-06
3.53041e-08
-2.44053e-06
3.12303e-08
-2.44677e-06
2.70664e-08
-2.45172e-06
2.28154e-08
-2.45538e-06
1.84827e-08
-2.45773e-06
1.40766e-08
-2.45877e-06
9.60737e-09
-2.45852e-06
5.09091e-09
-2.45695e-06
5.4823e-10
-2.45404e-06
-4.00403e-09
-2.44972e-06
-8.57395e-09
-2.44395e-06
-1.31841e-08
-2.43669e-06
-1.78421e-08
-2.42792e-06
-2.25414e-08
-2.41762e-06
-2.72761e-08
-2.40578e-06
-3.20411e-08
-2.39239e-06
-3.68305e-08
-2.37744e-06
-4.16386e-08
-2.36092e-06
-4.64589e-08
-2.34284e-06
-5.12859e-08
-2.3232e-06
-5.61133e-08
-2.30198e-06
-6.09355e-08
-2.27921e-06
-6.57461e-08
-2.25488e-06
-7.05396e-08
-2.229e-06
-7.53092e-08
-2.20158e-06
-8.00487e-08
-2.17264e-06
-8.47513e-08
-2.14218e-06
-8.94105e-08
-2.11023e-06
-9.40189e-08
-2.07681e-06
-9.85695e-08
-2.04193e-06
-1.03055e-07
-2.00561e-06
-1.07467e-07
-1.9679e-06
-1.11799e-07
-1.92881e-06
-1.16041e-07
-1.88837e-06
-1.20186e-07
-1.84662e-06
-1.24225e-07
-1.80361e-06
-1.2815e-07
-1.75936e-06
-1.31955e-07
-1.71392e-06
-1.35631e-07
-1.66733e-06
-1.39175e-07
-1.61965e-06
-1.42582e-07
-1.57092e-06
-1.45852e-07
-1.52118e-06
-1.48976e-07
-1.47049e-06
-1.51938e-07
-1.4189e-06
-1.54727e-07
-1.36647e-06
-1.57354e-07
-1.31325e-06
-1.59821e-07
-1.25931e-06
-1.62116e-07
-1.20469e-06
-1.64234e-07
-1.14945e-06
-1.66177e-07
-1.09366e-06
-1.67946e-07
-1.03736e-06
-1.69541e-07
-9.80623e-07
-1.70964e-07
-9.23492e-07
-1.72216e-07
-8.66024e-07
-1.73296e-07
-8.08272e-07
-1.74207e-07
-7.50292e-07
-1.74952e-07
-6.92137e-07
-1.75534e-07
-6.33856e-07
-1.75957e-07
-5.75502e-07
-1.76226e-07
-5.17121e-07
-1.76346e-07
-4.5876e-07
-1.76321e-07
-4.00464e-07
-1.76158e-07
-3.42274e-07
-1.75865e-07
-2.84229e-07
-1.75449e-07
-2.26366e-07
-1.74919e-07
-1.68717e-07
-1.74284e-07
-1.11312e-07
-1.73553e-07
-5.4177e-08
-1.72736e-07
2.66628e-09
-1.71843e-07
5.91951e-08
-1.70878e-07
1.15396e-07
-1.6985e-07
1.71261e-07
-1.6877e-07
2.26786e-07
-1.6765e-07
2.81983e-07
-1.66496e-07
3.36873e-07
-1.65317e-07
3.91468e-07
-1.64108e-07
4.45773e-07
-1.62885e-07
4.99795e-07
-1.6171e-07
5.5354e-07
-1.60622e-07
6.07021e-07
-1.59621e-07
6.60254e-07
-1.58695e-07
7.13246e-07
-1.57815e-07
7.65997e-07
-1.56937e-07
8.18478e-07
-1.55988e-07
8.70629e-07
-1.54851e-07
9.22322e-07
-1.53317e-07
9.73328e-07
-1.51009e-07
1.02325e-06
-1.47233e-07
1.07144e-06
-1.40562e-07
1.11703e-06
-1.2839e-07
1.15949e-06
-1.04778e-07
-5.5996e-08
1.20353e-06
-8.18453e-09
-1.1932e-08
-2.04587e-08
2.6592e-09
-3.40067e-08
1.52592e-08
-4.83255e-08
2.62729e-08
-6.33344e-08
3.62443e-08
-7.90925e-08
4.53457e-08
-9.57241e-08
5.36192e-08
-1.1337e-07
6.10816e-08
-1.32142e-07
6.77758e-08
-1.52108e-07
7.37821e-08
-1.73284e-07
7.9208e-08
-1.95652e-07
8.417e-08
-2.19174e-07
8.87776e-08
-2.43807e-07
9.31233e-08
-2.6951e-07
9.72793e-08
-2.96249e-07
1.01298e-07
-3.23999e-07
1.05217e-07
-3.52734e-07
1.0906e-07
-3.82434e-07
1.12844e-07
-4.13075e-07
1.16576e-07
-4.44626e-07
1.2026e-07
-4.77049e-07
1.23895e-07
-5.10291e-07
1.27476e-07
-5.44288e-07
1.30992e-07
-5.78955e-07
1.34427e-07
-6.14188e-07
1.37759e-07
-6.49868e-07
1.40959e-07
-6.8585e-07
1.43989e-07
-7.21992e-07
1.46804e-07
-7.58143e-07
1.4936e-07
-7.94175e-07
1.51617e-07
-8.29954e-07
1.5355e-07
-8.65354e-07
1.55158e-07
-9.00176e-07
1.56461e-07
-9.34278e-07
1.57437e-07
-9.67789e-07
1.57986e-07
-1.00105e-06
1.5806e-07
-1.03432e-06
1.57777e-07
-1.06754e-06
1.57288e-07
-1.10044e-06
1.56644e-07
-1.13322e-06
1.55784e-07
-1.16596e-06
1.54831e-07
-1.1984e-06
1.5396e-07
-1.2305e-06
1.53143e-07
-1.26236e-06
1.52304e-07
-1.29402e-06
1.51435e-07
-1.32549e-06
1.50544e-07
-1.35678e-06
1.49632e-07
-1.38789e-06
1.487e-07
-1.41882e-06
1.47746e-07
-1.44956e-06
1.46764e-07
-1.48012e-06
1.4575e-07
-1.51049e-06
1.44699e-07
-1.54066e-06
1.43604e-07
-1.57061e-06
1.4246e-07
-1.60033e-06
1.4126e-07
-1.6298e-06
1.39998e-07
-1.65901e-06
1.38666e-07
-1.68794e-06
1.37259e-07
-1.71656e-06
1.35768e-07
-1.74485e-06
1.34188e-07
-1.77279e-06
1.32511e-07
-1.80034e-06
1.30732e-07
-1.82749e-06
1.28844e-07
-1.8542e-06
1.26841e-07
-1.88045e-06
1.24719e-07
-1.9062e-06
1.22473e-07
-1.93143e-06
1.20098e-07
-1.9561e-06
1.1759e-07
-1.98017e-06
1.14947e-07
-2.00363e-06
1.12165e-07
-2.02642e-06
1.09241e-07
-2.04853e-06
1.06175e-07
-2.06991e-06
1.02964e-07
-2.09053e-06
9.96071e-08
-2.11035e-06
9.61043e-08
-2.12935e-06
9.24555e-08
-2.14749e-06
8.86608e-08
-2.16473e-06
8.47212e-08
-2.18103e-06
8.06376e-08
-2.19638e-06
7.64117e-08
-2.21073e-06
7.20451e-08
-2.22405e-06
6.75402e-08
-2.23631e-06
6.28993e-08
-2.24748e-06
5.81255e-08
-2.25753e-06
5.32221e-08
-2.26644e-06
4.81927e-08
-2.27418e-06
4.30418e-08
-2.28072e-06
3.77741e-08
-2.28605e-06
3.23943e-08
-2.29014e-06
2.69086e-08
-2.29298e-06
2.13243e-08
-2.29455e-06
1.56505e-08
-2.29485e-06
9.89811e-09
-2.29384e-06
4.07974e-09
-2.2915e-06
-1.7922e-09
-2.28779e-06
-7.71208e-09
-2.28268e-06
-1.36863e-08
-2.27614e-06
-1.97247e-08
-2.26816e-06
-2.58278e-08
-2.25872e-06
-3.19887e-08
-2.2478e-06
-3.81991e-08
-2.2354e-06
-4.44512e-08
-2.2215e-06
-5.07365e-08
-2.20609e-06
-5.70473e-08
-2.18918e-06
-6.33747e-08
-2.17076e-06
-6.97116e-08
-2.15082e-06
-7.60494e-08
-2.12938e-06
-8.23808e-08
-2.10643e-06
-8.86971e-08
-2.08198e-06
-9.4991e-08
-2.05603e-06
-1.01253e-07
-2.0286e-06
-1.07477e-07
-1.9997e-06
-1.13651e-07
-1.96934e-06
-1.19768e-07
-1.93753e-06
-1.25819e-07