/*--------------------------------*- C++ -*----------------------------------*\
  =========                 |
  \\      /  F ield         | OpenFOAM: The Open Source CFD Toolbox
   \\    /   O peration     | Website:  https://openfoam.org
    \\  /    A nd           | Version:  8
     \\/     M anipulation  |
\*---------------------------------------------------------------------------*/
FoamFile
{
    version     2.0;
    format      ascii;
    class       volVectorField;
    location    "265";
    object      U;
}
// * * * * * * * * * * * * * * * * * * * * * * * * * * * * * * * * * * * * * //

dimensions      [0 1 -1 0 0 0 0];

internalField   nonuniform List<vector> 
12225
(
(9.85699 -0.88664 0)
(9.6663 -0.740717 0)
(9.45579 -0.429421 0)
(9.22455 -0.222146 0)
(9.00654 -0.1064 0)
(8.81445 -0.0458187 0)
(8.6476 -0.0151292 0)
(8.50543 0.000485626 0)
(8.38383 0.0084119 0)
(8.28111 0.0122988 0)
(8.19279 0.0139905 0)
(8.11668 0.0150147 0)
(8.0501 0.0153511 0)
(7.99121 0.015576 0)
(7.93847 0.015405 0)
(7.89231 0.0160932 0)
(7.83963 0.0192584 0)
(7.83056 0.00981344 0)
(10.0545 0.227709 0)
(10.1213 0.326963 0)
(10.1196 0.261651 0)
(10.0856 0.18659 0)
(10.0435 0.134695 0)
(9.99676 0.10113 0)
(9.94405 0.07929 0)
(9.88533 0.0645646 0)
(9.824 0.0542513 0)
(9.76152 0.0466559 0)
(9.7001 0.040882 0)
(9.64035 0.0363113 0)
(9.58311 0.0326401 0)
(9.52886 0.0297347 0)
(9.47708 0.0272184 0)
(9.42976 0.0258877 0)
(9.38216 0.0224571 0)
(9.34695 0.0314904 0)
(10.0035 0.0581549 0)
(10.0305 0.0559498 0)
(10.056 0.033774 0)
(10.0704 0.0328858 0)
(10.077 0.0406331 0)
(10.0779 0.0465291 0)
(10.0726 0.0493412 0)
(10.0615 0.0502827 0)
(10.0463 0.0501749 0)
(10.0279 0.0494543 0)
(10.0074 0.0483998 0)
(9.98524 0.0472223 0)
(9.96217 0.046012 0)
(9.93864 0.0449059 0)
(9.91483 0.0437679 0)
(9.89157 0.0432645 0)
(9.8685 0.0422245 0)
(9.84674 0.0436137 0)
(9.99772 0.0109486 0)
(10.0111 0.0266191 0)
(10.035 0.0371212 0)
(10.0525 0.0480639 0)
(10.0644 0.0554322 0)
(10.0735 0.0581633 0)
(10.0796 0.0583301 0)
(10.0825 0.0575837 0)
(10.0829 0.0565283 0)
(10.0814 0.0553238 0)
(10.0783 0.0540389 0)
(10.074 0.0527925 0)
(10.0687 0.0515734 0)
(10.0627 0.0504838 0)
(10.056 0.0494055 0)
(10.0492 0.0487418 0)
(10.0422 0.0478498 0)
(10.0353 0.047694 0)
(9.99935 0.00709988 0)
(10.009 0.0316941 0)
(10.0275 0.0439061 0)
(10.0418 0.0499059 0)
(10.0528 0.0535934 0)
(10.0629 0.0552145 0)
(10.0716 0.0554896 0)
(10.0784 0.0551936 0)
(10.0835 0.0546419 0)
(10.0874 0.053927 0)
(10.0903 0.0531025 0)
(10.0922 0.0522628 0)
(10.0934 0.0514191 0)
(10.0941 0.0506423 0)
(10.0943 0.0498771 0)
(10.0944 0.0493171 0)
(10.0943 0.0486482 0)
(10.0942 0.0481326 0)
(10.0003 0.00914877 0)
(10.0083 0.0312099 0)
(10.0227 0.0409424 0)
(10.035 0.0453823 0)
(10.0451 0.0490214 0)
(10.0548 0.0513502 0)
(10.0638 0.0523239 0)
(10.0715 0.0525485 0)
(10.078 0.0524035 0)
(10.0836 0.0520263 0)
(10.0884 0.0514918 0)
(10.0927 0.0508865 0)
(10.0963 0.0502425 0)
(10.0996 0.0496091 0)
(10.1025 0.0489665 0)
(10.1053 0.0483933 0)
(10.1079 0.0477371 0)
(10.1105 0.0469896 0)
(10.0004 0.00892299 0)
(10.0071 0.0271098 0)
(10.0191 0.0364125 0)
(10.0302 0.0413821 0)
(10.0396 0.0453968 0)
(10.0487 0.0480537 0)
(10.0573 0.0493131 0)
(10.065 0.0497713 0)
(10.0718 0.0498302 0)
(10.0779 0.0496351 0)
(10.0835 0.0492627 0)
(10.0886 0.0487889 0)
(10.0932 0.0482541 0)
(10.0975 0.0476924 0)
(10.1016 0.0470985 0)
(10.1055 0.0464946 0)
(10.1092 0.0457952 0)
(10.113 0.0449239 0)
(10.0004 0.00789987 0)
(10.006 0.0233859 0)
(10.0161 0.0327328 0)
(10.0263 0.0380916 0)
(10.0352 0.0420765 0)
(10.0436 0.0447495 0)
(10.0518 0.0461486 0)
(10.0593 0.046768 0)
(10.066 0.0469725 0)
(10.0722 0.0469061 0)
(10.078 0.0466465 0)
(10.0834 0.0462619 0)
(10.0884 0.045796 0)
(10.0931 0.0452742 0)
(10.0977 0.0446963 0)
(10.102 0.0440593 0)
(10.1063 0.0433079 0)
(10.1105 0.0423698 0)
(10.0004 0.00694991 0)
(10.005 0.0204225 0)
(10.0137 0.0294471 0)
(10.0229 0.0348478 0)
(10.0312 0.0386886 0)
(10.0392 0.0413388 0)
(10.0469 0.042857 0)
(10.0541 0.0436142 0)
(10.0607 0.0439334 0)
(10.0669 0.0439638 0)
(10.0726 0.0437856 0)
(10.0781 0.0434627 0)
(10.0832 0.0430386 0)
(10.0881 0.042535 0)
(10.0928 0.0419536 0)
(10.0973 0.0412836 0)
(10.1017 0.0404859 0)
(10.106 0.0395116 0)
(10.0004 0.00612249 0)
(10.0043 0.0178515 0)
(10.0116 0.0262654 0)
(10.0199 0.0315641 0)
(10.0277 0.0352784 0)
(10.0352 0.0378919 0)
(10.0424 0.0394884 0)
(10.0494 0.040347 0)
(10.0558 0.0407511 0)
(10.0618 0.040853 0)
(10.0675 0.0407338 0)
(10.0729 0.0404539 0)
(10.078 0.0400547 0)
(10.0829 0.0395574 0)
(10.0877 0.038965 0)
(10.0922 0.0382674 0)
(10.0966 0.0374369 0)
(10.1009 0.0364491 0)
(10.0003 0.00536422 0)
(10.0037 0.0155399 0)
(10.0099 0.0232241 0)
(10.0173 0.0283245 0)
(10.0245 0.0318962 0)
(10.0315 0.0344322 0)
(10.0384 0.0360526 0)
(10.045 0.0369738 0)
(10.0512 0.0374371 0)
(10.0571 0.0375902 0)
(10.0627 0.0375136 0)
(10.068 0.0372638 0)
(10.0731 0.0368804 0)
(10.0779 0.0363847 0)
(10.0826 0.035782 0)
(10.087 0.0350661 0)
(10.0914 0.0342193 0)
(10.0956 0.033236 0)
(10.0003 0.00469974 0)
(10.0032 0.0135984 0)
(10.0086 0.0205752 0)
(10.0152 0.0254094 0)
(10.0219 0.0288145 0)
(10.0286 0.0312441 0)
(10.0351 0.0328443 0)
(10.0414 0.0337909 0)
(10.0474 0.0342869 0)
(10.0531 0.0344702 0)
(10.0586 0.0344198 0)
(10.0638 0.0341888 0)
(10.0687 0.033815 0)
(10.0735 0.0333201 0)
(10.0781 0.032712 0)
(10.0825 0.0319892 0)
(10.0867 0.0311412 0)
(10.0907 0.0301769 0)
(10.0003 0.004085 0)
(10.0028 0.0118287 0)
(10.0075 0.0180739 0)
(10.0134 0.0225659 0)
(10.0197 0.0257699 0)
(10.0259 0.0280677 0)
(10.0321 0.0296154 0)
(10.0381 0.0305603 0)
(10.0439 0.0310707 0)
(10.0495 0.0312711 0)
(10.0548 0.0312374 0)
(10.0598 0.0310196 0)
(10.0647 0.0306538 0)
(10.0693 0.0301618 0)
(10.0738 0.0295541 0)
(10.0781 0.0288338 0)
(10.0822 0.0279964 0)
(10.0861 0.0270613 0)
(10.0002 0.00344991 0)
(10.0024 0.00998973 0)
(10.0064 0.0153913 0)
(10.0117 0.0194159 0)
(10.0174 0.0223352 0)
(10.0232 0.0244413 0)
(10.029 0.0258858 0)
(10.0347 0.0267917 0)
(10.0403 0.0272918 0)
(10.0456 0.0274932 0)
(10.0508 0.0274657 0)
(10.0557 0.0272558 0)
(10.0604 0.0268969 0)
(10.0649 0.026411 0)
(10.0693 0.025811 0)
(10.0734 0.0251042 0)
(10.0774 0.0242916 0)
(10.0812 0.0233996 0)
(10.0002 0.00279042 0)
(10.002 0.00807978 0)
(10.0055 0.0125376 0)
(10.0101 0.015965 0)
(10.0153 0.0184974 0)
(10.0206 0.0203368 0)
(10.026 0.0216142 0)
(10.0314 0.0224295 0)
(10.0367 0.0228833 0)
(10.0418 0.0230613 0)
(10.0468 0.0230243 0)
(10.0515 0.0228139 0)
(10.0561 0.0224602 0)
(10.0604 0.0219844 0)
(10.0646 0.0214011 0)
(10.0686 0.020721 0)
(10.0724 0.019949 0)
(10.0761 0.0191153 0)
(10.0002 0.00210592 0)
(10.0017 0.00610082 0)
(10.0047 0.00952142 0)
(10.0088 0.0122182 0)
(10.0134 0.0142449 0)
(10.0183 0.0157249 0)
(10.0233 0.0167568 0)
(10.0283 0.0174161 0)
(10.0333 0.0177742 0)
(10.0382 0.0178946 0)
(10.0429 0.0178256 0)
(10.0475 0.017602 0)
(10.0518 0.0172493 0)
(10.056 0.0167869 0)
(10.0601 0.0162294 0)
(10.0639 0.015589 0)
(10.0675 0.0148728 0)
(10.071 0.0141115 0)
(10.0002 0.0013935 0)
(10.0015 0.00403894 0)
(10.0041 0.00632678 0)
(10.0076 0.00815903 0)
(10.0118 0.00954961 0)
(10.0163 0.0105624 0)
(10.0209 0.0112578 0)
(10.0256 0.0116847 0)
(10.0303 0.0118879 0)
(10.035 0.0119083 0)
(10.0395 0.0117791 0)
(10.0438 0.0115254 0)
(10.048 0.0111668 0)
(10.052 0.0107188 0)
(10.0559 0.0101941 0)
(10.0595 0.00960416 0)
(10.063 0.00895588 0)
(10.0664 0.00827782 0)
(10.0001 0.000636855 0)
(10.0013 0.00184249 0)
(10.0036 0.00288175 0)
(10.0068 0.00370767 0)
(10.0107 0.00432135 0)
(10.0148 0.00474488 0)
(10.0192 0.00500111 0)
(10.0236 0.00510994 0)
(10.0281 0.00509074 0)
(10.0325 0.00496188 0)
(10.0368 0.00473907 0)
(10.041 0.00443517 0)
(10.045 0.00406101 0)
(10.0488 0.00362605 0)
(10.0525 0.00313873 0)
(10.056 0.00260735 0)
(10.0594 0.00203695 0)
(10.0626 0.00145137 0)
(10.0001 -0.000207032 0)
(10.0012 -0.000610255 0)
(10.0034 -0.000986623 0)
(10.0065 -0.00132787 0)
(10.0102 -0.00163268 0)
(10.0143 -0.00191529 0)
(10.0185 -0.00219347 0)
(10.0228 -0.00247929 0)
(10.0271 -0.00277993 0)
(10.0313 -0.00310085 0)
(10.0355 -0.00344614 0)
(10.0395 -0.00381791 0)
(10.0434 -0.0042165 0)
(10.0471 -0.00464096 0)
(10.0507 -0.00508941 0)
(10.0541 -0.00555881 0)
(10.0573 -0.00604775 0)
(10.0604 -0.00653923 0)
(10.0001 -0.00101409 0)
(10.0013 -0.00296318 0)
(10.0037 -0.00470429 0)
(10.007 -0.00615791 0)
(10.0108 -0.00732017 0)
(10.015 -0.00825105 0)
(10.0193 -0.00901183 0)
(10.0237 -0.00964444 0)
(10.028 -0.010183 0)
(10.0323 -0.0106589 0)
(10.0364 -0.0110966 0)
(10.0404 -0.0115126 0)
(10.0443 -0.0119178 0)
(10.0479 -0.0123193 0)
(10.0514 -0.0127218 0)
(10.0548 -0.0131275 0)
(10.058 -0.0135384 0)
(10.061 -0.0139437 0)
(10.0002 -0.00170997 0)
(10.0015 -0.00501782 0)
(10.0041 -0.00795321 0)
(10.0078 -0.0103136 0)
(10.012 -0.01212 0)
(10.0164 -0.0135223 0)
(10.021 -0.0146268 0)
(10.0255 -0.0154903 0)
(10.03 -0.0161695 0)
(10.0343 -0.0167228 0)
(10.0385 -0.0171945 0)
(10.0426 -0.0176129 0)
(10.0464 -0.0179971 0)
(10.0501 -0.0183605 0)
(10.0536 -0.0187124 0)
(10.0569 -0.0190579 0)
(10.0601 -0.0194012 0)
(10.063 -0.0197354 0)
(10.0002 -0.0023707 0)
(10.0016 -0.00704795 0)
(10.0047 -0.0112001 0)
(10.009 -0.014378 0)
(10.0137 -0.0166821 0)
(10.0185 -0.0184232 0)
(10.0233 -0.0197612 0)
(10.0281 -0.0207669 0)
(10.0328 -0.0215216 0)
(10.0373 -0.0221062 0)
(10.0416 -0.0225773 0)
(10.0457 -0.0229711 0)
(10.0495 -0.0233139 0)
(10.0532 -0.0236252 0)
(10.0567 -0.0239179 0)
(10.06 -0.0241995 0)
(10.0632 -0.0244754 0)
(10.0662 -0.0247412 0)
(10.0002 -0.00298867 0)
(10.0018 -0.0091043 0)
(10.0054 -0.0144706 0)
(10.0105 -0.0183673 0)
(10.0159 -0.0211178 0)
(10.0211 -0.0231461 0)
(10.0263 -0.0246075 0)
(10.0314 -0.025627 0)
(10.0362 -0.0263589 0)
(10.0409 -0.0269129 0)
(10.0453 -0.0273453 0)
(10.0494 -0.0276915 0)
(10.0533 -0.0279809 0)
(10.0571 -0.0282357 0)
(10.0606 -0.0284699 0)
(10.0639 -0.028692 0)
(10.067 -0.0289072 0)
(10.07 -0.0291132 0)
(10.0001 -0.00353188 0)
(10.0018 -0.01156 0)
(10.0062 -0.017907 0)
(10.0123 -0.0220103 0)
(10.0183 -0.0250815 0)
(10.024 -0.0274955 0)
(10.0296 -0.0291381 0)
(10.035 -0.0301526 0)
(10.0401 -0.0308092 0)
(10.0449 -0.0312724 0)
(10.0493 -0.03161 0)
(10.0536 -0.0318622 0)
(10.0576 -0.0320628 0)
(10.0613 -0.0322357 0)
(10.0648 -0.0323943 0)
(10.0681 -0.0325457 0)
(10.0712 -0.0326936 0)
(10.0742 -0.0328345 0)
(9.99991 -0.00337527 0)
(10.0016 -0.0149909 0)
(10.0073 -0.0227479 0)
(10.0142 -0.0262604 0)
(10.0206 -0.0288489 0)
(10.0268 -0.0312173 0)
(10.0331 -0.0329419 0)
(10.039 -0.0340335 0)
(10.0444 -0.0347366 0)
(10.0494 -0.0352033 0)
(10.054 -0.0355041 0)
(10.0583 -0.0356929 0)
(10.0623 -0.0358158 0)
(10.066 -0.0359036 0)
(10.0694 -0.0359745 0)
(10.0725 -0.0360381 0)
(10.0754 -0.0360994 0)
(10.0781 -0.0361568 0)
(9.99859 -0.000382176 0)
(9.99903 -0.0158006 0)
(10.0076 -0.0274435 0)
(10.0166 -0.0325025 0)
(10.0238 -0.034881 0)
(10.0306 -0.0362396 0)
(10.0376 -0.0369945 0)
(10.0441 -0.0374648 0)
(10.0498 -0.0378165 0)
(10.0549 -0.0380662 0)
(10.0595 -0.0382134 0)
(10.0635 -0.0382832 0)
(10.0671 -0.0383053 0)
(10.0703 -0.0383011 0)
(10.073 -0.0382857 0)
(10.0755 -0.0382675 0)
(10.0776 -0.0382503 0)
(10.0794 -0.0382319 0)
(9.99487 0.00140538 0)
(9.99287 -0.00812582 0)
(10.006 -0.0203354 0)
(10.0202 -0.0322699 0)
(10.0306 -0.0404788 0)
(10.0392 -0.0441551 0)
(10.0467 -0.0450712 0)
(10.0529 -0.0449305 0)
(10.0578 -0.0444667 0)
(10.0616 -0.0438731 0)
(10.0646 -0.0432305 0)
(10.0667 -0.0425954 0)
(10.0682 -0.042002 0)
(10.069 -0.0414588 0)
(10.0693 -0.0409746 0)
(10.0692 -0.0405471 0)
(10.0687 -0.0401731 0)
(10.0679 -0.0398261 0)
(9.9947 -0.0305775 0)
(9.99943 -0.0228514 0)
(10.0146 -0.00262232 0)
(10.0304 -0.00190475 0)
(10.0434 -0.0116584 0)
(10.0533 -0.0209262 0)
(10.0594 -0.0272869 0)
(10.0618 -0.0315162 0)
(10.0615 -0.034293 0)
(10.059 -0.0359911 0)
(10.055 -0.0369244 0)
(10.0497 -0.037359 0)
(10.0434 -0.0374851 0)
(10.0364 -0.0374233 0)
(10.0288 -0.0372622 0)
(10.0209 -0.0370597 0)
(10.0128 -0.0368791 0)
(10.0045 -0.0366876 0)
(10.0274 -0.183007 0)
(10.0766 -0.288325 0)
(10.0871 -0.247822 0)
(10.0777 -0.186561 0)
(10.0663 -0.140325 0)
(10.0537 -0.108245 0)
(10.0365 -0.0858984 0)
(10.0145 -0.0704402 0)
(9.98934 -0.0596692 0)
(9.9623 -0.0518929 0)
(9.93431 -0.0460701 0)
(9.90599 -0.0415721 0)
(9.8778 -0.0380155 0)
(9.85009 -0.0351387 0)
(9.82309 -0.0327751 0)
(9.79692 -0.0308509 0)
(9.77181 -0.0293314 0)
(9.74781 -0.0285144 0)
(9.93575 0.689541 0)
(9.86827 0.609595 0)
(9.76458 0.380605 0)
(9.62661 0.21741 0)
(9.48587 0.119241 0)
(9.35717 0.0631586 0)
(9.24264 0.0315463 0)
(9.14105 0.0135946 0)
(9.05138 0.00324087 0)
(8.97239 -0.00281978 0)
(8.90247 -0.00637308 0)
(8.84028 -0.00849129 0)
(8.78457 -0.00973771 0)
(8.73445 -0.0104956 0)
(8.68902 -0.0109762 0)
(8.64766 -0.0112523 0)
(8.60946 -0.0114764 0)
(8.57411 -0.0121146 0)
(0.00489751 -0.011457 -8.5312e-19)
(0.016743 -0.0176943 7.42811e-19)
(0.0267211 -0.0148226 0)
(0.0327842 -0.00821083 0)
(0.0339733 -0.000851594 0)
(0.0303313 0.00557526 -3.85351e-19)
(0.0229756 0.0103697 0)
(0.0128064 0.0135649 0)
(0.000559614 0.0155294 0)
(-0.013224 0.0167058 0)
(-0.028222 0.0174759 2.25072e-19)
(-0.0442556 0.0180842 0)
(-0.0612231 0.0186484 0)
(-0.0790694 0.0192109 0)
(-0.0977624 0.0197776 0)
(-0.117275 0.0203416 1.24683e-19)
(-0.137582 0.0208931 0)
(-0.158654 0.0214259 0)
(-0.18046 0.0219366 0)
(-0.202968 0.0224255 0)
(-0.226145 0.0228924 0)
(-0.249961 0.0233371 0)
(-0.274396 0.0237568 0)
(-0.299437 0.0241537 7.39173e-20)
(-0.325085 0.0245503 -7.08863e-20)
(-0.351348 0.024989 6.82388e-20)
(-0.37826 0.025504 6.58978e-20)
(-0.405841 0.0261765 0)
(-0.434038 0.02723 0)
(-0.462777 0.0286039 -6.02497e-20)
(-0.492067 0.0306093 -5.84841e-20)
(-0.521719 0.033743 0)
(-0.551571 0.0372549 0)
(-0.581573 0.0443094 -5.39882e-20)
(-0.612847 0.0594821 0)
(-0.647861 0.0732148 0)
(-0.685956 0.0756322 5.74793e-20)
(-0.723551 0.0475583 0)
(-0.760551 0.0320648 7.65753e-20)
(-0.796918 0.0460176 1.46411e-19)
(-0.83942 0.0386383 0)
(-0.878727 0.0233991 0)
(-0.914242 0.0248887 0)
(-0.951024 0.0339426 0)
(-0.991552 0.0346392 0)
(-1.03175 0.0348136 1.18671e-19)
(-1.07216 0.0347498 1.15287e-19)
(-1.11266 0.034642 1.1209e-19)
(-1.15323 0.0344555 0)
(-1.19378 0.0342159 -1.06258e-19)
(-1.23427 0.0339327 0)
(-1.27466 0.0336215 1.01097e-19)
(-1.31493 0.0332907 9.87376e-20)
(-1.35505 0.0329457 0)
(-1.395 0.0325903 0)
(-1.43477 0.0322254 0)
(-1.47434 0.0318523 9.05054e-20)
(-1.5137 0.0314699 0)
(-1.55282 0.0310784 0)
(-1.59169 0.0306757 0)
(-1.63028 0.0302617 0)
(-1.66858 0.0298342 0)
(-1.70657 0.0293928 0)
(-1.74421 0.0289351 0)
(-1.78148 0.028461 0)
(-1.81834 0.0279684 -7.68475e-20)
(-1.85478 0.0274572 0)
(-1.89074 0.0269257 0)
(-1.92621 0.0263742 7.3261e-20)
(-1.96115 0.0258011 7.21391e-20)
(-1.99551 0.0252071 0)
(-2.02926 0.0245907 -6.99884e-20)
(-2.06236 0.0239527 6.8954e-20)
(-2.09477 0.0232921 0)
(-2.12646 0.0226101 -6.69547e-20)
(-2.15737 0.0219056 0)
(-2.18747 0.0211803 0)
(-2.21673 0.0204336 6.40949e-20)
(-2.24508 0.0196668 0)
(-2.27251 0.0188791 -6.22566e-20)
(-2.29895 0.0180722 0)
(-2.32438 0.0172454 6.04545e-20)
(-2.34874 0.0164 5.95625e-20)
(-2.37201 0.015535 5.86741e-20)
(-2.39413 0.0146516 1.15575e-19)
(-2.41507 0.0137481 -1.13804e-19)
(-2.43479 0.0128244 0)
(-2.45324 0.0118771 0)
(-2.47037 0.0109031 0)
(-2.48615 0.00989636 -1.06663e-19)
(-2.50052 0.00884871 -1.04851e-19)
(-2.51343 0.00775155 1.03023e-19)
(-2.52482 0.00659605 0)
(-2.53462 0.005376 -9.93133e-20)
(-2.54274 0.00409772 -9.74302e-20)
(-2.54912 0.00279926 -9.55292e-20)
(-2.55363 0.00155826 0)
(-2.55616 0.000447147 0)
(-2.55694 -0.000527515 0)
(-2.55622 -0.00143146 -8.75463e-20)
(-2.55395 -0.00231801 0)
(-2.55017 -0.00319717 0)
(-2.54487 -0.00407305 8.10442e-20)
(-2.53802 -0.00494641 0)
(-2.52963 -0.00581641 0)
(-2.51967 -0.00668305 7.40378e-20)
(-2.50814 -0.007545 0)
(-2.49504 -0.00840242 0)
(-2.48036 -0.00925399 -6.64536e-20)
(-2.4641 -0.0100999 -6.37839e-20)
(-2.44625 -0.0109387 0)
(-2.42682 -0.0117705 5.82145e-20)
(-2.40581 -0.0125939 0)
(-2.38323 -0.0134089 -5.23172e-20)
(-2.35909 -0.0142142 0)
(-2.33338 -0.0150095 -4.60653e-20)
(-2.30613 -0.0157936 -4.27975e-20)
(-2.27735 -0.016566 0)
(-2.24706 -0.0173255 0)
(-2.21527 -0.0180711 0)
(-2.182 -0.018802 0)
(-2.14729 -0.0195171 0)
(-2.11116 -0.0202159 0)
(-2.07364 -0.0208971 0)
(-2.03476 -0.0215607 -1.27222e-20)
(-1.99456 -0.0222056 8.40238e-21)
(-1.95307 -0.0228323 0)
(-1.91033 -0.0234385 0)
(-1.86638 -0.0240246 0)
(-1.82126 -0.0245874 0)
(-1.77502 -0.0251265 -3.08958e-20)
(-1.72771 -0.0256434 0)
(-1.67938 -0.02614 5.23267e-20)
(-1.63007 -0.0266115 -6.36053e-20)
(-1.57984 -0.0270588 0)
(-1.52874 -0.0274816 0)
(-1.47682 -0.0278809 0)
(-1.42415 -0.0282561 1.12929e-19)
(-1.37076 -0.0286089 1.2642e-19)
(-1.31673 -0.0289383 0)
(-1.26209 -0.0292455 1.54971e-19)
(-1.2069 -0.0295303 1.70092e-19)
(-1.15121 -0.0297931 -1.85821e-19)
(-1.09506 -0.0300346 0)
(-1.03852 -0.0302555 0)
(-0.981636 -0.0304567 -2.37039e-19)
(-0.924454 -0.030639 0)
(-0.867024 -0.0308033 0)
(-0.809393 -0.0309505 0)
(-0.751606 -0.0310821 0)
(-0.693707 -0.0311992 3.38771e-19)
(-0.635738 -0.0313037 3.62134e-19)
(-0.577737 -0.0313972 0)
(-0.519741 -0.0314818 4.12538e-19)
(-0.461784 -0.0315594 0)
(-0.403896 -0.0316322 0)
(-0.346105 -0.0317015 4.99027e-19)
(-0.288438 -0.031769 0)
(-0.230919 -0.0318356 5.65623e-19)
(-0.173571 -0.0319144 0)
(-0.116418 -0.032015 0)
(-0.0595052 -0.0321017 6.82983e-19)
(-0.00288189 -0.0319606 0)
(0.0533305 -0.0312922 7.16355e-19)
(0.109201 -0.0303213 0)
(0.164766 -0.0293869 0)
(0.220035 -0.0285287 0)
(0.275053 -0.0277357 -6.54626e-19)
(0.329868 -0.0269945 0)
(0.384511 -0.0262955 6.29452e-19)
(0.439001 -0.0256273 0)
(0.493333 -0.0249777 0)
(0.547474 -0.0243271 0)
(0.60132 -0.0236456 0)
(0.654709 -0.0228751 0)
(0.707062 -0.0219075 0)
(0.758148 -0.0204764 0)
(0.803142 -0.0179484 -1.11322e-18)
(0.84822 -0.0129184 0)
(0.840965 0.00405516 0)
(0.00471961 -0.033917 1.97654e-18)
(0.0102366 -0.0327148 -1.11769e-18)
(0.00991033 -0.0195172 0)
(0.00661723 -0.00546555 3.50632e-19)
(0.000879566 0.0076555 0)
(-0.00704502 0.0189893 1.35511e-19)
(-0.017132 0.0281492 -2.47735e-19)
(-0.0292781 0.0352007 -2.2855e-19)
(-0.0433277 0.0404981 0)
(-0.059058 0.0445067 -1.95485e-19)
(-0.0762401 0.0476602 -9.05658e-20)
(-0.0946917 0.0502839 0)
(-0.114279 0.0525863 0)
(-0.134907 0.0546858 0)
(-0.156513 0.0566421 0)
(-0.179057 0.0584815 -6.45277e-20)
(-0.202516 0.0602141 0)
(-0.226878 0.0618431 1.15606e-19)
(-0.252139 0.06337 0)
(-0.278303 0.0647982 0)
(-0.30538 0.0661337 -1.00761e-19)
(-0.333387 0.0673865 0)
(-0.36235 0.0685706 9.34471e-20)
(-0.3923 0.0697062 -4.52414e-20)
(-0.423267 0.0708208 4.38889e-20)
(-0.455274 0.0719493 -4.26864e-20)
(-0.488331 0.0731304 -4.16225e-20)
(-0.522449 0.0743901 0)
(-0.55767 0.0757153 0)
(-0.594113 0.0770387 3.93613e-20)
(-0.631808 0.0782133 -3.8604e-20)
(-0.670726 0.0790391 0)
(-0.711164 0.0794234 0)
(-0.753333 0.0797243 3.84696e-20)
(-0.796131 0.0804998 0)
(-0.837251 0.0816312 0)
(-0.876309 0.0825336 -3.89766e-20)
(-0.920079 0.08295 0)
(-0.962704 0.0849051 3.97447e-20)
(-1.00285 0.0883571 -7.65302e-20)
(-1.04105 0.0893949 0)
(-1.08079 0.0889578 0)
(-1.12138 0.0891445 -1.3739e-19)
(-1.16126 0.0895761 -1.33952e-19)
(-1.19955 0.08949 -1.30827e-19)
(-1.23737 0.0890517 6.38215e-20)
(-1.27477 0.0884087 -6.27433e-20)
(-1.31178 0.0876178 -1.84074e-19)
(-1.34845 0.0867252 1.20172e-19)
(-1.38481 0.0857584 5.9067e-20)
(-1.42088 0.0847398 0)
(-1.45665 0.083684 -5.69013e-20)
(-1.49215 0.082602 5.56041e-20)
(-1.52735 0.0814991 0)
(-1.56227 0.0803791 0)
(-1.59688 0.079242 0)
(-1.63118 0.0780881 -5.22529e-20)
(-1.66515 0.076915 0)
(-1.69878 0.0757212 1.00989e-19)
(-1.73206 0.0745035 0)
(-1.76496 0.0732601 9.79711e-20)
(-1.79746 0.0719875 0)
(-1.82954 0.0706839 -9.51363e-20)
(-1.86118 0.069346 0)
(-1.89235 0.0679726 9.24563e-20)
(-1.92303 0.0665608 -4.5456e-20)
(-1.95318 0.0651098 0)
(-1.98279 0.0636175 -8.86719e-20)
(-2.01182 0.0620839 -4.38504e-20)
(-2.04023 0.0605072 -4.32534e-20)
(-2.06801 0.0588879 0)
(-2.09512 0.0572248 -4.18663e-20)
(-2.12152 0.0555191 -4.15141e-20)
(-2.14719 0.0537699 0)
(-2.17209 0.0519788 4.0387e-20)
(-2.19619 0.0501456 -7.94696e-20)
(-2.21946 0.0482725 0)
(-2.24186 0.0463598 -3.87244e-20)
(-2.26335 0.0444097 0)
(-2.28392 0.0424224 1.12716e-19)
(-2.30352 0.0404005 0)
(-2.32212 0.0383445 -1.09428e-19)
(-2.33969 0.0362568 -3.59673e-20)
(-2.35619 0.0341377 3.52945e-20)
(-2.37161 0.0319898 6.9489e-20)
(-2.38589 0.0298135 -6.83807e-20)
(-2.39902 0.0276114 0)
(-2.41096 0.0253831 0)
(-2.42169 0.0231299 0)
(-2.43117 0.0208504 1.91695e-19)
(-2.43939 0.0185423 6.27338e-20)
(-2.44633 0.0162035 -6.15211e-20)
(-2.45199 0.0138314 0)
(-2.45636 0.011421 -5.90538e-20)
(-2.45947 0.00896727 5.77755e-20)
(-2.46136 0.00648244 5.64921e-20)
(-2.46211 0.00401831 0)
(-2.46184 0.00165387 0)
(-2.4604 -0.00058127 0)
(-2.45754 -0.00273657 5.10512e-20)
(-2.45323 -0.00485801 0)
(-2.44743 -0.00695649 -9.65523e-20)
(-2.44014 -0.00903649 -1.40316e-19)
(-2.43133 -0.011098 9.06403e-20)
(-2.42099 -0.013139 0)
(-2.40912 -0.0151577 4.24162e-20)
(-2.39569 -0.0171514 0)
(-2.38072 -0.0191187 7.81474e-20)
(-2.36419 -0.0210569 -3.76442e-20)
(-2.3461 -0.0229647 -3.59937e-20)
(-2.32645 -0.0248395 0)
(-2.30524 -0.0266798 -9.6804e-20)
(-2.28247 -0.028483 6.11846e-20)
(-2.25816 -0.0302476 2.85239e-20)
(-2.2323 -0.0319709 0)
(-2.20491 -0.0336515 2.48166e-20)
(-2.176 -0.0352869 6.93826e-20)
(-2.14559 -0.0368752 0)
(-2.11368 -0.038414 3.87153e-20)
(-2.0803 -0.0399011 3.47382e-20)
(-2.04548 -0.0413342 3.0694e-20)
(-2.00923 -0.0427112 0)
(-1.97158 -0.0440302 0)
(-1.93257 -0.0452894 0)
(-1.89222 -0.0464876 -7.34875e-21)
(-1.85057 -0.0476235 -4.29009e-21)
(-1.80766 -0.048697 0)
(-1.76352 -0.0497079 -4.971e-22)
(-1.7182 -0.0506581 4.08403e-21)
(-1.67174 -0.0515452 0)
(-1.62418 -0.0523601 1.44347e-20)
(-1.57558 -0.0530998 3.64391e-20)
(-1.52597 -0.053777 -2.40885e-20)
(-1.47542 -0.0543921 -2.69098e-20)
(-1.42397 -0.0549407 0)
(-1.37167 -0.0554205 0)
(-1.31859 -0.0558353 0)
(-1.26476 -0.0561858 -4.92664e-20)
(-1.21025 -0.0564747 5.22332e-20)
(-1.15511 -0.0567028 1.17203e-19)
(-1.0994 -0.0568719 -6.50444e-20)
(-1.04315 -0.0569833 6.81105e-20)
(-0.98642 -0.0570384 7.58209e-20)
(-0.929267 -0.0570396 0)
(-0.87174 -0.0569889 0)
(-0.813889 -0.0568893 -8.99984e-20)
(-0.755763 -0.0567427 0)
(-0.697411 -0.056552 0)
(-0.638879 -0.0563198 2.16141e-19)
(-0.580212 -0.056049 0)
(-0.521452 -0.0557426 1.18359e-19)
(-0.462641 -0.0554038 -1.26488e-19)
(-0.403816 -0.0550363 0)
(-0.345012 -0.0546433 1.35818e-19)
(-0.286261 -0.0542284 0)
(-0.227593 -0.053795 0)
(-0.169033 -0.0533456 -1.55825e-19)
(-0.110605 -0.0528807 3.21264e-19)
(-0.0523317 -0.0524019 -1.67728e-19)
(0.00576483 -0.0519083 0)
(0.0636661 -0.0513981 0)
(0.121385 -0.0508633 1.74796e-19)
(0.178952 -0.0502468 0)
(0.236336 -0.04946 1.78134e-19)
(0.293518 -0.0485764 0)
(0.350509 -0.0477227 0)
(0.407341 -0.0469293 0)
(0.46404 -0.0461921 1.86254e-19)
(0.520633 -0.0455014 0)
(0.577143 -0.0448444 -1.88719e-19)
(0.633583 -0.0442066 0)
(0.689944 -0.0435664 0)
(0.746186 -0.0428902 3.81867e-19)
(0.802208 -0.0421196 -3.83602e-19)
(0.857838 -0.041144 0)
(0.912603 -0.0397556 0)
(0.966152 -0.0374345 0)
(1.01557 -0.0332316 1.17587e-18)
(1.06422 -0.0239672 0)
(1.08973 -0.000829945 -8.14782e-19)
(-0.000147415 -0.0414387 -8.26911e-22)
(-0.00289276 -0.0265192 1.08077e-18)
(-0.00945909 -0.00718287 0)
(-0.0180119 0.010636 -4.39638e-19)
(-0.0280407 0.0266152 0)
(-0.0392489 0.0406649 0)
(-0.0516506 0.0527039 3.89042e-23)
(-0.0653517 0.0627602 1.36489e-19)
(-0.0804295 0.0710256 1.28439e-19)
(-0.0968931 0.0778116 1.21474e-19)
(-0.114693 0.0834659 0)
(-0.133751 0.0883036 0)
(-0.15398 0.0925738 -1.03889e-19)
(-0.175308 0.0964529 -1.97927e-19)
(-0.197676 0.100057 1.88924e-19)
(-0.221047 0.103457 0)
(-0.245396 0.106699 1.73254e-19)
(-0.270714 0.109811 -8.32635e-20)
(-0.296998 0.112815 0)
(-0.32425 0.115729 1.54708e-19)
(-0.352475 0.118573 7.48348e-20)
(-0.38168 0.121367 -1.45013e-19)
(-0.411871 0.124135 -7.04297e-20)
(-0.443046 0.126898 0)
(-0.475199 0.129676 1.33609e-19)
(-0.508308 0.132481 1.30513e-19)
(-0.542346 0.135313 0)
(-0.577252 0.138157 1.25116e-19)
(-0.61292 0.140963 0)
(-0.64924 0.14363 1.20325e-19)
(-0.686099 0.14606 5.91575e-20)
(-0.723377 0.148213 0)
(-0.76097 0.150151 0)
(-0.798636 0.152212 0)
(-0.835801 0.154423 0)
(-0.871846 0.155917 0)
(-0.907092 0.156063 0)
(-0.942908 0.154966 1.06932e-19)
(-0.978742 0.153717 -1.56831e-19)
(-1.01346 0.152745 0)
(-1.04726 0.150365 0)
(-1.08151 0.147391 0)
(-1.11617 0.145337 7.27651e-23)
(-1.15035 0.143816 9.15828e-20)
(-1.18381 0.14215 1.79208e-19)
(-1.2169 0.140437 -1.75547e-19)
(-1.24969 0.138704 -8.59744e-20)
(-1.28224 0.13695 8.44567e-20)
(-1.31457 0.135176 -1.42628e-22)
(-1.34668 0.13338 8.12366e-20)
(-1.37859 0.131564 0)
(-1.41031 0.129731 7.84116e-20)
(-1.44183 0.127881 -1.55258e-22)
(-1.47316 0.126015 0)
(-1.50428 0.124132 0)
(-1.53518 0.122227 -7.33874e-20)
(-1.56585 0.120299 0)
(-1.59629 0.118342 0)
(-1.62646 0.116353 6.98921e-20)
(-1.65636 0.114328 1.38014e-19)
(-1.68596 0.112261 -6.81495e-20)
(-1.71524 0.11015 0)
(-1.74418 0.10799 6.6193e-20)
(-1.77276 0.105777 0)
(-1.80095 0.103509 6.40206e-20)
(-1.82872 0.101184 6.34206e-20)
(-1.85606 0.0987983 -1.24769e-19)
(-1.88292 0.096351 -6.13693e-20)
(-1.90928 0.0938409 0)
(-1.93511 0.091267 1.19625e-19)
(-1.96038 0.0886292 0)
(-1.98506 0.0859271 1.74594e-19)
(-2.00911 0.0831614 1.14676e-19)
(-2.03251 0.0803325 1.13056e-19)
(-2.05522 0.0774417 -1.11447e-19)
(-2.0772 0.0744903 1.64881e-19)
(-2.09843 0.0714802 0)
(-2.11888 0.0684133 0)
(-2.1385 0.0652918 -1.0507e-19)
(-2.15727 0.0621177 -1.55309e-19)
(-2.17515 0.0588938 0)
(-2.19211 0.0556223 5.02216e-20)
(-2.20811 0.0523062 0)
(-2.22313 0.0489475 -1.45666e-19)
(-2.23714 0.0455496 -1.1667e-22)
(-2.2501 0.0421148 1.02713e-22)
(-2.26198 0.0386465 9.21534e-20)
(-2.27276 0.0351472 0)
(-2.28241 0.0316201 -8.88018e-20)
(-2.29091 0.0280678 -4.37394e-23)
(-2.29823 0.0244936 0)
(-2.30438 0.0209029 0)
(-2.30932 0.017304 0)
(-2.31306 0.0137088 8.00623e-20)
(-2.3156 0.010134 0)
(-2.31694 0.0066014 0)
(-2.31704 0.00312658 0)
(-2.31587 -0.000300851 0)
(-2.31336 -0.00370691 0)
(-2.30946 -0.00709764 6.86518e-20)
(-2.30415 -0.0104657 0)
(-2.29741 -0.013808 6.44325e-20)
(-2.28921 -0.017122 6.23406e-20)
(-2.27955 -0.0204042 -6.02189e-20)
(-2.2684 -0.0236512 0)
(-2.25576 -0.0268588 -5.58849e-20)
(-2.24163 -0.0300234 0)
(-2.22598 -0.0331415 -5.14283e-20)
(-2.20883 -0.0362096 4.91534e-20)
(-2.19016 -0.0392245 1.41141e-19)
(-2.16998 -0.0421827 0)
(-2.14828 -0.0450809 1.27095e-19)
(-2.12507 -0.0479158 4.04465e-20)
(-2.10036 -0.050684 0)
(-2.07416 -0.053382 7.04775e-20)
(-2.04646 -0.0560065 6.55299e-20)
(-2.01729 -0.0585542 -9.03632e-20)
(-1.98665 -0.0610217 0)
(-1.95457 -0.0634054 -2.47118e-20)
(-1.92106 -0.0657018 -2.21042e-20)
(-1.88614 -0.0679072 -5.93755e-20)
(-1.84984 -0.0700184 0)
(-1.81218 -0.0720321 0)
(-1.77319 -0.0739454 0)
(-1.73291 -0.075756 -9.75181e-21)
(-1.69136 -0.0774618 0)
(-1.64859 -0.0790619 0)
(-1.60463 -0.0805566 3.07843e-22)
(-1.55953 -0.0819468 -2.51988e-21)
(-1.51332 -0.0832308 0)
(-1.46605 -0.0843999 0)
(-1.41776 -0.0854492 -2.22287e-20)
(-1.3685 -0.0863895 0)
(-1.31833 -0.0872238 3.38422e-20)
(-1.26729 -0.087948 3.83697e-20)
(-1.21543 -0.0885608 0)
(-1.16281 -0.0890655 0)
(-1.10948 -0.0894648 -5.59791e-20)
(-1.05549 -0.0897618 -1.37345e-21)
(-1.00089 -0.0899589 -1.38382e-21)
(-0.945735 -0.0900587 0)
(-0.890069 -0.0900637 -1.60671e-19)
(-0.833945 -0.0899768 0)
(-0.777413 -0.0898016 0)
(-0.720523 -0.0895416 0)
(-0.663324 -0.0892009 1.04725e-19)
(-0.605863 -0.0887834 0)
(-0.548187 -0.0882933 -2.30164e-19)
(-0.49034 -0.087735 -1.22361e-19)
(-0.432365 -0.087113 0)
(-0.374304 -0.0864325 -1.34007e-19)
(-0.316194 -0.0856982 0)
(-0.258071 -0.0849161 0)
(-0.199968 -0.084091 -4.50939e-19)
(-0.141915 -0.0832281 3.11053e-19)
(-0.0839386 -0.082332 0)
(-0.0260608 -0.0814082 3.33507e-19)
(0.0316971 -0.0804623 -1.72555e-19)
(0.0893169 -0.0794981 0)
(0.146792 -0.0785121 0)
(0.204116 -0.0775074 0)
(0.261291 -0.0764902 -5.51239e-19)
(0.318339 -0.0754686 0)
(0.375287 -0.074439 -1.90028e-19)
(0.432139 -0.0734125 0)
(0.488899 -0.0724248 0)
(0.545579 -0.0714949 0)
(0.602192 -0.0706201 0)
(0.658754 -0.0697919 0)
(0.715282 -0.0689958 0)
(0.771783 -0.0682125 -4.11458e-19)
(0.828248 -0.0674102 0)
(0.884637 -0.0665393 -2.10549e-19)
(0.940858 -0.065512 6.3515e-19)
(0.996752 -0.06417 0)
(1.05194 -0.0622149 0)
(1.10615 -0.0590154 -4.33531e-19)
(1.15747 -0.0533681 -4.39402e-19)
(1.20905 -0.0423964 4.44112e-19)
(1.24808 -0.0185935 4.56927e-19)
(-0.00529456 -0.0320307 -3.0343e-18)
(-0.0137031 -0.00832401 -1.29661e-18)
(-0.024154 0.0142366 -4.69582e-19)
(-0.0362608 0.0340391 -1.67669e-19)
(-0.0493311 0.051681 0)
(-0.0630347 0.0673963 2.42996e-19)
(-0.0774362 0.0812537 -1.11096e-19)
(-0.0926842 0.0933134 0)
(-0.108906 0.103708 -9.80273e-20)
(-0.126184 0.112649 0)
(-0.144556 0.120395 1.7785e-19)
(-0.16402 0.127207 0)
(-0.184548 0.133313 8.15155e-20)
(-0.206106 0.138897 1.56486e-19)
(-0.228655 0.144098 -1.50449e-19)
(-0.252165 0.149011 0)
(-0.276611 0.153703 -1.39758e-19)
(-0.301971 0.158218 0)
(-0.328229 0.162587 0)
(-0.355366 0.166834 -1.26665e-19)
(-0.383361 0.170973 0)
(-0.412187 0.175016 -1.59801e-23)
(-0.441806 0.178966 0)
(-0.47217 0.182822 0)
(-0.503214 0.186572 1.60825e-23)
(-0.534854 0.190194 -1.07981e-19)
(-0.566986 0.193648 -1.05497e-19)
(-0.599487 0.196871 -1.031e-19)
(-0.632218 0.199789 0)
(-0.665043 0.202317 -1.96868e-19)
(-0.697836 0.204386 0)
(-0.73049 0.205966 -9.39449e-20)
(-0.762912 0.207084 0)
(-0.794982 0.207823 0)
(-0.826517 0.208156 8.78628e-20)
(-0.857494 0.207866 0)
(-0.888161 0.206799 -8.43318e-20)
(-0.918795 0.205088 2.08429e-23)
(-0.949376 0.203137 1.61564e-19)
(-0.979694 0.201058 -1.57706e-19)
(-1.00982 0.198504 0)
(-1.04 0.1957 0)
(-1.07016 0.193104 -7.3588e-20)
(-1.1001 0.190681 0)
(-1.12978 0.188257 -7.06352e-20)
(-1.15929 0.185832 6.92391e-20)
(-1.18865 0.183418 6.79131e-20)
(-1.21789 0.181014 0)
(-1.24701 0.178616 -6.54417e-20)
(-1.276 0.17622 -6.42848e-20)
(-1.30488 0.173819 1.26234e-19)
(-1.33363 0.171409 -6.2107e-20)
(-1.36225 0.168985 -6.10792e-20)
(-1.39075 0.166541 0)
(-1.41909 0.164074 0)