/*--------------------------------*- C++ -*----------------------------------*\
| =========                 |                                                 |
| \\      /  F ield         | OpenFOAM: The Open Source CFD Toolbox           |
|  \\    /   O peration     | Version:  5.x                                   |
|   \\  /    A nd           | Web:      www.OpenFOAM.org                      |
|    \\/     M anipulation  |                                                 |
\*---------------------------------------------------------------------------*/
FoamFile
{
    version     2.0;
    format      ascii;
    class       volScalarField;
    location    "871";
    object      k;
}
// * * * * * * * * * * * * * * * * * * * * * * * * * * * * * * * * * * * * * //

dimensions      [0 2 -2 0 0 0 0];

internalField   nonuniform List<scalar> 
20540
(
0.000116727
7.23388e-05
0.000116727
7.37493e-05
0.000116727
7.7547e-05
0.000116727
8.36776e-05
0.000116727
9.1145e-05
0.000116727
9.84562e-05
0.000116727
0.000103835
0.000116727
0.000105657
0.000116727
0.000103189
0.000116727
9.69133e-05
0.000116727
8.69513e-05
0.000116727
7.48407e-05
0.000116727
6.41448e-05
0.000116727
5.73146e-05
0.000116727
5.43272e-05
0.000116727
5.34528e-05
0.000116727
5.32647e-05
0.000116727
5.32318e-05
0.000116727
5.32269e-05
0.000116727
5.32263e-05
0.000116727
5.32266e-05
0.000116727
5.32271e-05
0.000116727
5.32279e-05
0.000116727
5.32289e-05
0.000116727
5.32301e-05
0.000116727
5.32315e-05
0.000116727
5.32331e-05
0.000116727
5.32349e-05
0.000116727
5.32367e-05
0.000116727
5.32383e-05
0.000116727
5.32395e-05
0.000116727
5.32401e-05
0.000116727
5.32401e-05
0.000116727
5.32395e-05
0.000116727
5.32383e-05
0.000116727
5.32367e-05
0.000116727
5.3235e-05
0.000116727
5.32333e-05
0.000116727
5.32318e-05
0.000116727
5.32303e-05
0.000116727
5.32291e-05
0.000116727
5.32281e-05
0.000116727
5.32273e-05
0.000116727
5.32268e-05
0.000116727
5.32264e-05
0.000116727
5.32265e-05
0.000116727
5.32285e-05
0.000116727
5.32419e-05
0.000116727
5.33218e-05
0.000116727
5.37215e-05
0.000116727
5.52971e-05
0.000116727
5.96783e-05
0.000116727
6.79731e-05
0.000116727
7.92348e-05
0.000116727
9.06474e-05
0.000116727
9.90881e-05
0.000116727
0.000104197
0.000116727
0.000105535
0.000116727
0.000102941
0.000116727
9.72396e-05
0.000116727
9.00285e-05
0.000116727
8.28809e-05
0.000116727
7.71233e-05
0.000116727
7.36029e-05
0.000116727
7.2286e-05
0.023752
0.0258261
0.0230749
0.0209521
0.0193956
0.0182552
0.0173886
0.0167105
0.0161628
0.0157125
0.0153354
0.0150163
0.0147416
0.0145035
0.0142957
0.0141121
0.013949
0.0138038
0.0136739
0.0135566
0.0134502
0.0133535
0.0132654
0.0131851
0.0131118
0.0130446
0.0129826
0.0129252
0.0128719
0.0128224
0.0127765
0.0127338
0.0126941
0.0126572
0.0126229
0.0125909
0.0125611
0.0125333
0.0125074
0.0124833
0.0124609
0.0124401
0.0124209
0.0124033
0.0123875
0.0123735
0.0123614
0.0123514
0.0123436
0.0123384
0.0123358
0.0123363
0.0123402
0.0123479
0.0123598
0.0123765
0.0123985
0.0124264
0.012461
0.012503
0.0125533
0.0126138
0.0126859
0.0127394
0.0127975
0.0128607
0.0129278
0.0129989
0.0130743
0.0131543
0.0132392
0.0133293
0.0134247
0.0135258
0.0136332
0.0137473
0.0138691
0.0139996
0.0141404
0.0142938
0.0144637
0.0146565
0.0148847
0.0151759
0.0155995
0.0164071
0.0185264
0.0291837
0.768923
0.833999
0.746274
0.678459
0.628641
0.592086
0.564275
0.542492
0.524887
0.510405
0.498271
0.488
0.479154
0.471484
0.464788
0.45887
0.453614
0.448931
0.444742
0.44096
0.437528
0.434408
0.431567
0.428977
0.426611
0.424441
0.422441
0.420587
0.418867
0.41727
0.415787
0.41441
0.413129
0.411938
0.410829
0.409796
0.408834
0.407937
0.407101
0.406322
0.405597
0.404925
0.404305
0.403739
0.403229
0.402776
0.402385
0.402061
0.401811
0.401641
0.401558
0.401572
0.401697
0.401944
0.402329
0.402867
0.403575
0.404475
0.405589
0.406943
0.408563
0.410512
0.41283
0.414558
0.416436
0.418468
0.420626
0.422912
0.425338
0.427913
0.430643
0.433537
0.436603
0.439852
0.443298
0.44696
0.450863
0.455041
0.459543
0.464441
0.46985
0.475968
0.483167
0.492273
0.505314
0.529439
0.587806
0.797
4.54925
5.07761
4.68294
4.35399
4.10334
3.9148
3.76863
3.65246
3.55745
3.47851
3.41182
3.35498
3.30571
3.26277
3.22511
3.19169
3.16189
3.13526
3.11137
3.08974
3.07007
3.05214
3.03578
3.02085
3.00718
2.99462
2.98303
2.97228
2.96228
2.953
2.94436
2.93634
2.92887
2.92191
2.91543
2.90939
2.90376
2.89851
2.89361
2.88904
2.88479
2.88084
2.87719
2.87386
2.87085
2.86817
2.86585
2.86392
2.86242
2.86137
2.86082
2.86082
2.86144
2.86277
2.86488
2.86786
2.87181
2.87684
2.88307
2.89065
2.89972
2.91062
2.92341
2.93287
2.94343
2.95476
2.96667
2.97925
2.99256
3.00664
3.02151
3.0372
3.05374
3.07118
3.08956
3.10897
3.12949
3.15125
3.17445
3.19935
3.22639
3.25629
3.29036
3.33142
3.38569
3.47374
3.63172
3.96366
6.97784
8.33366
8.00674
7.64252
7.34765
7.1201
6.94074
6.7964
6.67709
6.57714
6.49208
6.41914
6.35557
6.29991
6.25091
6.20724
6.16818
6.13318
6.1017
6.07312
6.04706
6.02327
6.00153
5.98165
5.96342
5.94666
5.93116
5.91677
5.90337
5.8909
5.8793
5.86851
5.85846
5.84909
5.84036
5.83222
5.82462
5.81752
5.81089
5.8047
5.79892
5.79354
5.78857
5.784
5.77985
5.77613
5.77288
5.77011
5.76789
5.76625
5.76518
5.7648
5.76518
5.76641
5.7686
5.77184
5.77625
5.78194
5.78906
5.79778
5.8082
5.82085
5.83509
5.84524
5.85723
5.87039
5.88405
5.8983
5.91324
5.92892
5.94536
5.96258
5.98058
5.99938
6.019
6.03947
6.06083
6.08314
6.10649
6.13101
6.15692
6.18458
6.21463
6.24846
6.28825
6.34238
6.40438
6.50081
7.58768
9.66869
9.51798
9.18903
8.90104
8.67341
8.49186
8.34463
8.22219
8.11922
8.03128
7.9557
7.88965
7.83174
7.78069
7.7351
7.69428
7.65768
7.62474
7.59481
7.56748
7.54251
7.51969
7.49882
7.47968
7.46208
7.44578
7.43064
7.41653
7.40341
7.39119
7.37982
7.36924
7.35937
7.35017
7.34159
7.33357
7.32609
7.31909
7.31254
7.30642
7.30072
7.29542
7.29054
7.28609
7.28207
7.27851
7.27544
7.27289
7.27092
7.26948
7.26868
7.26861
7.26935
7.27098
7.27359
7.27729
7.28218
7.28838
7.29604
7.30523
7.31649
7.32872
7.33708
7.34743
7.35912
7.37126
7.38379
7.39683
7.41041
7.42456
7.43928
7.45455
7.47037
7.48673
7.50362
7.52102
7.53894
7.55737
7.57631
7.59578
7.61582
7.63646
7.65784
7.67895
7.69928
7.69281
7.66836
7.24518
10.0115
10.1323
9.88365
9.62738
9.41491
9.24162
9.09947
8.98029
8.87956
8.79318
8.71877
8.65353
8.59624
8.54569
8.50045
8.4599
8.42352
8.39077
8.36098
8.33374
8.30884
8.28608
8.26526
8.24618
8.22862
8.21235
8.19722
8.18312
8.17
8.15778
8.14641
8.13583
8.12597
8.11677
8.10819
8.10017
8.09268
8.08567
8.0791
8.07295
8.0672
8.06185
8.0569
8.05236
8.04823
8.04453
8.04128
8.03852
8.03628
8.03449
8.03328
8.0327
8.03284
8.03374
8.0355
8.03818
8.04188
8.04669
8.05274
8.06003
8.06912
8.07858
8.0847
8.09263
8.1019
8.1116
8.12159
8.1319
8.14255
8.15355
8.16491
8.17659
8.18858
8.20086
8.21338
8.2261
8.23899
8.25199
8.26502
8.278
8.29075
8.30301
8.31421
8.32151
8.32003
8.27853
8.22811
6.44778
9.81298
10.2881
10.161
9.95569
9.76935
9.61167
9.4795
9.3671
9.2713
9.1886
9.11708
9.05407
8.9986
8.94958
8.90557
8.86605
8.83057
8.79862
8.7695
8.74283
8.71842
8.69612
8.67571
8.65701
8.6398
8.62384
8.60897
8.59511
8.5822
8.57018
8.559
8.54859
8.53889
8.52985
8.52141
8.51353
8.50616
8.49926
8.49277
8.48669
8.48099
8.47567
8.47073
8.46616
8.46198
8.45819
8.45482
8.45187
8.44939
8.44729
8.44566
8.44458
8.44408
8.44422
8.44507
8.44667
8.44909
8.45241
8.4567
8.46196
8.46869
8.4754
8.47945
8.48482
8.49148
8.49864
8.50605
8.51364
8.52142
8.52938
8.53751
8.54579
8.55419
8.56268
8.5712
8.57971
8.58815
8.59643
8.60444
8.61202
8.61894
8.62472
8.62843
8.62704
8.61521
8.56597
8.51603
5.44533
9.26439
10.1588
10.2019
10.0722
9.92483
9.78975
9.6722
9.56989
9.48151
9.40441
9.33732
9.27779
9.2252
9.17859
9.13656
9.09873
9.06472
9.03408
9.00607
8.98036
8.95681
8.93528
8.91559
8.89753
8.88092
8.86548
8.85108
8.83764
8.82511
8.81345
8.8026
8.7925
8.7831
8.77433
8.76615
8.75851
8.75136
8.74465
8.73834
8.73241
8.72683
8.72162
8.71675
8.71223
8.70806
8.70425
8.70081
8.69774
8.69508
8.69273
8.69078
8.68926
8.68822
8.68769
8.68772
8.68835
8.68963
8.69159
8.6943
8.69773
8.7023
8.7066
8.70893
8.71212
8.71635
8.72107
8.72601
8.73107
8.73622
8.74144
8.74669
8.75197
8.75723
8.76245
8.76757
8.77254
8.77731
8.78177
8.78582
8.78928
8.79188
8.79308
8.79181
8.78491
8.76705
8.71543
8.66811
4.36911
8.45014
9.80349
10.0688
10.0383
9.94354
9.83966
9.74241
9.65423
9.57625
9.50705
9.44623
9.39165
9.34315
9.29998
9.26079
9.22539
9.19351
9.16474
9.13835
9.11404
9.09174
9.07134
9.05268
9.03557
9.01981
9.00515
8.99143
8.97861
8.96665
8.95552
8.94516
8.93553
8.92656
8.9182
8.9104
8.90311
8.89629
8.88988
8.88383
8.87814
8.87278
8.86774
8.86302
8.85862
8.85454
8.85078
8.84734
8.84423
8.84146
8.83895
8.83675
8.83489
8.8334
8.83232
8.83165
8.83145
8.83172
8.83249
8.83382
8.83562
8.83829
8.84055
8.84146
8.84287
8.84505
8.84764
8.85044
8.85333
8.85624
8.85914
8.862
8.86479
8.86749
8.87006
8.87245
8.87461
8.87648
8.87798
8.87898
8.87931
8.87866
8.87646
8.87155
8.86081
8.83936
8.78829
8.74377
3.31121
7.42004
9.23333
9.77418
9.87739
9.85143
9.78932
9.71948
9.65045
9.58659
9.52813
9.47581
9.42797
9.38505
9.34657
9.31126
9.27918
9.25021
9.22401
9.19982
9.17744
9.15685
9.138
9.12076
9.10495
9.09037
9.07676
9.06398
9.05202
9.04085
9.03044
9.02076
9.01176
9.00339
8.99559
8.98831
8.98152
8.97515
8.96915
8.96349
8.95813
8.95308
8.94831
8.94383
8.93964
8.93572
8.93209
8.92875
8.92568
8.92289
8.92031
8.91796
8.91587
8.91405
8.91252
8.91131
8.91041
8.90985
8.90963
8.90978
8.91023
8.91127
8.91183
8.91162
8.91162
8.91214
8.91297
8.91397
8.91502
8.91606
8.91705
8.91796
8.91874
8.91938
8.91984
8.92008
8.92005
8.91969
8.91892
8.91761
8.91558
8.91251
8.90779
8.90022
8.88679
8.8632
8.81416
8.77229
2.34216
6.21785
8.44192
9.3088
9.58771
9.65544
9.64802
9.6144
9.57093
9.52586
9.48172
9.44071
9.40189
9.3664
9.33414
9.30401
9.27638
9.25128
9.22848
9.20723
9.18741
9.16911
9.15234
9.13698
9.12289
9.10988
9.09766
9.08614
9.07532
9.0652
9.05577
9.047
9.03885
9.03127
9.02421
9.01763
9.01148
9.00572
9.00028
8.99513
8.99024
8.9856
8.98122
8.97709
8.9732
8.96956
8.96616
8.963
8.96007
8.95737
8.95482
8.95244
8.95023
8.94821
8.94639
8.94477
8.94336
8.94215
8.94115
8.94036
8.93971
8.93943
8.93865
8.93756
8.93651
8.93576
8.93519
8.93474
8.93431
8.93384
8.9333
8.93265
8.93185
8.93088
8.92971
8.92829
8.92659
8.92453
8.92204
8.919
8.9152
8.91032
8.90371
8.89416
8.87883
8.85406
8.8079
8.76862
1.50324
4.8903
7.42142
8.64615
9.15111
9.34635
9.41375
9.42724
9.41747
9.39712
9.37189
9.34576
9.31884
9.29316
9.26907
9.24576
9.22398
9.20398
9.18563
9.16823
9.15178
9.1365
9.12246
9.10958
9.09773
9.08676
9.07637
9.06649
9.05717
9.04843
9.04028
9.0327
9.02566
9.01912
9.01303
9.00736
9.00206
8.99709
8.99238
8.98789
8.98362
8.97955
8.97569
8.97203
8.96858
8.96533
8.96228
8.95942
8.95675
8.95426
8.95187
8.94958
8.9474
8.94533
8.94337
8.94151
8.93977
8.93812
8.93656
8.93508
8.9336
8.93231
8.93051
8.92879
8.92698
8.92532
8.92372
8.92216
8.92059
8.91897
8.91725
8.9154
8.91339
8.9112
8.9088
8.90614
8.90318
8.89986
8.89609
8.89175
8.88663
8.88037
8.87232
8.86126
8.84461
8.81934
8.7766
8.73996
0.833667
3.53078
6.17563
7.75375
8.53348
8.89932
9.07051
9.15026
9.18449
9.19637
9.19591
9.18921
9.17794
9.16509
9.15166
9.13727
9.12319
9.10984
9.09728
9.08487
9.07284
9.06151
9.05102
9.04136
9.03243
9.0241
9.01607
9.00833
9.00096
8.99402
8.98753
8.98151
8.97591
8.97071
8.96588
8.96139
8.95719
8.95323
8.94947
8.94585
8.94238
8.93906
8.93589
8.93287
8.93001
8.92731
8.92475
8.92234
8.92007
8.91792
8.91584
8.9138
8.91179
8.90983
8.9079
8.90599
8.90411
8.90223
8.90033
8.89841
8.89638
8.8944
8.8919
8.88975
8.88745
8.88519
8.88288
8.88055
8.87817
8.8757
8.87312
8.8704
8.86751
8.86442
8.86111
8.85754
8.85367
8.84942
8.84471
8.83939
8.83326
8.82594
8.81676
8.80453
8.78701
8.76179
8.72279
8.68888
0.369237
2.29123
4.74039
6.60326
7.68874
8.27398
8.58769
8.75992
8.85756
8.91363
8.94548
8.96399
8.97328
8.97716
8.97756
8.97487
8.97084
8.96616
8.96109
8.95518
8.94889
8.94271
8.93686
8.93137
8.92622
8.92129
8.9163
8.91132
8.90648
8.90188
8.89756
8.89354
8.88981
8.88636
8.88315
8.88016
8.87738
8.87473
8.87217
8.86968
8.86725
8.8649
8.86264
8.86046
8.85839
8.85642
8.85454
8.85275
8.85105
8.84942
8.84783
8.8462
8.84454
8.84286
8.84115
8.83939
8.83757
8.83568
8.83369
8.83158
8.82927
8.82688
8.824
8.82161
8.81904
8.81642
8.81369
8.81088
8.80797
8.80495
8.80179
8.79846
8.79496
8.79125
8.78731
8.78309
8.77855
8.77362
8.76821
8.76215
8.75523
8.74705
8.73696
8.72385
8.70583
8.68113
8.646
8.61483
0.119735
1.2447
3.24664
5.18745
6.56816
7.41427
7.91693
8.21895
8.40599
8.52543
8.60403
8.65787
8.69422
8.71978
8.73806
8.75077
8.7599
8.76646
8.77107
8.7736
8.77482
8.77538
8.77556
8.77549
8.7752
8.77465
8.77358
8.77218
8.77063
8.76907
8.76756
8.76614
8.76483
8.76362
8.7625
8.76146
8.76048
8.75952
8.75851
8.75746
8.75638
8.75528
8.7542
8.75313
8.7521
8.75109
8.75012
8.74918
8.74826
8.74735
8.74644
8.74543
8.74433
8.74314
8.74185
8.74045
8.73892
8.73724
8.73539
8.73334
8.73101
8.72851
8.7255
8.72305
8.72039
8.71763
8.71471
8.71166
8.70847
8.70512
8.70161
8.69792
8.69403
8.68991
8.68553
8.68087
8.67585
8.67042
8.66446
8.65782
8.65025
8.64137
8.63054
8.61678
8.59861
8.57483
8.54349
8.515
0.0282483
0.498138
1.89474
3.61088
5.14299
6.25843
6.99202
7.46824
7.78205
7.9928
8.13857
8.24344
8.31951
8.37626
8.41971
8.45285
8.47918
8.5003
8.51737
8.53094
8.54206
8.55143
8.55948
8.56642
8.57241
8.57749
8.58151
8.58477
8.58751
8.58991
8.59206
8.59402
8.59584
8.59753
8.5991
8.60056
8.60191
8.6031
8.60408
8.60489
8.60555
8.60609
8.60654
8.60692
8.60723
8.6075
8.60773
8.6079
8.60803
8.60811
8.60812
8.60798
8.60767
8.60721
8.60658
8.60577
8.60476
8.60354
8.60206
8.60032
8.59823
8.59588
8.593
8.59064
8.58805
8.58532
8.58238
8.57927
8.57598
8.57251
8.56883
8.56495
8.56083
8.55647
8.55182
8.54684
8.54149
8.53567
8.52928
8.52215
8.51403
8.50455
8.49313
8.47895
8.46093
8.4384
8.41063
8.38471
0.00523424
0.125542
0.824365
2.1194
3.51977
4.77384
5.74077
6.42981
6.91334
7.25298
7.49689
7.67704
7.81102
7.91314
7.99335
8.05697
8.1084
8.15044
8.18523
8.21377
8.23798
8.25895
8.27725
8.29328
8.30736
8.3197
8.33038
8.33976
8.34814
8.35572
8.36265
8.36902
8.3749
8.38034
8.38539
8.39007
8.39441
8.39837
8.40193
8.40514
8.40806
8.41073
8.41319
8.41545
8.41754
8.41948
8.42128
8.42293
8.42444
8.42582
8.42705
8.42809
8.42888
8.42942
8.42972
8.42977
8.42954
8.42903
8.42819
8.427
8.4254
8.42343
8.42093
8.4188
8.4164
8.41383
8.41102
8.408
8.40475
8.40129
8.39758
8.39364
8.38942
8.38492
8.3801
8.37491
8.36929
8.36317
8.35641
8.34885
8.34026
8.33027
8.3184
8.30402
8.28644
8.2654
8.24087
8.21729
0.000816158
0.0197695
0.217653
0.899588
1.9689
3.10375
4.15848
5.02894
5.71014
6.21752
6.59769
6.88664
7.10621
7.27652
7.41229
7.52133
7.60986
7.68264
7.74338
7.79452
7.83836
7.87639
7.90958
7.93867
7.96427
7.98681
8.00642
8.02393
8.03974
8.05414
8.06733
8.07945
8.09063
8.10095
8.1105
8.11934
8.12752
8.13506
8.14199
8.14837
8.15427
8.15973
8.16481
8.16955
8.17397
8.1781
8.18195
8.18554
8.18888
8.19198
8.19482
8.19741
8.19965
8.20155
8.20311
8.20432
8.20518
8.20565
8.20571
8.20535
8.20447
8.20314
8.20122
8.19945
8.19737
8.19508
8.19251
8.18968
8.18658
8.18323
8.17959
8.17567
8.17144
8.16687
8.16194
8.15659
8.15076
8.14436
8.13727
8.12932
8.12029
8.10989
8.09772
8.08336
8.06644
8.047
8.0253
8.00378
0.000128959
0.00230142
0.0316517
0.21656
0.737781
1.54714
2.46185
3.34152
4.13381
4.79708
5.33688
5.77057
6.10946
6.37895
6.59785
6.77558
6.92067
7.04057
7.14128
7.227
7.30065
7.36435
7.41973
7.46814
7.5107
7.54831
7.58157
7.61136
7.63831
7.66283
7.68523
7.70576
7.72462
7.74197
7.75795
7.77271
7.78634
7.79883
7.81029
7.82088
7.83071
7.83987
7.84841
7.8564
7.86387
7.87088
7.87744
7.88358
7.88932
7.89467
7.89964
7.90424
7.9084
7.91208
7.91529
7.91804
7.92032
7.9221
7.92336
7.92408
7.92419
7.92373
7.92261
7.92135
7.91971
7.9178
7.91556
7.91301
7.91014
7.90696
7.90344
7.89958
7.89537
7.89076
7.88573
7.88023
7.87418
7.86749
7.86006
7.85172
7.8423
7.83155
7.81921
7.80503
7.78891
7.77102
7.75169
7.73185
4.1568e-05
0.000232814
0.00303827
0.0266224
0.140883
0.452126
0.98801
1.67605
2.39191
3.07478
3.69545
4.24589
4.71246
5.10464
5.43705
5.71203
5.9397
6.13036
6.29228
6.43172
6.55185
6.65549
6.74536
6.82381
6.89278
6.95384
7.00819
7.05701
7.10114
7.14118
7.17761
7.21084
7.24122
7.26904
7.29458
7.31808
7.33974
7.35969
7.37807
7.39509
7.41088
7.42559
7.43933
7.45218
7.46421
7.4755
7.48608
7.496
7.50529
7.51398
7.52208
7.52963
7.53662
7.54296
7.54864
7.55368
7.55807
7.56181
7.56486
7.5672
7.56874
7.56949
7.56944
7.56881
7.5677
7.56624
7.56439
7.56214
7.55949
7.55645
7.553
7.54913
7.54482
7.54005
7.53479
7.529
7.52262
7.51555
7.50769
7.49891
7.48906
7.47798
7.46551
7.45157
7.4362
7.41963
7.40212
7.38344
3.25186e-05
3.75984e-05
0.000240647
0.00208564
0.0132487
0.0601068
0.19399
0.467313
0.876961
1.38592
1.94159
2.47467
2.97755
3.43735
3.8529
4.22289
4.54586
4.82658
5.07207
5.28869
5.47669
5.63957
5.78165
5.90637
6.01659
6.1147
6.20262
6.28198
6.35372
6.41857
6.47729
6.53059
6.57911
6.6234
6.66395
6.70117
6.73544
6.76704
6.79623
6.82326
6.84838
6.87177
6.89362
6.91406
6.9332
6.95114
6.96796
6.98373
6.99849
7.01232
7.02524
7.0373
7.04855
7.05893
7.06836
7.07687
7.08446
7.09112
7.09684
7.10162
7.10538
7.10813
7.10985
7.11036
7.11025
7.10965
7.10853
7.1069
7.10478
7.10216
7.09904
7.09541
7.09128
7.08662
7.08137
7.07537
7.0686
7.061
7.0525
7.04306
7.03262
7.02109
7.00838
6.99452
6.97962
6.96392
6.94754
6.92934
3.17605e-05
2.27059e-05
2.96098e-05
0.000137476
0.000829912
0.00411979
0.0165453
0.0540498
0.141046
0.303077
0.554609
0.874873
1.24813
1.65056
2.05148
2.43381
2.79287
3.12472
3.42863
3.70572
3.95947
4.18917
4.39581
4.58141
4.74845
4.8995
5.03688
5.16242
5.27578
5.37797
5.47053
5.55464
5.63134
5.70147
5.76578
5.8249
5.87942
5.92981
5.97651
6.01987
6.06025
6.09794
6.13318
6.16617
6.19702
6.22589
6.25291
6.2782
6.30186
6.32399
6.34468
6.36399
6.38199
6.39884
6.41428
6.42833
6.44103
6.45239
6.46239
6.47105
6.47832
6.48419
6.48867
6.49085
6.49222
6.49287
6.49284
6.49211
6.49073
6.48868
6.48598
6.48264
6.47866
6.47402
6.46871
6.46267
6.45588
6.4483
6.4399
6.4305
6.41991
6.40815
6.39526
6.38143
6.36678
6.35152
6.33568
6.31731
3.17099e-05
2.17904e-05
1.69035e-05
1.88541e-05
5.01416e-05
0.000210107
0.000846822
0.00300963
0.00931327
0.0252133
0.0598894
0.123574
0.226463
0.375473
0.568243
0.794941
1.04841
1.31955
1.59835
1.87588
2.14131
2.39326
2.6304
2.8521
3.05839
3.24989
3.42751
3.59226
3.74459
3.88682
4.01904
4.14165
4.25522
4.36038
4.45782
4.5482
4.63218
4.71037
4.78331
4.85153
4.91545
4.97544
5.03182
5.08454
5.13362
5.17939
5.22213
5.26208
5.29946
5.33443
5.36715
5.39775
5.42635
5.45306
5.4781
5.50107
5.52203
5.54101
5.55802
5.57307
5.58615
5.59724
5.60636
5.61137
5.61523
5.61808
5.61994
5.62086
5.62084
5.61993
5.61814
5.61549
5.61199
5.60766
5.60248
5.59648
5.58964
5.58197
5.57346
5.56407
5.55376
5.54256
5.53049
5.51738
5.50341
5.48876
5.47347
5.45512
3.17078e-05
2.17455e-05
1.62947e-05
1.31301e-05
1.21651e-05
1.67799e-05
4.0325e-05
0.000124387
0.00037942
0.00106931
0.00277598
0.00659797
0.0144167
0.0290661
0.0540449
0.0928848
0.148973
0.224963
0.322245
0.440751
0.575207
0.722927
0.881226
1.0472
1.21784
1.3902
1.56159
1.7299
1.89515
2.05273
2.20266
2.34498
2.4798
2.60728
2.72767
2.84123
2.94829
3.04921
3.14434
3.23403
3.31865
3.39851
3.47392
3.54506
3.61209
3.67526
3.73479
3.79119
3.84463
3.89522
3.94304
3.98818
4.03072
4.07075
4.10843
4.14396
4.17679
4.20695
4.23447
4.25932
4.2815
4.30097
4.31774
4.32749
4.33568
4.34246
4.34788
4.35199
4.35485
4.35649
4.35697
4.35632
4.35458
4.35178
4.34796
4.34316
4.33739
4.3307
4.32312
4.31468
4.30543
4.29546
4.28485
4.27355
4.26164
4.24915
4.2359
4.21965
3.17085e-05
2.1744e-05
1.62718e-05
1.29124e-05
1.07095e-05
9.31313e-06
8.89074e-06
1.05766e-05
1.77103e-05
3.85252e-05
9.1575e-05
0.000214383
0.000478052
0.00101054
0.0020267
0.00385911
0.00699232
0.0120829
0.0199583
0.031593
0.047877
0.0696646
0.0977237
0.132672
0.17492
0.224632
0.281717
0.345852
0.416605
0.49186
0.570878
0.65293
0.73731
0.823339
0.910376
0.997819
1.08511
1.17175
1.25728
1.34131
1.42351
1.50363
1.58147
1.65718
1.73089
1.80245
1.87175
1.93807
2.00131
2.06156
2.11892
2.17344
2.22521
2.27428
2.3207
2.36469
2.40636
2.44526
2.48139
2.51469
2.54513
2.57266
2.59719
2.61199
2.62506
2.6365
2.6464
2.65481
2.66181
2.66745
2.6718
2.67492
2.67686
2.67769
2.67746
2.67623
2.67405
2.67099
2.66709
2.66243
2.65705
2.65094
2.64411
2.63664
2.62858
2.61997
2.61075
2.59959
3.17094e-05
2.17443e-05
1.62714e-05
1.2906e-05
1.06661e-05
9.08853e-06
7.93836e-06
7.10633e-06
6.58932e-06
6.53171e-06
7.34375e-06
9.91757e-06
1.59937e-05
2.87554e-05
5.36955e-05
9.97538e-05
0.000180852
0.000317893
0.000541385
0.000894732
0.00143555
0.00223809
0.00339471
0.00501602
0.00722955
0.0101769
0.0140096
0.0188846
0.0249601
0.0323525
0.0411633
0.0514748
0.0633489
0.0768244
0.0919165
0.108616
0.126891
0.146686
0.167927
0.190521
0.214359
0.239323
0.265282
0.29211
0.319682
0.347868
0.376534
0.405337
0.434091
0.462668
0.490947
0.518809
0.546138
0.572823
0.598751
0.623814
0.648102
0.671718
0.694569
0.716559
0.737592
0.75757
0.776393
0.788225
0.799199
0.809341
0.81867
0.827206
0.834972
0.841992
0.848292
0.853899
0.858842
0.863151
0.866855
0.869987
0.87258
0.874668
0.876285
0.877465
0.878244
0.878626
0.878622
0.878269
0.877602
0.876655
0.875457
0.874003
3.17105e-05
2.17447e-05
1.62716e-05
1.2906e-05
1.06652e-05
9.0834e-06
7.91624e-06
7.02515e-06
6.32735e-06
5.77275e-06
5.33379e-06
5.00271e-06
4.79457e-06
4.75598e-06
4.98039e-06
5.62994e-06
6.96551e-06
9.38627e-06
1.34817e-05
2.00974e-05
3.03982e-05
4.59392e-05
6.87411e-05
0.000101368
0.00014701
0.00020956
0.000293706
0.00040501
0.000549966
0.000735803
0.000970492
0.00126262
0.00162126
0.00205585
0.00257591
0.00319088
0.00390986
0.00474134
0.00569294
0.0067712
0.00798129
0.0093268
0.0108095
0.0124293
0.0141839
0.0160688
0.0180768
0.0201959
0.0224113
0.0247051
0.0270565
0.0294416
0.0318333
0.0342015
0.0365128
0.0387244
0.0408785
0.0430733
0.0452972
0.047538
0.0497825
0.0520168
0.0542269
0.0556613
0.0570379
0.0583552
0.0596112
0.0608048
0.0619349
0.0630013
0.064004
0.0649434
0.0658205
0.0666362
0.0673923
0.0680904
0.0687327
0.0693214
0.0698591
0.0703484
0.0707922
0.0711932
0.0715544
0.0718786
0.0721689
0.0724281
0.0726593
0.0728859
3.17116e-05
2.17451e-05
1.62719e-05
1.29062e-05
1.06653e-05
9.08337e-06
7.91591e-06
7.02376e-06
6.32274e-06
5.75924e-06
5.29777e-06
4.91406e-06
4.59121e-06
4.31742e-06
4.08474e-06
3.88841e-06
3.72666e-06
3.60087e-06
3.51597e-06
3.48115e-06
3.51075e-06
3.62527e-06
3.85243e-06
4.22837e-06
4.79886e-06
5.62049e-06
6.76193e-06
8.30515e-06
1.03461e-05
1.29948e-05
1.63757e-05
2.0626e-05
2.58953e-05
3.23434e-05
4.0138e-05
4.94524e-05
6.04612e-05
7.33363e-05
8.82412e-05
0.000105324
0.00012471
0.000146493
0.000170719
0.000197379
0.000226392
0.000257585
0.000290671
0.000325223
0.000360663
0.000396235
0.000430984
0.000463741
0.00049311
0.000517462
0.000534826
0.000548199
0.000562346
0.000577229
0.000592799
0.000608992
0.000625731
0.000642927
0.000660474
0.000672097
0.000683486
0.000694601
0.00070541
0.000715883
0.000725995
0.000735727
0.000745061
0.000753986
0.000762494
0.00077058
0.000778245
0.000785489
0.000792321
0.000798746
0.000804777
0.000810425
0.000815705
0.000820632
0.000825222
0.000829492
0.000833459
0.00083714
0.000840553
0.000843953
3.17128e-05
2.17455e-05
1.62721e-05
1.29064e-05
1.06654e-05
9.08344e-06
7.91595e-06
7.02378e-06
6.32271e-06
5.75909e-06
5.29732e-06
4.91291e-06
4.58853e-06
4.31159e-06
4.07275e-06
3.86495e-06
3.68279e-06
3.52205e-06
3.37944e-06
3.25237e-06
3.13881e-06
3.03719e-06
2.94631e-06
2.86531e-06
2.79362e-06
2.73096e-06
2.67729e-06
2.6328e-06
2.59794e-06
2.57336e-06
2.55995e-06
2.55876e-06
2.57104e-06
2.59821e-06
2.64177e-06
2.70332e-06
2.78451e-06
2.88691e-06
3.012e-06
3.16102e-06
3.33485e-06
3.53385e-06
3.75769e-06
4.00509e-06
4.27358e-06
4.55921e-06
4.85618e-06
5.1566e-06
5.45027e-06
5.72449e-06
5.96404e-06
6.15141e-06
6.267e-06
6.29033e-06
6.29759e-06
6.30483e-06
6.31192e-06
6.31868e-06
6.32495e-06
6.33055e-06
6.33529e-06
6.33897e-06
6.34134e-06
6.34229e-06
6.34255e-06
6.34208e-06
6.34091e-06
6.33905e-06
6.33652e-06
6.33334e-06
6.32955e-06
6.32518e-06
6.32026e-06
6.31484e-06
6.30897e-06
6.30268e-06
6.29604e-06
6.28907e-06
6.28183e-06
6.27437e-06
6.26673e-06
6.25895e-06
6.25107e-06
6.24313e-06
6.23516e-06
6.22719e-06
6.21926e-06
6.21325e-06
3.17138e-05
2.17459e-05
1.62724e-05
1.29065e-05
1.06655e-05
9.08351e-06
7.916e-06
7.02381e-06
6.32273e-06
5.75911e-06
5.29733e-06
4.91291e-06
4.58851e-06
4.31154e-06
4.07264e-06
3.86474e-06
3.68238e-06
3.5213e-06
3.37814e-06
3.25018e-06
3.13523e-06
3.03151e-06
2.93751e-06
2.85202e-06
2.774e-06
2.70256e-06
2.63698e-06
2.57662e-06
2.52093e-06
2.46944e-06
2.42175e-06
2.37751e-06
2.33641e-06
2.29818e-06
2.26258e-06
2.22941e-06
2.19849e-06
2.16965e-06
2.14275e-06
2.11765e-06
2.09423e-06
2.07238e-06
2.05198e-06
2.03293e-06
2.0151e-06
1.9984e-06
1.98267e-06
1.96779e-06
1.95361e-06
1.93997e-06
1.92668e-06
1.91359e-06
1.90084e-06
1.88872e-06
1.87718e-06
1.86619e-06
1.85573e-06
1.84575e-06
1.83623e-06
1.82716e-06
1.8185e-06
1.81024e-06
1.80235e-06
1.79734e-06
1.7926e-06
1.78813e-06
1.7839e-06
1.7799e-06
1.77612e-06
1.77256e-06
1.76919e-06
1.766e-06
1.76299e-06
1.76015e-06
1.75747e-06
1.75494e-06
1.75254e-06
1.75028e-06
1.74815e-06
1.74613e-06
1.74422e-06
1.74242e-06
1.74072e-06
1.73911e-06
1.73759e-06
1.73616e-06
1.7348e-06
1.73352e-06
3.17146e-05
2.17462e-05
1.62725e-05
1.29066e-05
1.06655e-05
9.08355e-06
7.91603e-06
7.02384e-06
6.32275e-06
5.75912e-06
5.29734e-06
4.91292e-06
4.58852e-06
4.31155e-06
4.07265e-06
3.86474e-06
3.68238e-06
3.5213e-06
3.37813e-06
3.25017e-06
3.13521e-06
3.03147e-06
2.93746e-06
2.85194e-06
2.77387e-06
2.70239e-06
2.63673e-06
2.57626e-06
2.52043e-06
2.46877e-06
2.42086e-06
2.37634e-06
2.33489e-06
2.29623e-06
2.26012e-06
2.22633e-06
2.19467e-06
2.16497e-06
2.13707e-06
2.11082e-06
2.08611e-06
2.06282e-06
2.04085e-06
2.02009e-06
2.00047e-06
1.98191e-06
1.96434e-06
1.94768e-06
1.93188e-06
1.91689e-06
1.90266e-06
1.88913e-06
1.87627e-06
1.86404e-06
1.85241e-06
1.84133e-06
1.83078e-06
1.82072e-06
1.81114e-06
1.80201e-06
1.7933e-06
1.78501e-06
1.77709e-06
1.77206e-06
1.76731e-06
1.76283e-06
1.75859e-06
1.75459e-06
1.75082e-06
1.74725e-06
1.74389e-06
1.74071e-06
1.73771e-06
1.73488e-06
1.7322e-06
1.72968e-06
1.72729e-06
1.72504e-06
1.72292e-06
1.72091e-06
1.71902e-06
1.71723e-06
1.71553e-06
1.71394e-06
1.71243e-06
1.711e-06
1.70965e-06
1.70838e-06
3.1715e-05
2.17463e-05
1.62726e-05
1.29067e-05
1.06656e-05
9.08357e-06
7.91604e-06
7.02385e-06
6.32276e-06
5.75913e-06
5.29735e-06
4.91293e-06
4.58853e-06
4.31155e-06
4.07265e-06
3.86474e-06
3.68238e-06
3.5213e-06
3.37813e-06
3.25017e-06
3.13521e-06
3.03147e-06
2.93746e-06
2.85194e-06
2.77387e-06
2.70239e-06
2.63673e-06
2.57626e-06
2.52043e-06
2.46877e-06
2.42086e-06
2.37633e-06
2.33488e-06
2.29622e-06
2.26011e-06
2.22631e-06
2.19465e-06
2.16495e-06
2.13704e-06
2.11079e-06
2.08608e-06
2.06278e-06
2.0408e-06
2.02003e-06
2.00041e-06
1.98184e-06
1.96425e-06
1.94759e-06
1.93179e-06
1.91679e-06
1.90256e-06
1.88903e-06
1.87617e-06
1.86393e-06
1.85229e-06
1.84121e-06
1.83065e-06
1.82059e-06
1.811e-06
1.80186e-06
1.79315e-06
1.78484e-06
1.77691e-06
1.77186e-06
1.76711e-06
1.76261e-06
1.75836e-06
1.75435e-06
1.75056e-06
1.74698e-06
1.7436e-06
1.7404e-06
1.73739e-06
1.73453e-06
1.73184e-06
1.72929e-06
1.72689e-06
1.72462e-06
1.72247e-06
1.72044e-06
1.71852e-06
1.71671e-06
1.715e-06
1.71339e-06
1.71186e-06
1.71041e-06
1.70905e-06
1.70776e-06
3.1715e-05
2.17463e-05
1.62726e-05
1.29067e-05
1.06656e-05
9.08357e-06
7.91604e-06
7.02385e-06
6.32276e-06
5.75913e-06
5.29735e-06
4.91293e-06
4.58852e-06
4.31155e-06
4.07265e-06
3.86474e-06
3.68238e-06
3.5213e-06
3.37813e-06
3.25017e-06
3.13521e-06
3.03147e-06
2.93746e-06
2.85194e-06
2.77387e-06
2.70238e-06
2.63673e-06
2.57626e-06
2.52043e-06
2.46877e-06
2.42086e-06
2.37633e-06
2.33488e-06
2.29622e-06
2.26011e-06
2.22631e-06
2.19465e-06
2.16495e-06
2.13704e-06
2.11079e-06
2.08608e-06
2.06278e-06
2.04079e-06
2.02003e-06
2.0004e-06
1.98183e-06
1.96425e-06
1.94758e-06
1.93178e-06
1.91679e-06
1.90255e-06
1.88902e-06
1.87615e-06
1.86392e-06
1.85227e-06
1.84119e-06
1.83062e-06
1.82056e-06
1.81097e-06
1.80183e-06
1.79311e-06
1.7848e-06
1.77688e-06
1.77184e-06
1.7671e-06
1.76262e-06
1.75839e-06
1.75441e-06
1.75066e-06
1.74713e-06
1.74381e-06
1.74069e-06
1.73776e-06
1.73502e-06
1.73245e-06
1.73006e-06
1.72783e-06
1.72576e-06
1.72383e-06
1.72206e-06
1.72042e-06
1.71892e-06
1.71755e-06
1.7163e-06
1.71517e-06
1.71415e-06
1.71324e-06
1.71243e-06
3.17146e-05
2.17462e-05
1.62725e-05
1.29066e-05
1.06655e-05
9.08355e-06
7.91603e-06
7.02384e-06
6.32275e-06
5.75912e-06
5.29734e-06
4.91292e-06
4.58852e-06
4.31155e-06
4.07265e-06
3.86474e-06
3.68238e-06
3.5213e-06
3.37813e-06
3.25017e-06
3.13521e-06
3.03147e-06
2.93746e-06
2.85194e-06
2.77387e-06
2.70238e-06
2.63673e-06
2.57626e-06
2.52043e-06
2.46877e-06
2.42086e-06
2.37634e-06
2.33489e-06
2.29623e-06
2.26011e-06
2.22632e-06
2.19466e-06
2.16496e-06
2.13705e-06
2.11081e-06
2.0861e-06
2.0628e-06
2.04082e-06
2.02007e-06
2.00045e-06
1.98189e-06
1.96431e-06
1.94766e-06
1.93188e-06
1.9169e-06
1.90269e-06
1.8892e-06
1.87638e-06
1.86421e-06
1.85266e-06
1.8417e-06
1.83133e-06
1.82152e-06
1.8123e-06
1.80369e-06
1.79574e-06
1.78854e-06
1.7822e-06
1.77849e-06
1.77534e-06
1.77281e-06
1.77092e-06
1.76971e-06
1.76923e-06
1.76953e-06
1.77065e-06
1.77264e-06
1.77553e-06
1.77937e-06
1.78418e-06
1.79e-06
1.79685e-06
1.80473e-06
1.81365e-06
1.82361e-06
1.83458e-06
1.84655e-06
1.85949e-06
1.87336e-06
1.88812e-06
1.9037e-06
1.92006e-06
1.93716e-06
3.17139e-05
2.17459e-05
1.62724e-05
1.29065e-05
1.06655e-05
9.08351e-06
7.916e-06
7.02381e-06
6.32273e-06
5.75911e-06
5.29733e-06
4.91291e-06
4.58851e-06
4.31154e-06
4.07264e-06
3.86474e-06
3.68238e-06
3.5213e-06
3.37813e-06
3.25017e-06
3.13522e-06
3.03149e-06
2.93748e-06
2.85198e-06
2.77393e-06
2.70247e-06
2.63685e-06
2.57644e-06
2.52068e-06
2.46911e-06
2.42131e-06
2.37694e-06
2.33567e-06
2.29724e-06
2.2614e-06
2.22795e-06
2.1967e-06
2.16748e-06
2.14016e-06
2.11459e-06
2.09068e-06
2.06832e-06
2.04743e-06