/*--------------------------------*- C++ -*----------------------------------*\
| =========                 |                                                 |
| \\      /  F ield         | OpenFOAM: The Open Source CFD Toolbox           |
|  \\    /   O peration     | Version:  5.x                                   |
|   \\  /    A nd           | Web:      www.OpenFOAM.org                      |
|    \\/     M anipulation  |                                                 |
\*---------------------------------------------------------------------------*/
FoamFile
{
    version     2.0;
    format      ascii;
    class       volScalarField;
    location    "871";
    object      nut;
}
// * * * * * * * * * * * * * * * * * * * * * * * * * * * * * * * * * * * * * //

dimensions      [0 2 -1 0 0 0 0];

internalField   nonuniform List<scalar> 
20540
(
5.56952e-09
7.1945e-09
5.56952e-09
7.33854e-09
5.56952e-09
7.7225e-09
5.56952e-09
8.34119e-09
5.56952e-09
9.0948e-09
5.56952e-09
9.83324e-09
5.56952e-09
1.03778e-08
5.56952e-09
1.05654e-08
5.56952e-09
1.0322e-08
5.56952e-09
9.69625e-09
5.56952e-09
8.70062e-09
5.56952e-09
7.48937e-09
5.56952e-09
6.41933e-09
5.56952e-09
5.73597e-09
5.56952e-09
5.43711e-09
5.56952e-09
5.34969e-09
5.56952e-09
5.33093e-09
5.56952e-09
5.32767e-09
5.56952e-09
5.3272e-09
5.56952e-09
5.32714e-09
5.56952e-09
5.32714e-09
5.56952e-09
5.32714e-09
5.56952e-09
5.32714e-09
5.56952e-09
5.32714e-09
5.56952e-09
5.32715e-09
5.56952e-09
5.32715e-09
5.56952e-09
5.32716e-09
5.56952e-09
5.32717e-09
5.56952e-09
5.32717e-09
5.56952e-09
5.32718e-09
5.56952e-09
5.32718e-09
5.56952e-09
5.32719e-09
5.56952e-09
5.32719e-09
5.56952e-09
5.32718e-09
5.56952e-09
5.32718e-09
5.56952e-09
5.32717e-09
5.56952e-09
5.32717e-09
5.56952e-09
5.32716e-09
5.56952e-09
5.32716e-09
5.56952e-09
5.32715e-09
5.56952e-09
5.32715e-09
5.56952e-09
5.32714e-09
5.56952e-09
5.32714e-09
5.56952e-09
5.32714e-09
5.56952e-09
5.32714e-09
5.56952e-09
5.32716e-09
5.56952e-09
5.32734e-09
5.56952e-09
5.32866e-09
5.56952e-09
5.33659e-09
5.56952e-09
5.37652e-09
5.56952e-09
5.53411e-09
5.56952e-09
5.97244e-09
5.56952e-09
6.80231e-09
5.56952e-09
7.92888e-09
5.56952e-09
9.07014e-09
5.56952e-09
9.91332e-09
5.56952e-09
1.0422e-08
5.56952e-09
1.0552e-08
5.56952e-09
1.02872e-08
5.56952e-09
9.71039e-09
5.56952e-09
8.98218e-09
5.56952e-09
8.26084e-09
5.56952e-09
7.67971e-09
5.56952e-09
7.32361e-09
5.56952e-09
7.18902e-09
3.34355e-09
3.63553e-09
3.24824e-09
2.94941e-09
2.73031e-09
2.56978e-09
2.44779e-09
2.35232e-09
2.27522e-09
2.21184e-09
2.15875e-09
2.11384e-09
2.07517e-09
2.04165e-09
2.0124e-09
1.98655e-09
1.96359e-09
1.94315e-09
1.92486e-09
1.90835e-09
1.89337e-09
1.87976e-09
1.86736e-09
1.85606e-09
1.84574e-09
1.83628e-09
1.82755e-09
1.81947e-09
1.81196e-09
1.805e-09
1.79854e-09
1.79253e-09
1.78695e-09
1.78175e-09
1.77692e-09
1.77241e-09
1.76822e-09
1.76431e-09
1.76067e-09
1.75727e-09
1.75411e-09
1.75118e-09
1.74848e-09
1.74601e-09
1.74379e-09
1.74181e-09
1.74011e-09
1.7387e-09
1.7376e-09
1.73686e-09
1.73651e-09
1.73657e-09
1.73712e-09
1.7382e-09
1.73988e-09
1.74223e-09
1.74533e-09
1.74926e-09
1.75413e-09
1.76004e-09
1.76712e-09
1.77564e-09
1.78578e-09
1.79332e-09
1.8015e-09
1.8104e-09
1.81985e-09
1.82984e-09
1.84046e-09
1.85173e-09
1.86368e-09
1.87635e-09
1.88978e-09
1.90402e-09
1.91913e-09
1.93521e-09
1.95235e-09
1.97071e-09
1.99053e-09
2.01213e-09
2.03605e-09
2.06319e-09
2.09531e-09
2.13631e-09
2.19594e-09
2.30961e-09
2.60795e-09
4.10817e-09
6.01578e-07
6.79283e-07
6.15019e-07
5.62784e-07
5.23841e-07
4.95043e-07
4.73017e-07
4.55698e-07
4.41656e-07
4.30077e-07
4.20354e-07
4.1211e-07
4.04998e-07
3.98823e-07
3.93428e-07
3.88653e-07
3.84409e-07
3.80625e-07
3.77237e-07
3.74177e-07
3.71398e-07
3.6887e-07
3.66568e-07
3.64468e-07
3.62549e-07
3.60788e-07
3.59164e-07
3.57659e-07
3.56262e-07
3.54964e-07
3.53759e-07
3.5264e-07
3.51599e-07
3.5063e-07
3.49728e-07
3.48888e-07
3.48105e-07
3.47375e-07
3.46694e-07
3.4606e-07
3.45469e-07
3.44921e-07
3.44416e-07
3.43955e-07
3.43538e-07
3.43168e-07
3.42847e-07
3.42581e-07
3.42375e-07
3.42233e-07
3.42161e-07
3.42167e-07
3.42261e-07
3.42454e-07
3.42757e-07
3.43183e-07
3.43746e-07
3.44462e-07
3.45349e-07
3.46428e-07
3.47719e-07
3.49274e-07
3.51113e-07
3.52469e-07
3.53959e-07
3.55583e-07
3.57301e-07
3.59116e-07
3.6104e-07
3.63079e-07
3.6524e-07
3.67527e-07
3.69946e-07
3.72508e-07
3.75221e-07
3.78101e-07
3.81165e-07
3.8444e-07
3.87963e-07
3.9179e-07
3.96011e-07
4.0078e-07
4.06393e-07
4.13511e-07
4.23775e-07
4.43096e-07
4.90722e-07
6.70834e-07
8.31856e-06
1.01532e-05
9.68881e-06
9.16364e-06
8.73558e-06
8.40457e-06
8.14377e-06
7.93425e-06
7.76141e-06
7.6169e-06
7.49413e-06
7.38903e-06
7.29759e-06
7.21763e-06
7.14733e-06
7.08475e-06
7.02884e-06
6.97879e-06
6.93381e-06
6.89303e-06
6.85586e-06
6.82195e-06
6.79098e-06
6.76268e-06
6.73675e-06
6.71293e-06
6.6909e-06
6.67045e-06
6.65143e-06
6.63374e-06
6.61728e-06
6.60198e-06
6.58773e-06
6.57446e-06
6.56209e-06
6.55055e-06
6.5398e-06
6.52975e-06
6.52038e-06
6.51162e-06
6.50346e-06
6.49587e-06
6.48886e-06
6.48243e-06
6.4766e-06
6.47139e-06
6.46685e-06
6.46302e-06
6.45997e-06
6.45778e-06
6.45644e-06
6.45611e-06
6.4569e-06
6.45896e-06
6.46242e-06
6.46744e-06
6.47419e-06
6.48286e-06
6.49366e-06
6.50686e-06
6.52264e-06
6.54181e-06
6.56383e-06
6.5796e-06
6.59747e-06
6.6173e-06
6.63821e-06
6.66012e-06
6.68316e-06
6.70745e-06
6.73304e-06
6.75996e-06
6.78828e-06
6.81806e-06
6.84939e-06
6.88239e-06
6.91721e-06
6.9541e-06
6.99338e-06
7.03557e-06
7.08152e-06
7.1327e-06
7.19192e-06
7.26559e-06
7.36886e-06
7.55524e-06
7.95494e-06
9.1206e-06
2.14609e-05
2.88991e-05
2.95562e-05
2.89893e-05
2.83182e-05
2.77416e-05
2.72639e-05
2.68691e-05
2.65366e-05
2.62548e-05
2.60124e-05
2.58033e-05
2.56197e-05
2.54583e-05
2.53157e-05
2.51881e-05
2.50735e-05
2.49707e-05
2.48781e-05
2.47938e-05
2.47167e-05
2.46462e-05
2.45818e-05
2.45228e-05
2.44687e-05
2.4419e-05
2.43729e-05
2.433e-05
2.429e-05
2.42528e-05
2.42181e-05
2.41859e-05
2.41559e-05
2.41279e-05
2.41018e-05
2.40774e-05
2.40547e-05
2.40335e-05
2.40136e-05
2.39949e-05
2.39775e-05
2.39611e-05
2.39459e-05
2.39319e-05
2.39189e-05
2.39072e-05
2.38966e-05
2.38874e-05
2.38794e-05
2.3873e-05
2.38678e-05
2.38642e-05
2.38623e-05
2.38624e-05
2.38646e-05
2.38692e-05
2.38764e-05
2.38864e-05
2.38995e-05
2.39161e-05
2.39362e-05
2.39618e-05
2.39891e-05
2.40061e-05
2.40247e-05
2.40494e-05
2.40777e-05
2.4107e-05
2.4137e-05
2.4168e-05
2.42004e-05
2.42341e-05
2.42693e-05
2.4306e-05
2.43444e-05
2.43846e-05
2.44268e-05
2.44714e-05
2.4519e-05
2.45705e-05
2.46273e-05
2.46926e-05
2.47722e-05
2.488e-05
2.50524e-05
2.54098e-05
2.63731e-05
2.94369e-05
3.81359e-05
5.40202e-05
5.78484e-05
5.80113e-05
5.73663e-05
5.66356e-05
5.59609e-05
5.53782e-05
5.48734e-05
5.44376e-05
5.40577e-05
5.37267e-05
5.34334e-05
5.31739e-05
5.29437e-05
5.27363e-05
5.25495e-05
5.23814e-05
5.22297e-05
5.20912e-05
5.19641e-05
5.18475e-05
5.17409e-05
5.16433e-05
5.15537e-05
5.14712e-05
5.13947e-05
5.13233e-05
5.12567e-05
5.11945e-05
5.11367e-05
5.10828e-05
5.10326e-05
5.09859e-05
5.09423e-05
5.09016e-05
5.08636e-05
5.08281e-05
5.07948e-05
5.07635e-05
5.07341e-05
5.07066e-05
5.06808e-05
5.06569e-05
5.06347e-05
5.06144e-05
5.0596e-05
5.05796e-05
5.05652e-05
5.0553e-05
5.05426e-05
5.05342e-05
5.05283e-05
5.05251e-05
5.05248e-05
5.05277e-05
5.05341e-05
5.05444e-05
5.05588e-05
5.05779e-05
5.06015e-05
5.06329e-05
5.06662e-05
5.06859e-05
5.07026e-05
5.07272e-05
5.07599e-05
5.07953e-05
5.08316e-05
5.08691e-05
5.0908e-05
5.09486e-05
5.0991e-05
5.10355e-05
5.10825e-05
5.11324e-05
5.11857e-05
5.12434e-05
5.13067e-05
5.13779e-05
5.14604e-05
5.15609e-05
5.16924e-05
5.1884e-05
5.22074e-05
5.28808e-05
5.46906e-05
5.87633e-05
5.67279e-05
8.34299e-05
9.32598e-05
9.56372e-05
9.56361e-05
9.50395e-05
9.42855e-05
9.35914e-05
9.29664e-05
9.24141e-05
9.19242e-05
9.14925e-05
9.11056e-05
9.0761e-05
9.04536e-05
9.01749e-05
8.99227e-05
8.96951e-05
8.94893e-05
8.93007e-05
8.91269e-05
8.89673e-05
8.88211e-05
8.86871e-05
8.85642e-05
8.84509e-05
8.83455e-05
8.82469e-05
8.81548e-05
8.80689e-05
8.79887e-05
8.79141e-05
8.78447e-05
8.778e-05
8.77197e-05
8.76634e-05
8.76108e-05
8.75617e-05
8.75155e-05
8.74722e-05
8.74314e-05
8.73932e-05
8.73575e-05
8.73242e-05
8.72935e-05
8.72654e-05
8.724e-05
8.72175e-05
8.71978e-05
8.71814e-05
8.71671e-05
8.71559e-05
8.71481e-05
8.71441e-05
8.71443e-05
8.71491e-05
8.71589e-05
8.71743e-05
8.71956e-05
8.72237e-05
8.7258e-05
8.73054e-05
8.73506e-05
8.73764e-05
8.74071e-05
8.74359e-05
8.7471e-05
8.75121e-05
8.7556e-05
8.7602e-05
8.76504e-05
8.77015e-05
8.77557e-05
8.78136e-05
8.7876e-05
8.79438e-05
8.80182e-05
8.81011e-05
8.81952e-05
8.83046e-05
8.84361e-05
8.86016e-05
8.8824e-05
8.91532e-05
8.96317e-05
9.04513e-05
9.20961e-05
9.67045e-05
7.56831e-05
0.000114783
0.000133616
0.000139911
0.000140952
0.000140823
0.000140324
0.000139729
0.000139125
0.000138556
0.000138029
0.000137552
0.000137114
0.000136717
0.000136359
0.00013603
0.000135729
0.000135457
0.000135209
0.000134981
0.000134769
0.000134573
0.000134394
0.000134229
0.000134078
0.000133938
0.000133808
0.000133686
0.000133571
0.000133464
0.000133364
0.000133271
0.000133184
0.000133103
0.000133028
0.000132958
0.000132892
0.000132831
0.000132773
0.000132719
0.000132668
0.00013262
0.000132575
0.000132533
0.000132494
0.000132459
0.000132427
0.000132398
0.000132373
0.000132352
0.000132333
0.000132318
0.000132307
0.0001323
0.000132299
0.000132303
0.000132312
0.000132329
0.000132352
0.000132384
0.000132423
0.000132479
0.000132532
0.000132562
0.000132597
0.000132641
0.000132696
0.000132758
0.000132824
0.000132894
0.000132969
0.000133048
0.000133132
0.000133222
0.000133318
0.000133422
0.000133536
0.000133661
0.000133801
0.00013396
0.000134147
0.000134374
0.000134664
0.000135066
0.000135677
0.000136792
0.000138873
0.000144243
9.35922e-05
0.000146059
0.000176477
0.000189989
0.000193979
0.000195344
0.000195658
0.000195534
0.000195208
0.000194809
0.000194385
0.000193971
0.000193565
0.000193185
0.000192833
0.000192499
0.000192189
0.000191904
0.000191643
0.000191399
0.000191169
0.000190956
0.000190759
0.000190579
0.000190412
0.000190259
0.000190114
0.000189977
0.000189848
0.000189727
0.000189614
0.000189508
0.00018941
0.000189319
0.000189234
0.000189155
0.000189081
0.000189012
0.000188947
0.000188886
0.000188828
0.000188773
0.000188722
0.000188674
0.00018863
0.00018859
0.000188553
0.000188521
0.000188493
0.00018847
0.00018845
0.000188434
0.000188423
0.000188417
0.000188417
0.000188424
0.000188437
0.000188459
0.00018849
0.000188532
0.000188582
0.000188655
0.000188723
0.000188765
0.000188813
0.000188869
0.000188938
0.000189017
0.000189104
0.000189197
0.000189297
0.000189405
0.000189521
0.000189646
0.000189781
0.00018993
0.000190093
0.000190274
0.000190478
0.000190712
0.000190987
0.00019132
0.000191741
0.000192309
0.000193141
0.000194561
0.000197007
0.000202863
0.000108959
0.000175374
0.000219346
0.000244264
0.000254062
0.000258368
0.00026044
0.000261431
0.000261843
0.000261955
0.000261893
0.000261747
0.000261537
0.000261305
0.000261069
0.000260822
0.00026058
0.000260349
0.000260133
0.000259923
0.000259719
0.000259527
0.000259347
0.000259181
0.000259028
0.000258885
0.000258749
0.000258618
0.000258492
0.000258374
0.000258264
0.00025816
0.000258064
0.000257975
0.000257892
0.000257815
0.000257743
0.000257676
0.000257612
0.000257552
0.000257495
0.000257441
0.00025739
0.000257343
0.000257299
0.00025726
0.000257225
0.000257195
0.000257171
0.000257152
0.000257136
0.000257125
0.00025712
0.000257121
0.00025713
0.000257147
0.000257173
0.000257209
0.000257257
0.000257318
0.000257392
0.000257495
0.000257594
0.00025766
0.000257734
0.000257816
0.000257914
0.000258025
0.000258147
0.000258279
0.000258422
0.000258577
0.000258745
0.000258926
0.000259124
0.000259341
0.00025958
0.000259845
0.000260144
0.000260484
0.000260881
0.000261355
0.000261943
0.000262714
0.000263794
0.000265519
0.00026827
0.000274398
0.000119503
0.000200448
0.000259563
0.000298136
0.000319496
0.000328957
0.000334288
0.000337451
0.000339369
0.000340571
0.000341319
0.000341797
0.000342068
0.000342221
0.000342297
0.000342303
0.000342269
0.000342215
0.000342149
0.000342065
0.000341968
0.000341868
0.000341769
0.000341676
0.000341588
0.000341504
0.000341419
0.000341332
0.000341246
0.000341163
0.000341084
0.00034101
0.000340942
0.000340878
0.000340819
0.000340765
0.000340714
0.000340667
0.000340622
0.000340579
0.000340538
0.000340498
0.000340461
0.000340427
0.000340396
0.00034037
0.000340348
0.000340331
0.00034032
0.000340315
0.000340314
0.000340319
0.000340331
0.000340351
0.00034038
0.00034042
0.000340471
0.000340536
0.000340616
0.000340715
0.00034083
0.000340984
0.000341136
0.000341242
0.00034136
0.000341489
0.000341635
0.000341798
0.000341976
0.00034217
0.000342379
0.000342606
0.000342851
0.000343116
0.000343405
0.000343719
0.000344065
0.000344447
0.000344874
0.000345356
0.000345911
0.000346564
0.000347356
0.000348362
0.000349711
0.000351735
0.000354745
0.000360973
0.000117951
0.000218011
0.000293984
0.000348246
0.000384537
0.000404956
0.000415825
0.000422813
0.000427462
0.000430695
0.000432989
0.000434681
0.000435915
0.000436849
0.000437571
0.000438111
0.000438527
0.000438859
0.000439127
0.000439329
0.00043948
0.000439597
0.000439692
0.000439773
0.000439843
0.000439901
0.000439942
0.000439968
0.000439983
0.000439992
0.000439998
0.000440003
0.000440007
0.000440012
0.000440016
0.000440022
0.000440027
0.000440032
0.000440036
0.000440038
0.000440039
0.000440039
0.000440039
0.00044004
0.000440043
0.000440049
0.00044006
0.000440075
0.000440096
0.000440124
0.000440155
0.000440194
0.000440241
0.000440298
0.000440366
0.000440448
0.000440545
0.000440659
0.000440795
0.000440954
0.000441138
0.00044137
0.000441606
0.000441774
0.000441959
0.000442158
0.000442378
0.00044262
0.000442882
0.000443164
0.000443469
0.000443796
0.000444149
0.000444529
0.000444941
0.000445387
0.000445874
0.000446409
0.000447
0.000447661
0.000448412
0.000449279
0.000450309
0.000451577
0.000453212
0.000455521
0.000458747
0.000464938
0.000100244
0.000223985
0.000318588
0.000390479
0.000443142
0.000479655
0.000502056
0.000515354
0.000524611
0.000531345
0.00053635
0.000540203
0.000543172
0.000545533
0.000547448
0.000548984
0.00055025
0.000551315
0.000552222
0.000552977
0.000553611
0.000554156
0.000554635
0.000555062
0.000555443
0.000555783
0.000556078
0.000556333
0.000556556
0.000556755
0.000556936
0.000557102
0.000557257
0.000557401
0.000557537
0.000557664
0.000557785
0.000557897
0.000558001
0.000558096
0.000558184
0.000558266
0.000558343
0.000558417
0.00055849
0.000558563
0.000558638
0.000558716
0.000558799
0.00055889
0.000558983
0.000559083
0.000559193
0.000559315
0.000559451
0.000559603
0.000559775
0.000559971
0.000560192
0.000560446
0.000560733
0.000561081
0.00056144
0.000561697
0.000561978
0.000562275
0.000562599
0.00056295
0.000563328
0.000563732
0.000564164
0.000564626
0.000565121
0.000565651
0.000566221
0.000566834
0.000567499
0.000568222
0.000569014
0.00056989
0.00057087
0.000571985
0.00057328
0.00057483
0.000576754
0.000579327
0.000582729
0.000588777
7.323e-05
0.000216553
0.00032827
0.000419439
0.000490268
0.00054403
0.000583313
0.00061075
0.000627368
0.000639824
0.000649319
0.000656804
0.000662716
0.000667521
0.000671493
0.000674767
0.000677523
0.00067988
0.000681915
0.000683656
0.000685158
0.000686475
0.000687647
0.000688698
0.000689646
0.000690498
0.000691256
0.000691929
0.000692534
0.000693084
0.000693589
0.000694055
0.000694488
0.000694892
0.000695269
0.000695623
0.000695955
0.000696265
0.000696553
0.000696821
0.00069707
0.000697303
0.000697523
0.000697733
0.000697934
0.000698131
0.000698324
0.000698517
0.000698711
0.000698911
0.000699111
0.000699318
0.000699535
0.000699764
0.000700009
0.000700275
0.000700564
0.000700882
0.000701234
0.000701627
0.000702061
0.000702573
0.000703104
0.000703483
0.000703892
0.000704323
0.000704784
0.000705279
0.000705807
0.000706367
0.000706962
0.000707595
0.000708267
0.000708982
0.000709746
0.000710562
0.000711438
0.000712383
0.000713409
0.00071453
0.000715769
0.000717155
0.000718732
0.000720571
0.000722775
0.000725575
0.000729108
0.000734933
4.23717e-05
0.000195187
0.000317692
0.000428168
0.000519092
0.000591817
0.000649145
0.000693583
0.000727012
0.000750752
0.000767356
0.000780688
0.000791366
0.000800169
0.000807541
0.000813699
0.000818943
0.000823467
0.000827405
0.000830815
0.000833794
0.00083643
0.000838788
0.000840909
0.000842827
0.00084456
0.000846115
0.000847514
0.000848783
0.000849944
0.000851013
0.000852001
0.00085292
0.000853775
0.000854574
0.000855321
0.000856021
0.000856675
0.000857284
0.000857852
0.000858383
0.000858881
0.00085935
0.000859796
0.000860221
0.000860631
0.000861028
0.000861417
0.000861801
0.000862185
0.000862565
0.000862947
0.000863336
0.000863736
0.000864154
0.000864593
0.00086506
0.00086556
0.000866101
0.000866691
0.000867334
0.000868067
0.000868831
0.000869371
0.000869947
0.00087055
0.000871187
0.000871862
0.000872576
0.000873328
0.000874122
0.000874959
0.000875843
0.000876777
0.000877765
0.000878815
0.000879932
0.000881127
0.000882411
0.000883798
0.000885312
0.000886979
0.00088884
0.000890955
0.000893409
0.000896385
0.00089999
0.000905537
1.70089e-05
0.000139832
0.00028618
0.000409532
0.000520962
0.000614569
0.000691577
0.000754518
0.00080568
0.000846479
0.000879057
0.000904618
0.000922694
0.000937808
0.000950602
0.000961367
0.000970609
0.000978637
0.000985671
0.000991806
0.000997204
0.00100201
0.00100632
0.0010102
0.00101372
0.00101692
0.0010198
0.0010224
0.00102478
0.00102696
0.00102897
0.00103084
0.00103257
0.00103418
0.00103568
0.00103709
0.00103841
0.00103964
0.00104078
0.00104186
0.00104286
0.0010438
0.00104469
0.00104553
0.00104633
0.0010471
0.00104783
0.00104855
0.00104924
0.00104993
0.0010506
0.00105126
0.00105193
0.0010526
0.00105328
0.00105398
0.00105471
0.00105548
0.00105629
0.00105715
0.00105808
0.00105911
0.00106018
0.00106093
0.00106172
0.00106253
0.00106339
0.00106428
0.00106522
0.0010662
0.00106722
0.0010683
0.00106942
0.0010706
0.00107184
0.00107314
0.00107452
0.00107598
0.00107753
0.00107919
0.00108098
0.00108291
0.00108504
0.00108739
0.00109004
0.00109312
0.00109672
0.00110193
4.44949e-06
7.59515e-05
0.000232158
0.000364151
0.000488013
0.000602128
0.000699957
0.000783177
0.000853439
0.00091256
0.000962354
0.00100391
0.00103824
0.00106725
0.00109138
0.00110922
0.00112467
0.0011382
0.00115012
0.00116056
0.0011698
0.00117805
0.00118547
0.00119219
0.00119828
0.00120382
0.00120883
0.00121339
0.00121756
0.0012214
0.00122494
0.00122823
0.00123128
0.00123412
0.00123677
0.00123925
0.00124157
0.00124374
0.00124577
0.00124766
0.00124943
0.0012511
0.00125267
0.00125416
0.00125557
0.00125691
0.0012582
0.00125944
0.00126064
0.00126181
0.00126295
0.00126405
0.00126514
0.00126622
0.00126731
0.00126841
0.00126953
0.00127068
0.00127187
0.00127312
0.00127443
0.00127585
0.00127732
0.00127833
0.00127939
0.00128047
0.00128158
0.00128273
0.00128393
0.00128517
0.00128646
0.00128779
0.00128917
0.00129061
0.00129212
0.00129368
0.00129532
0.00129704
0.00129885
0.00130077
0.0013028
0.00130497
0.00130729
0.00130981
0.00131257
0.00131566
0.00131916
0.00132398
8.46779e-07
2.51232e-05
0.000138148
0.0003
0.00042285
0.000546882
0.000662806
0.000766324
0.000857001
0.000936008
0.00100446
0.0010636
0.00111503
0.00115966
0.00119838
0.00123153
0.00126037
0.00128575
0.00130827
0.00132577
0.00134088
0.00135446
0.00136672
0.00137784
0.00138797
0.00139719
0.00140554
0.00141316
0.00142015
0.0014266
0.00143257
0.0014381
0.00144325
0.00144805
0.00145252
0.00145671
0.00146062
0.00146429
0.00146771
0.00147091
0.00147391
0.00147673
0.00147939
0.00148191
0.00148429
0.00148656
0.00148872
0.00149079
0.00149278
0.00149471
0.00149657
0.00149837
0.00150012
0.00150184
0.00150354
0.00150523
0.00150692
0.00150863
0.00151037
0.00151215
0.00151399
0.00151592
0.00151791
0.00151926
0.00152063
0.00152203
0.00152346
0.00152491
0.00152641
0.00152793
0.0015295
0.00153111
0.00153277
0.00153447
0.00153623
0.00153805
0.00153993
0.00154188
0.00154391
0.00154603
0.00154824
0.00155056
0.001553
0.00155558
0.00155832
0.0015613
0.00156458
0.00156888
1.32616e-07
4.46267e-06
5.15039e-05
0.000176029
0.000334474
0.000454713
0.000576853
0.00069292
0.000802186
0.000900975
0.00098855
0.00106692
0.00113682
0.00119886
0.00125388
0.00130293
0.00134658
0.00138558
0.00142058
0.00145163
0.00147929
0.00150415
0.00152662
0.00154704
0.00156568
0.00158236
0.00159575
0.00160803
0.00161935
0.00162981
0.00163951
0.00164852
0.00165691
0.00166474
0.00167205
0.00167889
0.00168529
0.00169127
0.00169686
0.00170209
0.001707
0.00171162
0.00171598
0.0017201
0.001724
0.00172771
0.00173123
0.0017346
0.00173782
0.00174092
0.0017439
0.00174676
0.00174953
0.00175222
0.00175484
0.00175741
0.00175995
0.00176248
0.00176499
0.00176753
0.00177009
0.00177271
0.00177537
0.00177714
0.00177892
0.00178071
0.0017825
0.00178431
0.00178613
0.00178797
0.00178984
0.00179173
0.00179365
0.00179561
0.00179759
0.00179962
0.0018017
0.00180382
0.00180599
0.00180822
0.0018105
0.00181285
0.00181527
0.00181775
0.00182032
0.00182303
0.00182592
0.00182958
2.09655e-08
5.30689e-07
9.17341e-06
6.22597e-05
0.000178026
0.000324112
0.000455742
0.000569864
0.00068589
0.000796313
0.000898634
0.000995855
0.00108437
0.00116434
0.0012368
0.00130278
0.00136275
0.00141722
0.00146668
0.00151183
0.0015529
0.00159028
0.00162442
0.00165571
0.00168449
0.00171096
0.00173511
0.00175727
0.0017777
0.00179659
0.00181409
0.00183035
0.00184547
0.00185957
0.00187275
0.00188508
0.00189665
0.00190666
0.0019155
0.00192379
0.00193159
0.00193894
0.00194588
0.00195244
0.00195866
0.00196456
0.00197017
0.00197552
0.00198062
0.0019855
0.00199018
0.00199468
0.00199898
0.00200312
0.00200713
0.00201102
0.00201481
0.00201852
0.00202217
0.00202577
0.00202933
0.00203289
0.00203643
0.00203876
0.00204105
0.00204331
0.00204554
0.00204775
0.00204995
0.00205213
0.0020543
0.00205647
0.00205863
0.0020608
0.00206297
0.00206515
0.00206734
0.00206953
0.00207173
0.00207393
0.00207614
0.00207835
0.00208055
0.00208274
0.00208495
0.0020872
0.00208953
0.00209233
6.75822e-09
5.37995e-08
9.16107e-07
9.58819e-06
5.12441e-05
0.00014262
0.000267497
0.000410324
0.000528634
0.000633768
0.000740132
0.000845746
0.000945508
0.00103847
0.00112629
0.00120881
0.00128531
0.00135583
0.00142064
0.00148039
0.0015356
0.00158666
0.00163395
0.00167781
0.0017185
0.00175631
0.0017916
0.00182439
0.00185488
0.00188322
0.00190959
0.00193418
0.00195715
0.00197866
0.00199883
0.00201778
0.00203561
0.00205233
0.00206799
0.0020827
0.00209654
0.00210958
0.0021219
0.00213355
0.00214458
0.00215505
0.002165
0.00217447
0.00218349
0.00219211
0.00220036
0.00220826
0.00221592
0.00222338
0.00223054
0.00223742
0.00224408
0.00225053
0.00225683
0.00226298
0.00226833
0.00227315
0.00227786
0.00228091
0.00228385
0.00228671
0.00228948
0.00229217
0.0022948
0.00229736
0.00229986
0.0023023
0.0023047
0.00230705
0.00230936
0.00231161
0.00231382
0.00231596
0.00231805
0.00232007
0.00232202
0.00232389
0.00232567
0.00232737
0.002329
0.00233059
0.00233217
0.00233385
5.28693e-09
8.68969e-09
7.28128e-08
7.80358e-07
5.79876e-06
2.7978e-05
8.42072e-05
0.000175884
0.000289279
0.000416485
0.00055143
0.000642794
0.000736522
0.000830591
0.000924127
0.00101528
0.00110187
0.00118329
0.00125979
0.00133187
0.0014004
0.00146511
0.001526
0.00158312
0.00163657
0.00168656
0.00173339
0.00177728
0.0018183
0.00185673
0.0018928
0.00192673
0.00195869
0.00198884
0.00201729
0.00204417
0.00206957
0.00209365
0.0021165
0.00213814
0.00215862
0.00217801
0.00219638
0.0022138
0.00223033
0.00224603
0.00226095
0.00227515
0.00228867
0.00230155
0.00231386
0.00232563
0.00233686
0.00234793
0.00235851
0.00236864
0.00237837
0.00238772
0.00239676
0.00240551
0.00241406
0.00242206
0.00242996
0.00243641
0.00244242
0.00244745
0.00245273
0.00245811
0.00246352
0.00246906
0.00247484
0.00248094
0.00248746
0.00249456
0.00250132
0.00250359
0.00250571
0.00250768
0.0025095
0.00251117
0.00251268
0.00251403
0.0025152
0.00251621
0.00251707
0.00251783
0.00251848
0.00251882
5.16362e-09
5.24776e-09
8.96092e-09
5.15789e-08
3.71145e-07
2.12394e-06
9.42547e-06
3.16887e-05
7.79801e-05
0.000149235
0.000241127
0.000343503
0.000454802
0.000572575
0.000677343
0.000756603
0.000836285
0.000915586
0.000993901
0.00107078
0.0011462
0.00121896
0.00128839
0.00135427
0.00141664
0.00147571
0.00153176
0.00158502
0.00163505
0.00168286
0.0017285
0.00177202
0.00181347
0.00185288
0.00189034
0.0019259
0.00195964
0.00199169
0.00202212
0.00205104
0.00207852
0.00210463
0.00212945
0.00215304
0.00217546
0.00219675
0.00221699
0.00223624
0.00225459
0.00227209
0.00228881
0.00230482
0.00232011
0.00233486
0.00234931
0.0023631
0.00237629
0.00238893
0.00240107
0.00241272
0.00242404
0.0024347
0.00244498
0.00245318
0.00246103
0.00246761
0.00247432
0.00248115
0.00248801
0.00249498
0.00250221
0.00250981
0.00251791
0.00252667
0.0025363
0.00254703
0.00255913
0.00257295
0.00258888
0.00259873
0.00259976
0.00260049
0.00260095
0.00260117
0.00260117
0.00260098
0.00260061
0.00259948
5.15531e-09
5.03612e-09
5.11558e-09
7.07472e-09
2.24507e-08
1.09116e-07
4.98805e-07
1.96983e-06
6.60796e-06
1.86844e-05
4.39867e-05
8.54126e-05
0.000142472
0.000212999
0.000293248
0.000379391
0.000470689
0.000566103
0.000664203
0.000763452
0.000830173
0.000893418
0.000955993
0.00101768
0.00107826
0.00113761
0.00119562
0.00125218
0.00130699
0.00136041
0.0014121
0.00146183
0.00150953
0.00155515
0.00159872
0.0016403
0.00167996
0.00171782
0.00175396
0.00178849
0.00182151
0.00185312
0.00188337
0.00191221
0.00193959
0.00196561
0.00199035
0.00201409
0.00203691
0.00205886
0.00207996
0.00210026
0.00211979
0.00213844
0.00215669
0.00217445
0.00219144
0.00220769
0.00222326
0.00223818
0.00225251
0.00226605
0.00227877
0.00228854
0.00229809
0.00230613
0.00231413
0.00232217
0.00233018
0.00233826
0.00234652
0.0023551
0.00236415
0.00237384
0.0023844
0.00239608
0.0024091
0.00242371
0.00244012
0.00245846
0.00247874
0.00250085
0.00252299
0.00252257
0.00252183
0.00252082
0.00251952
0.00251706
5.15487e-09
5.02569e-09
4.93128e-09
4.92684e-09
5.44708e-09
8.71715e-09
2.37902e-08
8.19446e-08
2.75285e-07
8.44104e-07
2.35519e-06
5.92902e-06
1.34521e-05
2.74225e-05
4.9995e-05
8.19066e-05
0.000122732
0.000171458
0.000227007
0.000288482
0.000352994
0.000419971
0.00048908
0.000559927
0.000632036
0.000704856
0.00077781
0.000850374
0.000922008
0.000967395
0.0010117
0.00105498
0.00109724
0.00113847
0.00117867
0.00121782
0.00125591
0.00129294
0.00132892
0.00136387
0.00139778
0.00143067
0.00146255
0.00149339
0.00152317
0.00155188
0.00157954
0.0016063
0.0016322
0.00165722
0.00168135
0.00170462
0.00172702
0.00174859
0.00176925
0.00178946
0.001809
0.00182773
0.00184569
0.00186291
0.00187945
0.00189518
0.00190975
0.00192056
0.00193139
0.00194068
0.00194978
0.00195882
0.00196779
0.00197678
0.00198589
0.00199524
0.00200497
0.00201522
0.00202615
0.00203791
0.00205066
0.00206458
0.0020798
0.00209636
0.00211422
0.00213314
0.00215281
0.00217275
0.00219252
0.00220527
0.00220349
0.00220041
5.15485e-09
5.02528e-09
4.92431e-09
4.84511e-09
4.79532e-09
4.83819e-09
5.24544e-09
6.96929e-09
1.28601e-08
3.04918e-08
7.82811e-08
1.96383e-07
4.66004e-07
1.04139e-06
2.19322e-06
4.35259e-06
8.14571e-06
1.4378e-05
2.3938e-05
3.76313e-05
5.58121e-05
7.84673e-05
0.000105309
0.000135904
0.000169788
0.000206524
0.000245727
0.000287064
0.000330278
0.000374114
0.000418415
0.000463047
0.000507889
0.000552822
0.000597723
0.000642471
0.000686942
0.000731014
0.000774567
0.000817491
0.000859683
0.000901057
0.000941541
0.00098116
0.00101993
0.00105779
0.00109466
0.00112032
0.00114248
0.00116386
0.00118449
0.0012044
0.0012236
0.00124212
0.00125996
0.00127713
0.00129399
0.00131033
0.00132619
0.0013416
0.00135663
0.00137124
0.00138478
0.00139477
0.00140512
0.00141425
0.00142323
0.00143218
0.00144113
0.00145015
0.00145933
0.00146875
0.00147852
0.00148873
0.00149948
0.00151086
0.00152297
0.00153586
0.00154958
0.0015642
0.00157974
0.00158688
0.00158672
0.00158621
0.0015854
0.00158427
0.00158282
0.00158057
5.15486e-09
5.02527e-09
4.9241e-09
4.84269e-09
4.77583e-09
4.72147e-09
4.68353e-09
4.68259e-09
4.78485e-09
5.17007e-09
6.27899e-09
9.09e-09
1.56123e-08
2.97274e-08
5.85017e-08
1.14043e-07
2.16112e-07
3.95646e-07
6.9943e-07
1.19599e-06
1.97889e-06
3.1707e-06
4.92428e-06
7.41974e-06
1.08559e-05
1.54361e-05
2.13503e-05
2.87563e-05
3.77653e-05
4.83818e-05
6.05533e-05
7.41811e-05
8.91356e-05
0.000105271
0.000122438
0.00014049
0.00015929
0.000178712
0.00019864
0.000218971
0.000239609
0.000260467
0.000281467
0.000302539
0.000323622
0.000344657
0.000365587
0.000386181
0.000406351
0.000426058
0.000445263
0.000463926
0.000482008
0.000499469
0.000516266
0.000532356
0.00054787
0.000562965
0.00057761
0.000591776
0.000605433
0.000618547
0.000631082
0.00063905
0.000646549
0.000653598
0.000660208
0.000666393
0.000672166
0.000677541
0.000682532
0.000687154
0.000691422
0.000695351
0.000698956
0.000702254
0.00070526
0.000707991
0.000710463
0.000712692
0.000714695
0.000716466
0.000718005
0.000719329
0.000720455
0.000721397
0.000722172
0.000722873
5.15486e-09
5.02527e-09
4.9241e-09
4.84263e-09
4.77538e-09
4.71877e-09
4.67045e-09
4.62908e-09
4.5946e-09
4.56931e-09
4.56046e-09
4.5853e-09
4.68036e-09
4.91709e-09
5.42699e-09
6.43841e-09
8.32868e-09
1.16954e-08
1.74531e-08
2.69595e-08
4.21511e-08
6.57022e-08
1.01198e-07
1.53325e-07
2.28068e-07
3.3292e-07
4.77088e-07
6.71714e-07
9.30009e-07
1.26697e-06
1.69935e-06
2.24537e-06
2.92443e-06
3.75656e-06
4.76195e-06
5.96016e-06
7.36946e-06
9.00609e-06
1.08835e-05
1.30116e-05
1.53965e-05
1.80395e-05
2.09374e-05
2.40819e-05
2.74599e-05
3.10535e-05
3.48393e-05
3.87862e-05
4.28582e-05
4.70156e-05
5.1215e-05
5.54099e-05
5.95504e-05
6.35843e-05
6.7456e-05
7.10978e-05
7.45894e-05
7.81001e-05
8.16131e-05
8.51112e-05
8.85773e-05
9.19939e-05
9.53443e-05
9.75038e-05
9.95683e-05
0.000101537
0.00010341
0.000105187
0.000106869
0.000108456
0.000109951
0.000111354
0.000112669
0.000113897
0.000115041
0.000116105
0.000117091
0.000118004
0.000118847
0.000119623
0.000120336
0.000120991
0.00012159
0.000122138
0.000122639
0.000123095
0.000123512
0.000123926
5.15487e-09
5.02527e-09
4.9241e-09
4.84263e-09
4.77537e-09
4.71872e-09
4.67022e-09