/*--------------------------------*- C++ -*----------------------------------*\
| =========                 |                                                 |
| \\      /  F ield         | OpenFOAM: The Open Source CFD Toolbox           |
|  \\    /   O peration     | Version:  5.x                                   |
|   \\  /    A nd           | Web:      www.OpenFOAM.org                      |
|    \\/     M anipulation  |                                                 |
\*---------------------------------------------------------------------------*/
FoamFile
{
    version     2.0;
    format      ascii;
    class       volScalarField;
    location    "871";
    object      omega;
}
// * * * * * * * * * * * * * * * * * * * * * * * * * * * * * * * * * * * * * //

dimensions      [0 0 -1 0 0 0 0];

internalField   nonuniform List<scalar> 
20540
(
20958.2
10054.7
20958.2
10049.6
20958.2
10041.7
20958.2
10031.9
20958.2
10021.7
20958.2
10012.6
20958.2
10005.4
20958.2
10000.4
20958.2
9997
20958.2
9994.93
20958.2
9993.69
20958.2
9992.93
20958.2
9992.45
20958.2
9992.14
20958.2
9991.92
20958.2
9991.76
20958.2
9991.64
20958.2
9991.56
20958.2
9991.53
20958.2
9991.54
20958.2
9991.59
20958.2
9991.69
20958.2
9991.83
20958.2
9992.01
20958.2
9992.23
20958.2
9992.49
20958.2
9992.78
20958.2
9993.09
20958.2
9993.42
20958.2
9993.72
20958.2
9993.93
20958.2
9994.03
20958.2
9994.03
20958.2
9993.93
20958.2
9993.72
20958.2
9993.43
20958.2
9993.12
20958.2
9992.81
20958.2
9992.53
20958.2
9992.27
20958.2
9992.05
20958.2
9991.87
20958.2
9991.73
20958.2
9991.63
20958.2
9991.56
20958.2
9991.54
20958.2
9991.56
20958.2
9991.63
20958.2
9991.73
20958.2
9991.87
20958.2
9992.05
20958.2
9992.29
20958.2
9992.65
20958.2
9993.19
20958.2
9994.05
20958.2
9995.45
20958.2
9997.74
20958.2
10001.4
20958.2
10006.7
20958.2
10014
20958.2
10023
20958.2
10033
20958.2
10042.5
20958.2
10050.1
20958.2
10055.1
7.10382e+06
7.10382e+06
7.10382e+06
7.10382e+06
7.10382e+06
7.10382e+06
7.10382e+06
7.10382e+06
7.10382e+06
7.10382e+06
7.10382e+06
7.10382e+06
7.10382e+06
7.10382e+06
7.10382e+06
7.10382e+06
7.10382e+06
7.10382e+06
7.10382e+06
7.10382e+06
7.10382e+06
7.10382e+06
7.10382e+06
7.10382e+06
7.10382e+06
7.10382e+06
7.10382e+06
7.10382e+06
7.10382e+06
7.10382e+06
7.10382e+06
7.10382e+06
7.10382e+06
7.10382e+06
7.10382e+06
7.10382e+06
7.10382e+06
7.10382e+06
7.10382e+06
7.10382e+06
7.10382e+06
7.10382e+06
7.10382e+06
7.10382e+06
7.10382e+06
7.10382e+06
7.10382e+06
7.10382e+06
7.10382e+06
7.10382e+06
7.10382e+06
7.10382e+06
7.10382e+06
7.10382e+06
7.10382e+06
7.10382e+06
7.10382e+06
7.10382e+06
7.10382e+06
7.10382e+06
7.10382e+06
7.10382e+06
7.10382e+06
7.10382e+06
7.10382e+06
7.10382e+06
7.10382e+06
7.10382e+06
7.10382e+06
7.10382e+06
7.10382e+06
7.10382e+06
7.10382e+06
7.10382e+06
7.10382e+06
7.10382e+06
7.10382e+06
7.10382e+06
7.10382e+06
7.10382e+06
7.10382e+06
7.10382e+06
7.10382e+06
7.10382e+06
7.10382e+06
7.10382e+06
7.10382e+06
7.10382e+06
1.27818e+06
1.22776e+06
1.21342e+06
1.20554e+06
1.20006e+06
1.19603e+06
1.19293e+06
1.19046e+06
1.18845e+06
1.18678e+06
1.18536e+06
1.18415e+06
1.1831e+06
1.18219e+06
1.18138e+06
1.18067e+06
1.18003e+06
1.17946e+06
1.17894e+06
1.17848e+06
1.17806e+06
1.17767e+06
1.17732e+06
1.177e+06
1.1767e+06
1.17643e+06
1.17618e+06
1.17594e+06
1.17573e+06
1.17553e+06
1.17534e+06
1.17516e+06
1.175e+06
1.17485e+06
1.17471e+06
1.17458e+06
1.17446e+06
1.17434e+06
1.17424e+06
1.17414e+06
1.17405e+06
1.17396e+06
1.17388e+06
1.17382e+06
1.17375e+06
1.1737e+06
1.17366e+06
1.17362e+06
1.1736e+06
1.17359e+06
1.17359e+06
1.17362e+06
1.17366e+06
1.17372e+06
1.1738e+06
1.17391e+06
1.17405e+06
1.17422e+06
1.17443e+06
1.17468e+06
1.17498e+06
1.17533e+06
1.17578e+06
1.17615e+06
1.17651e+06
1.17685e+06
1.17723e+06
1.17764e+06
1.17809e+06
1.17857e+06
1.17907e+06
1.17961e+06
1.18018e+06
1.18079e+06
1.18143e+06
1.18212e+06
1.18286e+06
1.18365e+06
1.1845e+06
1.18543e+06
1.18646e+06
1.1876e+06
1.18892e+06
1.19047e+06
1.19241e+06
1.19486e+06
1.19784e+06
1.18807e+06
543628
500099
483335
475137
469728
465794
462762
460342
458351
456684
455266
454048
452987
452056
451234
450501
449845
449256
448724
448242
447802
447400
447031
446694
446384
446098
445834
445589
445361
445148
444951
444766
444594
444434
444284
444145
444015
443893
443780
443675
443577
443487
443405
443331
443265
443208
443161
443124
443100
443090
443095
443118
443160
443224
443314
443430
443578
443761
443982
444247
444562
444926
445382
445752
446145
446520
446908
447327
447776
448253
448759
449292
449855
450447
451071
451728
452420
453150
453922
454740
455607
456530
457508
458521
459460
459779
456536
434583
303313
276122
261932
255615
251878
249324
247425
245935
244724
243716
242864
242134
241500
240944
240454
240019
239629
239279
238963
238676
238415
238177
237959
237759
237574
237405
237248
237103
236968
236842
236725
236615
236513
236418
236329
236246
236169
236097
236029
235967
235909
235855
235807
235763
235723
235690
235661
235640
235625
235619
235621
235634
235659
235696
235749
235817
235904
236011
236140
236294
236477
236688
236941
237142
237380
237611
237835
238071
238321
238586
238865
239158
239463
239781
240110
240452
240804
241166
241535
241908
242279
242635
242944
243136
242994
241811
236861
220340
184887
171828
160576
155361
152468
150591
149252
148223
147396
146716
146144
145658
145237
144871
144548
144262
144007
143779
143573
143386
143217
143062
142921
142791
142672
142562
142461
142367
142280
142199
142124
142053
141988
141926
141869
141816
141766
141719
141676
141635
141598
141563
141531
141502
141476
141453
141434
141418
141406
141399
141396
141400
141410
141428
141453
141488
141532
141587
141654
141735
141831
141940
142067
142163
142287
142415
142537
142659
142787
142921
143060
143205
143353
143505
143659
143815
143971
144124
144272
144409
144528
144613
144636
144533
144141
142979
139546
130496
118906
115698
107268
102902
100555
99063.1
98017.5
97225.5
96597.2
96084.4
95656.9
95294.9
94983.5
94712.9
94475.9
94266.3
94079.7
93912.8
93762.9
93627.3
93504.2
93392
93289.6
93195.7
93109.5
93030.3
92957.2
92889.5
92826.7
92768.3
92713.9
92663.3
92616.1
92572
92530.8
92492.3
92456.3
92422.6
92391.2
92361.9
92334.6
92309.3
92285.8
92264.2
92244.6
92227
92211.4
92198.1
92187.1
92178.8
92173.4
92171.4
92173.1
92178.8
92188.9
92204
92224.4
92250.7
92283.3
92322.8
92370
92424
92484.5
92527.2
92585.5
92650.2
92712
92772.4
92833.7
92896.2
92959.9
93024.5
93089.4
93153.8
93217.1
93277.9
93334.9
93386
93428.6
93458.4
93468.8
93448.8
93377.3
93209.9
92841.1
91983.6
89890.1
85085.1
79644.8
82251.9
76293.9
72624.4
70631.9
69373.1
68496.4
67841.8
67328.4
66913.5
66569.9
66280.8
66033.3
65819.3
65632.5
65467.8
65321.6
65191.1
65074.1
64968.6
64872.8
64785.8
64706.3
64633.7
64567
64505.8
64449.3
64397.1
64348.6
64303.6
64261.7
64222.7
64186.4
64152.5
64120.8
64091.1
64063.4
64037.5
64013.2
63990.5
63969.3
63949.5
63931.1
63914
63898.3
63883.9
63870.8
63859.2
63849
63840.4
63833.5
63828.5
63825.6
63825
63826.9
63831.4
63838.8
63849.2
63862.9
63880
63900.9
63924.6
63950
63965.9
63989.7
64018.5
64045.9
64072
64097.2
64121.8
64145.8
64168.8
64190.4
64210.2
64227.4
64241.2
64250.3
64253.2
64247.9
64231.2
64198.3
64141.4
64046.1
63883.1
63584.9
62980.4
61682.1
59039.7
54623.3
60512.6
56757.1
53697.2
51923.9
50807
50035.1
49465.7
49024.1
48670.8
48380.4
48137.8
47931.1
47753.3
47598.8
47462.9
47342.7
47235.7
47140.1
47053.9
46975.9
46905.1
46840.6
46781.7
46727.7
46678.1
46632.5
46590.3
46551.1
46514.8
46481.1
46449.7
46420.4
46393.1
46367.6
46343.7
46321.4
46300.5
46280.9
46262.5
46245.3
46229.2
46214.1
46200
46186.9
46174.7
46163.4
46153
46143.6
46135.1
46127.6
46121.1
46115.8
46111.7
46108.9
46107.4
46107.4
46108.8
46111.6
46115.9
46121.7
46128.1
46134.3
46136.3
46141.6
46150.2
46158.2
46165.1
46170.8
46175.3
46178.4
46179.9
46179.5
46176.8
46171.2
46162.2
46148.8
46129.8
46103.8
46068.5
46020.3
45953.9
45859.3
45717
45484.4
45060.7
44239.2
42729
37822.1
45432.3
43573.2
41129.1
39511.4
38485.9
37780.9
37265.7
36870.3
36556.9
36301.3
36089.2
35909.5
35755.7
35622.7
35506.1
35403.3
35312.2
35231
35157.9
35091.9
35032
34977.6
34928
34882.6
34841
34802.7
34767.3
34734.5
34704.1
34675.9
34649.7
34625.2
34602.4
34581.1
34561.2
34542.6
34525.1
34508.8
34493.4
34478.9
34465.3
34452.5
34440.5
34429.2
34418.6
34408.6
34399.3
34390.5
34382.3
34374.7
34367.6
34361
34355.1
34349.7
34344.8
34340.5
34336.7
34333.4
34330.3
34327.5
34324.1
34319.7
34314.4
34310.1
34307.5
34304.6
34300.7
34295.7
34289.4
34281.7
34272.2
34260.8
34247.1
34230.9
34211.5
34188.4
34160.7
34127.2
34086.4
34035.9
33971.7
33887
33768.8
33589.9
33290.9
32759.1
31865.2
26892.6
34464.8
34154.5
32363.3
30915.5
29947.5
29284.1
28802.6
28436.5
28148.6
27915.6
27723.5
27561.7
27423.9
27305.4
27201.8
27110.8
27030.4
26959
26894.9
26837.1
26784.8
26737.3
26694.2
26654.7
26618.6
26585.4
26554.7
26526.4
26500.1
26475.7
26453.1
26432
26412.4
26394
26376.9
26360.8
26345.8
26331.7
26318.4
26305.9
26294.1
26282.9
26272.4
26262.4
26253
26244
26235.5
26227.3
26219.5
26212
26204.7
26197.6
26190.8
26184
26177.4
26170.8
26164.2
26157.4
26150.3
26142.7
26134
26124
26115.2
26106.2
26097.9
26089.2
26079.6
26069.1
26057.4
26044.4
26029.8
26013.5
25995.2
25974.7
25951.6
25925.5
25895.7
25861.4
25821.5
25774.2
25716.8
25644.6
25548.8
25411.8
25198.5
24846.5
24301.8
19857
26215.5
27087.8
25969
24753.6
23843.2
23202.1
22739.1
22390.1
22117.4
21898.3
21718.7
21568.2
21440.8
21331.7
21236.7
21153.5
21080.3
21015.5
20957.5
20905.2
20858
20815.3
20776.6
20741.3
20709
20679.2
20651.8
20626.5
20603.1
20581.4
20561.2
20542.5
20525.1
20508.8
20493.6
20479.4
20466
20453.5
20441.7
20430.5
20420
20410.1
20400.6
20391.6
20383.1
20374.9
20367
20359.4
20351.9
20344.7
20337.5
20330.3
20323.1
20315.8
20308.4
20300.7
20292.7
20284.2
20275
20265.1
20253.8
20241.2
20231.1
20220.2
20209.5
20198.1
20186
20173.1
20159.2
20144.2
20127.8
20110
20090.7
20069.4
20046.1
20020.4
19991.8
19959.8
19923.5
19881.7
19832.5
19772.5
19695.8
19590.9
19437.2
19199.9
18859.7
14995.8
19844.7
21556
21102.5
20183.1
19368.6
18750.4
18292.7
17951.3
17685.6
17473.5
17300.4
17156.3
17035
16931.4
16841.6
16763.3
16694.6
16634
16579.8
16531.1
16487.2
16447.7
16411.8
16379.2
16349.5
16322.1
16296.9
16273.6
16252.1
16232.2
16213.7
16196.6
16180.7
16165.8
16151.9
16139
16126.8
16115.3
16104.6
16094.4
16084.7
16075.6
16066.9
16058.6
16050.7
16043.1
16035.7
16028.6
16021.5
16014.6
16007.6
16000.6
15993.4
15986
15978.3
15970.3
15961.8
15952.7
15942.8
15932
15919.8
15906.4
15896.1
15884.9
15873.6
15861.6
15848.9
15835.5
15821.3
15806.1
15789.9
15772.5
15753.9
15733.8
15712.1
15688.4
15662.6
15634.2
15602.6
15566.8
15525.5
15476.4
15415.4
15335.1
15223.4
15061.2
14844.3
11384.2
15202.4
17080
17239.2
16666.8
15999.2
15429.7
14982
14639.7
14373.3
14162.4
13990.8
13849
13730
13628.8
13541.4
13465.5
13399.2
13340.8
13288.7
13242
13200
13162.3
13128.2
13097.2
13069
13043
13019.1
12997.1
12976.8
12958
12940.6
12924.5
12909.5
12895.6
12882.5
12870.4
12858.9
12848.2
12838.1
12828.5
12819.5
12810.9
12802.7
12794.9
12787.4
12780.2
12773.3
12766.5
12759.7
12753.1
12746.4
12739.6
12732.6
12725.4
12717.9
12709.9
12701.5
12692.4
12682.5
12671.8
12659.8
12646.6
12636.8
12626.2
12615.2
12603.7
12591.5
12578.8
12565.3
12551
12536
12520
12503
12484.9
12465.5
12444.7
12422.3
12397.8
12370.9
12340.9
12306.9
12267.1
12218.8
12157.3
12075.7
11963.7
11822.7
8714.23
11738.6
13385.8
14036.9
13846
13376.7
12894
12478.5
12141.6
11872.9
11657.5
11482.2
11339
11219.1
11117.1
11029.7
10954.2
10888.3
10830.4
10778.8
10732.7
10691.5
10654.5
10621.1
10590.8
10563.2
10537.9
10514.7
10493.2
10473.5
10455.3
10438.4
10422.8
10408.3
10394.8
10382.3
10370.5
10359.5
10349.2
10339.4
10330.2
10321.5
10313.2
10305.3
10297.8
10290.6
10283.7
10277
10270.4
10263.9
10257.6
10251.2
10244.6
10237.9
10231
10223.8
10216.1
10208
10199.4
10190
10179.8
10168.4
10156.2
10147.1
10137.4
10127.4
10116.9
10105.8
10094.2
10082.1
10069.3
10055.9
10041.7
10026.8
10011
9994.25
9976.39
9957.27
9936.65
9914.2
9889.43
9861.62
9829.62
9791.57
9744.51
9684.6
9606.77
9513.51
7039.56
8901.43
10550.6
11274.7
11465.1
11244.5
10893.2
10540.4
10229.2
9967.52
9750.25
9570.75
9422.64
9298.04
9192.13
9102.42
9025.16
8957.83
8898.58
8846.09
8799.43
8757.8
8720.47
8686.84
8656.39
8628.67
8603.27
8579.96
8558.55
8538.84
8520.68
8503.9
8488.38
8473.98
8460.59
8448.11
8436.47
8425.55
8415.3
8405.63
8396.51
8387.88
8379.71
8371.95
8364.55
8357.47
8350.67
8344.08
8337.67
8331.37
8325.17
8318.97
8312.69
8306.27
8299.66
8292.8
8285.6
8278
8269.89
8261.18
8251.75
8241.37
8230.2
8222.09
8213.48
8204.57
8195.24
8185.48
8175.29
8164.64
8153.51
8141.86
8129.67
8116.87
8103.4
8089.2
8074.17
8058.17
8041.04
8022.51
8002.25
7979.73
7954.14
7924.28
7888.36
7844.37
7790.02
7727.32
6348.66
6558.62
8161.44
9017.37
9348.66
9404.83
9233.96
8984.04
8726.46
8489.69
8282.33
8105.18
7954.22
7825.23
7714.75
7620.56
7539.25
7468.22
7405.61
7350.69
7302.17
7258.98
7220.3
7185.46
7153.92
7125.21
7099
7075.02
7053.04
7032.85
7014.26
6997.1
6981.23
6966.52
6952.85
6940.12
6928.24
6917.11
6906.66
6896.83
6887.56
6878.82
6870.55
6862.7
6855.24
6848.12
6841.29
6834.7
6828.3
6822.05
6815.91
6809.85
6803.74
6797.56
6791.23
6784.71
6777.93
6770.82
6763.31
6755.3
6746.71
6737.36
6727.36
6720.18
6712.63
6704.84
6696.72
6688.27
6679.47
6670.33
6660.81
6650.89
6640.56
6629.76
6618.46
6606.6
6594.1
6580.87
6566.78
6551.64
6535.19
6517.07
6496.72
6473.4
6446.08
6413.81
6375.73
6332.98
6181.36
4997.05
5967.25
7045.55
7554.29
7723.77
7753.56
7653.91
7488.44
7303.84
7125.11
6962.66
6817.45
6689.54
6577.86
6480.44
6395.31
6320.36
6253.99
6195.47
6143.69
6097.59
6056.28
6019.04
5985.28
5954.59
5926.81
5901.49
5878.33
5857.08
5837.52
5819.48
5802.8
5787.35
5772.99
5759.62
5747.14
5735.47
5724.53
5714.26
5704.61
5695.52
5686.93
5678.8
5671.09
5663.75
5656.72
5649.97
5643.45
5637.11
5630.91
5624.85
5618.81
5612.74
5606.6
5600.33
5593.89
5587.21
5580.22
5572.86
5565.03
5556.63
5547.72
5541.39
5534.8
5528.02
5521.01
5513.75
5506.24
5498.46
5490.4
5482.05
5473.38
5464.37
5454.97
5445.15
5434.86
5424
5412.5
5400.2
5386.93
5372.43
5356.35
5338.23
5317.55
5293.93
5267.16
5237.66
6154.31
4429.97
4225.95
5110.47
5886.55
6263.74
6392.83
6417.92
6380.83
6284.94
6163.71
6037.17
5912.57
5796.06
5690.57
5595.62
5510.47
5434.17
5365.81
5304.58
5249.86
5200.84
5156.72
5116.8
5080.5
5047.42
5017.33
4989.9
4964.79
4941.76
4920.57
4901.02
4882.95
4866.2
4850.64
4836.15
4822.62
4810.02
4798.27
4787.27
4776.95
4767.25
4758.11
4749.47
4741.28
4733.5
4726.08
4718.98
4712.15
4705.55
4699.14
4692.92
4686.77
4680.67
4674.56
4668.41
4662.15
4655.75
4649.15
4642.28
4635.07
4627.45
4619.45
4613.84
4608.05
4602.14
4596.07
4589.83
4583.41
4576.81
4570.01
4563
4555.75
4548.26
4540.48
4532.38
4523.93
4515.07
4505.71
4495.76
4485.1
4473.55
4460.9
4446.91
4431.34
4414.09
4395.2
4374.65
6151.02
4336.67
3450.38
3478.33
4144.23
4773.46
5131.73
5289.63
5325.46
5317.38
5280.35
5221.04
5140.51
5053.97
4969.23
4887.61
4810.28
4738.28
4672.14
4611.82
4557.02
4507.2
4461.77
4420.25
4382.2
4347.27
4315.13
4285.62
4258.52
4233.6
4210.65
4189.44
4169.82
4151.6
4134.66
4118.86
4104.1
4090.31
4077.42
4065.35
4054.02
4043.38
4033.35
4023.88
4014.93
4006.43
3998.35
3990.65
3983.26
3976.16
3969.31
3962.67
3956.22
3949.87
3943.58
3937.32
3931.04
3924.7
3918.25
3911.64
3904.83
3897.76
3890.44
3885.38
3880.21
3874.98
3869.66
3864.24
3858.7
3853.05
3847.26
3841.33
3835.24
3828.98
3822.51
3815.81
3808.85
3801.59
3793.97
3785.91
3777.35
3768.16
3758.25
3747.48
3735.78
3723.19
3709.77
3695.33
6150.73
4327.44
3316.5
2776.58
2749.25
3170.14
3693.54
4084.7
4299.01
4402.45
4429.3
4421.47
4397.96
4362.47
4321.49
4271.22
4215.78
4159.45
4104.81
4053.27
4004.66
3958.82
3915.72
3875.36
3837.72
3802.7
3770.15
3740
3712.12
3686.31
3662.4
3640.19
3619.52
3600.24
3582.23
3565.37
3549.56
3534.71
3520.73
3507.58
3495.2
3483.54
3472.55
3462.17
3452.35
3443.05
3434.22
3425.81
3417.79
3410.11
3402.72
3395.6
3388.75
3382.06
3375.49
3369.02
3362.6
3356.21
3349.79
3343.3
3336.7
3329.95
3323.05
3318.33
3313.57
3308.79
3303.98
3299.11
3294.19
3289.19
3284.12
3278.95
3273.67
3268.26
3262.72
3257.03
3251.17
3245.11
3238.8
3232.19
3225.24
3217.87
3210.04
3201.71
3192.87
3183.59
3173.93
3163.63
6150.76
4326.78
3305.01
2672.67
2284.75
2148.36
2303.72
2656.94
3031.54
3327.65
3514.21
3617.37
3669.5
3683.42
3674.66
3659.1
3637.46
3611.09
3582.45
3553.72
3522.55
3489.52
3456.04
3423.01
3391.02
3360.44
3331.49
3304.28
3278.72
3254.64
3231.9
3210.43
3190.15
3170.98
3152.87
3135.76
3119.6
3104.31
3089.85
3076.18
3063.24
3051.02
3039.46
3028.53
3018.18
3008.36
2999.05
2990.18
2981.73
2973.65
2965.9
2958.45
2951.29
2944.37
2937.62
2931.01
2924.51
2918.08
2911.68
2905.29
2898.85
2892.34
2885.75
2881.28
2876.82
2872.37
2867.92
2863.46
2858.98
2854.47
2849.92
2845.31
2840.64
2835.89
2831.05
2826.09
2821
2815.75
2810.32
2804.7
2798.85
2792.76
2786.41
2779.78
2772.91
2765.84
2758.63
2751.02
6150.83
4326.78
3304.32
2665.36
2236.08
1939.69
1755.39
1705.65
1808.74
2030.87
2300.07
2546.92
2744.33
2882.7
2967.66
3020.32
3049.25
3059.89
3057.5
3047.17
3034.94
3021.05
3005.44
2988.48
2970.71
2952.73
2935.11
2918.18
2901.09
2883.73
2866.38
2849.27
2832.52
2816.24
2800.52
2785.38
2770.85
2756.95
2743.68
2731.03
2718.98
2707.53
2696.65
2686.31
2676.47
2667.08
2658.13
2649.57
2641.37
2633.51
2625.94
2618.65
2611.6
2604.82
2598.2
2591.71
2585.34
2579.04
2572.81
2566.6
2560.38
2554.13
2547.84
2543.61
2539.41
2535.24
2531.1
2526.97
2522.84
2518.71
2514.56
2510.39
2506.19
2501.94
2497.62
2493.22
2488.73
2484.11
2479.37
2474.48
2469.42
2464.2
2458.82
2453.3
2447.67
2441.97
2436.23
2430.22
6150.92
4326.82
3304.32
2665
2233.41
1925.53
1697.7
1527.86
1409.4
1349.43
1361.53
1446.79
1589.52
1762.79
1937.75
2095.31
2227.39
2330.93
2406.42
2457.11
2492.2
2515.94
2530.5
2537.7
2539.15
2536.32
2530.55
2523.03
2514.89
2506.68
2498.27
2489.62
2480.76
2471.76
2462.69
2453.63
2444.65
2435.82
2427.22
2418.89
2410.88
2403.2
2395.86
2388.71
2381.64
2374.69
2367.88
2361.23
2354.73
2348.37
2342.16
2336.09
2330.14
2324.31
2318.64
2313.01
2307.42
2301.84
2296.26
2290.66
2285.01
2279.31
2273.54
2269.66
2265.79
2261.94
2258.11
2254.29
2250.47
2246.64
2242.79
2238.92
2235.02
2231.07
2227.08
2223.02
2218.89
2214.67
2210.37
2205.96
2201.43
2196.79
2192.04
2187.2
2182.3
2177.37
2172.43
2167.26
6151.05
4326.87
3304.35
2665.01
2233.32
1924.93
1695.03
1517.95
1378.28
1266.8
1178.66
1112.83
1071.71
1059.93
1081
1134.03
1213.8
1312.06
1419.54
1527.83
1629.51
1721.37
1801.8
1870.24
1926.85
1972.32
2007.68
2034.28
2054.51
2070.22
2082.19
2091.03
2097.27
2101.31
2103.54
2104.25
2103.73
2102.23
2099.96
2097.12
2093.87
2090.36
2086.71
2083.02
2079.34
2075.67
2071.98
2068.34
2064.74
2061.17
2057.63
2054.1
2050.58
2047.05
2043.53
2040.05
2036.46
2032.78
2028.97
2025.03
2020.92
2016.64
2012.19
2009.13
2006.02
2002.87
1999.68
1996.45
1993.17
1989.83
1986.44
1982.99
1979.47
1975.89
1972.22
1968.49
1964.66
1960.76
1956.76
1952.68
1948.52
1944.28
1939.99
1935.63
1931.24
1926.81
1922.36
1917.67
6151.19
4326.93
3304.39
2665.03
2233.33
1924.92
1694.94
1517.61
1377.15
1263.46
1169.82
1091.66
1025.85
970.373
924.077
886.625
858.406
840.377
833.75
839.541
857.825
887.817
927.972
976.215
1030.22
1087.68
1146.46
1204.79
1261.38
1314.73
1364.38
1410.07
1451.71
1489.34
1523.07
1553.1
1579.63
1602.91
1623.2
1640.76
1655.86
1668.74
1679.66
1689
1697.06
1703.98
1709.89
1714.95
1719.28
1722.95
1726.04
1728.6
1730.69
1732.34
1733.61
1734.53
1735.1
1735.19
1734.8
1733.94
1732.61
1730.8
1728.52
1726.78
1724.85
1722.76
1720.49
1718.07
1715.5
1712.78
1709.92
1706.93
1703.8
1700.55
1697.17
1693.67
1690.06
1686.34
1682.52
1678.61
1674.61
1670.54
1666.41
1662.22
1658
1653.74
1649.42
1644.72
6151.37
4326.99
3304.43
2665.06
2233.35
1924.93
1694.95
1517.6
1377.12
1263.37
1169.58
1091.04
1024.43
967.3
917.846
874.704
836.841
803.479
774.038
748.111
725.434
705.867
689.382
676.037
665.956
659.288
656.175
656.713
660.928
668.692
679.785
693.908
710.703
729.776
750.718
773.123
796.603
820.798
845.384
870.074
894.621
918.82
942.498
965.531
987.827
1009.32
1029.95
1049.6
1068.27
1085.93
1102.6
1118.3
1133.05
1146.86
1159.77
1171.8
1182.95
1193.18
1202.49
1210.86
1218.29
1224.76
1230.26
1233.43
1236.1
1238.29
1240.02
1241.32
1242.21
1242.72
1242.86
1242.66
1242.14
1241.32
1240.21
1238.85
1237.25
1235.42
1233.4
1231.2
1228.84
1226.33
1223.7
1220.96
1218.12
1215.22
1212.26
1209.07
6151.56
4327.06
3304.48
2665.09
2233.37
1924.95
1694.96
1517.61
1377.13
1263.37
1169.57
1091.03
1024.4
967.235
917.708
874.43
836.328
802.559
772.451
745.468
721.171
699.204
679.273
661.134
644.586
629.461
615.621
602.95
591.355
580.758
571.096
562.319
554.387
547.268
540.936
535.369
530.55
526.459
523.081
520.396
518.384
517.02
516.278
516.126
516.532
517.457
518.862
520.698
522.917
525.466
528.292
531.342
534.56
537.893
541.284
544.663
548.047
551.514
555.024
558.54
562.024
565.438
568.749
570.863
572.852
574.716
576.453
578.061
579.54
580.89
582.115
583.215
584.195
585.059
585.811
586.456
587
587.449
587.808
588.086
588.287
588.419
588.489
588.503
588.468
588.39
588.277
588.139
6151.78
4327.14
3304.54
2665.12
2233.39
1924.96
1694.97
1517.62
1377.13
1263.38
1169.58
1091.04
1024.4
967.236
917.708
874.428
836.322
802.545
772.426
745.423
721.097
699.085
679.089
660.857
644.178
628.874
614.791
601.799
589.786
578.652
568.313
558.694
549.729
541.362
533.54
526.219
519.357
512.92
506.874
501.191
495.844
490.808
486.064
481.59
477.368
473.382
469.615
466.052
462.68
459.485
456.454
453.574
450.832
448.216
445.712
443.322
441.052
438.894
436.843
434.894
433.04
431.276
429.599
428.534
427.529
426.582
425.687
424.843
424.046
423.293
422.583
421.911
421.277
420.678
420.112
419.578
419.073
418.595
418.144
417.717
417.314
416.932
416.57
416.227
415.902
415.594
415.3
415.022
6151.99
4327.23
3304.59
2665.16
2233.41
1924.98
1694.99
1517.63
1377.14
1263.39
1169.58
1091.04
1024.41
967.239
917.71
874.43
836.324
802.546
772.427
745.424
721.097
699.085
679.088
660.854
644.174
628.867
614.781
601.785
589.765
578.624
568.275
558.645
549.666
541.28
533.437
526.09
519.198
512.725
506.638
500.907
495.506
490.41
485.597
481.048
476.745
472.671
468.81
465.15
461.676
458.378
455.245
452.265
449.432
446.735
444.167
441.722
439.391
437.17
435.051
433.031
431.104
429.265
427.51
426.394
425.339
424.343
423.401
422.511
421.67
420.875
420.124
419.414
418.743
418.109
417.509
416.943
416.408
415.902
415.424
414.972
414.544
414.14
413.757
413.395
413.053
412.728
412.421
412.13
6152.19
4327.3
3304.64
2665.19
2233.43
1924.99
1695
1517.64
1377.15
1263.39
1169.59
1091.04
1024.41
967.242
917.713
874.432
836.325
802.548
772.428
745.425
721.098
699.086
679.089
660.855
644.175
628.868
614.782
601.785
589.766
578.624
568.276
558.645
549.666
541.28
533.437
526.089
519.197
512.724
506.636
500.904
495.503
490.406
485.593
481.043
476.739
472.664
468.803
465.141
461.666
458.367
455.233
452.253
449.419
446.721
444.153
441.707
439.376
437.154
435.034
433.013
431.084
429.244
427.487
426.369
425.313
424.315
423.372
422.479
421.636
420.838
420.084
419.37
418.696
418.058
417.454
416.884
416.344
415.833
415.349
414.892
414.459
414.049
413.661
413.294
412.946
412.616
412.304
412.009
6152.34
4327.36
3304.67
2665.21
2233.44
1925
1695
1517.64
1377.15
1263.39
1169.59
1091.05
1024.41
967.244
917.714
874.434
836.327
802.549
772.429
745.426
721.099
699.087
679.089
660.856
644.175
628.868
614.782
601.786
589.766
578.625
568.276
558.645
549.666
541.28
533.437
526.089
519.197
512.724
506.636
500.905
495.503
490.406
485.593
481.043
476.739
472.664
468.802
465.14
461.666
458.366
455.232
452.251
449.417
446.719
444.15
441.703
439.371
437.148
435.028
433.005
431.075
429.233
427.473
426.354
425.296
424.296
423.35
422.456
421.61
420.809
420.052
419.336
418.658
418.016
417.409
416.835
416.291
415.776
415.288
414.826
414.389
413.975
413.583
413.211
412.859
412.526
412.21
411.91
6152.41
4327.38
3304.69
2665.22
2233.45
1925.01
1695.01
1517.65
1377.15
1263.4
1169.59
1091.05
1024.41
967.245
917.715
874.434
836.327
802.55
772.43
745.426
721.099
699.087
679.09
660.856
644.175
628.868
614.782
601.786
589.766
578.625
568.276
558.645
549.666
541.28
533.437
526.09
519.197
512.724
506.636
500.905
495.503
490.406
485.593
481.043
476.739
472.663
468.802
465.14
461.665
458.365
455.23
452.25
449.414
446.716
444.147
441.699
439.366
437.142
435.021
432.997
431.065
429.221
427.46
426.339
425.28
424.278
423.331
422.434
421.586
420.783
420.024
419.305
418.624
417.98
417.37
416.792
416.245
415.727
415.236
414.771
414.33
413.913
413.517
413.142
412.787
412.45
412.13
411.828
6152.41
4327.38
3304.69
2665.22
2233.45
1925.01
1695.01
1517.65
1377.15
1263.4
1169.59
1091.05
1024.41
967.245
917.715
874.434
836.327
802.55
772.43
745.426
721.099
699.087
679.09
660.856
644.175
628.868
614.782
601.786
589.766
578.625
568.276
558.645
549.666
541.28
533.437
526.09
519.197
512.724
506.636
500.905
495.503
490.406
485.593
481.043
476.738
472.663
468.801
465.139
461.664
458.364
455.229
452.248
449.412
446.713
444.143
441.695
439.361
437.136
435.014
432.989
431.056
429.21
427.447
426.325
425.264
424.261
423.312
422.413
421.563
420.758
419.997
419.276
418.593
417.946
417.334
416.753
416.204
415.683
415.19
414.722
414.279
413.859
413.461
413.083
412.725
412.386
412.064
411.758
6152.34
4327.36
3304.67
2665.21
2233.44
1925
1695
1517.64
1377.15
1263.39
1169.59
1091.05
1024.41
967.244
917.714
874.433
836.327
802.549
772.429
745.426
721.099
699.087
679.089
660.856
644.175
628.868
614.782
601.786
589.766
578.625
568.276
558.645
549.666
541.28
533.437
526.089
519.197
512.724
506.636
500.904
495.502
490.406
485.592
481.042
476.738
472.662
468.8
465.138
461.663
458.363
455.227
452.246
449.41
446.711
444.14
441.691
439.357
437.131
435.007
432.981
431.047
429.2
427.435
426.312
425.25
424.245
423.294
422.394
421.542
420.736
419.973
419.25
418.565
417.916
417.302
416.72
416.168
415.645
415.15
414.68
414.235
413.813
413.413
413.033
412.673
412.332
412.008
411.7
6152.2
4327.3
3304.64
2665.19
2233.43
1924.99
1695
1517.64
1377.15
1263.39
1169.59
1091.04
1024.41
967.242
917.713
874.432
836.325
802.548
772.428
745.425
721.098
699.086
679.089
660.855
644.175
628.868
614.782
601.785
589.766
578.624
568.276
558.645
549.666
541.28
533.436
526.089
519.197
512.723
506.636
500.904
495.502
490.405
485.592
481.042
476.738
472.662
468.8
465.137
461.662
458.361
455.226
452.244
449.408
446.708
444.137
441.687
439.352
437.126
435.001
432.974
431.039
429.191
427.425
426.301
425.238
424.232
423.28
422.379
421.527
420.719
419.955
419.231
418.545
417.896
417.281
416.698
416.145
415.622
415.126
414.655
414.21
413.787
413.386
413.006
412.645
412.304
411.979
411.672
6152
4327.23
3304.59
2665.16
2233.41
1924.98
1694.99
1517.63
1377.14
1263.39
1169.58
1091.04
1024.41
967.239
917.71
874.43
836.324
802.546
772.427
745.424
721.097
699.085
679.088
660.854
644.174
628.867
614.781
601.785
589.765
578.624
568.275
558.644
549.665
541.28
533.436
526.089
519.197
512.724
506.636
500.905
495.503
490.407
485.594
481.045
476.741
472.666
468.804
465.142
461.668
458.369
455.234
452.254
449.419
446.722
444.154
441.707
439.377
437.155
435.037
433.018
431.093
429.257
427.507
426.394
425.344
424.352
423.416
422.532
421.697
420.909
420.165
419.463
418.8
418.175
417.585
417.028
416.502
416.006
415.539
415.097
414.681
414.288
413.917
413.568
413.238
412.926
412.632
412.355
6151.79
4327.15
3304.54
2665.13
2233.39
1924.96
1694.97
1517.62
1377.13
1263.38
1169.58
1091.04
1024.4
967.237
917.708
874.428
836.322
802.545
772.425
745.423
721.096
699.085
679.088
660.855
644.175
628.87
614.786
601.792
589.775
578.638
568.294
558.669
549.698
541.322
533.49
526.157
519.282
512.829
506.765
501.061
495.691
490.631
485.86
481.359
477.109
473.096
469.305
465.723
462.339
459.143
456.126
453.279
450.598
448.075
445.707
443.489
441.42
439.498
437.723
436.093
434.609
433.272
432.082
431.366
430.733
430.177
429.693
429.277
428.925
428.631
428.392
428.204
428.062
427.962
427.901
427.875
427.881
427.915
427.974
428.055
428.157
428.275
428.409
428.555
428.712
428.878
429.052
429.232
6151.59
4327.07
3304.49
2665.09
2233.37
1924.95
1694.96
1517.61
1377.13
1263.37
1169.57
1091.03
1024.4
967.234
917.706
874.428
836.324
802.55
772.436
745.443
721.13
699.14
679.175
660.988
644.374
629.16
615.2
602.372
590.574
579.719
569.735
560.564
552.155
544.467
537.468
531.129
525.427
520.344
515.862
511.967
508.645
505.883
503.668
501.987
500.827
500.173
500.011
500.326
501.104
502.33
503.992
506.075
508.566
511.451
514.716
518.35
522.341
526.678
531.351
536.35
541.663
547.274
553.161
557.152
561.166
565.183
569.189
573.174
577.126
581.035
584.894
588.694
592.429
596.091
599.677
603.18
606.598
609.927
613.164
616.309
619.359
622.314
625.174
627.938
630.608
633.184
635.667
638.072
6151.4
4327
3304.44
2665.06
2233.35
1924.94
1694.95
1517.61
1377.12
1263.37
1169.57
1091.03
1024.41
967.26
917.765
874.547
836.552
802.967
773.169
746.682
723.159
702.363
684.153
668.469
655.322
644.78
636.942
631.921
629.812
630.677
634.518
641.26
650.728
662.694
676.887
693.008
710.748
729.797
749.859
770.656
791.934
813.468
835.059
856.538
877.764
898.621
919.017
938.883
958.176
976.868
994.944
1012.4
1029.21
1045.35
1060.85
1075.73
1090.02
1103.75
1116.95
1129.65
1141.88
1153.66
1165
1172.29
1179.25
1185.89
1192.21
1198.24
1203.99
1209.48
1214.7
1219.69
1224.44
1228.97
1233.29
1237.41
1241.33
1245.06
1248.62
1252.01
1255.24
1258.31
1261.23
1264.01
1266.65
1269.16
1271.55
1273.83
6151.23
4326.94
3304.4
2665.04
2233.33
1924.92
1694.94
1517.6
1377.13
1263.4
1169.67
1091.29
1025.01
968.587
920.517
879.957
846.643
820.851
803.3
794.954
796.724
809.078
831.663
863.505
903.142
948.823
998.703
1051
1104.13
1156.72
1207.73
1256.29
1301.69
1343.75
1382.4
1417.67
1449.66
1478.51
1504.39
1527.51
1548.06
1566.24
1582.26
1596.31
1608.59
1619.28
1628.55
1636.57
1643.62
1649.85
1655.36
1660.25
1664.6
1668.52
1672.06
1675.28
1678.23
1680.96
1683.49
1685.86
1688.1
1690.23
1692.26
1693.58
1694.85
1696.07
1697.24
1698.37
1699.46
1700.51
1701.52
1702.49
1703.43
1704.33
1705.21
1706.05
1706.86
1707.64
1708.39
1709.1
1709.79
1710.45