/*--------------------------------*- C++ -*----------------------------------*\
| =========                 |                                                 |
| \\      /  F ield         | OpenFOAM: The Open Source CFD Toolbox           |
|  \\    /   O peration     | Version:  5.x                                   |
|   \\  /    A nd           | Web:      www.OpenFOAM.org                      |
|    \\/     M anipulation  |                                                 |
\*---------------------------------------------------------------------------*/
FoamFile
{
    version     2.0;
    format      ascii;
    class       volScalarField;
    location    "871";
    object      p;
}
// * * * * * * * * * * * * * * * * * * * * * * * * * * * * * * * * * * * * * //

dimensions      [0 2 -2 0 0 0 0];

internalField   nonuniform List<scalar> 
20540
(
-44.8425
-43.5727
-44.8425
-43.5741
-44.8425
-43.5755
-44.8425
-43.5766
-44.8425
-43.5777
-44.8425
-43.579
-44.8425
-43.581
-44.8425
-43.5839
-44.8425
-43.5882
-44.8425
-43.5942
-44.8425
-43.6024
-44.8425
-43.6135
-44.8425
-43.6278
-44.8425
-43.646
-44.8425
-43.6684
-44.8425
-43.6956
-44.8425
-43.7281
-44.8425
-43.7671
-44.8426
-43.8134
-44.8426
-43.8683
-44.8427
-43.9331
-44.8429
-44.009
-44.8431
-44.0974
-44.8435
-44.1992
-44.8439
-44.3152
-44.8446
-44.445
-44.8455
-44.5872
-44.8467
-44.738
-44.8481
-44.8905
-44.8496
-45.0325
-44.8507
-45.1314
-44.8513
-45.1795
-44.8513
-45.1794
-44.8508
-45.1312
-44.8496
-45.0336
-44.8482
-44.8969
-44.8469
-44.7496
-44.8457
-44.6032
-44.8448
-44.4644
-44.8441
-44.3367
-44.8436
-44.2218
-44.8433
-44.1202
-44.843
-44.0314
-44.8429
-43.9545
-44.8428
-43.8884
-44.8427
-43.8319
-44.8427
-43.784
-44.8426
-43.7434
-44.8426
-43.7092
-44.8426
-43.6804
-44.8426
-43.6563
-44.8426
-43.6365
-44.8426
-43.6205
-44.8426
-43.6079
-44.8426
-43.5982
-44.8426
-43.5909
-44.8426
-43.5856
-44.8426
-43.5818
-44.8426
-43.5792
-44.8426
-43.5774
-44.8426
-43.5762
-44.8426
-43.5752
-44.8426
-43.5741
-44.8426
-43.5726
-44.8426
-43.5713
-47.612
-56.2794
-62.2687
-66.9137
-70.9899
-74.8367
-78.4958
-81.9442
-85.1893
-88.2562
-91.1634
-93.9256
-96.5563
-99.0628
-101.452
-103.733
-105.915
-108.001
-109.997
-111.906
-113.734
-115.488
-117.169
-118.781
-120.327
-121.811
-123.234
-124.601
-125.913
-127.172
-128.383
-129.546
-130.665
-131.74
-132.775
-133.77
-134.728
-135.651
-136.541
-137.4
-138.231
-139.035
-139.816
-140.577
-141.32
-142.049
-142.769
-143.483
-144.197
-144.917
-145.648
-146.398
-147.173
-147.982
-148.833
-149.735
-150.7
-151.737
-152.859
-154.08
-155.411
-156.887
-158.446
-160.117
-161.524
-162.838
-164.208
-165.646
-167.146
-168.709
-170.335
-172.026
-173.786
-175.616
-177.52
-179.504
-181.572
-183.734
-186
-188.385
-190.908
-193.599
-196.5
-199.679
-203.23
-207.396
-211.948
-219.362
-47.6117
-56.2789
-62.2685
-66.9136
-70.9898
-74.8367
-78.4957
-81.9442
-85.1893
-88.2561
-91.1633
-93.9256
-96.5563
-99.0627
-101.452
-103.733
-105.915
-108.001
-109.997
-111.906
-113.734
-115.488
-117.169
-118.781
-120.327
-121.811
-123.234
-124.601
-125.913
-127.172
-128.383
-129.546
-130.665
-131.74
-132.775
-133.77
-134.728
-135.651
-136.541
-137.4
-138.231
-139.035
-139.816
-140.577
-141.32
-142.049
-142.769
-143.483
-144.197
-144.917
-145.648
-146.398
-147.173
-147.982
-148.833
-149.735
-150.7
-151.737
-152.859
-154.08
-155.412
-156.887
-158.446
-160.117
-161.524
-162.838
-164.208
-165.646
-167.146
-168.709
-170.335
-172.027
-173.786
-175.616
-177.521
-179.504
-181.573
-183.735
-186.001
-188.385
-190.909
-193.6
-196.501
-199.68
-203.232
-207.399
-211.955
-219.334
-47.6096
-56.2778
-62.2682
-66.9134
-70.9897
-74.8365
-78.4957
-81.9441
-85.1892
-88.2561
-91.1633
-93.9255
-96.5563
-99.0627
-101.452
-103.733
-105.915
-108.001
-109.997
-111.906
-113.734
-115.488
-117.169
-118.781
-120.327
-121.811
-123.234
-124.601
-125.913
-127.172
-128.383
-129.546
-130.665
-131.74
-132.775
-133.77
-134.728
-135.651
-136.541
-137.4
-138.231
-139.035
-139.816
-140.577
-141.32
-142.049
-142.769
-143.483
-144.197
-144.917
-145.648
-146.398
-147.173
-147.982
-148.833
-149.735
-150.7
-151.737
-152.859
-154.08
-155.412
-156.887
-158.447
-160.117
-161.524
-162.838
-164.208
-165.646
-167.147
-168.709
-170.335
-172.027
-173.786
-175.617
-177.521
-179.505
-181.573
-183.735
-186.001
-188.386
-190.91
-193.601
-196.502
-199.682
-203.235
-207.403
-211.953
-219.265
-47.6054
-56.2753
-62.2674
-66.913
-70.9894
-74.8363
-78.4955
-81.944
-85.1891
-88.256
-91.1632
-93.9254
-96.5562
-99.0626
-101.452
-103.733
-105.915
-108.001
-109.997
-111.906
-113.734
-115.487
-117.168
-118.781
-120.327
-121.811
-123.234
-124.601
-125.913
-127.172
-128.383
-129.546
-130.665
-131.74
-132.775
-133.77
-134.728
-135.651
-136.541
-137.4
-138.231
-139.035
-139.816
-140.577
-141.32
-142.049
-142.769
-143.483
-144.197
-144.917
-145.648
-146.398
-147.173
-147.982
-148.833
-149.735
-150.7
-151.737
-152.859
-154.08
-155.412
-156.887
-158.447
-160.117
-161.524
-162.839
-164.209
-165.647
-167.147
-168.71
-170.336
-172.028
-173.787
-175.617
-177.522
-179.506
-181.574
-183.737
-186.003
-188.388
-190.912
-193.603
-196.505
-199.685
-203.238
-207.402
-211.935
-219.145
-47.6005
-56.271
-62.266
-66.9122
-70.9888
-74.8359
-78.4951
-81.9437
-85.1888
-88.2558
-91.163
-93.9253
-96.556
-99.0625
-101.452
-103.733
-105.915
-108.001
-109.997
-111.906
-113.734
-115.487
-117.168
-118.78
-120.327
-121.81
-123.234
-124.601
-125.913
-127.172
-128.383
-129.546
-130.665
-131.74
-132.775
-133.77
-134.728
-135.651
-136.541
-137.4
-138.231
-139.035
-139.816
-140.577
-141.32
-142.049
-142.769
-143.483
-144.197
-144.917
-145.648
-146.398
-147.173
-147.982
-148.833
-149.736
-150.7
-151.737
-152.859
-154.08
-155.412
-156.888
-158.447
-160.118
-161.525
-162.839
-164.209
-165.648
-167.148
-168.711
-170.337
-172.029
-173.789
-175.619
-177.524
-179.507
-181.577
-183.739
-186.005
-188.391
-190.915
-193.606
-196.508
-199.688
-203.239
-207.396
-211.892
-218.959
-47.5962
-56.2651
-62.2636
-66.9109
-70.988
-74.8353
-78.4946
-81.9433
-85.1885
-88.2555
-91.1627
-93.925
-96.5558
-99.0623
-101.451
-103.733
-105.914
-108.001
-109.997
-111.906
-113.734
-115.487
-117.168
-118.78
-120.327
-121.81
-123.234
-124.601
-125.913
-127.172
-128.383
-129.546
-130.665
-131.74
-132.775
-133.77
-134.728
-135.651
-136.541
-137.4
-138.23
-139.035
-139.816
-140.577
-141.32
-142.049
-142.769
-143.483
-144.197
-144.917
-145.648
-146.398
-147.173
-147.982
-148.833
-149.736
-150.7
-151.737
-152.859
-154.081
-155.413
-156.888
-158.448
-160.118
-161.526
-162.84
-164.21
-165.649
-167.149
-168.712
-170.339
-172.031
-173.79
-175.621
-177.526
-179.51
-181.579
-183.742
-186.009
-188.394
-190.918
-193.61
-196.512
-199.691
-203.237
-207.377
-211.82
-218.695
-47.593
-56.2578
-62.2602
-66.9091
-70.9868
-74.8344
-78.494
-81.9427
-85.188
-88.255
-91.1624
-93.9247
-96.5555
-99.062
-101.451
-103.733
-105.914
-108
-109.996
-111.906
-113.734
-115.487
-117.168
-118.78
-120.327
-121.81
-123.234
-124.601
-125.912
-127.172
-128.382
-129.546
-130.665
-131.74
-132.774
-133.77
-134.728
-135.651
-136.541
-137.4
-138.23
-139.035
-139.816
-140.576
-141.32
-142.049
-142.769
-143.483
-144.197
-144.917
-145.648
-146.398
-147.173
-147.982
-148.833
-149.736
-150.7
-151.738
-152.86
-154.081
-155.413
-156.889
-158.449
-160.119
-161.527
-162.841
-164.212
-165.65
-167.151
-168.714
-170.34
-172.033
-173.793
-175.623
-177.528
-179.513
-181.582
-183.745
-186.012
-188.398
-190.922
-193.614
-196.514
-199.69
-203.229
-207.342
-211.71
-218.337
-47.5913
-56.2494
-62.2558
-66.9066
-70.9852
-74.8332
-78.493
-81.942
-85.1874
-88.2545
-91.1619
-93.9243
-96.5551
-99.0617
-101.451
-103.732
-105.914
-108
-109.996
-111.905
-113.734
-115.487
-117.168
-118.78
-120.326
-121.81
-123.234
-124.601
-125.912
-127.172
-128.382
-129.546
-130.665
-131.74
-132.774
-133.77
-134.728
-135.651
-136.54
-137.4
-138.23
-139.035
-139.816
-140.576
-141.32
-142.049
-142.769
-143.483
-144.197
-144.917
-145.648
-146.398
-147.173
-147.982
-148.833
-149.736
-150.701
-151.738
-152.86
-154.081
-155.414
-156.89
-158.449
-160.12
-161.528
-162.842
-164.213
-165.651
-167.152
-168.716
-170.342
-172.035
-173.795
-175.626
-177.531
-179.516
-181.585
-183.748
-186.015
-188.401
-190.925
-193.615
-196.514
-199.685
-203.21
-207.283
-211.557
-217.871
-47.5914
-56.2403
-62.2504
-66.9033
-70.9831
-74.8317
-78.4918
-81.941
-85.1865
-88.2538
-91.1612
-93.9237
-96.5546
-99.0612
-101.45
-103.732
-105.914
-108
-109.996
-111.905
-113.733
-115.487
-117.168
-118.78
-120.326
-121.81
-123.234
-124.601
-125.912
-127.171
-128.382
-129.546
-130.664
-131.74
-132.774
-133.769
-134.727
-135.65
-136.54
-137.4
-138.23
-139.035
-139.816
-140.576
-141.319
-142.049
-142.768
-143.483
-144.197
-144.917
-145.648
-146.398
-147.173
-147.982
-148.833
-149.736
-150.701
-151.738
-152.861
-154.082
-155.414
-156.89
-158.45
-160.121
-161.529
-162.844
-164.214
-165.653
-167.154
-168.718
-170.344
-172.037
-173.797
-175.628
-177.534
-179.518
-181.588
-183.751
-186.018
-188.403
-190.926
-193.615
-196.509
-199.671
-203.176
-207.193
-211.349
-217.279
-47.5938
-56.2306
-62.244
-66.899
-70.9802
-74.8296
-78.4902
-81.9397
-85.1854
-88.2528
-91.1604
-93.923
-96.554
-99.0606
-101.45
-103.731
-105.913
-107.999
-109.995
-111.905
-113.733
-115.486
-117.167
-118.779
-120.326
-121.81
-123.233
-124.6
-125.912
-127.171
-128.382
-129.546
-130.664
-131.74
-132.774
-133.769
-134.727
-135.65
-136.54
-137.399
-138.23
-139.035
-139.816
-140.576
-141.319
-142.049
-142.768
-143.483
-144.197
-144.917
-145.648
-146.398
-147.173
-147.982
-148.834
-149.736
-150.701
-151.739
-152.861
-154.083
-155.415
-156.891
-158.451
-160.122
-161.531
-162.845
-164.216
-165.655
-167.156
-168.719
-170.346
-172.039
-173.799
-175.631
-177.536
-179.52
-181.59
-183.753
-186.019
-188.403
-190.924
-193.609
-196.497
-199.646
-203.121
-207.061
-211.077
-216.553
-47.5991
-56.2206
-62.2369
-66.8938
-70.9765
-74.8269
-78.4881
-81.9379
-85.184
-88.2516
-91.1593
-93.922
-96.5531
-99.0598
-101.449
-103.731
-105.912
-107.999
-109.995
-111.904
-113.733
-115.486
-117.167
-118.779
-120.326
-121.809
-123.233
-124.6
-125.911
-127.171
-128.382
-129.545
-130.664
-131.739
-132.774
-133.769
-134.727
-135.65
-136.54
-137.399
-138.23
-139.034
-139.815
-140.576
-141.319
-142.049
-142.768
-143.482
-144.197
-144.917
-145.648
-146.398
-147.173
-147.982
-148.834
-149.737
-150.701
-151.739
-152.861
-154.083
-155.416
-156.892
-158.452
-160.123
-161.532
-162.847
-164.217
-165.656
-167.157
-168.721
-170.348
-172.041
-173.801
-175.632
-177.537
-179.521
-181.59
-183.752
-186.017
-188.399
-190.916
-193.596
-196.474
-199.602
-203.036
-206.875
-210.724
-215.689
-47.6072
-56.2102
-62.2295
-66.8876
-70.9717
-74.8233
-78.4854
-81.9357
-85.1821
-88.25
-91.1579
-93.9208
-96.552
-99.0588
-101.448
-103.73
-105.912
-107.998
-109.994
-111.903
-113.732
-115.485
-117.166
-118.779
-120.325
-121.809
-123.233
-124.6
-125.911
-127.17
-128.381
-129.545
-130.663
-131.739
-132.773
-133.769
-134.727
-135.65
-136.54
-137.399
-138.229
-139.034
-139.815
-140.576
-141.319
-142.048
-142.768
-143.482
-144.197
-144.917
-145.648
-146.398
-147.173
-147.982
-148.834
-149.737
-150.701
-151.739
-152.862
-154.083
-155.416
-156.892
-158.453
-160.124
-161.532
-162.847
-164.217
-165.656
-167.158
-168.721
-170.348
-172.041
-173.801
-175.632
-177.536
-179.519
-181.587
-183.747
-186.01
-188.388
-190.9
-193.571
-196.433
-199.531
-202.908
-206.62
-210.275
-214.688
-47.6175
-56.1994
-62.222
-66.8809
-70.9661
-74.8188
-78.4818
-81.9329
-85.1797
-88.2479
-91.1561
-93.9192
-96.5505
-99.0575
-101.447
-103.729
-105.911
-107.997
-109.993
-111.903
-113.731
-115.485
-117.166
-118.778
-120.324
-121.808
-123.232
-124.599
-125.91
-127.17
-128.381
-129.544
-130.663
-131.738
-132.773
-133.768
-134.726
-135.649
-136.539
-137.398
-138.229
-139.034
-139.815
-140.575
-141.319
-142.048
-142.768
-143.482
-144.196
-144.916
-145.648
-146.398
-147.173
-147.982
-148.833
-149.737
-150.701
-151.739
-152.862
-154.083
-155.416
-156.892
-158.454
-160.123
-161.532
-162.848
-164.217
-165.656
-167.157
-168.72
-170.347
-172.039
-173.798
-175.628
-177.531
-179.513
-181.579
-183.736
-185.995
-188.367
-190.87
-193.527
-196.366
-199.423
-202.723
-206.278
-209.711
-213.561
-47.6299
-56.1882
-62.2148
-66.8739
-70.9597
-74.8134
-78.4773
-81.9291
-85.1766
-88.2453
-91.1538
-93.9171
-96.5487
-99.0558
-101.446
-103.727
-105.909
-107.996
-109.992
-111.902
-113.73
-115.484
-117.165
-118.777
-120.324
-121.807
-123.231
-124.598
-125.91
-127.169
-128.38
-129.544
-130.662
-131.738
-132.772
-133.768
-134.726
-135.649
-136.539
-137.398
-138.229
-139.033
-139.814
-140.575
-141.318
-142.048
-142.767
-143.481
-144.196
-144.916
-145.647
-146.397
-147.173
-147.982
-148.833
-149.736
-150.701
-151.739
-152.861
-154.083
-155.415
-156.891
-158.453
-160.122
-161.53
-162.846
-164.215
-165.653
-167.154
-168.716
-170.342
-172.033
-173.791
-175.619
-177.521
-179.5
-181.562
-183.715
-185.967
-188.33
-190.82
-193.456
-196.262
-199.261
-202.461
-205.829
-209.014
-212.326
-47.6452
-56.1764
-62.2082
-66.867
-70.9529
-74.8072
-78.4718
-81.9244
-85.1726
-88.2418
-91.1508
-93.9144
-96.5463
-99.0537
-101.444
-103.726
-105.908
-107.994
-109.991
-111.9
-113.729
-115.482
-117.164
-118.776
-120.322
-121.806
-123.23
-124.597
-125.909
-127.168
-128.379
-129.543
-130.662
-131.737
-132.772
-133.767
-134.725
-135.648
-136.538
-137.397
-138.228
-139.032
-139.814
-140.574
-141.317
-142.047
-142.767
-143.481
-144.195
-144.915
-145.647
-146.396
-147.172
-147.981
-148.832
-149.735
-150.7
-151.737
-152.86
-154.081
-155.414
-156.888
-158.452
-160.118
-161.525
-162.842
-164.209
-165.647
-167.147
-168.708
-170.332
-172.021
-173.777
-175.603
-177.501
-179.476
-181.532
-183.678
-185.92
-188.269
-190.739
-193.345
-196.104
-199.026
-202.099
-205.251
-208.167
-210.995
-47.6643
-56.1629
-62.202
-66.8606
-70.9461
-74.8005
-78.4657
-81.9189
-85.1677
-88.2374
-91.1469
-93.911
-96.5432
-99.0509
-101.441
-103.723
-105.905
-107.992
-109.989
-111.898
-113.727
-115.481
-117.162
-118.774
-120.321
-121.805
-123.229
-124.596
-125.908
-127.167
-128.378
-129.542
-130.661
-131.736
-132.771
-133.766
-134.724
-135.647
-136.537
-137.396
-138.227
-139.032
-139.813
-140.573
-141.317
-142.046
-142.766
-143.48
-144.194
-144.914
-145.646
-146.395
-147.171
-147.979
-148.831
-149.733
-150.698
-151.735
-152.857
-154.078
-155.41
-156.883
-158.448
-160.11
-161.517
-162.835
-164.199
-165.635
-167.133
-168.693
-170.314
-172.001
-173.753
-175.574
-177.466
-179.434
-181.482
-183.616
-185.843
-188.172
-190.613
-193.176
-195.871
-198.693
-201.609
-204.522
-207.159
-209.576
-47.688
-56.1471
-62.1962
-66.8549
-70.9397
-74.7938
-78.4591
-81.9127
-85.1619
-88.2321
-91.1421
-93.9066
-96.5392
-99.0472
-101.438
-103.72
-105.903
-107.99
-109.986
-111.896
-113.725
-115.479
-117.16
-118.773
-120.319
-121.803
-123.227
-124.595
-125.906
-127.166
-128.377
-129.54
-130.659
-131.735
-132.769
-133.765
-134.723
-135.646
-136.536
-137.395
-138.226
-139.03
-139.812
-140.572
-141.315
-142.045
-142.764
-143.479
-144.193
-144.913
-145.644
-146.394
-147.169
-147.977
-148.828
-149.731
-150.695
-151.731
-152.853
-154.073
-155.404
-156.875
-158.44
-160.098
-161.502
-162.82
-164.182
-165.615
-167.11
-168.666
-170.284
-171.965
-173.712
-175.526
-177.41
-179.367
-181.402
-183.518
-185.723
-188.022
-190.421
-192.925
-195.534
-198.229
-200.962
-203.62
-205.98
-208.066
-47.7166
-56.1289
-62.1903
-66.8501
-70.9341
-74.7877
-78.4527
-81.9063
-85.1557
-88.2262
-91.1365
-93.9014
-96.5343
-99.0426
-101.433
-103.716
-105.899
-107.986
-109.983
-111.893
-113.722
-115.476
-117.157
-118.77
-120.317
-121.801
-123.225
-124.593
-125.904
-127.164
-128.375
-129.539
-130.657
-131.733
-132.768
-133.763
-134.721
-135.644
-136.534
-137.394
-138.224
-139.029
-139.81
-140.571
-141.314
-142.043
-142.763
-143.477
-144.191
-144.911
-145.642
-146.391
-147.165
-147.974
-148.824
-149.726
-150.689
-151.725
-152.845
-154.063
-155.393
-156.861
-158.427
-160.078
-161.478
-162.796
-164.153
-165.582
-167.073
-168.623
-170.235
-171.909
-173.646
-175.45
-177.32
-179.261
-181.276
-183.368
-185.539
-187.795
-190.136
-192.561
-195.058
-197.6
-200.124
-202.521
-204.621
-206.451
-47.7506
-56.1077
-62.1838
-66.8459
-70.9295
-74.7824
-78.4469
-81.9002
-85.1493
-88.22
-91.1304
-93.8955
-96.5287
-99.0373
-101.428
-103.711
-105.894
-107.982
-109.979
-111.889
-113.718
-115.472
-117.154
-118.767
-120.314
-121.798
-123.222
-124.59
-125.901
-127.161
-128.372
-129.536
-130.655
-131.731
-132.765
-133.761
-134.719
-135.642
-136.532
-137.392
-138.222
-139.027
-139.808
-140.569
-141.312
-142.041
-142.76
-143.474
-144.188
-144.907
-145.638
-146.387
-147.161
-147.968
-148.818
-149.718
-150.68
-151.714
-152.833
-154.049
-155.376
-156.838
-158.405
-160.046
-161.44
-162.757
-164.108
-165.529
-167.013
-168.556
-170.157
-171.82
-173.544
-175.331
-177.182
-179.099
-181.084
-183.139
-185.264
-187.459
-189.721
-192.041
-194.401
-196.762
-199.061
-201.202
-203.068
-204.704
-47.791
-56.083
-62.1763
-66.8419
-70.9258
-74.7782
-78.442
-81.8946
-85.1436
-88.2141
-91.1242
-93.8892
-96.5226
-99.0314
-101.423
-103.706
-105.889
-107.977
-109.974
-111.884
-113.714
-115.468
-117.15
-118.763
-120.31
-121.794
-123.219
-124.586
-125.898
-127.158
-128.369
-129.533
-130.652
-131.728
-132.762
-133.758
-134.716
-135.639
-136.53
-137.389
-138.22
-139.024
-139.805
-140.566
-141.309
-142.038
-142.757
-143.47
-144.184
-144.903
-145.633
-146.381
-147.153
-147.96
-148.808
-149.707
-150.667
-151.698
-152.813
-154.025
-155.348
-156.804
-158.37
-159.996
-161.381
-162.695
-164.037
-165.448
-166.921
-168.451
-170.038
-171.683
-173.386
-175.149
-176.971
-178.854
-180.796
-182.799
-184.858
-186.97
-189.127
-191.316
-193.51
-195.669
-197.736
-199.636
-201.298
-202.785
-47.8387
-56.0541
-62.1672
-66.8372
-70.9219
-74.775
-78.4387
-81.8908
-85.1391
-88.2084
-91.1181
-93.8836
-96.5169
-99.0254
-101.416
-103.7
-105.883
-107.971
-109.968
-111.879
-113.708
-115.463
-117.145
-118.758
-120.305
-121.789
-123.214
-124.582
-125.893
-127.153
-128.365
-129.529
-130.648
-131.724
-132.758
-133.754
-134.712
-135.636
-136.526
-137.385
-138.216
-139.02
-139.801
-140.562
-141.304
-142.033
-142.752
-143.465
-144.178
-144.896
-145.625
-146.371
-147.142
-147.947
-148.792
-149.689
-150.645
-151.673
-152.783
-153.989
-155.305
-156.751
-158.313
-159.92
-161.291
-162.598
-163.928
-165.323
-166.778
-168.289
-169.853
-171.472
-173.146
-174.874
-176.655
-178.488
-180.371
-182.302
-184.272
-186.275
-188.298
-190.324
-192.327
-194.268
-196.103
-197.78
-199.268
-200.637
-47.8948
-56.0208
-62.1562
-66.8317
-70.9171
-74.771
-78.4357
-81.8885
-85.1367
-88.205
-91.1142
-93.8792
-96.5113
-99.019
-101.41
-103.694
-105.877
-107.965
-109.963
-111.873
-113.702
-115.457
-117.139
-118.752
-120.299
-121.784
-123.209
-124.576
-125.888
-127.148
-128.36
-129.524
-130.643
-131.719
-132.753
-133.749
-134.707
-135.631
-136.521
-137.38
-138.211
-139.015
-139.796
-140.556
-141.299
-142.027
-142.745
-143.457
-144.169
-144.886
-145.613
-146.358
-147.127
-147.927
-148.77
-149.662
-150.613
-151.634
-152.737
-153.934
-155.239
-156.671
-158.223
-159.804
-161.154
-162.448
-163.76
-165.131
-166.561
-168.043
-169.574
-171.154
-172.782
-174.458
-176.179
-177.942
-179.742
-181.573
-183.427
-185.293
-187.156
-188.995
-190.784
-192.495
-194.099
-195.569
-196.9
-198.167
-47.9601
-55.9826
-62.1428
-66.8255
-70.9116
-74.7662
-78.4318
-81.8854
-85.1342
-88.203
-91.1128
-93.8775
-96.5086
-99.0154
-101.406
-103.69
-105.872
-107.959
-109.955
-111.866
-113.696
-115.451
-117.133
-118.746
-120.294
-121.778
-123.203
-124.571
-125.883
-127.143
-128.354
-129.518
-130.637
-131.713
-132.748
-133.743
-134.702
-135.625
-136.515
-137.374
-138.205
-139.009
-139.789
-140.549
-141.291
-142.019
-142.736
-143.447
-144.157
-144.872
-145.597
-146.339
-147.104
-147.9
-148.736
-149.621
-150.565
-151.577
-152.668
-153.851
-155.14
-156.551
-158.087
-159.632
-160.952
-162.224
-163.509
-164.847
-166.239
-167.678
-169.16
-170.684
-172.248
-173.849
-175.484
-177.147
-178.83
-180.528
-182.23
-183.924
-185.593
-187.218
-188.779
-190.258
-191.637
-192.904
-194.075
-195.226
-48.0355
-55.9397
-62.1267
-66.8185
-70.9052
-74.7607
-78.4273
-81.8816
-85.1309
-88.2001
-91.1101
-93.8752
-96.5068
-99.0143
-101.406
-103.689
-105.87
-107.956
-109.952
-111.862
-113.693
-115.446
-117.128
-118.74
-120.287
-121.771
-123.195
-124.563
-125.875
-127.136
-128.348
-129.512
-130.631
-131.707
-132.742
-133.738
-134.697
-135.62
-136.51
-137.369
-138.199
-139.003
-139.783
-140.542
-141.283
-142.01
-142.725
-143.434
-144.142
-144.854
-145.575
-146.312
-147.071
-147.861
-148.688
-149.562
-150.494
-151.492
-152.566
-153.728
-154.993
-156.374
-157.88
-159.378
-160.654
-161.891
-163.135
-164.425
-165.761
-167.138
-168.55
-169.994
-171.468
-172.966
-174.483
-176.011
-177.543
-179.069
-180.578
-182.056
-183.489
-184.864
-186.17
-187.394
-188.527
-189.568
-190.537
-191.504
-48.1216
-55.8922
-62.1073
-66.8106
-70.8979
-74.7543
-78.4222
-81.8773
-85.1271
-88.1967
-91.107
-93.8724
-96.5042
-99.0118
-101.403
-103.686
-105.868
-107.955
-109.951
-111.862
-113.693
-115.446
-117.127
-118.739
-120.285
-121.769
-123.192
-124.559
-125.872
-127.133
-128.344
-129.507
-130.626
-131.701
-132.735
-133.731
-134.688
-135.611
-136.501
-137.359
-138.188
-138.991
-139.771
-140.528
-141.268
-141.993
-142.707
-143.414
-144.119
-144.827
-145.543
-146.274
-147.026
-147.805
-148.62
-149.48
-150.393
-151.369
-152.418
-153.55
-154.778
-156.116
-157.575
-159.01
-160.228
-161.411
-162.596
-163.817
-165.075
-166.365
-167.679
-169.014
-170.365
-171.725
-173.087
-174.444
-175.786
-177.101
-178.38
-179.611
-180.781
-181.88
-182.899
-183.831
-184.673
-185.426
-186.101
-186.748
-48.2184
-55.8407
-62.0844
-66.8019
-70.8898
-74.7471
-78.4163
-81.8724
-85.1229
-88.1928
-91.1035
-93.8692
-96.5012
-99.009
-101.401
-103.684
-105.866
-107.953
-109.949
-111.86
-113.69
-115.444
-117.125
-118.737
-120.284
-121.768
-123.192
-124.559
-125.872
-127.133
-128.344
-129.508
-130.627
-131.702
-132.736
-133.731
-134.688
-135.611
-136.499
-137.357
-138.185
-138.987
-139.764
-140.52
-141.258
-141.979
-142.69
-143.394
-144.094
-144.795
-145.503
-146.223
-146.962
-147.727
-148.524
-149.361
-150.247
-151.19
-152.2
-153.286
-154.46
-155.732
-157.113
-158.461
-159.604
-160.706
-161.801
-162.922
-164.07
-165.238
-166.418
-167.604
-168.791
-169.971
-171.137
-172.28
-173.39
-174.458
-175.472
-176.423
-177.299
-178.09
-178.785
-179.371
-179.839
-180.179
-180.381
-180.452
-48.3246
-55.7865
-62.0578
-66.7925
-70.8809
-74.739
-78.4098
-81.8671
-85.1182
-88.1886
-91.0997
-93.8657
-96.498
-99.0059
-101.398
-103.681
-105.864
-107.95
-109.947
-111.858
-113.688
-115.442
-117.123
-118.736
-120.282
-121.766
-123.19
-124.557
-125.87
-127.13
-128.341
-129.505
-130.624
-131.699
-132.733
-133.728
-134.685
-135.607
-136.496
-137.353
-138.181
-138.982
-139.758
-140.512
-141.247
-141.966
-142.673
-143.37
-144.063
-144.755
-145.452
-146.158
-146.881
-147.625
-148.397
-149.204
-150.053
-150.953
-151.911
-152.935
-154.034
-155.216
-156.484
-157.725
-158.778
-159.77
-160.745
-161.734
-162.74
-163.752
-164.762
-165.765
-166.753
-167.72
-168.658
-169.559
-170.415
-171.218
-171.96
-172.633
-173.23
-173.744
-174.168
-174.5
-174.733
-174.867
-174.896
-174.823
-48.4378
-55.7316
-62.0279
-66.7826
-70.8715
-74.7302
-78.4028
-81.8613
-85.1131
-88.184
-91.0955
-93.8619
-96.4945
-99.0027
-101.395
-103.679
-105.861
-107.948
-109.944
-111.855
-113.686
-115.44
-117.121
-118.733
-120.28
-121.764
-123.188
-124.555
-125.868
-127.129
-128.34
-129.504
-130.622
-131.698
-132.732
-133.726
-134.683
-135.605
-136.493
-137.349
-138.176
-138.975
-139.748
-140.5
-141.23
-141.944
-142.644
-143.334
-144.016
-144.695
-145.377
-146.064
-146.763
-147.479
-148.217
-148.983
-149.784
-150.625
-151.514
-152.455
-153.455
-154.519
-155.645
-156.742
-157.664
-158.516
-159.34
-160.169
-161
-161.824
-162.633
-163.422
-164.184
-164.915
-165.609
-166.26
-166.863
-167.415
-167.91
-168.349
-168.728
-169.048
-169.309
-169.515
-169.668
-169.773
-169.835
-169.862
-48.5526
-55.6787
-61.9959
-66.7726
-70.8621
-74.7212
-78.3955
-81.8553
-85.1079
-88.1793
-91.0913
-93.8581
-96.4909
-98.9993
-101.392
-103.676
-105.858
-107.945
-109.941
-111.853
-113.683
-115.437
-117.119
-118.731
-120.278
-121.762
-123.186
-124.553
-125.866
-127.127
-128.338
-129.502
-130.62
-131.695
-132.729
-133.723
-134.68
-135.601
-136.488
-137.343
-138.168
-138.965
-139.735
-140.483
-141.209
-141.916
-142.608
-143.287
-143.956
-144.619
-145.28
-145.943
-146.611
-147.289
-147.983
-148.695
-149.431
-150.196
-150.993
-151.827
-152.699
-153.612
-154.563
-155.474
-156.228
-156.911
-157.558
-158.197
-158.825
-159.434
-160.018
-160.573
-161.094
-161.577
-162.02
-162.42
-162.773
-163.08
-163.339
-163.551
-163.716
-163.836
-163.914
-163.953
-163.957
-163.93
-163.876
-163.801
-48.6599
-55.632
-61.9645
-66.7633
-70.8533
-74.7127
-78.3887
-81.8497
-85.103
-88.1749
-91.0872
-93.8544
-96.4875
-98.9961
-101.389
-103.673
-105.855
-107.942
-109.939
-111.85
-113.681
-115.435
-117.117
-118.729
-120.276
-121.76
-123.184
-124.551
-125.864
-127.125
-128.336
-129.5
-130.618
-131.693
-132.727
-133.721
-134.677
-135.597
-136.483
-137.336
-138.159
-138.953
-139.72
-140.462
-141.181
-141.88
-142.56
-143.224
-143.876
-144.516
-145.149
-145.778
-146.405
-147.033
-147.666
-148.307
-148.959
-149.623
-150.301
-150.995
-151.705
-152.428
-153.161
-153.837
-154.384
-154.866
-155.308
-155.729
-156.129
-156.501
-156.842
-157.149
-157.421
-157.655
-157.851
-158.008
-158.126
-158.207
-158.251
-158.259
-158.235
-158.179
-158.095
-157.986
-157.854
-157.702
-157.533
-157.349
-48.7349
-55.6008
-61.9417
-66.7566
-70.8472
-74.7067
-78.3838
-81.8457
-85.0995
-88.1717
-91.0844
-93.8518
-96.4851
-98.9938
-101.387
-103.671
-105.853
-107.94
-109.937
-111.849
-113.68
-115.434
-117.115
-118.728
-120.274
-121.758
-123.183
-124.55
-125.863
-127.124
-128.335
-129.498
-130.617
-131.691
-132.724
-133.718
-134.673
-135.592
-136.477
-137.329
-138.149
-138.939
-139.702
-140.438
-141.149
-141.837
-142.504
-143.152
-143.782
-144.397
-144.998
-145.588
-146.167
-146.739
-147.305
-147.865
-148.421
-148.972
-149.52
-150.062
-150.596
-151.117
-151.62
-152.057
-152.395
-152.678
-152.92
-153.134
-153.32
-153.474
-153.595
-153.682
-153.734
-153.751
-153.735
-153.685
-153.604
-153.492
-153.352
-153.185
-152.995
-152.782
-152.551
-152.302
-152.04
-151.765
-151.481
-151.189
-48.7714
-55.586
-61.9302
-66.7532
-70.8442
-74.7036
-78.3813
-81.8437
-85.0977
-88.1701
-91.0828
-93.8504
-96.4838
-98.9926
-101.385
-103.67
-105.852
-107.939
-109.936
-111.848
-113.679
-115.433
-117.114
-118.727
-120.274
-121.758
-123.182
-124.549
-125.862
-127.123
-128.334
-129.497
-130.615
-131.69
-132.723
-133.716
-134.671
-135.589
-136.472
-137.322
-138.139
-138.926
-139.684
-140.414
-141.117
-141.794
-142.448
-143.079
-143.688
-144.276
-144.845
-145.395
-145.927
-146.442
-146.939
-147.419
-147.88
-148.322
-148.742
-149.137
-149.503
-149.835
-150.126
-150.345
-150.494
-150.599
-150.667
-150.703
-150.707
-150.678
-150.617
-150.524
-150.399
-150.244
-150.06
-149.849
-149.614
-149.355
-149.075
-148.777
-148.462
-148.134
-147.794
-147.444
-147.086
-146.723
-146.355
-145.986
-48.7714
-55.5861
-61.93
-66.7531
-70.8441
-74.7036
-78.3813
-81.8437
-85.0977
-88.1701
-91.0828
-93.8504
-96.4838
-98.9926
-101.385
-103.67
-105.852
-107.939
-109.936
-111.848
-113.679
-115.433
-117.114
-118.727
-120.274
-121.758
-123.182
-124.549
-125.862
-127.123
-128.334
-129.497
-130.615
-131.689
-132.722
-133.714
-134.668
-135.586
-136.467
-137.315
-138.13
-138.913
-139.666
-140.389
-141.084
-141.751
-142.391
-143.005
-143.593
-144.155
-144.691
-145.202
-145.686
-146.144
-146.573
-146.974
-147.343
-147.677
-147.974
-148.23
-148.438
-148.593
-148.688
-148.71
-148.69
-148.638
-148.553
-148.435
-148.284
-148.101
-147.888
-147.646
-147.376
-147.081
-146.762
-146.422
-146.063
-145.687
-145.297
-144.895
-144.482
-144.063
-143.637
-143.208
-142.776
-142.345
-141.915
-141.487
-48.7351
-55.6012
-61.9413
-66.7562
-70.8471
-74.7066
-78.3838
-81.8457
-85.0995
-88.1717
-91.0843
-93.8518
-96.485
-98.9937
-101.387
-103.671
-105.853
-107.94
-109.937
-111.849
-113.68
-115.434
-117.115
-118.728
-120.274
-121.758
-123.183
-124.55
-125.863
-127.123
-128.334
-129.498
-130.615
-131.689
-132.722
-133.714
-134.667
-135.583
-136.463
-137.309
-138.121
-138.901
-139.649
-140.366
-141.053
-141.71
-142.336
-142.933
-143.5
-144.036
-144.54
-145.012
-145.451
-145.854
-146.219
-146.543
-146.824
-147.058
-147.24
-147.366
-147.429
-147.424
-147.344
-147.19
-147.021
-146.833
-146.617
-146.368
-146.087
-145.775
-145.436
-145.072
-144.684
-144.276
-143.849
-143.406
-142.949
-142.482
-142.005
-141.522
-141.034
-140.544
-140.053
-139.564
-139.077
-138.594
-138.116
-137.645
-48.6613
-55.6321
-61.9635
-66.7624
-70.853
-74.7126
-78.3885
-81.8496
-85.1028
-88.1747
-91.087
-93.8543
-96.4873
-98.9959
-101.389
-103.673
-105.855
-107.942
-109.939
-111.85
-113.681
-115.435
-117.117
-118.729
-120.276
-121.76
-123.184
-124.551
-125.864
-127.124
-128.335
-129.498
-130.616
-131.69
-132.722
-133.713
-134.666
-135.581
-136.46
-137.304
-138.114
-138.89
-139.634
-140.345
-141.024
-141.671
-142.284
-142.865
-143.412
-143.923
-144.397
-144.833
-145.228
-145.579
-145.883
-146.137
-146.336
-146.477
-146.554
-146.562
-146.494
-146.345
-146.109
-145.8
-145.502
-145.195
-144.867
-144.507
-144.116
-143.698
-143.255
-142.79
-142.306
-141.806
-141.292
-140.767
-140.233
-139.692
-139.148
-138.602
-138.056
-137.513
-136.973
-136.439
-135.911
-135.392
-134.882
-134.382
-48.5582
-55.6773
-61.9934
-66.7712
-70.8613
-74.7208
-78.3951
-81.8549
-85.1076
-88.1789
-91.0909
-93.8578
-96.4906
-98.999
-101.391
-103.675
-105.858
-107.945
-109.941
-111.853
-113.683
-115.437
-117.119
-118.731
-120.278
-121.762
-123.186
-124.553
-125.866
-127.126
-128.337
-129.5
-130.617
-131.691
-132.722
-133.713
-134.665
-135.58
-136.458
-137.3
-138.107
-138.881
-139.62
-140.327
-140.999
-141.637
-142.24
-142.807
-143.337
-143.828
-144.277
-144.682
-145.04
-145.348
-145.602
-145.798
-145.93
-145.995
-145.988
-145.901
-145.731
-145.469
-145.111
-144.681
-144.279
-143.881
-143.468
-143.025
-142.553
-142.055
-141.536