/*--------------------------------*- C++ -*----------------------------------*\
| =========                 |                                                 |
| \\      /  F ield         | OpenFOAM: The Open Source CFD Toolbox           |
|  \\    /   O peration     | Version:  5.x                                   |
|   \\  /    A nd           | Web:      www.OpenFOAM.org                      |
|    \\/     M anipulation  |                                                 |
\*---------------------------------------------------------------------------*/
FoamFile
{
    version     2.0;
    format      ascii;
    class       surfaceScalarField;
    location    "871";
    object      phi;
}
// * * * * * * * * * * * * * * * * * * * * * * * * * * * * * * * * * * * * * //

dimensions      [0 3 -1 0 0 0 0];

internalField   nonuniform List<scalar> 
40747
(
1.48835e-05
-2.9665e-09
6.96895e-06
7.91451e-06
1.80047e-05
-6.32641e-09
1.35961e-05
1.13776e-05
2.17806e-05
-1.01907e-08
1.96878e-05
1.56888e-05
2.63482e-05
-1.45263e-08
2.53775e-05
2.06585e-05
3.18736e-05
-1.92098e-08
3.07892e-05
2.64619e-05
3.85575e-05
-2.39706e-08
3.59788e-05
3.33679e-05
4.66427e-05
-2.83159e-08
4.09471e-05
4.16744e-05
5.64228e-05
-3.14375e-08
4.5655e-05
5.17148e-05
6.82531e-05
-3.21133e-08
5.00363e-05
6.38718e-05
8.25633e-05
-2.86161e-08
5.40083e-05
7.85913e-05
9.98734e-05
-1.86491e-08
5.74655e-05
9.64162e-05
0.000120812
6.89157e-10
6.02642e-05
0.000118014
0.000146141
3.29176e-08
6.22525e-05
0.000144153
0.000176781
8.21406e-08
6.33476e-05
0.000175686
0.000213845
1.52937e-07
6.36185e-05
0.000213574
0.000258683
2.5012e-07
6.32986e-05
0.000259003
0.000312925
3.78384e-07
6.26162e-05
0.000313608
0.000378546
5.41935e-07
6.16805e-05
0.000379482
0.000457933
7.44112e-07
6.05119e-05
0.000459102
0.000553976
9.86834e-07
5.90874e-05
0.000555401
0.000670171
1.26976e-06
5.73645e-05
0.000671894
0.000810748
1.58901e-06
5.52895e-05
0.000812823
0.000980824
1.93541e-06
5.27985e-05
0.000983315
0.00118659
2.29203e-06
4.98175e-05
0.00118957
0.00143555
2.6311e-06
4.62607e-05
0.0014391
0.00173675
2.91049e-06
4.20289e-05
0.00174098
0.00210117
3.0702e-06
3.70066e-05
0.00210619
0.00254208
3.03049e-06
3.1058e-05
0.00254803
0.00307551
2.69444e-06
2.40183e-05
0.00308255
0.00372086
1.96141e-06
1.56792e-05
0.0037292
0.00356543
1.03921e-06
7.80788e-06
0.0035733
0.00356554
1.2828e-08
-7.51858e-09
0.00357335
0.00356554
-1.01338e-06
-7.82323e-06
0.00357335
0.00356543
-1.93508e-06
-1.56955e-05
0.0035733
0.00360798
-2.64891e-06
-2.3781e-05
0.00361607
0.00300121
-2.98936e-06
-3.0645e-05
0.00300807
0.00249647
-3.04702e-06
-3.64779e-05
0.0025023
0.00207661
-2.91039e-06
-4.1431e-05
0.00208157
0.00172738
-2.65354e-06
-4.56295e-05
0.00173158
0.00143689
-2.33326e-06
-4.91801e-05
0.00144045
0.00119527
-1.9903e-06
-5.21749e-05
0.00119826
0.000994286
-1.65222e-06
-5.46938e-05
0.000996805
0.000827107
-1.33645e-06
-5.68063e-05
0.00082922
0.000688046
-1.05296e-06
-5.85724e-05
0.000689812
0.000572372
-8.06526e-07
-6.00438e-05
0.000573843
0.00047615
-5.98377e-07
-6.1263e-05
0.000477369
0.000396109
-4.2739e-07
-6.22595e-05
0.000397106
0.000329527
-2.90938e-07
-6.30358e-05
0.000330304
0.00027414
-1.8544e-07
-6.35359e-05
0.00027464
0.000228065
-1.06739e-07
-6.36014e-05
0.00022813
0.000189735
-5.04098e-08
-6.29971e-05
0.000189131
0.000157848
-1.20959e-08
-6.15688e-05
0.00015642
0.000131321
1.2222e-08
-5.93228e-05
0.000129075
0.000109252
2.60707e-08
-5.63682e-05
0.000106297
9.08912e-05
3.24238e-08
-5.28499e-05
8.73729e-05
7.56159e-05
3.36956e-08
-4.88851e-05
7.16511e-05
6.29075e-05
3.17688e-08
-4.45573e-05
5.85797e-05
5.23345e-05
2.80358e-08
-3.99384e-05
4.77156e-05
4.35384e-05
2.34669e-08
-3.50839e-05
3.86839e-05
3.62203e-05
1.86947e-08
-3.00228e-05
3.11592e-05
3.01322e-05
1.40994e-08
-2.47464e-05
2.48558e-05
2.50671e-05
9.88495e-09
-1.91937e-05
1.95145e-05
2.08535e-05
6.13969e-09
-1.32426e-05
1.49024e-05
1.7348e-05
2.88071e-09
-6.77999e-06
1.08854e-05
1.4432e-05
7.65197e-06
1.28128e-06
6.63323e-06
1.07886e-06
2.02421e-07
1.02299e-06
5.58723e-08
9.86297e-07
3.66879e-08
9.59337e-07
2.69602e-08
9.38791e-07
2.05461e-08
9.22585e-07
1.62057e-08
9.09447e-07
1.31385e-08
8.98559e-07
1.08876e-08
8.89393e-07
9.16679e-09
8.81575e-07
7.81742e-09
8.74829e-07
6.74665e-09
8.68941e-07
5.88797e-09
8.6377e-07
5.17009e-09
8.59195e-07
4.57544e-09
8.55114e-07
4.08091e-09
8.51459e-07
3.65465e-09
8.48176e-07
3.28369e-09
8.45209e-07
2.96702e-09
8.42512e-07
2.69673e-09
8.40053e-07
2.45909e-09
8.37806e-07
2.24701e-09
8.3575e-07
2.05592e-09
8.33866e-07
1.8839e-09
8.32136e-07
1.73031e-09
8.3054e-07
1.59535e-09
8.29062e-07
1.47815e-09
8.27688e-07
1.37443e-09
8.2641e-07
1.27809e-09
8.25222e-07
1.18816e-09
8.24115e-07
1.10615e-09
8.23085e-07
1.03047e-09
8.22125e-07
9.60173e-10
8.2123e-07
8.94935e-10
8.20396e-07
8.34295e-10
8.19618e-07
7.77703e-10
8.18893e-07
7.24562e-10
8.18219e-07
6.74503e-10
8.17592e-07
6.27166e-10
8.1701e-07
5.81662e-10
8.16473e-07
5.36838e-10
8.15982e-07
4.91609e-10
8.15537e-07
4.44928e-10
8.15141e-07
3.95776e-10
8.14798e-07
3.43193e-10
8.14512e-07
2.85975e-10
8.1429e-07
2.22112e-10
8.14139e-07
1.50473e-10
8.14069e-07
7.04942e-11
8.14091e-07
-2.18867e-11
8.14217e-07
-1.26397e-10
8.1446e-07
-2.4254e-10
8.14834e-07
-3.73953e-10
8.15356e-07
-5.22205e-10
8.16045e-07
-6.89028e-10
8.16922e-07
-8.76529e-10
8.18009e-07
-1.08764e-09
8.19336e-07
-1.32627e-09
8.20931e-07
-1.59536e-09
8.22835e-07
-1.90382e-09
8.25075e-07
-2.24001e-09
8.27803e-07
-2.72791e-09
8.31239e-07
-3.43609e-09
8.33505e-07
-2.26564e-09
8.35607e-07
-2.10146e-09
8.38105e-07
-2.49813e-09
8.40925e-07
-2.81954e-09
8.43956e-07
-3.03131e-09
8.47192e-07
-3.23478e-09
8.50643e-07
-3.45152e-09
8.54326e-07
-3.68223e-09
8.58255e-07
-3.92896e-09
8.62452e-07
-4.19584e-09
8.66941e-07
-4.48904e-09
8.71758e-07
-4.81641e-09
8.76947e-07
-5.18841e-09
8.82567e-07
-5.61965e-09
8.88701e-07
-6.13321e-09
8.95466e-07
-6.76462e-09
9.0304e-07
-7.57216e-09
9.11699e-07
-8.65735e-09
9.21917e-07
-1.02163e-08
9.34582e-07
-1.26628e-08
9.51621e-07
-1.70373e-08
9.77891e-07
-2.62664e-08
1.03123e-06
-5.33376e-08
1.20846e-06
-1.77227e-07
-1.36494e-06
2.5734e-06
4.74026e-06
1.32706e-05
4.13234e-06
8.10335e-07
3.9238e-06
2.64414e-07
3.78667e-06
1.7382e-07
3.68566e-06
1.27968e-07
3.60854e-06
9.76624e-08
3.54765e-06
7.71007e-08
3.49823e-06
6.25545e-08
3.45725e-06
5.18739e-08
3.42271e-06
4.37013e-08
3.39324e-06
3.72872e-08
3.3678e-06
3.2194e-08
3.34558e-06
2.81058e-08
3.32606e-06
2.46862e-08
3.30878e-06
2.18535e-08
3.29337e-06
1.94968e-08
3.27956e-06
1.74636e-08
3.26715e-06
1.56936e-08
3.25593e-06
1.4182e-08
3.24574e-06
1.28926e-08
3.23644e-06
1.17589e-08
3.22794e-06
1.07458e-08
3.22016e-06
9.83291e-09
3.21303e-06
9.01107e-09
3.20649e-06
8.27713e-09
3.20045e-06
7.6322e-09
3.19486e-06
7.07191e-09
3.18966e-06
6.57558e-09
3.18482e-06
6.11567e-09
3.18032e-06
5.68663e-09
3.17613e-06
5.29415e-09
3.17223e-06
4.93213e-09
3.16859e-06
4.59607e-09
3.16521e-06
4.28424e-09
3.16205e-06
3.99448e-09
3.1591e-06
3.72418e-09
3.15635e-06
3.47063e-09
3.1538e-06
3.23212e-09
3.15142e-06
3.00684e-09
3.14921e-06
2.79066e-09
3.14717e-06
2.57825e-09
3.14529e-06
2.36451e-09
3.14359e-06
2.14458e-09
3.14207e-06
1.91374e-09
3.14075e-06
1.66756e-09
3.13964e-06
1.40044e-09
3.13875e-06
1.1036e-09
3.13813e-06
7.71707e-10
3.1378e-06
4.0191e-10
3.1378e-06
-2.37267e-11
3.13818e-06
-5.04601e-10
3.13898e-06
-1.03875e-09
3.14025e-06
-1.6422e-09
3.14205e-06
-2.3221e-09
3.14444e-06
-3.08623e-09
3.14751e-06
-3.94407e-09
3.15133e-06
-4.90848e-09
3.156e-06
-5.99663e-09
3.16163e-06
-7.22168e-09
3.16835e-06
-8.6232e-09
3.17626e-06
-1.01499e-08
3.1859e-06
-1.23709e-08
3.19748e-06
-1.50141e-08
3.2054e-06
-1.01889e-08
3.21323e-06
-9.93052e-09
3.22206e-06
-1.13243e-08
3.23189e-06
-1.26468e-08
3.24247e-06
-1.361e-08
3.25375e-06
-1.45196e-08
3.26578e-06
-1.54723e-08
3.27857e-06
-1.64796e-08
3.2922e-06
-1.75519e-08
3.30671e-06
-1.87055e-08
3.32219e-06
-1.99661e-08
3.33874e-06
-2.13648e-08
3.35649e-06
-2.29452e-08
3.37564e-06
-2.4766e-08
3.39643e-06
-2.69211e-08
3.41922e-06
-2.95533e-08
3.44455e-06
-3.28982e-08
3.47326e-06
-3.73654e-08
3.5068e-06
-4.37483e-08
3.54787e-06
-5.37299e-08
3.60241e-06
-7.15669e-08
3.68542e-06
-1.09267e-07
3.84767e-06
-2.15585e-07
4.2654e-06
-5.94954e-07
-2.49124e-06
5.3917e-06
9.22748e-06
1.97319e-05
8.20468e-06
1.83313e-06
7.8317e-06
6.37398e-07
7.59227e-06
4.13247e-07
7.41641e-06
3.03831e-07
7.28183e-06
2.32245e-07
7.17523e-06
1.83697e-07
7.08848e-06
1.49311e-07
7.01633e-06
1.24024e-07
6.95539e-06
1.0464e-07
6.90328e-06
8.94e-08
6.85819e-06
7.72779e-08
6.81876e-06
6.75323e-08
6.78408e-06
5.93712e-08
6.75333e-06
5.26021e-08
6.72587e-06
4.6963e-08
6.70123e-06
4.20937e-08
6.67908e-06
3.78512e-08
6.65904e-06
3.42239e-08
6.6408e-06
3.11272e-08
6.62416e-06
2.84032e-08
6.60894e-06
2.5967e-08
6.595e-06
2.37708e-08
6.58222e-06
2.17925e-08
6.57047e-06
2.00245e-08
6.55963e-06
1.84697e-08
6.54959e-06
1.71178e-08
6.54024e-06
1.59195e-08
6.53155e-06
1.48101e-08
6.52346e-06
1.37752e-08
6.51593e-06
1.2827e-08
6.50891e-06
1.19525e-08
6.50236e-06
1.11406e-08
6.49626e-06
1.0387e-08
6.49057e-06
9.6866e-09
6.48526e-06
9.03307e-09
6.48031e-06
8.42004e-09
6.4757e-06
7.84339e-09
6.4714e-06
7.29867e-09
6.46742e-06
6.7761e-09
6.46373e-06
6.26299e-09
6.46035e-06
5.74712e-09
6.45728e-06
5.21683e-09
6.45453e-06
4.66079e-09
6.45213e-06
4.06839e-09
6.45011e-06
3.42613e-09
6.4485e-06
2.71361e-09
6.44735e-06
1.91781e-09
6.44672e-06
1.03143e-09
6.44668e-06
1.60114e-11
6.44731e-06
-1.13114e-09
6.44868e-06
-2.40843e-09
6.45089e-06
-3.84986e-09
6.45404e-06
-5.47265e-09
6.45825e-06
-7.29514e-09
6.46364e-06
-9.33953e-09
6.47037e-06
-1.16356e-08
6.47859e-06
-1.42231e-08
6.48851e-06
-1.71323e-08
6.50034e-06
-2.04572e-08
6.51426e-06
-2.4067e-08
6.53121e-06
-2.93264e-08
6.55106e-06
-3.48565e-08
6.56499e-06
-2.41234e-08
6.57921e-06
-2.41466e-08
6.59471e-06
-2.68237e-08
6.6118e-06
-2.97356e-08
6.63021e-06
-3.20187e-08
6.64984e-06
-3.41551e-08
6.67073e-06
-3.63613e-08
6.69293e-06
-3.86784e-08
6.71652e-06
-4.11338e-08
6.74157e-06
-4.37628e-08
6.76823e-06
-4.66209e-08
6.79664e-06
-4.97755e-08
6.82702e-06
-5.33199e-08
6.85963e-06
-5.73801e-08
6.89487e-06
-6.21549e-08
6.93326e-06
-6.79459e-08
6.97562e-06
-7.52472e-08
7.02317e-06
-8.49118e-08
7.078e-06
-9.85788e-08
7.14397e-06
-1.19687e-07
7.22921e-06
-1.56806e-07
7.35314e-06
-2.33189e-07
7.57401e-06
-4.36452e-07
8.02611e-06
-1.04705e-06
-3.27945e-06
8.81432e-06
1.4205e-05
2.61854e-05
1.27045e-05
3.33365e-06
1.21459e-05
1.196e-06
1.18054e-05
7.53786e-07
1.15601e-05
5.49068e-07
1.13738e-05
4.18605e-07
1.12266e-05
3.309e-07
1.11069e-05
2.68989e-07
1.10074e-05
2.23517e-07
1.09234e-05
1.88674e-07
1.08515e-05
1.61277e-07
1.07893e-05
1.39476e-07
1.07349e-05
1.21938e-07
1.0687e-05
1.07254e-07
1.06445e-05
9.50629e-08
1.06066e-05
8.48986e-08
1.05726e-05
7.61238e-08
1.05419e-05
6.84782e-08
1.05142e-05
6.19345e-08
1.0489e-05
5.63419e-08
1.0466e-05
5.14222e-08
1.04449e-05
4.70233e-08
1.04257e-05
4.30586e-08
1.0408e-05
3.94863e-08
1.03917e-05
3.62916e-08
1.03767e-05
3.34791e-08
1.03628e-05
3.10312e-08
1.03498e-05
2.88607e-08
1.03378e-05
2.68533e-08
1.03266e-05
2.49809e-08
1.03161e-05
2.32645e-08
1.03064e-05
2.1682e-08
1.02973e-05
2.02129e-08
1.02889e-05
1.88488e-08
1.0281e-05
1.75804e-08
1.02736e-05
1.63965e-08
1.02668e-05
1.52855e-08
1.02604e-05
1.42398e-08
1.02544e-05
1.32512e-08
1.02489e-05
1.23024e-08
1.02438e-05
1.13708e-08
1.02391e-05
1.04343e-08
1.02348e-05
9.47171e-09
1.0231e-05
8.46249e-09
1.02277e-05
7.38727e-09
1.02249e-05
6.22151e-09
1.02227e-05
4.92871e-09
1.02211e-05
3.48471e-09
1.02203e-05
1.87535e-09
1.02203e-05
3.80015e-11
1.02212e-05
-2.03965e-09
1.02231e-05
-4.35966e-09
1.02263e-05
-6.97554e-09
1.02307e-05
-9.91906e-09
1.02366e-05
-1.32235e-08
1.02442e-05
-1.69287e-08
1.02537e-05
-2.10875e-08
1.02652e-05
-2.57705e-08
1.02791e-05
-3.10312e-08
1.02957e-05
-3.7041e-08
1.03152e-05
-4.35395e-08
1.03389e-05
-5.30114e-08
1.03662e-05
-6.21679e-08
1.03857e-05
-4.37e-08
1.04061e-05
-4.45256e-08
1.04278e-05
-4.85387e-08
1.04516e-05
-5.3444e-08
1.04771e-05
-5.75447e-08
1.05043e-05
-6.13863e-08
1.05333e-05
-6.53129e-08
1.0564e-05
-6.94109e-08
1.05966e-05
-7.3733e-08
1.06312e-05
-7.83399e-08
1.06679e-05
-8.33241e-08
1.07069e-05
-8.87973e-08
1.07485e-05
-9.4914e-08
1.0793e-05
-1.01881e-07
1.08409e-05
-1.1002e-07
1.08927e-05
-1.19819e-07
1.09496e-05
-1.32068e-07
1.10128e-05
-1.48119e-07
1.10847e-05
-1.70538e-07
1.11697e-05
-2.04612e-07
1.12761e-05
-2.63206e-07
1.14224e-05
-3.7952e-07
1.16577e-05
-6.71707e-07
1.20535e-05
-1.44288e-06
-3.83254e-06
1.26066e-05
1.98532e-05
3.27941e-05
1.77852e-05
5.40167e-06
1.69794e-05
2.00185e-06
1.65093e-05
1.22387e-06
1.61792e-05
8.79106e-07
1.59315e-05
6.66327e-07
1.57371e-05
5.25338e-07
1.55795e-05
4.26544e-07
1.54488e-05
3.5423e-07
1.53386e-05
2.98926e-07
1.52444e-05
2.55491e-07
1.51629e-05
2.20942e-07
1.50917e-05
1.93154e-07
1.5029e-05
1.69911e-07
1.49735e-05
1.50607e-07
1.49239e-05
1.34504e-07
1.48794e-05
1.20614e-07
1.48393e-05
1.08518e-07
1.48031e-05
9.8157e-08
1.47702e-05
8.92936e-08
1.47401e-05
8.14981e-08
1.47126e-05
7.45328e-08
1.46874e-05
6.82593e-08
1.46643e-05
6.26069e-08
1.4643e-05
5.75493e-08
1.46234e-05
5.30921e-08
1.46052e-05
4.92085e-08
1.45883e-05
4.57647e-08
1.45726e-05
4.25829e-08
1.45579e-05
3.96165e-08
1.45443e-05
3.68969e-08
1.45316e-05
3.43908e-08
1.45197e-05
3.20646e-08
1.45087e-05
2.99042e-08
1.44984e-05
2.78948e-08
1.44888e-05
2.60187e-08
1.44798e-05
2.42574e-08
1.44714e-05
2.25985e-08
1.44636e-05
2.10289e-08
1.44564e-05
1.95218e-08
1.44498e-05
1.80418e-08
1.44436e-05
1.65542e-08
1.44381e-05
1.50255e-08
1.44331e-05
1.3423e-08
1.44288e-05
1.17157e-08
1.44251e-05
9.86471e-09
1.44223e-05
7.81257e-09
1.44202e-05
5.52005e-09
1.44191e-05
2.96358e-09
1.44191e-05
5.19955e-11
1.44203e-05
-3.2446e-09
1.44229e-05
-6.93476e-09
1.4427e-05
-1.10921e-08
1.44329e-05
-1.57679e-08
1.44407e-05
-2.10151e-08
1.44506e-05
-2.68967e-08
1.4463e-05
-3.34947e-08
1.44782e-05
-4.09196e-08
1.44964e-05
-4.92546e-08
1.45181e-05
-5.87711e-08
1.45436e-05
-6.90336e-08
1.45745e-05
-8.39212e-08
1.46098e-05
-9.74039e-08
1.46354e-05
-6.93426e-08
1.46626e-05
-7.16817e-08
1.46912e-05
-7.71115e-08
1.47221e-05
-8.43511e-08
1.47553e-05
-9.07414e-08
1.47907e-05
-9.6777e-08
1.48283e-05
-1.02911e-07
1.48681e-05
-1.0928e-07
1.49104e-05
-1.15968e-07
1.49551e-05
-1.23065e-07
1.50025e-05
-1.30706e-07
1.50527e-05
-1.39056e-07
1.51062e-05
-1.48338e-07
1.51631e-05
-1.5885e-07
1.52242e-05
-1.71051e-07
1.529e-05
-1.85633e-07
1.53616e-05
-2.03707e-07
1.54407e-05
-2.27153e-07
1.55296e-05
-2.59492e-07
1.56329e-05
-3.07841e-07
1.57586e-05
-3.88989e-07
1.59232e-05
-5.44115e-07
1.61642e-05
-9.12688e-07
1.65116e-05
-1.79023e-06
-4.26173e-06
1.69408e-05
2.65194e-05
3.96426e-05
2.38012e-05
8.11993e-06
2.26701e-05
3.13291e-06
2.20284e-05
1.86554e-06
2.15892e-05
1.31831e-06
2.12644e-05
9.91131e-07
2.10116e-05
7.78222e-07
2.08074e-05
6.30718e-07
2.06384e-05
5.23227e-07
2.04961e-05
4.41238e-07
2.03746e-05
3.76956e-07
2.02697e-05
3.25876e-07
2.0178e-05
2.84816e-07
2.00974e-05
2.50513e-07
2.0026e-05
2.22024e-07
1.99622e-05
1.98256e-07
1.99051e-05
1.77773e-07
1.98536e-05
1.59949e-07
1.98071e-05
1.44675e-07
1.97648e-05
1.31599e-07
1.97262e-05
1.20101e-07
1.96909e-05
1.09836e-07
1.96586e-05
1.00598e-07
1.96289e-05
9.22766e-08
1.96016e-05
8.48283e-08
1.95765e-05
7.82581e-08
1.95531e-05
7.25274e-08
1.95315e-05
6.74455e-08
1.95113e-05
6.27552e-08
1.94925e-05
5.83851e-08
1.9475e-05
5.43783e-08
1.94587e-05
5.06881e-08
1.94435e-05
4.7264e-08
1.94294e-05
4.40836e-08
1.94161e-05
4.11249e-08
1.94038e-05
3.8362e-08
1.93923e-05
3.57676e-08
1.93816e-05
3.33228e-08
1.93716e-05
3.10083e-08
1.93623e-05
2.87852e-08
1.93537e-05
2.66027e-08
1.93459e-05
2.44098e-08
1.93388e-05
2.21575e-08
1.93324e-05
1.97976e-08
1.93268e-05
1.72844e-08
1.93221e-05
1.45608e-08
1.93184e-05
1.15431e-08
1.93157e-05
8.17241e-09
1.93143e-05
4.41297e-09
1.93142e-05
1.39589e-10
1.93157e-05
-4.70411e-09
1.93189e-05
-1.0136e-08
1.9324e-05
-1.62508e-08
1.93314e-05
-2.31241e-08
1.93412e-05
-3.08347e-08
1.93538e-05
-3.94736e-08
1.93694e-05
-4.91597e-08
1.93886e-05
-6.00525e-08
1.94116e-05
-7.22723e-08
1.9439e-05
-8.6213e-08
1.94712e-05
-1.01222e-07
1.95101e-05
-1.22823e-07
1.95541e-05
-1.41412e-07
1.95864e-05
-1.01636e-07
1.96211e-05
-1.06331e-07
1.96574e-05
-1.13455e-07
1.96965e-05
-1.23417e-07
1.97383e-05
-1.32572e-07
1.97829e-05
-1.41308e-07
1.98301e-05
-1.50168e-07
1.98802e-05
-1.59333e-07
1.99331e-05
-1.68919e-07
1.99891e-05
-1.79051e-07
2.00483e-05
-1.89911e-07
2.0111e-05
-2.0172e-07
2.01774e-05
-2.14779e-07
2.02481e-05
-2.29488e-07
2.03235e-05
-2.46455e-07
2.04044e-05
-2.66591e-07
2.04921e-05
-2.91348e-07
2.05881e-05
-3.23158e-07
2.06951e-05
-3.6651e-07
2.08176e-05
-4.30304e-07
2.09637e-05
-5.3506e-07
2.11481e-05
-7.28509e-07
2.14002e-05
-1.16482e-06
2.17243e-05
-2.1143e-06
-4.62179e-06
2.20843e-05
3.4565e-05
4.6752e-05
3.11176e-05
1.15673e-05
2.95674e-05
4.68318e-06
2.87011e-05
2.73178e-06
2.8122e-05
1.89741e-06
2.76988e-05
1.41432e-06
2.73717e-05
1.10539e-06
2.71085e-05
8.93852e-07
2.68913e-05
7.40466e-07
2.67087e-05
6.2384e-07
2.6553e-05
5.32601e-07
2.64187e-05
4.60196e-07
2.63015e-05
4.02044e-07
2.61985e-05
3.53527e-07
2.61073e-05
3.13249e-07
2.60259e-05
2.79648e-07
2.59529e-05
2.50718e-07
2.58873e-05
2.25565e-07
2.5828e-05
2.04006e-07
2.5774e-05
1.8554e-07
2.57248e-05
1.69308e-07
2.56798e-05
1.54828e-07
2.56386e-05
1.41807e-07
2.56008e-05
1.30081e-07
2.55661e-05
1.19585e-07
2.5534e-05
1.10319e-07
2.55043e-05
1.0223e-07
2.54767e-05
9.5055e-08
2.5451e-05
8.84405e-08
2.54271e-05
8.22814e-08
2.54049e-05
7.66347e-08
2.53841e-05
7.14367e-08
2.53648e-05
6.66153e-08
2.53467e-05
6.21375e-08
2.53299e-05
5.79716e-08
2.53141e-05
5.40812e-08
2.52995e-05
5.04278e-08
2.52858e-05
4.69844e-08
2.52731e-05
4.37233e-08
2.52613e-05
4.0591e-08
2.52504e-05
3.7517e-08
2.52404e-05
3.44308e-08
2.52312e-05
3.12637e-08
2.52231e-05
2.79483e-08
2.5216e-05
2.44204e-08
2.52099e-05
2.06003e-08
2.52051e-05
1.6372e-08
2.52016e-05
1.16517e-08
2.51996e-05
6.38804e-09
2.51994e-05
4.15807e-10
2.5201e-05
-6.35855e-09
2.52048e-05
-1.39661e-08
2.52111e-05
-2.25232e-08
2.52201e-05
-3.21361e-08
2.52322e-05
-4.29148e-08
2.52477e-05
-5.49855e-08
2.52671e-05
-6.85114e-08
2.52907e-05
-8.37113e-08
2.53192e-05
-1.00752e-07
2.53532e-05
-1.20172e-07
2.5393e-05
-1.4106e-07
2.5441e-05
-1.7083e-07
2.54951e-05
-1.95447e-07
2.55349e-05
-1.41452e-07
2.5578e-05
-1.49412e-07
2.56231e-05
-1.58644e-07
2.56715e-05
-1.71805e-07
2.57232e-05
-1.84252e-07
2.57782e-05
-1.96241e-07
2.58364e-05
-2.08394e-07
2.5898e-05
-2.20933e-07
2.59631e-05
-2.34005e-07
2.60318e-05
-2.47772e-07
2.61044e-05
-2.62468e-07
2.6181e-05
-2.78378e-07
2.62621e-05
-2.95889e-07
2.63481e-05
-3.15511e-07
2.64397e-05
-3.38018e-07
2.65377e-05
-3.64557e-07
2.66433e-05
-3.9695e-07
2.67584e-05
-4.38209e-07
2.68857e-05
-4.93825e-07
2.70298e-05
-5.74467e-07
2.7199e-05
-7.04234e-07
2.74068e-05
-9.36286e-07
2.76766e-05
-1.43457e-06
2.79948e-05
-2.43251e-06
-4.93439e-06
2.83074e-05
4.43803e-05
5.40866e-05
4.01383e-05
1.58093e-05
3.80575e-05
6.76401e-06
3.68959e-05
3.89335e-06
3.61351e-05
2.65818e-06
3.55844e-05
1.96509e-06
3.51612e-05
1.52852e-06
3.48224e-05
1.23266e-06
3.45436e-05
1.01933e-06
3.43097e-05
8.57719e-07
3.41107e-05
7.31622e-07
3.39391e-05
6.31727e-07
3.37896e-05
5.51588e-07
3.36583e-05
4.84825e-07
3.35421e-05
4.29441e-07
3.34385e-05
3.83252e-07
3.33457e-05
3.43521e-07
3.32622e-05
3.09008e-07
3.31868e-05
2.7943e-07
3.31183e-05
2.54089e-07
3.30558e-05
2.3182e-07
3.29986e-05
2.11968e-07
3.29463e-05
1.94133e-07
3.28983e-05
1.78081e-07
3.28542e-05
1.6371e-07
3.28135e-05
1.51017e-07
3.27758e-05
1.39926e-07
3.27407e-05
1.30087e-07
3.27082e-05
1.21025e-07
3.26779e-05
1.12594e-07
3.26496e-05
1.04864e-07
3.26233e-05
9.77528e-08
3.25988e-05
9.11596e-08
3.25759e-05
8.50374e-08
3.25545e-05
7.93423e-08
3.25345e-05
7.40239e-08
3.25159e-05
6.90301e-08
3.24986e-05
6.43234e-08
3.24825e-05
5.98653e-08
3.24675e-05
5.5584e-08
3.24536e-05
5.1385e-08
3.24409e-05
4.71734e-08
3.24293e-05
4.28567e-08
3.24189e-05
3.83434e-08
3.24097e-05
3.35466e-08
3.2402e-05
2.83589e-08
3.23957e-05
2.26247e-08
3.23912e-05
1.62292e-08
3.23884e-05
9.10136e-09
3.23878e-05
1.03031e-09
3.23896e-05
-8.12889e-09
3.23941e-05
-1.84266e-08
3.24015e-05
-3e-08
3.24124e-05
-4.29929e-08
3.2427e-05
-5.75536e-08
3.24459e-05
-7.38507e-08
3.24695e-05
-9.21007e-08
3.24984e-05
-1.12593e-07
3.25332e-05
-1.35551e-07
3.25747e-05
-1.61684e-07
3.26234e-05
-1.89783e-07
3.2682e-05
-2.29373e-07
3.27476e-05
-2.61114e-07
3.27961e-05
-1.89943e-07
3.28489e-05
-2.02157e-07
3.29042e-05
-2.14019e-07
3.29634e-05
-2.30942e-07
3.30264e-05
-2.47294e-07
3.30933e-05
-2.6316e-07
3.31642e-05
-2.79242e-07
3.32391e-05
-2.95803e-07
3.33181e-05
-3.13024e-07
3.34014e-05
-3.31102e-07
3.34893e-05
-3.5033e-07
3.3582e-05
-3.71065e-07
3.36799e-05
-3.93789e-07
3.37835e-05
-4.19134e-07
3.38935e-05
-4.48057e-07
3.4011e-05
-4.81967e-07
3.41371e-05
-5.23084e-07
3.42739e-05
-5.75045e-07
3.44245e-05
-6.44387e-07
3.45936e-05
-7.43571e-07
3.47894e-05
-8.99983e-07
3.50241e-05
-1.17102e-06
3.53149e-05
-1.72533e-06
3.56366e-05
-2.75416e-06
-5.20569e-06
3.59079e-05
5.64035e-05
6.15549e-05
5.13319e-05
2.08808e-05
4.85924e-05
9.50346e-06
4.70369e-05
5.44887e-06
4.60347e-05
3.66041e-06
4.53162e-05
2.68363e-06
4.47678e-05
2.07686e-06
4.43309e-05
1.66958e-06
4.39726e-05
1.37766e-06
4.36728e-05
1.15745e-06
4.34183e-05
9.86173e-07
4.31992e-05
8.50774e-07
4.30085e-05
7.4231e-07
4.28412e-05
6.52092e-07
4.26933e-05
5.77339e-07
4.25616e-05
5.15032e-07
4.24436e-05
4.61482e-07
4.23376e-05
4.15014e-07
4.22418e-05
3.75207e-07
4.21548e-05
3.411e-07
4.20755e-05
3.11136e-07
4.2003e-05
2.84444e-07
4.19367e-05
2.60485e-07
4.18758e-05
2.38934e-07
4.18199e-05
2.19644e-07
4.17683e-05
2.026e-07
4.17205e-05
1.87694e-07
4.16761e-05
1.74467e-07
4.16349e-05
1.62297e-07
4.15965e-05
1.50983e-07
4.15607e-05
1.40612e-07
4.15274e-05
1.31074e-07
4.14963e-05
1.22237e-07
4.14673e-05
1.14034e-07
4.14403e-05
1.06404e-07
4.1415e-05
9.92808e-08
4.13915e-05
9.2594e-08
4.13695e-05
8.62929e-08
4.1349e-05
8.03253e-08
4.133e-05
7.45962e-08
4.13124e-05
6.89817e-08
4.12962e-05
6.33572e-08
4.12815e-05
5.76009e-08
4.12682e-05
5.15919e-08
4.12566e-05
4.52154e-08
4.12466e-05
3.83303e-08
4.12385e-05
3.07331e-08
4.12325e-05
2.22705e-08
4.12287e-05
1.28472e-08
4.12275e-05
2.20157e-09
4.12293e-05
-9.88115e-09
4.12343e-05
-2.34794e-08
4.12431e-05
-3.87494e-08
4.1256e-05
-5.588e-08
4.12735e-05
-7.50658e-08
4.12962e-05
-9.65264e-08
4.13246e-05
-1.20542e-07
4.13595e-05
-1.47486e-07
4.14016e-05
-1.77649e-07
4.14519e-05
-2.11938e-07
4.15109e-05
-2.48812e-07
4.15816e-05
-3.00111e-07
4.16608e-05
-3.40303e-07
4.17193e-05
-2.48465e-07
4.17832e-05
-2.66035e-07
4.18504e-05
-2.81208e-07
4.1922e-05
-3.02568e-07
4.19983e-05
-3.2354e-07
4.20791e-05
-3.44003e-07
4.21646e-05
-3.64742e-07
4.22549e-05
-3.86064e-07
4.23501e-05
-4.08186e-07
4.24503e-05
-4.31345e-07
4.25559e-05
-4.55897e-07
4.26671e-05
-4.82278e-07
4.27844e-05
-5.11078e-07
4.29083e-05
-5.43065e-07
4.30397e-05
-5.79397e-07
4.31795e-05
-6.21772e-07
4.33292e-05
-6.72844e-07
4.34911e-05
-7.36919e-07
4.36684e-05
-8.21626e-07
4.3866e-05
-9.41213e-07
4.40921e-05
-1.12602e-06
4.43576e-05
-1.43647e-06
4.46727e-05
-2.04044e-06
4.50046e-05
-3.08604e-06
-5.43833e-06
4.52372e-05
7.11399e-05
6.90063e-05
6.5256e-05
2.67647e-05
6.17257e-05
1.30338e-05
5.9646e-05
7.52853e-06
5.8316e-05
4.99042e-06
5.73749e-05
3.62468e-06
5.66616e-05
2.79023e-06
5.60962e-05
2.23499e-06
5.56343e-05
1.83949e-06
5.52492e-05
1.54255e-06
5.4923e-05
1.31244e-06
5.46427e-05
1.13101e-06
5.43991e-05
9.85931e-07
5.41858e-05
8.65459e-07
5.39973e-05
7.65807e-07
5.38295e-05
6.82816e-07
5.36794e-05
6.11546e-07
5.35447e-05
5.49773e-07
5.3423e-05
4.96894e-07
5.33125e-05
4.51603e-07
5.32118e-05
4.11818e-07
5.31198e-05
3.764e-07
5.30357e-05
3.4464e-07
5.29585e-05
3.16096e-07
5.28876e-05
2.90554e-07
5.28222e-05
2.67983e-07
5.27617e-05
2.4823e-07
5.27055e-05
2.30694e-07
5.26532e-05
2.14572e-07
5.26046e-05
1.99597e-07
5.25593e-05
1.85873e-07
5.25171e-05
1.73258e-07
5.24778e-05
1.61579e-07
5.24411e-05
1.50742e-07
5.24068e-05
1.40666e-07
5.23748e-05
1.31261e-07
5.2345e-05
1.22436e-07
5.23172e-05
1.14125e-07
5.22912e-05
1.06256e-07
5.22671e-05
9.87051e-08
5.22448e-05
9.13123e-08
5.22242e-05
8.39166e-08
5.22055e-05
7.63608e-08
5.21886e-05
6.84886e-08
5.21737e-05
6.01508e-08
5.21608e-05
5.11659e-08
5.21503e-05
4.12723e-08
5.21423e-05
3.02696e-08
5.21371e-05
1.80328e-08
5.21351e-05
4.24576e-09
5.21366e-05
-1.14e-08
5.21421e-05
-2.90238e-08
5.21522e-05
-4.87962e-08
5.21672e-05
-7.0961e-08
5.21879e-05
-9.57678e-08
5.22149e-05
-1.23497e-07
5.22489e-05
-1.54503e-07
5.22907e-05
-1.89261e-07
5.23412e-05
-2.28142e-07
5.24015e-05
-2.72275e-07
5.24724e-05
-3.19763e-07
5.25573e-05
-3.84933e-07
5.26522e-05
-4.35216e-07
5.27223e-05
-3.18595e-07
5.2799e-05
-3.4273e-07
5.28799e-05
-3.62073e-07
5.2966e-05
-3.88673e-07
5.30576e-05
-4.1511e-07
5.31546e-05
-4.41011e-07
5.32571e-05
-4.67248e-07
5.33652e-05
-4.94184e-07
5.34791e-05
-5.22072e-07
5.35989e-05
-5.51194e-07
5.3725e-05
-5.8198e-07
5.38577e-05
-6.1495e-07
5.39974e-05
-6.50814e-07
5.41449e-05
-6.90495e-07
5.43009e-05
-7.35372e-07
5.44666e-05
-7.87463e-07
5.46436e-05
-8.49893e-07
5.48344e-05
-9.27684e-07
5.50424e-05
-1.02958e-06
5.52728e-05
-1.17159e-06
5.55333e-05
-1.38653e-06
5.58334e-05
-1.73654e-06
5.61757e-05
-2.38274e-06
5.65222e-05
-3.43256e-06
-5.63667e-06
5.67206e-05
8.91969e-05
7.62257e-05
8.25806e-05
3.3381e-05
7.81419e-05
1.74725e-05
7.5381e-05
1.02894e-05
7.35998e-05
6.77161e-06
7.23568e-05
4.86766e-06
7.14238e-05
3.72326e-06
7.06884e-05
2.9704e-06
7.00904e-05
2.4375e-06
6.95935e-05
2.03942e-06
6.91737e-05
1.73223e-06
6.88139e-05
1.49078e-06
6.85017e-05
1.29813e-06
6.82288e-05
1.13842e-06
6.7988e-05
1.00663e-06
6.77738e-05
8.96989e-07
6.75824e-05
8.02896e-07
6.74108e-05
7.2145e-07
6.72558e-05
6.51819e-07
6.71152e-05
5.92214e-07
6.69872e-05
5.39861e-07
6.68703e-05
4.93279e-07
6.67634e-05
4.51552e-07
6.66654e-05
4.14088e-07
6.65754e-05
3.80581e-07
6.64924e-05
3.50979e-07
6.64155e-05
3.25058e-07
6.63442e-05
3.0203e-07
6.62779e-05
2.80874e-07
6.62163e-05
2.61241e-07
6.61589e-05
2.43253e-07
6.61054e-05
2.26728e-07
6.60556e-05
2.1144e-07
6.6009e-05
1.97264e-07
6.59656e-05
1.84089e-07
6.59251e-05
1.71797e-07
6.58872e-05
1.60272e-07
6.58519e-05
1.49424e-07
6.5819e-05
1.3916e-07
6.57884e-05
1.29316e-07
6.576e-05
1.19689e-07
6.57339e-05
1.10074e-07
6.571e-05
1.0027e-07
6.56884e-05
9.00786e-08
6.56692e-05
7.93088e-08
6.56527e-05
6.77306e-08
6.56389e-05
5.50126e-08
6.56283e-05
4.08971e-08
6.56211e-05
2.52231e-08
6.56177e-05
7.61765e-09
6.56187e-05
-1.23517e-08
6.56245e-05
-3.4862e-08
6.56358e-05
-6.00924e-08
6.56532e-05
-8.83519e-08
6.56774e-05
-1.19956e-07
6.57092e-05
-1.55256e-07
6.57494e-05
-1.94697e-07
6.5799e-05
-2.38869e-07
6.58591e-05
-2.88243e-07
6.5931e-05
-3.44196e-07
6.60157e-05
-4.04463e-07
6.61167e-05
-4.85976e-07
6.62299e-05
-5.48398e-07
6.63135e-05
-4.02157e-07
6.64049e-05
-4.34176e-07
6.65016e-05
-4.58753e-07
6.66045e-05
-4.91535e-07
6.67138e-05
-5.24433e-07
6.68296e-05
-5.5676e-07
6.69518e-05
-5.89481e-07
6.70806e-05
-6.2302e-07
6.72163e-05
-6.57678e-07
6.73589e-05
-6.93787e-07
6.75087e-05
-7.31854e-07
6.76663e-05
-7.72503e-07
6.78321e-05
-8.16575e-07
6.80067e-05
-8.65162e-07
6.81913e-05
-9.19893e-07
6.83869e-05
-9.83135e-07
6.85956e-05
-1.05852e-06
6.88198e-05
-1.15183e-06
6.90631e-05
-1.27293e-06
6.9331e-05
-1.43945e-06
6.96305e-05
-1.68604e-06
6.9969e-05
-2.075e-06
7.03408e-05
-2.75447e-06
7.07041e-05
-3.79585e-06
-5.80768e-06
7.08751e-05
0.000111313
8.29265e-05
0.000104111
4.05828e-05
9.86826e-05
2.29009e-05
9.50719e-05
1.39001e-05
9.26787e-05
9.16484e-06
9.1014e-05
6.53235e-06
8.97814e-05
4.95588e-06
8.88185e-05
3.93328e-06
8.80393e-05
3.21674e-06
8.73944e-05
2.6843e-06
8.68513e-05
2.27533e-06
8.6387e-05
1.95506e-06
8.5985e-05
1.70015e-06
8.56342e-05
1.4892e-06
8.53252e-05
1.31566e-06
8.50507e-05
1.1715e-06
8.48058e-05
1.04784e-06
8.45862e-05
9.40956e-07
8.43883e-05
8.4975e-07
8.42088e-05
7.71757e-07
8.40454e-05
7.03243e-07
8.38964e-05
6.42309e-07
8.37601e-05
5.87788e-07
8.36353e-05
5.38895e-07
8.35207e-05
4.95203e-07
8.34151e-05
4.56626e-07
8.33173e-05
4.22835e-07
8.32265e-05
3.92785e-07
8.31422e-05
3.65193e-07
8.30638e-05
3.39611e-07
8.29909e-05
3.16182e-07
8.2923e-05
2.94671e-07
8.28596e-05
2.74788e-07
8.28005e-05
2.56365e-07
8.27453e-05
2.39254e-07
8.26938e-05
2.23299e-07
8.26458e-05
2.08352e-07
8.26009e-05
1.94299e-07
8.2559e-05
1.81013e-07
8.25201e-05
1.68281e-07
8.24839e-05
1.55844e-07
8.24505e-05
1.43444e-07
8.242e-05
1.30829e-07
8.23923e-05
1.17749e-07
8.23677e-05
1.03963e-07
8.23462e-05
8.91833e-08
8.23282e-05
7.29944e-08
8.23141e-05
5.50695e-08
8.23041e-05
3.52045e-08
8.22987e-05
1.29691e-08
8.22986e-05
-1.22299e-08
8.23044e-05
-4.06509e-08
8.23168e-05
-7.24732e-08
8.23365e-05
-1.08084e-07
8.23644e-05
-1.47876e-07
8.24015e-05
-1.92285e-07
8.24486e-05
-2.41859e-07
8.25071e-05
-2.97329e-07
8.25781e-05
-3.5928e-07
8.26633e-05
-4.29366e-07
8.27638e-05
-5.04962e-07
8.28835e-05
-6.05639e-07
8.30178e-05
-6.82785e-07
8.31169e-05
-5.01255e-07
8.32254e-05
-5.42587e-07
8.33403e-05
-5.73707e-07
8.34626e-05
-6.13772e-07
8.35924e-05
-6.54298e-07
8.37299e-05
-6.94216e-07
8.3875e-05
-7.34577e-07
8.40279e-05
-7.75881e-07
8.41887e-05
-8.18481e-07
8.43577e-05
-8.62767e-07
8.45351e-05
-9.09338e-07
8.47216e-05
-9.5893e-07
8.49175e-05
-1.01253e-06
8.51238e-05
-1.07143e-06
8.53415e-05
-1.13752e-06
8.55719e-05
-1.21356e-06
8.58171e-05
-1.30371e-06
8.60798e-05
-1.41452e-06
8.63638e-05
-1.55695e-06
8.66744e-05
-1.75e-06
8.70177e-05
-2.02925e-06
8.73979e-05
-2.45521e-06
8.78005e-05
-3.15711e-06
8.81806e-05
-4.17591e-06
-5.96109e-06
8.8334e-05
0.00013832
8.87595e-05
0.000130792
4.81107e-05
0.000124375
2.93176e-05
0.000119758
1.85176e-05
0.000116565
1.23571e-05
0.000114314
8.78336e-06
0.000112657
6.61285e-06
0.00011138
5.21058e-06
0.000110357
4.24004e-06
0.000109514
3.52758e-06
0.000108806
2.98301e-06
0.000108203
2.55833e-06
0.000107682
2.22123e-06
0.000107228
1.94274e-06
0.000106829
1.7146e-06
0.000106475
1.52539e-06
0.00010616
1.36308e-06
0.000105878
1.22307e-06
0.000105624
1.10391e-06
0.000105393