/*--------------------------------*- C++ -*----------------------------------*\
| =========                 |                                                 |
| \\      /  F ield         | OpenFOAM: The Open Source CFD Toolbox           |
|  \\    /   O peration     | Version:  5.x                                   |
|   \\  /    A nd           | Web:      www.OpenFOAM.org                      |
|    \\/     M anipulation  |                                                 |
\*---------------------------------------------------------------------------*/
FoamFile
{
    version     2.0;
    format      ascii;
    class       volVectorField;
    location    "871";
    object      U;
}
// * * * * * * * * * * * * * * * * * * * * * * * * * * * * * * * * * * * * * //

dimensions      [0 1 -1 0 0 0 0];

internalField   nonuniform List<vector> 
20540
(
(44.178 -6.01051e-07 0)
(44.2185 0.00500479 0)
(44.1781 -1.89296e-06 0)
(44.2185 0.0142198 0)
(44.1781 -3.35789e-06 0)
(44.2185 0.0229483 0)
(44.1781 -5.02289e-06 0)
(44.2185 0.0308769 0)
(44.1781 -6.86488e-06 0)
(44.2185 0.0382542 0)
(44.1781 -8.80591e-06 0)
(44.2184 0.0453157 0)
(44.1781 -1.06933e-05 0)
(44.2184 0.0521135 0)
(44.1782 -1.22651e-05 0)
(44.2184 0.058599 0)
(44.1782 -1.3108e-05 0)
(44.2185 0.0646846 0)
(44.1783 -1.26155e-05 0)
(44.2185 0.0702743 0)
(44.1785 -9.95603e-06 0)
(44.2187 0.0752093 0)
(44.1786 -4.05475e-06 0)
(44.2189 0.0793199 0)
(44.1789 6.40833e-06 0)
(44.2192 0.082462 0)
(44.1792 2.29811e-05 0)
(44.2196 0.0844694 0)
(44.1796 4.74011e-05 0)
(44.22 0.0853579 0)
(44.18 8.15227e-05 0)
(44.2205 0.085309 0)
(44.1806 0.000127212 0)
(44.2212 0.084601 0)
(44.1813 0.000186221 0)
(44.2219 0.0834866 0)
(44.1821 0.000260052 0)
(44.2228 0.0820629 0)
(44.183 0.000349775 0)
(44.2239 0.080319 0)
(44.1842 0.000455732 0)
(44.2252 0.0782052 0)
(44.1855 0.000577107 0)
(44.2267 0.0756551 0)
(44.187 0.000711303 0)
(44.2284 0.0725896 0)
(44.1888 0.000853082 0)
(44.2304 0.0689161 0)
(44.1908 0.000993462 0)
(44.2327 0.0645274 0)
(44.193 0.00111837 0)
(44.2352 0.0592991 0)
(44.1955 0.00120723 0)
(44.238 0.0530872 0)
(44.1981 0.00123183 0)
(44.2409 0.0457225 0)
(44.2007 0.00115649 0)
(44.2439 0.0370026 0)
(44.2032 0.000940887 0)
(44.2467 0.0266739 0)
(44.2049 0.000606345 0)
(44.2486 0.0157836 0)
(44.2057 0.000212553 0)
(44.2496 0.00524549 0)
(44.2057 -0.000202183 0)
(44.2496 -0.0052661 0)
(44.2049 -0.000595797 0)
(44.2486 -0.0158041 0)
(44.2032 -0.000926265 0)
(44.2467 -0.0265247 0)
(44.2008 -0.00113885 0)
(44.2441 -0.0365649 0)
(44.1983 -0.00121875 0)
(44.2412 -0.0450895 0)
(44.1958 -0.00120245 0)
(44.2383 -0.0523304 0)
(44.1934 -0.00112282 0)
(44.2356 -0.0584737 0)
(44.1912 -0.00100626 0)
(44.2331 -0.0636756 0)
(44.1892 -0.000872425 0)
(44.2309 -0.0680696 0)
(44.1874 -0.000735076 0)
(44.2289 -0.0717711 0)
(44.1859 -0.000603258 0)
(44.2271 -0.0748805 0)
(44.1845 -0.000482469 0)
(44.2256 -0.0774848 0)
(44.1834 -0.000375654 0)
(44.2243 -0.079659 0)
(44.1824 -0.000283994 0)
(44.2232 -0.081467 0)
(44.1816 -0.000207484 0)
(44.2223 -0.0829604 0)
(44.1809 -0.000145356 0)
(44.2215 -0.0841685 0)
(44.1803 -9.63692e-05 0)
(44.2208 -0.0850585 0)
(44.1798 -5.89944e-05 0)
(44.2203 -0.0854641 0)
(44.1794 -3.15466e-05 0)
(44.2198 -0.0851184 0)
(44.179 -1.22959e-05 0)
(44.2194 -0.0837982 0)
(44.1788 4.25956e-07 0)
(44.2191 -0.0813943 0)
(44.1785 8.14219e-06 0)
(44.2188 -0.0779664 0)
(44.1784 1.21819e-05 0)
(44.2186 -0.0737073 0)
(44.1783 1.36552e-05 0)
(44.2185 -0.0687033 0)
(44.1782 1.34496e-05 0)
(44.2184 -0.0631543 0)
(44.1781 1.224e-05 0)
(44.2184 -0.05716 0)
(44.1781 1.05097e-05 0)
(44.2184 -0.0508086 0)
(44.1781 8.58345e-06 0)
(44.2184 -0.0441733 0)
(44.178 6.66436e-06 0)
(44.2185 -0.0372874 0)
(44.178 4.86883e-06 0)
(44.2185 -0.0300841 0)
(44.178 3.25462e-06 0)
(44.2185 -0.0223379 0)
(44.178 1.83557e-06 0)
(44.2185 -0.0138362 0)
(44.178 5.834e-07 0)
(44.2185 -0.00486238 0)
(4.31956 0.0048835 0)
(3.30989 3.91343e-06 0)
(3.10323 -7.44825e-07 0)
(2.97643 1.36163e-06 0)
(2.88458 1.39139e-06 0)
(2.8158 1.2007e-06 0)
(2.76223 1.03179e-06 0)
(2.71933 8.97475e-07 0)
(2.68404 7.90291e-07 0)
(2.65455 7.02818e-07 0)
(2.6295 6.30769e-07 0)
(2.60804 5.71518e-07 0)
(2.58937 5.23425e-07 0)
(2.57302 4.80538e-07 0)
(2.55862 4.44507e-07 0)
(2.54581 4.14533e-07 0)
(2.53435 3.87408e-07 0)
(2.52407 3.62582e-07 0)
(2.51482 3.41847e-07 0)
(2.50643 3.24214e-07 0)
(2.49879 3.08015e-07 0)
(2.49181 2.93219e-07 0)
(2.48543 2.79024e-07 0)
(2.47959 2.65853e-07 0)
(2.47423 2.54041e-07 0)
(2.4693 2.43958e-07 0)
(2.46474 2.35677e-07 0)
(2.46051 2.28761e-07 0)
(2.45658 2.21126e-07 0)
(2.45292 2.13395e-07 0)
(2.44951 2.06934e-07 0)
(2.44634 2.00365e-07 0)
(2.44339 1.93935e-07 0)
(2.44063 1.87769e-07 0)
(2.43807 1.81805e-07 0)
(2.43567 1.76002e-07 0)
(2.43344 1.70212e-07 0)
(2.43137 1.64414e-07 0)
(2.42943 1.58664e-07 0)
(2.42764 1.52575e-07 0)
(2.42598 1.45667e-07 0)
(2.42445 1.37538e-07 0)
(2.42305 1.27714e-07 0)
(2.4218 1.15671e-07 0)
(2.4207 1.00806e-07 0)
(2.41976 8.2582e-08 0)
(2.419 5.90675e-08 0)
(2.41844 2.94841e-08 0)
(2.4181 -6.29779e-09 0)
(2.41802 -5.32844e-08 0)
(2.41823 -1.09812e-07 0)
(2.41876 -1.75712e-07 0)
(2.41966 -2.57052e-07 0)
(2.42098 -3.55504e-07 0)
(2.42276 -4.73983e-07 0)
(2.42506 -6.15942e-07 0)
(2.42796 -7.86584e-07 0)
(2.43152 -9.91948e-07 0)
(2.43583 -1.24217e-06 0)
(2.44098 -1.52632e-06 0)
(2.44715 -1.96482e-06 0)
(2.45416 -2.09662e-06 0)
(2.46384 -4.44101e-06 0)
(2.47225 -3.38891e-06 0)
(2.47883 -1.24076e-06 0)
(2.48539 -4.64908e-06 0)
(2.49337 -5.66188e-06 0)
(2.50209 -6.16428e-06 0)
(2.51138 -6.91308e-06 0)
(2.5213 -7.87203e-06 0)
(2.53188 -8.99485e-06 0)
(2.54316 -1.02997e-05 0)
(2.55521 -1.18292e-05 0)
(2.56808 -1.36446e-05 0)
(2.58186 -1.58266e-05 0)
(2.59668 -1.84851e-05 0)
(2.61268 -2.17791e-05 0)
(2.63006 -2.59678e-05 0)
(2.64911 -3.14625e-05 0)
(2.67024 -3.89611e-05 0)
(2.6941 -4.97472e-05 0)
(2.72169 -6.63761e-05 0)
(2.75485 -9.49768e-05 0)
(2.79694 -0.000149826 0)
(2.85661 -0.000294144 0)
(2.94961 -0.000720899 0)
(3.18674 -0.00397288 0)
(3.85919 -0.0612831 0)
(12.8494 0.0148065 0)
(10.4712 0.000579342 0)
(9.83379 0.000182594 0)
(9.44244 0.000130078 0)
(9.15828 0.00010022 0)
(8.94502 7.94145e-05 0)
(8.77869 6.49968e-05 0)
(8.64538 5.4654e-05 0)
(8.53559 4.69708e-05 0)
(8.44377 4.10117e-05 0)
(8.36575 3.62707e-05 0)
(8.29885 3.24654e-05 0)
(8.24062 2.93879e-05 0)
(8.18961 2.67626e-05 0)
(8.14467 2.45685e-05 0)
(8.10467 2.27339e-05 0)
(8.06888 2.1119e-05 0)
(8.03679 1.96827e-05 0)
(8.00788 1.84504e-05 0)
(7.98166 1.74011e-05 0)
(7.95777 1.6465e-05 0)
(7.93595 1.56092e-05 0)
(7.916 1.48165e-05 0)
(7.89773 1.40856e-05 0)
(7.88097 1.3423e-05 0)
(7.86556 1.28426e-05 0)
(7.85131 1.23489e-05 0)
(7.83807 1.1916e-05 0)
(7.82575 1.14994e-05 0)
(7.8143 1.10943e-05 0)
(7.80364 1.07177e-05 0)
(7.79372 1.03603e-05 0)
(7.78447 1.00173e-05 0)
(7.77585 9.68886e-06 0)
(7.76782 9.37347e-06 0)
(7.76032 9.06817e-06 0)
(7.75334 8.76902e-06 0)
(7.74683 8.47419e-06 0)
(7.74077 8.18113e-06 0)
(7.73513 7.87954e-06 0)
(7.72991 7.554e-06 0)
(7.7251 7.18784e-06 0)
(7.72071 6.76282e-06 0)
(7.71675 6.25867e-06 0)
(7.71325 5.65349e-06 0)
(7.71024 4.91844e-06 0)
(7.70777 4.00805e-06 0)
(7.7059 2.88627e-06 0)
(7.7047 1.5229e-06 0)
(7.70426 -1.84958e-07 0)
(7.7047 -2.25919e-06 0)
(7.7061 -4.7235e-06 0)
(7.70859 -7.69811e-06 0)
(7.71231 -1.1263e-05 0)
(7.71741 -1.55122e-05 0)
(7.72406 -2.05592e-05 0)
(7.73245 -2.65498e-05 0)
(7.74279 -3.36706e-05 0)
(7.75535 -4.21057e-05 0)
(7.77038 -5.22151e-05 0)
(7.78835 -6.38739e-05 0)
(7.80896 -8.09094e-05 0)
(7.83658 -0.000104597 0)
(7.85996 -0.000108008 0)
(7.87986 -0.000106731 0)
(7.8996 -0.000133671 0)
(7.92264 -0.00015877 0)
(7.94775 -0.00017936 0)
(7.97457 -0.000201221 0)
(8.00314 -0.000225866 0)
(8.03356 -0.00025356 0)
(8.06595 -0.00028474 0)
(8.10042 -0.00032006 0)
(8.13716 -0.000360466 0)
(8.17638 -0.00040717 0)
(8.21838 -0.000461841 0)
(8.26353 -0.000526797 0)
(8.31235 -0.000605634 0)
(8.36556 -0.000703895 0)
(8.4242 -0.000830743 0)
(8.48987 -0.00100231 0)
(8.56512 -0.00125014 0)
(8.65451 -0.00164244 0)
(8.76661 -0.00235582 0)
(8.92276 -0.00390949 0)
(9.16778 -0.00857335 0)
(9.7371 -0.027917 0)
(11.0084 -0.154968 0)
(20.3767 0.0248122 0)
(17.1395 0.00192581 0)
(16.1844 0.000654362 0)
(15.6181 0.000447984 0)
(15.2095 0.000343747 0)
(14.9023 0.000273038 0)
(14.6619 0.000224111 0)
(14.4687 0.00018893 0)
(14.3091 0.000162746 0)
(14.1753 0.000142396 0)
(14.0614 0.000126168 0)
(13.9635 0.000113113 0)
(13.8781 0.00010253 0)
(13.8032 9.34954e-05 0)
(13.7372 8.59273e-05 0)
(13.6783 7.95858e-05 0)
(13.6255 7.4002e-05 0)
(13.5782 6.90319e-05 0)
(13.5355 6.47563e-05 0)
(13.4968 6.11093e-05 0)
(13.4614 5.78564e-05 0)
(13.4291 5.48805e-05 0)
(13.3996 5.21246e-05 0)
(13.3725 4.95807e-05 0)
(13.3477 4.72705e-05 0)
(13.3248 4.5242e-05 0)
(13.3036 4.35127e-05 0)
(13.284 4.19945e-05 0)
(13.2657 4.05403e-05 0)
(13.2487 3.91275e-05 0)
(13.2328 3.7808e-05 0)
(13.2181 3.65577e-05 0)
(13.2043 3.5358e-05 0)
(13.1915 3.42082e-05 0)
(13.1795 3.31034e-05 0)
(13.1684 3.20333e-05 0)
(13.158 3.09846e-05 0)
(13.1483 2.99506e-05 0)
(13.1392 2.89217e-05 0)
(13.1308 2.78634e-05 0)
(13.123 2.67235e-05 0)
(13.1159 2.54438e-05 0)
(13.1093 2.39612e-05 0)
(13.1034 2.22052e-05 0)
(13.0981 2.00998e-05 0)
(13.0936 1.75443e-05 0)
(13.0899 1.43865e-05 0)
(13.0871 1.04989e-05 0)
(13.0852 5.77318e-06 0)
(13.0845 -1.19061e-07 0)
(13.085 -7.28498e-06 0)
(13.087 -1.58188e-05 0)
(13.0906 -2.60984e-05 0)
(13.0959 -3.84048e-05 0)
(13.1033 -5.30581e-05 0)
(13.113 -7.04426e-05 0)
(13.1252 -9.10453e-05 0)
(13.1403 -0.000115489 0)
(13.1585 -0.000144383 0)
(13.1804 -0.00017897 0)
(13.2066 -0.000218586 0)
(13.2366 -0.000276892 0)
(13.2762 -0.000345792 0)
(13.3094 -0.000369064 0)
(13.3391 -0.00038169 0)
(13.3683 -0.000452815 0)
(13.4014 -0.000531517 0)
(13.4375 -0.000602062 0)
(13.4761 -0.000675406 0)
(13.5172 -0.000756569 0)
(13.5608 -0.000847035 0)
(13.6072 -0.000948278 0)
(13.6565 -0.00106224 0)
(13.7089 -0.00119171 0)
(13.7646 -0.00134021 0)
(13.8241 -0.00151263 0)
(13.8879 -0.00171564 0)
(13.9565 -0.00195947 0)
(14.0308 -0.00225974 0)
(14.1122 -0.00264201 0)
(14.2026 -0.00315066 0)
(14.3051 -0.0038713 0)
(14.425 -0.00498583 0)
(14.5725 -0.00695567 0)
(14.7712 -0.0110815 0)
(15.0691 -0.0225619 0)
(15.6823 -0.0608144 0)
(16.7232 -0.224451 0)
(25.8042 0.0339022 0)
(21.9326 0.00389753 0)
(20.7216 0.00141167 0)
(20.048 0.000937791 0)
(19.5751 0.000714214 0)
(19.2228 0.00056679 0)
(18.9483 0.000465559 0)
(18.7278 0.000392902 0)
(18.546 0.000338855 0)
(18.3934 0.000296834 0)
(18.2635 0.000263297 0)
(18.1519 0.000236286 0)
(18.0546 0.000214362 0)
(17.9691 0.000195646 0)
(17.8937 0.000179942 0)
(17.8265 0.000166764 0)
(17.7663 0.000155162 0)
(17.7122 0.000144835 0)
(17.6634 0.000135933 0)
(17.6191 0.000128327 0)
(17.5787 0.000121543 0)
(17.5418 0.000115338 0)
(17.508 0.000109595 0)
(17.477 0.000104291 0)
(17.4486 9.94677e-05 0)
(17.4224 9.5224e-05 0)
(17.3982 9.15986e-05 0)
(17.3757 8.84138e-05 0)
(17.3547 8.53716e-05 0)
(17.3352 8.24176e-05 0)
(17.3171 7.96539e-05 0)
(17.3002 7.70379e-05 0)
(17.2844 7.45282e-05 0)
(17.2697 7.21213e-05 0)
(17.256 6.98068e-05 0)
(17.2432 6.75633e-05 0)
(17.2313 6.53629e-05 0)
(17.2202 6.31907e-05 0)
(17.2098 6.10254e-05 0)
(17.2002 5.87969e-05 0)
(17.1913 5.63969e-05 0)
(17.183 5.37047e-05 0)
(17.1755 5.05873e-05 0)
(17.1688 4.68966e-05 0)
(17.1628 4.24726e-05 0)
(17.1576 3.71034e-05 0)
(17.1534 3.04749e-05 0)
(17.1501 2.23155e-05 0)
(17.1481 1.23904e-05 0)
(17.1473 7.35092e-08 0)
(17.148 -1.49228e-05 0)
(17.1503 -3.2842e-05 0)
(17.1545 -5.44015e-05 0)
(17.1608 -8.01939e-05 0)
(17.1694 -0.000110887 0)
(17.1806 -0.000147278 0)
(17.1948 -0.000190367 0)
(17.2123 -0.000241432 0)
(17.2335 -0.000301727 0)
(17.2588 -0.000373826 0)
(17.2891 -0.000456146 0)
(17.3239 -0.000576926 0)
(17.3693 -0.000706682 0)
(17.407 -0.000769951 0)
(17.4421 -0.00081714 0)
(17.4764 -0.000943437 0)
(17.5145 -0.00109655 0)
(17.5559 -0.00124214 0)
(17.6001 -0.00139339 0)
(17.6472 -0.00155923 0)
(17.6972 -0.00174305 0)
(17.7502 -0.00194789 0)
(17.8065 -0.00217748 0)
(17.8662 -0.00243705 0)
(17.9296 -0.00273324 0)
(17.9971 -0.00307515 0)
(18.0691 -0.00347515 0)
(18.1463 -0.00395199 0)
(18.2296 -0.00453405 0)
(18.3202 -0.00526733 0)
(18.4201 -0.00623081 0)
(18.5322 -0.00757471 0)
(18.6614 -0.00961276 0)
(18.8168 -0.0131192 0)
(19.0185 -0.0201843 0)
(19.3024 -0.038539 0)
(19.8206 -0.0911766 0)
(20.483 -0.272098 0)
(29.7333 0.0431475 0)
(25.4153 0.00656549 0)
(23.946 0.00247013 0)
(23.167 0.00159089 0)
(22.6373 0.00119648 0)
(22.2489 0.000944718 0)
(21.9485 0.000774368 0)
(21.7084 0.000653055 0)
(21.5107 0.00056311 0)
(21.3452 0.000493301 0)
(21.2044 0.000437639 0)
(21.0835 0.000392818 0)
(20.9782 0.000356435 0)
(20.8857 0.000325408 0)
(20.8042 0.000299356 0)
(20.7315 0.000277474 0)
(20.6664 0.00025823 0)
(20.608 0.000241112 0)
(20.5553 0.000226339 0)
(20.5074 0.000213695 0)
(20.4638 0.000202421 0)
(20.4239 0.000192121 0)
(20.3874 0.000182596 0)
(20.3539 0.0001738 0)
(20.3232 0.000165795 0)
(20.2949 0.000158739 0)
(20.2688 0.000152698 0)
(20.2445 0.00014739 0)
(20.2219 0.000142331 0)
(20.2008 0.000137423 0)
(20.1812 0.000132828 0)
(20.163 0.000128484 0)
(20.146 0.000124319 0)
(20.1301 0.000120322 0)
(20.1153 0.000116477 0)
(20.1015 0.000112747 0)
(20.0886 0.000109086 0)
(20.0766 0.000105467 0)
(20.0654 0.000101853 0)
(20.055 9.81304e-05 0)
(20.0453 9.41209e-05 0)
(20.0364 8.96247e-05 0)
(20.0283 8.44203e-05 0)
(20.021 7.82605e-05 0)
(20.0146 7.08774e-05 0)
(20.009 6.19174e-05 0)
(20.0044 5.0861e-05 0)
(20.001 3.72495e-05 0)
(19.9988 2.06813e-05 0)
(19.9979 1.88338e-07 0)
(19.9987 -2.47921e-05 0)
(20.0013 -5.47262e-05 0)
(20.0058 -9.07128e-05 0)
(20.0126 -0.000133744 0)
(20.022 -0.000184935 0)
(20.0342 -0.000245605 0)
(20.0496 -0.000317406 0)
(20.0686 -0.000402443 0)
(20.0915 -0.000502782 0)
(20.119 -0.000622694 0)
(20.1518 -0.000759291 0)
(20.1895 -0.000958782 0)
(20.2381 -0.00116022 0)
(20.2783 -0.00128262 0)
(20.3169 -0.00138472 0)
(20.3546 -0.00157398 0)
(20.3957 -0.00181582 0)
(20.4402 -0.00205518 0)
(20.4877 -0.00230507 0)
(20.5383 -0.00257795 0)
(20.5919 -0.00287935 0)
(20.6488 -0.00321419 0)
(20.709 -0.0035883 0)
(20.7728 -0.00400979 0)
(20.8404 -0.00448888 0)
(20.9121 -0.0050395 0)
(20.9885 -0.00568051 0)
(21.07 -0.00644013 0)
(21.1576 -0.00736084 0)
(21.2525 -0.00851082 0)
(21.3562 -0.0100058 0)
(21.4715 -0.0120629 0)
(21.6028 -0.0151269 0)
(21.7575 -0.0202641 0)
(21.9517 -0.0302164 0)
(22.2094 -0.0545786 0)
(22.6321 -0.117234 0)
(23.0456 -0.307539 0)
(32.7278 0.0528468 0)
(28.1632 0.0101516 0)
(26.4442 0.00396929 0)
(25.5542 0.00248224 0)
(24.9672 0.00183689 0)
(24.544 0.00143921 0)
(24.2205 0.00117538 0)
(23.963 0.000989785 0)
(23.7515 0.000852774 0)
(23.5748 0.000746707 0)
(23.4247 0.000662274 0)
(23.2959 0.00059434 0)
(23.1838 0.000539216 0)
(23.0855 0.000492277 0)
(22.9987 0.000452851 0)
(22.9215 0.000419722 0)
(22.8524 0.000390623 0)
(22.7903 0.000364763 0)
(22.7344 0.000342427 0)
(22.6836 0.000323285 0)
(22.6373 0.000306222 0)
(22.595 0.000290653 0)
(22.5563 0.000276275 0)
(22.5208 0.000263 0)
(22.4882 0.000250913 0)
(22.4582 0.000240241 0)
(22.4304 0.000231086 0)
(22.4047 0.000223039 0)
(22.3807 0.000215385 0)
(22.3584 0.000207968 0)
(22.3376 0.000201024 0)
(22.3183 0.000194468 0)
(22.3002 0.000188184 0)
(22.2834 0.000182154 0)
(22.2677 0.00017635 0)
(22.253 0.000170719 0)
(22.2394 0.000165188 0)
(22.2266 0.000159715 0)
(22.2148 0.000154241 0)
(22.2037 0.000148598 0)
(22.1935 0.000142523 0)
(22.1841 0.000135714 0)
(22.1755 0.000127837 0)
(22.1677 0.00011852 0)
(22.1609 0.000107355 0)
(22.1549 9.38089e-05 0)
(22.1501 7.71025e-05 0)
(22.1464 5.65343e-05 0)
(22.144 3.14877e-05 0)
(22.143 5.73623e-07 0)
(22.1437 -3.71534e-05 0)
(22.1463 -8.24536e-05 0)
(22.151 -0.000136876 0)
(22.1581 -0.000201924 0)
(22.1679 -0.000279282 0)
(22.1806 -0.000370935 0)
(22.1966 -0.000479355 0)
(22.2164 -0.000607689 0)
(22.2404 -0.000759027 0)
(22.2691 -0.000939781 0)
(22.3033 -0.00114531 0)
(22.3427 -0.00144379 0)
(22.393 -0.00173161 0)
(22.4345 -0.00193513 0)
(22.475 -0.00211698 0)
(22.5148 -0.00238304 0)
(22.5579 -0.00273281 0)
(22.6043 -0.00308898 0)
(22.6538 -0.00346309 0)
(22.7063 -0.00387085 0)
(22.762 -0.00432011 0)
(22.821 -0.00481791 0)
(22.8834 -0.00537258 0)
(22.9493 -0.0059955 0)
(23.0191 -0.00670106 0)
(23.0929 -0.00750871 0)
(23.1713 -0.00844465 0)
(23.2548 -0.00954776 0)
(23.3441 -0.0108761 0)
(23.4403 -0.012522 0)
(23.5449 -0.0146405 0)
(23.6603 -0.0175182 0)
(23.7901 -0.0217309 0)
(23.9408 -0.0286296 0)
(24.1251 -0.0415172 0)
(24.3593 -0.0713942 0)
(24.7149 -0.1411 0)
(24.9857 -0.336843 0)
(35.1152 0.0629836 0)
(30.4846 0.0147958 0)
(28.5335 0.00604931 0)
(27.5284 0.00369105 0)
(26.8848 0.00268436 0)
(26.4273 0.0020865 0)
(26.0806 0.00169686 0)
(25.8058 0.00142595 0)
(25.5809 0.00122701 0)
(25.3933 0.0010735 0)
(25.2343 0.000951579 0)
(25.0979 0.000853603 0)
(24.9793 0.000774161 0)
(24.8754 0.000706627 0)
(24.7838 0.000649912 0)
(24.7023 0.000602243 0)
(24.6294 0.00056043 0)
(24.5639 0.000523315 0)
(24.5049 0.000491239 0)
(24.4514 0.00046372 0)
(24.4026 0.000439198 0)
(24.358 0.000416852 0)
(24.3172 0.000396246 0)
(24.2799 0.000377231 0)
(24.2455 0.000359912 0)
(24.2139 0.000344595 0)
(24.1847 0.000331431 0)
(24.1576 0.000319854 0)
(24.1323 0.000308868 0)
(24.1089 0.000298234 0)
(24.087 0.000288279 0)
(24.0667 0.000278891 0)
(24.0477 0.0002699 0)
(24.03 0.000261274 0)
(24.0134 0.00025297 0)
(23.998 0.000244911 0)
(23.9836 0.000236995 0)
(23.9702 0.000229155 0)
(23.9577 0.000221307 0)
(23.9461 0.000213214 0)
(23.9353 0.000204505 0)
(23.9254 0.000194754 0)
(23.9163 0.000183487 0)
(23.9081 0.00017017 0)
(23.9008 0.000154222 0)
(23.8946 0.000134886 0)
(23.8894 0.000111055 0)
(23.8854 8.17207e-05 0)
(23.8828 4.59925e-05 0)
(23.8816 1.97305e-06 0)
(23.8822 -5.18063e-05 0)
(23.8847 -0.000116491 0)
(23.8894 -0.000194151 0)
(23.8966 -0.00028693 0)
(23.9065 -0.000397232 0)
(23.9194 -0.000527874 0)
(23.9358 -0.000682342 0)
(23.956 -0.000865079 0)
(23.9806 -0.00108045 0)
(24.0099 -0.00133748 0)
(24.0449 -0.00162945 0)
(24.0852 -0.00205008 0)
(24.1364 -0.00244124 0)
(24.1784 -0.00275075 0)
(24.2199 -0.00304132 0)
(24.2609 -0.00340154 0)
(24.3051 -0.00388129 0)
(24.3525 -0.00438034 0)
(24.403 -0.00490752 0)
(24.4566 -0.00548168 0)
(24.5133 -0.00611306 0)
(24.5733 -0.00681113 0)
(24.6366 -0.00758699 0)
(24.7034 -0.00845582 0)
(24.774 -0.00943671 0)
(24.8486 -0.0105554 0)
(24.9277 -0.0118463 0)
(25.0116 -0.0133603 0)
(25.1011 -0.0151725 0)
(25.1972 -0.0174019 0)
(25.3012 -0.0202455 0)
(25.4151 -0.0240632 0)
(25.5423 -0.0295636 0)
(25.6881 -0.0383648 0)
(25.8631 -0.0542333 0)
(26.0779 -0.0891324 0)
(26.386 -0.163959 0)
(26.5699 -0.361939 0)
(37.076 0.0735051 0)
(32.542 0.020609 0)
(30.3882 0.00887568 0)
(29.2624 0.00532466 0)
(28.5603 0.00380451 0)
(28.0665 0.00293261 0)
(27.695 0.00237359 0)
(27.4021 0.00198963 0)
(27.1632 0.0017093 0)
(26.9644 0.00149382 0)
(26.7961 0.00132312 0)
(26.6521 0.00118618 0)
(26.527 0.00107526 0)
(26.4175 0.000981126 0)
(26.3211 0.000902117 0)
(26.2353 0.000835714 0)
(26.1586 0.000777538 0)
(26.0897 0.000725962 0)
(26.0277 0.00068138 0)
(25.9714 0.0006431 0)
(25.9202 0.000609 0)
(25.8734 0.000577963 0)
(25.8306 0.000549382 0)
(25.7914 0.00052303 0)
(25.7553 0.000499021 0)
(25.7222 0.000477763 0)
(25.6915 0.000459456 0)
(25.6631 0.000443349 0)
(25.6366 0.000428094 0)
(25.612 0.000413349 0)
(25.5891 0.000399547 0)
(25.5677 0.000386544 0)
(25.5478 0.000374105 0)
(25.5292 0.000362174 0)
(25.5119 0.00035069 0)
(25.4957 0.000339547 0)
(25.4806 0.000328601 0)
(25.4666 0.000317759 0)
(25.4535 0.000306902 0)
(25.4413 0.000295706 0)
(25.43 0.000283671 0)
(25.4195 0.000270214 0)
(25.41 0.000254688 0)
(25.4013 0.000236362 0)
(25.3937 0.000214438 0)
(25.387 0.00018788 0)
(25.3815 0.000155181 0)
(25.3772 0.000114947 0)
(25.3743 6.59471e-05 0)
(25.3729 5.67632e-06 0)
(25.3733 -6.80232e-05 0)
(25.3757 -0.000156795 0)
(25.3803 -0.000263313 0)
(25.3873 -0.000390514 0)
(25.3972 -0.000541686 0)
(25.4102 -0.00072067 0)
(25.4267 -0.000932198 0)
(25.4471 -0.00118229 0)
(25.4719 -0.00147689 0)
(25.5015 -0.00182815 0)
(25.5369 -0.00222695 0)
(25.5776 -0.00279622 0)
(25.6292 -0.00331099 0)
(25.6713 -0.00375306 0)
(25.7132 -0.00418537 0)
(25.7548 -0.00466379 0)
(25.7995 -0.00530017 0)
(25.8473 -0.00597196 0)
(25.8982 -0.00668501 0)
(25.9521 -0.0074614 0)
(26.0091 -0.00831394 0)
(26.0694 -0.00925473 0)
(26.1329 -0.010298 0)
(26.1998 -0.0114632 0)
(26.2705 -0.0127748 0)
(26.345 -0.0142655 0)
(26.4238 -0.0159791 0)
(26.5073 -0.0179795 0)
(26.5961 -0.0203612 0)
(26.6911 -0.0232717 0)
(26.7936 -0.0269537 0)
(26.9054 -0.0318436 0)
(27.0294 -0.0387851 0)
(27.1701 -0.0496593 0)
(27.3362 -0.0686339 0)
(27.5339 -0.108296 0)
(27.8034 -0.186878 0)
(27.9304 -0.383739 0)
(38.7097 0.0843112 0)
(34.4202 0.0276651 0)
(32.1078 0.0126385 0)
(30.8522 0.00751377 0)
(30.084 0.00527734 0)
(29.5498 0.00403365 0)
(29.1508 0.00324905 0)
(28.8379 0.00271551 0)
(28.5838 0.0023283 0)
(28.373 0.00203195 0)
(28.195 0.00179795 0)
(28.0429 0.00161062 0)
(27.9109 0.00145907 0)
(27.7955 0.00133069 0)
(27.694 0.00122305 0)
(27.6038 0.00113261 0)
(27.5231 0.00105346 0)
(27.4508 0.000983387 0)
(27.3857 0.000922824 0)
(27.3267 0.000870797 0)
(27.2729 0.000824461 0)
(27.2238 0.000782332 0)
(27.179 0.000743592 0)
(27.1378 0.000707906 0)
(27.1001 0.000675397 0)
(27.0653 0.000646585 0)
(27.0332 0.000621726 0)
(27.0034 0.000599836 0)
(26.9757 0.000579144 0)
(26.9499 0.000559175 0)
(26.926 0.000540486 0)
(26.9036 0.000522896 0)
(26.8828 0.000506089 0)
(26.8633 0.000489978 0)
(26.8452 0.000474477 0)
(26.8283 0.00045944 0)
(26.8125 0.000444678 0)
(26.7977 0.00043006 0)
(26.784 0.000415422 0)
(26.7712 0.000400336 0)
(26.7593 0.000384138 0)
(26.7484 0.000366061 0)
(26.7384 0.000345243 0)
(26.7293 0.000320711 0)
(26.7212 0.000291403 0)
(26.7141 0.000255944 0)
(26.7083 0.000212342 0)
(26.7036 0.000158726 0)
(26.7004 9.34461e-05 0)
(26.6987 1.32945e-05 0)
(26.6989 -8.47846e-05 0)
(26.701 -0.000203083 0)
(26.7054 -0.000344955 0)
(26.7123 -0.000514303 0)
(26.722 -0.000715495 0)
(26.7349 -0.000953609 0)
(26.7513 -0.00123488 0)
(26.7717 -0.00156724 0)
(26.7964 -0.00195853 0)
(26.8261 -0.0024246 0)
(26.8615 -0.0029537 0)
(26.9023 -0.00370124 0)
(26.9537 -0.00436309 0)
(26.9956 -0.00496707 0)
(27.0375 -0.00557682 0)
(27.0793 -0.00620106 0)
(27.124 -0.00702451 0)
(27.1719 -0.00790313 0)
(27.2227 -0.00883902 0)
(27.2765 -0.00985782 0)
(27.3334 -0.0109752 0)
(27.3934 -0.0122063 0)
(27.4566 -0.0135688 0)
(27.5231 -0.015087 0)
(27.5932 -0.0167913 0)
(27.6671 -0.0187225 0)
(27.7451 -0.0209347 0)
(27.8275 -0.0235066 0)
(27.9151 -0.0265539 0)
(28.0085 -0.0302558 0)
(28.1089 -0.0349044 0)
(28.2181 -0.0410176 0)
(28.3384 -0.049577 0)
(28.4738 -0.0627095 0)
(28.6313 -0.0849049 0)
(28.8137 -0.129006 0)
(29.0507 -0.210312 0)
(29.1396 -0.402574 0)
(40.0731 0.0951612 0)
(36.1614 0.0359712 0)
(33.7501 0.0175431 0)
(32.3623 0.0104447 0)
(31.5134 0.00722502 0)
(30.9333 0.00547116 0)
(30.5031 0.00438466 0)
(30.1677 0.00365264 0)
(29.8965 0.00312454 0)
(29.6724 0.00272215 0)
(29.4836 0.00240561 0)
(29.3226 0.00215284 0)
(29.1831 0.00194869 0)
(29.0614 0.00177608 0)
(28.9544 0.00163158 0)
(28.8594 0.00151024 0)
(28.7746 0.00140416 0)
(28.6986 0.00131037 0)
(28.6302 0.00122935 0)
(28.5682 0.00115975 0)
(28.5118 0.00109777 0)
(28.4603 0.00104147 0)
(28.4132 0.00098977 0)
(28.3701 0.000942204 0)
(28.3306 0.000898883 0)
(28.2941 0.000860469 0)
(28.2605 0.000827269 0)
(28.2293 0.000797999 0)
(28.2003 0.000770378 0)
(28.1733 0.000743766 0)
(28.1482 0.000718867 0)
(28.1248 0.000695453 0)
(28.103 0.000673113 0)
(28.0826 0.000651717 0)
(28.0637 0.000631144 0)
(28.0459 0.0006112 0)
(28.0294 0.000591636 0)
(28.014 0.000572279 0)
(27.9996 0.000552906 0)
(27.9862 0.000532957 0)
(27.9737 0.000511572 0)
(27.9623 0.000487754 0)
(27.9517 0.000460387 0)
(27.9422 0.000428205 0)
(27.9336 0.000389823 0)
(27.9261 0.000343457 0)
(27.9198 0.000286528 0)
(27.9148 0.000216586 0)
(27.9113 0.00013147 0)
(27.9093 2.71729e-05 0)
(27.909 -0.00010052 0)
(27.9109 -0.000254743 0)
(27.9149 -0.000439607 0)
(27.9216 -0.000660185 0)
(27.931 -0.000922143 0)
(27.9437 -0.00123205 0)
(27.9598 -0.00159796 0)
(27.98 -0.00203006 0)
(28.0045 -0.00253849 0)
(28.0339 -0.00314341 0)
(28.069 -0.00383038 0)
(28.1096 -0.00479017 0)
(28.1606 -0.00562748 0)
(28.2019 -0.00642633 0)
(28.2435 -0.00725374 0)
(28.2851 -0.00805777 0)
(28.3296 -0.00910412 0)
(28.3771 -0.0102295 0)
(28.4276 -0.0114312 0)
(28.4809 -0.0127389 0)
(28.5373 -0.0141717 0)
(28.5966 -0.0157479 0)
(28.6591 -0.0174893 0)
(28.7249 -0.0194257 0)
(28.794 -0.0215941 0)
(28.8669 -0.0240445 0)
(28.9436 -0.0268425 0)
(29.0246 -0.0300836 0)
(29.1105 -0.0339068 0)
(29.2019 -0.0385265 0)
(29.3 -0.044288 0)
(29.4061 -0.0517952 0)
(29.5225 -0.0621698 0)
(29.6525 -0.0777622 0)
(29.8015 -0.103302 0)
(29.9699 -0.151481 0)
(30.1787 -0.234665 0)
(30.2416 -0.418684 0)
(41.2154 0.105768 0)
(37.7849 0.0454547 0)
(35.3476 0.0237939 0)
(33.8388 0.0143573 0)
(32.8935 0.00982201 0)
(32.2566 0.00736255 0)
(31.7902 0.00586429 0)
(31.4289 0.00486732 0)
(31.138 0.0041527 0)
(30.8987 0.00361046 0)
(30.6976 0.00318574 0)
(30.5266 0.00284749 0)
(30.3787 0.00257489 0)
(30.2499 0.00234485 0)
(30.1369 0.00215269 0)
(30.0365 0.00199148 0)
(29.9471 0.00185065 0)
(29.867 0.00172633 0)
(29.795 0.00161907 0)
(29.7298 0.00152695 0)
(29.6705 0.00144491 0)
(29.6164 0.00137043 0)
(29.5669 0.00130216 0)
(29.5217 0.00123942 0)
(29.4801 0.00118232 0)
(29.4419 0.00113168 0)
(29.4066 0.00108785 0)
(29.3739 0.00104915 0)
(29.3434 0.00101268 0)
(29.3152 0.000977605 0)
(29.2889 0.000944796 0)
(29.2643 0.000913975 0)
(29.2415 0.000884613 0)
(29.2202 0.000856524 0)
(29.2003 0.000829539 0)
(29.1817 0.000803403 0)
(29.1644 0.000777798 0)
(29.1482 0.000752498 0)
(29.1331 0.000727205 0)
(29.1191 0.000701189 0)
(29.106 0.000673351 0)
(29.094 0.000642421 0)
(29.0829 0.000606973 0)
(29.0728 0.000565389 0)
(29.0637 0.000515896 0)
(29.0558 0.000456222 0)
(29.0491 0.000383078 0)
(29.0436 0.000293316 0)
(29.0396 0.000184157 0)
(29.0372 5.07057e-05 0)
(29.0366 -0.00011274 0)
(29.038 -0.000310405 0)
(29.0417 -0.000547231 0)
(29.048 -0.000829696 0)
(29.0571 -0.00116503 0)
(29.0693 -0.00156159 0)
(29.0851 -0.00202957 0)
(29.1049 -0.00258187 0)
(29.129 -0.00323138 0)
(29.158 -0.00400323 0)
(29.1926 -0.0048804 0)
(29.2326 -0.00609143 0)
(29.2828 -0.00713891 0)
(29.3235 -0.0081697 0)
(29.3645 -0.00925957 0)
(29.4056 -0.0102845 0)
(29.4495 -0.0115958 0)
(29.4964 -0.0130145 0)
(29.5462 -0.0145323 0)
(29.5988 -0.0161831 0)
(29.6543 -0.0179898 0)
(29.7128 -0.0199748 0)
(29.7743 -0.0221643 0)
(29.8389 -0.0245941 0)
(29.9069 -0.0273093 0)
(29.9783 -0.0303699 0)
(30.0535 -0.0338547 0)
(30.1328 -0.0378777 0)
(30.2167 -0.042604 0)
(30.3059 -0.0482866 0)
(30.4013 -0.0553283 0)
(30.5042 -0.0644226 0)
(30.6166 -0.0768293 0)
(30.7411 -0.0950903 0)
(30.8816 -0.12408 0)
(31.0368 -0.175899 0)
(31.2203 -0.260173 0)
(31.2654 -0.432471 0)
(42.1842 0.115926 0)
(39.2973 0.0559728 0)
(36.9152 0.0315552 0)
(35.3108 0.0195224 0)
(34.2631 0.0133124 0)
(33.5535 0.00987949 0)
(33.0415 0.00780858 0)
(32.6495 0.00645067 0)
(32.3356 0.00548665 0)
(32.0784 0.00475917 0)
(31.863 0.00419176 0)
(31.6805 0.00374125 0)
(31.5229 0.0033791 0)
(31.386 0.0030739 0)
(31.266 0.00281974 0)
(31.1596 0.00260681 0)
(31.0649 0.00242089 0)
(30.9802 0.00225704 0)
(30.9042 0.00211593 0)
(30.8353 0.00199482 0)
(30.7727 0.00188694 0)
(30.7157 0.00178907 0)
(30.6636 0.00169947 0)
(30.6159 0.00161729 0)
(30.5722 0.00154256 0)
(30.532 0.00147632 0)
(30.4948 0.00141891 0)
(30.4604 0.00136813 0)
(30.4284 0.00132031 0)
(30.3987 0.0012744 0)
(30.371 0.00123149 0)
(30.3453 0.00119121 0)
(30.3213 0.0011529 0)
(30.2989 0.00111631 0)
(30.278 0.0010812 0)
(30.2585 0.00104724 0)
(30.2403 0.00101402 0)
(30.2233 0.000981266 0)
(30.2075 0.000948573 0)
(30.1927 0.000914995 0)
(30.1789 0.000879139 0)
(30.1662 0.000839406 0)
(30.1545 0.000794002 0)
(30.1438 0.000740888 0)
(30.1342 0.000677827 0)
(30.1258 0.000601962 0)
(30.1185 0.000509159 0)
(30.1126 0.00039543 0)
(30.1081 0.000257256 0)
(30.1053 8.87676e-05 0)
(30.1042 -0.000117624 0)
(30.1052 -0.000367547 0)
(30.1084 -0.000666844 0)
(30.1142 -0.00102369 0)
(30.1228 -0.00144716 0)
(30.1345 -0.00194775 0)
(30.1498 -0.0025382 0)
(30.169 -0.00323462 0)
(30.1925 -0.0040532 0)
(30.2209 -0.00502471 0)
(30.2548 -0.00612996 0)
(30.2941 -0.00763683 0)
(30.3433 -0.00893728 0)
(30.3831 -0.0102417 0)
(30.4233 -0.0116438 0)
(30.4637 -0.0129389 0)
(30.5068 -0.0145639 0)
(30.5529 -0.0163306 0)
(30.6018 -0.0182232 0)
(30.6534 -0.0202801 0)
(30.7079 -0.0225289 0)
(30.7652 -0.0249965 0)
(30.8255 -0.0277143 0)
(30.8888 -0.0307253 0)
(30.9552 -0.0340831 0)
(31.0251 -0.0378593 0)
(31.0985 -0.0421476 0)
(31.1759 -0.0470828 0)
(31.2577 -0.052859 0)
(31.3444 -0.059771 0)
(31.437 -0.0682828 0)
(31.5365 -0.0791789 0)
(31.6447 -0.0938497 0)
(31.7635 -0.114981 0)
(31.8956 -0.147471 0)
(32.0381 -0.202391 0)
(32.1985 -0.286904 0)
(32.2316 -0.444584 0)
(42.9935 0.125216 0)
(40.6871 0.0672511 0)
(38.4537 0.0408925 0)
(36.7951 0.0262147 0)
(35.6512 0.0179958 0)
(34.8578 0.0132702 0)
(34.2858 0.0104033 0)
(33.8531 0.00853657 0)
(33.5116 0.00722798 0)
(33.2331 0.00625364 0)
(33.0008 0.00549618 0)
(32.8045 0.00489761 0)
(32.6354 0.00441763 0)
(32.4889 0.00401315 0)
(32.3608 0.0036779 0)
(32.2474 0.00339753 0)
(32.1466 0.00315258 0)
(32.0565 0.00293713 0)
(31.9758 0.00275207 0)
(31.9027 0.00259348 0)
(31.8363 0.00245211 0)
(31.7759 0.00232389 0)
(31.7208 0.00220671 0)
(31.6703 0.00209943 0)
(31.6241 0.00200201 0)
(31.5816 0.00191576 0)
(31.5424 0.00184095 0)
(31.506 0.00177461 0)
(31.4722 0.00171218 0)
(31.4409 0.00165234 0)
(31.4117 0.00159643 0)
(31.3845 0.00154402 0)
(31.3592 0.00149427 0)
(31.3357 0.00144683 0)
(31.3136 0.00140138 0)
(31.2931 0.00135747 0)
(31.2739 0.00131463 0)
(31.256 0.00127252 0)
(31.2392 0.00123057 0)
(31.2236 0.00118756 0)
(31.2091 0.00114174 0)
(31.1957 0.00109111 0)
(31.1833 0.00103344 0)
(31.1719 0.0009662 0)
(31.1617 0.000886591 0)
(31.1526 0.000791069 0)
(31.1448 0.000674488 0)
(31.1383 0.000531857 0)
(31.1333 0.000358779 0)
(31.1299 0.000148336 0)
(31.1283 -0.000109426 0)