# vtk DataFile Version 2.0
track0
ASCII
DATASET POLYDATA
POINTS 12080 float
-0.0205 0.001 1e-05
-0.02052 0.000999985 1e-05
-0.02054 0.000999974 1e-05
-0.02056 0.000999965 1e-05
-0.02058 0.000999959 1e-05
-0.0206 0.000999956 1e-05
-0.0205 0.00367778 1e-05
-0.02052 0.00367778 1e-05
-0.02054 0.00367777 1e-05
-0.02056 0.00367777 1e-05
-0.02058 0.00367777 1e-05
-0.0206 0.00367777 1e-05
-0.0205 0.00635556 1e-05
-0.02052 0.00635555 1e-05
-0.02054 0.00635555 1e-05
-0.02056 0.00635555 1e-05
-0.02058 0.00635555 1e-05
-0.0206 0.00635555 1e-05
-0.0205 0.00903333 1e-05
-0.02052 0.00903333 1e-05
-0.02054 0.00903333 1e-05
-0.02056 0.00903333 1e-05
-0.02058 0.00903333 1e-05
-0.0206 0.00903333 1e-05
-0.0205 0.0117111 1e-05
-0.02052 0.0117111 1e-05
-0.02054 0.0117111 1e-05
-0.02056 0.0117111 1e-05
-0.02058 0.0117111 1e-05
-0.0206 0.0117111 1e-05
-0.0205 0.0143889 1e-05
-0.02052 0.0143889 1e-05
-0.02054 0.0143889 1e-05
-0.02056 0.0143889 1e-05
-0.02058 0.0143889 1e-05
-0.0206 0.0143889 1e-05
-0.0205 0.0170667 1e-05
-0.02052 0.0170667 1e-05
-0.02054 0.0170667 1e-05
-0.02056 0.0170667 1e-05
-0.02058 0.0170667 1e-05
-0.0206 0.0170667 1e-05
-0.0205 0.0197444 1e-05
-0.02052 0.0197444 1e-05
-0.02054 0.0197444 1e-05
-0.02056 0.0197444 1e-05
-0.02058 0.0197444 1e-05
-0.0206 0.0197444 1e-05
-0.0205 0.0224222 1e-05
-0.02052 0.0224222 1e-05
-0.02054 0.0224222 1e-05
-0.02056 0.0224222 1e-05
-0.02058 0.0224222 1e-05
-0.0206 0.0224222 1e-05
-0.0205 0.0251 1e-05
-0.02052 0.0250998 1e-05
-0.02054 0.0250997 1e-05
-0.02056 0.0250995 1e-05
-0.02058 0.0250995 1e-05
-0.0206 0.0250994 1e-05
-0.0205 0.001 1e-05
-0.0202034 0.00100022 1e-05
-0.0199069 0.00100067 1e-05
-0.0196103 0.00100133 1e-05
-0.0193137 0.00100219 1e-05
-0.0190172 0.00100326 1e-05
-0.0187132 0.00100467 1e-05
-0.0184093 0.00100589 1e-05
-0.0181054 0.00100711 1e-05
-0.0178015 0.00100833 1e-05
-0.0174976 0.00100954 1e-05
-0.0172058 0.00101084 1e-05
-0.016914 0.00101194 1e-05
-0.0166222 0.00101304 1e-05
-0.0163305 0.00101414 1e-05
-0.0160387 0.00101523 1e-05
-0.0157586 0.00101637 1e-05
-0.0154784 0.00101745 1e-05
-0.0151983 0.00101857 1e-05
-0.0149182 0.00101973 1e-05
-0.0146381 0.00102092 1e-05
-0.0143754 0.0010221 1e-05
-0.0141128 0.00102328 1e-05
-0.0138501 0.00102449 1e-05
-0.0135874 0.00102574 1e-05
-0.0133657 0.00102682 1e-05
-0.0133512 0.00102689 1e-05
-0.0133368 0.00102696 1e-05
-0.0133223 0.00102703 1e-05
-0.0133079 0.0010271 1e-05
-0.0132934 0.00102718 1e-05
-0.0130353 0.00102847 1e-05
-0.0127771 0.00102977 1e-05
-0.0125189 0.00103109 1e-05
-0.0122607 0.00103243 1e-05
-0.0120025 0.00103378 1e-05
-0.0117547 0.00103509 1e-05
-0.0115068 0.00103641 1e-05
-0.0112589 0.00103774 1e-05
-0.0110111 0.00103906 1e-05
-0.0107632 0.0010404 1e-05
-0.0105252 0.00104168 1e-05
-0.0102873 0.00104296 1e-05
-0.0100493 0.00104424 1e-05
-0.00981133 0.00104553 1e-05
-0.00957337 0.00104681 1e-05
-0.00934491 0.00104803 1e-05
-0.00911645 0.00104926 1e-05
-0.00888799 0.00105049 1e-05
-0.00865954 0.00105171 1e-05
-0.00843108 0.00105293 1e-05
-0.00821175 0.00105409 1e-05
-0.00799242 0.00105526 1e-05
-0.00777309 0.00105642 1e-05
-0.00755376 0.00105758 1e-05
-0.00733443 0.00105873 1e-05
-0.00712387 0.00105983 1e-05
-0.0069133 0.00106093 1e-05
-0.00670273 0.00106203 1e-05
-0.00649216 0.00106313 1e-05
-0.0062816 0.00106422 1e-05
-0.00607944 0.00106526 1e-05
-0.00587729 0.0010663 1e-05
-0.00567514 0.00106733 1e-05
-0.00547298 0.00106837 1e-05
-0.00527083 0.0010694 1e-05
-0.00507675 0.00107038 1e-05
-0.00488267 0.00107137 1e-05
-0.0046886 0.00107235 1e-05
-0.00449452 0.00107333 1e-05
-0.00430044 0.00107431 1e-05
-0.00411412 0.00107525 1e-05
-0.0039278 0.00107619 1e-05
-0.00374147 0.00107713 1e-05
-0.00355515 0.00107807 1e-05
-0.00336883 0.001079 1e-05
-0.00318995 0.0010799 1e-05
-0.00301107 0.0010808 1e-05
-0.00283219 0.00108171 1e-05
-0.00265331 0.00108261 1e-05
-0.00247443 0.00108353 1e-05
-0.0023027 0.0010844 1e-05
-0.00213097 0.00108529 1e-05
-0.00195924 0.00108618 1e-05
-0.0017875 0.00108708 1e-05
-0.00161577 0.00108798 1e-05
-0.0014509 0.00108886 1e-05
-0.00128603 0.00108974 1e-05
-0.00112116 0.00109065 1e-05
-0.00095629 0.00109157 1e-05
-0.000791418 0.00109251 1e-05
-0.000633135 0.00109342 1e-05
-0.000474851 0.00109436 1e-05
-0.000316568 0.00109532 1e-05
-0.000158285 0.0010963 1e-05
0 0.00109731 1e-05
0.000105677 0.00109799 1e-05
0.000211355 0.00109868 1e-05
0.000317032 0.00109937 1e-05
0.00042271 0.00110007 1e-05
0.000528387 0.00110077 1e-05
0.000634886 0.00110147 1e-05
0.000741385 0.00110217 1e-05
0.000847885 0.00110286 1e-05
0.000954384 0.00110355 1e-05
0.00106088 0.00110422 1e-05
0.00116821 0.0011049 1e-05
0.00127554 0.00110556 1e-05
0.00138286 0.0011062 1e-05
0.00149019 0.00110684 1e-05
0.00159752 0.00110745 1e-05
0.00170568 0.00110806 1e-05
0.00181384 0.00110866 1e-05
0.001922 0.00110924 1e-05
0.00203016 0.00110981 1e-05
0.00213833 0.00111037 1e-05
0.00224733 0.0011109 1e-05
0.00235633 0.00111144 1e-05
0.00246533 0.00111196 1e-05
0.00257434 0.00111246 1e-05
0.00268334 0.00111296 1e-05
0.00279319 0.00111343 1e-05
0.00290304 0.0011139 1e-05
0.00301289 0.00111436 1e-05
0.00312274 0.00111481 1e-05
0.00323259 0.00111524 1e-05
0.00334329 0.00111566 1e-05
0.003454 0.00111607 1e-05
0.0035647 0.00111647 1e-05
0.0036754 0.00111686 1e-05
0.00378611 0.00111724 1e-05
0.00389767 0.0011176 1e-05
0.00400924 0.00111795 1e-05
0.0041208 0.00111829 1e-05
0.00423237 0.00111862 1e-05
0.00434393 0.00111894 1e-05
0.00445636 0.00111924 1e-05
0.00456879 0.00111954 1e-05
0.00468123 0.00111982 1e-05
0.00479366 0.00112009 1e-05
0.00490609 0.00112035 1e-05
0.0050194 0.0011206 1e-05
0.0051327 0.00112083 1e-05
0.00524601 0.00112106 1e-05
0.00535932 0.00112128 1e-05
0.00547262 0.00112148 1e-05
0.00558681 0.00112167 1e-05
0.005701 0.00112185 1e-05
0.00581518 0.00112202 1e-05
0.00592937 0.00112218 1e-05
0.00604356 0.00112232 1e-05
0.00615863 0.00112245 1e-05
0.00627371 0.00112258 1e-05
0.00638878 0.00112269 1e-05
0.00650386 0.0011228 1e-05
0.00661893 0.00112289 1e-05
0.0067349 0.00112297 1e-05
0.00685087 0.00112304 1e-05
0.00696684 0.0011231 1e-05
0.00708281 0.00112314 1e-05
0.00719878 0.00112318 1e-05
0.00731565 0.0011232 1e-05
0.00743252 0.00112322 1e-05
0.00754939 0.00112322 1e-05
0.00766626 0.00112321 1e-05
0.00778313 0.00112319 1e-05
0.00790091 0.00112316 1e-05
0.00801869 0.00112312 1e-05
0.00813647 0.00112307 1e-05
0.00825425 0.00112301 1e-05
0.00837203 0.00112293 1e-05
0.00837546 0.00112293 1e-05
0.00837888 0.00112293 1e-05
0.0083823 0.00112292 1e-05
0.00838573 0.00112292 1e-05
0.00838914 0.00112292 1e-05
0.00850442 0.00112283 1e-05
0.00861969 0.00112274 1e-05
0.00873496 0.00112263 1e-05
0.00885024 0.00112251 1e-05
0.00896551 0.00112239 1e-05
0.00908513 0.00112224 1e-05
0.00920475 0.00112208 1e-05
0.00932437 0.00112192 1e-05
0.00944398 0.00112174 1e-05
0.0095636 0.00112155 1e-05
0.00968415 0.00112134 1e-05
0.0098047 0.00112112 1e-05
0.00992525 0.0011209 1e-05
0.0100458 0.00112066 1e-05
0.0101663 0.00112041 1e-05
0.0102878 0.00112014 1e-05
0.0104093 0.00111986 1e-05
0.0105308 0.00111957 1e-05
0.0106523 0.00111927 1e-05
0.0107738 0.00111896 1e-05
0.0108962 0.00111863 1e-05
0.0110186 0.00111829 1e-05
0.0111411 0.00111793 1e-05
0.0112635 0.00111757 1e-05
0.0113859 0.00111719 1e-05
0.0115093 0.00111679 1e-05
0.0116327 0.00111639 1e-05
0.0117561 0.00111597 1e-05
0.0118795 0.00111554 1e-05
0.0120028 0.0011151 1e-05
0.0121272 0.00111463 1e-05
0.0122515 0.00111416 1e-05
0.0123759 0.00111368 1e-05
0.0125002 0.00111318 1e-05
0.0126245 0.00111267 1e-05
0.0127498 0.00111214 1e-05
0.0128752 0.0011116 1e-05
0.0130005 0.00111104 1e-05
0.0131258 0.00111047 1e-05
0.0132511 0.00110989 1e-05
0.0133774 0.00110929 1e-05
0.0135036 0.00110868 1e-05
0.0136299 0.00110805 1e-05
0.0137562 0.00110741 1e-05
0.0138825 0.00110676 1e-05
0.0140098 0.00110609 1e-05
0.014137 0.00110541 1e-05
0.0142643 0.00110471 1e-05
0.0143915 0.00110399 1e-05
0.0145188 0.00110327 1e-05
0.0146471 0.00110252 1e-05
0.0147753 0.00110176 1e-05
0.0149036 0.00110099 1e-05
0.0150318 0.0011002 1e-05
0.0151601 0.0010994 1e-05
0.0152893 0.00109858 1e-05
0.0154186 0.00109774 1e-05
0.0155478 0.00109689 1e-05
0.0156771 0.00109602 1e-05
0.0158063 0.00109515 1e-05
0.0159366 0.00109426 1e-05
0.0160668 0.00109334 1e-05
0.0161971 0.00109241 1e-05
0.0163273 0.00109146 1e-05
0.0164576 0.0010905 1e-05
0.0165889 0.00108954 1e-05
0.0167201 0.00108854 1e-05
0.0168514 0.00108753 1e-05
0.0169827 0.0010865 1e-05
0.0171139 0.00108546 1e-05
0.0172462 0.00108441 1e-05
0.0173785 0.00108334 1e-05
0.0175108 0.00108224 1e-05
0.0176431 0.00108112 1e-05
0.0177754 0.00108 1e-05
0.0179087 0.00107887 1e-05
0.018042 0.00107771 1e-05
0.0181753 0.00107653 1e-05
0.0183087 0.00107532 1e-05
0.018442 0.00107412 1e-05
0.0185763 0.00107291 1e-05
0.0187107 0.00107166 1e-05
0.018845 0.00107038 1e-05
0.0189794 0.00106909 1e-05
0.0191137 0.0010678 1e-05
0.0192491 0.0010665 1e-05
0.0193845 0.00106516 1e-05
0.0195199 0.0010638 1e-05
0.0196553 0.00106241 1e-05
0.0197907 0.00106103 1e-05
0.0199272 0.00105964 1e-05
0.0200636 0.00105821 1e-05
0.0202001 0.00105675 1e-05
0.0203365 0.00105527 1e-05
0.020473 0.00105379 1e-05
0.0206105 0.00105231 1e-05
0.020748 0.00105078 1e-05
0.0208855 0.00104922 1e-05
0.021023 0.00104765 1e-05
0.0211606 0.00104608 1e-05
0.0212991 0.00104449 1e-05
0.0214377 0.00104287 1e-05
0.0215763 0.00104122 1e-05
0.0217149 0.00103954 1e-05
0.0218535 0.00103787 1e-05
0.0219931 0.00103618 1e-05
0.0221328 0.00103446 1e-05
0.0222724 0.0010327 1e-05
0.0224121 0.00103092 1e-05
0.0225517 0.00102914 1e-05
0.0226925 0.00102735 1e-05
0.0228332 0.00102552 1e-05
0.022974 0.00102366 1e-05
0.0231147 0.00102177 1e-05
0.0232555 0.00101988 1e-05
0.0233973 0.00101798 1e-05
0.0235391 0.00101604 1e-05
0.023681 0.00101407 1e-05
0.0238228 0.00101207 1e-05
0.0239647 0.00101007 1e-05
0.0241076 0.00100806 1e-05
0.0242505 0.001006 1e-05
0.0243935 0.00100391 1e-05
0.0245364 0.0010018 1e-05
0.0246794 0.000999685 1e-05
0.0248234 0.00099755 1e-05
0.0249675 0.000995373 1e-05
0.0251115 0.000993163 1e-05
0.0252556 0.000990934 1e-05
[...]
POINT_DATA 12080
 FIELD attributes 1
U 3 12080 float
10.0004 	0.00734875 	0 10.0004 	0.005879 	0 10.0003 	0.00440925 	0 10.0002 	0.0029395 	0 10.0001 	0.00146975 	0 10 	0 	0
10.0001 	0.00088052 	0 10 	0.000704416 	0 10 	0.000528312 	0 10 	0.000352208 	0 10 	0.000176104 	0 10 	0 	0
10.0001 	0.000469146 	0 10.0001 	0.000375129 	0 10.0001 	0.000281112 	0 10 	0.000187095 	0 10 	9.30778e-05 	0 10 	0 	0
10 	0.000269757 	0 10 	0.000215806 	0 10 	0.000161854 	0 10 	0.000107903 	0 10 	5.39515e-05 	0 10 	0 	0
10 	8.35327e-05 	0 10 	6.68261e-05 	0 10 	5.01196e-05 	0 10 	3.34131e-05 	0 10 	1.67065e-05 	0 10 	0 	0
10 	-2.3756e-05 	0 10 	-1.90048e-05 	0 10 	-1.42536e-05 	0 10 	-9.50239e-06 	0 10 	-4.7512e-06 	0 10 	0 	0
10 	-0.000214805 	0 10 	-0.000171844 	0 10 	-0.000128883 	0 10 	-8.59219e-05 	0 10 	-4.2961e-05 	0 10 	0 	0
10 	-0.000376991 	0 10 	-0.000301593 	0 10 	-0.000226195 	0 10 	-0.000150797 	0 10 	-7.53983e-05 	0 10 	0 	0
9.99999 	-0.000426166 	0 9.99999 	-0.000340933 	0 9.99999 	-0.000255699 	0 10 	-0.000170466 	0 10 	-8.52332e-05 	0 10 	0 	0
9.17387 	0.0871273 	0 9.1308 	0.0697018 	0 9.08741 	0.0522761 	0 9.04368 	0.0348501 	0 8.99963 	0.017424 	0 8.95524 	0 	0
10.0004 	0.00734875 	0 10.0024 	0.0152087 	0 10.0045 	0.0222322 	0 10.0065 	0.0292113 	0 10.0086 	0.0361461 	0 10.0136 	0.0463396 	0 10.0164 	0.0402226 	0 10.0208 	0.0401757 	0 10.0252 	0.040129 	0 10.0297 	0.0400825 	0 10.0356 	0.0445432 	0 10.0385 	0.0379092 	0 10.0424 	0.0378691 	0 10.0464 	0.037829 	0 10.0504 	0.0377889 	0 10.0545 	0.0408919 	0 10.0566 	0.0388199 	0 10.0591 	0.0401334 	0 10.0615 	0.0414486 	0 10.0639 	0.0427654 	0 10.0661 	0.0452257 	0 10.0676 	0.0453404 	0 10.0689 	0.0465442 	0 10.0702 	0.0477492 	0 10.0715 	0.0489552 	0 10.0727 	0.0499744 	0 10.0727 	0.0500413 	0 10.0728 	0.0501081 	0 10.0729 	0.0501749 	0 10.0729 	0.0502418 	0 10.073 	0.0502986 	0 10.0735 	0.0509328 	0 10.074 	0.0515605 	0 10.0745 	0.0521887 	0 10.075 	0.0528175 	0 10.0755 	0.0532817 	0 10.0754 	0.0535875 	0 10.075 	0.0537874 	0 10.0746 	0.0539874 	0 10.0743 	0.0541875 	0 10.0737 	0.054149 	0 10.0732 	0.054308 	0 10.0721 	0.0542983 	0 10.071 	0.0542885 	0 10.0699 	0.0542788 	0 10.0683 	0.0540001 	0 10.0679 	0.0541002 	0 10.0662 	0.0539863 	0 10.0645 	0.0538723 	0 10.0629 	0.0537583 	0 10.0603 	0.053359 	0 10.0602 	0.0534417 	0 10.0582 	0.0532755 	0 10.0561 	0.0531092 	0 10.054 	0.0529429 	0 10.0504 	0.0524801 	0 10.0509 	0.0525752 	0 10.0486 	0.0523969 	0 10.0462 	0.0522185 	0 10.0438 	0.0520402 	0 10.0391 	0.0515596 	0 10.0405 	0.0516961 	0 10.0378 	0.0515352 	0 10.0352 	0.0513742 	0 10.0326 	0.0512131 	0 10.0267 	0.0507402 	0 10.0291 	0.0509386 	0 10.0263 	0.0508296 	0 10.0235 	0.0507206 	0 10.0207 	0.0506115 	0 10.0137 	0.0501915 	0 10.0172 	0.0504868 	0 10.0142 	0.0504523 	0 10.0113 	0.0504178 	0 10.0084 	0.0503833 	0 10.0001 	0.0500262 	0 10.0048 	0.0504623 	0 10.0018 	0.0506243 	0 9.99886 	0.0507863 	0 9.9959 	0.0509483 	0 9.98635 	0.050832 	0 9.99247 	0.0515494 	0 9.98951 	0.0519272 	0 9.98655 	0.0523052 	0 9.9836 	0.0526832 	0 9.9728 	0.0527012 	0 9.98048 	0.0537145 	0 9.9778 	0.0547256 	0 9.97514 	0.0557368 	0 9.97248 	0.0567481 	0 9.96073 	0.0575096 	0 9.97049 	0.0591396 	9.07018e-22 9.96918 	0.060526 	6.81704e-21 9.96789 	0.0619125 	1.27254e-20 9.96661 	0.0632992 	1.8632e-20 9.95505 	0.0639424 	1.54277e-20 9.96687 	0.0650245 	1.13697e-19 9.96639 	0.0654119 	1.06046e-19 9.96592 	0.0657992 	9.84009e-20 9.96544 	0.0661866 	9.07608e-20 9.95381 	0.0657276 	-1.8393e-20 9.96603 	0.0654707 	-5.0171e-20 9.96558 	0.0647296 	-5.56531e-20 9.96514 	0.0639885 	-6.11307e-20 9.96469 	0.0632473 	-6.66036e-20 9.9528 	0.0622281 	-2.43122e-20 9.96456 	0.061382 	-2.16031e-20 9.96333 	0.0600352 	-1.48718e-20 9.9621 	0.0586884 	-8.14183e-21 9.96086 	0.0573414 	-1.41305e-21 9.94825 	0.0559208 	9.17343e-21 9.9595 	0.055167 	-4.8811e-21 9.95751 	0.0537387 	-2.6599e-20 9.95551 	0.0523102 	-4.83211e-20 9.95351 	0.0508815 	-7.00473e-20 9.94017 	0.0491679 	-1.0196e-19 9.95099 	0.0486885 	-1.52474e-19 9.94836 	0.0474192 	-1.3815e-19 9.94571 	0.0461496 	-1.23812e-19 9.94305 	0.0448796 	-1.0946e-19 9.92909 	0.043052 	-3.41587e-20 9.93945 	0.0427113 	5.11642e-20 9.93619 	0.0415479 	6.70544e-20 9.93292 	0.0403842 	8.29273e-20 9.92965 	0.0392201 	9.8783e-20 9.91514 	0.0373778 	4.24001e-20 9.92495 	0.0370228 	-7.31991e-20 9.92104 	0.0358913 	-8.04548e-20 9.91713 	0.0347595 	-8.76836e-20 9.9132 	0.0336273 	-9.48854e-20 9.8982 	0.0318472 	-2.8264e-22 9.90733 	0.0314563 	9.02643e-20 9.90275 	0.0303519 	7.94777e-20 9.89815 	0.0292471 	6.86646e-20 9.89355 	0.0281419 	5.7825e-20 9.87814 	0.0264604 	-3.00501e-20 9.8864 	0.0260385 	-1.04916e-19 9.88114 	0.0249556 	-1.30915e-19 9.87587 	0.0238723 	-1.56905e-19 9.87059 	0.0227886 	-1.82885e-19 9.85492 	0.0212002 	-1.53076e-19 9.86206 	0.0207666 	-1.88433e-19 9.85614 	0.0197119 	-1.73917e-19 9.8502 	0.0186567 	-1.59393e-19 9.84426 	0.017601 	-1.44862e-19 9.82856 	0.0160957 	-9.22774e-20 9.83425 	0.0156617 	-7.93111e-20 9.82768 	0.0146427 	-5.77418e-20 9.82111 	0.0136232 	-3.61755e-20 9.81453 	0.0126032 	-1.46124e-20 9.79916 	0.0111783 	3.82795e-21 9.80296 	0.0107291 	0 9.79579 	0.00974423 	0 9.78861 	0.00875878 	0 9.78142 	0.00777278 	0 9.76682 	0.00643593 	0 9.76824 	0.00593913 	-1.67889e-20 9.7605 	0.00498267 	-3.88593e-20 9.75274 	0.00402563 	-6.09327e-20 9.74497 	0.00306798 	-8.3009e-20 9.73167 	0.0018387 	-1.07433e-19 9.73015 	0.00125374 	-1.20439e-19 9.72187 	0.000320835 	-1.21085e-19 9.71357 	-0.000612724 	-1.21722e-19 9.70527 	-0.00154694 	-1.22351e-19 9.69385 	-0.00263891 	-1.16238e-19 9.68881 	-0.00335455 	-7.28626e-20 9.68002 	-0.00426802 	-3.90693e-20 9.67122 	-0.00518221 	-5.29236e-21 9.66241 	-0.00609711 	2.84683e-20 9.65348 	-0.00701774 	6.18865e-20 9.65333 	-0.00703752 	6.21225e-20 9.65306 	-0.00706345 	6.21267e-20 9.65279 	-0.00708939 	6.21309e-20 9.65253 	-0.00711532 	6.21351e-20 9.65226 	-0.0071412 	6.21393e-20 9.64318 	-0.00802049 	6.32341e-20 9.63408 	-0.00890055 	6.43254e-20 9.62497 	-0.00978139 	6.54133e-20 9.61584 	-0.010663 	6.64976e-20 9.60032 	-0.0118097 	6.86947e-20 9.59628 	-0.0124811 	5.44426e-20 9.58648 	-0.0133802 	4.01884e-20 9.57666 	-0.0142803 	2.59322e-20 9.56683 	-0.0151812 	1.16741e-20 9.5446 	-0.0165459 	-7.78653e-22 9.54554 	-0.0170446 	-1.10078e-20 9.53535 	-0.0179404 	-2.45616e-20 9.52514 	-0.0188371 	-3.81135e-20 9.51491 	-0.0197348 	-5.16634e-20 9.487 	-0.0212177 	-6.52257e-20 9.49234 	-0.0216111 	-6.70124e-20 9.48181 	-0.0225059 	-7.52235e-20 9.47125 	-0.0234018 	-8.34292e-20 9.46067 	-0.0242986 	-9.16296e-20 9.42793 	-0.0258265 	-1.10712e-19 9.43701 	-0.0261851 	-1.60428e-19 9.42616 	-0.0270822 	-1.49588e-19 9.41529 	-0.0279804 	-1.3877e-19 9.4044 	-0.0288796 	-1.27974e-19 9.3677 	-0.0303793 	-4.65977e-20 9.37985 	-0.0307756 	-3.05702e-20 9.36874 	-0.0316775 	-2.16148e-20 9.3576 	-0.0325806 	-1.26581e-20 9.34644 	-0.0334849 	-3.70008e-21 9.30666 	-0.0348842 	0 9.32123 	-0.0353828 	0 9.30988 	-0.0362902 	0 9.29852 	-0.0371989 	0 9.28712 	-0.0381087 	0 9.24507 	-0.0393413 	0 9.26146 	-0.0399978 	2.24513e-21 9.24991 	-0.0409112 	1.04826e-20 9.23834 	-0.0418259 	1.87188e-20 9.22675 	-0.0427418 	2.69536e-20 9.18317 	-0.043752 	4.68478e-20 9.20084 	-0.0446131 	1.77329e-19 9.18913 	-0.0455336 	1.81151e-19 9.17739 	-0.0464554 	1.84998e-19 9.16562 	-0.0473784 	1.88871e-19 9.1212 	-0.0481217 	4.71737e-20 9.13967 	-0.0492249 	2.52667e-20 9.12782 	-0.0501538 	1.76554e-20 9.11594 	-0.051084 	1.00425e-20 9.10263 	-0.0519946 	3.46651e-21 9.05934 	-0.0524587 	1.9088e-20 9.0755 	-0.0537939 	1.1944e-19 9.06625 	-0.0547718 	1.30976e-19 9.05426 	-0.0557126 	1.3302e-19 9.03759 	-0.056537 	1.16064e-19 8.99778 	-0.0567768 	4.56354e-21 9.01099 	-0.0583101 	-1.1372e-19 9.00469 	-0.0593942 	-1.49647e-19 8.99261 	-0.0603467 	-1.61304e-19 8.97331 	-0.0610347 	-1.46845e-19 8.93668 	-0.061084 	-6.95149e-20 8.94724 	-0.0627817 	-2.03822e-19 8.94334 	-0.0640136 	-2.54752e-19 8.9312 	-0.0649809 	-2.58231e-19 8.90991 	-0.0654976 	-1.98836e-19 8.87617 	-0.0653992 	-5.36999e-20 8.88436 	-0.0672455 	-2.84556e-20 8.8824 	-0.0686637 	-1.17372e-20 8.87023 	-0.0696499 	-3.60854e-21 8.8475 	-0.0699665 	0 8.81637 	-0.0697479 	0 8.82248 	-0.0717176 	0 8.82206 	-0.0733446 	0 8.80987 	-0.074346 	0 8.78618 	-0.0744327 	2.59162e-21 8.75739 	-0.0741131 	6.33372e-21 8.76164 	-0.0761603 	2.80063e-21 8.76243 	-0.0779955 	0 8.75023 	-0.0790119 	0 8.72598 	-0.0788715 	3.12038e-21 8.6993 	-0.0784981 	6.86853e-21 8.70192 	-0.0806226 	3.3363e-21 8.70365 	-0.0826894 	3.98973e-22 8.69146 	-0.0837307 	7.63679e-21 8.66697 	-0.0833611 	2.82557e-20 8.6422 	-0.0829566 	4.92039e-20 8.64339 	-0.0851707 	1.92306e-19 8.64451 	-0.0873872 	3.3541e-19 8.63235 	-0.0883841 	3.36061e-19 8.60924 	-0.0879389 	1.93049e-19 8.58615 	-0.0874935 	5.00336e-20 8.58612 	-0.0897628 	2.94771e-20 8.58601 	-0.0920344 	8.9232e-21 8.57444 	-0.0930083 	9.84051e-22 8.55282 	-0.0925483 	4.57833e-21 8.53121 	-0.0920879 	8.17254e-21 8.53012 	-0.0943864 	4.80523e-21 8.52896 	-0.0966871 	1.43939e-21 8.51801 	-0.0976428 	-9.65301e-22 8.49769 	-0.0972017 	-5.23189e-21 8.47738 	-0.0967604 	-9.49797e-21 8.47539 	-0.0990835 	-5.91136e-20 8.47332 	-0.101409 	-1.08736e-19 8.46302 	-0.102352 	-1.11571e-19 8.44385 	-0.101944 	-6.63276e-20 8.42469 	-0.101536 	-2.10825e-20 8.42191 	-0.103872 	9.09709e-20 8.41906 	-0.106209 	2.03015e-19 8.40941 	-0.107142 	2.14627e-19 8.39125 	-0.106782 	1.20947e-19 8.3731 	-0.106422 	2.72635e-20 8.36964 	-0.108757 	1.40443e-20 8.3661 	-0.111094 	8.1908e-22 8.35711 	-0.11202 	-5.70269e-21 8.33986 	-0.111724 	-3.43707e-22 8.3226 	-0.111429 	5.01566e-21 8.31854 	-0.11376 	-1.72371e-21 8.31398 	-0.115966 	-9.0543e-21 8.30506 	-0.116867 	-2.23731e-20 8.28961 	-0.116798 	-7.32048e-20 8.27316 	-0.116578 	-1.29838e-19 8.26856 	-0.118909 	-2.77372e-19 8.26281 	-0.120875 	-3.79142e-19 8.25399 	-0.12182 	-3.53464e-19 8.24048 	-0.122029 	-2.30509e-19 8.22473 	-0.121887 	-6.11071e-20 8.21966 	-0.124223 	7.96965e-20 8.21294 	-0.125962 	1.56454e-19 8.20421 	-0.126952 	1.52959e-19 8.19239 	-0.127434 	1.02187e-19 8.17728 	-0.127371 	6.19675e-22 8.17177 	-0.129714 	-1.00014e-19 8.16429 	-0.131238 	-1.43405e-19 8.15563 	-0.132276 	-1.5289e-19 8.14529 	-0.133028 	-1.351e-19 8.13073 	-0.133045 	-4.76894e-20 8.12485 	-0.1354 	-3.54186e-20 8.11677 	-0.13672 	-2.32883e-20 8.10816 	-0.137808 	-1.11917e-20 8.09911 	-0.138823 	1.72316e-21 8.08504 	-0.138917 	2.4824e-20 8.07878 	-0.141274 	-6.77415e-23 8.07026 	-0.142413 	-6.53448e-21 8.06169 	-0.143552 	-1.30028e-20 8.05308 	-0.144693 	-1.94726e-20 8.04014 	-0.145003 	-5.92899e-21 8.03321 	-0.147141 	-2.27429e-20 8.02471 	-0.148336 	-2.98167e-20 8.01617 	-0.149532 	-3.68956e-20 8.00758 	-0.150729 	-4.39794e-20 7.99597 	-0.151328 	-6.1971e-20 7.98848 	-0.153261 	9.61133e-21 7.97999 	-0.154512 	1.08202e-20 7.97145 	-0.155764 	1.19965e-20 7.96287 	-0.157016 	1.31401e-20 7.95245 	-0.157892 	-2.91397e-20 7.94454 	-0.159627 	1.04658e-20 7.93605 	-0.160932 	1.22346e-20 7.92752 	-0.162238 	1.39732e-20 7.91894 	-0.163545 	1.56815e-20 7.90957 	-0.164691 	1.78721e-21 7.90341 	-0.165898 	-2.38745e-22 7.89701 	-0.166923 	-1.96994e-22 7.89059 	-0.167947 	-1.55252e-22 7.88415 	-0.168973 	-1.13521e-22 7.87801 	-0.169944 	-7.40262e-23 7.87573 	-0.170291 	-5.84996e-23 7.87345 	-0.170638 	-4.29719e-23 7.87116 	-0.170986 	-2.74429e-23 7.86887 	-0.171333 	-1.19127e-23 7.86687 	-0.171621 	0 7.85799 	-0.173094 	0 7.84915 	-0.174514 	0 7.84026 	-0.175935 	0 7.83131 	-0.177357 	0 7.82374 	-0.178488 	0 7.81442 	-0.180233 	0 7.80552 	-0.181719 	0 7.79657 	-0.183206 	0 7.78755 	-0.184693 	0 7.78104 	-0.185666 	0 7.77128 	-0.187682 	0 7.76229 	-0.189233 	0 7.75325 	-0.190785 	0 7.74414 	-0.192338 	0 7.73864 	-0.193153 	0 7.72843 	-0.195431 	0 7.71935 	-0.197048 	0 7.71021 	-0.198664 	0 7.70121 	-0.20024 	0 7.69646 	-0.200951 	0 7.68604 	-0.203369 	0 7.67662 	-0.205176 	0 7.66735 	-0.206862 	0 7.65938 	-0.208276 	0 7.65439 	-0.209083 	0 7.6439 	-0.211553 	0 7.63399 	-0.213642 	-5.39985e-21 7.62459 	-0.215397 	-1.55142e-20 7.61759 	-0.216656 	-2.56519e-20 7.61234 	-0.217556 	-3.58074e-20 7.60177 	-0.22008 	-2.4435e-20 7.59138 	-0.222448 	-1.53078e-20 7.58181 	-0.224274 	-1.40437e-20 7.57573 	-0.225386 	-2.26275e-20 7.57019 	-0.226381 	-3.28338e-20 7.55953 	-0.228964 	-2.1352e-20 7.54877 	-0.231547 	-9.86329e-21 7.53948 	-0.233398 	0 7.53368 	-0.234486 	0 7.52783 	-0.235574 	0 7.51705 	-0.23822 	0 7.50616 	-0.240868 	0 7.49747 	-0.242781 	-2.76112e-21 7.49133 	-0.243951 	-7.67071e-21 7.48514 	-0.245121 	-1.25792e-20 7.4742 	-0.247822 	-4.8489e-20 7.46317 	-0.250524 	-8.43946e-20 7.45503 	-0.252506 	-8.83532e-20 7.44854 	-0.253765 	-7.06543e-20 7.442 	-0.255024 	-5.2945e-20 7.4309 	-0.257789 	-2.57088e-20 7.41991 	-0.260511 	-6.71699e-22 7.41222 	-0.262527 	-1.1124e-20 7.40522 	-0.263977 	-3.38981e-20 7.39829 	-0.265334 	-5.87136e-20 7.38699 	-0.268179 	-7.26449e-20 7.37691 	-0.270737 	-8.07473e-20 7.36891 	-0.272833 	-7.94344e-20 7.36121 	-0.27461 	-6.24316e-20 7.35386 	-0.276046 	-2.86918e-20 7.34233 	-0.278949 	-2.51022e-20 7.3331 	-0.281321 	-1.75054e-20 7.32475 	-0.283482 	-8.31876e-21 7.31638 	-0.285581 	0 7.30858 	-0.287086 	0 7.29699 	-0.289985 	0 7.28835 	-0.292218 	0 7.27963 	-0.294451 	0 7.27083 	-0.296684 	0 7.26239 	-0.298482 	0 7.25162 	-0.301206 	0 7.24259 	-0.303524 	0 7.23347 	-0.305843 	0 7.22428 	-0.308161 	0 7.21514 	-0.310316 	-4.50647e-21 7.20878 	-0.311921 	3.59881e-23 7.20306 	-0.313369 	9.30995e-23 7.19731 	-0.314817 	1.50231e-22 7.19153 	-0.316265 	2.07384e-22 7.18602 	-0.317638 	2.61631e-22 7.18204 	-0.31859 	2.93485e-22 7.17804 	-0.319542 	3.25329e-22 7.17404 	-0.320493 	3.57163e-22 7.17001 	-0.321445 	3.88987e-22 7.16663 	-0.322306 	4.18193e-22 7.1562 	-0.324847 	-8.67645e-21 7.14596 	-0.327287 	-1.17674e-20 7.13563 	-0.329727 	-1.48839e-20 7.12521 	-0.332167 	-1.8026e-20 7.11697 	-0.334296 	3.04958e-21 7.1054 	-0.337161 	2.96377e-21 7.09467 	-0.339673 	1.06512e-20 7.08385 	-0.342186 	1.8332e-20 7.07294 	-0.344698 	2.60061e-20 7.06584 	-0.346683 	3.39575e-20 7.05331 	-0.349801 	2.45003e-20 7.04184 	-0.352467 	2.1638e-20 7.0305 	-0.355044 	2.00523e-20 7.02062 	-0.357403 	1.85925e-20 7.01307 	-0.359427 	1.73353e-20 7.00006 	-0.36259 	1.54169e-20 6.98735 	-0.365582 	1.34189e-20 6.97545 	-0.3682 	1.12674e-20 6.96671 	-0.37036 	1.32696e-20 6.95855 	-0.372427 	1.61228e-20 6.94503 	-0.375625 	1.08816e-20 6.93138 	-0.378822 	5.62823e-21 6.91968 	-0.381449 	4.47155e-21 6.91098 	-0.383554 	7.59656e-21 6.9022 	-0.385659 	1.07144e-20 6.88814 	-0.388888 	5.14448e-21 6.87395 	-0.392116 	-4.37802e-22 6.86269 	-0.394828 	-3.17362e-21 6.85333 	-0.396952 	-7.47077e-21 6.84388 	-0.399077 	-1.17718e-20 6.82925 	-0.402318 	-8.30734e-21 6.81531 	-0.40544 	-4.84274e-21 6.80416 	-0.408141 	-1.36664e-21 6.79364 	-0.410504 	0 6.7835 	-0.412649 	0 6.76828 	-0.415906 	0 6.75553 	-0.418779 	-2.76386e-21 6.74373 	-0.421497 	-6.65526e-21 6.73182 	-0.424214 	-1.05497e-20 6.72095 	-0.426381 	-1.44628e-20 6.70588 	-0.429533 	-1.22107e-20 6.69352 	-0.432254 	-1.30267e-20 6.68105 	-0.434975 	-1.38491e-20 6.66847 	-0.437695 	-1.46782e-20 6.65616 	-0.440223 	-1.44722e-20 6.64867 	-0.441741 	-2.23159e-20 6.64209 	-0.44311 	-2.09593e-20 6.63549 	-0.444479 	-1.95978e-20 6.62885 	-0.445848 	-1.82313e-20 6.62247 	-0.44716 	-1.69176e-20 6.6157 	-0.448512 	-1.46922e-20 6.60891 	-0.449865 	-1.24583e-20 6.60208 	-0.451217 	-1.0216e-20 6.59523 	-0.45257 	-7.96531e-21 6.58888 	-0.453793 	-1.3229e-20 6.57484 	-0.456661 	-1.34002e-20 6.56066 	-0.45934 	-1.25836e-20 6.54637 	-0.462019 	-1.17603e-20 6.53197 	-0.464698 	-1.09304e-20 6.51906 	-0.466973 	-1.55479e-21 6.50428 	-0.470135 	-8.51824e-21 6.4893 	-0.472792 	-3.4935e-21 6.47421 	-0.475398 	2.77137e-21 6.4598 	-0.47779 	7.6921e-21 6.44636 	-0.479893 	1.07887e-20 6.43079 	-0.48296 	3.07516e-20 6.41508 	-0.485955 	4.87761e-20 6.39921 	-0.488448 	5.28811e-20 6.38505 	-0.490451 	2.15724e-20 6.3708 	-0.492455 	-9.76474e-21 6.35443 	-0.495425 	-6.91999e-21 6.33794 	-0.498395 	-4.09618e-21 6.32245 	-0.500865 	-3.21778e-21 6.30744 	-0.502759 	-7.04311e-21 6.29232 	-0.504654 	-1.08777e-20 6.27511 	-0.50752 	-9.4633e-21 6.25828 	-0.510241 	-5.6633e-21 6.24266 	-0.512575 	4.56005e-21 6.22686 	-0.514634 	1.26469e-20 6.21087 	-0.516371 	1.82365e-20 6.19282 	-0.519085 	1.41281e-20 6.17634 	-0.521305 	2.01519e-20 6.15989 	-0.523483 	2.70552e-20 6.14334 	-0.525661 	3.39737e-20 6.12658 	-0.5275 	4.43867e-20 6.11535 	-0.52896 	4.66597e-20 6.10485 	-0.530188 	4.33121e-20 6.0943 	-0.531415 	3.99627e-20 6.08371 	-0.532644 	3.66116e-20 6.07354 	-0.533818 	3.34039e-20 6.06706 	-0.534615 	3.17963e-20 6.06056 	-0.535412 	3.01893e-20 6.05404 	-0.536208 	2.8583e-20 6.04751 	-0.537005 	2.69775e-20 6.041 	-0.537654 	2.41088e-20 6.02445 	-0.5397 	1.19e-20 6.00731 	-0.541521 	7.27672e-21 5.99007 	-0.543343 	2.62807e-21 5.97273 	-0.545165 	-2.04622e-21 5.95545 	-0.546422 	4.01031e-21 5.93906 	-0.548645 	2.52055e-20 5.92153 	-0.550385 	3.16655e-20 5.90354 	-0.551953 	3.28402e-20 5.88558 	-0.553131 	1.88706e-20 5.86761 	-0.554053 	-5.08507e-21 5.85049 	-0.555995 	-1.75587e-21 5.83325 	-0.557938 	1.5582e-21 5.81494 	-0.559178 	2.28453e-21 5.79644 	-0.559809 	9.9658e-21 5.77786 	-0.560441 	1.76558e-20 5.76007 	-0.562097 	1.21624e-20 5.74217 	-0.563749 	6.77219e-21 5.72452 	-0.564723 	1.41051e-20 5.70573 	-0.565189 	2.38534e-20 5.68659 	-0.565518 	3.42682e-20 5.66816 	-0.566873 	-8.09251e-21 5.64996 	-0.567708 	-1.31756e-20 5.63181 	-0.568353 	-4.48452e-21 5.61359 	-0.568997 	4.25147e-21 5.59432 	-0.569158 	4.12696e-20 5.58071 	-0.569768 	3.84819e-20 5.56735 	-0.569987 	3.72457e-20 5.55395 	-0.570206 	3.60152e-20 5.54052 	-0.570425 	3.47905e-20 5.52749 	-0.570637 	3.36106e-20 5.52247 	-0.570739 	3.37187e-20 5.51745 	-0.57084 	3.38284e-20 5.51242 	-0.570942 	3.39397e-20 5.50739 	-0.571044 	3.40525e-20 5.5026 	-0.570982 	2.49579e-20 5.48486 	-0.571172 	1.97609e-20 5.46686 	-0.571169 	1.33426e-20 5.4488 	-0.571166 	6.92128e-21 5.43069 	-0.571164 	4.96952e-22 5.4137 	-0.570373 	0 5.39628 	-0.570656 	0 5.3783 	-0.570468 	-5.52358e-22 5.36007 	-0.570078 	-1.34197e-21 5.34267 	-0.569118 	-2.13309e-21 5.32571 	-0.567853 	-2.92526e-21 5.30819 	-0.567731 	-1.80623e-21 5.29062 	-0.567609 	-6.86703e-22 5.27309 	-0.566712 	3.60745e-21 5.25617 	-0.565043 	1.15888e-20 5.23924 	-0.563374 	1.95725e-20 5.22173 	-0.562843 	5.277e-20 5.20437 	-0.562196 	8.07898e-20 5.18824 	-0.560761 	7.39555e-20 5.17172 	-0.558936 	5.1305e-20 5.15494 	-0.556855 	1.82666e-20 5.13758 	-0.555903 	-5.59567e-23 5.12148 	-0.554158 	-4.93038e-21 5.10557 	-0.552299 	-7.86362e-21 5.08967 	-0.550439 	-1.07975e-20 5.07342 	-0.548239 	-8.32341e-21 5.06484 	-0.547416 	-1.33489e-20 5.05682 	-0.54625 	-1.04282e-20 5.0488 	-0.545084 	-7.50841e-21 5.04079 	-0.543918 	-4.58967e-21 5.03276 	-0.542749 	-1.66406e-21 5.0255 	-0.541679 	1.07152e-21 5.01825 	-0.54061 	3.80621e-21 5.011 	-0.53954 	6.53999e-21 5.00375 	-0.53847 	9.27287e-21 4.99708 	-0.537088 	6.48268e-21 4.98267 	-0.534788 	1.22627e-20 4.96809 	-0.532198 	1.47572e-20 4.95354 	-0.529608 	1.72468e-20 4.9391 	-0.526974 	1.89541e-20 4.92619 	-0.52351 	5.93441e-21 4.91248 	-0.521136 	3.17483e-21 4.89857 	-0.518454 	1.69159e-21 4.8845 	-0.51551 	1.28932e-21 4.87159 	-0.511942 	1.74384e-21 4.85912 	-0.508165 	2.48525e-21 4.84597 	-0.505438 	1.30629e-20 4.83286 	-0.502711 	2.36411e-20 4.82014 	-0.499329 	2.2347e-20 4.80809 	-0.495281 	9.09008e-21 4.79611 	-0.491235 	-4.16213e-21 4.78358 	-0.488193 	-1.19209e-20 4.77126 	-0.485065 	-1.85331e-20 4.76012 	-0.481292 	-1.67031e-20 4.74876 	-0.477196 	-1.161e-20 4.73733 	-0.47293 	-4.78297e-21 4.72547 	-0.469619 	-2.836e-21 4.7146 	-0.465781 	-1.28834e-21 4.70405 	-0.4618 	1.50087e-22 4.69358 	-0.457821 	1.58746e-21 4.68285 	-0.453498 	2.65671e-21 4.67339 	-0.45021 	2.57094e-21 4.66459 	-0.446581 	1.69284e-21 4.65585 	-0.442952 	8.14307e-22 4.64718 	-0.439325 	-6.46528e-23 4.63802 	-0.43546 	-1.00201e-21 4.637 	-0.435007 	-1.12562e-21 4.63598 	-0.434554 	-1.24922e-21 4.63496 	-0.434102 	-1.37282e-21 4.63394 	-0.433649 	-1.49641e-21 4.63298 	-0.43316 