# vtk DataFile Version 2.0
track0
ASCII
DATASET POLYDATA
POINTS 12080 float
-0.0205 0.001 1e-05
-0.02052 0.000999985 1e-05
-0.02054 0.000999974 1e-05
-0.02056 0.000999965 1e-05
-0.02058 0.000999959 1e-05
-0.0206 0.000999956 1e-05
-0.0205 0.00367778 1e-05
-0.02052 0.00367778 1e-05
-0.02054 0.00367777 1e-05
-0.02056 0.00367777 1e-05
-0.02058 0.00367777 1e-05
-0.0206 0.00367777 1e-05
-0.0205 0.00635556 1e-05
-0.02052 0.00635555 1e-05
-0.02054 0.00635555 1e-05
-0.02056 0.00635555 1e-05
-0.02058 0.00635555 1e-05
-0.0206 0.00635555 1e-05
-0.0205 0.00903333 1e-05
-0.02052 0.00903333 1e-05
-0.02054 0.00903333 1e-05
-0.02056 0.00903333 1e-05
-0.02058 0.00903333 1e-05
-0.0206 0.00903333 1e-05
-0.0205 0.0117111 1e-05
-0.02052 0.0117111 1e-05
-0.02054 0.0117111 1e-05
-0.02056 0.0117111 1e-05
-0.02058 0.0117111 1e-05
-0.0206 0.0117111 1e-05
-0.0205 0.0143889 1e-05
-0.02052 0.0143889 1e-05
-0.02054 0.0143889 1e-05
-0.02056 0.0143889 1e-05
-0.02058 0.0143889 1e-05
-0.0206 0.0143889 1e-05
-0.0205 0.0170667 1e-05
-0.02052 0.0170667 1e-05
-0.02054 0.0170667 1e-05
-0.02056 0.0170667 1e-05
-0.02058 0.0170667 1e-05
-0.0206 0.0170667 1e-05
-0.0205 0.0197444 1e-05
-0.02052 0.0197444 1e-05
-0.02054 0.0197444 1e-05
-0.02056 0.0197444 1e-05
-0.02058 0.0197444 1e-05
-0.0206 0.0197444 1e-05
-0.0205 0.0224222 1e-05
-0.02052 0.0224222 1e-05
-0.02054 0.0224222 1e-05
-0.02056 0.0224222 1e-05
-0.02058 0.0224222 1e-05
-0.0206 0.0224222 1e-05
-0.0205 0.0251 1e-05
-0.02052 0.0250998 1e-05
-0.02054 0.0250997 1e-05
-0.02056 0.0250995 1e-05
-0.02058 0.0250995 1e-05
-0.0206 0.0250994 1e-05
-0.0205 0.001 1e-05
-0.0202034 0.00100022 1e-05
-0.0199069 0.00100067 1e-05
-0.0196103 0.00100133 1e-05
-0.0193137 0.00100219 1e-05
-0.0190172 0.00100326 1e-05
-0.0187132 0.00100467 1e-05
-0.0184093 0.00100589 1e-05
-0.0181054 0.00100711 1e-05
-0.0178015 0.00100833 1e-05
-0.0174976 0.00100954 1e-05
-0.0172058 0.00101084 1e-05
-0.016914 0.00101194 1e-05
-0.0166222 0.00101304 1e-05
-0.0163305 0.00101414 1e-05
-0.0160387 0.00101523 1e-05
-0.0157586 0.00101637 1e-05
-0.0154784 0.00101745 1e-05
-0.0151983 0.00101857 1e-05
-0.0149182 0.00101973 1e-05
-0.0146381 0.00102092 1e-05
-0.0143754 0.0010221 1e-05
-0.0141128 0.00102328 1e-05
-0.0138501 0.00102449 1e-05
-0.0135874 0.00102574 1e-05
-0.0133657 0.00102682 1e-05
-0.0133512 0.00102689 1e-05
-0.0133368 0.00102696 1e-05
-0.0133223 0.00102703 1e-05
-0.0133079 0.0010271 1e-05
-0.0132934 0.00102718 1e-05
-0.0130353 0.00102847 1e-05
-0.0127771 0.00102977 1e-05
-0.0125189 0.00103109 1e-05
-0.0122607 0.00103243 1e-05
-0.0120025 0.00103378 1e-05
-0.0117547 0.00103509 1e-05
-0.0115068 0.00103641 1e-05
-0.0112589 0.00103774 1e-05
-0.0110111 0.00103906 1e-05
-0.0107632 0.0010404 1e-05
-0.0105252 0.00104168 1e-05
-0.0102873 0.00104296 1e-05
-0.0100493 0.00104424 1e-05
-0.00981133 0.00104553 1e-05
-0.00957337 0.00104681 1e-05
-0.00934491 0.00104803 1e-05
-0.00911645 0.00104926 1e-05
-0.00888799 0.00105049 1e-05
-0.00865954 0.00105171 1e-05
-0.00843108 0.00105293 1e-05
-0.00821175 0.00105409 1e-05
-0.00799242 0.00105526 1e-05
-0.00777309 0.00105642 1e-05
-0.00755376 0.00105758 1e-05
-0.00733443 0.00105873 1e-05
-0.00712387 0.00105983 1e-05
-0.0069133 0.00106093 1e-05
-0.00670273 0.00106203 1e-05
-0.00649216 0.00106313 1e-05
-0.0062816 0.00106422 1e-05
-0.00607944 0.00106526 1e-05
-0.00587729 0.0010663 1e-05
-0.00567514 0.00106733 1e-05
-0.00547298 0.00106837 1e-05
-0.00527083 0.0010694 1e-05
-0.00507675 0.00107038 1e-05
-0.00488267 0.00107137 1e-05
-0.0046886 0.00107235 1e-05
-0.00449452 0.00107333 1e-05
-0.00430044 0.00107431 1e-05
-0.00411412 0.00107525 1e-05
-0.0039278 0.00107619 1e-05
-0.00374147 0.00107713 1e-05
-0.00355515 0.00107807 1e-05
-0.00336883 0.001079 1e-05
-0.00318995 0.0010799 1e-05
-0.00301107 0.0010808 1e-05
-0.00283219 0.00108171 1e-05
-0.00265331 0.00108261 1e-05
-0.00247443 0.00108353 1e-05
-0.0023027 0.0010844 1e-05
-0.00213097 0.00108529 1e-05
-0.00195924 0.00108618 1e-05
-0.0017875 0.00108708 1e-05
-0.00161577 0.00108798 1e-05
-0.0014509 0.00108886 1e-05
-0.00128603 0.00108974 1e-05
-0.00112116 0.00109065 1e-05
-0.00095629 0.00109157 1e-05
-0.000791418 0.00109251 1e-05
-0.000633135 0.00109342 1e-05
-0.000474851 0.00109436 1e-05
-0.000316568 0.00109532 1e-05
-0.000158285 0.0010963 1e-05
0 0.00109731 1e-05
0.000105677 0.00109799 1e-05
0.000211355 0.00109868 1e-05
0.000317032 0.00109937 1e-05
0.00042271 0.00110007 1e-05
0.000528387 0.00110077 1e-05
0.000634886 0.00110147 1e-05
0.000741385 0.00110217 1e-05
0.000847885 0.00110286 1e-05
0.000954384 0.00110355 1e-05
0.00106088 0.00110422 1e-05
0.00116821 0.0011049 1e-05
0.00127554 0.00110556 1e-05
0.00138286 0.0011062 1e-05
0.00149019 0.00110684 1e-05
0.00159752 0.00110745 1e-05
0.00170568 0.00110806 1e-05
0.00181384 0.00110866 1e-05
0.001922 0.00110924 1e-05
0.00203016 0.00110981 1e-05
0.00213833 0.00111037 1e-05
0.00224733 0.0011109 1e-05
0.00235633 0.00111144 1e-05
0.00246533 0.00111196 1e-05
0.00257434 0.00111246 1e-05
0.00268334 0.00111296 1e-05
0.00279319 0.00111343 1e-05
0.00290304 0.0011139 1e-05
0.00301289 0.00111436 1e-05
0.00312274 0.00111481 1e-05
0.00323259 0.00111524 1e-05
0.00334329 0.00111566 1e-05
0.003454 0.00111607 1e-05
0.0035647 0.00111647 1e-05
0.0036754 0.00111686 1e-05
0.00378611 0.00111724 1e-05
0.00389767 0.0011176 1e-05
0.00400924 0.00111795 1e-05
0.0041208 0.00111829 1e-05
0.00423237 0.00111862 1e-05
0.00434393 0.00111894 1e-05
0.00445636 0.00111924 1e-05
0.00456879 0.00111954 1e-05
0.00468123 0.00111982 1e-05
0.00479366 0.00112009 1e-05
0.00490609 0.00112035 1e-05
0.0050194 0.0011206 1e-05
0.0051327 0.00112083 1e-05
0.00524601 0.00112106 1e-05
0.00535932 0.00112128 1e-05
0.00547262 0.00112148 1e-05
0.00558681 0.00112167 1e-05
0.005701 0.00112185 1e-05
0.00581518 0.00112202 1e-05
0.00592937 0.00112218 1e-05
0.00604356 0.00112232 1e-05
0.00615863 0.00112245 1e-05
0.00627371 0.00112258 1e-05
0.00638878 0.00112269 1e-05
0.00650386 0.0011228 1e-05
0.00661893 0.00112289 1e-05
0.0067349 0.00112297 1e-05
0.00685087 0.00112304 1e-05
0.00696684 0.0011231 1e-05
0.00708281 0.00112314 1e-05
0.00719878 0.00112318 1e-05
0.00731565 0.0011232 1e-05
0.00743252 0.00112322 1e-05
0.00754939 0.00112322 1e-05
0.00766626 0.00112321 1e-05
0.00778313 0.00112319 1e-05
0.00790091 0.00112316 1e-05
0.00801869 0.00112312 1e-05
0.00813647 0.00112307 1e-05
0.00825425 0.00112301 1e-05
0.00837203 0.00112293 1e-05
0.00837546 0.00112293 1e-05
0.00837888 0.00112293 1e-05
0.0083823 0.00112292 1e-05
0.00838573 0.00112292 1e-05
0.00838914 0.00112292 1e-05
0.00850442 0.00112283 1e-05
0.00861969 0.00112274 1e-05
0.00873496 0.00112263 1e-05
0.00885024 0.00112251 1e-05
0.00896551 0.00112239 1e-05
0.00908513 0.00112224 1e-05
0.00920475 0.00112208 1e-05
0.00932437 0.00112192 1e-05
0.00944398 0.00112174 1e-05
0.0095636 0.00112155 1e-05
0.00968415 0.00112134 1e-05
0.0098047 0.00112112 1e-05
0.00992525 0.0011209 1e-05
0.0100458 0.00112066 1e-05
0.0101663 0.00112041 1e-05
0.0102878 0.00112014 1e-05
0.0104093 0.00111986 1e-05
0.0105308 0.00111957 1e-05
0.0106523 0.00111927 1e-05
0.0107738 0.00111896 1e-05
0.0108962 0.00111863 1e-05
0.0110186 0.00111829 1e-05
0.0111411 0.00111793 1e-05
0.0112635 0.00111757 1e-05
0.0113859 0.00111719 1e-05
0.0115093 0.00111679 1e-05
0.0116327 0.00111639 1e-05
0.0117561 0.00111597 1e-05
0.0118795 0.00111554 1e-05
0.0120028 0.0011151 1e-05
0.0121272 0.00111463 1e-05
0.0122515 0.00111416 1e-05
0.0123759 0.00111368 1e-05
0.0125002 0.00111318 1e-05
0.0126245 0.00111267 1e-05
0.0127498 0.00111214 1e-05
0.0128752 0.0011116 1e-05
0.0130005 0.00111104 1e-05
0.0131258 0.00111047 1e-05
0.0132511 0.00110989 1e-05
0.0133774 0.00110929 1e-05
0.0135036 0.00110868 1e-05
0.0136299 0.00110805 1e-05
0.0137562 0.00110741 1e-05
0.0138825 0.00110676 1e-05
0.0140098 0.00110609 1e-05
0.014137 0.00110541 1e-05
0.0142643 0.00110471 1e-05
0.0143915 0.00110399 1e-05
0.0145188 0.00110327 1e-05
0.0146471 0.00110252 1e-05
0.0147753 0.00110176 1e-05
0.0149036 0.00110099 1e-05
0.0150318 0.0011002 1e-05
0.0151601 0.0010994 1e-05
0.0152893 0.00109858 1e-05
0.0154186 0.00109774 1e-05
0.0155478 0.00109689 1e-05
0.0156771 0.00109602 1e-05
0.0158063 0.00109515 1e-05
0.0159366 0.00109426 1e-05
0.0160668 0.00109334 1e-05
0.0161971 0.00109241 1e-05
0.0163273 0.00109146 1e-05
0.0164576 0.0010905 1e-05
0.0165889 0.00108954 1e-05
0.0167201 0.00108854 1e-05
0.0168514 0.00108753 1e-05
0.0169827 0.0010865 1e-05
0.0171139 0.00108546 1e-05
0.0172462 0.00108441 1e-05
0.0173785 0.00108334 1e-05
0.0175108 0.00108224 1e-05
0.0176431 0.00108112 1e-05
0.0177754 0.00108 1e-05
0.0179087 0.00107887 1e-05
0.018042 0.00107771 1e-05
0.0181753 0.00107653 1e-05
0.0183087 0.00107532 1e-05
0.018442 0.00107412 1e-05
0.0185763 0.00107291 1e-05
0.0187107 0.00107166 1e-05
0.018845 0.00107038 1e-05
0.0189794 0.00106909 1e-05
0.0191137 0.0010678 1e-05
0.0192491 0.0010665 1e-05
0.0193845 0.00106516 1e-05
0.0195199 0.0010638 1e-05
0.0196553 0.00106241 1e-05
0.0197907 0.00106103 1e-05
0.0199272 0.00105964 1e-05
0.0200636 0.00105821 1e-05
0.0202001 0.00105675 1e-05
0.0203365 0.00105527 1e-05
0.020473 0.00105379 1e-05
0.0206105 0.00105231 1e-05
0.020748 0.00105078 1e-05
0.0208855 0.00104922 1e-05
0.021023 0.00104765 1e-05
0.0211606 0.00104608 1e-05
0.0212991 0.00104449 1e-05
0.0214377 0.00104287 1e-05
0.0215763 0.00104122 1e-05
0.0217149 0.00103954 1e-05
0.0218535 0.00103787 1e-05
0.0219931 0.00103618 1e-05
0.0221328 0.00103446 1e-05
0.0222724 0.0010327 1e-05
0.0224121 0.00103092 1e-05
0.0225517 0.00102914 1e-05
0.0226925 0.00102735 1e-05
0.0228332 0.00102552 1e-05
0.022974 0.00102366 1e-05
0.0231147 0.00102177 1e-05
0.0232555 0.00101988 1e-05
0.0233973 0.00101798 1e-05
0.0235391 0.00101604 1e-05
0.023681 0.00101407 1e-05
0.0238228 0.00101207 1e-05
0.0239647 0.00101007 1e-05
0.0241076 0.00100806 1e-05
0.0242505 0.001006 1e-05
0.0243935 0.00100391 1e-05
0.0245364 0.0010018 1e-05
0.0246794 0.000999685 1e-05
0.0248234 0.00099755 1e-05
0.0249675 0.000995373 1e-05
0.0251115 0.000993163 1e-05
0.0252556 0.000990934 1e-05
[...]
POINT_DATA 12080
 FIELD attributes 2
p 1 12080 float
-5.6697 -5.66639 -5.66308 -5.65977 -5.65647 -5.65316
-5.82311 -5.82309 -5.82307 -5.82304 -5.82302 -5.823
-5.9977 -5.99757 -5.99745 -5.99733 -5.9972 -5.9971
-6.09163 -6.09158 -6.09152 -6.09147 -6.09142 -6.09136
-6.13728 -6.13717 -6.13705 -6.13694 -6.13683 -6.13671
-6.14425 -6.14409 -6.14393 -6.14377 -6.14361 -6.14345
-6.11762 -6.11755 -6.11748 -6.11741 -6.11734 -6.11727
-6.04822 -6.04818 -6.04814 -6.0481 -6.04806 -6.04802
-5.92707 -5.92708 -5.92709 -5.92709 -5.9271 -5.92711
-3.71459 -3.73392 -3.75311 -3.77217 -3.7911 -3.8099
-5.6697 -5.66902 -5.66544 -5.66178 -5.65805 -5.64976 -5.66364 -5.67863 -5.69362 -5.70861 -5.73303 -5.75475 -5.78462 -5.8145 -5.84438 -5.87706 -5.89264 -5.91424 -5.93586 -5.95747 -5.9807 -5.9994 -6.0201 -6.04081 -6.06152 -6.07901 -6.08015 -6.08128 -6.08242 -6.08355 -6.08468 -6.10616 -6.12763 -6.14911 -6.17058 -6.19178 -6.2103 -6.22861 -6.24693 -6.26525 -6.28299 -6.29829 -6.3133 -6.32831 -6.34332 -6.35777 -6.37111 -6.38419 -6.39727 -6.41034 -6.42296 -6.4351 -6.44694 -6.45878 -6.47063 -6.48203 -6.49307 -6.50375 -6.51444 -6.52512 -6.53535 -6.54531 -6.55489 -6.56448 -6.57407 -6.58326 -6.59225 -6.60079 -6.60934 -6.61788 -6.62608 -6.63411 -6.64171 -6.64931 -6.65692 -6.66436 -6.67157 -6.67804 -6.6845 -6.69097 -6.69736 -6.70396 -6.71049 -6.71702 -6.72354 -6.73111 -6.73925 -6.74639 -6.75353 -6.76068 -6.76892 -6.78034 -6.796 -6.81166 -6.82732 -6.84685 -6.86773 -6.89461 -6.9215 -6.94838 -6.975 -6.99981 -7.02581 -7.05181 -7.07781 -7.10039 -7.11721 -7.1333 -7.14939 -7.16548 -7.18069 -7.19241 -7.20316 -7.21391 -7.22467 -7.23524 -7.24556 -7.25433 -7.26309 -7.27186 -7.27943 -7.2884 -7.29573 -7.30305 -7.31037 -7.31609 -7.32316 -7.32876 -7.33436 -7.33997 -7.34423 -7.34924 -7.35314 -7.35703 -7.36093 -7.36403 -7.36757 -7.3703 -7.37303 -7.37576 -7.3781 -7.38075 -7.38279 -7.38484 -7.38688 -7.38871 -7.39092 -7.39265 -7.39438 -7.39612 -7.39768 -7.39968 -7.4013 -7.40292 -7.40454 -7.406 -7.40784 -7.40938 -7.41092 -7.41246 -7.41388 -7.41557 -7.41706 -7.41855 -7.42005 -7.42147 -7.42317 -7.42478 -7.42639 -7.428 -7.4296 -7.42966 -7.42972 -7.42977 -7.42983 -7.42988 -7.43174 -7.4336 -7.43546 -7.43732 -7.43953 -7.44144 -7.4437 -7.44596 -7.44822 -7.45123 -7.45304 -7.45554 -7.45803 -7.46053 -7.46416 -7.46582 -7.46851 -7.4712 -7.47388 -7.47806 -7.47964 -7.48257 -7.4855 -7.48843 -7.49318 -7.49479 -7.49801 -7.50123 -7.50445 -7.50977 -7.51148 -7.515 -7.51853 -7.52205 -7.52785 -7.52974 -7.53354 -7.53735 -7.54116 -7.54734 -7.54945 -7.55353 -7.5576 -7.56167 -7.56814 -7.57053 -7.57485 -7.57917 -7.58359 -7.59016 -7.59304 -7.59743 -7.60198 -7.60685 -7.61333 -7.61672 -7.62118 -7.62595 -7.6312 -7.63758 -7.64145 -7.64602 -7.65099 -7.65653 -7.66284 -7.66713 -7.67185 -7.67699 -7.68274 -7.68897 -7.69364 -7.69853 -7.70383 -7.70974 -7.71592 -7.72091 -7.72601 -7.73147 -7.73748 -7.7436 -7.74888 -7.75418 -7.75979 -7.76581 -7.77185 -7.77736 -7.78288 -7.78857 -7.79449 -7.80042 -7.80609 -7.81177 -7.81748 -7.82324 -7.82901 -7.83473 -7.84045 -7.84612 -7.85174 -7.85735 -7.86306 -7.86878 -7.8744 -7.87989 -7.88539 -7.89107 -7.89676 -7.90232 -7.90772 -7.91311 -7.91873 -7.92435 -7.92985 -7.93511 -7.94037 -7.94587 -7.95137 -7.95674 -7.96189 -7.96699 -7.97233 -7.97764 -7.98285 -7.98786 -7.99278 -7.99792 -8.003 -8.008 -8.01286 -8.01757 -8.02248 -8.02731 -8.03208 -8.03676 -8.04123 -8.0459 -8.05044 -8.05495 -8.05943 -8.06362 -8.06803 -8.07225 -8.07647 -8.0807 -8.08462 -8.08871 -8.09262 -8.09653 -8.10044 -8.1041 -8.10783 -8.11139 -8.11495 -8.11851 -8.12188 -8.12516 -8.12831 -8.13146 -8.13461 -8.13767 -8.13976 -8.14178 -8.14381 -8.14584 -8.14776 -8.14846 -8.14916 -8.14986 -8.15056 -8.15124 -8.1535 -8.15573 -8.15797 -8.16021 -8.16234 -8.16422 -8.16592 -8.16763 -8.16934 -8.17084 -8.17233 -8.17348 -8.17463 -8.17578 -8.17659 -8.17768 -8.1782 -8.17872 -8.17922 -8.17925 -8.17976 -8.17971 -8.17957 -8.17926 -8.17861 -8.17846 -8.17793 -8.17707 -8.17588 -8.17446 -8.17356 -8.17249 -8.17079 -8.16856 -8.16625 -8.16448 -8.16272 -8.16016 -8.15701 -8.15387 -8.15128 -8.14871 -8.1454 -8.14139 -8.13737 -8.13394 -8.13051 -8.12636 -8.12133 -8.11631 -8.11189 -8.10744 -8.10222 -8.0962 -8.09006 -8.08455 -8.07871 -8.07235 -8.06553 -8.05822 -8.05154 -8.04423 -8.03666 -8.02901 -8.02047 -8.0125 -8.00364 -7.9948 -7.98596 -7.97641 -7.96678 -7.95656 -7.94636 -7.93616 -7.92569 -7.91885 -7.91178 -7.90471 -7.89764 -7.89094 -7.88636 -7.88179 -7.87721 -7.87264 -7.8679 -7.8551 -7.84211 -7.82914 -7.81617 -7.80262 -7.7888 -7.77425 -7.75972 -7.7452 -7.72961 -7.71457 -7.69859 -7.68243 -7.66582 -7.64849 -7.63177 -7.61469 -7.59681 -7.57791 -7.5588 -7.54032 -7.52185 -7.50208 -7.48107 -7.46007 -7.43968 -7.41932 -7.39773 -7.37482 -7.35191 -7.32958 -7.30699 -7.28338 -7.25907 -7.23428 -7.21005 -7.18487 -7.15931 -7.13378 -7.107 -7.08049 -7.05293 -7.02539 -6.99786 -6.96991 -6.95534 -6.94042 -6.92551 -6.9106 -6.89632 -6.88178 -6.86724 -6.85271 -6.83818 -6.82336 -6.79261 -6.76154 -6.73049 -6.69946 -6.66754 -6.63552 -6.60269 -6.56981 -6.5365 -6.5026 -6.46873 -6.43478 -6.40015 -6.36459 -6.32903 -6.29341 -6.25782 -6.22146 -6.18432 -6.14718 -6.10984 -6.07232 -6.03425 -5.99593 -5.9573 -5.91832 -5.87887 -5.8394 -5.79995 -5.7603 -5.73548 -5.71056 -5.68565 -5.66075 -5.63693 -5.62106 -5.60519 -5.58932 -5.57346 -5.55761 -5.51611 -5.47469 -5.43329 -5.39191 -5.35082 -5.30844 -5.26639 -5.22448 -5.18294 -5.14163 -5.09883 -5.05606 -5.01405 -4.97279 -4.93151 -4.88857 -4.84567 -4.80383 -4.76266 -4.72166 -4.67882 -4.63696 -4.59547 -4.554 -4.51326 -4.48281 -4.45321 -4.42363 -4.39405 -4.36542 -4.35386 -4.3423 -4.33074 -4.31919 -4.30793 -4.26732 -4.22706 -4.18682 -4.14658 -4.10799 -4.06766 -4.02831 -3.98938 -3.95174 -3.91477 -3.8759 -3.83704 -3.79999 -3.76474 -3.72948 -3.6923 -3.65541 -3.62048 -3.58653 -3.55322 -3.51798 -3.48477 -3.45186 -3.41894 -3.38695 -3.37026 -3.35446 -3.33866 -3.32286 -3.30701 -3.29178 -3.27654 -3.26131 -3.24607 -3.23154 -3.20163 -3.17253 -3.14342 -3.11441 -3.08732 -3.05877 -3.03116 -3.00436 -2.97901 -2.95415 -2.9279 -2.90164 -2.87724 -2.85461 -2.83198 -2.80806 -2.78433 -2.76212 -2.74106 -2.72062 -2.699 -2.67862 -2.65856 -2.63847 -2.61972 -2.60317 -2.58741 -2.57162 -2.55581 -2.53893 -2.53688 -2.53484 -2.5328 -2.53075 -2.52878 -2.51225 -2.49582 -2.47938 -2.4629 -2.44706 -2.43123 -2.41671 -2.40217 -2.38778 -2.37401 -2.35975 -2.34615 -2.33339 -2.3211 -2.30895 -2.2964 -2.28382 -2.2725 -2.26183 -2.25115 -2.24015 -2.22913 -2.21855 -2.20922 -2.19987 -2.1903 -2.18074 -2.17127 -2.16254 -2.15436 -2.14603 -2.13767 -2.12929 -2.12095 -2.11376 -2.10649 -2.09903 -2.09155 -2.08406 -2.07718 -2.07062 -2.06389 -2.05714 -2.05038 -2.04372 -2.04213 -2.0405 -2.03886 -2.03722 -2.03552 -2.0309 -2.02628 -2.02165 -2.01701 -2.01223 -2.00608 -2.00013 -1.99417 -1.9882 -1.98181 -1.97558 -1.96974 -1.96389 -1.95803 -1.95143 -1.94503 -1.93907 -1.9331 -1.92696 -1.92 -1.91338 -1.90696 -1.90063 -1.8938 -1.88638 -1.87932 -1.87231 -1.8654 -1.85758 -1.84944 -1.84168 -1.83392 -1.82617 -1.81711 -1.80806 -1.7994 -1.79075 -1.78159 -1.77136 -1.76112 -1.75131 -1.74151 -1.73073 -1.71912 -1.70752 -1.69636 -1.68519 -1.67259 -1.65935 -1.64611 -1.63332 -1.6203 -1.60578 -1.59083 -1.57575 -1.56115 -1.54572 -1.52925 -1.51249 -1.49531 -1.47861 -1.46042 -1.44178 -1.42311 -1.40363 -1.38442 -1.36338 -1.34233 -1.32128 -1.29962 -1.27707 -1.25341 -1.22973 -1.20605 -1.1822 -1.1749 -1.16734 -1.15977 -1.1522 -1.14501 -1.12619 -1.10736 -1.08853 -1.0697 -1.0502 -1.02142 -0.992183 -0.962942 -0.933693 -0.902751 -0.871552 -0.839143 -0.806724 -0.77378 -0.738979 -0.704615 -0.66959 -0.633815 -0.596266 -0.558035 -0.520247 -0.482443 -0.442784 -0.401025 -0.359199 -0.317827 -0.276436 -0.232805 -0.187393 -0.141873 -0.096816 -0.0503916 -0.00273362 0.0450963 0.0944298 0.14383 0.195297 0.246791 0.298313 0.350095 0.35451 0.35909 0.363669 0.368249 0.372767 0.422941 0.473128 0.523331 0.573548 0.625633 0.682628 0.741194 0.799784 0.85963 0.920947 0.981847 1.04277 1.10573 1.17078 1.23602 1.30084 1.36623 1.4336 1.50153 1.57065 1.63028 1.69198 1.7537 1.81544 1.86973 1.88062 1.89151 1.90239 1.91328 1.92453 1.99818 2.07219 2.14622 2.22062 2.29722 2.37351 2.44981 2.52788 2.60766 2.68777 2.76756 2.84804 2.9299 3.01179 3.09518 3.13128 3.16805 3.20497 3.24189 3.27684 3.32488 3.37292 3.42096 3.46919 3.51839 3.60447 3.69122 3.77827 3.86677 3.95588 4.04473 4.13382 4.22409 4.31446 4.40605 4.44188 4.47802 4.51431 4.5506 4.58539 4.64154 4.69769 4.75384 4.81023 4.86731 4.96045 5.05371 5.14763 5.24233 5.33757 5.43174 5.5263 5.62115 5.71598 5.80255 5.80498 5.80741 5.80983 5.81227 5.81472 5.91091 6.00714 6.10335 6.19978 6.29696 6.39365 6.49033 6.58715 6.68404 6.78166 6.81338 6.84507 6.87673 6.90838 6.93939 7.00507 7.07075 7.13643 7.20201 7.26774 7.36481 7.46188 7.55856 7.65512 7.75209 7.79266 7.8331 7.8733 7.91351 7.95301 8.00909 8.06516 8.12124 8.17698 8.23263 8.3281 8.42355 8.51825 8.61243 8.70682 8.7439 8.78081 8.81732 8.85383 8.89014 8.94696 9.00379 9.06061 9.11679 9.17272 9.26484 9.35696 9.44778 9.53796 9.62803 9.65652 9.68484 9.71271 9.74059 9.76861 9.82961 9.89061 9.95162 10.0117 10.0713 10.1585 10.2457 10.331 10.416 10.5004 10.5214 10.5423 10.5627 10.5831 10.6038 10.6666 10.7294 10.7922 10.8538 10.9147 10.9958 11.0769 11.1558 11.2345 11.3123 11.3321 11.3516 11.3708 11.39 11.4095 11.4668 11.5242 11.5815 11.6378 11.6931 11.7672 11.8413 11.9136 11.985 12.0557 12.0848 12.1134 12.1414 12.1695 12.1989 12.2396 12.2803 12.321 12.361 12.4002 12.4669 12.5336 12.599 12.6628 12.7262 12.7783 12.8293 12.8796 12.9298 12.986 12.9955 13.005 13.0144 13.0238 13.0329 13.0917 13.1501 13.2085 13.2658 13.3219 13.3773 13.4326 13.4863 13.5392 13.5917 13.6291 13.6654 13.7014 13.7375 13.7779 13.7911 13.8042 13.8174 13.8304 13.8431 13.8909 13.9382 13.9856 14.0322 14.0776 14.1222 14.1667 14.21 14.2523 14.2944 14.3356 14.3759 14.4155 14.4552 14.4942 14.5118 14.5287 14.5456 14.5626 14.581 14.6006 14.6203 14.6399 14.6596 14.6786 14.7131 14.7474 14.7815 14.8153 14.8483 14.88 14.9118 14.9429 14.9733 15.0036 15.0326 15.0617 15.0899 15.1179 15.1456 15.1723 15.1985 15.2244 15.2503 15.276 15.299 15.3217 15.3444 15.367 15.3947 15.395 15.3953 15.3956 15.3959 15.3963 15.4189 15.4415 15.4641 15.4867 15.5092 15.5305 15.5519 15.5732 15.5946 15.6162 15.6369 15.6574 15.6778 15.6984 15.7191 15.739 15.7589 15.7789 15.8007 15.8224 15.8433 15.8642 15.8814 15.8959 15.9103 15.9233 15.9363 15.9554 15.9805 16.0054 16.0302 16.0548 16.0557 16.0412 16.0236 16.0027 15.9795 15.9554 15.9312 15.907 15.8836 15.8619 15.8402 15.8184 15.7901 15.7892 15.7883 15.7874 15.7865 15.7857 15.7625 15.7391 15.7157 15.6922 15.6682 15.6405 15.6106 15.5806 15.5501 15.5168 15.4802 15.443 15.4052 15.366 15.3261 15.283 15.2398 15.1956 15.15 15.1044 15.0556 15.0067 14.9562 14.9042 14.852 14.7966 14.7412 14.6835 14.6241 14.5645 14.5015 14.4377 14.3723 14.3059 14.2386 14.1677 14.0949 14.0212 13.9474 13.8715 13.7916 13.7091 13.6266 13.5441 13.4599 13.3698 13.2776 13.1854 13.0932 12.9999 12.8979 12.7948 12.6917 12.5885 12.4852 12.4745 12.4636 12.4528 12.442 12.4309 12.327 12.2231 12.1192 12.0153 11.9102 11.7834 11.6554 11.5274 11.3993 11.2687 11.1287 10.9855 10.8423 10.6992 10.5515 10.3964 10.2366 10.0768 9.91693 9.75128 9.58 9.40054 9.22056 9.039 8.84999 8.65479 8.45609 8.25601 8.05405 7.84894 7.63705 7.41529 7.18385 6.94097 6.68945 6.42952 6.17299 5.9242 5.68392 5.44651 5.20102 4.94669 4.62435 4.22633 3.82386 3.40712 2.99031 2.70919 2.55478 2.40046 2.24058 2.08086 1.59497 0.796896 0