/*--------------------------------*- C++ -*----------------------------------*\
| =========                 |                                                 |
| \\      /  F ield         | OpenFOAM: The Open Source CFD Toolbox           |
|  \\    /   O peration     | Version:  5.x                                   |
|   \\  /    A nd           | Web:      www.OpenFOAM.org                      |
|    \\/     M anipulation  |                                                 |
\*---------------------------------------------------------------------------*/
FoamFile
{
    version     2.0;
    format      ascii;
    class       volScalarField;
    location    "800";
    object      epsilon;
}
// * * * * * * * * * * * * * * * * * * * * * * * * * * * * * * * * * * * * * //

dimensions      [0 2 -3 0 0 0 0];

internalField   nonuniform List<scalar> 
20540
(
0.241032
0.157972
0.241032
0.258821
0.241032
0.347296
0.241032
0.418202
0.241032
0.466914
0.241032
0.489711
0.241032
0.484621
0.241032
0.45208
0.241032
0.395584
0.241032
0.322039
0.241032
0.241375
0.241032
0.164971
0.241032
0.10268
0.241032
0.0591027
0.241032
0.0326677
0.241032
0.0204323
0.241032
0.0171312
0.241032
0.0165628
0.241032
0.016475
0.241032
0.0164608
0.241032
0.0164587
0.241032
0.016459
0.241032
0.0164598
0.241032
0.016461
0.241032
0.0164624
0.241032
0.0164642
0.241032
0.0164661
0.241032
0.0164683
0.241032
0.0164705
0.241032
0.0164725
0.241032
0.016474
0.241032
0.0164747
0.241032
0.0164747
0.241032
0.016474
0.241032
0.0164725
0.241032
0.0164705
0.241032
0.0164684
0.241032
0.0164663
0.241032
0.0164644
0.241032
0.0164627
0.241032
0.0164612
0.241032
0.01646
0.241032
0.0164591
0.241032
0.0164587
0.241032
0.0164595
0.241032
0.0164663
0.241032
0.0165064
0.241032
0.01675
0.241032
0.0182261
0.241032
0.0250067
0.241032
0.0432241
0.241032
0.0759604
0.241032
0.125888
0.241032
0.192432
0.241032
0.269215
0.241032
0.346408
0.241032
0.413851
0.241032
0.463203
0.241032
0.488955
0.241032
0.48856
0.241032
0.462056
0.241032
0.411509
0.241032
0.340536
0.241032
0.25384
0.241032
0.158308
654830
641977
597339
564754
541006
523129
509192
497991
488787
481098
474590
469021
464208
460014
456336
453089
450209
447641
445342
443274
441409
439721
438190
436797
435527
434366
433303
432326
431426
430598
429833
429127
428473
427869
427310
426793
426314
425872
425465
425091
424749
424439
424161
423915
423703
423528
423390
423294
423244
423244
423300
423418
423605
423867
424211
424647
425183
425831
426601
427507
428564
429786
431262
432411
433586
434773
436030
437357
438755
440223
441762
443373
445057
446816
448654
450572
452575
454670
456864
459167
461595
464168
466917
469902
473181
477113
482436
502711
696498
544904
482872
447901
424612
407827
395047
384921
376679
369843
364089
359185
354962
351292
348080
345250
342743
340512
338515
336721
335104
333642
332316
331111
330012
329007
328087
327243
326465
325749
325088
324477
323913
323391
322908
322461
322049
321668
321318
320998
320706
320444
320211
320008
319838
319702
319603
319545
319533
319573
319669
319828
320058
320365
320758
321246
321839
322550
323391
324375
325528
326836
328494
329854
331150
332405
333765
335221
336764
338394
340110
341916
343814
345808
347901
350100
352413
354850
357421
360146
363047
366155
369522
373215
377405
382201
388608
387796
470751
381860
337022
312183
295898
284266
275458
268504
262856
258179
254246
250897
248014
245510
243319
241389
239680
238158
236797
235575
234472
233476
232572
231750
231001
230316
229689
229113
228583
228095
227644
227227
226842
226486
226157
225852
225570
225310
225071
224853
224654
224474
224315
224177
224060
223967
223899
223859
223851
223877
223942
224050
224206
224415
224682
225013
225417
225899
226470
227139
227920
228809
229919
230818
231710
232576
233494
234473
235510
236605
237756
238965
240234
241565
242959
244421
245953
247563
249256
251042
252933
254948
257111
259461
262061
264986
267951
263646
326157
281058
247945
229371
217292
208719
202258
197174
193054
189648
186787
184352
182258
180441
178850
177450
176210
175107
174120
173234
172434
171712
171057
170461
169918
169422
168967
168549
168165
167811
167484
167182
166903
166645
166406
166185
165980
165792
165618
165459
165314
165184
165067
164966
164880
164811
164760
164728
164719
164734
164776
164849
164955
165098
165282
165511
165791
166125
166521
166985
167527
168145
168902
169504
170127
170739
171375
172049
172761
173511
174298
175123
175987
176890
177834
178819
179850
180927
182054
183237
184480
185794
187188
188682
190285
192032
193293
189698
229533
213809
189206
174833
165501
158908
153960
150080
146944
144355
142184
140338
138751
137375
136171
135112
134174
133340
132594
131924
131320
130774
130279
129829
129418
129043
128700
128385
128094
127827
127580
127352
127141
126946
126765
126598
126443
126301
126169
126048
125938
125839
125750
125672
125606
125552
125511
125484
125473
125479
125506
125554
125626
125725
125853
126014
126209
126445
126724
127050
127431
127869
128392
128797
129236
129675
130124
130595
131091
131611
132156
132726
133320
133940
134585
135256
135954
136680
137435
138221
139041
139898
140795
141739
142716
143727
144180
141831
161930
165815
147869
136551
129149
123931
120030
116981
114523
112497
110801
109360
108123
107051
106114
105289
104560
103911
103331
102810
102340
101916
101532
101182
100863
100572
100305
100060
99834.7
99626.9
99435.1
99258
99094.1
98942.4
98802.1
98672.1
98551.9
98440.8
98338.4
98244.2
98158.2
98080.2
98010.3
97948.6
97895.5
97851.5
97817.2
97793.5
97781.2
97781.8
97796.8
97827.7
97876
97943.5
98032.1
98143.9
98281.3
98446.8
98643.4
98874.1
99142.5
99452.5
99814.3
100088
100394
100709
101027
101357
101703
102065
102442
102835
103243
103667
104107
104561
105032
105518
106020
106538
107072
107623
108190
108772
109347
109896
109979
108588
113249
129816
117385
108447
102487
98276.7
95136.1
92689
90721.4
89103.4
87750
86602.3
85617.7
84764.9
84020.1
83365.4
82786.2
82271.3
81811.1
81398
81025.9
80689.6
80384.7
80107.7
79855.1
79624.3
79412.9
79218.8
79040.2
78875.6
78723.7
78583.3
78453.5
78333.3
78222
78119
78023.6
77935.4
77853.9
77779
77710.4
77647.9
77591.6
77541.7
77498.2
77461.5
77432.1
77410.6
77397.4
77393.6
77400.4
77418.6
77449.6
77494.4
77554.5
77631.2
77726.2
77841.3
77978.4
78139.7
78327.2
78544.8
78792.7
78974.3
79185
79407
79630.2
79860.2
80099.1
80347.6
80605.7
80873.2
81150
81435.8
81730.3
82033.3
82344.3
82663.2
82989.3
83322.2
83660.9
84004.3
84349.2
84692.3
85008
85272.5
85190.2
84376.1
77712.5
101779
94095.1
87132.6
82305.5
78868.4
76304
74310
72710.4
71397.4
70300.9
69372.1
68576.3
67887.6
67286.6
66758.5
66291.7
65876.8
65506.2
65173.7
64874.2
64603.5
64358.3
64135.4
63932.3
63746.7
63576.7
63420.6
63277
63144.6
63022.5
62909.6
62805.2
62708.6
62619
62536.1
62459.3
62388.2
62322.4
62261.8
62206.2
62155.3
62109.3
62068.1
62031.9
62000.8
61975.2
61955.3
61941.5
61934.7
61935.4
61944.5
61962.7
61990.9
62030
62080.9
62144.8
62222.8
62316.2
62426.5
62554.8
62704.4
62870.5
62988.2
63128.4
63280.7
63434
63590.8
63752.4
63919.3
64091.6
64269.2
64451.8
64639.1
64830.7
65026.2
65225
65426.7
65630.4
65835.2
66039.7
66242
66438.4
66623.7
66774.5
66867.6
66715.1
66200.1
51763
79305.5
75783.5
70553.7
66666
63847.1
61734.9
60093.1
58777.8
57699.9
56800.9
56040.3
55389.3
54826.4
54335.6
53904.7
53524
53185.7
52883.7
52612.8
52368.9
52148.6
51949
51767.6
51602.3
51451.3
51313
51186
51069.2
50961.6
50862.2
50770.4
50685.5
50606.8
50534
50466.5
50403.9
50345.9
50292.2
50242.6
50196.9
50155
50116.9
50082.5
50051.9
50025.2
50002.5
49984.2
49970.1
49961.1
49957.5
49959.9
49968.8
49984.8
50008.4
50040.2
50081.1
50131.7
50192.8
50265.5
50350.1
50449.3
50556.6
50629.6
50718.5
50818.5
50919.7
51022.8
51128.1
51236.1
51346.6
51459.6
51574.8
51691.9
51810.5
51930.1
52050.2
52170.1
52289.1
52406
52519.3
52627
52725.2
52808.6
52857.2
52851.8
52673.4
52299.4
33054.7
60904
61018.3
57382.5
54315.8
52014
50270
48910.3
47821
46928.8
46185.2
45556.8
45019.4
44555.1
44150.5
43795.5
43482.1
43203.8
42955.4
42732.7
42532.2
42351.1
42187.1
42038.1
41902.4
41778.4
41664.9
41560.6
41464.7
41376.4
41294.8
41219.4
41149.7
41085.1
41025.3
40969.8
40918.3
40870.5
40826.3
40785.3
40747.4
40712.6
40680.7
40651.7
40625.5
40602.4
40582.2
40565.2
40551.3
40540.8
40534.3
40531.9
40534
40541
40553.3
40571.2
40595.1
40625.5
40662.9
40707.8
40760.3
40822.3
40887.5
40929.5
40981.8
41042.9
41105.6
41169.2
41233.8
41299.3
41365.6
41432.6
41500.1
41567.7
41635.1
41701.9
41767.6
41831.4
41892.7
41950.5
42003.2
42048.9
42084.2
42103.9
42092
42034.2
41852
41547.7
19927.1
45640.3
48830.7
46712.3
44402.6
42555.1
41123.3
39997.6
39092.9
38351.2
37732.9
37210.6
36764
36378.4
36042.7
35748.2
35488.4
35257.7
35051.9
34867.4
34701.4
34551.5
34415.8
34292.5
34180.2
34077.7
33983.7
33897.5
33818.2
33745.1
33677.6
33615.3
33557.6
33504.2
33454.7
33408.7
33366.1
33326.4
33289.7
33255.5
33223.9
33194.7
33167.8
33143.1
33120.7
33100.4
33082.4
33066.7
33053.1
33042
33033.4
33027.8
33025.1
33025.7
33029.8
33037.5
33049.2
33064.9
33085
33109.7
33138.9
33173.9
33209.2
33230.1
33256.8
33290
33324.5
33359.7
33395.1
33430.5
33465.7
33500.5
33534.8
33568.3
33600.7
33631.5
33660.5
33686.9
33710.1
33729.3
33743.1
33749.8
33746.4
33728.5
33683.5
33601.6
33428.3
33169.3
11114
32948
38548.7
37896.7
36319.9
34893.4
33739.3
32815.3
32066.7
31450.5
30935.8
30500.5
30128.3
29806.8
29527
29281.6
29065
28872.9
28701.5
28547.9
28409.7
28284.9
28172
28069.4
27976
27890.7
27812.5
27740.8
27674.8
27614
27557.9
27506
27458
27413.6
27372.3
27334.1
27298.5
27265.4
27234.7
27206.1
27179.6
27154.9
27132.1
27111
27091.6
27073.9
27057.8
27043.3
27030.3
27018.9
27009.3
27001.5
26995.6
26991.8
26990.2
26990.8
26993.7
26999
27006.8
27017.2
27029.9
27045.6
27060.3
27067
27076.6
27090.4
27105.1
27120.2
27135.2
27149.7
27163.6
27176.6
27188.5
27199.2
27208.4
27215.7
27220.8
27223.2
27222.4
27217.6
27207.8
27191.4
27165.9
27127.7
27067.4
26978.2
26821.4
26602
5577.69
22517.6
29710.7
30459.2
29618.6
28603.8
27710.2
26968.9
26357.7
25849.9
25423.5
25061.7
24751.8
24483.8
24250.3
24045.5
23864.7
23704.3
23561.2
23432.9
23317.5
23213.3
23119
23033.3
22955.3
22884.1
22818.8
22758.9
22703.8
22653
22606.1
22562.8
22522.7
22485.5
22451.1
22419.1
22389.3
22361.6
22335.8
22311.8
22289.4
22268.5
22249.1
22231
22214.2
22198.7
22184.3
22171.1
22158.9
22147.7
22137.5
22128.5
22120.7
22114
22108.6
22104.4
22101.4
22099.6
22099
22099.5
22100.9
22103.4
22104.3
22102
22100.7
22101.6
22103.1
22104.7
22106
22106.6
22106.4
22105.2
22102.8
22098.9
22093.5
22086.2
22076.8
22064.8
22049.8
22031.2
22008.2
21979.5
21943
21895.8
21831
21744.2
21607.9
21426.5
2421.81
14213.5
22026.1
24044.4
23954.9
23361.9
22727
22160.3
21676.4
21266.6
20918.5
20621
20364.9
20142.8
19948.8
19778.4
19627.8
19494.1
19374.7
19267.6
19171.2
19084.2
19005.4
18933.8
18868.6
18809.1
18754.5
18704.4
18658.3
18615.8
18576.6
18540.3
18506.7
18475.6
18446.7
18419.9
18394.9
18371.7
18350
18329.8
18310.8
18293.1
18276.6
18261.1
18246.5
18232.9
18220.2
18208.2
18197
18186.3
18176.1
18166.7
18157.8
18149.5
18141.8
18134.6
18127.8
18121.5
18115.4
18109.6
18103.6
18097.6
18089.8
18082
18074.2
18067.4
18060.6
18053.6
18046.3
18038.3
18029.5
18019.6
18008.6
17996.2
17982.3
17966.8
17949.2
17929.5
17907.2
17881.7
17852.5
17818.4
17778
17728.8
17666.1
17586.7
17472.2
17325.7
862.115
7989.41
15362.4
18396.6
19060.8
18912.4
18547.5
18157.8
17798.8
17482.4
17207.3
16968.6
16761.1
16579.8
16420.7
16280.4
16156.1
16045.4
15946.4
15857.5
15777.4
15705.1
15639.5
15579.9
15525.6
15475.9
15430.4
15388.5
15350
15314.5
15281.8
15251.4
15223.4
15197.4
15173.2
15150.7
15129.8
15110.3
15092.1
15075.1
15059.1
15044.1
15030
15016.7
15004.2
14992.4
14981.2
14970.5
14960.3
14950.3
14940.6
14931.2
14922
14913
14904.2
14895.3
14886.5
14877.5
14868.3
14858.7
14848.5
14837.5
14824.6
14813.9
14802.7
14791.7
14780.3
14768.7
14756.5
14743.8
14730.2
14715.6
14700.1
14683.3
14665.3
14645.7
14624.6
14601.5
14576.2
14548.4
14517.4
14482.5
14442.4
14395.4
14338.2
14268.5
14175
14058.8
239.125
3783.22
9741.78
13361.2
14730.6
15050
14976.4
14775.5
14546.5
14324.7
14121.6
13939.7
13778.2
13635.1
13508.1
13395.3
13294.8
13204.9
13124.1
13051.4
12985.7
12926.2
12872.2
12823.1
12778.3
12737.2
12699.6
12664.9
12633
12603.6
12576.3
12551.2
12527.8
12506.2
12486.1
12467.4
12450
12433.7
12418.5
12404.3
12390.9
12378.2
12366.3
12355.1
12344.4
12334.2
12324.4
12315
12305.9
12296.9
12287.9
12279
12270.1
12261.1
12251.9
12242.5
12232.8
12222.7
12212
12200.6
12188.2
12174.7
12159.6
12147.7
12135.1
12122.4
12109.2
12095.4
12081.2
12066.3
12050.7
12034.3
12017
11998.7
11979.3
11958.7
11936.7
11913.1
11887.8
11860.3
11830.3
11797.1
11759.8
11717.1
11666.9
11607.8
11533
11442
52.1347
1385.71
5315.95
8904.18
10824.1
11611.5
11853.1
11860.2
11773.1
11652.7
11525.1
11401.5
11286.4
11181
11085.5
10999.1
10921.2
10850.8
10787.1
10729.4
10677
10629.3
10585.9
10546.3
10510.1
10476.8
10446.2
10418
10392
10368
10345.7
10325.1
10306
10288.3
10271.8
10256.5
10242.2
10228.8
10216.2
10204.4
10193.3
10182.9
10172.9
10163.5
10154.5
10145.8
10137.5
10129.4
10121.5
10113.6
10105.5
10097.4
10089.1
10080.6
10071.8
10062.6
10052.9
10042.6
10031.6
10019.8
10006.9
9992.78
9977.15
9965.24
9952.69
9939.82
9926.35
9912.35
9897.82
9882.71
9866.96
9850.51
9833.29
9815.24
9796.28
9776.31
9755.21
9732.85
9709.04
9683.51
9655.93
9625.83
9592.52
9555.12
9512.39
9463.39
9404.56
9334.01
9.62516
349.632
2276.07
5138.28
7291.2
8481.48
9047.52
9283.31
9355.49
9348.48
9304.43
9244.37
9178.87
9113.23
9050.16
8990.88
8935.79
8884.91
8838.05
8795
8755.5
8719.27
8686.04
8655.5
8627.4
8601.49
8577.56
8555.43
8534.94
8515.95
8498.35
8482.01
8466.84
8452.73
8439.59
8427.33
8415.87
8405.14
8395.06
8385.57
8376.61
8368.13
8360.06
8352.35
8344.95
8337.81
8330.87
8324.08
8317.36
8310.64
8303.73
8296.62
8289.26
8281.59
8273.55
8265.06
8256.02
8246.34
8235.89
8224.58
8212.15
8198.59
8183.69
8172.53
8160.79
8148.69
8136.02
8122.83
8109.14
8094.92
8080.13
8064.73
8048.69
8031.96
8014.47
7996.15
7976.92
7956.65
7935.2
7912.38
7887.92
7861.48
7832.6
7800.72
7765.17
7725.45
7679.74
7625.35
1.5766
57.4891
659.561
2312.49
4213.14
5617.99
6469.38
6941.5
7189.59
7311.31
7362.63
7374.76
7365.14
7343.77
7316.46
7286.57
7256
7225.81
7196.66
7168.91
7142.74
7118.23
7095.33
7073.98
7054.08
7035.52
7018.22
7002.08
6987.05
6973.04
6959.99
6947.82
6936.48
6925.9
6916.01
6906.76
6898.07
6889.92
6882.23
6874.96
6868.08
6861.53
6855.27
6849.26
6843.46
6837.82
6832.3
6826.84
6821.4
6815.96
6810.28
6804.35
6798.12
6791.56
6784.59
6777.15
6769.15
6760.52
6751.14
6740.92
6729.67
6717.37
6703.92
6693.94
6683.46
6672.62
6661.28
6649.48
6637.21
6624.48
6611.25
6597.49
6583.19
6568.31
6552.79
6536.59
6519.63
6501.83
6483.08
6463.22
6442.08
6419.41
6394.95
6368.37
6339.36
6307.73
6272.52
6230.78
0.233132
7.09518
110.734
676.715
1834.42
3103
4097.77
4769.39
5194.55
5456.77
5616.31
5711.68
5766.84
5796.73
5810.63
5814.35
5811.56
5804.65
5795.24
5784.42
5772.9
5761.14
5749.44
5737.95
5726.8
5716.06
5705.76
5695.96
5686.65
5677.84
5669.54
5661.71
5654.34
5647.4
5640.86
5634.69
5628.86
5623.34
5618.09
5613.1
5608.34
5603.77
5599.37
5595.1
5590.95
5586.87
5582.83
5578.79
5574.71
5570.56
5566.25
5561.63
5556.7
5551.41
5545.71
5539.54
5532.84
5525.54
5517.54
5508.76
5499.05
5488.4
5476.78
5468.18
5459.14
5449.78
5440
5429.8
5419.2
5408.18
5396.74
5384.84
5372.48
5359.62
5346.23
5332.26
5317.67
5302.39
5286.34
5269.42
5251.51
5232.47
5212.15
5190.4
5167.13
5142.3
5115.36
5083.44
0.034615
0.745536
11.514
105.198
478.57
1195.98
2041.63
2778.43
3333.08
3726.66
3999.28
4186.79
4316.09
4405.71
4467.98
4511.2
4541.02
4561.39
4575.05
4583.92
4589.35
4592.26
4593.33
4593.06
4591.81
4589.87
4587.45
4584.72
4581.8
4578.78
4575.73
4572.68
4569.68
4566.73
4563.85
4561.04
4558.31
4555.64
4553.05
4550.52
4548.05
4545.63
4543.24
4540.86
4538.49
4536.11
4533.67
4531.17
4528.57
4525.84
4522.99
4519.82
4516.31
4512.42
4508.14
4503.39
4498.15
4492.33
4485.87
4478.71
4470.72
4461.9
4452.24
4445.09
4437.54
4429.7
4421.5
4412.93
4404.01
4394.73
4385.07
4375.03
4364.57
4353.7
4342.37
4330.57
4318.25
4305.36
4291.86
4277.69
4262.78
4247.06
4230.48
4212.99
4194.6
4175.35
4154.83
4130.5
0.00739056
0.0690699
0.942871
9.12096
59.6193
242.308
618.184
1132.92
1664.65
2122.01
2481.21
2754.55
2960.77
3116.01
3233.12
3322.04
3390.19
3442.95
3484.14
3516.52
3542.13
3562.47
3578.7
3591.71
3602.18
3610.64
3617.51
3623.12
3627.69
3631.44
3634.51
3637.03
3639.07
3640.73
3642.06
3643.11
3643.93
3644.55
3644.99
3645.28
3645.44
3645.46
3645.36
3645.15
3644.81
3644.35
3643.74
3642.99
3642.06
3640.93
3639.62
3638.06
3636.13
3633.8
3631.06
3627.87
3624.19
3619.97
3615.15
3609.69
3603.48
3596.53
3588.85
3583.13
3577.04
3570.67
3563.98
3556.98
3549.65
3542.01
3534.03
3525.71
3517.04
3508.01
3498.6
3488.78
3478.54
3467.85
3456.68
3445.01
3432.81
3420.06
3406.76
3392.92
3378.59
3363.81
3348.27
3329.78
0.00242375
0.00611499
0.0656296
0.599321
4.07889
21.2676
82.7062
229.697
473.914
786.767
1119.19
1426.89
1687.42
1898.71
2068.18
2204.57
2314.95
2404.63
2477.76
2537.67
2587.05
2628.08
2662.43
2691.43
2716.09
2737.19
2755.36
2771.07
2784.72
2796.64
2807.08
2816.25
2824.35
2831.52
2837.89
2843.57
2848.65
2853.2
2857.28
2860.95
2864.25
2867.21
2869.86
2872.22
2874.31
2876.13
2877.69
2878.98
2880.01
2880.76
2881.22
2881.45
2881.29
2880.7
2879.67
2878.18
2876.19
2873.67
2870.58
2866.87
2862.48
2857.41
2851.67
2847.34
2842.64
2837.68
2832.42
2826.88
2821.04
2814.9
2808.47
2801.74
2794.7
2787.35
2779.67
2771.66
2763.3
2754.6
2745.53
2736.11
2726.32
2716.18
2705.71
2694.95
2683.94
2672.72
2661.03
2647.07
0.00184248
0.000886078
0.00404535
0.0328511
0.214489
1.12225
4.87522
17.7197
52.855
126.632
247.03
408.401
596.07
792.208
980.677
1150.64
1297.54
1421.68
1525.92
1613.8
1688.5
1752.52
1807.75
1855.62
1897.24
1933.54
1965.28
1993.12
2017.65
2039.35
2058.62
2075.82
2091.23
2105.1
2117.62
2128.97
2139.29
2148.7
2157.29
2165.15
2172.34
2178.94
2184.98
2190.52
2195.58
2200.19
2204.38
2208.16
2211.53
2214.52
2217.11
2219.33
2221.22
2222.62
2223.52
2223.92
2223.8
2223.13
2221.88
2220.03
2217.52
2214.36
2210.57
2207.6
2204.26
2200.66
2196.78
2192.61
2188.18
2183.47
2178.48
2173.22
2167.7
2161.89
2155.82
2149.47
2142.86
2135.97
2128.82
2121.43
2113.79
2105.95
2097.91
2089.73
2081.44
2073.05
2064.37
2053.94
0.00181832
0.000333914
0.000315578
0.00154328
0.00929249
0.0469352
0.200767
0.744339
2.43165
7.06083
18.1861
41.1151
81.1899
141.192
220.141
314.157
418.011
526.231
633.8
736.652
831.978
918.249
995.032
1062.68
1122.04
1174.13
1220.02
1260.67
1296.91
1329.4
1358.7
1385.23
1409.35
1431.33
1451.41
1469.79
1486.63
1502.09
1516.29
1529.34
1541.36
1552.44
1562.64
1572.05
1580.72
1588.7
1596.05
1602.8
1608.98
1614.62
1619.73
1624.33
1628.47
1632.17
1635.3
1637.85
1639.84
1641.23
1642.03
1642.2
1641.73
1640.59
1638.83
1637.26
1635.32
1633.1
1630.6
1627.82
1624.77
1621.47
1617.9
1614.09
1610.03
1605.73
1601.21
1596.46
1591.5
1586.34
1580.98
1575.46
1569.78
1563.97
1558.06
1552.07
1546.03
1539.95
1533.7
1526.12
0.00181797
0.000298835
8.24317e-05
8.99391e-05
0.000342998
0.00159525
0.00661447
0.0240871
0.078097
0.228619
0.611408
1.50722
3.44845
7.33873
14.4914
26.474
44.7496
70.2625
103.184
142.927
188.363
238.098
290.688
344.768
399.119
452.697
504.654
554.344
601.315
645.289
686.14
723.861
758.539
790.322
819.399
845.982
870.289
892.534
912.922
931.64
948.859
964.732
979.393
992.957
1005.53
1017.18
1028.01
1038.05
1047.38
1056.02
1064.01
1071.38
1078.16
1084.42
1090.13
1095.2
1099.65
1103.46
1106.64
1109.17
1111.03
1112.22
1112.77
1112.77
1112.39
1111.71
1110.73
1109.47
1107.93
1106.14
1104.1
1101.82
1099.32
1096.6
1093.69
1090.58
1087.31
1083.87
1080.3
1076.59
1072.78
1068.89
1064.92
1060.9
1056.85
1052.77
1048.59
1043.46
0.00181828
0.000297967
6.8573e-05
2.34887e-05
1.98657e-05
4.86165e-05
0.000175268
0.000614887
0.00195928
0.0056741
0.0150804
0.0371358
0.0854876
0.185292
0.38014
0.74166
1.38214
2.46799
4.22783
6.94776
10.9498
16.5559
24.0452
33.6153
45.3566
59.2447
75.151
92.8648
112.121
132.63
154.096
176.236
198.792
221.531
244.249
266.774
288.957
310.678
331.837
352.355
372.172
391.243
409.537
427.035
443.726
459.609
474.686
488.966
502.461
515.184
527.15
538.374
548.872
558.661
567.844
576.36
584.156
591.231
597.582
603.204
608.094
612.245
615.679
617.601
619.114
620.276
621.107
621.627
621.854
621.806
621.503
620.96
620.197
619.229
618.075
616.749
615.269
613.65
611.909
610.06
608.119
606.099
604.014
601.877
599.699
597.487
595.212
592.428
0.00181863
0.000297997
6.8261e-05
2.06351e-05
8.05777e-06
4.73936e-06
5.75389e-06
1.34045e-05
3.83468e-05
0.000107568
0.000282067
0.000689342
0.00157904
0.00341198
0.00699263
0.0136595
0.0255535
0.0459741
0.0798123
0.134044
0.218289
0.345469
0.532529
0.80112
1.17801
1.69499
2.38813
3.29635
4.45946
5.91595
7.70068
9.84292
12.3646
15.2795
18.5923
22.299
26.3874
30.8377
35.624
40.7154
46.077
51.6717
57.4609
63.4054
69.4663
75.6054
81.7859
87.9725
94.1314
100.231
106.24
112.131
117.875
123.448
128.827
134.054
139.136
144.05
148.773
153.285
157.566
161.595
165.353
167.704
169.866
171.851
173.665
175.314
176.805
178.145
179.343
180.404
181.338
182.152
182.853
183.45
183.951
184.362
184.691
184.945
185.131
185.255
185.324
185.344
185.321
185.258
185.161
185.022
0.001819
0.000298044
6.8267e-05
2.05856e-05
7.73865e-06
3.4759e-06
1.8414e-06
1.22962e-06
1.225e-06
1.96213e-06
4.16951e-06
9.50118e-06
2.12257e-05
4.53793e-05
9.25105e-05
0.000180191
0.000336523
0.000604821
0.0010495
0.00176308
0.00287434
0.0045578
0.00704476
0.0106355
0.0157119
0.0227485
0.0323224
0.0451192
0.0619379
0.0836933
0.111417
0.146256
0.189472
0.242428
0.306577
0.383435
0.474548
0.58145
0.705605
0.848353
1.01085
1.19398
1.39833
1.62409
1.87101
2.13837
2.4249
2.72878
3.04758
3.37829
3.71727
4.06031
4.40257
4.73811
5.06016
5.39322
5.74147
6.10274
6.47471
6.85487
7.24061
7.62919
8.01782
8.27202
8.5179
8.75496
8.98278
9.20101
9.40944
9.60794
9.79647
9.97508
10.1439
10.303
10.4527
10.5933
10.7251
10.8484
10.9636
11.071
11.1711
11.2642
11.3509
11.4313
11.5061
11.5754
11.6398
11.7024
0.00181934
0.000298088
6.82769e-05
2.05878e-05
7.73547e-06
3.45649e-06
1.76948e-06
1.00913e-06
6.29879e-07
4.29532e-07
3.28938e-07
3.02361e-07
3.57194e-07
5.34741e-07
9.21049e-07
1.66579e-06
3.01101e-06
5.33097e-06
9.18321e-06
1.53707e-05
2.50146e-05
3.9638e-05
6.12603e-05
9.25016e-05
0.000136692
0.000197976
0.000281413
0.000393048
0.000539972
0.00073035
0.000973427
0.00127951
0.00165988
0.00212675
0.00269302
0.00337203
0.0041772
0.00512148
0.00621668
0.00747254
0.00889565
0.0104881
0.012246
0.0141573
0.0162003
0.0183409
0.0205308
0.0227046
0.0247782
0.0266466
0.0281825
0.029232
0.0296215
0.0296223
0.0297097
0.0298816
0.0301374
0.0304761
0.0308962
0.0313956
0.0319714
0.0326199
0.0333367
0.033835
0.034345
0.034863
0.0353858
0.0359106
0.0364344
0.0369548
0.0374696
0.0379767
0.0384745
0.0389616
0.0394365
0.0398985
0.0403466
0.0407803
0.0411992
0.0416029
0.0419914
0.0423647
0.0427227
0.0430658
0.0433942
0.0437082
0.0440082
0.0443128
0.00181958
0.000298119
6.82838e-05
2.05898e-05
7.73613e-06
3.45663e-06
1.76897e-06
1.007e-06
6.23577e-07
4.13005e-07
2.88893e-07
2.11492e-07
1.61137e-07
1.27609e-07
1.05548e-07
9.2398e-08
8.74939e-08
9.17474e-08
1.07672e-07
1.39614e-07
1.9411e-07
2.80332e-07
4.10628e-07
6.01125e-07
8.72383e-07
1.25005e-06
1.76547e-06
2.45621e-06
3.36642e-06
4.54704e-06
6.05577e-06
7.95677e-06
1.03199e-05
1.32198e-05
1.67336e-05
2.09391e-05
2.59103e-05
3.17126e-05
3.83961e-05
4.59864e-05
5.44742e-05
6.3801e-05
7.38442e-05
8.43996e-05
9.51637e-05
0.000105718
0.000115515
0.000123879
0.000129998
0.000132987
0.000131932
0.000130346
0.000128881
0.000127501
0.000126199
0.000124967
0.000123799
0.00012269
0.000121633
0.000120623
0.000119655
0.000118724
0.000117824
0.000117248
0.000116698
0.00011617
0.000115665
0.000115181
0.000114717
0.000114273
0.000113849
0.000113443
0.000113057
0.000112689
0.000112341
0.000112012
0.000111703
0.000111414
0.000111145
0.000110897
0.000110669
0.000110462
0.000110275
0.000110109
0.000109963
0.000109837
0.000109731
0.000109693
0.00181969
0.000298134
6.82872e-05
2.05908e-05
7.73646e-06
3.45677e-06
1.76903e-06
1.00703e-06
6.2356e-07
4.1291e-07
2.88629e-07
2.10868e-07
1.5978e-07
1.24813e-07
1.00038e-07
8.19622e-08
6.84412e-08
5.81152e-08
5.00964e-08
4.3794e-08
3.88103e-08
3.48792e-08
3.18276e-08
2.9552e-08
2.80038e-08
2.71801e-08
2.71179e-08
2.78905e-08
2.96052e-08
3.24007e-08
3.64445e-08
4.19299e-08
4.90699e-08
5.80906e-08
6.92196e-08
8.26707e-08
9.86219e-08
1.17186e-07
1.38371e-07
1.62031e-07
1.87804e-07
2.15041e-07
2.42733e-07
2.69441e-07
2.9324e-07
3.11715e-07
3.22025e-07
3.22324e-07
3.23279e-07
3.24712e-07
3.26473e-07
3.28766e-07
3.3198e-07
3.3673e-07
3.43996e-07
3.55335e-07
3.73222e-07
4.01571e-07
4.46521e-07
5.17622e-07
6.29571e-07
8.04711e-07
1.07653e-06
1.31096e-06
1.60854e-06
1.9822e-06
2.44619e-06
3.01595e-06
3.70796e-06
4.53941e-06
5.52789e-06
6.69097e-06
8.04578e-06
9.60866e-06
1.13946e-05
1.34171e-05
1.56876e-05
1.82152e-05
2.10066e-05
2.40657e-05
2.73939e-05
3.09897e-05
3.48489e-05
3.89647e-05
4.33281e-05
4.79276e-05
5.275e-05
5.77873e-05
0.00181969
0.000298134
6.82872e-05
2.05907e-05
7.73646e-06
3.45677e-06
1.76903e-06
1.00703e-06
6.2356e-07
4.12909e-07
2.88628e-07
2.10867e-07
1.59778e-07
1.24809e-07
1.0003e-07
8.19468e-08
6.84137e-08
5.80677e-08
5.00171e-08
4.36649e-08
3.86058e-08
3.45628e-08
3.13493e-08
2.88444e-08
2.69783e-08
2.57219e-08
2.50816e-08
2.50956e-08
2.58316e-08
2.73859e-08
2.98835e-08
3.34781e-08
3.83538e-08
4.4728e-08
5.28562e-08
6.30406e-08
7.56433e-08
9.11062e-08
1.09981e-07
1.32975e-07
1.61013e-07
1.95328e-07
2.37595e-07
2.90113e-07
3.56073e-07
4.39934e-07
5.47969e-07
6.89052e-07
8.75799e-07
1.12622e-06
1.46613e-06
1.93262e-06
2.57905e-06
3.48226e-06
4.75268e-06
6.54866e-06
9.09616e-06
1.27157e-05
1.78582e-05
2.51523e-05
3.54652e-05
4.99783e-05
7.02801e-05
8.67431e-05
0.000106429
0.000129765
0.000157176
0.000189085
0.0002259
0.000268007
0.000315756
0.000369456
0.000429363
0.000495678
0.000568535
0.000648006
0.000734091
0.000826726
0.000925779
0.00103106
0.00114231
0.00125922
0.00138146
0.00150863
0.0016403
0.00177603
0.00191535
0.00205792
0.00181958
0.000298119
6.82838e-05
2.05898e-05
7.73612e-06
3.45662e-06
1.76896e-06
1.007e-06
6.23557e-07
4.12952e-07
2.88767e-07
2.11208e-07
1.60538e-07
1.26401e-07
1.03212e-07
8.80533e-08
7.97075e-08
7.82499e-08
8.49628e-08
1.02449e-07
1.3487e-07
1.88264e-07
2.70933e-07
3.93893e-07
5.71382e-07
8.21392e-07
1.16622e-06
1.63297e-06
2.25406e-06
3.06759e-06
4.11776e-06
5.45518e-06
7.13728e-06
9.22885e-06
1.18028e-05
1.49415e-05
1.87385e-05
2.33015e-05
2.87563e-05
3.52531e-05
4.2975e-05
5.21499e-05
6.30667e-05
7.60978e-05
9.17287e-05
0.000110598
0.000133552
0.000161712
0.00019657
0.00024011
0.000294967
0.000364634
0.000453725
0.00056831
0.00071634
0.000908153
0.0011571
0.00148028
0.00189934
0.00244145
0.00314023
0.00403681
0.00518082
0.00605758
0.00705044
0.008167
0.00941338
0.0107945
0.0123141
0.0139746
0.015777
0.0177207
0.0198039
0.0220231
0.0243736
0.0268496
0.029444
0.0321488
0.0349553
0.0378541
0.0408353
0.0438887
0.0470039
0.0501703
0.0533778
0.056616
0.0598752
0.0631482
0.00181934
0.000298088
6.82769e-05
2.05878e-05
7.73545e-06
3.45641e-06
1.76915e-06
1.00805e-06
6.26852e-07
4.21814e-07
3.1067e-07
2.61876e-07
2.71439e-07
3.59043e-07
5.73948e-07
1.00683e-06
1.80827e-06
3.21541e-06
5.58756e-06
9.45081e-06
1.55515e-05
2.49177e-05
3.89299e-05
5.93993e-05
8.86551e-05
0.000129633
0.000185966
0.000262061
0.000363169
0.000495439
0.000665961
0.0008828
0.00115505
0.00149285
0.00190751
0.00241153
0.00301883
0.00374488
0.00460702
0.00562491
0.00682109
0.00822176
0.00985794
0.0117668
0.0139934
0.0165929
0.0196335
0.0231991
0.0273933
0.0323435
0.0382054
0.0451683
0.0534603
0.0633541
0.0751724
0.0892933
0.106155
0.12626
0.150175
0.178535
0.212031
0.251409
0.297444
0.330879
0.366824
0.405264
0.44613
0.489328
0.534752
0.582276
0.631757
0.683038
0.735946
0.790304
0.845923
0.902616
0.96019
1.01846
1.07723
1.13633
1.19558
1.25482
1.31389
1.37265
1.43096
1.4887
1.54575
1.6021
0.00181901
0.000298045
6.82673e-05
2.05853e-05
7.73638e-06
3.46543e-06
1.80467e-06
1.12132e-06
9.42096e-07
1.23663e-06
2.35707e-06
5.2122e-06
1.16615e-05
2.5217e-05
5.21471e-05
0.000103094
0.000195358
0.000356037
0.000626134
0.00106562
0.0017594
0.00282408
0.00441604
0.00674043
0.0100614
0.014712
0.0211041
0.0297352
0.0411945
0.0561664
0.0754338
0.0998796
0.13049
0.168355
0.21467
0.270731
0.337932
0.417757
0.511767
0.621589
0.748905
0.895439
1.06295
1.25324
1.46814
1.70955
1.9794
2.27973
2.61269
2.98054
3.3857
3.83077
4.31849
4.85181
5.43385
6.06786
6.75721
7.50533
8.31562
9.19136
10.1355
11.1506
12.2374
12.9843
13.7458
14.5195
15.3026
16.0929
16.8879
17.6856
18.4838
19.2803
20.0733
20.8607
21.6408
22.4121
23.173
23.9221
24.6582
25.3803
26.0873
26.7785
27.4532
28.1107
28.7507
29.3728
29.9767
30.5693
0.00181866
0.000298
6.82589e-05
2.0605e-05
7.88263e-06
4.09277e-06
3.81684e-06
7.25668e-06
1.96472e-05
5.51989e-05
0.000146928
0.00036549
0.00085216
0.00187344
0.00390521
0.0077548
0.0147342
0.0269004
0.0473661
0.0806689
0.133186
0.213604
0.333468
0.507782
0.755552
1.10011
1.569
2.19336
3.00672
4.04343
5.33679
6.91726
8.81075
11.0373
13.6103
16.5358
19.8131
23.4343
27.3861
31.6498
36.2033
41.0214
46.0774
51.3442
56.7948
62.4033
68.1455
73.9993
79.9449
85.9652
92.0458
98.1748
104.343
110.543
116.77
123.022
129.296
135.593
141.912
148.255
154.623
161.014
167.417
171.648
175.782
179.821
183.762
187.606
191.35
194.994
198.537
201.978
205.318
208.556
211.693
214.728
217.662
220.497
223.233
225.871
228.413
230.86
233.214
235.476
237.648
239.734
241.736
243.724
0.00181831
0.000297961
6.83782e-05
2.18861e-05
1.3909e-05
2.54751e-05
8.51922e-05
0.000300109
0.000973755
0.0028774
0.00780457
0.0196062
0.0460014
0.101577
0.21231
0.421892
0.800397
1.45528
2.54209
4.26941
6.89223
10.6917
15.9444
22.8867
31.6845
42.4127
55.0502
69.4876
85.5457
102.998
121.593
141.075
161.195
181.726
202.46
223.218
243.844
264.208
284.203
303.743
322.759
341.2
359.031
376.229
392.784
408.693
423.965
438.613
452.658
466.124
479.04
491.437
503.348