/*--------------------------------*- C++ -*----------------------------------*\
| =========                 |                                                 |
| \\      /  F ield         | OpenFOAM: The Open Source CFD Toolbox           |
|  \\    /   O peration     | Version:  5.x                                   |
|   \\  /    A nd           | Web:      www.OpenFOAM.org                      |
|    \\/     M anipulation  |                                                 |
\*---------------------------------------------------------------------------*/
FoamFile
{
    version     2.0;
    format      ascii;
    class       volScalarField;
    location    "800";
    object      k;
}
// * * * * * * * * * * * * * * * * * * * * * * * * * * * * * * * * * * * * * //

dimensions      [0 2 -2 0 0 0 0];

internalField   nonuniform List<scalar> 
20540
(
2.45293e-05
7.72618e-06
2.45293e-05
1.40218e-05
2.45293e-05
2.49906e-05
2.45293e-05
3.98274e-05
2.45293e-05
5.74879e-05
2.45293e-05
7.64339e-05
2.45293e-05
9.45119e-05
2.45293e-05
0.000108992
2.45293e-05
0.000116847
2.45293e-05
0.000115342
2.45293e-05
0.000102963
2.45293e-05
8.0561e-05
2.45293e-05
5.23749e-05
2.45293e-05
2.60997e-05
2.45293e-05
9.75507e-06
2.45293e-05
4.05126e-06
2.45293e-05
2.89963e-06
2.45293e-05
2.72158e-06
2.45293e-05
2.69432e-06
2.45293e-05
2.68984e-06
2.45293e-05
2.68915e-06
2.45293e-05
2.68913e-06
2.45293e-05
2.68925e-06
2.45293e-05
2.68943e-06
2.45293e-05
2.68966e-06
2.45293e-05
2.68993e-06
2.45293e-05
2.69024e-06
2.45293e-05
2.69057e-06
2.45293e-05
2.69092e-06
2.45293e-05
2.69124e-06
2.45293e-05
2.69147e-06
2.45293e-05
2.69158e-06
2.45293e-05
2.69157e-06
2.45293e-05
2.69147e-06
2.45293e-05
2.69124e-06
2.45293e-05
2.69093e-06
2.45293e-05
2.69059e-06
2.45293e-05
2.69027e-06
2.45293e-05
2.68997e-06
2.45293e-05
2.6897e-06
2.45293e-05
2.68947e-06
2.45293e-05
2.68929e-06
2.45293e-05
2.68915e-06
2.45293e-05
2.68911e-06
2.45293e-05
2.68941e-06
2.45293e-05
2.69158e-06
2.45293e-05
2.70411e-06
2.45293e-05
2.77969e-06
2.45293e-05
3.26018e-06
2.45293e-05
5.94646e-06
2.45293e-05
1.59568e-05
2.45293e-05
3.69468e-05
2.45293e-05
6.43547e-05
2.45293e-05
9.03079e-05
2.45293e-05
0.000108919
2.45293e-05
0.000117509
2.45293e-05
0.000116116
2.45293e-05
0.000106541
2.45293e-05
9.14088e-05
2.45293e-05
7.3451e-05
2.45293e-05
5.50668e-05
2.45293e-05
3.81299e-05
2.45293e-05
2.39822e-05
2.45293e-05
1.35556e-05
2.45293e-05
7.61289e-06
3.6872
3.61483
3.36348
3.18
3.04628
2.94562
2.86715
2.80408
2.75225
2.70896
2.67231
2.64095
2.61385
2.59024
2.56952
2.55124
2.53502
2.52057
2.50762
2.49598
2.48547
2.47597
2.46735
2.45951
2.45236
2.44582
2.43983
2.43433
2.42927
2.4246
2.42029
2.41632
2.41264
2.40924
2.40609
2.40317
2.40048
2.39799
2.3957
2.39359
2.39167
2.38992
2.38835
2.38697
2.38578
2.38479
2.38402
2.38348
2.38319
2.38319
2.38351
2.38417
2.38523
2.3867
2.38864
2.39109
2.39411
2.39776
2.4021
2.4072
2.41316
2.42003
2.42835
2.43482
2.44143
2.44812
2.4552
2.46268
2.47055
2.47881
2.48748
2.49655
2.50604
2.51594
2.52629
2.53709
2.54838
2.56017
2.57253
2.5855
2.59917
2.61366
2.62915
2.64596
2.66442
2.68657
2.71655
2.83072
16.8722
15.7448
14.7444
14.0726
13.592
13.2318
12.9508
12.7245
12.5381
12.382
12.2496
12.136
12.0376
11.9518
11.8763
11.8096
11.7504
11.6975
11.6501
11.6074
11.5689
11.534
11.5023
11.4735
11.4471
11.4231
11.401
11.3807
11.362
11.3448
11.3289
11.3142
11.3006
11.288
11.2763
11.2656
11.2556
11.2464
11.2379
11.2301
11.223
11.2166
11.2108
11.2058
11.2015
11.1979
11.1952
11.1934
11.1926
11.1929
11.1945
11.1974
11.2019
11.208
11.216
11.226
11.2382
11.253
11.2704
11.2909
11.3149
11.3423
11.3761
11.4029
11.4296
11.456
11.4842
11.5141
11.5457
11.5789
11.6137
11.6502
11.6883
11.7282
11.7699
11.8135
11.859
11.9067
11.9567
12.0093
12.0649
12.1238
12.187
12.2557
12.3317
12.4197
12.5263
12.5394
18.5626
18.4965
17.5394
16.8384
16.3247
15.9356
15.6304
15.3838
15.1802
15.0093
14.8642
14.7396
14.6316
14.5372
14.4543
14.3809
14.3157
14.2575
14.2052
14.1582
14.1157
14.0772
14.0423
14.0105
13.9815
13.9549
13.9305
13.9081
13.8875
13.8685
13.8509
13.8347
13.8197
13.8058
13.793
13.781
13.77
13.7599
13.7505
13.7418
13.734
13.7268
13.7204
13.7147
13.7098
13.7058
13.7026
13.7004
13.6992
13.6992
13.7005
13.7032
13.7074
13.7134
13.7213
13.7313
13.7436
13.7585
13.7761
13.7969
13.821
13.849
13.8824
13.9082
13.9353
13.9625
13.991
14.021
14.0526
14.0857
14.1203
14.1565
14.1942
14.2336
14.2745
14.3172
14.3615
14.4078
14.456
14.5063
14.5591
14.6146
14.6734
14.7364
14.8038
14.8812
14.9468
14.8777
18.4198
19.567
18.7631
18.086
17.573
17.179
16.8679
16.6156
16.4067
16.2312
16.0819
15.9535
15.8422
15.7449
15.6593
15.5835
15.5162
15.456
15.4021
15.3535
15.3096
15.2698
15.2337
15.2008
15.1707
15.1433
15.1181
15.0949
15.0736
15.0539
15.0358
15.019
15.0035
14.9891
14.9758
14.9635
14.9521
14.9415
14.9318
14.9229
14.9147
14.9072
14.9005
14.8945
14.8893
14.885
14.8815
14.8789
14.8774
14.8769
14.8777
14.8799
14.8836
14.889
14.8961
14.9053
14.9167
14.9304
14.9468
14.9662
14.9886
15.0149
15.0453
15.0682
15.0933
15.1192
15.1458
15.1736
15.2027
15.2331
15.2649
15.298
15.3323
15.368
15.4051
15.4435
15.4832
15.5244
15.5671
15.6114
15.6574
15.7053
15.7553
15.8081
15.8624
15.9232
15.9553
15.8719
17.5093
19.9419
19.3765
18.7571
18.2629
17.8757
17.567
17.3153
17.1063
16.9302
16.7802
16.651
16.5389
16.4408
16.3545
16.278
16.2101
16.1493
16.0948
16.0457
16.0014
15.9612
15.9246
15.8914
15.8611
15.8333
15.8078
15.7844
15.7629
15.743
15.7246
15.7077
15.692
15.6775
15.664
15.6515
15.64
15.6293
15.6195
15.6104
15.6021
15.5945
15.5876
15.5815
15.5761
15.5715
15.5677
15.5649
15.5629
15.562
15.5623
15.5639
15.5668
15.5713
15.5774
15.5854
15.5954
15.6076
15.6221
15.6394
15.6594
15.6829
15.7095
15.7288
15.7509
15.7742
15.7981
15.8228
15.8485
15.8752
15.9031
15.9319
15.9618
15.9928
16.0247
16.0576
16.0915
16.1264
16.1623
16.1992
16.2371
16.2761
16.3161
16.3576
16.3981
16.4416
16.4503
16.3813
16.1549
19.8904
19.6495
19.1205
18.6608
18.2896
17.9894
17.7428
17.5371
17.3632
17.2146
17.0865
16.9752
16.8777
16.7918
16.7157
16.648
16.5875
16.5331
16.4842
16.4399
16.3998
16.3634
16.3302
16.3
16.2723
16.2469
16.2235
16.202
16.1822
16.1639
16.1469
16.1313
16.1168
16.1034
16.0909
16.0794
16.0688
16.0589
16.0498
16.0415
16.0338
16.0269
16.0206
16.0151
16.0103
16.0063
16.0032
16.0008
15.9995
15.9992
16
16.0021
16.0056
16.0106
16.0172
16.0256
16.0359
16.0483
16.0631
16.0802
16.1005
16.1228
16.1383
16.1568
16.177
16.1975
16.2185
16.2404
16.263
16.2864
16.3105
16.3354
16.361
16.3873
16.4142
16.4418
16.4699
16.4985
16.5276
16.5572
16.587
16.617
16.6471
16.6746
16.7019
16.695
16.6457
14.5028
19.5043
19.68
19.2792
18.8713
18.5257
18.24
18.0027
17.8034
17.6341
17.4889
17.3635
17.2542
17.1584
17.0739
16.9989
16.9322
16.8726
16.819
16.7707
16.727
16.6874
16.6514
16.6187
16.5888
16.5614
16.5363
16.5133
16.492
16.4724
16.4543
16.4376
16.4221
16.4078
16.3946
16.3823
16.3709
16.3604
16.3506
16.3416
16.3333
16.3257
16.3188
16.3125
16.3069
16.302
16.2978
16.2943
16.2916
16.2898
16.2889
16.289
16.2902
16.2926
16.2963
16.3014
16.3081
16.3164
16.3265
16.3385
16.3525
16.3694
16.3871
16.3989
16.4135
16.43
16.4468
16.4641
16.4818
16.5
16.5187
16.5379
16.5576
16.5777
16.5982
16.619
16.64
16.6613
16.6827
16.7041
16.7254
16.7464
16.7668
16.7863
16.8019
16.815
16.7974
16.762
12.644
18.8112
19.5023
19.275
18.9401
18.6314
18.3673
18.144
17.9544
17.7922
17.6525
17.5312
17.4254
17.3324
17.2502
17.1772
17.1122
17.054
17.0017
16.9545
16.9118
16.8732
16.838
16.806
16.7767
16.75
16.7254
16.7029
16.6821
16.6629
16.6452
16.6289
16.6138
16.5998
16.5868
16.5748
16.5637
16.5533
16.5438
16.535
16.5268
16.5193
16.5124
16.5062
16.5005
16.4955
16.4912
16.4875
16.4845
16.4822
16.4807
16.48
16.4803
16.4817
16.4841
16.4877
16.4925
16.4987
16.5063
16.5156
16.5263
16.5394
16.5527
16.5609
16.5715
16.5841
16.5971
16.6103
16.6238
16.6375
16.6516
16.6658
16.6803
16.6949
16.7096
16.7244
16.7392
16.7538
16.7682
16.7823
16.7959
16.8087
16.8203
16.8302
16.8354
16.8366
16.8112
16.7811
10.6544
17.8111
19.1184
19.1205
18.8851
18.6277
18.3938
18.1902
18.0144
17.8623
17.7304
17.6153
17.5143
17.4254
17.3466
17.2765
17.214
17.1579
17.1075
17.0619
17.0207
16.9834
16.9494
16.9185
16.8902
16.8643
16.8406
16.8188
16.7987
16.7802
16.763
16.7472
16.7326
16.7191
16.7065
16.6949
16.6842
16.6742
16.6649
16.6564
16.6484
16.6411
16.6344
16.6282
16.6226
16.6176
16.6132
16.6093
16.606
16.6032
16.6012
16.5999
16.5993
16.5995
16.6006
16.6027
16.6057
16.6098
16.6149
16.6213
16.6288
16.6382
16.6471
16.652
16.6587
16.6673
16.6763
16.6855
16.6948
16.7042
16.7136
16.7231
16.7325
16.7419
16.7511
16.7602
16.769
16.7775
16.7854
16.7928
16.7993
16.8047
16.8085
16.8102
16.8066
16.7981
16.7664
16.7349
8.61112
16.4932
18.5108
18.8097
18.7079
18.5204
18.328
18.1513
17.9944
17.8563
17.735
17.6283
17.5341
17.4507
17.3766
17.3105
17.2514
17.1983
17.1504
17.1072
17.068
17.0324
17.0001
16.9706
16.9437
16.9191
16.8964
16.8756
16.8565
16.8388
16.8225
16.8074
16.7935
16.7806
16.7686
16.7576
16.7473
16.7378
16.729
16.7208
16.7132
16.7062
16.6997
16.6937
16.6883
16.6833
16.6788
16.6748
16.6713
16.6682
16.6657
16.6637
16.6622
16.6615
16.6613
16.6619
16.6631
16.6651
16.6679
16.6716
16.6759
16.6815
16.6863
16.6882
16.6913
16.696
16.7011
16.7064
16.7116
16.7168
16.7219
16.7268
16.7316
16.7361
16.7403
16.7441
16.7475
16.7503
16.7525
16.7539
16.7542
16.7532
16.7504
16.745
16.7342
16.7182
16.6812
16.6451
6.60006
14.8493
17.6478
18.3224
18.398
18.3047
18.1683
18.0283
17.897
17.7777
17.6707
17.5753
17.4902
17.4143
17.3465
17.2857
17.2311
17.182
17.1376
17.0974
17.0609
17.0278
16.9976
16.9701
16.945
16.922
16.9008
16.8814
16.8635
16.8469
16.8317
16.8176
16.8046
16.7925
16.7813
16.771
16.7614
16.7525
16.7443
16.7366
16.7295
16.7229
16.7168
16.7111
16.7058
16.701
16.6966
16.6926
16.689
16.6856
16.6827
16.6801
16.678
16.6763
16.675
16.6741
16.6738
16.6738
16.6744
16.6754
16.6767
16.6789
16.6798
16.6791
16.679
16.68
16.6814
16.683
16.6845
16.6858
16.6868
16.6876
16.6881
16.6882
16.6879
16.6871
16.6857
16.6837
16.6809
16.6771
16.6722
16.6658
16.6574
16.6463
16.6298
16.6079
16.5668
16.5259
4.71675
12.8857
16.488
17.6255
17.9334
17.9662
17.9054
17.8147
17.7178
17.6237
17.5359
17.4556
17.3827
17.3167
17.2572
17.2034
17.1549
17.111
17.0712
17.035
17.0021
16.9722
16.9449
16.92
16.8972
16.8763
16.8571
16.8394
16.8231
16.8081
16.7942
16.7814
16.7696
16.7586
16.7485
16.7391
16.7304
16.7224
16.7149
16.7079
16.7014
16.6954
16.6898
16.6845
16.6797
16.6751
16.6709
16.6671
16.6634
16.6599
16.6567
16.6537
16.651
16.6485
16.6462
16.6441
16.6423
16.6406
16.6391
16.6378
16.6363
16.6353
16.6329
16.6298
16.627
16.6249
16.623
16.6212
16.6193
16.6171
16.6146
16.6117
16.6085
16.6048
16.6006
16.5958
16.5904
16.5842
16.5772
16.5692
16.56
16.5493
16.5364
16.5208
16.4998
16.4736
16.4298
16.3853
3.06207
10.6403
14.9868
16.6736
17.2806
17.4809
17.5215
17.497
17.4463
17.386
17.3238
17.2636
17.2068
17.1541
17.1056
17.0611
17.0206
16.9835
16.9497
16.9189
16.8907
16.8649
16.8413
16.8198
16.8001
16.7819
16.7653
16.7499
16.7357
16.7227
16.7106
16.6995
16.6892
16.6797
16.6709
16.6627
16.6552
16.6482
16.6417
16.6356
16.63
16.6247
16.6198
16.6152
16.6109
16.6068
16.603
16.5994
16.5959
16.5925
16.5892
16.5859
16.5828
16.5797
16.5766
16.5736
16.5705
16.5674
16.5641
16.5607
16.5569
16.5531
16.5478
16.5428
16.5378
16.5331
16.5284
16.5237
16.5188
16.5136
16.5081
16.5021
16.4958
16.4889
16.4814
16.4734
16.4647
16.4552
16.4449
16.4335
16.4209
16.4067
16.3904
16.3713
16.3471
16.3176
16.2725
16.2265
1.73124
8.19986
13.1084
15.4101
16.3932
16.8134
16.9894
17.054
17.0652
17.0501
17.0223
16.9888
16.9535
16.9183
16.8843
16.8522
16.8222
16.7942
16.7683
16.7443
16.7223
16.7019
16.6833
16.6662
16.6504
16.6359
16.6225
16.6102
16.5988
16.5882
16.5785
16.5695
16.5612
16.5536
16.5465
16.54
16.5339
16.5283
16.5231
16.5183
16.5137
16.5095
16.5055
16.5018
16.4982
16.4948
16.4916
16.4885
16.4854
16.4822
16.479
16.4758
16.4725
16.469
16.4655
16.4617
16.4577
16.4534
16.4488
16.4437
16.438
16.4319
16.4243
16.4178
16.4111
16.4043
16.3974
16.3904
16.3831
16.3755
16.3675
16.3591
16.3502
16.3408
16.3308
16.3202
16.309
16.2969
16.284
16.2701
16.2549
16.2381
16.2193
16.1975
16.171
16.1394
16.0944
16.0483
0.796605
5.71938
10.8472
13.7742
15.2113
15.9152
16.2708
16.4545
16.5489
16.5946
16.6127
16.6151
16.6083
16.5965
16.5818
16.566
16.5498
16.5338
16.5183
16.5034
16.4894
16.4762
16.464
16.4526
16.4421
16.4323
16.4232
16.4147
16.4069
16.3996
16.3929
16.3868
16.3811
16.3758
16.371
16.3666
16.3625
16.3587
16.3552
16.3519
16.3488
16.3459
16.3432
16.3406
16.3381
16.3357
16.3333
16.3309
16.3285
16.3259
16.3231
16.3201
16.3169
16.3135
16.3097
16.3056
16.301
16.296
16.2904
16.2841
16.277
16.2693
16.2599
16.2524
16.2444
16.2363
16.2278
16.219
16.2099
16.2005
16.1907
16.1804
16.1696
16.1583
16.1464
16.1339
16.1208
16.1068
16.092
16.0762
16.0592
16.0405
16.0198
15.9962
15.9682
15.9354
15.8915
15.8465
0.277772
3.43006
8.26292
11.7159
13.6646
14.723
15.3131
15.6555
15.8615
15.9888
16.0686
16.119
16.1506
16.1698
16.181
16.1868
16.189
16.1888
16.187
16.1842
16.1807
16.177
16.1731
16.1693
16.1656
16.1619
16.1584
16.1551
16.1519
16.149
16.1462
16.1437
16.1414
16.1393
16.1374
16.1356
16.1341
16.1326
16.1313
16.1301
16.1289
16.1278
16.1268
16.1257
16.1246
16.1235
16.1223
16.1211
16.1196
16.1179
16.1159
16.1135
16.1108
16.1077
16.1041
16.1
16.0953
16.09
16.0839
16.077
16.069
16.0602
16.0497
16.0415
16.0328
16.0238
16.0143
16.0045
15.9942
15.9836
15.9725
15.9609
15.9488
15.9362
15.9231
15.9093
15.8948
15.8796
15.8634
15.8463
15.8279
15.808
15.786
15.7612
15.7324
15.6991
15.6571
15.6138
0.0744748
1.61208
5.52857
9.22958
11.6843
13.1606
14.0481
14.5987
14.9535
15.1902
15.3531
15.4681
15.5511
15.6121
15.6577
15.6925
15.7192
15.7401
15.7566
15.7697
15.7803
15.7889
15.7962
15.8023
15.8075
15.812
15.8158
15.8192
15.8222
15.8248
15.8272
15.8295
15.8316
15.8336
15.8355
15.8373
15.839
15.8406
15.8422
15.8436
15.845
15.8462
15.8473
15.8483
15.8491
15.8498
15.8503
15.8505
15.8505
15.8501
15.8492
15.8479
15.8461
15.8437
15.8408
15.8372
15.8328
15.8277
15.8216
15.8146
15.8064
15.7971
15.7862
15.7778
15.7688
15.7594
15.7495
15.7391
15.7282
15.7169
15.7051
15.6928
15.6799
15.6665
15.6526
15.638
15.6227
15.6066
15.5896
15.5716
15.5524
15.5315
15.5087
15.4831
15.4541
15.4211
15.3815
15.3402
0.016696
0.510455
2.97603
6.41604
9.23399
11.1493
12.3932
13.2089
13.7588
14.1413
14.4155
14.6175
14.7698
14.887
14.9791
15.0526
15.1123
15.1614
15.2022
15.2366
15.2659
15.2911
15.3131
15.3324
15.3494
15.3646
15.3782
15.3904
15.4014
15.4115
15.4207
15.4292
15.4371
15.4445
15.4514
15.4578
15.4639
15.4695
15.4748
15.4798
15.4844
15.4887
15.4927
15.4964
15.4997
15.5028
15.5055
15.5078
15.5097
15.5112
15.512
15.5122
15.5118
15.5108
15.509
15.5063
15.5029
15.4985
15.493
15.4865
15.4786
15.4695
15.4588
15.4505
15.4416
15.4323
15.4223
15.4118
15.4008
15.3893
15.3772
15.3646
15.3515
15.3377
15.3234
15.3083
15.2926
15.276
15.2586
15.24
15.2202
15.1988
15.1754
15.1496
15.1208
15.0887
15.0517
15.0124
0.00327032
0.102652
1.08563
3.57644
6.37984
8.64168
10.2644
11.3968
12.1937
12.7664
13.1883
13.5065
13.7519
13.945
14.0996
14.2255
14.3296
14.4165
14.4901
14.553
14.6073
14.6547
14.6964
14.7333
14.7662
14.7956
14.8221
14.846
14.8678
14.8876
14.9059
14.9227
14.9383
14.9528
14.9663
14.9788
14.9906
15.0015
15.0118
15.0214
15.0304
15.0387
15.0465
15.0537
15.0604
15.0666
15.0723
15.0774
15.0819
15.0859
15.0891
15.0915
15.0932
15.094
15.0939
15.0929
15.0909
15.0878
15.0836
15.0781
15.0711
15.0628
15.053
15.0452
15.0368
15.0278
15.0182
15.008
14.9972
14.9859
14.9739
14.9614
14.9482
14.9345
14.92
14.9048
14.8889
14.8721
14.8543
14.8355
14.8153
14.7936
14.77
14.7443
14.7161
14.6853
14.6509
14.6135
0.00055791
0.0153112
0.221556
1.30664
3.42206
5.70614
7.61854
9.0779
10.1631
10.9723
11.5842
12.0552
12.4245
12.719
12.9578
13.1543
13.3181
13.4563
13.574
13.6754
13.7635
13.8407
13.9089
13.9694
14.0235
14.072
14.1158
14.1554
14.1915
14.2245
14.2548
14.2827
14.3086
14.3325
14.3547
14.3755
14.3948
14.4128
14.4296
14.4453
14.46
14.4738
14.4866
14.4986
14.5097
14.5201
14.5297
14.5385
14.5466
14.5539
14.5603
14.5658
14.5702
14.5737
14.5761
14.5774
14.5775
14.5764
14.574
14.5702
14.5648
14.558
14.5495
14.5426
14.5349
14.5267
14.5178
14.5081
14.4979
14.4869
14.4754
14.4631
14.4502
14.4366
14.4222
14.4071
14.3911
14.3742
14.3563
14.3373
14.317
14.2952
14.2717
14.2464
14.2192
14.1899
14.1581
14.1223
7.91406e-05
0.00191098
0.0276518
0.24407
1.09889
2.71147
4.56871
6.23484
7.59222
8.66311
9.50263
10.1651
10.694
11.1217
11.4721
11.7628
12.0069
12.214
12.3913
12.5447
12.6784
12.7959
12.8998
12.9922
13.0749
13.1491
13.2162
13.277
13.3324
13.3831
13.4295
13.4724
13.5119
13.5485
13.5825
13.6141
13.6435
13.6709
13.6965
13.7205
13.7428
13.7637
13.7833
13.8016
13.8187
13.8347
13.8496
13.8634
13.8762
13.888
13.8987
13.9082
13.9165
13.9235
13.9293
13.9337
13.9368
13.9385
13.9387
13.9373
13.9341
13.9293
13.9228
13.9172
13.9106
13.9034
13.8953
13.8866
13.877
13.8667
13.8557
13.844
13.8314
13.8181
13.8039
13.7889
13.773
13.7562
13.7382
13.7192
13.6989
13.6773
13.6542
13.6296
13.6035
13.576
13.5465
13.5122
7.77969e-06
0.000200817
0.00268107
0.025121
0.162166
0.660205
1.69602
3.09761
4.53203
5.80049
6.86167
7.73637
8.4554
9.04823
9.54068
9.95365
10.3032
10.6017
10.8587
11.0817
11.2767
11.4484
11.6004
11.7359
11.8572
11.9663
12.0648
12.1543
12.2358
12.3103
12.3786
12.4416
12.4996
12.5533
12.6031
12.6494
12.6924
12.7325
12.7699
12.8048
12.8375
12.868
12.8967
12.9235
12.9486
12.9721
12.9941
13.0146
13.0337
13.0514
13.0679
13.0829
13.0963
13.1082
13.1185
13.1272
13.1343
13.1397
13.1434
13.1452
13.1451
13.1431
13.1391
13.1351
13.1301
13.1241
13.1173
13.1096
13.101
13.0916
13.0813
13.0701
13.0581
13.0452
13.0314
13.0166
13.0009
12.9842
12.9664
12.9475
12.9275
12.9062
12.8837
12.8601
12.8354
12.8096
12.7823
12.7493
8.15764e-07
1.70366e-05
0.000216103
0.0019353
0.0130158
0.0677829
0.265581
0.74735
1.56405
2.6122
3.7161
4.74248
5.63816
6.40342
7.05658
7.61611
8.09706
8.5119
8.87148
9.1851
9.46046
9.70378
9.92
10.1131
10.2863
10.4423
10.5833
10.7114
10.828
10.9347
11.0326
11.1226
11.2056
11.2824
11.3535
11.4196
11.481
11.5382
11.5916
11.6414
11.688
11.7317
11.7725
11.8109
11.8468
11.8805
11.912
11.9416
11.9692
11.995
12.019
12.0413
12.0617
12.0801
12.0965
12.111
12.1235
12.1339
12.1423
12.1485
12.1524
12.154
12.1535
12.1517
12.1485
12.1443
12.1391
12.1328
12.1254
12.1171
12.1078
12.0975
12.0861
12.0738
12.0605
12.0462
12.0309
12.0145
11.9971
11.9786
11.9591
11.9386
11.917
11.8946
11.8714
11.8475
11.8222
11.7905
4.75378e-07
1.04392e-06
1.40651e-05
0.000122061
0.000793186
0.00414573
0.0181078
0.0664751
0.20104
0.489331
0.971476
1.63109
2.40341
3.20767
3.97844
4.67911
5.29866
5.84155
6.31818
6.73917
7.11326
7.44712
7.74599
8.01417
8.25542
8.47308
8.67013
8.84915
9.01239
9.16177
9.29889
9.42512
9.54163
9.64941
9.74931
9.84208
9.92837
10.0088
10.0838
10.1538
10.2193
10.2807
10.3381
10.392
10.4426
10.49
10.5345
10.5763
10.6154
10.652
10.6863
10.7182
10.748
10.7752
10.7999
10.8221
10.8418
10.859
10.8737
10.8857
10.8951
10.9017
10.9057
10.9067
10.9062
10.9043
10.9012
10.8968
10.8912
10.8844
10.8765
10.8674
10.8572
10.8459
10.8335
10.82
10.8054
10.7898
10.7732
10.7556
10.7371
10.7177
10.6975
10.6767
10.6552
10.6333
10.61
10.5798
4.64348e-07
1.43706e-07
6.94453e-07
6.16464e-06
3.91182e-05
0.000198579
0.000853909
0.00319322
0.0105543
0.0310582
0.0812122
0.186578
0.374468
0.662084
1.04927
1.51912
2.04377
2.59197
3.13583
3.65479
4.13649
4.57572
4.97235
5.32931
5.65088
5.94167
6.20588
6.44712
6.66835
6.87191
7.05972
7.23336
7.39414
7.54321
7.68159
7.81019
7.92985
8.04131
8.14527
8.24234
8.3331
8.41804
8.49762
8.57225
8.64228
8.70803
8.76978
8.82777
8.88222
8.9333
8.98118
9.02598
9.06791
9.10703
9.14291
9.17561
9.20515
9.23154
9.25476
9.27478
9.29154
9.30501
9.31525
9.32028
9.32335
9.32481
9.32472
9.32313
9.32008
9.31562
9.30981
9.30269
9.29429
9.28467
9.27387
9.26193
9.24889
9.2348
9.21973
9.20374
9.18691
9.16931
9.15106
9.13224
9.11298
9.09328
9.07242
9.04444
4.64147e-07
1.15592e-07
5.6144e-08
2.39398e-07
1.51488e-06
7.56864e-06
3.18333e-05
0.000116984
0.000383299
0.00113552
0.00307756
0.00769511
0.0178611
0.0385705
0.0773091
0.143356
0.245859
0.391499
0.582888
0.818234
1.09202
1.39617
1.72133
2.05798
2.39733
2.73198
3.05614
3.36569
3.65807
3.93196
4.18702
4.42366
4.64272
4.84535
5.03281
5.20644
5.36749
5.51716
5.65654
5.78662
5.90825
6.0222
6.12912
6.22959
6.32409
6.41306
6.49686
6.57581
6.65019
6.72023
6.78613
6.84808
6.90622
6.96092
7.01197
7.059
7.10205
7.14117
7.17635
7.20758
7.23483
7.25807
7.27736
7.28815
7.29657
7.30299
7.30751
7.3102
7.31114
7.31042
7.30811
7.3043
7.29905
7.29243
7.28453
7.27542
7.26517
7.25387
7.2416
7.22844
7.21448
7.19982
7.18456
7.16879
7.1526
7.136
7.11843
7.09422
4.64221e-07
1.14994e-07
3.86124e-08
2.10626e-08
4.84055e-08
2.21351e-07
9.1926e-07
3.33047e-06
1.07638e-05
3.15409e-05
8.48541e-05
0.000211646
0.000493614
0.00108413
0.00225425
0.00445757
0.00841707
0.0152231
0.0264061
0.0439313
0.0700793
0.107216
0.157499
0.222598
0.303494
0.400403
0.512803
0.639547
0.77902
0.929293
1.08827
1.25383
1.42389
1.5965
1.76989
1.9425
2.11298
2.2802
2.44327
2.60146
2.75423
2.90122
3.04218
3.17695
3.30551
3.42786
3.54409
3.65431
3.75867
3.85732
3.95043
4.03817
4.12072
4.19823
4.27134
4.33955
4.40257
4.46046
4.51325
4.56098
4.60366
4.64128
4.67391
4.69317
4.70957
4.72345
4.73496
4.74424
4.75141
4.7566
4.75994
4.76154
4.76151
4.75998
4.75704
4.75282
4.74741
4.74092
4.73345
4.7251
4.71596
4.70613
4.69569
4.68473
4.67332
4.6615
4.649
4.63184
4.64306e-07
1.15001e-07
3.82934e-08
1.61707e-08
8.77853e-09
8.75157e-09
2.16291e-08
7.16993e-08
2.27245e-07
6.58756e-07
1.75665e-06
4.35006e-06
1.00882e-05
2.20655e-05
4.57774e-05
9.05212e-05
0.000171393
0.000312001
0.000547882
0.000930547
0.00153217
0.00245109
0.00381791
0.00580155
0.00861354
0.0125089
0.0177822
0.0247575
0.0337746
0.0451712
0.0592636
0.0763295
0.096592
0.120209
0.147266
0.177775
0.211677
0.248849
0.289111
0.332233
0.377952
0.425975
0.475991
0.52768
0.580717
0.634777
0.689543
0.744706
0.799967
0.855041
0.909654
0.963546
1.01647
1.0682
1.11851
1.16761
1.2155
1.26196
1.30679
1.3498
1.39079
1.42959
1.46603
1.48893
1.5101
1.52965
1.54763
1.5641
1.57911
1.59273
1.60503
1.61607
1.62592
1.63464
1.6423
1.64898
1.65474
1.65965
1.66377
1.66718
1.66992
1.67206
1.67366
1.67477
1.67544
1.67572
1.67565
1.67495
4.64394e-07
1.15018e-07
3.82949e-08
1.60993e-08
8.10163e-09
4.70994e-09
3.21587e-09
3.0067e-09
4.72014e-09
1.07172e-08
2.66225e-08
6.44085e-08
1.47824e-07
3.21288e-07
6.63583e-07
1.30793e-06
2.47043e-06
4.48869e-06
7.87176e-06
1.33611e-05
2.20035e-05
3.52364e-05
5.49881e-05
8.37897e-05
0.000124894
0.000182388
0.000261299
0.000367671
0.000508632
0.00069244
0.000928509
0.00122742
0.00160091
0.00206178
0.00262381
0.0033015
0.00410984
0.00506386
0.00617819
0.00746655
0.00894111
0.0106119
0.0124862
0.0145679
0.0168569
0.0193489
0.0220343
0.0248986
0.0279214
0.0310769
0.0343332
0.0376526
0.0409916
0.0442958
0.0475027
0.0508228
0.0542923
0.0578919
0.0616002
0.0653942
0.0692495
0.0731404
0.0770401
0.0795948
0.0820699
0.0844604
0.0867618
0.0889707
0.0910847
0.0931022
0.0950225
0.096846
0.0985733
0.100206
0.101746
0.103196
0.104559
0.105838
0.107036
0.108157
0.109205
0.110184
0.111097
0.111948
0.112741
0.113481
0.114169
0.114835
4.64477e-07
1.15034e-07
3.83002e-08
1.61007e-08
8.09498e-09
4.66085e-09
2.97444e-09
2.05753e-09
1.52858e-09
1.23732e-09
1.1531e-09
1.34613e-09
2.0185e-09
3.57748e-09
6.75868e-09
1.28121e-08
2.37671e-08
4.27919e-08
7.46608e-08
1.26334e-07
2.07652e-07
3.32144e-07
5.17957e-07
7.88891e-07
1.1755e-06
1.71619e-06
2.45833e-06
3.45908e-06
4.78621e-06
6.51857e-06
8.74639e-06
1.15712e-05
1.51055e-05
1.94717e-05
2.4801e-05
3.12304e-05
3.88996e-05
4.79457e-05
5.84969e-05
7.0664e-05
8.45292e-05
0.000100134
0.000117462
0.000136422
0.000156829
0.000178379
0.000200625
0.000222956
0.00024457
0.000264459
0.000281383
0.00029383
0.000300077
0.000302574
0.000305767
0.000309657
0.000314252
0.000319559
0.000325574
0.000332288
0.000339683
0.000347733
0.0003564
0.000362341
0.000368351
0.000374397
0.00038045
0.000386483
0.00039247
0.000398389
0.00040422
0.000409944
0.000415546
0.000421012
0.000426331
0.000431495
0.000436498
0.000441333
0.000445998
0.000450491
0.000454811
0.00045896
0.000462939
0.000466751
0.000470399
0.000473886
0.000477219
0.000480578
4.64535e-07
1.15046e-07
3.8304e-08
1.61022e-08
8.09564e-09
4.66087e-09
2.97273e-09
2.04962e-09
1.50053e-09
1.15141e-09
9.17572e-10
7.54993e-10
6.40058e-10
5.60712e-10
5.12721e-10
4.98551e-10
5.27839e-10
6.19053e-10
8.02142e-10
1.12212e-09
1.64355e-09
2.45585e-09
3.67939e-09
5.47227e-09
8.0375e-09
1.16304e-08
1.65655e-08
2.32234e-08
3.20552e-08
4.35865e-08
5.84181e-08
7.72247e-08
1.00749e-07
1.29791e-07
1.65193e-07
2.0781e-07
2.58476e-07
3.17953e-07
3.86859e-07
4.65579e-07
5.54152e-07
6.52131e-07
7.58418e-07
8.71081e-07
9.87161e-07
1.10249e-06
1.21155e-06
1.3074e-06
1.38158e-06
1.42473e-06
1.42696e-06
1.42303e-06
1.41959e-06
1.41632e-06
1.41318e-06
1.41015e-06
1.40719e-06
1.40428e-06
1.40137e-06
1.39844e-06
1.39546e-06
1.39238e-06
1.38919e-06
1.38705e-06
1.3849e-06
1.38274e-06
1.38056e-06
1.37838e-06
1.3762e-06
1.37403e-06
1.37187e-06
1.36975e-06
1.36767e-06
1.36564e-06
1.36367e-06
1.36178e-06
1.35999e-06
1.35829e-06
1.35671e-06
1.35525e-06
1.35392e-06
1.35273e-06
1.35168e-06
1.35078e-06
1.35004e-06
1.34945e-06
1.34901e-06
1.34926e-06
4.64562e-07
1.15052e-07
3.83058e-08
1.61029e-08
8.09599e-09
4.66106e-09
2.97284e-09
2.04966e-09
1.50043e-09
1.15093e-09
9.16125e-10
7.51233e-10
6.3113e-10
5.40952e-10
4.71503e-10
4.1688e-10
3.7318e-10
3.37765e-10
3.08844e-10
2.85206e-10
2.66081e-10
2.51036e-10
2.39934e-10
2.32905e-10
2.30337e-10
2.32879e-10
2.41447e-10
2.57238e-10
2.81732e-10
3.16703e-10
3.64204e-10
4.26555e-10
5.06297e-10
6.06127e-10
7.28788e-10
8.76911e-10
1.05278e-09
1.25803e-09
1.49321e-09
1.75724e-09
2.04675e-09
2.35527e-09
2.6724e-09
2.98296e-09
3.26633e-09
3.49622e-09
3.64116e-09
3.6795e-09
3.72343e-09
3.7714e-09
3.82206e-09
3.87767e-09
3.94248e-09
4.02318e-09
4.13039e-09
4.28098e-09
4.50164e-09
4.8344e-09
5.34506e-09
6.13564e-09
7.36271e-09
9.26377e-09
1.21939e-08
1.47122e-08
1.78994e-08
2.18915e-08
2.68378e-08
3.29002e-08
4.02512e-08
4.90703e-08
5.95411e-08
7.18466e-08
8.61651e-08
1.02666e-07
1.21506e-07
1.42823e-07
1.66736e-07
1.93339e-07
2.22699e-07
2.54857e-07
2.89825e-07
3.27586e-07
3.68095e-07
4.1128e-07
4.57045e-07
5.05269e-07
5.55814e-07
6.08594e-07
4.64562e-07
1.15052e-07
3.83058e-08
1.61029e-08
8.09599e-09
4.66106e-09
2.97284e-09
2.04966e-09
1.50042e-09
1.15093e-09
9.16122e-10
7.51227e-10
6.31117e-10
5.40922e-10
4.71442e-10
4.16762e-10
3.72958e-10
3.37369e-10
3.08158e-10
2.8406e-10
2.64222e-10
2.48107e-10
2.35435e-10
2.26157e-10
2.20436e-10
2.18646e-10
2.21378e-10
2.29448e-10
2.43908e-10
2.66065e-10
2.97495e-10
3.40063e-10
3.95951e-10
4.67699e-10
5.58264e-10
6.71114e-10
8.10372e-10
9.81034e-10
1.18929e-09
1.443e-09
1.75238e-09
2.13098e-09
2.59707e-09
3.17566e-09
3.90128e-09
4.82207e-09
6.00553e-09
7.54689e-09
9.58115e-09
1.23005e-08
1.59797e-08
2.10121e-08
2.79623e-08
3.7641e-08
5.12102e-08
7.03316e-08
9.73709e-08
1.35676e-07
1.89948e-07
2.66728e-07
3.75019e-07
5.27075e-07
7.3934e-07
9.11231e-07
1.1165e-06
1.35952e-06
1.64465e-06
1.97622e-06
2.35838e-06
2.79507e-06
3.28986e-06
3.84588e-06
4.46573e-06
5.15142e-06
5.90429e-06
6.72504e-06
7.61364e-06
8.56938e-06
9.59089e-06
1.06761e-05
1.18225e-05
1.30269e-05
1.42857e-05
1.55948e-05
1.69499e-05
1.83465e-05
1.97797e-05
2.1246e-05
4.64534e-07
1.15046e-07
3.83039e-08
1.61022e-08
8.09564e-09
4.66086e-09
2.97272e-09
2.0496e-09
1.50045e-09
1.15116e-09
9.16888e-10
7.53286e-10
6.36112e-10
5.52176e-10
4.95292e-10
4.64714e-10
4.65014e-10
5.06958e-10
6.09216e-10
8.00816e-10
1.12431e-09
1.63965e-09
2.42866e-09
3.60015e-09
5.29555e-09
7.69484e-09
1.10227e-08
1.55545e-08
2.16221e-08
2.96187e-08
4.00038e-08
5.33077e-08
7.01364e-08
9.11774e-08
1.17208e-07
1.4911e-07
1.87883e-07
2.34679e-07
2.90843e-07
3.5797e-07
4.37996e-07
5.33315e-07
6.46947e-07
7.82766e-07
9.45802e-07
1.14265e-06
1.382e-06
1.67538e-06
2.03809e-06
2.49041e-06
3.05928e-06
3.78032e-06
4.70055e-06
5.88176e-06
7.40474e-06
9.37449e-06
1.19264e-05
1.52337e-05
1.95155e-05
2.50465e-05
3.21663e-05
4.12902e-05
5.29187e-05
6.18231e-05
7.18979e-05
8.32186e-05
9.58462e-05
0.000109829
0.000125205
0.000141996
0.000160211
0.000179845
0.000200878
0.000223274
0.000246986
0.000271954
0.000298107
0.000325365
0.000353638
0.000382834
0.000412851
0.000443587
0.000474938
0.000506799
0.000539066
0.000571636
0.000604411
0.000637319
4.64477e-07
1.15034e-07
3.83002e-08
1.61007e-08
8.09495e-09
4.66065e-09
2.97343e-09
2.05351e-09
1.51493e-09
1.19673e-09
1.04462e-09
1.08009e-09
1.41163e-09
2.27773e-09
4.12433e-09
7.72582e-09
1.43613e-08
2.60592e-08
4.59237e-08
7.85501e-08
1.30532e-07
2.11059e-07
3.32611e-07
5.11737e-07
7.69933e-07
1.13455e-06
1.63974e-06
2.32732e-06
3.2476e-06
4.46001e-06
6.03375e-06
8.04824e-06
1.05937e-05
1.37715e-05
1.76954e-05
2.24917e-05
2.83014e-05
3.52815e-05
4.36085e-05
5.34815e-05
6.51287e-05
7.88147e-05
9.48509e-05
0.000113609
0.000135538
0.000161187
0.000191227
0.000226489
0.000267992
0.00031699
0.000375015
0.000443925
0.000525961
0.000623802
0.000740615
0.000880112
0.0010466
0.00124499
0.00148086
0.00176042
0.00209044
0.00247823
0.00293138
0.00326033
0.00361378
0.00399157
0.00439299
0.00481714
0.00526295
0.0057292
0.00621446
0.00671719
0.0072357
0.00776823
0.00831296
0.00886804
0.00943159
0.0100018
0.0105768
0.0111548
0.0117342
0.0123133
0.0128907
0.0134649
0.0140346
0.0145986
0.0151559
0.015706
4.64397e-07
1.15019e-07
3.82951e-08
1.60989e-08
8.09738e-09
4.6832e-09
3.08967e-09
2.52581e-09
3.14419e-09
6.15364e-09
1.46537e-08
3.54305e-08
8.22293e-08
1.81262e-07
3.79924e-07
7.59816e-07
1.45546e-06
2.68031e-06
4.76149e-06
8.18361e-06
1.36417e-05
2.21034e-05
3.48818e-05
5.37195e-05
8.0883e-05
0.00011926
0.000172454
0.000244869
0.000341774
0.00046936
0.000634784
0.000846201
0.0011128
0.00144482
0.00185356
0.00235136
0.0029516
0.00366855
0.00451734
0.00551383
0.00667449
0.00801631
0.00955671
0.0113135
0.0133049
0.0155497
0.0180671
0.0208772
0.024001
0.0274606