/*--------------------------------*- C++ -*----------------------------------*\
| =========                 |                                                 |
| \\      /  F ield         | OpenFOAM: The Open Source CFD Toolbox           |
|  \\    /   O peration     | Version:  5.x                                   |
|   \\  /    A nd           | Web:      www.OpenFOAM.org                      |
|    \\/     M anipulation  |                                                 |
\*---------------------------------------------------------------------------*/
FoamFile
{
    version     2.0;
    format      ascii;
    class       volScalarField;
    location    "800";
    object      nut;
}
// * * * * * * * * * * * * * * * * * * * * * * * * * * * * * * * * * * * * * //

dimensions      [0 2 -1 0 0 0 0];

internalField   nonuniform List<scalar> 
20540
(
2.10937e-10
3.19305e-11
2.10937e-10
6.41894e-11
2.10937e-10
1.51953e-10
2.10937e-10
3.20505e-10
2.10937e-10
5.98098e-10
2.10937e-10
1.00807e-09
2.10937e-10
1.5575e-09
2.10937e-10
2.2204e-09
2.10937e-10
2.91642e-09
2.10937e-10
3.49078e-09
2.10937e-10
3.71132e-09
2.10937e-10
3.32428e-09
2.10937e-10
2.25745e-09
2.10937e-10
9.73915e-10
2.10937e-10
2.46149e-10
2.10937e-10
6.78769e-11
2.10937e-10
4.1472e-11
2.10937e-10
3.77891e-11
2.10937e-10
3.72332e-11
2.10937e-10
3.71414e-11
2.10937e-10
3.71269e-11
2.10937e-10
3.71259e-11
2.10937e-10
3.71274e-11
2.10937e-10
3.71298e-11
2.10937e-10
3.71328e-11
2.10937e-10
3.71364e-11
2.10937e-10
3.71404e-11
2.10937e-10
3.71448e-11
2.10937e-10
3.71494e-11
2.10937e-10
3.71536e-11
2.10937e-10
3.71566e-11
2.10937e-10
3.7158e-11
2.10937e-10
3.7158e-11
2.10937e-10
3.71566e-11
2.10937e-10
3.71536e-11
2.10937e-10
3.71495e-11
2.10937e-10
3.71451e-11
2.10937e-10
3.71408e-11
2.10937e-10
3.71368e-11
2.10937e-10
3.71333e-11
2.10937e-10
3.71303e-11
2.10937e-10
3.71279e-11
2.10937e-10
3.71261e-11
2.10937e-10
3.71259e-11
2.10937e-10
3.71326e-11
2.10937e-10
3.71771e-11
2.10937e-10
3.74328e-11
2.10937e-10
3.89796e-11
2.10937e-10
4.92775e-11
2.10937e-10
1.19486e-10
2.10937e-10
4.97766e-10
2.10937e-10
1.51853e-09
2.10937e-10
2.77992e-09
2.10937e-10
3.58122e-09
2.10937e-10
3.72363e-09
2.10937e-10
3.3683e-09
2.10937e-10
2.75294e-09
2.10937e-10
2.07071e-09
2.10937e-10
1.44399e-09
2.10937e-10
9.33114e-10
2.10937e-10
5.54552e-10
2.10937e-10
2.98543e-10
2.10937e-10
1.42715e-10
2.10937e-10
6.11691e-11
2.10937e-10
3.09351e-11
1.75437e-06
1.71994e-06
1.60035e-06
1.51305e-06
1.44942e-06
1.40153e-06
1.36419e-06
1.33418e-06
1.30952e-06
1.28892e-06
1.27149e-06
1.25656e-06
1.24367e-06
1.23244e-06
1.22258e-06
1.21388e-06
1.20617e-06
1.19929e-06
1.19313e-06
1.18759e-06
1.18259e-06
1.17807e-06
1.17397e-06
1.17023e-06
1.16683e-06
1.16372e-06
1.16087e-06
1.15825e-06
1.15585e-06
1.15363e-06
1.15158e-06
1.14968e-06
1.14793e-06
1.14632e-06
1.14482e-06
1.14343e-06
1.14215e-06
1.14097e-06
1.13987e-06
1.13887e-06
1.13796e-06
1.13712e-06
1.13638e-06
1.13572e-06
1.13515e-06
1.13468e-06
1.13432e-06
1.13406e-06
1.13392e-06
1.13392e-06
1.13408e-06
1.13439e-06
1.13489e-06
1.13559e-06
1.13652e-06
1.13768e-06
1.13912e-06
1.14086e-06
1.14292e-06
1.14535e-06
1.14818e-06
1.15146e-06
1.15541e-06
1.15849e-06
1.16164e-06
1.16482e-06
1.16819e-06
1.17175e-06
1.17549e-06
1.17943e-06
1.18355e-06
1.18787e-06
1.19238e-06
1.1971e-06
1.20202e-06
1.20716e-06
1.21253e-06
1.21815e-06
1.22402e-06
1.2302e-06
1.2367e-06
1.2436e-06
1.25097e-06
1.25897e-06
1.26776e-06
1.2783e-06
1.29256e-06
1.34689e-06
3.45366e-05
3.84426e-05
3.80435e-05
3.73616e-05
3.67648e-05
3.62759e-05
3.58758e-05
3.55442e-05
3.52655e-05
3.50284e-05
3.48249e-05
3.46487e-05
3.4495e-05
3.43599e-05
3.42406e-05
3.41347e-05
3.40403e-05
3.39557e-05
3.38797e-05
3.38111e-05
3.3749e-05
3.36927e-05
3.36415e-05
3.35949e-05
3.35522e-05
3.35132e-05
3.34774e-05
3.34444e-05
3.34141e-05
3.33861e-05
3.33602e-05
3.33363e-05
3.33141e-05
3.32936e-05
3.32747e-05
3.32571e-05
3.32408e-05
3.32257e-05
3.32117e-05
3.31988e-05
3.3187e-05
3.31761e-05
3.31662e-05
3.31574e-05
3.31495e-05
3.31426e-05
3.31368e-05
3.31322e-05
3.31287e-05
3.31265e-05
3.31258e-05
3.31266e-05
3.31292e-05
3.31336e-05
3.31401e-05
3.31488e-05
3.31599e-05
3.31737e-05
3.31903e-05
3.32101e-05
3.3233e-05
3.32607e-05
3.32901e-05
3.33095e-05
3.33344e-05
3.33623e-05
3.33902e-05
3.34187e-05
3.34481e-05
3.34787e-05
3.35103e-05
3.3543e-05
3.35767e-05
3.36114e-05
3.3647e-05
3.36836e-05
3.37211e-05
3.37595e-05
3.37987e-05
3.38388e-05
3.38796e-05
3.39212e-05
3.39634e-05
3.40072e-05
3.40482e-05
3.41025e-05
3.41184e-05
3.42617e-05
6.18506e-05
7.57064e-05
7.7131e-05
7.67446e-05
7.61039e-05
7.54866e-05
7.49448e-05
7.4479e-05
7.40785e-05
7.37325e-05
7.3432e-05
7.31697e-05
7.29394e-05
7.27361e-05
7.25558e-05
7.23953e-05
7.22518e-05
7.21231e-05
7.20073e-05
7.19026e-05
7.18077e-05
7.17217e-05
7.16434e-05
7.1572e-05
7.15068e-05
7.14471e-05
7.13923e-05
7.13419e-05
7.12955e-05
7.12527e-05
7.12131e-05
7.11766e-05
7.11427e-05
7.11114e-05
7.10824e-05
7.10555e-05
7.10305e-05
7.10073e-05
7.09858e-05
7.09658e-05
7.09472e-05
7.09299e-05
7.09139e-05
7.08991e-05
7.08855e-05
7.08729e-05
7.08615e-05
7.08511e-05
7.08417e-05
7.08332e-05
7.08258e-05
7.08196e-05
7.08145e-05
7.08106e-05
7.0808e-05
7.08067e-05
7.08067e-05
7.08082e-05
7.08109e-05
7.08153e-05
7.082e-05
7.08303e-05
7.08288e-05
7.08156e-05
7.08179e-05
7.08307e-05
7.08404e-05
7.08476e-05
7.08534e-05
7.08583e-05
7.08623e-05
7.08653e-05
7.08673e-05
7.08681e-05
7.08674e-05
7.0865e-05
7.08607e-05
7.08539e-05
7.08443e-05
7.08313e-05
7.0814e-05
7.07915e-05
7.07615e-05
7.07244e-05
7.06645e-05
7.06169e-05
7.04528e-05
7.09426e-05
8.7902e-05
0.000115109
0.00011998
0.000120504
0.00012009
0.000119479
0.00011887
0.000118315
0.000117821
0.000117384
0.000117
0.00011666
0.000116359
0.000116092
0.000115854
0.000115641
0.00011545
0.000115279
0.000115124
0.000114984
0.000114857
0.000114742
0.000114637
0.000114541
0.000114454
0.000114374
0.000114301
0.000114233
0.000114171
0.000114113
0.00011406
0.000114011
0.000113966
0.000113924
0.000113885
0.000113849
0.000113816
0.000113785
0.000113756
0.000113729
0.000113703
0.000113679
0.000113657
0.000113636
0.000113616
0.000113597
0.000113579
0.000113562
0.000113544
0.000113527
0.000113511
0.000113494
0.000113477
0.000113461
0.000113443
0.000113426
0.000113407
0.000113388
0.000113367
0.000113344
0.000113318
0.000113296
0.000113247
0.000113188
0.00011315
0.00011313
0.000113107
0.000113078
0.000113045
0.000113008
0.000112967
0.000112922
0.000112874
0.000112821
0.000112764
0.000112702
0.000112634
0.00011256
0.000112479
0.00011239
0.000112291
0.000112181
0.000112055
0.000111914
0.000111735
0.000111569
0.000111289
0.000112216
0.000112862
0.000157168
0.000167678
0.000170045
0.000170293
0.000169917
0.000169372
0.000168808
0.000168273
0.000167783
0.00016734
0.000166941
0.000166584
0.000166263
0.000165976
0.000165717
0.000165484
0.000165274
0.000165084
0.000164912
0.000164756
0.000164613
0.000164484
0.000164365
0.000164257
0.000164158
0.000164068
0.000163984
0.000163907
0.000163836
0.000163771
0.00016371
0.000163654
0.000163602
0.000163555
0.00016351
0.000163469
0.00016343
0.000163395
0.000163361
0.000163329
0.000163299
0.00016327
0.000163243
0.000163217
0.000163191
0.000163165
0.00016314
0.000163113
0.000163086
0.000163057
0.000163027
0.000162995
0.000162961
0.000162924
0.000162883
0.000162839
0.00016279
0.000162735
0.000162675
0.000162604
0.000162535
0.000162423
0.000162308
0.000162212
0.000162142
0.000162071
0.000161992
0.000161904
0.000161809
0.000161708
0.000161599
0.000161483
0.000161359
0.000161227
0.000161087
0.000160938
0.000160778
0.000160607
0.000160423
0.000160225
0.00016001
0.000159773
0.000159515
0.000159211
0.00015893
0.000158598
0.000159875
0.000136187
0.000201613
0.000220638
0.000226236
0.000227839
0.000228078
0.000227824
0.000227398
0.000226923
0.00022645
0.000226
0.000225582
0.000225199
0.00022485
0.000224533
0.000224245
0.000223983
0.000223746
0.000223531
0.000223335
0.000223156
0.000222994
0.000222845
0.00022271
0.000222586
0.000222473
0.000222368
0.000222272
0.000222184
0.000222103
0.000222028
0.000221958
0.000221894
0.000221835
0.000221781
0.00022173
0.000221683
0.000221639
0.000221598
0.000221559
0.000221522
0.000221487
0.000221453
0.00022142
0.000221388
0.000221355
0.000221322
0.000221289
0.000221252
0.000221213
0.00022117
0.000221124
0.000221073
0.000221017
0.000220954
0.000220885
0.000220807
0.000220719
0.000220621
0.000220511
0.000220383
0.000220253
0.000220062
0.000219883
0.000219714
0.000219574
0.000219439
0.000219293
0.000219136
0.000218969
0.00021879
0.000218601
0.000218402
0.000218191
0.000217968
0.000217734
0.000217487
0.000217226
0.00021695
0.000216658
0.000216348
0.000216018
0.000215664
0.000215287
0.000214863
0.000214488
0.000214149
0.000215615
0.000156936
0.000247622
0.000278803
0.000289611
0.000293627
0.000295089
0.000295504
0.000295465
0.000295224
0.000294895
0.000294534
0.000294171
0.000293821
0.00029349
0.000293182
0.000292897
0.000292635
0.000292395
0.000292175
0.000291973
0.000291788
0.000291619
0.000291465
0.000291323
0.000291194
0.000291076
0.000290967
0.000290867
0.000290774
0.000290689
0.000290611
0.000290538
0.000290472
0.000290411
0.000290354
0.000290302
0.000290253
0.000290207
0.000290165
0.000290124
0.000290086
0.000290048
0.000290012
0.000289976
0.000289939
0.000289902
0.000289862
0.000289821
0.000289774
0.000289723
0.000289665
0.000289601
0.000289528
0.000289447
0.000289354
0.00028925
0.000289132
0.000288998
0.000288847
0.000288676
0.000288478
0.000288272
0.000287989
0.00028774
0.000287485
0.000287258
0.00028704
0.000286814
0.000286573
0.000286319
0.000286051
0.000285768
0.000285471
0.000285161
0.000284835
0.000284495
0.000284139
0.000283766
0.000283377
0.00028297
0.000282543
0.000282097
0.000281627
0.00028114
0.000280616
0.000280181
0.000279867
0.000281377
0.000173834
0.000293785
0.000341555
0.000360302
0.000368292
0.000371915
0.000373594
0.000374347
0.000374628
0.000374656
0.000374547
0.000374366
0.000374152
0.000373923
0.000373694
0.000373471
0.000373259
0.000373058
0.000372871
0.000372696
0.000372535
0.000372386
0.000372249
0.000372123
0.000372008
0.000371902
0.000371804
0.000371714
0.000371632
0.000371555
0.000371485
0.000371421
0.000371362
0.000371308
0.000371258
0.000371212
0.00037117
0.00037113
0.000371093
0.000371057
0.000371023
0.000370989
0.000370955
0.00037092
0.000370884
0.000370845
0.000370802
0.000370756
0.000370702
0.000370639
0.000370568
0.000370485
0.00037039
0.000370281
0.000370156
0.000370012
0.000369849
0.000369663
0.000369451
0.000369211
0.000368933
0.000368638
0.000368255
0.000367931
0.000367585
0.000367256
0.000366941
0.000366621
0.000366285
0.000365934
0.000365565
0.00036518
0.000364778
0.000364359
0.000363924
0.000363472
0.000363003
0.000362517
0.000362015
0.000361495
0.000360958
0.000360404
0.000359835
0.00035926
0.00035867
0.00035822
0.000357957
0.000359451
0.000185307
0.000338012
0.000407555
0.000437861
0.000452055
0.000459233
0.000463095
0.000465272
0.000466532
0.00046726
0.000467668
0.00046788
0.00046797
0.000467984
0.00046795
0.000467888
0.000467811
0.000467724
0.000467634
0.000467544
0.000467455
0.000467371
0.000467292
0.000467219
0.000467151
0.000467088
0.00046703
0.000466976
0.000466926
0.00046688
0.000466839
0.000466801
0.000466767
0.000466736
0.000466709
0.000466684
0.000466661
0.00046664
0.00046662
0.0004666
0.00046658
0.000466559
0.000466537
0.000466512
0.000466483
0.00046645
0.000466412
0.000466366
0.00046631
0.000466241
0.000466159
0.000466062
0.000465946
0.000465811
0.000465653
0.000465471
0.00046526
0.000465019
0.000464742
0.000464429
0.000464066
0.000463676
0.000463186
0.000462791
0.000462353
0.000461918
0.000461498
0.000461074
0.000460637
0.000460183
0.000459711
0.000459221
0.000458713
0.000458187
0.000457644
0.000457084
0.000456509
0.000455918
0.000455313
0.000454695
0.000454066
0.00045343
0.00045279
0.000452164
0.000451555
0.000451147
0.000450967
0.000452489
0.000189558
0.000377418
0.000474514
0.000521003
0.000544481
0.000557235
0.000564646
0.000569212
0.000572156
0.00057412
0.000575462
0.0005764
0.000577067
0.000577547
0.000577898
0.000578158
0.000578353
0.0005785
0.000578613
0.0005787
0.000578768
0.000578822
0.000578868
0.000578907
0.000578942
0.000578972
0.000578998
0.000579022
0.000579044
0.000579065
0.000579085
0.000579105
0.000579124
0.000579144
0.000579164
0.000579183
0.000579202
0.00057922
0.000579236
0.000579251
0.000579263
0.000579271
0.000579276
0.000579275
0.000579268
0.000579253
0.00057923
0.000579197
0.000579148
0.000579084
0.000579
0.000578896
0.000578767
0.000578612
0.000578428
0.000578211
0.000577958
0.000577665
0.000577327
0.000576942
0.000576496
0.000576013
0.000575422
0.000574963
0.000574445
0.000573909
0.000573385
0.000572859
0.000572322
0.00057177
0.0005712
0.000570612
0.000570007
0.000569386
0.000568749
0.000568099
0.000567435
0.000566762
0.00056608
0.000565393
0.000564706
0.000564026
0.000563361
0.000562736
0.000562169
0.000561863
0.000561816
0.000563487
0.000184718
0.000408243
0.000538948
0.000607281
0.000644153
0.000665319
0.000678264
0.000686646
0.000692338
0.000696351
0.000699269
0.000701448
0.000703113
0.000704411
0.000705443
0.000706277
0.000706963
0.000707535
0.000708018
0.000708429
0.000708785
0.000709097
0.000709374
0.000709622
0.000709846
0.000710048
0.000710233
0.000710402
0.000710558
0.000710702
0.000710836
0.000710962
0.000711081
0.000711194
0.000711301
0.000711402
0.000711498
0.000711588
0.000711672
0.00071175
0.000711822
0.000711885
0.000711941
0.000711988
0.000712024
0.000712049
0.000712062
0.000712059
0.000712037
0.000711994
0.000711925
0.000711829
0.000711703
0.000711543
0.000711346
0.000711108
0.000710825
0.000710494
0.000710107
0.000709664
0.000709148
0.000708587
0.000707913
0.000707405
0.000706829
0.000706214
0.000705602
0.000704989
0.000704366
0.000703731
0.000703082
0.000702417
0.000701739
0.000701048
0.000700346
0.000699635
0.000698918
0.0006982
0.000697483
0.000696773
0.000696078
0.000695408
0.000694777
0.000694219
0.000693764
0.000693626
0.000693779
0.000695745
0.00016915
0.000425841
0.000595916
0.000692692
0.000748235
0.000781676
0.000802952
0.000817216
0.000827218
0.000834493
0.000839948
0.000844147
0.000847452
0.000850104
0.000852271
0.000854069
0.000855584
0.000856875
0.000857986
0.000858951
0.000859799
0.000860552
0.000861225
0.000861832
0.000862381
0.000862882
0.000863339
0.000863757
0.000864143
0.000864499
0.000864831
0.00086514
0.00086543
0.000865702
0.000865958
0.0008662
0.000866427
0.000866641
0.000866842
0.000867029
0.000867202
0.000867362
0.000867508
0.000867638
0.000867753
0.000867851
0.00086793
0.00086799
0.000868023
0.000868029
0.000868004
0.000867944
0.000867846
0.000867707
0.000867523
0.000867289
0.000867003
0.000866658
0.000866251
0.000865776
0.00086522
0.000864613
0.00086389
0.000863359
0.00086276
0.000862104
0.00086144
0.000860771
0.000860095
0.00085941
0.000858715
0.00085801
0.000857297
0.000856578
0.000855855
0.000855132
0.000854413
0.000853703
0.000853009
0.000852337
0.000851698
0.000851107
0.000850584
0.000850167
0.000849902
0.000849998
0.000850428
0.000852812
0.000142047
0.000424853
0.000638798
0.000771248
0.000851946
0.000902734
0.000936178
0.000959232
0.000975786
0.000988087
0.000997493
0.00100487
0.00101077
0.00101558
0.00101956
0.00102291
0.00102577
0.00102822
0.00103035
0.00103222
0.00103388
0.00103535
0.00103667
0.00103787
0.00103895
0.00103994
0.00104084
0.00104167
0.00104243
0.00104314
0.00104379
0.0010444
0.00104497
0.00104551
0.00104601
0.00104648
0.00104692
0.00104734
0.00104773
0.0010481
0.00104844
0.00104876
0.00104905
0.00104932
0.00104957
0.00104979
0.00104999
0.00105015
0.00105029
0.00105039
0.00105045
0.00105047
0.00105044
0.00105037
0.00105024
0.00105005
0.0010498
0.00104949
0.00104911
0.00104865
0.0010481
0.0010475
0.00104679
0.00104627
0.0010457
0.00104505
0.00104439
0.00104372
0.00104304
0.00104236
0.00104167
0.00104098
0.00104029
0.0010396
0.00103892
0.00103825
0.00103759
0.00103696
0.00103636
0.0010358
0.0010353
0.00103486
0.00103453
0.00103433
0.00103434
0.00103473
0.00103551
0.00103838
0.000104576
0.000399731
0.000659202
0.000834554
0.000947957
0.00102249
0.00107318
0.001109
0.00113525
0.00115508
0.00117048
0.0011827
0.00119259
0.00120074
0.00120756
0.00121333
0.00121828
0.00122257
0.00122631
0.00122961
0.00123253
0.00123514
0.00123749
0.00123962
0.00124155
0.00124332
0.00124493
0.00124641
0.00124777
0.00124904
0.0012502
0.00125129
0.00125231
0.00125326
0.00125415
0.00125498
0.00125577
0.00125651
0.0012572
0.00125785
0.00125846
0.00125903
0.00125957
0.00126006
0.00126052
0.00126095
0.00126133
0.00126168
0.00126199
0.00126225
0.00126246
0.00126263
0.00126273
0.00126278
0.00126277
0.0012627
0.00126255
0.00126234
0.00126205
0.00126168
0.00126121
0.0012607
0.00126007
0.00125963
0.00125914
0.00125858
0.00125799
0.00125739
0.00125679
0.00125618
0.00125557
0.00125496
0.00125437
0.00125379
0.00125322
0.00125268
0.00125217
0.0012517
0.00125127
0.00125091
0.00125062
0.00125043
0.00125036
0.00125047
0.00125081
0.00125155
0.00125273
0.00125611
6.21982e-05
0.000345972
0.000647188
0.000871473
0.00102576
0.0011317
0.00120611
0.00125998
0.00130019
0.00133103
0.00135527
0.00137472
0.00139062
0.00140381
0.00141492
0.00142438
0.00143254
0.00143963
0.00144585
0.00145134
0.00145623
0.00146061
0.00146455
0.00146812
0.00147137
0.00147433
0.00147705
0.00147954
0.00148184
0.00148396
0.00148593
0.00148776
0.00148946
0.00149106
0.00149256
0.00149396
0.00149527
0.00149651
0.00149767
0.00149877
0.00149979
0.00150076
0.00150166
0.00150251
0.0015033
0.00150404
0.00150473
0.00150537
0.00150595
0.00150647
0.00150693
0.00150733
0.00150767
0.00150794
0.00150814
0.00150827
0.00150832
0.0015083
0.00150819
0.00150801
0.00150774
0.00150741
0.00150698
0.00150668
0.00150634
0.00150595
0.00150553
0.00150509
0.00150465
0.0015042
0.00150376
0.00150333
0.00150292
0.00150253
0.00150217
0.00150185
0.00150157
0.00150134
0.00150118
0.0015011
0.00150111
0.00150124
0.00150152
0.00150199
0.00150272
0.00150384
0.00150543
0.0015093
2.72653e-05
0.000262783
0.000592223
0.00086809
0.00107111
0.00121706
0.00132304
0.00140167
0.00146146
0.001508
0.00154501
0.001575
0.0015997
0.00162035
0.00163784
0.00165281
0.00166577
0.00167708
0.00168702
0.00169583
0.00170368
0.00171073
0.00171708
0.00172285
0.00172809
0.00173288
0.00173727
0.0017413
0.00174502
0.00174845
0.00175164
0.0017546
0.00175736
0.00175995
0.00176236
0.00176463
0.00176675
0.00176875
0.00177063
0.00177239
0.00177406
0.00177562
0.00177709
0.00177848
0.00177978
0.00178101
0.00178216
0.00178323
0.00178424
0.00178516
0.00178602
0.00178679
0.00178749
0.00178811
0.00178865
0.00178911
0.00178949
0.00178978
0.00179
0.00179013
0.00179018
0.00179018
0.00179008
0.00179001
0.00178992
0.00178978
0.00178962
0.00178945
0.00178926
0.00178908
0.00178891
0.00178875
0.00178862
0.00178852
0.00178845
0.00178844
0.00178847
0.00178858
0.00178876
0.00178903
0.00178941
0.00178992
0.0017906
0.00179148
0.00179263
0.00179414
0.00179613
0.00180041
8.98978e-06
0.000158473
0.00048585
0.000808401
0.00106579
0.00126043
0.00140689
0.00151842
0.0016049
0.00167324
0.00172824
0.00177323
0.00181059
0.00184203
0.00186879
0.00189182
0.00191183
0.00192935
0.0019448
0.00195852
0.00197077
0.00198179
0.00199174
0.00200077
0.00200899
0.00201651
0.0020234
0.00202974
0.00203558
0.00204099
0.002046
0.00205066
0.00205501
0.00205907
0.00206286
0.00206642
0.00206976
0.0020729
0.00207585
0.00207863
0.00208125
0.00208371
0.00208604
0.00208823
0.0020903
0.00209226
0.0020941
0.00209584
0.00209748
0.00209902
0.00210046
0.0021018
0.00210305
0.0021042
0.00210526
0.00210622
0.00210709
0.00210787
0.00210857
0.00210919
0.00210971
0.00211021
0.00211061
0.00211087
0.00211113
0.00211134
0.00211154
0.00211173
0.00211191
0.00211209
0.00211229
0.0021125
0.00211274
0.00211301
0.00211333
0.00211369
0.00211412
0.00211462
0.00211521
0.00211589
0.00211668
0.00211762
0.00211872
0.00212002
0.00212156
0.00212344
0.00212577
0.00213034
2.44722e-06
6.29738e-05
0.000328811
0.000676976
0.000988182
0.00123845
0.00143449
0.00158813
0.00170983
0.00180758
0.00188724
0.00195309
0.00200823
0.00205494
0.00209493
0.00212951
0.00215967
0.00218616
0.0022096
0.00223047
0.00224915
0.00226597
0.00228118
0.002295
0.0023076
0.00231913
0.00232971
0.00233944
0.00234843
0.00235674
0.00236445
0.00237162
0.00237831
0.00238455
0.00239039
0.00239587
0.00240101
0.00240584
0.00241038
0.00241465
0.00241868
0.00242248
0.00242607
0.00242946
0.00243266
0.0024357
0.00243857
0.00244129
0.00244387
0.00244631
0.00244861
0.00245078
0.00245283
0.00245476
0.00245657
0.00245827
0.00245986
0.00246135
0.00246274
0.00246404
0.00246525
0.00246643
0.00246751
0.00246823
0.00246894
0.00246961
0.00247027
0.00247091
0.00247155
0.00247219
0.00247284
0.0024735
0.00247418
0.0024749
0.00247566
0.00247647
0.00247733
0.00247827
0.00247929
0.0024804
0.00248162
0.00248297
0.00248447
0.00248615
0.00248804
0.0024902
0.00249277
0.00249744
5.73214e-07
1.54883e-05
0.000150996
0.000467389
0.000816339
0.00112324
0.00137614
0.00158115
0.00174753
0.00188366
0.00199618
0.00209023
0.00216971
0.00223755
0.00229598
0.00234677
0.00239125
0.00243048
0.0024653
0.00249637
0.00252426
0.00254941
0.00257221
0.00259294
0.00261187
0.00262921
0.00264513
0.00265979
0.00267334
0.00268588
0.00269752
0.00270835
0.00271844
0.00272788
0.0027367
0.00274498
0.00275274
0.00276004
0.0027669
0.00277336
0.00277946
0.00278521
0.00279064
0.00279577
0.00280064
0.00280524
0.00280961
0.00281377
0.00281771
0.00282145
0.002825
0.00282838
0.00283158
0.00283462
0.00283751
0.00284024
0.00284284
0.00284531
0.00284765
0.00284989
0.00285203
0.00285411
0.00285609
0.0028574
0.00285868
0.00285991
0.00286112
0.0028623
0.00286348
0.00286464
0.0028658
0.00286696
0.00286814
0.00286934
0.00287057
0.00287183
0.00287315
0.00287451
0.00287595
0.00287746
0.00287906
0.00288077
0.00288259
0.00288456
0.00288668
0.002889
0.00289165
0.00289617
1.1282e-07
2.79197e-06
3.74576e-05
0.000213189
0.000539429
0.000886667
0.00119688
0.00146004
0.0016802
0.0018643
0.00201901
0.00215003
0.00226191
0.00235819
0.00244171
0.00251472
0.00257899
0.00263591
0.0026866
0.00273198
0.00277282
0.00280974
0.00284325
0.0028738
0.00290173
0.00292734
0.00295088
0.00297259
0.00299266
0.00301126
0.00302853
0.00304462
0.00305962
0.00307364
0.00308676
0.00309906
0.00311061
0.00312146
0.00313167
0.00314129
0.00315036
0.00315892
0.00316701
0.00317467
0.00318192
0.0031888
0.00319532
0.00320153
0.00320743
0.00321305
0.00321838
0.00322346
0.0032283
0.0032329
0.00323729
0.00324147
0.00324545
0.00324925
0.00325289
0.00325637
0.00325972
0.00326296
0.00326607
0.00326811
0.00327008
0.00327199
0.00327383
0.00327564
0.0032774
0.00327913
0.00328084
0.00328253
0.0032842
0.00328588
0.00328756
0.00328925
0.00329096
0.0032927
0.00329448
0.0032963
0.00329818
0.00330012
0.00330213
0.00330422
0.0033064
0.0033087
0.00331123
0.00331522
1.52894e-08
4.13904e-07
5.61151e-06
4.78493e-05
0.000213217
0.000519448
0.000863907
0.00118225
0.00146133
0.00170171
0.00190793
0.00208547
0.00223898
0.00237238
0.00248903
0.00259173
0.00268266
0.00276359
0.00283594
0.00290094
0.00295961
0.0030128
0.00306121
0.00310542
0.00314591
0.0031831
0.00321735
0.00324896
0.00327821
0.00330535
0.00333058
0.00335408
0.00337602
0.00339654
0.00341575
0.00343377
0.00345069
0.0034666
0.00348158
0.00349569
0.003509
0.00352157
0.00353345
0.00354469
0.00355534
0.00356544
0.00357503
0.00358415
0.00359282
0.00360109
0.00360894
0.00361641
0.00362354
0.00363032
0.00363678
0.00364294
0.00364881
0.00365441
0.00365976
0.00366488
0.00366978
0.0036745
0.003679
0.00368194
0.00368474
0.00368742
0.00369
0.00369248
0.00369488
0.00369721
0.00369946
0.00370166
0.0037038
0.0037059
0.00370796
0.00371
0.00371201
0.003714
0.00371598
0.00371796
0.00371994
0.00372192
0.0037239
0.0037259
0.00372792
0.00372997
0.00373211
0.00373513
6.91997e-10
4.93366e-08
6.442e-07
5.84641e-06
3.72726e-05
0.000152001
0.00039319
0.000715668
0.0010426
0.0013398
0.00160344
0.00183603
0.00204043
0.00222017
0.002379
0.00252009
0.00264594
0.00275855
0.00285969
0.00295092
0.00303358
0.00310879
0.00317745
0.00324032
0.00329803
0.00335112
0.00340009
0.00344535
0.0034873
0.00352625
0.00356251
0.00359633
0.00362794
0.00365751
0.00368524
0.00371125
0.0037357
0.00375869
0.00378035
0.00380076
0.00382002
0.00383821
0.00385541
0.00387169
0.00388711
0.00390173
0.00391561
0.0039288
0.00394136
0.00395331
0.00396469
0.0039755
0.00398579
0.00399557
0.00400488
0.00401374
0.00402216
0.00403017
0.00403779
0.00404504
0.00405194
0.00405851
0.00406475
0.00406877
0.00407255
0.00407614
0.00407954
0.00408277
0.00408584
0.00408876
0.00409155
0.00409421
0.00409675
0.00409919
0.00410152
0.00410375
0.0041059
0.00410797
0.00410995
0.00411187
0.00411371
0.00411548
0.00411718
0.00411882
0.00412039
0.00412191
0.00412337
0.0041249
2.32005e-11
4.01074e-09
6.01283e-08
5.28072e-07
3.50958e-06
1.82549e-05
7.20632e-05
0.00020547
0.00043617
0.000732865
0.00104263
0.00133192
0.00159187
0.00182483
0.00203449
0.0022233
0.00239315
0.00254602
0.00268404
0.00280924
0.00292332
0.00302762
0.00312322
0.00321101
0.00329177
0.0033662
0.00343496
0.00349864
0.00355774
0.00361273
0.00366401
0.00371191
0.00375674
0.00379875
0.00383816
0.00387518
0.00391
0.00394276
0.00397363
0.00400274
0.00403021
0.00405617
0.00408071
0.00410394
0.00412595
0.00414682
0.00416663
0.00418545
0.00420334
0.00422037
0.00423659
0.00425201
0.00426665
0.00428056
0.00429375
0.00430626
0.00431812
0.00432935
0.00433997
0.00435001
0.00435949
0.00436843
0.00437681
0.00438216
0.00438712
0.00439177
0.00439611
0.00440016
0.00440395
0.00440748
0.00441077
0.00441384
0.00441669
0.00441933
0.00442178
0.00442405
0.00442613
0.00442805
0.00442979
0.00443138
0.0044328
0.00443407
0.00443519
0.00443617
0.004437
0.0044377
0.00443815
0.00443766
1.03641e-11
1.03924e-10
4.13225e-09
3.83232e-08
2.47858e-07
1.2941e-06
5.68323e-06
2.10726e-05
6.4615e-05
0.000159779
0.000322828
0.000550461
0.000818872
0.00109748
0.00136382
0.00160784
0.00182838
0.0020282
0.00221059
0.00237805
0.00253218
0.00267406
0.0028046
0.00292472
0.00303537
0.00313753
0.0032321
0.00331991
0.00340166
0.00347796
0.0035493
0.00361611
0.00367876
0.00373755
0.00379277
0.00384468
0.00389352
0.00393951
0.00398284
0.00402372
0.00406231
0.00409877
0.00413326
0.00416591
0.00419685
0.00422619
0.00425404
0.00428049
0.00430563
0.00432955
0.00435232
0.00437399
0.00439459
0.0044141
0.00443256
0.00445002
0.0044665
0.00448204
0.00449666
0.00451038
0.00452322
0.0045352
0.00454629
0.0045533
0.00455972
0.00456564
0.00457109
0.00457609
0.00458066
0.00458483
0.00458861
0.00459202
0.00459509
0.00459782
0.00460023
0.00460233
0.00460414
0.00460566
0.00460691
0.00460789
0.00460861
0.00460908
0.00460931
0.00460933
0.00460913
0.00460871
0.00460786
0.00460492
1.00202e-11
5.22602e-12
1.29133e-10
2.08078e-09
1.3915e-08
7.09942e-08
3.06894e-07
1.15756e-06
3.8709e-06
1.15439e-05
3.0645e-05
7.15441e-05
0.000145943
0.000262345
0.000422602
0.00062072
0.000844368
0.00107879
0.00131102
0.00153221
0.00173784
0.0019267
0.00209963
0.00225836
0.00240481
0.00254072
0.00266744
0.00278603
0.00289724
0.00300162
0.00309962
0.00319164
0.00327804
0.00335915
0.00343534
0.00350692
0.00357424
0.00363761
0.00369731
0.00375364
0.00380684
0.00385713
0.00390474
0.00394985
0.00399263
0.00403324
0.00407181
0.00410846
0.00414332
0.00417648
0.00420804
0.00423809
0.00426668
0.00429382
0.00431945
0.00434361
0.00436634
0.00438768
0.00440765
0.00442627
0.00444357
0.00445954
0.00447416
0.00448329
0.00449156
0.00449909
0.0045059
0.00451205
0.00451755
0.00452244
0.00452675
0.0045305
0.00453373
0.00453645
0.00453869
0.00454047
0.00454181
0.00454273
0.00454324
0.00454337
0.00454314
0.00454256
0.00454166
0.00454046
0.00453898
0.00453722
0.00453486
0.00452929
1.00134e-11
3.77814e-12
3.23124e-12
5.38453e-11
5.65354e-10
3.03434e-09
1.29457e-08
4.8009e-08
1.58964e-07
4.76577e-07
1.309e-06
3.31978e-06
7.81714e-06
1.71296e-05
3.48505e-05
6.55943e-05
0.00011414
0.000184329
0.000278236
0.000395819
0.00053496
0.000691799
0.000861309
0.00103803
0.00121678
0.00139317
0.0015639
0.00172674
0.00188044
0.00202451
0.00215901
0.00228436
0.00240117
0.00251016
0.00261206
0.00270755
0.00279727
0.00288179
0.00296159
0.0030371
0.00310866
0.00317658
0.00324113
0.00330251
0.00336093
0.00341655
0.0034695
0.00351994
0.00356797
0.00361371
0.00365726
0.0036987
0.00373813
0.00377566
0.00381118
0.00384458
0.00387589
0.00390515
0.00393241
0.00395767
0.00398096
0.00400229
0.0040216
0.00403353
0.00404423
0.00405385
0.00406244
0.00407006
0.00407674
0.00408255
0.00408752
0.00409169
0.00409511
0.00409782
0.00409985
0.00410123
0.00410201
0.00410221
0.00410188
0.00410104
0.00409972
0.00409797
0.00409582
0.0040933
0.00409044
0.00408725
0.00408339
0.00407557
1.00149e-11
3.75006e-12
1.8372e-12
1.59596e-12
9.96652e-12
8.51602e-11
4.0741e-10
1.52431e-09
4.99683e-09
1.48152e-08
4.0345e-08
1.01926e-07
2.4084e-07
5.36003e-07
1.12958e-06
2.26386e-06
4.33139e-06
7.93456e-06
1.39363e-05
2.34725e-05
3.78992e-05
5.86711e-05
8.71737e-05
0.000124555
0.0001716
0.000228666
0.00029568
0.000372178
0.000457367
0.000550199
0.000649445
0.000753771
0.000861806
0.00097221
0.00108372
0.00119518
0.00130561
0.00141414
0.00152011
0.00162297
0.00172233
0.00181791
0.00190955
0.00199717
0.00208074
0.0021603
0.00223594
0.00230776
0.00237587
0.00244043
0.00250157
0.00255943
0.00261415
0.00266588
0.00271491
0.00276091
0.00280376
0.00284354
0.00288031
0.00291413
0.00294505
0.00297308
0.00299821
0.00301357
0.00302725
0.00303942
0.00305016
0.00305957
0.0030677
0.00307465
0.00308046
0.00308522
0.00308899
0.00309182
0.00309379
0.00309493
0.00309532
0.00309501
0.00309404
0.00309248
0.00309036
0.00308774
0.00308467
0.00308119
0.00307733
0.00307312
0.00306835
0.00306004
1.00166e-11
3.75014e-12
1.81524e-12
1.0708e-12
8.08137e-13
1.36555e-12
6.87024e-12
3.24069e-11
1.13794e-10
3.40896e-10
9.24434e-10
2.3196e-09
5.4462e-09
1.2058e-08
2.53232e-08
5.06899e-08
9.71386e-08
1.78918e-07
3.17805e-07
5.45867e-07
9.08743e-07
1.46949e-06
2.31295e-06
3.55015e-06
5.32196e-06
7.80064e-06
1.11884e-05
1.57122e-05
2.1615e-05
2.91444e-05
3.85393e-05
5.0017e-05
6.37613e-05
7.99134e-05
9.85658e-05
0.00011976
0.000143486
0.000169687
0.000198263
0.000229078
0.000261966
0.000296737
0.000333182