/*--------------------------------*- C++ -*----------------------------------*\
| =========                 |                                                 |
| \\      /  F ield         | OpenFOAM: The Open Source CFD Toolbox           |
|  \\    /   O peration     | Version:  5.x                                   |
|   \\  /    A nd           | Web:      www.OpenFOAM.org                      |
|    \\/     M anipulation  |                                                 |
\*---------------------------------------------------------------------------*/
FoamFile
{
    version     2.0;
    format      ascii;
    class       volScalarField;
    location    "800";
    object      p;
}
// * * * * * * * * * * * * * * * * * * * * * * * * * * * * * * * * * * * * * //

dimensions      [0 2 -2 0 0 0 0];

internalField   nonuniform List<scalar> 
20540
(
53.0107
55.0386
53.0107
55.0388
53.0107
55.0396
53.0107
55.0404
53.0107
55.0409
53.0107
55.0409
53.0107
55.04
53.0107
55.0377
53.0107
55.0335
53.0107
55.0266
53.0107
55.0162
53.0107
55.0014
53.0107
54.9809
53.0107
54.954
53.0107
54.9195
53.0107
54.8767
53.0107
54.8248
53.0106
54.7625
53.0106
54.6883
53.0105
54.6002
53.0103
54.4963
53.0101
54.3743
53.0097
54.2323
53.0092
54.0684
53.0085
53.8817
53.0074
53.6724
53.006
53.4428
53.0042
53.199
53.002
52.9521
52.9997
52.7219
52.9978
52.5615
52.9969
52.4839
52.9969
52.4846
52.9979
52.5637
52.9997
52.7231
53.002
52.9459
53.0041
53.1853
53.0059
53.4229
53.0073
53.6478
53.0084
53.8543
53.0091
54.0399
53.0097
54.2038
53.0101
54.347
53.0103
54.4708
53.0105
54.5772
53.0106
54.6679
53.0107
54.7449
53.0107
54.8101
53.0107
54.8649
53.0107
54.9107
53.0107
54.9483
53.0107
54.9784
53.0107
55.0018
53.0107
55.0195
53.0107
55.0323
53.0107
55.0412
53.0107
55.0471
53.0107
55.0507
53.0107
55.0526
53.0107
55.0533
53.0107
55.0532
53.0107
55.0526
53.0107
55.0519
53.0107
55.0511
53.0107
55.051
48.7632
34.0574
22.7609
13.9228
6.28927
-0.806946
-7.51178
-13.8175
-19.7421
-25.3281
-30.6138
-35.6274
-40.3905
-44.9217
-49.2377
-53.353
-57.2805
-61.0318
-64.6173
-68.0465
-71.3279
-74.4696
-77.4787
-80.362
-83.1258
-85.7761
-88.3182
-90.7573
-93.0981
-95.3453
-97.5031
-99.5756
-101.567
-103.48
-105.32
-107.089
-108.792
-110.431
-112.01
-113.533
-115.004
-116.427
-117.804
-119.142
-120.444
-121.715
-122.961
-124.187
-125.399
-126.604
-127.809
-129.021
-130.248
-131.498
-132.78
-134.103
-135.477
-136.912
-138.419
-140.013
-141.699
-143.522
-145.384
-147.326
-148.93
-150.403
-151.926
-153.495
-155.105
-156.757
-158.452
-160.191
-161.975
-163.806
-165.684
-167.612
-169.593
-171.631
-173.729
-175.895
-178.137
-180.466
-182.895
-185.46
-188.154
-191.211
-194.029
-199.815
48.7767
34.0593
22.7615
13.9232
6.28951
-0.806757
-7.51163
-13.8174
-19.742
-25.328
-30.6138
-35.6273
-40.3904
-44.9217
-49.2376
-53.3529
-57.2804
-61.0317
-64.6173
-68.0464
-71.3279
-74.4695
-77.4786
-80.362
-83.1258
-85.7761
-88.3182
-90.7573
-93.0981
-95.3453
-97.5031
-99.5756
-101.567
-103.48
-105.32
-107.089
-108.792
-110.431
-112.01
-113.533
-115.004
-116.427
-117.804
-119.142
-120.444
-121.715
-122.961
-124.187
-125.399
-126.604
-127.809
-129.021
-130.248
-131.498
-132.78
-134.103
-135.477
-136.912
-138.419
-140.013
-141.699
-143.522
-145.384
-147.327
-148.93
-150.403
-151.927
-153.495
-155.105
-156.758
-158.453
-160.192
-161.976
-163.806
-165.685
-167.613
-169.594
-171.632
-173.731
-175.897
-178.138
-180.467
-182.898
-185.462
-188.157
-191.216
-194.038
-199.661
48.7934
34.0632
22.7627
13.9238
6.28997
-0.806408
-7.51135
-13.8172
-19.7418
-25.3278
-30.6136
-35.6272
-40.3903
-44.9216
-49.2375
-53.3528
-57.2804
-61.0317
-64.6172
-68.0464
-71.3278
-74.4695
-77.4786
-80.3619
-83.1258
-85.776
-88.3181
-90.7572
-93.0981
-95.3453
-97.5031
-99.5756
-101.567
-103.48
-105.32
-107.089
-108.792
-110.431
-112.01
-113.533
-115.004
-116.426
-117.804
-119.142
-120.444
-121.715
-122.961
-124.187
-125.399
-126.604
-127.809
-129.021
-130.248
-131.498
-132.78
-134.103
-135.477
-136.912
-138.419
-140.013
-141.7
-143.523
-145.384
-147.327
-148.931
-150.404
-151.927
-153.496
-155.106
-156.759
-158.454
-160.193
-161.977
-163.808
-165.686
-167.615
-169.596
-171.634
-173.733
-175.899
-178.141
-180.471
-182.902
-185.467
-188.163
-191.225
-194.049
-199.48
48.8056
34.0687
22.7645
13.9248
6.29064
-0.805911
-7.51096
-13.8169
-19.7415
-25.3276
-30.6134
-35.627
-40.3901
-44.9214
-49.2374
-53.3527
-57.2802
-61.0316
-64.6171
-68.0463
-71.3277
-74.4694
-77.4785
-80.3618
-83.1257
-85.7759
-88.3181
-90.7571
-93.098
-95.3452
-97.503
-99.5755
-101.567
-103.48
-105.32
-107.089
-108.792
-110.431
-112.01
-113.533
-115.004
-116.426
-117.804
-119.142
-120.444
-121.715
-122.961
-124.187
-125.399
-126.604
-127.809
-129.021
-130.248
-131.498
-132.78
-134.103
-135.477
-136.912
-138.42
-140.013
-141.7
-143.523
-145.385
-147.328
-148.931
-150.404
-151.928
-153.497
-155.107
-156.76
-158.456
-160.195
-161.979
-163.81
-165.688
-167.617
-169.599
-171.637
-173.736
-175.903
-178.146
-180.476
-182.907
-185.474
-188.171
-191.236
-194.057
-199.318
48.8146
34.076
22.767
13.9262
6.29154
-0.805248
-7.51043
-13.8164
-19.7411
-25.3272
-30.6131
-35.6268
-40.3899
-44.9212
-49.2372
-53.3525
-57.2801
-61.0314
-64.6169
-68.0461
-71.3276
-74.4693
-77.4784
-80.3617
-83.1256
-85.7759
-88.318
-90.7571
-93.0979
-95.3451
-97.5029
-99.5755
-101.567
-103.48
-105.32
-107.089
-108.791
-110.431
-112.01
-113.533
-115.004
-116.426
-117.804
-119.142
-120.444
-121.715
-122.961
-124.187
-125.399
-126.604
-127.809
-129.021
-130.248
-131.498
-132.781
-134.104
-135.477
-136.912
-138.42
-140.014
-141.701
-143.524
-145.386
-147.329
-148.932
-150.406
-151.93
-153.498
-155.109
-156.762
-158.457
-160.197
-161.982
-163.812
-165.691
-167.62
-169.602
-171.641
-173.741
-175.908
-178.151
-180.482
-182.914
-185.482
-188.18
-191.246
-194.059
-199.211
48.8217
34.0852
22.7705
13.928
6.29274
-0.804365
-7.50974
-13.8158
-19.7406
-25.3268
-30.6128
-35.6264
-40.3896
-44.921
-49.237
-53.3523
-57.2799
-61.0312
-64.6168
-68.046
-71.3275
-74.4691
-77.4783
-80.3616
-83.1255
-85.7757
-88.3179
-90.757
-93.0978
-95.345
-97.5028
-99.5754
-101.566
-103.48
-105.32
-107.089
-108.791
-110.431
-112.01
-113.533
-115.004
-116.426
-117.804
-119.142
-120.444
-121.715
-122.961
-124.187
-125.399
-126.604
-127.809
-129.021
-130.248
-131.499
-132.781
-134.104
-135.478
-136.913
-138.42
-140.015
-141.702
-143.525
-145.387
-147.33
-148.934
-150.407
-151.931
-153.5
-155.111
-156.764
-158.46
-160.2
-161.985
-163.816
-165.695
-167.624
-169.607
-171.646
-173.746
-175.914
-178.157
-180.489
-182.922
-185.49
-188.19
-191.254
-194.058
-199.157
48.8268
34.0966
22.7751
13.9305
6.29436
-0.803189
-7.50882
-13.8151
-19.74
-25.3263
-30.6123
-35.626
-40.3893
-44.9206
-49.2367
-53.352
-57.2796
-61.031
-64.6165
-68.0458
-71.3273
-74.4689
-77.4781
-80.3614
-83.1253
-85.7756
-88.3177
-90.7568
-93.0977
-95.3449
-97.5027
-99.5752
-101.566
-103.48
-105.32
-107.089
-108.791
-110.43
-112.01
-113.533
-115.004
-116.426
-117.804
-119.142
-120.444
-121.715
-122.961
-124.187
-125.399
-126.604
-127.809
-129.021
-130.248
-131.499
-132.781
-134.104
-135.478
-136.913
-138.421
-140.015
-141.703
-143.526
-145.388
-147.332
-148.936
-150.409
-151.933
-153.502
-155.113
-156.767
-158.463
-160.203
-161.988
-163.82
-165.699
-167.629
-169.612
-171.651
-173.752
-175.921
-178.165
-180.497
-182.931
-185.5
-188.2
-191.26
-194.053
-199.135
48.8295
34.1103
22.7814
13.9338
6.29653
-0.801627
-7.50761
-13.8141
-19.7392
-25.3256
-30.6117
-35.6255
-40.3888
-44.9202
-49.2363
-53.3517
-57.2793
-61.0307
-64.6162
-68.0455
-71.327
-74.4687
-77.4778
-80.3612
-83.1251
-85.7754
-88.3175
-90.7566
-93.0975
-95.3447
-97.5026
-99.5751
-101.566
-103.48
-105.319
-107.089
-108.791
-110.43
-112.01
-113.533
-115.004
-116.426
-117.804
-119.142
-120.444
-121.715
-122.961
-124.187
-125.399
-126.604
-127.809
-129.021
-130.249
-131.499
-132.782
-134.105
-135.479
-136.914
-138.422
-140.016
-141.704
-143.528
-145.39
-147.334
-148.938
-150.411
-151.936
-153.505
-155.116
-156.77
-158.467
-160.207
-161.992
-163.824
-165.704
-167.635
-169.618
-171.658
-173.759
-175.928
-178.173
-180.506
-182.94
-185.509
-188.21
-191.261
-194.044
-199.112
48.8292
34.1261
22.7894
13.9383
6.29941
-0.799557
-7.50602
-13.8128
-19.7381
-25.3246
-30.6109
-35.6248
-40.3881
-44.9196
-49.2357
-53.3512
-57.2788
-61.0302
-64.6159
-68.0451
-71.3267
-74.4684
-77.4775
-80.3609
-83.1248
-85.7751
-88.3173
-90.7564
-93.0973
-95.3445
-97.5024
-99.5749
-101.566
-103.48
-105.319
-107.089
-108.791
-110.43
-112.01
-113.533
-115.004
-116.426
-117.804
-119.142
-120.444
-121.715
-122.961
-124.187
-125.399
-126.604
-127.809
-129.022
-130.249
-131.499
-132.782
-134.105
-135.479
-136.915
-138.423
-140.017
-141.705
-143.529
-145.392
-147.336
-148.94
-150.414
-151.938
-153.508
-155.12
-156.774
-158.471
-160.212
-161.997
-163.83
-165.71
-167.641
-169.625
-171.665
-173.767
-175.936
-178.182
-180.515
-182.949
-185.518
-188.217
-191.252
-194.028
-199.054
48.8256
34.144
22.7997
13.9442
6.30324
-0.796816
-7.50391
-13.8111
-19.7367
-25.3234
-30.6098
-35.6238
-40.3873
-44.9188
-49.2351
-53.3506
-57.2783
-61.0297
-64.6154
-68.0447
-71.3262
-74.468
-77.4772
-80.3606
-83.1245
-85.7748
-88.317
-90.7561
-93.097
-95.3443
-97.5021
-99.5746
-101.566
-103.479
-105.319
-107.088
-108.791
-110.43
-112.009
-113.533
-115.004
-116.426
-117.804
-119.141
-120.443
-121.715
-122.961
-124.187
-125.399
-126.604
-127.809
-129.022
-130.249
-131.5
-132.782
-134.106
-135.48
-136.916
-138.424
-140.019
-141.707
-143.531
-145.394
-147.338
-148.943
-150.417
-151.942
-153.512
-155.124
-156.778
-158.475
-160.217
-162.003
-163.836
-165.716
-167.647
-169.632
-171.673
-173.775
-175.945
-178.19
-180.523
-182.957
-185.522
-188.218
-191.23
-194
-198.935
48.8184
34.1634
22.8124
13.9519
6.3083
-0.793196
-7.50114
-13.8089
-19.7348
-25.3219
-30.6084
-35.6226
-40.3862
-44.9179
-49.2342
-53.3498
-57.2775
-61.029
-64.6147
-68.0441
-71.3257
-74.4674
-77.4767
-80.3601
-83.1241
-85.7744
-88.3166
-90.7557
-93.0967
-95.3439
-97.5018
-99.5743
-101.565
-103.479
-105.319
-107.088
-108.791
-110.43
-112.009
-113.532
-115.003
-116.426
-117.804
-119.141
-120.443
-121.715
-122.96
-124.187
-125.399
-126.604
-127.809
-129.022
-130.249
-131.5
-132.783
-134.107
-135.481
-136.917
-138.425
-140.02
-141.708
-143.533
-145.396
-147.341
-148.947
-150.421
-151.945
-153.515
-155.128
-156.783
-158.48
-160.222
-162.008
-163.842
-165.723
-167.654
-169.639
-171.68
-173.782
-175.952
-178.196
-180.528
-182.96
-185.52
-188.209
-191.188
-193.952
-198.73
48.8072
34.1839
22.8277
13.9617
6.3149
-0.788435
-7.4975
-13.806
-19.7324
-25.3198
-30.6066
-35.6211
-40.3848
-44.9166
-49.233
-53.3487
-57.2766
-61.0281
-64.6139
-68.0433
-71.325
-74.4668
-77.476
-80.3595
-83.1235
-85.7738
-88.316
-90.7552
-93.0962
-95.3434
-97.5013
-99.5739
-101.565
-103.479
-105.318
-107.088
-108.79
-110.429
-112.009
-113.532
-115.003
-116.425
-117.803
-119.141
-120.443
-121.714
-122.96
-124.186
-125.399
-126.604
-127.81
-129.022
-130.25
-131.501
-132.783
-134.107
-135.482
-136.918
-138.426
-140.022
-141.71
-143.535
-145.399
-147.343
-148.95
-150.424
-151.948
-153.519
-155.132
-156.787
-158.485
-160.227
-162.014
-163.847
-165.728
-167.66
-169.644
-171.685
-173.787
-175.956
-178.199
-180.528
-182.956
-185.507
-188.184
-191.118
-193.872
-198.42
48.7918
34.2048
22.8454
13.974
6.32343
-0.782214
-7.49273
-13.8022
-19.7292
-25.3171
-30.6043
-35.619
-40.383
-44.915
-49.2315
-53.3473
-57.2753
-61.027
-64.6128
-68.0423
-71.324
-74.4659
-77.4752
-80.3587
-83.1227
-85.7731
-88.3154
-90.7546
-93.0955
-95.3428
-97.5007
-99.5733
-101.565
-103.478
-105.318
-107.087
-108.79
-110.429
-112.008
-113.532
-115.003
-116.425
-117.803
-119.141
-120.443
-121.714
-122.96
-124.186
-125.399
-126.604
-127.81
-129.022
-130.25
-131.501
-132.784
-134.108
-135.482
-136.919
-138.428
-140.023
-141.712
-143.537
-145.401
-147.346
-148.953
-150.428
-151.951
-153.523
-155.136
-156.791
-158.489
-160.231
-162.018
-163.851
-165.732
-167.663
-169.647
-171.687
-173.787
-175.954
-178.194
-180.518
-182.938
-185.476
-188.133
-191.007
-193.741
-197.991
48.7716
34.2256
22.865
13.9889
6.33425
-0.774166
-7.4865
-13.7972
-19.7251
-25.3136
-30.6013
-35.6163
-40.3806
-44.9128
-49.2296
-53.3456
-57.2737
-61.0255
-64.6114
-68.041
-71.3228
-74.4647
-77.4741
-80.3576
-83.1217
-85.7722
-88.3145
-90.7537
-93.0947
-95.342
-97.5
-99.5726
-101.564
-103.477
-105.317
-107.087
-108.789
-110.428
-112.008
-113.531
-115.002
-116.425
-117.802
-119.14
-120.442
-121.714
-122.96
-124.186
-125.399
-126.604
-127.809
-129.022
-130.25
-131.501
-132.784
-134.108
-135.483
-136.919
-138.428
-140.024
-141.713
-143.538
-145.403
-147.347
-148.955
-150.431
-151.953
-153.524
-155.138
-156.793
-158.491
-160.232
-162.019
-163.851
-165.732
-167.662
-169.644
-171.682
-173.779
-175.942
-178.177
-180.493
-182.9
-185.417
-188.043
-190.842
-193.537
-197.438
48.7459
34.2462
22.8855
14.0063
6.34765
-0.763914
-7.47847
-13.7907
-19.7197
-25.309
-30.5973
-35.6128
-40.3775
-44.91
-49.227
-53.3432
-57.2715
-61.0235
-64.6096
-68.0392
-71.3211
-74.4632
-77.4726
-80.3563
-83.1204
-85.7709
-88.3133
-90.7526
-93.0936
-95.341
-97.499
-99.5716
-101.563
-103.477
-105.316
-107.086
-108.788
-110.428
-112.007
-113.53
-115.001
-116.424
-117.802
-119.14
-120.442
-121.713
-122.959
-124.185
-125.398
-126.604
-127.809
-129.022
-130.25
-131.501
-132.784
-134.108
-135.483
-136.92
-138.429
-140.024
-141.714
-143.538
-145.404
-147.347
-148.955
-150.432
-151.953
-153.524
-155.137
-156.791
-158.488
-160.229
-162.015
-163.846
-165.724
-167.652
-169.632
-171.666
-173.758
-175.914
-178.139
-180.442
-182.83
-185.315
-187.896
-190.602
-193.233
-196.757
48.7134
34.2673
22.9056
14.0256
6.36372
-0.751135
-7.46825
-13.7823
-19.7127
-25.303
-30.5921
-35.6082
-40.3734
-44.9063
-49.2237
-53.3402
-57.2687
-61.0209
-64.6071
-68.037
-71.319
-74.4612
-77.4707
-80.3545
-83.1187
-85.7693
-88.3117
-90.7511
-93.0922
-95.3396
-97.4976
-99.5703
-101.562
-103.475
-105.315
-107.085
-108.787
-110.426
-112.006
-113.529
-115
-116.423
-117.801
-119.139
-120.441
-121.712
-122.958
-124.185
-125.397
-126.603
-127.808
-129.021
-130.249
-131.5
-132.783
-134.107
-135.482
-136.919
-138.428
-140.023
-141.713
-143.535
-145.403
-147.344
-148.952
-150.43
-151.949
-153.519
-155.131
-156.784
-158.48
-160.219
-162.002
-163.831
-165.706
-167.629
-169.604
-171.631
-173.715
-175.86
-178.07
-180.352
-182.711
-185.152
-187.669
-190.264
-192.796
-195.94
48.6718
34.2903
22.9242
14.0456
6.38211
-0.735695
-7.45555
-13.7717
-19.7037
-25.2953
-30.5854
-35.6023
-40.3681
-44.9016
-49.2194
-53.3362
-57.265
-61.0175
-64.604
-68.034
-71.3162
-74.4586
-77.4683
-80.3521
-83.1165
-85.7672
-88.3097
-90.7491
-93.0903
-95.3378
-97.4959
-99.5687
-101.56
-103.474
-105.314
-107.083
-108.786
-110.425
-112.005
-113.528
-114.999
-116.422
-117.8
-119.137
-120.44
-121.711
-122.957
-124.183
-125.396
-126.601
-127.807
-129.019
-130.247
-131.498
-132.781
-134.105
-135.48
-136.916
-138.425
-140.02
-141.709
-143.529
-145.399
-147.335
-148.943
-150.423
-151.938
-153.506
-155.116
-156.767
-158.46
-160.196
-161.975
-163.799
-165.669
-167.585
-169.551
-171.568
-173.639
-175.766
-177.954
-180.205
-182.521
-184.901
-187.333
-189.796
-192.196
-194.98
48.6194
34.3161
22.9414
14.0646
6.40185
-0.717839
-7.44024
-13.7587
-19.6925
-25.2855
-30.5768
-35.5947
-40.3613
-44.8954
-49.2137
-53.331
-57.2603
-61.013
-64.5998
-68.0301
-71.3126
-74.4551
-77.465
-80.349
-83.1135
-85.7644
-88.307
-90.7465
-93.0878
-95.3354
-97.4936
-99.5664
-101.558
-103.472
-105.312
-107.081
-108.784
-110.423
-112.003
-113.526
-114.997
-116.42
-117.798
-119.136
-120.438
-121.709
-122.955
-124.181
-125.394
-126.599
-127.804
-129.017
-130.244
-131.495
-132.778
-134.102
-135.476
-136.911
-138.419
-140.013
-141.701
-143.518
-145.389
-147.32
-148.926
-150.406
-151.917
-153.481
-155.088
-156.735
-158.424
-160.154
-161.927
-163.743
-165.603
-167.509
-169.461
-171.461
-173.511
-175.612
-177.766
-179.973
-182.23
-184.529
-186.851
-189.162
-191.401
-193.86
48.5556
34.3447
22.9583
14.0812
6.42129
-0.698396
-7.4226
-13.7432
-19.6789
-25.2735
-30.566
-35.585
-40.3525
-44.8874
-49.2065
-53.3243
-57.2541
-61.0073
-64.5944
-68.0251
-71.3078
-74.4506
-77.4607
-80.345
-83.1097
-85.7606
-88.3034
-90.7431
-93.0846
-95.3323
-97.4905
-99.5635
-101.555
-103.469
-105.309
-107.078
-108.781
-110.421
-112
-113.524
-114.995
-116.417
-117.795
-119.133
-120.435
-121.707
-122.952
-124.178
-125.391
-126.596
-127.801
-129.013
-130.24
-131.49
-132.772
-134.095
-135.468
-136.902
-138.408
-140
-141.687
-143.499
-145.371
-147.293
-148.895
-150.376
-151.88
-153.438
-155.04
-156.68
-158.361
-160.082
-161.845
-163.648
-165.494
-167.382
-169.314
-171.289
-173.308
-175.371
-177.477
-179.621
-181.797
-183.992
-186.179
-188.322
-190.38
-192.553
48.4796
34.3764
22.9757
14.095
6.43846
-0.678944
-7.4034
-13.7255
-19.6628
-25.259
-30.5529
-35.5731
-40.3416
-44.8774
-49.1972
-53.3158
-57.2461
-60.9998
-64.5875
-68.0185
-71.3016
-74.4447
-77.4551
-80.3397
-83.1046
-85.7558
-88.2988
-90.7387
-93.0802
-95.3281
-97.4865
-99.5596
-101.551
-103.465
-105.305
-107.075
-108.778
-110.417
-111.997
-113.52
-114.992
-116.414
-117.792
-119.13
-120.432
-121.703
-122.948
-124.174
-125.386
-126.59
-127.795
-129.006
-130.232
-131.481
-132.762
-134.083
-135.455
-136.887
-138.39
-139.979
-141.662
-143.466
-145.339
-147.248
-148.843
-150.323
-151.818
-153.367
-154.96
-156.59
-158.259
-159.966
-161.712
-163.497
-165.32
-167.183
-169.083
-171.021
-172.995
-175.003
-177.041
-179.101
-181.173
-183.237
-185.268
-187.227
-189.096
-191.018
48.39
34.4126
22.9946
14.107
6.45168
-0.662003
-7.38434
-13.7063
-19.6447
-25.2422
-30.5375
-35.5589
-40.3285
-44.8652
-49.1859
-53.3051
-57.2361
-60.9904
-64.5786
-68.0101
-71.2937
-74.4372
-77.4479
-80.3328
-83.098
-85.7495
-88.2927
-90.7328
-93.0746
-95.3226
-97.4812
-99.5544
-101.546
-103.46
-105.301
-107.07
-108.773
-110.413
-111.992
-113.516
-114.987
-116.41
-117.787
-119.125
-120.427
-121.698
-122.943
-124.168
-125.379
-126.583
-127.786
-128.996
-130.221
-131.468
-132.747
-134.065
-135.433
-136.862
-138.361
-139.944
-141.621
-143.416
-145.286
-147.178
-148.761
-150.236
-151.72
-153.255
-154.833
-156.447
-158.097
-159.783
-161.504
-163.261
-165.051
-166.875
-168.73
-170.614
-172.525
-174.456
-176.402
-178.353
-180.293
-182.203
-184.057
-185.825
-187.502
-189.201
48.2848
34.4544
23.0167
14.1194
6.46218
-0.650562
-7.36949
-13.6882
-19.6254
-25.2234
-30.5197
-35.5423
-40.313
-44.8508
-49.1723
-53.2923
-57.224
-60.9789
-64.5677
-67.9997
-71.2837
-74.4276
-77.4388
-80.324
-83.0895
-85.7413
-88.2848
-90.7252
-93.0673
-95.3155
-97.4743
-99.5477
-101.54
-103.454
-105.294
-107.064
-108.767
-110.407
-111.987
-113.51
-114.981
-116.403
-117.781
-119.118
-120.42
-121.69
-122.935
-124.159
-125.369
-126.571
-127.772
-128.98
-130.203
-131.447
-132.722
-134.037
-135.4
-136.823
-138.315
-139.89
-141.557
-143.337
-145.202
-147.069
-148.635
-150.1
-151.566
-153.081
-154.637
-156.227
-157.849
-159.502
-161.187
-162.902
-164.644
-166.411
-168.201
-170.01
-171.833
-173.662
-175.488
-177.3
-179.083
-180.817
-182.479
-184.049
-185.536
-187.03
48.1622
34.502
23.0431
14.1338
6.47391
-0.641068
-7.361
-13.6778
-19.6109
-25.2051
-30.4998
-35.5228
-40.2948
-44.8337
-49.1563
-53.2772
-57.2097
-60.9653
-64.5547
-67.9873
-71.2717
-74.4161
-77.4276
-80.3131
-83.079
-85.7311
-88.275
-90.7156
-93.0579
-95.3065
-97.4655
-99.5391
-101.531
-103.446
-105.286
-107.056
-108.759
-110.399
-111.979
-113.502
-114.973
-116.395
-117.773
-119.109
-120.41
-121.68
-122.923
-124.146
-125.355
-126.555
-127.753
-128.957
-130.176
-131.416
-132.686
-133.994
-135.35
-136.763
-138.244
-139.806
-141.459
-143.219
-145.069
-146.904
-148.443
-149.89
-151.332
-152.816
-154.339
-155.893
-157.473
-159.08
-160.711
-162.365
-164.038
-165.726
-167.427
-169.132
-170.837
-172.533
-174.21
-175.854
-177.454
-178.992
-180.452
-181.82
-183.118
-184.416
48.0206
34.5556
23.0745
14.1503
6.4878
-0.629205
-7.35185
-13.671
-19.6048
-25.1972
-30.4884
-35.5071
-40.2756
-44.8129
-49.1356
-53.2577
-57.1917
-60.9488
-64.5392
-67.9726
-71.2577
-74.4025
-77.4144
-80.3004
-83.0667
-85.7191
-88.2632
-90.7042
-93.0467
-95.2954
-97.4546
-99.5284
-101.521
-103.435
-105.276
-107.046
-108.749
-110.389
-111.969
-113.492
-114.963
-116.384
-117.761
-119.097
-120.397
-121.665
-122.907
-124.128
-125.334
-126.531
-127.725
-128.924
-130.136
-131.369
-132.631
-133.93
-135.273
-136.673
-138.138
-139.68
-141.309
-143.041
-144.867
-146.655
-148.156
-149.572
-150.978
-152.419
-153.894
-155.393
-156.914
-158.452
-160.007
-161.575
-163.151
-164.731
-166.309
-167.878
-169.431
-170.959
-172.453
-173.901
-175.292
-176.616
-177.862
-179.023
-180.126
-181.228
47.8591
34.6145
23.1116
14.1689
6.50361
-0.615404
-7.34045
-13.6615
-19.597
-25.1912
-30.4838
-35.5028
-40.2698
-44.8043
-49.1232
-53.2415
-57.1722
-60.927
-64.5167
-67.9504
-71.2367
-74.3831
-77.3967
-80.2842
-83.0518
-85.7052
-88.25
-90.6915
-93.0344
-95.2833
-97.4426
-99.5165
-101.509
-103.423
-105.264
-107.034
-108.737
-110.376
-111.956
-113.479
-114.949
-116.37
-117.746
-119.081
-120.379
-121.645
-122.884
-124.102
-125.304
-126.496
-127.684
-128.876
-130.078
-131.3
-132.549
-133.833
-135.159
-136.537
-137.978
-139.49
-141.086
-142.776
-144.56
-146.287
-147.731
-149.1
-150.454
-151.834
-153.239
-154.663
-156.098
-157.542
-158.992
-160.443
-161.889
-163.325
-164.745
-166.141
-167.506
-168.832
-170.111
-171.336
-172.498
-173.592
-174.613
-175.559
-176.456
-177.354
47.6778
34.6779
23.1547
14.1897
6.52132
-0.599795
-7.3276
-13.6508
-19.5875
-25.1826
-30.4759
-35.4958
-40.2643
-44.8004
-49.1206
-53.2392
-57.1692
-60.9224
-64.5095
-67.9401
-71.2229
-74.366
-77.3766
-80.2617
-83.0276
-85.6801
-88.2248
-90.6667
-93.0106
-95.2608
-97.4216
-99.497
-101.491
-103.407
-105.249
-107.02
-108.724
-110.364
-111.943
-113.466
-114.936
-116.356
-117.731
-119.064
-120.36
-121.623
-122.858
-124.071
-125.267
-126.451
-127.63
-128.81
-129.999
-131.203
-132.433
-133.694
-134.993
-136.34
-137.743
-139.211
-140.755
-142.384
-144.103
-145.742
-147.106
-148.403
-149.68
-150.97
-152.278
-153.592
-154.908
-156.221
-157.526
-158.819
-160.092
-161.341
-162.558
-163.738
-164.872
-165.955
-166.982
-167.947
-168.846
-169.678
-170.442
-171.141
-171.8
-172.46
47.4788
34.7439
23.2039
14.2124
6.54069
-0.58246
-7.31335
-13.6389
-19.5771
-25.1732
-30.4673
-35.4879
-40.2568
-44.7931
-49.1134
-53.2325
-57.1633
-60.9177
-64.5063
-67.9383
-71.2223
-74.366
-77.3768
-80.2614
-83.0262
-85.6772
-88.2198
-90.6593
-93.0005
-95.2479
-97.4058
-99.4785
-101.47
-103.383
-105.223
-106.992
-108.694
-110.332
-111.911
-113.432
-114.9
-116.319
-117.692
-119.022
-120.315
-121.574
-122.805
-124.011
-125.199
-126.373
-127.54
-128.706
-129.876
-131.057
-132.257
-133.485
-134.747
-136.049
-137.399
-138.805
-140.276
-141.82
-143.443
-144.971
-146.229
-147.425
-148.595
-149.768
-150.944
-152.115
-153.275
-154.419
-155.542
-156.638
-157.701
-158.725
-159.704
-160.634
-161.508
-162.323
-163.075
-163.763
-164.385
-164.942
-165.435
-165.869
-166.259
-166.638
47.2671
34.81
23.2584
14.2366
6.56123
-0.563787
-7.298
-13.6261
-19.5659
-25.1631
-30.4581
-35.4794
-40.2489
-44.7858
-49.1066
-53.226
-57.1572
-60.9117
-64.5001
-67.9318
-71.2155
-74.3591
-77.37
-80.255
-83.0205
-85.6725
-88.2163
-90.6571
-92.9997
-95.2484
-97.4075
-99.4812
-101.473
-103.387
-105.227
-106.996
-108.697
-110.334
-111.911
-113.43
-114.895
-116.31
-117.678
-119.003
-120.289
-121.539
-122.759
-123.953
-125.126
-126.282
-127.428
-128.567
-129.707
-130.853
-132.01
-133.185
-134.385
-135.617
-136.885
-138.197
-139.557
-140.971
-142.443
-143.804
-144.921
-145.972
-146.986
-147.991
-148.986
-149.964
-150.918
-151.841
-152.731
-153.58
-154.383
-155.135
-155.83
-156.463
-157.03
-157.524
-157.943
-158.282
-158.538
-158.709
-158.792
-158.785
-158.689
-158.515
47.0527
34.8726
23.3158
14.2611
6.58198
-0.544594
-7.2822
-13.613
-19.5545
-25.1527
-30.4486
-35.4707
-40.2409
-44.7782
-49.0994
-53.2192
-57.1507
-60.9055
-64.4942
-67.9262
-71.2103
-74.3544
-77.3656
-80.2509
-83.0166
-85.6684
-88.2119
-90.6522
-92.9941
-95.2421
-97.4004
-99.4732
-101.464
-103.378
-105.216
-106.984
-108.685
-110.321
-111.897
-113.414
-114.878
-116.29
-117.654
-118.974
-120.253
-121.496
-122.705
-123.885
-125.041
-126.176
-127.295
-128.403
-129.505
-130.604
-131.706
-132.816
-133.94
-135.081
-136.244
-137.433
-138.648
-139.891
-141.158
-142.333
-143.292
-144.162
-144.981
-145.78
-146.558
-147.308
-148.022
-148.697
-149.328
-149.913
-150.446
-150.925
-151.348
-151.711
-152.013
-152.253
-152.43
-152.545
-152.598
-152.589
-152.52
-152.393
-152.209
-151.972
46.8527
34.927
23.3712
14.2842
6.60128
-0.526418
-7.26721
-13.6006
-19.5436
-25.1429
-30.4396
-35.4624
-40.2332
-44.771
-49.0926
-53.2128
-57.1446
-60.8996
-64.4886
-67.9208
-71.2051
-74.3492
-77.3604
-80.2457
-83.0114
-85.6632
-88.2069
-90.6474
-92.9895
-95.2379
-97.3967
-99.4699
-101.461
-103.375
-105.214
-106.982
-108.682
-110.317
-111.891
-113.406
-114.865
-116.273
-117.63
-118.942
-120.211
-121.44
-122.632
-123.792
-124.922
-126.027
-127.109
-128.173
-129.222
-130.259
-131.288
-132.312
-133.335
-134.359
-135.386
-136.415
-137.446
-138.478
-139.502
-140.429
-141.171
-141.823
-142.419
-142.984
-143.52
-144.019
-144.477
-144.892
-145.263
-145.587
-145.864
-146.095
-146.278
-146.416
-146.509
-146.559
-146.57
-146.543
-146.482
-146.391
-146.273
-146.133
-145.975
-145.803
46.7133
34.9627
23.4112
14.3005
6.61477
-0.513551
-7.25659
-13.5918
-19.5359
-25.136
-30.4333
-35.4565
-40.2278
-44.7659
-49.0878
-53.2083
-57.1403
-60.8955
-64.4846
-67.917
-71.2014
-74.3456
-77.3571
-80.2425
-83.0083
-85.6603
-88.2041
-90.6446
-92.9868
-95.235
-97.3936
-99.4665
-101.457
-103.37
-105.208
-106.975
-108.673
-110.307
-111.878
-113.39
-114.845
-116.247
-117.598
-118.901
-120.158
-121.373
-122.548
-123.686
-124.789
-125.86
-126.902
-127.918
-128.909
-129.877
-130.826
-131.756
-132.669
-133.564
-134.442
-135.301
-136.138
-136.949
-137.726
-138.401
-138.923
-139.364
-139.749
-140.096
-140.408
-140.68
-140.91
-141.097
-141.241
-141.343
-141.403
-141.423
-141.405
-141.35
-141.261
-141.141
-140.991
-140.816
-140.618
-140.401
-140.168
-139.922
-139.665
-139.402
46.646
34.9796
23.4313
14.3089
6.62169
-0.506896
-7.25104
-13.5872
-19.5318
-25.1323
-30.4298
-35.4534
-40.2248
-44.7632
-49.0852
-53.2058
-57.1379
-60.8933
-64.4824
-67.9149
-71.1993
-74.3436
-77.3551
-80.2406
-83.0064
-85.6585
-88.2022
-90.6427
-92.9848
-95.233
-97.3914
-99.4642
-101.455
-103.368
-105.205
-106.971
-108.669
-110.301
-111.87
-113.379
-114.83
-116.227
-117.571
-118.865
-120.11
-121.311
-122.467
-123.582
-124.657
-125.694
-126.694
-127.66
-128.592
-129.491
-130.358
-131.193
-131.996
-132.766
-133.499
-134.194
-134.846
-135.449
-135.996
-136.435
-136.756
-137.009
-137.209
-137.37
-137.491
-137.573
-137.614
-137.615
-137.579
-137.506
-137.399
-137.259
-137.089
-136.892
-136.669
-136.425
-136.161
-135.88
-135.585
-135.278
-134.961
-134.637
-134.309
-133.976
46.6465
34.9793
23.4311
14.3089
6.62165
-0.506966
-7.2511
-13.5872
-19.5319
-25.1323
-30.4299
-35.4534
-40.2248
-44.7632
-49.0852
-53.2058
-57.1379
-60.8933
-64.4824
-67.9149
-71.1994
-74.3437
-77.3552
-80.2406
-83.0064
-85.6585
-88.2022
-90.6426
-92.9847
-95.2328
-97.3911
-99.4637
-101.454
-103.366
-105.203
-106.968
-108.665
-110.295
-111.862
-113.367
-114.815
-116.206
-117.543
-118.827
-120.062
-121.247
-122.385
-123.477
-124.523
-125.526
-126.486
-127.402
-128.276
-129.106
-129.893
-130.635
-131.331
-131.978
-132.574
-133.113
-133.59
-134
-134.335
-134.562
-134.702
-134.787
-134.826
-134.824
-134.784
-134.705
-134.589
-134.437
-134.252
-134.036
-133.791
-133.521
-133.227
-132.913
-132.58
-132.233
-131.873
-131.502
-131.124
-130.74
-130.353
-129.963
-129.574
-129.186
46.7149
34.9617
23.4107
14.3005
6.61469
-0.513725
-7.25674
-13.5919
-19.536
-25.1361
-30.4333
-35.4566
-40.2278
-44.766
-49.0879
-53.2083
-57.1403
-60.8956
-64.4847
-67.9171
-71.2014
-74.3457
-77.3571
-80.2425
-83.0083
-85.6603
-88.2039
-90.6444
-92.9864
-95.2344
-97.3926
-99.4649
-101.455
-103.367
-105.203
-106.967
-108.662
-110.29
-111.854
-113.357
-114.8
-116.186
-117.515
-118.791
-120.013
-121.184
-122.304
-123.373
-124.392
-125.362
-126.281
-127.15
-127.967
-128.731
-129.441
-130.095
-130.689
-131.221
-131.687
-132.081
-132.399
-132.634
-132.779
-132.817
-132.796
-132.736
-132.636
-132.498
-132.322
-132.11
-131.864
-131.588
-131.283
-130.952
-130.598
-130.223
-129.831
-129.425
-129.006
-128.577
-128.141
-127.7
-127.256
-126.811
-126.368
-125.926
-125.49
-125.058
46.8532
34.9258
23.371
14.2845
6.60137
-0.5265
-7.26728
-13.6006
-19.5436
-25.1429
-30.4396
-35.4624
-40.2332
-44.771
-49.0926
-53.2128
-57.1446
-60.8997
-64.4885
-67.9208
-71.205
-74.3492
-77.3605
-80.2458
-83.0114
-85.6632
-88.2067
-90.6469
-92.9888
-95.2367
-97.3948
-99.467
-101.457
-103.368
-105.204
-106.968
-108.662
-110.289
-111.851
-113.351
-114.791
-116.171
-117.494
-118.761
-119.972
-121.129
-122.23
-123.278
-124.27
-125.207
-126.087
-126.909
-127.671
-128.371
-129.007
-129.576
-130.074
-130.498
-130.843
-131.105
-131.278
-131.355
-131.328
-131.188
-131.019
-130.828
-130.609
-130.353
-130.061
-129.736
-129.38
-128.999
-128.593
-128.167
-127.722
-127.263
-126.791
-126.309
-125.821
-125.327
-124.832
-124.337
-123.843
-123.353
-122.869
-122.391
-121.922
-121.462
47.0467
34.8728
23.3173
14.2623
6.58273
-0.544111
-7.28181
-13.6127
-19.5541
-25.1524
-30.4483
-35.4704
-40.2406
-44.778
-49.0992
-53.2191
-57.1505
-60.9053
-64.494
-67.926
-71.2101
-74.3541
-77.3654
-80.2507
-83.0163
-85.6681
-88.2115
-90.6517
-92.9933
-95.2408
-97.3983
-99.4699
-101.459
-103.37
-105.205
-106.967
-108.659
-110.284
-111.844
-113.342
-114.777
-116.153
-117.471
-118.73
-119.932
-121.077
-122.165
-123.194
-124.165
-125.075
-125.923
-126.707
-127.425
-128.073
-128.649
-129.148
-129.568
-129.904
-130.152
-130.308
-130.367
-130.324
-130.172
-129.886
-129.588
-129.3
-128.998
-128.66
-128.284
-127.876
-127.442
-126.986
-126.508
-126.014
-125.504
-124.983
-124.451
-123.913
-123.369
-122.822
-122.273
-121.724
-121.176
-120.63
-120.087
-119.548
-119.013
-118.481
47.2544
34.812
23.2615
14.2386
6.56266
-0.562737
-7.29713
-13.6254
-19.5653
-25.1625
-30.4575
-35.4789
-40.2485
-44.7853