/*--------------------------------*- C++ -*----------------------------------*\
| =========                 |                                                 |
| \\      /  F ield         | OpenFOAM: The Open Source CFD Toolbox           |
|  \\    /   O peration     | Version:  5.x                                   |
|   \\  /    A nd           | Web:      www.OpenFOAM.org                      |
|    \\/     M anipulation  |                                                 |
\*---------------------------------------------------------------------------*/
FoamFile
{
    version     2.0;
    format      ascii;
    class       surfaceScalarField;
    location    "800";
    object      phi;
}
// * * * * * * * * * * * * * * * * * * * * * * * * * * * * * * * * * * * * * //

dimensions      [0 3 -1 0 0 0 0];

internalField   nonuniform List<scalar> 
40747
(
1.48845e-05
-4.01487e-09
6.49085e-06
8.39366e-06
1.80058e-05
-8.50726e-09
1.28336e-05
1.16631e-05
2.17818e-05
-1.36142e-08
1.94339e-05
1.51815e-05
2.63495e-05
-1.92429e-08
2.6393e-05
1.93904e-05
3.18749e-05
-2.5158e-08
3.37375e-05
2.45304e-05
3.85585e-05
-3.09013e-08
4.14457e-05
3.08503e-05
4.66431e-05
-3.569e-08
4.94504e-05
3.86384e-05
5.64223e-05
-3.83012e-08
5.7635e-05
4.82377e-05
6.82511e-05
-3.69566e-08
6.58282e-05
6.00579e-05
8.25591e-05
-2.92192e-08
7.38007e-05
7.45866e-05
9.98661e-05
-1.19026e-08
8.12675e-05
9.23992e-05
0.000120801
1.90123e-08
8.79007e-05
0.000114168
0.000146124
6.84579e-08
9.33593e-05
0.000140665
0.000176756
1.42339e-07
9.73435e-05
0.000172772
0.000213811
2.47521e-07
9.96842e-05
0.00021147
0.000258636
3.91662e-07
0.00010047
0.000257851
0.000312863
5.82759e-07
0.00010007
0.000313263
0.000378464
8.28391e-07
9.88855e-05
0.000379648
0.000457829
1.13486e-06
9.71516e-05
0.000459563
0.000553848
1.50624e-06
9.49434e-05
0.000556056
0.000670017
1.94299e-06
9.22401e-05
0.000672721
0.00081057
2.43994e-06
8.89709e-05
0.000813839
0.000980627
2.98336e-06
8.50362e-05
0.000984561
0.00118638
3.54703e-06
8.03147e-05
0.00119111
0.00143534
4.08722e-06
7.46638e-05
0.001441
0.00173658
4.53689e-06
6.79166e-05
0.00174333
0.00210107
4.79998e-06
5.98772e-05
0.00210911
0.00254209
4.74823e-06
5.03137e-05
0.00255165
0.0030757
4.22545e-06
3.89453e-05
0.00308707
0.00372128
3.06951e-06
2.54206e-05
0.0037348
0.00356597
1.60829e-06
1.26158e-05
0.00357878
0.00356613
-1.74147e-08
-1.17495e-07
0.00357887
0.00356613
-1.6416e-06
-1.28517e-05
0.00357887
0.00356597
-3.0982e-06
-2.56591e-05
0.00357877
0.00360839
-4.21769e-06
-3.87751e-05
0.0036215
0.00300139
-4.74075e-06
-4.98643e-05
0.00301248
0.00249648
-4.81411e-06
-5.92474e-05
0.00250587
0.00207652
-4.58085e-06
-6.7182e-05
0.00208445
0.00172722
-4.16042e-06
-7.38819e-05
0.00173392
0.0014367
-3.64389e-06
-7.95283e-05
0.00144235
0.00119506
-3.09621e-06
-8.42762e-05
0.00119981
0.000994089
-2.56088e-06
-8.82591e-05
0.000998072
0.000826927
-2.06493e-06
-9.15911e-05
0.00083026
0.000687888
-1.62339e-06
-9.43683e-05
0.000690665
0.000572238
-1.2429e-06
-9.66646e-05
0.000574534
0.00047604
-9.24399e-07
-9.85188e-05
0.000477894
0.000396021
-6.65095e-07
-9.99025e-05
0.000397405
0.000329458
-4.59833e-07
-0.000100668
0.000330224
0.000274088
-3.01997e-07
-0.000100506
0.000273926
0.000228026
-1.84275e-07
-9.90296e-05
0.000226549
0.000189707
-9.93768e-08
-9.6016e-05
0.000186693
0.000157828
-4.0577e-08
-9.15097e-05
0.000153322
0.000131307
-1.97269e-09
-8.57278e-05
0.000125525
0.000109242
2.14475e-08
-7.89643e-05
0.000102479
9.08851e-05
3.38316e-08
-7.15287e-05
8.34495e-05
7.56125e-05
3.85316e-08
-6.37071e-05
6.77909e-05
6.29059e-05
3.81799e-08
-5.57436e-05
5.49424e-05
5.23342e-05
3.47682e-08
-4.78319e-05
4.44225e-05
4.35389e-05
2.9733e-08
-4.01152e-05
3.58222e-05
3.62212e-05
2.40517e-08
-3.26898e-05
2.87959e-05
3.01333e-05
1.83442e-08
-2.56095e-05
2.30529e-05
2.50683e-05
1.29695e-08
-1.88877e-05
1.83466e-05
2.08547e-05
8.10895e-09
-1.24946e-05
1.44615e-05
1.73491e-05
3.83013e-09
-6.32845e-06
1.1183e-05
1.44329e-05
8.10446e-06
2.16352e-06
6.23015e-06
1.8976e-06
2.6592e-07
1.80024e-06
9.73566e-08
1.73785e-06
6.23944e-08
1.6933e-06
4.45462e-08
1.65962e-06
3.36794e-08
1.63305e-06
2.65731e-08
1.61144e-06
2.16075e-08
1.59351e-06
1.79293e-08
1.57841e-06
1.51024e-08
1.56553e-06
1.28792e-08
1.55443e-06
1.10988e-08
1.54478e-06
9.64994e-09
1.53633e-06
8.45369e-09
1.52887e-06
7.45271e-09
1.52227e-06
6.60621e-09
1.51638e-06
5.88492e-09
1.51112e-06
5.26653e-09
1.50638e-06
4.73283e-09
1.50211e-06
4.26867e-09
1.49825e-06
3.86197e-09
1.49475e-06
3.50349e-09
1.49156e-06
3.1863e-09
1.48866e-06
2.90501e-09
1.486e-06
2.6551e-09
1.48357e-06
2.43255e-09
1.48134e-06
2.2337e-09
1.47928e-06
2.05523e-09
1.47739e-06
1.89427e-09
1.47564e-06
1.74836e-09
1.47402e-06
1.61546e-09
1.47253e-06
1.49386e-09
1.47115e-06
1.38212e-09
1.46987e-06
1.27898e-09
1.46868e-06
1.18328e-09
1.46759e-06
1.09389e-09
1.46658e-06
1.00969e-09
1.46565e-06
9.29528e-10
1.4648e-06
8.52214e-10
1.46402e-06
7.76489e-10
1.46332e-06
7.01035e-10
1.4627e-06
6.24463e-10
1.46215e-06
5.45313e-10
1.46169e-06
4.62052e-10
1.46132e-06
3.73064e-10
1.46104e-06
2.76633e-10
1.46087e-06
1.70792e-10
1.46082e-06
5.18522e-11
1.4609e-06
-8.17129e-11
1.46113e-06
-2.30065e-10
1.46152e-06
-3.95218e-10
1.4621e-06
-5.78855e-10
1.46289e-06
-7.8248e-10
1.46389e-06
-1.00793e-09
1.46515e-06
-1.25776e-09
1.46669e-06
-1.5352e-09
1.46853e-06
-1.8437e-09
1.47072e-06
-2.18727e-09
1.47329e-06
-2.567e-09
1.47629e-06
-2.99999e-09
1.47973e-06
-3.44835e-09
1.48388e-06
-4.14204e-09
1.48888e-06
-5.00199e-09
1.49225e-06
-3.36816e-09
1.49548e-06
-3.2299e-09
1.49908e-06
-3.60285e-09
1.50304e-06
-3.96062e-09
1.50725e-06
-4.21313e-09
1.51171e-06
-4.45368e-09
1.5164e-06
-4.69742e-09
1.52135e-06
-4.9479e-09
1.52656e-06
-5.20634e-09
1.53204e-06
-5.47625e-09
1.5378e-06
-5.76e-09
1.54386e-06
-6.06256e-09
1.55025e-06
-6.38811e-09
1.55699e-06
-6.74467e-09
1.56413e-06
-7.14086e-09
1.57173e-06
-7.59113e-09
1.57984e-06
-8.11523e-09
1.58859e-06
-8.74421e-09
1.59812e-06
-9.53228e-09
1.60868e-06
-1.05636e-08
1.62076e-06
-1.20785e-08
1.6353e-06
-1.45336e-08
1.65715e-06
-2.18524e-08
1.72855e-06
-7.14007e-08
-8.20891e-07
2.54945e-06
5.2681e-06
1.26252e-05
4.63266e-06
9.01368e-07
4.41584e-06
3.1417e-07
4.28459e-06
1.93643e-07
4.1927e-06
1.36443e-07
4.12377e-06
1.02609e-07
4.06955e-06
8.07899e-08
4.02551e-06
6.5653e-08
3.98896e-06
5.44743e-08
3.95817e-06
4.5893e-08
3.9319e-06
3.91491e-08
3.90925e-06
3.37501e-08
3.88954e-06
2.93569e-08
3.87227e-06
2.57287e-08
3.85703e-06
2.26921e-08
3.84351e-06
2.01232e-08
3.83146e-06
1.79334e-08
3.82067e-06
1.60552e-08
3.81097e-06
1.44334e-08
3.80222e-06
1.30224e-08
3.7943e-06
1.17858e-08
3.7871e-06
1.06954e-08
3.78056e-06
9.73032e-09
3.77459e-06
8.87407e-09
3.76913e-06
8.11299e-09
3.76413e-06
7.43492e-09
3.75953e-06
6.8288e-09
3.75531e-06
6.28466e-09
3.75141e-06
5.79376e-09
3.74781e-06
5.34865e-09
3.74448e-06
4.9431e-09
3.7414e-06
4.5719e-09
3.73855e-06
4.23062e-09
3.73592e-06
3.91539e-09
3.73348e-06
3.62259e-09
3.73122e-06
3.34876e-09
3.72914e-06
3.09043e-09
3.72723e-06
2.844e-09
3.72547e-06
2.60574e-09
3.72388e-06
2.37174e-09
3.72244e-06
2.13783e-09
3.72116e-06
1.89965e-09
3.72006e-06
1.65259e-09
3.71913e-06
1.39178e-09
3.71839e-06
1.11208e-09
3.71786e-06
8.08039e-10
3.71755e-06
4.73376e-10
3.71751e-06
9.55791e-11
3.71776e-06
-3.29561e-10
3.71833e-06
-8.01894e-10
3.71926e-06
-1.32838e-09
3.7206e-06
-1.91428e-09
3.72238e-06
-2.56443e-09
3.72466e-06
-3.28472e-09
3.72748e-06
-4.08327e-09
3.73092e-06
-4.97062e-09
3.73503e-06
-5.95757e-09
3.73991e-06
-7.05784e-09
3.74561e-06
-8.27164e-09
3.75228e-06
-9.66715e-09
3.7599e-06
-1.10686e-08
3.76917e-06
-1.34181e-08
3.78017e-06
-1.60004e-08
3.78771e-06
-1.09064e-08
3.79505e-06
-1.05728e-08
3.80295e-06
-1.14989e-08
3.81167e-06
-1.2678e-08
3.82097e-06
-1.35152e-08
3.83081e-06
-1.42958e-08
3.8412e-06
-1.50817e-08
3.85214e-06
-1.58861e-08
3.86365e-06
-1.6716e-08
3.87575e-06
-1.75808e-08
3.88848e-06
-1.84903e-08
3.90188e-06
-1.94583e-08
3.91599e-06
-2.05004e-08
3.93089e-06
-2.16396e-08
3.94665e-06
-2.29055e-08
3.9634e-06
-2.43413e-08
3.9813e-06
-2.60112e-08
4.00057e-06
-2.80089e-08
4.02155e-06
-3.05156e-08
4.04474e-06
-3.3745e-08
4.07131e-06
-3.8648e-08
4.10249e-06
-4.5711e-08
4.14992e-06
-6.9285e-08
4.25019e-06
-1.71662e-07
-1.03192e-06
4.46121e-06
8.24101e-06
1.95657e-05
7.22626e-06
1.91612e-06
6.88449e-06
6.55941e-07
6.68516e-06
3.92967e-07
6.5479e-06
2.73709e-07
6.4458e-06
2.04709e-07
6.36585e-06
1.60733e-07
6.30107e-06
1.30431e-07
6.24741e-06
1.08135e-07
6.20225e-06
9.10547e-08
6.16375e-06
7.76509e-08
6.13057e-06
6.69313e-08
6.10171e-06
5.82148e-08
6.07642e-06
5.10195e-08
6.05411e-06
4.49992e-08
6.03433e-06
3.99075e-08
6.01669e-06
3.55676e-08
6.00091e-06
3.18451e-08
5.98671e-06
2.86308e-08
5.9739e-06
2.58345e-08
5.9623e-06
2.33838e-08
5.95177e-06
2.12232e-08
5.94219e-06
1.93106e-08
5.93345e-06
1.76135e-08
5.92546e-06
1.61048e-08
5.91813e-06
1.47604e-08
5.9114e-06
1.35585e-08
5.90521e-06
1.24793e-08
5.8995e-06
1.15057e-08
5.89422e-06
1.06229e-08
5.88935e-06
9.81844e-09
5.88484e-06
9.08202e-09
5.88066e-06
8.40481e-09
5.8768e-06
7.779e-09
5.87322e-06
7.19741e-09
5.86992e-06
6.65307e-09
5.86687e-06
6.13899e-09
5.86407e-06
5.64799e-09
5.8615e-06
5.17254e-09
5.85917e-06
4.70473e-09
5.85707e-06
4.23618e-09
5.85521e-06
3.75803e-09
5.8536e-06
3.26094e-09
5.85226e-06
2.73503e-09
5.8512e-06
2.16984e-09
5.85045e-06
1.55425e-09
5.85005e-06
8.75468e-10
5.85004e-06
1.07075e-10
5.85047e-06
-7.58946e-10
5.85139e-06
-1.72139e-09
5.85286e-06
-2.79487e-09
5.85493e-06
-3.99009e-09
5.85769e-06
-5.31694e-09
5.86119e-06
-6.78748e-09
5.86552e-06
-8.41828e-09
5.87078e-06
-1.0231e-08
5.87707e-06
-1.22474e-08
5.88451e-06
-1.44966e-08
5.89322e-06
-1.6976e-08
5.90339e-06
-1.98367e-08
5.91499e-06
-2.26722e-08
5.92916e-06
-2.75818e-08
5.94579e-06
-3.26327e-08
5.95733e-06
-2.24513e-08
5.96871e-06
-2.19499e-08
5.98072e-06
-2.35081e-08
5.99395e-06
-2.59035e-08
6.00808e-06
-2.76451e-08
6.02303e-06
-2.92544e-08
6.03882e-06
-3.08662e-08
6.05545e-06
-3.25118e-08
6.07294e-06
-3.42077e-08
6.09133e-06
-3.59724e-08
6.11067e-06
-3.78274e-08
6.13101e-06
-3.97988e-08
6.15243e-06
-4.19199e-08
6.17503e-06
-4.42352e-08
6.19893e-06
-4.68051e-08
6.2243e-06
-4.9715e-08
6.25139e-06
-5.30939e-08
6.2805e-06
-5.71256e-08
6.31217e-06
-6.21766e-08
6.34706e-06
-6.86343e-08
6.38692e-06
-7.85092e-08
6.43325e-06
-9.20333e-08
6.50147e-06
-1.37509e-07
6.61159e-06
-2.81777e-07
-1.01334e-06
6.59302e-06
1.17451e-05
2.7211e-05
1.02611e-05
3.40008e-06
9.7557e-06
1.16135e-06
9.46953e-06
6.79139e-07
9.2755e-06
4.67732e-07
9.1324e-06
3.47808e-07
9.02091e-06
2.72224e-07
8.93085e-06
2.20499e-07
8.85638e-06
1.82596e-07
8.7938e-06
1.53635e-07
8.74051e-06
1.30948e-07
8.69461e-06
1.12829e-07
8.65472e-06
9.81099e-08
8.61977e-06
8.59683e-08
8.58895e-06
7.58152e-08
8.56163e-06
6.7232e-08
8.53728e-06
5.99184e-08
8.51547e-06
5.36463e-08
8.49587e-06
4.82313e-08
8.47819e-06
4.35213e-08
8.46218e-06
3.93941e-08
8.44764e-06
3.5756e-08
8.43442e-06
3.25358e-08
8.42235e-06
2.96785e-08
8.41132e-06
2.7138e-08
8.40121e-06
2.4874e-08
8.39192e-06
2.28498e-08
8.38336e-06
2.10324e-08
8.37548e-06
1.93927e-08
8.36819e-06
1.79059e-08
8.36146e-06
1.65511e-08
8.35523e-06
1.53108e-08
8.34947e-06
1.41701e-08
8.34413e-06
1.31157e-08
8.33919e-06
1.21354e-08
8.33463e-06
1.12173e-08
8.33042e-06
1.03497e-08
8.32654e-06
9.52015e-09
8.323e-06
8.71602e-09
8.31978e-06
7.92377e-09
8.31689e-06
7.12911e-09
8.31433e-06
6.31692e-09
8.31212e-06
5.47119e-09
8.31028e-06
4.57502e-09
8.30884e-06
3.61049e-09
8.30783e-06
2.55851e-09
8.30731e-06
1.39708e-09
8.30734e-06
7.99125e-11
8.30799e-06
-1.40647e-09
8.30933e-06
-3.05894e-09
8.31143e-06
-4.90273e-09
8.3144e-06
-6.95625e-09
8.31832e-06
-9.23658e-09
8.3233e-06
-1.17644e-08
8.32945e-06
-1.45682e-08
8.3369e-06
-1.7685e-08
8.34581e-06
-2.11526e-08
8.35633e-06
-2.5021e-08
8.36864e-06
-2.92845e-08
8.38301e-06
-3.42095e-08
8.39941e-06
-3.90697e-08
8.41939e-06
-4.75632e-08
8.44269e-06
-5.59285e-08
8.45904e-06
-3.87986e-08
8.47533e-06
-3.82423e-08
8.49233e-06
-4.05114e-08
8.51095e-06
-4.45236e-08
8.53085e-06
-4.75405e-08
8.55192e-06
-5.03205e-08
8.57414e-06
-5.30938e-08
8.59755e-06
-5.59188e-08
8.62217e-06
-5.88262e-08
8.64805e-06
-6.18473e-08
8.67524e-06
-6.50192e-08
8.70383e-06
-6.83856e-08
8.73391e-06
-7.20027e-08
8.76562e-06
-7.59447e-08
8.79913e-06
-8.0313e-08
8.83466e-06
-8.52496e-08
8.87254e-06
-9.09688e-08
8.91319e-06
-9.77744e-08
8.95729e-06
-1.06274e-07
9.00575e-06
-1.17093e-07
9.06081e-06
-1.3356e-07
9.12442e-06
-1.55639e-07
9.21369e-06
-2.26779e-07
9.33243e-06
-4.0052e-07
-9.43199e-07
9.2623e-06
1.60742e-05
3.56672e-05
1.40049e-05
5.46932e-06
1.32809e-05
1.88535e-06
1.28804e-05
1.07965e-06
1.26129e-05
7.35257e-07
1.24173e-05
5.43415e-07
1.22657e-05
4.23811e-07
1.21437e-05
3.42539e-07
1.2043e-05
2.83259e-07
1.19585e-05
2.38097e-07
1.18867e-05
2.02794e-07
1.18249e-05
1.74645e-07
1.17712e-05
1.51805e-07
1.17242e-05
1.32981e-07
1.16827e-05
1.17251e-07
1.1646e-05
1.03962e-07
1.16133e-05
9.26425e-08
1.1584e-05
8.29383e-08
1.15576e-05
7.45622e-08
1.15339e-05
6.72784e-08
1.15124e-05
6.08977e-08
1.14929e-05
5.52743e-08
1.14751e-05
5.02978e-08
1.14589e-05
4.58822e-08
1.14441e-05
4.19562e-08
1.14305e-05
3.84573e-08
1.1418e-05
3.53288e-08
1.14065e-05
3.252e-08
1.13959e-05
2.99859e-08
1.13862e-05
2.76884e-08
1.13771e-05
2.5595e-08
1.13687e-05
2.36785e-08
1.1361e-05
2.19158e-08
1.13538e-05
2.02861e-08
1.13472e-05
1.87705e-08
1.13411e-05
1.73506e-08
1.13354e-05
1.60078e-08
1.13302e-05
1.47232e-08
1.13254e-05
1.34769e-08
1.13211e-05
1.22477e-08
1.13172e-05
1.10136e-08
1.13138e-05
9.75078e-09
1.13108e-05
8.43436e-09
1.13084e-05
7.03785e-09
1.13064e-05
5.53326e-09
1.13051e-05
3.8907e-09
1.13044e-05
2.0757e-09
1.13045e-05
1.48983e-11
1.13054e-05
-2.31308e-09
1.13073e-05
-4.90234e-09
1.13101e-05
-7.79184e-09
1.13142e-05
-1.10106e-08
1.13195e-05
-1.45854e-08
1.13263e-05
-1.85487e-08
1.13347e-05
-2.29447e-08
1.13449e-05
-2.78316e-08
1.1357e-05
-3.32683e-08
1.13713e-05
-3.93335e-08
1.1388e-05
-4.60181e-08
1.14075e-05
-5.37384e-08
1.14298e-05
-6.136e-08
1.14569e-05
-7.4634e-08
1.14882e-05
-8.72667e-08
1.15105e-05
-6.10043e-08
1.15328e-05
-6.0638e-08
1.1556e-05
-6.3707e-08
1.15813e-05
-6.97533e-08
1.16082e-05
-7.44756e-08
1.16367e-05
-7.88352e-08
1.16668e-05
-8.31723e-08
1.16985e-05
-8.7581e-08
1.17318e-05
-9.21114e-08
1.17667e-05
-9.68117e-08
1.18034e-05
-1.01739e-07
1.1842e-05
-1.0696e-07
1.18826e-05
-1.12561e-07
1.19253e-05
-1.18653e-07
1.19704e-05
-1.2539e-07
1.20181e-05
-1.32986e-07
1.20689e-05
-1.41763e-07
1.21233e-05
-1.52176e-07
1.21822e-05
-1.6513e-07
1.22466e-05
-1.81562e-07
1.23194e-05
-2.06323e-07
1.2403e-05
-2.39218e-07
1.25147e-05
-3.38534e-07
1.26449e-05
-5.3068e-07
-9.2737e-07
1.26291e-05
2.15074e-05
4.50101e-05
1.87101e-05
8.26668e-06
1.76923e-05
2.90307e-06
1.71391e-05
1.63291e-06
1.67747e-05
1.0996e-06
1.65107e-05
8.07438e-07
1.63073e-05
6.27231e-07
1.61441e-05
5.0568e-07
1.60099e-05
4.1747e-07
1.58975e-05
3.50497e-07
1.58021e-05
2.98272e-07
1.572e-05
2.56704e-07
1.56488e-05
2.23024e-07
1.55865e-05
1.95296e-07
1.55316e-05
1.72147e-07
1.54829e-05
1.52603e-07
1.54396e-05
1.35966e-07
1.54008e-05
1.21708e-07
1.5366e-05
1.09405e-07
1.53346e-05
9.87104e-08
1.53061e-05
8.93448e-08
1.52803e-05
8.10933e-08
1.52568e-05
7.37924e-08
1.52354e-05
6.73151e-08
1.52158e-05
6.15562e-08
1.51978e-05
5.64236e-08
1.51813e-05
5.18345e-08
1.51661e-05
4.77144e-08
1.51521e-05
4.39977e-08
1.51391e-05
4.06283e-08
1.51272e-05
3.75585e-08
1.51161e-05
3.47484e-08
1.51059e-05
3.21636e-08
1.50964e-05
2.97738e-08
1.50876e-05
2.75508e-08
1.50795e-05
2.54675e-08
1.5072e-05
2.34967e-08
1.50651e-05
2.16103e-08
1.50588e-05
1.9779e-08
1.50531e-05
1.79717e-08
1.50479e-05
1.61558e-08
1.50434e-05
1.42964e-08
1.50395e-05
1.23565e-08
1.50362e-05
1.02971e-08
1.50337e-05
8.07693e-09
1.50319e-05
5.65168e-09
1.5031e-05
2.97037e-09
1.50311e-05
-7.57825e-11
1.50323e-05
-3.51994e-09
1.50348e-05
-7.35269e-09
1.50386e-05
-1.16299e-08
1.5044e-05
-1.63946e-08
1.50511e-05
-2.16868e-08
1.50601e-05
-2.75541e-08
1.50712e-05
-3.40617e-08
1.50847e-05
-4.12951e-08
1.51007e-05
-4.93411e-08
1.51197e-05
-5.83159e-08
1.51419e-05
-6.82081e-08
1.51678e-05
-7.96213e-08
1.51974e-05
-9.09245e-08
1.52331e-05
-1.10388e-07
1.52742e-05
-1.2836e-07
1.53036e-05
-9.03688e-08
1.53336e-05
-9.06139e-08
1.53645e-05
-9.4608e-08
1.53978e-05
-1.0313e-07
1.54334e-05
-1.10052e-07
1.5471e-05
-1.16475e-07
1.55107e-05
-1.22857e-07
1.55525e-05
-1.29333e-07
1.55964e-05
-1.35976e-07
1.56424e-05
-1.42857e-07
1.56907e-05
-1.50058e-07
1.57414e-05
-1.57674e-07
1.57947e-05
-1.65828e-07
1.58507e-05
-1.74677e-07
1.59098e-05
-1.8444e-07
1.59722e-05
-1.95419e-07
1.60385e-05
-2.08068e-07
1.61094e-05
-2.23026e-07
1.61858e-05
-2.41549e-07
1.62692e-05
-2.64977e-07
1.63627e-05
-2.99815e-07
1.64694e-05
-3.4591e-07
1.66059e-05
-4.75002e-07
1.6753e-05
-6.77747e-07
-1.01749e-06
1.68431e-05
2.83645e-05
5.5284e-05
2.46699e-05
1.19613e-05
2.32578e-05
4.31519e-06
2.24987e-05
2.39197e-06
2.20055e-05
1.59285e-06
2.16513e-05
1.16161e-06
2.13801e-05
8.98399e-07
2.11636e-05
7.22216e-07
2.0986e-05
5.95076e-07
2.08376e-05
4.98919e-07
2.07117e-05
4.24142e-07
2.06037e-05
3.6475e-07
2.051e-05
3.16705e-07
2.04281e-05
2.77201e-07
2.0356e-05
2.44256e-07
2.02921e-05
2.16465e-07
2.02352e-05
1.92824e-07
2.01844e-05
1.72573e-07
2.01387e-05
1.55106e-07
2.00975e-05
1.39929e-07
2.00602e-05
1.26643e-07
2.00263e-05
1.14942e-07
1.99955e-05
1.04592e-07
1.99674e-05
9.54103e-08
1.99417e-05
8.72478e-08
1.99182e-05
7.99733e-08
1.98965e-05
7.34692e-08
1.98766e-05
6.76301e-08
1.98583e-05
6.23635e-08
1.98413e-05
5.75895e-08
1.98256e-05
5.32407e-08
1.98111e-05
4.92603e-08
1.97977e-05
4.55992e-08
1.97852e-05
4.22143e-08
1.97737e-05
3.90653e-08
1.97631e-05
3.61138e-08
1.97532e-05
3.33208e-08
1.97442e-05
3.06467e-08
1.97359e-05
2.80497e-08
1.97284e-05
2.5486e-08
1.97217e-05
2.29088e-08
1.97157e-05
2.02688e-08
1.97105e-05
1.75136e-08
1.97063e-05
1.45876e-08
1.97029e-05
1.14321e-08
1.97006e-05
7.98431e-09
1.96994e-05
4.17168e-09
1.96994e-05
-1.59987e-10
1.9701e-05
-5.06131e-09
1.97042e-05
-1.05188e-08
1.97091e-05
-1.66084e-08
1.97161e-05
-2.33916e-08
1.97254e-05
-3.09254e-08
1.97371e-05
-3.92773e-08
1.97516e-05
-4.85391e-08
1.97691e-05
-5.88314e-08
1.979e-05
-7.02773e-08
1.98148e-05
-8.30405e-08
1.98437e-05
-9.71101e-08
1.98774e-05
-1.13316e-07
1.99159e-05
-1.29446e-07
1.99623e-05
-1.56758e-07
2.00152e-05
-1.81274e-07
2.00533e-05
-1.28445e-07
2.00926e-05
-1.29942e-07
2.0133e-05
-1.35061e-07
2.01764e-05
-1.46536e-07
2.02226e-05
-1.56219e-07
2.02714e-05
-1.65275e-07
2.03228e-05
-1.74271e-07
2.03769e-05
-1.83386e-07
2.04336e-05
-1.92722e-07
2.04931e-05
-2.02375e-07
2.05555e-05
-2.12458e-07
2.0621e-05
-2.23099e-07
2.06896e-05
-2.34465e-07
2.07617e-05
-2.46772e-07
2.08376e-05
-2.60314e-07
2.09177e-05
-2.75499e-07
2.10025e-05
-2.92935e-07
2.1093e-05
-3.13487e-07
2.11903e-05
-3.38809e-07
2.1296e-05
-3.70741e-07
2.14137e-05
-4.17513e-07
2.15471e-05
-4.79281e-07
2.17112e-05
-6.39048e-07
2.18823e-05
-8.48899e-07
-1.22121e-06
2.20861e-05
3.70303e-05
6.64913e-05
3.22463e-05
1.67453e-05
3.03071e-05
6.25437e-06
2.92695e-05
3.4296e-06
2.86032e-05
2.25917e-06
2.81291e-05
1.63565e-06
2.77686e-05
1.2589e-06
2.74821e-05
1.00871e-06
2.7248e-05
8.29261e-07
2.70527e-05
6.94138e-07
2.68875e-05
5.89388e-07
2.67459e-05
5.06389e-07
2.66232e-05
4.39371e-07
2.6516e-05
3.8435e-07
2.64218e-05
3.38519e-07
2.63383e-05
2.999e-07
2.62641e-05
2.67072e-07
2.61977e-05
2.3897e-07
2.61381e-05
2.14743e-07
2.60843e-05
1.93702e-07
2.60356e-05
1.75292e-07
2.59915e-05
1.59085e-07
2.59513e-05
1.44754e-07
2.59147e-05
1.32044e-07
2.58812e-05
1.20745e-07
2.58505e-05
1.10677e-07
2.58223e-05
1.01675e-07
2.57963e-05
9.35942e-08
2.57724e-05
8.63068e-08
2.57503e-05
7.97022e-08
2.57298e-05
7.36871e-08
2.57109e-05
6.81823e-08
2.56934e-05
6.31199e-08
2.56772e-05
5.84395e-08
2.56621e-05
5.40854e-08
2.56483e-05
5.00041e-08
2.56354e-05
4.61418e-08
2.56236e-05
4.24433e-08
2.56128e-05
3.88512e-08
2.5603e-05
3.53045e-08
2.55942e-05
3.17391e-08
2.55864e-05
2.80865e-08
2.55796e-05
2.42745e-08
2.5574e-05
2.02263e-08
2.55695e-05
1.58606e-08
2.55664e-05
1.10908e-08
2.55648e-05
5.81713e-09
2.55648e-05
-1.71855e-10
2.55667e-05
-6.95258e-09
2.55707e-05
-1.45076e-08
2.5577e-05
-2.29356e-08
2.55859e-05
-3.23217e-08
2.55978e-05
-4.27447e-08
2.56128e-05
-5.42978e-08
2.56313e-05
-6.71062e-08
2.56539e-05
-8.13347e-08
2.56807e-05
-9.71528e-08
2.57125e-05
-1.14783e-07
2.57496e-05
-1.34221e-07
2.57928e-05
-1.56563e-07
2.58423e-05
-1.78936e-07
2.59016e-05
-2.16038e-07
2.59688e-05
-2.48459e-07
2.60174e-05
-1.77051e-07
2.60681e-05
-1.80695e-07
2.61204e-05
-1.87266e-07
2.6176e-05
-2.02226e-07
2.62351e-05
-2.15309e-07
2.62975e-05
-2.27654e-07
2.63632e-05
-2.39929e-07
2.64321e-05
-2.52355e-07
2.65045e-05
-2.65064e-07
2.65803e-05
-2.7818e-07
2.66597e-05
-2.91851e-07
2.67428e-05
-3.06246e-07
2.683e-05
-3.21585e-07
2.69213e-05
-3.38149e-07
2.70174e-05
-3.56324e-07
2.71185e-05
-3.76641e-07
2.72255e-05
-3.99889e-07
2.73392e-05
-4.27192e-07
2.7461e-05
-4.60658e-07
2.7593e-05
-5.02723e-07
2.77388e-05
-5.63334e-07
2.79029e-05
-6.43311e-07
2.80979e-05
-8.34052e-07
2.8301e-05
-1.05196e-06
-1.51889e-06
2.85986e-05
4.79732e-05
7.8576e-05
4.18933e-05
2.28253e-05
3.92556e-05
8.89201e-06
3.78401e-05
4.84508e-06
3.694e-05
3.15933e-06
3.63054e-05
2.27027e-06
3.58261e-05
1.73813e-06
3.54473e-05
1.38756e-06
3.51388e-05
1.13776e-06
3.48823e-05
9.50585e-07
3.46657e-05
8.05996e-07
3.44804e-05
6.91738e-07
3.43201e-05
5.99677e-07
3.41802e-05
5.24225e-07
3.40572e-05
4.61468e-07
3.39485e-05
4.08649e-07
3.38518e-05
3.63793e-07
3.37653e-05
3.25422e-07
3.36877e-05
2.92363e-07
3.36177e-05
2.63666e-07
3.35545e-05
2.38573e-07
3.3497e-05
2.16494e-07
3.34448e-05
1.96978e-07
3.33972e-05
1.79675e-07
3.33536e-05
1.64296e-07
3.33137e-05
1.50592e-07
3.32771e-05
1.38341e-07
3.32433e-05
1.27346e-07
3.32122e-05
1.17431e-07
3.31834e-05
1.08447e-07
3.31569e-05
1.00267e-07
3.31323e-05
9.27829e-08
3.31095e-05
8.59013e-08
3.30884e-05
7.95399e-08
3.30688e-05
7.36228e-08
3.30508e-05
6.80767e-08
3.30341e-05
6.28286e-08
3.30187e-05
5.78036e-08
3.30046e-05
5.29237e-08
3.29918e-05
4.81065e-08
3.29803e-05
4.32649e-08
3.29701e-05
3.83067e-08
3.29612e-05
3.31338e-08
3.29538e-05
2.76426e-08
3.2948e-05
2.17233e-08
3.29438e-05
1.52585e-08
3.29415e-05
8.11421e-09
3.29413e-05
9.26032e-12
3.29435e-05
-9.17133e-09
3.29484e-05
-1.94078e-08
3.29563e-05
-3.08228e-08
3.29675e-05
-4.35312e-08
3.29824e-05
-5.76401e-08
3.30014e-05
-7.32742e-08
3.30249e-05
-9.06012e-08
3.30534e-05
-1.0984e-07
3.30875e-05
-1.31219e-07
3.31277e-05
-1.55034e-07
3.31748e-05
-1.81291e-07
3.32296e-05
-2.11398e-07
3.32925e-05
-2.41751e-07
3.33673e-05
-2.90906e-07
3.34517e-05
-3.32784e-07
3.35129e-05
-2.38288e-07
3.35774e-05
-2.45253e-07
3.3644e-05
-2.53784e-07
3.37146e-05
-2.72847e-07
3.37893e-05
-2.90057e-07
3.38681e-05
-3.06446e-07
3.3951e-05
-3.2277e-07
3.40379e-05
-3.39287e-07
3.4129e-05
-3.56156e-07
3.42244e-05
-3.73534e-07
3.43241e-05
-3.91607e-07
3.44285e-05
-4.10591e-07
3.45377e-05
-4.30768e-07
3.4652e-05
-4.52495e-07
3.47719e-05
-4.76263e-07
3.48981e-05
-5.02745e-07
3.50311e-05
-5.32939e-07
3.51722e-05
-5.68265e-07
3.53229e-05
-6.11326e-07
3.54854e-05
-6.65264e-07
3.56637e-05
-7.41633e-07
3.58628e-05
-8.42381e-07
3.60925e-05
-1.06377e-06
3.6335e-05
-1.29443e-06
-1.88161e-06
3.66978e-05
6.17615e-05
9.14011e-05
5.41826e-05
3.04041e-05
5.0631e-05
1.24437e-05
4.87033e-05
6.77272e-06
4.74857e-05
4.37698e-06
4.66344e-05
3.1216e-06
4.59961e-05
2.37638e-06
4.54944e-05
1.88928e-06
4.50875e-05
1.54461e-06
4.47504e-05
1.28771e-06
4.44664e-05
1.09006e-06
4.42238e-05
9.34335e-07
4.40143e-05
8.0917e-07
4.38317e-05
7.06791e-07
4.36714e-05
6.21778e-07
4.35297e-05
5.50327e-07
4.34038e-05
4.89716e-07
4.32913e-05
4.37912e-07
4.31903e-05
3.93314e-07
4.30994e-05
3.54626e-07
4.30171e-05
3.20819e-07
4.29425e-05
2.9109e-07
4.28747e-05
2.64825e-07
4.28128e-05
2.41546e-07
4.27563e-05
2.20861e-07
4.27044e-05
2.02431e-07
4.26568e-05
1.85958e-07
4.2613e-05
1.71174e-07
4.25726e-05
1.57847e-07
4.25352e-05
1.45774e-07
4.25007e-05
1.34784e-07
4.24688e-05
1.24732e-07
4.24392e-05
1.15492e-07
4.24118e-05
1.06952e-07
4.23864e-05
9.90106e-08
4.23629e-05
9.15687e-08
4.23412e-05
8.45283e-08
4.23212e-05
7.77894e-08
4.23029e-05
7.12475e-08
4.22862e-05
6.4793e-08
4.22711e-05
5.83099e-08
4.22578e-05
5.16751e-08
4.22462e-05
4.47584e-08
4.22364e-05
3.74221e-08
4.22286e-05
2.95201e-08
4.22229e-05
2.08966e-08
4.22197e-05
1.13742e-08
4.22191e-05
5.90359e-10
4.22216e-05
-1.16281e-08
4.22274e-05
-2.52642e-08
4.22371e-05
-4.04617e-08
4.22509e-05
-5.73736e-08
4.22694e-05
-7.61422e-08
4.22931e-05
-9.69318e-08
4.23224e-05
-1.19962e-07
4.23581e-05
-1.45519e-07
4.24008e-05
-1.73903e-07
4.24513e-05
-2.05499e-07
4.25103e-05
-2.40335e-07
4.25791e-05
-2.80169e-07
4.26579e-05
-3.20615e-07
4.27515e-05
-3.84439e-07
4.28563e-05
-4.37572e-07
4.29325e-05
-3.14553e-07
4.30136e-05
-3.26296e-07
4.30973e-05
-3.3754e-07
4.31859e-05
-3.61442e-07
4.32795e-05
-3.83625e-07
4.3378e-05
-4.04922e-07
4.34814e-05
-4.26178e-07
4.35898e-05
-4.4768e-07
4.37032e-05
-4.69614e-07
4.38219e-05
-4.92166e-07
4.39459e-05
-5.1557e-07
4.40754e-05
-5.40092e-07
4.42107e-05
-5.66084e-07
4.43522e-05
-5.9399e-07
4.45003e-05
-6.24423e-07
4.46558e-05
-6.58215e-07
4.48195e-05
-6.96597e-07
4.49926e-05
-7.41328e-07
4.51768e-05
-7.9554e-07
4.53747e-05
-8.63183e-07
4.55903e-05
-9.572e-07
4.58292e-05
-1.08122e-06
4.60976e-05
-1.33223e-06
4.6386e-05
-1.58276e-06
-2.28319e-06
4.67876e-05
7.90785e-05
0.000104722
6.98323e-05
3.96503e-05
6.51058e-05
1.71702e-05
6.24868e-05
9.39169e-06
6.08367e-05
6.02709e-06
5.96911e-05
4.26715e-06
5.88383e-05
3.2292e-06
5.81719e-05
2.55574e-06
5.76339e-05
2.08257e-06
5.71897e-05
1.73195e-06
5.68164e-05
1.46334e-06
5.64983e-05
1.25243e-06
5.62241e-05
1.08338e-06
5.59855e-05
9.45406e-07
5.57762e-05
8.31059e-07
5.55914e-05
7.35107e-07
5.54273e-05
6.53819e-07
5.52808e-05
5.84414e-07
5.51494e-05
5.24713e-07
5.50311e-05
4.72966e-07
5.49241e-05
4.27781e-07
5.48271e-05
3.88074e-07
5.47389e-05
3.53016e-07
5.46585e-05
3.21956e-07
5.4585e-05
2.94364e-07
5.45177e-05
2.69786e-07
5.44558e-05
2.47821e-07
5.43989e-05
2.28113e-07
5.43464e-05
2.1035e-07
5.42979e-05
1.94264e-07
5.4253e-05
1.79626e-07
5.42115e-05
1.66241e-07
5.41731e-05
1.53942e-07
5.41374e-05
1.42579e-07
5.41044e-05
1.32016e-07
5.40739e-05
1.22121e-07
5.40457e-05
1.12764e-07
5.40196e-05
1.03812e-07
5.39957e-05
9.51284e-08
5.3974e-05
8.65677e-08
5.39543e-05
7.79776e-08
5.39368e-05
6.91964e-08
5.39215e-05
6.00533e-08
5.39085e-05
5.03675e-08
5.38981e-05
3.99477e-08
5.38904e-05
2.85899e-08
5.38857e-05
1.60625e-08
5.38844e-05
1.91131e-09
5.38869e-05
-1.41235e-08
5.38937e-05
-3.20376e-08
5.39052e-05
-5.19884e-08
5.3922e-05
-7.41766e-08
5.39447e-05
-9.87884e-08
5.39738e-05
-1.26037e-07
5.401e-05
-1.56205e-07
5.40542e-05
-1.89661e-07
5.41071e-05
-2.26792e-07
5.41697e-05
-2.68091e-07
5.42429e-05
-3.13621e-07
5.43283e-05
-3.65528e-07
5.44263e-05
-4.18616e-07
5.4542e-05
-5.00111e-07
5.4671e-05
-5.66627e-07
5.4765e-05
-4.08559e-07
5.48656e-05
-4.26803e-07
5.49698e-05
-4.41811e-07
5.50798e-05
-4.71446e-07
5.51958e-05
-4.99597e-07
5.53177e-05
-5.26799e-07
5.54455e-05
-5.53996e-07
5.55793e-05
-5.81504e-07
5.57193e-05
-6.09532e-07
5.58654e-05
-6.38298e-07
5.60179e-05
-6.68082e-07
5.6177e-05
-6.99211e-07
5.63431e-05
-7.32114e-07
5.65164e-05
-7.67333e-07
5.66976e-05
-8.05615e-07
5.68874e-05
-8.47976e-07
5.70867e-05
-8.95903e-07
5.72969e-05
-9.51528e-07
5.75199e-05
-1.01854e-06
5.77585e-05
-1.10177e-06
5.80166e-05
-1.21524e-06
5.83002e-05
-1.36483e-06
5.86116e-05
-1.64359e-06
5.89506e-05
-1.92176e-06
-2.7049e-06
5.93723e-05
0.000100732
0.000118157
8.97357e-05
5.0647e-05
8.35367e-05
2.33692e-05
7.99927e-05
1.29357e-05
7.77533e-05
8.26643e-06
7.62064e-05
5.81409e-06
7.50621e-05
4.37348e-06
7.41731e-05
3.44472e-06
7.3459e-05
2.79674e-06
7.28714e-05
2.31946e-06
7.23792e-05
1.95554e-06
7.19608e-05
1.67085e-06
7.16009e-05
1.44334e-06
7.12881e-05
1.25814e-06
7.10142e-05
1.10498e-06
7.07726e-05
9.76691e-07
7.05583e-05
8.68172e-07
7.03671e-05
7.75629e-07
7.01957e-05
6.96106e-07
7.00414e-05
6.27242e-07
6.9902e-05
5.67161e-07
6.97757e-05
5.14408e-07
6.96608e-05
4.67862e-07
6.95561e-05
4.26647e-07
6.94605e-05
3.90047e-07
6.93728e-05
3.57454e-07
6.92923e-05
3.28332e-07
6.92182e-05
3.02208e-07
6.91499e-05
2.7867e-07
6.90868e-05
2.5736e-07
6.90284e-05
2.37977e-07
6.89744e-05
2.2026e-07
6.89243e-05
2.03987e-07
6.8878e-05
1.88961e-07
6.8835e-05
1.74998e-07
6.87952e-05
1.61925e-07
6.87584e-05
1.49572e-07
6.87244e-05
1.37763e-07
6.86932e-05
1.26318e-07
6.86647e-05
1.15049e-07
6.8639e-05
1.03758e-07
6.86159e-05
9.22333e-08
6.85957e-05
8.02542e-08
6.85785e-05
6.7586e-08
6.85645e-05
5.39809e-08
6.85539e-05
3.91751e-08
6.85471e-05
2.28701e-08
6.85445e-05
4.51258e-09
6.85466e-05
-1.62842e-08
6.85542e-05
-3.95451e-08
6.85676e-05
-6.54273e-08
6.85876e-05
-9.4191e-08
6.86149e-05
-1.26076e-07
6.86502e-05
-1.61354e-07
6.86944e-05
-2.00386e-07
6.87484e-05
-2.43638e-07
6.88132e-05
-2.91605e-07
6.889e-05
-3.44904e-07
6.89801e-05
-4.03653e-07
6.9085e-05
-4.70417e-07
6.92055e-05
-5.39194e-07
6.93472e-05
-6.41779e-07
6.95049e-05
-7.24264e-07
6.96196e-05
-5.23346e-07
6.97429e-05
-5.50047e-07
6.98713e-05
-5.70213e-07
7.00065e-05
-6.06668e-07
7.01489e-05
-6.41969e-07
7.02983e-05
-6.76238e-07
7.04549e-05
-7.10534e-07
7.06186e-05
-7.4521e-07
7.07896e-05
-7.80499e-07
7.09679e-05
-8.1665e-07
7.11538e-05
-8.53998e-07
7.13476e-05
-8.92932e-07
7.15494e-05
-9.33967e-07
7.17599e-05
-9.77756e-07
7.19795e-05
-1.0252e-06
7.2209e-05
-1.0775e-06
7.24495e-05
-1.13644e-06
7.27026e-05
-1.20455e-06
7.29701e-05
-1.28607e-06
7.32552e-05
-1.38677e-06
7.35613e-05
-1.52133e-06
7.38947e-05
-1.69828e-06
7.42532e-05
-2.00206e-06
7.46455e-05
-2.31405e-06
-3.13616e-06
7.50768e-05
0.000127658
0.000131164
0.000114987
6.3318e-05
0.00010701
3.13464e-05
0.000102247
1.76988e-05
9.92077e-05
1.1306e-05
9.71117e-05
7.91008e-06
9.55693e-05
5.91592e-06
9.43776e-05
4.63642e-06
9.34248e-05
3.7495e-06
9.26441e-05
3.10017e-06
9.19921e-05
2.6075e-06
9.14394e-05
2.22361e-06
9.09649e-05
1.91784e-06
9.05534e-05
1.66963e-06
9.01935e-05
1.46485e-06
8.98765e-05
1.29369e-06
8.95955e-05
1.14914e-06
8.93451e-05
1.02605e-06