/*--------------------------------*- C++ -*----------------------------------*\
| =========                 |                                                 |
| \\      /  F ield         | OpenFOAM: The Open Source CFD Toolbox           |
|  \\    /   O peration     | Version:  5.x                                   |
|   \\  /    A nd           | Web:      www.OpenFOAM.org                      |
|    \\/     M anipulation  |                                                 |
\*---------------------------------------------------------------------------*/
FoamFile
{
    version     2.0;
    format      ascii;
    class       volVectorField;
    location    "800";
    object      U;
}
// * * * * * * * * * * * * * * * * * * * * * * * * * * * * * * * * * * * * * //

dimensions      [0 1 -1 0 0 0 0];

internalField   nonuniform List<vector> 
20540
(
(44.1648 -8.14265e-07 0)
(44.2268 0.00467567 0)
(44.1648 -2.55578e-06 0)
(44.2268 0.0134778 0)
(44.1648 -4.50492e-06 0)
(44.2268 0.022079 0)
(44.1648 -6.68785e-06 0)
(44.2267 0.0311543 0)
(44.1648 -9.05101e-06 0)
(44.2266 0.040787 0)
(44.1648 -1.14558e-05 0)
(44.2265 0.0509483 0)
(44.1648 -1.36523e-05 0)
(44.2265 0.0615566 0)
(44.1648 -1.5235e-05 0)
(44.2264 0.0724785 0)
(44.1649 -1.55915e-05 0)
(44.2265 0.083511 0)
(44.165 -1.38553e-05 0)
(44.2266 0.0943747 0)
(44.1652 -8.86588e-06 0)
(44.2268 0.104717 0)
(44.1654 8.62757e-07 0)
(44.2272 0.114126 0)
(44.1658 1.71656e-05 0)
(44.2277 0.122157 0)
(44.1662 4.22391e-05 0)
(44.2283 0.128395 0)
(44.1668 7.86402e-05 0)
(44.229 0.132551 0)
(44.1675 0.000129248 0)
(44.2298 0.134613 0)
(44.1684 0.000197157 0)
(44.2309 0.134843 0)
(44.1695 0.000285452 0)
(44.2322 0.133709 0)
(44.1708 0.000396907 0)
(44.2338 0.131688 0)
(44.1723 0.000533619 0)
(44.2356 0.129012 0)
(44.1741 0.000696534 0)
(44.2378 0.125704 0)
(44.1763 0.00088475 0)
(44.2404 0.121691 0)
(44.1787 0.00109451 0)
(44.2434 0.116853 0)
(44.1816 0.0013178 0)
(44.2468 0.111041 0)
(44.1848 0.00154056 0)
(44.2508 0.104078 0)
(44.1884 0.00174051 0)
(44.2552 0.0957553 0)
(44.1924 0.00188475 0)
(44.26 0.0858297 0)
(44.1966 0.00192804 0)
(44.2651 0.0740132 0)
(44.2009 0.00181288 0)
(44.2703 0.0599604 0)
(44.2048 0.00147434 0)
(44.2751 0.0432428 0)
(44.2076 0.00094534 0)
(44.2785 0.0255581 0)
(44.2089 0.000321475 0)
(44.2801 0.00840748 0)
(44.2089 -0.000335241 0)
(44.2801 -0.00872437 0)
(44.2076 -0.000957797 0)
(44.2784 -0.0258751 0)
(44.2048 -0.00147836 0)
(44.2751 -0.0432877 0)
(44.201 -0.00180956 0)
(44.2704 -0.0595432 0)
(44.1968 -0.0019292 0)
(44.2654 -0.0732879 0)
(44.1927 -0.00189634 0)
(44.2604 -0.0849134 0)
(44.1888 -0.00176405 0)
(44.2557 -0.0947373 0)
(44.1853 -0.00157479 0)
(44.2514 -0.103025 0)
(44.1821 -0.00136003 0)
(44.2474 -0.110003 0)
(44.1792 -0.00114159 0)
(44.244 -0.115865 0)
(44.1767 -0.000933668 0)
(44.241 -0.120777 0)
(44.1746 -0.000744689 0)
(44.2384 -0.124881 0)
(44.1727 -0.00057898 0)
(44.2361 -0.128294 0)
(44.1712 -0.000438026 0)
(44.2342 -0.131099 0)
(44.1698 -0.000321422 0)
(44.2326 -0.133317 0)
(44.1687 -0.000227554 0)
(44.2312 -0.134829 0)
(44.1677 -0.000154065 0)
(44.2301 -0.135283 0)
(44.1669 -9.8189e-05 0)
(44.2292 -0.134207 0)
(44.1663 -5.7038e-05 0)
(44.2284 -0.131256 0)
(44.1658 -2.78355e-05 0)
(44.2278 -0.1263 0)
(44.1654 -8.06158e-06 0)
(44.2272 -0.11948 0)
(44.1651 4.48529e-06 0)
(44.2268 -0.111124 0)
(44.1649 1.16723e-05 0)
(44.2265 -0.10163 0)
(44.1648 1.5041e-05 0)
(44.2263 -0.0913933 0)
(44.1647 1.58248e-05 0)
(44.2262 -0.080775 0)
(44.1646 1.49751e-05 0)
(44.2262 -0.0700764 0)
(44.1646 1.3194e-05 0)
(44.2262 -0.0595327 0)
(44.1646 1.0972e-05 0)
(44.2263 -0.0493127 0)
(44.1645 8.63074e-06 0)
(44.2264 -0.0395256 0)
(44.1645 6.3669e-06 0)
(44.2265 -0.0302372 0)
(44.1645 4.28841e-06 0)
(44.2265 -0.0214647 0)
(44.1645 2.43438e-06 0)
(44.2266 -0.0131081 0)
(44.1645 7.76459e-07 0)
(44.2266 -0.00454748 0)
(7.05385 0.00661016 0)
(5.82064 0.000181729 0)
(5.45912 7.11208e-05 0)
(5.23968 4.90613e-05 0)
(5.08717 3.67029e-05 0)
(4.97426 2.88601e-05 0)
(4.8866 2.3615e-05 0)
(4.81608 1.98918e-05 0)
(4.75801 1.70939e-05 0)
(4.7094 1.49128e-05 0)
(4.66816 1.31729e-05 0)
(4.63278 1.17595e-05 0)
(4.60213 1.0593e-05 0)
(4.57538 9.61559e-06 0)
(4.55185 8.78478e-06 0)
(4.53105 8.07053e-06 0)
(4.51257 7.45195e-06 0)
(4.49606 6.91323e-06 0)
(4.48125 6.44084e-06 0)
(4.46791 6.02297e-06 0)
(4.45586 5.64994e-06 0)
(4.44495 5.31461e-06 0)
(4.43503 5.01205e-06 0)
(4.426 4.7387e-06 0)
(4.41776 4.49163e-06 0)
(4.41022 4.268e-06 0)
(4.4033 4.06489e-06 0)
(4.39694 3.87944e-06 0)
(4.39108 3.70891e-06 0)
(4.38568 3.55093e-06 0)
(4.38068 3.40346e-06 0)
(4.37607 3.26482e-06 0)
(4.3718 3.13354e-06 0)
(4.36785 3.00827e-06 0)
(4.3642 2.88758e-06 0)
(4.36082 2.76991e-06 0)
(4.3577 2.65337e-06 0)
(4.35482 2.53565e-06 0)
(4.35217 2.41395e-06 0)
(4.34975 2.28487e-06 0)
(4.34755 2.1443e-06 0)
(4.34558 1.98736e-06 0)
(4.34384 1.80828e-06 0)
(4.34234 1.6003e-06 0)
(4.34109 1.35554e-06 0)
(4.34012 1.06481e-06 0)
(4.33944 7.16818e-07 0)
(4.3391 2.93589e-07 0)
(4.33913 -2.1818e-07 0)
(4.33958 -8.28788e-07 0)
(4.34049 -1.55553e-06 0)
(4.34192 -2.41613e-06 0)
(4.34392 -3.42955e-06 0)
(4.34655 -4.61835e-06 0)
(4.34989 -6.01086e-06 0)
(4.35401 -7.64174e-06 0)
(4.359 -9.55096e-06 0)
(4.36495 -1.17841e-05 0)
(4.37198 -1.43831e-05 0)
(4.38018 -1.74536e-05 0)
(4.38981 -2.09292e-05 0)
(4.40051 -2.58356e-05 0)
(4.41486 -3.28956e-05 0)
(4.42718 -3.40445e-05 0)
(4.43723 -3.38279e-05 0)
(4.44694 -4.10011e-05 0)
(4.45831 -4.73282e-05 0)
(4.47046 -5.28282e-05 0)
(4.48332 -5.86969e-05 0)
(4.4969 -6.51195e-05 0)
(4.51121 -7.2162e-05 0)
(4.52628 -7.9898e-05 0)
(4.54213 -8.84335e-05 0)
(4.5588 -9.7893e-05 0)
(4.57633 -0.00010844 0)
(4.59479 -0.000120276 0)
(4.61426 -0.000133676 0)
(4.63484 -0.00014901 0)
(4.65667 -0.000166798 0)
(4.67992 -0.000187806 0)
(4.70486 -0.000213215 0)
(4.73184 -0.000244934 0)
(4.76152 -0.000286625 0)
(4.79439 -0.000344796 0)
(4.83414 -0.000446338 0)
(4.87704 -0.000700636 0)
(4.98016 -0.00282681 0)
(5.24641 -0.02584 0)
(14.1915 0.0148494 0)
(11.7236 0.000886767 0)
(11.039 0.000318795 0)
(10.6534 0.000207582 0)
(10.3921 0.000152784 0)
(10.2007 0.000119559 0)
(10.0528 9.77992e-05 0)
(9.93394 8.25063e-05 0)
(9.8361 7.10458e-05 0)
(9.75419 6.21086e-05 0)
(9.68467 5.49741e-05 0)
(9.625 4.91727e-05 0)
(9.57329 4.43779e-05 0)
(9.5281 4.03537e-05 0)
(9.48835 3.69274e-05 0)
(9.45318 3.39769e-05 0)
(9.4219 3.14172e-05 0)
(9.39395 2.91839e-05 0)
(9.36887 2.72224e-05 0)
(9.34627 2.5485e-05 0)
(9.32584 2.39324e-05 0)
(9.30732 2.25353e-05 0)
(9.29049 2.12732e-05 0)
(9.27516 2.01313e-05 0)
(9.26115 1.90977e-05 0)
(9.24833 1.81607e-05 0)
(9.23657 1.73087e-05 0)
(9.22575 1.65299e-05 0)
(9.21578 1.58132e-05 0)
(9.20659 1.51486e-05 0)
(9.19809 1.45278e-05 0)
(9.19023 1.39434e-05 0)
(9.18296 1.33891e-05 0)
(9.17623 1.28588e-05 0)
(9.17001 1.23461e-05 0)
(9.16425 1.18439e-05 0)
(9.15893 1.13435e-05 0)
(9.15402 1.08343e-05 0)
(9.14952 1.03034e-05 0)
(9.1454 9.73529e-06 0)
(9.14168 9.11091e-06 0)
(9.13834 8.4077e-06 0)
(9.13541 7.59895e-06 0)
(9.1329 6.65324e-06 0)
(9.13083 5.53385e-06 0)
(9.12926 4.19785e-06 0)
(9.12821 2.59275e-06 0)
(9.12776 6.26734e-07 0)
(9.12799 -1.75821e-06 0)
(9.12897 -4.601e-06 0)
(9.13078 -7.98562e-06 0)
(9.13353 -1.1995e-05 0)
(9.13732 -1.67175e-05 0)
(9.14226 -2.22577e-05 0)
(9.14848 -2.87465e-05 0)
(9.15611 -3.63465e-05 0)
(9.16532 -4.52398e-05 0)
(9.17629 -5.56496e-05 0)
(9.18921 -6.77186e-05 0)
(9.20426 -8.2153e-05 0)
(9.22193 -9.77138e-05 0)
(9.24152 -0.000122754 0)
(9.26783 -0.000153084 0)
(9.29048 -0.000161478 0)
(9.30926 -0.000163036 0)
(9.32709 -0.000188861 0)
(9.3477 -0.000219376 0)
(9.36986 -0.000245712 0)
(9.39335 -0.000273209 0)
(9.41816 -0.000303071 0)
(9.44431 -0.000335706 0)
(9.47184 -0.000371495 0)
(9.5008 -0.000410913 0)
(9.53125 -0.000454545 0)
(9.56328 -0.000503117 0)
(9.59699 -0.00055756 0)
(9.63254 -0.000619103 0)
(9.67009 -0.000689414 0)
(9.7099 -0.00077082 0)
(9.75229 -0.000866774 0)
(9.79772 -0.000982352 0)
(9.84682 -0.00112678 0)
(9.90073 -0.00131255 0)
(9.96039 -0.00158428 0)
(10.0318 -0.00198261 0)
(10.1101 -0.00321841 0)
(10.2775 -0.00951147 0)
(10.5473 -0.074246 0)
(18.3839 0.0233551 0)
(15.129 0.0020705 0)
(14.2221 0.000737035 0)
(13.7338 0.000465196 0)
(13.4098 0.000338557 0)
(13.1749 0.000263685 0)
(12.9944 0.000215276 0)
(12.8497 0.000181495 0)
(12.7309 0.000156268 0)
(12.6316 0.000136626 0)
(12.5473 0.00012096 0)
(12.475 0.00010823 0)
(12.4124 9.77115e-05 0)
(12.3577 8.88837e-05 0)
(12.3096 8.1367e-05 0)
(12.2671 7.48935e-05 0)
(12.2292 6.9276e-05 0)
(12.1954 6.43731e-05 0)
(12.1651 6.00656e-05 0)
(12.1377 5.62494e-05 0)
(12.113 5.28388e-05 0)
(12.0906 4.97693e-05 0)
(12.0703 4.69957e-05 0)
(12.0517 4.44856e-05 0)
(12.0347 4.22124e-05 0)
(12.0192 4.01509e-05 0)
(12.005 3.82756e-05 0)
(11.9919 3.6561e-05 0)
(11.9798 3.49828e-05 0)
(11.9687 3.35194e-05 0)
(11.9584 3.21519e-05 0)
(11.9489 3.08643e-05 0)
(11.9401 2.96423e-05 0)
(11.9319 2.84721e-05 0)
(11.9244 2.73394e-05 0)
(11.9174 2.62277e-05 0)
(11.911 2.51175e-05 0)
(11.905 2.39846e-05 0)
(11.8996 2.27999e-05 0)
(11.8946 2.15276e-05 0)
(11.8901 2.01247e-05 0)
(11.8861 1.85396e-05 0)
(11.8825 1.67114e-05 0)
(11.8795 1.45683e-05 0)
(11.8771 1.20265e-05 0)
(11.8752 8.98778e-06 0)
(11.874 5.33203e-06 0)
(11.8736 8.43879e-07 0)
(11.874 -4.60572e-06 0)
(11.8753 -1.11007e-05 0)
(11.8777 -1.88359e-05 0)
(11.8812 -2.8e-05 0)
(11.8861 -3.87949e-05 0)
(11.8924 -5.14594e-05 0)
(11.9003 -6.62919e-05 0)
(11.9099 -8.36638e-05 0)
(11.9216 -0.000103989 0)
(11.9354 -0.000127784 0)
(11.9518 -0.000155345 0)
(11.9707 -0.000188411 0)
(11.993 -0.000223599 0)
(12.0177 -0.000282113 0)
(12.0507 -0.000347804 0)
(12.0791 -0.000371697 0)
(12.1031 -0.000380028 0)
(12.1258 -0.000430988 0)
(12.1516 -0.000500052 0)
(12.1794 -0.000560916 0)
(12.2089 -0.000623964 0)
(12.2401 -0.000692173 0)
(12.2729 -0.000766575 0)
(12.3075 -0.000848094 0)
(12.3439 -0.000937775 0)
(12.3822 -0.00103697 0)
(12.4224 -0.00114726 0)
(12.4647 -0.00127077 0)
(12.5093 -0.00141018 0)
(12.5563 -0.00156925 0)
(12.6062 -0.00175307 0)
(12.6593 -0.0019693 0)
(12.7161 -0.00222897 0)
(12.7774 -0.00255262 0)
(12.8445 -0.00296572 0)
(12.9187 -0.00357193 0)
(13.0067 -0.00441948 0)
(13.1039 -0.00702886 0)
(13.293 -0.0164606 0)
(13.5066 -0.078258 0)
(21.6958 0.0339582 0)
(17.7876 0.00392045 0)
(16.6656 0.00138499 0)
(16.0817 0.000851369 0)
(15.7015 0.000612486 0)
(15.4286 0.000474306 0)
(15.2201 0.000386037 0)
(15.0537 0.0003249 0)
(14.9173 0.000279443 0)
(14.8034 0.000244145 0)
(14.707 0.000216047 0)
(14.6243 0.000193248 0)
(14.5528 0.000174431 0)
(14.4903 0.00015865 0)
(14.4354 0.000145222 0)
(14.3868 0.000133663 0)
(14.3436 0.000123636 0)
(14.305 0.000114887 0)
(14.2703 0.000107201 0)
(14.2391 0.000100394 0)
(14.2109 9.43116e-05 0)
(14.1854 8.88393e-05 0)
(14.1621 8.38952e-05 0)
(14.1409 7.94208e-05 0)
(14.1216 7.53683e-05 0)
(14.1039 7.16928e-05 0)
(14.0876 6.83489e-05 0)
(14.0727 6.52915e-05 0)
(14.0589 6.24775e-05 0)
(14.0462 5.98684e-05 0)
(14.0345 5.74306e-05 0)
(14.0236 5.51351e-05 0)
(14.0135 5.2956e-05 0)
(14.0042 5.08684e-05 0)
(13.9956 4.88458e-05 0)
(13.9876 4.68585e-05 0)
(13.9803 4.48706e-05 0)
(13.9735 4.28384e-05 0)
(13.9673 4.07084e-05 0)
(13.9616 3.84156e-05 0)
(13.9565 3.58815e-05 0)
(13.9519 3.3012e-05 0)
(13.9479 2.9696e-05 0)
(13.9445 2.58025e-05 0)
(13.9417 2.11779e-05 0)
(13.9396 1.5643e-05 0)
(13.9383 8.97823e-06 0)
(13.9378 7.82821e-07 0)
(13.9384 -9.17707e-06 0)
(13.94 -2.10474e-05 0)
(13.9428 -3.5186e-05 0)
(13.9471 -5.19377e-05 0)
(13.9528 -7.16725e-05 0)
(13.9602 -9.48267e-05 0)
(13.9694 -0.000121945 0)
(13.9808 -0.000153707 0)
(13.9944 -0.000190869 0)
(14.0106 -0.000234383 0)
(14.0297 -0.000284763 0)
(14.0519 -0.000345298 0)
(14.0779 -0.000409363 0)
(14.1067 -0.000517302 0)
(14.1451 -0.000633381 0)
(14.178 -0.000683128 0)
(14.2064 -0.000704548 0)
(14.2331 -0.000788828 0)
(14.2631 -0.000913316 0)
(14.2955 -0.00102531 0)
(14.3299 -0.001141 0)
(14.3662 -0.00126586 0)
(14.4044 -0.0014019 0)
(14.4447 -0.00155085 0)
(14.487 -0.00171461 0)
(14.5314 -0.00189563 0)
(14.5782 -0.00209676 0)
(14.6273 -0.00232184 0)
(14.679 -0.00257567 0)
(14.7336 -0.00286497 0)
(14.7914 -0.00319883 0)
(14.8528 -0.0035909 0)
(14.9184 -0.00406073 0)
(14.9891 -0.0046448 0)
(15.0663 -0.00538692 0)
(15.1514 -0.00647277 0)
(15.2514 -0.00795515 0)
(15.362 -0.0123658 0)
(15.5595 -0.0245767 0)
(15.7199 -0.0741568 0)
(24.5626 0.0457889 0)
(20.1064 0.00658454 0)
(18.7662 0.00233517 0)
(18.0859 0.00140289 0)
(17.6507 0.000997823 0)
(17.3415 0.000768088 0)
(17.1067 0.000623017 0)
(16.9201 0.000523286 0)
(16.7675 0.000449488 0)
(16.6404 0.000392357 0)
(16.5329 0.000346979 0)
(16.4408 0.000310222 0)
(16.3612 0.000279922 0)
(16.2917 0.000254536 0)
(16.2306 0.000232952 0)
(16.1766 0.000214386 0)
(16.1286 0.000198288 0)
(16.0858 0.000184245 0)
(16.0473 0.000171913 0)
(16.0126 0.000160993 0)
(15.9813 0.00015124 0)
(15.9529 0.000142469 0)
(15.9271 0.000134546 0)
(15.9036 0.000127376 0)
(15.8822 0.000120882 0)
(15.8625 0.000114992 0)
(15.8445 0.000109633 0)
(15.8279 0.000104733 0)
(15.8126 0.000100224 0)
(15.7985 9.60443e-05 0)
(15.7854 9.21393e-05 0)
(15.7733 8.84624e-05 0)
(15.7622 8.49715e-05 0)
(15.7518 8.16259e-05 0)
(15.7423 7.83828e-05 0)
(15.7334 7.51932e-05 0)
(15.7253 7.19987e-05 0)
(15.7177 6.87282e-05 0)
(15.7108 6.52945e-05 0)
(15.7045 6.15916e-05 0)
(15.6988 5.74917e-05 0)
(15.6937 5.28417e-05 0)
(15.6893 4.746e-05 0)
(15.6855 4.1133e-05 0)
(15.6824 3.36106e-05 0)
(15.6801 2.45997e-05 0)
(15.6787 1.3742e-05 0)
(15.6782 3.76404e-07 0)
(15.6789 -1.588e-05 0)
(15.6807 -3.52572e-05 0)
(15.684 -5.8337e-05 0)
(15.6887 -8.56833e-05 0)
(15.6952 -0.000117901 0)
(15.7035 -0.000155701 0)
(15.714 -0.000199971 0)
(15.7267 -0.000251819 0)
(15.7421 -0.000312477 0)
(15.7603 -0.000383505 0)
(15.7817 -0.000465731 0)
(15.8066 -0.000564554 0)
(15.8358 -0.000669012 0)
(15.8683 -0.000845222 0)
(15.9111 -0.00102881 0)
(15.9475 -0.00111866 0)
(15.9798 -0.00116353 0)
(16.0101 -0.00129028 0)
(16.0439 -0.00148889 0)
(16.0801 -0.00167182 0)
(16.1185 -0.00186078 0)
(16.1591 -0.00206436 0)
(16.2019 -0.00228591 0)
(16.2469 -0.00252829 0)
(16.2942 -0.00279455 0)
(16.3438 -0.00308863 0)
(16.396 -0.00341509 0)
(16.4508 -0.00378003 0)
(16.5084 -0.0041911 0)
(16.5691 -0.00465897 0)
(16.6334 -0.00519801 0)
(16.7015 -0.00582975 0)
(16.7741 -0.00658488 0)
(16.8522 -0.00752049 0)
(16.9373 -0.00870486 0)
(17.0308 -0.0104242 0)
(17.1395 -0.0127426 0)
(17.2596 -0.0192611 0)
(17.4584 -0.0335324 0)
(17.5796 -0.0702819 0)
(27.157 0.0587746 0)
(22.2484 0.0102412 0)
(20.6822 0.00368347 0)
(19.9003 0.00216938 0)
(19.4081 0.00152553 0)
(19.0621 0.00116688 0)
(18.8012 0.00094292 0)
(18.5947 0.000790127 0)
(18.4264 0.000677654 0)
(18.2864 0.000590884 0)
(18.1682 0.000522136 0)
(18.0672 0.000466555 0)
(17.9798 0.000420804 0)
(17.9037 0.000382516 0)
(17.8368 0.000349994 0)
(17.7776 0.000322042 0)
(17.7251 0.00029782 0)
(17.6782 0.000276699 0)
(17.6361 0.000258157 0)
(17.5982 0.000241746 0)
(17.564 0.000227096 0)
(17.5329 0.000213924 0)
(17.5047 0.000202031 0)
(17.479 0.000191269 0)
(17.4555 0.000181523 0)
(17.434 0.000172682 0)
(17.4143 0.000164638 0)
(17.3962 0.000157285 0)
(17.3794 0.000150519 0)
(17.364 0.000144248 0)
(17.3498 0.00013839 0)
(17.3366 0.000132876 0)
(17.3243 0.000127641 0)
(17.313 0.000122622 0)
(17.3026 0.000117756 0)
(17.2929 0.000112966 0)
(17.284 0.000108165 0)
(17.2757 0.000103243 0)
(17.2681 9.80704e-05 0)
(17.2613 9.24845e-05 0)
(17.255 8.62915e-05 0)
(17.2494 7.92592e-05 0)
(17.2446 7.11119e-05 0)
(17.2404 6.15251e-05 0)
(17.2371 5.01186e-05 0)
(17.2346 3.64475e-05 0)
(17.233 1.9967e-05 0)
(17.2325 -3.32957e-07 0)
(17.2332 -2.5042e-05 0)
(17.2353 -5.45028e-05 0)
(17.2388 -8.95905e-05 0)
(17.244 -0.000131163 0)
(17.2511 -0.00018014 0)
(17.2603 -0.000237603 0)
(17.2717 -0.000304895 0)
(17.2857 -0.000383697 0)
(17.3026 -0.000475875 0)
(17.3225 -0.000583799 0)
(17.346 -0.000708737 0)
(17.3733 -0.000858807 0)
(17.4053 -0.00101768 0)
(17.4409 -0.00128387 0)
(17.4875 -0.00155395 0)
(17.5269 -0.00170237 0)
(17.5625 -0.00178618 0)
(17.5961 -0.00196635 0)
(17.633 -0.00225942 0)
(17.6726 -0.00253623 0)
(17.7146 -0.00282278 0)
(17.7589 -0.00313114 0)
(17.8055 -0.00346636 0)
(17.8545 -0.00383277 0)
(17.906 -0.00423488 0)
(17.9601 -0.00467857 0)
(18.0167 -0.00517054 0)
(18.0763 -0.00571982 0)
(18.1388 -0.00633764 0)
(18.2047 -0.00703964 0)
(18.2741 -0.00784686 0)
(18.3477 -0.00879063 0)
(18.4261 -0.00991561 0)
(18.51 -0.0113039 0)
(18.6012 -0.0130552 0)
(18.701 -0.0155695 0)
(18.816 -0.0189376 0)
(18.9424 -0.0277727 0)
(19.1387 -0.043468 0)
(19.2352 -0.0728059 0)
(29.5614 0.073049 0)
(24.2977 0.0151232 0)
(22.4961 0.00556551 0)
(21.6042 0.00322356 0)
(21.051 0.00224122 0)
(20.6661 0.00170281 0)
(20.3779 0.00137024 0)
(20.151 0.00114511 0)
(19.9667 0.000980341 0)
(19.8138 0.000853723 0)
(19.6849 0.000753685 0)
(19.5749 0.000672981 0)
(19.4798 0.00060666 0)
(19.3971 0.000551234 0)
(19.3244 0.000504206 0)
(19.2602 0.000463824 0)
(19.2032 0.000428857 0)
(19.1524 0.000398383 0)
(19.1067 0.000371643 0)
(19.0656 0.000347986 0)
(19.0285 0.000326878 0)
(18.9949 0.00030791 0)
(18.9643 0.000290789 0)
(18.9365 0.000275301 0)
(18.911 0.000261275 0)
(18.8877 0.000248552 0)
(18.8663 0.000236977 0)
(18.8467 0.000226396 0)
(18.8286 0.000216663 0)
(18.8118 0.000207644 0)
(18.7964 0.000199222 0)
(18.7821 0.000191296 0)
(18.7689 0.000183771 0)
(18.7566 0.000176558 0)
(18.7453 0.000169561 0)
(18.7348 0.000162673 0)
(18.7251 0.000155763 0)
(18.7161 0.000148675 0)
(18.7079 0.000141219 0)
(18.7004 0.00013316 0)
(18.6937 0.000124218 0)
(18.6876 0.000114056 0)
(18.6823 0.000102275 0)
(18.6778 8.84053e-05 0)
(18.6742 7.18956e-05 0)
(18.6715 5.21014e-05 0)
(18.6698 2.82338e-05 0)
(18.6692 -1.17104e-06 0)
(18.6699 -3.69881e-05 0)
(18.6721 -7.97118e-05 0)
(18.6759 -0.000130588 0)
(18.6815 -0.000190863 0)
(18.6891 -0.000261871 0)
(18.6989 -0.000345174 0)
(18.7113 -0.000442714 0)
(18.7263 -0.000556914 0)
(18.7445 -0.000690474 0)
(18.766 -0.000846811 0)
(18.7912 -0.00102781 0)
(18.8207 -0.00124496 0)
(18.8551 -0.00147563 0)
(18.8935 -0.00185739 0)
(18.9432 -0.00223557 0)
(18.9849 -0.00246595 0)
(19.0235 -0.00261064 0)
(19.0601 -0.00285846 0)
(19.0998 -0.00326913 0)
(19.1423 -0.00366677 0)
(19.1873 -0.00407996 0)
(19.2347 -0.00452439 0)
(19.2847 -0.0050071 0)
(19.3371 -0.00553421 0)
(19.3922 -0.00611209 0)
(19.4499 -0.00674895 0)
(19.5104 -0.00745421 0)
(19.5738 -0.00824049 0)
(19.6404 -0.00912341 0)
(19.7104 -0.0101247 0)
(19.7841 -0.0112736 0)
(19.8621 -0.0126133 0)
(19.9449 -0.0142053 0)
(20.0334 -0.0161613 0)
(20.1291 -0.0186198 0)
(20.2335 -0.0221041 0)
(20.3527 -0.0267514 0)
(20.4828 -0.0380638 0)
(20.6748 -0.0548557 0)
(20.7575 -0.0840153 0)
(31.8166 0.0886886 0)
(26.3037 0.0215068 0)
(24.2589 0.00816359 0)
(23.2461 0.00466666 0)
(22.6257 0.00320844 0)
(22.1985 0.00242039 0)
(21.881 0.00193865 0)
(21.6324 0.00161516 0)
(21.4312 0.00137986 0)
(21.2648 0.00119985 0)
(21.1248 0.00105807 0)
(21.0055 0.000943977 0)
(20.9026 0.000850395 0)
(20.8131 0.000772305 0)
(20.7345 0.000706136 0)
(20.6652 0.000649381 0)
(20.6037 0.000600278 0)
(20.5487 0.000557512 0)
(20.4995 0.000520005 0)
(20.4552 0.000486843 0)
(20.4152 0.000457272 0)
(20.3789 0.000430714 0)
(20.346 0.000406753 0)
(20.3159 0.000385083 0)
(20.2885 0.000365461 0)
(20.2634 0.000347664 0)
(20.2404 0.000331473 0)
(20.2192 0.000316675 0)
(20.1997 0.000303065 0)
(20.1816 0.000290459 0)
(20.165 0.000278692 0)
(20.1496 0.00026762 0)
(20.1353 0.000257112 0)
(20.1221 0.00024704 0)
(20.1099 0.000237271 0)
(20.0986 0.00022765 0)
(20.0881 0.000217997 0)
(20.0784 0.000208092 0)
(20.0696 0.000197667 0)
(20.0615 0.000186394 0)
(20.0542 0.000173881 0)
(20.0477 0.000159656 0)
(20.0419 0.000143159 0)
(20.0371 0.000123733 0)
(20.0331 0.000100606 0)
(20.0301 7.28748e-05 0)
(20.0282 3.94365e-05 0)
(20.0275 -1.75167e-06 0)
(20.0282 -5.19559e-05 0)
(20.0304 -0.000111876 0)
(20.0344 -0.000183217 0)
(20.0403 -0.000267725 0)
(20.0484 -0.000367273 0)
(20.0588 -0.000484044 0)
(20.0718 -0.000620747 0)
(20.0878 -0.000780757 0)
(20.107 -0.000967846 0)
(20.1299 -0.00118677 0)
(20.1567 -0.00144024 0)
(20.1879 -0.00174386 0)
(20.2244 -0.00206784 0)
(20.2652 -0.00259547 0)
(20.3176 -0.00310655 0)
(20.3612 -0.00344778 0)
(20.4022 -0.00368299 0)
(20.4414 -0.00401761 0)
(20.4837 -0.0045728 0)
(20.5286 -0.00512301 0)
(20.5762 -0.00569747 0)
(20.6263 -0.00631549 0)
(20.679 -0.00698624 0)
(20.7343 -0.00771799 0)
(20.7923 -0.0085193 0)
(20.853 -0.00940128 0)
(20.9166 -0.0103766 0)
(20.9832 -0.0114622 0)
(21.053 -0.012679 0)
(21.1263 -0.0140561 0)
(21.2034 -0.0156323 0)
(21.2847 -0.0174649 0)
(21.3708 -0.0196357 0)
(21.4627 -0.0222902 0)
(21.5617 -0.0256139 0)
(21.6692 -0.0302581 0)
(21.7907 -0.0364312 0)
(21.9224 -0.0503529 0)
(22.1088 -0.0682696 0)
(22.1843 -0.103308 0)
(33.9392 0.105664 0)
(28.2969 0.0296978 0)
(26.0056 0.011716 0)
(24.8594 0.00663731 0)
(24.1638 0.00451462 0)
(23.6894 0.00338048 0)
(23.3395 0.0026939 0)
(23.0673 0.00223658 0)
(22.8479 0.00190614 0)
(22.667 0.00165459 0)
(22.5152 0.00145718 0)
(22.386 0.00129874 0)
(22.2748 0.00116907 0)
(22.1781 0.00106106 0)
(22.0934 0.000969684 0)
(22.0187 0.000891405 0)
(21.9524 0.000823749 0)
(21.8933 0.00076487 0)
(21.8403 0.000713266 0)
(21.7926 0.000667669 0)
(21.7496 0.000627037 0)
(21.7106 0.000590571 0)
(21.6752 0.000557688 0)
(21.6429 0.00052796 0)
(21.6134 0.000501047 0)
(21.5864 0.000476639 0)
(21.5617 0.000454437 0)
(21.5389 0.000434148 0)
(21.5179 0.000415493 0)
(21.4986 0.000398221 0)
(21.4807 0.000382105 0)
(21.4641 0.000366949 0)
(21.4488 0.000352569 0)
(21.4346 0.000338791 0)
(21.4215 0.000325428 0)
(21.4093 0.000312271 0)
(21.398 0.000299069 0)
(21.3876 0.000285523 0)
(21.3781 0.000271264 0)
(21.3694 0.000255846 0)
(21.3615 0.000238732 0)
(21.3545 0.000219277 0)
(21.3483 0.000196718 0)
(21.343 0.000170156 0)
(21.3386 0.000138537 0)
(21.3354 0.000100628 0)
(21.3332 5.49255e-05 0)
(21.3324 -1.33342e-06 0)
(21.333 -6.99523e-05 0)
(21.3352 -0.000151912 0)
(21.3393 -0.000249471 0)
(21.3454 -0.000365016 0)
(21.3538 -0.000501104 0)
(21.3646 -0.000660713 0)
(21.3783 -0.000847522 0)
(21.395 -0.00106611 0)
(21.4151 -0.00132161 0)
(21.4391 -0.00162045 0)
(21.4672 -0.00196648 0)
(21.4999 -0.00238018 0)
(21.5382 -0.00282395 0)
(21.581 -0.0035331 0)
(21.6356 -0.00420571 0)
(21.6806 -0.00469249 0)
(21.7236 -0.00505663 0)
(21.765 -0.00550388 0)
(21.8093 -0.0062354 0)
(21.8564 -0.00697557 0)
(21.9061 -0.00775226 0)
(21.9584 -0.0085884 0)
(22.0133 -0.0094954 0)
(22.0709 -0.010484 0)
(22.1312 -0.0115652 0)
(22.1943 -0.0127538 0)
(22.2603 -0.014066 0)
(22.3294 -0.0155241 0)
(22.4017 -0.0171552 0)
(22.4774 -0.018997 0)
(22.5569 -0.0210998 0)
(22.6406 -0.0235371 0)
(22.7292 -0.0264142 0)
(22.8232 -0.0299149 0)
(22.9242 -0.0342801 0)
(23.0334 -0.0402886 0)
(23.1558 -0.0482502 0)
(23.2873 -0.0648874 0)
(23.4673 -0.0842767 0)
(23.5383 -0.128645 0)
(35.9299 0.123835 0)
(30.2953 0.0400129 0)
(27.7625 0.0165271 0)
(26.4697 0.00932401 0)
(25.6891 0.00628012 0)
(25.1612 0.00466671 0)
(24.7749 0.00369843 0)
(24.4762 0.00305858 0)
(24.2367 0.0025995 0)
(24.0399 0.00225191 0)
(23.8751 0.00198022 0)
(23.7353 0.00176283 0)
(23.615 0.00158536 0)
(23.5107 0.00143783 0)
(23.4193 0.00131323 0)
(23.3388 0.00120666 0)
(23.2675 0.00111466 0)
(23.2039 0.00103466 0)
(23.1469 0.000964611 0)
(23.0957 0.000902759 0)
(23.0494 0.000847686 0)
(23.0076 0.000798298 0)
(22.9695 0.00075379 0)
(22.9348 0.000713571 0)
(22.9032 0.000677169 0)
(22.8742 0.000644162 0)
(22.8477 0.000614143 0)
(22.8232 0.000586716 0)
(22.8007 0.000561507 0)
(22.7799 0.000538176 0)
(22.7607 0.00051642 0)
(22.7429 0.000495968 0)
(22.7265 0.000476576 0)
(22.7112 0.000458004 0)
(22.6971 0.000439999 0)
(22.684 0.000422276 0)
(22.6719 0.000404501 0)
(22.6608 0.000386268 0)
(22.6505 0.000367084 0)
(22.6411 0.000346351 0)
(22.6326 0.000323347 0)
(22.625 0.000297211 0)
(22.6183 0.000266919 0)
(22.6126 0.000231267 0)
(22.6078 0.000188846 0)
(22.6042 0.000138003 0)
(22.6018 7.67327e-05 0)
(22.6007 1.39723e-06 0)
(22.6011 -9.05465e-05 0)
(22.6033 -0.000200473 0)
(22.6074 -0.000331284 0)
(22.6136 -0.000486175 0)
(22.6221 -0.000668571 0)
(22.6333 -0.000882448 0)
(22.6474 -0.0011327 0)
(22.6647 -0.00142542 0)
(22.6855 -0.00176742 0)
(22.7103 -0.00216725 0)
(22.7395 -0.00263022 0)
(22.7734 -0.00318255 0)
(22.8131 -0.00377834 0)
(22.8576 -0.00471072 0)
(22.9138 -0.00557812 0)
(22.9598 -0.00625123 0)
(23.0043 -0.00679213 0)
(23.0474 -0.00738637 0)
(23.0935 -0.0083323 0)
(23.1422 -0.00930651 0)
(23.1936 -0.0103336 0)
(23.2476 -0.0114403 0)
(23.3042 -0.0126403 0)
(23.3636 -0.0139472 0)
(23.4256 -0.0153748 0)
(23.4905 -0.0169418 0)
(23.5583 -0.0186692 0)
(23.6291 -0.020585 0)
(23.7031 -0.0227237 0)
(23.7805 -0.025133 0)
(23.8616 -0.0278763 0)
(23.9469 -0.0310459 0)
(24.0368 -0.034774 0)
(24.132 -0.0392865 0)
(24.2339 -0.0448882 0)
(24.3436 -0.0524786 0)
(24.4654 -0.0625056 0)
(24.5952 -0.0819344 0)
(24.7678 -0.103382 0)
(24.8348 -0.157803 0)
(37.7771 0.142927 0)
(32.3054 0.0527425 0)
(29.5499 0.0229741 0)
(28.098 0.0129806 0)
(27.2212 0.00867067 0)
(26.6322 0.00639448 0)
(26.2043 0.00503806 0)
(25.8756 0.00414843 0)
(25.6133 0.00351475 0)
(25.3986 0.00303776 0)
(25.2195 0.00266656 0)
(25.0677 0.00237057 0)
(24.9375 0.00212959 0)
(24.8247 0.00192974 0)
(24.7261 0.00176128 0)
(24.6393 0.00161744 0)
(24.5624 0.00149344 0)
(24.4939 0.00138575 0)
(24.4326 0.00129152 0)
(24.3775 0.00120839 0)
(24.3277 0.00113445 0)
(24.2827 0.00106819 0)
(24.2418 0.00100853 0)
(24.2046 0.000954648 0)
(24.1706 0.000905896 0)
(24.1395 0.000861701 0)
(24.1109 0.000821514 0)
(24.0847 0.000784808 0)
(24.0605 0.000751083 0)
(24.0382 0.000719887 0)
(24.0176 0.000690813 0)
(23.9985 0.000663502 0)
(23.9808 0.000637623 0)
(23.9644 0.000612854 0)
(23.9492 0.000588858 0)
(23.9352 0.000565255 0)
(23.9222 0.000541599 0)
(23.9102 0.000517353 0)
(23.8991 0.000491864 0)
(23.889 0.000464343 0)
(23.8799 0.00043384 0)
(23.8716 0.000399216 0)
(23.8643 0.000359124 0)
(23.8581 0.000311978 0)
(23.8528 0.000255918 0)
(23.8488 0.000188772 0)
(23.846 0.000107903 0)
(23.8446 8.64563e-06 0)
(23.8448 -0.000112564 0)
(23.8468 -0.000257661 0)
(23.8508 -0.00043026 0)
(23.857 -0.000634574 0)
(23.8656 -0.000875114 0)
(23.877 -0.0011571 0)
(23.8913 -0.00148693 0)
(23.909 -0.00187256 0)
(23.9303 -0.00232292 0)
(23.9557 -0.00284911 0)
(23.9856 -0.00345841 0)
(24.0205 -0.0041836 0)
(24.0611 -0.00497038 0)
(24.1069 -0.00617436 0)
(24.1642 -0.00727571 0)
(24.2109 -0.00818206 0)
(24.2563 -0.00895716 0)
(24.3008 -0.00974314 0)
(24.3481 -0.0109493 0)
(24.3981 -0.0122097 0)
(24.4507 -0.0135437 0)
(24.5059 -0.0149823 0)
(24.5637 -0.0165417 0)
(24.6242 -0.0182385 0)
(24.6875 -0.0200899 0)
(24.7535 -0.0221192 0)
(24.8224 -0.0243522 0)
(24.8943 -0.0268243 0)
(24.9693 -0.029578 0)
(25.0476 -0.0326727 0)
(25.1295 -0.0361865 0)
(25.2155 -0.0402332 0)
(25.3058 -0.044975 0)
(25.4014 -0.0506837 0)
(25.5031 -0.0577357 0)
(25.6122 -0.0671376 0)
(25.7322 -0.0795141 0)
(25.8592 -0.101775 0)
(26.0232 -0.125987 0)
(26.0855 -0.189038 0)
(39.4592 0.16249 0)
(34.3227 0.0680901 0)
(31.3826 0.0315033 0)
(29.763 0.0179431 0)
(28.7778 0.0119137 0)
(28.1185 0.00872348 0)
(27.6426 0.00683142 0)
(27.2793 0.00559872 0)
(26.9909 0.00472696 0)
(26.7558 0.0040748 0)
(26.5603 0.00356969 0)
(26.3951 0.00316842 0)
(26.2538 0.00284273 0)
(26.1314 0.00257332 0)
(26.0247 0.00234675 0)
(25.9308 0.00215366 0)
(25.8477 0.00198747 0)
(25.7738 0.00184331 0)
(25.7077 0.00171732 0)
(25.6483 0.00160629 0)
(25.5947 0.00150763 0)
(25.5462 0.00141931 0)
(25.5022 0.00133985 0)
(25.4621 0.00126813 0)
(25.4256 0.00120328 0)
(25.3921 0.0011445 0)
(25.3614 0.00109107 0)
(25.3331 0.00104228 0)
(25.3071 0.000997479 0)
(25.2831 0.000956058 0)
(25.2609 0.000917482 0)
(25.2404 0.000881274 0)
(25.2214 0.000846993 0)
(25.2038 0.000814212 0)
(25.1874 0.000782484 0)
(25.1723 0.000751307 0)
(25.1583 0.000720094 0)
(25.1453 0.000688144 0)
(25.1334 0.000654604 0)
(25.1225 0.000618445 0)
(25.1126 0.000578429 0)
(25.1036 0.000533076 0)
(25.0957 0.000480634 0)
(25.0888 0.00041904 0)
(25.0831 0.00034588 0)
(25.0785 0.000258331 0)
(25.0753 0.000152977 0)
(25.0735 2.39772e-05 0)
(25.0734 -0.000133631 0)
(25.0751 -0.000322584 0)
(25.0788 -0.000547255 0)
(25.0849 -0.000813119 0)
(25.0934 -0.00112603 0)
(25.1048 -0.00149275 0)
(25.1192 -0.00192153 0)
(25.1371 -0.0024226 0)
(25.1586 -0.00300748 0)
(25.1844 -0.00369038 0)
(25.2148 -0.00448109 0)
(25.2502 -0.00541987 0)
(25.2915 -0.0064443 0)
(25.338 -0.00797555 0)
(25.3959 -0.00935761 0)
(25.4428 -0.0105504 0)
(25.4889 -0.0116264 0)
(25.5341 -0.0126609 0)
(25.5822 -0.0141821 0)
(25.633 -0.0157906 0)
(25.6863 -0.0174977 0)
(25.7423 -0.0193396 0)
(25.8008 -0.0213355 0)
(25.862 -0.0235053 0)
(25.9258 -0.0258702 0)
(25.9924 -0.0284582 0)
(26.0617 -0.0313014 0)
(26.134 -0.0344428 0)
(26.2093 -0.0379346 0)
(26.2879 -0.041849 0)
(26.3699 -0.046281 0)
(26.4557 -0.051368 0)
(26.5458 -0.0573056 0)
(26.6407 -0.0644141 0)
(26.7415 -0.0731477 0)
(26.8489 -0.0845996 0)
(26.966 -0.099604 0)
(27.0891 -0.124697 0)
(27.2433 -0.152351 0)
(27.3002 -0.221263 0)
(40.9464 0.181862 0)
(36.3286 0.0860765 0)
(33.2689 0.042604 0)
(31.4806 0.0246447 0)
(30.3753 0.0163181 0)
(29.6354 0.0118745 0)
(29.1038 0.00924315 0)
(28.7002 0.00753768 0)
(28.3816 0.00633974 0)
(28.1229 0.00544917 0)
(27.9086 0.00476285 0)
(27.728 0.0042198 0)
(27.5738 0.00378051 0)
(27.4407 0.00341817 0)
(27.3247 0.00311421 0)
(27.2228 0.00285573 0)
(27.1327 0.00263368 0)
(27.0527 0.00244134 0)
(26.9811 0.00227345 0)
(26.9169 0.00212567 0)
(26.859 0.0019945 0)
(26.8066 0.00187722 0)
(26.7591 0.00177181 0)
(26.7158 0.00167675 0)
(26.6763 0.00159083 0)
(26.6402 0.001513 0)
(26.6071 0.00144227 0)
(26.5766 0.00137771 0)
(26.5485 0.00131845 0)
(26.5226 0.0012637 0)
(26.4987 0.00121276 0)
(26.4766 0.00116498 0)
(26.456 0.0011198 0)
(26.437 0.00107664 0)
(26.4194 0.00103492 0)
(26.4031 0.000993974 0)
(26.3879 0.00095305 0)
(26.3739 0.000911233 0)
(26.361 0.000867423 0)
(26.3492 0.000820292 0)
(26.3384 0.000768246 0)
(26.3287 0.000709383 0)
(26.32 0.000641449 0)
(26.3124 0.000561795 0)
(26.306 0.000467321 0)
(26.3009 0.000354406 0)
(26.2971 0.000218676 0)
(26.2949 5.2997e-05 0)
(26.2943 -0.000149509 0)