/*--------------------------------*- C++ -*----------------------------------*\
  =========                 |
  \\      /  F ield         | OpenFOAM: The Open Source CFD Toolbox
   \\    /   O peration     | Website:  https://openfoam.org
    \\  /    A nd           | Version:  8
     \\/     M anipulation  |
\*---------------------------------------------------------------------------*/
FoamFile
{
    version     2.0;
    format      ascii;
    class       volScalarField;
    location    "60";
    object      epsilon;
}
// * * * * * * * * * * * * * * * * * * * * * * * * * * * * * * * * * * * * * //

dimensions      [0 2 -3 0 0 0 0];

internalField   nonuniform List<scalar> 
12225
(
285.486
270.764
257.874
243.869
232.442
223.168
216.827
212.855
212.951
214.252
217.793
221.588
229.274
234.133
243.404
248.619
260.354
257.499
52.5002
91.8721
107.054
114.804
125.082
137.046
153.299
170.678
192.494
212.657
237.972
258.856
286.091
305.271
333.318
349.951
378.972
399.552
20.5332
34.8504
44.7111
50.4582
55.4793
59.6493
64.8436
69.8137
76.7425
83.7127
92.3494
100.463
109.875
119.209
128.565
139.685
147.938
163.013
15.9995
19.4778
24.1021
27.5535
30.5339
32.8799
35.2261
37.3503
39.6383
42.0809
44.6049
47.5655
50.184
53.7625
56.3354
60.6145
63.1331
68.429
15.0379
15.7092
17.4085
19.072
20.6554
22.0307
23.2748
24.4593
25.4961
26.6669
27.6225
28.9068
29.8189
31.2664
32.1581
33.7819
34.6924
36.6293
14.7897
14.8251
15.2504
15.8658
16.5746
17.29
17.9351
18.5993
19.1414
19.7698
20.2374
20.8692
21.2924
21.9502
22.3524
23.0535
23.4428
24.2671
14.7659
14.6144
14.641
14.7252
14.9372
15.2213
15.4955
15.8162
16.0803
16.4001
16.6387
16.9546
17.1717
17.4894
17.6913
18.023
18.2073
18.5976
14.7688
14.5865
14.4661
14.3796
14.3679
14.3897
14.4404
14.5358
14.6213
14.7437
14.8394
14.9719
15.0665
15.2059
15.2973
15.4464
15.5304
15.7141
14.7681
14.591
14.4349
14.296
14.1845
14.1039
14.0391
14.0066
13.981
13.9801
13.9832
13.9962
14.0104
14.0413
14.0614
14.1044
14.1277
14.1952
14.7666
14.5941
14.432
14.2819
14.1424
14.0212
13.9103
13.8181
13.7354
13.6684
13.6089
13.5626
13.5183
13.4888
13.4556
13.4407
13.4136
13.4171
14.7659
14.5946
14.4321
14.2802
14.1357
14.0025
13.877
13.7629
13.6562
13.5605
13.4709
13.3923
13.3169
13.2534
13.1895
13.1397
13.0843
13.0482
14.7657
14.5944
14.4321
14.2798
14.135
13.9993
13.8705
13.7504
13.6366
13.5313
13.4313
13.3397
13.252
13.1731
13.0962
13.029
12.9612
12.9049
14.7657
14.5942
14.432
14.2794
14.1347
13.9985
13.8691
13.7474
13.6316
13.523
13.4194
13.3227
13.2302
13.1444
13.062
12.9861
12.9126
12.846
14.7657
14.594
14.4319
14.2791
14.1345
13.998
13.8686
13.7464
13.6304
13.5207
13.4165
13.3179
13.2242
13.1357
13.0515
12.9721
12.8964
12.8253
14.7657
14.5939
14.4318
14.2788
14.1342
13.9976
13.8683
13.7459
13.63
13.52
13.4158
13.3169
13.223
13.1339
13.0493
12.9691
12.8928
12.8205
14.7657
14.5938
14.4316
14.2786
14.1339
13.9973
13.8679
13.7456
13.6295
13.5198
13.4154
13.3167
13.2227
13.1338
13.0491
12.9689
12.8926
12.8202
14.7657
14.5937
14.4315
14.2784
14.1338
13.997
13.8677
13.7453
13.6294
13.5195
13.4154
13.3166
13.2229
13.1339
13.0495
12.9693
12.8932
12.8207
14.7657
14.5937
14.4314
14.2782
14.1336
13.9969
13.8676
13.7452
13.6294
13.5195
13.4155
13.3168
13.2232
13.1343
13.0501
12.9699
12.8939
12.8216
14.7657
14.5936
14.4314
14.2782
14.1336
13.9968
13.8676
13.7453
13.6295
13.5198
13.4159
13.3173
13.2238
13.1351
13.0509
12.9709
12.8951
12.8229
14.7657
14.5936
14.4314
14.2782
14.1337
13.997
13.8679
13.7456
13.63
13.5203
13.4166
13.318
13.2248
13.1361
13.0521
12.9722
12.8965
12.8244
14.7657
14.5937
14.4315
14.2784
14.1339
13.9974
13.8682
13.7462
13.6306
13.5212
13.4175
13.3193
13.2262
13.1379
13.0541
12.9746
12.8992
12.8275
14.7657
14.5937
14.4316
14.2786
14.1342
13.9978
13.8691
13.7474
13.6325
13.5239
13.4214
13.3243
13.2329
13.1461
13.0645
12.9869
12.914
12.8444
14.7658
14.5936
14.4318
14.2789
14.1356
14.0006
13.8749
13.757
13.6477
13.5453
13.4507
13.3618
13.2801
13.2027
13.1322
13.0645
13.0036
12.9439
14.7661
14.5927
14.4329
14.2845
14.1518
14.0325
13.9295
13.8382
13.76
13.6901
13.6313
13.5775
13.533
13.4904
13.4568
13.4219
13.397
13.3667
14.7641
14.5936
14.4609
14.3604
14.303
14.2764
14.2791
14.293
14.3185
14.3503
14.3919
14.4291
14.4751
14.5124
14.5602
14.5946
14.6442
14.6732
14.757
14.692
14.7576
14.9169
15.1813
15.4593
15.7438
16.007
16.2644
16.4933
16.7216
16.9201
17.1268
17.3017
17.4948
17.6507
17.8374
17.9761
14.9576
15.4346
16.568
17.6872
18.7003
19.5617
20.3253
20.9816
21.596
22.1366
22.6781
23.1602
23.6742
24.125
24.634
25.0655
25.583
26
16.2586
20.9395
25.0116
27.7557
29.7728
31.3428
32.7447
34.0153
35.2928
36.5298
37.8536
39.1444
40.5581
41.9021
43.4038
44.7928
46.411
47.8025
29.9414
47.2186
54.8497
58.6447
61.5574
64.3508
67.4453
70.7907
74.4683
78.3486
82.495
86.712
91.1019
95.4573
99.8984
104.204
108.514
112.662
165.789
160.076
154.896
149.565
144.476
139.681
135.604
132.101
129.247
126.938
125.251
123.96
123.196
122.664
122.585
122.691
122.92
123.404
19.8436
6.83627
8.21941
39.4108
8.7185
8.77464
37.4022
37.9905
8.6878
40.9247
40.5923
40.6422
41.3107
42.6884
43.8112
45.7101
48.9632
51.7209
49.5161
47.2768
47.0079
47.9173
51.005
57.8515
70.5428
88.6946
111.119
137.051
166.585
197.237
228.843
260.998
293.167
325.341
357.181
388.854
420.027
451.019
481.451
511.764
541.524
571.257
600.48
629.773
658.608
687.608
716.184
744.996
773.405
802.103
830.381
858.98
887.123
915.595
943.567
971.847
999.512
1027.44
1054.63
1082.02
1108.52
1135.17
1160.8
1186.52
1211.06
1235.6
1258.8
1281.9
1303.62
1325.4
1346.31
1366.82
1385.91
1404.84
1421.89
1437.72
1452.46
1464.99
1474.1
1480.94
1477.11
1478.1
1473.29
1469.97
1471.79
1461.5
1441.42
1399.49
1392.35
1339.04
1323.7
1295.4
1267.6
1237.05
1204.75
1171.17
1136.87
1102.2
1067.11
1031.84
996.449
961.296
926.471
892.266
858.835
826.296
794.766
763.985
732.676
702.907
674.425
647.201
621.26
596.518
572.984
550.586
529.362
509.345
491.345
477.335
465.506
454.418
443.862
433.748
424.067
414.762
405.843
397.247
388.987
381.013
373.328
365.873
358.696
351.728
345.054
338.248
331.531
324.969
318.587
312.374
306.345
300.474
294.776
289.157
283.592
278.093
272.689
267.397
262.248
257.213
252.28
247.448
242.747
238.203
233.826
229.594
225.529
221.609
217.819
214.123
210.48
206.855
203.177
199.399
195.412
191.108
186.397
180.992
174.92
167.661
159.424
149.942
139.42
128.452
117.889
107.374
98.3888
91.4062
83.5967
83.6383
36.6611
29.2994
26.6946
26.0919
23.8412
22.4887
22.7889
22.8331
22.0056
23.6804
24.6369
26.3569
28.6834
31.8762
36.1473
41.7793
48.6242
56.0474
63.5
71.8122
82.3241
94.9668
109.315
124.944
141.245
157.794
173.428
187.326
200.502
212.914
224.888
236.802
246.541
256.362
265.838
275.257
284.57
293.92
303.234
312.627
322.004
331.467
340.913
350.435
359.929
369.483
378.991
388.538
398.014
407.509
416.908
426.295
435.557
444.785
453.859
462.863
471.672
480.384
488.868
497.224
505.321
513.273
520.948
528.462
535.694
542.772
549.594
556.331
562.942
569.654
576.484
583.588
590.281
596.757
602.814
608.573
614.008
618.134
621.08
623.571
624.352
624.243
620.782
620.383
618.59
614.824
609.128
601.973
596.139
586.568
579.664
570.466
560.726
550.004
538.51
526.326
513.657
500.554
486.998
472.738
458.38
444.024
429.731
415.622
401.731
388.149
374.864
361.884
349.082
336.759
324.875
313.466
302.505
292.01
281.949
272.334
263.143
254.432
246.329
239.091
232.488
226.285
220.378
214.744
209.353
204.196
199.248
194.503
189.94
185.554
181.325
177.249
173.312
169.51
165.784
162.085
158.446
154.894
151.434
148.073
144.789
141.577
138.442
135.371
132.347
129.365
126.429
123.545
120.722
117.959
115.249
112.592
109.994
107.463
105.006
102.62
100.302
98.0519
95.8622
93.7206
91.6125
89.5199
87.4198
85.2855
83.0874
80.7783
78.3252
75.6277
72.6947
69.369
65.6966
61.6458
57.2479
52.7382
48.2473
44.0079
40.3378
37.413
36.5063
36.5931
62.7057
43.4312
36.1786
32.5292
30.3278
29.0263
28.4682
28.5204
29.0818
30.5112
32.8088
36.2662
41.1853
47.8903
56.5642
67.2009
79.4897
92.7369
105.783
117.533
127.723
136.83
145.051
152.468
159.753
167.158
174.695
182.344
189.222
195.889
202.298
208.323
215.678
223.234
230.946
238.806
246.741
254.735
262.724
270.701
278.615
286.469
294.224
301.889
309.433
316.872
324.177
331.366
338.414
345.341
352.125
358.783
365.296
371.686
377.935
384.064
390.058
395.943
401.706
407.376
412.944
418.442
423.866
429.253
434.602
439.951
445.303
450.696
456.133
461.634
467.173
472.698
478.09
483.338
488.377
493.16
497.582
501.495
504.907
507.811
509.968
511.327
511.832
512.798
512.401
511.015
508.498
505.069
500.98
495.685
489.959
483.106
475.411
466.856
457.55
447.569
437.041
426.036
414.635
402.893
390.994
379.03
367.081
355.233
343.537
332.059
320.819
309.854
299.16
288.824
278.846
269.251
260.024
251.175
242.684
234.557
226.781
219.384
212.403
205.902
199.817
194.07
188.599
183.381
178.389
173.614
169.035
164.645
160.427
156.376
152.474
148.718
145.093
141.596
138.203
134.893
131.662
128.516
125.456
122.483
119.552
116.675
113.864
111.114
108.415
105.752
103.131
100.556
98.0273
95.5447
93.1064
90.7117
88.3622
86.0612
83.812
81.6138
79.466
77.3666
75.3123
73.2953
71.3071
69.3345
67.3638
65.3762
63.35
61.2557
59.0677
56.7293
54.2283
51.4984
48.5415
45.3609
41.9911
38.5654
35.1284
31.9136
28.9785
26.5846
25.109
24.7734
86.0306
55.0432
45.2811
40.953
38.7209
37.6751
37.5436
38.3095
40.0767
43.0615
47.499
53.6394
61.6344
71.4316
82.6239
94.4635
105.957
116.181
124.556
130.891
136.049
140.794
145.631
150.787
156.017
161.555
167.3
173.29
179.909
186.842
194.061
201.536
209.372
217.368
225.443
233.558
241.652
249.699
257.653
265.5
273.206
280.767
288.162
295.393
302.444
309.322
316.019
322.543
328.889
335.067
341.076
346.928
352.623
358.178
363.595
368.893
374.079
379.172
384.183
389.134
394.038
398.92
403.794
408.685
413.61
418.589
423.634
428.76
433.971
439.267
444.636
450.035
455.414
460.741
465.969
471.046
475.905
480.478
484.715
488.55
491.876
494.628
496.625
498.182
498.823
498.971
497.907
495.815
492.739
488.605
483.525
477.401
470.303
462.29
453.44
443.851
433.622
422.856
411.653
400.117
388.369
376.51
364.631
352.813
341.125
329.627
318.363
307.371
296.682
286.333
276.344
266.724
257.474
248.594
240.079
231.931
224.147
216.733
209.697
203.05
196.765
190.803
185.124
179.707
174.529
169.575
164.83
160.282
155.917
151.725
147.695
143.817
140.08
136.477
132.994
129.617
126.339
123.156
120.066
117.065
114.137
111.278
108.488
105.766
103.099
100.457
97.8586
95.3078
92.7975
90.3292
87.9008
85.5117
83.1565
80.8416
78.5688
76.3372
74.1466
71.9961
69.8836
67.8041
65.7513
63.7162
61.6878
59.6519
57.5915
55.4836
53.3051
51.0185
48.6033
46.0226
43.268
40.3481
37.2991
34.2045
31.1182
28.1985
25.4866
23.1985
21.5541
20.6953
108.926
68.2177
56.7125
51.9475
49.7783
49.055
49.422
50.9519
53.754
57.9855
63.747
71.0112
79.5261
88.8011
98.1371
106.805
114.235
120.222
125.206
129.626
133.519
137.48
141.742
146.547
152.108
158.218
164.759
171.713
179.056
186.695
194.546
202.578
210.821
219.189
227.614
236.051
244.447
252.772
260.985
269.068
276.992
284.746
292.312
299.686
306.856
313.826
320.588
327.149
333.506
339.671
345.644
351.439
357.06
362.525
367.842
373.032
378.106
383.086
387.99
392.84
397.655
402.461
407.278
412.132
417.041
422.028
427.109
432.3
437.609
443.043
448.596
454.251
459.984
465.768
471.564
477.326
482.998
488.516
493.811
498.798
503.374
507.439
510.895
513.656
515.523
516.444
516.728
515.768
513.607
510.269
505.751
500.067
493.251
485.375
476.515
466.779
456.27
445.113
433.423
421.326
408.945
396.393
383.778
371.187
358.711
346.41
334.352
322.574
311.127
300.031
289.318
278.993
269.072
259.552
250.439
241.723
233.405
225.477
217.937
210.776
203.977
197.51
191.351
185.475
179.864
174.498
169.366
164.448
159.736
155.214
150.873
146.699
142.684
138.815
135.084
131.479
127.991
124.613
121.34
118.167
115.083
112.082
109.161
106.317
103.54
100.819
98.1537
95.542
92.9615
90.4205
87.918
85.4514
83.0157
80.6153
78.2494
75.9177
73.6206
71.3582
69.1292
66.9305
64.7575
62.6036
60.4599
58.3148
56.1541
53.9584
51.7067
49.3704
46.9276
44.3528
41.6338
38.7832
35.8368
32.8516
29.8899
27.065
24.433
22.1116
20.3146
19.1133
130.354
82.6763
69.6604
64.5877
62.5103
61.9777
62.5852
64.3946
67.4211
71.6818
77.0814
83.3748
90.1602
96.9658
103.35
108.921
113.886
118.166
121.948
125.626
129.782
134.438
139.661
145.443
151.745
158.475
165.52
172.966
180.785
188.929
197.337
205.959
214.727
223.591
232.498
241.408
250.276
259.071
267.756
276.31
284.703
292.922
300.946
308.768
316.373
323.762
330.925
337.866
344.584
351.087
357.376
363.463
369.357
375.072
380.621
386.022
391.293
396.454
401.526
406.535
411.501
416.453
421.414
426.415
431.478
436.633
441.901
447.306
452.865
458.593
464.492
470.567
476.811
483.206
489.72
496.313
502.928
509.499
515.942
522.161
528.04
533.459
538.289
542.398
545.651
547.76
548.853
549.076
547.838
545.224
541.252
535.921
529.276
521.379
512.323
502.213
491.178
479.349
466.867
453.876
440.513
426.912
413.194
399.47
385.837
372.377
359.159
346.243
333.672
321.487
309.715
298.379
287.489
277.049
267.06
257.516
248.41
239.731
231.469
223.61
216.134
209.018
202.239
195.775
189.606
183.712
178.078
172.687
167.525
162.578
157.832
153.275
148.896
144.683
140.626
136.714
132.937
129.287
125.757
122.34
119.027
115.811
112.688
109.651
106.695
103.811
100.995
98.2429
95.5441
92.8964
90.2849
87.7044
85.1517
82.6259
80.1277
77.6582
75.2184
72.8094
70.431
68.0813
65.7572
63.4536
61.1633
58.8764
56.5807
54.2593
51.8931
49.4582
46.9336
44.2992
41.5438
38.6799
35.7403
32.7721
29.8389
27.031
24.4096
22.0543
20.1078
18.6531
149.241
96.8981
82.5277
77.088
74.9408
74.366
74.8078
76.2665
78.6603
81.9201
85.8929
90.3438
94.9887
99.5808
103.851
107.895
111.617
115.397
119.384
123.749
128.638
134.016
139.861
146.107
152.839
160.039
167.655
175.638
183.937
192.515
201.337
210.367
219.554
228.858
238.232
247.639
257.036
266.39
275.664
284.83
293.859
302.729
311.416
319.906
328.181
336.235
344.055
351.64
358.985
366.092
372.962
379.604
386.022
392.231
398.241
404.07
409.734
415.256
420.656
425.96
431.194
436.387
441.568
446.771
452.028
457.373
462.839
468.46
474.265
480.283
486.533
493.029
499.776
506.766
513.977
521.374
528.903
536.495
544.061
551.494
558.667
565.438
571.653
577.151
581.767
585.346
587.444
588.675
588.392
586.573
583.187
578.24
571.77
563.837
554.543
544.001
532.354
519.752
506.357
492.333
477.836
463.026
448.037
433.004
418.033
403.228
388.665
374.423
360.554
347.111
334.123
321.619
309.608
298.1
287.09
276.577
266.545
256.987
247.884
239.221
230.975
223.125
215.647
208.52
201.721
195.233
189.034
183.108
177.439
172.011
166.809
161.82
157.03
152.429
148.002
143.741
139.633
135.671
131.844
128.146
124.566
121.098
117.735
114.471
111.299
108.212
105.205
102.272
99.4062
96.6021
93.8503
91.1425
88.4543
85.784
83.1341
80.5076
77.9071
75.3345
72.7907
70.2751
67.7853
65.3176
62.8657
60.4212
57.9731
55.5063
53.0034
50.4438
47.8077
45.0784
42.2481
39.3266
36.3441
33.3463
30.3936
27.5639
24.9185
22.5207
20.4691
18.7981
165.673
110.495
94.4875
88.0574
85.3307
84.3809
84.3244
85.068
86.4743
88.4684
90.9514
93.7999
96.8832
100.105
103.397
106.806
110.455
114.448
118.869
123.713
128.989
134.722
140.954
147.664
154.809
162.355
170.28
178.559
187.159
196.055
205.212
214.6
224.18
233.915
243.763
253.688
263.648
273.609
283.531
293.384
303.133
312.751
322.21
331.49
340.567
349.427
358.053
366.439
374.571
382.45
390.069
397.434
404.545
411.413
418.044
424.455
430.66
436.679
442.533
448.249
453.852
459.375
464.851
470.316
475.81
481.374
487.049
492.879
498.908
505.174
511.711
518.548
525.701
533.176
540.962
549.033
557.344
565.83
574.399
582.94
591.315
599.366
606.918
613.783
619.766
624.677
628.245
630.255
631.027
630.068
627.344
622.85
616.612
608.697
599.2
588.255
576.012
562.643
548.329
533.254
517.601
501.541
485.239
468.84
452.479
436.27
420.316
404.699
389.488
374.734
360.479
346.749
333.561
320.923
308.833
297.287
286.272
275.775
265.776
256.258
247.198
238.572
230.357
222.53
215.068
207.95
201.155
194.664
188.459
182.524
176.841
171.395
166.173
161.16
156.344
151.714
147.256
142.962
138.82
134.823
130.959
127.221
123.602
120.093
116.689
113.382
110.165
107.032
103.977
100.992
98.0714
95.2043
92.374
89.5504
86.7395
83.9473
81.1782
78.4351
75.7198
73.0322
70.3711
67.7333
65.1137
62.5047
59.8961
57.2746
54.624
51.9261
49.163
46.3202
43.3923
40.3895
37.3403
34.2886
31.2922
28.4215
25.7345
23.2905
21.157
19.3339
178.493
133.296
110.571
99.1437
93.6482
91.3435
90.5489
90.475
91.0121
92.0453
93.5254
95.4193
97.6953
100.285
103.24
106.597
110.389
114.597
119.223
124.317
129.891
135.937
142.426
149.35
156.686
164.418
172.528
181.002
189.816
198.951
208.381
218.078
228.009
238.142
248.438
258.863
269.374
279.938
290.514
301.067
311.559
321.961
332.236
342.361
352.304
362.048
371.567
380.847
389.873
398.634
407.121
415.332
423.263
430.919
438.302
445.425
452.297
458.937
465.363
471.6
477.674
483.618
489.465
495.256
501.033
506.844
512.736
518.762
524.974
531.424
538.161
545.224
552.647
560.447
568.632
577.188
586.082
595.257
604.628
614.082
623.479
632.649
641.398
649.515
656.777
662.961
667.854
670.975
672.598
672.561
670.542
666.556
660.617
652.791
643.172
631.904
619.147
605.09
589.933
573.878
557.133
539.888
522.338
504.644
486.968
469.432
452.157
435.226
418.724
402.704
387.217
372.289
357.945
344.191
331.032
318.458
306.461
295.023
284.128
273.752
263.875
254.469
245.515
236.983
228.854
221.101
213.705
206.644
199.9
193.451
187.283
181.377
175.718
170.291
165.083
160.08
155.27
150.64
146.181
141.881
137.731
133.721
129.842
126.086
122.446
118.914
115.482
112.144
108.892
105.719
102.618
99.5773
96.5827
93.6018
90.626
87.6662
84.728
81.815
78.9293
76.0714
73.2405
70.4338
67.6471
64.8734
62.1034
59.3249
56.5233
53.6823
50.7858
47.8215
44.7861
41.6907
38.5636
35.4471
32.3961
29.4761
26.7402
24.25
22.0423
20.1102
779.133
303.662
166.688
120.307
102.724
96.064
93.6601
92.9089
92.8692
93.41
94.4366
95.9383
97.917
100.353
103.283
106.705
110.618
114.976
119.783
125.034
130.75
136.911
143.5
150.508
157.922
165.736
173.936
182.519
191.466
200.767
210.396
220.335
230.551
241.02
251.702
262.568
273.575
284.69
295.871
307.085
318.29
329.451
340.531
351.498
362.317
372.963
383.407
393.627
403.601
413.312
422.744
431.887
440.733
449.28
457.524
465.471
473.128
480.507
487.623
494.498
501.155
507.625
513.94
520.142
526.272
532.382
538.522
544.752
551.131
557.721
564.581
571.766
579.323
587.286
595.678
604.502
613.74
623.35
633.256
643.354
653.503
663.531
673.231
682.374
690.71
697.984
703.945
708.238
710.725
711.468
710.128
706.652
701.05
693.369
683.711
672.216
659.058
644.44
628.578
611.701
594.031
575.789
557.177
538.385
519.578
500.899
482.467
464.384
446.733
429.581
412.978
396.962
381.555
366.773
352.617
339.085
326.163
313.838
302.091
290.9
280.242
270.093
260.427
251.219
242.446
234.082
226.104
218.492
211.223
204.279
197.64
191.287
185.206
179.378
173.789
168.425
163.273
158.319
153.552
148.96
144.533
140.259
136.129
132.134
128.265
124.515
120.874
117.335
113.889
110.53
107.247
104.03
100.864
97.7166
94.5755
91.4513
88.3493
85.2728
82.2238
79.2029
76.2094
73.2409
70.2936
67.3609
64.4344
61.5028
58.553
55.5703
52.5411
49.4548
46.3104
43.1205
39.913
36.7294
33.6217
30.6515
27.8666
25.3319
23.0613
21.0384
775.887
311.022
171.525
122.609
103.708
96.2461
93.6105
92.648
92.6153
93.1557
94.1784
95.674
97.6433
100.115
103.11
106.618
110.609
115.046
119.925
125.235
130.985
137.158
143.746
150.745
158.15
165.959
174.168
182.776
191.774
201.153
210.895
220.985
231.396
242.106
253.081
264.29
275.697
287.263
298.955
310.741
322.578
334.427
346.247
358.002
369.654
381.172
392.522
403.678
414.609
425.294
435.709
445.837
455.663
465.177
474.371
483.242
491.791
500.025
507.952
515.589
522.954
530.075
536.979
543.706
550.295
556.796
563.26
569.748
576.324
583.055
590.01
597.255
604.848
612.84
621.267
630.151
639.491
649.258
659.395
669.807
680.363
690.892
701.187
711.005
720.08
728.132
734.878
740.024
743.256
744.615
743.81
740.757
735.445
727.916
718.268
706.643
693.225
678.232
661.89
644.445
626.126
607.169
587.78
568.175
548.52
528.972
509.646
490.659
472.092
454.024
436.506
419.585
403.284
387.626
372.615
358.251
344.52
331.413
318.908
306.987
295.626
284.802
274.489
264.664
255.299
246.372
237.857
229.733
221.979
214.573
207.496
200.73
194.254
188.053
182.111
176.411
170.941
165.686
160.633
155.769
151.084
146.565
142.202
137.984
133.903
129.95
126.113
122.386
118.758
115.221
111.765
108.377
105.041
101.724
98.4233
95.1433
91.8879
88.6594
85.459
82.2871
79.1429
76.0242
72.9273
69.8463
66.7732
63.6976
60.6077
57.4907
54.3348
51.1322
47.8838
44.604
41.3205
38.0739
34.9137
31.8979
29.0697
26.4942
24.1747
22.0769
179.477
154.933
123.315
105.28
96.4196
92.4847
90.8497
90.4945
90.8333
91.6495
92.8876
94.5612
96.7027
99.3348
102.458
106.057
110.108
114.591
119.491
124.798
130.511
136.629
143.149
150.072
157.399
165.131
173.268
181.814
190.762
200.109
209.842
219.949
230.411
241.207
252.311
263.695
275.326
287.175
299.246
311.48
323.828
336.251
348.704
361.15
373.546
385.856
398.049
410.093
421.951
433.594
444.992
456.122
466.961
477.494
487.704
497.582
507.119
516.316
525.173
533.702
541.913
549.828
557.468
564.866
572.057
579.085
585.998
592.855
599.717
606.654
613.74
621.047
628.641
636.584
644.924
653.698
662.919
672.576
682.624
692.984
703.538
714.128
724.552
734.57
743.9
752.266
759.358
764.855
768.522
770.145
769.613
766.769
761.611
754.181
744.571
732.926
719.43
704.298
687.764
670.065
651.439
632.111
612.299
592.236
572.108
552.046
532.18
512.619
493.455
474.766
456.613
439.041
422.083
405.767
390.104
375.093
360.725
346.989
333.869
321.347
309.4
298.008
287.147
276.791
266.917
257.5
248.517
239.945
231.763
223.951
216.488
209.355
202.531
196
189.744
183.747
177.995
172.472
167.165
162.061
157.147
152.411
147.841
143.427
139.157
135.023
131.012
127.116
123.324
119.626
116.01
112.462
108.961
105.486
102.038
98.6163
95.2229
91.8581
88.5224
85.2154
81.9363
78.6828
75.4512
72.2362
69.0302
65.8239
62.6067
59.3673
56.096
52.7876
49.4457
46.0858
42.736
39.4358
36.2321
33.1796
30.3179
27.7084
25.3546
23.1969
170.4
118.951
100.494
91.897
88.0018
86.3981
86.1338
86.617
87.5654
88.8778
90.5389
92.5673
94.9884
97.8203
101.07
104.736
108.811
113.281
118.134
123.363
128.968
134.954
141.322
148.082
155.24
162.803
170.775
179.163
187.966
197.185
206.813
216.846
227.269
238.068
249.22
260.701
272.478
284.522
296.796
309.277
321.927
334.712
347.589
360.525
373.487
386.472
399.41
412.26
424.979
437.533
449.881
461.997
473.855
485.433
496.703
507.65
518.256
528.515
538.418
547.968
557.168
566.032
574.572
582.813
590.781
598.511
606.045
613.432
620.729
628.002
635.321
642.76
650.388
658.271
666.463
675.009
683.933
693.234
702.881
712.808
722.912
733.053
743.045
752.675
761.616
769.549
776.173
781.222
784.541
785.834
785.089
782.086
776.867
769.455
759.93
748.42
735.095
720.152
703.818
686.309
667.854
648.68
628.961
608.939
588.784
568.647
548.664
528.937
509.567
490.626
472.184
454.283
436.964
420.268
404.215
388.799
374.017
359.856
346.307
333.353
320.978
309.16
297.881
287.115
276.842
267.036
257.676
248.741
240.211
232.066
224.286
216.85
209.74
202.935
196.419
190.176
184.189
178.444
172.927
167.623
162.519
157.601
152.859
148.28
143.852
139.566
135.408
131.369
127.436
123.597
119.839
116.144
112.495
108.886
105.311
101.769
98.2572
94.776
91.3244
87.9016
84.5063
81.1362
77.7879
74.4563
71.1345
67.8141
64.4857
61.1397
57.7684
54.3694
50.9487
47.5232
44.1209
40.7804
37.5462
34.4694
31.587
28.9536
26.5805
24.3775
159.197
105.044
88.8706
82.7469
80.5802
80.2117
80.8326
82.008
83.5413
85.3627
87.4624
89.856
92.5636
95.6007
98.9771
102.696
106.758
111.162
115.905
120.991
126.421
132.205
138.35
144.869
151.771
159.068
166.77
174.886
183.42
192.378
201.76
211.564
221.782
232.408
243.425
254.822
266.578
278.662
291.043
303.694
316.583
329.676
342.934
356.314
369.761
383.244
396.735
410.201
423.603
436.912
450.107
463.166
476.027
488.657
501.018
513.08
524.825
536.234
547.291
557.99
568.324
578.299
587.916
597.19
606.135
614.774
623.136
631.259
639.188
646.978
654.691
662.393
670.15
678.021
686.062
694.316
702.809
711.543
720.49
729.594
738.766
747.886
756.771
765.068
772.5
778.949
784.19
788.261
790.788
791.425
790.155
786.754
781.293
773.779
764.277
752.901
739.8
725.157
709.172
692.056
674.007
655.244
635.859
616.33
596.691
577.04
557.486
538.13
519.062
500.359
482.077
464.286
446.996
430.276
414.147
398.618
383.687
369.35
355.599
342.423
329.809
317.743
306.206
295.18
284.643
274.575
264.955
255.762
246.983
238.599
230.588
222.932
215.61
208.603
201.895
195.468
189.306
183.395
177.719
172.264
167.016
161.962
157.089
152.384
147.835
143.432
139.16
135.007
130.96
127.006
123.125
119.308
115.546
111.831
108.156
104.518
100.912
97.3377
93.7927
90.2758
86.7855
83.3196
79.8748
76.4464
73.0283
69.6131
66.1925
62.7588
59.3063
55.8354
52.3543
48.881
45.4436
42.0793
38.8306
35.7447
32.8567
30.2123
27.8343
25.6031
147.162
95.3506
80.5768
75.4398
73.9901
74.242
75.403
77.0808
79.0921
81.361
83.8643
86.602
89.5839
92.8194
96.318
100.086
104.129
108.453
113.064
117.97
123.182
128.713
134.576
140.787
147.359
154.311
161.654
169.403
177.567
186.156
195.174
204.628
214.513
224.828
235.565
246.715
258.261
270.185
282.462
295.071
307.982
321.167
334.594
348.232
362.045
375.992
390.034
404.136
418.254
432.347
446.348
460.23
473.971
487.544
500.929
514.127
527.068
539.71
552.018
563.982
575.592
586.838
597.714
608.219
618.352
628.123
637.542
646.63
655.416
663.935
672.234
680.364
688.377
696.319
704.235
712.154
720.095
728.046
735.973
743.821
751.517
758.984
765.655
771.643
777.166
781.816
785.371
787.611
788.386
787.602
785.006
780.658
774.548
766.686
757.119
745.935
733.246
719.201
703.954
687.683
670.547
652.731
634.337
615.636
596.752
577.819
558.936
540.206
521.705
503.513
485.677
468.27
451.246
434.843
419.003
403.71
388.957
374.746
361.073
347.935
335.322
323.229
311.638
300.539
289.911
279.736
270.001
260.68
251.77
243.257
235.121
227.342
219.899
212.776
205.954
199.418
193.151
187.139
181.366
175.819
170.482
165.343
160.387
155.601
150.973
146.492
142.142
137.91
133.779
129.735
125.77
121.873
118.036
114.248
110.504
106.798
103.125
99.4832
95.8693
92.2821
88.7199
85.1806
81.6613
78.158
74.6651
71.1764
67.6849
64.1847
60.6726
57.1513
53.6308
50.1302
46.6775
43.3086
40.0635
36.9858
34.109
31.4684
29.1
26.8584
135.918
87.005
73.4656
68.94
67.8819
68.4814
69.9821
72.0163
74.3993
77.0404
79.8969
82.9503
86.1952
89.6306
93.2605
97.0892
101.125
105.377
109.857
114.579
119.558
124.813
130.361
136.224
142.419
148.969
155.889
163.2
170.914
179.048
187.611
196.614
206.059
215.952
226.289
237.068
248.278
259.911
271.947
284.372
297.162
310.297
323.747
337.487
351.483
365.704
380.112
394.675
409.351
424.105
438.895
453.692
468.446
483.116
497.643
511.982
526.105
540.01
553.662
567.017
580.051
592.744
605.074
617.024
628.573
639.713
650.429
660.723
670.594
680.056
689.126
697.835
706.204
714.264
722.027
729.501
736.687
743.542
750.027
756.067
761.596
766.089
770.196
773.646
776.147
777.616
777.976
777.284
775.351
772.064
767.478
761.575
754.355
745.833
736.04
725.022
712.851
699.612
685.416
670.376
654.615
638.256
621.425
604.248
586.849
569.333
551.797
534.325
516.995
499.874
483.014
466.474
450.238
434.454
419.131
404.278
389.905
376.017
362.616
349.703
337.275
325.329
313.856
302.845
292.284
282.153
272.446
263.129
254.229
245.726
237.593
229.811
222.359
215.223
208.386
201.832
195.546
189.513
183.719
178.15
172.79
167.625
162.644
157.828
153.169
148.655
144.264
139.988
135.815
131.733
127.729
123.796
119.92
116.096
112.315
108.571
104.859
101.175
97.5178
93.8844
90.2739
86.6843
83.1132
79.5573
76.012
72.472
68.9321
65.3882
61.8395
58.2907
54.7535
51.2478
47.8014
44.4485
41.2269
38.1758
35.3275
32.7068
30.3616
28.1268
124.552
79.7046
67.3577
63.3521
62.5911
63.4156
65.1497
67.4445
70.1179
73.0683
76.2374
79.5901
83.1049
86.7677
90.5729
94.5194
98.6127
102.862
107.279
111.883
116.691
121.726
127.009
132.566
138.419
144.594
151.113
157.999
165.27
172.948
181.047
189.582
198.563
207.999
217.893
228.25
239.064
250.334
262.048
274.197
286.767
299.744
313.104
326.828
340.889
355.261
369.913
384.818
399.939
415.243
430.687
446.237
461.846
477.472
493.064
508.584
524.002
539.248
554.245
569.011
583.521
597.739
611.615
625.115
638.203
650.834
662.982
674.601
685.676
696.166
706.077
715.379
724.086
732.166
739.613
746.39
752.451
757.757
762.2
765.69
767.976
769.628
769.987
769.327
767.645
764.798
760.947
756.192
750.577
744.141
736.938
728.997
720.339
710.968
700.886
690.085
678.578
666.38
653.537
640.09
626.105
611.639
596.774
581.58
566.143
550.535
534.836
519.111
503.431
487.851
472.427
457.206
442.231
427.548
413.201
399.212
385.605
372.392
359.587
347.197
335.231
323.686
312.565
301.86
291.567
281.669
272.166
263.015
254.266
245.89
237.868
230.183
222.82
215.763
208.999
202.51
196.283
190.304
184.561
179.037
173.717
168.588
163.64
158.847
154.21
149.717
145.351
141.098
136.946
132.882
128.893
124.97
121.1
117.278
113.496
109.748
106.028
102.333
98.6599
95.0079
91.3757
87.7617
84.1646
80.5817
77.0094
73.4438
69.8813
66.3198
62.7607
59.2105
55.6825
52.197
48.7814
45.4682
42.2925
39.2891
36.489
33.9065
31.5988
29.389
114.315
73.5243
62.3281
58.8486
58.3984
59.4497
61.433
64.0084
66.9974
70.2906
73.8197
77.5462
81.4234
85.4178
89.5137
93.7033
97.9876
102.373
106.872
111.502
116.283
121.24
126.397
131.783
137.425
143.351
149.588
156.164
163.102
170.426
178.156
186.311
194.907
203.957
213.47
223.452
233.906
244.835
256.234
268.086
280.413
293.198
306.42
320.069
334.121
348.56
363.361
378.504
393.966
409.703
425.674
441.847
458.181
474.628
491.148
507.686
524.191
540.568
556.831
572.936
588.838
604.487
619.825
634.795
649.325
663.371
676.839
689.688
701.822
713.206
723.755
733.447
742.208
750.005
756.739
762.341
766.75
769.874
771.552
771.426
770.573
768.118
763.986
758.442
751.653
743.81
735.169
725.963
716.386
706.586
696.665
686.676
676.637
666.528
656.299
645.884
635.22
624.258
612.966
601.325
589.325
576.97
564.28
551.289
538.037
524.571
510.945
497.21
483.421
469.628
455.879
442.22