/*--------------------------------*- C++ -*----------------------------------*\
  =========                 |
  \\      /  F ield         | OpenFOAM: The Open Source CFD Toolbox
   \\    /   O peration     | Website:  https://openfoam.org
    \\  /    A nd           | Version:  8
     \\/     M anipulation  |
\*---------------------------------------------------------------------------*/
FoamFile
{
    version     2.0;
    format      ascii;
    class       volScalarField;
    location    "60";
    object      k;
}
// * * * * * * * * * * * * * * * * * * * * * * * * * * * * * * * * * * * * * //

dimensions      [0 2 -2 0 0 0 0];

internalField   nonuniform List<scalar> 
12225
(
0.36277
0.344063
0.327694
0.309891
0.295375
0.283587
0.275527
0.270481
0.270585
0.272295
0.276691
0.28164
0.291276
0.297313
0.309494
0.31537
0.331773
0.341075
0.440172
0.468748
0.46163
0.448554
0.450589
0.458715
0.475177
0.499684
0.525999
0.554486
0.583927
0.610394
0.639367
0.660774
0.688662
0.704687
0.73354
0.7509
0.390524
0.417881
0.420219
0.416849
0.41164
0.407906
0.408157
0.410278
0.41508
0.421873
0.431919
0.44077
0.453515
0.463332
0.476957
0.487899
0.500732
0.515881
0.377548
0.386983
0.391398
0.391344
0.390226
0.387914
0.385712
0.384117
0.38302
0.383051
0.38362
0.384679
0.386982
0.389072
0.392129
0.395821
0.398767
0.404602
0.374562
0.376095
0.378406
0.378664
0.378259
0.377193
0.3755
0.37372
0.372041
0.370459
0.36934
0.36814
0.367579
0.366983
0.366804
0.366892
0.36704
0.367955
0.373814
0.372712
0.372643
0.372379
0.371752
0.370794
0.369545
0.368048
0.36656
0.364935
0.363524
0.362027
0.360763
0.359544
0.358448
0.357561
0.356635
0.35616
0.373783
0.371743
0.370385
0.36928
0.368226
0.36709
0.365897
0.364548
0.363206
0.361753
0.360374
0.358959
0.357614
0.356318
0.355057
0.353926
0.352775
0.351843
0.373821
0.37156
0.369634
0.367969
0.366492
0.365086
0.363752
0.362391
0.361065
0.359708
0.358385
0.357064
0.355772
0.354522
0.35329
0.352139
0.350988
0.349958
0.373833
0.371554
0.369449
0.367519
0.365768
0.364135
0.362621
0.361162
0.359772
0.358414
0.357099
0.355818
0.354568
0.353362
0.352181
0.351059
0.349954
0.348927
0.373832
0.371561
0.369418
0.3674
0.365521
0.363756
0.36211
0.360552
0.359078
0.357672
0.356325
0.355035
0.35379
0.352598
0.351443
0.350343
0.349271
0.348266
0.37383
0.371561
0.369413
0.367376
0.365452
0.363632
0.361917
0.360295
0.358759
0.357302
0.355916
0.354596
0.353335
0.352132
0.350978
0.34988
0.348823
0.347824
0.373829
0.37156
0.36941
0.367369
0.365434
0.363599
0.361859
0.360209
0.358644
0.357158
0.355745
0.354401
0.353122
0.351904
0.35074
0.349636
0.348575
0.347575
0.373828
0.371558
0.369406
0.367364
0.365427
0.363586
0.361838
0.360177
0.358598
0.357099
0.35567
0.354313
0.353018
0.351789
0.350615
0.349501
0.348437
0.347428
0.373827
0.371556
0.369403
0.36736
0.365421
0.363579
0.361828
0.360163
0.358581
0.357074
0.35564
0.354274
0.352974
0.351737
0.350558
0.349436
0.348368
0.347352
0.373827
0.371554
0.3694
0.367356
0.365416
0.363572
0.361821
0.360155
0.358572
0.357063
0.355628
0.354261
0.35296
0.35172
0.35054
0.349417
0.348347
0.347328
0.373826
0.371553
0.369397
0.367353
0.36541
0.363568
0.361814
0.36015
0.358565
0.357059
0.355622
0.354258
0.352956
0.35172
0.350539
0.349418
0.348347
0.347331
0.373826
0.371552
0.369395
0.367349
0.365407
0.363563
0.361811
0.360145
0.358562
0.357055
0.355622
0.354257
0.352959
0.351722
0.350546
0.349424
0.348358
0.347341
0.373826
0.371551
0.369394
0.367347
0.365405
0.36356
0.361809
0.360143
0.358562
0.357055
0.355624
0.354261
0.352965
0.35173
0.350556
0.349436
0.348372
0.347357
0.373825
0.37155
0.369393
0.367346
0.365405
0.36356
0.36181
0.360145
0.358564
0.35706
0.355631
0.354269
0.352976
0.351743
0.350571
0.349454
0.348392
0.347379
0.373825
0.37155
0.369394
0.367347
0.365407
0.363563
0.361814
0.36015
0.358573
0.357069
0.355643
0.354283
0.352992
0.351761
0.350592
0.349476
0.348416
0.347405
0.373825
0.371551
0.369394
0.36735
0.365409
0.363569
0.36182
0.360161
0.358582
0.357084
0.355658
0.354304
0.353013
0.351788
0.350619
0.349509
0.348451
0.347445
0.373826
0.371552
0.369396
0.367353
0.365415
0.363577
0.361834
0.360179
0.358608
0.357116
0.355699
0.354352
0.353072
0.351855
0.350697
0.349594
0.348545
0.347545
0.373826
0.371553
0.369399
0.367361
0.365433
0.36361
0.361888
0.36026
0.358718
0.357256
0.35587
0.354551
0.353297
0.352102
0.350964
0.349877
0.348842
0.347851
0.373828
0.37155
0.369412
0.367419
0.365561
0.363829
0.362204
0.360672
0.359217
0.357831
0.356503
0.35523
0.354006
0.352829
0.351697
0.350608
0.349564
0.348556
0.373823
0.371554
0.369604
0.367895
0.366345
0.364902
0.36351
0.362143
0.360789
0.359449
0.358125
0.356824
0.355552
0.354313
0.353114
0.351954
0.350844
0.349768
0.373788
0.37199
0.371111
0.370267
0.369363
0.368321
0.367062
0.36565
0.364145
0.362605
0.361065
0.359562
0.358116
0.35673
0.35543
0.354194
0.353061
0.351977
0.374356
0.375573
0.377779
0.377859
0.37729
0.375892
0.373835
0.371646
0.369502
0.367482
0.36565
0.364058
0.362672
0.36148
0.360524
0.359713
0.359141
0.358628
0.379126
0.394305
0.39827
0.396595
0.392566
0.387621
0.383632
0.380426
0.378192
0.376757
0.376292
0.376488
0.377097
0.37824
0.379858
0.381721
0.383955
0.386123
0.408394
0.427514
0.422386
0.410994
0.402182
0.397737
0.398372
0.400614
0.405521
0.412249
0.419962
0.428446
0.437128
0.4461
0.4548
0.463622
0.471904
0.480291
0.366048
0.35342
0.341984
0.330209
0.31898
0.308384
0.299392
0.291651
0.285354
0.28026
0.276534
0.273689
0.272001
0.270828
0.270659
0.270859
0.271447
0.272458
0.0666348
0.105386
0.127477
0.134731
0.148231
0.15573
0.146748
0.144772
0.15188
0.150054
0.144236
0.138699
0.136921
0.134684
0.133034
0.132419
0.132156
0.137309
0.142198
0.150061
0.157528
0.162528
0.169523
0.183027
0.205965
0.238527
0.276505
0.318429
0.362533
0.407218
0.450498
0.493013
0.533746
0.573229
0.610829
0.647351
0.682092
0.715959
0.748235
0.779847
0.810071
0.839828
0.86839
0.896653
0.923889
0.95097
0.977147
1.00328
1.02859
1.05394
1.07853
1.10319
1.12711
1.15113
1.17443
1.19783
1.22045
1.24315
1.26502
1.28696
1.30798
1.32902
1.34909
1.36911
1.38806
1.40689
1.42452
1.44196
1.45822
1.47439
1.48965
1.50498
1.51901
1.53269
1.54481
1.55622
1.56629
1.57525
1.5834
1.5885
1.59035
1.5865
1.58986
1.59452
1.58993
1.57053
1.56421
1.5586
1.5267
1.51758
1.48631
1.47124
1.44966
1.42746
1.40315
1.37739
1.35046
1.32285
1.29458
1.2658
1.23647
1.20691
1.17714
1.14745
1.11797
1.08881
1.06016
1.03188
1.00367
0.974987
0.947426
0.920593
0.894701
0.869611
0.845445
0.822077
0.799641
0.778155
0.757879
0.740052
0.726011
0.713275
0.701213
0.68959
0.678453
0.667636
0.657247
0.64712
0.637379
0.627873
0.618708
0.609733
0.601089
0.592587
0.584498
0.576279
0.568124
0.560064
0.552246
0.544548
0.537048
0.529677
0.522492
0.51542
0.508415
0.501447
0.494573
0.487779
0.481128
0.474588
0.468162
0.461808
0.455571
0.44946
0.443523
0.437724
0.432107
0.426644
0.421347
0.416169
0.411092
0.406065
0.401039
0.395941
0.390696
0.385158
0.379264
0.372729
0.365495
0.357095
0.347435
0.336121
0.323061
0.30812
0.292465
0.275865
0.258372
0.245395
0.224687
0.225156
0.122759
0.176208
0.218499
0.244078
0.264355
0.276765
0.283118
0.286071
0.286393
0.283369
0.283559
0.282782
0.284089
0.289931
0.302615
0.322738
0.349768
0.383346
0.420273
0.454108
0.485088
0.516934
0.552567
0.59341
0.638698
0.688238
0.740213
0.792315
0.843665
0.894534
0.944928
0.995257
1.0454
1.09513
1.14439
1.19324
1.24139
1.28896
1.33567
1.38169
1.42677
1.47114
1.5146
1.55742
1.59944
1.64092
1.68174
1.72218
1.76209
1.80176
1.84106
1.88023
1.91913
1.95804
1.9968
2.03565
2.07441
2.11331
2.15217
2.19119
2.23016
2.26927
2.30829
2.34738
2.38628
2.42509
2.46349
2.50155
2.5389
2.57556
2.61118
2.64584
2.67977
2.71289
2.74484
2.77557
2.80478
2.83241
2.85795
2.88109
2.9015
2.91843
2.93248
2.94423
2.95091
2.95217
2.95283
2.94831
2.93759
2.92516
2.90621
2.88484
2.85861
2.82835
2.7939
2.75516
2.71227
2.66677
2.61906
2.56961
2.51866
2.46662
2.41382
2.36071
2.30753
2.25471
2.20239
2.15086
2.10018
2.05049
2.00196
1.95473
1.90878
1.86421
1.82097
1.77911
1.73858
1.69949
1.66184
1.6257
1.59108
1.55768
1.52539
1.49422
1.46411
1.43504
1.40694
1.37976
1.35345
1.32795
1.30322
1.27919
1.25584
1.23311
1.211
1.189
1.16734
1.14612
1.12539
1.10512
1.0853
1.0659
1.04689
1.0282
1.00962
0.991222
0.973063
0.955187
0.937644
0.920425
0.903456
0.886731
0.870307
0.854256
0.838617
0.823352
0.808469
0.793964
0.779806
0.765923
0.752238
0.738661
0.725074
0.711332
0.697277
0.682678
0.667286
0.650729
0.632726
0.612615
0.590195
0.564927
0.536686
0.505676
0.473142
0.4391
0.404484
0.374582
0.336246
0.324164
0.211958
0.273211
0.317259
0.344913
0.363173
0.375691
0.384701
0.391989
0.399052
0.407466
0.419623
0.436905
0.460989
0.493234
0.533528
0.580247
0.630234
0.68003
0.726201
0.768259
0.80738
0.845735
0.885443
0.928142
0.974421
1.02469
1.07868
1.13596
1.19606
1.25843
1.32241
1.38744
1.45281
1.51841
1.58367
1.64829
1.71184
1.77418
1.83504
1.89441
1.95215
2.00833
2.06291
2.11603
2.16768
2.21803
2.2671
2.31506
2.36193
2.40788
2.45294
2.49725
2.54085
2.58389
2.62639
2.66849
2.71021
2.75167
2.7929
2.83401
2.87501
2.91601
2.95702
2.99814
3.03935
3.08072
3.12222
3.16385
3.20555
3.24727
3.2889
3.33027
3.37126
3.41168
3.45127
3.48976
3.52681
3.562
3.5948
3.62495
3.652
3.67586
3.69584
3.71114
3.722
3.72696
3.73089
3.72703
3.71678
3.70129
3.67948
3.65219
3.61919
3.58079
3.53732
3.48909
3.43662
3.38053
3.32141
3.25979
3.1962
3.13114
3.06506
2.99849
2.93178
2.86539
2.79956
2.73465
2.6708
2.60828
2.54718
2.48769
2.4298
2.3736
2.31905
2.2662
2.21502
2.16558
2.11789
2.07203
2.02786
1.98523
1.944
1.90412
1.86553
1.8282
1.79203
1.75701
1.72304
1.69009
1.65808
1.62697
1.59669
1.56721
1.53846
1.5103
1.4827
1.4557
1.42928
1.40343
1.37811
1.3533
1.32896
1.30505
1.28116
1.25753
1.23422
1.21128
1.18875
1.16661
1.14476
1.12319
1.10198
1.08123
1.06096
1.04112
1.02172
1.00277
0.984225
0.966007
0.948035
0.930206
0.912397
0.894442
0.876151
0.857277
0.837529
0.816472
0.793713
0.768588
0.740642
0.709351
0.674531
0.63638
0.595706
0.553654
0.510737
0.47208
0.427091
0.407864
0.291582
0.362453
0.411801
0.444049
0.465919
0.481643
0.494212
0.506146
0.519694
0.537109
0.560429
0.591218
0.630151
0.676672
0.728544
0.782368
0.83438
0.881966
0.924507
0.963711
1.00232
1.04337
1.08899
1.14031
1.19743
1.25996
1.32702
1.39771
1.47116
1.54665
1.62336
1.70069
1.77805
1.85497
1.93097
2.00571
2.07889
2.15034
2.21988
2.28747
2.35302
2.41659
2.47817
2.53784
2.59564
2.65171
2.70608
2.75889
2.81022
2.86019
2.90889
2.95644
3.00294
3.0485
3.09323
3.13726
3.18067
3.22361
3.26615
3.30844
3.35056
3.39263
3.43475
3.47703
3.51952
3.56232
3.60546
3.64897
3.69283
3.73701
3.78142
3.82595
3.87044
3.91469
3.95843
4.00136
4.04308
4.08317
4.12115
4.1566
4.18904
4.21803
4.24294
4.26308
4.27806
4.28614
4.29218
4.29058
4.28172
4.26598
4.24326
4.21376
4.17761
4.13512
4.08665
4.0327
3.97378
3.91053
3.84357
3.77354
3.70105
3.62671
3.55109
3.47474
3.39815
3.32176
3.24596
3.17108
3.09741
3.02519
2.95459
2.88573
2.81871
2.75357
2.69035
2.62909
2.56981
2.51253
2.45724
2.40393
2.35249
2.30279
2.25472
2.20821
2.16318
2.11958
2.07732
2.03635
1.99659
1.958
1.9205
1.88403
1.84853
1.81395
1.78022
1.74727
1.71504
1.68352
1.65269
1.62251
1.59292
1.56392
1.53546
1.50752
1.47995
1.45277
1.426
1.39966
1.37377
1.34835
1.32315
1.29822
1.2737
1.24969
1.22619
1.20311
1.18048
1.15831
1.13659
1.11519
1.09405
1.07307
1.05213
1.03104
1.00963
0.987636
0.964737
0.940499
0.914444
0.885904
0.854287
0.819043
0.779916
0.737059
0.691094
0.643492
0.595047
0.549883
0.501929
0.475572
0.369791
0.45488
0.513129
0.552211
0.579188
0.598946
0.615155
0.630972
0.649159
0.672084
0.701378
0.73768
0.780294
0.827339
0.87609
0.923945
0.969214
1.0119
1.05354
1.09668
1.14368
1.19613
1.25465
1.31915
1.38906
1.46361
1.54186
1.62299
1.70616
1.79072
1.87598
1.96143
2.04656
2.13096
2.21425
2.29615
2.37637
2.45475
2.53112
2.60541
2.67752
2.74746
2.8152
2.8808
2.94425
3.00566
3.06506
3.12257
3.17824
3.23219
3.28451
3.33532
3.38472
3.43284
3.4798
3.52574
3.57078
3.61506
3.65872
3.70191
3.74476
3.78742
3.83003
3.87272
3.91562
3.95886
4.0025
4.04665
4.09134
4.13659
4.18237
4.22862
4.27521
4.32196
4.36863
4.41491
4.46041
4.5047
4.54728
4.58762
4.62515
4.65925
4.68926
4.71445
4.73426
4.74748
4.75459
4.75711
4.75088
4.73676
4.71473
4.68498
4.64763
4.60305
4.55159
4.49382
4.43028
4.36168
4.28868
4.21201
4.13238
4.05047
3.96697
3.88244
3.79752
3.71264
3.62833
3.5449
3.46274
3.38207
3.30314
3.22606
3.15102
3.07806
3.00728
2.93869
2.87233
2.80817
2.74621
2.68637
2.62857
2.5727
2.51866
2.46635
2.41571
2.36663
2.31906
2.27291
2.22813
2.18463
2.14236
2.10123
2.06121
2.0222
1.98418
1.94705
1.91078
1.87531
1.84063
1.80669
1.77343
1.74083
1.70885
1.67747
1.6466
1.61621
1.58632
1.55692
1.52801
1.49961
1.47165
1.44411
1.41705
1.39052
1.36455
1.3389
1.31367
1.28892
1.26462
1.2406
1.21682
1.19322
1.16964
1.14592
1.12187
1.09724
1.07169
1.04479
1.01602
0.984695
0.950143
0.91177
0.869269
0.822737
0.772774
0.720764
0.667874
0.617372
0.567485
0.524392
0.442849
0.543891
0.61488
0.663195
0.696659
0.720859
0.740017
0.757707
0.776924
0.799984
0.828191
0.861735
0.899701
0.940587
0.982855
1.02565
1.06906
1.11417
1.16242
1.21523
1.27349
1.33761
1.40737
1.48224
1.56147
1.6443
1.72996
1.81777
1.90712
1.99751
2.08843
2.17947
2.27019
2.36027
2.44935
2.53715
2.6234
2.70792
2.79051
2.87105
2.94941
3.02555
3.09938
3.17093
3.24015
3.3071
3.37178
3.43427
3.49461
3.55289
3.60919
3.66361
3.71624
3.76723
3.81667
3.86472
3.91151
3.9572
4.00193
4.04589
4.08922
4.13211
4.17473
4.21727
4.25989
4.30277
4.34606
4.3899
4.43442
4.47969
4.52578
4.57267
4.62029
4.66853
4.71718
4.76596
4.8145
4.86237
4.90904
4.95392
4.99636
5.03563
5.07097
5.10158
5.1267
5.14558
5.1564
5.16264
5.16021
5.14897
5.12905
5.10046
5.0634
5.01813
4.96511
4.90485
4.83802
4.76531
4.6875
4.60537
4.51973
4.43134
4.34095
4.24926
4.15691
4.06448
3.97246
3.88129
3.79135
3.70297
3.6164
3.53185
3.4495
3.36944
3.29175
3.21646
3.14359
3.07312
3.00501
2.93919
2.87558
2.81407
2.75457
2.69697
2.64118
2.58712
2.5347
2.48384
2.43447
2.38651
2.3399
2.29455
2.2504
2.2074
2.16547
2.12456
2.08461
2.04558
2.00741
1.97007
1.93351
1.89767
1.86254
1.82808
1.79423
1.76096
1.72826
1.6961
1.66449
1.63342
1.60286
1.57282
1.54331
1.51439
1.48604
1.4582
1.43084
1.40398
1.37755
1.3513
1.32527
1.2994
1.27353
1.24749
1.22111
1.19413
1.16622
1.13695
1.10578
1.072
1.0349
0.993825
0.948453
0.898841
0.845586
0.789976
0.733384
0.678437
0.625718
0.575495
0.507242
0.62292
0.707156
0.765638
0.806259
0.83499
0.856406
0.874364
0.892086
0.91207
0.935854
0.964048
0.996478
1.03266
1.07221
1.11512
1.16179
1.21288
1.26903
1.33065
1.39779
1.4702
1.54736
1.62867
1.71347
1.80118
1.89125
1.98321
2.0766
2.17103
2.26608
2.36141
2.45665
2.55148
2.64555
2.73862
2.83038
2.92061
3.00909
3.09566
3.18014
3.26243
3.34241
3.42003
3.49522
3.56796
3.63824
3.70608
3.77148
3.83452
3.89523
3.9537
4.01
4.06425
4.11655
4.16703
4.21584
4.26313
4.30905
4.3538
4.39756
4.44052
4.4829
4.52491
4.56678
4.60872
4.65097
4.69373
4.7372
4.78156
4.82694
4.8734
4.92098
4.96961
5.01916
5.0694
5.12002
5.17058
5.22057
5.26936
5.31624
5.36041
5.401
5.43711
5.46784
5.49233
5.50904
5.51835
5.52093
5.51372
5.49698
5.47072
5.43511
5.39036
5.33695
5.27538
5.20636
5.13065
5.04907
4.96251
4.87182
4.7779
4.68152
4.58351
4.48453
4.38527
4.28625
4.18803
4.09102
3.99563
3.90214
3.81082
3.7218
3.63525
3.55122
3.46978
3.39091
3.31462
3.24084
3.16951
3.10054
3.03385
2.9693
2.90682
2.8463
2.78765
2.73077
2.67559
2.62201
2.56996
2.51935
2.47013
2.42222
2.37555
2.33005
2.28568
2.24237
2.20008
2.15873
2.11831
2.07873
2.03998
2.00199
1.96475
1.9282
1.89232
1.85707
1.82243
1.78839
1.75494
1.72204
1.68971
1.65795
1.62679
1.59624
1.56625
1.53679
1.50783
1.47931
1.4511
1.42313
1.39532
1.36743
1.33931
1.31085
1.28175
1.25168
1.22025
1.18689
1.15087
1.11144
1.06794
1.02002
0.967718
0.911643
0.853012
0.793298
0.734755
0.678944
0.624333
0.552579
0.680855
0.778074
0.847231
0.895644
0.929398
0.953402
0.971858
0.988348
1.00578
1.02626
1.0511
1.08093
1.11598
1.1563
1.20195
1.25306
1.30972
1.37193
1.43951
1.51211
1.58928
1.6705
1.75527
1.84312
1.93363
2.02636
2.12098
2.21712
2.31447
2.41267
2.51143
2.6104
2.70929
2.80777
2.90556
3.00235
3.09791
3.19197
3.28433
3.37476
3.46311
3.54922
3.63298
3.71427
3.79302
3.86916
3.94268
4.01353
4.08174
4.14731
4.21029
4.27073
4.32872
4.38433
4.43769
4.48892
4.53816
4.58558
4.63135
4.67568
4.71877
4.76086
4.80221
4.84306
4.8837
4.9244
4.96546
5.00714
5.04971
5.09338
5.13834
5.18469
5.23247
5.28164
5.33206
5.38346
5.43549
5.48764
5.53929
5.58971
5.63803
5.68332
5.72456
5.76073
5.79078
5.81374
5.82764
5.83491
5.8323
5.81956
5.79659
5.76341
5.72025
5.66749
5.6057
5.53558
5.45793
5.37367
5.28371
5.18902
5.09052
4.98911
4.88565
4.78093
4.67568
4.57058
4.46618
4.363
4.26145
4.16187
4.06452
3.96959
3.87723
3.78753
3.70053
3.61625
3.53467
3.45574
3.37941
3.30559
3.23417
3.16505
3.09813
3.03331
2.97048
2.90955
2.85042
2.79301
2.73723
2.68301
2.63027
2.57893
2.52893
2.4802
2.4327
2.38634
2.34109
2.29688
2.25367
2.21139
2.17
2.12946
2.08974
2.05078
2.01256
1.97503
1.93818
1.90198
1.8664
1.83143
1.79706
1.76327
1.73011
1.69755
1.66558
1.63414
1.6032
1.5727
1.54253
1.51262
1.48285
1.45307
1.42309
1.39276
1.36174
1.32969
1.29627
1.26088
1.2228
1.18121
1.13546
1.08521
1.03051
0.971971
0.910767
0.848408
0.786924
0.728336
0.670352
0.556382
0.697935
0.813447
0.897021
0.955613
0.996187
1.02451
1.04547
1.06311
1.08079
1.10109
1.12583
1.15612
1.19248
1.23507
1.28383
1.33858
1.39906
1.46493
1.53578
1.61117
1.69066
1.77381
1.86025
1.94961
2.04156
2.1358
2.23204
2.33
2.42942
2.52998
2.63143
2.73345
2.83575
2.93801
3.03996
3.14126
3.24166
3.34087
3.43865
3.53473
3.62892
3.721
3.81082
3.8982
3.98303
4.06519
4.1446
4.22118
4.29491
4.36574
4.43369
4.49876
4.56099
4.62045
4.67722
4.73139
4.7831
4.83248
4.87972
4.92499
4.96853
5.01056
5.05136
5.09122
5.13045
5.16936
5.20832
5.24765
5.28772
5.32882
5.37124
5.4152
5.46084
5.50823
5.55733
5.60799
5.65992
5.71269
5.76572
5.81829
5.86951
5.9184
5.96387
6.00477
6.03993
6.06825
6.08801
6.09919
6.10176
6.09352
6.07447
6.04451
6.00382
5.95271
5.89174
5.8216
5.74314
5.6573
5.56507
5.46749
5.36555
5.26025
5.15252
5.04326
4.93324
4.82322
4.71379
4.60553
4.49885
4.39416
4.29172
4.19178
4.09444
3.99986
3.90805
3.81906
3.73287
3.64945
3.56871
3.49061
3.41502
3.34187
3.27102
3.20239
3.13585
3.07132
3.00869
2.94788
2.88879
2.83135
2.77547
2.72109
2.66813
2.61653
2.56624
2.51719
2.46931
2.42257
2.37689
2.33223
2.28853
2.24576
2.20385
2.16279
2.12252
2.08301
2.04422
2.00614
1.96872
1.93195
1.8958
1.86025
1.82532
1.79099
1.75724
1.72401
1.69126
1.65894
1.62694
1.59517
1.56354
1.53188
1.50003
1.46779
1.4349
1.40103
1.3658
1.32853
1.28853
1.24492
1.19707
1.14467
1.08781
1.0271
0.963694
0.899103
0.835235
0.774284
0.713693
0.373513
0.618972
0.793648
0.90722
0.982269
1.03293
1.06814
1.09422
1.11591
1.1369
1.16004
1.18735
1.22011
1.25897
1.30412
1.35542
1.41258
1.47523
1.54291
1.6152
1.69167
1.77195
1.85569
1.9426
2.0324
2.12485
2.21969
2.31673
2.41572
2.51643
2.61861
2.72201
2.82634
2.93133
3.03667
3.14207
3.24722
3.35184
3.45561
3.55826
3.65951
3.75912
3.85683
3.95245
4.04574
4.13656
4.22472
4.3101
4.39258
4.47206
4.54847
4.62177
4.69192
4.75891
4.82277
4.88354
4.94128
4.99609
5.04808
5.09741
5.14423
5.18876
5.23124
5.27192
5.3111
5.34912
5.38632
5.42308
5.45982
5.49694
5.53484
5.5739
5.61443
5.65672
5.70094
5.74718
5.79541
5.84547
5.89701
5.94955
6.00243
6.05478
6.1056
6.15376
6.19802
6.23712
6.26979
6.29473
6.31035
6.31734
6.31363
6.29877
6.27256
6.23501
6.1864
6.1272
6.05809
5.97994
5.89372
5.80052
5.70145
5.59758
5.48992
5.37949
5.2672
5.15392
5.04041
4.92733
4.81529
4.70476
4.59616
4.4898
4.3859
4.28465
4.18614
4.09046
3.99763
3.90765
3.82049
3.7361
3.65441
3.57533
3.49876
3.42459
3.35272
3.28303
3.21543
3.14982
3.08609
3.02416
2.96395
2.90538
2.84837
2.79287
2.73881
2.68612
2.63475
2.58463
2.53571
2.48794
2.44124
2.39558
2.3509
2.30716
2.26432
2.22232
2.18114
2.14073
2.10106
2.0621
2.02381
1.98617
1.94914
1.91272
1.87688
1.84159
1.80679
1.77245
1.73849
1.70483
1.67137
1.63799
1.60456
1.57091
1.53683
1.50207
1.46633
1.42922
1.39021
1.34846
1.30295
1.25311
1.19872
1.1399
1.07729
1.01201
0.945568
0.879799
0.816913
0.754339
0.376011
0.613117
0.789276
0.907418
0.988415
1.04558
1.08742
1.11985
1.14754
1.17402
1.20204
1.23357
1.2699
1.31172
1.35928
1.41249
1.47108
1.53471
1.60298
1.6755
1.75193
1.83196
1.91533
2.00183
2.09122
2.18336
2.27803
2.37507
2.4743
2.57552
2.67851
2.78305
2.88886
2.9957
3.10325
3.21127
3.31944
3.42746
3.53501
3.64182
3.74756
3.85198
3.95478
4.05572
4.15455
4.25106
4.34504
4.4363
4.52467
4.61001
4.6922
4.77114
4.84675
4.91898
4.98778
5.05317
5.11515
5.17378
5.22914
5.28133
5.33049
5.37679
5.42045
5.46171
5.50085
5.53819
5.57409
5.60895
5.64319
5.67729
5.7117
5.74689
5.78328
5.82123
5.86106
5.903
5.94715
5.99347
6.04176
6.09165
6.1426
6.19386
6.24437
6.29305
6.33865
6.37984
6.41525
6.44358
6.46317
6.4737
6.474
6.46317
6.44081
6.40679
6.36129
6.30473
6.23775
6.16119
6.07601
5.98345
5.88468
5.78071
5.67254
5.56123
5.44772
5.33293
5.21762
5.10254
4.98827
4.87539
4.76431
4.65541
4.54889
4.44496
4.34371
4.24526
4.14962
4.05684
3.96687
3.8797
3.79525
3.71346
3.63422
3.55745
3.48301
3.41082
3.34076
3.27274
3.20666
3.14243
3.07997
3.0192
2.96006
2.90247
2.84639
2.79174
2.73847
2.68653
2.63584
2.58636
2.53802
2.49077
2.44456
2.39935
2.35508
2.31171
2.2692
2.22751
2.18659
2.1464
2.10691
2.06807
2.02986
1.99223
1.95516
1.91859
1.88249
1.84679
1.81142
1.7763
1.74133
1.70639
1.67134
1.63601
1.60019
1.56364
1.52606
1.48709
1.44624
1.40276
1.35543
1.30372
1.24747
1.1869
1.12264
1.05581
0.987889
0.920654
0.856292
0.792301
0.525067
0.674099
0.805298
0.906261
0.98254
1.04085
1.08679
1.12518
1.15964
1.19272
1.2266
1.26312
1.30347
1.34835
1.39809
1.45272
1.51207
1.5759
1.64393
1.71586
1.79143
1.87042
1.95262
2.03791
2.12612
2.21714
2.31083
2.40706
2.50568
2.60654
2.70944
2.81421
2.9206
3.0283
3.13704
3.24666
3.35685
3.4673
3.57769
3.68774
3.79711
3.90553
4.01269
4.1183
4.22209
4.32382
4.42322
4.52009
4.61419
4.70534
4.79337
4.87812
4.95947
5.03731
5.11155
5.18214
5.24904
5.31225
5.37179
5.42772
5.48013
5.52916
5.57495
5.61773
5.65772
5.69523
5.73059
5.76418
5.79643
5.82783
5.85889
5.8901
5.92198
5.95498
5.98952
6.02596
6.06452
6.10533
6.14833
6.19322
6.2395
6.2864
6.3331
6.3788
6.42236
6.46249
6.4978
6.52691
6.54847
6.56135
6.56448
6.55725
6.53875
6.50877
6.46738
6.41487
6.35178
6.27894
6.19708
6.10746
6.01104
5.90898
5.80238
5.69224
5.57957
5.46525
5.35012
5.2349
5.12024
5.00668
4.89483
4.78498
4.67738
4.57221
4.46961
4.36968
4.27248
4.17803
4.08635
3.99741
3.91116
3.82756
3.74653
3.66795
3.59174
3.51777
3.44596
3.3762
3.3084
3.24247
3.17834
3.11594
3.05519
2.99604
2.93843
2.88231
2.82761
2.77429
2.72228
2.67152
2.62195
2.57353
2.52619
2.4799
2.43459
2.39023
2.34677
2.30415
2.26233
2.22126
2.1809
2.1412
2.10211
2.06358
2.02557
1.98803
1.95089
1.91409
1.87756
1.84122
1.80495
1.76864
1.73214
1.69528
1.65787
1.61965
1.58032
1.53955
1.49685
1.45154
1.4024
1.34889
1.29094
1.22882
1.16317
1.09511
1.02608
0.957797
0.892422
0.827546
0.556009
0.687209
0.798748
0.888676
0.961689
1.02181
1.07234
1.11605
1.15582
1.19439
1.23402
1.27568
1.32018
1.36803
1.41975
1.47546
1.53515
1.59869
1.66592
1.73666
1.81077
1.88799
1.96828
2.05156
2.13776
2.22681
2.31861
2.41309
2.51012
2.6096
2.71136
2.81526
2.92108
3.02854
3.13738
3.24751
3.35861
3.4704
3.58256
3.6948
3.8068
3.91827
4.02888
4.13835
4.24636
4.35265
4.45693
4.55897
4.6585
4.75523
4.84899
4.93958
5.02683
5.11056
5.19064
5.26697
5.33942
5.40794
5.47248
5.53307
5.58971
5.6425
5.69151
5.73692
5.77888
5.81765
5.8535
5.88678
5.91789
5.9473
5.9755
6.00304
6.03046
6.05827
6.08699
6.11706
6.1488
6.18235
6.21749
6.25428
6.29256
6.33201
6.37257
6.41298
6.45211
6.48873
6.52152
6.5491
6.57011
6.58337
6.58754
6.58244
6.56664
6.5399
6.50214
6.45355
6.39452
6.32576
6.24767
6.16265
6.07098
5.97345
5.87109
5.76484
5.65569
5.54449
5.43211
5.31923
5.20662
5.09461
4.98392
4.87496
4.76802
4.66327
4.56088
4.46095
4.36358
4.26879
4.17662
4.08707
4.0001
3.91572
3.83387
3.75442
3.6773
3.60239
3.52961
3.45885
3.39005
3.32311
3.25796
3.19454
3.13278
3.07262
3.01404
2.95696
2.90135
2.84715
2.79429
2.74272
2.69238
2.64322
2.59519
2.54823
2.5023
2.45735
2.41332
2.37016
2.32782
2.28624
2.24537
2.20515
2.16552
2.12642
2.08778
2.04956
2.01167
1.97406
1.93663
1.8993
1.86196
1.82449
1.78673
1.74853
1.70967
1.66991
1.62896
1.58647
1.54198
1.49479
1.44377
1.38854
1.32906
1.2656
1.19884
1.12988
1.06012
0.991208
0.925281
0.860026
0.545197
0.668626
0.771049
0.855571
0.927072
0.988831
1.04337
1.09291
1.1392
1.18377
1.22792
1.27325
1.32073
1.3711
1.42452
1.48107
1.54079
1.60367
1.6697
1.73883
1.8111
1.88637
1.96455
2.04559
2.12945
2.2161
2.30549
2.39758
2.49228
2.58953
2.6892
2.79117
2.89526
3.00131
3.1091
3.21846
3.32912
3.44084
3.55334
3.66635
3.77955
3.89265
4.00534
4.11733
4.2283
4.33796
4.44602
4.5522
4.65625
4.75812
4.85736
4.9537
5.04687
5.13667
5.2229
5.30539
5.384
5.45851
5.52885
5.59498
5.65686
5.71449
5.76789
5.81714
5.86233
5.90361
5.9412
5.97537
6.00646
6.03485
6.06104
6.08555
6.10893
6.1317
6.15437
6.17728
6.20089
6.22557
6.2518
6.27973
6.30911
6.33976
6.37086
6.40204
6.43258
6.46153
6.48779
6.5102
6.52754
6.53871
6.54225
6.53819
6.52467
6.50143
6.46818
6.42488
6.37171
6.30913
6.23766
6.1583
6.072
5.97972
5.8824
5.78099
5.67639
5.56949
5.4611
5.35191
5.24266
5.13366
5.02625
4.9204
4.81625
4.71397
4.61373
4.51565
4.41982
4.32633
4.2352
4.14648
4.06007
3.97608
3.89449
3.8152
3.73814
3.66321
3.59032
3.51941
3.45038
3.38317
3.31771
3.25394
3.19182
3.13127
3.0723
3.01485
2.95888
2.90433
2.85114
2.79926
2.74864
2.69921
2.65093
2.60376
2.55764
2.51253
2.46835
2.42506
2.38259
2.34088
2.29987
2.25949
2.21967
2.18033
2.1414
2.1028
2.06447
2.02633
1.98827
1.95021
1.91204
1.87362
1.83481
1.79544
1.75529
1.71414
1.67168
1.62756
1.58131
1.53219
1.47935
1.42253
1.3617
1.29715
1.22958
1.16006
1.08997
1.02085
0.954825
0.88967
0.515577
0.63454
0.731907
0.813317
0.88411
0.947301
1.00494
1.05865
1.10984
1.15972
1.20928
1.25923
1.31021
1.36273
1.41731
1.47425
1.53368
1.59566
1.66021
1.72734
1.79696
1.8691
1.9438
2.02114
2.10115
2.18386
2.26929
2.35746
2.44832
2.54186
2.63801
2.73668
2.83777
2.94114
3.04664
3.15407
3.26324
3.37392
3.48586
3.5988
3.71246
3.82655
3.94078
4.05484
4.16842
4.28122
4.3929
4.50316
4.6116
4.7179
4.82186
4.92323
5.02174
5.11713
5.20917
5.29764
5.3824
5.46336
5.54018
5.61269
5.68075
5.74428
5.80322
5.85758
5.90728
5.95241
5.99307
6.02945
6.06177
6.09033
6.11551
6.13777
6.15759
6.17549
6.19207
6.20801
6.22381
6.23979
6.25626
6.27289
6.28996
6.30751
6.3254
6.3434
6.36116
6.37814
6.39368
6.40688
6.41684
6.42264
6.42309
6.41782
6.40499
6.38431
6.35522
6.31743
6.27084
6.21566
6.15226
6.08127
6.00341
5.91952
5.83041
5.73697
5.64
5.54037
5.4388
5.33601
5.23266
5.12901
5.02623
4.92455
4.82422
4.72545
4.6284
4.53323
4.44003
4.34891
4.25988
4.17305
4.08829
4.00599
3.92594
3.84804
3.77219
3.69833
3.62638
3.55627
3.48795
3.42135
3.35642
3.29311
3.23137
3.17111
3.11239
3.05518
2.99944
2.94512
2.89215
2.8405
2.7901
2.7409
2.69285
2.64593
2.60008
2.55525
2.51137
2.46837
2.42618
2.38474
2.34397
2.30381
2.26415
2.22492
2.18603
2.14739
2.10892
2.07053
2.03212
1.99358
1.9548
1.91565
1.87598
1.83562
1.79435
1.75194
1.70808
1.6624
1.6144
1.56339
1.5089
1.45067
1.38872
1.32337
1.2553
1.18558
1.11557
1.04668
0.981009
0.916419
0.476948
0.592436
0.68614
0.765286
0.835437
0.899542
0.959387
1.01626
1.07115
1.12489
1.17815
1.23149
1.2854
1.34017
1.39604
1.45321
1.51191
1.57226
1.63441
1.69846
1.76454
1.83282
1.9034
1.97638
2.05182
2.12984
2.21049
2.29384
2.37992
2.46875
2.56032
2.6546
2.75152
2.851
2.95291
3.05712
3.16346
3.27175
3.38175
3.49326
3.60601
3.71974
3.83416
3.949
4.06394
4.1787
4.29294
4.40639
4.51871
4.62959
4.73866
4.84564
4.95019
5.05201
5.15078
5.2462
5.33789
5.42559
5.50912
5.58835
5.66304
5.73308
5.79832
5.85877
5.91419
5.96446
6.00952
6.04941
6.0842
6.11407
6.13924
6.16004
6.17696
6.19062
6.20161
6.21051
6.21762
6.22328
6.22753
6.23046
6.23246
6.23374
6.2346
6.23521
6.23577
6.23627
6.23655
6.23627
6.23473
6.23176
6.2264
6.2173
6.2036
6.18455
6.15932
6.12726
6.08798
6.04132
5.9874
5.92651
5.85913
5.78584
5.70733
5.62431
5.53752
5.44769
5.35554
5.26172
5.16688
5.07154
4.97628
4.88152
4.78757
4.69469
4.60308
4.5129
4.42428
4.33734
4.25212
4.16873
4.08698
4.00734
3.92969
3.85397
3.78011
3.70806
3.63777
3.5692
3.50228
3.43697
3.37323
3.31103
3.25031
3.19101
3.13328
3.07706
3.02225
2.96883
2.91673
2.86592
2.81635
2.76796
2.7207
2.67455
2.62946
2.58538
2.54224
2.49996
2.45848
2.41771
2.37759
2.33801
2.29889
2.26012
2.2216
2.18322
2.1449
2.10654
2.06802
2.02924
1.99007
1.95039
1.91003
1.86882
1.82655
1.78297
1.73777
1.69053
1.6408
1.58815
1.53222
1.47283
1.41002
1.34415
1.27594
1.20642
1.13689
1.06868
1.00379
0.940205
0.436915
0.548726
0.639586
0.716956
0.786404
0.850839
0.911923
0.970736
1.02802
1.08434
1.1401
1.19563
1.25121
1.30704
1.3633
1.42016
1.47779
1.53637
1.59608
1.65711
1.71964
1.78388
1.84999
1.91817
1.98856
2.06132
2.13658
2.21446
2.29505
2.37843
2.46463
2.55368
2.64554
2.7402
2.83756
2.93755
3.04002
3.14484
3.25181
3.36076
3.47144
3.58365
3.6971
3.81155
3.92671
4.0423
4.15801
4.27354
4.38856
4.50274
4.61574
4.72723
4.83683
4.94421
5.04902
5.15092
5.24958
5.34466
5.43578
5.52268
5.605
5.68254
5.75499
5.82209
5.88365
5.93946
5.98944
6.03339
6.07131
6.10307
6.12884
6.14868
6.16309
6.1725
6.17773
6.17883
6.17665
6.1716
6.16236
6.1498
6.13433
6.11663
6.0973
6.07717
6.05688
6.03717
6.01852
6.00119
5.98522
5.9704
5.95616
5.94158
5.92568
5.90739
5.88559
5.85927
5.82766
5.79022
5.74676
5.69721
5.64179
5.58078
5.51469
5.44402
5.3694
5.29142
5.21077
5.12801
5.04377
4.95853
4.87282
4.78702
4.70147
4.61643
4.53215
4.4488
4.36654
4.28548
4.20574
4.12741
4.05052
3.9752
3.90148
3.82935
3.7588
3.68981
3.62236
3.55641
3.49193
3.4289
3.36729
3.30708
3.24823
3.19063
3.13451
3.0798
3.02644
2.97441
2.92367
2.87417
2.82589
2.77876
2.7327
2.68785
2.64407
2.60129
2.55942
2.51838
2.4781
2.43846
2.3994
2.36083
2.32263
2.28468
2.24687
2.20909
2.17124
2.13319
2.09484
2.05607
2.01674
1.97673
1.93586
1.89397
1.85081
1.80617
1.75964
1.71097
1.65981
1.60583
1.54876
1.48851
1.42517
1.35917