/*--------------------------------*- C++ -*----------------------------------*\
  =========                 |
  \\      /  F ield         | OpenFOAM: The Open Source CFD Toolbox
   \\    /   O peration     | Website:  https://openfoam.org
    \\  /    A nd           | Version:  8
     \\/     M anipulation  |
\*---------------------------------------------------------------------------*/
FoamFile
{
    version     2.0;
    format      ascii;
    class       volScalarField;
    location    "60";
    object      nut;
}
// * * * * * * * * * * * * * * * * * * * * * * * * * * * * * * * * * * * * * //

dimensions      [0 2 -1 0 0 0 0];

internalField   nonuniform List<scalar> 
12225
(
4.14877e-05
3.93486e-05
3.74775e-05
3.5441e-05
3.37811e-05
3.24326e-05
3.15107e-05
3.09336e-05
3.09435e-05
3.11456e-05
3.16364e-05
3.22171e-05
3.33042e-05
3.39788e-05
3.54176e-05
3.60038e-05
3.80506e-05
4.06599e-05
0.000332144
0.000215247
0.000179155
0.000157729
0.000146086
0.000138186
0.000132561
0.00013166
0.000129358
0.00013012
0.000128954
0.00012954
0.0001286
0.000128725
0.000128055
0.000127711
0.000127786
0.000127009
0.000668471
0.000450961
0.000355449
0.000309933
0.000274882
0.000251048
0.000231223
0.000216999
0.000202055
0.000191344
0.000181808
0.000174045
0.000168472
0.000162075
0.000159249
0.000153375
0.000152536
0.000146933
0.000801824
0.000691967
0.000572038
0.000500245
0.000448842
0.000411891
0.000380107
0.00035553
0.000333097
0.000313813
0.000296935
0.000279993
0.000268571
0.000253409
0.000245651
0.000232629
0.000226685
0.000215308
0.000839656
0.000810371
0.000740281
0.000676636
0.000623428
0.000581223
0.000545227
0.000513915
0.000488597
0.000463182
0.00044446
0.000421958
0.000407806
0.000387665
0.000376548
0.000358619
0.000349491
0.000332663
0.000850347
0.000843321
0.000819496
0.000786596
0.000750426
0.000715672
0.000685289
0.000655471
0.000631772
0.000606275
0.000587697
0.000565221
0.000550126
0.000530038
0.000517332
0.000499121
0.000488294
0.000470452
0.000851574
0.000851033
0.000843292
0.000833475
0.000816964
0.000796779
0.000777598
0.000756221
0.000738339
0.000718162
0.000702473
0.00068398
0.000670281
0.000653346
0.000641327
0.000625521
0.000615165
0.000599079
0.000851577
0.000851824
0.000850029
0.000847458
0.000841355
0.000833644
0.000824662
0.000813127
0.000802469
0.000789833
0.000778975
0.000766405
0.000756087
0.000743906
0.000734328
0.000722509
0.000713912
0.000701429
0.000851672
0.000851534
0.000851015
0.000850332
0.000848867
0.000846109
0.000842964
0.000838134
0.000833217
0.000826998
0.000820755
0.000814116
0.000807586
0.000800341
0.000793861
0.000786408
0.000780177
0.000771916
0.000851755
0.000851386
0.000851047
0.000850622
0.000850244
0.000849334
0.000848373
0.000846697
0.000844852
0.000842355
0.000839676
0.000836449
0.000833321
0.000829523
0.000826131
0.000821882
0.000818506
0.00081359
0.000851786
0.000851358
0.000851015
0.000850607
0.000850325
0.000849886
0.000849502
0.000848884
0.00084824
0.000847301
0.000846334
0.000844997
0.000843743
0.000842029
0.000840568
0.000838487
0.000836954
0.00083447
0.00085179
0.00085136
0.000850998
0.000850602
0.000850287
0.000849925
0.000849626
0.000849249
0.000848911
0.000848444
0.000848017
0.000847399
0.000846857
0.000846062
0.000845414
0.000844429
0.000843708
0.000842528
0.000851787
0.000851364
0.000850988
0.000850603
0.000850266
0.000849917
0.000849615
0.000849289
0.00084901
0.000848684
0.000848404
0.000848052
0.000847753
0.000847353
0.000847025
0.000846564
0.000846203
0.000845678
0.000851784
0.000851366
0.00085098
0.000850603
0.000850254
0.000849911
0.000849597
0.000849283
0.000848999
0.000848708
0.000848447
0.000848172
0.000847927
0.000847662
0.000847427
0.000847166
0.000846935
0.000846674
0.000851781
0.000851366
0.000850975
0.000850599
0.000850246
0.000849906
0.000849586
0.000849277
0.000848985
0.000848702
0.000848437
0.000848178
0.000847937
0.000847701
0.000847481
0.000847267
0.000847067
0.000846873
0.00085178
0.000851364
0.000850971
0.000850596
0.00085024
0.000849901
0.000849579
0.000849271
0.000848978
0.000848698
0.000848431
0.000848177
0.000847935
0.000847705
0.000847487
0.000847281
0.000847086
0.000846903
0.00085178
0.000851363
0.000850968
0.000850592
0.000850236
0.000849896
0.000849574
0.000849266
0.000848974
0.000848695
0.00084843
0.000848178
0.000847938
0.000847711
0.000847495
0.000847291
0.000847099
0.000846918
0.000851779
0.000851362
0.000850966
0.00085059
0.000850233
0.000849893
0.000849571
0.000849265
0.000848973
0.000848696
0.000848433
0.000848183
0.000847946
0.00084772
0.000847508
0.000847306
0.000847116
0.000846936
0.000851779
0.000851361
0.000850965
0.000850589
0.000850232
0.000849893
0.000849572
0.000849266
0.000848977
0.000848701
0.000848441
0.000848193
0.000847958
0.000847736
0.000847526
0.000847326
0.000847139
0.000846961
0.000851779
0.000851362
0.000850965
0.00085059
0.000850234
0.000849896
0.000849576
0.000849272
0.000848985
0.000848712
0.000848454
0.000848208
0.000847976
0.000847755
0.000847548
0.00084735
0.000847164
0.000846988
0.000851779
0.000851363
0.000850967
0.000850593
0.000850238
0.000849903
0.000849584
0.000849284
0.000848997
0.000848727
0.000848467
0.000848225
0.000847989
0.00084777
0.000847553
0.000847354
0.000847155
0.000846974
0.000851777
0.000851366
0.000850968
0.0008506
0.000850244
0.000849915
0.000849594
0.000849295
0.000848994
0.000848711
0.000848418
0.00084814
0.000847843
0.000847562
0.000847252
0.000846966
0.000846641
0.000846352
0.000851773
0.000851375
0.00085097
0.000850616
0.000850246
0.000849899
0.000849497
0.000849082
0.000848571
0.000848036
0.000847382
0.00084671
0.000845905
0.000845114
0.000844174
0.000843297
0.000842243
0.000841327
0.000851767
0.000851415
0.000850963
0.000850551
0.000849869
0.000848985
0.000847645
0.000846032
0.000843992
0.000841763
0.000839133
0.000836453
0.000833428
0.000830508
0.000827253
0.000824276
0.000820899
0.00081802
0.000851857
0.000851379
0.000850197
0.000848253
0.000844491
0.000839414
0.00083286
0.000825807
0.000818186
0.00081032
0.000802035
0.000794164
0.000786006
0.000778532
0.000770738
0.000763875
0.000756494
0.000750373
0.000852106
0.000847667
0.000839913
0.000827166
0.0008088
0.00078978
0.000770214
0.000751734
0.000733761
0.000717472
0.000701677
0.00068768
0.000673926
0.000661963
0.00064989
0.000639681
0.000628939
0.000620266
0.000843238
0.000822501
0.00077526
0.000726512
0.000685086
0.000650071
0.000618823
0.000592466
0.000568988
0.000549038
0.000530602
0.000515039
0.000500028
0.000487467
0.000474871
0.000464599
0.000453756
0.000445202
0.000795659
0.000668252
0.000570763
0.000510016
0.000465852
0.000431438
0.000404511
0.000382921
0.000364739
0.000349718
0.000336655
0.000325894
0.000315552
0.000307285
0.000299198
0.000292771
0.000285879
0.000280701
0.000501337
0.000348361
0.000292743
0.000259229
0.000236487
0.000221248
0.000211772
0.000204041
0.000198746
0.000195223
0.000192413
0.000190527
0.00018877
0.000187628
0.000186348
0.000185647
0.000184699
0.000184279
7.27385e-05
7.02258e-05
6.79539e-05
6.56128e-05
6.33828e-05
6.1276e-05
5.94911e-05
5.79511e-05
5.67012e-05
5.56894e-05
5.49487e-05
5.43844e-05
5.4049e-05
5.38164e-05
5.37837e-05
5.38163e-05
5.39495e-05
5.41393e-05
2.01384e-05
0.000146215
0.000177937
4.14535e-05
0.00022682
0.000248747
5.18193e-05
4.96518e-05
0.000238964
4.9517e-05
4.61259e-05
4.26003e-05
4.08432e-05
3.82438e-05
3.63568e-05
3.45247e-05
3.21032e-05
3.28077e-05
3.67523e-05
4.28679e-05
4.75105e-05
4.96141e-05
5.0709e-05
5.21146e-05
5.41222e-05
5.77325e-05
6.19242e-05
6.65866e-05
7.10074e-05
7.5667e-05
7.9816e-05
8.3815e-05
8.74573e-05
9.08992e-05
9.40141e-05
9.69918e-05
9.96901e-05
0.000102288
0.000104656
0.000106953
0.000109061
0.00011112
0.000113025
0.000114897
0.000116642
0.000118368
0.000119988
0.000121599
0.000123118
0.000124636
0.000126074
0.000127514
0.000128882
0.000130254
0.00013156
0.000132872
0.00013412
0.000135373
0.000136566
0.000137764
0.0001389
0.000140038
0.000141112
0.000142183
0.000143185
0.000144173
0.000145086
0.000145981
0.000146804
0.000147612
0.000148343
0.00014914
0.000149841
0.000150496
0.000151053
0.000151604
0.000152014
0.000152443
0.000153074
0.000153349
0.000154106
0.000153257
0.000154408
0.000155665
0.000154579
0.000151892
0.000152772
0.000156221
0.000150662
0.000154794
0.0001502
0.000150386
0.000149209
0.000148247
0.000147081
0.000145793
0.000144376
0.00014289
0.000141347
0.000139754
0.000138088
0.000136375
0.000134608
0.000132805
0.000130977
0.000129126
0.000127275
0.000125433
0.000123741
0.000121714
0.000119784
0.000117853
0.000115964
0.000114096
0.000112272
0.000110469
0.000108713
0.000106995
0.00010521
0.000103263
0.000101907
0.000100763
9.96998e-05
9.86703e-05
9.76893e-05
9.67217e-05
9.57947e-05
9.48751e-05
9.39946e-05
9.31209e-05
9.22834e-05
9.14515e-05
9.06554e-05
8.98544e-05
8.9109e-05
8.83635e-05
8.76203e-05
8.68712e-05
8.61547e-05
8.54358e-05
8.47338e-05
8.40346e-05
8.33507e-05
8.26857e-05
8.20324e-05
8.13772e-05
8.07299e-05
8.00815e-05
7.94423e-05
7.88103e-05
7.81902e-05
7.75679e-05
7.69484e-05
7.63269e-05
7.57151e-05
7.51072e-05
7.45114e-05
7.3924e-05
7.33542e-05
7.27982e-05
7.2262e-05
7.17409e-05
7.12426e-05
7.07587e-05
7.03023e-05
6.98622e-05
6.94524e-05
6.90827e-05
6.87333e-05
6.84508e-05
6.81454e-05
6.78126e-05
6.73729e-05
6.65185e-05
6.53002e-05
6.37881e-05
6.10642e-05
5.92924e-05
5.43512e-05
5.4551e-05
3.6995e-05
9.53745e-05
0.000160959
0.000205493
0.000263809
0.000306551
0.000316559
0.00032257
0.000335456
0.00030518
0.000293726
0.000273056
0.000253233
0.000237337
0.000228007
0.000224379
0.000226438
0.000235976
0.000250341
0.000258442
0.000257251
0.000253245
0.000251382
0.00025365
0.000259932
0.000270166
0.00028434
0.000301606
0.000319495
0.000338246
0.000357334
0.000376468
0.000398952
0.000421036
0.000443377
0.000465545
0.000487381
0.00050874
0.000529496
0.000549588
0.000568969
0.000587638
0.000605616
0.000622941
0.000639675
0.000655879
0.000671636
0.000687013
0.000702104
0.000716971
0.000731708
0.000746367
0.000761041
0.000775774
0.000790664
0.000805741
0.000821089
0.000836721
0.000852716
0.000869064
0.000885822
0.000902953
0.00092051
0.000938418
0.000956685
0.000975172
0.00099381
0.00101234
0.00103055
0.00104803
0.00106446
0.0010796
0.00109491
0.00110996
0.00112485
0.00113929
0.00115309
0.00116808
0.0011836
0.00119804
0.00121355
0.00122797
0.00124673
0.00125755
0.00126692
0.00127578
0.00128828
0.0012996
0.0013028
0.00131288
0.00131135
0.00131298
0.0013116
0.00130901
0.00130458
0.00129802
0.00128895
0.00127868
0.00126767
0.00125706
0.00124553
0.00123323
0.00122027
0.00120678
0.0011929
0.00117876
0.00116455
0.00115053
0.00113718
0.00112367
0.0011103
0.00109705
0.00108398
0.00107111
0.00105847
0.00104604
0.00103381
0.00102166
0.00100903
0.000994858
0.000979995
0.000965033
0.000950249
0.000935726
0.000921534
0.000907659
0.000894126
0.000880894
0.000867981
0.000855339
0.000842979
0.000830862
0.000818994
0.000807332
0.00079614
0.00078499
0.000774024
0.000763252
0.000752701
0.000742304
0.000732165
0.000722245
0.00071249
0.000702866
0.00069318
0.000683545
0.000674028
0.000664651
0.000655436
0.00064638
0.000637412
0.000628519
0.000619752
0.000611167
0.000602774
0.000594543
0.000586488
0.000578613
0.000570911
0.000563349
0.000555903
0.000548546
0.000541249
0.000533964
0.000526645
0.000519254
0.00051164
0.00050392
0.000495646
0.000486914
0.000477189
0.000465934
0.000452819
0.000436378
0.000417592
0.000394312
0.000365034
0.000337531
0.000278734
0.000258447
6.44818e-05
0.00015468
0.00025039
0.000329146
0.000391406
0.000437636
0.000467875
0.00048488
0.00049281
0.000489742
0.000483026
0.000473712
0.000464389
0.000457193
0.000452914
0.000450914
0.000449714
0.000448794
0.000448684
0.00045196
0.000459333
0.000470469
0.000486455
0.000508503
0.000534916
0.00056533
0.000599443
0.000636908
0.000680418
0.000727593
0.000778014
0.000831641
0.000880751
0.00092952
0.000977379
0.00102391
0.00106888
0.00111212
0.00115355
0.00119317
0.00123101
0.00126717
0.00130175
0.00133487
0.00136668
0.00139732
0.00142693
0.00145566
0.00148364
0.001511
0.00153787
0.00156436
0.00159058
0.00161664
0.00164265
0.00166867
0.0016948
0.00172109
0.00174761
0.00177439
0.00180148
0.00182888
0.00185662
0.00188466
0.00191299
0.00194153
0.00197021
0.0019989
0.00202748
0.00205581
0.00208385
0.00211162
0.00213952
0.00216735
0.00219505
0.00222251
0.00224978
0.002277
0.00230346
0.00232886
0.00235375
0.00237827
0.00240183
0.00241719
0.00243324
0.00244635
0.00246364
0.00247524
0.00248174
0.00248739
0.00248689
0.00248489
0.00247969
0.00247182
0.00246124
0.00244798
0.00243211
0.00241416
0.00239453
0.00237373
0.00235148
0.00232795
0.00230335
0.00227789
0.00225181
0.00222532
0.00219868
0.00217214
0.00214596
0.00211991
0.00209411
0.00206861
0.00204348
0.00201874
0.00199444
0.00197057
0.00194711
0.00192391
0.00190059
0.00187661
0.0018522
0.00182771
0.00180341
0.00177942
0.00175582
0.00173262
0.00170985
0.00168749
0.00166554
0.00164397
0.00162277
0.00160191
0.00158138
0.00156116
0.00154134
0.00152187
0.00150276
0.00148397
0.0014655
0.00144726
0.00142973
0.0014127
0.00139599
0.00137951
0.00136258
0.00134582
0.00132934
0.00131318
0.0012974
0.00128201
0.00126676
0.00125165
0.00123687
0.00122257
0.00120875
0.00119532
0.0011823
0.00116974
0.00115762
0.00114585
0.00113438
0.00112319
0.0011122
0.00110136
0.00109057
0.00107979
0.00106879
0.00105759
0.00104555
0.00103237
0.00101706
0.000998351
0.00097519
0.000945099
0.000909177
0.000864457
0.000810144
0.000754475
0.000653814
0.000604349
8.89431e-05
0.000214804
0.000337054
0.000433331
0.000504565
0.000554165
0.000585507
0.000601848
0.000606521
0.000602945
0.000595113
0.000586481
0.00057984
0.00057691
0.00057816
0.000583177
0.000591346
0.000602574
0.000617586
0.000638596
0.000664599
0.000695884
0.000732878
0.000776109
0.00082713
0.000884371
0.000947328
0.00101462
0.00108271
0.00115226
0.00122217
0.00129164
0.00135898
0.0014247
0.00148852
0.0015502
0.00160959
0.00166664
0.00172134
0.00177373
0.00182392
0.00187199
0.00191808
0.00196233
0.00200488
0.00204589
0.0020855
0.00212385
0.00216109
0.00219736
0.00223278
0.00226747
0.00230157
0.00233516
0.00236837
0.00240128
0.00243398
0.00246656
0.00249907
0.00253157
0.00256412
0.00259676
0.0026295
0.00266238
0.00269538
0.00272849
0.00276168
0.00279492
0.00282814
0.0028613
0.00289433
0.00292735
0.00296044
0.00299351
0.00302644
0.0030591
0.00309134
0.00312294
0.0031535
0.00318281
0.00321082
0.00323729
0.00326248
0.00328323
0.00330209
0.00331359
0.00333005
0.0033416
0.0033486
0.00335215
0.00335137
0.00334734
0.0033398
0.00332892
0.0033148
0.0032976
0.00327748
0.00325479
0.00322984
0.00320297
0.0031743
0.00314407
0.00311253
0.00307994
0.00304658
0.0030127
0.00297856
0.00294439
0.00291038
0.00287657
0.00284306
0.00280992
0.00277722
0.00274501
0.00271334
0.00268222
0.00265162
0.00262145
0.00259148
0.00256144
0.00253133
0.00250131
0.00247153
0.00244208
0.00241303
0.0023844
0.0023562
0.00232842
0.00230107
0.0022741
0.00224752
0.0022213
0.00219542
0.00216987
0.00214466
0.00211982
0.00209535
0.00207122
0.00204741
0.00202389
0.00200081
0.00197816
0.00195586
0.00193386
0.00191199
0.00189085
0.00187018
0.00184994
0.00183036
0.00181142
0.00179255
0.00177385
0.00175583
0.00173864
0.0017223
0.00170655
0.00169148
0.0016772
0.00166368
0.00165076
0.00163836
0.00162649
0.00161503
0.00160388
0.00159298
0.00158224
0.00157142
0.00156038
0.00154843
0.00153477
0.00151804
0.00149635
0.00146771
0.00142944
0.00138135
0.00132161
0.00125035
0.00117307
0.00105196
0.000983564
0.000112986
0.000272986
0.000417847
0.000528309
0.000606515
0.000658165
0.000689115
0.000703237
0.00070556
0.000701085
0.000694523
0.000689685
0.000689047
0.000693731
0.000703894
0.000719353
0.000740086
0.000766531
0.000797845
0.00083505
0.00088167
0.000936609
0.000999514
0.0010687
0.00114165
0.00121852
0.00129862
0.00138061
0.00146317
0.00154584
0.00162809
0.00170922
0.00178804
0.00186456
0.00193864
0.00201019
0.00207914
0.0021455
0.00220928
0.00227055
0.00232938
0.00238588
0.00244015
0.00249231
0.00254248
0.0025908
0.00263739
0.00268239
0.00272591
0.00276808
0.00280902
0.00284884
0.00288766
0.00292559
0.00296272
0.00299915
0.00303497
0.00307028
0.00310514
0.00313964
0.00317383
0.00320779
0.00324157
0.00327521
0.00330877
0.00334226
0.00337573
0.00340917
0.00344261
0.00347602
0.0035094
0.00354278
0.00357614
0.0036094
0.00364244
0.00367512
0.00370721
0.00373849
0.00376864
0.00379746
0.00382476
0.00385027
0.00387364
0.00389433
0.0039129
0.00392777
0.00393737
0.00394888
0.00395512
0.00395737
0.00395566
0.00395029
0.00394128
0.00392876
0.00391284
0.00389369
0.00387153
0.00384663
0.00381925
0.00378969
0.00375819
0.00372502
0.00369046
0.00365477
0.00361824
0.00358112
0.00354366
0.00350607
0.00346853
0.00343116
0.00339406
0.00335733
0.00332105
0.00328527
0.00325005
0.00321538
0.00318128
0.00314766
0.00311442
0.00308142
0.00304861
0.00301601
0.00298368
0.00295168
0.00292004
0.00288876
0.00285787
0.00282734
0.00279718
0.00276737
0.00273789
0.00270872
0.00267986
0.00265128
0.002623
0.00259501
0.00256734
0.00253997
0.00251289
0.00248607
0.00245958
0.00243343
0.0024076
0.00238204
0.00235671
0.00233182
0.00230737
0.00228338
0.00226044
0.00223838
0.00221704
0.00219645
0.00217696
0.00215865
0.00214161
0.00212517
0.00210967
0.00209532
0.00208208
0.00206957
0.00205782
0.00204685
0.00203649
0.00202662
0.00201719
0.0020081
0.00199909
0.00198991
0.00197978
0.00196754
0.00195153
0.00192916
0.00189767
0.00185442
0.00179814
0.00172751
0.00164307
0.00155137
0.00142673
0.00129485
0.000135403
0.000322021
0.000488469
0.00061288
0.000698766
0.000754584
0.000787506
0.000802409
0.000805756
0.000803518
0.000800855
0.000801595
0.000808024
0.000821149
0.000841221
0.000869228
0.000903178
0.000945471
0.000997233
0.00105798
0.00112466
0.0011978
0.00127639
0.00135952
0.00144609
0.00153548
0.00162728
0.00171933
0.00181066
0.00190074
0.00198919
0.00207569
0.00216014
0.00224239
0.00232232
0.00239984
0.00247488
0.0025474
0.0026174
0.0026849
0.00274992
0.00281253
0.00287279
0.00293078
0.00298657
0.00304026
0.00309194
0.00314171
0.00318965
0.00323588
0.00328047
0.00332353
0.00336515
0.00340543
0.00344445
0.0034823
0.00351909
0.00355488
0.00358978
0.00362387
0.00365723
0.00368995
0.00372212
0.00375382
0.00378513
0.00381613
0.00384688
0.00387746
0.00390792
0.00393833
0.00396872
0.00399908
0.00402936
0.00405949
0.0040894
0.00411896
0.00414801
0.00417634
0.00420373
0.00422997
0.00425484
0.00427809
0.00429942
0.00431851
0.00433514
0.00435031
0.00435993
0.00436871
0.00437447
0.00437632
0.00437439
0.00436879
0.00435957
0.00434683
0.00433068
0.00431128
0.00428883
0.00426357
0.00423576
0.00420567
0.00417357
0.00413975
0.00410448
0.00406804
0.0040307
0.00399272
0.00395433
0.00391574
0.00387714
0.00383866
0.00380042
0.00376253
0.00372506
0.00368808
0.00365163
0.00361572
0.00358035
0.00354549
0.00351108
0.00347702
0.00344327
0.00340981
0.00337664
0.00334377
0.00331121
0.00327896
0.00324701
0.00321536
0.00318399
0.0031529
0.00312206
0.00309147
0.00306112
0.003031
0.00300111
0.00297145
0.00294203
0.00291286
0.00288392
0.00285521
0.00282675
0.00279856
0.00277063
0.00274295
0.00271552
0.00268842
0.00266169
0.00263538
0.00260975
0.00258486
0.00256106
0.0025385
0.00251743
0.00249804
0.00248041
0.00246427
0.00244963
0.00243654
0.0024249
0.00241389
0.00240384
0.00239483
0.00238655
0.00237888
0.00237182
0.00236521
0.00235881
0.00235227
0.00234474
0.00233474
0.00232022
0.00229814
0.00226525
0.00221873
0.00215662
0.00207782
0.00198311
0.00187832
0.00175241
0.00159799
0.000155161
0.000360406
0.000545348
0.000684388
0.00078068
0.000843782
0.000882379
0.000902181
0.000910543
0.000913919
0.000917701
0.000925852
0.000940818
0.000963796
0.000996306
0.00103726
0.00108836
0.00114732
0.00121406
0.00128775
0.00136696
0.00145157
0.00154073
0.00163395
0.00172886
0.00182445
0.0019201
0.0020154
0.00210998
0.00220347
0.00229546
0.00238567
0.00247393
0.00256012
0.00264409
0.00272575
0.00280503
0.00288186
0.0029562
0.00302805
0.00309739
0.00316426
0.00322866
0.00329064
0.00335024
0.00340753
0.00346256
0.00351538
0.00356608
0.00361472
0.00366137
0.00370612
0.00374903
0.00379019
0.00382968
0.00386758
0.00390398
0.00393897
0.00397264
0.00400508
0.00403639
0.00406667
0.00409603
0.00412456
0.00415238
0.00417959
0.00420629
0.00423259
0.00425858
0.00428435
0.00430996
0.00433545
0.00436084
0.00438611
0.00441124
0.00443616
0.00446077
0.00448494
0.00450849
0.00453124
0.00455301
0.00457354
0.00459259
0.00460987
0.00462513
0.00463813
0.00464974
0.0046557
0.0046623
0.00466456
0.00466318
0.00465826
0.00464983
0.00463794
0.00462267
0.00460416
0.00458259
0.00455817
0.00453115
0.0045018
0.0044704
0.00443722
0.00440254
0.00436664
0.00432979
0.00429224
0.00425424
0.00421599
0.00417768
0.00413947
0.00410149
0.00406384
0.00402658
0.00398979
0.00395349
0.00391771
0.00388244
0.00384767
0.00381336
0.00377944
0.00374588
0.00371263
0.00367966
0.00364697
0.00361453
0.00358234
0.00355038
0.00351863
0.00348708
0.00345572
0.00342453
0.00339352
0.00336267
0.00333198
0.00330146
0.00327111
0.00324093
0.00321093
0.00318112
0.00315149
0.00312205
0.00309282
0.00306381
0.00303503
0.00300648
0.00297821
0.00295028
0.00292273
0.00289571
0.00286932
0.00284377
0.00281932
0.00279682
0.00277651
0.00275842
0.00274238
0.00272831
0.00271614
0.00270575
0.00269672
0.00268903
0.00268263
0.00267696
0.00267189
0.0026676
0.00266382
0.00266027
0.00265664
0.00265193
0.00264441
0.00263154
0.00261006
0.00257645
0.00252751
0.00246099
0.00237581
0.00227297
0.00215748
0.00202681
0.00186622
0.000165875
0.000377579
0.000576647
0.000733636
0.000846074
0.000921303
0.000970155
0.000999267
0.00101666
0.00102912
0.0010422
0.00106006
0.00108541
0.0011197
0.00116379
0.00121737
0.00127938
0.00134895
0.00142507
0.00150749
0.00159536
0.00168736
0.00178179
0.00187783
0.00197495
0.00207263
0.00217027
0.00226744
0.0023638
0.00245905
0.00255292
0.00264517
0.00273565
0.0028242
0.0029107
0.00299503
0.0030771
0.00315683
0.00323415
0.00330902
0.00338139
0.00345126
0.0035186
0.00358343
0.00364575
0.00370558
0.00376295
0.00381789
0.00387045
0.00392065
0.00396856
0.00401423
0.0040577
0.00409906
0.00413835
0.00417566
0.00421106
0.00424463
0.00427646
0.00430664
0.00433528
0.00436247
0.00438834
0.004413
0.00443658
0.00445921
0.00448102
0.00450215
0.00452274
0.00454291
0.00456278
0.00458246
0.00460202
0.00462153
0.00464103
0.00466051
0.00467996
0.00469931
0.00471845
0.00473726
0.00475556
0.00477315
0.00478979
0.00480521
0.00481914
0.00483127
0.004842
0.00484966
0.00485582
0.00485886
0.00485867
0.00485516
0.0048483
0.00483806
0.00482449
0.00480769
0.00478781
0.00476504
0.00473961
0.00471179
0.00468185
0.00465007
0.00461672
0.00458208
0.00454642
0.00451001
0.0044731
0.00443592
0.00439866
0.00436149
0.00432454
0.00428791
0.00425166
0.00421585
0.00418052
0.00414566
0.0041113
0.00407742
0.00404398
0.00401095
0.00397827
0.00394591
0.00391382
0.00388198
0.00385034
0.00381888
0.00378758
0.00375642
0.00372537
0.00369443
0.00366357
0.00363281
0.00360214
0.00357156
0.00354108
0.0035107
0.00348045
0.00345032
0.00342032
0.00339046
0.00336076
0.00333122
0.00330186
0.00327271
0.00324378
0.00321511
0.00318675
0.00315877
0.00313125
0.0031043
0.0030781
0.00305288
0.00302923
0.0030083
0.00299
0.00297416
0.0029606
0.00294921
0.00293984
0.00293222
0.00292621
0.00292171
0.00291839
0.00291607
0.00291473
0.00291384
0.00291312
0.00291238
0.00291038
0.00290523
0.0028939
0.00287289
0.00283851
0.00278739
0.00271714
0.00262669
0.0025173
0.00239293
0.00225659
0.00209184
0.000156087
0.000328895
0.00053859
0.000730436
0.000877621
0.000977792
0.00104326
0.00108727
0.00111764
0.00114215
0.0011667
0.00119552
0.00123133
0.00127617
0.00132977
0.00139159
0.00146084
0.00153723
0.00162001
0.00170755
0.00179864
0.00189242
0.00198823
0.00208536
0.00218326
0.00228149
0.00237959
0.00247722
0.00257408
0.00266993
0.00276453
0.00285769
0.00294926
0.00303908
0.00312703
0.00321298
0.00329681
0.00337844
0.00345777
0.00353472
0.00360923
0.00368124
0.00375072
0.00381764
0.00388198
0.00394371
0.00400283
0.00405936
0.00411328
0.00416463
0.00421342
0.00425968
0.00430345
0.00434476
0.00438367
0.00442022
0.00445447
0.00448651
0.00451639
0.00454421
0.00457006
0.00459405
0.0046163
0.00463692
0.00465607
0.00467389
0.00469054
0.00470619
0.00472102
0.00473519
0.0047489
0.0047623
0.00477555
0.00478879
0.00480214
0.00481567
0.00482945
0.00484349
0.00485775
0.00487218
0.00488664
0.00490099
0.00491501
0.00492844
0.00494102
0.00495244
0.00496236
0.00497149
0.00497773
0.0049822
0.00498371
0.00498221
0.00497754
0.00496963
0.00495843
0.004944
0.00492644
0.00490593
0.00488268
0.00485695
0.00482903
0.00479917
0.00476765
0.00473474
0.00470072
0.00466589
0.00463051
0.00459482
0.00455904
0.00452334
0.00448787
0.00445272
0.00441796
0.00438362
0.00434972
0.00431629
0.00428332
0.00425081
0.00421874
0.00418706
0.00415573
0.00412471
0.00409396
0.00406341
0.00403303
0.00400278
0.00397262
0.00394253
0.00391247
0.00388242
0.00385239
0.00382237
0.00379236
0.00376238
0.00373243
0.00370254
0.00367271
0.00364296
0.0036133
0.00358374
0.0035543
0.00352499
0.00349585
0.00346689
0.00343815
0.00340967
0.00338149
0.00335368
0.00332634
0.00329955
0.00327348
0.00324837
0.00322468
0.00320359
0.0031855
0.00317009
0.00315715
0.00314653
0.00313807
0.00313157
0.00312685
0.00312376
0.00312206
0.00312157
0.00312217
0.00312355
0.00312542
0.00312741
0.00312783
0.00312471
0.00311448
0.00309346
0.00305792
0.00300447
0.00293072
0.00283563
0.0027208
0.0025891
0.00244786
0.00227955
1.61154e-05
0.000113552
0.00034009
0.00061571
0.000845342
0.000999585
0.00109633
0.00115982
0.00120678
0.00124537
0.00128247
0.00132253
0.0013683
0.00142149
0.00148199
0.00154954
0.00162348
0.00170354
0.00178866
0.00187786
0.00196984
0.00206398
0.00215973
0.00225657
0.00235405
0.00245178
0.0025494
0.00264659
0.0027431
0.00283872
0.00293324
0.0030265
0.00311835
0.00320864
0.00329724
0.00338403
0.00346889
0.0035517
0.00363235
0.00371073
0.00378674
0.00386033
0.0039314
0.00399993
0.00406584
0.00412909
0.00418965
0.00424749
0.00430258
0.00435492
0.0044045
0.00445132
0.00449538
0.00453671
0.00457533
0.00461126
0.00464454
0.00467524
0.00470339
0.00472908
0.00475238
0.0047734
0.00479224
0.00480904
0.00482393
0.00483708
0.00484867
0.00485888
0.00486793
0.00487604
0.00488345
0.00489037
0.00489704
0.00490368
0.00491048
0.00491762
0.00492523
0.00493343
0.00494228
0.00495178
0.0049619
0.00497254
0.00498351
0.0049946
0.00500556
0.0050161
0.00502585
0.00503521
0.00504252
0.00504842
0.00505201
0.00505299
0.00505108
0.00504607
0.00503785
0.0050264
0.00501176
0.00499406
0.0049735
0.00495037
0.00492498
0.00489756
0.00486835
0.00483762
0.00480564
0.00477274
0.00473921
0.00470532
0.00467131
0.00463738
0.00460368
0.00457033
0.00453736
0.0045048
0.00447267
0.00444098
0.00440973
0.00437892
0.00434853
0.00431852
0.00428887
0.00425952
0.00423043
0.00420152
0.00417275
0.00414406
0.00411541
0.00408675
0.00405805
0.00402929
0.00400046
0.00397156
0.0039426
0.0039136
0.00388457
0.00385555
0.00382654
0.00379757
0.00376866
0.00373982
0.00371107
0.00368243
0.00365394
0.00362564
0.00359755
0.00356974
0.00354224
0.00351513
0.0034885
0.00346246
0.00343716
0.00341285
0.00338996
0.00336959
0.00335225
0.00333762
0.0033255
0.00331574
0.00330819
0.00330265
0.00329897
0.00329696
0.00329641
0.00329713
0.00329896
0.00330164
0.00330487
0.00330824
0.00331057
0.0033091
0.00329927
0.00327747
0.00324012
0.00318392
0.00310659
0.00300719
0.00288765
0.00275006
0.00260442
0.00243424
1.64e-05
0.000108777
0.000326868
0.000604416
0.000847831
0.00102229
0.00113687
0.00121823
0.00127965
0.00133164
0.00138079
0.00143145
0.00148641
0.00154678
0.00161272
0.00168415
0.00176086
0.00184257
0.00192836
0.00201748
0.00210889
0.00220218
0.00229686
0.00239249
0.00248871
0.00258517
0.00268159
0.00277765
0.00287314
0.00296788
0.00306169
0.00315443
0.00324593
0.00333606
0.00342467
0.00351168
0.00359699
0.0036805
0.00376199
0.00384131
0.00391837
0.00399309
0.00406538
0.00413517
0.00420238
0.00426694
0.00432877
0.00438782
0.00444402
0.00449736
0.00454778
0.00459527
0.00463981
0.00468138
0.00471997
0.0047556
0.00478827
0.00481801
0.00484485
0.00486884
0.00489004
0.00490854
0.00492443
0.00493783
0.00494887
0.00495772
0.00496456
0.00496961
0.00497308
0.00497525
0.00497639
0.00497678
0.00497673
0.00497651
0.00497642
0.00497673
0.00497767
0.00497945
0.00498223
0.00498612
0.00499121
0.00499752
0.00500479
0.00501293
0.00502175
0.00503097
0.00504028
0.00504953
0.00505819
0.00506543
0.00507138
0.00507526
0.0050766
0.00507507
0.00507045
0.00506262
0.00505154
0.00503725
0.00501989
0.00499989
0.00497768
0.00495331
0.004927
0.00489895
0.00486944
0.00483884
0.00480749
0.00477568
0.0047437
0.00471174
0.00468008
0.00464878
0.00461788
0.00458738
0.00455726
0.00452756
0.00449826
0.0044694
0.00444093
0.00441285
0.00438512
0.00435769
0.00433052
0.00430353
0.00427665
0.00424982
0.00422297
0.00419606
0.00416904
0.00414188
0.00411457
0.0040871
0.0040595
0.00403179
0.00400401
0.00397618
0.00394833
0.00392048
0.00389266
0.00386489
0.0038372
0.00380961
0.00378216
0.0037549
0.00372787
0.00370114
0.00367475
0.00364879
0.00362336
0.00359857
0.0035746
0.0035517
0.00353035
0.00351153
0.00349548
0.00348201
0.00347096
0.00346221
0.00345561
0.00345101
0.00344821
0.00344706
0.00344733
0.00344881
0.00345132
0.00345458
0.00345828
0.00346194
0.00346452
0.00346349
0.0034531
0.00342953
0.00338953
0.00332999
0.00324882
0.00314523
0.00302147
0.00287929
0.00272977
0.00255909
0.000138249
0.000263964
0.000473303
0.000702105
0.00090111
0.00105426
0.00117007
0.00125911
0.00133242
0.00139699
0.00145779
0.00151851
0.00158127
0.00164721
0.001717
0.00179087
0.00186882
0.00195053
0.00203551
0.00212324
0.00221307
0.0023045
0.00239713
0.00249065
0.00258475
0.00267919
0.00277371
0.00286808
0.00296212
0.00305566
0.00314855
0.00324065
0.00333184
0.00342176
0.00351033
0.00359762
0.00368348
0.00376772
0.00384964
0.00392946
0.00400715
0.00408263
0.00415581
0.0042266
0.00429492
0.00436067
0.00442368
0.00448388
0.00454122
0.0045956
0.00464699
0.00469534
0.00474058
0.00478268
0.0048216
0.00485733
0.00488983
0.00491909
0.00494513
0.00496797
0.00498763
0.00500419
0.0050177
0.00502826
0.00503601
0.00504107
0.00504364
0.00504393
0.00504218
0.00503867
0.00503371
0.00502763
0.0050208
0.00501357
0.00500632