/*--------------------------------*- C++ -*----------------------------------*\
  =========                 |
  \\      /  F ield         | OpenFOAM: The Open Source CFD Toolbox
   \\    /   O peration     | Website:  https://openfoam.org
    \\  /    A nd           | Version:  8
     \\/     M anipulation  |
\*---------------------------------------------------------------------------*/
FoamFile
{
    version     2.0;
    format      ascii;
    class       surfaceScalarField;
    location    "60";
    object      phi;
}
// * * * * * * * * * * * * * * * * * * * * * * * * * * * * * * * * * * * * * //

dimensions      [0 3 -1 0 0 0 0];

internalField   nonuniform List<scalar> 
24170
(
3.1289e-06
5.95082e-08
3.04627e-06
8.2628e-08
2.97274e-06
7.35147e-08
2.9035e-06
6.92174e-08
2.83838e-06
6.51318e-08
2.78006e-06
5.83082e-08
2.72956e-06
5.04893e-08
2.68619e-06
4.33454e-08
2.64885e-06
3.73475e-08
2.61642e-06
3.24079e-08
2.58789e-06
2.85218e-08
2.56227e-06
2.55987e-08
2.53873e-06
2.35321e-08
2.51635e-06
2.23625e-08
2.49431e-06
2.20328e-08
2.46988e-06
2.44131e-08
2.44266e-06
2.71986e-08
5.10313e-08
2.3916e-06
3.45304e-06
2.37135e-08
3.45691e-06
7.87772e-08
3.45026e-06
8.01612e-08
3.4385e-06
8.09822e-08
3.42331e-06
8.03257e-08
3.40551e-06
7.61096e-08
3.38558e-06
7.04254e-08
3.36414e-06
6.47798e-08
3.3419e-06
5.95936e-08
3.31939e-06
5.49082e-08
3.29708e-06
5.0832e-08
3.27517e-06
4.75017e-08
3.2538e-06
4.48938e-08
3.23291e-06
4.32429e-08
3.21253e-06
4.2402e-08
3.19238e-06
4.4548e-08
3.17299e-06
4.65514e-08
6.39058e-08
3.16009e-06
3.66812e-06
1.8112e-08
3.67901e-06
6.78752e-08
3.68499e-06
7.41782e-08
3.68866e-06
7.72906e-08
3.6898e-06
7.91898e-08
3.68824e-06
7.76553e-08
3.68437e-06
7.42896e-08
3.67862e-06
7.05114e-08
3.67138e-06
6.68284e-08
3.66294e-06
6.33445e-08
3.65353e-06
6.02419e-08
3.64332e-06
5.76958e-08
3.63245e-06
5.57619e-08
3.62097e-06
5.47162e-08
3.6088e-06
5.45743e-08
3.59646e-06
5.68877e-08
3.58277e-06
6.02295e-08
7.13535e-08
3.57534e-06
3.92579e-06
1.77148e-08
3.93568e-06
5.79952e-08
3.94203e-06
6.78246e-08
3.94716e-06
7.21672e-08
3.95106e-06
7.52995e-08
3.95335e-06
7.53668e-08
3.95421e-06
7.34278e-08
3.95387e-06
7.08458e-08
3.95252e-06
6.81804e-08
3.95026e-06
6.5606e-08
3.94719e-06
6.33108e-08
3.94338e-06
6.15006e-08
3.93887e-06
6.02653e-08
3.93371e-06
5.98687e-08
3.92785e-06
6.04274e-08
3.92183e-06
6.28988e-08
3.91526e-06
6.67953e-08
7.45081e-08
3.91209e-06
4.20812e-06
1.67227e-08
4.21571e-06
5.03952e-08
4.22109e-06
6.2439e-08
4.22574e-06
6.75027e-08
4.22992e-06
7.11205e-08
4.23317e-06
7.21085e-08
4.23547e-06
7.11247e-08
4.23692e-06
6.93865e-08
4.23761e-06
6.74868e-08
4.23759e-06
6.5619e-08
4.23692e-06
6.39798e-08
4.23565e-06
6.27693e-08
4.2338e-06
6.21108e-08
4.23145e-06
6.22261e-08
4.22861e-06
6.32647e-08
4.22575e-06
6.57732e-08
4.22296e-06
6.95856e-08
7.52077e-08
4.22228e-06
4.51062e-06
1.51887e-08
4.51659e-06
4.44352e-08
4.52149e-06
5.75428e-08
4.52582e-06
6.31755e-08
4.52992e-06
6.70237e-08
4.5334e-06
6.86257e-08
4.53616e-06
6.83696e-08
4.53824e-06
6.73049e-08
4.5397e-06
6.60192e-08
4.54058e-06
6.47395e-08
4.54091e-06
6.36508e-08
4.54073e-06
6.29469e-08
4.54007e-06
6.27606e-08
4.53902e-06
6.32718e-08
4.53767e-06
6.46112e-08
4.53638e-06
6.70667e-08
4.53544e-06
7.05282e-08
7.48125e-08
4.53582e-06
4.83424e-06
1.3667e-08
4.83932e-06
3.93511e-08
4.84407e-06
5.27822e-08
4.84826e-06
5.89737e-08
4.85225e-06
6.30396e-08
4.85576e-06
6.51101e-08
4.85867e-06
6.54548e-08
4.86101e-06
6.4962e-08
4.86282e-06
6.42073e-08
4.86412e-06
6.34367e-08
4.86495e-06
6.28272e-08
4.86534e-06
6.25576e-08
4.86533e-06
6.27604e-08
4.86503e-06
6.35738e-08
4.86456e-06
6.50921e-08
4.86419e-06
6.74403e-08
4.86421e-06
7.04987e-08
7.39454e-08
4.86512e-06
5.18095e-06
1.2293e-08
5.18543e-06
3.48807e-08
5.19005e-06
4.81654e-08
5.19417e-06
5.4853e-08
5.19808e-06
5.91384e-08
5.2016e-06
6.1587e-08
5.20461e-06
6.24538e-08
5.20709e-06
6.24723e-08
5.20911e-06
6.21936e-08
5.21067e-06
6.18725e-08
5.21181e-06
6.16864e-08
5.21257e-06
6.17934e-08
5.21301e-06
6.23173e-08
5.21323e-06
6.33563e-08
5.21336e-06
6.49695e-08
5.21362e-06
6.71829e-08
5.21424e-06
6.98911e-08
7.26836e-08
5.2155e-06
5.5526e-06
1.10333e-08
5.55656e-06
3.09143e-08
5.56098e-06
4.37432e-08
5.56504e-06
5.07825e-08
5.56891e-06
5.52742e-08
5.57246e-06
5.80368e-08
5.57555e-06
5.93607e-08
5.57817e-06
5.98517e-08
5.58036e-06
6.00103e-08
5.58213e-06
6.00983e-08
5.58353e-06
6.02887e-08
5.5846e-06
6.0724e-08
5.58541e-06
6.15124e-08
5.58605e-06
6.27188e-08
5.58665e-06
6.43712e-08
5.5874e-06
6.64481e-08
5.58846e-06
6.88278e-08
7.11908e-08
5.59e-06
5.95094e-06
9.86801e-09
5.95445e-06
2.74071e-08
5.95864e-06
3.95684e-08
5.96264e-06
4.67831e-08
5.96649e-06
5.14372e-08
5.97007e-06
5.44548e-08
5.97326e-06
5.61746e-08
5.97602e-06
5.70974e-08
5.97838e-06
5.76539e-08
5.98037e-06
5.81095e-08
5.98202e-06
5.86309e-08
5.98339e-06
5.93553e-08
5.98454e-06
6.03587e-08
5.98557e-06
6.1689e-08
5.9866e-06
6.33453e-08
5.98776e-06
6.5285e-08
5.98919e-06
6.74174e-08
6.94249e-08
5.99096e-06
6.37789e-06
8.79485e-09
6.38102e-06
2.42775e-08
6.38495e-06
3.56304e-08
6.38889e-06
4.28474e-08
6.39272e-06
4.76127e-08
6.39635e-06
5.08299e-08
6.39964e-06
5.28839e-08
6.40255e-06
5.41874e-08
6.4051e-06
5.51064e-08
6.40732e-06
5.58865e-08
6.40925e-06
5.67036e-08
6.41093e-06
5.76641e-08
6.41243e-06
5.88518e-08
6.41385e-06
6.02647e-08
6.41528e-06
6.19103e-08
6.41684e-06
6.37291e-08
6.41861e-06
6.56392e-08
6.7425e-08
6.42063e-06
5.74168e-06
7.9525e-09
5.74406e-06
2.18905e-08
5.74721e-06
3.24867e-08
5.75049e-06
3.9576e-08
5.75371e-06
4.43891e-08
5.75681e-06
4.77325e-08
5.75968e-06
5.00145e-08
5.76228e-06
5.15923e-08
5.7646e-06
5.27832e-08
5.76667e-06
5.38132e-08
5.76852e-06
5.48349e-08
5.7702e-06
5.59904e-08
5.77176e-06
5.72802e-08
5.77327e-06
5.87647e-08
5.7748e-06
6.03816e-08
5.77641e-06
6.21173e-08
5.77819e-06
6.38913e-08
6.55037e-08
5.78012e-06
6.99904e-06
7.06423e-09
7.00157e-06
1.93701e-08
7.00498e-06
2.90715e-08
7.00865e-06
3.59074e-08
7.01235e-06
4.0695e-08
7.01595e-06
4.41308e-08
7.01935e-06
4.66098e-08
7.02249e-06
4.84527e-08
7.02535e-06
4.99097e-08
7.02797e-06
5.1177e-08
7.03038e-06
5.24347e-08
7.03262e-06
5.37369e-08
7.03477e-06
5.5164e-08
7.03685e-06
5.66758e-08
7.03897e-06
5.8285e-08
7.04118e-06
5.99247e-08
7.04353e-06
6.15627e-08
6.30297e-08
7.04603e-06
8.53178e-06
6.13494e-09
8.53441e-06
1.67243e-08
8.53808e-06
2.5409e-08
8.54217e-06
3.18185e-08
8.54637e-06
3.6494e-08
8.55055e-06
3.99481e-08
8.55458e-06
4.2581e-08
8.55839e-06
4.4642e-08
8.56194e-06
4.63456e-08
8.56528e-06
4.78518e-08
8.56842e-06
4.92941e-08
8.57142e-06
5.07593e-08
8.57432e-06
5.22729e-08
8.5772e-06
5.38258e-08
8.58009e-06
5.5399e-08
8.58309e-06
5.69562e-08
8.5862e-06
5.84702e-08
5.98037e-08
8.58946e-06
1.04002e-05
5.16706e-09
1.04029e-05
1.39753e-08
1.04069e-05
2.14848e-08
1.04114e-05
2.72935e-08
1.04162e-05
3.17039e-08
1.0421e-05
3.51059e-08
1.04258e-05
3.77895e-08
1.04305e-05
4.00135e-08
1.04349e-05
4.19066e-08
1.04392e-05
4.36104e-08
1.04433e-05
4.52065e-08
1.04473e-05
4.67943e-08
1.04512e-05
4.83623e-08
1.04551e-05
4.99393e-08
1.0459e-05
5.14675e-08
1.0463e-05
5.29509e-08
1.04672e-05
5.43478e-08
5.55711e-08
1.04714e-05
1.26778e-05
4.15272e-09
1.26807e-05
1.10831e-08
1.26849e-05
1.72721e-08
1.269e-05
2.22533e-08
1.26955e-05
2.623e-08
1.27011e-05
2.94243e-08
1.27069e-05
3.20639e-08
1.27126e-05
3.43244e-08
1.27182e-05
3.63374e-08
1.27236e-05
3.8158e-08
1.2729e-05
3.98707e-08
1.27343e-05
4.15084e-08
1.27395e-05
4.31225e-08
1.27448e-05
4.4678e-08
1.27501e-05
4.61772e-08
1.27554e-05
4.75766e-08
1.27609e-05
4.88876e-08
5.00081e-08
1.27664e-05
1.54543e-05
3.05962e-09
1.54574e-05
7.97551e-09
1.54621e-05
1.26195e-08
1.54678e-05
1.65457e-08
1.54742e-05
1.98472e-08
1.5481e-05
2.26563e-08
1.54879e-05
2.50887e-08
1.5495e-05
2.72627e-08
1.55021e-05
2.92634e-08
1.55091e-05
3.11227e-08
1.55161e-05
3.28686e-08
1.55231e-05
3.45321e-08
1.55301e-05
3.61342e-08
1.55371e-05
3.76677e-08
1.55442e-05
3.91153e-08
1.55513e-05
4.04537e-08
1.55585e-05
4.16837e-08
4.27359e-08
1.55657e-05
1.88389e-05
1.8203e-09
1.88424e-05
4.44737e-09
1.88478e-05
7.24448e-09
1.88545e-05
9.8158e-09
1.88622e-05
1.21728e-08
1.88705e-05
1.43599e-08
1.88792e-05
1.64045e-08
1.88881e-05
1.83374e-08
1.88972e-05
2.01946e-08
1.89064e-05
2.19819e-08
1.89155e-05
2.36972e-08
1.89247e-05
2.53399e-08
1.89339e-05
2.69119e-08
1.89432e-05
2.84055e-08
1.89525e-05
2.98065e-08
1.89618e-05
3.11007e-08
1.89712e-05
3.22838e-08
3.33042e-08
1.89807e-05
2.29649e-05
2.66789e-10
2.29692e-05
1.11078e-10
2.29759e-05
5.75801e-10
2.29843e-05
1.38388e-09
2.2994e-05
2.47499e-09
2.30046e-05
3.78654e-09
2.30157e-05
5.24742e-09
2.30273e-05
6.79526e-09
2.30391e-05
8.39541e-09
2.3051e-05
1.00232e-08
2.30631e-05
1.16558e-08
2.30752e-05
1.32526e-08
2.30872e-05
1.47909e-08
2.30994e-05
1.6248e-08
2.31116e-05
1.76207e-08
2.31238e-05
1.88962e-08
2.31359e-05
2.00739e-08
2.11102e-08
2.31482e-05
1.6812e-05
-1.00894e-09
1.68155e-05
-3.39287e-09
1.68209e-05
-4.81485e-09
1.68276e-05
-5.40095e-09
1.68354e-05
-5.26004e-09
1.68437e-05
-4.58416e-09
1.68525e-05
-3.54868e-09
1.68616e-05
-2.26353e-09
1.68708e-05
-8.38656e-10
1.68801e-05
6.96259e-10
1.68895e-05
2.27018e-09
1.68989e-05
3.85904e-09
1.69083e-05
5.38844e-09
1.69177e-05
6.86298e-09
1.69271e-05
8.2446e-09
1.69364e-05
9.55477e-09
1.69457e-05
1.07654e-08
1.18611e-08
1.6955e-05
1.46358e-05
-2.25073e-09
1.46393e-05
-6.849e-09
1.46446e-05
-1.0142e-08
1.46512e-05
-1.19996e-08
1.46585e-05
-1.26439e-08
1.46664e-05
-1.24934e-08
1.46747e-05
-1.17868e-08
1.46831e-05
-1.06944e-08
1.46916e-05
-9.35058e-09
1.47001e-05
-7.86156e-09
1.47087e-05
-6.28008e-09
1.47172e-05
-4.68822e-09
1.47258e-05
-3.12234e-09
1.47342e-05
-1.62693e-09
1.47427e-05
-1.94862e-10
1.47511e-05
1.15298e-09
1.47594e-05
2.42301e-09
3.57392e-09
1.47677e-05
1.27413e-05
-3.42065e-09
1.27448e-05
-1.03429e-08
1.27502e-05
-1.55875e-08
1.27567e-05
-1.84976e-08
1.27638e-05
-1.97095e-08
1.27712e-05
-1.99645e-08
1.2779e-05
-1.95016e-08
1.27868e-05
-1.85008e-08
1.27946e-05
-1.71697e-08
1.28023e-05
-1.56484e-08
1.28101e-05
-1.40269e-08
1.28178e-05
-1.2382e-08
1.28254e-05
-1.0767e-08
1.2833e-05
-9.21245e-09
1.28405e-05
-7.72251e-09
1.2848e-05
-6.30921e-09
1.28553e-05
-4.97576e-09
-3.7524e-09
1.28627e-05
1.10919e-05
-4.41556e-09
1.10955e-05
-1.39107e-08
1.11012e-05
-2.12955e-08
1.11076e-05
-2.49434e-08
1.11144e-05
-2.64821e-08
1.11215e-05
-2.70093e-08
1.11286e-05
-2.66674e-08
1.11358e-05
-2.56584e-08
1.11429e-05
-2.42739e-08
1.11499e-05
-2.26848e-08
1.11568e-05
-2.09901e-08
1.11637e-05
-1.92675e-08
1.11705e-05
-1.75811e-08
1.11773e-05
-1.59503e-08
1.11839e-05
-1.43899e-08
1.11905e-05
-1.28991e-08
1.1197e-05
-1.14914e-08
-1.01876e-08
1.12034e-05
9.65596e-06
-5.16463e-09
9.65971e-06
-1.76584e-08
9.66559e-06
-2.71716e-08
9.67183e-06
-3.11885e-08
9.67834e-06
-3.29956e-08
9.68504e-06
-3.37142e-08
9.69169e-06
-3.33222e-08
9.69822e-06
-3.21839e-08
9.70462e-06
-3.06844e-08
9.71093e-06
-2.89935e-08
9.71713e-06
-2.71969e-08
9.72324e-06
-2.53793e-08
9.72926e-06
-2.3603e-08
9.73519e-06
-2.18883e-08
9.74104e-06
-2.02428e-08
9.7468e-06
-1.86695e-08
9.75248e-06
-1.71766e-08
-1.57828e-08
9.75807e-06
8.40545e-06
-5.25876e-09
8.41007e-06
-2.22804e-08
8.41579e-06
-3.28966e-08
8.42149e-06
-3.68841e-08
8.42769e-06
-3.92051e-08
8.43412e-06
-4.01371e-08
8.44039e-06
-3.95922e-08
8.44643e-06
-3.82313e-08
8.45229e-06
-3.65428e-08
8.45797e-06
-3.46777e-08
8.46348e-06
-3.27149e-08
8.46885e-06
-3.07437e-08
8.47407e-06
-2.88289e-08
8.47918e-06
-2.69943e-08
8.48417e-06
-2.52367e-08
8.48905e-06
-2.35601e-08
8.49384e-06
-2.19651e-08
-2.04775e-08
8.49853e-06
7.31465e-06
-2.62827e-09
7.32156e-06
-2.91893e-08
7.32757e-06
-3.88986e-08
7.33312e-06
-4.24384e-08
7.33925e-06
-4.53407e-08
7.34546e-06
-4.63427e-08
7.35135e-06
-4.54919e-08
7.35693e-06
-4.38065e-08
7.3622e-06
-4.18195e-08
7.36718e-06
-3.96582e-08
7.37188e-06
-3.74137e-08
7.37632e-06
-3.51805e-08
7.38053e-06
-3.30416e-08
7.38455e-06
-3.10081e-08
7.38839e-06
-2.90798e-08
7.39208e-06
-2.72507e-08
7.39564e-06
-2.55282e-08
-2.39259e-08
7.39908e-06
6.36256e-06
4.87852e-09
6.37221e-06
-3.88438e-08
6.38001e-06
-4.66959e-08
6.38717e-06
-4.95943e-08
6.3941e-06
-5.22706e-08
6.40017e-06
-5.2417e-08
6.40534e-06
-5.06625e-08
6.40981e-06
-4.82763e-08
6.41371e-06
-4.57231e-08
6.41711e-06
-4.30624e-08
6.42007e-06
-4.03683e-08
6.42265e-06
-3.77563e-08
6.42489e-06
-3.52861e-08
6.42686e-06
-3.29783e-08
6.42861e-06
-3.08248e-08
6.43017e-06
-2.8813e-08
6.4316e-06
-2.69565e-08
-2.52359e-08
6.43292e-06
5.54128e-06
9.06351e-09
5.55058e-06
-4.81478e-08
5.55888e-06
-5.49889e-08
5.56699e-06
-5.77035e-08
5.57397e-06
-5.92482e-08
5.57891e-06
-5.73677e-08
5.58189e-06
-5.36387e-08
5.58328e-06
-4.9667e-08
5.58345e-06
-4.58966e-08
5.58269e-06
-4.23005e-08
5.58123e-06
-3.89035e-08
5.57924e-06
-3.57676e-08
5.57687e-06
-3.29156e-08
5.57422e-06
-3.03339e-08
5.5714e-06
-2.80024e-08
5.56849e-06
-2.59017e-08
5.56558e-06
-2.40325e-08
-2.23532e-08
5.5627e-06
4.86004e-06
-2.33669e-08
4.86549e-06
-5.35985e-08
4.86553e-06
-5.50229e-08
4.86274e-06
-5.49121e-08
4.85794e-06
-5.44523e-08
4.85092e-06
-5.03515e-08
4.84181e-06
-4.45344e-08
4.83111e-06
-3.89646e-08
4.81932e-06
-3.41129e-08
4.80694e-06
-2.99142e-08
4.79434e-06
-2.63016e-08
4.78179e-06
-2.32238e-08
4.76949e-06
-2.06097e-08
4.75754e-06
-1.83903e-08
4.74605e-06
-1.65061e-08
4.73507e-06
-1.4922e-08
4.72472e-06
-1.36773e-08
-1.3303e-08
4.71568e-06
4.17931e-06
4.12571e-06
4.07069e-06
4.01578e-06
3.96132e-06
3.91097e-06
3.86644e-06
3.82747e-06
3.79336e-06
3.76345e-06
3.73714e-06
3.71392e-06
3.69331e-06
3.67492e-06
3.65842e-06
3.64349e-06
3.62982e-06
3.61652e-06
7.47779e-08
-7.4914e-08
1.77757e-07
-1.0325e-07
2.78335e-07
-1.00488e-07
3.80353e-07
-1.02357e-07
4.81906e-07
-1.01367e-07
5.68662e-07
-8.72675e-08
6.40191e-07
-7.12383e-08
6.92893e-07
-5.3161e-08
7.17227e-07
-2.40454e-08
7.21889e-07
-5.10594e-09
7.14294e-07
7.87728e-09
6.86709e-07
2.70312e-08
6.48273e-07
3.88095e-08
6.01773e-07
4.57796e-08
5.54134e-07
4.81339e-08
5.05294e-07
4.78161e-08
4.59201e-07
4.67341e-08
4.11751e-07
4.60484e-08
3.63564e-07
4.88366e-08
3.05015e-07
5.69291e-08
2.37465e-07
6.83304e-08
1.54678e-07
8.11407e-08
5.96715e-08
9.58761e-08
-5.44267e-08
1.12826e-07
-1.86641e-07
1.33119e-07
-3.39938e-07
1.52535e-07
-5.08005e-07
1.689e-07
-6.89872e-07
1.81322e-07
-8.79108e-07
1.89931e-07
-1.07444e-06
1.94867e-07
-1.27039e-06
1.96657e-07
-1.46645e-06
1.95641e-07
-1.65821e-06
1.92426e-07
-1.84599e-06
1.87391e-07
-2.02637e-06
1.81156e-07
-2.20077e-06
1.7406e-07
-2.36665e-06
1.66615e-07
-2.52598e-06
1.58996e-07
-2.67689e-06
1.51562e-07
-2.8216e-06
1.44347e-07
-2.95863e-06
1.37589e-07
-3.09022e-06
1.31223e-07
-3.21513e-06
1.25401e-07
-3.33547e-06
1.19999e-07
-3.45009e-06
1.15117e-07
-3.56099e-06
1.10599e-07
-3.66704e-06
1.06526e-07
-3.77006e-06
1.02733e-07
-3.86889e-06
9.92778e-08
-3.96521e-06
9.59951e-08
-4.0578e-06
9.29564e-08
-4.14819e-06
8.99894e-08
-4.23509e-06
8.71614e-08
-4.3198e-06
8.43246e-08
-4.40103e-06
8.15396e-08
-4.48003e-06
7.86309e-08
-4.55543e-06
7.56676e-08
-4.62829e-06
7.24985e-08
-4.69715e-06
6.91949e-08
-4.76308e-06
6.55731e-08
-4.82453e-06
6.17287e-08
-4.88233e-06
5.74952e-08
-4.9349e-06
5.29497e-08
-4.98302e-06
4.7898e-08
-5.02504e-06
4.24228e-08
-5.06159e-06
3.63274e-08
-5.09097e-06
2.97293e-08
-5.11372e-06
2.24943e-08
-5.12832e-06
1.48924e-08
-5.13556e-06
7.01014e-09
-5.13482e-06
-4.69357e-10
-5.12746e-06
-7.56315e-09
-5.11265e-06
-1.45615e-08
-5.09113e-06
-2.17737e-08
-5.06185e-06
-2.91161e-08
-5.02556e-06
-3.66983e-08
-4.98125e-06
-4.43044e-08
-4.92957e-06
-5.2124e-08
-4.8695e-06
-6.00259e-08
-4.80186e-06
-6.79884e-08
-4.72599e-06
-7.58359e-08
-4.64256e-06
-8.36418e-08
-4.55137e-06
-9.11426e-08
-4.45267e-06
-9.87375e-08
-4.34703e-06
-1.05594e-07
-4.23483e-06
-1.12114e-07
-4.11637e-06
-1.18489e-07
-3.99168e-06
-1.24804e-07
-3.86171e-06
-1.30307e-07
-3.72754e-06
-1.3516e-07
-3.5887e-06
-1.3987e-07
-3.44647e-06
-1.43415e-07
-3.30109e-06
-1.46449e-07
-3.15339e-06
-1.48806e-07
-3.00384e-06
-1.50459e-07
-2.85331e-06
-1.51471e-07
-2.70228e-06
-1.51793e-07
-2.55157e-06
-1.51547e-07
-2.40154e-06
-1.50698e-07
-2.25299e-06
-1.4935e-07
-2.10615e-06
-1.47479e-07
-1.9616e-06
-1.45142e-07
-1.8195e-06
-1.42406e-07
-1.68022e-06
-1.39258e-07
-1.54408e-06
-1.35912e-07
-1.41126e-06
-1.32285e-07
-1.28208e-06
-1.28655e-07
-1.15655e-06
-1.24859e-07
-1.03486e-06
-1.21186e-07
-9.16864e-07
-1.17421e-07
-8.02717e-07
-1.13787e-07
-6.92247e-07
-1.1008e-07
-5.85553e-07
-1.06532e-07
-4.82458e-07
-1.02944e-07
-3.82979e-07
-9.95219e-08
-2.86935e-07
-9.60599e-08
-1.94171e-07
-9.28661e-08
-1.04494e-07
-8.98132e-08
-1.75816e-08
-8.71876e-08
6.72111e-08
-8.49095e-08
1.4964e-07
-8.22682e-08
2.29271e-07
-7.90236e-08
3.05842e-07
-7.58482e-08
3.79384e-07
-7.27214e-08
4.49753e-07
-6.98411e-08
5.17331e-07
-6.70912e-08
5.82151e-07
-6.46357e-08
6.44642e-07
-6.22698e-08
7.04785e-07
-6.01574e-08
7.62983e-07
-5.81185e-08
8.19118e-07
-5.62547e-08
8.73545e-07
-5.44189e-08
9.26181e-07
-5.28081e-08
9.77377e-07
-5.12393e-08
1.02696e-06
-4.9816e-08
1.07521e-06
-4.83671e-08
1.12196e-06
-4.70749e-08
1.16747e-06
-4.58331e-08
1.21153e-06
-4.475e-08
1.2544e-06
-4.36289e-08
1.29613e-06
-4.25901e-08
1.33705e-06
-4.15871e-08
1.37714e-06
-4.06463e-08
1.41645e-06
-3.9679e-08
1.45487e-06
-3.8752e-08
1.49251e-06
-3.78408e-08
1.52927e-06
-3.69741e-08
1.56528e-06
-3.6114e-08
1.60043e-06
-3.52984e-08
1.6348e-06
-3.44424e-08
1.66831e-06
-3.36412e-08
1.70104e-06
-3.28075e-08
1.73289e-06
-3.19992e-08
1.76397e-06
-3.11812e-08
1.79418e-06
-3.03691e-08
1.8236e-06
-2.95383e-08
1.85227e-06
-2.88482e-08
1.8803e-06
-2.81489e-08
1.90764e-06
-2.75059e-08
1.9344e-06
-2.68622e-08
1.9605e-06
-2.62449e-08
1.98605e-06
-2.56291e-08
2.01091e-06
-2.4971e-08
2.03512e-06
-2.42718e-08
2.05842e-06
-2.33975e-08
2.08067e-06
-2.22842e-08
2.1017e-06
-2.11071e-08
2.12136e-06
-1.96887e-08
2.13936e-06
-1.80604e-08
2.15575e-06
-1.64097e-08
2.17036e-06
-1.46679e-08
2.18305e-06
-1.2696e-08
2.19377e-06
-1.07631e-08
2.20214e-06
-8.35446e-09
2.20653e-06
-4.40745e-09
2.20463e-06
1.90961e-09
2.19346e-06
1.11387e-08
2.17669e-06
1.67662e-08
2.12405e-06
5.26207e-08
1.17315e-07
2.00676e-06
1.1142e-07
-1.86443e-07
2.23434e-07
-2.15453e-07
3.17733e-07
-1.94777e-07
3.85957e-07
-1.70745e-07
4.3184e-07
-1.47209e-07
4.64107e-07
-1.19726e-07
4.83387e-07
-9.04527e-08
4.90071e-07
-6.00555e-08
4.94779e-07
-2.86774e-08
4.88227e-07
1.22448e-09
4.67324e-07
2.88608e-08
4.39672e-07
5.44405e-08
4.0221e-07
7.63871e-08
3.53306e-07
9.43945e-08
2.92627e-07
1.08987e-07
2.18256e-07
1.2183e-07
1.303e-07
1.34916e-07
2.61072e-08
1.49884e-07
-9.43602e-08
1.6947e-07
-2.33133e-07
1.95423e-07
-3.90278e-07
2.2557e-07
-5.66401e-07
2.5712e-07
-7.58294e-07
2.8783e-07
-9.61718e-07
3.16132e-07
-1.16933e-06
3.4082e-07
-1.37723e-06
3.60363e-07
-1.58198e-06
3.73746e-07
-1.78156e-06
3.80805e-07
-1.97345e-06
3.81937e-07
-2.15654e-06
3.77875e-07
-2.32933e-06
3.69586e-07
-2.49187e-06
3.58083e-07
-2.64369e-06
3.44407e-07
-2.78585e-06
3.2947e-07
-2.91847e-06
3.1398e-07
-3.04295e-06
2.98474e-07
-3.15951e-06
2.83378e-07
-3.26953e-06
2.68958e-07
-3.3732e-06
2.5541e-07
-3.47175e-06
2.42808e-07
-3.56521e-06
2.31201e-07
-3.65463e-06
2.20551e-07
-3.73992e-06
2.10826e-07
-3.82193e-06
2.01931e-07
-3.90047e-06
1.93799e-07
-3.97623e-06
1.86317e-07
-4.04896e-06
1.79408e-07
-4.11923e-06
1.72959e-07
-4.18671e-06
1.669e-07
-4.25187e-06
1.61114e-07
-4.31435e-06
1.55538e-07
-4.37454e-06
1.50076e-07
-4.43199e-06
1.4468e-07
-4.48699e-06
1.39252e-07
-4.5391e-06
1.33738e-07
-4.58862e-06
1.28046e-07
-4.63501e-06
1.22141e-07
-4.67853e-06
1.15937e-07
-4.71866e-06
1.09398e-07
-4.75564e-06
1.02451e-07
-4.78894e-06
9.50883e-08
-4.81875e-06
8.72448e-08
-4.84462e-06
7.89169e-08
-4.86679e-06
7.00438e-08
-4.88491e-06
6.0644e-08
-4.89928e-06
5.06775e-08
-4.90967e-06
4.01963e-08
-4.91641e-06
2.91935e-08
-4.91919e-06
1.77433e-08
-4.91803e-06
5.82937e-09
-4.91181e-06
-6.60231e-09
-4.89974e-06
-1.96556e-08
-4.88099e-06
-3.32234e-08
-4.85548e-06
-4.73187e-08
-4.82273e-06
-6.18562e-08
-4.78274e-06
-7.6824e-08
-4.73501e-06
-9.2091e-08
-4.67965e-06
-1.07628e-07
-4.61641e-06
-1.23313e-07
-4.54543e-06
-1.39081e-07
-4.46651e-06
-1.54782e-07
-4.37987e-06
-1.7035e-07
-4.2855e-06
-1.8551e-07
-4.18398e-06
-2.00258e-07
-4.07523e-06
-2.14318e-07
-3.95956e-06
-2.27752e-07
-3.83756e-06
-2.40493e-07
-3.70996e-06
-2.52399e-07
-3.57739e-06
-2.63275e-07
-3.44002e-06
-2.7296e-07
-3.29908e-06
-2.81488e-07
-3.15456e-06
-2.88601e-07
-3.00729e-06
-2.94342e-07
-2.85789e-06
-2.98751e-07
-2.70707e-06
-3.01779e-07
-2.55546e-06
-3.03506e-07
-2.40373e-06
-3.03909e-07
-2.2525e-06
-3.03119e-07
-2.10234e-06
-3.01156e-07
-1.95383e-06
-2.9818e-07
-1.80731e-06
-2.94211e-07
-1.66326e-06
-2.89386e-07
-1.52185e-06
-2.83763e-07
-1.38351e-06
-2.77483e-07
-1.24838e-06
-2.7069e-07
-1.11685e-06
-2.63518e-07
-9.88941e-07
-2.56132e-07
-8.64911e-07
-2.48594e-07
-7.44673e-07
-2.41042e-07
-6.28393e-07
-2.3348e-07
-5.15901e-07
-2.25995e-07
-4.07277e-07
-2.18573e-07
-3.02334e-07
-2.11299e-07
-2.01084e-07
-2.04165e-07
-1.03203e-07
-1.97327e-07
-8.52559e-09
-1.90761e-07
8.31021e-08
-1.84462e-07
1.71487e-07
-1.78287e-07
2.56513e-07
-1.72293e-07
3.37954e-07
-1.66436e-07
4.16349e-07
-1.60567e-07
4.92186e-07
-1.54635e-07
5.65582e-07
-1.48879e-07
6.36507e-07
-1.43335e-07
7.0506e-07
-1.38104e-07
7.71301e-07
-1.33157e-07
8.35371e-07
-1.28558e-07
8.97384e-07
-1.24218e-07
9.57471e-07
-1.20185e-07
1.01573e-06
-1.16372e-07
1.07228e-06
-1.12795e-07
1.12721e-06
-1.09385e-07
1.1806e-06
-1.06219e-07
1.23252e-06
-1.03216e-07
1.28304e-06
-1.00392e-07
1.33225e-06
-9.76678e-08
1.38016e-06
-9.51078e-08
1.4268e-06
-9.27014e-08
1.47215e-06
-9.046e-08
1.51635e-06
-8.82858e-08
1.5595e-06
-8.61935e-08
1.60172e-06
-8.41849e-08
1.64305e-06
-8.22435e-08
1.6835e-06
-8.03267e-08
1.72306e-06
-7.84516e-08
1.76175e-06
-7.66438e-08
1.79959e-06
-7.48846e-08
1.83659e-06
-7.31801e-08
1.87277e-06
-7.15197e-08
1.90815e-06
-6.98593e-08
1.94267e-06
-6.82008e-08
1.97636e-06
-6.65451e-08
2.00924e-06
-6.49226e-08
2.04134e-06
-6.33444e-08
2.07266e-06
-6.1755e-08
2.10323e-06
-6.01903e-08
2.13306e-06
-5.87519e-08
2.16222e-06
-5.73843e-08
2.1907e-06
-5.60628e-08
2.21854e-06
-5.47658e-08
2.24571e-06
-5.3482e-08
2.27222e-06
-5.21834e-08
2.298e-06
-5.07978e-08
2.32298e-06
-4.92908e-08
2.34703e-06
-4.74713e-08
2.37e-06
-4.52767e-08
2.39172e-06
-4.28415e-08
2.41209e-06
-4.00604e-08
2.431e-06
-3.69793e-08
2.44846e-06
-3.38619e-08
2.46447e-06
-3.06783e-08
2.47906e-06
-2.72641e-08
2.49199e-06
-2.36908e-08
2.50304e-06
-1.93644e-08
2.51209e-06
-1.34248e-08
2.51894e-06
-4.91695e-09
2.52222e-06
7.8565e-09
2.51534e-06
2.36383e-08
2.49781e-06
7.01412e-08
1.58228e-07
2.45695e-06
8.95944e-08
-2.76087e-07
1.53033e-07
-2.79015e-07
2.01708e-07
-2.43436e-07
2.35157e-07
-2.0431e-07
2.52858e-07
-1.64883e-07
2.5792e-07
-1.24923e-07
2.52211e-07
-8.47137e-08
2.36666e-07
-4.46585e-08
2.13183e-07
-5.15743e-09
1.80955e-07
3.33068e-08
1.39565e-07
7.03035e-08
8.84176e-08
1.0545e-07
2.64176e-08
1.38462e-07
-4.89006e-08
1.69587e-07
-1.39453e-07
1.99632e-07
-2.47665e-07
2.29932e-07
-3.74543e-07
2.61898e-07
-5.21253e-07
2.965e-07
-6.85302e-07
3.3362e-07
-8.62081e-07
3.72138e-07
-1.04625e-06
4.09828e-07
-1.23326e-06
4.44079e-07
-1.4183e-06
4.72957e-07
-1.59765e-06
4.95433e-07
-1.7678e-06
5.11027e-07
-1.92708e-06
5.19611e-07
-2.07472e-06
5.21451e-07
-2.21118e-06
5.17216e-07
-2.33706e-06
5.07868e-07
-2.45371e-06
4.94473e-07
-2.56217e-06
4.78106e-07
-2.66394e-06
4.59791e-07
-2.75988e-06
4.40409e-07
-2.85114e-06
4.20668e-07
-2.9382e-06
4.01121e-07
-3.02195e-06
3.82174e-07
-3.1026e-06
3.64107e-07
-3.18079e-06
3.47091e-07
-3.25653e-06
3.31217e-07
-3.33029e-06
3.16505e-07
-3.40197e-06
3.02935e-07
-3.47192e-06
2.90446e-07
-3.54e-06
2.78958e-07
-3.60649e-06
2.68373e-07
-3.67121e-06
2.58587e-07
-3.7344e-06
2.4949e-07
-3.79589e-06
2.40975e-07
-3.85587e-06
2.32934e-07
-3.91415e-06
2.25263e-07
-3.97089e-06
2.17857e-07
-4.02591e-06
2.10623e-07
-4.07931e-06
2.03465e-07
-4.13088e-06
1.96304e-07
-4.18067e-06
1.89047e-07
-4.22848e-06
1.8161e-07
-4.27436e-06
1.7391e-07
-4.31804e-06
1.65876e-07
-4.35955e-06
1.57429e-07
-4.39862e-06
1.48505e-07
-4.43525e-06
1.39038e-07
-4.46913e-06
1.28982e-07
-4.50019e-06
1.18283e-07
-4.52815e-06
1.06898e-07
-4.5529e-06
9.47808e-08
-4.57414e-06
8.18998e-08
-4.59169e-06
6.82176e-08
-4.60519e-06
5.37172e-08
-4.61437e-06
3.83665e-08
-4.61875e-06
2.21409e-08
-4.6179e-06
4.99598e-09
-4.61135e-06
-1.31054e-08
-4.5988e-06
-3.21758e-08
-4.57983e-06
-5.21483e-08
-4.55417e-06
-7.29577e-08
-4.5215e-06
-9.45161e-08
-4.48162e-06
-1.16736e-07
-4.43426e-06
-1.39479e-07
-4.3793e-06
-1.62623e-07
-4.31661e-06
-1.86028e-07
-4.24616e-06
-2.09562e-07
-4.16792e-06
-2.33045e-07
-4.08198e-06
-2.56308e-07
-3.98845e-06
-2.79041e-07
-3.88764e-06
-3.01064e-07
-3.77978e-06
-3.22172e-07
-3.66528e-06
-3.42249e-07
-3.54457e-06
-3.61163e-07
-3.41833e-06
-3.78727e-07
-3.28707e-06
-3.94654e-07
-3.15147e-06
-4.08934e-07
-3.01214e-06
-4.21251e-07
-2.86952e-06
-4.31545e-07
-2.7244e-06
-4.3984e-07
-2.57732e-06
-4.46051e-07
-2.42909e-06
-4.50271e-07
-2.28025e-06
-4.52467e-07
-2.13154e-06
-4.52772e-07
-1.98348e-06
-4.51225e-07
-1.83671e-06
-4.48017e-07
-1.69165e-06
-4.43253e-07
-1.54876e-06
-4.37097e-07
-1.40837e-06
-4.29688e-07
-1.27073e-06
-4.21156e-07
-1.13623e-06
-4.1173e-07
-1.00499e-06
-4.01538e-07
-8.77356e-07
-3.9086e-07
-7.5333e-07
-3.79787e-07
-6.33146e-07
-3.68552e-07
-5.167e-07
-3.57192e-07
-4.04141e-07
-3.45891e-07
-2.95281e-07
-3.34638e-07
-1.9019e-07
-3.23585e-07
-8.85803e-08
-3.1277e-07
9.56386e-09
-3.02297e-07
1.04393e-07
-2.92087e-07
1.95784e-07
-2.82178e-07
2.83863e-07
-2.72531e-07
3.68664e-07
-2.63185e-07
4.50398e-07
-2.54097e-07
5.29129e-07
-2.45261e-07
6.05218e-07
-2.36598e-07
6.78843e-07
-2.28149e-07
7.50168e-07
-2.19979e-07
8.19169e-07
-2.12181e-07
8.85995e-07
-2.04762e-07
9.5067e-07
-1.97766e-07
1.01336e-06
-1.9117e-07
1.07411e-06
-1.84969e-07
1.13307e-06
-1.79128e-07
1.19029e-06
-1.73631e-07
1.24591e-06
-1.68423e-07
1.29997e-06
-1.63503e-07
1.35258e-06
-1.58859e-07
1.40376e-06
-1.54473e-07
1.45362e-06
-1.50302e-07
1.50218e-06
-1.46324e-07
1.54951e-06
-1.42545e-07
1.5956e-06
-1.38984e-07
1.64048e-06
-1.35612e-07
1.68423e-06
-1.32368e-07
1.72695e-06
-1.2924e-07
1.76872e-06
-1.26207e-07
1.80955e-06
-1.23273e-07
1.84949e-06
-1.20398e-07
1.88854e-06
-1.17607e-07
1.92672e-06
-1.14894e-07
1.96404e-06
-1.12266e-07
2.00051e-06
-1.09691e-07
2.03613e-06
-1.07174e-07
2.07092e-06
-1.04682e-07
2.1049e-06
-1.02212e-07
2.13808e-06
-9.97524e-08
2.17046e-06
-9.73432e-08
2.20205e-06
-9.4973e-08
2.23288e-06
-9.26343e-08
2.26299e-06
-9.03465e-08
2.29236e-06
-8.8183e-08
2.32105e-06
-8.61142e-08
2.34905e-06
-8.41156e-08
2.37638e-06
-8.21349e-08
2.40301e-06
-8.01578e-08
2.42893e-06
-7.81253e-08
2.45407e-06
-7.59732e-08
2.47833e-06
-7.35781e-08
2.50164e-06
-7.08071e-08
2.52393e-06
-6.75791e-08
2.54503e-06
-6.39593e-08
2.56491e-06
-5.99516e-08
2.58359e-06
-5.56709e-08
2.60103e-06
-5.13054e-08
2.61724e-06
-4.69119e-08
2.63234e-06
-4.23687e-08
2.64616e-06
-3.7514e-08
2.65847e-06
-3.16759e-08
2.66906e-06
-2.40164e-08
2.67741e-06
-1.32644e-08
2.68225e-06
2.99619e-09
2.67945e-06
2.641e-08
2.67445e-06
7.51299e-08
1.61461e-07
2.67121e-06
4.0499e-08
-3.16592e-07
5.57493e-08
-2.94361e-07
6.32096e-08
-2.50868e-07
6.24608e-08
-2.03659e-07
5.29711e-08
-1.5537e-07
3.45086e-08
-1.06572e-07
7.41002e-09
-5.75984e-08
-2.85804e-08
-8.78412e-09
-7.33886e-08
3.96675e-08
-1.2779e-07
8.76023e-08
-1.9229e-07
1.34829e-07
-2.68156e-07
1.81227e-07
-3.56473e-07
2.2682e-07
-4.58803e-07
2.71839e-07
-5.75752e-07
3.1664e-07
-7.07397e-07
3.6151e-07
-8.51791e-07
4.06363e-07
-1.00581e-06
4.50468e-07
-1.16457e-06
4.92462e-07
-1.32321e-06
5.30729e-07
-1.47693e-06
5.63628e-07
-1.62269e-06
5.89813e-07
-1.75825e-06
6.08589e-07
-1.88277e-06
6.19932e-07
-1.99596e-06
6.24283e-07
-2.0987e-06
6.22329e-07
-2.1921e-06
6.14914e-07
-2.2779e-06
6.0299e-07
-2.35751e-06
5.87532e-07
-2.43256e-06
5.69482e-07
-2.50411e-06
5.49704e-07
-2.57332e-06
5.28953e-07
-2.64072e-06
5.0785e-07
-2.70699e-06
4.86879e-07
-2.77224e-06
4.66417e-07
-2.83687e-06
4.46739e-07
-2.90075e-06
4.28032e-07
-2.96413e-06
4.10403e-07
-3.02678e-06
3.93902e-07
-3.08886e-06
3.78527e-07
-3.15015e-06
3.64245e-07
-3.21075e-06
3.50992e-07
-3.27045e-06
3.3869e-07
-3.32936e-06
3.27243e-07
-3.38728e-06
3.1655e-07
-3.44432e-06
3.06505e-07
-3.50028e-06
2.96999e-07
-3.55527e-06
2.87924e-07
-3.60912e-06
2.79174e-07
-3.66189e-06
2.70641e-07
-3.71342e-06
2.62223e-07
-3.76376e-06
2.5382e-07
-3.81273e-06
2.45334e-07
-3.86032e-06
2.36667e-07
-3.90637e-06
2.27724e-07
-3.95085e-06
2.18409e-07
-3.99356e-06
2.08634e-07
-4.03443e-06
1.98308e-07
-4.07324e-06
1.87348e-07
-4.1099e-06
1.75673e-07
-4.14412e-06
1.63212e-07
-4.17575e-06
1.4989e-07
-4.2045e-06
1.35641e-07
-4.23014e-06
1.20394e-07
-4.25234e-06
1.04091e-07
-4.27082e-06
8.66699e-08
-4.28518e-06
6.80784e-08
-4.29509e-06
4.82646e-08
-4.30013e-06
2.71831e-08
-4.29992e-06
4.80387e-09
-4.2941e-06
-1.88887e-08
-4.28237e-06
-4.38757e-08
-4.26437e-06
-7.0098e-08
-4.23982e-06
-9.74785e-08
-4.2084e-06
-1.25905e-07
-4.16988e-06
-1.55249e-07
-4.124e-06
-1.8535e-07
-4.0706e-06
-2.16033e-07
-4.00952e-06
-2.47107e-07
-3.94072e-06
-2.78368e-07
-3.8642e-06
-3.09571e-07
-3.78006e-06
-3.40448e-07
-3.68843e-06
-3.70674e-07
-3.58953e-06
-3.99961e-07
-3.48365e-06
-4.28055e-07
-3.37121e-06
-4.54682e-07
-3.25271e-06
-4.79687e-07
-3.12866e-06
-5.02792e-07
-2.99975e-06
-5.2378e-07
-2.86654e-06
-5.42328e-07
-2.72965e-06
-5.58376e-07
-2.58973e-06
-5.71722e-07
-2.44737e-06
-5.82358e-07
-2.30331e-06
-5.90242e-07
-2.15818e-06
-5.95438e-07
-2.01269e-06
-5.97974e-07
-1.86742e-06
-5.97988e-07
-1.72298e-06
-5.95593e-07
-1.57989e-06
-5.90998e-07
-1.43863e-06
-5.84383e-07
-1.29958e-06
-5.75949e-07
-1.16309e-06
-5.65912e-07
-1.02945e-06
-5.54457e-07
-8.98911e-07
-5.41871e-07
-7.7173e-07
-5.2834e-07
-6.48061e-07
-5.1418e-07
-5.28029e-07
-4.99517e-07
-4.11693e-07
-4.84633e-07
-2.99083e-07
-4.69585e-07
-1.90186e-07
-4.54617e-07
-8.48931e-08
-4.39783e-07
1.6876e-08
-4.25252e-07
1.15147e-07
-4.10952e-07
2.09908e-07
-3.97017e-07
3.01249e-07
-3.8339e-07
3.89256e-07
-3.70189e-07
4.74061e-07
-3.57355e-07
5.55774e-07
-3.44979e-07
6.34581e-07
-3.32976e-07
7.10649e-07
-3.21395e-07