/*--------------------------------*- C++ -*----------------------------------*\
  =========                 |
  \\      /  F ield         | OpenFOAM: The Open Source CFD Toolbox
   \\    /   O peration     | Website:  https://openfoam.org
    \\  /    A nd           | Version:  8
     \\/     M anipulation  |
\*---------------------------------------------------------------------------*/
FoamFile
{
    version     2.0;
    format      ascii;
    class       volVectorField;
    location    "60";
    object      U;
}
// * * * * * * * * * * * * * * * * * * * * * * * * * * * * * * * * * * * * * //

dimensions      [0 1 -1 0 0 0 0];

internalField   nonuniform List<vector> 
12225
(
(9.85687 -0.886469 0)
(9.66606 -0.740584 0)
(9.45405 -0.429357 0)
(9.22126 -0.221852 0)
(9.00099 -0.105932 0)
(8.80619 -0.0452548 0)
(8.63576 -0.0144767 0)
(8.48952 0.00133019 0)
(8.36303 0.00947405 0)
(8.25474 0.0136108 0)
(8.15951 0.0155901 0)
(8.07524 0.0170068 0)
(7.99849 0.0179614 0)
(7.92735 0.0189858 0)
(7.85758 0.0201354 0)
(7.79052 0.0234896 0)
(7.69678 0.0244831 0)
(7.67067 0.0404172 0)
(10.0545 0.227658 0)
(10.1209 0.327051 0)
(10.1192 0.261896 0)
(10.0844 0.187043 0)
(10.0412 0.135405 0)
(9.99313 0.102028 0)
(9.93856 0.0804453 0)
(9.87736 0.0660749 0)
(9.8132 0.0562205 0)
(9.74718 0.0491008 0)
(9.68149 0.043894 0)
(9.61645 0.0400764 0)
(9.55305 0.037472 0)
(9.4914 0.0361722 0)
(9.43044 0.0359698 0)
(9.37359 0.0394437 0)
(9.30869 0.0433041 0)
(9.2758 0.0728081 0)
(10.0035 0.0580209 0)
(10.03 0.0562904 0)
(10.0553 0.0343471 0)
(10.0687 0.0336811 0)
(10.0742 0.0417086 0)
(10.0737 0.0479583 0)
(10.0666 0.0511932 0)
(10.0532 0.0526637 0)
(10.0353 0.0531602 0)
(10.0136 0.0531033 0)
(9.98918 0.0528924 0)
(9.9622 0.0528637 0)
(9.93336 0.0532227 0)
(9.90295 0.054347 0)
(9.87055 0.0563018 0)
(9.83763 0.0613133 0)
(9.8014 0.0675481 0)
(9.7708 0.0877453 0)
(9.99776 0.0111786 0)
(10.0107 0.0269994 0)
(10.0341 0.0378114 0)
(10.0507 0.0490662 0)
(10.0614 0.0568842 0)
(10.0689 0.0600984 0)
(10.0731 0.0608199 0)
(10.0738 0.060734 0)
(10.0715 0.0604603 0)
(10.0669 0.0601741 0)
(10.06 0.0600793 0)
(10.0512 0.0604056 0)
(10.0405 0.0612715 0)
(10.0284 0.0630223 0)
(10.0143 0.0658608 0)
(9.99924 0.0713367 0)
(9.98291 0.0788921 0)
(9.96924 0.0939468 0)
(9.9993 0.00737113 0)
(10.0087 0.0321496 0)
(10.0265 0.0447996 0)
(10.0399 0.0512824 0)
(10.0497 0.0555058 0)
(10.0583 0.0576975 0)
(10.0651 0.0586466 0)
(10.0696 0.0591662 0)
(10.0721 0.0595967 0)
(10.0729 0.0600602 0)
(10.072 0.0607247 0)
(10.0697 0.0617991 0)
(10.0659 0.0634355 0)
(10.061 0.0659543 0)
(10.0548 0.0696403 0)
(10.048 0.0754809 0)
(10.0409 0.0834541 0)
(10.0362 0.0952426 0)
(10.0003 0.00940617 0)
(10.008 0.0318016 0)
(10.0218 0.0420861 0)
(10.0331 0.0470931 0)
(10.0419 0.0513402 0)
(10.0502 0.0543743 0)
(10.0573 0.0561885 0)
(10.0627 0.0574083 0)
(10.0666 0.058454 0)
(10.0692 0.059503 0)
(10.0705 0.0607311 0)
(10.0706 0.0623467 0)
(10.0697 0.0645318 0)
(10.0678 0.0675763 0)
(10.0651 0.0717574 0)
(10.0621 0.0776794 0)
(10.0593 0.0853911 0)
(10.0584 0.095182 0)
(10.0004 0.00922881 0)
(10.0068 0.027867 0)
(10.0181 0.0377976 0)
(10.0283 0.0434147 0)
(10.0365 0.0481707 0)
(10.0441 0.0516963 0)
(10.0509 0.0539593 0)
(10.0564 0.0555833 0)
(10.0607 0.0570264 0)
(10.0639 0.0584908 0)
(10.066 0.0601423 0)
(10.0673 0.0621788 0)
(10.0677 0.0647887 0)
(10.0674 0.0682157 0)
(10.0665 0.0726867 0)
(10.0655 0.0785437 0)
(10.0649 0.0857936 0)
(10.0658 0.0942006 0)
(10.0004 0.00825738 0)
(10.0057 0.0243073 0)
(10.0152 0.0343662 0)
(10.0245 0.0404961 0)
(10.0322 0.0453689 0)
(10.0392 0.0490478 0)
(10.0455 0.0515978 0)
(10.0509 0.0535535 0)
(10.0553 0.055339 0)
(10.0587 0.0571588 0)
(10.0613 0.0591747 0)
(10.0631 0.0615698 0)
(10.0642 0.0645227 0)
(10.0649 0.0682252 0)
(10.0652 0.0728452 0)
(10.0654 0.0785555 0)
(10.0661 0.0853219 0)
(10.0679 0.0927545 0)
(10.0004 0.0073612 0)
(10.0048 0.021508 0)
(10.0128 0.0313517 0)
(10.0211 0.0376549 0)
(10.0284 0.0425141 0)
(10.0349 0.0462959 0)
(10.0409 0.0491158 0)
(10.0461 0.0513919 0)
(10.0505 0.0534944 0)
(10.054 0.0556281 0)
(10.0569 0.0579578 0)
(10.0591 0.0606519 0)
(10.0607 0.0638697 0)
(10.062 0.0677542 0)
(10.0631 0.072421 0)
(10.0642 0.0779443 0)
(10.0657 0.0842632 0)
(10.0681 0.0909816 0)
(10.0003 0.00659146 0)
(10.004 0.019097 0)
(10.0108 0.0284469 0)
(10.0183 0.0347673 0)
(10.025 0.0396319 0)
(10.0312 0.0435186 0)
(10.0369 0.0465712 0)
(10.0419 0.0491282 0)
(10.0462 0.0515082 0)
(10.0499 0.0539159 0)
(10.0529 0.0565105 0)
(10.0554 0.059448 0)
(10.0575 0.0628597 0)
(10.0593 0.0668521 0)
(10.061 0.0714987 0)
(10.0628 0.0768193 0)
(10.0649 0.0827417 0)
(10.0676 0.088912 0)
(10.0003 0.00589312 0)
(10.0034 0.0169402 0)
(10.0091 0.0256744 0)
(10.0158 0.0319127 0)
(10.022 0.0367687 0)
(10.0278 0.0407276 0)
(10.0333 0.0439556 0)
(10.0382 0.0467364 0)
(10.0425 0.0493476 0)
(10.0462 0.0519843 0)
(10.0494 0.0547986 0)
(10.0522 0.0579238 0)
(10.0547 0.0614702 0)
(10.057 0.065509 0)
(10.0592 0.0700883 0)
(10.0615 0.0751963 0)
(10.064 0.0807683 0)
(10.0671 0.0865014 0)
(10.0003 0.00528554 0)
(10.0029 0.0151545 0)
(10.0079 0.0232864 0)
(10.0138 0.0293766 0)
(10.0197 0.0341798 0)
(10.0252 0.0381591 0)
(10.0304 0.0415079 0)
(10.0351 0.0444529 0)
(10.0395 0.047234 0)
(10.0433 0.0500396 0)
(10.0467 0.0530157 0)
(10.0497 0.0562838 0)
(10.0525 0.0599111 0)
(10.0552 0.0639595 0)
(10.0578 0.0684431 0)
(10.0605 0.073357 0)
(10.0634 0.0786395 0)
(10.0667 0.0840512 0)
(10.0002 0.00472847 0)
(10.0025 0.0135121 0)
(10.0068 0.0210137 0)
(10.0122 0.0268756 0)
(10.0176 0.0315793 0)
(10.0229 0.0355358 0)
(10.0279 0.0389589 0)
(10.0325 0.042033 0)
(10.0369 0.0449461 0)
(10.0408 0.0478709 0)
(10.0444 0.0509616 0)
(10.0477 0.0543213 0)
(10.0508 0.0579991 0)
(10.0538 0.0620256 0)
(10.0568 0.0664035 0)
(10.0598 0.0711193 0)
(10.0631 0.0761331 0)
(10.0666 0.0812356 0)
(10.0002 0.00415597 0)
(10.0022 0.0118134 0)
(10.0059 0.0185789 0)
(10.0107 0.0240937 0)
(10.0157 0.0286331 0)
(10.0206 0.0325078 0)
(10.0255 0.0359511 0)
(10.0301 0.0391201 0)
(10.0344 0.042147 0)
(10.0384 0.0451676 0)
(10.0422 0.0483369 0)
(10.0458 0.0517406 0)
(10.0493 0.0554345 0)
(10.0526 0.0594056 0)
(10.056 0.0636582 0)
(10.0594 0.0681583 0)
(10.063 0.0728874 0)
(10.0667 0.0776705 0)
(10.0002 0.00356221 0)
(10.0019 0.0100437 0)
(10.0051 0.0159803 0)
(10.0093 0.0210118 0)
(10.0139 0.0252875 0)
(10.0186 0.0290101 0)
(10.0233 0.0323829 0)
(10.0278 0.0355674 0)
(10.0322 0.0386564 0)
(10.0363 0.0417443 0)
(10.0404 0.0449306 0)
(10.0443 0.0483185 0)
(10.0481 0.0519389 0)
(10.0518 0.0558012 0)
(10.0555 0.0598703 0)
(10.0594 0.0641271 0)
(10.0633 0.068545 0)
(10.0673 0.0729887 0)
(10.0002 0.00294035 0)
(10.0016 0.00819486 0)
(10.0044 0.0132009 0)
(10.0082 0.0175973 0)
(10.0124 0.0214712 0)
(10.0169 0.0249428 0)
(10.0214 0.0281434 0)
(10.026 0.0312254 0)
(10.0304 0.0342772 0)
(10.0347 0.0373491 0)
(10.039 0.0404917 0)
(10.0433 0.0437757 0)
(10.0474 0.0472418 0)
(10.0516 0.0509021 0)
(10.0557 0.054727 0)
(10.0598 0.0586871 0)
(10.0641 0.0627618 0)
(10.0684 0.0668347 0)
(10.0001 0.00227623 0)
(10.0014 0.00623301 0)
(10.0039 0.010179 0)
(10.0074 0.0137768 0)
(10.0114 0.0170776 0)
(10.0157 0.0201458 0)
(10.0202 0.0230508 0)
(10.0248 0.0258914 0)
(10.0293 0.0287575 0)
(10.0338 0.0316733 0)
(10.0384 0.034663 0)
(10.043 0.0377482 0)
(10.0475 0.0409724 0)
(10.052 0.0443353 0)
(10.0566 0.0478321 0)
(10.0611 0.0514224 0)
(10.0657 0.0550993 0)
(10.0703 0.0587518 0)
(10.0001 0.00153813 0)
(10.0013 0.00407058 0)
(10.0037 0.00678376 0)
(10.0069 0.00939159 0)
(10.0109 0.0119022 0)
(10.0151 0.0143588 0)
(10.0197 0.0167876 0)
(10.0244 0.0192286 0)
(10.0292 0.0217352 0)
(10.034 0.0243295 0)
(10.0388 0.0270143 0)
(10.0437 0.0297904 0)
(10.0486 0.0326682 0)
(10.0536 0.0356469 0)
(10.0585 0.0387185 0)
(10.0634 0.0418604 0)
(10.0683 0.0450613 0)
(10.0732 0.0482341 0)
(10.0002 0.000656468 0)
(10.0013 0.00151959 0)
(10.0037 0.00272978 0)
(10.0071 0.00407826 0)
(10.0111 0.00554857 0)
(10.0155 0.00715061 0)
(10.0203 0.00888233 0)
(10.0253 0.0107283 0)
(10.0304 0.0126946 0)
(10.0355 0.0147823 0)
(10.0407 0.0169907 0)
(10.046 0.0193011 0)
(10.0513 0.0217041 0)
(10.0566 0.0241819 0)
(10.0619 0.0267262 0)
(10.0671 0.029319 0)
(10.0724 0.031956 0)
(10.0777 0.0345694 0)
(10.0002 -0.000236988 0)
(10.0015 -0.00103563 0)
(10.0041 -0.00135708 0)
(10.0078 -0.00129923 0)
(10.0122 -0.000889231 0)
(10.017 -0.000166671 0)
(10.0221 0.000825071 0)
(10.0275 0.00204674 0)
(10.033 0.00344933 0)
(10.0384 0.00502284 0)
(10.044 0.00674094 0)
(10.0496 0.00858712 0)
(10.0552 0.0105174 0)
(10.0608 0.0125193 0)
(10.0664 0.0145659 0)
(10.0719 0.0166611 0)
(10.0775 0.0187866 0)
(10.0829 0.0209045 0)
(10.0002 -0.00103214 0)
(10.0017 -0.00332844 0)
(10.0046 -0.00502204 0)
(10.0088 -0.0060606 0)
(10.0137 -0.00650109 0)
(10.0189 -0.00647385 0)
(10.0245 -0.00606547 0)
(10.0302 -0.00534048 0)
(10.036 -0.00437013 0)
(10.0418 -0.00318751 0)
(10.0476 -0.00182839 0)
(10.0535 -0.000329997 0)
(10.0594 0.00125242 0)
(10.0652 0.00289615 0)
(10.0709 0.00457954 0)
(10.0767 0.00630548 0)
(10.0824 0.00805927 0)
(10.088 0.00980531 0)
(10.0002 -0.00179532 0)
(10.0019 -0.0056056 0)
(10.0053 -0.00869716 0)
(10.0101 -0.010752 0)
(10.0156 -0.0119005 0)
(10.0214 -0.0124244 0)
(10.0274 -0.0124625 0)
(10.0335 -0.0121251 0)
(10.0396 -0.0114999 0)
(10.0457 -0.0106438 0)
(10.0518 -0.00958742 0)
(10.0579 -0.00839432 0)
(10.0639 -0.00710798 0)
(10.0699 -0.00577339 0)
(10.0758 -0.00438707 0)
(10.0816 -0.00296971 0)
(10.0875 -0.0015165 0)
(10.0931 -8.13908e-05 0)
(10.0002 -0.00251254 0)
(10.002 -0.00789948 0)
(10.0061 -0.0123777 0)
(10.0118 -0.0153369 0)
(10.018 -0.0171396 0)
(10.0243 -0.018167 0)
(10.0307 -0.0185529 0)
(10.0371 -0.0184542 0)
(10.0435 -0.0180365 0)
(10.0499 -0.017386 0)
(10.0563 -0.0165545 0)
(10.0625 -0.0155981 0)
(10.0687 -0.0145669 0)
(10.0748 -0.0134847 0)
(10.0808 -0.0123582 0)
(10.0867 -0.011192 0)
(10.0927 -0.00999861 0)
(10.0984 -0.00881582 0)
(10.0001 -0.00315078 0)
(10.0021 -0.0105756 0)
(10.007 -0.0162015 0)
(10.0136 -0.0195302 0)
(10.0205 -0.0218159 0)
(10.0274 -0.0234207 0)
(10.0343 -0.0242205 0)
(10.0411 -0.0243576 0)
(10.0478 -0.024085 0)
(10.0544 -0.0235531 0)
(10.0609 -0.0228469 0)
(10.0673 -0.0220328 0)
(10.0735 -0.0211652 0)
(10.0797 -0.0202566 0)
(10.0858 -0.0193186 0)
(10.0918 -0.01835 0)
(10.0978 -0.017369 0)
(10.1035 -0.0164007 0)
(9.99995 -0.00308333 0)
(10.0019 -0.0141973 0)
(10.008 -0.0214037 0)
(10.0157 -0.0243311 0)
(10.0229 -0.0262765 0)
(10.0303 -0.0279543 0)
(10.0379 -0.0289919 0)
(10.0452 -0.0294044 0)
(10.0523 -0.0293943 0)
(10.0592 -0.029086 0)
(10.0659 -0.0285622 0)
(10.0724 -0.0279063 0)
(10.0786 -0.0271768 0)
(10.0847 -0.0264 0)
(10.0907 -0.0255862 0)
(10.0966 -0.0247511 0)
(10.1024 -0.0239064 0)
(10.1079 -0.0230873 0)
(9.99863 -0.000173535 0)
(9.99935 -0.015174 0)
(10.0083 -0.0263974 0)
(10.0181 -0.0310416 0)
(10.0262 -0.0329726 0)
(10.0342 -0.0337948 0)
(10.0424 -0.0339689 0)
(10.0504 -0.0338693 0)
(10.0578 -0.0336521 0)
(10.0648 -0.0333022 0)
(10.0715 -0.0328204 0)
(10.0777 -0.032247 0)
(10.0836 -0.0316257 0)
(10.0892 -0.0309643 0)
(10.0945 -0.0302667 0)
(10.0997 -0.0295466 0)
(10.1047 -0.0288173 0)
(10.1093 -0.0281186 0)
(9.99493 0.00149302 0)
(9.99315 -0.00769011 0)
(10.0068 -0.0196152 0)
(10.0216 -0.0311639 0)
(10.033 -0.0390525 0)
(10.0427 -0.0423998 0)
(10.0515 -0.042912 0)
(10.0591 -0.0423325 0)
(10.0656 -0.0414133 0)
(10.0713 -0.0403381 0)
(10.0763 -0.0391925 0)
(10.0806 -0.0380573 0)
(10.0844 -0.036982 0)
(10.0876 -0.0359619 0)
(10.0906 -0.0349813 0)
(10.0932 -0.0340279 0)
(10.0956 -0.0331155 0)
(10.0976 -0.0322387 0)
(9.99477 -0.0304646 0)
(9.99949 -0.0225534 0)
(10.0153 -0.00215924 0)
(10.0317 -0.00112599 0)
(10.0455 -0.0105615 0)
(10.0565 -0.0195692 0)
(10.0638 -0.0256797 0)
(10.0676 -0.0296514 0)
(10.0688 -0.0321447 0)
(10.0682 -0.0335107 0)
(10.0662 -0.0340699 0)
(10.063 -0.0341278 0)
(10.0589 -0.0338981 0)
(10.0543 -0.0335092 0)
(10.0494 -0.0330204 0)
(10.0442 -0.0324666 0)
(10.039 -0.0319201 0)
(10.0336 -0.0313491 0)
(10.0273 -0.182686 0)
(10.0764 -0.288158 0)
(10.0875 -0.247433 0)
(10.0786 -0.186124 0)
(10.0678 -0.139715 0)
(10.0562 -0.107393 0)
(10.04 -0.0848268 0)
(10.0193 -0.0691931 0)
(9.99566 -0.0582748 0)
(9.97045 -0.0503255 0)
(9.9445 -0.0442854 0)
(9.91833 -0.0395505 0)
(9.89243 -0.0357686 0)
(9.86719 -0.0326918 0)
(9.84291 -0.0301436 0)
(9.81962 -0.0280396 0)
(9.7976 -0.0263241 0)
(9.7766 -0.0253102 0)
(9.93583 0.689349 0)
(9.86907 0.609718 0)
(9.76582 0.38096 0)
(9.62907 0.217786 0)
(9.48988 0.119629 0)
(9.36313 0.0636801 0)
(9.25081 0.0322126 0)
(9.15168 0.0143568 0)
(9.06476 0.00406948 0)
(8.98889 -0.00191359 0)
(8.92234 -0.00536954 0)
(8.86365 -0.00736406 0)
(8.81157 -0.00849013 0)
(8.76527 -0.0091287 0)
(8.72387 -0.00952197 0)
(8.68671 -0.00970126 0)
(8.65285 -0.00982057 0)
(8.62171 -0.010377 0)
(0.0595323 -0.0251266 -2.69858e-19)
(0.124714 -0.0708414 1.22092e-19)
(0.2062 -0.0972979 0)
(0.288102 -0.137999 0)
(0.375211 -0.158012 0)
(0.473342 -0.137161 -1.15255e-19)
(0.541077 -0.116516 0)
(0.595381 -0.092672 0)
(0.63226 -0.0307201 0)
(0.644576 -0.0134226 0)
(0.643363 -0.0180946 8.44278e-20)
(0.626795 0.0117214 0)
(0.597266 0.0281359 0)
(0.55833 0.0383555 0)
(0.515794 0.0406331 0)
(0.473186 0.0382597 1.21837e-19)
(0.43096 0.0335905 0)
(0.388968 0.0264666 0)
(0.347037 0.0190953 0)
(0.30019 0.0183548 0)
(0.244359 0.0243116 0)
(0.178633 0.0321334 0)
(0.0980303 0.045963 0)
(0.00585597 0.0627852 2.386e-19)
(-0.102102 0.0821148 -1.90663e-19)
(-0.230744 0.105019 1.45584e-19)
(-0.376461 0.127787 1.15386e-19)
(-0.535178 0.146771 0)
(-0.703229 0.16125 0)
(-0.877349 0.171005 -6.92874e-20)
(-1.05452 0.176436 -6.13673e-20)
(-1.23209 0.178012 0)
(-1.40783 0.176499 0)
(-1.57982 0.172439 -4.71905e-20)
(-1.74674 0.166699 0)
(-1.90772 0.159814 0)
(-2.06224 0.152414 4.03195e-20)
(-2.21012 0.144802 0)
(-2.35136 0.137377 3.76505e-20)
(-2.48616 0.130247 7.33101e-20)
(-2.61485 0.12364 0)
(-2.73777 0.117536 0)
(-2.85537 0.112048 0)
(-2.96804 0.107077 0)
(-3.07621 0.10267 0)
(-3.18028 0.0986947 6.64025e-20)
(-3.28062 0.0951696 6.57604e-20)
(-3.37753 0.0919461 6.5217e-20)
(-3.4713 0.089023 0)
(-3.56218 0.0862545 -6.43649e-20)
(-3.65038 0.0836458 0)
(-3.73603 0.0810629 6.37765e-20)
(-3.81921 0.0785213 6.35612e-20)
(-3.89994 0.075908 0)
(-3.97822 0.0732367 0)
(-4.05403 0.0704004 0)
(-4.12731 0.0674405 6.31229e-20)
(-4.1979 0.0642796 0)
(-4.26564 0.0609732 0)
(-4.33035 0.0574548 0)
(-4.39179 0.0538138 0)
(-4.44963 0.0499908 0)
(-4.50351 0.0460638 0)
(-4.55309 0.0419596 0)
(-4.59792 0.0377486 0)
(-4.63757 0.033329 -6.43936e-20)
(-4.67149 0.0287677 0)
(-4.69915 0.0239789 0)
(-4.71996 0.0191089 6.55977e-20)
(-4.73368 0.0141472 6.60297e-20)
(-4.73977 0.00943594 0)
(-4.73971 0.00493683 -6.66681e-20)
(-4.7332 0.000443614 6.69199e-20)
(-4.72018 -0.00425905 0)
(-4.70045 -0.00916051 -6.72261e-20)
(-4.67386 -0.0142468 0)
(-4.64026 -0.019368 0)
(-4.59949 -0.024814 6.69175e-20)
(-4.55132 -0.0305748 0)
(-4.49566 -0.0363759 -6.58729e-20)
(-4.43255 -0.0421948 0)
(-4.36209 -0.0481431 6.40125e-20)
(-4.28436 -0.053962 6.27434e-20)
(-4.19934 -0.0602306 6.1175e-20)
(-4.10737 -0.0650371 1.18545e-19)
(-4.00908 -0.0694619 -1.14298e-19)
(-3.90455 -0.0743094 0)
(-3.79412 -0.0799426 0)
(-3.67794 -0.0845655 0)
(-3.55752 -0.0883394 -9.12134e-20)
(-3.43229 -0.093166 -8.37994e-20)
(-3.30335 -0.0961087 7.57351e-20)
(-3.17104 -0.0989134 0)
(-3.03596 -0.101132 -5.76471e-20)
(-2.8987 -0.102849 -4.76451e-20)
(-2.7599 -0.104098 -3.70135e-20)
(-2.62016 -0.104884 0)
(-2.48009 -0.105272 0)
(-2.34025 -0.105235 0)
(-2.2012 -0.104825 1.20649e-20)
(-2.06343 -0.104026 0)
(-1.9273 -0.102891 0)
(-1.79316 -0.101462 -5.64819e-20)
(-1.66128 -0.0997597 0)
(-1.53199 -0.0979154 0)
(-1.40554 -0.0959029 -1.09034e-19)
(-1.28218 -0.0938802 0)
(-1.16205 -0.0917568 0)
(-1.04526 -0.0897215 1.72082e-19)
(-0.931834 -0.0876684 1.961e-19)
(-0.821784 -0.0856978 0)
(-0.715112 -0.0837088 -2.49958e-19)
(-0.611783 -0.0818361 0)
(-0.511779 -0.0799781 3.13777e-19)
(-0.415027 -0.0782545 0)
(-0.321446 -0.076513 3.91369e-19)
(-0.230884 -0.0748924 4.37125e-19)
(-0.143573 -0.0733142 0)
(-0.0589661 -0.0713626 0)
(0.0242533 -0.0681681 0)
(0.105555 -0.0641933 0)
(0.184171 -0.0601226 0)
(0.260159 -0.0563386 0)
(0.333393 -0.0527993 0)
(0.403772 -0.0495718 4.27336e-19)
(0.471409 -0.0465716 -4.14498e-19)
(0.536533 -0.0439127 0)
(0.599323 -0.0414667 0)
(0.659983 -0.0392771 0)
(0.718736 -0.0372761 0)
(0.775653 -0.0354288 -7.32886e-19)
(0.830871 -0.0336097 0)
(0.884565 -0.0320034 7.0452e-19)
(0.936815 -0.0305656 -6.91825e-19)
(0.98769 -0.029297 0)
(1.03723 -0.0280212 0)
(1.08554 -0.0267891 0)
(1.13269 -0.0256761 6.48595e-19)
(1.17865 -0.0247889 6.39408e-19)
(1.22336 -0.0239375 0)
(1.26706 -0.0231012 6.22702e-19)
(1.30998 -0.0223155 6.15094e-19)
(1.35224 -0.0215884 -6.07922e-19)
(1.39378 -0.0208174 0)
(1.43465 -0.0200498 0)
(1.47484 -0.0193752 -5.88902e-19)
(1.51432 -0.0187801 0)
(1.55312 -0.0183235 0)
(1.5912 -0.0178589 0)
(1.6286 -0.0171449 0)
(1.66537 -0.0163957 5.63119e-19)
(1.70144 -0.0157779 5.58664e-19)
(1.73681 -0.0154067 0)
(1.77146 -0.015207 5.50303e-19)
(1.8053 -0.0149062 0)
(1.8385 -0.0144449 0)
(1.87114 -0.0140819 5.38849e-19)
(1.90313 -0.0136659 0)
(1.93457 -0.0132356 5.31817e-19)
(1.96548 -0.0128112 0)
(1.99591 -0.0124536 0)
(2.02585 -0.0121541 5.22019e-19)
(2.05532 -0.0119188 0)
(2.08425 -0.0119216 5.16066e-19)
(2.11235 -0.0117699 0)
(2.1397 -0.0113669 0)
(2.16608 -0.011088 0)
(2.1911 -0.0105952 -5.06648e-19)
(2.21469 -0.00983994 0)
(2.23686 -0.00934499 5.04301e-19)
(2.25711 -0.00871206 0)
(2.27554 -0.00753001 0)
(2.29243 -0.00675643 0)
(2.30692 -0.00635154 0)
(2.31879 -0.00577591 0)
(2.32547 -0.00562854 0)
(2.32367 -0.00467209 0)
(2.3148 -0.00925573 -1.097e-18)
(2.2912 0.0541298 0)
(2.1799 0.123064 0)
(0.059417 -0.256567 6.58546e-19)
(0.155562 -0.315529 -3.39111e-19)
(0.244399 -0.288045 0)
(0.315093 -0.25834 1.23202e-19)
(0.365659 -0.234267 0)
(0.40082 -0.198594 5.18899e-20)
(0.423383 -0.156401 -1.00793e-19)
(0.434452 -0.110621 -1.00058e-19)
(0.439125 -0.0622614 0)
(0.43868 -0.0134716 -1.01136e-19)
(0.42726 0.0313204 -5.42985e-20)
(0.406354 0.0680379 0)
(0.37793 0.0953127 0)
(0.339703 0.113214 0)
(0.291183 0.123215 0)
(0.231491 0.128331 -6.99854e-20)
(0.15938 0.131969 0)
(0.0722753 0.137398 1.54336e-19)
(-0.0281345 0.152928 0)
(-0.141888 0.182404 0)
(-0.274042 0.220224 -1.22047e-19)
(-0.42455 0.262762 0)
(-0.591239 0.307098 9.99196e-20)
(-0.769219 0.34964 -4.54954e-20)
(-0.954045 0.387545 4.09527e-20)
(-1.14154 0.418452 -3.70519e-20)
(-1.32804 0.44085 -3.37645e-20)
(-1.51093 0.454323 0)
(-1.68811 0.45927 0)
(-1.85794 0.456642 2.70866e-20)
(-2.0192 0.447866 -2.54669e-20)
(-2.17123 0.434325 0)
(-2.31378 0.417546 0)
(-2.44725 0.398739 2.28458e-20)
(-2.57221 0.378881 0)
(-2.68933 0.358705 0)
(-2.79935 0.338884 -2.14123e-20)
(-2.903 0.319772 0)
(-3.00098 0.301728 2.08565e-20)
(-3.09393 0.28484 -4.14006e-20)
(-3.18241 0.269258 0)
(-3.26691 0.254916 0)
(-3.34784 0.241843 -8.11518e-20)
(-3.42556 0.22989 -8.08381e-20)
(-3.50034 0.219029 -8.05968e-20)
(-3.57242 0.209083 4.00198e-20)
(-3.64198 0.20001 -4.03729e-20)
(-3.70917 0.191629 -1.20634e-19)
(-3.77408 0.18389 8.02621e-20)
(-3.83678 0.176613 4.04309e-20)
(-3.89731 0.169762 0)
(-3.9557 0.163176 -4.05751e-20)
(-4.01188 0.156829 4.00369e-20)
(-4.06579 0.15057 0)
(-4.11737 0.144366 0)
(-4.16654 0.138064 0)
(-4.21319 0.131651 -4.11667e-20)
(-4.25718 0.124991 0)
(-4.29839 0.118079 8.23429e-20)
(-4.3367 0.110785 0)
(-4.37196 0.103146 8.30813e-20)
(-4.40401 0.0950513 0)
(-4.43272 0.0865401 -8.39105e-20)
(-4.45798 0.0775073 0)
(-4.47973 0.0680224 8.48133e-20)
(-4.49795 0.0580128 -4.24826e-20)
(-4.51265 0.047605 0)
(-4.52386 0.0367905 -8.61851e-20)
(-4.53164 0.0257773 -4.34687e-20)
(-4.53579 0.0146346 -4.3648e-20)
(-4.53634 0.00361225 0)
(-4.53152 -0.00742046 -4.34973e-20)
(-4.52087 -0.0185544 -4.37922e-20)
(-4.504 -0.0299239 0)
(-4.48065 -0.0414337 4.36366e-20)
(-4.45057 -0.053146 -8.69286e-20)
(-4.41351 -0.0648979 0)
(-4.36924 -0.0767096 -4.28447e-20)
(-4.31772 -0.0884679 0)
(-4.25886 -0.100205 1.2536e-19)
(-4.19267 -0.111755 0)
(-4.11909 -0.123046 -1.20377e-19)
(-4.03815 -0.133798 -3.88419e-20)
(-3.95012 -0.144154 3.87345e-20)
(-3.85532 -0.154022 7.49862e-20)
(-3.75367 -0.163405 -7.22213e-20)
(-3.6457 -0.172128 0)
(-3.53192 -0.180099 0)
(-3.41311 -0.187233 0)
(-3.28952 -0.193535 1.66131e-19)
(-3.16174 -0.198736 4.95178e-20)
(-3.03044 -0.20298 -4.47195e-20)
(-2.89593 -0.206195 0)
(-2.75891 -0.208449 -3.91418e-20)
(-2.61999 -0.209696 2.89325e-20)
(-2.47981 -0.210002 2.32919e-20)
(-2.33894 -0.209352 0)
(-2.19802 -0.207879 0)
(-2.05759 -0.205612 0)
(-1.91822 -0.202688 -7.74571e-22)
(-1.78033 -0.199113 0)
(-1.6443 -0.194984 2.19058e-20)
(-1.51043 -0.190355 5.48701e-20)
(-1.37903 -0.185311 -4.80699e-20)
(-1.25038 -0.17999 0)
(-1.12472 -0.174455 -3.4989e-20)
(-1.00227 -0.168867 0)
(-0.883155 -0.163233 -1.01659e-19)
(-0.767468 -0.157698 5.53718e-20)
(-0.655256 -0.152213 6.21849e-20)
(-0.546519 -0.146871 0)
(-0.44122 -0.141622 2.35605e-19)
(-0.339321 -0.136558 -1.6926e-19)
(-0.240741 -0.131609 -9.33104e-20)
(-0.145399 -0.126877 0)
(-0.0530179 -0.122372 -1.05959e-19)
(0.0367146 -0.118208 -3.25333e-19)
(0.123621 -0.114223 0)
(0.207462 -0.110166 -2.23883e-19)
(0.288134 -0.105651 -2.27578e-19)
(0.365782 -0.1008 -2.31131e-19)
(0.440905 -0.0959233 0)
(0.513805 -0.091269 0)
(0.584502 -0.0868589 0)
(0.653022 -0.0827742 1.2056e-19)
(0.719435 -0.0789671 1.23651e-19)
(0.783825 -0.0754847 0)
(0.846326 -0.072239 2.49645e-19)
(0.907048 -0.069256 2.5148e-19)
(0.966087 -0.0664583 0)
(1.02357 -0.0638718 2.56121e-19)
(1.07958 -0.0614285 5.12342e-19)
(1.1342 -0.0591946 -2.58771e-19)
(1.18749 -0.0570854 -2.57559e-19)
(1.23951 -0.0551205 0)
(1.29035 -0.0532379 0)
(1.34008 -0.0514975 0)
(1.38868 -0.0498697 -2.63982e-19)
(1.43615 -0.0483703 2.62946e-19)
(1.48255 -0.0469081 5.29632e-19)
(1.52801 -0.0455114 -2.66567e-19)
(1.57265 -0.0441809 2.65667e-19)
(1.61652 -0.0429204 2.68157e-19)
(1.65966 -0.0416885 0)
(1.70205 -0.0404957 0)
(1.74372 -0.0393628 -2.69196e-19)
(1.78466 -0.0382578 0)
(1.82487 -0.0371761 0)
(1.86443 -0.0361479 5.44601e-19)
(1.90333 -0.0351361 0)
(1.9415 -0.0341812 2.73147e-19)
(1.97897 -0.0332446 -2.74993e-19)
(2.01574 -0.0323141 0)
(2.05185 -0.0313849 2.75062e-19)
(2.08732 -0.030442 0)
(2.12214 -0.0294984 0)
(2.15636 -0.0286821 -2.7749e-19)
(2.19001 -0.0279104 5.54696e-19)
(2.22309 -0.0271918 -2.78119e-19)
(2.25563 -0.0265033 0)
(2.28765 -0.0258412 0)
(2.31917 -0.025202 2.77917e-19)
(2.35008 -0.0245058 0)
(2.38033 -0.0237855 2.7831e-19)
(2.40988 -0.0229201 0)
(2.4385 -0.0218501 0)
(2.46604 -0.0207517 0)
(2.49242 -0.0195256 2.80571e-19)
(2.5174 -0.0181366 0)
(2.54095 -0.0167734 -2.82589e-19)
(2.56319 -0.0154157 0)
(2.58406 -0.0138751 0)
(2.60346 -0.0123041 5.81908e-19)
(2.62116 -0.0105049 -5.9358e-19)
(2.63686 -0.00792261 0)
(2.65024 -0.00401214 0)
(2.6618 0.00169692 0)
(2.66393 0.00897373 2.04937e-18)
(2.66711 0.0161757 0)
(2.62867 0.0423417 -1.36583e-18)
(0.0480039 -0.468039 7.26232e-22)
(0.113047 -0.497459 3.36847e-19)
(0.160364 -0.435857 0)
(0.196089 -0.368393 -1.9614e-19)
(0.218941 -0.301993 0)
(0.229147 -0.23529 0)
(0.228709 -0.16894 -9.85572e-23)
(0.219078 -0.103689 7.80323e-20)
(0.201659 -0.0400679 7.92559e-20)
(0.177145 0.0198236 8.04477e-20)
(0.144601 0.0755445 0)
(0.10376 0.126915 0)
(0.0539357 0.172391 -8.77718e-20)
(-0.00666735 0.212065 -1.7716e-19)
(-0.0801309 0.247389 1.71986e-19)
(-0.1686 0.281497 0)
(-0.27367 0.318214 1.55548e-19)
(-0.396318 0.360826 -7.37013e-20)
(-0.535742 0.410215 0)
(-0.689055 0.465443 1.2804e-19)
(-0.85207 0.523334 6.00729e-20)
(-1.02 0.578772 -1.10436e-19)
(-1.18831 0.627564 -5.19491e-20)
(-1.35289 0.66727 0)
(-1.51052 0.696445 8.98424e-20)
(-1.65911 0.71415 8.46803e-20)
(-1.79767 0.720439 0)
(-1.92602 0.716323 7.63183e-20)
(-2.04466 0.703409 0)
(-2.15449 0.683451 6.99818e-20)
(-2.2566 0.65827 3.34897e-20)
(-2.35209 0.629589 0)
(-2.44212 0.598933 0)
(-2.52758 0.567586 0)
(-2.60917 0.536551 0)
(-2.68751 0.506517 0)
(-2.76308 0.477977 0)
(-2.83627 0.451202 5.87359e-20)
(-2.90736 0.426352 -8.72651e-20)
(-2.97655 0.403435 0)
(-3.04402 0.382416 0)
(-3.10987 0.363172 0)
(-3.1742 0.345577 7.53174e-23)
(-3.23705 0.329454 5.70651e-20)
(-3.29848 0.314648 1.13881e-19)
(-3.35851 0.300974 -1.13834e-19)
(-3.41717 0.288284 -5.68189e-20)
(-3.47446 0.276406 5.70985e-20)
(-3.53039 0.26521 -2.72609e-22)
(-3.58494 0.254537 5.70094e-20)
(-3.63809 0.244277 0)
(-3.68982 0.234301 5.72779e-20)
(-3.74006 0.224521 -3.61787e-22)
(-3.78875 0.214814 0)
(-3.83581 0.205099 0)
(-3.88116 0.195265 -5.80791e-20)
(-3.92472 0.185254 0)
(-3.96636 0.174969 0)
(-4.00597 0.164362 5.84641e-20)
(-4.04344 0.153355 1.18298e-19)
(-4.0786 0.141931 -5.98191e-20)
(-4.11129 0.130029 0)
(-4.14134 0.117641 6.04176e-20)
(-4.16856 0.104716 0)
(-4.19276 0.0912628 6.04688e-20)
(-4.21372 0.0772452 6.13418e-20)
(-4.23118 0.0626883 -1.22795e-19)
(-4.24484 0.0475629 -6.14851e-20)
(-4.25434 0.0318852 0)
(-4.25928 0.0156091 1.24272e-19)
(-4.25924 -0.00128055 0)
(-4.25379 -0.0187924 1.86706e-19)
(-4.2426 -0.036812 1.24337e-19)
(-4.22534 -0.0552943 1.24098e-19)
(-4.20174 -0.0741328 -1.23682e-19)
(-4.17152 -0.0932604 1.84421e-19)
(-4.13445 -0.112528 0)
(-4.09033 -0.131851 0)
(-4.03905 -0.151084 -1.19516e-19)
(-3.98049 -0.170137 -1.7598e-19)
(-3.91465 -0.188835 0)
(-3.84145 -0.207097 5.5762e-20)
(-3.761 -0.224619 0)
(-3.67348 -0.241302 -1.59218e-19)
(-3.57918 -0.256956 1.92081e-21)
(-3.47826 -0.271598 -2.10577e-21)
(-3.37123 -0.285108 9.40761e-20)
(-3.25847 -0.29735 0)
(-3.14066 -0.308126 -8.36292e-20)
(-3.01823 -0.317424 2.73021e-21)
(-2.89183 -0.325076 0)
(-2.76191 -0.331023 0)
(-2.62906 -0.33531 0)
(-2.4939 -0.337951 4.83419e-20)
(-2.35704 -0.339011 0)
(-2.21912 -0.33854 0)
(-2.08074 -0.336619 0)
(-1.94249 -0.333341 0)
(-1.80492 -0.328832 0)
(-1.66853 -0.323233 5.41159e-21)
(-1.53374 -0.316657 0)
(-1.40091 -0.309241 -1.368e-20)
(-1.27034 -0.301087 -2.16487e-20)
(-1.14231 -0.29237 2.95864e-20)
(-1.01708 -0.283217 0)
(-0.894893 -0.273818 4.52943e-20)
(-0.775906 -0.264278 0)
(-0.660239 -0.254733 6.06487e-20)
(-0.547964 -0.245247 -6.81526e-20)
(-0.439105 -0.235913 -2.21479e-19)
(-0.333654 -0.226749 0)
(-0.231555 -0.217809 -2.64841e-19)
(-0.132751 -0.209126 -9.22073e-20)
(-0.037044 -0.200782 0)
(0.0556695 -0.192805 -2.11248e-19)
(0.145326 -0.185135 -2.19277e-19)
(0.231916 -0.17768 3.41952e-19)
(0.315524 -0.170451 0)
(0.396258 -0.163484 1.21719e-19)
(0.474244 -0.156769 1.24691e-19)
(0.549686 -0.150232 3.79659e-19)
(0.622847 -0.143871 0)
(0.693887 -0.13777 0)
(0.762863 -0.131975 0)
(0.829824 -0.126509 1.35206e-19)
(0.894846 -0.121381 0)
(0.958025 -0.116587 0)
(1.01945 -0.112092 -1.43651e-19)
(1.07923 -0.107892 -1.45482e-19)
(1.13744 -0.103948 0)
(1.19418 -0.100239 0)
(1.24952 -0.0967505 -3.00941e-19)
(1.30355 -0.0934859 0)
(1.35632 -0.0904077 3.06913e-19)
(1.40789 -0.0874951 3.08282e-19)
(1.45832 -0.0847257 0)
(1.50765 -0.0821237 0)
(1.55592 -0.0796814 -3.16272e-19)
(1.60312 -0.0773732 -1.23632e-21)
(1.64931 -0.0751529 -1.18943e-21)
(1.69457 -0.0730299 0)
(1.739 -0.0709931 -6.5299e-19)
(1.78264 -0.0690338 0)
(1.82551 -0.0671338 0)
(1.86764 -0.0653084 0)
(1.90903 -0.0635408 3.36026e-19)
(1.9497 -0.0618416 0)
(1.98966 -0.0601837 -6.78754e-19)
(2.02892 -0.0585729 -3.42234e-19)
(2.06747 -0.0570249 0)
(2.10533 -0.0555147 -3.46031e-19)
(2.14251 -0.0540163 0)
(2.17904 -0.0525411 0)
(2.21492 -0.0510804 -1.05179e-18)
(2.25014 -0.0496519 7.03628e-19)
(2.28473 -0.0482964 0)
(2.31876 -0.047018 7.08772e-19)
(2.3522 -0.0458167 -3.56125e-19)
(2.38506 -0.0446713 0)
(2.41738 -0.0435569 0)
(2.44915 -0.0424604 0)
(2.48034 -0.041352 -1.0773e-18)
(2.51089 -0.0402163 0)
(2.54076 -0.0389464 -3.60755e-19)
(2.56982 -0.0375093 0)
(2.59797 -0.0359113 0)
(2.62514 -0.0341219 0)
(2.65119 -0.032165 0)
(2.67606 -0.0301336 0)
(2.69981 -0.0280423 0)
(2.72245 -0.0259295 -7.38355e-19)
(2.74397 -0.0238624 0)
(2.76436 -0.0217179 -3.80373e-19)
(2.78349 -0.0191194 1.16808e-18)
(2.80098 -0.0157479 0)
(2.81648 -0.0109746 0)
(2.82963 -0.00378757 -8.72933e-19)
(2.83622 0.00582508 -9.26406e-19)
(2.84098 0.0276804 9.97261e-19)
(2.83255 0.0681375 1.01877e-18)
(0.0154497 -0.587625 -7.40389e-19)
(0.0464038 -0.558418 -4.16041e-19)
(0.0548681 -0.477202 -2.01904e-19)
(0.0570903 -0.391838 -8.37382e-20)
(0.0527745 -0.306665 0)
(0.0405951 -0.222234 1.41931e-19)
(0.0204118 -0.139112 -6.95023e-20)
(-0.00758995 -0.0579322 0)
(-0.0434061 0.0207501 -6.82303e-20)
(-0.0873664 0.0966438 0)
(-0.140087 0.16942 1.31282e-19)
(-0.202374 0.238901 0)
(-0.275285 0.30523 6.29715e-20)
(-0.36011 0.369197 1.21593e-19)
(-0.457978 0.432209 -1.16376e-19)
(-0.569374 0.495885 0)
(-0.693513 0.561222 -1.04623e-19)
(-0.828049 0.627768 0)
(-0.96915 0.693564 0)
(-1.11246 0.755698 -8.72176e-20)
(-1.25359 0.810652 0)
(-1.38894 0.855344 3.5486e-22)
(-1.51606 0.888012 0)
(-1.63347 0.908243 0)
(-1.74068 0.916512 -4.43639e-23)
(-1.8381 0.913742 -6.22848e-20)
(-1.92667 0.901225 -5.96645e-20)
(-2.00771 0.880558 -5.6993e-20)
(-2.08271 0.853523 0)
(-2.15302 0.821901 -1.06595e-19)
(-2.21984 0.787329 0)
(-2.28417 0.751238 -5.0737e-20)
(-2.34678 0.714794 0)
(-2.40818 0.678856 0)
(-2.46873 0.644076 4.80078e-20)
(-2.52864 0.610903 0)
(-2.58803 0.579625 -4.68579e-20)
(-2.64695 0.550384 2.31968e-22)
(-2.70539 0.523223 9.1994e-20)
(-2.76334 0.498099 -9.16225e-20)
(-2.82076 0.474922 0)
(-2.87758 0.453557 0)
(-2.93378 0.433849 -4.53151e-20)
(-2.98928 0.415628 0)
(-3.04407 0.39872 -4.52689e-20)
(-3.09808 0.382949 4.52907e-20)
(-3.15129 0.368147 4.53385e-20)
(-3.20365 0.354147 0)
(-3.25513 0.340797 -4.55114e-20)
(-3.30569 0.327947 -4.56336e-20)
(-3.35528 0.315461 9.12001e-20)
(-3.40385 0.303209 -4.59403e-20)
(-3.45133 0.291077 -4.6122e-20)
(-3.49764 0.278944 0)
(-3.5427 0.266704 0)
(-3.58642 0.254251 4.67689e-20)
(-3.62869 0.241496 0)
(-3.6694 0.228346 0)
(-3.70841 0.214725 -9.50823e-20)
(-3.74557 0.200558 -9.56477e-20)
(-3.7807 0.185788 0)
(-3.81361 0.170353 0)
(-3.84408 0.154203 0)
(-3.87187 0.137284 0)
(-3.89672 0.119559 -9.87217e-20)
(-3.91834 0.100986 9.91091e-20)
(-3.93642 0.0815405 9.99379e-20)
(-3.9506 0.0611949 2.00869e-19)
(-3.96051 0.0399353 0)
(-3.96582 0.0177549 2.73676e-23)
(-3.96615 -0.00534429 0)
(-3.96117 -0.0293331 -1.01379e-19)