# vtk DataFile Version 2.0
track0
ASCII
DATASET POLYDATA
POINTS 12084 float
-0.0205 0.001 1e-05
-0.02052 0.000999985 1e-05
-0.02054 0.000999974 1e-05
-0.02056 0.000999965 1e-05
-0.02058 0.000999959 1e-05
-0.0206 0.000999956 1e-05
-0.0205 0.00367778 1e-05
-0.02052 0.00367778 1e-05
-0.02054 0.00367777 1e-05
-0.02056 0.00367777 1e-05
-0.02058 0.00367777 1e-05
-0.0206 0.00367777 1e-05
-0.0205 0.00635556 1e-05
-0.02052 0.00635555 1e-05
-0.02054 0.00635555 1e-05
-0.02056 0.00635555 1e-05
-0.02058 0.00635555 1e-05
-0.0206 0.00635555 1e-05
-0.0205 0.00903333 1e-05
-0.02052 0.00903333 1e-05
-0.02054 0.00903333 1e-05
-0.02056 0.00903333 1e-05
-0.02058 0.00903333 1e-05
-0.0206 0.00903333 1e-05
-0.0205 0.0117111 1e-05
-0.02052 0.0117111 1e-05
-0.02054 0.0117111 1e-05
-0.02056 0.0117111 1e-05
-0.02058 0.0117111 1e-05
-0.0206 0.0117111 1e-05
-0.0205 0.0143889 1e-05
-0.02052 0.0143889 1e-05
-0.02054 0.0143889 1e-05
-0.02056 0.0143889 1e-05
-0.02058 0.0143889 1e-05
-0.0206 0.0143889 1e-05
-0.0205 0.0170667 1e-05
-0.02052 0.0170667 1e-05
-0.02054 0.0170667 1e-05
-0.02056 0.0170667 1e-05
-0.02058 0.0170667 1e-05
-0.0206 0.0170667 1e-05
-0.0205 0.0197444 1e-05
-0.02052 0.0197444 1e-05
-0.02054 0.0197444 1e-05
-0.02056 0.0197444 1e-05
-0.02058 0.0197444 1e-05
-0.0206 0.0197444 1e-05
-0.0205 0.0224222 1e-05
-0.02052 0.0224222 1e-05
-0.02054 0.0224222 1e-05
-0.02056 0.0224222 1e-05
-0.02058 0.0224222 1e-05
-0.0206 0.0224222 1e-05
-0.0205 0.0251 1e-05
-0.02052 0.0250998 1e-05
-0.02054 0.0250997 1e-05
-0.02056 0.0250995 1e-05
-0.02058 0.0250995 1e-05
-0.0206 0.0250994 1e-05
-0.0205 0.001 1e-05
-0.0202034 0.00100022 1e-05
-0.0199069 0.00100067 1e-05
-0.0196103 0.00100133 1e-05
-0.0193137 0.00100219 1e-05
-0.0190172 0.00100326 1e-05
-0.0187132 0.00100467 1e-05
-0.0184093 0.00100589 1e-05
-0.0181054 0.00100711 1e-05
-0.0178015 0.00100833 1e-05
-0.0174976 0.00100954 1e-05
-0.0172058 0.00101084 1e-05
-0.016914 0.00101194 1e-05
-0.0166222 0.00101304 1e-05
-0.0163305 0.00101414 1e-05
-0.0160387 0.00101524 1e-05
-0.0157586 0.00101638 1e-05
-0.0154784 0.00101746 1e-05
-0.0151983 0.00101858 1e-05
-0.0149182 0.00101973 1e-05
-0.0146381 0.00102092 1e-05
-0.0143757 0.0010221 1e-05
-0.0141133 0.00102328 1e-05
-0.013851 0.0010245 1e-05
-0.0135886 0.00102574 1e-05
-0.0133671 0.00102682 1e-05
-0.0133524 0.00102689 1e-05
-0.0133377 0.00102696 1e-05
-0.0133229 0.00102704 1e-05
-0.0133082 0.00102711 1e-05
-0.0132934 0.00102718 1e-05
-0.0130353 0.00102847 1e-05
-0.0127771 0.00102978 1e-05
-0.0125189 0.0010311 1e-05
-0.0122607 0.00103244 1e-05
-0.0120025 0.0010338 1e-05
-0.0117547 0.00103511 1e-05
-0.0115068 0.00103643 1e-05
-0.0112589 0.00103775 1e-05
-0.0110111 0.00103908 1e-05
-0.0107632 0.00104041 1e-05
-0.0105252 0.0010417 1e-05
-0.0102873 0.00104298 1e-05
-0.0100493 0.00104426 1e-05
-0.00981133 0.00104555 1e-05
-0.00957337 0.00104683 1e-05
-0.00934491 0.00104806 1e-05
-0.00911645 0.00104929 1e-05
-0.00888799 0.00105052 1e-05
-0.00865954 0.00105174 1e-05
-0.00843108 0.00105296 1e-05
-0.00821175 0.00105413 1e-05
-0.00799242 0.0010553 1e-05
-0.00777309 0.00105646 1e-05
-0.00755376 0.00105762 1e-05
-0.00733443 0.00105878 1e-05
-0.00712387 0.00105988 1e-05
-0.0069133 0.00106099 1e-05
-0.00670273 0.00106209 1e-05
-0.00649216 0.00106319 1e-05
-0.0062816 0.00106428 1e-05
-0.00607944 0.00106533 1e-05
-0.00587729 0.00106637 1e-05
-0.00567514 0.00106741 1e-05
-0.00547298 0.00106845 1e-05
-0.00527083 0.00106949 1e-05
-0.00507675 0.00107048 1e-05
-0.00488267 0.00107147 1e-05
-0.0046886 0.00107246 1e-05
-0.00449452 0.00107345 1e-05
-0.00430044 0.00107444 1e-05
-0.00411412 0.00107538 1e-05
-0.0039278 0.00107633 1e-05
-0.00374147 0.00107728 1e-05
-0.00355515 0.00107823 1e-05
-0.00336883 0.00107917 1e-05
-0.00318995 0.00108008 1e-05
-0.00301107 0.001081 1e-05
-0.00283219 0.00108192 1e-05
-0.00265331 0.00108284 1e-05
-0.00247443 0.00108377 1e-05
-0.0023027 0.00108466 1e-05
-0.00213097 0.00108557 1e-05
-0.00195924 0.00108648 1e-05
-0.00178751 0.0010874 1e-05
-0.00161577 0.00108834 1e-05
-0.0014509 0.00108923 1e-05
-0.00128603 0.00109015 1e-05
-0.00112116 0.00109109 1e-05
-0.00095629 0.00109205 1e-05
-0.000791418 0.00109303 1e-05
-0.000633135 0.00109399 1e-05
-0.000474851 0.00109498 1e-05
-0.000316568 0.001096 1e-05
-0.000158285 0.00109704 1e-05
0 0.00109812 1e-05
0.000105677 0.00109884 1e-05
0.000211355 0.00109958 1e-05
0.000317032 0.00110033 1e-05
0.000422709 0.00110108 1e-05
0.000528387 0.00110184 1e-05
0.000634886 0.00110259 1e-05
0.000741385 0.00110335 1e-05
0.000847885 0.00110409 1e-05
0.000954384 0.00110483 1e-05
0.00106088 0.00110556 1e-05
0.00116821 0.00110628 1e-05
0.00127554 0.00110699 1e-05
0.00138286 0.00110769 1e-05
0.00149019 0.00110837 1e-05
0.00159752 0.00110903 1e-05
0.00170568 0.00110969 1e-05
0.00181384 0.00111033 1e-05
0.001922 0.00111095 1e-05
0.00203016 0.00111156 1e-05
0.00213833 0.00111215 1e-05
0.00224733 0.00111273 1e-05
0.00235633 0.0011133 1e-05
0.00246533 0.00111385 1e-05
0.00257434 0.00111439 1e-05
0.00268334 0.00111491 1e-05
0.00279319 0.00111542 1e-05
0.00290304 0.00111592 1e-05
0.00301289 0.00111641 1e-05
0.00312274 0.00111688 1e-05
0.00323259 0.00111734 1e-05
0.00334329 0.00111778 1e-05
0.003454 0.00111821 1e-05
0.0035647 0.00111863 1e-05
0.0036754 0.00111904 1e-05
0.00378611 0.00111943 1e-05
0.00389767 0.00111981 1e-05
0.00400924 0.00112018 1e-05
0.0041208 0.00112053 1e-05
0.00423237 0.00112087 1e-05
0.00434393 0.0011212 1e-05
0.00445636 0.00112151 1e-05
0.00456879 0.00112182 1e-05
0.00468123 0.00112211 1e-05
0.00479366 0.00112238 1e-05
0.00490609 0.00112265 1e-05
0.0050194 0.00112289 1e-05
0.0051327 0.00112313 1e-05
0.00524601 0.00112336 1e-05
0.00535932 0.00112358 1e-05
0.00547262 0.00112378 1e-05
0.00558681 0.00112396 1e-05
0.005701 0.00112414 1e-05
0.00581518 0.0011243 1e-05
0.00592937 0.00112445 1e-05
0.00604356 0.00112459 1e-05
0.00615863 0.00112472 1e-05
0.00627371 0.00112483 1e-05
0.00638878 0.00112494 1e-05
0.00650386 0.00112503 1e-05
0.00661893 0.00112511 1e-05
0.0067349 0.00112517 1e-05
0.00685087 0.00112523 1e-05
0.00696684 0.00112527 1e-05
0.00708281 0.00112531 1e-05
0.00719878 0.00112533 1e-05
0.00731565 0.00112533 1e-05
0.00743252 0.00112533 1e-05
0.00754939 0.00112532 1e-05
0.00766626 0.00112529 1e-05
0.00778313 0.00112525 1e-05
0.00790091 0.0011252 1e-05
0.00801869 0.00112514 1e-05
0.00813647 0.00112507 1e-05
0.00825425 0.00112498 1e-05
0.00837203 0.00112488 1e-05
0.00840692 0.00112485 1e-05
0.00844181 0.00112482 1e-05
0.0084767 0.00112478 1e-05
0.0085116 0.00112475 1e-05
0.00854576 0.00112471 1e-05
0.00862971 0.00112462 1e-05
0.00871366 0.00112453 1e-05
0.00879761 0.00112443 1e-05
0.00888156 0.00112432 1e-05
0.00896551 0.00112421 1e-05
0.00908513 0.00112404 1e-05
0.00920475 0.00112386 1e-05
0.00932437 0.00112366 1e-05
0.00944398 0.00112346 1e-05
0.0095636 0.00112324 1e-05
0.00968415 0.00112301 1e-05
0.0098047 0.00112276 1e-05
0.00992525 0.00112251 1e-05
0.0100458 0.00112224 1e-05
0.0101663 0.00112196 1e-05
0.0102878 0.00112166 1e-05
0.0104093 0.00112136 1e-05
0.0105308 0.00112104 1e-05
0.0106523 0.00112071 1e-05
0.0107738 0.00112037 1e-05
0.0108962 0.00112001 1e-05
0.0110186 0.00111964 1e-05
0.0111411 0.00111926 1e-05
0.0112635 0.00111886 1e-05
0.0113859 0.00111845 1e-05
0.0115093 0.00111803 1e-05
0.0116327 0.00111759 1e-05
0.0117561 0.00111714 1e-05
0.0118795 0.00111668 1e-05
0.0120028 0.00111621 1e-05
0.0121272 0.00111571 1e-05
0.0122515 0.00111521 1e-05
0.0123759 0.00111469 1e-05
0.0125002 0.00111416 1e-05
0.0126245 0.00111362 1e-05
0.0127498 0.00111306 1e-05
0.0128752 0.00111248 1e-05
0.0130005 0.0011119 1e-05
0.0131258 0.0011113 1e-05
0.0132511 0.00111069 1e-05
0.0133774 0.00111006 1e-05
0.0135036 0.00110941 1e-05
0.0136299 0.00110875 1e-05
0.0137562 0.00110808 1e-05
0.0138825 0.0011074 1e-05
0.0140098 0.0011067 1e-05
0.014137 0.00110598 1e-05
0.0142643 0.00110525 1e-05
0.0143915 0.0011045 1e-05
0.0145188 0.00110374 1e-05
0.0146471 0.00110297 1e-05
0.0147753 0.00110218 1e-05
0.0149036 0.00110137 1e-05
0.0150318 0.00110055 1e-05
0.0151601 0.00109971 1e-05
0.0152893 0.00109887 1e-05
0.0154186 0.001098 1e-05
0.0155478 0.00109711 1e-05
0.0156771 0.00109621 1e-05
0.0158063 0.0010953 1e-05
0.0159366 0.00109438 1e-05
0.0160668 0.00109343 1e-05
0.0161971 0.00109246 1e-05
0.0163273 0.00109148 1e-05
0.0164576 0.00109049 1e-05
0.0165889 0.00108949 1e-05
0.0167201 0.00108846 1e-05
0.0168514 0.00108741 1e-05
0.0169827 0.00108635 1e-05
0.0171139 0.00108527 1e-05
0.0172462 0.00108419 1e-05
0.0173785 0.00108308 1e-05
0.0175108 0.00108195 1e-05
0.0176431 0.00108079 1e-05
0.0177754 0.00107964 1e-05
0.0179087 0.00107847 1e-05
0.018042 0.00107728 1e-05
0.0181753 0.00107605 1e-05
0.0183087 0.00107481 1e-05
0.018442 0.00107356 1e-05
0.0185763 0.00107231 1e-05
0.0187107 0.00107103 1e-05
0.018845 0.00106971 1e-05
0.0189794 0.00106837 1e-05
0.0191137 0.00106703 1e-05
0.0192491 0.00106569 1e-05
0.0193845 0.00106431 1e-05
0.0195199 0.0010629 1e-05
0.0196553 0.00106147 1e-05
0.0197907 0.00106004 1e-05
0.0199272 0.0010586 1e-05
0.0200636 0.00105713 1e-05
0.0202001 0.00105561 1e-05
0.0203365 0.00105408 1e-05
0.020473 0.00105255 1e-05
0.0206105 0.00105102 1e-05
0.020748 0.00104944 1e-05
0.0208855 0.00104783 1e-05
0.021023 0.0010462 1e-05
0.0211606 0.00104457 1e-05
0.0212991 0.00104293 1e-05
0.0214377 0.00104125 1e-05
0.0215763 0.00103953 1e-05
0.0217149 0.00103779 1e-05
0.0218535 0.00103606 1e-05
0.0219931 0.00103431 1e-05
0.0221328 0.00103253 1e-05
0.0222724 0.0010307 1e-05
0.0224121 0.00102885 1e-05
0.0225517 0.00102701 1e-05
0.0226925 0.00102515 1e-05
0.0228332 0.00102326 1e-05
0.022974 0.00102131 1e-05
0.0231147 0.00101935 1e-05
0.0232555 0.00101739 1e-05
0.0233973 0.00101542 1e-05
0.0235391 0.0010134 1e-05
0.023681 0.00101134 1e-05
0.0238228 0.00100926 1e-05
0.0239647 0.00100718 1e-05
0.0241076 0.00100508 1e-05
0.0242505 0.00100294 1e-05
0.0243935 0.00100076 1e-05
0.0245364 0.000998557 1e-05
0.0246794 0.000996348 1e-05
0.0248234 0.000994119 1e-05
0.0249675 0.000991845 1e-05
0.0251115 0.000989538 1e-05
0.0252556 0.00098721 1e-05
[...]
POINT_DATA 12084
 FIELD attributes 1
U 3 12084 float
10.0004 	0.00734892 	0 10.0004 	0.00587914 	0 10.0003 	0.00440935 	0 10.0002 	0.00293957 	0 10.0001 	0.00146978 	0 10 	0 	0
10.0001 	0.000881491 	0 10 	0.000705193 	0 10 	0.000528895 	0 10 	0.000352597 	0 10 	0.000176298 	0 10 	0 	0
10.0001 	0.000470375 	0 10.0001 	0.000376116 	0 10.0001 	0.000281857 	0 10 	0.000187597 	0 10 	9.33377e-05 	0 10 	0 	0
10 	0.000271919 	0 10 	0.000217535 	0 10 	0.000163152 	0 10 	0.000108768 	0 10 	5.43839e-05 	0 10 	0 	0
10 	8.58491e-05 	0 10 	6.86793e-05 	0 10 	5.15095e-05 	0 10 	3.43397e-05 	0 10 	1.71698e-05 	0 10 	0 	0
10 	-2.15603e-05 	0 10 	-1.72482e-05 	0 10 	-1.29362e-05 	0 10 	-8.62411e-06 	0 10 	-4.31205e-06 	0 10 	0 	0
10 	-0.00021314 	0 10 	-0.000170512 	0 10 	-0.000127884 	0 10 	-8.52562e-05 	0 10 	-4.26281e-05 	0 10 	0 	0
10 	-0.000375847 	0 10 	-0.000300677 	0 10 	-0.000225508 	0 10 	-0.000150339 	0 10 	-7.51693e-05 	0 10 	0 	0
9.99999 	-0.000425473 	0 9.99999 	-0.000340378 	0 9.99999 	-0.000255284 	0 10 	-0.000170189 	0 10 	-8.50946e-05 	0 10 	0 	0
9.17387 	0.0871273 	0 9.1308 	0.0697019 	0 9.08741 	0.0522761 	0 9.04368 	0.0348502 	0 8.99963 	0.017424 	0 8.95524 	0 	0
10.0004 	0.00734892 	0 10.0024 	0.0152095 	0 10.0045 	0.0222338 	0 10.0065 	0.0292135 	0 10.0086 	0.036149 	0 10.0135 	0.0463431 	0 10.0164 	0.0402269 	0 10.0208 	0.0401807 	0 10.0252 	0.0401347 	0 10.0297 	0.0400889 	0 10.0356 	0.04455 	0 10.0384 	0.0379172 	0 10.0424 	0.0378781 	0 10.0464 	0.0378389 	0 10.0503 	0.0377997 	0 10.0544 	0.040903 	0 10.0566 	0.038833 	0 10.059 	0.0401479 	0 10.0615 	0.0414645 	0 10.0639 	0.0427827 	0 10.066 	0.0452434 	0 10.0675 	0.0453594 	0 10.0688 	0.0465637 	0 10.0702 	0.047769 	0 10.0715 	0.0489755 	0 10.0726 	0.049995 	0 10.0726 	0.0500633 	0 10.0727 	0.0501316 	0 10.0728 	0.0501999 	0 10.0729 	0.0502682 	0 10.0729 	0.0503263 	0 10.0735 	0.0509629 	0 10.0739 	0.051593 	0 10.0744 	0.0522236 	0 10.0749 	0.0528548 	0 10.0754 	0.0533212 	0 10.0753 	0.0536301 	0 10.0749 	0.0538331 	0 10.0745 	0.0540362 	0 10.0741 	0.0542394 	0 10.0736 	0.0542038 	0 10.0731 	0.054367 	0 10.0719 	0.0543613 	0 10.0708 	0.0543556 	0 10.0697 	0.0543499 	0 10.0681 	0.0540753 	0 10.0677 	0.0541812 	0 10.066 	0.0540728 	0 10.0643 	0.0539644 	0 10.0626 	0.053856 	0 10.06 	0.0534625 	0 10.0599 	0.0535531 	0 10.0578 	0.0533948 	0 10.0557 	0.0532365 	0 10.0536 	0.0530781 	0 10.05 	0.0526238 	0 10.0505 	0.0527303 	0 10.0481 	0.0525634 	0 10.0457 	0.0523965 	0 10.0433 	0.0522295 	0 10.0386 	0.0517615 	0 10.0399 	0.0519147 	0 10.0373 	0.0517708 	0 10.0346 	0.0516269 	0 10.032 	0.0514829 	0 10.026 	0.0510292 	0 10.0284 	0.0512535 	0 10.0256 	0.0511715 	0 10.0227 	0.0510895 	0 10.0199 	0.0510074 	0 10.0128 	0.0506185 	0 10.0163 	0.0509551 	0 10.0133 	0.0509649 	0 10.0103 	0.0509747 	0 10.0074 	0.0509845 	0 9.99896 	0.0506782 	0 10.0037 	0.0511816 	0 10.0006 	0.0514189 	0 9.99762 	0.0516562 	0 9.9946 	0.0518936 	0 9.98498 	0.0518635 	0 9.99108 	0.0526915 	0 9.98805 	0.0531853 	0 9.98502 	0.0536793 	0 9.98199 	0.0541733 	0 9.97108 	0.0543128 	0 9.97878 	0.0555009 	0 9.9761 	0.0567766 	0 9.97343 	0.0580524 	0 9.97076 	0.0593285 	0 9.95899 	0.0603948 	0 9.96893 	0.0623538 	8.0756e-22 9.9678 	0.0640918 	6.33047e-21 9.96669 	0.06583 	1.18514e-20 9.96559 	0.0675685 	1.73703e-20 9.95415 	0.0684708 	1.42993e-20 9.96633 	0.0697482 	1.07044e-19 9.96614 	0.0702708 	9.99399e-20 9.96596 	0.0707935 	9.28426e-20 9.96578 	0.0713163 	8.57521e-20 9.95428 	0.0708935 	-1.7427e-20 9.96697 	0.0706015 	-4.76095e-20 9.96681 	0.0697869 	-5.27655e-20 9.96665 	0.0689722 	-5.79168e-20 9.96648 	0.0681576 	-6.30633e-20 9.9546 	0.0670629 	-2.25913e-20 9.96685 	0.0660838 	-2.01294e-20 9.96578 	0.0645901 	-1.38188e-20 9.96469 	0.0630963 	-7.50949e-21 9.9636 	0.0616025 	-1.20142e-21 9.9508 	0.0600718 	8.8105e-21 9.96255 	0.0591706 	-4.17954e-21 9.96058 	0.0575902 	-2.46009e-20 9.95861 	0.0560095 	-4.50266e-20 9.95662 	0.0544286 	-6.54566e-20 9.9429 	0.0525977 	-9.5745e-20 9.95427 	0.0519828 	-1.45116e-19 9.95157 	0.0505666 	-1.31672e-19 9.94885 	0.04915 	-1.18214e-19 9.94613 	0.0477331 	-1.04742e-19 9.93159 	0.0457765 	-3.19392e-20 9.94258 	0.0453129 	5.06802e-20 9.93918 	0.0440071 	6.56617e-20 9.93577 	0.0427009 	8.06249e-20 9.93234 	0.0413943 	9.55701e-20 9.91706 	0.039414 	3.97603e-20 9.9276 	0.0389577 	-7.32815e-20 9.92348 	0.0376954 	-8.01423e-20 9.91935 	0.0364327 	-8.69748e-20 9.9152 	0.0351695 	-9.3779e-20 9.89924 	0.0332482 	-2.37388e-22 9.90918 	0.0327779 	8.95526e-20 9.90432 	0.0315493 	7.94186e-20 9.89944 	0.0303201 	6.92568e-20 9.89456 	0.0290906 	5.90672e-20 9.878 	0.0272598 	-2.75789e-20 9.88715 	0.026775 	-1.00576e-19 9.88155 	0.02557 	-1.25082e-19 9.87594 	0.0243645 	-1.49578e-19 9.87032 	0.0231585 	-1.74064e-19 9.85333 	0.0214122 	-1.42762e-19 9.86142 	0.0209361 	-1.78964e-19 9.8551 	0.0197699 	-1.65289e-19 9.84878 	0.0186031 	-1.51606e-19 9.84244 	0.0174358 	-1.37915e-19 9.82529 	0.0157742 	-8.57945e-20 9.83196 	0.015323 	-7.41574e-20 9.82497 	0.014209 	-5.38352e-20 9.81797 	0.0130945 	-3.35162e-20 9.81096 	0.0119794 	-1.32003e-20 9.79405 	0.0104051 	3.91733e-21 9.79884 	0.00995905 	0 9.79122 	0.00889424 	0 9.7836 	0.0078288 	0 9.77595 	0.00676273 	0 9.75978 	0.00528532 	0 9.76214 	0.00480553 	-1.52681e-20 9.75394 	0.00378307 	-3.60553e-20 9.74572 	0.00275994 	-5.68455e-20 9.73749 	0.00173612 	-7.76386e-20 9.72261 	0.000379189 	-1.00984e-19 9.72197 	-0.000181216 	-1.14997e-19 9.71322 	-0.00116884 	-1.15558e-19 9.70445 	-0.0021572 	-1.16109e-19 9.69566 	-0.0031463 	-1.16652e-19 9.68273 	-0.00435105 	-1.09034e-19 9.67846 	-0.00504007 	-6.56405e-20 9.6692 	-0.00599851 	-3.38441e-20 9.65992 	-0.00695775 	-2.0638e-21 9.65062 	-0.00791778 	2.97003e-20 9.64027 	-0.00893387 	5.82658e-20 9.63864 	-0.00914092 	6.05523e-20 9.63579 	-0.00941533 	6.05756e-20 9.63293 	-0.00968983 	6.05979e-20 9.63007 	-0.00996439 	6.06193e-20 9.62727 	-0.0102333 	6.06393e-20 9.6203 	-0.0108991 	6.13573e-20 9.61332 	-0.0115653 	6.20735e-20 9.60633 	-0.012232 	6.27878e-20 9.59933 	-0.0128991 	6.35003e-20 9.58764 	-0.013756 	6.49962e-20 9.58159 	-0.014517 	5.15694e-20 9.57132 	-0.0154406 	3.81405e-20 9.56102 	-0.0163652 	2.47098e-20 9.55072 	-0.0172907 	1.12771e-20 9.52965 	-0.0186048 	-6.4733e-22 9.52863 	-0.0191852 	-1.06338e-20 9.51798 	-0.0200972 	-2.33909e-20 9.50731 	-0.0210102 	-3.6146e-20 9.49662 	-0.0219243 	-4.88993e-20 9.46989 	-0.0233433 	-6.16633e-20 9.47327 	-0.0238177 	-6.37126e-20 9.46229 	-0.0247232 	-7.1387e-20 9.45128 	-0.0256297 	-7.90563e-20 9.44025 	-0.0265373 	-8.67205e-20 9.40874 	-0.0279861 	-1.04165e-19 9.41584 	-0.0284316 	-1.48351e-19 9.40456 	-0.0293346 	-1.38191e-19 9.39325 	-0.0302387 	-1.28052e-19 9.38193 	-0.0311441 	-1.17934e-19 9.34656 	-0.0325458 	-4.35815e-20 9.35668 	-0.0330364 	-2.87481e-20 9.34515 	-0.03394 	-2.03595e-20 9.33359 	-0.0348447 	-1.19696e-20 9.32201 	-0.0357507 	-3.57854e-21 9.28366 	-0.0370331 	0 9.29614 	-0.0376351 	0 9.28439 	-0.0385407 	0 9.27262 	-0.0394475 	0 9.26081 	-0.0403556 	0 9.22032 	-0.041453 	0 9.23456 	-0.0422217 	2.19029e-21 9.22262 	-0.0431313 	9.90082e-21 9.21066 	-0.0440421 	1.76101e-20 9.19867 	-0.0449543 	2.53181e-20 9.15679 	-0.0458148 	4.38709e-20 9.17224 	-0.046799 	1.65208e-19 9.16015 	-0.0477152 	1.68859e-19 9.14803 	-0.0486328 	1.72534e-19 9.13589 	-0.0495517 	1.76233e-19 9.09327 	-0.0501329 	4.41904e-20 9.10947 	-0.0513682 	2.37194e-20 9.09726 	-0.0522939 	1.65607e-20 9.08501 	-0.0532209 	9.40058e-21 9.07161 	-0.0541248 	3.08479e-21 9.02997 	-0.0544234 	1.77421e-20 9.04411 	-0.0558922 	1.12115e-19 9.03422 	-0.056879 	1.22531e-19 9.02187 	-0.0578187 	1.24527e-19 9.00528 	-0.0586197 	1.09086e-19 8.96705 	-0.0587046 	4.26565e-21 8.97835 	-0.0603612 	-1.06943e-19 8.97127 	-0.0614736 	-1.40368e-19 8.95886 	-0.0624296 	-1.51308e-19 8.9398 	-0.0630832 	-1.37875e-19 8.90466 	-0.0629992 	-6.51287e-20 8.91342 	-0.0648234 	-1.91516e-19 8.90863 	-0.0661052 	-2.39337e-19 8.89616 	-0.0670805 	-2.42703e-19 8.87527 	-0.0675493 	-1.8694e-19 8.84293 	-0.0673255 	-5.04135e-20 8.84944 	-0.069283 	-2.66965e-20 8.84649 	-0.070762 	-1.09871e-20 8.83398 	-0.0717571 	-3.37007e-21 8.8118 	-0.0720159 	0 8.78196 	-0.0716899 	0 8.78648 	-0.07375 	0 8.78497 	-0.0754448 	0 8.77245 	-0.0764642 	0 8.74944 	-0.0765054 	2.44984e-21 8.72184 	-0.0761189 	5.96993e-21 8.72462 	-0.0782828 	2.6492e-21 8.72425 	-0.080223 	0 8.71173 	-0.0812726 	0 8.68826 	-0.081079 	2.95437e-21 8.66267 	-0.0806447 	6.48025e-21 8.66392 	-0.0829064 	3.16045e-21 8.66444 	-0.085114 	3.23275e-22 8.65194 	-0.086192 	7.11135e-21 8.62831 	-0.0857399 	2.66077e-20 8.60451 	-0.0852619 	4.63171e-20 8.60445 	-0.0875839 	1.81076e-19 8.60431 	-0.0899085 	3.15837e-19 8.59191 	-0.0909396 	3.16456e-19 8.56966 	-0.0904597 	1.81789e-19 8.54741 	-0.0899796 	4.71187e-20 8.54622 	-0.0923557 	2.77858e-20 8.54495 	-0.0947343 	8.45543e-21 8.53316 	-0.0957546 	9.68384e-22 8.51227 	-0.0952881 	4.35387e-21 8.49139 	-0.0948213 	7.73931e-21 8.48924 	-0.0972391 	4.57126e-21 8.48699 	-0.0996594 	1.4047e-21 8.47585 	-0.100662 	-1.12011e-21 8.45614 	-0.100205 	-5.09301e-21 8.43643 	-0.0997468 	-9.06539e-21 8.43343 	-0.10216 	-5.57197e-20 8.43034 	-0.104575 	-1.02381e-19 8.41985 	-0.105559 	-1.05135e-19 8.40118 	-0.10515 	-6.26137e-20 8.38252 	-0.104741 	-2.00904e-20 8.37879 	-0.107143 	8.52371e-20 8.37496 	-0.109548 	1.90555e-19 8.36514 	-0.110532 	2.01602e-19 8.3474 	-0.110215 	1.13479e-19 8.32965 	-0.109897 	2.53534e-20 8.32526 	-0.11233 	1.29101e-20 8.32078 	-0.114764 	4.60866e-22 8.31161 	-0.115765 	-5.83092e-21 8.29468 	-0.115521 	-8.05912e-22 8.27775 	-0.115277 	4.21929e-21 8.27278 	-0.117738 	-2.13352e-21 8.26726 	-0.120029 	-9.21533e-21 8.25805 	-0.121013 	-2.17472e-20 8.24298 	-0.121013 	-6.81944e-20 8.22674 	-0.120819 	-1.21352e-19 8.22125 	-0.123259 	-2.59847e-19 8.21464 	-0.125281 	-3.50098e-19 8.20549 	-0.126307 	-3.25829e-19 8.1922 	-0.126611 	-2.15214e-19 8.17659 	-0.126509 	-5.61739e-20 8.17064 	-0.128948 	7.59728e-20 8.16316 	-0.130733 	1.43017e-19 8.15406 	-0.131811 	1.39669e-19 8.14231 	-0.132412 	9.5849e-20 8.12723 	-0.132405 	6.26277e-22 8.12084 	-0.134854 	-9.36635e-20 8.11266 	-0.136422 	-1.30723e-19 8.10359 	-0.137554 	-1.39521e-19 8.09319 	-0.138442 	-1.27099e-19 8.07859 	-0.138523 	-4.51915e-20 8.07183 	-0.140985 	-3.37399e-20 8.06311 	-0.142342 	-2.24015e-20 8.05404 	-0.143524 	-1.10834e-20 8.04482 	-0.144685 	4.41264e-22 8.0306 	-0.144843 	2.20074e-20 8.02335 	-0.147229 	-3.80053e-22 8.01431 	-0.148453 	-6.43075e-21 8.00523 	-0.149678 	-1.2483e-20 7.99611 	-0.150903 	-1.85369e-20 7.98318 	-0.151332 	-7.23905e-21 7.97531 	-0.153486 	-2.23184e-20 7.96625 	-0.154759 	-2.89379e-20 7.95715 	-0.156032 	-3.55624e-20 7.948 	-0.157307 	-4.21919e-20 7.93629 	-0.158027 	-5.78665e-20 7.92792 	-0.15997 	1.5061e-21 7.91881 	-0.161296 	2.48439e-21 7.90965 	-0.162622 	3.43001e-21 7.90044 	-0.16395 	4.34286e-21 7.88979 	-0.164956 	-2.7593e-20 7.881 	-0.166685 	2.46339e-21 7.87181 	-0.168063 	3.96116e-21 7.86256 	-0.169443 	5.42868e-21 7.85326 	-0.170823 	6.86585e-21 7.84355 	-0.172118 	7.58286e-22 7.84015 	-0.17275 	-2.21933e-22 7.83667 	-0.173289 	-2.0447e-22 7.83317 	-0.173829 	-1.87009e-22 7.82967 	-0.174369 	-1.6955e-22 7.82626 	-0.174894 	-1.52578e-22 7.82021 	-0.175794 	-1.20536e-22 7.81414 	-0.176694 	-8.8488e-23 7.80805 	-0.177595 	-5.64332e-23 7.80194 	-0.178496 	-2.43717e-23 7.79652 	-0.179245 	0 7.78662 	-0.180876 	0 7.77687 	-0.182365 	0 7.76706 	-0.183855 	0 7.7572 	-0.185345 	0 7.74913 	-0.186444 	0 7.73874 	-0.188338 	0 7.72885 	-0.189867 	0 7.71891 	-0.191396 	0 7.7089 	-0.192927 	0 7.7018 	-0.193834 	0 7.69092 	-0.195982 	0 7.68089 	-0.19755 	0 7.67079 	-0.199118 	0 7.66063 	-0.200688 	0 7.65446 	-0.201422 	0 7.64308 	-0.203827 	0 7.63285 	-0.205451 	0 7.62256 	-0.207066 	0 7.61297 	-0.208528 	0 7.60693 	-0.209249 	0 7.5954 	-0.211694 	0 7.58459 	-0.213597 	0 7.57408 	-0.215254 	0 7.56539 	-0.216519 	0 7.559 	-0.217292 	0 7.5473 	-0.219757 	0 7.53593 	-0.221931 	-3.39955e-21 7.52516 	-0.223619 	-1.24974e-20 7.51732 	-0.224683 	-2.16227e-20 7.51058 	-0.225512 	-3.07581e-20 7.49869 	-0.228001 	-2.04781e-20 7.48677 	-0.230453 	-1.06389e-20 7.47577 	-0.232165 	-9.59192e-21 7.46865 	-0.233059 	-1.87744e-20 7.46149 	-0.233953 	-2.79552e-20 7.44937 	-0.236491 	-1.75764e-20 7.43716 	-0.23903 	-7.19117e-21 7.42671 	-0.240761 	0 7.41912 	-0.241699 	0 7.4115 	-0.242637 	0 7.39913 	-0.24521 	0 7.38666 	-0.247784 	0 7.37668 	-0.249568 	-1.60295e-21 7.36861 	-0.250538 	-5.96529e-21 7.3605 	-0.251509 	-1.03268e-20 7.34783 	-0.254097 	-4.22229e-20 7.33507 	-0.256686 	-7.41154e-20 7.32556 	-0.258519 	-7.40711e-20 7.31699 	-0.259518 	-5.81558e-20 7.30838 	-0.260517 	-4.22319e-20 7.29539 	-0.263111 	-1.81252e-20 7.28318 	-0.265505 	-2.38155e-21 7.27349 	-0.267306 	-1.15079e-20 7.26419 	-0.268619 	-2.86461e-20 7.25509 	-0.269652 	-5.04088e-20 7.24176 	-0.272254 	-6.23691e-20 7.2303 	-0.274392 	-6.66633e-20 7.22018 	-0.2762 	-6.54839e-20 7.21016 	-0.277819 	-5.72976e-20 7.20056 	-0.27886 	-2.7884e-20 7.18684 	-0.281451 	-2.48306e-20 7.1761 	-0.283309 	-1.72057e-20 7.16555 	-0.285107 	-9.20961e-21 7.15493 	-0.286906 	-1.21808e-21 7.14477 	-0.288058 	0 7.13159 	-0.290411 	0 7.12067 	-0.292187 	0 7.10967 	-0.293964 	0 7.0986 	-0.295741 	0 7.0877 	-0.297186 	0 7.07525 	-0.299226 	0 7.06388 	-0.300976 	0 7.05244 	-0.302726 	0 7.04093 	-0.304477 	0 7.02935 	-0.306226 	-3.40399e-23 7.02929 	-0.306237 	2.96406e-25 7.02922 	-0.306247 	7.69638e-25 7.02916 	-0.306256 	1.24287e-24 7.02909 	-0.306265 	1.71611e-24 7.02903 	-0.306275 	2.18916e-24 7.01702 	-0.308007 	7.58925e-23 7.00493 	-0.309741 	1.49549e-22 6.99277 	-0.311475 	2.23159e-22 6.98054 	-0.31321 	2.96722e-22 6.96985 	-0.314702 	3.69184e-22 6.95662 	-0.31673 	-1.44711e-20 6.94394 	-0.318446 	-1.70268e-20 6.93119 	-0.320163 	-1.95996e-20 6.91837 	-0.32188 	-2.21897e-20 6.90872 	-0.32308 	3.38268e-21 6.89432 	-0.325369 	6.81672e-22 6.88114 	-0.327023 	6.8092e-21 6.8679 	-0.328679 	1.29326e-20 6.85537 	-0.330207 	1.91115e-20 6.8461 	-0.331204 	2.55356e-20 6.83116 	-0.333471 	1.79416e-20 6.8169 	-0.335352 	1.39654e-20 6.80314 	-0.336943 	1.27203e-20 6.79179 	-0.338135 	1.16635e-20 6.78196 	-0.339072 	1.07257e-20 6.76649 	-0.34128 	9.19183e-21 6.75101 	-0.343449 	7.62747e-21 6.73688 	-0.34495 	5.87758e-21 6.72662 	-0.345804 	8.02915e-21 6.71632 	-0.34666 	1.01777e-20 6.70041 	-0.348788 	6.23813e-21 6.6844 	-0.350917 	2.29123e-21 6.6709 	-0.352365 	1.53626e-21 6.6601 	-0.353133 	4.03435e-21 6.64926 	-0.353902 	6.52965e-21 6.63282 	-0.355929 	2.24052e-21 6.61628 	-0.357957 	-2.05571e-21 6.60336 	-0.359358 	-2.95637e-21 6.59211 	-0.360015 	-6.17913e-21 6.58084 	-0.360669 	-9.41803e-21 6.56393 	-0.362564 	-6.7768e-21 6.54841 	-0.364207 	-4.13238e-21 6.53538 	-0.365412 	-1.48047e-21 6.52292 	-0.366315 	0 6.5112 	-0.366835 	0 6.49379 	-0.368588 	0 6.47969 	-0.369763 	-2.25356e-21 6.46624 	-0.370817 	-4.98593e-21 6.45275 	-0.371872 	-7.71949e-21 6.44047 	-0.372327 	-1.04638e-20 6.42383 	-0.373726 	-9.04784e-21 6.41007 	-0.37464 	-9.57236e-21 6.39626 	-0.375555 	-1.00992e-20 6.38239 	-0.37647 	-1.06285e-20 6.36891 	-0.377192 	-1.05406e-20 6.36097 	-0.377742 	-1.52273e-20 6.354 	-0.378123 	-1.43395e-20 6.34703 	-0.378504 	-1.34503e-20 6.34004 	-0.378884 	-1.25594e-20 6.3332 	-0.379256 	-1.16878e-20 6.32584 	-0.37966 	-1.02273e-20 6.31846 	-0.380064 	-8.76394e-21 6.31107 	-0.380468 	-7.29766e-21 6.30367 	-0.380873 	-5.82847e-21 6.29692 	-0.381114 	-9.07463e-21 6.2821 	-0.381924 	-9.19607e-21 6.26734 	-0.382539 	-8.71831e-21 6.25254 	-0.383154 	-8.23863e-21 6.23769 	-0.38377 	-7.75701e-21 6.22486 	-0.383873 	-2.30676e-21 6.20947 	-0.384872 	-6.58273e-21 6.19445 	-0.385289 	-2.47466e-21 6.17938 	-0.385707 	1.63348e-21 6.16501 	-0.385946 	5.22392e-21 6.1527 	-0.385677 	7.35484e-21 6.13704 	-0.386518 	1.99688e-20 6.12152 	-0.387102 	2.85532e-20 6.10623 	-0.387318 	3.14197e-20 6.09316 	-0.386977 	1.68932e-20 6.08072 	-0.386473 	-2.68353e-21 6.06486 	-0.387094 	-6.37485e-22 6.04895 	-0.387716 	1.40327e-21 6.03426 	-0.387638 	6.74229e-23 6.02179 	-0.386876 	-2.15624e-21 6.00931 	-0.386115 	-4.38028e-21 5.99333 	-0.386491 	-3.35409e-21 5.97731 	-0.386868 	-2.33015e-21 5.96381 	-0.386564 	2.58388e-21 5.95137 	-0.385555 	5.76155e-21 5.93893 	-0.384546 	8.93941e-21 5.9229 	-0.384684 	6.43644e-21 5.90791 	-0.384554 	6.03848e-21 5.895 	-0.383908 	9.70853e-21 5.88235 	-0.382992 	1.49985e-20 5.87006 	-0.381727 	2.23898e-20 5.85408 	-0.381612 	2.67886e-20 5.84091 	-0.380799 	2.47192e-20 5.82817 	-0.379879 	2.16588e-20 5.81543 	-0.378959 	1.85984e-20 5.80322 	-0.37757 	1.37191e-20 5.78871 	-0.376869 	1.6051e-20 5.77623 	-0.37567 	1.50262e-20 5.76376 	-0.374472 	1.4002e-20 5.7513 	-0.373273 	1.29784e-20 5.73893 	-0.37201 	1.15027e-20 5.73664 	-0.371839 	1.18238e-20 5.73465 	-0.371598 	1.17296e-20 5.73265 	-0.371357 	1.16354e-20 5.73066 	-0.371116 	1.15412e-20 5.72866 	-0.370874 	1.14469e-20 5.71891 	-0.369669 	1.17988e-20 5.70917 	-0.368463 	1.215e-20 5.69945 	-0.367257 	1.25006e-20 5.68973 	-0.366051 	1.28506e-20 5.68074 	-0.364497 	7.75954e-21 5.66973 	-0.363102 	7.6865e-21 5.65849 	-0.361406 	5.20444e-21 5.64727 	-0.35971 	2.72304e-21 5.63608 	-0.358014 	2.42312e-22 5.62646 	-0.355568 	3.52834e-21 5.61618 	-0.354199 	3.71017e-22 5.60549 	-0.352333 	-1.22711e-21 5.59478 	-0.350402 	-2.61819e-21 5.58476 	-0.348158 	-1.50397e-21 5.57582 	-0.345415 	3.62581e-21 5.56609 	-0.343802 	-1.91496e-20 5.55625 	-0.342034 	-3.57705e-20 5.54612 	-0.339888 	-3.74782e-20 5.53744 	-0.337068 	-1.74536e-20 5.52906 	-0.334135 	6.20755e-21 5.51994 	-0.332302 	3.18043e-21 5.51086 	-0.33047 	1.50381e-22 5.50199 	-0.328034 	1.02799e-21 5.49413 	-0.32494 	4.26395e-21 5.48634 	-0.321846 	7.49694e-21 5.47789 	-0.319819 	4.84894e-21 5.46948 	-0.317791 	2.19941e-21 5.46219 	-0.315133 	0 5.45494 	-0.311917 	0 5.44777 	-0.308701 	0 5.44002 	-0.306512 	0 5.43262 	-0.304187 	-1.15961e-22 5.42639 	-0.301332 	-6.8438e-22 5.41993 	-0.298192 	-1.23374e-21 5.41338 	-0.294902 	-1.77251e-21 5.40637 	-0.292595 	-5.48716e-21 5.40023 	-0.289904 	-5.37049e-21 5.39465 	-0.286982 	-2.95357e-21 5.38906 	-0.283998 	-1.53756e-22 5.38315 	-0.280679 	4.71032e-21 5.37692 	-0.278284 	-3.24433e-21 5.3719 	-0.275342 	-1.69896e-21 5.36696 	-0.272402 	-1.63959e-22 5.36209 	-0.269462 	1.36066e-21 5.35695 	-0.266275 	8.80784e-21 5.35188 	-0.26366 	1.00989e-20 5.34749 	-0.260748 	5.4106e-21 5.34318 	-0.257838 	7.28964e-22 5.33893 	-0.25493 	-3.94603e-21 5.33463 	-0.25194 	-9.64193e-21 5.33204 	-0.250285 	-1.10399e-20 5.32969 	-0.248532 	-1.24406e-20 5.32736 	-0.24678 	-1.38402e-20 5.32506 	-0.245027 	-1.52388e-20 5.32262 	-0.243146 	-1.67395e-20 5.32135 	-0.242094 	-1.76928e-20 5.3201 	-0.241042 	-1.86452e-20 5.31885 	-0.23999 	-1.95968e-20 5.31761 	-0.238939 	-2.05473e-20 5.31649 	-0.237839 	-1.99046e-20 5.31351 	-0.235164 	-1.85447e-20 5.31052 	-0.232457 	-1.64829e-20 5.30761 	-0.229752 	-1.44205e-20 5.30475 	-0.227048 	-1.23574e-20 5.30227 	-0.224197 	-8.71742e-21 5.30001 	-0.221766 	-6.91186e-21 5.29756 	-0.219236 	-4.76806e-21 5.29517 	-0.216707 	-2.6258e-21 5.29284 	-0.21418 	-4.8509e-22 5.29098 	-0.211448 	7.2465e-22 5.28942 	-0.209275 	-4.33035e-21 5.28746 	-0.206971 	-4.65454e-21 5.28555 	-0.204668 	-4.97478e-21 5.2837 	-0.202364 	-5.23355e-21 5.28234 	-0.199838 	-5.37631e-22 5.28135 	-0.197928 	-1.05983e-23 5.2799 	-0.195913 	-1.01429e-21 5.27843 	-0.193884 	-2.2509e-21 5.27709 	-0.19181 	-4.29205e-21 5.27602 	-0.189612 	-8.44808e-21 5.27546 	-0.187985 	-1.48106e-20 5.27457 	-0.186311 	-1.77164e-20 5.27347 	-0.184604 	-1.81391e-20 5.27251 	-0.182836 	-1.43058e-20 5.27169 	-0.181012 	-6.62299e-21 5.27149 	-0.179718 	-3.94815e-21 5.27112 	-0.178409 	-1.31379e-21 5.27033 	-0.17707 	1.232e-21 5.26964 	-0.175675 	2.30628e-21 5.26901 	-0.174264 	2.92192e-21 5.26911 	-0.173344 	7.36294e-21 5.2692 	-0.172425 	1.1563e-20 5.26866 	-0.171486 	1.19714e-20 5.26815 	-0.170506 	6.36528e-21 5.26765 	-0.169526 	6.96774e-22 5.268 	-0.169004 	8.24152e-22 5.26836 	-0.168483 	9.5214e-22 5.26813 	-0.167974 	3.32024e-22 5.26771 	-0.167466 	1.18393e-21 5.2673 	-0