# vtk DataFile Version 2.0
track0
ASCII
DATASET POLYDATA
POINTS 12084 float
-0.0205 0.001 1e-05
-0.02052 0.000999985 1e-05
-0.02054 0.000999974 1e-05
-0.02056 0.000999965 1e-05
-0.02058 0.000999959 1e-05
-0.0206 0.000999956 1e-05
-0.0205 0.00367778 1e-05
-0.02052 0.00367778 1e-05
-0.02054 0.00367777 1e-05
-0.02056 0.00367777 1e-05
-0.02058 0.00367777 1e-05
-0.0206 0.00367777 1e-05
-0.0205 0.00635556 1e-05
-0.02052 0.00635555 1e-05
-0.02054 0.00635555 1e-05
-0.02056 0.00635555 1e-05
-0.02058 0.00635555 1e-05
-0.0206 0.00635555 1e-05
-0.0205 0.00903333 1e-05
-0.02052 0.00903333 1e-05
-0.02054 0.00903333 1e-05
-0.02056 0.00903333 1e-05
-0.02058 0.00903333 1e-05
-0.0206 0.00903333 1e-05
-0.0205 0.0117111 1e-05
-0.02052 0.0117111 1e-05
-0.02054 0.0117111 1e-05
-0.02056 0.0117111 1e-05
-0.02058 0.0117111 1e-05
-0.0206 0.0117111 1e-05
-0.0205 0.0143889 1e-05
-0.02052 0.0143889 1e-05
-0.02054 0.0143889 1e-05
-0.02056 0.0143889 1e-05
-0.02058 0.0143889 1e-05
-0.0206 0.0143889 1e-05
-0.0205 0.0170667 1e-05
-0.02052 0.0170667 1e-05
-0.02054 0.0170667 1e-05
-0.02056 0.0170667 1e-05
-0.02058 0.0170667 1e-05
-0.0206 0.0170667 1e-05
-0.0205 0.0197444 1e-05
-0.02052 0.0197444 1e-05
-0.02054 0.0197444 1e-05
-0.02056 0.0197444 1e-05
-0.02058 0.0197444 1e-05
-0.0206 0.0197444 1e-05
-0.0205 0.0224222 1e-05
-0.02052 0.0224222 1e-05
-0.02054 0.0224222 1e-05
-0.02056 0.0224222 1e-05
-0.02058 0.0224222 1e-05
-0.0206 0.0224222 1e-05
-0.0205 0.0251 1e-05
-0.02052 0.0250998 1e-05
-0.02054 0.0250997 1e-05
-0.02056 0.0250995 1e-05
-0.02058 0.0250995 1e-05
-0.0206 0.0250994 1e-05
-0.0205 0.001 1e-05
-0.0202034 0.00100022 1e-05
-0.0199069 0.00100067 1e-05
-0.0196103 0.00100133 1e-05
-0.0193137 0.00100219 1e-05
-0.0190172 0.00100326 1e-05
-0.0187132 0.00100467 1e-05
-0.0184093 0.00100589 1e-05
-0.0181054 0.00100711 1e-05
-0.0178015 0.00100833 1e-05
-0.0174976 0.00100954 1e-05
-0.0172058 0.00101084 1e-05
-0.016914 0.00101194 1e-05
-0.0166222 0.00101304 1e-05
-0.0163305 0.00101414 1e-05
-0.0160387 0.00101524 1e-05
-0.0157586 0.00101638 1e-05
-0.0154784 0.00101746 1e-05
-0.0151983 0.00101858 1e-05
-0.0149182 0.00101973 1e-05
-0.0146381 0.00102092 1e-05
-0.0143757 0.0010221 1e-05
-0.0141133 0.00102328 1e-05
-0.013851 0.0010245 1e-05
-0.0135886 0.00102574 1e-05
-0.0133671 0.00102682 1e-05
-0.0133524 0.00102689 1e-05
-0.0133377 0.00102696 1e-05
-0.0133229 0.00102704 1e-05
-0.0133082 0.00102711 1e-05
-0.0132934 0.00102718 1e-05
-0.0130353 0.00102847 1e-05
-0.0127771 0.00102978 1e-05
-0.0125189 0.0010311 1e-05
-0.0122607 0.00103244 1e-05
-0.0120025 0.0010338 1e-05
-0.0117547 0.00103511 1e-05
-0.0115068 0.00103643 1e-05
-0.0112589 0.00103775 1e-05
-0.0110111 0.00103908 1e-05
-0.0107632 0.00104041 1e-05
-0.0105252 0.0010417 1e-05
-0.0102873 0.00104298 1e-05
-0.0100493 0.00104426 1e-05
-0.00981133 0.00104555 1e-05
-0.00957337 0.00104683 1e-05
-0.00934491 0.00104806 1e-05
-0.00911645 0.00104929 1e-05
-0.00888799 0.00105052 1e-05
-0.00865954 0.00105174 1e-05
-0.00843108 0.00105296 1e-05
-0.00821175 0.00105413 1e-05
-0.00799242 0.0010553 1e-05
-0.00777309 0.00105646 1e-05
-0.00755376 0.00105762 1e-05
-0.00733443 0.00105878 1e-05
-0.00712387 0.00105988 1e-05
-0.0069133 0.00106099 1e-05
-0.00670273 0.00106209 1e-05
-0.00649216 0.00106319 1e-05
-0.0062816 0.00106428 1e-05
-0.00607944 0.00106533 1e-05
-0.00587729 0.00106637 1e-05
-0.00567514 0.00106741 1e-05
-0.00547298 0.00106845 1e-05
-0.00527083 0.00106949 1e-05
-0.00507675 0.00107048 1e-05
-0.00488267 0.00107147 1e-05
-0.0046886 0.00107246 1e-05
-0.00449452 0.00107345 1e-05
-0.00430044 0.00107444 1e-05
-0.00411412 0.00107538 1e-05
-0.0039278 0.00107633 1e-05
-0.00374147 0.00107728 1e-05
-0.00355515 0.00107823 1e-05
-0.00336883 0.00107917 1e-05
-0.00318995 0.00108008 1e-05
-0.00301107 0.001081 1e-05
-0.00283219 0.00108192 1e-05
-0.00265331 0.00108284 1e-05
-0.00247443 0.00108377 1e-05
-0.0023027 0.00108466 1e-05
-0.00213097 0.00108557 1e-05
-0.00195924 0.00108648 1e-05
-0.00178751 0.0010874 1e-05
-0.00161577 0.00108834 1e-05
-0.0014509 0.00108923 1e-05
-0.00128603 0.00109015 1e-05
-0.00112116 0.00109109 1e-05
-0.00095629 0.00109205 1e-05
-0.000791418 0.00109303 1e-05
-0.000633135 0.00109399 1e-05
-0.000474851 0.00109498 1e-05
-0.000316568 0.001096 1e-05
-0.000158285 0.00109704 1e-05
0 0.00109812 1e-05
0.000105677 0.00109884 1e-05
0.000211355 0.00109958 1e-05
0.000317032 0.00110033 1e-05
0.000422709 0.00110108 1e-05
0.000528387 0.00110184 1e-05
0.000634886 0.00110259 1e-05
0.000741385 0.00110335 1e-05
0.000847885 0.00110409 1e-05
0.000954384 0.00110483 1e-05
0.00106088 0.00110556 1e-05
0.00116821 0.00110628 1e-05
0.00127554 0.00110699 1e-05
0.00138286 0.00110769 1e-05
0.00149019 0.00110837 1e-05
0.00159752 0.00110903 1e-05
0.00170568 0.00110969 1e-05
0.00181384 0.00111033 1e-05
0.001922 0.00111095 1e-05
0.00203016 0.00111156 1e-05
0.00213833 0.00111215 1e-05
0.00224733 0.00111273 1e-05
0.00235633 0.0011133 1e-05
0.00246533 0.00111385 1e-05
0.00257434 0.00111439 1e-05
0.00268334 0.00111491 1e-05
0.00279319 0.00111542 1e-05
0.00290304 0.00111592 1e-05
0.00301289 0.00111641 1e-05
0.00312274 0.00111688 1e-05
0.00323259 0.00111734 1e-05
0.00334329 0.00111778 1e-05
0.003454 0.00111821 1e-05
0.0035647 0.00111863 1e-05
0.0036754 0.00111904 1e-05
0.00378611 0.00111943 1e-05
0.00389767 0.00111981 1e-05
0.00400924 0.00112018 1e-05
0.0041208 0.00112053 1e-05
0.00423237 0.00112087 1e-05
0.00434393 0.0011212 1e-05
0.00445636 0.00112151 1e-05
0.00456879 0.00112182 1e-05
0.00468123 0.00112211 1e-05
0.00479366 0.00112238 1e-05
0.00490609 0.00112265 1e-05
0.0050194 0.00112289 1e-05
0.0051327 0.00112313 1e-05
0.00524601 0.00112336 1e-05
0.00535932 0.00112358 1e-05
0.00547262 0.00112378 1e-05
0.00558681 0.00112396 1e-05
0.005701 0.00112414 1e-05
0.00581518 0.0011243 1e-05
0.00592937 0.00112445 1e-05
0.00604356 0.00112459 1e-05
0.00615863 0.00112472 1e-05
0.00627371 0.00112483 1e-05
0.00638878 0.00112494 1e-05
0.00650386 0.00112503 1e-05
0.00661893 0.00112511 1e-05
0.0067349 0.00112517 1e-05
0.00685087 0.00112523 1e-05
0.00696684 0.00112527 1e-05
0.00708281 0.00112531 1e-05
0.00719878 0.00112533 1e-05
0.00731565 0.00112533 1e-05
0.00743252 0.00112533 1e-05
0.00754939 0.00112532 1e-05
0.00766626 0.00112529 1e-05
0.00778313 0.00112525 1e-05
0.00790091 0.0011252 1e-05
0.00801869 0.00112514 1e-05
0.00813647 0.00112507 1e-05
0.00825425 0.00112498 1e-05
0.00837203 0.00112488 1e-05
0.00840692 0.00112485 1e-05
0.00844181 0.00112482 1e-05
0.0084767 0.00112478 1e-05
0.0085116 0.00112475 1e-05
0.00854576 0.00112471 1e-05
0.00862971 0.00112462 1e-05
0.00871366 0.00112453 1e-05
0.00879761 0.00112443 1e-05
0.00888156 0.00112432 1e-05
0.00896551 0.00112421 1e-05
0.00908513 0.00112404 1e-05
0.00920475 0.00112386 1e-05
0.00932437 0.00112366 1e-05
0.00944398 0.00112346 1e-05
0.0095636 0.00112324 1e-05
0.00968415 0.00112301 1e-05
0.0098047 0.00112276 1e-05
0.00992525 0.00112251 1e-05
0.0100458 0.00112224 1e-05
0.0101663 0.00112196 1e-05
0.0102878 0.00112166 1e-05
0.0104093 0.00112136 1e-05
0.0105308 0.00112104 1e-05
0.0106523 0.00112071 1e-05
0.0107738 0.00112037 1e-05
0.0108962 0.00112001 1e-05
0.0110186 0.00111964 1e-05
0.0111411 0.00111926 1e-05
0.0112635 0.00111886 1e-05
0.0113859 0.00111845 1e-05
0.0115093 0.00111803 1e-05
0.0116327 0.00111759 1e-05
0.0117561 0.00111714 1e-05
0.0118795 0.00111668 1e-05
0.0120028 0.00111621 1e-05
0.0121272 0.00111571 1e-05
0.0122515 0.00111521 1e-05
0.0123759 0.00111469 1e-05
0.0125002 0.00111416 1e-05
0.0126245 0.00111362 1e-05
0.0127498 0.00111306 1e-05
0.0128752 0.00111248 1e-05
0.0130005 0.0011119 1e-05
0.0131258 0.0011113 1e-05
0.0132511 0.00111069 1e-05
0.0133774 0.00111006 1e-05
0.0135036 0.00110941 1e-05
0.0136299 0.00110875 1e-05
0.0137562 0.00110808 1e-05
0.0138825 0.0011074 1e-05
0.0140098 0.0011067 1e-05
0.014137 0.00110598 1e-05
0.0142643 0.00110525 1e-05
0.0143915 0.0011045 1e-05
0.0145188 0.00110374 1e-05
0.0146471 0.00110297 1e-05
0.0147753 0.00110218 1e-05
0.0149036 0.00110137 1e-05
0.0150318 0.00110055 1e-05
0.0151601 0.00109971 1e-05
0.0152893 0.00109887 1e-05
0.0154186 0.001098 1e-05
0.0155478 0.00109711 1e-05
0.0156771 0.00109621 1e-05
0.0158063 0.0010953 1e-05
0.0159366 0.00109438 1e-05
0.0160668 0.00109343 1e-05
0.0161971 0.00109246 1e-05
0.0163273 0.00109148 1e-05
0.0164576 0.00109049 1e-05
0.0165889 0.00108949 1e-05
0.0167201 0.00108846 1e-05
0.0168514 0.00108741 1e-05
0.0169827 0.00108635 1e-05
0.0171139 0.00108527 1e-05
0.0172462 0.00108419 1e-05
0.0173785 0.00108308 1e-05
0.0175108 0.00108195 1e-05
0.0176431 0.00108079 1e-05
0.0177754 0.00107964 1e-05
0.0179087 0.00107847 1e-05
0.018042 0.00107728 1e-05
0.0181753 0.00107605 1e-05
0.0183087 0.00107481 1e-05
0.018442 0.00107356 1e-05
0.0185763 0.00107231 1e-05
0.0187107 0.00107103 1e-05
0.018845 0.00106971 1e-05
0.0189794 0.00106837 1e-05
0.0191137 0.00106703 1e-05
0.0192491 0.00106569 1e-05
0.0193845 0.00106431 1e-05
0.0195199 0.0010629 1e-05
0.0196553 0.00106147 1e-05
0.0197907 0.00106004 1e-05
0.0199272 0.0010586 1e-05
0.0200636 0.00105713 1e-05
0.0202001 0.00105561 1e-05
0.0203365 0.00105408 1e-05
0.020473 0.00105255 1e-05
0.0206105 0.00105102 1e-05
0.020748 0.00104944 1e-05
0.0208855 0.00104783 1e-05
0.021023 0.0010462 1e-05
0.0211606 0.00104457 1e-05
0.0212991 0.00104293 1e-05
0.0214377 0.00104125 1e-05
0.0215763 0.00103953 1e-05
0.0217149 0.00103779 1e-05
0.0218535 0.00103606 1e-05
0.0219931 0.00103431 1e-05
0.0221328 0.00103253 1e-05
0.0222724 0.0010307 1e-05
0.0224121 0.00102885 1e-05
0.0225517 0.00102701 1e-05
0.0226925 0.00102515 1e-05
0.0228332 0.00102326 1e-05
0.022974 0.00102131 1e-05
0.0231147 0.00101935 1e-05
0.0232555 0.00101739 1e-05
0.0233973 0.00101542 1e-05
0.0235391 0.0010134 1e-05
0.023681 0.00101134 1e-05
0.0238228 0.00100926 1e-05
0.0239647 0.00100718 1e-05
0.0241076 0.00100508 1e-05
0.0242505 0.00100294 1e-05
0.0243935 0.00100076 1e-05
0.0245364 0.000998557 1e-05
0.0246794 0.000996348 1e-05
0.0248234 0.000994119 1e-05
0.0249675 0.000991845 1e-05
0.0251115 0.000989538 1e-05
0.0252556 0.00098721 1e-05
[...]
POINT_DATA 12084
 FIELD attributes 2
p 1 12084 float
-5.65976 -5.65645 -5.65314 -5.64983 -5.64652 -5.64322
-5.81333 -5.81331 -5.81329 -5.81326 -5.81324 -5.81322
-5.98826 -5.98813 -5.98801 -5.98789 -5.98776 -5.98766
-6.08265 -6.0826 -6.08254 -6.08249 -6.08244 -6.08238
-6.1288 -6.12869 -6.12857 -6.12846 -6.12835 -6.12823
-6.13625 -6.13609 -6.13592 -6.13576 -6.1356 -6.13544
-6.11004 -6.10996 -6.10989 -6.10982 -6.10975 -6.10968
-6.04095 -6.04091 -6.04087 -6.04083 -6.04079 -6.04075
-5.92 -5.92001 -5.92001 -5.92002 -5.92003 -5.92003
-3.70758 -3.72691 -3.7461 -3.76517 -3.7841 -3.80289
-5.65976 -5.65907 -5.65549 -5.65182 -5.64808 -5.63979 -5.65365 -5.66861 -5.68357 -5.69853 -5.72292 -5.74459 -5.77442 -5.80425 -5.83408 -5.86671 -5.88223 -5.90378 -5.92534 -5.94689 -5.97006 -5.98868 -6.00929 -6.02991 -6.05053 -6.06794 -6.06909 -6.07025 -6.0714 -6.07256 -6.07371 -6.0951 -6.11649 -6.13788 -6.15927 -6.18038 -6.19879 -6.217 -6.23522 -6.25343 -6.27107 -6.28624 -6.30112 -6.31601 -6.33089 -6.3452 -6.35839 -6.3713 -6.38422 -6.39714 -6.40958 -6.42153 -6.43317 -6.44481 -6.45646 -6.46764 -6.47845 -6.48888 -6.49931 -6.50974 -6.5197 -6.52936 -6.53862 -6.54788 -6.55714 -6.566 -6.5746 -6.58272 -6.59083 -6.59895 -6.6067 -6.61423 -6.62128 -6.62833 -6.63538 -6.64227 -6.64888 -6.65463 -6.66038 -6.66612 -6.67183 -6.67774 -6.68352 -6.6893 -6.69507 -6.7021 -6.70974 -6.71619 -6.72264 -6.72909 -6.73692 -6.74843 -6.76496 -6.78149 -6.79802 -6.81942 -6.84262 -6.87278 -6.90295 -6.93311 -6.96301 -6.99131 -7.02119 -7.05108 -7.08097 -7.10671 -7.12618 -7.14483 -7.16348 -7.18213 -7.19938 -7.21234 -7.22427 -7.2362 -7.24813 -7.25985 -7.27065 -7.27988 -7.28912 -7.29836 -7.30658 -7.31584 -7.3234 -7.33096 -7.33853 -7.34457 -7.35188 -7.35763 -7.36338 -7.36913 -7.37348 -7.37862 -7.38252 -7.38643 -7.39034 -7.39336 -7.39678 -7.39929 -7.4018 -7.40432 -7.40638 -7.4087 -7.41031 -7.41192 -7.41353 -7.41493 -7.41672 -7.41795 -7.41918 -7.42041 -7.42149 -7.42309 -7.42425 -7.4254 -7.42656 -7.42754 -7.42898 -7.43007 -7.43115 -7.43224 -7.43316 -7.4344 -7.43538 -7.43636 -7.43735 -7.43824 -7.43943 -7.4405 -7.44156 -7.44263 -7.44368 -7.44412 -7.44454 -7.44496 -7.44538 -7.44579 -7.44679 -7.44779 -7.4488 -7.4498 -7.45108 -7.45265 -7.4545 -7.45634 -7.45818 -7.46072 -7.46224 -7.46439 -7.46654 -7.4687 -7.47193 -7.47334 -7.47573 -7.47812 -7.48052 -7.48436 -7.48572 -7.48839 -7.49105 -7.49372 -7.49816 -7.49959 -7.50257 -7.50556 -7.50855 -7.51358 -7.51517 -7.51851 -7.52185 -7.5252 -7.53076 -7.53262 -7.53632 -7.54003 -7.54373 -7.54975 -7.55194 -7.556 -7.56005 -7.56411 -7.57047 -7.57305 -7.57742 -7.58179 -7.58624 -7.59275 -7.59588 -7.60039 -7.60503 -7.60997 -7.61641 -7.62009 -7.6247 -7.62959 -7.63491 -7.64127 -7.64544 -7.6502 -7.6553 -7.6609 -7.6672 -7.6718 -7.67674 -7.68201 -7.68782 -7.69406 -7.69905 -7.7042 -7.70964 -7.71562 -7.72183 -7.72716 -7.73255 -7.73815 -7.74417 -7.75028 -7.75584 -7.76141 -7.76709 -7.77303 -7.77897 -7.78463 -7.79031 -7.79601 -7.80181 -7.80761 -7.81333 -7.81906 -7.82473 -7.83039 -7.83605 -7.84174 -7.84743 -7.85302 -7.8585 -7.86398 -7.86956 -7.87514 -7.88059 -7.88587 -7.89115 -7.89656 -7.90196 -7.90723 -7.9123 -7.91736 -7.92255 -7.92774 -7.9328 -7.9376 -7.9424 -7.94732 -7.95222 -7.95701 -7.96155 -7.96606 -7.97065 -7.97521 -7.97967 -7.98392 -7.98805 -7.99225 -7.9964 -8.00047 -8.0044 -8.00815 -8.01193 -8.01562 -8.01926 -8.02283 -8.02614 -8.02946 -8.03266 -8.03584 -8.03901 -8.04186 -8.04473 -8.04741 -8.0501 -8.05279 -8.05518 -8.05755 -8.05967 -8.0618 -8.06392 -8.06576 -8.06746 -8.06891 -8.07037 -8.07183 -8.07308 -8.07395 -8.07467 -8.07539 -8.07611 -8.07678 -8.0768 -8.07679 -8.07677 -8.07675 -8.07674 -8.07675 -8.07677 -8.07679 -8.07681 -8.07677 -8.0761 -8.07535 -8.0746 -8.07385 -8.07295 -8.07166 -8.07012 -8.06859 -8.06706 -8.06525 -8.06332 -8.06095 -8.05858 -8.05622 -8.05341 -8.05078 -8.04749 -8.04419 -8.0408 -8.03695 -8.03335 -8.02927 -8.02499 -8.02044 -8.01558 -8.01095 -8.00606 -8.00074 -7.99497 -7.98903 -7.98331 -7.97756 -7.97108 -7.96395 -7.95682 -7.94986 -7.9429 -7.93528 -7.92705 -7.91882 -7.91067 -7.90254 -7.89387 -7.88464 -7.87541 -7.86618 -7.85695 -7.84726 -7.837 -7.82673 -7.81641 -7.80597 -7.79515 -7.78398 -7.7726 -7.76115 -7.74939 -7.73741 -7.7253 -7.71276 -7.70011 -7.68697 -7.67379 -7.66062 -7.64698 -7.63296 -7.61857 -7.60419 -7.58982 -7.57524 -7.55982 -7.54422 -7.52863 -7.51305 -7.49747 -7.49738 -7.49729 -7.4972 -7.49711 -7.49701 -7.48041 -7.46382 -7.44724 -7.43067 -7.41387 -7.39624 -7.37841 -7.3606 -7.34279 -7.32461 -7.30607 -7.28717 -7.26829 -7.24932 -7.23 -7.21035 -7.19053 -7.17058 -7.15042 -7.13012 -7.10937 -7.08863 -7.06778 -7.04678 -7.02579 -7.00423 -6.98268 -6.96113 -6.9396 -6.91806 -6.89584 -6.87364 -6.85148 -6.82943 -6.80738 -6.78457 -6.76183 -6.73918 -6.71661 -6.69414 -6.67088 -6.64778 -6.62473 -6.60169 -6.57884 -6.55525 -6.53184 -6.50845 -6.48506 -6.46174 -6.44997 -6.43831 -6.42665 -6.41499 -6.40361 -6.39166 -6.37972 -6.36778 -6.35584 -6.34409 -6.3204 -6.29692 -6.27345 -6.24999 -6.22724 -6.20333 -6.18016 -6.15699 -6.13414 -6.11214 -6.08862 -6.06554 -6.04307 -6.02172 -6.00069 -5.97801 -5.95534 -5.93409 -5.9143 -5.89449 -5.87288 -5.85128 -5.83122 -5.81272 -5.79422 -5.77378 -5.75398 -5.73544 -5.71755 -5.70051 -5.68144 -5.66416 -5.64714 -5.63013 -5.61438 -5.59776 -5.58247 -5.56717 -5.55187 -5.53675 -5.53435 -5.53214 -5.52993 -5.52772 -5.5255 -5.51398 -5.50245 -5.49093 -5.4794 -5.4688 -5.45595 -5.44408 -5.4322 -5.42032 -5.41048 -5.39868 -5.38861 -5.37877 -5.36978 -5.36216 -5.35241 -5.34324 -5.33549 -5.32962 -5.32405 -5.31645 -5.30883 -5.30328 -5.29965 -5.29601 -5.29049 -5.28495 -5.2812 -5.27951 -5.27779 -5.27431 -5.27117 -5.26942 -5.26891 -5.26907 -5.26758 -5.26707 -5.26713 -5.26747 -5.26938 -5.26982 -5.27161 -5.27338 -5.27514 -5.27814 -5.28083 -5.28419 -5.28754 -5.29086 -5.29462 -5.29737 -5.30033 -5.30328 -5.30623 -5.30938 -5.31108 -5.31278 -5.31447 -5.31616 -5.31792 -5.32362 -5.32948 -5.33533 -5.34116 -5.34714 -5.35347 -5.3604 -5.36731 -5.37421 -5.38122 -5.3881 -5.39587 -5.40362 -5.41136 -5.41904 -5.42646 -5.43469 -5.44304 -5.4513 -5.45937 -5.46729 -5.47564 -5.48431 -5.49272 -5.50089 -5.509 -5.51729 -5.52599 -5.53418 -5.5422 -5.55023 -5.55828 -5.56672 -5.57429 -5.58186 -5.58951 -5.59715 -5.60477 -5.6116 -5.61843 -5.62541 -5.6324 -5.63887 -5.64463 -5.65039 -5.65638 -5.66237 -5.6674 -5.67182 -5.67624 -5.68096 -5.68568 -5.68898 -5.69174 -5.69451 -5.69762 -5.70058 -5.70194 -5.70285 -5.70369 -5.70492 -5.70552 -5.7048 -5.70367 -5.70224 -5.70125 -5.69905 -5.69595 -5.69259 -5.68862 -5.68511 -5.67968 -5.67388 -5.66808 -5.66122 -5.65452 -5.64569 -5.63685 -5.62801 -5.61837 -5.60762 -5.5954 -5.58318 -5.57095 -5.55835 -5.5495 -5.54005 -5.53059 -5.52114 -5.51284 -5.50623 -5.49962 -5.49301 -5.48641 -5.47933 -5.46 -5.44031 -5.42063 -5.40094 -5.37952 -5.35688 -5.33284 -5.30881 -5.28478 -5.25746 -5.23101 -5.20277 -5.17408 -5.14383 -5.11163 -5.08039 -5.04869 -5.01505 -4.9779 -4.94055 -4.90417 -4.86778 -4.82825 -4.78557 -4.74284 -4.70108 -4.65889 -4.61318 -4.56566 -4.51725 -4.46984 -4.41936 -4.36786 -4.31634 -4.26268 -4.22072 -4.17644 -4.13215 -4.08784 -4.04972 -4.03552 -4.02132 -4.00713 -3.99293 -3.97792 -3.91615 -3.85362 -3.7911 -3.72857 -3.66173 -3.59588 -3.52836 -3.45968 -3.38755 -3.31423 -3.2421 -3.16996 -3.09418 -3.01478 -2.93516 -2.85671 -2.77571 -2.69276 -2.60979 -2.52452 -2.48638 -2.44625 -2.40611 -2.36596 -2.32867 -2.27981 -2.23095 -2.18209 -2.13321 -2.08175 -1.99041 -1.8966 -1.8028 -1.70632 -1.60776 -1.51045 -1.41314 -1.31256 -1.20862 -1.10422 -1.00595 -0.904512 -0.802393 -0.700267 -0.611691 -0.603904 -0.596118 -0.588331 -0.580485 -0.572399 -0.461813 -0.350892 -0.239994 -0.127936 -0.0126958 0.101318 0.215318 0.331866 0.451052 0.570937 0.664943 0.760489 0.856865 0.953233 1.04 1.06706 1.09412 1.12117 1.14847 1.17623 1.29947 1.42361 1.5477 1.67351 1.80095 1.92723 2.05378 2.18201 2.3102 2.44031 2.47084 2.50154 2.53241 2.56328 2.59333 2.69265 2.79195 2.89122 2.99099 3.09189 3.22288 3.35383 3.48527 3.61745 3.75074 3.80901 3.86729 3.92561 3.98392 4.0397 4.11436 4.18901 4.26363 4.33831 4.41339 4.54581 4.67817 4.81032 4.9423 5.07543 5.13704 5.19849 5.25961 5.32071 5.37946 5.45035 5.52122 5.59208 5.66261 5.73331 5.86394 5.99452 6.12416 6.25306 6.38301 6.43138 6.47958 6.52721 6.57484 6.62132 6.70173 6.78211 6.86247 6.94196 7.02145 7.14754 7.27357 7.39755 7.52093 7.64482 7.67185 7.69875 7.72516 7.75155 7.77772 7.87337 7.96902 8.06464 8.15827 8.25181 8.36293 8.47355 8.5814 8.68924 8.79476 8.80352 8.81229 8.82105 8.82961 8.83813 8.95276 9.06704 9.18127 9.29188 9.40256 9.46726 9.53169 9.59409 9.6565 9.71913 9.76436 9.80958 9.85481 9.89864 9.94223 10.0475 10.1527 10.2553 10.356 10.4561 10.4808 10.5053 10.5289 10.5525 10.5764 10.651 10.7257 10.8003 10.8724 10.9437 11.0324 11.1206 11.2056 11.2907 11.3807 11.3854 11.39 11.3946 11.3991 11.4035 11.492 11.5802 11.6685 11.7533 11.8369 11.8988 11.9601 12.0193 12.0785 12.1419 12.1623 12.1827 12.2032 12.2229 12.2424 12.3205 12.3981 12.4749 12.5487 12.6217 12.6739 12.7252 12.775 12.8247 12.8792 12.8985 12.9179 12.9372 12.956 12.9744 13.042 13.1089 13.1756 13.2394 13.3024 13.3629 13.422 13.4798 13.5375 13.6044 13.6045 13.6046 13.6047 13.6048 13.6049 13.6618 13.7187 13.7756 13.8314 13.8853 13.9383 13.9914 14.0426 14.0926 14.1422 14.1781 14.2128 14.2471 14.2814 14.3206 14.3321 14.3435 14.355 14.3664 14.3774 14.4215 14.4652 14.5089 14.5518 14.5934 14.6338 14.6743 14.7135 14.7517 14.7896 14.8264 14.8623 14.8975 14.9328 14.9675 14.9814 14.9947 15.0081 15.0214 15.0359 15.0547 15.0735 15.0923 15.1111 15.1292 15.1591 15.1886 15.2182 15.2473 15.2757 15.3026 15.3296 15.356 15.3817 15.4073 15.4316 15.4558 15.4792 15.5024 15.5254 15.5472 15.5684 15.5894 15.6103 15.6311 15.6496 15.6678 15.6859 15.7039 15.7255 15.7255 15.7255 15.7256 15.7256 15.7256 15.7427 15.7597 15.7768 15.7938 15.8105 15.8257 15.8409 15.8561 15.8713 15.8862 15.8997 15.9132 15.9268 15.9403 15.9536 15.9656 15.9776 15.9897 16.0017 16.0137 16.0244 16.0351 16.0458 16.0566 16.0673 16.0769 16.0865 16.0961 16.1059 16.1156 16.1243 16.133 16.1417 16.1506 16.1595 16.1675 16.1756 16.1837 16.1918 16.2002 16.2077 16.2155 16.2233 16.2311 16.2391 16.2466 16.2545 16.2623 16.2701 16.278 16.286 16.2943 16.3027 16.311 16.3193 16.3283 16.3374 16.3465 16.3556 16.3646 16.37 16.3755 16.381 16.3865 16.3961 16.4006 16.4051 16.4096 16.4141 16.4187 16.4288 16.4387 16.4485 16.4582 16.4679 16.4771 16.4863 16.4955 16.4977 16.503 16.5083 16.5135 16.5187 16.5241 16.5248 16.5236 16.5224 16.5212 16.5199 16.5177 16.5152 16.5124 16.5093 16.4912 16.4555 16.4194 16.3832 16.3465 16.3039 16.2587 16.2181 16.1796 16.1436 16.1098 16.074 16.0382 16.0025 15.967 15.9315 15.8935 15.8554 15.815 15.7722 15.7293 15.6837 15.638 15.591 15.5429 15.4947 15.4437 15.3926 15.3405 15.288 15.2354 15.1798 15.1238 15.0669 15.0094 14.9515 14.8904 14.8283 14.7655 14.7024 14.6381 14.5705 14.5012 14.4318 14.3624 14.2915 14.2165 14.1397 14.063 13.9863 13.9083 13.8248 13.74 13.6551 13.5703 13.4847 13.3917 13.2978 13.2039 13.11 13.016 12.9946 12.9731 12.9516 12.9301 12.9076 12.8254 12.7433 12.6611 12.5789 12.496 12.3815 12.2661 12.1508 12.0354 11.9183 11.7921 11.6638 11.5355 11.4072 11.276 11.1367 10.9936 10.8504 10.7073 10.5594 10.4049 10.2453 10.0856 9.92585 9.76016 9.58912 9.4102 9.23045 9.04895 8.86031 8.66553 8.46694 8.26675 8.06451 7.85886 7.64644 7.42427 7.19289 6.95077 6.70004 6.44095 6.18481 5.93468 5.6911 5.45005 5.2008 4.94061 4.61867 4.22805 3.83056 3.41899 3.00735 2.72064 2.55015 2.37973 2.20308 2.02658 1.54558 0.772226 0