/*--------------------------------*- C++ -*----------------------------------*\
| =========                 |                                                 |
| \\      /  F ield         | OpenFOAM: The Open Source CFD Toolbox           |
|  \\    /   O peration     | Version:  2312                                  |
|   \\  /    A nd           | Website:  www.openfoam.com                      |
|    \\/     M anipulation  |                                                 |
\*---------------------------------------------------------------------------*/
FoamFile
{
    version     2.0;
    format      ascii;
    arch        "LSB;label=64;scalar=64";
    class       volScalarField;
    location    "110";
    object      omega;
}
// * * * * * * * * * * * * * * * * * * * * * * * * * * * * * * * * * * * * * //

dimensions      [0 0 -1 0 0 0 0];

internalField   nonuniform List<scalar> 
404911
(
296.126
220.589
3451.63
1536.68
208.449
233.398
193.743
607.353
345.161
283.751
245.681
331.478
209.743
303.435
449.116
1126.34
272.87
217.736
238.881
376.352
530.587
263.856
707.706
502.725
223.598
982.967
274.228
200.691
264.746
995.417
242.723
202.579
358.667
514.143
247.412
193.007
350.76
445.174
244.05
159.494
261.119
1018.25
232.344
146.302
171.954
403.308
338.683
147.763
173.738
893.294
394.983
297.945
210.856
1350.82
348.425
587.503
9403.4
176.325
323.111
222.55
263.527
162.436
174.137
95.0931
83.4192
155.008
176.898
376.494
122.194
122.647
142.728
53.6058
183.957
105.067
52.963
601.686
2270.69
243.923
92.1407
184.465
109.062
203.107
48.6479
121.137
169.493
80.352
319.594
90.6102
1131.86
273.293
201.772
2968.65
140.558
240.128
154.532
116.626
138.123
230.575
102.389
234.226
660.412
167.596
135.719
509.723
1299.74
537.003
276.204
720.318
365.277
293.461
232.462
237.096
228.131
244.307
2345.04
565.111
249.799
4602.7
639.279
211.63
212.701
210.501
212.711
295.494
1386.9
363.798
246.825
230.403
206.904
564.968
505.086
555.391
209.636
196.755
206.293
197.345
255.652
267.839
199.474
304.915
1246.37
352.291
232.559
213.23
210.461
202.81
200.443
187.392
543.658
482.322
194.348
186.023
207.089
1835.74
304.693
1039.12
286.545
203.004
190.364
199.068
197.112
199.142
195.558
189.793
183.111
178.369
180.588
183.218
201.633
282.995
434.798
628.179
480.187
445.471
441.94
449.332
537.953
192.354
191.581
181.604
181.795
181.787
194.221
212.634
224.587
226.792
320.791
745.676
494.349
419.786
415.086
298.215
362.375
554.025
472.123
181.458
183.786
180.637
191.6
202.876
214.06
251.615
1223.08
1041.27
286.737
625.255
320.147
275.843
249.977
434.998
424.781
317.798
358.616
440.065
463.927
167.535
186.425
196.945
200.282
230.725
533.773
910.206
637.301
292.444
269.851
206.076
233.039
236.178
266.568
387.831
408.767
393.97
291.627
149.978
191.89
201.665
226.899
328.869
1261.89
1274.16
313.897
150.686
214.202
192.997
183.618
176.246
205.038
428.517
311.266
232.524
217.794
239.48
299.791
494.217
192.75
240.88
1164.13
495.46
187.84
131.095
275.855
203.469
188.522
180.896
191.221
187.828
188.319
164.822
211.623
256.918
385.973
472.658
562.182
456.868
508.423
229.963
174.358
446.521
233.183
186.073
199.913
184.262
185.042
192.168
172.657
173.153
340.901
368.008
447.673
499.834
1742.85
388.195
200.264
174.112
158.15
167.246
181.546
192.365
168.908
180.423
177.861
187.031
188.816
200.28
448.407
399.039
461.304
270.526
1077.03
1026.73
927.922
321.9
267.234
152.643
136.951
193.167
167.1
190.453
184.456
184.311
174.659
178.148
197.715
251.046
362.158
206.567
579.237
1158.7
279.306
167.138
167.048
175.561
180.426
185.552
128.07
191.283
159.602
196.762
155.17
141.911
163.454
174.984
231.679
584.039
283.319
501.302
180.633
129.177
134.948
140.799
249.315
166.288
177.929
123.076
145.585
117.867
125.459
157.747
124.071
158.985
240.633
207.074
1042.26
1186.71
288.807
165.231
136.579
123.559
120.451
150.17
144.158
116.199
111.792
106.566
155.036
153.884
171.409
134.13
153.057
395.422
940.642
378.701
163.106
134.278
202.727
217.433
141.715
147.742
139.02
111.265
100.965
103.459
121.011
146.993
164.056
193.397
159.304
317.275
768.254
1153.12
936.139
336.656
203.074
183.958
180.121
164.785
125.661
148.44
123.846
115.556
113.809
118.874
135.331
184.274
174.866
172.714
484.953
471.421
191.102
167.244
155.761
151.567
140.018
127.48
184.205
134.514
182.415
137.372
136.573
132.493
149.078
137.434
161.64
315.201
1024.16
213.491
142.977
171.356
128.569
128.49
133.779
112.306
128.535
148.563
161.502
181.44
186.515
160.314
149.972
202.512
182.54
356.146
467.144
160.584
189.191
160.725
124.333
118.67
133.19
110.725
93.963
115.858
185.235
165.198
161.066
183.514
172.04
214.148
206.19
1054.2
277.558
134.934
127.605
112.594
112.362
111.202
120.636
145.952
85.8321
86.7813
103.477
134.235
159.942
186.733
244.933
192.936
325.537
1252.5
494.432
195.829
138.633
123.988
113.015
103.538
110.756
115.862
98.2922
93.5156
83.5436
97.5384
113.897
126.834
216.146
133.12
212.822
1071.4
1165.33
257.129
136.487
174.272
132.015
116.807
106.436
99.4737
95.8618
108.896
91.325
98.3482
128.36
127.942
133.868
139.597
178.664
333.027
452.148
166.968
133.178
119.383
113.762
110.447
106.17
108.718
111.988
88.7557
89.8882
101.65
128.107
157.515
177.859
168.483
208.318
1060.91
1162.77
243.266
128.062
119.349
109.873
105.748
102.831
102.078
101.03
104.427
116.211
108.43
113.108
120.683
140.455
157.357
201.058
307.033
929.313
165.171
131.573
115.012
104.25
100.381
96.0027
95.3216
96.2518
97.1485
94.7914
103.263
107.973
115.722
128.607
156.52
222.746
359.736
292.081
136.566
154.071
124.204
106.464
96.921
94.1398
89.8887
87.4731
90.7681
95.7762
102.412
110.796
117.341
143.12
160.38
188.947
548.057
269.654
156.293
153.767
124.912
110.862
98.1406
99.0255
90.0412
85.2189
85.8499
92.5143
102.628
112.439
130.987
133.437
146.34
278.637
1169.94
1212.05
206.045
131.917
137.851
125.257
113.39
104.053
99.1224
106.644
86.8061
85.9891
91.9503
103.07
114.24
126.341
173.006
188.407
498.846
977.472
187.599
132.942
115.234
109.517
106.671
101.415
93.43
89.4214
97.7606
93.2559
92.2424
100.972
115.901
125.421
155.019
196.308
1115.53
319.785
161.437
138.874
121.891
114.188
110.947
105.721
95.4444
85.72
80.4865
83.4122
92.4074
104.086
112.766
148.093
135.265
205.772
1152.74
303.139
142.779
119.778
113.722
109.117
113.485
115.784
87.8182
89.6812
88.7449
92.1337
98.8151
109.237
119.915
130.064
147.008
302.026
1076.83
222.752
138.958
122.637
111.22
105.373
99.1027
108.538
103.987
77.7648
83.8418
93.9108
102.208
111.084
122.055
146.98
171.633
485.037
465.645
168.413
168.645
158.716
118.572
106.309
96.6413
83.1199
106.345
87.9806
66.6978
87.5213
106.225
112
122.187
143.927
190.648
1051.8
308.24
143.755
119.387
113.175
105.18
105.075
111.66
89.0036
87.7162
69.1827
96.0715
83.3284
102.331
111.948
117.867
152.433
242.846
1186.1
1096.79
206.631
134.536
124.159
111.378
105.102
96.0505
105.708
100.33
88.8991
81.2838
63.1541
97.8023
109.875
111.714
126.334
136.923
274.488
1090.06
194.781
130.008
114.17
105.552
99.9343
95.9423
91.2043
102.952
100.511
95.3139
79.6707
79.9074
99.5165
111.892
120.701
151.957
455.662
1072.04
191.943
130.446
111.848
105.971
98.7296
91.9329
88.6409
87.3419
85.9133
81.7144
89.7165
73.3215
102.158
122.268
141.329
169.313
948.148
1065.16
185.971
128.801
110.81
103.896
99.6992
92.5143
86.6968
85.0989
86.7591
74.595
72.4733
89.7116
104.173
125.743
163.206
234.073
1178.49
301.424
162.946
132.878
112.934
102.816
96.3107
90.9618
86.2156
82.3651
82.6401
81.4754
77.1108
87.0069
108.691
122.119
156.702
258.486
1194.25
276.489
139.217
119.509
110.856
100.134
91.6962
85.2642
81.964
83.9017
79.8128
83.1234
87.9875
88.1199
111.93
115.186
152.839
252.602
1146.99
192.821
141.257
140.966
111.684
101.874
91.0344
83.4672
78.2813
78.1917
82.8013
84.2674
86.9617
100.888
114.518
131.552
141.953
268.955
1025.41
190.247
130.228
110.046
103.918
97.8927
91.1238
87.5826
90.5765
81.406
79.5079
82.0764
90.595
99.1826
108.156
131.145
135.513
283.004
1095.99
192.044
130.316
112.036
103.289
98.9308
91.3088
84.2035
82.5326
94.3818
91.682
81.337
86.054
98.0402
107.24
129.838
143.327
302.445
1094.38
196.256
132.213
113.006
104.284
97.1773
89.9898
82.0908
78.6024
74.8963
76.1278
79.5235
88.2602
97.5527
110.235
123.53
157.953
457.158
1022.99
185.093
129.987
112.969
103.567
94.8956
84.0277
75.8885
69.6829
71.2375
75.2925
83.0953
93.1915
102.119
111.204
134.572
186.838
1036.3
313.835
178.845
128.674
113.309
102.986
91.7228
79.5655
67.5454
62.3413
60.2143
69.6528
82.2274
93.7928
103.909
112.321
129.714
187.38
1118.79
318.511
172.712
124.768
114.048
105.881
86.9043
80.2993
66.5391
58.3145
52.8213
60.8292
81.8043
94.9957
102.103
112.294
131.646
184.478
1080.63
1210.36
224.803
166.004
128.428
109.902
107.891
97.4921
67.3735
75.4789
54.5031
54.4025
49.7691
64.545
96.5263
103.939
110.516
139.001
199.091
1066.22
1092.72
185.021
129.183
183.328
126.817
102.718
99.5344
91.2659
64.9339
54.6161
49.3291
47.4724
77.9098
108.154
110.435
114.447
132.563
247.965
189.481
126.29
110.912
105.35
100.989
95.1958
79.0183
74.6669
60.8499
60.2492
45.9708
75.066
94.7191
109.162
127.133
132.02
261.31
1017.14
185.821
122.707
105.18
101.745
100.013
98.0007
90.5856
73.7543
84.399
51.9399
41.4107
59.1592
100.805
108.905
136.861
141.63
306.519
1051.62
172.981
118.115
102.022
100.318
100.368
95.6801
94.7021
87.633
66.3982
73.8384
52.4964
66.6045
104.733
107.094
130.34
148.47
460.165
1150.46
169.652
121.113
105.569
100.935
99.6669
95.2981
90.898
92.5486
81.5955
60.0683
81.209
98.5505
104.524
112.7
121.186
155.96
887.849
157.768
141.353
120.498
105.275
97.6615
97.0005
91.4429
89.7976
86.1028
66.0623
81.0648
90.347
97.68
112.153
136.554
179.568
991.038
763.403
238.107
122.363
103.407
95.5485
91.7082
93.6277
87.7738
76.9585
71.8671
67.6588
94.1701
99.0123
107.294
141.467
185.437
1089.38
2205.74
283.42
169.816
148.286
98.7893
88.7887
88.1394
85.9328
89.8345
84.031
82.4737
82.8568
97.547
101.351
111.121
132.356
207.846
1139.86
290.658
139.828
126.372
107.706
84.424
79.1122
81.1296
79.1121
88.0389
87.1171
72.824
75.5609
93.5713
98.579
113.506
139.129
280.628
270.756
134.48
119.474
93.313
74.532
69.9573
73.6779
83.8578
72.0942
89.1017
64.7451
74.4362
95.4859
99.7683
113.863
143.564
300.144
1203.89
232.616
133.853
120.382
107.12
82.3209
80.9869
69.6495
61.0074
81.9735
65.039
62.0743
81.7454
103.207
112.596
122.419
162.029
881.685
977.121
177.513
136.52
109.732
100.221
81.4338
147.335
137.344
67.9619
48.2544
68.9009
74.3497
86.9215
107.348
131.542
150.679
170.643
1008.88
849.648
139.312
234.886
158.966
100.856
59.1564
75.3347
108.249
176.502
82.5716
53.1401
78.19
106.853
126.945
151.195
181.921
177.242
1023.64
456.611
130.374
139.109
123.659
88.549
53.7428
73.9151
62.4902
83.1743
104.849
71.0929
94.2493
116.506
126.912
143.207
200.335
188.071
1070.11
1050.2
244.693
128.469
131.65
130.362
94.1293
45.4681
48.632
71.9858
88.9323
68.3454
100.799
116.32
119.215
114.5
132.722
163.412
328.432
1084.08
946.83
155.462
169.82
127.685
123.752
90.2253
40.5939
20.146
28.5843
49.6216
62.2506
92.4619
99.4539
103.894
111.767
119.426
135.508
208.624
1119.97
233.593
147.192
124.684
121.116
73.7162
41.9913
23.1661
20.0147
34.1807
50.268
82.7435
98.6338
104.773
112.574
129.081
136.356
267.583
1246.89
270.804
146.557
147.361
131.973
72.5614
29.6225
49.3273
65.8141
32.8594
47.4806
67.3724
103.594
107.783
113.971
128.794
147.537
311.271
278.125
157.972
162.221
145.847
90.6703
26.1235
23.0274
51.2031
48.8923
44.723
83.7393
109.439
111.414
115.819
134.18
154.335
468.547
245.591
251.791
186.035
155.374
102.472
22.5915
16.0991
21.3156
35.5755
52.128
70.9122
114.964
116.583
123.398
130.813
162.314
920.859
1000.42
175.127
159.533
155.915
147.3
96.155
33.7029
17.8353
22.8685
38.8051
69.5722
100.629
123.383
126.87
126.561
156.219
199.454
1027.16
950.746
181.858
167.446
149.106
139.61
92.0788
27.6349
21.5478
26.5983
44.1124
72.1983
113.834
126.562
126.824
138.834
138.654
286.716
887.174
155.171
124.308
124.385
131.042
94.5988
40.6033
24.2046
30.6656
51.7183
84.3006
123.527
119.545
121.373
139.771
148.038
326.623
900.35
152.433
123.878
120.093
127.746
94.1042
31.0331
27.6495
45.1595
68.5364
89.5759
122.142
119.583
117.67
136.92
157.485
329.4
915.41
156.31
127.811
121.235
118.733
96.0975
34.0977
28.9142
38.1601
63.8483
94.9501
118.463
115.047
117.395
128.486
167.129
921.599
930.633
158.8
139.718
133.092
127.402
76.6389
56.6956
35.756
41.4119
61.195
91.8301
116.292
111.581
117.419
132.031
193.673
1027.4
312.046
162.543
181.074
161.602
117.013
94.6592
149.633
131.266
66.7707
60.4374
81.9981
103.409
108.684
113.464
143.998
196.649
1099.62
366.26
362.697
185.19
121.182
52.742
50.9894
84.4668
174.768
80.0045
75.5443
110.111
114.807
127.466
140.44
240.968
1227.97
354.082
223.684
184.227
168.716
49.8666
36.2198
54.211
86.3208
110.883
114.023
139.227
123.029
134.797
137.262
285.091
333.183
224.388
198.951
185.318
165.323
89.4964
50.4222
66.4782
92.8618
137.321
143.626
126.115
135.27
133.49
140.045
309.275
359.766
161.142
164.117
194.449
195.219
152.346
83.4141
99.1349
153.525
165.559
154.069
162.332
147.038
189.746
170.227
882.327
365.921
169.424
169.388
182.554
202.464
212.029
134.446
157.794
174.251
179.803
173.27
178.963
179.554
218.72
197.017
1077.7
1265.73
335.235
194.54
152.135
189.719
205.98
186.43
197.72
159.22
190.102
192.098
178.327
159.249
214.074
251.195
496.01
1308.92
245.902
158.46
179.696
149.265
232.122
212.445
165.128
120.428
163.095
165.441
166.152
177.275
200.888
297.053
258.911
1052.91
229.223
172.809
147.33
141.279
170.257
205.179
297.781
184.349
161.644
177.378
179.906
178.896
192.713
301.742
850.993
324.986
173.288
587.613
318.86
207.337
146.214
167.162
128.211
156.296
171.737
160.618
143.903
157.575
199.51
329.342
4163.04
328.079
580.111
276.147
207.747
188.351
160.21
154.413
198.423
175.89
168.798
182.412
176.723
172.542
210.914
328.652
847.698
1100.8
661.231
336.686
202.847
175.546
162.282
121.374
131.966
169.004
175.039
199.223
207.697
228.621
224.638
365.229
1222.91
213.702
461.587
237.546
165.855
135.816
118.641
140.438
153.437
168.397
183.414
200.524
152.118
221.598
268.84
1496.48
1213.81
235.562
174.324
326.79
223.865
181.374
129.038
112.466
157.162
169.242
188.682
191.884
189.054
180.881
362.348
1318.07
600.587
226.138
184.347
491.073
314.192
198.908
148.397
153.406
163.328
169.702
184.837
250.331
155.871
195.926
369.77
1170.99
570.551
489.993
355.26
251.502
165.301
148.368
140.532
179.306
178.465
242.686
178.943
254.247
1204.54
746.857
540.178
467.256
387.239
252.435
278.537
161.356
144.584
176.483
230.346
150.858
191.367
346.315
1212.97
225.935
181.543
511.759
351.343
187.13
256.414
266.155
166.29
193.33
219.27
176.608
223.899
557.642
1255.77
231.904
190.258
511.403
437.227
252.297
227.296
327.138
295.303
293.337
346.335
188.103
240.618
1241.95
1161.82
219.758
563.339
500.604
481.323
334.833
229.282
219.453
226.053
309.581
492.387
191.748
248.533
1328.35
1228.65
216.093
563.066
492.867
494.019
460.152
236.406
234.938
207.665
296.064
502.73
195.97
334.328
1378.71
1188.43
232.271
184.632
513.469
467.142
499.658
322.688
194.67
215.241
330.178
187.343
214.705
342.357
1492.56
1492.06
1191.64
200.659
179.788
484.887
480.428
606.719
321.316
262.411
370.485
537.015
221.231
365.275
190.043
529.414
472.837
485.998
177.175
544.538
554.616
578.861
544.098
194.247
174.61
491.936
581.208
207.67
231.802
311.746
1221.41
6353.16
613.431
179.663
528.329
574.121
248.922
415.859
2847.64
2150.96
532.225
825.095
236.334
269.973
1235.26
519.631
825.723
242.728
261.932
632.821
870.816
645.052
297.154
242.678
288.915
1235.83
1202.61
297.639
1954.41
829.326
556.028
370.708
215.539
198.686
225.591
221.615
682.31
314.87
215.72
385.028
714.689
1560.02
1378.15
6501.97
529.47
1543.1
620.121
586.504
1463.24
651.266
442.911
337.735
321.415
298.876
277.686
266.352
358.227
1506.38
671.981
436.331
325.801
308.039
285.062
270.722
267.705
273.804
270.886
265.585
252.043
254.226
261.09
253.642
1392.99
623.518
342.908
306.225
278.728
273.055
266.837
259.993
262.014
260.408
261.949
249.54
240.273
247.295
260.35
259.687
266.196
265.533
273.283
371.943
444.405
924.574
1038.39
564.922
310.693
277.187
270.457
257.184
250.975
250.785
248.555
246.575
246.557
249.362
254.858
234.475
619.624
615.506
264.07
274.735
256.758
266.742
265.98
296.711
654.367
587.364
346.223
270.631
249.252
226.704
215.207
221.845
229.447
234.677
231.976
230.73
226.031
235.113
234.344
240.61
243.644
227.609
571.391
618.471
238.643
263.997
268.709
284.938
325.301
1356.06
445.894
212.571
169.081
162.892
205.187
218.657
471.385
706.77
869.177
198.181
218.682
223.951
207.308
195.539
201.685
225.576
233.009
222.75
210.124
539.101
601.036
246.649
276.388
323.942
677.081
1561.83
410.004
302.978
266.107
213.918
210.361
205.055
230.383
249.461
250.769
246.244
471.496
196.222
213.986
247.372
225.384
686.522
205.396
229.844
241.993
244.931
612.311
614.658
294.841
653.522
1317.59
339.407
357.185
292.242
212.857
194.758
202.982
215.217
210.339
193.708
285.37
242.103
244.623
243.395
345.904
529.209
194.163
227.257
565.093
225.809
242.606
246.94
256.8
291.934
596.309
455.121
1410.64
342.589
264.048
234.127
238.02
168.702
172.1
182.515
195.734
208.458
194.349
159.791
265.013
233.429
237.2
239.349
222.041
201.198
173.932
217.197
198.031
248.618
274.03
398.435
661.267
1124.34
422.45
195.606
187.571
222.914
196.052
201.475
167.586
158.34
150.496
190.645
192.062
183.75
164.421
157.583
161.874
161.709
165.956
210.484
195.919
257.568
221.007
226.815
234.843
269.74
592.113
1220.41
239.041
154.581
231.356
207.959
181.65
191.863
160.624
175.416
176.764
180.756
173.885
164.665
167.019
199.039
150.082
163.367
167.157
173.379
182.277
305.799
192.607
634.051
608.01
740.494
4680.54
801.116
1413.86
316.816
220.925
176.22
171.882
164.344
187.976
206.628
178.577
167.067
178.271
178.193
166.417
193.195
196.342
174.237
160.766
183.34
184.811
183.734
183.299
164.492
620.196
1746.6
1323.6
354.497
219.17
169.818
155.314
163.67
162.049
143.967
110.047
112.771
201.332
180.554
170.538
136.892
228.793
217.527
204.365
203.723
230.916
211.578
194.194
149.582
228.332
494.689
484.872
205.876
198.016
210.256
188.575
151.3
139.292
145.904
161.194
131.656
113.299
106.088
113.628
94.9142
132.272
125.318
124.743
201.924
205.858
224.659
279.747
259.686
147.156
218.43
513.391
457.221
208.126
167.545
179.523
153.63
145.958
138.322
140.569
138.98
143.153
146.808
135.148
122.776
107.25
106.73
123.597
137.451
168.134
182.804
225.486
262.532
274.534
445.605
207.092
501.245
420.592
180.774
203.033
187.605
157.714
145.357
141.981
136.452
134.365
129.183
133.734
136.071
129.094
142.659
107.616
106.698
120.09
148.431
182.864
199.209
248.366
301.123
306.577
434.885
890.915
1210.55
412.297
179.678
183.278
157.034
151.12
148.23
149.309
143.936
128.174
118.061
106.279
106.955
121.522
136.418
133.353
126.132
128.268
126.382
123.449
139.589
169.607
244.941
278.62
412.334
429.454
1190.61
406.44
170.032
176.685
153.275
147.006
146.593
146.938
143.981
142.708
101.26
77.2866
80.2288
83.6923
88.5439
112.784
118.634
129.705
141.187
153.76
136.64
154.294
161.074
203.974
398.756
468.841
1075.8
281.394
164.219
185.877
155.2
144.307
141.466
135.896
132.422
125.926
115.348
102.335
73.084
75.9642
78.0886
87.5463
96.7296
95.5842
90.8818
110.752
138.909
136.312
149.799
177.722
237.026
344.172
1394.1
1283.28
299.884
159.176
149.038
142.027
140.473
139.143
122.911
105.936
94.7861
91.0497
90.2687
86.6228
83.7577
79.4642
84.5733
89.235
107.954
123.663
123.188
103.8
150.802
161.775
188.982
230.136
213.93
1594.49
439.902
168.377
189.318
152.762
141.288
140.52
127.173
88.5859
69.544
66.5513
66.8515
68.4476
72.9389
77.4862
79.6395
83.9794
95.736
112.937
126.993
137.872
148.758
163.797
191.573
236.557
207.42
479.993
488.473
204.593
158.239
144.037
137.714
139.173
133.753
105.186
52.235
46.9184
48.9106
52.7041
57.9506
65.0057
75.5802
84.1736
93.9655
109.035
124.113
132.887
135.382
145.247
155.764
197.627
201.276
488.016
1049.94
259.283
157.868
160.741
140.93
136.987
138.885
123.8
62.1046
40.3846
31.7699
34.3277
39.6229
48.088
59.287
72.9458
90.0068
105.763
120.412
132.578
140.626
147.195
158.182
174.736
169.239
428.853
433.068
168.191
151.531
136.504
131.647
128.206
117.491
59.0018
38.1697
30.8863
27.1728
27.1444
31.1043
37.5548
48.5582
60.4951
80.7819
108.248
125.421
137.962
144.449
148.631
179.656
226.874
307.969
487.237
188.094
190.648
152.992
136.127
128.228
122.352
66.8485
38.0736
27.5288
24.3033
23.6476
24.0833
25.6425
29.384
37.9911
51.3146
67.9778
101.927
127.12
139.888
146.867
151.824
166.725
187.313
869.858
981.693
241.096
156.183
159.74
137.831
129.476
120.613
108.936
56.3482
35.3267
26.788
23.0852
22.6312
23.4515
25.8921
29.2211
33.4641
44.3674
62.652
108.682
127.904
140.993
155.501
164.21
166.567
434.782
976.448
250.308
159.658
164.74
138.899
129.313
118.099
103.135
75.9853
48.5901
36.0902
32.6873
26.309
24.0023
24.0316
28.2282
34.0478
41.8124
60.6855
116.401
138.355
145.534
151.328
178.979
216.791
280.414
1142.18
426.077
179.538
162.83
135.832
132.285
123.616
103.902
79.5583
53.5055
35.1802
30.4647
34.3214
38.2649
30.4213
29.452
34.1346
47.4391
69.7869
110.682
139.814
147.597
155.595
181.837
220.847
259.607
978.866
815.79
209.976
190.169
145.892
129.844
124.576
111.645
90.5671
68.8845
44.3445
30.1468
30.025
39.6965
46.4119
45.8883
38.9652
40.6996
62.0807
110.865
133.138
137.743
145.381
187.382
221.26
254.524
967.031
264.199
157.365
138.045
127.377
123.041
122.351
92.188
58.117
60.4933
44.4103
32.3268
31.0427
41.9372
58.0848
57.8237
47.8728
52.5448
85.2561
123.872
130.28
137.889
153.951
176.441
232.968
957.83
810.958
169.632
146.117
129.004
122.796
116.024
107.99
94.9684
53.617
45.2727
50.2392
44.418
38.065
43.9267
59.3623
74.3973
81.4282
77.6789
114.568
125.703
135.57
150.03
179.622
224.347
419.341
274.291
157.442
135.175
124.997
116.289
100.542
81.4427
66.399
55.4733
39.0069
39.9432
43.0553
42.2879
43.0282
52.4126
75.2237
91.0519
109.741
123.452
135.912
140.681
170.029
219.442
265.186
1002.21
972.266
211.876
145.759
126.83
122.404
107.814
80.0288
56.2614
45.4076
39.0008
34.0539
31.8471
35.6969
40.5805
44.5183
49.2958
66.1061
98.0537
110.987
125.602
138.956
152.712
163.724
179.272
904.254
347.351
173.228
155.464
130.916
120.081
97.4781
57.7495
41.8174
33.3533
29.2721
28.5155
30.4179
35.7682
47.1056
64.4397
83.9847
96.6704
116.129
120.472
125.451
140.858
159.848
204.904
289.106
1275.9
753.87
156.167
138.305
123.743
115.878
115.377
77.8366
39.4567
30.4054
25.2604
23.5194
23.5919
26.6712
34.5774
47.4096
65.9432
90.9234
106.989
116.983
126.348
131.214
140.435
186.344
250.617
958.341
223.988
180.26
135.568
121.74
112.239
102.383
95.6001
54.4859
27.9558
23.3957
22.3575
22.4273
24.0105
28.6934
39.3203
55.7477
78.8227
107.623
122.848
132.008
144.243
162.426
157.4
441.496
733.943
157.72
135.038
119.064
113.249
106.591
96.3917
83.9435
67.1947
39.3375
24.2603
23.1561
24.7362
24.5662
26.627
34.5448
50.1748
74.2223
106.175
125.176
135.392
145.542
191.431
247.125
1050.57
252.799
148.23
126.012
117.58
110.79
100.209
88.1982
65.4434
52.1753
39.7795
27.6029
22.8984
25.8284
30.5495
30.8061
33.9056
50.6443
86.9163
110.688
127.101
138.249
161.976
192.605
423.464
738.053
154.597
133.964
122.224
114.362
103.022
90.6011
73.0676
53.3969
36.5868
31.442
25.8964
23.6732
26.7437
35.8503
49.8482
59.5251
69.8604
98.6946
126.88
135.858
147.052
157.099
188.836
947.133
249.451
143.968
123.669
116.021
110.89
97.5827
81.0178
65.5232
49.4455
36.01
25.3493
23.5585
22.698
26.301
36.9526
54.7554
81.0937
102.506
117.263
133.601
142.339
166.496
203.474
290.913
752.959
153.672
131.236
116.455
111.186
100.035
86.3254
74.2871
62.8116
47.9135
35.3229
27.768
23.3947
22.7701
25.1534
33.5767
49.8423
70.8494
101.936
123.351
135.663
150.502
159.092
174.886
904.157
257.267
138.288
119.013
112.262
106.628
92.0387
70.418
59.3968
56.5482
50.4348
38.5824
28.017
24.7095
25.6806
30.6426
42.2165
59.8056
78.4347
102.259
124.275
136.727
146.336
212.307
277.414
215.979
174.543
125.444
111.428
102.511
85.8557
60.9666
49.0471
46.032
47.3306
44.8638
38.1435
30.7321
29.6985
36.4606
53.3414
81.632
99.4938
111.729
126.734
145.002
168.051
154.53
753.154
781.912
149.579
130.258
114.752
107.05
99.2509
80.331
54.6118
42.3364
38.0962
39.1219
43.0138
44.3607
43.4873
44.7642
50.9093
63.9233
84.1201
101.527
114.714
125.762
144.582
212.694
242.731
1048.54
749.12
166.517
126.939
111.746
105.539
98.2799
78.3632
50.8334
38.2423
33.0912
33.017
36.0388
41.6303
47.6082
53.2365
61.5218
72.2419
86.1514
99.9224
112.695
123.553
138.074
215.708
690.417
376.945
159.093
125.288
111.331
103.596
97.0609
78.9873
50.1015
36.9831
30.3551
27.9964
30.2972
34.9598
41.9329
51.644
63.9493
79.4025
92.8139
106.897
117.15
128.452
148.385
190.879
829.657
218.779
178.615
130.862
112.619
99.2775
88.7051
79.9038
59.1803
40.9569
31.9683
26.4255
25.5496
30.2334
37.7839
47.9023
60.2739
77.2265
98.8132
114.565
125.083
129.55
180.12
255.076
752.832
178.148
151.69
119.396
110.629
96.2929
77.4417
62.5974
55.9145
45.5758
36.0713
30.399
27.2957
28.9979
36.0469
47.2416
61.0884
79.4456
98.8277
116.054
124.862
154.802
150.635
764.503
389.794
154.545
123.059
111.203
104.127
93.4329
72.5888
54.3313
44.1406
38.5214
35.6378
33.1512
32.3605
33.9726
39.6925
50.1808
62.9806
83.3746
101.068
112.342
125.319
144.708
195.656
1013.1
210.474
177.837
128.703
111.96
100.763
85.9973
66.3369
50.5913
40.9977
30.253
28.8433
30.8269
33.8276
38.5422
45.7705
55.6549
68.5781
87.1815
105.023
114.436
124.491
155.405
243.747
784.776
152.953
129.915
113.206
107.356
97.5883
82.5077
61.272
45.8624
35.5492
28.3796
23.6322
25.1048
29.9297
36.9851
46.881
58.5366
73.7042
93.373
108.14
119.011
125.31
164.884
394.404
382.197
149.558
119.433
112.057
104.005
93.5051
81.5584
61.1419
42.1271
29.3968
24.1763
21.6663
20.8521
24.0718
31.0258
41.9732
55.9022
73.3978
98.0059
109.97
118.554
148.335
146.861
739.629
266.392
134.979
115.762
108.393
99.9034
87.0597
74.3838
59.7735
42.3738
26.326
19.4476
18.0024
18.8046
21.0065
26.4277
37.1519
53.931
75.2394
98.5949
110.895
117.938
148.497
199.239
1025.11
224.471
178.162
126.188
109.614
96.8641
82.9328
70.0428
57.4979
45.0259
31.289
19.4276
15.4946
15.885
19.2424
26.4409
40.4252
56.6788
82.3318
102.889
111.948
126.507
140.464
216.145
952.166
158.457
124.901
114.289
109.146
93.6125
74.441
62.3592
54.9291
47.1556
36.5968
25.9898
17.8202
14.8575
16.5765
23.2221
37.6801
58.6569
88.1723
107.698
117.747
125.554
176.885
378.405
760.198
146.94
130.678
114.726
109.569
96.6663
73.2218
55.4692
46.4204
43.6261
39.2454
31.2748
23.3798
17.9676
16.3766
20.9729
34.8105
59.339
92.2082
109.537
118.56
148
154.851
785.221
706.355
157.991
123.202
113.847
108.048
95.8547
73.9771
55.0564
43.5217
37.8664
36.2512
32.1223
26.4773
21.428
20.1016
23.1142
36.2769
65.5378
95.5352
110.212
126.284
135.623
215.289
267.164
132.358
112.982
107.136
103.543
93.3521
71.8396
53.3138
41.9947
35.256
34.6188
33.1365
27.2702
21.9741
21.0325
26.1584
41.7075
70.8796
96.4599
110.54
128.466
176.5
266.174
257.28
132.497
113.193
108.396
101.464
89.2751
68.7177
50.2215
38.7066
32.9559
32.1802
33.9918
33.6655
29.3875
25.1676
29.7136
45.4898
72.3533
96.1371
111.806
124.667
183.183
689.092
225.986
177.926
125.353
108.498
98.2597
87.3152
68.9984
50.7318
36.7234
29.1978
28.1187
31.1542
35.5883
38.9295
42.0336
49.0074
62.7232
80.3089
95.7591
109.719
144.428
176.224
722.38
223.683
139.542
114.945
106.997
96.1468
81.9228
66.6857
52.3115
38.6928
28.4904
24.1515
25.0935
29.9596
37.0891
46.0516
56.5596
69.6377
83.865
95.835
110.196
131.017
186.508
855.788
213.551
136.435
114.076
106.561
94.7857
78.6572
61.9948
50.8541
40.152
31.7048
26.3621
24.3037
26.7652
31.496
39.6765
51.9819
68.5541
85.3206
97.0532
108.978
136.239
153.326
955.723
922.791
163.385
129.809
114.067
106.976
93.6225
74.1381
57.5783
47.1925
37.9762
32.1404
29.8118
29.0675
29.9841
33.897
40.501
50.6444
67.09
87.1536
100.885
109.68
132.969
192.563
735.268
174.993
152.187
118.656
107.015
92.0706
69.0035
51.7678
42.1844
33.9257
28.8029
27.6371
29.5669
33.1896
38.6504
46.1766
55.7074
70.0893
89.3169
103.958
110.107
134.734
202.288
726.506
158.787
119.106
107.275
101.309
89.1285
63.9996
46.0899
35.9179
29.3154
25.1651
23.7337
25.2529
29.8752
37.2938
47.6653
59.0291
74.0072
90.3141
104.277
116.565
124.866
211.051
381.827
146.118
115.546
105.927
98.5851
86.0251
66.6371
42.8148
29.7933
25.0588
21.6923
20.0017
20.5432
23.969
31.3987
42.6393
56.7483
76.3131
92.9088
104.346
115.68
151.7
261.638
262.697
129.25
109.267
103.189
96.7477
85.6346
69.0676
48.8202
27.0293
20.1288
17.9068
16.3604
16.2701
19.0603
25.5933
37.7334
53.8224
75.663
93.5722
104.269
116.907
152.492
649.743
265.929
130.579
109.625
101.033
93.799
84.886
72.3712
52.4203
34.4124
18.9474
13.8162
12.6953
13.0291
15.8372
23.55
37.9579
53.6021
76.2985
94.1962
103.22
115.791
156.266
687.672
227.314
132.694
112.242
101.311
91.6209
79.8758
67.4847
54.4468
39.942
26.3507
15.8066
10.5192
10.5101
13.6126
21.2213
36.0141
54.4083
79.8001
96.8745
107.179
113.877
156.205
718.222
213.545
135.661
108.727
98.3926
88.0058
73.4172
59.0261
50.7353
42.8463
32.4297
22.5146
14.7109
10.1714
12.2216
19.7846
35.2238
54.0401
81.3502
98.8179
110.34
130.775
144.955
788.641
221.118
136.995
107.002
95.5258
82.8029
64.4428
52.7203
44.8676
38.5483
33.8672
27.6456
20.9619
15.8956
14.6435
21.3445
37.1533
55.9163
82.4815
100.721
111.199
138.142
189.873
982.212
212.369
144.807
113.015
95.2587
76.0483
54.682
46.3075
40.8137
35.2143
28.9518
24.5228
22.1133
21.8205
24.0204
32.1742
45.9912
62.4159
83.7894
100.424
112.631
141.854
203.549
919.103
155.923
135.794
122.279
99.0221
64.72
45.6753
39.9619
36.4798
33.0666
27.6234
21.7976
18.5333
19.9282
26.4937
38.686
53.9829
71.1868
87.7842
99.854
110.523
143.697
206.37
734.227
178.275
142.305
112.715
99.6547
53.1144
37.677
35.1076
33.2711
30.9903
27.8542
23.0596
19.0923
17.7708
23.5175
36.4928
53.7578
74.4959
90.6552
101.732
107.708
137.971
212.332
742.829
164.557
123.035
106.027
98.1209
72.6755
36.1939
31.0541
30.9406
29.5362
26.3517
23.2373
21.0148
20.7292
23.492
34.6635
51.8938
75.9638
92.984
103.315
114.227
132.353
201.43
397.681
153.975
119.392
105.649
96.4349
78.2603
49.7129
31.0355
28.5014
28.3739
25.6043
21.3781
18.8312
19.8072
25.1761
35.8409
52.2466
78.2572
94.635
102.834
116.033
149.305
238.161