/*--------------------------------*- C++ -*----------------------------------*\
| =========                 |                                                 |
| \\      /  F ield         | OpenFOAM: The Open Source CFD Toolbox           |
|  \\    /   O peration     | Version:  2312                                  |
|   \\  /    A nd           | Website:  www.openfoam.com                      |
|    \\/     M anipulation  |                                                 |
\*---------------------------------------------------------------------------*/
FoamFile
{
    version     2.0;
    format      ascii;
    arch        "LSB;label=64;scalar=64";
    class       volScalarField;
    location    "110";
    object      p;
}
// * * * * * * * * * * * * * * * * * * * * * * * * * * * * * * * * * * * * * //

dimensions      [0 2 -2 0 0 0 0];

internalField   nonuniform List<scalar> 
404911
(
-0.294157
-0.291881
-0.284147
-0.279575
-0.297079
-0.292307
-0.284404
-0.281107
-0.280528
-0.280184
-0.298392
-0.305206
-0.301872
-0.298182
-0.292375
-0.285835
-0.30428
-0.304118
-0.304224
-0.302715
-0.309002
-0.308203
-0.308285
-0.313692
-0.310648
-0.319795
-0.315035
-0.31446
-0.310952
-0.315289
-0.316349
-0.315322
-0.315291
-0.304803
-0.316892
-0.3166
-0.318714
-0.319786
-0.319526
-0.319171
-0.319264
-0.322148
-0.321404
-0.320554
-0.31986
-0.322271
-0.322502
-0.322143
-0.320626
-0.317531
-0.325886
-0.322717
-0.322183
-0.323793
-0.32582
-0.325469
-0.327689
-0.29722
-0.299711
-0.297316
-0.302183
-0.300662
-0.305204
-0.304812
-0.304056
-0.308504
-0.306073
-0.30546
-0.312403
-0.311009
-0.314215
-0.313598
-0.312527
-0.316074
-0.315206
-0.313818
-0.312773
-0.317979
-0.316714
-0.319828
-0.318878
-0.32164
-0.320642
-0.319792
-0.323546
-0.322383
-0.3264
-0.324374
-0.323115
-0.326919
-0.325601
-0.334303
-0.334468
-0.332659
-0.336569
-0.336023
-0.334918
-0.339021
-0.338195
-0.337779
-0.344378
-0.341016
-0.338877
-0.343063
-0.132828
-0.128126
-0.123095
-0.137887
-0.130865
-0.139518
-0.128189
-0.132108
-0.129345
-0.126687
-0.123279
-0.142154
-0.140824
-0.136226
-0.132862
-0.132831
-0.131251
-0.13088
-0.127419
-0.118275
-0.144778
-0.145667
-0.142855
-0.142661
-0.140695
-0.137623
-0.136926
-0.134477
-0.134179
-0.132481
-0.130217
-0.12765
-0.126207
-0.127569
-0.119081
-0.116413
-0.148893
-0.147668
-0.145263
-0.145307
-0.144982
-0.143599
-0.141704
-0.13973
-0.138426
-0.134455
-0.134028
-0.133888
-0.130736
-0.127997
-0.124974
-0.152071
-0.150862
-0.148664
-0.147509
-0.146343
-0.145426
-0.145196
-0.144052
-0.142491
-0.139951
-0.138564
-0.136664
-0.134534
-0.134056
-0.131872
-0.155943
-0.152363
-0.151231
-0.149643
-0.147509
-0.145411
-0.145099
-0.145371
-0.14474
-0.142467
-0.140711
-0.138138
-0.136934
-0.135874
-0.134976
-0.129773
-0.156997
-0.158648
-0.158293
-0.154903
-0.153436
-0.149865
-0.147977
-0.147744
-0.146634
-0.146139
-0.145164
-0.143635
-0.141582
-0.139414
-0.137761
-0.136744
-0.134039
-0.165883
-0.164042
-0.162918
-0.158942
-0.158466
-0.157034
-0.15484
-0.152872
-0.150805
-0.149087
-0.147849
-0.14758
-0.146314
-0.145312
-0.143886
-0.142551
-0.139725
-0.136911
-0.17092
-0.166819
-0.165691
-0.163859
-0.161169
-0.15893
-0.156961
-0.155381
-0.15382
-0.151823
-0.149709
-0.147781
-0.147437
-0.147093
-0.146027
-0.146068
-0.142239
-0.141213
-0.175458
-0.173871
-0.172712
-0.170051
-0.16691
-0.164748
-0.162194
-0.160186
-0.157938
-0.155882
-0.154168
-0.152621
-0.150522
-0.148659
-0.148126
-0.146846
-0.146358
-0.144597
-0.176999
-0.174952
-0.174496
-0.173635
-0.170932
-0.168076
-0.165919
-0.163501
-0.16145
-0.159444
-0.157435
-0.155389
-0.153446
-0.152214
-0.149855
-0.149526
-0.150854
-0.181194
-0.17899
-0.178874
-0.175932
-0.174798
-0.173516
-0.171508
-0.169456
-0.16749
-0.165004
-0.162507
-0.160504
-0.158733
-0.156835
-0.154609
-0.153197
-0.152377
-0.182223
-0.181169
-0.182086
-0.179269
-0.17768
-0.176495
-0.175433
-0.173911
-0.172391
-0.170396
-0.167935
-0.166042
-0.163776
-0.161612
-0.160249
-0.157998
-0.156134
-0.154024
-0.189282
-0.18949
-0.184963
-0.183105
-0.18259
-0.180598
-0.178999
-0.177149
-0.175792
-0.174509
-0.172886
-0.170728
-0.169304
-0.166944
-0.16506
-0.163902
-0.160981
-0.157347
-0.190459
-0.190046
-0.190205
-0.187969
-0.18637
-0.183266
-0.182973
-0.181216
-0.180066
-0.178336
-0.176589
-0.175458
-0.173609
-0.172288
-0.169904
-0.16809
-0.165391
-0.163409
-0.19227
-0.190498
-0.190877
-0.190903
-0.189831
-0.187785
-0.185082
-0.183794
-0.182346
-0.180593
-0.179321
-0.178237
-0.17624
-0.174751
-0.17419
-0.171425
-0.167527
-0.168362
-0.193836
-0.193437
-0.194353
-0.191249
-0.19123
-0.191421
-0.190187
-0.188239
-0.18655
-0.185275
-0.183304
-0.181246
-0.179772
-0.17893
-0.177279
-0.176352
-0.175293
-0.17463
-0.1949
-0.193747
-0.193526
-0.192776
-0.191691
-0.191853
-0.191437
-0.191142
-0.188808
-0.187719
-0.186577
-0.185259
-0.182463
-0.180618
-0.179864
-0.177134
-0.17644
-0.174955
-0.201235
-0.198863
-0.198308
-0.194309
-0.193701
-0.193732
-0.192262
-0.19209
-0.1913
-0.191401
-0.190119
-0.188721
-0.187553
-0.186383
-0.184597
-0.181881
-0.180435
-0.178628
-0.201274
-0.201064
-0.199434
-0.197699
-0.195177
-0.194113
-0.194309
-0.193088
-0.192429
-0.191213
-0.191128
-0.19126
-0.190095
-0.189334
-0.187016
-0.18522
-0.184075
-0.20419
-0.203589
-0.20284
-0.20178
-0.200625
-0.198732
-0.196598
-0.195339
-0.194639
-0.193766
-0.192865
-0.192079
-0.19132
-0.191395
-0.190132
-0.190195
-0.188667
-0.186439
-0.206824
-0.205892
-0.204365
-0.203649
-0.202079
-0.201093
-0.199668
-0.197923
-0.196723
-0.195844
-0.194214
-0.193012
-0.192154
-0.191823
-0.191131
-0.190713
-0.18996
-0.189587
-0.208081
-0.206904
-0.206222
-0.204795
-0.203947
-0.202674
-0.20121
-0.19991
-0.198469
-0.197711
-0.197053
-0.195766
-0.193877
-0.192934
-0.191787
-0.18884
-0.191783
-0.189675
-0.212302
-0.211709
-0.209868
-0.207936
-0.206595
-0.205582
-0.204766
-0.202893
-0.201698
-0.200369
-0.199184
-0.198367
-0.197743
-0.196061
-0.19552
-0.192763
-0.193428
-0.192996
-0.215239
-0.214022
-0.213112
-0.212391
-0.210547
-0.209086
-0.207541
-0.206237
-0.204974
-0.203744
-0.202171
-0.201046
-0.200091
-0.199122
-0.198794
-0.197326
-0.197346
-0.193903
-0.217194
-0.216467
-0.215031
-0.214395
-0.213409
-0.21186
-0.21017
-0.208764
-0.207018
-0.205472
-0.204266
-0.202945
-0.201694
-0.200594
-0.199223
-0.199032
-0.19883
-0.198125
-0.22034
-0.219053
-0.21802
-0.217147
-0.216098
-0.215414
-0.214362
-0.213001
-0.211362
-0.209993
-0.20815
-0.206267
-0.204947
-0.204259
-0.202448
-0.201108
-0.204201
-0.197513
-0.222909
-0.221185
-0.220062
-0.218831
-0.217947
-0.216988
-0.216074
-0.215227
-0.21404
-0.212509
-0.210995
-0.209173
-0.207549
-0.206198
-0.204863
-0.202217
-0.202203
-0.200853
-0.225234
-0.223266
-0.22198
-0.220828
-0.219749
-0.218632
-0.217662
-0.216759
-0.215904
-0.214943
-0.213602
-0.211948
-0.210105
-0.208475
-0.207201
-0.205628
-0.204084
-0.203162
-0.227469
-0.226695
-0.224922
-0.223532
-0.221762
-0.220634
-0.21938
-0.218387
-0.217311
-0.216559
-0.215703
-0.214552
-0.213108
-0.211477
-0.20979
-0.208563
-0.20727
-0.204855
-0.232698
-0.228485
-0.228041
-0.228189
-0.226537
-0.224445
-0.222936
-0.221853
-0.220447
-0.219252
-0.218093
-0.217309
-0.216438
-0.215422
-0.21408
-0.212924
-0.211455
-0.210361
-0.232439
-0.232414
-0.230772
-0.229117
-0.228601
-0.227481
-0.225717
-0.224206
-0.223145
-0.221917
-0.220407
-0.21897
-0.218083
-0.217155
-0.216218
-0.215095
-0.214344
-0.212242
-0.233038
-0.233019
-0.232606
-0.231009
-0.229874
-0.229062
-0.228081
-0.226637
-0.225154
-0.223891
-0.222686
-0.221205
-0.219859
-0.218784
-0.217704
-0.216356
-0.214475
-0.213559
-0.236745
-0.234217
-0.233398
-0.233112
-0.232182
-0.230969
-0.229544
-0.228875
-0.227369
-0.226049
-0.224719
-0.223411
-0.222146
-0.220787
-0.219663
-0.218615
-0.216828
-0.238131
-0.239008
-0.236967
-0.235179
-0.234238
-0.233631
-0.232979
-0.23206
-0.230256
-0.229255
-0.228129
-0.226957
-0.225669
-0.22452
-0.223193
-0.221945
-0.220531
-0.219823
-0.240318
-0.239617
-0.238743
-0.237657
-0.236114
-0.23504
-0.234378
-0.233606
-0.232697
-0.231195
-0.229831
-0.229028
-0.227839
-0.226821
-0.22572
-0.224512
-0.223411
-0.220491
-0.244156
-0.242101
-0.240671
-0.239191
-0.238231
-0.23696
-0.23573
-0.234884
-0.234
-0.233348
-0.23217
-0.230732
-0.22986
-0.228628
-0.227601
-0.226186
-0.224486
-0.223493
-0.245235
-0.245769
-0.244792
-0.24355
-0.241893
-0.240334
-0.239246
-0.23822
-0.236477
-0.235425
-0.234602
-0.234119
-0.233296
-0.231797
-0.230634
-0.229447
-0.228315
-0.227097
-0.248773
-0.247609
-0.246178
-0.245457
-0.244166
-0.243009
-0.241591
-0.240373
-0.239283
-0.237484
-0.236234
-0.235208
-0.234676
-0.233976
-0.232757
-0.231438
-0.230779
-0.22945
-0.249751
-0.249742
-0.248651
-0.24739
-0.246376
-0.245159
-0.244027
-0.242704
-0.241367
-0.240216
-0.239131
-0.237375
-0.236317
-0.235564
-0.234431
-0.233574
-0.232269
-0.231243
-0.255407
-0.251163
-0.250339
-0.249407
-0.248275
-0.247246
-0.246074
-0.244952
-0.243695
-0.24218
-0.240887
-0.240041
-0.238586
-0.237308
-0.236356
-0.235117
-0.233802
-0.233531
-0.254739
-0.2533
-0.252669
-0.251386
-0.250416
-0.249293
-0.248176
-0.246905
-0.245778
-0.244579
-0.243
-0.241715
-0.240712
-0.239515
-0.238509
-0.237138
-0.237013
-0.256965
-0.257922
-0.256313
-0.255202
-0.253606
-0.252356
-0.251313
-0.250219
-0.249084
-0.247813
-0.24657
-0.245529
-0.243891
-0.242548
-0.241808
-0.240518
-0.239351
-0.238015
-0.261112
-0.259618
-0.258279
-0.257501
-0.256245
-0.254719
-0.253322
-0.252046
-0.251035
-0.249872
-0.248795
-0.247591
-0.246374
-0.245076
-0.243568
-0.242538
-0.241197
-0.239836
-0.262525
-0.261832
-0.260808
-0.259544
-0.258679
-0.257279
-0.25587
-0.254607
-0.253111
-0.251919
-0.250814
-0.24991
-0.248794
-0.247415
-0.246156
-0.24489
-0.243832
-0.242705
-0.265624
-0.263729
-0.262498
-0.261987
-0.260686
-0.259764
-0.258375
-0.257078
-0.255968
-0.254954
-0.253327
-0.251889
-0.250929
-0.249878
-0.248557
-0.247141
-0.246119
-0.245109
-0.265753
-0.266241
-0.264889
-0.263653
-0.262741
-0.261788
-0.260768
-0.259478
-0.258152
-0.256868
-0.255745
-0.254274
-0.252924
-0.251824
-0.250782
-0.249374
-0.24815
-0.246897
-0.268513
-0.26696
-0.266086
-0.265506
-0.2644
-0.263472
-0.262518
-0.261484
-0.26028
-0.258976
-0.257608
-0.256396
-0.255071
-0.253827
-0.252699
-0.251801
-0.250259
-0.249094
-0.270342
-0.26919
-0.267855
-0.266757
-0.266064
-0.265004
-0.264012
-0.262986
-0.261883
-0.260761
-0.259635
-0.258516
-0.257359
-0.256145
-0.25477
-0.253487
-0.252903
-0.252782
-0.272315
-0.271155
-0.269896
-0.268812
-0.267805
-0.266697
-0.265587
-0.264578
-0.263505
-0.262398
-0.261357
-0.260283
-0.259468
-0.258405
-0.25726
-0.25601
-0.254745
-0.252537
-0.276273
-0.275224
-0.274187
-0.271979
-0.270812
-0.270022
-0.268438
-0.267382
-0.266344
-0.265208
-0.264419
-0.263164
-0.262108
-0.261074
-0.260283
-0.259334
-0.258323
-0.257124
-0.255597
-0.277387
-0.27599
-0.275196
-0.274625
-0.273114
-0.271802
-0.270862
-0.269474
-0.268164
-0.26715
-0.265931
-0.265186
-0.264146
-0.26297
-0.261821
-0.26087
-0.259714
-0.258822
-0.278978
-0.27735
-0.276343
-0.275321
-0.27403
-0.272802
-0.271788
-0.27059
-0.26921
-0.267943
-0.266948
-0.266039
-0.265233
-0.264257
-0.26323
-0.262482
-0.260309
-0.283301
-0.281407
-0.280017
-0.27893
-0.277618
-0.276423
-0.275072
-0.273777
-0.272926
-0.272039
-0.270363
-0.269127
-0.267957
-0.266956
-0.265955
-0.264913
-0.263817
-0.263658
-0.28443
-0.28441
-0.28236
-0.281331
-0.280127
-0.278853
-0.277553
-0.276103
-0.274686
-0.273826
-0.272982
-0.271332
-0.269956
-0.268768
-0.267598
-0.266784
-0.265701
-0.265167
-0.288805
-0.285131
-0.284695
-0.283618
-0.282451
-0.281127
-0.279791
-0.278635
-0.2772
-0.276003
-0.274735
-0.273872
-0.272245
-0.27093
-0.269727
-0.26844
-0.267585
-0.265581
-0.287052
-0.286357
-0.285615
-0.284612
-0.283437
-0.282079
-0.280764
-0.279789
-0.278171
-0.276968
-0.275794
-0.2748
-0.273479
-0.272215
-0.271002
-0.270077
-0.268462
-0.290754
-0.287998
-0.28746
-0.286536
-0.285492
-0.284324
-0.282929
-0.281605
-0.28069
-0.279212
-0.277875
-0.276753
-0.275582
-0.274353
-0.272924
-0.271539
-0.271071
-0.293556
-0.291939
-0.290354
-0.288912
-0.288143
-0.287317
-0.286283
-0.285203
-0.283831
-0.282455
-0.281267
-0.280204
-0.278737
-0.277626
-0.276365
-0.275407
-0.274385
-0.271906
-0.295755
-0.295171
-0.29339
-0.291923
-0.290256
-0.289105
-0.288078
-0.287104
-0.285966
-0.284604
-0.283502
-0.282599
-0.281373
-0.280007
-0.278654
-0.277648
-0.275448
-0.297963
-0.295758
-0.295493
-0.293922
-0.29289
-0.291342
-0.290089
-0.288883
-0.288084
-0.287174
-0.285515
-0.28437
-0.283202
-0.282
-0.280851
-0.279808
-0.278248
-0.300002
-0.298975
-0.298153
-0.296967
-0.295809
-0.294971
-0.293614
-0.292399
-0.291006
-0.289872
-0.288734
-0.287608
-0.286377
-0.285217
-0.284044
-0.282993
-0.281976
-0.28114
-0.300842
-0.300836
-0.299925
-0.298768
-0.297916
-0.297144
-0.295667
-0.293893
-0.292903
-0.291787
-0.29104
-0.28954
-0.288047
-0.287142
-0.28582
-0.284875
-0.283563
-0.282854
-0.30537
-0.3029
-0.301929
-0.300779
-0.299898
-0.299108
-0.298753
-0.296715
-0.29457
-0.293756
-0.292885
-0.291758
-0.290317
-0.288915
-0.287961
-0.286529
-0.285633
-0.284693
-0.307315
-0.306118
-0.304678
-0.302944
-0.301817
-0.301004
-0.299863
-0.29928
-0.298668
-0.297114
-0.294954
-0.293707
-0.292608
-0.291345
-0.29014
-0.289215
-0.287936
-0.286016
-0.310255
-0.310126
-0.30926
-0.307283
-0.305705
-0.304237
-0.303247
-0.302162
-0.300828
-0.299649
-0.29903
-0.297771
-0.296072
-0.294778
-0.293705
-0.292529
-0.291535
-0.290696
-0.288668
-0.31225
-0.30981
-0.310673
-0.309841
-0.308553
-0.306947
-0.305434
-0.304275
-0.303297
-0.302233
-0.301118
-0.299974
-0.298781
-0.297397
-0.296138
-0.294881
-0.292666
-0.293018
-0.292074
-0.317423
-0.312033
-0.312036
-0.310926
-0.309638
-0.308124
-0.306671
-0.305222
-0.304246
-0.303251
-0.302183
-0.301082
-0.299735
-0.298334
-0.297133
-0.295978
-0.294373
-0.292707
-0.317679
-0.316471
-0.314081
-0.313025
-0.312216
-0.311536
-0.309855
-0.308029
-0.306612
-0.305388
-0.304312
-0.303064
-0.301982
-0.300809
-0.299622
-0.298418
-0.297406
-0.319188
-0.318379
-0.31703
-0.315648
-0.314314
-0.313645
-0.312809
-0.311749
-0.309832
-0.307744
-0.306361
-0.305119
-0.304222
-0.303041
-0.301676
-0.300198
-0.299939
-0.32109
-0.320066
-0.319038
-0.318156
-0.316739
-0.315769
-0.314744
-0.31354
-0.312313
-0.310487
-0.308776
-0.307401
-0.306082
-0.305067
-0.303635
-0.302971
-0.301944
-0.325368
-0.32254
-0.322508
-0.320703
-0.319933
-0.318919
-0.317686
-0.316715
-0.315632
-0.314176
-0.312714
-0.311317
-0.309785
-0.30812
-0.306932
-0.305744
-0.304813
-0.301904
-0.326161
-0.324664
-0.324211
-0.322993
-0.321659
-0.320936
-0.320046
-0.31894
-0.317628
-0.316485
-0.315136
-0.313735
-0.312285
-0.311015
-0.309673
-0.308794
-0.306898
-0.329289
-0.328004
-0.326768
-0.325128
-0.324068
-0.322863
-0.321964
-0.321007
-0.3198
-0.318488
-0.317305
-0.316099
-0.314702
-0.3136
-0.311932
-0.311041
-0.310372
-0.3331
-0.330395
-0.329419
-0.328203
-0.326716
-0.32525
-0.324079
-0.323001
-0.321818
-0.320591
-0.319549
-0.31832
-0.317007
-0.315752
-0.314497
-0.313095
-0.311139
-0.33467
-0.333871
-0.332314
-0.331256
-0.329595
-0.328039
-0.326262
-0.325188
-0.324012
-0.322992
-0.321981
-0.320527
-0.319249
-0.317944
-0.316409
-0.314697
-0.313735
-0.338584
-0.335773
-0.334793
-0.334003
-0.332278
-0.33046
-0.328731
-0.327302
-0.326143
-0.325364
-0.324587
-0.323428
-0.321645
-0.320211
-0.319053
-0.318191
-0.315612
-0.337868
-0.33812
-0.337216
-0.336151
-0.335111
-0.333363
-0.330503
-0.328876
-0.328185
-0.327551
-0.326757
-0.325732
-0.324241
-0.322536
-0.320891
-0.31982
-0.319351
-0.341989
-0.338813
-0.338035
-0.336429
-0.335368
-0.33414
-0.332906
-0.330549
-0.329374
-0.328679
-0.327749
-0.326595
-0.325001
-0.323537
-0.320605
-0.321316
-0.345736
-0.341605
-0.340266
-0.338493
-0.337324
-0.336116
-0.33488
-0.333358
-0.331594
-0.330174
-0.329509
-0.328645
-0.327429
-0.326861
-0.325117
-0.352008
-0.349421
-0.348776
-0.344231
-0.3423
-0.340162
-0.338639
-0.337069
-0.335902
-0.334316
-0.332747
-0.331657
-0.330829
-0.329881
-0.32882
-0.327078
-0.356825
-0.353151
-0.351594
-0.349419
-0.347496
-0.345192
-0.342437
-0.340428
-0.338519
-0.337102
-0.335983
-0.334422
-0.33375
-0.331658
-0.330579
-0.330965
-0.356213
-0.356213
-0.354529
-0.352786
-0.351247
-0.348637
-0.346904
-0.345179
-0.342927
-0.341706
-0.339007
-0.337535
-0.335823
-0.334135
-0.331977
-0.331504
-0.353924
-0.356963
-0.358692
-0.357536
-0.35616
-0.354212
-0.352148
-0.350087
-0.347647
-0.345657
-0.344262
-0.342893
-0.341795
-0.339458
-0.337556
-0.335937
-0.360515
-0.358033
-0.356758
-0.357212
-0.357774
-0.357061
-0.353835
-0.352713
-0.352158
-0.34989
-0.347901
-0.345198
-0.342981
-0.341903
-0.340254
-0.338066
-0.36068
-0.359686
-0.359485
-0.358856
-0.357746
-0.358301
-0.3575
-0.355373
-0.353302
-0.352909
-0.35222
-0.350082
-0.347586
-0.344422
-0.342424
-0.341156
-0.361911
-0.360631
-0.360841
-0.359649
-0.359343
-0.358527
-0.357723
-0.357603
-0.356889
-0.355414
-0.3542
-0.353521
-0.353255
-0.350227
-0.347234
-0.345755
-0.363243
-0.365977
-0.362771
-0.360052
-0.359324
-0.360085
-0.359699
-0.357334
-0.356415
-0.356807
-0.355335
-0.35615
-0.353318
-0.351856
-0.352263
-0.347507
-0.370092
-0.367872
-0.366008
-0.363193
-0.361609
-0.360782
-0.360739
-0.36024
-0.358882
-0.356903
-0.355985
-0.355556
-0.355086
-0.355663
-0.353259
-0.372167
-0.370766
-0.370944
-0.367
-0.364734
-0.363064
-0.36222
-0.361446
-0.360797
-0.359797
-0.357627
-0.356373
-0.355835
-0.355717
-0.354012
-0.356208
-0.376066
-0.373247
-0.371247
-0.370187
-0.368933
-0.365789
-0.364478
-0.363611
-0.362695
-0.361739
-0.360758
-0.35949
-0.358609
-0.356261
-0.356082
-0.352952
-0.375424
-0.376132
-0.374514
-0.372766
-0.372012
-0.369724
-0.367451
-0.365622
-0.364528
-0.363425
-0.362332
-0.361471
-0.360983
-0.359376
-0.357389
-0.379376
-0.379779
-0.375855
-0.373872
-0.372486
-0.370406
-0.368618
-0.367294
-0.365981
-0.364711
-0.364143
-0.362368
-0.362742
-0.359805
-0.384005
-0.384879
-0.380776
-0.377779
-0.375293
-0.373872
-0.372008
-0.370223
-0.368921
-0.367005
-0.366129
-0.365076
-0.362766
-0.389671
-0.38863
-0.38707
-0.385911
-0.382207
-0.380097
-0.37759
-0.375105
-0.37371
-0.372045
-0.370408
-0.369122
-0.366867
-0.366629
-0.393541
-0.391717
-0.388764
-0.387601
-0.385017
-0.383795
-0.380926
-0.3789
-0.376775
-0.374902
-0.373548
-0.371922
-0.370255
-0.367615
-0.396525
-0.395395
-0.393192
-0.392002
-0.389078
-0.387087
-0.384296
-0.382158
-0.379803
-0.376915
-0.376219
-0.373975
-0.372576
-0.369524
-0.402968
-0.398385
-0.397669
-0.394954
-0.392195
-0.391837
-0.388789
-0.386011
-0.382997
-0.380932
-0.379065
-0.378411
-0.376205
-0.373424
-0.405542
-0.405169
-0.402052
-0.398615
-0.393071
-0.391278
-0.392376
-0.391131
-0.387747
-0.385824
-0.381788
-0.379446
-0.378061
-0.378485
-0.408209
-0.407008
-0.406833
-0.405196
-0.400872
-0.400153
-0.396914
-0.394982
-0.393172
-0.391137
-0.386595
-0.384021
-0.380269
-0.408893
-0.405287
-0.40142
-0.40037
-0.397601
-0.396281
-0.393158
-0.390072
-0.386545
-0.410431
-0.408195
-0.405974
-0.40258
-0.398077
-0.396709
-0.393863
-0.392819
-0.412049
-0.410582
-0.410281
-0.405509
-0.407019
-0.40414
-0.397273
-0.412294
-0.41286
-0.417748
-0.408537
-0.409472
-0.410085
-0.410259
-0.411234
-0.416094
-0.414799
-0.41219
-0.410499
-0.419423
-0.41583
-0.423714
-0.410508
-0.414139
-0.414131
-0.44128
-0.430407
-0.423642
-0.422328
-0.419565
-0.442901
-0.43964
-0.434787
-0.43117
-0.424755
-0.432501
-0.44432
-0.434607
-0.438599
-0.430756
-0.427048
-0.440788
-0.441715
-0.44076
-0.0300949
-0.0230041
-0.0127604
-0.0400479
-0.0437256
-0.039479
-0.0341736
-0.0333697
-0.0313876
-0.0285969
-0.0142193
-0.0110499
-0.0569251
-0.0534258
-0.0574398
-0.0482213
-0.0458561
-0.0433631
-0.037899
-0.0349053
-0.0331934
-0.0307717
-0.0310193
-0.0229312
-0.0159079
-0.0142583
-0.0110602
-0.0675262
-0.0672896
-0.0601581
-0.0597375
-0.0530483
-0.0555321
-0.0515209
-0.0451453
-0.0424838
-0.0396928
-0.0366776
-0.0346795
-0.0310254
-0.0293527
-0.0263303
-0.0186192
-0.0165588
-0.0191486
-0.00412875
-0.00428765
-0.0105899
-0.00543529
-0.0785353
-0.0695793
-0.0682149
-0.0653303
-0.0665334
-0.0629614
-0.0591239
-0.0573365
-0.0543515
-0.0512361
-0.0466464
-0.0428993
-0.0409633
-0.0385051
-0.0377989
-0.0276733
-0.0296407
-0.0242147
-0.0199353
-0.018967
-0.0164082
-0.0140966
-0.00957501
-0.0801017
-0.0822845
-0.0775965
-0.0762783
-0.0685118
-0.0687184
-0.0669606
-0.0659671
-0.0618422
-0.0584368
-0.0570868
-0.0545165
-0.0515133
-0.0470247
-0.0469254
-0.0414254
-0.0408224
-0.0321144
-0.0334491
-0.0271347
-0.0264453
-0.0210757
-0.019861
-0.0165025
-0.013171
-0.0883077
-0.0884442
-0.0828877
-0.0808978
-0.0796703
-0.0810818
-0.0705985
-0.0698247
-0.0685202
-0.0656375
-0.063289
-0.0600285
-0.0564717
-0.0555047
-0.0516606
-0.0472007
-0.0452537
-0.0413248
-0.0405108
-0.0396077
-0.037941
-0.0261935
-0.0255977
-0.022139
-0.0186082
-0.0936793
-0.0931978
-0.090784
-0.0881126
-0.0865439
-0.082943
-0.0806043
-0.077281
-0.0728589
-0.0708311
-0.0703652
-0.0678689
-0.063883
-0.0646842
-0.0587396
-0.0575362
-0.0542508
-0.0465251
-0.0459795
-0.0424384
-0.0407864
-0.0366627
-0.0358934
-0.0281949
-0.0246847
-0.0999907
-0.093965
-0.0952565
-0.0938628
-0.0920096
-0.0896864
-0.0881002
-0.0848965
-0.0817866
-0.078588
-0.0737265
-0.0702792
-0.0689139
-0.0685033
-0.0651176
-0.0629989
-0.0686891
-0.0613208
-0.0571017
-0.0507642
-0.0462103
-0.0450576
-0.0409847
-0.0387025
-0.0330644
-0.10584
-0.111812
-0.107245
-0.0987051
-0.0960877
-0.0949634
-0.093227
-0.0922652
-0.0904323
-0.0887132
-0.0857141
-0.0824884
-0.0796014
-0.0761733
-0.0720384
-0.0704188
-0.0681732
-0.0648677
-0.0638161
-0.0623393
-0.0614463
-0.0544523
-0.0536934
-0.0469904
-0.0455044
-0.0473698
-0.110639
-0.109829
-0.106445
-0.107922
-0.108209
-0.103875
-0.100704
-0.0972457
-0.0953971
-0.0939685
-0.0927512
-0.091723
-0.0892512
-0.0860162
-0.082964
-0.0805085
-0.0775222
-0.0749998
-0.0720944
-0.0698921
-0.0661369
-0.0625393
-0.0589843
-0.0563225
-0.0510559
-0.0521221
-0.0472499
-0.113331
-0.111399
-0.110117
-0.108037
-0.107107
-0.106051
-0.104249
-0.10178
-0.0986713
-0.0964095
-0.0945991
-0.0927156
-0.0916995
-0.090031
-0.0873556
-0.0836789
-0.081056
-0.0788475
-0.0769564
-0.0731137
-0.0711249
-0.0742352
-0.0589151
-0.0615539
-0.0549004
-0.121374
-0.119722
-0.116319
-0.11386
-0.112403
-0.110673
-0.108734
-0.107053
-0.105386
-0.103336
-0.101396
-0.099197
-0.097253
-0.0952089
-0.0928603
-0.0912584
-0.089833
-0.0882637
-0.0844918
-0.0817276
-0.0799539
-0.0777109
-0.075042
-0.0755943
-0.0708949
-0.127339
-0.121846
-0.12023
-0.118007
-0.115698
-0.114055
-0.111082
-0.109474
-0.107169
-0.10573
-0.104047
-0.101389
-0.0992876
-0.0979785
-0.0958596
-0.0928465
-0.0916935
-0.0898084
-0.089073
-0.084708
-0.0816353
-0.0802968
-0.0792348
-0.077575
-0.135027
-0.130414
-0.132033
-0.12933
-0.124308
-0.120943
-0.119265
-0.117148
-0.114233
-0.111982
-0.11023
-0.108124
-0.10599
-0.104488
-0.102651
-0.100289
-0.0985174
-0.0970808
-0.0940773
-0.092258
-0.0902905
-0.0877252
-0.0851576
-0.0830828
-0.0815604
-0.134776
-0.135581
-0.134389
-0.132484
-0.131987
-0.129501
-0.12606
-0.122819
-0.120866
-0.118131
-0.115474
-0.1132
-0.111388
-0.109453
-0.107586
-0.105669
-0.103523
-0.101398
-0.0999585
-0.0986446
-0.0956645
-0.0932272
-0.0905211
-0.0876424
-0.0864295
-0.140803
-0.138503
-0.136716
-0.135322
-0.133329
-0.132695
-0.131768
-0.130527
-0.128082
-0.125159
-0.122444
-0.119621
-0.1175
-0.114852
-0.113021
-0.110922
-0.109045
-0.107542
-0.104439
-0.10277
-0.101717
-0.099099
-0.0966013
-0.0936186
-0.0942875
-0.146258
-0.145842
-0.142665
-0.141519
-0.140126
-0.137839
-0.136088
-0.133366
-0.132694
-0.13226
-0.131056
-0.129513
-0.127422
-0.124307
-0.120904
-0.118961
-0.116499
-0.114321
-0.112707
-0.110851
-0.108632
-0.106095
-0.103812
-0.102287
-0.100691
-0.0979634
-0.149906
-0.144063
-0.1456
-0.144879
-0.143808
-0.142906
-0.141598
-0.140056
-0.137043
-0.133869
-0.133001
-0.132499
-0.131409
-0.13005
-0.128689
-0.126113
-0.123579
-0.121039
-0.117305
-0.11542
-0.114588
-0.113024
-0.110697
-0.107129
-0.107074
-0.105104
-0.147861
-0.152311
-0.151942
-0.148176
-0.14627
-0.145754
-0.144974
-0.143932
-0.14268
-0.140907
-0.138702
-0.13533
-0.133928
-0.132924
-0.132075
-0.130349
-0.128007
-0.125907
-0.124548
-0.122497
-0.118589
-0.116509
-0.115312
-0.114808
-0.11265
-0.111516
-0.107108
-0.157387
-0.152751
-0.152608
-0.152068
-0.150508
-0.148913
-0.147244
-0.146217
-0.145385
-0.144511
-0.143234
-0.141466
-0.139357
-0.137073
-0.135153
-0.133841
-0.133015
-0.131005
-0.127383
-0.12501
-0.12427
-0.12228
-0.120023
-0.118031
-0.116924
-0.1161
-0.11242
-0.159196
-0.157441
-0.156275
-0.154761
-0.152935
-0.150864
-0.148999
-0.147699
-0.146535
-0.145731
-0.144846
-0.143692
-0.142028
-0.139993
-0.137878
-0.136224
-0.135016
-0.134302
-0.132039
-0.12863
-0.125475
-0.124558
-0.12182
-0.121178
-0.120853
-0.117985
-0.163485
-0.164489
-0.161026
-0.158557
-0.156942
-0.155537
-0.153755
-0.151239
-0.149681
-0.14807
-0.146962
-0.146131
-0.145352
-0.14429
-0.14268
-0.140643
-0.138568
-0.13697
-0.135846
-0.135076
-0.132814
-0.130779
-0.127122
-0.125016
-0.124345
-0.121919
-0.167808
-0.167716
-0.164781
-0.164578
-0.162073
-0.159475
-0.157918
-0.156033
-0.154424
-0.15221
-0.150335
-0.148658
-0.147521
-0.146766
-0.146116
-0.145062
-0.14342
-0.141456
-0.139375
-0.137701
-0.136633
-0.135493
-0.134027
-0.132129
-0.128763
-0.125772
-0.174503
-0.170542
-0.168848
-0.166851
-0.164789
-0.1628
-0.160262
-0.158764
-0.156782
-0.154761
-0.152695
-0.150932
-0.149404
-0.148138
-0.147125
-0.14673
-0.145927
-0.144367
-0.142456
-0.140284
-0.13834
-0.137046
-0.135616
-0.134807
-0.132543
-0.17756
-0.17432
-0.173603
-0.172229
-0.170384
-0.168198
-0.165348
-0.163573
-0.161259
-0.159219
-0.157229
-0.155273
-0.153314
-0.151635
-0.150294
-0.148909
-0.147819
-0.147284
-0.146582
-0.145158
-0.143385
-0.141262
-0.139403
-0.138149
-0.136553
-0.134089
-0.179622
-0.177492
-0.176414
-0.175925
-0.174303
-0.173119
-0.171662
-0.169411
-0.166742
-0.16442
-0.1622
-0.160043
-0.157986
-0.156029
-0.154154
-0.152417
-0.151
-0.149571
-0.148487
-0.147902
-0.14695
-0.14555
-0.144148
-0.142289
-0.140485
-0.136158
-0.180158
-0.182666
-0.181358
-0.179266
-0.177451
-0.17641
-0.175245
-0.173803
-0.172481
-0.170438
-0.168
-0.16574
-0.163504
-0.161273
-0.159181
-0.157234
-0.155246
-0.153333
-0.151736
-0.150038
-0.148811
-0.147982
-0.147234
-0.146171
-0.14472
-0.142597
-0.141606
-0.187165
-0.183911
-0.182366
-0.181583
-0.180023
-0.178477
-0.177182
-0.17596
-0.174491
-0.172913
-0.171075
-0.169018
-0.166875
-0.164675
-0.162581
-0.160584
-0.158677
-0.156448
-0.154265
-0.152787
-0.151181
-0.149824
-0.148237
-0.146827
-0.145801
-0.144605
-0.188207
-0.187806
-0.186897
-0.185392
-0.183137
-0.181944
-0.181101
-0.179677
-0.178146
-0.176782
-0.175213
-0.173584
-0.171743
-0.169957
-0.167961
-0.165743
-0.163723
-0.162005
-0.160067
-0.157975
-0.155712
-0.154136
-0.152362
-0.15112
-0.151339
-0.147625
-0.192325
-0.190027
-0.189325
-0.188208
-0.186922
-0.183988
-0.182691
-0.182285
-0.180905
-0.179318
-0.177757
-0.176034
-0.174418
-0.172695
-0.170778
-0.16885
-0.166689
-0.164538
-0.163072
-0.161006
-0.159494
-0.15769
-0.155974
-0.154161
-0.152677
-0.193931
-0.192685
-0.191776
-0.19116
-0.190632
-0.189711
-0.188329
-0.18551
-0.183591
-0.182953
-0.182005
-0.180324
-0.178724
-0.17709
-0.175609
-0.173873
-0.171233
-0.169417
-0.167693
-0.165496
-0.163813
-0.162005
-0.159931
-0.158849
-0.159659
-0.195215
-0.194289
-0.19311
-0.192466
-0.191759
-0.191101
-0.190486
-0.189489
-0.187068
-0.184975
-0.183639
-0.182593
-0.181163
-0.179437
-0.178108
-0.176841
-0.175337
-0.172555
-0.170191
-0.16827
-0.166669
-0.165086
-0.164058
-0.160603
-0.157207
-0.198745
-0.196533
-0.195211
-0.194527
-0.193545
-0.19285
-0.192114
-0.191362
-0.190768
-0.189842
-0.1881
-0.186311
-0.184791
-0.183214
-0.181464
-0.179782
-0.178673
-0.17784
-0.176393
-0.174482
-0.171894
-0.169876
-0.168228
-0.166053
-0.165578
-0.200783
-0.198875
-0.197363
-0.195215
-0.194378
-0.193867
-0.193234
-0.192314
-0.191564
-0.19095
-0.190169
-0.188838
-0.18753
-0.186238
-0.184386
-0.182172
-0.180242
-0.179041
-0.178004
-0.176786
-0.175118
-0.173019
-0.170705
-0.168939
-0.167648
-0.204297
-0.202189
-0.201275
-0.199789
-0.198266
-0.195562
-0.194558
-0.194343
-0.193796
-0.192871
-0.19187
-0.191198
-0.190682
-0.189698
-0.188708
-0.187764
-0.185896
-0.183701
-0.1817
-0.17991
-0.17862
-0.177324
-0.175369
-0.173423
-0.172019
-0.204613
-0.203931
-0.203122
-0.202059
-0.200718
-0.199343
-0.196929
-0.195274
-0.19507
-0.194607
-0.193553
-0.192398
-0.191471
-0.191034
-0.19059
-0.189869
-0.189076
-0.187534
-0.185235
-0.182996
-0.181091
-0.179266
-0.177445
-0.178226
-0.207006
-0.207817
-0.20625
-0.204794
-0.203788
-0.202759
-0.20166
-0.200306
-0.198576
-0.196844
-0.19614
-0.195448
-0.194369
-0.193136
-0.191899
-0.191362
-0.191118
-0.190555
-0.189747
-0.188222
-0.186406
-0.184455
-0.182668
-0.181085
-0.179154
-0.210591
-0.20934
-0.207814
-0.206658
-0.205434
-0.204291
-0.202992
-0.202129
-0.200875
-0.199294
-0.197934
-0.197196
-0.196336
-0.195019
-0.193685
-0.192499
-0.191702
-0.191496
-0.191147
-0.190196
-0.188792
-0.187084
-0.185316
-0.184065
-0.212768
-0.212663
-0.21123
-0.210054
-0.208836
-0.207376
-0.205914
-0.204691
-0.203363
-0.202379
-0.201042
-0.199637
-0.198465
-0.197857
-0.197225
-0.195724
-0.19399
-0.192786
-0.192195
-0.191592
-0.191212
-0.19033
-0.189433
-0.188617
-0.187259
-0.215134
-0.214195
-0.213186
-0.212189
-0.211011
-0.209629
-0.208176
-0.206626
-0.205272
-0.203874
-0.202782
-0.201551
-0.200221
-0.199052
-0.198423
-0.198075
-0.196795
-0.194624
-0.193511
-0.192917
-0.192315
-0.191518
-0.191105
-0.189875
-0.218451
-0.217574
-0.216363
-0.215276
-0.214175
-0.213197
-0.212046
-0.210563
-0.208924
-0.207396
-0.206013
-0.204581
-0.203298
-0.202153
-0.200999
-0.199871
-0.199226
-0.198856
-0.198056
-0.195838
-0.194639
-0.193905
-0.193708
-0.191379
-0.189708
-0.220704
-0.219579
-0.218428
-0.217233
-0.216101
-0.215071
-0.21417
-0.213133
-0.211677
-0.209933
-0.208288
-0.20683
-0.205418
-0.204056
-0.202821
-0.201502
-0.200306
-0.199679
-0.199347
-0.198368
-0.196982
-0.195843
-0.194724
-0.194067
-0.223686
-0.221519
-0.220547
-0.219255
-0.218056
-0.216982
-0.216034
-0.215128
-0.214163
-0.212805
-0.211091
-0.209333
-0.20763
-0.206222
-0.204977
-0.203858
-0.2022
-0.200889
-0.200252
-0.199663
-0.198626