# vtk DataFile Version 2.0
track0
ASCII
DATASET POLYDATA
POINTS 12054 float
-0.0205 0.001 1e-05
-0.02052 0.000999985 1e-05
-0.02054 0.000999973 1e-05
-0.02056 0.000999965 1e-05
-0.02058 0.000999959 1e-05
-0.0206 0.000999956 1e-05
-0.0205 0.00367778 1e-05
-0.02052 0.00367778 1e-05
-0.02054 0.00367777 1e-05
-0.02056 0.00367777 1e-05
-0.02058 0.00367777 1e-05
-0.0206 0.00367777 1e-05
-0.0205 0.00635556 1e-05
-0.02052 0.00635555 1e-05
-0.02054 0.00635555 1e-05
-0.02056 0.00635555 1e-05
-0.02058 0.00635555 1e-05
-0.0206 0.00635555 1e-05
-0.0205 0.00903333 1e-05
-0.02052 0.00903333 1e-05
-0.02054 0.00903333 1e-05
-0.02056 0.00903333 1e-05
-0.02058 0.00903333 1e-05
-0.0206 0.00903333 1e-05
-0.0205 0.0117111 1e-05
-0.02052 0.0117111 1e-05
-0.02054 0.0117111 1e-05
-0.02056 0.0117111 1e-05
-0.02058 0.0117111 1e-05
-0.0206 0.0117111 1e-05
-0.0205 0.0143889 1e-05
-0.02052 0.0143889 1e-05
-0.02054 0.0143889 1e-05
-0.02056 0.0143889 1e-05
-0.02058 0.0143889 1e-05
-0.0206 0.0143889 1e-05
-0.0205 0.0170667 1e-05
-0.02052 0.0170667 1e-05
-0.02054 0.0170667 1e-05
-0.02056 0.0170667 1e-05
-0.02058 0.0170667 1e-05
-0.0206 0.0170667 1e-05
-0.0205 0.0197444 1e-05
-0.02052 0.0197444 1e-05
-0.02054 0.0197444 1e-05
-0.02056 0.0197444 1e-05
-0.02058 0.0197444 1e-05
-0.0206 0.0197444 1e-05
-0.0205 0.0224222 1e-05
-0.02052 0.0224222 1e-05
-0.02054 0.0224222 1e-05
-0.02056 0.0224222 1e-05
-0.02058 0.0224222 1e-05
-0.0206 0.0224222 1e-05
-0.0205 0.0251 1e-05
-0.02052 0.0250998 1e-05
-0.02054 0.0250997 1e-05
-0.02056 0.0250995 1e-05
-0.02058 0.0250995 1e-05
-0.0206 0.0250994 1e-05
-0.0205 0.001 1e-05
-0.0202034 0.00100022 1e-05
-0.0199069 0.00100067 1e-05
-0.0196103 0.00100133 1e-05
-0.0193137 0.0010022 1e-05
-0.0190172 0.00100328 1e-05
-0.0187132 0.0010047 1e-05
-0.0184093 0.00100593 1e-05
-0.0181054 0.00100716 1e-05
-0.0178015 0.00100839 1e-05
-0.0174976 0.00100962 1e-05
-0.0172058 0.00101093 1e-05
-0.016914 0.00101205 1e-05
-0.0166222 0.00101317 1e-05
-0.0163305 0.00101429 1e-05
-0.0160387 0.00101541 1e-05
-0.0157586 0.00101657 1e-05
-0.0154784 0.00101768 1e-05
-0.0151983 0.00101883 1e-05
-0.0149182 0.00102001 1e-05
-0.0146381 0.00102124 1e-05
-0.014396 0.00102235 1e-05
-0.0141539 0.00102347 1e-05
-0.0139118 0.00102462 1e-05
-0.0136698 0.0010258 1e-05
-0.013465 0.00102682 1e-05
-0.0134307 0.00102699 1e-05
-0.0133964 0.00102717 1e-05
-0.0133621 0.00102734 1e-05
-0.0133278 0.00102752 1e-05
-0.0132934 0.00102769 1e-05
-0.0130353 0.00102903 1e-05
-0.0127771 0.00103038 1e-05
-0.0125189 0.00103175 1e-05
-0.0122607 0.00103314 1e-05
-0.0120025 0.00103455 1e-05
-0.0117547 0.00103591 1e-05
-0.0115068 0.00103729 1e-05
-0.0112589 0.00103868 1e-05
-0.0110111 0.00104007 1e-05
-0.0107632 0.00104147 1e-05
-0.0105252 0.00104282 1e-05
-0.0102873 0.00104417 1e-05
-0.0100493 0.00104553 1e-05
-0.00981133 0.00104689 1e-05
-0.00957337 0.00104826 1e-05
-0.00934491 0.00104957 1e-05
-0.00911645 0.00105088 1e-05
-0.00888799 0.0010522 1e-05
-0.00865954 0.00105352 1e-05
-0.00843108 0.00105484 1e-05
-0.00821175 0.0010561 1e-05
-0.00799242 0.00105736 1e-05
-0.00777309 0.00105863 1e-05
-0.00755376 0.0010599 1e-05
-0.00733443 0.00106117 1e-05
-0.00712387 0.00106239 1e-05
-0.0069133 0.00106361 1e-05
-0.00670273 0.00106483 1e-05
-0.00649217 0.00106606 1e-05
-0.0062816 0.00106729 1e-05
-0.00607944 0.00106846 1e-05
-0.00587729 0.00106965 1e-05
-0.00567514 0.00107083 1e-05
-0.00547298 0.00107202 1e-05
-0.00527083 0.00107322 1e-05
-0.00507675 0.00107436 1e-05
-0.00488267 0.00107552 1e-05
-0.0046886 0.00107669 1e-05
-0.00449452 0.00107786 1e-05
-0.00430044 0.00107903 1e-05
-0.00411412 0.00108017 1e-05
-0.0039278 0.00108131 1e-05
-0.00374147 0.00108247 1e-05
-0.00355515 0.00108364 1e-05
-0.00336883 0.00108482 1e-05
-0.00318995 0.00108595 1e-05
-0.00301107 0.00108711 1e-05
-0.00283219 0.00108828 1e-05
-0.00265331 0.00108948 1e-05
-0.00247443 0.00109069 1e-05
-0.0023027 0.00109186 1e-05
-0.00213097 0.00109307 1e-05
-0.00195924 0.0010943 1e-05
-0.00178751 0.00109556 1e-05
-0.00161577 0.00109684 1e-05
-0.0014509 0.00109809 1e-05
-0.00128603 0.00109938 1e-05
-0.00112116 0.00110072 1e-05
-0.000956291 0.00110211 1e-05
-0.000791418 0.00110354 1e-05
-0.000633135 0.00110496 1e-05
-0.000474852 0.00110645 1e-05
-0.000316569 0.00110799 1e-05
-0.000158287 0.00110959 1e-05
0 0.00111126 1e-05
0.000105677 0.0011124 1e-05
0.000211355 0.00111358 1e-05
0.000317031 0.00111478 1e-05
0.000422708 0.00111601 1e-05
0.000528387 0.00111726 1e-05
0.000634886 0.00111854 1e-05
0.000741385 0.00111984 1e-05
0.000847884 0.00112114 1e-05
0.000954383 0.00112246 1e-05
0.00106088 0.00112378 1e-05
0.00116821 0.00112512 1e-05
0.00127554 0.00112648 1e-05
0.00138286 0.00112784 1e-05
0.00149019 0.0011292 1e-05
0.00159752 0.00113057 1e-05
0.00170568 0.00113195 1e-05
0.00181384 0.00113335 1e-05
0.001922 0.00113476 1e-05
0.00203016 0.00113617 1e-05
0.00213833 0.00113759 1e-05
0.00224733 0.00113903 1e-05
0.00235633 0.00114048 1e-05
0.00246533 0.00114194 1e-05
0.00257433 0.00114342 1e-05
0.00268334 0.0011449 1e-05
0.00279319 0.0011464 1e-05
0.00290304 0.00114792 1e-05
0.00301289 0.00114945 1e-05
0.00312274 0.00115099 1e-05
0.00323259 0.00115254 1e-05
0.00334329 0.00115412 1e-05
0.00345399 0.00115571 1e-05
0.0035647 0.00115732 1e-05
0.0036754 0.00115894 1e-05
0.00378611 0.00116058 1e-05
0.00389767 0.00116224 1e-05
0.00400924 0.00116393 1e-05
0.0041208 0.00116564 1e-05
0.00423236 0.00116736 1e-05
0.00434393 0.0011691 1e-05
0.00445636 0.00117087 1e-05
0.00456879 0.00117267 1e-05
0.00468122 0.0011745 1e-05
0.00479366 0.00117634 1e-05
0.00490609 0.0011782 1e-05
0.0050194 0.00118009 1e-05
0.0051327 0.00118202 1e-05
0.00524601 0.00118397 1e-05
0.00535931 0.00118595 1e-05
0.00547262 0.00118794 1e-05
0.00558681 0.00118995 1e-05
0.00570099 0.00119202 1e-05
0.00581518 0.00119411 1e-05
0.00592937 0.00119623 1e-05
0.00604356 0.00119836 1e-05
0.00615863 0.00120051 1e-05
0.00627371 0.00120272 1e-05
0.00638878 0.00120496 1e-05
0.00650385 0.00120722 1e-05
0.00661893 0.0012095 1e-05
0.0067349 0.00121179 1e-05
0.00685087 0.00121414 1e-05
0.00696684 0.00121653 1e-05
0.0070828 0.00121894 1e-05
0.00719878 0.00122136 1e-05
0.00731565 0.00122379 1e-05
0.00743252 0.00122629 1e-05
0.00754939 0.00122882 1e-05
0.00766626 0.00123138 1e-05
0.00778313 0.00123394 1e-05
0.00790091 0.00123651 1e-05
0.00801869 0.00123915 1e-05
0.00813647 0.00124183 1e-05
0.00825425 0.00124453 1e-05
0.00837203 0.00124723 1e-05
0.00849073 0.00124993 1e-05
0.00860942 0.00125271 1e-05
0.00872812 0.00125553 1e-05
0.00884681 0.00125837 1e-05
0.00896551 0.0012612 1e-05
0.00908513 0.00126404 1e-05
0.00920475 0.00126695 1e-05
0.00932436 0.0012699 1e-05
0.00944398 0.00127287 1e-05
0.0095636 0.00127584 1e-05
0.00968415 0.0012788 1e-05
0.0098047 0.00128183 1e-05
0.00992524 0.00128491 1e-05
0.0100458 0.00128801 1e-05
0.0101663 0.0012911 1e-05
0.0102878 0.00129419 1e-05
0.0104093 0.00129734 1e-05
0.0105308 0.00130055 1e-05
0.0106523 0.00130377 1e-05
0.0107738 0.00130697 1e-05
0.0108962 0.00131018 1e-05
0.0110186 0.00131344 1e-05
0.0111411 0.00131676 1e-05
0.0112635 0.00132009 1e-05
0.0113859 0.00132341 1e-05
0.0115093 0.00132673 1e-05
0.0116327 0.0013301 1e-05
0.0117561 0.00133353 1e-05
0.0118794 0.00133696 1e-05
0.0120028 0.00134038 1e-05
0.0121272 0.00134381 1e-05
0.0122515 0.00134728 1e-05
0.0123759 0.0013508 1e-05
0.0125002 0.00135433 1e-05
0.0126245 0.00135784 1e-05
0.0127498 0.00136137 1e-05
0.0128752 0.00136493 1e-05
0.0130005 0.00136853 1e-05
0.0131258 0.00137214 1e-05
0.0132511 0.00137574 1e-05
0.0133774 0.00137937 1e-05
0.0135036 0.00138301 1e-05
0.0136299 0.00138669 1e-05
0.0137562 0.00139037 1e-05
0.0138825 0.00139406 1e-05
0.0140098 0.00139776 1e-05
0.014137 0.00140149 1e-05
0.0142643 0.00140523 1e-05
0.0143915 0.00140898 1e-05
0.0145188 0.00141274 1e-05
0.0146471 0.00141652 1e-05
0.0147753 0.00142032 1e-05
0.0149036 0.00142412 1e-05
0.0150318 0.00142793 1e-05
0.0151601 0.00143175 1e-05
0.0152893 0.00143561 1e-05
0.0154186 0.00143947 1e-05
0.0155478 0.00144332 1e-05
0.0156771 0.00144719 1e-05
0.0158063 0.00145106 1e-05
0.0159366 0.00145498 1e-05
0.0160668 0.00145889 1e-05
0.0161971 0.0014628 1e-05
0.0163274 0.00146671 1e-05
0.0164576 0.00147063 1e-05
0.0165889 0.0014746 1e-05
0.0167201 0.00147856 1e-05
0.0168514 0.0014825 1e-05
0.0169827 0.00148645 1e-05
0.0171139 0.00149041 1e-05
0.0172462 0.00149442 1e-05
0.0173785 0.00149842 1e-05
0.0175108 0.0015024 1e-05
0.0176431 0.00150638 1e-05
0.0177754 0.00151037 1e-05
0.0179087 0.00151441 1e-05
0.018042 0.00151844 1e-05
0.0181753 0.00152244 1e-05
0.0183087 0.00152644 1e-05
0.018442 0.00153046 1e-05
0.0185763 0.00153452 1e-05
0.0187107 0.00153856 1e-05
0.018845 0.00154258 1e-05
0.0189794 0.00154659 1e-05
0.0191137 0.00155062 1e-05
0.0192491 0.00155469 1e-05
0.0193845 0.00155874 1e-05
0.0195199 0.00156277 1e-05
0.0196553 0.00156679 1e-05
0.0197907 0.00157081 1e-05
0.0199272 0.00157489 1e-05
0.0200636 0.00157893 1e-05
0.0202001 0.00158296 1e-05
0.0203365 0.00158697 1e-05
0.020473 0.00159099 1e-05
0.0206105 0.00159505 1e-05
0.020748 0.00159908 1e-05
0.0208855 0.00160309 1e-05
0.021023 0.00160709 1e-05
0.0211606 0.00161108 1e-05
0.0212991 0.00161512 1e-05
0.0214377 0.00161912 1e-05
0.0215763 0.0016231 1e-05
0.0217149 0.00162707 1e-05
0.0218535 0.00163102 1e-05
0.0219931 0.00163502 1e-05
0.0221328 0.00163898 1e-05
0.0222724 0.00164292 1e-05
0.0224121 0.00164684 1e-05
0.0225517 0.00165075 1e-05
0.0226925 0.00165469 1e-05
0.0228332 0.0016586 1e-05
0.022974 0.00166248 1e-05
0.0231147 0.00166635 1e-05
0.0232555 0.00167019 1e-05
0.0233973 0.00167407 1e-05
0.0235391 0.00167791 1e-05
0.023681 0.00168173 1e-05
0.0238228 0.00168552 1e-05
0.0239647 0.00168929 1e-05
0.0241076 0.00169308 1e-05
0.0242505 0.00169684 1e-05
0.0243935 0.00170056 1e-05
0.0245364 0.00170426 1e-05
0.0246794 0.00170793 1e-05
0.0248234 0.00171163 1e-05
0.0249675 0.00171528 1e-05
0.0251115 0.0017189 1e-05
0.0252556 0.00172249 1e-05
0.0253996 0.00172604 1e-05
0.0255448 0.00172962 1e-05
0.02569 0.00173314 1e-05
0.0258351 0.00173664 1e-05
0.0259803 0.0017401 1e-05
[...]
POINT_DATA 12054
 FIELD attributes 1
U 3 12054 float
10.0004 	0.00736391 	0 10.0004 	0.00589113 	0 10.0003 	0.00441835 	0 10.0002 	0.00294556 	0 10.0001 	0.00147278 	0 10 	0 	0
10 	0.000940359 	0 10 	0.000752287 	0 10 	0.000564215 	0 10 	0.000376143 	0 10 	0.000188072 	0 10 	0 	0
10.0001 	0.000561222 	0 10.0001 	0.000448865 	0 10 	0.000336507 	0 10 	0.000224149 	0 10 	0.000111791 	0 10 	0 	0
10 	0.000392262 	0 10 	0.00031381 	0 10 	0.000235357 	0 10 	0.000156905 	0 10 	7.84525e-05 	0 10 	0 	0
10 	0.000215503 	0 10 	0.000172402 	0 10 	0.000129302 	0 10 	8.6201e-05 	0 10 	4.31005e-05 	0 10 	0 	0
10 	0.000102672 	0 10 	8.21377e-05 	0 10 	6.16033e-05 	0 10 	4.10688e-05 	0 10 	2.05344e-05 	0 10 	0 	0
10 	-0.00011489 	0 10 	-9.19122e-05 	0 10 	-6.89341e-05 	0 10 	-4.59561e-05 	0 10 	-2.2978e-05 	0 10 	0 	0
10 	-0.000306151 	0 10 	-0.000244921 	0 10 	-0.000183691 	0 10 	-0.000122461 	0 10 	-6.12303e-05 	0 10 	0 	0
9.99999 	-0.000381381 	0 9.99999 	-0.000305105 	0 10 	-0.000228828 	0 10 	-0.000152552 	0 10 	-7.62761e-05 	0 10 	0 	0
9.17389 	0.0871325 	0 9.13081 	0.069706 	0 9.08742 	0.0522792 	0 9.04369 	0.0348522 	0 8.99963 	0.0174251 	0 8.95524 	0 	0
10.0004 	0.00736391 	0 10.0024 	0.015275 	0 10.0044 	0.0223497 	0 10.0064 	0.0293796 	0 10.0084 	0.036365 	0 10.0134 	0.046603 	0 10.0161 	0.0405446 	0 10.0204 	0.0405571 	0 10.0248 	0.0405696 	0 10.0291 	0.0405821 	0 10.0349 	0.0450819 	0 10.0376 	0.0385436 	0 10.0414 	0.0385658 	0 10.0452 	0.0385881 	0 10.049 	0.0386104 	0 10.0529 	0.0417234 	0 10.0549 	0.0397738 	0 10.057 	0.0411595 	0 10.0592 	0.042547 	0 10.0614 	0.0439362 	0 10.0633 	0.0464063 	0 10.0645 	0.0465649 	0 10.0654 	0.0477561 	0 10.0664 	0.0489485 	0 10.0673 	0.0501418 	0 10.0681 	0.0511519 	0 10.0682 	0.0513223 	0 10.0684 	0.0514927 	0 10.0685 	0.0516632 	0 10.0686 	0.0518337 	0 10.0688 	0.05198 	0 10.0689 	0.0527298 	0 10.069 	0.0534632 	0 10.0692 	0.0541973 	0 10.0693 	0.0549321 	0 10.0694 	0.0554868 	0 10.0688 	0.0559307 	0 10.0679 	0.0562575 	0 10.0671 	0.0565844 	0 10.0662 	0.0569115 	0 10.0652 	0.0569868 	0 10.0642 	0.0573086 	0 10.0625 	0.057448 	0 10.0609 	0.0575875 	0 10.0592 	0.0577271 	0 10.057 	0.057587 	0 10.056 	0.0578682 	0 10.0537 	0.0579186 	0 10.0514 	0.057969 	0 10.0491 	0.0580195 	0 10.0458 	0.0577786 	0 10.0451 	0.0580677 	0 10.0423 	0.0580912 	0 10.0394 	0.0581146 	0 10.0366 	0.0581381 	0 10.0321 	0.0578711 	0 10.032 	0.0582252 	0 10.0287 	0.0582881 	0 10.0253 	0.0583511 	0 10.022 	0.0584141 	0 10.0162 	0.058193 	0 10.0169 	0.0586687 	0 10.0132 	0.0588245 	0 10.0095 	0.0589804 	0 10.0058 	0.0591363 	0 9.99851 	0.0590072 	0 10.0002 	0.0596499 	0 9.99616 	0.0599575 	0 9.99213 	0.0602652 	0 9.9881 	0.060573 	0 9.97934 	0.0606069 	0 9.98218 	0.0614847 	0 9.97781 	0.061997 	0 9.97344 	0.0625095 	0 9.96907 	0.0630222 	0 9.95862 	0.0632631 	0 9.96271 	0.0644697 	0 9.95807 	0.0653968 	0 9.95343 	0.0663242 	0 9.9488 	0.067252 	0 9.9367 	0.0680003 	0 9.94232 	0.0698052 	0 9.93739 	0.0712522 	0 9.93247 	0.0726997 	0 9.92756 	0.0741479 	0 9.9136 	0.075347 	0 9.92097 	0.0778316 	0 9.91623 	0.0805724 	0 9.91152 	0.0833141 	0 9.90682 	0.0860566 	0 9.89163 	0.0887915 	0 9.90167 	0.0927158 	2.55007e-23 9.89866 	0.0965075 	5.45253e-21 9.89568 	0.1003 	1.08752e-20 9.89212 	0.104045 	1.57955e-20 9.87772 	0.106913 	1.18485e-20 9.8898 	0.110119 	1.11378e-19 9.88934 	0.112574 	1.12855e-19 9.88791 	0.114969 	1.06645e-19 9.8856 	0.117287 	9.29877e-20 9.87166 	0.118581 	-1.86053e-20 9.88564 	0.12018 	-5.13063e-20 9.88563 	0.12113 	-5.85757e-20 9.88459 	0.122033 	-6.3968e-20 9.88257 	0.12291 	-6.56941e-20 9.8676 	0.12345 	-1.88337e-20 9.88222 	0.124619 	-1.73265e-20 9.88124 	0.125092 	-1.16155e-20 9.8791 	0.125513 	-5.58892e-21 9.87587 	0.125915 	7.72961e-22 9.85874 	0.126071 	1.14087e-20 9.87391 	0.127685 	7.76523e-22 9.87193 	0.128391 	-1.79157e-20 9.86859 	0.129024 	-3.72414e-20 9.86402 	0.129602 	-5.7531e-20 9.84458 	0.129511 	-8.93522e-20 9.8608 	0.131475 	-1.56385e-19 9.85812 	0.132428 	-1.50566e-19 9.85383 	0.133294 	-1.38528e-19 9.84806 	0.13408 	-1.19741e-19 9.82625 	0.133979 	-2.78383e-20 9.8441 	0.136022 	7.81651e-20 9.8409 	0.137101 	1.01439e-19 9.83569 	0.138088 	1.16791e-19 9.82864 	0.138997 	1.22436e-19 9.8041 	0.139164 	3.57184e-20 9.8242 	0.141471 	-1.2516e-19 9.82069 	0.142766 	-1.48893e-19 9.81457 	0.143949 	-1.57447e-19 9.80609 	0.14505 	-1.4875e-19 9.77829 	0.145487 	9.86239e-23 9.80138 	0.148375 	1.4885e-19 9.79793 	0.149973 	1.60076e-19 9.791 	0.151401 	1.53212e-19 9.78089 	0.152699 	1.29219e-19 9.74924 	0.153113 	-1.05281e-20 9.77598 	0.156694 	-1.19646e-19 9.77305 	0.158573 	-1.55918e-19 9.76537 	0.160179 	-1.80492e-19 9.75332 	0.161553 	-1.87864e-19 9.71719 	0.161649 	-1.00908e-19 9.748 	0.165928 	-1.87515e-19 9.74613 	0.168079 	-1.91943e-19 9.73772 	0.169805 	-1.79908e-19 9.72326 	0.171141 	-1.51236e-19 9.68218 	0.170768 	-4.97724e-20 9.71728 	0.175737 	-5.03871e-20 9.71711 	0.178171 	-3.48563e-20 9.70801 	0.179963 	-1.52206e-20 9.69056 	0.181141 	2.49886e-21 9.64428 	0.180199 	1.36048e-20 9.68369 	0.185768 	2.68344e-21 9.68603 	0.188478 	0 9.67631 	0.190258 	0 9.65529 	0.191139 	0 9.60381 	0.189599 	0 9.64738 	0.195665 	0 9.6531 	0.19867 	-1.32449e-20 9.64288 	0.200385 	-3.20723e-20 9.61767 	0.200857 	-5.50483e-20 9.56122 	0.198737 	-8.66661e-20 9.60852 	0.205212 	-1.54217e-19 9.61848 	0.20856 	-1.79621e-19 9.60787 	0.210186 	-1.81811e-19 9.57788 	0.210158 	-1.5707e-19 9.51693 	0.207489 	-8.932e-20 9.56734 	0.214235 	4.08086e-20 9.58232 	0.217958 	1.14919e-19 9.57147 	0.219477 	1.48224e-19 9.53626 	0.218887 	1.28058e-19 9.47153 	0.215744 	4.32002e-20 9.52414 	0.222587 	1.28968e-19 9.54468 	0.226686 	1.72716e-19 9.53375 	0.228092 	1.75279e-19 9.49306 	0.226925 	1.3113e-19 9.42557 	0.223442 	4.49672e-20 9.47931 	0.230228 	3.10672e-20 9.50565 	0.234688 	1.76793e-20 9.49477 	0.23599 	4.99163e-21 9.4486 	0.234276 	0 9.3795 	0.230604 	0 9.43322 	0.237198 	0 9.46522 	0.241974 	-4.12529e-21 9.45449 	0.243174 	-1.63478e-20 9.40313 	0.240957 	-2.94486e-20 9.33368 	0.237218 	-4.29438e-20 9.38624 	0.243464 	-1.29438e-19 9.42345 	0.248456 	-1.97069e-19 9.41297 	0.24956 	-2.06417e-19 9.35702 	0.246937 	-1.36264e-19 9.28847 	0.243281 	-4.41181e-20 9.33886 	0.249053 	6.4979e-20 9.3805 	0.254136 	1.60445e-19 9.37033 	0.255141 	1.75929e-19 9.31064 	0.252222 	8.42105e-20 9.2441 	0.248761 	-2.22643e-20 9.29137 	0.253936 	-1.51943e-20 9.33633 	0.258938 	-8.08398e-21 9.32655 	0.259838 	-1.64766e-22 9.26426 	0.256763 	-1.17555e-20 9.20082 	0.253601 	-2.37593e-20 9.24435 	0.258081 	-1.22573e-20 9.28796 	0.262568 	-7.61465e-22 9.27795 	0.263328 	0 9.21837 	0.260588 	0 9.15876 	0.257845 	0 9.19799 	0.261553 	0 9.23729 	0.265266 	0 9.22821 	0.265961 	3.78157e-21 9.17309 	0.26373 	-1.51751e-21 9.11795 	0.261496 	-6.81488e-21 9.1526 	0.264403 	-1.02811e-19 9.1873 	0.267313 	-1.98812e-19 9.17903 	0.26791 	-1.99687e-19 9.12879 	0.266205 	-1.04518e-19 9.07855 	0.264499 	-9.34339e-21 9.10857 	0.266626 	-4.89366e-21 9.13863 	0.268756 	-4.47963e-22 9.13102 	0.269232 	-1.48841e-20 9.08585 	0.268036 	-5.13863e-20 9.04068 	0.266839 	-8.78905e-20 9.06626 	0.268244 	-1.54372e-19 9.09187 	0.26965 	-2.20858e-19 9.08479 	0.270002 	-2.15654e-19 9.04463 	0.269299 	-1.38959e-19 9.0045 	0.268597 	-6.22639e-20 9.02604 	0.269346 	6.28597e-20 9.04758 	0.270096 	1.87983e-19 9.04088 	0.270297 	2.17581e-19 9.00542 	0.270021 	1.3355e-19 8.96999 	0.269747 	4.95225e-20 8.98783 	0.269902 	1.35515e-19 9.00565 	0.270056 	2.21505e-19 8.99921 	0.270076 	2.12855e-19 8.96825 	0.270137 	1.16226e-19 8.93732 	0.270201 	1.96019e-20 8.95214 	0.269883 	1.49538e-20 8.96694 	0.269564 	1.0303e-20 8.96069 	0.269409 	-2.18709e-20 8.9336 	0.269729 	-4.68447e-20 8.90656 	0.270052 	-7.18225e-20 8.9188 	0.269344 	-4.80903e-20 8.93101 	0.268634 	-2.43537e-20 8.92446 	0.268309 	-2.55502e-20 8.9012 	0.268783 	-5.0219e-20 8.8776 	0.269278 	-7.54202e-20 8.88772 	0.268194 	-5.14793e-20 8.89593 	0.26718 	-2.75226e-20 8.88957 	0.266716 	-3.48329e-21 8.87101 	0.267167 	0 8.85041 	0.267775 	0 8.85877 	0.266388 	0 8.86376 	0.265185 	2.72791e-21 8.85769 	0.264597 	1.45334e-20 8.84287 	0.264934 	3.19604e-20 8.8249 	0.265608 	5.14317e-20 8.83177 	0.264029 	-7.2649e-20 8.83423 	0.262751 	-1.61462e-19 8.82845 	0.262045 	-1.83816e-19 8.81662 	0.26217 	-1.3166e-19 8.80101 	0.26282 	-3.24918e-20 8.80665 	0.261068 	-2.7669e-20 8.80716 	0.259738 	-3.09831e-20 8.8017 	0.258905 	-4.38304e-20 8.79223 	0.258771 	-6.30307e-20 8.77872 	0.259352 	-8.87134e-20 8.78335 	0.257425 	-6.42716e-20 8.7824 	0.256047 	-3.20127e-20 8.77728 	0.255079 	6.09117e-21 8.76966 	0.254664 	3.71844e-20 8.75802 	0.255154 	5.68311e-20 8.76183 	0.253052 	1.432e-19 8.75981 	0.251627 	1.69171e-19 8.75504 	0.250519 	1.66826e-19 8.74885 	0.249809 	1.42037e-19 8.73886 	0.250192 	5.60012e-20 8.742 	0.247906 	-6.91332e-20 8.73923 	0.246445 	-1.03869e-19 8.73483 	0.245209 	-1.13991e-19 8.72974 	0.244219 	-1.03273e-19 8.72123 	0.244526 	1.62077e-20 8.72381 	0.242131 	1.07762e-19 8.72055 	0.240649 	1.39587e-19 8.71652 	0.239282 	1.63806e-19 8.71226 	0.238003 	1.82718e-19 8.7051 	0.238163 	1.16099e-19 8.70721 	0.235651 	7.73198e-20 8.70368 	0.234095 	8.94602e-20 8.70002 	0.232553 	1.02463e-19 8.69631 	0.231009 	1.1545e-19 8.69049 	0.230885 	1.14498e-19 8.69186 	0.228226 	1.82243e-20 8.68864 	0.226494 	-1.80436e-20 8.68537 	0.22476 	-5.4352e-20 8.68205 	0.223023 	-9.07009e-20 8.67747 	0.222601 	-3.84212e-20 8.67824 	0.219845 	-9.22549e-20 8.67541 	0.217935 	-8.96408e-20 8.67252 	0.216023 	-8.70602e-20 8.66958 	0.214109 	-8.4513e-20 8.66604 	0.213394 	1.55922e-22 8.66638 	0.210557 	8.43993e-20 8.66393 	0.208463 	9.64158e-20 8.66142 	0.206367 	1.08465e-19 8.65885 	0.204269 	1.20547e-19 8.65618 	0.203241 	5.71175e-20 8.65628 	0.200277 	4.45116e-20 8.6542 	0.197971 	3.22801e-20 8.65206 	0.195663 	2.00429e-20 8.64985 	0.193352 	7.79997e-21 8.64791 	0.192005 	2.10762e-20 8.64791 	0.188877 	1.27692e-19 8.64618 	0.186332 	9.92681e-20 8.64437 	0.183786 	7.09469e-20 8.6425 	0.181237 	4.27288e-20 8.64114 	0.179561 	-9.47938e-20 8.6411 	0.176238 	-9.69118e-20 8.6397 	0.173436 	-9.90032e-20 8.63821 	0.170631 	-1.0107e-19 8.63665 	0.167824 	-1.03111e-19 8.63581 	0.165815 	-1.25948e-19 8.63579 	0.162269 	-1.9534e-19 8.6347 	0.159189 	-1.42172e-19 8.63352 	0.156107 	-8.91165e-20 8.63225 	0.153024 	-3.6173e-20 8.63187 	0.150683 	1.13354e-19 8.63191 	0.146885 	8.81754e-20 8.63112 	0.143514 	6.33195e-20 8.63023 	0.140142 	3.84484e-20 8.62926 	0.136768 	1.3562e-20 8.62935 	0.134103 	8.20799e-21 8.62949 	0.130015 	-1.1442e-20 8.62899 	0.126333 	-3.70405e-20 8.6284 	0.122649 	-6.26231e-20 8.62771 	0.118964 	-8.81896e-20 8.62827 	0.115979 	-1.00489e-19 8.62855 	0.111553 	1.788e-20 8.62834 	0.107528 	4.42146e-20 8.62802 	0.103501 	7.07158e-20 8.62759 	0.0994721 	9.73836e-20 8.62862 	0.0961634 	1.50558e-20 8.62905 	0.0913582 	1.06349e-21 8.6291 	0.086962 	7.55308e-22 8.62902 	0.0825646 	4.46889e-22 8.62883 	0.078166 	1.38231e-22 8.63034 	0.0745316 	0 8.63093 	0.0693112 	1.08071e-20 8.63121 	0.0645181 	3.53991e-20 8.63136 	0.0597242 	5.99701e-20 8.63139 	0.0549296 	8.452e-20 8.63341 	0.0509626 	9.3557e-20 8.63416 	0.0452899 	-3.43959e-20 8.63464 	0.0400765 	-3.79168e-20 8.63498 	0.0348629 	-4.1674e-20 8.63519 	0.029649 	-4.56673e-20 8.63774 	0.0253476 	7.35606e-20 8.63863 	0.0191924 	-6.02018e-20 8.63927 	0.0135467 	-9.00381e-20 8.63977 	0.00790138 	-1.20104e-19 8.64012 	0.00225635 	-1.50399e-19 8.64323 	-0.00236895 	-4.0438e-20 8.64424 	-0.00903404 	-1.65649e-19 8.64501 	-0.0151531 	-1.82008e-19 8.64562 	-0.0212711 	-1.98573e-19 8.64609 	-0.027388 	-2.15345e-19 8.64979 	-0.0323892 	-4.8818e-20 8.65092 	-0.0396462 	2.44187e-19 8.65176 	-0.0463029 	2.53268e-19 8.65243 	-0.0529577 	2.62733e-19 8.65306 	-0.0595752 	2.63801e-19 8.6572 	-0.065026 	-2.28304e-20 8.65835 	-0.072871 	-3.4182e-20 8.65922 	-0.0801626 	-2.35554e-20 8.65991 	-0.0873912 	-1.05038e-20 8.66117 	-0.0943892 	-5.04207e-21 8.66529 	-0.100462 	-3.03762e-20 8.6665 	-0.108866 	-2.03354e-19 8.66739 	-0.116876 	-2.43751e-19 8.66805 	-0.124717 	-2.28863e-19 8.66997 	-0.132132 	-1.33177e-19 8.67393 	-0.138895 	8.68329e-20 8.67517 	-0.147925 	2.56702e-19 8.67607 	-0.156711 	3.60818e-19 8.67661 	-0.165226 	3.91316e-19 8.67912 	-0.173121 	3.26532e-19 8.68278 	-0.180636 	2.03425e-19 8.68402 	-0.19037 	3.24405e-19 8.68494 	-0.200004 	4.18256e-19 8.68526 	-0.209246 	4.01191e-19 8.68825 	-0.217675 	2.58818e-19 8.69146 	-0.225987 	9.90261e-20 8.69261 	-0.236481 	6.11485e-20 8.69354 	-0.246965 	2.32495e-20 8.69413 	-0.256899 	-2.04119e-21 8.69692 	-0.266067 	-1.46879e-20 8.69952 	-0.27523 	-2.73579e-20 8.70051 	-0.286539 	-2.09603e-19 8.70126 	-0.297839 	-3.91865e-19 8.70262 	-0.308527 	-3.88625e-19 8.70464 	-0.318595 	-1.98365e-19 8.70645 	-0.328659 	-8.11976e-21 8.70717 	-0.340843 	-1.24592e-20 8.70763 	-0.353015 	-1.69056e-20 8.70978 	-0.364549 	-2.06938e-20 8.71084 	-0.375553 	-2.42458e-20 8.71168 	-0.386552 	-2.78951e-20 8.712 	-0.399659 	-2.26011e-19 8.71258 	-0.412585 	-3.68348e-19 8.71434 	-0.42503 	-3.54711e-19 8.71491 	-0.437185 	-2.39359e-19 8.71457 	-0.449133 	-4.94075e-20 8.71435 	-0.463193 	1.39646e-19 8.71493 	-0.476821 	1.95891e-19 8.71569 	-0.490262 	1.97119e-19 8.71619 	-0.503685 	1.96568e-19 8.71443 	-0.516579 	9.46804e-22 8.71371 	-0.531505 	-1.52513e-19 8.71354 	-0.545968 	-1.31099e-19 8.71309 	-0.560414 	-1.09174e-19 8.71238 	-0.574844 	-8.67388e-20 8.71054 	-0.589061 	-3.29664e-21 8.70976 	-0.596807 	-5.8736e-21 8.70905 	-0.604397 	-1.23137e-20 8.70827 	-0.611983 	-1.87621e-20 8.70743 	-0.619565 	-2.52189e-20 8.70661 	-0.626335 	-3.09955e-20 8.70538 	-0.634265 	-3.60484e-20 8.70407 	-0.642189 	-4.10907e-20 8.70269 	-0.650107 	-4.61227e-20 8.70122 	-0.65802 	-5.11442e-20 8.70051 	-0.665884 	-5.65301e-20 8.69768 	-0.682322 	-9.75979e-20 8.69408 	-0.698539 	-1.08335e-19 8.69018 	-0.714734 	-1.19298e-19 8.68598 	-0.730907 	-1.30486e-19 8.68347 	-0.746929 	-4.76849e-20 8.67992 	-0.764635 	-3.32987e-20 8.67496 	-0.781897 	-2.59879e-20 8.66917 	-0.798934 	-2.20077e-20 8.66405 	-0.815816 	-2.75329e-20 8.65913 	-0.832635 	-3.80421e-20 8.65398 	-0.851241 	-1.21119e-19 8.64849 	-0.869823 	-2.04135e-19 8.64169 	-0.88775 	-2.02403e-19 8.63435 	-0.905189 	-1.14989e-19 8.62668 	-0.922644 	-2.7365e-20 8.61967 	-0.941999 	-1.24736e-20 8.61237 	-0.961247 	-4.38795e-22 8.60497 	-0.980133 	-1.54852e-22 8.59606 	-0.998538 	0 8.58537 	-1.01642 	0 8.57618 	-1.03629 	0 8.56638 	-1.05559 	0 8.55623 	-1.07486 	0 8.54573 	-1.09411 	0 8.53459 	-1.11328 	0 8.53391 	-1.11447 	1.13812e-22 8.53317 	-1.11561 	1.80637e-21 8.53244 	-1.11675 	3.49923e-21 8.53171 	-1.1179 	5.19239e-21 8.53098 	-1.11903 	6.86825e-21 8.51906 	-1.13735 	2.36454e-20 8.50684 	-1.15565 	4.03293e-20 8.49431 	-1.17393 	5.69193e-20 8.48146 	-1.19219 	7.34152e-20 8.4686 	-1.2101 	8.99856e-20 8.45548 	-1.23081 	6.06052e-20 8.44089 	-1.25092 	3.31595e-20 8.42456 	-1.27027 	8.1722e-21 8.40772 	-1.28897 	2.53984e-20 8.39048 	-1.30768 	4.48802e-20 8.37446 	-1.3282 	1.67785e-19 8.35805 	-1.34867 	2.86018e-19 8.34066 	-1.36818 	2.67695e-19 8.32144 	-1.38686 	1.87466e-19 8.30051 	-1.4049 	5.31561e-20 8.28668 	-1.41938 	1.72925e-19 8.27201 	-1.43308 	1.6458e-19 8.25704 	-1.44663 	1.33562e-19 8.24189 	-1.46018 	1.02305e-19 8.22818 	-1.47226 	7.41663e-20 8.222 	-1.47781 	6.32907e-20 8.21578 	-1.48335 	5.23836e-20 8.20953 	-1.48889 	4.14447e-20 8.20324 	-1.49436 	3.60271e-20 8.19687 	-1.49961 	4.9198e-20 8.17511 	-1.51885 	3.86706e-20 8.15134 	-1.53695 	3.03174e-20 8.12722 	-1.55504 	2.18605e-20 8.10245 	-1.57231 	2.72406e-20 8.07702 	-1.58912 	4.14309e-20 8.05266 	-1.60763 	2.37226e-20 8.02794 	-1.62613 	5.99754e-21 8.00217 	-1.64308 	1.44195e-20 7.97459 	-1.65887 	3.12965e-20 7.94557 	-1.67407 	5.23406e-20 7.93079 	-1.68316 	6.27849e-20 7.9156 	-1.69158 	6.15425e-20 7.90013 	-1.69962 	5.35594e-20 7.88458 	-1.70766 	4.55444e-20 7.86995 	-1.71517 	3.8027e-20 7.8561 	-1.72271 	3.25314e-20 7.84217 	-1.73025 	2.70192e-20 7.82816 	-1.7378 	2.14902e-20 7.81362 	-1.74493 	1.60199e-20 7.79837 	-1.75157 	1.06128e-20 7.76928 	-1.76732 	9.42111e-21 7.73895 	-1.78251 	6.09675e-21 7.70626 	-1.79634 	2.02942e-21 7.67139 	-1.80841 	1.51272e-20 7.63598 	-1.82056 	2.83427e-20 7.60805 	-1.83251 	2.39051e-20 7.57895 	-1.84354 	3.01909e-20 7.54859 	-1.85354 	4.83451e-20 7.51798 	-1.86353 	6.65907e-20 7.48997 	-1.8726 	8.32381e-20 7.48503 	-1.87449 	8.75503e-20 7.48008 	-1.87637 	9.18673e-20 7.47513 	-1.87826 	9.61889e-20 7.46984 	-1.87997 	9.48554e-20 7.46423 	-1.88152 	8.82414e-20 7.43128 	-1.89291 	8.70293e-20 7.39622 	-1.90342 	8.1675e-20 7.36088 	-1.91394 	7.6363e-20 7.3221 	-1.92265 	6.23389e-20 7.2818 	-1.93084 	4.547e-20 7.2476 	-1.94054 	-3.79474e-21 7.21175 	-1.94947 	-4.40689e-20 7.17293 	-1.95687 	-6.66116e-20 7.13382 	-1.96427 	-8.9058e-20 7.0937 	-1.97151 	-1.07575e-19 7.09246 	-1.97177 	-1.06558e-19 7.09116 	-1.972 	-1.06292e-19 7.08979 	-1.97217 	-1.07316e-19 7.08841 	-1.97235 	-1.0834e-19 7.08704 	-1.97253 	-1.09362e-19 7.05022 	-1.9787 	-1.65642e-19 7.01317 	-1.98489 	-2.224e-19 6.97588 	-1.9911 	-2.79642e-19 6.93606 	-1.99595 	-2.17253e-19 6.89409 	-1.99983 	-6.69127e-20 6.85692 	-2.00535 	-3.61023e-20 6.81895 	-2.01055 	-1.14518e-20 6.77738 	-2.01372 	-2.49179e-20 6.73556 	-2.0169 	-3.84491e-20 6.69148 	-2.01933 	-5.07362e-20 6.68638 	-2.01978 	-3.98389e-20 6.68111 	-2.02012 	-3.49048e-20 6.67551 	-2.02027 	-4.1628e-20 6.66991 	-2.02041 	-4.83576e-20 6.66435 	-2.02056 	-5.50332e-20 6.62912 	-2.02247 	-1.21136e-19 6.59372 	-2.0244 	-1.87657e-19 6.55816 	-2.02634 	-2.54604e-19 6.52035 	-2.027 	-1.99871e-19 6.48084 	-2.02683 	-6.57227e-20 6.44171 	-2.02814 	-1.27708e-19 6.40224 	-2.0294 	-1.86943e-19 6.35899 	-2.02846 	-1.64091e-19 6.31552 	-2.02753 	-1.41121e-19 6.26924 	-2.02562 	-9.14869e-20 6.26186 	-2.02552 	-1.15434e-19 6.25426 	-2.02529 	-1.28202e-19 6.24621 	-2.0248 	-1.17604e-19 6.23817 	-2.02431 	-1.06996e-19 6.23019 	-2.02382 	-9.64875e-20 6.19597 	-2.02235 	-5.13755e-20 6.16161 	-2.02089 	-6.07197e-21 6.12713 	-2.01944 	3.9426e-20 6.09077 	-2.01682 	1.60371e-20 6.05302 	-2.01346 	-4.99884e-20 6.01289 	-2.01095 	-8.88197e-20 5.97258 	-2.00844 	-1.2758e-19 5.92898 	-2.00388 	-1.10384e-19 5.88484 	-1.99915 	-8.76147e-20 5.83819 	-1.99358 	-3.61848e-20 5.82918 	-1.99269 	-2.30808e-20 5.81996 	-1.99165 	-1.58175e-20 5.81027 	-1.99034 	-2.08148e-20 5.80058 	-1.98902 	-2.58187e-20 5.79098 	-1.98772 	-3.07799e-20 5.75823 	-1.98356 	-4.11242e-20 5.7254 	-1.9794 	-5.15268e-20 5.69246 	-1.97525 	-6.19886e-20 5.65804 	-1.97007 	-4.91127e-20 5.62252 	-1.96422 	-2.16676e-20 5.58261 	-1.95847 	-5.89466e-20 5.54255 	-1.95271 	-9.62348e-20 5.49992 	-1.94522 	-8.80988e-20 5.45615 	-1.93728 	-6.8887e-20 5.41056 	-1.92877 	-3.74247e-20 5.39974 	-1.92692 	-2.84688e-20 5.38868 	-1.92491 	-2.4242e-20 5.37717 	-1.92259 	-2.94082e-20 5.36564 	-1.92028 	-3.45804e-20 5.35422 	-1.91798 	-3.97106e-20 5.3243 	-1.91199 	-5.47563e-20 5.29432 	-1.906 	-6.98464e-20 5.26428 	-1.90001 	-8.49817e-20 5.2331 	-1.89317 	-6.74275e-20 5.20106 	-1.88575 	-2.8178e-20 5.16249 	-1.87745 	-1.76824e-20 5.12381 	-1.86916 	-7.19732e-21 5.08319 	-1.85952 	-1.47685e-21 5.04056 	-1.84905 	-7.39582e-22 4.99698 	-1.83832 	-1.84818e-21 4.98338 	-1.83514 	-7.21754e-22 4.96948 	-1.83177 	-4.68216e-22 4.95507 	-1.82806 	-1.77129e-21 4.94065 	-1.82435 	-3.07461e-21 4.92634 	-1.82067 	-4.36681e-21 4.9011 	-1.81401 	-5.23516e-21 4.87582 	-1.80735 	-6.10223e-21 4.85051 	-1.80068 	-6.96799e-21 4.82439 	-1.79338 	-3.80557e-21 4.79762 	-1.78559 	2.33996e-21 4.76108 	-1.77553 	2.02654e-21 4.72447 	-1.76547 	1.72275e-21 4.68617 	-1.75434 	2.11845e-21 4.6454 	-1.74209 	4.47941e-21 4.60448 	-1.72981 	6.85048e-21 4.58651 	-1.72464 	8.4368e-21 4.56815 	-1.71921 	9.3828e-21 4.5492 	-1.71337 	9.34658e-21 4.53024 	-1.70753 	9.31105e-21 4.51141 	-1.70173 	9.27648e-21 4.49297 	-1.69581 	7.52631e-21 4.47451 	-1.68989 	5.77575e-21 4.45604 	-1.68398 	4.02478e-21 4.43709 	-1.67763 	3.03205e-21 4.41771 	-1.67092 	2.69052e-21 4.38372 	-1.65973 	-4.72609e-21 4.3497 	-1.64853 	-1.21426e-20 4.31322 	-1.63627 	-1.40371e-20 4.27