# vtk DataFile Version 2.0
track0
ASCII
DATASET POLYDATA
POINTS 12054 float
-0.0205 0.001 1e-05
-0.02052 0.000999985 1e-05
-0.02054 0.000999973 1e-05
-0.02056 0.000999965 1e-05
-0.02058 0.000999959 1e-05
-0.0206 0.000999956 1e-05
-0.0205 0.00367778 1e-05
-0.02052 0.00367778 1e-05
-0.02054 0.00367777 1e-05
-0.02056 0.00367777 1e-05
-0.02058 0.00367777 1e-05
-0.0206 0.00367777 1e-05
-0.0205 0.00635556 1e-05
-0.02052 0.00635555 1e-05
-0.02054 0.00635555 1e-05
-0.02056 0.00635555 1e-05
-0.02058 0.00635555 1e-05
-0.0206 0.00635555 1e-05
-0.0205 0.00903333 1e-05
-0.02052 0.00903333 1e-05
-0.02054 0.00903333 1e-05
-0.02056 0.00903333 1e-05
-0.02058 0.00903333 1e-05
-0.0206 0.00903333 1e-05
-0.0205 0.0117111 1e-05
-0.02052 0.0117111 1e-05
-0.02054 0.0117111 1e-05
-0.02056 0.0117111 1e-05
-0.02058 0.0117111 1e-05
-0.0206 0.0117111 1e-05
-0.0205 0.0143889 1e-05
-0.02052 0.0143889 1e-05
-0.02054 0.0143889 1e-05
-0.02056 0.0143889 1e-05
-0.02058 0.0143889 1e-05
-0.0206 0.0143889 1e-05
-0.0205 0.0170667 1e-05
-0.02052 0.0170667 1e-05
-0.02054 0.0170667 1e-05
-0.02056 0.0170667 1e-05
-0.02058 0.0170667 1e-05
-0.0206 0.0170667 1e-05
-0.0205 0.0197444 1e-05
-0.02052 0.0197444 1e-05
-0.02054 0.0197444 1e-05
-0.02056 0.0197444 1e-05
-0.02058 0.0197444 1e-05
-0.0206 0.0197444 1e-05
-0.0205 0.0224222 1e-05
-0.02052 0.0224222 1e-05
-0.02054 0.0224222 1e-05
-0.02056 0.0224222 1e-05
-0.02058 0.0224222 1e-05
-0.0206 0.0224222 1e-05
-0.0205 0.0251 1e-05
-0.02052 0.0250998 1e-05
-0.02054 0.0250997 1e-05
-0.02056 0.0250995 1e-05
-0.02058 0.0250995 1e-05
-0.0206 0.0250994 1e-05
-0.0205 0.001 1e-05
-0.0202034 0.00100022 1e-05
-0.0199069 0.00100067 1e-05
-0.0196103 0.00100133 1e-05
-0.0193137 0.0010022 1e-05
-0.0190172 0.00100328 1e-05
-0.0187132 0.0010047 1e-05
-0.0184093 0.00100593 1e-05
-0.0181054 0.00100716 1e-05
-0.0178015 0.00100839 1e-05
-0.0174976 0.00100962 1e-05
-0.0172058 0.00101093 1e-05
-0.016914 0.00101205 1e-05
-0.0166222 0.00101317 1e-05
-0.0163305 0.00101429 1e-05
-0.0160387 0.00101541 1e-05
-0.0157586 0.00101657 1e-05
-0.0154784 0.00101768 1e-05
-0.0151983 0.00101883 1e-05
-0.0149182 0.00102001 1e-05
-0.0146381 0.00102124 1e-05
-0.014396 0.00102235 1e-05
-0.0141539 0.00102347 1e-05
-0.0139118 0.00102462 1e-05
-0.0136698 0.0010258 1e-05
-0.013465 0.00102682 1e-05
-0.0134307 0.00102699 1e-05
-0.0133964 0.00102717 1e-05
-0.0133621 0.00102734 1e-05
-0.0133278 0.00102752 1e-05
-0.0132934 0.00102769 1e-05
-0.0130353 0.00102903 1e-05
-0.0127771 0.00103038 1e-05
-0.0125189 0.00103175 1e-05
-0.0122607 0.00103314 1e-05
-0.0120025 0.00103455 1e-05
-0.0117547 0.00103591 1e-05
-0.0115068 0.00103729 1e-05
-0.0112589 0.00103868 1e-05
-0.0110111 0.00104007 1e-05
-0.0107632 0.00104147 1e-05
-0.0105252 0.00104282 1e-05
-0.0102873 0.00104417 1e-05
-0.0100493 0.00104553 1e-05
-0.00981133 0.00104689 1e-05
-0.00957337 0.00104826 1e-05
-0.00934491 0.00104957 1e-05
-0.00911645 0.00105088 1e-05
-0.00888799 0.0010522 1e-05
-0.00865954 0.00105352 1e-05
-0.00843108 0.00105484 1e-05
-0.00821175 0.0010561 1e-05
-0.00799242 0.00105736 1e-05
-0.00777309 0.00105863 1e-05
-0.00755376 0.0010599 1e-05
-0.00733443 0.00106117 1e-05
-0.00712387 0.00106239 1e-05
-0.0069133 0.00106361 1e-05
-0.00670273 0.00106483 1e-05
-0.00649217 0.00106606 1e-05
-0.0062816 0.00106729 1e-05
-0.00607944 0.00106846 1e-05
-0.00587729 0.00106965 1e-05
-0.00567514 0.00107083 1e-05
-0.00547298 0.00107202 1e-05
-0.00527083 0.00107322 1e-05
-0.00507675 0.00107436 1e-05
-0.00488267 0.00107552 1e-05
-0.0046886 0.00107669 1e-05
-0.00449452 0.00107786 1e-05
-0.00430044 0.00107903 1e-05
-0.00411412 0.00108017 1e-05
-0.0039278 0.00108131 1e-05
-0.00374147 0.00108247 1e-05
-0.00355515 0.00108364 1e-05
-0.00336883 0.00108482 1e-05
-0.00318995 0.00108595 1e-05
-0.00301107 0.00108711 1e-05
-0.00283219 0.00108828 1e-05
-0.00265331 0.00108948 1e-05
-0.00247443 0.00109069 1e-05
-0.0023027 0.00109186 1e-05
-0.00213097 0.00109307 1e-05
-0.00195924 0.0010943 1e-05
-0.00178751 0.00109556 1e-05
-0.00161577 0.00109684 1e-05
-0.0014509 0.00109809 1e-05
-0.00128603 0.00109938 1e-05
-0.00112116 0.00110072 1e-05
-0.000956291 0.00110211 1e-05
-0.000791418 0.00110354 1e-05
-0.000633135 0.00110496 1e-05
-0.000474852 0.00110645 1e-05
-0.000316569 0.00110799 1e-05
-0.000158287 0.00110959 1e-05
0 0.00111126 1e-05
0.000105677 0.0011124 1e-05
0.000211355 0.00111358 1e-05
0.000317031 0.00111478 1e-05
0.000422708 0.00111601 1e-05
0.000528387 0.00111726 1e-05
0.000634886 0.00111854 1e-05
0.000741385 0.00111984 1e-05
0.000847884 0.00112114 1e-05
0.000954383 0.00112246 1e-05
0.00106088 0.00112378 1e-05
0.00116821 0.00112512 1e-05
0.00127554 0.00112648 1e-05
0.00138286 0.00112784 1e-05
0.00149019 0.0011292 1e-05
0.00159752 0.00113057 1e-05
0.00170568 0.00113195 1e-05
0.00181384 0.00113335 1e-05
0.001922 0.00113476 1e-05
0.00203016 0.00113617 1e-05
0.00213833 0.00113759 1e-05
0.00224733 0.00113903 1e-05
0.00235633 0.00114048 1e-05
0.00246533 0.00114194 1e-05
0.00257433 0.00114342 1e-05
0.00268334 0.0011449 1e-05
0.00279319 0.0011464 1e-05
0.00290304 0.00114792 1e-05
0.00301289 0.00114945 1e-05
0.00312274 0.00115099 1e-05
0.00323259 0.00115254 1e-05
0.00334329 0.00115412 1e-05
0.00345399 0.00115571 1e-05
0.0035647 0.00115732 1e-05
0.0036754 0.00115894 1e-05
0.00378611 0.00116058 1e-05
0.00389767 0.00116224 1e-05
0.00400924 0.00116393 1e-05
0.0041208 0.00116564 1e-05
0.00423236 0.00116736 1e-05
0.00434393 0.0011691 1e-05
0.00445636 0.00117087 1e-05
0.00456879 0.00117267 1e-05
0.00468122 0.0011745 1e-05
0.00479366 0.00117634 1e-05
0.00490609 0.0011782 1e-05
0.0050194 0.00118009 1e-05
0.0051327 0.00118202 1e-05
0.00524601 0.00118397 1e-05
0.00535931 0.00118595 1e-05
0.00547262 0.00118794 1e-05
0.00558681 0.00118995 1e-05
0.00570099 0.00119202 1e-05
0.00581518 0.00119411 1e-05
0.00592937 0.00119623 1e-05
0.00604356 0.00119836 1e-05
0.00615863 0.00120051 1e-05
0.00627371 0.00120272 1e-05
0.00638878 0.00120496 1e-05
0.00650385 0.00120722 1e-05
0.00661893 0.0012095 1e-05
0.0067349 0.00121179 1e-05
0.00685087 0.00121414 1e-05
0.00696684 0.00121653 1e-05
0.0070828 0.00121894 1e-05
0.00719878 0.00122136 1e-05
0.00731565 0.00122379 1e-05
0.00743252 0.00122629 1e-05
0.00754939 0.00122882 1e-05
0.00766626 0.00123138 1e-05
0.00778313 0.00123394 1e-05
0.00790091 0.00123651 1e-05
0.00801869 0.00123915 1e-05
0.00813647 0.00124183 1e-05
0.00825425 0.00124453 1e-05
0.00837203 0.00124723 1e-05
0.00849073 0.00124993 1e-05
0.00860942 0.00125271 1e-05
0.00872812 0.00125553 1e-05
0.00884681 0.00125837 1e-05
0.00896551 0.0012612 1e-05
0.00908513 0.00126404 1e-05
0.00920475 0.00126695 1e-05
0.00932436 0.0012699 1e-05
0.00944398 0.00127287 1e-05
0.0095636 0.00127584 1e-05
0.00968415 0.0012788 1e-05
0.0098047 0.00128183 1e-05
0.00992524 0.00128491 1e-05
0.0100458 0.00128801 1e-05
0.0101663 0.0012911 1e-05
0.0102878 0.00129419 1e-05
0.0104093 0.00129734 1e-05
0.0105308 0.00130055 1e-05
0.0106523 0.00130377 1e-05
0.0107738 0.00130697 1e-05
0.0108962 0.00131018 1e-05
0.0110186 0.00131344 1e-05
0.0111411 0.00131676 1e-05
0.0112635 0.00132009 1e-05
0.0113859 0.00132341 1e-05
0.0115093 0.00132673 1e-05
0.0116327 0.0013301 1e-05
0.0117561 0.00133353 1e-05
0.0118794 0.00133696 1e-05
0.0120028 0.00134038 1e-05
0.0121272 0.00134381 1e-05
0.0122515 0.00134728 1e-05
0.0123759 0.0013508 1e-05
0.0125002 0.00135433 1e-05
0.0126245 0.00135784 1e-05
0.0127498 0.00136137 1e-05
0.0128752 0.00136493 1e-05
0.0130005 0.00136853 1e-05
0.0131258 0.00137214 1e-05
0.0132511 0.00137574 1e-05
0.0133774 0.00137937 1e-05
0.0135036 0.00138301 1e-05
0.0136299 0.00138669 1e-05
0.0137562 0.00139037 1e-05
0.0138825 0.00139406 1e-05
0.0140098 0.00139776 1e-05
0.014137 0.00140149 1e-05
0.0142643 0.00140523 1e-05
0.0143915 0.00140898 1e-05
0.0145188 0.00141274 1e-05
0.0146471 0.00141652 1e-05
0.0147753 0.00142032 1e-05
0.0149036 0.00142412 1e-05
0.0150318 0.00142793 1e-05
0.0151601 0.00143175 1e-05
0.0152893 0.00143561 1e-05
0.0154186 0.00143947 1e-05
0.0155478 0.00144332 1e-05
0.0156771 0.00144719 1e-05
0.0158063 0.00145106 1e-05
0.0159366 0.00145498 1e-05
0.0160668 0.00145889 1e-05
0.0161971 0.0014628 1e-05
0.0163274 0.00146671 1e-05
0.0164576 0.00147063 1e-05
0.0165889 0.0014746 1e-05
0.0167201 0.00147856 1e-05
0.0168514 0.0014825 1e-05
0.0169827 0.00148645 1e-05
0.0171139 0.00149041 1e-05
0.0172462 0.00149442 1e-05
0.0173785 0.00149842 1e-05
0.0175108 0.0015024 1e-05
0.0176431 0.00150638 1e-05
0.0177754 0.00151037 1e-05
0.0179087 0.00151441 1e-05
0.018042 0.00151844 1e-05
0.0181753 0.00152244 1e-05
0.0183087 0.00152644 1e-05
0.018442 0.00153046 1e-05
0.0185763 0.00153452 1e-05
0.0187107 0.00153856 1e-05
0.018845 0.00154258 1e-05
0.0189794 0.00154659 1e-05
0.0191137 0.00155062 1e-05
0.0192491 0.00155469 1e-05
0.0193845 0.00155874 1e-05
0.0195199 0.00156277 1e-05
0.0196553 0.00156679 1e-05
0.0197907 0.00157081 1e-05
0.0199272 0.00157489 1e-05
0.0200636 0.00157893 1e-05
0.0202001 0.00158296 1e-05
0.0203365 0.00158697 1e-05
0.020473 0.00159099 1e-05
0.0206105 0.00159505 1e-05
0.020748 0.00159908 1e-05
0.0208855 0.00160309 1e-05
0.021023 0.00160709 1e-05
0.0211606 0.00161108 1e-05
0.0212991 0.00161512 1e-05
0.0214377 0.00161912 1e-05
0.0215763 0.0016231 1e-05
0.0217149 0.00162707 1e-05
0.0218535 0.00163102 1e-05
0.0219931 0.00163502 1e-05
0.0221328 0.00163898 1e-05
0.0222724 0.00164292 1e-05
0.0224121 0.00164684 1e-05
0.0225517 0.00165075 1e-05
0.0226925 0.00165469 1e-05
0.0228332 0.0016586 1e-05
0.022974 0.00166248 1e-05
0.0231147 0.00166635 1e-05
0.0232555 0.00167019 1e-05
0.0233973 0.00167407 1e-05
0.0235391 0.00167791 1e-05
0.023681 0.00168173 1e-05
0.0238228 0.00168552 1e-05
0.0239647 0.00168929 1e-05
0.0241076 0.00169308 1e-05
0.0242505 0.00169684 1e-05
0.0243935 0.00170056 1e-05
0.0245364 0.00170426 1e-05
0.0246794 0.00170793 1e-05
0.0248234 0.00171163 1e-05
0.0249675 0.00171528 1e-05
0.0251115 0.0017189 1e-05
0.0252556 0.00172249 1e-05
0.0253996 0.00172604 1e-05
0.0255448 0.00172962 1e-05
0.02569 0.00173314 1e-05
0.0258351 0.00173664 1e-05
0.0259803 0.0017401 1e-05
[...]
POINT_DATA 12054
 FIELD attributes 2
p 1 12054 float
-4.60022 -4.59691 -4.5936 -4.5903 -4.58699 -4.58369
-4.76397 -4.76395 -4.76393 -4.76392 -4.7639 -4.76388
-4.95996 -4.95985 -4.95974 -4.95963 -4.95952 -4.95942
-5.08332 -5.08328 -5.08324 -5.0832 -5.08316 -5.08312
-5.16228 -5.16217 -5.16206 -5.16196 -5.16185 -5.16174
-5.20226 -5.20208 -5.2019 -5.20172 -5.20155 -5.20137
-5.20592 -5.20583 -5.20574 -5.20565 -5.20556 -5.20547
-5.16036 -5.16031 -5.16026 -5.16021 -5.16015 -5.1601
-5.05467 -5.05467 -5.05467 -5.05467 -5.05466 -5.05466
-2.84813 -2.86745 -2.88664 -2.9057 -2.92463 -2.94342
-4.60022 -4.59933 -4.59553 -4.59165 -4.5877 -4.57908 -4.59211 -4.60599 -4.61987 -4.63376 -4.65688 -4.67662 -4.70421 -4.7318 -4.75939 -4.78959 -4.80254 -4.82146 -4.84038 -4.8593 -4.87976 -4.89406 -4.91021 -4.92637 -4.94253 -4.9562 -4.95849 -4.96077 -4.96306 -4.96535 -4.96761 -4.98453 -5.00142 -5.01832 -5.03521 -5.05174 -5.06504 -5.0781 -5.09117 -5.10423 -5.11666 -5.12666 -5.1363 -5.14594 -5.15558 -5.16452 -5.17169 -5.17835 -5.185 -5.19166 -5.19748 -5.2015 -5.20479 -5.20809 -5.21138 -5.21378 -5.21468 -5.21482 -5.21496 -5.2151 -5.21455 -5.21314 -5.21102 -5.2089 -5.20678 -5.20426 -5.20115 -5.19712 -5.19308 -5.18904 -5.18453 -5.17933 -5.17276 -5.16618 -5.15961 -5.15242 -5.14429 -5.13386 -5.12343 -5.11301 -5.10185 -5.09014 -5.07624 -5.06234 -5.04845 -5.03544 -5.02308 -5.00827 -4.99347 -4.97867 -4.966 -4.95467 -4.949 -4.94333 -4.93816 -4.94177 -4.94302 -4.95813 -4.97432 -4.99129 -5.01832 -5.03948 -5.06277 -5.08621 -5.10951 -5.1308 -5.15036 -5.16395 -5.17708 -5.18972 -5.19591 -5.20934 -5.21807 -5.22644 -5.23416 -5.23409 -5.2415 -5.24622 -5.2507 -5.25468 -5.25318 -5.25267 -5.25071 -5.24861 -5.24659 -5.24531 -5.23986 -5.23499 -5.23018 -5.22613 -5.22821 -5.22548 -5.22473 -5.22425 -5.22476 -5.23197 -5.23661 -5.24305 -5.24978 -5.25718 -5.26818 -5.27935 -5.291 -5.30276 -5.31453 -5.32633 -5.34022 -5.3534 -5.3664 -5.37887 -5.38947 -5.40281 -5.41521 -5.42729 -5.43873 -5.44842 -5.46029 -5.47206 -5.48381 -5.49535 -5.50648 -5.51822 -5.53122 -5.54492 -5.55922 -5.57451 -5.58819 -5.60411 -5.62166 -5.64063 -5.66133 -5.67797 -5.69716 -5.71884 -5.74259 -5.76819 -5.78753 -5.80928 -5.83427 -5.8619 -5.89123 -5.91266 -5.93607 -5.96335 -5.99376 -6.02556 -6.04843 -6.07276 -6.10154 -6.13395 -6.16736 -6.19135 -6.21621 -6.24615 -6.28016 -6.31474 -6.33982 -6.36516 -6.39619 -6.43167 -6.46724 -6.49345 -6.51966 -6.55189 -6.58866 -6.62544 -6.65318 -6.68092 -6.71442 -6.7526 -6.79077 -6.82042 -6.85007 -6.88504 -6.92469 -6.96433 -6.99646 -7.02859 -7.06505 -7.10559 -7.14613 -7.18058 -7.21504 -7.25286 -7.29417 -7.33547 -7.37206 -7.40864 -7.44766 -7.48946 -7.53126 -7.56965 -7.60803 -7.64796 -7.68997 -7.73198 -7.77169 -7.8114 -7.85203 -7.89429 -7.93654 -7.97734 -8.01814 -8.0594 -8.10196 -8.14455 -8.18629 -8.22805 -8.26997 -8.31287 -8.35594 -8.39859 -8.44122 -8.48381 -8.52715 -8.57075 -8.61421 -8.65764 -8.70098 -8.7449 -8.7892 -8.83354 -8.87782 -8.922 -8.9666 -9.01164 -9.05687 -9.10201 -9.14706 -9.19242 -9.23827 -9.28441 -9.33043 -9.37639 -9.42255 -9.46927 -9.51633 -9.56322 -9.61007 -9.65704 -9.70459 -9.75276 -9.8005 -9.84819 -9.8959 -9.94402 -9.99291 -10.0414 -10.0899 -10.1384 -10.1874 -10.2371 -10.2864 -10.3356 -10.3849 -10.4345 -10.4851 -10.535 -10.5849 -10.6349 -10.6851 -10.7364 -10.7869 -10.8375 -10.8881 -10.9389 -10.9907 -11.0418 -11.093 -11.1441 -11.1954 -11.2477 -11.2994 -11.351 -11.4027 -11.4545 -11.5074 -11.5596 -11.6117 -11.6639 -11.7162 -11.7695 -11.822 -11.8746 -11.9272 -11.9798 -12.0335 -12.0864 -12.1393 -12.1922 -12.2451 -12.2991 -12.3521 -12.4051 -12.4582 -12.5112 -12.5653 -12.6184 -12.6715 -12.7246 -12.7775 -12.8317 -12.8846 -12.9375 -12.9905 -13.0431 -13.0971 -13.1496 -13.2021 -13.2547 -13.3066 -13.3602 -13.412 -13.4637 -13.5155 -13.5666 -13.6197 -13.6703 -13.721 -13.7717 -13.8212 -13.8735 -13.9227 -13.972 -14.0213 -14.0689 -14.1203 -14.1679 -14.2156 -14.2632 -14.3086 -14.3588 -14.4049 -14.4507 -14.496 -14.5392 -14.5875 -14.6322 -14.6756 -14.7177 -14.7579 -14.8036 -14.8468 -14.887 -14.9248 -14.9612 -15.0037 -15.045 -15.0814 -15.114 -15.1461 -15.1846 -15.2233 -15.2552 -15.2822 -15.3093 -15.3433 -15.3774 -15.4049 -15.4258 -15.4468 -15.4752 -15.5038 -15.5261 -15.5402 -15.5544 -15.5765 -15.5967 -15.6115 -15.6215 -15.6281 -15.6427 -15.6516 -15.6583 -15.665 -15.6631 -15.6677 -15.6649 -15.6623 -15.6598 -15.6542 -15.6504 -15.644 -15.6375 -15.6312 -15.6255 -15.6198 -15.6142 -15.6086 -15.6031 -15.5942 -15.5762 -15.5541 -15.5322 -15.5106 -15.478 -15.4541 -15.4238 -15.3904 -15.3494 -15.3044 -15.2686 -15.2329 -15.1864 -15.129 -15.0717 -15.0235 -14.9729 -14.9116 -14.8463 -14.7757 -14.7134 -14.6381 -14.563 -14.4882 -14.4127 -14.4082 -14.403 -14.3977 -14.3924 -14.3872 -14.3069 -14.2268 -14.147 -14.0676 -13.9743 -13.8839 -13.7902 -13.6924 -13.5808 -13.4684 -13.3646 -13.2606 -13.1432 -13.0224 -12.8981 -12.8135 -12.7208 -12.6267 -12.5328 -12.449 -12.4128 -12.3766 -12.3405 -12.3034 -12.2632 -12.1297 -11.9929 -11.8565 -11.7123 -11.5627 -11.4195 -11.2766 -11.1231 -10.9665 -10.8077 -10.7258 -10.6404 -10.553 -10.4657 -10.3843 -10.3093 -10.2344 -10.1595 -10.0829 -10.0037 -9.83871 -9.67342 -9.50612 -9.3326 -9.15833 -9.0095 -8.85846 -8.70496 -8.55167 -8.41272 -8.38671 -8.3607 -8.33469 -8.30829 -8.28149 -8.10151 -7.92192 -7.74261 -7.56082 -7.37727 -7.19523 -7.01256 -6.82835 -6.6444 -6.45966 -6.45343 -6.44718 -6.44091 -6.43464 -6.42839 -6.24876 -6.06936 -5.89018 -5.71071 -5.52997 -5.34355 -5.15741 -4.97175 -4.78631 -4.60106 -4.57692 -4.55284 -4.52889 -4.50494 -4.48121 -4.31976 -4.15845 -3.99729 -3.83709 -3.67671 -3.49259 -3.30874 -3.12725 -2.94594 -2.76591 -2.73302 -2.70036 -2.66814 -2.63592 -2.60404 -2.45679 -2.30963 -2.16257 -2.01743 -1.87283 -1.69584 -1.51899 -1.34637 -1.17435 -1.00405 -0.966507 -0.929298 -0.892783 -0.856275 -0.820131 -0.687274 -0.55448 -0.421749 -0.291324 -0.161858 0.00440248 0.170561 0.33216 0.492194 0.650875 0.693627 0.73592 0.777308 0.81869 0.859684 0.975574 1.09143 1.20724 1.32092 1.4335 1.58744 1.74131 1.89123 2.03818 2.18465 2.23632 2.28737 2.33731 2.38725 2.43674 2.53125 2.62574 2.72022 2.81286 2.9043 3.04552 3.1867 3.32435 3.4579 3.59173 3.65798 3.72328 3.78712 3.85096 3.91429 3.9816 4.0489 4.11619 4.1822 4.24715 4.37545 4.50373 4.62814 4.7494 4.87079 4.95798 5.04374 5.1277 5.21165 5.29519 5.32917 5.36315 5.39713 5.43051 5.46325 5.57913 5.69281 5.80637 5.91603 6.02536 6.13472 6.24238 6.34768 6.45299 6.55787 6.56295 6.56794 6.57283 6.57771 6.5826 6.67955 6.7765 6.87346 6.96878 7.06191 7.15999 7.25808 7.35322 7.44618 7.53859 7.58641 7.63322 7.67921 7.7252 7.77143 7.81545 7.85946 7.90348 7.94675 7.98871 8.07673 8.16368 8.24952 8.33156 8.41345 8.49651 8.57804 8.65735 8.73669 8.81491 8.82754 8.83982 8.85188 8.86394 8.87604 8.94042 9.0048 9.06919 9.13221 9.19309 9.26735 9.34163 9.4132 9.48201 9.55064 9.60148 9.6508 9.69909 9.7474 9.79661 9.81525 9.8339 9.85254 9.87084 9.88859 9.95445 10.0191 10.0837 10.146 10.2074 10.27 10.3321 10.3919 10.4516 10.5098 10.5306 10.5508 10.5706 10.5905 10.6106 10.6481 10.6857 10.7232 10.7602 10.7961 10.8521 10.9081 10.9625 11.0152 11.0677 11.121 11.173 11.2242 11.2753 11.326 11.33 11.3338 11.3376 11.3414 11.3452 11.3909 11.4366 11.4823 11.5275 11.5713 11.6194 11.6674 11.7142 11.7596 11.8049 11.8484 11.8908 11.9328 11.9747 12.0192 12.0209 12.0225 12.0242 12.0258 12.0274 12.0703 12.113 12.1558 12.1982 12.2393 12.2808 12.3223 12.3627 12.4021 12.4414 12.4809 12.5195 12.5578 12.596 12.634 12.6374 12.6407 12.6441 12.6474 12.6507 12.6844 12.718 12.7517 12.7851 12.8176 12.8535 12.8893 12.9244 12.9586 12.9927 13.0269 13.0608 13.094 13.1271 13.1596 13.1788 13.1974 13.216 13.2346 13.2542 13.2672 13.2802 13.2932 13.3061 13.3187 13.3496 13.3801 13.4107 13.4409 13.4705 13.5001 13.5296 13.5585 13.5869 13.6151 13.6433 13.6711 13.6985 13.7259 13.7529 13.7712 13.7891 13.8069 13.8248 13.8439 13.852 13.8601 13.8682 13.8763 13.8842 13.9096 13.9348 13.96 13.9851 14.0096 14.0339 14.0581 14.0821 14.1055 14.1289 14.1521 14.1752 14.1979 14.2203 14.2426 14.2647 14.2864 14.308 14.3295 14.3508 14.3669 14.3826 14.3983 14.4141 14.4312 14.4358 14.4403 14.4449 14.4494 14.4539 14.4737 14.4935 14.5132 14.5329 14.5523 14.5712 14.5901 14.6089 14.6275 14.6459 14.6639 14.682 14.6998 14.7174 14.7349 14.7521 14.7693 14.7862 14.8029 14.8196 14.836 14.8522 14.8682 14.8842 14.9002 14.9157 14.931 14.9463 14.9616 14.9768 14.9863 14.9957 15.005 15.0144 15.0246 15.0296 15.0346 15.0397 15.0447 15.0497 15.0636 15.0775 15.0915 15.1054 15.1192 15.1324 15.1457 15.159 15.1722 15.1852 15.1978 15.2105 15.2231 15.2355 15.2479 15.2599 15.2719 15.2838 15.2956 15.3073 15.3187 15.33 15.3413 15.3524 15.3635 15.3743 15.3851 15.3956 15.4062 15.4168 15.427 15.4371 15.4471 15.4572 15.4672 15.4768 15.4864 15.4959 15.5053 15.5148 15.524 15.533 15.542 15.551 15.56 15.5686 15.5772 15.5857 15.5943 15.6028 15.6055 15.6083 15.611 15.6137 15.6165 15.622 15.6274 15.6328 15.6383 15.6438 15.6515 15.6593 15.6672 15.675 15.6828 15.6902 15.6976 15.7051 15.7125 15.7201 15.7269 15.734 15.7411 15.7482 15.7554 15.7619 15.7686 15.7753 15.7822 15.7891 15.7953 15.8016 15.8081 15.8147 15.8215 15.8274 15.8334 15.8397 15.8462 15.8528 15.8586 15.8643 15.8704 15.8767 15.883 15.8885 15.8941 15.8999 15.906 15.912 15.9174 15.9227 15.9284 15.9343 15.9403 15.9455 15.9507 15.9563 15.9621 15.9679 15.973 15.9782 15.9836 15.9892 15.9949 15.9999 16.005 16.0103 16.0157 16.0212 16.0261 16.0311 16.0363 16.0416 16.047 16.0518 16.0568 16.0619 16.067 16.0723 16.077 16.0818 16.0868 16.0917 16.0968 16.1013 16.106 16.1108 16.1156 16.1205 16.1249 16.1294 16.1339 16.1384 16.1429 16.147 16.151 16.1551 16.1591 16.1631 16.1668 16.1704 16.174 16.1776 16.1812 16.1844 16.1875 16.1905 16.1936 16.1966 16.1992 16.2015 16.2038 16.2062 16.2084 16.2102 16.2118 16.2135 16.2152 16.2168 16.2182 16.2195 16.2207 16.222 16.2233 16.2244 16.2254 16.2264 16.2274 16.2284 16.2293 16.2302 16.2312 16.2321 16.233 16.234 16.2349 16.2359 16.2368 16.2377 16.2385 16.2394 16.2402 16.241 16.2428 16.2429 16.2431 16.2433 16.2435 16.2439 16.2449 16.246 16.247 16.2478 16.248 16.2482 16.2485 16.2487 16.249 16.2511 16.2532 16.2553 16.2574 16.2594 16.2602 16.2609 16.2616 16.2623 16.2622 16.2613 16.2609 16.2605 16.26 16.2592 16.2541 16.2418 16.2296 16.2174 16.2003 16.1964 16.1924 16.1884 16.1844 16.1774 16.1366 16.0954 16.0541 16.0128 15.9666 15.9184 15.8743 15.8302 15.7861 15.7461 15.7057 15.6654 15.6251 15.5847 15.5444 15.5025 15.4592 15.4147 15.3679 15.3196 15.2695 15.2194 15.1691 15.1177 15.0662 15.013 14.9598 14.9068 14.8539 14.801 14.7464 14.6919 14.6359 14.5786 14.5213 14.4621 14.4028 14.3408 14.2759 14.2109 14.1435 14.0762 14.0064 13.9343 13.8622 13.7872 13.7118 13.6347 13.5562 13.4771 13.395 13.3119 13.2279 13.1431 13.0573 12.9682 12.8771 12.7852 12.693 12.5984 12.5003 12.3985 12.2967 12.1949 12.0898 11.9795 11.866 11.7525 11.6389 11.523 11.399 11.2725 11.1459 11.0194 10.8913 10.7517 10.6104 10.4691 10.3277 10.1859 10.1246 10.0627 10.0009 9.93904 9.87246 9.77776 9.68305 9.58834 9.49363 9.39818 9.22276 9.0463 8.86982 8.69334 8.5143 8.31935 8.12195 7.92454 7.72712 7.52605 7.30887 7.08288 6.85687 6.63084 6.39355 6.1438 5.89563 5.64747 5.3993 5.15335 4.89731 4.59287 4.28353 3.96238 3.59699 3.21705 2.9002 2.61282 2.36258 2.16994 1.96883 1.67228 1.2573 0.666545 0