/*--------------------------------*- C++ -*----------------------------------*\
| =========                 |                                                 |
| \\      /  F ield         | OpenFOAM: The Open Source CFD Toolbox           |
|  \\    /   O peration     | Version:  2312                                  |
|   \\  /    A nd           | Website:  www.openfoam.com                      |
|    \\/     M anipulation  |                                                 |
\*---------------------------------------------------------------------------*/
FoamFile
{
    version     2.0;
    format      ascii;
    arch        "LSB;label=64;scalar=64";
    class       volScalarField;
    location    "50";
    object      Ndy;
}
// * * * * * * * * * * * * * * * * * * * * * * * * * * * * * * * * * * * * * //

dimensions      [0 0 0 0 0 0 0];

internalField   nonuniform List<scalar> 
404911
(
0.28337
0.75635
0.0207262
0.0125614
0.833689
0.801821
0.51276
0.0436928
0.0531919
0.0517804
0.415718
0.258006
0.898652
0.422176
0.217299
0.0569022
0.445416
0.900782
1.05672
0.400192
0.377052
0.891026
0.375941
0.390607
0.89516
0.169537
0.417442
0.97276
0.956763
0.114202
0.444776
0.968963
0.893344
0.444915
0.412451
0.89074
0.72795
0.21435
0.371703
0.893228
0.512452
0.08143
0.306288
0.800845
0.996094
0.231462
0.192461
0.74731
0.901838
0.277298
0.12608
0.287435
0.479517
0.101944
0.171534
0.129598
0.00715202
1.05157
0.209812
0.295043
1.14032
1.41545
0.28707
2.21819
1.05365
0.415687
2.34323
0.301932
0.990581
2.3789
1.01772
2.8356
1.04783
1.64492
2.08214
0.148029
0.0476744
0.321869
1.37554
0.905714
1.47227
0.669253
2.45222
1.03042
1.4813
1.29018
0.323761
1.4224
0.0976122
0.977582
0.531661
0.0394986
1.72871
1.03009
0.806787
1.69749
1.01642
1.24382
2.36357
0.318843
0.141974
1.75996
1.56467
0.174018
0.12739
0.232916
0.402483
0.249772
0.402497
0.500704
0.548
0.466454
0.467949
0.432951
0.0701407
0.274294
0.521754
0.0624219
0.207881
0.516992
0.499026
0.521228
0.527232
0.38305
0.170049
0.396977
0.506998
0.513676
0.531916
0.219009
0.231502
0.226858
0.618514
0.603207
0.541864
0.57596
0.478113
0.485372
0.52809
0.318965
0.183443
0.412256
0.54967
0.542537
0.490001
0.480915
0.46201
0.473504
0.215988
0.253638
0.561736
0.583076
0.538968
0.127277
0.309044
0.199914
0.504577
0.680142
0.663265
0.57926
0.515726
0.449001
0.473499
0.482103
0.487143
0.521033
0.534989
0.540993
0.511484
0.37692
0.340194
0.27025
0.291165
0.230037
0.205138
0.223719
0.19348
0.466087
0.472359
0.517081
0.544823
0.550751
0.526362
0.503415
0.500195
0.501031
0.444953
0.241998
0.270666
0.21332
0.227852
0.383202
0.248573
0.197479
0.220101
0.538041
0.541507
0.580037
0.561764
0.546505
0.540708
0.491839
0.165776
0.205273
0.514782
0.284649
0.460106
0.312252
0.29593
0.299607
0.213195
0.243845
0.249363
0.249832
0.228921
0.549755
0.558884
0.562544
0.567095
0.515923
0.286543
0.210684
0.278571
0.421668
0.728524
0.832816
0.515765
0.355644
0.31754
0.431185
0.332568
0.325836
0.571734
0.582005
0.500746
0.533792
0.508208
0.389347
0.167925
0.166827
0.413668
0.780284
0.77561
0.886818
0.953199
0.863546
0.778812
0.502671
0.413021
0.326777
0.692128
0.701252
0.306945
0.215211
0.609216
0.499584
0.16804
0.287165
0.605315
0.83762
0.677319
0.948137
0.929553
1.03281
0.877801
0.926722
0.787099
0.882242
0.829068
0.415619
0.217994
0.245663
0.241819
0.329955
0.287494
0.490562
0.623545
0.530843
0.974947
0.9227
0.846916
0.954666
0.948701
0.809695
0.907494
0.919014
0.547791
0.241195
0.24453
0.283168
0.142716
0.384733
0.642683
0.650059
1.17196
1.15618
1.04291
0.915249
0.936392
0.935914
0.96016
0.903505
0.962967
0.968565
0.49419
0.252742
0.270458
0.495664
0.184932
0.174805
0.194855
0.385786
0.818018
1.74678
1.75803
0.893299
0.896279
0.928844
0.93577
1.03059
1.12403
0.982773
0.932189
0.776974
0.300042
0.591532
0.256073
0.170165
0.436312
0.680029
0.555438
1.08659
1.04769
0.933956
1.7814
0.885037
0.936872
1.10293
1.63277
1.57814
0.883385
0.864172
0.886177
0.432097
0.460542
0.289755
0.641064
1.03731
1.55035
1.97635
1.24769
1.13595
1.06764
1.77421
1.58521
2.03796
1.97309
1.32049
1.03607
0.914969
0.886323
0.563496
0.182151
0.172933
0.418292
0.633531
1.11216
1.96646
2.31794
1.61113
1.25217
1.49867
1.74134
2.3169
1.61681
1.46582
1.18104
0.720791
0.641811
0.410607
0.195008
0.394135
0.72572
0.714101
1.22996
1.45162
1.41684
1.04551
1.56627
1.90966
1.82908
1.93069
1.69642
1.57586
1.05308
1.0856
0.750813
0.409796
0.224346
0.168978
0.200544
0.449572
1.0807
1.3693
1.58083
1.23539
1.35403
1.54217
1.70716
2.03253
1.97696
2.07297
1.7981
1.09385
0.800222
0.73783
0.323672
0.306075
0.611008
0.575702
1.28188
1.65504
1.78037
1.6231
1.36952
1.59544
1.11371
1.38668
2.12727
2.09008
1.90973
1.32006
0.687044
0.396813
0.189362
0.576136
0.827569
1.15229
2.01056
1.70813
1.5134
1.75958
1.26648
1.06786
1.06146
1.26456
1.5044
1.80311
1.85928
0.968888
0.636204
0.364313
0.304253
0.74854
1.16567
1.4765
2.09571
2.02319
1.47357
1.87019
1.54834
1.42374
1.05475
1.24942
1.76577
1.11714
1.75142
0.938262
0.608073
0.173306
0.463553
0.885675
1.63107
2.41314
2.46054
2.13569
1.73678
1.06128
1.97724
1.98528
1.6414
1.66013
1.33401
1.16387
0.964265
0.65649
0.422194
0.172852
0.295465
0.622754
1.0997
2.03323
2.46968
2.21955
1.75304
1.69747
1.93597
1.9647
1.96044
1.97875
1.99671
2.14074
1.0705
0.85775
0.588536
0.188816
0.166769
0.478281
0.865773
1.27671
2.08885
2.46302
2.03829
1.93461
1.95623
1.62743
2.06441
1.70971
1.61949
1.91594
1.87316
1.34615
0.663058
0.384728
0.292193
0.677772
1.11679
2.02931
2.33935
2.26483
2.03718
2.14443
1.77262
2.12294
2.09385
2.11587
1.51761
2.13649
1.48693
0.926592
0.563022
0.177217
0.156568
0.456993
0.832424
1.53011
2.31247
2.3371
2.09569
2.07474
1.94375
1.99887
1.62141
1.73663
1.69869
2.13876
2.14427
1.75917
0.601116
0.391004
0.172709
0.608592
1.03826
2.05747
2.38228
2.22119
2.17962
2.1938
2.10635
1.95599
1.89253
2.07973
2.20912
2.24696
2.15583
0.936147
0.521156
0.356617
0.383192
0.682904
1.35172
2.01272
2.17912
2.12634
2.10847
2.16208
2.26561
2.21306
2.1607
2.15973
2.27271
2.26007
1.60348
0.997424
0.61345
0.27015
0.435492
0.681035
1.51438
2.08069
2.14737
2.18065
2.32038
2.12864
1.98044
2.22932
2.28854
2.25567
2.3315
2.07873
1.31859
0.790976
0.437394
0.16359
0.170529
0.593672
1.11573
1.65896
1.82693
2.31213
2.19971
2.279
1.73852
1.75725
2.1191
2.24928
2.14751
2.19066
2.08365
1.06457
0.624353
0.294942
0.190991
0.649986
1.09899
2.0529
2.30027
2.07005
2.11516
2.02577
2.01571
1.84545
2.12792
2.24456
2.04244
2.13515
1.93385
1.03621
0.590861
0.166028
0.394407
0.729061
1.08321
2.03605
2.33552
2.17373
2.0029
2.02247
1.96433
1.99133
2.12415
2.27722
2.1892
2.27247
1.45057
0.835239
0.563224
0.157683
0.414508
0.825753
1.48562
2.09601
2.37789
2.09513
1.74942
1.91086
1.90843
2.02303
2.08916
2.03229
2.12114
2.19606
1.49595
0.767556
0.390999
0.171681
0.528756
0.839733
1.53745
2.17564
2.15832
1.90795
1.72132
1.82919
2.01197
1.94647
2.13773
2.11974
2.03409
2.03353
1.11067
0.663684
0.286657
0.286984
0.676194
1.03866
1.56102
2.22918
2.36431
2.24941
1.93999
1.60126
1.71963
2.40901
2.1306
1.98351
2.02636
1.9293
1.01897
0.59828
0.166212
0.386624
0.788767
1.54073
2.181
2.33828
2.46166
1.82613
1.75767
1.62182
1.90554
1.6631
2.17276
2.10018
2.05973
1.90261
0.95014
0.442079
0.149516
0.163785
0.559527
0.85271
1.53121
2.11861
2.2615
2.12575
1.81014
1.99152
1.71401
1.67993
2.08215
2.00693
1.79236
2.42918
1.51417
0.771315
0.389793
0.16364
0.599317
1.05251
1.94703
2.26933
2.16602
2.06324
1.98096
1.75419
1.70848
1.75564
1.88568
2.08271
1.88268
2.09261
1.51528
0.688348
0.269838
0.163276
0.601859
1.06785
2.06892
2.29483
2.18118
2.20033
2.07271
1.84494
1.88443
2.47125
2.07963
2.0939
2.07832
1.83675
1.02846
0.616156
0.164443
0.168868
0.60401
1.05846
2.08835
2.37277
2.04446
2.07865
2.10721
1.97221
1.80418
1.94854
2.31764
1.89509
1.72114
2.20524
1.00512
0.411074
0.140607
0.392946
0.694686
1.06343
2.08675
2.3188
2.11098
2.08495
2.06185
2.0629
2.15762
2.3711
2.36655
2.03156
1.66554
2.13651
1.07505
0.365417
0.156837
0.43159
0.807345
1.48984
2.1565
2.27145
2.10616
2.12708
2.05485
1.93715
2.04409
2.41019
2.19353
1.91207
2.18212
1.95272
0.999971
0.396252
0.162554
0.598645
0.966268
1.48464
2.14332
2.19099
2.07029
2.10466
2.06002
2.02856
1.84953
1.96699
1.97519
1.76989
1.77513
1.6405
0.927031
0.391872
0.173552
0.616808
1.04703
1.93233
2.20289
2.08633
2.07343
2.27622
1.96029
1.93949
2.0117
2.04695
2.01449
1.97242
2.11482
1.50589
0.750938
0.37803
0.169464
0.620816
1.05832
2.0326
2.31859
2.02368
1.97593
2.00015
2.07258
1.81736
2.022
2.29004
2.07428
2.16434
2.19014
1.43071
0.731947
0.360027
0.172772
0.612174
1.06389
2.07122
2.42552
1.98886
2.021
2.01191
1.89447
1.87383
2.05195
2.32182
2.11737
2.23771
2.10247
1.2398
0.6977
0.284347
0.183971
0.643696
1.0614
2.05437
2.48616
2.03491
2.05916
2.01772
2.01448
1.91515
2.00835
2.21574
2.18776
2.26537
2.07107
1.05584
0.603234
0.171326
0.377893
0.656194
1.10159
2.04809
2.33271
2.14049
2.15547
2.11659
2.02695
2.03406
2.03381
2.18985
2.23782
2.27844
2.09441
1.06718
0.596941
0.163345
0.369747
0.653079
1.12547
2.26813
2.36525
2.08967
2.21685
2.23314
2.47338
2.51571
2.44089
2.07832
2.07994
2.27922
2.06002
1.07272
0.609401
0.165365
0.158146
0.507662
0.678104
1.0571
2.13017
2.02075
1.80123
2.55578
2.52899
2.47783
2.19097
2.25449
2.26504
2.20805
2.2282
2.03729
1.03387
0.565381
0.163656
0.165898
0.606317
0.857983
1.17266
1.97413
2.23766
1.80501
2.12303
2.32979
2.28627
2.34766
2.42903
2.30562
2.10424
2.24175
1.92414
0.974033
0.433709
0.599758
1.04573
1.91985
2.32679
2.10141
1.93772
2.12849
2.81228
2.30181
2.16908
2.42233
2.62313
2.12631
2.25215
1.52789
0.825229
0.424658
0.165534
0.568177
1.05731
2.01722
2.46913
2.14066
1.94702
1.93603
2.1081
2.31525
2.33151
2.43451
2.22396
2.27834
2.074
1.42783
0.757848
0.360629
0.153416
0.571632
1.0542
2.04318
2.38439
2.11051
2.06689
1.99317
1.90719
2.13441
2.33633
2.37084
2.191
2.40285
2.24583
1.40354
0.679992
0.27518
0.144669
0.532594
0.990814
1.93488
2.18764
2.07708
2.16971
2.26213
2.44087
2.38718
2.27126
2.31463
2.13761
2.35786
2.19672
1.21475
0.644354
0.163476
0.571274
0.840889
1.79936
2.06241
2.04175
2.09838
2.07614
2.4731
2.24605
2.09759
2.28091
2.00214
2.15445
2.0123
1.04247
0.569756
0.158571
0.142114
0.583586
1.90164
2.04863
2.09441
2.05607
2.03213
1.96093
2.52035
2.21314
2.33149
2.00718
2.16995
1.99349
0.999124
0.552661
0.145066
0.0954383
0.373887
1.13286
1.63344
2.11492
2.17094
2.08651
2.04927
2.10282
2.10759
2.44622
2.15585
2.2337
2.1736
1.47587
0.795313
0.518711
0.146914
0.330175
1.02035
1.41301
1.78864
2.22222
2.08594
2.15087
2.12702
2.43182
2.24789
2.18438
2.11572
2.11845
2.29729
1.43266
0.751304
0.371356
0.347278
0.78948
1.4619
2.09867
2.28399
2.25344
2.04071
1.98211
2.16854
2.12134
2.30144
1.85837
1.99476
2.0513
1.44311
0.722678
0.358593
0.133285
0.394034
0.848178
1.53289
1.87329
1.74006
1.72995
1.7874
2.16945
2.16515
2.42939
2.54093
2.18474
2.18171
1.87052
0.984949
0.59913
0.169998
0.154823
0.471405
1.0099
1.89786
1.72112
1.71927
1.79142
1.78666
2.03301
2.59893
2.27443
2.13787
2.14266
1.88033
1.82151
0.978959
0.518294
0.141266
0.176874
0.725717
0.997009
1.70148
1.6945
1.75667
2.14401
3.43953
2.36627
2.22807
2.30599
2.14937
1.77392
1.69178
1.71324
1.02077
0.50485
0.138583
0.259394
0.71853
1.2046
1.57659
1.71494
1.84875
1.97817
2.57204
2.6298
2.34736
2.03655
1.74326
1.69912
1.68683
1.71265
1.27207
0.548471
0.149477
0.161821
0.426187
0.746439
1.60742
1.60717
1.74898
1.8918
3.30298
2.95576
2.03208
1.78846
1.66453
1.63621
1.66129
2.15128
1.96002
1.16367
0.336691
0.162172
0.186609
0.69114
1.14089
1.87128
1.74687
1.76433
2.25803
3.74857
2.74929
1.86812
1.73109
2.03488
1.95622
1.91931
2.07302
1.88099
0.997356
0.495963
0.148266
0.49413
1.53926
2.18625
1.73239
1.85009
2.42783
3.60343
2.83533
2.23083
1.92004
2.29606
2.04461
1.95656
2.07145
1.47674
0.801986
0.421022
0.143164
0.411024
1.20578
1.84414
1.76979
1.88155
3.19038
3.62912
2.26816
2.30857
1.97007
2.08508
2.13346
2.07524
2.16369
1.42917
0.752404
0.369952
0.446135
1.21482
1.93053
1.7092
1.94031
2.61165
4.17184
2.73512
1.9514
2.21758
1.90069
2.28149
2.03717
2.21222
1.38879
0.698028
0.276269
0.503719
1.17177
1.91174
1.67288
1.85189
3.51965
3.40536
2.59988
2.64222
2.21935
2.07384
2.27426
2.09004
2.04397
1.21843
0.674896
0.172444
0.193982
0.713872
1.55515
1.95734
1.6707
1.96378
2.45267
3.11697
2.35315
2.28035
1.98468
1.79113
1.88994
2.18486
1.91886
0.981358
0.570307
0.163296
0.182825
0.652761
1.51397
1.83206
1.68523
2.00879
3.21339
2.94434
2.33144
2.15633
1.85809
1.79175
1.70506
2.33487
1.59851
0.809836
0.411115
0.178326
0.723656
1.66759
1.96832
1.69752
1.88331
2.53114
3.26297
2.70252
2.30216
1.67187
1.70169
2.07115
2.24504
1.59783
0.795063
0.361969
0.174999
0.732222
1.65844
1.9864
1.63166
2.02388
3.48009
2.41808
1.74552
1.72224
1.82896
1.71825
2.40506
2.28508
1.49674
0.740102
0.362671
0.179784
0.705398
1.68912
2.33469
1.66358
1.87878
3.21973
2.40228
1.96492
1.96347
1.88573
1.76131
2.35435
2.22563
1.35936
0.723244
0.182135
0.204074
0.715478
1.62918
1.96711
1.68707
1.72093
1.85148
2.88331
2.51517
1.79095
1.69334
1.74318
2.34355
2.16934
1.12503
0.635799
0.180328
0.471712
0.770376
0.868793
1.79635
1.69253
2.10034
2.14942
1.99506
1.75633
1.79921
1.76142
2.02551
2.22433
2.07015
1.07782
0.608969
0.167616
0.376997
0.765346
1.46436
1.70263
1.99463
3.7966
2.80464
1.92722
1.82055
1.74434
2.13295
2.12624
1.62914
0.96623
0.468998
0.152317
0.382845
1.08946
1.07011
1.63304
3.21869
3.58967
2.97844
1.84441
1.6706
1.65801
1.70546
2.04837
1.4857
0.74713
0.377496
0.458708
0.485824
1.08201
1.03439
1.58277
3.25328
3.3501
2.26899
2.08449
1.65915
1.65285
1.94466
1.79321
1.29896
0.686264
0.340227
0.44811
0.880216
1.50524
1.08017
1.12492
2.10222
3.67401
2.95632
1.97883
1.61948
1.6803
1.65224
1.6579
0.847589
0.569754
0.164374
0.435505
0.858522
0.914017
1.22227
0.983334
1.15733
2.12004
1.92605
1.74618
1.60168
1.53578
1.49241
1.23885
0.933404
0.55858
0.155604
0.199799
0.474511
0.696507
1.30539
1.22064
1.13699
0.961665
1.1759
1.806
1.00349
1.16982
1.38134
1.5474
1.01892
0.789974
0.259421
0.194463
0.615125
0.875266
1.35685
2.19733
1.22242
0.971962
1.12494
2.30307
1.50303
1.57856
1.18533
1.02551
1.00856
0.476119
0.448912
0.210458
0.624255
0.716502
1.1703
2.16499
1.60413
1.3918
1.22139
1.40244
1.54673
1.15907
1.13845
1.15817
1.00248
0.429055
0.196768
0.467046
0.85441
0.522026
0.967756
1.42112
2.36165
1.66911
1.69046
1.66528
1.70506
1.67124
1.82918
1.07873
0.884401
0.384985
0.0728172
0.447999
0.312658
0.589533
1.06195
1.25248
1.6954
1.65655
1.10777
1.00779
1.25189
1.43408
1.11942
0.865537
0.55135
0.398285
0.215192
0.18479
0.27265
0.354437
0.932669
1.52958
1.17142
1.81481
1.59146
1.20623
1.11389
0.930886
0.847823
0.46896
0.53104
0.383601
0.164747
0.564882
0.304977
0.603784
1.11459
1.24785
1.62685
1.47501
0.958117
0.941041
1.09226
1.00045
0.781703
0.540268
0.51365
0.161685
0.161123
0.500822
0.641504
0.370252
0.516671
0.880223
1.63601
1.61624
1.00918
0.950081
0.956103
0.939951
1.07314
0.761838
0.396734
0.17983
0.259265
0.53584
0.666867
0.235915
0.261814
0.810068
1.52671
1.19632
0.948397
0.960328
0.900268
0.750061
0.71573
0.658823
0.408321
0.153267
0.286822
0.226325
0.219691
0.446657
1.0943
1.0253
0.969774
0.83809
0.916881
0.735559
0.631959
0.496233
0.174254
0.18329
0.269585
0.271782
0.246093
0.509676
0.279069
0.907807
0.975059
0.879351
0.738801
0.682569
0.630661
0.36867
0.153816
0.534158
0.64571
0.251972
0.302527
0.768147
0.299416
0.331538
0.847171
0.759793
0.684127
0.613449
0.489855
0.279301
0.154739
0.534023
0.64796
0.243051
0.198395
0.299014
0.786028
0.568963
0.409934
0.329217
0.342732
0.609266
0.488355
0.15003
0.165215
0.525743
0.28382
0.218526
0.188899
0.226566
0.619164
0.351175
0.78353
0.273503
0.248848
0.696616
0.513865
0.156121
0.160342
0.493235
0.244533
0.228861
0.197066
0.198192
0.589744
0.692454
0.843947
0.545607
0.231675
0.661462
0.413818
0.161898
0.159045
0.467852
0.521327
0.23422
0.207028
0.203512
0.287901
0.852425
0.821244
0.269833
0.592029
0.532577
0.381393
0.150212
0.124715
0.149425
0.504591
0.498982
0.213331
0.226379
0.186548
0.31035
0.612018
0.275934
0.225579
0.62341
0.371968
0.490477
0.213518
0.222626
0.206713
0.62691
0.225434
0.25077
0.315211
0.332934
0.503944
0.540842
0.225987
0.202461
0.698387
0.567169
0.464837
0.187693
0.036416
0.189963
0.625359
0.265661
0.283476
0.567933
0.34779
0.0519758
0.0647512
0.235476
0.214249
0.611607
0.555434
0.17167
0.227537
0.181132
0.560321
0.575953
0.303192
0.162683
0.199777
0.434688
0.545168
0.505568
0.183061
0.133262
0.319037
0.1098
0.180148
0.325003
0.364599
0.555144
0.519205
0.414787
0.430038
0.292309
0.400062
0.449598
0.284866
0.201953
0.146082
0.132835
0.038557
0.233223
0.190834
0.337564
0.341241
0.224788
0.376695
0.503492
0.613155
0.608749
0.595433
0.644039
0.667445
0.515745
0.229762
0.38099
0.54077
0.682721
0.709099
0.741689
0.741725
0.684824
0.615212
0.601569
0.674267
0.730197
0.706229
0.691909
0.705181
0.243583
0.406485
0.668404
0.73005
0.780173
0.781849
0.773415
0.765185
0.724789
0.66932
0.607411
0.663139
0.764782
0.763774
0.733625
0.722575
0.714659
0.731228
0.681749
0.519364
0.501567
0.288068
0.271904
0.408303
0.675741
0.754413
0.773565
0.811032
0.797067
0.772616
0.763611
0.755225
0.735533
0.707044
0.678322
0.739472
0.348964
0.365468
0.772051
0.68246
0.688904
0.64196
0.645042
0.623005
0.344124
0.351989
0.531003
0.656316
0.746909
0.8211
0.836428
0.789602
0.735951
0.705286
0.68695
0.673437
0.707515
0.708302
0.717684
0.696842
0.684049
0.734005
0.338751
0.360737
0.739679
0.60947
0.581968
0.577376
0.590977
0.223106
0.4068
0.768676
0.965274
0.983742
0.784374
0.795655
0.677418
0.640814
0.561493
0.749516
0.608735
0.592252
0.685149
0.807746
0.758529
0.668962
0.646736
0.658913
0.683042
0.308024
0.34255
0.798377
0.663824
0.589524
0.343787
0.169582
0.388687
1.36823
1.52407
2.39794
2.50715
2.75268
2.09524
1.433
1.5406
1.40819
0.86428
0.642677
0.618992
0.471342
1.14329
0.677819
0.689286
0.621078
0.593509
0.597337
0.298334
0.346164
0.685391
0.35532
0.174209
0.525348
1.10137
1.67729
2.73071
2.97752
2.93246
2.32193
2.43642
2.14279
1.30293
1.25366
1.38874
1.46384
1.33656
1.03528
0.647989
1.39483
0.882137
0.702982
0.623032
0.59949
0.632265
0.641142
0.378071
0.383402
0.183967
0.456644
1.31205
1.86878
2.01731
2.73709
2.83404
2.76647
2.47299
1.92998
2.28822
2.47075
1.22665
1.48517
1.48273
1.54803
2.40972
1.6314
1.11552
0.863782
0.886503
0.715553
0.668521
0.504482
0.352425
0.197994
0.390638
0.776238
1.19459
1.25005
2.41385
2.19341
2.41031
2.67829
2.73341
2.4908
2.14382
2.19477
2.32108
2.58068
2.56847
2.4482
2.54177
2.29666
1.66497
0.755239
0.86771
0.866332
0.812014
0.676528
0.366574
0.233766
0.576909
0.946483
1.35396
1.87998
2.54908
2.13626
2.31636
1.94101
1.96749
1.85732
1.89856
1.74465
1.7746
1.77662
2.28862
2.41197
2.52641
2.78308
2.78054
1.51772
0.864243
0.343885
0.366654
0.30693
0.104485
0.220001
0.133491
0.422007
1.64499
2.74425
2.89969
2.91534
2.21018
2.05166
1.84144
1.79003
1.70919
1.78192
1.71327
1.75259
1.82752
1.90681
2.32441
2.54857
2.66316
2.39608
1.58023
0.975704
0.327655
0.176259
0.172296
0.482708
1.7134
2.81584
2.8476
2.53901
2.34629
2.50883
2.47272
2.37864
2.09235
1.83326
1.7661
2.08531
2.16779
1.70621
1.73567
1.88624
2.32199
2.11993
1.43435
0.967982
0.689466
0.377339
0.362292
0.728022
0.533118
1.42868
2.16579
2.79958
2.6725
2.47407
2.48241
2.50842
2.54058
2.50749
2.4482
2.99902
2.39249
2.6041
2.63684
2.07473
1.93867
1.77238
1.61897
1.27945
0.920129
0.685563
0.365205
0.367792
0.728843
1.18727
1.80578
2.85919
2.78001
2.62506
2.05395
2.72449
2.39806
2.47773
2.55686
2.58886
3.06252
3.11721
2.6488
2.53012
2.23221
2.06939
1.85713
1.86496
1.71656
1.06162
0.712294
0.354432
0.396262
0.835842
1.31478
1.84299
2.86931
2.81637
2.74447
2.89738
3.0432
3.0613
2.98455
2.62671
2.66856
2.40419
3.28114
3.20247
2.65169
2.46044
1.93526
1.84208
1.80253
1.69216
1.2358
0.755855
0.234782
0.197968
0.407863
0.863829
1.49842
2.78147
2.97819
3.19912
3.45513
3.45975
3.69309
3.44229
3.39794
3.51706
3.41738
2.63673
2.55845
2.64652
2.68351
2.48631
2.37007
2.44433
2.08324
1.91911
1.64553
0.858863
0.331343
0.210779
0.426417
0.929209
1.60699
2.91329
3.61037
3.92936
3.87022
3.34404
3.27802
3.58765
3.45985
3.54359
3.60254
3.70107
3.31272
3.28869
3.10259
2.90975
2.45776
2.69687
2.58123
2.14291
1.83271
0.767329
0.317549
0.22385
0.577281
0.964387
1.63675
3.08718
3.93361
4.1226
4.03637
3.74991
3.65609
3.69719
3.66184
3.78465
3.52412
3.66193
3.55647
3.60794
3.39519
3.3845
3.44489
2.35998
2.40554
2.45684
1.54781
1.30795
0.391538
0.151625
0.206705
0.557919
0.989602
1.86644
3.30889
3.904
3.87871
3.91011
3.68913
3.54079
3.50503
3.50268
3.64815
3.76406
3.81812
3.62275
3.65486
3.51582
3.29316
2.71884
3.17772
2.69922
2.57042
1.74673
1.07102
0.659439
0.15749
0.407441
0.931017
1.54297
2.85939
3.86542
3.74537
3.75185
3.75096
3.73984
3.70967
3.49749
3.42869
3.48068
3.5607
3.67332
3.67329
3.65301
3.50956
3.31961
2.66197
2.51984
2.38889
1.8975
1.1205
0.704519
0.360584
0.362332
0.76528
1.30849
2.76249
3.50435
3.31685
3.75171
4.03651
4.10497
3.97635
4.14505
3.83749
3.52853
3.45973
3.55742
3.59798
3.65554
3.54379
3.40496
3.40787
3.2775
2.74956
2.55743
1.47591
0.728116
0.352674
0.220938
0.605312
1.22447
2.02857
3.20675
3.31401
3.6068
4.04221
4.0148
3.78254
3.82219
3.6806
3.62889
3.99762
3.69806
3.59702
3.6215
3.55696
3.46499
3.55616
3.59712
3.36185
2.84816
1.51321
0.813962
0.378022
0.403797
0.926285
1.90747
3.58091
3.76311
3.79576
4.28974
4.0709
3.91423
3.80907
3.66646
3.69904
3.62853
3.93589
4.0755
3.75167
3.59547
3.49932
3.57629
3.64137
3.54895
3.32444
1.97115
1.04863
0.495677
0.353689
0.817922
1.51608
2.93785
3.90117
3.79081
4.20338
4.23415
4.00624
3.79557
3.75794
3.80513
3.92386
3.70305
3.73524
4.34095
3.99029
3.56132
3.48435
3.50905
3.62959
3.42438
2.86127
1.48718
0.765302
0.234627
0.220236
0.61146
1.22716
2.10512
3.62788
3.96595
4.09203
4.46834
4.18368
4.11694
4.02153
3.99325
3.95229
3.72246
3.78786
3.97493
4.0087
3.98604
3.89074
3.52855
3.58109
3.38906
2.99494
1.57603
0.868079
0.372838
0.218795
0.577429
1.14126
1.94735
3.37922
3.77329
3.85229
4.33104
4.63464
4.16944
4.24067
4.23111
4.10404
4.06684
3.88801
4.0685
3.91038
3.84034
4.10492
3.99168
3.47275
3.49169
3.17068
1.84534
1.0761
0.534971
0.197396
0.3724
1.05323
1.90389
3.24433
3.65304
3.80805
3.93011
4.68415
4.64901
4.2084
3.99287
4.22747
4.00281
3.95859
4.22202
4.13417
3.8222
3.83236
4.0072
3.67938
3.27499
3.14412
1.9789
1.13562
0.581493
0.216538
0.236135
0.65722
1.38255
2.85553
3.40127
3.86437
3.91398
4.34477
4.77392
4.48888
4.11976
4.23879
4.23138
4.35066
4.25178
4.25864
4.0503
3.96359
4.06268
3.99072
3.36055
3.29085
2.00666
1.16147
0.617482
0.224401
0.53798
1.15525
2.73303
3.40196
3.56192
4.0203
4.37968
4.97283
4.96493
4.36753
4.16999
4.23196
4.47484
4.61652
4.5206
4.18978
4.12005
4.11516
4.10017
3.52151
3.197
2.97353
1.52034
0.65858
0.233611
0.247208
0.81878
1.83382
3.39147
3.73749
3.91233
4.44832
4.30327
4.52481
4.52649
4.87151
4.44803
4.51056
4.56912
4.72297
4.93658
4.27387
4.1007
4.34691
4.07771
3.53002
3.11826
1.88298
1.04812
0.408438
0.521784
1.20366
2.9316
3.96584
4.05204
4.30833
4.86804
4.99391
4.55249
4.54349
4.61005
4.78912
4.62024
5.0661
5.11296
4.91806
4.56169
4.47469
4.26039
3.64968
3.41771
2.17576
1.14299
0.583661
0.219758
0.212281
0.646187
1.78835
3.43895
3.98431
4.0374
4.57196
5.03784
5.15362
4.68476
4.65465
4.74585
4.97614
5.06633
4.84442
4.72259
4.47545
4.2342
4.07814
3.74297
3.41798
2.85586
1.57925
0.832707
0.236069
0.410032
1.04602
2.05423
3.6753
4.00231
4.18825
4.83936
4.97591
4.79208
4.58211
4.87333
4.86387
4.96575
4.97661
4.94263
4.51616
4.32976
4.57882
3.90073
3.63628
3.22367
2.02691
1.11384
0.519939
0.187031
0.236103
0.793028
1.74183
3.22131
3.60926
4.12314
4.54843
5.04609
4.88007
4.41835
4.78641
4.74607
4.93696
5.00956
5.03702
5.10772
4.72853
4.48783
4.49376
3.7391
3.43788
2.87522
1.24472
0.587551
0.218363
0.567653
1.31195
2.82086
3.59069
3.89134
4.37539
4.52993
4.73119
5.05034
4.79919
4.56809
4.68307
4.26846
4.6903
5.15609
5.04679
4.91255
4.5729
3.93383
3.65824
3.17444
1.88682
0.904098
0.372642
0.238221
0.783782
1.79577
3.43039
4.03163
4.07507
4.44455
4.97483
4.80025
4.66378
4.64306
4.42965
4.33143
4.27544
4.50215
4.78794
4.82708
4.89504
4.35748
3.86975
3.54641
2.88035
1.20008
0.572299
0.20608
0.50029
1.15619
2.8412
3.70122
4.05318
4.41987
4.78883
5.07664
5.00051
4.67563
4.91313
4.66175
4.53262
4.38511
4.47805
4.60513
4.72937
4.63392
4.07867
3.76029
3.31398
2.01129
1.00412
0.364283
0.232635
0.780348
1.71178
3.16607
3.82066
4.16102
4.72733
5.12889
5.18117
4.9544
4.75706
4.54759
4.90924
4.90473
4.96163
4.81016
4.48752
4.7093
4.55993
3.78317
3.65544
3.11875
1.55529
0.719258
0.204024
0.490684
1.10823
2.74851
3.61295
4.06871
4.24699
4.83678
5.16218
5.17578
4.89993
4.81873
4.71022
4.8162
5.12234
5.05534
5.01662
4.99138
4.7973
4.30729
3.77188
3.36639
2.05502
1.08688
0.479852
0.225046
0.764495
1.69903
3.20597
3.6683
4.03268
4.51755
4.93138
5.18643
5.2946
5.00295
4.83799
4.83229
4.86192
4.93181
4.74731
4.88563
4.93083
4.56889
3.75769
3.48489
3.07223
1.59894
0.790966
0.211528
0.465037
1.11116
2.74678
3.62917
3.87046
4.26125
4.88079
5.02899
5.16644
5.13256
5.03218
4.91127
4.86681
4.91082
4.96289
4.7351
4.88806
4.72242
4.20927
3.78695
3.28403
2.81213
1.13058
0.503628
0.55952
1.35864
2.96366
3.81357
3.96907
4.51513
5.05798
5.1271
5.13594
5.05825
4.95471
4.91737
4.81055
4.96031
4.76812
4.8407
4.81164
4.29056
3.77342
3.71927
3.08431
1.76434
0.834775
0.237976
0.226002
0.79173
1.80317
3.39078
3.83362
4.16962
5.00483
5.15393
5.20618
5.13329
4.98732
4.96194
4.97767
5.01535
5.04734
5.07071
5.04027
5.02594
4.12456
3.60186
3.57348
2.9067
1.13194
0.535179
0.188663
0.232198
1.04012
2.73316
3.78184
3.97989
4.47872
5.02802
5.20649
5.29406
5.15983
5.05046
5.03696
5.03432
5.14577
5.18516
5.14895
5.01874
4.87163
4.23899
3.66258
3.27782
2.70726
1.00823
0.241914
0.352549
1.09617
2.86813
3.90809
4.10575
4.72024
4.84593
5.10691
5.23372
5.13503
5.0793
5.06117
5.16023
5.23412
5.20898
5.09217
4.9205
4.5737
3.86267
3.62412
3.04195
1.68873
0.634335
0.21451
0.553997
1.35147
3.09175
4.10882
4.34222
4.90701
4.76126
4.98647
5.08077
5.09112
4.91609
4.97918
5.20294
5.28005
5.12306
4.98518
4.9441
4.29989
3.66433
3.35079
2.80566
1.1138
0.485813
0.231396
0.930477
1.85583
3.44912
3.98116
4.32808
4.9882
5.01829
5.01192
5.08802
5.03994
4.95954
5.1109
5.22316
5.43515
5.17855
4.99991
4.83256
4.19784
3.5977
3.14426
1.71239
0.807556
0.226698
0.343453
1.04681
2.8194
3.91138
4.17834
4.37056
4.92385
5.12428
5.09661
5.04835
5.00174
5.00056
5.09123
5.23697
5.37234
5.24817
5.11638
4.78295
4.03498
3.66831
3.11788
1.66565
0.601117
0.186379
0.5558
1.30534
2.87977
3.89653
4.11962
4.64923
4.91778
5.22756
5.11286
4.84584
4.83237
4.97491
5.01675
5.17514
5.18468
5.10492
5.06431
4.57926
3.7805
3.44481
2.87129
1.19365
0.496333
0.214758
0.752162
1.71658
3.27086
3.77189
4.06855
4.74012
5.0077
5.17273
5.06199
4.99452
4.97212
4.9433
5.14245
5.20597
5.15955
5.02102
4.9895
4.33605
3.67647
3.26453
2.65692
1.02375
0.345373
0.335877
1.03456
2.72624
3.66196
3.95801
4.24031
4.76107
5.03297
5.23928
5.1095
4.93924
4.92547
4.93029
5.13193
5.25232
5.01053
4.97423
4.96753
4.15457
3.5268
3.11849
1.70793
0.794311
0.220845
0.448462
1.17259
2.85289
3.87576
4.01862
4.52438
4.91225
5.17839
5.23425
5.01491
5.00283
4.89989
4.88606
4.88226
5.165
5.04301
5.05486
4.97663
4.10405
3.60462
3.07591
1.61165
0.578269
0.181888
0.527489
1.31609
3.01092
3.945
4.15669
4.65525
4.8425
5.1227
5.19303
5.02319
4.93975
4.86767
4.90539
5.10579
5.12508
5.02952
5.24231
4.71195
3.9103
3.45659
2.82421
1.33493
0.539909
0.192977
0.726383
1.65532
3.27432
3.86016
4.25393
4.77297
4.99833
5.06851
5.11742
5.05627
5.13022
4.92049
4.8988
5.06743
4.96302
5.00087
5.15043
4.60109
3.67837
3.16391
2.66368
1.0268
0.354929
0.221052
0.780051
1.73732
3.29309
3.81311
4.2043
4.84401
4.97379
5.16167
5.15082
5.11808
4.99159
4.90852
5.16869
5.16173
4.98692
5.04118
5.07667
4.3544
3.60586
3.01071
1.6144
0.760077
0.219449
0.231658
1.03507
2.55954
3.4768
3.85609
4.2599
4.87262
5.02741
5.1103
5.18009
5.15011
5.11317
4.99802
5.16548
5.25894
4.94534
4.99949
5.08147
4.18306
3.47464
2.94282
1.45125
0.556561
0.442465
1.13478
2.81563
3.78384
3.9303
4.29511
4.98198
5.07132
5.10471
5.11807
5.1356
5.1534
5.15805
5.15747
5.25687
4.97104
5.01159
5.0867
4.15176
3.47068
2.80384
1.09689
0.459791
0.459714
1.20555
3.06242
3.90224
4.13038
4.53302
4.90455
5.09332
5.20529
5.15378
5.10504
5.00759
5.17987
5.22587
5.09676
4.95058
5.03147
5.05795
4.12258
3.52415
2.78797
0.990538
0.237777
0.523697
1.33301
3.13506
3.94654
4.24953
4.56705
4.82853
5.0627
5.24541
5.19396
5.1425
5.12336
4.96159
5.17903
5.13291
4.99373
4.99222
4.84577
3.9872
3.53259
2.01486
0.983656
0.228316
0.530908
1.63987
3.3214
3.92056
4.2265
4.77215
4.92114
5.06635
5.15532
5.16499
5.07114
4.99466
5.20691
5.21948
5.14221
5.00172
5.01711
4.68253
3.84892
3.45312
2.01885
0.915475
0.205575
0.560262
1.66654
3.43969
3.95418
4.27291
4.83861
5.0142
5.02435
5.12912
5.08896
5.00641
4.96997
5.13431
5.4327
5.2056
5.01722
5.00252
4.58253
3.7632
3.64215
1.82097
0.723753
0.183725
0.200466
0.723336
1.72503
3.41904
3.92728
4.2453
4.84125
5.06241
5.00182
5.14261
5.14806
5.0131
4.9909
5.08581
5.36427
5.24183
5.1478
4.98864
4.33932
3.67616
3.11865
1.76963
0.56318
0.230604
0.954042
1.83488
3.47441
4.00773
4.29622
4.86095
5.14282
5.10394
5.1966
5.12502
5.11582
4.98454
5.14039
5.26281
5.15546
5.10663
5.01012
4.22177
3.61018
2.96304
1.64022
0.535592
0.230767
1.08232
2.8583
3.93214
3.99637
4.33438
4.93324
5.20704
5.20558
5.25467
5.21456
5.08148
5.13678
5.11494
5.22841
5.13446
5.01747
4.96697
4.24931
3.61785
2.9533
1.46839
0.528864
0.342445
1.13327
2.94223
4.06315
3.99415
4.34956
4.9435
5.22711
5.21901
5.24775
5.21113
5.24752
5.17877
5.2475
5.232
5.02961
5.00937
4.89333
4.20231
3.64022
2.98892
1.12215
0.43012
0.461222
1.23244
3.18819
3.97758
4.02066
4.34922
4.96792
5.1415
5.07523
5.29902
5.28315
5.22513
5.20696
5.31973
5.16607
5.15729
5.05682
4.92418
4.14827
3.66533
2.96766
1.11558
0.230041
0.456126
1.20537
3.13914
3.96003
4.12346
4.41509
4.91226
5.17803
5.1461
5.26129
5.31878
5.33355
5.36614
5.4617
5.24106
5.16789
5.1853
4.82781
4.09266
3.52726
2.88737
1.05848
0.224435
0.519228
1.18664
2.89234
4.00728
4.25806
4.71847
5.02812
5.1518
5.1075
5.1832
5.3072
5.33879
5.20798
5.46581
5.30165
5.19229
5.17532
4.71689
3.90096
3.52997
2.81122
0.998173
0.219001