/*--------------------------------*- C++ -*----------------------------------*\
| =========                 |                                                 |
| \\      /  F ield         | OpenFOAM: The Open Source CFD Toolbox           |
|  \\    /   O peration     | Version:  2312                                  |
|   \\  /    A nd           | Website:  www.openfoam.com                      |
|    \\/     M anipulation  |                                                 |
\*---------------------------------------------------------------------------*/
FoamFile
{
    version     2.0;
    format      ascii;
    arch        "LSB;label=64;scalar=64";
    class       volScalarField;
    location    "50";
    object      omega;
}
// * * * * * * * * * * * * * * * * * * * * * * * * * * * * * * * * * * * * * //

dimensions      [0 0 -1 0 0 0 0];

internalField   nonuniform List<scalar> 
404911
(
272.591
173.458
3443.33
1540.08
208.748
226.654
169
610.724
348.836
287.738
260.845
335.835
199.398
216.12
462.156
1116.04
291.149
187.63
224.723
361.505
598.02
248.007
681.841
496.937
186.208
997.28
336.077
189.683
227.3
1013.08
273.876
198.475
298.645
534.308
273.953
218.805
409.373
483.254
279.262
176.335
396.149
1050.76
258.642
130.618
191.118
432.871
371.767
169.028
204.462
886.502
419.456
340.433
272.653
1394.28
375.35
622.968
9407.48
134.333
345.488
265.268
194.271
115.237
192.036
34.3961
90.5047
262.453
47.7267
280.09
103.135
38.7402
137.117
12.5353
111.751
107.308
47.8149
621.451
2290.8
267.656
112.897
141.931
109.883
226.165
20.4442
148.934
93.5525
89.6915
236.868
68.6508
1167.2
289.503
175.611
2982.47
86.3629
132.327
157.326
91.4546
142.373
148.926
60.8746
264.625
650.701
66.5436
99.9819
490.14
1246.55
506.44
257.621
713.635
361.044
282
209.999
206.436
204.977
222.399
2283.46
530.506
237.224
4547.71
602.909
179.427
181.007
188.716
199.332
256.663
1345.79
332.568
218.369
206.936
189.468
526.112
487.85
524.458
197.366
179.143
192.83
185.991
236.221
229.533
165.904
275.586
1225.76
336.07
214.617
191.064
181.342
179.763
174.899
163.649
519.89
481.614
194.513
184.107
207.76
1832.66
280.465
1034.83
287.578
193.429
170.261
172.557
159.051
167.021
173.547
173.878
177.643
174.981
171.342
166.515
191.809
259.422
427.769
620.663
468.244
413.788
436.089
415.44
517.845
169.377
179.474
181.977
185.512
184.198
193.058
206.455
212.125
208.379
314.006
738.82
479.141
400.457
393.676
255.375
344.268
535.715
449.359
161.838
181.225
181.981
193.502
202.173
209.978
243.499
1194.51
1037.64
285.437
614.224
323.62
278.998
263.999
483.782
430.001
311.482
368.974
428.418
461.055
163.313
188.435
195.479
194.915
223.009
521.851
905.25
637.733
287.907
249.239
166.388
164.825
256.92
261.441
207.122
397.691
445.253
223.838
140.246
185.667
194.452
215.674
313.693
1236.82
1266.04
307.419
146.847
248.287
161.238
156.927
180.282
200.89
198.209
225.722
230.045
223.203
200.322
313.928
469.122
181.885
224.968
1133.1
495.519
185.11
128.741
265.784
161.905
146.079
149.502
175.416
149.909
148.683
149.44
154.477
225.6
381.509
474.81
546.983
453.141
493.438
222.992
174.182
487.465
233.715
167.449
157.676
131.962
168.117
166.156
172.008
139.752
186.686
370.281
442.582
492.779
1718.69
389.938
195.215
158.41
131.551
155.456
190.682
145.466
163.766
152.241
169.039
171.343
155.624
144.311
272.472
400.653
448.474
278.614
1071.87
997.62
914.725
314.533
292.814
94.6948
82.6394
138.662
168.342
130.876
142.769
202.462
184.359
154.729
148.875
167.202
374.445
211.267
570.531
1134.21
264.106
157.844
179.908
211.346
167.362
155.517
80.5442
154.27
178.075
167.294
132.561
117.828
208.61
150.484
174.805
502.103
298.095
495.494
180.497
133.924
131.218
135.77
213.556
168.581
100.338
92.037
122.551
110.085
88.5166
97.7514
99.5776
182.805
250.501
210.833
1034.26
1164.96
280.414
165.697
133.848
122.859
133.745
119.168
135.766
106.485
106.457
89.1006
135.691
111.241
126.499
112.609
133.811
392.329
906.917
381.256
158.58
122.974
178.918
180.468
121.914
108.724
75.3096
65.1708
75.8529
80.7587
109.128
119.743
146.794
237.247
153.527
294.366
743.234
1118.14
921.514
354.055
250.62
177.773
94.5455
105.479
111.235
91.7196
57.7889
59.687
68.7141
87.1361
111.484
184.297
224.279
173.843
477.582
446.245
175.264
178.168
167.341
137.224
73.5739
73.9311
109.38
82.599
109.092
77.6415
79.6698
107.997
124.249
122.872
144.047
294.286
990.715
199.903
135.63
161.632
112.964
114.903
76.4621
67.1057
111.477
118.542
125.468
167.591
124.27
144.895
140.221
180.428
161.558
323.679
443.635
151.636
175.58
150.774
114.026
73.6046
77.8861
53.1553
61.1722
101.468
134.698
144.53
170.153
182.109
167.186
170.801
183.859
995.333
259.068
129.561
131.483
121.892
107.379
66.2095
65.7149
107.64
52.4192
56.587
88.7831
108.716
136.124
215.484
245.86
181.748
303.642
1209.63
475.513
185.691
137.289
127.343
117.855
83.2857
93.1971
56.7877
53.8512
54.8776
57.7093
67.1525
83.1386
114.949
208.15
131.345
208.424
1052.75
1143.26
246.382
131.696
172.027
129.224
109.646
66.0551
63.9815
59.4976
60.3647
41.6709
60.4736
97.5816
115.292
130.534
132.44
170.681
315.819
444.894
164.9
135.032
123.551
108.944
84.825
68.9026
72.07
69.2121
44.4615
39.4294
44.7393
78.7732
151.458
184.313
184.003
190.344
1028.22
1149.02
244.022
132.661
123.171
114.315
93.588
73.3267
76.2783
71.485
64.9131
66.4305
53.1658
58.1126
74.4244
141.478
166.19
184.832
277.327
907.398
165.027
131.589
114.094
102.44
78.4009
76.1402
81.5224
81.9563
71.8667
69.2459
64.6526
77.2477
99.8661
128.312
150.305
208.975
338.686
263.06
122.165
150.009
113.432
87.1032
72.9464
73.7771
75.8181
79.4699
79.4331
76.9329
75.8419
94.1005
111.276
139.442
148.766
176.357
526.925
240.405
158.493
178.173
99.1053
82.7788
71.0298
77.2217
62.6619
62.7185
72.7351
73.4861
73.8597
92.0659
121.086
127.083
136.272
257.781
1138.06
1173.86
187.603
126.285
141.103
104.944
86.5332
75.199
67.5869
62.5047
57.488
69.748
72.4694
71.8258
86.6576
112.966
168.363
175.462
476.862
947.868
175.941
128.429
114.419
96.7901
66.5277
64.7405
65.7564
56.0587
54.7915
46.9911
68.3669
75.3958
96.0301
108.535
154.096
179.602
1078.58
298.592
151.744
131.297
119.195
109.835
78.4574
64.5095
64.7964
65.7773
61.5193
59.579
59.9865
80.8883
111.202
134.024
123.373
187.418
1113.5
284.878
135.768
116.827
108.736
87.4927
119.255
69.5895
54.5713
61.8719
68.4072
67.9927
71.6763
82.6092
109.622
131.475
134.524
274.599
1047.85
211.422
134.794
121.309
112.633
84.4421
68.6293
70.3637
56.3602
49.3382
55.0554
64.9871
71.5675
82.0067
108.96
135.324
159.146
459.038
442.095
159.483
151.862
142.529
117.299
88.6526
66.0601
53.3861
66.2964
56.6234
43.9228
50.0143
73.0189
81.8498
110.014
155.888
180.2
1021.54
283.528
135.079
115.725
107.108
88.8165
82.4818
68.826
53.2108
52.8261
54.1669
65.2269
32.6113
63.2915
100.776
110.844
173.412
223.411
1151.72
1060.14
189.858
125.416
118.296
102.799
79.4944
61.631
80.4543
42.6842
45.2828
47.441
43.3956
62.9086
55.8864
108.691
132.491
124.63
247.333
1051.04
178.548
131.335
114.705
97.3199
75.3406
68.1596
65.6647
74.6368
52.2684
47.0884
41.2404
42.7732
72.9996
98.2651
120.061
141.8
428.98
1034.18
178.093
128.364
113.146
103.883
76.7585
69.2468
66.9909
67.1156
57.8699
50.2974
27.8701
30.9052
63.3823
111.886
147.596
159.283
918.892
1030.47
172.62
125.88
109.286
99.2234
76.7183
80.03
72.2552
65.239
57.0416
49.772
50.452
35.3475
49.7957
118.407
152.888
218.117
1150.26
280.67
154.532
128.59
110.991
95.1454
73.9378
74.8652
72.5251
67.1067
53.6207
42.7796
36.1177
43.9663
58.7529
111.974
140.737
235.357
1160.43
259.699
133.455
118.546
109.616
92.5653
70.3828
71.7695
71.5116
70.3375
58.2776
45.1742
21.7298
31.5368
70.0156
109.465
144.947
235.38
1110.37
177.901
142.301
132.486
106.664
81.5149
67.4957
65.7551
65.5269
67.196
72.7398
61.4623
59.5108
61.2978
78.0199
123.435
147.427
252.085
986.907
175.396
128.799
110.386
93.8094
70.5816
65.3281
63.3963
61.7166
61.2077
77.1562
74.8733
73.4886
73.5686
94.0663
125.519
127.556
265.575
1054.4
176.345
128.088
113.793
100.135
72.9087
63.707
62.9251
53.3292
47.2954
49.9053
71.6189
79.0586
89.0094
98.9005
138.055
131.185
277.993
1059.42
182.595
134.539
118.815
106.829
80.6949
65.5465
64.6339
64.6637
60.1094
54.7037
54.97
65.7025
88.8621
107.318
118.959
141.685
426.57
999.06
175.487
135.467
121.784
106.356
85.4684
76.8692
68.6465
63.5129
66.2998
63.2255
66.3884
74.5688
89.5869
110.587
133.457
171.317
1000.27
297.788
172.413
145.168
135.842
100.503
69.0675
71.0179
66.3861
60.3303
58.5111
62.0507
67.9565
82.2075
94.9248
113.829
141.812
174.418
1085.18
296.829
165.488
129.778
139.878
95.1898
62.5458
60.3361
57.1458
50.6833
44.1008
45.7228
54.8186
70.9072
92.3868
112.533
145.307
173.544
1053.1
1191.13
214.716
158.882
126.089
110.455
105.181
60.3412
42.1435
42.7044
37.3275
25.7772
12.4306
27.0204
61.9614
86.946
108.798
143.021
186.913
1038.93
1076.3
177.933
125.636
171.901
113.974
78.8385
73.5495
33.0079
18.5818
15.7288
19.5066
14.1578
15.9808
47.4358
96.9295
110.668
131.816
225.53
186.949
129.429
113.946
102.277
77.3431
57.2827
57.1737
40.5957
11.7356
11.4405
7.77935
27.4339
57.1179
88.313
111.847
124.805
240.856
1011.84
185.079
125.595
107.67
100.063
75.0686
67.232
60.8472
51.6355
36.587
8.48206
7.11438
13.2155
54.4408
92.369
118.914
136.216
284.629
1049.76
175.734
122.775
101.729
91.8988
73.3671
67.694
61.7163
54.117
51.6818
31.5151
8.53568
11.5213
54.2029
91.154
129.21
139.676
437.874
1141.16
170.145
125.689
102.306
84.357
67.3864
63.1665
53.6319
44.0993
41.7113
47.3555
39.8639
28.9441
63.4738
102.598
115.246
144.273
849.767
153.931
156.356
104.787
79.1565
64.6098
65.5664
58.7771
46.9865
19.386
22.4624
46.5071
59.7239
74.472
109.144
132.405
167.572
959.892
734.578
213.287
97.3511
72.6646
70.521
67.2162
64.9067
54.259
45.6579
12.6803
26.587
57.516
85.1203
100.15
158.101
170.944
1053.54
2175.04
310.536
166.08
110.84
77.3605
71.2051
67.5644
59.2139
50.6696
48.2641
45.5324
22.5126
57.461
95.8004
113.126
122.452
193.23
1109.15
278.401
128.082
124.68
103.906
63.8178
70.6357
68.0548
57.5122
48.0657
34.2113
35.9997
47.5399
61.3325
94.6695
123.378
130.857
259.489
264.759
138.642
117.739
77.3029
62.3456
66.1023
67.7013
64.245
49.8893
38.4201
13.9946
37.0908
69.7903
92.3867
118.545
137.922
279.739
1195.91
230.094
173.901
120.171
116.337
69.937
59.4908
52.4915
48.8375
45.4085
29.5176
26.4682
37.4987
66.4088
94.1634
119.822
157.848
864.73
959.671
167.085
133.331
93.9051
84.9033
48.8406
48.8515
51.9964
32.9609
29.5179
29.9385
24.6926
46.8035
53.3523
103.154
131.277
163.372
988.854
838.879
138.338
254.508
132.888
63.9153
47.2948
29.1743
6.83153
18.28
13.6744
13.46
23.2543
44.4299
52.9235
107.815
150.285
160.356
993.089
438.72
128.568
171.036
70.3955
43.2392
32.4512
28.0004
10.5686
10.5375
24.5243
28.629
46.8286
52.7137
58.7429
99.7271
213.07
169.266
1033.3
1021.2
231.535
122.431
115.732
76.8795
39.1246
15.2234
2.92504
4.16551
24.4431
48.193
58.3864
71.1138
71.5163
81.3205
114.281
170.12
312.519
1059.34
915.148
145.228
163.98
99.9287
64.6234
43.0982
6.88958
1.77845
3.49244
20.5521
41.1242
53.1013
64.8148
75.8456
84.5692
101.948
128.673
183.587
1079.86
215.103
129.065
75.5715
58.453
33.6636
5.1302
1.91978
3.04009
10.5081
35.5548
49.85
63.812
69.7886
96.6678
125.463
123.649
241.238
1206.36
235.567
131.4
123.132
47.8327
23.9573
2.33575
1.83167
5.68454
8.97406
20.2566
37.5374
57.4929
66.3822
94.1141
128.934
136.133
281.496
255.107
157.004
187.753
56.3899
21.5446
2.53625
1.70995
2.6543
18.7818
13.1754
36.8325
64.5106
76.3481
99.6442
127.281
140.335
433.547
233.185
271.507
230.077
66.6478
32.4222
2.15678
1.85718
3.9856
8.66068
14.1831
25.6576
56.6289
77.4752
111.722
118.372
145.497
875.213
983.137
174.208
191.813
200.761
74.2441
43.8209
6.05181
2.88741
6.90729
15.1369
44.4435
54.1903
58.4134
106.673
117.734
150.609
178.299
983.569
919.851
176.369
180.149
170.543
61.8123
35.1817
3.08375
2.29038
11.2058
30.6168
42.0016
55.1264
71.9078
108.313
120.504
125.068
257.434
846.25
146.001
130.42
135.697
57.3634
38.9885
4.5319
2.21864
3.84319
32.7211
53.809
56.0245
81.1004
103.4
125.731
137.117
291.804
853.891
142.239
124.023
141.334
53.5358
26.6778
2.80766
3.88232
24.7123
44.4467
51.8949
66.4668
93.723
111.379
134.049
141.595
293.105
867.094
142.76
136.614
100.269
75.0469
42.3566
4.27194
3.66254
14.6118
44.9062
50.8256
67.8998
94.5902
119.792
123.867
148.93
868.939
886.148
141.927
150.437
147.615
56.5883
56.1355
55.0397
10.9569
9.61816
44.2047
55.3023
73.4878
93.1291
114.747
142.486
179.238
986.526
294.267
150.918
169.266
172.802
50.7176
21.9266
20.5402
44.6894
48.1085
37.9777
51.7551
66.4495
86.9049
112.553
137.075
186.045
1063.4
348.88
315.545
106.753
54.4484
23.7211
2.63722
6.99578
66.3949
59.2721
49.4481
65.2944
88.2965
107.81
141.489
226.169
1195.62
329.433
249.441
132.816
50.6315
3.36415
2.20021
3.09397
30.7617
49.3234
54.9954
73.935
95.5886
107.731
135.681
265.551
294.289
254.495
212.9
154.055
86.5264
3.64979
2.54507
7.28363
28.2684
56.0745
58.3762
64.7484
75.508
105.943
135.334
283.012
321.19
144.125
164.104
200.024
137.254
43.4062
3.67546
4.15072
48.216
72.2728
83.4073
110.82
105.747
150.353
158.814
852.739
331.267
157.491
187.696
215.768
171.089
133.576
86.5185
89.8187
68.7609
75.3398
91.0616
143.939
154.93
219.938
188.841
1047.3
1225.28
306.222
172.503
143.63
186.548
195.024
159.76
135.831
123.617
170.71
202.322
154.609
76.663
132.435
215.502
474.105
1276.23
229.492
149.53
157.274
139.393
230.473
142.834
119.778
57.592
83.922
168.322
183.109
173.964
178.737
279.054
243.62
1030.51
214.196
155.942
131.355
124.828
181.712
120.796
187.414
108.126
85.4672
166.37
185.58
186.202
206.736
294.398
812.843
318.254
165.626
533.224
267.005
166.977
99.1197
110.682
80.8323
71.2658
82.8682
128.779
124.336
123.971
160.165
291.907
4071.35
328.49
572.139
328.305
194.275
216.121
167.521
90.709
159.219
142.853
116.045
119.128
144.117
143.437
175.11
294.113
807.384
1097.81
662.15
297.998
146.419
170.908
160.87
95.6376
81.3673
167.968
156.023
146.855
137.051
179.434
191.93
323.737
1204.76
215.713
454.141
244.494
132.199
117.335
95.9488
114.234
144.347
140.277
162.501
167.511
129.366
187.167
239.283
1433
1182.91
215.795
160.037
318.145
337.274
140.319
103.372
83.0298
146.89
151.315
147.369
171.565
239.351
168.168
328.608
1270.16
568.769
206.622
167.957
463.662
277.002
139.161
145.161
129.542
139.5
134.764
153.457
239.994
130.805
183.638
344.914
1125.75
553.154
443.757
319.785
278.999
127.131
120.651
118.466
133.107
152.536
257.089
159.112
234.94
1173.4
690.104
522.476
447.715
348.959
208.998
266.753
131.499
152.173
141.693
200.252
130.956
171.655
318.412
1171.08
208.41
165.51
489.711
340.436
155.178
273.917
284.679
169.616
208.977
213.279
149.527
199.363
529.743
1239.17
217.658
172.574
493.215
443.923
242.136
161.595
181.824
210.654
281.66
334.628
158.095
216.589
1199.7
1166.67
218.442
563.216
460.535
467.329
332.878
214.752
218.019
166.515
319.032
480.923
185.319
226.628
1289.61
1223.91
217.726
573.186
473.332
469.109
427.486
182.976
197.277
166.348
264.462
478.209
190.439
313.817
1344.12
1167.31
217.941
173.3
507.097
437.051
482.023
317.584
158.358
166.518
282.242
157.943
181.942
312.992
1439.36
1432.87
1151.01
176.317
158.086
466.569
444.814
559.835
345.075
205.84
313.903
489.936
193.904
314.307
164.683
481.57
434.742
433.256
139.691
472.542
508.008
553.524
512.38
166.429
142.434
453.282
525.252
181.552
194.018
279.847
1170.24
6210.8
542.39
159.536
485.821
532.127
210.756
350.837
2755.06
2039.27
486.226
792.127
213.357
233.022
1145.39
453.839
769.591
223.77
235.644
580.264
811.852
595.16
235.925
200.208
255.007
1158.31
1146.29
254.138
1927.12
818.755
511.756
335.214
182.148
170.299
199.236
201.371
648.821
273.412
187.808
353.113
667.572
1478.12
1324.85
6362.45
470.382
1444.39
547.987
519.339
1355.81
566.024
375.34
282.469
266.024
246.831
242.706
226.361
314.847
1391.17
581.121
367.057
269.302
255.522
236.535
224.012
217.661
213.939
224.519
233.303
217.17
218.829
232.498
223.808
1316.6
553.716
292.43
257.937
234.091
228.586
223.047
217.817
220.447
212.177
203.573
219.87
212.868
216.885
224.91
220.73
229.382
227.974
232.533
342.017
413.896
858.653
1010.8
531.812
283.267
248.191
239.044
223.809
217.281
221.909
222.154
220.948
220.261
220.93
224.255
207.937
579.702
574.877
226.125
226.368
209.356
225.335
230.86
262.486
610.408
569.393
324.685
250.613
236.173
210.305
194.188
196.93
200.78
208.115
212.588
220.598
216.257
225.085
218.652
218.017
216.403
200.537
524.902
579.929
195.829
205.392
194.042
239.107
291.277
1291.25
432.559
207.75
164.5
154.355
190.778
211.835
550.011
634.564
682.101
164.007
175.136
189.563
188.31
181.122
181.928
200.202
204.03
190.347
178.513
495.355
568.918
212.023
225.603
278.338
616.341
1503.72
390.481
287.078
257.943
205.409
215.023
215.291
253.173
319.684
359.017
259.094
381.12
139.457
173.98
268.405
305.268
690.767
173.796
194.426
203.811
212.621
567.244
583.263
269.464
599.8
1247.75
332.685
372.521
290.022
174.041
182.486
176.401
208.617
98.946
127.634
251.566
284.924
260.887
315.427
338.228
499.7
168.367
282.257
607.607
192.869
199.99
201.349
225.047
267.497
557.937
436.837
1360.39
317.495
334.601
257.915
176.621
122.454
147.345
146.548
116.935
105.181
87.7129
109.395
221.422
304.556
332.027
316.015
275.615
239.168
139.121
238.489
162.751
209.726
237.156
355.517
613.109
1108.98
407.757
185.538
196.792
259.721
207.098
224.085
99.634
109.345
111.556
226.197
112.011
76.9857
94.2441
107.472
104.879
106.157
126.325
197.383
207.196
247.765
193.909
193.521
197.724
232.827
540.42
1171.62
239.542
156.485
273.365
223.444
183.217
206.262
85.4459
102.802
87.1272
90.5138
118.744
115.402
87.7791
113.122
88.9326
98.0445
109.904
145.722
179.148
292.015
179.25
604.595
563.629
673.401
4549.64
761.321
1343.07
308.279
242.988
214.921
181.27
121.429
91.7123
95.6555
85.4284
92.4191
95.9253
90.9366
96.276
101.18
121.632
136.311
91.5136
127.677
162.551
178.323
178.773
153.312
580.927
1672.78
1270.26
347.801
232.007
187.097
154.534
177.819
63.6552
54.103
26.5309
36.7073
83.616
102.02
100.405
73.9643
95.389
109.292
117.356
132.97
186.986
195.933
188.749
136.942
206.927
452.827
452.323
184.855
206.525
258.964
258.255
135.274
100.387
130.806
59.7087
30.0582
29.2408
25.0532
26.2894
44.6638
60.2641
41.276
36.1797
90.8697
126.948
136.306
180.902
269.341
133.911
200.449
485.44
429.083
195.188
170.243
181.61
159.644
139.166
108.195
85.7983
100.273
54.354
32.3645
30.6575
27.8782
34.7795
37.2214
43.4193
40.6987
49.0315
82.1008
122.812
183.92
239.456
484.884
193.692
478.022
384.363
164.024
216.657
197.969
172.793
119.896
85.6349
74.4674
74.003
71.7969
76.5974
53.473
38.97
30.1895
37.5443
32.4791
40.9163
51.7121
89.1501
110.568
128.696
251.87
322.4
442.831
866.425
1156.12
372.86
160.158
197.159
178.409
165.709
153.572
131.135
105.685
93.8818
70.6667
61.901
60.7381
62.7079
46.5333
48.5498
36.2134
41.6976
39.2935
40.9608
76.7104
149.868
200.044
284.012
381.125
418.322
1144.7
372.017
152.016
184.328
173.032
161.756
132.011
96.8527
81.6146
56.033
52.2295
60.2033
60.931
58.1437
58.2809
67.113
73.7185
78.7512
77.5141
50.7635
75.7208
97.7462
164.242
261.53
379.44
445.224
1034
259.26
153.273
192.008
182.519
165.01
131.772
100.511
74.9493
58.0122
47.3559
25.6762
33.924
52.4347
61.3615
64.4754
69.9554
74.4775
71.9585
68.2582
91.58
98.2921
146.572
172.077
297.717
316.112
1328.18
1247.22
279.143
148.002
164.985
182.887
164.117
110.619
87.1599
71.5121
61.2921
52.7113
47.4221
45.289
41.0688
45.5093
53.8116
61.6387
63.9231
54.5506
55.9257
61.6146
94.3125
147.53
206.464
247.315
193.028
1539.55
417.393
160.451
196.406
182.514
166.489
95.1002
72.7757
59.8058
53.7108
51.1984
49.9261
48.8325
48.332
47.3763
47.077
49.0374
53.7102
59.49
60.3809
62.5317
29.9354
75.6948
187.697
235.289
192.448
453.037
463.639
195.272
163.471
170.556
160.077
83.495
68.3368
40.7122
30.0479
25.8684
29.7692
40.8485
47.2592
48.5417
50.179
51.7536
53.6701
56.3607
61.3172
71.6296
86.5645
123.881
152.246
220.216
194.198
470.039
1013.03
239.749
159.315
170.668
162.567
82.7381
64.6703
43.5676
22.0507
11.0083
8.9944
8.84449
10.4592
25.5907
43.8336
49.2643
53.2345
57.0442
62.4413
74.4096
90.5157
133.171
167.99
181.088
158.618
414.264
409.354
157.039
167.331
164.831
101.974
78.9027
35.3403
15.356
9.29933
7.59769
6.02137
5.761
7.25441
14.4865
32.1003
45.686
54.4544
59.6993
67.3552
80.8146
102.576
142.901
194.362
241.338
284.192
465.792
179.403
211.18
185.14
155.83
75.9988
36.766
15.8572
4.23186
3.34886
4.42363
5.00757
3.89313
4.16845
5.91744
21.0573
39.1581
50.9699
62.3086
75.6869
94.7062
135.755
164.385
179.355
170.518
832.481
956.603
228.373
162.953
181.98
165.285
103.001
71.8451
27.9128
4.59165
2.49185
2.06415
2.27961
2.96529
3.22902
2.87997
3.57565
7.83719
20.6497
38.4239
61.577
86.313
121.929
167.849
168.797
146.229
397.482
961.67
242.475
162.59
178.874
165.092
120.832
78.4616
56.4977
30.8622
5.54157
2.42742
2.06513
1.91139
1.91349
2.13428
2.57826
3.39727
7.48433
27.8205
40.2574
67.007
112.505
161.114
190.97
222.586
248.616
1093.46
412.431
193.986
177.715
157.348
114.447
79.5928
61.3201
44.8775
17.3926
4.11708
2.38371
2.07937
2.15475
2.09753
1.98646
2.76924
5.21781
10.0331
28.0388
57.2556
102.781
158.259
181.203
206.609
231.821
926.9
787.356
200.196
207.463
172.227
95.1201
70.0799
55.2803
45.621
32.1118
11.0618
3.08312
2.3745
2.935
3.97605
2.40142
2.17896
2.94294
10.4034
27.3389
45.2074
73.283
133.188
191.248
201.586
237.573
925.756
246.979
155.808
152.221
136.009
75.3796
36.3159
25.0881
26.5843
21.2326
7.51134
3.16499
2.55057
6.02766
15.5829
7.81583
2.70178
3.21623
11.8873
49.4669
69.3995
101.672
176.078
186.267
219.935
926.959
794.709
163.337
155.58
148.891
103.57
69.2376
45.6037
10.0284
7.61273
11.7387
11.3952
9.76546
7.8578
8.8098
18.4574
24.4868
7.97561
5.2803
21.8063
55.5993
89.1851
156.797
191.76
233.274
395.025
271.488
160.358
154.308
142.74
78.2774
54.6139
39.8208
27.5708
6.00855
4.18885
6.28208
11.8103
14.8339
16.2887
19.3322
25.9693
31.6507
18.4922
40.0121
84.4673
137.552
183.885
207.135
244.81
963.877
967.276
213.763
160.635
146.758
93.2905
60.7725
42.9296
33.6013
24.1887
14.5134
8.02271
5.89293
7.62675
9.88596
7.79088
5.61017
12.5939
33.7908
48.826
54.5208
122.705
168.812
178.161
170.976
867.13
343.703
203.256
176.757
130.666
66.902
47.873
33.8186
23.1597
16.275
7.57556
5.62571
7.24667
8.62613
9.24078
9.79001
5.24975
6.37876
28.5301
59.2332
94.211
151.502
180.379
218.564
268.927
1246.81
740.128
153.147
151.729
148.487
84.7754
38.2418
24.1513
19.6821
9.66315
4.18495
3.99555
3.13805
3.67472
7.7717
11.0765
15.6648
23.5183
29.8279
45.6572
62.7281
113.068
158.159
207.783
233.072
927.446
216.756
182.564
149.729
129.248
82.9592
46.4465
9.31366
4.54664
3.51824
3.06642
2.74534
2.96546
2.25697
3.74557
12.7866
21.9675
31.0274
44.6757
61.1147
90.7847
153.605
178.494
153.536
425.423
721.187
152.934
142.845
127.965
81.9288
63.0491
48.0673
26.7646
5.67797
2.16902
2.01539
1.87017
2.08129
2.35139
3.33703
8.72237
24.3642
36.42
49.3332
67.7303
96.6106
154.847
201.142
235.99
1034.44
245.42
151.146
140.443
119.499
68.0958
49.6546
36.3611
24.6102
11.7748
3.29122
2.1709
2.31611
2.04722
3.13548
4.69413
5.75038
22.634
42.2325
56.2479
74.7955
117.379
159.74
188.281
402.385
728.247
151.797
143.468
135.092
83.4935
62.0613
43.4654
28.4706
16.7922
7.90715
5.17807
4.1923
3.59279
4.79314
5.96837
7.541
7.75628
20.353
47.2811
65.8273
94.658
146.784
151.586
172.038
903.174
242.332
145.884
136.093
119.731
73.7617
54.7965
40.2183
26.7444
14.541
5.53244
2.84075
3.51058
4.40962
7.21091
11.5512
17.8155
25.4549
36.1267
54.6576
75.1268
126.943
161.257
180.978
262.052
742.58
150.901
137.765
125.167
79.5948
59.3764
46.5462
33.9045
24.3808
16.2928
7.78834
3.78672
2.46193
2.64835
3.58257
11.333
23.4935
34.9326
47.0978
65.1759
85.6344
159.229
160.781
165.399
864.319
247.048
140.25
128.912
111.978
65.2108
49.6642
37.3991
27.0912
19.3153
14.5617
9.09494
3.48337
2.52521
2.58635
3.20697
6.2141
21.9095
39.4065
54.5348
76.4956
125.573
160.095
218.332
263.177
211.463
166.712
131.952
86.0044
55.2652
40.517
29.7171
20.6263
15.7965
13.0869
9.80662
6.36077
2.89118
2.46577
3.44513
8.55435
21.6591
39.2916
59.0405
90.1708
146.965
177.035
147.81
731.649
771.85
147.901
135.959
117.901
64.7249
45.5103
33.1813
23.881
17.5278
13.9877
13.1332
12.1004
9.42813
7.23075
6.49834
8.16878
14.4438
28.1622
44.5331
60.6709
89.0911
157.123
205.003
235.102
1033.22
736.172
166.562
138.889
113.587
58.3045
35.3953
24.7093
18.8635
15.1773
12.8264
11.7569
11.96
11.7844
11.0917
11.6561
15.3389
22.2528
32.7395
46.6391
63.6392
98.5553
146.623
214.335
679.431
362.685
160.372
134.525
105.611
48.4945
22.7248
14.2219
12.5466
10.7753
8.06612
8.14883
9.96929
11.1
12.0708
13.9399
18.8265
28.8622
40.6364
54.3345
76.8072
129.212
164.086
183.66
817.351
211.806
174.073
142.095
95.9703
57.2271
23.9938
7.50102
6.99147
8.92019
6.28973
3.0969
4.04872
9.16464
12.2037
14.595
19.5977
30.5865
44.3998
60.3623
93.4135
135.803
184.995
245.361
745.519
177.49
155.377
128.491
74.5518
52.8543
33.9941
16.3523
7.82333
7.954
8.11552
5.2561
3.06705
4.75549
11.7461
16.7364
21.0585
30.9372
45.7541
62.4665
105.314
158.009
148.398
749.309
382.298
157.123
136.4
111.274
68.5838
48.7319
32.9629
19.8016
11.5974
8.82014
9.14262
9.20759
7.52936
7.0288
10.9149
18.034
24.4233
33.2326
47.2651
68.0199
119.409
159.76
188.739
1002.95
206.754
174.758
136.449
97.7514
61.5534
43.6055
29.9345
17.6463
7.59058
4.22646
6.08484
8.37243
9.86314
10.5057
12.1161
17.4243
26.2181
36.9652
49.8691
71.461
128.599
159.824
234.374
773.146
150.274
135.827
118.604
73.4088
57.5329
40.7311
26.8261
15.7753
8.22686
3.28443
2.32312
4.56555
7.81606
10.2444
12.723
17.461
27.6395
39.2849
54.4798
87.2992
129.274
172.953
384.708
369.828
150.831
130.79
113.525
65.3401
48.0339
36.9657
24.7343
13.6404
6.74708
4.22518
2.98667
2.20263
3.15048
7.2058
11.9651
17.7406
29.2697
43.4962
57.2576
102.263
150.78
144.305
722.664
252.989
134.462
118.172
97.1778
58.2764
41.2736
29.5341
20.7605
10.5059
3.60556
2.30796
2.46117
3.25056
2.47037
2.5022
7.68597
18.4585
29.703
46.0184
64.5929
106.776
163.194
194.182
1011.02
215.521
168.928
126.775
78.8775
54.6516
37.6566
24.4449
16.3949
10.0563
3.70871
1.77963
1.52418
1.96671
3.14198
3.3079
5.46199
17.2451
32.0819
45.8142
70.5785
133.58
145.997
209.128
939.481
152.632
124.884
109.445
65.649
48.6066
34.461
21.389
14.1937
10.898
6.90708
3.14444
1.66874
1.38445
1.74672
3.80661
9.03669
19.2771
34.9327
50.4053
80.6184
126.86
180.95
371.565
752.067
144.382
133.944
109.154
62.467
47.2457
32.2457
20.3091
13.8785
11.3472
9.45186
6.55534
4.2049
2.38862
1.51067
2.14955
7.92697
22.8662
37.64
56.0421
93.4162
152.864
150.161
770.322
695.79
161.104
134.798
109.874
62.7459
46.6553
32.0614
20.397
15.0344
12.7108
10.7988
9.11193
6.21591
4.31989
3.01273
2.19235
4.84738
20.6473
40.636
64.1376
124.564
137.342
205.382
256.944
140.089
125.237
98.6668
63.0028
44.4911
30.7512
19.9179
14.3196
12.3522
11.4054
9.34605
6.39802
3.36559
2.80272
3.48192
6.10676
19.5277
41.6266
69.0898
138.994
170.141
257.704
248.366
135.344
121.086
94.3312
59.237
41.7573
28.7481
19.8664
14.6098
11.571
10.924
10.4243
7.60634
3.93801
2.1548
2.83025
7.86314
23.9241
45.0068
77.6813
142.284
188.157
681.193
219.581
175.402
130.916
72.0961
53.685
37.6834
25.5856
18.6896
14.071
10.0827
8.9706
9.67047
9.84223
8.15333
5.80103
4.54594
8.99784
25.3169
47.537
83.8145
155.021
182.042
716.918
213.878
140.144
117.107
69.0527
50.3123
33.6735
21.4997
15.1035
11.7053
7.62985
3.65945
4.63134
9.37981
10.6725
10.8125
11.1051
15.8499
28.5668
49.7555
97.6406
137.334
185.34
857.878
204.094
136.834
114.194
66.3692
50.2509
33.8506
20.3079
14.2249
11.5675
8.6415
5.05419
2.94339
4.44559
10.7
13.5854
16.0965
21.9784
34.7044
52.087
95.8737
148.638
161.002
959.869
916.578
159.898
133.461
117.814
68.963
50.7595
34.239
20.7714
14.4807
11.8324
10.377
8.82081
6.83363
5.73357
8.17562
12.8991
17.647
25.5438
37.8569
55.4457
88.4052
147.616
192.782
729.394
193.009
162.109
127.456
70.4415
51.2634
34.2644
20.8924
15.1341
12.3887
10.7085
9.56529
9.21056
9.17236
9.55606
11.9389
17.1833
26.594
40.6875
60.0079
91.921
154.634
198.385
716.113
166.887
138.949
117.988
70.5528
47.2078
31.6347
18.5947
12.8758
11.3376
9.66699
8.19515
7.72348
8.34845
10.1077
12.4622
17.0248
27.2027
41.4821
62.4478
121.841
138.066
207.765
369.618
152.672
131.484
110.353
64.1563
42.9061
24.7129
12.8392
8.87208
7.3556
6.42547
4.54878
3.45864
4.33316
7.60657
11.2421
16.7059
27.9628
42.2167
62.4989
128.551
175.518
258.964
251.712
134.916
124.841
92.7857
61.6204
41.9926
24.0815
7.86155
3.58989
3.24238
3.10717
2.77894
1.66984
1.43771
2.6677
8.63251
16.4458
28.573
44.6088
65.423
130.274
175.727
645.263
256.741
135.833
122.519
73.7443
53.6739
39.219
25.9443
12.3724
4.28167
1.91619
1.24191
1.15682
1.2224
1.33584
1.86653
5.07206
16.0219
29.3279
46.6796
68.6366
129.278
175.429
681.246
222.381
137.596
121.854
77.0236
50.0137
34.4784
23.4959
14.4657
8.59264
4.75589
2.03077
0.980767
0.928243
1.11132
2.22686
6.14285
15.488
30.0066
48.6303
80.8464
124.532
170.628
711.799
211.661
145.545
127.667
70.7328
49.9784
32.9117
20.9188
14.7784
10.6924
7.55744
4.31458
1.59878
0.948603
0.994309
1.81339
5.9496
16.7975
31.6036
48.6732
89.2786
133.301
146.272
780.264
221.468
147.36
121.555
65.8654
45.1454
30.9703
19.7309
14.8833
11.7423
8.47798
5.90357
3.87765
1.58363
1.15658
1.73547
5.60321
17.4286
33.3235
48.072
84.7191
136.807
188.672
973.249
212.714
148.332
118.587
60.2625
41.3731
28.4358
17.8221
12.9687
10.6573
7.53866
4.03521
3.25984
3.46625
2.47247
2.78177
6.89534
19.3101
35.1846
51.1313
87.5943
139.631
201.68
915.758
157.219
137.515
104.387
50.3285
35.5706
26.1756
17.9261
12.7875
10.1725
7.16502
3.7129
1.63942
1.90678
4.01865
6.31708
10.9461
22.5575
36.8278
54.2262
90.5265
144.942
206.66
724.298
200.766
146.602
59.2354
22.219
14.56
16.4547
15.2504
13.5664
11.4766
8.699
5.84024
2.83097
1.45887
2.5232
8.06558
15.0557
25.8671
40.1169
56.6517
92.7516
147.147
212.291
726.331
165.109
129.606
73.0835
13.7432
4.18088
5.73436
9.7667
11.4353
11.4576
8.96258
5.99473
4.20313
2.96017
2.36177
6.49736
17.4017
29.2398
43.6801
64.377
114.978
144.007
197.691
381.664
152.378
125.123
89.0058
40.101
9.60599
5.81418
7.90526
10.1373
9.97172
8.1591
4.07918
2.11239
2.47649
4.07553
7.47648
17.8724
30.9111
45.5041
68.6163
126.558
160.476
231.748
242.779
135.326
121.351
77.2492