/*--------------------------------*- C++ -*----------------------------------*\
| =========                 |                                                 |
| \\      /  F ield         | OpenFOAM: The Open Source CFD Toolbox           |
|  \\    /   O peration     | Version:  2312                                  |
|   \\  /    A nd           | Website:  www.openfoam.com                      |
|    \\/     M anipulation  |                                                 |
\*---------------------------------------------------------------------------*/
FoamFile
{
    version     2.0;
    format      ascii;
    arch        "LSB;label=64;scalar=64";
    class       volScalarField;
    location    "50";
    object      p;
}
// * * * * * * * * * * * * * * * * * * * * * * * * * * * * * * * * * * * * * //

dimensions      [0 2 -2 0 0 0 0];

internalField   nonuniform List<scalar> 
404911
(
-0.458218
-0.455371
-0.453736
-0.455624
-0.461512
-0.457415
-0.454539
-0.454543
-0.455104
-0.455372
-0.465203
-0.466468
-0.466209
-0.462424
-0.459087
-0.455616
-0.470471
-0.468799
-0.466776
-0.4649
-0.475101
-0.47242
-0.473258
-0.475768
-0.474749
-0.478234
-0.481885
-0.47797
-0.473824
-0.490621
-0.486658
-0.484532
-0.48216
-0.47673
-0.493814
-0.490454
-0.490292
-0.492543
-0.494044
-0.491923
-0.495078
-0.49538
-0.495183
-0.494578
-0.492772
-0.491893
-0.495777
-0.495658
-0.495507
-0.494161
-0.495535
-0.496256
-0.496937
-0.493779
-0.495385
-0.495083
-0.505946
-0.457251
-0.463879
-0.459684
-0.465448
-0.464741
-0.470909
-0.469094
-0.466668
-0.47367
-0.472393
-0.470391
-0.477054
-0.474046
-0.481856
-0.47914
-0.475477
-0.486128
-0.484477
-0.481944
-0.479153
-0.490585
-0.48879
-0.492863
-0.491026
-0.495129
-0.493853
-0.491798
-0.496395
-0.495749
-0.497923
-0.497363
-0.496913
-0.498409
-0.498072
-0.508391
-0.5108
-0.508441
-0.515416
-0.513856
-0.511915
-0.519353
-0.517562
-0.516206
-0.523223
-0.521039
-0.519002
-0.522931
-0.239427
-0.237129
-0.235437
-0.252464
-0.247616
-0.246765
-0.241448
-0.240435
-0.23841
-0.238157
-0.23432
-0.257502
-0.256343
-0.252106
-0.248898
-0.243787
-0.241332
-0.240247
-0.239249
-0.227766
-0.263022
-0.260874
-0.259435
-0.258252
-0.256742
-0.256833
-0.253532
-0.250751
-0.246455
-0.243911
-0.242396
-0.241478
-0.23676
-0.231562
-0.228393
-0.225187
-0.269082
-0.26577
-0.26294
-0.260947
-0.259446
-0.258693
-0.257023
-0.256266
-0.255511
-0.252373
-0.249039
-0.246142
-0.24423
-0.244145
-0.228324
-0.276924
-0.272769
-0.268678
-0.265694
-0.262577
-0.260776
-0.259365
-0.258633
-0.257339
-0.255601
-0.253632
-0.251359
-0.248844
-0.246671
-0.245543
-0.28013
-0.277928
-0.274599
-0.271163
-0.26746
-0.264134
-0.261785
-0.259165
-0.258881
-0.257601
-0.255511
-0.25333
-0.251375
-0.24931
-0.246836
-0.245548
-0.285918
-0.283232
-0.280513
-0.278257
-0.274916
-0.272564
-0.268824
-0.26566
-0.26366
-0.26035
-0.259855
-0.258286
-0.256232
-0.254363
-0.25236
-0.250795
-0.247459
-0.297701
-0.293608
-0.291514
-0.288
-0.284846
-0.281666
-0.278612
-0.276127
-0.272813
-0.270256
-0.267696
-0.265061
-0.261962
-0.260666
-0.259249
-0.25733
-0.255515
-0.252905
-0.302107
-0.299441
-0.296587
-0.293255
-0.28931
-0.285159
-0.283139
-0.281192
-0.277413
-0.274421
-0.271215
-0.269256
-0.265614
-0.263172
-0.261542
-0.25993
-0.258121
-0.25658
-0.311198
-0.307377
-0.30548
-0.301346
-0.298176
-0.295073
-0.290822
-0.28736
-0.284446
-0.281989
-0.279011
-0.276213
-0.273232
-0.270248
-0.267873
-0.263251
-0.261996
-0.259868
-0.314558
-0.312151
-0.308698
-0.306897
-0.303308
-0.300017
-0.296801
-0.292733
-0.289948
-0.287098
-0.28378
-0.279946
-0.277795
-0.275187
-0.271583
-0.269864
-0.266109
-0.317524
-0.316398
-0.316143
-0.315069
-0.310975
-0.308119
-0.304872
-0.301698
-0.298673
-0.294523
-0.29172
-0.288553
-0.286015
-0.282932
-0.279963
-0.27763
-0.275741
-0.323525
-0.319584
-0.318278
-0.317649
-0.31719
-0.315477
-0.313024
-0.309743
-0.306504
-0.303012
-0.300607
-0.296921
-0.293563
-0.290757
-0.288327
-0.284905
-0.28132
-0.278957
-0.329035
-0.329589
-0.326382
-0.322335
-0.319642
-0.319567
-0.317973
-0.316307
-0.313804
-0.311089
-0.307599
-0.304668
-0.302347
-0.299453
-0.296059
-0.292571
-0.289561
-0.286144
-0.334103
-0.331912
-0.330208
-0.330258
-0.324943
-0.322973
-0.320725
-0.320209
-0.319036
-0.317236
-0.314679
-0.31218
-0.31049
-0.306761
-0.304579
-0.301422
-0.29851
-0.293679
-0.336622
-0.335249
-0.333749
-0.332137
-0.330365
-0.326151
-0.324464
-0.32281
-0.321076
-0.320513
-0.31758
-0.314276
-0.312323
-0.311841
-0.308629
-0.30595
-0.30011
-0.299024
-0.341381
-0.338764
-0.337529
-0.336457
-0.334843
-0.333221
-0.331139
-0.328923
-0.32646
-0.324649
-0.323067
-0.321307
-0.318958
-0.315845
-0.312416
-0.3127
-0.312956
-0.309102
-0.345197
-0.341649
-0.339995
-0.337839
-0.336819
-0.33543
-0.333971
-0.331963
-0.330003
-0.328481
-0.327283
-0.325205
-0.322981
-0.321197
-0.318578
-0.313915
-0.312972
-0.312097
-0.352069
-0.351527
-0.348904
-0.345369
-0.342211
-0.340003
-0.33811
-0.336253
-0.334443
-0.332659
-0.330607
-0.328899
-0.327794
-0.326241
-0.324354
-0.32424
-0.320816
-0.318385
-0.353281
-0.351913
-0.352403
-0.348663
-0.345732
-0.343153
-0.341591
-0.339427
-0.336987
-0.335262
-0.333269
-0.332314
-0.329898
-0.328794
-0.326373
-0.325244
-0.324592
-0.358563
-0.356847
-0.355523
-0.353122
-0.351623
-0.349491
-0.346952
-0.344891
-0.342867
-0.341248
-0.339249
-0.336259
-0.334873
-0.333973
-0.331746
-0.330011
-0.327365
-0.327004
-0.360235
-0.359612
-0.357957
-0.356323
-0.354592
-0.353137
-0.350836
-0.348657
-0.346599
-0.344826
-0.343046
-0.342473
-0.339239
-0.336292
-0.334094
-0.333479
-0.331617
-0.328946
-0.362874
-0.361595
-0.360556
-0.359232
-0.357614
-0.355401
-0.354075
-0.351543
-0.349728
-0.348328
-0.346318
-0.344439
-0.343713
-0.341738
-0.338247
-0.334199
-0.333996
-0.333296
-0.366261
-0.365244
-0.364423
-0.362958
-0.361601
-0.360635
-0.359022
-0.356817
-0.354374
-0.35273
-0.350297
-0.348627
-0.347655
-0.346306
-0.34538
-0.342587
-0.340657
-0.337763
-0.370122
-0.368804
-0.367484
-0.366153
-0.365061
-0.363937
-0.362531
-0.361044
-0.360067
-0.358146
-0.355735
-0.353521
-0.352192
-0.349823
-0.348852
-0.347097
-0.345611
-0.3445
-0.371886
-0.370801
-0.369896
-0.368444
-0.367109
-0.365888
-0.365019
-0.364033
-0.362075
-0.360225
-0.358739
-0.356967
-0.354601
-0.353779
-0.351456
-0.35061
-0.348669
-0.347095
-0.374923
-0.3739
-0.372785
-0.371875
-0.370535
-0.369192
-0.367823
-0.366569
-0.365863
-0.365415
-0.363578
-0.361664
-0.360026
-0.357794
-0.355791
-0.354579
-0.353616
-0.351565
-0.376762
-0.375713
-0.374778
-0.37348
-0.372554
-0.371353
-0.369985
-0.368721
-0.367593
-0.366742
-0.36631
-0.364754
-0.362346
-0.360246
-0.358326
-0.35588
-0.355124
-0.354311
-0.379884
-0.37803
-0.376288
-0.375107
-0.374208
-0.373293
-0.371966
-0.370701
-0.369758
-0.368904
-0.367948
-0.366775
-0.365192
-0.363068
-0.36104
-0.35968
-0.357837
-0.356371
-0.382691
-0.381661
-0.379215
-0.377703
-0.375931
-0.375361
-0.374555
-0.373273
-0.371504
-0.3707
-0.370079
-0.36918
-0.367972
-0.36628
-0.36416
-0.362683
-0.360696
-0.359451
-0.387992
-0.38556
-0.383234
-0.382409
-0.380803
-0.379201
-0.377473
-0.376981
-0.375762
-0.374334
-0.372041
-0.371337
-0.370869
-0.370149
-0.369025
-0.367356
-0.365298
-0.364222
-0.389215
-0.388702
-0.38728
-0.385031
-0.383093
-0.382103
-0.380753
-0.378978
-0.37819
-0.377164
-0.375824
-0.373582
-0.372185
-0.371572
-0.370747
-0.369812
-0.368527
-0.366687
-0.392403
-0.390651
-0.389627
-0.38839
-0.386366
-0.383797
-0.382199
-0.381312
-0.379839
-0.378449
-0.377721
-0.37684
-0.375061
-0.373423
-0.372249
-0.370994
-0.370419
-0.368918
-0.394821
-0.393506
-0.391887
-0.390482
-0.389574
-0.387863
-0.385449
-0.383724
-0.382386
-0.381024
-0.379331
-0.378154
-0.377271
-0.375812
-0.374581
-0.373459
-0.372106
-0.39772
-0.397234
-0.395879
-0.394474
-0.392712
-0.390943
-0.390122
-0.388946
-0.386662
-0.384946
-0.383435
-0.382029
-0.38053
-0.379363
-0.378312
-0.37671
-0.375617
-0.374611
-0.399535
-0.398638
-0.397951
-0.397167
-0.395971
-0.393968
-0.391857
-0.390303
-0.389464
-0.387719
-0.385817
-0.384468
-0.382896
-0.381687
-0.380574
-0.379372
-0.378447
-0.376388
-0.40144
-0.400892
-0.400038
-0.399276
-0.398728
-0.39736
-0.395617
-0.393182
-0.390987
-0.390166
-0.389033
-0.387322
-0.385928
-0.383927
-0.382871
-0.381674
-0.380155
-0.379623
-0.40461
-0.403733
-0.402348
-0.401696
-0.401051
-0.400449
-0.40016
-0.398711
-0.397052
-0.394853
-0.392363
-0.39093
-0.390755
-0.389211
-0.387394
-0.385257
-0.384057
-0.382976
-0.407069
-0.405993
-0.404756
-0.403495
-0.402725
-0.402054
-0.401324
-0.40105
-0.399504
-0.397638
-0.395577
-0.393219
-0.391391
-0.390749
-0.38963
-0.388351
-0.386363
-0.385147
-0.408372
-0.407789
-0.406766
-0.405295
-0.404094
-0.40337
-0.402971
-0.402119
-0.401234
-0.400136
-0.39855
-0.396506
-0.394293
-0.392674
-0.391325
-0.390187
-0.389437
-0.3875
-0.410485
-0.409222
-0.408417
-0.407266
-0.405915
-0.404648
-0.403817
-0.40357
-0.402925
-0.401309
-0.400021
-0.399005
-0.397483
-0.395759
-0.39401
-0.392536
-0.391202
-0.390691
-0.412654
-0.410966
-0.410057
-0.40907
-0.408011
-0.406686
-0.405395
-0.404757
-0.404467
-0.404014
-0.40214
-0.400379
-0.399234
-0.397854
-0.396009
-0.394542
-0.393497
-0.415519
-0.414186
-0.413454
-0.412294
-0.410987
-0.409945
-0.408575
-0.407133
-0.405848
-0.405462
-0.405053
-0.40492
-0.403951
-0.401788
-0.399708
-0.398869
-0.396975
-0.395542
-0.41805
-0.417117
-0.4156
-0.414599
-0.413412
-0.412207
-0.411427
-0.4094
-0.407476
-0.406057
-0.405888
-0.405337
-0.404991
-0.404349
-0.402642
-0.400645
-0.40016
-0.39849
-0.42015
-0.419059
-0.417876
-0.416595
-0.415662
-0.414442
-0.4134
-0.412952
-0.411318
-0.409687
-0.40696
-0.406685
-0.406079
-0.405181
-0.404371
-0.402758
-0.401548
-0.400921
-0.422236
-0.42105
-0.419709
-0.418478
-0.417524
-0.416641
-0.41552
-0.414446
-0.413993
-0.412613
-0.411365
-0.40948
-0.408125
-0.407407
-0.406246
-0.404986
-0.403865
-0.402842
-0.423977
-0.423042
-0.421795
-0.420289
-0.419206
-0.418424
-0.417729
-0.416667
-0.415468
-0.414352
-0.413454
-0.412499
-0.411069
-0.409647
-0.408557
-0.407531
-0.406138
-0.404957
-0.42634
-0.42537
-0.42391
-0.422311
-0.4209
-0.419687
-0.418699
-0.418164
-0.417416
-0.416467
-0.415034
-0.413604
-0.41254
-0.411446
-0.410422
-0.409443
-0.408191
-0.407172
-0.429617
-0.428206
-0.427082
-0.424751
-0.42306
-0.42168
-0.420385
-0.419076
-0.4182
-0.417588
-0.41701
-0.416106
-0.414727
-0.413517
-0.412461
-0.411433
-0.41057
-0.409691
-0.431591
-0.43065
-0.429288
-0.42825
-0.426814
-0.424009
-0.422569
-0.421617
-0.420274
-0.418806
-0.418174
-0.41766
-0.417241
-0.416071
-0.414865
-0.413855
-0.412902
-0.411237
-0.434999
-0.433873
-0.432706
-0.431755
-0.430991
-0.429648
-0.428404
-0.425932
-0.4237
-0.422677
-0.421999
-0.420201
-0.419044
-0.418707
-0.418262
-0.417267
-0.416024
-0.415234
-0.414207
-0.437532
-0.43609
-0.434969
-0.433971
-0.433022
-0.432147
-0.431219
-0.42985
-0.428044
-0.425241
-0.423499
-0.423138
-0.42267
-0.421732
-0.420269
-0.419258
-0.418325
-0.417064
-0.438262
-0.437509
-0.436452
-0.435365
-0.43404
-0.43289
-0.432142
-0.431183
-0.429844
-0.427335
-0.425275
-0.424154
-0.42365
-0.42287
-0.42169
-0.420484
-0.419408
-0.441294
-0.440213
-0.439224
-0.438348
-0.437515
-0.436549
-0.4352
-0.433818
-0.433236
-0.432721
-0.431385
-0.429189
-0.427233
-0.425773
-0.42455
-0.423583
-0.422737
-0.42188
-0.442391
-0.44203
-0.441152
-0.44026
-0.439317
-0.438407
-0.437384
-0.435751
-0.434507
-0.434053
-0.433899
-0.432754
-0.43048
-0.428373
-0.426918
-0.425894
-0.424588
-0.423951
-0.445076
-0.443063
-0.442465
-0.441847
-0.441129
-0.440179
-0.439352
-0.4385
-0.436676
-0.43508
-0.43462
-0.434445
-0.433435
-0.431174
-0.42946
-0.428145
-0.42701
-0.425535
-0.444942
-0.443952
-0.443284
-0.442774
-0.442061
-0.441021
-0.440196
-0.439562
-0.438297
-0.43601
-0.435123
-0.434523
-0.433416
-0.432114
-0.430316
-0.428903
-0.427805
-0.448952
-0.446934
-0.444742
-0.444207
-0.443654
-0.442883
-0.441762
-0.440777
-0.440274
-0.439889
-0.437669
-0.436309
-0.435189
-0.434141
-0.432989
-0.431415
-0.430055
-0.456183
-0.453186
-0.450761
-0.448105
-0.445688
-0.44515
-0.444763
-0.444091
-0.442407
-0.441279
-0.441046
-0.440585
-0.438828
-0.437474
-0.436111
-0.434989
-0.434292
-0.432532
-0.457428
-0.457275
-0.455281
-0.452092
-0.449089
-0.447015
-0.44625
-0.445855
-0.44497
-0.443626
-0.442068
-0.44169
-0.441094
-0.439952
-0.438589
-0.437265
-0.43575
-0.459879
-0.458792
-0.457225
-0.454869
-0.453006
-0.450464
-0.448333
-0.447171
-0.447022
-0.446546
-0.445209
-0.443617
-0.442315
-0.441671
-0.441038
-0.439457
-0.438771
-0.463565
-0.461955
-0.460548
-0.459546
-0.458277
-0.455755
-0.45383
-0.451917
-0.449987
-0.449141
-0.447727
-0.447004
-0.446115
-0.444831
-0.443686
-0.442708
-0.442003
-0.440622
-0.466507
-0.46468
-0.463469
-0.461563
-0.46054
-0.459032
-0.456653
-0.454808
-0.453342
-0.451572
-0.450842
-0.449095
-0.447561
-0.4464
-0.445142
-0.444165
-0.443413
-0.442476
-0.469703
-0.467274
-0.465147
-0.464216
-0.462519
-0.461677
-0.459916
-0.457579
-0.455818
-0.455293
-0.45378
-0.452694
-0.451426
-0.449946
-0.448048
-0.44646
-0.445185
-0.444063
-0.473
-0.471751
-0.469738
-0.467646
-0.465696
-0.46406
-0.463226
-0.462052
-0.459606
-0.458368
-0.457825
-0.456374
-0.455002
-0.453551
-0.452004
-0.450196
-0.447684
-0.446543
-0.476618
-0.475589
-0.474075
-0.472728
-0.470699
-0.469173
-0.467428
-0.465391
-0.464513
-0.463526
-0.462564
-0.461567
-0.460262
-0.458894
-0.457707
-0.455667
-0.454535
-0.453926
-0.449707
-0.480799
-0.47875
-0.477106
-0.475747
-0.473929
-0.472035
-0.470735
-0.468436
-0.466804
-0.465621
-0.464793
-0.463844
-0.462845
-0.462034
-0.460645
-0.458737
-0.456749
-0.45594
-0.454686
-0.482701
-0.480542
-0.479148
-0.477475
-0.475321
-0.473503
-0.471923
-0.469926
-0.468287
-0.467043
-0.466125
-0.465002
-0.463722
-0.462627
-0.461328
-0.459781
-0.45799
-0.45735
-0.485009
-0.483851
-0.482447
-0.481022
-0.479408
-0.477504
-0.475321
-0.473344
-0.471675
-0.470045
-0.468381
-0.466791
-0.465909
-0.464794
-0.463606
-0.462808
-0.461263
-0.488028
-0.48634
-0.485424
-0.484464
-0.483339
-0.481532
-0.479245
-0.477607
-0.475363
-0.473365
-0.471554
-0.470087
-0.468456
-0.466948
-0.465843
-0.464398
-0.463809
-0.493149
-0.488261
-0.486921
-0.487164
-0.486667
-0.485597
-0.483706
-0.481384
-0.478884
-0.476985
-0.474841
-0.472626
-0.471327
-0.469817
-0.468387
-0.467212
-0.46558
-0.498819
-0.498468
-0.49599
-0.493318
-0.490396
-0.489308
-0.488434
-0.486995
-0.48582
-0.483045
-0.480351
-0.47836
-0.476428
-0.473892
-0.472688
-0.471083
-0.469605
-0.4679
-0.500324
-0.4994
-0.499024
-0.497095
-0.494896
-0.492915
-0.491632
-0.49014
-0.48793
-0.486436
-0.483956
-0.481612
-0.479526
-0.477794
-0.476123
-0.474386
-0.472618
-0.502809
-0.501528
-0.500168
-0.499142
-0.497371
-0.495878
-0.494546
-0.492662
-0.490996
-0.488707
-0.487012
-0.484916
-0.482292
-0.480912
-0.478833
-0.47721
-0.475868
-0.505541
-0.504111
-0.50272
-0.500995
-0.499681
-0.498198
-0.496676
-0.495669
-0.493917
-0.4921
-0.490275
-0.487988
-0.485913
-0.483672
-0.481753
-0.479737
-0.478897
-0.507966
-0.50638
-0.50506
-0.504082
-0.502624
-0.50088
-0.499096
-0.498076
-0.49651
-0.494869
-0.493476
-0.491496
-0.489403
-0.487469
-0.485344
-0.483207
-0.481058
-0.511372
-0.508952
-0.507448
-0.506258
-0.50517
-0.503559
-0.502322
-0.500303
-0.498854
-0.497474
-0.496058
-0.494637
-0.493138
-0.491186
-0.489323
-0.487164
-0.484876
-0.516164
-0.514291
-0.512423
-0.510014
-0.508644
-0.507013
-0.505192
-0.503559
-0.502418
-0.500461
-0.498803
-0.497416
-0.496032
-0.49443
-0.492487
-0.491084
-0.489026
-0.520884
-0.517437
-0.516025
-0.513424
-0.511521
-0.509034
-0.50664
-0.504525
-0.503408
-0.50186
-0.499574
-0.498402
-0.49686
-0.49566
-0.49332
-0.492664
-0.525287
-0.521569
-0.519268
-0.517993
-0.515683
-0.513531
-0.511112
-0.508824
-0.506392
-0.504448
-0.502968
-0.500966
-0.499397
-0.498058
-0.496379
-0.532753
-0.533218
-0.526522
-0.523646
-0.521257
-0.520114
-0.517845
-0.515754
-0.512799
-0.510438
-0.507774
-0.50534
-0.503963
-0.502348
-0.500114
-0.499166
-0.538126
-0.53495
-0.531667
-0.528977
-0.526155
-0.524498
-0.523073
-0.520123
-0.517724
-0.515379
-0.512038
-0.5091
-0.506133
-0.504308
-0.503105
-0.501223
-0.541965
-0.541121
-0.539769
-0.535327
-0.532111
-0.528705
-0.526809
-0.525393
-0.52232
-0.519467
-0.517329
-0.514995
-0.51179
-0.508303
-0.505284
-0.504633
-0.548161
-0.543763
-0.542653
-0.54245
-0.540895
-0.537015
-0.534305
-0.53188
-0.529234
-0.528329
-0.524269
-0.521757
-0.518461
-0.517371
-0.514093
-0.510972
-0.553697
-0.551187
-0.548052
-0.544545
-0.542873
-0.542046
-0.538535
-0.536222
-0.53435
-0.531454
-0.529022
-0.527945
-0.523788
-0.52052
-0.518387
-0.515948
-0.557446
-0.55354
-0.550719
-0.549747
-0.547258
-0.544728
-0.542925
-0.540658
-0.537986
-0.535836
-0.532534
-0.530653
-0.528523
-0.526779
-0.522889
-0.519768
-0.56233
-0.560142
-0.556031
-0.551737
-0.550537
-0.549197
-0.546904
-0.543643
-0.540863
-0.539041
-0.537794
-0.535619
-0.533955
-0.533127
-0.529845
-0.524851
-0.566175
-0.565196
-0.562606
-0.558558
-0.554221
-0.552531
-0.550555
-0.548342
-0.544898
-0.541406
-0.540184
-0.539226
-0.538197
-0.535188
-0.533499
-0.532803
-0.570063
-0.569107
-0.565902
-0.563828
-0.560848
-0.55648
-0.554377
-0.552226
-0.549669
-0.546885
-0.543516
-0.540029
-0.539584
-0.53914
-0.537238
-0.574511
-0.5737
-0.570252
-0.567806
-0.565354
-0.562336
-0.559227
-0.557001
-0.553483
-0.551295
-0.548549
-0.54617
-0.540751
-0.540984
-0.540104
-0.539072
-0.577221
-0.575776
-0.574715
-0.572925
-0.569677
-0.566916
-0.56341
-0.561298
-0.559458
-0.556248
-0.55322
-0.551322
-0.54965
-0.544371
-0.543073
-0.542179
-0.580379
-0.578656
-0.57693
-0.576058
-0.57469
-0.571769
-0.569687
-0.566486
-0.564006
-0.561778
-0.558964
-0.555518
-0.554062
-0.55252
-0.548897
-0.584585
-0.581708
-0.580415
-0.577939
-0.575554
-0.572748
-0.571579
-0.568866
-0.566308
-0.564537
-0.562026
-0.558388
-0.556019
-0.553508
-0.591168
-0.588458
-0.58394
-0.582591
-0.580457
-0.577764
-0.574836
-0.573426
-0.570774
-0.567487
-0.56639
-0.56448
-0.561014
-0.598232
-0.595946
-0.593504
-0.590749
-0.585936
-0.584415
-0.581809
-0.579823
-0.577675
-0.57522
-0.572626
-0.56938
-0.567107
-0.56581
-0.604046
-0.600796
-0.597089
-0.595026
-0.592522
-0.589486
-0.586493
-0.584102
-0.581549
-0.579497
-0.576602
-0.573873
-0.57151
-0.568772
-0.607776
-0.605771
-0.603827
-0.600358
-0.597386
-0.59485
-0.592134
-0.589057
-0.586754
-0.584149
-0.582038
-0.577387
-0.575825
-0.572933
-0.612331
-0.609905
-0.609282
-0.605353
-0.602486
-0.599941
-0.597124
-0.594745
-0.591255
-0.588916
-0.587266
-0.584487
-0.581182
-0.578683
-0.615307
-0.612924
-0.61173
-0.60916
-0.606349
-0.603608
-0.602158
-0.599278
-0.595452
-0.592836
-0.589268
-0.587762
-0.585628
-0.584096
-0.619038
-0.618199
-0.61397
-0.613538
-0.610662
-0.608547
-0.60595
-0.603461
-0.602109
-0.597904
-0.595
-0.590326
-0.588732
-0.615194
-0.614031
-0.60903
-0.606957
-0.603747
-0.603076
-0.6
-0.597721
-0.593273
-0.617485
-0.616855
-0.612512
-0.608502
-0.603507
-0.604231
-0.601855
-0.59872
-0.623858
-0.621081
-0.618384
-0.616911
-0.613566
-0.608205
-0.606212
-0.631013
-0.626422
-0.624496
-0.621176
-0.618967
-0.614796
-0.611218
-0.630743
-0.629383
-0.625895
-0.622545
-0.618407
-0.643052
-0.638531
-0.633978
-0.63145
-0.628562
-0.625392
-0.664046
-0.660503
-0.650514
-0.648835
-0.63515
-0.664202
-0.659581
-0.657491
-0.655341
-0.653706
-0.645144
-0.67249
-0.656066
-0.654199
-0.652854
-0.650402
-0.676401
-0.668578
-0.66022
-0.0738128
-0.0692296
-0.0655342
-0.0978143
-0.0930394
-0.0875755
-0.0819123
-0.0778036
-0.0747144
-0.0718705
-0.0675196
-0.050074
-0.119037
-0.112953
-0.110172
-0.105178
-0.100095
-0.0939819
-0.0873972
-0.082974
-0.0788761
-0.0754428
-0.0721746
-0.0677615
-0.0618349
-0.0562939
-0.0507671
-0.135911
-0.131215
-0.125203
-0.121079
-0.115608
-0.112045
-0.107358
-0.100992
-0.0946539
-0.088651
-0.0845906
-0.0817651
-0.0762342
-0.0719144
-0.067517
-0.061635
-0.0574277
-0.0525436
-0.0443362
-0.040692
-0.03376
-0.0192677
-0.150511
-0.144396
-0.139958
-0.135668
-0.131827
-0.126844
-0.122277
-0.118218
-0.113859
-0.108759
-0.10247
-0.0964415
-0.0919198
-0.0888696
-0.0885021
-0.0760999
-0.0707751
-0.0662062
-0.0612861
-0.0575473
-0.0532817
-0.0469475
-0.0384956
-0.158213
-0.157122
-0.153143
-0.151516
-0.146397
-0.139811
-0.135069
-0.130973
-0.126914
-0.123362
-0.12001
-0.115008
-0.109626
-0.103294
-0.0980029
-0.0942845
-0.0944427
-0.0885156
-0.0823538
-0.0717907
-0.0667106
-0.0625822
-0.0592524
-0.0552378
-0.0460047
-0.165736
-0.163736
-0.160225
-0.157614
-0.153929
-0.156124
-0.151873
-0.143356
-0.136626
-0.127892
-0.126671
-0.12496
-0.122341
-0.115436
-0.106995
-0.101763
-0.0976439
-0.0950092
-0.096121
-0.0920659
-0.0859347
-0.0727211
-0.0681565
-0.0646253
-0.0591122
-0.177068
-0.172378
-0.167164
-0.164015
-0.162279
-0.158587
-0.156344
-0.155825
-0.151237
-0.147196
-0.140657
-0.13324
-0.127056
-0.127487
-0.127877
-0.116686
-0.110069
-0.100471
-0.0977102
-0.0957376
-0.0959559
-0.0958261
-0.0889153
-0.0766912
-0.0707414
-0.188445
-0.184052
-0.179977
-0.176215
-0.169925
-0.166415
-0.16366
-0.159672
-0.157888
-0.157031
-0.152321
-0.149166
-0.14355
-0.139064
-0.130704
-0.127833
-0.127642
-0.115065
-0.111391
-0.101251
-0.0988133
-0.0970884
-0.0954448
-0.0925445
-0.0855269
-0.201482
-0.201919
-0.19503
-0.190337
-0.185922
-0.182471
-0.17726
-0.172092
-0.167317
-0.164909
-0.160153
-0.158622
-0.156449
-0.154064
-0.149994
-0.146775
-0.142289
-0.135102
-0.133084
-0.129521
-0.122948
-0.11078
-0.104055
-0.100303
-0.0979602
-0.0967507
-0.21196
-0.20943
-0.206432
-0.206391
-0.201175
-0.195631
-0.192203
-0.189017
-0.186105
-0.180013
-0.174968
-0.170284
-0.166485
-0.162704
-0.159265
-0.156689
-0.154927
-0.153109
-0.149188
-0.145249
-0.138163
-0.132522
-0.126989
-0.120727
-0.113626
-0.106391
-0.104313
-0.216876
-0.215667
-0.211275
-0.207756
-0.205124
-0.200426
-0.196966
-0.194521
-0.190912
-0.188219
-0.183096
-0.177008
-0.172413
-0.167902
-0.164015
-0.159831
-0.15808
-0.155907
-0.153153
-0.148751
-0.144879
-0.146641
-0.134989
-0.12881
-0.121339
-0.230198
-0.229132
-0.224624
-0.219804
-0.216989
-0.213815
-0.208945
-0.20607
-0.201711
-0.198092
-0.195227
-0.192048
-0.187973
-0.183935
-0.179181
-0.175285
-0.170063
-0.166339
-0.161673
-0.159738
-0.157504
-0.15423
-0.151363
-0.15199
-0.144253
-0.235144
-0.231503
-0.229344
-0.226731
-0.223253
-0.218646
-0.214889
-0.211089
-0.206984
-0.203217
-0.19914
-0.19534
-0.19223
-0.18831
-0.183818
-0.180495
-0.176319
-0.171947
-0.169316
-0.164586
-0.16137
-0.158704
-0.15571
-0.15171
-0.246424
-0.242011
-0.242902
-0.236176
-0.233725
-0.231008
-0.22903
-0.22546
-0.221751
-0.216672
-0.212325
-0.20836
-0.20418
-0.200335
-0.197709
-0.193464
-0.189011
-0.185186
-0.180869
-0.176504
-0.174412
-0.168508
-0.165436
-0.163172
-0.160607
-0.250619
-0.249433
-0.247769
-0.244194
-0.241036
-0.238599
-0.235253
-0.232664
-0.231282
-0.227595
-0.223559
-0.219078
-0.21386
-0.210083
-0.206067
-0.202798
-0.198941
-0.194674
-0.190761
-0.188278
-0.183193
-0.178836
-0.174791
-0.168817
-0.165862
-0.256659
-0.254756
-0.251694
-0.249902
-0.248075
-0.245409
-0.242174
-0.239832
-0.237649
-0.235923
-0.233032
-0.2296
-0.22537
-0.22071
-0.215706
-0.212618
-0.208488
-0.205288
-0.200362
-0.195648
-0.192208
-0.188935
-0.183485
-0.179719
-0.176747
-0.264317
-0.261828
-0.259568
-0.257626
-0.256019
-0.253375
-0.251778
-0.248534
-0.246189
-0.242596
-0.240501
-0.238872
-0.238564
-0.235882
-0.231041
-0.22735
-0.22253
-0.218417
-0.215315
-0.2111
-0.206814
-0.20261
-0.197825
-0.193328
-0.189317
-0.184504
-0.269918
-0.265544
-0.264163
-0.262688
-0.26051
-0.258558
-0.257257
-0.25563
-0.253801
-0.250937
-0.247092
-0.243835
-0.241516
-0.240333
-0.239883
-0.237278
-0.232033
-0.228606
-0.224601
-0.220915
-0.216971
-0.213648
-0.209593
-0.204744
-0.199984
-0.196529
-0.273389
-0.272738
-0.270924
-0.268264
-0.265459
-0.263164
-0.261196
-0.259076
-0.257906
-0.256495
-0.255662
-0.252824
-0.248368
-0.245582
-0.243444
-0.242263
-0.240916
-0.23665
-0.231937
-0.228698
-0.224927
-0.222219
-0.218853
-0.215981
-0.213232
-0.207368
-0.20274
-0.283473
-0.278999
-0.276489
-0.274549
-0.271855
-0.269042
-0.266304
-0.263454
-0.261074
-0.259232
-0.25803
-0.256835
-0.255981
-0.254194
-0.2507
-0.247616
-0.24546
-0.244135
-0.242164
-0.238333
-0.231711
-0.229123
-0.226546
-0.223885
-0.221024
-0.21768
-0.217314
-0.286186
-0.284081
-0.281335
-0.278659
-0.275782
-0.272949
-0.269744
-0.266222
-0.263012
-0.260656
-0.259164
-0.258148
-0.256948
-0.25567
-0.253724
-0.251221
-0.248726
-0.246674
-0.245865
-0.243211
-0.239442
-0.234702
-0.230707
-0.229
-0.226463
-0.223183
-0.292338
-0.29076
-0.288598
-0.285761
-0.282717
-0.280059
-0.277526
-0.274216
-0.270628
-0.267005
-0.263413
-0.260487
-0.259109
-0.25842
-0.257265
-0.255653
-0.253649
-0.251436
-0.249425
-0.247343
-0.245251
-0.243085
-0.239289
-0.235039
-0.233231
-0.230811
-0.30027
-0.296596
-0.294717
-0.29216
-0.289253
-0.286622
-0.283688
-0.280707
-0.277839
-0.274811
-0.27175
-0.268514
-0.265564
-0.261799
-0.259874
-0.259121
-0.257912
-0.256236
-0.25437
-0.252381
-0.2507
-0.248351
-0.246309
-0.243133
-0.24039
-0.237584
-0.305745
-0.301757
-0.299176
-0.296666
-0.294141
-0.291158
-0.287951
-0.284561
-0.281476
-0.278729
-0.275785
-0.272702
-0.269907
-0.267577
-0.264142
-0.261601
-0.260125
-0.258886
-0.257233
-0.25539
-0.253429
-0.252402
-0.249621
-0.247746
-0.244981
-0.312373
-0.310261
-0.307915
-0.304807
-0.301268
-0.298822
-0.295632
-0.292365
-0.289079
-0.285691
-0.282776
-0.28018
-0.277195
-0.274092
-0.271148
-0.268589
-0.265361
-0.262933
-0.261296
-0.259743
-0.258091
-0.256425
-0.254381
-0.253284
-0.25138
-0.248403
-0.316628
-0.314595
-0.313446
-0.311735
-0.309698
-0.306893
-0.303974
-0.301244
-0.297781
-0.294152
-0.290521
-0.287163
-0.284409
-0.281861
-0.278612
-0.275465
-0.272868
-0.270242
-0.26689
-0.264352
-0.262438
-0.260586
-0.259221
-0.257205
-0.255753
-0.25324
-0.322336
-0.320209
-0.318776
-0.316698
-0.314961
-0.313324
-0.311378
-0.308454
-0.305673
-0.303011
-0.299795
-0.296232
-0.29274
-0.289203
-0.286292
-0.283718
-0.280547
-0.277228
-0.274632
-0.272524
-0.269675
-0.265465
-0.263873
-0.262079
-0.260688
-0.258493
-0.257065
-0.326104
-0.324432
-0.322219
-0.320114
-0.318143
-0.316553
-0.315026
-0.313133
-0.310275
-0.307169
-0.304497
-0.301462
-0.297801
-0.294669
-0.291326
-0.288512
-0.285983
-0.282876
-0.27984
-0.276815
-0.27475
-0.272228
-0.267871
-0.265484
-0.263422
-0.261588
-0.330339
-0.328487
-0.326913
-0.325619
-0.323881
-0.321093
-0.31887
-0.317826
-0.316483
-0.314546
-0.312095
-0.309064
-0.30612
-0.302923
-0.299865
-0.296549
-0.293462
-0.290709
-0.288103
-0.284401
-0.281608
-0.279091
-0.275497
-0.272882
-0.270132
-0.267402
-0.333836
-0.332312
-0.330508
-0.32852
-0.327342
-0.325077
-0.321706
-0.319648
-0.319455
-0.318381
-0.316034
-0.313449
-0.310508
-0.307906
-0.304913
-0.302179
-0.298781
-0.295363
-0.291752
-0.289129
-0.285978
-0.283965
-0.280854
-0.277415
-0.275423
-0.33911
-0.337263
-0.335328
-0.333678
-0.332092
-0.330211
-0.328998
-0.32631
-0.322661
-0.320473
-0.320373
-0.319679
-0.317266
-0.314492
-0.311948
-0.30999
-0.307414
-0.304103
-0.300435
-0.297225
-0.293674
-0.290444
-0.287724
-0.285762
-0.28296
-0.342863
-0.341384
-0.339016
-0.336643
-0.334947
-0.333326
-0.331732
-0.330506
-0.328198
-0.324718
-0.32272
-0.321384
-0.320426
-0.318033
-0.314582
-0.312479
-0.311212
-0.3092
-0.305399
-0.300827
-0.298673
-0.294845
-0.291896
-0.289625
-0.287333
-0.348702
-0.34615
-0.344507
-0.342249
-0.339986
-0.337819
-0.335916
-0.334266
-0.332718
-0.331251
-0.329502
-0.326961
-0.324926
-0.323228
-0.321455
-0.318881
-0.315239
-0.313119
-0.31226
-0.310338
-0.308152
-0.303478
-0.300373
-0.297159
-0.293097
-0.351323
-0.349555
-0.347938
-0.345507
-0.343243
-0.340789
-0.338827
-0.336603
-0.334666
-0.333271
-0.331476
-0.330036
-0.32836
-0.326872
-0.325613
-0.323625
-0.321088
-0.318013
-0.315408
-0.31382
-0.310925
-0.309112
-0.306509
-0.302953
-0.3003
-0.355486
-0.35418
-0.35282
-0.351148
-0.3496
-0.347432
-0.34431
-0.342048
-0.34026
-0.337984
-0.335567
-0.333707
-0.331839
-0.330347
-0.329207
-0.328014
-0.326798
-0.325365
-0.322919
-0.320239
-0.318119
-0.315963
-0.312189
-0.310234
-0.308436
-0.358107
-0.357066
-0.355774
-0.353906
-0.352209
-0.351045
-0.349052
-0.346259
-0.343802
-0.341511
-0.339195
-0.336835
-0.334872
-0.332676
-0.331353
-0.330123
-0.328969
-0.327207
-0.32578
-0.323984
-0.320957
-0.319618
-0.318036
-0.315844
-0.361516
-0.360504
-0.359124
-0.358145
-0.356938
-0.355408
-0.353487
-0.352041
-0.350406
-0.347918
-0.345767
-0.343543
-0.340957
-0.33857
-0.336507
-0.334508
-0.332714
-0.331397
-0.330008
-0.328047
-0.326653
-0.325393
-0.322466
-0.32067
-0.320334
-0.364427
-0.363396
-0.362006
-0.360289
-0.359246
-0.357872
-0.356209
-0.354587
-0.353083
-0.351362
-0.349265
-0.347387
-0.3459
-0.343678
-0.341504
-0.338671
-0.335805
-0.334078
-0.332749
-0.331186
-0.329398
-0.327556
-0.326439
-0.324328
-0.367611
-0.366877
-0.365491
-0.36406
-0.36297
-0.361608
-0.36038
-0.359078
-0.35733
-0.355456
-0.354024
-0.352271
-0.350153
-0.348505
-0.347287
-0.345642
-0.343521
-0.340995
-0.338073
-0.33563
-0.333951
-0.332519
-0.330622
-0.329213
-0.327673
-0.369867
-0.369024
-0.36798
-0.366502
-0.365151
-0.363969
-0.362733
-0.361431
-0.360191
-0.358628
-0.356651
-0.35474
-0.352864
-0.350722
-0.349231
-0.348219
-0.347263
-0.34523
-0.342702
-0.340109
-0.33787
-0.335459
-0.334096
-0.332378
-0.372694
-0.372104
-0.370967
-0.369902
-0.368703
-0.367513
-0.366038
-0.364824
-0.363657
-0.36238
-0.360969
-0.359614
-0.357678
-0.355597
-0.353721
-0.351773
-0.350215
-0.34905
-0.347736
-0.345895
-0.344278
-0.341676
-0.339441
-0.337325
-0.3351
-0.375462
-0.374455
-0.373261
-0.371828
-0.370738
-0.369508
-0.368257
-0.366901
-0.365677
-0.364657
-0.363611
-0.362056
-0.360499
-0.358604
-0.35666
-0.354853
-0.353041
-0.351522
-0.350172
-0.348602
-0.347001
-0.34532
-0.342842
-0.340987
-0.377362
-0.375865
-0.374988
-0.373845
-0.372785
-0.37158
-0.370296
-0.368978
-0.367682
-0.366525
-0.365621
-0.364776
-0.36334
-0.361414
-0.359364
-0.3576
-0.355957
-0.354298
-0.353083
-0.35158
-0.349685
-0.348443
-0.346631
-0.344032
-0.382185
-0.380095
-0.378539
-0.377187
-0.37588
-0.374633
-0.373464
-0.372302
-0.371081
-0.369784
-0.368579
-0.367498
-0.366565
-0.365691
-0.364307
-0.362313
-0.360396
-0.358602
-0.356642
-0.355286
-0.354478
-0.353027