/*--------------------------------*- C++ -*----------------------------------*\
| =========                 |                                                 |
| \\      /  F ield         | OpenFOAM: The Open Source CFD Toolbox           |
|  \\    /   O peration     | Version:  2312                                  |
|   \\  /    A nd           | Website:  www.openfoam.com                      |
|    \\/     M anipulation  |                                                 |
\*---------------------------------------------------------------------------*/
FoamFile
{
    version     2.0;
    format      ascii;
    arch        "LSB;label=64;scalar=64";
    class       volScalarField;
    location    "30";
    object      omega;
}
// * * * * * * * * * * * * * * * * * * * * * * * * * * * * * * * * * * * * * //

dimensions      [0 0 -1 0 0 0 0];

internalField   nonuniform List<scalar> 
404911
(
349.419
196.568
3485.41
1577.54
218.791
251.139
227.731
649.885
388.216
326.008
343.16
376.893
238.05
258.025
496.556
1173.96
351.585
209.322
239.397
363.85
627.974
287.596
588.68
642.423
254.814
1038.15
456.571
210.466
207.229
1078.31
354.768
217.91
316.606
493.949
292.955
255.314
415.091
514.082
301.826
267.561
425.89
1113.58
288.138
206.495
213.841
467.579
418.016
212.892
235.052
943.917
476.088
516.865
343.126
1444.51
405.32
675.188
9444.56
161.936
397.453
291.018
231.726
116.833
235.781
23.3695
112.492
290.857
41.2528
592.903
184.617
28.0538
165.699
6.70569
136.888
101.277
44.6429
680.014
2345.12
306.099
86.9272
176.427
58.6952
224.02
13.9539
106.982
201.864
92.4808
406.516
55.9975
1222.09
423.759
326.376
3048.89
114.593
206.338
180.029
116.18
140.648
250.408
65.283
309.429
706.114
113.401
105.974
569.633
1286.5
563.046
290.194
761.137
370.849
294.994
257.797
249.53
246.755
251.429
2344.33
562.503
258.079
4567.51
652.631
201.82
210.148
216.116
215.797
313.714
1348.24
361.96
251.571
236.685
212.762
561.743
535.37
577.444
212.022
194.711
232.092
226.853
278.424
263.926
200.989
339.55
1233.14
368.62
241.709
215.555
214.95
210.151
211.477
206.152
568.839
525.687
226.4
196.681
227.831
1854.5
306.612
1050.02
303.995
212.051
192.932
198.9
198.487
206.406
210.593
211.451
212.138
207.838
214.434
219.697
219.93
292.376
447.405
652
506.538
471.74
496.247
492.436
571.539
197.41
210.695
209.46
214.698
221.21
229.174
246.273
247.023
234.893
341.483
772.29
516.256
455.503
465.92
360.672
407.701
586.901
491.968
188.857
202.562
204.166
217.736
232.716
243.46
270.516
1217.37
1052.3
295.703
641.528
392.012
306.531
298.266
481.849
491.609
374.186
437.111
495.465
505.549
183.457
210.58
223.251
223.465
251.421
557.836
923.01
658.766
299.28
341.566
285.701
318.43
341.581
313.678
497.627
514.54
572.656
404.468
170.039
206.461
225.052
249.428
340.258
1248.08
1278.38
336.123
157.058
366.626
294.672
281.203
255.141
297.798
552.042
346.749
267.06
299.028
324.673
343.601
543.597
203.494
256.781
1161
522.613
213.118
138.603
371.752
277.146
312.381
248.48
307.843
306.428
327.855
311.723
316.042
329.662
426.601
525.482
602.405
473.829
524.668
257.747
197.41
481.743
310.91
257.157
382.021
313.53
300.89
397.396
254.219
319.214
426.327
418.004
486.895
521.368
1736.03
399.167
204.949
181.82
198.634
234.176
250.403
316.423
261.782
308.434
271.764
230.582
365.081
288.842
477.371
447.357
494.077
296.429
1092.14
1030.82
954.845
329.985
412.213
167.892
126.918
274.782
247.051
327.942
258.172
257.37
309.269
323.696
290.624
368.644
409.12
233.312
623.799
1150.23
291.854
172.699
231.345
263.05
281.824
233.341
97.1051
246.337
233.606
251.25
233.737
164.985
272.946
407.176
298.956
502.42
314.569
518.661
197.565
160.673
192.065
202.647
472.074
305.973
244.388
135.968
194.811
160.404
169.536
183.081
121.029
301.861
402.447
232.132
1061.96
1182.52
310.523
183.97
175.987
184.227
188.324
160.555
203.147
206.152
179.728
117.141
219.462
223.854
261.229
135.244
156.153
598.362
940.059
394.012
174.938
142.27
205.906
259.413
181.35
190.657
118.487
115.088
121.652
119.586
202.948
217.762
313.109
294.838
167.73
323.195
761.701
1145.07
959.621
560.002
340.315
275.975
162.414
219.315
234.389
169.297
106.761
118.855
130.323
120.372
176.405
280.154
281.136
180.074
519.797
471.663
197.225
219.507
243.094
226.23
107.14
136.635
242.224
145.036
271.259
117.754
129.504
176.652
185.023
162.738
166.648
317.325
1012.07
219.56
140.528
198.712
167.361
206.921
153.116
129.967
161.1
236.813
245.611
315.85
207.583
192.532
211.153
211.029
182.533
350.241
469.578
160.299
178.804
212.697
170.815
128.189
144.304
85.1873
108.361
198.812
317.97
260.056
269.044
234.41
241.195
269.19
201.749
1025.56
281.866
136.563
177.638
171.982
125.407
93.0586
106.001
165.524
72.5107
91.7326
157.343
236.775
278.776
287.444
308.899
204.193
322.973
1217.65
501.305
201.746
166.143
184.681
170.455
141.065
167.897
116.698
85.4978
91.5439
108.727
129.855
130.193
131.608
295.501
144.596
233.901
1071.94
1160.48
266.98
137.482
219.01
184.212
162.755
140.716
96.163
99.1498
138.418
70.3279
110.794
150.235
186.777
186.922
169.157
195.495
341.43
473.512
178.402
170.674
182.259
166.439
148.717
128.443
123.12
101.05
59.6954
61.7907
68.5345
130.486
207.009
243.709
236.515
218.071
1055.9
1167.79
267.747
140.677
175.666
173.641
156.734
146.353
146.833
125.895
116.025
135.328
104.093
126.988
103.941
207.345
245.291
210.155
298.753
939.134
185.086
165.658
174.708
163.285
154.93
148.688
163.265
157.398
130.056
99.5483
102.153
112.517
139.384
204.232
201.697
236.908
362.752
296.053
142.828
203.674
164.769
149.547
153.285
150.74
151.1
158.046
154.844
135.149
123.807
132.486
158.204
193.71
200.172
194.646
565.959
266.504
179.263
223.802
148.519
142.907
139.39
118.624
115.614
143.774
149.603
149.001
152.323
154.994
191.447
181.932
147.922
281.077
1157.31
1193.56
207.211
151.552
193.79
124.686
126.164
139.099
120.257
133.344
109.271
135.611
147.68
161.792
167.612
189.684
211.112
190.236
511.053
970.674
191.917
163.323
165.684
134.988
120.25
142.344
127.232
109.297
130.919
47.2078
142.231
169.693
164.287
185.054
194.287
200.124
1101.21
324.682
164.31
165.979
184.743
176.845
148.726
140.181
142.645
141.905
115.543
104.365
142.143
158.781
178.062
195.78
136.246
213.896
1141.2
309.789
143.479
162.986
166.554
167.595
136.619
110.15
114.912
145.175
147.709
136.611
129.684
151.835
181.496
201.147
145.751
298.984
1075.91
238.931
141.415
171.178
166.503
149.883
117.313
139.634
125.472
104.105
129.335
134.665
146.021
154.255
180.784
188.152
167.831
498.785
471.863
174.027
164.491
206.369
180.171
131.55
94.218
74.9828
133.167
116.164
97.5408
126.749
154.179
158.401
188.3
181.833
197.154
1045.65
312.225
144.463
161.467
161.438
151.909
136.156
114.076
103.291
79.6259
73.7826
137.841
28.0155
125.775
168.25
179.473
203.377
252.476
1175.3
1088.04
209.009
132.932
168.883
158.701
142.081
121.321
151.812
92.1527
87.9031
83.8229
63.513
178.188
123.234
150.037
208.114
140.225
276.318
1078.82
196.428
165.414
174.635
150.42
132.541
127.638
105.05
137.581
101.925
100.399
67.5815
73.3766
117.289
166.537
199.968
158.353
474.036
1064.13
197.189
161.175
174.529
159.057
143.366
135.522
124.265
97.4496
95.0533
93.0569
38.8275
56.9152
96.2536
175.803
162.082
172.953
954.594
1060.18
193.199
154.831
170.26
156.356
155.544
154.479
147.859
141.92
119.795
74.952
83.4797
45.8715
104.544
150.707
208.192
250.372
1175.62
310.153
169.197
163.247
170.471
159.381
147.515
167.145
154.056
132.409
120.743
81.4989
63.5096
58.6844
104.595
173.35
181.862
271.688
1182.46
281.564
142.021
167.782
169.872
159.211
145.308
138.774
154.683
150.302
121.49
91.6149
20.6356
65.8316
88.7621
180.351
184.762
265.744
1137.22
196.615
156.187
192.398
166.915
148.461
150.626
151.002
138.408
133.665
132.091
110.054
89.9357
137.54
146.019
190.49
222.041
280.095
1015.62
194.006
160.179
162.039
158.168
146.473
130.509
119.201
108.445
106.067
129.434
129.614
127.013
113.618
137.08
174.261
143.285
289.09
1082.25
194.135
154.353
169.976
150.066
153.798
141.114
124.95
103.345
99.7315
82.0945
137.938
152.917
149.461
157.053
195.579
145.491
308.012
1086.83
200.87
161.682
171.166
155.173
150.34
153.315
141.925
132.377
110.095
108.016
136.696
155.295
150.685
173.883
173.471
154.187
468.349
1023.47
192.184
158.867
171.462
151.837
147.976
151.91
155.577
145.57
146.809
137.566
126.726
137.955
159.03
176.991
175.532
189.532
1023.74
327.551
185.76
175.356
181.176
147.526
132.606
137.926
155.479
152.524
139.021
135.704
142.045
147.897
154.242
175.252
174.007
193.772
1109.12
327.442
180.365
155.307
176.755
137.354
131.055
122.79
122.654
99.1288
91.1343
104.778
127.918
148.566
148.188
173.446
174.569
189.724
1077.28
1214.7
240.087
171.41
154.783
162.856
162.887
120.069
83.2903
86.9848
66.6069
34.4655
10.8767
26.0084
141.062
153.684
174.024
180.71
211.244
1062.95
1100.94
194.398
131.341
216.957
174.091
120.85
134.771
42.5974
16.4175
12.3717
20.104
13.3251
16.3344
90.7803
167.781
185.502
181.005
250.892
209.247
165.307
173.055
156.853
141.774
112.58
75.1524
61.6833
10.4762
11.1523
8.54838
46.8965
96.7971
160.987
176.156
137.111
265.538
1040.77
206.403
156.499
170.649
160.641
147.645
142.647
120.891
74.9435
53.3882
9.4024
8.77559
16.0622
104.324
163.319
177.564
147.277
313.173
1080.13
196.354
154.057
162.981
152.38
145.466
137.626
144.981
116.161
66.1703
40.5623
10.303
13.2364
108.307
164.694
193.347
153.853
479.957
1176.51
197.127
156.103
167.341
148.255
133.699
124.873
120.47
85.5864
79.7961
51.6746
50.0825
38.0692
124.184
177.01
173.135
162.037
891.206
175.441
207.235
180.68
159.845
142.697
141.394
130.564
88.6255
16.3842
22.135
73.5725
98.782
126.725
181.165
167.394
187.467
993.013
798.954
325.244
164.959
150.297
152.477
148.855
148.745
123.23
63.4178
11.4006
28.0989
128.605
141.458
161.058
196.562
193.999
1089.7
2204.57
339.419
265.145
179.147
142.34
152.455
154.239
152.697
128.427
88.6541
66.5969
23.587
106.804
162.448
176.944
137.666
217.753
1138.27
312.972
153.318
181.176
142.358
134.246
140.248
141.857
139.688
109.425
43.2584
39.6964
73.2025
120.015
161.176
198.409
141.644
287.626
291.269
186.505
184.418
144.511
116.765
119.476
137.615
140.99
107.324
62.6362
15.8895
66.6846
137.058
167.893
199.312
151.428
310.159
1221.79
260.741
166.976
201.708
145.118
103.316
105.736
116.319
102.692
91.7009
53.6182
39.3303
73.4087
116.422
169.843
185.238
168.643
901.126
992.874
201.633
202.48
176.101
124.931
95.5746
99.3467
129.189
63.506
59.9062
36.9598
27.1163
73.0377
104.66
152.242
162.333
187.922
1023.31
871.498
147.382
329.468
163.493
103.918
78.1413
20.9062
4.34237
16.5297
15.611
12.4318
33.5999
92.7013
112.211
145.011
215.749
189.899
1032.41
471.834
143.059
231.591
137.126
84.8464
55.0731
34.752
9.34896
7.01381
22.1135
44.7349
85.0484
106.729
124.615
177.027
262.612
192.555
1067.47
1046.82
257.783
150.66
149.838
137.971
77.8146
22.4011
1.95179
2.99356
22.0523
73.634
87.0883
123.725
138.269
145.548
221.283
237.989
335.396
1077.98
937.784
158.925
215.168
175.198
121.016
70.7466
6.81638
1.22074
2.7485
26.5724
68.127
75.3798
95.5121
121.149
160.258
178.227
180.989
215.175
1117.35
230.3
196.243
133.474
99.8279
54.2398
4.82798
1.38955
3.02372
12.4754
59.6256
87.7495
108.426
133.609
159.906
193.24
141.841
270.595
1231.8
272.215
173.598
147.949
84.7767
35.5765
1.71701
1.34937
5.87705
8.62345
28.3664
60.5408
123.314
141.725
167.846
188.985
146.61
308.894
282.194
187.128
168.888
99.1018
28.7778
2.08368
1.1213
1.96701
24.8955
11.9845
66.5353
109.93
156.72
172.78
201.513
154.628
482.378
261.207
316.999
198.554
105.7
42.2234
1.42095
1.38575
3.79691
7.31409
14.0426
40.2689
107.229
157.434
188.205
175.933
160.461
909.853
1005.78
176.108
296.82
235.731
107.52
62.1785
4.59889
2.16715
7.72832
14.1957
56.4938
81.9569
96.6547
167.413
192.126
202.603
204.06
1013.44
946.194
190.386
273.698
201.802
107.168
42.2424
2.14405
1.57587
10.1881
38.9903
64.7116
87.4116
128.62
175.337
196.203
141.11
280.946
885.074
159.66
176.2
140.247
96.3901
63.8909
3.62762
1.63574
3.154
31.0403
89.0393
97.0505
113.719
174.93
184.715
146.696
321.36
898.057
156.41
170.261
139.718
108.673
42.5696
2.07373
2.69055
39.4427
79.9752
78.2652
112.1
138.312
176.393
202.199
155.547
322.07
910.32
162.165
177.656
121.957
138.732
93.6228
3.30186
2.57073
20.179
75.0689
78.1575
109.586
152.021
184.708
178.333
162.24
907.172
921.165
165.328
212.906
135.4
125.134
115.225
124.525
7.99322
7.8992
79.0406
95.4227
135.862
168.881
193.318
174.764
194.765
1009.14
306.677
157.397
271.382
191.377
97.4465
33.0741
22.3273
80.3851
115.214
83.3669
88.1714
127.619
177.295
199.437
180.63
204.979
1087.56
362.678
364.852
173.374
100.006
38.2945
1.84196
5.30404
76.5493
103.875
98.9147
145.431
171.57
177.868
219.508
254.474
1217.85
346.134
355.392
228.824
109.416
2.26881
1.44696
2.31694
40.9753
99.3136
106.081
156.472
183.461
193.164
148.033
292.841
312.229
470.931
323.362
258.962
147.674
2.48257
2.08201
7.34994
22.2057
115.345
128.494
110.112
177.049
205.115
153.219
320.872
338.033
146.856
205.27
258.546
239.41
42.1328
3.05608
3.06105
76.5131
151.542
169.473
166.293
182.566
228.792
175.904
897.324
347.434
162.02
236.195
292.44
321.835
313.567
138.502
142.589
130.401
115.951
167.07
228.948
253.837
364.578
207.766
1078.96
1222.91
323.236
193.587
190.584
265.398
326.67
296.549
301.829
216.656
261.963
302.095
256.954
184.423
216.419
343.757
527.886
1277.6
244.85
151.659
208.434
210.818
241.978
318.443
255.589
66.3466
156.048
230.603
286.831
331.228
324.033
462.177
280.517
1053.94
232.083
173.085
167.301
192.017
219.773
221.653
257.846
204.148
161.759
208.564
278.635
311.392
329.982
413.013
867.618
339.459
172.213
568.765
393.708
265.158
155.398
161.06
145.359
120.118
128.616
214.901
202.511
170.184
255.147
323.892
4103.88
345.945
580.557
462.212
328.732
327.347
267.633
162.271
224.449
322.57
239.888
226.327
213.214
176.346
210.546
326.412
827.842
1122.6
682.324
340.33
331.741
385.15
291.229
145.949
163.743
304.191
283.15
280.602
226.966
231.544
225.047
348.594
1224.79
237.645
472.315
343.272
226.165
232.852
168.167
213.695
272.784
315.848
285.442
344.403
146.503
222.781
271.895
1438.06
1212.16
251.518
182.064
394.204
290.977
321.462
164.705
139.845
253.892
322.38
282.136
304.014
362.878
181.542
360.085
1275.87
592.325
234.414
186.519
503.153
338.034
360.101
290.768
228.723
336.045
304.687
313.212
330.248
153.159
208.509
370.271
1184.42
566.037
497.408
382.587
330.55
279.215
279.665
287.023
331.239
277.345
361.643
187.947
274.307
1198.02
757.268
581.06
486.276
410.289
351.386
328.308
285.62
247.893
300.343
300.597
149.517
199.101
349.934
1199.32
246.077
179.851
521.249
462.534
297.854
325.713
425.204
274.132
289.866
314.298
176.465
234.31
577.641
1268.78
247.602
191.796
534.119
498.512
301.731
321.216
467.89
366.719
532.21
357.797
186.219
251.845
1232.62
1191.84
250.058
584.282
526.668
520.969
389.393
301.7
257.463
307.901
365.599
528.564
203.744
259.033
1314.99
1245.38
250.279
601.801
525.286
536.879
485.933
275.016
307.129
280.521
342.546
527.032
207.685
345.294
1355.66
1192.93
255.916
206.339
542.198
500.375
552.491
442.236
264.759
294.855
337.057
185.554
222.495
350.803
1457.08
1472.9
1211.51
194.806
193.421
515.602
515.375
635.92
432.534
329.536
378.125
545.336
217.843
352.891
187.195
541.98
510.79
509.85
163.771
522.639
561.395
568.66
553.262
193.341
180.196
518.942
593.477
192.34
227.566
313.321
1190.39
6287.8
624.627
174.992
509.838
565.763
237.117
384.501
2843.9
2129.4
545.479
827.974
234.865
260.675
1185.58
499.147
832.836
253.547
261.343
601.802
892.386
676.929
267.837
245.574
292.392
1189.9
1179.26
311.942
1986.48
902.414
565.202
360.012
210.402
205.976
238.586
244.967
674.009
312.653
223.16
399.855
714.115
1507.53
1365.1
6428.21
508.107
1432.98
575.227
546.862
1333.56
581.466
397.85
313.582
297.761
274.352
261.139
231.527
330.854
1362.46
593.21
388.369
290.36
272.565
250.342
242.216
248.491
258.595
254.224
244.067
227.348
244.278
252.324
226.764
1285.36
562.55
311.792
270.998
249.58
240.148
236.003
233.357
242.121
246.698
253.541
233.527
226.746
225.666
234.294
234.806
249.397
235.976
250.818
341.42
389.372
860.128
997.755
549.15
299.148
256.724
243.832
230.749
230.754
234.847
237.818
235.362
236.962
241.905
248.186
216.604
578.462
588.468
218.551
238.512
225.507
248.491
264.058
273.13
636.602
595.098
347.865
278.511
249.091
216.727
201.945
209.773
214.76
227.888
234.399
237.525
233.258
236.082
231.793
230.638
233.633
210.604
562.538
589.336
204.811
225.388
243.803
264.205
309.524
1280.19
451.31
209.485
161.25
153.855
197.426
206.716
496.593
503.713
569.721
173.867
211.646
228.24
205.43
181.591
192.32
217.157
223.439
213.243
198.543
531.717
599.727
213.703
246.018
295.934
630.329
1528.28
417.393
374.606
290.275
279.081
281.349
247.944
296.297
380.931
469.059
421.969
474.993
169.186
186.692
422.689
458.42
685.577
185.523
215.09
226.87
233.647
579.851
613.163
261.29
616.684
1284.12
373.359
478.784
349.325
248.929
212.275
202.044
236.483
127.256
127.55
377.726
486.17
507.476
422.956
383.662
474.221
253.315
388.379
659.216
206.326
232.883
237.428
259.191
285.772
582.171
462.309
1374.39
321.697
448.403
338.347
251.219
171.858
205.626
180.443
149.686
201.122
155.478
141.002
281.869
357.504
420.875
419.857
332.766
230.112
132.325
434.787
169.456
232.528
267.791
361.028
625.965
1122.01
427.99
194.082
266.171
337.606
237.628
260.421
119.56
131.181
154.326
166.812
142.613
103.348
122.185
167.124
196.027
202.103
214.776
318.117
342.239
259.501
193.195
192.364
208.109
247.2
571.966
1154.65
256.445
157.026
260.746
245.722
211.593
252.344
98.586
121.391
124.077
148.245
177.542
243.386
167.952
193.288
159.776
186.472
196.949
219.053
239.557
271.375
182.571
616.487
571.491
697.577
4518.77
787.262
1409.88
328.144
274.668
228.378
160.6
126.351
135.26
160.659
146.972
172.391
188.554
170.072
183.938
177.892
176.29
223.852
161.192
208.663
227.953
248.826
227.059
150.932
602.842
1685.63
1312.46
389.4
282.485
234.153
172.673
206.681
49.7582
49.8161
24.4942
30.565
149.399
176.986
168.656
135.759
180.287
173.183
206.352
214.591
227.16
270.675
238.187
149.541
225.086
479.435
467.981
197.373
285.931
356.237
259.016
201.804
160.178
172.236
59.0709
24.876
24.2944
25.3628
25.1193
46.2804
93.8119
34.0648
32.1774
150.012
206.429
175.667
329.627
322.112
150.157
215.617
514.753
447.186
203.397
198.184
237.175
185.863
129.757
165.643
178.663
120.597
46.9689
29.6437
27.274
23.4121
24.1225
26.4052
46.6922
33.2225
55.7208
88.9816
206.456
262.583
369.223
625.103
207.926
516.074
402.57
167.145
238.809
257.51
231.629
201.649
179.488
154.691
164.699
128.829
91.5511
46.6246
31.8232
26.7172
24.2577
28.3337
29.4133
63.4128
124.56
188.144
215.563
347.298
425.807
591.561
907.785
1159.05
389.205
162.198
232.891
212.698
198.301
211.864
242.124
163.729
152.274
128.468
107.512
79.5138
94.417
28.6657
35.8514
25.6506
26.8462
39.1871
34.6344
120.931
160.107
294.113
382.742
472.814
440.247
1141.95
385.567
158.933
219.218
208.923
184.016
189.441
155.597
115.989
73.5607
46.4811
79.1883
87.9002
76.5106
67.645
71.644
52.917
77.9471
100.465
43.0037
104.492
167.208
224.649
366.13
490.338
463.682
1039.77
285.965
155.9
226.44
216.544
196.861
180.425
156.996
112.305
76.5916
45.9777
17.7791
18.802
66.7937
86.4076
87.5775
88.3003
104.652
81.5943
82.7572
124.047
169.478
223.209
244.377
444.737
357.087
1378.28
1240.72
291.934
152.356
200.845
213.29
190.417
167.827
152.77
116.742
92.9795
78.6483
68.8006
59.7376
51.4289
36.7565
64.7772
83.7006
87.4179
54.1472
45.5632
60.6222
133.154
241.02
292.657
291.12
218.987
1560.55
433.8
166.47
245.754
227.615
202.605
134.278
96.6454
79.1556
73.1817
71.8067
80.6617
79.0224
76.4307
73.9404
74.8885
72.319
71.7611
81.5494
81.5442
83.481
31.5245
84.4458
256.109
311.772
198.596
477.988
481.485
201.49
195.772
221.494
195.867
140.325
75.4259
29.3503
14.1735
11.7368
14.6451
36.1231
67.8768
77.296
78.3501
79.3872
85.8484
94.9322
103.095
118.13
121.227
162.85
223.99
259.262
202.079
499.578
1022.85
258.055
193.166
220.048
195.735
147.111
82.8082
36.5783
11.1021
5.12954
4.20288
4.29407
4.9969
12.5669
58.0618
75.2614
78.8853
86.1104
98.3713
128.071
165.628
212.596
226.312
239.646
186.578
459.403
421.278
164.611
205.861
207.514
144.67
73.0773
26.4502
7.51345
4.15611
3.69225
3.06919
3.06755
3.63506
7.2346
27.3594
63.6518
86.8853
91.672
110.935
140.475
154.456
199.667
243.381
296.918
297.374
482.239
180.382
255.913
235.141
184.595
80.0084
28.0269
9.41184
2.12312
1.71837
2.19641
2.6228
2.10864
2.26645
2.60127
8.50532
40.8122
70.7297
102.231
137.38
166.115
211.543
215.439
230.313
180.166
846.69
969.184
243.834
190.628
225.488
219.211
153.987
79.454
13.336
2.1698
1.36646
1.20295
1.35335
1.71742
1.90385
1.6679
1.85125
3.07388
7.41305
23.8871
74.3215
147.393
205.497
217.942
210.386
157.974
437.985
971.841
259.972
191.578
223.656
200.46
197.197
123.269
64.6769
16.537
2.45426
1.29832
1.22721
1.19519
1.17581
1.27394
1.41416
1.73816
3.20121
13.5027
21.4926
81.4655
161.738
220.508
252.172
270.971
263.267
1101.76
420.256
211.371
225.245
196.725
187.039
124.537
82.2685
44.15
7.92438
1.8054
1.29911
1.16953
1.21466
1.25678
1.13766
1.48485
2.76464
4.63452
14.8496
63.7072
122.893
249.622
276.465
280.525
239.706
933.502
810.658
207.074
253.864
218.4
171.771
110.127
74.1969
48.6618
27.6126
5.6726
1.56831
1.29556
1.48483
2.38211
1.33464
1.21104
1.5534
5.74257
15.5495
33.6131
102.776
182.625
251.057
273.608
244.46
925.364
263.165
188.425
200.814
181.203
98.2998
35.9402
13.6336
18.765
13.5258
3.98873
1.63604
1.35586
3.71458
7.40356
4.55757
1.47012
1.63433
5.36143
46.7648
113.801
169.316
237.596
244.477
234.607
930.055
811.786
170.304
194.036
182.34
149.597
90.8216
39.1013
4.32675
3.63489
7.5522
8.58443
7.93278
4.92673
4.23211
10.8471
15.7558
3.51586
2.52699
15.8696
56.6166
141.382
230.929
270.069
290.393
434.689
287.409
193.808
203.031
188.864
108.584
70.7484
38.9831
23.8241
3.19628
2.51818
5.19464
9.07062
14.1363
13.3804
8.46781
18.914
20.6613
7.98416
26.6519
110.617
172.109
238.596
301.085
251.186
962.079
982.612
220.961
202.145
184.658
152.497
88.3318
44.2274
25.9131
16.7094
11.2224
4.8466
4.11806
4.97837
6.60449
5.29784
2.67207
4.93146
31.4023
48.4898
72.7514
210.883
263.113
245.129
181.8
883.33
351.424
209.943
222.488
194.026
93.269
59.4779
27.5541
12.0725
9.41902
4.82117
4.16439
8.62279
9.89136
8.68449
6.36433
2.52111
2.84034
16.0586
88.3427
159.895
221.812
259.444
295.641
281.761
1250.51
761.756
162.981
189.101
190.199
106.259
37.6734
14.8846
14.3284
5.49783
1.96974
2.33848
2.2197
2.24485
7.43752
12.042
13.527
21.5586
26.5538
40.3291
103.03
169.851
229.614
257.437
245.159
932.157
225.54
226.174
188.529
171.084
109.295
43.7181
5.04558
2.48443
2.15665
1.93756
1.56744
1.57244
1.25965
2.06735
9.79106
21.4659
27.3589
43.8908
85.8892
144.387
206.425
248.885
160.075
461.661
741.883
162.179
177.45
161.488
135.645
83.9424
53.3167
21.6935
4.6504
1.89175
1.55954
1.14628
1.16979
1.23895
1.62205
4.059
16.258
34.7964
62.5419
96.1714
164.832
222.801
225.916
240.999
1035.45
263.169
177.443
180.08
162.555
106.964
62.0308
30.336
21.4233
8.16716
3.0206
1.94931
1.60774
1.29307
2.1437
2.49095
2.20941
9.17619
34.7725
73.2512
127.51
178.777
213.257
256.034
436.516
750.534
159.93
182.075
165.91
131.25
84.1117
36.6167
22.9543
12.0057
6.77666
5.10026
3.86024
3.6886
4.21822
4.14298
4.35079
3.35379
8.45998
37.4039
100.077
171.886
216.708
201.628
181.163
913.121
260.906
176.217
179.388
169.496
119.265
68.3568
33.2352
21.5831
11.1927
4.40013
2.64759
3.72171
4.32734
7.37472
12.2629
14.4659
21.7352
29.7633
61.0306
121.638
203.652
213.609
239.84
274.559
765.079
161.272
176.211
162.643
130.067
89.1717
48.8489
25.8931
18.5136
12.4992
6.56417
3.41381
2.36426
2.39236
3.23129
11.5587
22.9509
28.9805
50.33
100.348
149.507
217.674
211.587
176.084
882.167
264.759
163.098
170.558
155.689
110.925
60.4294
31.2369
23.0451
16.537
12.0128
6.85275
3.12233
2.73231
2.57077
2.80484
5.03455
20.523
36.7344
72.8816
118.395
191.302
226.417
253.394
275.586
220.523
201.783
167.826
130.138
82.3833
38.3479
26.7741
20.0576
16.2636
13.8927
10.2779
5.53753
2.74769
2.38309
2.86832
7.25165
18.9014
49.2083
93.0424
152.316
197.994
247.757
161.524
758.773
792.017
159.233
169.066
140.656
102.396
56.3692
28.3134
21.7433
17.9331
15.7003
15.2946
14.0639
10.8694
7.07901
5.36707
5.74293
9.26216
28.0587
78.8043
126.131
176.379
211.492
239.612
245.245
1049.6
747.906
188.768
172.507
137.888
92.775
34.1721
23.6106
18.1886
14.62
13.2584
14.0447
14.9237
14.0058
12.2897
11.3424
13.1789
18.4555
30.6541
66.901
116.94
162.428
211.294
247.611
699.971
379.89
185.966
172.195
129.8
54.6625
17.1055
12.0584
13.6244
11.0914
7.6002
7.61294
11.7545
14.53
14.7628
14.9573
17.8944
26.8994
40.3889
86.422
139.734
192.358
229.151
199.532
831.563
222.261
213.143
182.492
144.787
61.1287
20.3809
5.35491
7.09733
10.6151
6.43907
2.88432
3.54241
10.1899
14.4534
17.6552
20.8933
29.175
54.9112
99.54
148.158
193.476
236.136
252.218
760.769
203.373
199.007
154.055
113.46
65.3809
31.9036
17.0728
10.8356
11.9105
11.1177
6.23199
2.8717
3.76516
10.2417
16.5702
21.9296
29.9367
61.5027
114.726
175.929
202.019
157.92
768.804
397.518
183.413
177.114
142.891
98.3616
54.3325
30.364
19.7343
12.4778
12.9208
14.4726
13.4804
9.27247
7.18276
8.90187
15.3979
22.751
35.3593
65.6407
120.655
187.462
225.563
205.181
1017.21
218.857
221.444
177.543
140.062
81.8648
38.6147
24.6696
15.1852
6.35745
3.97813
7.54827
12.9053
14.6549
13.2657
12.9416
16.8925
24.665
38.0271
85.1641
137.959
174.728
199.923
240.011
796.669
160.903
168.071
153.157
135.995
76.5918
34.6513
22.593
14.4518
7.95968
3.1071
2.33077
5.41213
12.1622
15.4304
17.1762
19.6995
27.8827
46.9579
93.4623
140.13
185.403
209.784
411.633
384.917
173.409
171.356
152.283
101.338
63.0492
32.1746
19.9984
10.9833
6.40451
4.43361
2.76179
2.16965
4.06983
9.99174
17.7384
22.4691
31.7305
60.279
108.892
170.169
191.833
153.713
743.936
268.689
155.467
150.73
125.754
83.2869
36.902
24.1183
15.8546
7.43607
3.24686
2.20712
2.40952
3.09264
2.33764
2.29503
7.86183
22.5487
31.2257
67.3233
112.133
171.008
217.049
209.253
1026.2
226.631
216.15
168.437
133.402
74.7571
31.9468
21.1742
14.8437
8.57343
3.23469
1.8265
1.64811
2.13531
3.21094
3.29229
4.62639
15.3634
38.72
73.3991
132.54
184.418
189.31
220.62
957.063
160.859
162.759
155.975
114.453
63.5938
30.898
21.0267
14.9237
11.3381
7.12133
2.91612
1.77352
1.54484
1.95512
4.06642
9.00978
16.8154
36.5636
98.3616
146.583
184.492
227.982
397.295
775.194
154.738
164.294
144.989
106.184
61.4889
28.6729
23.2801
17.2359
13.683
11.2337
7.70089
4.16104
2.58221
1.42028
1.99782
7.15932
22.8351
46.0913
106.441
173.008
210.177
160.807
784.795
710.123
181.37
176.173
147.2
97.6192
55.0885
26.8717
22.3586
19.504
17.0606
14.4922
11.3824
7.94347
5.00945
2.78116
1.96572
3.80933
16.7682
59.1917
111.716
179.22
184.833
217.248
272.664
157.564
154.498
135.751
92.6896
49.1611
24.0314
20.0621
16.378
16.2507
15.2116
12.1449
7.32867
4.14574
3.10767
2.98767
4.68339
15.3653
58.3337
126.565
186.078
195.313
270.95
262.962
153.761
152.865
130.594
78.8575
39.364
23.8618
18.4889
14.576
12.9624
14.3583
14.5743
9.84627
4.17215
1.92779
2.39276
6.58812
20.7836
62.1255
137.118
193.545
216.273
698.874
229.574
216.079
167.451
121.593
70.5471
33.234
22.2248
17.1284
12.8954
9.78303
10.0694
12.609
13.0239
9.67973
5.61298
4.01316
6.89087
22.7125
71.0082
134.766
199.071
247.561
736.071
226.141
176.517
154.389
109.604
61.6146
27.5725
21.4085
16.4119
11.9391
6.6997
3.32347
4.25999
10.1748
12.5844
11.7225
10.9245
13.5952
27.1724
72.5719
142.946
173.409
204.635
867.791
214.929
174.343
151.643
106.367
59.5858
27.9367
20.848
18.2838
14.862
10.6316
5.92554
2.80547
3.81975
9.85005
14.6884
16.2094
20.1965
34.2186
80.1951
149.78
181.64
171.694
971.872
932.112
168.53
168.275
153.132
108.924
62.381
27.9171
20.6496
16.9207
16.3623
14.6126
11.9243
8.99626
7.01981
7.91867
12.4544
17.3976
23.9883
38.0644
92.4915
135.4
188.843
206.2
743.414
191.37
201.32
156.226
106.228
58.9759
27.8438
19.6455
14.9468
13.878
14.065
14.0329
13.6698
12.8593
11.5149
12.8954
17.8259
26.1311
51.7949
101.591
159.229
200.76
213.277
727.679
185.294
167.011
140.134
101.56
54.6762
27.1144
18.7806
13.3666
11.697
10.8661
10.8563
11.0412
12.6985
14.2629
15.2634
18.2047
25.8327
53.0985
110.939
174.809
172.714
218.089
385.355
170.905
163.204
133.077
85.3838
47.8171
21.0672
11.1016
10.4334
9.61261
7.92334
5.29773
4.52012
5.69585
10.7162
15.0223
18.9972
27.6251
54.0453
110.251
175.56
195.718
272.235
267.541
152.09
155.261
143.417
81.1568
45.2614
19.8778
5.67683
3.12679
3.99062
4.30861
3.60395
1.76593
1.29555
2.88671
10.7046
18.5925
27.6818
61.9673
113.699
184.324
203.321
665.477
271.381
156.074
152.883
121.608
74.1899
43.3102
22.4596
10.7388
3.62697
1.86734
1.2426
1.25504
1.37719
1.37179
1.88293
5.22832
18.1259
31.3569
66.3581
109.647
170.974
210.809
700
236.929
163.28
151.803
118.8
64.5607
31.2743
21.5065
14.7633
9.10702
4.58416
2.17049
0.946288
0.883607
1.04911
2.8029
6.61529
14.0898
32.1466
74.0185
132.737
166.589
204.614
729.004
221.012
180.18
156.697
121.071
64.148
26.9004
19.5776
14.7901
11.9457
8.77876
4.61794
1.58042
0.869757
0.913114
1.82346
6.52812
17.2098
32.9659
80.7018
151.584
170.943
152.807
797.952
232.088
184.153
153.765
109.086
55.1279
24.2851
18.1955
14.3182
11.5151
9.26462
7.24149
4.00891
1.51565
1.00208
1.64616
5.95922
16.8297
33.5491
85.2967
135.495
185.425
203.799
989.995
221.921
195.021
153.217
105.271
55.6394
24.301
18.4576
14.0518
10.9887
6.9471
4.27669
3.81425
3.14165
2.19622
2.48795
5.89175
17.6228
34.2447
93.435
152.656
186.794
214.138
928.346
168.905
173.724
159.442
84.147
52.4754
23.5851
19.7524
15.9058
12.8818
8.88281
3.71657
1.49739
1.955
4.37365
6.53921
9.8902
21.1912
45.5159
92.5675
155.88
191.73
217.328
740.764
212.067
180.71
65.7374
21.5662
9.44965
18.5841
17.1847
16.2448
14.8055
11.9742
7.62406
2.8879
1.23431
2.8621
9.40912
16.1836
23.9151
54.2904
102.684
154.259
190.227
224.436
741.795
203.219
180.899
96.3676
9.62347
2.14406
3.86034
12.9349
16.1133
14.9778
11.2921
8.12476
5.22922
2.88205
2.13342
6.65338
19.7345
32.4272
59.9482
118.765
176.65
200.956
212.499
396.911
181.734
173.693
139.937
50.1878
7.62566
4.2194
8.66816
14.2926
14.9341
11.1816
5.34802
2.46452
2.44898
4.06876
6.60905
16.156
34.5622
76.8562
125.041
178.221
208.987
239.232
260.404
160.455
160.295
130.544