/*--------------------------------*- C++ -*----------------------------------*\
| =========                 |                                                 |
| \\      /  F ield         | OpenFOAM: The Open Source CFD Toolbox           |
|  \\    /   O peration     | Version:  2312                                  |
|   \\  /    A nd           | Website:  www.openfoam.com                      |
|    \\/     M anipulation  |                                                 |
\*---------------------------------------------------------------------------*/
FoamFile
{
    version     2.0;
    format      ascii;
    arch        "LSB;label=64;scalar=64";
    class       volScalarField;
    location    "30";
    object      p;
}
// * * * * * * * * * * * * * * * * * * * * * * * * * * * * * * * * * * * * * //

dimensions      [0 2 -2 0 0 0 0];

internalField   nonuniform List<scalar> 
404911
(
-1.08281
-1.07977
-1.07809
-1.07499
-1.08818
-1.08157
-1.07841
-1.07687
-1.07589
-1.07541
-1.11041
-1.1106
-1.10699
-1.09639
-1.08712
-1.08109
-1.11507
-1.11315
-1.1121
-1.10828
-1.1243
-1.11903
-1.11699
-1.13143
-1.12879
-1.12711
-1.1364
-1.13191
-1.12897
-1.14966
-1.14569
-1.14022
-1.13411
-1.12956
-1.15989
-1.1514
-1.14728
-1.17665
-1.17336
-1.16954
-1.16659
-1.18681
-1.18285
-1.17692
-1.17303
-1.1703
-1.19126
-1.1873
-1.18241
-1.17692
-1.19879
-1.19676
-1.19191
-1.18783
-1.1996
-1.19863
-1.20916
-1.08348
-1.09057
-1.08462
-1.10797
-1.10632
-1.11615
-1.11361
-1.11209
-1.12441
-1.11966
-1.11712
-1.13086
-1.12849
-1.13726
-1.13307
-1.12925
-1.14595
-1.14116
-1.13664
-1.13286
-1.15906
-1.15248
-1.17137
-1.16734
-1.18164
-1.17718
-1.17135
-1.19215
-1.18725
-1.19902
-1.19703
-1.19373
-1.20153
-1.20057
-1.21199
-1.21549
-1.21275
-1.22692
-1.22301
-1.21871
-1.23316
-1.2301
-1.2259
-1.23906
-1.23507
-1.23359
-1.23903
-0.49425
-0.491194
-0.485114
-0.521708
-0.513739
-0.507048
-0.50165
-0.497989
-0.493071
-0.490691
-0.480348
-0.538215
-0.533536
-0.520233
-0.512234
-0.50568
-0.500563
-0.496157
-0.490975
-0.468452
-0.557184
-0.551033
-0.546053
-0.540423
-0.535913
-0.531677
-0.523694
-0.516216
-0.510871
-0.502494
-0.49811
-0.493115
-0.484628
-0.476673
-0.470979
-0.46214
-0.573697
-0.566835
-0.560752
-0.553682
-0.547824
-0.542486
-0.537135
-0.532628
-0.527021
-0.521449
-0.515462
-0.507731
-0.501014
-0.496566
-0.472605
-0.591799
-0.583719
-0.576272
-0.569786
-0.563658
-0.556727
-0.550221
-0.544706
-0.539046
-0.533526
-0.528811
-0.524691
-0.520071
-0.513596
-0.507748
-0.604785
-0.596614
-0.58927
-0.581296
-0.574036
-0.567321
-0.559486
-0.55289
-0.547296
-0.541225
-0.535978
-0.530619
-0.526265
-0.522392
-0.516189
-0.510521
-0.623896
-0.617528
-0.610412
-0.601567
-0.594769
-0.586592
-0.577454
-0.571249
-0.562375
-0.555008
-0.549855
-0.544666
-0.539152
-0.533891
-0.529423
-0.524556
-0.518542
-0.650003
-0.642237
-0.636991
-0.630008
-0.623181
-0.614725
-0.605892
-0.597917
-0.590119
-0.581989
-0.574336
-0.565002
-0.557882
-0.552572
-0.547863
-0.542939
-0.538121
-0.531594
-0.662894
-0.654232
-0.64771
-0.642127
-0.636344
-0.629809
-0.621026
-0.611218
-0.603275
-0.594911
-0.587609
-0.577952
-0.567591
-0.56132
-0.555911
-0.551215
-0.546586
-0.541622
-0.680634
-0.675361
-0.670107
-0.659665
-0.652963
-0.646519
-0.640436
-0.633804
-0.626479
-0.617066
-0.607281
-0.599959
-0.592095
-0.583875
-0.57369
-0.565366
-0.559761
-0.555191
-0.693829
-0.684229
-0.677865
-0.672285
-0.664729
-0.656936
-0.650767
-0.644408
-0.637259
-0.62914
-0.621014
-0.612502
-0.604652
-0.596029
-0.58902
-0.579461
-0.570541
-0.711843
-0.704563
-0.696914
-0.690423
-0.68343
-0.676836
-0.669732
-0.662916
-0.655442
-0.648662
-0.641935
-0.633
-0.624623
-0.6162
-0.608713
-0.601751
-0.594313
-0.72592
-0.720682
-0.715201
-0.709284
-0.702259
-0.695083
-0.688189
-0.681223
-0.674364
-0.668217
-0.662202
-0.652812
-0.646268
-0.637565
-0.627554
-0.620928
-0.613808
-0.606003
-0.741132
-0.735302
-0.729857
-0.723945
-0.718458
-0.714538
-0.707009
-0.699961
-0.693311
-0.686019
-0.678921
-0.672149
-0.665607
-0.657651
-0.649799
-0.641325
-0.632663
-0.624894
-0.755244
-0.749356
-0.74461
-0.738154
-0.733021
-0.727212
-0.721894
-0.71742
-0.710869
-0.703969
-0.697515
-0.690503
-0.685919
-0.676731
-0.668662
-0.661196
-0.653924
-0.64522
-0.765701
-0.758783
-0.752025
-0.747549
-0.741854
-0.734927
-0.730081
-0.725098
-0.720516
-0.715392
-0.706423
-0.700341
-0.694515
-0.688992
-0.680081
-0.672589
-0.663859
-0.658031
-0.779948
-0.773996
-0.768443
-0.762553
-0.755895
-0.750135
-0.744607
-0.73949
-0.733529
-0.728903
-0.723284
-0.718648
-0.71112
-0.704675
-0.697359
-0.692181
-0.684532
-0.677036
-0.788676
-0.782509
-0.778592
-0.772992
-0.766905
-0.759496
-0.753771
-0.746941
-0.741681
-0.737396
-0.732689
-0.727528
-0.721375
-0.714729
-0.709263
-0.700582
-0.695402
-0.688613
-0.802791
-0.798035
-0.793997
-0.789263
-0.782781
-0.778565
-0.771895
-0.764267
-0.756725
-0.749243
-0.743664
-0.739562
-0.735643
-0.729811
-0.724372
-0.717129
-0.711262
-0.704187
-0.810758
-0.805666
-0.801022
-0.797244
-0.793507
-0.788001
-0.782201
-0.775617
-0.768694
-0.760684
-0.753759
-0.746396
-0.741664
-0.738187
-0.732799
-0.728058
-0.723126
-0.821916
-0.818241
-0.813687
-0.808837
-0.804928
-0.800671
-0.797021
-0.7931
-0.787027
-0.780556
-0.77361
-0.765115
-0.757826
-0.750503
-0.744853
-0.740943
-0.735656
-0.731063
-0.829423
-0.824768
-0.821036
-0.817182
-0.812953
-0.809056
-0.804223
-0.800449
-0.796845
-0.792072
-0.784837
-0.778206
-0.769883
-0.762948
-0.755074
-0.749565
-0.744841
-0.739856
-0.83592
-0.83164
-0.827899
-0.824139
-0.819915
-0.816016
-0.812009
-0.80763
-0.803704
-0.800674
-0.796361
-0.790436
-0.782959
-0.774844
-0.76762
-0.759587
-0.754214
-0.74813
-0.84755
-0.843556
-0.839441
-0.835241
-0.831037
-0.827511
-0.823611
-0.819012
-0.814298
-0.810364
-0.806586
-0.802237
-0.79886
-0.793607
-0.785749
-0.779517
-0.772131
-0.766216
-0.857099
-0.853415
-0.849436
-0.846235
-0.842853
-0.838814
-0.834307
-0.83033
-0.826555
-0.822042
-0.818649
-0.814418
-0.809186
-0.804104
-0.800694
-0.795841
-0.788547
-0.785037
-0.863875
-0.859281
-0.855949
-0.851958
-0.848965
-0.845442
-0.841627
-0.83727
-0.832575
-0.827379
-0.824237
-0.821589
-0.817438
-0.811932
-0.806649
-0.803287
-0.797541
-0.792304
-0.872248
-0.869125
-0.865222
-0.861599
-0.857939
-0.854316
-0.850917
-0.847451
-0.844009
-0.840051
-0.835527
-0.831542
-0.827455
-0.823404
-0.819638
-0.815681
-0.81091
-0.805892
-0.878037
-0.874709
-0.871658
-0.867795
-0.864339
-0.860307
-0.856485
-0.852964
-0.849623
-0.84637
-0.842667
-0.83889
-0.835569
-0.831682
-0.827204
-0.822486
-0.818375
-0.814362
-0.882679
-0.880959
-0.877289
-0.873865
-0.870481
-0.866755
-0.863098
-0.858935
-0.855122
-0.851855
-0.8488
-0.845582
-0.841874
-0.838394
-0.834139
-0.830087
-0.825327
-0.820464
-0.88848
-0.884862
-0.882683
-0.880251
-0.876258
-0.873025
-0.86924
-0.866166
-0.861675
-0.85762
-0.854167
-0.85119
-0.847994
-0.844317
-0.840332
-0.836472
-0.832069
-0.827331
-0.898281
-0.894707
-0.890518
-0.886452
-0.884499
-0.881759
-0.879043
-0.876132
-0.872553
-0.868409
-0.864159
-0.860583
-0.856876
-0.853826
-0.850683
-0.847098
-0.842921
-0.838011
-0.90539
-0.901588
-0.897539
-0.893776
-0.890148
-0.887332
-0.88409
-0.88139
-0.878394
-0.875274
-0.87169
-0.867571
-0.863744
-0.860005
-0.856416
-0.853217
-0.849386
-0.84571
-0.912198
-0.908779
-0.905256
-0.900979
-0.897038
-0.893536
-0.889855
-0.886515
-0.883666
-0.881133
-0.878493
-0.874713
-0.87082
-0.866901
-0.863268
-0.85956
-0.855205
-0.851293
-0.918101
-0.914866
-0.911039
-0.908548
-0.904497
-0.900407
-0.896562
-0.893093
-0.889184
-0.886085
-0.883275
-0.880563
-0.877413
-0.87355
-0.870053
-0.866425
-0.862878
-0.926809
-0.924892
-0.921402
-0.917395
-0.913912
-0.910838
-0.907586
-0.904066
-0.899539
-0.895155
-0.891552
-0.888386
-0.885431
-0.882758
-0.88004
-0.876341
-0.872543
-0.867852
-0.934351
-0.93053
-0.927472
-0.924668
-0.921145
-0.916872
-0.913387
-0.910417
-0.90698
-0.903352
-0.896774
-0.89457
-0.891084
-0.88821
-0.885256
-0.882156
-0.879121
-0.875821
-0.938582
-0.936169
-0.933312
-0.930868
-0.927803
-0.924151
-0.920207
-0.916391
-0.912854
-0.910146
-0.906906
-0.902327
-0.897929
-0.894017
-0.891248
-0.888378
-0.884118
-0.880568
-0.947467
-0.944944
-0.941482
-0.938933
-0.936381
-0.933663
-0.930792
-0.927657
-0.924014
-0.919595
-0.915494
-0.912399
-0.909071
-0.905045
-0.90113
-0.897506
-0.894871
-0.891497
-0.953722
-0.950571
-0.947099
-0.943927
-0.941412
-0.939018
-0.93645
-0.933466
-0.93001
-0.926285
-0.922473
-0.918278
-0.915021
-0.912089
-0.908289
-0.904876
-0.901286
-0.89702
-0.959256
-0.956383
-0.952871
-0.949207
-0.946115
-0.943277
-0.940861
-0.938522
-0.935955
-0.93274
-0.930913
-0.925015
-0.921703
-0.918051
-0.914712
-0.91111
-0.907651
-0.904157
-0.966283
-0.96267
-0.959038
-0.955291
-0.951657
-0.948324
-0.945266
-0.942642
-0.940341
-0.937665
-0.934698
-0.932445
-0.927801
-0.92444
-0.921125
-0.918059
-0.913801
-0.910371
-0.972
-0.969068
-0.965975
-0.962131
-0.958429
-0.954879
-0.951227
-0.947951
-0.945132
-0.942514
-0.939269
-0.936246
-0.934076
-0.930266
-0.927221
-0.92421
-0.921159
-0.981566
-0.977987
-0.975006
-0.971977
-0.969191
-0.965397
-0.961835
-0.958165
-0.954278
-0.950933
-0.948269
-0.945806
-0.942347
-0.939835
-0.936278
-0.933633
-0.930072
-0.926969
-0.987225
-0.984138
-0.980524
-0.977898
-0.974878
-0.972102
-0.968506
-0.96469
-0.961007
-0.95713
-0.954198
-0.951637
-0.948965
-0.945484
-0.942135
-0.938996
-0.936627
-0.933155
-0.992968
-0.989943
-0.986509
-0.982959
-0.980057
-0.977163
-0.974642
-0.971462
-0.967885
-0.964615
-0.960015
-0.957215
-0.954667
-0.951806
-0.948704
-0.945273
-0.942122
-0.9391
-0.99916
-0.995943
-0.992399
-0.988936
-0.985744
-0.982419
-0.979425
-0.97702
-0.973855
-0.971282
-0.967578
-0.963682
-0.960223
-0.957513
-0.954608
-0.951098
-0.947824
-0.944778
-1.00552
-1.00219
-0.998728
-0.995281
-0.992023
-0.988812
-0.985303
-0.982025
-0.979325
-0.976533
-0.973995
-0.970681
-0.967164
-0.96371
-0.960491
-0.95749
-0.953922
-0.949294
-1.01192
-1.00886
-1.00504
-1.00145
-0.998477
-0.995426
-0.992133
-0.988681
-0.985046
-0.981854
-0.978763
-0.975971
-0.973218
-0.969725
-0.966505
-0.963426
-0.960365
-0.957033
-1.0183
-1.01572
-1.01176
-1.00788
-1.00451
-1.00162
-0.998687
-0.995367
-0.991857
-0.988197
-0.984535
-0.981385
-0.978407
-0.975743
-0.972748
-0.969399
-0.966092
-0.963228
-1.02469
-1.02146
-1.01802
-1.01444
-1.01117
-1.00713
-1.00423
-1.00143
-0.998143
-0.994717
-0.991311
-0.987616
-0.984478
-0.981428
-0.978449
-0.975577
-0.97242
-0.968778
-1.0333
-1.02995
-1.02804
-1.02481
-1.02163
-1.01809
-1.01384
-1.00921
-1.00665
-1.00429
-1.00179
-0.998554
-0.995639
-0.990938
-0.987822
-0.984579
-0.981241
-0.977896
-0.97547
-1.0402
-1.03622
-1.03298
-1.03055
-1.0281
-1.02499
-1.02128
-1.0173
-1.01384
-1.01112
-1.00759
-1.00435
-1.00118
-0.997329
-0.993825
-0.990518
-0.987893
-0.984641
-1.04249
-1.03958
-1.03638
-1.03377
-1.03062
-1.02773
-1.02469
-1.02213
-1.01669
-1.01341
-1.01117
-1.00718
-1.00471
-1.00119
-0.997633
-0.994388
-0.991024
-1.05199
-1.04921
-1.04576
-1.04261
-1.03955
-1.0366
-1.03329
-1.02999
-1.02728
-1.02378
-1.01929
-1.01653
-1.01324
-1.00984
-1.00696
-1.004
-1.00064
-0.997519
-1.05684
-1.0544
-1.05159
-1.04872
-1.046
-1.04297
-1.03984
-1.03604
-1.03241
-1.02966
-1.02615
-1.02181
-1.01927
-1.01556
-1.01245
-1.00972
-1.00662
-1.00252
-1.06502
-1.06046
-1.05709
-1.05407
-1.05141
-1.04872
-1.04582
-1.0427
-1.03859
-1.03482
-1.03194
-1.02898
-1.02505
-1.02247
-1.01883
-1.01568
-1.01281
-1.00961
-1.06635
-1.06386
-1.06014
-1.05674
-1.05373
-1.05107
-1.04849
-1.04587
-1.04199
-1.0389
-1.03408
-1.03147
-1.02854
-1.0254
-1.02194
-1.0187
-1.01516
-1.07363
-1.06967
-1.06595
-1.0628
-1.05967
-1.05654
-1.05368
-1.05107
-1.04867
-1.04408
-1.04091
-1.03692
-1.03368
-1.0309
-1.02787
-1.02441
-1.02141
-1.08183
-1.07757
-1.07539
-1.07223
-1.06796
-1.06506
-1.06241
-1.05968
-1.05627
-1.05343
-1.05074
-1.047
-1.04337
-1.03979
-1.03652
-1.03357
-1.03001
-1.02741
-1.08538
-1.08247
-1.07969
-1.07738
-1.07442
-1.07074
-1.0676
-1.06504
-1.06235
-1.0592
-1.05665
-1.05339
-1.05017
-1.04674
-1.0432
-1.03989
-1.03646
-1.09261
-1.08861
-1.08465
-1.08175
-1.07942
-1.07672
-1.07384
-1.07018
-1.06822
-1.06596
-1.06267
-1.05969
-1.05611
-1.05295
-1.05004
-1.04574
-1.0436
-1.10353
-1.10012
-1.09517
-1.09158
-1.08745
-1.08416
-1.08185
-1.07926
-1.07502
-1.0728
-1.07092
-1.06861
-1.0662
-1.06332
-1.05965
-1.05607
-1.05277
-1.04906
-1.10976
-1.10606
-1.1032
-1.09892
-1.09449
-1.08951
-1.0858
-1.08289
-1.08115
-1.07704
-1.07596
-1.07412
-1.07057
-1.06904
-1.06631
-1.06303
-1.05945
-1.05581
-1.11541
-1.1122
-1.1086
-1.10572
-1.10201
-1.09674
-1.09068
-1.0864
-1.08366
-1.0829
-1.08115
-1.07865
-1.07612
-1.07389
-1.07182
-1.06923
-1.06574
-1.06246
-1.12299
-1.11928
-1.11501
-1.11207
-1.10851
-1.10473
-1.09913
-1.09339
-1.0887
-1.08551
-1.08569
-1.08339
-1.08055
-1.078
-1.07591
-1.07387
-1.07078
-1.06795
-1.13192
-1.12811
-1.12431
-1.12201
-1.11786
-1.11424
-1.11053
-1.10733
-1.10344
-1.09802
-1.09373
-1.09126
-1.08917
-1.08651
-1.08397
-1.08087
-1.07816
-1.07597
-1.07258
-1.13924
-1.135
-1.13109
-1.1273
-1.12412
-1.12083
-1.11681
-1.11406
-1.11089
-1.10735
-1.10263
-1.09952
-1.0969
-1.09414
-1.09064
-1.0873
-1.08361
-1.08094
-1.07862
-1.14239
-1.13847
-1.13502
-1.13121
-1.12756
-1.12384
-1.11983
-1.11727
-1.11407
-1.11035
-1.1061
-1.10307
-1.10021
-1.09723
-1.09374
-1.09044
-1.08628
-1.08323
-1.15146
-1.14648
-1.14226
-1.13832
-1.1344
-1.13031
-1.12703
-1.12361
-1.12091
-1.11686
-1.11433
-1.10947
-1.10638
-1.1035
-1.1003
-1.09721
-1.09396
-1.16175
-1.15628
-1.15105
-1.1464
-1.14152
-1.13794
-1.13433
-1.12941
-1.12659
-1.12392
-1.1196
-1.11656
-1.11299
-1.10977
-1.10674
-1.10331
-1.0989
-1.17258
-1.16595
-1.16158
-1.15661
-1.15172
-1.14669
-1.14249
-1.1382
-1.13379
-1.13024
-1.12726
-1.12295
-1.11965
-1.11612
-1.11316
-1.11032
-1.1072
-1.1894
-1.1851
-1.17871
-1.17293
-1.16823
-1.16276
-1.15817
-1.15232
-1.14652
-1.14239
-1.13834
-1.13489
-1.1305
-1.12637
-1.12306
-1.11981
-1.11652
-1.11277
-1.197
-1.19376
-1.1899
-1.18453
-1.17937
-1.17453
-1.16865
-1.16417
-1.15856
-1.15217
-1.14758
-1.1434
-1.13922
-1.13549
-1.13118
-1.12762
-1.12394
-1.20299
-1.20013
-1.19715
-1.19337
-1.19004
-1.18515
-1.181
-1.17465
-1.16932
-1.16331
-1.15691
-1.15178
-1.14784
-1.14407
-1.13958
-1.13533
-1.1315
-1.20982
-1.2064
-1.20321
-1.20029
-1.19766
-1.19515
-1.19094
-1.18605
-1.18101
-1.17407
-1.16765
-1.16158
-1.15648
-1.15182
-1.14759
-1.14215
-1.13975
-1.21574
-1.21252
-1.20927
-1.20664
-1.20406
-1.20157
-1.19887
-1.19512
-1.19128
-1.18422
-1.1781
-1.17175
-1.16606
-1.16131
-1.15626
-1.15163
-1.14691
-1.22358
-1.21872
-1.21495
-1.21215
-1.20957
-1.20748
-1.2047
-1.20258
-1.19898
-1.19318
-1.18759
-1.18192
-1.176
-1.17031
-1.16527
-1.16044
-1.15555
-1.2305
-1.22795
-1.22247
-1.21809
-1.21516
-1.21134
-1.20921
-1.20671
-1.20365
-1.20046
-1.1953
-1.19027
-1.18513
-1.17995
-1.17438
-1.16917
-1.16437
-1.23619
-1.23251
-1.22725
-1.22276
-1.21881
-1.2153
-1.21203
-1.20897
-1.20573
-1.20181
-1.19706
-1.19309
-1.18865
-1.18432
-1.17792
-1.17279
-1.24795
-1.24171
-1.23587
-1.22993
-1.22552
-1.22183
-1.21837
-1.21518
-1.21177
-1.20889
-1.20426
-1.1999
-1.19584
-1.19203
-1.18765
-1.26473
-1.25967
-1.25201
-1.24666
-1.24004
-1.2331
-1.22907
-1.22564
-1.22231
-1.21798
-1.21432
-1.21141
-1.20783
-1.20368
-1.19843
-1.19548
-1.2749
-1.26933
-1.26293
-1.25622
-1.25121
-1.24431
-1.23673
-1.23312
-1.22811
-1.22436
-1.22111
-1.21713
-1.21431
-1.21098
-1.20703
-1.2028
-1.28735
-1.28093
-1.27463
-1.26815
-1.2624
-1.25676
-1.25099
-1.24301
-1.23772
-1.23344
-1.2297
-1.22627
-1.2219
-1.21757
-1.21403
-1.21053
-1.30582
-1.2979
-1.29275
-1.287
-1.27888
-1.27381
-1.26766
-1.26116
-1.25535
-1.24874
-1.24239
-1.23779
-1.23266
-1.23017
-1.2264
-1.22114
-1.31846
-1.31257
-1.30492
-1.29786
-1.29258
-1.28486
-1.27907
-1.27359
-1.26818
-1.26205
-1.2575
-1.25096
-1.24433
-1.23841
-1.23493
-1.23212
-1.33116
-1.32358
-1.31673
-1.31166
-1.30469
-1.2994
-1.29132
-1.28419
-1.27897
-1.27359
-1.26782
-1.26231
-1.25669
-1.25191
-1.24445
-1.23957
-1.34413
-1.33755
-1.32947
-1.32119
-1.3153
-1.31014
-1.30351
-1.29634
-1.28974
-1.28444
-1.27906
-1.27423
-1.26973
-1.26309
-1.25884
-1.25145
-1.3578
-1.35163
-1.34363
-1.33633
-1.32815
-1.32071
-1.31631
-1.31024
-1.30328
-1.29469
-1.28997
-1.28414
-1.28022
-1.27548
-1.26986
-1.26506
-1.37095
-1.36386
-1.35646
-1.34824
-1.34107
-1.33302
-1.32658
-1.32146
-1.31563
-1.3097
-1.30205
-1.2951
-1.28967
-1.28502
-1.2812
-1.3834
-1.37905
-1.36983
-1.362
-1.35542
-1.34699
-1.33958
-1.33278
-1.32702
-1.32073
-1.31495
-1.30896
-1.29991
-1.29539
-1.28929
-1.28533
-1.39391
-1.38853
-1.38355
-1.37553
-1.36745
-1.35999
-1.35243
-1.3458
-1.33861
-1.33243
-1.32565
-1.31887
-1.31349
-1.30566
-1.30021
-1.29484
-1.40683
-1.39922
-1.39299
-1.38759
-1.38023
-1.37227
-1.36427
-1.35681
-1.35105
-1.34431
-1.33774
-1.33135
-1.32637
-1.31825
-1.31101
-1.41253
-1.40573
-1.39969
-1.39278
-1.38424
-1.37799
-1.3694
-1.36228
-1.35578
-1.34914
-1.34351
-1.33647
-1.33079
-1.32389
-1.42348
-1.41954
-1.41255
-1.40522
-1.3974
-1.38958
-1.3835
-1.37458
-1.36821
-1.36084
-1.35544
-1.34832
-1.34176
-1.44263
-1.43702
-1.43049
-1.42391
-1.41805
-1.41067
-1.40351
-1.39554
-1.38778
-1.38024
-1.37329
-1.36665
-1.35948
-1.35176
-1.45612
-1.44846
-1.44184
-1.43593
-1.42888
-1.4232
-1.41516
-1.4095
-1.40128
-1.39346
-1.3865
-1.37934
-1.37299
-1.36606
-1.4706
-1.46275
-1.45525
-1.44783
-1.44129
-1.43523
-1.4284
-1.4213
-1.41386
-1.40597
-1.39852
-1.38996
-1.38474
-1.37757
-1.48432
-1.47897
-1.4712
-1.46197
-1.45226
-1.44621
-1.44064
-1.43392
-1.42668
-1.41959
-1.41143
-1.40375
-1.39682
-1.38964
-1.49356
-1.48698
-1.48382
-1.47683
-1.4681
-1.45665
-1.45108
-1.44457
-1.4389
-1.43154
-1.42425
-1.41826
-1.40951
-1.40272
-1.50529
-1.49961
-1.48961
-1.48792
-1.48184
-1.47525
-1.46559
-1.45718
-1.45046
-1.44287
-1.43607
-1.42891
-1.42327
-1.49138
-1.48751
-1.47953
-1.47131
-1.46365
-1.457
-1.4494
-1.44174
-1.43243
-1.49354
-1.49155
-1.48288
-1.47595
-1.46594
-1.46352
-1.4548
-1.44663
-1.50777
-1.49785
-1.49383
-1.4876
-1.47977
-1.47083
-1.46731
-1.52263
-1.51216
-1.50558
-1.49835
-1.49314
-1.48647
-1.47784
-1.5172
-1.51035
-1.50398
-1.49726
-1.49309
-1.5419
-1.53127
-1.52162
-1.51633
-1.50853
-1.50225
-1.58287
-1.57757
-1.5561
-1.54977
-1.52225
-1.58514
-1.5797
-1.57623
-1.57149
-1.56617
-1.54113
-1.60517
-1.57427
-1.57009
-1.56538
-1.55829
-1.61293
-1.59929
-1.57909
-0.138079
-0.132846
-0.125845
-0.181332
-0.176636
-0.16589
-0.15963
-0.154043
-0.145138
-0.136778
-0.128525
-0.092646
-0.218087
-0.213863
-0.203677
-0.195865
-0.187903
-0.1782
-0.16932
-0.161745
-0.155653
-0.147723
-0.138873
-0.129305
-0.117736
-0.107391
-0.0986096
-0.247536
-0.242038
-0.230697
-0.223143
-0.215214
-0.207775
-0.199087
-0.189632
-0.181097
-0.173106
-0.164776
-0.156858
-0.149345
-0.140269
-0.129708
-0.117893
-0.107977
-0.101055
-0.0880856
-0.0706042
-0.0543936
-0.0342608
-0.282011
-0.27514
-0.262656
-0.253184
-0.242773
-0.233318
-0.225863
-0.218893
-0.21183
-0.202617
-0.192652
-0.184067
-0.176881
-0.169672
-0.160098
-0.150394
-0.141142
-0.129933
-0.118976
-0.10898
-0.101644
-0.0922889
-0.0752128
-0.31306
-0.303233
-0.294981
-0.287595
-0.276564
-0.266687
-0.257354
-0.246198
-0.235361
-0.228019
-0.22251
-0.216137
-0.207345
-0.196017
-0.187474
-0.179554
-0.174923
-0.162347
-0.152876
-0.141914
-0.131861
-0.121912
-0.112768
-0.103323
-0.093727
-0.335711
-0.327684
-0.317113
-0.308674
-0.299654
-0.292343
-0.280545
-0.273584
-0.264381
-0.249734
-0.238415
-0.230135
-0.225
-0.217762
-0.210176
-0.198705
-0.189887
-0.18251
-0.177861
-0.166979
-0.154421
-0.143275
-0.134434
-0.125865
-0.114745
-0.352354
-0.345009
-0.337589
-0.332479
-0.323099
-0.314143
-0.306708
-0.296608
-0.283859
-0.276242
-0.268048
-0.257781
-0.245282
-0.237515
-0.226977
-0.220959
-0.218815
-0.202146
-0.193224
-0.185951
-0.180109
-0.16995
-0.158447
-0.147475
-0.13645
-0.374949
-0.363482
-0.355638
-0.348421
-0.340754
-0.335137
-0.327261
-0.318606
-0.310555
-0.303467
-0.290021
-0.280847
-0.271475
-0.261519
-0.250678
-0.24334
-0.231217
-0.223333
-0.220239
-0.205746
-0.197555
-0.189689
-0.182718
-0.17499
-0.162619
-0.402062
-0.397392
-0.388391
-0.378676
-0.368451
-0.361073
-0.351883
-0.344645
-0.337062
-0.330367
-0.321918
-0.312239
-0.305718
-0.295667
-0.287195
-0.275938
-0.26642
-0.254546
-0.247975
-0.237293
-0.225706
-0.218477
-0.208655
-0.202133
-0.193886
-0.184521
-0.433334
-0.428785
-0.417746
-0.408715
-0.397663
-0.389967
-0.382468
-0.37189
-0.364736
-0.355972
-0.348233
-0.340115
-0.331652
-0.322846
-0.315258
-0.308033
-0.300733
-0.293437
-0.283443
-0.270968
-0.25698
-0.250156
-0.240589
-0.229968
-0.222779
-0.211216
-0.207109
-0.446348
-0.439528
-0.4307
-0.422754
-0.413449
-0.402948
-0.391986
-0.386033
-0.377718
-0.369034
-0.360541
-0.351825
-0.344065
-0.334438
-0.325215
-0.317373
-0.309991
-0.303292
-0.29686
-0.289183
-0.275399
-0.265119
-0.255043
-0.244761
-0.232041
-0.470472
-0.464525
-0.456731
-0.451592
-0.442222
-0.434698
-0.427068
-0.41858
-0.408427
-0.398956
-0.391561
-0.383807
-0.375977
-0.366215
-0.356729
-0.346774
-0.336755
-0.327824
-0.320323
-0.313133
-0.305954
-0.298241
-0.290242
-0.282597
-0.266814
-0.481617
-0.474671
-0.467466
-0.460442
-0.456038
-0.448422
-0.438721
-0.430153
-0.422664
-0.414279
-0.404755
-0.396869
-0.389591
-0.380998
-0.371935
-0.361359
-0.351096
-0.341379
-0.332205
-0.32465
-0.316898
-0.309047
-0.300733
-0.291199
-0.504964
-0.497325
-0.493449
-0.485551
-0.47938
-0.472352
-0.465396
-0.458568
-0.450946
-0.442259
-0.433628
-0.425522
-0.418663
-0.408143
-0.401097
-0.393465
-0.38601
-0.376251
-0.36561
-0.35679
-0.346731
-0.335904
-0.328083
-0.320742
-0.311588
-0.522195
-0.515051
-0.508051
-0.501508
-0.495096
-0.49001
-0.483717
-0.476653
-0.470464
-0.461445
-0.453382
-0.445051
-0.436288
-0.428092
-0.421415
-0.414187
-0.405892
-0.398615
-0.389937
-0.379315
-0.369083
-0.361638
-0.349124
-0.339047
-0.331494
-0.537534
-0.530747
-0.524335
-0.518428
-0.511999
-0.505546
-0.499108
-0.49334
-0.488169
-0.481508
-0.47383
-0.46535
-0.456206
-0.448198
-0.438134
-0.431824
-0.425587
-0.416077
-0.410111
-0.40241
-0.394238
-0.383811
-0.372565
-0.365863
-0.353096
-0.558778
-0.55454
-0.546341
-0.54014
-0.534197
-0.527888
-0.521863
-0.514623
-0.509151
-0.502974
-0.497605
-0.492673
-0.486666
-0.478394
-0.469799
-0.461501
-0.45261
-0.444065
-0.435945
-0.429458
-0.417758
-0.412818
-0.406598
-0.39835
-0.388747
-0.377743
-0.575102
-0.569761
-0.56119
-0.555249
-0.548876
-0.542892
-0.537378
-0.531894
-0.525697
-0.518879
-0.512914
-0.506984
-0.501393
-0.495788
-0.489139
-0.4816
-0.474395
-0.4666
-0.458019
-0.449819
-0.442218
-0.435916
-0.425538
-0.417302
-0.409138
-0.400915
-0.591965
-0.585557
-0.579164
-0.57165
-0.564275
-0.557529
-0.551453
-0.545767
-0.540475
-0.534991
-0.53017
-0.523762
-0.51624
-0.510835
-0.504784
-0.498496
-0.492173
-0.484605
-0.477937
-0.469874
-0.461094
-0.454272
-0.445613
-0.437899
-0.430689
-0.419907
-0.412181
-0.612128
-0.603516
-0.596269
-0.588854
-0.582135
-0.574778
-0.567546
-0.560724
-0.55427
-0.548206
-0.542639
-0.537034
-0.532084
-0.527135
-0.521167
-0.515576
-0.508493
-0.501861
-0.495893
-0.488971
-0.480158
-0.472965
-0.465534
-0.45673
-0.449483
-0.440993
-0.434483
-0.623324
-0.615099
-0.607542
-0.600219
-0.592562
-0.584802
-0.577493
-0.570277
-0.563598
-0.557296
-0.550728
-0.544705
-0.539043
-0.53375
-0.528773
-0.524051
-0.518796
-0.511984
-0.505109
-0.498393
-0.492446
-0.485853
-0.476773
-0.469477
-0.460481
-0.451591
-0.64245
-0.63475
-0.627896
-0.619541
-0.611944
-0.604267
-0.597162
-0.588489
-0.58006
-0.572413
-0.56516
-0.558842
-0.553412
-0.547395
-0.541762
-0.5365
-0.531449
-0.526651
-0.521476
-0.515046
-0.507923
-0.501056
-0.494736
-0.489001
-0.48026
-0.471455
-0.660068
-0.652103
-0.645509
-0.638742
-0.631652
-0.623479
-0.616162
-0.609213
-0.601327
-0.593049
-0.584698
-0.575933
-0.568124
-0.560842
-0.555635
-0.550356
-0.544824
-0.539587
-0.534488
-0.529613
-0.524302
-0.517864
-0.511661
-0.50451
-0.497528
-0.490168
-0.672848
-0.66355
-0.657006
-0.649999
-0.642793
-0.636851
-0.628665
-0.620825
-0.613474
-0.605068
-0.597128
-0.588506
-0.579004
-0.570575
-0.563499
-0.558855
-0.55323
-0.548045
-0.542957
-0.537873
-0.532981
-0.527963
-0.520864
-0.515016
-0.50831
-0.690994
-0.683802
-0.676601
-0.669279
-0.661821
-0.655044
-0.6474
-0.641045
-0.634079
-0.626856
-0.618567
-0.610087
-0.601931
-0.593156
-0.58304
-0.573707
-0.566216
-0.562381
-0.556578
-0.551515
-0.5468
-0.541436
-0.536334
-0.531003
-0.524268
-0.518081
-0.70749
-0.701233
-0.694278
-0.688145
-0.68106
-0.674486
-0.668401
-0.661188
-0.65276
-0.64544
-0.63893
-0.631899
-0.623773
-0.615015
-0.606821
-0.598108
-0.590211
-0.580855
-0.572373
-0.566537
-0.560678
-0.555317
-0.550523
-0.545142
-0.540567
-0.533056
-0.722658
-0.717715
-0.71245
-0.706343
-0.699322
-0.692502
-0.685655
-0.679138
-0.67332
-0.666042
-0.65772
-0.65038
-0.643131
-0.635847
-0.628098
-0.619727
-0.611435
-0.602083
-0.595532
-0.588419
-0.580093
-0.571557
-0.565271
-0.559281
-0.554456
-0.548807
-0.542784
-0.733975
-0.727162
-0.72216
-0.716576
-0.710407
-0.704095
-0.697472
-0.690877
-0.684001
-0.6774
-0.670232
-0.66303
-0.65559
-0.647766
-0.63996
-0.632108
-0.624222
-0.615744
-0.607606
-0.600341
-0.593733
-0.585478
-0.576973
-0.570579
-0.564155
-0.557874
-0.748085
-0.74241
-0.736791
-0.731317
-0.725759
-0.720385
-0.714601
-0.707989
-0.701741
-0.695722
-0.68881
-0.682183
-0.676414
-0.669641
-0.662445
-0.652186
-0.643515
-0.635406
-0.629034
-0.620017
-0.613487
-0.605996
-0.597357
-0.590679
-0.582985
-0.575956
-0.756263
-0.751629
-0.746257
-0.740522
-0.735472
-0.729496
-0.723379
-0.718824
-0.713228
-0.707251
-0.700953
-0.693617
-0.686229
-0.681509
-0.675046
-0.665717
-0.656213
-0.647003
-0.638555
-0.632946
-0.625892
-0.618637
-0.610817
-0.602469
-0.594978
-0.771051
-0.765784
-0.760036
-0.754963
-0.749414
-0.744006
-0.739801
-0.734525
-0.725009
-0.721799
-0.717429
-0.712058
-0.705736
-0.697835
-0.690739
-0.685971
-0.680067
-0.667813
-0.658819
-0.652611
-0.644737
-0.637268
-0.629185
-0.623308
-0.614239
-0.780183
-0.775893
-0.769779
-0.763914
-0.758636
-0.752848
-0.747049
-0.742538
-0.738105
-0.728478
-0.724458
-0.720234
-0.715069
-0.708567
-0.699923
-0.694538
-0.690371
-0.682836
-0.671472
-0.662893
-0.657456
-0.649573
-0.642409
-0.634219
-0.626749
-0.794893
-0.789954
-0.784523
-0.779698
-0.773873
-0.768206
-0.762682
-0.756623
-0.750369
-0.744913
-0.740716
-0.734255
-0.729046
-0.723277
-0.717969
-0.711658
-0.702145
-0.696975
-0.692416
-0.683413
-0.676483
-0.668235
-0.661239
-0.654111
-0.64745
-0.804271
-0.798524
-0.793803
-0.788225
-0.783338
-0.778042
-0.771924
-0.765866
-0.759574
-0.753952
-0.746383
-0.741799
-0.737265
-0.732704
-0.727921
-0.722298
-0.715078
-0.706797
-0.700461
-0.694655
-0.688099
-0.681377
-0.67315
-0.664784
-0.657744
-0.815464
-0.81114
-0.806849
-0.802452
-0.797981
-0.792681
-0.786619
-0.781719
-0.77665
-0.769659
-0.761863
-0.755998
-0.748544
-0.743995
-0.739854
-0.734809
-0.729641
-0.724797
-0.718708
-0.711646
-0.705336
-0.698295
-0.691309
-0.685286
-0.67828
-0.822798
-0.819168
-0.814392
-0.809945
-0.805674
-0.802063
-0.798157
-0.792254
-0.78634
-0.781275
-0.775771
-0.767899
-0.759952
-0.751914
-0.747091
-0.742609
-0.73758
-0.732289
-0.727443
-0.721469
-0.715087
-0.709026
-0.702613
-0.693393
-0.834
-0.830349
-0.825975
-0.822011
-0.8178
-0.813447
-0.808958
-0.80519
-0.802338
-0.799993
-0.795012
-0.787181
-0.779575
-0.772464
-0.763457
-0.756189
-0.751138
-0.74607
-0.740775
-0.735793
-0.731066
-0.724987
-0.718397
-0.712122
-0.707616
-0.840909
-0.837433
-0.833079
-0.828812
-0.824939
-0.820716
-0.816528
-0.812751
-0.808838
-0.80529
-0.802688
-0.799394
-0.792946
-0.784603
-0.778487
-0.76862
-0.760973
-0.755969
-0.750331
-0.744506
-0.739674
-0.734361
-0.728922
-0.720669
-0.851445
-0.848176
-0.843819
-0.840035
-0.836045
-0.831789
-0.827893
-0.823969
-0.819971
-0.816005
-0.811919
-0.808057
-0.804628
-0.801165
-0.796945
-0.790018
-0.782987
-0.774348
-0.766948
-0.760449
-0.754353
-0.74841
-0.743317
-0.737754
-0.732873
-0.857948
-0.854712
-0.850758
-0.84669
-0.842934
-0.839204
-0.834985
-0.830917
-0.827126
-0.82295
-0.818963
-0.815152
-0.810991
-0.806861
-0.802887
-0.798243
-0.792299
-0.786165
-0.779399
-0.772222
-0.765349
-0.758525
-0.752802
-0.74765
-0.866877
-0.864002
-0.860416
-0.857103
-0.853258
-0.849401
-0.845779
-0.842141
-0.838144
-0.833977
-0.829935
-0.82564
-0.821779
-0.818255
-0.81399
-0.809562
-0.805311
-0.800466
-0.794828
-0.789131
-0.783494
-0.776672
-0.76964
-0.762599
-0.756874
-0.873148
-0.870065
-0.866461
-0.862847
-0.859397
-0.855725
-0.852048
-0.848554
-0.844888
-0.840889
-0.836751
-0.83222
-0.828108
-0.824458
-0.820936
-0.816553
-0.812229
-0.808209
-0.803242
-0.797909
-0.792632
-0.787072
-0.780343
-0.774004
-0.878424
-0.875317
-0.872299
-0.868909
-0.865386
-0.861867
-0.858117
-0.854536
-0.850919
-0.847223
-0.843438
-0.839396
-0.834808
-0.830972
-0.827402
-0.823533
-0.819461
-0.815506
-0.811404
-0.806008
-0.800822
-0.795662
-0.790582
-0.784307
-0.887039
-0.883987
-0.880805
-0.877965
-0.874989
-0.8715
-0.867928
-0.864425
-0.860674
-0.856884
-0.853215
-0.849619
-0.846005
-0.842212
-0.838081
-0.834471
-0.830699
-0.826386
-0.821856
-0.818075
-0.813913
-0.809045
-0.803893
-0.798565
-0.792925
-0.893249
-0.889386
-0.886297
-0.883312
-0.880496
-0.877418
-0.873947
-0.870542
-0.867013
-0.863322
-0.859392
-0.855599
-0.852074
-0.848603
-0.844916
-0.841122
-0.837335
-0.833383
-0.829231
-0.824969
-0.821255
-0.816706
-0.812272
-0.80666
-0.900242
-0.896054
-0.891724
-0.888625
-0.885457
-0.882705
-0.879977
-0.876511
-0.873088
-0.86957
-0.865946
-0.862039
-0.858175
-0.854591
-0.851158
-0.847592
-0.843785
-0.840076
-0.836071
-0.831867
-0.827578
-0.824019
-0.819332
-0.815072
-0.905432
-0.902214
-0.898872
-0.894958
-0.891242
-0.887777
-0.885127
-0.881926
-0.878977
-0.87574
-0.872175
-0.868628
-0.864636
-0.860991
-0.857311
-0.853833
-0.850238
-0.846419
-0.84276
-0.838962
-0.834836
-0.83067
-0.826201
-0.915082
-0.91221
-0.908684
-0.905186
-0.901896
-0.898001
-0.894287
-0.890668
-0.887617
-0.88441
-0.881376
-0.87821
-0.874735
-0.871378
-0.867552
-0.863937
-0.860234
-0.856647
-0.852872
-0.849133
-0.845599
-0.84159
-0.837926
-0.83401
-0.923029
-0.918373
-0.914966
-0.911693