/*--------------------------------*- C++ -*----------------------------------*\
| =========                 |                                                 |
| \\      /  F ield         | OpenFOAM: The Open Source CFD Toolbox           |
|  \\    /   O peration     | Version:  5.x                                   |
|   \\  /    A nd           | Web:      www.OpenFOAM.org                      |
|    \\/     M anipulation  |                                                 |
\*---------------------------------------------------------------------------*/
FoamFile
{
    version     2.0;
    format      ascii;
    class       volScalarField;
    location    "400";
    object      epsilon;
}
// * * * * * * * * * * * * * * * * * * * * * * * * * * * * * * * * * * * * * //

dimensions      [0 2 -3 0 0 0 0];

internalField   nonuniform List<scalar> 
20540
(
0.241032
0.157977
0.241032
0.25883
0.241032
0.347308
0.241032
0.418216
0.241032
0.466929
0.241032
0.489726
0.241032
0.484635
0.241032
0.452091
0.241032
0.395592
0.241032
0.322045
0.241032
0.241378
0.241032
0.164971
0.241032
0.102679
0.241032
0.0591013
0.241032
0.0326666
0.241032
0.0204318
0.241032
0.0171311
0.241032
0.0165628
0.241032
0.0164749
0.241032
0.0164607
0.241032
0.0164587
0.241032
0.0164589
0.241032
0.0164598
0.241032
0.0164609
0.241032
0.0164624
0.241032
0.0164641
0.241032
0.0164661
0.241032
0.0164682
0.241032
0.0164704
0.241032
0.0164725
0.241032
0.016474
0.241032
0.0164747
0.241032
0.0164746
0.241032
0.0164739
0.241032
0.0164725
0.241032
0.0164705
0.241032
0.0164684
0.241032
0.0164663
0.241032
0.0164643
0.241032
0.0164626
0.241032
0.0164612
0.241032
0.01646
0.241032
0.0164591
0.241032
0.0164587
0.241032
0.0164594
0.241032
0.0164662
0.241032
0.0165063
0.241032
0.0167499
0.241032
0.0182257
0.241032
0.0250058
0.241032
0.0432227
0.241032
0.0759591
0.241032
0.125888
0.241032
0.192433
0.241032
0.269219
0.241032
0.346415
0.241032
0.413861
0.241032
0.463216
0.241032
0.48897
0.241032
0.488576
0.241032
0.462072
0.241032
0.411524
0.241032
0.340549
0.241032
0.253849
0.241032
0.158313
654854
642009
597368
564773
541017
523135
509201
498009
488819
481147
474654
469095
464284
460085
456392
453128
450233
447655
445352
443287
441430
439753
438234
436853
435594
434440
433379
432400
431495
430656
429879
429158
428490
427871
427297
426765
426274
425820
425402
425017
424666
424346
424057
423799
423573
423380
423219
423095
423008
422962
422960
423004
423098
423244
423447
423712
424046
424456
424953
425549
426256
427085
428100
428897
429718
430552
431437
432373
433361
434398
435485
436621
437807
439042
440328
441667
443060
444512
446026
447612
449277
451037
452912
454944
457155
459835
463469
480549
696518
544925
482886
447904
424607
407818
395044
384927
376698
369877
364134
359237
355011
351332
348104
345258
342739
340501
338505
336718
335111
333660
332345
331149
330056
329054
328132
327282
326496
325768
325095
324472
323896
323363
322871
322417
321998
321612
321258
320934
320639
320372
320133
319921
319738
319585
319463
319375
319323
319310
319340
319416
319540
319717
319952
320252
320624
321080
321633
322295
323085
323997
325170
326139
327073
327981
328962
330008
331115
332281
333505
334787
336128
337531
338997
340530
342135
343818
345586
347451
349429
351538
353810
356280
359064
362154
366329
363264
470764
381874
337031
312185
295895
284259
275456
268508
262869
258202
254276
250932
248047
245537
243335
241394
239676
238150
236789
235571
234475
233486
232590
231775
231030
230347
229718
229138
228601
228105
227646
227220
226827
226463
226127
225817
225531
225268
225027
224806
224605
224423
224259
224115
223991
223887
223804
223744
223709
223700
223721
223773
223858
223978
224138
224341
224593
224902
225275
225721
226254
226870
227651
228289
228928
229552
230214
230918
231663
232448
233270
234131
235031
235970
236950
237973
239040
240156
241325
242554
243849
245224
246694
248283
250027
251955
253744
248740
326165
281067
247952
229373
217290
208715
202257
197177
193064
189665
186809
184378
182283
180461
178863
177455
176208
175101
174114
173230
172436
171719
171069
170478
169938
169443
168988
168567
168179
167819
167486
167177
166892
166628
166384
166158
165951
165759
165584
165423
165276
165144
165025
164919
164828
164751
164690
164644
164617
164608
164619
164653
164711
164793
164903
165044
165218
165431
165689
165997
166363
166789
167318
167741
168184
168622
169078
169561
170071
170608
171170
171757
172370
173008
173673
174365
175084
175834
176615
177431
178287
179188
180141
181160
182245
183420
184092
180442
229539
213816
189211
174835
165500
158905
153959
150082
146951
144367
142200
140357
138770
137390
136181
135116
134173
133336
132589
131921
131320
130778
130287
129840
129433
129059
128715
128398
128104
127833
127581
127348
127133
126933
126748
126578
126421
126276
126143
126020
125909
125808
125717
125636
125566
125506
125458
125421
125397
125387
125392
125413
125451
125507
125583
125681
125803
125952
126133
126349
126605
126904
127267
127551
127860
128172
128492
128828
129182
129553
129942
130347
130769
131207
131662
132134
132623
133130
133656
134201
134768
135359
135976
136626
137292
137985
138171
136018
161934
165820
147873
136552
129148
123929
120028
116982
114527
112506
110812
109374
108137
107062
106121
105292
104559
103907
103327
102807
102340
101918
101536
101189
100873
100583
100316
100069
99841.8
99631.1
99436
99255.2
99087.8
98932.9
98789.6
98657.1
98534.7
98421.9
98318
98222.7
98135.5
98056.3
97984.8
97920.9
97864.9
97816.9
97777.3
97746.4
97724.9
97713.5
97713.1
97724.4
97748.3
97785.6
97837.5
97905.1
97990.2
98094.9
98221.5
98373.1
98552.8
98763.6
99013.7
99203.9
99418.9
99640.9
99866.4
100101
100348
100605
100873
101153
101443
101743
102054
102375
102706
103047
103398
103759
104131
104514
104907
105312
105708
106094
106084
104974
113251
129819
117387
108448
102486
98274.6
95134.5
92689.1
90724
89109
87758.1
86612.1
85627.7
84773.4
84025.8
83367.5
82785.4
82268.3
81807.4
81394.9
81024.2
80689.9
80387.2
80112.1
79861.1
79631.2
79419.8
79224.9
79044.8
78878.1
78723.8
78580.8
78448.4
78325.8
78212.3
78107.4
78010.4
77920.9
77838.4
77762.6
77693.1
77629.7
77572.2
77520.7
77475.1
77435.6
77402.3
77375.6
77355.9
77343.5
77339.2
77343.5
77357.1
77380.5
77414.6
77460.1
77518.3
77590.5
77678.3
77783.7
77908.6
78056.1
78226.9
78353
78500
78656
78813.8
78976.9
79146.7
79323.4
79507.1
79697.5
79894.3
80097.4
80306.3
80521.1
80741.2
80966.4
81196.4
81430.7
81668.8
81910
82152.1
82394.2
82615.1
82808.7
82728.2
82207.9
77713.7
101781
94096.8
87132.9
82304.4
78866.5
76302.3
74309.5
72711.7
71400.9
70306.3
69378.9
68583.2
67893.4
67290.4
66759.8
66290.6
65874.1
65502.8
65170.4
64871.9
64602.6
64358.9
64137.4
63935.4
63750.5
63580.6
63424
63279.4
63145.5
63021.7
62906.9
62800.7
62702.3
62611.2
62526.9
62449
62377
62310.5
62249.3
62193.1
62141.7
62094.8
62052.6
62014.8
61981.7
61953.3
61929.9
61911.5
61898.6
61891.5
61890.8
61896.8
61909.9
61930.8
61960
61998.3
62046.5
62105.7
62177.3
62262.3
62363.2
62477.6
62559.2
62656.9
62763.7
62871.9
62983.1
63097.9
63216.8
63339.6
63466.4
63596.7
63730.4
63867.2
64006.8
64148.8
64292.7
64438
64584.2
64730.1
64874.6
65015.2
65149.3
65258.3
65335.2
65232.4
64989.4
51763.6
79306.6
75784.3
70553.5
66664.7
63845.3
61733.1
60092.1
58778.1
57701.8
56804.1
56044.6
55393.7
54830.1
54337.9
53905.1
53522.6
53183
52880.4
52609.5
52366.2
52146.8
51948.2
51767.8
51603.4
51452.9
51314.7
51187.3
51069.8
50961.1
50860.5
50767.4
50681.2
50601.3
50527.4
50458.9
50395.6
50337.1
50282.9
50233
50187
50144.8
50106.2
50071.1
50039.6
50011.5
49987
49966.1
49949.1
49935.9
49927
49922.6
49923.1
49928.8
49939.9
49957
49980.5
50010.9
50049
50095.6
50151.2
50217.8
50291.7
50342.3
50404.3
50474.4
50545.9
50619.1
50694.2
50771.4
50850.6
50931.7
51014.5
51098.9
51184.4
51270.9
51357.9
51444.9
51531.4
51616.7
51699.6
51779
51852
51915.8
51955
51964.1
51855.9
51715.6
33055
60904.4
61018.4
57381.8
54314.4
52012.1
50268.1
48909
47820.5
46929.4
46186.9
45559.2
45021.9
44557.1
44151.5
43795.2
43480.5
43201.1
42952.1
42729.3
42529.2
42348.7
42185.4
42037.1
41901.9
41778.3
41664.8
41560.3
41463.9
41374.8
41292.4
41216.1
41145.5
41080.1
41019.5
40963.4
40911.5
40863.4
40819
40777.9
40739.9
40705
40672.9
40643.5
40616.8
40592.8
40571.5
40552.9
40537.1
40524
40514
40507.1
40503.7
40504
40508
40516.2
40528.8
40546.1
40568.6
40596.8
40630.9
40672.2
40717
40746.2
40782.7
40825.6
40870.1
40915.5
40961.8
41009
41057
41105.7
41154.9
41204.4
41254
41303.3
41352.1
41399.8
41446.1
41490
41530.7
41566.9
41596.1
41615.5
41612.8
41585
41477.5
41363
19927.2
45640.2
48830.3
46711.4
44401.1
42553.2
41121.4
39996
39091.9
38350.9
37733.4
37211.5
36765
36379.1
36042.6
35747.2
35486.4
35255
35048.7
34864.1
34698.2
34548.7
34413.4
34290.6
34178.7
34076.3
33982.4
33896
33816.3
33742.7
33674.7
33611.7
33553.5
33499.5
33449.5
33403.2
33360.3
33320.6
33283.8
33249.7
33218.1
33189
33162.1
33137.3
33114.6
33094
33075.3
33058.7
33044.1
33031.4
33020.8
33012.4
33006.4
33002.8
33001.9
33003.7
33008.4
33016.2
33027.4
33042.1
33060.5
33083.4
33107.5
33122
33140.8
33164.2
33188.9
33214.3
33240
33265.9
33291.9
33317.8
33343.5
33368.9
33393.7
33417.6
33440.4
33461.7
33481
33497.7
33510.9
33519.5
33521.3
33513.8
33487.8
33442
33338.9
33227.4
11113.9
32947.6
38547.9
37895.5
36318.3
34891.6
33737.3
32813.6
32065.3
31449.6
30935.3
30500.3
30128.1
29806.5
29526.1
29280.1
29062.9
28870.2
28698.4
28544.7
28406.5
28281.9
28169.2
28066.9
27973.7
27888.5
27810.3
27738.5
27672.3
27611.1
27554.6
27502.3
27454
27409.2
27367.7
27329.2
27293.6
27260.5
27229.9
27201.4
27175
27150.6
27127.9
27106.9
27087.5
27069.7
27053.3
27038.5
27025.1
27013
27002.3
26993
26985.4
26979.3
26974.9
26972.3
26971.5
26972.6
26975.7
26981
26988.2
26997.9
27007.8
27012.4
27019.1
27028.9
27039.7
27050.9
27062.1
27073.2
27084
27094.4
27104.2
27113.3
27121.5
27128.6
27134.3
27138.4
27140.5
27139.9
27136
27127.8
27113.6
27091.1
27053.6
27001
26905.5
26797.1
5577.62
22517.1
29709.8
30457.9
29616.9
28602
27708.3
26967
26356
25848.5
25422.4
25060.7
24750.8
24482.6
24248.8
24043.6
23862.4
23701.6
23558.2
23429.8
23314.3
23210.2
23116
23030.5
22952.6
22881.4
22816.1
22756.1
22700.8
22649.8
22602.7
22559.1
22518.8
22481.4
22446.8
22414.8
22385
22357.4
22331.7
22307.9
22285.7
22265.1
22245.9
22228
22211.4
22196
22181.7
22168.4
22156.2
22144.9
22134.4
22124.9
22116.4
22108.8
22102.3
22096.8
22092.4
22089
22086.6
22085.3
22084.9
22085.6
22085.7
22084
22083
22083.8
22085.1
22086.6
22088.1
22089.3
22090
22090.1
22089.6
22088.1
22085.7
22082.2
22077.3
22070.9
22062.4
22051.7
22037.9
22020.4
21997.7
21968.1
21926.6
21873.5
21788.4
21688.4
2421.75
14213.1
22025.1
24043
23953.2
23360.1
22725
22158.4
21674.6
21264.9
20916.9
20619.5
20363.3
20141.1
19946.9
19776.2
19625.4
19491.4
19371.8
19264.6
19168.2
19081.2
19002.4
18930.8
18865.7
18806.1
18751.5
18701.3
18655.1
18612.5
18573.1
18536.7
18503
18471.8
18442.9
18416.1
18391.2
18368
18346.5
18326.5
18307.8
18290.4
18274.1
18258.9
18244.6
18231.3
18218.7
18207
18196
18185.5
18175.6
18166.3
18157.4
18149.2
18141.5
18134.3
18127.6
18121.4
18115.5
18110.1
18104.7
18099.6
18093.6
18087.9
18082.2
18077.4
18072.8
18068.2
18063.5
18058.3
18052.7
18046.5
18039.6
18031.9
18023.2
18013.4
18002.5
17990.1
17976
17959.8
17941.1
17919.2
17893
17861.1
17820.2
17770.3
17697
17609.3
862.075
7989.03
15361.5
18395.4
19059.3
18910.7
18545.6
18155.9
17796.9
17480.5
17205.4
16966.7
16759.1
16577.7
16418.4
16278
16153.6
16042.8
15943.7
15854.7
15774.5
15702.1
15636.5
15576.9
15522.5
15472.8
15427.3
15385.4
15346.8
15311.3
15278.4
15248
15219.9
15193.9
15169.8
15147.4
15126.5
15107.2
15089.1
15072.3
15056.6
15041.9
15028.1
15015.1
15002.9
14991.3
14980.4
14970.1
14960.2
14950.8
14941.7
14932.8
14924.1
14915.8
14907.6
14899.7
14891.9
14884.1
14876.3
14868.4
14860.1
14851.5
14842
14834.1
14826
14818.2
14810.2
14802.1
14793.7
14785
14775.9
14766.1
14755.7
14744.6
14732.7
14719.8
14705.8
14690.6
14674
14655.7
14635.2
14612.1
14585.5
14554.4
14516.6
14471.7
14410.4
14336.4
239.106
3782.98
9741.09
13360.1
14729.2
15048.5
14974.7
14773.7
14544.6
14322.7
14119.5
13937.5
13776
13632.8
13505.7
13392.9
13292.3
13202.3
13121.5
13048.7
12982.9
12923.4
12869.3
12820.2
12775.3
12734.2
12696.5
12661.8
12629.9
12600.4
12573.2
12548
12524.7
12503.1
12483.1
12464.5
12447.1
12431
12415.9
12401.9
12388.7
12376.3
12364.7
12353.7
12343.3
12333.5
12324
12315
12306.4
12298
12289.7
12281.6
12273.5
12265.4
12257.4
12249.4
12241.2
12232.9
12224.2
12215.2
12205.6
12195.3
12184.1
12175.3
12166.2
12157
12147.6
12137.9
12127.9
12117.5
12106.7
12095.4
12083.6
12071.1
12057.9
12044
12029.1
12013.2
11996.1
11977.6
11957.4
11935
11909.9
11881.2
11847.6
11808.7
11758.7
11697.7
52.1288
1385.59
5315.5
8903.37
10823
11610.2
11851.5
11858.4
11771.3
11650.7
11523
11399.3
11284.1
11178.7
11083
10996.7
10918.8
10848.4
10784.6
10726.8
10674.4
10626.6
10583.2
10543.5
10507.2
10473.9
10443.3
10415.1
10389
10365
10342.8
10322.3
10303.2
10285.5
10269.1
10253.9
10239.7
10226.4
10214
10202.4
10191.5
10181.2
10171.5
10162.3
10153.6
10145.3
10137.3
10129.6
10122.1
10114.8
10107.6
10100.3
10093
10085.6
10078.1
10070.4
10062.5
10054.3
10045.7
10036.5
10026.6
10015.9
10004.3
9995.5
9986.3
9976.94
9967.22
9957.2
9946.86
9936.19
9925.12
9913.62
9901.65
9889.14
9876.04
9862.28
9847.79
9832.45
9816.15
9798.68
9779.83
9759.28
9736.57
9711.15
9682.2
9649.35
9609.32
9560.16
9.62372
349.589
2275.84
5137.78
7290.39
8480.42
9046.21
9281.8
9353.78
9346.61
9302.4
9242.21
9176.6
9110.89
9047.79
8988.51
8933.44
8882.57
8835.7
8792.62
8753.07
8716.78
8683.48
8652.89
8624.73
8598.78
8574.83
8552.69
8532.21
8513.26
8495.7
8479.43
8464.33
8450.3
8437.24
8425.08
8413.72
8403.09
8393.14
8383.78
8374.98
8366.66
8358.78
8351.29
8344.14
8337.28
8330.65
8324.22
8317.94
8311.75
8305.63
8299.39
8293.02
8286.51
8279.83
8272.91
8265.69
8258.07
8249.97
8241.28
8231.83
8221.59
8210.47
8202.21
8193.56
8184.7
8175.49
8165.96
8156.13
8145.97
8135.47
8124.59
8113.31
8101.57
8089.35
8076.58
8063.21
8049.15
8034.3
8018.51
8001.62
7983.4
7963.53
7941.65
7917.31
7890.25
7858.66
7819.57
1.5763
57.48
659.49
2312.26
4212.68
5617.28
6468.39
6940.28
7188.14
7309.64
7360.79
7372.76
7363.03
7341.58
7314.26
7284.37
7253.82
7223.66
7194.51
7166.74
7140.53
7115.96
7093.01
7071.6
7051.65
7033.06
7015.74
6999.61
6984.6
6970.64
6957.64
6945.55
6934.28
6923.78
6913.98
6904.81
6896.21
6888.15
6880.56
6873.4
6866.63
6860.21
6854.11
6848.27
6842.67
6837.27
6832.02
6826.9
6821.85
6816.83
6811.84
6806.75
6801.48
6796.01
6790.33
6784.37
6778.08
6771.39
6764.2
6756.42
6747.91
6738.65
6728.59
6721.19
6713.43
6705.46
6697.17
6688.59
6679.72
6670.56
6661.09
6651.29
6641.15
6630.63
6619.7
6608.31
6596.43
6583.98
6570.89
6557.05
6542.35
6526.62
6509.66
6491.27
6471.24
6449.4
6424.76
6394.05
0.233079
7.09392
110.723
676.66
1834.25
3102.64
4097.17
4768.53
5193.44
5455.42
5614.76
5709.96
5765
5794.81
5808.69
5812.41
5809.63
5802.74
5793.33
5782.49
5770.94
5759.14
5747.39
5735.86
5724.67
5713.9
5703.6
5693.8
5684.52
5675.76
5667.51
5659.75
5652.45
5645.58
5639.11
5633.02
5627.26
5621.81
5616.64
5611.73
5607.05
5602.58
5598.3
5594.17
5590.18
5586.29
5582.48
5578.72
5574.98
5571.22
5567.42
5563.57
5559.5
5555.21
5550.66
5545.83
5540.66
5535.08
5529.03
5522.41
5515.13
5507.14
5498.46
5492.09
5485.41
5478.51
5471.35
5463.91
5456.22
5448.26
5440.03
5431.52
5422.71
5413.58
5404.1
5394.24
5383.96
5373.22
5361.97
5350.12
5337.61
5324.32
5310.17
5295.04
5278.85
5261.55
5242.52
5218.65
0.0346066
0.745393
11.5132
105.196
478.549
1195.89
2041.37
2777.96
3332.38
3725.72
3998.13
4185.46
4314.64
4404.17
4466.4
4509.6
4539.43
4559.8
4573.45
4582.3
4587.69
4590.56
4591.59
4591.28
4590
4588.04
4585.62
4582.9
4580.01
4577.03
4574.02
4571.03
4568.08
4565.2
4562.37
4559.62
4556.94
4554.33
4551.79
4549.32
4546.91
4544.56
4542.26
4539.99
4537.75
4535.52
4533.28
4531.01
4528.69
4526.31
4523.83
4521.26
4518.52
4515.52
4512.25
4508.66
4504.74
4500.42
4495.64
4490.34
4484.42
4477.88
4470.72
4465.46
4459.91
4454.15
4448.16
4441.94
4435.47
4428.77
4421.83
4414.64
4407.19
4399.46
4391.43
4383.08
4374.39
4365.32
4355.84
4345.9
4335.46
4324.47
4312.88
4300.67
4287.82
4274.33
4259.78
4241.41
0.00738888
0.0690553
0.942852
9.12189
59.623
242.306
618.137
1132.77
1664.34
2121.5
2480.52
2753.69
2959.79
3114.94
3231.99
3320.87
3389
3441.74
3482.9
3515.25
3540.82
3561.12
3577.31
3590.28
3600.72
3609.17
3616.04
3621.65
3626.25
3630.03
3633.14
3635.69
3637.77
3639.47
3640.84
3641.94
3642.79
3643.44
3643.92
3644.25
3644.44
3644.52
3644.49
3644.36
3644.12
3643.78
3643.33
3642.77
3642.08
3641.25
3640.26
3639.12
3637.84
3636.27
3634.39
3632.19
3629.63
3626.68
3623.28
3619.39
3614.94
3609.91
3604.32
3600.19
3595.78
3591.17
3586.35
3581.31
3576.05
3570.58
3564.88
3558.96
3552.81
3546.42
3539.77
3532.85
3525.64
3518.14
3510.3
3502.13
3493.59
3484.68
3475.38
3465.72
3455.7
3445.34
3434.32
3420.33
0.00242341
0.00611361
0.0656304
0.59946
4.07977
21.2694
82.7034
229.673
473.838
786.605
1118.92
1426.5
1686.92
1898.13
2067.54
2203.88
2314.21
2403.85
2476.93
2536.79
2586.12
2627.1
2661.41
2690.37
2715
2736.09
2754.25
2769.97
2783.64
2795.58
2806.03
2815.23
2823.35
2830.55
2836.94
2842.63
2847.73
2852.29
2856.39
2860.08
2863.41
2866.41
2869.11
2871.53
2873.7
2875.62
2877.31
2878.77
2879.99
2880.99
2881.75
2882.27
2882.56
2882.63
2882.34
2881.68
2880.64
2879.19
2877.29
2874.91
2871.99
2868.53
2864.56
2861.57
2858.29
2854.81
2851.13
2847.23
2843.13
2838.83
2834.32
2829.61
2824.68
2819.54
2814.17
2808.58
2802.75
2796.69
2790.37
2783.8
2776.99
2769.93
2762.64
2755.15
2747.49
2739.66
2731.41
2720.86
0.00184244
0.000885909
0.0040454
0.0328624
0.214566
1.12243
4.87497
17.7164
52.8426
126.601
246.972
408.308
595.94
792.038
980.468
1150.39
1297.24
1421.32
1525.5
1613.32
1687.96
1751.93
1807.12
1854.95
1896.54
1932.82
1964.55
1992.39
2016.93
2038.63
2057.91
2075.11
2090.53
2104.4
2116.93
2128.29
2138.61
2148.02
2156.61
2164.48
2171.69
2178.31
2184.39
2189.97
2195.1
2199.8
2204.09
2208.01
2211.55
2214.74
2217.59
2220.09
2222.26
2224.14
2225.67
2226.78
2227.46
2227.69
2227.45
2226.71
2225.45
2223.65
2221.36
2219.52
2217.39
2215.05
2212.51
2209.75
2206.78
2203.62
2200.25
2196.69
2192.94
2188.99
2184.84
2180.51
2175.98
2171.25
2166.35
2161.26
2156.01
2150.61
2145.07
2139.43
2133.72
2127.93
2121.87
2114.02
0.0018183
0.00033389
0.000315567
0.00154392
0.00929693
0.0469456
0.200747
0.744061
2.43048
7.05753
18.1798
41.1065
81.1821
141.188
220.141
314.155
417.995
526.187
633.715
736.519
831.794
918.015
994.753
1062.37
1121.69
1173.77
1219.64
1260.29
1296.52
1329.01
1358.31
1384.83
1408.95
1430.92
1450.99
1469.36
1486.19
1501.64
1515.84
1528.9
1540.92
1552.01
1562.24
1571.68
1580.4
1588.46
1595.9
1602.77
1609.09
1614.9
1620.23
1625.09
1629.5
1633.47
1637.09
1640.24
1642.9
1645.05
1646.7
1647.82
1648.4
1648.43
1647.95
1647.35
1646.45
1645.31
1643.94
1642.36
1640.56
1638.55
1636.35
1633.96
1631.38
1628.62
1625.69
1622.58
1619.32
1615.9
1612.34
1608.65
1604.84
1600.93
1596.94
1592.9
1588.81
1584.7
1580.41
1574.75
0.00181795
0.000298827
8.24271e-05
8.99642e-05
0.000343182
0.00159566
0.00661347
0.0240734
0.0780372
0.228437
0.611058
1.50693
3.44906
7.34215
14.4997
26.4887
44.7693
70.283
103.2
142.932
188.352
238.069
290.641
344.704
399.041
452.609
504.559
554.244
601.211
645.181
686.026
723.74
758.408
790.179
819.242
845.811
870.105
892.338
912.716
931.429
948.65
964.531
979.209
992.802
1005.41
1017.13
1028.02
1038.17
1047.61
1056.4
1064.57
1072.15
1079.18
1085.67
1091.65
1097.22
1102.23
1106.68
1110.57
1113.89
1116.65
1118.82
1120.46
1121.29
1121.78
1122.01
1121.98
1121.72
1121.22
1120.51
1119.59
1118.48
1117.18
1115.7
1114.06
1112.26
1110.32
1108.24
1106.05
1103.75
1101.35
1098.88
1096.35
1093.77
1091.15
1088.51
1085.74
1081.99
0.00181826
0.000297959
6.85699e-05
2.34888e-05
1.98712e-05
4.86278e-05
0.000175232
0.000614424
0.00195724
0.0056676
0.0150672
0.0371247
0.0855198
0.185484
0.380684
0.742796
1.38401
2.47046
4.23053
6.94996
10.9509
16.5552
24.0427
33.6111
45.3514
59.2396
75.1472
92.8633
112.123
132.635
154.103
176.245
198.802
221.539
244.256
266.778
288.959
310.678
331.836
352.356
372.179
391.261
409.572
427.095
443.821
459.749
474.886
489.242
502.831
515.669
527.776
539.169
549.868
559.891
569.254
577.981
586.192
593.75
600.656
606.909
612.511
617.459
621.775
624.36
626.568
628.457
630.045
631.35
632.39
633.182
633.741
634.083
634.224
634.178
633.96
633.583
633.061
632.407
631.635
630.757
629.784
628.729
627.602
626.414
625.173
623.886
622.515
620.577
0.00181861
0.000297989
6.82579e-05
2.06339e-05
8.05738e-06
4.73928e-06
5.75265e-06
1.3393e-05
3.8298e-05
0.000107407
0.00028172
0.000688966
0.00157958
0.00341643
0.0070064
0.0136907
0.0256089
0.0460531
0.0799053
0.134121
0.218322
0.345415
0.532377
0.800874
1.17774
1.69483
2.38826
3.29698
4.46081
5.91817
7.70388
9.84709
12.3697
15.2855
18.5991
22.3068
26.3965
30.8488
35.6382
40.7342
46.1029
51.7077
57.5108
63.4741
69.5597
75.7309
81.9523
88.1902
94.4128
100.59
106.695
112.701
118.583
124.319
129.887
135.267
140.448
145.488
150.368
155.069
159.572
163.862
167.92
170.495
172.897
175.135
177.215
179.143
180.924
182.564
184.071
185.451
186.711
187.856
188.895
189.833
190.677
191.434
192.111
192.712
193.246
193.716
194.13
194.491
194.806
195.078
195.311
195.495
0.00181898
0.000298035
6.82639e-05
2.05843e-05
7.73807e-06
3.4756e-06
1.8412e-06
1.22926e-06
1.22402e-06
1.95926e-06
4.1633e-06
9.49291e-06
2.12282e-05
4.54374e-05
9.27106e-05
0.000180674
0.000337433
0.000606204
0.00105127
0.00176478
0.00287548
0.00455747
0.00704262
0.0106313
0.0157068
0.0227449
0.0323248
0.0451333
0.0619704
0.0837499
0.111501
0.14637
0.189613
0.242596
0.306774
0.383677
0.474874
0.581937
0.706394
0.849668
1.01303
1.19751
1.40389
1.6326
1.88367
2.15674
2.45097
2.76503
3.09712
3.44493
3.80562
4.17587
4.55184
4.92918
5.30306
5.66703
6.02055
6.38886
6.76984
7.16128
7.56083
7.96606
8.37448
8.64381
8.90609
9.16078
9.40741
9.64561
9.87509
10.0957
10.3072
10.5098
10.7033
10.8878
11.0636
11.2308
11.3896
11.5404
11.6833
11.8186
11.9468
12.0682
12.1829
12.2915
12.3943
12.4915
12.5835
12.6739
0.00181932
0.000298079
6.82737e-05
2.05865e-05
7.73486e-06
3.45619e-06
1.76932e-06
1.00903e-06
6.29803e-07
4.2945e-07
3.28823e-07
3.02209e-07
3.5712e-07
5.35137e-07
9.22751e-07
1.67019e-06
3.01973e-06
5.34492e-06
9.20229e-06
1.53911e-05
2.50323e-05
3.96432e-05
6.12497e-05
9.24684e-05
0.000136649
0.000197943
0.00028144
0.000393199
0.000540335
0.000731017
0.00097448
0.00128102
0.00166192
0.0021294
0.00269644
0.00337665
0.00418388
0.00513193
0.00623389
0.00750152
0.00894432
0.0105685
0.0123755
0.014361
0.0165126
0.0188087
0.0212161
0.0236885
0.0261646
0.028566
0.0307959
0.0327381
0.0342533
0.03518
0.0353395
0.035481
0.0357176
0.0360485
0.0364725
0.0369879
0.0375925
0.0382835
0.0390573
0.0396116
0.0401847
0.0407728
0.0413727
0.041981
0.0425947
0.0432112
0.0438276
0.0444418
0.0450516
0.0456552
0.0462508
0.0468371
0.0474128
0.0479769
0.0485286
0.0490671
0.0495919
0.0501025
0.0505988
0.0510804
0.0515472
0.0519994
0.0524367
0.0528794
0.00181956
0.00029811
6.82807e-05
2.05885e-05
7.73553e-06
3.45633e-06
1.7688e-06
1.0069e-06
6.23513e-07
4.12962e-07
2.88863e-07
2.11469e-07
1.6112e-07
1.27598e-07
1.05549e-07
9.24187e-08
8.75452e-08
9.18362e-08
1.07799e-07
1.39756e-07
1.94246e-07
2.80387e-07
4.10598e-07
6.00927e-07
8.72147e-07
1.24985e-06
1.76572e-06
2.45734e-06
3.36915e-06
4.55223e-06
6.06431e-06
7.96993e-06
1.03389e-05
1.3247e-05
1.67726e-05
2.09968e-05
2.59984e-05
3.18525e-05
3.86228e-05
4.63569e-05
5.50761e-05
6.47655e-05
7.53606e-05
8.67332e-05
9.86756e-05
0.000110884
0.000122946
0.000134329
0.000144377
0.000152305
0.000157243
0.000158274
0.000156523
0.000154953
0.0001535
0.000152147
0.000150886
0.000149708
0.000148607
0.000147575
0.000146605
0.000145692
0.000144829
0.000144355
0.000143918
0.000143515
0.000143144
0.000142803
0.00014249
0.000142203
0.000141941
0.000141702
0.000141485
0.000141289
0.000141112
0.000140954
0.000140814
0.000140692
0.000140585
0.000140494
0.000140418
0.000140356
0.000140307
0.00014027
0.000140245
0.000140231
0.000140227
0.00014029
0.00181967
0.000298125
6.8284e-05
2.05895e-05
7.73587e-06
3.45647e-06
1.76887e-06
1.00693e-06
6.23497e-07
4.12867e-07
2.88599e-07
2.10846e-07
1.59764e-07
1.24801e-07
1.00029e-07
8.1955e-08
6.84354e-08
5.81103e-08
5.00923e-08
4.37904e-08
3.88072e-08
3.48761e-08
3.18247e-08
2.95487e-08
2.80011e-08
2.71776e-08
2.71175e-08
2.78932e-08
2.96138e-08
3.24188e-08
3.64762e-08
4.19837e-08
4.9155e-08
5.82282e-08
6.94389e-08
8.30291e-08
9.92089e-08
1.18155e-07
1.39962e-07
1.64617e-07
1.91943e-07
2.21542e-07
2.5273e-07
2.84462e-07
3.15275e-07
3.43233e-07
3.65925e-07
3.80515e-07
3.83887e-07
3.85128e-07
3.86982e-07
3.89273e-07
3.91997e-07
3.95449e-07
4.00074e-07
4.06558e-07
4.15955e-07
4.29875e-07
4.50772e-07
4.82352e-07
5.30165e-07
6.02435e-07
7.11196e-07
8.02751e-07
9.16879e-07
1.05777e-06
1.22992e-06
1.43813e-06
1.6874e-06
1.98285e-06
2.32958e-06
2.73254e-06
3.19644e-06
3.72555e-06
4.32367e-06
4.99395e-06
5.73882e-06
6.55991e-06
7.45803e-06
8.4331e-06
9.48417e-06
1.06094e-05
1.18062e-05
1.30712e-05
1.44003e-05
1.57887e-05
1.72313e-05
1.87255e-05
0.00181967
0.000298125
6.8284e-05
2.05894e-05
7.73586e-06
3.45647e-06
1.76887e-06
1.00693e-06
6.23497e-07
4.12866e-07
2.88599e-07
2.10845e-07
1.59762e-07
1.24797e-07
1.00021e-07
8.19394e-08
6.84077e-08
5.80626e-08
5.00126e-08
4.36609e-08
3.86019e-08
3.45591e-08
3.1345e-08
2.88398e-08
2.69722e-08
2.57152e-08
2.50737e-08
2.50879e-08
2.58251e-08
2.73813e-08
2.98826e-08
3.34758e-08
3.83462e-08
4.46937e-08
5.27684e-08
6.28384e-08
7.52395e-08
9.03486e-08
1.08642e-07
1.30695e-07
1.57248e-07
1.89252e-07
2.27963e-07
2.75067e-07
3.32828e-07
4.04349e-07
4.93866e-07
6.07238e-07
7.52542e-07
9.41016e-07
1.18827e-06
1.5161e-06
1.95491e-06
2.54719e-06
3.3522e-06
4.45246e-06
5.96248e-06
8.04035e-06
1.09031e-05
1.48461e-05
2.02684e-05
2.77031e-05
3.78542e-05
4.59181e-05
5.5421e-05
6.65315e-05
7.94134e-05
9.42248e-05
0.000111115
0.000130219
0.000151655
0.000175523
0.000201896
0.000230822
0.000262325
0.000296397
0.000333004
0.000372084
0.00041355
0.000457288
0.000503165
0.000551027
0.000600702
0.000652006
0.000704743
0.000758709
0.000813698
0.000869574
0.00181956
0.00029811
6.82806e-05
2.05885e-05
7.73552e-06
3.45632e-06
1.76879e-06
1.0069e-06
6.23493e-07
4.12909e-07
2.88736e-07
2.11185e-07
1.6052e-07
1.26386e-07
1.03199e-07
8.8046e-08
7.97101e-08
7.8266e-08
8.4993e-08
1.02491e-07
1.34876e-07
1.88234e-07
2.70705e-07
3.93535e-07
5.7064e-07
8.20518e-07
1.1651e-06
1.63205e-06
2.25366e-06
3.06796e-06
4.11948e-06
5.45719e-06
7.13913e-06
9.22605e-06
1.17907e-05
1.49083e-05
1.86691e-05
2.31689e-05
2.85228e-05
3.486e-05
4.2337e-05
5.11407e-05
6.15017e-05
7.37105e-05
8.81327e-05
0.000105243
0.00012565
0.000150151
0.000179778
0.000215884
0.00026022
0.000315068
0.000383374
0.000468932
0.000576605
0.000712589
0.00088472
0.00110284
0.00137923
0.00172898
0.00217058
0.0027263
0.00342275
0.00394885
0.00453812
0.00519403
0.00591912
0.00671524
0.00758357
0.00852458
0.00953797
0.0106227
0.0117769
0.012998
0.0142829
0.0156277
0.0170282
0.0184796
0.0199766
0.021514
0.0230861
0.0246872
0.0263115
0.0279533
0.029607
0.0312671
0.0329283
0.0345873
0.00181932
0.000298079
6.82737e-05
2.05865e-05
7.73485e-06
3.45611e-06
1.76898e-06
1.00794e-06
6.26777e-07
4.21743e-07
3.10553e-07
2.61712e-07
2.71148e-07
3.58827e-07
5.73965e-07
1.00777e-06
1.81093e-06
3.22041e-06
5.59491e-06
9.45981e-06
1.55553e-05
2.49169e-05
3.89018e-05
5.93578e-05
8.85641e-05
0.000129539
0.000185851
0.000262001
0.000363204
0.000495603
0.000666334
0.000883213
0.00115548
0.00149268
0.00190627
0.00240781
0.00301113
0.00373033
0.00458206
0.00558392
0.00675635
0.00812217
0.00970766
0.0115438
0.0136667
0.0161202
0.0189563
0.0222395
0.0260461
0.0304709
0.0356261
0.0416479
0.0486972
0.056964
0.0666696
0.0780697
0.0914569
0.107162
0.125555
0.147044
0.172071
0.201107
0.234637
0.258785
0.284552
0.311915
0.340811
0.371163
0.402887
0.435887
0.470058
0.505286
0.54145
0.578423
0.616077
0.654282
0.692909
0.73183
0.770921
0.810063
0.849142
0.88805
0.926686
0.964955
1.00277
1.04006
1.07675
1.11283
0.00181899
0.000298037
6.82642e-05
2.05841e-05
7.73579e-06
3.46513e-06
1.80446e-06
1.121e-06
9.41223e-07
1.23464e-06
2.35084e-06
5.20305e-06
1.16445e-05
2.52174e-05
5.2188e-05
0.000103253
0.000195713
0.000356632
0.000626932
0.00106651
0.00175965
0.0028238
0.00441306
0.00673651
0.0100532
0.014705
0.0210963
0.0297346
0.0412036
0.0561874
0.0754728
0.0999192
0.130531
0.168346
0.214589
0.27048
0.337441
0.416865
0.510315
0.619318
0.745498
0.890458
1.05581
1.24318
1.45413
1.69029
1.9532
2.24451
2.56578
2.91875
3.30508
3.72662
4.18517
4.68269
5.22113
5.8025
6.42882
7.10213
7.82441
8.59754
9.42317
10.3025
11.2355
11.873
12.5194
13.1723
13.8298
14.49
15.151
15.8111
16.4688
17.1224
17.7703
18.4113
19.0439
19.6671
20.2796
20.8806
21.469
22.0443
22.6056
23.1525
23.6845
24.2011
24.7022
25.1875
25.657
26.1163
0.00181864
0.000297992
6.82558e-05
2.06037e-05
7.88206e-06
4.0919e-06
3.81485e-06
7.24777e-06
1.96075e-05
5.50951e-05
0.00014659
0.000365057
0.000851489
0.00187436
0.00390947
0.00776729
0.0147589
0.0269383
0.047412
0.0807128
0.133185
0.213567
0.333287
0.507563
0.755144
1.09979
1.56868
2.19336
3.00711
4.04427
5.33824
6.91886
8.81261
11.0384
13.6105
16.5338
19.8082
23.4249
27.3709
31.6269
36.1705
40.976
46.016
51.2626
56.6878
62.2648
67.9676
73.7734
79.6602
85.6098
91.6053
97.6333
103.682
109.742
115.806
121.868
127.924
133.971
140.007
146.03
152.04
158.034
164.001
167.928
171.748
175.463
179.074
182.581
185.983
189.281
192.476
195.568
198.559
201.448
204.237
206.927
209.52
212.017
214.419
216.728
218.946
221.075
223.116
225.071
226.943
228.733
230.446
232.149
0.00181829
0.000297954
6.83751e-05
2.18839e-05
1.39088e-05
2.54633e-05
8.51363e-05
0.000299767
0.000972162
0.0028733
0.00779171
0.0195924
0.0459859
0.101639
0.212518
0.422413
0.801319
1.45656
2.54347
4.27055
6.89212
10.6905
15.9404
22.8815
31.6765
42.4049
55.0417
69.4808
85.5406
102.994
121.591
141.072
161.192
181.718
202.446
223.194
243.809
264.158
284.136
303.653
322.643
341.055
358.85
376.007
392.511
408.363
423.565
438.133
452.082