/*--------------------------------*- C++ -*----------------------------------*\
| =========                 |                                                 |
| \\      /  F ield         | OpenFOAM: The Open Source CFD Toolbox           |
|  \\    /   O peration     | Version:  5.x                                   |
|   \\  /    A nd           | Web:      www.OpenFOAM.org                      |
|    \\/     M anipulation  |                                                 |
\*---------------------------------------------------------------------------*/
FoamFile
{
    version     2.0;
    format      ascii;
    class       volScalarField;
    location    "400";
    object      k;
}
// * * * * * * * * * * * * * * * * * * * * * * * * * * * * * * * * * * * * * //

dimensions      [0 2 -2 0 0 0 0];

internalField   nonuniform List<scalar> 
20540
(
2.45293e-05
7.72636e-06
2.45293e-05
1.40222e-05
2.45293e-05
2.49913e-05
2.45293e-05
3.98286e-05
2.45293e-05
5.74895e-05
2.45293e-05
7.6436e-05
2.45293e-05
9.45143e-05
2.45293e-05
0.000108995
2.45293e-05
0.000116849
2.45293e-05
0.000115344
2.45293e-05
0.000102964
2.45293e-05
8.05612e-05
2.45293e-05
5.23743e-05
2.45293e-05
2.60988e-05
2.45293e-05
9.75446e-06
2.45293e-05
4.05108e-06
2.45293e-05
2.89959e-06
2.45293e-05
2.72157e-06
2.45293e-05
2.69431e-06
2.45293e-05
2.68983e-06
2.45293e-05
2.68914e-06
2.45293e-05
2.68912e-06
2.45293e-05
2.68925e-06
2.45293e-05
2.68943e-06
2.45293e-05
2.68965e-06
2.45293e-05
2.68992e-06
2.45293e-05
2.69023e-06
2.45293e-05
2.69057e-06
2.45293e-05
2.69091e-06
2.45293e-05
2.69124e-06
2.45293e-05
2.69146e-06
2.45293e-05
2.69157e-06
2.45293e-05
2.69157e-06
2.45293e-05
2.69146e-06
2.45293e-05
2.69123e-06
2.45293e-05
2.69092e-06
2.45293e-05
2.69059e-06
2.45293e-05
2.69026e-06
2.45293e-05
2.68996e-06
2.45293e-05
2.68969e-06
2.45293e-05
2.68947e-06
2.45293e-05
2.68928e-06
2.45293e-05
2.68915e-06
2.45293e-05
2.6891e-06
2.45293e-05
2.68941e-06
2.45293e-05
2.69157e-06
2.45293e-05
2.7041e-06
2.45293e-05
2.77967e-06
2.45293e-05
3.26008e-06
2.45293e-05
5.94606e-06
2.45293e-05
1.59559e-05
2.45293e-05
3.69459e-05
2.45293e-05
6.43543e-05
2.45293e-05
9.03085e-05
2.45293e-05
0.000108921
2.45293e-05
0.000117511
2.45293e-05
0.000116119
2.45293e-05
0.000106544
2.45293e-05
9.14113e-05
2.45293e-05
7.34531e-05
2.45293e-05
5.50684e-05
2.45293e-05
3.8131e-05
2.45293e-05
2.39829e-05
2.45293e-05
1.35559e-05
2.45293e-05
7.61307e-06
3.68733
3.61499
3.36363
3.18009
3.04632
2.94564
2.86718
2.80416
2.75241
2.70921
2.67265
2.64134
2.61425
2.5906
2.5698
2.55143
2.53513
2.52061
2.50765
2.49603
2.48557
2.47613
2.46758
2.4598
2.4527
2.4462
2.44022
2.4347
2.4296
2.42488
2.4205
2.41644
2.41269
2.4092
2.40598
2.40299
2.40023
2.39768
2.39534
2.39318
2.39121
2.38942
2.3878
2.38635
2.38508
2.384
2.3831
2.3824
2.38191
2.38165
2.38163
2.38188
2.3824
2.38321
2.38435
2.38583
2.38771
2.39002
2.39282
2.39619
2.40019
2.40489
2.41065
2.41518
2.41984
2.42457
2.42959
2.4349
2.44049
2.44636
2.4525
2.45892
2.46562
2.4726
2.47986
2.48742
2.49529
2.50348
2.51203
2.52098
2.53038
2.54031
2.55088
2.56232
2.57474
2.58975
2.61005
2.70618
16.8726
15.7453
14.7448
14.0728
13.592
13.2317
12.9508
12.7248
12.5386
12.3828
12.2507
12.1373
12.0389
11.9529
11.8771
11.8101
11.7505
11.6975
11.6501
11.6075
11.5692
11.5345
11.5031
11.4744
11.4483
11.4243
11.4022
11.3818
11.363
11.3455
11.3293
11.3143
11.3004
11.2876
11.2757
11.2647
11.2545
11.2451
11.2365
11.2286
11.2214
11.2148
11.2089
11.2036
11.199
11.1951
11.1919
11.1895
11.1879
11.1871
11.1873
11.1885
11.1908
11.1942
11.1989
11.205
11.2126
11.222
11.2334
11.2471
11.2633
11.2823
11.306
11.3251
11.3442
11.3632
11.3834
11.4049
11.4276
11.4514
11.4763
11.5023
11.5294
11.5577
11.5872
11.6178
11.6498
11.6831
11.718
11.7545
11.7929
11.8336
11.877
11.9239
11.9753
12.0343
12.1037
12.0782
18.563
18.4971
17.5399
16.8386
16.3248
15.9356
15.6304
15.384
15.1807
15.0102
14.8654
14.741
14.633
14.5385
14.4552
14.3814
14.3159
14.2575
14.2052
14.1583
14.116
14.0778
14.0431
14.0115
13.9827
13.9562
13.9319
13.9094
13.8886
13.8693
13.8515
13.8349
13.8196
13.8054
13.7922
13.7801
13.7688
13.7585
13.7489
13.7401
13.7321
13.7248
13.7182
13.7123
13.7072
13.7027
13.6991
13.6962
13.6942
13.6931
13.693
13.694
13.6961
13.6994
13.704
13.71
13.7175
13.7269
13.7383
13.7521
13.7684
13.7876
13.8109
13.8291
13.8483
13.8678
13.8883
13.9098
13.9325
13.9562
13.981
14.0069
14.0338
14.0618
14.0909
14.121
14.1523
14.1848
14.2186
14.2538
14.2905
14.3292
14.3699
14.4135
14.4595
14.513
14.5506
14.4647
18.4202
19.5675
18.7635
18.0862
17.5731
17.179
16.868
16.6158
16.4073
16.2321
16.0831
15.955
15.8436
15.7462
15.6603
15.5841
15.5165
15.4561
15.4021
15.3536
15.3098
15.2703
15.2344
15.2018
15.1719
15.1446
15.1194
15.0962
15.0747
15.0548
15.0364
15.0192
15.0034
14.9887
14.9751
14.9625
14.9508
14.9401
14.9302
14.9211
14.9127
14.9051
14.8982
14.8921
14.8866
14.8819
14.878
14.8748
14.8725
14.8711
14.8706
14.8712
14.8728
14.8757
14.8797
14.8852
14.8921
14.9007
14.9113
14.924
14.9391
14.957
14.9782
14.9942
15.012
15.0304
15.0494
15.0694
15.0902
15.1121
15.1349
15.1586
15.1832
15.2087
15.235
15.2623
15.2905
15.3197
15.3498
15.3809
15.4132
15.4468
15.4817
15.5187
15.5561
15.5991
15.6129
15.5294
17.5096
19.9424
19.377
18.7574
18.263
17.8757
17.567
17.3155
17.1068
16.9311
16.7813
16.6524
16.5403
16.4421
16.3554
16.2786
16.2103
16.1494
16.0948
16.0458
16.0016
15.9616
15.9253
15.8923
15.8622
15.8345
15.8091
15.7856
15.7639
15.7438
15.7252
15.7079
15.6919
15.6771
15.6633
15.6506
15.6388
15.6279
15.6179
15.6086
15.6002
15.5924
15.5854
15.5791
15.5735
15.5685
15.5644
15.561
15.5584
15.5566
15.5557
15.5558
15.557
15.5592
15.5625
15.5672
15.5732
15.5808
15.5901
15.6013
15.6147
15.6307
15.6492
15.6627
15.6784
15.6949
15.7119
15.7296
15.7481
15.7673
15.7873
15.8081
15.8296
15.8517
15.8746
15.8982
15.9224
15.9473
15.9728
15.999
16.0259
16.0536
16.0819
16.1113
16.1395
16.1711
16.1699
16.1125
16.1552
19.8908
19.6498
19.1207
18.6609
18.2895
17.9894
17.743
17.5375
17.3639
17.2157
17.0878
16.9765
16.8788
16.7927
16.7162
16.6482
16.5875
16.5331
16.4842
16.4401
16.4002
16.364
16.3311
16.301
16.2734
16.248
16.2246
16.2029
16.1829
16.1643
16.1471
16.1311
16.1164
16.1026
16.09
16.0782
16.0673
16.0573
16.0481
16.0396
16.0318
16.0248
16.0184
16.0126
16.0076
16.0033
15.9996
15.9968
15.9946
15.9934
15.993
15.9935
15.995
15.9975
16.0012
16.0062
16.0125
16.0204
16.0299
16.0413
16.0552
16.0707
16.0816
16.0947
16.109
16.1237
16.1388
16.1546
16.1709
16.1878
16.2053
16.2233
16.2418
16.2608
16.2802
16.3001
16.3204
16.341
16.362
16.3833
16.4049
16.4264
16.4483
16.4677
16.4885
16.4788
16.4493
14.503
19.5046
19.6803
19.2793
18.8713
18.5256
18.24
18.0029
17.8037
17.6347
17.4898
17.3645
17.2553
17.1594
17.0746
16.9994
16.9324
16.8726
16.8189
16.7706
16.7271
16.6877
16.6519
16.6193
16.5896
16.5623
16.5373
16.5141
16.4928
16.473
16.4546
16.4377
16.4219
16.4073
16.3938
16.3813
16.3697
16.359
16.3491
16.34
16.3315
16.3238
16.3168
16.3104
16.3046
16.2995
16.2951
16.2912
16.2881
16.2857
16.284
16.283
16.2829
16.2837
16.2854
16.2881
16.2918
16.2968
16.3031
16.3108
16.3201
16.3316
16.344
16.3524
16.3628
16.3746
16.3867
16.3992
16.412
16.4253
16.439
16.453
16.4674
16.4821
16.4971
16.5124
16.5279
16.5435
16.5593
16.5751
16.5908
16.6064
16.6215
16.6363
16.6477
16.6589
16.6444
16.6345
12.6442
18.8115
19.5025
19.2751
18.94
18.6312
18.3672
18.144
17.9546
17.7927
17.6532
17.5321
17.4263
17.3332
17.2508
17.1776
17.1123
17.0539
17.0016
16.9544
16.9118
16.8733
16.8383
16.8064
16.7773
16.7507
16.7261
16.7035
16.6826
16.6633
16.6454
16.6288
16.6134
16.5992
16.586
16.5737
16.5624
16.552
16.5423
16.5334
16.5251
16.5176
16.5106
16.5043
16.4986
16.4934
16.4889
16.4849
16.4816
16.4788
16.4767
16.4753
16.4746
16.4746
16.4754
16.477
16.4795
16.4831
16.4877
16.4936
16.5007
16.5097
16.5191
16.525
16.5327
16.5417
16.5512
16.5609
16.5709
16.581
16.5915
16.6021
16.6129
16.6239
16.6349
16.6461
16.6572
16.6684
16.6794
16.6903
16.7008
16.7108
16.72
16.7283
16.7328
16.7359
16.7182
16.7173
10.6545
17.8112
19.1185
19.1205
18.885
18.6275
18.3936
18.1901
18.0145
17.8627
17.7309
17.6159
17.515
17.4259
17.347
17.2767
17.2139
17.1577
17.1072
17.0617
17.0206
16.9834
16.9495
16.9187
16.8906
16.8647
16.841
16.8191
16.7989
16.7802
16.7629
16.7469
16.7321
16.7183
16.7056
16.6938
16.6829
16.6728
16.6634
16.6548
16.6468
16.6395
16.6328
16.6266
16.621
16.6159
16.6113
16.6073
16.6038
16.6008
16.5983
16.5964
16.595
16.5943
16.5942
16.5948
16.5961
16.5983
16.6013
16.6053
16.6102
16.6166
16.623
16.6267
16.6317
16.638
16.6448
16.6517
16.6588
16.666
16.6732
16.6805
16.6879
16.6952
16.7025
16.7097
16.7168
16.7238
16.7304
16.7366
16.7424
16.7474
16.7513
16.7539
16.7524
16.7491
16.7286
16.728
8.61118
16.4933
18.5108
18.8096
18.7077
18.5201
18.3277
18.1512
17.9944
17.8565
17.7353
17.6287
17.5345
17.451
17.3767
17.3105
17.2512
17.198
17.1501
17.1069
17.0677
17.0323
17
16.9707
16.9438
16.9192
16.8965
16.8757
16.8564
16.8386
16.8221
16.8068
16.7927
16.7796
16.7675
16.7563
16.746
16.7364
16.7275
16.7193
16.7117
16.7047
16.6982
16.6923
16.6869
16.6819
16.6774
16.6734
16.6698
16.6665
16.6638
16.6614
16.6596
16.6581
16.6572
16.6568
16.657
16.6577
16.6591
16.6613
16.664
16.668
16.6716
16.6732
16.6758
16.6794
16.6835
16.6877
16.692
16.6963
16.7005
16.7047
16.7088
16.7128
16.7166
16.7202
16.7236
16.7266
16.7293
16.7314
16.7329
16.7335
16.7328
16.7306
16.7242
16.7157
16.6925
16.6871
6.60008
14.8492
17.6477
18.3222
18.3977
18.3043
18.168
18.028
17.8968
17.7777
17.6708
17.5754
17.4903
17.4143
17.3463
17.2854
17.2307
17.1815
17.1371
17.0969
17.0605
17.0274
16.9973
16.9699
16.9448
16.9218
16.9006
16.8811
16.863
16.8464
16.831
16.8167
16.8036
16.7914
16.7801
16.7696
16.76
16.751
16.7428
16.7351
16.7281
16.7215
16.7155
16.7099
16.7047
16.7
16.6956
16.6917
16.6881
16.6848
16.6818
16.6791
16.6768
16.6748
16.6731
16.6718
16.6709
16.6704
16.6703
16.6707
16.6714
16.673
16.674
16.6738
16.6741
16.6753
16.6768
16.6785
16.6802
16.6817
16.6832
16.6845
16.6856
16.6866
16.6872
16.6876
16.6877
16.6873
16.6865
16.6851
16.6829
16.6797
16.6752
16.6689
16.6585
16.6461
16.6203
16.6087
4.71674
12.8856
16.4878
17.6252
17.933
17.9658
17.905
17.8143
17.7174
17.6234
17.5357
17.4554
17.3824
17.3164
17.2567
17.2029
17.1543
17.1103
17.0705
17.0344
17.0015
16.9716
16.9444
16.9195
16.8967
16.8758
16.8565
16.8388
16.8224
16.8072
16.7932
16.7803
16.7683
16.7573
16.7471
16.7376
16.7289
16.7208
16.7134
16.7064
16.7
16.6941
16.6886
16.6835
16.6788
16.6744
16.6703
16.6665
16.6631
16.6598
16.6567
16.6538
16.6512
16.6487
16.6464
16.6444
16.6425
16.6409
16.6395
16.6383
16.6372
16.6366
16.6353
16.6335
16.6319
16.6309
16.6301
16.6294
16.6287
16.6279
16.6268
16.6256
16.6241
16.6223
16.6203
16.6179
16.6151
16.6118
16.608
16.6036
16.5983
16.5921
16.5843
16.5747
16.5614
16.5458
16.518
16.5007
3.06203
10.6401
14.9865
16.6731
17.2801
17.4803
17.5209
17.4965
17.4458
17.3855
17.3234
17.2631
17.2063
17.1534
17.1048
17.0603
17.0197
16.9827
16.9489
16.918
16.8899
16.8641
16.8406
16.819
16.7993
16.7811
16.7643
16.7489
16.7346
16.7215
16.7093
16.6981
16.6877
16.6781
16.6693
16.6611
16.6536
16.6466
16.6402
16.6342
16.6287
16.6235
16.6188
16.6143
16.6102
16.6063
16.6027
16.5992
16.596
16.5929
16.5899
16.587
16.5841
16.5814
16.5787
16.5761
16.5735
16.5709
16.5684
16.5659
16.5632
16.5607
16.5574
16.5543
16.5512
16.5483
16.5456
16.5428
16.54
16.5371
16.5339
16.5305
16.5268
16.5227
16.5184
16.5136
16.5085
16.5028
16.4966
16.4897
16.482
16.4732
16.463
16.4508
16.4352
16.4171
16.3882
16.3667
1.73119
8.19966
13.108
15.4096
16.3926
16.8127
16.9888
17.0533
17.0645
17.0494
17.0216
16.988
16.9526
16.9173
16.8832
16.8511
16.821
16.7931
16.7672
16.7433
16.7212
16.7009
16.6823
16.6651
16.6493
16.6347
16.6212
16.6088
16.5973
16.5867
16.5769
16.5678
16.5595
16.5518
16.5448
16.5382
16.5322
16.5267
16.5216
16.5168
16.5124
16.5084
16.5045
16.501
16.4976
16.4945
16.4915
16.4886
16.4859
16.4831
16.4804
16.4776
16.4748
16.472
16.4691
16.4661
16.463
16.4598
16.4565
16.4529
16.449
16.445
16.4401
16.4359
16.4316
16.4273
16.423
16.4186
16.414
16.4093
16.4044
16.3992
16.3936
16.3878
16.3816
16.375
16.3679
16.3604
16.3523
16.3435
16.3338
16.3231
16.311
16.2969
16.2795
16.2597
16.2305
16.2063
0.796564
5.71918
10.8468
13.7737
15.2106
15.9144
16.27
16.4537
16.5481
16.5937
16.6117
16.614
16.6071
16.5951
16.5804
16.5645
16.5484
16.5324
16.517
16.5022
16.4881
16.475
16.4627
16.4512
16.4406
16.4307
16.4215
16.413
16.4051
16.3978
16.3911
16.3849
16.3792
16.3739
16.3692
16.3648
16.3607
16.357
16.3536
16.3505
16.3475
16.3448
16.3423
16.3399
16.3376
16.3354
16.3333
16.3312
16.3292
16.3271
16.3249
16.3225
16.32
16.3174
16.3145
16.3115
16.3083
16.3047
16.3008
16.2966
16.2918
16.2867
16.2806
16.2757
16.2705
16.2652
16.2597
16.254
16.2482
16.2422
16.2359
16.2293
16.2224
16.2151
16.2075
16.1995
16.1911
16.1821
16.1726
16.1623
16.1512
16.1391
16.1255
16.11
16.0916
16.0706
16.0418
16.0161
0.277748
3.42987
8.26253
11.7154
13.6639
14.7222
15.3122
15.6546
15.8605
15.9877
16.0674
16.1176
16.149
16.1681
16.1792
16.185
16.1872
16.1871
16.1854
16.1826
16.1792
16.1754
16.1716
16.1676
16.1638
16.1601
16.1565
16.1531
16.1498
16.1468
16.1441
16.1416
16.1393
16.1372
16.1354
16.1337
16.1323
16.1309
16.1297
16.1286
16.1276
16.1267
16.1258
16.125
16.1241
16.1233
16.1224
16.1214
16.1204
16.1193
16.1179
16.1162
16.1144
16.1122
16.1098
16.107
16.1039
16.1004
16.0964
16.0919
16.0866
16.0809
16.0741
16.0687
16.063
16.0571
16.0508
16.0444
16.0377
16.0307
16.0235
16.016
16.0081
15.9999
15.9913
15.9823
15.9728
15.9629
15.9523
15.9411
15.929
15.9158
15.9012
15.8847
15.8656
15.844
15.8162
15.7899
0.0744657
1.61194
5.52825
9.22908
11.6836
13.1598
14.0472
14.5977
14.9523
15.1889
15.3516
15.4664
15.5492
15.6101
15.6557
15.6904
15.7172
15.7382
15.7547
15.7679
15.7785
15.7871
15.7943
15.8004
15.8055
15.8098
15.8136
15.8169
15.8198
15.8224
15.8249
15.8272
15.8293
15.8314
15.8334
15.8353
15.8372
15.8389
15.8406
15.8422
15.8437
15.8451
15.8464
15.8475
15.8486
15.8495
15.8503
15.8509
15.8512
15.8514
15.8513
15.8508
15.8499
15.8487
15.847
15.8449
15.8424
15.8393
15.8356
15.8312
15.826
15.82
15.813
15.8075
15.8016
15.7955
15.7889
15.7821
15.7749
15.7675
15.7597
15.7516
15.7432
15.7344
15.7252
15.7155
15.7054
15.6948
15.6836
15.6717
15.6589
15.645
15.6297
15.6127
15.5934
15.5716
15.5452
15.5188
0.0166933
0.51039
2.97581
6.41565
9.23343
11.1486
12.3924
13.2079
13.7576
14.1399
14.4139
14.6156
14.7677
14.8848
14.9768
15.0504
15.1101
15.1592
15.2001
15.2345
15.2638
15.289
15.311
15.3302
15.3471
15.3622
15.3757
15.3878
15.3988
15.4089
15.4182
15.4268
15.4348
15.4422
15.4492
15.4558
15.462
15.4678
15.4732
15.4783
15.4831
15.4876
15.4917
15.4956
15.4991
15.5024
15.5054
15.508
15.5104
15.5124
15.514
15.5151
15.5157
15.5158
15.5154
15.5144
15.5129
15.5107
15.5077
15.504
15.4993
15.4937
15.487
15.4817
15.476
15.4699
15.4633
15.4565
15.4492
15.4417
15.4337
15.4254
15.4168
15.4077
15.3982
15.3882
15.3778
15.3668
15.3552
15.3429
15.3296
15.3153
15.2997
15.2825
15.2632
15.2419
15.217
15.1909
0.00326968
0.102635
1.08552
3.5762
6.37945
8.64114
10.2637
11.3959
12.1925
12.765
13.1866
13.5046
13.7498
13.9426
14.0972
14.2231
14.3272
14.4142
14.4879
14.5508
14.6051
14.6525
14.6941
14.7309
14.7637
14.793
14.8194
14.8433
14.8651
14.885
14.9033
14.9202
14.9359
14.9505
14.9641
14.9768
14.9887
14.9998
15.0102
15.0199
15.029
15.0375
15.0454
15.0528
15.0597
15.0661
15.0721
15.0775
15.0824
15.0869
15.0909
15.0942
15.0969
15.099
15.1004
15.1011
15.1011
15.1003
15.0986
15.096
15.0924
15.0877
15.0818
15.077
15.0717
15.066
15.0599
15.0533
15.0463
15.0389
15.0311
15.0229
15.0143
15.0052
14.9957
14.9857
14.9751
14.964
14.9522
14.9397
14.9262
14.9117
14.896
14.8788
14.86
14.8394
14.8162
14.7906
0.000557774
0.0153083
0.221533
1.30656
3.42188
5.70583
7.61801
9.07712
10.162
10.9709
11.5826
12.0533
12.4223
12.7167
12.9554
13.1519
13.3157
13.4539
13.5717
13.6731
13.7612
13.8384
13.9065
13.9669
14.0209
14.0694
14.1131
14.1527
14.1888
14.2218
14.2522
14.2802
14.3061
14.3302
14.3526
14.3734
14.3928
14.411
14.4279
14.4438
14.4586
14.4725
14.4854
14.4976
14.5089
14.5195
14.5293
14.5385
14.5469
14.5547
14.5618
14.5682
14.5738
14.5785
14.5824
14.5855
14.5877
14.5889
14.5891
14.5883
14.5862
14.583
14.5785
14.5746
14.5701
14.5651
14.5596
14.5536
14.5471
14.5402
14.5327
14.5249
14.5165
14.5077
14.4983
14.4884
14.478
14.4668
14.455
14.4425
14.429
14.4145
14.3989
14.3821
14.3639
14.3444
14.3229
14.2978
7.9116e-05
0.00191058
0.0276498
0.244067
1.09888
2.71139
4.56846
6.23436
7.59144
8.66201
9.50123
10.1635
10.6921
11.1196
11.4699
11.7606
12.0046
12.2117
12.3891
12.5424
12.6761
12.7935
12.8974
12.9897
13.0723
13.1465
13.2136
13.2744
13.3298
13.3805
13.427
13.4699
13.5096
13.5463
13.5804
13.6121
13.6416
13.6692
13.6949
13.7189
13.7414
13.7624
13.7821
13.8006
13.8178
13.834
13.8491
13.8633
13.8764
13.8886
13.8999
13.9103
13.9198
13.9281
13.9354
13.9417
13.9469
13.9509
13.9538
13.9554
13.9555
13.9544
13.9518
13.9492
13.9458
13.9419
13.9373
13.9322
13.9265
13.9202
13.9135
13.9061
13.8982
13.8898
13.8808
13.8711
13.8609
13.8499
13.8383
13.8258
13.8125
13.7983
13.7831
13.7668
13.7496
13.7313
13.7114
13.687
7.77634e-06
0.00020077
0.00268097
0.0251235
0.16218
0.660226
1.696
3.09745
4.53163
5.79979
6.86068
7.7351
8.45391
9.04657
9.5389
9.95179
10.3013
10.5998
10.8567
11.0797
11.2746
11.4462
11.5982
11.7336
11.8548
11.9639
12.0624
12.1519
12.2334
12.3079
12.3763
12.4393
12.4975
12.5512
12.6011
12.6475
12.6906
12.7307
12.7682
12.8032
12.836
12.8667
12.8954
12.9224
12.9477
12.9714
12.9936
13.0144
13.0339
13.0521
13.069
13.0848
13.0994
13.1126
13.1246
13.1351
13.1444
13.1522
13.1586
13.1634
13.1667
13.1684
13.1685
13.1676
13.1657
13.1632
13.1599
13.156
13.1513
13.1461
13.1401
13.1335
13.1263
13.1185
13.11
13.1008
13.0909
13.0803
13.0689
13.0568
13.0439
13.0301
13.0155
13.0001
12.9839
12.967
12.9488
12.9251
8.15544e-07
1.7032e-05
0.000216101
0.00193572
0.0130187
0.0677909
0.265586
0.747322
1.56393
2.61193
3.71563
4.74179
5.63729
6.4024
7.05545
7.61489
8.09575
8.5105
8.86998
9.1835
9.45877
9.702
9.91813
10.1111
10.2843
10.4402
10.5812
10.7093
10.826
10.9327
11.0306
11.1207
11.2038
11.2806
11.3518
11.4179
11.4793
11.5366
11.59
11.6399
11.6866
11.7304
11.7713
11.8098
11.8459
11.8798
11.9116
11.9414
11.9695
11.9957
12.0203
12.0432
12.0647
12.0845
12.1027
12.1191
12.1337
12.1467
12.1578
12.1671
12.1746
12.1801
12.1837
12.1851
12.1853
12.1847
12.1832
12.1808
12.1776
12.1736
12.1689
12.1634
12.1571
12.1501
12.1423
12.1338
12.1245
12.1145
12.1037
12.0922
12.0799
12.0669
12.0532
12.0389
12.0241
12.0087
11.9921
11.9692
4.75366e-07
1.04358e-06
1.40651e-05
0.0001221
0.000793469
0.0041465
0.0181077
0.0664665
0.201007
0.489253
0.971339
1.63089
2.40315
3.20735
3.97806
4.67866
5.29811
5.84089
6.31737
6.73822
7.11217
7.44591
7.74466
8.01275
8.25394
8.47157
8.66859
8.84762
9.01088
9.16027
9.29741
9.42367
9.54021
9.64801
9.74793
9.84072
9.92703
10.0074
10.0825
10.1526
10.2181
10.2795
10.3371
10.3911
10.4419
10.4895
10.5343
10.5764
10.6159
10.653
10.6879
10.7205
10.7511
10.7797
10.8062
10.8305
10.8525
10.8724
10.89
10.9053
10.9184
10.9291
10.9375
10.942
10.945
10.947
10.9479
10.9477
10.9465
10.9443
10.9413
10.9373
10.9324
10.9266
10.9201
10.9126
10.9044
10.8954
10.8856
10.8751
10.8639
10.8521
10.8396
10.8267
10.8134
10.7997
10.7848
10.763
4.64344e-07
1.4369e-07
6.94448e-07
6.16718e-06
3.91365e-05
0.000198625
0.000853854
0.00319219
0.0105498
0.0310456
0.0811895
0.186552
0.374461
0.662122
1.04937
1.51926
2.0439
2.59204
3.1358
3.65461
4.13616
4.57524
4.97174
5.32859
5.65009
5.94082
6.20501
6.44626
6.66748
6.87106
7.05888
7.23252
7.3933
7.54236
7.68073
7.80932
7.92896
8.04042
8.14437
8.24147
8.33226
8.41726
8.49694
8.57169
8.6419
8.70788
8.76992
8.82828
8.88317
8.9348
8.98334
9.02894
9.07172
9.11183
9.14951
9.18442
9.21647
9.2457
9.27211
9.2957
9.31643
9.33431
9.34942
9.35814
9.36511
9.37068
9.3749
9.37783
9.37953
9.38004
9.37941
9.3777
9.37495
9.3712
9.36648
9.36085
9.35434
9.347
9.33887
9.33002
9.3205
9.31039
9.29976
9.28869
9.27728
9.2655
9.25263
9.23258
4.64143e-07
1.15589e-07
5.61415e-08
2.39513e-07
1.51573e-06
7.57066e-06
3.18294e-05
0.000116922
0.000383021
0.00113466
0.00307589
0.00769379
0.0178647
0.0385898
0.0773575
0.143444
0.245987
0.391653
0.583045
0.818367
1.09211
1.39621
1.72131
2.05791
2.39723
2.73185
3.056
3.36555
3.65793
3.93182
4.18689
4.42352
4.64256
4.84515
5.03259
5.20618
5.3672
5.51684
5.65622
5.7863
5.90796
6.02196
6.12897
6.22957
6.32426
6.41347
6.49758
6.57692
6.65179
6.72242
6.78904
6.85184
6.91099
6.96664
7.01893
7.06833
7.11408
7.15624
7.19484
7.22992
7.26146
7.28947
7.31403
7.32881
7.34144
7.35227
7.36141
7.36894
7.37493
7.37946
7.38262
7.38448
7.38509
7.38454
7.38289
7.3802
7.37654
7.37199
7.36661
7.36047
7.35364
7.34621
7.33826
7.32986
7.32108
7.31193
7.30179
7.28481
4.64217e-07
1.14991e-07
3.8611e-08
2.10648e-08
4.84318e-08
2.21411e-07
9.19087e-07
3.32805e-06
1.07529e-05
3.15051e-05
8.47791e-05
0.000211576
0.000493777
0.00108521
0.00225742
0.00446442
0.00842878
0.0152396
0.0264257
0.0439506
0.0700959
0.107227
0.157505
0.222602
0.303502
0.400423
0.512844
0.639619
0.779128
0.929438
1.08846
1.25404
1.42412
1.59675
1.77015
1.94276
2.11324
2.28048
2.44356
2.60178
2.75461
2.90167
3.04274
3.17767
3.30642
3.42904
3.54561
3.65625
3.76111
3.86039
3.95425
4.04289
4.12649
4.20524
4.2793
4.34885
4.41459
4.47559
4.53192
4.58363
4.63078
4.6734
4.71155
4.73495
4.75569
4.77411
4.79035
4.80455
4.81682
4.82729
4.83606
4.84324
4.84895
4.85328
4.85633
4.85819
4.85895
4.85871
4.85756
4.85556
4.85281
4.84938
4.84534
4.84076
4.83571
4.8302
4.82393
4.81257
4.64302e-07
1.14998e-07
3.82921e-08
1.61701e-08
8.77861e-09
8.75226e-09
2.16235e-08
7.16335e-08
2.26952e-07
6.57759e-07
1.75441e-06
4.34731e-06
1.00904e-05
2.20912e-05
4.5862e-05
9.07201e-05
0.000171759
0.000312545
0.000548562
0.00093119
0.00153261
0.00245106
0.00381737
0.00580056
0.00861271
0.0125092
0.0177851
0.0247648
0.0337883
0.0451927
0.0592942
0.0763696
0.0966419
0.120268
0.147335
0.177856
0.211773
0.248965
0.289254
0.332418
0.378195
0.4263
0.476428
0.528266
0.581497
0.635808
0.690892
0.746453
0.802206
0.857884
0.91323
0.968006
1.02198
1.07495
1.12671
1.17707
1.22591
1.27355
1.3198
1.36449
1.40746
1.44856
1.48762
1.51248
1.53574
1.5575
1.57781
1.59671
1.61426
1.63051
1.64552
1.65935
1.67206
1.68371
1.69435
1.70405
1.71286
1.72085
1.72807
1.73458
1.74043
1.74567
1.75036
1.75454
1.75826
1.76156
1.76446
1.76665
4.6439e-07
1.15016e-07
3.82936e-08
1.60986e-08
8.10122e-09
4.7097e-09
3.2156e-09
3.00542e-09
4.71487e-09
1.06988e-08
2.65791e-08
6.43437e-08
1.47814e-07
3.21629e-07
6.64872e-07
1.31119e-06
2.47678e-06
4.49871e-06
7.88517e-06
1.3375e-05
2.20147e-05
3.52385e-05
5.49787e-05
8.37669e-05
0.000124868
0.000182378
0.000261342
0.000367817
0.00050894
0.000692965
0.000929295
0.00122849
0.00160227
0.00206345
0.00262582
0.00330401
0.00411318
0.0050687
0.00618574
0.00747872
0.00896081
0.0106434
0.0125353
0.0146427
0.016968
0.01951
0.022263
0.0252172
0.0283577
0.031665
0.0351147
0.0386775
0.0423188
0.0459994
0.0496752
0.0532863
0.0568244
0.0605082
0.0643186
0.0682353
0.0722366
0.0762997
0.0804011
0.0831083
0.0857475
0.0883135
0.0908016
0.0932078
0.0955292
0.0977638
0.0999102
0.101968
0.103937
0.105818
0.107613
0.109323
0.11095
0.112496
0.113964
0.115358
0.11668
0.117933
0.11912
0.120246
0.121312
0.122323
0.123281
0.124217
4.64472e-07
1.15032e-07
3.82989e-08
1.61e-08
8.09456e-09
4.6606e-09
2.97427e-09
2.05741e-09
1.52845e-09
1.23706e-09
1.15256e-09
1.34524e-09
2.01795e-09
3.57999e-09
6.77036e-09
1.28437e-08
2.38316e-08
4.28982e-08
7.4811e-08
1.26502e-07
2.0781e-07
3.32217e-07
5.17921e-07
7.88691e-07
1.17524e-06
1.71604e-06
2.45872e-06
3.46058e-06
4.78963e-06
6.5248e-06
8.75628e-06
1.15856e-05
1.51252e-05
1.94978e-05
2.48353e-05
3.1277e-05
3.89666e-05
4.80487e-05
5.86635e-05
7.09403e-05
8.49883e-05
0.000100887
0.000118673
0.000138325
0.00015975
0.000182761
0.000207061
0.000232224
0.000257672
0.00028266
0.000306256
0.000327326
0.000344503
0.000356183
0.00036058
0.000364685
0.000369579
0.000375272
0.000381768
0.000389065
0.000397154
0.00040602
0.000415636
0.000422387
0.000429268
0.000436249
0.000443297
0.000450385
0.000457486
0.000464572
0.000471622
0.000478614
0.000485528
0.000492347
0.000499057
0.000505644
0.000512097
0.000518408
0.000524568
0.000530572
0.000536415
0.000542095
0.000547607
0.000552953
0.00055813
0.00056314
0.000567983
0.000572857
4.64531e-07
1.15043e-07
3.83026e-08
1.61015e-08
8.09522e-09
4.66062e-09
2.97257e-09
2.04952e-09
1.50046e-09
1.15136e-09
9.1753e-10
7.54957e-10
6.40032e-10
5.60709e-10
5.12786e-10
4.98755e-10
5.2828e-10
6.19802e-10
8.03226e-10
1.12336e-09
1.64479e-09
2.45646e-09
3.67934e-09
5.47084e-09
8.03579e-09
1.1629e-08
1.65682e-08
2.32342e-08
3.2081e-08
4.36357e-08
5.84998e-08
7.73521e-08
1.00935e-07
1.30062e-07
1.65584e-07
2.0839e-07
2.59364e-07
3.19359e-07
3.89128e-07
4.69273e-07
5.60141e-07
6.61718e-07
7.73496e-07
8.94316e-07
1.0222e-06
1.15419e-06
1.28617e-06
1.41272e-06
1.52713e-06
1.62123e-06
1.68581e-06
1.71101e-06
1.70746e-06
1.70488e-06
1.70272e-06
1.70088e-06
1.69929e-06
1.69793e-06
1.69674e-06
1.69569e-06
1.69473e-06
1.69383e-06
1.69295e-06
1.69319e-06
1.69349e-06
1.69385e-06
1.69426e-06
1.69472e-06
1.69524e-06
1.69579e-06
1.6964e-06
1.69704e-06
1.69773e-06
1.69846e-06
1.69924e-06
1.70006e-06
1.70093e-06
1.70184e-06
1.70281e-06
1.70382e-06
1.70488e-06
1.70598e-06
1.70713e-06
1.70833e-06
1.70956e-06
1.71082e-06
1.71212e-06
1.71408e-06
4.64558e-07
1.15049e-07
3.83044e-08
1.61022e-08
8.09557e-09
4.66081e-09
2.97268e-09
2.04955e-09
1.50035e-09
1.15087e-09
9.16086e-10
7.51204e-10
6.31109e-10
5.40935e-10
4.71491e-10
4.16871e-10
3.73173e-10
3.37761e-10
3.0884e-10
2.85204e-10
2.66078e-10
2.51031e-10
2.39929e-10
2.32894e-10
2.30329e-10
2.32871e-10
2.41458e-10
2.57277e-10
2.81828e-10
3.16892e-10
3.64529e-10
4.27106e-10
5.07171e-10
6.07547e-10
7.31063e-10
8.80642e-10
1.05891e-09
1.26817e-09
1.50988e-09
1.78439e-09
2.09029e-09
2.42382e-09
2.77811e-09
3.14233e-09
3.50101e-09
3.83334e-09
4.11304e-09
4.30866e-09
4.38505e-09
4.43738e-09
4.49502e-09
4.55638e-09
4.62158e-09
4.69385e-09
4.77806e-09
4.88168e-09
5.01618e-09
5.19902e-09
5.45674e-09
5.82929e-09
6.37634e-09
7.1861e-09
8.38732e-09
9.3919e-09
1.06372e-08
1.21677e-08
1.40309e-08
1.62775e-08
1.89604e-08
2.21333e-08
2.58497e-08
3.01619e-08
3.51188e-08
4.07653e-08
4.7141e-08
5.42783e-08
6.22026e-08
7.09304e-08
8.04697e-08
9.08192e-08
1.01968e-07
1.13898e-07
1.26579e-07
1.39976e-07
1.54045e-07
1.68738e-07
1.83997e-07
1.99797e-07
4.64558e-07
1.15049e-07
3.83044e-08
1.61022e-08
8.09557e-09
4.66081e-09
2.97268e-09
2.04955e-09
1.50035e-09
1.15087e-09
9.16083e-10
7.51198e-10
6.31095e-10
5.40906e-10
4.7143e-10
4.16752e-10
3.7295e-10
3.37361e-10
3.08151e-10
2.84053e-10
2.64214e-10
2.48096e-10
2.35416e-10
2.26132e-10
2.20393e-10
2.18594e-10
2.21309e-10
2.29374e-10
2.43839e-10
2.66005e-10
2.9746e-10
3.40002e-10
3.95823e-10
4.67287e-10
5.57291e-10
6.68956e-10
8.06125e-10
9.73117e-10
1.17532e-09
1.41921e-09
1.71304e-09
2.06737e-09
2.49602e-09
3.01744e-09
3.65635e-09
4.44647e-09
5.4337e-09
6.68131e-09
8.27637e-09
1.03396e-08
1.30384e-08
1.66056e-08
2.13655e-08
2.77698e-08
3.64469e-08
4.82699e-08
6.44469e-08
8.66429e-08
1.17138e-07
1.5903e-07
2.16496e-07
2.95106e-07
4.0221e-07
4.87171e-07
5.87153e-07
7.03896e-07
8.39089e-07
9.94357e-07
1.17123e-06
1.37109e-06
1.59517e-06
1.84444e-06
2.11968e-06
2.42135e-06
2.74968e-06
3.10458e-06
3.48567e-06
3.89231e-06
4.32357e-06
4.77828e-06
5.25504e-06
5.75224e-06
6.26811e-06
6.80073e-06
7.34809e-06
7.90807e-06
8.47852e-06
9.05805e-06
4.6453e-07
1.15043e-07
3.83026e-08
1.61014e-08
8.09521e-09
4.66062e-09
2.97256e-09
2.04949e-09
1.50037e-09
1.1511e-09
9.16845e-10
7.53249e-10
6.36073e-10
5.52136e-10
4.95253e-10
4.64701e-10
4.65063e-10
5.071e-10
6.09457e-10
8.01129e-10
1.12429e-09
1.63927e-09
2.42649e-09
3.59669e-09
5.28846e-09
7.68619e-09
1.10113e-08
1.55443e-08
2.16157e-08
2.96183e-08
4.00148e-08
5.33206e-08
7.01471e-08
9.11443e-08
1.17087e-07
1.48788e-07
1.87214e-07
2.33402e-07
2.88587e-07
3.54156e-07
4.31777e-07
5.23435e-07
6.31562e-07
7.59206e-07
9.10186e-07
1.08944e-06
1.30326e-06
1.5599e-06
1.87e-06
2.24747e-06
2.71032e-06
3.28195e-06
3.99256e-06
4.88101e-06
5.99702e-06
7.4039e-06
9.18165e-06
1.14307e-05
1.42759e-05
1.78714e-05
2.24049e-05
2.8103e-05
3.52361e-05
4.06198e-05
4.66447e-05
5.33456e-05
6.07478e-05
6.88696e-05
7.77226e-05
8.73111e-05
9.76318e-05
0.000108673
0.000120417
0.000132837
0.0001459
0.000159568
0.000173798
0.000188539
0.000203741
0.000219348
0.000235305
0.000251552
0.000268032
0.000284686
0.000301459
0.000318293
0.000335137
0.000351956
4.64472e-07
1.15032e-07
3.82988e-08
1.61e-08
8.09452e-09
4.6604e-09
2.97327e-09
2.05339e-09
1.51481e-09
1.19653e-09
1.04407e-09
1.07913e-09
1.40959e-09
2.27588e-09
4.1236e-09
7.73119e-09
1.43788e-08
2.60939e-08
4.59764e-08
7.86161e-08
1.30558e-07
2.11049e-07
3.32379e-07
5.11389e-07
7.69166e-07
1.13373e-06
1.63872e-06
2.32673e-06
3.24779e-06
4.46131e-06
6.0369e-06
8.05186e-06
1.05976e-05
1.37705e-05
1.76854e-05
2.24599e-05
2.82344e-05
3.51531e-05
4.33856e-05
5.3112e-05
6.45405e-05
7.79033e-05
9.3467e-05
0.000111545
0.000132498
0.000156768
0.000184872
0.000217451
0.000255263
0.000299244
0.000350506
0.000410394
0.000480496
0.000562688
0.000659155
0.000772424
0.000905383
0.0010613
0.00124383
0.00145699
0.00170516
0.00199299
0.00232527
0.00256446
0.00281956
0.00309034
0.00337617
0.00367631
0.00398991
0.00431603
0.00465363
0.00500158
0.00535869
0.00572371
0.00609538
0.00647241
0.00685354
0.00723751
0.00762309
0.00800912
0.00839447
0.00877809
0.00915898
0.00953622
0.00990898
0.0102765
0.010638
0.0109935
4.64392e-07
1.15016e-07
3.82937e-08
1.60982e-08
8.09696e-09
4.68293e-09
3.08936e-09
2.52479e-09
3.13968e-09
6.14105e-09
1.46107e-08
3.53614e-08
8.20943e-08
1.8122e-07
3.80127e-07
7.60804e-07
1.45782e-06
2.68444e-06
4.76725e-06
8.19029e-06
1.36443e-05
2.21024e-05
3.48613e-05
5.36923e-05
8.0824e-05
0.00011921
0.0001724
0.000244873
0.00034186
0.000469552
0.000635136
0.000846583
0.00111322
0.00144487
0.00185306
0.00234951
0.00294778
0.0036614
0.00450547
0.00549498
0.00664589
0.00797408
0.00949563
0.0112268
0.0131835
0.015382
0.0178378
0.0205677
0.0235873
0.0269137