/*--------------------------------*- C++ -*----------------------------------*\
| =========                 |                                                 |
| \\      /  F ield         | OpenFOAM: The Open Source CFD Toolbox           |
|  \\    /   O peration     | Version:  5.x                                   |
|   \\  /    A nd           | Web:      www.OpenFOAM.org                      |
|    \\/     M anipulation  |                                                 |
\*---------------------------------------------------------------------------*/
FoamFile
{
    version     2.0;
    format      ascii;
    class       volScalarField;
    location    "400";
    object      nut;
}
// * * * * * * * * * * * * * * * * * * * * * * * * * * * * * * * * * * * * * //

dimensions      [0 2 -1 0 0 0 0];

internalField   nonuniform List<scalar> 
20540
(
2.10937e-10
3.19309e-11
2.10937e-10
6.41907e-11
2.10937e-10
1.51957e-10
2.10937e-10
3.20513e-10
2.10937e-10
5.98113e-10
2.10937e-10
1.00809e-09
2.10937e-10
1.55753e-09
2.10937e-10
2.22045e-09
2.10937e-10
2.91648e-09
2.10937e-10
3.49084e-09
2.10937e-10
3.71137e-09
2.10937e-10
3.3243e-09
2.10937e-10
2.25742e-09
2.10937e-10
9.73866e-10
2.10937e-10
2.46127e-10
2.10937e-10
6.78724e-11
2.10937e-10
4.14712e-11
2.10937e-10
3.7789e-11
2.10937e-10
3.72331e-11
2.10937e-10
3.71414e-11
2.10937e-10
3.71269e-11
2.10937e-10
3.71258e-11
2.10937e-10
3.71274e-11
2.10937e-10
3.71298e-11
2.10937e-10
3.71327e-11
2.10937e-10
3.71363e-11
2.10937e-10
3.71403e-11
2.10937e-10
3.71448e-11
2.10937e-10
3.71493e-11
2.10937e-10
3.71536e-11
2.10937e-10
3.71566e-11
2.10937e-10
3.7158e-11
2.10937e-10
3.7158e-11
2.10937e-10
3.71565e-11
2.10937e-10
3.71535e-11
2.10937e-10
3.71494e-11
2.10937e-10
3.7145e-11
2.10937e-10
3.71407e-11
2.10937e-10
3.71368e-11
2.10937e-10
3.71333e-11
2.10937e-10
3.71303e-11
2.10937e-10
3.71279e-11
2.10937e-10
3.71261e-11
2.10937e-10
3.71259e-11
2.10937e-10
3.71326e-11
2.10937e-10
3.7177e-11
2.10937e-10
3.74327e-11
2.10937e-10
3.89792e-11
2.10937e-10
4.92753e-11
2.10937e-10
1.19474e-10
2.10937e-10
4.97725e-10
2.10937e-10
1.51848e-09
2.10937e-10
2.7799e-09
2.10937e-10
3.58125e-09
2.10937e-10
3.72368e-09
2.10937e-10
3.36837e-09
2.10937e-10
2.753e-09
2.10937e-10
2.07076e-09
2.10937e-10
1.44402e-09
2.10937e-10
9.33137e-10
2.10937e-10
5.54566e-10
2.10937e-10
2.98551e-10
2.10937e-10
1.42719e-10
2.10937e-10
6.11703e-11
2.10937e-10
3.09356e-11
1.75443e-06
1.72001e-06
1.60041e-06
1.51308e-06
1.44943e-06
1.40153e-06
1.3642e-06
1.33421e-06
1.30959e-06
1.28904e-06
1.27164e-06
1.25674e-06
1.24385e-06
1.23259e-06
1.2227e-06
1.21395e-06
1.2062e-06
1.1993e-06
1.19313e-06
1.1876e-06
1.18263e-06
1.17814e-06
1.17406e-06
1.17036e-06
1.16698e-06
1.16389e-06
1.16104e-06
1.15841e-06
1.15598e-06
1.15373e-06
1.15165e-06
1.14972e-06
1.14793e-06
1.14628e-06
1.14475e-06
1.14333e-06
1.14202e-06
1.14081e-06
1.1397e-06
1.13868e-06
1.13775e-06
1.1369e-06
1.13613e-06
1.13544e-06
1.13484e-06
1.13433e-06
1.1339e-06
1.13357e-06
1.13333e-06
1.13321e-06
1.1332e-06
1.13331e-06
1.13356e-06
1.13394e-06
1.13448e-06
1.13518e-06
1.13607e-06
1.13717e-06
1.13851e-06
1.14012e-06
1.14203e-06
1.14428e-06
1.14705e-06
1.14922e-06
1.15146e-06
1.15372e-06
1.15613e-06
1.15867e-06
1.16134e-06
1.16415e-06
1.16708e-06
1.17015e-06
1.17335e-06
1.17668e-06
1.18014e-06
1.18375e-06
1.1875e-06
1.19141e-06
1.19549e-06
1.19976e-06
1.20424e-06
1.20898e-06
1.21401e-06
1.21945e-06
1.22535e-06
1.23245e-06
1.24204e-06
1.28775e-06
3.45372e-05
3.84435e-05
3.80444e-05
3.73624e-05
3.67653e-05
3.62763e-05
3.58763e-05
3.55449e-05
3.52665e-05
3.503e-05
3.48269e-05
3.46511e-05
3.44975e-05
3.43624e-05
3.42428e-05
3.41365e-05
3.40416e-05
3.39566e-05
3.38804e-05
3.38118e-05
3.37499e-05
3.36938e-05
3.3643e-05
3.35967e-05
3.35544e-05
3.35157e-05
3.348e-05
3.34471e-05
3.34166e-05
3.33884e-05
3.33621e-05
3.33378e-05
3.33151e-05
3.32941e-05
3.32746e-05
3.32564e-05
3.32396e-05
3.32241e-05
3.32097e-05
3.31964e-05
3.31842e-05
3.3173e-05
3.31628e-05
3.31536e-05
3.31453e-05
3.3138e-05
3.31318e-05
3.31265e-05
3.31223e-05
3.31192e-05
3.31173e-05
3.31166e-05
3.31172e-05
3.31191e-05
3.31225e-05
3.31274e-05
3.3134e-05
3.31423e-05
3.31526e-05
3.31651e-05
3.31798e-05
3.3198e-05
3.32176e-05
3.32305e-05
3.32473e-05
3.32663e-05
3.32856e-05
3.33055e-05
3.33261e-05
3.33476e-05
3.33699e-05
3.33931e-05
3.3417e-05
3.34416e-05
3.34668e-05
3.34928e-05
3.35193e-05
3.35464e-05
3.35741e-05
3.36022e-05
3.36309e-05
3.36602e-05
3.36898e-05
3.37209e-05
3.37489e-05
3.37912e-05
3.37926e-05
3.39345e-05
6.18516e-05
7.57079e-05
7.71327e-05
7.67463e-05
7.61054e-05
7.54878e-05
7.49459e-05
7.44803e-05
7.40802e-05
7.37349e-05
7.34352e-05
7.31735e-05
7.29438e-05
7.27407e-05
7.25603e-05
7.23993e-05
7.22552e-05
7.21259e-05
7.20095e-05
7.19045e-05
7.18096e-05
7.17237e-05
7.16458e-05
7.1575e-05
7.15104e-05
7.14513e-05
7.1397e-05
7.1347e-05
7.13008e-05
7.12579e-05
7.1218e-05
7.1181e-05
7.11464e-05
7.11143e-05
7.10843e-05
7.10564e-05
7.10304e-05
7.10063e-05
7.09838e-05
7.09629e-05
7.09435e-05
7.09256e-05
7.0909e-05
7.08937e-05
7.08797e-05
7.08668e-05
7.08551e-05
7.08445e-05
7.0835e-05
7.08265e-05
7.0819e-05
7.08126e-05
7.08073e-05
7.08031e-05
7.08e-05
7.07979e-05
7.07966e-05
7.07962e-05
7.07965e-05
7.07977e-05
7.07987e-05
7.08033e-05
7.07994e-05
7.0788e-05
7.07871e-05
7.07934e-05
7.0798e-05
7.08011e-05
7.08034e-05
7.08053e-05
7.08067e-05
7.08077e-05
7.08082e-05
7.08079e-05
7.08068e-05
7.08046e-05
7.08011e-05
7.07961e-05
7.07891e-05
7.07797e-05
7.07673e-05
7.07514e-05
7.07301e-05
7.07049e-05
7.06608e-05
7.06391e-05
7.0506e-05
7.10774e-05
8.79034e-05
0.000115111
0.000119983
0.000120506
0.000120092
0.000119481
0.000118872
0.000118317
0.000117823
0.000117387
0.000117003
0.000116664
0.000116365
0.000116098
0.00011586
0.000115647
0.000115456
0.000115284
0.000115128
0.000114988
0.00011486
0.000114745
0.00011464
0.000114545
0.000114459
0.000114379
0.000114307
0.00011424
0.000114178
0.000114121
0.000114068
0.000114019
0.000113973
0.00011393
0.00011389
0.000113852
0.000113818
0.000113785
0.000113755
0.000113726
0.0001137
0.000113675
0.000113652
0.000113631
0.00011361
0.000113591
0.000113573
0.000113556
0.00011354
0.000113525
0.00011351
0.000113495
0.000113481
0.000113467
0.000113454
0.00011344
0.000113426
0.000113411
0.000113395
0.000113378
0.000113357
0.000113339
0.000113301
0.000113258
0.000113227
0.00011321
0.00011319
0.000113167
0.000113141
0.000113112
0.00011308
0.000113047
0.000113011
0.000112972
0.000112931
0.000112886
0.000112838
0.000112785
0.000112728
0.000112666
0.000112596
0.000112519
0.00011243
0.000112332
0.000112202
0.000112101
0.00011189
0.000112934
0.000112864
0.00015717
0.00016768
0.000170048
0.000170296
0.00016992
0.000169374
0.00016881
0.000168276
0.000167786
0.000167344
0.000166946
0.00016659
0.00016627
0.000165983
0.000165724
0.000165492
0.000165281
0.00016509
0.000164917
0.00016476
0.000164617
0.000164488
0.00016437
0.000164263
0.000164165
0.000164075
0.000163992
0.000163916
0.000163846
0.00016378
0.00016372
0.000163663
0.000163611
0.000163561
0.000163516
0.000163473
0.000163433
0.000163395
0.00016336
0.000163327
0.000163296
0.000163267
0.000163239
0.000163213
0.000163188
0.000163163
0.00016314
0.000163116
0.000163092
0.000163068
0.000163043
0.000163017
0.00016299
0.000162962
0.000162932
0.0001629
0.000162865
0.000162826
0.000162783
0.000162732
0.000162683
0.000162602
0.000162521
0.000162451
0.000162399
0.000162346
0.000162287
0.000162222
0.000162153
0.000162078
0.000162
0.000161916
0.000161828
0.000161734
0.000161635
0.00016153
0.000161418
0.000161299
0.000161171
0.000161033
0.000160884
0.000160719
0.00016054
0.000160321
0.000160141
0.000159902
0.000161282
0.000136189
0.000201615
0.000220641
0.000226239
0.000227842
0.000228081
0.000227827
0.000227401
0.000226926
0.000226453
0.000226004
0.000225587
0.000225205
0.000224856
0.00022454
0.000224253
0.000223992
0.000223755
0.000223539
0.000223342
0.000223163
0.000222999
0.000222851
0.000222715
0.000222592
0.000222479
0.000222376
0.000222281
0.000222194
0.000222113
0.000222039
0.000221969
0.000221905
0.000221845
0.000221789
0.000221737
0.000221688
0.000221643
0.0002216
0.00022156
0.000221522
0.000221487
0.000221453
0.00022142
0.000221389
0.000221358
0.000221328
0.000221297
0.000221266
0.000221234
0.000221199
0.000221162
0.000221123
0.00022108
0.000221033
0.000220983
0.000220927
0.000220866
0.000220797
0.000220721
0.000220633
0.000220542
0.00022041
0.000220286
0.000220168
0.000220068
0.000219971
0.000219868
0.000219756
0.000219637
0.000219511
0.000219377
0.000219236
0.000219088
0.000218932
0.000218769
0.000218597
0.000218416
0.000218226
0.000218024
0.000217811
0.000217584
0.000217339
0.00021708
0.000216778
0.000216534
0.0002163
0.000217806
0.000156938
0.000247624
0.000278805
0.000289614
0.00029363
0.000295093
0.000295507
0.000295468
0.000295227
0.000294898
0.000294537
0.000294174
0.000293825
0.000293495
0.000293188
0.000292905
0.000292645
0.000292406
0.000292186
0.000291983
0.000291797
0.000291627
0.000291472
0.00029133
0.000291201
0.000291083
0.000290974
0.000290875
0.000290784
0.000290699
0.000290622
0.00029055
0.000290483
0.000290421
0.000290363
0.000290309
0.000290259
0.000290212
0.000290168
0.000290127
0.000290087
0.00029005
0.000290015
0.00028998
0.000289946
0.000289912
0.000289878
0.000289842
0.000289804
0.000289764
0.000289719
0.00028967
0.000289615
0.000289555
0.000289487
0.000289412
0.000289329
0.000289236
0.000289132
0.000289015
0.000288881
0.00028874
0.000288548
0.000288379
0.000288205
0.000288048
0.000287897
0.00028774
0.000287573
0.000287397
0.00028721
0.000287014
0.000286808
0.000286592
0.000286367
0.000286132
0.000285887
0.000285632
0.000285366
0.000285088
0.000284797
0.000284493
0.000284171
0.000283838
0.000283469
0.000283187
0.000282969
0.000284423
0.000173836
0.000293787
0.000341556
0.000360304
0.000368295
0.000371918
0.000373598
0.000374351
0.000374631
0.000374658
0.000374549
0.000374368
0.000374153
0.000373925
0.000373698
0.000373478
0.000373269
0.000373071
0.000372885
0.00037271
0.000372548
0.000372397
0.000372259
0.000372132
0.000372016
0.000371909
0.000371812
0.000371722
0.00037164
0.000371565
0.000371496
0.000371432
0.000371372
0.000371318
0.000371267
0.000371219
0.000371175
0.000371134
0.000371096
0.00037106
0.000371026
0.000370993
0.000370961
0.000370929
0.000370897
0.000370865
0.00037083
0.000370793
0.000370752
0.000370706
0.000370653
0.000370593
0.000370524
0.000370445
0.000370356
0.000370255
0.000370141
0.000370013
0.000369868
0.000369706
0.000369519
0.000369321
0.000369065
0.000368848
0.000368615
0.000368393
0.000368179
0.000367961
0.000367732
0.000367492
0.00036724
0.000366977
0.000366702
0.000366415
0.000366117
0.000365809
0.000365489
0.000365159
0.000364818
0.000364466
0.000364103
0.000363729
0.000363343
0.000362952
0.00036254
0.00036225
0.000362054
0.000363368
0.000185309
0.000338014
0.000407555
0.000437861
0.000452056
0.000459236
0.000463099
0.000465277
0.000466536
0.000467262
0.000467669
0.000467879
0.000467968
0.000467982
0.000467951
0.000467893
0.000467821
0.000467739
0.000467652
0.000467562
0.000467473
0.000467388
0.000467307
0.000467231
0.000467161
0.000467096
0.000467037
0.000466983
0.000466933
0.000466888
0.000466848
0.00046681
0.000466776
0.000466745
0.000466716
0.000466689
0.000466665
0.000466643
0.000466622
0.000466602
0.000466583
0.000466565
0.000466546
0.000466526
0.000466505
0.000466481
0.000466453
0.000466421
0.000466383
0.000466337
0.000466281
0.000466214
0.000466134
0.000466041
0.000465931
0.000465805
0.000465661
0.000465497
0.000465311
0.000465101
0.00046486
0.000464602
0.000464278
0.000464017
0.000463727
0.000463436
0.000463155
0.000462871
0.000462578
0.000462273
0.000461954
0.000461623
0.000461279
0.000460923
0.000460556
0.000460178
0.000459789
0.000459391
0.000458983
0.000458568
0.000458146
0.000457718
0.000457287
0.000456865
0.00045644
0.00045618
0.000456015
0.000457216
0.000189559
0.000377419
0.000474513
0.000521002
0.000544482
0.000557238
0.000564651
0.000569217
0.000572161
0.000574122
0.000575462
0.000576396
0.00057706
0.00057754
0.000577894
0.000578159
0.000578361
0.000578516
0.000578634
0.000578723
0.000578791
0.000578845
0.000578888
0.000578924
0.000578955
0.000578982
0.000579006
0.000579029
0.00057905
0.000579071
0.000579092
0.000579112
0.000579131
0.00057915
0.000579169
0.000579187
0.000579204
0.000579221
0.000579237
0.000579252
0.000579266
0.000579278
0.000579287
0.000579294
0.000579296
0.000579294
0.000579285
0.00057927
0.000579245
0.000579209
0.00057916
0.000579095
0.000579013
0.000578912
0.00057879
0.000578645
0.000578477
0.000578282
0.000578058
0.000577805
0.000577512
0.000577198
0.000576812
0.000576512
0.000576173
0.00057582
0.000575473
0.000575126
0.00057477
0.000574403
0.000574023
0.00057363
0.000573226
0.000572809
0.000572383
0.000571947
0.000571502
0.000571052
0.000570596
0.000570138
0.000569679
0.000569225
0.000568779
0.000568359
0.000567962
0.000567767
0.00056766
0.000568864
0.000184718
0.000408242
0.000538946
0.000607278
0.000644152
0.000665322
0.000678269
0.000686652
0.000692344
0.000696354
0.000699267
0.00070144
0.000703101
0.000704397
0.000705432
0.000706273
0.000706969
0.000707551
0.000708041
0.000708458
0.000708815
0.000709126
0.0007094
0.000709643
0.000709862
0.000710061
0.000710241
0.000710408
0.000710562
0.000710705
0.00071084
0.000710967
0.000711086
0.000711198
0.000711304
0.000711404
0.000711498
0.000711587
0.000711671
0.00071175
0.000711824
0.000711892
0.000711954
0.00071201
0.000712058
0.000712098
0.000712129
0.000712149
0.000712156
0.000712147
0.000712121
0.000712074
0.000712005
0.000711911
0.00071179
0.00071164
0.00071146
0.000711247
0.000710999
0.000710715
0.000710384
0.000710025
0.000709592
0.000709266
0.000708894
0.000708494
0.000708095
0.000707694
0.000707287
0.000706871
0.000706443
0.000706004
0.000705555
0.000705097
0.000704631
0.000704159
0.000703683
0.000703206
0.000702731
0.00070226
0.000701799
0.000701355
0.000700933
0.000700558
0.000700235
0.000700144
0.000700141
0.000701504
0.00016915
0.000425839
0.000595912
0.000692687
0.000748232
0.000781678
0.000802958
0.000817223
0.000827224
0.000834495
0.000839944
0.000844135
0.000847434
0.000850083
0.000852252
0.000854058
0.000855585
0.000856889
0.000858011
0.000858984
0.000859836
0.000860588
0.000861257
0.000861859
0.000862402
0.000862896
0.000863347
0.000863761
0.000864144
0.000864499
0.000864831
0.000865141
0.000865431
0.000865703
0.000865959
0.0008662
0.000866426
0.000866639
0.000866839
0.000867028
0.000867204
0.000867369
0.000867522
0.000867663
0.000867792
0.000867907
0.000868007
0.000868092
0.00086816
0.000868206
0.000868229
0.000868226
0.000868195
0.000868133
0.000868037
0.000867907
0.000867739
0.000867533
0.000867284
0.000866992
0.000866648
0.000866272
0.000865819
0.000865487
0.000865108
0.000864689
0.000864264
0.000863834
0.000863399
0.000862956
0.000862505
0.000862047
0.000861581
0.00086111
0.000860636
0.000860162
0.000859689
0.000859223
0.000858767
0.000858326
0.000857906
0.000857516
0.000857168
0.000856886
0.000856689
0.000856743
0.000856905
0.000858567
0.000142045
0.00042485
0.000638792
0.000771242
0.000851942
0.000902736
0.000936184
0.00095924
0.000975793
0.000988089
0.000997487
0.00100485
0.00101074
0.00101555
0.00101953
0.00102289
0.00102576
0.00102823
0.00103038
0.00103226
0.00103392
0.00103539
0.00103671
0.0010379
0.00103897
0.00103995
0.00104085
0.00104167
0.00104243
0.00104313
0.00104379
0.0010444
0.00104497
0.00104551
0.00104601
0.00104648
0.00104692
0.00104734
0.00104773
0.0010481
0.00104844
0.00104876
0.00104907
0.00104935
0.00104961
0.00104985
0.00105007
0.00105026
0.00105044
0.00105058
0.00105069
0.00105078
0.00105082
0.00105083
0.0010508
0.00105073
0.00105061
0.00105045
0.00105024
0.00104998
0.00104967
0.00104932
0.00104889
0.00104858
0.00104823
0.00104783
0.00104742
0.001047
0.00104658
0.00104615
0.00104571
0.00104527
0.00104483
0.00104439
0.00104395
0.00104352
0.00104309
0.00104269
0.0010423
0.00104194
0.00104161
0.00104133
0.00104111
0.00104098
0.00104096
0.0010412
0.00104159
0.00104364
0.000104573
0.000399725
0.000659194
0.000834545
0.000947951
0.00102249
0.00107319
0.00110901
0.00113526
0.00115509
0.00117047
0.00118268
0.00119256
0.0012007
0.00120752
0.0012133
0.00121826
0.00122257
0.00122633
0.00122964
0.00123257
0.00123519
0.00123754
0.00123966
0.00124158
0.00124333
0.00124494
0.00124641
0.00124777
0.00124903
0.00125019
0.00125128
0.0012523
0.00125326
0.00125415
0.00125498
0.00125577
0.00125651
0.0012572
0.00125786
0.00125847
0.00125904
0.00125958
0.00126009
0.00126056
0.001261
0.00126141
0.00126179
0.00126213
0.00126244
0.0012627
0.00126293
0.00126312
0.00126326
0.00126335
0.00126339
0.00126339
0.00126333
0.00126322
0.00126305
0.00126283
0.00126257
0.00126223
0.00126199
0.00126172
0.0012614
0.00126105
0.0012607
0.00126034
0.00125997
0.0012596
0.00125923
0.00125887
0.00125851
0.00125816
0.00125783
0.00125751
0.00125722
0.00125696
0.00125674
0.00125656
0.00125645
0.00125641
0.00125648
0.00125669
0.00125715
0.00125783
0.00126033
6.21946e-05
0.000345963
0.000647176
0.000871462
0.00102575
0.0011317
0.00120612
0.00125999
0.00130019
0.00133103
0.00135526
0.0013747
0.00139058
0.00140376
0.00141486
0.00142434
0.00143251
0.00143963
0.00144587
0.00145138
0.00145628
0.00146066
0.0014646
0.00146816
0.0014714
0.00147435
0.00147705
0.00147953
0.00148182
0.00148394
0.00148591
0.00148774
0.00148945
0.00149106
0.00149255
0.00149396
0.00149528
0.00149652
0.00149768
0.00149878
0.00149981
0.00150077
0.00150168
0.00150254
0.00150335
0.0015041
0.00150481
0.00150547
0.00150608
0.00150664
0.00150715
0.00150762
0.00150803
0.00150838
0.00150868
0.00150893
0.00150912
0.00150925
0.00150932
0.00150934
0.00150929
0.00150921
0.00150906
0.00150894
0.0015088
0.00150862
0.00150841
0.00150819
0.00150796
0.00150773
0.00150749
0.00150726
0.00150704
0.00150683
0.00150664
0.00150647
0.00150632
0.00150621
0.00150614
0.00150612
0.00150615
0.00150627
0.00150647
0.00150679
0.00150726
0.00150799
0.00150898
0.00151192
2.72627e-05
0.000262772
0.000592209
0.000868077
0.0010711
0.00121706
0.00132305
0.00140168
0.00146147
0.001508
0.001545
0.00157497
0.00159966
0.00162029
0.00163777
0.00165275
0.00166572
0.00167706
0.00168703
0.00169586
0.00170372
0.00171078
0.00171713
0.00172289
0.00172812
0.0017329
0.00173727
0.00174129
0.001745
0.00174843
0.00175161
0.00175458
0.00175735
0.00175994
0.00176236
0.00176463
0.00176676
0.00176876
0.00177065
0.00177241
0.00177408
0.00177565
0.00177712
0.00177851
0.00177982
0.00178106
0.00178222
0.00178332
0.00178434
0.00178531
0.0017862
0.00178702
0.00178779
0.00178848
0.00178911
0.00178967
0.00179017
0.00179061
0.00179098
0.0017913
0.00179155
0.00179177
0.00179191
0.001792
0.00179207
0.0017921
0.0017921
0.00179209
0.00179208
0.00179205
0.00179203
0.00179202
0.00179201
0.00179202
0.00179206
0.00179211
0.00179221
0.00179234
0.00179252
0.00179276
0.00179306
0.00179345
0.00179393
0.00179455
0.00179532
0.00179633
0.00179765
0.00180099
8.98859e-06
0.000158461
0.000485833
0.000808386
0.00106577
0.00126043
0.0014069
0.00151843
0.00160491
0.00167324
0.00172822
0.0017732
0.00181054
0.00184196
0.00186871
0.00189175
0.00191177
0.00192931
0.00194479
0.00195853
0.00197081
0.00198183
0.00199179
0.00200081
0.00200902
0.00201652
0.0020234
0.00202972
0.00203556
0.00204096
0.00204597
0.00205064
0.00205499
0.00205906
0.00206287
0.00206643
0.00206978
0.00207293
0.00207589
0.00207867
0.00208129
0.00208375
0.00208608
0.00208827
0.00209035
0.0020923
0.00209415
0.0020959
0.00209756
0.00209912
0.00210058
0.00210196
0.00210325
0.00210446
0.00210559
0.00210663
0.0021076
0.0021085
0.00210933
0.00211009
0.00211079
0.00211145
0.00211204
0.00211242
0.00211279
0.00211312
0.00211342
0.00211372
0.002114
0.00211427
0.00211454
0.00211482
0.00211511
0.00211542
0.00211575
0.0021161
0.0021165
0.00211693
0.00211742
0.00211796
0.00211858
0.00211928
0.00212008
0.002121
0.00212208
0.00212338
0.00212499
0.00212866
2.44681e-06
6.29656e-05
0.000328793
0.000676959
0.000988171
0.00123845
0.00143449
0.00158814
0.00170984
0.00180758
0.00188723
0.00195306
0.00200817
0.00205486
0.00209485
0.00212943
0.0021596
0.00218612
0.00220958
0.00223047
0.00224917
0.002266
0.00228122
0.00229504
0.00230763
0.00231914
0.00232971
0.00233943
0.0023484
0.0023567
0.00236441
0.00237159
0.00237829
0.00238454
0.0023904
0.00239589
0.00240104
0.00240588
0.00241043
0.00241471
0.00241874
0.00242254
0.00242612
0.00242951
0.00243271
0.00243574
0.00243861
0.00244133
0.00244391
0.00244636
0.00244867
0.00245086
0.00245293
0.00245489
0.00245675
0.0024585
0.00246016
0.00246173
0.00246321
0.00246462
0.00246595
0.00246724
0.00246845
0.00246925
0.00247001
0.00247074
0.00247144
0.00247212
0.00247279
0.00247344
0.00247409
0.00247474
0.0024754
0.00247606
0.00247675
0.00247746
0.00247821
0.00247899
0.00247982
0.00248071
0.00248166
0.00248269
0.00248381
0.00248504
0.00248641
0.00248796
0.00248982
0.00249368
5.73096e-07
1.54856e-05
0.000150982
0.000467373
0.000816328
0.00112324
0.00137614
0.00158116
0.00174754
0.00188366
0.00199616
0.0020902
0.00216965
0.00223747
0.00229589
0.00234667
0.00239117
0.00243042
0.00246527
0.00249637
0.00252427
0.00254944
0.00257224
0.00259298
0.0026119
0.00262922
0.00264513
0.00265978
0.00267331
0.00268584
0.00269748
0.00270832
0.00271842
0.00272787
0.00273671
0.002745
0.00275278
0.00276009
0.00276697
0.00277344
0.00277954
0.00278529
0.00279071
0.00279585
0.0028007
0.00280529
0.00280965
0.00281379
0.00281772
0.00282146
0.00282501
0.00282837
0.00283158
0.00283463
0.00283753
0.0028403
0.00284293
0.00284544
0.00284784
0.00285014
0.00285235
0.00285449
0.00285654
0.00285787
0.00285916
0.0028604
0.0028616
0.00286276
0.0028639
0.00286502
0.00286612
0.00286721
0.00286829
0.00286937
0.00287047
0.00287157
0.0028727
0.00287385
0.00287504
0.00287627
0.00287755
0.00287889
0.00288031
0.00288181
0.00288341
0.00288516
0.00288719
0.00289102
1.1279e-07
2.79142e-06
3.74538e-05
0.000213181
0.000539423
0.00088667
0.00119689
0.00146005
0.00168021
0.0018643
0.00201899
0.00214999
0.00226185
0.00235811
0.00244162
0.00251463
0.00257891
0.00263585
0.00268656
0.00273197
0.00277282
0.00280976
0.00284328
0.00287383
0.00290175
0.00292735
0.00295088
0.00297258
0.00299264
0.00301123
0.00302851
0.00304459
0.0030596
0.00307364
0.00308678
0.0030991
0.00311066
0.00312153
0.00313176
0.00314139
0.00315047
0.00315903
0.00316712
0.00317477
0.00318201
0.00318887
0.00319537
0.00320155
0.00320743
0.00321302
0.00321835
0.0032234
0.00322822
0.00323282
0.0032372
0.00324139
0.00324539
0.00324921
0.00325287
0.00325639
0.00325976
0.00326304
0.00326617
0.00326822
0.00327017
0.00327205
0.00327386
0.00327561
0.00327731
0.00327896
0.00328058
0.00328216
0.00328371
0.00328525
0.00328677
0.00328828
0.0032898
0.00329131
0.00329284
0.00329439
0.00329596
0.00329756
0.00329921
0.0033009
0.00330266
0.00330451
0.00330657
0.00331008
1.52836e-08
4.13811e-07
5.61107e-06
4.78493e-05
0.000213221
0.000519458
0.00086392
0.00118226
0.00146134
0.0017017
0.00190792
0.00208543
0.00223892
0.00237231
0.00248896
0.00259165
0.00268259
0.00276353
0.0028359
0.00290092
0.00295961
0.00301281
0.00306123
0.00310544
0.00314593
0.00318312
0.00321735
0.00324896
0.0032782
0.00330534
0.00333057
0.00335408
0.00337603
0.00339656
0.00341579
0.00343383
0.00345077
0.0034667
0.00348169
0.00349582
0.00350914
0.00352171
0.00353359
0.00354483
0.00355546
0.00356555
0.00357511
0.0035842
0.00359284
0.00360106
0.0036089
0.00361637
0.00362346
0.00363023
0.00363669
0.00364285
0.00364873
0.00365435
0.00365973
0.00366488
0.00366981
0.00367456
0.00367911
0.00368205
0.00368484
0.00368751
0.00369007
0.00369252
0.00369488
0.00369715
0.00369934
0.00370146
0.00370352
0.00370552
0.00370747
0.00370938
0.00371125
0.0037131
0.00371491
0.00371671
0.0037185
0.00372027
0.00372204
0.00372382
0.00372561
0.00372743
0.00372936
0.00373218
6.91558e-10
4.93239e-08
6.44167e-07
5.847e-06
3.72765e-05
0.000152012
0.000393207
0.000715685
0.00104261
0.00133979
0.00160343
0.001836
0.00204038
0.00222011
0.00237894
0.00252004
0.00264589
0.00275851
0.00285966
0.0029509
0.00303358
0.0031088
0.00317747
0.00324034
0.00329805
0.00335114
0.00340011
0.00344537
0.00348731
0.00352627
0.00356253
0.00359636
0.00362797
0.00365756
0.0036853
0.00371134
0.00373581
0.00375882
0.0037805
0.00380092
0.0038202
0.0038384
0.0038556
0.00387187
0.00388728
0.00390189
0.00391575
0.00392892
0.00394143
0.00395334
0.00396469
0.00397551
0.0039858
0.00399559
0.00400493
0.00401382
0.00402228
0.00403036
0.00403805
0.00404538
0.00405238
0.00405906
0.00406541
0.00406951
0.00407336
0.00407701
0.00408047
0.00408376
0.00408689
0.00408987
0.0040927
0.00409541
0.00409799
0.00410047
0.00410284
0.00410511
0.00410729
0.00410939
0.00411142
0.00411337
0.00411526
0.00411708
0.00411885
0.00412057
0.00412224
0.00412388
0.00412548
0.00412721
2.31913e-11
4.0095e-09
6.01262e-08
5.28181e-07
3.51041e-06
1.82577e-05
7.20684e-05
0.000205477
0.000436174
0.000732862
0.00104261
0.0013319
0.00159185
0.00182481
0.00203447
0.00222329
0.00239314
0.00254601
0.00268404
0.00280924
0.00292332
0.00302763
0.00312324
0.00321103
0.00329179
0.00336623
0.003435
0.00349867
0.00355778
0.00361278
0.00366406
0.00371198
0.00375682
0.00379884
0.00383827
0.00387531
0.00391014
0.00394293
0.00397382
0.00400294
0.00403043
0.0040564
0.00408095
0.00410419
0.0041262
0.00414706
0.00416686
0.00418566
0.00420353
0.00422054
0.00423672
0.00425215
0.00426685
0.00428083
0.00429411
0.00430674
0.00431874
0.00433013
0.00434095
0.00435121
0.00436094
0.00437015
0.00437883
0.0043844
0.0043896
0.00439447
0.00439906
0.00440336
0.00440741
0.00441121
0.00441477
0.00441812
0.00442127
0.00442422
0.00442699
0.00442959
0.00443202
0.0044343
0.00443644
0.00443843
0.00444029
0.00444203
0.00444365
0.00444515
0.00444655
0.00444785
0.00444894
0.00444916
1.03638e-11
1.03877e-10
4.13219e-09
3.83346e-08
2.47946e-07
1.29437e-06
5.68345e-06
2.10711e-05
6.46093e-05
0.000159767
0.000322813
0.00055045
0.000818873
0.0010975
0.00136385
0.00160788
0.00182843
0.00202825
0.00221064
0.00237809
0.00253221
0.00267409
0.00280463
0.00292475
0.00303541
0.00313757
0.00323215
0.00331997
0.00340174
0.00347805
0.0035494
0.00361623
0.00367888
0.00373769
0.00379293
0.00384486
0.00389371
0.00393972
0.00398307
0.00402397
0.00406258
0.00409906
0.00413357
0.00416623
0.00419718
0.00422654
0.00425439
0.00428085
0.00430601
0.00432993
0.0043527
0.00437439
0.00439506
0.00441474
0.00443343
0.00445115
0.00446795
0.00448384
0.00449886
0.00451304
0.00452639
0.00453895
0.00455068
0.00455816
0.00456508
0.00457152
0.00457752
0.00458309
0.00458825
0.00459304
0.00459747
0.00460156
0.00460533
0.00460879
0.00461197
0.00461487
0.00461751
0.0046199
0.00462205
0.00462398
0.0046257
0.00462722
0.00462855
0.00462971
0.0046307
0.00463151
0.00463194
0.00463035
1.00201e-11
5.22525e-12
1.29135e-10
2.08164e-09
1.39214e-08
7.10118e-08
3.06885e-07
1.15724e-06
3.86948e-06
1.15399e-05
3.06385e-05
7.15398e-05
0.000145952
0.000262383
0.000422679
0.000620837
0.000844512
0.00107895
0.00131117
0.00153234
0.00173794
0.00192679
0.00209971
0.00225843
0.00240488
0.00254079
0.00266753
0.00278613
0.00289735
0.00300175
0.00309978
0.00319182
0.00327823
0.00335936
0.00343555
0.00350715
0.00357449
0.00363787
0.0036976
0.00375394
0.00380716
0.00385748
0.00390512
0.00395026
0.00399307
0.00403371
0.00407232
0.00410902
0.00414393
0.00417715
0.00420878
0.0042389
0.0042676
0.00429493
0.00432096
0.00434563
0.00436894
0.00439093
0.00441164
0.00443109
0.00444931
0.00446632
0.00448209
0.00449209
0.00450127
0.00450975
0.00451756
0.00452475
0.00453134
0.00453738
0.00454288
0.00454787
0.00455239
0.00455645
0.00456009
0.00456332
0.00456616
0.00456864
0.00457078
0.00457258
0.00457409
0.00457531
0.00457626
0.00457697
0.00457746
0.0045777
0.0045774
0.00457394
1.00133e-11
3.77806e-12
3.23113e-12
5.38823e-11
5.65689e-10
3.03518e-09
1.29444e-08
4.79854e-08
1.58855e-07
4.76234e-07
1.30833e-06
3.31929e-06
7.81894e-06
1.71387e-05
3.48739e-05
6.5639e-05
0.000114209
0.00018442
0.000278344
0.000395936
0.000535081
0.000691919
0.000861429
0.00103815
0.00121691
0.00139331
0.00156405
0.0017269
0.00188062
0.00202471
0.00215923
0.00228459
0.00240142
0.00251042
0.00261233
0.00270783
0.00279757
0.0028821
0.00296192
0.00303744
0.00310903
0.00317699
0.00324158
0.00330301
0.00336149
0.00341718
0.00347022
0.00352075
0.0035689
0.00361477
0.00365848
0.00370011
0.00373975
0.0037775
0.00381341
0.00384765
0.00387991
0.00391025
0.00393872
0.00396534
0.00399014
0.00401316
0.00403434
0.00404769
0.00405986
0.00407103
0.00408125
0.00409056
0.00409902
0.00410667
0.00411356
0.00411973
0.00412522
0.00413006
0.0041343
0.00413797
0.00414111
0.00414373
0.00414589
0.00414761
0.00414892
0.00414986
0.00415044
0.00415072
0.0041507
0.00415038
0.00414942
0.00414448
1.00148e-11
3.75e-12
1.83716e-12
1.59629e-12
9.97457e-12
8.51865e-11
4.07339e-10
1.52324e-09
4.99186e-09
1.47985e-08
4.03089e-08
1.01889e-07
2.40908e-07
5.36512e-07
1.13114e-06
2.26734e-06
4.33759e-06
7.94372e-06
1.39481e-05
2.34857e-05
3.79133e-05
5.86855e-05
8.71896e-05
0.000124575
0.000171628
0.000228708
0.000295743
0.000372268
0.000457487
0.000550352
0.00064963
0.000753987
0.00086205
0.000972477
0.001084
0.00119549
0.00130593
0.00141448
0.00152047
0.00162336
0.00172276
0.00181839
0.00191009
0.00199778
0.00208145
0.00216113
0.00223691
0.00230889
0.00237721
0.00244201
0.00250343
0.00256162
0.00261673
0.00266891
0.00271829
0.00276499
0.0028093
0.00285072
0.00288932
0.00292518
0.00295836
0.00298892
0.00301683
0.00303426
0.00305011
0.00306454
0.00307766
0.00308953
0.00310022
0.00310981
0.00311837
0.00312596
0.00313263
0.00313846
0.00314348
0.00314776
0.00315135
0.0031543
0.00315665
0.00315845
0.00315974
0.00316057
0.00316097
0.00316099
0.00316065
0.00315997
0.0031587
0.00315366
1.00165e-11
3.75007e-12
1.81519e-12
1.07078e-12
8.08191e-13
1.36579e-12
6.86816e-12
3.23751e-11
1.13644e-10
3.40374e-10
9.23209e-10
2.31793e-09
5.44672e-09
1.20705e-08
2.53669e-08
5.0797e-08
9.73431e-08
1.79236e-07
3.18224e-07
5.46307e-07
9.09125e-07
1.46968e-06
2.31295e-06
3.55004e-06
5.32213e-06
7.80175e-06
1.11915e-05
1.57185e-05
2.16259e-05
2.91612e-05
3.85631e-05
5.00484e-05
6.38009e-05
7.99616e-05
9.86231e-05
0.000119827
0.000143566
0.000169783
0.000198381
0.000229227
0.000262156
0.000296983