/*--------------------------------*- C++ -*----------------------------------*\
| =========                 |                                                 |
| \\      /  F ield         | OpenFOAM: The Open Source CFD Toolbox           |
|  \\    /   O peration     | Version:  5.x                                   |
|   \\  /    A nd           | Web:      www.OpenFOAM.org                      |
|    \\/     M anipulation  |                                                 |
\*---------------------------------------------------------------------------*/
FoamFile
{
    version     2.0;
    format      ascii;
    class       volScalarField;
    location    "400";
    object      p;
}
// * * * * * * * * * * * * * * * * * * * * * * * * * * * * * * * * * * * * * //

dimensions      [0 2 -2 0 0 0 0];

internalField   nonuniform List<scalar> 
20540
(
56.167
58.1976
56.167
58.1978
56.167
58.1986
56.167
58.1994
56.167
58.1999
56.167
58.1999
56.167
58.199
56.167
58.1967
56.167
58.1925
56.167
58.1857
56.167
58.1753
56.167
58.1604
56.167
58.14
56.167
58.113
56.167
58.0786
56.167
58.0358
56.167
57.9838
56.1669
57.9215
56.1669
57.8473
56.1668
57.7592
56.1666
57.6553
56.1664
57.5334
56.166
57.3913
56.1655
57.2275
56.1648
57.0408
56.1637
56.8315
56.1623
56.6019
56.1605
56.3581
56.1583
56.1112
56.156
55.8811
56.1541
55.7207
56.1532
55.6431
56.1532
55.6439
56.1542
55.723
56.156
55.8824
56.1582
56.1053
56.1603
56.3447
56.1621
56.5823
56.1635
56.8073
56.1646
57.0138
56.1654
57.1993
56.1659
57.3633
56.1663
57.5065
56.1666
57.6303
56.1667
57.7366
56.1668
57.8273
56.1669
57.9044
56.1669
57.9695
56.167
58.0244
56.167
58.0702
56.167
58.1077
56.167
58.1378
56.167
58.1613
56.167
58.1789
56.167
58.1918
56.167
58.2007
56.167
58.2066
56.167
58.2101
56.167
58.212
56.167
58.2127
56.167
58.2126
56.167
58.2121
56.167
58.2113
56.167
58.2106
56.167
58.2104
51.9163
37.2184
25.9387
17.1313
9.52987
2.46045
-4.21891
-10.5158
-16.4251
-22.0076
-27.2803
-32.2819
-37.0238
-41.5267
-45.811
-49.8912
-53.7902
-57.5193
-61.0934
-64.5198
-67.8057
-70.9567
-73.9774
-76.873
-79.6484
-82.3079
-84.8576
-87.302
-89.648
-91.9004
-94.0661
-96.1495
-98.1561
-100.09
-101.953
-103.751
-105.484
-107.156
-108.768
-110.323
-111.823
-113.269
-114.665
-116.014
-117.319
-118.584
-119.814
-121.013
-122.186
-123.338
-124.474
-125.6
-126.721
-127.844
-128.976
-130.125
-131.302
-132.518
-133.785
-135.118
-136.524
-138.037
-139.593
-141.177
-142.484
-143.704
-144.953
-146.227
-147.524
-148.843
-150.184
-151.546
-152.929
-154.336
-155.767
-157.224
-158.707
-160.222
-161.77
-163.356
-164.985
-166.666
-168.405
-170.226
-172.104
-174.252
-175.991
-180.48
51.9299
37.2203
25.9393
17.1316
9.53012
2.46064
-4.21876
-10.5157
-16.425
-22.0075
-27.2802
-32.2819
-37.0237
-41.5267
-45.8109
-49.8911
-53.7902
-57.5192
-61.0933
-64.5198
-67.8057
-70.9567
-73.9774
-76.8729
-79.6483
-82.3079
-84.8576
-87.302
-89.6479
-91.9004
-94.066
-96.1495
-98.1561
-100.089
-101.953
-103.751
-105.484
-107.156
-108.768
-110.323
-111.823
-113.269
-114.665
-116.014
-117.319
-118.584
-119.814
-121.013
-122.186
-123.338
-124.474
-125.6
-126.721
-127.844
-128.976
-130.125
-131.302
-132.518
-133.785
-135.118
-136.525
-138.037
-139.593
-141.177
-142.484
-143.704
-144.953
-146.227
-147.524
-148.844
-150.184
-151.546
-152.93
-154.337
-155.768
-157.224
-158.708
-160.223
-161.771
-163.357
-164.987
-166.668
-168.407
-170.228
-172.106
-174.256
-175.997
-180.33
51.9466
37.2241
25.9405
17.1323
9.53058
2.46098
-4.21848
-10.5155
-16.4248
-22.0074
-27.2801
-32.2817
-37.0236
-41.5266
-45.8108
-49.891
-53.7901
-57.5191
-61.0933
-64.5197
-67.8056
-70.9566
-73.9773
-76.8729
-79.6483
-82.3078
-84.8576
-87.302
-89.6479
-91.9004
-94.066
-96.1495
-98.156
-100.089
-101.953
-103.751
-105.484
-107.156
-108.768
-110.323
-111.823
-113.269
-114.665
-116.014
-117.319
-118.584
-119.814
-121.013
-122.186
-123.338
-124.474
-125.6
-126.721
-127.844
-128.976
-130.125
-131.302
-132.518
-133.785
-135.118
-136.525
-138.038
-139.594
-141.178
-142.485
-143.704
-144.954
-146.228
-147.525
-148.844
-150.185
-151.547
-152.931
-154.338
-155.769
-157.226
-158.709
-160.224
-161.772
-163.359
-164.989
-166.67
-168.41
-170.232
-172.11
-174.263
-176.005
-180.152
51.9588
37.2297
25.9423
17.1333
9.53124
2.46148
-4.21808
-10.5152
-16.4246
-22.0071
-27.2799
-32.2815
-37.0235
-41.5264
-45.8107
-49.8909
-53.79
-57.519
-61.0932
-64.5196
-67.8055
-70.9565
-73.9772
-76.8728
-79.6482
-82.3078
-84.8575
-87.3019
-89.6478
-91.9003
-94.0659
-96.1494
-98.156
-100.089
-101.953
-103.751
-105.484
-107.156
-108.768
-110.323
-111.823
-113.269
-114.665
-116.014
-117.319
-118.584
-119.814
-121.013
-122.186
-123.338
-124.474
-125.6
-126.721
-127.844
-128.976
-130.125
-131.302
-132.518
-133.785
-135.118
-136.525
-138.038
-139.594
-141.178
-142.485
-143.705
-144.954
-146.229
-147.526
-148.845
-150.186
-151.548
-152.932
-154.339
-155.77
-157.227
-158.711
-160.226
-161.775
-163.361
-164.992
-166.674
-168.414
-170.236
-172.116
-174.27
-176.009
-179.99
51.9678
37.2369
25.9448
17.1346
9.53214
2.46215
-4.21756
-10.5147
-16.4242
-22.0068
-27.2796
-32.2813
-37.0232
-41.5262
-45.8105
-49.8907
-53.7898
-57.5189
-61.093
-64.5195
-67.8054
-70.9564
-73.9771
-76.8727
-79.6481
-82.3077
-84.8574
-87.3018
-89.6478
-91.9002
-94.0659
-96.1494
-98.1559
-100.089
-101.953
-103.751
-105.484
-107.156
-108.768
-110.323
-111.822
-113.269
-114.665
-116.014
-117.319
-118.584
-119.814
-121.013
-122.186
-123.338
-124.474
-125.6
-126.721
-127.844
-128.976
-130.125
-131.302
-132.518
-133.786
-135.119
-136.526
-138.038
-139.595
-141.179
-142.486
-143.706
-144.955
-146.23
-147.527
-148.847
-150.187
-151.55
-152.934
-154.341
-155.772
-157.23
-158.714
-160.229
-161.778
-163.365
-164.996
-166.678
-168.419
-170.242
-172.122
-174.278
-176.009
-179.882
51.9749
37.2462
25.9482
17.1365
9.53335
2.46303
-4.21687
-10.5142
-16.4237
-22.0064
-27.2792
-32.281
-37.0229
-41.5259
-45.8102
-49.8905
-53.7896
-57.5187
-61.0928
-64.5194
-67.8053
-70.9563
-73.977
-76.8726
-79.648
-82.3076
-84.8573
-87.3017
-89.6476
-91.9001
-94.0658
-96.1493
-98.1558
-100.089
-101.953
-103.751
-105.484
-107.156
-108.768
-110.323
-111.822
-113.269
-114.665
-116.014
-117.319
-118.584
-119.814
-121.013
-122.186
-123.338
-124.474
-125.6
-126.721
-127.844
-128.976
-130.126
-131.302
-132.519
-133.786
-135.119
-136.526
-138.039
-139.596
-141.18
-142.487
-143.707
-144.956
-146.231
-147.529
-148.848
-150.189
-151.552
-152.936
-154.344
-155.775
-157.232
-158.717
-160.232
-161.781
-163.369
-165
-166.683
-168.424
-170.248
-172.13
-174.284
-176.007
-179.832
51.98
37.2576
25.9529
17.139
9.53497
2.4642
-4.21595
-10.5134
-16.4231
-22.0059
-27.2788
-32.2805
-37.0226
-41.5256
-45.8099
-49.8902
-53.7894
-57.5184
-61.0926
-64.5191
-67.8051
-70.9561
-73.9768
-76.8724
-79.6478
-82.3074
-84.8572
-87.3016
-89.6475
-91.9
-94.0656
-96.1492
-98.1557
-100.089
-101.953
-103.751
-105.484
-107.156
-108.768
-110.323
-111.822
-113.269
-114.665
-116.014
-117.319
-118.584
-119.814
-121.013
-122.186
-123.338
-124.474
-125.6
-126.721
-127.844
-128.976
-130.126
-131.303
-132.519
-133.786
-135.119
-136.527
-138.04
-139.597
-141.181
-142.488
-143.708
-144.958
-146.233
-147.531
-148.85
-150.191
-151.554
-152.939
-154.347
-155.778
-157.236
-158.721
-160.237
-161.786
-163.374
-165.005
-166.689
-168.431
-170.255
-172.138
-174.288
-176.004
-179.823
51.9827
37.2712
25.9591
17.1423
9.53713
2.46577
-4.21474
-10.5124
-16.4223
-22.0051
-27.2781
-32.28
-37.0221
-41.5252
-45.8095
-49.8899
-53.789
-57.5181
-61.0923
-64.5189
-67.8048
-70.9558
-73.9766
-76.8722
-79.6476
-82.3072
-84.857
-87.3014
-89.6473
-91.8998
-94.0655
-96.149
-98.1556
-100.089
-101.953
-103.75
-105.484
-107.156
-108.768
-110.323
-111.822
-113.269
-114.665
-116.014
-117.319
-118.584
-119.814
-121.013
-122.186
-123.338
-124.474
-125.6
-126.721
-127.845
-128.976
-130.126
-131.303
-132.519
-133.787
-135.12
-136.527
-138.041
-139.598
-141.183
-142.49
-143.71
-144.96
-146.235
-147.533
-148.853
-150.194
-151.557
-152.942
-154.35
-155.782
-157.24
-158.725
-160.241
-161.791
-163.379
-165.011
-166.695
-168.437
-170.262
-172.145
-174.288
-176.002
-179.826
51.9824
37.2871
25.9672
17.1468
9.54002
2.46784
-4.21315
-10.5111
-16.4212
-22.0042
-27.2773
-32.2793
-37.0214
-41.5246
-45.809
-49.8894
-53.7886
-57.5177
-61.0919
-64.5185
-67.8045
-70.9555
-73.9763
-76.8719
-79.6474
-82.307
-84.8567
-87.3011
-89.6471
-91.8996
-94.0653
-96.1488
-98.1554
-100.089
-101.953
-103.75
-105.484
-107.156
-108.768
-110.323
-111.822
-113.269
-114.665
-116.014
-117.319
-118.584
-119.814
-121.013
-122.186
-123.338
-124.474
-125.6
-126.722
-127.845
-128.977
-130.126
-131.303
-132.52
-133.787
-135.121
-136.528
-138.042
-139.599
-141.184
-142.492
-143.712
-144.962
-146.237
-147.535
-148.856
-150.197
-151.561
-152.946
-154.354
-155.786
-157.244
-158.73
-160.246
-161.796
-163.385
-165.017
-166.701
-168.444
-170.268
-172.151
-174.282
-175.998
-179.812
51.9788
37.3049
25.9775
17.1527
9.54385
2.47058
-4.21105
-10.5094
-16.4198
-22.003
-27.2763
-32.2784
-37.0206
-41.5238
-45.8083
-49.8888
-53.788
-57.5172
-61.0915
-64.5181
-67.8041
-70.9551
-73.9759
-76.8716
-79.647
-82.3066
-84.8564
-87.3008
-89.6468
-91.8994
-94.065
-96.1485
-98.1551
-100.089
-101.953
-103.75
-105.484
-107.155
-108.768
-110.323
-111.822
-113.268
-114.665
-116.013
-117.319
-118.584
-119.814
-121.013
-122.186
-123.338
-124.474
-125.6
-126.722
-127.845
-128.977
-130.127
-131.304
-132.52
-133.788
-135.122
-136.529
-138.043
-139.601
-141.186
-142.494
-143.714
-144.964
-146.24
-147.538
-148.859
-150.201
-151.564
-152.95
-154.358
-155.791
-157.249
-158.735
-160.252
-161.802
-163.391
-165.023
-166.707
-168.449
-170.272
-172.154
-174.267
-175.993
-179.758
51.9716
37.3244
25.9902
17.1604
9.5489
2.4742
-4.20828
-10.5072
-16.4179
-22.0014
-27.2749
-32.2771
-37.0195
-41.5228
-45.8074
-49.8879
-53.7872
-57.5165
-61.0908
-64.5175
-67.8035
-70.9546
-73.9754
-76.8711
-79.6466
-82.3062
-84.856
-87.3005
-89.6465
-91.899
-94.0647
-96.1482
-98.1548
-100.088
-101.952
-103.75
-105.483
-107.155
-108.767
-110.322
-111.822
-113.268
-114.664
-116.013
-117.318
-118.584
-119.814
-121.013
-122.186
-123.338
-124.474
-125.6
-126.722
-127.845
-128.977
-130.127
-131.304
-132.521
-133.789
-135.123
-136.531
-138.045
-139.602
-141.188
-142.496
-143.717
-144.967
-146.243
-147.541
-148.862
-150.204
-151.568
-152.954
-154.363
-155.796
-157.254
-158.74
-160.257
-161.807
-163.396
-165.028
-166.711
-168.452
-170.271
-172.151
-174.239
-175.981
-179.642
51.9604
37.3449
26.0055
17.1702
9.55551
2.47896
-4.20464
-10.5043
-16.4155
-21.9994
-27.2731
-32.2756
-37.0181
-41.5216
-45.8063
-49.8869
-53.7863
-57.5156
-61.09
-64.5167
-67.8028
-70.9539
-73.9748
-76.8705
-79.646
-82.3057
-84.8555
-87.3
-89.646
-91.8985
-94.0642
-96.1478
-98.1544
-100.088
-101.952
-103.749
-105.483
-107.155
-108.767
-110.322
-111.821
-113.268
-114.664
-116.013
-117.318
-118.584
-119.813
-121.012
-122.186
-123.338
-124.474
-125.6
-126.722
-127.845
-128.978
-130.127
-131.305
-132.522
-133.79
-135.123
-136.532
-138.046
-139.604
-141.189
-142.498
-143.72
-144.969
-146.246
-147.545
-148.866
-150.208
-151.572
-152.958
-154.367
-155.8
-157.259
-158.745
-160.261
-161.811
-163.399
-165.03
-166.712
-168.45
-170.263
-172.137
-174.192
-175.955
-179.448
51.945
37.3658
26.0232
17.1824
9.56404
2.48518
-4.19986
-10.5005
-16.4123
-21.9967
-27.2708
-32.2735
-37.0163
-41.5199
-45.8048
-49.8855
-53.785
-57.5144
-61.0889
-64.5157
-67.8018
-70.953
-73.9739
-76.8697
-79.6452
-82.3049
-84.8548
-87.2993
-89.6454
-91.8979
-94.0637
-96.1472
-98.1539
-100.087
-101.951
-103.749
-105.483
-107.154
-108.767
-110.322
-111.821
-113.268
-114.664
-116.013
-117.318
-118.583
-119.813
-121.012
-122.185
-123.338
-124.474
-125.6
-126.722
-127.845
-128.978
-130.128
-131.305
-132.522
-133.79
-135.124
-136.533
-138.047
-139.605
-141.191
-142.5
-143.722
-144.971
-146.248
-147.547
-148.869
-150.211
-151.576
-152.962
-154.371
-155.803
-157.262
-158.747
-160.263
-161.812
-163.399
-165.028
-166.706
-168.44
-170.244
-172.107
-174.119
-175.902
-179.17
51.9248
37.3865
26.0428
17.1974
9.57486
2.49323
-4.19364
-10.4955
-16.4082
-21.9932
-27.2677
-32.2708
-37.0139
-41.5178
-45.8028
-49.8837
-53.7833
-57.5129
-61.0875
-64.5143
-67.8006
-70.9518
-73.9728
-76.8686
-79.6443
-82.304
-84.8539
-87.2984
-89.6445
-91.8971
-94.0629
-96.1465
-98.1532
-100.087
-101.951
-103.748
-105.482
-107.154
-108.766
-110.321
-111.821
-113.267
-114.663
-116.012
-117.317
-118.583
-119.813
-121.012
-122.185
-123.337
-124.474
-125.6
-126.722
-127.845
-128.978
-130.128
-131.305
-132.522
-133.79
-135.125
-136.533
-138.047
-139.606
-141.191
-142.501
-143.724
-144.973
-146.249
-147.549
-148.87
-150.213
-151.577
-152.963
-154.372
-155.804
-157.262
-158.746
-160.261
-161.808
-163.392
-165.017
-166.689
-168.415
-170.205
-172.052
-174.012
-175.806
-178.805
51.8991
37.4072
26.0632
17.2148
9.58826
2.50348
-4.18561
-10.489
-16.4028
-21.9886
-27.2638
-32.2673
-37.0108
-41.515
-45.8002
-49.8814
-53.7812
-57.5109
-61.0856
-64.5126
-67.7989
-70.9503
-73.9714
-76.8673
-79.6429
-82.3028
-84.8527
-87.2973
-89.6434
-91.8961
-94.0619
-96.1455
-98.1522
-100.086
-101.95
-103.748
-105.481
-107.153
-108.765
-110.32
-111.82
-113.266
-114.663
-116.012
-117.317
-118.582
-119.812
-121.011
-122.184
-123.337
-124.473
-125.6
-126.722
-127.845
-128.978
-130.128
-131.305
-132.522
-133.79
-135.124
-136.533
-138.046
-139.606
-141.19
-142.501
-143.724
-144.972
-146.249
-147.548
-148.869
-150.212
-151.576
-152.961
-154.369
-155.8
-157.257
-158.739
-160.251
-161.795
-163.374
-164.993
-166.656
-168.37
-170.14
-171.959
-173.859
-175.645
-178.353
51.8666
37.4283
26.0833
17.2341
9.60433
2.51626
-4.17539
-10.4806
-16.3958
-21.9826
-27.2586
-32.2628
-37.0067
-41.5113
-45.7969
-49.8783
-53.7784
-57.5083
-61.0832
-64.5103
-67.7968
-70.9483
-73.9695
-76.8655
-79.6412
-82.3011
-84.8512
-87.2958
-89.642
-91.8947
-94.0606
-96.1443
-98.151
-100.085
-101.949
-103.746
-105.48
-107.152
-108.765
-110.319
-111.819
-113.266
-114.662
-116.011
-117.316
-118.581
-119.811
-121.011
-122.184
-123.336
-124.473
-125.599
-126.721
-127.844
-128.977
-130.127
-131.304
-132.521
-133.789
-135.123
-136.531
-138.044
-139.604
-141.187
-142.497
-143.722
-144.968
-146.244
-147.543
-148.864
-150.206
-151.569
-152.953
-154.359
-155.789
-157.242
-158.722
-160.229
-161.767
-163.339
-164.948
-166.598
-168.292
-170.034
-171.815
-173.643
-175.396
-177.812
51.825
37.4512
26.102
17.2541
9.62273
2.5317
-4.16268
-10.4701
-16.3869
-21.9749
-27.2519
-32.2569
-37.0014
-41.5065
-45.7926
-49.8743
-53.7747
-57.5049
-61.08
-64.5073
-67.794
-70.9456
-73.967
-76.8631
-79.639
-82.2989
-84.8491
-87.2938
-89.6401
-91.8929
-94.0588
-96.1426
-98.1494
-100.083
-101.947
-103.745
-105.479
-107.151
-108.763
-110.318
-111.818
-113.264
-114.661
-116.01
-117.315
-118.58
-119.81
-121.009
-122.182
-123.335
-124.471
-125.598
-126.719
-127.843
-128.975
-130.125
-131.303
-132.519
-133.786
-135.12
-136.528
-138.038
-139.599
-141.179
-142.489
-143.715
-144.959
-146.234
-147.532
-148.852
-150.192
-151.554
-152.935
-154.339
-155.764
-157.214
-158.688
-160.188
-161.717
-163.277
-164.871
-166.501
-168.167
-169.87
-171.599
-173.344
-175.036
-177.177
51.7726
37.477
26.1192
17.273
9.64247
2.54957
-4.14738
-10.457
-16.3756
-21.9652
-27.2433
-32.2492
-36.9946
-41.5003
-45.7869
-49.8692
-53.7699
-57.5004
-61.0759
-64.5035
-67.7903
-70.9422
-73.9637
-76.8599
-79.636
-82.2961
-84.8463
-87.2912
-89.6375
-91.8904
-94.0564
-96.1403
-98.1472
-100.081
-101.945
-103.743
-105.477
-107.149
-108.761
-110.317
-111.816
-113.263
-114.659
-116.008
-117.313
-118.579
-119.809
-121.008
-122.181
-123.333
-124.469
-125.595
-126.717
-127.841
-128.973
-130.122
-131.299
-132.515
-133.782
-135.114
-136.521
-138.028
-139.59
-141.165
-142.474
-143.7
-144.942
-146.215
-147.511
-148.828
-150.166
-151.524
-152.902
-154.301
-155.721
-157.163
-158.628
-160.118
-161.633
-163.176
-164.747
-166.348
-167.976
-169.626
-171.287
-172.937
-174.541
-176.438
51.7088
37.5057
26.136
17.2896
9.6619
2.56903
-4.12972
-10.4415
-16.362
-21.9531
-27.2326
-32.2396
-36.9859
-41.4924
-45.7797
-49.8625
-53.7637
-57.4947
-61.0705
-64.4984
-67.7856
-70.9377
-73.9594
-76.8558
-79.6321
-82.2923
-84.8427
-87.2877
-89.6342
-91.8872
-94.0533
-96.1372
-98.1442
-100.078
-101.942
-103.74
-105.474
-107.146
-108.759
-110.314
-111.814
-113.261
-114.657
-116.006
-117.311
-118.577
-119.806
-121.005
-122.178
-123.33
-124.466
-125.592
-126.713
-127.836
-128.968
-130.117
-131.293
-132.508
-133.773
-135.103
-136.508
-138.012
-139.574
-141.142
-142.448
-143.675
-144.913
-146.182
-147.474
-148.787
-150.12
-151.473
-152.845
-154.236
-155.646
-157.077
-158.529
-160.003
-161.498
-163.015
-164.555
-166.114
-167.69
-169.273
-170.848
-172.392
-173.89
-175.574
51.6328
37.5373
26.1534
17.3034
9.67907
2.58851
-4.11049
-10.4238
-16.346
-21.9386
-27.2195
-32.2277
-36.975
-41.4824
-45.7704
-49.8539
-53.7557
-57.4872
-61.0635
-64.4919
-67.7794
-70.9318
-73.9538
-76.8505
-79.627
-82.2874
-84.838
-87.2831
-89.6297
-91.8828
-94.0491
-96.1331
-98.1403
-100.074
-101.939
-103.737
-105.471
-107.143
-108.756
-110.311
-111.811
-113.258
-114.654
-116.003
-117.308
-118.573
-119.803
-121.002
-122.174
-123.326
-124.461
-125.587
-126.708
-127.83
-128.961
-130.109
-131.283
-132.496
-133.759
-135.086
-136.488
-137.986
-139.547
-141.106
-142.406
-143.631
-144.864
-146.127
-147.413
-148.719
-150.045
-151.389
-152.751
-154.13
-155.527
-156.941
-158.372
-159.821
-161.287
-162.768
-164.263
-165.768
-167.275
-168.775
-170.248
-171.675
-173.055
-174.553
51.5432
37.5735
26.1723
17.3154
9.69228
2.60545
-4.09137
-10.4046
-16.3278
-21.9219
-27.2041
-32.2136
-36.962
-41.4703
-45.759
-49.8431
-53.7456
-57.4778
-61.0547
-64.4836
-67.7716
-70.9244
-73.9467
-76.8437
-79.6204
-82.2811
-84.8319
-87.2772
-89.6239
-91.8772
-94.0435
-96.1277
-98.135
-100.069
-101.934
-103.732
-105.466
-107.138
-108.751
-110.307
-111.807
-113.253
-114.65
-115.999
-117.304
-118.569
-119.799
-120.997
-122.169
-123.32
-124.455
-125.579
-126.699
-127.82
-128.949
-130.095
-131.268
-132.478
-133.737
-135.059
-136.456
-137.946
-139.504
-141.049
-142.34
-143.562
-144.786
-146.04
-147.316
-148.612
-149.926
-151.256
-152.602
-153.963
-155.339
-156.728
-158.13
-159.544
-160.968
-162.399
-163.834
-165.266
-166.688
-168.086
-169.445
-170.747
-172.003
-173.337
51.438
37.6153
26.1943
17.3278
9.70279
2.61687
-4.07645
-10.3864
-16.3085
-21.9031
-27.1863
-32.197
-36.9466
-41.456
-45.7455
-49.8303
-53.7333
-57.4661
-61.0436
-64.4732
-67.7617
-70.915
-73.9378
-76.8351
-79.6121
-82.2731
-84.8241
-87.2696
-89.6165
-91.8699
-94.0363
-96.1207
-98.128
-100.062
-101.927
-103.725
-105.46
-107.132
-108.745
-110.301
-111.801
-113.248
-114.644
-115.993
-117.298
-118.563
-119.792
-120.99
-122.161
-123.311
-124.445
-125.568
-126.685
-127.804
-128.931
-130.075
-131.244
-132.449
-133.703
-135.018
-136.407
-137.885
-139.437
-140.962
-142.239
-143.453
-144.666
-145.905
-147.167
-148.446
-149.742
-151.051
-152.374
-153.708
-155.052
-156.405
-157.764
-159.128
-160.494
-161.858
-163.214
-164.555
-165.873
-167.155
-168.388
-169.559
-170.69
-171.874
51.3154
37.663
26.2207
17.3422
9.71455
2.62631
-4.06789
-10.3758
-16.294
-21.8848
-27.1666
-32.1777
-36.9285
-41.4391
-45.7296
-49.8151
-53.7188
-57.4522
-61.0304
-64.4606
-67.7498
-70.9037
-73.9269
-76.8246
-79.6019
-82.2632
-84.8144
-87.2601
-89.6071
-91.8606
-94.0272
-96.1116
-98.119
-100.053
-101.918
-103.717
-105.451
-107.124
-108.737
-110.293
-111.793
-113.24
-114.636
-115.985
-117.29
-118.555
-119.783
-120.98
-122.15
-123.299
-124.431
-125.551
-126.666
-127.781
-128.904
-130.043
-131.207
-132.405
-133.651
-134.956
-136.332
-137.794
-139.333
-140.832
-142.088
-143.288
-144.483
-145.702
-146.94
-148.195
-149.463
-150.741
-152.029
-153.323
-154.622
-155.923
-157.223
-158.52
-159.808
-161.083
-162.34
-163.571
-164.768
-165.92
-167.019
-168.056
-169.059
-170.102
51.1738
37.7165
26.252
17.3586
9.72849
2.6381
-4.05867
-10.3688
-16.2877
-21.877
-27.1553
-32.1621
-36.9096
-41.4186
-45.7093
-49.7958
-53.7007
-57.4352
-61.0143
-64.4455
-67.7356
-70.8902
-73.9141
-76.8123
-79.5901
-82.2517
-84.8032
-87.249
-89.5961
-91.8495
-94.016
-96.1004
-98.1078
-100.042
-101.907
-103.706
-105.44
-107.113
-108.726
-110.282
-111.782
-113.229
-114.626
-115.975
-117.279
-118.543
-119.771
-120.967
-122.135
-123.282
-124.411
-125.528
-126.638
-127.748
-128.865
-129.997
-131.152
-132.34
-133.573
-134.862
-136.22
-137.658
-139.177
-140.639
-141.864
-143.041
-144.21
-145.397
-146.602
-147.82
-149.046
-150.28
-151.516
-152.754
-153.988
-155.217
-156.437
-157.642
-158.829
-159.993
-161.127
-162.227
-163.284
-164.294
-165.248
-166.146
-167.016
-167.918
51.0123
37.7755
26.289
17.3773
9.74437
2.65182
-4.04723
-10.3591
-16.2796
-21.871
-27.151
-32.158
-36.904
-41.4103
-45.6973
-49.7798
-53.6811
-57.413
-60.991
-64.4226
-67.7141
-70.8708
-73.8967
-76.7968
-79.576
-82.2386
-84.7908
-87.237
-89.5842
-91.8376
-94.0039
-96.0879
-98.0951
-100.029
-101.894
-103.692
-105.426
-107.099
-108.712
-110.267
-111.768
-113.214
-114.611
-115.959
-117.263
-118.527
-119.753
-120.947
-122.113
-123.256
-124.381
-125.493
-126.598
-127.7
-128.806
-129.927
-131.069
-132.242
-133.456
-134.723
-136.053
-137.459
-138.943
-140.356
-141.537
-142.678
-143.809
-144.951
-146.107
-147.271
-148.44
-149.609
-150.774
-151.933
-153.081
-154.214
-155.328
-156.417
-157.478
-158.507
-159.497
-160.447
-161.35
-162.205
-163.008
-163.76
-164.49
-165.247
50.831
37.8389
26.332
17.398
9.76216
2.66734
-4.03436
-10.348
-16.2699
-21.8623
-27.1433
-32.1513
-36.8988
-41.4067
-45.6951
-49.7781
-53.6783
-57.408
-60.9829
-64.4111
-67.6994
-70.8531
-73.8766
-76.7748
-79.5527
-82.2147
-84.7669
-87.2136
-89.5615
-91.8159
-93.9831
-96.0683
-98.0765
-100.012
-101.877
-103.676
-105.411
-107.084
-108.698
-110.253
-111.753
-113.2
-114.596
-115.944
-117.247
-118.509
-119.733
-120.925
-122.087
-123.225
-124.344
-125.448
-126.543
-127.634
-128.726
-129.828
-130.95
-132.1
-133.286
-134.518
-135.808
-137.167
-138.599
-139.942
-141.061
-142.146
-143.219
-144.296
-145.38
-146.467
-147.552
-148.63
-149.696
-150.747
-151.777
-152.782
-153.758
-154.7
-155.604
-156.465
-157.281
-158.05
-158.769
-159.44
-160.061
-160.638
-161.196
-161.777
50.632
37.9049
26.3811
17.4206
9.78164
2.68459
-4.02011
-10.3357
-16.2592
-21.8528
-27.1351
-32.1437
-36.8916
-41.3997
-45.6884
-49.7719
-53.6727
-57.4031
-60.9788
-64.408
-67.6973
-70.8521
-73.8764
-76.7748
-79.5523
-82.2132
-84.7635
-87.2079
-89.5531
-91.8043
-93.9683
-96.0501
-98.055
-99.987
-101.85
-103.647
-105.379
-107.051
-108.662
-110.217
-111.715
-113.161
-114.556
-115.903
-117.205
-118.465
-119.688
-120.876
-122.034
-123.167
-124.278
-125.372
-126.455
-127.53
-128.604
-129.682
-130.774
-131.89
-133.036
-134.221
-135.455
-136.747
-138.106
-139.365
-140.403
-141.411
-142.403
-143.394
-144.383
-145.367
-146.341
-147.302
-148.242
-149.156
-150.042
-150.893
-151.706
-152.477
-153.201
-153.877
-154.503
-155.079
-155.605
-156.084
-156.517
-156.908
-157.275
-157.651
50.4204
37.971
26.4356
17.4447
9.8023
2.70319
-4.00479
-10.3226
-16.2477
-21.8427
-27.1262
-32.1355
-36.884
-41.3925
-45.682
-49.766
-53.667
-57.397
-60.9718
-64.4001
-67.6889
-70.8438
-73.8688
-76.7685
-79.5475
-82.21
-84.762
-87.208
-89.5545
-91.8069
-93.9716
-96.0537
-98.0587
-99.9905
-101.853
-103.649
-105.38
-107.05
-108.66
-110.212
-111.708
-113.15
-114.542
-115.884
-117.182
-118.436
-119.652
-120.832
-121.98
-123.101
-124.197
-125.274
-126.335
-127.385
-128.428
-129.47
-130.518
-131.579
-132.662
-133.774
-134.922
-136.114
-137.354
-138.489
-139.422
-140.318
-141.191
-142.055
-142.911
-143.754
-144.579
-145.381
-146.155
-146.895
-147.596
-148.254
-148.865
-149.423
-149.924
-150.363
-150.736
-151.042
-151.277
-151.438
-151.525
-151.534
-151.465
-151.33
50.206
38.0336
26.4929
17.4692
9.82319
2.72233
-3.98905
-10.3092
-16.2359
-21.8322
-27.1172
-32.1272
-36.8763
-41.3852
-45.6752
-49.7598
-53.6609
-57.3907
-60.965
-64.393
-67.682
-70.8377
-73.8638
-76.7646
-79.5445
-82.2077
-84.7599
-87.2056
-89.5515
-91.8028
-93.9662
-96.0469
-98.0504
-99.9806
-101.841
-103.636
-105.366
-107.034
-108.643
-110.193
-111.688
-113.128
-114.517
-115.857
-117.151
-118.401
-119.611
-120.783
-121.921
-123.028
-124.108
-125.163
-126.198
-127.215
-128.219
-129.215
-130.207
-131.201
-132.204
-133.223
-134.262
-135.323
-136.404
-137.407
-138.232
-138.99
-139.712
-140.422
-141.118
-141.795
-142.447
-143.07
-143.66
-144.212
-144.723
-145.191
-145.611
-145.982
-146.3
-146.564
-146.774
-146.929
-147.03
-147.079
-147.075
-147.02
-146.914
-146.759
50.006
38.088
26.5483
17.4922
9.84263
2.74047
-3.97407
-10.2965
-16.2247
-21.8222
-27.1085
-32.1193
-36.8689
-41.3781
-45.6686
-49.7537
-53.6551
-57.3848
-60.9586
-64.3863
-67.6752
-70.8312
-73.8579
-76.7595
-79.5403
-82.2042
-84.757
-87.2031
-89.5493
-91.8008
-93.9642
-96.0447
-98.0479
-99.9777
-101.838
-103.632
-105.361
-107.028
-108.634
-110.182
-111.674
-113.11
-114.495
-115.829
-117.116
-118.357
-119.556
-120.714
-121.835
-122.922
-123.975
-124.999
-125.996
-126.968
-127.919
-128.851
-129.768
-130.675
-131.577
-132.476
-133.375
-134.276
-135.173
-135.99
-136.653
-137.245
-137.796
-138.33
-138.846
-139.34
-139.805
-140.24
-140.643
-141.01
-141.342
-141.636
-141.894
-142.114
-142.296
-142.442
-142.552
-142.631
-142.68
-142.705
-142.707
-142.691
-142.659
-142.615
49.8666
38.1237
26.5883
17.5085
9.85625
2.75327
-3.96339
-10.2876
-16.2167
-21.8153
-27.1025
-32.1138
-36.8638
-41.3733
-45.6641
-49.7495
-53.651
-57.3806
-60.9541
-64.3815
-67.6703
-70.8266
-73.854
-76.7564
-79.538
-82.2025
-84.7558
-87.202
-89.5483
-91.7994
-93.9623
-96.042
-98.0442
-99.973
-101.832
-103.624
-105.352
-107.016
-108.621
-110.166
-111.654
-113.087
-114.466
-115.794
-117.073
-118.305
-119.492
-120.636
-121.738
-122.802
-123.828
-124.817
-125.773
-126.695
-127.587
-128.449
-129.285
-130.097
-130.888
-131.66
-132.413
-133.147
-133.859
-134.488
-134.985
-135.416
-135.808
-136.18
-136.53
-136.856
-137.154
-137.422
-137.659
-137.865
-138.04
-138.183
-138.295
-138.377
-138.428
-138.451
-138.447
-138.418
-138.369
-138.302
-138.22
-138.126
-138.021
-137.907
49.7992
38.1406
26.6083
17.5168
9.86329
2.75986
-3.9577
-10.283
-16.2124
-21.8116
-27.0992
-32.1109
-36.8611
-41.3706
-45.6616
-49.747
-53.6487
-57.3782
-60.9515
-64.3789
-67.6676
-70.8241
-73.8517
-76.7545
-79.5365
-82.2012
-84.7547
-87.2009
-89.5471
-91.798
-93.9607
-96.0401
-98.042
-99.9703
-101.829
-103.62
-105.347
-107.01
-108.613
-110.156
-111.641
-113.07
-114.444
-115.766
-117.037
-118.259
-119.432
-120.56
-121.643
-122.681
-123.677
-124.63
-125.542
-126.413
-127.244
-128.036
-128.79
-129.507
-130.19
-130.838
-131.451
-132.029
-132.568
-133.018
-133.361
-133.648
-133.9
-134.129
-134.337
-134.521
-134.677
-134.807
-134.909
-134.983
-135.032
-135.055
-135.053
-135.028
-134.979
-134.908
-134.817
-134.707
-134.583
-134.445
-134.297
-134.139
-133.972
-133.799
49.7996
38.1403
26.6081
17.5168
9.86337
2.7597
-3.95759
-10.2831
-16.2123
-21.8118
-27.0993
-32.1111
-36.8613
-41.3705
-45.6616
-49.7469
-53.6486
-57.3781
-60.9514
-64.3789
-67.6676
-70.8242
-73.8518
-76.7545
-79.5366
-82.2012
-84.7549
-87.2008
-89.5471
-91.7977
-93.9604
-96.0395
-98.0412
-99.9691
-101.827
-103.618
-105.343
-107.006
-108.607
-110.148
-111.63
-113.055
-114.424
-115.739
-117.002
-118.213
-119.373
-120.484
-121.545
-122.559
-123.524
-124.441
-125.309
-126.128
-126.899
-127.621
-128.295
-128.922
-129.5
-130.031
-130.514
-130.947
-131.326
-131.615
-131.819
-131.978
-132.106
-132.213
-132.298
-132.359
-132.396
-132.407
-132.393
-132.355
-132.295
-132.214
-132.113
-131.991
-131.851
-131.693
-131.52
-131.332
-131.134
-130.926
-130.711
-130.49
-130.264
-130.034
49.8678
38.1226
26.5876
17.5085
9.85651
2.75284
-3.96299
-10.2881
-16.2165
-21.8159
-27.1027
-32.1143
-36.8643
-41.3732
-45.6641
-49.749
-53.6507
-57.3802
-60.9537
-64.3814
-67.6701
-70.8267
-73.8541
-76.7565
-79.5384
-82.2026
-84.7562
-87.2018
-89.5481
-91.7985
-93.9613
-96.0403
-98.0419
-99.9696
-101.827
-103.617
-105.342
-107.004
-108.603
-110.142
-111.621
-113.042
-114.406
-115.715
-116.968
-118.168
-119.315
-120.409
-121.449
-122.437
-123.372
-124.252
-125.077
-125.847
-126.559
-127.215
-127.813
-128.353
-128.834
-129.257
-129.621
-129.922
-130.159
-130.305
-130.386
-130.433
-130.454
-130.456
-130.437
-130.396
-130.332
-130.244
-130.134
-130.002
-129.852
-129.683
-129.498
-129.296
-129.079
-128.848
-128.604
-128.35
-128.088
-127.82
-127.549
-127.274
-126.997
-126.72
50.006
38.0868
26.5479
17.4925
9.84328
2.73996
-3.97322
-10.2972
-16.2241
-21.8231
-27.1089
-32.12
-36.8696
-41.3779
-45.6686
-49.7528
-53.6545
-57.3841
-60.9579
-64.386
-67.6747
-70.8311
-73.8581
-76.7597
-79.5412
-82.2045
-84.7578
-87.2028
-89.5491
-91.7992
-93.9623
-96.0415
-98.0436
-99.9716
-101.83
-103.62
-105.345
-107.006
-108.604
-110.142
-111.619
-113.036
-114.396
-115.698
-116.943
-118.132
-119.264
-120.341
-121.36
-122.322
-123.226
-124.069
-124.852
-125.572
-126.228
-126.819
-127.344
-127.802
-128.194
-128.517
-128.772
-128.956
-129.063
-129.073
-129.039
-128.986
-128.915
-128.826
-128.718
-128.588
-128.436
-128.263
-128.069
-127.856
-127.626
-127.381
-127.123
-126.851
-126.566
-126.271
-125.967
-125.656
-125.34
-125.022
-124.703
-124.385
-124.068
-123.755
50.1992
38.0337
26.4942
17.4704
9.8247
2.72223
-3.98735
-10.3098
-16.2347
-21.833
-27.1173
-32.1279
-36.877
-41.3847
-45.675
-49.7584
-53.66
-57.3896
-60.9639
-64.3923
-67.6811
-70.8372
-73.8637
-76.7645
-79.5455
-82.2078
-84.761
-87.2051
-89.5516
-91.8011
-93.9644
-96.0433
-98.0454
-99.9732
-101.831
-103.621
-105.345
-107.006
-108.603
-110.139
-111.614
-113.029
-114.384
-115.681
-116.919
-118.098
-119.219
-120.281
-121.282
-122.223
-123.101
-123.915
-124.663
-125.342
-125.952
-126.49
-126.956
-127.348
-127.667
-127.912
-128.084
-128.179
-128.195
-128.093
-127.96
-127.834
-127.703
-127.553
-127.381
-127.188
-126.974
-126.739
-126.485
-126.212
-125.924
-125.621
-125.305
-124.976
-124.635
-124.283
-123.921
-123.551
-123.175
-122.794
-122.41
-122.023
-121.633
-121.24
50.4067
37.9729
26.4384
17.4469
9.80465
2.70353
-4.00231
-10.323
-16.2459
-21.8435
-27.1261
-32.1362
-36.8847
-41.3917
-45.6816
-49.7641
-53.6658
-57.3954
-60.9703
-64.3991
-67.6878
-70.8433
-73.8689