/*--------------------------------*- C++ -*----------------------------------*\
| =========                 |                                                 |
| \\      /  F ield         | OpenFOAM: The Open Source CFD Toolbox           |
|  \\    /   O peration     | Version:  5.x                                   |
|   \\  /    A nd           | Web:      www.OpenFOAM.org                      |
|    \\/     M anipulation  |                                                 |
\*---------------------------------------------------------------------------*/
FoamFile
{
    version     2.0;
    format      ascii;
    class       surfaceScalarField;
    location    "400";
    object      phi;
}
// * * * * * * * * * * * * * * * * * * * * * * * * * * * * * * * * * * * * * //

dimensions      [0 3 -1 0 0 0 0];

internalField   nonuniform List<scalar> 
40747
(
1.48846e-05
-4.07825e-09
6.49085e-06
8.39372e-06
1.80059e-05
-8.63885e-09
1.28336e-05
1.16632e-05
2.17819e-05
-1.38183e-08
1.94338e-05
1.51816e-05
2.63496e-05
-1.95221e-08
2.6393e-05
1.93905e-05
3.18749e-05
-2.55131e-08
3.37374e-05
2.45305e-05
3.85585e-05
-3.13309e-08
4.14455e-05
3.08504e-05
4.66432e-05
-3.61901e-08
4.94501e-05
3.86385e-05
5.64223e-05
-3.88655e-08
5.76346e-05
4.82377e-05
6.82511e-05
-3.7577e-08
6.58277e-05
6.00579e-05
8.25591e-05
-2.98858e-08
7.38e-05
7.45866e-05
9.9866e-05
-1.26048e-08
8.12666e-05
9.23991e-05
0.000120801
1.82855e-08
8.78996e-05
0.000114167
0.000146124
6.77175e-08
9.33578e-05
0.000140665
0.000176756
1.41596e-07
9.73416e-05
0.000172771
0.000213811
2.46788e-07
9.9682e-05
0.000211469
0.000258636
3.90953e-07
0.000100467
0.000257849
0.000312862
5.8209e-07
0.000100067
0.00031326
0.000378463
8.27782e-07
9.88826e-05
0.000379645
0.000457828
1.13434e-06
9.71484e-05
0.000459558
0.000553846
1.50582e-06
9.49399e-05
0.00055605
0.000670015
1.94272e-06
9.22364e-05
0.000672713
0.000810567
2.43986e-06
8.8967e-05
0.00081383
0.000980623
2.98352e-06
8.50319e-05
0.00098455
0.00118638
3.54749e-06
8.03102e-05
0.00119109
0.00143534
4.08806e-06
7.46591e-05
0.00144098
0.00173657
4.53821e-06
6.79118e-05
0.0017433
0.00210106
4.80192e-06
5.98726e-05
0.00210908
0.00254208
4.75126e-06
5.03103e-05
0.00255162
0.00307569
4.23063e-06
3.89468e-05
0.00308702
0.00372127
3.07827e-06
2.54314e-05
0.00373475
0.00356596
1.61881e-06
1.26316e-05
0.00357873
0.00356612
-5.70401e-09
-9.80357e-08
0.00357882
0.00356612
-1.62881e-06
-1.28287e-05
0.00357882
0.00356595
-3.08373e-06
-2.56307e-05
0.00357872
0.00360837
-4.20076e-06
-3.8739e-05
0.00362145
0.00300138
-4.72342e-06
-4.98258e-05
0.00301244
0.00249647
-4.79755e-06
-5.92098e-05
0.00250583
0.00207651
-4.56567e-06
-6.71471e-05
0.00208443
0.00172721
-4.14687e-06
-7.38504e-05
0.0017339
0.00143669
-3.632e-06
-7.95005e-05
0.00144233
0.00119506
-3.0859e-06
-8.42521e-05
0.0011998
0.000994086
-2.55202e-06
-8.82384e-05
0.00099806
0.000826925
-2.05735e-06
-9.15735e-05
0.00083025
0.000687886
-1.61694e-06
-9.43534e-05
0.000690658
0.000572236
-1.23743e-06
-9.66521e-05
0.000574528
0.000476038
-9.19758e-07
-9.85083e-05
0.000477889
0.00039602
-6.61171e-07
-9.98938e-05
0.000397401
0.000329458
-4.56519e-07
-0.000100661
0.000330221
0.000274087
-2.99202e-07
-0.000100501
0.000273924
0.000228025
-1.81918e-07
-9.90249e-05
0.000226548
0.000189706
-9.73889e-08
-9.60123e-05
0.000186692
0.000157828
-3.8899e-08
-9.1507e-05
0.000153321
0.000131306
-5.54745e-10
-8.57257e-05
0.000125524
0.000109242
2.26466e-08
-7.89628e-05
0.000102479
9.08851e-05
3.48454e-08
-7.15276e-05
8.34494e-05
7.56124e-05
3.93868e-08
-6.37064e-05
6.77909e-05
6.29059e-05
3.88977e-08
-5.57431e-05
5.49425e-05
5.23343e-05
3.53649e-08
-4.78315e-05
4.44226e-05
4.35389e-05
3.0221e-08
-4.01149e-05
3.58223e-05
3.62213e-05
2.44408e-08
-3.26897e-05
2.8796e-05
3.01333e-05
1.86424e-08
-2.56094e-05
2.3053e-05
2.50684e-05
1.31831e-08
-1.88877e-05
1.83467e-05
2.08547e-05
8.24167e-09
-1.24946e-05
1.44616e-05
1.73491e-05
3.89149e-09
-6.32845e-06
1.1183e-05
1.4433e-05
8.10452e-06
2.16355e-06
6.23017e-06
1.89763e-06
2.65927e-07
1.80025e-06
9.73774e-08
1.73783e-06
6.24157e-08
1.69327e-06
4.45582e-08
1.6596e-06
3.36756e-08
1.63304e-06
2.65521e-08
1.61146e-06
2.15796e-08
1.59357e-06
1.78957e-08
1.57849e-06
1.50745e-08
1.56563e-06
1.28607e-08
1.55453e-06
1.1098e-08
1.54487e-06
9.66803e-09
1.53638e-06
8.48597e-09
1.52889e-06
7.49082e-09
1.52225e-06
6.6375e-09
1.51635e-06
5.90254e-09
1.51108e-06
5.26685e-09
1.50636e-06
4.7188e-09
1.50211e-06
4.24523e-09
1.49828e-06
3.83435e-09
1.49481e-06
3.47632e-09
1.49164e-06
3.16297e-09
1.48876e-06
2.88838e-09
1.48611e-06
2.64733e-09
1.48368e-06
2.43438e-09
1.48143e-06
2.24495e-09
1.47936e-06
2.07385e-09
1.47744e-06
1.91804e-09
1.47566e-06
1.77428e-09
1.47402e-06
1.64149e-09
1.4725e-06
1.51809e-09
1.47109e-06
1.40369e-09
1.4698e-06
1.29722e-09
1.4686e-06
1.1982e-09
1.46749e-06
1.10571e-09
1.46647e-06
1.01913e-09
1.46554e-06
9.37602e-10
1.46468e-06
8.60327e-10
1.4639e-06
7.86313e-10
1.46318e-06
7.14447e-10
1.46254e-06
6.43496e-10
1.46197e-06
5.72099e-10
1.46148e-06
4.98892e-10
1.46106e-06
4.22475e-10
1.46072e-06
3.41556e-10
1.46046e-06
2.54903e-10
1.4603e-06
1.61307e-10
1.46025e-06
5.79714e-11
1.4603e-06
-5.46216e-11
1.46047e-06
-1.74815e-10
1.46078e-06
-3.04206e-10
1.46122e-06
-4.44566e-10
1.46181e-06
-5.98799e-10
1.46258e-06
-7.71725e-10
1.46355e-06
-9.67721e-10
1.46474e-06
-1.19446e-09
1.4662e-06
-1.45423e-09
1.46795e-06
-1.75162e-09
1.47004e-06
-2.0923e-09
1.4725e-06
-2.45236e-09
1.47549e-06
-2.99081e-09
1.47913e-06
-3.63927e-09
1.48161e-06
-2.48309e-09
1.48402e-06
-2.40415e-09
1.48667e-06
-2.64573e-09
1.48955e-06
-2.88729e-09
1.49261e-06
-3.06014e-09
1.49584e-06
-3.22161e-09
1.49922e-06
-3.383e-09
1.50277e-06
-3.54551e-09
1.50648e-06
-3.71501e-09
1.51037e-06
-3.89003e-09
1.51445e-06
-4.07599e-09
1.51872e-06
-4.27291e-09
1.5232e-06
-4.48601e-09
1.52792e-06
-4.72025e-09
1.5329e-06
-4.98182e-09
1.53818e-06
-5.2798e-09
1.5438e-06
-5.62574e-09
1.54983e-06
-6.03495e-09
1.55636e-06
-6.53945e-09
1.56354e-06
-7.17597e-09
1.57163e-06
-8.09895e-09
1.58119e-06
-9.54915e-09
1.59599e-06
-1.4782e-08
1.65339e-06
-5.73568e-08
-7.60735e-07
2.41418e-06
5.26816e-06
1.26252e-05
4.63269e-06
9.01393e-07
4.41583e-06
3.14237e-07
4.28454e-06
1.93709e-07
4.19261e-06
1.36479e-07
4.1237e-06
1.02594e-07
4.06952e-06
8.07238e-08
4.02554e-06
6.55645e-08
3.98906e-06
5.43727e-08
3.95833e-06
4.58084e-08
3.93209e-06
3.90978e-08
3.90943e-06
3.37531e-08
3.88968e-06
2.94189e-08
3.87233e-06
2.58321e-08
3.85701e-06
2.28103e-08
3.84343e-06
2.02172e-08
3.83135e-06
1.79815e-08
3.82057e-06
1.60486e-08
3.81091e-06
1.43816e-08
3.80221e-06
1.2943e-08
3.79435e-06
1.16953e-08
3.78722e-06
1.06092e-08
3.78073e-06
9.65896e-09
3.77479e-06
8.82626e-09
3.76934e-06
8.09498e-09
3.76433e-06
7.44834e-09
3.7597e-06
6.87198e-09
3.75542e-06
6.35057e-09
3.75146e-06
5.87429e-09
3.7478e-06
5.4344e-09
3.74441e-06
5.02691e-09
3.74128e-06
4.64823e-09
3.73839e-06
4.29651e-09
3.73571e-06
3.96941e-09
3.73325e-06
3.6649e-09
3.73097e-06
3.38066e-09
3.72888e-06
3.11443e-09
3.72696e-06
2.86377e-09
3.72519e-06
2.62598e-09
3.72359e-06
2.39795e-09
3.72213e-06
2.17613e-09
3.72082e-06
1.95654e-09
3.71966e-06
1.73491e-09
3.71866e-06
1.50685e-09
3.71782e-06
1.268e-09
3.71715e-06
1.01424e-09
3.71667e-06
7.41762e-10
3.71638e-06
4.46722e-10
3.71632e-06
1.1989e-10
3.7165e-06
-2.37098e-10
3.71695e-06
-6.19027e-10
3.71767e-06
-1.0315e-09
3.7187e-06
-1.48039e-09
3.72007e-06
-1.97576e-09
3.72183e-06
-2.53192e-09
3.72402e-06
-3.16464e-09
3.72672e-06
-3.894e-09
3.73e-06
-4.73195e-09
3.73393e-06
-5.68488e-09
3.73863e-06
-6.78564e-09
3.74409e-06
-7.91752e-09
3.75083e-06
-9.7272e-09
3.75891e-06
-1.17108e-08
3.76449e-06
-8.06209e-09
3.76995e-06
-7.85914e-09
3.77576e-06
-8.46115e-09
3.78213e-06
-9.25226e-09
3.78889e-06
-9.82376e-09
3.79602e-06
-1.0349e-08
3.80351e-06
-1.08723e-08
3.81137e-06
-1.1399e-08
3.8196e-06
-1.19478e-08
3.82823e-06
-1.25147e-08
3.83726e-06
-1.31177e-08
3.84675e-06
-1.3754e-08
3.8567e-06
-1.44447e-08
3.86718e-06
-1.51976e-08
3.87823e-06
-1.6039e-08
3.88993e-06
-1.69893e-08
3.90239e-06
-1.80894e-08
3.91572e-06
-1.9381e-08
3.93015e-06
-2.09754e-08
3.9459e-06
-2.29351e-08
3.96376e-06
-2.59673e-08
3.9841e-06
-2.98608e-08
4.01667e-06
-4.73108e-08
4.09096e-06
-1.31557e-07
-9.20762e-07
4.25107e-06
8.24108e-06
1.95657e-05
7.2263e-06
1.91617e-06
6.88445e-06
6.5608e-07
6.68506e-06
3.93102e-07
6.54776e-06
2.73781e-07
6.44567e-06
2.04677e-07
6.3658e-06
1.60599e-07
6.30111e-06
1.30252e-07
6.24755e-06
1.07933e-07
6.20247e-06
9.08888e-08
6.16401e-06
7.75558e-08
6.13081e-06
6.6947e-08
6.10188e-06
5.83504e-08
6.07648e-06
5.12367e-08
6.05404e-06
4.5243e-08
6.03416e-06
4.00983e-08
6.01648e-06
3.56614e-08
6.0007e-06
3.18259e-08
5.98656e-06
2.85189e-08
5.97384e-06
2.56676e-08
5.96234e-06
2.31966e-08
5.9519e-06
2.10475e-08
5.9424e-06
1.91683e-08
5.9337e-06
1.75223e-08
5.92572e-06
1.60767e-08
5.91837e-06
1.4798e-08
5.91159e-06
1.36571e-08
5.90531e-06
1.26237e-08
5.8995e-06
1.1678e-08
5.89413e-06
1.08032e-08
5.88916e-06
9.99124e-09
5.88457e-06
9.23586e-09
5.88034e-06
8.53334e-09
5.87642e-06
7.87966e-09
5.87282e-06
7.27073e-09
5.8695e-06
6.70231e-09
5.86645e-06
6.16988e-09
5.86364e-06
5.66872e-09
5.86108e-06
5.19341e-09
5.85874e-06
4.73772e-09
5.85663e-06
4.29441e-09
5.85474e-06
3.85538e-09
5.85306e-06
3.41184e-09
5.85162e-06
2.95483e-09
5.85042e-06
2.47537e-09
5.84947e-06
1.96505e-09
5.8488e-06
1.41609e-09
5.84843e-06
8.20716e-10
5.84839e-06
1.59934e-10
5.84872e-06
-5.62741e-10
5.84943e-06
-1.33628e-09
5.85057e-06
-2.1719e-09
5.85216e-06
-3.08162e-09
5.85427e-06
-4.08674e-09
5.85695e-06
-5.21684e-09
5.86029e-06
-6.50609e-09
5.86438e-06
-7.99459e-09
5.86936e-06
-9.7101e-09
5.87534e-06
-1.16612e-08
5.88249e-06
-1.39256e-08
5.8908e-06
-1.62302e-08
5.90109e-06
-2.00167e-08
5.91329e-06
-2.39086e-08
5.92185e-06
-1.66182e-08
5.93035e-06
-1.63529e-08
5.93925e-06
-1.7366e-08
5.94898e-06
-1.89719e-08
5.95931e-06
-2.01605e-08
5.97021e-06
-2.12442e-08
5.98165e-06
-2.23171e-08
5.99365e-06
-2.33945e-08
6.00622e-06
-2.45132e-08
6.01937e-06
-2.56684e-08
6.03315e-06
-2.68952e-08
6.04758e-06
-2.81894e-08
6.06273e-06
-2.9593e-08
6.07865e-06
-3.11215e-08
6.09543e-06
-3.28295e-08
6.11319e-06
-3.47571e-08
6.13208e-06
-3.6988e-08
6.1523e-06
-3.96036e-08
6.17414e-06
-4.28332e-08
6.19796e-06
-4.67643e-08
6.22493e-06
-5.29436e-08
6.25531e-06
-6.02034e-08
6.302e-06
-9.39547e-08
6.37639e-06
-2.05855e-07
-8.41582e-07
6.29731e-06
1.17451e-05
2.7211e-05
1.02611e-05
3.40017e-06
9.75564e-06
1.16159e-06
9.46937e-06
6.79371e-07
9.27529e-06
4.67855e-07
9.13221e-06
3.47752e-07
9.02082e-06
2.71994e-07
8.93088e-06
2.20193e-07
8.85655e-06
1.82255e-07
8.79409e-06
1.53357e-07
8.74085e-06
1.30795e-07
8.69493e-06
1.12867e-07
8.65492e-06
9.83541e-08
8.61981e-06
8.63505e-08
8.58881e-06
7.62396e-08
8.56134e-06
6.75616e-08
8.53692e-06
6.00773e-08
8.51514e-06
5.36085e-08
8.49563e-06
4.80329e-08
8.47807e-06
4.3229e-08
8.4622e-06
3.90691e-08
8.44779e-06
3.5454e-08
8.43467e-06
3.22948e-08
8.42267e-06
2.95288e-08
8.41164e-06
2.70998e-08
8.40149e-06
2.4951e-08
8.39211e-06
2.30326e-08
8.38344e-06
2.12935e-08
8.37541e-06
1.96998e-08
8.36799e-06
1.82238e-08
8.36113e-06
1.6852e-08
8.35478e-06
1.55745e-08
8.34893e-06
1.43852e-08
8.34353e-06
1.3278e-08
8.33856e-06
1.22461e-08
8.33398e-06
1.12826e-08
8.32977e-06
1.03801e-08
8.32591e-06
9.53072e-09
8.32239e-06
8.72531e-09
8.31917e-06
7.9533e-09
8.31627e-06
7.20233e-09
8.31368e-06
6.45846e-09
8.31139e-06
5.70662e-09
8.30942e-06
4.93128e-09
8.30778e-06
4.11699e-09
8.3065e-06
3.2492e-09
8.30561e-06
2.31453e-09
8.30513e-06
1.29961e-09
8.30512e-06
1.71809e-10
8.30562e-06
-1.06309e-09
8.30667e-06
-2.38579e-09
8.3083e-06
-3.81466e-09
8.31059e-06
-5.37008e-09
8.31358e-06
-7.08913e-09
8.31738e-06
-9.02295e-09
8.3221e-06
-1.12321e-08
8.32789e-06
-1.37854e-08
8.33492e-06
-1.67337e-08
8.34335e-06
-2.00894e-08
8.35342e-06
-2.39932e-08
8.36515e-06
-2.79553e-08
8.37965e-06
-3.45144e-08
8.39671e-06
-4.09694e-08
8.40881e-06
-2.87186e-08
8.42098e-06
-2.85135e-08
8.43361e-06
-2.99941e-08
8.44732e-06
-3.26863e-08
8.46191e-06
-3.47465e-08
8.47729e-06
-3.66214e-08
8.49344e-06
-3.84688e-08
8.51037e-06
-4.0319e-08
8.52809e-06
-4.2234e-08
8.54663e-06
-4.42091e-08
8.56603e-06
-4.63022e-08
8.58635e-06
-4.85084e-08
8.60765e-06
-5.08975e-08
8.63003e-06
-5.3496e-08
8.65358e-06
-5.63964e-08
8.67849e-06
-5.96666e-08
8.70493e-06
-6.34475e-08
8.73319e-06
-6.7875e-08
8.76368e-06
-7.33316e-08
8.79685e-06
-7.99496e-08
8.83421e-06
-9.03128e-08
8.87614e-06
-1.02092e-07
8.93666e-06
-1.54411e-07
9.01007e-06
-2.79159e-07
-6.95879e-07
8.86449e-06
1.60743e-05
3.56672e-05
1.4005e-05
5.46948e-06
1.32808e-05
1.88573e-06
1.28802e-05
1.08001e-06
1.26126e-05
7.35452e-07
1.2417e-05
5.43327e-07
1.22655e-05
4.23451e-07
1.21437e-05
3.42061e-07
1.20432e-05
2.82729e-07
1.19589e-05
2.3767e-07
1.18871e-05
2.02566e-07
1.18253e-05
1.74718e-07
1.17714e-05
1.522e-07
1.17242e-05
1.33591e-07
1.16825e-05
1.17925e-07
1.16456e-05
1.04483e-07
1.16127e-05
9.28927e-08
1.15835e-05
8.28767e-08
1.15573e-05
7.42464e-08
1.15337e-05
6.68152e-08
1.15124e-05
6.03845e-08
1.1493e-05
5.48004e-08
1.14754e-05
4.99232e-08
1.14593e-05
4.56548e-08
1.14445e-05
4.1907e-08
1.14308e-05
3.85914e-08
1.14182e-05
3.56302e-08
1.14066e-05
3.29443e-08
1.13958e-05
3.04807e-08
1.13858e-05
2.8197e-08
1.13766e-05
2.60723e-08
1.13681e-05
2.40921e-08
1.13602e-05
2.22472e-08
1.13529e-05
2.05289e-08
1.13463e-05
1.89268e-08
1.13401e-05
1.74309e-08
1.13345e-05
1.60295e-08
1.13293e-05
1.47107e-08
1.13246e-05
1.34604e-08
1.13203e-05
1.22622e-08
1.13164e-05
1.10968e-08
1.13129e-05
9.94228e-09
1.13098e-05
8.77509e-09
1.13072e-05
7.57079e-09
1.1305e-05
6.30509e-09
1.13033e-05
4.95506e-09
1.13022e-05
3.49969e-09
1.13015e-05
1.91791e-09
1.13016e-05
1.5893e-10
1.13023e-05
-1.76942e-09
1.13037e-05
-3.83697e-09
1.1306e-05
-6.07059e-09
1.13091e-05
-8.50164e-09
1.13132e-05
-1.11881e-08
1.13183e-05
-1.42099e-08
1.13248e-05
-1.76631e-08
1.13326e-05
-2.16555e-08
1.13422e-05
-2.62699e-08
1.13536e-05
-3.15253e-08
1.13673e-05
-3.76449e-08
1.13832e-05
-4.38617e-08
1.14028e-05
-5.41216e-08
1.14257e-05
-6.38826e-08
1.14421e-05
-4.51209e-08
1.14588e-05
-4.5194e-08
1.1476e-05
-4.72113e-08
1.14946e-05
-5.12754e-08
1.15144e-05
-5.45031e-08
1.15352e-05
-5.74484e-08
1.15571e-05
-6.03416e-08
1.158e-05
-6.32324e-08
1.1604e-05
-6.62152e-08
1.1629e-05
-6.92867e-08
1.16553e-05
-7.25341e-08
1.16827e-05
-7.59521e-08
1.17115e-05
-7.9646e-08
1.17416e-05
-8.36569e-08
1.17733e-05
-8.81252e-08
1.18068e-05
-9.31547e-08
1.18423e-05
-9.89589e-08
1.18802e-05
-1.05745e-07
1.19209e-05
-1.1408e-07
1.19651e-05
-1.24178e-07
1.20146e-05
-1.3979e-07
1.20699e-05
-1.57379e-07
1.21449e-05
-2.29326e-07
1.22198e-05
-3.53882e-07
-5.88639e-07
1.21127e-05
2.15075e-05
4.501e-05
1.87101e-05
8.26691e-06
1.76922e-05
2.90364e-06
1.71387e-05
1.63346e-06
1.67743e-05
1.09989e-06
1.65103e-05
8.07312e-07
1.63071e-05
6.26702e-07
1.61441e-05
5.04976e-07
1.60102e-05
4.16692e-07
1.5898e-05
3.49874e-07
1.58026e-05
2.97946e-07
1.57205e-05
2.56826e-07
1.56491e-05
2.23624e-07
1.55864e-05
1.96214e-07
1.55312e-05
1.73157e-07
1.54823e-05
1.53386e-07
1.54388e-05
1.36343e-07
1.54001e-05
1.21619e-07
1.53654e-05
1.08937e-07
1.53342e-05
9.80213e-08
1.5306e-05
8.85819e-08
1.52804e-05
8.03907e-08
1.52571e-05
7.32404e-08
1.52358e-05
6.69848e-08
1.52162e-05
6.14933e-08
1.51982e-05
5.66352e-08
1.51815e-05
5.22954e-08
1.51661e-05
4.83577e-08
1.51518e-05
4.47437e-08
1.51386e-05
4.13914e-08
1.51264e-05
3.82703e-08
1.51151e-05
3.53597e-08
1.51047e-05
3.26466e-08
1.50951e-05
3.01187e-08
1.50863e-05
2.77614e-08
1.50782e-05
2.55602e-08
1.50707e-05
2.34984e-08
1.50639e-05
2.15584e-08
1.50576e-05
1.97195e-08
1.50519e-05
1.79576e-08
1.50468e-05
1.62441e-08
1.50422e-05
1.45468e-08
1.50381e-05
1.28306e-08
1.50347e-05
1.10593e-08
1.50318e-05
9.19686e-09
1.50295e-05
7.2092e-09
1.5028e-05
5.06505e-09
1.50272e-05
2.73314e-09
1.50272e-05
1.39228e-10
1.50281e-05
-2.70802e-09
1.50301e-05
-5.76497e-09
1.5033e-05
-9.068e-09
1.50372e-05
-1.26626e-08
1.50426e-05
-1.66336e-08
1.50495e-05
-2.10983e-08
1.5058e-05
-2.61985e-08
1.50685e-05
-3.2093e-08
1.50811e-05
-3.89067e-08
1.50963e-05
-4.66698e-08
1.51143e-05
-5.57088e-08
1.51354e-05
-6.49201e-08
1.51612e-05
-7.9973e-08
1.51912e-05
-9.38828e-08
1.52129e-05
-6.67619e-08
1.52352e-05
-6.74573e-08
1.52581e-05
-7.01107e-08
1.52826e-05
-7.58512e-08
1.53087e-05
-8.05867e-08
1.53362e-05
-8.49334e-08
1.53651e-05
-8.91983e-08
1.53953e-05
-9.34508e-08
1.54269e-05
-9.78269e-08
1.54599e-05
-1.02324e-07
1.54945e-05
-1.07068e-07
1.55306e-05
-1.12051e-07
1.55683e-05
-1.17424e-07
1.56079e-05
-1.23245e-07
1.56495e-05
-1.29714e-07
1.56933e-05
-1.36978e-07
1.57397e-05
-1.4534e-07
1.5789e-05
-1.55094e-07
1.58419e-05
-1.67027e-07
1.58992e-05
-1.81472e-07
1.59628e-05
-2.03426e-07
1.60337e-05
-2.28201e-07
1.61245e-05
-3.19961e-07
1.62057e-05
-4.34968e-07
-5.74464e-07
1.61918e-05
2.83647e-05
5.52838e-05
2.46699e-05
1.19616e-05
2.32576e-05
4.316e-06
2.24983e-05
2.39276e-06
2.20049e-05
1.59328e-06
2.16507e-05
1.16144e-06
2.13798e-05
8.97654e-07
2.11635e-05
7.21221e-07
2.09863e-05
5.93976e-07
2.08381e-05
4.98041e-07
2.07123e-05
4.23689e-07
2.06042e-05
3.64935e-07
2.05103e-05
3.17572e-07
2.0428e-05
2.78523e-07
2.03554e-05
2.4571e-07
2.02912e-05
2.17597e-07
2.02342e-05
1.93376e-07
2.01833e-05
1.72458e-07
2.01378e-05
1.54445e-07
2.00969e-05
1.38949e-07
2.00599e-05
1.25556e-07
2.00264e-05
1.13941e-07
1.99958e-05
1.03807e-07
1.99679e-05
9.49448e-08
1.99422e-05
8.7166e-08
1.99185e-05
8.02848e-08
1.98967e-05
7.41371e-08
1.98765e-05
6.85581e-08
1.98578e-05
6.34358e-08
1.98405e-05
5.86827e-08
1.98245e-05
5.42552e-08
1.98097e-05
5.01246e-08
1.97961e-05
4.62731e-08
1.97835e-05
4.26839e-08
1.9772e-05
3.9337e-08
1.97613e-05
3.62122e-08
1.97515e-05
3.32858e-08
1.97426e-05
3.05333e-08
1.97344e-05
2.7925e-08
1.97269e-05
2.54266e-08
1.97202e-05
2.29974e-08
1.97141e-05
2.05916e-08
1.97088e-05
1.81591e-08
1.97042e-05
1.56483e-08
1.97004e-05
1.30077e-08
1.96975e-05
1.01886e-08
1.96954e-05
7.14623e-09
1.96943e-05
3.83605e-09
1.96943e-05
1.54386e-10
1.96955e-05
-3.89211e-09
1.9698e-05
-8.24391e-09
1.97018e-05
-1.29475e-08
1.97072e-05
-1.80663e-08
1.97143e-05
-2.37189e-08
1.97232e-05
-3.00698e-08
1.97343e-05
-3.73187e-08
1.97479e-05
-4.56891e-08
1.97644e-05
-5.53598e-08
1.97841e-05
-6.63785e-08
1.98076e-05
-7.91969e-08
1.9835e-05
-9.23172e-08
1.98685e-05
-1.1345e-07
1.99071e-05
-1.32466e-07
1.99351e-05
-9.4764e-08
1.99642e-05
-9.65801e-08
1.99941e-05
-1.00026e-07
2.00261e-05
-1.07774e-07
2.00599e-05
-1.14405e-07
2.00955e-05
-1.20541e-07
2.01329e-05
-1.26563e-07
2.0172e-05
-1.3256e-07
2.02129e-05
-1.38716e-07
2.02556e-05
-1.45028e-07
2.03002e-05
-1.51671e-07
2.03468e-05
-1.58634e-07
2.03954e-05
-1.66123e-07
2.04464e-05
-1.74214e-07
2.04999e-05
-1.8318e-07
2.05561e-05
-1.93218e-07
2.06154e-05
-2.04736e-07
2.06785e-05
-2.18135e-07
2.07459e-05
-2.34446e-07
2.08185e-05
-2.5418e-07
2.08987e-05
-2.83578e-07
2.09875e-05
-3.16978e-07
2.10958e-05
-4.28102e-07
2.11902e-05
-5.29077e-07
-6.65628e-07
2.12816e-05
3.70305e-05
6.6491e-05
3.22463e-05
1.67458e-05
3.03068e-05
6.2555e-06
2.92688e-05
3.43071e-06
2.86023e-05
2.25978e-06
2.81283e-05
1.63543e-06
2.77681e-05
1.25788e-06
2.7482e-05
1.00734e-06
2.72482e-05
8.27752e-07
2.70533e-05
6.92935e-07
2.68882e-05
5.88774e-07
2.67465e-05
5.06657e-07
2.66235e-05
4.40584e-07
2.65158e-05
3.86196e-07
2.6421e-05
3.40554e-07
2.63371e-05
3.01493e-07
2.62626e-05
2.67864e-07
2.61962e-05
2.38834e-07
2.61368e-05
2.13844e-07
2.60834e-05
1.92354e-07
2.60352e-05
1.7379e-07
2.59914e-05
1.577e-07
2.59516e-05
1.43669e-07
2.59151e-05
1.31402e-07
2.58816e-05
1.20636e-07
2.58508e-05
1.11113e-07
2.58223e-05
1.02604e-07
2.5796e-05
9.48832e-08
2.57716e-05
8.77929e-08
2.57491e-05
8.12128e-08
2.57283e-05
7.50819e-08
2.5709e-05
6.93611e-08
2.56912e-05
6.4026e-08
2.56749e-05
5.90546e-08
2.56598e-05
5.44196e-08
2.56459e-05
5.00935e-08
2.56332e-05
4.6044e-08
2.56215e-05
4.22368e-08
2.56108e-05
3.86309e-08
2.56011e-05
3.51783e-08
2.55922e-05
3.18228e-08
2.55844e-05
2.85006e-08
2.55774e-05
2.51423e-08
2.55714e-05
2.16763e-08
2.55664e-05
1.80311e-08
2.55625e-05
1.41391e-08
2.55597e-05
9.93804e-09
2.55582e-05
5.36624e-09
2.5558e-05
2.84014e-10
2.55594e-05
-5.30916e-09
2.55625e-05
-1.13361e-08
2.55674e-05
-1.7853e-08
2.55743e-05
-2.49462e-08
2.55833e-05
-3.2776e-08
2.55948e-05
-4.15659e-08
2.5609e-05
-5.15867e-08
2.56265e-05
-6.3143e-08
2.56476e-05
-7.64805e-08
2.56729e-05
-9.16729e-08
2.5703e-05
-1.09319e-07
2.57382e-05
-1.27475e-07
2.5781e-05
-1.56196e-07
2.58299e-05
-1.81414e-07
2.58656e-05
-1.30446e-07
2.59031e-05
-1.3406e-07
2.59416e-05
-1.38545e-07
2.59825e-05
-1.48674e-07
2.60258e-05
-1.57639e-07
2.60713e-05
-1.66012e-07
2.61189e-05
-1.74245e-07
2.61688e-05
-1.82433e-07
2.62209e-05
-1.90825e-07
2.62753e-05
-1.99409e-07
2.6332e-05
-2.08422e-07
2.63913e-05
-2.17846e-07
2.64531e-05
-2.27956e-07
2.65177e-05
-2.38844e-07
2.65854e-05
-2.50871e-07
2.66564e-05
-2.6429e-07
2.67313e-05
-2.7963e-07
2.68105e-05
-2.97418e-07
2.6895e-05
-3.18952e-07
2.69858e-05
-3.44979e-07
2.70851e-05
-3.82913e-07
2.71947e-05
-4.26426e-07
2.73227e-05
-5.5598e-07
2.74376e-05
-6.43648e-07
-8.46104e-07
2.76184e-05
4.79733e-05
7.85755e-05
4.18932e-05
2.28259e-05
3.92552e-05
8.89354e-06
3.78392e-05
4.8466e-06
3.69388e-05
3.16018e-06
3.63042e-05
2.27001e-06
3.58253e-05
1.73678e-06
3.5447e-05
1.38573e-06
3.5139e-05
1.13574e-06
3.48829e-05
9.48973e-07
3.46665e-05
8.05179e-07
3.44811e-05
6.92114e-07
3.43203e-05
6.01332e-07
3.41798e-05
5.26743e-07
3.4056e-05
4.64251e-07
3.39467e-05
4.10846e-07
3.38496e-05
3.6491e-07
3.37632e-05
3.2528e-07
3.36858e-05
2.91178e-07
3.36163e-05
2.61862e-07
3.35536e-05
2.36552e-07
3.34967e-05
2.14623e-07
3.34449e-05
1.95511e-07
3.33975e-05
1.78805e-07
3.3354e-05
1.64146e-07
3.33139e-05
1.51179e-07
3.32769e-05
1.39595e-07
3.32427e-05
1.29083e-07
3.3211e-05
1.19431e-07
3.31817e-05
1.10474e-07
3.31547e-05
1.02129e-07
3.31297e-05
9.43416e-08
3.31066e-05
8.70803e-08
3.30854e-05
8.03154e-08
3.30658e-05
7.40107e-08
3.30478e-05
6.81293e-08
3.30312e-05
6.26276e-08
3.3016e-05
5.74582e-08
3.30021e-05
5.25657e-08
3.29894e-05
4.78842e-08
3.29779e-05
4.3337e-08
3.29676e-05
3.88372e-08
3.29585e-05
3.42906e-08
3.29506e-05
2.95998e-08
3.2944e-05
2.46678e-08
3.29387e-05
1.94025e-08
3.2935e-05
1.37194e-08
3.29328e-05
7.53477e-09
3.29324e-05
6.66713e-10
3.2934e-05
-6.90161e-09
3.29377e-05
-1.50753e-08
3.29438e-05
-2.39177e-08
3.29523e-05
-3.35444e-08
3.29637e-05
-4.41672e-08
3.29782e-05
-5.60817e-08
3.29962e-05
-6.96455e-08
3.30183e-05
-8.52628e-08
3.30451e-05
-1.0326e-07
3.30772e-05
-1.23748e-07
3.31154e-05
-1.47495e-07
3.316e-05
-1.72064e-07
3.3214e-05
-2.10139e-07
3.32754e-05
-2.42821e-07
3.33203e-05
-1.75336e-07
3.33679e-05
-1.81617e-07
3.34168e-05
-1.8752e-07
3.34686e-05
-2.00462e-07
3.35233e-05
-2.12265e-07
3.35807e-05
-2.23389e-07
3.36408e-05
-2.34355e-07
3.37036e-05
-2.45258e-07
3.37692e-05
-2.56413e-07
3.38376e-05
-2.67801e-07
3.39089e-05
-2.79728e-07
3.39832e-05
-2.92168e-07
3.40607e-05
-3.05477e-07
3.41416e-05
-3.19762e-07
3.42262e-05
-3.35486e-07
3.43148e-05
-3.52963e-07
3.4408e-05
-3.7286e-07
3.45064e-05
-3.95846e-07
3.46109e-05
-4.23505e-07
3.47228e-05
-4.56886e-07
3.48443e-05
-5.0441e-07
3.49776e-05
-5.5957e-07
3.51281e-05
-7.06204e-07
3.52708e-05
-7.8599e-07
-1.08843e-06
3.55136e-05
6.17616e-05
9.14003e-05
5.41825e-05
3.0405e-05
5.06303e-05
1.24457e-05
4.87021e-05
6.77478e-06
4.74841e-05
4.37817e-06
4.66328e-05
3.1213e-06
4.5995e-05
2.37464e-06
4.54938e-05
1.88688e-06
4.50876e-05
1.54195e-06
4.4751e-05
1.28559e-06
4.44672e-05
1.08899e-06
4.42244e-05
9.34848e-07
4.40144e-05
8.11385e-07
4.38309e-05
7.10162e-07
4.36697e-05
6.25516e-07
4.35272e-05
5.53304e-07
4.34008e-05
4.91268e-07
4.32883e-05
4.37791e-07
4.31877e-05
3.91794e-07
4.30973e-05
3.52265e-07
4.30157e-05
3.18152e-07
4.29417e-05
2.8861e-07
4.28744e-05
2.62874e-07
4.28128e-05
2.40384e-07
4.27563e-05
2.2065e-07
4.27043e-05
2.03196e-07
4.26563e-05
1.87603e-07
4.26119e-05
1.73457e-07
4.25708e-05
1.60472e-07
4.25329e-05
1.48426e-07
4.24978e-05
1.37205e-07
4.24653e-05
1.26737e-07
4.24354e-05
1.16979e-07
4.24079e-05
1.07892e-07
4.23824e-05
9.94275e-08
4.2359e-05
9.15372e-08
4.23375e-05
8.41624e-08
4.23178e-05
7.72393e-08
4.22997e-05
7.06927e-08
4.22832e-05
6.4434e-08
4.22682e-05
5.83598e-08
4.22547e-05
5.23536e-08
4.22427e-05
4.62893e-08
4.22323e-05
4.00368e-08
4.22236e-05
3.34662e-08
4.22166e-05
2.64546e-08
4.22114e-05
1.88887e-08
4.22083e-05
1.06574e-08
4.22075e-05
1.5309e-09
4.22091e-05
-8.53845e-09
4.22135e-05
-1.94405e-08
4.22207e-05
-3.12408e-08
4.22312e-05
-4.40916e-08
4.22453e-05
-5.82679e-08
4.22633e-05
-7.41532e-08
4.22859e-05
-9.22084e-08
4.23135e-05
-1.12959e-07
4.23471e-05
-1.36827e-07
4.23874e-05
-1.63976e-07
4.24352e-05
-1.95358e-07
4.24912e-05
-2.28017e-07
4.25586e-05
-2.77493e-07
4.26349e-05
-3.19117e-07
4.26908e-05
-2.31181e-07
4.27504e-05
-2.41194e-07
4.28119e-05
-2.49068e-07
4.28768e-05
-2.6534e-07
4.29451e-05
-2.80564e-07
4.30168e-05
-2.9503e-07
4.30917e-05
-3.09331e-07
4.31701e-05
-3.23548e-07
4.32517e-05
-3.38078e-07
4.33368e-05
-3.52879e-07
4.34254e-05
-3.68346e-07
4.35177e-05
-3.84435e-07
4.36138e-05
-4.01599e-07
4.37139e-05
-4.19959e-07
4.38185e-05
-4.40091e-07
4.39279e-05
-4.62376e-07
4.40426e-05
-4.87632e-07
4.41634e-05
-5.1669e-07
4.42913e-05
-5.51425e-07
4.44276e-05
-5.93262e-07
4.45746e-05
-6.5137e-07
4.4735e-05
-7.19734e-07
4.49108e-05
-8.81695e-07
4.50878e-05
-9.62511e-07
-1.36617e-06
4.53661e-05
7.90785e-05
0.000104721
6.98321e-05
3.96514e-05
6.51048e-05
1.7173e-05
6.24851e-05
9.39443e-06
6.08346e-05
6.0287e-06
5.9689e-05
4.26683e-06
5.88367e-05
3.22698e-06
5.81709e-05
2.55265e-06
5.76337e-05
2.07913e-06
5.71901e-05
1.7292e-06
5.68171e-05
1.46196e-06
5.64988e-05
1.25312e-06
5.62239e-05
1.08629e-06
5.59842e-05
9.4985e-07
5.57737e-05
8.36003e-07
5.55879e-05
7.39084e-07
5.54232e-05
6.55946e-07
5.52766e-05
5.84354e-07
5.51456e-05
5.22808e-07
5.5028e-05
4.69934e-07
5.49218e-05
4.24325e-07
5.48256e-05
3.84842e-07
5.47381e-05
3.50461e-07
5.4658e-05
3.20422e-07
5.45846e-05
2.94066e-07
5.45171e-05
2.70756e-07
5.44547e-05
2.49932e-07
5.43971e-05
2.31049e-07
5.43438e-05
2.13722e-07
5.42945e-05
1.97658e-07
5.4249e-05
1.82702e-07
5.4207e-05
1.68757e-07
5.41682e-05
1.55763e-07
5.41324e-05
1.43669e-07
5.40994e-05
1.32414e-07
5.4069e-05
1.21931e-07
5.40411e-05
1.12143e-07
5.40154e-05
1.02965e-07
5.39918e-05
9.42949e-08
5.39703e-05
8.60155e-08
5.39507e-05
7.79892e-08
5.39331e-05
7.00612e-08
5.39173e-05
6.20649e-08
5.39036e-05
5.38285e-08
5.3892e-05
4.51806e-08
5.38825e-05
3.59595e-08
5.38754e-05
2.60151e-08
5.38709e-05
1.52021e-08
5.38692e-05
3.23948e-09
5.38706e-05
-9.97331e-09
5.38755e-05
-2.4318e-08
5.3884e-05
-3.98525e-08
5.38967e-05
-5.6776e-08
5.39138e-05
-7.54396e-08
5.39359e-05
-9.6333e-08
5.39637e-05
-1.20039e-07
5.39979e-05
-1.47229e-07
5.40396e-05
-1.78436e-07
5.40895e-05
-2.13893e-07
5.41489e-05
-2.54754e-07
5.42184e-05
-2.97525e-07
5.43018e-05
-3.60761e-07
5.43957e-05
-4.13091e-07
5.44646e-05
-2.99954e-07
5.45383e-05
-3.14946e-07
5.46148e-05
-3.25558e-07
5.46953e-05
-3.45794e-07
5.47799e-05
-3.65127e-07
5.48685e-05
-3.83616e-07
5.49611e-05
-4.01942e-07
5.50577e-05
-4.20164e-07
5.51584e-05
-4.38766e-07
5.52632e-05
-4.57679e-07
5.53722e-05
-4.77397e-07
5.54857e-05
-4.97854e-07
5.56036e-05
-5.19613e-07
5.57265e-05
-5.42807e-07
5.58545e-05
-5.68136e-07
5.59881e-05
-5.96054e-07
5.61279e-05
-6.27539e-07
5.62748e-05
-6.63603e-07
5.64297e-05
-7.06406e-07
5.65942e-05
-7.57818e-07
5.67703e-05
-8.27419e-07
5.69614e-05
-9.10491e-07
5.71658e-05
-1.08567e-06
5.73821e-05
-1.17811e-06
-1.65982e-06
5.76763e-05
0.000100732
0.000118155
8.97352e-05
5.06484e-05
8.35353e-05
2.33728e-05
7.99903e-05
1.29393e-05
7.77504e-05
8.26862e-06
7.62034e-05
5.81378e-06
7.50597e-05
4.37071e-06
7.41715e-05
3.4408e-06
7.34583e-05
2.79235e-06
7.28715e-05
2.31595e-06
7.23797e-05
1.95379e-06
7.1961e-05
1.67177e-06
7.16002e-05
1.44713e-06
7.12861e-05
1.26392e-06
7.10106e-05
1.11143e-06
7.07677e-05
9.81933e-07
7.05526e-05
8.7105e-07
7.03613e-05
7.75688e-07
7.01903e-05
6.93765e-07
7.00369e-05
6.2341e-07
6.98985e-05
5.62751e-07
6.97731e-05
5.10255e-07
6.9659e-05
4.64562e-07
6.95549e-05
4.24645e-07
6.94593e-05
3.89624e-07
6.93714e-05
3.58651e-07
6.92903e-05
3.30985e-07
6.92154e-05
3.05911e-07
6.91462e-05
2.82918e-07
6.90822e-05
2.61619e-07
6.9023e-05
2.41804e-07
6.89684e-05
2.23341e-07
6.8918e-05
2.06151e-07
6.88715e-05
1.90164e-07
6.88286e-05
1.75299e-07
6.87891e-05
1.61468e-07
6.87527e-05
1.4857e-07
6.87192e-05
1.3649e-07
6.86885e-05
1.25095e-07
6.86603e-05
1.14227e-07
6.86347e-05
1.03707e-07
6.86115e-05
9.33294e-08
6.85908e-05
8.28778e-08
6.85726e-05
7.21271e-08
6.8557e-05
6.08539e-08
6.85442e-05
4.88472e-08
6.85343e-05
3.59112e-08
6.85277e-05
2.18574e-08
6.85246e-05
6.35419e-09
6.85254e-05
-1.07839e-08
6.85305e-05
-2.94439e-08
6.85402e-05
-4.96618e-08
6.85551e-05
-7.16953e-08
6.85755e-05
-9.59864e-08
6.86022e-05
-1.23152e-07
6.86361e-05
-1.53918e-07
6.86779e-05
-1.89128e-07
6.8729e-05
-2.29441e-07
6.87903e-05
-2.75183e-07
6.88633e-05
-3.27718e-07
6.89488e-05
-3.8302e-07
6.90508e-05
-4.62716e-07
6.91657e-05
-5.27897e-07
6.92496e-05
-3.83861e-07
6.93399e-05
-4.05234e-07
6.9434e-05
-4.196e-07
6.95328e-05
-4.44573e-07
6.96365e-05
-4.68835e-07
6.97451e-05
-4.92147e-07
6.98584e-05
-5.15296e-07
6.99766e-05
-5.38315e-07
7.00996e-05
-5.61785e-07
7.02276e-05
-5.85606e-07
7.03605e-05
-6.1038e-07
7.04987e-05
-6.36022e-07
7.06422e-05
-6.63204e-07
7.07915e-05
-6.92082e-07
7.09467e-05
-7.23476e-07
7.11085e-05
-7.5793e-07
7.12775e-05
-7.96578e-07
7.14545e-05
-8.40634e-07
7.16405e-05
-8.92523e-07
7.18373e-05
-9.54614e-07
7.20465e-05
-1.03651e-06
7.2272e-05
-1.13558e-06
7.25086e-05
-1.32163e-06
7.2767e-05
-1.43572e-06
-1.95827e-06
7.30661e-05
0.000127658
0.000131162
0.000114987
6.33198e-05
0.000107008
3.1351e-05
0.000102244
1.77035e-05
9.92037e-05
1.13089e-05
9.71076e-05
7.90984e-06
9.55658e-05
5.91254e-06
9.4375e-05
4.63153e-06
9.34234e-05
3.74399e-06
9.26436e-05
3.09576e-06
9.1992e-05
2.60533e-06
9.1439e-05
2.22482e-06
9.09634e-05
1.92271e-06
9.05502e-05
1.67706e-06
9.01884e-05
1.47317e-06
8.98698e-05
1.30051e-06
8.95878e-05
1.15299e-06
8.93371e-05
1.02631e-06
8.91133e-05
9.17578e-07