/*--------------------------------*- C++ -*----------------------------------*\
| =========                 |                                                 |
| \\      /  F ield         | OpenFOAM: The Open Source CFD Toolbox           |
|  \\    /   O peration     | Version:  5.x                                   |
|   \\  /    A nd           | Web:      www.OpenFOAM.org                      |
|    \\/     M anipulation  |                                                 |
\*---------------------------------------------------------------------------*/
FoamFile
{
    version     2.0;
    format      ascii;
    class       volVectorField;
    location    "400";
    object      U;
}
// * * * * * * * * * * * * * * * * * * * * * * * * * * * * * * * * * * * * * //

dimensions      [0 1 -1 0 0 0 0];

internalField   nonuniform List<vector> 
20540
(
(44.1648 -8.27094e-07 0)
(44.2271 0.00467567 0)
(44.1648 -2.59502e-06 0)
(44.227 0.0134777 0)
(44.1648 -4.57278e-06 0)
(44.2269 0.0220789 0)
(44.1648 -6.78672e-06 0)
(44.2268 0.0311541 0)
(44.1648 -9.18283e-06 0)
(44.2267 0.0407868 0)
(44.1648 -1.16222e-05 0)
(44.2266 0.0509479 0)
(44.1648 -1.38547e-05 0)
(44.2265 0.0615561 0)
(44.1648 -1.54743e-05 0)
(44.2265 0.0724778 0)
(44.1649 -1.58683e-05 0)
(44.2265 0.08351 0)
(44.165 -1.41699e-05 0)
(44.2266 0.0943734 0)
(44.1651 -9.21798e-06 0)
(44.2268 0.104715 0)
(44.1654 4.74166e-07 0)
(44.2272 0.114123 0)
(44.1657 1.6742e-05 0)
(44.2276 0.122155 0)
(44.1662 4.17829e-05 0)
(44.2282 0.128392 0)
(44.1667 7.81541e-05 0)
(44.2289 0.132547 0)
(44.1675 0.000128736 0)
(44.2298 0.134608 0)
(44.1684 0.000196624 0)
(44.2308 0.134837 0)
(44.1695 0.000284906 0)
(44.2321 0.133702 0)
(44.1708 0.000396356 0)
(44.2337 0.131681 0)
(44.1723 0.000533072 0)
(44.2355 0.129004 0)
(44.1741 0.000696006 0)
(44.2377 0.125697 0)
(44.1762 0.000884255 0)
(44.2403 0.121683 0)
(44.1787 0.00109406 0)
(44.2433 0.116845 0)
(44.1815 0.00131743 0)
(44.2467 0.111034 0)
(44.1847 0.00154031 0)
(44.2507 0.104071 0)
(44.1884 0.00174039 0)
(44.2551 0.0957494 0)
(44.1923 0.00188484 0)
(44.2599 0.0858251 0)
(44.1966 0.00192843 0)
(44.265 0.0740103 0)
(44.2008 0.00181387 0)
(44.2702 0.0599594 0)
(44.2048 0.00147637 0)
(44.275 0.0432437 0)
(44.2075 0.000948355 0)
(44.2784 0.0255611 0)
(44.2089 0.000325065 0)
(44.28 0.008413 0)
(44.2089 -0.000331187 0)
(44.28 -0.00871666 0)
(44.2075 -0.000953183 0)
(44.2783 -0.0258656 0)
(44.2048 -0.00147293 0)
(44.275 -0.0432772 0)
(44.2009 -0.00180355 0)
(44.2703 -0.0595323 0)
(44.1968 -0.00192318 0)
(44.2653 -0.0732767 0)
(44.1927 -0.00189063 0)
(44.2603 -0.084902 0)
(44.1888 -0.00175881 0)
(44.2556 -0.0947259 0)
(44.1852 -0.00157009 0)
(44.2513 -0.103014 0)
(44.182 -0.00135586 0)
(44.2474 -0.109992 0)
(44.1792 -0.00113793 0)
(44.2439 -0.115854 0)
(44.1767 -0.000930471 0)
(44.2409 -0.120767 0)
(44.1745 -0.00074191 0)
(44.2383 -0.124871 0)
(44.1727 -0.000576571 0)
(44.236 -0.128285 0)
(44.1711 -0.000435942 0)
(44.2341 -0.13109 0)
(44.1698 -0.000319624 0)
(44.2325 -0.133309 0)
(44.1686 -0.000226005 0)
(44.2312 -0.134821 0)
(44.1677 -0.000152734 0)
(44.23 -0.135276 0)
(44.1669 -9.7049e-05 0)
(44.2291 -0.134201 0)
(44.1662 -5.6064e-05 0)
(44.2284 -0.131251 0)
(44.1657 -2.70057e-05 0)
(44.2277 -0.126296 0)
(44.1653 -7.35693e-06 0)
(44.2272 -0.119477 0)
(44.1651 5.08143e-06 0)
(44.2268 -0.111122 0)
(44.1649 1.21744e-05 0)
(44.2265 -0.101627 0)
(44.1647 1.54616e-05 0)
(44.2264 -0.0913917 0)
(44.1646 1.61746e-05 0)
(44.2263 -0.0807738 0)
(44.1646 1.52634e-05 0)
(44.2263 -0.0700755 0)
(44.1646 1.34283e-05 0)
(44.2263 -0.0595321 0)
(44.1645 1.11586e-05 0)
(44.2264 -0.0493123 0)
(44.1645 8.7748e-06 0)
(44.2265 -0.0395253 0)
(44.1645 6.4727e-06 0)
(44.2266 -0.030237 0)
(44.1645 4.3597e-06 0)
(44.2267 -0.0214646 0)
(44.1645 2.47457e-06 0)
(44.2268 -0.0131081 0)
(44.1645 7.89728e-07 0)
(44.2268 -0.00454747 0)
(7.05396 0.0066102 0)
(5.82075 0.000181796 0)
(5.45918 7.12106e-05 0)
(5.23967 4.91345e-05 0)
(5.0871 3.67435e-05 0)
(4.97417 2.8868e-05 0)
(4.88655 2.35936e-05 0)
(4.81611 1.98541e-05 0)
(4.75813 1.70462e-05 0)
(4.70962 1.48689e-05 0)
(4.66844 1.31399e-05 0)
(4.6331 1.17407e-05 0)
(4.60243 1.05841e-05 0)
(4.57559 9.60682e-06 0)
(4.55195 8.7709e-06 0)
(4.53103 8.0496e-06 0)
(4.51247 7.43235e-06 0)
(4.49592 6.90363e-06 0)
(4.48114 6.45213e-06 0)
(4.46786 6.05959e-06 0)
(4.4559 5.71516e-06 0)
(4.44507 5.4053e-06 0)
(4.43523 5.12417e-06 0)
(4.42627 4.86095e-06 0)
(4.41807 4.60965e-06 0)
(4.41053 4.36093e-06 0)
(4.40359 4.11118e-06 0)
(4.39718 3.85845e-06 0)
(4.39126 3.60566e-06 0)
(4.38577 3.35821e-06 0)
(4.3807 3.12247e-06 0)
(4.37601 2.90564e-06 0)
(4.37167 2.71326e-06 0)
(4.36766 2.55069e-06 0)
(4.36396 2.42086e-06 0)
(4.36054 2.32556e-06 0)
(4.3574 2.26353e-06 0)
(4.3545 2.23158e-06 0)
(4.35184 2.22346e-06 0)
(4.3494 2.23127e-06 0)
(4.34718 2.24503e-06 0)
(4.34517 2.25423e-06 0)
(4.34337 2.24761e-06 0)
(4.34179 2.2146e-06 0)
(4.34042 2.14548e-06 0)
(4.33929 2.03266e-06 0)
(4.33841 1.87054e-06 0)
(4.33779 1.65632e-06 0)
(4.33745 1.39888e-06 0)
(4.33744 1.07824e-06 0)
(4.33777 6.41168e-07 0)
(4.33846 4.17671e-08 0)
(4.33955 -7.8797e-07 0)
(4.34107 -1.95301e-06 0)
(4.34307 -3.57897e-06 0)
(4.34561 -5.69126e-06 0)
(4.34877 -8.35548e-06 0)
(4.35265 -1.13849e-05 0)
(4.35737 -1.47749e-05 0)
(4.36301 -1.83315e-05 0)
(4.36979 -2.20819e-05 0)
(4.37747 -2.72852e-05 0)
(4.38787 -3.34022e-05 0)
(4.39686 -3.42067e-05 0)
(4.40435 -3.29985e-05 0)
(4.41158 -3.54326e-05 0)
(4.4199 -3.71321e-05 0)
(4.42876 -3.79389e-05 0)
(4.43811 -3.93005e-05 0)
(4.44794 -4.14275e-05 0)
(4.45824 -4.46026e-05 0)
(4.46902 -4.87637e-05 0)
(4.48032 -5.39488e-05 0)
(4.49214 -6.01363e-05 0)
(4.50453 -6.73798e-05 0)
(4.51752 -7.57894e-05 0)
(4.53116 -8.5507e-05 0)
(4.54554 -9.6704e-05 0)
(4.56072 -0.000109351 0)
(4.57686 -0.000123357 0)
(4.59411 -0.000138029 0)
(4.61267 -0.000152236 0)
(4.63299 -0.00016383 0)
(4.65511 -0.000167828 0)
(4.68208 -0.000166574 0)
(4.70814 -0.000196432 0)
(4.78662 -0.00170301 0)
(4.99267 -0.0217636 0)
(14.1916 0.0148495 0)
(11.7237 0.00088688 0)
(11.039 0.000318968 0)
(10.6533 0.000207733 0)
(10.3919 0.000152868 0)
(10.2005 0.000119558 0)
(10.0527 9.77193e-05 0)
(9.93394 8.23858e-05 0)
(9.83626 7.09e-05 0)
(9.75452 6.19807e-05 0)
(9.6851 5.48907e-05 0)
(9.62548 4.91586e-05 0)
(9.5737 4.44332e-05 0)
(9.52836 4.04433e-05 0)
(9.48839 3.70133e-05 0)
(9.45302 3.40121e-05 0)
(9.42161 3.13899e-05 0)
(9.39362 2.9101e-05 0)
(9.3686 2.71147e-05 0)
(9.34612 2.53855e-05 0)
(9.32584 2.38694e-05 0)
(9.30748 2.25271e-05 0)
(9.29079 2.13308e-05 0)
(9.27557 2.02535e-05 0)
(9.26162 1.92757e-05 0)
(9.2488 1.83681e-05 0)
(9.23697 1.75116e-05 0)
(9.22605 1.66844e-05 0)
(9.21595 1.58807e-05 0)
(9.2066 1.50976e-05 0)
(9.19795 1.43425e-05 0)
(9.18995 1.3623e-05 0)
(9.18257 1.29475e-05 0)
(9.17575 1.23225e-05 0)
(9.16945 1.17514e-05 0)
(9.16365 1.12354e-05 0)
(9.15831 1.07711e-05 0)
(9.1534 1.03519e-05 0)
(9.14889 9.9651e-06 0)
(9.14477 9.59341e-06 0)
(9.14103 9.21369e-06 0)
(9.13765 8.79894e-06 0)
(9.13463 8.31781e-06 0)
(9.13198 7.73735e-06 0)
(9.12972 7.02328e-06 0)
(9.12787 6.14305e-06 0)
(9.12644 5.06591e-06 0)
(9.12549 3.76193e-06 0)
(9.12505 2.19192e-06 0)
(9.12518 3.35899e-07 0)
(9.12592 -1.86912e-06 0)
(9.12732 -4.54218e-06 0)
(9.12943 -7.82793e-06 0)
(9.13231 -1.19638e-05 0)
(9.13606 -1.72604e-05 0)
(9.14079 -2.39194e-05 0)
(9.14667 -3.22365e-05 0)
(9.15386 -4.21117e-05 0)
(9.16257 -5.36481e-05 0)
(9.17299 -6.68771e-05 0)
(9.18549 -8.10599e-05 0)
(9.19964 -0.000102749 0)
(9.21882 -0.000127486 0)
(9.23544 -0.000135071 0)
(9.2495 -0.000135898 0)
(9.26285 -0.00015047 0)
(9.27805 -0.000168133 0)
(9.2943 -0.000182534 0)
(9.31145 -0.000197879 0)
(9.32948 -0.000215196 0)
(9.34839 -0.000235144 0)
(9.3682 -0.00025806 0)
(9.38893 -0.000284107 0)
(9.41063 -0.000313715 0)
(9.43336 -0.000347101 0)
(9.45719 -0.000385087 0)
(9.48222 -0.00042832 0)
(9.50858 -0.000478095 0)
(9.53642 -0.000535345 0)
(9.56598 -0.000601731 0)
(9.59755 -0.000678251 0)
(9.63149 -0.000767831 0)
(9.66856 -0.000870226 0)
(9.70892 -0.0010065 0)
(9.75747 -0.00115985 0)
(9.8059 -0.00188764 0)
(9.93104 -0.00671656 0)
(10.1144 -0.0650828 0)
(18.3841 0.0233551 0)
(15.1291 0.00207068 0)
(14.2221 0.00073734 0)
(13.7337 0.000465477 0)
(13.4096 0.000338722 0)
(13.1746 0.00026369 0)
(12.9942 0.000215124 0)
(12.8497 0.000181263 0)
(12.7311 0.000155985 0)
(12.6319 0.000136376 0)
(12.5478 0.000120802 0)
(12.4756 0.00010822 0)
(12.4129 9.78588e-05 0)
(12.358 8.91173e-05 0)
(12.3096 8.16018e-05 0)
(12.2668 7.50136e-05 0)
(12.2288 6.92363e-05 0)
(12.1949 6.41751e-05 0)
(12.1647 5.97685e-05 0)
(12.1375 5.59311e-05 0)
(12.113 5.25675e-05 0)
(12.0908 4.95991e-05 0)
(12.0706 4.6963e-05 0)
(12.0521 4.46063e-05 0)
(12.0352 4.24875e-05 0)
(12.0197 4.05462e-05 0)
(12.0054 3.87383e-05 0)
(11.9921 3.70116e-05 0)
(11.9799 3.5344e-05 0)
(11.9686 3.37206e-05 0)
(11.9581 3.21477e-05 0)
(11.9484 3.06349e-05 0)
(11.9394 2.91943e-05 0)
(11.9312 2.78357e-05 0)
(11.9236 2.65633e-05 0)
(11.9166 2.53783e-05 0)
(11.9101 2.42737e-05 0)
(11.9042 2.32372e-05 0)
(11.8987 2.22454e-05 0)
(11.8938 2.12658e-05 0)
(11.8893 2.02538e-05 0)
(11.8852 1.91557e-05 0)
(11.8816 1.79078e-05 0)
(11.8785 1.64411e-05 0)
(11.8758 1.46815e-05 0)
(11.8736 1.25557e-05 0)
(11.8719 9.99172e-06 0)
(11.8709 6.91442e-06 0)
(11.8704 3.20653e-06 0)
(11.8707 -1.15651e-06 0)
(11.8717 -6.2581e-06 0)
(11.8736 -1.23334e-05 0)
(11.8763 -1.96491e-05 0)
(11.88 -2.86506e-05 0)
(11.8847 -3.99361e-05 0)
(11.8907 -5.3991e-05 0)
(11.8981 -7.14612e-05 0)
(11.9072 -9.24145e-05 0)
(11.9182 -0.000117096 0)
(11.9313 -0.00014598 0)
(11.9471 -0.000176904 0)
(11.9649 -0.000225533 0)
(11.989 -0.000278429 0)
(12.0098 -0.000299349 0)
(12.0278 -0.000306302 0)
(12.0448 -0.000337341 0)
(12.064 -0.000380318 0)
(12.0844 -0.000417146 0)
(12.1061 -0.000455424 0)
(12.1288 -0.000497519 0)
(12.1526 -0.000544731 0)
(12.1776 -0.000598029 0)
(12.2037 -0.000657825 0)
(12.2311 -0.000725257 0)
(12.2597 -0.00080078 0)
(12.2896 -0.00088636 0)
(12.3211 -0.000983319 0)
(12.3542 -0.0010948 0)
(12.3892 -0.00122312 0)
(12.4262 -0.00137279 0)
(12.4658 -0.00154743 0)
(12.5083 -0.00175639 0)
(12.5546 -0.00200218 0)
(12.605 -0.0023478 0)
(12.665 -0.00273579 0)
(12.7259 -0.00443302 0)
(12.8647 -0.0113659 0)
(12.9829 -0.06458 0)
(21.696 0.0339582 0)
(17.7878 0.00392069 0)
(16.6656 0.00138544 0)
(16.0815 0.000851803 0)
(15.7012 0.000612755 0)
(15.4282 0.000474316 0)
(15.2198 0.000385789 0)
(15.0536 0.00032452 0)
(14.9175 0.000278979 0)
(14.8038 0.000243739 0)
(14.7075 0.000215798 0)
(14.6249 0.000193261 0)
(14.5532 0.000174735 0)
(14.4905 0.00015913 0)
(14.4352 0.000145724 0)
(14.3864 0.000133964 0)
(14.343 0.000123626 0)
(14.3043 0.000114544 0)
(14.2698 0.000106616 0)
(14.2388 9.97082e-05 0)
(14.2108 9.36548e-05 0)
(14.1855 8.8325e-05 0)
(14.1624 8.36049e-05 0)
(14.1414 7.94078e-05 0)
(14.1221 7.56622e-05 0)
(14.1044 7.22668e-05 0)
(14.088 6.9141e-05 0)
(14.0729 6.61856e-05 0)
(14.0589 6.33503e-05 0)
(14.0459 6.05949e-05 0)
(14.034 5.79185e-05 0)
(14.0229 5.53271e-05 0)
(14.0127 5.28342e-05 0)
(14.0032 5.04508e-05 0)
(13.9946 4.81798e-05 0)
(13.9866 4.60206e-05 0)
(13.9792 4.39609e-05 0)
(13.9725 4.19809e-05 0)
(13.9663 4.00441e-05 0)
(13.9606 3.80993e-05 0)
(13.9555 3.60751e-05 0)
(13.9509 3.38834e-05 0)
(13.9468 3.14179e-05 0)
(13.9433 2.85604e-05 0)
(13.9402 2.51813e-05 0)
(13.9378 2.11482e-05 0)
(13.9359 1.63271e-05 0)
(13.9348 1.05719e-05 0)
(13.9343 3.63506e-06 0)
(13.9347 -4.51778e-06 0)
(13.936 -1.39642e-05 0)
(13.9382 -2.50755e-05 0)
(13.9414 -3.82598e-05 0)
(13.9458 -5.4198e-05 0)
(13.9514 -7.38286e-05 0)
(13.9584 -9.80432e-05 0)
(13.9671 -0.000127977 0)
(13.9777 -0.000164104 0)
(13.9905 -0.000206921 0)
(14.0058 -0.000257762 0)
(14.0241 -0.000312282 0)
(14.045 -0.000399236 0)
(14.0729 -0.000491227 0)
(14.097 -0.00053388 0)
(14.1183 -0.000553008 0)
(14.1383 -0.000607483 0)
(14.1606 -0.000688528 0)
(14.1845 -0.000760566 0)
(14.2097 -0.000834654 0)
(14.2362 -0.000914921 0)
(14.264 -0.0010034 0)
(14.2931 -0.0011021 0)
(14.3235 -0.00121179 0)
(14.3554 -0.00133476 0)
(14.3887 -0.00147181 0)
(14.4235 -0.00162657 0)
(14.4601 -0.00180135 0)
(14.4986 -0.00200192 0)
(14.5391 -0.00223286 0)
(14.582 -0.00250303 0)
(14.6278 -0.00282069 0)
(14.6768 -0.0032057 0)
(14.7302 -0.00366727 0)
(14.7882 -0.00433214 0)
(14.8564 -0.00509196 0)
(14.9265 -0.00812437 0)
(15.0689 -0.0167075 0)
(15.1317 -0.0557276 0)
(24.5628 0.0457889 0)
(20.1066 0.00658484 0)
(18.7662 0.00233581 0)
(18.0857 0.00140352 0)
(17.6503 0.000998222 0)
(17.341 0.000768093 0)
(17.1064 0.000622625 0)
(16.92 0.000522698 0)
(16.7677 0.000448781 0)
(16.6408 0.000391752 0)
(16.5335 0.000346631 0)
(16.4414 0.0003103 0)
(16.3617 0.000280478 0)
(16.2919 0.00025539 0)
(16.2304 0.000233851 0)
(16.1761 0.000214948 0)
(16.1279 0.000198313 0)
(16.085 0.000183675 0)
(16.0466 0.000170884 0)
(16.0122 0.000159739 0)
(15.9811 0.000149981 0)
(15.953 0.000141405 0)
(15.9274 0.000133827 0)
(15.9041 0.000127112 0)
(15.8827 0.000121146 0)
(15.863 0.000115772 0)
(15.8448 0.000110858 0)
(15.828 0.000106238 0)
(15.8124 0.000101823 0)
(15.7981 9.75352e-05 0)
(15.7847 9.3363e-05 0)
(15.7725 8.93062e-05 0)
(15.7611 8.53799e-05 0)
(15.7506 8.15953e-05 0)
(15.741 7.7954e-05 0)
(15.7321 7.44518e-05 0)
(15.724 7.10697e-05 0)
(15.7165 6.77771e-05 0)
(15.7096 6.45204e-05 0)
(15.7034 6.12227e-05 0)
(15.6977 5.77765e-05 0)
(15.6926 5.40465e-05 0)
(15.6881 4.98684e-05 0)
(15.6841 4.50555e-05 0)
(15.6808 3.94021e-05 0)
(15.6781 3.26929e-05 0)
(15.6761 2.47072e-05 0)
(15.6748 1.51999e-05 0)
(15.6744 3.73862e-06 0)
(15.6748 -9.72914e-06 0)
(15.6763 -2.52614e-05 0)
(15.6788 -4.34053e-05 0)
(15.6825 -6.47591e-05 0)
(15.6874 -9.0317e-05 0)
(15.6937 -0.000121474 0)
(15.7016 -0.000159694 0)
(15.7114 -0.000206791 0)
(15.7233 -0.00026386 0)
(15.7377 -0.000331759 0)
(15.7548 -0.000413053 0)
(15.7754 -0.000500455 0)
(15.7988 -0.000640238 0)
(15.8299 -0.000784686 0)
(15.8566 -0.000860484 0)
(15.8807 -0.000900602 0)
(15.9034 -0.000985713 0)
(15.9284 -0.00111825 0)
(15.9551 -0.00123971 0)
(15.9833 -0.00136414 0)
(16.013 -0.00149788 0)
(16.0441 -0.00164388 0)
(16.0767 -0.00180563 0)
(16.1107 -0.00198441 0)
(16.1463 -0.00218411 0)
(16.1835 -0.00240602 0)
(16.2224 -0.00265601 0)
(16.2632 -0.00293766 0)
(16.306 -0.00326033 0)
(16.3511 -0.00363158 0)
(16.3988 -0.00406609 0)
(16.4495 -0.00457849 0)
(16.5037 -0.00520244 0)
(16.5625 -0.00595741 0)
(16.6264 -0.00704848 0)
(16.7007 -0.00831241 0)
(16.7774 -0.0128874 0)
(16.9184 -0.0222645 0)
(16.9433 -0.0460345 0)
(27.1571 0.0587745 0)
(22.2486 0.0102415 0)
(20.6822 0.00368435 0)
(19.9 0.00217027 0)
(19.4077 0.00152609 0)
(19.0616 0.00116686 0)
(18.8008 0.000942323 0)
(18.5945 0.000789257 0)
(18.4265 0.00067663 0)
(18.2868 0.000590042 0)
(18.1688 0.0005217 0)
(18.0678 0.000466777 0)
(17.9803 0.000421758 0)
(17.9038 0.000383928 0)
(17.8365 0.000351469 0)
(17.777 0.000322982 0)
(17.7242 0.000297895 0)
(17.6772 0.000275803 0)
(17.6353 0.000256489 0)
(17.5976 0.000239666 0)
(17.5637 0.000224951 0)
(17.5329 0.000212041 0)
(17.5049 0.000200653 0)
(17.4794 0.000190588 0)
(17.456 0.000181674 0)
(17.4345 0.000173677 0)
(17.4146 0.000166397 0)
(17.3962 0.000159579 0)
(17.3792 0.000153079 0)
(17.3635 0.000146769 0)
(17.3489 0.000140623 0)
(17.3355 0.000134631 0)
(17.3231 0.00012881 0)
(17.3116 0.00012317 0)
(17.3011 0.00011771 0)
(17.2914 0.000112422 0)
(17.2825 0.000107276 0)
(17.2743 0.000102229 0)
(17.2668 9.72024e-05 0)
(17.26 9.20869e-05 0)
(17.2538 8.67267e-05 0)
(17.2482 8.09241e-05 0)
(17.2433 7.44371e-05 0)
(17.239 6.69885e-05 0)
(17.2353 5.82699e-05 0)
(17.2324 4.79558e-05 0)
(17.2302 3.57084e-05 0)
(17.2288 2.11507e-05 0)
(17.2283 3.6008e-06 0)
(17.2288 -1.70275e-05 0)
(17.2304 -4.07555e-05 0)
(17.2332 -6.83457e-05 0)
(17.2372 -0.000100649 0)
(17.2426 -0.000139066 0)
(17.2496 -0.000185586 0)
(17.2582 -0.000242446 0)
(17.2689 -0.000312369 0)
(17.282 -0.00039733 0)
(17.2977 -0.000498701 0)
(17.3165 -0.000620678 0)
(17.339 -0.000752315 0)
(17.3646 -0.00096181 0)
(17.3984 -0.00117383 0)
(17.4272 -0.00129736 0)
(17.4537 -0.00137109 0)
(17.4788 -0.0014956 0)
(17.5062 -0.00169448 0)
(17.5353 -0.00188194 0)
(17.5661 -0.00207392 0)
(17.5985 -0.00227926 0)
(17.6324 -0.00250198 0)
(17.6679 -0.00274754 0)
(17.705 -0.00301788 0)
(17.7437 -0.00331905 0)
(17.7842 -0.00365293 0)
(17.8265 -0.00402835 0)
(17.8707 -0.00445047 0)
(17.9172 -0.00493315 0)
(17.966 -0.00548773 0)
(18.0175 -0.00613628 0)
(18.0722 -0.00690153 0)
(18.1306 -0.00783411 0)
(18.1937 -0.00896809 0)
(18.262 -0.0105966 0)
(18.3406 -0.0125077 0)
(18.4218 -0.018739 0)
(18.5593 -0.0281657 0)
(18.563 -0.0417002 0)
(29.5616 0.0730487 0)
(24.2978 0.0151237 0)
(22.4961 0.00556671 0)
(21.6039 0.00322478 0)
(21.0505 0.00224198 0)
(20.6655 0.00170276 0)
(20.3775 0.00136936 0)
(20.1508 0.00114386 0)
(19.9668 0.000978906 0)
(19.8142 0.000852596 0)
(19.6855 0.000753186 0)
(19.5755 0.000673467 0)
(19.4803 0.000608225 0)
(19.3972 0.000553466 0)
(19.3241 0.000506516 0)
(19.2595 0.000465324 0)
(19.2022 0.000429038 0)
(19.1512 0.000397071 0)
(19.1057 0.000369116 0)
(19.0649 0.000344774 0)
(19.0281 0.0003235 0)
(18.9948 0.000304862 0)
(18.9644 0.000288447 0)
(18.9368 0.000273967 0)
(18.9114 0.000261173 0)
(18.8881 0.000249728 0)
(18.8665 0.00023934 0)
(18.8466 0.00022964 0)
(18.8282 0.000220409 0)
(18.8112 0.000211456 0)
(18.7954 0.000202733 0)
(18.7808 0.000194216 0)
(18.7674 0.000185924 0)
(18.755 0.000177866 0)
(18.7436 0.000170038 0)
(18.7331 0.000162422 0)
(18.7234 0.000154977 0)
(18.7146 0.000147639 0)
(18.7064 0.000140301 0)
(18.699 0.000132807 0)
(18.6923 0.000124939 0)
(18.6863 0.000116417 0)
(18.6809 0.000106897 0)
(18.6762 9.59826e-05 0)
(18.6723 8.32313e-05 0)
(18.6691 6.81725e-05 0)
(18.6667 5.03148e-05 0)
(18.6651 2.91089e-05 0)
(18.6646 3.54915e-06 0)
(18.6651 -2.65193e-05 0)
(18.6668 -6.10616e-05 0)
(18.6697 -0.000101093 0)
(18.674 -0.000147795 0)
(18.6798 -0.000203087 0)
(18.6873 -0.000269718 0)
(18.6967 -0.000350932 0)
(18.7082 -0.000450632 0)
(18.7222 -0.000571994 0)
(18.7392 -0.0007171 0)
(18.7594 -0.000892234 0)
(18.7835 -0.00108211 0)
(18.8111 -0.00138129 0)
(18.8472 -0.0016783 0)
(18.8776 -0.00186776 0)
(18.9062 -0.00199243 0)
(18.9335 -0.00216771 0)
(18.9629 -0.00244993 0)
(18.9942 -0.00272292 0)
(19.0272 -0.00300304 0)
(19.0618 -0.00330174 0)
(19.0981 -0.0036242 0)
(19.1361 -0.0039784 0)
(19.1757 -0.00436702 0)
(19.2171 -0.00479897 0)
(19.2603 -0.00527686 0)
(19.3054 -0.00581324 0)
(19.3525 -0.00641513 0)
(19.4019 -0.00710201 0)
(19.4537 -0.00788974 0)
(19.5083 -0.00880933 0)
(19.5662 -0.00989353 0)
(19.6278 -0.0112129 0)
(19.694 -0.0128211 0)
(19.7656 -0.0151046 0)
(19.847 -0.0178159 0)
(19.9311 -0.0257645 0)
(20.0643 -0.0348158 0)
(20.0592 -0.0452785 0)
(31.8168 0.0886881 0)
(26.3038 0.0215073 0)
(24.2588 0.00816519 0)
(23.2458 0.00466831 0)
(22.6252 0.00320946 0)
(22.1978 0.00242027 0)
(21.8804 0.00193739 0)
(21.6321 0.00161341 0)
(21.4312 0.00137789 0)
(21.2652 0.00119836 0)
(21.1254 0.00105754 0)
(21.0061 0.000944883 0)
(20.903 0.000852856 0)
(20.8131 0.000775725 0)
(20.7341 0.000709655 0)
(20.6643 0.000651724 0)
(20.6025 0.000600692 0)
(20.5474 0.000555726 0)
(20.4983 0.000516392 0)
(20.4543 0.000482149 0)
(20.4146 0.000452241 0)
(20.3786 0.000426067 0)
(20.346 0.000403042 0)
(20.3161 0.000382764 0)
(20.2888 0.000364875 0)
(20.2637 0.000348908 0)
(20.2405 0.000334448 0)
(20.219 0.000320977 0)
(20.1992 0.000308181 0)
(20.1808 0.000295782 0)
(20.1638 0.000283707 0)
(20.1481 0.000271914 0)
(20.1337 0.000260424 0)
(20.1203 0.000249243 0)
(20.108 0.000238361 0)
(20.0967 0.00022775 0)
(20.0863 0.00021735 0)
(20.0767 0.00020707 0)
(20.068 0.000196764 0)
(20.06 0.000186213 0)
(20.0528 0.000175119 0)
(20.0463 0.000163091 0)
(20.0405 0.000149655 0)
(20.0354 0.000134261 0)
(20.0311 0.00011629 0)
(20.0275 9.50831e-05 0)
(20.0249 6.99509e-05 0)
(20.0232 4.01234e-05 0)
(20.0225 4.18447e-06 0)
(20.023 -3.81516e-05 0)
(20.0247 -8.67761e-05 0)
(20.0277 -0.000142985 0)
(20.0323 -0.000208385 0)
(20.0384 -0.000285546 0)
(20.0463 -0.000378165 0)
(20.0562 -0.000490776 0)
(20.0684 -0.000628774 0)
(20.0833 -0.000796941 0)
(20.1013 -0.000998313 0)
(20.1227 -0.0012418 0)
(20.1483 -0.00150717 0)
(20.1775 -0.00191971 0)
(20.2155 -0.0023219 0)
(20.2473 -0.00259959 0)
(20.2776 -0.00279818 0)
(20.3068 -0.00303942 0)
(20.338 -0.00342488 0)
(20.371 -0.0038066 0)
(20.4059 -0.00419956 0)
(20.4425 -0.00461786 0)
(20.4808 -0.00506777 0)
(20.5208 -0.00556039 0)
(20.5625 -0.0060992 0)
(20.6061 -0.00669677 0)
(20.6515 -0.00735652 0)
(20.6988 -0.0080957 0)
(20.7483 -0.00892346 0)
(20.8 -0.00986603 0)
(20.8542 -0.0109446 0)
(20.9112 -0.0122007 0)
(20.9714 -0.0136792 0)
(21.0354 -0.0154734 0)
(21.1039 -0.0176619 0)
(21.1776 -0.0207254 0)
(21.2608 -0.0244006 0)
(21.3462 -0.0340973 0)
(21.475 -0.0427315 0)
(21.4688 -0.0565027 0)
(33.9393 0.105663 0)
(28.297 0.0296986 0)
(26.0055 0.0117181 0)
(24.859 0.00663952 0)
(24.1631 0.00451596 0)
(23.6886 0.00338028 0)
(23.3389 0.00269214 0)
(23.0669 0.00223414 0)
(22.8478 0.00190344 0)
(22.6673 0.00165262 0)
(22.5157 0.0014566 0)
(22.3865 0.00130025 0)
(22.2751 0.0011728 0)
(22.1781 0.00106617 0)
(22.0928 0.000974945 0)
(22.0176 0.000895031 0)
(21.951 0.000824651 0)
(21.8918 0.000762632 0)
(21.8389 0.000708366 0)
(21.7915 0.000661123 0)
(21.7488 0.000619876 0)
(21.7101 0.000583805 0)
(21.675 0.000552102 0)
(21.643 0.000524213 0)
(21.6136 0.000499636 0)
(21.5866 0.000477737 0)
(21.5616 0.000457939 0)
(21.5386 0.000439533 0)
(21.5173 0.000422078 0)
(21.4976 0.000405191 0)
(21.4794 0.00038876 0)
(21.4625 0.000372722 0)
(21.447 0.000357103 0)
(21.4326 0.000341904 0)
(21.4194 0.00032711 0)
(21.4073 0.000312674 0)
(21.3961 0.000298514 0)
(21.3859 0.000284499 0)
(21.3765 0.000270427 0)
(21.3679 0.000256002 0)
(21.3601 0.000240814 0)
(21.353 0.000224334 0)
(21.3468 0.000205915 0)
(21.3412 0.000184807 0)
(21.3365 0.000160169 0)
(21.3327 0.000131099 0)
(21.3298 9.66505e-05 0)
(21.3278 5.57759e-05 0)
(21.327 6.55186e-06 0)
(21.3273 -5.15404e-05 0)
(21.329 -0.000118312 0)
(21.3321 -0.000195342 0)
(21.3367 -0.000284775 0)
(21.3431 -0.000389986 0)
(21.3513 -0.000515834 0)
(21.3616 -0.000668471 0)
(21.3744 -0.000855146 0)
(21.39 -0.00108274 0)
(21.4088 -0.00135558 0)
(21.4313 -0.00168582 0)
(21.4581 -0.00204778 0)
(21.4887 -0.00260162 0)
(21.5282 -0.00313255 0)
(21.5611 -0.00352516 0)
(21.5928 -0.00382709 0)
(21.6235 -0.00415464 0)
(21.6562 -0.00466705 0)
(21.6908 -0.00518507 0)
(21.7272 -0.00572043 0)
(21.7654 -0.00628983 0)
(21.8053 -0.00690041 0)
(21.8469 -0.00756701 0)
(21.8903 -0.00829402 0)
(21.9356 -0.0090984 0)
(21.9827 -0.00998463 0)
(22.0318 -0.0109756 0)
(22.083 -0.0120829 0)
(22.1365 -0.0133409 0)
(22.1925 -0.0147767 0)
(22.2512 -0.0164443 0)
(22.3131 -0.0184025 0)
(22.3786 -0.0207699 0)
(22.4486 -0.0236562 0)
(22.5236 -0.0276317 0)
(22.6073 -0.0324462 0)
(22.6929 -0.0438983 0)
(22.8172 -0.0524409 0)
(22.8135 -0.0735553 0)
(35.93 0.123834 0)
(30.2953 0.0400137 0)
(27.7624 0.0165299 0)
(26.4691 0.00932693 0)
(25.6883 0.00628189 0)
(25.1603 0.00466639 0)
(24.7742 0.00369602 0)
(24.4758 0.00305525 0)
(24.2365 0.00259584 0)
(24.0401 0.00224928 0)
(23.8755 0.00197956 0)
(23.7357 0.00176512 0)
(23.6153 0.00159079 0)
(23.5105 0.00144526 0)
(23.4186 0.00132096 0)
(23.3376 0.00121222 0)
(23.2659 0.00111649 0)
(23.2021 0.00103214 0)
(23.1453 0.000958308 0)
(23.0943 0.00089402 0)
(23.0484 0.000837897 0)
(23.0069 0.000788834 0)
(22.9691 0.000745734 0)
(22.9347 0.000707846 0)
(22.9032 0.000674479 0)
(22.8742 0.000644784 0)
(22.8474 0.000617971 0)
(22.8227 0.000593093 0)
(22.7999 0.00056954 0)
(22.7787 0.000546793 0)
(22.7592 0.000524692 0)
(22.7411 0.00050315 0)
(22.7245 0.000482196 0)
(22.7091 0.000461831 0)
(22.6949 0.000442032 0)
(22.6819 0.000422729 0)
(22.6699 0.000403808 0)
(22.6589 0.000385083 0)
(22.6488 0.000366282 0)
(22.6396 0.000346996 0)
(22.6312 0.000326677 0)
(22.6236 0.00030461 0)
(22.6168 0.000279929 0)
(22.6108 0.000251627 0)
(22.6057 0.000218574 0)
(22.6015 0.000179561 0)
(22.5982 0.000133312 0)
(22.596 7.84311e-05 0)
(22.5949 1.239e-05 0)
(22.595 -6.57278e-05 0)
(22.5966 -0.000155671 0)
(22.5996 -0.000259264 0)
(22.6043 -0.000379316 0)
(22.6107 -0.000520186 0)
(22.6191 -0.000688127 0)
(22.6298 -0.000891288 0)
(22.643 -0.00113919 0)
(22.6591 -0.00144141 0)
(22.6786 -0.00180399 0)
(22.7019 -0.00224305 0)
(22.7296 -0.00272715 0)
(22.7615 -0.00345502 0)
(22.8021 -0.00414235 0)
(22.8357 -0.0046812 0)
(22.8685 -0.0051229 0)
(22.9004 -0.00556374 0)
(22.9344 -0.00623162 0)
(22.9702 -0.00691876 0)
(23.0078 -0.0076318 0)
(23.0472 -0.00838988 0)
(23.0883 -0.00920074 0)
(23.1312 -0.0100836 0)
(23.1759 -0.0110438 0)
(23.2224 -0.0121036 0)
(23.2708 -0.0132685 0)
(23.3212 -0.0145683 0)
(23.3736 -0.0160175 0)
(23.4283 -0.0176594 0)
(23.4854 -0.0195287 0)
(23.5453 -0.0216927 0)
(23.6082 -0.0242268 0)
(23.6746 -0.0272769 0)
(23.7453 -0.0309902 0)
(23.8207 -0.0360158 0)
(23.9041 -0.0421563 0)
(23.989 -0.0553484 0)
(24.1084 -0.0644234 0)
(24.108 -0.0942622 0)
(37.7772 0.142925 0)
(32.3055 0.0527434 0)
(29.5497 0.0229777 0)
(28.0974 0.0129844 0)
(27.2204 0.00867303 0)
(26.6312 0.00639403 0)
(26.2035 0.00503482 0)
(25.875 0.00414395 0)
(25.613 0.00350981 0)
(25.3987 0.0030342 0)
(25.2197 0.00266569 0)
(25.068 0.00237377 0)
(24.9376 0.00213719 0)
(24.8244 0.00194025 0)
(24.7252 0.00177242 0)
(24.6378 0.00162583 0)
(24.5605 0.0014969 0)
(24.4919 0.00138331 0)
(24.4307 0.00128386 0)
(24.3758 0.00119723 0)
(24.3264 0.00112159 0)
(24.2818 0.00105546 0)
(24.2412 0.00099738 0)
(24.2042 0.000946331 0)
(24.1703 0.000901379 0)
(24.1392 0.000861404 0)
(24.1105 0.000825344 0)
(24.084 0.000791948 0)
(24.0595 0.000760382 0)
(24.0368 0.000729961 0)
(24.0158 0.000700453 0)
(23.9965 0.000671745 0)
(23.9786 0.000643875 0)
(23.9621 0.000616847 0)
(23.947 0.000590631 0)
(23.933 0.000565131 0)
(23.9201 0.000540189 0)
(23.9083 0.000515548 0)
(23.8974 0.000490837 0)
(23.8875 0.000465503 0)
(23.8784 0.000438812 0)
(23.8702 0.00040981 0)
(23.8628 0.000377348 0)
(23.8563 0.000340088 0)
(23.8507 0.000296537 0)
(23.846 0.000245089 0)
(23.8424 0.000184052 0)
(23.8398 0.000111587 0)
(23.8384 2.44791e-05 0)
(23.8382 -7.88353e-05 0)
(23.8396 -0.000198114 0)
(23.8425 -0.000335332 0)
(23.8471 -0.00049409 0)
(23.8535 -0.00067993 0)
(23.862 -0.000900759 0)
(23.8728 -0.00116713 0)
(23.8863 -0.00149132 0)
(23.9028 -0.0018863 0)
(23.9227 -0.00236037 0)
(23.9466 -0.00293448 0)
(23.975 -0.00357137 0)
(24.0077 -0.00451127 0)
(24.0492 -0.00538774 0)
(24.0832 -0.00610886 0)
(24.1167 -0.00673393 0)
(24.1496 -0.00732314 0)
(24.1845 -0.00818103 0)
(24.2212 -0.00907637 0)
(24.2596 -0.010009 0)
(24.2999 -0.0110005 0)
(24.3419 -0.0120587 0)
(24.3856 -0.0132078 0)
(24.4312 -0.0144544 0)
(24.4785 -0.0158263 0)
(24.5277 -0.0173312 0)
(24.5789 -0.0190057 0)
(24.6321 -0.0208686 0)
(24.6875 -0.0229731 0)
(24.7452 -0.0253626 0)
(24.8056 -0.028119 0)
(24.8689 -0.0313368 0)
(24.9356 -0.0351908 0)
(25.0062 -0.0398715 0)
(25.0813 -0.0460904 0)
(25.1635 -0.0537513 0)
(25.2471 -0.0686465 0)
(25.361 -0.0790643 0)
(25.3631 -0.116816 0)
(39.4592 0.162487 0)
(34.3227 0.0680912 0)
(31.3823 0.0315078 0)
(29.7623 0.0179481 0)
(28.7768 0.0119168 0)
(28.1174 0.00872293 0)
(27.6416 0.00682715 0)
(27.2785 0.00559277 0)
(26.9904 0.0047204 0)
(26.7557 0.00406999 0)
(26.5604 0.0035684 0)
(26.3953 0.00317258 0)
(26.2537 0.00285291 0)
(26.1309 0.00258772 0)
(26.0236 0.00236237 0)
(25.9291 0.00216603 0)
(25.8457 0.00199356 0)
(25.7715 0.00184166 0)
(25.7055 0.00170864 0)
(25.6463 0.0015927 0)
(25.5931 0.00149143 0)
(25.545 0.00140286 0)
(25.5013 0.00132505 0)
(25.4615 0.00125664 0)
(25.425 0.00119637 0)
(25.3915 0.00114279 0)
(25.3607 0.00109448 0)
(25.3322 0.00104982 0)
(25.3058 0.00100768 0)
(25.2815 0.000967166 0)
(25.259 0.000927938 0)
(25.2382 0.000889858 0)
(25.219 0.000852975 0)
(25.2013 0.000817304 0)
(25.185 0.000782817 0)
(25.17 0.000749386 0)
(25.1561 0.000716805 0)
(25.1434 0.000684721 0)
(25.1317 0.000652636 0)
(25.121 0.000619806 0)
(25.1112 0.000585256 0)
(25.1023 0.000547723 0)
(25.0943 0.00050569 0)
(25.0872 0.0004574 0)
(25.081 0.000400893 0)
(25.0758 0.000334062 0)
(25.0716 0.000254684 0)
(25.0686 0.000160361 0)
(25.0668 4.71287e-05 0)
(25.0663 -8.75718e-05 0)
(25.0673 -0.000243676 0)
(25.07 -0.000423147 0)
(25.0743 -0.000630485 0)
(25.0806 -0.000872639 0)
(25.0891 -0.00115943 0)
(25.0999 -0.00150428 0)
(25.1134 -0.00192269 0)
(25.1301 -0.00243189 0)
(25.1503 -0.00304313 0)
(25.1745 -0.0037831 0)
(25.2034 -0.00460912 0)
(25.2367 -0.0058047 0)
(25.2786 -0.00690943 0)
(25.3128 -0.0078536 0)
(25.3467 -0.00871271 0)
(25.3801 -0.00949474 0)
(25.4155 -0.0105844 0)
(25.4528 -0.0117343 0)
(25.4918 -0.0129364 0)
(25.5326 -0.0142142 0)
(25.5751 -0.0155755 0)
(25.6193 -0.0170496 0)
(25.6653 -0.018645 0)
(25.713 -0.0203956 0)
(25.7626 -0.0223116 0)
(25.8141 -0.0244372 0)
(25.8676 -0.0267966 0)
(25.9232 -0.0294531 0)
(25.981 -0.032461 0)
(26.0414 -0.0359178 0)
(26.1046 -0.0399395 0)
(26.1709 -0.0447302 0)
(26.2409 -0.0505294 0)
(26.315 -0.0580895 0)
(26.3953 -0.0674643 0)
(26.4769 -0.0840103 0)
(26.5844 -0.0966169 0)
(26.5883 -0.140036 0)
(40.9465 0.181858 0)
(36.3286 0.0860775 0)
(33.2685 0.0426098 0)
(31.4798 0.024651 0)
(30.3742 0.0163222 0)
(29.6341 0.0118739 0)
(29.1027 0.00923766 0)
(28.6993 0.00752992 0)
(28.381 0.00633114 0)
(28.1227 0.00544274 0)
(27.9085 0.00476089 0)
(27.728 0.00422487 0)
(27.5736 0.0037936 0)
(27.44 0.00343721 0)
(27.3233 0.00313547 0)
(27.2209 0.00287343 0)
(27.1304 0.00264368 0)
(27.0501 0.0024415 0)
(26.9786 0.00226443 0)
(26.9146 0.00210998 0)
(26.857 0.00197501 0)
(26.805 0.0018569 0)
(26.7578 0.00175306 0)
(26.7148 0.00166169 0)
(26.6755 0.00158111 0)
(26.6393 0.00150945 0)
(26.606 0.00144485 0)
(26.5753 0.00138522 0)
(26.547 0.00132905 0)
(26.5207 0.00127518 0)
(26.4965 0.00122314 0)
(26.4741 0.00117273 0)
(26.4535 0.00112403 0)
(26.4344 0.00107707 0)
(26.4168 0.00103183 0)
(26.4006 0.000988169 0)
(26.3857 0.000945818 0)
(26.372 0.000904314 0)
(26.3593 0.000862994 0)
(26.3477 0.000820873 0)
(26.3371 0.00077666 0)
(26.3274 0.000728692 0)
(26.3187 0.000674987 0)
(26.3109 0.000613247 0)
(26.3041 0.000540921 0)
(26.2982 0.000455263 0)
(26.2935 0.000353378 0)
(26.2899 0.000232159 0)