/*--------------------------------*- C++ -*----------------------------------*\
  =========                 |
  \\      /  F ield         | OpenFOAM: The Open Source CFD Toolbox
   \\    /   O peration     | Website:  https://openfoam.org
    \\  /    A nd           | Version:  8
     \\/     M anipulation  |
\*---------------------------------------------------------------------------*/
FoamFile
{
    version     2.0;
    format      ascii;
    class       volScalarField;
    location    "35";
    object      p;
}
// * * * * * * * * * * * * * * * * * * * * * * * * * * * * * * * * * * * * * //

dimensions      [0 2 -2 0 0 0 0];

internalField   nonuniform List<scalar> 
12225
(
2.71352
0.524202
-0.55355
-0.829378
-1.02898
-1.20423
-1.26145
-1.25566
-1.26692
-1.30481
-1.32962
-1.30875
-1.23027
-1.10313
-0.937577
-0.681722
-0.455772
0.505589
-0.448389
-1.19479
-1.36497
-1.23333
-1.23051
-1.29472
-1.29679
-1.26701
-1.26627
-1.29553
-1.31366
-1.28674
-1.20636
-1.08335
-0.923988
-0.705913
-0.378277
-0.163631
-0.849748
-0.836679
-0.959925
-0.993632
-1.0908
-1.19858
-1.23391
-1.23428
-1.25353
-1.29149
-1.31182
-1.28581
-1.21037
-1.09764
-0.957436
-0.786325
-0.572191
-0.570987
-0.729547
-0.67679
-0.893545
-1.01766
-1.12557
-1.2159
-1.24712
-1.25322
-1.27462
-1.3081
-1.32169
-1.29278
-1.2217
-1.12118
-1.002
-0.869545
-0.736978
-0.682754
-0.720939
-0.739262
-0.949454
-1.06653
-1.15511
-1.22598
-1.2535
-1.2636
-1.28589
-1.31531
-1.32484
-1.29703
-1.23426
-1.14936
-1.05237
-0.952441
-0.857062
-0.807774
-0.780893
-0.822207
-0.990432
-1.084
-1.16594
-1.23195
-1.25999
-1.2731
-1.29588
-1.32337
-1.33276
-1.30958
-1.25734
-1.18838
-1.11257
-1.03923
-0.977108
-0.964174
-0.843905
-0.881959
-1.0151
-1.09233
-1.17611
-1.24371
-1.27177
-1.2849
-1.30728
-1.33458
-1.34654
-1.32992
-1.28899
-1.23527
-1.17872
-1.12877
-1.0959
-1.10556
-0.900909
-0.933347
-1.04092
-1.10741
-1.19164
-1.26061
-1.28774
-1.29944
-1.32137
-1.3497
-1.36572
-1.35704
-1.32791
-1.28885
-1.24962
-1.21934
-1.20886
-1.23146
-0.954985
-0.982626
-1.07112
-1.12965
-1.21026
-1.27838
-1.30505
-1.31627
-1.33797
-1.36756
-1.38844
-1.38911
-1.37232
-1.34717
-1.32331
-1.30973
-1.31626
-1.34817
-1.00744
-1.03193
-1.10465
-1.15736
-1.23256
-1.2974
-1.32435
-1.33659
-1.35842
-1.38929
-1.41551
-1.42636
-1.42186
-1.41011
-1.40022
-1.40045
-1.4195
-1.45891
-1.05838
-1.08011
-1.13655
-1.18644
-1.25813
-1.31857
-1.34595
-1.36015
-1.38263
-1.41446
-1.44586
-1.46661
-1.4749
-1.47696
-1.48044
-1.49235
-1.52026
-1.5638
-1.10372
-1.1233
-1.16732
-1.2141
-1.28315
-1.34063
-1.36995
-1.38697
-1.40929
-1.44027
-1.47445
-1.50348
-1.52417
-1.53977
-1.55554
-1.57704
-1.6114
-1.65834
-1.14723
-1.16565
-1.20288
-1.24285
-1.30578
-1.36254
-1.39786
-1.42015
-1.44169
-1.46917
-1.50328
-1.53929
-1.57238
-1.60194
-1.63106
-1.6622
-1.70395
-1.75139
-1.19504
-1.21056
-1.24625
-1.27807
-1.32922
-1.38544
-1.43213
-1.46473
-1.4871
-1.50918
-1.54041
-1.58026
-1.62473
-1.67
-1.71464
-1.75805
-1.80754
-1.85563
-1.24672
-1.25823
-1.29576
-1.32341
-1.35942
-1.41041
-1.46924
-1.51789
-1.54666
-1.56579
-1.59082
-1.63033
-1.68179
-1.74065
-1.80113
-1.85998
-1.92155
-1.97451
-1.30157
-1.31182
-1.3478
-1.377
-1.40154
-1.44081
-1.50508
-1.57177
-1.61594
-1.63861
-1.65974
-1.69484
-1.74856
-1.81587
-1.89019
-1.96254
-2.03675
-2.09576
-1.35755
-1.36668
-1.3986
-1.43429
-1.4572
-1.48439
-1.54495
-1.6243
-1.68732
-1.72201
-1.74374
-1.77433
-1.82584
-1.89723
-1.97938
-2.06303
-2.14892
-2.21863
-1.41111
-1.42006
-1.44724
-1.48845
-1.51816
-1.54129
-1.59542
-1.67879
-1.7556
-1.80459
-1.83383
-1.86442
-1.91293
-1.9846
-2.07146
-2.16303
-2.25729
-2.33279
-1.4556
-1.46652
-1.49207
-1.53391
-1.57151
-1.60058
-1.6541
-1.73756
-1.82046
-1.87935
-1.91749
-1.95411
-2.00527
-2.07781
-2.16559
-2.25936
-2.35513
-2.43046
-1.47142
-1.48327
-1.5117
-1.55521
-1.5986
-1.63934
-1.7008
-1.78623
-1.86597
-1.92471
-1.9664
-2.01221
-2.07135
-2.14976
-2.23779
-2.33028
-2.42075
-2.49405
-1.46682
-1.47985
-1.51451
-1.56033
-1.60832
-1.6593
-1.73113
-1.81567
-1.89071
-1.94455
-1.99106
-2.04465
-2.11577
-2.19939
-2.29108
-2.37919
-2.46498
-2.5307
-1.44826
-1.46263
-1.50377
-1.552
-1.60618
-1.67081
-1.75212
-1.83535
-1.90204
-1.95343
-2.00499
-2.06998
-2.15085
-2.24025
-2.33097
-2.4149
-2.49215
-2.55222
-1.41991
-1.43476
-1.48258
-1.53483
-1.59798
-1.67807
-1.76737
-1.84671
-1.90655
-1.95721
-2.01621
-2.09234
-2.1801
-2.27215
-2.35817
-2.43661
-2.50505
-2.56009
-1.38482
-1.39886
-1.45748
-1.51596
-1.5873
-1.67865
-1.77289
-1.84838
-1.90434
-1.95831
-2.0265
-2.11174
-2.20487
-2.29582
-2.37832
-2.44951
-2.51311
-2.56475
-1.3438
-1.3509
-1.43266
-1.50596
-1.58308
-1.67892
-1.77232
-1.84299
-1.89755
-1.95706
-2.03486
-2.12723
-2.22312
-2.31223
-2.39038
-2.45685
-2.51587
-2.5657
-1.30468
-1.26942
-1.39073
-1.49758
-1.58694
-1.68702
-1.77774
-1.84105
-1.89242
-1.95647
-2.04104
-2.13798
-2.23416
-2.32066
-2.39463
-2.45726
-2.51346
-2.56357
-1.32164
-1.17191
-1.30546
-1.4433
-1.55999
-1.68478
-1.78481
-1.84613
-1.89565
-1.9625
-2.05305
-2.15314
-2.24936
-2.33256
-2.40137
-2.45817
-2.51069
-2.56246
-1.44555
-1.27384
-1.31546
-1.36604
-1.46876
-1.61912
-1.73943
-1.8092
-1.86399
-1.93908
-2.04078
-2.15197
-2.25429
-2.3407
-2.40971
-2.46363
-2.51463
-2.5687
-1.15312
-1.72767
-1.85429
-1.72266
-1.69003
-1.77236
-1.84723
-1.87923
-1.90571
-1.96293
-2.05701
-2.16604
-2.26687
-2.35131
-2.41686
-2.46566
-2.51049
-2.55972
1.83396
0.0582765
-0.944189
-1.22873
-1.41098
-1.61945
-1.76482
-1.8325
-1.87747
-1.94591
-2.04906
-2.16652
-2.27504
-2.36522
-2.4349
-2.48794
-2.53512
-2.58571
-3.50219
-3.48437
-3.50116
-3.54908
-3.60519
-3.65703
-3.69844
-3.7295
-3.75319
-3.77275
-3.79044
-3.80661
-3.8215
-3.84809
-3.89422
-3.96988
-4.08272
-4.23978
-4.44099
-4.68628
-4.96918
-5.28479
-5.62404
-5.98103
-6.34691
-6.71664
-7.08341
-7.44386
-7.79296
-8.12848
-8.44729
-8.74753
-9.02688
-9.28357
-9.51638
-9.72264
-9.90137
-10.0493
-10.1657
-10.2461
-10.2896
-10.2912
-10.2506
-10.1632
-10.0306
-9.84917
-9.62226
-9.34781
-9.03131
-8.67095
-8.27283
-7.83524
-7.36465
-6.86021
-6.32953
-5.7713
-5.1936
-4.59566
-3.98605
-3.36315
-2.73548
-2.10125
-1.46826
-0.834584
-0.20761
0.41598
1.02908
1.63533
2.2282
2.81151
3.37964
3.93658
4.47707
5.00578
5.51783
6.018
6.50152
6.97226
7.42618
7.86804
8.29398
8.70791
9.10668
9.49456
9.86782
10.23
10.5776
10.9132
11.2352
11.5464
11.8481
12.1387
12.4174
12.6846
12.9407
13.1856
13.4199
13.6435
13.8565
14.059
14.2516
14.4342
14.6071
14.7706
14.9254
15.0719
15.2097
15.3393
15.4607
15.5741
15.6795
15.7777
15.8686
15.9532
16.0319
16.105
16.1724
16.234
16.2922
16.3498
16.4044
16.4549
16.5012
16.5477
16.5987
16.6487
16.6963
16.7424
16.7794
16.8153
16.8589
16.9035
16.9404
16.9687
16.9974
17.0323
17.0638
17.0841
17.0996
17.12
17.1373
17.1445
17.1489
17.1547
17.161
17.1652
17.166
17.1684
17.1727
17.1782
17.183
17.1858
17.1827
17.1765
17.1761
17.1786
17.1799
17.1799
17.1807
17.1858
17.1934
17.1965
17.1943
17.191
17.1886
17.188
17.1885
17.1883
17.1882
17.1911
17.1956
17.1998
17.2076
17.2195
17.2351
17.2591
17.2963
17.355
17.458
17.569
-3.55496
-3.57954
-3.61352
-3.65072
-3.68435
-3.70642
-3.71392
-3.71121
-3.70483
-3.70141
-3.70304
-3.71197
-3.73253
-3.77045
-3.83248
-3.93249
-4.0771
-4.26947
-4.50591
-4.78242
-5.09089
-5.42481
-5.77563
-6.13785
-6.50442
-6.87116
-7.23294
-7.58718
-7.93022
-8.26012
-8.57413
-8.87055
-9.14709
-9.40169
-9.63263
-9.83747
-10.0143
-10.1602
-10.2738
-10.3517
-10.3923
-10.3922
-10.3509
-10.2657
-10.1372
-9.96362
-9.74612
-9.48322
-9.17781
-8.82957
-8.44157
-8.01368
-7.55099
-7.05451
-6.52896
-5.97562
-5.40064
-4.80542
-4.19588
-3.57399
-2.94497
-2.30981
-1.67421
-1.03916
-0.408838
0.217155
0.83442
1.4435
2.04104
2.62789
3.20069
3.76098
4.30613
4.83811
5.35496
5.85826
6.34573
6.8196
7.27778
7.72248
8.15221
8.56907
8.9717
9.36227
9.73895
10.1036
10.4548
10.7934
11.1189
11.4334
11.7378
12.0309
12.312
12.582
12.8412
13.0889
13.3261
13.5527
13.7686
13.974
14.1696
14.3551
14.5307
14.6964
14.8531
15.0016
15.1413
15.2724
15.3961
15.5115
15.6191
15.72
15.8136
15.9
15.9811
16.0571
16.1274
16.1943
16.2568
16.3148
16.3699
16.4217
16.4733
16.5241
16.5714
16.6195
16.6678
16.7144
16.764
16.8127
16.8563
16.8981
16.938
16.9756
17.0073
17.0328
17.0567
17.0807
17.1006
17.1138
17.1251
17.1374
17.1464
17.1523
17.1548
17.1534
17.1573
17.1648
17.1687
17.1673
17.1671
17.1689
17.1686
17.1674
17.1685
17.1721
17.1747
17.1763
17.1762
17.1795
17.1831
17.1837
17.1831
17.1822
17.1822
17.1833
17.1853
17.1847
17.1837
17.1872
17.1922
17.1954
17.2023
17.213
17.2276
17.2504
17.2825
17.3334
17.4258
17.5165
-3.46705
-3.52155
-3.57042
-3.60492
-3.62972
-3.64518
-3.65252
-3.65702
-3.66387
-3.67927
-3.70759
-3.75459
-3.82468
-3.92269
-4.04973
-4.20935
-4.40088
-4.62387
-4.87397
-5.14868
-5.44275
-5.75273
-6.07339
-6.40198
-6.73404
-7.06726
-7.39813
-7.72485
-8.04448
-8.3553
-8.65463
-8.94048
-9.21045
-9.4622
-9.69333
-9.90109
-10.083
-10.236
-10.3578
-10.4451
-10.4955
-10.506
-10.4757
-10.4023
-10.2851
-10.1228
-9.91634
-9.66471
-9.36946
-9.03085
-8.65062
-8.22958
-7.77203
-7.28007
-6.75741
-6.20667
-5.63254
-5.03785
-4.42685
-3.803
-3.17065
-2.53255
-1.89309
-1.25429
-0.619095
0.0109942
0.633069
1.24597
1.84789
2.43809
3.01489
3.57825
4.12723
4.66211
5.18249
5.68834
6.17897
6.65509
7.11635
7.5636
7.99648
8.41563
8.82118
9.21367
9.5928
9.95943
10.3131
10.6539
10.982
11.2989
11.6052
11.9001
12.1831
12.4552
12.7165
12.9666
13.2062
13.4355
13.6542
13.8626
14.0613
14.2502
14.4295
14.599
14.7597
14.912
15.0557
15.1905
15.3177
15.4367
15.548
15.6522
15.7493
15.8391
15.9234
16.0024
16.0757
16.1441
16.2085
16.269
16.3264
16.3807
16.4341
16.4859
16.5354
16.5845
16.6342
16.6838
16.7348
16.7855
16.8323
16.8767
16.9187
16.9582
16.9928
17.021
17.0471
17.0715
17.0919
17.1063
17.1179
17.1296
17.1392
17.1464
17.1498
17.1494
17.1524
17.1588
17.162
17.1601
17.1595
17.1624
17.1639
17.1631
17.1645
17.1683
17.1714
17.1734
17.173
17.1745
17.1773
17.1787
17.1794
17.1796
17.1795
17.1804
17.1823
17.1821
17.1813
17.1839
17.188
17.1908
17.1966
17.2061
17.2199
17.2408
17.2675
17.3095
17.3799
17.4279
-3.17958
-3.27261
-3.34496
-3.38886
-3.42286
-3.45691
-3.4964
-3.54647
-3.61006
-3.69059
-3.78887
-3.90664
-4.04324
-4.19989
-4.37537
-4.57102
-4.78516
-5.018
-5.26685
-5.53138
-5.80855
-6.0973
-6.39437
-6.69854
-7.00676
-7.3176
-7.62815
-7.93687
-8.24121
-8.53943
-8.82887
-9.10746
-9.37272
-9.62211
-9.85307
-10.0626
-10.2481
-10.4061
-10.5342
-10.6288
-10.6874
-10.7068
-10.6854
-10.6205
-10.5114
-10.3564
-10.1558
-9.90896
-9.61702
-9.28013
-8.90038
-8.47902
-8.01965
-7.52462
-6.99782
-6.44223
-5.86229
-5.26138
-4.64391
-4.0132
-3.3737
-2.72859
-2.08188
-1.43603
-0.793987
-0.15775
0.470229
1.08846
1.6953
2.28976
2.87062
3.43755
3.98998
4.5277
5.05059
5.55854
6.05138
6.52936
6.99254
7.44137
7.87598
8.2967
8.70381
9.09762
9.47825
9.84601
10.201
10.5432
10.873
11.1915
11.4992
11.7954
12.08
12.3537
12.6167
12.8688
13.1105
13.3418
13.5628
13.7737
13.975
14.1665
14.3484
14.5209
14.6845
14.8394
14.9857
15.1235
15.2532
15.375
15.4891
15.5959
15.6956
15.7884
15.8751
15.9563
16.0317
16.1019
16.1679
16.2301
16.2888
16.3448
16.399
16.4513
16.5018
16.5513
16.6009
16.6506
16.7013
16.7518
16.8002
16.8462
16.89
16.9314
16.9689
17.0012
17.0299
17.0555
17.077
17.0935
17.1068
17.1186
17.1285
17.136
17.1403
17.1422
17.1455
17.1505
17.1537
17.1534
17.1532
17.1554
17.1575
17.1581
17.1599
17.1634
17.1665
17.1682
17.1686
17.1699
17.172
17.1733
17.1743
17.1751
17.1754
17.1763
17.1775
17.1778
17.1776
17.1791
17.1821
17.1848
17.1892
17.1967
17.2086
17.2255
17.2471
17.2783
17.325
17.3414
-2.82405
-2.95829
-3.06472
-3.13749
-3.20431
-3.28049
-3.37234
-3.48297
-3.6114
-3.75679
-3.91626
-4.0893
-4.27351
-4.46945
-4.67561
-4.89343
-5.12159
-5.36129
-5.61077
-5.87087
-6.13966
-6.41735
-6.70175
-6.99257
-7.28752
-7.58582
-7.88515
-8.18426
-8.48077
-8.77296
-9.05838
-9.33485
-9.59977
-9.85043
-10.0842
-10.2979
-10.4887
-10.6531
-10.7882
-10.8904
-10.9568
-10.984
-10.9699
-10.9116
-10.8078
-10.6568
-10.4586
-10.2121
-9.91848
-9.57804
-9.19302
-8.76482
-8.29709
-7.79238
-7.25489
-6.6878
-6.09587
-5.4827
-4.85305
-4.21048
-3.55958
-2.90363
-2.2466
-1.59116
-0.940364
-0.296324
0.338644
0.96302
1.57517
2.17418
2.75903
3.32935
3.8847
4.42485
4.94966
5.45921
5.9535
6.43266
6.89696
7.34671
7.78222
8.20376
8.61163
9.00614
9.38754
9.75609
10.112
10.4553
10.7864
11.1062
11.4153
11.713
11.9991
12.2744
12.539
12.7929
13.0363
13.2694
13.4923
13.7052
13.9084
14.102
14.2858
14.4605
14.626
14.7829
14.9311
15.071
15.2026
15.3266
15.4426
15.5515
15.6532
15.7483
15.837
15.92
15.9971
16.0692
16.1369
16.2006
16.2606
16.3177
16.3723
16.425
16.4755
16.5248
16.5736
16.6223
16.6712
16.7201
16.7676
16.8139
16.8585
16.9015
16.9412
16.9767
17.0081
17.0357
17.0589
17.0774
17.0925
17.1052
17.1155
17.1234
17.1288
17.1327
17.1366
17.1409
17.1443
17.1456
17.1462
17.1481
17.1505
17.1522
17.1541
17.1573
17.1603
17.1622
17.1634
17.1647
17.1665
17.1679
17.169
17.1699
17.1705
17.1713
17.172
17.1724
17.1724
17.1732
17.1751
17.1772
17.1802
17.1858
17.1947
17.2071
17.2231
17.243
17.2687
17.2634
-2.58001
-2.75501
-2.89809
-3.00756
-3.11415
-3.23368
-3.37147
-3.52887
-3.70265
-3.89033
-4.08776
-4.29386
-4.50593
-4.72469
-4.94863
-5.17951
-5.4162
-5.66056
-5.91134
-6.1701
-6.43539
-6.70824
-6.987
-7.27201
-7.56148
-7.855
-8.15054
-8.4471
-8.74249
-9.03498
-9.32218
-9.60184
-9.87134
-10.1278
-10.3684
-10.5899
-10.7892
-10.9626
-11.1068
-11.2181
-11.2933
-11.3287
-11.3217
-11.2692
-11.1696
-11.0207
-10.8223
-10.5733
-10.2747
-9.9269
-9.53225
-9.09246
-8.61126
-8.0915
-7.53782
-6.9538
-6.34455
-5.71405
-5.06739
-4.4085
-3.7422
-3.07195
-2.40174
-1.73437
-1.07297
-0.419646
0.223349
0.854556
1.47244
2.0762
2.66498
3.23845
3.79626
4.33832
4.86456
5.37518
5.87023
6.34996
6.81473
7.26484
7.70064
8.12248
8.53071
8.92559
9.30746
9.67664
10.0334
10.3778
10.71
11.0313
11.3419
11.641
11.9286
12.2053
12.4715
12.7271
12.9722
13.2069
13.4316
13.6463
13.8512
14.0464
14.2322
14.4086
14.5758
14.7343
14.8843
15.0258
15.1592
15.2848
15.4027
15.5132
15.6168
15.7137
15.8043
15.8889
15.9679
16.0419
16.1113
16.1766
16.238
16.2962
16.3516
16.4046
16.4555
16.5047
16.5528
16.6001
16.647
16.6936
16.7394
16.7844
16.8287
16.8719
16.9129
16.9503
16.9839
17.0136
17.0387
17.0592
17.076
17.0898
17.101
17.1097
17.1165
17.1217
17.1262
17.1305
17.1343
17.1366
17.1382
17.1403
17.1431
17.1454
17.1476
17.1507
17.1537
17.1559
17.1576
17.1591
17.1609
17.1624
17.1636
17.1646
17.1653
17.1659
17.1663
17.1666
17.1665
17.1667
17.1674
17.1685
17.1703
17.1738
17.1794
17.187
17.1966
17.2057
17.2139
17.1923
-2.55773
-2.73929
-2.90048
-3.03777
-3.17315
-3.32062
-3.48482
-3.66681
-3.86315
-4.07119
-4.28639
-4.50788
-4.73294
-4.96253
-5.19511
-5.43271
-5.67427
-5.92197
-6.17468
-6.43437
-6.69993
-6.9727
-7.25122
-7.53623
-7.82613
-8.12076
-8.41828
-8.71782
-9.01733
-9.3151
-9.60874
-9.89597
-10.1741
-10.4403
-10.6914
-10.924
-11.1349
-11.3201
-11.4761
-11.5987
-11.6845
-11.7294
-11.7304
-11.684
-11.5884
-11.4409
-11.2412
-10.988
-10.6822
-10.3243
-9.91669
-9.46143
-8.96255
-8.42331
-7.84882
-7.24317
-6.61198
-5.95971
-5.29189
-4.61286
-3.92772
-3.24016
-2.55426
-1.87293
-1.19933
-0.535493
0.116366
0.75492
1.37882
1.9874
2.57994
3.15627
3.71617
4.25971
4.78692
5.29809
5.79347
6.27336
6.7382
7.18829
7.6241
8.04605
8.45449
8.84974
9.23217
9.60205
9.9597
10.3051
10.6385
10.961
11.2729
11.5733
11.8622
12.1404
12.408
12.6652
12.9118
13.1481
13.3745
13.5909
13.7975
13.9943
14.1818
14.3597
14.5287
14.6887
14.8404
14.9835
15.1186
15.2457
15.3653
15.4774
15.5828
15.6812
15.7734
15.8597
15.9406
16.0162
16.0875
16.1544
16.2174
16.2768
16.3334
16.3873
16.4388
16.4883
16.5362
16.5825
16.6279
16.6726
16.7165
16.7597
16.8026
16.8448
16.8857
16.9239
16.959
16.9904
17.0173
17.0397
17.0582
17.0733
17.0856
17.0955
17.1033
17.1096
17.1149
17.1196
17.1238
17.127
17.1296
17.1323
17.1354
17.1381
17.1407
17.1439
17.147
17.1495
17.1516
17.1534
17.1552
17.1569
17.1582
17.1593
17.16
17.1604
17.1606
17.1606
17.1603
17.1599
17.1596
17.1595
17.1599
17.1609
17.163
17.1659
17.1686
17.1678
17.1617
17.127
-2.71359
-2.87942
-3.03574
-3.1804
-3.3282
-3.48815
-3.66261
-3.85265
-4.0551
-4.26806
-4.48746
-4.71278
-4.94135
-5.17438
-5.41019
-5.65091
-5.89538
-6.146
-6.40156
-6.66423
-6.93274
-7.2088
-7.49101
-7.78019
-8.07484
-8.37503
-8.6789
-8.98575
-9.29358
-9.6007
-9.90476
-10.2035
-10.4941
-10.7736
-11.0387
-11.286
-11.5118
-11.712
-11.8827
-12.0194
-12.1183
-12.1748
-12.1857
-12.1467
-12.0559
-11.9102
-11.7091
-11.4508
-11.1364
-10.7662
-10.3431
-9.86915
-9.34897
-8.78629
-8.18682
-7.55529
-6.89799
-6.21996
-5.52729
-4.82477
-4.11788
-3.4105
-2.70687
-2.01
-1.32301
-0.64784
0.0134122
0.659576
1.28953
1.90281
2.4989
3.07779
3.63944
4.18409
4.71195
5.22345
5.71895
6.19883
6.66363
7.11374
7.54964
7.9718
8.38057
8.77627
9.15924
9.52974
9.88814
10.2344
10.5688
10.8924
11.2054
11.507
11.7972
12.0767
12.3458
12.6044
12.8525
13.0904
13.3183
13.5364
13.7445
13.943
14.1319
14.3116
14.4821
14.6439
14.7971
14.9419
15.0785
15.2072
15.3283
15.4421
15.5489
15.649
15.7428
15.8307
15.9132
15.9907
16.0636
16.1321
16.1966
16.2576
16.3156
16.3706
16.4229
16.473
16.5212
16.5673
16.6119
16.6553
16.6977
16.7391
16.7803
16.821
16.8608
16.8989
16.9345
16.9669
16.9952
17.0191
17.0391
17.0557
17.0692
17.0802
17.0892
17.0966
17.1028
17.1082
17.1129
17.117
17.1205
17.1238
17.1273
17.1304
17.1335
17.137
17.1403
17.1431
17.1455
17.1476
17.1495
17.1514
17.1529
17.154
17.1547
17.155
17.155
17.1547
17.1541
17.1531
17.1517
17.1504
17.1492
17.1477
17.1463
17.1443
17.1405
17.131
17.1129
17.068
-2.95895
-3.10305
-3.24115
-3.37841
-3.52462
-3.68486
-3.85878
-4.04662
-4.24564
-4.45495
-4.67092
-4.89362
-5.12039
-5.35268
-5.58868
-5.83058
-6.07694
-6.33031
-6.58924
-6.85604
-7.12938
-7.411
-7.69942
-7.99571
-8.29824
-8.60726
-8.92094
-9.23861
-9.5583
-9.87844
-10.1966
-10.5104
-10.817
-11.1133
-11.3961
-11.6614
-11.9056
-12.1241
-12.3128
-12.4668
-12.5819
-12.6528
-12.6758
-12.6465
-12.5622
-12.4196
-12.2175
-11.9542
-11.6305
-11.2467
-10.8059
-10.3106
-9.76591
-9.1762
-8.54795
-7.88669
-7.19949
-6.49212
-5.77136
-5.04254
-4.31147
-3.58232
-2.8595
-2.14602
-1.44494
-0.758067
-0.087288
0.566496
1.20237
1.8201
2.41944
3.00062
3.5638
4.10943
4.63785
5.14964
5.64531
6.1253
6.59017
7.0404
7.47645
7.89872
8.30767
8.70368
9.08702
9.45798
9.81695
10.164
10.4993
10.8238
11.1379
11.4406
11.7319
12.0127
12.2831
12.5431
12.7928
13.0322
13.2617
13.4814
13.6909
13.8911
14.0816
14.263
14.435
14.5985
14.7532
14.8997
15.0378
15.1683
15.2908
15.4063
15.5145
15.6163
15.7116
15.8012
15.8853
15.9645
16.0389
16.109
16.1751
16.2377
16.297
16.3534
16.4067
16.4577
16.5063
16.5527
16.5971
16.64
16.6814
16.7216
16.7611
16.8001
16.8384
16.8756
16.911
16.9438
16.9728
16.9978
17.0191
17.037
17.0518
17.0639
17.0741
17.0826
17.0898
17.0961
17.1016
17.1065
17.1109
17.1148
17.1188
17.1225
17.1262
17.1299
17.1334
17.1365
17.1393
17.1417
17.1438
17.1459
17.1475
17.1487
17.1494
17.1496
17.1494
17.1488
17.1478
17.1461
17.1438
17.1413
17.1382
17.1342
17.1293
17.1227
17.1128
17.0957
17.0676
17.0146
-3.22378
-3.34815
-3.46469
-3.5867
-3.72244
-3.87429
-4.03995
-4.21946
-4.41002
-4.61129
-4.82017
-5.03714
-5.2596
-5.48915
-5.72382
-5.96589
-6.21367
-6.46975
-6.73252
-7.00437
-7.28364
-7.57232
-7.86882
-8.17425
-8.48698
-8.80743
-9.13364
-9.46502
-9.79951
-10.1356
-10.4707
-10.8027
-11.1285
-11.4449
-11.7484
-12.0351
-12.3009
-12.5412
-12.7513
-12.926
-13.0605
-13.1491
-13.1876
-13.1707
-13.0953
-12.9576
-12.756
-12.4883
-12.1552
-11.757
-11.2969
-10.778
-10.206
-9.58608
-8.92567
-8.23128
-7.51089
-6.77116
-6.01968
-5.26233
-4.50533
-3.75314
-3.01024
-2.27958
-1.56413
-0.865489
-0.18528
0.475928
1.11753
1.73953
2.34193
2.92528
3.48999
4.03664
4.56564
5.07768
5.5734
6.05331
6.51797
6.96797
7.40386
7.82601
8.23491
8.63099
9.01454
9.38581
9.74523
10.0929
10.4288
10.7543
11.0693
11.3731
11.6656
11.9476
12.2193
12.4808
12.732
12.9729
13.204
13.4251
13.6363
13.838
14.0302
14.2131
14.387
14.552
14.7084
14.8564
14.9962
15.1282
15.2525
15.3694
15.4793
15.5826
15.6796
15.7708
15.8566
15.9374
16.0135
16.0851
16.1528
16.2169
16.2776
16.3352
16.3897
16.4416
16.4909
16.5377
16.5825
16.6253
16.6662
16.7056
16.744
16.7815
16.8183
16.8542
16.8888
16.9211
16.9503
16.9759
16.9981
17.0172
17.0331
17.0465
17.0578
17.0676
17.0759
17.0831
17.0895
17.0953
17.1005
17.1053
17.1099
17.1141
17.1183
17.1223
17.1261
17.1297
17.1328
17.1355
17.1379
17.1401
17.142
17.1432
17.144
17.1441
17.1437
17.1429
17.1414
17.1392
17.1359
17.132
17.1271
17.1208
17.1126
17.1016
17.0862
17.0624
17.026
16.9665
-3.46346
-3.56576
-3.66084
-3.76519
-3.88612
-4.02534
-4.17946
-4.3478
-4.52781
-4.71971
-4.9204
-5.13076
-5.34819
-5.57447
-5.80742
-6.04952
-6.29879
-6.55788
-6.82493
-7.10244
-7.38871
-7.68563
-7.99144
-8.30765
-8.63233
-8.9659
-9.30643
-9.65351
-10.005
-10.3593
-10.7138
-11.0664
-11.4138
-11.7529
-12.0799
-12.3909
-12.6815
-12.9467
-13.1815
-13.3803
-13.5378
-13.6476
-13.7048
-13.7036
-13.64
-13.5097
-13.3104
-13.0397
-12.6976
-12.2846
-11.8042
-11.26
-10.6584
-10.0057
-9.31038
-8.58015
-7.82408
-7.04982
-6.26576
-5.47842
-4.69448
-3.91858
-3.15519
-2.4072
-1.6774
-0.967133
-0.27766
0.390821
1.03798
1.6641
2.26945
2.85473
3.42052
3.9676
4.49664
5.00842
5.50362
5.98287
6.4469
6.89634
7.33169
7.7534
8.162
8.55787
8.94143
9.31292
9.67267
10.0208
10.3575
10.6837
10.9996
11.3044
11.598
11.8812
12.1542
12.4171
12.6698
12.9122
13.1449
13.3674
13.5804
13.7835
13.9775
14.162
14.3376
14.5042
14.6624
14.8119
14.9534
15.0869
15.2129
15.3314
15.443
15.5478
15.6466
15.7395
15.8271
15.9095
15.9873
16.0605
16.1298
16.1952
16.2574
16.3162
16.3718
16.4246
16.4748
16.5223
16.5676
16.6105
16.6513
16.6904
16.7281
16.7644
16.7998
16.8343
16.8676
16.8991
16.928
16.9537
16.9764
16.9964
17.0134
17.0279
17.0405
17.0515
17.0609
17.0693
17.0767
17.0834
17.0895
17.0951
17.1004
17.1053
17.1099
17.1144
17.1186
17.1226
17.126
17.129
17.1317
17.1341
17.1361
17.1375
17.1384
17.1384
17.1379
17.1368
17.1349
17.1321
17.1278
17.1226
17.116
17.1073
17.096
17.0811
17.0606
17.0308
16.9877
16.9229
-3.64169
-3.72154
-3.79669
-3.88381
-3.98958
-4.11512
-4.2567
-4.41384
-4.58354
-4.76637
-4.95946
-5.16376
-5.37663
-5.60011
-5.83176
-6.07423
-6.3254
-6.58794
-6.8599
-7.14387
-7.43774
-7.74375
-8.05992
-8.38773
-8.72536
-9.07336
-9.42952
-9.79355
-10.1633
-10.5372
-10.9127
-11.2875
-11.6585
-12.0222
-12.3749
-12.7124
-13.0302
-13.323
-13.5854
-13.8113
-13.9948
-14.1291
-14.2082
-14.2257
-14.1767
-14.0562
-13.8614
-13.5889
-13.2388
-12.8112
-12.3101
-11.7396
-11.1072
-10.4202
-9.68845
-8.92087
-8.1278
-7.31793
-6.50051
-5.68273
-4.87163
-4.07196
-3.28818
-2.523
-1.77904
-1.05739
-0.359095
0.315937
0.967768
1.59705
2.20431
2.79052
3.35643
3.9031
4.43139
4.94214
5.43622
5.91433
6.37725
6.82564
7.26007
7.68107
8.08911
8.48463
8.86802
9.23949
9.59944
9.94787
10.2851
10.6121
10.9289
11.2345
11.5292
11.8137
12.088
12.3522
12.6063
12.8503
13.0844
13.3086
13.5229
13.7279
13.9234
14.1097
14.2869
14.4553
14.615
14.7663
14.9094
15.0446
15.1722
15.2924
15.4056
15.5122
15.6127
15.7075
15.7967
15.8809
15.9603
16.0352
16.106
16.173
16.2364
16.2965
16.3532
16.407
16.458
16.5063
16.552
16.5953
16.6364
16.6755
16.7127
16.7482
16.7825
16.8156
16.8474
16.8776
16.9057
16.9311
16.954
16.9746
16.9925
17.0081
17.022
17.0342
17.0449
17.0545
17.063
17.0707
17.0777
17.0841
17.0902
17.0958
17.101
17.1059
17.1106
17.1149
17.1187
17.1222
17.1251
17.1276
17.1299
17.1315
17.1325
17.1325
17.1318
17.1305
17.1283
17.1248
17.1198
17.1133
17.105
17.0941
17.0799
17.0613
17.0362
17.0014
16.9526
16.8835
-3.73295
-3.7947
-3.85264
-3.92447
-4.0163
-4.12922
-4.25941
-4.40634
-4.56702
-4.7422
-4.92895
-5.12853
-5.33801
-5.55981
-5.79127
-6.03503
-6.28884
-6.55553
-6.83286
-7.12367
-7.42583
-7.74157
-8.06868
-8.40878
-8.75985
-9.12273
-9.49511
-9.87672
-10.2654
-10.6597
-11.0568
-11.4547
-11.85
-12.2393
-12.6187
-12.9839
-13.3301
-13.6518
-13.9434
-14.198
-14.4094
-14.57
-14.6733
-14.7116
-14.6794
-14.5708
-14.3822
-14.1097
-13.7529
-13.312
-12.7911
-12.1951
-11.5322
-10.8112
-10.0432
-9.2386
-8.40889
-7.56379
-6.71339
-5.86542
-5.02745
-4.20448
-3.4011
-2.61991
-1.86325
-1.13178
-0.426237
0.25383
0.90878
1.53974
2.14751
2.73339
3.29833
3.84364
4.37025
4.87923
5.37153
5.84797
6.30931
6.75624
7.18938
7.60936
8.01663
8.41158
8.79454
9.1659
9.52584
9.87462
10.2123
10.5399
10.8574
11.1639
11.4596
11.7452
12.0208
12.2865
12.5419
12.7874
13.0229
13.2487
13.4646
13.6713
13.8683
14.0564
14.2352
14.4054
14.5667
14.7197
14.8643
15.0013
15.1304
15.2525
15.3674
15.4758
15.5781
15.6747
15.7657
15.8516
15.9327
16.0093
16.0816
16.1501
16.2148
16.2761
16.3339
16.3888
16.4407
16.4898
16.536
16.5799
16.6213
16.6605
16.6974
16.7325
16.7658
16.7976
16.8278
16.8565
16.8834
16.9082
16.9311
16.952
16.9706
16.9874
17.0025
17.0159
17.0279
17.0387
17.0484
17.0572
17.0652
17.0726
17.0794
17.0857
17.0915
17.097
17.1021
17.1068
17.1111
17.1149
17.118
17.1208
17.1233
17.1251
17.1262
17.1263
17.1256
17.124
17.1214
17.1174
17.1115
17.1038
17.094
17.0811
17.0642
17.0422
17.0131
16.9738
16.9203
16.8477
-3.72812
-3.77535
-3.81834
-3.87741
-3.95812
-4.06062
-4.18105
-4.31951
-4.47284
-4.64182
-4.8236
-5.01983
-5.22736
-5.44856
-5.68078
-5.92668
-6.18401
-6.45566
-6.73925
-7.03753
-7.34822
-7.67393
-8.01248
-8.36528
-8.73021
-9.10829
-9.49713
-9.89656
-10.3043
-10.7191
-11.1379
-11.5587
-11.9781
-12.3926
-12.7982
-13.1904
-13.5645
-13.9147
-14.235
-14.5182
-14.7577
-14.9453
-15.0735
-15.134
-15.1202
-15.0257
-14.8459
-14.5761
-14.2156
-13.7644
-13.2267
-12.6077
-11.9166
-11.1633
-10.3605
-9.51975
-8.6542
-7.77478
-6.89257
-6.01592
-5.15283
-4.30864
-3.48791
-2.69305
-1.92605
-1.18722
-0.476765
0.206115
0.862239
1.49307
2.09979
2.68392
3.2467
3.78956
4.31358
4.82006
5.30984
5.78404
6.24322
6.68841
7.11991
7.53865
7.94478
8.33896
8.72143
9.09245
9.4522
9.8014
10.1391
10.4674
10.7855
11.0929
11.3896
11.6763
11.9532
12.22
12.4769
12.7238
12.9608
13.188
13.4057
13.6138
13.8126
14.0022
14.1828
14.3545
14.5176
14.6723
14.8187
14.9572
15.0881
15.2118
15.3285
15.4388
15.543
15.6413
15.7342
15.8219
15.9047
15.9829
16.0568
16.1267
16.1927
16.2553
16.3143
16.3701
16.4229
16.4728
16.5197
16.5641
16.6059
16.6452
16.6821
16.7168
16.7494
16.7798
16.8084
16.8354
16.861
16.885
16.9076
16.9286
16.9479
16.9657
16.9819
16.9966
17.0099
17.0221
17.033
17.0429
17.052
17.0604
17.0681
17.0751
17.0816
17.0876
17.0932
17.0984
17.1031
17.1071
17.1106
17.1137
17.1164
17.1183
17.1195
17.1197
17.119
17.1172
17.1144
17.1099
17.1033
17.0945
17.0832
17.0684
17.0491
17.0241
16.9914
16.9482
16.8908
16.8151
-3.63257
-3.66392
-3.69206
-3.74165
-3.8142
-3.90825
-4.02049
-4.15135
-4.29835
-4.46275
-4.64101
-4.83489
-5.04144
-5.26322
-5.49726
-5.7463
-6.0079
-6.28513
-6.57552
-6.88196
-7.20198
-7.53798
-7.8879
-8.2535
-8.63205
-9.02477
-9.42939
-9.8457
-10.2712
-10.7052
-11.1444
-11.5867
-12.0289
-12.4676
-12.8986
-13.3175
-13.7194
-14.098
-14.4473
-14.7599
-15.0285
-15.2444
-15.3994
-15.4843
-15.4914
-15.4133
-15.2447
-14.9802
-14.618
-14.158
-13.6043
-12.9631
-12.2444
-11.4598
-10.6229
-9.74751
-8.84781
-7.93654
-7.02532
-6.12344
-5.23877
-4.37729
-3.54299
-2.73835
-1.96452
-1.22176
-0.50943
0.173479
0.828501
1.45702
2.06097
2.64175
3.20121
3.74042
4.26126
4.76426
5.25106
5.72241
6.17912
6.62204
7.05176
7.46887
7.87373
8.26697
8.6487
9.01886
9.37925
9.72747
10.0664
10.3947
10.7135
11.0217
11.3193
11.607
11.885
12.1531
12.4114
12.6596
12.8981
13.1266
13.346
13.5557
13.7563
13.9474
14.1297
14.3029
14.4678
14.624
14.7723
14.9124
15.0451
15.1704
15.2891
15.4012
15.5074
15.6076
15.7022
15.7916
15.8762
15.9561
16.0316
16.1028
16.1702
16.2339
16.2941
16.3508
16.4047
16.4553
16.503
16.5479
16.5902
16.6296
16.6665
16.7007
16.7325
16.7617
16.7886
16.8139
16.8381
16.8612
16.8834
16.9046
16.9245
16.9432
16.9606
16.9766
16.9913
17.0047
17.0169
17.028
17.0383
17.0477
17.0562
17.064
17.0712
17.0779
17.084
17.0896
17.0947
17.0991
17.1029
17.1063
17.1092
17.1113
17.1126
17.1129
17.1122
17.1103
17.1071
17.1022
17.0949
17.0852
17.0726
17.056
17.0345
17.0068
16.971
16.9244
16.8637
16.7853
-3.45771
-3.46818
-3.48326
-3.52588
-3.59211
-3.67891
-3.7834
-3.90797
-4.04938
-4.20964
-4.38518
-4.57823
-4.7848
-5.00829
-5.2452
-5.49879
-5.76552
-6.04932
-6.34668
-6.66143
-6.98994
-7.3358
-7.69578
-8.07287
-8.46342
-8.87001
-9.28946
-9.72225
-10.165
-10.6177
-11.0766
-11.5402
-12.0046
-12.467
-12.9227
-13.3673
-13.7959
-14.2023
-14.5802
-14.9218
-15.2196
-15.4641
-15.6465
-15.7563
-15.7851
-15.7241
-15.5671
-15.3075
-14.9433
-14.4736
-13.9037
-13.2397
-12.4939
-11.6786
-10.8099
-9.90239
-8.97272
-8.03387
-7.09928
-6.17758
-5.27757
-4.40419
-3.56219
-2.75273
-1.9773
-1.23457
-0.524604
0.155344
0.806066
1.4303
2.02912
2.60529
3.15957
3.69465
4.21085
4.70981
5.19356
5.66095
6.11545
6.55513
6.98339
7.39792
7.80201
8.19337
8.57441
8.94466
9.30382
9.65326
9.9915
10.3206
10.6399
10.9486
11.2471
11.5359
11.815
12.0843
12.3438
12.5935
12.8333
13.0635
13.2843
13.4957
13.6979
13.8909
14.0747
14.2498
14.4162
14.5743
14.7242
14.8662
15.0006
15.128
15.2485
15.3627
15.4709
15.5729
15.6694
15.7605
15.8467
15.9283
16.0053
16.0779
16.1466
16.2116
16.273
16.3308
16.3856
16.4371
16.4854
16.5309
16.5735
16.6132
16.6497
16.6833
16.7142
16.7421
16.7674
16.7912
16.8141
16.8364
16.8584
16.8797
16.9002
16.9199
16.9384
16.9558
16.9718
16.9865
17
17.0123
17.0238
17.0343
17.0437
17.0523
17.0603
17.0677
17.0743
17.0804
17.086
17.0908
17.095
17.0986
17.1017
17.104
17.1054
17.1059
17.1052
17.1032
17.0997
17.0943
17.0865
17.0759
17.0621
17.044
17.0206
16.9905
16.952
16.9025
16.8391
16.7583
-3.22107
-3.20733
-3.21263
-3.2509
-3.31098
-3.38956
-3.48606
-3.60401
-3.74107
-3.8985
-4.07235
-4.26513
-4.47331
-4.69918
-4.93958
-5.19756
-5.46967
-5.75956
-6.06396
-6.38649
-6.72428
-7.08006
-7.45072
-7.83936
-8.24259
-8.66206
-9.09506
-9.54208
-9.99999
-10.4687
-10.9446
-11.426
-11.9094
-12.3918
-12.8688
-13.3358
-13.788
-14.2193
-14.6229
-14.9911
-15.3158
-15.5871
-15.795
-15.9282
-15.9772
-15.9318
-15.7846
-15.5283
-15.1601
-14.6795
-14.0918
-13.405
-12.6327
-11.7887
-10.8912
-9.95654
-9.00271
-8.0435
-7.09297
-6.15971
-5.2524
-4.37515
-3.53289
-2.72605
-1.9542
-1.218
-0.513959
0.157746
0.801886
1.41788
2.01051
2.57909
3.12798
3.65619