/*--------------------------------*- C++ -*----------------------------------*\
  =========                 |
  \\      /  F ield         | OpenFOAM: The Open Source CFD Toolbox
   \\    /   O peration     | Website:  https://openfoam.org
    \\  /    A nd           | Version:  8
     \\/     M anipulation  |
\*---------------------------------------------------------------------------*/
FoamFile
{
    version     2.0;
    format      ascii;
    class       volVectorField;
    location    "35";
    object      U;
}
// * * * * * * * * * * * * * * * * * * * * * * * * * * * * * * * * * * * * * //

dimensions      [0 1 -1 0 0 0 0];

internalField   nonuniform List<vector> 
12225
(
(9.85694 -0.887037 0)
(9.66529 -0.740426 0)
(9.45267 -0.431501 0)
(9.21836 -0.223141 0)
(8.99571 -0.105789 0)
(8.79999 -0.0441544 0)
(8.62673 -0.0135126 0)
(8.47682 0.00197358 0)
(8.34508 0.0100645 0)
(8.23205 0.0144829 0)
(8.13072 0.017014 0)
(8.03901 0.0190691 0)
(7.95194 0.0206456 0)
(7.86742 0.0227277 0)
(7.77923 0.0256984 0)
(7.68777 0.0314069 0)
(7.5515 0.0454779 0)
(7.46873 0.0501127 0)
(10.0543 0.228024 0)
(10.1207 0.327501 0)
(10.1188 0.262593 0)
(10.0829 0.188023 0)
(10.0388 0.137078 0)
(9.99008 0.103673 0)
(9.93433 0.081633 0)
(9.8702 0.0669847 0)
(9.80304 0.0574746 0)
(9.73391 0.0511048 0)
(9.66489 0.0467877 0)
(9.59561 0.0440103 0)
(9.52649 0.042655 0)
(9.45757 0.0430445 0)
(9.38743 0.0458702 0)
(9.31894 0.052916 0)
(9.23954 0.0704999 0)
(9.18504 0.101989 0)
(10.0035 0.0583912 0)
(10.0301 0.056279 0)
(10.0546 0.0353784 0)
(10.0669 0.0346617 0)
(10.0715 0.0425925 0)
(10.0702 0.0487551 0)
(10.0617 0.0518855 0)
(10.0456 0.0539117 0)
(10.0252 0.0555349 0)
(10.0008 0.0567424 0)
(9.97334 0.057661 0)
(9.94218 0.0587714 0)
(9.90788 0.0606028 0)
(9.87043 0.0641006 0)
(9.82951 0.0696912 0)
(9.78543 0.0810371 0)
(9.73763 0.0972443 0)
(9.68994 0.135468 0)
(9.99779 0.0111699 0)
(10.0107 0.0275758 0)
(10.0332 0.0382592 0)
(10.0487 0.0494883 0)
(10.0587 0.0578232 0)
(10.0655 0.0614463 0)
(10.068 0.0625438 0)
(10.0661 0.0632875 0)
(10.0614 0.0642505 0)
(10.0542 0.0652041 0)
(10.0445 0.0662304 0)
(10.0316 0.0678299 0)
(10.0159 0.0706091 0)
(9.9974 0.0754101 0)
(9.97593 0.0829959 0)
(9.95196 0.0953883 0)
(9.92658 0.114446 0)
(9.90045 0.14332 0)
(9.99928 0.00739969 0)
(10.0084 0.0325645 0)
(10.0256 0.0452582 0)
(10.0381 0.0523885 0)
(10.0472 0.0572959 0)
(10.0549 0.0598808 0)
(10.0598 0.0612222 0)
(10.0618 0.0625581 0)
(10.062 0.0641798 0)
(10.0604 0.0659298 0)
(10.0568 0.0679249 0)
(10.0507 0.0706796 0)
(10.0423 0.0747854 0)
(10.0318 0.0810125 0)
(10.0192 0.0900726 0)
(10.0053 0.103404 0)
(9.9912 0.122475 0)
(9.97959 0.147968 0)
(10.0002 0.00954955 0)
(10.0077 0.0323488 0)
(10.0209 0.0430936 0)
(10.0313 0.0487733 0)
(10.0394 0.0534543 0)
(10.0468 0.0568693 0)
(10.052 0.0592531 0)
(10.055 0.061424 0)
(10.0567 0.0637605 0)
(10.0571 0.0662878 0)
(10.0558 0.0691914 0)
(10.0525 0.0729434 0)
(10.0473 0.0780813 0)
(10.0405 0.0852851 0)
(10.0324 0.095196 0)
(10.0238 0.108872 0)
(10.016 0.127271 0)
(10.0116 0.15061 0)
(10.0003 0.00943014 0)
(10.0065 0.0286019 0)
(10.0173 0.0390755 0)
(10.0265 0.0452174 0)
(10.034 0.0504286 0)
(10.0408 0.0545431 0)
(10.0458 0.0576393 0)
(10.049 0.0603907 0)
(10.0511 0.0632515 0)
(10.0522 0.0663896 0)
(10.052 0.070018 0)
(10.0501 0.0745443 0)
(10.0467 0.0804506 0)
(10.0421 0.088314 0)
(10.0369 0.0986883 0)
(10.0316 0.112278 0)
(10.0276 0.129606 0)
(10.0266 0.150139 0)
(10.0003 0.00850809 0)
(10.0054 0.025155 0)
(10.0145 0.0357797 0)
(10.0227 0.0424716 0)
(10.0297 0.0480154 0)
(10.036 0.0524659 0)
(10.0407 0.0559974 0)
(10.0439 0.0592034 0)
(10.0462 0.0625321 0)
(10.0477 0.0661989 0)
(10.0481 0.0704217 0)
(10.0471 0.0755637 0)
(10.045 0.0820619 0)
(10.042 0.0903809 0)
(10.0388 0.100943 0)
(10.0359 0.114163 0)
(10.0345 0.130221 0)
(10.0355 0.148376 0)
(10.0003 0.00765865 0)
(10.0045 0.0224764 0)
(10.0121 0.0329609 0)
(10.0195 0.0399469 0)
(10.0259 0.04568 0)
(10.0319 0.0503436 0)
(10.0364 0.054204 0)
(10.0396 0.057826 0)
(10.042 0.0616119 0)
(10.0438 0.0657551 0)
(10.0446 0.0704768 0)
(10.0444 0.0761152 0)
(10.0434 0.0830613 0)
(10.0418 0.0916539 0)
(10.0402 0.102184 0)
(10.0391 0.114857 0)
(10.0395 0.129679 0)
(10.0419 0.145953 0)
(10.0003 0.0069386 0)
(10.0038 0.0201952 0)
(10.0102 0.0303056 0)
(10.0167 0.0373511 0)
(10.0227 0.0432248 0)
(10.0283 0.0481314 0)
(10.0326 0.0523042 0)
(10.0359 0.0563084 0)
(10.0385 0.0605038 0)
(10.0405 0.0650673 0)
(10.0418 0.0702073 0)
(10.0424 0.0762384 0)
(10.0423 0.0834827 0)
(10.0419 0.0921809 0)
(10.0417 0.102516 0)
(10.0422 0.11456 0)
(10.044 0.128214 0)
(10.0475 0.142875 0)
(10.0003 0.00628724 0)
(10.0032 0.0181819 0)
(10.0086 0.0277669 0)
(10.0144 0.0347422 0)
(10.0199 0.0406899 0)
(10.0252 0.0458218 0)
(10.0294 0.0502931 0)
(10.0328 0.0546344 0)
(10.0356 0.0591773 0)
(10.0379 0.0640811 0)
(10.0397 0.0695371 0)
(10.041 0.0758248 0)
(10.0418 0.0832042 0)
(10.0425 0.0918553 0)
(10.0436 0.101874 0)
(10.0453 0.113231 0)
(10.0483 0.125784 0)
(10.0527 0.138998 0)
(10.0003 0.00571679 0)
(10.0027 0.016525 0)
(10.0073 0.0255602 0)
(10.0126 0.0325376 0)
(10.0178 0.0384632 0)
(10.0228 0.0436316 0)
(10.027 0.0483306 0)
(10.0304 0.0530112 0)
(10.0334 0.0578811 0)
(10.036 0.0630156 0)
(10.0384 0.0686115 0)
(10.0403 0.0749606 0)
(10.042 0.0823183 0)
(10.0437 0.0908296 0)
(10.0457 0.100488 0)
(10.0485 0.111219 0)
(10.0522 0.122822 0)
(10.0573 0.13487 0)
(10.0003 0.00518283 0)
(10.0024 0.0150108 0)
(10.0064 0.0234693 0)
(10.0111 0.0303698 0)
(10.0159 0.0362526 0)
(10.0207 0.0413799 0)
(10.0249 0.0461761 0)
(10.0285 0.0510823 0)
(10.0318 0.0562187 0)
(10.0347 0.0615817 0)
(10.0374 0.0673132 0)
(10.0399 0.0736844 0)
(10.0424 0.0809211 0)
(10.045 0.0891442 0)
(10.048 0.0983275 0)
(10.0516 0.108378 0)
(10.0562 0.119074 0)
(10.0617 0.130079 0)
(10.0002 0.00462262 0)
(10.002 0.0134627 0)
(10.0056 0.0211647 0)
(10.0098 0.0278217 0)
(10.0141 0.0336952 0)
(10.0187 0.0387719 0)
(10.0231 0.0435432 0)
(10.027 0.0485478 0)
(10.0305 0.0538957 0)
(10.0338 0.0594807 0)
(10.0369 0.0653588 0)
(10.0401 0.0717 0)
(10.0434 0.0787102 0)
(10.0469 0.0864784 0)
(10.0509 0.0950208 0)
(10.0553 0.104223 0)
(10.0606 0.113905 0)
(10.0666 0.123808 0)
(10.0002 0.00406211 0)
(10.0017 0.0118109 0)
(10.0048 0.018789 0)
(10.0087 0.0249867 0)
(10.0127 0.030733 0)
(10.017 0.0358028 0)
(10.0214 0.0404766 0)
(10.0258 0.0453458 0)
(10.0298 0.0506495 0)
(10.0334 0.0563074 0)
(10.037 0.0622442 0)
(10.0408 0.0685105 0)
(10.0449 0.0752165 0)
(10.0493 0.0824574 0)
(10.0542 0.0902126 0)
(10.0595 0.0984402 0)
(10.0656 0.106963 0)
(10.072 0.115707 0)
(10.0002 0.00348006 0)
(10.0015 0.010046 0)
(10.0042 0.0162467 0)
(10.008 0.0217706 0)
(10.0118 0.027117 0)
(10.0157 0.03211 0)
(10.0202 0.0367026 0)
(10.025 0.0413271 0)
(10.0296 0.046334 0)
(10.0338 0.0517704 0)
(10.0379 0.0575216 0)
(10.0424 0.0635338 0)
(10.0472 0.0698127 0)
(10.0524 0.0764154 0)
(10.0582 0.0833283 0)
(10.0642 0.0905022 0)
(10.0709 0.0978 0)
(10.0777 0.105262 0)
(10.0001 0.00283497 0)
(10.0014 0.00812968 0)
(10.0038 0.0133116 0)
(10.0074 0.0180073 0)
(10.0113 0.0226672 0)
(10.0152 0.0273071 0)
(10.0196 0.0317431 0)
(10.0248 0.0361178 0)
(10.03 0.0407205 0)
(10.035 0.0456611 0)
(10.0398 0.0509055 0)
(10.0448 0.0563569 0)
(10.0502 0.0619847 0)
(10.0562 0.0677617 0)
(10.0626 0.0737022 0)
(10.0692 0.0797378 0)
(10.0764 0.0857956 0)
(10.0836 0.0919385 0)
(10.0001 0.00210102 0)
(10.0013 0.0059577 0)
(10.0037 0.00991464 0)
(10.0073 0.013665 0)
(10.0114 0.0173815 0)
(10.0156 0.0212319 0)
(10.0201 0.0251385 0)
(10.0255 0.0290613 0)
(10.0313 0.0331038 0)
(10.037 0.0373592 0)
(10.0424 0.0418307 0)
(10.048 0.0464717 0)
(10.054 0.0512312 0)
(10.0605 0.0560579 0)
(10.0674 0.0609183 0)
(10.0746 0.0657741 0)
(10.0821 0.0705545 0)
(10.0894 0.0753411 0)
(10.0002 0.00116752 0)
(10.0014 0.00329474 0)
(10.0039 0.00562146 0)
(10.0076 0.00805911 0)
(10.0121 0.0105754 0)
(10.0167 0.0132838 0)
(10.0216 0.0162631 0)
(10.0274 0.0194155 0)
(10.0338 0.0227057 0)
(10.04 0.0261082 0)
(10.0461 0.0296414 0)
(10.0523 0.033266 0)
(10.0588 0.0369775 0)
(10.0657 0.0407124 0)
(10.0729 0.044429 0)
(10.0802 0.0480551 0)
(10.0879 0.0515655 0)
(10.0952 0.0549874 0)
(10.0002 0.000192974 0)
(10.0016 0.000546248 0)
(10.0044 0.00114602 0)
(10.0085 0.00217968 0)
(10.0134 0.00350952 0)
(10.0186 0.00513104 0)
(10.0242 0.00713327 0)
(10.0305 0.00946938 0)
(10.0373 0.0119512 0)
(10.0439 0.0145177 0)
(10.0503 0.0171392 0)
(10.0569 0.0198593 0)
(10.0637 0.0226394 0)
(10.0708 0.0254707 0)
(10.0782 0.028258 0)
(10.0855 0.0309754 0)
(10.0931 0.0335641 0)
(10.1003 0.0360246 0)
(10.0002 -0.000660693 0)
(10.0018 -0.00195262 0)
(10.0051 -0.00286955 0)
(10.0097 -0.00302307 0)
(10.0151 -0.00269153 0)
(10.0208 -0.00195508 0)
(10.0269 -0.000711578 0)
(10.0337 0.000966275 0)
(10.0408 0.00280835 0)
(10.0476 0.00471453 0)
(10.0543 0.00668998 0)
(10.0612 0.0087968 0)
(10.0683 0.0109928 0)
(10.0756 0.0132565 0)
(10.083 0.0154852 0)
(10.0904 0.0176483 0)
(10.0979 0.0196944 0)
(10.1049 0.0215691 0)
(10.0002 -0.00147775 0)
(10.002 -0.00444247 0)
(10.0058 -0.00689276 0)
(10.0112 -0.00820727 0)
(10.017 -0.0088002 0)
(10.0233 -0.00881388 0)
(10.0301 -0.0081047 0)
(10.0374 -0.00690748 0)
(10.0446 -0.00553683 0)
(10.0516 -0.00412655 0)
(10.0586 -0.00260455 0)
(10.0657 -0.000945335 0)
(10.0731 0.000851908 0)
(10.0805 0.00266698 0)
(10.088 0.00447015 0)
(10.0953 0.00614908 0)
(10.1026 0.00774671 0)
(10.1096 0.00915241 0)
(10.0002 -0.00225262 0)
(10.0021 -0.00693409 0)
(10.0066 -0.0108808 0)
(10.0128 -0.0131712 0)
(10.0193 -0.0145591 0)
(10.0264 -0.0152122 0)
(10.0338 -0.0149923 0)
(10.0414 -0.0142079 0)
(10.0487 -0.0132481 0)
(10.0559 -0.0122051 0)
(10.0631 -0.0110151 0)
(10.0705 -0.00965227 0)
(10.078 -0.00816661 0)
(10.0855 -0.0066637 0)
(10.0929 -0.00520164 0)
(10.1002 -0.0038365 0)
(10.1073 -0.0025656 0)
(10.1143 -0.00141579 0)
(10.0002 -0.00294495 0)
(10.0022 -0.00981768 0)
(10.0076 -0.0150524 0)
(10.0147 -0.0177791 0)
(10.0218 -0.0196354 0)
(10.0295 -0.0208213 0)
(10.0376 -0.0210965 0)
(10.0455 -0.0207801 0)
(10.053 -0.0202336 0)
(10.0603 -0.0195245 0)
(10.0677 -0.0185979 0)
(10.0753 -0.0174567 0)
(10.083 -0.0162082 0)
(10.0906 -0.0149289 0)
(10.098 -0.0136973 0)
(10.1051 -0.0125307 0)
(10.1121 -0.0114427 0)
(10.1191 -0.0104313 0)
(9.99992 -0.00290545 0)
(10.002 -0.0136178 0)
(10.0087 -0.020571 0)
(10.0168 -0.0232313 0)
(10.0243 -0.0248978 0)
(10.0326 -0.0260506 0)
(10.0413 -0.0264336 0)
(10.0496 -0.0263564 0)
(10.0573 -0.0261198 0)
(10.0649 -0.0257132 0)
(10.0726 -0.0250492 0)
(10.0804 -0.0241665 0)
(10.0882 -0.023169 0)
(10.0956 -0.0221473 0)
(10.1029 -0.021141 0)
(10.1099 -0.0201844 0)
(10.1166 -0.0192531 0)
(10.1233 -0.018363 0)
(9.99861 1.54855e-06 0)
(9.99944 -0.0147378 0)
(10.0089 -0.025434 0)
(10.019 -0.0299934 0)
(10.0276 -0.0321144 0)
(10.0367 -0.0328366 0)
(10.0461 -0.0325259 0)
(10.0548 -0.0319207 0)
(10.0627 -0.0313959 0)
(10.0704 -0.0308583 0)
(10.0781 -0.0301695 0)
(10.0857 -0.0293277 0)
(10.093 -0.0284343 0)
(10.0999 -0.0275563 0)
(10.1065 -0.0267283 0)
(10.1127 -0.0259696 0)
(10.1186 -0.0252547 0)
(10.1247 -0.0246184 0)
(9.99505 0.0016709 0)
(9.99345 -0.00755179 0)
(10.0074 -0.0189386 0)
(10.0223 -0.0297682 0)
(10.034 -0.0375605 0)
(10.0451 -0.0410985 0)
(10.0552 -0.0415708 0)
(10.0635 -0.040861 0)
(10.0705 -0.0399009 0)
(10.0769 -0.0388041 0)
(10.083 -0.0375423 0)
(10.0886 -0.0361134 0)
(10.0937 -0.0346279 0)
(10.0982 -0.0332169 0)
(10.1022 -0.0319305 0)
(10.1059 -0.0307912 0)
(10.1092 -0.0298008 0)
(10.1127 -0.0290102 0)
(9.99478 -0.0305137 0)
(9.99992 -0.0220592 0)
(10.0161 -0.00240437 0)
(10.0326 -0.000963047 0)
(10.0464 -0.00972513 0)
(10.0584 -0.0183049 0)
(10.067 -0.0240546 0)
(10.0716 -0.0278828 0)
(10.0734 -0.0305306 0)
(10.0735 -0.0322402 0)
(10.0726 -0.033126 0)
(10.0708 -0.0332829 0)
(10.0682 -0.032891 0)
(10.0648 -0.0322536 0)
(10.061 -0.0315145 0)
(10.0569 -0.0307834 0)
(10.0526 -0.0301885 0)
(10.0488 -0.0297922 0)
(10.0269 -0.182885 0)
(10.0766 -0.288346 0)
(10.0878 -0.247341 0)
(10.0795 -0.186559 0)
(10.0688 -0.140486 0)
(10.058 -0.107918 0)
(10.0431 -0.08466 0)
(10.023 -0.0683209 0)
(9.99979 -0.0570857 0)
(9.97514 -0.0491827 0)
(9.95034 -0.04344 0)
(9.92568 -0.0389895 0)
(9.90135 -0.0353538 0)
(9.87749 -0.0322933 0)
(9.85444 -0.0296751 0)
(9.83228 -0.027479 0)
(9.81104 -0.0256915 0)
(9.79175 -0.0248407 0)
(9.93619 0.68963 0)
(9.86904 0.609788 0)
(9.76705 0.383089 0)
(9.6306 0.219682 0)
(9.49184 0.120293 0)
(9.36668 0.0635744 0)
(9.25642 0.0321268 0)
(9.15882 0.0146704 0)
(9.07279 0.00487142 0)
(8.99795 -0.000818454 0)
(8.93269 -0.00418704 0)
(8.87583 -0.00614862 0)
(8.82551 -0.00725732 0)
(8.78093 -0.00776574 0)
(8.74105 -0.00790813 0)
(8.70533 -0.0078103 0)
(8.67283 -0.00741638 0)
(8.64328 -0.00757248 0)
(0.109629 -0.16875 -1.25808e-19)
(0.207666 -0.193099 7.41258e-20)
(0.304238 -0.169418 0)
(0.387401 -0.139686 0)
(0.439038 -0.112148 0)
(0.462916 -0.0807356 -5.28879e-20)
(0.458925 -0.0533205 0)
(0.4341 -0.0392658 0)
(0.395773 -0.0395038 0)
(0.355764 -0.0476829 0)
(0.317265 -0.0567598 1.03232e-19)
(0.245072 -0.0453139 0)
(0.144566 -0.0190663 0)
(0.0492624 0.0436658 0)
(-0.0934425 0.110469 0)
(-0.279067 0.166589 8.55236e-20)
(-0.486236 0.210361 0)
(-0.709777 0.242566 0)
(-0.944344 0.263778 0)
(-1.18508 0.275396 0)
(-1.42676 0.279004 0)
(-1.66583 0.27655 0)
(-1.89918 0.269656 0)
(-2.12468 0.259664 2.88731e-20)
(-2.34072 0.247667 -2.81262e-20)
(-2.5464 0.234469 2.76761e-20)
(-2.74115 0.220698 2.74432e-20)
(-2.92489 0.206723 0)
(-3.09762 0.192838 0)
(-3.25962 0.17916 -2.75205e-20)
(-3.41111 0.165828 -2.77067e-20)
(-3.55248 0.152822 0)
(-3.68399 0.140179 0)
(-3.80595 0.127773 -2.85417e-20)
(-3.91848 0.11562 0)
(-4.02175 0.10374 0)
(-4.11582 0.0924321 2.96956e-20)
(-4.20085 0.0817368 0)
(-4.27683 0.0715186 3.06068e-20)
(-4.34377 0.061494 6.22062e-20)
(-4.40148 0.0519879 0)
(-4.44991 0.0428635 0)
(-4.48893 0.0339328 0)
(-4.51838 0.0250916 0)
(-4.53834 0.0164551 0)
(-4.54882 0.00869033 6.82391e-20)
(-4.55112 0.00250775 6.88678e-20)
(-4.5464 -0.00261919 6.93519e-20)
(-4.53473 -0.00873916 0)
(-4.51587 -0.0172269 -7.00293e-20)
(-4.49002 -0.0222647 0)
(-4.45839 -0.0265408 6.98466e-20)
(-4.42006 -0.0350131 6.95053e-20)
(-4.37515 -0.0411939 0)
(-4.32436 -0.0455291 0)
(-4.2685 -0.0470866 0)
(-4.20817 -0.0494257 6.55607e-20)
(-4.14309 -0.053914 0)
(-4.07361 -0.0590543 0)
(-3.99856 -0.065651 0)
(-3.91982 -0.0654371 0)
(-3.83878 -0.0644801 0)
(-3.7549 -0.0694698 0)
(-3.66761 -0.0739291 0)
(-3.57766 -0.0759843 0)
(-3.4858 -0.0776191 -4.46967e-20)
(-3.39259 -0.0786352 0)
(-3.2979 -0.0798533 0)
(-3.20262 -0.0780752 3.42136e-20)
(-3.10717 -0.0778304 3.05099e-20)
(-3.01081 -0.0779951 0)
(-2.91518 -0.0757759 -2.2844e-20)
(-2.81914 -0.0792428 1.88254e-20)
(-2.72182 -0.0793257 0)
(-2.62654 -0.0747981 -1.02322e-20)
(-2.53122 -0.0777401 0)
(-2.43482 -0.0777065 0)
(-2.34054 -0.0736966 -3.66115e-21)
(-2.24659 -0.0727084 0)
(-2.15381 -0.0730649 1.37536e-20)
(-2.06036 -0.0741655 0)
(-1.9681 -0.0730221 -2.47828e-20)
(-1.87648 -0.0725212 -3.06654e-20)
(-1.78562 -0.0718933 -3.68653e-20)
(-1.6954 -0.0713989 -8.67765e-20)
(-1.60594 -0.0709665 1.00628e-19)
(-1.51731 -0.0706562 0)
(-1.42973 -0.0703912 0)
(-1.34315 -0.0701936 0)
(-1.25738 -0.0699641 1.653e-19)
(-1.17202 -0.0696594 1.84584e-19)
(-1.08705 -0.069401 -2.05595e-19)
(-1.00261 -0.0692815 0)
(-0.918756 -0.0692992 2.53659e-19)
(-0.835524 -0.0693483 2.81235e-19)
(-0.753077 -0.0695012 3.1199e-19)
(-0.671267 -0.0698342 0)
(-0.590112 -0.0702743 0)
(-0.509722 -0.0706641 0)
(-0.430067 -0.0709654 4.80698e-19)
(-0.351124 -0.0715327 0)
(-0.272421 -0.0725094 0)
(-0.193775 -0.0737623 -6.98707e-19)
(-0.114989 -0.0749247 0)
(-0.032145 -0.0747125 0)
(0.0531422 -0.0727712 -6.8735e-19)
(0.137171 -0.070216 0)
(0.22013 -0.0676027 0)
(0.301603 -0.0651113 5.60376e-19)
(0.381434 -0.062602 5.31757e-19)
(0.459588 -0.0600446 0)
(0.53594 -0.0577095 -4.84787e-19)
(0.610767 -0.0559619 0)
(0.683823 -0.0543489 4.48046e-19)
(0.755122 -0.0528406 0)
(0.82417 -0.0508833 4.21328e-19)
(0.891113 -0.0488472 4.10409e-19)
(0.955682 -0.0468362 0)
(1.01767 -0.0443577 0)
(1.07662 -0.0417612 0)
(1.13232 -0.0388371 0)
(1.18493 -0.0354547 0)
(1.23411 -0.0321412 0)
(1.27906 -0.0295177 0)
(1.31945 -0.0275399 3.48304e-19)
(1.35494 -0.025133 -3.46589e-19)
(1.38506 -0.0218502 0)
(1.41427 -0.0269221 0)
(1.44163 -0.0229122 0)
(1.46744 -0.00568302 0)
(1.48851 -0.00240541 -7.09142e-19)
(1.51019 -0.00798134 0)
(1.53759 -0.0160479 7.19166e-19)
(1.56767 0.028695 -6.96809e-19)
(1.60266 0.0619961 0)
(1.63112 0.02846 0)
(1.66646 -0.0151458 0)
(1.70844 -0.0249583 5.87796e-19)
(1.74249 -0.00720543 5.89218e-19)
(1.77711 -0.0471915 0)
(1.81144 -0.0884623 6.49465e-19)
(1.84935 -0.0237022 6.47985e-19)
(1.88565 0.0167052 -5.75772e-19)
(1.9169 0.00406402 0)
(1.9517 -0.00239674 0)
(1.98471 -0.00664621 -5.41906e-19)
(2.01525 -0.00854395 0)
(2.0433 -0.010624 0)
(2.06966 -0.0129488 0)
(2.09515 -0.0146978 0)
(2.11912 -0.0137646 5.27059e-19)
(2.1405 -0.00964357 5.25768e-19)
(2.15867 -0.0077033 0)
(2.177 -0.00943279 5.23615e-19)
(2.19607 -0.0102172 0)
(2.21293 -0.00799377 0)
(2.22891 -0.00670049 5.20438e-19)
(2.24372 -0.00844989 0)
(2.26015 -0.0106762 5.17938e-19)
(2.27637 -0.010673 0)
(2.29259 -0.00943718 0)
(2.30766 -0.00592601 5.15287e-19)
(2.32152 -0.00538675 0)
(2.33635 -0.00785288 5.14071e-19)
(2.35212 -0.00490601 0)
(2.3679 -0.00374386 0)
(2.38269 -0.00153012 0)
(2.39642 -0.0013667 -5.08553e-19)
(2.41053 -0.00636234 0)
(2.42612 -0.00830805 5.05553e-19)
(2.43994 -0.00449984 0)
(2.4529 0.000763597 0)
(2.46547 -0.00334736 0)
(2.47519 -0.00830296 0)
(2.48418 -0.004031 0)
(2.48776 0.00341539 0)
(2.48336 0.00908705 0)
(2.46003 0.0153494 -1.0178e-18)
(2.42521 0.0250904 0)
(2.29706 0.0362529 0)
(0.0510889 -0.46589 3.32277e-19)
(0.157761 -0.41847 -2.48113e-19)
(0.215311 -0.295687 0)
(0.245199 -0.184805 1.24408e-19)
(0.248432 -0.0923159 0)
(0.226796 -0.0180749 6.13866e-20)
(0.185357 0.0434374 -1.30027e-19)
(0.121375 0.095203 -1.4407e-19)
(0.0263256 0.138514 0)
(-0.117215 0.192021 -1.33244e-19)
(-0.312427 0.277341 -5.94115e-20)
(-0.530599 0.371124 0)
(-0.772785 0.461582 0)
(-1.02588 0.540123 0)
(-1.28552 0.600867 0)
(-1.54213 0.642315 -2.50042e-20)
(-1.7888 0.665578 0)
(-2.02273 0.673122 4.04629e-20)
(-2.24155 0.667162 0)
(-2.44391 0.651078 0)
(-2.62967 0.627573 -3.50054e-20)
(-2.79952 0.59888 0)
(-2.95436 0.566997 3.40919e-20)
(-3.09546 0.533473 -1.65268e-20)
(-3.22408 0.499546 1.6665e-20)
(-3.34149 0.466074 -1.68907e-20)
(-3.44888 0.433675 -1.71744e-20)
(-3.54732 0.402654 0)
(-3.63767 0.373202 0)
(-3.72067 0.345293 1.82002e-20)
(-3.79691 0.318893 -1.88567e-20)
(-3.86685 0.293809 0)
(-3.93084 0.269916 0)
(-3.98916 0.246972 1.96547e-20)
(-4.04204 0.224855 0)
(-4.0897 0.203335 0)
(-4.1323 0.182361 -2.07365e-20)
(-4.16995 0.161773 0)
(-4.20274 0.141599 2.15586e-20)
(-4.23079 0.121711 -4.37405e-20)
(-4.25423 0.102196 0)
(-4.27316 0.0830071 0)
(-4.2877 0.0643054 -9.21974e-20)
(-4.298 0.0460981 -9.36312e-20)
(-4.30406 0.028652 -9.49913e-20)
(-4.30589 0.0120437 4.80952e-20)
(-4.30234 -0.00364362 -4.82823e-20)
(-4.29239 -0.0189238 -1.45266e-19)
(-4.27582 -0.0338629 9.68923e-20)
(-4.25287 -0.0480559 4.81683e-20)
(-4.22367 -0.0614615 0)
(-4.18762 -0.0744215 -4.75771e-20)
(-4.14568 -0.0869369 4.79765e-20)
(-4.09817 -0.0986636 0)
(-4.04493 -0.109386 0)
(-3.98613 -0.119474 0)
(-3.92167 -0.128738 -4.38202e-20)
(-3.85238 -0.137383 0)
(-3.77878 -0.145067 8.39982e-20)
(-3.70203 -0.152184 0)
(-3.62188 -0.158092 7.84229e-20)
(-3.53722 -0.162803 0)
(-3.44988 -0.167165 -7.18041e-20)
(-3.36087 -0.170531 0)
(-3.26969 -0.17281 6.44277e-20)
(-3.17695 -0.174618 -3.1014e-20)
(-3.08285 -0.175713 0)
(-2.98785 -0.176215 -5.14115e-20)
(-2.89198 -0.176119 -2.25076e-20)
(-2.79536 -0.175972 -2.01573e-20)
(-2.6989 -0.175532 0)
(-2.60168 -0.174103 -1.72488e-20)
(-2.50438 -0.172484 -1.30994e-20)
(-2.40849 -0.171048 0)
(-2.31192 -0.168859 8.21497e-21)
(-2.21525 -0.166697 -1.30921e-20)
(-2.12029 -0.16486 0)
(-2.02524 -0.16256 -6.23907e-22)
(-1.93018 -0.160412 0)
(-1.836 -0.158456 -1.206e-20)
(-1.74253 -0.15601 0)
(-1.64986 -0.153658 2.81919e-20)
(-1.5577 -0.15138 1.27109e-20)
(-1.46615 -0.149131 -1.3886e-20)
(-1.37516 -0.146942 -3.35532e-20)
(-1.28474 -0.144809 3.94743e-20)
(-1.19495 -0.142816 0)
(-1.10593 -0.14095 0)
(-1.01777 -0.139224 0)
(-0.930385 -0.137513 -2.00957e-19)
(-0.843382 -0.1357 -7.49303e-20)
(-0.756576 -0.133791 8.20578e-20)
(-0.670042 -0.131864 0)
(-0.583858 -0.129989 9.37447e-20)
(-0.498048 -0.128234 -1.05186e-19)
(-0.412633 -0.126591 -1.13563e-19)
(-0.327569 -0.12499 0)
(-0.242752 -0.123546 0)
(-0.158285 -0.12224 0)
(-0.0730983 -0.121282 -1.477e-19)
(0.0128833 -0.120712 0)
(0.0984524 -0.120536 2.98433e-19)
(0.183527 -0.120907 4.54065e-19)
(0.267282 -0.121036 -3.05009e-19)
(0.34862 -0.120015 0)
(0.427552 -0.117869 -1.54653e-19)
(0.504859 -0.115052 0)
(0.58101 -0.111964 -3.19293e-19)
(0.655956 -0.1088 1.59947e-19)
(0.729654 -0.105597 1.61679e-19)
(0.802089 -0.102344 0)
(0.873181 -0.0990052 4.99234e-19)
(0.942841 -0.0957428 -3.33856e-19)
(1.01095 -0.0925568 -1.69014e-19)
(1.07738 -0.0893108 0)
(1.14205 -0.085898 -1.7094e-19)
(1.20495 -0.0822943 -5.1342e-19)
(1.26585 -0.0784629 0)
(1.32443 -0.0743935 -3.43392e-19)
(1.38074 -0.0700368 -3.42597e-19)
(1.43465 -0.0653669 -3.40843e-19)
(1.48604 -0.0604293 0)
(1.53485 -0.0553493 0)
(1.581 -0.0502712 0)
(1.62467 -0.0453902 1.65109e-19)
(1.66588 -0.0405441 1.66625e-19)
(1.70492 -0.035899 0)
(1.74128 -0.0327417 3.4154e-19)
(1.77371 -0.0323568 3.54253e-19)
(1.8028 -0.0325585 0)
(1.83211 -0.0313324 3.85551e-19)
(1.86011 -0.0318205 7.93826e-19)
(1.88393 -0.035806 -4.19349e-19)
(1.90767 -0.0434062 -4.27838e-19)
(1.9298 -0.0427867 0)
(1.95681 -0.0373385 0)
(1.98204 -0.0324292 0)
(2.00717 -0.0324739 -4.0911e-19)
(2.03795 -0.0323579 4.13546e-19)
(2.07115 -0.0280765 8.15769e-19)
(2.10286 -0.0273257 -4.36598e-19)
(2.13267 -0.0361727 4.42109e-19)
(2.16052 -0.038934 4.13232e-19)
(2.18813 -0.035801 0)
(2.21286 -0.0323799 0)
(2.23786 -0.0291704 -3.92166e-19)
(2.26286 -0.0260504 0)
(2.28726 -0.0235407 0)
(2.31085 -0.0217211 7.722e-19)
(2.33412 -0.0203822 0)
(2.35646 -0.018889 3.84222e-19)
(2.37762 -0.0173843 -3.86034e-19)
(2.3992 -0.0155244 0)
(2.42019 -0.0138125 3.86123e-19)
(2.43966 -0.0136822 0)
(2.4591 -0.0136925 0)
(2.47882 -0.0132577 -3.8562e-19)
(2.49852 -0.0125585 7.74208e-19)
(2.5177 -0.0123329 -3.84381e-19)
(2.53657 -0.0124813 0)
(2.55459 -0.0123449 0)
(2.57297 -0.0123026 3.84496e-19)
(2.59151 -0.0112845 0)
(2.61033 -0.0103481 3.85776e-19)
(2.62885 -0.0109352 0)
(2.64666 -0.0114374 0)
(2.6654 -0.0119405 0)
(2.68413 -0.011532 3.84007e-19)
(2.70325 -0.0101878 0)
(2.72157 -0.0100499 -3.79376e-19)
(2.73917 -0.0105991 0)
(2.75604 -0.0100225 0)
(2.77181 -0.00804364 7.60099e-19)
(2.78686 -0.00608701 -7.73926e-19)
(2.79907 -0.00460432 0)
(2.80956 -0.0018341 0)
(2.8184 0.00404765 0)
(2.81998 0.0143059 2.28087e-18)
(2.82096 0.0355165 0)
(2.79182 0.0674426 -1.51756e-18)
(-0.0174388 -0.591641 -4.31504e-21)
(0.0180677 -0.468179 2.64095e-19)
(-0.0077175 -0.310826 0)
(-0.0523702 -0.155268 -2.05249e-19)
(-0.11868 -0.00908018 0)
(-0.211968 0.128515 0)
(-0.33741 0.261232 1.82935e-21)
(-0.49676 0.393611 7.36733e-20)
(-0.686821 0.525603 6.33192e-20)
(-0.899303 0.653081 5.75013e-20)
(-1.12341 0.768549 0)
(-1.3476 0.863937 0)
(-1.56428 0.936763 -4.01417e-20)
(-1.7686 0.987006 -7.36339e-20)
(-1.9558 1.01545 6.8248e-20)
(-2.12362 1.02363 0)
(-2.27285 1.01393 6.02538e-20)
(-2.40504 0.989588 -2.74776e-20)
(-2.52307 0.953928 0)
(-2.62963 0.910216 5.3951e-20)
(-2.72702 0.861645 2.50091e-20)
(-2.81726 0.810654 -5.26676e-20)
(-2.90196 0.759163 -2.48616e-20)
(-2.98247 0.708541 0)
(-3.05973 0.659713 5.28293e-20)
(-3.13439 0.613218 5.32288e-20)
(-3.20685 0.569309 0)
(-3.27731 0.52801 5.43519e-20)
(-3.34583 0.489213 0)
(-3.41236 0.452695 5.57868e-20)
(-3.47675 0.418207 2.79931e-20)
(-3.53884 0.385467 0)
(-3.59839 0.354213 0)
(-3.65519 0.324173 0)
(-3.70899 0.295133 0)
(-3.75953 0.2669 0)
(-3.80652 0.239343 0)
(-3.84968 0.212317 6.35212e-20)
(-3.88872 0.185721 -9.69785e-20)
(-3.92334 0.159448 0)
(-3.95322 0.13347 0)
(-3.97807 0.107729 0)
(-3.99758 0.0822152 -1.74641e-22)
(-4.01142 0.0568901 6.99357e-20)
(-4.0193 0.031777 1.41806e-19)
(-4.02101 0.00689636 -1.42853e-19)
(-4.01625 -0.017675 -7.20399e-20)
(-4.00497 -0.0418953 7.16494e-20)
(-3.98717 -0.0656376 6.95157e-22)
(-3.96283 -0.0887181 7.22717e-20)
(-3.93213 -0.110785 0)
(-3.89494 -0.13188 7.15316e-20)
(-3.8518 -0.152023 1.02793e-21)
(-3.80269 -0.171003 0)
(-3.748 -0.188479 0)
(-3.68777 -0.204529 -6.76141e-20)
(-3.62242 -0.218981 0)
(-3.55239 -0.232303 0)
(-3.47826 -0.244526 6.34397e-20)
(-3.40056 -0.255292 1.19815e-19)
(-3.31931 -0.264401 -5.635e-20)
(-3.23487 -0.271823 0)
(-3.14796 -0.27808 5.12115e-20)
(-3.0589 -0.2832 0)
(-2.96816 -0.28684 4.80684e-20)
(-2.87601 -0.289279 4.2542e-20)
(-2.78273 -0.290621 -8.11788e-20)
(-2.6886 -0.290996 -3.85019e-20)
(-2.59379 -0.290454 0)
(-2.49858 -0.28926 6.13495e-20)
(-2.40323 -0.287563 0)
(-2.30763 -0.285242 7.07744e-20)
(-2.21227 -0.282477 4.09901e-20)
(-2.11734 -0.279419 3.40743e-20)
(-2.02243 -0.275895 -2.71413e-20)
(-1.92793 -0.27223 2.91445e-20)
(-1.83409 -0.268542 0)
(-1.7405 -0.264649 0)
(-1.64744 -0.260742 1.03711e-21)
(-1.55488 -0.257046 1.32289e-20)
(-1.463 -0.253212 0)
(-1.37173 -0.24933 -1.22629e-20)
(-1.28103 -0.245503 0)
(-1.19088 -0.241719 5.67758e-20)
(-1.10127 -0.238027 1.96272e-21)
(-1.01219 -0.234417 -1.96331e-21)
(-0.923661 -0.23095 -5.985e-20)
(-0.835779 -0.227615 0)
(-0.748628 -0.224423 7.54983e-20)
(-0.66215 -0.221285 1.98627e-21)
(-0.576056 -0.218116 0)
(-0.490153 -0.214905 0)
(-0.404497 -0.211677 0)
(-0.31914 -0.208476 -1.19526e-19)
(-0.234065 -0.205407 0)
(-0.149298 -0.202486 0)
(-0.0644988 -0.199743 0)
(0.0202558 -0.197178 0)
(0.104512 -0.194709 0)
(0.188112 -0.192222 -1.56803e-19)
(0.270936 -0.1896 0)
(0.352891 -0.186901 -1.67527e-19)
(0.433825 -0.184173 -1.71598e-19)
(0.513417 -0.181405 1.75612e-19)
(0.591389 -0.178516 0)
(0.667743 -0.175309 1.83489e-19)
(0.742665 -0.171692 0)
(0.816268 -0.167805 1.91156e-19)
(0.888554 -0.163756 -1.94904e-19)
(0.959507 -0.159595 -5.92361e-19)
(1.02908 -0.155326 0)
(1.09721 -0.150951 -6.13787e-19)
(1.16383 -0.146486 -2.05674e-19)
(1.22883 -0.141936 0)
(1.29213 -0.137225 -4.26234e-19)
(1.35372 -0.132247 -4.31449e-19)
(1.41355 -0.126983 6.55427e-19)
(1.47154 -0.121488 0)
(1.52759 -0.115673 2.22248e-19)
(1.58168 -0.109513 2.22802e-19)
(1.63384 -0.103062 6.66229e-19)
(1.68411 -0.0963404 0)
(1.73252 -0.0895514 0)
(1.77921 -0.0827932 0)
(1.82413 -0.0761045 2.15896e-19)
(1.86728 -0.0697906 0)
(1.90888 -0.0639375 0)
(1.94835 -0.0593995 -2.19041e-19)
(1.98548 -0.0551129 -2.24597e-19)
(2.02109 -0.0507294 0)
(2.056 -0.048332 0)
(2.08856 -0.0484487 -5.07415e-19)
(2.11842 -0.0507549 0)
(2.14642 -0.0511112 5.64414e-19)
(2.17466 -0.0501989 5.79579e-19)
(2.20354 -0.0528131 0)
(2.23048 -0.0563068 0)
(2.25504 -0.0559077 -6.29546e-19)
(2.2825 -0.0524118 -1.19613e-21)
(2.30958 -0.0524344 -1.15445e-21)
(2.33473 -0.0541248 0)
(2.35965 -0.0508757 -1.34321e-18)
(2.38514 -0.0478998 0)
(2.41002 -0.0473441 0)
(2.43262 -0.0458231 0)
(2.4546 -0.0436583 6.55479e-19)
(2.47634 -0.0414732 0)
(2.49799 -0.0394514 -1.3031e-18)
(2.51938 -0.0372533 -6.49885e-19)
(2.54055 -0.035067 0)
(2.56157 -0.0331498 -6.48149e-19)
(2.58241 -0.0310271 0)
(2.60401 -0.0295476 0)
(2.62547 -0.0289931 -1.94825e-18)
(2.64612 -0.0281066 1.29625e-18)
(2.66685 -0.026844 0)
(2.68744 -0.0259226 1.29367e-18)
(2.70869 -0.0256037 -6.47658e-19)
(2.72911 -0.0252516 0)
(2.74941 -0.024854 0)
(2.76952 -0.0241859 0)
(2.78995 -0.0235142 -1.95212e-18)
(2.81157 -0.0235193 0)
(2.83267 -0.023731 -6.51227e-19)
(2.85342 -0.0236757 0)
(2.87419 -0.0232729 0)
(2.89492 -0.0225614 0)
(2.91681 -0.0221998 0)
(2.93804 -0.0220769 0)
(2.95841 -0.0216523 0)
(2.97879 -0.0205918 -1.29414e-18)
(2.99901 -0.0190677 0)
(3.01837 -0.0175826 -6.49522e-19)
(3.03697 -0.0154653 1.95982e-18)
(3.05278 -0.011845 0)
(3.06555 -0.00670374 0)
(3.07523 0.00116792 -1.29979e-18)
(3.07946 0.013633 -1.30145e-18)
(3.0823 0.0364673 1.29711e-18)
(3.06565 0.075922 1.29484e-18)
(-0.0896685 -0.491928 -4.21196e-19)
(-0.119725 -0.323349 -2.82375e-19)
(-0.222665 -0.127255 -1.48131e-19)
(-0.346359 0.068658 -6.27105e-20)
(-0.487327 0.261351 0)
(-0.646704 0.449298 1.07523e-19)
(-0.82316 0.62892 -4.66363e-20)
(-1.01074 0.794836 0)
(-1.20158 0.940974 -4.20368e-20)
(-1.38803 1.06194 0)
(-1.56258 1.15527 6.84603e-20)
(-1.71988 1.21956 0)
(-1.85878 1.25689 3.01395e-20)
(-1.97963 1.27046 5.6238e-20)
(-2.08434 1.26343 -5.28605e-20)
(-2.17539 1.23947 0)
(-2.25577 1.20255 -4.79384e-20)
(-2.32839 1.15638 0)
(-2.39597 1.10437 0)
(-2.46072 1.04911 -4.42225e-20)
(-2.52419 0.992696 0)
(-2.5875 0.936601 -2.16726e-21)
(-2.6513 0.881897 0)
(-2.7159 0.829255 0)
(-2.78135 0.779019 1.62561e-21)
(-2.84753 0.731291 -4.45624e-20)
(-2.91416 0.686012 -4.63415e-20)
(-2.9809 0.642999 -4.57058e-20)
(-3.04736 0.602005 0)
(-3.11313 0.562744 -9.495e-20)
(-3.1778 0.524932 0)
(-3.24093 0.488284 -4.92088e-20)
(-3.30213 0.452532 0)
(-3.36097 0.417434 0)
(-3.41706 0.382784 5.1631e-20)
(-3.47 0.348409 0)
(-3.51938 0.314173 -5.34802e-20)
(-3.56483 0.279964 2.83715e-22)
(-3.60594 0.245705 1.10652e-19)
(-3.64235 0.211345 -1.12994e-19)
(-3.67368 0.176866 0)
(-3.69958 0.142276 0)
(-3.71972 0.107609 -5.99623e-20)
(-3.7338 0.0729276 0)
(-3.74159 0.0383306 -6.05648e-20)
(-3.74291 0.00393343 6.09677e-20)
(-3.73761 -0.0301356 6.1249e-20)
(-3.72565 -0.0637447 0)
(-3.70705 -0.0966923 -6.14212e-20)
(-3.68187 -0.128693 -6.12917e-20)
(-3.65021 -0.159477 1.24168e-19)
(-3.61213 -0.188914 -6.05118e-20)
(-3.56791 -0.216896 -5.98486e-20)
(-3.51774 -0.243236 0)
(-3.46195 -0.267686 0)
(-3.40082 -0.290156 5.68043e-20)
(-3.33465 -0.31044 0)
(-3.26394 -0.328566 0)
(-3.18917 -0.344963 -1.04212e-19)
(-3.11087 -0.359392 -1.00325e-19)
(-3.02926 -0.371622 0)
(-2.94478 -0.381739 0)
(-2.85789 -0.389985 0)
(-2.76902 -0.396434 0)
(-2.67858 -0.401067 -7.75714e-20)
(-2.58686 -0.404099 7.41758e-20)
(-2.49415 -0.405678 6.70971e-20)
(-2.40073 -0.405953 1.24946e-19)
(-2.30684 -0.405073 0)
(-2.21269 -0.403258 1.46395e-21)
(-2.11848 -0.400696 0)
(-2.02436 -0.397388 -3.93341e-20)
(-1.93052 -0.393447 1.3011e-21)
(-1.83699 -0.389083 -2.79213e-20)