# vtk DataFile Version 2.0
track0
ASCII
DATASET POLYDATA
POINTS 12045 float
-0.0205 0.001 1e-05
-0.02052 0.000999985 1e-05
-0.02054 0.000999974 1e-05
-0.02056 0.000999965 1e-05
-0.02058 0.000999959 1e-05
-0.0206 0.000999956 1e-05
-0.0205 0.00367778 1e-05
-0.02052 0.00367778 1e-05
-0.02054 0.00367777 1e-05
-0.02056 0.00367777 1e-05
-0.02058 0.00367777 1e-05
-0.0206 0.00367777 1e-05
-0.0205 0.00635556 1e-05
-0.02052 0.00635555 1e-05
-0.02054 0.00635555 1e-05
-0.02056 0.00635555 1e-05
-0.02058 0.00635555 1e-05
-0.0206 0.00635555 1e-05
-0.0205 0.00903333 1e-05
-0.02052 0.00903333 1e-05
-0.02054 0.00903333 1e-05
-0.02056 0.00903333 1e-05
-0.02058 0.00903333 1e-05
-0.0206 0.00903333 1e-05
-0.0205 0.0117111 1e-05
-0.02052 0.0117111 1e-05
-0.02054 0.0117111 1e-05
-0.02056 0.0117111 1e-05
-0.02058 0.0117111 1e-05
-0.0206 0.0117111 1e-05
-0.0205 0.0143889 1e-05
-0.02052 0.0143889 1e-05
-0.02054 0.0143889 1e-05
-0.02056 0.0143889 1e-05
-0.02058 0.0143889 1e-05
-0.0206 0.0143889 1e-05
-0.0205 0.0170667 1e-05
-0.02052 0.0170667 1e-05
-0.02054 0.0170667 1e-05
-0.02056 0.0170667 1e-05
-0.02058 0.0170667 1e-05
-0.0206 0.0170667 1e-05
-0.0205 0.0197444 1e-05
-0.02052 0.0197444 1e-05
-0.02054 0.0197444 1e-05
-0.02056 0.0197444 1e-05
-0.02058 0.0197444 1e-05
-0.0206 0.0197444 1e-05
-0.0205 0.0224222 1e-05
-0.02052 0.0224222 1e-05
-0.02054 0.0224222 1e-05
-0.02056 0.0224222 1e-05
-0.02058 0.0224222 1e-05
-0.0206 0.0224222 1e-05
-0.0205 0.0251 1e-05
-0.02052 0.0250998 1e-05
-0.02054 0.0250997 1e-05
-0.02056 0.0250995 1e-05
-0.02058 0.0250995 1e-05
-0.0206 0.0250994 1e-05
-0.0205 0.001 1e-05
-0.0202034 0.00100022 1e-05
-0.0199069 0.00100067 1e-05
-0.0196103 0.00100133 1e-05
-0.0193137 0.0010022 1e-05
-0.0190172 0.00100328 1e-05
-0.0187132 0.00100469 1e-05
-0.0184093 0.00100593 1e-05
-0.0181054 0.00100716 1e-05
-0.0178015 0.00100839 1e-05
-0.0174976 0.00100962 1e-05
-0.0172058 0.00101094 1e-05
-0.016914 0.00101206 1e-05
-0.0166222 0.00101319 1e-05
-0.0163305 0.00101431 1e-05
-0.0160387 0.00101544 1e-05
-0.0157586 0.00101661 1e-05
-0.0154784 0.00101772 1e-05
-0.0151983 0.00101887 1e-05
-0.0149182 0.00102006 1e-05
-0.0146381 0.00102129 1e-05
-0.0143996 0.0010224 1e-05
-0.0141611 0.00102351 1e-05
-0.0139227 0.00102464 1e-05
-0.0136842 0.00102581 1e-05
-0.0134823 0.00102682 1e-05
-0.0134446 0.00102701 1e-05
-0.0134068 0.0010272 1e-05
-0.013369 0.0010274 1e-05
-0.0133312 0.00102759 1e-05
-0.0132934 0.00102779 1e-05
-0.0130353 0.00102913 1e-05
-0.0127771 0.00103049 1e-05
-0.0125189 0.00103187 1e-05
-0.0122607 0.00103327 1e-05
-0.0120025 0.00103468 1e-05
-0.0117547 0.00103606 1e-05
-0.0115068 0.00103745 1e-05
-0.0112589 0.00103884 1e-05
-0.0110111 0.00104025 1e-05
-0.0107632 0.00104166 1e-05
-0.0105252 0.00104302 1e-05
-0.0102873 0.00104439 1e-05
-0.0100493 0.00104576 1e-05
-0.00981133 0.00104714 1e-05
-0.00957337 0.00104852 1e-05
-0.00934491 0.00104984 1e-05
-0.00911645 0.00105117 1e-05
-0.00888799 0.00105251 1e-05
-0.00865954 0.00105384 1e-05
-0.00843108 0.00105518 1e-05
-0.00821175 0.00105646 1e-05
-0.00799242 0.00105775 1e-05
-0.00777309 0.00105904 1e-05
-0.00755376 0.00106033 1e-05
-0.00733443 0.00106163 1e-05
-0.00712387 0.00106286 1e-05
-0.0069133 0.00106411 1e-05
-0.00670273 0.00106536 1e-05
-0.00649217 0.00106661 1e-05
-0.0062816 0.00106786 1e-05
-0.00607944 0.00106906 1e-05
-0.00587729 0.00107028 1e-05
-0.00567514 0.00107149 1e-05
-0.00547298 0.00107272 1e-05
-0.00527083 0.00107394 1e-05
-0.00507675 0.00107512 1e-05
-0.00488267 0.00107631 1e-05
-0.0046886 0.00107751 1e-05
-0.00449452 0.00107872 1e-05
-0.00430044 0.00107994 1e-05
-0.00411412 0.00108111 1e-05
-0.0039278 0.0010823 1e-05
-0.00374147 0.0010835 1e-05
-0.00355515 0.00108472 1e-05
-0.00336883 0.00108594 1e-05
-0.00318995 0.00108713 1e-05
-0.00301107 0.00108835 1e-05
-0.00283219 0.00108958 1e-05
-0.00265331 0.00109083 1e-05
-0.00247443 0.00109211 1e-05
-0.0023027 0.00109335 1e-05
-0.00213097 0.00109463 1e-05
-0.00195924 0.00109593 1e-05
-0.00178751 0.00109727 1e-05
-0.00161577 0.00109864 1e-05
-0.0014509 0.00109998 1e-05
-0.00128603 0.00110137 1e-05
-0.00112116 0.00110281 1e-05
-0.000956292 0.00110431 1e-05
-0.000791418 0.00110586 1e-05
-0.000633135 0.0011074 1e-05
-0.000474852 0.00110901 1e-05
-0.00031657 0.00111069 1e-05
-0.000158288 0.00111244 1e-05
0 0.00111427 1e-05
0.000105677 0.00111553 1e-05
0.000211354 0.00111682 1e-05
0.000317031 0.00111815 1e-05
0.000422707 0.00111952 1e-05
0.000528387 0.00112091 1e-05
0.000634886 0.00112233 1e-05
0.000741385 0.00112378 1e-05
0.000847884 0.00112524 1e-05
0.000954382 0.00112672 1e-05
0.00106088 0.00112821 1e-05
0.00116821 0.00112973 1e-05
0.00127554 0.00113127 1e-05
0.00138286 0.00113281 1e-05
0.00149019 0.00113437 1e-05
0.00159752 0.00113594 1e-05
0.00170568 0.00113753 1e-05
0.00181384 0.00113915 1e-05
0.001922 0.00114078 1e-05
0.00203016 0.00114243 1e-05
0.00213833 0.0011441 1e-05
0.00224733 0.00114578 1e-05
0.00235633 0.0011475 1e-05
0.00246533 0.00114923 1e-05
0.00257433 0.00115099 1e-05
0.00268334 0.00115276 1e-05
0.00279319 0.00115455 1e-05
0.00290304 0.00115637 1e-05
0.00301289 0.00115821 1e-05
0.00312273 0.00116008 1e-05
0.00323259 0.00116196 1e-05
0.00334329 0.00116386 1e-05
0.00345399 0.0011658 1e-05
0.0035647 0.00116776 1e-05
0.0036754 0.00116974 1e-05
0.00378611 0.00117174 1e-05
0.00389767 0.00117377 1e-05
0.00400924 0.00117584 1e-05
0.0041208 0.00117793 1e-05
0.00423236 0.00118005 1e-05
0.00434393 0.00118218 1e-05
0.00445636 0.00118435 1e-05
0.00456879 0.00118657 1e-05
0.00468122 0.00118881 1e-05
0.00479365 0.00119108 1e-05
0.00490609 0.00119337 1e-05
0.0050194 0.00119569 1e-05
0.0051327 0.00119806 1e-05
0.00524601 0.00120047 1e-05
0.00535931 0.0012029 1e-05
0.00547262 0.00120535 1e-05
0.00558681 0.00120784 1e-05
0.00570099 0.00121037 1e-05
0.00581518 0.00121295 1e-05
0.00592936 0.00121556 1e-05
0.00604356 0.00121819 1e-05
0.00615863 0.00122083 1e-05
0.0062737 0.00122354 1e-05
0.00638878 0.0012263 1e-05
0.00650385 0.00122908 1e-05
0.00661893 0.00123188 1e-05
0.0067349 0.00123469 1e-05
0.00685087 0.00123757 1e-05
0.00696683 0.0012405 1e-05
0.0070828 0.00124346 1e-05
0.00719878 0.00124642 1e-05
0.00731565 0.00124939 1e-05
0.00743252 0.00125244 1e-05
0.00754939 0.00125554 1e-05
0.00766625 0.00125867 1e-05
0.00778313 0.00126179 1e-05
0.00790091 0.00126492 1e-05
0.00801869 0.00126812 1e-05
0.00813647 0.00127138 1e-05
0.00825424 0.00127467 1e-05
0.00837203 0.00127794 1e-05
0.00849073 0.00128122 1e-05
0.00860942 0.00128457 1e-05
0.00872811 0.00128798 1e-05
0.00884681 0.00129142 1e-05
0.00896551 0.00129483 1e-05
0.00908513 0.00129825 1e-05
0.00920475 0.00130173 1e-05
0.00932436 0.00130528 1e-05
0.00944397 0.00130886 1e-05
0.0095636 0.0013124 1e-05
0.00968415 0.00131595 1e-05
0.0098047 0.00131956 1e-05
0.00992524 0.00132323 1e-05
0.0100458 0.00132692 1e-05
0.0101663 0.00133059 1e-05
0.0102878 0.00133426 1e-05
0.0104093 0.00133799 1e-05
0.0105308 0.00134177 1e-05
0.0106523 0.00134557 1e-05
0.0107738 0.00134935 1e-05
0.0108962 0.00135313 1e-05
0.0110186 0.00135697 1e-05
0.0111411 0.00136085 1e-05
0.0112635 0.00136474 1e-05
0.0113859 0.00136862 1e-05
0.0115093 0.00137251 1e-05
0.0116327 0.00137643 1e-05
0.0117561 0.0013804 1e-05
0.0118794 0.00138438 1e-05
0.0120028 0.00138835 1e-05
0.0121272 0.00139232 1e-05
0.0122515 0.00139633 1e-05
0.0123759 0.00140037 1e-05
0.0125002 0.00140443 1e-05
0.0126245 0.00140847 1e-05
0.0127498 0.00141253 1e-05
0.0128752 0.00141661 1e-05
0.0130005 0.00142071 1e-05
0.0131258 0.00142483 1e-05
0.0132511 0.00142893 1e-05
0.0133774 0.00143307 1e-05
0.0135036 0.00143721 1e-05
0.0136299 0.00144137 1e-05
0.0137562 0.00144553 1e-05
0.0138825 0.00144969 1e-05
0.0140098 0.00145388 1e-05
0.014137 0.00145808 1e-05
0.0142643 0.00146228 1e-05
0.0143915 0.00146648 1e-05
0.0145188 0.00147069 1e-05
0.0146471 0.00147493 1e-05
0.0147753 0.00147917 1e-05
0.0149036 0.0014834 1e-05
0.0150318 0.00148763 1e-05
0.0151601 0.00149187 1e-05
0.0152893 0.00149615 1e-05
0.0154186 0.00150041 1e-05
0.0155478 0.00150467 1e-05
0.0156771 0.00150892 1e-05
0.0158063 0.00151318 1e-05
0.0159366 0.00151748 1e-05
0.0160668 0.00152176 1e-05
0.0161971 0.00152603 1e-05
0.0163274 0.00153029 1e-05
0.0164576 0.00153455 1e-05
0.0165889 0.00153887 1e-05
0.0167201 0.00154315 1e-05
0.0168514 0.00154742 1e-05
0.0169827 0.00155168 1e-05
0.0171139 0.00155595 1e-05
0.0172462 0.00156025 1e-05
0.0173785 0.00156453 1e-05
0.0175108 0.0015688 1e-05
0.0176431 0.00157305 1e-05
0.0177754 0.00157729 1e-05
0.0179087 0.00158159 1e-05
0.018042 0.00158585 1e-05
0.0181753 0.00159009 1e-05
0.0183087 0.00159432 1e-05
0.018442 0.00159854 1e-05
0.0185763 0.00160281 1e-05
0.0187107 0.00160704 1e-05
0.018845 0.00161125 1e-05
0.0189794 0.00161545 1e-05
0.0191137 0.00161963 1e-05
0.0192491 0.00162385 1e-05
0.0193845 0.00162803 1e-05
0.0195199 0.0016322 1e-05
0.0196553 0.00163635 1e-05
0.0197907 0.00164048 1e-05
0.0199272 0.00164464 1e-05
0.0200636 0.00164877 1e-05
0.0202001 0.00165287 1e-05
0.0203365 0.00165695 1e-05
0.020473 0.00166101 1e-05
0.0206105 0.0016651 1e-05
0.020748 0.00166915 1e-05
0.0208855 0.00167318 1e-05
0.021023 0.00167718 1e-05
0.0211606 0.00168115 1e-05
0.0212991 0.00168515 1e-05
0.0214377 0.00168911 1e-05
0.0215763 0.00169304 1e-05
0.0217149 0.00169694 1e-05
0.0218535 0.00170081 1e-05
0.0219931 0.0017047 1e-05
0.0221328 0.00170855 1e-05
0.0222724 0.00171236 1e-05
0.0224121 0.00171614 1e-05
0.0225517 0.00171989 1e-05
0.0226925 0.00172365 1e-05
0.0228332 0.00172737 1e-05
0.022974 0.00173105 1e-05
0.0231147 0.00173469 1e-05
0.0232555 0.00173829 1e-05
0.0233973 0.0017419 1e-05
0.0235391 0.00174546 1e-05
0.023681 0.00174898 1e-05
0.0238228 0.00175246 1e-05
0.0239647 0.0017559 1e-05
0.0241076 0.00175934 1e-05
0.0242505 0.00176272 1e-05
0.0243935 0.00176606 1e-05
0.0245364 0.00176935 1e-05
0.0246794 0.0017726 1e-05
0.0248234 0.00177584 1e-05
0.0249675 0.00177902 1e-05
0.0251115 0.00178216 1e-05
0.0252556 0.00178524 1e-05
0.0253996 0.00178827 1e-05
0.0255448 0.00179128 1e-05
0.02569 0.00179424 1e-05
0.0258352 0.00179714 1e-05
0.0259803 0.00179998 1e-05
[...]
POINT_DATA 12045
 FIELD attributes 2
p 1 12045 float
-4.29742 -4.29411 -4.29079 -4.28748 -4.28417 -4.28086
-4.46216 -4.46214 -4.46212 -4.46211 -4.46209 -4.46207
-4.66175 -4.66164 -4.66153 -4.66142 -4.66131 -4.66122
-4.78978 -4.78974 -4.7897 -4.78966 -4.78962 -4.78958
-4.87385 -4.87374 -4.87363 -4.87353 -4.87342 -4.87331
-4.91877 -4.91859 -4.91841 -4.91823 -4.91805 -4.91787
-4.92686 -4.92677 -4.92668 -4.92659 -4.9265 -4.9264
-4.88472 -4.88467 -4.88461 -4.88456 -4.8845 -4.88445
-4.78113 -4.78113 -4.78113 -4.78112 -4.78112 -4.78112
-2.57536 -2.59469 -2.61388 -2.63295 -2.65188 -2.67068
-4.29742 -4.2965 -4.29267 -4.28875 -4.28475 -4.27602 -4.28891 -4.3026 -4.3163 -4.32999 -4.35288 -4.37226 -4.39933 -4.42641 -4.45349 -4.48309 -4.49562 -4.51414 -4.53267 -4.55119 -4.57125 -4.58501 -4.60059 -4.61617 -4.63176 -4.64495 -4.64742 -4.64988 -4.65235 -4.65481 -4.65725 -4.67314 -4.68901 -4.70487 -4.72074 -4.73621 -4.74822 -4.76001 -4.77179 -4.78358 -4.79476 -4.80394 -4.8128 -4.82166 -4.83052 -4.83874 -4.84545 -4.85161 -4.85777 -4.86394 -4.86918 -4.8723 -4.87454 -4.87677 -4.879 -4.88006 -4.87904 -4.87702 -4.875 -4.87298 -4.87001 -4.86576 -4.86064 -4.85552 -4.8504 -4.84486 -4.83859 -4.83135 -4.82411 -4.81688 -4.8094 -4.80119 -4.79158 -4.78196 -4.77235 -4.76237 -4.75144 -4.73799 -4.72454 -4.71109 -4.69704 -4.68239 -4.66487 -4.64734 -4.62982 -4.61308 -4.59742 -4.5794 -4.56138 -4.54338 -4.5277 -4.51301 -4.50356 -4.49426 -4.48579 -4.48577 -4.48112 -4.49258 -4.50609 -4.52134 -4.54991 -4.56836 -4.58987 -4.6118 -4.63385 -4.65677 -4.67622 -4.68915 -4.70111 -4.71229 -4.71848 -4.73554 -4.74698 -4.75749 -4.76636 -4.76623 -4.78007 -4.79007 -4.79933 -4.80666 -4.805 -4.80982 -4.81193 -4.8134 -4.81411 -4.81185 -4.80796 -4.80383 -4.79963 -4.79674 -4.79801 -4.79415 -4.79225 -4.79103 -4.79256 -4.80103 -4.80482 -4.81139 -4.81918 -4.82972 -4.84581 -4.85924 -4.87488 -4.89176 -4.91018 -4.93103 -4.95118 -4.97234 -4.99426 -5.01611 -5.0379 -5.0601 -5.08249 -5.10506 -5.12657 -5.14712 -5.16817 -5.18943 -5.21098 -5.23167 -5.25181 -5.27145 -5.2918 -5.31357 -5.3358 -5.35822 -5.3782 -5.39918 -5.42345 -5.44991 -5.47693 -5.49905 -5.52191 -5.55002 -5.58193 -5.61425 -5.63925 -5.66432 -5.69648 -5.73368 -5.77089 -5.79895 -5.82701 -5.86229 -5.90316 -5.94403 -5.9747 -6.00537 -6.04278 -6.08597 -6.12916 -6.16192 -6.19468 -6.23345 -6.27782 -6.32219 -6.35652 -6.39085 -6.43043 -6.47533 -6.52022 -6.5558 -6.59137 -6.63156 -6.67688 -6.72219 -6.75921 -6.79624 -6.83711 -6.88282 -6.92853 -6.96711 -7.00569 -7.04742 -7.09377 -7.14013 -7.18074 -7.22144 -7.26438 -7.31092 -7.35773 -7.40028 -7.44313 -7.48744 -7.53428 -7.5818 -7.62629 -7.67114 -7.7168 -7.76409 -7.81228 -7.85848 -7.90495 -7.95175 -7.9995 -8.04815 -8.09564 -8.14329 -8.19105 -8.23935 -8.28856 -8.33719 -8.3858 -8.43439 -8.48325 -8.53296 -8.58252 -8.63191 -8.68126 -8.7307 -8.78096 -8.83141 -8.88149 -8.93155 -8.98161 -9.03236 -9.08353 -9.13431 -9.18508 -9.23586 -9.2872 -9.33915 -9.39068 -9.44223 -9.49377 -9.54575 -9.59846 -9.65077 -9.70309 -9.75542 -9.8081 -9.86163 -9.91476 -9.96791 -10.0211 -10.0745 -10.1289 -10.1828 -10.2368 -10.2908 -10.345 -10.4002 -10.4549 -10.5096 -10.5644 -10.6192 -10.6749 -10.7303 -10.7857 -10.8411 -10.8966 -10.9529 -11.0089 -11.0649 -11.1209 -11.177 -11.2338 -11.2903 -11.3468 -11.4034 -11.4599 -11.5171 -11.574 -11.631 -11.6879 -11.7449 -11.8022 -11.8594 -11.9165 -11.9737 -12.0309 -12.0883 -12.1455 -12.2027 -12.26 -12.3173 -12.3746 -12.4318 -12.4889 -12.5462 -12.6033 -12.6604 -12.7173 -12.7742 -12.8312 -12.8881 -12.9448 -13.0012 -13.0576 -13.1141 -13.1704 -13.2266 -13.2822 -13.3379 -13.3937 -13.4491 -13.5047 -13.5593 -13.614 -13.6688 -13.723 -13.7778 -13.8311 -13.8845 -13.9379 -13.9903 -14.044 -14.0955 -14.147 -14.1986 -14.2486 -14.301 -14.35 -14.3991 -14.4483 -14.495 -14.5459 -14.5917 -14.6377 -14.6837 -14.726 -14.7746 -14.817 -14.8592 -14.9004 -14.9382 -14.9828 -15.0229 -15.0605 -15.0958 -15.1284 -15.1684 -15.2061 -15.2386 -15.2666 -15.2934 -15.3281 -15.3629 -15.389 -15.4087 -15.4285 -15.4566 -15.4848 -15.5046 -15.516 -15.5275 -15.5476 -15.5679 -15.5801 -15.5828 -15.5853 -15.5964 -15.6038 -15.6059 -15.6046 -15.5972 -15.5985 -15.5903 -15.5816 -15.573 -15.5578 -15.5455 -15.5277 -15.5099 -15.4924 -15.4782 -15.4751 -15.4719 -15.4688 -15.4656 -15.461 -15.4315 -15.4005 -15.3698 -15.3394 -15.2987 -15.2654 -15.2231 -15.1797 -15.1288 -15.0716 -15.0243 -14.9773 -14.9183 -14.8475 -14.7767 -14.715 -14.6507 -14.5751 -14.4958 -14.4113 -14.3359 -14.2475 -14.1594 -14.0716 -13.9988 -13.994 -13.9892 -13.9844 -13.9795 -13.9738 -13.8743 -13.7744 -13.6749 -13.5744 -13.4603 -13.3544 -13.2485 -13.1342 -13.0087 -12.8831 -12.7649 -12.6427 -12.5116 -12.3808 -12.2447 -12.1932 -12.1379 -12.0815 -12.0251 -11.9719 -11.8882 -11.8045 -11.7211 -11.6357 -11.5446 -11.4002 -11.2549 -11.1069 -10.9491 -10.7908 -10.6374 -10.4802 -10.3182 -10.1566 -9.99351 -9.97563 -9.95732 -9.93869 -9.92006 -9.90167 -9.75478 -9.60815 -9.46178 -9.31318 -9.16122 -8.99247 -8.82403 -8.65212 -8.4797 -8.30657 -8.23694 -8.16663 -8.09544 -8.0243 -7.95589 -7.85129 -7.74679 -7.64239 -7.53726 -7.4311 -7.25329 -7.07574 -6.89851 -6.72121 -6.54311 -6.43752 -6.33192 -6.22629 -6.12074 -6.01997 -5.94621 -5.87247 -5.79878 -5.72514 -5.65137 -5.47135 -5.29215 -5.11514 -4.93941 -4.76288 -4.63437 -4.50667 -4.3802 -4.25382 -4.1331 -4.0836 -4.03412 -3.98465 -3.93562 -3.88683 -3.71145 -3.53857 -3.3665 -3.19806 -3.02891 -2.88611 -2.7447 -2.60547 -2.46634 -2.33297 -2.30512 -2.27727 -2.24942 -2.22196 -2.19478 -2.02951 -1.86655 -1.7037 -1.54472 -1.38588 -1.23131 -1.07862 -0.928723 -0.778921 -0.634698 -0.628739 -0.622781 -0.616822 -0.610953 -0.605154 -0.452668 -0.300719 -0.148838 0.000273316 0.148194 0.296092 0.4431 0.586846 0.73053 0.873061 0.890772 0.908272 0.925446 0.94262 0.959736 1.08304 1.20631 1.32954 1.45081 1.57066 1.70761 1.84452 1.9777 2.10919 2.23948 2.28475 2.32943 2.37331 2.4172 2.46081 2.54553 2.63024 2.71494 2.79834 2.88052 3.00636 3.13219 3.25483 3.37434 3.49399 3.57207 3.64898 3.72463 3.80027 3.8754 3.91682 3.95824 3.99965 4.0405 4.08066 4.19583 4.30928 4.42224 4.53188 4.64146 4.75091 4.8589 4.96501 5.07112 5.1768 5.18332 5.18973 5.19605 5.20237 5.20869 5.30541 5.40213 5.49885 5.59437 5.68813 5.78804 5.88795 5.98567 6.08082 6.17587 6.23296 6.28905 6.34443 6.39981 6.45527 6.49278 6.53029 6.5678 6.60491 6.64124 6.73231 6.82203 6.91147 6.99852 7.08519 7.17189 7.25795 7.34203 7.42612 7.50878 7.533 7.55676 7.58027 7.60379 7.62735 7.68492 7.74249 7.80006 7.85702 7.91242 7.99175 8.07089 8.14801 8.22287 8.29763 8.37327 8.4476 8.52059 8.59359 8.6658 8.67794 8.68978 8.70149 8.71321 8.72495 8.78403 8.8431 8.90219 8.96049 9.01713 9.08648 9.15584 9.22308 9.28827 9.35334 9.4149 9.47492 9.53417 9.59343 9.65376 9.65812 9.66247 9.66683 9.67114 9.67535 9.73767 9.79977 9.86189 9.92311 9.98288 10.0435 10.104 10.1631 10.2206 10.2779 10.3202 10.3615 10.4024 10.4433 10.4851 10.5003 10.5156 10.5308 10.5459 10.5607 10.616 10.6707 10.7254 10.7789 10.8316 10.8849 10.9382 10.9899 11.0411 11.0917 11.1227 11.153 11.1831 11.2131 11.2438 11.2635 11.2831 11.3027 11.3222 11.3412 11.3902 11.4385 11.4867 11.5338 11.5804 11.6274 11.6744 11.72 11.7652 11.8099 11.8377 11.8647 11.8916 11.9185 11.9463 11.9631 11.98 11.9969 12.0136 12.03 12.0731 12.1156 12.1581 12.1998 12.2409 12.2823 12.3237 12.3641 12.4037 12.4431 12.4761 12.5083 12.5404 12.5725 12.6063 12.6125 12.6186 12.6248 12.6309 12.6368 12.6744 12.7118 12.7492 12.7862 12.8223 12.8587 12.895 12.9305 12.9653 12.9998 13.0346 13.0688 13.1026 13.1363 13.1695 13.1828 13.1957 13.2085 13.2214 13.2347 13.2542 13.2737 13.2932 13.3127 13.3316 13.3632 13.3944 13.4256 13.4562 13.4864 13.5166 13.5468 13.5763 13.6052 13.634 13.6628 13.6911 13.7191 13.747 13.7746 13.7884 13.8018 13.8152 13.8285 13.8426 13.8559 13.8692 13.8824 13.8957 13.9086 13.9346 13.9603 13.986 14.0114 14.0363 14.0611 14.0859 14.1102 14.134 14.1578 14.1814 14.205 14.2279 14.2506 14.2732 14.2956 14.3176 14.3394 14.3612 14.3828 14.394 14.4051 14.4161 14.4271 14.4388 14.4485 14.4581 14.4678 14.4775 14.4869 14.5069 14.5268 14.5467 14.5665 14.5859 14.605 14.624 14.6428 14.6614 14.6797 14.6978 14.7159 14.7337 14.7512 14.7686 14.7858 14.8029 14.8196 14.8362 14.8527 14.869 14.885 14.9008 14.9167 14.9323 14.9477 14.9627 14.9777 14.9927 15.0076 15.0117 15.0157 15.0198 15.0238 15.028 15.0382 15.0484 15.0586 15.0689 15.079 15.0925 15.1061 15.1197 15.1332 15.1465 15.1593 15.1722 15.185 15.1977 15.2102 15.2224 15.2345 15.2467 15.2586 15.2705 15.282 15.2935 15.3049 15.3162 15.3274 15.3383 15.3492 15.3599 15.3706 15.3812 15.3915 15.4017 15.4118 15.4219 15.432 15.4417 15.4512 15.4608 15.4703 15.4799 15.4891 15.4981 15.5072 15.5162 15.5254 15.534 15.5427 15.5513 15.56 15.5686 15.575 15.5813 15.5876 15.5939 15.6009 15.6027 15.6045 15.6063 15.6081 15.6099 15.6178 15.6258 15.6337 15.6416 15.6496 15.6571 15.6648 15.6724 15.68 15.6878 15.6949 15.7023 15.7097 15.7171 15.7248 15.7317 15.7389 15.7461 15.7534 15.7609 15.7677 15.7746 15.7817 15.7889 15.7962 15.8028 15.8094 15.8163 15.8234 15.8305 15.8369 15.8432 15.8499 15.8569 15.8638 15.87 15.8761 15.8826 15.8895 15.8963 15.9024 15.9085 15.915 15.9219 15.9288 15.9349 15.9411 15.9475 15.9543 15.961 15.967 15.9731 15.9794 15.986 15.9926 15.9985 16.0044 16.0106 16.017 16.0235 16.0293 16.0352 16.0413 16.0474 16.0536 16.0593 16.065 16.0707 16.0765 16.0822 16.0876 16.0929 16.0981 16.1032 16.1083 16.1131 16.1177 16.1223 16.1268 16.1312 16.1355 16.1394 16.1433 16.147 16.1506 16.1541 16.1572 16.1602 16.1631 16.1658 16.1686 16.1709 16.1732 16.1754 16.1774 16.1796 16.181 16.1825 16.184 16.1851 16.1862 16.1866 16.187 16.1875 16.1875 16.1875 16.187 16.1866 16.1861 16.1853 16.1847 16.1836 16.1826 16.1816 16.1804 16.1793 16.178 16.1766 16.1753 16.1739 16.1725 16.171 16.1695 16.168 16.1665 16.165 16.1635 16.1619 16.1604 16.1589 16.1575 16.1561 16.1548 16.1534 16.152 16.1509 16.1499 16.1488 16.1477 16.1467 16.146 16.1455 16.1449 16.1443 16.1438 16.1438 16.144 16.1441 16.1442 16.1443 16.1452 16.1461 16.1471 16.148 16.1488 16.1507 16.1527 16.1548 16.1569 16.1587 16.1596 16.1602 16.1608 16.1614 16.1604 16.1584 16.1578 16.1571 16.1563 16.1553 16.1477 16.1295 16.1112 16.0929 16.073 16.0648 16.056 16.0471 16.0383 16.0285 15.9967 15.9648 15.933 15.901 15.8664 15.8214 15.7789 15.7363 15.6938 15.655 15.6174 15.5794 15.5414 15.5035 15.4656 15.4261 15.3837 15.3405 15.2957 15.2476 15.1976 15.1474 15.097 15.0453 14.9928 14.9386 14.8845 14.8313 14.7786 14.7259 14.6717 14.6174 14.5624 14.5071 14.4517 14.3946 14.3375 14.2775 14.2145 14.1516 14.0865 14.0214 13.9534 13.8825 13.8115 13.738 13.6644 13.588 13.5092 13.4302 13.3482 13.2657 13.1816 13.0964 13.0105 12.9214 12.8308 12.7391 12.6465 12.5523 12.4547 12.3542 12.253 12.1516 12.047 11.9384 11.8261 11.7137 11.6014 11.486 11.3642 11.2389 11.1136 10.9883 10.8606 10.7228 10.5824 10.4419 10.3015 10.1598 10.0247 9.88827 9.75186 9.61545 9.45453 9.43852 9.4225 9.40648 9.39046 9.37431 9.19839 9.02227 8.84613 8.66999 8.49195 8.29653 8.09918 7.90182 7.70445 7.50369 7.28537 7.06006 6.83473 6.60937 6.37453 6.1264 5.87781 5.62921 5.38062 5.13175 4.87299 4.56693 4.26005 3.94575 3.58802 3.2165 2.90378 2.61086 2.34475 2.13213 1.9109 1.59407 1.18448 0.631445 0