# vtk DataFile Version 2.0
track0
ASCII
DATASET POLYDATA
POINTS 12045 float
-0.0205 0.001 1e-05
-0.02052 0.000999985 1e-05
-0.02054 0.000999974 1e-05
-0.02056 0.000999965 1e-05
-0.02058 0.000999959 1e-05
-0.0206 0.000999956 1e-05
-0.0205 0.00367778 1e-05
-0.02052 0.00367778 1e-05
-0.02054 0.00367777 1e-05
-0.02056 0.00367777 1e-05
-0.02058 0.00367777 1e-05
-0.0206 0.00367777 1e-05
-0.0205 0.00635556 1e-05
-0.02052 0.00635555 1e-05
-0.02054 0.00635555 1e-05
-0.02056 0.00635555 1e-05
-0.02058 0.00635555 1e-05
-0.0206 0.00635555 1e-05
-0.0205 0.00903333 1e-05
-0.02052 0.00903333 1e-05
-0.02054 0.00903333 1e-05
-0.02056 0.00903333 1e-05
-0.02058 0.00903333 1e-05
-0.0206 0.00903333 1e-05
-0.0205 0.0117111 1e-05
-0.02052 0.0117111 1e-05
-0.02054 0.0117111 1e-05
-0.02056 0.0117111 1e-05
-0.02058 0.0117111 1e-05
-0.0206 0.0117111 1e-05
-0.0205 0.0143889 1e-05
-0.02052 0.0143889 1e-05
-0.02054 0.0143889 1e-05
-0.02056 0.0143889 1e-05
-0.02058 0.0143889 1e-05
-0.0206 0.0143889 1e-05
-0.0205 0.0170667 1e-05
-0.02052 0.0170667 1e-05
-0.02054 0.0170667 1e-05
-0.02056 0.0170667 1e-05
-0.02058 0.0170667 1e-05
-0.0206 0.0170667 1e-05
-0.0205 0.0197444 1e-05
-0.02052 0.0197444 1e-05
-0.02054 0.0197444 1e-05
-0.02056 0.0197444 1e-05
-0.02058 0.0197444 1e-05
-0.0206 0.0197444 1e-05
-0.0205 0.0224222 1e-05
-0.02052 0.0224222 1e-05
-0.02054 0.0224222 1e-05
-0.02056 0.0224222 1e-05
-0.02058 0.0224222 1e-05
-0.0206 0.0224222 1e-05
-0.0205 0.0251 1e-05
-0.02052 0.0250998 1e-05
-0.02054 0.0250997 1e-05
-0.02056 0.0250995 1e-05
-0.02058 0.0250995 1e-05
-0.0206 0.0250994 1e-05
-0.0205 0.001 1e-05
-0.0202034 0.00100022 1e-05
-0.0199069 0.00100067 1e-05
-0.0196103 0.00100133 1e-05
-0.0193137 0.0010022 1e-05
-0.0190172 0.00100328 1e-05
-0.0187132 0.00100469 1e-05
-0.0184093 0.00100593 1e-05
-0.0181054 0.00100716 1e-05
-0.0178015 0.00100839 1e-05
-0.0174976 0.00100962 1e-05
-0.0172058 0.00101094 1e-05
-0.016914 0.00101206 1e-05
-0.0166222 0.00101319 1e-05
-0.0163305 0.00101431 1e-05
-0.0160387 0.00101544 1e-05
-0.0157586 0.00101661 1e-05
-0.0154784 0.00101772 1e-05
-0.0151983 0.00101887 1e-05
-0.0149182 0.00102006 1e-05
-0.0146381 0.00102129 1e-05
-0.0143996 0.0010224 1e-05
-0.0141611 0.00102351 1e-05
-0.0139227 0.00102464 1e-05
-0.0136842 0.00102581 1e-05
-0.0134823 0.00102682 1e-05
-0.0134446 0.00102701 1e-05
-0.0134068 0.0010272 1e-05
-0.013369 0.0010274 1e-05
-0.0133312 0.00102759 1e-05
-0.0132934 0.00102779 1e-05
-0.0130353 0.00102913 1e-05
-0.0127771 0.00103049 1e-05
-0.0125189 0.00103187 1e-05
-0.0122607 0.00103327 1e-05
-0.0120025 0.00103468 1e-05
-0.0117547 0.00103606 1e-05
-0.0115068 0.00103745 1e-05
-0.0112589 0.00103884 1e-05
-0.0110111 0.00104025 1e-05
-0.0107632 0.00104166 1e-05
-0.0105252 0.00104302 1e-05
-0.0102873 0.00104439 1e-05
-0.0100493 0.00104576 1e-05
-0.00981133 0.00104714 1e-05
-0.00957337 0.00104852 1e-05
-0.00934491 0.00104984 1e-05
-0.00911645 0.00105117 1e-05
-0.00888799 0.00105251 1e-05
-0.00865954 0.00105384 1e-05
-0.00843108 0.00105518 1e-05
-0.00821175 0.00105646 1e-05
-0.00799242 0.00105775 1e-05
-0.00777309 0.00105904 1e-05
-0.00755376 0.00106033 1e-05
-0.00733443 0.00106163 1e-05
-0.00712387 0.00106286 1e-05
-0.0069133 0.00106411 1e-05
-0.00670273 0.00106536 1e-05
-0.00649217 0.00106661 1e-05
-0.0062816 0.00106786 1e-05
-0.00607944 0.00106906 1e-05
-0.00587729 0.00107028 1e-05
-0.00567514 0.00107149 1e-05
-0.00547298 0.00107272 1e-05
-0.00527083 0.00107394 1e-05
-0.00507675 0.00107512 1e-05
-0.00488267 0.00107631 1e-05
-0.0046886 0.00107751 1e-05
-0.00449452 0.00107872 1e-05
-0.00430044 0.00107994 1e-05
-0.00411412 0.00108111 1e-05
-0.0039278 0.0010823 1e-05
-0.00374147 0.0010835 1e-05
-0.00355515 0.00108472 1e-05
-0.00336883 0.00108594 1e-05
-0.00318995 0.00108713 1e-05
-0.00301107 0.00108835 1e-05
-0.00283219 0.00108958 1e-05
-0.00265331 0.00109083 1e-05
-0.00247443 0.00109211 1e-05
-0.0023027 0.00109335 1e-05
-0.00213097 0.00109463 1e-05
-0.00195924 0.00109593 1e-05
-0.00178751 0.00109727 1e-05
-0.00161577 0.00109864 1e-05
-0.0014509 0.00109998 1e-05
-0.00128603 0.00110137 1e-05
-0.00112116 0.00110281 1e-05
-0.000956292 0.00110431 1e-05
-0.000791418 0.00110586 1e-05
-0.000633135 0.0011074 1e-05
-0.000474852 0.00110901 1e-05
-0.00031657 0.00111069 1e-05
-0.000158288 0.00111244 1e-05
0 0.00111427 1e-05
0.000105677 0.00111553 1e-05
0.000211354 0.00111682 1e-05
0.000317031 0.00111815 1e-05
0.000422707 0.00111952 1e-05
0.000528387 0.00112091 1e-05
0.000634886 0.00112233 1e-05
0.000741385 0.00112378 1e-05
0.000847884 0.00112524 1e-05
0.000954382 0.00112672 1e-05
0.00106088 0.00112821 1e-05
0.00116821 0.00112973 1e-05
0.00127554 0.00113127 1e-05
0.00138286 0.00113281 1e-05
0.00149019 0.00113437 1e-05
0.00159752 0.00113594 1e-05
0.00170568 0.00113753 1e-05
0.00181384 0.00113915 1e-05
0.001922 0.00114078 1e-05
0.00203016 0.00114243 1e-05
0.00213833 0.0011441 1e-05
0.00224733 0.00114578 1e-05
0.00235633 0.0011475 1e-05
0.00246533 0.00114923 1e-05
0.00257433 0.00115099 1e-05
0.00268334 0.00115276 1e-05
0.00279319 0.00115455 1e-05
0.00290304 0.00115637 1e-05
0.00301289 0.00115821 1e-05
0.00312273 0.00116008 1e-05
0.00323259 0.00116196 1e-05
0.00334329 0.00116386 1e-05
0.00345399 0.0011658 1e-05
0.0035647 0.00116776 1e-05
0.0036754 0.00116974 1e-05
0.00378611 0.00117174 1e-05
0.00389767 0.00117377 1e-05
0.00400924 0.00117584 1e-05
0.0041208 0.00117793 1e-05
0.00423236 0.00118005 1e-05
0.00434393 0.00118218 1e-05
0.00445636 0.00118435 1e-05
0.00456879 0.00118657 1e-05
0.00468122 0.00118881 1e-05
0.00479365 0.00119108 1e-05
0.00490609 0.00119337 1e-05
0.0050194 0.00119569 1e-05
0.0051327 0.00119806 1e-05
0.00524601 0.00120047 1e-05
0.00535931 0.0012029 1e-05
0.00547262 0.00120535 1e-05
0.00558681 0.00120784 1e-05
0.00570099 0.00121037 1e-05
0.00581518 0.00121295 1e-05
0.00592936 0.00121556 1e-05
0.00604356 0.00121819 1e-05
0.00615863 0.00122083 1e-05
0.0062737 0.00122354 1e-05
0.00638878 0.0012263 1e-05
0.00650385 0.00122908 1e-05
0.00661893 0.00123188 1e-05
0.0067349 0.00123469 1e-05
0.00685087 0.00123757 1e-05
0.00696683 0.0012405 1e-05
0.0070828 0.00124346 1e-05
0.00719878 0.00124642 1e-05
0.00731565 0.00124939 1e-05
0.00743252 0.00125244 1e-05
0.00754939 0.00125554 1e-05
0.00766625 0.00125867 1e-05
0.00778313 0.00126179 1e-05
0.00790091 0.00126492 1e-05
0.00801869 0.00126812 1e-05
0.00813647 0.00127138 1e-05
0.00825424 0.00127467 1e-05
0.00837203 0.00127794 1e-05
0.00849073 0.00128122 1e-05
0.00860942 0.00128457 1e-05
0.00872811 0.00128798 1e-05
0.00884681 0.00129142 1e-05
0.00896551 0.00129483 1e-05
0.00908513 0.00129825 1e-05
0.00920475 0.00130173 1e-05
0.00932436 0.00130528 1e-05
0.00944397 0.00130886 1e-05
0.0095636 0.0013124 1e-05
0.00968415 0.00131595 1e-05
0.0098047 0.00131956 1e-05
0.00992524 0.00132323 1e-05
0.0100458 0.00132692 1e-05
0.0101663 0.00133059 1e-05
0.0102878 0.00133426 1e-05
0.0104093 0.00133799 1e-05
0.0105308 0.00134177 1e-05
0.0106523 0.00134557 1e-05
0.0107738 0.00134935 1e-05
0.0108962 0.00135313 1e-05
0.0110186 0.00135697 1e-05
0.0111411 0.00136085 1e-05
0.0112635 0.00136474 1e-05
0.0113859 0.00136862 1e-05
0.0115093 0.00137251 1e-05
0.0116327 0.00137643 1e-05
0.0117561 0.0013804 1e-05
0.0118794 0.00138438 1e-05
0.0120028 0.00138835 1e-05
0.0121272 0.00139232 1e-05
0.0122515 0.00139633 1e-05
0.0123759 0.00140037 1e-05
0.0125002 0.00140443 1e-05
0.0126245 0.00140847 1e-05
0.0127498 0.00141253 1e-05
0.0128752 0.00141661 1e-05
0.0130005 0.00142071 1e-05
0.0131258 0.00142483 1e-05
0.0132511 0.00142893 1e-05
0.0133774 0.00143307 1e-05
0.0135036 0.00143721 1e-05
0.0136299 0.00144137 1e-05
0.0137562 0.00144553 1e-05
0.0138825 0.00144969 1e-05
0.0140098 0.00145388 1e-05
0.014137 0.00145808 1e-05
0.0142643 0.00146228 1e-05
0.0143915 0.00146648 1e-05
0.0145188 0.00147069 1e-05
0.0146471 0.00147493 1e-05
0.0147753 0.00147917 1e-05
0.0149036 0.0014834 1e-05
0.0150318 0.00148763 1e-05
0.0151601 0.00149187 1e-05
0.0152893 0.00149615 1e-05
0.0154186 0.00150041 1e-05
0.0155478 0.00150467 1e-05
0.0156771 0.00150892 1e-05
0.0158063 0.00151318 1e-05
0.0159366 0.00151748 1e-05
0.0160668 0.00152176 1e-05
0.0161971 0.00152603 1e-05
0.0163274 0.00153029 1e-05
0.0164576 0.00153455 1e-05
0.0165889 0.00153887 1e-05
0.0167201 0.00154315 1e-05
0.0168514 0.00154742 1e-05
0.0169827 0.00155168 1e-05
0.0171139 0.00155595 1e-05
0.0172462 0.00156025 1e-05
0.0173785 0.00156453 1e-05
0.0175108 0.0015688 1e-05
0.0176431 0.00157305 1e-05
0.0177754 0.00157729 1e-05
0.0179087 0.00158159 1e-05
0.018042 0.00158585 1e-05
0.0181753 0.00159009 1e-05
0.0183087 0.00159432 1e-05
0.018442 0.00159854 1e-05
0.0185763 0.00160281 1e-05
0.0187107 0.00160704 1e-05
0.018845 0.00161125 1e-05
0.0189794 0.00161545 1e-05
0.0191137 0.00161963 1e-05
0.0192491 0.00162385 1e-05
0.0193845 0.00162803 1e-05
0.0195199 0.0016322 1e-05
0.0196553 0.00163635 1e-05
0.0197907 0.00164048 1e-05
0.0199272 0.00164464 1e-05
0.0200636 0.00164877 1e-05
0.0202001 0.00165287 1e-05
0.0203365 0.00165695 1e-05
0.020473 0.00166101 1e-05
0.0206105 0.0016651 1e-05
0.020748 0.00166915 1e-05
0.0208855 0.00167318 1e-05
0.021023 0.00167718 1e-05
0.0211606 0.00168115 1e-05
0.0212991 0.00168515 1e-05
0.0214377 0.00168911 1e-05
0.0215763 0.00169304 1e-05
0.0217149 0.00169694 1e-05
0.0218535 0.00170081 1e-05
0.0219931 0.0017047 1e-05
0.0221328 0.00170855 1e-05
0.0222724 0.00171236 1e-05
0.0224121 0.00171614 1e-05
0.0225517 0.00171989 1e-05
0.0226925 0.00172365 1e-05
0.0228332 0.00172737 1e-05
0.022974 0.00173105 1e-05
0.0231147 0.00173469 1e-05
0.0232555 0.00173829 1e-05
0.0233973 0.0017419 1e-05
0.0235391 0.00174546 1e-05
0.023681 0.00174898 1e-05
0.0238228 0.00175246 1e-05
0.0239647 0.0017559 1e-05
0.0241076 0.00175934 1e-05
0.0242505 0.00176272 1e-05
0.0243935 0.00176606 1e-05
0.0245364 0.00176935 1e-05
0.0246794 0.0017726 1e-05
0.0248234 0.00177584 1e-05
0.0249675 0.00177902 1e-05
0.0251115 0.00178216 1e-05
0.0252556 0.00178524 1e-05
0.0253996 0.00178827 1e-05
0.0255448 0.00179128 1e-05
0.02569 0.00179424 1e-05
0.0258352 0.00179714 1e-05
0.0259803 0.00179998 1e-05
[...]
POINT_DATA 12045
 FIELD attributes 1
U 3 12045 float
10.0004 	0.00733768 	0 10.0004 	0.00587014 	0 10.0003 	0.00440261 	0 10.0002 	0.00293507 	0 10.0001 	0.00146754 	0 10 	0 	0
10 	0.000950746 	0 10 	0.000760597 	0 10 	0.000570448 	0 10 	0.000380298 	0 10 	0.000190149 	0 10 	0 	0
10.0001 	0.000577173 	0 10.0001 	0.000461619 	0 10 	0.000346065 	0 10 	0.000230512 	0 10 	0.000114958 	0 10 	0 	0
10 	0.000409252 	0 10 	0.000327402 	0 10 	0.000245551 	0 10 	0.000163701 	0 10 	8.18505e-05 	0 10 	0 	0
10 	0.000233059 	0 10 	0.000186448 	0 10 	0.000139836 	0 10 	9.32238e-05 	0 10 	4.66119e-05 	0 10 	0 	0
10 	0.000119051 	0 10 	9.52407e-05 	0 10 	7.14305e-05 	0 10 	4.76203e-05 	0 10 	2.38102e-05 	0 10 	0 	0
10 	-0.00010241 	0 10 	-8.19279e-05 	0 10 	-6.1446e-05 	0 10 	-4.0964e-05 	0 10 	-2.0482e-05 	0 10 	0 	0
10 	-0.000297578 	0 10 	-0.000238063 	0 10 	-0.000178547 	0 10 	-0.000119031 	0 10 	-5.95157e-05 	0 10 	0 	0
9.99999 	-0.000376887 	0 10 	-0.00030151 	0 10 	-0.000226132 	0 10 	-0.000150755 	0 10 	-7.53775e-05 	0 10 	0 	0
9.17389 	0.0871092 	0 9.13082 	0.0696873 	0 9.08742 	0.0522652 	0 9.04369 	0.0348429 	0 8.99963 	0.0174204 	0 8.95524 	0 	0
10.0004 	0.00733768 	0 10.0024 	0.0152501 	0 10.0044 	0.0223309 	0 10.0064 	0.0293671 	0 10.0084 	0.0363591 	0 10.0133 	0.0466274 	0 10.016 	0.040597 	0 10.0203 	0.0406301 	0 10.0246 	0.0406631 	0 10.0289 	0.040696 	0 10.0348 	0.0452091 	0 10.0374 	0.0386879 	0 10.0412 	0.0387195 	0 10.045 	0.038751 	0 10.0488 	0.0387826 	0 10.0527 	0.0418934 	0 10.0546 	0.0399627 	0 10.0567 	0.0413569 	0 10.0588 	0.0427529 	0 10.061 	0.0441507 	0 10.0629 	0.0466178 	0 10.0639 	0.0467809 	0 10.0648 	0.0479665 	0 10.0657 	0.0491532 	0 10.0666 	0.050341 	0 10.0673 	0.0513474 	0 10.0675 	0.0515368 	0 10.0676 	0.0517264 	0 10.0678 	0.0519159 	0 10.0679 	0.0521055 	0 10.0681 	0.0522685 	0 10.0681 	0.0530375 	0 10.0682 	0.0537883 	0 10.0682 	0.0545397 	0 10.0683 	0.0552919 	0 10.0683 	0.0558613 	0 10.0676 	0.0563339 	0 10.0667 	0.056687 	0 10.0658 	0.0570403 	0 10.0648 	0.0573939 	0 10.0637 	0.0574929 	0 10.0626 	0.0578541 	0 10.0608 	0.0580298 	0 10.0591 	0.0582056 	0 10.0573 	0.0583814 	0 10.055 	0.0582736 	0 10.0539 	0.0585977 	0 10.0515 	0.0586863 	0 10.0491 	0.0587749 	0 10.0467 	0.0588636 	0 10.0432 	0.0586562 	0 10.0425 	0.0589868 	0 10.0395 	0.0590474 	0 10.0365 	0.0591079 	0 10.0335 	0.0591685 	0 10.0288 	0.0589371 	0 10.0286 	0.0593372 	0 10.0252 	0.0594435 	0 10.0217 	0.0595499 	0 10.0182 	0.0596564 	0 10.0121 	0.0594845 	0 10.0127 	0.0600235 	0 10.0088 	0.0602422 	0 10.0049 	0.0604609 	0 10.001 	0.0606798 	0 9.99342 	0.0606272 	0 9.99496 	0.0613649 	0 9.99067 	0.0617664 	0 9.98639 	0.0621681 	0 9.98211 	0.06257 	0 9.97301 	0.0627163 	0 9.97571 	0.0637322 	0 9.97105 	0.064382 	0 9.96639 	0.0650321 	0 9.96174 	0.0656825 	0 9.95087 	0.0660846 	0 9.95484 	0.0674871 	0 9.94986 	0.0686041 	0 9.94488 	0.0697217 	0 9.93991 	0.0708397 	0 9.9273 	0.0717992 	0 9.93281 	0.0738641 	0 9.92748 	0.0755912 	0 9.92216 	0.077319 	0 9.91686 	0.0790477 	0 9.90228 	0.0805748 	0 9.9096 	0.0834308 	0 9.9044 	0.086605 	0 9.89922 	0.0897802 	0 9.89407 	0.0929565 	0 9.87811 	0.0961819 	0 9.88775 	0.100614 	0 9.88468 	0.105046 	5.10155e-21 9.88129 	0.109479 	1.03396e-20 9.87692 	0.113838 	1.47697e-20 9.86225 	0.117419 	1.09355e-20 9.87401 	0.121171 	1.06542e-19 9.87387 	0.124234 	1.12157e-19 9.87224 	0.127211 	1.06361e-19 9.8692 	0.130064 	8.89132e-20 9.85525 	0.131966 	-1.82748e-20 9.86917 	0.134061 	-4.95885e-20 9.86983 	0.135522 	-5.79266e-20 9.86874 	0.136898 	-6.32229e-20 9.86594 	0.138236 	-6.23058e-20 9.85098 	0.1393 	-1.73583e-20 9.86576 	0.141109 	-1.59637e-20 9.86574 	0.14221 	-1.0753e-20 9.86356 	0.143208 	-4.98072e-21 9.85931 	0.144161 	1.40898e-21 9.84203 	0.144827 	1.16764e-20 9.85751 	0.147358 	1.4651e-21 9.85685 	0.148907 	-1.57377e-20 9.85349 	0.150291 	-3.41086e-20 9.84759 	0.151515 	-5.43335e-20 9.82786 	0.151866 	-8.46849e-20 9.84463 	0.154854 	-1.48712e-19 9.8438 	0.156721 	-1.49803e-19 9.83953 	0.158369 	-1.38586e-19 9.83208 	0.159767 	-1.1376e-19 9.80986 	0.16001 	-2.5993e-20 9.82853 	0.162981 	7.49447e-20 9.82786 	0.164902 	1.06213e-19 9.82266 	0.166578 	1.21193e-19 9.81335 	0.168008 	1.16064e-19 9.78821 	0.168491 	3.36246e-20 9.80945 	0.171597 	-1.18989e-19 9.80935 	0.173656 	-1.59565e-19 9.8032 	0.175417 	-1.68277e-19 9.79162 	0.176937 	-1.40874e-19 9.76293 	0.177698 	2.34341e-22 9.78757 	0.181306 	1.41009e-19 9.78878 	0.183657 	1.73301e-19 9.78178 	0.185566 	1.67502e-19 9.76745 	0.18714 	1.26065e-19 9.7345 	0.187859 	-5.94743e-21 9.76329 	0.192133 	-1.09692e-19 9.76672 	0.194854 	-1.57894e-19 9.75898 	0.196891 	-1.81623e-19 9.74127 	0.198379 	-1.69932e-19 9.70341 	0.198755 	-8.67353e-20 9.7368 	0.203775 	-1.6958e-19 9.74344 	0.20695 	-1.92264e-19 9.73503 	0.209086 	-1.81085e-19 9.71311 	0.210323 	-1.36395e-19 9.66987 	0.210141 	-3.88966e-20 9.70802 	0.215893 	-3.95804e-20 9.71899 	0.219571 	-2.90412e-20 9.70997 	0.221727 	-1.02598e-20 9.68291 	0.222497 	4.90074e-21 9.6341 	0.221597 	1.57007e-20 9.67692 	0.227961 	5.20615e-21 9.69338 	0.232167 	0 9.68385 	0.234246 	0 9.6507 	0.23435 	0 9.59641 	0.232686 	0 9.64353 	0.239536 	0 9.66661 	0.24432 	-7.59577e-21 9.65668 	0.24627 	-2.56085e-20 9.61658 	0.245568 	-5.12107e-20 9.55721 	0.243172 	-8.16614e-20 9.608 	0.25036 	-1.46825e-19 9.63866 	0.255765 	-1.91279e-19 9.62846 	0.257551 	-1.93783e-19 9.58073 	0.255941 	-1.48723e-19 9.51697 	0.252882 	-8.33629e-20 9.57051 	0.260201 	4.20951e-20 9.60938 	0.266203 	1.46192e-19 9.59908 	0.267798 	1.79012e-19 9.54341 	0.265257 	1.20238e-19 9.47628 	0.261672 	3.83938e-20 9.53144 	0.268914 	1.21276e-19 9.57864 	0.275443 	1.94339e-19 9.56841 	0.276848 	1.97326e-19 9.50492 	0.273446 	1.22352e-19 9.4357 	0.269528 	3.90443e-20 9.49115 	0.276524 	2.56007e-20 9.5462 	0.283481 	1.21575e-20 9.5353 	0.284638 	0 9.46544 	0.280568 	0 9.39554 	0.276495 	0 9.45002 	0.283075 	0 9.50461 	0.289662 	0 9.49444 	0.290704 	-1.06725e-20 9.42531 	0.286672 	-2.37425e-20 9.35613 	0.282637 	-3.68172e-20 9.40847 	0.288657 	-1.21324e-19 9.46091 	0.294683 	-2.05823e-19 9.45194 	0.295646 	-2.08421e-19 9.38485 	0.291797 	-1.18138e-19 9.3177 	0.287943 	-2.7853e-20 9.36687 	0.293254 	7.94532e-20 9.41613 	0.29857 	1.86776e-19 9.40827 	0.299418 	1.91474e-19 9.34441 	0.295871 	8.68187e-20 9.2805 	0.292322 	-1.78483e-20 9.32581 	0.296819 	-1.07e-20 9.37121 	0.301321 	-3.54785e-21 9.36429 	0.302042 	-6.01639e-21 9.30452 	0.298941 	-1.79764e-20 9.2447 	0.295837 	-2.99353e-20 9.2857 	0.299466 	-1.86198e-20 9.32676 	0.303098 	-7.30856e-21 9.32057 	0.303669 	0 9.26541 	0.301108 	0 9.21023 	0.298545 	0 9.24654 	0.301265 	0 9.2829 	0.303987 	0 9.27721 	0.304373 	-8.30059e-21 9.22718 	0.302388 	-1.36419e-20 9.17714 	0.300403 	-1.89823e-20 9.20881 	0.30226 	-1.15172e-19 9.24052 	0.304118 	-2.11363e-19 9.23513 	0.304292 	-2.12205e-19 9.1903 	0.302853 	-1.17073e-19 9.14547 	0.301413 	-2.19391e-20 9.17264 	0.302476 	-1.76785e-20 9.19856 	0.303496 	-1.45348e-20 9.19223 	0.303411 	-3.99988e-20 9.15491 	0.302512 	-7.60472e-20 9.1153 	0.301553 	-1.12887e-19 9.13841 	0.301909 	-1.80384e-19 9.15643 	0.302154 	-2.33793e-19 9.15017 	0.301873 	-2.19932e-19 9.12147 	0.301368 	-1.55914e-19 9.08674 	0.300804 	-7.84005e-20 9.10626 	0.300531 	4.81098e-20 9.11786 	0.300199 	1.5023e-19 9.11174 	0.299735 	1.97641e-19 9.09002 	0.299417 	1.59393e-19 9.05976 	0.299181 	7.41787e-20 9.07621 	0.298371 	1.62272e-19 9.08275 	0.297639 	2.04891e-19 9.07683 	0.297005 	1.90253e-19 9.06062 	0.296696 	1.33217e-19 9.03434 	0.296707 	3.46318e-20 9.04819 	0.295431 	3.00687e-20 9.05081 	0.294439 	6.12092e-21 9.04515 	0.293657 	-3.21334e-20 9.03322 	0.29324 	-6.57533e-20 9.01045 	0.293455 	-9.13543e-20 9.02213 	0.291833 	-6.71888e-20 9.02178 	0.290708 	-6.11221e-20 9.01641 	0.28979 	-6.25931e-20 9.00774 	0.289154 	-6.96618e-20 8.98806 	0.289464 	-9.54787e-20 8.99793 	0.287564 	-7.10871e-20 8.99536 	0.286363 	-4.66116e-20 8.99029 	0.285299 	-2.21166e-20 8.98405 	0.284367 	0 8.96709 	0.284678 	0 8.97546 	0.282532 	0 8.97128 	0.281275 	1.16413e-20 8.96653 	0.280055 	2.3784e-20 8.96174 	0.278834 	3.59246e-20 8.94748 	0.279043 	5.57146e-20 8.95369 	0.276747 	-6.35909e-20 8.94931 	0.275363 	-8.64117e-20 8.94488 	0.273977 	-1.09254e-19 8.94042 	0.272588 	-1.32119e-19 8.92921 	0.272505 	-4.9559e-20 8.93333 	0.270104 	-4.81818e-20 8.92929 	0.268548 	-6.14153e-20 8.92521 	0.266991 	-7.46396e-20 8.92109 	0.265432 	-8.78547e-20 8.91226 	0.265042 	-1.10668e-19 8.91479 	0.262564 	-8.12021e-20 8.91111 	0.26084 	-4.19715e-20 8.90738 	0.259114 	-2.7374e-21 8.90361 	0.257386 	3.65001e-20 8.89666 	0.25667 	6.40965e-20 8.89797 	0.254134 	1.15434e-19 8.89466 	0.252223 	1.13093e-19 8.8913 	0.25031 	1.10776e-19 8.88789 	0.248394 	1.08485e-19 8.88242 	0.247309 	6.2164e-20 8.88288 	0.244679 	-6.29425e-21 8.87994 	0.242557 	-1.69164e-20 8.87695 	0.240433 	-2.75801e-20 8.87389 	0.238306 	-3.82854e-20 8.86956 	0.236845 	6.32532e-21 8.86944 	0.234091 	5.90149e-20 8.8669 	0.231755 	8.41421e-20 8.86429 	0.229415 	1.09301e-19 8.86161 	0.227074 	1.34491e-19 8.85822 	0.225264 	1.28989e-19 8.85778 	0.22237 	1.25539e-19 8.85564 	0.219807 	1.38955e-19 8.85343 	0.217242 	1.52344e-19 8.85115 	0.214675 	1.65706e-19 8.84848 	0.212517 	1.75306e-19 8.8479 	0.209462 	1.21075e-19 8.84615 	0.206659 	8.30473e-20 8.84433 	0.203853 	4.49512e-20 8.84243 	0.201045 	6.78623e-21 8.84034 	0.198542 	-1.17749e-20 8.83975 	0.195297 	-2.22007e-20 8.83836 	0.19223 	-2.01665e-20 8.83688 	0.189161 	-1.81884e-20 8.83533 	0.186089 	-1.62662e-20 8.83368 	0.18323 	1.12567e-22 8.83317 	0.179749 	2.5753e-20 8.83211 	0.17639 	3.87189e-20 8.83096 	0.173029 	5.17393e-20 8.82972 	0.169665 	6.48141e-20 8.82844 	0.16645 	6.74404e-20 8.82808 	0.162696 	5.45928e-20 8.82734 	0.159024 	4.17872e-20 8.8265 	0.155351 	2.89724e-20 8.82557 	0.151675 	1.61485e-20 8.82461 	0.148109 	6.2679e-21 8.82447 	0.144043 	-5.34039e-21 8.82404 	0.140039 	-3.23899e-20 8.82351 	0.136032 	-5.92743e-20 8.82287 	0.132024 	-8.59934e-20 8.82223 	0.128113 	-1.25035e-19 8.82234 	0.12369 	-1.2656e-19 8.82221 	0.119322 	-1.28038e-19 8.82196 	0.114953 	-1.29475e-19 8.8216 	0.110581 	-1.30873e-19 8.82128 	0.106324 	-1.35206e-19 8.82167 	0.101496 	-1.00738e-19 8.8218 	0.0967321 	-4.90487e-20 8.82181 	0.0919668 	2.46693e-21 8.8217 	0.0872003 	5.38085e-20 8.82173 	0.0825932 	1.25143e-19 8.8224 	0.0773176 	9.96997e-20 8.8228 	0.0721312 	7.43065e-20 8.82305 	0.0669439 	4.88901e-20 8.82318 	0.0617557 	2.34503e-20 8.82361 	0.0568012 	4.18143e-21 8.82456 	0.0510369 	-1.96221e-20 8.82518 	0.0454026 	-4.5295e-20 8.82566 	0.039768 	-7.09436e-20 8.826 	0.0341331 	-9.65677e-20 8.82688 	0.0288352 	-1.16058e-19 8.8281 	0.0225372 	-4.3698e-20 8.82892 	0.0164236 	-1.34739e-20 8.82959 	0.0103104 	1.69981e-20 8.83011 	0.00419762 	4.77179e-20 8.83149 	-0.00144979 	9.39374e-21 8.83297 	-0.00834038 	5.63179e-22 8.83394 	-0.0149818 	4.05009e-22 8.83476 	-0.021622 	2.46662e-22 8.83542 	-0.028261 	8.81389e-23 8.83735 	-0.0342872 	0 8.83904 	-0.0418377 	1.28383e-20 8.84012 	-0.0490612 	3.69785e-20 8.84104 	-0.0562824 	6.10876e-20 8.84179 	-0.0635015 	8.51654e-20 8.84429 	-0.0699405 	9.38127e-20 8.84621 	-0.0782086 	-3.88519e-20 8.84735 	-0.0860693 	-4.77647e-20 8.8483 	-0.0939268 	-5.70232e-20 8.84908 	-0.101781 	-6.66272e-20 8.85211 	-0.108683 	6.59202e-20 8.85427 	-0.117739 	-8.93829e-20 8.85537 	-0.126302 	-1.24612e-19 8.85628 	-0.134861 	-1.60179e-19 8.857 	-0.143415 	-1.96083e-19 8.86049 	-0.150846 	-5.13085e-20 8.86286 	-0.160733 	-2.04571e-19 8.86391 	-0.170105 	-2.34969e-19 8.86469 	-0.179434 	-2.5679e-19 8.86587 	-0.188536 	-2.34671e-19 8.86913 	-0.196793 	-4.45434e-20 8.87147 	-0.207489 	2.69692e-19 8.87271 	-0.217844 	3.91534e-19 8.87325 	-0.228015 	4.10659e-19 8.87484 	-0.237716 	2.834e-19 8.87762 	-0.246907 	-3.70295e-21 8.87988 	-0.258497 	-1.39113e-20 8.88139 	-0.269922 	-1.65057e-20 8.88157 	-0.281004 	-2.99966e-21 8.88337 	-0.291395 	-2.101e-20 8.88547 	-0.301593 	-4.77114e-20 8.88754 	-0.314163 	-2.24728e-19 8.88936 	-0.326721 	-4.01789e-19 8.88939 	-0.338707 	-3.7938e-19 8.8908 	-0.349965 	-1.55944e-19 8.89198 	-0.361217 	6.75432e-20 8.89372 	-0.374829 	2.40895e-19 8.89519 	-0.388426 	4.14175e-19 8.89611 	-0.401405 	4.379e-19 8.89637 	-0.413763 	3.10611e-19 8.8964 	-0.426115 	1.83195e-19 8.89763 	-0.440834 	3.08327e-19 8.89858 	-0.455537 	4.33384e-19 8.9003 	-0.469626 	4.14245e-19 8.89925 	-0.483105 	2.53699e-19 8.89785 	-0.496558 	8.74521e-20 8.89835 	-0.512408 	4.75291e-20 8.89883 	-0.527995 	1.35025e-20 8.89939 	-0.543213 	-1.20999e-20 8.89855 	-0.558173 	-3.35862e-20 8.89545 	-0.572696 	-4.76736e-20 8.89502 	-0.589674 	-2.39533e-19 8.89436 	-0.606091 	-2.46083e-19 8.89341 	-0.622449 	-2.38452e-19 8.89217 	-0.638788 	-2.30345e-19 8.88828 	-0.654601 	-9.82138e-20 8.8867 	-0.669815 	-1.03996e-19 8.88465 	-0.684712 	-1.09844e-19 8.88238 	-0.699594 	-1.15807e-19 8.87989 	-0.714461 	-1.21885e-19 8.87767 	-0.726574 	-1.26934e-19 8.877 	-0.729638 	-1.25547e-19 8.87632 	-0.732701 	-1.24155e-19 8.87563 	-0.735763 	-1.22758e-19 8.87493 	-0.738825 	-1.21355e-19 8.87443 	-0.741868 	-1.23427e-19 8.87025 	-0.760231 	-1.12227e-19 8.8654 	-0.778447 	-1.04304e-19 8.86022 	-0.79664 	-9.6207e-20 8.85472 	-0.81481 	-8.79368e-20 8.84982 	-0.832802 	-1.27623e-19 8.8457 	-0.852795 	-2.81806e-19 8.83886 	-0.871905 	-3.08334e-19 8.8313 	-0.890855 	-3.14939e-19 8.82369 	-0.909598 	-2.01018e-19 8.81596 	-0.928207 	1.25569e-20 8.80971 	-0.948989 	2.12267e-19 8.8031 	-0.969745 	4.11949e-19 8.7937 	-0.98941 	4.24436e-19 8.78295 	-1.00839 	2.57386e-19 8.77185 	-1.0274 	9.00681e-20 8.7631 	-1.04871 	6.49855e-20 8.75383 	-1.06985 	3.99214e-20 8.74359 	-1.09041 	1.44819e-20 8.73145 	-1.11032 	-4.49515e-21 8.71681 	-1.12941 	-1.47081e-20 8.70543 	-1.15032 	-9.1591e-20 8.69251 	-1.17037 	-6.84989e-20 8.67926 	-1.1904 	-4.49998e-20 8.66567 	-1.2104 	-2.10924e-20 8.6541 	-1.22702 	-8.81862e-22 8.65327 	-1.22818 	5.90165e-22 8.65244 	-1.22935 	2.06363e-21 8.65161 	-1.23052 	3.53853e-21 8.65078 	-1.23168 	4.91304e-21 8.64994 	-1.23282 	2.62624e-23 8.63389 	-1.25327 	-7.0121e-22 8.6172 	-1.27355 	-5.10936e-22 8.60017 	-1.29382 	-3.19686e-22 8.58274 	-1.31398 	1.33761e-21 8.56432 	-1.33334 	1.69907e-20 8.54775 	-1.35473 	1.07098e-19 8.53062 	-1.376 	1.93455e-19 8.50992 	-1.39532 	2.01269e-19 8.48802 	-1.41363 	1.18122e-19 8.46571 	-1.43202 	3.47076e-20 8.44579 	-1.45252 	2.62336e-20 8.42504 	-1.47249 	1.77414e-20 8.40298 	-1.4914 	9.14237e-21 8.38056 	-1.5103 	6.04678e-22 8.35464 	-1.52747 	0 8.34538 	-1.53509 	0 8.33555 	-1.54211 	0 8.32552 	-1.54897 	0 8.31545 	-1.55583 	0 8.30587 	-1.56232 	0 8.29041 	-1.57331 	0 8.27483 	-1.5843 	0 8.25912 	-1.59529 	0 8.24312 	-1.60599 	0 8.2265 	-1.61593 	0 8.201 	-1.63419 	0 8.17416 	-1.65175 	0 8.14522 	-1.66799 	-6.64598e-22 8.11488 	-1.68246 	-8.22215e-21 8.08408 	-1.69702 	-1.58414e-20 8.05529 	-1.71346 	-1.23978e-20 8.02562 	-1.72897 	-1.22396e-20 7.99496 	-1.7433 	-1.61732e-20 7.96398 	-1.75763 	-2.0155e-20 7.93161 	-1.7714 	-2.3277e-20 7.92806 	-1.77301 	-2.89042e-20 7.92443 	-1.77448 	-3.04354e-20 7.92073 	-1.77583 	-2.89895e-20 7.91704 	-1.77719 	-2.75421e-20 7.91338 	-1.77853 	-2.61109e-20 7.88401 	-1.79039 	-6.42071e-21 7.85441 	-1.80227 	1.34561e-20 7.82457 	-1.81416 	3.35213e-20 7.79338 	-1.8251 	3.15863e-20 7.76053 	-1.83502 	4.58026e-21 7.72743 	-1.84778 	5.31e-21 7.69401 	-1.86054 	6.10921e-21 7.65834 	-1.8714 	2.38652e-20 7.62025 	-1.88079 	4.75326e-20 7.58085 	-1.88976 	7.23846e-20 7.56635 	-1.89401 	7.10009e-20 7.55137 	-1.89784 	6.86309e-20 7.53579 	-1.90114 	6.49854e-20 7.52017 	-1.90444 	6.13548e-20 7.5051 	-1.90762 	5.7876e-20 7.48347 	-1.91317 	6.10016e-20 7.46176 	-1.91873 	6.42073e-20 7.43996 	-1.9243 	6.74939e-20 7.41668 	-1.92911 	4.03561e-20 7.39198 	-1.93325 	-1.44223e-20 7.35698 	-1.94162 	-1.07879e-19 7.32172 	-1.95 	-2.0134e-19 7.28261 	-1.9565 	-2.07521e-19 7.23991 	-1.96118 	-1.22725e-19 7.19673 	-1.9659 	-3.74346e-20 7.17471 	-1.96946 	-5.83579e-20 7.15168 	-1.9725 	-6.58531e-20 7.12717 	-1.97476 	-5.35543e-20 7.10259 	-1.97702 	-4.11944e-20 7.07902 	-1.97918 	-2.93273e-20 7.06286 	-1.9812 	-1.70914e-20 7.04666 	-1.98323 	-4.81339e-21 7.03042 	-1.98526 	7.50711e-21 7.01317 	-1.98674 	5.35854e-21 6.99508 	-1.98777 	-8.24878e-21 6.95761 	-1.99167 	-6.57602e-20 6.91918 	-1.99527 	-1.13037e-19 6.87766 	-1.99753 	-1.18464e-19 6.83282 	-1.998 	-7.29231e-20 6.78754 	-1.9985 	-2.7147e-20 6.75919 	-1.99975 	-5.36657e-20 6.72969 	-2.00043 	-7.26776e-20 6.69842 	-2.0002 	-7.98083e-20 6.66705 	-1.99998 	-8.69031e-20 6.63697 	-1.99978 	-9.36507e-20 6.62544 	-1.99995 	-1.08483e-19 6.61389 	-2.00013 	-1.2333e-19 6.60233 	-2.00031 	-1.38193e-19 6.59014 	-2.00012 	-1.29947e-19 6.57746 	-1.99966 	-1.04403e-19 6.53849 	-1.9994 	-1.58112e-19 6.49727 	-1.99837 	-1.75586e-19 6.45527 	-1.99711 	-1.82322e-19 6.40962 	-1.99381 	-1.13252e-19 6.36358 	-1.99052 	-4.38861e-20 6.32993 	-1.98884 	-3.23534e-20 6.2951 	-1.98657 	-2.34715e-20 6.25843 	-1.98335 	-1.88201e-20 6.22165 	-1.98014 	-1.41904e-20 6.18625 	-1.97707 	-9.77043e-21 6.17936 	-1.97656 	-7.12754e-21 6.17246 	-1.97604 	-4.48412e-21 6.16556 	-1.97553 	-1.84016e-21 6.15836 	-1.97481 	6.20819e-22 6.15092 	-1.97394 	2.946e-21 6.11092 	-1.96997 	-5.77765e-20 6.0691 	-1.96544 	-8.93776e-20 6.02714 	-1.96092 	-1.21114e-19 5.98257 	-1.95484 	-6.91364e-20 5.9372 	-1.94844 	-9.78821e-22 5.89863 	-1.94362 	-5.48006e-22 5.85892 	-1.93817 	6.44671e-21 5.81752 	-1.93174 	2.34808e-20 5.776 	-1.92532 	4.05297e-20 5.73588 	-1.91914 	5.69685e-20 5.73434 	-1.9189 	5.72203e-20 5.7328 	-1.91867 	5.7472e-20 5.73125 	-1.91844 	5.77237e-20 5.72966 	-1.91817 	5.79776e-20 5.72801 	-1.91786 	5.82333e-20 5.68782 	-1.91082 	7.03199e-20 5.64718 	-1.90368 	7.89759e-20 5.60642 	-1.89654 	8.76767e-20 5.56404 	-1.88836 	7.20686e-20 5.5205 	-1.87953 	4.16588e-20 5.48218 	-1.87228 	-1.29223e-20 5.44329 	-1.86473 	-4.84223e-20 5.40249 	-1.85603 	-9.89597e-21 5.36159 	-1.84732 	2.87101e-20 5.3193 	-1.83828 	8.1646e-20 5.31451 	-1.8373 	8.07243e-20 5.30961 	-1.83626 	8.04666e-20 5.30455 	-1.83511 	8.12274e-20 5.29948 	-1.83397 	8.19888e-20 5.29443 	-1.83283 	8.27482e-20 5.26067 	-1.82494 	8.97663e-20 5.22684 	-1.81706 	9.68115e-20 5.19295 	-1.80918 	1.03884e-19 5.15801 	-1.80059 	8.27893e-20 5.12207 	-1.79137 	3.73367e-20 5.08587 	-1.78253 	4.27789e-20 5.0496 	-1.7737 	4.82122e-20 5.01146 	-1.76366 	4.20368e-20 4.97212 	-1.75323 	2.99611e-20 4.93153 	-1.7425 	1.23658e-20 4.91904 	-1.73932 	1.1399e-20 4.90626 	-1.73596 	1.10882e-20 4.89309 	-1.73236 	1.16409e-20 4.87991 	-1.72877 	1.21941e-20 4.8668 	-1.72519 	1.27443e-20 4.84319 	-1.71846 	1.09491e-20 4.81956 	-1.71172 	9.15276e-21 4.79591 	-1.70499 	7.35524e-21 4.77164 	-1.6978 	5.85242e-21 4.74671 	-1.69016 	4.64289e-21 4.71305 	-1.68027 	2.00451e-20 4.67934 	-1.67037 	3.54427e-20 4.64368 	-1.65961 	3.34785e-20 4.60613 	-1.64796 	1.41151e-20 4.56849 	-1.6363 	-5.27466e-21 4.54675 	-1.6298 	-6.19076e-21 4.52446 	-1.62296 	-6.28276e-21 4.50156 	-1.61574 	-5.47146e-21 4.47865 	-1.60853 	-4.66062e-21 4.45587 	-1.60136 	-3.85563e-21 4.44424 	-1.5975 	-2.76835e-21 4.43261 	-1.59364 	-1.68103e-21 4.42098 	-1.58978 	-5.93662e-22 4.40909 	-1.58572 	1.50715e-22 4.39689 	-1.58142 	4.82727e-22 4.36597 	-1.57099 	8.61491e-23 4.33353 	-1.56015 	-1.08936e-21 4.30067 	-1.54918 	-2.48056e-21 4.26626 	-1.53713 	-3.99429e-21 4.23177 	-1.52503 	-5.5127e-21 4.20126 	-1.51473 	-2.13793e-20 4.17006 	-1.50398 	-2.46844e-20 4.13799 	-1.49267 	-1.16726e-20 4.10591 	-1.48135 	1.34067e-21 4.0734 	-1.46993 	1.60849e-20 4.07151 	-1.4693 	1.4618e-20 4.06958 	-1.46864 	1.44286e-20 4.0676 	-1.46795 	1.54189e-20 4.06562 	-1.46726 	1.64091e-20 4.06364 	-1.46657 	1.73991e-20 4.03559 	-1.45617 	3.6825e-20 4.00755 	-1.44578 	5.62476e-20 3.97951 	-1.43539 	7.56667e-20 3.95097 	-1.42459 	6.72851e-20 3.92173 	-1.4132 	1.85395e-20 3.89406 	-1.40295 	1.11486e-20 3.86639 	-1.3927 	3.75749e-21 3.83779 	-1.38174 	7.42269e-23 3.80716 	-1.37003 	-3.67945e-21 3.7765 	-1.3583 	-7.48073e-21 3.76013 	-1.35232 	-2.21476e-21 3.74333 	-1.34604 	0 3.7262 	-1.33953 	0 3.7