/*--------------------------------*- C++ -*----------------------------------*\
  =========                 |
  \\      /  F ield         | OpenFOAM: The Open Source CFD Toolbox
   \\    /   O peration     | Website:  https://openfoam.org
    \\  /    A nd           | Version:  8
     \\/     M anipulation  |
\*---------------------------------------------------------------------------*/
FoamFile
{
    version     2.0;
    format      ascii;
    class       volScalarField;
    location    "65";
    object      epsilon;
}
// * * * * * * * * * * * * * * * * * * * * * * * * * * * * * * * * * * * * * //

dimensions      [0 2 -3 0 0 0 0];

internalField   nonuniform List<scalar> 
12225
(
285.487
270.747
257.883
243.856
232.442
223.157
216.812
212.831
212.904
214.232
217.66
221.537
229.017
233.916
242.935
249.093
256.791
268.798
52.4967
91.8819
107.025
114.805
125.017
137.012
153.163
170.549
192.231
212.347
237.485
258.249
285.238
304.174
332.107
347.303
378.796
387.611
20.3265
34.8452
44.6954
50.4701
55.4516
59.653
64.7962
69.7934
76.6538
83.6247
92.1769
100.272
109.561
118.839
128.031
138.964
147.127
161.449
15.3505
19.6918
24.1237
27.5659
30.5208
32.8843
35.2061
37.3449
39.608
42.0546
44.5526
47.5037
50.0915
53.64
56.1775
60.3684
62.9447
67.9653
14.6515
15.8626
17.3711
19.0714
20.6481
22.0326
23.2664
24.4562
25.4842
26.655
27.6028
28.8811
29.7841
31.2177
32.0991
33.6859
34.6293
36.4556
14.707
14.8771
15.2027
15.8657
16.5705
17.2904
17.9316
18.5973
19.1363
19.7637
20.2286
20.8567
21.2766
21.9275
22.3256
23.0102
23.4146
24.1906
14.7422
14.6202
14.6249
14.7371
14.9305
15.2206
15.4939
15.8151
16.0781
16.3969
16.6346
16.9483
17.164
17.478
17.6778
18.0014
18.1928
18.5602
14.7627
14.5866
14.4637
14.381
14.3668
14.3902
14.4384
14.5358
14.6207
14.7423
14.8376
14.9689
15.0628
15.2001
15.2906
15.4352
15.5234
15.6946
14.7667
14.5908
14.4345
14.2961
14.1845
14.1041
14.039
14.0066
13.981
13.9796
13.9826
13.9951
14.0093
14.0384
14.0593
14.0979
14.1272
14.1815
14.7663
14.594
14.4319
14.2819
14.1424
14.0213
13.9104
13.8183
13.7355
13.6685
13.609
13.5625
13.518
13.4881
13.4544
13.4387
13.4113
13.4133
14.7658
14.5946
14.4321
14.2802
14.1358
14.0026
13.8772
13.7631
13.6565
13.5608
13.4712
13.3926
13.3171
13.2535
13.1894
13.1393
13.0834
13.0467
14.7657
14.5944
14.4321
14.2798
14.135
13.9994
13.8707
13.7506
13.6369
13.5316
13.4316
13.3401
13.2524
13.1735
13.0964
13.0291
12.9611
12.9044
14.7657
14.5942
14.432
14.2794
14.1348
13.9985
13.8692
13.7475
13.6318
13.5232
13.4197
13.3231
13.2306
13.1448
13.0623
12.9864
12.9128
12.8459
14.7657
14.594
14.4319
14.279
14.1345
13.998
13.8687
13.7465
13.6305
13.5209
13.4167
13.3182
13.2245
13.1361
13.0518
12.9723
12.8965
12.8252
14.7657
14.5939
14.4318
14.2788
14.1342
13.9976
13.8683
13.746
13.63
13.5201
13.4159
13.317
13.2232
13.1341
13.0494
12.9691
12.8927
12.8202
14.7657
14.5938
14.4316
14.2786
14.1339
13.9973
13.8679
13.7456
13.6296
13.5198
13.4155
13.3167
13.2227
13.1337
13.049
12.9687
12.8922
12.8196
14.7657
14.5937
14.4315
14.2784
14.1337
13.997
13.8677
13.7453
13.6294
13.5195
13.4153
13.3165
13.2227
13.1337
13.0491
12.9688
12.8925
12.8199
14.7657
14.5937
14.4314
14.2782
14.1336
13.9968
13.8675
13.7451
13.6292
13.5194
13.4153
13.3165
13.2229
13.1339
13.0495
12.9692
12.8931
12.8206
14.7657
14.5936
14.4314
14.2782
14.1336
13.9968
13.8676
13.7451
13.6294
13.5195
13.4156
13.3168
13.2233
13.1344
13.0502
12.97
12.894
12.8216
14.7657
14.5936
14.4314
14.2782
14.1337
13.9969
13.8678
13.7454
13.6298
13.52
13.4162
13.3175
13.2242
13.1353
13.0512
12.9711
12.8953
12.823
14.7657
14.5937
14.4314
14.2784
14.1338
13.9973
13.8681
13.746
13.6303
13.5208
13.417
13.3187
13.2254
13.1371
13.0531
12.9735
12.8979
12.8261
14.7657
14.5937
14.4316
14.2785
14.1342
13.9977
13.8689
13.7471
13.6322
13.5234
13.4209
13.3237
13.2321
13.1452
13.0635
12.9857
12.9127
12.8429
14.7658
14.5937
14.4318
14.2788
14.1355
14.0005
13.8747
13.7568
13.6474
13.5449
13.4502
13.3612
13.2795
13.202
13.1314
13.0636
13.0026
12.9427
14.7655
14.5928
14.4328
14.2845
14.1517
14.0324
13.9294
13.838
13.7598
13.69
13.6311
13.5773
13.5328
13.4903
13.4567
13.4218
13.397
13.3667
14.7592
14.5932
14.4603
14.3602
14.303
14.2764
14.2801
14.2914
14.3196
14.3509
14.3925
14.43
14.4762
14.5137
14.5618
14.5966
14.6464
14.6759
14.7213
14.6909
14.7538
14.9173
15.1817
15.4596
15.7445
16.0078
16.2657
16.4951
16.7239
16.9231
17.1305
17.3062
17.5002
17.6569
17.8446
17.9842
14.7476
15.5123
16.5466
17.6829
18.7006
19.5624
20.3275
20.9842
21.5999
22.1417
22.6846
23.1685
23.6845
24.1373
24.6489
25.0826
25.6032
26.0228
15.9872
20.9923
25.0219
27.7571
29.7759
31.3446
32.7511
34.0221
35.3042
36.5448
37.8733
39.1696
40.5903
41.9402
43.4517
44.8484
46.479
47.8793
29.9026
47.2115
54.8549
58.6476
61.5701
64.3634
67.4723
70.8224
74.5161
78.4127
82.5769
86.8172
91.2328
95.6147
100.087
104.417
108.763
112.936
165.799
160.073
154.9
149.561
144.479
139.677
135.606
132.102
129.246
126.949
125.258
123.977
123.217
122.687
122.622
122.719
122.978
123.445
15.4932
5.81786
7.38645
8.4399
8.56444
37.2963
39.196
40.3783
41.6119
42.1906
40.9025
8.89292
40.3004
40.8493
41.1245
40.4757
47.4524
47.4026
54.9742
48.7006
47.1035
47.8432
49.6748
53.1934
59.581
70.6515
86.0002
105.485
128.099
153.875
181.298
210.069
239.499
269.576
299.561
329.781
359.592
389.466
418.775
448.113
476.85
505.652
533.889
562.267
590.15
618.27
645.966
673.988
701.655
729.729
757.491
785.719
813.662
842.105
870.29
898.998
927.41
956.336
984.921
1014
1042.63
1071.68
1100.18
1129.02
1157.13
1185.43
1212.85
1240.29
1266.68
1292.93
1317.99
1342.76
1366.34
1389.64
1412
1434.11
1454.56
1474.25
1492.13
1508.87
1523.48
1535.84
1546.22
1552.21
1553.13
1549.61
1549.03
1543.55
1535.95
1525.92
1514.68
1498.33
1480.33
1458.61
1434.3
1407.15
1377.28
1344.96
1310.26
1274.01
1236.6
1198.49
1159.54
1120.2
1080.73
1041.39
1002.46
964.048
926.419
889.5
853.034
815.982
780.705
746.704
714.209
683.096
653.473
625.268
598.573
573.412
550.417
532.047
516.844
502.744
489.41
476.655
464.533
452.916
441.879
431.301
421.241
411.584
402.398
393.581
385.147
377.13
369.247
361.499
354.057
346.866
339.94
333.259
326.852
320.671
314.744
308.96
303.315
297.796
292.431
287.198
282.13
277.201
272.4
267.696
263.106
258.623
254.28
250.057
245.968
242.006
238.182
234.479
230.893
227.403
223.99
220.609
217.242
213.83
210.317
206.637
202.683
198.411
193.482
188.242
181.44
174.888
165.404
156.699
145.456
132.34
29.6411
23.4024
21.3537
20.0428
19.5608
20.2254
20.6461
21.0417
21.4779
22.06
22.64
22.4395
25.3161
28.6129
31.3724
35.4245
40.9632
46.9303
54.0209
60.2135
66.4064
74.7844
84.9039
96.4821
109.268
123.003
137.334
152.02
166
179.049
191.649
203.919
216.105
226.682
237.126
247.292
257.278
267.187
277.012
286.845
296.645
306.493
316.332
326.232
336.131
346.093
356.052
366.069
376.071
386.124
396.15
406.211
416.23
426.273
436.255
446.235
456.126
465.991
475.733
485.414
494.932
504.356
513.575
522.658
531.493
540.152
548.527
556.697
564.563
572.216
579.583
586.778
593.782
600.755
607.732
614.885
621.953
628.619
634.818
640.56
645.721
650.327
654.332
656.865
658.441
658.971
657.689
657.234
655.682
653.288
649.952
645.257
639.58
632.678
624.693
615.591
605.418
594.22
582.06
569.073
555.418
541.15
526.144
510.557
494.776
478.923
463.084
447.355
431.801
416.466
401.332
386.332
371.803
357.737
344.166
331.1
318.553
306.528
295.031
284.096
273.842
264.621
256.29
248.526
241.188
234.211
227.574
221.247
215.222
209.474
203.996
198.762
193.768
188.991
184.423
180.026
175.731
171.555
167.529
163.651
159.919
156.319
152.844
149.489
146.257
143.124
140.077
137.105
134.209
131.387
128.642
125.969
123.361
120.809
118.316
115.877
113.499
111.179
108.92
106.721
104.583
102.502
100.475
98.4936
96.5528
94.637
92.7323
90.8227
88.8877
86.9
84.8238
82.6483
80.2523
77.7518
74.7636
71.8676
68.1
65.3426
61.2997
61.2907
52.6518
36.0708
30.1816
27.3359
25.7299
24.8916
24.6121
24.7815
25.3742
26.4822
28.0962
30.3367
33.5847
38.0512
43.773
50.9902
59.6664
69.3918
79.7727
90.3373
100.663
109.925
118.563
126.722
134.574
142.278
149.793
157.435
165.241
172.924
180.428
187.705
194.627
202.425
210.387
218.476
226.669
234.939
243.254
251.591
259.921
268.233
276.503
284.727
292.887
300.986
309.012
316.966
324.821
332.579
340.228
347.772
355.197
362.508
369.693
376.757
383.687
390.49
397.154
403.688
410.08
416.345
422.472
428.48
434.362
440.139
445.811
451.404
456.924
462.401
467.848
473.297
478.76
484.258
489.781
495.311
500.744
506.011
511.08
515.916
520.466
524.679
528.478
531.736
534.459
536.435
537.915
538.66
539.238
538.76
537.43
534.982
531.524
527.004
521.446
514.846
507.24
498.668
489.201
478.924
467.945
456.345
444.198
431.631
418.798
405.811
392.758
379.73
366.792
354.009
341.415
329.052
317.014
305.338
294.046
283.155
272.67
262.602
252.956
243.756
235.051
226.934
219.373
212.267
205.539
199.146
193.063
187.27
181.753
176.495
171.483
166.701
162.137
157.777
153.609
149.614
145.765
142.05
138.473
135.029
131.714
128.508
125.391
122.377
119.467
116.65
113.914
111.246
108.646
106.115
103.65
101.246
98.8999
96.6048
94.3594
92.1623
90.0133
87.9111
85.8556
83.8465
81.8833
79.9634
78.0843
76.2411
74.4286
72.6384
70.8613
69.0849
67.2966
65.4785
63.6062
61.6654
59.5996
57.4384
55.0281
52.5952
49.728
47.24
44.0677
42.6071
73.6539
46.4425
38.0833
34.4567
32.6281
31.7853
31.6632
32.1879
33.4066
35.4078
38.3285
42.3424
47.6078
54.245
62.2119
71.2777
80.9699
90.6483
99.7061
107.756
114.721
120.754
126.268
131.572
137.01
142.734
148.833
155.238
161.887
168.915
176.185
183.674
191.394
199.426
207.624
215.93
224.297
232.688
241.066
249.403
257.673
265.856
273.934
281.895
289.727
297.423
304.975
312.377
319.623
326.71
333.634
340.397
346.994
353.428
359.697
365.807
371.757
377.556
383.206
388.718
394.097
399.358
404.51
409.571
414.554
419.48
424.365
429.231
434.096
438.982
443.907
448.886
453.93
459.043
464.222
469.454
474.677
479.859
484.97
489.975
494.829
499.483
503.873
507.927
511.576
514.732
517.362
519.396
520.49
521.092
521.033
519.708
517.304
513.809
509.212
503.522
496.759
488.971
480.222
470.594
460.184
449.092
437.424
425.299
412.843
400.165
387.369
374.548
361.784
349.148
336.7
324.496
312.596
301.037
289.844
279.035
268.625
258.626
249.052
239.918
231.245
223.055
215.334
208.036
201.114
194.536
188.279
182.323
176.652
171.251
166.105
161.198
156.517
152.049
147.779
143.694
139.775
136.009
132.39
128.911
125.565
122.339
119.222
116.212
113.304
110.493
107.763
105.091
102.489
99.9598
97.494
95.0881
92.7387
90.4407
88.1923
85.9909
83.8346
81.721
79.6491
77.6182
75.6271
73.6738
71.7562
69.8705
68.0125
66.1762
64.3542
62.5372
60.715
58.8726
56.9927
55.0596
53.0393
50.9325
48.6678
46.337
43.7697
41.3353
38.602
36.5543
94.2795
57.5564
47.3945
43.2203
41.3088
40.6151
40.7776
41.7714
43.6414
46.4834
50.4007
55.4627
61.6555
68.8376
76.7096
84.8399
92.7395
99.9899
106.369
111.916
116.837
121.532
126.311
131.323
136.746
142.547
148.859
155.564
162.592
169.955
177.626
185.577
193.786
202.23
210.83
219.525
228.267
237.017
245.74
254.403
262.979
271.447
279.784
287.976
296.008
303.87
311.553
319.049
326.354
333.466
340.382
347.105
353.629
359.957
366.092
372.039
377.803
383.394
388.82
394.094
399.227
404.236
409.138
413.951
418.695
423.393
428.065
432.735
437.424
442.153
446.943
451.81
456.767
461.824
466.983
472.24
477.571
482.958
488.377
493.797
499.176
504.467
509.607
514.523
519.13
523.334
527.046
530.157
532.568
533.922
534.791
534.488
533.023
530.374
526.517
521.45
515.186
507.769
499.259
489.741
479.314
468.089
456.188
443.735
430.863
417.69
404.336
390.905
377.498
364.197
351.08
338.208
325.639
313.413
301.566
290.125
279.111
268.539
258.419
248.76
239.568
230.845
222.579
214.74
207.299
200.227
193.503
187.106
181.019
175.225
169.708
164.451
159.44
154.659
150.095
145.734
141.559
137.558
133.72
130.035
126.496
123.09
119.809
116.645
113.593
110.646
107.793
105.02
102.33
99.7183
97.167
94.6752
92.2432
89.8634
87.5346
85.2531
83.0155
80.8189
78.6617
76.5428
74.4609
72.414
70.4001
68.4163
66.4591
64.5235
62.6034
60.6912
58.7786
56.8489
54.8915
52.8916
50.8251
48.6825
46.4262
44.0937
41.6165
39.1726
36.6074
34.3115
113.692
69.6813
57.8155
53.1944
51.2603
50.6932
51.0521
52.3181
54.49
57.6063
61.6803
66.6548
72.3744
78.5858
84.9707
91.2104
97.0623
102.421
107.258
111.848
116.374
121.062
126.021
131.448
137.286
143.541
150.277
157.464
165.057
173.003
181.259
189.787
198.541
207.473
216.538
225.696
234.907
244.134
253.34
262.493
271.563
280.524
289.353
298.029
306.534
314.855
322.977
330.893
338.592
346.07
353.32
360.341
367.134
373.703
380.051
386.186
392.112
397.842
403.385
408.755
413.968
419.041
423.992
428.844
433.617
438.338
443.029
447.716
452.424
457.179
462.004
466.922
471.953
477.112
482.407
487.841
493.419
499.134
504.97
510.899
516.885
522.877
528.813
534.611
540.18
545.412
550.193
554.399
557.899
560.567
562.044
562.754
562.207
560.35
557.156
552.606
546.709
539.499
531.036
521.406
510.715
499.086
486.65
473.549
459.925
445.916
431.655
417.265
402.86
388.539
374.387
360.481
346.886
333.656
320.834
308.453
296.536
285.099
274.151
263.695
253.734
244.261
235.262
226.716
218.597
210.881
203.545
196.569
189.934
183.622
177.614
171.893
166.442
161.246
156.289
151.556
147.031
142.702
138.555
134.579
130.764
127.098
123.573
120.179
116.909
113.756
110.71
107.762
104.907
102.139
99.4486
96.8307
94.2788
91.7771
89.3281
86.9267
84.5684
82.2504
79.9708
77.7284
75.5216
73.3487
71.2079
69.0966
67.0116
64.9489
62.9032
60.8681
58.8363
56.7932
54.7307
52.6336
50.4825
48.2649
45.9585
43.5781
41.0992
38.6132
36.0856
33.6415
131.31
81.3617
68.1368
63.1969
61.2481
60.7269
61.1081
62.3399
64.3583
67.142
70.6435
74.7577
79.3187
84.1238
88.9766
93.7333
98.3376
102.828
107.208
111.637
116.333
121.347
126.715
132.561
138.915
145.744
153.003
160.652
168.666
177.014
185.665
194.585
203.738
213.085
222.587
232.208
241.908
251.652
261.401
271.124
280.786
290.358
299.813
309.127
318.276
327.243
336.009
344.562
352.888
360.979
368.827
376.429
383.781
390.884
397.739
404.352
410.728
416.875
422.804
428.527
434.06
439.42
444.626
449.7
454.665
459.548
464.374
469.174
473.976
478.811
483.709
488.701
493.815
499.078
504.512
510.134
515.957
521.982
528.202
534.597
541.136
547.769
554.433
561.046
567.507
573.701
579.498
584.757
589.33
593.072
595.694
597.085
597.483
596.418
593.877
589.829
584.273
577.231
568.764
558.958
547.926
535.8
522.725
508.86
494.359
479.383
464.076
448.583
433.027
417.529
402.188
387.099
372.336
357.965
344.031
330.575
317.619
305.181
293.271
281.891
271.038
260.706
250.878
241.536
232.656
224.216
216.191
208.563
201.308
194.408
187.844
181.595
175.644
169.974
164.568
159.41
154.483
149.774
145.267
140.952
136.815
132.846
129.033
125.367
121.839
118.441
115.164
111.999
108.939
105.978
103.107
100.321
97.6112
94.9693
92.3845
89.8453
87.3472
84.888
82.4667
80.0823
77.7334
75.4184
73.1355
70.8824
68.6561
66.4531
64.2689
62.0976
59.9326
57.7629
55.578
53.3646
51.1066
48.7912
46.4033
43.9488
41.4221
38.8742
36.3208
33.7642
146.163
91.3981
77.072
71.8878
69.904
69.3609
69.6278
70.6139
72.2113
74.373
77.0488
80.1613
83.6091
87.2856
91.1063
95.0275
99.0553
103.231
107.564
112.153
117.092
122.464
128.295
134.584
141.311
148.464
156.018
163.954
172.248
180.879
189.823
199.054
208.541
218.252
228.154
238.211
248.388
258.648
268.955
279.272
289.566
299.804
309.953
319.987
329.877
339.601
349.135
358.462
367.564
376.428
385.042
393.398
401.488
409.309
416.859
424.139
431.151
437.903
444.4
450.655
456.68
462.491
468.106
473.547
478.836
484.002
489.072
494.078
499.053
504.032
509.053
514.151
519.365
524.731
530.282
536.046
542.047
548.296
554.796
561.537
568.495
575.628
582.874
590.152
597.361
604.377
611.06
617.255
622.796
627.509
631.215
633.424
634.624
634.322
632.421
628.871
623.654
616.786
608.32
598.343
586.975
574.356
560.646
546.013
530.633
514.677
498.312
481.697
464.981
448.298
431.766
415.489
399.552
384.025
368.963
354.406
340.383
326.912
314.004
301.662
289.881
278.654
267.966
257.798
248.128
238.934
230.192
221.88
213.976
206.459
199.308
192.502
186.023
179.851
173.968
168.358
163.003
157.887
152.997
148.317
143.835
139.538
135.415
131.455
127.648
123.986
120.458
117.056
113.772
110.598
107.526
104.55
101.661
98.8517
96.1125
93.4289
90.7818
88.1718
85.5996
83.0646
80.5658
78.1015
75.6701
73.2691
70.8961
68.5476
66.2196
63.9069
61.6031
59.299
56.9841
54.646
52.2705
49.8456
47.3603
44.8171
42.2187
39.597
36.9893
34.337
156.966
98.7399
83.5963
78.2275
76.2045
75.6234
75.7591
76.484
77.6702
79.2735
81.2709
83.6352
86.3323
89.3267
92.5942
96.1264
99.9336
104.036
108.473
113.285
118.506
124.149
130.223
136.725
143.643
150.967
158.685
166.783
175.247
184.063
193.211
202.672
212.421
222.432
232.674
243.116
253.724
264.463
275.296
286.188
297.102
308.005
318.861
329.638
340.306
350.834
361.197
371.372
381.335
391.068
400.554
409.779
418.732
427.403
435.785
443.876
451.673
459.179
466.396
473.334
480
486.408
492.575
498.52
504.264
509.834
515.259
520.572
525.807
531.003
536.2
541.441
546.77
552.231
557.866
563.715
569.809
576.172
582.819
589.75
596.951
604.39
612.013
619.743
627.481
635.102
642.46
649.389
655.705
661.225
665.745
668.926
670.689
671.077
669.755
666.663
661.764
655.067
646.617
636.5
624.839
611.78
597.496
582.166
565.982
549.132
531.806
514.179
496.417
478.664
461.052
443.69
426.672
410.075
393.961
378.371
363.34
348.887
335.025
321.757
309.081
296.987
285.464
274.491
264.049
254.115
244.666
235.678
227.13
218.998
211.262
203.898
196.888
190.211
183.848
177.781
171.992
166.465
161.183
156.132
151.298
146.667
142.227
137.967
133.875
129.941
126.156
122.51
118.994
115.601
112.32
109.146
106.069
103.081
100.174
97.3334
94.5337
91.7695
89.0438
86.3568
83.7074
81.0938
78.5141
75.9659
73.4468
70.9536
68.4824
66.0286
63.5861
61.1466
58.7001
56.2351
53.7386
51.1998
48.6104
45.9718
43.2907
40.5894
37.9136
35.1765
163.478
102.888
87.2293
81.743
79.7126
79.1362
79.237
79.8415
80.8129
82.1156
83.7516
85.7309
88.0617
90.7471
93.7905
97.1943
100.965
105.112
109.65
114.59
119.94
125.702
131.875
138.455
145.436
152.815
160.586
168.743
177.279
186.183
195.445
205.047
214.973
225.198
235.699
246.446
257.408
268.552
279.842
291.243
302.721
314.24
325.763
337.255
348.682
360.009
371.207
382.247
393.101
403.747
414.16
424.323
434.216
443.826
453.14
462.15
470.848
479.231
487.298
495.052
502.497
509.644
516.502
523.091
529.427
535.535
541.442
547.18
552.784
558.291
563.745
569.191
574.675
580.247
585.957
591.851
597.971
604.351
611.016
617.979
625.237
632.769
640.53
648.454
656.445
664.384
672.124
679.492
686.304
692.35
697.424
701.26
703.542
704.407
703.511
700.759
696.101
689.529
681.081
670.84
658.928
645.505
630.748
614.854
598.027
580.473
562.389
543.963
525.365
506.752
488.26
470.005
452.088
434.594
417.588
401.117
385.216
369.908
355.206
341.117
327.638
314.763
302.48
290.773
279.621
269.003
258.896
249.276
240.122
231.409
223.116
215.221
207.702
200.539
193.713
187.204
180.995
175.067
169.405
163.992
158.814
153.857
149.107
144.551
140.179
135.98
131.942
128.056
124.312
120.701
117.214
113.843
110.578
107.412
104.334
101.33
98.3733
95.4554
92.5792
89.7443
86.9493
84.1919
81.4698
78.7805
76.1213
73.4891
70.8802
68.2903
65.7136
63.1425
60.5678
57.9784
55.3626
52.7109
50.017
47.2825
44.516
41.7348
38.9873
36.1738
165.832
104.222
88.1234
82.5214
80.5297
80.0372
80.2505
80.9347
81.9423
83.237
84.8293
86.7427
88.9998
91.6109
94.6145
98.0119
101.803
105.99
110.576
115.559
120.942
126.721
132.903
139.459
146.399
153.73
161.452
169.568
178.075
186.968
196.242
205.885
215.884
226.222
236.876
247.823
259.034
270.478
282.12
293.923
305.862
317.906
330.015
342.149
354.27
366.343
378.332
390.205
401.933
413.486
424.837
435.959
446.83
457.429
467.739
477.743
487.43
496.79
505.816
514.505
522.856
530.874
538.564
545.939
553.014
559.807
566.341
572.646
578.753
584.698
590.523
596.271
601.991
607.733
613.55
619.494
625.614
631.951
638.539
645.402
652.547
659.963
667.618
675.453
683.384
691.298
699.055
706.486
713.401
719.597
724.85
728.917
731.464
732.509
731.776
729.143
724.549
717.979
709.465
699.083
686.961
673.274
658.2
641.944
624.71
606.71
588.141
569.198
550.052
530.865
511.772
492.896
474.339
456.197
438.539
421.413
404.852
388.885
373.524
358.78
344.651
331.133
318.218
305.891
294.135
282.929
272.25
262.077
252.386
243.156
234.363
225.987
218.006
210.399
203.146
196.23
189.631
183.332
177.315
171.565
166.065
160.801
155.759
150.926
146.291
141.84
137.564
133.451
129.491
125.674
121.991
118.433
114.989
111.65
108.405
105.239
102.127
99.061
96.0422
93.0687
90.1379
87.2469
84.3928
81.5728
78.7837
76.0226
73.2858
70.5689
67.8665
65.1717
62.4757
59.7685
57.0395
54.2804
51.4867
48.6606
45.8117
42.9551
40.1395
37.2597
164.581
103.374
87.04
81.3793
79.4551
79.0868
79.4812
80.3473
81.5268
82.9754
84.7002
86.7252
89.0766
91.7729
94.8536
98.3086
102.139
106.345
110.926
115.88
121.21
126.917
133.01
139.468
146.304
153.524
161.133
169.137
177.536
186.332
195.521
205.098
215.055
225.378
236.052
247.055
258.365
269.954
281.79
293.841
306.121
318.572
331.151
343.819
356.534
369.259
381.952
394.584
407.125
419.541
431.798
443.864
455.71
467.312
478.646
489.691
500.426
510.836
520.908
530.633
540.002
549.016
557.672
565.978
573.941
581.574
588.896
595.928
602.697
609.236
615.58
621.769
627.847
633.864
639.871
645.922
652.067
658.352
664.818
671.492
678.39
685.509
692.824
700.286
707.821
715.328
722.677
729.71
736.248
742.086
747.019
750.8
753.16
753.948
752.983
750.125
745.32
738.544
729.833
719.283
707.02
693.189
677.979
661.587
644.217
626.071
607.344
588.222
568.878
549.466
530.123
510.964
492.09
473.615
455.614
438.125
421.182
404.813
389.035
373.857
359.283
345.309
331.935
319.15
306.937
295.276
284.148
273.531
263.406
253.749
244.541
235.76
227.385
219.397
211.776
204.505
197.565
190.939
184.609
178.559
172.772
167.235
161.932
156.85
151.977
147.301
142.809
138.491
134.335
130.332
126.47
122.74
119.131
115.633
112.233
108.913
105.654
102.452
99.3045
96.2063
93.154
90.1438
87.172
84.2352
81.3302
78.4535
75.6016
72.7702
69.9541
67.1468
64.3402
61.5252
58.6925
55.8352
52.9504
50.041
47.1174
44.1936
41.3181
38.3841
159.92
100.162
83.9845
78.3915
76.625
76.4598
77.1457
78.3281
79.8315
81.5932
83.6047
85.879
88.4353
91.2991
94.4847
98.005
101.866
106.069
110.616
115.506
120.74
126.32
132.245
138.518
145.152
152.155
159.54
167.318
175.495
184.077
193.068
202.467
212.27
222.472
233.061
244.023
255.34
266.988
278.938
291.161
303.623
316.304
329.169
342.183
355.31
368.509
381.742
395.025
408.291
421.494
434.596
447.559
460.344
472.927
485.284
497.384
509.199
520.708
531.891
542.731
553.214
563.333
573.079
582.452
591.451
600.082
608.356
616.287
623.894
631.203
638.239
645.037
651.632
658.068
664.39
670.649
676.893
683.166
689.507
695.948
702.503
709.173
715.935
722.747
729.543
736.236
742.707
748.817
754.409
759.284
763.192
765.831
767.085
766.845
764.956
761.319
755.888
748.639
739.603
728.854
716.509
702.707
687.615
671.41
654.279
636.404
617.965
599.135
580.073
560.921
541.81
522.84
504.099
485.708
467.736
450.234
433.241
416.781
400.875
385.536
370.767
356.567
342.95
329.905
317.419
305.474
294.052
283.135
272.704
262.74
253.225
244.139
235.462
227.175
219.262
211.707
204.492
197.599
191.012
184.714
178.689
172.923
167.401
162.109
157.035
152.167
147.492
142.998
138.674
134.509
130.493
126.614
122.861
119.222
115.681
112.223
108.839
105.521
102.262
99.0581
95.9026
92.791
89.719
86.6826
83.6781
80.702
77.7507
74.8198
71.9046
68.9988
66.0951
63.1852
60.2615
57.3184
54.3542
51.3731
48.3862
45.4066
42.4827
39.5087
152.954
95.3897
79.6646
74.2428
72.6197
72.6584
73.6196
75.1093
76.9438
79.0428
81.3817
83.9607
86.7941
89.8841
93.2396
96.8678
100.775
104.964
109.441
114.21
119.277
124.651
130.342
136.362
142.727
149.452
156.548
164.028
171.903
180.182
188.874
197.984
207.513
217.461
227.823
238.591
249.752
261.292
273.196
285.437
297.988
310.82
323.907
337.214
350.708
364.348
378.092
391.882
405.705
419.529
433.318
447.038
460.669
474.192
487.549
500.699
513.6
526.231
538.566
550.58
562.253
573.569
584.515
595.079
605.254
615.036
624.426
633.43
642.057
650.319
658.236
665.828
673.12
680.143
686.933
693.531
699.977
706.308
712.557
718.749
724.891
730.979
736.986
742.873
748.578
754.019
759.092
763.671
767.543
770.378
772.238
773.093
772.909
771.409
768.398
763.829
757.64
749.814
740.376
729.395
716.968
703.227
688.314
672.392
655.621
638.169
620.195
601.854
583.292
564.637
546.008
527.492
509.11
491.194
473.694
456.616
439.989
423.835
408.176
393.025
378.386
364.252
350.645
337.575
325.033
313.003
301.471
290.422
279.843
269.716
260.025
250.755
241.886
233.404
225.293
217.541
210.132
203.049
196.275
189.794
183.592
177.653
171.964
166.511
161.282
156.265
151.446
146.814
142.357
138.063
133.922
129.921
126.05
122.291
118.634
115.069
111.587
108.177
104.832
101.544
98.3072
95.1152
91.9631
88.8466
85.7615
82.7043
79.6712
76.658
73.6602
70.6721
67.687
64.6978
61.6981
58.6839
55.655
52.6165
49.58
46.5587
43.6005
40.6022
144.183
89.6456
74.6878
69.5453
68.0872
68.3248
69.5171
71.2785
73.4164
75.8338
78.486
81.3543
84.4354
87.7284
91.2371
94.964
98.9147
103.093
107.507
112.165
117.077
122.256
127.717
133.475
139.548
145.955
152.712
159.836
167.344
175.25
183.566
192.302
201.467
211.065
221.096
231.558
242.446
253.75
265.458
277.552
290.012
302.815
315.935
329.344
343.011
356.905
370.99
385.237
399.604
414.054
428.548
443.044
457.483
471.83
486.064
500.159
514.097
527.853
541.361
554.581
567.493
580.076
592.308
604.17
615.642
626.712
637.369
647.608
657.424
666.82
675.798
684.365
692.529
700.306
707.715
714.781
721.532
727.99
734.176
740.094
745.743
751.095
756.117
760.754
764.967
768.662
771.773
773.828
774.952
775.517
775.215
773.969
771.443
767.719
762.741
756.475
748.898
740.017
729.856
718.475
705.949
692.38
677.876
662.56
646.551
629.98
612.967
595.638
578.106
560.481
542.857
525.312
507.881
490.737
473.92
457.468
441.41
425.771
410.57
395.822
381.529
367.663
354.343
341.527
329.188
317.316
305.898
294.926
284.388
274.274
264.571
255.266
246.344
237.782
229.584
221.74
214.233
207.049
200.171
193.585
187.277
181.233
175.44
169.884
164.555
159.439
154.523
149.797
145.248
140.862
136.632
132.542
128.581
124.739
121.006
117.371
113.823
110.352
106.947
103.601
100.307
97.0578
93.8479
90.6727
87.5277
84.4093
81.3136
78.2367
75.1745
72.1218
69.0729
66.0216
62.9631
59.8947
56.8175
53.7377
50.6678
47.6206
44.6441
41.6383
134.175
83.2447
69.2886
64.5196
63.2545
63.675
65.0631
67.054
69.4558
72.1606
75.1083
78.263
81.6055
85.1235
88.8127
92.6704
96.6997
100.902
105.287
109.862
114.643
119.644
124.884
130.383
136.162
142.242
148.645
155.392
162.503
169.997
177.891
186.203
194.945
204.127
213.756
223.834
234.362
245.337
256.752
268.596
280.856
293.513
306.549
319.939
333.659
347.679
361.971
376.503
391.24
406.147
421.186
436.317
451.502
466.712
481.905
497.036
512.04
526.884
541.535
555.977
570.167
584.078
597.679
610.939
623.828
636.319
648.388
660.016
671.186
681.881
692.087
701.79
710.977
719.641
727.778
735.394
742.496
749.083
755.153
760.683
765.643
769.986
773.66
776.587
778.796
779.981
779.822
779.144
777.675
774.966
771.195
766.41
760.609
753.843
746.148
737.553
728.089
717.779
706.658
694.761
682.138
668.846
654.949
640.512
625.608
610.306
594.686
578.824
562.8
546.69
530.565
514.488
498.518
482.723
467.155
451.857
436.859
422.188
407.863
393.903
380.311
367.066
354.252
341.862
329.892
318.335
307.187
296.443
286.095
276.136
266.559
257.352
248.503
239.99
231.836
224.025
216.538
209.362
202.481
195.883
189.556
183.488
177.666
172.078
166.712
161.559
156.603
151.835
147.241
142.807
138.527
134.392
130.392
126.514
122.747
119.081
115.503
112.001
108.566
105.19
101.864
98.5818
95.3374
92.1255
88.9418
85.7825
82.644
79.5225
76.4145
73.3158
70.2212
67.1261
64.0266
60.9217
57.8138
54.7102
51.6242
48.5683
45.5902
42.5946
123.74
76.7881
64.0177
59.7141
58.69
59.3034
60.881
63.0875
65.7384
68.7225
71.9702
75.4317
79.0735
82.8713
86.8112
90.8863
95.1038
99.4416
103.906
108.509
113.265
118.191
123.311
128.644
134.216
140.052
146.175
152.61
159.384
166.515
174.018
181.94
190.288
199.075
208.312
218.007
228.166
238.791
249.881
261.431
273.432
285.874
298.743
312.021
325.688
339.721
354.097
368.788
383.763
398.992
414.441
430.073
445.852
461.74
477.699
493.685
509.661
525.566
541.355
556.944
572.34
587.529
602.467
617.108
631.409
645.325
658.824
671.864
684.418
696.443
707.908
718.767
728.988
738.525
747.356
755.453
762.796
769.362
775.098
779.952
783.857
786.755
788.574
789.114
788.461
786.458
783.405
778.934
773.163
766.134
757.998
748.919
739.062
728.583
717.621
706.281
694.64
682.739
670.602
658.233
645.643
632.829
619.799
606.55
593.093
579.435
565.6
551.613
537.512
523.334
509.127
494.928
480.78
466.725
452.804
439.049
425.491
412.153
399.058
386.225
373.666
361.393
349.429
337.791
326.487
315.519
304.892
294.607
284.662
275.055
265.786
256.847
248.23
239.91
231.922
224.249
216.882
209.807
203.014
196.49
190.226
184.212
178.435
172.883
167.549
162.422
157.483
152.727
148.14
143.722
139.463
135.349
131.367
127.508
123.757
120.104
116.536
113.042
109.611
106.236
102.908
99.6208
96.368
93.1445
89.9461
86.769
83.6098
80.4652
77.3327
74.2089
71.0896
67.9711
64.8511
61.7299
58.6114
55.5039
52.4215
49.3765
46.4158
43.4499
114.196
71.0216
59.4165
55.6377
54.933
55.8011
57.6415
60.1387
63.1157
66.4631
70.117
74.001
78.0646
82.2722
86.5981
91.0191
95.5083
100.075
104.734
109.498
114.38
119.399
124.574
129.928
135.486
141.273
147.316
153.639
160.271
167.235
174.553
182.236
190.319
198.825
207.77
217.17
227.033
237.367
248.175
259.458
271.21
283.427
296.1
309.217
322.766
336.729
351.089
365.823
380.907
396.316
412.018
427.984
444.177
460.561
477.096
493.738
510.428
527.105
543.745
560.321
576.791
593.094
609.197
625.045
640.578
655.751
670.502
684.791
698.552
711.738
724.273
736.102
747.141
757.332
766.603
774.908
782.188
788.371
793.367
797.076
799.422
800.316
799.729
797.236
793.319
787.837
780.514
771.483
760.91
749.006
736.05
722.349
708.211
693.911
679.681
665.688
652.031
638.752
625.841
613.26
600.957
588.875
576.95
565.12
553.326
541.52
529.666
517.744
505.749
493.688
481.576