/*--------------------------------*- C++ -*----------------------------------*\
  =========                 |
  \\      /  F ield         | OpenFOAM: The Open Source CFD Toolbox
   \\    /   O peration     | Website:  https://openfoam.org
    \\  /    A nd           | Version:  8
     \\/     M anipulation  |
\*---------------------------------------------------------------------------*/
FoamFile
{
    version     2.0;
    format      ascii;
    class       volScalarField;
    location    "65";
    object      k;
}
// * * * * * * * * * * * * * * * * * * * * * * * * * * * * * * * * * * * * * //

dimensions      [0 2 -2 0 0 0 0];

internalField   nonuniform List<scalar> 
12225
(
0.362794
0.34405
0.327705
0.309875
0.295373
0.283571
0.275508
0.270442
0.270544
0.272178
0.276603
0.281391
0.291039
0.297169
0.308777
0.31532
0.32987
0.326694
0.440261
0.468775
0.461632
0.448508
0.450532
0.458635
0.47501
0.499525
0.525648
0.554098
0.583313
0.60967
0.638375
0.659556
0.687302
0.701881
0.733561
0.737724
0.390394
0.417862
0.420232
0.416843
0.411643
0.40788
0.408121
0.41023
0.414958
0.421801
0.43169
0.440584
0.453097
0.462951
0.476241
0.48718
0.499606
0.514321
0.377037
0.38717
0.391461
0.391342
0.390264
0.387894
0.385698
0.384108
0.382987
0.383016
0.383563
0.384612
0.386852
0.388961
0.391907
0.395542
0.398467
0.404098
0.374432
0.376096
0.378423
0.378663
0.378272
0.377189
0.375496
0.373722
0.372031
0.370455
0.369318
0.368128
0.367533
0.366947
0.366721
0.366752
0.367039
0.367755
0.373779
0.372705
0.372658
0.37236
0.371766
0.370798
0.369545
0.368053
0.366559
0.364939
0.363519
0.362028
0.360752
0.359534
0.358425
0.357522
0.356588
0.356089
0.373775
0.37174
0.370387
0.369277
0.368229
0.367094
0.365899
0.364554
0.363209
0.36176
0.360378
0.358965
0.357617
0.356321
0.355056
0.35392
0.352758
0.351817
0.373819
0.371559
0.369634
0.367969
0.366493
0.365089
0.363755
0.362396
0.36107
0.359715
0.358392
0.357073
0.355781
0.354531
0.353298
0.352144
0.350989
0.349952
0.373833
0.371553
0.369449
0.36752
0.365769
0.364138
0.362624
0.361168
0.359778
0.358422
0.357108
0.355828
0.354579
0.353374
0.352192
0.351069
0.349961
0.348932
0.373832
0.37156
0.369418
0.367401
0.365522
0.363759
0.362113
0.360556
0.359084
0.357679
0.356334
0.355045
0.353801
0.35261
0.351455
0.350354
0.349281
0.348273
0.37383
0.371561
0.369413
0.367376
0.365452
0.363634
0.36192
0.360299
0.358764
0.357309
0.355924
0.354605
0.353345
0.352143
0.350989
0.349891
0.348831
0.347831
0.373828
0.371559
0.369409
0.367369
0.365434
0.3636
0.361861
0.360212
0.358648
0.357163
0.355752
0.354409
0.353131
0.351913
0.35075
0.349644
0.348583
0.347579
0.373828
0.371557
0.369406
0.367364
0.365427
0.363587
0.361839
0.36018
0.358602
0.357103
0.355675
0.354319
0.353026
0.351796
0.350623
0.349508
0.348442
0.347431
0.373827
0.371556
0.369402
0.36736
0.365421
0.363579
0.361829
0.360165
0.358583
0.357077
0.355644
0.354279
0.35298
0.351742
0.350563
0.34944
0.34837
0.347351
0.373826
0.371554
0.3694
0.367355
0.365415
0.363572
0.361822
0.360156
0.358573
0.357065
0.355631
0.354264
0.352963
0.351722
0.350542
0.349416
0.348344
0.347323
0.373826
0.371553
0.369397
0.367352
0.36541
0.363567
0.361815
0.36015
0.358565
0.357059
0.355623
0.354258
0.352956
0.351718
0.350536
0.349413
0.34834
0.34732
0.373826
0.371552
0.369395
0.367349
0.365407
0.363562
0.36181
0.360145
0.358561
0.357054
0.35562
0.354255
0.352955
0.351717
0.350539
0.349415
0.348346
0.347326
0.373826
0.371551
0.369394
0.367347
0.365404
0.363559
0.361808
0.360142
0.358559
0.357052
0.35562
0.354256
0.352959
0.351721
0.350545
0.349423
0.348356
0.347337
0.373825
0.37155
0.369393
0.367346
0.365404
0.363559
0.361808
0.360143
0.358561
0.357055
0.355625
0.354262
0.352967
0.351731
0.350557
0.349437
0.348372
0.347355
0.373825
0.37155
0.369394
0.367346
0.365406
0.363561
0.361812
0.360147
0.358568
0.357063
0.355636
0.354273
0.352981
0.351747
0.350576
0.349457
0.348395
0.34738
0.373825
0.371551
0.369394
0.367349
0.365408
0.363567
0.361817
0.360157
0.358577
0.357078
0.355649
0.354293
0.353
0.351773
0.350601
0.349489
0.348427
0.347418
0.373826
0.371552
0.369396
0.367353
0.365414
0.363575
0.36183
0.360174
0.358602
0.357108
0.355689
0.354341
0.353058
0.351838
0.350677
0.349572
0.34852
0.347517
0.373826
0.371553
0.369399
0.36736
0.365432
0.363608
0.361885
0.360255
0.358712
0.357248
0.35586
0.354538
0.353283
0.352085
0.350945
0.349855
0.348818
0.347822
0.373828
0.37155
0.369412
0.367419
0.36556
0.363826
0.3622
0.360667
0.359211
0.357823
0.356493
0.355218
0.353991
0.352812
0.351678
0.350586
0.34954
0.348529
0.373822
0.371553
0.369604
0.367895
0.366343
0.3649
0.363506
0.362139
0.360783
0.359442
0.358116
0.356813
0.355539
0.354298
0.353098
0.351935
0.350823
0.349746
0.373781
0.371989
0.371111
0.370266
0.369362
0.368319
0.367058
0.365645
0.364139
0.362599
0.361057
0.359554
0.358106
0.35672
0.35542
0.354183
0.35305
0.351965
0.374298
0.375565
0.377781
0.377858
0.377292
0.375889
0.373833
0.371645
0.3695
0.367481
0.36565
0.364062
0.362675
0.361488
0.360537
0.359725
0.359163
0.358647
0.378734
0.3944
0.398309
0.396582
0.392579
0.38762
0.383627
0.380438
0.378198
0.376775
0.376325
0.376546
0.377125
0.378327
0.379956
0.381822
0.384091
0.386258
0.408343
0.427517
0.422399
0.410997
0.402188
0.397772
0.398355
0.40083
0.405528
0.4124
0.42012
0.428701
0.437398
0.446449
0.455204
0.464072
0.472439
0.480855
0.366036
0.353406
0.34199
0.330201
0.318982
0.308381
0.299389
0.291664
0.28535
0.280283
0.276551
0.273724
0.272051
0.270879
0.270745
0.270979
0.271513
0.272572
0.0532492
0.0920376
0.117021
0.133994
0.144667
0.134674
0.132625
0.133129
0.13571
0.130927
0.129484
0.142275
0.143522
0.146237
0.150844
0.155743
0.1639
0.171106
0.177604
0.172064
0.166948
0.166889
0.169689
0.176159
0.188705
0.209545
0.237572
0.27088
0.307916
0.34742
0.387944
0.428106
0.46769
0.50646
0.543883
0.580209
0.615138
0.648999
0.681524
0.71314
0.743554
0.773249
0.801908
0.830038
0.857299
0.884205
0.910383
0.936352
0.961713
0.986982
1.01173
1.03647
1.06075
1.08509
1.10901
1.13303
1.15663
1.18035
1.20363
1.22702
1.24991
1.27287
1.29529
1.31772
1.3395
1.36122
1.38217
1.40296
1.42288
1.44251
1.4612
1.47949
1.49681
1.51372
1.52976
1.54556
1.5604
1.57449
1.58731
1.59923
1.60962
1.61879
1.62681
1.63081
1.63428
1.63705
1.63218
1.6313
1.62681
1.6212
1.61385
1.60369
1.59182
1.57738
1.56096
1.54233
1.52159
1.49881
1.47397
1.44733
1.41928
1.39022
1.36023
1.32941
1.29798
1.26613
1.23408
1.20194
1.16991
1.13806
1.10641
1.07372
1.04154
1.0101
0.9795
0.949741
0.920935
0.893065
0.866217
0.840454
0.816054
0.795303
0.778669
0.763307
0.748635
0.7345
0.720909
0.707803
0.695212
0.683081
0.671422
0.660184
0.649384
0.638976
0.628946
0.619341
0.609913
0.600593
0.591546
0.582777
0.574285
0.566066
0.558133
0.550451
0.543033
0.535799
0.528704
0.521746
0.514942
0.508284
0.501789
0.495456
0.489261
0.483175
0.477195
0.471321
0.465586
0.459978
0.4545
0.449154
0.443951
0.438885
0.433949
0.429131
0.424411
0.419749
0.415126
0.410488
0.405767
0.400913
0.395787
0.390386
0.384283
0.377889
0.369864
0.361683
0.350962
0.338657
0.326971
0.302416
0.0990478
0.151466
0.193415
0.220129
0.240071
0.252339
0.259968
0.264852
0.268464
0.271561
0.275131
0.278048
0.278668
0.2852
0.297666
0.315271
0.337013
0.363578
0.392987
0.430361
0.459778
0.486755
0.515078
0.546892
0.583021
0.623648
0.668694
0.717357
0.768355
0.819827
0.871266
0.922577
0.973792
1.0249
1.07542
1.1255
1.1749
1.22359
1.27141
1.31835
1.3643
1.40932
1.45333
1.49644
1.53862
1.58002
1.62062
1.66059
1.69991
1.73877
1.77715
1.81522
1.85297
1.89056
1.92799
1.96539
2.00274
2.04018
2.07766
2.11532
2.15308
2.19107
2.22921
2.26762
2.30616
2.34493
2.38379
2.4228
2.4618
2.50082
2.53966
2.57829
2.61647
2.65411
2.69092
2.72681
2.76181
2.79617
2.82962
2.86203
2.89308
2.9226
2.95023
2.97569
2.99888
3.01962
3.03724
3.05121
3.06162
3.06705
3.06977
3.06907
3.06328
3.05278
3.0376
3.01771
2.99313
2.96391
2.93001
2.89127
2.84793
2.80129
2.75178
2.69988
2.64594
2.59047
2.53385
2.47652
2.41879
2.36102
2.30344
2.24631
2.1899
2.13448
2.08017
2.02714
1.97547
1.92525
1.87651
1.82937
1.78398
1.74058
1.69902
1.65896
1.62033
1.58314
1.54736
1.51298
1.47994
1.44819
1.41767
1.38832
1.36008
1.3329
1.3067
1.28144
1.25675
1.23266
1.20931
1.18669
1.16478
1.14354
1.12297
1.10302
1.08365
1.06472
1.04613
1.02791
1.01008
0.992647
0.975606
0.95896
0.942623
0.926558
0.910775
0.895291
0.880137
0.865304
0.850787
0.836599
0.822745
0.809209
0.79596
0.782968
0.770188
0.757541
0.744955
0.732343
0.719578
0.706516
0.692992
0.678797
0.663559
0.647201
0.628754
0.60922
0.585826
0.56158
0.533533
0.497134
0.176714
0.23793
0.282668
0.312051
0.332563
0.347376
0.358656
0.368071
0.377047
0.386746
0.398204
0.412478
0.430689
0.455047
0.486419
0.524463
0.567673
0.613797
0.660203
0.704951
0.746421
0.786002
0.825344
0.866062
0.909479
0.956425
1.00719
1.06148
1.11889
1.17891
1.24104
1.30474
1.3694
1.43445
1.49967
1.56466
1.62903
1.6925
1.75482
1.81583
1.87542
1.93351
1.9901
2.04519
2.09882
2.15106
2.20196
2.25162
2.30011
2.34752
2.39393
2.43944
2.48411
2.52804
2.57129
2.61395
2.65608
2.69777
2.73906
2.78004
2.82074
2.86126
2.90163
2.94193
2.98219
3.02249
3.06285
3.10332
3.14393
3.18473
3.22572
3.26691
3.30827
3.34976
3.39128
3.43272
3.47391
3.51474
3.55496
3.59435
3.6326
3.66939
3.7043
3.73704
3.7672
3.79449
3.81821
3.83794
3.85247
3.86318
3.8677
3.87001
3.86469
3.85297
3.83498
3.81072
3.78031
3.74386
3.70163
3.65391
3.60113
3.54392
3.48285
3.41853
3.3515
3.28237
3.21165
3.13989
3.06753
2.99503
2.92274
2.85108
2.78031
2.71074
2.64255
2.57592
2.51095
2.44776
2.3864
2.32702
2.26976
2.21475
2.16188
2.11097
2.06188
2.01458
1.96902
1.92516
1.88295
1.84233
1.80322
1.76557
1.72929
1.69431
1.66056
1.62797
1.59638
1.56573
1.53602
1.5072
1.47924
1.45209
1.42572
1.40009
1.37516
1.35074
1.32671
1.30318
1.28016
1.25763
1.23561
1.21409
1.19293
1.1721
1.15163
1.13156
1.11191
1.09265
1.07376
1.05528
1.0372
1.0195
1.00214
0.985097
0.968298
0.951672
0.935136
0.918579
0.90187
0.88485
0.867311
0.849002
0.829563
0.808727
0.785751
0.760968
0.732814
0.702643
0.669525
0.636804
0.248499
0.319383
0.368997
0.402493
0.426399
0.444445
0.459174
0.472607
0.486519
0.502547
0.522161
0.546694
0.577259
0.614495
0.658022
0.706306
0.756896
0.807102
0.854849
0.899477
0.941842
0.983886
1.02771
1.075
1.12684
1.18363
1.24526
1.3112
1.38074
1.45306
1.52747
1.60326
1.67983
1.75669
1.83336
1.90941
1.9845
2.05834
2.1307
2.20143
2.2704
2.33757
2.4029
2.46639
2.52806
2.58795
2.64612
2.70263
2.75755
2.81096
2.86293
2.91355
2.96288
3.01103
3.05807
3.10409
3.14917
3.1934
3.23687
3.27968
3.32191
3.36366
3.40503
3.44613
3.48704
3.52788
3.56873
3.60969
3.65084
3.69227
3.73403
3.77617
3.8187
3.86162
3.90485
3.94831
3.99187
4.03538
4.07863
4.12136
4.16326
4.20398
4.24312
4.28025
4.3149
4.34658
4.37464
4.39857
4.41769
4.43161
4.43846
4.44253
4.43887
4.42771
4.40923
4.38349
4.35058
4.31067
4.26404
4.21108
4.15228
4.08823
4.01955
3.9469
3.87096
3.79238
3.7118
3.62984
3.54706
3.46398
3.38108
3.29879
3.21747
3.13743
3.05891
2.9821
2.90717
2.83428
2.76355
2.69511
2.62905
2.56541
2.50413
2.4451
2.38819
2.33334
2.28049
2.22958
2.18055
2.13332
2.08783
2.04398
2.00171
1.96092
1.92154
1.88348
1.84664
1.81094
1.77633
1.74275
1.71016
1.67849
1.64769
1.61773
1.58856
1.56009
1.53225
1.505
1.47836
1.45229
1.4268
1.40187
1.37729
1.35308
1.32931
1.306
1.28317
1.26075
1.23875
1.21718
1.19607
1.17534
1.15498
1.13496
1.1152
1.09563
1.07617
1.05669
1.03706
1.01713
0.996657
0.975386
0.952943
0.928977
0.902871
0.874584
0.843209
0.809245
0.773819
0.729118
0.318887
0.402583
0.459433
0.49879
0.527368
0.549317
0.567599
0.584628
0.602552
0.623261
0.648305
0.678757
0.71503
0.756713
0.802534
0.850624
0.899014
0.946284
0.992048
1.03711
1.08311
1.13186
1.18482
1.24286
1.30619
1.37458
1.44744
1.52409
1.60377
1.68574
1.76935
1.85399
1.93914
2.02437
2.10924
2.19339
2.27649
2.35828
2.43854
2.5171
2.59382
2.66862
2.74143
2.81222
2.88096
2.94769
3.0124
3.07515
3.13597
3.19493
3.25207
3.30748
3.36121
3.41335
3.46398
3.51319
3.56108
3.60773
3.65325
3.69775
3.74134
3.78414
3.82627
3.86786
3.90905
3.94996
3.99072
4.03147
4.07234
4.11344
4.15487
4.19672
4.23907
4.28195
4.32535
4.36925
4.41356
4.45817
4.50289
4.54748
4.59166
4.63506
4.67726
4.7178
4.75612
4.79165
4.82372
4.85168
4.87488
4.89271
4.90284
4.90849
4.90801
4.89879
4.88141
4.85595
4.82244
4.78109
4.73215
4.67603
4.61326
4.54444
4.47024
4.39139
4.30863
4.22268
4.13429
4.04414
3.9529
3.86116
3.76947
3.6783
3.58808
3.49915
3.41183
3.32637
3.243
3.16191
3.08322
3.00704
2.93344
2.86243
2.79399
2.72801
2.6644
2.60307
2.54396
2.487
2.4321
2.3792
2.3282
2.27903
2.23159
2.18579
2.14156
2.09878
2.05739
2.01728
1.9784
1.94068
1.90406
1.86846
1.83385
1.80016
1.76735
1.73535
1.7041
1.67357
1.6437
1.6145
1.58593
1.55797
1.53055
1.50363
1.47722
1.45135
1.42601
1.40107
1.37654
1.35248
1.3289
1.3057
1.28287
1.26038
1.23816
1.21612
1.19419
1.17225
1.15017
1.12776
1.10482
1.08106
1.0561
1.02955
1.00086
0.969789
0.935751
0.898872
0.860604
0.812614
0.385265
0.482467
0.549959
0.597209
0.631674
0.658081
0.679791
0.699532
0.71967
0.742178
0.768521
0.799512
0.835214
0.874991
0.91774
0.962285
1.00779
1.05408
1.10165
1.15158
1.20505
1.26304
1.3261
1.39431
1.46739
1.54482
1.62596
1.7102
1.79691
1.88553
1.97554
2.06648
2.1579
2.24943
2.34068
2.43131
2.52103
2.60957
2.69669
2.7822
2.86593
2.94775
3.02755
3.10526
3.18081
3.25418
3.32535
3.39431
3.46108
3.52568
3.58816
3.64855
3.70691
3.7633
3.8178
3.87048
3.92144
3.97076
4.01855
4.06494
4.11002
4.15394
4.19683
4.23884
4.28012
4.32083
4.36112
4.40117
4.44114
4.48118
4.52146
4.56211
4.60327
4.64504
4.68748
4.73064
4.77449
4.81897
4.86396
4.90925
4.95459
4.99963
5.04396
5.08707
5.12841
5.16731
5.20306
5.23492
5.26213
5.28393
5.29902
5.3071
5.30969
5.30333
5.28823
5.26434
5.23167
5.19033
5.14059
5.08284
5.01761
4.94553
4.86731
4.78374
4.69561
4.60374
4.50892
4.41195
4.31354
4.21437
4.11505
4.01612
3.91807
3.82133
3.72628
3.63323
3.54243
3.45407
3.3683
3.28522
3.20488
3.12731
3.05246
2.98026
2.91062
2.84347
2.77873
2.7163
2.65612
2.59809
2.54213
2.48814
2.43603
2.3857
2.33707
2.29003
2.2445
2.20038
2.15762
2.11612
2.07582
2.03666
1.99858
1.96151
1.92541
1.89023
1.85589
1.82236
1.78958
1.75754
1.7262
1.69552
1.66547
1.63602
1.60715
1.57887
1.55119
1.52403
1.49739
1.47126
1.44564
1.42034
1.39539
1.3708
1.34644
1.32226
1.29819
1.27408
1.24982
1.22524
1.2001
1.17413
1.14693
1.11809
1.0871
1.05361
1.0172
0.977808
0.936688
0.886788
0.445396
0.556203
0.634776
0.690499
0.731314
0.762346
0.78721
0.808811
0.82964
0.851751
0.876672
0.905305
0.937929
0.974332
1.01407
1.05675
1.10226
1.15084
1.203
1.25933
1.32034
1.38627
1.4571
1.53253
1.61215
1.69548
1.782
1.87123
1.96268
2.05592
2.15053
2.24613
2.34236
2.43887
2.53533
2.63141
2.72682
2.82128
2.91455
3.00639
3.09661
3.18503
3.2715
3.35589
3.43811
3.51806
3.5957
3.67097
3.74385
3.81433
3.88242
3.94812
4.01146
4.0725
4.13127
4.18784
4.24228
4.29468
4.34513
4.39374
4.44063
4.48592
4.52976
4.57231
4.61371
4.65417
4.69384
4.73294
4.77165
4.81019
4.84875
4.88754
4.92675
4.96654
5.00708
5.04845
5.09074
5.13394
5.178
5.22278
5.26808
5.31361
5.35896
5.40365
5.44709
5.48861
5.52744
5.56278
5.59377
5.61954
5.63922
5.65075
5.65672
5.65389
5.64189
5.62054
5.58976
5.54959
5.50025
5.44211
5.37569
5.30165
5.2207
5.13369
5.04145
4.9449
4.84487
4.74224
4.63778
4.53226
4.42637
4.32074
4.21594
4.11245
4.01068
3.91099
3.81364
3.71886
3.62679
3.53755
3.45118
3.36771
3.2871
3.20931
3.13424
3.06181
2.99195
2.92457
2.85958
2.79689
2.7364
2.67802
2.62164
2.56716
2.5145
2.46355
2.41422
2.36643
2.32008
2.27511
2.23144
2.189
2.14772
2.10756
2.06845
2.03034
1.99317
1.95689
1.92146
1.88683
1.85296
1.81983
1.7874
1.75562
1.72449
1.694
1.66415
1.6349
1.60623
1.57811
1.55052
1.52336
1.49661
1.47021
1.44401
1.41795
1.39198
1.36595
1.33975
1.3132
1.28608
1.2581
1.22886
1.19793
1.16481
1.12913
1.0905
1.04882
1.00502
0.953374
0.495372
0.61788
0.706562
0.770348
0.817413
0.85309
0.881113
0.904477
0.925785
0.947239
0.970587
0.997064
1.0274
1.06193
1.10075
1.14389
1.19144
1.24355
1.30039
1.36207
1.4286
1.49984
1.57555
1.65539
1.73896
1.82586
1.91568
2.00803
2.10256
2.19891
2.29677
2.39581
2.49571
2.59617
2.69688
2.79752
2.89781
2.99746
3.09621
3.19379
3.28998
3.38457
3.47735
3.56817
3.65687
3.74332
3.82742
3.90907
3.98822
4.0648
4.13878
4.21014
4.27886
4.34498
4.40849
4.46944
4.52788
4.58387
4.63749
4.68883
4.73798
4.78508
4.83025
4.87366
4.91546
4.95584
4.995
5.03315
5.07053
5.10736
5.1439
5.1804
5.2171
5.25425
5.29207
5.33075
5.37043
5.41121
5.45312
5.4961
5.54003
5.58467
5.62969
5.67463
5.71894
5.76192
5.80281
5.84075
5.87481
5.90405
5.92753
5.94344
5.9521
5.95328
5.94484
5.92665
5.8985
5.86038
5.81242
5.75496
5.68849
5.61365
5.5312
5.44197
5.34689
5.24686
5.14283
5.03572
4.92643
4.81581
4.70461
4.59353
4.48318
4.37409
4.2667
4.16139
4.05847
3.95816
3.86065
3.76606
3.67443
3.5858
3.50014
3.4174
3.33751
3.2604
3.18598
3.11416
3.04485
2.97797
2.9134
2.85106
2.79082
2.73259
2.67628
2.62178
2.56899
2.51783
2.46822
2.42008
2.37332
2.32788
2.2837
2.24071
2.19886
2.15808
2.11833
2.07955
2.04169
2.00471
1.96857
1.93322
1.89864
1.86477
1.83161
1.79912
1.76731
1.73614
1.7056
1.67563
1.64621
1.61727
1.58876
1.56061
1.53273
1.50503
1.47742
1.44967
1.42175
1.39343
1.36451
1.33469
1.30355
1.27067
1.23555
1.19781
1.1571
1.11328
1.067
1.01362
0.532266
0.663414
0.760009
0.830587
0.883351
0.92366
0.955253
0.981146
1.00401
1.02617
1.04959
1.07583
1.10597
1.14071
1.18043
1.22529
1.27534
1.33055
1.39082
1.45598
1.52584
1.60011
1.67849
1.76066
1.84628
1.93502
2.02658
2.12066
2.21698
2.31528
2.41527
2.5167
2.61929
2.72275
2.8268
2.93114
3.03549
3.13956
3.24306
3.34572
3.44728
3.5475
3.64614
3.743
3.83788
3.93062
4.02105
4.10906
4.19451
4.27732
4.3574
4.43469
4.50915
4.58075
4.64946
4.7153
4.77828
4.83843
4.8958
4.95046
5.00248
5.05197
5.09905
5.14385
5.18654
5.2273
5.26632
5.30383
5.34007
5.37531
5.40981
5.44387
5.47779
5.51187
5.54639
5.58164
5.61782
5.65514
5.6937
5.73357
5.7747
5.81695
5.86006
5.90365
5.94722
5.99012
6.03158
6.07073
6.10661
6.13823
6.1645
6.18419
6.19581
6.20031
6.19537
6.1805
6.15538
6.11988
6.07404
6.01815
5.95263
5.87809
5.7953
5.70509
5.60842
5.50624
5.39961
5.28948
5.17685
5.06262
4.9476
4.8325
4.71799
4.60461
4.49286
4.38313
4.27576
4.171
4.06907
3.97007
3.8741
3.78116
3.69125
3.60434
3.52035
3.43922
3.36087
3.28522
3.21218
3.14164
3.07351
3.00768
2.94405
2.88251
2.82296
2.7653
2.70944
2.65529
2.60275
2.55176
2.50224
2.45412
2.40733
2.3618
2.31749
2.27433
2.23227
2.19125
2.15122
2.11214
2.07397
2.03665
2.00016
1.96445
1.92948
1.89523
1.86169
1.82883
1.7966
1.76497
1.7339
1.70332
1.67318
1.64341
1.61392
1.58462
1.55542
1.52615
1.49671
1.4668
1.43625
1.40474
1.37184
1.33712
1.30011
1.26043
1.21774
1.17189
1.12334
1.06826
0.553876
0.69079
0.792788
0.868449
0.926112
0.97103
1.00683
1.03644
1.06248
1.0873
1.11294
1.14108
1.17299
1.20951
1.25113
1.29805
1.35028
1.40768
1.47003
1.53708
1.60855
1.68414
1.76356
1.84653
1.93279
2.02208
2.11417
2.20885
2.30589
2.40509
2.50622
2.60905
2.71335
2.81887
2.92532
3.03245
3.13997
3.24758
3.355
3.46195
3.56815
3.67332
3.77721
3.87958
3.9802
4.07885
4.17535
4.26951
4.36117
4.4502
4.53646
4.61986
4.70029
4.7777
4.85202
4.92322
4.99126
5.05616
5.11791
5.17656
5.23214
5.28474
5.33444
5.38136
5.42564
5.46744
5.50695
5.54439
5.58
5.61405
5.64682
5.67863
5.7098
5.74069
5.77163
5.80297
5.83501
5.86802
5.90222
5.93775
5.97469
6.01299
6.0525
6.09293
6.13388
6.17477
6.21489
6.25338
6.28931
6.32163
6.34927
6.37107
6.38516
6.39195
6.39
6.37815
6.35602
6.32334
6.28007
6.22637
6.16263
6.0894
6.00741
5.91755
5.82075
5.71805
5.61047
5.49905
5.38478
5.26865
5.15149
5.03404
4.91696
4.80083
4.68618
4.57342
4.46292
4.35497
4.2498
4.14755
4.0483
3.95207
3.85888
3.76869
3.68146
3.59711
3.51559
3.4368
3.36068
3.28712
3.21603
3.14729
3.0808
3.01645
2.95415
2.8938
2.8353
2.77856
2.7235
2.67005
2.61812
2.56766
2.5186
2.47087
2.42441
2.37918
2.3351
2.29213
2.25022
2.20933
2.16939
2.13037
2.09224
2.05493
2.01842
1.98267
1.94764
1.91331
1.87963
1.84656
1.81404
1.78202
1.75042
1.71919
1.68823
1.65746
1.62677
1.59602
1.56508
1.53373
1.50173
1.46867
1.43413
1.39766
1.35885
1.31732
1.27277
1.22501
1.1744
1.11773
0.563085
0.701043
0.80533
0.884263
0.946015
0.995443
1.03599
1.07038
1.10106
1.13023
1.15984
1.19152
1.22656
1.2658
1.30979
1.35873
1.41264
1.47138
1.53473
1.60245
1.67426
1.74992
1.82917
1.9118
1.99759
2.08638
2.17799
2.27226
2.36904
2.46815
2.56943
2.67267
2.77769
2.88425
2.99211
3.10102
3.21071
3.32089
3.43129
3.54161
3.65156
3.76086
3.86924
3.97642
4.08215
4.18618
4.28828
4.38824
4.48585
4.58092
4.6733
4.76282
4.84936
4.9328
5.01303
5.08999
5.16358
5.23378
5.30054
5.36387
5.42376
5.48025
5.5334
5.58328
5.63001
5.67372
5.71456
5.75274
5.78848
5.82203
5.85368
5.88374
5.91254
5.94046
5.96789
5.99519
6.02276
6.05092
6.07998
6.11018
6.1417
6.17459
6.20881
6.2442
6.28046
6.31714
6.35367
6.3892
6.42284
6.45363
6.48048
6.50221
6.51731
6.52522
6.52488
6.51516
6.49544
6.46533
6.42469
6.37358
6.31231
6.2414
6.16153
6.07352
5.97829
5.87685
5.77019
5.65934
5.54528
5.42916
5.31176
5.19381
5.07596
4.95884
4.84296
4.72878
4.61668
4.50699
4.39997
4.29578
4.19451
4.09619
4.00083
3.90843
3.81894
3.7323
3.64847
3.56739
3.48897
3.41313
3.33976
3.26876
3.20003
3.13347
3.06898
3.00646
2.94582
2.88697
2.82984
2.77436
2.72045
2.66805
2.61709
2.56753
2.51928
2.47231
2.42656
2.38197
2.33849
2.29608
2.25468
2.21426
2.17476
2.13614
2.09836
2.06137
2.02512
1.98958
1.9547
1.92043
1.8867
1.85345
1.82062
1.78812
1.75588
1.72379
1.69175
1.65964
1.62729
1.59453
1.5611
1.52664
1.49055
1.45243
1.41192
1.36865
1.32233
1.2728
1.22033
1.16222
0.560765
0.696403
0.800465
0.88086
0.945434
0.998904
1.04446
1.08437
1.12063
1.15519
1.18985
1.22605
1.26497
1.30742
1.35391
1.40471
1.45987
1.51931
1.58288
1.65039
1.72163
1.79642
1.87457
1.95593
2.04035
2.1277
2.21789
2.3108
2.40633
2.50437
2.60478
2.70741
2.81208
2.91862
3.0268
3.1364
3.24717
3.35885
3.47115
3.58379
3.69648
3.80895
3.9209
4.03204
4.1421
4.25081
4.3579
4.46313
4.56625
4.66704
4.7653
4.86083
4.95345
5.04301
5.12935
5.21236
5.2919
5.36789
5.44025
5.50892
5.57385
5.63505
5.69251
5.74628
5.79642
5.84302
5.88619
5.92611
5.96295
5.99694
6.02834
6.05743
6.08456
6.11007
6.13437
6.15786
6.18097
6.20409
6.22758
6.25176
6.27689
6.30311
6.33049
6.359
6.38845
6.41847
6.44842
6.47739
6.50505
6.53061
6.55312
6.57148
6.58449
6.59117
6.59048
6.5814
6.56312
6.53519
6.49733
6.44948
6.39183
6.32476
6.24884
6.16476
6.07337
5.97557
5.8723
5.76462
5.65324
5.53931
5.42376
5.30734
5.19075
5.07457
4.95934
4.84553
4.73355
4.62372
4.51644
4.41182
4.30996
4.2109
4.11466
4.02125
3.93063
3.84278
3.75764
3.67519
3.59536
3.51808
3.44323
3.37073
3.30047
3.23237
3.16632
3.10223
3.04002
2.9796
2.92092
2.86389
2.80846
2.75457
2.70216
2.65117
2.60154
2.55322
2.50616
2.4603
2.4156
2.37201
2.32948
2.28797
2.24742
2.2078
2.16904
2.13109
2.09391
2.05745
2.02164
1.98642
1.95174
1.91751
1.88367
1.85014
1.81681
1.7836
1.75039
1.71705
1.68342
1.64933
1.61453
1.57868
1.54111
1.50143
1.4593
1.41439
1.36644
1.31529
1.26118
1.20182
0.549605
0.68108
0.783312
0.864268
0.931173
0.987992
1.03737
1.08167
1.12294
1.16308
1.20317
1.24423
1.28727
1.33305
1.38205
1.43454
1.49063
1.55033
1.61356
1.68023
1.75022
1.82342
1.89974
1.97908
2.06138
2.14644
2.23428
2.32487
2.41817
2.51411
2.6126
2.71352
2.81675
2.92212
3.02947
3.13859
3.24926
3.36125
3.47429
3.58812
3.70246
3.81702
3.93152
4.04565
4.15914
4.27169
4.38301
4.49283
4.60088
4.70692
4.81069
4.91193
5.01046
5.10608
5.1986
5.28783
5.37361
5.4558
5.53425
5.60885
5.67952
5.7462
5.80884
5.86743
5.92197
5.9725
6.01908
6.06182
6.10087
6.13639
6.1686
6.19774
6.2241
6.24801
6.26986
6.29006
6.30905
6.32725
6.34506
6.36286
6.38093
6.39951
6.41867
6.43834
6.45808
6.4781
6.49828
6.51867
6.53863
6.55725
6.57364
6.58684
6.59574
6.59936
6.59674
6.58674
6.5686
6.54177
6.50587
6.4607
6.40634
6.343
6.27116
6.19137
6.10436
6.01095
5.91199
5.80851
5.70118
5.59179
5.48067
5.36838
5.25557
5.14281
5.03062
4.91946
4.80983
4.70193
4.59615
4.49277
4.3919
4.29359
4.1979
4.10482
4.01435
3.92645
3.84111
3.75836
3.67813
3.60034
3.52491
3.45174
3.38075
3.31185
3.24496
3.17998
3.11683
3.05545
2.99577
2.93775
2.88133
2.82645
2.77306
2.7211
2.67052
2.62127
2.57331
2.52658
2.48103
2.43663
2.39333
2.35107
2.30982
2.26951
2.2301
2.19151
2.1537
2.1166
2.08015
2.04428
2.00891
1.97398
1.93938
1.90504
1.87085
1.83672
1.80252
1.76813
1.73337
1.69807
1.66198
1.62475
1.58574
1.54457
1.50093
1.4545
1.40505
1.35245
1.29692
1.23652
0.527341
0.654332
0.754095
0.834661
0.902984
0.962893
1.01672
1.06617
1.11261
1.15723
1.20153
1.2467
1.29363
1.34262
1.39402
1.44804
1.50484
1.56447
1.62695
1.69229
1.76046
1.83145
1.90527
1.98193
2.06151
2.1439
2.22903
2.31689
2.40746
2.5007
2.59656
2.69498
2.79587
2.89911
3.00456
3.11207
3.22145
3.3325
3.44498
3.55867
3.67329
3.78858
3.90426
4.02005
4.13564
4.25076
4.36511
4.47839
4.59032
4.70064
4.80909
4.91553
5.01966
5.12117
5.21979
5.3153
5.40747
5.49613
5.58108
5.66211
5.73912
5.81199
5.8806
5.94489
6.0048
6.06029
6.11137
6.15808
6.20049
6.23871
6.27289
6.3032
6.32986
6.35316
6.37342
6.39105
6.40646
6.42011
6.43241
6.44376
6.45438
6.4642
6.47344
6.48228
6.49164
6.50122
6.51085
6.52033
6.5289
6.53642
6.54244
6.54624
6.54699
6.54409
6.53649
6.52319
6.50352
6.47681
6.44256
6.40043
6.35026
6.29209
6.22613
6.15276
6.07249
5.98598
5.89393
5.79717
5.69624
5.59254
5.48673
5.3795
5.27146
5.16319
5.05519
4.9479
4.84186
4.73718
4.63484
4.53468
4.43672
4.34101
4.24758
4.15647
4.06769
3.9812
3.89698
3.8151
3.73557
3.65832
3.58328
3.51038
3.43953
3.37066
3.3037
3.23856
3.17518
3.11348
3.05345
2.99504
2.9382
2.88288
2.82903
2.77661
2.72556
2.67585
2.62742
2.58024
2.53426
2.48944
2.44575
2.40312
2.36152
2.32088
2.28115
2.24225
2.20413
2.16672
2.12993
2.0937
2.05794
2.02256
1.98747
1.95257
1.91776
1.88292
1.84794
1.81266
1.77693
1.74054
1.70325
1.66468
1.62427
1.5817
1.53666
1.48885
1.43806
1.3842
1.32749
1.26629
0.498913
0.621266
0.718015
0.797473
0.866282
0.927986
0.984722
1.03801
1.08906
1.13883
1.18805
1.23728
1.2872
1.33846
1.39148
1.44647
1.5036
1.56296
1.62461
1.68859
1.75493
1.82367
1.89484
1.96845
2.04446
2.12288
2.20387
2.2875
2.37382
2.46286
2.55463
2.6491
2.74625
2.84601
2.94827
3.05293
3.15984
3.26882
3.3797
3.49225
3.60624
3.72143
3.83754
3.9543
4.07143
4.18862
4.30558
4.42201
4.53759
4.65201
4.76493
4.87594
4.9849
5.09154
5.19561
5.29684
5.39498
5.4898
5.58115
5.66889
5.75268
5.83229
5.90755
5.97832
6.04446
6.10588
6.16247
6.21421
6.26109
6.30316
6.34045
6.37306
6.40111
6.42479
6.44437
6.46017
6.47258
6.482
6.48886
6.49353
6.49634
6.49752
6.49726
6.49584
6.49273
6.48891
6.48434
6.47885
6.4725
6.46527
6.45717
6.44789
6.43702
6.42409
6.40842
6.38927
6.36595
6.33778
6.30414
6.26452
6.21853
6.16596
6.10674
6.04099
5.96897
5.89113
5.80797
5.72017
5.62837
5.53339
5.43592
5.33667
5.23621
5.13511
5.03387
4.93291
4.8327
4.73334
4.63563
4.53967
4.44556
4.35339
4.2632
4.17505
4.08894
4.00487
3.92273
3.843
3.76544
3.68996
3.61646
3.54491
3.47522
3.40735
3.34124
3.27682
3.21401
3.15275
3.09305
3.0349
2.97827
2.9231
2.86936
2.81701
2.76601
2.71633
2.66792
2.62074
2.57476
2.52995
2.48627
2.44368
2.40211
2.36152
2.32182
2.28297
2.24487
2.20747
2.17067
2.13439
2.09853
2.06299
2.02767
1.99246
1.95726
1.92193
1.88635
1.85038
1.81382
1.77647
1.73807
1.6982
1.65651
1.61267
1.56636
1.51732
1.46537
1.41045
1.35281
1.29107
0.465403
0.583081
0.676587
0.754445
0.823028
0.885684
0.944377
1.00041
1.05472
1.10804
1.16095
1.21395
1.26733
1.32135
1.37627
1.43229
1.48956
1.54821
1.60836
1.67012
1.7336
1.7989
1.86614
1.93542
2.00689
2.08071
2.157
2.23582
2.31728
2.40145
2.48838
2.57811
2.67064
2.76597
2.86404
2.96479
3.06812
3.17389
3.28196
3.39215
3.50425
3.61805
3.7333
3.84975
3.96712
4.08513
4.20348
4.32188
4.44002
4.55759
4.67429
4.7898
4.90379
5.01594
5.12595
5.23351
5.33831
5.44002
5.53827
5.63276
5.72333
5.80977
5.89185
5.96938
6.04221
6.11028
6.17327
6.23102
6.28341
6.33036
6.37181
6.40772
6.43811
6.46302
6.48258
6.49697
6.50659
6.512
6.51371
6.51226
6.50796
6.50006
6.48853
6.47385
6.45629
6.43641
6.41449
6.39092
6.36606
6.34039
6.31433
6.28812
6.26185
6.23545
6.20864
6.18096
6.15186
6.12066
6.08665
6.04912
6.00742
5.96102
5.90952
5.85271
5.79055
5.72319
5.65095
5.57423
5.49358
5.40956
5.3228
5.23388
5.14336
5.05177
4.95959
4.86725
4.77515
4.68362
4.59302
4.50361
4.41554
4.32895
4.24391
4.1605
4.07874
3.99865
3.92013
3.84353
3.76879
3.69586
3.6247
3.55525
3.48748
3.42135
3.3568
3.29379
3.23224
3.17208
3.11349
3.05637
3.00067
2.94636
2.89339
2.84175
2.7914
2.74231
2.69446
2.64781
2.60232
2.55797
2.51475
2.4726
2.43147
2.3913
2.35203
2.31356
2.27584
2.23879
2.2023
2.16627
2.1306
2.09517
2.05988
2.0246
1.98922
1.95361
1.91761
1.88109
1.84382
1.8056
1.76613
1.72515
1.68232
1.63734
1.58992
1.53982
1.4869
1.43114
1.37281
1.31082
0.430078
0.543726
0.634127
0.71014
0.777939
0.84074
0.900386
0.958021
1.01441
1.07007
1.12538
1.18062
1.23595
1.29153
1.34748
1.40392
1.46096
1.51873
1.57735
1.63698
1.69775
1.75984
1.82342
1.88866
1.95576
2.0249
2.09625
2.16997
2.24619
2.32506
2.40666
2.4911
2.57843
2.66868
2.76186
2.85794
2.95687
3.05856
3.1629
3.26976
3.37896
3.49031
3.60361
3.71862
3.83509
3.95276
4.07135
4.19057
4.31012
4.42969
4.54898
4.66764
4.78536
4.90177
5.01656
5.12937
5.23986
5.34769
5.45256
5.55409
5.65193
5.74577
5.83529
5.92021
6.00024
6.07502
6.14437
6.20812
6.26612
6.31814
6.36403
6.40357
6.43666
6.46314
6.48298
6.49622
6.50304
6.50441
6.50234
6.49525
6.48226
6.46361
6.43949
6.41031
6.37643
6.33847
6.29705
6.25294
6.20698
6.16011
6.11328
6.06735
6.02301
5.98068
5.94057
5.90253
5.86621
5.83095
5.79596
5.76029
5.72302
5.68323
5.64016
5.59321
5.54204
5.48647
5.42657
5.3625
5.2946
5.22327
5.14899
5.07226
4.99356
4.91337
4.83214
4.75027
4.66813
4.58606
4.50435
4.42325
4.34296
4.26363
4.18536
4.10825
4.03237
3.95775
3.88444
3.81253
3.74207
3.67306
3.60549
3.53935
3.47462
3.41128
3.3493
3.28864
3.22926
3.17107
3.11426
3.05876
3.00457
2.95165
2.89998
2.84956
2.80036
2.75237
2.70556
2.65991
2.61538
2.57202
2.52977
2.48856
2.44835
2.40908
2.37066
2.333
2.29605
2.25971
2.22388
2.18844
2.15327
2.11826
2.08327
2.04818
2.01286
1.97718
1.94096
1.90405
1.86619
1.82723
1.78694
1.74505
1.70129
1.65536
1.60702
1.55608
1.50242
1.4461
1.3874