/*--------------------------------*- C++ -*----------------------------------*\
  =========                 |
  \\      /  F ield         | OpenFOAM: The Open Source CFD Toolbox
   \\    /   O peration     | Website:  https://openfoam.org
    \\  /    A nd           | Version:  8
     \\/     M anipulation  |
\*---------------------------------------------------------------------------*/
FoamFile
{
    version     2.0;
    format      ascii;
    class       volScalarField;
    location    "65";
    object      nut;
}
// * * * * * * * * * * * * * * * * * * * * * * * * * * * * * * * * * * * * * //

dimensions      [0 2 -1 0 0 0 0];

internalField   nonuniform List<scalar> 
12225
(
4.14932e-05
3.93479e-05
3.74789e-05
3.5439e-05
3.37807e-05
3.24307e-05
3.15085e-05
3.09285e-05
3.0941e-05
3.11218e-05
3.16357e-05
3.21675e-05
3.32872e-05
3.39775e-05
3.53219e-05
3.5924e-05
3.81372e-05
3.57354e-05
0.000332301
0.000215249
0.000179205
0.000157696
0.000146125
0.000138172
0.000132585
0.000131677
0.000129363
0.000130128
0.000128947
0.000129537
0.000128584
0.000128714
0.000128014
0.000127662
0.000127853
0.000126367
0.000674816
0.000450989
0.000355598
0.000309852
0.000275024
0.000251001
0.000231351
0.000217012
0.000202171
0.00019148
0.000181955
0.000174229
0.000168643
0.000162313
0.000159434
0.000153716
0.000152688
0.000147461
0.000833466
0.000685112
0.000571709
0.000500016
0.000449121
0.000411795
0.000380293
0.000355564
0.000333294
0.000313952
0.000297195
0.00028026
0.000268886
0.000253844
0.000246063
0.000233247
0.000227022
0.000216236
0.000861204
0.000802539
0.000741941
0.000676652
0.000623692
0.000581159
0.000545411
0.000513984
0.000488798
0.000463378
0.000444724
0.000422305
0.000408179
0.000388194
0.00037707
0.000359368
0.000350126
0.000333884
0.000854967
0.000840339
0.000822133
0.000786519
0.000750667
0.000715671
0.000685425
0.00065556
0.000631934
0.00060648
0.000587936
0.000565563
0.000550499
0.000530557
0.000517888
0.000499953
0.000488752
0.000471752
0.000852905
0.000850684
0.000844228
0.000832788
0.000817341
0.000796833
0.000777688
0.000756298
0.000738449
0.000718328
0.000702662
0.000684259
0.000670596
0.000653785
0.00064181
0.000626247
0.000615598
0.000600196
0.000851922
0.000851814
0.00085017
0.000847379
0.000841424
0.00083363
0.000824786
0.000813149
0.000802526
0.00078994
0.000779103
0.000766597
0.000756312
0.000744225
0.000734682
0.000723056
0.000714235
0.000702279
0.000851752
0.000851541
0.000851037
0.000850325
0.000848875
0.000846115
0.000842986
0.000838161
0.000833246
0.000827059
0.000820831
0.000814228
0.000807704
0.000800558
0.000794031
0.000786817
0.00078024
0.000772682
0.000851772
0.000851387
0.00085105
0.000850622
0.000850245
0.000849338
0.000848378
0.00084671
0.000844867
0.000842382
0.000839715
0.000836504
0.000833395
0.000829623
0.000826261
0.000822053
0.000818698
0.000813855
0.000851789
0.000851357
0.000851015
0.000850607
0.000850325
0.000849888
0.000849505
0.00084889
0.000848249
0.000847313
0.000846353
0.000845022
0.000843779
0.000842075
0.000840632
0.000838565
0.000837053
0.000834601
0.00085179
0.000851359
0.000850997
0.000850602
0.000850287
0.000849926
0.000849628
0.000849253
0.000848916
0.000848451
0.000848027
0.000847412
0.000846875
0.000846084
0.000845443
0.000844465
0.000843751
0.000842583
0.000851787
0.000851363
0.000850987
0.000850603
0.000850266
0.000849917
0.000849616
0.000849292
0.000849013
0.000848689
0.000848411
0.00084806
0.000847764
0.000847365
0.000847038
0.00084658
0.000846219
0.000845697
0.000851783
0.000851365
0.000850979
0.000850602
0.000850254
0.000849911
0.000849598
0.000849285
0.000849001
0.000848712
0.000848451
0.000848178
0.000847933
0.000847668
0.000847432
0.00084717
0.000846938
0.000846674
0.000851781
0.000851365
0.000850974
0.000850599
0.000850246
0.000849906
0.000849586
0.000849277
0.000848986
0.000848704
0.000848439
0.000848181
0.000847939
0.000847703
0.000847481
0.000847265
0.000847062
0.000846863
0.00085178
0.000851364
0.00085097
0.000850595
0.00085024
0.0008499
0.000849578
0.00084927
0.000848978
0.000848698
0.000848431
0.000848176
0.000847933
0.000847702
0.000847482
0.000847274
0.000847075
0.000846887
0.000851779
0.000851363
0.000850968
0.000850592
0.000850235
0.000849895
0.000849573
0.000849265
0.000848973
0.000848693
0.000848428
0.000848174
0.000847933
0.000847704
0.000847486
0.000847279
0.000847083
0.000846897
0.000851779
0.000851362
0.000850966
0.000850589
0.000850232
0.000849892
0.000849569
0.000849262
0.00084897
0.000848692
0.000848428
0.000848176
0.000847938
0.00084771
0.000847494
0.00084729
0.000847096
0.000846912
0.000851779
0.000851361
0.000850965
0.000850588
0.000850231
0.000849891
0.000849569
0.000849263
0.000848972
0.000848696
0.000848433
0.000848184
0.000847947
0.000847722
0.000847509
0.000847306
0.000847114
0.000846933
0.000851779
0.000851362
0.000850965
0.000850589
0.000850233
0.000849894
0.000849574
0.000849269
0.00084898
0.000848705
0.000848445
0.000848197
0.000847963
0.000847739
0.000847528
0.000847327
0.000847138
0.000846958
0.000851779
0.000851362
0.000850966
0.000850592
0.000850236
0.000849901
0.00084958
0.000849279
0.00084899
0.000848719
0.000848457
0.000848212
0.000847974
0.000847751
0.000847532
0.000847329
0.000847126
0.000846941
0.000851778
0.000851365
0.000850968
0.000850599
0.000850242
0.000849913
0.00084959
0.000849289
0.000848987
0.000848702
0.000848406
0.000848125
0.000847824
0.00084754
0.000847226
0.000846936
0.000846606
0.000846312
0.000851777
0.000851373
0.000850971
0.000850616
0.000850244
0.000849896
0.000849491
0.000849075
0.000848561
0.000848024
0.000847365
0.000846689
0.000845878
0.000845081
0.000844134
0.00084325
0.000842188
0.000841262
0.000851801
0.00085141
0.00085097
0.000850552
0.000849866
0.000848981
0.000847634
0.000846023
0.000843973
0.000841737
0.000839099
0.000836409
0.000833373
0.000830439
0.000827171
0.000824179
0.000820786
0.00081789
0.000852137
0.000851403
0.000850234
0.00084826
0.000844487
0.000839404
0.000832788
0.000825881
0.000818096
0.000810252
0.000801959
0.00079407
0.000785893
0.000778395
0.000770579
0.000763691
0.000756287
0.000750139
0.000854142
0.000847721
0.000840132
0.000827141
0.000808777
0.000789756
0.000770163
0.000751678
0.000733677
0.000717368
0.000701549
0.000687527
0.000673746
0.000661754
0.000649655
0.000639414
0.000628647
0.000619939
0.000854978
0.000818346
0.000776273
0.000726685
0.000685081
0.000650041
0.000618748
0.00059239
0.000568878
0.000548911
0.000530447
0.000514867
0.00049982
0.000487238
0.000474619
0.000464314
0.000453451
0.00044486
0.000807492
0.000666895
0.000570641
0.000509958
0.000465835
0.000431411
0.000404422
0.000382867
0.000364632
0.000349606
0.000336539
0.000325784
0.000315349
0.000307148
0.000299022
0.000292562
0.000285663
0.000280447
0.000501861
0.000348419
0.000292734
0.000259221
0.000236445
0.000221244
0.000211669
0.00020417
0.000198625
0.000195206
0.000192367
0.000190523
0.000188732
0.000187612
0.000186326
0.000185627
0.000184694
0.000184262
7.27292e-05
7.02218e-05
6.79544e-05
6.56119e-05
6.33824e-05
6.12766e-05
5.94886e-05
5.79557e-05
5.66995e-05
5.56937e-05
5.49523e-05
5.43909e-05
5.40596e-05
5.38266e-05
5.38014e-05
5.38519e-05
5.39506e-05
5.41667e-05
1.64713e-05
0.000131042
0.000166852
0.000191458
0.000219929
4.3767e-05
4.0388e-05
3.95038e-05
3.98336e-05
3.65667e-05
3.68913e-05
0.00020486
4.60011e-05
4.71167e-05
4.97961e-05
5.39347e-05
5.09498e-05
5.55866e-05
5.16404e-05
5.47126e-05
5.32537e-05
5.23938e-05
5.21695e-05
5.25044e-05
5.37901e-05
5.59342e-05
5.90656e-05
6.26046e-05
6.66137e-05
7.05967e-05
7.47115e-05
7.85207e-05
8.21967e-05
8.56349e-05
8.88727e-05
9.18726e-05
9.47061e-05
9.73334e-05
9.98216e-05
0.000102142
0.000104348
0.000106422
0.000108403
0.00011028
0.000112084
0.000113807
0.000115473
0.000117076
0.000118634
0.000120143
0.000121616
0.000123052
0.000124458
0.000125836
0.000127189
0.000128519
0.000129826
0.000131114
0.000132381
0.00013363
0.000134855
0.000136065
0.000137249
0.000138417
0.000139556
0.000140676
0.000141762
0.000142826
0.000143851
0.000144847
0.000145797
0.000146713
0.000147577
0.000148398
0.000149162
0.00014991
0.000150654
0.00015134
0.00015197
0.00015255
0.000153056
0.000153559
0.000154045
0.000154205
0.000154771
0.000155648
0.00015478
0.000155164
0.000155074
0.000155019
0.000154756
0.000154482
0.000154053
0.000153523
0.000152892
0.000152144
0.000151291
0.000150322
0.000149231
0.000147981
0.000146605
0.000145136
0.00014361
0.000141992
0.0001403
0.000138544
0.000136729
0.000134867
0.000132966
0.000131048
0.000129154
0.000127159
0.000125057
0.000122977
0.0001209
0.000118842
0.000116808
0.0001148
0.000112818
0.000110867
0.00010889
0.000106994
0.000105582
0.000104302
0.000103065
0.000101864
0.00010069
9.95519e-05
9.84403e-05
9.73658e-05
9.6317e-05
9.53046e-05
9.43171e-05
9.33636e-05
9.24364e-05
9.15399e-05
9.06695e-05
8.98041e-05
8.89501e-05
8.81222e-05
8.73163e-05
8.65355e-05
8.57762e-05
8.50394e-05
8.43214e-05
8.36263e-05
8.2942e-05
8.227e-05
8.16087e-05
8.09607e-05
8.03221e-05
7.96998e-05
7.90892e-05
7.84889e-05
7.7894e-05
7.73054e-05
7.6724e-05
7.61513e-05
7.55844e-05
7.50252e-05
7.44739e-05
7.39333e-05
7.34023e-05
7.2883e-05
7.23749e-05
7.18784e-05
7.13934e-05
7.09207e-05
7.04564e-05
7.00059e-05
6.9558e-05
6.913e-05
6.86915e-05
6.8274e-05
6.78569e-05
6.73191e-05
6.70218e-05
6.58712e-05
6.61501e-05
6.21958e-05
2.97878e-05
8.82293e-05
0.00015767
0.000217591
0.000265176
0.000283344
0.000294606
0.000300032
0.000302011
0.000300866
0.000300916
0.000310076
0.00027607
0.000255847
0.000254186
0.000252526
0.000249542
0.000253504
0.000257299
0.00027683
0.000286502
0.000285136
0.00028123
0.000278996
0.000279975
0.00028458
0.000293034
0.000304658
0.00032008
0.000337843
0.000356482
0.000375655
0.00039492
0.000417052
0.000438959
0.000461025
0.000482884
0.000504309
0.000525185
0.000545325
0.00056471
0.000583229
0.000600935
0.00061778
0.000633869
0.000649194
0.000663886
0.000677957
0.000691554
0.000704693
0.000717518
0.000730044
0.000742412
0.000754636
0.000766852
0.00077907
0.000791419
0.000803899
0.000816637
0.000829625
0.000842979
0.000856682
0.000870849
0.000885449
0.00090058
0.000916189
0.00093235
0.000948983
0.000966129
0.000983665
0.00100156
0.00101961
0.00103764
0.00105532
0.00107234
0.00108833
0.00110375
0.00111939
0.00113514
0.00115088
0.00116659
0.00118209
0.00119717
0.00121323
0.00122926
0.00124532
0.00126235
0.00127487
0.00128662
0.00129592
0.00130489
0.00131378
0.00132045
0.00132572
0.00132934
0.00133139
0.0013318
0.00133053
0.00132744
0.00132207
0.00131426
0.00130509
0.00129528
0.00128495
0.00127349
0.00126106
0.0012478
0.00123388
0.00121942
0.00120466
0.00118985
0.0011755
0.00116086
0.00114621
0.00113155
0.00111699
0.00110255
0.00108829
0.00107418
0.00106018
0.00104598
0.0010304
0.0010137
0.000996655
0.000979704
0.000963104
0.000946901
0.000931175
0.000915887
0.00090108
0.000886688
0.000872747
0.000859192
0.000846045
0.000833254
0.000820931
0.00080889
0.000797127
0.000785649
0.000774466
0.000763537
0.000752899
0.000742562
0.000732486
0.000722609
0.000712848
0.000703144
0.000693586
0.000684187
0.000674961
0.0006659
0.000657024
0.000648249
0.000639569
0.00063099
0.000622547
0.000614261
0.000606119
0.000598106
0.00059024
0.000582523
0.000574952
0.000567501
0.000560173
0.00055293
0.000545749
0.000538607
0.000531468
0.000524272
0.000516972
0.000509543
0.000501751
0.000493793
0.000484853
0.000475898
0.00046479
0.000453557
0.000434379
0.000417932
0.000362907
5.33792e-05
0.000141248
0.000238262
0.000320597
0.000386857
0.000436304
0.000470382
0.000492016
0.000504244
0.000508325
0.000507932
0.000504748
0.000497082
0.000489763
0.000486471
0.000485495
0.000486082
0.000488634
0.000491748
0.000495101
0.000498128
0.000505816
0.000517088
0.000532705
0.00055318
0.000578638
0.000609497
0.000644118
0.000681871
0.000723353
0.000768271
0.000816233
0.000867168
0.000914847
0.000962091
0.0010085
0.00105368
0.00109735
0.00113933
0.00117951
0.00121785
0.00125437
0.00128911
0.00132215
0.0013536
0.00138357
0.00141217
0.00143953
0.00146587
0.00149131
0.00151599
0.00154003
0.00156356
0.00158669
0.00160954
0.00163221
0.00165481
0.00167742
0.00170015
0.00172305
0.00174623
0.00176972
0.00179361
0.00181793
0.00184274
0.00186803
0.00189383
0.00192013
0.00194691
0.0019741
0.00200166
0.00202947
0.00205744
0.00208542
0.00211334
0.00214112
0.00216902
0.00219719
0.00222548
0.00225375
0.00228184
0.00230959
0.00233684
0.00236375
0.00238982
0.00241564
0.0024392
0.00246107
0.00247709
0.00249308
0.00250511
0.00251957
0.00252901
0.00253525
0.0025384
0.00253852
0.00253561
0.00252971
0.00252082
0.00250894
0.00249416
0.00247695
0.00245773
0.00243673
0.00241388
0.00238942
0.00236359
0.00233666
0.00230887
0.0022805
0.00225186
0.00222329
0.00219458
0.0021659
0.00213734
0.00210903
0.00208103
0.00205343
0.00202622
0.00199935
0.0019726
0.00194532
0.00191744
0.0018894
0.00186156
0.00183418
0.00180736
0.00178119
0.00175566
0.0017308
0.00170656
0.00168296
0.00165995
0.00163752
0.00161562
0.00159427
0.00157348
0.00155323
0.00153345
0.00151411
0.00149516
0.00147672
0.00145896
0.00144163
0.00142462
0.00140767
0.00139066
0.00137395
0.00135755
0.00134144
0.00132568
0.00131028
0.00129501
0.00127989
0.00126498
0.00125039
0.00123616
0.00122224
0.00120862
0.00119534
0.00118243
0.00116984
0.00115755
0.00114554
0.00113376
0.00112215
0.00111067
0.00109924
0.00108777
0.00107618
0.00106437
0.00105201
0.0010392
0.00102481
0.00100978
0.000990897
0.000971915
0.000940593
0.000915494
0.000856589
7.54566e-05
0.000197674
0.000321776
0.000423141
0.000501515
0.000559311
0.000599297
0.000624527
0.00063769
0.000641943
0.000640221
0.000635266
0.000629951
0.000626498
0.000626396
0.000629904
0.000636782
0.000646755
0.000659629
0.000675744
0.000695917
0.000721491
0.000752813
0.000790492
0.000834088
0.000883385
0.000937701
0.000996749
0.00105987
0.00112497
0.00119184
0.00125952
0.00132692
0.00139268
0.001457
0.00151961
0.00158024
0.00163871
0.00169493
0.00174883
0.00180044
0.00184981
0.001897
0.00194213
0.0019853
0.00202665
0.00206632
0.00210444
0.00214118
0.00217666
0.00221102
0.0022444
0.00227693
0.00230873
0.00233992
0.0023706
0.0024009
0.0024309
0.00246071
0.00249041
0.00252008
0.00254979
0.00257962
0.00260961
0.00263982
0.00267029
0.00270103
0.00273206
0.00276339
0.002795
0.00282687
0.00285897
0.00289125
0.00292366
0.00295614
0.00298862
0.00302132
0.00305421
0.00308714
0.00311996
0.0031525
0.00318452
0.00321582
0.00324623
0.00327547
0.00330336
0.00332915
0.00335249
0.00337458
0.00339196
0.00340284
0.00341778
0.003428
0.003434
0.00343613
0.00343451
0.00342918
0.00342017
0.00340756
0.00339144
0.00337198
0.00334948
0.00332425
0.00329656
0.0032666
0.00323464
0.00320101
0.00316599
0.0031299
0.00309304
0.0030557
0.00301816
0.0029805
0.00294288
0.00290544
0.00286832
0.00283164
0.00279547
0.00275987
0.00272479
0.0026901
0.00265548
0.00262086
0.00258641
0.00255234
0.00251884
0.00248598
0.00245385
0.00242245
0.00239178
0.00236183
0.00233258
0.00230399
0.00227604
0.00224868
0.00222191
0.00219572
0.00217011
0.00214502
0.00212043
0.00209627
0.00207259
0.00204944
0.00202677
0.00200449
0.00198248
0.00196078
0.00193978
0.00191921
0.001899
0.00187928
0.00186007
0.00184092
0.00182191
0.00180327
0.00178514
0.00176761
0.00175053
0.00173391
0.00171787
0.00170245
0.00168756
0.00167315
0.00165924
0.00164574
0.00163257
0.00161966
0.00160693
0.00159426
0.00158153
0.00156861
0.00155511
0.00154091
0.00152496
0.00150748
0.00148565
0.00146197
0.00142587
0.00139608
0.00130888
9.7073e-05
0.00025343
0.000400829
0.000518073
0.000605938
0.000668654
0.000711056
0.000736414
0.000748743
0.000752115
0.000750523
0.000747602
0.00074631
0.00074865
0.000755649
0.00076757
0.00078435
0.000805989
0.000832711
0.000864979
0.000903665
0.00094871
0.00100025
0.00105863
0.0011229
0.00119296
0.00126669
0.00134386
0.00142373
0.00150485
0.00158621
0.00166698
0.00174638
0.0018238
0.00189916
0.00197237
0.00204329
0.0021118
0.00217784
0.00224141
0.00230251
0.00236119
0.00241754
0.00247163
0.00252357
0.00257346
0.00262143
0.00266758
0.00271205
0.00275495
0.00279638
0.00283645
0.00287531
0.00291308
0.00294987
0.00298579
0.00302092
0.00305538
0.00308925
0.00312262
0.00315556
0.00318817
0.00322051
0.00325264
0.00328463
0.00331652
0.00334838
0.00338025
0.00341215
0.00344413
0.0034762
0.00350839
0.0035407
0.00357313
0.00360566
0.00363826
0.00367099
0.00370379
0.00373654
0.00376909
0.00380126
0.00383284
0.00386359
0.00389329
0.00392169
0.00394851
0.00397337
0.00399596
0.00401601
0.00403519
0.00404532
0.00405697
0.00406731
0.00407228
0.00407306
0.00406984
0.00406268
0.00405163
0.00403676
0.0040182
0.00399612
0.00397076
0.0039424
0.00391131
0.00387776
0.00384207
0.00380454
0.00376551
0.00372529
0.00368418
0.00364248
0.00360042
0.00355821
0.00351602
0.00347403
0.0034324
0.00339125
0.00335069
0.00331075
0.00327145
0.00323272
0.00319443
0.00315652
0.00311903
0.00308207
0.00304573
0.00301006
0.00297512
0.0029409
0.00290741
0.00287463
0.00284253
0.00281108
0.00278026
0.00275001
0.00272031
0.00269115
0.00266251
0.00263437
0.0026067
0.00257945
0.00255263
0.00252626
0.00250032
0.00247477
0.00244953
0.00242462
0.00240024
0.00237622
0.00235257
0.00232965
0.00230741
0.00228561
0.00226433
0.00224365
0.0022237
0.00220461
0.00218599
0.00216797
0.0021508
0.00213452
0.0021189
0.00210395
0.00208972
0.00207606
0.00206291
0.00205019
0.00203779
0.00202556
0.00201352
0.00200134
0.00198863
0.00197504
0.00195959
0.00194189
0.00191964
0.00189364
0.00185633
0.00182088
0.0017321
0.000117498
0.000300651
0.000470825
0.000603432
0.000700563
0.000768867
0.000814667
0.000841793
0.000855446
0.000860575
0.000861802
0.0008631
0.000867467
0.000876809
0.000892098
0.000913704
0.00094175
0.000976333
0.00101836
0.00106709
0.00112305
0.00118596
0.00125588
0.00133109
0.00141159
0.00149631
0.00158333
0.00167169
0.0017606
0.00184951
0.00193783
0.00202506
0.00211084
0.00219495
0.00227715
0.00235722
0.00243502
0.00251046
0.00258346
0.00265401
0.0027221
0.00278775
0.00285101
0.00291193
0.00297057
0.00302703
0.00308137
0.0031337
0.00318411
0.0032327
0.00327957
0.00332483
0.00336854
0.00341078
0.00345164
0.00349121
0.00352957
0.0035668
0.00360299
0.0036382
0.00367252
0.00370601
0.00373876
0.00377084
0.00380231
0.00383325
0.00386373
0.00389383
0.0039236
0.00395313
0.00398248
0.00401171
0.00404089
0.00407006
0.00409929
0.00412861
0.00415797
0.0041873
0.00421654
0.00424558
0.00427428
0.00430247
0.00432995
0.00435653
0.00438197
0.00440602
0.00442838
0.00444878
0.00446694
0.00448259
0.00449638
0.00450441
0.0045132
0.00451732
0.00451739
0.00451352
0.00450575
0.0044941
0.00447862
0.00445943
0.00443667
0.00441055
0.00438132
0.00434923
0.00431459
0.0042777
0.00423888
0.00419847
0.00415677
0.0041141
0.00407073
0.00402692
0.00398291
0.00393889
0.00389506
0.0038516
0.00380863
0.00376626
0.00372457
0.00368357
0.00364325
0.00360354
0.00356442
0.00352588
0.00348795
0.00345068
0.00341408
0.00337818
0.00334298
0.00330847
0.00327463
0.00324142
0.00320882
0.00317678
0.00314526
0.00311424
0.00308369
0.00305359
0.00302391
0.00299465
0.00296576
0.00293725
0.00290911
0.00288134
0.00285392
0.00282682
0.00280002
0.0027736
0.00274754
0.00272184
0.00269665
0.00267201
0.00264792
0.00262473
0.00260236
0.00258098
0.00256072
0.00254151
0.00252336
0.00250635
0.00249052
0.00247533
0.00246097
0.00244755
0.00243483
0.00242274
0.00241126
0.00240019
0.00238943
0.00237896
0.00236835
0.00235727
0.00234519
0.00233113
0.00231427
0.00229265
0.00226578
0.0022285
0.00218825
0.00210381
0.000135968
0.000342207
0.000532233
0.000679005
0.000785883
0.000861322
0.000912695
0.000944431
0.000962536
0.000972465
0.000979139
0.00098668
0.000998176
0.00101564
0.00104016
0.00107224
0.00111197
0.00115921
0.00121491
0.00127854
0.00134868
0.00142531
0.00150797
0.00159457
0.00168385
0.00177515
0.00186793
0.0019616
0.00205549
0.00214905
0.00224183
0.00233347
0.0024237
0.00251228
0.00259902
0.00268375
0.00276633
0.00284666
0.00292468
0.00300032
0.00307356
0.00314439
0.00321281
0.00327885
0.00334254
0.00340392
0.00346304
0.00351996
0.00357473
0.00362742
0.0036781
0.00372684
0.00377368
0.00381871
0.00386199
0.00390358
0.00394355
0.00398198
0.00401893
0.00405447
0.00408867
0.00412161
0.00415335
0.00418399
0.00421359
0.00424224
0.00427003
0.00429705
0.00432338
0.00434914
0.0043744
0.00439927
0.00442383
0.00444818
0.00447239
0.0044965
0.00452055
0.00454453
0.00456842
0.00459218
0.00461574
0.004639
0.0046618
0.00468402
0.00470544
0.00472586
0.00474503
0.00476268
0.00477851
0.00479222
0.00480461
0.00481303
0.00481999
0.00482376
0.00482387
0.00482028
0.00481297
0.00480191
0.00478713
0.00476868
0.00474668
0.0047213
0.00469274
0.00466125
0.00462712
0.00459065
0.00455216
0.00451197
0.00447041
0.00442778
0.00438438
0.00434047
0.0042963
0.0042521
0.00420805
0.00416435
0.00412114
0.00407854
0.00403663
0.00399545
0.003955
0.00391526
0.0038762
0.00383781
0.00380007
0.003763
0.00372661
0.00369088
0.00365582
0.00362141
0.00358761
0.00355439
0.00352171
0.00348953
0.00345781
0.00342651
0.0033956
0.00336506
0.00333488
0.00330503
0.00327549
0.00324627
0.00321736
0.00318875
0.00316044
0.00313242
0.00310468
0.00307725
0.00305014
0.00302336
0.002997
0.00297109
0.00294568
0.00292094
0.00289712
0.00287458
0.0028535
0.00283386
0.00281564
0.00279886
0.00278349
0.00276932
0.00275632
0.00274449
0.00273339
0.00272299
0.00271335
0.00270418
0.00269542
0.00268692
0.00267841
0.00266943
0.00265932
0.00264705
0.00263149
0.00261084
0.00258382
0.00254673
0.00250285
0.00242277
0.000151102
0.000375936
0.000582971
0.000742952
0.000860249
0.000944318
0.00100351
0.00104267
0.00106821
0.00108579
0.00110039
0.00111615
0.00113624
0.00116277
0.00119694
0.00123926
0.00128976
0.00134821
0.00141488
0.00148879
0.00156869
0.00165321
0.0017414
0.00183252
0.00192595
0.00202096
0.00211696
0.00221342
0.00230986
0.00240586
0.00250108
0.00259523
0.00268807
0.0027794
0.00286904
0.00295683
0.00304264
0.00312637
0.00320792
0.00328722
0.00336421
0.00343885
0.00351111
0.00358097
0.00364845
0.00371353
0.00377625
0.00383661
0.00389464
0.00395038
0.00400385
0.00405511
0.00410419
0.00415113
0.00419598
0.00423879
0.0042796
0.00431847
0.00435546
0.00439062
0.00442402
0.00445571
0.00448578
0.00451429
0.00454133
0.00456699
0.00459135
0.00461453
0.00463663
0.00465777
0.00467805
0.00469762
0.00471659
0.00473508
0.00475321
0.00477108
0.00478877
0.00480636
0.00482391
0.00484142
0.00485892
0.00487636
0.0048937
0.00491082
0.00492761
0.0049439
0.00495948
0.00497411
0.00498752
0.00499946
0.00500972
0.00501908
0.00502419
0.00502857
0.00502942
0.00502688
0.0050209
0.0050114
0.00499833
0.00498169
0.00496155
0.00493801
0.00491125
0.00488149
0.00484897
0.004814
0.00477689
0.00473797
0.00469757
0.00465601
0.00461361
0.00457063
0.00452732
0.00448391
0.00444062
0.00439762
0.00435511
0.0043132
0.00427198
0.00423152
0.00419182
0.00415287
0.00411465
0.00407712
0.00404028
0.00400411
0.0039686
0.00393374
0.00389952
0.00386589
0.00383284
0.0038003
0.00376825
0.00373663
0.0037054
0.00367452
0.00364396
0.00361368
0.00358368
0.00355393
0.00352444
0.0034952
0.0034662
0.00343745
0.00340896
0.00338071
0.00335271
0.00332497
0.00329753
0.00327039
0.00324361
0.00321724
0.00319133
0.003166
0.00314143
0.00311804
0.00309648
0.00307669
0.00305861
0.00304218
0.00302736
0.00301405
0.00300216
0.00299165
0.0029823
0.00297398
0.00296662
0.00295962
0.00295314
0.00294689
0.00294064
0.00293388
0.00292579
0.00291527
0.00290101
0.00288122
0.00285418
0.002817
0.00277008
0.00269294
0.000162441
0.000401162
0.000621861
0.000793694
0.000921571
0.00101534
0.00108404
0.00113276
0.00116805
0.0011955
0.00121997
0.00124548
0.00127513
0.00131102
0.00135437
0.00140565
0.00146482
0.00153152
0.00160495
0.00168417
0.00176815
0.00185609
0.00194712
0.00204055
0.00213577
0.0022322
0.00232935
0.0024268
0.00252415
0.00262109
0.00271733
0.00281263
0.00290678
0.00299959
0.00309089
0.00318055
0.00326843
0.0033544
0.00343836
0.00352022
0.00359989
0.00367729
0.00375238
0.00382511
0.00389544
0.00396335
0.00402882
0.00409183
0.00415239
0.0042105
0.00426615
0.00431936
0.00437015
0.00441853
0.00446453
0.00450817
0.00454948
0.00458849
0.00462525
0.00465978
0.00469215
0.0047224
0.0047506
0.0047768
0.0048011
0.00482356
0.0048443
0.00486341
0.00488102
0.00489725
0.00491225
0.00492615
0.00493911
0.0049513
0.00496288
0.004974
0.00498482
0.00499548
0.00500609
0.00501678
0.00502762
0.00503867
0.00504994
0.00506142
0.00507306
0.00508475
0.00509634
0.00510764
0.0051184
0.00512837
0.00513725
0.00514552
0.00515131
0.00515581
0.00515776
0.00515684
0.00515286
0.00514567
0.00513513
0.00512117
0.00510378
0.005083
0.00505894
0.00503178
0.00500174
0.00496909
0.00493416
0.00489728
0.00485879
0.00481905
0.00477838
0.00473705
0.00469529
0.00465335
0.00461143
0.00456976
0.00452851
0.00448786
0.0044479
0.00440871
0.0043703
0.00433266
0.00429576
0.00425956
0.00422406
0.00418922
0.00415503
0.00412147
0.00408852
0.00405615
0.0040243
0.00399293
0.00396198
0.00393141
0.00390116
0.00387118
0.00384144
0.00381192
0.00378259
0.00375345
0.00372449
0.00369573
0.00366715
0.00363878
0.0036106
0.00358264
0.00355489
0.00352739
0.00350014
0.00347319
0.00344657
0.00342034
0.00339456
0.00336932
0.00334479
0.00332129
0.00329968
0.00328012
0.00326243
0.00324655
0.00323242
0.00321995
0.00320908
0.00319974
0.00319178
0.00318507
0.0031795
0.00317474
0.00317069
0.00316674
0.00316275
0.00315811
0.00315184
0.00314277
0.00312949
0.00311018
0.00308288
0.0030451
0.0029955
0.00291976
0.000168891
0.000417415
0.000648477
0.000830386
0.000968373
0.00107234
0.0011514
0.00121089
0.0012572
0.00129573
0.00133105
0.00136691
0.00140618
0.00145086
0.00150206
0.00156022
0.00162524
0.00169666
0.00177372
0.00185561
0.00194153
0.00203074
0.00212256
0.0022164
0.00231173
0.00240808
0.00250504
0.00260224
0.00269937
0.00279617
0.00289239
0.00298782
0.00308228
0.0031756
0.00326763
0.00335821
0.00344722
0.00353455
0.00362006
0.00370364
0.00378517
0.00386455
0.0039417
0.00401655
0.00408906
0.00415915
0.0042268
0.00429195
0.00435456
0.00441461
0.00447207
0.00452693
0.00457917
0.00462879
0.00467579
0.00472017
0.00476193
0.00480108
0.00483764
0.00487162
0.00490307
0.004932
0.00495847
0.00498253
0.00500424
0.00502369
0.00504096
0.00505615
0.00506939
0.00508082
0.00509058
0.00509884
0.00510578
0.00511161
0.00511651
0.00512072
0.00512443
0.00512786
0.00513122
0.00513467
0.0051384
0.00514254
0.00514721
0.00515248
0.00515839
0.00516493
0.00517202
0.0051795
0.00518719
0.00519486
0.00520228
0.00520941
0.0052155
0.00522019
0.00522365
0.00522472
0.00522325
0.00521896
0.00521162
0.00520108
0.00518723
0.00517001
0.00514946
0.0051257
0.00509893
0.00506939
0.00503737
0.00500321
0.00496726
0.00492999
0.00489168
0.00485259
0.00481296
0.00477301
0.00473295
0.00469303
0.00465347
0.00461446
0.00457615
0.00453861
0.00450186
0.00446589
0.00443066
0.00439613
0.00436226
0.00432905
0.00429648
0.00426453
0.00423317
0.00420237
0.00417206
0.00414219
0.0041127
0.00408353
0.00405462
0.00402591
0.00399737
0.00396896
0.00394068
0.00391251
0.00388448
0.00385657
0.00382881
0.00380119
0.00377374
0.00374647
0.00371938
0.00369252
0.0036659
0.00363957
0.00361358
0.00358797
0.00356281
0.00353821
0.00351432
0.00349145
0.00347043
0.00345153
0.00343458
0.00341949
0.0034062
0.00339466
0.0033848
0.00337654
0.00336978
0.00336439
0.00336023
0.00335708
0.00335476
0.00335289
0.00335106
0.00334832
0.00334349
0.00333538
0.00332254
0.00330314
0.00327509
0.00323611
0.00318382
0.0031083
0.000172077
0.000424395
0.000662367
0.000852784
0.00100019
0.00111425
0.00120366
0.00127405
0.00133155
0.0013812
0.00142722
0.00147304
0.00152135
0.00157408
0.00163187
0.00169523
0.00176419
0.00183833
0.00191711
0.00199989
0.002086
0.00217485
0.00226578
0.00235873
0.00245312
0.00254843
0.0026443
0.00274041
0.00283651
0.00293236
0.00302777
0.00312255
0.00321654
0.00330959
0.00340155
0.00349228
0.00358167
0.0036696
0.00375597
0.0038407
0.0039235
0.00400422
0.00408281
0.00415922
0.00423336
0.00430517
0.00437458
0.0044415
0.00450586
0.00456759
0.00462666
0.00468301
0.00473663
0.00478746
0.00483549
0.00488069
0.00492303
0.0049625
0.00499909
0.00503279
0.00506362
0.00509157
0.00511668
0.00513898
0.00515852
0.00517535
0.00518955
0.00520123
0.00521049
0.00521747
0.00522232
0.00522523
0.00522638
0.00522602
0.00522437
0.0052217
0.00521828
0.00521437
0.00521026
0.0052062
0.00520244
0.00519922
0.00519674
0.00519519
0.00519471
0.00519538
0.00519733
0.00520034
0.0052043
0.00520909
0.00521446
0.0052202
0.00522621
0.00523143
0.00523612
0.00523938
0.00524072
0.00523977
0.00523619
0.00522975
0.0052202
0.00520733
0.00519112
0.00517162
0.00514895
0.00512331
0.00509496
0.0050642
0.00503136
0.00499718
0.00496184
0.00492559
0.00488866
0.00485121
0.00481344
0.00477565
0.00473811
0.00470104
0.0046647
0.00462913
0.00459436
0.00456037
0.00452709
0.00449448
0.00446252
0.00443118
0.00440045
0.00437034
0.00434082
0.00431184
0.00428334
0.00425525
0.0042275
0.00420002
0.00417274
0.00414561
0.00411856
0.00409156
0.00406462
0.00403774
0.00401093
0.0039842
0.00395756
0.00393103
0.00390463
0.00387838
0.0038523
0.00382642
0.00380079
0.00377545
0.00375045
0.00372587
0.00370177
0.00367828
0.00365555
0.00363391
0.00361414
0.00359637
0.00358049
0.00356644
0.00355419
0.00354369
0.00353488
0.0035277
0.00352205
0.00351778
0.00351477
0.00351281
0.0035117
0.00351113
0.00351069
0.0035095
0.00350557
0.00349777
0.00348471
0.00346455
0.00343512
0.00339428
0.00333906
0.00326274
0.000171959
0.000422232
0.000662534
0.000858109
0.00101247
0.0011355
0.00123528
0.00131712
0.00138634
0.00144745
0.00150432
0.00155997
0.00161674
0.00167632
0.00173929
0.00180645
0.00187794
0.00195353
0.00203286
0.00211545
0.00220081
0.00228844
0.00237772
0.00246872
0.00256091
0.00265393
0.00274749
0.00284138
0.0029354
0.00302937
0.00312313
0.00321652
0.0033094
0.00340162
0.00349305
0.00358354
0.00367299
0.00376125
0.00384824
0.00393383
0.00401724
0.00409869
0.00417818
0.00425562
0.00433094
0.00440407
0.00447494
0.00454341
0.00460929
0.00467253
0.00473307
0.00479086
0.00484584
0.00489795
0.00494713
0.00499331
0.00503647
0.00507655
0.00511351
0.00514731
0.00517795
0.00520539
0.00522964
0.0052507
0.0052686
0.00528338
0.00529509
0.00530381
0.00530964
0.00531271
0.00531316
0.00531118
0.00530696
0.00530076
0.00529285
0.00528351
0.00527307
0.00526187
0.00525023
0.0052385