/*--------------------------------*- C++ -*----------------------------------*\
  =========                 |
  \\      /  F ield         | OpenFOAM: The Open Source CFD Toolbox
   \\    /   O peration     | Website:  https://openfoam.org
    \\  /    A nd           | Version:  8
     \\/     M anipulation  |
\*---------------------------------------------------------------------------*/
FoamFile
{
    version     2.0;
    format      ascii;
    class       volScalarField;
    location    "65";
    object      p;
}
// * * * * * * * * * * * * * * * * * * * * * * * * * * * * * * * * * * * * * //

dimensions      [0 2 -2 0 0 0 0];

internalField   nonuniform List<scalar> 
12225
(
-1.51088
-3.69651
-4.79086
-5.10305
-5.27489
-5.42992
-5.54326
-5.6202
-5.67628
-5.716
-5.74014
-5.75435
-5.75891
-5.75099
-5.72431
-5.6606
-5.58263
-5.3198
-4.67343
-5.43946
-5.59538
-5.49419
-5.47166
-5.52581
-5.58559
-5.63306
-5.6718
-5.70138
-5.72057
-5.73146
-5.73488
-5.72682
-5.70266
-5.64846
-5.58316
-5.45355
-5.07434
-5.0583
-5.18037
-5.24934
-5.33432
-5.44122
-5.53143
-5.59798
-5.64838
-5.68593
-5.71172
-5.72807
-5.73624
-5.73272
-5.7148
-5.6747
-5.63138
-5.57595
-4.95336
-4.89472
-5.12996
-5.28002
-5.37225
-5.46529
-5.54637
-5.60804
-5.65509
-5.69098
-5.71685
-5.73419
-5.74377
-5.74281
-5.73029
-5.70348
-5.67913
-5.6593
-4.94407
-4.96594
-5.18838
-5.32229
-5.39604
-5.47474
-5.54964
-5.60918
-5.6553
-5.69126
-5.71828
-5.73739
-5.74918
-5.752
-5.74608
-5.73214
-5.72319
-5.72764
-5.00308
-5.0495
-5.21879
-5.33437
-5.40601
-5.4808
-5.55297
-5.61181
-5.65805
-5.69454
-5.72271
-5.74361
-5.75795
-5.76507
-5.76601
-5.76326
-5.7669
-5.78633
-5.06465
-5.1066
-5.23677
-5.34444
-5.41908
-5.49075
-5.55908
-5.61663
-5.66293
-5.69987
-5.72907
-5.75186
-5.76916
-5.78095
-5.78856
-5.7951
-5.80819
-5.83451
-5.11975
-5.15519
-5.26016
-5.36015
-5.4348
-5.50237
-5.56645
-5.62258
-5.66905
-5.7066
-5.73697
-5.76192
-5.78254
-5.79907
-5.81282
-5.82679
-5.84656
-5.87681
-5.17146
-5.20247
-5.28867
-5.37881
-5.4509
-5.5148
-5.57528
-5.63002
-5.67657
-5.71483
-5.74658
-5.77389
-5.79791
-5.81893
-5.8381
-5.858
-5.88278
-5.91535
-5.221
-5.24825
-5.31938
-5.39926
-5.46769
-5.52851
-5.58606
-5.63934
-5.68579
-5.72477
-5.75804
-5.78773
-5.81501
-5.84017
-5.86412
-5.88884
-5.91729
-5.95159
-5.26835
-5.29201
-5.35101
-5.42161
-5.48591
-5.54374
-5.5987
-5.65056
-5.69684
-5.73662
-5.77144
-5.80342
-5.83369
-5.86263
-5.89079
-5.91953
-5.95099
-5.98637
-5.30972
-5.33031
-5.38051
-5.44358
-5.50393
-5.55901
-5.6117
-5.66227
-5.70847
-5.74913
-5.78541
-5.81923
-5.85193
-5.88378
-5.91533
-5.94727
-5.98104
-6.0176
-5.3487
-5.36677
-5.40995
-5.46613
-5.52265
-5.57535
-5.62592
-5.67505
-5.72112
-5.76288
-5.80079
-5.83651
-5.87104
-5.90536
-5.93967
-5.97455
-6.01064
-6.04832
-5.39066
-5.40636
-5.44333
-5.49261
-5.54488
-5.59544
-5.64406
-5.69141
-5.73703
-5.78008
-5.82043
-5.85833
-5.89492
-5.93124
-5.96815
-6.00577
-6.04441
-6.0836
-5.43474
-5.44824
-5.48006
-5.52306
-5.5708
-5.61924
-5.66651
-5.7122
-5.75695
-5.80113
-5.84416
-5.885
-5.92391
-5.96206
-6.00098
-6.04101
-6.08218
-6.12342
-5.47949
-5.49123
-5.51874
-5.55675
-5.60015
-5.64635
-5.69288
-5.73791
-5.78186
-5.8266
-5.87195
-5.91628
-5.95802
-5.99836
-6.03877
-6.08073
-6.124
-6.16761
-5.52251
-5.53291
-5.55732
-5.59201
-5.63213
-5.67605
-5.72229
-5.76782
-5.81192
-5.85685
-5.90394
-5.95134
-5.99672
-6.03964
-6.08184
-6.12515
-6.17042
-6.21619
-5.55986
-5.56955
-5.59225
-5.62535
-5.66398
-5.7066
-5.75294
-5.79987
-5.84537
-5.89125
-5.93979
-5.98979
-6.03856
-6.08457
-6.12905
-6.1739
-6.22073
-6.26828
-5.58467
-5.59453
-5.61733
-5.65086
-5.69049
-5.7341
-5.78168
-5.83076
-5.87892
-5.92718
-5.97785
-6.03027
-6.0819
-6.1309
-6.17805
-6.22516
-6.27385
-6.32317
-5.58426
-5.59518
-5.6203
-5.65702
-5.70038
-5.74754
-5.79801
-5.84975
-5.90096
-5.95247
-6.00596
-6.0605
-6.11392
-6.16484
-6.21434
-6.26389
-6.31461
-6.36544
-5.56844
-5.58065
-5.60915
-5.65053
-5.69872
-5.75019
-5.80404
-5.85873
-5.91309
-5.96792
-6.02389
-6.07994
-6.1342
-6.18644
-6.23773
-6.28942
-6.34173
-6.39372
-5.54152
-5.55493
-5.58801
-5.63646
-5.69114
-5.74724
-5.80439
-5.86208
-5.91987
-5.97809
-6.03645
-6.09353
-6.14845
-6.20169
-6.25466
-6.30802
-6.36145
-6.41387
-5.50707
-5.52068
-5.55916
-5.61753
-5.68045
-5.74167
-5.80216
-5.86272
-5.92351
-5.98448
-6.04461
-6.10253
-6.15811
-6.2126
-6.26718
-6.32197
-6.37608
-6.42861
-5.46773
-5.48053
-5.52671
-5.59613
-5.66605
-5.73268
-5.79842
-5.86311
-5.9267
-5.9894
-6.0503
-6.10854
-6.16466
-6.2202
-6.276
-6.33162
-6.38602
-6.43848
-5.42386
-5.43114
-5.49867
-5.58234
-5.6521
-5.71987
-5.79109
-5.86117
-5.92827
-5.99283
-6.05455
-6.11319
-6.16993
-6.22632
-6.28279
-6.33862
-6.39275
-6.44496
-5.38262
-5.34794
-5.462
-5.57934
-5.65047
-5.71505
-5.78666
-5.85816
-5.92656
-5.99217
-6.05451
-6.11372
-6.17132
-6.22868
-6.28583
-6.3418
-6.39565
-6.44749
-5.39801
-5.24123
-5.37402
-5.53374
-5.63354
-5.71526
-5.79375
-5.86627
-5.9343
-5.99946
-6.06105
-6.11945
-6.17664
-6.23407
-6.2913
-6.34702
-6.4003
-6.45145
-5.52145
-5.34363
-5.36313
-5.43977
-5.53675
-5.64666
-5.74738
-5.83311
-5.91049
-5.98278
-6.04925
-6.11064
-6.16999
-6.22953
-6.28875
-6.34595
-6.40035
-6.45267
-5.22913
-5.8218
-5.91674
-5.79813
-5.75217
-5.78934
-5.84591
-5.90115
-5.95893
-6.01884
-6.07661
-6.13112
-6.18506
-6.24072
-6.2972
-6.35213
-6.4042
-6.45522
-2.24119
-4.00614
-5.01468
-5.32027
-5.4787
-5.63198
-5.75503
-5.84777
-5.92844
-6.00338
-6.07099
-6.13191
-6.19016
-6.24903
-6.30816
-6.36492
-6.41714
-6.4631
-7.76908
-7.74042
-7.72761
-7.74974
-7.78473
-7.82066
-7.85776
-7.89536
-7.92912
-7.95801
-7.98213
-8.00235
-8.01877
-8.03242
-8.04556
-8.06002
-8.07553
-8.09104
-8.10679
-8.12506
-8.14682
-8.17246
-8.20204
-8.23678
-8.27727
-8.32526
-8.38335
-8.45523
-8.5434
-8.65019
-8.77585
-8.92088
-9.08329
-9.26196
-9.45317
-9.65529
-9.86404
-10.0782
-10.2939
-10.5108
-10.7256
-10.9388
-11.1477
-11.3535
-11.5538
-11.7506
-11.9416
-12.1287
-12.3097
-12.4868
-12.6578
-12.8246
-12.9848
-13.1399
-13.2874
-13.4291
-13.5618
-13.6871
-13.802
-13.9083
-14.0025
-14.086
-14.1555
-14.2122
-14.2529
-14.2784
-14.285
-14.2728
-14.2375
-14.1784
-14.091
-13.974
-13.8233
-13.6378
-13.4135
-13.1495
-12.8427
-12.4926
-12.0969
-11.6553
-11.1665
-10.6309
-10.0487
-9.42082
-8.74927
-8.03562
-7.28374
-6.49686
-5.68051
-4.83982
-3.97898
-3.10353
-2.21881
-1.33074
-0.444758
0.433379
1.29867
2.14603
2.97135
3.77057
4.54087
5.27959
5.98494
6.65531
7.28966
7.88755
8.44901
8.9747
9.46551
9.9228
10.3479
10.7426
11.1083
11.4469
11.7601
12.0497
12.3175
12.565
12.7941
13.0065
13.204
13.3879
13.5588
13.7173
13.8643
14.0008
14.1277
14.2461
14.3565
14.46
14.5571
14.6482
14.7339
14.8149
14.8917
14.9645
15.0332
15.0985
15.1609
15.2208
15.2777
15.332
15.384
15.4338
15.4811
15.5264
15.5698
15.6116
15.6518
15.69
15.7262
15.761
15.7943
15.8269
15.858
15.887
15.9147
15.9414
15.9669
15.9912
16.0142
16.036
16.0564
16.0765
16.0956
16.1126
16.1292
16.1452
16.1597
16.1746
16.1904
16.2045
16.2191
16.2366
16.2571
16.2855
16.3263
16.3826
16.4712
16.5876
-7.79115
-7.78217
-7.78678
-7.8109
-7.8455
-7.88195
-7.91705
-7.94796
-7.97502
-7.99796
-8.01375
-8.02142
-8.02396
-8.02472
-8.02515
-8.02725
-8.03168
-8.0393
-8.04924
-8.06037
-8.07323
-8.09025
-8.11314
-8.1425
-8.17806
-8.22186
-8.27825
-8.35159
-8.44477
-8.55963
-8.69588
-8.85248
-9.0264
-9.21495
-9.41424
-9.62185
-9.83413
-10.0494
-10.2648
-10.4795
-10.6916
-10.9009
-11.1059
-11.3073
-11.5038
-11.6964
-11.884
-12.0677
-12.2463
-12.4211
-12.5909
-12.7565
-12.9168
-13.0722
-13.2215
-13.3651
-13.5013
-13.6303
-13.7504
-13.8617
-13.9623
-14.0519
-14.1284
-14.1916
-14.2392
-14.2707
-14.2834
-14.2763
-14.2461
-14.1916
-14.1094
-13.998
-13.8546
-13.6776
-13.4646
-13.2137
-12.9222
-12.5885
-12.2103
-11.7865
-11.3162
-10.7992
-10.2357
-9.62624
-8.97264
-8.27657
-7.54097
-6.76916
-5.96636
-5.13674
-4.28534
-3.41708
-2.53763
-1.65259
-0.767687
0.111477
0.979579
1.83161
2.66309
3.46993
4.24904
4.9975
5.71345
6.3948
7.0407
7.65021
8.22357
8.76097
9.26357
9.73224
10.1686
10.574
10.9502
11.2988
11.6217
11.9205
12.197
12.4528
12.6895
12.9084
13.111
13.2985
13.4728
13.6346
13.7849
13.9247
14.055
14.1765
14.2902
14.3967
14.4964
14.5902
14.6786
14.7622
14.8412
14.9158
14.9867
15.0542
15.1185
15.1799
15.2385
15.2945
15.3477
15.3987
15.4475
15.4941
15.5391
15.582
15.6225
15.6614
15.699
15.7352
15.77
15.803
15.8344
15.8646
15.893
15.9203
15.9465
15.9715
15.9952
16.0177
16.0396
16.0599
16.0789
16.0974
16.1143
16.1303
16.1466
16.1619
16.1761
16.1915
16.208
16.2263
16.249
16.2765
16.3127
16.3622
16.4471
16.5481
-7.83124
-7.83217
-7.83961
-7.85924
-7.88779
-7.91826
-7.94652
-7.97072
-7.98997
-8.0041
-8.0125
-8.01526
-8.01321
-8.00802
-8.00133
-7.99486
-7.98952
-7.9859
-7.98461
-7.9871
-7.99576
-8.01344
-8.04259
-8.08478
-8.14027
-8.20926
-8.29246
-8.39103
-8.5056
-8.63649
-8.78277
-8.94323
-9.11549
-9.29779
-9.48758
-9.6833
-9.88249
-10.084
-10.286
-10.4877
-10.6877
-10.8859
-11.081
-11.2735
-11.4624
-11.648
-11.8298
-12.0083
-12.1827
-12.3537
-12.5205
-12.6836
-12.8421
-12.9964
-13.1453
-13.2892
-13.4266
-13.5577
-13.681
-13.7962
-13.9017
-13.9971
-14.0805
-14.1512
-14.2072
-14.2473
-14.2694
-14.2717
-14.2518
-14.2077
-14.1368
-14.0373
-13.9067
-13.7433
-13.5447
-13.3091
-13.0339
-12.7172
-12.357
-11.9517
-11.5004
-11.0026
-10.4582
-9.86771
-9.23253
-8.55426
-7.83531
-7.07914
-6.28993
-5.47257
-4.63127
-3.77109
-2.89791
-2.01691
-1.13421
-0.255091
0.614664
1.47031
2.30685
3.12042
3.9074
4.66484
5.39047
6.08208
6.73873
7.35926
7.94398
8.49274
9.00674
9.48655
9.93388
10.3498
10.7363
11.0947
11.4271
11.735
12.0204
12.2846
12.5295
12.7566
12.9674
13.1631
13.345
13.5139
13.6711
13.8174
13.9538
14.0809
14.1997
14.3108
14.4151
14.5132
14.6056
14.6927
14.775
14.8528
14.9269
14.9971
15.0639
15.1276
15.1884
15.2464
15.3016
15.3544
15.405
15.4532
15.4995
15.5436
15.5858
15.6264
15.6656
15.7029
15.7384
15.7722
15.8045
15.8358
15.8652
15.8935
15.9207
15.9466
15.9711
15.9944
16.0167
16.0375
16.0572
16.0762
16.0939
16.1107
16.1274
16.1433
16.1584
16.1747
16.1921
16.2107
16.2328
16.2592
16.2932
16.3379
16.4083
16.4744
-7.84227
-7.85738
-7.86957
-7.88581
-7.90765
-7.93084
-7.95197
-7.96948
-7.98241
-7.99039
-7.99333
-7.99172
-7.9863
-7.97837
-7.96936
-7.96095
-7.95453
-7.95152
-7.95339
-7.9623
-7.98049
-8.01047
-8.05406
-8.1124
-8.1854
-8.27262
-8.37325
-8.48687
-8.61274
-8.75048
-8.89899
-9.05749
-9.22438
-9.39868
-9.57858
-9.76319
-9.9507
-10.1404
-10.3309
-10.5217
-10.7116
-10.9005
-11.0874
-11.2726
-11.4552
-11.6354
-11.8127
-11.9874
-12.1589
-12.3275
-12.4926
-12.6544
-12.8123
-12.9664
-13.1158
-13.2606
-13.3997
-13.5329
-13.6591
-13.7778
-13.8877
-13.988
-14.0772
-14.1542
-14.2174
-14.2653
-14.2958
-14.3071
-14.297
-14.2632
-14.2036
-14.1159
-13.9979
-13.8475
-13.6624
-13.4404
-13.1792
-12.8766
-12.5307
-12.1398
-11.7028
-11.219
-10.6881
-10.1106
-9.48757
-8.8205
-8.11169
-7.36427
-6.58257
-5.77062
-4.93348
-4.07616
-3.20397
-2.32281
-1.43828
-0.55631
0.317725
1.17849
2.02128
2.84183
3.63648
4.40211
5.13606
5.83638
6.50157
7.13097
7.72433
8.28196
8.80449
9.29289
9.74842
10.1725
10.5668
10.9329
11.2727
11.5879
11.8803
12.1514
12.403
12.6366
12.8537
13.0553
13.2427
13.4169
13.5791
13.73
13.8707
14.0019
14.1246
14.2394
14.3472
14.4485
14.5438
14.6336
14.7186
14.799
14.8753
14.9477
15.0165
15.0821
15.1447
15.2043
15.2612
15.3156
15.3675
15.417
15.4644
15.5098
15.5534
15.5952
15.6352
15.6733
15.7096
15.7444
15.7778
15.8098
15.8402
15.8693
15.8972
15.9237
15.9489
15.9727
15.9954
16.0169
16.0372
16.0567
16.075
16.0924
16.1094
16.1257
16.1417
16.1583
16.1756
16.194
16.2151
16.2396
16.2706
16.3085
16.3622
16.3996
-7.78408
-7.81283
-7.83473
-7.85343
-7.87426
-7.89507
-7.91308
-7.92714
-7.93681
-7.94213
-7.94347
-7.94166
-7.93779
-7.9332
-7.92932
-7.92779
-7.93022
-7.93837
-7.95374
-7.97809
-8.01291
-8.05961
-8.11904
-8.19173
-8.27736
-8.37557
-8.48543
-8.60634
-8.73721
-8.87745
-9.02585
-9.18172
-9.34369
-9.51116
-9.68277
-9.85801
-10.0355
-10.2151
-10.3954
-10.5764
-10.7569
-10.9373
-11.1164
-11.2946
-11.471
-11.6461
-11.819
-11.9902
-12.159
-12.3256
-12.4895
-12.6508
-12.8088
-12.9636
-13.1144
-13.2611
-13.4028
-13.5392
-13.6692
-13.7923
-13.9072
-14.0131
-14.1086
-14.1926
-14.2633
-14.3194
-14.3587
-14.3796
-14.3797
-14.3568
-14.3087
-14.2331
-14.1275
-13.9898
-13.8174
-13.6081
-13.3594
-13.0691
-12.735
-12.3556
-11.9293
-11.4554
-10.9336
-10.364
-9.74752
-9.08574
-8.38082
-7.6359
-6.85466
-6.04239
-5.20279
-4.34208
-3.46516
-2.57836
-1.68716
-0.79795
0.0839826
0.952905
1.80418
2.63332
3.43644
4.2105
4.95237
5.6605
6.3329
6.96952
7.56952
8.13386
8.66254
9.15721
9.61855
10.0486
10.4485
10.8203
11.1655
11.486
11.7831
12.059
12.3149
12.5526
12.7733
12.9785
13.1691
13.3464
13.5114
13.6651
13.8084
13.9423
14.0673
14.1846
14.2945
14.3979
14.4951
14.5869
14.6736
14.7558
14.8336
14.9075
14.9778
15.0449
15.1088
15.1698
15.2279
15.2833
15.3363
15.387
15.4354
15.4819
15.5264
15.569
15.6098
15.6486
15.6858
15.7215
15.7557
15.7884
15.8195
15.8492
15.8776
15.9047
15.9304
15.9548
15.978
16
16.0209
16.0408
16.0596
16.0774
16.0946
16.1111
16.1273
16.1438
16.1607
16.1784
16.198
16.2203
16.2468
16.2767
16.3149
16.3297
-7.66096
-7.70628
-7.74384
-7.76984
-7.7933
-7.81467
-7.8323
-7.84563
-7.85479
-7.8605
-7.86372
-7.86569
-7.86779
-7.87147
-7.87818
-7.88941
-7.90657
-7.93105
-7.96405
-8.00666
-8.0596
-8.12354
-8.19861
-8.28486
-8.38179
-8.48901
-8.60558
-8.73099
-8.86416
-9.00461
-9.15122
-9.30358
-9.46054
-9.62176
-9.78614
-9.95349
-10.1227
-10.2938
-10.4657
-10.6385
-10.8113
-10.9844
-11.1569
-11.3292
-11.5004
-11.671
-11.8403
-12.0085
-12.1751
-12.3404
-12.5036
-12.6649
-12.8237
-12.98
-13.1329
-13.2824
-13.4276
-13.5681
-13.7028
-13.8313
-13.9522
-14.0647
-14.1675
-14.2593
-14.3384
-14.4035
-14.4525
-14.4835
-14.4944
-14.4829
-14.4467
-14.3834
-14.2904
-14.1653
-14.0056
-13.8086
-13.5719
-13.2931
-12.9699
-12.6004
-12.1831
-11.717
-11.2015
-10.6367
-10.0234
-9.36314
-8.65798
-7.91093
-7.12654
-6.30822
-5.46223
-4.59319
-3.70726
-2.81026
-1.90863
-1.00835
-0.115521
0.764391
1.62628
2.46558
3.27839
4.0612
4.8114
5.52677
6.20619
6.84889
7.45489
8.02445
8.55841
9.05782
9.52403
9.95852
10.3629
10.7387
11.0878
11.4117
11.7122
11.9911
12.2499
12.4901
12.7132
12.9204
13.1129
13.292
13.4587
13.6141
13.7591
13.8945
14.0212
14.1399
14.2512
14.356
14.4547
14.5478
14.6358
14.7192
14.7982
14.8733
14.9448
15.0129
15.0779
15.1398
15.1988
15.2552
15.3091
15.3607
15.4101
15.4574
15.5028
15.5462
15.5877
15.6274
15.6655
15.7019
15.7367
15.77
15.8018
15.8321
15.861
15.8886
15.9149
15.9398
15.9635
15.9861
16.0074
16.0277
16.0468
16.0649
16.0823
16.099
16.1151
16.1312
16.1474
16.164
16.1819
16.2011
16.2227
16.2442
16.2686
16.2646
-7.49844
-7.55987
-7.61469
-7.65063
-7.6792
-7.70326
-7.72282
-7.73815
-7.74991
-7.75936
-7.76799
-7.77733
-7.7889
-7.80409
-7.82423
-7.85045
-7.88385
-7.92529
-7.9755
-8.03504
-8.10417
-8.18303
-8.27134
-8.36891
-8.47503
-8.58932
-8.71091
-8.83945
-8.97395
-9.11411
-9.25896
-9.40829
-9.56113
-9.71737
-9.87613
-10.0374
-10.2002
-10.3649
-10.5304
-10.697
-10.864
-11.0316
-11.1992
-11.367
-11.5344
-11.7018
-11.8685
-12.0349
-12.2004
-12.3651
-12.5285
-12.6907
-12.8511
-13.0096
-13.1655
-13.3186
-13.4681
-13.6135
-13.7538
-13.8885
-14.0163
-14.1364
-14.2472
-14.3477
-14.4361
-14.5109
-14.5702
-14.6121
-14.6344
-14.6348
-14.6108
-14.56
-14.4798
-14.3674
-14.2203
-14.0357
-13.8108
-13.5431
-13.2301
-12.8698
-12.4604
-12.0006
-11.4898
-10.9279
-10.3157
-9.65434
-8.94615
-8.19434
-7.40256
-6.57615
-5.71973
-4.83914
-3.94081
-3.03061
-2.11551
-1.20161
-0.295471
0.597344
1.47147
2.3221
3.1454
3.93746
4.69615
5.41886
6.10513
6.75372
7.36537
7.93983
8.47865
8.98227
9.45261
9.89056
10.2983
10.6769
11.0287
11.3549
11.6577
11.9385
12.1991
12.4409
12.6654
12.8738
13.0676
13.2477
13.4155
13.5719
13.7179
13.8543
13.982
14.1017
14.2141
14.3198
14.4195
14.5136
14.6026
14.6869
14.7669
14.8429
14.9153
14.9842
15.05
15.1127
15.1726
15.2298
15.2845
15.3369
15.3871
15.4352
15.4813
15.5255
15.5678
15.6083
15.6472
15.6843
15.7198
15.7537
15.7861
15.817
15.8466
15.8747
15.9016
15.9271
15.9513
15.9743
15.996
16.0166
16.0361
16.0544
16.0719
16.0886
16.1045
16.1201
16.1354
16.1507
16.1663
16.1821
16.1984
16.2118
16.2242
16.2045
-7.32838
-7.40206
-7.47198
-7.51783
-7.55266
-7.58096
-7.60411
-7.62346
-7.6402
-7.65589
-7.67228
-7.69099
-7.71357
-7.74121
-7.77501
-7.81575
-7.86416
-7.92065
-7.9856
-8.0591
-8.14109
-8.23144
-8.32973
-8.43564
-8.54851
-8.66799
-8.79321
-8.92392
-9.05922
-9.199
-9.34238
-9.48933
-9.63905
-9.79158
-9.94616
-10.103
-10.2612
-10.4212
-10.5821
-10.7444
-10.9072
-11.0711
-11.2353
-11.4003
-11.5654
-11.731
-11.8966
-12.0624
-12.2278
-12.3932
-12.5579
-12.722
-12.8849
-13.0466
-13.2064
-13.364
-13.5185
-13.6698
-13.8165
-13.9583
-14.0937
-14.2221
-14.3417
-14.4516
-14.55
-14.6353
-14.7056
-14.759
-14.7932
-14.8059
-14.7946
-14.7567
-14.6894
-14.59
-14.4556
-14.2832
-14.07
-13.8132
-13.5102
-13.1585
-12.7563
-12.302
-11.7948
-11.2345
-10.6216
-9.95739
-9.24416
-8.48498
-7.68418
-6.84615
-5.97696
-5.08254
-4.1691
-3.24356
-2.31266
-1.3834
-0.46223
0.444793
1.33213
2.19501
3.02908
3.83108
4.5982
5.32883
6.02178
6.67677
7.2938
7.87341
8.4164
8.92392
9.39736
9.83823
10.2482
10.629
10.9825
11.3103
11.6144
11.8964
12.158
12.4007
12.626
12.8351
13.0295
13.2103
13.3787
13.5357
13.6823
13.8193
13.9477
14.068
14.1812
14.2876
14.388
14.4829
14.5726
14.6577
14.7384
14.8152
14.8883
14.958
15.0245
15.0879
15.1485
15.2064
15.2618
15.3149
15.3658
15.4146
15.4614
15.5063
15.5494
15.5907
15.6302
15.6681
15.7043
15.7389
15.772
15.8036
15.8338
15.8626
15.89
15.916
15.9408
15.9642
15.9864
16.0073
16.027
16.0456
16.0631
16.0797
16.0953
16.1103
16.1245
16.1381
16.1513
16.1634
16.1743
16.1801
16.1821
16.1496
-7.17979
-7.25924
-7.33934
-7.39301
-7.43385
-7.46668
-7.49389
-7.51781
-7.54023
-7.56283
-7.58736
-7.61534
-7.64824
-7.68704
-7.73264
-7.78548
-7.84603
-7.91436
-7.99055
-8.07445
-8.16587
-8.26451
-8.36988
-8.48165
-8.59911
-8.72198
-8.84948
-8.98147
-9.11714
-9.25646
-9.39868
-9.54389
-9.69136
-9.84127
-9.99298
-10.1467
-10.3018
-10.4587
-10.6166
-10.7761
-10.9364
-11.0981
-11.2605
-11.424
-11.5882
-11.7534
-11.919
-12.0854
-12.2521
-12.4192
-12.5862
-12.7533
-12.9198
-13.0856
-13.2501
-13.4131
-13.5736
-13.7314
-13.8854
-14.0349
-14.1788
-14.3161
-14.4453
-14.5652
-14.6742
-14.7706
-14.8524
-14.9178
-14.9643
-14.9898
-14.9915
-14.9667
-14.9127
-14.8264
-14.7048
-14.5449
-14.3435
-14.0975
-13.8042
-13.4608
-13.0653
-12.6159
-12.1114
-11.5516
-10.9369
-10.2684
-9.54848
-8.78031
-7.96784
-7.11706
-6.23287
-5.32253
-4.39228
-3.44959
-2.50153
-1.55556
-0.618366
0.303731
1.20491
2.0805
2.92577
3.73797
4.51393
5.25278
5.95271
6.61408
7.23623
7.82048
8.36704
8.87783
9.35366
9.79677
10.2083
10.5906
10.945
11.2739
11.5787
11.8614
12.1234
12.3666
12.5921
12.8016
12.9961
13.1773
13.346
13.5034
13.6503
13.7878
13.9165
14.0374
14.151
14.258
14.359
14.4544
14.5448
14.6305
14.7118
14.7893
14.863
14.9334
15.0004
15.0645
15.1258
15.1843
15.2404
15.2942
15.3458
15.3952
15.4427
15.4883
15.532
15.574
15.6143
15.6528
15.6898
15.7252
15.759
15.7913
15.8222
15.8517
15.8797
15.9063
15.9316
15.9556
15.9782
15.9994
16.0194
16.0382
16.0557
16.0721
16.0873
16.1015
16.1145
16.1263
16.1368
16.1451
16.1506
16.1494
16.1424
16.0995
-7.06784
-7.14684
-7.23162
-7.28899
-7.33345
-7.36991
-7.40087
-7.42915
-7.45685
-7.48567
-7.51722
-7.5529
-7.594
-7.64134
-7.69566
-7.7572
-7.82627
-7.90272
-7.98655
-8.07742
-8.17504
-8.27904
-8.38891
-8.50428
-8.62451
-8.74938
-8.87816
-9.01077
-9.14648
-9.28537
-9.42671
-9.57068
-9.71667
-9.86489
-10.0148
-10.1666
-10.3199
-10.475
-10.6313
-10.7893
-10.9485
-11.1093
-11.2712
-11.4346
-11.5991
-11.7651
-11.932
-12.1002
-12.269
-12.439
-12.6094
-12.7803
-12.9512
-13.1221
-13.2922
-13.4613
-13.6286
-13.7937
-13.9555
-14.1135
-14.2663
-14.4131
-14.5523
-14.6828
-14.8028
-14.9107
-15.0045
-15.0822
-15.1414
-15.1799
-15.1949
-15.1835
-15.1429
-15.0699
-14.9613
-14.8138
-14.6241
-14.389
-14.1052
-13.7699
-13.3807
-12.9356
-12.4332
-11.873
-11.2554
-10.5815
-9.8535
-9.07469
-8.24994
-7.38385
-6.48383
-5.556
-4.60783
-3.64679
-2.68078
-1.71733
-0.763567
0.173921
1.0894
1.97766
2.83472
3.65703
4.44232
5.18882
5.89572
6.56254
7.18959
7.77747
8.32726
8.84031
9.31818
9.7626
10.1754
10.5583
10.9135
11.2427
11.5478
11.8307
12.0929
12.336
12.5616
12.771
12.9657
13.147
13.3158
13.4733
13.6205
13.7582
13.8872
14.0085
14.1224
14.2299
14.3314
14.4273
14.5182
14.6044
14.6864
14.7644
14.8388
14.9097
14.9774
15.0421
15.104
15.1632
15.2199
15.2744
15.3266
15.3767
15.4249
15.4711
15.5155
15.5582
15.5991
15.6384
15.6761
15.7122
15.7468
15.7799
15.8115
15.8417
15.8704
15.8977
15.9235
15.948
15.9711
15.9927
16.013
16.0319
16.0494
16.0656
16.0803
16.0936
16.1053
16.1152
16.1228
16.1273
16.1277
16.1199
16.1051
16.0536
-6.9961
-7.07134
-7.15261
-7.20983
-7.25468
-7.29271
-7.32639
-7.35816
-7.39002
-7.42359
-7.46031
-7.50141
-7.54804
-7.60089
-7.66064
-7.72743
-7.8015
-7.88262
-7.97071
-8.06539
-8.16635
-8.27313
-8.38526
-8.50239
-8.62393
-8.74966
-8.87891
-9.01165
-9.1472
-9.28567
-9.4264
-9.56962
-9.7147
-9.86199
-10.0109
-10.1619
-10.3144
-10.4688
-10.6246
-10.7824
-10.9416
-11.1027
-11.2653
-11.4298
-11.5957
-11.7636
-11.9327
-12.1037
-12.2758
-12.4495
-12.624
-12.7998
-12.9759
-13.1525
-13.3289
-13.5048
-13.6794
-13.8523
-14.0225
-14.1894
-14.3516
-14.5083
-14.6579
-14.7993
-14.9306
-15.0503
-15.1562
-15.2464
-15.3185
-15.37
-15.3983
-15.4003
-15.3731
-15.3133
-15.2175
-15.0824
-14.9043
-14.6797
-14.4051
-14.0775
-13.694
-13.2526
-12.7515
-12.1902
-11.5687
-10.8883
-10.1513
-9.36104
-8.52208
-7.64081
-6.7235
-5.77759
-4.81087
-3.8312
-2.84695
-1.86598
-0.895583
0.0573248
0.987067
1.88793
2.75635
3.5883
4.38221
5.1357
5.84871
6.52019
7.15126
7.74195
8.29419
8.80876
9.28799
9.73309
10.1465
10.5297
10.8851
11.2142
11.5194
11.8021
12.0642
12.307
12.5325
12.7418
12.9366
13.1177
13.2866
13.4442
13.5915
13.7294
13.8588
13.9802
14.0946
14.2024
14.3044
14.4008
14.4922
14.579
14.6615
14.7401
14.815
14.8865
14.9548
15.0201
15.0826
15.1425
15.1999
15.255
15.3079
15.3587
15.4076
15.4545
15.4996
15.543
15.5846
15.6246
15.6631
15.7
15.7353
15.7692
15.8015
15.8324
15.8618
15.8897
15.9162
15.9412
15.9648
15.9869
16.0075
16.0266
16.0441
16.06
16.0741
16.0865
16.0967
16.1046
16.1094
16.1101
16.1057
16.0918
16.0701
16.0113
-6.96156
-7.03082
-7.10264
-7.1556
-7.19809
-7.2352
-7.26929
-7.30239
-7.33625
-7.3723
-7.41182
-7.45581
-7.50527
-7.5608
-7.62302
-7.69204
-7.76811
-7.85097
-7.94057
-8.03649
-8.13842
-8.24594
-8.35858
-8.476
-8.59764
-8.72331
-8.85239
-8.98485
-9.12005
-9.25812
-9.39842
-9.54121
-9.68595
-9.83293
-9.98167
-10.1326
-10.2852
-10.4399
-10.5963
-10.7548
-10.9151
-11.0776
-11.2418
-11.4084
-11.5767
-11.7472
-11.9196
-12.0941
-12.2703
-12.4485
-12.628
-12.8091
-12.9911
-13.1741
-13.3572
-13.5404
-13.7228
-13.904
-14.0829
-14.259
-14.4308
-14.5976
-14.7578
-14.9101
-15.0528
-15.1842
-15.3021
-15.4047
-15.4894
-15.5538
-15.5951
-15.6101
-15.5959
-15.5488
-15.4655
-15.3421
-15.175
-14.9603
-14.6944
-14.3736
-13.9952
-13.5566
-13.0561
-12.4929
-11.8669
-11.1794
-10.4326
-9.63027
-8.7774
-7.87992
-6.94551
-5.98178
-4.99662
-3.99858
-2.99626
-1.99795
-1.01141
-0.0434727
0.899481
1.8124
2.69083
3.53179
4.33279
5.09252
5.8101
6.48553
7.11919
7.71209
8.26554
8.78116
9.26074
9.70617
10.1194
10.5026
10.8577
11.1867
11.4915
11.7739
12.0356
12.2782
12.5035
12.7127
12.9073
13.0884
13.2573
13.415
13.5625
13.7006
13.8302
13.952
14.0668
14.175
14.2774
14.3743
14.4663
14.5536
14.6367
14.7159
14.7914
14.8635
14.9324
14.9984
15.0615
15.1221
15.1802
15.236
15.2896
15.3411
15.3906
15.4383
15.4841
15.5282
15.5706
15.6113
15.6506
15.6882
15.7244
15.759
15.7921
15.8237
15.8538
15.8824
15.9095
15.9352
15.9592
15.9818
16.0027
16.0219
16.0394
16.055
16.0686
16.0799
16.0886
16.0943
16.0964
16.0935
16.0845
16.0652
16.0373
15.9724
-6.95422
-7.01468
-7.07407
-7.12022
-7.15847
-7.1927
-7.22499
-7.25707
-7.29042
-7.32634
-7.36603
-7.41034
-7.46014
-7.51588
-7.57818
-7.64708
-7.72287
-7.8053
-7.89436
-7.98963
-8.09089
-8.19768
-8.30959
-8.42628
-8.54721
-8.6722
-8.80063
-8.93252
-9.06722
-9.2049
-9.34495
-9.48763
-9.63237
-9.77955
-9.92866
-10.0801
-10.2334
-10.3892
-10.5469
-10.707
-10.8691
-11.0338
-11.2006
-11.3699
-11.5414
-11.7156
-11.8919
-12.0708
-12.2516
-12.4349
-12.6199
-12.8069
-12.9952
-13.1849
-13.3751
-13.5659
-13.7563
-13.9459
-14.1336
-14.3189
-14.5004
-14.6772
-14.8477
-15.0108
-15.1645
-15.3073
-15.4369
-15.5514
-15.6482
-15.7248
-15.7783
-15.8056
-15.8035
-15.7684
-15.6966
-15.5842
-15.4273
-15.2217
-14.9635
-14.6489
-14.2748
-13.8385
-13.338
-12.7725
-12.1418
-11.4471
-10.6908
-9.87663
-9.00956
-8.09674
-7.14538
-6.16401
-5.16087
-4.14489
-3.12519
-2.11034
-1.10866
-0.126932
0.827945
1.75137
2.6384
3.48674
4.29339
5.05782
5.7786
6.45662
7.09171
7.68575
8.23949
8.75532
9.23454
9.67968
10.0923
10.4751
10.8296
11.1582
11.4625
11.7445
12.0057
12.2481
12.473
12.6822
12.8767
13.0579
13.2269
13.3848
13.5324
13.6709
13.8008
13.9231
14.0383
14.1471
14.2499
14.3474
14.4399
14.5279
14.6116
14.6914
14.7675
14.8403
14.9099
14.9765
15.0403
15.1016
15.1604
15.217
15.2713
15.3236
15.3739
15.4223
15.4689
15.5137
15.5569
15.5985
15.6385
15.6769
15.7139
15.7493
15.7831
15.8155
15.8463
15.8756
15.9034
15.9296
15.9542
15.9771
15.9984
16.0178
16.0352
16.0505
16.0635
16.0737
16.0809
16.0845
16.0838
16.0774
16.064
16.0399
16.0066
15.9365
-6.96222
-7.01241
-7.05849
-7.09599
-7.12832
-7.15797
-7.18664
-7.21586
-7.24686
-7.28069
-7.31843
-7.36087
-7.40884
-7.46275
-7.52317
-7.59014
-7.66397
-7.74439
-7.83146
-7.92477
-8.02413
-8.12912
-8.23937
-8.35452
-8.47409
-8.59792
-8.72541
-8.85656
-8.99074
-9.12812
-9.26807
-9.41087
-9.556
-9.70376
-9.85367
-10.0062
-10.1608
-10.3181
-10.4776
-10.6399
-10.8044
-10.9718
-11.1416
-11.3144
-11.4896
-11.6679
-11.8486
-12.0322
-12.2182
-12.407
-12.5979
-12.7911
-12.986
-13.1827
-13.3804
-13.5789
-13.7774
-13.9755
-14.172
-14.3665
-14.5576
-14.7442
-14.9249
-15.0985
-15.2629
-15.4167
-15.5575
-15.6833
-15.7916
-15.8797
-15.9447
-15.9836
-15.9928
-15.9688
-15.9077
-15.8055
-15.6579
-15.4606
-15.2093
-14.9001
-14.5295
-14.0948
-13.5938
-13.0254
-12.3894
-11.6872
-10.9208
-10.0945
-9.21368
-8.285
-7.31716
-6.31845
-5.29788
-4.2649
-3.22899
-2.19934
-1.18409
-0.190895
0.774126
1.7055
2.59939
3.45261
4.2633
5.03011
5.75276
6.4314
7.06692
7.66055
8.21391
8.72881
9.20725
9.65132
10.0632
10.4451
10.799
11.1269
11.4307
11.7122
11.9732
12.2153
12.4402
12.6493
12.8439
13.0253
13.1945
13.3528
13.5008
13.6397
13.7702
13.893
14.0088
14.1181
14.2216
14.3198
14.4129
14.5016
14.586
14.6664
14.7433
14.8167
14.887
14.9544
15.019
15.081
15.1406
15.1979
15.2531
15.3061
15.3572
15.4064
15.4538
15.4995
15.5435
15.5859
15.6267
15.666
15.7037
15.7399
15.7745
15.8076
15.8392
15.8692
15.8976
15.9244
15.9495
15.9729
15.9944
16.014
16.0314
16.0464
16.0586
16.0678
16.0735
16.0751
16.0716
16.0619
16.0445
16.0159
15.9778
15.9034
-6.97607
-7.01418
-7.0467
-7.07464
-7.09988
-7.12362
-7.14727
-7.17213
-7.19933
-7.22971
-7.26419
-7.30338
-7.34812
-7.39876
-7.45592
-7.5196
-7.59016
-7.66733
-7.75122
-7.84148
-7.93797
-8.04031
-8.14818
-8.26127
-8.3791
-8.50149
-8.62788
-8.75821
-8.89191
-9.02908
-9.16916
-9.31236
-9.45818
-9.6069
-9.75811
-9.91213
-10.0686
-10.228
-10.3899
-10.5547
-10.7222
-10.8927
-11.0661
-11.2426
-11.4219
-11.6046
-11.7901
-11.9788
-12.1703
-12.3648
-12.5619
-12.7616
-12.9635
-13.1673
-13.3725
-13.5788
-13.7855
-13.992
-14.1975
-14.401
-14.6014
-14.7977
-14.9884
-15.172
-15.3469
-15.5112
-15.6627
-15.7992
-15.9182
-16.017
-16.0927
-16.1421
-16.1616
-16.1476
-16.0962
-16.0028
-15.8634
-15.6729
-15.4271
-15.1216
-14.7531
-14.3184
-13.8154
-13.2428
-12.6005
-11.8895
-11.1129
-10.2742
-9.37938
-8.43583
-7.45192
-6.43703
-5.40057
-4.35261
-3.30285
-2.261
-1.23511
-0.233314
0.738766
1.67528
2.57313
3.42866
4.24083
5.00781
5.73022
6.40772
7.0421
7.63404
8.18595
8.6991
9.17612
9.6187
10.0295
10.4103
10.7635
11.0907
11.3942
11.6753
11.9363
12.1783
12.4035
12.6127
12.8077
12.9895
13.1593
13.318
13.4668
13.6064
13.7376
13.8611
13.9777
14.0878
14.1921
14.291
14.3849
14.4743
14.5595
14.6407
14.7183
14.7926
14.8637
14.9319
14.9973
15.0601
15.1206
15.1787
15.2347
15.2886
15.3406
15.3907
15.439
15.4855
15.5304
15.5736
15.6152
15.6553
15.6938
15.7308
15.7662
15.8001
15.8324
15.8631
15.8922
15.9195
15.9452
15.969
15.9908
16.0104
16.0277
16.0423
16.0539
16.0621
16.0663
16.0658
16.0599
16.047
16.0259
15.9931
15.9507
15.8728
-6.98869
-7.01396
-7.03351
-7.05155
-7.06876
-7.08558
-7.10308
-7.12236
-7.14433
-7.16974
-7.19948
-7.23406
-7.27427
-7.32035
-7.37301
-7.43222
-7.49844
-7.57143
-7.65139
-7.73796
-7.83108
-7.93037
-8.03555
-8.14634
-8.26223
-8.3831
-8.50833
-8.63793
-8.77122
-8.90842
-9.0488
-9.19269
-9.33946
-9.48953
-9.64228
-9.79823
-9.95687
-10.1187
-10.2833
-10.4512
-10.6219
-10.7961
-10.9733
-11.154
-11.3378
-11.5253
-11.7158
-11.91
-12.1071
-12.3077
-12.511
-12.7175
-12.9261
-13.1373
-13.3499
-13.5642
-13.7788
-13.9939
-14.2077
-14.4202
-14.6295
-14.8351
-15.0352
-15.2285
-15.413
-15.5872
-15.7484
-15.8947
-16.0234
-16.1318
-16.2168
-16.2753
-16.3035
-16.2981
-16.2543
-16.1681
-16.0349
-15.8491
-15.6067
-15.3028
-14.9344
-14.4981
-13.9918
-13.4137
-12.7642
-12.0444
-11.2571
-10.4066
-9.49869
-8.54112
-7.54303
-6.5142
-5.46472
-4.40485
-3.34492
-2.29435
-1.26197
-0.255005
0.720071
1.65863
2.55675
3.41201
4.22251
4.98767
5.70733
6.38229
7.01366
7.60304
8.15222
8.6632
9.13808
9.5791
9.98848
10.3683
10.7208
11.0476
11.3507
11.6319
11.893
12.1355
12.361
12.571
12.7667
12.9493
13.1199
13.2796
13.4293
13.5699
13.7021
13.8266
13.9441
14.0552
14.1605
14.2603
14.3553
14.4456
14.5316
14.6138
14.6923
14.7675
14.8395
14.9086
14.9749
15.0387
15.1
15.1591
15.216
15.2709
15.3238
15.3748
15.424
15.4714
15.5172
15.5613
15.6038
15.6447
15.6841
15.7219
15.7581
15.7927
15.8258
15.8572
15.8869
15.9149
15.941
15.9652
15.9872
16.007
16.0241
16.0383
16.0492
16.0563
16.0591
16.0568
16.0484
16.0327
16.0083
15.9718
15.9255
15.8445
-6.99208
-7.00639
-7.01475
-7.02346
-7.03235
-7.04158
-7.05208
-7.06473
-7.08032
-7.09953
-7.12324
-7.15197
-7.18652
-7.22715
-7.27453
-7.32873
-7.39016
-7.45867
-7.53443
-7.61717
-7.70683
-7.80305