/*--------------------------------*- C++ -*----------------------------------*\
  =========                 |
  \\      /  F ield         | OpenFOAM: The Open Source CFD Toolbox
   \\    /   O peration     | Website:  https://openfoam.org
    \\  /    A nd           | Version:  8
     \\/     M anipulation  |
\*---------------------------------------------------------------------------*/
FoamFile
{
    version     2.0;
    format      ascii;
    class       surfaceScalarField;
    location    "65";
    object      phi;
}
// * * * * * * * * * * * * * * * * * * * * * * * * * * * * * * * * * * * * * //

dimensions      [0 3 -1 0 0 0 0];

internalField   nonuniform List<scalar> 
24170
(
3.12881e-06
5.96041e-08
3.04635e-06
8.24671e-08
2.97292e-06
7.34466e-08
2.9038e-06
6.91348e-08
2.83884e-06
6.49839e-08
2.78072e-06
5.81363e-08
2.73045e-06
5.02812e-08
2.68737e-06
4.31024e-08
2.65035e-06
3.70407e-08
2.61831e-06
3.20544e-08
2.59022e-06
2.81059e-08
2.56513e-06
2.51138e-08
2.5422e-06
2.29469e-08
2.5206e-06
2.16265e-08
2.49946e-06
2.11571e-08
2.47637e-06
2.31057e-08
2.45086e-06
2.55203e-08
4.92318e-08
2.40164e-06
3.45312e-06
2.37339e-08
3.45694e-06
7.86718e-08
3.45032e-06
8.00769e-08
3.43864e-06
8.08445e-08
3.42353e-06
8.01072e-08
3.40585e-06
7.58389e-08
3.38606e-06
7.00903e-08
3.36483e-06
6.43675e-08
3.3428e-06
5.90849e-08
3.32057e-06
5.43147e-08
3.29856e-06
5.0135e-08
3.27703e-06
4.6678e-08
3.2561e-06
4.38976e-08
3.23572e-06
4.20304e-08
3.21596e-06
4.09386e-08
3.19648e-06
4.26058e-08
3.1778e-06
4.42207e-08
6.09582e-08
3.1661e-06
3.66822e-06
1.80299e-08
3.67903e-06
6.78685e-08
3.68507e-06
7.40481e-08
3.68883e-06
7.70875e-08
3.69006e-06
7.88866e-08
3.68864e-06
7.72778e-08
3.68492e-06
7.38193e-08
3.67936e-06
6.99318e-08
3.67234e-06
6.61133e-08
3.66416e-06
6.25073e-08
3.65506e-06
5.92528e-08
3.64522e-06
5.65232e-08
3.63479e-06
5.43468e-08
3.62382e-06
5.30088e-08
3.61227e-06
5.25013e-08
3.60059e-06
5.42941e-08
3.58775e-06
5.70738e-08
6.72604e-08
3.58146e-06
3.92582e-06
1.76013e-08
3.93573e-06
5.79778e-08
3.94214e-06
6.76414e-08
3.94737e-06
7.18828e-08
3.95136e-06
7.49011e-08
3.95379e-06
7.48664e-08
3.95482e-06
7.28057e-08
3.95469e-06
7.00813e-08
3.95357e-06
6.72522e-08
3.95158e-06
6.45161e-08
3.94882e-06
6.20278e-08
3.94538e-06
5.9981e-08
3.9413e-06
5.84441e-08
3.93665e-06
5.7684e-08
3.93137e-06
5.77893e-08
3.926e-06
5.96832e-08
3.92023e-06
6.28605e-08
6.95006e-08
3.918e-06
4.20813e-06
1.66026e-08
4.21577e-06
5.0344e-08
4.22121e-06
6.21987e-08
4.22596e-06
6.7138e-08
4.23026e-06
7.06143e-08
4.23366e-06
7.14708e-08
4.23613e-06
7.03341e-08
4.2378e-06
6.84252e-08
4.23873e-06
6.63278e-08
4.23899e-06
6.42584e-08
4.23865e-06
6.23797e-08
4.23776e-06
6.08817e-08
4.23634e-06
5.9866e-08
4.23448e-06
5.95533e-08
4.23221e-06
6.00682e-08
4.22997e-06
6.19362e-08
4.2279e-06
6.49334e-08
6.94882e-08
4.22792e-06
4.51062e-06
1.50749e-08
4.51665e-06
4.43246e-08
4.52163e-06
5.72345e-08
4.52606e-06
6.27165e-08
4.53028e-06
6.64022e-08
4.53392e-06
6.78412e-08
4.53687e-06
6.74032e-08
4.53917e-06
6.61364e-08
4.54089e-06
6.46241e-08
4.54206e-06
6.31001e-08
4.54272e-06
6.17287e-08
4.54293e-06
6.06879e-08
4.54271e-06
6.00948e-08
4.54215e-06
6.01224e-08
4.54135e-06
6.08832e-08
4.54065e-06
6.26446e-08
4.54034e-06
6.52514e-08
6.85082e-08
4.54132e-06
4.83424e-06
1.35615e-08
4.83938e-06
3.91814e-08
4.84422e-06
5.24031e-08
4.84852e-06
5.84182e-08
4.85264e-06
6.22918e-08
4.85631e-06
6.41672e-08
4.85942e-06
6.43002e-08
4.86199e-06
6.35735e-08
4.86406e-06
6.25586e-08
4.86566e-06
6.15011e-08
4.86684e-06
6.05646e-08
4.86762e-06
5.99121e-08
4.86805e-06
5.9663e-08
4.86824e-06
5.9946e-08
4.86828e-06
6.08423e-08
4.86847e-06
6.24606e-08
4.86907e-06
6.46528e-08
6.70615e-08
4.87052e-06
5.18096e-06
1.21881e-08
5.1855e-06
3.4652e-08
5.1902e-06
4.77097e-08
5.19444e-06
5.41942e-08
5.19848e-06
5.82582e-08
5.20218e-06
6.04822e-08
5.20538e-06
6.11059e-08
5.20811e-06
6.08595e-08
5.21039e-06
6.0286e-08
5.21227e-06
5.96402e-08
5.21376e-06
5.90854e-08
5.21491e-06
5.87685e-08
5.21579e-06
5.87994e-08
5.21647e-06
5.92704e-08
5.21709e-06
6.02285e-08
5.21787e-06
6.16894e-08
5.21901e-06
6.35175e-08
6.53291e-08
5.22074e-06
5.55261e-06
1.09214e-08
5.55663e-06
3.06337e-08
5.56113e-06
4.32086e-08
5.56532e-06
5.00155e-08
5.56933e-06
5.42534e-08
5.57305e-06
5.67603e-08
5.57635e-06
5.78112e-08
5.57922e-06
5.80036e-08
5.58168e-06
5.78331e-08
5.58376e-06
5.75596e-08
5.58551e-06
5.73455e-08
5.58697e-06
5.73208e-08
5.58819e-06
5.75824e-08
5.58927e-06
5.81913e-08
5.59034e-06
5.91675e-08
5.59155e-06
6.04818e-08
5.59307e-06
6.20052e-08
6.34042e-08
5.595e-06
5.95096e-06
9.7437e-09
5.95453e-06
2.70779e-08
5.95879e-06
3.89527e-08
5.96292e-06
4.5904e-08
5.96691e-06
5.02764e-08
5.97068e-06
5.30086e-08
5.97407e-06
5.44264e-08
5.97708e-06
5.50162e-08
5.97971e-06
5.52125e-08
5.98201e-06
5.52758e-08
5.984e-06
5.53632e-08
5.98574e-06
5.55957e-08
5.98728e-06
5.6046e-08
5.98873e-06
5.67572e-08
5.99017e-06
5.7728e-08
5.99175e-06
5.89109e-08
5.99355e-06
6.02021e-08
6.13224e-08
5.99564e-06
6.3779e-06
8.65546e-09
6.38109e-06
2.38991e-08
6.38511e-06
3.49318e-08
6.38917e-06
4.18541e-08
6.39315e-06
4.63093e-08
6.39695e-06
4.9214e-08
6.40045e-06
5.09362e-08
6.4036e-06
5.18761e-08
6.40642e-06
5.24043e-08
6.40894e-06
5.27663e-08
6.41119e-06
5.31239e-08
6.41322e-06
5.3576e-08
6.41508e-06
5.41872e-08
6.41687e-06
5.49743e-08
6.41867e-06
5.59334e-08
6.42057e-06
5.70129e-08
6.42264e-06
5.81325e-08
5.9068e-08
6.4249e-06
5.74169e-06
7.79918e-09
5.74413e-06
2.14759e-08
5.74735e-06
3.17227e-08
5.75072e-06
3.84913e-08
5.75407e-06
4.29706e-08
5.75731e-06
4.59801e-08
5.76035e-06
4.79071e-08
5.76314e-06
4.90989e-08
5.76568e-06
4.98757e-08
5.76799e-06
5.04665e-08
5.77009e-06
5.1019e-08
5.77204e-06
5.16338e-08
5.77387e-06
5.23518e-08
5.77565e-06
5.31968e-08
5.77744e-06
5.4145e-08
5.77929e-06
5.51594e-08
5.78125e-06
5.61713e-08
5.7002e-08
5.78332e-06
6.99906e-06
6.89668e-09
7.00164e-06
1.89086e-08
7.00513e-06
2.82344e-08
7.00891e-06
3.47188e-08
7.01274e-06
3.91503e-08
7.01651e-06
4.22271e-08
7.02009e-06
4.43305e-08
7.02344e-06
4.57627e-08
7.02654e-06
4.67852e-08
7.02941e-06
4.75999e-08
7.03208e-06
4.835e-08
7.0346e-06
4.91193e-08
7.037e-06
4.995e-08
7.03935e-06
5.08431e-08
7.0417e-06
5.17891e-08
7.0441e-06
5.27473e-08
7.0466e-06
5.36795e-08
5.44261e-08
7.04917e-06
8.5318e-06
5.94917e-09
8.53449e-06
1.62167e-08
8.53825e-06
2.44858e-08
8.54245e-06
3.05199e-08
8.5468e-06
3.48069e-08
8.55115e-06
3.78839e-08
8.55537e-06
4.01144e-08
8.55939e-06
4.17488e-08
8.56318e-06
4.29969e-08
8.56677e-06
4.40222e-08
8.57016e-06
4.4958e-08
8.57341e-06
4.58752e-08
8.57654e-06
4.68081e-08
8.57963e-06
4.77541e-08
8.58271e-06
4.87023e-08
8.58583e-06
4.96249e-08
8.589e-06
5.04994e-08
5.11955e-08
8.59223e-06
1.04002e-05
4.96285e-09
1.0403e-05
1.34078e-08
1.0407e-05
2.04763e-08
1.04117e-05
2.58751e-08
1.04166e-05
2.98783e-08
1.04216e-05
3.28688e-08
1.04266e-05
3.51401e-08
1.04314e-05
3.69144e-08
1.04361e-05
3.83411e-08
1.04406e-05
3.95532e-08
1.04449e-05
4.06462e-08
1.04491e-05
4.16967e-08
1.04532e-05
4.27188e-08
1.04572e-05
4.37206e-08
1.04612e-05
4.46794e-08
1.04652e-05
4.55892e-08
1.04693e-05
4.64307e-08
4.71074e-08
1.04734e-05
1.26778e-05
3.92712e-09
1.26808e-05
1.04593e-08
1.26851e-05
1.61712e-08
1.26902e-05
2.07286e-08
1.26958e-05
2.42732e-08
1.27017e-05
2.70432e-08
1.27076e-05
2.92507e-08
1.27134e-05
3.10653e-08
1.27191e-05
3.26054e-08
1.27248e-05
3.39483e-08
1.27302e-05
3.51704e-08
1.27356e-05
3.63193e-08
1.27409e-05
3.74232e-08
1.27462e-05
3.84715e-08
1.27514e-05
3.94603e-08
1.27566e-05
4.03705e-08
1.27618e-05
4.12096e-08
4.18826e-08
1.27671e-05
1.54543e-05
2.81803e-09
1.54575e-05
7.29282e-09
1.54622e-05
1.14523e-08
1.5468e-05
1.4944e-08
1.54744e-05
1.7813e-08
1.54813e-05
2.01918e-08
1.54884e-05
2.21961e-08
1.54955e-05
2.39357e-08
1.55026e-05
2.54879e-08
1.55097e-05
2.6896e-08
1.55167e-05
2.8194e-08
1.55236e-05
2.94143e-08
1.55304e-05
3.05735e-08
1.55372e-05
3.16693e-08
1.5544e-05
3.26904e-08
1.55508e-05
3.36259e-08
1.55575e-05
3.44801e-08
3.51824e-08
1.55642e-05
1.88389e-05
1.57078e-09
1.88425e-05
3.73704e-09
1.88478e-05
6.06634e-09
1.88546e-05
8.2136e-09
1.88623e-05
1.01564e-08
1.88705e-05
1.19336e-08
1.88792e-05
1.35736e-08
1.8888e-05
1.5106e-08
1.88969e-05
1.65616e-08
1.89059e-05
1.79495e-08
1.89148e-05
1.92724e-08
1.89237e-05
2.05327e-08
1.89326e-05
2.1734e-08
1.89414e-05
2.287e-08
1.89501e-05
2.39327e-08
1.89589e-05
2.4912e-08
1.89675e-05
2.58095e-08
2.65661e-08
1.89762e-05
2.29649e-05
3.58892e-11
2.29692e-05
-5.58438e-10
2.29758e-05
-5.16231e-10
2.29841e-05
-9.59517e-11
2.29937e-05
6.27516e-10
2.3004e-05
1.57841e-09
2.30149e-05
2.68662e-09
2.30262e-05
3.88901e-09
2.30376e-05
5.15814e-09
2.30491e-05
6.46057e-09
2.30606e-05
7.77644e-09
2.30721e-05
9.06524e-09
2.30835e-05
1.03139e-08
2.30949e-05
1.15007e-08
2.31062e-05
1.26284e-08
2.31175e-05
1.36806e-08
2.31286e-05
1.46629e-08
1.55183e-08
2.31397e-05
1.6812e-05
-1.21198e-09
1.68154e-05
-3.98176e-09
1.68207e-05
-5.77986e-09
1.68273e-05
-6.7115e-09
1.68349e-05
-6.89446e-09
1.6843e-05
-6.53168e-09
1.68515e-05
-5.80681e-09
1.68602e-05
-4.82081e-09
1.68691e-05
-3.67835e-09
1.6878e-05
-2.4137e-09
1.68868e-05
-1.10264e-09
1.68957e-05
2.3126e-10
1.69045e-05
1.52355e-09
1.69132e-05
2.78243e-09
1.69219e-05
3.9711e-09
1.69305e-05
5.11023e-09
1.69389e-05
6.16724e-09
7.125e-09
1.69474e-05
1.46358e-05
-2.42214e-09
1.46392e-05
-7.3439e-09
1.46444e-05
-1.09668e-08
1.46508e-05
-1.31229e-08
1.4658e-05
-1.40439e-08
1.46656e-05
-1.41594e-08
1.46736e-05
-1.37174e-08
1.46816e-05
-1.28802e-08
1.46897e-05
-1.17719e-08
1.46978e-05
-1.05082e-08
1.47059e-05
-9.14747e-09
1.47139e-05
-7.76588e-09
1.47219e-05
-6.39485e-09
1.47297e-05
-5.07065e-09
1.47375e-05
-3.79028e-09
1.47452e-05
-2.57565e-09
1.47528e-05
-1.42055e-09
-3.77254e-10
1.47602e-05
1.27413e-05
-3.56266e-09
1.27447e-05
-1.0752e-08
1.275e-05
-1.62719e-08
1.27563e-05
-1.94366e-08
1.27632e-05
-2.08788e-08
1.27704e-05
-2.13564e-08
1.27778e-05
-2.11145e-08
1.27853e-05
-2.03216e-08
1.27927e-05
-1.91835e-08
1.28001e-05
-1.78484e-08
1.28074e-05
-1.64099e-08
1.28146e-05
-1.49416e-08
1.28217e-05
-1.34827e-08
1.28287e-05
-1.20686e-08
1.28356e-05
-1.06955e-08
1.28424e-05
-9.39078e-09
1.28491e-05
-8.14466e-09
-7.00433e-09
1.28557e-05
1.10919e-05
-4.52887e-09
1.10954e-05
-1.42423e-08
1.1101e-05
-2.18584e-08
1.11073e-05
-2.57095e-08
1.11138e-05
-2.7435e-08
1.11206e-05
-2.81469e-08
1.11275e-05
-2.79873e-08
1.11344e-05
-2.71458e-08
1.11411e-05
-2.59148e-08
1.11478e-05
-2.44771e-08
1.11543e-05
-2.29328e-08
1.11607e-05
-2.1352e-08
1.11671e-05
-1.9794e-08
1.11733e-05
-1.82702e-08
1.11794e-05
-1.68084e-08
1.11854e-05
-1.5399e-08
1.11913e-05
-1.40686e-08
-1.28256e-08
1.11972e-05
9.65593e-06
-5.24566e-09
9.65962e-06
-1.79254e-08
9.66539e-06
-2.7624e-08
9.67149e-06
-3.18042e-08
9.67782e-06
-3.3754e-08
9.6843e-06
-3.46202e-08
9.6907e-06
-3.43762e-08
9.69694e-06
-3.33716e-08
9.70302e-06
-3.19947e-08
9.70898e-06
-3.04239e-08
9.71481e-06
-2.87505e-08
9.72052e-06
-2.70473e-08
9.72611e-06
-2.53703e-08
9.73159e-06
-2.3741e-08
9.73696e-06
-2.21677e-08
9.74223e-06
-2.06616e-08
9.74739e-06
-1.92286e-08
-1.78837e-08
9.75245e-06
8.4054e-06
-5.29508e-09
8.40999e-06
-2.25044e-08
8.41562e-06
-3.32524e-08
8.42118e-06
-3.73657e-08
8.42723e-06
-3.9796e-08
8.43346e-06
-4.08421e-08
8.4395e-06
-4.04124e-08
8.44529e-06
-3.9155e-08
8.45086e-06
-3.75597e-08
8.45623e-06
-3.57913e-08
8.46141e-06
-3.39266e-08
8.46642e-06
-3.20486e-08
8.47127e-06
-3.0213e-08
8.47598e-06
-2.84426e-08
8.48056e-06
-2.67391e-08
8.48501e-06
-2.5111e-08
8.48936e-06
-2.35616e-08
-2.21152e-08
8.49359e-06
7.31459e-06
-2.60231e-09
7.3215e-06
-2.94061e-08
7.32741e-06
-3.91625e-08
7.33284e-06
-4.27956e-08
7.33884e-06
-4.5784e-08
7.34487e-06
-4.6874e-08
7.35057e-06
-4.61142e-08
7.35593e-06
-4.4506e-08
7.36095e-06
-4.25866e-08
7.36566e-06
-4.04958e-08
7.37007e-06
-3.83297e-08
7.3742e-06
-3.61685e-08
7.37808e-06
-3.40921e-08
7.38175e-06
-3.21074e-08
7.38523e-06
-3.02176e-08
7.38855e-06
-2.84254e-08
7.39173e-06
-2.67349e-08
-2.5163e-08
7.39479e-06
6.36252e-06
4.94206e-09
6.37216e-06
-3.90431e-08
6.37989e-06
-4.68855e-08
6.38694e-06
-4.98434e-08
6.39374e-06
-5.25836e-08
6.39967e-06
-5.27978e-08
6.40467e-06
-5.1114e-08
6.40895e-06
-4.87856e-08
6.41264e-06
-4.62798e-08
6.41581e-06
-4.36698e-08
6.41853e-06
-4.10301e-08
6.42082e-06
-3.84735e-08
6.42278e-06
-3.60487e-08
6.42445e-06
-3.37746e-08
6.42588e-06
-3.16473e-08
6.42712e-06
-2.96622e-08
6.42822e-06
-2.78297e-08
-2.61334e-08
6.42921e-06
5.54136e-06
9.04978e-09
5.55053e-06
-4.82177e-08
5.55877e-06
-5.51209e-08
5.56681e-06
-5.78752e-08
5.57369e-06
-5.94588e-08
5.57851e-06
-5.76265e-08
5.58134e-06
-5.39449e-08
5.58257e-06
-5.00135e-08
5.58256e-06
-4.62754e-08
5.58161e-06
-4.27104e-08
5.57994e-06
-3.93509e-08
5.57771e-06
-3.62528e-08
5.57509e-06
-3.34299e-08
5.57218e-06
-3.08678e-08
5.56908e-06
-2.85503e-08
5.56588e-06
-2.64662e-08
5.56268e-06
-2.46093e-08
-2.29483e-08
5.5595e-06
4.86019e-06
-2.35352e-08
4.86547e-06
-5.34923e-08
4.86547e-06
-5.51119e-08
4.86263e-06
-5.50296e-08
4.85776e-06
-5.45873e-08
4.85064e-06
-5.05138e-08
4.84142e-06
-4.47262e-08
4.83058e-06
-3.9175e-08
4.81864e-06
-3.43332e-08
4.80608e-06
-3.01506e-08
4.79329e-06
-2.65569e-08
4.78054e-06
-2.35019e-08
4.76801e-06
-2.09024e-08
4.75583e-06
-1.86901e-08
4.74408e-06
-1.68089e-08
4.73285e-06
-1.52294e-08
4.72223e-06
-1.3985e-08
-1.36095e-08
4.71291e-06
4.17914e-06
4.12565e-06
4.07054e-06
4.01551e-06
3.96092e-06
3.91041e-06
3.86568e-06
3.82651e-06
3.79217e-06
3.76202e-06
3.73547e-06
3.71196e-06
3.69106e-06
3.67237e-06
3.65556e-06
3.64033e-06
3.62635e-06
3.61274e-06
6.14076e-08
-6.16937e-08
1.49989e-07
-8.88468e-08
2.38465e-07
-8.8667e-08
3.27701e-07
-8.94637e-08
4.15472e-07
-8.80125e-08
4.91467e-07
-7.62455e-08
5.53861e-07
-6.26138e-08
6.01488e-07
-4.78479e-08
6.33455e-07
-3.21722e-08
6.51187e-07
-1.79704e-08
6.56648e-07
-5.6476e-09
6.38019e-07
1.83972e-08
6.02632e-07
3.52802e-08
5.62387e-07
4.00139e-08
5.18782e-07
4.35248e-08
4.72212e-07
4.63361e-08
4.25723e-07
4.64343e-08
3.81172e-07
4.43335e-08
3.39697e-07
4.14831e-08
2.9759e-07
4.1883e-08
2.45602e-07
5.20917e-08
1.82296e-07
6.33132e-08
1.07251e-07
7.53695e-08
1.95295e-08
8.81313e-08
-8.31778e-08
1.03126e-07
-2.03213e-07
1.20517e-07
-3.39755e-07
1.36768e-07
-4.90187e-07
1.50781e-07
-6.51888e-07
1.61783e-07
-8.21275e-07
1.69565e-07
-9.95518e-07
1.74198e-07
-1.17153e-06
1.76045e-07
-1.34709e-06
1.75457e-07
-1.52008e-06
1.72905e-07
-1.68896e-06
1.6875e-07
-1.85256e-06
1.63459e-07
-2.01008e-06
1.57414e-07
-2.1612e-06
1.50982e-07
-2.30569e-06
1.44416e-07
-2.44376e-06
1.37949e-07
-2.57552e-06
1.31719e-07
-2.70146e-06
1.25849e-07
-2.82186e-06
1.20387e-07
-2.93733e-06
1.15381e-07
-3.04814e-06
1.10821e-07
-3.15492e-06
1.06707e-07
-3.25791e-06
1.03e-07
-3.35766e-06
9.96791e-08
-3.45433e-06
9.66872e-08
-3.54842e-06
9.39954e-08
-3.63996e-06
9.1548e-08
-3.72939e-06
8.9313e-08
-3.81664e-06
8.72401e-08
-3.90207e-06
8.53035e-08
-3.98553e-06
8.34521e-08
-4.06733e-06
8.16518e-08
-4.14721e-06
7.98572e-08
-4.22542e-06
7.80373e-08
-4.30158e-06
7.61481e-08
-4.37591e-06
7.41451e-08
-4.44792e-06
7.19981e-08
-4.51774e-06
6.9664e-08
-4.58479e-06
6.71119e-08
-4.64918e-06
6.42843e-08
-4.71023e-06
6.11549e-08
-4.76798e-06
5.76589e-08
-4.82164e-06
5.37814e-08
-4.87115e-06
4.94508e-08
-4.91566e-06
4.46494e-08
-4.95495e-06
3.92968e-08
-4.98816e-06
3.33753e-08
-5.01495e-06
2.68314e-08
-5.03451e-06
1.9715e-08
-5.0467e-06
1.21556e-08
-5.05116e-06
4.53225e-09
-5.04855e-06
-2.77356e-09
-5.03879e-06
-9.77478e-09
-5.0221e-06
-1.68512e-08
-4.99796e-06
-2.40755e-08
-4.96649e-06
-3.1538e-08
-4.92716e-06
-3.91888e-08
-4.88004e-06
-4.70688e-08
-4.82474e-06
-5.50522e-08
-4.76144e-06
-6.31641e-08
-4.68996e-06
-7.12181e-08
-4.61045e-06
-7.93182e-08
-4.5228e-06
-8.73685e-08
-4.4273e-06
-9.52436e-08
-4.32413e-06
-1.02893e-07
-4.21369e-06
-1.10212e-07
-4.09632e-06
-1.1729e-07
-3.97241e-06
-1.24034e-07
-3.84244e-06
-1.30228e-07
-3.70695e-06
-1.3588e-07
-3.56647e-06
-1.40923e-07
-3.42168e-06
-1.45329e-07
-3.27315e-06
-1.49053e-07
-3.12162e-06
-1.52098e-07
-2.96767e-06
-1.54429e-07
-2.81207e-06
-1.56068e-07
-2.65535e-06
-1.57002e-07
-2.49819e-06
-1.57264e-07
-2.34112e-06
-1.56876e-07
-2.18479e-06
-1.55852e-07
-2.0298e-06
-1.54282e-07
-1.8767e-06
-1.52194e-07
-1.72602e-06
-1.49728e-07
-1.57816e-06
-1.46874e-07
-1.43353e-06
-1.43758e-07
-1.29236e-06
-1.40355e-07
-1.15495e-06
-1.3679e-07
-1.02141e-06
-1.33019e-07
-8.91909e-07
-1.29189e-07
-7.66492e-07
-1.25223e-07
-6.45252e-07
-1.21249e-07
-5.28142e-07
-1.17216e-07
-4.15164e-07
-1.13246e-07
-3.06258e-07
-1.09266e-07
-2.01275e-07
-1.05447e-07
-9.99105e-08
-1.01802e-07
-1.98224e-09
-9.8239e-08
9.30187e-08
-9.51298e-08
1.84737e-07
-9.17675e-08
2.72344e-07
-8.76284e-08
3.55693e-07
-8.34702e-08
4.34979e-07
-7.94576e-08
5.10385e-07
-7.56961e-08
5.82208e-07
-7.21431e-08
6.5065e-07
-6.88507e-08
7.16006e-07
-6.57685e-08
7.7843e-07
-6.28941e-08
8.38181e-07
-6.02033e-08
8.95428e-07
-5.77343e-08
9.50414e-07
-5.54428e-08
1.00325e-06
-5.33122e-08
1.05411e-06
-5.13087e-08
1.10312e-06
-4.94625e-08
1.15044e-06
-4.77644e-08
1.19616e-06
-4.6182e-08
1.24037e-06
-4.46645e-08
1.28315e-06
-4.3223e-08
1.32464e-06
-4.18752e-08
1.36491e-06
-4.06093e-08
1.40402e-06
-3.94083e-08
1.44203e-06
-3.82859e-08
1.47903e-06
-3.72433e-08
1.51506e-06
-3.62544e-08
1.55018e-06
-3.53285e-08
1.58443e-06
-3.44547e-08
1.61786e-06
-3.36093e-08
1.65049e-06
-3.28253e-08
1.68241e-06
-3.20904e-08
1.71362e-06
-3.14013e-08
1.74418e-06
-3.07361e-08
1.77406e-06
-3.00582e-08
1.80327e-06
-2.93804e-08
1.83185e-06
-2.87644e-08
1.85982e-06
-2.81379e-08
1.88716e-06
-2.75143e-08
1.91389e-06
-2.68998e-08
1.94002e-06
-2.63088e-08
1.96561e-06
-2.57579e-08
1.99067e-06
-2.52165e-08
2.01523e-06
-2.47225e-08
2.03927e-06
-2.41996e-08
2.06276e-06
-2.36535e-08
2.08576e-06
-2.31555e-08
2.10818e-06
-2.25613e-08
2.12985e-06
-2.18214e-08
2.1507e-06
-2.0981e-08
2.17046e-06
-1.98979e-08
2.18878e-06
-1.84347e-08
2.20531e-06
-1.66462e-08
2.21948e-06
-1.4275e-08
2.23027e-06
-1.08925e-08
2.23549e-06
-5.31023e-09
2.22999e-06
5.40673e-09
2.20593e-06
2.39649e-08
2.14383e-06
6.20022e-08
1.23257e-07
2.02046e-06
9.57938e-08
-1.57748e-07
1.94265e-07
-1.87532e-07
2.77631e-07
-1.72199e-07
3.40225e-07
-1.52201e-07
3.84527e-07
-1.32445e-07
4.17679e-07
-1.09523e-07
4.39833e-07
-8.48834e-08
4.51403e-07
-5.95456e-08
4.53404e-07
-3.42833e-08
4.45172e-07
-9.88685e-09
4.25804e-07
1.36126e-08
4.07077e-07
3.696e-08
3.84423e-07
5.78429e-08
3.49279e-07
7.49867e-08
3.03668e-07
8.90608e-08
2.48938e-07
1.00905e-07
1.83915e-07
1.11402e-07
1.05389e-07
1.22733e-07
9.65134e-09
1.37191e-07
-1.05609e-07
1.57089e-07
-2.32917e-07
1.79418e-07
-3.74052e-07
2.04488e-07
-5.296e-07
2.3099e-07
-6.98526e-07
2.57174e-07
-8.76938e-07
2.81627e-07
-1.05953e-06
3.03232e-07
-1.24343e-06
3.20734e-07
-1.42576e-06
3.33221e-07
-1.60438e-06
3.40428e-07
-1.77736e-06
3.426e-07
-1.94343e-06
3.40253e-07
-2.10149e-06
3.34112e-07
-2.25105e-06
3.24977e-07
-2.39192e-06
3.1373e-07
-2.52443e-06
3.01198e-07
-2.64905e-06
2.88017e-07
-2.76641e-06
2.74702e-07
-2.87715e-06
2.61654e-07
-2.98193e-06
2.49146e-07
-3.08141e-06
2.37374e-07
-3.17616e-06
2.26437e-07
-3.26675e-06
2.16391e-07
-3.35362e-06
2.07229e-07
-3.4372e-06
1.98926e-07
-3.51782e-06
1.91419e-07
-3.59579e-06
1.84646e-07
-3.67132e-06
1.78522e-07
-3.74465e-06
1.72973e-07
-3.81588e-06
1.6791e-07
-3.88518e-06
1.63258e-07
-3.95258e-06
1.58929e-07
-4.01818e-06
1.54862e-07
-4.08193e-06
1.5098e-07
-4.1439e-06
1.47224e-07
-4.20399e-06
1.43518e-07
-4.26221e-06
1.39807e-07
-4.31842e-06
1.36026e-07
-4.37257e-06
1.32118e-07
-4.42448e-06
1.28016e-07
-4.4741e-06
1.2367e-07
-4.52117e-06
1.19024e-07
-4.56561e-06
1.1403e-07
-4.60715e-06
1.08631e-07
-4.64569e-06
1.0278e-07
-4.68097e-06
9.64341e-08
-4.7129e-06
8.95546e-08
-4.74121e-06
8.21162e-08
-4.76587e-06
7.40957e-08
-4.78665e-06
6.54842e-08
-4.80359e-06
5.62706e-08
-4.81659e-06
4.6462e-08
-4.82577e-06
3.60682e-08
-4.8311e-06
2.51249e-08
-4.83257e-06
1.36544e-08
-4.82969e-06
1.67064e-09
-4.82159e-06
-1.09152e-08
-4.80728e-06
-2.41049e-08
-4.78632e-06
-3.78554e-08
-4.75826e-06
-5.21204e-08
-4.7229e-06
-6.68886e-08
-4.67992e-06
-8.20954e-08
-4.62921e-06
-9.76921e-08
-4.57057e-06
-1.13568e-07
-4.50396e-06
-1.29652e-07
-4.42923e-06
-1.45804e-07
-4.34645e-06
-1.61955e-07
-4.25572e-06
-1.77945e-07
-4.15714e-06
-1.93649e-07
-4.05095e-06
-2.08929e-07
-3.93743e-06
-2.23602e-07
-3.81708e-06
-2.37634e-07
-3.69034e-06
-2.50878e-07
-3.55765e-06
-2.63106e-07
-3.41954e-06
-2.74219e-07
-3.27664e-06
-2.84099e-07
-3.12958e-06
-2.92683e-07
-2.97903e-06
-2.99893e-07
-2.82568e-06
-3.05716e-07
-2.67023e-06
-3.10118e-07
-2.51335e-06
-3.13121e-07
-2.3557e-06
-3.1471e-07
-2.19796e-06
-3.14943e-07
-2.04071e-06
-3.13864e-07
-1.88461e-06
-3.11579e-07
-1.73016e-06
-3.08191e-07
-1.57797e-06
-3.03838e-07
-1.42842e-06
-2.98662e-07
-1.28199e-06
-2.92771e-07
-1.13895e-06
-2.86285e-07
-9.99608e-07
-2.79288e-07
-8.64134e-07
-2.71902e-07
-7.3271e-07
-2.642e-07
-6.0542e-07
-2.56289e-07
-4.82352e-07
-2.48213e-07
-3.63493e-07
-2.40078e-07
-2.48846e-07
-2.31923e-07
-1.38285e-07
-2.23901e-07
-3.16167e-08
-2.16098e-07
7.12698e-08
-2.08506e-07
1.70307e-07
-2.01002e-07
2.65461e-07
-1.93486e-07
3.56284e-07
-1.85989e-07
4.42932e-07
-1.78407e-07
5.26017e-07
-1.70722e-07
6.05711e-07
-1.63196e-07
6.82124e-07
-1.55951e-07
7.5539e-07
-1.49075e-07
8.25659e-07
-1.42564e-07
8.93081e-07
-1.36448e-07
9.5781e-07
-1.30699e-07
1.02001e-06
-1.25308e-07
1.07983e-06
-1.20254e-07
1.13742e-06
-1.15548e-07
1.1929e-06
-1.1116e-07
1.24642e-06
-1.07062e-07
1.2981e-06
-1.03223e-07
1.34805e-06
-9.96474e-08
1.39637e-06
-9.63224e-08
1.44315e-06
-9.32108e-08
1.4885e-06
-9.0265e-08
1.53252e-06
-8.74789e-08
1.57529e-06
-8.48617e-08
1.6169e-06
-8.23993e-08
1.65739e-06
-8.00668e-08
1.69683e-06
-7.78717e-08
1.73526e-06
-7.5813e-08
1.77275e-06
-7.38652e-08
1.80933e-06
-7.20339e-08
1.84507e-06
-7.03045e-08
1.87999e-06
-6.86463e-08
1.91412e-06
-6.70678e-08
1.9475e-06
-6.55824e-08
1.98018e-06
-6.41839e-08
2.01217e-06
-6.28385e-08
2.04348e-06
-6.14837e-08
2.07413e-06
-6.01428e-08
2.10412e-06
-5.88677e-08
2.13349e-06
-5.76179e-08
2.16224e-06
-5.63756e-08
2.19039e-06
-5.51619e-08
2.21796e-06
-5.39971e-08
2.24498e-06
-5.28906e-08
2.27147e-06
-5.18161e-08
2.29743e-06
-5.07947e-08
2.32286e-06
-4.97396e-08
2.34775e-06
-4.86466e-08
2.37204e-06
-4.75518e-08
2.39568e-06
-4.63059e-08
2.41856e-06
-4.48017e-08
2.44052e-06
-4.3046e-08
2.46138e-06
-4.08449e-08
2.48085e-06
-3.79913e-08
2.49856e-06
-3.44391e-08
2.51406e-06
-2.98391e-08
2.52663e-06
-2.35295e-08
2.53575e-06
-1.44946e-08
2.5411e-06
-6.19219e-12
2.54093e-06
2.40755e-08
2.53248e-06
7.03883e-08
1.54955e-07
2.50071e-06
8.23744e-08
-2.40315e-07
1.42006e-07
-2.47323e-07
1.87628e-07
-2.17936e-07
2.20476e-07
-1.85144e-07
2.39997e-07
-1.52053e-07
2.48818e-07
-1.18424e-07
2.48339e-07
-8.44784e-08
2.39331e-07
-5.06186e-08
2.22248e-07
-1.72761e-08
1.97111e-07
1.51554e-08
1.6417e-07
4.64773e-08
1.24431e-07
7.6589e-08
7.70267e-08
1.05174e-07
1.96388e-08
1.32262e-07
-4.95167e-08
1.58154e-07
-1.32259e-07
1.83553e-07
-2.3034e-07
2.09441e-07
-3.44706e-07
2.37031e-07
-4.74682e-07
2.67146e-07
-6.17264e-07
2.99646e-07
-7.7057e-07
3.32724e-07
-9.31188e-07
3.65115e-07
-1.09534e-06
3.95165e-07
-1.25937e-06
4.21242e-07
-1.41994e-06
4.42213e-07
-1.57413e-06
4.57473e-07
-1.72018e-06
4.66802e-07
-1.85725e-06
4.70336e-07
-1.98533e-06
4.68516e-07
-2.10475e-06
4.62037e-07
-2.21626e-06
4.51751e-07
-2.3207e-06
4.38557e-07
-2.41909e-06
4.23341e-07
-2.51229e-06
4.06907e-07
-2.60105e-06
3.8993e-07
-2.68602e-06
3.72944e-07
-2.76771e-06
3.56361e-07
-2.84657e-06
3.40475e-07
-2.92294e-06
3.25482e-07
-2.9971e-06
3.11498e-07
-3.06926e-06
2.98572e-07
-3.13961e-06
2.86708e-07
-3.20827e-06
2.75871e-07
-3.27538e-06
2.66004e-07
-3.34101e-06
2.57028e-07
-3.40524e-06
2.4886e-07
-3.46814e-06
2.41404e-07
-3.52975e-06
2.34568e-07
-3.59011e-06
2.28255e-07
-3.64925e-06
2.22375e-07
-3.70716e-06
2.16834e-07
-3.76387e-06
2.11548e-07
-3.81933e-06
2.06435e-07
-3.87354e-06
2.01416e-07
-3.92644e-06
1.96407e-07
-3.978e-06
1.91336e-07
-4.02812e-06
1.86126e-07
-4.07675e-06
1.80705e-07
-4.12377e-06
1.74998e-07
-4.16909e-06
1.68937e-07
-4.21256e-06
1.62457e-07
-4.25408e-06
1.55492e-07
-4.29347e-06
1.47978e-07
-4.33059e-06
1.39857e-07
-4.36526e-06
1.31073e-07
-4.39732e-06
1.21579e-07
-4.42655e-06
1.11335e-07
-4.45278e-06
1.00309e-07
-4.47575e-06
8.84698e-08
-4.49524e-06
7.57902e-08
-4.51097e-06
6.2245e-08
-4.52265e-06
4.78045e-08
-4.52991e-06
3.24413e-08
-4.53233e-06
1.612e-08
-4.52944e-06
-1.18843e-09
-4.52084e-06
-1.95212e-08
-4.50609e-06
-3.88455e-08
-4.48483e-06
-5.91043e-08
-4.4567e-06
-8.02252e-08
-4.42142e-06
-1.0214e-07
-4.3787e-06
-1.24754e-07
-4.32837e-06
-1.47961e-07
-4.27022e-06
-1.71627e-07
-4.20417e-06
-1.9562e-07
-4.13012e-06
-2.19766e-07
-4.04809e-06
-2.4389e-07
-3.95816e-06
-2.67779e-07
-3.86048e-06
-2.91244e-07
-3.75526e-06
-3.14049e-07
-3.64286e-06
-3.35942e-07
-3.52376e-06
-3.56766e-07
-3.39836e-06
-3.7635e-07
-3.26717e-06
-3.94445e-07
-3.13071e-06
-4.1082e-07
-2.98964e-06
-4.25357e-07
-2.84456e-06
-4.37903e-07
-2.69621e-06
-4.48406e-07
-2.54523e-06
-4.56786e-07
-2.39237e-06
-4.6305e-07
-2.2383e-06
-4.67182e-07
-2.0837e-06
-4.69219e-07
-1.92922e-06
-4.69222e-07
-1.77546e-06
-4.67295e-07
-1.62303e-06
-4.63604e-07
-1.47245e-06
-4.58293e-07
-1.32426e-06
-4.5158e-07
-1.17882e-06
-4.43621e-07
-1.03658e-06
-4.34624e-07
-8.97773e-07
-4.24719e-07
-7.62693e-07
-4.14092e-07
-6.3147e-07
-4.02869e-07
-5.04291e-07
-3.91223e-07
-3.81182e-07
-3.79261e-07
-2.62231e-07
-3.67116e-07
-1.47362e-07
-3.54917e-07
-3.6502e-08
-3.42824e-07
7.03977e-08
-3.3086e-07
1.73228e-07
-3.19039e-07
2.71978e-07
-3.07359e-07
3.66715e-07
-2.95839e-07
4.57629e-07
-2.84439e-07
5.44771e-07
-2.73144e-07
6.28337e-07
-2.61951e-07
7.08553e-07
-2.50946e-07
7.85596e-07
-2.40257e-07
8.59577e-07
-2.29994e-07
9.3064e-07
-2.20214e-07
9.98908e-07
-2.10944e-07
1.06453e-06
-2.02191e-07
1.12764e-06
-1.93949e-07
1.18838e-06
-1.86196e-07
1.24689e-06
-1.78921e-07
1.3033e-06
-1.72113e-07
1.35772e-06
-1.65747e-07
1.41029e-06
-1.59786e-07
1.4611e-06
-1.54199e-07
1.51028e-06
-1.48976e-07
1.55789e-06
-1.44095e-07
1.60403e-06
-1.39517e-07
1.6488e-06
-1.352e-07
1.69229e-06
-1.31129e-07
1.73459e-06
-1.27293e-07
1.77574e-06
-1.23677e-07
1.81582e-06
-1.20256e-07
1.85489e-06
-1.17032e-07
1.89298e-06
-1.13996e-07
1.93016e-06
-1.1113e-07
1.96647e-06
-1.08415e-07
2.00193e-06
-1.05839e-07
2.03659e-06
-1.0338e-07
2.07048e-06
-1.01034e-07
2.10364e-06
-9.88084e-08
2.13608e-06
-9.6695e-08
2.16782e-06
-9.46495e-08
2.19889e-06
-9.26248e-08
2.22931e-06
-9.06311e-08
2.25908e-06
-8.87026e-08
2.28821e-06
-8.68232e-08
2.31674e-06
-8.49767e-08
2.34469e-06
-8.31761e-08
2.37207e-06
-8.14435e-08
2.39889e-06
-7.97784e-08
2.42517e-06
-7.81646e-08
2.4509e-06
-7.65816e-08
2.47607e-06
-7.49761e-08
2.50068e-06
-7.33162e-08
2.52464e-06
-7.15768e-08
2.54791e-06
-6.96332e-08
2.57041e-06
-6.73549e-08
2.59196e-06
-6.46473e-08
2.61239e-06
-6.1327e-08
2.63153e-06
-5.71809e-08
2.64908e-06
-5.20267e-08
2.66465e-06
-4.54554e-08
2.6778e-06
-3.67145e-08
2.68787e-06
-2.45984e-08
2.69432e-06
-6.48538e-09
2.6963e-06
2.20676e-08
2.69552e-06
7.11342e-08
1.56325e-07
2.69411e-06
4.26558e-08
-2.83127e-07
6.15187e-08
-2.66313e-07
7.28272e-08
-2.2933e-07
7.69168e-08
-1.89312e-07
7.33032e-08
-1.48501e-07
6.21163e-08
-1.07298e-07
4.35273e-08
-6.59475e-08
1.75569e-08
-2.47085e-08
-1.5959e-08
1.6182e-08
-5.74263e-08
5.65544e-08
-1.07303e-07
9.62956e-08
-1.66128e-07
1.35342e-07
-2.34721e-07
1.73713e-07
-3.14097e-07
2.1157e-07
-4.0517e-07
2.49184e-07
-5.08555e-07
2.86882e-07
-6.24074e-07
3.24926e-07
-7.50407e-07
3.63325e-07
-8.84865e-07
4.01582e-07
-1.02385e-06
4.38602e-07
-1.16399e-06
4.72846e-07
-1.30183e-06
5.02949e-07
-1.43448e-06
5.27799e-07
-1.55989e-06
5.46659e-07
-1.67694e-06
5.59251e-07
-1.78517e-06
5.65707e-07
-1.88483e-06
5.66455e-07
-1.97662e-06
5.62136e-07
-2.06163e-06
5.53511e-07
-2.14099e-06
5.41394e-07
-2.21585e-06
5.26606e-07
-2.28724e-06
5.09933e-07
-2.356e-06
4.92089e-07
-2.4228e-06
4.73686e-07
-2.4881e-06
4.5521e-07
-2.55223e-06
4.3705e-07
-2.6154e-06
4.19504e-07
-2.67773e-06
4.02784e-07
-2.7393e-06
3.87026e-07
-2.80013e-06
3.72309e-07
-2.86024e-06
3.58661e-07
-2.91963e-06
3.46071e-07
-2.97829e-06
3.34503e-07
-3.0362e-06
3.23895e-07
-3.09336e-06
3.14173e-07
-3.14978e-06
3.05251e-07
-3.20542e-06
2.97038e-07
-3.26031e-06
2.8944e-07
-3.31443e-06
2.8236e-07
-3.36777e-06
2.75701e-07
-3.42031e-06
2.69369e-07
-3.47204e-06
2.63273e-07
-3.52292e-06
2.57319e-07
-3.57294e-06
2.51418e-07
-3.62201e-06
2.45482e-07
-3.67011e-06
2.39424e-07
-3.71715e-06
2.33156e-07
-3.76306e-06
2.26593e-07
-3.80774e-06
2.1965e-07
-3.85108e-06
2.12244e-07
-3.89296e-06
2.04294e-07
-3.93324e-06
1.95721e-07
-3.97175e-06
1.86445e-07
-4.00834e-06
1.76391e-07
-4.0428e-06
1.65487e-07
-4.07493e-06
1.53665e-07
-4.10449e-06
1.40864e-07
-4.13123e-06
1.27024e-07
-4.15485e-06
1.12091e-07
-4.17505e-06
9.60077e-08
-4.19148e-06
7.8719e-08
-4.2038e-06
6.01696e-08
-4.21161e-06
4.03091e-08
-4.21453e-06
1.9089e-08
-4.21217e-06
-3.50726e-09
-4.20417e-06
-2.74875e-08
-4.19017e-06
-5.28149e-08
-4.16982e-06
-7.94271e-08
-4.14277e-06
-1.07239e-07
-4.10871e-06
-1.36151e-07
-4.06738e-06
-1.66036e-07
-4.01853e-06
-1.96747e-07
-3.96199e-06
-2.2811e-07
-3.89762e-06
-2.59928e-07
-3.82535e-06
-2.91973e-07
-3.74518e-06
-3.23991e-07
-3.6572e-06
-3.557e-07
-3.56157e-06
-3.86828e-07
-3.45848e-06
-4.17084e-07
-3.34827e-06
-4.46113e-07
-3.23142e-06
-4.73638e-07
-3.10839e-06
-4.99465e-07
-2.97965e-06
-5.23288e-07
-2.84578e-06
-5.44813e-07
-2.70738e-06
-5.63853e-07
-2.56514e-06
-5.80232e-07
-2.41973e-06
-5.93856e-07
-2.27189e-06
-6.04643e-07
-2.1223e-06
-6.12587e-07
-1.97166e-06
-6.17691e-07
-1.82065e-06
-6.20016e-07
-1.66989e-06
-6.19664e-07
-1.52e-06
-6.16786e-07
-1.37155e-06
-6.11594e-07
-1.22508e-06
-6.04298e-07
-1.08105e-06
-5.95159e-07
-9.39877e-07
-5.8439e-07
-8.01891e-07
-5.72253e-07
-6.67373e-07
-5.58935e-07
-5.3654e-07
-5.44679e-07
-4.09551e-07
-5.29663e-07
-2.86524e-07
-5.1411e-07
-1.67509e-07
-4.9818e-07
-5.24747e-08
-4.82104e-07
5.85717e-08
-4.65951e-07
1.65536e-07
-4.4982e-07
2.68388e-07
-4.33771e-07
3.67171e-07
-4.17911e-07
4.61994e-07
-4.02265e-07
5.52978e-07
-3.8689e-07
6.40291e-07