/*--------------------------------*- C++ -*----------------------------------*\
  =========                 |
  \\      /  F ield         | OpenFOAM: The Open Source CFD Toolbox
   \\    /   O peration     | Website:  https://openfoam.org
    \\  /    A nd           | Version:  8
     \\/     M anipulation  |
\*---------------------------------------------------------------------------*/
FoamFile
{
    version     2.0;
    format      ascii;
    class       volVectorField;
    location    "65";
    object      U;
}
// * * * * * * * * * * * * * * * * * * * * * * * * * * * * * * * * * * * * * //

dimensions      [0 1 -1 0 0 0 0];

internalField   nonuniform List<vector> 
12225
(
(9.85691 -0.886633 0)
(9.66584 -0.740587 0)
(9.45447 -0.429281 0)
(9.22197 -0.22184 0)
(9.00217 -0.105977 0)
(8.80788 -0.0453168 0)
(8.63816 -0.0145509 0)
(8.49277 0.00122316 0)
(8.3672 0.00931841 0)
(8.25999 0.0133876 0)
(8.16601 0.0153317 0)
(8.08331 0.0166728 0)
(8.00837 0.0175181 0)
(7.93935 0.0184245 0)
(7.87215 0.0197198 0)
(7.80877 0.0219503 0)
(7.71818 0.0264508 0)
(7.70019 0.0415416 0)
(10.0545 0.227773 0)
(10.1212 0.327094 0)
(10.1193 0.26192 0)
(10.0846 0.18701 0)
(10.0417 0.135291 0)
(9.99391 0.10189 0)
(9.93976 0.0802699 0)
(9.87908 0.0658353 0)
(9.8155 0.0558743 0)
(9.75015 0.0486658 0)
(9.68531 0.0433569 0)
(9.62128 0.0394386 0)
(9.55911 0.0366819 0)
(9.49887 0.0351436 0)
(9.4395 0.0345825 0)
(9.3844 0.0376771 0)
(9.32214 0.0397497 0)
(9.29068 0.0694329 0)
(10.0035 0.0582396 0)
(10.0303 0.0562007 0)
(10.0554 0.0342407 0)
(10.0691 0.0335422 0)
(10.0748 0.0415213 0)
(10.0746 0.0477146 0)
(10.0679 0.0508684 0)
(10.0549 0.0522336 0)
(10.0376 0.0526028 0)
(10.0166 0.0524358 0)
(9.99288 0.0520933 0)
(9.96686 0.0518926 0)
(9.93913 0.0520027 0)
(9.91001 0.0527967 0)
(9.87911 0.0543218 0)
(9.84789 0.0586893 0)
(9.81386 0.0641713 0)
(9.78578 0.0829406 0)
(9.99769 0.0110599 0)
(10.0108 0.0269565 0)
(10.0343 0.0376808 0)
(10.0511 0.0488941 0)
(10.062 0.0566192 0)
(10.0699 0.0597447 0)
(10.0745 0.0603601 0)
(10.0756 0.0601509 0)
(10.0739 0.0597299 0)
(10.0698 0.0592961 0)
(10.0637 0.0590076 0)
(10.0558 0.0590781 0)
(10.0462 0.0595952 0)
(10.0352 0.0609094 0)
(10.0224 0.063188 0)
(10.0089 0.0679137 0)
(9.99448 0.0745429 0)
(9.98298 0.088134 0)
(9.99931 0.00725227 0)
(10.0087 0.0321252 0)
(10.0267 0.0446454 0)
(10.0403 0.051035 0)
(10.0504 0.0551484 0)
(10.0592 0.0572387 0)
(10.0664 0.058065 0)
(10.0714 0.0584365 0)
(10.0744 0.0586858 0)
(10.0758 0.0589482 0)
(10.0757 0.059356 0)
(10.0742 0.0601037 0)
(10.0714 0.0613199 0)
(10.0676 0.0633209 0)
(10.0626 0.0663527 0)
(10.0572 0.0713514 0)
(10.0517 0.0782223 0)
(10.0487 0.0884716 0)
(10.0003 0.00934685 0)
(10.008 0.0317565 0)
(10.022 0.0418928 0)
(10.0335 0.0467857 0)
(10.0426 0.050915 0)
(10.0511 0.0538224 0)
(10.0586 0.0554798 0)
(10.0645 0.0565152 0)
(10.0689 0.0573385 0)
(10.0721 0.0581336 0)
(10.0741 0.0590494 0)
(10.0751 0.0602799 0)
(10.075 0.0619839 0)
(10.0742 0.064436 0)
(10.0726 0.067875 0)
(10.0708 0.0728578 0)
(10.0694 0.0793522 0)
(10.07 0.0875454 0)
(10.0004 0.00916827 0)
(10.0068 0.0277806 0)
(10.0183 0.0375614 0)
(10.0287 0.0430549 0)
(10.0372 0.0476675 0)
(10.0451 0.0510293 0)
(10.0522 0.0531011 0)
(10.0582 0.0545058 0)
(10.0629 0.0556909 0)
(10.0667 0.0568543 0)
(10.0696 0.0581441 0)
(10.0716 0.0597404 0)
(10.0728 0.0618087 0)
(10.0735 0.0645703 0)
(10.0736 0.0682184 0)
(10.0738 0.0730544 0)
(10.0743 0.0790221 0)
(10.0765 0.0858292 0)
(10.0004 0.00819348 0)
(10.0057 0.0241793 0)
(10.0154 0.0340846 0)
(10.0249 0.040068 0)
(10.0328 0.0447657 0)
(10.0401 0.0482528 0)
(10.0468 0.0505835 0)
(10.0526 0.0522876 0)
(10.0575 0.0537779 0)
(10.0615 0.0552526 0)
(10.0647 0.0568576 0)
(10.0672 0.0587576 0)
(10.0692 0.0611078 0)
(10.0707 0.064078 0)
(10.0719 0.0678071 0)
(10.0731 0.0724367 0)
(10.0748 0.0778817 0)
(10.0776 0.0837273 0)
(10.0004 0.00729334 0)
(10.0048 0.0213418 0)
(10.013 0.0310155 0)
(10.0215 0.0371456 0)
(10.029 0.0418041 0)
(10.0358 0.0453717 0)
(10.0422 0.0479457 0)
(10.0478 0.0499353 0)
(10.0526 0.0517023 0)
(10.0567 0.0534472 0)
(10.0601 0.0553184 0)
(10.063 0.0574654 0)
(10.0654 0.0600246 0)
(10.0674 0.063121 0)
(10.0693 0.0668456 0)
(10.0713 0.0712479 0)
(10.0736 0.0762293 0)
(10.0768 0.0813827 0)
(10.0003 0.00651684 0)
(10.0041 0.0188969 0)
(10.011 0.0280534 0)
(10.0186 0.0341785 0)
(10.0256 0.0388177 0)
(10.032 0.0424631 0)
(10.038 0.045242 0)
(10.0435 0.0474769 0)
(10.0482 0.0494829 0)
(10.0524 0.0514593 0)
(10.0559 0.0535517 0)
(10.059 0.0558947 0)
(10.0618 0.0586013 0)
(10.0643 0.0617621 0)
(10.0667 0.0654319 0)
(10.0692 0.0696099 0)
(10.0719 0.0741976 0)
(10.0753 0.0788402 0)
(10.0003 0.00580986 0)
(10.0034 0.0167084 0)
(10.0093 0.0252247 0)
(10.0161 0.0312469 0)
(10.0226 0.0358528 0)
(10.0286 0.0395401 0)
(10.0344 0.0424646 0)
(10.0396 0.0448915 0)
(10.0443 0.0470949 0)
(10.0485 0.0492642 0)
(10.0522 0.0515372 0)
(10.0555 0.0540295 0)
(10.0586 0.0568315 0)
(10.0614 0.0600091 0)
(10.0642 0.0635908 0)
(10.0671 0.067554 0)
(10.0701 0.0718137 0)
(10.0736 0.076073 0)
(10.0003 0.00519257 0)
(10.003 0.0148893 0)
(10.008 0.0227807 0)
(10.0141 0.0286306 0)
(10.0202 0.033163 0)
(10.0259 0.0368468 0)
(10.0314 0.0398624 0)
(10.0365 0.0424256 0)
(10.0411 0.0447724 0)
(10.0454 0.0470844 0)
(10.0492 0.0494916 0)
(10.0527 0.0520889 0)
(10.056 0.0549465 0)
(10.0591 0.0581098 0)
(10.0622 0.0615951 0)
(10.0653 0.065376 0)
(10.0686 0.0693851 0)
(10.0722 0.0733787 0)
(10.0002 0.00462685 0)
(10.0026 0.0132233 0)
(10.007 0.020463 0)
(10.0125 0.0260611 0)
(10.0181 0.0304761 0)
(10.0235 0.0341174 0)
(10.0288 0.0371822 0)
(10.0338 0.0398454 0)
(10.0384 0.0422987 0)
(10.0427 0.0447099 0)
(10.0466 0.0472049 0)
(10.0503 0.0498708 0)
(10.0538 0.0527539 0)
(10.0572 0.0558815 0)
(10.0605 0.0592594 0)
(10.0639 0.0628643 0)
(10.0674 0.0666487 0)
(10.0711 0.0704085 0)
(10.0002 0.00404442 0)
(10.0022 0.0114943 0)
(10.006 0.0179755 0)
(10.0109 0.0232031 0)
(10.0161 0.0274292 0)
(10.0212 0.0309701 0)
(10.0263 0.0340314 0)
(10.0311 0.0367614 0)
(10.0357 0.0392981 0)
(10.04 0.0417785 0)
(10.0441 0.0443296 0)
(10.048 0.0470303 0)
(10.0517 0.049914 0)
(10.0553 0.0529885 0)
(10.0589 0.0562476 0)
(10.0626 0.0596728 0)
(10.0663 0.0632367 0)
(10.0701 0.0667662 0)
(10.0002 0.00343929 0)
(10.0019 0.00968947 0)
(10.0052 0.0153163 0)
(10.0095 0.0200375 0)
(10.0142 0.0239745 0)
(10.0191 0.0273386 0)
(10.0239 0.0303133 0)
(10.0286 0.0330375 0)
(10.0332 0.0356094 0)
(10.0376 0.0381245 0)
(10.0418 0.0406837 0)
(10.0459 0.0433623 0)
(10.0499 0.0461946 0)
(10.0538 0.0491765 0)
(10.0576 0.0522935 0)
(10.0615 0.0555263 0)
(10.0654 0.058862 0)
(10.0693 0.0621606 0)
(10.0002 0.00280504 0)
(10.0016 0.00780169 0)
(10.0045 0.0124735 0)
(10.0083 0.0165408 0)
(10.0127 0.0200551 0)
(10.0172 0.0231418 0)
(10.0219 0.0259291 0)
(10.0266 0.0285422 0)
(10.0311 0.0310637 0)
(10.0356 0.0335497 0)
(10.04 0.0360587 0)
(10.0443 0.0386536 0)
(10.0485 0.041367 0)
(10.0526 0.0442016 0)
(10.0567 0.047139 0)
(10.0608 0.0501584 0)
(10.065 0.0532529 0)
(10.0691 0.0563057 0)
(10.0002 0.0021294 0)
(10.0014 0.00580111 0)
(10.004 0.00939663 0)
(10.0075 0.012654 0)
(10.0115 0.0155821 0)
(10.0159 0.0182505 0)
(10.0204 0.0207283 0)
(10.025 0.0231043 0)
(10.0296 0.0254489 0)
(10.0342 0.0277952 0)
(10.0387 0.0301696 0)
(10.0433 0.0326047 0)
(10.0478 0.035128 0)
(10.0522 0.0377454 0)
(10.0565 0.0404454 0)
(10.0609 0.0432064 0)
(10.0653 0.046025 0)
(10.0696 0.048798 0)
(10.0001 0.00138386 0)
(10.0013 0.00360945 0)
(10.0037 0.00597249 0)
(10.007 0.00823589 0)
(10.0109 0.01038 0)
(10.0151 0.0124419 0)
(10.0196 0.0144498 0)
(10.0243 0.0164417 0)
(10.0291 0.0184606 0)
(10.0338 0.0205274 0)
(10.0385 0.0226483 0)
(10.0433 0.0248296 0)
(10.048 0.027082 0)
(10.0527 0.0294058 0)
(10.0574 0.0317951 0)
(10.062 0.0342334 0)
(10.0666 0.0367175 0)
(10.0711 0.0391585 0)
(10.0002 0.000505323 0)
(10.0013 0.00106277 0)
(10.0037 0.00194428 0)
(10.007 0.00296575 0)
(10.011 0.00409623 0)
(10.0153 0.00533575 0)
(10.02 0.00668045 0)
(10.0248 0.00811677 0)
(10.0298 0.00965057 0)
(10.0348 0.0112798 0)
(10.0398 0.0130038 0)
(10.0448 0.014806 0)
(10.0498 0.0166815 0)
(10.0548 0.0186163 0)
(10.0597 0.0206072 0)
(10.0646 0.0226388 0)
(10.0695 0.0247121 0)
(10.0743 0.0267494 0)
(10.0002 -0.000373853 0)
(10.0015 -0.00145155 0)
(10.004 -0.00206634 0)
(10.0076 -0.00230242 0)
(10.0119 -0.0021938 0)
(10.0166 -0.00178754 0)
(10.0216 -0.00113145 0)
(10.0268 -0.000264097 0)
(10.032 0.000772309 0)
(10.0373 0.00196256 0)
(10.0426 0.00327928 0)
(10.0479 0.00470312 0)
(10.0532 0.00619974 0)
(10.0584 0.0077604 0)
(10.0635 0.00936626 0)
(10.0686 0.01102 0)
(10.0737 0.0127061 0)
(10.0787 0.0143751 0)
(10.0002 -0.00115027 0)
(10.0016 -0.00368631 0)
(10.0045 -0.00563816 0)
(10.0086 -0.00693445 0)
(10.0134 -0.00763693 0)
(10.0185 -0.00788221 0)
(10.0238 -0.00776384 0)
(10.0293 -0.00734208 0)
(10.0349 -0.00668022 0)
(10.0404 -0.00581733 0)
(10.0459 -0.00479574 0)
(10.0514 -0.00365288 0)
(10.0569 -0.0024348 0)
(10.0623 -0.001156 0)
(10.0676 0.000166016 0)
(10.0729 0.00153311 0)
(10.0781 0.00293051 0)
(10.0832 0.00431171 0)
(10.0002 -0.00189421 0)
(10.0018 -0.00590389 0)
(10.0052 -0.00921635 0)
(10.0099 -0.0114895 0)
(10.0153 -0.0128564 0)
(10.0208 -0.0136113 0)
(10.0266 -0.0139006 0)
(10.0324 -0.0138218 0)
(10.0383 -0.0134545 0)
(10.0441 -0.0128625 0)
(10.0499 -0.0120862 0)
(10.0556 -0.0111868 0)
(10.0612 -0.0101985 0)
(10.0667 -0.00915893 0)
(10.0721 -0.00806221 0)
(10.0775 -0.00693452 0)
(10.0829 -0.00576766 0)
(10.088 -0.00462902 0)
(10.0002 -0.0025931 0)
(10.0019 -0.00814388 0)
(10.006 -0.0128087 0)
(10.0115 -0.0159502 0)
(10.0176 -0.0179292 0)
(10.0237 -0.019143 0)
(10.0298 -0.0197337 0)
(10.036 -0.0198471 0)
(10.0422 -0.0196426 0)
(10.0482 -0.0192146 0)
(10.0542 -0.0186185 0)
(10.06 -0.017906 0)
(10.0658 -0.0171166 0)
(10.0714 -0.0162697 0)
(10.077 -0.015374 0)
(10.0824 -0.0144392 0)
(10.0878 -0.013478 0)
(10.093 -0.0125315 0)
(10.0001 -0.00321285 0)
(10.002 -0.0107747 0)
(10.0068 -0.0165527 0)
(10.0134 -0.0200328 0)
(10.0201 -0.0224656 0)
(10.0267 -0.0242215 0)
(10.0334 -0.0251781 0)
(10.0399 -0.0254735 0)
(10.0463 -0.0253659 0)
(10.0526 -0.0250145 0)
(10.0587 -0.0245047 0)
(10.0647 -0.0238916 0)
(10.0705 -0.0232214 0)
(10.0762 -0.0225029 0)
(10.0818 -0.0217528 0)
(10.0874 -0.0209711 0)
(10.0928 -0.0201796 0)
(10.098 -0.0193945 0)
(9.99994 -0.00312631 0)
(10.0018 -0.0143687 0)
(10.0079 -0.0216823 0)
(10.0154 -0.0247165 0)
(10.0225 -0.0267804 0)
(10.0296 -0.0285935 0)
(10.0369 -0.0297654 0)
(10.0441 -0.0303016 0)
(10.0508 -0.0304148 0)
(10.0573 -0.0302429 0)
(10.0636 -0.0298694 0)
(10.0697 -0.0293678 0)
(10.0755 -0.0287906 0)
(10.0812 -0.028164 0)
(10.0867 -0.0275013 0)
(10.0921 -0.0268209 0)
(10.0974 -0.0261322 0)
(10.1024 -0.0254622 0)
(9.99862 -0.000194843 0)
(9.99925 -0.0153298 0)
(10.0082 -0.026617 0)
(10.0178 -0.0313302 0)
(10.0257 -0.0333327 0)
(10.0335 -0.0342538 0)
(10.0415 -0.0345446 0)
(10.0492 -0.0345572 0)
(10.0563 -0.0344459 0)
(10.063 -0.0342061 0)
(10.0692 -0.0338402 0)
(10.075 -0.0333806 0)
(10.0804 -0.0328678 0)
(10.0856 -0.0323132 0)
(10.0905 -0.0317256 0)
(10.0951 -0.0311234 0)
(10.0996 -0.0305159 0)
(10.1038 -0.0299385 0)
(9.99491 0.0015368 0)
(9.99309 -0.00779732 0)
(10.0066 -0.0197465 0)
(10.0214 -0.0313849 0)
(10.0326 -0.0393303 0)
(10.0421 -0.0427286 0)
(10.0506 -0.0433127 0)
(10.0579 -0.0428148 0)
(10.0641 -0.0419812 0)
(10.0695 -0.0409996 0)
(10.0741 -0.0399542 0)
(10.078 -0.038915 0)
(10.0813 -0.0379251 0)
(10.0841 -0.0369803 0)
(10.0866 -0.0360724 0)
(10.0887 -0.0352 0)
(10.0905 -0.0343742 0)
(10.092 -0.0335923 0)
(9.99473 -0.0304951 0)
(9.99962 -0.0225984 0)
(10.0152 -0.00222994 0)
(10.0315 -0.00127116 0)
(10.0451 -0.0107801 0)
(10.0559 -0.0198409 0)
(10.0629 -0.0259957 0)
(10.0665 -0.030005 0)
(10.0674 -0.0325388 0)
(10.0665 -0.0339608 0)
(10.064 -0.0345911 0)
(10.0604 -0.0347286 0)
(10.056 -0.0345716 0)
(10.0509 -0.0342387 0)
(10.0455 -0.0337963 0)
(10.0398 -0.0332903 0)
(10.034 -0.0327914 0)
(10.0281 -0.0322832 0)
(10.0274 -0.18295 0)
(10.0766 -0.288195 0)
(10.0874 -0.247564 0)
(10.0784 -0.186226 0)
(10.0676 -0.139835 0)
(10.0557 -0.107564 0)
(10.0393 -0.0850475 0)
(10.0184 -0.06945 0)
(9.99445 -0.058546 0)
(9.96888 -0.0506092 0)
(9.94252 -0.0446 0)
(9.91592 -0.0399116 0)
(9.8896 -0.0361788 0)
(9.86391 -0.0331428 0)
(9.83914 -0.0306234 0)
(9.81532 -0.0285381 0)
(9.79272 -0.0268421 0)
(9.77119 -0.0258555 0)
(9.93582 0.689569 0)
(9.86865 0.609686 0)
(9.76561 0.380852 0)
(9.62858 0.21768 0)
(9.48911 0.119548 0)
(9.36197 0.0635755 0)
(9.24924 0.032067 0)
(9.14965 0.0141913 0)
(9.06226 0.00389364 0)
(8.98582 -0.00209444 0)
(8.91864 -0.00555732 0)
(8.8593 -0.00757593 0)
(8.80655 -0.00872757 0)
(8.75959 -0.00939063 0)
(8.71749 -0.00979629 0)
(8.67959 -0.0100046 0)
(8.64499 -0.0101287 0)
(8.61313 -0.0106781 0)
(0.0418865 -0.0244139 -2.78427e-19)
(0.106129 -0.0639593 1.10235e-19)
(0.174982 -0.0852004 0)
(0.247625 -0.116391 0)
(0.324148 -0.13304 0)
(0.407579 -0.115748 -1.02623e-19)
(0.467719 -0.0962183 0)
(0.516626 -0.0755642 0)
(0.552698 -0.053054 0)
(0.574361 -0.0362275 0)
(0.587017 -0.0253274 8.67047e-20)
(0.582453 0.031911 0)
(0.553256 0.0658373 0)
(0.520219 0.0607819 0)
(0.483237 0.0569678 0)
(0.442176 0.0562669 5.05038e-20)
(0.399376 0.0508444 0)
(0.357287 0.0384346 0)
(0.320344 0.0200253 0)
(0.293116 5.6915e-05 0)
(0.243877 0.0147728 0)
(0.19419 0.0263652 0)
(0.133004 0.0379398 0)
(0.0588779 0.052291 2.02143e-19)
(-0.0261793 0.0666596 -2.00888e-19)
(-0.124773 0.0805568 1.57461e-19)
(-0.239952 0.0973085 1.23651e-19)
(-0.369501 0.114801 0)
(-0.51082 0.130276 0)
(-0.66072 0.142375 -7.08531e-20)
(-0.816333 0.150731 -6.18065e-20)
(-0.97495 0.155559 0)
(-1.13427 0.157186 0)
(-1.29232 0.156184 -4.56178e-20)
(-1.44734 0.15292 0)
(-1.59821 0.148096 0)
(-1.74404 0.142216 3.7776e-20)
(-1.88434 0.135778 0)
(-2.01886 0.129107 3.47083e-20)
(-2.14761 0.122518 6.71031e-20)
(-2.27075 0.116175 0)
(-2.38855 0.110247 0)
(-2.50135 0.104785 0)
(-2.60956 0.099856 0)
(-2.71356 0.0954378 0)
(-2.8138 0.0915469 5.88093e-20)
(-2.91062 0.0881269 5.79523e-20)
(-3.00441 0.0851617 5.71731e-20)
(-3.09546 0.0825754 0)
(-3.18409 0.080342 -5.58339e-20)
(-3.27052 0.0783774 0)
(-3.355 0.0766537 5.47277e-20)
(-3.43764 0.075096 5.42524e-20)
(-3.51859 0.0736704 0)
(-3.59795 0.0722905 0)
(-3.6758 0.0709249 0)
(-3.75214 0.0695024 5.27548e-20)
(-3.82696 0.067993 0)
(-3.9002 0.0663279 0)
(-3.97182 0.0644926 0)
(-4.04165 0.0624509 0)
(-4.10953 0.0601931 0)
(-4.17526 0.057697 0)
(-4.23864 0.0549681 0)
(-4.29938 0.0520098 0)
(-4.35721 0.048839 -5.09762e-20)
(-4.41176 0.0454802 0)
(-4.46267 0.0419473 0)
(-4.50946 0.0382578 5.08526e-20)
(-4.55167 0.0344002 5.08825e-20)
(-4.58875 0.0303683 0)
(-4.62015 0.0261382 -5.10409e-20)
(-4.64531 0.0217198 5.1155e-20)
(-4.66373 0.0171734 0)
(-4.67502 0.0126542 -5.13662e-20)
(-4.6793 0.00833592 0)
(-4.67738 0.00415564 0)
(-4.66897 -0.000141853 5.12869e-20)
(-4.65389 -0.00460898 0)
(-4.63193 -0.00930228 -5.08974e-20)
(-4.60288 -0.0142318 0)
(-4.56653 -0.0194465 5.00755e-20)
(-4.52266 -0.0247936 4.94435e-20)
(-4.4712 -0.0303 4.86381e-20)
(-4.41211 -0.0357459 9.52648e-20)
(-4.34537 -0.0414427 -9.28678e-20)
(-4.27093 -0.047368 0)
(-4.18887 -0.053183 0)
(-4.09944 -0.0589095 0)
(-4.00287 -0.0643678 -7.80407e-20)
(-3.89948 -0.0698234 -7.28637e-20)
(-3.7896 -0.075202 6.70386e-20)
(-3.67359 -0.080189 0)
(-3.55195 -0.0848547 -5.33512e-20)
(-3.42514 -0.0891419 -4.54419e-20)
(-3.29373 -0.0929958 -3.67963e-20)
(-3.15831 -0.0963842 0)
(-3.01947 -0.0992913 0)
(-2.87785 -0.101701 0)
(-2.73408 -0.103641 5.43683e-21)
(-2.58874 -0.105115 0)
(-2.44239 -0.106136 0)
(-2.2956 -0.106705 -4.56195e-20)
(-2.14895 -0.10684 0)
(-2.00303 -0.106592 0)
(-1.85838 -0.105998 -9.39235e-20)
(-1.71551 -0.105133 0)
(-1.57488 -0.104008 0)
(-1.43686 -0.102694 1.51898e-19)
(-1.30178 -0.101196 1.73837e-19)
(-1.16985 -0.0995533 0)
(-1.04135 -0.0977662 -2.22562e-19)
(-0.916341 -0.0959719 0)
(-0.794994 -0.0940868 2.79478e-19)
(-0.677345 -0.0922012 0)
(-0.56344 -0.0902871 3.47284e-19)
(-0.453273 -0.0884225 3.86492e-19)
(-0.346815 -0.0865282 0)
(-0.243993 -0.0846173 0)
(-0.144781 -0.0826556 0)
(-0.0489442 -0.0802644 0)
(0.0444958 -0.0765222 0)
(0.135484 -0.0717843 0)
(0.222729 -0.0669107 0)
(0.306138 -0.0623104 5.07677e-19)
(0.385686 -0.0580371 -4.88064e-19)
(0.461574 -0.0541393 0)
(0.533991 -0.0505589 0)
(0.603191 -0.0472912 0)
(0.669421 -0.0443083 0)
(0.732866 -0.0415569 -8.38488e-19)
(0.793726 -0.0389932 0)
(0.852232 -0.0366738 8.00378e-19)
(0.908554 -0.034588 -7.83669e-19)
(0.962845 -0.0326836 0)
(1.01526 -0.0308861 0)
(1.06595 -0.0292081 0)
(1.11506 -0.0277094 7.28107e-19)
(1.16268 -0.0263831 7.16482e-19)
(1.20886 -0.0251429 0)
(1.25373 -0.0239581 6.95405e-19)
(1.29742 -0.0228749 6.85735e-19)
(1.33999 -0.0218808 -6.76504e-19)
(1.3815 -0.0209247 0)
(1.42205 -0.0200228 0)
(1.46168 -0.0192307 -6.51367e-19)
(1.50044 -0.0185122 0)
(1.53839 -0.0179048 0)
(1.57557 -0.0173113 0)
(1.61203 -0.0166214 0)
(1.64784 -0.0159622 6.16824e-19)
(1.68301 -0.01543 6.10807e-19)
(1.71759 -0.0150491 0)
(1.75161 -0.0147564 5.99531e-19)
(1.78504 -0.0143843 0)
(1.81795 -0.0139372 0)
(1.85039 -0.0135648 5.84297e-19)
(1.88227 -0.0131777 0)
(1.91363 -0.0127847 5.75115e-19)
(1.9445 -0.0124053 0)
(1.9749 -0.0120674 0)
(2.00483 -0.0117694 5.62528e-19)
(2.03436 -0.0115077 0)
(2.06348 -0.0113875 5.54808e-19)
(2.09214 -0.0111788 0)
(2.12045 -0.0108804 0)
(2.14842 -0.010727 0)
(2.17586 -0.0104979 -5.40927e-19)
(2.20278 -0.0101615 0)
(2.2291 -0.00997274 5.3506e-19)
(2.25443 -0.00962006 0)
(2.2786 -0.00883649 0)
(2.30137 -0.00802997 0)
(2.32203 -0.00726643 0)
(2.33982 -0.00629217 0)
(2.35345 -0.00490219 0)
(2.36016 -0.00188372 0)
(2.348 0.00397469 -1.07938e-18)
(2.32364 0.0168953 0)
(2.1984 0.0326836 0)
(0.0504164 -0.214964 6.48438e-19)
(0.135791 -0.275351 -2.90729e-19)
(0.212621 -0.257044 0)
(0.275958 -0.230992 1.05211e-19)
(0.323551 -0.209011 0)
(0.358681 -0.178624 4.58627e-20)
(0.383439 -0.142917 -8.93795e-20)
(0.398582 -0.105185 -8.82677e-20)
(0.404558 -0.0673964 0)
(0.40167 -0.0312266 -8.89071e-20)
(0.389069 0.00306771 -4.42148e-20)
(0.371716 0.035254 0)
(0.354436 0.0627041 0)
(0.328996 0.083564 0)
(0.293229 0.0982627 0)
(0.248237 0.107704 -4.03595e-20)
(0.195153 0.112962 0)
(0.131212 0.118404 8.77651e-20)
(0.0573802 0.128431 0)
(-0.039709 0.151692 0)
(-0.148168 0.176499 -9.9121e-20)
(-0.268094 0.206025 0)
(-0.401533 0.240121 8.63558e-20)
(-0.548301 0.2762 -4.02269e-20)
(-0.705032 0.311167 3.68314e-20)
(-0.867634 0.34274 -3.36852e-20)
(-1.03301 0.369173 -3.08857e-20)
(-1.19849 0.388939 0)
(-1.36174 0.401514 0)
(-1.52088 0.407089 2.46127e-20)
(-1.67447 0.406213 -2.27615e-20)
(-1.82142 0.399877 0)
(-1.96101 0.389177 0)
(-2.09281 0.375404 2.02356e-20)
(-2.21703 0.359679 0)
(-2.33404 0.342828 0)
(-2.44433 0.325575 -1.86112e-20)
(-2.54849 0.3085 0)
(-2.64711 0.291994 1.78194e-20)
(-2.74078 0.276355 -3.54376e-20)
(-2.83006 0.261736 0)
(-2.91546 0.248243 0)
(-2.99742 0.235877 -6.84608e-20)
(-3.07633 0.224632 -6.79502e-20)
(-3.15254 0.214426 -6.75093e-20)
(-3.22632 0.205203 3.33499e-20)
(-3.29793 0.196851 -3.36137e-20)
(-3.36754 0.189295 -9.99599e-20)
(-3.43531 0.182415 6.62236e-20)
(-3.50136 0.176136 3.32418e-20)
(-3.56578 0.170348 0)
(-3.62863 0.164988 -3.3071e-20)
(-3.68993 0.15996 3.24581e-20)
(-3.74967 0.155211 0)
(-3.80785 0.150644 0)
(-3.86443 0.146205 0)
(-3.91933 0.14181 -3.28768e-20)
(-3.97246 0.137405 0)
(-4.02374 0.132901 6.50885e-20)
(-4.07303 0.128246 0)
(-4.1202 0.123371 6.5111e-20)
(-4.16508 0.118226 0)
(-4.20751 0.112742 -6.51811e-20)
(-4.24732 0.106866 0)
(-4.28434 0.100548 6.52934e-20)
(-4.31839 0.0937453 -3.24465e-20)
(-4.34933 0.0864362 0)
(-4.37699 0.0785975 -6.55529e-20)
(-4.40124 0.0702296 -3.30061e-20)
(-4.42198 0.0613249 -3.30499e-20)
(-4.43917 0.0519095 0)
(-4.45281 0.0420146 -3.2834e-20)
(-4.46294 0.0317282 -3.31851e-20)
(-4.46956 0.0211749 0)
(-4.47259 0.0105502 3.31828e-20)
(-4.47145 -5.51371e-05 -6.58686e-20)
(-4.46478 -0.0106952 0)
(-4.45211 -0.0215164 -3.27967e-20)
(-4.43305 -0.032532 0)
(-4.40728 -0.0437768 9.66984e-20)
(-4.37455 -0.0551864 0)
(-4.33462 -0.0667419 -9.43656e-20)
(-4.28735 -0.0783568 -3.0857e-20)
(-4.2326 -0.0900072 3.04503e-20)
(-4.17028 -0.101573 5.95054e-20)
(-4.10029 -0.112995 -5.7921e-20)
(-4.02268 -0.124123 0)
(-3.93758 -0.134938 0)
(-3.84508 -0.145344 0)
(-3.74544 -0.155234 1.42018e-19)
(-3.63897 -0.164581 4.3236e-20)
(-3.52613 -0.17325 -3.95829e-20)
(-3.4073 -0.181119 0)
(-3.28291 -0.188127 -3.47901e-20)
(-3.1535 -0.194209 2.67691e-20)
(-3.01964 -0.199339 2.18948e-20)
(-2.88194 -0.203479 0)
(-2.74103 -0.206636 0)
(-2.59757 -0.208792 0)
(-2.45219 -0.209964 -2.88816e-22)
(-2.30551 -0.210153 0)
(-2.15815 -0.209429 2.06521e-20)
(-2.01072 -0.207845 5.29328e-20)
(-1.8638 -0.20548 -4.69582e-20)
(-1.71794 -0.202413 0)
(-1.57367 -0.198745 -3.47256e-20)
(-1.43147 -0.194591 0)
(-1.29175 -0.190021 -1.02959e-19)
(-1.15486 -0.185128 5.6267e-20)
(-1.02108 -0.179962 6.36259e-20)
(-0.890662 -0.174629 0)
(-0.763775 -0.169173 2.45013e-19)
(-0.640544 -0.163657 -1.76758e-19)
(-0.52107 -0.15811 -9.81951e-20)
(-0.405393 -0.152608 0)
(-0.29352 -0.147158 -1.13346e-19)
(-0.185409 -0.141813 -3.58788e-19)
(-0.0809901 -0.136634 0)
(0.0201111 -0.131799 -2.61624e-19)
(0.117813 -0.127257 -2.65322e-19)
(0.211934 -0.122587 -2.68776e-19)
(0.302261 -0.117183 0)
(0.388665 -0.111148 0)
(0.471522 -0.105056 0)
(0.551221 -0.0991988 1.39164e-19)
(0.627875 -0.0936746 1.42841e-19)
(0.701587 -0.0885303 0)
(0.772492 -0.0837492 2.87239e-19)
(0.84073 -0.0793248 2.88881e-19)
(0.906433 -0.0752281 0)
(0.969763 -0.0714405 2.93333e-19)
(1.03086 -0.0679368 5.85454e-19)
(1.08987 -0.0647145 -2.95229e-19)
(1.14689 -0.06174 -2.93161e-19)
(1.20208 -0.0589836 0)
(1.25557 -0.0564289 0)
(1.30746 -0.0540739 0)
(1.35784 -0.051903 -2.98191e-19)
(1.4068 -0.0498837 2.96485e-19)
(1.45443 -0.0479822 5.95814e-19)
(1.50084 -0.0461942 -2.9916e-19)
(1.54613 -0.0445314 2.9759e-19)
(1.59036 -0.0429832 2.99487e-19)
(1.63361 -0.0415301 0)
(1.67592 -0.0401699 0)
(1.71735 -0.0389075 -2.98213e-19)
(1.75794 -0.0377062 0)
(1.79773 -0.0365724 0)
(1.8368 -0.0355133 5.98405e-19)
(1.87519 -0.03451 0)
(1.91289 -0.0335806 2.98704e-19)
(1.94996 -0.0327119 -2.99898e-19)
(1.98643 -0.0318793 0)
(2.02234 -0.0310686 2.98839e-19)
(2.0577 -0.0302535 0)
(2.09252 -0.0294494 0)
(2.12682 -0.0287175 -2.99906e-19)
(2.16059 -0.0280049 5.98809e-19)
(2.19386 -0.0273085 -2.99825e-19)
(2.22665 -0.0266354 0)
(2.25899 -0.0259927 0)
(2.2909 -0.0253938 2.98703e-19)
(2.32237 -0.0247967 0)
(2.35343 -0.0242435 2.98456e-19)
(2.38412 -0.0236748 0)
(2.41438 -0.023078 0)
(2.4442 -0.0225337 0)
(2.47355 -0.0219423 2.98761e-19)
(2.50228 -0.0212266 0)
(2.53028 -0.020445 -2.9883e-19)
(2.55742 -0.0195126 0)
(2.5834 -0.0182881 0)
(2.60787 -0.0168503 5.99804e-19)
(2.63042 -0.0150408 -6.02237e-19)
(2.65052 -0.0125058 0)
(2.66689 -0.00877862 0)
(2.68028 -0.00239497 0)
(2.6872 0.00816223 1.88506e-18)
(2.69425 0.029151 0)
(2.67144 0.0648197 -1.30978e-18)
(0.0445527 -0.399634 9.32097e-22)
(0.104938 -0.434316 2.87399e-19)
(0.148667 -0.385296 0)
(0.182868 -0.329629 -1.60652e-19)
(0.206332 -0.274502 0)
(0.219123 -0.218748 0)
(0.222873 -0.16299 -1.48913e-22)
(0.218692 -0.108153 6.09083e-20)
(0.207101 -0.055025 6.1093e-20)
(0.188301 -0.00437406 6.15327e-20)
(0.162393 0.0434834 0)
(0.129903 0.0888227 0)
(0.0914681 0.129943 -6.33699e-20)
(0.0452729 0.166232 -1.29125e-19)
(-0.0106107 0.198328 1.28843e-19)
(-0.0781112 0.227753 0)
(-0.158529 0.256672 1.20676e-19)
(-0.25327 0.288105 -5.83524e-20)
(-0.362413 0.324945 0)
(-0.485432 0.368025 1.06036e-19)
(-0.618685 0.414672 5.06483e-20)
(-0.760131 0.462871 -9.43098e-20)
(-0.906819 0.509635 -4.4716e-20)
(-1.05529 0.551835 0)
(-1.20209 0.587217 7.79289e-20)
(-1.34428 0.614276 7.34277e-20)
(-1.47983 0.631984 0)
(-1.60769 0.640119 6.59747e-20)
(-1.72756 0.63922 0)
(-1.83956 0.630436 6.03265e-20)
(-1.94421 0.615211 2.89855e-20)
(-2.04221 0.59504 0)
(-2.13439 0.571393 0)
(-2.22163 0.545605 0)
(-2.3047 0.518871 0)
(-2.38418 0.492132 0)
(-2.46058 0.466076 0)
(-2.53436 0.441191 4.91375e-20)
(-2.60584 0.417789 -7.28131e-20)
(-2.67532 0.396045 0)
(-2.74299 0.376024 0)
(-2.80905 0.357712 0)
(-2.87363 0.341038 1.43749e-22)
(-2.93683 0.325894 4.69352e-20)
(-2.99875 0.312144 9.33169e-20)
(-3.05947 0.299647 -9.29986e-20)
(-3.11904 0.288253 -4.62473e-20)
(-3.17752 0.277818 4.63805e-20)
(-3.23493 0.268199 -2.62988e-22)
(-3.29131 0.259263 4.59514e-20)
(-3.34667 0.250884 0)
(-3.40102 0.24295 4.58404e-20)
(-3.45435 0.235355 -3.00093e-22)
(-3.50663 0.228002 0)
(-3.55783 0.220795 0)
(-3.6079 0.213648 -4.57883e-20)
(-3.6568 0.20648 0)
(-3.70445 0.199211 0)
(-3.75077 0.191767 4.55088e-20)
(-3.79566 0.184076 9.18369e-20)
(-3.83901 0.176079 -4.63465e-20)
(-3.8807 0.167714 0)
(-3.9206 0.158925 4.64692e-20)
(-3.95857 0.149658 0)
(-3.99445 0.139875 4.58945e-20)
(-4.02808 0.129537 4.66655e-20)
(-4.0593 0.118628 -9.2832e-20)
(-4.0879 0.107129 -4.62063e-20)
(-4.11369 0.0950386 0)
(-4.13643 0.0823487 9.33706e-20)
(-4.1559 0.0690624 0)
(-4.17182 0.0551702 1.40697e-19)
(-4.18388 0.0406725 9.37286e-20)
(-4.19171 0.025548 9.37561e-20)
(-4.19492 0.00979222 -9.35259e-20)
(-4.19305 -0.00662369 1.39906e-19)
(-4.18569 -0.0236349 0)
(-4.17245 -0.0411708 0)
(-4.153 -0.0591533 -9.15112e-20)
(-4.12701 -0.0775269 -1.3588e-19)
(-4.0942 -0.0961996 0)
(-4.05435 -0.115085 4.39247e-20)
(-4.00726 -0.134056 0)
(-3.95277 -0.153006 -1.26822e-19)
(-3.89079 -0.171786 8.3568e-22)
(-3.82123 -0.190275 -1.00333e-21)
(-3.74413 -0.208307 7.72401e-20)
(-3.65957 -0.22572 0)
(-3.5677 -0.242338 -7.0455e-20)
(-3.4688 -0.257993 1.70507e-21)
(-3.36319 -0.272633 0)
(-3.25133 -0.286108 0)
(-3.13359 -0.298218 0)
(-3.01044 -0.308841 4.40452e-20)
(-2.88241 -0.317904 0)
(-2.75009 -0.32534 0)
(-2.61411 -0.331128 0)
(-2.47511 -0.33526 0)
(-2.33373 -0.337764 0)
(-2.19064 -0.338673 5.58224e-21)
(-2.04647 -0.338027 0)
(-1.90185 -0.335902 -1.31363e-20)
(-1.75736 -0.332393 -2.12529e-20)
(-1.61358 -0.32765 2.94712e-20)
(-1.47105 -0.321808 0)
(-1.33027 -0.315041 4.60857e-20)
(-1.19168 -0.307492 0)
(-1.05566 -0.299311 6.2742e-20)
(-0.922536 -0.290612 -7.10246e-20)
(-0.792569 -0.281521 -2.3195e-19)
(-0.665978 -0.272141 0)
(-0.542911 -0.262591 -2.80717e-19)
(-0.42348 -0.252956 -9.79112e-20)
(-0.30775 -0.243315 0)
(-0.195739 -0.233738 -2.32697e-19)
(-0.0874085 -0.224325 -2.47586e-19)
(0.0174001 -0.215201 3.91038e-19)
(0.118589 -0.206366 0)
(0.21603 -0.197661 1.39628e-19)
(0.309778 -0.189063 1.43026e-19)
(0.39996 -0.180615 4.34645e-19)
(0.486672 -0.172344 0)
(0.570022 -0.164223 0)
(0.650219 -0.156271 0)
(0.72745 -0.148603 1.54131e-19)
(0.801843 -0.141299 0)
(0.873514 -0.134397 0)
(0.942584 -0.1279 -1.63751e-19)
(1.00918 -0.121814 -1.65618e-19)
(1.07343 -0.116119 0)
(1.13547 -0.110797 0)
(1.19542 -0.105836 -3.40974e-19)
(1.25341 -0.101222 0)
(1.30956 -0.0969277 3.46472e-19)
(1.36399 -0.0929246 3.47323e-19)
(1.41679 -0.0891903 0)
(1.46809 -0.0857211 0)
(1.51795 -0.0824951 -3.54274e-19)
(1.56647 -0.0794763 -1.31642e-21)
(1.61372 -0.0766374 -1.24966e-21)
(1.65981 -0.0739737 0)
(1.70482 -0.0714758 -7.24753e-19)
(1.74883 -0.0691293 0)
(1.79187 -0.0669204 0)
(1.83402 -0.0648515 0)
(1.87532 -0.0629057 3.68624e-19)
(1.91582 -0.0610753 0)
(1.95558 -0.0593442 -7.40698e-19)
(1.99461 -0.0577075 -3.72474e-19)
(2.03296 -0.0561687 0)
(2.07065 -0.054711 -3.74783e-19)
(2.10773 -0.0533258 0)
(2.14423 -0.0520049 0)
(2.18015 -0.0507235 -1.13249e-18)
(2.21551 -0.0494707 7.56582e-19)
(2.25034 -0.0482664 0)
(2.28466 -0.0471054 7.60344e-19)
(2.31846 -0.0459859 -3.8167e-19)
(2.35177 -0.0448944 0)
(2.38461 -0.0438382 0)
(2.41702 -0.042826 0)
(2.44898 -0.0418575 -1.15174e-18)
(2.48053 -0.0409338 0)
(2.51166 -0.040019 -3.85217e-19)
(2.54236 -0.0391097 0)
(2.57263 -0.0382173 0)
(2.60244 -0.0372916 0)
(2.63169 -0.0362899 0)
(2.66032 -0.0351757 0)
(2.68822 -0.0338654 0)
(2.71521 -0.0322872 -7.75875e-19)
(2.74106 -0.0304143 0)
(2.76556 -0.0281254 -3.90673e-19)
(2.78835 -0.0252099 1.17699e-18)
(2.80901 -0.0213699 0)
(2.82678 -0.0160215 0)
(2.84147 -0.00798347 -8.09551e-19)
(2.85088 0.00477871 -8.25077e-19)
(2.85971 0.0272731 8.38562e-19)
(2.85616 0.0681908 8.73649e-19)
(0.0186663 -0.517242 -7.00731e-19)
(0.0497459 -0.499119 -3.52439e-19)
(0.0613162 -0.430386 -1.66301e-19)
(0.067544 -0.35814 -6.74658e-20)
(0.0680217 -0.286169 0)
(0.0617012 -0.214788 1.09979e-19)
(0.04857 -0.144385 -5.29668e-20)
(0.0288178 -0.0754574 0)
(0.0024524 -0.00857762 -5.20683e-20)
(-0.0308281 0.0558086 0)
(-0.0714483 0.11756 1.01024e-19)
(-0.119803 0.176645 0)
(-0.176441 0.233072 4.8812e-20)
(-0.242238 0.287235 9.53731e-20)
(-0.318142 0.339944 -9.25886e-20)
(-0.404961 0.392277 0)
(-0.502967 0.445392 -8.55997e-20)
(-0.611569 0.500156 0)
(-0.729021 0.556482 0)
(-0.852511 0.61285 -7.35014e-20)
(-0.978585 0.666425 0)
(-1.10415 0.714664 2.93709e-22)
(-1.22636 0.755249 0)
(-1.34297 0.786451 0)
(-1.45253 0.807445 -8.92391e-23)
(-1.5543 0.818216 -5.31477e-20)
(-1.64822 0.819312 -5.08033e-20)
(-1.73478 0.811713 -4.86353e-20)
(-1.81481 0.796657 0)
(-1.88935 0.775539 -9.04252e-20)
(-1.95945 0.749836 0)
(-2.02609 0.720977 -4.27201e-20)
(-2.0901 0.690263 0)
(-2.15217 0.658813 0)
(-2.2128 0.627473 4.0041e-20)
(-2.27234 0.596902 0)
(-2.33101 0.567583 -3.88489e-20)
(-2.38896 0.539841 1.47546e-22)
(-2.44628 0.513869 7.58605e-20)
(-2.50301 0.489753 -7.52999e-20)
(-2.55917 0.467502 0)
(-2.61475 0.447064 0)
(-2.66975 0.428344 -3.69066e-20)
(-2.72416 0.41122 0)
(-2.77798 0.395552 -3.6697e-20)
(-2.83119 0.381189 3.66045e-20)
(-2.8838 0.367978 3.65304e-20)
(-2.9358 0.355768 0)
(-2.98717 0.34441 -3.64285e-20)
(-3.03793 0.333761 -3.63977e-20)
(-3.08805 0.323685 7.24567e-20)
(-3.13753 0.314058 -3.63722e-20)
(-3.18633 0.304758 -3.63766e-20)
(-3.23443 0.295673 0)
(-3.28179 0.286694 0)
(-3.32836 0.27772 3.64552e-20)
(-3.37408 0.268654 0)
(-3.41888 0.259404 0)
(-3.46269 0.249882 -7.32402e-20)
(-3.50541 0.240006 -7.33823e-20)
(-3.54692 0.229701 0)
(-3.58711 0.218893 0)
(-3.62584 0.207515 0)
(-3.66295 0.195502 0)
(-3.69828 0.182801 -7.42664e-20)
(-3.73165 0.16936 7.41429e-20)
(-3.76283 0.15514 7.46886e-20)
(-3.79161 0.140105 1.49525e-19)
(-3.81772 0.124224 0)
(-3.84088 0.107466 -2.42362e-22)
(-3.86079 0.0898024 0)
(-3.87712 0.0712046 -7.56962e-20)