/*--------------------------------*- C++ -*----------------------------------*\
  =========                 |
  \\      /  F ield         | OpenFOAM: The Open Source CFD Toolbox
   \\    /   O peration     | Website:  https://openfoam.org
    \\  /    A nd           | Version:  8
     \\/     M anipulation  |
\*---------------------------------------------------------------------------*/
FoamFile
{
    version     2.0;
    format      ascii;
    class       volScalarField;
    location    "287";
    object      epsilon;
}
// * * * * * * * * * * * * * * * * * * * * * * * * * * * * * * * * * * * * * //

dimensions      [0 2 -3 0 0 0 0];

internalField   nonuniform List<scalar> 
12225
(
285.516
270.697
257.922
243.802
232.472
223.072
216.825
212.693
212.742
213.942
217.25
220.853
228.103
232.712
241.295
246.678
254.055
264.199
52.4945
91.879
106.972
114.746
124.841
136.779
152.682
169.898
191.084
210.922
235.173
255.46
280.949
299.279
324.558
339.174
364.218
373.02
20.3233
34.8565
44.6743
50.47
55.3942
59.6081
64.6601
69.6443
76.3076
83.1834
91.4167
99.3124
108.137
116.914
125.48
135.213
142.454
153.533
15.3482
19.6977
24.1121
27.5692
30.4962
32.8703
35.1532
37.2943
39.4993
41.9177
44.3315
47.1988
49.6729
53.0293
55.3972
59.2112
61.3986
65.5917
14.6508
15.8626
17.3668
19.0741
20.6378
22.0262
23.2452
24.4312
25.4429
26.5943
27.5218
28.7563
29.6293
30.9812
31.8079
33.2557
34.0664
35.6279
14.7068
14.8769
15.2014
15.8668
16.5665
17.2869
17.9233
18.5841
19.1187
19.7336
20.1926
20.798
21.2073
21.8206
22.1959
22.8214
23.1744
23.8508
14.7421
14.6201
14.6248
14.737
14.9297
15.2191
15.4911
15.8088
16.0708
16.3824
16.6178
16.9197
17.1303
17.4261
17.6148
17.9103
18.0792
18.4028
14.7626
14.5866
14.4637
14.3812
14.3669
14.39
14.4381
14.5337
14.6185
14.7365
14.8307
14.9562
15.0475
15.1757
15.2605
15.3909
15.4688
15.618
14.7666
14.5908
14.4346
14.2963
14.1849
14.1044
14.0398
14.0066
13.9814
13.9785
13.9808
13.9916
14.004
14.0294
14.0469
14.0791
14.1027
14.1449
14.7663
14.5939
14.432
14.282
14.143
14.0219
13.9115
13.8194
13.737
13.6698
13.6102
13.5633
13.5181
13.4871
13.4516
13.4341
13.402
13.4005
14.7658
14.5945
14.4321
14.2803
14.1362
14.0032
13.8782
13.7644
13.6582
13.5629
13.4736
13.3952
13.3198
13.2561
13.1916
13.1408
13.0838
13.0451
14.7657
14.5943
14.4321
14.2798
14.1353
13.9999
13.8715
13.7518
13.6385
13.5337
13.4341
13.343
13.2557
13.1771
13.1003
13.0328
12.9647
12.9074
14.7657
14.5941
14.432
14.2794
14.1349
13.9989
13.8699
13.7485
13.6332
13.525
13.422
13.3257
13.2338
13.1484
13.0663
12.9906
12.9172
12.8502
14.7657
14.5939
14.4318
14.279
14.1346
13.9983
13.8692
13.7472
13.6315
13.5223
13.4184
13.3204
13.227
13.139
13.055
12.9759
12.9002
12.8291
14.7657
14.5938
14.4317
14.2787
14.1342
13.9977
13.8686
13.7464
13.6307
13.5211
13.4171
13.3185
13.2249
13.136
13.0516
12.9714
12.8951
12.8227
14.7657
14.5937
14.4315
14.2785
14.1339
13.9973
13.8681
13.7458
13.63
13.5202
13.4161
13.3174
13.2236
13.1346
13.05
12.9696
12.8931
12.8204
14.7657
14.5937
14.4315
14.2783
14.1337
13.997
13.8677
13.7453
13.6294
13.5195
13.4154
13.3165
13.2227
13.1336
13.0489
12.9684
12.8918
12.819
14.7657
14.5937
14.4314
14.2782
14.1335
13.9968
13.8674
13.7449
13.629
13.5191
13.4148
13.3159
13.222
13.1328
13.0481
12.9675
12.8908
12.8179
14.7657
14.5937
14.4314
14.2782
14.1335
13.9967
13.8673
13.7448
13.6288
13.5189
13.4146
13.3156
13.2217
13.1325
13.0477
12.967
12.8903
12.8174
14.7657
14.5937
14.4314
14.2782
14.1336
13.9968
13.8674
13.745
13.629
13.519
13.4148
13.3158
13.2219
13.1327
13.0479
12.9673
12.8906
12.8177
14.7657
14.5937
14.4315
14.2784
14.1337
13.997
13.8677
13.7453
13.6294
13.5195
13.4154
13.3166
13.2229
13.1338
13.0493
12.9689
12.8926
12.8199
14.7657
14.5937
14.4316
14.2785
14.1341
13.9974
13.8685
13.7464
13.6312
13.522
13.419
13.3213
13.2293
13.1418
13.0594
12.981
12.9073
12.8368
14.7658
14.5937
14.4318
14.2788
14.1353
14.0002
13.8742
13.756
13.6463
13.5435
13.4485
13.3591
13.277
13.1992
13.1282
13.0601
12.9988
12.9386
14.7655
14.5928
14.4328
14.2844
14.1515
14.0321
13.929
13.8375
13.7593
13.6894
13.6306
13.5769
13.5328
13.4905
13.4574
13.423
13.3989
13.3693
14.7592
14.5932
14.4603
14.3602
14.3029
14.2766
14.2805
14.2921
14.3211
14.3531
14.3959
14.4346
14.4825
14.5217
14.572
14.609
14.6617
14.694
14.7213
14.6911
14.754
14.9176
15.1828
15.4611
15.7476
16.012
16.2724
16.5039
16.7362
16.9387
17.1508
17.3311
17.5311
17.6938
17.8891
18.0362
14.7477
15.5124
16.5473
17.6841
18.7044
19.5676
20.3373
20.9969
21.6196
22.1663
22.7192
23.2111
23.7403
24.2048
24.7333
25.1833
25.7257
26.1668
15.9871
20.9921
25.0238
27.7605
29.7847
31.3586
32.7773
34.0582
35.3599
36.6169
37.9762
39.2981
40.7628
42.1472
43.7196
45.1758
46.8862
48.3612
29.9032
47.2183
54.8697
58.6737
61.6144
64.4326
67.5816
70.9789
74.7405
78.717
82.9887
87.3487
91.9103
96.4562
101.108
105.63
110.184
114.586
165.798
160.075
154.899
149.565
144.479
139.678
135.615
132.109
129.27
126.974
125.32
124.045
123.341
122.826
122.843
122.961
123.286
123.83
0.155047
0.199446
0.372979
0.526154
0.671854
0.835981
1.02638
1.25362
1.52397
1.83662
2.18588
2.56351
2.9615
3.37255
3.7907
4.2108
4.62839
5.03913
5.43899
5.82299
6.18666
6.52331
6.82789
7.09228
7.31208
7.48101
7.59884
7.65541
7.65694
7.61681
7.59298
7.58883
7.98278
8.33666
8.6954
8.94816
8.72333
8.92037
9.15899
9.36009
40.1913
40.8977
41.8191
46.1237
48.6868
52.4796
55.903
59.7775
63.6816
67.8251
72.107
76.5798
81.2223
86.0492
91.058
96.2545
101.641
107.22
112.994
118.967
125.14
131.515
138.094
144.877
151.866
159.06
166.459
174.063
181.869
189.877
198.083
206.485
215.077
223.858
232.82
241.96
251.269
260.742
270.37
280.147
290.06
300.103
310.263
320.533
330.895
341.341
351.854
362.423
373.029
383.656
394.284
404.89
415.449
425.937
436.326
446.595
456.731
466.756
476.751
486.561
496.251
505.775
515.136
524.31
533.284
542.042
550.569
558.851
566.872
574.62
582.078
589.237
596.08
602.598
608.776
614.607
620.077
625.179
629.903
634.244
638.191
641.739
644.879
647.608
649.92
651.816
653.286
654.324
654.997
655.281
655.072
654.395
653.271
651.835
650.055
647.804
645.177
642.165
638.781
635.035
630.938
626.503
621.744
616.666
611.285
605.611
599.661
593.447
586.986
580.291
573.378
566.263
558.962
551.489
543.861
536.094
528.205
520.208
512.123
503.971
495.783
487.633
479.989
475.248
472.051
468.951
465.822
462.656
459.455
456.228
452.978
449.706
446.406
443.063
439.64
436.06
432.163
427.503
421.196
396.123
0.79877
0.498812
0.505263
0.570409
0.671156
0.802292
0.965938
1.16453
1.39865
1.66634
1.96357
2.28548
2.62719
2.98439
3.35332
3.73092
4.11444
4.50156
4.89
5.27766
5.6623
6.04175
6.41376
6.77603
7.12604
7.47296
7.84649
8.25291
8.71943
9.28501
9.99418
10.8491
11.8477
12.993
14.1157
15.3569
16.1751
18.6068
19.9087
21.8632
24.9732
25.9115
27.4462
29.1813
30.7923
32.5656
34.3459
36.2206
38.1436
40.1407
42.2012
44.3327
46.5336
48.8065
51.1519
53.5711
56.0648
58.6338
61.2787
64.0001
66.7981
69.6731
72.625
75.6538
78.759
81.9404
85.1972
88.5287
91.9338
95.4114
98.96
102.578
106.264
110.016
113.83
117.706
121.64
125.63
129.672
133.763
137.899
142.077
146.291
150.539
154.815
159.114
163.43
167.758
172.091
176.423
180.745
185.052
189.334
193.586
197.804
201.989
206.151
210.317
214.547
218.705
222.815
226.864
230.849
234.762
238.598
242.351
246.014
249.583
253.051
256.413
259.664
262.797
265.809
268.694
271.447
274.064
276.541
278.874
281.059
283.093
284.972
286.694
288.255
289.653
290.886
291.954
292.855
293.589
294.161
294.562
294.777
294.813
294.68
294.404
293.977
293.371
292.606
291.683
290.604
289.373
287.994
286.471
284.807
283.007
281.075
279.016
276.835
274.537
272.127
269.611
266.995
264.285
261.486
258.605
255.647
252.619
249.527
246.378
243.179
239.938
236.667
233.398
230.255
227.663
225.422
223.247
221.076
218.9
216.718
214.532
212.346
210.163
207.985
205.814
203.648
201.492
199.33
197.22
195.125
191.653
1.713
0.88918
0.802168
0.835718
0.920609
1.0445
1.205
1.4015
1.63265
1.89567
2.18665
2.50132
2.83569
3.18648
3.55113
3.92787
4.31546
4.71324
5.12089
5.53854
5.96667
6.40645
6.86006
7.33173
7.82926
8.35765
8.91357
9.51414
10.1726
10.8978
11.6914
12.537
13.4385
14.389
15.3629
16.4347
17.5692
18.8767
20.1063
21.4521
22.826
24.0389
25.3699
26.75
28.1579
29.6257
31.1413
32.7128
34.3359
36.0136
37.7456
39.5331
41.3765
43.2766
45.2338
47.2488
49.322
51.4538
53.6446
55.8947
58.2042
60.573
63.0012
65.4887
68.0351
70.6401
73.3032
76.0239
78.8013
81.6347
84.5229
87.4648
90.459
93.5041
96.5985
99.7402
102.927
106.158
109.429
112.739
116.084
119.462
122.869
126.303
129.76
133.236
136.726
140.228
143.737
147.248
150.757
154.261
157.755
161.239
164.709
168.169
171.62
175.068
178.503
181.896
185.249
188.554
191.807
195.002
198.136
201.202
204.196
207.113
209.949
212.699
215.358
217.922
220.387
222.749
225.003
227.147
229.177
231.089
232.881
234.549
236.092
237.505
238.788
239.938
240.954
241.835
242.58
243.189
243.661
243.992
244.17
244.213
244.123
243.904
243.556
243.069
242.451
241.704
240.829
239.83
238.71
237.472
236.119
234.655
233.082
231.406
229.63
227.758
225.795
223.745
221.613
219.404
217.123
214.774
212.362
209.893
207.372
204.803
202.193
199.549
196.879
194.205
191.586
189.158
186.878
184.649
182.434
180.225
178.019
175.819
173.628
171.45
169.288
167.148
165.037
162.972
160.967
159.114
157.453
155.825
2.77174
1.33031
1.14012
1.14214
1.21946
1.34447
1.50912
1.71019
1.94518
2.21112
2.50448
2.82163
3.15925
3.51475
3.88629
4.27286
4.6741
5.09031
5.52221
5.971
6.43817
6.92559
7.43543
7.97024
8.53271
9.12495
9.74874
10.4085
11.1081
11.8492
12.6313
13.4518
14.3118
15.2116
16.1817
17.1786
18.2262
19.3262
20.4558
21.6299
22.8347
24.0611
25.3422
26.6661
28.031
29.4432
30.9031
32.4125
33.9718
35.582
37.2437
38.9578
40.7248
42.5456
44.4206
46.3504
48.3356
50.3765
52.4736
54.6273
56.8378
59.1055
61.4303
63.8125
66.2518
68.7483
71.3015
73.9112
76.5768
79.2977
82.0731
84.902
87.7834
90.716
93.6983
96.7289
99.8058
102.927
106.091
109.295
112.536
115.812
119.12
122.457
125.819
129.204
132.607
136.025
139.454
142.891
146.332
149.773
153.212
156.645
160.071
163.487
166.893
170.284
173.648
176.975
180.262
183.502
186.69
189.822
192.892
195.894
198.825
201.679
204.452
207.138
209.734
212.234
214.635
216.932
219.123
221.202
223.166
225.013
226.74
228.343
229.819
231.168
232.385
233.471
234.422
235.239
235.921
236.466
236.875
237.14
237.252
237.247
237.103
236.828
236.422
235.883
235.214
234.417
233.496
232.453
231.291
230.014
228.625
227.126
225.524
223.82
222.02
220.127
218.147
216.084
213.942
211.727
209.443
207.094
204.687
202.226
199.716
197.163
194.571
191.948
189.302
186.65
184.024
181.485
179.024
176.601
174.197
171.804
169.421
167.051
164.697
162.364
160.056
157.781
155.548
153.375
151.294
149.39
147.711
146.244
3.84458
1.7854
1.4866
1.45651
1.52295
1.64602
1.81217
2.01564
2.25288
2.5207
2.81584
3.13514
3.47573
3.83541
4.21263
4.60664
5.01732
5.44514
5.89102
6.35623
6.84227
7.35076
7.88335
8.44159
9.02687
9.64031
10.2831
10.9566
11.6625
12.4025
13.1785
13.9907
14.839
15.7221
16.6489
17.6222
18.6413
19.7056
20.8123
21.9615
23.1511
24.382
25.6589
26.9811
28.3482
29.7621
31.2243
32.7361
34.2983
35.9121
37.5784
39.2981
41.0722
42.9016
44.7874
46.7301
48.7302
50.7884
52.9055
55.0821
57.3187
59.6159
61.9739
64.3933
66.8741
69.4166
72.0207
74.6863
77.4132
80.2008
83.0487
85.9561
88.9221
91.9457
95.0254
98.1598
101.347
104.586
107.873
111.208
114.586
118.006
121.464
124.958
128.483
132.037
135.615
139.214
142.83
146.46
150.098
153.741
157.385
161.026
164.66
168.281
171.885
175.466
179.015
182.527
185.994
189.412
192.775
196.077
199.312
202.475
205.56
208.562
211.476
214.296
217.017
219.635
222.146
224.544
226.825
228.986
231.023
232.932
234.71
236.355
237.863
239.232
240.461
241.547
242.488
243.285
243.935
244.44
244.797
244.992
245.045
244.961
244.731
244.359
243.847
243.194
242.405
241.481
240.426
239.242
237.934
236.505
234.959
233.3
231.532
229.66
227.689
225.623
223.467
221.226
218.906
216.511
214.047
211.52
208.934
206.294
203.608
200.879
198.114
195.319
192.504
189.679
186.868
184.1
181.378
178.686
176.014
173.359
170.72
168.1
165.504
162.937
160.404
157.916
155.485
153.135
150.897
148.847
147.022
145.382
4.87305
2.22895
1.82237
1.75962
1.813
1.93149
2.09631
2.29935
2.53603
2.80288
3.09682
3.41497
3.75483
4.11442
4.49235
4.88791
5.30094
5.73183
6.18137
6.65066
7.14099
7.65376
8.19036
8.75212
9.34026
9.95592
10.6003
11.2749
11.9813
12.7216
13.4982
14.3123
15.1652
16.0575
16.9908
17.9662
18.9849
20.0476
21.1548
22.3066
23.5032
24.7456
26.0351
27.3724
28.758
30.1931
31.679
33.2172
34.8087
36.455
38.1571
39.9163
41.7337
43.6105
45.5473
47.5458
49.6072
51.7326
53.9229
56.1792
58.5024
60.8934
63.3529
65.8815
68.4799
71.1484
73.8873
76.6968
79.5768
82.5272
85.5474
88.637
91.795
95.0205
98.3122
101.669
105.088
108.568
112.106
115.701
119.349
123.048
126.793
130.581
134.41
138.274
142.169
146.091
150.036
153.999
157.975
161.959
165.945
169.929
173.905
177.867
181.807
185.72
189.597
193.433
197.22
200.952
204.623
208.225
211.753
215.199
218.558
221.824
224.991
228.052
231.002
233.837
236.549
239.136
241.591
243.911
246.092
248.13
250.02
251.762
253.35
254.783
256.059
257.176
258.132
258.927
259.56
260.031
260.333
260.46
260.441
260.261
259.922
259.427
258.777
257.974
257.022
255.923
254.682
253.302
251.787
250.141
248.37
246.478
244.47
242.351
240.126
237.802
235.382
232.875
230.284
227.616
224.877
222.073
219.209
216.293
213.329
210.324
207.284
204.216
201.127
198.029
194.938
191.87
188.833
185.821
182.831
179.862
176.916
173.995
171.106
168.254
165.447
162.695
160.014
157.427
154.968
152.702
150.646
148.71
5.81864
2.64358
2.13374
2.03807
2.07668
2.18824
2.34907
2.54886
2.78202
3.04478
3.3341
3.64735
3.98229
4.33716
4.71071
5.10224
5.5116
5.93908
6.38537
6.85145
7.33855
7.84799
8.38116
8.93946
9.52427
10.137
10.7792
11.4525
12.1586
12.8997
13.6777
14.4942
15.3507
16.2479
17.1868
18.1682
19.1932
20.2629
21.3786
22.541
23.7512
25.0101
26.3191
27.6792
29.0914
30.557
32.0776
33.6547
35.2898
36.9844
38.7402
40.5586
42.4413
44.3897
46.4053
48.4899
50.6449
52.8719
55.1724
57.5478
59.9993
62.5282
65.1358
67.8229
70.5906
73.4396
76.3704
79.3835
82.4791
85.6571
88.9173
92.2593
95.6823
99.1852
102.767
106.425
110.159
113.966
117.843
121.787
125.796
129.866
133.993
138.173
142.401
146.674
150.985
155.331
159.704
164.101
168.515
172.939
177.368
181.794
186.211
190.612
194.987
199.331
203.635
207.891
212.092
216.23
220.298
224.287
228.192
232.004
235.716
239.321
242.812
246.183
249.428
252.539
255.512
258.341
261.02
263.545
265.911
268.114
270.15
272.016
273.709
275.227
276.566
277.725
278.704
279.501
280.115
280.547
280.782
280.84
280.724
280.428
279.956
279.31
278.492
277.505
276.352
275.039
273.569
271.946
270.177
268.265
266.216
264.036
261.73
259.306
256.768
254.123
251.378
248.539
245.613
242.606
239.525
236.377
233.169
229.906
226.597
223.247
219.864
216.454
213.025
209.587
206.152
202.733
199.337
195.964
192.616
189.294
186
182.74
179.518
176.343
173.223
170.169
167.198
164.334
161.608
159.076
156.736
154.457
6.65394
3.01603
2.4105
2.28235
2.30488
2.40746
2.56188
2.75583
2.98277
3.23859
3.52025
3.8253
4.15176
4.49806
4.86313
5.24637
5.64766
6.06728
6.50592
6.96457
7.44443
7.94685
8.47327
9.02514
9.60384
10.2113
10.849
11.5188
12.2225
12.962
13.739
14.5552
15.412
16.3106
17.2522
18.2378
19.2686
20.3462
21.4718
22.6468
23.8726
25.1504
26.482
27.8687
29.312
30.8136
32.3753
33.9992
35.687
37.4408
39.2626
41.1542
43.1177
45.1552
47.2687
49.4603
51.732
54.0857
56.5235
59.0473
61.6588
64.3597
67.1517
70.0361
73.0144
76.0876
79.2566
82.522
85.8845
89.344
92.9005
96.5536
100.303
104.146
108.083
112.112
116.23
120.435
124.724
129.094
133.54
138.059
142.647
147.299
152.009
156.772
161.581
166.432
171.317
176.23
181.163
186.108
191.059
196.007
200.944
205.861
210.75
215.6
220.404
225.153
229.838
234.45
238.981
243.421
247.763
251.998
256.118
260.114
263.979
267.706
271.286
274.714
277.983
281.086
284.017
286.772
289.345
291.732
293.929
295.932
297.737
299.343
300.747
301.947
302.942
303.733
304.317
304.691
304.85
304.815
304.578
304.141
303.507
302.679
301.66
300.453
299.064
297.497
295.757
293.85
291.781
289.557
287.183
284.668
282.016
279.236
276.334
273.318
270.195
266.972
263.658
260.26
256.784
253.24
249.634
245.973
242.266
238.52
234.741
230.938
227.118
223.29
219.464
215.652
211.86
208.093
204.354
200.645
196.972
193.339
189.754
186.225
182.76
179.373
176.08
172.905
169.878
167.042
164.382
161.738
7.36235
3.33771
2.64621
2.48666
2.49227
2.58412
2.73005
2.91592
3.13435
3.38089
3.65246
3.94677
4.26204
4.59692
4.95055
5.32249
5.71265
6.12117
6.54896
6.99711
7.46692
7.9598
8.47735
9.02135
9.59391
10.1956
10.8282
11.4933
12.1927
12.9282
13.7017
14.5149
15.3694
16.2666
17.208
18.195
19.2292
20.3122
21.4458
22.6319
23.8726
25.1711
26.528
27.9449
29.4231
30.9653
32.574
34.2516
36.0006
37.8235
39.7226
41.7004
43.7596
45.9027
48.1323
50.4511
52.8615
55.3662
57.9677
60.6684
63.4707
66.3766
69.3885
72.508
75.737
79.0769
82.529
86.0941
89.773
93.5659
97.4728
101.493
105.627
109.872
114.226
118.689
123.257
127.927
132.697
137.561
142.515
147.556
152.676
157.871
163.135
168.461
173.841
179.268
184.736
190.234
195.755
201.291
206.831
212.366
217.887
223.384
228.845
234.262
239.624
244.92
250.141
255.277
260.318
265.253
270.074
274.771
279.333
283.753
288.021
292.13
296.07
299.834
303.415
306.806
310.001
312.994
315.779
318.352
320.707
322.843
324.754
326.438
327.894
329.12
330.115
330.878
331.411
331.702
331.765
331.602
331.214
330.604
329.775
328.729
327.472
326.008
324.342
322.481
320.43
318.195
315.784
313.204
310.462
307.566
304.523
301.343
298.032
294.599
291.053
287.402
283.655
279.82
275.906
271.921
267.873
263.772
259.625
255.439
251.224
246.987
242.736
238.479
234.226
229.988
225.77
221.58
217.422
213.301
209.222
205.192
201.218
197.309
193.475
189.729
186.089
182.576
179.218
176.05
173.044
170.024
7.93489
3.60406
2.8381
2.64794
2.63705
2.71673
2.85241
3.02836
3.23643
3.47186
3.73155
4.0133
4.31549
4.63682
4.97684
5.33561
5.71361
6.11199
6.53038
6.96948
7.43044
7.91461
8.42345
8.95848
9.52104
10.113
10.736
11.392
12.083
12.8109
13.5776
14.3849
15.2346
16.1286
17.0687
18.0567
19.0947
20.1848
21.3291
22.5297
23.7888
25.1079
26.4901
27.9381
29.4556
31.0444
32.7074
34.4479
36.2687
38.1729
40.1635
42.2435
44.4162
46.6846
49.0522
51.522
54.0973
56.7813
59.5771
62.4877
65.5161
68.6649
71.9367
75.3339
78.8585
82.5125
86.2972
90.2139
94.2632
98.4456
102.761
107.209
111.788
116.497
121.334
126.297
131.382
136.585
141.902
147.33
152.861
158.491
164.213
170.02
175.905
181.859
187.875
193.943
200.055
206.2
212.369
218.551
224.735
230.91
237.066
243.19
249.27
255.296
261.255
267.136
272.928
278.619
284.198
289.653
294.974
300.151
305.172
310.028
314.708
319.205
323.507
327.608
331.5
335.174
338.624
341.843
344.827
347.569
350.066
352.313
354.307
356.046
357.527
358.749
359.713
360.417
360.861
361.042
360.968
360.641
360.064
359.24
358.175
356.871
355.334
353.57
351.586
349.387
346.981
344.377
341.581
338.602
335.448
332.129
328.654
325.03
321.269
317.379
313.369
309.251
305.032
300.722
296.332
291.87
287.345
282.767
278.145
273.488
268.803
264.1
259.386
254.671
249.963
245.272
240.605
235.97
231.372
226.818
222.314
217.866
213.484
209.176
204.953
200.83
196.822
192.95
189.239
185.717
182.347
178.947
8.37037
3.81355
2.98557
2.76682
2.73982
2.80645
2.93057
3.09516
3.29148
3.51448
3.76086
4.02898
4.31793
4.62767
4.95676
5.30459
5.67108
6.05611
6.46043
6.88549
7.3326
7.80312
8.29853
8.82035
9.37022
9.95008
10.562
11.2079
11.8895
12.6089
13.3681
14.1692
15.0144
15.9058
16.8458
17.8365
18.8805
19.9803
21.1384
22.3575
23.6405
24.9901
26.4096
27.9021
29.469
31.1143
32.8435
34.6609
36.5699
38.574
40.6767
42.8819
45.1933
47.6148
50.1503
52.8039
55.5792
58.4803
61.5109
64.6744
67.9745
71.4144
74.9971
78.7252
82.6013
86.6274
90.805
95.1355
99.6195
104.257
109.049
113.992
119.087
124.332
129.722
135.256
140.929
146.736
152.673
158.734
164.911
171.198
177.588
184.071
190.64
197.284
203.993
210.757
217.566
224.408
231.271
238.143
245.012
251.864
258.688
265.469
272.196
278.854
285.43
291.912
298.287
304.541
310.663
316.641
322.461
328.113
333.584
338.864
343.943
348.81
353.455
357.87
362.046
365.975
369.651
373.065
376.213
379.089
381.689
384.008
386.044
387.795
389.258
390.433
391.32
391.919
392.23
392.254
391.997
391.456
390.641
389.557
388.208
386.599
384.735
382.625
380.275
377.694
374.889
371.87
368.646
365.226
361.619
357.837
353.888
349.784
345.535
341.151
336.643
332.022
327.299
322.483
317.585
312.616
307.586
302.504
297.381
292.225
287.046
281.853
276.654
271.459
266.275
261.113
255.98
250.885
245.833
240.831
235.888
231.01
226.207
221.487
216.863
212.347
207.957
203.712
199.632
195.742
191.998
188.218
8.67432
3.96768
3.0904
2.8462
2.80349
2.85659
2.9682
3.12027
3.30397
3.51469
3.75029
4.00752
4.28463
4.58002
4.89337
5.22504
5.57535
5.94488
6.33494
6.74629
7.18005
7.63755
8.12029
8.6299
9.16815
9.73698
10.3384
10.9745
11.6474
12.3594
13.1128
13.9101
14.7538
15.6465
16.5909
17.5898
18.6464
19.7635
20.9444
22.1923
23.5108
24.9038
26.3739
27.9232
29.5553
31.2783
33.0965
35.0147
37.039
39.173
41.4208
43.7869
46.2759
48.8923
51.6409
54.5263
57.5531
60.7257
64.0485
67.5256
71.1609
74.9581
78.9206
83.0512
87.3525
91.8264
96.4747
101.298
106.297
111.472
116.821
122.343
128.036
133.897
139.922
146.107
152.447
158.935
165.566
172.332
179.224
186.235
193.355
200.574
207.881
215.266
222.716
230.219
237.764
245.335
252.922
260.508
268.081
275.626
283.129
290.574
297.948
305.235
312.422
319.493
326.435
333.233
339.875
346.346
352.634
358.727
364.611
370.275
375.708
380.9
385.839
390.518
394.926
399.055
402.9
406.452
409.705
412.655
415.298
417.629
419.646
421.347
422.73
423.796
424.545
424.978
425.096
424.906
424.401
423.589
422.48
421.079
419.391
417.423
415.18
412.672
409.908
406.896
403.646
400.168
396.473
392.57
388.471
384.187
379.73
375.11
370.34
365.432
360.396
355.245
349.99
344.642
339.214
333.716
328.159
322.553
316.91
311.239
305.55
299.852
294.154
288.465
282.795
277.151
271.544
265.979
260.466
255.012
249.623
244.309
239.078
233.94
228.908
223.994
219.214
214.586
210.129
205.864
201.742
197.587
8.85891
4.071
3.15634
2.89009
2.83239
2.87176
2.97109
3.11269
3.28624
3.48579
3.70714
3.94882
4.20986
4.48972
4.7885
5.10602
5.44258
5.79878
6.17554
6.57389
6.99505
7.44044
7.91164
8.41043
8.93873
9.4986
10.0923
10.722
11.3903
12.0999
12.8534
13.654
14.5044
15.4078
16.3675
17.387
18.4702
19.6212
20.843
22.1392
23.5126
24.9645
26.5029
28.1351
29.8674
31.7049
33.6529
35.7168
37.9032
40.2173
42.664
45.2489
47.9773
50.8547
53.8865
57.0779
60.434
63.9599
67.6603
71.5396
75.6021
79.8514
84.2908
88.9232
93.7507
98.7749
103.997
109.417
115.035
120.849
126.858
133.058
139.447
146.02
152.772
159.697
166.788
174.037
181.437
188.978
196.651
204.444
212.347
220.348
228.435
236.594
244.813
253.076
261.37
269.681
277.992
286.288
294.555
302.775
310.934
319.014
327.001
334.878
342.63
350.241
357.697
364.981
372.08
378.98
385.667
392.128
398.35
404.321
410.029
415.463
420.614
425.471
430.025
434.27
438.196
441.798
445.071
448.009
450.608
452.865
454.778
456.345
457.567
458.443
458.975
459.164
459.019
458.535
457.709
456.558
455.088
453.306
451.217
448.828
446.15
443.19
439.959
436.467
432.724
428.743
424.535
420.111
415.483
410.664
405.666
400.501
395.184
389.725
384.138
378.436
372.632
366.736
360.762
354.721
348.625
342.486
336.314
330.12
323.914
317.706
311.505
305.32
299.16
293.034
286.951
280.92
274.947
269.04
263.208
257.46
251.803
246.249
240.81
235.498
230.328
225.317
220.481
215.84
211.344
206.824
8.91882
4.12331
3.18584
2.90217
2.83194
2.86132
2.95043
3.07934
3.23867
3.42345
3.63085
3.85913
4.10706
4.37403
4.65993
4.96486
5.28926
5.63381
5.99945
6.38733
6.79881
7.23548
7.69911
8.19174
8.71556
9.27297
9.86644
10.4987
11.1725
11.8912
12.6582
13.4778
14.353
15.2872
16.2843
17.3478
18.4807
19.6851
20.9687
22.3375
23.7978
25.357
27.0204
28.7944
30.6861
32.7018
34.8479
37.1318
39.5598
42.1382
44.8735
47.7724
50.8412
54.0862
57.5131
61.1274
64.9345
68.9395
73.1471
77.5615
82.1865
87.0254
92.0807
97.3544
102.848
108.561
114.494
120.646
127.014
133.596
140.388
147.385
154.582
161.973
169.551
177.307
185.233
193.318
201.554
209.927
218.428
227.043
235.759
244.562
253.439
262.374
271.353
280.36
289.378
298.392
307.386
316.342
325.244
334.074
342.817
351.454
359.969
368.346
376.567
384.618
392.482
400.144
407.588
414.802
421.77
428.479
434.917
441.071
446.93
452.482
457.719
462.63
467.207
471.442
475.328
478.86
482.032
484.84
487.28
489.35
491.049
492.376
493.331
493.916
494.133
493.991
493.488
492.613
491.387
489.817
487.911
485.675
483.116
480.244
477.068
473.599
469.848
465.827
461.547
457.021
452.261
447.28
442.091
436.709
431.145
425.414
419.529
413.504
407.353
401.089
394.725
388.275
381.75
375.164
368.529
361.857
355.158
348.445
341.726
335.014
328.316
321.643
315.002
308.404
301.856
295.368
288.946
282.599
276.335
270.163
264.092
258.132
252.295
246.593
241.041
235.655
230.446
225.437
220.575
215.709
8.90062
4.13346
3.18557
2.89247
2.81264
2.82912
2.9047
3.02084
3.16813
3.34122
3.53706
3.75391
3.99075
4.24713
4.523
4.81866
5.13472
5.47207
5.83183
6.21532
6.62414
7.06016
7.52552
8.0227
8.55474
9.12476
9.73528
10.3895
11.0908
11.8428
12.6485
13.5096
14.4316
15.4209
16.4831
17.6239
18.8497
20.1677
21.5831
23.103
24.7349
26.487
28.3664
30.3808
32.5379
34.8455
37.3112
39.943
42.7486
45.7355
48.9115
52.2847
55.8624
59.6507
63.6549
67.8797
72.3299
77.0095
81.9221
87.0708
92.4577
98.0845
103.952
110.06
116.407
122.991
129.811
136.861
144.139
151.637
159.35
167.271
175.391
183.702
192.194
200.856
209.678
218.647
227.752
236.978
246.313
255.741
265.249
274.82
284.44
294.092
303.761
313.428
323.078
332.693
342.257
351.751
361.159
370.462
379.644
388.688
397.575
406.29
414.817
423.138
431.238
439.102
446.716
454.065
461.135
467.913
474.388
480.547
486.38
491.875
497.024
501.817
506.248
510.308
513.992
517.295
520.212
522.74
524.875
526.617
527.965
528.921
529.481
529.655
529.451
528.86
527.879
526.525
524.805
522.728
520.302
517.534
514.433
511.01
507.275
503.241
498.918
494.321
489.462
484.353
479.01
473.444
467.672
461.705
455.56
449.25
442.79
436.194
429.476
422.651
415.732
408.732
401.666
394.545
387.382
380.19
372.981
365.765
358.552
351.354
344.18
337.038
329.939
322.889
315.899
308.976
302.128
295.363
288.689
282.115
275.65
269.303
263.088
257.014
251.097
245.35
239.785
234.423
229.212
224.022
8.84207
4.12332
3.1691
2.86344
2.77136
2.7769
2.84205
2.94804
3.08547
3.24923
3.43648
3.64563
3.87585
4.12686
4.39885
4.69241
5.00861
5.34917
5.71547
6.10898
6.53175
6.98612
7.47461
7.99974
8.56337
9.16756
9.81825
10.5204
11.2791
12.0995
12.9874
13.9498
14.9924
16.1216
17.3448
18.6697
20.1047
21.6587
23.34
25.1574
27.1202
29.2377
31.5191
33.9736
36.6102
39.4376
42.4639
45.6964
49.1415
52.8092
56.7087
60.8494
65.2428
69.8902
74.7927
79.9522
85.3703
91.0481
96.986
103.183
109.639
116.351
123.316
130.53
137.988
145.685
153.614
161.767
170.137
178.714
187.49
196.453
205.593
214.899
224.357
233.957
243.683
253.523
263.463
273.488
283.582
293.732
303.921
314.134
324.354
334.566
344.752
354.895
364.98
374.988
384.904
394.71
404.389
413.923
423.298
432.494
441.498
450.291
458.859
467.186
475.257
483.058
490.575
497.795
504.704
511.292
517.546
523.456
529.011
534.203
539.023
543.463
547.516
551.177
554.44
557.301
559.757
561.806
563.443
564.674
565.491
565.911
565.906
565.541
564.742
563.552
561.974
560.016
557.684
554.991
551.943
548.548
544.818
540.763
536.396
531.729
526.775
521.548
516.061
510.329
504.366
498.186
491.804
485.234
478.492
471.593
464.551
457.381
450.098
442.717
435.251
427.714
420.119
412.48
404.809
397.119
389.421
381.726
374.045
366.387
358.763
351.182
343.651
336.18
328.776
321.447
314.202
307.047
299.992
293.043
286.211
279.505
272.935
266.514
260.254
254.169
248.268
242.573
237.033
231.548
8.72255
4.08935
3.13234
2.81935
2.72061
2.71967
2.7789
2.87999
3.01379
3.17558
3.36302
3.57513
3.81105
4.07083
4.35502
4.66447
5.0001
5.36216
5.75286
6.17594
6.63485
7.13325
7.67518
8.26524
8.90899
9.61262
10.3814
11.2219
12.1416
13.1486
14.2517
15.4603
16.7837
18.2318
19.8148
21.5437
23.4298
25.4846
27.7195
30.1457
32.7744
35.6163
38.6816
41.98
45.5207
49.312
53.3607
57.6727
62.2541
67.1107
72.2481
77.6737
83.3918
89.3951
95.6795
102.24
109.074
116.173
123.534
131.149
139.012
147.113
155.445
163.999
172.765
181.733
190.892
200.232
209.741
219.409
229.222
239.168
249.236
259.412
269.684
280.037
290.459
300.936
311.454
321.999
332.557
343.114
353.654
364.163
374.626
385.028
395.354
405.589
415.718
425.724
435.593
445.309
454.856
464.221
473.386
482.338
491.061
499.541
507.764
515.715
523.383
530.752
537.811
544.549
550.954
557.015
562.723
568.068
573.04
577.632
581.837
585.649
589.062
592.069
594.67
596.86
598.634
599.998
600.937
601.475
601.579
601.312
600.613
599.507
598.001
596.102
593.817
591.153
588.121
584.73
580.989
576.905
572.492
567.76
562.724
557.396
551.79
545.92
539.799
533.443
526.867
520.084
513.111
505.961
498.65
491.194
483.607
475.904
468.1
460.21
452.246
444.224
436.155
428.054
419.932
411.801
403.673
395.56
387.47
379.414
371.401
363.439
355.537
347.702
339.943
332.267
324.68
317.191
309.808
302.537
295.387
288.369
281.492
274.767
268.206
261.823
255.624
249.634
243.801
238.063
8.60169
4.036
3.08701
2.77548
2.6772
2.67765
2.74076
2.84813
2.99076
3.16403
3.36516
3.59204
3.84612
4.12865
4.44129
4.78623
5.16631
5.58554
6.04782
6.55762
7.1205
7.74288
8.43207
9.19625
10.0446
10.9869
12.0333
13.1953
14.4853
15.9164
17.5023
19.2573
21.1958
23.3325
25.6824
28.26
31.0791
34.1527
37.4933
41.1126
45.0208
49.2255
53.7329
58.5482
63.6763
69.1189
74.8747
80.9417
87.32
94.0069
100.998
108.304
115.883
123.725
131.821
140.158
148.723
157.504
166.488
175.663
185.016
194.535
204.209
214.024
223.97
234.035
244.206
254.473
264.824
275.249
285.735
296.273
306.85
317.457
328.082
338.713
349.34
359.952
370.537
381.084
391.581
402.017
412.38
422.658
432.838
442.909
452.859
462.673
472.34
481.846
491.18
500.327
509.274
518.009
526.518
534.788
542.807
550.562
558.041
565.231
572.122
578.7
584.956
590.879
596.46
601.69
606.56
611.062
615.187
618.929
622.284
625.245