/*--------------------------------*- C++ -*----------------------------------*\
  =========                 |
  \\      /  F ield         | OpenFOAM: The Open Source CFD Toolbox
   \\    /   O peration     | Website:  https://openfoam.org
    \\  /    A nd           | Version:  8
     \\/     M anipulation  |
\*---------------------------------------------------------------------------*/
FoamFile
{
    version     2.0;
    format      ascii;
    class       volScalarField;
    location    "287";
    object      k;
}
// * * * * * * * * * * * * * * * * * * * * * * * * * * * * * * * * * * * * * //

dimensions      [0 2 -2 0 0 0 0];

internalField   nonuniform List<scalar> 
12225
(
0.362829
0.34399
0.327753
0.309809
0.295412
0.283467
0.275529
0.270278
0.270336
0.271886
0.276044
0.280717
0.28984
0.295631
0.306778
0.312676
0.32569
0.323684
0.440271
0.468737
0.461616
0.44837
0.450343
0.458314
0.474575
0.498484
0.524413
0.55206
0.58073
0.606105
0.633776
0.653792
0.679642
0.692906
0.71801
0.724147
0.390407
0.41786
0.420244
0.41683
0.411634
0.407802
0.408019
0.410035
0.414564
0.42138
0.430716
0.439704
0.451145
0.461136
0.472781
0.483487
0.493441
0.505746
0.377043
0.387169
0.391466
0.391343
0.39026
0.387882
0.385662
0.384078
0.382883
0.382896
0.383354
0.384377
0.386267
0.388458
0.390892
0.394221
0.396511
0.40092
0.374434
0.376094
0.378427
0.378665
0.378275
0.3772
0.375489
0.373737
0.37201
0.370455
0.369255
0.368109
0.367378
0.366802
0.366439
0.366326
0.366343
0.366685
0.373779
0.372704
0.372659
0.372365
0.371773
0.370818
0.369554
0.368083
0.366572
0.364977
0.363528
0.362064
0.360756
0.359529
0.358397
0.357425
0.356436
0.355778
0.373775
0.37174
0.370388
0.369284
0.368235
0.367114
0.365915
0.364587
0.363239
0.361808
0.360423
0.359024
0.357679
0.356384
0.355122
0.353968
0.352795
0.351803
0.373818
0.371559
0.369635
0.367976
0.366501
0.365108
0.363776
0.36243
0.361108
0.359767
0.358451
0.357145
0.355865
0.354624
0.353403
0.352252
0.351101
0.350054
0.373832
0.371553
0.369449
0.367525
0.365777
0.364154
0.362645
0.361199
0.359818
0.358474
0.357171
0.355904
0.354669
0.353477
0.35231
0.351198
0.350099
0.349075
0.373831
0.37156
0.369418
0.367405
0.365529
0.363773
0.362133
0.360585
0.359122
0.357728
0.356395
0.355119
0.353889
0.352712
0.351571
0.350483
0.349422
0.348422
0.373829
0.37156
0.369413
0.367378
0.365458
0.363645
0.361937
0.360324
0.358799
0.357353
0.35598
0.354673
0.353425
0.352237
0.351096
0.35001
0.348961
0.34797
0.373828
0.371558
0.369409
0.36737
0.365439
0.363609
0.361876
0.360234
0.358678
0.357202
0.3558
0.354469
0.353201
0.351995
0.350843
0.349748
0.348696
0.347702
0.373827
0.371556
0.369405
0.367365
0.36543
0.363593
0.361851
0.360197
0.358626
0.357134
0.355716
0.354368
0.353085
0.351865
0.350701
0.349595
0.348536
0.347532
0.373826
0.371555
0.369401
0.367359
0.365422
0.363583
0.361837
0.360178
0.3586
0.357101
0.355674
0.354317
0.353025
0.351795
0.350622
0.349506
0.34844
0.347427
0.373826
0.371553
0.369398
0.367355
0.365416
0.363575
0.361826
0.360164
0.358584
0.357081
0.355651
0.35429
0.352993
0.351758
0.35058
0.349458
0.348388
0.347368
0.373826
0.371552
0.369396
0.367351
0.36541
0.363567
0.361817
0.360153
0.358571
0.357067
0.355634
0.35427
0.352971
0.351734
0.350554
0.349429
0.348356
0.347333
0.373825
0.371551
0.369394
0.367348
0.365406
0.363562
0.36181
0.360145
0.358561
0.357055
0.355621
0.354256
0.352955
0.351716
0.350534
0.349408
0.348333
0.347308
0.373825
0.371551
0.369393
0.367346
0.365403
0.363558
0.361805
0.360139
0.358554
0.357047
0.355612
0.354245
0.352943
0.351703
0.35052
0.349392
0.348316
0.347289
0.373825
0.37155
0.369393
0.367345
0.365402
0.363557
0.361804
0.360137
0.358552
0.357043
0.355608
0.35424
0.352938
0.351696
0.350513
0.349384
0.348307
0.34728
0.373825
0.371551
0.369393
0.367347
0.365404
0.363559
0.361806
0.360139
0.358554
0.357046
0.355611
0.354244
0.352941
0.3517
0.350516
0.349388
0.348311
0.347284
0.373825
0.371551
0.369395
0.367349
0.365407
0.363563
0.361811
0.360145
0.358562
0.357055
0.355621
0.354255
0.352954
0.351715
0.350533
0.349406
0.348332
0.347307
0.373826
0.371552
0.369397
0.367352
0.365412
0.363571
0.361822
0.360161
0.358583
0.357083
0.355656
0.354298
0.353006
0.351774
0.350602
0.349482
0.348416
0.347397
0.373826
0.371554
0.369399
0.367359
0.365428
0.363602
0.361875
0.36024
0.35869
0.35722
0.355823
0.354493
0.353227
0.352018
0.350865
0.349762
0.34871
0.3477
0.373828
0.371551
0.369412
0.367417
0.365556
0.363819
0.362189
0.360651
0.359189
0.357793
0.356456
0.355171
0.353935
0.352745
0.3516
0.350495
0.349435
0.348409
0.373823
0.371554
0.369604
0.367893
0.366339
0.364892
0.363495
0.362122
0.360761
0.359413
0.35808
0.356769
0.355488
0.354237
0.353028
0.351855
0.350733
0.349644
0.373781
0.37199
0.371113
0.370265
0.36936
0.368311
0.367048
0.365629
0.36412
0.362575
0.36103
0.359522
0.358073
0.356682
0.355381
0.354141
0.353009
0.351923
0.374297
0.375564
0.377778
0.377858
0.377291
0.375885
0.373835
0.371641
0.369505
0.367482
0.365664
0.364084
0.36271
0.361535
0.36061
0.359818
0.359289
0.358801
0.378732
0.394393
0.398293
0.396565
0.392558
0.387608
0.383642
0.380455
0.378266
0.376852
0.376497
0.376751
0.3774
0.378699
0.380445
0.382425
0.38483
0.387141
0.408344
0.427539
0.422424
0.411051
0.402227
0.397925
0.398558
0.401119
0.405989
0.413043
0.421001
0.429835
0.438843
0.448201
0.457317
0.466565
0.475334
0.484195
0.366033
0.353412
0.341988
0.33021
0.318982
0.308382
0.299409
0.291674
0.285403
0.280334
0.276682
0.273868
0.272311
0.271186
0.271177
0.271524
0.272158
0.273389
0.000538271
0.00315633
0.00590081
0.00831615
0.0106023
0.0131765
0.0161591
0.0197203
0.0239568
0.0288609
0.0343372
0.0402577
0.0464859
0.0529045
0.0594056
0.065901
0.0723041
0.0785412
0.0845357
0.0902233
0.0955397
0.10044
0.104891
0.108894
0.112474
0.115698
0.118535
0.120592
0.123959
0.126919
0.129817
0.132698
0.137248
0.139016
0.139795
0.13932
0.137554
0.139583
0.142529
0.142167
0.136723
0.144625
0.149985
0.158644
0.164887
0.17314
0.180575
0.188743
0.196795
0.205163
0.21362
0.222276
0.231073
0.24004
0.249159
0.25844
0.267876
0.27747
0.287217
0.297118
0.307169
0.31737
0.327715
0.338204
0.34883
0.35959
0.370479
0.381493
0.392623
0.403865
0.415212
0.426657
0.43819
0.449807
0.461495
0.473248
0.485054
0.496906
0.508791
0.520701
0.532623
0.544547
0.55646
0.568353
0.580208
0.592018
0.603765
0.615438
0.627018
0.638493
0.649842
0.661045
0.672079
0.682923
0.693554
0.703953
0.714113
0.724063
0.733891
0.743441
0.752786
0.761883
0.770741
0.77934
0.787672
0.795728
0.803496
0.810968
0.818133
0.824984
0.831512
0.837709
0.843567
0.84908
0.854239
0.859041
0.863478
0.867546
0.87124
0.874559
0.877497
0.88005
0.882215
0.883992
0.885376
0.886372
0.886973
0.887175
0.887037
0.886544
0.8856
0.884232
0.882454
0.880389
0.87801
0.875197
0.87205
0.868549
0.864708
0.860536
0.856041
0.851233
0.846124
0.840718
0.835025
0.829056
0.822822
0.816333
0.809603
0.802641
0.795462
0.788076
0.780496
0.772736
0.764807
0.756722
0.748496
0.740141
0.731672
0.723109
0.714478
0.705843
0.697603
0.692048
0.68814
0.68434
0.680509
0.676634
0.67272
0.668772
0.664793
0.660785
0.656741
0.652645
0.648463
0.644115
0.639444
0.634009
0.626924
0.600985
0.00277417
0.0115987
0.0176343
0.0221121
0.026044
0.0298693
0.0339453
0.0384812
0.0435681
0.0491994
0.0553049
0.0617867
0.0685397
0.0754682
0.0824864
0.0895207
0.096503
0.103373
0.110073
0.116552
0.122767
0.128689
0.134304
0.139626
0.144695
0.149578
0.154382
0.159291
0.164635
0.170474
0.177002
0.183864
0.189897
0.195097
0.200799
0.207105
0.216205
0.225402
0.235404
0.245311
0.25619
0.270106
0.283799
0.295965
0.307995
0.320874
0.334034
0.347586
0.361443
0.375634
0.390138
0.404962
0.420099
0.435553
0.451323
0.467411
0.483817
0.500541
0.517585
0.534947
0.552628
0.570626
0.588939
0.607564
0.626498
0.645738
0.665277
0.68511
0.705231
0.725631
0.746303
0.767236
0.788421
0.809846
0.831499
0.853367
0.875435
0.897691
0.920117
0.942697
0.965414
0.98825
1.01119
1.0342
1.05728
1.08039
1.10352
1.12664
1.14973
1.17276
1.1957
1.21853
1.24121
1.2637
1.28597
1.30796
1.32962
1.35088
1.37166
1.39216
1.41236
1.43222
1.45173
1.47087
1.48962
1.50795
1.52585
1.54328
1.56024
1.5767
1.59264
1.60805
1.6229
1.63718
1.65087
1.66396
1.67643
1.68827
1.69947
1.71001
1.71988
1.72907
1.73756
1.74537
1.75246
1.75885
1.76453
1.76949
1.77375
1.77729
1.78012
1.78213
1.78328
1.78382
1.78384
1.78301
1.78149
1.77928
1.77637
1.7728
1.76855
1.76365
1.75811
1.75195
1.74517
1.7378
1.72985
1.72134
1.71229
1.70272
1.69264
1.68208
1.67106
1.65961
1.64773
1.63547
1.62283
1.60985
1.59655
1.58295
1.56909
1.555
1.54084
1.52702
1.51338
1.49964
1.48577
1.47179
1.45774
1.44363
1.42947
1.41529
1.40109
1.38687
1.3726
1.35826
1.34367
1.32882
1.31235
1.27569
0.00595207
0.0200823
0.0281587
0.0341347
0.0394123
0.0445362
0.0498108
0.0554157
0.0614353
0.0678798
0.074707
0.081849
0.0892292
0.0967759
0.104425
0.112123
0.119822
0.127483
0.135071
0.142562
0.149937
0.157196
0.164361
0.17148
0.178639
0.185963
0.193614
0.201745
0.210489
0.219857
0.229727
0.239757
0.249853
0.260323
0.271317
0.28323
0.296168
0.309574
0.323469
0.337888
0.353014
0.368831
0.384828
0.400928
0.417296
0.434111
0.451327
0.468946
0.486952
0.505347
0.524126
0.54329
0.562838
0.58277
0.603086
0.623787
0.644872
0.666342
0.688196
0.710432
0.733049
0.756044
0.779415
0.803156
0.827264
0.851732
0.876553
0.901721
0.927226
0.953058
0.979207
1.00566
1.03241
1.05943
1.08672
1.11425
1.14202
1.16999
1.19816
1.2265
1.255
1.28362
1.31235
1.34116
1.37003
1.39893
1.42783
1.45671
1.48553
1.51427
1.5429
1.57138
1.59969
1.62777
1.65562
1.68318
1.71044
1.73736
1.76394
1.79016
1.816
1.84141
1.86638
1.89087
1.91485
1.9383
1.96119
1.98348
2.00516
2.0262
2.04657
2.06625
2.08522
2.10345
2.12092
2.13761
2.15351
2.16859
2.18283
2.19623
2.20877
2.22043
2.23121
2.24108
2.25005
2.25811
2.26524
2.27146
2.27676
2.28113
2.28457
2.28703
2.28841
2.28895
2.28872
2.28751
2.28539
2.28237
2.27847
2.2737
2.26808
2.26162
2.25434
2.24626
2.2374
2.22777
2.2174
2.20632
2.19455
2.1821
2.16902
2.15532
2.14104
2.1262
2.11082
2.09495
2.07861
2.06182
2.04463
2.02706
2.00915
1.99096
1.9726
1.95429
1.93599
1.91755
1.89898
1.88028
1.86149
1.84264
1.82376
1.80486
1.78599
1.76715
1.74836
1.72965
1.71097
1.69242
1.67277
1.64089
0.00963457
0.0281786
0.0381632
0.0454288
0.0517517
0.0577906
0.0638827
0.0702184
0.0768935
0.0839349
0.0913218
0.0990067
0.106932
0.115042
0.123287
0.131628
0.140033
0.148481
0.156957
0.165454
0.173978
0.18255
0.191208
0.200016
0.209062
0.218454
0.228303
0.238706
0.249721
0.261334
0.273472
0.286013
0.298957
0.31238
0.32638
0.341092
0.356518
0.372529
0.389089
0.406186
0.423814
0.441934
0.460453
0.479322
0.498558
0.51821
0.538288
0.558799
0.579742
0.601119
0.622932
0.64518
0.667867
0.690993
0.714558
0.738565
0.763014
0.787905
0.813237
0.83901
0.865221
0.89187
0.918952
0.946463
0.974398
1.00275
1.03152
1.06068
1.09024
1.12018
1.15049
1.18116
1.21217
1.24351
1.27516
1.3071
1.33931
1.37177
1.40447
1.43736
1.47044
1.50368
1.53705
1.57051
1.60405
1.63763
1.67123
1.7048
1.73832
1.77175
1.80506
1.83822
1.87118
1.90393
1.93641
1.96861
2.00049
2.032
2.06314
2.09384
2.1241
2.15385
2.18308
2.21175
2.23981
2.26724
2.294
2.32006
2.34539
2.36996
2.39373
2.41668
2.43878
2.46001
2.48033
2.49973
2.51819
2.53567
2.55217
2.56766
2.58213
2.59556
2.60793
2.61925
2.62949
2.63864
2.64672
2.6537
2.65959
2.66439
2.66808
2.67064
2.67195
2.6723
2.67163
2.66986
2.66702
2.66313
2.6582
2.65225
2.64531
2.63738
2.62849
2.61866
2.60792
2.59629
2.5838
2.57048
2.55635
2.54144
2.52579
2.50943
2.49239
2.4747
2.45639
2.43751
2.41809
2.39816
2.37775
2.35692
2.33571
2.31416
2.29239
2.27052
2.24856
2.22645
2.20419
2.1818
2.15932
2.13678
2.11423
2.0917
2.06923
2.04687
2.02468
2.00273
1.98109
1.95991
1.93812
1.90878
0.013368
0.0357905
0.0475398
0.0559955
0.0632471
0.0700532
0.0767956
0.0836889
0.0908494
0.0983265
0.106123
0.114213
0.122558
0.131117
0.139854
0.148742
0.157762
0.166903
0.176166
0.185557
0.195095
0.204809
0.214743
0.224956
0.235521
0.246516
0.258022
0.270097
0.282777
0.296054
0.309899
0.324276
0.339179
0.354633
0.37068
0.387357
0.404656
0.422552
0.441019
0.460031
0.479565
0.499598
0.520101
0.541047
0.562438
0.584286
0.606603
0.629395
0.652667
0.676423
0.700666
0.725401
0.750629
0.776353
0.802577
0.829302
0.85653
0.884261
0.912497
0.941238
0.970482
1.00023
1.03047
1.06121
1.09244
1.12416
1.15635
1.18901
1.22213
1.25569
1.28969
1.32411
1.35894
1.39415
1.42973
1.46565
1.5019
1.53845
1.57528
1.61236
1.64967
1.68716
1.72482
1.76261
1.8005
1.83845
1.87643
1.9144
1.95233
1.99017
2.02789
2.06545
2.10282
2.13995
2.1768
2.21333
2.2495
2.28528
2.32061
2.35546
2.38979
2.42355
2.4567
2.4892
2.52101
2.55209
2.5824
2.61191
2.64057
2.66835
2.69522
2.72114
2.74608
2.77002
2.79291
2.81474
2.83549
2.85511
2.8736
2.89094
2.9071
2.92206
2.93582
2.94836
2.95966
2.96973
2.97855
2.98613
2.99246
2.99753
3.00135
3.00385
3.00499
3.00505
3.00387
3.00147
2.99785
2.99304
2.98705
2.97991
2.97164
2.96226
2.95179
2.94027
2.92771
2.91416
2.89963
2.88417
2.8678
2.85057
2.8325
2.81363
2.794
2.77366
2.75263
2.73095
2.70867
2.68583
2.66248
2.63864
2.61438
2.58976
2.56485
2.53976
2.51451
2.48909
2.46351
2.4378
2.412
2.38616
2.36032
2.33454
2.30888
2.2834
2.25821
2.23342
2.20916
2.18565
2.16193
2.13319
0.0169476
0.0427316
0.0560705
0.0656134
0.0737033
0.0811831
0.0884769
0.0958246
0.103365
0.11117
0.119265
0.127648
0.136298
0.145192
0.154306
0.163622
0.173133
0.182837
0.192743
0.202865
0.213229
0.223867
0.234822
0.246141
0.257883
0.270105
0.282862
0.296196
0.310133
0.324679
0.339829
0.35557
0.371899
0.38882
0.406344
0.424478
0.443219
0.462557
0.482479
0.502968
0.524008
0.545584
0.567685
0.5903
0.613426
0.637066
0.661227
0.685917
0.71114
0.736903
0.763211
0.790069
0.817483
0.845456
0.873993
0.903097
0.932771
0.963019
0.993841
1.02524
1.05721
1.08977
1.12289
1.15658
1.19085
1.22567
1.26104
1.29696
1.33342
1.37039
1.40788
1.44585
1.48431
1.52322
1.56256
1.60232
1.64247
1.68298
1.72382
1.76497
1.80638
1.84804
1.8899
1.93193
1.97409
2.01634
2.05864
2.10094
2.14322
2.18542
2.22749
2.26941
2.31111
2.35255
2.3937
2.43449
2.47487
2.51481
2.55425
2.59315
2.63145
2.66911
2.70609
2.74233
2.77778
2.81241
2.84617
2.87902
2.9109
2.94179
2.97165
3.00043
3.0281
3.05463
3.07999
3.10414
3.12705
3.14871
3.16908
3.18814
3.20588
3.22226
3.23729
3.25094
3.2632
3.27407
3.28354
3.29161
3.29827
3.30353
3.30738
3.30974
3.31066
3.31031
3.30858
3.30547
3.30102
3.29523
3.28814
3.27977
3.27014
3.25928
3.24721
3.23398
3.21961
3.20413
3.18759
3.17001
3.15144
3.13191
3.11147
3.09016
3.06801
3.04508
3.0214
2.99702
2.97199
2.94635
2.92014
2.89342
2.86624
2.83867
2.81076
2.78261
2.75425
2.7257
2.69698
2.66813
2.63919
2.61023
2.58129
2.55246
2.52379
2.49539
2.46737
2.43991
2.41318
2.38738
2.36167
2.33231
0.0202393
0.0488752
0.063602
0.0741073
0.08294
0.0910112
0.0987797
0.106508
0.114353
0.122409
0.130722
0.13931
0.148173
0.1573
0.166684
0.176315
0.186194
0.196328
0.20673
0.217419
0.228424
0.239776
0.251512
0.263675
0.276309
0.289456
0.303157
0.317443
0.332337
0.34785
0.363986
0.380741
0.398115
0.416106
0.434715
0.453942
0.473786
0.494242
0.515305
0.536966
0.559217
0.582052
0.605465
0.629452
0.654012
0.679148
0.704865
0.73117
0.758069
0.78557
0.81368
0.842406
0.871755
0.901734
0.932347
0.963602
0.995503
1.02805
1.06126
1.09512
1.12964
1.16482
1.20065
1.23714
1.27429
1.31208
1.35051
1.38957
1.42925
1.46954
1.51042
1.55188
1.59389
1.63644
1.6795
1.72305
1.76706
1.81149
1.85633
1.90152
1.94704
1.99286
2.03892
2.08519
2.13163
2.17818
2.22481
2.27147
2.31811
2.36467
2.41112
2.45739
2.50343
2.54919
2.59462
2.63966
2.68425
2.72835
2.77188
2.8148
2.85706
2.8986
2.93937
2.97931
3.01838
3.05651
3.09368
3.12981
3.16488
3.19883
3.23161
3.26319
3.29353
3.32259
3.35034
3.37674
3.40175
3.42536
3.44753
3.46824
3.48747
3.5052
3.52141
3.53609
3.54923
3.56082
3.57085
3.57932
3.58624
3.59159
3.5954
3.59755
3.59819
3.59735
3.59499
3.59112
3.58576
3.57895
3.5707
3.56105
3.55002
3.53764
3.52395
3.50898
3.49278
3.47537
3.45679
3.4371
3.41633
3.39453
3.37173
3.34799
3.32336
3.29788
3.2716
3.24457
3.21683
3.18845
3.15947
3.12993
3.09991
3.06945
3.03864
3.00752
2.97617
2.9446
2.91286
2.88099
2.84904
2.81708
2.78517
2.75339
2.72184
2.69063
2.6599
2.62984
2.60067
2.57255
2.54472
2.51391
0.0231475
0.0541413
0.0700388
0.0813644
0.0908334
0.0994108
0.107582
0.115626
0.123717
0.131965
0.140433
0.14916
0.15816
0.16744
0.177003
0.18685
0.196989
0.207432
0.218195
0.229302
0.240778
0.252656
0.264967
0.277747
0.291031
0.304853
0.319243
0.334226
0.349822
0.366045
0.382901
0.400394
0.418525
0.437293
0.456699
0.476743
0.497425
0.518746
0.540703
0.563296
0.586524
0.610383
0.634875
0.66
0.68576
0.712159
0.739204
0.766903
0.795263
0.824294
0.854004
0.884404
0.915502
0.947306
0.979825
1.01307
1.04704
1.08175
1.11719
1.15339
1.19033
1.22803
1.26647
1.30567
1.34561
1.3863
1.42772
1.46986
1.51272
1.55629
1.60053
1.64544
1.691
1.73718
1.78395
1.83129
1.87916
1.92754
1.97638
2.02564
2.07529
2.12529
2.17558
2.22612
2.27687
2.32776
2.37875
2.42978
2.48081
2.53176
2.58259
2.63323
2.68363
2.73372
2.78343
2.83272
2.88151
2.92974
2.97735
3.02429
3.07048
3.11587
3.1604
3.20401
3.24665
3.28825
3.32877
3.36814
3.40633
3.44327
3.47892
3.51323
3.54617
3.57769
3.60775
3.63631
3.66334
3.68882
3.7127
3.73498
3.75562
3.7746
3.7919
3.80752
3.82144
3.83365
3.84416
3.85295
3.86003
3.8654
3.86908
3.87096
3.87122
3.86983
3.86677
3.86207
3.85576
3.84786
3.8384
3.82742
3.81495
3.80102
3.78567
3.76894
3.75088
3.73152
3.71092
3.68911
3.66614
3.64207
3.61694
3.5908
3.56371
3.53572
3.50688
3.47725
3.44687
3.4158
3.3841
3.35183
3.31903
3.28577
3.25212
3.21814
3.1839
3.14942
3.11476
3.07998
3.04512
3.01026
2.97549
2.94087
2.90653
2.87259
2.83922
2.80662
2.775
2.74453
2.71446
2.68205
0.0256142
0.0584985
0.0753433
0.0873375
0.0973278
0.106321
0.114821
0.12312
0.131403
0.139791
0.148366
0.157177
0.166257
0.175623
0.18529
0.195269
0.205574
0.216219
0.227225
0.238616
0.250416
0.262654
0.27536
0.288563
0.302292
0.316576
0.331438
0.346902
0.362984
0.379698
0.397055
0.41506
0.433719
0.453036
0.473012
0.493653
0.51496
0.536936
0.559587
0.582914
0.60692
0.631611
0.65699
0.683062
0.709833
0.73731
0.765502
0.794418
0.824069
0.854467
0.885623
0.917548
0.950254
0.983751
1.01805
1.05316
1.0891
1.12586
1.16346
1.20191
1.2412
1.28135
1.32235
1.3642
1.4069
1.45045
1.49484
1.54005
1.58608
1.63291
1.68052
1.7289
1.77801
1.82783
1.87833
1.92948
1.98125
2.03359
2.08646
2.13983
2.19363
2.24784
2.30238
2.35721
2.41228
2.46753
2.52289
2.57831
2.63372
2.68906
2.74426
2.79926
2.85399
2.90837
2.96235
3.01584
3.06879
3.12111
3.17275
3.22363
3.27369
3.32286
3.37107
3.41827
3.46439
3.50937
3.55315
3.59567
3.63687
3.6767
3.71511
3.75205
3.78747
3.82132
3.85358
3.88419
3.91312
3.94035
3.96583
3.98955
4.01148
4.03159
4.04988
4.06632
4.08091
4.09364
4.10451
4.11352
4.12066
4.12596
4.1294
4.13096
4.13074
4.12871
4.12488
4.11929
4.11196
4.10291
4.0922
4.07985
4.0659
4.05039
4.03336
4.01486
3.99493
3.97362
3.95099
3.92707
3.90193
3.87562
3.84819
3.8197
3.7902
3.75975
3.72841
3.69624
3.66329
3.62962
3.59528
3.56035
3.52486
3.4889
3.45251
3.41578
3.37875
3.34148
3.30403
3.26644
3.2288
3.19116
3.15363
3.11628
3.07926
3.04268
3.00673
2.97163
2.93757
2.90472
2.87236
2.83821
0.027608
0.0619528
0.0795276
0.0920375
0.10243
0.111745
0.120499
0.12899
0.137411
0.145895
0.154531
0.163382
0.172492
0.181889
0.191598
0.201636
0.212023
0.222777
0.233922
0.24548
0.257475
0.269933
0.282881
0.296344
0.310347
0.324916
0.34007
0.35583
0.372214
0.389235
0.406907
0.42524
0.444243
0.463923
0.484287
0.505343
0.527098
0.549559
0.572735
0.596632
0.621259
0.646624
0.672736
0.699604
0.727238
0.755649
0.784848
0.814849
0.845666
0.877311
0.9098
0.943147
0.977365
1.01247
1.04847
1.08538
1.12322
1.16199
1.2017
1.24236
1.28397
1.32655
1.37009
1.41459
1.46005
1.50647
1.55383
1.60213
1.65135
1.70147
1.75247
1.80433
1.85703
1.91052
1.96478
2.01978
2.07546
2.13178
2.18871
2.24618
2.30416
2.36257
2.42136
2.48048
2.53986
2.59943
2.65913
2.71889
2.77864
2.8383
2.89782
2.9571
3.01607
3.07466
3.1328
3.19039
3.24738
3.30368
3.35921
3.41391
3.4677
3.5205
3.57226
3.62289
3.67234
3.72053
3.7674
3.81288
3.85693
3.89948
3.94047
3.97985
4.01758
4.0536
4.08788
4.12037
4.15103
4.17983
4.20674
4.23174
4.25479
4.27589
4.295
4.31212
4.32724
4.34035
4.35145
4.36054
4.36763
4.37273
4.37584
4.37698
4.37619
4.37345
4.36877
4.36221
4.3538
4.34356
4.33155
4.31779
4.30234
4.28523
4.26651
4.24624
4.22446
4.20122
4.17658
4.1506
4.12333
4.09483
4.06516
4.03437
4.00254
3.96972
3.93597
3.90135
3.86593
3.82976
3.7929
3.75541
3.71737
3.67882
3.63983
3.60047
3.5608
3.52088
3.48077
3.44053
3.40024
3.35996
3.3198
3.27986
3.24026
3.20116
3.16273
3.12518
3.08872
3.05349
3.01881
2.98272
0.0291248
0.0645421
0.0826427
0.0955218
0.106201
0.115744
0.124673
0.133292
0.141799
0.150331
0.158986
0.167834
0.176929
0.18631
0.196008
0.206047
0.21645
0.22724
0.238437
0.250064
0.262144
0.274701
0.28776
0.301344
0.315476
0.330177
0.345469
0.361371
0.377901
0.395076
0.412911
0.431421
0.450618
0.470514
0.491122
0.512453
0.534518
0.557331
0.580902
0.605244
0.630369
0.65629
0.683022
0.710578
0.738973
0.768221
0.798338
0.82934
0.861245
0.894071
0.927834
0.962553
0.998243
1.03492
1.0726
1.1113
1.15103
1.1918
1.23363
1.27652
1.32048
1.36552
1.41163
1.45882
1.50708
1.55641
1.6068
1.65822
1.71068
1.76414
1.81858
1.87397
1.93029
1.98749
2.04553
2.10438
2.16399
2.22431
2.28528
2.34684
2.40895
2.47153
2.53453
2.59786
2.66147
2.72528
2.78922
2.85321
2.91717
2.98102
3.04469
3.10809
3.17114
3.23376
3.29585
3.35735
3.41817
3.47822
3.53742
3.5957
3.65298
3.70918
3.76422
3.81803
3.87054
3.92169
3.97139
4.01958
4.06621
4.11121
4.15452
4.19609
4.23587
4.2738
4.30985
4.34397
4.37612
4.40627
4.43438
4.46043
4.4844
4.50626
4.526
4.54361
4.55907
4.57239
4.58356
4.59259
4.59948
4.60426
4.60693
4.60751
4.60607
4.60251
4.59691
4.58931
4.57976
4.56829
4.55494
4.53976
4.52279
4.50408
4.48369
4.46167
4.43806
4.41294
4.38635
4.35837
4.32904
4.29844
4.26662
4.23365
4.19959
4.16451
4.12847
4.09154
4.05378
4.01526
3.97602
3.93615
3.89569
3.85472
3.8133
3.77149
3.72935
3.68696
3.64437
3.60165
3.55888
3.51614
3.47352
3.43113
3.38911
3.34761
3.30681
3.26692
3.22813
3.19057
3.1536
3.11554
0.0301833
0.0663335
0.08477
0.0978822
0.108738
0.118417
0.127444
0.136126
0.144662
0.153195
0.161828
0.17064
0.179687
0.189016
0.19866
0.208649
0.219008
0.22976
0.240928
0.252534
0.264602
0.277154
0.290212
0.3038
0.317939
0.332652
0.347959
0.363879
0.380432
0.39764
0.415521
0.434093
0.453374
0.473382
0.494131
0.515639
0.537922
0.561
0.584887
0.6096
0.635155
0.661568
0.688861
0.717053
0.746163
0.77621
0.807216
0.839201
0.872187
0.906194
0.941243
0.977354
1.01455
1.05284
1.09225
1.13279
1.17447
1.21732
1.26135
1.30655
1.35294
1.40053
1.44931
1.49928
1.55044
1.60277
1.65627
1.71091
1.76668
1.82354
1.88148
1.94045
2.00043
2.06135
2.1232
2.1859
2.24941
2.31368
2.37864
2.44422
2.51037
2.57702
2.64408
2.71149
2.77916
2.84703
2.915
2.98299
3.05093
3.11872
3.18628
3.25351
3.32034
3.38667
3.45242
3.51749
3.58179
3.64525
3.70777
3.76927
3.82966
3.88888
3.94683
4.00345
4.05865
4.11236
4.16452
4.21505
4.26389
4.31097
4.35624
4.39963
4.44111
4.48061
4.51809
4.55352
4.58684
4.61802
4.64704
4.67386
4.69847
4.72084
4.74096
4.75882
4.7744
4.78772
4.79876
4.80754
4.81407
4.81837
4.82046
4.82037
4.81818
4.81369
4.80709
4.7984
4.78766
4.77492
4.76021
4.7436
4.72513
4.70485
4.68282
4.65909
4.63373
4.60679
4.57835
4.54846
4.51719
4.4846
4.45077
4.41575
4.37962
4.34245
4.30429
4.26523
4.22531
4.18462
4.1432
4.10114
4.05848
4.01529
3.97164
3.92759
3.88321
3.83857
3.79372
3.74874
3.70371
3.6587
3.61383
3.5692
3.52494
3.48122
3.4382
3.3961
3.35509
3.3153
3.27613
3.23616
0.030826
0.0674071
0.0860087
0.0992297
0.110161
0.119888
0.128937
0.137619
0.146137
0.154633
0.163212
0.171954
0.180917
0.19015
0.199693
0.20958
0.219836
0.230488
0.241558
0.253069
0.265043
0.277503
0.290471
0.303971
0.318026
0.332661
0.347902
0.363763
0.380266
0.397433
0.415288
0.433853
0.45315
0.473202
0.494033
0.515667
0.538138
0.561462
0.585657
0.610742
0.636735
0.663647
0.691513
0.720361
0.75022
0.781113
0.813068
0.846108
0.88026
0.915548
0.951994
0.98962
1.02845
1.06849
1.10978
1.15232
1.19613
1.24122
1.28761
1.3353
1.3843
1.43461
1.48622
1.53913
1.59334
1.64882
1.70555
1.76352
1.8227
1.88306
1.94455
2.00714
2.07079
2.13544
2.20104
2.26754
2.33488
2.40298
2.47179
2.54123
2.61123
2.68171
2.7526
2.82381
2.89525
2.96685
3.03851
3.11015
3.18167
3.25299
3.32401
3.39465
3.4648
3.53437
3.60328
3.67142
3.73872
3.80507
3.87039
3.93459
3.99758
4.05929
4.11963
4.17853
4.2359
4.29167
4.34576
4.39812
4.44867
4.49734
4.54409
4.58885
4.63156
4.67219
4.71068
4.74698
4.78107
4.81291
4.84246
4.86971
4.89462
4.91718
4.93737
4.9552
4.97064
4.98371
4.9944
5.00273
5.0087
5.01236
5.01371
5.01287
5.00975
5.00427
4.99658
4.98674
4.97479
4.96076
4.9447
4.92668
4.90674
4.88494
4.86133
4.83599
4.80897
4.78034
4.75017
4.71851
4.68545
4.65105
4.61538
4.57851
4.54051
4.50145
4.46139
4.42041
4.37858
4.33596
4.29261
4.2486
4.20399
4.15885
4.11324
4.06722
4.02086
3.97423
3.92739
3.88042
3.83338
3.78637
3.73949
3.69285
3.64659
3.60085
3.55582
3.51169
3.46863
3.42676
3.38554
3.3438
0.0310348
0.0677915
0.0864294
0.0996598
0.11058
0.120283
0.129296
0.137927
0.146378
0.154793
0.163282
0.171931
0.180802
0.189939
0.199381
0.209161
0.219307
0.229845
0.240798
0.252189
0.264042
0.276378
0.289222
0.302597
0.316528
0.331039
0.346153
0.361894
0.378291
0.395374
0.413171
0.431712
0.451025
0.471138
0.492079
0.513875
0.536552
0.560142
0.584669
0.610159
0.636644
0.664139
0.692689
0.722333
0.753098
0.785012
0.818107
0.852412
0.887958
0.92477
0.96287
1.00228
1.04302
1.08511
1.12857
1.17341
1.21964
1.26728
1.31633
1.36679
1.41868
1.47197
1.52667
1.58275
1.64021
1.69903
1.75916
1.82059
1.88328
1.94719
2.01227
2.07847
2.14575
2.21404
2.28328
2.35342
2.42437
2.49608
2.56846
2.64144
2.71493
2.78887
2.86315
2.9377
3.01242
3.08724
3.16204
3.23675
3.31127
3.3855
3.45936
3.53274
3.60554
3.67769
3.74907
3.81959
3.88917
3.95771
4.02512
4.09132
4.1562
4.2197
4.28173
4.34222
4.40107
4.45822
4.5136
4.56714
4.61876
4.66841
4.71603
4.76156
4.80495
4.84615
4.88511
4.9218
4.95617
4.98819
5.01784
5.04508
5.0699
5.09228
5.11221
5.12967
5.14468
5.15722
5.16731
5.17496
5.18018
5.183
5.18348
5.18177
5.17759
5.17103
5.16222
5.15119
5.138
5.12269
5.10531
5.08593
5.06459
5.04135
5.01629
4.98946
4.96092
4.93076
4.89903
4.86581
4.83117
4.79518
4.7579
4.71942
4.6798
4.63912
4.59744
4.55484
4.51137
4.46712
4.42214
4.3765
4.33026
4.28348
4.23622
4.18856
4.14054
4.09225
4.04374
3.99508
3.94635
3.89765
3.84906
3.8007
3.75271
3.70522
3.65842
3.61249
3.56758
3.52385
3.48077
3.43746
0.0309713
0.0677139
0.0862884
0.0994649
0.110329
0.119969
0.128909
0.137457
0.145816
0.154132
0.16251
0.17103
0.179754
0.188731
0.198002
0.207602
0.217562
0.227909
0.238668
0.249864
0.26152
0.273663
0.286317
0.299508
0.313266
0.327619
0.342599
0.358238
0.374571
0.391631
0.409453
0.428071
0.447519
0.467829
0.489034
0.511169
0.534272
0.558387
0.583536
0.609741
0.63702
0.665415
0.694986
0.725766
0.757796
0.79111
0.825745
0.861738
0.899128
0.937932
0.978168
1.01986
1.06302
1.10765
1.15378
1.20141
1.25055
1.3012
1.35336
1.40702
1.46218
1.51883
1.57693
1.63648
1.69744
1.75978
1.82346
1.88843
1.95467
2.02211
2.0907
2.16038
2.23109
2.30278
2.37536
2.44876
2.52292
2.59776
2.67319
2.74915
2.82553
2.90226
2.97925
3.05641
3.13365
3.21088
3.28801
3.36495
3.44159
3.51785
3.59363
3.66884
3.74337
3.81715
3.89007
3.96203
4.03296
4.10275
4.17132
4.23858
4.30444
4.36883
4.43166
4.49286
4.55234
4.61004
4.66588
4.71979
4.77171
4.82158
4.86934
4.91494
4.95833
4.99945
5.03827
5.07474
5.10883
5.1405
5.16974
5.19651
5.22079
5.24257
5.26184
5.2786
5.29284
5.30456
5.31378
5.32051
5.32477
5.32659
5.32611
5.32337
5.31801
5.31032
5.30035
5.28813
5.27373
5.25718
5.23855
5.2179
5.19528
5.17075
5.14438
5.11624
5.0864
5.05492
5.02187
4.98734
4.95138
4.91408
4.8755
4.83572
4.79481
4.75283
4.70987
4.66599
4.62126
4.57574
4.5295
4.48259
4.43509
4.38705
4.33854
4.28961
4.24032
4.19074
4.14094
4.09097
4.04093
3.99089
3.94094
3.8912
3.84181
3.79289
3.74462
3.69717
3.65069
3.60534
3.56065
3.51604
0.030767
0.0673852
0.085775
0.0987954
0.109504
0.118984
0.127756
0.136132
0.144314
0.152445
0.160633
0.168957
0.177481
0.186259
0.195335
0.204742
0.214508
0.224661
0.235231
0.246243
0.257727
0.269711
0.282228
0.295309
0.308991
0.323307
0.338296
0.353994
0.370442
0.387681
0.405756
0.424719
0.444611
0.465465
0.487319
0.51021
0.534165
0.559183
0.585339
0.612704
0.641344
0.671313
0.702639
0.735358
0.769503
0.805109
0.842204
0.880812
0.920946
0.962636
1.00591
1.05079
1.09727
1.14534
1.195
1.24625
1.29909
1.35349
1.40945
1.46694
1.52594
1.58642
1.64835
1.71168
1.77638
1.8424
1.90969
1.9782
2.04787
2.11864
2.19046
2.26325
2.33695
2.41149
2.4868
2.5628
2.63942
2.71658
2.79419
2.87219
2.95048
3.02898
3.10761
3.18627
3.26489
3.34338
3.42164
3.49958
3.57712
3.65416
3.73062
3.8064
3.88141
3.95557
4.02877
4.10093
4.17197
4.2418
4.31033
4.37747
4.44314
4.50727
4.56979
4.6306
4.68964
4.74685
4.80214
4.85545
4.90672
4.9559
5.00292
5.04775
5.09032
5.13059
5.16852
5.20407
5.23721
5.2679
5.29613
5.32187
5.34509
5.3658
5.38397
5.3996
5.41271
5.42328
5.43133
5.43687
5.43993
5.44056
5.43904
5.435
5.42844
5.41955
5.40838
5.39498
5.37939
5.36166
5.34187
5.32005
5.29629
5.27063
5.24315
5.21391
5.18298
5.15044
5.11635
5.08079
5.04383
5.00554
4.96599
4.92526
4.88342
4.84053
4.79667
4.7519
4.7063
4.65992
4.61282
4.56508
4.51673
4.46785
4.4185
4.36872
4.31857
4.26813
4.21744
4.16658
4.11561
4.06462
4.0137
3.96296
3.91252
3.86251
3.8131
3.76444
3.71669
3.67001
3.62398
3.57837
0.0303523
0.0666916
0.0847936
0.0975811
0.108067
0.117329
0.125888
0.134054
0.142031
0.149963
0.157956
0.16609
0.174431
0.18303
0.191931
0.201171
0.210787
0.220809
0.23127
0.242202
0.253641
0.265627
0.278195
0.291387
0.305248
0.31983
0.335191
0.351365
0.368399
0.386341
0.405229
0.425082
0.445934
0.467879
0.490987
0.51532
0.54094
0.56793
0.596326
0.626177
0.657539
0.690455
0.724958
0.761074
0.798828
0.838239
0.879318
0.922071
0.966504
1.01261
1.06039
1.1098
1.16082
1.21344
1.26764
1.32341
1.38071
1.43951
1.49977
1.56145
1.6245
1.68889
1.75457
1.82148
1.88957
1.95878
2.02906
2.10035
2.1726
2.24573
2.31969