/*--------------------------------*- C++ -*----------------------------------*\
  =========                 |
  \\      /  F ield         | OpenFOAM: The Open Source CFD Toolbox
   \\    /   O peration     | Website:  https://openfoam.org
    \\  /    A nd           | Version:  8
     \\/     M anipulation  |
\*---------------------------------------------------------------------------*/
FoamFile
{
    version     2.0;
    format      ascii;
    class       volScalarField;
    location    "287";
    object      nut;
}
// * * * * * * * * * * * * * * * * * * * * * * * * * * * * * * * * * * * * * //

dimensions      [0 2 -1 0 0 0 0];

internalField   nonuniform List<scalar> 
12225
(
4.14969e-05
3.93414e-05
3.74842e-05
3.54319e-05
3.37853e-05
3.24192e-05
3.15114e-05
3.09108e-05
3.09171e-05
3.10972e-05
3.15674e-05
3.21128e-05
3.31458e-05
3.38007e-05
3.51028e-05
3.56698e-05
3.75773e-05
3.56906e-05
0.000332329
0.000215221
0.000179281
0.00015768
0.000146209
0.000138213
0.000132759
0.00013163
0.000129529
0.000130045
0.000129064
0.000129424
0.000128673
0.000128542
0.000128089
0.0001274
0.000127392
0.000126521
0.000674967
0.000450837
0.000355785
0.000309833
0.000275296
0.000251094
0.000231722
0.00021727
0.000202702
0.000192112
0.000182641
0.00017521
0.000169395
0.000163693
0.00016032
0.000155594
0.000153828
0.000149935
0.000833618
0.0006849
0.000572001
0.000499957
0.000449475
0.000411943
0.000380795
0.000355992
0.000334031
0.00031478
0.000298352
0.000281725
0.000270333
0.000256103
0.000248238
0.000236221
0.000230459
0.000220551
0.000861255
0.000802526
0.00074214
0.000676567
0.000624015
0.000581363
0.000545887
0.000514551
0.000489538
0.000464436
0.000445882
0.000424095
0.000409966
0.000390847
0.000379938
0.000363172
0.000354562
0.000339656
0.00085498
0.000840347
0.000822209
0.000786486
0.000750874
0.000715893
0.000685773
0.000656132
0.000632561
0.000607528
0.000589014
0.000567272
0.000552311
0.000533142
0.000520832
0.000503815
0.000493399
0.000477639
0.000852908
0.000850685
0.00084424
0.000832828
0.000817416
0.000796998
0.000777893
0.00075674
0.000738907
0.000719157
0.000703546
0.000685642
0.000672146
0.000655961
0.00064435
0.000629603
0.000619593
0.000605283
0.000851923
0.000851813
0.000850173
0.000847394
0.000841454
0.000833728
0.000824898
0.000813418
0.000802811
0.000790478
0.000779723
0.000767555
0.000757442
0.000745811
0.000736571
0.00072558
0.000717214
0.000706133
0.000851751
0.000851542
0.000851035
0.000850338
0.000848881
0.000846168
0.000843035
0.000838306
0.000833404
0.000827365
0.000821222
0.000814781
0.00080842
0.000801542
0.000795262
0.000788448
0.00078221
0.000775319
0.000851769
0.000851389
0.000851046
0.000850633
0.000850248
0.000849368
0.000848405
0.000846781
0.000844957
0.000842532
0.000839926
0.000836804
0.0008338
0.000830162
0.000826981
0.000822943
0.00081992
0.000815329
0.000851787
0.000851359
0.000851012
0.000850613
0.000850329
0.000849905
0.000849526
0.000848929
0.000848303
0.000847394
0.000846467
0.000845179
0.000843993
0.000842356
0.000841001
0.00083904
0.000837649
0.000835375
0.000851789
0.000851359
0.000850995
0.000850605
0.000850292
0.000849938
0.000849646
0.00084928
0.000848955
0.000848505
0.000848099
0.000847509
0.000846999
0.000846246
0.000845644
0.000844724
0.000844062
0.000842981
0.000851786
0.000851363
0.000850985
0.000850604
0.000850269
0.000849926
0.00084963
0.000849313
0.000849042
0.000848729
0.000848462
0.000848127
0.000847844
0.000847467
0.000847157
0.000846727
0.000846388
0.000845904
0.000851783
0.000851364
0.000850978
0.000850602
0.000850256
0.000849916
0.000849607
0.0008493
0.000849022
0.000848741
0.000848488
0.000848224
0.000847989
0.000847735
0.000847508
0.000847258
0.000847033
0.000846783
0.000851781
0.000851364
0.000850972
0.000850598
0.000850246
0.000849908
0.000849591
0.000849286
0.000849
0.000848723
0.000848463
0.000848211
0.000847975
0.000847745
0.000847527
0.000847316
0.000847114
0.000846918
0.00085178
0.000851363
0.000850969
0.000850594
0.000850239
0.000849901
0.00084958
0.000849274
0.000848984
0.000848707
0.000848443
0.000848191
0.000847951
0.000847721
0.000847502
0.000847292
0.000847092
0.0008469
0.000851779
0.000851362
0.000850967
0.000850591
0.000850234
0.000849894
0.000849572
0.000849265
0.000848973
0.000848694
0.000848428
0.000848174
0.000847932
0.000847701
0.00084748
0.000847268
0.000847066
0.000846873
0.000851779
0.000851362
0.000850965
0.000850588
0.00085023
0.00084989
0.000849567
0.000849258
0.000848965
0.000848685
0.000848418
0.000848163
0.000847919
0.000847686
0.000847464
0.000847251
0.000847047
0.000846853
0.000851779
0.000851362
0.000850965
0.000850588
0.000850229
0.000849889
0.000849565
0.000849256
0.000848962
0.000848681
0.000848413
0.000848157
0.000847913
0.000847679
0.000847456
0.000847242
0.000847037
0.000846842
0.000851779
0.000851362
0.000850965
0.000850589
0.000850231
0.000849891
0.000849567
0.000849259
0.000848965
0.000848684
0.000848416
0.000848161
0.000847916
0.000847683
0.000847459
0.000847245
0.000847039
0.000846843
0.000851779
0.000851363
0.000850967
0.000850592
0.000850235
0.000849896
0.000849573
0.000849266
0.000848972
0.000848693
0.000848423
0.000848168
0.000847919
0.000847682
0.00084745
0.00084723
0.000847011
0.000846805
0.000851778
0.000851366
0.000850968
0.000850599
0.00085024
0.000849907
0.00084958
0.000849274
0.000848964
0.000848671
0.000848364
0.000848071
0.000847755
0.000847454
0.000847122
0.00084681
0.000846455
0.000846134
0.000851777
0.000851374
0.000850971
0.000850615
0.00085024
0.000849889
0.000849478
0.000849053
0.000848529
0.000847977
0.0008473
0.000846603
0.000845765
0.000844938
0.000843953
0.000843027
0.000841915
0.000840937
0.000851802
0.00085141
0.00085097
0.000850549
0.00084986
0.000848967
0.000847607
0.000845979
0.000843902
0.000841634
0.000838953
0.000836212
0.000833114
0.00083011
0.000826759
0.000823676
0.000820179
0.000817172
0.000852138
0.000851403
0.000850234
0.000848252
0.000844472
0.000839355
0.000832711
0.000825762
0.000817912
0.000809998
0.000801612
0.000793623
0.000785326
0.0007777
0.000769736
0.000762692
0.000755114
0.000748785
0.000854143
0.000847718
0.000840125
0.000827122
0.000808707
0.000789646
0.00076997
0.000751414
0.0007333
0.00071689
0.000700927
0.000686773
0.000672821
0.000660661
0.000648368
0.000637929
0.000626941
0.000618007
0.00085497
0.000818336
0.000776229
0.000726634
0.000684937
0.000649855
0.000618457
0.000592018
0.000568376
0.000548305
0.000529681
0.000513985
0.00049874
0.000486007
0.000473191
0.000462697
0.00045161
0.000442792
0.000807487
0.000666879
0.000570551
0.000509853
0.000465647
0.000431192
0.00040413
0.000382497
0.000364189
0.000349061
0.000335935
0.000325071
0.000314473
0.00030624
0.000297954
0.00029136
0.000284272
0.000278923
0.000501854
0.000348404
0.00029269
0.000259173
0.000236321
0.000221176
0.000211542
0.000204014
0.000198479
0.000195058
0.000192217
0.000190366
0.000188581
0.000187438
0.000186163
0.000185473
0.000184553
0.000184141
7.27285e-05
7.02231e-05
6.79539e-05
6.56136e-05
6.33827e-05
6.12765e-05
5.94929e-05
5.79573e-05
5.67103e-05
5.5703e-05
5.49775e-05
5.44185e-05
5.41086e-05
5.38874e-05
5.38766e-05
5.39623e-05
5.40719e-05
5.43225e-05
1.68183e-07
4.49554e-06
8.40197e-06
1.18297e-05
1.5058e-05
1.86916e-05
2.28966e-05
2.79192e-05
3.38942e-05
4.08173e-05
4.85452e-05
5.68991e-05
6.5671e-05
7.46911e-05
8.37872e-05
9.28243e-05
0.000101657
0.000110175
0.000118251
0.000125815
0.000132787
0.000139183
0.000145023
0.000150475
0.000155707
0.000161041
0.000166414
0.000170968
0.000180609
0.000190338
0.000199753
0.000208832
0.000212373
0.000208631
0.000202273
0.000195226
0.000195213
0.000196572
0.000199619
0.000194338
4.18592e-05
4.60287e-05
4.84129e-05
4.91095e-05
5.02576e-05
5.14101e-05
5.24954e-05
5.3635e-05
5.47341e-05
5.58537e-05
5.69572e-05
5.80649e-05
5.91651e-05
6.02646e-05
6.13591e-05
6.24514e-05
6.35395e-05
6.46248e-05
6.57061e-05
6.67842e-05
6.78582e-05
6.89285e-05
6.99943e-05
7.10559e-05
7.21124e-05
7.3164e-05
7.421e-05
7.52503e-05
7.62841e-05
7.73113e-05
7.83313e-05
7.93436e-05
8.03477e-05
8.13431e-05
8.23293e-05
8.33058e-05
8.4272e-05
8.52273e-05
8.61713e-05
8.71032e-05
8.80226e-05
8.89289e-05
8.98215e-05
9.06998e-05
9.15632e-05
9.24111e-05
9.32428e-05
9.40578e-05
9.48552e-05
9.56342e-05
9.63938e-05
9.71331e-05
9.78511e-05
9.85465e-05
9.92182e-05
9.98655e-05
0.000100488
0.000101089
0.000101675
0.000102235
0.000102774
0.000103291
0.000103786
0.000104258
0.000104707
0.000105133
0.000105535
0.000105914
0.000106269
0.000106599
0.000106905
0.000107186
0.000107443
0.000107674
0.000107881
0.000108062
0.000108218
0.000108349
0.000108454
0.000108534
0.000108588
0.000108617
0.000108621
0.000108599
0.000108552
0.00010848
0.000108383
0.00010826
0.000108115
0.000107948
0.000107753
0.000107531
0.000107284
0.000107017
0.000106731
0.000106417
0.000106083
0.000105727
0.000105349
0.00010495
0.000104531
0.000104092
0.000103633
0.000103156
0.000102659
0.000102145
0.000101613
0.000101064
0.000100498
9.99171e-05
9.93207e-05
9.87098e-05
9.8085e-05
9.74468e-05
9.67961e-05
9.61334e-05
9.54595e-05
9.47751e-05
9.40809e-05
9.33779e-05
9.26676e-05
9.19528e-05
9.12489e-05
9.06973e-05
9.02832e-05
8.98792e-05
8.94726e-05
8.90621e-05
8.86479e-05
8.823e-05
8.7809e-05
8.73844e-05
8.69562e-05
8.6523e-05
8.60825e-05
8.56294e-05
8.51531e-05
8.46241e-05
8.39824e-05
8.20613e-05
8.67136e-07
2.42731e-05
5.53915e-05
7.71467e-05
9.09564e-05
0.000100083
0.000107362
0.000114443
0.000122143
0.000130737
0.000140192
0.000150333
0.000160929
0.000171757
0.000182613
0.000193318
0.00020371
0.000213646
0.000222994
0.000231656
0.00023956
0.000246695
0.000253107
0.000258939
0.000264423
0.000269455
0.000273376
0.000276707
0.000279769
0.000281694
0.000282131
0.000280442
0.000273934
0.000263656
0.000257077
0.000251372
0.000260091
0.000245747
0.000250511
0.000247722
0.000236534
0.000253406
0.000264109
0.000270159
0.000277261
0.000284546
0.000292381
0.000300201
0.000308248
0.000316365
0.000324604
0.000332925
0.000341334
0.000349822
0.00035839
0.000367037
0.000375763
0.000384569
0.000393456
0.000402424
0.000411476
0.000420611
0.00042983
0.000439133
0.00044852
0.000457991
0.000467544
0.000477177
0.000486889
0.000496677
0.000506539
0.00051647
0.000526469
0.000536529
0.000546648
0.000556819
0.000567039
0.000577301
0.000587601
0.000597931
0.000608287
0.000618662
0.00062905
0.000639445
0.000649841
0.000660231
0.00067061
0.000680972
0.000691312
0.000701626
0.000711906
0.000722145
0.000732329
0.000742437
0.000752435
0.000762263
0.000771814
0.000780904
0.000789245
0.000797564
0.000805726
0.00081376
0.000821653
0.000829404
0.000837004
0.00084445
0.000851734
0.000858852
0.000865799
0.00087257
0.000879159
0.000885563
0.000891777
0.000897797
0.000903619
0.000909238
0.000914652
0.000919857
0.000924849
0.000929627
0.000934187
0.000938527
0.000942645
0.000946537
0.000950204
0.000953643
0.000956856
0.000959842
0.000962589
0.000965127
0.000967498
0.000969556
0.000971246
0.000972751
0.00097418
0.000975284
0.000976171
0.000976829
0.00097726
0.000977466
0.000977449
0.000977212
0.000976755
0.000976086
0.000975208
0.000974123
0.000972836
0.000971351
0.000969673
0.000967807
0.000965756
0.000963527
0.000961124
0.000958554
0.000955821
0.000952931
0.00094989
0.000946701
0.00094337
0.000939895
0.000936265
0.000932414
0.000927999
0.000921808
0.000914414
0.000906626
0.000898671
0.000890614
0.000882486
0.0008743
0.000866065
0.000857784
0.000849459
0.00084108
0.000832626
0.000824042
0.00081518
0.000805796
0.00079438
0.000764215
1.86132e-06
4.08205e-05
8.89613e-05
0.00012548
0.000151856
0.000170908
0.000185312
0.000197204
0.000208059
0.000218756
0.000229714
0.000241046
0.000252696
0.000264524
0.000276366
0.000288053
0.000299425
0.000310332
0.000320644
0.000330257
0.000339099
0.000347145
0.000354415
0.000360964
0.000366838
0.000372403
0.0003785
0.000385017
0.000391984
0.000399194
0.000406256
0.000412659
0.000418083
0.000423874
0.000431243
0.0004393
0.000449333
0.000456925
0.000468355
0.000478983
0.000491357
0.00050931
0.00052536
0.000540818
0.000556585
0.0005725
0.000588692
0.000605022
0.000621537
0.000638197
0.000655009
0.000671962
0.000689057
0.000706291
0.000723665
0.000741181
0.000758838
0.00077664
0.000794585
0.000812675
0.000830911
0.000849293
0.000867822
0.000886495
0.000905311
0.000924266
0.000943357
0.00096258
0.000981928
0.0010014
0.00102098
0.00104067
0.00106045
0.00108033
0.00110029
0.00112031
0.0011404
0.00116053
0.0011807
0.0012009
0.00122111
0.00124133
0.00126153
0.00128171
0.00130185
0.00132194
0.00134197
0.00136192
0.00138178
0.00140153
0.00142116
0.00144063
0.00145991
0.00147898
0.00149777
0.00151621
0.00153423
0.00155174
0.0015688
0.00158564
0.0016022
0.00161848
0.00163447
0.00165015
0.00166552
0.00168055
0.00169524
0.00170959
0.00172356
0.00173717
0.00175039
0.00176323
0.00177566
0.00178768
0.00179929
0.00181047
0.00182122
0.00183154
0.00184141
0.00185083
0.00185979
0.00186829
0.00187633
0.0018839
0.001891
0.00189763
0.00190378
0.00190945
0.00191466
0.00191941
0.00192379
0.0019276
0.00193064
0.00193329
0.00193566
0.00193748
0.00193882
0.00193969
0.00194009
0.00194002
0.00193949
0.00193852
0.00193709
0.00193523
0.00193294
0.00193023
0.0019271
0.00192356
0.00191963
0.00191531
0.00191062
0.00190556
0.00190014
0.00189438
0.00188829
0.00188188
0.00187516
0.00186813
0.00186082
0.00185322
0.00184531
0.001837
0.00182792
0.00181718
0.00180505
0.00179222
0.001779
0.00176552
0.00175186
0.00173803
0.00172407
0.00170999
0.00169579
0.00168146
0.00166695
0.00165214
0.00163678
0.00162014
0.00159941
0.00155512
3.01408e-06
5.37189e-05
0.000114969
0.000162625
0.000197662
0.000223565
0.00024338
0.000259478
0.000273566
0.000286758
0.000299691
0.00031266
0.000325741
0.000338889
0.000351997
0.000364937
0.000377578
0.0003898
0.000401504
0.000412621
0.000423127
0.00043306
0.000442535
0.000451752
0.000461005
0.000470685
0.00048119
0.000492698
0.000505257
0.000518735
0.000532867
0.000547312
0.000562037
0.000577343
0.000592468
0.000609535
0.000627641
0.000646271
0.000666078
0.000686494
0.000707942
0.000730535
0.000752954
0.000775423
0.000798058
0.00082086
0.000843861
0.000867044
0.000890417
0.000913973
0.000937713
0.000961636
0.000985742
0.00101003
0.00103451
0.00105917
0.00108403
0.00110908
0.00113432
0.00115976
0.00118539
0.00121121
0.00123721
0.00126341
0.00128979
0.00131634
0.00134306
0.00136994
0.00139698
0.00142416
0.00145147
0.00147891
0.00150646
0.00153411
0.00156185
0.00158965
0.00161752
0.00164542
0.00167335
0.00170128
0.00172921
0.00175711
0.00178497
0.00181277
0.00184049
0.0018681
0.0018956
0.00192296
0.00195015
0.00197716
0.00200395
0.00203049
0.00205676
0.0020827
0.00210827
0.00213343
0.00215811
0.00218232
0.00220612
0.00222956
0.00225262
0.00227528
0.00229753
0.00231935
0.00234073
0.00236165
0.00238209
0.00240204
0.00242149
0.00244041
0.00245881
0.00247666
0.00249395
0.00251068
0.00252683
0.00254238
0.00255734
0.0025717
0.00258543
0.00259854
0.00261103
0.00262287
0.00263407
0.00264462
0.00265452
0.00266375
0.00267234
0.00268026
0.00268753
0.00269423
0.00270042
0.00270565
0.00270995
0.00271382
0.00271711
0.00271972
0.00272165
0.00272294
0.00272357
0.00272356
0.00272292
0.00272165
0.00271977
0.00271728
0.00271419
0.00271051
0.00270626
0.00270145
0.00269608
0.00269018
0.00268375
0.00267681
0.00266937
0.00266145
0.00265306
0.00264423
0.00263496
0.00262526
0.00261516
0.00260465
0.00259372
0.00258228
0.00257006
0.00255654
0.00254179
0.00252623
0.00251014
0.00249367
0.00247689
0.00245987
0.00244264
0.00242522
0.00240762
0.00238984
0.00237188
0.00235361
0.00233468
0.00231415
0.00228872
0.00224221
4.18336e-06
6.45718e-05
0.000136824
0.000193747
0.000236395
0.000268326
0.000292898
0.000312726
0.000329723
0.000345194
0.000359958
0.000374469
0.000388936
0.000403411
0.000417869
0.000432241
0.000446451
0.00046043
0.000474128
0.000487525
0.000500648
0.000513579
0.000526465
0.000539528
0.000553049
0.00056734
0.000582683
0.000599251
0.000617078
0.000636028
0.000655865
0.000676444
0.000697746
0.000719933
0.000742775
0.000766308
0.000790567
0.00081548
0.00084108
0.00086727
0.000894056
0.000921331
0.00094881
0.000976459
0.00100431
0.00103236
0.00106062
0.00108909
0.00111777
0.00114667
0.00117578
0.00120511
0.00123465
0.00126441
0.00129437
0.00132456
0.00135497
0.0013856
0.00141646
0.00144754
0.00147884
0.00151035
0.00154208
0.00157401
0.00160613
0.00163845
0.00167095
0.00170362
0.00173645
0.00176942
0.00180253
0.00183576
0.00186909
0.00190252
0.00193601
0.00196956
0.00200315
0.00203675
0.00207036
0.00210394
0.00213748
0.00217096
0.00220436
0.00223765
0.00227082
0.00230384
0.00233668
0.00236932
0.00240174
0.00243391
0.0024658
0.00249738
0.00252862
0.00255948
0.00258995
0.00261998
0.00264958
0.00267873
0.00270743
0.0027357
0.00276351
0.00279085
0.0028177
0.00284403
0.00286984
0.00289509
0.00291979
0.0029439
0.0029674
0.0029903
0.00301256
0.00303419
0.00305515
0.00307544
0.00309504
0.00311395
0.00313215
0.00314963
0.00316639
0.0031824
0.00319768
0.00321219
0.00322595
0.00323893
0.00325114
0.00326258
0.00327324
0.00328312
0.00329225
0.0033008
0.00330849
0.00331516
0.00332078
0.00332597
0.00333035
0.00333393
0.00333673
0.00333876
0.00334001
0.0033405
0.00334024
0.00333924
0.0033375
0.00333504
0.00333187
0.00332799
0.00332343
0.00331819
0.00331229
0.00330574
0.00329856
0.00329076
0.00328237
0.00327339
0.00326384
0.00325374
0.00324311
0.00323197
0.00322032
0.00320817
0.00319552
0.00318231
0.00316835
0.00315338
0.00313738
0.00312057
0.00310316
0.00308527
0.003067
0.00304841
0.00302954
0.00301042
0.00299108
0.00297154
0.00295176
0.00293163
0.00291084
0.00288843
0.00286117
0.00281703
5.30469e-06
7.37294e-05
0.000155266
0.000220196
0.000269662
0.000307101
0.000336083
0.000359411
0.00037917
0.000396834
0.000413383
0.00042942
0.000445281
0.000461127
0.000477016
0.000492952
0.00050892
0.000524901
0.000540895
0.00055692
0.00057303
0.000589318
0.00060592
0.000623015
0.000640811
0.00065952
0.000679318
0.00070031
0.000722497
0.000745778
0.000769997
0.000795029
0.000820809
0.000847345
0.000874618
0.000902603
0.00093126
0.000960529
0.000990355
0.00102068
0.00105146
0.0010826
0.00111403
0.00114571
0.00117763
0.00120977
0.00124215
0.00127474
0.00130757
0.00134062
0.0013739
0.00140742
0.00144116
0.00147514
0.00150937
0.00154383
0.00157851
0.00161342
0.00164856
0.00168391
0.00171947
0.00175525
0.00179123
0.0018274
0.00186376
0.0019003
0.00193701
0.00197387
0.00201088
0.00204802
0.00208528
0.00212264
0.00216009
0.0021976
0.00223517
0.00227277
0.00231039
0.002348
0.00238559
0.00242313
0.00246061
0.002498
0.00253528
0.00257243
0.00260943
0.00264624
0.00268285
0.00271923
0.00275536
0.00279121
0.00282675
0.00286196
0.0028968
0.00293125
0.00296529
0.0029989
0.00303206
0.00306476
0.00309698
0.00312872
0.00315996
0.00319068
0.00322086
0.00325048
0.00327952
0.00330796
0.00333578
0.00336296
0.00338948
0.00341533
0.0034405
0.00346495
0.00348869
0.00351169
0.00353394
0.00355543
0.00357615
0.00359607
0.0036152
0.00363352
0.00365103
0.0036677
0.00368354
0.00369854
0.00371269
0.00372599
0.00373843
0.00375002
0.00376086
0.00377101
0.00378009
0.0037881
0.00379515
0.0038016
0.00380715
0.00381183
0.00381565
0.00381861
0.00382073
0.003822
0.00382245
0.00382208
0.00382089
0.00381891
0.00381613
0.00381258
0.00380827
0.00380321
0.0037974
0.00379088
0.00378365
0.00377574
0.00376714
0.0037579
0.00374801
0.0037375
0.00372639
0.00371469
0.00370242
0.00368959
0.00367619
0.00366219
0.0036475
0.00363195
0.00361553
0.00359834
0.00358052
0.00356217
0.00354338
0.00352421
0.00350471
0.00348492
0.00346489
0.00344463
0.00342416
0.00340338
0.00338205
0.00335925
0.00333214
0.0032921
6.33596e-06
8.13257e-05
0.000170625
0.000242519
0.000298127
0.000340672
0.000373837
0.000400552
0.000423038
0.000442906
0.000461276
0.000478884
0.000496187
0.000513449
0.000530813
0.000548353
0.000566106
0.000584101
0.000602368
0.000620948
0.000639903
0.000659316
0.000679292
0.000699956
0.00072144
0.000743869
0.000767341
0.000791906
0.00081755
0.000844204
0.000871764
0.000900134
0.000929247
0.000959073
0.000989594
0.00102078
0.00105259
0.00108498
0.00111787
0.00115123
0.001185
0.00121913
0.00125357
0.00128829
0.00132327
0.0013585
0.00139397
0.00142966
0.00146558
0.00150173
0.00153811
0.00157472
0.00161155
0.00164861
0.00168589
0.0017234
0.00176113
0.00179907
0.00183723
0.00187559
0.00191415
0.00195291
0.00199186
0.00203099
0.00207029
0.00210976
0.00214938
0.00218914
0.00222903
0.00226904
0.00230915
0.00234935
0.00238962
0.00242995
0.00247031
0.00251069
0.00255108
0.00259144
0.00263177
0.00267205
0.00271224
0.00275233
0.0027923
0.00283212
0.00287178
0.00291125
0.0029505
0.00298951
0.00302825
0.00306671
0.00310485
0.00314265
0.00318008
0.00321713
0.00325376
0.00328995
0.0033257
0.00336098
0.00339577
0.00343006
0.00346383
0.00349706
0.00352972
0.00356179
0.00359326
0.0036241
0.0036543
0.00368382
0.00371266
0.0037408
0.00376822
0.00379489
0.00382081
0.00384596
0.00387032
0.00389388
0.00391662
0.00393854
0.00395962
0.00397984
0.00399921
0.00401771
0.00403532
0.00405205
0.00406787
0.0040828
0.00409683
0.00410996
0.00412241
0.00413387
0.00414436
0.00415369
0.00416217
0.00416986
0.00417662
0.00418246
0.00418738
0.0041914
0.00419453
0.00419677
0.00419813
0.00419862
0.00419825
0.00419704
0.00419498
0.0041921
0.00418841
0.00418392
0.00417864
0.0041726
0.00416579
0.00415825
0.00414999
0.00414102
0.00413135
0.00412102
0.00411003
0.00409841
0.00408616
0.00407331
0.00405984
0.00404575
0.00403099
0.00401547
0.00399918
0.00398216
0.00396451
0.0039463
0.0039276
0.00390848
0.00388899
0.0038692
0.00384914
0.00382886
0.00380839
0.0037877
0.00376659
0.00374427
0.00371837
0.00368245
7.24722e-06
8.74711e-05
0.000183153
0.000261053
0.000322171
0.000369446
0.000406595
0.00043662
0.000461832
0.000483951
0.000504208
0.000523456
0.000542257
0.000560968
0.000579811
0.000598921
0.000618384
0.000638261
0.000658602
0.000679457
0.000700883
0.000722946
0.000745719
0.000769286
0.000793738
0.000819113
0.000845461
0.000872798
0.000901106
0.000930338
0.000960423
0.000991292
0.00102288
0.00105515
0.00108807
0.0011216
0.00115571
0.00119033
0.00122544
0.00126098
0.00129692
0.00133322
0.00136983
0.00140674
0.00144392
0.00148134
0.001519
0.00155688
0.00159497
0.00163328
0.0016718
0.00171053
0.00174946
0.00178861
0.00182796
0.00186751
0.00190725
0.0019472
0.00198733
0.00202765
0.00206816
0.00210884
0.0021497
0.00219072
0.00223189
0.00227322
0.00231468
0.00235628
0.00239799
0.00243981
0.00248172
0.00252371
0.00256577
0.00260787
0.00265002
0.00269218
0.00273434
0.00277648
0.00281859
0.00286064
0.00290262
0.00294451
0.00298627
0.0030279
0.00306937
0.00311065
0.00315173
0.00319257
0.00323316
0.00327347
0.00331348
0.00335316
0.00339249
0.00343144
0.00346999
0.00350813
0.00354582
0.00358305
0.00361979
0.00365603
0.00369175
0.00372692
0.00376151
0.00379552
0.00382891
0.00386167
0.00389376
0.00392518
0.0039559
0.0039859
0.00401517
0.00404367
0.00407141
0.00409835
0.00412449
0.0041498
0.00417428
0.0041979
0.00422067
0.00424255
0.00426355
0.00428365
0.00430285
0.00432112
0.00433847
0.00435489
0.00437037
0.004385
0.00439884
0.0044116
0.00442343
0.0044341
0.00444396
0.0044529
0.00446089
0.00446792
0.00447401
0.00447917
0.00448341
0.00448673
0.00448914
0.00449065
0.00449127
0.00449101
0.00448989
0.00448791
0.00448508
0.00448143
0.00447696
0.0044717
0.00446564
0.00445881
0.00445123
0.0044429
0.00443386
0.0044241
0.00441366
0.00440254
0.00439077
0.00437835
0.00436529
0.00435159
0.00433722
0.00432215
0.00430636
0.00428989
0.00427278
0.00425509
0.00423689
0.00421824
0.0041992
0.00417982
0.00416017
0.00414032
0.00412031
0.00410016
0.00407972
0.00405837
0.00403418
0.00400281
8.02024e-06
9.2275e-05
0.000193067
0.000276076
0.000342075
0.0003937
0.000434624
0.000467868
0.000495797
0.000520203
0.000542408
0.000563353
0.000583692
0.000603865
0.000624157
0.000644756
0.000665793
0.000687378
0.000709551
0.000732355
0.000755831
0.000780025
0.000804976
0.000830713
0.000857236
0.000884673
0.000913045
0.00094235
0.000972564
0.00100365
0.00103554
0.00106819
0.00110155
0.00113556
0.00117019
0.0012054
0.00124116
0.00127741
0.00131412
0.00135123
0.00138869
0.0014264
0.00146438
0.00150266
0.00154123
0.00158004
0.00161907
0.00165829
0.0016977
0.00173729
0.00177706
0.00181702
0.00185715
0.00189747
0.00193796
0.00197863
0.00201946
0.00206048
0.00210166
0.00214301
0.00218452
0.00222619
0.00226802
0.00231001
0.00235214
0.00239441
0.00243682
0.00247936
0.00252201
0.00256478
0.00260764
0.00265059
0.00269362
0.00273671
0.00277985
0.00282302
0.00286622
0.00290941
0.0029526
0.00299575
0.00303885
0.00308188
0.00312482
0.00316765
0.00321034
0.00325288
0.00329524
0.0033374
0.00337933
0.00342101
0.00346241
0.00350352
0.0035443
0.00358473
0.00362478
0.00366444
0.00370368
0.00374247
0.00378079
0.00381863
0.00385594
0.00389272
0.00392893
0.00396456
0.00399958
0.00403396
0.00406768
0.00410073
0.00413307
0.0041647
0.00419558
0.00422569
0.00425503
0.00428357
0.00431129
0.00433818
0.00436422
0.0043894
0.0044137
0.0044371
0.00445961
0.0044812
0.00450186
0.00452159
0.00454038
0.00455821
0.00457508
0.00459115
0.00460624
0.00462035
0.00463348
0.00464553
0.00465673
0.00466695
0.00467618
0.00468445
0.00469176
0.00469811
0.00470353
0.00470801
0.00471156
0.0047142
0.00471593
0.00471677
0.00471672
0.0047158
0.00471403
0.0047114
0.00470794
0.00470366
0.00469857
0.0046927
0.00468605
0.00467864
0.00467048
0.00466159
0.00465199
0.00464169
0.00463071
0.00461905
0.00460674
0.00459376
0.00458013
0.00456581
0.00455081
0.00453514
0.00451883
0.00450194
0.00448452
0.00446663
0.00444832
0.00442966
0.00441072
0.00439158
0.00437232
0.00435299
0.0043335
0.00431335
0.00429105
0.00426404
8.64515e-06
9.58457e-05
0.000200563
0.000287915
0.000358082
0.000413672
0.000458136
0.000494477
0.000525076
0.000551773
0.00057595
0.000598619
0.000620509
0.000642151
0.000663849
0.000685795
0.000708102
0.000730805
0.000754131
0.000778168
0.000802967
0.000828562
0.000854985
0.000882265
0.000910446
0.000939516
0.000969477
0.0010003
0.00103194
0.00106436
0.00109752
0.00113137
0.00116587
0.00120098
0.00123666
0.00127285
0.00130952
0.00134663
0.00138413
0.001422
0.00146021
0.00149877
0.00153762
0.0015767
0.00161595
0.00165539
0.00169499
0.00173474
0.00177463
0.00181465
0.00185482
0.00189514
0.0019356
0.0019762
0.00201696
0.00205786
0.00209892
0.00214013
0.00218149
0.00222301
0.00226468
0.00230651
0.0023485
0.00239064
0.00243294
0.00247539
0.00251798
0.00256073
0.00260361
0.00264663
0.00268977
0.00273303
0.00277641
0.00281988
0.00286344
0.00290708
0.00295077
0.00299451
0.00303829
0.00308207
0.00312586
0.00316961
0.00321333
0.00325697
0.00330053
0.00334398
0.00338729
0.00343045
0.00347342
0.00351619
0.00355871
0.00360098
0.00364296
0.00368463
0.00372596
0.00376692
0.00380748
0.00384763
0.00388734
0.00392657
0.0039653
0.00400351
0.00404117
0.00407826
0.00411475
0.00415061
0.00418582
0.00422036
0.0042542
0.00428732
0.0043197
0.00435132
0.00438216
0.0044122
0.00444141
0.00446979
0.00449731
0.00452396
0.00454972
0.00457459
0.00459854
0.00462157
0.00464366
0.0046648
0.00468498
0.0047042
0.00472248
0.00473987
0.00475626
0.0047717
0.00478616
0.00479962
0.00481216
0.00482368
0.00483419
0.00484373
0.0048523
0.00485991
0.00486657
0.00487228
0.00487706
0.00488092
0.00488386
0.00488589
0.00488704
0.0048873
0.0048867
0.00488524
0.00488294
0.00487981
0.00487587
0.00487113
0.0048656
0.0048593
0.00485224
0.00484444
0.0048359
0.00482666
0.00481671
0.00480607
0.00479476
0.00478277
0.00477011
0.00475679
0.00474279
0.00472813
0.00471284
0.00469696
0.00468053
0.0046636
0.00464624
0.00462851
0.00461049
0.00459228
0.00457397
0.00455563
0.00453723
0.00451839
0.00449794
0.0044745
9.12059e-06
9.83104e-05
0.000205885
0.000296801
0.000370493
0.000429618
0.000477346
0.000516614
0.000549789
0.00057873
0.000604882
0.00062923
0.00065248
0.000675076
0.000697574
0.000720315
0.000743522
0.000767394
0.000792006
0.000817353
0.00084346
0.000870354
0.000898055
0.000926579
0.000955927
0.000986075
0.00101698
0.00104864
0.00108102
0.00111411
0.00114785
0.00118222
0.00121717
0.00125265
0.00128864
0.00132507
0.00136192
0.00139916
0.00143673
0.00147462
0.00151278
0.00155119
0.00158983
0.00162866
0.00166776
0.00170708
0.00174649
0.00178595
0.00182546
0.00186506
0.00190475
0.00194454
0.00198445
0.00202448
0.00206464
0.00210494
0.00214537
0.00218595
0.00222669
0.00226759
0.00230866
0.0023499
0.00239133
0.00243294
0.00247473
0.00251672
0.0025589
0.00260128
0.00264384
0.00268659
0.00272952
0.00277264
0.00281592
0.00285937
0.00290297
0.0029467
0.00299057
0.00303455
0.00307863
0.00312279
0.003167
0.00321126
0.00325553
0.00329981
0.00334405
0.00338824
0.00343236
0.00347637
0.00352025
0.00356397
0.00360751
0.00365083
0.00369391
0.00373672
0.00377922
0.0038214
0.00386321
0.00390463
0.00394563
0.00398619
0.00402627
0.00406585
0.00410489
0.00414338
0.00418128
0.00421857
0.00425522
0.0042912
0.00432649
0.00436107
0.00439491
0.00442799
0.00446029
0.00449179
0.00452247
0.00455231
0.00458128
0.00460939
0.0046366
0.0046629
0.00468829
0.00471274
0.00473625
0.00475881
0.0047804
0.00480102
0.00482068
0.00483938
0.00485711
0.00487393
0.00488976
0.00490461
0.00491857
0.00493142
0.00494324
0.0049541
0.00496398
0.0049729
0.00498087
0.00498789
0.00499397
0.00499913
0.00500337
0.0050067
0.00500914
0.0050107
0.00501138
0.00501122
0.00501021
0.00500837
0.00500571
0.00500225
0.004998
0.00499297
0.00498718
0.00498065
0.00497337
0.00496537
0.00495666
0.00494724
0.00493713
0.00492634
0.00491488
0.00490274
0.00488993
0.00487647
0.00486237
0.00484767
0.0048324
0.00481662
0.00480038
0.00478375
0.00476683
0.0047497
0.00473247
0.00471525
0.00469803
0.00468054
0.00466185
0.00464141
9.45236e-06
9.98096e-05
0.000209272
0.000302959
0.000379585
0.000441798
0.000492478
0.000534478
0.000570057
0.000600961
0.000628475
0.000653924
0.00067821
0.000702056
0.000725866
0.00074987
0.000774266
0.000799187
0.000824659
0.000850783
0.000877611
0.00090517
0.000933474
0.000962525
0.000992313
0.00102282
0.00105401
0.00108585
0.00111833
0.0011514
0.00118504
0.00121921
0.00125387
0.00128899
0.00132452
0.00136042
0.00139665
0.00143319
0.00147
0.00150706
0.00154431
0.00158171
0.00161931
0.00165722
0.00169541
0.00173363
0.00177191
0.00181019
0.00184843
0.00188668
0.00192499
0.00196337
0.00200185
0.00204045
0.00207917