/*--------------------------------*- C++ -*----------------------------------*\
  =========                 |
  \\      /  F ield         | OpenFOAM: The Open Source CFD Toolbox
   \\    /   O peration     | Website:  https://openfoam.org
    \\  /    A nd           | Version:  8
     \\/     M anipulation  |
\*---------------------------------------------------------------------------*/
FoamFile
{
    version     2.0;
    format      ascii;
    class       volScalarField;
    location    "287";
    object      p;
}
// * * * * * * * * * * * * * * * * * * * * * * * * * * * * * * * * * * * * * //

dimensions      [0 2 -2 0 0 0 0];

internalField   nonuniform List<scalar> 
12225
(
-1.31858
-3.50656
-4.60668
-4.92749
-5.10898
-5.27831
-5.4102
-5.50584
-5.58308
-5.65127
-5.71229
-5.76847
-5.82001
-5.86875
-5.91528
-5.95587
-6.00706
-5.99086
-4.48095
-5.24979
-5.41038
-5.31831
-5.306
-5.37414
-5.45206
-5.51829
-5.57853
-5.63675
-5.69236
-5.74456
-5.79413
-5.84146
-5.88766
-5.92997
-5.97848
-6.01658
-4.88158
-4.8674
-4.99491
-5.07346
-5.16857
-5.28902
-5.39663
-5.48194
-5.55437
-5.62048
-5.68157
-5.73772
-5.79047
-5.84027
-5.88871
-5.93397
-5.98481
-6.03006
-4.76019
-4.70357
-4.94531
-5.1038
-5.20575
-5.31222
-5.41027
-5.49077
-5.5601
-5.62391
-5.6834
-5.73859
-5.79067
-5.84011
-5.88829
-5.93457
-5.98405
-6.03226
-4.75026
-4.77464
-5.0028
-5.1445
-5.22831
-5.32062
-5.41219
-5.49033
-5.55843
-5.62134
-5.68032
-5.73536
-5.78746
-5.83715
-5.8856
-5.9328
-5.98167
-6.0312
-4.80834
-4.85715
-5.03149
-5.15552
-5.23722
-5.32528
-5.41365
-5.49056
-5.55804
-5.62038
-5.67893
-5.73381
-5.78582
-5.83556
-5.88401
-5.93147
-5.97966
-6.02862
-4.86864
-4.91278
-5.04803
-5.16446
-5.24837
-5.33273
-5.41694
-5.49195
-5.55849
-5.62007
-5.67802
-5.73256
-5.78432
-5.83393
-5.88216
-5.92945
-5.9768
-6.02439
-4.92208
-4.95968
-5.0697
-5.17809
-5.26124
-5.34104
-5.42072
-5.49352
-5.55898
-5.61969
-5.67694
-5.73103
-5.78245
-5.83179
-5.87966
-5.92647
-5.97283
-6.01877
-4.97172
-5.00484
-5.09582
-5.19386
-5.27407
-5.34962
-5.42501
-5.49541
-5.55957
-5.61927
-5.67571
-5.72921
-5.78016
-5.82906
-5.87639
-5.92248
-5.9677
-6.01193
-5.01867
-5.04793
-5.1235
-5.21079
-5.2871
-5.3588
-5.4301
-5.49783
-5.56042
-5.61895
-5.67442
-5.72717
-5.77749
-5.82576
-5.87237
-5.91756
-5.96154
-6.00409
-5.06288
-5.08838
-5.15163
-5.22886
-5.30063
-5.36857
-5.43595
-5.50082
-5.56161
-5.61881
-5.67316
-5.72499
-5.7745
-5.82199
-5.86773
-5.91187
-5.95455
-5.99549
-5.1008
-5.12315
-5.17738
-5.24626
-5.31345
-5.37793
-5.44187
-5.50405
-5.56302
-5.61884
-5.67205
-5.7229
-5.77154
-5.81818
-5.86299
-5.9061
-5.94757
-5.98712
-5.13579
-5.15552
-5.20237
-5.26379
-5.32633
-5.38739
-5.44807
-5.50758
-5.56464
-5.61901
-5.67099
-5.72077
-5.76845
-5.81415
-5.85799
-5.90002
-5.9403
-5.97856
-5.17244
-5.18964
-5.22967
-5.2837
-5.34105
-5.39824
-5.4554
-5.51192
-5.56671
-5.61932
-5.66981
-5.71827
-5.76475
-5.80929
-5.85194
-5.89274
-5.93169
-5.96859
-5.20947
-5.22426
-5.25826
-5.30535
-5.35723
-5.41022
-5.46366
-5.51696
-5.56917
-5.61971
-5.66843
-5.71532
-5.76035
-5.8035
-5.84478
-5.88419
-5.92171
-5.95721
-5.24491
-5.25754
-5.28646
-5.3274
-5.37395
-5.42262
-5.47231
-5.5223
-5.57173
-5.61996
-5.66668
-5.71177
-5.75514
-5.79673
-5.83648
-5.87439
-5.91044
-5.94452
-5.27585
-5.28672
-5.31166
-5.34757
-5.38941
-5.43407
-5.48023
-5.52705
-5.57372
-5.61956
-5.66418
-5.70736
-5.74896
-5.78887
-5.82703
-5.8634
-5.89798
-5.93071
-5.29794
-5.30758
-5.32981
-5.36223
-5.40061
-5.44216
-5.48549
-5.52971
-5.574
-5.6177
-5.66036
-5.70173
-5.74161
-5.77991
-5.81653
-5.85145
-5.88466
-5.91612
-5.30428
-5.31342
-5.3346
-5.36569
-5.4027
-5.44287
-5.48479
-5.52757
-5.57044
-5.61275
-5.65404
-5.69405
-5.7326
-5.7696
-5.80497
-5.83869
-5.87077
-5.90122
-5.28779
-5.29755
-5.32011
-5.35312
-5.39203
-5.4336
-5.47642
-5.51977
-5.56295
-5.6053
-5.64641
-5.68607
-5.72416
-5.76061
-5.79539
-5.82849
-5.85993
-5.88978
-5.2607
-5.27148
-5.29671
-5.33366
-5.37633
-5.42072
-5.46566
-5.51073
-5.55517
-5.59831
-5.63986
-5.67972
-5.71785
-5.75421
-5.7888
-5.82166
-5.85283
-5.8824
-5.22532
-5.23711
-5.26643
-5.30994
-5.35811
-5.40597
-5.45364
-5.50119
-5.54756
-5.59195
-5.63427
-5.67461
-5.713
-5.74945
-5.78401
-5.81676
-5.84779
-5.87719
-5.18466
-5.19653
-5.23094
-5.28413
-5.33958
-5.39141
-5.44215
-5.49243
-5.54077
-5.58645
-5.62967
-5.67066
-5.70944
-5.74609
-5.78073
-5.81348
-5.84445
-5.87378
-5.14088
-5.15183
-5.19355
-5.25789
-5.31997
-5.37652
-5.432
-5.4857
-5.53579
-5.58242
-5.62635
-5.66784
-5.7069
-5.74367
-5.77832
-5.81103
-5.84193
-5.87117
-5.09394
-5.09937
-5.16198
-5.2401
-5.30194
-5.36007
-5.42107
-5.47927
-5.53162
-5.57949
-5.62432
-5.6664
-5.70575
-5.74261
-5.77724
-5.80989
-5.84072
-5.86992
-5.05064
-5.01418
-5.12366
-5.23456
-5.2967
-5.35187
-5.41393
-5.47352
-5.52658
-5.57512
-5.62066
-5.66328
-5.70296
-5.74002
-5.77476
-5.80747
-5.83834
-5.86756
-5.06472
-4.90571
-5.03459
-5.1886
-5.27862
-5.34987
-5.41866
-5.47941
-5.53205
-5.58016
-5.62526
-5.66735
-5.70646
-5.74295
-5.77716
-5.80937
-5.83983
-5.86877
-5.18743
-5.00741
-5.02158
-5.09366
-5.18194
-5.28104
-5.37159
-5.44522
-5.50676
-5.56173
-5.61187
-5.65747
-5.6991
-5.73742
-5.77294
-5.80612
-5.83741
-5.86744
-4.89474
-5.4863
-5.57511
-5.45079
-5.39637
-5.42341
-5.47025
-5.51334
-5.55474
-5.59675
-5.63807
-5.67723
-5.71402
-5.74857
-5.78097
-5.81136
-5.83997
-5.86857
-1.90648
-3.66924
-4.67388
-4.97296
-5.12204
-5.26554
-5.37944
-5.46025
-5.52431
-5.58101
-5.6321
-5.67796
-5.71947
-5.75753
-5.79266
-5.82465
-5.85336
-5.87703
-6.73652
-6.73654
-6.73691
-6.73766
-6.73864
-6.73977
-6.74107
-6.74256
-6.74428
-6.74628
-6.74861
-6.75131
-6.75445
-6.75805
-6.76218
-6.76689
-6.7722
-6.77818
-6.78486
-6.79227
-6.80045
-6.80944
-6.81925
-6.8299
-6.84143
-6.85389
-6.86736
-6.88187
-6.89714
-6.91248
-6.92752
-6.94341
-6.96213
-6.9836
-7.0069
-7.03166
-7.05791
-7.08455
-7.10966
-7.1364
-7.1671
-7.19458
-7.21601
-7.23971
-7.2669
-7.29487
-7.32371
-7.35309
-7.38287
-7.4129
-7.44306
-7.47324
-7.50333
-7.53323
-7.56285
-7.59208
-7.62082
-7.64897
-7.67641
-7.70304
-7.72872
-7.75335
-7.77677
-7.79886
-7.81948
-7.83847
-7.85567
-7.87093
-7.88408
-7.89494
-7.90334
-7.90911
-7.91204
-7.91196
-7.90867
-7.90198
-7.89169
-7.87762
-7.85954
-7.83728
-7.81063
-7.77941
-7.74341
-7.70246
-7.65637
-7.60496
-7.54805
-7.48548
-7.41707
-7.34268
-7.26218
-7.17545
-7.08235
-6.98274
-6.87657
-6.76394
-6.64495
-6.51939
-6.38667
-6.24667
-6.09963
-5.94562
-5.78468
-5.61682
-5.44207
-5.2605
-5.07214
-4.87708
-4.67541
-4.46723
-4.25266
-4.03185
-3.80494
-3.57209
-3.33348
-3.08931
-2.83977
-2.58508
-2.32547
-2.06119
-1.7925
-1.51965
-1.24292
-0.962571
-0.678895
-0.392192
-0.102763
0.189073
0.483018
0.778767
1.07601
1.37439
1.67357
1.97324
2.27309
2.57281
2.87206
3.17053
3.46791
3.76389
4.05818
4.35048
4.64053
4.92805
5.21278
5.49448
5.7729
6.04782
6.31903
6.58632
6.84951
7.10843
7.3629
7.61279
7.85796
8.09827
8.33364
8.56395
8.78913
9.00911
9.22382
9.43324
9.63742
9.83639
10.0299
10.2177
10.3999
10.5765
10.7474
10.9128
11.0726
11.2268
11.3756
11.519
11.6573
11.7909
11.921
12.0492
12.187
12.3312
-6.73547
-6.73573
-6.73622
-6.7369
-6.73757
-6.73816
-6.73878
-6.73957
-6.74064
-6.74205
-6.74384
-6.74605
-6.7487
-6.75182
-6.75545
-6.75961
-6.76435
-6.76971
-6.7757
-6.78238
-6.78976
-6.79786
-6.80671
-6.8163
-6.82665
-6.83774
-6.84955
-6.86195
-6.87488
-6.88875
-6.90465
-6.92322
-6.94268
-6.9619
-6.98139
-7.0012
-7.02094
-7.04197
-7.06598
-7.09257
-7.11674
-7.14346
-7.1783
-7.21298
-7.24347
-7.27337
-7.30314
-7.33299
-7.36293
-7.39297
-7.42303
-7.45305
-7.48296
-7.51268
-7.5421
-7.57116
-7.59974
-7.62774
-7.65507
-7.68161
-7.70723
-7.73183
-7.75526
-7.7774
-7.7981
-7.81721
-7.83458
-7.85005
-7.86345
-7.87461
-7.88336
-7.88951
-7.89288
-7.89329
-7.89053
-7.88443
-7.87478
-7.86138
-7.84405
-7.82257
-7.79677
-7.76644
-7.73139
-7.69144
-7.64641
-7.59611
-7.54037
-7.47902
-7.4119
-7.33887
-7.25979
-7.17455
-7.083
-6.98501
-6.88049
-6.76928
-6.65119
-6.52608
-6.39418
-6.25559
-6.11014
-5.95779
-5.79853
-5.63237
-5.45934
-5.27948
-5.09284
-4.8995
-4.69954
-4.49306
-4.28019
-4.06105
-3.8358
-3.60459
-3.36759
-3.125
-2.87701
-2.62383
-2.36569
-2.10285
-1.83554
-1.56403
-1.28859
-1.00947
-0.726973
-0.441387
-0.153018
0.137823
0.430832
0.725716
1.02216
1.31982
1.61835
1.91743
2.21678
2.51606
2.81496
3.11315
3.41033
3.70618
4.00042
4.29275
4.58289
4.87059
5.15556
5.43757
5.71638
5.99175
6.26348
6.53135
6.79518
7.05479
7.31001
7.5607
7.80672
8.04794
8.28426
8.51556
8.74177
8.96284
9.17873
9.38938
9.59458
9.79401
9.98773
10.1759
10.3584
10.5353
10.7067
10.8725
11.0328
11.1877
11.3371
11.4812
11.6204
11.7551
11.887
12.017
12.1576
12.2964
-6.73181
-6.73269
-6.73396
-6.73507
-6.73577
-6.7362
-6.73659
-6.73711
-6.7379
-6.73904
-6.74057
-6.74254
-6.74497
-6.74789
-6.75132
-6.7553
-6.75985
-6.76501
-6.77081
-6.77728
-6.78444
-6.79231
-6.80093
-6.81031
-6.82048
-6.83147
-6.84331
-6.85601
-6.8696
-6.8843
-6.9006
-6.91867
-6.93802
-6.9582
-6.97919
-7.00075
-7.02259
-7.04516
-7.06924
-7.09414
-7.11834
-7.14328
-7.17101
-7.19996
-7.22876
-7.25778
-7.28698
-7.31633
-7.34578
-7.3753
-7.40484
-7.43433
-7.46371
-7.49291
-7.52184
-7.55042
-7.57855
-7.60615
-7.63309
-7.65929
-7.68461
-7.70895
-7.73217
-7.75413
-7.7747
-7.79374
-7.81108
-7.82657
-7.84005
-7.85134
-7.86028
-7.86668
-7.87035
-7.87113
-7.8688
-7.86319
-7.85409
-7.84131
-7.82466
-7.80394
-7.77896
-7.74951
-7.71542
-7.67649
-7.63254
-7.58339
-7.52886
-7.46879
-7.40301
-7.33138
-7.25375
-7.17
-7.08
-6.98363
-6.8808
-6.77138
-6.65517
-6.53206
-6.4021
-6.26539
-6.12185
-5.97146
-5.8142
-5.65007
-5.47908
-5.30128
-5.11672
-4.92547
-4.7276
-4.52322
-4.31244
-4.09539
-3.87221
-3.64306
-3.4081
-3.16753
-2.92153
-2.67032
-2.41412
-2.15317
-1.88772
-1.61802
-1.34433
-1.06692
-0.786081
-0.50209
-0.21526
0.074105
0.3657
0.659239
0.954405
1.25086
1.54825
1.84629
2.14467
2.44305
2.74113
3.03859
3.33511
3.63039
3.92413
4.21605
4.50586
4.7933
5.0781
5.36001
5.63878
5.9142
6.18604
6.45409
6.71816
6.97807
7.23366
7.48476
7.73124
7.97298
8.20984
8.44172
8.66854
8.89019
9.10659
9.31773
9.52355
9.72398
9.91899
10.1085
10.2924
10.4707
10.6434
10.8106
10.9722
11.1284
11.2792
11.4248
11.5656
11.7022
11.8364
11.9682
12.111
12.2379
-6.72575
-6.72739
-6.72987
-6.7319
-6.73318
-6.73402
-6.73469
-6.73538
-6.73624
-6.73738
-6.73888
-6.74079
-6.74315
-6.746
-6.74935
-6.75325
-6.75772
-6.76279
-6.76848
-6.77484
-6.78187
-6.78961
-6.79809
-6.80733
-6.81738
-6.82828
-6.84007
-6.85278
-6.86649
-6.88132
-6.89743
-6.91491
-6.9336
-6.95331
-6.97398
-6.99544
-7.01758
-7.04049
-7.06442
-7.08917
-7.11434
-7.14006
-7.16663
-7.19391
-7.22165
-7.24981
-7.27829
-7.30701
-7.33591
-7.36491
-7.39396
-7.42299
-7.45194
-7.48072
-7.50927
-7.53749
-7.5653
-7.59261
-7.6193
-7.64528
-7.67042
-7.69461
-7.71773
-7.73963
-7.76018
-7.77924
-7.79664
-7.81224
-7.82587
-7.83736
-7.84654
-7.85322
-7.85723
-7.85838
-7.85647
-7.85133
-7.84275
-7.83054
-7.8145
-7.79444
-7.77016
-7.74147
-7.70818
-7.67009
-7.62703
-7.57882
-7.52527
-7.46623
-7.40151
-7.33098
-7.25448
-7.17189
-7.08306
-6.98788
-6.88624
-6.77803
-6.66312
-6.54144
-6.41298
-6.27774
-6.1357
-5.98682
-5.83108
-5.6685
-5.49908
-5.32285
-5.13987
-4.95021
-4.75393
-4.55115
-4.34196
-4.1265
-3.9049
-3.67731
-3.44391
-3.20487
-2.96039
-2.71068
-2.45595
-2.19644
-1.9324
-1.66407
-1.39172
-1.11561
-0.836019
-0.553243
-0.267583
0.0206584
0.311184
0.603707
0.897898
1.19342
1.48995
1.7872
2.08483
2.38254
2.67999
2.97688
3.2729
3.56774
3.8611
4.1527
4.44226
4.7295
5.01416
5.29599
5.57474
5.85018
6.1221
6.39028
6.65453
6.91467
7.17052
7.42194
7.66876
7.91086
8.14811
8.38044
8.60773
8.8299
9.04686
9.25857
9.465
9.66616
9.862
10.0524
10.2372
10.4164
10.5901
10.7582
10.9208
11.0779
11.2297
11.3763
11.5183
11.6559
11.7911
11.9228
12.0639
12.1769
-6.7187
-6.72114
-6.72505
-6.72827
-6.73038
-6.73184
-6.73302
-6.73411
-6.73529
-6.73669
-6.73839
-6.74046
-6.74297
-6.74594
-6.74941
-6.75342
-6.758
-6.76318
-6.76898
-6.77544
-6.78259
-6.79046
-6.79907
-6.80847
-6.81869
-6.82977
-6.84177
-6.85472
-6.8687
-6.88376
-6.9
-6.91742
-6.93595
-6.95551
-6.97601
-6.99733
-7.0194
-7.04222
-7.06583
-7.09018
-7.11517
-7.14082
-7.16709
-7.19388
-7.22111
-7.24872
-7.27666
-7.30486
-7.33327
-7.36183
-7.39046
-7.4191
-7.44768
-7.47613
-7.50437
-7.53231
-7.55987
-7.58696
-7.61346
-7.63928
-7.6643
-7.6884
-7.71146
-7.73334
-7.7539
-7.77299
-7.79048
-7.80618
-7.81995
-7.83162
-7.841
-7.84792
-7.85221
-7.85366
-7.8521
-7.84733
-7.83915
-7.82737
-7.8118
-7.79224
-7.76849
-7.74036
-7.70766
-7.67019
-7.62778
-7.58024
-7.5274
-7.46909
-7.40513
-7.33537
-7.25968
-7.17792
-7.08994
-6.99562
-6.89486
-6.78754
-6.67359
-6.55291
-6.42548
-6.29129
-6.15028
-6.00244
-5.84776
-5.68624
-5.51788
-5.34273
-5.16083
-4.97225
-4.77706
-4.57536
-4.36725
-4.15287
-3.93233
-3.70582
-3.47347
-3.23547
-2.99202
-2.74332
-2.48958
-2.23105
-1.96796
-1.70056
-1.42911
-1.15387
-0.875124
-0.593165
-0.308288
-0.0208008
0.26902
0.560867
0.854407
1.1493
1.44527
1.742
2.03916
2.33643
2.63349
2.93003
3.22574
3.52032
3.81346
4.10489
4.39431
4.68147
4.96608
5.24791
5.5267
5.80222
6.07426
6.3426
6.60705
6.86741
7.12352
7.37522
7.62236
7.86482
8.10248
8.33522
8.56295
8.78558
9.00302
9.21521
9.42209
9.62365
9.81988
10.0107
10.1959
10.3757
10.5498
10.7184
10.8815
11.0392
11.1915
11.3387
11.4811
11.6191
11.7542
11.8845
12.0221
12.1223
-6.71207
-6.71528
-6.72056
-6.72495
-6.72795
-6.73013
-6.73191
-6.73353
-6.73517
-6.73696
-6.73901
-6.74141
-6.74422
-6.74749
-6.75124
-6.75553
-6.76039
-6.76585
-6.77194
-6.77869
-6.78614
-6.79433
-6.80327
-6.81301
-6.82358
-6.83502
-6.84738
-6.86069
-6.875
-6.89035
-6.90676
-6.92425
-6.94275
-6.96223
-6.98261
-7.00381
-7.02579
-7.0485
-7.0719
-7.09596
-7.12062
-7.14588
-7.17171
-7.19805
-7.22482
-7.25198
-7.27948
-7.30727
-7.33529
-7.36347
-7.39176
-7.42008
-7.44838
-7.47657
-7.50458
-7.53233
-7.55972
-7.58666
-7.61305
-7.63879
-7.66375
-7.68782
-7.71088
-7.73279
-7.7534
-7.77258
-7.79017
-7.80601
-7.81993
-7.83178
-7.84137
-7.84852
-7.85305
-7.85478
-7.8535
-7.84904
-7.8412
-7.82977
-7.81457
-7.79539
-7.77205
-7.74434
-7.71207
-7.67507
-7.63313
-7.58607
-7.53373
-7.47593
-7.4125
-7.3433
-7.26817
-7.18697
-7.09958
-7.00586
-6.90572
-6.79904
-6.68574
-6.56575
-6.43903
-6.30553
-6.16522
-6.01809
-5.86412
-5.7033
-5.53566
-5.36123
-5.18005
-4.99219
-4.79773
-4.59676
-4.38938
-4.17572
-3.95592
-3.73012
-3.49849
-3.2612
-3.01845
-2.77044
-2.51739
-2.25954
-1.99711
-1.73035
-1.45952
-1.18488
-0.906728
-0.625339
-0.341017
-0.0540539
0.235269
0.526631
0.819697
1.11415
1.40972
1.70608
2.0029
2.29985
2.59663
2.89291
3.1884
3.48278
3.77577
4.06706
4.3564
4.64349
4.92807
5.2099
5.48872
5.76431
6.03644
6.30489
6.56948
6.83002
7.08633
7.33827
7.58567
7.82841
8.06637
8.29942
8.52748
8.75045
8.96823
9.18076
9.38797
9.58982
9.7863
9.97735
10.1629
10.3429
10.5174
10.6864
10.8498
11.0078
11.1605
11.3079
11.4505
11.5883
11.7227
11.8509
11.9851
12.0739
-6.70696
-6.71088
-6.71726
-6.72267
-6.7265
-6.7294
-6.73182
-6.73401
-6.73615
-6.73841
-6.74091
-6.74372
-6.74692
-6.75057
-6.75471
-6.75938
-6.76462
-6.77046
-6.77694
-6.78409
-6.79194
-6.80052
-6.80987
-6.82002
-6.83099
-6.84283
-6.85556
-6.86922
-6.88383
-6.89941
-6.91597
-6.9335
-6.95198
-6.97136
-6.99159
-7.01263
-7.03444
-7.05697
-7.08017
-7.10401
-7.12844
-7.15342
-7.17893
-7.20493
-7.23137
-7.2582
-7.28538
-7.31286
-7.34058
-7.3685
-7.39654
-7.42465
-7.45275
-7.48077
-7.50864
-7.53627
-7.56358
-7.59046
-7.61681
-7.64254
-7.66752
-7.69163
-7.71475
-7.73674
-7.75746
-7.77676
-7.79449
-7.81049
-7.82459
-7.83662
-7.84641
-7.85378
-7.85854
-7.8605
-7.85947
-7.85527
-7.84769
-7.83654
-7.82162
-7.80273
-7.77968
-7.75227
-7.72032
-7.68362
-7.642
-7.59527
-7.54326
-7.4858
-7.42271
-7.35386
-7.27908
-7.19825
-7.11122
-7.01789
-6.91813
-6.81185
-6.69896
-6.5794
-6.45311
-6.32005
-6.18018
-6.03348
-5.87995
-5.71957
-5.55238
-5.3784
-5.19768
-5.01028
-4.81628
-4.61577
-4.40886
-4.19567
-3.97633
-3.751
-3.51984
-3.28302
-3.04074
-2.7932
-2.54062
-2.28322
-2.02124
-1.75492
-1.48453
-1.21032
-0.932584
-0.651601
-0.367676
-0.0810869
0.207867
0.498862
0.79157
1.0857
1.38096
1.67704
1.97359
2.2703
2.56684
2.86292
3.15821
3.45243
3.74527
4.03645
4.32569
4.61271
4.89725
5.17905
5.45786
5.73346
6.00563
6.27415
6.53883
6.79948
7.05593
7.30801
7.55559
7.79852
8.03668
8.26995
8.49823
8.72143
8.93946
9.15223
9.35967
9.56175
9.75844
9.94971
10.1355
10.3158
10.4905
10.6597
10.8234
10.9816
11.1344
11.2819
11.4244
11.5618
11.6952
11.821
11.9522
12.031
-6.7041
-6.70856
-6.71575
-6.72195
-6.72649
-6.73004
-6.73305
-6.73578
-6.73844
-6.74118
-6.74413
-6.74738
-6.75101
-6.75508
-6.75964
-6.76472
-6.77038
-6.77663
-6.78353
-6.79109
-6.79935
-6.80835
-6.81811
-6.82865
-6.84001
-6.85221
-6.86528
-6.87923
-6.89408
-6.90984
-6.92652
-6.94409
-6.96254
-6.98184
-7.00196
-7.02285
-7.04448
-7.06681
-7.08982
-7.11345
-7.13767
-7.16244
-7.18774
-7.21351
-7.23973
-7.26634
-7.29331
-7.32059
-7.34813
-7.37588
-7.40378
-7.43176
-7.45977
-7.48772
-7.51554
-7.54315
-7.57045
-7.59735
-7.62375
-7.64954
-7.6746
-7.69881
-7.72205
-7.74416
-7.76503
-7.78448
-7.80238
-7.81855
-7.83283
-7.84505
-7.85503
-7.86259
-7.86755
-7.86971
-7.86889
-7.86489
-7.85751
-7.84656
-7.83183
-7.81314
-7.79028
-7.76307
-7.7313
-7.69479
-7.65335
-7.60681
-7.55498
-7.4977
-7.43479
-7.36611
-7.29152
-7.21087
-7.12403
-7.03088
-6.93131
-6.82523
-6.71256
-6.59321
-6.46714
-6.3343
-6.19465
-6.04818
-5.89487
-5.73473
-5.56777
-5.39402
-5.21354
-5.02639
-4.83265
-4.6324
-4.42576
-4.21284
-3.99379
-3.76874
-3.53786
-3.30134
-3.05935
-2.81211
-2.55983
-2.30273
-2.04105
-1.77503
-1.50493
-1.23101
-0.953566
-0.672872
-0.389226
-0.102908
0.185768
0.476481
0.76892
1.0628
1.35783
1.65369
1.95002
2.24652
2.54287
2.83877
3.1339
3.42796
3.72067
4.01173
4.30086
4.58779
4.87226
5.154
5.43278
5.70837
5.98054
6.24908
6.5138
6.7745
7.03102
7.2832
7.53087
7.77392
8.0122
8.24562
8.47405
8.69741
8.9156
9.12854
9.33616
9.53841
9.73528
9.92671
10.1127
10.2931
10.468
10.6374
10.8012
10.9595
11.1124
11.2599
11.402
11.5388
11.671
11.7945
11.9228
11.9929
-6.70384
-6.70864
-6.71632
-6.72305
-6.72813
-6.73221
-6.73573
-6.73895
-6.74207
-6.74526
-6.74863
-6.7523
-6.75634
-6.76081
-6.76576
-6.77123
-6.77727
-6.78392
-6.7912
-6.79915
-6.80779
-6.81716
-6.82727
-6.83816
-6.84985
-6.86235
-6.87568
-6.88986
-6.90489
-6.92078
-6.93753
-6.95513
-6.97356
-6.99279
-7.01281
-7.03358
-7.05507
-7.07725
-7.1001
-7.12357
-7.14763
-7.17225
-7.1974
-7.22303
-7.24911
-7.2756
-7.30246
-7.32964
-7.3571
-7.38479
-7.41264
-7.4406
-7.4686
-7.49656
-7.52442
-7.55208
-7.57946
-7.60645
-7.63296
-7.65887
-7.68407
-7.70843
-7.73182
-7.7541
-7.77513
-7.79476
-7.81283
-7.82918
-7.84364
-7.85603
-7.86618
-7.87391
-7.87903
-7.88134
-7.88066
-7.8768
-7.86955
-7.85871
-7.8441
-7.82551
-7.80274
-7.77561
-7.74391
-7.70747
-7.66609
-7.61959
-7.56781
-7.51056
-7.44769
-7.37905
-7.30448
-7.22386
-7.13705
-7.04392
-6.94439
-6.83835
-6.72571
-6.60641
-6.48038
-6.3476
-6.208
-6.06159
-5.90833
-5.74825
-5.58136
-5.4077
-5.22731
-5.04025
-4.84661
-4.64648
-4.43995
-4.22716
-4.00824
-3.78334
-3.55262
-3.31626
-3.07445
-2.82739
-2.57529
-2.31839
-2.05689
-1.79107
-1.52117
-1.24746
-0.970219
-0.689735
-0.406288
-0.120181
0.168276
0.458767
0.750995
1.04467
1.33952
1.63518
1.93133
2.22764
2.52382
2.81955
3.11452
3.40843
3.701
3.99193
4.28095
4.56778
4.85216
5.13383
5.41255
5.68808
5.96022
6.22874
6.49345
6.75416
7.0107
7.26291
7.51063
7.75374
7.9921
8.22559
8.45412
8.67758
8.89588
9.10893
9.31668
9.51906
9.71604
9.90759
10.0937
10.2742
10.4493
10.6187
10.7826
10.941
11.0938
11.2411
11.3828
11.5188
11.6496
11.7708
11.8965
11.9592
-6.70619
-6.71114
-6.71902
-6.72603
-6.73148
-6.73594
-6.73986
-6.74347
-6.74697
-6.75053
-6.75427
-6.75829
-6.76267
-6.76747
-6.77276
-6.77857
-6.78494
-6.79191
-6.7995
-6.80776
-6.81671
-6.82636
-6.83675
-6.8479
-6.85982
-6.87254
-6.88605
-6.90039
-6.91553
-6.93151
-6.9483
-6.9659
-6.9843
-7.00349
-7.02343
-7.04411
-7.0655
-7.08758
-7.11032
-7.13369
-7.15766
-7.1822
-7.20727
-7.23285
-7.25888
-7.28534
-7.31218
-7.33935
-7.36682
-7.39453
-7.42242
-7.45044
-7.47852
-7.50658
-7.53454
-7.56233
-7.58984
-7.61698
-7.64365
-7.66973
-7.69509
-7.71963
-7.7432
-7.76566
-7.78686
-7.80666
-7.8249
-7.84141
-7.85601
-7.86854
-7.87882
-7.88667
-7.89188
-7.89429
-7.89368
-7.88987
-7.88267
-7.87186
-7.85726
-7.83867
-7.81589
-7.78872
-7.75699
-7.72049
-7.67905
-7.63248
-7.58061
-7.52328
-7.46031
-7.39156
-7.31689
-7.23616
-7.14924
-7.05602
-6.95638
-6.85023
-6.7375
-6.61811
-6.492
-6.35912
-6.21945
-6.07296
-5.91965
-5.75951
-5.59257
-5.41887
-5.23845
-5.05138
-4.85774
-4.65761
-4.45111
-4.23835
-4.01948
-3.79463
-3.56398
-3.3277
-3.08599
-2.83903
-2.58705
-2.33027
-2.06891
-1.80322
-1.53347
-1.25991
-0.982834
-0.702513
-0.419233
-0.133307
0.154958
0.445261
0.7373
1.03079
1.32546
1.62093
1.91689
2.21302
2.50901
2.80456
3.09937
3.39312
3.68554
3.97633
4.26521
4.55191
4.83617
5.11773
5.39636
5.67181
5.94387
6.21233
6.47699
6.73766
6.99418
7.24637
7.4941
7.73722
7.9756
8.20913
8.4377
8.66121
8.87957
9.09269
9.30052
9.50298
9.70005
9.89169
10.0778
10.2585
10.4336
10.6031
10.767
10.9253
11.078
11.225
11.3662
11.5013
11.6307
11.7496
11.8731
11.9293
-6.71098
-6.71591
-6.72372
-6.73078
-6.7364
-6.7411
-6.74528
-6.74917
-6.75295
-6.75679
-6.7608
-6.76508
-6.76972
-6.77478
-6.78031
-6.78635
-6.79295
-6.80015
-6.80796
-6.81642
-6.82556
-6.8354
-6.84596
-6.85727
-6.86933
-6.88217
-6.89579
-6.91021
-6.92542
-6.94144
-6.95825
-6.97585
-6.99423
-7.01338
-7.03328
-7.05391
-7.07525
-7.09728
-7.11997
-7.1433
-7.16724
-7.19176
-7.21684
-7.24243
-7.26849
-7.29499
-7.32189
-7.34914
-7.3767
-7.40451
-7.43252
-7.46067
-7.48889
-7.5171
-7.54523
-7.57318
-7.60087
-7.6282
-7.65504
-7.68131
-7.70686
-7.73157
-7.75531
-7.77793
-7.79929
-7.81923
-7.83759
-7.8542
-7.86891
-7.88151
-7.89185
-7.89973
-7.90497
-7.90738
-7.90675
-7.9029
-7.89564
-7.88476
-7.87006
-7.85136
-7.82845
-7.80115
-7.76925
-7.73258
-7.69096
-7.6442
-7.59213
-7.53459
-7.47141
-7.40245
-7.32756
-7.24661
-7.15947
-7.06603
-6.96618
-6.85983
-6.7469
-6.62731
-6.50101
-6.36796
-6.22812
-6.08147
-5.928
-5.76772
-5.60066
-5.42684
-5.24633
-5.05917
-4.86546
-4.66527
-4.45874
-4.24596
-4.02708
-3.80224
-3.57162
-3.33539
-3.09373
-2.84685
-2.59495
-2.33826
-2.07701
-1.81144
-1.54182
-1.26841
-0.991479
-0.711316
-0.428214
-0.142475
0.145594
0.435703
0.727541
1.02084
1.31531
1.61058
1.90633
2.20225
2.49804
2.79339
3.08799
3.38156
3.67379
3.9644
4.25311
4.53965
4.82375
5.10517
5.38366
5.65898
5.93093
6.19928
6.46385
6.72444
6.98088
7.23302
7.4807
7.72378
7.96214
8.19566
8.42423
8.64775
8.86613
9.07929
9.28715
9.48966
9.68678
9.87846
10.0647
10.2453
10.4205
10.59
10.7539
10.9121
11.0645
11.2112
11.3518
11.486
11.614
11.7307
11.852
11.9029
-6.71787
-6.72264
-6.73016
-6.73707
-6.74269
-6.74747
-6.75178
-6.75582
-6.75976
-6.76376
-6.76793
-6.77237
-6.77715
-6.78234
-6.788
-6.79416
-6.80087
-6.80816
-6.81606
-6.82462
-6.83384
-6.84376
-6.8544
-6.86577
-6.8779
-6.89079
-6.90445
-6.91891
-6.93414
-6.95017
-6.96698
-6.98458
-7.00295
-7.02208
-7.04196
-7.06258
-7.08392
-7.10595
-7.12865
-7.15201
-7.17599
-7.20056
-7.22568
-7.25134
-7.27748
-7.30409
-7.33111
-7.3585
-7.38621
-7.41418
-7.44236
-7.47069
-7.49908
-7.52748
-7.55579
-7.58393
-7.6118
-7.63931
-7.66633
-7.69275
-7.71846
-7.74331
-7.76717
-7.7899
-7.81135
-7.83136
-7.84977
-7.86641
-7.88111
-7.89371
-7.904
-7.91182
-7.91697
-7.91926
-7.9185
-7.9145
-7.90706
-7.89599
-7.88108
-7.86215
-7.839
-7.81144
-7.77927
-7.74232
-7.70041
-7.65335
-7.60098
-7.54313
-7.47964
-7.41037
-7.33517
-7.25391
-7.16647
-7.07273
-6.97259
-6.86596
-6.75275
-6.6329
-6.50636
-6.37306
-6.23299
-6.08613
-5.93246
-5.772
-5.60477
-5.43081
-5.25016
-5.06289
-4.86908
-4.66883
-4.46223
-4.24942
-4.03052
-3.80569
-3.57509
-3.3389
-3.09731
-2.8505
-2.5987
-2.34212
-2.081
-1.81557
-1.54611
-1.27286
-0.996113
-0.716141
-0.433247
-0.147725
0.140129
0.43001
0.721614
1.01469
1.30892
1.60394
1.89943
2.1951
2.49064
2.78574
3.08011
3.37343
3.66543
3.95581
4.2443
4.53062
4.81452
5.09574
5.37404
5.64919
5.92097
6.18917
6.45359
6.71405
6.97038
7.22241
7.47
7.71301
7.9513
8.18476
8.41329
8.63678
8.85515
9.0683
9.27617
9.4787
9.67584
9.86754
10.0538
10.2345
10.4096
10.5791
10.7429
10.9009
11.0532
11.1994
11.3394
11.4725
11.5991
11.7139
11.8332
11.8796
-6.72647
-6.73097
-6.73803
-6.74462
-6.75008
-6.7548
-6.75909
-6.76314
-6.76711
-6.77113
-6.77533
-6.77978
-6.78457
-6.78976
-6.79541
-6.80156
-6.80825
-6.81553
-6.82342
-6.83196
-6.84117
-6.85108
-6.86171
-6.87307
-6.88519
-6.89807
-6.91172
-6.92616
-6.94139
-6.9574
-6.97421
-6.9918
-7.01017
-7.0293
-7.0492
-7.06984
-7.09121
-7.11328
-7.13604
-7.15945
-7.18349
-7.20814
-7.23336
-7.25913
-7.28541
-7.31217
-7.33935
-7.36692
-7.39482
-7.42297
-7.45134
-7.47983
-7.5084
-7.53696
-7.56544
-7.59373
-7.62174
-7.64938
-7.67651
-7.70303
-7.7288
-7.75371
-7.7776
-7.80033
-7.82176
-7.84172
-7.86006
-7.8766
-7.89118
-7.90362
-7.91374
-7.92136
-7.92629
-7.92834
-7.92732
-7.92304
-7.9153
-7.90391
-7.88867
-7.8694
-7.84589
-7.81796
-7.78542
-7.74809
-7.70579
-7.65835
-7.60559
-7.54735
-7.48347
-7.41382
-7.33825
-7.25663
-7.16884
-7.07475
-6.97428
-6.86732
-6.75381
-6.63367
-6.50684
-6.37329
-6.23298
-6.08589
-5.93202
-5.77138
-5.60399
-5.42989
-5.24912
-5.06175
-4.86787
-4.66756
-4.46094
-4.24812
-4.02924
-3.80445
-3.57391
-3.3378
-3.09631
-2.84963
-2.59796
-2.34154
-2.08058
-1.81535
-1.54609
-1.27307
-0.996554
-0.716842
-0.434213
-0.148959
0.138621
0.428206
0.719521
1.01231
1.30624
1.60092
1.8961
2.19145
2.48668
2.78147
3.07552
3.36855
3.66025
3.95034
4.23854
4.52459
4.80822
5.08918
5.36723
5.64215
5.9137
6.18169
6.44592
6.7062
6.96236
7.21424
7.46169
7.70457
7.94276
8.17613
8.40458
8.628
8.84632
9.05943
9.26728
9.4698
9.66693
9.85864
10.0449
10.2255
10.4006
10.5701
10.7338
10.8917
11.0436
11.1893
11.3286
11.4608
11.586
11.6989
11.8162
11.8591
-6.73637
-6.74053
-6.74702
-6.75317
-6.75833
-6.76283
-6.76694
-6.77084
-6.77467
-6.77856
-6.78262
-6.78693
-6.79158
-6.79664
-6.80215
-6.80817
-6.81474
-6.8219
-6.82968
-6.83811
-6.84722
-6.85704
-6.86758
-6.87886
-6.8909
-6.90372
-6.91732
-6.93172
-6.94691
-6.96291
-6.97971
-6.9973
-7.01567
-7.03482
-7.05473
-7.0754
-7.0968
-7.11891
-7.14173
-7.16521
-7.18934
-7.2141
-7.23945
-7.26537
-7.2918
-7.31872
-7.34607
-7.37379
-7.40184
-7.43014
-7.45862
-7.48724
-7.5159
-7.54455
-7.57309
-7.60144
-7.62948
-7.65712
-7.68424
-7.71071
-7.73642
-7.76122
-7.78499
-7.80757
-7.82881
-7.84856
-7.86666
-7.88295
-7.89724
-7.90938
-7.91917
-7.92644
-7.931
-7.93267
-7.93126
-7.92656
-7.9184
-7.90658
-7.8909
-7.87118
-7.84723
-7.81885
-7.78586
-7.74808
-7.70534
-7.65745
-7.60426
-7.54559
-7.48129
-7.41124
-7.33528
-7.25329
-7.16512
-7.07069
-6.96988
-6.86261
-6.74881
-6.62839
-6.50131
-6.36752
-6.22699
-6.07971
-5.92568
-5.76489
-5.59738
-5.42318
-5.24234
-5.05493
-4.86103
-4.66073
-4.45414
-4.24137
-4.02258
-3.7979
-3.56749
-3.33154
-3.09022
-2.84374
-2.59229
-2.33611
-2.07542
-1.81046
-1.5415
-1.26878
-0.9926
-0.713233
-0.430947
-0.146041
0.141166
0.430364
0.721318
1.01374
1.30726
1.60153
1.8963
2.19125
2.48607
2.78047
3.07414
3.36678
3.6581
3.94782
4.23567
4.52136
4.80465
5.08528
5.36302
5.63763
5.9089
6.17662
6.44059
6.70063
6.95657
7.20825
7.45551
7.69822
7.93626
8.1695
8.39783
8.62116
8.83939
9.05245
9.26024
9.46273
9.65984
9.85152
10.0377
10.2184
10.3934
10.5628
10.7264
10.884
11.0356
11.1809
11.3195
11.4506
11.5745
11.6857
11.8011
11.8411
-6.74723
-6.751
-6.75687
-6.76246
-6.76718
-6.7713
-6.77506
-6.77863
-6.78213
-6.78571
-6.78946
-6.79348
-6.79785
-6.80264
-6.80789
-6.81367
-6.82001
-6.82695
-6.83452
-6.84277
-6.8517
-6.86136
-6.87175
-6.88291
-6.89484
-6.90756
-6.92108
-6.9354
-6.95052
-6.96646
-6.9832
-7.00075
-7.0191
-7.03824
-7.05816
-7.07883
-7.10024
-7.12239
-7.14526
-7.16883
-7.19306
-7.21793
-7.24338
-7.26939
-7.29591
-7.3229
-7.35031
-7.37807
-7.40614
-7.43444
-7.4629
-7.49147
-7.52008
-7.54865
-7.57709
-7.6053
-7.63319
-7.66065
-7.68755
-7.71379
-7.73922
-7.76373
-7.78717
-7.8094
-7.83027
-7.84963
-7.86732
-7.88317
-7.89702
-7.90869
-7.91801
-7.9248
-7.92887
-7.93003
-7.92811
-7.92291
-7.91423
-7.9019
-7.88572
-7.86549
-7.84103
-7.81216
-7.77868
-7.74042
-7.69721
-7.64887
-7.59523
-7.53613
-7.47144
-7.401
-7.32467
-7.24232
-7.15382
-7.05907
-6.95798
-6.85044
-6.73639
-6.61575
-6.48848
-6.35452
-6.21385
-6.06646
-5.91234
-5.75149
-5.58395
-5.40975
-5.22894
-5.04158
-4.84776
-4.64756
-4.44111
-4.22851
-4.00991
-3.78544
-3.55529
-3.3196
-3.07858
-2.8324
-2.58129
-2.32546
-2.06515
-1.80058
-1.53203
-1.25975
-0.984025
-0.705096
-0.423262
-0.138827
0.147881
0.436591
0.727086
1.01902
1.312
1.60575
1.90001
2.19446
2.48878
2.78268
3.07586
3.36802
3.65887
3.94814
4.23553
4.52079
4.80366
5.08388
5.36122
5.63546
5.90637
6.17375
6.4374
6.69714
6.9528
7.20422
7.45125
7.69375
7.93159
8.16466
8.39284
8.61604
8.83416
9.04713
9.25486
9.45729
9.65436
9.846
10.0322
10.2128
10.3878
10.5571
10.7205
10.878
11.0292
11.174
11.3119
11.442
11.5646
11.6742
11.7877
11.8257
-6.75922
-6.76262
-6.76785
-6.7728
-6.77692
-6.78045
-6.78364
-6.78663
-6.78959
-6.79264
-6.79589
-6.79944
-6.80336
-6.80772
-6.81258
-6.81799
-6.82399
-6.83061
-6.83789
-6.84586
-6.85453
-6.86395
-6.87411
-6.88506
-6.89678
-6.90932
-6.92266
-6.93682
-6.9518
-6.96759
-6.9842
-7.00162
-7.01985
-7.0389
-7.05874
-7.07936
-7.10074
-7.12287
-7.14571
-7.16924
-7.19342
-7.21823
-7.2436
-7.26952
-7.29592
-7.32277
-7.35
-7.37758
-7.40542
-7.43348
-7.46169
-7.48999
-7.51831
-7.54657
-7.57468
-7.60253
-7.63002
-7.65705
-7.68349
-7.70925
-7.73418
-7.75816
-7.78106
-7.80274
-7.82304
-7.84182
-7.85893
-7.87419
-7.88744
-7.89851
-7.90723
-7.91343
-7.9169
-7.91748
-7.91498
-7.90921
-7.89997
-7.88709
-7.87037
-7.84962
-7.82465
-7.79528
-7.76133
-7.72262
-7.67897
-7.63022
-7.57619
-7.51675
-7.45171
-7.38095
-7.30432
-7.22169
-7.13295
-7.03798
-6.93668
-6.82898
-6.71479
-6.59405
-6.46669
-6.33269
-6.192
-6.04462
-5.89055
-5.72978
-5.56234
-5.38827
-5.20762
-5.02046
-4.82687
-4.62693
-4.42076
-4.20848
-3.99023
-3.76614
-3.53638
-3.30112
-3.06054
-2.81484
-2.56422
-2.30891
-2.04913
-1.78512
-1.51715
-1.24546
-0.970315
-0.69198
-0.410761
-0.126966
0.159093
0.447193
0.73709
1.02836
1.32066
1.61376
1.90738