/*--------------------------------*- C++ -*----------------------------------*\
  =========                 |
  \\      /  F ield         | OpenFOAM: The Open Source CFD Toolbox
   \\    /   O peration     | Website:  https://openfoam.org
    \\  /    A nd           | Version:  8
     \\/     M anipulation  |
\*---------------------------------------------------------------------------*/
FoamFile
{
    version     2.0;
    format      ascii;
    class       surfaceScalarField;
    location    "287";
    object      phi;
}
// * * * * * * * * * * * * * * * * * * * * * * * * * * * * * * * * * * * * * //

dimensions      [0 3 -1 0 0 0 0];

internalField   nonuniform List<scalar> 
24170
(
3.12889e-06
5.95162e-08
3.04664e-06
8.22477e-08
2.97355e-06
7.309e-08
2.90491e-06
6.86356e-08
2.8406e-06
6.43178e-08
2.78329e-06
5.73081e-08
2.73398e-06
4.93059e-08
2.69205e-06
4.19298e-08
2.65641e-06
3.56444e-08
2.626e-06
3.0408e-08
2.59985e-06
2.61471e-08
2.57713e-06
2.27208e-08
2.55718e-06
1.99511e-08
2.53944e-06
1.77368e-08
2.52353e-06
1.59057e-08
2.50865e-06
1.48851e-08
2.49516e-06
1.34898e-08
1.75048e-08
2.47765e-06
3.45314e-06
2.36248e-08
3.45702e-06
7.83664e-08
3.45055e-06
7.95576e-08
3.4391e-06
8.0087e-08
3.42432e-06
7.90915e-08
3.40708e-06
7.4553e-08
3.38787e-06
6.85138e-08
3.36736e-06
6.24415e-08
3.34623e-06
5.67735e-08
3.32507e-06
5.15676e-08
3.30436e-06
4.68505e-08
3.28439e-06
4.26911e-08
3.26536e-06
3.89896e-08
3.24729e-06
3.58028e-08
3.2303e-06
3.28925e-08
3.21429e-06
3.08942e-08
3.19959e-06
2.81879e-08
2.91957e-08
3.1879e-06
3.66826e-06
1.78795e-08
3.67919e-06
6.74387e-08
3.68543e-06
7.33213e-08
3.68947e-06
7.60409e-08
3.69108e-06
7.74874e-08
3.69012e-06
7.55103e-08
3.68699e-06
7.16394e-08
3.68216e-06
6.72682e-08
3.67603e-06
6.29068e-08
3.66892e-06
5.86829e-08
3.6611e-06
5.46683e-08
3.65283e-06
5.09607e-08
3.64429e-06
4.75243e-08
3.63566e-06
4.44386e-08
3.627e-06
4.15496e-08
3.61864e-06
3.92516e-08
3.61014e-06
3.66911e-08
3.56242e-08
3.60371e-06
3.92587e-06
1.73935e-08
3.93592e-06
5.7389e-08
3.94258e-06
6.66674e-08
3.94812e-06
7.04932e-08
3.95254e-06
7.30654e-08
3.9555e-06
7.25523e-08
3.95718e-06
6.99579e-08
3.95783e-06
6.66196e-08
3.95764e-06
6.31018e-08
3.95675e-06
5.9573e-08
3.95529e-06
5.61187e-08
3.95341e-06
5.28472e-08
3.95118e-06
4.97544e-08
3.94871e-06
4.69081e-08
3.94604e-06
4.42202e-08
3.9434e-06
4.18909e-08
3.94055e-06
3.95359e-08
3.76433e-08
3.93853e-06
4.20819e-06
1.63258e-08
4.21599e-06
4.95946e-08
4.22169e-06
6.0964e-08
4.2268e-06
6.53837e-08
4.23156e-06
6.83095e-08
4.23554e-06
6.85711e-08
4.23872e-06
6.67778e-08
4.24121e-06
6.41277e-08
4.24312e-06
6.1192e-08
4.24454e-06
5.81563e-08
4.24554e-06
5.51146e-08
4.24621e-06
5.21724e-08
4.24662e-06
4.93509e-08
4.24682e-06
4.67012e-08
4.24686e-06
4.41794e-08
4.24688e-06
4.18746e-08
4.24681e-06
3.96053e-08
3.74452e-08
4.24701e-06
4.51069e-06
1.47237e-08
4.51689e-06
4.33956e-08
4.52214e-06
5.57093e-08
4.52696e-06
6.05618e-08
4.53168e-06
6.35889e-08
4.53594e-06
6.43121e-08
4.53963e-06
6.30916e-08
4.54281e-06
6.09512e-08
4.54555e-06
5.8451e-08
4.54791e-06
5.57883e-08
4.54996e-06
5.30675e-08
4.55175e-06
5.03863e-08
4.55331e-06
4.77839e-08
4.55472e-06
4.5297e-08
4.55599e-06
4.29081e-08
4.55721e-06
4.06476e-08
4.5584e-06
3.84223e-08
3.61934e-08
4.55965e-06
4.83431e-06
1.31355e-08
4.83963e-06
3.8071e-08
4.84476e-06
5.0579e-08
4.84947e-06
5.58525e-08
4.85411e-06
5.89477e-08
4.85844e-06
5.99844e-08
4.86233e-06
5.92067e-08
4.86581e-06
5.74709e-08
4.86894e-06
5.53176e-08
4.87177e-06
5.29555e-08
4.87434e-06
5.04969e-08
4.87669e-06
4.80336e-08
4.87886e-06
4.56147e-08
4.88089e-06
4.32691e-08
4.88281e-06
4.09928e-08
4.88466e-06
3.87894e-08
4.88648e-06
3.66064e-08
3.439e-08
4.88828e-06
5.18103e-06
1.16843e-08
5.18576e-06
3.3346e-08
5.19077e-06
4.55712e-08
5.19542e-06
5.11944e-08
5.20002e-06
5.43537e-08
5.20439e-06
5.56149e-08
5.20839e-06
5.51981e-08
5.21206e-06
5.38054e-08
5.21543e-06
5.19475e-08
5.21854e-06
4.98436e-08
5.22143e-06
4.76116e-08
5.22412e-06
4.53397e-08
5.22665e-06
4.30819e-08
5.22906e-06
4.08647e-08
5.23136e-06
3.86913e-08
5.23359e-06
3.65562e-08
5.23577e-06
3.44276e-08
3.22661e-08
5.23789e-06
5.55268e-06
1.03374e-08
5.55689e-06
2.91391e-08
5.5617e-06
4.07584e-08
5.56632e-06
4.65788e-08
5.57089e-06
4.9781e-08
5.57531e-06
5.11998e-08
5.57942e-06
5.10813e-08
5.58324e-06
4.9991e-08
5.58679e-06
4.83969e-08
5.59011e-06
4.6526e-08
5.59322e-06
4.44995e-08
5.59615e-06
4.24041e-08
5.59894e-06
4.02955e-08
5.6016e-06
3.82015e-08
5.60416e-06
3.61296e-08
5.60664e-06
3.4075e-08
5.60905e-06
3.2018e-08
2.99392e-08
5.61138e-06
5.95104e-06
9.07821e-09
5.95479e-06
2.53868e-08
5.95937e-06
3.618e-08
5.96393e-06
4.20166e-08
5.96848e-06
4.52261e-08
5.97294e-06
4.67459e-08
5.97715e-06
4.68671e-08
5.9811e-06
4.60427e-08
5.98481e-06
4.46884e-08
5.9883e-06
4.30326e-08
5.9916e-06
4.11989e-08
5.99473e-06
3.92721e-08
5.99772e-06
3.73087e-08
6.00058e-06
3.53387e-08
6.00334e-06
3.33735e-08
6.006e-06
3.14129e-08
6.00857e-06
2.94461e-08
2.7471e-08
6.01104e-06
6.37798e-06
7.90848e-09
6.38135e-06
2.20215e-08
6.38568e-06
3.18467e-08
6.39017e-06
3.75247e-08
6.3947e-06
4.06947e-08
6.39918e-06
4.22654e-08
6.40348e-06
4.25681e-08
6.40755e-06
4.19714e-08
6.41141e-06
4.08344e-08
6.41506e-06
3.93789e-08
6.41853e-06
3.77289e-08
6.42184e-06
3.59668e-08
6.425e-06
3.41489e-08
6.42803e-06
3.23077e-08
6.43094e-06
3.04587e-08
6.43375e-06
2.86065e-08
6.43644e-06
2.67483e-08
2.48941e-08
6.43902e-06
5.74176e-06
6.98255e-09
5.74434e-06
1.94375e-08
5.74782e-06
2.83738e-08
5.75155e-06
3.37922e-08
5.75536e-06
3.68867e-08
5.75916e-06
3.8467e-08
5.76284e-06
3.8879e-08
5.76637e-06
3.8443e-08
5.76973e-06
3.74722e-08
5.77294e-06
3.61753e-08
5.77599e-06
3.46744e-08
5.77891e-06
3.30499e-08
5.7817e-06
3.13573e-08
5.78438e-06
2.96306e-08
5.78695e-06
2.78882e-08
5.78941e-06
2.61394e-08
5.79178e-06
2.43857e-08
2.26459e-08
5.79402e-06
6.99914e-06
5.9989e-09
7.00187e-06
1.67032e-08
7.00564e-06
2.46058e-08
7.00981e-06
2.96204e-08
7.01414e-06
3.25609e-08
7.0185e-06
3.41066e-08
7.02278e-06
3.45987e-08
7.02691e-06
3.43116e-08
7.03087e-06
3.35089e-08
7.03467e-06
3.23806e-08
7.0383e-06
3.1044e-08
7.04177e-06
2.95758e-08
7.0451e-06
2.80301e-08
7.04829e-06
2.64416e-08
7.05134e-06
2.48317e-08
7.05427e-06
2.32137e-08
7.05706e-06
2.15933e-08
1.99956e-08
7.05971e-06
8.53188e-06
4.96533e-09
8.53474e-06
1.38461e-08
8.53877e-06
2.05706e-08
8.54338e-06
2.50168e-08
8.54824e-06
2.76992e-08
8.5532e-06
2.91473e-08
8.55812e-06
2.9674e-08
8.56292e-06
2.951e-08
8.56756e-06
2.88687e-08
8.57203e-06
2.79146e-08
8.57632e-06
2.67556e-08
8.58043e-06
2.54636e-08
8.58437e-06
2.4089e-08
8.58814e-06
2.26669e-08
8.59175e-06
2.12203e-08
8.5952e-06
1.97656e-08
8.59848e-06
1.83118e-08
1.68869e-08
8.60159e-06
1.04003e-05
3.89116e-09
1.04033e-05
1.08856e-08
1.04075e-05
1.62906e-08
1.04126e-05
1.99911e-08
1.0418e-05
2.22864e-08
1.04236e-05
2.35535e-08
1.04292e-05
2.40526e-08
1.04347e-05
2.39711e-08
1.04401e-05
2.34734e-08
1.04453e-05
2.26927e-08
1.04504e-05
2.17222e-08
1.04552e-05
2.0626e-08
1.04599e-05
1.94493e-08
1.04643e-05
1.82251e-08
1.04685e-05
1.69767e-08
1.04726e-05
1.57218e-08
1.04764e-05
1.44709e-08
1.32528e-08
1.04801e-05
1.26779e-05
2.78143e-09
1.2681e-05
7.81659e-09
1.26855e-05
1.17647e-08
1.26909e-05
1.45383e-08
1.26969e-05
1.62963e-08
1.27032e-05
1.72778e-08
1.27096e-05
1.76725e-08
1.27159e-05
1.76197e-08
1.27222e-05
1.7237e-08
1.27282e-05
1.66222e-08
1.27341e-05
1.58482e-08
1.27398e-05
1.49669e-08
1.27452e-05
1.4016e-08
1.27504e-05
1.30237e-08
1.27554e-05
1.20112e-08
1.27601e-05
1.09951e-08
1.27646e-05
9.98569e-09
9.00972e-09
1.27688e-05
1.54543e-05
1.62558e-09
1.54576e-05
4.59364e-09
1.54624e-05
6.93636e-09
1.54683e-05
8.5999e-09
1.5475e-05
9.65687e-09
1.5482e-05
1.02322e-08
1.54892e-05
1.04355e-08
1.54965e-05
1.03506e-08
1.55037e-05
1.00481e-08
1.55107e-05
9.58803e-09
1.55176e-05
9.01734e-09
1.55242e-05
8.371e-09
1.55305e-05
7.67546e-09
1.55366e-05
6.9512e-09
1.55424e-05
6.21428e-09
1.55479e-05
5.47784e-09
1.55531e-05
4.74997e-09
4.05344e-09
1.55581e-05
1.88389e-05
3.83806e-10
1.88424e-05
1.09289e-09
1.88477e-05
1.63277e-09
1.88543e-05
1.98625e-09
1.88618e-05
2.17185e-09
1.88698e-05
2.21723e-09
1.88781e-05
2.14431e-09
1.88865e-05
1.97291e-09
1.88948e-05
1.72332e-09
1.8903e-05
1.4141e-09
1.89109e-05
1.06079e-09
1.89186e-05
6.76396e-10
1.8926e-05
2.72062e-10
1.89331e-05
-1.4263e-10
1.89399e-05
-5.59529e-10
1.89463e-05
-9.71264e-10
1.89525e-05
-1.37364e-09
-1.74953e-09
1.89583e-05
2.29648e-05
-1.04477e-09
2.29688e-05
-2.97412e-09
2.2975e-05
-4.56476e-09
2.29828e-05
-5.77801e-09
2.29916e-05
-6.63565e-09
2.3001e-05
-7.22407e-09
2.30108e-05
-7.63054e-09
2.30207e-05
-7.90966e-09
2.30305e-05
-8.09799e-09
2.30402e-05
-8.22664e-09
2.30495e-05
-8.31917e-09
2.30586e-05
-8.38993e-09
2.30673e-05
-8.44669e-09
2.30757e-05
-8.49369e-09
2.30836e-05
-8.53291e-09
2.30912e-05
-8.56446e-09
2.30985e-05
-8.5891e-09
-8.59646e-09
2.31053e-05
1.68118e-05
-2.16593e-09
1.6815e-05
-6.14043e-09
1.68198e-05
-9.38843e-09
1.68258e-05
-1.17672e-08
1.68325e-05
-1.33373e-08
1.68396e-05
-1.43263e-08
1.68469e-05
-1.49222e-08
1.68542e-05
-1.52283e-08
1.68614e-05
-1.53238e-08
1.68685e-05
-1.52805e-08
1.68753e-05
-1.51511e-08
1.68819e-05
-1.49685e-08
1.68882e-05
-1.47533e-08
1.68942e-05
-1.45192e-08
1.69e-05
-1.42751e-08
1.69054e-05
-1.40254e-08
1.69106e-05
-1.37739e-08
-1.3514e-08
1.69155e-05
1.46356e-05
-3.2426e-09
1.46387e-05
-9.22258e-09
1.46434e-05
-1.4097e-08
1.46492e-05
-1.75034e-08
1.46554e-05
-1.96147e-08
1.4662e-05
-2.08809e-08
1.46687e-05
-2.15722e-08
1.46752e-05
-2.18246e-08
1.46817e-05
-2.1769e-08
1.46879e-05
-2.1522e-08
1.46939e-05
-2.11589e-08
1.46997e-05
-2.07246e-08
1.47052e-05
-2.02492e-08
1.47104e-05
-1.97537e-08
1.47154e-05
-1.92516e-08
1.47201e-05
-1.87504e-08
1.47246e-05
-1.8255e-08
-1.77617e-08
1.47289e-05
1.27411e-05
-4.25069e-09
1.27443e-05
-1.23452e-08
1.27491e-05
-1.89224e-08
1.27547e-05
-2.31429e-08
1.27607e-05
-2.55871e-08
1.27668e-05
-2.70296e-08
1.2773e-05
-2.77332e-08
1.2779e-05
-2.78474e-08
1.27848e-05
-2.75793e-08
1.27904e-05
-2.7094e-08
1.27957e-05
-2.64812e-08
1.28008e-05
-2.57924e-08
1.28056e-05
-2.50645e-08
1.28102e-05
-2.43234e-08
1.28145e-05
-2.35844e-08
1.28186e-05
-2.2856e-08
1.28225e-05
-2.21429e-08
-2.14427e-08
1.28262e-05
1.10918e-05
-5.09159e-09
1.1095e-05
-1.55629e-08
1.11001e-05
-2.40448e-08
1.11057e-05
-2.87622e-08
1.11115e-05
-3.13152e-08
1.11173e-05
-3.28343e-08
1.1123e-05
-3.3451e-08
1.11285e-05
-3.33474e-08
1.11337e-05
-3.28259e-08
1.11387e-05
-3.20837e-08
1.11434e-05
-3.12127e-08
1.11479e-05
-3.02695e-08
1.11522e-05
-2.92971e-08
1.11562e-05
-2.83241e-08
1.11599e-05
-2.7366e-08
1.11635e-05
-2.64306e-08
1.11669e-05
-2.55223e-08
-2.46387e-08
1.11701e-05
9.65581e-06
-5.69022e-09
9.65924e-06
-1.89883e-08
9.66458e-06
-2.93876e-08
9.67007e-06
-3.42546e-08
9.67562e-06
-3.68662e-08
9.68118e-06
-3.83847e-08
9.6865e-06
-3.87735e-08
9.69151e-06
-3.83639e-08
9.69625e-06
-3.75585e-08
9.70071e-06
-3.65513e-08
9.70492e-06
-3.54213e-08
9.70888e-06
-3.42278e-08
9.7126e-06
-3.30185e-08
9.7161e-06
-3.18229e-08
9.71939e-06
-3.0656e-08
9.72248e-06
-2.95252e-08
9.72539e-06
-2.84325e-08
-2.73742e-08
9.72813e-06
8.4053e-06
-5.63585e-09
8.40963e-06
-2.33235e-08
8.41487e-06
-3.46219e-08
8.41989e-06
-3.92773e-08
8.42525e-06
-4.22247e-08
8.43065e-06
-4.37839e-08
8.43572e-06
-4.38493e-08
8.44042e-06
-4.30595e-08
8.44478e-06
-4.19166e-08
8.44882e-06
-4.05967e-08
8.45257e-06
-3.91695e-08
8.45604e-06
-3.76974e-08
8.45925e-06
-3.62299e-08
8.46222e-06
-3.47949e-08
8.46497e-06
-3.34074e-08
8.46752e-06
-3.20738e-08
8.46988e-06
-3.0796e-08
-2.95705e-08
8.47208e-06
7.3145e-06
-2.85224e-09
7.32119e-06
-3.00114e-08
7.32674e-06
-4.01726e-08
7.33168e-06
-4.42211e-08
7.33707e-06
-4.76155e-08
7.34239e-06
-4.90969e-08
7.34725e-06
-4.87183e-08
7.35166e-06
-4.74631e-08
7.35563e-06
-4.58849e-08
7.35917e-06
-4.4142e-08
7.36232e-06
-4.23155e-08
7.3651e-06
-4.04779e-08
7.36755e-06
-3.86817e-08
7.36971e-06
-3.69512e-08
7.3716e-06
-3.53014e-08
7.37326e-06
-3.37356e-08
7.37472e-06
-3.22537e-08
-3.08465e-08
7.37599e-06
6.36243e-06
4.78068e-09
6.37189e-06
-3.94733e-08
6.37932e-06
-4.75954e-08
6.38595e-06
-5.08545e-08
6.39223e-06
-5.38918e-08
6.39753e-06
-5.44036e-08
6.40182e-06
-5.30054e-08
6.40529e-06
-5.09358e-08
6.40808e-06
-4.86768e-08
6.41026e-06
-4.63181e-08
6.41188e-06
-4.39391e-08
6.41302e-06
-4.16161e-08
6.41374e-06
-3.93997e-08
6.4141e-06
-3.73088e-08
6.41415e-06
-3.53556e-08
6.41395e-06
-3.35382e-08
6.41356e-06
-3.1857e-08
-3.02907e-08
6.413e-06
5.54129e-06
8.9521e-09
5.55032e-06
-4.85022e-08
5.55833e-06
-5.5607e-08
5.56603e-06
-5.8558e-08
5.57249e-06
-6.03487e-08
5.57681e-06
-5.87242e-08
5.57905e-06
-5.5241e-08
5.5796e-06
-5.14889e-08
5.57884e-06
-4.79169e-08
5.57705e-06
-4.45256e-08
5.57445e-06
-4.13381e-08
5.57123e-06
-3.83951e-08
5.56753e-06
-3.57046e-08
5.56348e-06
-3.32606e-08
5.55918e-06
-3.10549e-08
5.55472e-06
-2.90764e-08
5.55019e-06
-2.73254e-08
-2.57486e-08
5.54565e-06
4.86019e-06
-2.3631e-08
4.86538e-06
-5.36934e-08
4.86523e-06
-5.54571e-08
4.86216e-06
-5.54932e-08
4.85699e-06
-5.51738e-08
4.84948e-06
-5.1218e-08
4.83979e-06
-4.55438e-08
4.82839e-06
-4.00908e-08
4.8158e-06
-3.53337e-08
4.80252e-06
-3.12409e-08
4.78891e-06
-2.77331e-08
4.77527e-06
-2.47505e-08
4.76178e-06
-2.22131e-08
4.74857e-06
-2.00552e-08
4.73574e-06
-1.82211e-08
4.72335e-06
-1.66871e-08
4.71151e-06
-1.54896e-08
-1.51396e-08
4.7009e-06
4.17905e-06
4.12535e-06
4.06989e-06
4.0144e-06
3.95923e-06
3.90801e-06
3.86247e-06
3.82237e-06
3.78704e-06
3.7558e-06
3.72807e-06
3.70332e-06
3.6811e-06
3.66105e-06
3.64283e-06
3.62614e-06
3.61065e-06
3.59551e-06
1.08829e-08
-1.08755e-08
2.42481e-08
-1.33594e-08
3.40755e-08
-9.815e-09
3.88438e-08
-4.76467e-09
3.84242e-08
4.32738e-10
3.3368e-08
5.05925e-09
2.46176e-08
8.76582e-09
1.30605e-08
1.15585e-08
-5.36469e-10
1.36138e-08
-1.57369e-08
1.5199e-08
-3.22239e-08
1.65029e-08
-4.98451e-08
1.76176e-08
-6.84625e-08
1.86328e-08
-8.80571e-08
1.95907e-08
-1.08552e-07
2.05107e-08
-1.29951e-07
2.13971e-08
-1.52184e-07
2.22515e-08
-1.75256e-07
2.30716e-08
-1.99093e-07
2.38584e-08
-2.23701e-07
2.46099e-08
-2.49006e-07
2.53294e-08
-2.75017e-07
2.60157e-08
-3.01659e-07
2.66757e-08
-3.28953e-07
2.73128e-08
-3.56863e-07
2.79464e-08
-3.85412e-07
2.86049e-08
-4.147e-07
2.93318e-08
-4.44749e-07
3.01576e-08
-4.75811e-07
3.11152e-08
-5.08022e-07
3.23516e-08
-5.40281e-07
3.22863e-08
-5.70362e-07
3.01951e-08
-6.00481e-07
3.01095e-08
-6.32994e-07
3.25412e-08
-6.68632e-07
3.55703e-08
-7.12872e-07
4.4172e-08
-7.58299e-07
4.53112e-08
-7.9606e-07
3.76332e-08
-8.36746e-07
4.05864e-08
-8.80429e-07
4.35753e-08
-9.27168e-07
4.66805e-08
-9.735e-07
4.6266e-08
-1.01495e-06
4.143e-08
-1.05583e-06
4.08417e-08
-1.09924e-06
4.34005e-08
-1.143e-06
4.37364e-08
-1.18692e-06
4.39187e-08
-1.23094e-06
4.3999e-08
-1.27495e-06
4.40076e-08
-1.3189e-06
4.39328e-08
-1.3627e-06
4.37981e-08
-1.40633e-06
4.36143e-08
-1.44974e-06
4.33978e-08
-1.49291e-06
4.31537e-08
-1.5358e-06
4.28893e-08
-1.57842e-06
4.26048e-08
-1.62073e-06
4.23032e-08
-1.66272e-06
4.19825e-08
-1.70437e-06
4.16434e-08
-1.74567e-06
4.1283e-08
-1.78657e-06
4.09008e-08
-1.82707e-06
4.0494e-08
-1.86714e-06
4.00615e-08
-1.90674e-06
3.96004e-08
-1.94586e-06
3.91094e-08
-1.98445e-06
3.85861e-08
-2.02248e-06
3.80293e-08
-2.05992e-06
3.74369e-08
-2.09674e-06
3.6808e-08
-2.13288e-06
3.61407e-08
-2.16832e-06
3.54343e-08
-2.20301e-06
3.46876e-08
-2.23692e-06
3.39e-08
-2.26999e-06
3.30707e-08
-2.3022e-06
3.21993e-08
-2.33349e-06
3.12854e-08
-2.36382e-06
3.03291e-08
-2.39316e-06
2.93304e-08
-2.42145e-06
2.82895e-08
-2.44866e-06
2.72065e-08
-2.47475e-06
2.60818e-08
-2.49967e-06
2.49159e-08
-2.52338e-06
2.37093e-08
-2.54585e-06
2.24622e-08
-2.56703e-06
2.11752e-08
-2.58688e-06
1.98485e-08
-2.60537e-06
1.84826e-08
-2.62245e-06
1.7077e-08
-2.63808e-06
1.56309e-08
-2.65222e-06
1.41416e-08
-2.66483e-06
1.26041e-08
-2.67584e-06
1.10136e-08
-2.68521e-06
9.36431e-09
-2.69286e-06
7.64859e-09
-2.69871e-06
5.85271e-09
-2.70267e-06
3.95834e-09
-2.70464e-06
1.96384e-09
-2.70459e-06
-5.00277e-11
-2.70272e-06
-1.87269e-09
-2.69923e-06
-3.50072e-09
-2.69414e-06
-5.08887e-09
-2.68749e-06
-6.66577e-09
-2.67925e-06
-8.24512e-09
-2.66943e-06
-9.82902e-09
-2.65803e-06
-1.14164e-08
-2.64504e-06
-1.30064e-08
-2.63045e-06
-1.45963e-08
-2.61428e-06
-1.61855e-08
-2.59652e-06
-1.7771e-08
-2.57718e-06
-1.93524e-08
-2.55627e-06
-2.09268e-08
-2.53378e-06
-2.24936e-08
-2.50974e-06
-2.40496e-08
-2.48416e-06
-2.55947e-08
-2.45704e-06
-2.71254e-08
-2.4284e-06
-2.86415e-08
-2.39826e-06
-3.01394e-08
-2.36665e-06
-3.16189e-08
-2.33357e-06
-3.30766e-08
-2.29906e-06
-3.45129e-08
-2.26313e-06
-3.59256e-08
-2.22582e-06
-3.73141e-08
-2.18716e-06
-3.8674e-08
-2.14717e-06
-4.00044e-08
-2.10587e-06
-4.13005e-08
-2.06331e-06
-4.2564e-08
-2.01952e-06
-4.37916e-08
-1.97453e-06
-4.49859e-08
-1.92837e-06
-4.61425e-08
-1.88109e-06
-4.72633e-08
-1.83273e-06
-4.8346e-08
-1.78332e-06
-4.93881e-08
-1.73291e-06
-5.03812e-08
-1.68154e-06
-5.13325e-08
-1.62926e-06
-5.22418e-08
-1.57611e-06
-5.31066e-08
-1.52214e-06
-5.39225e-08
-1.4674e-06
-5.46911e-08
-1.41193e-06
-5.54116e-08
-1.35579e-06
-5.60843e-08
-1.29903e-06
-5.67089e-08
-1.2417e-06
-5.72848e-08
-1.18384e-06
-5.78124e-08
-1.1255e-06
-5.82908e-08
-1.06674e-06
-5.8721e-08
-1.00761e-06
-5.91017e-08
-9.48144e-07
-5.94347e-08
-8.884e-07
-5.97192e-08
-8.28423e-07
-5.99572e-08
-7.6826e-07
-6.01481e-08
-7.07957e-07
-6.02948e-08
-6.47557e-07
-6.03966e-08
-5.87104e-07
-6.04566e-08
-5.26637e-07
-6.04746e-08
-4.66198e-07
-6.04535e-08
-4.05824e-07
-6.03931e-08
-3.45552e-07
-6.02959e-08
-2.8542e-07
-6.01611e-08
-2.25464e-07
-5.9991e-08
-1.65718e-07
-5.97845e-08
-1.06211e-07
-5.95502e-08
-4.69889e-08
-5.92683e-08
1.18636e-08
-5.89029e-08
7.03804e-08
-5.85681e-08
1.28549e-07
-5.82217e-08
1.86274e-07
-5.77795e-08
2.43562e-07
-5.73432e-08
3.0042e-07
-5.6915e-08
3.56851e-07
-5.64888e-08
4.12844e-07
-5.60518e-08
4.68372e-07
-5.55882e-08
5.23382e-07
-5.50716e-08
5.77779e-07
-5.44598e-08
6.31392e-07
-5.36764e-08
6.83905e-07
-5.2577e-08
7.347e-07
-5.08597e-08
7.82463e-07
-4.78275e-08
8.24027e-07
-4.16268e-08
8.51259e-07
-2.72902e-08
1.78608e-08
8.33348e-07
9.11231e-09
-1.99829e-08
1.25451e-08
-1.67884e-08
1.12362e-08
-8.50048e-09
6.69961e-09
-2.25726e-10
-3.66178e-10
7.50391e-09
-9.74884e-09
1.4444e-08
-2.14067e-08
2.04296e-08
-3.52662e-08
2.54196e-08
-5.11544e-08
2.95079e-08
-6.88282e-08
3.28734e-08
-8.80322e-08
3.57127e-08
-1.08609e-07
3.81938e-08
-1.30413e-07
4.04431e-08
-1.53367e-07
4.25434e-08
-1.77394e-07
4.45452e-08
-2.02475e-07
4.64773e-08
-2.28572e-07
4.83571e-08
-2.55695e-07
5.01962e-08
-2.8383e-07
5.20053e-08
-3.13013e-07
5.37947e-08
-3.43248e-07
5.55776e-08
-3.74596e-07
5.73671e-08
-4.07086e-07
5.91797e-08
-4.40794e-07
6.10324e-08
-4.75774e-07
6.29448e-08
-5.12086e-07
6.49446e-08
-5.49777e-07
6.70507e-08
-5.88797e-07
6.92388e-08
-6.29071e-07
7.14288e-08
-6.7008e-07
7.34416e-08
-7.1255e-07
7.47914e-08
-7.57886e-07
7.55911e-08
-8.04955e-07
7.71803e-08
-8.52139e-07
7.9729e-08
-8.99219e-07
8.26069e-08
-9.40901e-07
8.58014e-08
-9.82503e-07
8.68469e-08
-1.03061e-06
8.56738e-08
-1.07598e-06
8.59019e-08
-1.11917e-06
8.67098e-08
-1.16001e-06
8.74895e-08
-1.20091e-06
8.71353e-08
-1.24511e-06
8.56071e-08
-1.28921e-06
8.49296e-08
-1.33087e-06
8.50483e-08
-1.37196e-06
8.48175e-08
-1.41249e-06
8.44437e-08
-1.45251e-06
8.4009e-08
-1.49204e-06
8.35363e-08
-1.53114e-06
8.30274e-08
-1.56984e-06
8.2484e-08
-1.60814e-06
8.19077e-08
-1.64605e-06
8.13022e-08
-1.68357e-06
8.06689e-08
-1.7207e-06
8.00089e-08
-1.75742e-06
7.93209e-08
-1.79372e-06
7.86035e-08
-1.8296e-06
7.78538e-08
-1.86503e-06
7.70688e-08
-1.9e-06
7.62449e-08
-1.93448e-06
7.53786e-08
-1.96846e-06
7.44661e-08
-2.0019e-06
7.35038e-08
-2.03479e-06
7.24881e-08
-2.0671e-06
7.14155e-08
-2.0988e-06
7.0283e-08
-2.12987e-06
6.90878e-08
-2.16026e-06
6.78271e-08
-2.18995e-06
6.64987e-08
-2.21892e-06
6.51006e-08
-2.24712e-06
6.3631e-08
-2.27452e-06
6.20885e-08
-2.30109e-06
6.04719e-08
-2.32681e-06
5.87803e-08
-2.35162e-06
5.70131e-08
-2.37551e-06
5.517e-08
-2.39844e-06
5.32511e-08
-2.42037e-06
5.12566e-08
-2.44127e-06
4.91868e-08
-2.46111e-06
4.70423e-08
-2.47985e-06
4.48239e-08
-2.49747e-06
4.25326e-08
-2.51393e-06
4.01692e-08
-2.52921e-06
3.77347e-08
-2.54327e-06
3.52304e-08
-2.55608e-06
3.26574e-08
-2.56762e-06
3.00168e-08
-2.57785e-06
2.73097e-08
-2.58676e-06
2.4537e-08
-2.59431e-06
2.1698e-08
-2.6005e-06
1.87926e-08
-2.60531e-06
1.58216e-08
-2.60874e-06
1.27874e-08
-2.61078e-06
9.69361e-09
-2.61148e-06
6.5466e-09
-2.61089e-06
3.36476e-09
-2.60911e-06
1.89257e-10
-2.60624e-06
-2.93045e-09
-2.6021e-06
-6.01212e-09
-2.5965e-06
-9.10176e-09
-2.58939e-06
-1.22043e-08
-2.58074e-06
-1.53185e-08
-2.57055e-06
-1.84464e-08
-2.5588e-06
-2.15857e-08
-2.54549e-06
-2.47336e-08
-2.53062e-06
-2.78865e-08
-2.51419e-06
-3.10406e-08
-2.49619e-06
-3.41925e-08
-2.47663e-06
-3.73385e-08
-2.45552e-06
-4.04753e-08
-2.43285e-06
-4.35992e-08
-2.40864e-06
-4.67069e-08
-2.38291e-06
-4.97947e-08
-2.35565e-06
-5.28591e-08
-2.32688e-06
-5.58965e-08
-2.29662e-06
-5.89035e-08
-2.26489e-06
-6.18761e-08
-2.2317e-06
-6.48105e-08
-2.19707e-06
-6.77036e-08
-2.16103e-06
-7.05529e-08
-2.1236e-06
-7.33555e-08
-2.08481e-06
-7.6108e-08
-2.04469e-06
-7.88052e-08
-2.00326e-06
-8.14426e-08
-1.96055e-06
-8.40152e-08
-1.91659e-06
-8.65211e-08
-1.87143e-06
-8.89573e-08
-1.82508e-06
-9.13241e-08
-1.7776e-06
-9.36185e-08
-1.72902e-06
-9.58407e-08
-1.67937e-06
-9.79874e-08
-1.62869e-06
-1.00051e-07
-1.57703e-06
-1.02023e-07
-1.52444e-06
-1.03909e-07
-1.47094e-06
-1.05711e-07
-1.4166e-06
-1.07424e-07
-1.36146e-06
-1.09041e-07
-1.30556e-06
-1.10563e-07
-1.24895e-06
-1.11989e-07
-1.19168e-06
-1.13318e-07
-1.13381e-06
-1.14551e-07
-1.07539e-06
-1.15687e-07
-1.01645e-06
-1.16725e-07
-9.57053e-07
-1.17665e-07
-8.97247e-07
-1.18507e-07
-8.3708e-07
-1.19252e-07
-7.76601e-07
-1.19899e-07
-7.15857e-07
-1.20452e-07
-6.54896e-07
-1.20909e-07
-5.93764e-07
-1.21274e-07
-5.32507e-07
-1.21548e-07
-4.7117e-07
-1.21734e-07
-4.09794e-07
-1.21834e-07
-3.48421e-07
-1.21853e-07
-2.87091e-07
-1.21791e-07
-2.25841e-07
-1.21653e-07
-1.6471e-07
-1.2144e-07
-1.0373e-07
-1.21156e-07
-4.29358e-08
-1.20803e-07
1.76459e-08
-1.20386e-07
7.79885e-08
-1.19913e-07
1.38072e-07
-1.19375e-07
1.97891e-07
-1.18745e-07
2.57339e-07
-1.18041e-07
3.1636e-07
-1.17268e-07
3.74996e-07
-1.16443e-07
4.33241e-07
-1.15616e-07
4.9109e-07
-1.14794e-07
5.48535e-07
-1.13964e-07
6.05558e-07
-1.13107e-07
6.62127e-07
-1.1219e-07
7.18185e-07
-1.11165e-07
7.73636e-07
-1.09945e-07
8.28308e-07
-1.08385e-07
8.81897e-07
-1.06204e-07
9.33863e-07
-1.02865e-07
9.83141e-07
-9.71435e-08
1.02805e-06
-8.65762e-08
1.06524e-06
-6.45112e-08
-1.20764e-08
1.09514e-06
6.532e-10
-2.0633e-08
-4.88191e-09
-1.12508e-08
-1.31538e-08
-2.25422e-10
-2.31553e-08
9.7767e-09
-3.45284e-08
1.88797e-08
-4.72074e-08
2.71238e-08
-6.12581e-08
3.44829e-08
-7.67839e-08
4.0946e-08
-9.3837e-08
4.65637e-08
-1.12411e-07
5.14472e-08
-1.32436e-07
5.57405e-08
-1.53832e-07
5.95888e-08
-1.76503e-07
6.31177e-08
-2.00385e-07
6.64238e-08
-2.25413e-07
6.95768e-08
-2.5156e-07
7.26247e-08
-2.78799e-07
7.56011e-08
-3.07133e-07
7.85307e-08
-3.36556e-07
8.14347e-08
-3.67091e-07
8.43313e-08
-3.98747e-07
8.7239e-08
-4.31554e-07
9.01746e-08
-4.65522e-07
9.31535e-08
-5.00673e-07
9.61852e-08
-5.36993e-07
9.92712e-08
-5.74431e-07
1.02394e-07
-6.12878e-07
1.05512e-07
-6.52152e-07
1.08547e-07
-6.92082e-07
1.11381e-07
-7.32464e-07
1.13871e-07
-7.73525e-07
1.15872e-07
-8.15373e-07
1.17471e-07
-8.57331e-07
1.19136e-07
-8.98571e-07
1.20965e-07
-9.38637e-07
1.22645e-07
-9.76975e-07
1.24108e-07
-1.01502e-06
1.24852e-07
-1.05415e-06
1.24769e-07
-1.09285e-06
1.24574e-07
-1.13064e-06
1.24478e-07
-1.1674e-06
1.24231e-07
-1.20384e-06
1.23564e-07
-1.24088e-06
1.22637e-07
-1.27785e-06
1.21885e-07
-1.31407e-06
1.21263e-07
-1.34982e-06
1.20559e-07
-1.38518e-06
1.19808e-07
-1.42021e-06
1.19032e-07
-1.45492e-06
1.18239e-07
-1.48933e-06
1.17429e-07
-1.52345e-06
1.16598e-07
-1.55729e-06
1.15743e-07
-1.59085e-06
1.14859e-07
-1.62413e-06
1.13945e-07
-1.65712e-06
1.12996e-07
-1.68981e-06
1.12008e-07
-1.72219e-06
1.10978e-07
-1.75424e-06
1.09899e-07
-1.78594e-06
1.08768e-07
-1.81727e-06
1.07577e-07
-1.84822e-06
1.06323e-07
-1.87876e-06
1.05e-07
-1.90886e-06
1.03603e-07
-1.9385e-06
1.02126e-07
-1.96765e-06
1.00565e-07
-1.99629e-06
9.89165e-08
-2.02438e-06
9.71757e-08
-2.05189e-06
9.53392e-08
-2.0788e-06
9.34039e-08
-2.10507e-06
9.1367e-08
-2.13067e-06
8.92263e-08
-2.15556e-06
8.69797e-08
-2.17972e-06
8.46255e-08
-2.2031e-06
8.21628e-08
-2.22568e-06
7.95906e-08
-2.24742e-06
7.69087e-08
-2.26829e-06
7.4117e-08
-2.28825e-06
7.12158e-08
-2.30727e-06
6.82058e-08
-2.32532e-06
6.50879e-08
-2.34236e-06
6.18634e-08
-2.35836e-06
5.85336e-08
-2.3733e-06
5.51003e-08
-2.38713e-06
5.15653e-08
-2.39983e-06
4.79308e-08
-2.41138e-06
4.4199e-08
-2.42173e-06
4.03727e-08
-2.43088e-06
3.64547e-08
-2.43879e-06
3.24477e-08
-2.44545e-06
2.83547e-08
-2.45084e-06
2.41792e-08
-2.45494e-06
1.99262e-08
-2.45776e-06
1.56033e-08
-2.45929e-06
1.12194e-08
-2.45953e-06
6.78719e-09
-2.45849e-06
2.32451e-09
-2.45616e-06
-2.14581e-09
-2.45247e-06
-6.6148e-09
-2.44738e-06
-1.11057e-08
-2.44085e-06
-1.56385e-08
-2.43285e-06
-2.02076e-08
-2.42337e-06
-2.4807e-08
-2.41239e-06
-2.94316e-08
-2.3999e-06
-3.40758e-08
-2.38591e-06
-3.87343e-08
-2.3704e-06
-4.34009e-08
-2.35338e-06
-4.80704e-08
-2.33484e-06
-5.2737e-08
-2.31479e-06
-5.73956e-08
-2.29323e-06
-6.20407e-08
-2.27017e-06
-6.66674e-08
-2.24561e-06
-7.127e-08
-2.21957e-06
-7.58436e-08
-2.19205e-06
-8.03825e-08
-2.16306e-06
-8.48819e-08
-2.13263e-06
-8.93361e-08
-2.10077e-06
-9.37399e-08
-2.0675e-06
-9.80876e-08
-2.03282e-06
-1.02375e-07
-1.99678e-06
-1.06596e-07
-1.95939e-06
-1.10749e-07
-1.92068e-06
-1.14826e-07
-1.88067e-06
-1.18822e-07
-1.83939e-06
-1.2273e-07
-1.79687e-06
-1.26543e-07
-1.75313e-06
-1.30256e-07
-1.70822e-06
-1.33868e-07
-1.66217e-06
-1.37374e-07
-1.61501e-06
-1.40775e-07
-1.56678e-06
-1.44066e-07
-1.51752e-06
-1.47245e-07
-1.46726e-06
-1.50302e-07
-1.41605e-06
-1.53227e-07
-1.36392e-06
-1.56023e-07
-1.31093e-06
-1.58692e-07
-1.25711e-06
-1.61227e-07
-1.20251e-06
-1.63622e-07
-1.14718e-06
-1.65875e-07
-1.09116e-06
-1.67985e-07
-1.03451e-06
-1.69952e-07
-9.77275e-07
-1.71773e-07
-9.19497e-07
-1.7345e-07
-8.61229e-07
-1.7498e-07
-8.02519e-07
-1.76364e-07
-7.43414e-07
-1.77602e-07
-6.83963e-07
-1.78695e-07
-6.24214e-07
-1.79642e-07
-5.64213e-07
-1.80446e-07
-5.04008e-07
-1.8111e-07
-4.43644e-07
-1.81635e-07
-3.83166e-07
-1.82024e-07
-3.22617e-07
-1.82282e-07
-2.62039e-07
-1.82413e-07
-2.01473e-07
-1.82421e-07
-1.40958e-07
-1.82309e-07
-8.05297e-08
-1.82084e-07
-2.0222e-08
-1.81752e-07
3.99324e-08
-1.81314e-07
9.98991e-08
-1.80774e-07
1.59647e-07
-1.80138e-07
2.19143e-07
-1.79415e-07
2.78369e-07
-1.78605e-07
3.37316e-07
-1.77698e-07
3.9596e-07
-1.7669e-07
4.54272e-07
-1.75586e-07
5.12247e-07
-1.74423e-07
5.69864e-07
-1.7324e-07
6.27108e-07
-1.72045e-07
6.83964e-07
-1.70827e-07
7.40411e-07
-1.69559e-07
7.96413e-07
-1.682e-07
8.51916e-07
-1.66675e-07
9.06827e-07
-1.64864e-07
9.60989e-07
-1.62555e-07
1.01414e-06
-1.59365e-07
1.06585e-06
-1.54583e-07
1.11545e-06
-1.46749e-07
1.16202e-06
-1.33159e-07
1.20514e-06
-1.07644e-07
-5.64094e-08
1.24947e-06
-7.27374e-09
-1.33567e-08
-1.88164e-08
2.93107e-10
-3.17344e-08
1.26943e-08
-4.54878e-08
2.35305e-08
-5.99725e-08
3.33656e-08
-7.52292e-08
4.23804e-08
-9.13634e-08
5.06185e-08
-1.08509e-07
5.80915e-08
-1.26777e-07
6.48325e-08
-1.46241e-07
7.09103e-08
-1.66921e-07
7.64226e-08
-1.88812e-07
8.14781e-08
-2.11874e-07
8.61816e-08
-2.36074e-07
9.0623e-08
-2.61369e-07
9.48739e-08
-2.87733e-07
9.89883e-08
-3.15136e-07
1.03007e-07
-3.43563e-07
1.06958e-07
-3.72992e-07
1.10866e-07
-4.03409e-07
1.14748e-07
-4.34783e-07
1.18616e-07
-4.67088e-07
1.22477e-07
-5.00265e-07
1.26331e-07
-5.3425e-07
1.30166e-07
-5.68935e-07
1.33956e-07
-6.0419e-07
1.37653e-07
-6.39863e-07
1.41188e-07
-6.75775e-07
1.44477e-07
-7.11806e-07
1.47423e-07
-7.4784e-07
1.49932e-07
-7.83917e-07
1.51958e-07
-8.19996e-07
1.53565e-07
-8.5581e-07
1.54945e-07
-8.91024e-07
1.56172e-07
-9.25581e-07
1.57183e-07
-9.59439e-07
1.57947e-07
-9.92947e-07
1.58339e-07
-1.02648e-06
1.58281e-07
-1.05985e-06
1.57935e-07
-1.09284e-06
1.57455e-07
-1.12544e-06
1.56829e-07
-1.15789e-06
1.56004e-07
-1.19031e-06
1.55051e-07
-1.22255e-06
1.54118e-07
-1.25451e-06
1.53222e-07
-1.28626e-06
1.52306e-07
-1.31782e-06
1.51366e-07
-1.3492e-06
1.50406e-07
-1.38039e-06
1.49429e-07
-1.4114e-06
1.48434e-07
-1.44222e-06
1.47416e-07
-1.47285e-06
1.46371e-07
-1.50329e-06
1.45292e-07
-1.53352e-06
1.44174e-07
-1.56354e-06
1.4301e-07
-1.59333e-06
1.41795e-07
-1.62288e-06
1.4052e-07
-1.65216e-06
1.3918e-07
-1.68116e-06
1.37767e-07
-1.70986e-06
1.36274e-07
-1.73823e-06
1.34695e-07
-1.76626e-06
1.33022e-07
-1.79391e-06
1.3125e-07
-1.82116e-06
1.29372e-07
-1.84798e-06
1.27382e-07
-1.87434e-06
1.25275e-07
-1.90021e-06
1.23046e-07
-1.92556e-06
1.20691e-07
-1.95036e-06
1.18205e-07
-1.97458e-06
1.15585e-07
-1.99819e-06
1.12829e-07
-2.02115e-06
1.09934e-07
-2.04342e-06
1.06898e-07
-2.06498e-06
1.03719e-07
-2.08578e-06
1.00397e-07
-2.10581e-06
9.69308e-08
-2.12501e-06
9.3321e-08
-2.14337e-06
8.9568e-08
-2.16084e-06
8.56726e-08
-2.17739e-06
8.16362e-08
-2.19298e-06
7.74605e-08
-2.2076e-06
7.31476e-08
-2.2212e-06
6.87e-08
-2.23376e-06
6.41205e-08
-2.24524e-06
5.94121e-08
-2.25562e-06
5.45787e-08
-2.26488e-06
4.9624e-08
-2.27298e-06
4.45526e-08
-2.2799e-06
3.93693e-08
-2.28562e-06
3.40791e-08
-2.29013e-06
2.8688e-08
-2.29341e-06
2.32034e-08
-2.29544e-06
1.76342e-08
-2.29621e-06
1.19907e-08
-2.29571e-06
6.28482e-09
-2.29392e-06
5.2946e-10
-2.2908e-06
-5.2644e-09
-2.28632e-06
-1.10964e-08
-2.28045e-06
-1.69785e-08
-2.27318e-06
-2.29176e-08
-2.26448e-06
-2.89077e-08
-2.25435e-06
-3.4941e-08
-2.24278e-06
-4.10097e-08
-2.22976e-06
-4.71057e-08
-2.21528e-06
-5.32214e-08
-2.19933e-06
-5.93488e-08
-2.18193e-06
-6.54807e-08
-2.16306e-06
-7.16095e-08
-2.14274e-06
-7.77284e-08
-2.12095e-06
-8.383e-08
-2.09772e-06
-8.99078e-08
-2.07304e-06
-9.59542e-08
-2.04692e-06
-1.01963e-07
-2.01938e-06
-1.07926e-07
-1.99043e-06
-1.13838e-07
-1.96007e-06
-1.1969e-07
-1.92834e-06
-1.25476e-07