/*--------------------------------*- C++ -*----------------------------------*\
  =========                 |
  \\      /  F ield         | OpenFOAM: The Open Source CFD Toolbox
   \\    /   O peration     | Website:  https://openfoam.org
    \\  /    A nd           | Version:  8
     \\/     M anipulation  |
\*---------------------------------------------------------------------------*/
FoamFile
{
    version     2.0;
    format      ascii;
    class       volVectorField;
    location    "287";
    object      U;
}
// * * * * * * * * * * * * * * * * * * * * * * * * * * * * * * * * * * * * * //

dimensions      [0 1 -1 0 0 0 0];

internalField   nonuniform List<vector> 
12225
(
(9.85699 -0.886638 0)
(9.6663 -0.740719 0)
(9.4558 -0.429422 0)
(9.22455 -0.222148 0)
(9.00656 -0.106401 0)
(8.81447 -0.0458207 0)
(8.64763 -0.0151312 0)
(8.50547 0.000482955 0)
(8.38388 0.00840897 0)
(8.28118 0.012294 0)
(8.19288 0.0139914 0)
(8.11681 0.0149906 0)
(8.05025 0.015352 0)
(7.99146 0.015501 0)
(7.9386 0.0156252 0)
(7.89281 0.0152566 0)
(7.84 0.018065 0)
(7.83122 0.0101628 0)
(10.0545 0.227708 0)
(10.1213 0.326963 0)
(10.1196 0.26165 0)
(10.0856 0.186589 0)
(10.0435 0.134693 0)
(9.99677 0.101128 0)
(9.94407 0.0792867 0)
(9.88536 0.0645604 0)
(9.82403 0.0542456 0)
(9.76156 0.0466484 0)
(9.70015 0.0408705 0)
(9.64042 0.0363018 0)
(9.58321 0.0326226 0)
(9.52895 0.0297173 0)
(9.4773 0.0271508 0)
(9.42985 0.0260774 0)
(9.38273 0.0225964 0)
(9.34752 0.0310198 0)
(10.0035 0.0581544 0)
(10.0305 0.0559476 0)
(10.056 0.0337721 0)
(10.0704 0.0328832 0)
(10.077 0.0406302 0)
(10.0779 0.0465251 0)
(10.0726 0.0493361 0)
(10.0615 0.0502762 0)
(10.0463 0.0501664 0)
(10.0279 0.0494432 0)
(10.0074 0.0483856 0)
(9.9853 0.0472014 0)
(9.96227 0.0459855 0)
(9.93875 0.0448664 0)
(9.915 0.0437398 0)
(9.89178 0.0431572 0)
(9.86875 0.0420553 0)
(9.84706 0.0433972 0)
(9.99772 0.010948 0)
(10.0111 0.0266165 0)
(10.035 0.0371185 0)
(10.0525 0.0480607 0)
(10.0644 0.0554281 0)
(10.0735 0.0581581 0)
(10.0796 0.0583233 0)
(10.0825 0.057575 0)
(10.0829 0.0565169 0)
(10.0814 0.0553089 0)
(10.0784 0.0540194 0)
(10.0741 0.0527656 0)
(10.0688 0.0515384 0)
(10.0628 0.0504329 0)
(10.0561 0.0493458 0)
(10.0494 0.0486136 0)
(10.0424 0.0476455 0)
(10.0355 0.0474259 0)
(9.99935 0.00709917 0)
(10.009 0.0316912 0)
(10.0275 0.0439027 0)
(10.0418 0.0499017 0)
(10.0528 0.0535882 0)
(10.0629 0.0552077 0)
(10.0717 0.0554808 0)
(10.0784 0.0551824 0)
(10.0836 0.0546274 0)
(10.0875 0.0539081 0)
(10.0903 0.053078 0)
(10.0923 0.0522299 0)
(10.0935 0.0513756 0)
(10.0942 0.0505817 0)
(10.0945 0.0497968 0)
(10.0945 0.0491815 0)
(10.0945 0.0484458 0)
(10.0943 0.0478656 0)
(10.0003 0.00914801 0)
(10.0083 0.0312066 0)
(10.0227 0.0409384 0)
(10.035 0.0453772 0)
(10.0451 0.049015 0)
(10.0548 0.0513418 0)
(10.0638 0.0523133 0)
(10.0715 0.0525348 0)
(10.078 0.052386 0)
(10.0836 0.0520037 0)
(10.0885 0.0514625 0)
(10.0927 0.0508477 0)
(10.0964 0.0501912 0)
(10.0997 0.0495396 0)
(10.1026 0.0488722 0)
(10.1054 0.0482529 0)
(10.108 0.0475415 0)
(10.1107 0.0467364 0)
(10.0004 0.00892218 0)
(10.0071 0.0271063 0)
(10.0191 0.0364079 0)
(10.0302 0.0413761 0)
(10.0396 0.0453891 0)
(10.0487 0.0480437 0)
(10.0573 0.0493004 0)
(10.065 0.0497551 0)
(10.0718 0.0498095 0)
(10.078 0.0496086 0)
(10.0835 0.0492287 0)
(10.0886 0.0487445 0)
(10.0933 0.048196 0)
(10.0976 0.0476153 0)
(10.1017 0.0469954 0)
(10.1056 0.0463522 0)
(10.1093 0.0456065 0)
(10.1131 0.044687 0)
(10.0004 0.007899 0)
(10.006 0.0233821 0)
(10.0161 0.0327275 0)
(10.0263 0.0380847 0)
(10.0352 0.0420675 0)
(10.0436 0.0447379 0)
(10.0518 0.0461338 0)
(10.0593 0.0467493 0)
(10.066 0.0469487 0)
(10.0723 0.0468759 0)
(10.0781 0.0466079 0)
(10.0834 0.0462124 0)
(10.0885 0.0457321 0)
(10.0932 0.0451912 0)
(10.0977 0.044588 0)
(10.1021 0.0439172 0)
(10.1064 0.0431273 0)
(10.1105 0.0421495 0)
(10.0004 0.00694901 0)
(10.005 0.0204184 0)
(10.0137 0.0294411 0)
(10.0229 0.0348399 0)
(10.0312 0.0386783 0)
(10.0392 0.0413256 0)
(10.0469 0.0428402 0)
(10.0541 0.043593 0)
(10.0607 0.0439066 0)
(10.0669 0.0439301 0)
(10.0727 0.043743 0)
(10.0781 0.0434087 0)
(10.0833 0.04297 0)
(10.0882 0.0424477 0)
(10.0928 0.0418427 0)
(10.0974 0.0411437 0)
(10.1018 0.0403139 0)
(10.1061 0.0393073 0)
(10.0004 0.00612155 0)
(10.0043 0.0178472 0)
(10.0116 0.0262588 0)
(10.0199 0.0315552 0)
(10.0277 0.0352668 0)
(10.0352 0.0378771 0)
(10.0425 0.0394697 0)
(10.0494 0.0403234 0)
(10.0558 0.0407216 0)
(10.0618 0.0408161 0)
(10.0675 0.0406876 0)
(10.0729 0.0403961 0)
(10.0781 0.0399826 0)
(10.083 0.0394675 0)
(10.0877 0.0388537 0)
(10.0923 0.0381312 0)
(10.0966 0.0372741 0)
(10.1009 0.03626 0)
(10.0003 0.00536325 0)
(10.0037 0.0155353 0)
(10.0099 0.0232168 0)
(10.0173 0.0283147 0)
(10.0245 0.0318834 0)
(10.0315 0.0344159 0)
(10.0384 0.036032 0)
(10.045 0.036948 0)
(10.0513 0.0374051 0)
(10.0571 0.0375505 0)
(10.0627 0.0374645 0)
(10.068 0.0372032 0)
(10.0731 0.036806 0)
(10.0779 0.0362937 0)
(10.0826 0.035672 0)
(10.0871 0.0349349 0)
(10.0914 0.034066 0)
(10.0956 0.0330612 0)
(10.0003 0.00469871 0)
(10.0032 0.0135936 0)
(10.0086 0.0205674 0)
(10.0152 0.0253989 0)
(10.0219 0.0288007 0)
(10.0286 0.0312264 0)
(10.0351 0.0328222 0)
(10.0414 0.0337633 0)
(10.0474 0.0342528 0)
(10.0531 0.0344283 0)
(10.0586 0.0343685 0)
(10.0638 0.0341264 0)
(10.0688 0.0337395 0)
(10.0735 0.0332295 0)
(10.0781 0.0326044 0)
(10.0825 0.0318633 0)
(10.0867 0.0309968 0)
(10.0907 0.0300147 0)
(10.0003 0.00408395 0)
(10.0028 0.0118235 0)
(10.0075 0.0180655 0)
(10.0134 0.0225545 0)
(10.0197 0.0257551 0)
(10.0259 0.0280488 0)
(10.0321 0.0295918 0)
(10.0381 0.0305312 0)
(10.0439 0.031035 0)
(10.0495 0.0312277 0)
(10.0548 0.0311848 0)
(10.0598 0.0309564 0)
(10.0647 0.0305783 0)
(10.0694 0.0300726 0)
(10.0738 0.0294499 0)
(10.0781 0.0287141 0)
(10.0822 0.0278611 0)
(10.0861 0.0269111 0)
(10.0002 0.00344884 0)
(10.0024 0.00998426 0)
(10.0064 0.0153823 0)
(10.0117 0.0194037 0)
(10.0174 0.0223193 0)
(10.0232 0.0244213 0)
(10.029 0.025861 0)
(10.0348 0.0267612 0)
(10.0403 0.0272548 0)
(10.0457 0.0274485 0)
(10.0508 0.0274123 0)
(10.0557 0.0271925 0)
(10.0604 0.0268225 0)
(10.065 0.0263246 0)
(10.0693 0.0257118 0)
(10.0734 0.0249921 0)
(10.0774 0.0241667 0)
(10.0811 0.0232626 0)
(10.0002 0.00278935 0)
(10.002 0.00807401 0)
(10.0055 0.012528 0)
(10.0101 0.0159521 0)
(10.0153 0.0184807 0)
(10.0206 0.0203157 0)
(10.0261 0.0215882 0)
(10.0314 0.022398 0)
(10.0367 0.0228454 0)
(10.0418 0.0230161 0)
(10.0468 0.022971 0)
(10.0515 0.0227518 0)
(10.0561 0.0223883 0)
(10.0604 0.0219024 0)
(10.0646 0.0213086 0)
(10.0686 0.0206181 0)
(10.0724 0.0198361 0)
(10.076 0.0189929 0)
(10.0002 0.00210485 0)
(10.0017 0.00609487 0)
(10.0047 0.00951134 0)
(10.0088 0.0122048 0)
(10.0134 0.0142275 0)
(10.0183 0.0157032 0)
(10.0233 0.0167302 0)
(10.0283 0.0173842 0)
(10.0333 0.0177363 0)
(10.0382 0.0178501 0)
(10.0429 0.0177739 0)
(10.0475 0.0175426 0)
(10.0518 0.0171817 0)
(10.056 0.016711 0)
(10.06 0.0161452 0)
(10.0639 0.0154968 0)
(10.0675 0.0147731 0)
(10.071 0.0140047 0)
(10.0002 0.00139245 0)
(10.0015 0.00403299 0)
(10.0041 0.00631654 0)
(10.0076 0.00814537 0)
(10.0118 0.00953205 0)
(10.0163 0.0105406 0)
(10.0209 0.0112315 0)
(10.0256 0.0116535 0)
(10.0303 0.0118513 0)
(10.0349 0.0118659 0)
(10.0394 0.0117306 0)
(10.0438 0.0114706 0)
(10.048 0.0111055 0)
(10.052 0.0106511 0)
(10.0558 0.0101202 0)
(10.0595 0.00952434 0)
(10.063 0.0088707 0)
(10.0663 0.00818764 0)
(10.0001 0.000635858 0)
(10.0013 0.00183682 0)
(10.0036 0.00287181 0)
(10.0068 0.00369442 0)
(10.0107 0.00430441 0)
(10.0148 0.00472406 0)
(10.0192 0.00497619 0)
(10.0236 0.00508068 0)
(10.0281 0.00505693 0)
(10.0325 0.00492333 0)
(10.0368 0.00469567 0)
(10.0409 0.00438687 0)
(10.0449 0.00400787 0)
(10.0488 0.00356827 0)
(10.0525 0.00307663 0)
(10.056 0.00254133 0)
(10.0593 0.00196745 0)
(10.0625 0.0013787 0)
(10.0001 -0.000207905 0)
(10.0012 -0.000615241 0)
(10.0034 -0.000995594 0)
(10.0065 -0.00133985 0)
(10.0102 -0.00164793 0)
(10.0143 -0.0019339 0)
(10.0185 -0.00221552 0)
(10.0228 -0.00250488 0)
(10.0271 -0.00280912 0)
(10.0313 -0.00313368 0)
(10.0355 -0.00348255 0)
(10.0395 -0.00385783 0)
(10.0434 -0.00425975 0)
(10.0471 -0.00468728 0)
(10.0507 -0.00513846 0)
(10.0541 -0.00561022 0)
(10.0573 -0.00610114 0)
(10.0603 -0.00659437 0)
(10.0001 -0.00101482 0)
(10.0013 -0.0029673 0)
(10.0037 -0.00471195 0)
(10.007 -0.00616816 0)
(10.0108 -0.00733319 0)
(10.015 -0.00826684 0)
(10.0193 -0.00903043 0)
(10.0237 -0.00966583 0)
(10.028 -0.0102072 0)
(10.0323 -0.0106858 0)
(10.0364 -0.0111262 0)
(10.0404 -0.0115447 0)
(10.0442 -0.0119521 0)
(10.0479 -0.0123557 0)
(10.0514 -0.0127599 0)
(10.0547 -0.013167 0)
(10.0579 -0.013579 0)
(10.0609 -0.0139852 0)
(10.0002 -0.00171054 0)
(10.0015 -0.00502114 0)
(10.0041 -0.00795962 0)
(10.0078 -0.0103223 0)
(10.012 -0.0121309 0)
(10.0164 -0.0135356 0)
(10.021 -0.0146424 0)
(10.0255 -0.0155081 0)
(10.03 -0.0161896 0)
(10.0343 -0.016745 0)
(10.0385 -0.0172187 0)
(10.0425 -0.017639 0)
(10.0464 -0.0180249 0)
(10.0501 -0.0183898 0)
(10.0535 -0.0187428 0)
(10.0569 -0.0190892 0)
(10.06 -0.0194332 0)
(10.063 -0.0197679 0)
(10.0002 -0.00237112 0)
(10.0016 -0.00705042 0)
(10.0047 -0.0112053 0)
(10.009 -0.0143851 0)
(10.0137 -0.0166911 0)
(10.0185 -0.0184341 0)
(10.0233 -0.019774 0)
(10.0281 -0.0207816 0)
(10.0328 -0.0215381 0)
(10.0373 -0.0221245 0)
(10.0416 -0.0225971 0)
(10.0456 -0.0229923 0)
(10.0495 -0.0233364 0)
(10.0532 -0.0236488 0)
(10.0567 -0.0239422 0)
(10.06 -0.0242245 0)
(10.0631 -0.0245008 0)
(10.0661 -0.0247669 0)
(10.0002 -0.00298894 0)
(10.0018 -0.00910601 0)
(10.0054 -0.0144746 0)
(10.0105 -0.018373 0)
(10.0159 -0.021125 0)
(10.0211 -0.0231549 0)
(10.0263 -0.0246179 0)
(10.0314 -0.025639 0)
(10.0362 -0.0263723 0)
(10.0409 -0.0269276 0)
(10.0452 -0.0273613 0)
(10.0494 -0.0277086 0)
(10.0533 -0.027999 0)
(10.057 -0.0282546 0)
(10.0605 -0.0284894 0)
(10.0638 -0.0287119 0)
(10.067 -0.0289274 0)
(10.0699 -0.0291335 0)
(10.0001 -0.00353201 0)
(10.0018 -0.011561 0)
(10.0062 -0.01791 0)
(10.0123 -0.0220146 0)
(10.0183 -0.0250873 0)
(10.024 -0.0275026 0)
(10.0296 -0.0291465 0)
(10.035 -0.0301622 0)
(10.0401 -0.0308199 0)
(10.0448 -0.0312842 0)
(10.0493 -0.0316227 0)
(10.0536 -0.0318758 0)
(10.0575 -0.0320773 0)
(10.0613 -0.0322507 0)
(10.0648 -0.0324098 0)
(10.0681 -0.0325615 0)
(10.0712 -0.0327097 0)
(10.0741 -0.0328506 0)
(9.99991 -0.00337531 0)
(10.0016 -0.0149914 0)
(10.0073 -0.0227501 0)
(10.0142 -0.0262638 0)
(10.0206 -0.0288534 0)
(10.0268 -0.0312229 0)
(10.0331 -0.0329485 0)
(10.039 -0.034041 0)
(10.0444 -0.034745 0)
(10.0494 -0.0352126 0)
(10.054 -0.0355141 0)
(10.0583 -0.0357036 0)
(10.0622 -0.0358271 0)
(10.0659 -0.0359154 0)
(10.0693 -0.0359866 0)
(10.0725 -0.0360505 0)
(10.0754 -0.036112 0)
(10.0781 -0.0361694 0)
(9.99859 -0.000382156 0)
(9.99903 -0.0158008 0)
(10.0076 -0.027445 0)
(10.0166 -0.032505 0)
(10.0238 -0.0348844 0)
(10.0306 -0.0362439 0)
(10.0376 -0.0369996 0)
(10.0441 -0.0374706 0)
(10.0498 -0.037823 0)
(10.0549 -0.0380734 0)
(10.0595 -0.0382212 0)
(10.0635 -0.0382914 0)
(10.0671 -0.038314 0)
(10.0702 -0.0383102 0)
(10.073 -0.038295 0)
(10.0754 -0.038277 0)
(10.0775 -0.0382599 0)
(10.0794 -0.0382417 0)
(9.99487 0.00140543 0)
(9.99287 -0.00812581 0)
(10.006 -0.0203364 0)
(10.0202 -0.0322716 0)
(10.0306 -0.0404813 0)
(10.0392 -0.0441582 0)
(10.0467 -0.0450749 0)
(10.0529 -0.0449348 0)
(10.0577 -0.0444716 0)
(10.0616 -0.0438784 0)
(10.0645 -0.0432363 0)
(10.0667 -0.0426015 0)
(10.0681 -0.0420084 0)
(10.069 -0.0414656 0)
(10.0693 -0.0409815 0)
(10.0691 -0.0405542 0)
(10.0687 -0.0401803 0)
(10.0679 -0.0398334 0)
(9.9947 -0.0305775 0)
(9.99943 -0.0228515 0)
(10.0146 -0.00262316 0)
(10.0304 -0.00190611 0)
(10.0434 -0.0116603 0)
(10.0533 -0.0209285 0)
(10.0594 -0.0272896 0)
(10.0618 -0.0315193 0)
(10.0615 -0.0342965 0)
(10.059 -0.0359949 0)
(10.055 -0.0369285 0)
(10.0497 -0.0373634 0)
(10.0434 -0.0374897 0)
(10.0364 -0.0374281 0)
(10.0288 -0.0372671 0)
(10.0209 -0.0370647 0)
(10.0127 -0.0368841 0)
(10.0045 -0.0366927 0)
(10.0274 -0.183007 0)
(10.0766 -0.288325 0)
(10.0871 -0.247823 0)
(10.0777 -0.186561 0)
(10.0663 -0.140326 0)
(10.0537 -0.108247 0)
(10.0365 -0.0859001 0)
(10.0145 -0.0704421 0)
(9.98933 -0.0596713 0)
(9.96228 -0.0518952 0)
(9.9343 -0.0460726 0)
(9.90597 -0.0415747 0)
(9.87778 -0.0380182 0)
(9.85006 -0.0351415 0)
(9.82306 -0.032778 0)
(9.79688 -0.0308537 0)
(9.77177 -0.0293342 0)
(9.74777 -0.0285171 0)
(9.93575 0.689541 0)
(9.86827 0.609594 0)
(9.76457 0.380605 0)
(9.62661 0.21741 0)
(9.48586 0.11924 0)
(9.35716 0.0631578 0)
(9.24263 0.0315453 0)
(9.14103 0.0135935 0)
(9.05135 0.0032397 0)
(8.97236 -0.00282102 0)
(8.90244 -0.00637438 0)
(8.84025 -0.00849265 0)
(8.78453 -0.00973912 0)
(8.73441 -0.010497 0)
(8.68897 -0.0109777 0)
(8.64761 -0.0112537 0)
(8.60941 -0.0114777 0)
(8.57405 -0.0121159 0)
(0.0046366 -0.0107428 -8.32145e-19)
(0.0162332 -0.0173948 7.35052e-19)
(0.0265359 -0.0152949 0)
(0.0332313 -0.00933533 0)
(0.035408 -0.00234626 0)
(0.0327961 0.0040138 -3.89124e-19)
(0.0264706 0.00892662 0)
(0.017288 0.0123041 0)
(0.00596785 0.0144409 0)
(-0.00694675 0.0157294 0)
(-0.0211098 0.0165556 2.37901e-19)
(-0.0363334 0.0171883 0)
(-0.0525077 0.0177711 0)
(-0.0695723 0.018361 0)
(-0.0874888 0.0189766 0)
(-0.106229 0.0196188 1.27325e-19)
(-0.125765 0.0202885 0)
(-0.146068 0.0209844 0)
(-0.167108 0.0217109 0)
(-0.188856 0.0224646 0)
(-0.211281 0.0232429 0)
(-0.234356 0.0240222 0)
(-0.258051 0.0247738 0)
(-0.282335 0.0254405 7.63428e-20)
(-0.307201 0.0259687 -7.3948e-20)
(-0.332641 0.0263212 7.20493e-20)
(-0.358734 0.0265421 7.05591e-20)
(-0.385594 0.0267047 0)
(-0.413329 0.0269647 0)
(-0.441836 0.0277919 -6.69477e-20)
(-0.470846 0.0243415 -6.46805e-20)
(-0.500171 0.0158842 0)
(-0.527631 0.0169691 0)
(-0.554969 0.0285856 -5.65948e-20)
(-0.586323 0.04212 0)
(-0.620534 0.0695786 0)
(-0.660049 0.0638884 7.26119e-20)
(-0.702514 0.0242501 0)
(-0.737823 0.0244021 7.34548e-20)
(-0.776186 0.0314138 1.40844e-19)
(-0.817896 0.0417937 0)
(-0.85996 0.0409828 0)
(-0.90111 0.0262351 0)
(-0.93852 0.0254331 0)
(-0.97567 0.0339736 0)
(-1.01655 0.0347827 1.15005e-19)
(-1.05711 0.0348628 1.11738e-19)
(-1.09779 0.0347306 1.0863e-19)
(-1.13851 0.0345778 0)
(-1.17924 0.0343544 -1.02932e-19)
(-1.21993 0.0340878 0)
(-1.26053 0.0337798 9.7887e-20)
(-1.30101 0.0334488 9.55816e-20)
(-1.34133 0.0330988 0)
(-1.38148 0.0327371 0)
(-1.42144 0.0323645 0)
(-1.4612 0.0319836 8.7554e-20)
(-1.50073 0.0315935 0)
(-1.54001 0.0311948 0)
(-1.57905 0.0307856 0)
(-1.6178 0.0303656 0)
(-1.65626 0.029933 0)
(-1.69439 0.029487 0)
(-1.73218 0.0290257 0)
(-1.7696 0.0285483 0)
(-1.80661 0.0280534 -7.42835e-20)
(-1.8432 0.0275402 0)
(-1.87931 0.0270077 0)
(-1.91493 0.0264552 7.08042e-20)
(-1.95002 0.0258822 6.97158e-20)
(-1.98454 0.025288 0)
(-2.01846 0.0246725 -6.76284e-20)
(-2.05173 0.0240353 6.66241e-20)
(-2.08431 0.0233764 0)
(-2.11617 0.0226958 -6.46814e-20)
(-2.14727 0.0219938 0)
(-2.17757 0.0212706 0)
(-2.20702 0.0205268 6.18989e-20)
(-2.23559 0.0197627 0)
(-2.26323 0.0189788 -6.01071e-20)
(-2.2899 0.0181755 0)
(-2.31557 0.0173535 5.83479e-20)
(-2.34019 0.016513 5.7476e-20)
(-2.36372 0.0156545 5.66069e-20)
(-2.38613 0.0147782 1.11478e-19)
(-2.40737 0.013884 -1.09742e-19)
(-2.4274 0.0129714 0)
(-2.44619 0.012039 0)
(-2.46369 0.0110846 0)
(-2.47986 0.0101034 -1.02727e-19)
(-2.49466 0.00908945 -1.00942e-19)
(-2.50804 0.00803547 9.91404e-20)
(-2.51994 0.00693241 0)
(-2.53029 0.00577014 -9.54778e-20)
(-2.53903 0.00454319 -9.36143e-20)
(-2.54608 0.00326652 -9.17296e-20)
(-2.55136 0.00199391 0)
(-2.55474 0.000816703 0)
(-2.55614 -0.000188251 0)
(-2.55612 -0.00107957 -8.3846e-20)
(-2.55457 -0.00194614 0)
(-2.55155 -0.00280022 0)
(-2.54705 -0.0036493 7.74226e-20)
(-2.54105 -0.00449383 0)
(-2.53356 -0.00533375 0)
(-2.52456 -0.00616847 7.05057e-20)
(-2.51405 -0.00699716 0)
(-2.50202 -0.00781948 0)
(-2.48846 -0.00863452 -6.30284e-20)
(-2.47338 -0.00944212 -6.03993e-20)
(-2.45678 -0.0102412 0)
(-2.43866 -0.0110318 5.49202e-20)
(-2.41902 -0.0118127 0)
(-2.39787 -0.012584 -4.91276e-20)
(-2.37521 -0.0133445 0)
(-2.35105 -0.0140943 -4.29978e-20)
(-2.3254 -0.0148322 -3.97985e-20)
(-2.29828 -0.0155584 0)
(-2.2697 -0.0162719 0)
(-2.23967 -0.0169733 0)
(-2.20821 -0.0176618 0)
(-2.17534 -0.0183374 0)
(-2.14109 -0.0189984 0)
(-2.10546 -0.0196447 0)
(-2.06849 -0.0202749 -1.04906e-20)
(-2.0302 -0.0208904 6.29823e-21)
(-1.99062 -0.0214906 0)
(-1.94977 -0.0220772 0)
(-1.90768 -0.022648 0)
(-1.86439 -0.0232036 0)
(-1.81991 -0.0237431 -3.36155e-20)
(-1.77429 -0.0242664 0)
(-1.72758 -0.0247735 5.43704e-20)
(-1.67979 -0.0252681 -6.53001e-20)
(-1.63096 -0.0257462 0)
(-1.58115 -0.0262079 0)
(-1.53038 -0.0266539 0)
(-1.4787 -0.0270847 1.13186e-19)
(-1.42615 -0.0275005 1.26324e-19)
(-1.37278 -0.0279022 0)
(-1.31863 -0.0282897 1.54199e-19)
(-1.26374 -0.0286636 1.69003e-19)
(-1.20817 -0.0290244 -1.84436e-19)
(-1.15195 -0.0293722 0)
(-1.09513 -0.0297077 0)
(-1.03775 -0.0300311 -2.34953e-19)
(-0.979866 -0.0303434 0)
(-0.92151 -0.0306448 0)
(-0.862732 -0.0309366 0)
(-0.803574 -0.0312191 0)
(-0.744079 -0.0314938 3.36622e-19)
(-0.684288 -0.0317613 3.60238e-19)
(-0.624242 -0.0320233 0)
(-0.563979 -0.0322803 4.11537e-19)
(-0.503538 -0.0325342 0)
(-0.442955 -0.0327856 0)
(-0.382265 -0.0330357 5.00675e-19)
(-0.321504 -0.0332844 0)
(-0.260706 -0.0335347 5.70252e-19)
(-0.199906 -0.0337946 0)
(-0.139135 -0.0340788 0)
(-0.0784348 -0.034357 6.94799e-19)
(-0.0178578 -0.0344298 0)
(0.042529 -0.0339073 7.39933e-19)
(0.102789 -0.0329772 0)
(0.162866 -0.0320476 0)
(0.222718 -0.0311725 0)
(0.282342 -0.0303471 -6.71253e-19)
(0.341743 -0.0295635 0)
(0.40092 -0.0288123 6.43965e-19)
(0.459855 -0.0280833 0)
(0.51851 -0.0273629 0)
(0.576816 -0.0266314 0)
(0.63463 -0.0258569 0)
(0.691749 -0.0249804 0)
(0.747546 -0.0238901 0)
(0.801714 -0.0223117 0)
(0.849355 -0.0195963 -1.13611e-18)
(0.896301 -0.0141693 0)
(0.889442 0.00309437 0)
(0.00480502 -0.0329058 1.94165e-18)
(0.0108277 -0.0335443 -1.10705e-18)
(0.0111549 -0.021274 0)
(0.00846673 -0.00784211 3.48698e-19)
(0.00333039 0.00491603 0)
(-0.0039271 0.0161206 1.36471e-19)
(-0.0133045 0.02532 -2.50008e-19)
(-0.0247091 0.0325033 -2.3111e-19)
(-0.0380142 0.0379622 0)
(-0.053023 0.0421191 -1.97929e-19)
(-0.0695086 0.0453928 -9.16129e-20)
(-0.0872888 0.0481108 0)
(-0.106232 0.0504906 0)
(-0.126246 0.0526545 0)
(-0.147264 0.0546661 0)
(-0.169249 0.0565529 -6.45692e-20)
(-0.192176 0.0583277 0)
(-0.216035 0.0599944 1.1537e-19)
(-0.240826 0.0615575 0)
(-0.266558 0.0630193 0)
(-0.293252 0.0643872 -1.00946e-19)
(-0.320938 0.0656682 0)
(-0.34966 0.0668791 9.46167e-20)
(-0.379469 0.0680433 -4.62328e-20)
(-0.410432 0.0692066 4.53177e-20)
(-0.442602 0.0704446 -4.46386e-20)
(-0.476056 0.0718261 -4.42028e-20)
(-0.510796 0.0733916 0)
(-0.546734 0.0751456 0)
(-0.583465 0.0769779 4.38167e-20)
(-0.621504 0.0783795 -4.31607e-20)
(-0.661391 0.0792062 0)
(-0.702741 0.0802253 0)
(-0.745631 0.0811091 4.07819e-20)
(-0.788404 0.0817357 0)
(-0.82896 0.0829928 0)
(-0.868745 0.0852484 -4.19431e-20)
(-0.909216 0.087102 0)
(-0.951606 0.0886547 3.91494e-20)
(-0.99205 0.0895524 -7.47652e-20)
(-1.03021 0.0902248 0)
(-1.06797 0.0904579 0)
(-1.10733 0.0898616 -1.3357e-19)
(-1.14772 0.0895354 -1.30191e-19)
(-1.18757 0.0895801 -1.2694e-19)
(-1.22584 0.0893061 6.18984e-20)
(-1.2636 0.088749 -6.08135e-20)
(-1.30094 0.088009 -1.78385e-19)
(-1.33788 0.0871415 1.16438e-19)
(-1.37447 0.0861856 5.72247e-20)
(-1.41074 0.0851671 0)
(-1.4467 0.084103 -5.51138e-20)
(-1.48236 0.0830079 5.3847e-20)
(-1.51772 0.0818888 0)
(-1.55278 0.0807517 0)
(-1.58753 0.0795974 0)
(-1.62196 0.0784273 -5.05906e-20)
(-1.65606 0.0772394 0)
(-1.68981 0.0760326 9.77597e-20)
(-1.72321 0.0748037 0)
(-1.75623 0.0735508 9.48294e-20)
(-1.78885 0.0722708 0)
(-1.82105 0.0709614 -9.20782e-20)
(-1.8528 0.0696198 0)
(-1.8841 0.0682439 8.94777e-20)
(-1.9149 0.0668315 -4.39867e-20)
(-1.94519 0.0653811 0)
(-1.97493 0.0638912 -8.58053e-20)
(-2.00409 0.0623606 -4.24342e-20)
(-2.03265 0.0607887 -4.18544e-20)
(-2.06058 0.0591747 0)
(-2.08784 0.0575186 -4.05017e-20)
(-2.11441 0.0558203 -4.01643e-20)
(-2.14025 0.05408 0)
(-2.16533 0.0522984 3.90676e-20)
(-2.18962 0.0504762 -7.68609e-20)
(-2.21308 0.0486145 0)
(-2.23568 0.0467145 -3.74476e-20)
(-2.2574 0.0447776 0)
(-2.2782 0.0428052 1.08965e-19)
(-2.29804 0.0407989 0)
(-2.31689 0.0387603 -1.05752e-19)
(-2.33473 0.036691 -3.47538e-20)
(-2.35153 0.0345927 3.40927e-20)
(-2.36724 0.032467 6.71079e-20)
(-2.38185 0.0303154 -6.60215e-20)
(-2.39532 0.0281397 0)
(-2.40762 0.0259409 0)
(-2.41873 0.0237198 0)
(-2.42862 0.0214755 1.8487e-19)
(-2.43727 0.0192068 6.04794e-20)
(-2.44466 0.0169127 -5.92864e-20)
(-2.45078 0.0145922 0)
(-2.45562 0.0122422 -5.6852e-20)
(-2.4592 0.00985563 5.55974e-20)
(-2.46156 0.00743071 5.43305e-20)
(-2.46276 0.00499236 0)
(-2.4629 0.00261307 0)
(-2.46208 0.000380283 0)
(-2.45989 -0.00173607 4.89821e-20)
(-2.45631 -0.00381024 0)
(-2.45129 -0.00585501 -9.24902e-20)
(-2.44481 -0.00787863 -1.34295e-19)
(-2.43686 -0.00988156 8.66677e-20)
(-2.42744 -0.0118627 0)
(-2.41653 -0.0138201 4.04703e-20)
(-2.40413 -0.0157517 0)
(-2.39023 -0.0176558 7.43745e-20)
(-2.37482 -0.0195304 -3.57755e-20)
(-2.35792 -0.0213741 -3.41527e-20)
(-2.3395 -0.0231849 0)
(-2.31959 -0.0249615 -9.15095e-20)
(-2.29818 -0.026702 5.77118e-20)
(-2.27528 -0.0284052 2.68364e-20)
(-2.25088 -0.0300692 0)
(-2.22501 -0.031693 2.32046e-20)
(-2.19767 -0.0332746 6.46307e-20)
(-2.16888 -0.0348128 0)
(-2.13864 -0.0363063 3.57015e-20)
(-2.10696 -0.0377548 3.1813e-20)
(-2.07388 -0.0391575 2.7861e-20)
(-2.03941 -0.0405136 0)
(-2.00357 -0.0418205 0)
(-1.96637 -0.0430769 0)
(-1.92785 -0.0442804 -6.10613e-21)
(-1.88802 -0.0454317 -3.16163e-21)
(-1.84691 -0.0465299 0)
(-1.80455 -0.0475767 1.59405e-21)
(-1.76097 -0.0485712 6.05895e-21)
(-1.7162 -0.0495152 0)
(-1.67026 -0.050408 1.61046e-20)
(-1.6232 -0.051246 3.96819e-20)
(-1.57504 -0.0520234 -2.5526e-20)
(-1.52583 -0.0527471 -2.83782e-20)
(-1.4756 -0.0534206 0)
(-1.42439 -0.0540413 0)
(-1.37224 -0.0546058 0)
(-1.31919 -0.0551165 -5.01968e-20)
(-1.26529 -0.055574 5.32122e-20)
(-1.21056 -0.0559796 1.18891e-19)
(-1.15508 -0.056334 -6.57693e-20)
(-1.09886 -0.0566383 6.88996e-20)
(-1.04197 -0.0568935 7.64703e-20)
(-0.984446 -0.0571006 0)
(-0.926328 -0.0572609 0)
(-0.867664 -0.0573755 -9.07298e-20)
(-0.808498 -0.0574457 0)
(-0.748875 -0.0574733 0)
(-0.688837 -0.0574601 2.17888e-19)
(-0.62843 -0.0574078 0)
(-0.567696 -0.0573187 1.19481e-19)
(-0.506675 -0.0571948 -1.27774e-19)
(-0.445409 -0.0570384 0)
(-0.383936 -0.0568519 1.37505e-19)
(-0.322295 -0.0566372 0)
(-0.260522 -0.0563968 0)
(-0.198652 -0.0561321 -1.58476e-19)
(-0.136719 -0.055844 3.27227e-19)
(-0.0747564 -0.0555329 -1.71188e-19)
(-0.0127941 -0.0551998 0)
(0.0491495 -0.0548429 0)
(0.111054 -0.0544595 1.79694e-19)
(0.172911 -0.0540022 0)
(0.234651 -0.0533444 1.83319e-19)
(0.296192 -0.0525213 0)
(0.357534 -0.0516756 0)
(0.418701 -0.0508502 0)
(0.479689 -0.0500498 1.92458e-19)
(0.540492 -0.0492681 0)
(0.601099 -0.0484956 -1.95393e-19)
(0.661489 -0.0477175 0)
(0.721618 -0.0469132 0)
(0.781413 -0.0460478 3.96487e-19)
(0.840739 -0.0450629 -3.98722e-19)
(0.899384 -0.0438445 0)
(0.956836 -0.042181 0)
(1.01269 -0.0395367 0)
(1.06399 -0.0349241 1.22779e-18)
(1.11387 -0.0249705 0)
(1.14049 -0.000954552 -8.52692e-19)
(0.000355503 -0.0416518 -8.01407e-22)
(-0.00173684 -0.0288985 1.07684e-18)
(-0.00774276 -0.0101881 0)
(-0.0157495 0.00715421 -4.40881e-19)
(-0.0252585 0.0228002 0)
(-0.035962 0.0366685 0)
(-0.0478485 0.0486671 4.75306e-23)
(-0.0610105 0.0587887 1.36586e-19)
(-0.0755296 0.0671815 1.28517e-19)
(-0.0914284 0.074121 1.21518e-19)
(-0.10867 0.0799322 0)
(-0.127184 0.0849182 0)
(-0.146892 0.0893245 -1.03593e-19)
(-0.167722 0.093327 -1.97066e-19)
(-0.18962 0.0970438 1.87814e-19)
(-0.212545 0.10055 0)
(-0.236478 0.103894 1.71808e-19)
(-0.261407 0.107113 -8.25411e-20)
(-0.287336 0.110235 0)
(-0.314272 0.11329 1.53482e-19)
(-0.342233 0.116311 7.44301e-20)
(-0.37124 0.119331 -1.44656e-19)
(-0.401315 0.12239 -7.0639e-20)
(-0.432476 0.125525 0)
(-0.464735 0.128772 1.35805e-19)
(-0.49808 0.132152 1.33753e-19)
(-0.532451 0.135663 0)
(-0.567694 0.139216 1.29966e-19)
(-0.603619 0.142609 0)
(-0.639998 0.145534 1.25469e-19)
(-0.676924 0.147534 6.14422e-20)
(-0.714479 0.14865 0)
(-0.752492 0.150021 0)
(-0.79052 0.152057 0)
(-0.827722 0.154136 0)
(-0.863813 0.156395 0)
(-0.899012 0.1571 0)
(-0.934212 0.155884 1.05864e-19)
(-0.969699 0.154791 -1.53599e-19)
(-1.00482 0.153929 0)
(-1.03901 0.152652 0)
(-1.07253 0.150256 0)
(-1.1064 0.147207 -1.18559e-23)
(-1.14074 0.144862 8.90505e-20)
(-1.17476 0.143137 1.74203e-19)
(-1.20812 0.14135 -1.7058e-19)
(-1.24112 0.139544 -8.35221e-20)
(-1.27384 0.137731 8.20153e-20)
(-1.30631 0.13591 -1.32319e-22)
(-1.33856 0.134075 7.88664e-20)
(-1.37059 0.132224 0)
(-1.40241 0.130358 7.61017e-20)
(-1.43402 0.128477 -1.51197e-22)
(-1.46544 0.126581 0)
(-1.49664 0.12467 0)
(-1.52763 0.122741 -7.11955e-20)
(-1.55838 0.120791 0)
(-1.58889 0.118815 0)
(-1.61915 0.116811 6.77863e-20)
(-1.64912 0.114772 1.33853e-19)
(-1.67881 0.112696 -6.60943e-20)
(-1.70818 0.110578 0)
(-1.73721 0.108414 6.41899e-20)
(-1.76588 0.1062 0)
(-1.79417 0.103933 6.20694e-20)
(-1.82205 0.10161 6.14915e-20)
(-1.84949 0.0992296 -1.2096e-19)
(-1.87646 0.0967893 -5.94886e-20)
(-1.90295 0.0942879 0)
(-1.9289 0.0917244 1.15952e-19)
(-1.95431 0.0890984 0)
(-1.97913 0.0864098 1.69212e-19)
(-2.00334 0.0836589 1.1113e-19)
(-2.02689 0.0808464 1.0955e-19)
(-2.04977 0.0779734 -1.07981e-19)
(-2.07193 0.0750413 1.5974e-19)
(-2.09335 0.0720519 0)
(-2.114 0.0690071 0)
(-2.13383 0.0659093 -1.01753e-19)
(-2.15282 0.0627607 -1.50387e-19)
(-2.17093 0.059564 0)
(-2.18813 0.056322 4.86152e-20)
(-2.2044 0.0530373 0)
(-2.21969 0.0497128 -1.40944e-19)
(-2.23399 0.0463516 -1.17703e-22)
(-2.24726 0.0429565 1.0397e-22)
(-2.25946 0.0395307 8.90985e-20)
(-2.27059 0.0360773 0)
(-2.2806 0.0325991 -8.58066e-20)
(-2.28947 0.0290987 -4.59296e-23)
(-2.2972 0.0255792 0)
(-2.30375 0.0220453 0)
(-2.30913 0.0185042 0)
(-2.31331 0.0149657 7.72093e-20)
(-2.31631 0.0114434 0)
(-2.31813 0.00795627 0)
(-2.31875 0.00452709 0)
(-2.31815 0.00116509 0)
(-2.31627 -0.00215998 0)
(-2.31304 -0.00546929 6.59889e-20)
(-2.30845 -0.00875345 0)
(-2.30246 -0.0120089 6.18412e-20)
(-2.29506 -0.0152334 5.97827e-20)
(-2.28624 -0.018424 -5.76955e-20)
(-2.27599 -0.0215774 0)
(-2.2643 -0.0246899 -5.34336e-20)
(-2.25115 -0.0277582 0)
(-2.23655 -0.0307789 -4.90536e-20)
(-2.22049 -0.0337493 4.6819e-20)
(-2.20297 -0.0366662 1.34233e-19)
(-2.18399 -0.0395272 0)
(-2.16355 -0.0423293 1.20444e-19)
(-2.14165 -0.04507 3.82501e-20)
(-2.11831 -0.0477468 0)
(-2.09351 -0.0503574 6.6308e-20)
(-2.06728 -0.0528992 6.14583e-20)
(-2.03961 -0.0553699 -8.44309e-20)
(-2.01053 -0.0577672 0)
(-1.98005 -0.0600893 -2.28584e-20)
(-1.94817 -0.062335 -2.03073e-20)
(-1.91492 -0.064503 -5.41009e-20)
(-1.88031 -0.0665913 0)
(-1.84437 -0.0685973 0)
(-1.80711 -0.0705179 0)
(-1.76855 -0.0723513 -8.18997e-21)
(-1.72873 -0.0740963 0)
(-1.68765 -0.0757527 0)
(-1.64536 -0.0773213 -9.91162e-22)
(-1.60188 -0.0788027 -3.75399e-21)
(-1.55724 -0.0801974 0)
(-1.51146 -0.0815048 0)
(-1.46459 -0.0827208 -2.43149e-20)
(-1.41665 -0.083841 0)
(-1.36768 -0.0848701 3.56985e-20)
(-1.31772 -0.0858111 4.01974e-20)
(-1.2668 -0.0866626 0)
(-1.21496 -0.0874218 0)
(-1.16225 -0.08809 -5.75272e-20)
(-1.1087 -0.0886688 -1.30157e-21)
(-1.05436 -0.0891597 -1.31527e-21)
(-0.999266 -0.0895642 0)
(-0.94347 -0.0898838 -1.63271e-19)
(-0.887012 -0.09012 0)
(-0.829936 -0.0902746 0)
(-0.772284 -0.0903492 0)
(-0.714101 -0.090346 1.06041e-19)
(-0.655431 -0.090267 0)
(-0.596316 -0.090115 -2.33134e-19)
(-0.536801 -0.0898925 -1.23925e-19)
(-0.476928 -0.0896025 0)
(-0.416738 -0.0892482 -1.35856e-19)
(-0.356273 -0.0888328 0)
(-0.295572 -0.0883596 0)
(-0.234674 -0.0878324 -4.58323e-19)
(-0.173616 -0.0872538 3.16474e-19)
(-0.112433 -0.0866271 0)
(-0.0511591 -0.0859551 3.40139e-19)
(0.0101758 -0.0852428 -1.76531e-19)
(0.0715419 -0.0844925 0)
(0.132906 -0.0837044 0)
(0.194237 -0.0828752 0)
(0.255511 -0.082008 -5.66623e-19)
(0.316717 -0.0811016 0)
(0.377845 -0.0801575 -1.95741e-19)
(0.438863 -0.0791809 0)
(0.499755 -0.0781897 0)
(0.560514 -0.0772056 0)
(0.621122 -0.0762322 0)
(0.681565 -0.0752633 0)
(0.741828 -0.0742874 0)
(0.801885 -0.0732853 -4.27279e-19)
(0.861693 -0.0722267 0)
(0.921181 -0.0710604 -2.19295e-19)
(0.980223 -0.0696986 6.62228e-19)
(1.03863 -0.0679793 0)
(1.09598 -0.0655986 0)
(1.15197 -0.0619078 -4.53683e-19)
(1.20467 -0.0556576 -4.60531e-19)
(1.25708 -0.0438391 4.65912e-19)
(1.29693 -0.0189406 4.80029e-19)
(-0.00464081 -0.0339296 -2.98498e-18)
(-0.0124426 -0.0120869 -1.29653e-18)
(-0.0224127 0.0100384 -4.70101e-19)
(-0.0339954 0.029483 -1.67563e-19)
(-0.0465768 0.0468663 0)
(-0.0598249 0.062433 2.42612e-19)
(-0.0737834 0.0762499 -1.1089e-19)
(-0.0885874 0.0883605 0)
(-0.10436 0.0988725 -9.78105e-20)
(-0.121186 0.107972 0)
(-0.139111 0.115897 1.7718e-19)
(-0.158137 0.122891 0)
(-0.178245 0.129178 8.10225e-20)
(-0.199401 0.134937 1.55319e-19)
(-0.221572 0.140305 -1.49113e-19)
(-0.244729 0.145381 0)
(-0.268848 0.150237 -1.38169e-19)
(-0.293913 0.154927 0)
(-0.319907 0.159493 0)
(-0.346818 0.163972 -1.25099e-19)
(-0.37463 0.168396 0)
(-0.403319 0.17279 2.77761e-23)
(-0.432851 0.177172 0)
(-0.463174 0.181544 0)
(-0.494217 0.185883 -4.33812e-23)
(-0.525877 0.19013 -1.08455e-19)
(-0.558024 0.194176 -1.06228e-19)
(-0.590493 0.197874 -1.04088e-19)
(-0.62313 0.201034 0)
(-0.655818 0.203462 -1.98233e-19)
(-0.688544 0.205042 0)
(-0.721321 0.205914 -9.36101e-20)
(-0.754073 0.206572 0)
(-0.786549 0.207197 0)
(-0.818534 0.207645 8.68851e-20)
(-0.849959 0.20781 0)
(-0.880897 0.207289 -8.30956e-20)
(-0.911602 0.205905 -1.46877e-23)
(-0.942253 0.204134 1.57994e-19)
(-0.972745 0.202224 -1.5406e-19)
(-1.00291 0.200087 0)
(-1.03285 0.197538 0)
(-1.06281 0.194708 -7.17388e-20)
(-1.09279 0.191995 0)
(-1.12261 0.189458 -6.8763e-20)
(-1.15221 0.186945 6.73742e-20)
(-1.18166 0.184446 6.60603e-20)
(-1.21097 0.181965 0)
(-1.24016 0.1795 -6.36245e-20)
(-1.26923 0.177046 -6.24881e-20)
(-1.29817 0.174595 1.22694e-19)
(-1.32698 0.17214 -6.03527e-20)
(-1.35567 0.169677 -5.93463e-20)
(-1.38421 0.167199 0)
(-1.41262 0.164701 0)