/*--------------------------------*- C++ -*----------------------------------*\
| =========                 |                                                 |
| \\      /  F ield         | OpenFOAM: The Open Source CFD Toolbox           |
|  \\    /   O peration     | Version:  2312                                  |
|   \\  /    A nd           | Website:  www.openfoam.com                      |
|    \\/     M anipulation  |                                                 |
\*---------------------------------------------------------------------------*/
FoamFile
{
    version     2.0;
    format      ascii;
    arch        "LSB;label=64;scalar=64";
    class       volScalarField;
    location    "170";
    object      p;
}
// * * * * * * * * * * * * * * * * * * * * * * * * * * * * * * * * * * * * * //

dimensions      [0 2 -2 0 0 0 0];

internalField   nonuniform List<scalar> 
404911
(
0.0519797
0.0519881
0.0520267
0.0520069
0.0519356
0.0519683
0.0519974
0.0520065
0.0520062
0.0520065
0.0525197
0.0521858
0.0520462
0.0520251
0.0520103
0.0520074
0.052679
0.0524952
0.0522785
0.0521745
0.0529581
0.0527964
0.0525378
0.0533881
0.0531662
0.0527862
0.0537675
0.0536092
0.0534864
0.0542501
0.0541092
0.0539442
0.0537325
0.0536743
0.0543314
0.0542388
0.0540469
0.0548927
0.054703
0.0545124
0.0543206
0.0550693
0.0549861
0.0548655
0.0547165
0.0544653
0.0551791
0.0550916
0.054968
0.05488
0.0554365
0.0553307
0.0551687
0.0550974
0.0554604
0.0554455
0.0576564
0.0517314
0.0517448
0.0517481
0.0523035
0.052065
0.0526754
0.0524844
0.0523052
0.0530023
0.0527816
0.0525485
0.053433
0.0530913
0.0537711
0.053495
0.0534754
0.0540983
0.0539179
0.0536263
0.0535328
0.0542906
0.0541895
0.0547675
0.0545201
0.0550059
0.0548118
0.0547837
0.0552199
0.0551204
0.0555185
0.055278
0.055136
0.0555166
0.0555162
0.0575039
0.0576055
0.057483
0.058112
0.0578855
0.0577689
0.0584065
0.058199
0.0579611
0.0586801
0.0586269
0.0584447
0.0586454
0.0211022
0.0208854
0.0206879
0.0222727
0.0220698
0.0215919
0.0215395
0.0212476
0.0210439
0.0208837
0.0205709
0.0229385
0.0226911
0.0221328
0.0218067
0.0215368
0.0213782
0.0211502
0.0209711
0.019988
0.023699
0.0234516
0.0232722
0.0230536
0.0228663
0.0227197
0.0223641
0.0219806
0.0216688
0.021498
0.0213094
0.0210632
0.0206251
0.0201362
0.0200242
0.0199446
0.0243068
0.0240321
0.0237872
0.0235404
0.0233281
0.0231336
0.0229497
0.0227679
0.0225214
0.0222129
0.0219369
0.0216502
0.0214664
0.0212083
0.0199879
0.0250855
0.0247235
0.0244251
0.0241011
0.0238116
0.0236011
0.0233905
0.0231928
0.0230028
0.0228252
0.0225591
0.0223021
0.0220889
0.0218329
0.0216883
0.0255292
0.0252979
0.0249014
0.024579
0.0242743
0.0239239
0.0236946
0.0234485
0.0232637
0.023107
0.0229007
0.0227012
0.0224357
0.0221997
0.0219762
0.0218382
0.0264216
0.0260416
0.0256675
0.025404
0.0249734
0.0247592
0.0244508
0.0240138
0.0237625
0.0235283
0.0233681
0.0231857
0.0229853
0.0227728
0.0225402
0.0223096
0.0221079
0.0275298
0.0272188
0.0269345
0.0265723
0.0262012
0.0258649
0.0255838
0.0252391
0.0249369
0.0245946
0.0241314
0.0238958
0.0236654
0.0234914
0.0233065
0.0230777
0.0228772
0.0226622
0.0281079
0.027823
0.0274014
0.0270865
0.0267404
0.0263788
0.0260876
0.0257342
0.0254093
0.0250626
0.02474
0.0243307
0.0239967
0.0237985
0.0236247
0.0233979
0.0232113
0.0229909
0.0288683
0.0286056
0.0283354
0.0280307
0.0276507
0.0272926
0.0269507
0.026582
0.0262499
0.0259002
0.0255768
0.025244
0.0249151
0.0245256
0.0241638
0.023924
0.0237566
0.0235605
0.0293569
0.0290863
0.0287943
0.0285331
0.0282211
0.0278592
0.0275244
0.0271652
0.0268008
0.026475
0.0261214
0.0257835
0.0254084
0.0250744
0.0248116
0.0244034
0.0240171
0.0300326
0.0297846
0.0294637
0.0292556
0.0290048
0.0287159
0.0283933
0.0280662
0.0277307
0.0273672
0.0270127
0.0266563
0.0263142
0.0259827
0.0255969
0.0252416
0.0249966
0.030691
0.0304102
0.0301426
0.0300284
0.0297686
0.0294983
0.0292015
0.0289332
0.0286254
0.0283138
0.0279706
0.0275606
0.0271813
0.0268159
0.0265304
0.0261526
0.0257731
0.0254613
0.0316029
0.0313253
0.030895
0.0305629
0.0302959
0.0302076
0.0299478
0.0296839
0.0293895
0.0291324
0.028897
0.0285421
0.0281509
0.0277497
0.0273372
0.0269393
0.0267139
0.0264534
0.032157
0.0319893
0.0318094
0.031645
0.0312165
0.030786
0.0304991
0.0303777
0.0301952
0.0299108
0.0295641
0.0293152
0.0291527
0.0287889
0.0283146
0.0278936
0.0275371
0.0271422
0.0325051
0.0322962
0.032113
0.0319394
0.0317705
0.0314979
0.0310801
0.0307697
0.0305258
0.0303479
0.0300143
0.0296636
0.029463
0.0293311
0.028995
0.0284707
0.0280243
0.0276818
0.0330969
0.0328673
0.032572
0.0324065
0.0322269
0.0320028
0.0318298
0.0315925
0.0313309
0.0310258
0.0307447
0.0305432
0.0301941
0.0298169
0.0295676
0.0294412
0.0291464
0.0286675
0.0335184
0.0332361
0.0330072
0.0327646
0.0325271
0.0323206
0.0321064
0.0318795
0.031654
0.0314927
0.0313084
0.0310058
0.0307224
0.0304001
0.0300144
0.0297373
0.0295656
0.029346
0.034475
0.0342076
0.0337488
0.0333954
0.033198
0.0329447
0.0327026
0.032455
0.0322482
0.0319725
0.0317227
0.0315954
0.031457
0.0312909
0.0310278
0.0306862
0.0302663
0.0299178
0.0349113
0.0347125
0.034515
0.0341197
0.033728
0.0334556
0.0332152
0.0329829
0.0326715
0.0324396
0.0320804
0.0318636
0.0317098
0.0315579
0.0313776
0.0311666
0.0308483
0.0354119
0.035215
0.0350232
0.0348627
0.0347129
0.0343425
0.0340233
0.0336963
0.0334483
0.0331294
0.0328382
0.0326178
0.0322851
0.0320274
0.031868
0.0316881
0.0315017
0.0312764
0.0357728
0.0355569
0.0353678
0.0351584
0.0349915
0.0348193
0.0345512
0.034258
0.0339865
0.0337456
0.0334499
0.0331027
0.0327738
0.0324495
0.0321857
0.0319997
0.0318183
0.0316227
0.0360987
0.0359161
0.035722
0.0355284
0.0352909
0.0350648
0.0349025
0.0346756
0.034422
0.03421
0.034005
0.0337313
0.0333172
0.0329849
0.0326503
0.0324765
0.0321802
0.031998
0.0366431
0.0364284
0.0362432
0.0360659
0.0358867
0.0357271
0.0354547
0.0352129
0.0349836
0.0347279
0.0344884
0.0343311
0.0341505
0.0339557
0.0335843
0.0331987
0.0328745
0.0325912
0.0371425
0.0369601
0.0367793
0.0365865
0.0364099
0.0362221
0.0360328
0.0358497
0.0356488
0.0353853
0.0351129
0.0348552
0.0345722
0.03442
0.034236
0.0340256
0.0336916
0.0334144
0.0374915
0.0372803
0.0370993
0.0369186
0.0367318
0.0365684
0.0364139
0.0362107
0.036013
0.035771
0.0355171
0.0352554
0.0350262
0.0347409
0.0345447
0.0343592
0.0341601
0.0338688
0.038
0.0378023
0.0376145
0.0374234
0.0372183
0.0370479
0.0368815
0.0367261
0.0365958
0.0364466
0.0362035
0.0359345
0.0356683
0.0354501
0.0352037
0.0349064
0.0345887
0.034521
0.0383217
0.038129
0.0379346
0.0377453
0.0375409
0.0373482
0.0371765
0.0370125
0.0368625
0.0367346
0.036624
0.0363919
0.0361354
0.0358482
0.0355711
0.0354039
0.0351305
0.0348764
0.038683
0.0384611
0.0382369
0.0380456
0.0378614
0.0376498
0.0374532
0.0372924
0.037137
0.0369852
0.0368392
0.0366847
0.0364907
0.0362504
0.0359896
0.0357522
0.0355317
0.0352708
0.0391098
0.038866
0.0386076
0.0383466
0.0382015
0.038014
0.0377844
0.0375299
0.0373935
0.0372524
0.0371025
0.0369455
0.0367728
0.0365719
0.0363483
0.0361239
0.0358829
0.0356994
0.0395823
0.0394469
0.0393088
0.0390964
0.0388299
0.0385752
0.0383986
0.0382146
0.0379751
0.0376687
0.037517
0.0373797
0.037229
0.0370617
0.0368811
0.0366841
0.0364815
0.0362233
0.0399742
0.0397553
0.0395684
0.0394128
0.0392098
0.0389642
0.0387554
0.0385994
0.0384714
0.0382416
0.0379028
0.0376766
0.0375319
0.0373751
0.0371899
0.0370134
0.0368286
0.0366305
0.0403372
0.0401315
0.039918
0.0397229
0.0394841
0.0392503
0.0390412
0.0388736
0.038724
0.0385923
0.0384011
0.0381394
0.0378889
0.0377004
0.0375223
0.0373516
0.0371851
0.0370085
0.0406496
0.0404737
0.0402855
0.0400623
0.0398927
0.0396413
0.0393822
0.0390876
0.0389639
0.0388236
0.0386783
0.0385067
0.0382879
0.0380791
0.0378668
0.0376702
0.0374917
0.0412774
0.0410302
0.0408264
0.0406321
0.0404168
0.0402136
0.0400626
0.0398085
0.0395168
0.0392168
0.0390685
0.0389339
0.0387893
0.038619
0.0384227
0.0382219
0.0380198
0.0378122
0.0416425
0.0414312
0.0412186
0.0410095
0.0407747
0.040538
0.0403126
0.0401495
0.0399692
0.0397273
0.039443
0.0391563
0.0390566
0.0389125
0.0387487
0.038568
0.0383711
0.0381955
0.0419559
0.0417825
0.0415942
0.0413967
0.0412089
0.0409794
0.0407557
0.0404399
0.0402669
0.0401293
0.0399187
0.0395935
0.039349
0.0392068
0.0390566
0.0389017
0.0387423
0.0385605
0.0424675
0.0422681
0.0421039
0.0419372
0.0417674
0.0416067
0.0414645
0.0411821
0.0409563
0.0406561
0.0403994
0.0402546
0.0401026
0.0398559
0.0395832
0.0393867
0.0392167
0.0390478
0.042764
0.0425857
0.0424301
0.0422619
0.0420989
0.0419395
0.0417927
0.0416739
0.0414532
0.0411811
0.0408601
0.0406003
0.0403448
0.0402554
0.040073
0.0398022
0.039577
0.0393591
0.0431147
0.0429173
0.0427406
0.0425774
0.0424086
0.0422522
0.0420975
0.0419513
0.0418263
0.0416777
0.0413333
0.0411069
0.0407547
0.0405119
0.0403781
0.0402067
0.0399911
0.0397873
0.0433991
0.0432627
0.0430769
0.0428994
0.0427288
0.0425599
0.0424049
0.042251
0.0420805
0.0419167
0.0417698
0.0415818
0.0412989
0.0409751
0.0407268
0.0405377
0.0403727
0.0401627
0.0437897
0.0436156
0.0434084
0.0432304
0.0430398
0.0428699
0.0427097
0.0425679
0.0424247
0.042235
0.0420353
0.0418366
0.041665
0.0414725
0.0411719
0.0409426
0.0407247
0.0442964
0.0440995
0.043934
0.0437421
0.0435363
0.043363
0.0431714
0.0430004
0.0428508
0.0427229
0.042616
0.0424378
0.0422572
0.0419672
0.0417882
0.0416107
0.0413792
0.041159
0.0445916
0.04442
0.0442586
0.0440879
0.0439048
0.0437155
0.0435089
0.0432857
0.0431027
0.0429755
0.0428642
0.0427748
0.0427193
0.0424423
0.0421845
0.0419325
0.0417573
0.0415608
0.0449318
0.0447497
0.0445767
0.0444162
0.0442339
0.0440731
0.0439182
0.0437135
0.0435106
0.0432295
0.0430882
0.0429924
0.0428891
0.0427804
0.0426032
0.042352
0.0421235
0.0419268
0.0452467
0.04507
0.0449039
0.044724
0.0445554
0.0443782
0.0442277
0.0440991
0.0439806
0.0438167
0.0434631
0.0432543
0.0431365
0.0430109
0.0428724
0.0426902
0.042497
0.0422951
0.0456189
0.0453992
0.0452172
0.0450449
0.0448596
0.0446785
0.0445041
0.0443533
0.0442184
0.0440974
0.0439166
0.0436843
0.0434628
0.0433021
0.0431487
0.0429835
0.0428144
0.0426184
0.0459867
0.0457695
0.0455582
0.0453635
0.045173
0.0449812
0.0447918
0.044611
0.0444527
0.0443138
0.0441772
0.0440184
0.0438313
0.043636
0.043462
0.0432919
0.0431258
0.0429403
0.0463901
0.04615
0.0459012
0.0456879
0.0454823
0.0452912
0.0450998
0.0448944
0.0447014
0.0445353
0.0444082
0.0442755
0.0441334
0.0439645
0.043788
0.0436201
0.0434449
0.043249
0.0467476
0.0465603
0.0463542
0.0460651
0.0457783
0.0455854
0.045404
0.0452394
0.0450443
0.0447869
0.0445882
0.0444973
0.0443933
0.0442634
0.0441067
0.0439364
0.0437653
0.0436175
0.0472763
0.0471076
0.0469276
0.0467772
0.0466088
0.0462594
0.0459626
0.0457751
0.0455221
0.0453912
0.0451507
0.0450115
0.0447558
0.0446305
0.044532
0.0444073
0.0442522
0.0440969
0.0439223
0.0475938
0.0474512
0.0472941
0.0471238
0.0469728
0.046863
0.0466302
0.0463698
0.0460189
0.0457284
0.0455906
0.0454136
0.0452286
0.0449898
0.0448256
0.0447042
0.044562
0.044411
0.0477579
0.0475986
0.0474426
0.0472762
0.0471385
0.0470217
0.0468773
0.0466362
0.0463264
0.046074
0.0457724
0.0455873
0.0454728
0.0452702
0.0450438
0.0448741
0.0447205
0.0482531
0.0480901
0.0479329
0.0477606
0.0475926
0.047425
0.0472768
0.0471569
0.0470383
0.0467797
0.0465594
0.0462589
0.046002
0.045783
0.0456131
0.0454422
0.0452502
0.0450581
0.0486072
0.0484041
0.0482586
0.0480934
0.0479191
0.0477448
0.0475642
0.0473931
0.0472657
0.0471705
0.0469748
0.0467368
0.0464426
0.0461648
0.0459829
0.0457986
0.0456172
0.0454044
0.0488305
0.0487289
0.0485762
0.0484123
0.0482515
0.0480904
0.0479262
0.0477206
0.0475011
0.0473351
0.0472752
0.0471309
0.046925
0.0466436
0.0463734
0.0461687
0.0459881
0.045818
0.0490122
0.0488607
0.0487128
0.0485603
0.0484082
0.0482592
0.0481257
0.047945
0.0476931
0.0474499
0.047366
0.0472768
0.0470774
0.0468085
0.0465841
0.04637
0.046184
0.0494324
0.0491608
0.0489693
0.0488571
0.0487154
0.0485581
0.0484086
0.0482908
0.0481425
0.0479248
0.0476315
0.0474755
0.0473668
0.0471873
0.046975
0.0467703
0.0465669
0.0503956
0.0500716
0.0497264
0.0493975
0.049197
0.0490381
0.0488822
0.0486959
0.0485262
0.0484057
0.0483135
0.0480947
0.0478032
0.0476328
0.0474904
0.0473245
0.0471232
0.0469243
0.0507653
0.0505636
0.0502933
0.0499595
0.0495942
0.0493968
0.049237
0.0490806
0.0488856
0.0487149
0.0485019
0.0484364
0.0482382
0.0479865
0.047797
0.0476217
0.0474812
0.0510602
0.0509031
0.0506696
0.0504142
0.0501206
0.049777
0.0495339
0.0494067
0.0492792
0.0490433
0.0488924
0.0486908
0.0485383
0.0484102
0.0481777
0.0479622
0.0477781
0.0516201
0.0514149
0.0512389
0.0510587
0.0508075
0.0505802
0.0502977
0.0499565
0.0497395
0.0495691
0.0494101
0.0492911
0.0490786
0.0488671
0.0486938
0.0485358
0.0483385
0.0481387
0.0519769
0.0517664
0.0515487
0.0513983
0.051229
0.0510533
0.0508417
0.0505493
0.0502393
0.0500697
0.0497602
0.0496119
0.0494063
0.0492013
0.0490395
0.04887
0.0487044
0.0485219
0.0523725
0.0521186
0.0519671
0.0517073
0.0516061
0.0514641
0.0514478
0.0512934
0.0510194
0.0505709
0.0502874
0.0500761
0.0498582
0.0495911
0.0493143
0.0491632
0.0490284
0.048867
0.0528686
0.052626
0.0523529
0.0521299
0.0519617
0.0518176
0.0517418
0.0515667
0.0514123
0.0513196
0.0509365
0.0506261
0.0504011
0.0501463
0.0498712
0.0495747
0.0493763
0.0492208
0.0534666
0.0532688
0.0530538
0.0528117
0.0525853
0.0523694
0.0522166
0.0521072
0.0521153
0.0518314
0.0516073
0.0513996
0.0511603
0.0508956
0.0506718
0.0504714
0.0501568
0.049836
0.0496075
0.053779
0.0536109
0.0534381
0.0532533
0.0530339
0.0527957
0.0526026
0.0524264
0.0523531
0.0520685
0.0518709
0.0516774
0.0514923
0.051307
0.0510736
0.0508359
0.0506471
0.0503741
0.050114
0.0539094
0.0537664
0.0535746
0.0534038
0.0532013
0.0530032
0.0527149
0.0525215
0.0523672
0.0521351
0.0519574
0.0517796
0.0516086
0.0514184
0.0511969
0.0509913
0.0507831
0.0505787
0.0543663
0.0541612
0.0539561
0.0537533
0.0535799
0.0534652
0.0532403
0.0529516
0.0526552
0.0524571
0.0522385
0.0520674
0.0519168
0.0517394
0.0515424
0.0513407
0.0511289
0.0547835
0.0545707
0.054369
0.0541514
0.0539408
0.0537493
0.0534445
0.0534508
0.0531234
0.0528572
0.0525956
0.052398
0.0522296
0.0520711
0.0518884
0.0516998
0.0514643
0.0552344
0.0549857
0.0547658
0.0545453
0.0543126
0.054041
0.0538462
0.0536078
0.0535059
0.053332
0.0530253
0.0527825
0.0525884
0.052412
0.0522354
0.0520516
0.0518506
0.0558052
0.0556139
0.0554194
0.0551641
0.0549352
0.0546843
0.0544053
0.0542089
0.0540657
0.05389
0.053696
0.0534827
0.0531973
0.052964
0.0527726
0.0525899
0.0524035
0.0522425
0.0562523
0.056037
0.0557913
0.0555843
0.0553301
0.0550681
0.0549093
0.0548322
0.0544268
0.0542567
0.0540687
0.0538899
0.053678
0.0533809
0.0531564
0.052956
0.0527648
0.0566655
0.056451
0.0562125
0.0559725
0.0556912
0.0554091
0.0550869
0.0549141
0.0547951
0.0546254
0.0544357
0.0542412
0.054064
0.0538576
0.0536099
0.0533655
0.0531586
0.0570547
0.0568547
0.0566622
0.0564057
0.0560895
0.055714
0.0555067
0.0553608
0.0551134
0.0549773
0.0548113
0.0546229
0.0544026
0.0542105
0.0540092
0.0537872
0.0535711
0.0575235
0.0572783
0.0570419
0.0568166
0.0565184
0.0561761
0.055855
0.0556851
0.055408
0.0552896
0.0551679
0.0549951
0.0548061
0.0546078
0.0543872
0.0541957
0.0539711
0.0579019
0.0577325
0.0574952
0.0572437
0.0569974
0.0567093
0.0563174
0.0556548
0.0557432
0.0556711
0.0555648
0.0553804
0.0551783
0.0549847
0.0547793
0.0545652
0.0543653
0.0582835
0.0580801
0.0579045
0.0577382
0.0574804
0.0573292
0.0570623
0.0566146
0.0563007
0.0560728
0.0559151
0.0557813
0.0556024
0.0553683
0.0551734
0.0549707
0.0547482
0.0584523
0.058245
0.0580672
0.0578503
0.0576649
0.0574507
0.0573127
0.0569794
0.0566039
0.0563296
0.0561335
0.0559556
0.0557606
0.055551
0.0553785
0.055151
0.0591445
0.0587833
0.0584685
0.0582873
0.0580931
0.0579
0.0577695
0.0574016
0.0571162
0.0568223
0.0565348
0.0563014
0.0561333
0.0559262
0.0557257
0.0600176
0.0598106
0.0594756
0.0591119
0.058721
0.0585375
0.0582911
0.0580105
0.0578605
0.0575515
0.0572472
0.0569681
0.0567631
0.0565221
0.0563142
0.0561197
0.0604277
0.0602416
0.060049
0.0597382
0.0593891
0.0589519
0.0585838
0.0586331
0.058257
0.0580517
0.0577681
0.0574382
0.0570545
0.0568955
0.0567059
0.0565041
0.0608999
0.0606927
0.060481
0.0601955
0.0598908
0.0595724
0.0592006
0.0590401
0.0587411
0.0584967
0.0582812
0.058028
0.0576723
0.0573272
0.0570857
0.0569007
0.0615752
0.0613408
0.0611142
0.0609034
0.0607503
0.0604476
0.0601452
0.0598909
0.0596424
0.0593868
0.0590956
0.0587437
0.0584476
0.0582247
0.0579571
0.0576474
0.0619475
0.0617157
0.0615438
0.061364
0.0611364
0.0609459
0.0606386
0.0603401
0.0600786
0.0599008
0.0596325
0.0593483
0.0590074
0.0587067
0.0584952
0.0582521
0.0624291
0.0621397
0.0618779
0.0616974
0.0615364
0.061309
0.061119
0.060876
0.0605606
0.0603643
0.0601898
0.0599954
0.0597201
0.0593401
0.0590009
0.0586919
0.0629833
0.062634
0.0622565
0.0620119
0.0618425
0.0616858
0.0614889
0.0612105
0.0609925
0.0607629
0.0605889
0.0604459
0.0602724
0.0600483
0.0596558
0.0592999
0.0635631
0.0631582
0.0628617
0.0625545
0.0622351
0.0620595
0.0618512
0.0616611
0.061351
0.0611454
0.0609323
0.0607309
0.0606424
0.0604984
0.060249
0.0599817
0.064077
0.06381
0.0634867
0.0631912
0.0628967
0.0626455
0.0623533
0.062098
0.0619065
0.061564
0.0612932
0.0611243
0.0609857
0.0607887
0.0606251
0.0645724
0.0643712
0.0640872
0.0637809
0.0634364
0.0631479
0.0629081
0.0626694
0.0624027
0.0621421
0.0618666
0.0615043
0.0612867
0.0611516
0.061
0.0607874
0.0649856
0.0647834
0.0645974
0.0643977
0.0640513
0.0636921
0.0634143
0.0631327
0.0629468
0.062678
0.0624293
0.0621865
0.0618244
0.061553
0.0613838
0.0612109
0.0653633
0.0651945
0.0649812
0.0647747
0.0645404
0.0642365
0.0639622
0.0637056
0.0634281
0.0631925
0.0629524
0.0627212
0.0625104
0.0621834
0.0618531
0.0656423
0.0653698
0.0652019
0.0650255
0.0647688
0.0644511
0.0641704
0.063952
0.0637142
0.0634773
0.063181
0.0629719
0.0627047
0.0624416
0.066512
0.0660599
0.0657195
0.0655091
0.06525
0.0649776
0.0646759
0.0644445
0.0641895
0.0639837
0.0637408
0.0634292
0.0631958
0.0671738
0.0669845
0.0666912
0.0663989
0.0660886
0.0657821
0.0654958
0.0652382
0.0649593
0.064697
0.06442
0.0641587
0.0639372
0.0636277
0.0675683
0.0673359
0.0671589
0.0669108
0.0666633
0.0663184
0.0660676
0.0657188
0.0654474
0.0651812
0.064887
0.0646281
0.0643898
0.0641552
0.0680248
0.0677842
0.0675349
0.0672737
0.0671158
0.0668625
0.0665878
0.0662767
0.0659897
0.0657317
0.0653806
0.0651023
0.064862
0.0646474
0.0684086
0.0682432
0.068005
0.0677621
0.0675404
0.0672792
0.0670954
0.0668239
0.0665081
0.0662134
0.0659711
0.0656179
0.0653565
0.065123
0.0687948
0.0686102
0.068443
0.0682652
0.0680825
0.0678941
0.0675593
0.0673034
0.0670114
0.0666891
0.0664088
0.0661846
0.0659132
0.0656152
0.0691356
0.0689286
0.0687569
0.0686605
0.068517
0.068233
0.0680483
0.0678587
0.0676064
0.0672704
0.066859
0.0665951
0.0663916
0.0688555
0.0687908
0.0685873
0.0682494
0.0681064
0.0678958
0.0675266
0.0670416
0.0667649
0.0690651
0.0690123
0.0688144
0.0685053
0.0683023
0.0681255
0.0678435
0.0674199
0.0695022
0.0692616
0.0692075
0.0691433
0.0688491
0.0685035
0.0682997
0.0702273
0.0699303
0.0695537
0.0693994
0.0692997
0.0690601
0.0687535
0.0702488
0.0699773
0.0697109
0.069505
0.0693015
0.0712074
0.0708126
0.0702733
0.0702797
0.0699959
0.0697656
0.0734133
0.0732048
0.0720611
0.0715991
0.0703759
0.0734517
0.0731649
0.0729153
0.0726449
0.0724577
0.0707957
0.0738163
0.0727773
0.0724137
0.0722804
0.0718586
0.0740357
0.0733782
0.0728239
0.00550699
0.00529238
0.00515312
0.00720685
0.00684114
0.00651528
0.00624362
0.00592389
0.00561455
0.00533283
0.00517631
0.00385427
0.00862398
0.00831415
0.0079153
0.00763075
0.00728727
0.00694579
0.00663953
0.00632551
0.00600104
0.00568735
0.00534243
0.00510545
0.00479593
0.00437133
0.00406334
0.00970061
0.00937288
0.0090871
0.0087291
0.00843053
0.00803113
0.00770357
0.00739858
0.00706382
0.00673348
0.00640849
0.00603188
0.0057074
0.00538293
0.00507272
0.0047986
0.0044489
0.0040593
0.0038161
0.00330822
0.0027685
0.002448
0.0108552
0.0105894
0.0102014
0.00985326
0.00947292
0.00916127
0.00884406
0.00848507
0.00813373
0.00778925
0.00747625
0.00716616
0.00684588
0.00652818
0.00615523
0.00581325
0.0053499
0.0050968
0.00482626
0.00448732
0.00415725
0.00378052
0.00334479
0.0121537
0.0117636
0.0114818
0.0110642
0.0107349
0.0102864
0.00991788
0.00957265
0.00927474
0.00894929
0.00857849
0.00820348
0.00784007
0.00753855
0.0071933
0.00696884
0.00670685
0.00641551
0.00578462
0.00538571
0.00511145
0.0048648
0.00454066
0.00423436
0.00387838
0.0129535
0.0125287
0.012308
0.0119732
0.011632
0.0111359
0.0108357
0.0103684
0.00997269
0.00964972
0.00938747
0.00907793
0.00873017
0.0082422
0.00784655
0.00757879
0.00729561
0.00706439
0.0068234
0.0064614
0.00584726
0.00546086
0.00519299
0.00492519
0.00460809
0.0140601
0.0135523
0.0130454
0.0127738
0.0124411
0.0120657
0.0117865
0.0115566
0.0111404
0.0105707
0.0100679
0.00972857
0.00951172
0.00922783
0.00902928
0.00838833
0.00785983
0.00761732
0.00735883
0.00711082
0.00684094
0.00654956
0.00599253
0.00559566
0.00529466
0.0151299
0.014718
0.0142225
0.0136626
0.0132187
0.0129538
0.0126364
0.012303
0.0119055
0.0117249
0.0114011
0.010863
0.0103001
0.00985114
0.0096304
0.00942233
0.00921712
0.0086112
0.00793981
0.00766156
0.00742042
0.00713249
0.00685267
0.00650392
0.00610424
0.0168589
0.0164553
0.0158271
0.0153659
0.0148419
0.014297
0.0138224
0.0134162
0.0131207
0.0128315
0.0124227
0.0120619
0.0118689
0.0116353
0.0111822
0.0106839
0.0101408
0.00972373
0.00947305
0.00927318
0.00873482
0.00809398
0.00775598
0.00749977
0.0071965
0.00685628
0.0178583
0.0175628
0.0172776
0.0169845
0.0166052
0.0160625
0.0155511
0.0149778
0.0144191
0.0140777
0.0136619
0.0132892
0.0128801
0.0124746
0.0121712
0.011949
0.0117028
0.0113707
0.0109653
0.0103845
0.00992302
0.00957719
0.00914974
0.00866213
0.0083052
0.00786523
0.00759423
0.018276
0.0180073
0.0177044
0.0174272
0.0170699
0.0166872
0.0162104
0.0157347
0.0152601
0.0147595
0.0143102
0.0138466
0.0134173
0.0129751
0.0125242
0.0122949
0.0120576
0.0117947
0.0114929
0.011178
0.0107632
0.0101688
0.009783
0.0092921
0.00873201
0.0200212
0.0196465
0.0191444
0.0186409
0.0182559
0.0178292
0.0175798
0.0172616
0.0167459
0.0163399
0.0159082
0.0154458
0.0149864
0.0144677
0.0140328
0.0136153
0.0130996
0.0126366
0.0124123
0.0121822
0.0119134
0.0116659
0.0114007
0.011041
0.0105249
0.020546
0.0201497
0.0198442
0.0194474
0.0189628
0.0184257
0.0180791
0.0177864
0.017364
0.0169603
0.0164699
0.0161041
0.0156583
0.0151971
0.0146371
0.0141964
0.0137194
0.0132401
0.0128045
0.0125292
0.0123002
0.0120715
0.0118284
0.0115649
0.0216259
0.0214656
0.0211605
0.0207612
0.0203162
0.0200468
0.0197402
0.0192932
0.0188656
0.0183498
0.0180131
0.0176193
0.0171967
0.0168627
0.0163708
0.0158834
0.0153859
0.0148709
0.0143777
0.0138763
0.0133878
0.0129726
0.0126918
0.0124354
0.0121689
0.0222863
0.0219884
0.0217502
0.0215768
0.021385
0.0209144
0.0206157
0.0203569
0.0200497
0.019709
0.0191571
0.0186753
0.0183064
0.0178718
0.0174716
0.0170755
0.0166441
0.0161576
0.01566
0.0151871
0.0146258
0.0139768
0.0134181
0.0131254
0.0127726
0.0228797
0.0226347
0.0223976
0.0221295
0.0218613
0.0216333
0.0214317
0.0211201
0.0208764
0.0206592
0.0203895
0.0199938
0.0194508
0.0190333
0.0184887
0.0181259
0.0177396
0.01738
0.0169231
0.0164597
0.0160018
0.0154731
0.0149455
0.0142832
0.013625
0.0237048
0.0234581
0.0232438
0.0230181
0.0227896
0.022569
0.0222538
0.0220119
0.0216784
0.0214893
0.0212546
0.0210438
0.0208462
0.0205508
0.0202341
0.0197597
0.01927
0.0187832
0.0184478
0.0180089
0.0176247
0.0171815
0.0167027
0.0162435
0.0157681
0.0152645
0.0243757
0.024185
0.0238648
0.023607
0.0233804
0.0231371
0.0229269
0.0227047
0.0224472
0.0221464
0.0218351
0.0215682
0.0213701
0.021166
0.0209899
0.0206616
0.0202173
0.019952
0.0195566
0.019174
0.0188067
0.0183035
0.0178797
0.0174163
0.0169831
0.0165175
0.0252202
0.0248532
0.0245065
0.0242525
0.0239927
0.0236969
0.0234457
0.0232413
0.0230431
0.0228458
0.0225348
0.0222437
0.0220378
0.0217123
0.0215006
0.0212913
0.0210318
0.0206574
0.0202011
0.0199718
0.0197541
0.0192781
0.0190281
0.0187318
0.0181949
0.0177084
0.0172674
0.0258373
0.0256102
0.0253049
0.0249797
0.0246417
0.0243229
0.0240349
0.0237776
0.0235409
0.0233337
0.0231356
0.0229426
0.0227424
0.0224088
0.0221031
0.021888
0.02166
0.0214585
0.0211616
0.020699
0.0202201
0.0199527
0.0196939
0.0193925
0.0191461
0.0189285
0.0186292
0.0263613
0.0260313
0.0257374
0.0254379
0.025097
0.0247342
0.024411
0.0241063
0.0238219
0.0235899
0.0233932
0.0232062
0.0230172
0.0228145
0.0225737
0.0223019
0.0220582
0.02185
0.0216716
0.0214504
0.0209251
0.0203861
0.0200307
0.0197885
0.0195041
0.0192302
0.0272232
0.0268257
0.0265062
0.0261857
0.0258623
0.0255655
0.0251632
0.0249086
0.0246098
0.0242622
0.0239718
0.0236818
0.0234421
0.023276
0.023094
0.0228902
0.022665
0.0224237
0.0221928
0.0219882
0.0218485
0.0215393
0.0209965
0.0205348
0.0201996
0.0199118
0.0279767
0.0276611
0.0273651
0.0270421
0.0266956
0.0263655
0.0260531
0.0256542
0.0253441
0.0250487
0.0246836
0.0243554
0.0239931
0.0237949
0.023539
0.0233621
0.0231834
0.0229822
0.0227601
0.0225301
0.0223111
0.0220835
0.0218236
0.0215128
0.0211956
0.0207657
0.0284436
0.0281767
0.0278695
0.0275139
0.0271978
0.0267688
0.0265513
0.0262246
0.0258005
0.0254925
0.0251956
0.024823
0.0245145
0.0241508
0.0238447
0.0236637
0.0234798
0.0232896
0.0230843
0.0228637
0.0226153
0.0223955
0.0221632
0.0219066
0.0216364
0.0292248
0.0289595
0.0286753
0.0284004
0.0280957
0.027732
0.0274783
0.027036
0.0266549
0.0262858
0.0260003
0.0257031
0.0253452
0.0250047
0.0246795
0.0243407
0.0240331
0.0237973
0.0236121
0.0234144
0.0232054
0.0229745
0.02273
0.0224892
0.0222775
0.0220416
0.0299736
0.029705
0.0294359
0.029154
0.0288669
0.0285881
0.0283032
0.0278393
0.0276202
0.0272833
0.0268978
0.0265429
0.0261797
0.0258348
0.0255296
0.0251838
0.0248107
0.0244833
0.0242796
0.0239375
0.0237643
0.0235527
0.0233166
0.0230816
0.0228645
0.0226354
0.0307104
0.0304085
0.0301317
0.0298733
0.0296046
0.0293537
0.02908
0.0287997
0.0284789
0.0280914
0.0277946
0.0275037
0.0271081
0.0267404
0.0263811
0.0260289
0.0256894
0.0254221
0.0251046
0.0246386
0.024345
0.024105
0.0239347
0.023695
0.0234608
0.0232325
0.0229986
0.031117
0.0308356
0.030569
0.0302759
0.0300343
0.0297804
0.0295385
0.0292823
0.0290123
0.0287207
0.0283686
0.0280314
0.0277355
0.0273195
0.0269497
0.0265824
0.0262171
0.0259406
0.0255513
0.0253563
0.0249402
0.0246343
0.0243365
0.0240948
0.0238557
0.0236337
0.0318228
0.0315885
0.031335
0.0310133
0.0307058
0.0304142
0.0301819
0.0300054
0.0297893
0.0295123
0.0292049
0.028899
0.028589
0.0283129
0.0279367
0.027544
0.0271503
0.0267333
0.0262829
0.0262966
0.0258045
0.0254293
0.0251454
0.0248197
0.0244824
0.0242568
0.0322011
0.0319964
0.0317906
0.0315562
0.031221
0.0310138
0.0306962
0.0304079
0.030178
0.0299821
0.0297291
0.0294046
0.0290956
0.028716
0.0284728
0.0281547
0.0276944
0.0273064
0.0270933
0.026734
0.0263318
0.025943
0.0256252
0.0253428
0.0250186
0.0328164
0.0325985
0.0323782
0.0321352
0.0319499
0.0317673
0.0314444
0.0310545
0.0308808
0.0306716
0.0304037
0.0301053
0.0298848
0.0296126
0.0292911
0.0289964
0.0286722
0.0283626
0.0280112
0.0275058
0.0271402
0.0268562
0.0265099
0.0261783
0.0258054
0.0332404
0.0329806
0.0327533
0.0325184
0.0322878
0.0320973
0.0319123
0.0316286
0.0312508
0.0310887
0.0309141
0.0306457
0.0303253
0.0300468
0.0297442
0.0294374
0.0291777
0.028858
0.0285652
0.0280965
0.0276738
0.0273145
0.0269891
0.0266774
0.0264097
0.0339607
0.0336852
0.0334061
0.0331095
0.0328732
0.0326349
0.0324053
0.0321937
0.0320202
0.0317927
0.0314221
0.0311577
0.0309859
0.0309175
0.030573
0.0302224
0.0299054
0.029575
0.029357
0.0292081
0.0286775
0.0282568
0.0278727
0.0275556
0.0271824
0.0344725
0.0341948
0.0338886
0.0335718
0.0332576
0.0330256
0.0327962
0.0325611
0.0323327
0.0319853
0.0319664
0.0316615
0.0314063
0.031157
0.0309101
0.030716
0.0304461
0.0300585
0.0297435
0.0295656
0.0292559
0.0287873
0.0284802
0.0281237
0.027762
0.0350643
0.0348835
0.0346627
0.0344161
0.0340932
0.0339017
0.033695
0.0333194
0.0330129
0.0327666
0.0325207
0.0321605
0.0320027
0.031833
0.0315764
0.0314041
0.0312037
0.0308861
0.0306077
0.0302937
0.0299419
0.0296928
0.0293888
0.0290139
0.0286854
0.0354522
0.0352566
0.0350633
0.0348655
0.0346723
0.0343182
0.0339433
0.0338242
0.0335487
0.0332838
0.0329222
0.0326183
0.0323363
0.0320874
0.0319081
0.0317114
0.0315296
0.0313747
0.0311504
0.0308466
0.0305284
0.0301873
0.0298886
0.0294964
0.0360064
0.0357897
0.0355962
0.0353917
0.0352007
0.035028
0.0348374
0.0345576
0.0341637
0.0340237
0.0337874
0.0335052
0.0332012
0.0328605
0.0325669
0.0322951
0.0320725
0.0318821
0.0316806
0.031494
0.0312492
0.0309877
0.0307056
0.0304084
0.0301321
0.0363306
0.036129
0.0359511
0.0357621
0.0355616
0.0353633
0.0351923
0.034981
0.0346925
0.0344565
0.0342511
0.0340478
0.0337682
0.0334626
0.0331092
0.0327908
0.0325185
0.0321973
0.0320024
0.0318351
0.031616
0.0313729
0.0311503
0.0308764
0.0368587
0.0366592
0.0364774
0.0362695
0.0360875
0.0359158
0.0357196
0.0355278
0.0353515
0.0351632
0.0348919
0.0346147
0.0344095
0.0341815
0.033845
0.0335762
0.0333003
0.0330549
0.0326875
0.0324294
0.0322171
0.0319952
0.0317541
0.0315451
0.0313073
0.0372007
0.0369981
0.0368145
0.0366257
0.0364233
0.0362386
0.0360514
0.035873
0.0356434
0.0353636
0.0352621
0.0350478
0.0347823
0.0345933
0.0343335
0.0341226
0.0338484
0.0334887
0.033204
0.0328977
0.0326343
0.0323947
0.0321788
0.031942
0.0377405
0.0375428
0.0373438
0.0371252
0.0369449
0.036777
0.0365819
0.0364081
0.0362138
0.0360295
0.0358364
0.0354861
0.035335
0.0351222
0.0349358
0.0347063
0.0344327
0.0342356
0.0340235
0.0337273
0.0333941
0.0331082
0.0328174
0.0326122
0.0323981
0.0380604
0.037868
0.0376786
0.0374843
0.0372781
0.0370929
0.036905
0.0367385
0.0365607
0.0363898
0.0361477
0.0360474
0.0357817
0.0355055
0.0352249
0.0350832
0.0348419
0.0345697
0.0343516
0.0341458
0.0338557
0.0335407
0.0333021
0.0330345
0.0383961
0.038216
0.0380085
0.0377991
0.0376194
0.0374162
0.0372354
0.0370416
0.0368749
0.0367127
0.0365517
0.0362796
0.0361201
0.0358939
0.0356831
0.0354436
0.0351324
0.0349137
0.034676
0.0344979
0.0342803
0.0339999
0.0337461
0.0335025
0.0389227
0.0387416
0.0385541
0.0383335
0.0381267
0.0379366
0.037734
0.0375411
0.0373465