/*--------------------------------*- C++ -*----------------------------------*\
| =========                 |                                                 |
| \\      /  F ield         | OpenFOAM: The Open Source CFD Toolbox           |
|  \\    /   O peration     | Version:  2312                                  |
|   \\  /    A nd           | Website:  www.openfoam.com                      |
|    \\/     M anipulation  |                                                 |
\*---------------------------------------------------------------------------*/
FoamFile
{
    version     2.0;
    format      ascii;
    arch        "LSB;label=64;scalar=64";
    class       volScalarField;
    location    "50";
    object      omega;
}
// * * * * * * * * * * * * * * * * * * * * * * * * * * * * * * * * * * * * * //

dimensions      [0 0 -1 0 0 0 0];

internalField   nonuniform List<scalar> 
404911
(
301.417
221.772
3454.23
1541.02
239.276
264.723
209.242
618.502
355.732
293.866
275.175
353.651
233.668
288.368
488.937
1125.9
318.738
241.213
272.962
430.421
686.31
302.683
770.46
564.411
250.986
1027.26
335.879
234.433
269.74
1084.43
296.759
243.598
346.443
612.445
289.765
264.795
458.392
514.899
294.678
232.127
411.922
1100.37
280.985
202.763
225.683
450.205
410.24
222.548
241.295
975.248
447.072
338.973
311.98
1425.59
400.625
648.087
9409.83
193.777
384.162
276.756
285.041
172.632
207.19
63.3094
91.1731
279.72
79.1217
423.035
166.383
75.0372
216.692
30.6837
198.966
124.057
61.0987
642.542
2301.14
283.804
110.953
215.802
91.0462
196.815
30.0774
164.588
238.907
91.0079
427.012
90.0378
1197.64
442.029
333.532
3023.55
136.974
267.778
230.996
139.052
206.264
280.408
99.6396
286.536
725.584
225.789
161.976
588.323
1346.25
582.249
312.123
770.389
396.871
310.613
243.835
250.245
247.239
269.104
2392.27
587.277
271.532
4645.82
665.091
218.148
218.936
220.726
232.474
299.425
1419.2
379.804
258.223
243.187
223.965
590.482
545.231
588.084
227.639
209.62
227.397
225.218
277.043
274.67
209.914
326.355
1294.89
379.787
251.74
231.454
224.955
217.582
217.959
207.581
585.621
533.845
227.459
215.605
236.675
1897.75
324.376
1098.39
322.369
222.746
204.58
212.238
209.308
212.49
215.164
215.93
211.873
213.668
221.331
224.924
244.244
318.384
474.804
664.793
513.549
473.459
480.726
494.038
572.429
209.832
215.119
209.49
209.995
218.988
234.1
254.614
260.711
250.599
350.075
783.216
524.881
443.8
463.737
359.697
398.776
603.55
499.221
197.436
206.689
204.923
218.943
237.925
247.903
283.497
1271.8
1101.81
316.09
649.714
345.452
303.2
287.466
597.939
482.909
361.779
411.276
506.425
506.648
189.73
210.643
224.108
226.322
259.788
574.963
965.271
678.483
309.387
361.925
297.836
295.502
381.419
312.34
508.732
591.756
553.319
400.526
176.985
216.027
221.297
250.724
359.539
1307.5
1339.99
350.905
169.033
271.005
289.073
260.901
200.616
289.927
573.322
408.696
265.377
326.773
349.19
347.348
549.801
214.359
260.155
1201.4
550.948
214.954
144.731
311.474
284.867
290.852
237.785
308.601
315.485
333.386
306.885
329.338
329.692
418.955
514.541
606.991
487.068
542.151
261.125
210.892
527.002
320.076
273.377
337.124
324.878
267.284
336.358
251.921
243.256
448.771
403.295
470.152
535.383
1787.21
424.169
217.044
187.505
207.923
223.313
262.226
306.081
265.373
293.047
278.154
233.738
261.932
271.78
550.287
435.301
494.511
313.909
1140.73
1060.13
965.977
340.969
375.785
218.593
184.377
257.915
245.216
289.789
295.335
264.906
284.301
296.867
318.664
371.337
403.677
242.509
631.398
1201.57
299.537
180.061
182.064
252.358
303.758
279.979
175.169
255.044
253.703
286.214
240.099
202.982
242.11
340.601
349.369
652.258
332.88
544.959
206.42
160.832
194.601
214.148
317.288
288.724
291.775
197.536
232.595
196.053
194.459
213.679
149.709
228.255
370.995
234.806
1100.01
1229.48
316.01
188.583
164.028
191.397
217.089
212.327
210.735
211.779
220.135
172.479
261.356
274.013
294.215
141.604
162.283
436.928
957.663
414.937
178.727
141.729
251.183
250.801
229.886
231.142
209.703
131.09
144.882
128.742
177.702
236.346
295.657
297.674
172.89
333.689
798.604
1181.96
971.817
380.155
344.254
296.187
254.395
222.28
201.253
217.199
180.493
157.512
156.437
162.254
179.816
233.993
221.759
191.789
526.121
486.533
199.054
180.232
218.829
294.057
157.607
177.931
272.668
238.14
283.01
188.688
196.1
190.449
201.165
165.609
170.809
330.847
1045.88
224.291
152.647
205.545
181.236
201.28
193.62
139.009
199.276
249.392
242.18
308.793
274.312
227.128
207.19
218.885
185.3
366.814
485.763
170.253
220.043
213.134
189.821
173.452
178.272
109.892
109.398
195.852
314.324
291.34
327.585
305.449
218.974
229.02
213.796
1062.97
291.524
145.682
166.655
172.481
187.402
163.284
158.583
178.67
115.271
136.408
189.446
216.822
267.019
296.624
301.286
205.641
345.689
1280.49
517.461
207.595
164.02
174.275
163.888
151.549
190.677
141.538
134.946
116.528
107.204
149.242
166.765
176.445
261.529
148.826
237.01
1120.63
1202.83
273.956
147.328
224.845
187.855
165.082
144.054
140.892
133.627
166.156
115.731
133.91
185.537
194.581
196.003
174.416
196.162
363.666
487.495
184.453
165.555
175.323
174.724
160.879
140.585
148.431
188.824
111.924
119.17
115.065
175.371
233.697
246.316
201.209
216.906
1089.78
1207.65
273.088
149.27
165.928
172.214
168.616
160.475
149.831
137.793
134.106
160.798
130.592
144.489
181.944
216.546
217.69
226.475
321.832
961.878
186.458
161.106
167.79
164.596
164.125
156.98
153.816
157.621
144.57
120.252
131.986
154.28
185.157
202.406
195.26
241.335
382.379
302.706
143.526
184.437
168.337
156.755
152.618
155.182
152.959
155.581
148.485
138.266
137.174
153.315
175.717
207.339
203.171
199.632
576.011
276.337
164.879
207.602
163.384
151.46
139.656
153.276
139.637
147.562
145.008
142.974
148.836
159.994
190.767
179.157
155.006
289.719
1203.83
1233.93
211.839
150.15
170.542
169.342
154.814
147.048
146.262
163.416
123.333
141.925
145.728
153.452
167.305
185.757
229.513
197.715
519.97
999.332
196.525
154.116
161.217
157.081
142.775
129.211
127.956
126.19
138.035
110.519
143.274
161.098
174.148
177.903
196.278
203.715
1138.38
335.984
169.101
160.387
169.878
175.736
163.756
147.909
137.218
137.811
123.569
114.947
127.725
160.821
175.676
198.456
142.166
213.059
1177.31
321.498
152.334
152.141
166.259
165.125
183.139
158.04
134.386
132.876
131.114
128.614
132.248
160.018
183.031
185.021
155.433
312.219
1104.45
237.506
151.646
162.429
169.978
164.624
146.935
166.551
131.967
131.896
127.021
134.332
140.306
159.051
181.097
195.726
182.282
505.432
484.35
178.701
194.285
203.209
187.747
171.62
155.444
112.298
143.511
131.11
89.2073
131.458
156.522
165.02
181.434
188.563
204.212
1082.01
320.322
151.263
153.36
165.46
159.963
166.721
163.97
125.114
134.314
77.9947
157.313
86.051
141.071
173.468
175.529
192.871
253.589
1217.86
1119.77
213.22
141.542
161.562
162.202
152.962
132.683
168.303
92.7849
86.7332
81.8469
85.5369
141.289
155.475
184.996
187.891
146.753
287.168
1113.56
201.795
152.421
161.957
157.246
148.117
139.238
121.718
146.394
112.754
122.58
84.783
105.625
148.548
166.954
169.685
167.334
480.871
1095.85
201.357
154.741
161.069
160.46
152.732
144.062
135.513
123.295
120.128
87.5454
68.9987
72.018
134.633
174.797
160.309
186.825
986.676
1088.95
196.347
153.744
159.285
155.603
153.4
147.198
138.689
130.91
133.017
110.156
105.983
87.4177
116.265
192.123
185.76
255.919
1221.05
316.932
173.609
161.236
163.917
154.548
147.208
143.103
148.974
130.507
120.621
106.413
94.0795
99.8758
135.064
187.603
190.155
285.72
1219.13
288.111
149.299
156.759
166.727
158.069
150.873
140.898
144.779
145.355
120.994
94.7483
62.4684
81.3276
161.627
182.388
187.841
277.71
1167.91
199.739
166.771
182.515
164.197
155.132
137.988
141.827
141.539
137.541
135.52
117.047
99.5547
116.133
175.99
185.869
173.221
290.343
1043.69
196.41
150.161
152.516
147.212
137.089
130.858
132.767
145.073
105.732
135.539
133.938
129.779
130.113
156.942
182.569
149.732
302.844
1113.68
197.656
149.926
154.215
142.637
128.21
122.812
113.598
114.393
132.024
117.711
129.568
142.252
152.975
162.285
191.04
150.481
317.456
1118.72
204.545
154.17
157.761
144.144
131.497
129.573
123.505
125.82
126.449
115.531
107.566
125.351
152.071
170.259
162.912
161.865
470.346
1053.35
196.896
155.953
162.939
152.05
138.411
130.282
135.016
137.766
143.327
137.565
122.597
125.589
146.592
168.929
176.654
194.939
1053.91
334.732
191.977
161.844
173.127
158.029
132.804
114.13
114.751
130.806
127.656
128
133.299
139.37
152.769
170.98
174.456
197.772
1142.62
338.891
185.048
153.214
178.809
160.538
133.12
115.794
104.721
115.919
80.4567
91.1865
127.252
145.603
154.567
169.23
175.696
196.276
1109.42
1247.64
240.801
178.31
154.927
160.545
170.636
129.824
84.7563
78.0219
66.637
55.7298
31.8645
58.8059
145.684
160.483
168.34
176.653
212.021
1098.86
1136.18
199.616
140.956
224.98
173.578
139.518
129.212
93.3346
48.6096
43.7138
38.935
28.0893
38.7862
117.483
164.331
166.106
164.017
258.653
210.058
163.01
163.388
154.248
137.647
116.842
86.336
65.7683
35.1092
27.1125
22.7953
66.1851
137.817
166.16
164.072
143.681
274.76
1071.31
209.019
152.918
158.91
153.098
146.211
136.498
119.905
89.2671
88.5713
23.8595
20.2432
38.8839
152.005
171.014
176.43
155.307
325.937
1109.14
200.036
152.101
156.572
152.498
149.563
145.558
142.708
128.142
84.1731
75.5534
24.8733
35.4121
135.831
171.719
178.105
160.355
484.232
1199.4
195.957
156.914
161.592
154.279
151.999
145.043
133.669
123.499
93.0108
69.1998
77.7708
63.7119
149.212
178.839
160.18
168.558
914.286
179.556
191.67
175.65
158.721
152.754
149.145
132.671
103.77
54.2603
51.9613
101.682
128.419
147.549
178.527
181.428
193.874
1022.51
795.166
307.973
176.57
155.025
150.59
148.713
142.986
125.452
86.3951
36.1321
62.1294
149.192
156.163
159.742
193.219
197.224
1120.31
2243.78
305.799
265.475
227.935
148.452
144.65
145.46
141.813
135.553
110.249
86.9985
52.3994
145.991
174.542
174.653
142.343
220.716
1175.08
318.844
172.013
171.569
180.232
139.865
142.695
140.169
134.961
134.097
84.3844
73.9082
96.5606
155.063
178.976
185.246
151.263
298.404
305.902
167.941
176.519
155.211
131.157
130.99
147.145
137.611
116.981
97.1899
39.4245
76.9135
151.896
164.823
172.03
158.779
325.504
1260.77
269.03
174.342
187.606
183.817
131.297
126.931
106.882
130.677
123.952
65.9132
51.7898
81.6222
137.786
158.943
159.052
182.564
925.481
1024.02
198.784
169.556
167.316
157.382
96.6761
121.449
121.114
74.0528
64.2221
76.582
57.707
79.9204
116.968
168.149
162.454
192.117
1054.84
894.138
160.066
324.59
223.932
108.813
77.3954
60.6046
37.013
86.8444
46.7203
47.3493
63.2615
96.7656
142.509
207.103
199.771
192.567
1061.29
489.292
149.433
196.038
176.845
76.2857
50.6765
38.9485
22.869
36.9199
85.3292
58.5364
96.4904
134.243
163.428
219.927
268.371
201.816
1097.89
1082.14
265.411
149.123
192.728
180.36
72.214
29.3081
7.45829
8.75401
29.0082
74.6097
100.293
152.392
171.397
173.775
193.351
210.644
344.132
1120.46
979.183
169.448
211.476
192.206
175.249
69.411
16.5946
3.96025
6.63341
28.2369
60.1758
118.631
137.798
144.663
170.561
176.739
166.307
221.381
1148.67
250.689
181.982
174.624
116.401
53.4194
11.1127
4.33355
6.72622
22.6798
56.7905
111.006
144.953
153.147
169.094
189.906
144.679
275.779
1276.18
286.509
173.152
183.985
105.569
43.3493
6.00075
4.97913
15.2208
17.93
43.4158
70.6263
150.891
160.795
171.554
186.111
156.885
322.916
291.914
186.165
199.115
143.734
41.0683
5.89656
3.94828
7.16701
29.6194
32.9355
83.7106
154.956
168.17
171.054
182.614
162.345
485.491
261.138
296.038
243.08
163.651
59.8122
5.08898
4.01295
8.12123
19.0285
32.2565
52.7168
151.312
176.215
179.646
161.816
170.309
938.097
1038.07
192.998
229.584
254.669
145.054
69.9651
14.6132
6.1012
13.6617
26.7787
75.5235
80.6158
128.202
186.327
181.679
178.585
207.802
1051.84
979.442
198.196
222.199
235.236
125.42
63.4749
9.45817
5.01183
17.4504
44.2309
66.9401
105.482
179.076
198.052
186.581
146.422
293.731
914.47
167.253
164.857
179.782
119.672
67.8009
12.2963
7.01698
9.56208
42.5362
80.5246
115.747
176.631
190.534
186.819
157.778
336.846
928.246
165.03
161.637
171.927
142.805
59.9749
8.09275
7.95942
39.4696
75.2986
82.7428
154.262
194.646
188.321
191.299
163.48
341.14
940.107
167.684
165.532
182.993
158.742
90.2947
14.3793
7.64561
35.5034
71.9178
86.0853
178.357
199.495
191.851
171.373
172.056
932.142
948.536
164.863
178.246
177.988
148.259
91.9453
93.7829
35.0733
23.608
64.2731
110.648
210.789
198.59
192.605
183.422
204.64
1048.29
322.704
168.014
202.179
219.789
125.452
64.1447
55.527
87.3133
86.0306
79.8363
103.629
163.494
181.148
181.846
188.795
212.405
1131.27
375.292
413.978
227.56
79.5247
38.4952
8.21054
21.7909
151.571
87.3412
107.639
161.628
177.829
176.521
173.714
258.346
1267.39
357.444
331.712
263.929
168.299
9.27623
5.84766
9.12784
49.6151
105.7
104.978
179.016
181.837
178.508
157.291
308.885
330.87
240.385
261.341
250.567
206.134
13.8538
7.56822
19.4329
51.4244
123.314
149.783
168.043
197.349
177.368
159.691
338.126
360.989
161.02
209.809
250.932
255.978
142.462
20.74
12.5458
86.484
176.726
225.647
272.919
232.394
248.277
188.412
923.494
374.336
176.651
209.973
271.938
324.08
318.1
163.979
214.418
203.932
239.481
225.317
242.683
267.93
322.875
218.51
1117.42
1296.64
343.173
201.978
188.195
246.556
301.743
311.629
304.047
256.673
292.66
333.576
305.701
242.359
260.387
285.985
520.727
1343.08
259.673
168.145
217.626
224.72
298.979
300.842
278.753
131.05
262.201
284.989
295.639
319.848
342.243
361.605
279.626
1098.95
242.803
180.289
176.425
216.183
259.466
283.031
382.251
226.596
215.303
255.825
256.937
256.394
309.857
359.472
873.291
359.052
183.338
629.828
441.77
306.785
228.98
209.542
200.156
203.115
215.968
246.188
220.224
199.054
213.966
330.17
4171.27
372.161
610.031
350.815
326.912
359.799
306.345
232.37
273.23
291.35
299.086
251.7
222.131
194.317
220.868
339.538
873.643
1166.73
709.281
346.748
315.413
313.341
312.187
214.584
240.62
276.493
306.849
310.504
236.108
237.518
234.105
374.351
1275.87
247.054
492.202
325.598
262.932
251.151
192.665
240.096
263.413
288.688
302.336
354.686
158.266
230.858
278.862
1511.76
1249.65
252.331
189.332
350.614
301.481
294.856
238.456
178.542
247.615
255.489
306.855
281.087
293.581
190.636
378.09
1341.32
611.624
236.874
193.134
511.182
331.698
298.427
266.608
248.522
267.386
281.98
310.354
317.176
163.706
215.031
401.123
1210.33
604.351
498.275
366.604
328.911
280.513
266.799
229.017
289.777
272.258
315.861
190.859
280.21
1261.12
760.794
571.235
504.718
405.789
351.255
316.033
290.257
247.97
320.898
306.666
159.859
208.658
374.226
1251.01
243.918
195.672
541.213
395.366
307.898
300.008
335.284
275.062
313.029
276.676
183.297
244.011
590.15
1325.09
257.295
203.221
540.489
462.491
297.797
331.117
447.263
382.753
358.651
373.605
197.073
261.008
1291.09
1248.1
260.204
607.634
526.529
492.465
380.812
309.358
248.935
305.798
350.027
524.698
211.76
269.368
1376.5
1294.69
260.095
629.83
526.531
529.546
483.641
282.619
311.174
288.785
395.764
523.685
217.108
361.904
1426.87
1231.15
251.092
212.182
559.671
497.987
534.447
358.135
264.294
300.773
341.606
193.284
227.89
365.769
1527.58
1505.21
1210.96
200.595
188.888
520.163
525.945
639.46
348.661
288.009
380.253
551.282
228.727
372.896
190.805
547.254
514.234
516.358
178.671
535.255
564.655
594.211
566.588
198.327
180.392
508.953
603.578
211.967
235.134
319.395
1246.38
6328.26
632.498
190.282
535.591
585.449
251.885
415.02
2859.52
2149.64
551.624
847.931
251.748
282.58
1247.88
513.356
833.348
253.84
274.999
644.954
910.973
677.84
287.632
244.296
296.541
1251.48
1215.33
307.398
2003.47
910.086
569.044
374.152
209.257
200.118
242.178
253.355
694.774
305.246
226.297
410.425
738.536
1566.4
1406.73
6492.5
526.382
1542.03
619.239
582.888
1436.98
628.45
424.546
333.264
325.06
301.199
283.258
267.465
355.645
1464.98
641.32
413.263
308.402
297.175
279.258
266.675
261.929
270.593
273.106
272.463
258.181
259.281
270.202
256.79
1385.33
604.667
324.792
289.143
267.286
265.957
262.747
257.256
266.245
267.841
271.385
252.773
240.379
248.46
261.435
253.013
253.555
254.099
269.153
377.939
449.355
916.914
1077.32
582.836
314.729
275.135
263.489
247.382
246.484
258.433
266.79
265.189
258.942
263.871
273.117
246.664
620.804
610.857
253.293
253.028
234.544
252.014
262.336
302.671
674.157
617.23
356.669
278.761
263.589
232.449
212.806
216.507
223.591
236.201
248.322
258.185
256.149
266.644
256.027
250.371
246.709
228.531
573.44
626.652
236.587
251.085
252.437
275.704
321.67
1362.36
475.682
230.157
180.905
170.9
213.135
234.756
564.19
766.426
866.111
185.662
207.65
227.794
214.924
197.762
201.298
221.836
229.798
221.043
208.495
548.199
620.987
247.34
265.425
310.678
664.625
1575.48
421.816
368.318
329.634
293.597
299.636
297.362
315.786
338.049
448.734
467.941
583.826
179.163
196.896
230.436
327.987
799.288
199.701
221.097
235.859
243.192
615.675
628.416
294.87
647.735
1312.91
365.92
456.048
409.556
277.891
267.439
284.722
323.853
248.556
225.108
315.066
419.433
505.694
459.003
423.602
592.508
182.513
300.631
684.471
221.921
240.944
249.432
269.012
310.854
619.356
481.333
1423.1
343.516
395.223
405.318
373.208
241.862
245.868
247.43
256.745
288.414
227.146
221.155
312.459
350.968
384.075
383.115
322.519
269.13
155.238
258.246
177.623
234.693
274.599
405.437
667.717
1172.64
450.058
208.184
216.188
280.198
290.094
320.253
235.164
227.777
217.652
281.865
268.833
202.879
205.597
214.337
238.824
233.695
236.084
299.281
271.725
277.577
219.056
215.369
220.053
257.621
588.725
1240.81
268.035
176.445
301.724
278.054
266.255
318.48
211.237
269.308
280.976
259.412
229.695
261.35
261.373
263.889
220.944
211.372
211.814
225.081
251.362
357.72
198.962
634.591
602.854
722.759
4657.7
813.305
1421.38
335.411
299.766
280.163
259.326
208.527
167.47
156.929
204.725
209.067
247.027
248.285
192.587
228.502
220.846
242.128
234.363
228.581
237.588
246.702
228.182
169.575
616.062
1738.83
1336.65
390.556
294.411
249.781
247.223
265.682
145.418
101.654
50.1997
63.1813
142.112
239.754
198.763
140.655
218.068
209.797
256.358
258.376
291.651
267.702
235.284
152.974
228.571
496.801
494.239
207.098
208.507
285.576
323.099
216.297
202.404
240.115
126.398
80.0231
54.9512
54.6751
54.4962
59.3439
97.5722
75.6529
83.2822
163.359
280.964
321.772
406.434
334.016
147.56
221.389
527.729
470.863
217.805
199.194
233.545
222.036
219.209
205.972
198.434
193.171
143.327
76.3624
66.627
65.2039
67.3673
56.79
66.0052
71.9724
105.565
139.062
226.773
361.09
421.465
627.428
218.357
522.305
423.65
182.192
247.516
244.977
227.92
212.188
200.872
192.81
206.358
194.881
169.443
126.612
100.756
102.631
84.3629
72.0933
78.8144
127.066
232.75
270.927
326.825
409.873
420.217
553.554
925.086
1220.56
412.584
178.872
223.617
221.506
215.699
214.676
213.013
201.48
187.221
176.27
161.35
142.602
112.199
115.08
75.8831
77.5421
74.296
80.1117
91.3295
168.968
282.378
383.347
412.67
499.113
453.785
1205.22
410.388
171.799
210.124
218.027
218.7
223.02
195.951
166.047
110.633
75.8513
104.91
102.884
96.289
96.533
122.998
138.395
153.162
147.203
101.012
189.158
223.243
316.761
392.665
511.457
484.611
1088.72
288.265
170.044
222.475
228.36
228.607
229.236
213.502
151.008
99.1188
64.8512
38.5307
49.0151
85.4804
101.391
110.521
102.497
112.768
125.491
145.467
197.103
221.242
249.519
242.152
324.1
356.286
1410.03
1307.53
308.545
164.104
194.556
226.615
230.95
216.366
190.507
163.89
131.014
102.46
84.8522
63.5211
55.8981
64.4867
76.1288
78.8499
92.5213
120.754
96.8022
98.9917
219.88
261.338
279.678
285.474
219.627
1610.73
456.999
177.673
231.588
232.726
234.757
196.24
136.778
106.839
96.1231
94.4156
93.0533
89.7773
87.5828
79.9773
67.6851
74.8222
83.8211
96.7187
121.266
155.957
83.6851
158.044
262.644
278.296
218.66
498.378
505.857
216.594
191.136
217.734
225.935
205.973
137.929
50.8856
33.1413
33.742
39.7398
61.0539
81.0761
88.2736
89.3359
82.6192
82.5167
99.056
115.216
150.981
190.603
213.4
236.017
269.062
226.464
520.372
1072.77
268.051
186.692
213.395
217.538
215.47
144.998
59.33
34.0255
18.0795
13.4928
13.6358
19.0737
42.8987
81.5628
103.054
97.5265
98.0422
108.881
137.282
167.29
225.634
234.933
231.578
183.601
459.789
448.297
175.216
201.134
218.47
209.57
172.948
57.8355
29.4369
19.2413
15.6029
11.5663
10.7173
12.1389
20.279
48.8244
89.2295
117.66
124.911
143.037
170.964
210.563
236.803
253.871
289.415
317.213
507.092
198.207
242.606
231.583
221.779
179.93
58.0872
33.4858
14.4109
8.76686
8.97973
9.56285
8.62794
9.56264
12.3194
23.1551
53.9321
97.0184
137.183
170.459
208.709
229.746
229.274
222.053
191.722
881.987
1010
254.843
188.561
224.116
236.124
223.281
157.747
61.8593
18.1649
7.79748
4.32073
4.55681
5.96038
6.34471
6.51737
9.11832
15.4327
23.1362
53.203
129.971
208.916
234.732
240.296
213.101
165.597
434.9
1017.08
269.88
190.85
220.17
223.093
219.136
182.754
99.039
54.5967
20.2773
7.34255
4.84099
3.38542
3.23596
3.94249
5.63254
9.52356
15.998
33.083
53.3174
142.038
219.937
235.471
240.939
250.677
279.815
1151.57
450.874
216.037
221.61
216.35
213.394
180.427
108.951
62.9213
35.2511
15.4723
5.87152
5.08531
4.87569
3.98621
3.83561
7.50293
17.5985
25.56
39.8601
98.7554
205.158
236.001
246.512
250.866
264.512
985.876
835.606
222.696
239.417
214.72
198.007
143.892
103.388
61.9064
45.8337
25.6746
10.0174
6.42707
12.0781
24.1665
9.71406
5.10559
10.5178
30.2205
60.4776
99.3638
176.153
237.949
255.794
257.559
271.579
993.162
276.322
185.372
197.412
195.204
173.098
86.4917
35.9286
35.5489
27.1194
18.1797
11.7259
8.0167
20.2678
38.311
36.1777
12.1954
12.6728
31.0163
76.8513
174.711
226.74
252.223
234.662
246.295
984.54
841.551
182.666
191.611
205.042
201.21
149.433
84.4392
32.6782
18.5767
20.8995
19.6449
18.3305
21.0813
22.5958
30.4124
36.6451
27.4308
22.3692
52.3533
123.711
216.962
243.887
251.852
277.111
435.56
301.642
190.671
202.706
214.228
187.463
95.6524
61.4013
43.7221
19.7074
13.7318
17.9453
22.0021
23.6959
26.4802
31.862
43.8733
50.4168
45.35
77.033
203.402
233.067
245.273
262.792
278.798
1028.51
1023.85
239.213
196.989
203.05
204.188
143.528
73.9699
47.8357
31.6587
21.2762
14.3517
13.5144
15.8701
17.8233
15.8156
16.6072
32.4653
73.2234
113.382
185.05
224.424
244.873
225.027
193.269
925.235
375.74
221.561
215.477
201.301
151.459
89.6825
52.799
30.9265
23.385
16.5388
13.3818
16.1608
17.3168
17.2068
19.1078
18.4102
26.4016
58.1427
146.801
209.412
225.256
236.935
271.26
304.98
1311.94
783.817
171.199
183.515
191.925
173.099
92.82
35.1605
28.8234
17.2926
10.7182
9.70687
9.42421
11.9863
21.6923
27.8094
30.4139
43.3104
65.2809
95.9161
174.848
217.014
220.992
248.43
265.691
991.695
241.119
218.985
195.223
190.74
154.069
89.214
32.71
14.6485
10.3361
8.77186
8.69096
7.47257
6.55911
12.4848
29.5058
46.4195
54.8765
79.5632
123.749
203.426
222.852
226.609
171.708
464.339
763.946
171.094
179.265
186.786
172.273
123.766
87.3476
50.6569
21.4614
9.95009
7.09177
6.00039
6.3808
6.69935
9.07061
16.7548
41.6588
68.3695
100.503
162.564
213.038
221.963
245.967
262.681
1091.91
272.992
180.268
187.533
188.798
155.712
96.8363
64.213
41.7829
23.9227
10.7845
7.16098
6.69178
7.44938
12.1908
13.4372
13.5854
32.4489
84.9301
142.801
203.482
216.778
221.315
231.774
440.918
772.21
170.331
180.558
188.71
180
123.554
73.5937
45.4335
29.2447
19.5988
13.4203
9.86906
10.0354
11.9953
13.9592
19.2291
21.2513
37.1615
73.0332
168.718
212.602
217.921
195.329
195.368
956.612
270.375
176.14
187.955
192.983
165.175
99.5303
66.3419
40.2969
24.41
14.3499
9.97433
10.6237
10.93
14.6316
21.8362
29.0477
44.9506
68.6739
99.854
187.269
226.848
221.345
217.386
298.951
785.498
168.961
174.514
183.718
184.053
116.82
86.7692
61.8976
40.2697
25.3506
16.0381
11.2136
8.95161
9.68968
10.8245
20.9162
36.4748
49.6229
82.4609
148.829
207.485
236.189
210.368
188.756
924.766
277.48
165.022
175.513
180.96
140.561
87.8193
62.184
48.1289
39.038
27.9993
17.4358
10.8539
9.43746
9.91841
11.0877
16.0682
33.0449
54.6948
89.0485
171.91
217.952
228.522
267.411
299.125
236.361
202.686
180.915
173.1
105.922
68.1348
49.808
39.257
35.4775
33.1145
24.1318
14.4132
9.29586
8.85687
11.8337
22.1815
44.6464
71.1966
106.054
194.598
220.389
232.879
168.136
780.959
815.983
164.631
168.98
171.624
158.79
81.1967
54.1463
40.2401
34.4662
31.5535
31.7522
32.409
26.6586
17.2465
14.6133
17.0597
26.7017
50.6648
108.92
149.769
201.228
222.985
256.435
265.486
1095.75
781.659
195.281
176.601
175.252
146.629
69.4774
43.0187
32.8316
28.7859
27.8108
28.5323
30.6155
31.3736
29.9325
27.745
31.227
40.0042
57.941
94.7776
157.595
204.461
210.192
263.568
726.667
398.817
189.918
180.172
172.296
119.836
54.5566
31.1914
27.0335
21.6892
18.889
20.329
25.8064
29.3897
31.2511
33.2198
38.3575
52.1444
72.7149
111.922
181.222
207.297
213.477
206.893
867.47
237.78
211.835
192.781
176.66
112.261
72.1989
29.1856
20.4809
20.6893
15.2378
10.4673
14.116
25.6218
31.4653
34.8213
39.8421
51.7568
80.3783
125.959
195.803
198.65
232.785
276.777
789.451
203.458
196.81
182.688
171.561
90.6011
62.8949
45.5981
27.3964
21.8979
20.1711
13.6431
9.32661
13.8036
25.8435
34.946
44.2517
57.1113
83.6184
131.728
203.996
217.79
166.106
794.63
416.623
186.196
182.344
188.238
141.935
86.147
55.227
39.1065
30.1203
27.0691
25.9673
24.3043
18.5785
15.9894
20.5115
31.0854
43.8644
63.9989
99.5248
164.461
204.216
210.988
212.502
1056.84
230.817
213.95
189.269
185.098
118.352
74.1049
49.6044
32.2244
19.7659
15.4674
19.4548
24.2118
26.1203
25.2898
25.5028
32.458
46.7456
67.0064
113.64
183.83
196.649
208.692
261.715
816.725
168.276
172.168
177.451
167.388
108.402
68.688
45.5501
32.2765
19.3205
10.9835
9.62871
15.6107
23.8316
30.1007
32.7979
36.757
49.7592
74.6799
119.742
190.316
191.693
209.029
422.213
404.837
176.915
174.017
178.685
146.979
92.1569
65.7568
41.4927
27.2284
18.683
12.4471
8.27586
7.97303
13.0131
23.4374
34.8034
42.1561
54.2245
87.61
124.522
196.054
206.909
162.097
767.518
283.314
162.414
166.999
168.529
115.969
73.9934
50.4996
34.2136
20.987
11.5039
8.64385
8.03249
7.9972
7.67966
10.2773
23.6625
43.4692
59.8933
95.6394
172.039
194.832
210.966
217.578
1065.67
239.252
211.784
184.459
167.92
109.473
72.3656
48.2615
34.5997
21.7579
11.6994
6.4637
5.87506
6.66937
8.39716
9.63027
15.9832
33.8899
64.9572
111.237
180.234
196.381
184.298
233.375
989.352
171.105
163.089
179.309
146.872
85.1416
61.8412
45.9032
37.0176
31.2428
19.2199
10.0199
6.09274
5.59622
6.61977
11.3312
20.0431
35.5643
61.6671
114.505
186.374
184.9
219.347
406.367
793.988
161.949
173.744
178.257
139.445
81.4197
54.2073
41.4427
35.0947
32.2853
29.8676
20.4875
11.3418
7.18577
4.75108
7.62882
19.1023
41.4835
76.234
140.359
193.594
204.163
169.02
815.207
735.402
186.757
178.82
179.32
133.983
80.7202
52.7259
38.4139
32.8918
30.5054
28.4018
25.5099
20.3868
12.6496
9.11964
7.18881
14.1733
37.9653
81.5517
170.092
195.658
180.462
231.904
287.104
160.679
167.269
172.751
121.666
77.363
50.9137
36.8704
28.7587
27.38
28.2066
24.3803
18.052
13.6309
10.4167
10.6006
16.8433
39.9166
89.0292
177.628
198.32
212.031
291.049
276.758
161.509
167.398
167.293
113.665
69.6864
47.4674
34.488
29.0738
25.4429
26.3877
28.2808
22.0166
12.6755
7.44619
9.71203
18.991
41.1387
88.8651
179.661
196.126
220.134
726.008
243.163
213.239
183.675
168.509
96.5701
65.5488
43.8172
31.3662
24.6657
22.7292
23.1125
28.5617
29.1077
22.1178
14.3047
13.3636
24.0125
49.0593
93.3908
180.161
206.243
211.029
761.964
238.061
176.433
177.248
157.517
89.0587
57.1322
40.0296
29.8117
23.2571
15.9764
11.8079
15.2851
26.2057
31.6494
29.3686
27.0837
34.2089
59.2972
102.452
185.036
187.961
218.992
905.056
227.913
174.157
174.756
154.989
90.0535
59.0904
39.3299
29.7545
25.3012
19.4273
13.0517
9.05578
12.7106
23.7418
31.673
38.6012
46.1493
67.0196
110.365
180.061
193.109
180.023
1011.6
962.336
179.564
169.826
176.797
156.696
90.7121
60.1549
41.0704
29.3223
26.0939
24.3797
21.2469
18.1059
14.9328
16.773
23.4092
32.6636
47.3844
67.471
109.385
178.388
190.765
215.868
769.445
212.709
201.379
181.676
156.281
87.5585
58.6307
41.3662
29.2653
24.2963
23.253
23.3418
23.9537
24.9827
23.4836
23.7649
31.9814
46.7894
73.4022
119.727
188.458
199.526
221.583
757.241
189.588
176.68
178.609
138.209
78.5231
51.6599
38.2631
28.2086
21.6619
20.0486
20.0509
20.7825
24.2658
28.2769
31.4293
36.018
48.5306
76.0336
138.043
197.971
178.8
233.07
403.748
175.592
172.225
171.958
127.147
71.1837
41.9557
27.7391
24.4414
19.9854
16.0102
14.1231
13.3296
16.3224
23.7307
30.4547
39.2105
54.6073
80.5148
141.39
192.933
210.267
292.096
280.487
156.613
167.168
168.161
125.913
76.5338
42.6535
20.5567
11.9692
12.49
11.742
9.08949
5.94078
6.23254
12.8544
27.211
39.3963
56.1057
90.4811
153.956
193.217
207.458
690.688
285.404
159.477
166.958
163.417
109.663
79.5642
48.7684
25.4372
11.7578
6.37826
4.58682
4.56136
4.09659
4.13344
7.083
17.3206
37.2432
58.902
98.0396
167.824
188.39
206.062
723.693
246.774
165.737
170.482
165.27
94.9833
65.7531
44.4534
31.7896
19.7984
10.1715
5.73027
2.57301
2.40213
3.66461
8.90082
17.8212
33.1043
58.5376
103.572
174.174
175.79
198.019
753.638
234.393
177.221
176.868
164.702
93.7717
61.074
43.297
33.5289
28.1223
19.5595
10.7305
4.69756
2.14692
2.72078
7.19753
18.9665
36.4208
62.6039
108.355
180.63
179.753
164.732
824.508
245.987
180.744
171.09
155.313
83.0792
55.5701
39.5577
31.4259
27.786
25.6036
19.1676
10.6897
4.47232
3.03577
6.2853
17.6289
35.8935
62.6833
112.417
179.683
183.829
211.628
1026.89
237.477
180.302
165.954
144.943
81.2026
52.1875
38.2386
31.1459
25.1696
19.1082
15.6725
12.6086
9.77328
7.09309
8.98631
18.0047
36.6495
63.3572
114.09
183.395
189.185
225.468
961.954
175.912
175.361
166.944
100.712
68.2637
47.03
36.4139
31.5204
28.4049
19.9236
11.7012
6.4257
8.38565
13.4659
18.8713
26.3499
42.7199
70.1001
120.12
184.019
195.344
230.852
766.528
233.115
195.059
165.573
43.048
31.4493
36.2286
33.1222
29.6513
28.2184
25.7785
17.1847
8.45612
4.84371
11.1762
24.3826
38.3594
53.1654
81.2257
141.135
181.094
195.202
236.769
768.769
194.715
176.712
163.636
55.5425
13.492
15.9165
25.8852
28.8107
26.3169
22.4289
19.0287
13.631
8.92964
8.18005
19.6742
39.7754
62.0774
93.3405
165.24
188.154
188.829
223.195
417.744
182.914
177.835
165.813
95.012
33.1787
15.6772
18.0272
24.1231
25.6394
20.2446
14.2365
9.62069
9.2324
12.2161
18.9708
34.4579
60.8876
103.009
171.761
190.366
205.272
261.962
273.496
163.659
173.203