/*--------------------------------*- C++ -*----------------------------------*\
| =========                 |                                                 |
| \\      /  F ield         | OpenFOAM: The Open Source CFD Toolbox           |
|  \\    /   O peration     | Version:  2312                                  |
|   \\  /    A nd           | Website:  www.openfoam.com                      |
|    \\/     M anipulation  |                                                 |
\*---------------------------------------------------------------------------*/
FoamFile
{
    version     2.0;
    format      ascii;
    arch        "LSB;label=64;scalar=64";
    class       volScalarField;
    location    "50";
    object      p;
}
// * * * * * * * * * * * * * * * * * * * * * * * * * * * * * * * * * * * * * //

dimensions      [0 2 -2 0 0 0 0];

internalField   nonuniform List<scalar> 
404911
(
-1.24894
-1.24101
-1.23573
-1.23999
-1.26009
-1.24781
-1.23741
-1.23743
-1.23954
-1.23993
-1.26859
-1.27301
-1.27426
-1.26303
-1.25271
-1.24121
-1.28256
-1.28054
-1.27634
-1.2707
-1.29595
-1.29083
-1.29328
-1.29885
-1.29609
-1.30793
-1.31204
-1.30473
-1.29388
-1.32903
-1.32043
-1.31657
-1.31291
-1.29872
-1.33606
-1.32728
-1.32812
-1.33164
-1.33593
-1.33155
-1.33997
-1.34048
-1.34018
-1.33904
-1.33386
-1.32936
-1.3472
-1.34434
-1.34281
-1.33743
-1.34627
-1.34724
-1.34976
-1.3369
-1.35102
-1.34412
-1.3627
-1.25228
-1.26671
-1.25725
-1.27365
-1.26972
-1.28575
-1.28137
-1.27651
-1.29333
-1.28935
-1.28494
-1.30146
-1.29606
-1.30994
-1.30581
-1.30006
-1.32013
-1.31583
-1.31028
-1.30516
-1.32871
-1.32465
-1.33605
-1.33209
-1.34234
-1.33869
-1.33453
-1.34772
-1.34499
-1.35343
-1.35037
-1.35063
-1.35965
-1.35281
-1.37953
-1.38491
-1.37913
-1.39537
-1.39222
-1.38762
-1.40358
-1.40059
-1.3985
-1.4145
-1.4056
-1.40317
-1.41906
-0.592253
-0.583688
-0.575442
-0.626772
-0.61607
-0.617727
-0.599334
-0.594555
-0.587293
-0.583018
-0.573462
-0.642117
-0.63869
-0.627442
-0.616616
-0.605965
-0.598989
-0.593326
-0.58586
-0.557633
-0.665748
-0.659394
-0.650917
-0.644605
-0.639164
-0.637318
-0.629921
-0.621348
-0.611237
-0.603664
-0.595697
-0.59043
-0.582638
-0.575231
-0.562411
-0.545681
-0.679752
-0.67575
-0.670049
-0.662178
-0.654735
-0.647819
-0.640898
-0.635518
-0.635777
-0.625093
-0.614422
-0.608505
-0.600609
-0.597434
-0.565122
-0.694352
-0.687496
-0.681262
-0.67637
-0.671471
-0.664953
-0.658576
-0.651979
-0.644921
-0.637511
-0.632813
-0.62563
-0.616919
-0.610416
-0.605259
-0.70491
-0.697492
-0.691998
-0.686335
-0.678977
-0.673939
-0.665335
-0.661305
-0.655135
-0.647155
-0.641513
-0.63649
-0.628592
-0.621639
-0.614654
-0.605527
-0.7163
-0.710513
-0.709154
-0.700001
-0.695501
-0.688883
-0.682139
-0.680773
-0.67374
-0.664994
-0.656955
-0.650286
-0.644207
-0.639245
-0.632017
-0.626258
-0.616646
-0.739912
-0.732535
-0.72787
-0.72177
-0.716178
-0.711164
-0.70409
-0.696238
-0.690743
-0.683829
-0.684201
-0.675868
-0.668232
-0.660321
-0.653527
-0.646927
-0.640914
-0.631874
-0.751274
-0.742639
-0.737306
-0.731623
-0.724728
-0.719069
-0.713501
-0.709408
-0.699841
-0.694002
-0.688988
-0.686085
-0.678414
-0.671107
-0.664826
-0.658103
-0.650437
-0.645379
-0.770642
-0.762887
-0.756684
-0.746654
-0.740435
-0.734246
-0.727836
-0.722772
-0.71611
-0.710231
-0.702855
-0.697149
-0.692466
-0.688306
-0.683092
-0.674217
-0.668106
-0.660497
-0.779026
-0.771698
-0.764931
-0.759907
-0.750887
-0.743468
-0.737761
-0.731916
-0.72551
-0.720026
-0.713296
-0.706089
-0.700781
-0.696528
-0.689919
-0.686787
-0.680039
-0.790089
-0.785533
-0.783077
-0.777894
-0.768964
-0.762353
-0.755876
-0.747444
-0.742792
-0.736754
-0.728769
-0.724055
-0.717133
-0.70839
-0.703557
-0.700604
-0.698115
-0.803488
-0.796719
-0.792787
-0.788257
-0.785109
-0.778911
-0.77282
-0.766081
-0.758918
-0.750544
-0.745281
-0.740667
-0.733291
-0.727704
-0.721233
-0.713356
-0.706872
-0.7025
-0.81483
-0.813203
-0.807863
-0.801267
-0.795383
-0.791712
-0.787803
-0.781213
-0.775513
-0.769636
-0.762032
-0.754592
-0.748867
-0.742787
-0.738538
-0.731736
-0.724583
-0.7147
-0.828135
-0.822597
-0.818544
-0.815107
-0.805718
-0.802753
-0.797915
-0.793293
-0.789906
-0.784254
-0.778338
-0.77169
-0.766987
-0.759765
-0.754325
-0.74705
-0.742161
-0.733702
-0.837098
-0.832026
-0.827948
-0.823032
-0.818237
-0.810597
-0.80627
-0.801226
-0.795792
-0.792337
-0.787667
-0.780776
-0.773226
-0.769293
-0.763255
-0.757955
-0.747641
-0.745552
-0.848258
-0.842813
-0.840366
-0.8357
-0.831269
-0.826711
-0.82098
-0.816547
-0.810115
-0.805073
-0.799398
-0.794283
-0.790041
-0.785239
-0.776151
-0.772034
-0.769941
-0.762757
-0.856856
-0.849673
-0.846102
-0.842265
-0.838535
-0.833763
-0.829891
-0.824662
-0.818522
-0.812851
-0.808226
-0.803023
-0.797379
-0.793252
-0.788555
-0.780592
-0.774752
-0.769064
-0.869149
-0.866398
-0.861642
-0.85525
-0.850639
-0.846783
-0.842246
-0.838369
-0.83269
-0.827546
-0.822862
-0.815185
-0.810389
-0.805446
-0.801199
-0.797632
-0.791764
-0.787507
-0.874859
-0.870044
-0.868756
-0.859307
-0.855269
-0.852395
-0.849148
-0.844391
-0.840211
-0.834611
-0.831237
-0.827485
-0.819957
-0.814714
-0.808101
-0.803085
-0.799162
-0.889594
-0.88384
-0.879522
-0.873381
-0.867463
-0.862166
-0.857846
-0.85523
-0.851681
-0.846738
-0.842635
-0.838014
-0.834243
-0.830736
-0.824308
-0.81805
-0.811631
-0.806817
-0.896607
-0.892997
-0.887109
-0.88273
-0.877333
-0.871499
-0.866028
-0.861276
-0.858383
-0.855983
-0.850889
-0.845916
-0.841263
-0.837408
-0.832738
-0.828809
-0.822183
-0.815323
-0.906226
-0.900146
-0.896092
-0.890759
-0.886135
-0.880962
-0.875403
-0.869335
-0.864679
-0.860642
-0.857654
-0.854345
-0.849609
-0.845058
-0.840197
-0.832231
-0.831256
-0.826392
-0.919632
-0.914283
-0.909346
-0.903732
-0.899238
-0.894586
-0.889219
-0.883936
-0.878229
-0.873573
-0.868277
-0.862926
-0.859657
-0.855946
-0.85361
-0.847404
-0.844311
-0.841752
-0.933361
-0.928247
-0.923023
-0.917227
-0.911155
-0.906084
-0.902036
-0.897321
-0.892625
-0.886825
-0.881449
-0.877196
-0.873518
-0.867466
-0.863516
-0.858862
-0.855368
-0.852701
-0.942219
-0.937675
-0.932838
-0.927186
-0.921109
-0.914588
-0.909481
-0.90561
-0.900481
-0.89512
-0.890118
-0.885271
-0.880513
-0.876846
-0.871794
-0.868126
-0.862808
-0.859603
-0.954027
-0.950509
-0.946022
-0.941707
-0.936698
-0.93125
-0.925002
-0.918414
-0.912882
-0.909457
-0.904153
-0.898753
-0.893883
-0.888971
-0.883336
-0.879391
-0.878438
-0.869471
-0.960711
-0.958106
-0.954727
-0.950305
-0.945689
-0.94055
-0.935044
-0.929477
-0.922847
-0.916466
-0.912214
-0.907705
-0.902178
-0.897011
-0.892646
-0.885364
-0.880834
-0.878149
-0.969505
-0.965486
-0.961904
-0.957967
-0.954213
-0.949796
-0.944074
-0.938475
-0.933184
-0.927191
-0.920751
-0.915146
-0.910242
-0.905415
-0.900854
-0.89657
-0.890978
-0.885399
-0.977568
-0.972983
-0.968899
-0.966278
-0.961066
-0.957277
-0.953496
-0.948843
-0.942128
-0.936963
-0.931559
-0.925547
-0.919934
-0.914918
-0.910076
-0.905825
-0.901099
-0.894988
-0.995464
-0.989064
-0.981866
-0.97596
-0.971326
-0.968952
-0.964324
-0.960511
-0.956382
-0.952866
-0.946527
-0.940468
-0.935811
-0.930374
-0.925105
-0.919934
-0.914915
-0.911285
-0.999855
-0.997355
-0.993756
-0.987658
-0.980963
-0.976114
-0.972247
-0.967739
-0.963585
-0.959528
-0.95633
-0.95125
-0.944616
-0.939349
-0.934322
-0.929635
-0.924676
-0.919257
-1.01023
-1.00481
-1.0005
-0.9964
-0.992439
-0.986692
-0.980033
-0.975373
-0.970885
-0.966261
-0.962345
-0.958598
-0.954145
-0.948929
-0.943039
-0.937468
-0.932071
-0.925554
-1.01891
-1.01396
-1.00876
-1.00417
-0.999787
-0.995235
-0.991258
-0.985598
-0.979654
-0.974974
-0.970055
-0.965519
-0.961314
-0.956442
-0.952238
-0.947503
-0.942188
-1.02838
-1.02619
-1.02141
-1.0168
-1.01246
-1.00736
-1.003
-0.998678
-0.994635
-0.989946
-0.983606
-0.978528
-0.973838
-0.969552
-0.96501
-0.960144
-0.955255
-0.950707
-1.03699
-1.03266
-1.02814
-1.02415
-1.02038
-1.01621
-1.01164
-1.00676
-1.00247
-0.998201
-0.993917
-0.989075
-0.98277
-0.978072
-0.973502
-0.96865
-0.964917
-0.958981
-1.04449
-1.04087
-1.03623
-1.03139
-1.02709
-1.02316
-1.01962
-1.01509
-1.00996
-1.00625
-1.00176
-0.997644
-0.99414
-0.987383
-0.98189
-0.977101
-0.970612
-0.966691
-1.05798
-1.05475
-1.04882
-1.04409
-1.03891
-1.03399
-1.02996
-1.02606
-1.02257
-1.01814
-1.01382
-1.00954
-1.00538
-1.00063
-0.996919
-0.991541
-0.986209
-0.980823
-1.06846
-1.06386
-1.05878
-1.05373
-1.04811
-1.04223
-1.03678
-1.03277
-1.02914
-1.02546
-1.0207
-1.01681
-1.01313
-1.00889
-1.00404
-0.999992
-0.995426
-0.990686
-1.07473
-1.07184
-1.06749
-1.06262
-1.05802
-1.05256
-1.04692
-1.04113
-1.03611
-1.03314
-1.03005
-1.02509
-1.02082
-1.01743
-1.01244
-1.00747
-1.00357
-0.998398
-1.08521
-1.07919
-1.07508
-1.07066
-1.06649
-1.06211
-1.0572
-1.05205
-1.04671
-1.04049
-1.03578
-1.03304
-1.02842
-1.0245
-1.02046
-1.01625
-1.01105
-1.00812
-1.09162
-1.08695
-1.08284
-1.0786
-1.0742
-1.06986
-1.06582
-1.06029
-1.05522
-1.05127
-1.04589
-1.0402
-1.03664
-1.03191
-1.02777
-1.02352
-1.01992
-1.10244
-1.09852
-1.0952
-1.09189
-1.08739
-1.08288
-1.07779
-1.07284
-1.0686
-1.06333
-1.05802
-1.05466
-1.05073
-1.04513
-1.04026
-1.03663
-1.03167
-1.02704
-1.11206
-1.10819
-1.10322
-1.09929
-1.0953
-1.09095
-1.08739
-1.08261
-1.07717
-1.07126
-1.06587
-1.06078
-1.05699
-1.05387
-1.04852
-1.0436
-1.04021
-1.03552
-1.1196
-1.11568
-1.11165
-1.10736
-1.10381
-1.09913
-1.09436
-1.09082
-1.087
-1.0833
-1.07629
-1.06952
-1.06412
-1.05959
-1.05615
-1.05158
-1.04747
-1.04326
-1.12871
-1.12415
-1.11913
-1.11516
-1.11129
-1.10772
-1.10284
-1.09804
-1.09397
-1.08963
-1.08627
-1.08221
-1.07503
-1.06889
-1.06389
-1.05985
-1.05569
-1.05142
-1.13553
-1.13227
-1.12796
-1.12287
-1.11874
-1.115
-1.11081
-1.10606
-1.10128
-1.0964
-1.09276
-1.08945
-1.08585
-1.08043
-1.07449
-1.06947
-1.06484
-1.05969
-1.14305
-1.1397
-1.13577
-1.13117
-1.12641
-1.12255
-1.11871
-1.11466
-1.10978
-1.10506
-1.09978
-1.09537
-1.09187
-1.08861
-1.0838
-1.07865
-1.07359
-1.06925
-1.15071
-1.14746
-1.14365
-1.13966
-1.13464
-1.13018
-1.12633
-1.12223
-1.11769
-1.11307
-1.10835
-1.10359
-1.09887
-1.09501
-1.09131
-1.08677
-1.08206
-1.0788
-1.15823
-1.15418
-1.15038
-1.14673
-1.14463
-1.13802
-1.13302
-1.12962
-1.12602
-1.12195
-1.11749
-1.1116
-1.10755
-1.10304
-1.09874
-1.09485
-1.09092
-1.08432
-1.16989
-1.16494
-1.16171
-1.15701
-1.15333
-1.15008
-1.14765
-1.14283
-1.13744
-1.13301
-1.12955
-1.12475
-1.12121
-1.11659
-1.11145
-1.10697
-1.10243
-1.09856
-1.09515
-1.18
-1.17376
-1.16847
-1.16444
-1.16043
-1.15641
-1.15341
-1.14952
-1.14571
-1.14013
-1.13561
-1.13231
-1.12792
-1.12461
-1.1208
-1.11548
-1.11109
-1.10601
-1.18295
-1.17814
-1.17306
-1.16855
-1.1637
-1.15934
-1.15642
-1.15336
-1.14911
-1.14375
-1.13902
-1.13495
-1.13107
-1.12746
-1.12356
-1.11969
-1.11508
-1.19664
-1.19135
-1.18607
-1.18139
-1.17651
-1.17173
-1.16674
-1.16251
-1.15972
-1.1565
-1.15268
-1.14787
-1.14327
-1.13919
-1.13473
-1.13054
-1.12652
-1.12332
-1.20319
-1.2005
-1.19538
-1.19031
-1.18539
-1.18065
-1.17596
-1.17024
-1.1655
-1.16286
-1.15993
-1.15623
-1.15161
-1.1474
-1.14263
-1.13875
-1.13412
-1.13062
-1.21667
-1.20834
-1.20421
-1.19974
-1.19471
-1.18942
-1.18479
-1.18091
-1.1759
-1.17051
-1.16598
-1.16306
-1.15893
-1.15476
-1.15078
-1.14656
-1.14243
-1.13728
-1.21717
-1.21289
-1.20923
-1.20469
-1.19931
-1.1937
-1.18893
-1.18537
-1.18049
-1.17526
-1.16949
-1.16583
-1.16165
-1.15784
-1.1538
-1.14968
-1.14488
-1.22704
-1.22281
-1.21844
-1.21346
-1.20887
-1.2037
-1.19762
-1.19267
-1.18921
-1.18502
-1.18007
-1.17458
-1.1693
-1.16511
-1.16139
-1.1568
-1.1522
-1.24032
-1.23291
-1.22964
-1.22655
-1.22233
-1.21731
-1.21283
-1.20835
-1.20194
-1.19614
-1.19225
-1.1887
-1.18478
-1.17914
-1.17366
-1.16901
-1.16565
-1.16169
-1.24639
-1.24319
-1.2376
-1.2339
-1.2301
-1.22516
-1.22046
-1.21632
-1.21171
-1.2069
-1.20149
-1.19665
-1.19185
-1.18793
-1.1833
-1.17848
-1.17198
-1.25648
-1.25103
-1.24611
-1.24159
-1.23818
-1.23446
-1.22908
-1.22352
-1.22006
-1.21589
-1.21077
-1.20573
-1.20083
-1.19585
-1.1921
-1.1873
-1.18385
-1.26627
-1.26281
-1.25913
-1.25494
-1.25046
-1.24638
-1.24209
-1.23845
-1.23307
-1.22815
-1.22299
-1.21865
-1.2141
-1.20933
-1.20524
-1.20004
-1.19564
-1.19147
-1.27453
-1.27003
-1.26717
-1.26276
-1.2586
-1.2541
-1.24966
-1.24578
-1.24163
-1.23578
-1.23168
-1.22582
-1.2206
-1.2167
-1.212
-1.20758
-1.20278
-1.19784
-1.28383
-1.27849
-1.2735
-1.26998
-1.26651
-1.26258
-1.25745
-1.2519
-1.24831
-1.24527
-1.23931
-1.23383
-1.22851
-1.22359
-1.21991
-1.21547
-1.21077
-1.20602
-1.29013
-1.28749
-1.28247
-1.2781
-1.27406
-1.27039
-1.26617
-1.26116
-1.25511
-1.25102
-1.24789
-1.24236
-1.2368
-1.23152
-1.22643
-1.22286
-1.21865
-1.21388
-1.29667
-1.29537
-1.29346
-1.28953
-1.28551
-1.28155
-1.27763
-1.27332
-1.26982
-1.26497
-1.25993
-1.25515
-1.25017
-1.24558
-1.2407
-1.23494
-1.23132
-1.22901
-1.2225
-1.31215
-1.30413
-1.30121
-1.29829
-1.2939
-1.2894
-1.28557
-1.28135
-1.27678
-1.27269
-1.26856
-1.26325
-1.25844
-1.25421
-1.24955
-1.24462
-1.23871
-1.23457
-1.23083
-1.31614
-1.30939
-1.30626
-1.30253
-1.29817
-1.29374
-1.28963
-1.28474
-1.28023
-1.276
-1.27185
-1.26658
-1.26179
-1.2576
-1.2533
-1.24876
-1.24335
-1.23868
-1.32327
-1.31773
-1.31259
-1.30945
-1.30618
-1.30253
-1.29843
-1.29343
-1.28904
-1.28415
-1.28049
-1.27529
-1.27032
-1.26589
-1.26178
-1.25822
-1.25423
-1.33296
-1.32679
-1.32158
-1.31739
-1.31371
-1.30988
-1.30584
-1.30233
-1.29786
-1.29361
-1.28841
-1.28446
-1.27986
-1.27467
-1.27037
-1.26547
-1.26205
-1.34085
-1.3355
-1.33089
-1.32671
-1.3227
-1.31919
-1.31458
-1.30921
-1.30485
-1.30111
-1.29702
-1.29229
-1.28809
-1.28353
-1.27851
-1.27435
-1.27013
-1.35155
-1.35001
-1.34664
-1.34114
-1.33622
-1.33155
-1.32711
-1.32318
-1.31865
-1.31347
-1.30831
-1.30437
-1.30069
-1.2961
-1.29156
-1.28751
-1.28296
-1.27615
-1.35775
-1.35366
-1.3522
-1.34803
-1.34422
-1.33972
-1.33605
-1.33269
-1.32706
-1.32231
-1.31718
-1.31176
-1.30692
-1.30318
-1.29974
-1.29549
-1.29132
-1.36604
-1.36198
-1.35751
-1.35355
-1.35
-1.34619
-1.3424
-1.33845
-1.33489
-1.33023
-1.32526
-1.32027
-1.31524
-1.31086
-1.30599
-1.30232
-1.29825
-1.37721
-1.37067
-1.36603
-1.36105
-1.35684
-1.35264
-1.34813
-1.34513
-1.34103
-1.33693
-1.33299
-1.3282
-1.32302
-1.31875
-1.31435
-1.30897
-1.30631
-1.38386
-1.37972
-1.37465
-1.37038
-1.36636
-1.36131
-1.35552
-1.3519
-1.34839
-1.34425
-1.34021
-1.33632
-1.33175
-1.32712
-1.32269
-1.31795
-1.31308
-1.39428
-1.38804
-1.38363
-1.37903
-1.37472
-1.3708
-1.36665
-1.36041
-1.35523
-1.35208
-1.34828
-1.344
-1.34003
-1.33541
-1.33097
-1.32702
-1.32197
-1.40304
-1.39858
-1.3944
-1.38962
-1.38404
-1.37881
-1.37489
-1.37068
-1.36643
-1.36032
-1.35652
-1.35213
-1.34722
-1.34314
-1.33802
-1.33412
-1.3305
-1.40996
-1.4022
-1.39925
-1.39473
-1.3893
-1.38348
-1.37856
-1.37395
-1.3703
-1.36554
-1.36045
-1.35556
-1.35058
-1.34681
-1.33964
-1.33701
-1.41663
-1.4101
-1.40696
-1.40157
-1.39851
-1.39365
-1.38794
-1.38316
-1.37803
-1.37374
-1.36952
-1.36517
-1.35893
-1.3545
-1.3498
-1.43281
-1.43153
-1.41812
-1.41286
-1.40908
-1.40709
-1.40307
-1.39741
-1.39196
-1.38696
-1.38206
-1.37721
-1.37269
-1.36831
-1.36226
-1.35838
-1.44538
-1.43822
-1.43149
-1.42471
-1.41858
-1.41295
-1.41066
-1.40663
-1.40155
-1.39667
-1.39115
-1.38639
-1.38171
-1.37576
-1.37147
-1.36689
-1.45292
-1.45039
-1.44573
-1.43681
-1.43161
-1.42602
-1.42077
-1.41451
-1.40894
-1.40532
-1.401
-1.39722
-1.39125
-1.38578
-1.38028
-1.37742
-1.47252
-1.46327
-1.45811
-1.45542
-1.45037
-1.44215
-1.43648
-1.43184
-1.4269
-1.42353
-1.41608
-1.41161
-1.40542
-1.40101
-1.39551
-1.39084
-1.48705
-1.48143
-1.47174
-1.46426
-1.46106
-1.45535
-1.44818
-1.44155
-1.4365
-1.43134
-1.42675
-1.42254
-1.41771
-1.41105
-1.40445
-1.40058
-1.49072
-1.48701
-1.48147
-1.47701
-1.47084
-1.4657
-1.45952
-1.4529
-1.44682
-1.44123
-1.43525
-1.43191
-1.4255
-1.42222
-1.41722
-1.40954
-1.49779
-1.49668
-1.49108
-1.48477
-1.47981
-1.47548
-1.47057
-1.46331
-1.45598
-1.45052
-1.44574
-1.4409
-1.4372
-1.43521
-1.42928
-1.42173
-1.50397
-1.5049
-1.50025
-1.49539
-1.49142
-1.48627
-1.48065
-1.4735
-1.46889
-1.46102
-1.45527
-1.45038
-1.44541
-1.43971
-1.43621
-1.43364
-1.51558
-1.51149
-1.50582
-1.50119
-1.49828
-1.49372
-1.48961
-1.48508
-1.47951
-1.47241
-1.46781
-1.45878
-1.45172
-1.448
-1.44365
-1.52509
-1.52193
-1.51604
-1.50959
-1.50372
-1.50073
-1.49713
-1.49342
-1.48843
-1.48371
-1.47677
-1.47236
-1.46352
-1.45872
-1.45053
-1.4465
-1.53256
-1.52838
-1.52523
-1.52168
-1.51481
-1.50829
-1.50338
-1.50023
-1.49641
-1.49201
-1.48671
-1.48166
-1.47847
-1.47031
-1.46483
-1.45801
-1.54061
-1.53602
-1.53165
-1.52839
-1.52433
-1.51816
-1.51311
-1.50716
-1.50417
-1.49956
-1.49537
-1.48958
-1.48651
-1.48316
-1.47684
-1.54841
-1.54252
-1.53808
-1.53333
-1.52705
-1.52058
-1.51731
-1.51249
-1.50851
-1.50401
-1.50029
-1.49333
-1.48988
-1.4839
-1.55738
-1.55716
-1.54868
-1.54162
-1.53855
-1.53373
-1.52682
-1.52089
-1.51719
-1.51131
-1.5097
-1.50502
-1.49851
-1.5814
-1.57354
-1.56695
-1.56269
-1.55572
-1.54835
-1.5422
-1.53893
-1.53193
-1.52672
-1.52192
-1.51659
-1.51261
-1.50855
-1.59454
-1.58729
-1.57828
-1.57136
-1.56577
-1.56168
-1.55375
-1.54912
-1.54401
-1.53806
-1.53262
-1.5254
-1.52114
-1.51529
-1.60466
-1.5992
-1.59428
-1.5859
-1.57772
-1.57124
-1.56691
-1.55868
-1.55487
-1.54713
-1.54356
-1.53483
-1.53057
-1.52286
-1.62039
-1.61182
-1.60777
-1.5976
-1.59002
-1.58368
-1.57637
-1.57184
-1.56548
-1.5601
-1.55431
-1.5484
-1.54203
-1.53644
-1.6279
-1.62219
-1.61617
-1.60959
-1.59784
-1.58988
-1.58861
-1.58136
-1.57592
-1.56984
-1.563
-1.55861
-1.55091
-1.54758
-1.63894
-1.63466
-1.62655
-1.62237
-1.61395
-1.60646
-1.59811
-1.59394
-1.58741
-1.58114
-1.57554
-1.56703
-1.56221
-1.62675
-1.62324
-1.61065
-1.60298
-1.59537
-1.59367
-1.5862
-1.58175
-1.57322
-1.63009
-1.62684
-1.61879
-1.60944
-1.598
-1.59575
-1.58778
-1.58314
-1.64944
-1.63896
-1.63077
-1.62559
-1.6173
-1.60661
-1.60226
-1.65944
-1.65194
-1.6501
-1.63669
-1.63039
-1.62147
-1.61321
-1.65716
-1.65262
-1.64681
-1.63913
-1.62972
-1.68159
-1.6716
-1.66867
-1.6586
-1.6534
-1.64654
-1.72224
-1.70944
-1.69267
-1.68969
-1.66818
-1.7252
-1.71803
-1.70916
-1.70342
-1.69495
-1.69222
-1.74673
-1.70918
-1.70777
-1.69881
-1.69237
-1.75157
-1.7443
-1.72125
-0.197195
-0.183933
-0.16884
-0.261889
-0.256835
-0.245735
-0.230482
-0.216937
-0.202934
-0.190012
-0.17555
-0.146697
-0.316408
-0.301683
-0.29251
-0.27998
-0.270014
-0.262603
-0.253255
-0.237199
-0.220533
-0.203294
-0.191311
-0.178692
-0.168161
-0.159909
-0.150624
-0.365857
-0.354056
-0.336037
-0.323231
-0.306447
-0.295064
-0.285242
-0.274284
-0.267126
-0.256339
-0.243556
-0.229616
-0.210603
-0.196195
-0.185224
-0.172296
-0.160742
-0.154251
-0.135597
-0.12531
-0.123513
-0.0906182
-0.399313
-0.386765
-0.379263
-0.368439
-0.357922
-0.343029
-0.326876
-0.312849
-0.298478
-0.286293
-0.278752
-0.269698
-0.257998
-0.247566
-0.244463
-0.213216
-0.204784
-0.192732
-0.178819
-0.165175
-0.152041
-0.143461
-0.128237
-0.415369
-0.413716
-0.403398
-0.400021
-0.390239
-0.382131
-0.372699
-0.359982
-0.344624
-0.329994
-0.316689
-0.303405
-0.290609
-0.281139
-0.273634
-0.257622
-0.252205
-0.240484
-0.231002
-0.208606
-0.198357
-0.184347
-0.172537
-0.157409
-0.139309
-0.435221
-0.429051
-0.420168
-0.414626
-0.406762
-0.408826
-0.402223
-0.388724
-0.37424
-0.356306
-0.34473
-0.334613
-0.323412
-0.308708
-0.296449
-0.282992
-0.274475
-0.260519
-0.254744
-0.251324
-0.239833
-0.215557
-0.204479
-0.191186
-0.17595
-0.459267
-0.449849
-0.439888
-0.430898
-0.426913
-0.420237
-0.413926
-0.409261
-0.3994
-0.392604
-0.380783
-0.363241
-0.346683
-0.338818
-0.331958
-0.31714
-0.304961
-0.286083
-0.277672
-0.265918
-0.257052
-0.256489
-0.245664
-0.224352
-0.210553
-0.480927
-0.471841
-0.465536
-0.457918
-0.446749
-0.436749
-0.429334
-0.422186
-0.416528
-0.411981
-0.403258
-0.394379
-0.384813
-0.371878
-0.354829
-0.341907
-0.338597
-0.319367
-0.30829
-0.292145
-0.280875
-0.269976
-0.261154
-0.253969
-0.239486
-0.505299
-0.509604
-0.494501
-0.483658
-0.475912
-0.4687
-0.460178
-0.451587
-0.441382
-0.434128
-0.426001
-0.41955
-0.411014
-0.405874
-0.396756
-0.388104
-0.376193
-0.359062
-0.351094
-0.34271
-0.330352
-0.310159
-0.29886
-0.288003
-0.275705
-0.267938
-0.527597
-0.523441
-0.516085
-0.513362
-0.505541
-0.492244
-0.485452
-0.478753
-0.472176
-0.462966
-0.455416
-0.447755
-0.440041
-0.431049
-0.42216
-0.413154
-0.404917
-0.398499
-0.391573
-0.380643
-0.362671
-0.350969
-0.338631
-0.327312
-0.313744
-0.303779
-0.297014
-0.537488
-0.53369
-0.527692
-0.520171
-0.513409
-0.505925
-0.495924
-0.488884
-0.481831
-0.475007
-0.46793
-0.458315
-0.450609
-0.444659
-0.43642
-0.424977
-0.415265
-0.407985
-0.400957
-0.39016
-0.379735
-0.383778
-0.356016
-0.34335
-0.328159
-0.566261
-0.561494
-0.549251
-0.541873
-0.535938
-0.531572
-0.521797
-0.515683
-0.508307
-0.498627
-0.490584
-0.4834
-0.475473
-0.468667
-0.460521
-0.454507
-0.449238
-0.441452
-0.429572
-0.419811
-0.412179
-0.403349
-0.393236
-0.392877
-0.375206
-0.578374
-0.569093
-0.560106
-0.55193
-0.54615
-0.538928
-0.532258
-0.525276
-0.516984
-0.50869
-0.501982
-0.491828
-0.484888
-0.477247
-0.468866
-0.462133
-0.456836
-0.451814
-0.445009
-0.435054
-0.425467
-0.416295
-0.40766
-0.396563
-0.610749
-0.598605
-0.595588
-0.581526
-0.575599
-0.564452
-0.556644
-0.549343
-0.542312
-0.533544
-0.526897
-0.519022
-0.510454
-0.503739
-0.496806
-0.487104
-0.478593
-0.471031
-0.46367
-0.457718
-0.45435
-0.442225
-0.434709
-0.428201
-0.41918
-0.624368
-0.620386
-0.614396
-0.604275
-0.594452
-0.586374
-0.578891
-0.568072
-0.560873
-0.552583
-0.546148
-0.537126
-0.528774
-0.520983
-0.513986
-0.507614
-0.499034
-0.489517
-0.481492
-0.474968
-0.466227
-0.460736
-0.451892
-0.441976
-0.436362
-0.64243
-0.636251
-0.628968
-0.623441
-0.616795
-0.608896
-0.598709
-0.591107
-0.5834
-0.57528
-0.564982
-0.557773
-0.55071
-0.540458
-0.532001
-0.524918
-0.517015
-0.510612
-0.500719
-0.491225
-0.483699
-0.476423
-0.467967
-0.460738
-0.458336
-0.66699
-0.66016
-0.651714
-0.645308
-0.639568
-0.633312
-0.627288
-0.620215
-0.612434
-0.603244
-0.59477
-0.587977
-0.581469
-0.572516
-0.562827
-0.555164
-0.54483
-0.537012
-0.52991
-0.521426
-0.513783
-0.504073
-0.494831
-0.486117
-0.476052
-0.468034
-0.681637
-0.672115
-0.668092
-0.662308
-0.655529
-0.647979
-0.641944
-0.637556
-0.631167
-0.623849
-0.616068
-0.607173
-0.5985
-0.592265
-0.58605
-0.577907
-0.568171
-0.55908
-0.548752
-0.541154
-0.532613
-0.523073
-0.516045
-0.507471
-0.498619
-0.490843
-0.684737
-0.685498
-0.683718
-0.677813
-0.672288
-0.666019
-0.658996
-0.651533
-0.644821
-0.639047
-0.633458
-0.62686
-0.619115
-0.610778
-0.602899
-0.595638
-0.589241
-0.581136
-0.573018
-0.563718
-0.552924
-0.546525
-0.537514
-0.528556
-0.521105
-0.513213
-0.501665
-0.711107
-0.700731
-0.69432
-0.690295
-0.685264
-0.680907
-0.675437
-0.669523
-0.662309
-0.654681
-0.647975
-0.641591
-0.635311
-0.629197
-0.622134
-0.614393
-0.607496
-0.599861
-0.591732
-0.584764
-0.577085
-0.567729
-0.559688
-0.551484
-0.54275
-0.532838
-0.529123
-0.71705
-0.71218
-0.705616
-0.699678
-0.693677
-0.688616
-0.683546
-0.677849
-0.672017
-0.665441
-0.658211
-0.651373
-0.644831
-0.638341
-0.631949
-0.625179
-0.617764
-0.610774
-0.603446
-0.594354
-0.587174
-0.581428
-0.572778
-0.56569
-0.558378
-0.54845
-0.729184
-0.726543
-0.721626
-0.715436
-0.709143
-0.703566
-0.69725
-0.691042
-0.686178
-0.680701
-0.675273
-0.669216
-0.661643
-0.654435
-0.647646
-0.641431
-0.635215
-0.628482
-0.621729
-0.614935
-0.606476
-0.598416
-0.589976
-0.582749
-0.577243
-0.570226
-0.749366
-0.740785
-0.734336
-0.729805
-0.72379
-0.717825
-0.712684
-0.70658
-0.700173
-0.693919
-0.688508
-0.68302
-0.6785
-0.673117
-0.665823
-0.657562
-0.650418
-0.644237
-0.638134
-0.631932
-0.626341
-0.618866
-0.610986
-0.60246
-0.594629
-0.58749
-0.762735
-0.752615
-0.745374
-0.739254
-0.734301
-0.727705
-0.721541
-0.715671
-0.709711
-0.702991
-0.696598
-0.691069
-0.686002
-0.682638
-0.677275
-0.669874
-0.661556
-0.654041
-0.647437
-0.640841
-0.634815
-0.62992
-0.622693
-0.615745
-0.607665
-0.776475
-0.770242
-0.764808
-0.757274
-0.748771
-0.742226
-0.736976
-0.73119
-0.724615
-0.718362
-0.712402
-0.706322
-0.699871
-0.694138
-0.688968
-0.68605
-0.68121
-0.673589
-0.665751
-0.658051
-0.651369
-0.644618
-0.638463
-0.633396
-0.627047
-0.617389
-0.786497
-0.783006
-0.77829
-0.773642
-0.768387
-0.761278
-0.753544
-0.746481
-0.74084
-0.734317
-0.727541
-0.721004
-0.715209
-0.709263
-0.702983
-0.697245
-0.692577
-0.688573
-0.684089
-0.676989
-0.669434
-0.662156
-0.655343
-0.648466
-0.642676
-0.633356
-0.799612
-0.795593
-0.791708
-0.787135
-0.782406
-0.777356
-0.771566
-0.764359
-0.757723
-0.751358
-0.744863
-0.739005
-0.73229
-0.724882
-0.718475
-0.712558
-0.706525
-0.700497
-0.695483
-0.690375
-0.686565
-0.678643
-0.67321
-0.666024
-0.659956
-0.653147
-0.6466
-0.809957
-0.805643
-0.800101
-0.795355
-0.790192
-0.785837
-0.780857
-0.77506
-0.768218
-0.761775
-0.755377
-0.748921
-0.743032
-0.73662
-0.729433
-0.722941
-0.716444
-0.709748
-0.704149
-0.699061
-0.693836
-0.689048
-0.682404
-0.676004
-0.669134
-0.662249
-0.819353
-0.815337
-0.811291
-0.807388
-0.803169
-0.798812
-0.793317
-0.788639
-0.78376
-0.778287
-0.772223
-0.765361
-0.759061
-0.752325
-0.747552
-0.740483
-0.733416
-0.726768
-0.719809
-0.712615
-0.707805
-0.702575
-0.695872
-0.690977
-0.687704
-0.680964
-0.829337
-0.824368
-0.820069
-0.814812
-0.810216
-0.804697
-0.80076
-0.795982
-0.791036
-0.786552
-0.781478
-0.775198
-0.767885
-0.761908
-0.756176
-0.750705
-0.743985
-0.737787
-0.731165
-0.723389
-0.716424
-0.711889
-0.7061
-0.700102
-0.69683
-0.84214
-0.837576
-0.83255
-0.82828
-0.823947
-0.818503
-0.812828
-0.808068
-0.802337
-0.798189
-0.792631
-0.788368
-0.784094
-0.77794
-0.771108
-0.764859
-0.76039
-0.75365
-0.746817
-0.741328
-0.734495
-0.727877
-0.720918
-0.71603
-0.710455
-0.850452
-0.84628
-0.841098
-0.836235
-0.831772
-0.827715
-0.822359
-0.816796
-0.812346
-0.80546
-0.801296
-0.795528
-0.790771
-0.786623
-0.780523
-0.77373
-0.767271
-0.762888
-0.757906
-0.749778
-0.74411
-0.737355
-0.731696
-0.725591
-0.719014
-0.863621
-0.85827
-0.853912
-0.849407
-0.844259
-0.839646
-0.835252
-0.830905
-0.825836
-0.820031
-0.815382
-0.809637
-0.804424
-0.798569
-0.793853
-0.789717
-0.783714
-0.777756
-0.770889
-0.765017
-0.761843
-0.754032
-0.747516
-0.740991
-0.733644
-0.870459
-0.865434
-0.860844
-0.856186
-0.852345
-0.847363
-0.842856
-0.838679
-0.834159
-0.829623
-0.823862
-0.818395
-0.812458
-0.806745
-0.80173
-0.797734
-0.792613
-0.787794
-0.782386
-0.775409
-0.768441
-0.764364
-0.759095
-0.751892
-0.745793
-0.882689
-0.877477
-0.872933
-0.86812
-0.863355
-0.858277
-0.854804
-0.850898
-0.846409
-0.841862
-0.836932
-0.832817
-0.827271
-0.822687
-0.816445
-0.810491
-0.804752
-0.799932
-0.795437
-0.79038
-0.786075
-0.779927
-0.77309
-0.767386
-0.764386
-0.891178
-0.886207
-0.881413
-0.876255
-0.870788
-0.865046
-0.860136
-0.856011
-0.851927
-0.848458
-0.844838
-0.840145
-0.835425
-0.830628
-0.826534
-0.82042
-0.814711
-0.808848
-0.804077
-0.799013
-0.792993
-0.788299
-0.782909
-0.778757
-0.902792
-0.899342
-0.894312
-0.889437
-0.884807
-0.879865
-0.874198
-0.867813
-0.862042
-0.858217
-0.855152
-0.851375
-0.846968
-0.84313
-0.838582
-0.834629
-0.829944
-0.824169
-0.818225
-0.812182
-0.807592
-0.802857
-0.795968
-0.791219
-0.789436
-0.913019
-0.908238
-0.902803
-0.897523
-0.892805
-0.887875
-0.882464
-0.877335
-0.871314
-0.865158
-0.860142
-0.856993
-0.8549
-0.850544
-0.846914
-0.841799
-0.837843
-0.832721
-0.827389
-0.821582
-0.815535
-0.810494
-0.806028
-0.798899
-0.924592
-0.921313
-0.916297
-0.910784
-0.905862
-0.900946
-0.89587
-0.891022
-0.885797
-0.880443
-0.874825
-0.868815
-0.86336
-0.858939
-0.856126
-0.85312
-0.849833
-0.844972
-0.840773
-0.83541
-0.830162
-0.825004
-0.819463
-0.814642
-0.810711
-0.933994
-0.929485
-0.924877
-0.919845
-0.914529
-0.908972
-0.904026
-0.899043
-0.894135
-0.888848
-0.883577
-0.878494
-0.873033
-0.867989
-0.86301
-0.859102
-0.855614
-0.851701
-0.848058
-0.843587
-0.839015
-0.833297
-0.828704
-0.824277
-0.944859
-0.942009
-0.937863
-0.933551
-0.928339
-0.923514
-0.917689
-0.911932
-0.906821
-0.902141
-0.897276
-0.892004
-0.886647
-0.881432
-0.876723
-0.872391
-0.867671
-0.863555
-0.859497
-0.85501
-0.8517
-0.846864
-0.842194
-0.836688
-0.829166
-0.954631
-0.950497
-0.94653
-0.941884
-0.937046
-0.932136
-0.927096
-0.921391
-0.915446
-0.910257
-0.905684
-0.900944
-0.896045
-0.890554
-0.885047
-0.880328
-0.875995
-0.871855
-0.867577
-0.862817
-0.85873
-0.854775
-0.849607
-0.845432
-0.962253
-0.957813
-0.954305
-0.950084
-0.945814
-0.941082
-0.936019
-0.930828
-0.925133
-0.919239
-0.913905
-0.909265
-0.904447
-0.899227
-0.893957
-0.88887
-0.883531
-0.879134
-0.875644
-0.871111
-0.866007
-0.862323
-0.857784
-0.851251
-0.976762
-0.970448
-0.965895
-0.961687
-0.957798
-0.953981
-0.949711
-0.945013
-0.939977
-0.934703
-0.929175
-0.923296
-0.917687
-0.912688
-0.907741
-0.902528
-0.897573
-0.892837
-0.887128
-0.882211
-0.878909
-0.874893
-0.869256
-0.866291
-0.861518
-0.986288
-0.980442
-0.974659
-0.97027
-0.965837
-0.961571
-0.957533
-0.953263
-0.948682
-0.943755
-0.938517
-0.933116
-0.927441
-0.921737
-0.916361
-0.911279
-0.906273
-0.901402
-0.896808
-0.891774
-0.886838
-0.882488
-0.877545
-0.870492
-0.993138
-0.990285
-0.983912
-0.978336
-0.973204
-0.969082
-0.965291
-0.961026
-0.956716
-0.952171
-0.947509
-0.94239
-0.937045
-0.93159
-0.926074
-0.920685
-0.915431
-0.910382
-0.90552
-0.900698
-0.895361
-0.891143
-0.885858
-0.883589
-1.00185
-0.997274
-0.993641
-0.988852
-0.982996
-0.977334
-0.972694
-0.968542
-0.964444
-0.960118
-0.955566
-0.951192
-0.946235
-0.940851
-0.935608
-0.930357
-0.925234
-0.920139
-0.914988
-0.910063
-0.905201
-0.900012
-0.894221
-1.01622
-1.01156
-1.00599
-1.00129
-0.99708
-0.992718
-0.987585
-0.981996
-0.976771
-0.972345
-0.967923
-0.963474
-0.958935
-0.954726
-0.950037
-0.944706
-0.939396
-0.934245
-0.929297
-0.924384
-0.919747
-0.914118
-0.909945
-0.907124
-1.02492
-1.01946
-1.01463
-1.01008
-1.00543
-1.00058
-0.996125
-0.991489
-0.986327
-0.980988
-0.97609
-0.971476
-0.966889
-0.962381
-0.95798
-0.953328
-0.9484
-0.943081
-0.938092
-0.932951
-0.927947
-0.923885
-0.917034
-0.913964
-1.03069
-1.02726
-1.02222
-1.01755
-1.01326
-1.00892
-1.00426