/*--------------------------------*- C++ -*----------------------------------*\
  =========                 |
  \\      /  F ield         | OpenFOAM: The Open Source CFD Toolbox
   \\    /   O peration     | Website:  https://openfoam.org
    \\  /    A nd           | Version:  8
     \\/     M anipulation  |
\*---------------------------------------------------------------------------*/
FoamFile
{
    version     2.0;
    format      ascii;
    class       volScalarField;
    location    "120";
    object      p;
}
// * * * * * * * * * * * * * * * * * * * * * * * * * * * * * * * * * * * * * //

dimensions      [0 2 -2 0 0 0 0];

internalField   nonuniform List<scalar> 
404911
(
2.95032
2.94623
2.94633
2.94154
2.95089
2.94355
2.94274
2.94458
2.94369
2.94294
2.97357
2.97121
2.96558
2.95418
2.94439
2.94357
2.97922
2.97331
2.97108
2.96655
2.98579
2.97928
2.97309
2.9898
2.9856
2.97803
2.99094
2.98517
2.98335
3.0044
2.99915
2.9894
2.98114
2.98133
3.00898
2.99897
2.98761
3.02727
3.0181
3.00715
2.99856
3.03603
3.02875
3.01795
3.00729
2.99766
3.03729
3.02854
3.01925
3.00959
3.05259
3.03919
3.02863
3.02132
3.05422
3.04262
3.06474
2.94915
2.9535
2.94829
2.97138
2.96294
2.9785
2.97363
2.97063
2.98621
2.97901
2.97522
2.98886
2.98518
2.99043
2.9858
2.9829
2.99793
2.98912
2.98727
2.98375
3.00538
2.99823
3.01428
3.00514
3.02567
3.0173
3.00678
3.03728
3.02779
3.04792
3.03826
3.03023
3.04682
3.04081
3.06345
3.06846
3.06141
3.08608
3.07483
3.06935
3.09523
3.08443
3.07428
3.10325
3.09681
3.08775
3.09729
1.83907
1.82048
1.80157
1.93275
1.92321
1.88053
1.86961
1.84797
1.82589
1.79874
1.78637
1.98148
1.95777
1.91657
1.89481
1.87076
1.85292
1.82449
1.80241
1.76348
2.03852
2.02038
2.00558
1.98542
1.96488
1.9436
1.9218
1.8987
1.87445
1.85118
1.83062
1.80951
1.77893
1.74495
1.74612
1.73647
2.07413
2.05999
2.04278
2.0249
2.00738
1.99034
1.9705
1.94596
1.91798
1.91121
1.88325
1.85317
1.83565
1.80378
1.75142
2.11211
2.09547
2.08266
2.06587
2.04777
2.0293
2.01261
1.99569
1.9775
1.9555
1.92775
1.90548
1.88968
1.85743
1.83716
2.13549
2.12005
2.1033
2.0902
2.07295
2.05385
2.03559
2.01655
1.99841
1.98425
1.96263
1.94138
1.91619
1.89259
1.86729
1.85114
2.17398
2.15622
2.14228
2.12695
2.11132
2.098
2.08126
2.06276
2.04346
2.0209
2.00227
1.98752
1.9672
1.94482
1.92123
1.89847
1.87907
2.20864
2.19767
2.18709
2.17544
2.16018
2.14623
2.13413
2.11686
2.10228
2.08425
2.06823
2.04402
2.02611
2.00858
1.99284
1.97079
1.95087
1.92965
2.22483
2.21602
2.20143
2.19226
2.18071
2.16374
2.15019
2.13455
2.12108
2.10518
2.09241
2.07379
2.04533
2.03033
2.01594
1.99725
1.97982
1.95579
2.25868
2.24113
2.22757
2.2142
2.2056
2.19318
2.18059
2.16784
2.15447
2.13913
2.12365
2.10832
2.09287
2.07448
2.05189
2.03686
2.02103
2.00326
2.28488
2.26362
2.24691
2.23112
2.21913
2.20728
2.19476
2.18272
2.16813
2.15451
2.14287
2.12704
2.11261
2.09555
2.07794
2.05968
2.03535
2.32235
2.3045
2.28467
2.26894
2.25246
2.2391
2.22628
2.20947
2.1959
2.18523
2.17153
2.15897
2.14442
2.12866
2.11385
2.09803
2.08231
2.35175
2.33641
2.32181
2.30879
2.29398
2.27403
2.25665
2.2441
2.23084
2.21641
2.20052
2.18848
2.17511
2.16309
2.14894
2.13226
2.11735
2.10272
2.3751
2.36363
2.35327
2.34098
2.32467
2.3107
2.29629
2.27996
2.26533
2.2513
2.23742
2.22274
2.2072
2.1926
2.18054
2.1649
2.15143
2.13789
2.40162
2.38713
2.37736
2.36872
2.3589
2.34476
2.32983
2.3107
2.29664
2.28177
2.26751
2.25452
2.24271
2.22841
2.21147
2.19574
2.18531
2.17021
2.41897
2.40375
2.38923
2.37831
2.36666
2.35947
2.34617
2.33185
2.31287
2.29839
2.28355
2.27013
2.2549
2.24428
2.23082
2.21785
2.20088
2.1868
2.44326
2.43165
2.41827
2.40615
2.39418
2.38099
2.36815
2.35736
2.34451
2.33196
2.31582
2.304
2.28797
2.27674
2.25735
2.24166
2.22378
2.21061
2.46166
2.44831
2.4356
2.42377
2.41242
2.39847
2.38855
2.37553
2.35612
2.3426
2.32925
2.31792
2.30614
2.29067
2.27724
2.25949
2.24541
2.22843
2.48447
2.47502
2.46441
2.45525
2.44179
2.42823
2.41565
2.40466
2.39258
2.38017
2.35897
2.34383
2.33164
2.31908
2.312
2.2944
2.27641
2.25795
2.50148
2.48759
2.47985
2.47235
2.4615
2.44539
2.4307
2.41841
2.40688
2.39323
2.38262
2.36144
2.34663
2.33409
2.32273
2.31254
2.29727
2.51716
2.5049
2.49631
2.48898
2.48164
2.47532
2.46388
2.45102
2.43607
2.4214
2.40824
2.39489
2.38202
2.36349
2.34938
2.33689
2.32428
2.31004
2.5294
2.51635
2.50714
2.49748
2.48933
2.48215
2.47672
2.46717
2.45475
2.44295
2.42659
2.41196
2.3969
2.38214
2.36679
2.35095
2.33616
2.32584
2.54306
2.52899
2.51638
2.50729
2.49813
2.49104
2.48398
2.47841
2.46708
2.457
2.44709
2.43299
2.41754
2.39973
2.3856
2.37737
2.35267
2.34146
2.57497
2.55599
2.54201
2.52942
2.51877
2.50886
2.4997
2.49615
2.4876
2.4804
2.46979
2.45878
2.44809
2.43732
2.42469
2.40827
2.39043
2.37458
2.59936
2.58659
2.57385
2.55991
2.54453
2.53063
2.52146
2.51185
2.50364
2.49817
2.49077
2.48577
2.47364
2.46222
2.45087
2.44045
2.426
2.41223
2.61869
2.60289
2.59017
2.57586
2.5604
2.5443
2.53095
2.52281
2.51746
2.50686
2.49989
2.49291
2.48618
2.47614
2.46559
2.45393
2.44181
2.42934
2.63821
2.62935
2.61966
2.60814
2.59408
2.57971
2.56427
2.54664
2.5306
2.52053
2.52354
2.51418
2.50543
2.4957
2.48854
2.47856
2.46037
2.46199
2.64554
2.64176
2.63351
2.62384
2.61225
2.59938
2.58569
2.57047
2.5527
2.53392
2.5188
2.51613
2.51546
2.50944
2.50039
2.49324
2.48059
2.47222
2.65636
2.65018
2.64451
2.63708
2.62758
2.61651
2.60509
2.59209
2.57777
2.56073
2.54136
2.5255
2.5172
2.51368
2.50877
2.50155
2.49338
2.4813
2.66613
2.65862
2.65258
2.64729
2.63988
2.6306
2.62067
2.61089
2.5979
2.58431
2.56828
2.55044
2.53396
2.52264
2.51496
2.50922
2.50311
2.49552
2.68204
2.67828
2.66816
2.65939
2.65446
2.64923
2.64158
2.63142
2.62232
2.61334
2.60192
2.58935
2.57462
2.5588
2.54309
2.53096
2.52107
2.50892
2.69488
2.68676
2.67801
2.67101
2.66343
2.65711
2.65089
2.64271
2.63114
2.62186
2.61349
2.60396
2.59231
2.57896
2.56444
2.55066
2.5375
2.52926
2.70552
2.69657
2.68967
2.68314
2.67516
2.6686
2.66138
2.65462
2.64651
2.63606
2.62429
2.61413
2.60483
2.59421
2.58268
2.57067
2.55864
2.54501
2.71012
2.70625
2.69927
2.69196
2.68552
2.67912
2.67411
2.66622
2.65854
2.65045
2.64016
2.62861
2.61753
2.60756
2.59638
2.58506
2.57619
2.72889
2.71806
2.71315
2.7078
2.70123
2.69446
2.68808
2.68126
2.67804
2.66965
2.66121
2.65352
2.64401
2.63234
2.62121
2.61061
2.59993
2.58555
2.74106
2.72735
2.71874
2.71456
2.70971
2.7042
2.69726
2.69089
2.68479
2.68065
2.67228
2.66413
2.65654
2.64743
2.63594
2.62428
2.61343
2.60752
2.74663
2.73827
2.72649
2.71754
2.71261
2.71117
2.70769
2.70171
2.69499
2.68635
2.68153
2.67706
2.66701
2.65872
2.64937
2.63943
2.63025
2.61742
2.77011
2.75749
2.74836
2.7384
2.72671
2.7163
2.70983
2.70886
2.70995
2.70415
2.69884
2.68832
2.68259
2.67554
2.66799
2.65919
2.64938
2.64041
2.77891
2.76941
2.76074
2.75027
2.73973
2.72763
2.71644
2.70816
2.70628
2.71045
2.70456
2.70057
2.69102
2.68377
2.67817
2.66993
2.66058
2.64847
2.79088
2.78128
2.77178
2.76289
2.75312
2.74227
2.73065
2.71981
2.71067
2.70584
2.70796
2.70478
2.70202
2.69418
2.68663
2.67979
2.67144
2.6627
2.79775
2.79564
2.78498
2.77549
2.76625
2.7563
2.74523
2.73406
2.72429
2.71623
2.70967
2.70938
2.70556
2.70176
2.69534
2.68903
2.6834
2.67206
2.81483
2.80627
2.79614
2.78813
2.77893
2.76972
2.75958
2.74758
2.73629
2.72828
2.72158
2.71667
2.71232
2.70673
2.70246
2.69742
2.68995
2.83487
2.8222
2.81637
2.80695
2.7981
2.79005
2.782
2.77313
2.76312
2.75035
2.73822
2.73041
2.7271
2.72285
2.71492
2.70886
2.70384
2.69985
2.84028
2.8336
2.82561
2.81807
2.80831
2.79953
2.79178
2.78554
2.77687
2.76688
2.75473
2.74052
2.73084
2.72885
2.72558
2.7175
2.71166
2.70589
2.85107
2.84353
2.83567
2.8279
2.81879
2.80941
2.80046
2.79249
2.78843
2.78039
2.77088
2.75865
2.74468
2.73416
2.72858
2.7248
2.7193
2.71276
2.85845
2.8537
2.84645
2.83875
2.83138
2.82237
2.81281
2.8027
2.79254
2.78808
2.78231
2.77368
2.76268
2.74966
2.73833
2.73064
2.72455
2.71951
2.86951
2.86107
2.85665
2.85006
2.84302
2.83601
2.828
2.81882
2.8084
2.79805
2.78968
2.78266
2.7753
2.76572
2.75424
2.74275
2.73505
2.72441
2.87412
2.87061
2.86526
2.86005
2.85368
2.84728
2.84088
2.83388
2.82559
2.81594
2.80491
2.79511
2.78665
2.77811
2.76868
2.75868
2.74922
2.73961
2.8777
2.87461
2.87108
2.86772
2.86201
2.85623
2.85043
2.84435
2.83815
2.83113
2.8221
2.81155
2.80086
2.79105
2.78163
2.77215
2.76188
2.75121
2.884
2.8772
2.87448
2.87206
2.86948
2.8634
2.85758
2.85206
2.84695
2.84149
2.83534
2.82639
2.81682
2.80607
2.7955
2.7848
2.77524
2.76758
2.89527
2.88881
2.88119
2.87625
2.87259
2.8718
2.87125
2.86461
2.85893
2.85323
2.84927
2.84469
2.83927
2.82889
2.81975
2.80978
2.79912
2.78894
2.77893
2.90521
2.89814
2.89009
2.88353
2.87423
2.86903
2.86748
2.86985
2.86508
2.86083
2.85551
2.84974
2.84426
2.83875
2.83044
2.82122
2.8118
2.80246
2.90691
2.89823
2.88918
2.88055
2.87292
2.86681
2.86404
2.86465
2.86207
2.85795
2.85462
2.84808
2.84302
2.83809
2.83091
2.82229
2.81513
2.92363
2.91562
2.9078
2.89915
2.89093
2.88271
2.87503
2.86816
2.86338
2.86321
2.86068
2.85679
2.85306
2.84745
2.84283
2.83737
2.83038
2.82149
2.93375
2.92507
2.91811
2.90877
2.90051
2.89311
2.88607
2.87932
2.87236
2.86719
2.86418
2.86003
2.85729
2.85281
2.84798
2.84229
2.8368
2.82747
2.94063
2.93681
2.92891
2.91992
2.91073
2.90269
2.89606
2.88961
2.88332
2.87757
2.87093
2.86607
2.86085
2.85774
2.85316
2.84816
2.84285
2.83891
2.94502
2.93983
2.93223
2.92296
2.91377
2.90581
2.89929
2.89264
2.88722
2.88332
2.87351
2.86738
2.86279
2.85821
2.85355
2.84869
2.84376
2.95097
2.94768
2.94233
2.93444
2.92592
2.917
2.90916
2.90224
2.89535
2.88843
2.88407
2.87571
2.86958
2.86427
2.85933
2.85434
2.84831
2.95373
2.95073
2.95143
2.94776
2.94238
2.93519
2.92763
2.91984
2.9131
2.90482
2.89692
2.8901
2.8838
2.87764
2.87121
2.86594
2.86094
2.85615
2.95664
2.95069
2.94707
2.94887
2.94617
2.94171
2.93535
2.92862
2.92194
2.91631
2.90911
2.89749
2.89089
2.88501
2.87874
2.87177
2.86803
2.964
2.95901
2.95256
2.94968
2.94854
2.9477
2.94249
2.93555
2.9292
2.9226
2.91606
2.91087
2.90056
2.89334
2.88627
2.87989
2.8728
2.97603
2.97015
2.96531
2.96063
2.95518
2.95171
2.9492
2.94835
2.94262
2.93622
2.92998
2.92221
2.91575
2.91047
2.90351
2.89562
2.88786
2.88079
2.98034
2.97524
2.97062
2.96628
2.96179
2.95588
2.95081
2.94737
2.94571
2.94118
2.93814
2.93301
2.92395
2.91757
2.91227
2.9058
2.89844
2.89043
2.98319
2.97964
2.9761
2.97229
2.96763
2.96134
2.95629
2.95032
2.94546
2.94244
2.93995
2.93609
2.93198
2.92625
2.91937
2.91304
2.90668
2.90046
2.9935
2.98499
2.97953
2.97667
2.97248
2.96759
2.96067
2.9559
2.95116
2.94566
2.94126
2.93724
2.93366
2.9298
2.92588
2.91869
2.91178
2.90761
2.99636
2.99333
2.9899
2.98656
2.97959
2.97614
2.97261
2.96712
2.96235
2.95544
2.95043
2.94482
2.94087
2.93644
2.93149
2.92724
2.92208
2.91505
2.90999
3.0039
2.99626
2.99287
2.98969
2.98682
2.98152
2.97703
2.97247
2.96866
2.96312
2.95654
2.9496
2.94405
2.93943
2.93477
2.93009
2.92635
2.91834
2.91416
2.99783
2.99638
2.99309
2.99007
2.98666
2.98285
2.97786
2.97387
2.96926
2.96454
2.95673
2.95075
2.9446
2.93938
2.93423
2.93007
2.92598
2.91997
3.00966
3.00298
2.99873
2.9939
2.98915
2.98467
2.98178
2.97892
2.97417
2.96961
2.96591
2.95836
2.95204
2.94563
2.93945
2.93403
2.92963
3.02252
3.01209
3.00615
3.00003
2.99454
2.98964
2.98501
2.98154
2.97733
2.97466
2.96932
2.9645
2.95852
2.95289
2.94665
2.9415
2.93135
3.0324
3.02335
3.01555
3.00681
3.00157
2.9953
2.9903
2.98607
2.98249
2.97855
2.97478
2.96926
2.96459
2.9587
2.95241
2.94715
2.94158
3.04838
3.04226
3.03291
3.02385
3.01675
3.00852
3.00346
2.99721
2.99162
2.98754
2.98308
2.97914
2.97491
2.97008
2.96428
2.95869
2.95344
2.95028
3.05693
3.05105
3.04332
3.03438
3.02591
3.01895
3.01104
3.00609
2.99845
2.99302
2.98969
2.98414
2.98005
2.97456
2.96886
2.96359
2.96009
3.06319
3.05728
3.05032
3.04384
3.03662
3.02863
3.0216
3.01441
3.00906
3.00121
2.99517
2.99062
2.98448
2.97865
2.97408
2.96749
2.96045
3.07352
3.06576
3.058
3.05152
3.04494
3.03949
3.03096
3.02584
3.01836
3.01275
3.00511
2.99787
2.99076
2.98385
2.97775
2.97332
2.96751
3.08354
3.07539
3.06729
3.0595
3.05254
3.04603
3.03883
3.03424
3.02753
3.01985
3.01359
3.00649
2.99827
2.99124
2.98381
2.97921
2.97283
3.09098
3.08463
3.07628
3.06985
3.06302
3.0542
3.0461
3.04051
3.03544
3.02855
3.02081
3.01451
3.00617
2.9985
2.99142
2.98393
2.97969
3.1032
3.0925
3.08459
3.07877
3.07197
3.06414
3.05582
3.04699
3.04098
3.03639
3.02953
3.02126
3.01449
3.00681
2.99894
2.99175
2.98472
3.10278
3.0951
3.08614
3.07902
3.07274
3.06557
3.05929
3.05082
3.0419
3.03701
3.0288
3.02239
3.01557
3.00788
3.00289
2.99074
3.11514
3.10712
3.09638
3.08734
3.07944
3.07384
3.06812
3.06124
3.05408
3.04477
3.03753
3.03007
3.02251
3.01481
3.00735
3.14012
3.12692
3.11765
3.1067
3.09799
3.08922
3.08257
3.07635
3.07069
3.0622
3.05407
3.04368
3.03724
3.03128
3.02413
3.01469
3.15786
3.14778
3.13683
3.12317
3.10878
3.10033
3.09274
3.08598
3.07646
3.07048
3.06318
3.05499
3.04423
3.03683
3.0307
3.02359
3.1828
3.16671
3.15369
3.14185
3.13016
3.11853
3.1087
3.09733
3.08854
3.07943
3.07024
3.06339
3.05404
3.04468
3.03833
3.03009
3.22941
3.20388
3.1871
3.1723
3.15857
3.14808
3.13825
3.12799
3.11599
3.10154
3.09162
3.08197
3.07162
3.06409
3.05288
3.04538
3.24824
3.22998
3.21086
3.19467
3.17936
3.16462
3.15476
3.14546
3.13587
3.12472
3.11437
3.1016
3.08751
3.07771
3.06517
3.05614
3.27938
3.25751
3.2337
3.21598
3.20126
3.18693
3.17183
3.1611
3.15052
3.13987
3.12877
3.12509
3.11794
3.10172
3.08492
3.06963
3.30806
3.2889
3.26799
3.2428
3.22503
3.20937
3.1927
3.18038
3.1687
3.15505
3.14074
3.12989
3.12372
3.11942
3.11091
3.09326
3.32624
3.31173
3.29644
3.27702
3.25623
3.237
3.21966
3.20077
3.18797
3.17419
3.1601
3.14628
3.13613
3.12639
3.11735
3.10732
3.34092
3.33082
3.31689
3.2984
3.28046
3.26133
3.24682
3.23139
3.21377
3.19554
3.18145
3.16791
3.15626
3.13989
3.12991
3.35455
3.34373
3.33294
3.31736
3.30155
3.28492
3.26581
3.24942
3.23718
3.22303
3.20597
3.18968
3.17356
3.15971
3.14596
3.13
3.36956
3.35746
3.34601
3.33216
3.31984
3.30449
3.29225
3.27141
3.2527
3.24245
3.22841
3.2128
3.19771
3.17977
3.166
3.15328
3.38333
3.37208
3.36202
3.34952
3.3328
3.31885
3.30549
3.29502
3.27835
3.2632
3.24938
3.23437
3.21813
3.20313
3.18145
3.38332
3.37496
3.36325
3.34998
3.33603
3.32233
3.30783
3.29862
3.28549
3.27073
3.25537
3.23935
3.22322
3.20717
3.38779
3.38659
3.37583
3.36114
3.35079
3.33174
3.32499
3.31231
3.29922
3.28846
3.27361
3.25775
3.24564
3.41868
3.40249
3.39227
3.38745
3.37636
3.3629
3.3491
3.33921
3.32495
3.31057
3.30077
3.28741
3.27626
3.25687
3.44315
3.42502
3.41133
3.40052
3.38973
3.37658
3.36605
3.35683
3.34063
3.32728
3.31443
3.30086
3.28944
3.28162
3.46784
3.45063
3.43591
3.42089
3.40677
3.39544
3.38294
3.36783
3.35648
3.34498
3.33171
3.31651
3.30293
3.29478
3.49307
3.47488
3.45967
3.44147
3.42241
3.41027
3.40053
3.38567
3.3753
3.36253
3.35135
3.3327
3.31945
3.30944
3.51804
3.49676
3.48175
3.46797
3.44443
3.41803
3.41593
3.40364
3.39113
3.37772
3.36557
3.35408
3.34214
3.32326
3.54484
3.52601
3.49856
3.48392
3.47202
3.45121
3.42253
3.4176
3.40838
3.39776
3.38244
3.36931
3.3625
3.48282
3.46918
3.45102
3.43308
3.4172
3.41164
3.40129
3.38561
3.37038
3.48263
3.46329
3.4519
3.43538
3.42146
3.40897
3.40088
3.38636
3.5074
3.48598
3.46517
3.45118
3.43402
3.41919
3.40956
3.54345
3.51655
3.4956
3.47263
3.44799
3.42647
3.41122
3.52167
3.50373
3.47698
3.45277
3.43501
3.58264
3.55533
3.52594
3.51109
3.48401
3.45853
3.67961
3.66901
3.62088
3.59926
3.51354
3.69855
3.6825
3.66377
3.64112
3.62556
3.54167
3.73632
3.6452
3.61709
3.60231
3.58875
3.75436
3.70938
3.64715
0.656034
0.646507
0.649314
0.877031
0.832681
0.785031
0.75756
0.717465
0.672948
0.620315
0.656001
0.454989
1.01915
0.993468
0.939955
0.922763
0.883674
0.842027
0.810992
0.766319
0.726306
0.693734
0.628569
0.60441
0.569753
0.49818
0.465868
1.1309
1.0949
1.06806
1.02451
1.00285
0.954075
0.923596
0.899731
0.860012
0.815344
0.768125
0.713431
0.695178
0.658245
0.614175
0.576593
0.523254
0.449359
0.440177
0.345603
0.267804
0.210163
1.27291
1.24547
1.19533
1.15294
1.10472
1.06873
1.03468
0.996838
0.966171
0.935255
0.905975
0.873453
0.827079
0.767845
0.692117
0.71432
0.66091
0.631106
0.59128
0.545643
0.492128
0.422745
0.350863
1.4062
1.35846
1.33389
1.29027
1.25471
1.20327
1.16268
1.12278
1.08461
1.04374
1.00523
0.973845
0.944565
0.916361
0.870286
0.834616
0.775219
0.74384
0.697379
0.661471
0.631943
0.598337
0.55597
0.504932
0.446438
1.44981
1.42359
1.40753
1.37507
1.33997
1.29578
1.26132
1.2183
1.17974
1.13277
1.09446
1.05676
1.01803
0.981996
0.955073
0.924188
0.886961
0.842005
0.788978
0.741917
0.70434
0.66595
0.635618
0.602861
0.558196
1.49139
1.47263
1.45396
1.43544
1.4092
1.38126
1.35131
1.32021
1.27435
1.23015
1.19103
1.14042
1.10558
1.07076
1.03621
0.991716
0.959935
0.931337
0.894699
0.850117
0.799631
0.750668
0.721892
0.682108
0.638665
1.54786
1.52353
1.50117
1.48188
1.46047
1.44021
1.41259
1.39081
1.36055
1.32903
1.28536
1.23809
1.19942
1.15667
1.11178
1.08373
1.04307
1.01068
0.970685
0.939501
0.904052
0.857578
0.816206
0.769679
0.723362
1.64517
1.60615
1.57634
1.5575
1.53262
1.51045
1.48502
1.46352
1.44366
1.41847
1.39495
1.36764
1.3352
1.29744
1.25578
1.21462
1.16854
1.11908
1.08284
1.05239
1.0145
0.983352
0.948711
0.91918
0.872244
0.817252
1.71985
1.70313
1.67846
1.64649
1.61693
1.58803
1.56476
1.53676
1.51343
1.49004
1.46894
1.44884
1.42446
1.40159
1.37587
1.34344
1.30378
1.26191
1.22398
1.17494
1.12715
1.09224
1.05973
1.02939
1.00409
0.965643
0.941453
1.73588
1.71983
1.70282
1.68244
1.65342
1.62581
1.59463
1.57158
1.546
1.52042
1.49897
1.47312
1.45141
1.43303
1.40907
1.3824
1.35305
1.31384
1.27037
1.23295
1.18834
1.13463
1.1084
1.07515
1.04142
1.79686
1.78182
1.75873
1.74244
1.72047
1.70412
1.68558
1.66373
1.63774
1.6118
1.5809
1.55381
1.52985
1.50395
1.47842
1.45514
1.436
1.41531
1.38915
1.36065
1.32204
1.28045
1.23662
1.18912
1.14319
1.8229
1.80172
1.78243
1.76259
1.74372
1.72
1.70757
1.68799
1.66596
1.64348
1.62014
1.59377
1.56399
1.538
1.51036
1.48452
1.46145
1.44263
1.42038
1.39604
1.36813
1.33062
1.28851
1.23908
1.89746
1.87759
1.84788
1.82629
1.80678
1.78761
1.76925
1.75081
1.72945
1.71001
1.68995
1.6699
1.64928
1.62122
1.60053
1.56971
1.54413
1.51701
1.49254
1.47171
1.45052
1.42359
1.40234
1.37744
1.33307
1.95293
1.92387
1.89781
1.88034
1.85495
1.83143
1.81059
1.79101
1.77399
1.76058
1.73708
1.71396
1.69422
1.6713
1.65134
1.63179
1.60432
1.57535
1.5466
1.52016
1.49838
1.47772
1.4506
1.42917
1.40515
1.99429
1.97284
1.95329
1.93202
1.90794
1.88441
1.86286
1.83904
1.81593
1.79111
1.77756
1.76959
1.74518
1.72005
1.69742
1.67675
1.65576
1.63335
1.60878
1.5803
1.55121
1.52707
1.50421
1.48307
1.45986
2.04851
2.03104
2.0151
1.9972
1.97776
1.95901
1.93619
1.91674
1.89123
1.8675
1.84596
1.82231
1.79237
1.77453
1.77214
1.75548
1.72968
1.70436
1.68155
1.65865
1.63016
1.61185
1.58513
1.55531
1.53193
1.50935
2.0876
2.07971
2.05515
2.03693
2.01875
1.99893
1.98116
1.96235
1.94247
1.92215
1.89675
1.87203
1.85042
1.82667
1.79466
1.76764
1.75776
1.74954
1.73445
1.71143
1.68447
1.66111
1.63328
1.6097
1.58418
1.55525
2.13148
2.10664
2.089
2.07646
2.05867
2.03829
2.0209
2.00295
1.98539
1.96649
1.94467
1.92513
1.90131
1.87704
1.8534
1.83078
1.80473
1.77753
1.75819
1.74661
1.73418
1.71577
1.68975
1.66527
1.62853
1.60408
1.58028
2.15889
2.14735
2.12887
2.11049
2.09301
2.07644
2.05969
2.04215
2.02511
2.00749
1.98976
1.97084
1.94882
1.92622
1.90518
1.88179
1.85699
1.83378
1.81654
1.79855
1.77295
1.75561
1.73779
1.71815
1.69212
1.66344
1.62726
2.18155
2.1625
2.14635
2.1301
2.11308
2.09754
2.08176
2.06507
2.04766
2.02995
2.01188
1.99343
1.97501
1.95387
1.93171
1.90981
1.88634
1.86043
1.83644
1.82226
1.80633
1.78322
1.75878
1.73871
1.71695
1.68902
2.21529
2.19135
2.17965
2.1643
2.14802
2.13357
2.1183
2.10334
2.08832
2.07209
2.05533
2.03777
2.01716
1.9977
1.9794
1.95949
1.9384
1.91675
1.89377
1.86813
1.84431
1.82384
1.80679
1.78633
1.76332
1.73922
2.24046
2.21932
2.20867
2.19569
2.18261
2.1683
2.15302
2.1385
2.12405
2.1096
2.0946
2.07799
2.0605
2.04299
2.02267
2.00265
1.9842
1.96479
1.94441
1.92347
1.90064
1.87634
1.85114
1.8297
1.81148
1.78644
2.25897
2.24076
2.22378
2.20915
2.19843
2.18634
2.17187
2.15696
2.14311
2.12917
2.11508
2.09991
2.08308
2.0648
2.04542
2.02667
2.00796
1.98956
1.97026
1.94971
1.92861
1.90647
1.88188
1.85887
1.83739
2.29581
2.27859
2.26071
2.2421
2.22589
2.21271
2.20133
2.18926
2.17553
2.16162
2.14746
2.13336
2.11949
2.10445
2.08844
2.07006
2.04938
2.03101
2.01403
1.99571
1.97573
1.9548
1.93224
1.90915
1.88971
1.86752
2.32933
2.31616
2.29754
2.28106
2.26141
2.24388
2.22843
2.21557
2.20419
2.19229
2.17945
2.16577
2.15177
2.13742
2.12322
2.10835
2.09219
2.07505
2.056
2.03719
2.0199
2.00129
1.97894
1.95693
1.93817
1.91791
2.36072
2.3411
2.33017
2.31842
2.30071
2.28229
2.26378
2.24715
2.23272
2.21958
2.2078
2.1951
2.18245
2.16915
2.15528
2.14092
2.1265
2.11225
2.09592
2.07975
2.06265
2.0429
2.02483
2.00442
1.9849
1.96577
1.943
2.37431
2.35871
2.34577
2.33256
2.31929
2.30293
2.28483
2.26706
2.25161
2.23857
2.22519
2.21208
2.19916
2.18575
2.17202
2.15801
2.14371
2.12952
2.11508
2.09972
2.08428
2.06772
2.04937
2.03106
2.01089
1.99212
2.39751
2.38712
2.37714
2.36347
2.34931
2.33597
2.32171
2.30546
2.28779
2.27116
2.25652
2.24298
2.23045
2.21699
2.20291
2.18926
2.17566
2.16138
2.1471
2.13294
2.11819
2.10329
2.08739
2.07097
2.04966
2.0378
2.40866
2.39869
2.38801
2.3779
2.36692
2.35281
2.33916
2.32488
2.30732
2.29105
2.27591
2.26113
2.24807
2.23487
2.22147
2.20705
2.19302
2.17974
2.16515
2.15069
2.13617
2.11964
2.10178
2.0933
2.07566
2.43809
2.42611
2.4126
2.39846
2.38773
2.37849
2.36792
2.35509
2.34172
2.32733
2.30958
2.29366
2.27946
2.26568
2.25298
2.23913
2.22531
2.21142
2.1974
2.18443
2.17084
2.15625
2.13965
2.12247
2.10115
2.45248
2.43982
2.42786
2.41435
2.40073
2.38916
2.37928
2.36789
2.35556
2.34241
2.32816
2.31295
2.29816
2.28443
2.26996
2.25533
2.24202
2.22896
2.21607
2.20218
2.18885
2.17468
2.16054
2.14456
2.13261
2.47847
2.46694
2.45487
2.44137
2.4296
2.41616
2.4044
2.39291
2.38163
2.36901
2.35599
2.34271
2.32927
2.31543
2.30167
2.2882
2.27266
2.25696
2.243
2.22945
2.21633
2.20325
2.18817
2.17661
2.161
2.49604
2.48231
2.47212
2.45909
2.44579
2.43268
2.42005
2.40919
2.39737
2.38464
2.37164
2.35787
2.34428
2.3309
2.31708
2.30416
2.29113
2.27538
2.2589
2.24326
2.22971
2.2154
2.20375
2.19417
2.17903
2.51234
2.50548
2.49564
2.48593
2.47645
2.46358
2.45004
2.43673
2.42369
2.41298
2.40183
2.38848
2.3752
2.36037
2.34609
2.33263
2.31913
2.30761
2.29531
2.27961
2.26185
2.2453
2.23264
2.22269
2.20896
2.52812
2.51618
2.50579
2.4964
2.48867
2.47956
2.4682
2.45569
2.44188
2.42838
2.41693
2.40516
2.39184
2.3787
2.36265
2.34782
2.33426
2.32179
2.3111
2.2981
2.28292
2.26561
2.24934
2.22834
2.55218
2.53871
2.52768
2.51541
2.5048
2.49628
2.48885
2.48118
2.47203
2.46124
2.44774
2.43377
2.42179
2.40914
2.39493
2.38031
2.36472
2.35022
2.33708
2.32488
2.31316
2.29886
2.28365
2.26976
2.25473
2.56615
2.55246
2.54019
2.52864
2.5166
2.50602
2.49749
2.48979
2.48259
2.47463
2.46497
2.45259
2.43845
2.4255
2.41226
2.39852
2.38317
2.36755
2.35295
2.33954
2.32718
2.31453
2.30123
2.28134
2.5925
2.58051
2.56854
2.55419
2.54106
2.52905
2.51804
2.50832
2.49985
2.49196
2.48445
2.47693
2.46793
2.457
2.44394
2.43033
2.41676
2.40262
2.38717
2.37152
2.35658
2.34245
2.32789
2.31483
2.30229
2.60814
2.59552
2.58352
2.57052
2.55635
2.54272
2.53023
2.51994
2.51068
2.50246
2.49503
2.48765
2.47977
2.47087
2.46063
2.44862
2.43525
2.42193
2.40793
2.39211
2.37619
2.35997
2.34666
2.33234
2.62961
2.62091
2.6107
2.59812
2.58635
2.57294
2.5589
2.5449
2.53212
2.52222
2.5133
2.50488
2.49742
2.49036
2.48255
2.47366
2.46337
2.45228
2.44035
2.42735
2.41234
2.39591
2.37921
2.36687
2.35155
2.64218
2.63328
2.62398
2.61392
2.60211
2.58944
2.57617
2.56188
2.54678
2.53373
2.52477
2.51684
2.50849
2.50045
2.49284
2.48493
2.47624
2.46605
2.45552
2.44432
2.43039
2.41446
2.40147
2.38421
2.6527
2.6462
2.63717
2.62772
2.61748
2.60621
2.5938
2.58038
2.56532
2.54917
2.53478
2.52573
2.51968
2.51237
2.50474
2.49665
2.48842
2.47959
2.46912
2.45887
2.44802
2.4337
2.41894
2.40686
2.66759
2.66013
2.65443
2.64728
2.63996
2.63103
2.62148
2.61082
2.59885
2.58552
2.57023
2.55345
2.53712
2.52582
2.51989
2.51488
2.50863
2.5004
2.49188
2.48227
2.47172
2.4612
2.45085
2.43721
2.42306
2.68034
2.66992
2.66213
2.65609
2.65001
2.64303
2.6348
2.62545
2.61536
2.60417
2.59126
2.57643
2.55992
2.54301
2.5292
2.52069
2.51517
2.50954
2.50238
2.4935
2.48379
2.47304
2.46389
2.45269
2.69519
2.68122
2.67315
2.66503
2.65863
2.65302
2.64652
2.63821
2.62891
2.61946
2.60907
2.59665
2.58265
2.56714
2.55092
2.53625
2.5253
2.51777
2.51131
2.50363
2.49529
2.48545
2.47721
2.46539
2.70071
2.69539
2.68519
2.67551
2.66807
2.66138
2.65603
2.64919
2.64063
2.63109
2.62213
2.6119
2.60062
2.58788
2.57377
2.55881
2.54463
2.53286
2.52316
2.51469
2.50636
2.49866
2.48859
2.71665
2.7085
2.70341
2.69541
2.68744
2.67854
2.67112
2.6646
2.65833
2.65116
2.6425
2.63261
2.62376
2.6139
2.60334
2.59172
2.579
2.56557
2.55241
2.54035
2.52941
2.51972
2.51018
2.49984
2.72829
2.71818
2.70997
2.70317
2.69678
2.68971
2.6822
2.6751
2.66842
2.66156
2.65395
2.64517
2.63531
2.6255
2.61566
2.6055
2.59457
2.58297
2.57095
2.55864
2.54747
2.53569
2.52648
2.51441
2.7361
2.72844
2.71994
2.71127
2.70476
2.69864
2.69213
2.68541
2.67898
2.67268
2.66574
2.65766
2.64856
2.63854
2.6283
2.61816
2.6081
2.59756
2.5866
2.57496
2.56306
2.55174
2.54057
2.75496
2.74494
2.73681
2.72732
2.71938
2.71265
2.707
2.70092
2.69452
2.68811
2.68181
2.67608
2.66916
2.66093
2.65186
2.6418
2.63135
2.62124
2.61142
2.60107
2.59043
2.57919
2.56764
2.55153
2.76834
2.75515
2.74587
2.73703
2.7274
2.71936
2.71372
2.70929
2.70353
2.69727
2.69093
2.6841
2.67845
2.67186
2.66366
2.65489
2.6451
2.63464
2.62466
2.6146
2.60451
2.59419
2.5831
2.57501
2.77324
2.76586
2.75704
2.74696
2.73704
2.727
2.71885
2.71395
2.71077
2.70577
2.70012
2.69398
2.68656
2.68016
2.674
2.66633
2.65766
2.64822
2.63808
2.6277
2.61778
2.60683
2.59803
2.5876
2.78465
2.77776
2.76773
2.75781
2.74822
2.73805
2.72739
2.7181
2.71309
2.71122
2.70735
2.70238
2.69659
2.68915
2.68213
2.67591
2.66853
2.65975
2.65051
2.64037
2.62957
2.61769
2.61085
2.8044
2.79719
2.78675
2.77823
2.76914
2.75992
2.75029
2.7398
2.72857
2.71849
2.71239
2.71085
2.70826
2.70371
2.69853
2.69174
2.68469
2.67802
2.67049
2.66136
2.65171
2.64187
2.63239
2.61972
2.82024
2.80675
2.79945
2.78977
2.78064
2.77153
2.76268
2.75298
2.74224
2.73112
2.72088
2.71387
2.71134
2.70902
2.70476
2.7003
2.69407
2.68708
2.68016
2.67197
2.6629
2.65338
2.64312
2.63389
2.82645
2.82131
2.81059
2.80142
2.79273
2.7836
2.77483
2.76597
2.75607
2.74521
2.73442
2.7248
2.71768
2.71387
2.71063
2.70642
2.702
2.69625
2.68951
2.68216
2.67345
2.66325
2.6542
2.8386
2.82981
2.82189
2.81286
2.80409
2.7955
2.78684
2.77811
2.76919
2.75905
2.74796
2.73765
2.729
2.72227
2.71771
2.71316
2.7086
2.70412
2.69877
2.69211
2.68432
2.67553
2.66476
2.84487
2.83849
2.83137
2.82344
2.81478
2.8063
2.79782
2.78951
2.78119
2.77224
2.76182
2.7504
2.74011
2.73246
2.7265
2.72135
2.71612
2.71109
2.70638
2.70087
2.69378
2.68534
2.67937
2.85514
2.84944
2.84075
2.83284
2.82483
2.81683
2.80852
2.8
2.79208
2.78434
2.77533
2.76487
2.75326
2.7422
2.73445
2.72929
2.7244
2.71907
2.71358
2.70753
2.7019
2.6951
2.69292
2.86477
2.85699
2.84953
2.84246
2.83488
2.82738
2.8192
2.81067
2.80201
2.79441
2.7872
2.77824
2.76837
2.75684
2.74513
2.73614
2.73027
2.72566
2.72072
2.71473
2.70844
2.70257
2.69444
2.8725
2.8659
2.85883
2.85192
2.84496
2.83805
2.83075
2.82243
2.81364
2.80455
2.7965
2.78989
2.78137
2.77185
2.76094
2.74945
2.73955
2.73209
2.72681
2.72135
2.71524
2.70905
2.70454
2.88081
2.87744
2.87332
2.86782
2.86139
2.85475
2.84847
2.84198
2.83487
2.82675
2.81803
2.80883
2.79996
2.79201
2.78389
2.77496
2.76495
2.75424
2.74446
2.73583
2.72925
2.7235
2.71815
2.89148
2.88286
2.87979
2.87439
2.86926
2.86376
2.8581
2.85223
2.84597
2.8391
2.83145
2.8231
2.81407
2.80474
2.79582
2.7871
2.77816
2.7687
2.75905
2.74927
2.74032
2.73262
2.72673
2.89644
2.89043
2.8831
2.87818
2.87442
2.87065
2.86594
2.86072
2.85515
2.8491
2.84252
2.83544
2.82779
2.81905
2.80965
2.80024
2.79094
2.78179
2.77264
2.76333
2.75332
2.7435
2.7371
2.90673
2.89702
2.89003
2.8822
2.87752
2.87461
2.8718
2.86752
2.86221
2.8567
2.851
2.84504
2.83877
2.83169
2.82352
2.81431
2.80462
2.79496
2.78567
2.77621
2.76681
2.75723
2.74808
2.91037
2.90454
2.8969
2.8886
2.88145
2.87629
2.87348
2.87171
2.86798
2.86303
2.8575
2.85205
2.84653
2.84103
2.83437
2.82683
2.81813
2.80871
2.79908
2.78971
2.77993
2.77071
2.7625
2.91846
2.91238
2.90443
2.89645
2.88842
2.88083
2.87465
2.87098
2.86983
2.8674
2.86296
2.85836
2.85316
2.84738
2.84212
2.83621
2.8292
2.821
2.81205
2.80254
2.79297
2.78345
2.77419
2.93096
2.92054
2.91389
2.90541
2.89721
2.88903
2.88096
2.87396
2.8695
2.86801
2.86597
2.86182
2.85791
2.85323
2.8481
2.84267
2.83701
2.83037
2.82265
2.81364
2.80471
2.79594
2.78695
2.93802
2.93075
2.92162
2.91427
2.90646
2.89864
2.89064
2.88273
2.87555
2.87064
2.86819
2.86542
2.86096
2.85731
2.85307
2.84824
2.84287
2.83718
2.83085
2.82304
2.814
2.80545
2.79709
2.94382
2.93882
2.93125
2.92362
2.91551
2.90802
2.90046
2.89293
2.88546
2.87873
2.87352
2.86966
2.86544
2.86137
2.85792
2.85367
2.84874
2.84336
2.83746
2.83104
2.82384
2.81625
2.80638
2.95116
2.94539
2.93948
2.93303
2.92548
2.91765
2.91005
2.90281
2.89581
2.88863
2.88214
2.87683
2.87181
2.86687
2.86279
2.85896
2.8545
2.84965
2.84409
2.8382
2.83155
2.8241
2.96007
2.95237
2.95304
2.9478
2.9425
2.93582
2.92838
2.92054
2.9128
2.90565
2.89876
2.89175
2.88541
2.87981
2.87411
2.86881
2.86425
2.85977
2.8552
2.85007
2.8445
2.83856
2.83265
2.96296
2.95841
2.95445
2.95203
2.94863
2.94447
2.93865
2.93126
2.92352
2.91566
2.9085
2.90154
2.8941
2.8878
2.8821
2.87601
2.87046
2.86555
2.86068
2.8555
2.85009
2.84458
2.83875
2.96792
2.9633
2.95756
2.95369
2.95123
2.9488
2.94509
2.93968
2.93307
2.9258
2.91811
2.91104
2.9038
2.89613
2.88977
2.88407
2.87787
2.87229
2.8672
2.86185
2.8563
2.85043
2.8445
2.97768
2.96896
2.96364
2.95781
2.95289
2.95008
2.94816
2.94479
2.93974
2.93393
2.92722
2.92002
2.91303
2.90597
2.89817
2.89177
2.88585
2.87973
2.87395
2.86853
2.86248
2.85698
2.8509
2.97922
2.97553
2.96985
2.9635
2.95802
2.95373
2.95036
2.94791
2.94472
2.93998
2.9343
2.92793
2.92088
2.91435
2.90786
2.90043
2.89358