/*--------------------------------*- C++ -*----------------------------------*\
| =========                 |                                                 |
| \\      /  F ield         | OpenFOAM: The Open Source CFD Toolbox           |
|  \\    /   O peration     | Version:  5.x                                   |
|   \\  /    A nd           | Web:      www.OpenFOAM.org                      |
|    \\/     M anipulation  |                                                 |
\*---------------------------------------------------------------------------*/
FoamFile
{
    version     2.0;
    format      ascii;
    class       surfaceScalarField;
    location    "0";
    object      phi;
}
// * * * * * * * * * * * * * * * * * * * * * * * * * * * * * * * * * * * * * //

dimensions      [0 3 -1 0 0 0 0];

internalField   nonuniform List<scalar> 
40747
(
1.48804e-05
7.68133e-11
1.04137e-10
1.48802e-05
1.80012e-05
9.52748e-11
1.14369e-10
1.8001e-05
2.17766e-05
1.19485e-10
1.28011e-10
2.17764e-05
2.63438e-05
1.45519e-10
1.44068e-10
2.63435e-05
3.18688e-05
1.80535e-10
1.63254e-10
3.18684e-05
3.85525e-05
2.20098e-10
1.8635e-10
3.85521e-05
4.66381e-05
2.68168e-10
2.14186e-10
4.66375e-05
5.64194e-05
3.26618e-10
2.48065e-10
5.64187e-05
6.82521e-05
3.97359e-10
2.89049e-10
6.82513e-05
8.25664e-05
4.82562e-10
3.38673e-10
8.25655e-05
9.98828e-05
5.85818e-10
3.9851e-10
9.98817e-05
0.000120831
7.09849e-10
4.71144e-10
0.00012083
0.000146173
8.60226e-10
5.5891e-10
0.000146171
0.000176829
1.04228e-09
6.6521e-10
0.000176827
0.000213915
1.26224e-09
7.94028e-10
0.000213913
0.000258779
1.52854e-09
9.50052e-10
0.000258776
0.000313052
1.85082e-09
1.13931e-09
0.000313048
0.000378708
2.24081e-09
1.3691e-09
0.000378703
0.000458133
2.71254e-09
1.64862e-09
0.000458128
0.000554216
3.28302e-09
1.98943e-09
0.00055421
0.000670451
3.97311e-09
2.40649e-09
0.000670443
0.000811063
4.80781e-09
2.91945e-09
0.000811053
0.000981165
5.81732e-09
3.55481e-09
0.000981154
0.00118694
7.03797e-09
4.34939e-09
0.00118693
0.00143588
8.51368e-09
5.35597e-09
0.00143586
0.00173702
1.0297e-08
6.6522e-09
0.001737
0.00210132
1.24507e-08
8.35495e-09
0.0021013
0.00254203
1.50485e-08
1.06423e-08
0.002542
0.00307516
1.81755e-08
1.37861e-08
0.00307512
0.0037201
2.19242e-08
1.81736e-08
0.00372006
0.00356449
2.15324e-08
1.74796e-08
0.00356445
0.00356449
2.18258e-08
1.8175e-08
0.00356445
0.00356449
2.20137e-08
1.91649e-08
0.00356445
0.00356449
2.20819e-08
2.04018e-08
0.00356445
0.00360725
2.22348e-08
2.21363e-08
0.00360721
0.00300085
1.89193e-08
1.93251e-08
0.00300082
0.0024964
1.60136e-08
1.67431e-08
0.00249637
0.00207674
1.3496e-08
1.44075e-08
0.00207672
0.00172763
1.13353e-08
1.23241e-08
0.00172761
0.00143721
9.49408e-09
1.04876e-08
0.00143719
0.00119561
7.93398e-09
8.88434e-09
0.00119559
0.000994619
6.61767e-09
7.49592e-09
0.000994608
0.000827419
5.51086e-09
6.30151e-09
0.00082741
0.000688326
4.58235e-09
5.27958e-09
0.000688318
0.000572615
3.80494e-09
4.40929e-09
0.000572609
0.000476356
3.15488e-09
3.67094e-09
0.000476351
0.000396278
2.61207e-09
3.04656e-09
0.000396274
0.000329662
2.15904e-09
2.52004e-09
0.000329658
0.000274244
1.78125e-09
2.07694e-09
0.000274241
0.000228142
1.46614e-09
1.70473e-09
0.00022814
0.000189791
1.2036e-09
1.39265e-09
0.000189789
0.000157886
9.85371e-10
1.13135e-09
0.000157884
0.000131345
8.03482e-10
9.12633e-10
0.000131343
0.000109265
6.52722e-10
7.29895e-10
0.000109264
9.0897e-05
5.26762e-10
5.77196e-10
9.0896e-05
7.56168e-05
4.21096e-10
4.50086e-10
7.56159e-05
6.29052e-05
3.33785e-10
3.43903e-10
6.29045e-05
5.23305e-05
2.59973e-10
2.55426e-10
5.233e-05
4.35336e-05
1.99067e-10
1.80876e-10
4.35331e-05
3.62153e-05
1.492e-10
1.19826e-10
3.62149e-05
3.01274e-05
1.0823e-10
6.73814e-11
3.01271e-05
2.50628e-05
7.30573e-11
2.59206e-11
2.50625e-05
2.08497e-05
4.31042e-11
-9.77707e-12
2.08495e-05
1.73447e-05
2.09674e-11
-4.00178e-11
1.73445e-05
1.4429e-05
1.44288e-05
1.488e-05
1.07775e-10
1.48798e-05
3.29645e-11
1.48796e-05
6.36518e-11
1.48796e-05
-6.13909e-12
1.48795e-05
5.09317e-11
1.48795e-05
-9.28685e-12
1.48794e-05
4.82457e-11
1.48794e-05
-7.04858e-12
1.48793e-05
4.08159e-11
1.48793e-05
-7.11055e-12
1.48792e-05
3.44014e-11
1.48792e-05
-7.99498e-12
1.48791e-05
2.75465e-11
1.48791e-05
-8.22785e-12
1.48791e-05
2.05773e-11
1.48791e-05
-8.57402e-12
1.48791e-05
1.33014e-11
1.48791e-05
-8.80613e-12
1.48791e-05
6.59384e-12
1.48791e-05
-9.09495e-12
1.48791e-05
1.41921e-12
1.48791e-05
-9.37529e-12
1.48791e-05
-2.77952e-12
1.48791e-05
-9.42834e-12
1.48791e-05
-6.12963e-12
1.48791e-05
-9.8451e-12
1.48791e-05
-8.60535e-12
1.48792e-05
-1.04447e-11
1.48792e-05
-1.04183e-11
1.48792e-05
-1.16529e-11
1.48792e-05
-1.29603e-11
1.48793e-05
-1.5234e-11
1.48793e-05
-1.93092e-11
1.48793e-05
-2.55965e-11
1.48794e-05
-3.53971e-11
1.48795e-05
-4.994e-11
1.48795e-05
-7.18918e-11
1.48797e-05
-1.03298e-10
1.48798e-05
-1.48375e-10
1.488e-05
-2.11145e-10
1.48804e-05
-2.9798e-10
1.48808e-05
-4.15469e-10
1.48814e-05
-5.72533e-10
1.48822e-05
-7.79443e-10
1.48832e-05
-1.04874e-09
1.48846e-05
-1.39494e-09
1.48865e-05
-1.83509e-09
1.48889e-05
-2.38899e-09
1.48919e-05
-3.07928e-09
1.48959e-05
-3.93194e-09
1.49009e-05
-4.97679e-09
1.49071e-05
-6.24827e-09
1.49149e-05
-7.78631e-09
1.49245e-05
-9.63637e-09
1.49364e-05
-1.18569e-08
1.49509e-05
-1.45069e-08
1.49686e-05
-1.76784e-08
1.499e-05
-2.1456e-08
1.5016e-05
-2.59853e-08
1.50474e-05
-3.14122e-08
1.50854e-05
-3.79704e-08
1.51313e-05
-4.59376e-08
1.5187e-05
-5.57262e-08
1.52306e-05
-4.35623e-08
1.5279e-05
-4.84132e-08
1.53328e-05
-5.37724e-08
1.53925e-05
-5.97214e-08
1.54588e-05
-6.63526e-08
1.55326e-05
-7.37852e-08
1.56147e-05
-8.21698e-08
1.57064e-05
-9.16867e-08
1.58089e-05
-1.02583e-07
1.5924e-05
-1.15157e-07
1.60538e-05
-1.29821e-07
1.62009e-05
-1.47113e-07
1.63687e-05
-1.67766e-07
1.65614e-05
-1.92803e-07
1.67851e-05
-2.23675e-07
1.70476e-05
-2.62521e-07
1.73601e-05
-3.12595e-07
1.77391e-05
-3.79087e-07
1.82098e-05
-4.70734e-07
1.8813e-05
-6.03322e-07
1.96211e-05
-8.08199e-07
2.07773e-05
-1.15631e-06
2.26211e-05
-1.84391e-06
2.62639e-05
-3.64292e-06
-1.3771e-05
4.00348e-05
1.80007e-05
1.12586e-10
1.80005e-05
2.41882e-11
1.80003e-05
6.63931e-11
1.80002e-05
-1.8019e-11
1.80001e-05
6.11635e-11
1.80001e-05
-2.09184e-11
1.8e-05
6.07088e-11
1.8e-05
-2.00089e-11
1.79999e-05
5.1742e-11
1.79999e-05
-2.06687e-11
1.79998e-05
4.35123e-11
1.79998e-05
-2.09184e-11
1.79997e-05
3.53566e-11
1.79997e-05
-1.96131e-11
1.79997e-05
2.66027e-11
1.79997e-05
-1.8872e-11
1.79996e-05
1.75078e-11
1.79996e-05
-1.7723e-11
1.79996e-05
9.27338e-12
1.79996e-05
-1.62572e-11
1.79996e-05
3.08095e-12
1.79996e-05
-1.50197e-11
1.79996e-05
-1.8483e-12
1.79997e-05
-1.32607e-11
1.79997e-05
-5.47464e-12
1.79997e-05
-1.23162e-11
1.79997e-05
-7.97856e-12
1.79997e-05
-1.15961e-11
1.79998e-05
-9.68026e-12
1.79998e-05
-1.26761e-11
1.79998e-05
-1.4252e-11
1.79999e-05
-2.01625e-11
1.79999e-05
-2.84792e-11
1.79999e-05
-4.29024e-11
1.8e-05
-6.43603e-11
1.80001e-05
-9.7432e-11
1.80002e-05
-1.46059e-10
1.80003e-05
-2.16586e-10
1.80005e-05
-3.16578e-10
1.80008e-05
-4.56509e-10
1.80012e-05
-6.48726e-10
1.80017e-05
-9.09074e-10
1.80024e-05
-1.25638e-09
1.80033e-05
-1.71399e-09
1.80046e-05
-2.3093e-09
1.80063e-05
-3.07473e-09
1.80086e-05
-4.04784e-09
1.80115e-05
-5.27253e-09
1.80152e-05
-6.79865e-09
1.802e-05
-8.68403e-09
1.8026e-05
-1.09944e-08
1.80335e-05
-1.38059e-08
1.8043e-05
-1.72063e-08
1.80546e-05
-2.12972e-08
1.8069e-05
-2.62028e-08
1.80865e-05
-3.20634e-08
1.81079e-05
-3.90649e-08
1.81338e-05
-4.74203e-08
1.81653e-05
-5.74189e-08
1.82033e-05
-6.94196e-08
1.82492e-05
-8.39027e-08
1.83048e-05
-1.01516e-07
1.83722e-05
-1.23141e-07
1.84249e-05
-9.62727e-08
1.84834e-05
-1.06989e-07
1.85485e-05
-1.18842e-07
1.86207e-05
-1.3199e-07
1.87009e-05
-1.46651e-07
1.87902e-05
-1.63078e-07
1.88895e-05
-1.81605e-07
1.90004e-05
-2.02636e-07
1.91245e-05
-2.26705e-07
1.92637e-05
-2.54491e-07
1.94208e-05
-2.86891e-07
1.95987e-05
-3.25103e-07
1.98016e-05
-3.70746e-07
2.00348e-05
-4.2608e-07
2.03054e-05
-4.9431e-07
2.06229e-05
-5.80161e-07
2.10009e-05
-6.90821e-07
2.14594e-05
-8.37754e-07
2.20288e-05
-1.04026e-06
2.27584e-05
-1.33322e-06
2.37359e-05
-1.78588e-06
2.51343e-05
-2.55495e-06
2.73639e-05
-4.07368e-06
3.17635e-05
-8.04268e-06
-2.95335e-05
4.75258e-05
2.1776e-05
1.1946e-10
2.17757e-05
1.31877e-11
2.17754e-05
7.02585e-11
2.17754e-05
-3.20597e-11
2.17752e-05
7.42599e-11
2.17752e-05
-3.49981e-11
2.17751e-05
7.56017e-11
2.17751e-05
-3.5584e-11
2.17749e-05
6.46328e-11
2.17749e-05
-3.66643e-11
2.17748e-05
5.48611e-11
2.17748e-05
-3.57589e-11
2.17747e-05
4.502e-11
2.17747e-05
-3.36026e-11
2.17747e-05
3.39256e-11
2.17747e-05
-3.15597e-11
2.17746e-05
2.251e-11
2.17747e-05
-2.85083e-11
2.17746e-05
1.25056e-11
2.17746e-05
-2.48974e-11
2.17746e-05
5.0205e-12
2.17747e-05
-2.16935e-11
2.17747e-05
-8.08711e-13
2.17747e-05
-1.8053e-11
2.17747e-05
-4.77485e-12
2.17747e-05
-1.52808e-11
2.17747e-05
-7.03355e-12
2.17748e-05
-1.2889e-11
2.17748e-05
-8.66811e-12
2.17748e-05
-1.40972e-11
2.17749e-05
-1.59007e-11
2.17749e-05
-2.62457e-11
2.1775e-05
-3.9352e-11
2.1775e-05
-6.38857e-11
2.17751e-05
-9.93055e-11
2.17752e-05
-1.54916e-10
2.17753e-05
-2.3573e-10
2.17755e-05
-3.53651e-10
2.17757e-05
-5.20193e-10
2.17761e-05
-7.53289e-10
2.17765e-05
-1.07298e-09
2.17771e-05
-1.50618e-09
2.1778e-05
-2.08362e-09
2.17791e-05
-2.84463e-09
2.17807e-05
-3.83429e-09
2.17827e-05
-5.10685e-09
2.17854e-05
-6.72463e-09
2.1789e-05
-8.76068e-09
2.17935e-05
-1.1298e-08
2.17992e-05
-1.44327e-08
2.18065e-05
-1.82741e-08
2.18157e-05
-2.29485e-08
2.18271e-05
-2.86018e-08
2.18412e-05
-3.54036e-08
2.18585e-05
-4.35572e-08
2.18798e-05
-5.3302e-08
2.19056e-05
-6.49366e-08
2.1937e-05
-7.88299e-08
2.1975e-05
-9.54449e-08
2.2021e-05
-1.15398e-07
2.20766e-05
-1.39468e-07
2.21438e-05
-1.6875e-07
2.22253e-05
-2.04693e-07
2.22891e-05
-1.60038e-07
2.23599e-05
-1.7785e-07
2.24386e-05
-1.97557e-07
2.2526e-05
-2.19415e-07
2.2623e-05
-2.43789e-07
2.2731e-05
-2.71097e-07
2.28512e-05
-3.01893e-07
2.29853e-05
-3.36852e-07
2.31354e-05
-3.76857e-07
2.33039e-05
-4.23044e-07
2.34938e-05
-4.76898e-07
2.3709e-05
-5.40417e-07
2.39545e-05
-6.1629e-07
2.42366e-05
-7.08271e-07
2.45639e-05
-8.21691e-07
2.4948e-05
-9.64396e-07
2.54053e-05
-1.14834e-06
2.59599e-05
-1.39256e-06
2.66485e-05
-1.72914e-06
2.75311e-05
-2.21603e-06
2.87132e-05
-2.96825e-06
3.04041e-05
-4.24605e-06
3.30983e-05
-6.76812e-06
3.83983e-05
-1.33429e-05
-4.73572e-05
5.62218e-05
2.6343e-05
1.26875e-10
2.63427e-05
7.06298e-13
2.63424e-05
7.54881e-11
2.63423e-05
-4.91158e-11
2.63421e-05
8.94727e-11
2.63421e-05
-5.22907e-11
2.63419e-05
9.35643e-11
2.63419e-05
-5.4456e-11
2.63417e-05
7.9987e-11
2.63417e-05
-5.60679e-11
2.63416e-05
6.82121e-11
2.63416e-05
-5.40716e-11
2.63415e-05
5.65325e-11
2.63415e-05
-5.04035e-11
2.63414e-05
4.23664e-11
2.63415e-05
-4.66684e-11
2.63414e-05
2.84786e-11
2.63414e-05
-4.1303e-11
2.63414e-05
1.65749e-11
2.63414e-05
-3.52429e-11
2.63414e-05
7.47228e-12
2.63414e-05
-2.98129e-11
2.63414e-05
4.83575e-13
2.63414e-05
-2.40738e-11
2.63415e-05
-3.86535e-12
2.63415e-05
-1.88875e-11
2.63415e-05
-5.84773e-12
2.63416e-05
-1.45355e-11
2.63416e-05
-7.56553e-12
2.63416e-05
-1.58025e-11
2.63417e-05
-1.78204e-11
2.63417e-05
-3.34911e-11
2.63418e-05
-5.25134e-11
2.63419e-05
-8.91685e-11
2.6342e-05
-1.41597e-10
2.63421e-05
-2.2454e-10
2.63422e-05
-3.44224e-10
2.63424e-05
-5.19464e-10
2.63427e-05
-7.66478e-10
2.63431e-05
-1.11233e-09
2.63437e-05
-1.58627e-09
2.63444e-05
-2.22845e-09
2.63454e-05
-3.08444e-09
2.63468e-05
-4.21239e-09
2.63487e-05
-5.67913e-09
2.63512e-05
-7.56513e-09
2.63545e-05
-9.96283e-09
2.63587e-05
-1.29805e-08
2.63642e-05
-1.67411e-08
2.63711e-05
-2.1387e-08
2.638e-05
-2.70805e-08
2.6391e-05
-3.40085e-08
2.64048e-05
-4.23873e-08
2.64219e-05
-5.24684e-08
2.64429e-05
-6.45514e-08
2.64685e-05
-7.89948e-08
2.64998e-05
-9.62343e-08
2.65378e-05
-1.16827e-07
2.65838e-05
-1.41446e-07
2.66394e-05
-1.71019e-07
2.67066e-05
-2.06686e-07
2.67879e-05
-2.50084e-07
2.68866e-05
-3.03349e-07
2.69637e-05
-2.37175e-07
2.70494e-05
-2.63571e-07
2.71446e-05
-2.9278e-07
2.72503e-05
-3.25173e-07
2.73677e-05
-3.61298e-07
2.74983e-05
-4.01768e-07
2.76437e-05
-4.47406e-07
2.7806e-05
-4.99212e-07
2.79875e-05
-5.58494e-07
2.81913e-05
-6.2694e-07
2.84211e-05
-7.06745e-07
2.86814e-05
-8.00876e-07
2.89784e-05
-9.13313e-07
2.93196e-05
-1.04962e-06
2.97155e-05
-1.2177e-06
3.01801e-05
-1.42916e-06
3.07332e-05
-1.70173e-06
3.1404e-05
-2.0636e-06
3.22369e-05
-2.56228e-06
3.33041e-05
-3.28358e-06
3.47333e-05
-4.39774e-06
3.67766e-05
-6.2897e-06
4.00286e-05
-1.00204e-05
4.6389e-05
-1.97035e-05
-6.72168e-05
6.62484e-05
3.18678e-05
1.35862e-10
3.18675e-05
-1.48833e-11
3.18671e-05
8.16136e-11
3.1867e-05
-6.99174e-11
3.18667e-05
1.08137e-10
3.18667e-05
-7.31006e-11
3.18665e-05
1.15278e-10
3.18665e-05
-7.75344e-11
3.18663e-05
9.89075e-11
3.18663e-05
-7.94306e-11
3.18662e-05
8.44301e-11
3.18662e-05
-7.59997e-11
3.1866e-05
7.0565e-11
3.18661e-05
-7.05427e-11
3.1866e-05
5.28644e-11
3.1866e-05
-6.49461e-11
3.18659e-05
3.58141e-11
3.18659e-05
-5.69858e-11
3.18659e-05
2.14592e-11
3.18659e-05
-4.79492e-11
3.18659e-05
1.03767e-11
3.18659e-05
-3.95951e-11
3.18659e-05
2.13163e-12
3.1866e-05
-3.12923e-11
3.1866e-05
-2.80745e-12
3.1866e-05
-2.3249e-11
3.18661e-05
-4.38482e-12
3.18661e-05
-1.65501e-11
3.18661e-05
-6.12002e-12
3.18662e-05
-1.78488e-11
3.18662e-05
-2.02078e-11
3.18663e-05
-4.22546e-11
3.18664e-05
-6.84515e-11
3.18665e-05
-1.19798e-10
3.18666e-05
-1.92813e-10
3.18667e-05
-3.08624e-10
3.18669e-05
-4.75481e-10
3.18671e-05
-7.20007e-10
3.18675e-05
-1.06444e-09
3.1868e-05
-1.54666e-09
3.18686e-05
-2.20718e-09
3.18695e-05
-3.10224e-09
3.18708e-05
-4.29507e-09
3.18725e-05
-5.86701e-09
3.18748e-05
-7.91083e-09
3.18778e-05
-1.0539e-08
3.18817e-05
-1.38802e-08
3.18868e-05
-1.80851e-08
3.18934e-05
-2.33256e-08
3.19019e-05
-2.97998e-08
3.19126e-05
-3.77337e-08
3.19259e-05
-4.73881e-08
3.19426e-05
-5.90638e-08
3.19633e-05
-7.3112e-08
3.19887e-05
-8.99483e-08
3.20197e-05
-1.10076e-07
3.20576e-05
-1.34095e-07
3.21035e-05
-1.62792e-07
3.21592e-05
-1.97093e-07
3.22264e-05
-2.38304e-07
3.23077e-05
-2.88001e-07
3.24061e-05
-3.48475e-07
3.25254e-05
-4.22693e-07
3.26187e-05
-3.30488e-07
3.27224e-05
-3.67268e-07
3.28375e-05
-4.07971e-07
3.29654e-05
-4.53108e-07
3.31075e-05
-5.03447e-07
3.32654e-05
-5.59839e-07
3.34413e-05
-6.23429e-07
3.36376e-05
-6.95615e-07
3.38572e-05
-7.78214e-07
3.41037e-05
-8.73583e-07
3.43816e-05
-9.84776e-07
3.46966e-05
-1.11593e-06
3.50558e-05
-1.27259e-06
3.54685e-05
-1.46251e-06
3.59473e-05
-1.69668e-06
3.65093e-05
-1.99129e-06
3.71783e-05
-2.371e-06
3.79894e-05
-2.87508e-06
3.89965e-05
-3.56965e-06
4.02866e-05
-4.57412e-06
4.20137e-05
-6.12517e-06
4.4481e-05
-8.75734e-06
4.83995e-05
-1.39393e-05
5.59902e-05
-2.72946e-05
-8.895e-05
7.77232e-05
3.85514e-05
1.46681e-10
3.8551e-05
-3.30829e-11
3.85505e-05
8.91922e-11
3.85504e-05
-9.42803e-11
3.855e-05
1.30626e-10
3.85501e-05
-9.83787e-11
3.85498e-05
1.41839e-10
3.85498e-05
-1.05319e-10
3.85496e-05
1.21702e-10
3.85496e-05
-1.078e-10
3.85494e-05
1.04478e-10
3.85494e-05
-1.02773e-10
3.85492e-05
8.72835e-11
3.85493e-05
-9.50715e-11
3.85491e-05
6.56807e-11
3.85491e-05
-8.6996e-11
3.85491e-05
4.47756e-11
3.85491e-05
-7.57486e-11
3.8549e-05
2.73985e-11
3.85491e-05
-6.31687e-11
3.8549e-05
1.38982e-11
3.85491e-05
-5.14069e-11
3.85491e-05
4.00746e-12
3.85491e-05
-3.98188e-11
3.85492e-05
-1.39266e-12
3.85492e-05
-2.85442e-11
3.85492e-05
-2.59487e-12
3.85493e-05
-1.90141e-11
3.85494e-05
-4.40059e-12
3.85494e-05
-2.02571e-11
3.85495e-05
-2.30569e-11
3.85496e-05
-5.29425e-11
3.85497e-05
-8.77582e-11
3.85498e-05
-1.56839e-10
3.85499e-05
-2.54758e-10
3.855e-05
-4.1043e-10
3.85503e-05
-6.34273e-10
3.85506e-05
-9.62643e-10
3.8551e-05
-1.42479e-09
3.85516e-05
-2.07206e-09
3.85524e-05
-2.95838e-09
3.85535e-05
-4.15928e-09
3.8555e-05
-5.75967e-09
3.8557e-05
-7.86857e-09
3.85598e-05
-1.06105e-08
3.85634e-05
-1.41364e-08
3.85682e-05
-1.8619e-08
3.85744e-05
-2.42603e-08
3.85824e-05
-3.1291e-08
3.85926e-05
-3.99768e-08
3.86055e-05
-5.06211e-08
3.86217e-05
-6.35735e-08
3.86419e-05
-7.92376e-08
3.86669e-05
-9.80848e-08
3.86976e-05
-1.20671e-07
3.87351e-05
-1.47675e-07
3.87809e-05
-1.79897e-07
3.88365e-05
-2.18397e-07
3.89038e-05
-2.64411e-07
3.89852e-05
-3.197e-07
3.90836e-05
-3.86368e-07
3.92025e-05
-4.67498e-07
3.93469e-05
-5.67063e-07
3.94598e-05
-4.43368e-07
3.95852e-05
-4.92709e-07
3.97244e-05
-5.47315e-07
3.98791e-05
-6.07868e-07
4.0051e-05
-6.754e-07
4.0242e-05
-7.51049e-07
4.04548e-05
-8.36355e-07
4.06922e-05
-9.3319e-07
4.09579e-05
-1.04399e-06
4.12561e-05
-1.17192e-06
4.15922e-05
-1.32108e-06
4.19732e-05
-1.49701e-06
4.24076e-05
-1.70714e-06
4.29068e-05
-1.96187e-06
4.34859e-05
-2.27595e-06
4.41654e-05
-2.67107e-06
4.49744e-05
-3.18027e-06
4.59551e-05
-3.85617e-06
4.71723e-05
-4.78731e-06
4.87313e-05
-6.13348e-06
5.08167e-05
-8.2111e-06
5.37921e-05
-1.17332e-05
5.85012e-05
-1.86487e-05
6.74899e-05
-3.62837e-05
-0.000112213
9.07526e-05
4.66367e-05
1.60031e-10
4.66362e-05
-5.57066e-11
4.66356e-05
9.82486e-11
4.66354e-05
-1.24487e-10
4.6635e-05
1.57697e-10
4.66351e-05
-1.291e-10
4.66347e-05
1.73825e-10
4.66348e-05
-1.39153e-10
4.66345e-05
1.49385e-10
4.66345e-05
-1.42048e-10
4.66343e-05
1.28239e-10
4.66343e-05
-1.34946e-10
4.66341e-05
1.07387e-10
4.66341e-05
-1.24828e-10
4.66339e-05
8.10806e-11
4.6634e-05
-1.1373e-10
4.66339e-05
5.53655e-11
4.66339e-05
-9.85293e-11
4.66338e-05
3.43618e-11
4.66339e-05
-8.16942e-11
4.66338e-05
1.8179e-11
4.66339e-05
-6.57847e-11
4.66339e-05
6.25278e-12
4.66339e-05
-5.02653e-11
4.6634e-05
1.42109e-13
4.6634e-05
-3.4923e-11
4.66341e-05
-4.33344e-13
4.66342e-05
-2.18847e-11
4.66342e-05
-2.3667e-12
4.66343e-05
-2.31984e-11
4.66344e-05
-2.65317e-11
4.66345e-05
-6.58414e-11
4.66346e-05
-1.11081e-10
4.66347e-05
-2.01705e-10
4.66349e-05
-3.29678e-10
4.66351e-05
-5.33603e-10
4.66353e-05
-8.26446e-10
4.66357e-05
-1.25615e-09
4.66362e-05
-1.86077e-09
4.66369e-05
-2.70769e-09
4.66379e-05
-3.86708e-09
4.66392e-05
-5.43797e-09
4.6641e-05
-7.53138e-09
4.66435e-05
-1.02899e-08
4.66468e-05
-1.38764e-08
4.66512e-05
-1.84883e-08
4.6657e-05
-2.43516e-08
4.66645e-05
-3.17305e-08
4.66742e-05
-4.09267e-08
4.66865e-05
-5.2288e-08
4.67021e-05
-6.6211e-08
4.67217e-05
-8.31529e-08
4.67462e-05
-1.03642e-07
4.67764e-05
-1.28294e-07
4.68135e-05
-1.57837e-07
4.6859e-05
-1.93158e-07
4.69144e-05
-2.35302e-07
4.69816e-05
-2.85661e-07
4.7063e-05
-3.45844e-07
4.71614e-05
-4.18163e-07
4.72804e-05
-5.0536e-07
4.74244e-05
-6.11478e-07
4.7599e-05
-7.41703e-07
4.77355e-05
-5.79915e-07
4.78872e-05
-6.44449e-07
4.80557e-05
-7.15873e-07
4.82428e-05
-7.95071e-07
4.84507e-05
-8.83399e-07
4.86818e-05
-9.8234e-07
4.89392e-05
-1.09391e-06
4.92263e-05
-1.22055e-06
4.95476e-05
-1.36546e-06
4.99083e-05
-1.53277e-06
5.03149e-05
-1.72782e-06
5.07757e-05
-1.95789e-06
5.1301e-05
-2.23267e-06
5.19047e-05
-2.56576e-06
5.26049e-05
-2.97641e-06
5.34265e-05
-3.49296e-06
5.44044e-05
-4.15857e-06
5.55897e-05
-5.04188e-06
5.70603e-05
-6.2584e-06
5.89426e-05
-8.0163e-06
6.1458e-05
-1.07271e-05
6.50392e-05
-1.53149e-05
7.06758e-05
-2.42858e-05
8.12057e-05
-4.6814e-05
-0.00013644
0.000105432
5.64177e-05
1.75874e-10
5.64171e-05
-8.26522e-11
5.64163e-05
1.0931e-10
5.64162e-05
-1.60749e-10
5.64157e-05
1.90543e-10
5.64157e-05
-1.66223e-10
5.64153e-05
2.12651e-10
5.64154e-05
-1.79796e-10
5.6415e-05
1.82467e-10
5.6415e-05
-1.83639e-10
5.64147e-05
1.57208e-10
5.64148e-05
-1.74266e-10
5.64145e-05
1.31848e-10
5.64146e-05
-1.60886e-10
5.64144e-05
9.98377e-11
5.64144e-05
-1.46009e-10
5.64143e-05
6.8331e-11
5.64143e-05
-1.26136e-10
5.64142e-05
4.28912e-11
5.64143e-05
-1.04137e-10
5.64143e-05
2.32774e-11
5.64143e-05
-8.3148e-11
5.64143e-05
9.0381e-12
5.64144e-05
-6.28972e-11
5.64144e-05
2.10149e-12
5.64145e-05
-4.26468e-11
5.64145e-05
2.22009e-12
5.64146e-05
-2.53095e-11
5.64147e-05
1.36722e-13
5.64148e-05
-2.67681e-11
5.64149e-05
-3.07573e-11
5.6415e-05
-8.14805e-11
5.64151e-05
-1.39309e-10
5.64153e-05
-2.5598e-10
5.64155e-05
-4.20286e-10
5.64157e-05
-6.82566e-10
5.6416e-05
-1.05887e-09
5.64165e-05
-1.61128e-09
5.64171e-05
-2.38815e-09
5.64179e-05
-3.47659e-09
5.64191e-05
-4.96633e-09
5.64207e-05
-6.98483e-09
5.64229e-05
-9.67463e-09
5.64259e-05
-1.3219e-08
5.64299e-05
-1.78271e-08
5.64353e-05
-2.37528e-08
5.64423e-05
-3.12862e-08
5.64513e-05
-4.07671e-08
5.6463e-05
-5.25831e-08
5.6478e-05
-6.71806e-08
5.64969e-05
-8.507e-08
5.65206e-05
-1.06838e-07
5.65501e-05
-1.33163e-07
5.65866e-05
-1.64838e-07
5.66316e-05
-2.02795e-07
5.66866e-05
-2.48178e-07
5.67536e-05
-3.02324e-07
5.68349e-05
-3.67029e-07
5.69334e-05
-4.44352e-07
5.70525e-05
-5.3727e-07
5.71964e-05
-6.493e-07
5.73705e-05
-7.85642e-07
5.75818e-05
-9.52955e-07
5.77469e-05
-7.45085e-07
5.79304e-05
-8.27996e-07
5.81342e-05
-9.19759e-07
5.83605e-05
-1.02151e-06
5.86119e-05
-1.13499e-06
5.88915e-05
-1.2621e-06
5.92028e-05
-1.40542e-06
5.95501e-05
-1.56812e-06
5.99387e-05
-1.75426e-06
6.03749e-05
-1.96917e-06
6.08666e-05
-2.21972e-06
6.14238e-05
-2.51522e-06
6.20591e-05
-2.86813e-06
6.2789e-05
-3.29588e-06
6.36354e-05
-3.82317e-06
6.46284e-05
-4.48634e-06
6.58101e-05
-5.34067e-06
6.72418e-05
-6.47409e-06
6.90171e-05
-8.0343e-06
7.12873e-05
-1.02872e-05
7.43162e-05
-1.37566e-05
7.8614e-05
-1.96134e-05
8.53212e-05
-3.09935e-05
9.74772e-05
-5.89706e-05
-0.000160815
0.000121853
6.825e-05
1.95137e-10
6.82493e-05
-1.15563e-10
6.82484e-05
1.22487e-10
6.82482e-05
-2.04819e-10
6.82476e-05
2.30259e-10
6.82477e-05
-2.11215e-10
6.82472e-05
2.59604e-10
6.82472e-05
-2.29136e-10
6.82468e-05
2.22637e-10
6.82468e-05
-2.33836e-10
6.82465e-05
1.92251e-10
6.82465e-05
-2.21519e-10
6.82462e-05
1.61277e-10
6.82462e-05
-2.04406e-10
6.8246e-05
1.22384e-10
6.82461e-05
-1.85153e-10
6.82459e-05
8.41567e-11
6.82459e-05
-1.59631e-10
6.82459e-05
5.31796e-11
6.82459e-05
-1.31207e-10
6.82459e-05
2.94897e-11
6.82459e-05
-1.0408e-10
6.8246e-05
1.24345e-11
6.8246e-05
-7.80495e-11
6.82461e-05
4.39115e-12
6.82462e-05
-5.19883e-11
6.82462e-05
5.39071e-12
6.82463e-05
-2.95206e-11
6.82464e-05
3.13084e-12
6.82465e-05
-3.10976e-11
6.82467e-05
-3.58256e-11
6.82468e-05
-1.00374e-10
6.82469e-05
-1.73455e-10
6.82471e-05
-3.21648e-10
6.82474e-05
-5.29973e-10
6.82477e-05
-8.6283e-10
6.8248e-05
-1.34006e-09
6.82486e-05
-2.04085e-09
6.82493e-05
-3.02617e-09
6.82503e-05
-4.40675e-09
6.82518e-05
-6.2961e-09
6.82537e-05
-8.85606e-09
6.82564e-05
-1.22673e-08
6.826e-05
-1.67622e-08
6.82649e-05
-2.26062e-08
6.82713e-05
-3.01211e-08
6.82798e-05
-3.96749e-08
6.82907e-05
-5.16984e-08
6.83049e-05
-6.66833e-08
6.8323e-05
-8.51958e-08
6.83458e-05
-1.07883e-07
6.83745e-05
-1.35489e-07
6.84102e-05
-1.68874e-07
6.84544e-05
-2.09044e-07
6.85088e-05
-2.57179e-07
6.85753e-05
-3.14733e-07
6.86564e-05
-3.83398e-07
6.87547e-05
-4.65455e-07
6.88739e-05
-5.6351e-07
6.90179e-05
-6.81345e-07
6.9192e-05
-8.23413e-07
6.94026e-05
-9.96313e-07
6.96582e-05
-1.20848e-06
6.98579e-05
-9.4487e-07
7.00798e-05
-1.05e-06
7.03263e-05
-1.16637e-06
7.06001e-05
-1.29539e-06
7.09041e-05
-1.43927e-06
7.12423e-05
-1.60044e-06
7.16187e-05
-1.78217e-06
7.20388e-05
-1.98844e-06
7.25087e-05
-2.22443e-06
7.30362e-05
-2.49688e-06
7.36307e-05
-2.81448e-06
7.43043e-05
-3.18904e-06
7.50723e-05
-3.63631e-06
7.59545e-05
-4.17835e-06
7.69774e-05
-4.84641e-06
7.8177e-05
-5.6864e-06
7.96039e-05
-6.76816e-06
8.13318e-05
-8.20258e-06
8.34725e-05
-1.01757e-05
8.6206e-05
-1.30215e-05
8.98439e-05
-1.73953e-05
9.49795e-05
-2.47497e-05
0.000102893
-3.89074e-05
0.000116654
-7.27328e-05
-0.000184284
0.000140122
8.25639e-05
2.18609e-10
8.25631e-05
-1.55386e-10
8.2562e-05
1.38432e-10
8.25617e-05
-2.58202e-10
8.2561e-05
2.78368e-10
8.25611e-05
-2.65572e-10
8.25605e-05
3.16623e-10
8.25605e-05
-2.88821e-10
8.25601e-05
2.71244e-10
8.25601e-05
-2.94561e-10
8.25597e-05
2.34635e-10
8.25597e-05
-2.78704e-10
8.25593e-05
1.97059e-10
8.25594e-05
-2.57046e-10
8.25591e-05
1.4975e-10
8.25591e-05
-2.32336e-10
8.2559e-05
1.03159e-10
8.2559e-05
-2.00052e-10
8.25589e-05
6.56471e-11
8.2559e-05
-1.63983e-10
8.25589e-05
3.70576e-11
8.2559e-05
-1.29451e-10
8.2559e-05
1.65272e-11
8.25591e-05
-9.64721e-11
8.25592e-05
7.18215e-12
8.25593e-05
-6.3214e-11
8.25593e-05
9.17625e-12
8.25595e-05
-3.4593e-11
8.25596e-05
6.73226e-12
8.25597e-05
-3.63833e-11
8.25599e-05
-4.20323e-11
8.256e-05
-1.23246e-10
8.25602e-05
-2.14809e-10
8.25604e-05
-4.01122e-10
8.25607e-05
-6.62673e-10
8.25611e-05
-1.08088e-09
8.25615e-05
-1.68024e-09
8.25622e-05
-2.56055e-09
8.25631e-05
-3.79798e-09
8.25643e-05
-5.53194e-09
8.2566e-05
-7.90469e-09
8.25684e-05
-1.11196e-08
8.25716e-05
-1.54035e-08
8.2576e-05
-2.10483e-08
8.25819e-05
-2.83873e-08
8.25897e-05
-3.78244e-08
8.25999e-05
-4.98221e-08
8.26132e-05
-6.49214e-08
8.26303e-05
-8.37396e-08
8.26522e-05
-1.06988e-07
8.26798e-05
-1.35478e-07
8.27145e-05
-1.70146e-07
8.27577e-05
-2.12071e-07
8.28112e-05
-2.62517e-07
8.28769e-05
-3.22963e-07
8.29574e-05
-3.9524e-07
8.30554e-05
-4.81465e-07
8.31744e-05
-5.84512e-07
8.33186e-05
-7.07642e-07
8.34928e-05
-8.55614e-07
8.37034e-05
-1.03401e-06
8.39581e-05
-1.25113e-06
8.42672e-05
-1.51755e-06
8.45087e-05
-1.18651e-06
8.47772e-05
-1.31852e-06
8.50753e-05
-1.46462e-06
8.54063e-05
-1.62661e-06
8.57741e-05
-1.80726e-06
8.6183e-05
-2.0096e-06
8.66382e-05
-2.23773e-06
8.71461e-05
-2.49667e-06
8.77143e-05
-2.79289e-06
8.8352e-05
-3.13484e-06
8.90707e-05
-3.53343e-06
8.98848e-05
-4.00342e-06
9.08128e-05
-4.56456e-06
9.18786e-05
-5.24445e-06
9.31139e-05
-6.08217e-06
9.45621e-05
-7.13508e-06
9.62836e-05
-8.49031e-06
9.83663e-05
-1.0286e-05
0.000100943
-1.27534e-05
0.000104226
-1.63057e-05
0.000108579
-2.17489e-05
0.000114677
-3.08481e-05
0.0001239
-4.81317e-05
0.000139083
-8.79163e-05
-0.000205601
0.000160399
9.98798e-05
2.46883e-10
9.98788e-05
-2.03589e-10
9.98775e-05
1.57861e-10
9.98772e-05
-3.22755e-10
9.98764e-05
3.3663e-10
9.98764e-05
-3.31511e-10
9.98757e-05
3.85314e-10
9.98758e-05
-3.60927e-10
9.98752e-05
3.30201e-10
9.98752e-05
-3.68041e-10
9.98747e-05
2.85882e-10
9.98747e-05
-3.47888e-10
9.98743e-05
2.4034e-10
9.98743e-05
-3.20742e-10
9.9874e-05
1.82873e-10
9.98741e-05
-2.89475e-10
9.98738e-05
1.26254e-10
9.98739e-05
-2.49021e-10
9.98738e-05
8.07711e-11
9.98738e-05
-2.03619e-10
9.98738e-05
4.61853e-11
9.98739e-05
-1.60115e-10
9.98739e-05
2.15086e-11
9.9874e-05
-1.18746e-10
9.98741e-05
1.05373e-11
9.98742e-05
-7.68881e-11
9.98743e-05
1.37173e-11
9.98745e-05
-4.08357e-11
9.98746e-05
1.10307e-11
9.98748e-05
-4.28131e-11
9.98749e-05
-4.9603e-11
9.98751e-05
-1.50981e-10
9.98754e-05
-2.6489e-10
9.98756e-05
-4.97325e-10
9.9876e-05
-8.23268e-10
9.98764e-05
-1.34474e-09
9.9877e-05
-2.09182e-09
9.98778e-05
-3.18924e-09
9.98788e-05
-4.73163e-09
9.98803e-05
-6.89305e-09
9.98824e-05
-9.85052e-09
9.98853e-05
-1.38577e-08
9.98892e-05
-1.91971e-08
9.98945e-05
-2.62327e-08
9.99016e-05
-3.538e-08
9.9911e-05
-4.71425e-08
9.99234e-05
-6.20963e-08
9.99394e-05
-8.09158e-08
9.99602e-05
-1.04371e-07
9.99866e-05
-1.33347e-07
0.00010002
-1.68857e-07
0.000100062
-2.12066e-07
0.000100114
-2.64321e-07
0.000100179
-3.27195e-07
0.000100258
-4.02533e-07
0.000100356
-4.92616e-07
0.000100474
-6.00082e-07
0.000100618
-7.28514e-07
0.000100793
-8.81973e-07
0.000101003
-1.06639e-06
0.000101258
-1.28873e-06
0.000101566
-1.55931e-06
0.00010194
-1.89133e-06
0.000102232
-1.47873e-06
0.000102557
-1.64323e-06
0.000102917
-1.82528e-06
0.000103317
-2.02713e-06
0.000103762
-2.25221e-06
0.000104257
-2.5043e-06
0.000104807
-2.7885e-06
0.000105421
-3.11104e-06
0.000106108
-3.47999e-06
0.000106878
-3.90584e-06
0.000107747
-4.40214e-06
0.00010873
-4.98723e-06
0.000109851
-5.68562e-06
0.000111138
-6.5315e-06
0.000112628
-7.57331e-06
0.000114375
-8.88196e-06
0.000116449
-1.0565e-05
0.000118954
-1.27926e-05
0.000122048
-1.58482e-05
0.000125977
-2.02359e-05
0.000131156
-2.69289e-05
0.000138329
-3.80221e-05
0.000148898
-5.87017e-05
0.000165093
-0.000104112
-0.000223452
0.000182945
0.000120827
2.81176e-10
0.000120826
-2.61594e-10
0.000120825
1.81507e-10
0.000120824
-4.00746e-10
0.000120823
4.07113e-10
0.000120823
-4.11182e-10
0.000120822
4.68617e-10
0.000120822
-4.48182e-10
0.000120822
4.01474e-10
0.000120822
-4.56993e-10
0.000120821
3.47939e-10
0.000120821
-4.3157e-10
0.000120821
2.92673e-10
0.000120821
-3.97773e-10
0.00012082
2.22985e-10
0.00012082
-3.58605e-10
0.00012082
1.54208e-10
0.00012082
-3.08219e-10
0.00012082
9.90427e-11
0.00012082
-2.51632e-10
0.00012082
5.7284e-11
0.00012082
-1.97254e-10
0.00012082
2.74491e-11
0.00012082
-1.45768e-10
0.00012082
1.45874e-11
0.000120821
-9.34747e-11
0.000120821
1.91732e-11
0.000120821
-4.84377e-11
0.000120821
1.61552e-11
0.000120821
-5.06522e-11
0.000120821
-5.88495e-11
0.000120822
-1.84615e-10
0.000120822
-3.25568e-10
0.000120822
-6.1379e-10
0.000120823
-1.01764e-09
0.000120823
-1.664e-09
0.000120824
-2.58976e-09
0.000120825
-3.9498e-09
0.000120826
-5.86105e-09
0.000120828
-8.5395e-09
0.000120831
-1.22042e-08
0.000120834
-1.71696e-08
0.000120839
-2.37858e-08
0.000120845
-3.25037e-08
0.000120854
-4.38381e-08
0.000120865
-5.8413e-08
0.00012088
-7.69423e-08
0.0001209
-1.00262e-07
0.000120925
-1.29324e-07
0.000120957
-1.65229e-07
0.000120997
-2.09229e-07
0.000121048
-2.62769e-07
0.000121111
-3.27517e-07
0.000121189
-4.05423e-07
0.000121285
-4.98771e-07
0.000121403
-6.10389e-07
0.000121546
-7.43543e-07
0.000121721
-9.02674e-07
0.000121931
-1.09281e-06
0.000122186
-1.3213e-06
0.000122494
-1.59676e-06
0.000122867
-1.93199e-06
0.000123319
-2.34332e-06
0.000123672
-1.83208e-06
0.000124065
-2.03584e-06
0.0001245
-2.26133e-06
0.000124984
-2.51133e-06
0.000125522
-2.79008e-06
0.000126119
-3.10224e-06
0.000126785
-3.45413e-06
0.000127527
-3.85345e-06
0.000128356
-4.31013e-06
0.000129287
-4.83715e-06
0.000130336
-5.4512e-06
0.000131523
-6.17488e-06
0.000132876
-7.03836e-06
0.000134427
-8.08368e-06
0.000136224
-9.37027e-06
0.000138326
-1.0985e-05
0.000140819
-1.30593e-05
0.000143826
-1.58e-05
0.000147527
-1.95501e-05
0.000152203
-2.49139e-05
0.000158315
-3.30421e-05
0.000166642
-4.63497e-05
0.000178471
-7.0532e-05
0.000195002
-0.000120644
-0.000236637
0.000208186
0.000146168
3.23018e-10
0.000146167
-3.31681e-10
0.000146165
2.10172e-10
0.000146164
-4.95014e-10
0.000146163
4.92451e-10
0.000146163