/*--------------------------------*- C++ -*----------------------------------*\
| =========                 |                                                 |
| \\      /  F ield         | OpenFOAM: The Open Source CFD Toolbox           |
|  \\    /   O peration     | Version:  5.x                                   |
|   \\  /    A nd           | Web:      www.OpenFOAM.org                      |
|    \\/     M anipulation  |                                                 |
\*---------------------------------------------------------------------------*/
FoamFile
{
    version     2.0;
    format      ascii;
    class       volScalarField;
    location    "900";
    object      epsilon;
}
// * * * * * * * * * * * * * * * * * * * * * * * * * * * * * * * * * * * * * //

dimensions      [0 2 -3 0 0 0 0];

internalField   nonuniform List<scalar> 
20540
(
0.241032
0.157972
0.241032
0.258821
0.241032
0.347296
0.241032
0.418202
0.241032
0.466914
0.241032
0.489711
0.241032
0.484621
0.241032
0.452079
0.241032
0.395583
0.241032
0.322039
0.241032
0.241375
0.241032
0.164971
0.241032
0.10268
0.241032
0.0591027
0.241032
0.0326677
0.241032
0.0204323
0.241032
0.0171312
0.241032
0.0165628
0.241032
0.016475
0.241032
0.0164608
0.241032
0.0164587
0.241032
0.016459
0.241032
0.0164598
0.241032
0.016461
0.241032
0.0164624
0.241032
0.0164641
0.241032
0.0164661
0.241032
0.0164683
0.241032
0.0164705
0.241032
0.0164725
0.241032
0.016474
0.241032
0.0164747
0.241032
0.0164747
0.241032
0.016474
0.241032
0.0164725
0.241032
0.0164705
0.241032
0.0164684
0.241032
0.0164663
0.241032
0.0164644
0.241032
0.0164627
0.241032
0.0164612
0.241032
0.01646
0.241032
0.0164591
0.241032
0.0164587
0.241032
0.0164595
0.241032
0.0164663
0.241032
0.0165064
0.241032
0.01675
0.241032
0.0182261
0.241032
0.0250067
0.241032
0.0432241
0.241032
0.0759604
0.241032
0.125888
0.241032
0.192432
0.241032
0.269215
0.241032
0.346408
0.241032
0.413851
0.241032
0.463203
0.241032
0.488954
0.241032
0.48856
0.241032
0.462055
0.241032
0.411509
0.241032
0.340536
0.241032
0.25384
0.241032
0.158308
654830
641977
597338
564753
541005
523129
509191
497990
488786
481097
474589
469019
464207
460013
456334
453088
450208
447640
445340
443273
441407
439720
438188
436796
435526
434365
433301
432324
431425
430596
429832
429125
428472
427868
427309
426792
426313
425871
425464
425090
424749
424439
424161
423916
423705
423530
423394
423299
423251
423253
423312
423433
423623
423889
424238
424680
425223
425878
426657
427573
428642
429877
431369
432530
433717
434917
436187
437529
438942
440426
441981
443610
445313
447092
448949
450889
452916
455035
457254
459585
462041
464646
467429
470451
473771
477752
483135
503505
696498
544903
482871
447900
424611
407826
395047
384920
376678
369842
364088
359184
354961
351291
348079
345249
342742
340511
338514
336720
335103
333641
332315
331110
330011
329006
328086
327241
326464
325748
325087
324476
323912
323390
322907
322460
322048
321667
321317
320997
320706
320444
320211
320009
319840
319705
319607
319551
319541
319582
319681
319844
320077
320388
320786
321280
321881
322599
323449
324445
325610
326931
328607
329982
331291
332559
333933
335405
336965
338612
340347
342173
344092
346107
348225
350449
352789
355254
357856
360613
363549
366697
370106
373846
378090
382950
389435
388690
470751
381860
337021
312183
295898
284265
275458
268503
262855
258178
254245
250896
248013
245509
243318
241389
239679
238158
236797
235574
234472
233475
232571
231749
231000
230316
229688
229112
228582
228094
227643
227227
226841
226485
226156
225851
225570
225310
225071
224852
224653
224474
224315
224177
224061
223969
223902
223863
223856
223884
223951
224061
224219
224431
224701
225037
225445
225933
226510
227186
227976
228874
229996
230905
231806
232681
233608
234598
235647
236753
237917
239139
240422
241768
243178
244656
246206
247834
249547
251354
253269
255308
257498
259877
262510
265473
268482
264200
326157
281057
247945
229371
217292
208719
202258
197174
193054
189648
186787
184352
182258
180440
178850
177450
176210
175106
174119
173233
172434
171711
171056
170460
169917
169421
168966
168549
168165
167811
167484
167182
166903
166644
166405
166184
165980
165791
165618
165459
165314
165184
165068
164966
164881
164812
164762
164731
164722
164738
164782
164856
164964
165109
165296
165528
165810
166149
166550
167018
167566
168191
168956
169564
170194
170812
171455
172136
172856
173614
174409
175244
176117
177030
177984
178981
180023
181112
182253
183449
184708
186037
187448
188961
190585
192354
193637
190047
229533
213808
189205
174833
165501
158907
153960
150080
146944
144355
142183
140337
138751
137374
136171
135112
134174
133339
132593
131923
131319
130773
130278
129828
129418
129043
128700
128384
128094
127826
127579
127351
127140
126945
126765
126598
126443
126300
126169
126048
125938
125839
125750
125673
125607
125553
125512
125486
125475
125483
125510
125559
125633
125733
125863
126025
126224
126462
126744
127074
127459
127901
128430
128840
129283
129727
130181
130657
131158
131684
132235
132811
133411
134038
134690
135369
136074
136809
137572
138368
139198
140065
140972
141928
142916
143939
144404
142053
161930
165815
147869
136550
129149
123931
120030
116981
114522
112497
110800
109360
108123
107050
106113
105289
104559
103910
103330
102809
102340
101916
101531
101182
100863
100572
100305
100060
99834.3
99626.6
99434.8
99257.6
99093.8
98942.1
98801.8
98671.8
98551.6
98440.6
98338.2
98244.1
98158.2
98080.3
98010.4
97948.9
97896
97852.2
97818.2
97794.8
97783
97784.2
97799.9
97831.5
97880.7
97949.3
98039.2
98152.5
98291.5
98459
98657.7
98891
99162.4
99475.8
99841.4
100118
100428
100746
101067
101401
101750
102116
102497
102894
103307
103736
104180
104640
105115
105607
106114
106638
107178
107736
108309
108898
109479
110036
110123
108726
113249
129816
117384
108447
102486
98276.5
95135.9
92688.8
90721.2
89103.2
87749.8
86602.1
85617.5
84764.7
84019.9
83365.1
82786
82271.1
81810.9
81397.8
81025.7
80689.4
80384.5
80107.4
79854.9
79624.1
79412.7
79218.6
79040
78875.4
78723.4
78583.1
78453.2
78333.1
78221.8
78118.8
78023.4
77935.2
77853.8
77778.9
77710.3
77647.9
77591.7
77541.8
77498.5
77462
77432.8
77411.5
77398.6
77395.3
77402.5
77421.3
77452.9
77498.5
77559.5
77637.3
77733.5
77849.9
77988.6
78151.7
78341.3
78561.3
78811.8
78995.3
79208.3
79432.7
79658.2
79890.7
80132.1
80383.2
80644
80914.4
81194.1
81483
81780.7
82086.9
82401.3
82723.6
83053.3
83389.8
83732.3
84079.4
84428.1
84774.9
85094
85361.3
85279.6
84458.9
77712.4
101779
94095
87132.5
82305.3
78868.3
76303.9
74309.9
72710.2
71397.3
70300.7
69372
68576.2
67887.4
67286.4
66758.4
66291.6
65876.7
65506.1
65173.5
64874
64603.4
64358.1
64135.2
63932.1
63746.5
63576.5
63420.4
63276.8
63144.4
63022.3
62909.4
62805
62708.4
62618.8
62535.9
62459.1
62388
62322.3
62261.7
62206.1
62155.3
62109.3
62068.2
62032.1
62001.1
61975.6
61956
61942.4
61935.8
61936.9
61946.4
61965
61993.8
62033.5
62085.1
62149.8
62228.8
62323.3
62434.9
62564.6
62715.8
62883.7
63002.6
63144.3
63298.3
63453.2
63611.6
63774.9
63943.6
64117.7
64297.1
64481.6
64670.8
64864.4
65061.9
65262.9
65466.6
65672.4
65879.3
66085.9
66290.3
66488.6
66675.7
66827.9
66921.6
66767.9
66246.1
51763
79305.5
75783.5
70553.6
66665.9
63847.1
61734.8
60093
58777.7
57699.8
56800.8
56040.2
55389.2
54826.3
54335.5
53904.5
53523.8
53185.6
52883.6
52612.7
52368.8
52148.4
51948.8
51767.4
51602.2
51451.2
51312.9
51185.9
51069.1
50961.4
50862.1
50770.3
50685.3
50606.7
50533.8
50466.3
50403.7
50345.7
50292.1
50242.5
50196.8
50155
50116.9
50082.5
50052
50025.4
50002.8
49984.6
49970.7
49961.9
49958.5
49961.2
49970.4
49986.7
50010.7
50043.1
50084.5
50135.8
50197.7
50271.2
50356.7
50456.9
50565.5
50639.2
50729.1
50830.1
50932.4
51036.5
51142.9
51251.9
51363.6
51477.7
51594
51712.3
51832.1
51952.9
52074.1
52195.2
52315.3
52433.3
52547.7
52656.3
52755.4
52839.3
52888.1
52882.2
52701.6
52321.5
33054.7
60904
61018.2
57382.4
54315.7
52013.9
50269.9
48910.2
47820.9
46928.7
46185.1
45556.7
45019.3
44555
44150.4
43795.4
43482
43203.7
42955.3
42732.5
42532.1
42351
42187
42038
41902.3
41778.3
41664.8
41560.5
41464.6
41376.2
41294.7
41219.3
41149.6
41085
41025.1
40969.7
40918.2
40870.4
40826.2
40785.2
40747.4
40712.5
40680.7
40651.7
40625.6
40602.5
40582.4
40565.4
40551.6
40541.3
40534.9
40532.7
40535
40542.3
40554.8
40573
40597.3
40628.1
40666
40711.4
40764.5
40827.2
40893.1
40935.5
40988.3
41050.1
41113.4
41177.7
41242.9
41309
41376
41443.6
41511.7
41580
41648
41715.4
41781.6
41846
41907.8
41966
42019
42065
42100.4
42120
42107.6
42048.7
41864.2
41554.6
19927.1
45640.3
48830.7
46712.3
44402.6
42555.1
41123.3
39997.5
39092.8
38351.1
37732.9
37210.5
36763.9
36378.4
36042.6
35748.1
35488.3
35257.6
35051.8
34867.3
34701.3
34551.4
34415.7
34292.4
34180.1
34077.6
33983.6
33897.4
33818.1
33745
33677.5
33615.2
33557.5
33504.1
33454.6
33408.6
33366
33326.3
33289.6
33255.5
33223.9
33194.7
33167.8
33143.1
33120.7
33100.5
33082.5
33066.8
33053.3
33042.2
33033.8
33028.2
33025.7
33026.5
33030.7
33038.6
33050.5
33066.4
33086.8
33111.9
33141.4
33176.7
33212.5
33233.5
33260.5
33294
33328.9
33364.4
33400.1
33435.8
33471.3
33506.5
33541
33574.8
33607.4
33638.5
33667.6
33694.1
33717.4
33736.6
33750.4
33756.9
33753.2
33734.8
33689.1
33605.9
33430.3
33167.1
11114
32948
38548.7
37896.7
36319.9
34893.4
33739.2
32815.3
32066.7
31450.4
30935.7
30500.4
30128.2
29806.8
29526.9
29281.5
29065
28872.8
28701.4
28547.8
28409.6
28284.9
28171.9
28069.3
27975.9
27890.6
27812.4
27740.7
27674.7
27613.9
27557.8
27505.9
27457.9
27413.5
27372.2
27334
27298.4
27265.4
27234.6
27206.1
27179.5
27154.9
27132
27111
27091.6
27073.9
27057.8
27043.4
27030.4
27019
27009.4
27001.7
26995.9
26992.2
26990.6
26991.3
26994.3
26999.8
27007.7
27018.3
27031.1
27047
27061.8
27068.7
27078.3
27092.2
27107.1
27122.3
27137.4
27152
27165.9
27179
27191
27201.7
27210.9
27218.2
27223.2
27225.5
27224.6
27219.6
27209.4
27192.7
27166.7
27127.9
27066.6
26976.2
26817.4
26594.8
5577.69
22517.6
29710.7
30459.2
29618.5
28603.8
27710.2
26968.8
26357.6
25849.8
25423.4
25061.7
24751.7
24483.8
24250.3
24045.4
23864.7
23704.2
23561.1
23432.8
23317.4
23213.2
23118.9
23033.3
22955.3
22884
22818.8
22758.9
22703.7
22652.9
22606.1
22562.7
22522.6
22485.5
22451
22419
22389.2
22361.5
22335.8
22311.7
22289.3
22268.5
22249
22230.9
22214.2
22198.6
22184.3
22171.1
22158.9
22147.7
22137.5
22128.6
22120.7
22114.1
22108.7
22104.5
22101.6
22099.8
22099.3
22099.8
22101.3
22103.8
22104.7
22102.4
22101
22102
22103.4
22105
22106.2
22106.9
22106.6
22105.3
22102.8
22098.9
22093.3
22085.8
22076.2
22064
22048.7
22029.8
22006.4
21977.2
21940.1
21892.3
21826.6
21738.6
21600.7
21416.8
2421.81
14213.5
22026.1
24044.4
23954.9
23361.9
22727
22160.3
21676.4
21266.5
20918.4
20621
20364.9
20142.8
19948.8
19778.4
19627.8
19494
19374.6
19267.5
19171.2
19084.1
19005.3
18933.8
18868.6
18809
18754.4
18704.3
18658.2
18615.7
18576.5
18540.2
18506.7
18475.5
18446.7
18419.8
18394.9
18371.6
18349.9
18329.7
18310.8
18293.1
18276.5
18261
18246.5
18232.9
18220.1
18208.2
18196.9
18186.2
18176.1
18166.6
18157.7
18149.4
18141.7
18134.4
18127.7
18121.3
18115.3
18109.4
18103.4
18097.4
18089.4
18081.6
18073.6
18066.8
18059.9
18052.9
18045.4
18037.3
18028.3
18018.3
18007.1
17994.6
17980.5
17964.7
17946.9
17926.8
17904.2
17878.3
17848.7
17814.2
17773.2
17723.4
17659.8
17579.4
17463.6
17315.2
862.115
7989.41
15362.4
18396.6
19060.8
18912.4
18547.5
18157.8
17798.8
17482.4
17207.2
16968.6
16761
16579.7
16420.6
16280.3
16156
16045.4
15946.4
15857.5
15777.4
15705
15639.4
15579.8
15525.5
15475.8
15430.3
15388.5
15350
15314.5
15281.7
15251.4
15223.3
15197.3
15173.2
15150.7
15129.8
15110.3
15092.1
15075
15059
15044
15030
15016.7
15004.2
14992.3
14981.1
14970.4
14960.2
14950.2
14940.5
14931.1
14921.9
14912.8
14903.9
14895.1
14886.2
14877.2
14867.9
14858.3
14847.9
14836.8
14823.8
14813
14801.6
14790.5
14779.1
14767.3
14755
14742
14728.3
14713.6
14697.8
14680.8
14662.5
14642.7
14621.3
14597.9
14572.3
14544.1
14512.7
14477.4
14436.8
14389.2
14331.2
14260.7
14166.1
14048.5
239.125
3783.22
9741.78
13361.2
14730.5
15050
14976.4
14775.5
14546.5
14324.7
14121.5
13939.7
13778.2
13635
13508.1
13395.3
13294.8
13204.8
13124.1
13051.4
12985.7
12926.2
12872.2
12823.1
12778.2
12737.2
12699.5
12664.9
12633
12603.5
12576.3
12551.1
12527.8
12506.2
12486.1
12467.4
12450
12433.7
12418.5
12404.2
12390.8
12378.2
12366.3
12355
12344.3
12334.1
12324.3
12314.9
12305.8
12296.8
12287.8
12278.8
12269.9
12260.8
12251.6
12242.2
12232.4
12222.2
12211.4
12199.9
12187.4
12173.9
12158.6
12146.6
12133.9
12121
12107.6
12093.7
12079.3
12064.3
12048.5
12031.9
12014.4
11995.9
11976.2
11955.4
11933.1
11909.2
11883.6
11855.8
11825.4
11791.8
11754
11710.8
11660.1
11600.2
11524.6
11432.6
52.1347
1385.71
5315.95
8904.18
10824.1
11611.5
11853.1
11860.1
11773.1
11652.7
11525.1
11401.5
11286.4
11181
11085.4
10999.1
10921.2
10850.8
10787.1
10729.4
10677
10629.3
10585.9
10546.3
10510
10476.8
10446.2
10418
10392
10367.9
10345.7
10325.1
10306
10288.3
10271.8
10256.4
10242.1
10228.7
10216.2
10204.4
10193.3
10182.8
10172.9
10163.4
10154.4
10145.8
10137.4
10129.3
10121.4
10113.4
10105.4
10097.2
10088.9
10080.3
10071.5
10062.2
10052.5
10042.1
10031.1
10019.1
10006.1
9991.85
9976.07
9964.05
9951.37
9938.37
9924.75
9910.6
9895.92
9880.64
9864.71
9848.07
9830.66
9812.4
9793.22
9773.02
9751.68
9729.06
9704.97
9679.14
9651.23
9620.77
9587.07
9549.23
9506.01
9456.45
9396.98
9325.69
9.62517
349.633
2276.07
5138.28
7291.19
8481.48
9047.52
9283.31
9355.48
9348.47
9304.42
9244.36
9178.86
9113.22
9050.15
8990.86
8935.78
8884.89
8838.04
8794.98
8755.48
8719.25
8686.02
8655.48
8627.38
8601.47
8577.54
8555.41
8534.92
8515.93
8498.33
8481.99
8466.82
8452.71
8439.56
8427.3
8415.85
8405.11
8395.03
8385.54
8376.58
8368.09
8360.01
8352.3
8344.9
8337.75
8330.8
8323.99
8317.26
8310.51
8303.58
8296.43
8289.04
8281.33
8273.24
8264.7
8255.6
8245.85
8235.32
8223.91
8211.37
8197.69
8182.65
8171.38
8159.52
8147.3
8134.5
8121.17
8107.34
8092.96
8078.02
8062.46
8046.24
8029.32
8011.64
7993.11
7973.66
7953.17
7931.47
7908.39
7883.65
7856.91
7827.7
7795.46
7759.51
7719.34
7673.13
7618.2
1.5766
57.4892
659.562
2312.49
4213.14
5617.99
6469.37
6941.5
7189.59
7311.3
7362.63
7374.75
7365.13
7343.76
7316.45
7286.56
7255.99
7225.8
7196.65
7168.9
7142.73
7118.21
7095.32
7073.97
7054.06
7035.5
7018.2
7002.07
6987.03
6973.02
6959.97
6947.8
6936.46
6925.88
6915.99
6906.73
6898.05
6889.89
6882.2
6874.94
6868.05
6861.49
6855.23
6849.22
6843.41
6837.76
6832.23
6826.77
6821.31
6815.84
6810.14
6804.18
6797.92
6791.32
6784.31
6776.82
6768.77
6760.07
6750.61
6740.31
6728.96
6716.55
6702.97
6692.9
6682.31
6671.36
6659.91
6647.99
6635.6
6622.73
6609.36
6595.46
6581.01
6565.96
6550.28
6533.9
6516.76
6498.76
6479.8
6459.72
6438.34
6415.43
6390.69
6363.81
6334.48
6302.5
6266.91
6224.76
0.233132
7.09521
110.735
676.716
1834.42
3103
4097.77
4769.39
5194.55
5456.76
5616.31
5711.67
5766.83
5796.72
5810.63
5814.35
5811.55
5804.64
5795.23
5784.41
5772.89
5761.13
5749.43
5737.94
5726.79
5716.04
5705.75
5695.94
5686.64
5677.83
5669.52
5661.7
5654.33
5647.39
5640.84
5634.67
5628.84
5623.32
5618.07
5613.08
5608.31
5603.74
5599.34
5595.07
5590.91
5586.82
5582.77
5578.72
5574.63
5570.47
5566.13
5561.49
5556.53
5551.2
5545.46
5539.25
5532.5
5525.14
5517.07
5508.22
5498.42
5487.68
5475.95
5467.27
5458.14
5448.69
5438.81
5428.51
5417.8
5406.67
5395.1
5383.09
5370.59
5357.6
5344.06
5329.95
5315.2
5299.76
5283.53
5266.43
5248.32
5229.07
5208.52
5186.54
5163.01
5137.91
5110.67
5078.44
0.0346151
0.74554
11.514
105.199
478.571
1195.98
2041.63
2778.43
3333.08
3726.66
3999.27
4186.79
4316.09
4405.7
4467.98
4511.19
4541.02
4561.39
4575.05
4583.92
4589.34
4592.25
4593.32
4593.05
4591.8
4589.86
4587.44
4584.71
4581.79
4578.77
4575.72
4572.67
4569.67
4566.72
4563.84
4561.03
4558.29
4555.63
4553.04
4550.51
4548.03
4545.61
4543.21
4540.84
4538.46
4536.07
4533.63
4531.12
4528.51
4525.77
4522.89
4519.7
4516.16
4512.25
4507.93
4503.15
4497.86
4491.99
4485.48
4478.25
4470.18
4461.28
4451.53
4444.31
4436.69
4428.77
4420.49
4411.84
4402.82
4393.45
4383.69
4373.54
4362.98
4351.99
4340.54
4328.61
4316.16
4303.14
4289.49
4275.17
4260.09
4244.2
4227.44
4209.76
4191.17
4171.69
4150.96
4126.4
0.00739058
0.0690703
0.942877
9.121
59.6195
242.309
618.186
1132.92
1664.65
2122.01
2481.21
2754.55
2960.77
3116.01
3233.12
3322.03
3390.19
3442.94
3484.13
3516.52
3542.13
3562.47
3578.7
3591.7
3602.17
3610.64
3617.51
3623.11
3627.69
3631.44
3634.51
3637.02
3639.06
3640.72
3642.05
3643.11
3643.92
3644.54
3644.98
3645.27
3645.42
3645.44
3645.35
3645.13
3644.79
3644.32
3643.71
3642.94
3642
3640.87
3639.54
3637.97
3636.01
3633.66
3630.89
3627.67
3623.95
3619.69
3614.82
3609.3
3603.03
3596.02
3588.26
3582.48
3576.32
3569.89
3563.14
3556.06
3548.66
3540.93
3532.87
3524.47
3515.71
3506.58
3497.06
3487.14
3476.79
3465.98
3454.7
3442.9
3430.56
3417.67
3404.23
3390.24
3375.75
3360.8
3345.09
3326.44
0.00242376
0.00611503
0.0656301
0.599325
4.07891
21.2677
82.7066
229.698
473.916
786.768
1119.19
1426.89
1687.42
1898.71
2068.18
2204.57
2314.95
2404.63
2477.76
2537.67
2587.05
2628.07
2662.43
2691.42
2716.08
2737.19
2755.35
2771.07
2784.72
2796.64
2807.07
2816.25
2824.35
2831.52
2837.89
2843.57
2848.64
2853.19
2857.27
2860.94
2864.23
2867.19
2869.84
2872.2
2874.29
2876.1
2877.66
2878.94
2879.96
2880.7
2881.16
2881.38
2881.2
2880.59
2879.53
2878.01
2875.99
2873.43
2870.3
2866.55
2862.11
2856.98
2851.18
2846.8
2842.05
2837.03
2831.72
2826.11
2820.2
2814
2807.5
2800.7
2793.58
2786.15
2778.38
2770.29
2761.84
2753.04
2743.88
2734.35
2724.45
2714.2
2703.62
2692.74
2681.6
2670.25
2658.43
2644.35
0.00184248
0.000886082
0.00404538
0.0328513
0.21449
1.12226
4.87525
17.7198
52.8553
126.633
247.031
408.402
596.072
792.21
980.679
1150.64
1297.54
1421.68
1525.92
1613.8
1688.5
1752.52
1807.75
1855.62
1897.24
1933.54
1965.27
1993.12
2017.65
2039.34
2058.62
2075.81
2091.22
2105.09
2117.62
2128.97
2139.29
2148.69
2157.28
2165.14
2172.34
2178.93
2184.97
2190.51
2195.56
2200.17
2204.36
2208.13
2211.5
2214.48
2217.06
2219.27
2221.15
2222.53
2223.41
2223.79
2223.64
2222.93
2221.65
2219.76
2217.21
2214
2210.16
2207.14
2203.76
2200.11
2196.18
2191.97
2187.48
2182.71
2177.67
2172.35
2166.76
2160.89
2154.74
2148.32
2141.63
2134.67
2127.44
2119.96
2112.24
2104.3
2096.18
2087.91
2079.52
2071.03
2062.26
2051.74
0.00181832
0.000333914
0.00031558
0.00154329
0.00929257
0.0469356
0.200768
0.744345
2.43167
7.06089
18.1862
41.1154
81.1904
141.193
220.142
314.159
418.012
526.233
633.801
736.654
831.98
918.251
995.033
1062.69
1122.04
1174.13
1220.02
1260.67
1296.91
1329.4
1358.7
1385.23
1409.35
1431.33
1451.41
1469.78
1486.63
1502.08
1516.28
1529.34
1541.36
1552.43
1562.63
1572.04
1580.71
1588.69
1596.03
1602.78
1608.95
1614.58
1619.69
1624.28
1628.42
1632.1
1635.21
1637.75
1639.7
1641.07
1641.84
1641.98
1641.47
1640.29
1638.49
1636.88
1634.9
1632.64
1630.1
1627.28
1624.19
1620.83
1617.22
1613.35
1609.24
1604.89
1600.31
1595.5
1590.48
1585.25
1579.83
1574.24
1568.5
1562.62
1556.64
1550.58
1544.47
1538.32
1531.99
1524.35
0.00181797
0.000298835
8.24319e-05
8.99397e-05
0.000343001
0.00159526
0.00661453
0.0240873
0.0780977
0.228621
0.611414
1.50724
3.44848
7.3388
14.4915
26.4743
44.75
70.263
103.185
142.928
188.364
238.099
290.689
344.77
399.12
452.698
504.656
554.346
601.316
645.29
686.141
723.863
758.54
790.323
819.4
845.982
870.289
892.534
912.921
931.638
948.857
964.729
979.388
992.951
1005.52
1017.17
1027.99
1038.04
1047.35
1055.99
1063.98
1071.34
1078.11
1084.37
1090.06
1095.12
1099.54
1103.34
1106.49
1108.99
1110.82
1111.97
1112.48
1112.45
1112.04
1111.33
1110.31
1109.02
1107.44
1105.61
1103.53
1101.21
1098.66
1095.9
1092.94
1089.79
1086.47
1082.98
1079.36
1075.61
1071.75
1067.8
1063.78
1059.71
1055.61
1051.48
1047.24
1042.07
0.00181828
0.000297967
6.85729e-05
2.34887e-05
1.98658e-05
4.86169e-05
0.00017527
0.000614894
0.0019593
0.00567417
0.0150806
0.0371363
0.0854887
0.185294
0.380145
0.741669
1.38216
2.46802
4.22788
6.94785
10.9499
16.5561
24.0455
33.6157
45.357
59.2452
75.1516
92.8655
112.122
132.631
154.097
176.237
198.793
221.532
244.25
266.775
288.958
310.678
331.837
352.354
372.171
391.241
409.535
427.031
443.721
459.601
474.676
488.953
502.445
515.163
527.124
538.343
548.833
558.615
567.796
576.299
584.081
591.139
597.47
603.07
607.934
612.056
615.458
617.357
618.845
619.98
620.784
621.276
621.474
621.396
621.062
620.488
619.693
618.692
617.504
616.145
614.631
612.978
611.203
609.32
607.345
605.291
603.173
601.003
598.792
596.548
594.241
591.428
0.00181863
0.000297997
6.82609e-05
2.06351e-05
8.05777e-06
4.73938e-06
5.75393e-06
1.34046e-05
3.83473e-05
0.00010757
0.000282071
0.000689351
0.00157907
0.00341203
0.00699273
0.0136597
0.0255539
0.0459748
0.0798135
0.134046
0.218292
0.345474
0.532537
0.801131
1.17803
1.69502
2.38817
3.29639
4.45952
5.91602
7.70077
9.84302
12.3647
15.2796
18.5924
22.2991
26.3874
30.8377
35.6239
40.715
46.0764
51.6707
57.4594
63.4032
69.4632
75.6012
81.7802
87.965
94.1217
100.218
106.224
112.111
117.851
123.418
128.79
134.014
139.092
144.002
148.72
153.225
157.497
161.517
165.265
167.607
169.761
171.737
173.541
175.18
176.661
177.991
179.177
180.228
181.15
181.952
182.642
183.227
183.715
184.114
184.431
184.673
184.847
184.959
185.017
185.025
184.989
184.915
184.807
184.657
0.001819
0.000298044
6.8267e-05
2.05856e-05
7.73865e-06
3.47589e-06
1.84139e-06
1.22963e-06
1.22501e-06
1.96215e-06
4.16957e-06
9.50132e-06
2.12261e-05
4.538e-05
9.2512e-05
0.000180194
0.000336529
0.000604832
0.00104952
0.00176311
0.00287439
0.00455788
0.00704489
0.0106357
0.0157122
0.0227489
0.0323229
0.0451199
0.0619389
0.0836945
0.111418
0.146258
0.189473
0.242428
0.306575
0.38343
0.474537
0.581429
0.705568
0.848292
1.01075
1.19383
1.3981
1.62375
1.87052
2.13767
2.42393
2.72744
3.04577
3.37587
3.7141
4.05618
4.39727
4.73132
5.05156
5.38446
5.7325
6.09352
6.46515
6.8449
7.23014
7.61813
8.00606
8.25972
8.50502
8.74147
8.96863
9.18617
9.39388
9.59162
9.77936
9.95715
10.1251
10.2834
10.4322
10.5719
10.7028
10.8252
10.9394
11.0459
11.1451
11.2373
11.323
11.4025
11.4763
11.5448
11.6082
11.6699
0.00181934
0.000298088
6.82769e-05
2.05878e-05
7.73546e-06
3.45649e-06
1.76948e-06
1.00913e-06
6.29878e-07
4.29532e-07
3.28938e-07
3.02362e-07
3.57197e-07
5.34748e-07
9.21064e-07
1.66581e-06
3.01107e-06
5.33107e-06
9.1834e-06
1.5371e-05
2.50151e-05
3.96388e-05
6.12616e-05
9.25034e-05
0.000136694
0.00019798
0.000281418
0.000393055
0.000539981
0.000730361
0.000973439
0.00127951
0.00165988
0.00212673
0.00269296
0.0033719
0.00417694
0.00512101
0.00621586
0.00747118
0.00889344
0.0104846
0.0122405
0.014149
0.016188
0.0183229
0.0205049
0.0226681
0.0247275
0.0265772
0.028089
0.0291076
0.0294588
0.0294607
0.0295486
0.0297208
0.0299767
0.0303152
0.0307348
0.0312334
0.031808
0.032455
0.0331698
0.0336664
0.0341745
0.0346904
0.035211
0.0357334
0.0362547
0.0367724
0.0372844
0.0377886
0.0382833
0.0387672
0.0392389
0.0396976
0.0401423
0.0405725
0.0409878
0.041388
0.0417729
0.0421425
0.042497
0.0428365
0.0431612
0.0434716
0.043768
0.0440689
0.00181958
0.000298119
6.82838e-05
2.05898e-05
7.73612e-06
3.45662e-06
1.76896e-06
1.007e-06
6.23576e-07
4.13005e-07
2.88893e-07
2.11491e-07
1.61137e-07
1.27609e-07
1.05548e-07
9.2398e-08
8.74942e-08
9.17481e-08
1.07673e-07
1.39616e-07
1.94114e-07
2.80338e-07
4.10637e-07
6.01139e-07
8.72404e-07
1.25008e-06
1.76551e-06
2.45626e-06
3.36648e-06
4.54711e-06
6.05584e-06
7.95679e-06
1.03198e-05
1.32194e-05
1.67329e-05
2.09376e-05
2.59074e-05
3.17074e-05
3.83871e-05
4.59715e-05
5.44499e-05
6.37626e-05
7.37849e-05
8.431e-05
9.50312e-05
0.000105526
0.000115244
0.000123502
0.000129488
0.000132312
0.000131063
0.000129484
0.000128025
0.000126651
0.000125353
0.000124125
0.000122962
0.000121857
0.000120803
0.000119796
0.000118831
0.000117901
0.000117004
0.000116427
0.000115876
0.000115348
0.000114842
0.000114357
0.000113892
0.000113446
0.00011302
0.000112613
0.000112225
0.000111856
0.000111507
0.000111177
0.000110867
0.000110577
0.000110308
0.000110059
0.000109832
0.000109625
0.00010944
0.000109275
0.000109131
0.000109008
0.000108905
0.00010887
0.00181969
0.000298134
6.82872e-05
2.05907e-05
7.73646e-06
3.45677e-06
1.76903e-06
1.00703e-06
6.2356e-07
4.12909e-07
2.88628e-07
2.10868e-07
1.5978e-07
1.24813e-07
1.00038e-07
8.1962e-08
6.84411e-08
5.81151e-08
5.00963e-08
4.37939e-08
3.88103e-08
3.48792e-08
3.18276e-08
2.9552e-08
2.80039e-08
2.71802e-08
2.7118e-08
2.78907e-08
2.96054e-08
3.24009e-08
3.64446e-08
4.19296e-08
4.90689e-08
5.80881e-08
6.92143e-08
8.26603e-08
9.86029e-08
1.17153e-07
1.38314e-07
1.61937e-07
1.87651e-07
2.14802e-07
2.4237e-07
2.68899e-07
2.92453e-07
3.10603e-07
3.20496e-07
3.20803e-07
3.21759e-07
3.23187e-07
3.24939e-07
3.27237e-07
3.3048e-07
3.35297e-07
3.42692e-07
3.54264e-07
3.72556e-07
4.01593e-07
4.47696e-07
5.20706e-07
6.3578e-07
8.1598e-07
1.09589e-06
1.33751e-06
1.64437e-06
2.02988e-06
2.50878e-06
3.09711e-06
3.81196e-06
4.67117e-06
5.69302e-06
6.89576e-06
8.29722e-06
9.91438e-06
1.17629e-05
1.38568e-05
1.62081e-05
1.88262e-05
2.17183e-05
2.48886e-05
2.83385e-05
3.20665e-05
3.60685e-05
4.03376e-05
4.48644e-05
4.96372e-05
5.46423e-05
5.98713e-05
0.00181969
0.000298134
6.82871e-05
2.05907e-05
7.73645e-06
3.45677e-06
1.76903e-06
1.00703e-06
6.23559e-07
4.12909e-07
2.88628e-07
2.10867e-07
1.59777e-07
1.24809e-07
1.0003e-07
8.19466e-08
6.84136e-08
5.80676e-08
5.0017e-08
4.36649e-08
3.86057e-08
3.45627e-08
3.13492e-08
2.88444e-08
2.69782e-08
2.57218e-08
2.50816e-08
2.50956e-08
2.58316e-08
2.7386e-08
2.98838e-08
3.34788e-08
3.83551e-08
4.47305e-08
5.28609e-08
6.30493e-08
7.56587e-08
9.1133e-08
1.10027e-07
1.33052e-07
1.61139e-07
1.95532e-07
2.3792e-07
2.90628e-07
3.56879e-07
4.41185e-07
5.49898e-07
6.92011e-07
8.80322e-07
1.13312e-06
1.47664e-06
1.94861e-06
2.60337e-06
3.51923e-06
4.80885e-06
6.63392e-06
9.22534e-06
1.29109e-05
1.81521e-05
2.5593e-05
3.61219e-05
5.09506e-05
7.17087e-05
8.85545e-05
0.000108707
0.000132605
0.000160687
0.000193389
0.000231131
0.000274311
0.000323292
0.000378392
0.000439877
0.000507954
0.000582766
0.000664385
0.000752817
0.000847995
0.000949787
0.001058
0.00117236
0.00129258
0.00141829
0.00154909
0.00168454
0.0018242
0.00196757
0.00211432
0.00181958
0.000298119
6.82837e-05
2.05898e-05
7.73612e-06
3.45662e-06
1.76896e-06
1.007e-06
6.23556e-07
4.12952e-07
2.88766e-07
2.11208e-07
1.60538e-07
1.26401e-07
1.03212e-07
8.80532e-08
7.97075e-08
7.82499e-08
8.49629e-08
1.02449e-07
1.34871e-07
1.88265e-07
2.70935e-07
3.93896e-07
5.71386e-07
8.21399e-07
1.16623e-06
1.63299e-06
2.25408e-06
3.06764e-06
4.11784e-06
5.45532e-06
7.13754e-06
9.22932e-06
1.18037e-05
1.4943e-05
1.87411e-05
2.33059e-05
2.87637e-05
3.52653e-05
4.29949e-05
5.21817e-05
6.31168e-05
7.61755e-05
9.18479e-05
0.000110779
0.000133823
0.000162115
0.000197165
0.000240981
0.000296233
0.000366462
0.000456348
0.000572057
0.000721661
0.000915671
0.00116766
0.00149503
0.00191983
0.0024697
0.00317893
0.00408944
0.00525183
0.00614323
0.00715298
0.00828886
0.00955718
0.010963
0.0125101
0.0142011
0.0160369
0.0180171
0.0201397
0.0224014
0.0247973
0.0273215
0.0299668
0.0327252
0.0355877
0.0385447
0.0415861
0.0447017
0.0478806
0.0511124
0.0543865
0.0576923
0.06102
0.0643623
0.00181934
0.000298088
6.82769e-05
2.05878e-05
7.73544e-06
3.4564e-06
1.76914e-06
1.00805e-06
6.26851e-07
4.21814e-07
3.1067e-07
2.61876e-07
2.71439e-07
3.59044e-07
5.7395e-07
1.00683e-06
1.80828e-06
3.21544e-06
5.58761e-06
9.4509e-06
1.55516e-05
2.49179e-05
3.89302e-05
5.94e-05
8.8656e-05
0.000129635
0.000185968
0.000262064
0.000363174
0.000495447
0.000665973
0.00088282
0.00115508
0.00149291
0.0019076
0.00241169
0.0030191
0.00374532
0.00460775
0.0056261
0.00682297
0.00822473
0.00986252
0.0117737
0.0140038
0.0166084
0.0196562
0.0232318
0.0274399
0.0324092
0.0382969
0.0452945
0.0536326
0.0635869
0.0754841
0.0897068
0.106699
0.126969
0.151092
0.179709
0.213524
0.253292
0.2998
0.333593
0.369932
0.4088
0.450128
0.493823
0.539777
0.587863
0.637938
0.689839
0.743396
0.798427
0.854742
0.91215
0.970458
1.02947
1.08901
1.14888
1.20891
1.26894
1.3288
1.38835
1.44745
1.50598
1.56381
1.62094
0.00181901
0.000298045
6.82673e-05
2.05853e-05
7.73637e-06
3.46543e-06
1.80467e-06
1.12132e-06
9.42097e-07
1.23664e-06
2.35708e-06
5.21223e-06
1.16615e-05
2.52172e-05
5.21475e-05
0.000103095
0.00019536
0.000356041
0.000626141
0.00106564
0.00175942
0.00282412
0.00441609
0.00674051
0.0100615
0.0147122
0.0211044
0.0297356
0.041195
0.0561673
0.075435
0.0998816
0.130493
0.16836
0.214677
0.270742
0.33795
0.417784
0.51181
0.621655
0.749004
0.895586
1.06317
1.25356
1.46859
1.71018
1.98027
2.28093
2.6143
2.98269
3.38855
3.83447
4.32326
4.85791
5.44155
6.07749
6.76914
7.51998
8.33347
9.21292
10.1614
11.1813
12.2736
13.0246
13.7903
14.5684
15.3561
16.1511
16.9511
17.7538
18.5571
19.3588
20.157
20.9497
21.7352
22.5118
23.278
24.0324
24.7738
25.5011
26.2134
26.9097
27.5895
28.2521
28.897
29.5239
30.1326
30.7299
0.00181866
0.000298
6.82588e-05
2.0605e-05
7.88263e-06
4.09277e-06
3.81685e-06
7.25672e-06
1.96473e-05
5.51992e-05
0.000146929
0.000365493
0.000852167
0.00187345
0.00390524
0.00775488
0.0147344
0.0269007
0.0473667
0.0806699
0.133187
0.213606
0.333472
0.507788
0.755561
1.10012
1.56902
2.19339
3.00676
4.04348
5.33686
6.91736
8.81087
11.0375
13.6105
16.5361
19.8134
23.4348
27.3868
31.6508
36.2045
41.023
46.0796
51.3471
56.7986
62.4082
68.1518
74.0073
79.955
85.978
92.0616
98.1943
104.367
110.572
116.805
123.064
129.346
135.652
141.982
148.336
154.717
161.122
167.54
171.782
175.928
179.978
183.932
187.787
191.544
195.2
198.755
202.209
205.561
208.812
211.96
215.008
217.954
220.801
223.548
226.198
228.751
231.209
233.573
235.846
238.029
240.124
242.136
244.134
0.00181831
0.000297961
6.83781e-05
2.18861e-05
1.3909e-05
2.54752e-05
8.51927e-05
0.000300111
0.000973762
0.00287743
0.00780463
0.0196064
0.0460018
0.101578
0.212312
0.421896
0.800405
1.45529
2.54212
4.26946
6.8923
10.6918
15.9445
22.8869
31.6848
42.4131
55.0507
69.4882
85.5463
102.999
121.594
141.076
161.196
181.727
202.461
223.219
243.845
264.21
284.206
303.745
322.762
341.204
359.036
376.235
392.791
408.702
423.976
438.627
452.675
466.145
479.066
491.468
503.386
514.854
525.906
536.579