/*--------------------------------*- C++ -*----------------------------------*\
| =========                 |                                                 |
| \\      /  F ield         | OpenFOAM: The Open Source CFD Toolbox           |
|  \\    /   O peration     | Version:  5.x                                   |
|   \\  /    A nd           | Web:      www.OpenFOAM.org                      |
|    \\/     M anipulation  |                                                 |
\*---------------------------------------------------------------------------*/
FoamFile
{
    version     2.0;
    format      ascii;
    class       volScalarField;
    location    "900";
    object      k;
}
// * * * * * * * * * * * * * * * * * * * * * * * * * * * * * * * * * * * * * //

dimensions      [0 2 -2 0 0 0 0];

internalField   nonuniform List<scalar> 
20540
(
2.45293e-05
7.72618e-06
2.45293e-05
1.40218e-05
2.45293e-05
2.49906e-05
2.45293e-05
3.98274e-05
2.45293e-05
5.74879e-05
2.45293e-05
7.64339e-05
2.45293e-05
9.45119e-05
2.45293e-05
0.000108992
2.45293e-05
0.000116847
2.45293e-05
0.000115342
2.45293e-05
0.000102963
2.45293e-05
8.0561e-05
2.45293e-05
5.23749e-05
2.45293e-05
2.60997e-05
2.45293e-05
9.75507e-06
2.45293e-05
4.05127e-06
2.45293e-05
2.89963e-06
2.45293e-05
2.72158e-06
2.45293e-05
2.69432e-06
2.45293e-05
2.68984e-06
2.45293e-05
2.68915e-06
2.45293e-05
2.68913e-06
2.45293e-05
2.68925e-06
2.45293e-05
2.68943e-06
2.45293e-05
2.68966e-06
2.45293e-05
2.68993e-06
2.45293e-05
2.69024e-06
2.45293e-05
2.69057e-06
2.45293e-05
2.69092e-06
2.45293e-05
2.69124e-06
2.45293e-05
2.69147e-06
2.45293e-05
2.69158e-06
2.45293e-05
2.69157e-06
2.45293e-05
2.69147e-06
2.45293e-05
2.69124e-06
2.45293e-05
2.69093e-06
2.45293e-05
2.69059e-06
2.45293e-05
2.69027e-06
2.45293e-05
2.68997e-06
2.45293e-05
2.6897e-06
2.45293e-05
2.68947e-06
2.45293e-05
2.68929e-06
2.45293e-05
2.68915e-06
2.45293e-05
2.68911e-06
2.45293e-05
2.68941e-06
2.45293e-05
2.69158e-06
2.45293e-05
2.70411e-06
2.45293e-05
2.77969e-06
2.45293e-05
3.26019e-06
2.45293e-05
5.94646e-06
2.45293e-05
1.59569e-05
2.45293e-05
3.69468e-05
2.45293e-05
6.43547e-05
2.45293e-05
9.03079e-05
2.45293e-05
0.000108919
2.45293e-05
0.000117509
2.45293e-05
0.000116116
2.45293e-05
0.000106541
2.45293e-05
9.14087e-05
2.45293e-05
7.3451e-05
2.45293e-05
5.50668e-05
2.45293e-05
3.81298e-05
2.45293e-05
2.39822e-05
2.45293e-05
1.35556e-05
2.45293e-05
7.61289e-06
3.6872
3.61483
3.36348
3.18
3.04628
2.94562
2.86714
2.80407
2.75224
2.70895
2.67231
2.64094
2.61384
2.59023
2.56952
2.55124
2.53502
2.52056
2.50761
2.49597
2.48547
2.47596
2.46734
2.4595
2.45235
2.44581
2.43982
2.43432
2.42926
2.42459
2.42029
2.41631
2.41263
2.40923
2.40608
2.40317
2.40047
2.39799
2.39569
2.39359
2.39166
2.38992
2.38836
2.38698
2.38579
2.3848
2.38404
2.3835
2.38323
2.38324
2.38357
2.38426
2.38533
2.38682
2.38879
2.39128
2.39433
2.39802
2.40241
2.40757
2.41359
2.42054
2.42895
2.43548
2.44217
2.44892
2.45608
2.46363
2.47159
2.47995
2.48871
2.49788
2.50747
2.51748
2.52794
2.53887
2.55028
2.56221
2.57471
2.58783
2.60167
2.61634
2.63201
2.64902
2.66772
2.69014
2.72045
2.83515
16.8722
15.7448
14.7444
14.0726
13.592
13.2318
12.9508
12.7245
12.5381
12.382
12.2495
12.1359
12.0376
11.9517
11.8763
11.8096
11.7504
11.6975
11.6501
11.6074
11.5689
11.534
11.5023
11.4734
11.4471
11.423
11.401
11.3807
11.362
11.3447
11.3288
11.3141
11.3005
11.288
11.2763
11.2655
11.2556
11.2464
11.2379
11.2301
11.223
11.2166
11.2108
11.2058
11.2015
11.198
11.1953
11.1935
11.1928
11.1931
11.1948
11.1978
11.2023
11.2085
11.2166
11.2267
11.2391
11.254
11.2717
11.2924
11.3166
11.3443
11.3785
11.4056
11.4325
11.4592
11.4877
11.5179
11.5498
11.5834
11.6186
11.6554
11.694
11.7343
11.7765
11.8205
11.8666
11.9148
11.9654
12.0186
12.0748
12.1344
12.1984
12.2678
12.3448
12.4339
12.5417
12.556
18.5626
18.4965
17.5394
16.8384
16.3247
15.9356
15.6304
15.3838
15.1801
15.0093
14.8642
14.7395
14.6315
14.5372
14.4542
14.3809
14.3157
14.2574
14.2052
14.1582
14.1157
14.0772
14.0423
14.0105
13.9814
13.9549
13.9305
13.9081
13.8875
13.8685
13.8509
13.8347
13.8197
13.8058
13.7929
13.781
13.77
13.7598
13.7505
13.7418
13.734
13.7268
13.7204
13.7148
13.7099
13.7058
13.7027
13.7005
13.6994
13.6994
13.7007
13.7035
13.7079
13.7139
13.722
13.7321
13.7445
13.7596
13.7774
13.7984
13.8228
13.851
13.8848
13.9109
13.9382
13.9658
13.9946
14.0249
14.0568
14.0902
14.1252
14.1618
14.1999
14.2397
14.2811
14.3242
14.369
14.4158
14.4645
14.5154
14.5688
14.625
14.6844
14.7482
14.8164
14.8947
14.9613
14.8926
18.4198
19.567
18.7631
18.0859
17.573
17.179
16.8679
16.6156
16.4067
16.2312
16.0819
15.9535
15.8422
15.7449
15.6593
15.5835
15.5162
15.456
15.402
15.3534
15.3095
15.2698
15.2336
15.2007
15.1707
15.1432
15.1181
15.0949
15.0736
15.0539
15.0357
15.019
15.0034
14.9891
14.9758
14.9634
14.952
14.9415
14.9318
14.9228
14.9146
14.9072
14.9005
14.8945
14.8894
14.885
14.8816
14.879
14.8775
14.8771
14.878
14.8802
14.884
14.8895
14.8967
14.906
14.9175
14.9314
14.948
14.9676
14.9903
15.0168
15.0476
15.0707
15.0961
15.1222
15.149
15.1771
15.2066
15.2373
15.2694
15.3028
15.3376
15.3737
15.4111
15.4499
15.4901
15.5317
15.5749
15.6196
15.6662
15.7146
15.7652
15.8185
15.8735
15.9349
15.9677
15.8843
17.5093
19.9419
19.3765
18.7571
18.2629
17.8757
17.5669
17.3153
17.1063
16.9302
16.7801
16.651
16.5389
16.4408
16.3544
16.278
16.21
16.1493
16.0948
16.0457
16.0013
15.9611
15.9246
15.8914
15.861
15.8333
15.8078
15.7844
15.7628
15.743
15.7246
15.7076
15.6919
15.6774
15.664
15.6515
15.64
15.6293
15.6195
15.6104
15.6021
15.5945
15.5876
15.5815
15.5761
15.5715
15.5678
15.565
15.563
15.5622
15.5625
15.5641
15.5671
15.5717
15.5779
15.586
15.5961
15.6085
15.6232
15.6406
15.6609
15.6847
15.7115
15.731
15.7533
15.7769
15.801
15.8259
15.8519
15.8789
15.9071
15.9362
15.9664
15.9977
16.0299
16.0632
16.0974
16.1327
16.169
16.2063
16.2446
16.284
16.3245
16.3663
16.4073
16.4512
16.4603
16.391
16.1549
19.8904
19.6494
19.1205
18.6608
18.2896
17.9894
17.7428
17.537
17.3632
17.2146
17.0865
16.9752
16.8777
16.7917
16.7157
16.648
16.5874
16.5331
16.4841
16.4399
16.3998
16.3634
16.3302
16.2999
16.2722
16.2468
16.2235
16.202
16.1821
16.1638
16.1469
16.1312
16.1167
16.1033
16.0909
16.0794
16.0687
16.0589
16.0498
16.0414
16.0338
16.0269
16.0206
16.0151
16.0104
16.0064
16.0032
16.001
15.9996
15.9994
16.0003
16.0024
16.006
16.011
16.0177
16.0262
16.0367
16.0492
16.0641
16.0814
16.102
16.1245
16.1402
16.1589
16.1792
16.1999
16.2212
16.2433
16.2661
16.2897
16.3141
16.3393
16.3651
16.3917
16.4189
16.4467
16.4751
16.504
16.5334
16.5632
16.5934
16.6237
16.6541
16.6818
16.7093
16.7025
16.6526
14.5028
19.5043
19.68
19.2792
18.8713
18.5256
18.24
18.0027
17.8033
17.634
17.4889
17.3634
17.2542
17.1584
17.0738
16.9989
16.9322
16.8725
16.8189
16.7706
16.7269
16.6874
16.6514
16.6186
16.5887
16.5614
16.5363
16.5132
16.492
16.4724
16.4543
16.4376
16.4221
16.4078
16.3945
16.3823
16.3709
16.3603
16.3506
16.3416
16.3333
16.3257
16.3187
16.3125
16.3069
16.302
16.2978
16.2944
16.2917
16.2899
16.289
16.2892
16.2904
16.2929
16.2967
16.3019
16.3086
16.317
16.3272
16.3394
16.3536
16.3706
16.3885
16.4004
16.4151
16.4318
16.4488
16.4662
16.4841
16.5025
16.5214
16.5408
16.5606
16.5809
16.6016
16.6226
16.6438
16.6653
16.6869
16.7085
16.73
16.7512
16.7717
16.7914
16.8071
16.8202
16.8025
16.7664
12.644
18.8112
19.5023
19.275
18.9401
18.6314
18.3673
18.144
17.9543
17.7922
17.6524
17.5312
17.4254
17.3323
17.2502
17.1772
17.1122
17.054
17.0017
16.9545
16.9118
16.8731
16.838
16.8059
16.7767
16.75
16.7254
16.7029
16.6821
16.6629
16.6452
16.6289
16.6137
16.5997
16.5868
16.5748
16.5636
16.5533
16.5438
16.5349
16.5268
16.5193
16.5124
16.5062
16.5005
16.4955
16.4912
16.4875
16.4845
16.4822
16.4808
16.4802
16.4805
16.4819
16.4843
16.488
16.4929
16.4992
16.5069
16.5162
16.5271
16.5404
16.5538
16.5621
16.5728
16.5854
16.5985
16.6119
16.6255
16.6394
16.6535
16.6679
16.6825
16.6973
16.7121
16.727
16.7419
16.7566
16.7711
16.7853
16.799
16.8119
16.8235
16.8335
16.8387
16.8398
16.8141
16.7831
10.6544
17.811
19.1184
19.1205
18.8851
18.6277
18.3938
18.1902
18.0144
17.8623
17.7304
17.6152
17.5143
17.4253
17.3466
17.2765
17.2139
17.1579
17.1074
17.0619
17.0207
16.9833
16.9494
16.9184
16.8902
16.8643
16.8406
16.8188
16.7987
16.7801
16.763
16.7472
16.7326
16.719
16.7065
16.6949
16.6841
16.6741
16.6649
16.6563
16.6484
16.6411
16.6344
16.6282
16.6226
16.6176
16.6132
16.6093
16.606
16.6033
16.6013
16.5999
16.5994
16.5997
16.6008
16.6029
16.606
16.6101
16.6153
16.6218
16.6294
16.6388
16.6478
16.6528
16.6595
16.6682
16.6773
16.6865
16.6959
16.7054
16.7149
16.7244
16.7339
16.7433
16.7526
16.7618
16.7706
16.7791
16.7871
16.7945
16.801
16.8064
16.8102
16.8118
16.8081
16.7994
16.7672
16.7348
8.61112
16.4932
18.5108
18.8097
18.7079
18.5204
18.3279
18.1513
17.9944
17.8563
17.735
17.6283
17.5341
17.4507
17.3766
17.3105
17.2513
17.1982
17.1504
17.1071
17.068
17.0324
17.0001
16.9706
16.9437
16.919
16.8964
16.8756
16.8565
16.8388
16.8225
16.8074
16.7935
16.7806
16.7686
16.7576
16.7473
16.7378
16.7289
16.7208
16.7132
16.7061
16.6997
16.6937
16.6882
16.6833
16.6788
16.6748
16.6713
16.6682
16.6657
16.6637
16.6623
16.6615
16.6614
16.662
16.6633
16.6653
16.6681
16.6718
16.6762
16.6819
16.6867
16.6886
16.6917
16.6964
16.7016
16.7069
16.7121
16.7174
16.7225
16.7274
16.7322
16.7367
16.7409
16.7447
16.7481
16.7509
16.753
16.7544
16.7546
16.7536
16.7506
16.7451
16.7341
16.7177
16.6803
16.6432
6.60006
14.8493
17.6478
18.3224
18.398
18.3047
18.1683
18.0283
17.897
17.7777
17.6707
17.5753
17.4902
17.4143
17.3464
17.2857
17.2311
17.1819
17.1375
17.0974
17.0609
17.0277
16.9976
16.9701
16.945
16.9219
16.9008
16.8813
16.8634
16.8469
16.8316
16.8175
16.8045
16.7925
16.7813
16.771
16.7614
16.7525
16.7442
16.7366
16.7295
16.7229
16.7167
16.7111
16.7058
16.701
16.6966
16.6926
16.6889
16.6856
16.6827
16.6801
16.678
16.6763
16.675
16.6742
16.6738
16.6739
16.6744
16.6754
16.6767
16.6789
16.6799
16.6791
16.679
16.68
16.6814
16.683
16.6844
16.6857
16.6868
16.6876
16.688
16.6881
16.6877
16.6868
16.6854
16.6833
16.6803
16.6765
16.6715
16.6649
16.6564
16.6451
16.6282
16.606
16.5644
16.5225
4.71675
12.8857
16.488
17.6255
17.9334
17.9662
17.9054
17.8147
17.7177
17.6237
17.5359
17.4556
17.3826
17.3167
17.2572
17.2034
17.1549
17.111
17.0712
17.035
17.0021
16.9722
16.9449
16.9199
16.8971
16.8763
16.8571
16.8394
16.8231
16.8081
16.7942
16.7814
16.7695
16.7586
16.7485
16.7391
16.7304
16.7223
16.7148
16.7079
16.7014
16.6953
16.6897
16.6845
16.6796
16.6751
16.6709
16.667
16.6633
16.6599
16.6567
16.6537
16.6509
16.6484
16.6461
16.6441
16.6422
16.6405
16.639
16.6376
16.6362
16.6351
16.6326
16.6296
16.6267
16.6245
16.6226
16.6207
16.6187
16.6165
16.614
16.6111
16.6077
16.6039
16.5996
16.5948
16.5892
16.5829
16.5758
16.5677
16.5583
16.5474
16.5343
16.5184
16.4971
16.4705
16.4261
16.3808
3.06207
10.6402
14.9868
16.6735
17.2806
17.4809
17.5215
17.497
17.4463
17.3859
17.3238
17.2636
17.2068
17.1541
17.1055
17.0611
17.0205
16.9835
16.9497
16.9188
16.8906
16.8649
16.8413
16.8198
16.8
16.7819
16.7652
16.7499
16.7357
16.7226
16.7106
16.6994
16.6891
16.6796
16.6708
16.6627
16.6551
16.6482
16.6417
16.6356
16.63
16.6247
16.6198
16.6152
16.6108
16.6068
16.6029
16.5993
16.5958
16.5924
16.5891
16.5858
16.5827
16.5796
16.5765
16.5734
16.5703
16.5671
16.5638
16.5604
16.5565
16.5527
16.5473
16.5423
16.5371
16.5324
16.5276
16.5228
16.5178
16.5126
16.507
16.5009
16.4944
16.4874
16.4799
16.4717
16.4628
16.4532
16.4427
16.4312
16.4184
16.404
16.3875
16.368
16.3435
16.3136
16.268
16.2211
1.73124
8.19986
13.1084
15.4101
16.3932
16.8134
16.9894
17.054
17.0652
17.0501
17.0223
16.9888
16.9535
16.9183
16.8843
16.8522
16.8221
16.7942
16.7683
16.7443
16.7222
16.7019
16.6833
16.6661
16.6504
16.6359
16.6225
16.6101
16.5987
16.5882
16.5785
16.5695
16.5612
16.5535
16.5465
16.5399
16.5339
16.5283
16.5231
16.5182
16.5137
16.5095
16.5055
16.5017
16.4982
16.4948
16.4915
16.4884
16.4853
16.4821
16.4789
16.4757
16.4723
16.4689
16.4653
16.4615
16.4574
16.4531
16.4484
16.4433
16.4375
16.4313
16.4236
16.4171
16.4102
16.4034
16.3964
16.3892
16.3819
16.3742
16.3661
16.3575
16.3485
16.3389
16.3288
16.318
16.3066
16.2944
16.2813
16.2671
16.2517
16.2348
16.2156
16.1936
16.1667
16.1347
16.0891
16.0424
0.796605
5.71938
10.8472
13.7742
15.2113
15.9151
16.2707
16.4545
16.5489
16.5946
16.6127
16.6151
16.6083
16.5964
16.5818
16.566
16.5498
16.5338
16.5183
16.5034
16.4894
16.4762
16.464
16.4526
16.442
16.4322
16.4231
16.4147
16.4069
16.3996
16.3929
16.3867
16.381
16.3758
16.371
16.3665
16.3624
16.3587
16.3551
16.3519
16.3488
16.3459
16.3432
16.3406
16.3381
16.3356
16.3332
16.3309
16.3284
16.3258
16.323
16.32
16.3168
16.3133
16.3095
16.3053
16.3007
16.2956
16.2899
16.2836
16.2764
16.2685
16.259
16.2514
16.2433
16.2351
16.2265
16.2176
16.2084
16.1989
16.1889
16.1785
16.1675
16.1561
16.144
16.1314
16.118
16.1039
16.0889
16.0729
16.0556
16.0367
16.0157
15.9918
15.9635
15.9302
15.8858
15.8401
0.277773
3.43006
8.26292
11.7159
13.6646
14.723
15.3131
15.6555
15.8615
15.9888
16.0686
16.119
16.1506
16.1698
16.1809
16.1867
16.189
16.1888
16.187
16.1842
16.1807
16.177
16.1731
16.1693
16.1655
16.1619
16.1584
16.1551
16.1519
16.149
16.1462
16.1437
16.1414
16.1393
16.1373
16.1356
16.134
16.1326
16.1313
16.1301
16.1289
16.1278
16.1267
16.1257
16.1246
16.1234
16.1223
16.121
16.1195
16.1178
16.1157
16.1133
16.1106
16.1074
16.1038
16.0996
16.0949
16.0895
16.0833
16.0763
16.0683
16.0593
16.0487
16.0404
16.0316
16.0225
16.0129
16.0029
15.9925
15.9817
15.9705
15.9588
15.9465
15.9338
15.9204
15.9065
15.8918
15.8764
15.86
15.8427
15.8241
15.8039
15.7816
15.7564
15.7273
15.6936
15.6511
15.6072
0.0744749
1.61208
5.52858
9.22958
11.6843
13.1606
14.0481
14.5987
14.9535
15.1902
15.3531
15.4681
15.5511
15.6121
15.6577
15.6925
15.7192
15.7401
15.7566
15.7697
15.7802
15.7889
15.7962
15.8023
15.8075
15.812
15.8158
15.8192
15.8221
15.8248
15.8272
15.8294
15.8316
15.8335
15.8354
15.8372
15.839
15.8406
15.8422
15.8436
15.8449
15.8462
15.8473
15.8483
15.8491
15.8497
15.8502
15.8504
15.8504
15.85
15.8491
15.8477
15.8459
15.8435
15.8405
15.8368
15.8324
15.8272
15.821
15.8139
15.8056
15.7962
15.7852
15.7766
15.7675
15.758
15.7479
15.7374
15.7264
15.7149
15.703
15.6905
15.6775
15.6639
15.6498
15.635
15.6195
15.6032
15.5861
15.5678
15.5483
15.5272
15.5041
15.4782
15.4489
15.4154
15.3754
15.3335
0.016696
0.510456
2.97604
6.41604
9.23399
11.1493
12.3932
13.2089
13.7588
14.1413
14.4155
14.6175
14.7697
14.887
14.9791
15.0526
15.1123
15.1614
15.2022
15.2366
15.2658
15.2911
15.3131
15.3324
15.3494
15.3646
15.3781
15.3903
15.4014
15.4114
15.4207
15.4292
15.4371
15.4445
15.4513
15.4578
15.4638
15.4695
15.4748
15.4798
15.4844
15.4887
15.4927
15.4963
15.4997
15.5027
15.5054
15.5077
15.5096
15.511
15.5118
15.5121
15.5116
15.5105
15.5086
15.506
15.5024
15.4979
15.4924
15.4857
15.4777
15.4685
15.4577
15.4493
15.4403
15.4308
15.4207
15.4101
15.399
15.3873
15.3751
15.3623
15.349
15.3351
15.3205
15.3053
15.2894
15.2726
15.2549
15.2362
15.2161
15.1944
15.1708
15.1447
15.1155
15.0829
15.0455
15.0057
0.00327033
0.102652
1.08563
3.57644
6.37984
8.64168
10.2644
11.3968
12.1937
12.7664
13.1883
13.5065
13.7519
13.945
14.0996
14.2255
14.3295
14.4165
14.4901
14.553
14.6073
14.6547
14.6964
14.7333
14.7662
14.7956
14.822
14.846
14.8677
14.8876
14.9059
14.9227
14.9383
14.9528
14.9662
14.9788
14.9905
15.0015
15.0118
15.0214
15.0303
15.0387
15.0465
15.0537
15.0604
15.0666
15.0722
15.0773
15.0818
15.0858
15.089
15.0913
15.0929
15.0937
15.0936
15.0925
15.0904
15.0873
15.0829
15.0773
15.0703
15.0619
15.0518
15.044
15.0354
15.0263
15.0166
15.0063
14.9954
14.9839
14.9718
14.9591
14.9457
14.9318
14.9171
14.9018
14.8856
14.8686
14.8506
14.8315
14.8111
14.7892
14.7653
14.7393
14.7108
14.6795
14.6448
14.6069
0.000557912
0.0153112
0.221556
1.30665
3.42207
5.70615
7.61854
9.0779
10.1631
10.9723
11.5842
12.0552
12.4245
12.719
12.9578
13.1543
13.3181
13.4563
13.574
13.6754
13.7635
13.8407
13.9089
13.9694
14.0235
14.072
14.1158
14.1554
14.1915
14.2245
14.2548
14.2827
14.3085
14.3325
14.3547
14.3754
14.3947
14.4127
14.4296
14.4453
14.46
14.4737
14.4865
14.4985
14.5097
14.52
14.5296
14.5384
14.5465
14.5538
14.5602
14.5656
14.57
14.5734
14.5758
14.577
14.577
14.5759
14.5734
14.5695
14.564
14.557
14.5483
14.5414
14.5336
14.5252
14.5161
14.5064
14.496
14.4849
14.4732
14.4608
14.4477
14.4339
14.4193
14.404
14.3878
14.3707
14.3526
14.3334
14.3128
14.2907
14.267
14.2414
14.2138
14.1841
14.1519
14.1158
7.91409e-05
0.00191099
0.027652
0.24407
1.0989
2.71148
4.56871
6.23485
7.59223
8.66311
9.50263
10.1651
10.694
11.1217
11.4721
11.7628
12.0069
12.214
12.3913
12.5447
12.6784
12.7959
12.8998
12.9922
13.0748
13.1491
13.2162
13.277
13.3324
13.383
13.4295
13.4724
13.5119
13.5485
13.5825
13.6141
13.6435
13.6709
13.6965
13.7204
13.7428
13.7637
13.7833
13.8016
13.8187
13.8346
13.8495
13.8633
13.8761
13.8878
13.8986
13.908
13.9163
13.9232
13.929
13.9334
13.9364
13.938
13.9381
13.9365
13.9333
13.9284
13.9217
13.9159
13.9093
13.9019
13.8937
13.8848
13.8751
13.8647
13.8535
13.8416
13.8289
13.8154
13.8011
13.7859
13.7697
13.7527
13.7345
13.7152
13.6947
13.6728
13.6494
13.6245
13.598
13.5702
13.5403
13.5056
7.77973e-06
0.000200818
0.00268109
0.0251211
0.162167
0.660207
1.69603
3.09762
4.53204
5.80049
6.86167
7.73637
8.4554
9.04824
9.54068
9.95365
10.3032
10.6017
10.8587
11.0817
11.2767
11.4483
11.6004
11.7359
11.8572
11.9663
12.0648
12.1543
12.2358
12.3103
12.3786
12.4415
12.4996
12.5533
12.6031
12.6493
12.6924
12.7324
12.7698
12.8048
12.8374
12.868
12.8966
12.9234
12.9485
12.972
12.994
13.0145
13.0336
13.0513
13.0677
13.0827
13.0961
13.1079
13.1182
13.1268
13.1338
13.1392
13.1428
13.1445
13.1443
13.1421
13.138
13.1339
13.1287
13.1226
13.1157
13.1078
13.0991
13.0895
13.0791
13.0678
13.0556
13.0425
13.0284
13.0135
12.9976
12.9806
12.9626
12.9434
12.9231
12.9016
12.8788
12.8549
12.8298
12.8038
12.7761
12.7427
8.15767e-07
1.70367e-05
0.000216105
0.00193531
0.0130159
0.0677833
0.265583
0.747353
1.56405
2.61221
3.71611
4.74249
5.63817
6.40343
7.05658
7.61612
8.09706
8.5119
8.87148
9.1851
9.46046
9.70378
9.92
10.1131
10.2863
10.4422
10.5833
10.7114
10.828
10.9347
11.0326
11.1226
11.2056
11.2824
11.3535
11.4196
11.481
11.5382
11.5915
11.6414
11.688
11.7316
11.7725
11.8108
11.8467
11.8804
11.912
11.9415
11.9691
11.9949
12.0189
12.0412
12.0615
12.0799
12.0962
12.1106
12.123
12.1334
12.1416
12.1477
12.1515
12.153
12.1523
12.1504
12.1471
12.1428
12.1374
12.1309
12.1235
12.115
12.1055
12.095
12.0835
12.071
12.0575
12.043
12.0274
12.0108
11.9931
11.9744
11.9546
11.9338
11.912
11.8893
11.8658
11.8415
11.8158
11.7838
4.75378e-07
1.04393e-06
1.40652e-05
0.000122062
0.000793192
0.00414576
0.018108
0.0664755
0.201041
0.489333
0.97148
1.6311
2.40342
3.20767
3.97845
4.67911
5.29867
5.84156
6.31818
6.73918
7.11326
7.44713
7.74599
8.01417
8.25542
8.47309
8.67013
8.84915
9.01239
9.16177
9.29889
9.42512
9.54163
9.64941
9.74931
9.84208
9.92837
10.0088
10.0837
10.1538
10.2193
10.2806
10.3381
10.392
10.4425
10.49
10.5345
10.5762
10.6153
10.6519
10.6861
10.718
10.7478
10.775
10.7996
10.8218
10.8414
10.8585
10.873
10.885
10.8942
10.9007
10.9045
10.9054
10.9047
10.9027
10.8995
10.8949
10.8892
10.8822
10.8741
10.8648
10.8544
10.8429
10.8303
10.8166
10.8018
10.7859
10.7691
10.7512
10.7324
10.7127
10.6923
10.6711
10.6494
10.6271
10.6035
10.573
4.64348e-07
1.43706e-07
6.94461e-07
6.16469e-06
3.91185e-05
0.00019858
0.000853916
0.00319325
0.0105544
0.0310584
0.0812129
0.186579
0.37447
0.662088
1.04928
1.51913
2.04378
2.59197
3.13584
3.6548
4.1365
4.57573
4.97236
5.32931
5.65089
5.94167
6.20589
6.44713
6.66835
6.87191
7.05973
7.23336
7.39414
7.54321
7.68159
7.81019
7.92985
8.04131
8.14526
8.24233
8.33308
8.41802
8.4976
8.57222
8.64225
8.70799
8.76973
8.82771
8.88214
8.9332
8.98105
9.02582
9.06773
9.10679
9.14261
9.17524
9.20469
9.23099
9.2541
9.27399
9.29061
9.30391
9.31398
9.31887
9.3218
9.32311
9.32286
9.3211
9.31788
9.31324
9.30724
9.29992
9.29132
9.28148
9.27045
9.25828
9.245
9.23067
9.21534
9.19909
9.18198
9.16411
9.14557
9.12647
9.10691
9.08691
9.06576
9.03748
4.64147e-07
1.15592e-07
5.61442e-08
2.394e-07
1.51489e-06
7.56872e-06
3.18336e-05
0.000116985
0.000383303
0.00113553
0.0030776
0.00769519
0.0178613
0.0385709
0.0773099
0.143357
0.245861
0.391502
0.582892
0.81824
1.09203
1.39618
1.72134
2.05798
2.39734
2.73199
3.05615
3.3657
3.65808
3.93196
4.18703
4.42367
4.64273
4.84535
5.03282
5.20644
5.36749
5.51716
5.65654
5.78662
5.90825
6.02219
6.12911
6.22956
6.32406
6.41302
6.49681
6.57574
6.6501
6.72012
6.78601
6.84792
6.90603
6.96071
7.01169
7.05863
7.1016
7.14061
7.17567
7.20676
7.23386
7.25692
7.27601
7.28666
7.29493
7.30119
7.30554
7.30805
7.30881
7.3079
7.30539
7.30137
7.2959
7.28907
7.28094
7.27159
7.2611
7.24955
7.23702
7.22361
7.20939
7.19447
7.17893
7.16289
7.14642
7.12956
7.11171
7.08723
4.64221e-07
1.14994e-07
3.86123e-08
2.10627e-08
4.8406e-08
2.21354e-07
9.1927e-07
3.33051e-06
1.0764e-05
3.15413e-05
8.48552e-05
0.000211649
0.00049362
0.00108415
0.00225428
0.00445763
0.00841718
0.0152233
0.0264065
0.0439318
0.0700802
0.107217
0.157501
0.2226
0.303497
0.400407
0.512807
0.639552
0.779026
0.929299
1.08828
1.25384
1.4239
1.59651
1.7699
1.9425
2.11298
2.28021
2.44327
2.60146
2.75423
2.90122
3.04216
3.17693
3.30548
3.42782
3.54404
3.65425
3.75859
3.85721
3.9503
4.03801
4.12051
4.19799
4.27108
4.33921
4.40214
4.45992
4.51259
4.56017
4.60269
4.64013
4.67255
4.69167
4.70791
4.72163
4.73297
4.74207
4.74905
4.75406
4.7572
4.75859
4.75836
4.75661
4.75347
4.74902
4.74339
4.73667
4.72898
4.7204
4.71103
4.70097
4.6903
4.6791
4.66746
4.65542
4.6427
4.62533
4.64306e-07
1.15001e-07
3.82934e-08
1.61707e-08
8.77853e-09
8.75162e-09
2.16293e-08
7.17002e-08
2.27249e-07
6.58765e-07
1.75668e-06
4.35013e-06
1.00884e-05
2.20658e-05
4.57781e-05
9.05226e-05
0.000171396
0.000312005
0.000547891
0.000930561
0.0015322
0.00245113
0.00381797
0.00580163
0.00861367
0.0125091
0.0177824
0.0247578
0.0337751
0.0451717
0.0592644
0.0763304
0.0965929
0.12021
0.147267
0.177775
0.211678
0.248849
0.28911
0.332231
0.377948
0.425968
0.47598
0.527664
0.580694
0.634745
0.689501
0.74465
0.799894
0.854946
0.909534
0.963395
1.01628
1.06797
1.11823
1.1673
1.21516
1.26158
1.30636
1.3493
1.39022
1.42894
1.46528
1.48811
1.5092
1.52867
1.54657
1.56295
1.57788
1.59141
1.60361
1.61455
1.62429
1.63291
1.64047
1.64704
1.6527
1.6575
1.66151
1.6648
1.66744
1.66947
1.67096
1.67196
1.67253
1.6727
1.67252
1.67173
4.64394e-07
1.15018e-07
3.82949e-08
1.60993e-08
8.10162e-09
4.70994e-09
3.21587e-09
3.00671e-09
4.72019e-09
1.07173e-08
2.66229e-08
6.44095e-08
1.47826e-07
3.21293e-07
6.63594e-07
1.30795e-06
2.47047e-06
4.48877e-06
7.8719e-06
1.33614e-05
2.20039e-05
3.52371e-05
5.49891e-05
8.37912e-05
0.000124896
0.000182391
0.000261303
0.000367677
0.00050864
0.00069245
0.000928521
0.00122743
0.00160092
0.00206179
0.0026238
0.00330147
0.00410975
0.00506369
0.00617789
0.00746604
0.00894028
0.0106106
0.0124842
0.014565
0.0168527
0.0193428
0.0220258
0.0248869
0.0279056
0.0310557
0.0343052
0.0376161
0.0409446
0.0442353
0.0474257
0.0507437
0.0542107
0.0578072
0.0615119
0.0653016
0.0691517
0.0730364
0.0769291
0.0794783
0.0819477
0.0843321
0.0866271
0.0888292
0.090936
0.092946
0.0948586
0.0966741
0.0983932
0.100017
0.101549
0.10299
0.104344
0.105614
0.106803
0.107915
0.108954
0.109924
0.110828
0.11167
0.112454
0.113184
0.113864
0.114521
4.64477e-07
1.15034e-07
3.83002e-08
1.61007e-08
8.09497e-09
4.66084e-09
2.97443e-09
2.05752e-09
1.52858e-09
1.23732e-09
1.1531e-09
1.34614e-09
2.01852e-09
3.57753e-09
6.75879e-09
1.28124e-08
2.37676e-08
4.27927e-08
7.46624e-08
1.26337e-07
2.07656e-07
3.3215e-07
5.17968e-07
7.88907e-07
1.17552e-06
1.71623e-06
2.45837e-06
3.45914e-06
4.78629e-06
6.51867e-06
8.74649e-06
1.15713e-05
1.51055e-05
1.94716e-05
2.48005e-05
3.12293e-05
3.88973e-05
4.79415e-05
5.84897e-05
7.06517e-05
8.45091e-05
0.000100102
0.000117412
0.000136346
0.000156715
0.000178211
0.000200383
0.000222613
0.000244092
0.000263801
0.000280493
0.000292641
0.000298514
0.000301006
0.000304189
0.000308067
0.00031265
0.000317941
0.000323939
0.000330633
0.000338005
0.000346028
0.000354665
0.000360582
0.000366566
0.000372585
0.000378609
0.000384612
0.000390569
0.000396456
0.000402253
0.000407942
0.000413508
0.000418937
0.000424219
0.000429345
0.000434309
0.000439104
0.00044373
0.000448183
0.000452463
0.000456572
0.00046051
0.000464282
0.00046789
0.000471338
0.000474631
0.00047795
4.64535e-07
1.15046e-07
3.8304e-08
1.61022e-08
8.09564e-09
4.66087e-09
2.97272e-09
2.04962e-09
1.50053e-09
1.15141e-09
9.17571e-10
7.54992e-10
6.40057e-10
5.60711e-10
5.12722e-10
4.98552e-10
5.27842e-10
6.19059e-10
8.02154e-10
1.12214e-09
1.64358e-09
2.4559e-09
3.67947e-09
5.4724e-09
8.03769e-09
1.16306e-08
1.65659e-08
2.32239e-08
3.20558e-08
4.35872e-08
5.84187e-08
7.72249e-08
1.00748e-07
1.29788e-07
1.65186e-07
2.07795e-07
2.58449e-07
3.17903e-07
3.86772e-07
4.65434e-07
5.53916e-07
6.51756e-07
7.57835e-07
8.70196e-07
9.85848e-07
1.10058e-06
1.20884e-06
1.3036e-06
1.37642e-06
1.41786e-06
1.41805e-06
1.41411e-06
1.41064e-06
1.40734e-06
1.40417e-06
1.40111e-06
1.39813e-06
1.39519e-06
1.39225e-06
1.38929e-06
1.38627e-06
1.38316e-06
1.37993e-06
1.37775e-06
1.37556e-06
1.37335e-06
1.37113e-06
1.3689e-06
1.36668e-06
1.36446e-06
1.36226e-06
1.36009e-06
1.35797e-06
1.35589e-06
1.35389e-06
1.35197e-06
1.35014e-06
1.34841e-06
1.3468e-06
1.34532e-06
1.34397e-06
1.34277e-06
1.34172e-06
1.34082e-06
1.34008e-06
1.33949e-06
1.33907e-06
1.33933e-06
4.64562e-07
1.15052e-07
3.83058e-08
1.61029e-08
8.09598e-09
4.66106e-09
2.97284e-09
2.04966e-09
1.50042e-09
1.15093e-09
9.16124e-10
7.51233e-10
6.31129e-10
5.40951e-10
4.71502e-10
4.1688e-10
3.73179e-10
3.37765e-10
3.08843e-10
2.85206e-10
2.6608e-10
2.51036e-10
2.39934e-10
2.32905e-10
2.30338e-10
2.3288e-10
2.41449e-10
2.5724e-10
2.81735e-10
3.16705e-10
3.64206e-10
4.26553e-10
5.06288e-10
6.06103e-10
7.28736e-10
8.76807e-10
1.05259e-09
1.25769e-09
1.49262e-09
1.75626e-09
2.04517e-09
2.35278e-09
2.66857e-09
2.97723e-09
3.25798e-09
3.48434e-09
3.62473e-09
3.66297e-09
3.70675e-09
3.75451e-09
3.80493e-09
3.86046e-09
3.92544e-09
4.00672e-09
4.11519e-09
4.26815e-09
4.49302e-09
4.83303e-09
5.35588e-09
6.16669e-09
7.42689e-09
9.38154e-09
1.23973e-08
1.49916e-08
1.82767e-08
2.23935e-08
2.74969e-08
3.37546e-08
4.13454e-08
5.0456e-08
6.12766e-08
7.39975e-08
8.88043e-08
1.05873e-07
1.25367e-07
1.4743e-07
1.72186e-07
1.99734e-07
2.30144e-07
2.63461e-07
2.99696e-07
3.38835e-07
3.80831e-07
4.25611e-07
4.73076e-07
5.23103e-07
5.75547e-07
6.30321e-07
4.64562e-07
1.15052e-07
3.83058e-08
1.61029e-08
8.09598e-09
4.66106e-09
2.97283e-09
2.04966e-09
1.50042e-09
1.15093e-09
9.16121e-10
7.51227e-10
6.31116e-10
5.40922e-10
4.71442e-10
4.16761e-10
3.72958e-10
3.37368e-10
3.08157e-10
2.8406e-10
2.64222e-10
2.48107e-10
2.35435e-10
2.26157e-10
2.20436e-10
2.18646e-10
2.21378e-10
2.29448e-10
2.43909e-10
2.66067e-10
2.97498e-10
3.40069e-10
3.95964e-10
4.67725e-10
5.58313e-10
6.71203e-10
8.10531e-10
9.81312e-10
1.18977e-09
1.4438e-09
1.7537e-09
2.13312e-09
2.6005e-09
3.18108e-09
3.90978e-09
4.83527e-09
6.02591e-09
7.57817e-09
9.62899e-09
1.23735e-08
1.60907e-08
2.11808e-08
2.82187e-08
3.80302e-08
5.18005e-08
7.1226e-08
9.87236e-08
1.37716e-07
1.93014e-07
2.71315e-07
3.81844e-07
5.37163e-07
7.54139e-07
9.29977e-07
1.14005e-06
1.38885e-06
1.68089e-06
2.0206e-06
2.41227e-06
2.85997e-06
3.36739e-06
3.93775e-06
4.57375e-06
5.27747e-06
6.05032e-06
6.89303e-06
7.8056e-06
8.78732e-06
9.8368e-06
1.0952e-05
1.21302e-05
1.33682e-05
1.46623e-05
1.60085e-05
1.74022e-05
1.88387e-05
2.03132e-05
2.1822e-05
4.64534e-07
1.15046e-07
3.83039e-08
1.61022e-08
8.09563e-09
4.66086e-09
2.97272e-09
2.0496e-09
1.50045e-09
1.15116e-09
9.16887e-10
7.53286e-10
6.36112e-10
5.52175e-10
4.95291e-10
4.64714e-10
4.65014e-10
5.06958e-10
6.09218e-10
8.00819e-10
1.12432e-09
1.63966e-09
2.42867e-09
3.60017e-09
5.29558e-09
7.6949e-09
1.10228e-08
1.55547e-08
2.16224e-08
2.96191e-08
4.00045e-08
5.33091e-08
7.01389e-08
9.11819e-08
1.17217e-07
1.49124e-07
1.87908e-07
2.34722e-07
2.90916e-07
3.5809e-07
4.38191e-07
5.33628e-07
6.47442e-07
7.83536e-07
9.46986e-07
1.14445e-06
1.38471e-06
1.67942e-06
2.04405e-06
2.49914e-06
3.07198e-06
3.79867e-06
4.72692e-06
5.91943e-06
7.45825e-06
9.45009e-06
1.20326e-05
1.5382e-05
1.97213e-05
2.53303e-05
3.25549e-05
4.18183e-05
5.36309e-05
6.26818e-05
7.29254e-05
8.44394e-05
9.7286e-05
0.000111515
0.000127165
0.00014426
0.000162809
0.000182806
0.000204232
0.000227051
0.000251215
0.000276663
0.000303322
0.000331112
0.000359942
0.000389716
0.000420332
0.000451685
0.00048367
0.00051618
0.000549107
0.000582349
0.000615804
0.000649399
4.64477e-07
1.15034e-07
3.83002e-08
1.61007e-08
8.09494e-09
4.66064e-09
2.97343e-09
2.05351e-09
1.51493e-09
1.19673e-09
1.04462e-09
1.08009e-09
1.41163e-09
2.27774e-09
4.12435e-09
7.72587e-09
1.43614e-08
2.60594e-08
4.59241e-08
7.85508e-08
1.30533e-07
2.11061e-07
3.32614e-07
5.11743e-07
7.6994e-07
1.13456e-06
1.63976e-06
2.32735e-06
3.24764e-06
4.46008e-06
6.03386e-06
8.04842e-06
1.0594e-05
1.3772e-05
1.76962e-05
2.24931e-05
2.83038e-05
3.52856e-05
4.36151e-05
5.34923e-05
6.51461e-05
7.88421e-05
9.48934e-05
0.000113674
0.000135636
0.000161332
0.00019144
0.000226797
0.000268433
0.000317613
0.000375885
0.000445126
0.000527605
0.000626027
0.000743598
0.000884075
0.00105181
0.0012518
0.00148967
0.00177172
0.00210482
0.00249637
0.00295407
0.00328647
0.00364371
0.00402562
0.00443149
0.00486042
0.00531133
0.00578297
0.00627393
0.00678262
0.00730736
0.00784635
0.00839775
0.00895969
0.00953027
0.0101076
0.0106899
0.0112753
0.0118622
0.0124488
0.0130338
0.0136155
0.0141928
0.0147643
0.0153291
0.0158867
4.64397e-07
1.15019e-07
3.8295e-08
1.60989e-08
8.09737e-09
4.6832e-09
3.08967e-09
2.52582e-09
3.1442e-09
6.15368e-09
1.46537e-08
3.54307e-08
8.22299e-08
1.81264e-07
3.79927e-07
7.59823e-07
1.45547e-06
2.68034e-06
4.76154e-06
8.18371e-06
1.36419e-05
2.21037e-05
3.48822e-05
5.37202e-05
8.08839e-05
0.000119261
0.000172456
0.000244872
0.000341779
0.000469367
0.000634795
0.000846217
0.00111282
0.00144485
0.00185362
0.00235146
0.00295175
0.00366878
0.0045177
0.00551439
0.00667535
0.00801759
0.00955859
0.0113162
0.0133088
0.0155552
0.0180748
0.0208878
0.0240153
0.0274797