/*--------------------------------*- C++ -*----------------------------------*\
| =========                 |                                                 |
| \\      /  F ield         | OpenFOAM: The Open Source CFD Toolbox           |
|  \\    /   O peration     | Version:  5.x                                   |
|   \\  /    A nd           | Web:      www.OpenFOAM.org                      |
|    \\/     M anipulation  |                                                 |
\*---------------------------------------------------------------------------*/
FoamFile
{
    version     2.0;
    format      ascii;
    class       volScalarField;
    location    "900";
    object      nut;
}
// * * * * * * * * * * * * * * * * * * * * * * * * * * * * * * * * * * * * * //

dimensions      [0 2 -1 0 0 0 0];

internalField   nonuniform List<scalar> 
20540
(
2.10937e-10
3.19305e-11
2.10937e-10
6.41893e-11
2.10937e-10
1.51953e-10
2.10937e-10
3.20505e-10
2.10937e-10
5.98098e-10
2.10937e-10
1.00806e-09
2.10937e-10
1.5575e-09
2.10937e-10
2.2204e-09
2.10937e-10
2.91642e-09
2.10937e-10
3.49078e-09
2.10937e-10
3.71132e-09
2.10937e-10
3.32428e-09
2.10937e-10
2.25745e-09
2.10937e-10
9.73915e-10
2.10937e-10
2.46149e-10
2.10937e-10
6.78769e-11
2.10937e-10
4.1472e-11
2.10937e-10
3.77891e-11
2.10937e-10
3.72332e-11
2.10937e-10
3.71414e-11
2.10937e-10
3.71269e-11
2.10937e-10
3.71259e-11
2.10937e-10
3.71274e-11
2.10937e-10
3.71298e-11
2.10937e-10
3.71328e-11
2.10937e-10
3.71364e-11
2.10937e-10
3.71404e-11
2.10937e-10
3.71448e-11
2.10937e-10
3.71494e-11
2.10937e-10
3.71536e-11
2.10937e-10
3.71566e-11
2.10937e-10
3.7158e-11
2.10937e-10
3.7158e-11
2.10937e-10
3.71566e-11
2.10937e-10
3.71536e-11
2.10937e-10
3.71495e-11
2.10937e-10
3.71451e-11
2.10937e-10
3.71408e-11
2.10937e-10
3.71368e-11
2.10937e-10
3.71333e-11
2.10937e-10
3.71303e-11
2.10937e-10
3.71279e-11
2.10937e-10
3.71261e-11
2.10937e-10
3.71259e-11
2.10937e-10
3.71326e-11
2.10937e-10
3.71771e-11
2.10937e-10
3.74328e-11
2.10937e-10
3.89796e-11
2.10937e-10
4.92775e-11
2.10937e-10
1.19486e-10
2.10937e-10
4.97766e-10
2.10937e-10
1.51853e-09
2.10937e-10
2.77992e-09
2.10937e-10
3.58122e-09
2.10937e-10
3.72362e-09
2.10937e-10
3.3683e-09
2.10937e-10
2.75294e-09
2.10937e-10
2.07071e-09
2.10937e-10
1.44399e-09
2.10937e-10
9.33113e-10
2.10937e-10
5.54552e-10
2.10937e-10
2.98543e-10
2.10937e-10
1.42715e-10
2.10937e-10
6.11691e-11
2.10937e-10
3.09351e-11
1.75437e-06
1.71994e-06
1.60034e-06
1.51304e-06
1.44942e-06
1.40153e-06
1.36419e-06
1.33418e-06
1.30952e-06
1.28892e-06
1.27148e-06
1.25656e-06
1.24367e-06
1.23243e-06
1.22258e-06
1.21388e-06
1.20616e-06
1.19928e-06
1.19312e-06
1.18758e-06
1.18259e-06
1.17806e-06
1.17396e-06
1.17023e-06
1.16683e-06
1.16372e-06
1.16087e-06
1.15825e-06
1.15584e-06
1.15362e-06
1.15157e-06
1.14968e-06
1.14793e-06
1.14631e-06
1.14481e-06
1.14343e-06
1.14215e-06
1.14096e-06
1.13987e-06
1.13887e-06
1.13795e-06
1.13712e-06
1.13638e-06
1.13572e-06
1.13516e-06
1.13469e-06
1.13433e-06
1.13407e-06
1.13394e-06
1.13395e-06
1.13411e-06
1.13443e-06
1.13494e-06
1.13565e-06
1.13659e-06
1.13777e-06
1.13923e-06
1.14098e-06
1.14307e-06
1.14552e-06
1.14839e-06
1.1517e-06
1.1557e-06
1.15881e-06
1.16199e-06
1.1652e-06
1.16861e-06
1.1722e-06
1.17599e-06
1.17996e-06
1.18413e-06
1.1885e-06
1.19306e-06
1.19782e-06
1.2028e-06
1.208e-06
1.21343e-06
1.21911e-06
1.22506e-06
1.2313e-06
1.23788e-06
1.24486e-06
1.25232e-06
1.26042e-06
1.26931e-06
1.27998e-06
1.29441e-06
1.34898e-06
3.45366e-05
3.84426e-05
3.80434e-05
3.73616e-05
3.67648e-05
3.62758e-05
3.58758e-05
3.55442e-05
3.52654e-05
3.50284e-05
3.48249e-05
3.46487e-05
3.44949e-05
3.43599e-05
3.42406e-05
3.41347e-05
3.40403e-05
3.39557e-05
3.38797e-05
3.38111e-05
3.3749e-05
3.36927e-05
3.36415e-05
3.35948e-05
3.35522e-05
3.35132e-05
3.34773e-05
3.34444e-05
3.3414e-05
3.3386e-05
3.33602e-05
3.33362e-05
3.33141e-05
3.32936e-05
3.32746e-05
3.3257e-05
3.32407e-05
3.32256e-05
3.32117e-05
3.31988e-05
3.3187e-05
3.31761e-05
3.31662e-05
3.31574e-05
3.31495e-05
3.31426e-05
3.31369e-05
3.31323e-05
3.31288e-05
3.31267e-05
3.31261e-05
3.3127e-05
3.31296e-05
3.31342e-05
3.31407e-05
3.31496e-05
3.31608e-05
3.31748e-05
3.31916e-05
3.32116e-05
3.32347e-05
3.32628e-05
3.32925e-05
3.33121e-05
3.33372e-05
3.33654e-05
3.33936e-05
3.34224e-05
3.34522e-05
3.34831e-05
3.3515e-05
3.3548e-05
3.35821e-05
3.36171e-05
3.36532e-05
3.36902e-05
3.37281e-05
3.37669e-05
3.38065e-05
3.3847e-05
3.38883e-05
3.39304e-05
3.39731e-05
3.40173e-05
3.40588e-05
3.41136e-05
3.41301e-05
3.42731e-05
6.18506e-05
7.57064e-05
7.7131e-05
7.67446e-05
7.61039e-05
7.54866e-05
7.49448e-05
7.44789e-05
7.40784e-05
7.37325e-05
7.3432e-05
7.31696e-05
7.29393e-05
7.2736e-05
7.25557e-05
7.23952e-05
7.22518e-05
7.21231e-05
7.20072e-05
7.19025e-05
7.18077e-05
7.17216e-05
7.16433e-05
7.15719e-05
7.15068e-05
7.14471e-05
7.13923e-05
7.13419e-05
7.12954e-05
7.12526e-05
7.1213e-05
7.11765e-05
7.11427e-05
7.11113e-05
7.10823e-05
7.10554e-05
7.10304e-05
7.10073e-05
7.09857e-05
7.09657e-05
7.09471e-05
7.09299e-05
7.09139e-05
7.08991e-05
7.08854e-05
7.08729e-05
7.08615e-05
7.08511e-05
7.08417e-05
7.08332e-05
7.08259e-05
7.08196e-05
7.08146e-05
7.08108e-05
7.08082e-05
7.0807e-05
7.08071e-05
7.08086e-05
7.08114e-05
7.08159e-05
7.08206e-05
7.08311e-05
7.08296e-05
7.08163e-05
7.08186e-05
7.08315e-05
7.08413e-05
7.08486e-05
7.08545e-05
7.08595e-05
7.08635e-05
7.08666e-05
7.08686e-05
7.08694e-05
7.08687e-05
7.08663e-05
7.08619e-05
7.08551e-05
7.08454e-05
7.08322e-05
7.08147e-05
7.07919e-05
7.07616e-05
7.0724e-05
7.06636e-05
7.0615e-05
7.04498e-05
7.09361e-05
8.7902e-05
0.000115109
0.00011998
0.000120504
0.00012009
0.000119479
0.00011887
0.000118315
0.000117821
0.000117384
0.000116999
0.00011666
0.000116359
0.000116092
0.000115854
0.000115641
0.00011545
0.000115279
0.000115124
0.000114984
0.000114857
0.000114742
0.000114637
0.000114541
0.000114454
0.000114374
0.0001143
0.000114233
0.000114171
0.000114113
0.00011406
0.000114011
0.000113966
0.000113924
0.000113885
0.000113849
0.000113816
0.000113785
0.000113756
0.000113728
0.000113703
0.000113679
0.000113657
0.000113636
0.000113616
0.000113597
0.000113579
0.000113561
0.000113544
0.000113527
0.00011351
0.000113494
0.000113477
0.00011346
0.000113443
0.000113425
0.000113406
0.000113387
0.000113365
0.000113343
0.000113316
0.000113294
0.000113244
0.000113185
0.000113146
0.000113127
0.000113104
0.000113074
0.000113041
0.000113003
0.000112962
0.000112917
0.000112868
0.000112814
0.000112757
0.000112694
0.000112625
0.000112551
0.000112469
0.000112378
0.000112278
0.000112167
0.00011204
0.000111897
0.000111715
0.000111547
0.000111264
0.000112184
0.000112862
0.000157168
0.000167678
0.000170045
0.000170293
0.000169917
0.000169372
0.000168808
0.000168273
0.000167783
0.000167339
0.000166941
0.000166584
0.000166263
0.000165975
0.000165717
0.000165484
0.000165274
0.000165084
0.000164912
0.000164755
0.000164613
0.000164483
0.000164365
0.000164257
0.000164158
0.000164067
0.000163984
0.000163907
0.000163836
0.00016377
0.00016371
0.000163654
0.000163602
0.000163554
0.00016351
0.000163469
0.00016343
0.000163394
0.000163361
0.000163329
0.000163299
0.00016327
0.000163243
0.000163216
0.00016319
0.000163165
0.000163139
0.000163113
0.000163085
0.000163057
0.000163026
0.000162994
0.000162959
0.000162922
0.000162881
0.000162836
0.000162787
0.000162731
0.00016267
0.000162599
0.00016253
0.000162416
0.0001623
0.000162203
0.000162133
0.000162061
0.00016198
0.000161892
0.000161796
0.000161693
0.000161583
0.000161465
0.00016134
0.000161207
0.000161065
0.000160914
0.000160752
0.000160579
0.000160393
0.000160193
0.000159975
0.000159736
0.000159475
0.000159167
0.000158882
0.000158545
0.000159814
0.000136187
0.000201613
0.000220638
0.000226236
0.000227839
0.000228078
0.000227824
0.000227398
0.000226923
0.00022645
0.000226
0.000225582
0.000225199
0.00022485
0.000224532
0.000224244
0.000223983
0.000223746
0.000223531
0.000223335
0.000223156
0.000222993
0.000222845
0.00022271
0.000222586
0.000222472
0.000222368
0.000222272
0.000222184
0.000222103
0.000222027
0.000221958
0.000221894
0.000221835
0.00022178
0.00022173
0.000221683
0.000221639
0.000221598
0.000221559
0.000221522
0.000221487
0.000221453
0.00022142
0.000221387
0.000221355
0.000221322
0.000221288
0.000221251
0.000221211
0.000221169
0.000221122
0.000221071
0.000221014
0.000220951
0.00022088
0.000220802
0.000220714
0.000220614
0.000220503
0.000220374
0.000220242
0.000220049
0.000219868
0.000219697
0.000219556
0.000219419
0.000219271
0.000219113
0.000218943
0.000218763
0.000218571
0.000218369
0.000218156
0.000217931
0.000217694
0.000217444
0.00021718
0.000216901
0.000216606
0.000216292
0.000215957
0.000215599
0.000215217
0.000214788
0.000214407
0.000214063
0.00021552
0.000156936
0.000247622
0.000278803
0.000289611
0.000293627
0.000295089
0.000295503
0.000295465
0.000295224
0.000294895
0.000294534
0.000294171
0.000293821
0.00029349
0.000293182
0.000292897
0.000292635
0.000292395
0.000292175
0.000291973
0.000291788
0.000291619
0.000291464
0.000291323
0.000291194
0.000291076
0.000290967
0.000290866
0.000290774
0.000290689
0.00029061
0.000290538
0.000290472
0.00029041
0.000290354
0.000290301
0.000290253
0.000290207
0.000290164
0.000290124
0.000290085
0.000290048
0.000290011
0.000289975
0.000289938
0.000289901
0.000289861
0.000289819
0.000289773
0.000289721
0.000289663
0.000289598
0.000289524
0.000289442
0.000289348
0.000289243
0.000289124
0.000288989
0.000288835
0.000288663
0.000288463
0.000288254
0.000287968
0.000287716
0.000287458
0.000287228
0.000287008
0.000286779
0.000286536
0.000286279
0.000286007
0.000285721
0.000285421
0.000285106
0.000284777
0.000284432
0.000284072
0.000283695
0.000283301
0.000282889
0.000282458
0.000282005
0.00028153
0.000281037
0.000280507
0.000280065
0.000279744
0.000281248
0.000173834
0.000293785
0.000341555
0.000360302
0.000368292
0.000371914
0.000373594
0.000374347
0.000374627
0.000374655
0.000374547
0.000374366
0.000374151
0.000373923
0.000373694
0.000373471
0.000373258
0.000373058
0.000372871
0.000372696
0.000372534
0.000372385
0.000372248
0.000372123
0.000372007
0.000371901
0.000371804
0.000371714
0.000371631
0.000371555
0.000371485
0.000371421
0.000371362
0.000371308
0.000371258
0.000371212
0.000371169
0.00037113
0.000371092
0.000371057
0.000371022
0.000370988
0.000370954
0.000370919
0.000370882
0.000370843
0.000370801
0.000370754
0.000370699
0.000370636
0.000370564
0.00037048
0.000370384
0.000370274
0.000370147
0.000370002
0.000369837
0.000369649
0.000369434
0.000369192
0.000368911
0.000368613
0.000368224
0.000367897
0.000367546
0.000367214
0.000366896
0.000366571
0.000366232
0.000365876
0.000365503
0.000365113
0.000364706
0.000364283
0.000363842
0.000363384
0.00036291
0.000362418
0.000361909
0.000361383
0.000360839
0.000360279
0.000359702
0.00035912
0.000358523
0.000358066
0.000357796
0.000359287
0.000185307
0.000338012
0.000407554
0.000437861
0.000452055
0.000459232
0.000463095
0.000465272
0.000466532
0.00046726
0.000467668
0.00046788
0.00046797
0.000467984
0.00046795
0.000467888
0.00046781
0.000467724
0.000467634
0.000467543
0.000467455
0.000467371
0.000467292
0.000467219
0.000467151
0.000467088
0.000467029
0.000466975
0.000466926
0.00046688
0.000466838
0.000466801
0.000466767
0.000466736
0.000466708
0.000466683
0.000466661
0.000466639
0.000466619
0.000466599
0.000466579
0.000466558
0.000466536
0.000466511
0.000466482
0.000466449
0.000466409
0.000466363
0.000466306
0.000466237
0.000466154
0.000466055
0.000465938
0.000465801
0.000465642
0.000465457
0.000465244
0.000465
0.00046472
0.000464403
0.000464035
0.000463641
0.000463145
0.000462745
0.000462302
0.000461861
0.000461436
0.000461008
0.000460565
0.000460106
0.000459628
0.000459132
0.000458618
0.000458085
0.000457536
0.000456969
0.000456387
0.000455788
0.000455176
0.00045455
0.000453914
0.000453269
0.000452622
0.000451988
0.000451371
0.000450956
0.00045077
0.000452292
0.000189558
0.000377418
0.000474514
0.000521003
0.000544481
0.000557234
0.000564646
0.000569212
0.000572156
0.00057412
0.000575462
0.0005764
0.000577066
0.000577547
0.000577898
0.000578157
0.000578352
0.0005785
0.000578613
0.000578699
0.000578767
0.000578822
0.000578868
0.000578907
0.000578941
0.000578971
0.000578998
0.000579022
0.000579044
0.000579065
0.000579085
0.000579104
0.000579124
0.000579144
0.000579163
0.000579183
0.000579201
0.000579219
0.000579236
0.00057925
0.000579262
0.00057927
0.000579274
0.000579273
0.000579266
0.000579251
0.000579227
0.000579193
0.000579144
0.000579078
0.000578993
0.000578887
0.000578757
0.0005786
0.000578413
0.000578194
0.000577937
0.000577641
0.000577298
0.000576908
0.000576456
0.000575968
0.00057537
0.000574905
0.000574381
0.000573838
0.000573307
0.000572775
0.000572232
0.000571673
0.000571096
0.000570501
0.000569888
0.000569259
0.000568615
0.000567956
0.000567284
0.000566602
0.000565912
0.000565217
0.000564521
0.000563832
0.000563159
0.000562527
0.000561952
0.00056164
0.00056159
0.000563265
0.000184718
0.000408243
0.000538948
0.000607281
0.000644153
0.000665319
0.000678264
0.000686646
0.000692338
0.000696351
0.000699269
0.000701448
0.000703113
0.000704411
0.000705442
0.000706277
0.000706963
0.000707535
0.000708017
0.000708429
0.000708785
0.000709096
0.000709373
0.000709621
0.000709845
0.000710048
0.000710233
0.000710402
0.000710557
0.000710701
0.000710836
0.000710962
0.000711081
0.000711194
0.000711301
0.000711402
0.000711497
0.000711588
0.000711672
0.000711749
0.00071182
0.000711884
0.000711939
0.000711986
0.000712022
0.000712046
0.000712058
0.000712055
0.000712032
0.000711987
0.000711917
0.000711819
0.00071169
0.000711528
0.000711328
0.000711087
0.0007108
0.000710464
0.000710072
0.000709623
0.0007091
0.000708532
0.000707849
0.000707335
0.000706752
0.000706129
0.00070551
0.000704889
0.000704259
0.000703616
0.000702958
0.000702285
0.000701598
0.000700898
0.000700187
0.000699468
0.000698742
0.000698014
0.000697288
0.00069657
0.000695866
0.000695187
0.000694549
0.000693984
0.000693523
0.000693381
0.000693535
0.00069551
0.00016915
0.000425841
0.000595916
0.000692692
0.000748235
0.000781676
0.000802952
0.000817215
0.000827217
0.000834493
0.000839948
0.000844147
0.000847452
0.000850104
0.000852271
0.000854069
0.000855584
0.000856874
0.000857985
0.000858951
0.000859799
0.000860551
0.000861224
0.000861831
0.000862381
0.000862881
0.000863338
0.000863757
0.000864142
0.000864499
0.00086483
0.000865139
0.000865429
0.000865701
0.000865958
0.000866199
0.000866427
0.00086664
0.00086684
0.000867027
0.000867201
0.00086736
0.000867506
0.000867636
0.00086775
0.000867848
0.000867926
0.000867984
0.000868017
0.000868021
0.000867994
0.000867932
0.000867831
0.000867689
0.000867502
0.000867264
0.000866973
0.000866623
0.00086621
0.000865729
0.000865165
0.00086455
0.000863817
0.000863279
0.000862672
0.000862008
0.000861335
0.000860658
0.000859973
0.000859279
0.000858575
0.000857862
0.000857139
0.000856411
0.000855679
0.000854947
0.000854219
0.0008535
0.000852796
0.000852116
0.000851469
0.000850871
0.000850341
0.000849919
0.00084965
0.000849745
0.00085018
0.000852577
0.000142047
0.000424853
0.000638798
0.000771248
0.000851946
0.000902734
0.000936178
0.000959231
0.000975785
0.000988087
0.000997493
0.00100487
0.00101077
0.00101558
0.00101956
0.00102291
0.00102577
0.00102822
0.00103035
0.00103222
0.00103388
0.00103535
0.00103667
0.00103787
0.00103895
0.00103994
0.00104084
0.00104167
0.00104243
0.00104314
0.00104379
0.0010444
0.00104497
0.00104551
0.00104601
0.00104648
0.00104692
0.00104734
0.00104773
0.00104809
0.00104844
0.00104875
0.00104905
0.00104932
0.00104957
0.00104979
0.00104998
0.00105015
0.00105028
0.00105038
0.00105044
0.00105046
0.00105043
0.00105035
0.00105021
0.00105002
0.00104977
0.00104945
0.00104906
0.0010486
0.00104804
0.00104743
0.00104671
0.00104618
0.0010456
0.00104495
0.00104428
0.0010436
0.00104291
0.00104222
0.00104152
0.00104082
0.00104012
0.00103943
0.00103873
0.00103806
0.00103739
0.00103675
0.00103614
0.00103558
0.00103507
0.00103463
0.00103429
0.00103409
0.00103409
0.00103449
0.00103527
0.00103816
0.000104576
0.000399731
0.000659202
0.000834554
0.000947957
0.00102249
0.00107318
0.001109
0.00113525
0.00115508
0.00117048
0.0011827
0.00119259
0.00120074
0.00120756
0.00121333
0.00121828
0.00122257
0.00122631
0.0012296
0.00123253
0.00123514
0.00123749
0.00123962
0.00124155
0.00124332
0.00124493
0.00124641
0.00124777
0.00124903
0.0012502
0.00125129
0.00125231
0.00125326
0.00125415
0.00125498
0.00125577
0.00125651
0.0012572
0.00125785
0.00125846
0.00125903
0.00125956
0.00126006
0.00126052
0.00126094
0.00126133
0.00126167
0.00126198
0.00126224
0.00126245
0.00126261
0.00126272
0.00126276
0.00126275
0.00126267
0.00126252
0.0012623
0.001262
0.00126162
0.00126115
0.00126063
0.00125999
0.00125954
0.00125904
0.00125847
0.00125788
0.00125727
0.00125666
0.00125604
0.00125542
0.00125481
0.0012542
0.00125361
0.00125304
0.00125249
0.00125197
0.00125149
0.00125106
0.0012507
0.0012504
0.00125021
0.00125014
0.00125025
0.00125059
0.00125134
0.00125253
0.00125593
6.21982e-05
0.000345972
0.000647188
0.000871474
0.00102576
0.0011317
0.00120611
0.00125998
0.00130019
0.00133103
0.00135527
0.00137472
0.00139062
0.00140381
0.00141492
0.00142438
0.00143254
0.00143963
0.00144585
0.00145134
0.00145623
0.00146061
0.00146455
0.00146812
0.00147137
0.00147433
0.00147705
0.00147954
0.00148183
0.00148396
0.00148593
0.00148776
0.00148946
0.00149106
0.00149256
0.00149396
0.00149527
0.00149651
0.00149767
0.00149876
0.00149979
0.00150076
0.00150166
0.00150251
0.0015033
0.00150404
0.00150473
0.00150536
0.00150594
0.00150646
0.00150692
0.00150732
0.00150765
0.00150792
0.00150812
0.00150824
0.00150829
0.00150826
0.00150815
0.00150796
0.00150767
0.00150734
0.0015069
0.00150659
0.00150625
0.00150585
0.00150542
0.00150498
0.00150453
0.00150407
0.00150362
0.00150319
0.00150277
0.00150237
0.00150201
0.00150168
0.00150139
0.00150116
0.001501
0.00150091
0.00150092
0.00150105
0.00150133
0.00150181
0.00150255
0.00150369
0.0015053
0.00150918
2.72654e-05
0.000262783
0.000592223
0.00086809
0.00107111
0.00121706
0.00132304
0.00140167
0.00146146
0.001508
0.00154501
0.001575
0.0015997
0.00162035
0.00163784
0.00165281
0.00166577
0.00167708
0.00168702
0.00169583
0.00170368
0.00171073
0.00171708
0.00172285
0.00172809
0.00173288
0.00173727
0.0017413
0.00174501
0.00174845
0.00175164
0.0017546
0.00175736
0.00175994
0.00176236
0.00176463
0.00176675
0.00176875
0.00177063
0.00177239
0.00177405
0.00177562
0.00177709
0.00177848
0.00177978
0.001781
0.00178215
0.00178323
0.00178423
0.00178515
0.00178601
0.00178678
0.00178748
0.00178809
0.00178863
0.00178908
0.00178946
0.00178975
0.00178995
0.00179008
0.00179012
0.00179012
0.00179001
0.00178993
0.00178984
0.00178969
0.00178953
0.00178935
0.00178916
0.00178897
0.00178879
0.00178863
0.00178849
0.00178839
0.00178832
0.0017883
0.00178834
0.00178844
0.00178862
0.00178889
0.00178928
0.0017898
0.00179048
0.00179137
0.00179253
0.00179406
0.00179607
0.00180037
8.98979e-06
0.000158473
0.00048585
0.000808402
0.00106579
0.00126043
0.00140689
0.00151842
0.0016049
0.00167324
0.00172824
0.00177323
0.00181059
0.00184203
0.00186879
0.00189182
0.00191183
0.00192935
0.0019448
0.00195852
0.00197077
0.00198179
0.00199174
0.00200077
0.00200899
0.00201651
0.0020234
0.00202974
0.00203558
0.00204099
0.002046
0.00205066
0.00205501
0.00205907
0.00206286
0.00206642
0.00206976
0.0020729
0.00207585
0.00207863
0.00208125
0.00208371
0.00208604
0.00208823
0.0020903
0.00209225
0.0020941
0.00209584
0.00209748
0.00209901
0.00210045
0.00210179
0.00210304
0.00210418
0.00210524
0.0021062
0.00210706
0.00210784
0.00210853
0.00210914
0.00210967
0.00211016
0.00211055
0.00211081
0.00211106
0.00211127
0.00211147
0.00211165
0.00211183
0.00211201
0.0021122
0.00211241
0.00211265
0.00211292
0.00211324
0.0021136
0.00211403
0.00211454
0.00211512
0.00211581
0.00211662
0.00211756
0.00211867
0.00211998
0.00212154
0.00212344
0.00212579
0.00213039
2.44722e-06
6.29739e-05
0.000328812
0.000676976
0.000988182
0.00123845
0.00143449
0.00158813
0.00170983
0.00180758
0.00188724
0.00195309
0.00200823
0.00205494
0.00209493
0.00212951
0.00215967
0.00218616
0.0022096
0.00223047
0.00224915
0.00226597
0.00228118
0.002295
0.0023076
0.00231913
0.00232971
0.00233944
0.00234842
0.00235674
0.00236445
0.00237162
0.00237831
0.00238455
0.00239039
0.00239587
0.00240101
0.00240583
0.00241038
0.00241465
0.00241868
0.00242248
0.00242607
0.00242946
0.00243266
0.00243569
0.00243857
0.00244129
0.00244387
0.0024463
0.0024486
0.00245078
0.00245283
0.00245475
0.00245656
0.00245825
0.00245984
0.00246132
0.00246271
0.00246401
0.00246522
0.00246639
0.00246747
0.00246819
0.00246889
0.00246957
0.00247022
0.00247087
0.0024715
0.00247214
0.00247279
0.00247345
0.00247414
0.00247486
0.00247562
0.00247643
0.0024773
0.00247824
0.00247927
0.00248039
0.00248162
0.00248298
0.00248449
0.00248619
0.0024881
0.00249028
0.00249287
0.00249757
5.73216e-07
1.54883e-05
0.000150996
0.00046739
0.000816339
0.00112324
0.00137614
0.00158115
0.00174753
0.00188366
0.00199618
0.00209023
0.00216972
0.00223755
0.00229598
0.00234677
0.00239125
0.00243048
0.0024653
0.00249637
0.00252426
0.00254941
0.00257221
0.00259294
0.00261187
0.00262921
0.00264513
0.00265979
0.00267334
0.00268588
0.00269752
0.00270835
0.00271844
0.00272788
0.0027367
0.00274498
0.00275274
0.00276004
0.0027669
0.00277336
0.00277945
0.0027852
0.00279064
0.00279577
0.00280063
0.00280524
0.00280961
0.00281377
0.00281771
0.00282145
0.002825
0.00282838
0.00283158
0.00283462
0.0028375
0.00284024
0.00284283
0.0028453
0.00284764
0.00284988
0.00285201
0.00285409
0.00285607
0.00285738
0.00285865
0.00285989
0.00286109
0.00286228
0.00286346
0.00286462
0.00286578
0.00286695
0.00286813
0.00286934
0.00287057
0.00287184
0.00287316
0.00287454
0.00287598
0.0028775
0.00287912
0.00288084
0.00288267
0.00288465
0.00288679
0.00288914
0.0028918
0.00289634
1.1282e-07
2.79198e-06
3.74577e-05
0.00021319
0.000539429
0.000886668
0.00119688
0.00146004
0.0016802
0.0018643
0.00201901
0.00215003
0.00226191
0.00235819
0.00244171
0.00251472
0.00257899
0.00263591
0.0026866
0.00273199
0.00277282
0.00280974
0.00284325
0.0028738
0.00290173
0.00292734
0.00295088
0.00297259
0.00299266
0.00301126
0.00302853
0.00304462
0.00305962
0.00307364
0.00308676
0.00309906
0.00311061
0.00312146
0.00313167
0.00314129
0.00315036
0.00315892
0.00316701
0.00317467
0.00318192
0.0031888
0.00319532
0.00320153
0.00320743
0.00321305
0.00321838
0.00322346
0.0032283
0.0032329
0.00323729
0.00324146
0.00324545
0.00324925
0.00325288
0.00325637
0.00325971
0.00326295
0.00326606
0.0032681
0.00327007
0.00327198
0.00327383
0.00327563
0.0032774
0.00327913
0.00328084
0.00328253
0.00328422
0.0032859
0.00328758
0.00328928
0.003291
0.00329275
0.00329454
0.00329637
0.00329826
0.00330021
0.00330223
0.00330433
0.00330653
0.00330885
0.00331139
0.0033154
1.52895e-08
4.13906e-07
5.61154e-06
4.78495e-05
0.000213218
0.000519449
0.000863908
0.00118225
0.00146133
0.00170171
0.00190794
0.00208547
0.00223898
0.00237238
0.00248904
0.00259173
0.00268266
0.00276359
0.00283594
0.00290094
0.00295961
0.0030128
0.00306121
0.00310542
0.00314591
0.0031831
0.00321735
0.00324896
0.00327821
0.00330535
0.00333058
0.00335408
0.00337602
0.00339654
0.00341575
0.00343377
0.00345069
0.0034666
0.00348158
0.00349569
0.003509
0.00352157
0.00353345
0.00354469
0.00355534
0.00356544
0.00357503
0.00358415
0.00359283
0.00360109
0.00360894
0.00361642
0.00362354
0.00363032
0.00363678
0.00364294
0.00364881
0.00365441
0.00365976
0.00366487
0.00366977
0.00367449
0.003679
0.00368193
0.00368473
0.00368741
0.00368999
0.00369248
0.00369488
0.0036972
0.00369946
0.00370166
0.00370381
0.00370591
0.00370798
0.00371001
0.00371203
0.00371403
0.00371601
0.003718
0.00371998
0.00372197
0.00372396
0.00372597
0.00372799
0.00373004
0.00373219
0.00373521
6.92002e-10
4.93369e-08
6.44204e-07
5.84644e-06
3.72727e-05
0.000152002
0.000393191
0.00071567
0.0010426
0.0013398
0.00160344
0.00183603
0.00204043
0.00222017
0.002379
0.0025201
0.00264594
0.00275855
0.00285969
0.00295092
0.00303358
0.00310879
0.00317745
0.00324032
0.00329803
0.00335112
0.00340009
0.00344535
0.0034873
0.00352625
0.00356251
0.00359634
0.00362794
0.00365751
0.00368524
0.00371125
0.0037357
0.0037587
0.00378035
0.00380076
0.00382002
0.00383821
0.00385541
0.00387169
0.00388711
0.00390173
0.00391561
0.00392881
0.00394136
0.00395331
0.0039647
0.0039755
0.00398579
0.00399557
0.00400488
0.00401373
0.00402215
0.00403016
0.00403778
0.00404502
0.00405192
0.00405849
0.00406472
0.00406874
0.00407252
0.0040761
0.0040795
0.00408273
0.0040858
0.00408872
0.00409151
0.00409416
0.0040967
0.00409913
0.00410146
0.0041037
0.00410584
0.00410791
0.00410989
0.0041118
0.00411364
0.00411541
0.00411711
0.00411874
0.00412031
0.00412182
0.00412327
0.00412478
2.32007e-11
4.01077e-09
6.01287e-08
5.28076e-07
3.5096e-06
1.8255e-05
7.20636e-05
0.000205471
0.000436171
0.000732867
0.00104263
0.00133192
0.00159187
0.00182483
0.00203449
0.00222331
0.00239315
0.00254602
0.00268404
0.00280924
0.00292332
0.00302762
0.00312322
0.00321101
0.00329177
0.0033662
0.00343497
0.00349864
0.00355774
0.00361273
0.00366401
0.00371192
0.00375674
0.00379875
0.00383816
0.00387519
0.00391
0.00394276
0.00397363
0.00400274
0.00403021
0.00405617
0.00408071
0.00410394
0.00412595
0.00414682
0.00416663
0.00418545
0.00420334
0.00422037
0.00423659
0.00425201
0.00426665
0.00428055
0.00429374
0.00430625
0.0043181
0.00432932
0.00433994
0.00434997
0.00435944
0.00436837
0.00437674
0.00438208
0.00438704
0.00439167
0.004396
0.00440005
0.00440382
0.00440734
0.00441063
0.00441368
0.00441652
0.00441915
0.00442159
0.00442384
0.00442591
0.00442781
0.00442954
0.00443111
0.00443251
0.00443376
0.00443486
0.00443581
0.00443662
0.00443729
0.00443772
0.00443719
1.03641e-11
1.03926e-10
4.13229e-09
3.83235e-08
2.47859e-07
1.29411e-06
5.68327e-06
2.10727e-05
6.46154e-05
0.000159779
0.000322829
0.000550463
0.000818874
0.00109748
0.00136382
0.00160784
0.00182839
0.00202821
0.00221059
0.00237805
0.00253218
0.00267406
0.0028046
0.00292472
0.00303537
0.00313753
0.0032321
0.00331991
0.00340166
0.00347796
0.0035493
0.00361612
0.00367876
0.00373755
0.00379277
0.00384468
0.00389352
0.00393951
0.00398284
0.00402372
0.00406231
0.00409877
0.00413326
0.00416591
0.00419685
0.00422619
0.00425404
0.00428049
0.00430563
0.00432955
0.00435232
0.00437399
0.00439458
0.00441408
0.00443254
0.00444999
0.00446646
0.00448198
0.00449659
0.00451029
0.00452311
0.00453507
0.00454614
0.00455313
0.00455953
0.00456543
0.00457086
0.00457583
0.00458038
0.00458453
0.00458829
0.00459168
0.00459471
0.00459742
0.0045998
0.00460187
0.00460364
0.00460513
0.00460634
0.00460728
0.00460796
0.00460839
0.00460858
0.00460855
0.0046083
0.00460783
0.00460693
0.00460393
1.00202e-11
5.22604e-12
1.29134e-10
2.08081e-09
1.39151e-08
7.09949e-08
3.06896e-07
1.15757e-06
3.87094e-06
1.1544e-05
3.06453e-05
7.15447e-05
0.000145944
0.000262347
0.000422604
0.000620723
0.000844372
0.0010788
0.00131103
0.00153221
0.00173784
0.00192671
0.00209964
0.00225837
0.00240482
0.00254072
0.00266745
0.00278604
0.00289724
0.00300162
0.00309963
0.00319165
0.00327804
0.00335916
0.00343534
0.00350693
0.00357425
0.00363761
0.00369732
0.00375364
0.00380684
0.00385713
0.00390474
0.00394985
0.00399263
0.00403323
0.0040718
0.00410846
0.00414331
0.00417647
0.00420803
0.00423807
0.00426666
0.00429379
0.00431941
0.00434355
0.00436626
0.00438757
0.00440752
0.00442611
0.00444337
0.00445931
0.00447388
0.00448298
0.00449122
0.00449871
0.00450549
0.00451159
0.00451705
0.0045219
0.00452616
0.00452987
0.00453305
0.00453572
0.00453791
0.00453963
0.00454091
0.00454177
0.00454222
0.00454229
0.00454198
0.00454133
0.00454036
0.00453908
0.00453753
0.00453568
0.00453324
0.00452759
1.00134e-11
3.77814e-12
3.23126e-12
5.3846e-11
5.6536e-10
3.03437e-09
1.29458e-08
4.80095e-08
1.58965e-07
4.76582e-07
1.30901e-06
3.31981e-06
7.81722e-06
1.71297e-05
3.48508e-05
6.55949e-05
0.000114141
0.000184331
0.000278238
0.000395822
0.000534964
0.000691803
0.000861313
0.00103803
0.00121678
0.00139318
0.0015639
0.00172674
0.00188044
0.00202451
0.00215902
0.00228437
0.00240118
0.00251017
0.00261206
0.00270755
0.00279728
0.0028818
0.0029616
0.0030371
0.00310866
0.00317659
0.00324113
0.00330251
0.00336093
0.00341654
0.0034695
0.00351993
0.00356796
0.00361369
0.00365723
0.00369867
0.00373809
0.00377562
0.00381111
0.00384448
0.00387575
0.00390498
0.00393219
0.00395741
0.00398065
0.00400191
0.00402115
0.00403303
0.00404368
0.00405324
0.00406177
0.00406932
0.00407594
0.00408168
0.00408658
0.00409068
0.00409402
0.00409664
0.00409859
0.00409989
0.00410057
0.00410069
0.00410026
0.00409932
0.0040979
0.00409605
0.00409379
0.00409116
0.0040882
0.00408489
0.00408091
0.00407298
1.00149e-11
3.75006e-12
1.8372e-12
1.59597e-12
9.96665e-12
8.51613e-11
4.07414e-10
1.52432e-09
4.9969e-09
1.48154e-08
4.03456e-08
1.01927e-07
2.40843e-07
5.36009e-07
1.1296e-06
2.26389e-06
4.33144e-06
7.93467e-06
1.39365e-05
2.34728e-05
3.78997e-05
5.86718e-05
8.71747e-05
0.000124556
0.000171602
0.000228668
0.000295683
0.000372181
0.000457371
0.000550203
0.00064945
0.000753776
0.000861812
0.000972215
0.00108372
0.00119519
0.00130561
0.00141415
0.00152011
0.00162297
0.00172233
0.00181791
0.00190955
0.00199716
0.00208073
0.00216029
0.00223592
0.00230773
0.00237584
0.00244039
0.00250152
0.00255937
0.00261408
0.00266579
0.00271482
0.00276077
0.00280357
0.00284329
0.00288
0.00291375
0.00294458
0.00297253
0.00299755
0.00301284
0.00302644
0.00303852
0.00304918
0.00305849
0.00306654
0.00307338
0.0030791
0.00308376
0.00308741
0.00309014
0.00309199
0.00309302
0.00309329
0.00309285
0.00309176
0.00309007
0.00308783
0.00308508
0.00308188
0.00307826
0.00307428
0.00306993
0.00306503
0.00305661
1.00166e-11
3.75013e-12
1.81523e-12
1.0708e-12
8.08138e-13
1.36556e-12
6.87034e-12
3.24073e-11
1.13795e-10
3.40901e-10
9.24448e-10
2.31964e-09
5.44628e-09
1.20582e-08
2.53236e-08
5.06907e-08
9.71401e-08
1.78921e-07
3.1781e-07
5.45876e-07
9.08757e-07
1.46952e-06
2.31298e-06
3.55021e-06
5.32204e-06
7.80075e-06
1.11886e-05
1.57124e-05
2.16153e-05
2.91448e-05
3.85398e-05
5.00176e-05
6.3762e-05
7.99141e-05
9.85665e-05
0.00011976
0.000143486
0.000169687
0.000198263
0.000229077
0.000261964