/*--------------------------------*- C++ -*----------------------------------*\
| =========                 |                                                 |
| \\      /  F ield         | OpenFOAM: The Open Source CFD Toolbox           |
|  \\    /   O peration     | Version:  5.x                                   |
|   \\  /    A nd           | Web:      www.OpenFOAM.org                      |
|    \\/     M anipulation  |                                                 |
\*---------------------------------------------------------------------------*/
FoamFile
{
    version     2.0;
    format      ascii;
    class       volScalarField;
    location    "900";
    object      p;
}
// * * * * * * * * * * * * * * * * * * * * * * * * * * * * * * * * * * * * * //

dimensions      [0 2 -2 0 0 0 0];

internalField   nonuniform List<scalar> 
20540
(
52.8456
54.8735
52.8456
54.8737
52.8456
54.8745
52.8456
54.8753
52.8456
54.8758
52.8456
54.8758
52.8456
54.8749
52.8456
54.8726
52.8456
54.8684
52.8456
54.8615
52.8456
54.8511
52.8456
54.8363
52.8456
54.8158
52.8456
54.7889
52.8456
54.7544
52.8456
54.7116
52.8455
54.6597
52.8455
54.5974
52.8454
54.5232
52.8454
54.4351
52.8452
54.3312
52.845
54.2092
52.8446
54.0672
52.8441
53.9033
52.8433
53.7166
52.8423
53.5073
52.8409
53.2777
52.839
53.0339
52.8369
52.787
52.8345
52.5568
52.8327
52.3964
52.8318
52.3188
52.8318
52.3195
52.8327
52.3986
52.8345
52.558
52.8368
52.7808
52.8389
53.0202
52.8407
53.2578
52.8421
53.4827
52.8432
53.6892
52.844
53.8747
52.8446
54.0387
52.8449
54.1819
52.8452
54.3057
52.8454
54.4121
52.8455
54.5028
52.8455
54.5798
52.8456
54.645
52.8456
54.6998
52.8456
54.7456
52.8456
54.7832
52.8456
54.8133
52.8456
54.8367
52.8456
54.8544
52.8456
54.8672
52.8456
54.8761
52.8456
54.882
52.8456
54.8856
52.8456
54.8875
52.8456
54.8882
52.8456
54.8881
52.8456
54.8875
52.8456
54.8868
52.8456
54.886
52.8456
54.8858
48.5982
33.8927
22.5964
13.7584
6.12496
-0.971192
-7.67597
-13.9817
-19.9061
-25.492
-30.7777
-35.7912
-40.5542
-45.0854
-49.4013
-53.5164
-57.4439
-61.1951
-64.7805
-68.2096
-71.4909
-74.6325
-77.6415
-80.5248
-83.2885
-85.9387
-88.4807
-90.9198
-93.2606
-95.5077
-97.6655
-99.7379
-101.729
-103.643
-105.482
-107.251
-108.954
-110.593
-112.173
-113.696
-115.167
-116.59
-117.968
-119.306
-120.609
-121.881
-123.127
-124.354
-125.568
-126.775
-127.982
-129.196
-130.426
-131.68
-132.966
-134.294
-135.673
-137.114
-138.628
-140.23
-141.926
-143.76
-145.633
-147.589
-149.204
-150.688
-152.222
-153.802
-155.425
-157.091
-158.8
-160.553
-162.352
-164.198
-166.093
-168.038
-170.038
-172.094
-174.213
-176.4
-178.664
-181.017
-183.472
-186.063
-188.787
-191.876
-194.732
-200.561
48.6118
33.8946
22.597
13.7588
6.12521
-0.971003
-7.67582
-13.9815
-19.906
-25.4919
-30.7777
-35.7912
-40.5542
-45.0853
-49.4012
-53.5164
-57.4438
-61.195
-64.7804
-68.2095
-71.4909
-74.6325
-77.6415
-80.5247
-83.2885
-85.9387
-88.4807
-90.9197
-93.2605
-95.5077
-97.6654
-99.7379
-101.729
-103.643
-105.482
-107.251
-108.954
-110.593
-112.173
-113.696
-115.167
-116.59
-117.968
-119.306
-120.609
-121.881
-123.127
-124.354
-125.568
-126.775
-127.982
-129.196
-130.426
-131.68
-132.966
-134.294
-135.673
-137.114
-138.629
-140.23
-141.926
-143.76
-145.633
-147.59
-149.205
-150.688
-152.223
-153.803
-155.426
-157.091
-158.8
-160.554
-162.353
-164.199
-166.094
-168.039
-170.039
-172.096
-174.215
-176.402
-178.666
-181.018
-183.474
-186.066
-188.79
-191.881
-194.741
-200.407
48.6284
33.8985
22.5982
13.7595
6.12567
-0.970654
-7.67554
-13.9813
-19.9058
-25.4918
-30.7775
-35.791
-40.554
-45.0852
-49.4011
-53.5163
-57.4437
-61.1949
-64.7804
-68.2095
-71.4908
-74.6324
-77.6414
-80.5247
-83.2885
-85.9386
-88.4807
-90.9197
-93.2605
-95.5076
-97.6654
-99.7379
-101.729
-103.643
-105.482
-107.251
-108.954
-110.593
-112.173
-113.696
-115.167
-116.59
-117.968
-119.306
-120.609
-121.881
-123.127
-124.354
-125.568
-126.775
-127.982
-129.196
-130.426
-131.68
-132.966
-134.294
-135.673
-137.114
-138.629
-140.231
-141.927
-143.761
-145.634
-147.59
-149.205
-150.688
-152.223
-153.804
-155.426
-157.092
-158.801
-160.555
-162.354
-164.2
-166.095
-168.041
-170.041
-172.098
-174.217
-176.405
-178.669
-181.022
-183.478
-186.071
-188.796
-191.89
-194.752
-200.226
48.6407
33.904
22.6
13.7604
6.12633
-0.970157
-7.67514
-13.981
-19.9055
-25.4915
-30.7773
-35.7908
-40.5539
-45.0851
-49.401
-53.5162
-57.4436
-61.1948
-64.7803
-68.2094
-71.4907
-74.6323
-77.6413
-80.5246
-83.2884
-85.9386
-88.4806
-90.9196
-93.2604
-95.5076
-97.6653
-99.7378
-101.729
-103.642
-105.482
-107.251
-108.954
-110.593
-112.173
-113.696
-115.167
-116.59
-117.968
-119.306
-120.609
-121.881
-123.127
-124.354
-125.568
-126.775
-127.982
-129.196
-130.427
-131.68
-132.966
-134.294
-135.673
-137.114
-138.629
-140.231
-141.927
-143.761
-145.634
-147.591
-149.206
-150.689
-152.224
-153.805
-155.428
-157.093
-158.803
-160.557
-162.356
-164.202
-166.098
-168.044
-170.044
-172.101
-174.22
-176.408
-178.673
-181.027
-183.484
-186.077
-188.804
-191.901
-194.76
-200.064
48.6497
33.9113
22.6025
13.7618
6.12723
-0.969494
-7.67462
-13.9805
-19.9052
-25.4912
-30.777
-35.7906
-40.5536
-45.0849
-49.4008
-53.516
-57.4435
-61.1947
-64.7801
-68.2092
-71.4906
-74.6322
-77.6412
-80.5245
-83.2883
-85.9385
-88.4805
-90.9196
-93.2604
-95.5075
-97.6653
-99.7377
-101.729
-103.642
-105.482
-107.251
-108.954
-110.593
-112.173
-113.696
-115.167
-116.59
-117.968
-119.306
-120.609
-121.881
-123.127
-124.354
-125.568
-126.775
-127.982
-129.197
-130.427
-131.68
-132.967
-134.294
-135.673
-137.115
-138.629
-140.232
-141.928
-143.762
-145.635
-147.592
-149.207
-150.69
-152.226
-153.806
-155.429
-157.095
-158.805
-160.559
-162.358
-164.205
-166.101
-168.047
-170.047
-172.105
-174.225
-176.413
-178.679
-181.033
-183.49
-186.085
-188.813
-191.911
-194.763
-199.956
48.6568
33.9205
22.6059
13.7636
6.12843
-0.968611
-7.67393
-13.98
-19.9047
-25.4908
-30.7766
-35.7903
-40.5534
-45.0846
-49.4005
-53.5158
-57.4433
-61.1945
-64.7799
-68.2091
-71.4905
-74.632
-77.6411
-80.5244
-83.2882
-85.9384
-88.4804
-90.9194
-93.2603
-95.5074
-97.6652
-99.7377
-101.729
-103.642
-105.482
-107.251
-108.954
-110.593
-112.173
-113.696
-115.167
-116.59
-117.968
-119.306
-120.609
-121.881
-123.127
-124.354
-125.568
-126.775
-127.982
-129.197
-130.427
-131.681
-132.967
-134.295
-135.674
-137.115
-138.63
-140.232
-141.929
-143.763
-145.636
-147.593
-149.209
-150.692
-152.227
-153.808
-155.431
-157.097
-158.807
-160.561
-162.361
-164.208
-166.104
-168.051
-170.052
-172.11
-174.23
-176.419
-178.685
-181.04
-183.498
-186.094
-188.823
-191.92
-194.762
-199.903
48.6619
33.9319
22.6106
13.7661
6.13005
-0.967435
-7.67301
-13.9792
-19.9041
-25.4902
-30.7762
-35.7898
-40.553
-45.0843
-49.4002
-53.5155
-57.443
-61.1943
-64.7797
-68.2089
-71.4903
-74.6319
-77.6409
-80.5242
-83.288
-85.9382
-88.4803
-90.9193
-93.2601
-95.5073
-97.6651
-99.7375
-101.729
-103.642
-105.482
-107.251
-108.954
-110.593
-112.172
-113.696
-115.167
-116.59
-117.968
-119.306
-120.608
-121.88
-123.127
-124.354
-125.568
-126.775
-127.982
-129.197
-130.427
-131.681
-132.967
-134.295
-135.674
-137.116
-138.631
-140.233
-141.93
-143.764
-145.638
-147.595
-149.21
-150.694
-152.229
-153.81
-155.434
-157.1
-158.81
-160.565
-162.365
-164.212
-166.109
-168.056
-170.057
-172.115
-174.236
-176.426
-178.693
-181.048
-183.507
-186.104
-188.834
-191.926
-194.757
-199.881
48.6646
33.9456
22.6168
13.7695
6.13222
-0.965873
-7.6718
-13.9782
-19.9032
-25.4895
-30.7755
-35.7893
-40.5525
-45.0838
-49.3998
-53.5151
-57.4426
-61.1939
-64.7794
-68.2086
-71.49
-74.6316
-77.6407
-80.524
-83.2878
-85.938
-88.4801
-90.9191
-93.26
-95.5071
-97.6649
-99.7374
-101.729
-103.642
-105.482
-107.251
-108.954
-110.593
-112.172
-113.696
-115.167
-116.59
-117.968
-119.306
-120.608
-121.88
-123.127
-124.354
-125.568
-126.775
-127.982
-129.197
-130.427
-131.681
-132.968
-134.295
-135.675
-137.116
-138.631
-140.234
-141.931
-143.766
-145.639
-147.597
-149.213
-150.696
-152.232
-153.813
-155.437
-157.104
-158.814
-160.569
-162.369
-164.217
-166.114
-168.061
-170.063
-172.122
-174.243
-176.434
-178.701
-181.057
-183.517
-186.113
-188.843
-191.926
-194.748
-199.857
48.6643
33.9614
22.6249
13.7739
6.13511
-0.963803
-7.6702
-13.9769
-19.9021
-25.4886
-30.7747
-35.7886
-40.5518
-45.0832
-49.3993
-53.5146
-57.4422
-61.1935
-64.779
-68.2082
-71.4897
-74.6313
-77.6404
-80.5237
-83.2875
-85.9378
-88.4798
-90.9189
-93.2597
-95.5069
-97.6647
-99.7372
-101.728
-103.642
-105.482
-107.251
-108.953
-110.593
-112.172
-113.696
-115.167
-116.589
-117.968
-119.306
-120.608
-121.88
-123.127
-124.354
-125.568
-126.775
-127.982
-129.197
-130.427
-131.681
-132.968
-134.296
-135.675
-137.117
-138.632
-140.235
-141.932
-143.767
-145.641
-147.599
-149.215
-150.699
-152.235
-153.816
-155.44
-157.107
-158.818
-160.573
-162.374
-164.223
-166.12
-168.068
-170.07
-172.129
-174.251
-176.442
-178.71
-181.066
-183.526
-186.121
-188.85
-191.918
-194.731
-199.799
48.6607
33.9793
22.6352
13.7798
6.13894
-0.961062
-7.6681
-13.9752
-19.9007
-25.4874
-30.7737
-35.7876
-40.551
-45.0825
-49.3986
-53.514
-57.4416
-61.193
-64.7785
-68.2078
-71.4892
-74.6309
-77.64
-80.5233
-83.2872
-85.9374
-88.4795
-90.9186
-93.2595
-95.5066
-97.6644
-99.7369
-101.728
-103.642
-105.481
-107.251
-108.953
-110.592
-112.172
-113.695
-115.167
-116.589
-117.967
-119.306
-120.608
-121.88
-123.127
-124.354
-125.568
-126.775
-127.982
-129.197
-130.428
-131.682
-132.968
-134.297
-135.676
-137.118
-138.634
-140.237
-141.934
-143.769
-145.643
-147.601
-149.218
-150.702
-152.238
-153.82
-155.444
-157.112
-158.823
-160.578
-162.38
-164.228
-166.126
-168.074
-170.077
-172.137
-174.259
-176.45
-178.718
-181.074
-183.534
-186.126
-188.851
-191.896
-194.703
-199.678
48.6535
33.9987
22.6479
13.7875
6.14399
-0.957442
-7.66533
-13.973
-19.8989
-25.4858
-30.7723
-35.7864
-40.5499
-45.0815
-49.3977
-53.5132
-57.4409
-61.1923
-64.7779
-68.2072
-71.4887
-74.6304
-77.6395
-80.5229
-83.2867
-85.937
-88.4791
-90.9182
-93.2591
-95.5063
-97.6641
-99.7366
-101.728
-103.641
-105.481
-107.25
-108.953
-110.592
-112.172
-113.695
-115.166
-116.589
-117.967
-119.305
-120.608
-121.88
-123.127
-124.354
-125.568
-126.775
-127.983
-129.197
-130.428
-131.682
-132.969
-134.297
-135.677
-137.119
-138.635
-140.238
-141.935
-143.771
-145.646
-147.604
-149.221
-150.706
-152.241
-153.824
-155.448
-157.116
-158.828
-160.584
-162.385
-164.234
-166.132
-168.081
-170.084
-172.144
-174.266
-176.457
-178.724
-181.08
-183.537
-186.124
-188.843
-191.854
-194.654
-199.47
48.6423
34.0192
22.6632
13.7973
6.15059
-0.952681
-7.66169
-13.9701
-19.8965
-25.4838
-30.7705
-35.7849
-40.5485
-45.0803
-49.3966
-53.5122
-57.4399
-61.1914
-64.7771
-68.2064
-71.488
-74.6297
-77.6389
-80.5223
-83.2862
-85.9364
-88.4786
-90.9177
-93.2586
-95.5058
-97.6636
-99.7362
-101.727
-103.641
-105.481
-107.25
-108.953
-110.592
-112.171
-113.695
-115.166
-116.589
-117.967
-119.305
-120.608
-121.88
-123.127
-124.354
-125.568
-126.775
-127.983
-129.198
-130.428
-131.683
-132.969
-134.298
-135.678
-137.12
-138.636
-140.239
-141.937
-143.773
-145.648
-147.607
-149.225
-150.709
-152.245
-153.827
-155.453
-157.121
-158.832
-160.589
-162.391
-164.24
-166.138
-168.087
-170.089
-172.149
-174.271
-176.461
-178.727
-181.08
-183.532
-186.111
-188.817
-191.782
-194.572
-199.157
48.6268
34.0401
22.6809
13.8096
6.15912
-0.946459
-7.65691
-13.9663
-19.8933
-25.4811
-30.7682
-35.7828
-40.5467
-45.0786
-49.3951
-53.5108
-57.4387
-61.1903
-64.776
-68.2054
-71.487
-74.6288
-77.638
-80.5215
-83.2854
-85.9357
-88.4779
-90.917
-93.258
-95.5052
-97.6631
-99.7356
-101.727
-103.64
-105.48
-107.249
-108.952
-110.591
-112.171
-113.695
-115.166
-116.588
-117.967
-119.305
-120.608
-121.88
-123.127
-124.354
-125.568
-126.775
-127.983
-129.198
-130.428
-131.683
-132.97
-134.298
-135.679
-137.121
-138.637
-140.241
-141.939
-143.775
-145.651
-147.609
-149.228
-150.713
-152.248
-153.831
-155.456
-157.124
-158.836
-160.593
-162.395
-164.244
-166.142
-168.09
-170.092
-172.151
-174.272
-176.459
-178.722
-181.07
-183.515
-186.079
-188.765
-191.671
-194.439
-198.724
48.6067
34.0609
22.7005
13.8245
6.16994
-0.938412
-7.65069
-13.9613
-19.8891
-25.4775
-30.7651
-35.7801
-40.5443
-45.0765
-49.3931
-53.509
-57.437
-61.1887
-64.7746
-68.2041
-71.4858
-74.6276
-77.6369
-80.5204
-83.2844
-85.9348
-88.477
-90.9162
-93.2571
-95.5044
-97.6623
-99.7349
-101.726
-103.64
-105.479
-107.249
-108.951
-110.591
-112.17
-113.694
-115.165
-116.588
-117.966
-119.304
-120.607
-121.879
-123.126
-124.354
-125.568
-126.775
-127.982
-129.198
-130.428
-131.683
-132.97
-134.299
-135.679
-137.122
-138.638
-140.242
-141.94
-143.776
-145.652
-147.61
-149.23
-150.716
-152.25
-153.833
-155.458
-157.126
-158.838
-160.594
-162.396
-164.244
-166.141
-168.089
-170.089
-172.146
-174.264
-176.448
-178.704
-181.044
-183.476
-186.019
-188.674
-191.503
-194.232
-198.165
48.581
34.0815
22.721
13.8419
6.18335
-0.92816
-7.64266
-13.9548
-19.8837
-25.4729
-30.7612
-35.7766
-40.5412
-45.0737
-49.3906
-53.5067
-57.4349
-61.1868
-64.7727
-68.2023
-71.4842
-74.6261
-77.6355
-80.519
-83.2831
-85.9335
-88.4758
-90.9151
-93.2561
-95.5034
-97.6613
-99.7339
-101.725
-103.639
-105.479
-107.248
-108.951
-110.59
-112.17
-113.693
-115.164
-116.587
-117.965
-119.304
-120.606
-121.879
-123.126
-124.353
-125.567
-126.775
-127.982
-129.197
-130.428
-131.683
-132.97
-134.299
-135.679
-137.122
-138.638
-140.242
-141.941
-143.776
-145.653
-147.61
-149.23
-150.717
-152.249
-153.832
-155.457
-157.125
-158.836
-160.591
-162.392
-164.239
-166.134
-168.079
-170.077
-172.13
-174.242
-176.419
-178.666
-180.992
-183.405
-185.916
-188.525
-191.261
-193.922
-197.476
48.5484
34.1026
22.741
13.8612
6.19941
-0.915381
-7.63244
-13.9464
-19.8767
-25.467
-30.756
-35.7721
-40.5371
-45.07
-49.3873
-53.5037
-57.4321
-61.1842
-64.7703
-68.2001
-71.482
-74.6241
-77.6336
-80.5173
-83.2814
-85.9319
-88.4743
-90.9136
-93.2546
-95.502
-97.66
-99.7326
-101.724
-103.638
-105.477
-107.247
-108.95
-110.589
-112.169
-113.692
-115.163
-116.586
-117.965
-119.303
-120.606
-121.878
-123.125
-124.352
-125.566
-126.774
-127.981
-129.197
-130.427
-131.682
-132.969
-134.298
-135.678
-137.121
-138.638
-140.241
-141.94
-143.773
-145.652
-147.607
-149.227
-150.715
-152.245
-153.827
-155.451
-157.118
-158.827
-160.581
-162.379
-164.223
-166.115
-168.056
-170.048
-172.095
-174.199
-176.364
-178.597
-180.901
-183.284
-185.751
-188.296
-190.918
-193.479
-196.651
48.5069
34.1256
22.7597
13.8812
6.2178
-0.899941
-7.61973
-13.9359
-19.8678
-25.4593
-30.7493
-35.7661
-40.5318
-45.0652
-49.3829
-53.4997
-57.4284
-61.1808
-64.7672
-68.1971
-71.4792
-74.6215
-77.6311
-80.5149
-83.2792
-85.9298
-88.4722
-90.9116
-93.2528
-95.5002
-97.6582
-99.731
-101.722
-103.636
-105.476
-107.245
-108.948
-110.588
-112.167
-113.691
-115.162
-116.585
-117.963
-119.302
-120.604
-121.877
-123.124
-124.351
-125.565
-126.772
-127.98
-129.195
-130.426
-131.68
-132.967
-134.296
-135.676
-137.119
-138.635
-140.238
-141.936
-143.768
-145.648
-147.599
-149.218
-150.708
-152.234
-153.814
-155.437
-157.101
-158.808
-160.558
-162.352
-164.192
-166.078
-168.012
-169.995
-172.031
-174.121
-176.269
-178.479
-180.752
-183.092
-185.497
-187.955
-190.444
-192.87
-195.68
48.4545
34.1514
22.7769
13.9002
6.23754
-0.882085
-7.60443
-13.9228
-19.8566
-25.4495
-30.7407
-35.7585
-40.525
-45.059
-49.3773
-53.4945
-57.4236
-61.1763
-64.763
-68.1932
-71.4756
-74.618
-77.6278
-80.5118
-83.2762
-85.927
-88.4695
-90.909
-93.2503
-95.4978
-97.6559
-99.7287
-101.72
-103.634
-105.474
-107.243
-108.946
-110.586
-112.165
-113.689
-115.16
-116.583
-117.961
-119.3
-120.603
-121.875
-123.122
-124.349
-125.563
-126.77
-127.977
-129.192
-130.423
-131.677
-132.964
-134.292
-135.672
-137.114
-138.629
-140.231
-141.929
-143.756
-145.638
-147.583
-149.2
-150.691
-152.213
-153.789
-155.408
-157.069
-158.771
-160.515
-162.303
-164.135
-166.011
-167.934
-169.904
-171.923
-173.992
-176.114
-178.289
-180.518
-182.797
-185.12
-187.466
-189.803
-192.065
-194.547
48.3906
34.18
22.7938
13.9168
6.25698
-0.862642
-7.58678
-13.9073
-19.8429
-25.4374
-30.7299
-35.7488
-40.5163
-45.0511
-49.37
-53.4878
-57.4174
-61.1706
-64.7576
-68.1882
-71.4708
-74.6135
-77.6236
-80.5077
-83.2723
-85.9233
-88.466
-90.9056
-93.247
-95.4946
-97.6529
-99.7258
-101.717
-103.631
-105.471
-107.241
-108.944
-110.583
-112.163
-113.687
-115.158
-116.581
-117.959
-119.297
-120.6
-121.872
-123.119
-124.346
-125.56
-126.767
-127.974
-129.188
-130.418
-131.672
-132.958
-134.285
-135.664
-137.104
-138.618
-140.218
-141.914
-143.736
-145.62
-147.555
-149.169
-150.66
-152.175
-153.745
-155.359
-157.013
-158.707
-160.443
-162.22
-164.039
-165.901
-167.806
-169.755
-171.749
-173.787
-175.87
-177.996
-180.161
-182.359
-184.576
-186.786
-188.951
-191.031
-193.224
48.3147
34.2117
22.8112
13.9306
6.27416
-0.843189
-7.56759
-13.8896
-19.8269
-25.4229
-30.7168
-35.7369
-40.5054
-45.0411
-49.3608
-53.4793
-57.4095
-61.1631
-64.7507
-68.1816
-71.4646
-74.6077
-77.618
-80.5024
-83.2673
-85.9184
-88.4613
-90.9011
-93.2427
-95.4905
-97.6488
-99.7219
-101.713
-103.628
-105.468
-107.237
-108.94
-110.58
-112.16
-113.683
-115.155
-116.577
-117.956
-119.294
-120.596
-121.868
-123.115
-124.342
-125.555
-126.761
-127.968
-129.182
-130.411
-131.663
-132.948
-134.274
-135.651
-137.089
-138.6
-140.196
-141.889
-143.704
-145.588
-147.511
-149.117
-150.607
-152.113
-153.674
-155.279
-156.922
-158.604
-160.325
-162.086
-163.886
-165.726
-167.604
-169.522
-171.478
-173.47
-175.498
-177.555
-179.635
-181.727
-183.812
-185.863
-187.843
-189.73
-191.669
48.2251
34.2479
22.8301
13.9426
6.28738
-0.826249
-7.54853
-13.8705
-19.8087
-25.4062
-30.7014
-35.7227
-40.4922
-45.0289
-49.3494
-53.4686
-57.3995
-61.1537
-64.7418
-68.1732
-71.4567
-74.6001
-77.6108
-80.4955
-83.2607
-85.9121
-88.4552
-90.8953
-93.237
-95.485
-97.6435
-99.7167
-101.708
-103.623
-105.463
-107.233
-108.936
-110.575
-112.155
-113.679
-115.15
-116.573
-117.951
-119.289
-120.591
-121.863
-123.109
-124.336
-125.548
-126.754
-127.959
-129.171
-130.399
-131.65
-132.932
-134.256
-135.629
-137.064
-138.57
-140.161
-141.848
-143.653
-145.535
-147.439
-149.034
-150.52
-152.014
-153.56
-155.151
-156.778
-158.441
-160.14
-161.876
-163.648
-165.454
-167.293
-169.165
-171.066
-172.994
-174.944
-176.909
-178.878
-180.837
-182.766
-184.638
-186.422
-188.116
-189.829
48.1199
34.2897
22.8522
13.955
6.29788
-0.814808
-7.53368
-13.8523
-19.7895
-25.3873
-30.6836
-35.7061
-40.4768
-45.0145
-49.3359
-53.4558
-57.3874
-61.1422
-64.7308
-68.1628
-71.4467
-74.5905
-77.6016
-80.4867
-83.2522
-85.9039
-88.4474
-90.8877
-93.2297
-95.4779
-97.6366
-99.71
-101.702
-103.616
-105.457
-107.226
-108.93
-110.569
-112.149
-113.673
-115.144
-116.567
-117.945
-119.282
-120.584
-121.856
-123.101
-124.327
-125.538
-126.742
-127.945
-129.156
-130.381
-131.629
-132.908
-134.227
-135.596
-137.024
-138.524
-140.106
-141.783
-143.574
-145.449
-147.33
-148.907
-150.382
-151.859
-153.384
-154.953
-156.555
-158.19
-159.857
-161.556
-163.284
-165.041
-166.825
-168.631
-170.456
-172.294
-174.14
-175.984
-177.813
-179.612
-181.362
-183.04
-184.624
-186.124
-187.63
47.9973
34.3373
22.8786
13.9694
6.3096
-0.805314
-7.52519
-13.8419
-19.775
-25.3691
-30.6637
-35.6866
-40.4585
-44.9974
-49.3198
-53.4407
-57.373
-61.1286
-64.7179
-68.1504
-71.4348
-74.579
-77.5904
-80.4759
-83.2417
-85.8938
-88.4375
-90.8781
-93.2204
-95.4688
-97.6278
-99.7014
-101.694
-103.608
-105.448
-107.218
-108.922
-110.561
-112.141
-113.665
-115.136
-116.558
-117.936
-119.273
-120.575
-121.845
-123.09
-124.314
-125.524
-126.725
-127.926
-129.133
-130.354
-131.598
-132.871
-134.184
-135.545
-136.964
-138.452
-140.022
-141.684
-143.454
-145.316
-147.163
-148.713
-150.17
-151.622
-153.117
-154.652
-156.217
-157.81
-159.43
-161.074
-162.742
-164.429
-166.132
-167.847
-169.568
-171.288
-172.999
-174.69
-176.35
-177.963
-179.515
-180.988
-182.368
-183.676
-184.983
47.8557
34.3909
22.91
13.9859
6.32349
-0.793451
-7.51603
-13.8351
-19.7688
-25.3612
-30.6523
-35.6709
-40.4393
-44.9766
-49.2991
-53.4212
-57.3551
-61.1121
-64.7024
-68.1357
-71.4207
-74.5654
-77.5773
-80.4632
-83.2294
-85.8817
-88.4258
-90.8667
-93.2091
-95.4578
-97.617
-99.6907
-101.683
-103.598
-105.438
-107.208
-108.911
-110.551
-112.131
-113.655
-115.126
-116.548
-117.925
-119.261
-120.562
-121.831
-123.074
-124.296
-125.503
-126.701
-127.898
-129.099
-130.314
-131.551
-132.816
-134.119
-135.468
-136.873
-138.345
-139.894
-141.533
-143.274
-145.111
-146.912
-148.423
-149.849
-151.265
-152.716
-154.202
-155.713
-157.245
-158.796
-160.363
-161.944
-163.533
-165.126
-166.717
-168.3
-169.866
-171.407
-172.913
-174.373
-175.776
-177.111
-178.367
-179.537
-180.647
-181.756
47.6941
34.4498
22.9471
14.0046
6.33931
-0.77965
-7.50464
-13.8257
-19.761
-25.3552
-30.6477
-35.6666
-40.4336
-44.9679
-49.2868
-53.4049
-57.3355
-61.0903
-64.6799
-68.1135
-71.3997
-74.546
-77.5596
-80.447
-83.2145
-85.8678
-88.4126
-90.854
-93.1968
-95.4457
-97.6049
-99.6788
-101.671
-103.586
-105.426
-107.196
-108.899
-110.539
-112.118
-113.642
-115.112
-116.533
-117.909
-119.245
-120.543
-121.81
-123.051
-124.269
-125.473
-126.666
-127.856
-129.05
-130.255
-131.481
-132.734
-134.022
-135.353
-136.737
-138.183
-139.703
-141.307
-143.007
-144.802
-146.54
-147.995
-149.373
-150.736
-152.125
-153.541
-154.975
-156.421
-157.877
-159.337
-160.799
-162.257
-163.705
-165.136
-166.543
-167.919
-169.256
-170.545
-171.779
-172.95
-174.052
-175.079
-176.031
-176.934
-177.835
47.5128
34.5132
22.9902
14.0253
6.35701
-0.76404
-7.49179
-13.8149
-19.7515
-25.3465
-30.6398
-35.6596
-40.4281
-44.9641
-49.2841
-53.4027
-57.3326
-61.0857
-64.6727
-68.1032
-71.3859
-74.5289
-77.5394
-80.4244
-83.1903
-85.8428
-88.3874
-90.8292
-93.173
-95.4232
-97.5839
-99.6593
-101.653
-103.569
-105.411
-107.182
-108.886
-110.526
-112.106
-113.629
-115.099
-116.52
-117.895
-119.228
-120.525
-121.788
-123.025
-124.238
-125.435
-126.621
-127.802
-128.985
-130.175
-131.383
-132.616
-133.881
-135.185
-136.537
-137.946
-139.422
-140.974
-142.612
-144.341
-145.99
-147.363
-148.669
-149.953
-151.253
-152.57
-153.894
-155.219
-156.541
-157.856
-159.159
-160.442
-161.7
-162.926
-164.114
-165.257
-166.348
-167.382
-168.353
-169.258
-170.095
-170.863
-171.565
-172.225
-172.886
47.3138
34.5792
23.0394
14.0481
6.37639
-0.746705
-7.47754
-13.803
-19.7412
-25.3372
-30.6312
-35.6517
-40.4206
-44.9568
-49.277
-53.3959
-57.3267
-61.081
-64.6694
-68.1014
-71.3853
-74.529
-77.5396
-80.4242
-83.1889
-85.8398
-88.3824
-90.8218
-93.1629
-95.4103
-97.5682
-99.6407
-101.632
-103.545
-105.385
-107.154
-108.856
-110.495
-112.073
-113.595
-115.063
-116.482
-117.855
-119.186
-120.48
-121.739
-122.971
-124.178
-125.367
-126.543
-127.711
-128.879
-130.051
-131.235
-132.439
-133.671
-134.937
-136.243
-137.599
-139.012
-140.49
-142.042
-143.674
-145.211
-146.478
-147.681
-148.859
-150.039
-151.222
-152.402
-153.57
-154.722
-155.852
-156.955
-158.025
-159.056
-160.042
-160.977
-161.857
-162.677
-163.433
-164.124
-164.749
-165.307
-165.801
-166.235
-166.624
-167.001
47.1022
34.6453
23.0939
14.0722
6.39693
-0.728032
-7.46218
-13.7903
-19.73
-25.3271
-30.622
-35.6432
-40.4127
-44.9494
-49.2701
-53.3895
-57.3205
-61.075
-64.6633
-68.0949
-71.3785
-74.522
-77.5328
-80.4177
-83.1832
-85.8351
-88.3789
-90.8196
-93.1621
-95.4108
-97.5699
-99.6435
-101.635
-103.549
-105.389
-107.158
-108.859
-110.497
-112.073
-113.593
-115.058
-116.473
-117.841
-119.167
-120.453
-121.704
-122.925
-124.12
-125.293
-126.451
-127.598
-128.74
-129.882
-131.03
-132.19
-133.368
-134.572
-135.808
-137.081
-138.398
-139.764
-141.185
-142.665
-144.034
-145.157
-146.214
-147.234
-148.245
-149.246
-150.23
-151.189
-152.118
-153.012
-153.866
-154.674
-155.43
-156.129
-156.765
-157.334
-157.83
-158.25
-158.59
-158.846
-159.016
-159.097
-159.088
-158.99
-158.813
46.8878
34.7079
23.1512
14.0967
6.41767
-0.708839
-7.44639
-13.7772
-19.7185
-25.3167
-30.6125
-35.6345
-40.4046
-44.9419
-49.263
-53.3827
-57.3141
-61.0688
-64.6573
-68.0893
-71.3733
-74.5173
-77.5285
-80.4137
-83.1793
-85.831
-88.3745
-90.8147
-93.1565
-95.4044
-97.5627
-99.6355
-101.627
-103.54
-105.379
-107.147
-108.847
-110.484
-112.059
-113.577
-115.04
-116.453
-117.817
-119.137
-120.417
-121.66
-122.87
-124.051
-125.207
-126.343
-127.464
-128.574
-129.677
-130.779
-131.883
-132.995
-134.122
-135.267
-136.434
-137.627
-138.847
-140.095
-141.368
-142.548
-143.512
-144.386
-145.209
-146.012
-146.794
-147.547
-148.264
-148.942
-149.576
-150.162
-150.697
-151.177
-151.6
-151.964
-152.265
-152.505
-152.68
-152.793
-152.843
-152.832
-152.76
-152.629
-152.441
-152.199
46.6878
34.7623
23.2067
14.1198
6.43698
-0.690663
-7.43139
-13.7647
-19.7076
-25.3069
-30.6035
-35.6262
-40.3969
-44.9346
-49.2562
-53.3763
-57.3079
-61.0629
-64.6518
-68.0839
-71.3681
-74.5121
-77.5233
-80.4085
-83.174
-85.8259
-88.3694
-90.8099
-93.152
-95.4003
-97.559
-99.6322
-101.624
-103.537
-105.376
-107.144
-108.844
-110.479
-112.053
-113.568
-115.028
-116.435
-117.793
-119.105
-120.374
-121.604
-122.797
-123.957
-125.088
-126.193
-127.276
-128.341
-129.391
-130.43
-131.46
-132.487
-133.512
-134.538
-135.568
-136.6
-137.634
-138.669
-139.697
-140.626
-141.372
-142.025
-142.622
-143.189
-143.726
-144.227
-144.686
-145.101
-145.471
-145.795
-146.071
-146.3
-146.481
-146.617
-146.707
-146.754
-146.761
-146.73
-146.665
-146.569
-146.446
-146.301
-146.138
-145.96
46.5484
34.798
23.2467
14.1361
6.45046
-0.677796
-7.42078
-13.756
-19.7
-25.3
-30.5972
-35.6203
-40.3915
-44.9296
-49.2514
-53.3717
-57.3037
-61.0588
-64.6478
-68.0801
-71.3644
-74.5086
-77.5199
-80.4053
-83.171
-85.823
-88.3666
-90.8071
-93.1492
-95.3974
-97.5559
-99.6287
-101.62
-103.533
-105.371
-107.137
-108.836
-110.469
-112.04
-113.552
-115.008
-116.41
-117.761
-119.064
-120.321
-121.536
-122.712
-123.85
-124.953
-126.025
-127.068
-128.084
-129.075
-130.045
-130.995
-131.926
-132.839
-133.736
-134.616
-135.476
-136.314
-137.126
-137.904
-138.58
-139.102
-139.543
-139.927
-140.275
-140.586
-140.856
-141.084
-141.269
-141.411
-141.51
-141.568
-141.585
-141.563
-141.504
-141.41
-141.285
-141.131
-140.95
-140.747
-140.524
-140.285
-140.033
-139.771
-139.502
46.4811
34.8149
23.2668
14.1445
6.45738
-0.671141
-7.41523
-13.7513
-19.6959
-25.2962
-30.5937
-35.6172
-40.3885
-44.9268
-49.2488
-53.3692
-57.3013
-61.0565
-64.6456
-68.078
-71.3623
-74.5066
-77.518
-80.4034
-83.1691
-85.8211
-88.3647
-90.8052
-93.1472
-95.3953
-97.5538
-99.6265
-101.617
-103.53
-105.367
-107.133
-108.831
-110.463
-112.032
-113.541
-114.992
-116.389
-117.733
-119.027
-120.273
-121.473
-122.63
-123.745
-124.82
-125.857
-126.858
-127.824
-128.756
-129.655
-130.523
-131.358
-132.161
-132.93
-133.664
-134.359
-135.01
-135.613
-136.158
-136.596
-136.916
-137.167
-137.365
-137.523
-137.642
-137.721
-137.759
-137.757
-137.717
-137.64
-137.528
-137.384
-137.209
-137.006
-136.779
-136.528
-136.259
-135.972
-135.671
-135.358
-135.035
-134.706
-134.371
-134.032
46.4816
34.8146
23.2666
14.1445
6.45735
-0.671211
-7.41529
-13.7514
-19.6959
-25.2963
-30.5938
-35.6172
-40.3886
-44.9268
-49.2488
-53.3693
-57.3013
-61.0566
-64.6456
-68.078
-71.3624
-74.5066
-77.518
-80.4034
-83.1691
-85.8211
-88.3647
-90.8051
-93.1471
-95.3952
-97.5534
-99.626
-101.616
-103.529
-105.366
-107.131
-108.827
-110.457
-112.024
-113.53
-114.977
-116.368
-117.705
-118.989
-120.224
-121.409
-122.547
-123.638
-124.685
-125.688
-126.647
-127.563
-128.437
-129.267
-130.053
-130.795
-131.49
-132.136
-132.73
-133.267
-133.743
-134.151
-134.482
-134.706
-134.843
-134.925
-134.961
-134.956
-134.912
-134.828
-134.708
-134.551
-134.362
-134.14
-133.891
-133.615
-133.315
-132.995
-132.657
-132.304
-131.937
-131.561
-131.177
-130.787
-130.393
-129.998
-129.602
-129.208
46.55
34.797
23.2462
14.1362
6.45039
-0.67797
-7.42092
-13.7561
-19.7001
-25.3
-30.5972
-35.6204
-40.3916
-44.9296
-49.2514
-53.3718
-57.3037
-61.0589
-64.6479
-68.0802
-71.3644
-74.5086
-77.5199
-80.4053
-83.171
-85.8229
-88.3665
-90.8069
-93.1488
-95.3967
-97.5549
-99.6272
-101.617
-103.529
-105.365
-107.129
-108.824
-110.452
-112.017
-113.519
-114.962
-116.348
-117.677
-118.953
-120.175
-121.345
-122.465
-123.534
-124.553
-125.522
-126.441
-127.309
-128.125
-128.888
-129.597
-130.249
-130.842
-131.372
-131.835
-132.227
-132.541
-132.772
-132.912
-132.946
-132.921
-132.856
-132.752
-132.61
-132.429
-132.212
-131.961
-131.679
-131.368
-131.032
-130.672
-130.291
-129.893
-129.48
-129.055
-128.62
-128.178
-127.731
-127.281
-126.831
-126.381
-125.934
-125.492
-125.055
46.6883
34.7611
23.2065
14.1201
6.43706
-0.690745
-7.43147
-13.7648
-19.7077
-25.3069
-30.6035
-35.6262
-40.3969
-44.9346
-49.2562
-53.3763
-57.308
-61.0629
-64.6517
-68.0839
-71.3681
-74.5121
-77.5233
-80.4085
-83.1741
-85.8258
-88.3692
-90.8094
-93.1512
-95.399
-97.5571
-99.6293
-101.619
-103.531
-105.367
-107.13
-108.824
-110.451
-112.013
-113.513
-114.952
-116.333
-117.656
-118.922
-120.133
-121.289
-122.391
-123.438
-124.429
-125.365
-126.244
-127.065
-127.826
-128.525
-129.159
-129.726
-130.221
-130.642
-130.984
-131.242
-131.41
-131.482
-131.449
-131.303
-131.129
-130.933
-130.708
-130.447
-130.15
-129.819
-129.458
-129.07
-128.658
-128.226
-127.775
-127.309
-126.831
-126.343
-125.848
-125.349
-124.848
-124.346
-123.847
-123.351
-122.861
-122.378
-121.904
-121.439
46.8817
34.7081
23.1528
14.0979
6.41843
-0.708356
-7.446
-13.7768
-19.7182
-25.3164
-30.6122
-35.6342
-40.4044
-44.9416
-49.2628
-53.3825
-57.3139
-61.0686
-64.6572
-68.0891
-71.3731
-74.517
-77.5282
-80.4134
-83.179
-85.8307
-88.3741
-90.8141
-93.1557
-95.4031
-97.5606
-99.6322
-101.621
-103.532
-105.367
-107.129
-108.821
-110.446
-112.006
-113.503
-114.939
-116.315
-117.632
-118.891
-120.093
-121.238
-122.325
-123.353
-124.323
-125.232
-126.079
-126.862
-127.578
-128.224
-128.797
-129.294
-129.71
-130.043
-130.287
-130.438
-130.491
-130.442
-130.283
-129.99
-129.686
-129.392
-129.085
-128.74
-128.358
-127.944
-127.504
-127.041
-126.557
-126.056
-125.54
-125.013
-124.475
-123.93
-123.381
-122.827
-122.272
-121.717
-121.163
-120.612
-120.063
-119.519
-118.979
-118.442
47.0895
34.6473
23.097
14.0742
6.39836
-0.726983
-7.46132
-13.7895
-19.7293