/*--------------------------------*- C++ -*----------------------------------*\
| =========                 |                                                 |
| \\      /  F ield         | OpenFOAM: The Open Source CFD Toolbox           |
|  \\    /   O peration     | Version:  5.x                                   |
|   \\  /    A nd           | Web:      www.OpenFOAM.org                      |
|    \\/     M anipulation  |                                                 |
\*---------------------------------------------------------------------------*/
FoamFile
{
    version     2.0;
    format      ascii;
    class       surfaceScalarField;
    location    "900";
    object      phi;
}
// * * * * * * * * * * * * * * * * * * * * * * * * * * * * * * * * * * * * * //

dimensions      [0 3 -1 0 0 0 0];

internalField   nonuniform List<scalar> 
40747
(
1.48845e-05
-4.01409e-09
6.49085e-06
8.39366e-06
1.80058e-05
-8.50555e-09
1.28336e-05
1.16631e-05
2.17818e-05
-1.36114e-08
1.94339e-05
1.51815e-05
2.63495e-05
-1.92387e-08
2.6393e-05
1.93904e-05
3.18749e-05
-2.51523e-08
3.37375e-05
2.45304e-05
3.85585e-05
-3.08939e-08
4.14457e-05
3.08503e-05
4.66431e-05
-3.56805e-08
4.94504e-05
3.86384e-05
5.64223e-05
-3.82892e-08
5.7635e-05
4.82377e-05
6.82511e-05
-3.6942e-08
6.58282e-05
6.00579e-05
8.25591e-05
-2.92015e-08
7.38007e-05
7.45866e-05
9.9866e-05
-1.18816e-08
8.12675e-05
9.23992e-05
0.000120801
1.90368e-08
8.79008e-05
0.000114168
0.000146124
6.84863e-08
9.33593e-05
0.000140665
0.000176756
1.42372e-07
9.73435e-05
0.000172772
0.000213811
2.47558e-07
9.96842e-05
0.00021147
0.000258636
3.91703e-07
0.00010047
0.000257851
0.000312863
5.82805e-07
0.00010007
0.000313263
0.000378464
8.28442e-07
9.88856e-05
0.000379648
0.000457829
1.13492e-06
9.71517e-05
0.000459563
0.000553848
1.5063e-06
9.49434e-05
0.000556056
0.000670017
1.94305e-06
9.22402e-05
0.000672721
0.00081057
2.44001e-06
8.8971e-05
0.000813839
0.000980627
2.98343e-06
8.50362e-05
0.000984561
0.00118638
3.54711e-06
8.03147e-05
0.00119111
0.00143534
4.0873e-06
7.46639e-05
0.00144099
0.00173658
4.53697e-06
6.79166e-05
0.00174333
0.00210107
4.80006e-06
5.98773e-05
0.00210911
0.00254209
4.74831e-06
5.03137e-05
0.00255165
0.0030757
4.22555e-06
3.89453e-05
0.00308707
0.00372128
3.06963e-06
2.54207e-05
0.0037348
0.00356597
1.60841e-06
1.2616e-05
0.00357878
0.00356613
-1.72989e-08
-1.17323e-07
0.00357887
0.00356613
-1.64149e-06
-1.28515e-05
0.00357887
0.00356597
-3.09809e-06
-2.56589e-05
0.00357877
0.00360839
-4.21757e-06
-3.87748e-05
0.0036215
0.00300139
-4.74065e-06
-4.9864e-05
0.00301248
0.00249648
-4.81402e-06
-5.92471e-05
0.00250587
0.00207652
-4.58078e-06
-6.71818e-05
0.00208445
0.00172722
-4.16037e-06
-7.38817e-05
0.00173392
0.0014367
-3.64385e-06
-7.95281e-05
0.00144234
0.00119506
-3.09619e-06
-8.42761e-05
0.00119981
0.000994089
-2.56087e-06
-8.8259e-05
0.000998072
0.000826927
-2.06493e-06
-9.1591e-05
0.000830259
0.000687888
-1.6234e-06
-9.43682e-05
0.000690665
0.000572238
-1.24292e-06
-9.66646e-05
0.000574534
0.00047604
-9.24418e-07
-9.85188e-05
0.000477894
0.000396021
-6.65117e-07
-9.99025e-05
0.000397405
0.000329458
-4.59855e-07
-0.000100668
0.000330224
0.000274088
-3.02019e-07
-0.000100506
0.000273926
0.000228026
-1.84297e-07
-9.90296e-05
0.000226549
0.000189707
-9.93974e-08
-9.6016e-05
0.000186693
0.000157828
-4.05962e-08
-9.15098e-05
0.000153322
0.000131307
-1.99014e-09
-8.57278e-05
0.000125525
0.000109242
2.1432e-08
-7.89644e-05
0.000102479
9.08851e-05
3.3818e-08
-7.15287e-05
8.34495e-05
7.56125e-05
3.85199e-08
-6.37071e-05
6.77909e-05
6.29059e-05
3.81701e-08
-5.57436e-05
5.49424e-05
5.23342e-05
3.47602e-08
-4.78319e-05
4.44225e-05
4.35389e-05
2.97266e-08
-4.01152e-05
3.58222e-05
3.62212e-05
2.40467e-08
-3.26898e-05
2.87959e-05
3.01333e-05
1.83405e-08
-2.56095e-05
2.30529e-05
2.50683e-05
1.2967e-08
-1.88877e-05
1.83466e-05
2.08547e-05
8.10737e-09
-1.24946e-05
1.44615e-05
1.73491e-05
3.82939e-09
-6.32845e-06
1.1183e-05
1.44329e-05
8.10446e-06
2.16351e-06
6.23015e-06
1.89759e-06
2.6592e-07
1.80024e-06
9.73567e-08
1.73784e-06
6.23945e-08
1.6933e-06
4.45462e-08
1.65962e-06
3.36794e-08
1.63304e-06
2.65731e-08
1.61144e-06
2.16076e-08
1.59351e-06
1.79294e-08
1.57841e-06
1.51025e-08
1.56553e-06
1.28793e-08
1.55443e-06
1.10988e-08
1.54478e-06
9.65e-09
1.53632e-06
8.45374e-09
1.52887e-06
7.45276e-09
1.52226e-06
6.60626e-09
1.51638e-06
5.88497e-09
1.51111e-06
5.26659e-09
1.50638e-06
4.73288e-09
1.50211e-06
4.26872e-09
1.49825e-06
3.86201e-09
1.49475e-06
3.50352e-09
1.49156e-06
3.18633e-09
1.48865e-06
2.90504e-09
1.486e-06
2.65513e-09
1.48357e-06
2.43258e-09
1.48133e-06
2.23373e-09
1.47928e-06
2.05526e-09
1.47738e-06
1.8943e-09
1.47563e-06
1.74837e-09
1.47402e-06
1.61545e-09
1.47253e-06
1.49383e-09
1.47114e-06
1.38206e-09
1.46986e-06
1.27888e-09
1.46868e-06
1.18314e-09
1.46759e-06
1.09369e-09
1.46658e-06
1.00942e-09
1.46565e-06
9.29165e-10
1.4648e-06
8.51726e-10
1.46402e-06
7.75839e-10
1.46332e-06
7.00178e-10
1.4627e-06
6.23345e-10
1.46215e-06
5.43872e-10
1.46169e-06
4.60213e-10
1.46132e-06
3.70742e-10
1.46105e-06
2.73728e-10
1.46088e-06
1.67175e-10
1.46084e-06
4.73098e-11
1.46092e-06
-8.72638e-11
1.46116e-06
-2.36697e-10
1.46156e-06
-4.03149e-10
1.46215e-06
-5.88242e-10
1.46294e-06
-7.93514e-10
1.46397e-06
-1.02087e-09
1.46524e-06
-1.27286e-09
1.46679e-06
-1.55279e-09
1.46866e-06
-1.8641e-09
1.47087e-06
-2.21085e-09
1.47346e-06
-2.59404e-09
1.47649e-06
-3.03114e-09
1.47998e-06
-3.4837e-09
1.48416e-06
-4.18427e-09
1.48921e-06
-5.05332e-09
1.49262e-06
-3.4019e-09
1.49588e-06
-3.26165e-09
1.49952e-06
-3.63958e-09
1.50352e-06
-4.00106e-09
1.50778e-06
-4.2563e-09
1.51228e-06
-4.49935e-09
1.51702e-06
-4.74609e-09
1.52202e-06
-4.99935e-09
1.52728e-06
-5.26106e-09
1.53282e-06
-5.53405e-09
1.53864e-06
-5.82152e-09
1.54477e-06
-6.1277e-09
1.55123e-06
-6.45771e-09
1.55805e-06
-6.81873e-09
1.56527e-06
-7.22035e-09
1.57295e-06
-7.67641e-09
1.58116e-06
-8.20749e-09
1.59e-06
-8.84473e-09
1.59965e-06
-9.64327e-09
1.61034e-06
-1.06882e-08
1.62256e-06
-1.22223e-08
1.63727e-06
-1.47063e-08
1.65935e-06
-2.20796e-08
1.73115e-06
-7.17984e-08
-8.22419e-07
2.55358e-06
5.2681e-06
1.26252e-05
4.63265e-06
9.01369e-07
4.41584e-06
3.1417e-07
4.28459e-06
1.93643e-07
4.19269e-06
1.36444e-07
4.12376e-06
1.02609e-07
4.06955e-06
8.07902e-08
4.0255e-06
6.56533e-08
3.98896e-06
5.44745e-08
3.95817e-06
4.58932e-08
3.9319e-06
3.91493e-08
3.90924e-06
3.37502e-08
3.88954e-06
2.9357e-08
3.87226e-06
2.57289e-08
3.85702e-06
2.26922e-08
3.84351e-06
2.01234e-08
3.83146e-06
1.79336e-08
3.82067e-06
1.60553e-08
3.81097e-06
1.44335e-08
3.80221e-06
1.30226e-08
3.79429e-06
1.17859e-08
3.7871e-06
1.06955e-08
3.78055e-06
9.7304e-09
3.77458e-06
8.87415e-09
3.76913e-06
8.11307e-09
3.76412e-06
7.43501e-09
3.75953e-06
6.82889e-09
3.7553e-06
6.28474e-09
3.7514e-06
5.79382e-09
3.7478e-06
5.34867e-09
3.74447e-06
4.94305e-09
3.74139e-06
4.57178e-09
3.73855e-06
4.23041e-09
3.73591e-06
3.91506e-09
3.73347e-06
3.62213e-09
3.73122e-06
3.34812e-09
3.72914e-06
3.08955e-09
3.72722e-06
2.84281e-09
3.72547e-06
2.60416e-09
3.72388e-06
2.36963e-09
3.72244e-06
2.13507e-09
3.72117e-06
1.89605e-09
3.72006e-06
1.64795e-09
3.71914e-06
1.38587e-09
3.71841e-06
1.10463e-09
3.71788e-06
7.98723e-10
3.71759e-06
4.61757e-10
3.71755e-06
8.10111e-11
3.71781e-06
-3.47335e-10
3.7184e-06
-8.23138e-10
3.71935e-06
-1.35377e-09
3.72071e-06
-1.94431e-09
3.72251e-06
-2.5997e-09
3.72482e-06
-3.32606e-09
3.72768e-06
-4.13151e-09
3.73115e-06
-5.02678e-09
3.73531e-06
-6.02266e-09
3.74023e-06
-7.13308e-09
3.746e-06
-8.35795e-09
3.75273e-06
-9.76667e-09
3.76043e-06
-1.11811e-08
3.7698e-06
-1.35541e-08
3.78091e-06
-1.61629e-08
3.78852e-06
-1.1015e-08
3.79594e-06
-1.06768e-08
3.80392e-06
-1.16148e-08
3.81272e-06
-1.28066e-08
3.82212e-06
-1.36526e-08
3.83206e-06
-1.44415e-08
3.84255e-06
-1.52365e-08
3.85361e-06
-1.605e-08
3.86524e-06
-1.689e-08
3.87747e-06
-1.77648e-08
3.89033e-06
-1.86857e-08
3.90387e-06
-1.96654e-08
3.91814e-06
-2.07211e-08
3.9332e-06
-2.18746e-08
3.94913e-06
-2.3157e-08
3.96607e-06
-2.46112e-08
3.98417e-06
-2.63028e-08
4.00365e-06
-2.83266e-08
4.02488e-06
-3.08657e-08
4.04833e-06
-3.41375e-08
4.07522e-06
-3.90984e-08
4.10676e-06
-4.62505e-08
4.15467e-06
-6.99795e-08
4.25567e-06
-1.72799e-07
-1.03461e-06
4.46787e-06
8.24101e-06
1.95657e-05
7.22625e-06
1.91612e-06
6.88448e-06
6.55943e-07
6.68516e-06
3.92968e-07
6.54789e-06
2.73709e-07
6.44579e-06
2.04709e-07
6.36585e-06
1.60734e-07
6.30107e-06
1.30432e-07
6.24741e-06
1.08136e-07
6.20225e-06
9.10552e-08
6.16374e-06
7.76513e-08
6.13056e-06
6.69317e-08
6.1017e-06
5.82152e-08
6.07641e-06
5.10199e-08
6.05411e-06
4.49995e-08
6.03432e-06
3.99078e-08
6.01669e-06
3.55679e-08
6.0009e-06
3.18454e-08
5.9867e-06
2.86312e-08
5.97389e-06
2.58348e-08
5.96229e-06
2.33841e-08
5.95176e-06
2.12234e-08
5.94218e-06
1.93108e-08
5.93344e-06
1.76137e-08
5.92545e-06
1.6105e-08
5.91812e-06
1.47606e-08
5.91139e-06
1.35587e-08
5.9052e-06
1.24795e-08
5.89949e-06
1.15058e-08
5.89421e-06
1.06229e-08
5.88934e-06
9.81835e-09
5.88483e-06
9.08178e-09
5.88065e-06
8.40438e-09
5.87679e-06
7.77835e-09
5.87322e-06
7.19647e-09
5.86991e-06
6.65176e-09
5.86687e-06
6.1372e-09
5.86406e-06
5.64557e-09
5.8615e-06
5.1693e-09
5.85917e-06
4.70042e-09
5.85707e-06
4.23051e-09
5.85522e-06
3.75066e-09
5.85361e-06
3.25145e-09
5.85228e-06
2.72293e-09
5.85123e-06
2.15458e-09
5.85049e-06
1.53517e-09
5.8501e-06
8.51624e-10
5.8501e-06
7.72069e-11
5.85055e-06
-7.95353e-10
5.85149e-06
-1.76494e-09
5.85299e-06
-2.84688e-09
5.85509e-06
-4.05158e-09
5.85788e-06
-5.38916e-09
5.86143e-06
-6.8721e-09
5.86582e-06
-8.51701e-09
5.87114e-06
-1.03459e-08
5.87749e-06
-1.23807e-08
5.88501e-06
-1.46506e-08
5.89381e-06
-1.71527e-08
5.90408e-06
-2.00405e-08
5.9158e-06
-2.29022e-08
5.93011e-06
-2.7861e-08
5.94691e-06
-3.29638e-08
5.95857e-06
-2.26749e-08
5.97006e-06
-2.21658e-08
5.98219e-06
-2.37443e-08
5.99555e-06
-2.61661e-08
6.00983e-06
-2.79259e-08
6.02494e-06
-2.95523e-08
6.04089e-06
-3.11827e-08
6.05768e-06
-3.2847e-08
6.07536e-06
-3.45632e-08
6.09394e-06
-3.63485e-08
6.11349e-06
-3.82264e-08
6.13404e-06
-4.02218e-08
6.1557e-06
-4.23701e-08
6.17854e-06
-4.47145e-08
6.2027e-06
-4.73178e-08
6.22836e-06
-5.0265e-08
6.25574e-06
-5.36877e-08
6.28519e-06
-5.77717e-08
6.31722e-06
-6.28879e-08
6.35252e-06
-6.94306e-08
6.39284e-06
-7.94204e-08
6.43972e-06
-9.31222e-08
6.50864e-06
-1.38894e-07
6.61979e-06
-2.83943e-07
-1.01741e-06
6.60259e-06
1.17451e-05
2.7211e-05
1.02611e-05
3.40008e-06
9.75569e-06
1.16135e-06
9.46952e-06
6.7914e-07
9.2755e-06
4.67732e-07
9.1324e-06
3.47809e-07
9.02091e-06
2.72225e-07
8.93084e-06
2.205e-07
8.85638e-06
1.82597e-07
8.7938e-06
1.53635e-07
8.7405e-06
1.30948e-07
8.6946e-06
1.12829e-07
8.65471e-06
9.81105e-08
8.61976e-06
8.59689e-08
8.58894e-06
7.58157e-08
8.56162e-06
6.72326e-08
8.53727e-06
5.9919e-08
8.51546e-06
5.36469e-08
8.49586e-06
4.82319e-08
8.47818e-06
4.35218e-08
8.46217e-06
3.93945e-08
8.44763e-06
3.57563e-08
8.43441e-06
3.25361e-08
8.42234e-06
2.96788e-08
8.41131e-06
2.71383e-08
8.4012e-06
2.48744e-08
8.3919e-06
2.28502e-08
8.38335e-06
2.10327e-08
8.37546e-06
1.93929e-08
8.36818e-06
1.79059e-08
8.36145e-06
1.6551e-08
8.35522e-06
1.53104e-08
8.34945e-06
1.41694e-08
8.34412e-06
1.31146e-08
8.33918e-06
1.21338e-08
8.33462e-06
1.12151e-08
8.33041e-06
1.03466e-08
8.32654e-06
9.51599e-09
8.323e-06
8.71044e-09
8.31978e-06
7.91635e-09
8.31689e-06
7.11935e-09
8.31434e-06
6.30421e-09
8.31214e-06
5.45482e-09
8.3103e-06
4.55416e-09
8.30887e-06
3.58418e-09
8.30788e-06
2.52562e-09
8.30738e-06
1.3559e-09
8.30743e-06
2.83807e-11
8.3081e-06
-1.46924e-09
8.30947e-06
-3.13408e-09
8.31162e-06
-4.99244e-09
8.31463e-06
-7.0623e-09
8.3186e-06
-9.3611e-09
8.32364e-06
-1.19103e-08
8.32986e-06
-1.47383e-08
8.3374e-06
-1.7883e-08
8.3464e-06
-2.13822e-08
8.35704e-06
-2.52864e-08
8.36947e-06
-2.9589e-08
8.38399e-06
-3.45608e-08
8.40056e-06
-3.94659e-08
8.42074e-06
-4.80447e-08
8.44428e-06
-5.64961e-08
8.46079e-06
-3.91856e-08
8.47724e-06
-3.86191e-08
8.49442e-06
-4.09182e-08
8.51323e-06
-4.49749e-08
8.53332e-06
-4.80234e-08
8.55461e-06
-5.08332e-08
8.57706e-06
-5.36383e-08
8.60071e-06
-5.64954e-08
8.62559e-06
-5.94375e-08
8.65174e-06
-6.24939e-08
8.67922e-06
-6.57049e-08
8.70811e-06
-6.91122e-08
8.73852e-06
-7.27756e-08
8.77057e-06
-7.67672e-08
8.80445e-06
-8.11922e-08
8.84038e-06
-8.61919e-08
8.87868e-06
-9.19852e-08
8.91979e-06
-9.88792e-08
8.9644e-06
-1.07488e-07
9.01342e-06
-1.18449e-07
9.06912e-06
-1.35108e-07
9.13348e-06
-1.57482e-07
9.22369e-06
-2.29097e-07
9.34377e-06
-4.04012e-07
-9.491e-07
9.27547e-06
1.60742e-05
3.56672e-05
1.40049e-05
5.46933e-06
1.32809e-05
1.88535e-06
1.28804e-05
1.07965e-06
1.26129e-05
7.35258e-07
1.24173e-05
5.43416e-07
1.22657e-05
4.23812e-07
1.21436e-05
3.4254e-07
1.2043e-05
2.8326e-07
1.19585e-05
2.38098e-07
1.18867e-05
2.02796e-07
1.18249e-05
1.74646e-07
1.17712e-05
1.51805e-07
1.17241e-05
1.32981e-07
1.16827e-05
1.17252e-07
1.1646e-05
1.03962e-07
1.16133e-05
9.26435e-08
1.1584e-05
8.29392e-08
1.15576e-05
7.4563e-08
1.15339e-05
6.72791e-08
1.15124e-05
6.08983e-08
1.14929e-05
5.52748e-08
1.14751e-05
5.02983e-08
1.14589e-05
4.58826e-08
1.14441e-05
4.19567e-08
1.14305e-05
3.84578e-08
1.1418e-05
3.53294e-08
1.14065e-05
3.25205e-08
1.13959e-05
2.99863e-08
1.13861e-05
2.76885e-08
1.13771e-05
2.55948e-08
1.13687e-05
2.36779e-08
1.1361e-05
2.19146e-08
1.13538e-05
2.02843e-08
1.13472e-05
1.87679e-08
1.1341e-05
1.7347e-08
1.13354e-05
1.6003e-08
1.13302e-05
1.47167e-08
1.13254e-05
1.34681e-08
1.13211e-05
1.22361e-08
1.13172e-05
1.09982e-08
1.13138e-05
9.73081e-09
1.13109e-05
8.40863e-09
1.13084e-05
7.00507e-09
1.13065e-05
5.49191e-09
1.13052e-05
3.839e-09
1.13045e-05
2.01085e-09
1.13046e-05
-6.61549e-11
1.13056e-05
-2.41175e-09
1.13075e-05
-5.02056e-09
1.13104e-05
-7.93295e-09
1.13145e-05
-1.11773e-08
1.13199e-05
-1.47812e-08
1.13268e-05
-1.8778e-08
1.13353e-05
-2.32122e-08
1.13455e-05
-2.81429e-08
1.13578e-05
-3.36291e-08
1.13722e-05
-3.97505e-08
1.13892e-05
-4.64966e-08
1.14089e-05
-5.42905e-08
1.14314e-05
-6.19825e-08
1.14587e-05
-7.53901e-08
1.14904e-05
-8.8153e-08
1.15128e-05
-6.1614e-08
1.15355e-05
-6.12368e-08
1.15589e-05
-6.43468e-08
1.15844e-05
-7.04606e-08
1.16116e-05
-7.52326e-08
1.16404e-05
-7.96389e-08
1.16708e-05
-8.40257e-08
1.17028e-05
-8.84846e-08
1.17364e-05
-9.30688e-08
1.17717e-05
-9.78242e-08
1.18088e-05
-1.02812e-07
1.18478e-05
-1.08097e-07
1.18888e-05
-1.13769e-07
1.1932e-05
-1.19938e-07
1.19776e-05
-1.26762e-07
1.20258e-05
-1.34455e-07
1.20772e-05
-1.43346e-07
1.21322e-05
-1.53894e-07
1.21918e-05
-1.67015e-07
1.2257e-05
-1.83663e-07
1.23306e-05
-2.08712e-07
1.24152e-05
-2.42048e-07
1.25281e-05
-3.42059e-07
1.26599e-05
-5.35817e-07
-9.35677e-07
1.26465e-05
2.15074e-05
4.50101e-05
1.871e-05
8.26669e-06
1.76923e-05
2.90308e-06
1.71391e-05
1.63291e-06
1.67747e-05
1.0996e-06
1.65107e-05
8.0744e-07
1.63073e-05
6.27233e-07
1.61441e-05
5.05682e-07
1.60099e-05
4.17472e-07
1.58975e-05
3.50499e-07
1.5802e-05
2.98274e-07
1.572e-05
2.56706e-07
1.56488e-05
2.23026e-07
1.55864e-05
1.95298e-07
1.55315e-05
1.72148e-07
1.54829e-05
1.52604e-07
1.54396e-05
1.35967e-07
1.54008e-05
1.21709e-07
1.5366e-05
1.09407e-07
1.53345e-05
9.87116e-08
1.53061e-05
8.93458e-08
1.52803e-05
8.10941e-08
1.52568e-05
7.37931e-08
1.52353e-05
6.73158e-08
1.52157e-05
6.15569e-08
1.51978e-05
5.64245e-08
1.51813e-05
5.18354e-08
1.51661e-05
4.77152e-08
1.51521e-05
4.39983e-08
1.51391e-05
4.06285e-08
1.51272e-05
3.75582e-08
1.51161e-05
3.47475e-08
1.51058e-05
3.21619e-08
1.50964e-05
2.97712e-08
1.50876e-05
2.7547e-08
1.50795e-05
2.54622e-08
1.5072e-05
2.34895e-08
1.50651e-05
2.16005e-08
1.50588e-05
1.97659e-08
1.50531e-05
1.79544e-08
1.50479e-05
1.6133e-08
1.50434e-05
1.42667e-08
1.50395e-05
1.23183e-08
1.50363e-05
1.02485e-08
1.50337e-05
8.01557e-09
1.5032e-05
5.57495e-09
1.50311e-05
2.87408e-09
1.50313e-05
-1.96103e-10
1.50325e-05
-3.66645e-09
1.5035e-05
-7.5283e-09
1.50389e-05
-1.18394e-08
1.50444e-05
-1.66423e-08
1.50516e-05
-2.19775e-08
1.50607e-05
-2.78945e-08
1.5072e-05
-3.44587e-08
1.50856e-05
-4.17569e-08
1.51018e-05
-4.98765e-08
1.5121e-05
-5.89345e-08
1.51434e-05
-6.89179e-08
1.51696e-05
-8.04399e-08
1.51994e-05
-9.18479e-08
1.52356e-05
-1.11508e-07
1.52771e-05
-1.29665e-07
1.53067e-05
-9.12739e-08
1.5337e-05
-9.1511e-08
1.53682e-05
-9.55589e-08
1.54019e-05
-1.04176e-07
1.54379e-05
-1.11171e-07
1.54759e-05
-1.17664e-07
1.5516e-05
-1.24119e-07
1.55582e-05
-1.30668e-07
1.56025e-05
-1.3739e-07
1.5649e-05
-1.44352e-07
1.56979e-05
-1.51641e-07
1.57491e-05
-1.5935e-07
1.5803e-05
-1.67607e-07
1.58596e-05
-1.76568e-07
1.59193e-05
-1.86457e-07
1.59824e-05
-1.97577e-07
1.60495e-05
-2.10389e-07
1.61211e-05
-2.25541e-07
1.61984e-05
-2.44303e-07
1.62828e-05
-2.68038e-07
1.63774e-05
-3.03285e-07
1.64854e-05
-3.49996e-07
1.66234e-05
-4.8004e-07
1.67724e-05
-6.8488e-07
-1.02873e-06
1.68655e-05
2.83645e-05
5.5284e-05
2.46699e-05
1.19613e-05
2.32578e-05
4.31519e-06
2.24987e-05
2.39198e-06
2.20055e-05
1.59286e-06
2.16513e-05
1.16162e-06
2.13801e-05
8.98402e-07
2.11636e-05
7.22219e-07
2.0986e-05
5.95079e-07
2.08376e-05
4.98921e-07
2.07117e-05
4.24144e-07
2.06036e-05
3.64752e-07
2.051e-05
3.16707e-07
2.04281e-05
2.77203e-07
2.03559e-05
2.44257e-07
2.02921e-05
2.16467e-07
2.02352e-05
1.92826e-07
2.01844e-05
1.72575e-07
2.01387e-05
1.55108e-07
2.00974e-05
1.3993e-07
2.00601e-05
1.26644e-07
2.00263e-05
1.14943e-07
1.99955e-05
1.04593e-07
1.99674e-05
9.54113e-08
1.99417e-05
8.72489e-08
1.99182e-05
7.99745e-08
1.98965e-05
7.34704e-08
1.98766e-05
6.76313e-08
1.98582e-05
6.23643e-08
1.98413e-05
5.75898e-08
1.98256e-05
5.32404e-08
1.98111e-05
4.9259e-08
1.97976e-05
4.55969e-08
1.97852e-05
4.22106e-08
1.97737e-05
3.906e-08
1.9763e-05
3.61062e-08
1.97532e-05
3.33105e-08
1.97442e-05
3.06328e-08
1.97359e-05
2.80311e-08
1.97284e-05
2.54613e-08
1.97217e-05
2.28763e-08
1.97157e-05
2.02265e-08
1.97106e-05
1.74591e-08
1.97063e-05
1.45182e-08
1.9703e-05
1.13446e-08
1.97007e-05
7.87485e-09
1.96995e-05
4.03441e-09
1.96997e-05
-3.3163e-10
1.97013e-05
-5.27052e-09
1.97045e-05
-1.07696e-08
1.97096e-05
-1.69076e-08
1.97167e-05
-2.37451e-08
1.9726e-05
-3.13402e-08
1.97379e-05
-3.97629e-08
1.97526e-05
-4.91054e-08
1.97703e-05
-5.949e-08
1.97915e-05
-7.10407e-08
1.98164e-05
-8.39225e-08
1.98456e-05
-9.8122e-08
1.98797e-05
-1.14483e-07
1.99186e-05
-1.30763e-07
1.99655e-05
-1.58349e-07
2.00189e-05
-1.83118e-07
2.00574e-05
-1.29734e-07
2.00971e-05
-1.31232e-07
2.0138e-05
-1.3642e-07
2.01818e-05
-1.48024e-07
2.02284e-05
-1.5781e-07
2.02777e-05
-1.66963e-07
2.03297e-05
-1.76061e-07
2.03843e-05
-1.8528e-07
2.04417e-05
-1.94727e-07
2.05018e-05
-2.04493e-07
2.05649e-05
-2.14699e-07
2.0631e-05
-2.25469e-07
2.07004e-05
-2.3698e-07
2.07732e-05
-2.49442e-07
2.08499e-05
-2.63159e-07
2.09309e-05
-2.78537e-07
2.10167e-05
-2.96199e-07
2.11082e-05
-3.17016e-07
2.12066e-05
-3.42665e-07
2.13136e-05
-3.75013e-07
2.14326e-05
-4.22338e-07
2.15676e-05
-4.84928e-07
2.17335e-05
-6.4594e-07
2.1907e-05
-8.58403e-07
-1.23578e-06
2.21141e-05
3.70303e-05
6.64913e-05
3.22463e-05
1.67454e-05
3.03071e-05
6.25438e-06
2.92695e-05
3.42961e-06
2.86031e-05
2.25918e-06
2.81291e-05
1.63565e-06
2.77686e-05
1.2589e-06
2.74821e-05
1.00871e-06
2.72479e-05
8.29265e-07
2.70527e-05
6.94141e-07
2.68875e-05
5.89391e-07
2.67458e-05
5.06391e-07
2.66232e-05
4.39374e-07
2.6516e-05
3.84352e-07
2.64218e-05
3.38522e-07
2.63383e-05
2.99903e-07
2.62641e-05
2.67075e-07
2.61977e-05
2.38972e-07
2.6138e-05
2.14746e-07
2.60843e-05
1.93704e-07
2.60356e-05
1.75294e-07
2.59915e-05
1.59086e-07
2.59513e-05
1.44755e-07
2.59147e-05
1.32045e-07
2.58812e-05
1.20747e-07
2.58505e-05
1.10678e-07
2.58223e-05
1.01677e-07
2.57963e-05
9.35959e-08
2.57724e-05
8.6308e-08
2.57502e-05
7.97027e-08
2.57298e-05
7.36866e-08
2.57109e-05
6.81806e-08
2.56934e-05
6.31166e-08
2.56771e-05
5.84343e-08
2.56621e-05
5.4078e-08
2.56482e-05
4.99937e-08
2.56354e-05
4.61275e-08
2.56236e-05
4.2424e-08
2.56128e-05
3.88253e-08
2.5603e-05
3.52703e-08
2.55942e-05
3.1694e-08
2.55864e-05
2.80279e-08
2.55797e-05
2.4199e-08
2.5574e-05
2.01301e-08
2.55696e-05
1.57393e-08
2.55666e-05
1.09392e-08
2.5565e-05
5.62718e-09
2.55651e-05
-4.09646e-10
2.5567e-05
-7.24286e-09
2.55711e-05
-1.48554e-08
2.55776e-05
-2.33504e-08
2.55866e-05
-3.28117e-08
2.55986e-05
-4.33198e-08
2.56138e-05
-5.49708e-08
2.56326e-05
-6.78908e-08
2.56554e-05
-8.22471e-08
2.56825e-05
-9.821e-08
2.57146e-05
-1.16005e-07
2.57521e-05
-1.35622e-07
2.57958e-05
-1.58177e-07
2.58458e-05
-1.80759e-07
2.59057e-05
-2.18233e-07
2.59736e-05
-2.50988e-07
2.60227e-05
-1.78831e-07
2.60739e-05
-1.82494e-07
2.61267e-05
-1.89152e-07
2.61829e-05
-2.0428e-07
2.62426e-05
-2.17502e-07
2.63057e-05
-2.2998e-07
2.6372e-05
-2.42394e-07
2.64417e-05
-2.54962e-07
2.65148e-05
-2.67822e-07
2.65914e-05
-2.81091e-07
2.66716e-05
-2.94929e-07
2.67557e-05
-3.09499e-07
2.68437e-05
-3.25032e-07
2.69361e-05
-3.41804e-07
2.70331e-05
-3.60213e-07
2.71354e-05
-3.80789e-07
2.72436e-05
-4.04337e-07
2.73585e-05
-4.31992e-07
2.74818e-05
-4.65888e-07
2.76153e-05
-5.085e-07
2.77628e-05
-5.6983e-07
2.79288e-05
-6.50865e-07
2.8126e-05
-8.43177e-07
2.83318e-05
-1.06423e-06
-1.53707e-06
2.86331e-05
4.79732e-05
7.8576e-05
4.18932e-05
2.28253e-05
3.92556e-05
8.89202e-06
3.78401e-05
4.84509e-06
3.694e-05
3.15933e-06
3.63053e-05
2.27028e-06
3.58261e-05
1.73813e-06
3.54473e-05
1.38756e-06
3.51387e-05
1.13777e-06
3.48823e-05
9.5059e-07
3.46657e-05
8.06e-07
3.44803e-05
6.91741e-07
3.432e-05
5.9968e-07
3.41802e-05
5.24229e-07
3.40572e-05
4.61472e-07
3.39485e-05
4.08652e-07
3.38517e-05
3.63797e-07
3.37653e-05
3.25425e-07
3.36877e-05
2.92366e-07
3.36177e-05
2.63669e-07
3.35544e-05
2.38576e-07
3.3497e-05
2.16496e-07
3.34448e-05
1.9698e-07
3.33971e-05
1.79677e-07
3.33536e-05
1.64298e-07
3.33137e-05
1.50594e-07
3.3277e-05
1.38344e-07
3.32433e-05
1.27348e-07
3.32121e-05
1.17433e-07
3.31834e-05
1.08448e-07
3.31568e-05
1.00267e-07
3.31322e-05
9.27806e-08
3.31094e-05
8.58969e-08
3.30883e-05
7.9533e-08
3.30688e-05
7.36127e-08
3.30507e-05
6.80626e-08
3.3034e-05
6.28093e-08
3.30187e-05
5.77775e-08
3.30046e-05
5.28886e-08
3.29918e-05
4.806e-08
3.29803e-05
4.32038e-08
3.29701e-05
3.82271e-08
3.29613e-05
3.30314e-08
3.29539e-05
2.75122e-08
3.29481e-05
2.15588e-08
3.2944e-05
1.5053e-08
3.29418e-05
7.85743e-09
3.29417e-05
-3.12771e-10
3.2944e-05
-9.56529e-09
3.2949e-05
-1.98796e-08
3.2957e-05
-3.13852e-08
3.29684e-05
-4.41956e-08
3.29835e-05
-5.84196e-08
3.30027e-05
-7.41863e-08
3.30265e-05
-9.16642e-08
3.30553e-05
-1.11076e-07
3.30898e-05
-1.32651e-07
3.31305e-05
-1.56687e-07
3.3178e-05
-1.83188e-07
3.32335e-05
-2.13581e-07
3.32969e-05
-2.44218e-07
3.33725e-05
-2.93866e-07
3.34577e-05
-3.36174e-07
3.35196e-05
-2.40688e-07
3.35848e-05
-2.477e-07
3.3652e-05
-2.56343e-07
3.37233e-05
-2.75618e-07
3.37989e-05
-2.93014e-07
3.38785e-05
-3.09578e-07
3.39622e-05
-3.26087e-07
3.405e-05
-3.42791e-07
3.4142e-05
-3.59861e-07
3.42384e-05
-3.77441e-07
3.43392e-05
-3.95734e-07
3.44447e-05
-4.14949e-07
3.4555e-05
-4.35381e-07
3.46706e-05
-4.57379e-07
3.47919e-05
-4.81453e-07
3.49194e-05
-5.08271e-07
3.50539e-05
-5.38853e-07
3.51966e-05
-5.74634e-07
3.53489e-05
-6.18246e-07
3.55133e-05
-6.72883e-07
3.56937e-05
-7.50163e-07
3.58951e-05
-8.5223e-07
3.61275e-05
-1.07555e-06
3.63731e-05
-1.30988e-06
-1.90361e-06
3.67397e-05
6.17615e-05
9.14011e-05
5.41826e-05
3.04042e-05
5.0631e-05
1.24437e-05
4.87033e-05
6.77273e-06
4.74857e-05
4.37699e-06
4.66343e-05
3.12161e-06
4.59961e-05
2.37639e-06
4.54944e-05
1.88929e-06
4.50875e-05
1.54461e-06
4.47504e-05
1.28772e-06
4.44663e-05
1.09006e-06
4.42237e-05
9.34339e-07
4.40142e-05
8.09175e-07
4.38317e-05
7.06795e-07
4.36713e-05
6.21783e-07
4.35297e-05
5.50331e-07
4.34037e-05
4.89721e-07
4.32912e-05
4.37917e-07
4.31903e-05
3.93318e-07
4.30993e-05
3.5463e-07
4.30171e-05
3.20822e-07
4.29425e-05
2.91092e-07
4.28746e-05
2.64828e-07
4.28128e-05
2.41549e-07
4.27562e-05
2.20864e-07
4.27044e-05
2.02434e-07
4.26568e-05
1.85961e-07
4.26129e-05
1.71177e-07
4.25725e-05
1.57849e-07
4.25352e-05
1.45775e-07
4.25007e-05
1.34783e-07
4.24687e-05
1.24729e-07
4.24391e-05
1.15486e-07
4.24117e-05
1.06943e-07
4.23863e-05
9.89971e-08
4.23628e-05
9.15498e-08
4.23412e-05
8.45025e-08
4.23212e-05
7.77545e-08
4.23029e-05
7.12008e-08
4.22862e-05
6.47311e-08
4.22712e-05
5.82284e-08
4.22578e-05
5.15692e-08
4.22462e-05
4.46221e-08
4.22365e-05
3.72485e-08
4.22288e-05
2.93012e-08
4.22232e-05
2.06231e-08
4.222e-05
1.10336e-08
4.22195e-05
1.62187e-10
4.22221e-05
-1.21533e-08
4.22281e-05
-2.58925e-08
4.2238e-05
-4.12106e-08
4.2252e-05
-5.82582e-08
4.22708e-05
-7.71799e-08
4.22948e-05
-9.81456e-08
4.23245e-05
-1.21376e-07
4.23606e-05
-1.47163e-07
4.24037e-05
-1.75807e-07
4.24547e-05
-2.07696e-07
4.25144e-05
-2.42855e-07
4.25839e-05
-2.83068e-07
4.26636e-05
-3.23892e-07
4.27581e-05
-3.88355e-07
4.28639e-05
-4.4203e-07
4.2941e-05
-3.17725e-07
4.30228e-05
-3.29559e-07
4.31074e-05
-3.40946e-07
4.31969e-05
-3.65114e-07
4.32915e-05
-3.87535e-07
4.3391e-05
-4.0906e-07
4.34954e-05
-4.30557e-07
4.3605e-05
-4.52302e-07
4.37196e-05
-4.74495e-07
4.38395e-05
-4.9731e-07
4.39648e-05
-5.20998e-07
4.40956e-05
-5.45817e-07
4.42324e-05
-5.72136e-07
4.43754e-05
-6.0039e-07
4.45252e-05
-6.31212e-07
4.46824e-05
-6.65432e-07
4.48478e-05
-7.04306e-07
4.50228e-05
-7.49611e-07
4.52091e-05
-8.04516e-07
4.54093e-05
-8.73028e-07
4.56274e-05
-9.68174e-07
4.5869e-05
-1.0938e-06
4.61405e-05
-1.34712e-06
4.64325e-05
-1.60183e-06
-2.30923e-06
4.68382e-05
7.90785e-05
0.000104722
6.98323e-05
3.96503e-05
6.51057e-05
1.71703e-05
6.24868e-05
9.39169e-06
6.08367e-05
6.02709e-06
5.96911e-05
4.26716e-06
5.88383e-05
3.2292e-06
5.81718e-05
2.55574e-06
5.76339e-05
2.08258e-06
5.71896e-05
1.73195e-06
5.68163e-05
1.46334e-06
5.64982e-05
1.25244e-06
5.6224e-05
1.08338e-06
5.59854e-05
9.45412e-07
5.57761e-05
8.31065e-07
5.55914e-05
7.35114e-07
5.54273e-05
6.53825e-07
5.52807e-05
5.8442e-07
5.51493e-05
5.24719e-07
5.5031e-05
4.72972e-07
5.4924e-05
4.27785e-07
5.48271e-05
3.88078e-07
5.47389e-05
3.53019e-07
5.46585e-05
3.21959e-07
5.4585e-05
2.94368e-07
5.45176e-05
2.6979e-07
5.44557e-05
2.47825e-07
5.43988e-05
2.28117e-07
5.43463e-05
2.10353e-07
5.42978e-05
1.94265e-07
5.4253e-05
1.79625e-07
5.42114e-05
1.66237e-07
5.4173e-05
1.53934e-07
5.41374e-05
1.42567e-07
5.41044e-05
1.31998e-07
5.40738e-05
1.22096e-07
5.40456e-05
1.1273e-07
5.40196e-05
1.03766e-07
5.39957e-05
9.50671e-08
5.3974e-05
8.64864e-08
5.39543e-05
7.78707e-08
5.39368e-05
6.90574e-08
5.39216e-05
5.98745e-08
5.39087e-05
5.01399e-08
5.38983e-05
3.96608e-08
5.38907e-05
2.82315e-08
5.38861e-05
1.5617e-08
5.3885e-05
1.35075e-09
5.38876e-05
-1.48123e-08
5.38946e-05
-3.28616e-08
5.39064e-05
-5.29704e-08
5.39234e-05
-7.53365e-08
5.39464e-05
-1.00149e-07
5.39759e-05
-1.27628e-07
5.40126e-05
-1.58058e-07
5.40572e-05
-1.91814e-07
5.41107e-05
-2.29284e-07
5.4174e-05
-2.70966e-07
5.4248e-05
-3.16918e-07
5.43343e-05
-3.69318e-07
5.44333e-05
-4.22902e-07
5.45502e-05
-5.05211e-07
5.46806e-05
-5.72401e-07
5.47755e-05
-4.12684e-07
5.4877e-05
-4.31079e-07
5.49824e-05
-4.46271e-07
5.50935e-05
-4.76235e-07
5.52107e-05
-5.04688e-07
5.53338e-05
-5.32181e-07
5.54629e-05
-5.59686e-07
5.55982e-05
-5.87503e-07
5.57395e-05
-6.1586e-07
5.58872e-05
-6.44959e-07
5.60413e-05
-6.75106e-07
5.62021e-05
-7.06609e-07
5.63699e-05
-7.39924e-07
5.65451e-05
-7.7558e-07
5.67283e-05
-8.1435e-07
5.69201e-05
-8.57246e-07
5.71216e-05
-9.05785e-07
5.73342e-05
-9.6212e-07
5.75597e-05
-1.02998e-06
5.7801e-05
-1.11428e-06
5.8062e-05
-1.22912e-06
5.83488e-05
-1.38062e-06
5.86638e-05
-1.66208e-06
5.90069e-05
-1.94487e-06
-2.73524e-06
5.94329e-05
0.000100732
0.000118157
8.97356e-05
5.06471e-05
8.35366e-05
2.33693e-05
7.99926e-05
1.29357e-05
7.77533e-05
8.26644e-06
7.62063e-05
5.8141e-06
7.5062e-05
4.37349e-06
7.41731e-05
3.44473e-06
7.34589e-05
2.79675e-06
7.28714e-05
2.31947e-06
7.23792e-05
1.95555e-06
7.19608e-05
1.67086e-06
7.16008e-05
1.44335e-06
7.12881e-05
1.25815e-06
7.10141e-05
1.10499e-06
7.07726e-05
9.76699e-07
7.05582e-05
8.6818e-07
7.0367e-05
7.75637e-07
7.01956e-05
6.96114e-07
7.00413e-05
6.27249e-07
6.99019e-05
5.67167e-07
6.97756e-05
5.14413e-07
6.96607e-05
4.67867e-07
6.9556e-05
4.26651e-07
6.94604e-05
3.90052e-07
6.93727e-05
3.5746e-07
6.92922e-05
3.28338e-07
6.92181e-05
3.02213e-07
6.91498e-05
2.78674e-07
6.90867e-05
2.57362e-07
6.90283e-05
2.37975e-07
6.89743e-05
2.20255e-07
6.89243e-05
2.03978e-07
6.88779e-05
1.88945e-07
6.88349e-05
1.74975e-07
6.87951e-05
1.61893e-07
6.87583e-05
1.49528e-07
6.87244e-05
1.37703e-07
6.86932e-05
1.26239e-07
6.86647e-05
1.14944e-07
6.8639e-05
1.03619e-07
6.8616e-05
9.20534e-08
6.85959e-05
8.00228e-08
6.85787e-05
6.72915e-08
6.85648e-05
5.36097e-08
6.85543e-05
3.87115e-08
6.85476e-05
2.22945e-08
6.85452e-05
3.78851e-09
6.85475e-05
-1.71748e-08
6.85553e-05
-4.06112e-08
6.8569e-05
-6.66981e-08
6.85894e-05
-9.56918e-08
6.86171e-05
-1.27836e-07
6.86528e-05
-1.63412e-07
6.86976e-05
-2.02783e-07
6.87522e-05
-2.46421e-07
6.88177e-05
-2.94824e-07
6.88954e-05
-3.48616e-07
6.89864e-05
-4.07908e-07
6.90924e-05
-4.75306e-07
6.92142e-05
-5.44725e-07
6.93573e-05
-6.4833e-07
6.95166e-05
-7.31643e-07
6.96325e-05
-5.28634e-07
6.9757e-05
-5.55565e-07
6.98867e-05
-5.75971e-07
7.00233e-05
-6.12828e-07
7.01672e-05
-6.48508e-07
7.03182e-05
-6.83141e-07
7.04763e-05
-7.17824e-07
7.06417e-05
-7.52888e-07
7.08145e-05
-7.8859e-07
7.09947e-05
-8.25159e-07
7.11826e-05
-8.62958e-07
7.13783e-05
-9.02358e-07
7.15823e-05
-9.43905e-07
7.1795e-05
-9.88235e-07
7.2017e-05
-1.03628e-06
7.2249e-05
-1.08924e-06
7.24922e-05
-1.14893e-06
7.2748e-05
-1.2179e-06
7.30185e-05
-1.30046e-06
7.33067e-05
-1.40244e-06
7.36163e-05
-1.53864e-06
7.39535e-05
-1.71782e-06
7.43162e-05
-2.0247e-06
7.4713e-05
-2.34167e-06
-3.1711e-06
7.51489e-05
0.000127658
0.000131164
0.000114987
6.33181e-05
0.00010701
3.13464e-05
0.000102247
1.76988e-05
9.92076e-05
1.1306e-05
9.71117e-05
7.91009e-06
9.55692e-05
5.91594e-06
9.43775e-05
4.63643e-06
9.34247e-05
3.74951e-06
9.2644e-05
3.10019e-06
9.19921e-05
2.60751e-06
9.14393e-05
2.22363e-06
9.09648e-05
1.91785e-06
9.05533e-05
1.66964e-06
9.01934e-05
1.46486e-06
8.98764e-05
1.2937e-06
8.95954e-05
1.14916e-06
8.9345e-05
1.02606e-06
8.91207e-05
9.20414e-07
8.89189e-05