/*--------------------------------*- C++ -*----------------------------------*\
| =========                 |                                                 |
| \\      /  F ield         | OpenFOAM: The Open Source CFD Toolbox           |
|  \\    /   O peration     | Version:  5.x                                   |
|   \\  /    A nd           | Web:      www.OpenFOAM.org                      |
|    \\/     M anipulation  |                                                 |
\*---------------------------------------------------------------------------*/
FoamFile
{
    version     2.0;
    format      ascii;
    class       volVectorField;
    location    "900";
    object      U;
}
// * * * * * * * * * * * * * * * * * * * * * * * * * * * * * * * * * * * * * //

dimensions      [0 1 -1 0 0 0 0];

internalField   nonuniform List<vector> 
20540
(
(44.1647 -8.14108e-07 0)
(44.2268 0.00467567 0)
(44.1648 -2.55528e-06 0)
(44.2268 0.0134778 0)
(44.1648 -4.50401e-06 0)
(44.2267 0.022079 0)
(44.1648 -6.68645e-06 0)
(44.2267 0.0311543 0)
(44.1648 -9.04903e-06 0)
(44.2266 0.040787 0)
(44.1648 -1.14531e-05 0)
(44.2265 0.0509483 0)
(44.1648 -1.36489e-05 0)
(44.2265 0.0615566 0)
(44.1648 -1.52306e-05 0)
(44.2264 0.0724785 0)
(44.1649 -1.55861e-05 0)
(44.2265 0.083511 0)
(44.165 -1.38487e-05 0)
(44.2266 0.0943747 0)
(44.1652 -8.85804e-06 0)
(44.2268 0.104717 0)
(44.1654 8.72015e-07 0)
(44.2272 0.114126 0)
(44.1658 1.71763e-05 0)
(44.2277 0.122157 0)
(44.1662 4.22516e-05 0)
(44.2282 0.128396 0)
(44.1668 7.86543e-05 0)
(44.229 0.132551 0)
(44.1675 0.000129264 0)
(44.2298 0.134614 0)
(44.1684 0.000197175 0)
(44.2309 0.134843 0)
(44.1695 0.000285472 0)
(44.2322 0.133709 0)
(44.1708 0.000396929 0)
(44.2338 0.131688 0)
(44.1723 0.000533642 0)
(44.2356 0.129012 0)
(44.1741 0.000696559 0)
(44.2378 0.125704 0)
(44.1762 0.000884777 0)
(44.2404 0.121691 0)
(44.1787 0.00109454 0)
(44.2434 0.116853 0)
(44.1816 0.00131783 0)
(44.2468 0.111041 0)
(44.1848 0.0015406 0)
(44.2508 0.104078 0)
(44.1884 0.00174054 0)
(44.2552 0.0957554 0)
(44.1924 0.00188479 0)
(44.26 0.0858298 0)
(44.1966 0.00192808 0)
(44.2651 0.0740133 0)
(44.2009 0.00181292 0)
(44.2703 0.0599605 0)
(44.2048 0.00147439 0)
(44.2751 0.0432429 0)
(44.2076 0.000945387 0)
(44.2785 0.0255583 0)
(44.2089 0.000321522 0)
(44.2801 0.00840767 0)
(44.2089 -0.000335196 0)
(44.2801 -0.00872417 0)
(44.2076 -0.000957754 0)
(44.2784 -0.0258749 0)
(44.2048 -0.00147831 0)
(44.2751 -0.0432874 0)
(44.201 -0.00180951 0)
(44.2704 -0.0595429 0)
(44.1968 -0.00192916 0)
(44.2654 -0.0732876 0)
(44.1927 -0.00189631 0)
(44.2604 -0.0849131 0)
(44.1888 -0.00176402 0)
(44.2557 -0.0947371 0)
(44.1853 -0.00157478 0)
(44.2514 -0.103025 0)
(44.1821 -0.00136002 0)
(44.2474 -0.110003 0)
(44.1792 -0.00114159 0)
(44.244 -0.115865 0)
(44.1767 -0.000933667 0)
(44.241 -0.120777 0)
(44.1746 -0.000744692 0)
(44.2384 -0.124881 0)
(44.1727 -0.000578986 0)
(44.2361 -0.128294 0)
(44.1712 -0.000438033 0)
(44.2342 -0.131099 0)
(44.1698 -0.00032143 0)
(44.2326 -0.133317 0)
(44.1687 -0.000227563 0)
(44.2312 -0.134829 0)
(44.1677 -0.000154074 0)
(44.2301 -0.135283 0)
(44.1669 -9.81981e-05 0)
(44.2292 -0.134207 0)
(44.1663 -5.70468e-05 0)
(44.2284 -0.131256 0)
(44.1658 -2.78437e-05 0)
(44.2277 -0.1263 0)
(44.1654 -8.06909e-06 0)
(44.2272 -0.11948 0)
(44.1651 4.47853e-06 0)
(44.2268 -0.111124 0)
(44.1649 1.16663e-05 0)
(44.2265 -0.10163 0)
(44.1648 1.50359e-05 0)
(44.2263 -0.0913933 0)
(44.1647 1.58204e-05 0)
(44.2262 -0.0807751 0)
(44.1646 1.49715e-05 0)
(44.2262 -0.0700764 0)
(44.1646 1.31911e-05 0)
(44.2262 -0.0595328 0)
(44.1646 1.09697e-05 0)
(44.2263 -0.0493127 0)
(44.1645 8.62901e-06 0)
(44.2264 -0.0395256 0)
(44.1645 6.36565e-06 0)
(44.2265 -0.0302372 0)
(44.1645 4.28758e-06 0)
(44.2265 -0.0214647 0)
(44.1645 2.43391e-06 0)
(44.2266 -0.0131081 0)
(44.1645 7.7631e-07 0)
(44.2266 -0.00454748 0)
(7.05384 0.00661016 0)
(5.82063 0.000181729 0)
(5.45912 7.11209e-05 0)
(5.23968 4.90613e-05 0)
(5.08716 3.67029e-05 0)
(4.97426 2.88602e-05 0)
(4.8866 2.36151e-05 0)
(4.81608 1.98919e-05 0)
(4.75801 1.70941e-05 0)
(4.70939 1.49129e-05 0)
(4.66815 1.3173e-05 0)
(4.63277 1.17597e-05 0)
(4.60213 1.05931e-05 0)
(4.57537 9.61577e-06 0)
(4.55185 8.78498e-06 0)
(4.53105 8.07074e-06 0)
(4.51256 7.45215e-06 0)
(4.49605 6.91342e-06 0)
(4.48124 6.44102e-06 0)
(4.4679 6.02315e-06 0)
(4.45586 5.65014e-06 0)
(4.44494 5.31486e-06 0)
(4.43502 5.01235e-06 0)
(4.42599 4.73905e-06 0)
(4.41775 4.49202e-06 0)
(4.41021 4.2684e-06 0)
(4.40329 4.06528e-06 0)
(4.39693 3.87976e-06 0)
(4.39107 3.70916e-06 0)
(4.38567 3.5511e-06 0)
(4.38068 3.40355e-06 0)
(4.37606 3.26485e-06 0)
(4.3718 3.13353e-06 0)
(4.36785 3.00823e-06 0)
(4.36419 2.88754e-06 0)
(4.36081 2.76984e-06 0)
(4.35769 2.65323e-06 0)
(4.35481 2.53537e-06 0)
(4.35217 2.41344e-06 0)
(4.34975 2.284e-06 0)
(4.34755 2.14292e-06 0)
(4.34558 1.9853e-06 0)
(4.34385 1.80534e-06 0)
(4.34235 1.59626e-06 0)
(4.34111 1.35011e-06 0)
(4.34014 1.05765e-06 0)
(4.33948 7.07517e-07 0)
(4.33914 2.81383e-07 0)
(4.33919 -2.33781e-07 0)
(4.33966 -8.48229e-07 0)
(4.34059 -1.57979e-06 0)
(4.34204 -2.44601e-06 0)
(4.34407 -3.46609e-06 0)
(4.34675 -4.66291e-06 0)
(4.35013 -6.06486e-06 0)
(4.3543 -7.70689e-06 0)
(4.35934 -9.62914e-06 0)
(4.36535 -1.18775e-05 0)
(4.37246 -1.44939e-05 0)
(4.38074 -1.75851e-05 0)
(4.39048 -2.10853e-05 0)
(4.40128 -2.60231e-05 0)
(4.41578 -3.3138e-05 0)
(4.42823 -3.42816e-05 0)
(4.43837 -3.40526e-05 0)
(4.44819 -4.12951e-05 0)
(4.45967 -4.76651e-05 0)
(4.47195 -5.32016e-05 0)
(4.48494 -5.91133e-05 0)
(4.49866 -6.55836e-05 0)
(4.51313 -7.26814e-05 0)
(4.52835 -8.04778e-05 0)
(4.54437 -8.90837e-05 0)
(4.56121 -9.86207e-05 0)
(4.57894 -0.000109259 0)
(4.5976 -0.000121195 0)
(4.61729 -0.000134716 0)
(4.6381 -0.000150183 0)
(4.66017 -0.000168133 0)
(4.68368 -0.000189332 0)
(4.70891 -0.000214978 0)
(4.7362 -0.000246999 0)
(4.76624 -0.000289091 0)
(4.79951 -0.000347831 0)
(4.83973 -0.00045021 0)
(4.8832 -0.000706231 0)
(4.98709 -0.00283803 0)
(5.25502 -0.0258859 0)
(14.1915 0.0148494 0)
(11.7236 0.000886768 0)
(11.039 0.000318796 0)
(10.6533 0.000207583 0)
(10.3921 0.000152785 0)
(10.2007 0.000119559 0)
(10.0528 9.77995e-05 0)
(9.93394 8.25067e-05 0)
(9.83609 7.10462e-05 0)
(9.75418 6.2109e-05 0)
(9.68466 5.49744e-05 0)
(9.62499 4.91731e-05 0)
(9.57327 4.43783e-05 0)
(9.52809 4.03542e-05 0)
(9.48834 3.69279e-05 0)
(9.45317 3.39774e-05 0)
(9.42189 3.14177e-05 0)
(9.39394 2.91844e-05 0)
(9.36885 2.72229e-05 0)
(9.34625 2.54855e-05 0)
(9.32583 2.39329e-05 0)
(9.30731 2.25358e-05 0)
(9.29048 2.12737e-05 0)
(9.27514 2.0132e-05 0)
(9.26114 1.90984e-05 0)
(9.24832 1.81615e-05 0)
(9.23655 1.73095e-05 0)
(9.22573 1.65306e-05 0)
(9.21577 1.58137e-05 0)
(9.20657 1.5149e-05 0)
(9.19807 1.45279e-05 0)
(9.19022 1.39432e-05 0)
(9.18295 1.33887e-05 0)
(9.17622 1.28581e-05 0)
(9.16999 1.23451e-05 0)
(9.16423 1.18424e-05 0)
(9.15891 1.13412e-05 0)
(9.15401 1.0831e-05 0)
(9.14951 1.02987e-05 0)
(9.1454 9.72852e-06 0)
(9.14168 9.10135e-06 0)
(9.13835 8.39446e-06 0)
(9.13542 7.58093e-06 0)
(9.13292 6.62912e-06 0)
(9.13087 5.50203e-06 0)
(9.1293 4.15635e-06 0)
(9.12828 2.53892e-06 0)
(9.12785 5.565e-07 0)
(9.1281 -1.84729e-06 0)
(9.12911 -4.7116e-06 0)
(9.13097 -8.123e-06 0)
(9.13376 -1.21638e-05 0)
(9.13761 -1.69234e-05 0)
(9.14261 -2.25082e-05 0)
(9.14891 -2.905e-05 0)
(9.15663 -3.67128e-05 0)
(9.16594 -4.56802e-05 0)
(9.17702 -5.61771e-05 0)
(9.19008 -6.83462e-05 0)
(9.20528 -8.29026e-05 0)
(9.22314 -9.85942e-05 0)
(9.24292 -0.000123852 0)
(9.26951 -0.000154459 0)
(9.29239 -0.000162888 0)
(9.31135 -0.000164432 0)
(9.32935 -0.000190535 0)
(9.35018 -0.000221331 0)
(9.37257 -0.0002479 0)
(9.3963 -0.00027565 0)
(9.42136 -0.000305796 0)
(9.44779 -0.000338745 0)
(9.4756 -0.000374884 0)
(9.50486 -0.000414692 0)
(9.53564 -0.000458764 0)
(9.56801 -0.000507833 0)
(9.60208 -0.000562845 0)
(9.63801 -0.000625038 0)
(9.67598 -0.000696102 0)
(9.71623 -0.000778387 0)
(9.7591 -0.000875389 0)
(9.80505 -0.000992252 0)
(9.85471 -0.0011383 0)
(9.90924 -0.0013262 0)
(9.96962 -0.00160085 0)
(10.0419 -0.00200364 0)
(10.1212 -0.00324742 0)
(10.2898 -0.00956433 0)
(10.5621 -0.0744129 0)
(18.3839 0.0233551 0)
(15.129 0.0020705 0)
(14.222 0.000737036 0)
(13.7338 0.000465197 0)
(13.4098 0.000338557 0)
(13.1749 0.000263686 0)
(12.9943 0.000215277 0)
(12.8497 0.000181496 0)
(12.7309 0.000156269 0)
(12.6315 0.000136626 0)
(12.5473 0.000120961 0)
(12.475 0.000108231 0)
(12.4124 9.77123e-05 0)
(12.3577 8.88845e-05 0)
(12.3096 8.13679e-05 0)
(12.2671 7.48945e-05 0)
(12.2292 6.9277e-05 0)
(12.1954 6.43741e-05 0)
(12.1651 6.00666e-05 0)
(12.1377 5.62504e-05 0)
(12.113 5.28397e-05 0)
(12.0906 4.97702e-05 0)
(12.0702 4.69968e-05 0)
(12.0517 4.44868e-05 0)
(12.0347 4.22137e-05 0)
(12.0192 4.01523e-05 0)
(12.005 3.8277e-05 0)
(11.9919 3.65622e-05 0)
(11.9798 3.49838e-05 0)
(11.9687 3.35199e-05 0)
(11.9584 3.2152e-05 0)
(11.9489 3.08638e-05 0)
(11.9401 2.96411e-05 0)
(11.9319 2.84702e-05 0)
(11.9244 2.73366e-05 0)
(11.9174 2.62237e-05 0)
(11.9109 2.51116e-05 0)
(11.905 2.39763e-05 0)
(11.8996 2.2788e-05 0)
(11.8946 2.15108e-05 0)
(11.8901 2.01012e-05 0)
(11.8861 1.85073e-05 0)
(11.8826 1.66678e-05 0)
(11.8796 1.45102e-05 0)
(11.8771 1.19501e-05 0)
(11.8753 8.88823e-06 0)
(11.8741 5.20273e-06 0)
(11.8737 6.75502e-07 0)
(11.8741 -4.81896e-06 0)
(11.8755 -1.13655e-05 0)
(11.8779 -1.91645e-05 0)
(11.8815 -2.84034e-05 0)
(11.8864 -3.92867e-05 0)
(11.8928 -5.20576e-05 0)
(11.9008 -6.70163e-05 0)
(11.9106 -8.45382e-05 0)
(11.9224 -0.00010504 0)
(11.9364 -0.000129045 0)
(11.9528 -0.000156845 0)
(11.972 -0.000190205 0)
(11.9945 -0.0002257 0)
(12.0195 -0.000284755 0)
(12.0528 -0.000351069 0)
(12.0815 -0.000375107 0)
(12.1058 -0.000383464 0)
(12.1286 -0.000434982 0)
(12.1547 -0.000504728 0)
(12.1828 -0.000566158 0)
(12.2126 -0.000629817 0)
(12.2441 -0.000698704 0)
(12.2773 -0.000773857 0)
(12.3123 -0.000856207 0)
(12.349 -0.000946817 0)
(12.3877 -0.00104705 0)
(12.4283 -0.00115852 0)
(12.4711 -0.00128337 0)
(12.5161 -0.00142432 0)
(12.5637 -0.00158516 0)
(12.6142 -0.00177105 0)
(12.6678 -0.00198974 0)
(12.7253 -0.00225242 0)
(12.7872 -0.00257983 0)
(12.8552 -0.00299787 0)
(12.9303 -0.00361078 0)
(13.0193 -0.00446859 0)
(13.1177 -0.00709533 0)
(13.3084 -0.0165739 0)
(13.5247 -0.0785168 0)
(21.6958 0.0339582 0)
(17.7876 0.00392046 0)
(16.6656 0.00138499 0)
(16.0817 0.00085137 0)
(15.7015 0.000612487 0)
(15.4286 0.000474307 0)
(15.2201 0.000386038 0)
(15.0537 0.000324901 0)
(14.9173 0.000279445 0)
(14.8034 0.000244146 0)
(14.707 0.000216048 0)
(14.6243 0.00019325 0)
(14.5528 0.000174432 0)
(14.4903 0.000158651 0)
(14.4353 0.000145223 0)
(14.3867 0.000133665 0)
(14.3435 0.000123638 0)
(14.3049 0.000114889 0)
(14.2703 0.000107203 0)
(14.2391 0.000100395 0)
(14.2109 9.43131e-05 0)
(14.1853 8.88407e-05 0)
(14.1621 8.38967e-05 0)
(14.1409 7.94225e-05 0)
(14.1216 7.53702e-05 0)
(14.1039 7.16948e-05 0)
(14.0876 6.8351e-05 0)
(14.0727 6.52933e-05 0)
(14.0589 6.2479e-05 0)
(14.0462 5.98693e-05 0)
(14.0344 5.74306e-05 0)
(14.0236 5.51341e-05 0)
(14.0135 5.29537e-05 0)
(14.0042 5.08646e-05 0)
(13.9956 4.88402e-05 0)
(13.9876 4.68503e-05 0)
(13.9803 4.48589e-05 0)
(13.9735 4.28218e-05 0)
(13.9673 4.0685e-05 0)
(13.9616 3.83828e-05 0)
(13.9565 3.58362e-05 0)
(13.9519 3.29503e-05 0)
(13.9479 2.96129e-05 0)
(13.9445 2.5692e-05 0)
(13.9417 2.10329e-05 0)
(13.9397 1.54544e-05 0)
(13.9384 8.73295e-06 0)
(13.938 4.63861e-07 0)
(13.9385 -9.58056e-06 0)
(13.9402 -2.15488e-05 0)
(13.9431 -3.58077e-05 0)
(13.9474 -5.27007e-05 0)
(13.9532 -7.26024e-05 0)
(13.9607 -9.59572e-05 0)
(13.9701 -0.000123314 0)
(13.9815 -0.00015536 0)
(13.9953 -0.000192857 0)
(14.0117 -0.000236766 0)
(14.031 -0.000287602 0)
(14.0534 -0.000348695 0)
(14.0796 -0.000413339 0)
(14.1088 -0.000522318 0)
(14.1476 -0.00063954 0)
(14.1808 -0.000689637 0)
(14.2095 -0.00071117 0)
(14.2364 -0.000796398 0)
(14.2668 -0.000922174 0)
(14.2995 -0.00103526 0)
(14.3342 -0.00115211 0)
(14.3709 -0.00127826 0)
(14.4095 -0.00141572 0)
(14.4502 -0.00156625 0)
(14.4929 -0.00173177 0)
(14.5379 -0.00191475 0)
(14.5851 -0.00211811 0)
(14.6348 -0.00234571 0)
(14.6871 -0.00260244 0)
(14.7422 -0.00289507 0)
(14.8007 -0.00323283 0)
(14.8627 -0.00362954 0)
(14.9291 -0.00410499 0)
(15.0006 -0.00469609 0)
(15.0787 -0.00544738 0)
(15.1648 -0.0065456 0)
(15.2659 -0.00804689 0)
(15.3779 -0.0124885 0)
(15.5772 -0.0247771 0)
(15.7403 -0.074539 0)
(24.5626 0.0457889 0)
(20.1064 0.00658454 0)
(18.7662 0.00233517 0)
(18.0859 0.00140289 0)
(17.6507 0.000997824 0)
(17.3415 0.000768089 0)
(17.1067 0.000623019 0)
(16.9201 0.000523288 0)
(16.7675 0.00044949 0)
(16.6404 0.000392359 0)
(16.5329 0.000346982 0)
(16.4408 0.000310224 0)
(16.3612 0.000279924 0)
(16.2917 0.000254538 0)
(16.2306 0.000232954 0)
(16.1766 0.000214388 0)
(16.1286 0.00019829 0)
(16.0857 0.000184247 0)
(16.0473 0.000171915 0)
(16.0126 0.000160995 0)
(15.9813 0.000151243 0)
(15.9529 0.000142471 0)
(15.9271 0.000134548 0)
(15.9036 0.000127378 0)
(15.8821 0.000120885 0)
(15.8625 0.000114995 0)
(15.8444 0.000109636 0)
(15.8278 0.000104736 0)
(15.8125 0.000100226 0)
(15.7984 9.60455e-05 0)
(15.7854 9.21391e-05 0)
(15.7733 8.84605e-05 0)
(15.7622 8.49676e-05 0)
(15.7518 8.16195e-05 0)
(15.7423 7.83732e-05 0)
(15.7334 7.51793e-05 0)
(15.7252 7.19788e-05 0)
(15.7177 6.87e-05 0)
(15.7108 6.52549e-05 0)
(15.7045 6.15366e-05 0)
(15.6988 5.74159e-05 0)
(15.6937 5.27386e-05 0)
(15.6893 4.73216e-05 0)
(15.6855 4.09493e-05 0)
(15.6825 3.33695e-05 0)
(15.6802 2.42864e-05 0)
(15.6788 1.3334e-05 0)
(15.6784 -1.53418e-07 0)
(15.6791 -1.65497e-05 0)
(15.681 -3.60899e-05 0)
(15.6843 -5.93692e-05 0)
(15.6891 -8.69496e-05 0)
(15.6957 -0.000119444 0)
(15.7041 -0.000157576 0)
(15.7147 -0.000202242 0)
(15.7276 -0.000254561 0)
(15.7431 -0.000315776 0)
(15.7615 -0.00038746 0)
(15.7831 -0.000470441 0)
(15.8083 -0.000570192 0)
(15.8378 -0.00067561 0)
(15.8706 -0.000853548 0)
(15.9139 -0.00103897 0)
(15.9507 -0.00112951 0)
(15.9833 -0.00117467 0)
(16.0139 -0.00130287 0)
(16.048 -0.00150357 0)
(16.0846 -0.00168832 0)
(16.1234 -0.00187922 0)
(16.1644 -0.00208493 0)
(16.2076 -0.00230884 0)
(16.2531 -0.00255383 0)
(16.3009 -0.00282299 0)
(16.351 -0.00312032 0)
(16.4037 -0.00345044 0)
(16.4591 -0.00381954 0)
(16.5174 -0.00423537 0)
(16.5788 -0.00470871 0)
(16.6437 -0.00525414 0)
(16.7126 -0.00589344 0)
(16.7861 -0.00665776 0)
(16.8651 -0.00760479 0)
(16.9511 -0.00880399 0)
(17.0457 -0.0105432 0)
(17.1557 -0.0128919 0)
(17.2773 -0.0194586 0)
(17.4779 -0.0338438 0)
(17.6019 -0.0708319 0)
(27.157 0.0587747 0)
(22.2484 0.0102412 0)
(20.6822 0.00368347 0)
(19.9003 0.00216938 0)
(19.4081 0.00152553 0)
(19.0621 0.00116688 0)
(18.8011 0.000942923 0)
(18.5947 0.000790131 0)
(18.4264 0.000677658 0)
(18.2864 0.000590887 0)
(18.1682 0.00052214 0)
(18.0672 0.000466558 0)
(17.9798 0.000420806 0)
(17.9036 0.000382519 0)
(17.8367 0.000349997 0)
(17.7776 0.000322045 0)
(17.7251 0.000297823 0)
(17.6782 0.000276702 0)
(17.6361 0.000258161 0)
(17.5982 0.00024175 0)
(17.564 0.000227099 0)
(17.5329 0.000213927 0)
(17.5047 0.000202034 0)
(17.479 0.000191272 0)
(17.4555 0.000181526 0)
(17.434 0.000172686 0)
(17.4143 0.000164642 0)
(17.3961 0.000157289 0)
(17.3794 0.000150522 0)
(17.364 0.000144249 0)
(17.3497 0.00013839 0)
(17.3365 0.000132873 0)
(17.3243 0.000127635 0)
(17.313 0.000122612 0)
(17.3026 0.00011774 0)
(17.2929 0.000112944 0)
(17.2839 0.000108134 0)
(17.2757 0.0001032 0)
(17.2681 9.80091e-05 0)
(17.2612 9.23994e-05 0)
(17.255 8.61747e-05 0)
(17.2495 7.91006e-05 0)
(17.2446 7.08991e-05 0)
(17.2405 6.12429e-05 0)
(17.2371 4.97486e-05 0)
(17.2347 3.59667e-05 0)
(17.2332 1.93401e-05 0)
(17.2327 -1.14621e-06 0)
(17.2334 -2.60694e-05 0)
(17.2355 -5.57814e-05 0)
(17.2392 -9.11746e-05 0)
(17.2445 -0.000133106 0)
(17.2516 -0.000182508 0)
(17.2609 -0.00024048 0)
(17.2725 -0.000308378 0)
(17.2867 -0.000387901 0)
(17.3037 -0.000480934 0)
(17.3239 -0.000589863 0)
(17.3476 -0.000715961 0)
(17.3752 -0.000867452 0)
(17.4075 -0.0010278 0)
(17.4435 -0.00129663 0)
(17.4906 -0.00156944 0)
(17.5303 -0.00171906 0)
(17.5663 -0.00180348 0)
(17.6003 -0.00198569 0)
(17.6376 -0.0022819 0)
(17.6775 -0.0025615 0)
(17.7199 -0.00285102 0)
(17.7647 -0.00316263 0)
(17.8118 -0.00350145 0)
(17.8613 -0.00387183 0)
(17.9134 -0.00427836 0)
(17.968 -0.00472697 0)
(18.0253 -0.00522451 0)
(18.0854 -0.00578009 0)
(18.1486 -0.00640511 0)
(18.2152 -0.00711538 0)
(18.2854 -0.00793223 0)
(18.3599 -0.00888738 0)
(18.4391 -0.0100261 0)
(18.524 -0.0114315 0)
(18.6162 -0.0132048 0)
(18.7172 -0.0157485 0)
(18.8335 -0.0191608 0)
(18.9615 -0.0280651 0)
(19.1597 -0.0439149 0)
(19.2589 -0.0735705 0)
(29.5614 0.073049 0)
(24.2977 0.0151232 0)
(22.4961 0.00556552 0)
(21.6042 0.00322356 0)
(21.051 0.00224122 0)
(20.6661 0.00170282 0)
(20.3779 0.00137024 0)
(20.151 0.00114512 0)
(19.9667 0.000980346 0)
(19.8138 0.000853727 0)
(19.6849 0.00075369 0)
(19.5748 0.000672985 0)
(19.4798 0.000606664 0)
(19.397 0.000551238 0)
(19.3244 0.000504211 0)
(19.2602 0.000463829 0)
(19.2032 0.000428863 0)
(19.1523 0.000398388 0)
(19.1067 0.000371648 0)
(19.0656 0.000347991 0)
(19.0285 0.000326882 0)
(18.9949 0.000307914 0)
(18.9643 0.000290793 0)
(18.9364 0.000275306 0)
(18.911 0.00026128 0)
(18.8877 0.000248558 0)
(18.8663 0.000236983 0)
(18.8467 0.000226402 0)
(18.8285 0.000216667 0)
(18.8118 0.000207646 0)
(18.7964 0.000199222 0)
(18.7821 0.000191291 0)
(18.7688 0.000183762 0)
(18.7566 0.000176543 0)
(18.7452 0.000169539 0)
(18.7347 0.00016264 0)
(18.7251 0.000155717 0)
(18.7161 0.000148611 0)
(18.7079 0.000141129 0)
(18.7004 0.000133035 0)
(18.6937 0.000124047 0)
(18.6876 0.000113824 0)
(18.6824 0.000101964 0)
(18.6779 8.79932e-05 0)
(18.6743 7.13554e-05 0)
(18.6716 5.13997e-05 0)
(18.6699 2.73189e-05 0)
(18.6693 -2.35789e-06 0)
(18.6701 -3.84882e-05 0)
(18.6724 -8.15788e-05 0)
(18.6762 -0.000132901 0)
(18.6819 -0.000193699 0)
(18.6897 -0.000265325 0)
(18.6996 -0.000349371 0)
(18.7121 -0.000447794 0)
(18.7273 -0.000563045 0)
(18.7457 -0.000697851 0)
(18.7674 -0.000855655 0)
(18.793 -0.00103834 0)
(18.8227 -0.00125756 0)
(18.8574 -0.00149039 0)
(18.8962 -0.00187595 0)
(18.9465 -0.00225798 0)
(18.9887 -0.0024903 0)
(19.0276 -0.00263612 0)
(19.0645 -0.00288675 0)
(19.1047 -0.00330184 0)
(19.1476 -0.00370353 0)
(19.193 -0.00412102 0)
(19.241 -0.00457017 0)
(19.2914 -0.00505809 0)
(19.3444 -0.00559094 0)
(19.4001 -0.00617519 0)
(19.4584 -0.00681915 0)
(19.5195 -0.00753242 0)
(19.5836 -0.00832775 0)
(19.6509 -0.009221 0)
(19.7217 -0.0102342 0)
(19.7962 -0.0113968 0)
(19.8751 -0.0127527 0)
(19.9588 -0.0143642 0)
(20.0483 -0.0163443 0)
(20.1452 -0.0188338 0)
(20.2508 -0.0223593 0)
(20.3713 -0.0270675 0)
(20.5031 -0.0384738 0)
(20.6969 -0.0554652 0)
(20.7823 -0.0850328 0)
(31.8166 0.0886886 0)
(26.3037 0.0215068 0)
(24.2589 0.0081636 0)
(23.2461 0.00466666 0)
(22.6257 0.00320844 0)
(22.1985 0.00242039 0)
(21.8809 0.00193866 0)
(21.6324 0.00161517 0)
(21.4312 0.00137987 0)
(21.2648 0.00119985 0)
(21.1248 0.00105808 0)
(21.0055 0.000943983 0)
(20.9026 0.000850401 0)
(20.813 0.000772311 0)
(20.7345 0.000706142 0)
(20.6652 0.000649387 0)
(20.6036 0.000600285 0)
(20.5487 0.000557519 0)
(20.4995 0.000520013 0)
(20.4552 0.00048685 0)
(20.4152 0.000457278 0)
(20.3789 0.00043072 0)
(20.3459 0.000406758 0)
(20.3159 0.000385089 0)
(20.2885 0.000365468 0)
(20.2634 0.000347671 0)
(20.2403 0.000331481 0)
(20.2191 0.000316682 0)
(20.1996 0.000303071 0)
(20.1816 0.000290462 0)
(20.165 0.000278691 0)
(20.1495 0.000267614 0)
(20.1353 0.000257099 0)
(20.1221 0.00024702 0)
(20.1098 0.000237239 0)
(20.0985 0.000227604 0)
(20.0881 0.000217932 0)
(20.0784 0.000208001 0)
(20.0696 0.000197539 0)
(20.0615 0.000186218 0)
(20.0542 0.000173639 0)
(20.0477 0.000159328 0)
(20.042 0.00014272 0)
(20.0371 0.000123152 0)
(20.0332 9.98444e-05 0)
(20.0302 7.18859e-05 0)
(20.0283 3.81487e-05 0)
(20.0277 -3.4239e-06 0)
(20.0284 -5.40723e-05 0)
(20.0307 -0.000114509 0)
(20.0348 -0.000186477 0)
(20.0408 -0.000271723 0)
(20.049 -0.000372142 0)
(20.0595 -0.000489958 0)
(20.0727 -0.000627904 0)
(20.0889 -0.000789393 0)
(20.1083 -0.000978234 0)
(20.1314 -0.00119922 0)
(20.1585 -0.00145507 0)
(20.1901 -0.00176159 0)
(20.2269 -0.00208863 0)
(20.2682 -0.00262152 0)
(20.3211 -0.00313783 0)
(20.3652 -0.00348202 0)
(20.4066 -0.00371918 0)
(20.4462 -0.00405757 0)
(20.4888 -0.00461875 0)
(20.5343 -0.00517461 0)
(20.5823 -0.00575508 0)
(20.6329 -0.00637967 0)
(20.6862 -0.00705769 0)
(20.7421 -0.00779742 0)
(20.8006 -0.00860761 0)
(20.862 -0.00949944 0)
(20.9263 -0.0104858 0)
(20.9936 -0.0115839 0)
(21.0642 -0.012815 0)
(21.1383 -0.0142084 0)
(21.2162 -0.0158036 0)
(21.2984 -0.0176584 0)
(21.3855 -0.0198559 0)
(21.4784 -0.0225432 0)
(21.5785 -0.0259087 0)
(21.6873 -0.0306082 0)
(21.8102 -0.0368621 0)
(21.9435 -0.0509061 0)
(22.1319 -0.069071 0)
(22.2099 -0.104605 0)
(33.9392 0.105664 0)
(28.2969 0.0296979 0)
(26.0056 0.011716 0)
(24.8594 0.00663732 0)
(24.1638 0.00451462 0)
(23.6894 0.00338049 0)
(23.3395 0.00269391 0)
(23.0672 0.00223659 0)
(22.8478 0.00190615 0)
(22.6669 0.00165459 0)
(22.5152 0.00145718 0)
(22.386 0.00129875 0)
(22.2748 0.00116908 0)
(22.1781 0.00106107 0)
(22.0934 0.000969692 0)
(22.0186 0.000891414 0)
(21.9524 0.000823759 0)
(21.8932 0.00076488 0)
(21.8403 0.000713276 0)
(21.7926 0.000667678 0)
(21.7496 0.000627046 0)
(21.7106 0.000590579 0)
(21.6751 0.000557695 0)
(21.6429 0.000527968 0)
(21.6134 0.000501056 0)
(21.5864 0.000476649 0)
(21.5617 0.000454447 0)
(21.5389 0.000434157 0)
(21.5179 0.000415501 0)
(21.4985 0.000398225 0)
(21.4807 0.000382104 0)
(21.4641 0.00036694 0)
(21.4488 0.000352552 0)
(21.4346 0.000338763 0)
(21.4214 0.000325385 0)
(21.4093 0.000312208 0)
(21.398 0.00029898 0)
(21.3876 0.000285397 0)
(21.3781 0.000271088 0)
(21.3694 0.000255603 0)
(21.3615 0.000238399 0)
(21.3545 0.000218826 0)
(21.3483 0.000196115 0)
(21.343 0.000169357 0)
(21.3387 0.000137491 0)
(21.3355 9.92695e-05 0)
(21.3334 5.31614e-05 0)
(21.3326 -3.62837e-06 0)
(21.3332 -7.28628e-05 0)
(21.3355 -0.00015553 0)
(21.3397 -0.00025395 0)
(21.3459 -0.000370507 0)
(21.3544 -0.000507791 0)
(21.3654 -0.000668833 0)
(21.3792 -0.000857345 0)
(21.3962 -0.00107796 0)
(21.4165 -0.00133586 0)
(21.4407 -0.00163753 0)
(21.4691 -0.00198682 0)
(21.5022 -0.0024045 0)
(21.5408 -0.00285245 0)
(21.5842 -0.0035687 0)
(21.6392 -0.00424819 0)
(21.6847 -0.00473931 0)
(21.7281 -0.0051066 0)
(21.7699 -0.00555884 0)
(21.8147 -0.00629828 0)
(21.8623 -0.00704608 0)
(21.9125 -0.00783093 0)
(21.9653 -0.00867598 0)
(22.0208 -0.00959283 0)
(22.079 -0.0105922 0)
(22.14 -0.0116855 0)
(22.2038 -0.0128873 0)
(22.2705 -0.0142145 0)
(22.3403 -0.0156894 0)
(22.4133 -0.0173396 0)
(22.4899 -0.0192033 0)
(22.5703 -0.0213313 0)
(22.6549 -0.0237982 0)
(22.7444 -0.0267107 0)
(22.8396 -0.0302547 0)
(22.9417 -0.0346747 0)
(23.0522 -0.0407551 0)
(23.1759 -0.0488206 0)
(23.309 -0.0656122 0)
(23.4909 -0.0853009 0)
(23.5643 -0.13024 0)
(35.9299 0.123835 0)
(30.2952 0.0400129 0)
(27.7625 0.0165271 0)
(26.4697 0.00932402 0)
(25.6891 0.00628012 0)
(25.1612 0.00466672 0)
(24.7749 0.00369844 0)
(24.4762 0.0030586 0)
(24.2367 0.00259952 0)
(24.0398 0.00225192 0)
(23.8751 0.00198023 0)
(23.7352 0.00176284 0)
(23.615 0.00158537 0)
(23.5107 0.00143784 0)
(23.4193 0.00131324 0)
(23.3388 0.00120667 0)
(23.2675 0.00111467 0)
(23.2038 0.00103468 0)
(23.1469 0.000964624 0)
(23.0957 0.000902771 0)
(23.0494 0.000847697 0)
(23.0075 0.000798308 0)
(22.9695 0.0007538 0)
(22.9348 0.000713582 0)
(22.9032 0.000677182 0)
(22.8742 0.000644176 0)
(22.8476 0.000614157 0)
(22.8232 0.000586729 0)
(22.8007 0.000561518 0)
(22.7799 0.000538182 0)
(22.7607 0.000516418 0)
(22.7429 0.000495957 0)
(22.7264 0.000476553 0)
(22.7112 0.000457965 0)
(22.6971 0.00043994 0)
(22.684 0.000422191 0)
(22.6719 0.00040438 0)
(22.6608 0.000386098 0)
(22.6505 0.000366846 0)
(22.6411 0.000346022 0)
(22.6326 0.000322898 0)
(22.625 0.000296603 0)
(22.6183 0.000266106 0)
(22.6126 0.000230192 0)
(22.6079 0.000187438 0)
(22.6043 0.000136176 0)
(22.6019 7.43667e-05 0)
(22.6009 -1.68778e-06 0)
(22.6014 -9.44689e-05 0)
(22.6036 -0.000205345 0)
(22.6078 -0.000337312 0)
(22.6141 -0.000493565 0)
(22.6228 -0.000677569 0)
(22.6341 -0.00089337 0)
(22.6484 -0.00114591 0)
(22.6659 -0.00144135 0)
(22.687 -0.00178658 0)
(22.712 -0.00219019 0)
(22.7415 -0.00265755 0)
(22.7758 -0.0032152 0)
(22.8159 -0.00381664 0)
(22.8608 -0.00475836 0)
(22.9176 -0.00563461 0)
(22.9641 -0.00631386 0)
(23.009 -0.0068596 0)
(23.0526 -0.0074604 0)
(23.0991 -0.00841658 0)
(23.1484 -0.00940087 0)
(23.2003 -0.0104388 0)
(23.2548 -0.0115573 0)
(23.3121 -0.0127704 0)
(23.372 -0.0140915 0)
(23.4347 -0.015535 0)
(23.5003 -0.0171196 0)
(23.5688 -0.0188666 0)
(23.6403 -0.0208045 0)
(23.7151 -0.0229682 0)
(23.7934 -0.0254061 0)
(23.8754 -0.0281823 0)
(23.9616 -0.0313904 0)
(24.0525 -0.0351642 0)
(24.1488 -0.0397325 0)
(24.2519 -0.0454044 0)
(24.3628 -0.0530863 0)
(24.486 -0.0632433 0)
(24.6174 -0.0828622 0)
(24.7918 -0.104661 0)
(24.861 -0.159711 0)
(37.7771 0.142927 0)
(32.3054 0.0527425 0)
(29.5499 0.0229741 0)
(28.098 0.0129806 0)
(27.2212 0.00867068 0)
(26.6322 0.00639449 0)
(26.2043 0.00503807 0)
(25.8756 0.00414845 0)
(25.6133 0.00351476 0)
(25.3986 0.00303777 0)
(25.2194 0.00266658 0)
(25.0677 0.00237059 0)
(24.9375 0.00212961 0)
(24.8247 0.00192975 0)
(24.7261 0.0017613 0)
(24.6392 0.00161746 0)
(24.5623 0.00149346 0)
(24.4938 0.00138576 0)
(24.4325 0.00129153 0)
(24.3774 0.00120841 0)
(24.3277 0.00113446 0)
(24.2827 0.00106821 0)
(24.2418 0.00100854 0)
(24.2046 0.000954663 0)
(24.1706 0.000905913 0)
(24.1395 0.000861719 0)
(24.1109 0.000821533 0)
(24.0847 0.000784825 0)
(24.0605 0.000751097 0)
(24.0382 0.000719894 0)
(24.0175 0.000690811 0)
(23.9984 0.000663488 0)
(23.9808 0.000637592 0)
(23.9644 0.000612803 0)
(23.9492 0.00058878 0)
(23.9352 0.000565142 0)
(23.9222 0.000541438 0)
(23.9102 0.000517126 0)
(23.8991 0.000491548 0)
(23.889 0.000463908 0)
(23.8799 0.000433245 0)
(23.8716 0.000398411 0)
(23.8644 0.000358048 0)
(23.8581 0.000310554 0)
(23.8529 0.000254055 0)
(23.8489 0.000186355 0)
(23.8462 0.000104781 0)
(23.8448 4.56833e-06 0)
(23.8451 -0.000117759 0)
(23.8472 -0.00026411 0)
(23.8512 -0.000438239 0)
(23.8575 -0.000644354 0)
(23.8663 -0.00088702 0)
(23.8778 -0.00117155 0)
(23.8923 -0.0015044 0)
(23.9102 -0.00189362 0)
(23.9318 -0.00234824 0)
(23.9575 -0.00287943 0)
(23.9877 -0.0034945 0)
(24.0229 -0.00422669 0)
(24.064 -0.00502095 0)
(24.1102 -0.006237 0)
(24.1681 -0.00734956 0)
(24.2153 -0.00826433 0)
(24.2612 -0.00904655 0)
(24.3061 -0.0098411 0)
(24.3539 -0.0110603 0)
(24.4044 -0.0123338 0)
(24.4575 -0.0136819 0)
(24.5133 -0.0151358 0)
(24.5717 -0.0167122 0)
(24.6329 -0.0184276 0)
(24.6968 -0.0202995 0)
(24.7635 -0.0223515 0)
(24.8331 -0.02461 0)
(24.9058 -0.0271105 0)
(24.9816 -0.0298965 0)
(25.0608 -0.0330278 0)
(25.1436 -0.0365837 0)
(25.2305 -0.0406794 0)
(25.3218 -0.0454793 0)
(25.4184 -0.0512584 0)
(25.5214 -0.0583986 0)
(25.6317 -0.0679144 0)
(25.753 -0.0804501 0)
(25.8815 -0.10294 0)
(26.0472 -0.127554 0)
(26.1115 -0.191278 0)
(39.4591 0.16249 0)
(34.3227 0.0680902 0)
(31.3826 0.0315033 0)
(29.763 0.0179431 0)
(28.7778 0.0119137 0)
(28.1185 0.00872349 0)
(27.6426 0.00683144 0)
(27.2792 0.00559874 0)
(26.9908 0.00472698 0)
(26.7558 0.00407482 0)
(26.5603 0.00356971 0)
(26.3951 0.00316844 0)
(26.2537 0.00284274 0)
(26.1314 0.00257333 0)
(26.0246 0.00234676 0)
(25.9308 0.00215368 0)
(25.8477 0.00198749 0)
(25.7738 0.00184334 0)
(25.7077 0.00171734 0)
(25.6483 0.00160631 0)
(25.5947 0.00150764 0)
(25.5462 0.00141933 0)
(25.5022 0.00133987 0)
(25.4621 0.00126815 0)
(25.4255 0.0012033 0)
(25.392 0.00114453 0)
(25.3613 0.0010911 0)
(25.3331 0.00104231 0)
(25.3071 0.000997498 0)
(25.2831 0.000956068 0)
(25.2609 0.00091748 0)
(25.2404 0.000881255 0)
(25.2213 0.000846953 0)
(25.2037 0.000814146 0)
(25.1874 0.000782382 0)
(25.1723 0.000751159 0)
(25.1582 0.000719884 0)
(25.1453 0.000687847 0)
(25.1334 0.000654191 0)
(25.1225 0.000617875 0)
(25.1126 0.000577651 0)
(25.1036 0.000532025 0)
(25.0957 0.000479229 0)
(25.0889 0.000417182 0)
(25.0832 0.000343449 0)
(25.0786 0.000255178 0)
(25.0755 0.00014891 0)
(25.0737 1.86652e-05 0)
(25.0737 -0.000140409 0)
(25.0754 -0.000331 0)
(25.0793 -0.000557666 0)
(25.0854 -0.000825879 0)
(25.0941 -0.00114156 0)
(25.1056 -0.00151159 0)
(25.1203 -0.00194431 0)
(25.1383 -0.00245005 0)
(25.1602 -0.00304045 0)
(25.1862 -0.00372985 0)
(25.2169 -0.00452808 0)
(25.2527 -0.00547592 0)
(25.2944 -0.00651013 0)
(25.3414 -0.00805672 0)
(25.3999 -0.0094528 0)
(25.4473 -0.0106568 0)
(25.4938 -0.0117429 0)
(25.5395 -0.0127886 0)
(25.5881 -0.0143262 0)
(25.6394 -0.0159514 0)
(25.6933 -0.0176765 0)
(25.7498 -0.0195381 0)
(25.8089 -0.0215557 0)
(25.8707 -0.0237493 0)
(25.9353 -0.0261403 0)
(26.0025 -0.0287573 0)
(26.0726 -0.0316328 0)
(26.1457 -0.0348103 0)
(26.2218 -0.0383429 0)
(26.3012 -0.0423036 0)
(26.3841 -0.0467886 0)
(26.4709 -0.051937 0)
(26.5619 -0.0579472 0)
(26.6579 -0.0651433 0)
(26.7598 -0.0739857 0)
(26.8685 -0.0855771 0)
(26.9868 -0.100773 0)
(27.1114 -0.126136 0)
(27.2672 -0.154238 0)
(27.3259 -0.223855 0)
(40.9464 0.181862 0)
(36.3286 0.0860766 0)
(33.2689 0.042604 0)
(31.4806 0.0246447 0)
(30.3753 0.0163181 0)
(29.6354 0.0118746 0)
(29.1038 0.00924317 0)
(28.7002 0.00753771 0)
(28.3816 0.00633976 0)
(28.1229 0.00544919 0)
(27.9086 0.00476287 0)
(27.728 0.00421983 0)
(27.5738 0.00378053 0)
(27.4406 0.00341819 0)
(27.3246 0.00311423 0)
(27.2227 0.00285576 0)
(27.1327 0.0026337 0)
(27.0526 0.00244137 0)
(26.9811 0.00227348 0)
(26.9169 0.0021257 0)
(26.8589 0.00199453 0)
(26.8066 0.00187724 0)
(26.759 0.00177183 0)
(26.7158 0.00167677 0)
(26.6763 0.00159086 0)
(26.6402 0.00151303 0)
(26.607 0.0014423 0)
(26.5766 0.00137774 0)
(26.5485 0.00131848 0)
(26.5226 0.00126372 0)
(26.4987 0.00121275 0)
(26.4765 0.00116496 0)
(26.456 0.00111975 0)
(26.437 0.00107655 0)
(26.4194 0.00103478 0)
(26.403 0.000993782 0)
(26.3879 0.000952778 0)
(26.3739 0.00091085 0)
(26.361 0.00086689 0)
(26.3492 0.000819557 0)
(26.3384 0.000767243 0)
(26.3287 0.000708027 0)
(26.32 0.000639637 0)
(26.3125 0.000559399 0)
(26.3061 0.000464187 0)
(26.301 0.000350343 0)
(26.2973 0.000213441 0)
(26.2951 4.61622e-05 0)