/*--------------------------------*- C++ -*----------------------------------*\
  =========                 |
  \\      /  F ield         | OpenFOAM: The Open Source CFD Toolbox
   \\    /   O peration     | Website:  https://openfoam.org
    \\  /    A nd           | Version:  8
     \\/     M anipulation  |
\*---------------------------------------------------------------------------*/
FoamFile
{
    version     2.0;
    format      ascii;
    class       volScalarField;
    location    "140";
    object      p;
}
// * * * * * * * * * * * * * * * * * * * * * * * * * * * * * * * * * * * * * //

dimensions      [0 2 -2 0 0 0 0];

internalField   nonuniform List<scalar> 
404911
(
0.839184
0.836594
0.833935
0.820901
0.841704
0.836844
0.833046
0.829419
0.825366
0.822959
0.850951
0.849738
0.848431
0.843365
0.841148
0.838146
0.857456
0.854968
0.853009
0.850877
0.862516
0.8608
0.858446
0.867687
0.865063
0.86152
0.875365
0.869488
0.867557
0.885715
0.880908
0.877607
0.872587
0.872393
0.891414
0.886908
0.883593
0.902792
0.898591
0.895236
0.893074
0.910486
0.906974
0.904332
0.900195
0.895074
0.913332
0.910947
0.908968
0.905213
0.920047
0.918055
0.914272
0.911604
0.921003
0.920599
0.938987
0.837526
0.843674
0.838925
0.84999
0.846455
0.857472
0.85505
0.852598
0.862612
0.860661
0.858966
0.868157
0.865136
0.875028
0.871745
0.869231
0.881417
0.878961
0.878548
0.873952
0.889709
0.886735
0.898125
0.894851
0.906311
0.903632
0.900925
0.913026
0.910087
0.920125
0.916833
0.915059
0.921135
0.919752
0.935014
0.941591
0.938812
0.950911
0.946216
0.943925
0.959531
0.955674
0.951678
0.969442
0.964829
0.961448
0.970121
0.342045
0.333123
0.326986
0.362407
0.366252
0.351597
0.355329
0.346812
0.337282
0.327213
0.32483
0.381836
0.372546
0.363852
0.363521
0.35783
0.352182
0.342334
0.33745
0.32103
0.400591
0.394749
0.391217
0.384558
0.378449
0.374625
0.373851
0.369235
0.362953
0.357344
0.351947
0.346681
0.334962
0.311232
0.313915
0.311883
0.413856
0.409113
0.404184
0.398911
0.393478
0.387994
0.381895
0.377057
0.372843
0.374873
0.369021
0.361392
0.357849
0.346676
0.317501
0.430575
0.423104
0.418031
0.411726
0.406197
0.401473
0.397546
0.392173
0.386023
0.381089
0.375523
0.371582
0.371569
0.361707
0.355047
0.439729
0.435044
0.429411
0.422646
0.416134
0.409826
0.403635
0.400827
0.396251
0.390776
0.384918
0.382642
0.377805
0.372253
0.36535
0.36293
0.455711
0.4481
0.441988
0.436778
0.433006
0.426817
0.421459
0.415786
0.408538
0.404633
0.399843
0.394247
0.388581
0.385046
0.380568
0.375635
0.369822
0.473097
0.468009
0.463035
0.45681
0.451133
0.444616
0.438508
0.433746
0.428006
0.422933
0.420633
0.412509
0.408133
0.402891
0.397643
0.39182
0.389095
0.385468
0.483442
0.480337
0.473826
0.467702
0.460757
0.454625
0.448757
0.442463
0.437452
0.430534
0.425866
0.422659
0.414831
0.411134
0.406752
0.400796
0.397695
0.392878
0.500455
0.493627
0.489437
0.485266
0.479863
0.472612
0.465321
0.45869
0.452179
0.446679
0.440935
0.436297
0.431909
0.428755
0.421395
0.414656
0.410606
0.405671
0.511411
0.506283
0.500165
0.494128
0.489337
0.484559
0.477691
0.472804
0.467337
0.457748
0.450917
0.446193
0.441923
0.438284
0.435347
0.427529
0.414618
0.527264
0.520848
0.514794
0.510349
0.504704
0.497698
0.492817
0.490039
0.483582
0.478475
0.47241
0.464551
0.45699
0.450596
0.446064
0.440421
0.437219
0.539763
0.533642
0.529399
0.526188
0.520803
0.515221
0.508538
0.502842
0.496974
0.496221
0.490979
0.482809
0.475519
0.467925
0.462692
0.456434
0.450498
0.445185
0.546007
0.543251
0.542869
0.53756
0.532826
0.530249
0.523353
0.51745
0.51167
0.506791
0.502527
0.498602
0.493332
0.486859
0.47927
0.470176
0.466808
0.462959
0.558606
0.552273
0.549647
0.548612
0.545644
0.538737
0.534585
0.533076
0.527313
0.520703
0.512756
0.507872
0.508449
0.505417
0.498708
0.490707
0.484849
0.476713
0.569896
0.563538
0.557353
0.552604
0.55044
0.54602
0.539335
0.535485
0.534034
0.530899
0.522558
0.51288
0.508332
0.509346
0.509196
0.505008
0.493857
0.487158
0.583961
0.579203
0.573025
0.56705
0.561178
0.555204
0.552041
0.549296
0.542596
0.538335
0.536886
0.534189
0.527499
0.517442
0.509979
0.50916
0.509444
0.502374
0.592427
0.586299
0.582213
0.577527
0.570411
0.563257
0.559593
0.554278
0.550263
0.546311
0.54233
0.54027
0.537358
0.53185
0.52426
0.516599
0.51522
0.512581
0.600311
0.598591
0.59648
0.591119
0.585386
0.580656
0.574464
0.56823
0.562066
0.55796
0.552581
0.548592
0.543894
0.540856
0.53986
0.535562
0.528321
0.521319
0.609492
0.604114
0.604557
0.603364
0.596094
0.590013
0.584661
0.578956
0.572339
0.566039
0.56246
0.556686
0.552714
0.547269
0.543074
0.541136
0.535649
0.616228
0.611932
0.610024
0.607604
0.60658
0.605799
0.599037
0.593458
0.589067
0.584291
0.577834
0.571579
0.567136
0.561456
0.558
0.553569
0.548965
0.544477
0.621582
0.61892
0.616688
0.613189
0.609678
0.607948
0.606341
0.602638
0.596335
0.591733
0.58776
0.582791
0.57611
0.570734
0.566128
0.562327
0.558259
0.554882
0.627039
0.624354
0.621972
0.620169
0.61647
0.611765
0.610076
0.608837
0.604998
0.600874
0.595813
0.591103
0.587752
0.581586
0.575824
0.573555
0.565454
0.56571
0.635645
0.630772
0.629451
0.627536
0.625877
0.624112
0.620786
0.615814
0.612382
0.610552
0.606218
0.601862
0.597093
0.594283
0.590568
0.585245
0.579165
0.574749
0.640313
0.637868
0.636902
0.635315
0.632342
0.630239
0.630366
0.627799
0.62535
0.620776
0.616769
0.613898
0.609398
0.605415
0.600724
0.597008
0.592411
0.589096
0.646948
0.642543
0.64115
0.639012
0.636341
0.63371
0.632677
0.634663
0.632713
0.627033
0.624319
0.621581
0.617975
0.613329
0.609771
0.605359
0.60189
0.598233
0.654072
0.650813
0.648429
0.646015
0.643125
0.641048
0.638645
0.635655
0.633943
0.635181
0.640788
0.634799
0.629463
0.62515
0.622473
0.617636
0.609838
0.614071
0.657798
0.65749
0.65429
0.651434
0.648901
0.64642
0.643773
0.641192
0.638374
0.635566
0.633433
0.635023
0.636191
0.633469
0.628858
0.625839
0.620884
0.620242
0.663057
0.661511
0.659967
0.657196
0.65466
0.652226
0.64963
0.64657
0.64389
0.641332
0.63818
0.635279
0.633765
0.633585
0.632073
0.629764
0.627668
0.623882
0.666514
0.665163
0.664519
0.662026
0.659866
0.657682
0.655684
0.652289
0.649232
0.646657
0.644271
0.641697
0.638538
0.635983
0.633732
0.632547
0.631317
0.630443
0.671373
0.671318
0.668196
0.66637
0.666518
0.664087
0.661877
0.660294
0.659497
0.655525
0.652374
0.649711
0.647485
0.645556
0.642795
0.640171
0.637333
0.633413
0.679873
0.676075
0.672874
0.67056
0.66851
0.666854
0.664766
0.662731
0.661691
0.661582
0.659174
0.655808
0.652945
0.650578
0.648473
0.646525
0.644441
0.643189
0.686144
0.682882
0.680269
0.677513
0.674161
0.671306
0.668636
0.66654
0.664552
0.663404
0.662144
0.660719
0.658638
0.656155
0.653654
0.651739
0.651236
0.649035
0.688977
0.689497
0.687112
0.683765
0.681367
0.678367
0.674919
0.670939
0.669168
0.667123
0.665115
0.663755
0.662826
0.661445
0.658836
0.656324
0.65564
0.697349
0.693692
0.693907
0.692765
0.690537
0.687086
0.684876
0.682573
0.678664
0.673902
0.672244
0.67013
0.667584
0.66578
0.664931
0.663174
0.661304
0.657794
0.702052
0.698651
0.69737
0.697109
0.696582
0.694066
0.688929
0.686877
0.685941
0.682018
0.677018
0.675331
0.673437
0.670805
0.668757
0.667236
0.666381
0.666206
0.704038
0.70336
0.700783
0.699246
0.69887
0.700294
0.698467
0.692327
0.688598
0.688328
0.685519
0.682007
0.678999
0.6769
0.674422
0.672659
0.672665
0.671031
0.712845
0.708527
0.7069
0.705434
0.703377
0.701413
0.7
0.700609
0.702182
0.695115
0.691814
0.690932
0.689666
0.685655
0.682432
0.67991
0.677591
0.676276
0.716718
0.713982
0.712818
0.710222
0.708298
0.706429
0.704546
0.702313
0.700818
0.703882
0.697584
0.693186
0.692401
0.691425
0.689137
0.686257
0.683738
0.680087
0.721615
0.719367
0.717086
0.715296
0.713691
0.712031
0.710656
0.709379
0.706517
0.703637
0.705379
0.700759
0.697216
0.695681
0.694124
0.691787
0.689891
0.687304
0.723335
0.726002
0.72277
0.720084
0.718397
0.716935
0.715717
0.715114
0.71461
0.711578
0.707967
0.709032
0.704952
0.701933
0.699367
0.697304
0.696083
0.692995
0.732334
0.730596
0.727946
0.726183
0.723675
0.721542
0.719724
0.718494
0.718259
0.719349
0.716075
0.713207
0.712438
0.708697
0.705719
0.703173
0.70038
0.740208
0.735095
0.735533
0.73319
0.731043
0.729537
0.727825
0.725142
0.722321
0.720246
0.719827
0.722116
0.724016
0.719882
0.715832
0.712723
0.709575
0.707733
0.743297
0.741361
0.739699
0.738266
0.736185
0.734698
0.73344
0.732287
0.728415
0.72477
0.721958
0.720388
0.72125
0.725104
0.724812
0.719551
0.716589
0.713486
0.749931
0.746892
0.744553
0.742428
0.740336
0.738413
0.737288
0.736722
0.737106
0.731327
0.727818
0.724648
0.72248
0.722086
0.722784
0.722986
0.720927
0.718403
0.755018
0.752733
0.75004
0.747478
0.745431
0.742976
0.740812
0.739322
0.738441
0.739368
0.736481
0.73218
0.728872
0.726345
0.724863
0.72434
0.723385
0.722277
0.762325
0.75838
0.756421
0.753415
0.751049
0.748722
0.746144
0.743609
0.741608
0.740532
0.739995
0.738665
0.736405
0.733746
0.731076
0.728671
0.728113
0.725029
0.768137
0.766886
0.764023
0.761024
0.757948
0.75525
0.752545
0.749723
0.74688
0.744417
0.742682
0.741787
0.741134
0.739895
0.737864
0.735364
0.733944
0.731847
0.771901
0.771955
0.771048
0.768726
0.765377
0.762191
0.759222
0.756027
0.752965
0.750285
0.747575
0.7454
0.743969
0.743457
0.742714
0.741054
0.739159
0.736816
0.776046
0.774273
0.77504
0.775077
0.772374
0.768436
0.765253
0.762258
0.758703
0.754972
0.752406
0.750518
0.748412
0.746771
0.746037
0.744932
0.744106
0.743752
0.781681
0.779651
0.777131
0.776662
0.776144
0.777563
0.77712
0.77091
0.767362
0.76501
0.762525
0.75837
0.755089
0.753646
0.751793
0.750249
0.748892
0.748533
0.747505
0.78766
0.785925
0.783537
0.781548
0.777567
0.776112
0.776448
0.78021
0.774089
0.769493
0.766993
0.765835
0.762469
0.75949
0.757371
0.755235
0.753752
0.753266
0.791824
0.789213
0.785822
0.782629
0.779678
0.777566
0.777308
0.779667
0.776924
0.772496
0.769481
0.767611
0.765982
0.763751
0.761165
0.759373
0.758946
0.798814
0.796126
0.795045
0.792462
0.789817
0.786774
0.783835
0.781203
0.779554
0.780999
0.779414
0.776332
0.773281
0.7705
0.768826
0.766812
0.764678
0.762541
0.805788
0.802125
0.800553
0.798042
0.796025
0.793834
0.791174
0.78812
0.785646
0.784743
0.78455
0.781865
0.779799
0.777337
0.774611
0.772197
0.770044
0.766544
0.810528
0.809215
0.80606
0.803459
0.801491
0.7996
0.797782
0.795229
0.790973
0.789033
0.789229
0.788359
0.785546
0.783468
0.780501
0.777908
0.775582
0.774231
0.813956
0.811863
0.809328
0.807051
0.80502
0.80311
0.80159
0.799209
0.79409
0.790989
0.791289
0.78951
0.787582
0.785518
0.78318
0.781151
0.778995
0.821891
0.817959
0.814799
0.812805
0.810545
0.80816
0.806058
0.804683
0.802789
0.797677
0.794092
0.793045
0.791374
0.789572
0.787868
0.786232
0.783947
0.825764
0.82532
0.824781
0.821287
0.818826
0.816267
0.813716
0.810764
0.808284
0.806397
0.805344
0.801259
0.797901
0.796044
0.794196
0.79254
0.791051
0.789248
0.830021
0.829313
0.827598
0.826734
0.82442
0.821951
0.819373
0.816817
0.813825
0.809863
0.807067
0.805992
0.803804
0.801188
0.799226
0.797016
0.796666
0.837728
0.835176
0.831847
0.830155
0.828523
0.826356
0.82385
0.821615
0.819986
0.817636
0.813111
0.809487
0.807553
0.805933
0.803877
0.802012
0.800074
0.847744
0.844429
0.841736
0.838663
0.835193
0.832583
0.830235
0.828153
0.825285
0.82354
0.821694
0.819681
0.816752
0.813431
0.810394
0.807964
0.806413
0.804479
0.852211
0.849672
0.84712
0.844424
0.841371
0.838315
0.834973
0.831731
0.829135
0.826892
0.825765
0.823621
0.82062
0.818491
0.816499
0.813861
0.812091
0.810018
0.855754
0.853871
0.851542
0.849323
0.846341
0.843145
0.840232
0.837744
0.834641
0.832115
0.829882
0.82797
0.826231
0.824311
0.82102
0.818981
0.817799
0.815989
0.862294
0.859954
0.857171
0.853394
0.850961
0.848267
0.845261
0.842307
0.839628
0.837988
0.83583
0.833609
0.831609
0.829688
0.828047
0.824964
0.822703
0.822309
0.868688
0.866192
0.863913
0.863174
0.859255
0.855248
0.852641
0.850421
0.848427
0.845139
0.842592
0.840443
0.838493
0.836275
0.833971
0.83214
0.829501
0.826591
0.825368
0.875308
0.871277
0.868972
0.866852
0.864777
0.86117
0.858022
0.855235
0.852627
0.85063
0.847702
0.844145
0.84145
0.839545
0.837293
0.834958
0.833761
0.830755
0.829828
0.874286
0.874712
0.871961
0.869492
0.866684
0.863579
0.861373
0.857721
0.854183
0.851994
0.849413
0.846458
0.843927
0.84196
0.839779
0.837883
0.836208
0.834968
0.882998
0.88123
0.878629
0.875281
0.872822
0.87041
0.867662
0.864509
0.861215
0.857507
0.854725
0.852432
0.849918
0.847398
0.845176
0.843226
0.841613
0.892776
0.888424
0.885799
0.881814
0.878368
0.876034
0.873714
0.871706
0.868074
0.864256
0.860937
0.858891
0.855993
0.853735
0.851554
0.84965
0.844817
0.903126
0.896819
0.892634
0.889377
0.885426
0.882788
0.880057
0.87675
0.87455
0.871417
0.867462
0.864844
0.862687
0.860085
0.857408
0.855589
0.853503
0.912454
0.911278
0.907585
0.901541
0.896843
0.893807
0.890339
0.887454
0.883874
0.880505
0.877928
0.875505
0.871602
0.869239
0.866542
0.863888
0.861873
0.861484
0.91891
0.91757
0.91636
0.912329
0.906845
0.902699
0.8998
0.896661
0.89281
0.888445
0.884847
0.882198
0.87977
0.876676
0.873215
0.870754
0.86876
0.923696
0.922622
0.920396
0.918206
0.915323
0.910793
0.907614
0.90393
0.901028
0.897483
0.892589
0.888144
0.885232
0.882397
0.880034
0.87668
0.873738
0.930197
0.92823
0.925961
0.923399
0.919987
0.917094
0.91409
0.911157
0.907531
0.903828
0.900566
0.896476
0.892225
0.888361
0.885645
0.883539
0.88122
0.937906
0.935004
0.932002
0.928561
0.926078
0.922679
0.920835
0.918092
0.914471
0.910662
0.907119
0.903585
0.90031
0.89662
0.892831
0.890835
0.887374
0.944803
0.941894
0.938564
0.935625
0.932427
0.929056
0.926701
0.924192
0.9213
0.918326
0.915544
0.912026
0.908646
0.905299
0.901686
0.898126
0.896153
0.95255
0.948546
0.945231
0.942086
0.939147
0.936408
0.932787
0.92958
0.927138
0.924601
0.92267
0.92007
0.916757
0.913319
0.910045
0.907889
0.903416
0.95586
0.952651
0.949595
0.945894
0.942609
0.939925
0.93704
0.934858
0.931275
0.928129
0.925968
0.923508
0.920799
0.91791
0.916933
0.912245
0.963992
0.961296
0.956414
0.95396
0.95055
0.947139
0.943351
0.940753
0.938891
0.936548
0.932831
0.92937
0.926658
0.924274
0.922403
0.973801
0.972584
0.969442
0.965111
0.960528
0.958221
0.955221
0.952054
0.948113
0.943706
0.941148
0.939126
0.936796
0.933848
0.931151
0.928151
0.982125
0.982038
0.978865
0.975074
0.971253
0.967403
0.963177
0.959997
0.956387
0.952865
0.948695
0.944699
0.941183
0.939558
0.938421
0.935575
0.994548
0.991925
0.989627
0.982765
0.978927
0.975326
0.972848
0.969145
0.964819
0.961542
0.958393
0.955625
0.949748
0.9453
0.944423
0.942157
1.0133
1.00536
1.00091
0.998082
0.996331
0.989567
0.983952
0.978736
0.974055
0.972152
0.970006
0.965491
0.960763
0.959495
0.954226
0.949937
1.02269
1.01984
1.01496
1.00804
1.00224
0.999644
0.994381
0.989324
0.984952
0.98035
0.979062
0.977204
0.972622
0.966303
0.961147
0.959824
1.039
1.03121
1.02514
1.02111
1.01462
1.00751
1.00439
0.997344
0.991835
0.987146
0.981158
0.983624
0.986465
0.98427
0.97537
0.9668
1.05495
1.04678
1.03744
1.02942
1.02546
1.0221
1.01577
1.01052
1.00347
0.997441
0.991775
0.985337
0.984355
0.987452
0.988222
0.980128
1.0663
1.06042
1.0534
1.04498
1.03757
1.03098
1.02684
1.02022
1.01612
1.00965
1.00409
0.997877
0.993551
0.989868
0.987763
0.987272
1.076
1.07201
1.0669
1.05903
1.05176
1.04484
1.03688
1.03204
1.0264
1.02013
1.0139
1.00917
1.00611
1.00064
0.998266
1.08772
1.08281
1.077
1.07068
1.06608
1.05893
1.05313
1.04451
1.03803
1.03264
1.02779
1.01931
1.01376
1.01217
1.00939
1.00481
1.09937
1.09343
1.08864
1.08379
1.077
1.07007
1.06524
1.06207
1.05311
1.04472
1.0395
1.03586
1.02918
1.02287
1.01946
1.01838
1.10832
1.10373
1.09879
1.09398
1.08959
1.08247
1.07447
1.06841
1.06373
1.05822
1.05032
1.0437
1.04046
1.03648
1.02849
1.11285
1.10835
1.10243
1.09834
1.0921
1.08763
1.08051
1.07442
1.0692
1.06432
1.05677
1.05107
1.04643
1.04213
1.12275
1.1195
1.11504
1.10712
1.10142
1.09061
1.09122
1.08617
1.07846
1.0737
1.07004
1.06344
1.05992
1.13773
1.13212
1.12803
1.12478
1.12244
1.1145
1.1073
1.10381
1.0972
1.09168
1.08523
1.07906
1.07503
1.06707
1.15325
1.14483
1.13888
1.13342
1.13108
1.12782
1.12123
1.11482
1.10924
1.10316
1.09745
1.09176
1.08747
1.08374
1.16859
1.1609
1.15311
1.14612
1.14051
1.13896
1.1342
1.12605
1.11868
1.11429
1.10903
1.10373
1.0989
1.09572
1.18365
1.17585
1.1675
1.15945
1.15132
1.14896
1.14674
1.13843
1.13225
1.12568
1.12146
1.114
1.10991
1.10818
1.19614
1.18839
1.18203
1.17394
1.16421
1.15174
1.15895
1.15502
1.14761
1.13894
1.13257
1.12785
1.12378
1.11665
1.20877
1.20127
1.19143
1.18679
1.17891
1.17323
1.15934
1.16819
1.16709
1.15906
1.1459
1.13868
1.13716
1.19092
1.18476
1.17616
1.16775
1.16352
1.16555
1.16177
1.151
1.14251
1.19278
1.18587
1.18003
1.1696
1.1656
1.16367
1.16296
1.15508
1.20958
1.19714
1.18986
1.18737
1.17672
1.16861
1.16711
1.22058
1.21625
1.20704
1.19611
1.1892
1.17939
1.17181
1.22176
1.21537
1.20565
1.19714
1.19088
1.23645
1.23197
1.22435
1.22355
1.2155
1.20663
1.24989
1.2478
1.23612
1.23576
1.22296
1.25458
1.25462
1.24977
1.24249
1.23859
1.21664
1.26798
1.2491
1.23934
1.23993
1.24141
1.27871
1.27374
1.25414
0.0464027
0.0524524
0.069255
0.129201
0.106708
0.0905884
0.0875221
0.0724747
0.0553122
0.0323903
0.0810418
0.0103205
0.1693
0.162769
0.141825
0.144256
0.129349
0.116468
0.110746
0.0948435
0.0794383
0.0705675
0.0394735
0.0447316
0.0349063
0.00264656
0.00857463
0.190713
0.18439
0.187064
0.175004
0.173682
0.154471
0.146764
0.142524
0.127591
0.113603
0.0977787
0.0746943
0.0732539
0.0644004
0.0545253
0.047175
0.027879
0.0019114
0.0206648
-0.00395236
0.00448143
0.0307365
0.213773
0.21304
0.208271
0.20112
0.189818
0.186582
0.181814
0.172605
0.164428
0.155432
0.146512
0.136761
0.12074
0.0994596
0.0691547
0.0932396
0.0766413
0.0722509
0.0587416
0.0429111
0.0282529
0.00885256
-0.0033306
0.241536
0.225585
0.225474
0.219194
0.219606
0.209936
0.202232
0.196142
0.191334
0.185053
0.176998
0.16903
0.159509
0.152411
0.136656
0.126936
0.106284
0.109334
0.0905294
0.0856743
0.077587
0.0655743
0.0512154
0.0376682
0.0241452
0.254218
0.246855
0.243178
0.23232
0.224579
0.218839
0.217536
0.213041
0.202787
0.194908
0.191941
0.187665
0.18251
0.173391
0.163028
0.155395
0.146648
0.134549
0.119067
0.110699
0.0948671
0.0912212
0.0832751
0.0724569
0.0583482
0.261886
0.256506
0.253134
0.249701
0.242326
0.232904
0.224715
0.22533
0.222845
0.215717
0.203465
0.194585
0.19202
0.190851
0.193987
0.185478
0.166127
0.15878
0.152179
0.141401
0.127478
0.12002
0.107777
0.0975322
0.0849662
0.275083
0.271406
0.266733
0.261925
0.256059
0.251746
0.245325
0.237513
0.223984
0.222389
0.218445
0.212272
0.205668
0.197968
0.193528
0.194963
0.196002
0.193957
0.173842
0.163694
0.156843
0.146125
0.137546
0.123471
0.109584
0.287224
0.277872
0.276803
0.278191
0.275436
0.269716
0.264233
0.259301
0.255056
0.250093
0.239943
0.225582
0.220538
0.217522
0.209859
0.203712
0.198245
0.195994
0.194995
0.194879
0.196385
0.177968
0.167161
0.162873
0.152292
0.139194
0.305044
0.300175
0.295286
0.289087
0.285463
0.2832
0.280964
0.276187
0.272019
0.267644
0.262651
0.257585
0.250734
0.242231
0.23161
0.222636
0.214078
0.206878
0.203304
0.193477
0.193934
0.197171
0.195194
0.187821
0.182972
0.174018
0.170721
0.311134
0.307387
0.303268
0.297941
0.292448
0.287641
0.282869
0.282061
0.278117
0.275324
0.270866
0.265963
0.260198
0.254737
0.244669
0.236778
0.22737
0.217533
0.209439
0.206524
0.204206
0.197592
0.202867
0.200998
0.190795
0.327814
0.327984
0.321927
0.317902
0.31028
0.305101
0.300712
0.293437
0.28904
0.286465
0.284426
0.279623
0.275815
0.272272
0.268411
0.264858
0.258823
0.24799
0.24122
0.232432
0.222352
0.215655
0.213226
0.210306
0.214849
0.33251
0.328871
0.325549
0.324365
0.321279
0.310785
0.307048
0.30214
0.295122
0.288801
0.287768
0.286281
0.280139
0.276099
0.273647
0.270341
0.267371
0.261179
0.25168
0.245439
0.237262
0.228727
0.222785
0.217191
0.34803
0.345351
0.338758
0.336894
0.330232
0.3261
0.328364
0.32635
0.317357
0.309693
0.303439
0.297794
0.291705
0.2876
0.286633
0.281175
0.276707
0.274924
0.272445
0.268729
0.263646
0.255811
0.250931
0.245292
0.232745
0.365466
0.356862
0.350803
0.348746
0.34347
0.337885
0.330024
0.326039
0.327688
0.331948
0.323223
0.313197
0.305522
0.298854
0.294705
0.292066
0.28733
0.283437
0.280871
0.27879
0.276558
0.272529
0.264773
0.260249
0.254102
0.378322
0.371914
0.366551
0.361461
0.357028
0.352926
0.349181
0.341338
0.332567
0.32513
0.325794
0.331562
0.328527
0.316643
0.306279
0.300855
0.295109
0.293022
0.289459
0.285876
0.281871
0.278866
0.277539
0.275864
0.271331
0.393682
0.388141
0.387123
0.382471
0.376127
0.370784
0.364608
0.363056
0.357347
0.353083
0.345975
0.337896
0.329401
0.324498
0.325435
0.330281
0.320092
0.309804
0.303751
0.29706
0.292909
0.291304
0.287854
0.28317
0.279332
0.277623
0.405249
0.406131
0.399451
0.395516
0.391063
0.385041
0.379464
0.37401
0.370307
0.367995
0.36121
0.357003
0.35152
0.345727
0.337692
0.325919
0.318045
0.31916
0.319604
0.313772
0.302927
0.299307
0.296413
0.294047
0.290459
0.285723
0.427893
0.416004
0.409804
0.408869
0.403992
0.397738
0.392945
0.38803
0.382636
0.377527
0.374212
0.372307
0.366431
0.362294
0.357185
0.352015
0.34538
0.332872
0.318403
0.314359
0.314017
0.310338
0.303833
0.301645
0.299038
0.296126
0.293329
0.437594
0.435162
0.429297
0.422797
0.416873
0.411741
0.406443
0.400674
0.395406
0.390629
0.385613
0.380877
0.377238
0.373992
0.370118
0.366387
0.36148
0.355766
0.352537
0.344479
0.32612
0.320763
0.317556
0.312012
0.305094
0.302314
0.300964
0.450141
0.444309
0.439505
0.434156
0.427717
0.421766
0.415299
0.408871
0.402669
0.397511
0.393472
0.388812
0.384277
0.380314
0.376459
0.372467
0.368445
0.363474
0.358521
0.356364
0.351857
0.339537
0.329683
0.323352
0.317419
0.309499
0.467311
0.457471
0.454124
0.449005
0.44379
0.438447
0.432396
0.425385
0.418316
0.411419
0.404565
0.399607
0.396497
0.392703
0.387833
0.383689
0.38
0.376006
0.371285
0.36512
0.359406
0.356009
0.354115
0.346244
0.337212
0.329266
0.476757
0.469426
0.468633
0.46376
0.458691
0.453581
0.447928
0.441531
0.435142
0.428915
0.42237
0.415668
0.408851
0.402729
0.399912
0.396241
0.391412
0.387214
0.383702
0.379781
0.374475
0.368342
0.361184
0.356213
0.354246
0.347654
0.487654
0.482029
0.47674
0.472277
0.468293
0.463496
0.457421
0.45115
0.444867
0.4388
0.432871
0.426772
0.420201
0.413605
0.407973
0.403756
0.399437
0.394841
0.391031
0.387492
0.383348
0.378574
0.372846
0.36751
0.363119
0.503986
0.499933
0.494238
0.488078
0.482486
0.478455
0.472797
0.466968
0.461382
0.455367
0.449185
0.443237
0.437371
0.431296
0.424832
0.418291
0.412843
0.4081
0.403575
0.399146
0.395437
0.39196
0.387498
0.382717
0.379868
0.374669
0.519685
0.515117
0.50926
0.504931
0.49951
0.49358
0.488357
0.484042
0.477747
0.471617
0.465926
0.459892
0.453696
0.447655
0.441742
0.436182
0.430825
0.424559
0.417489
0.412707
0.408663
0.404589
0.399284
0.395018
0.39279
0.390137
0.533643
0.526982
0.524919
0.52003
0.5143
0.509821
0.504775
0.498818
0.493347
0.488648
0.482748
0.476996
0.471079
0.464929
0.458789
0.452665
0.446427
0.440524
0.435869
0.431145
0.423678
0.417631
0.414136
0.409708
0.405554
0.402331
0.397721
0.539653
0.536392
0.533733
0.530146
0.525274
0.520015
0.515136
0.509941
0.503539
0.497754
0.492805
0.487531
0.482082
0.476138
0.4699
0.464089
0.458177
0.451793
0.445406
0.439759
0.435716
0.430358
0.424533
0.419426
0.414836
0.412561
0.549621
0.546877
0.544386
0.541313
0.538612
0.53413
0.529564
0.525269
0.520043
0.514156
0.507625
0.502153
0.497762
0.492841
0.486843
0.48058
0.474258
0.468373
0.46341
0.457031
0.451174
0.445762
0.440686
0.435596
0.427415
0.426546
0.556577
0.553905
0.550686
0.547264
0.545782
0.541991
0.535738
0.532381
0.529447
0.524365
0.517443
0.510605
0.50633
0.503012
0.497922
0.491053
0.484874
0.478516
0.471516
0.466813
0.462041
0.456284
0.44971
0.447871
0.441232
0.572434
0.56753
0.562474
0.557163
0.553762
0.55064
0.548904
0.544877
0.537806
0.534742
0.532502
0.52774
0.52032
0.513285
0.509321
0.507304
0.502872
0.495074
0.489077
0.483925
0.477611
0.472623
0.467813
0.462492
0.453738
0.583012
0.57855
0.573369
0.567823
0.561831
0.557048
0.553608
0.551582
0.547628
0.540302
0.536694
0.534242
0.529869
0.522782
0.515109
0.510344
0.508282
0.50698
0.50083
0.494507
0.489087
0.483931
0.479364
0.475174
0.473333
0.593265
0.590726
0.588063
0.583182
0.578344
0.572187
0.566017
0.560565
0.556648
0.553832
0.549919
0.543951
0.540083
0.537269
0.532612
0.525778
0.51705
0.512124
0.509552
0.507584
0.503588
0.498079
0.49207
0.489463
0.484695
0.601777
0.597283
0.595622
0.592524
0.58728
0.581999
0.576452
0.569681
0.563662
0.559215
0.555334
0.551456
0.547219
0.543789
0.541198
0.536858
0.529926
0.522114
0.516833
0.513696
0.51082
0.506259
0.502128
0.498723
0.494763
0.608245
0.607411
0.604183
0.601219
0.600508
0.596676
0.590352
0.585318
0.580465
0.574011
0.56726
0.561937
0.557317
0.553343
0.549536
0.545681
0.542437
0.539327
0.534329
0.528061
0.522308
0.518698
0.516247
0.513221
0.50753
0.615472
0.613018
0.610848
0.607777
0.605525
0.60472
0.601776
0.595341
0.589564
0.584523
0.578822
0.572155
0.565822
0.560367
0.556367
0.552573
0.548171
0.54412
0.540611
0.536307
0.531971
0.527271
0.523211
0.516576
0.622582
0.619369
0.617938
0.61556
0.613566
0.610937
0.608371
0.607074
0.605391
0.600278
0.594782
0.589365
0.583465
0.577013
0.570237
0.564691
0.560391
0.556752
0.552603
0.548427
0.54422
0.539535
0.535145
0.533031
0.530114
0.627848
0.625232
0.623416
0.621779
0.61911
0.616794
0.61395
0.610983
0.609258
0.607618
0.6039
0.599771
0.594886
0.58893
0.582728
0.575384
0.569249
0.564951
0.561159
0.55746
0.553433
0.548934
0.544235
0.538271
0.634771
0.632683
0.631117
0.628358
0.626454
0.624916
0.622606
0.620276
0.617313
0.613833
0.611601
0.609545
0.606255
0.602733
0.598492
0.593582
0.587966
0.581008
0.574685
0.569983
0.566236
0.562512
0.557228
0.552541
0.548923
0.639935
0.637494
0.636031
0.634069
0.6315
0.62922
0.627557
0.626015
0.623894
0.621036
0.617216
0.614089
0.611478
0.608133
0.604377
0.600179
0.596004
0.591426
0.585891
0.580267
0.575251
0.570917
0.567839
0.563083
0.646435
0.644564
0.642404
0.639778
0.638518
0.636557
0.63399
0.631687
0.630114
0.629369
0.627292
0.624415
0.620775
0.617228
0.614174
0.610721
0.606901
0.602868
0.5987
0.594427
0.589706
0.584594
0.579355
0.577182
0.573484
0.651909
0.649878
0.647612
0.6454
0.6428
0.640559
0.638497
0.636142
0.633776
0.632502
0.632935
0.631079
0.627671
0.624254
0.620866
0.617583
0.614038
0.610274
0.60668
0.602887
0.59838
0.593547
0.590114
0.585195
0.657445
0.656145
0.653373
0.650835
0.648122
0.645284
0.642825
0.640589
0.638225
0.635799
0.634081
0.634802
0.634907
0.631529
0.627883
0.624479
0.621291
0.617701
0.613853
0.611074
0.608108
0.603869
0.599534
0.596183
0.663487
0.661418
0.660384
0.658745
0.656553
0.653527
0.650724
0.648002
0.645476
0.643086
0.640703
0.638252
0.635521
0.634044
0.63449
0.633716
0.631294
0.627711
0.624535
0.621236
0.61844
0.615893
0.612889
0.609212
0.605855
0.668901
0.666011
0.66412
0.663007
0.661798
0.659373
0.65638
0.653553
0.651012
0.648491
0.645998
0.643665
0.641309
0.6384
0.63538
0.63378
0.632963
0.631675
0.629495
0.627026
0.624452
0.621902
0.620406
0.61695
0.675991
0.67043
0.668649
0.66652
0.665511
0.664302
0.661803
0.659121
0.656539
0.654113
0.651519
0.649071
0.646797
0.644516
0.641893
0.638958
0.636405
0.634492
0.633076
0.631339
0.629718
0.627712
0.625931
0.623607
0.67958
0.678077
0.673859
0.671032
0.668826
0.667409
0.66629
0.663796
0.661341
0.659202
0.657006
0.654257
0.652056
0.649777
0.647577
0.645325
0.642847
0.640327
0.637832
0.635677
0.634043
0.63283
0.63118
0.685923
0.684311
0.683259
0.680328
0.67719
0.673969
0.671375
0.669422
0.667594
0.665218
0.662941
0.661156
0.659477
0.657155
0.654993
0.652639
0.650482
0.648361
0.646324
0.644236
0.641889
0.63986
0.637717
0.63503
0.69126
0.689141
0.687493
0.685994
0.683703
0.680582
0.677481
0.674546
0.671964
0.669719
0.667291
0.664932
0.663043
0.661362
0.659662
0.657694
0.655411
0.653186
0.651194
0.649403
0.6482
0.645845
0.644325
0.642129
0.694995
0.694361
0.692631
0.690713
0.689197
0.686943
0.683983
0.681074
0.678057
0.674977
0.672426
0.670049
0.667553
0.665338
0.66362
0.662133
0.660272
0.65793
0.655749
0.653885
0.652227
0.650496
0.647878
0.701453
0.698512
0.697785
0.696499
0.695419
0.694016
0.69263
0.690222
0.687078
0.684394
0.681551
0.678218
0.675315
0.673031
0.670505
0.668027
0.66616
0.664723
0.662886
0.660628
0.658375
0.656643
0.655152
0.651581
0.707167
0.703816
0.702142
0.701043
0.699317
0.697957
0.696898
0.69616
0.693474
0.689779
0.687212
0.684893
0.681777
0.678639
0.676177
0.673609
0.670993
0.668983
0.667562
0.665746
0.663947
0.66195
0.65976
0.659832
0.708842
0.708636
0.707244
0.705391
0.703708
0.70171
0.700077
0.699229
0.69924
0.696502
0.692515
0.689801
0.687996
0.685306
0.682183
0.679443
0.676858
0.67416
0.672106
0.670558
0.669015
0.667172
0.666132
0.664705
0.714659
0.71385
0.711583
0.709853
0.708013
0.70617
0.704184
0.70206
0.700934
0.701523
0.699337
0.69523
0.692287
0.69058
0.688321
0.685377
0.682582
0.679956
0.677409
0.67541
0.673526
0.671147
0.671022
0.721654
0.720399
0.717747
0.716354
0.714551
0.712714
0.710803
0.708971
0.707044
0.704774
0.702889
0.703071
0.702189
0.698303
0.695032
0.693007
0.690958
0.688397
0.68578
0.683228
0.680641
0.678672
0.677039
0.674189
0.728831
0.724738
0.723747
0.721524
0.719661
0.717559
0.715757
0.713992
0.712307
0.710695
0.708649
0.706208
0.705344
0.705042
0.701728
0.698581
0.696137
0.693958
0.691518
0.688879
0.686612
0.684243
0.681739
0.680501
0.730751
0.731205
0.728792
0.727057
0.725094
0.722795
0.720706
0.718913
0.717241
0.715809
0.714641
0.71316
0.710663
0.708911
0.707928
0.705098
0.702228
0.699702
0.697257
0.694823
0.692331
0.689367
0.686763
0.737981
0.735352
0.733686
0.732134
0.73055
0.728405
0.7261
0.723942
0.722028
0.720269
0.718932
0.718165
0.717455
0.715264
0.712969
0.710991
0.708358
0.705731
0.703382
0.700948
0.69836
0.695853
0.693308
0.742009
0.740565
0.738702
0.736974
0.735027
0.733334
0.731411
0.729458
0.727501
0.725344
0.723146
0.721384
0.72054
0.72088
0.719846
0.717243
0.714581
0.711967
0.709547
0.707282
0.70441
0.70129
0.700504
0.748469
0.747037
0.743867
0.74166
0.739602
0.737724
0.736054
0.734383
0.732866
0.73114
0.728659
0.726007
0.723612
0.721891
0.721875
0.722384
0.720771
0.718114
0.715537
0.713105
0.711203
0.708156
0.708013
0.754786
0.751874
0.749307