/*--------------------------------*- C++ -*----------------------------------*\
  =========                 |
  \\      /  F ield         | OpenFOAM: The Open Source CFD Toolbox
   \\    /   O peration     | Website:  https://openfoam.org
    \\  /    A nd           | Version:  8
     \\/     M anipulation  |
\*---------------------------------------------------------------------------*/
FoamFile
{
    version     2.0;
    format      ascii;
    class       volScalarField;
    location    "90";
    object      epsilon;
}
// * * * * * * * * * * * * * * * * * * * * * * * * * * * * * * * * * * * * * //

dimensions      [0 2 -3 0 0 0 0];

internalField   nonuniform List<scalar> 
12225
(
285.52
270.716
257.904
243.828
232.441
223.122
216.777
212.735
212.777
214.031
217.327
221.087
228.347
233.06
241.896
246.826
257.748
255.256
52.4873
91.9003
106.967
114.784
124.853
136.868
152.763
170.087
191.376
211.307
235.86
256.225
282.381
300.754
327.286
342.678
369.311
388.081
20.5262
34.8798
44.6687
50.4827
55.3917
59.6358
64.673
69.6987
76.3786
83.3185
91.6152
99.6146
108.556
117.59
126.309
136.798
144.217
157.874
16.0028
19.4884
24.0775
27.5698
30.4938
32.8811
35.1576
37.3149
39.5175
41.9633
44.3819
47.3001
49.7876
53.2436
55.6508
59.6753
61.9535
66.7588
15.0386
15.7132
17.3973
19.0815
20.6376
22.0313
23.2466
24.441
25.4494
26.614
27.5397
28.7961
29.6723
31.06
31.9029
33.4226
34.247
36.0093
14.7897
14.8258
15.2494
15.8686
16.5665
17.2894
17.9237
18.5889
19.1216
19.7429
20.2009
20.8157
21.2266
21.8547
22.2372
22.8917
23.2449
23.9974
14.7657
14.6147
14.641
14.726
14.9345
15.2209
15.4915
15.811
16.072
16.3866
16.6218
16.928
17.1396
17.442
17.6341
17.943
18.1091
18.4674
14.7686
14.5867
14.4659
14.3802
14.3676
14.3895
14.4396
14.534
14.6187
14.7381
14.8323
14.9597
15.0516
15.183
15.2692
15.4065
15.48
15.6491
14.768
14.5911
14.4348
14.2963
14.1849
14.1043
14.0397
14.0067
13.9813
13.9788
13.9812
13.9925
14.0049
14.0322
14.0494
14.0866
14.104
14.1639
14.7665
14.5941
14.432
14.282
14.1429
14.0218
13.9113
13.8191
13.7366
13.6695
13.6098
13.5631
13.5179
13.4873
13.4521
13.4357
13.4041
13.405
14.7659
14.5945
14.4322
14.2803
14.1361
14.0031
13.878
13.7641
13.6578
13.5624
13.4729
13.3945
13.319
13.2553
13.1908
13.1403
13.0836
13.0457
14.7657
14.5943
14.4321
14.2798
14.1353
13.9998
13.8713
13.7516
13.6381
13.5332
13.4335
13.3423
13.2548
13.1761
13.0992
13.0318
12.9637
12.9067
14.7657
14.5941
14.432
14.2794
14.1349
13.9988
13.8697
13.7483
13.6329
13.5246
13.4214
13.3251
13.233
13.1475
13.0653
12.9895
12.9161
12.8492
14.7657
14.594
14.4318
14.2791
14.1346
13.9982
13.8691
13.7471
13.6314
13.522
13.4181
13.3199
13.2265
13.1383
13.0543
12.9751
12.8994
12.8283
14.7657
14.5938
14.4317
14.2787
14.1342
13.9977
13.8686
13.7464
13.6306
13.5209
13.4169
13.3182
13.2245
13.1357
13.0512
12.971
12.8947
12.8223
14.7657
14.5938
14.4316
14.2785
14.1339
13.9973
13.8681
13.7458
13.6299
13.5202
13.4161
13.3173
13.2235
13.1345
13.0499
12.9696
12.8931
12.8204
14.7657
14.5937
14.4315
14.2783
14.1337
13.997
13.8677
13.7453
13.6294
13.5196
13.4154
13.3166
13.2228
13.1337
13.0491
12.9686
12.8921
12.8193
14.7657
14.5937
14.4314
14.2782
14.1336
13.9968
13.8675
13.745
13.6291
13.5192
13.415
13.3161
13.2223
13.1331
13.0485
12.9679
12.8914
12.8185
14.7657
14.5936
14.4314
14.2782
14.1335
13.9967
13.8674
13.7449
13.6289
13.519
13.4148
13.3159
13.2221
13.1329
13.0482
12.9676
12.8911
12.8182
14.7657
14.5936
14.4314
14.2782
14.1336
13.9968
13.8675
13.745
13.6292
13.5192
13.4151
13.3161
13.2224
13.1332
13.0486
12.968
12.8916
12.8187
14.7657
14.5937
14.4315
14.2784
14.1337
13.9971
13.8678
13.7455
13.6295
13.5198
13.4157
13.317
13.2233
13.1344
13.05
12.9698
12.8936
12.8211
14.7657
14.5937
14.4316
14.2785
14.1341
13.9975
13.8686
13.7465
13.6313
13.5223
13.4193
13.3218
13.2298
13.1424
13.0602
12.9818
12.9083
12.8379
14.7659
14.5937
14.4318
14.2788
14.1354
14.0002
13.8743
13.7561
13.6465
13.5437
13.4488
13.3595
13.2774
13.1997
13.1288
13.0607
12.9995
12.9393
14.7661
14.5928
14.4329
14.2844
14.1515
14.0322
13.929
13.8376
13.7594
13.6895
13.6307
13.577
13.5327
13.4904
13.4571
13.4226
13.3983
13.3685
14.7641
14.5936
14.461
14.3604
14.303
14.2766
14.2796
14.2938
14.3199
14.3526
14.3952
14.4336
14.4811
14.52
14.5698
14.6062
14.6581
14.6897
14.757
14.6921
14.7579
14.9172
15.1826
15.4609
15.7469
16.0114
16.271
16.5022
16.7336
16.9356
17.1466
17.3259
17.5244
17.6857
17.879
18.0242
14.9575
15.4344
16.5691
17.6883
18.7046
19.5671
20.3353
20.9948
21.6156
22.1618
22.712
23.2028
23.7284
24.1908
24.7146
25.1612
25.6976
26.1336
16.258
20.939
25.0146
27.7584
29.7827
31.3565
32.7718
34.0524
35.3486
36.6034
37.9548
39.2729
40.7256
42.1046
43.6596
45.1047
46.7918
48.2516
29.9426
47.2241
54.8684
58.6696
61.6067
64.4208
67.5608
70.9519
74.6975
78.6583
82.9072
87.243
91.7713
96.2839
100.89
105.374
109.869
114.222
165.79
160.073
154.899
149.564
144.479
139.677
135.613
132.108
129.267
126.965
125.311
124.026
123.318
122.793
122.793
122.918
123.193
123.739
4.94987
2.80416
4.0659
5.1649
6.13133
6.97482
7.68514
8.20487
8.37401
7.80548
7.71741
7.83706
8.05307
8.3548
8.7383
39.609
43.5277
47.6386
51.2411
53.2136
52.2191
46.544
47.8264
53.9282
61.2868
69.706
79.2361
89.8291
101.521
114.226
127.924
142.473
157.819
173.798
190.355
207.334
224.696
242.302
260.116
278.029
296.023
314.017
332.005
349.934
367.804
385.588
403.282
420.884
438.383
455.796
473.095
490.318
507.422
524.465
541.402
558.305
575.116
591.926
608.665
625.444
642.175
658.994
675.8
692.755
709.727
726.911
744.146
761.656
779.255
797.193
815.256
833.716
852.331
871.392
890.622
910.327
930.204
950.57
971.114
992.157
1013.34
1034.98
1056.71
1078.85
1100.96
1123.36
1145.62
1168.04
1190.25
1212.42
1234.36
1255.85
1276.81
1297.08
1316.68
1335.52
1353.81
1371.76
1389.05
1405.48
1420.68
1432.88
1443.94
1453.86
1452.26
1463.17
1483.54
1484.13
1485.06
1495.96
1490.92
1487.6
1480.26
1470.85
1458.14
1442.97
1424.99
1404.38
1381.04
1355.17
1326.89
1296.35
1263.72
1229.26
1193.27
1156.05
1117.83
1077.49
1036.65
995.554
954.555
913.858
873.677
834.232
796.281
759.045
724.85
699.091
676.134
654.003
632.504
611.624
591.39
571.922
553.08
535.115
517.578
500.734
484.41
468.661
453.701
439.577
426.098
413.234
401.013
389.438
378.526
368.228
358.489
349.275
340.575
332.374
324.648
317.363
310.5
304.035
297.95
292.217
286.814
281.711
276.89
272.294
267.947
263.659
259.701
255.261
251.552
246.013
241.514
222.893
9.96552
6.56912
6.21156
6.37925
6.73794
7.20008
7.73966
8.355
9.06739
9.9443
10.8601
11.8836
13.1468
14.8719
17.5316
22.2867
25.728
28.9038
32.1135
35.2753
38.4501
41.7416
46.0094
51.1549
56.7674
62.7409
69.0355
75.6115
82.4447
89.502
96.722
104.051
111.467
118.943
126.471
134.037
141.649
149.273
156.899
164.522
172.141
179.754
187.361
194.96
202.553
210.138
217.716
225.289
232.855
240.418
247.974
255.527
263.071
270.612
278.149
285.687
293.223
300.766
308.313
315.873
323.443
331.036
338.645
346.287
353.951
361.657
369.391
377.175
384.992
392.864
400.772
408.74
416.74
424.797
432.88
441.013
449.159
457.344
465.529
473.733
481.909
490.076
498.18
506.236
514.181
522.033
529.733
537.298
544.674
551.885
558.856
565.558
571.966
578.084
583.939
589.581
595.102
600.62
606.278
611.6
616.393
620.472
623.944
625.911
630.351
631.955
638.029
637.785
641.017
641.287
641.68
640.623
638.397
635.541
631.538
626.652
620.789
613.956
606.136
597.34
587.583
576.865
565.132
552.568
539.252
525.282
510.722
495.5
479.913
464.077
448.103
432.088
416.121
400.279
384.702
369.369
354.573
341.33
328.998
317.182
305.77
294.744
284.104
273.876
264.034
254.621
245.481
236.55
227.941
219.69
211.803
204.307
197.174
190.386
183.932
177.814
172.032
166.573
161.415
156.542
151.941
147.603
143.515
139.663
136.033
132.615
129.398
126.368
123.517
120.83
118.302
115.911
113.671
111.523
109.563
107.604
105.963
104.435
105.18
106.392
18.5491
10.9042
9.39013
9.06973
9.17893
9.53128
10.083
10.8257
11.7801
12.9691
14.3483
15.9468
17.8291
20.0854
22.8167
26.0643
29.3797
32.7486
36.1321
39.4572
42.9237
46.8243
51.2163
55.9897
61.0029
66.1988
71.5513
77.0434
82.6675
88.3091
93.9914
99.7543
105.602
111.525
117.517
123.57
129.677
135.827
142.016
148.235
154.484
160.763
167.066
173.388
179.727
186.08
192.445
198.82
205.204
211.594
217.99
224.391
230.793
237.198
243.603
250.008
256.413
262.817
269.219
275.618
282.014
288.406
294.792
301.173
307.544
313.906
320.255
326.591
332.909
339.208
345.481
351.729
357.942
364.12
370.253
376.338
382.364
388.33
394.223
400.04
405.767
411.4
416.927
422.341
427.631
432.792
437.816
442.701
447.445
452.053
456.522
460.848
465.032
469.101
473.074
476.982
480.838
484.659
488.411
491.968
495.294
498.362
501.196
503.797
506.637
508.995
511.705
512.933
514.472
514.953
515.019
514.576
513.461
511.745
509.268
506.055
502.063
497.265
491.644
485.192
477.913
469.82
460.932
451.321
441.049
430.186
418.795
406.93
394.717
382.252
369.619
356.9
344.158
331.459
318.881
306.507
294.514
283.209
272.477
262.164
252.228
242.647
233.421
224.553
216.041
207.888
200.051
192.498
185.248
178.312
171.624
165.217
159.11
153.291
147.739
142.463
137.463
132.729
128.249
124.009
120.002
116.218
112.647
109.277
106.099
103.102
100.277
97.6143
95.1055
92.7407
90.5135
88.412
86.4393
84.571
82.8446
81.1983
79.7757
78.3843
78.1149
78.5071
28.4626
15.6906
13.0388
12.2896
12.2224
12.5218
13.0866
13.8847
14.9104
16.165
17.6843
19.4842
21.5916
24.0332
26.8188
29.9155
33.2231
36.6793
40.255
43.9748
47.9094
51.9862
56.2834
60.7796
65.4332
70.2178
75.1196
80.1262
85.2221
90.4456
95.8026
101.275
106.86
112.541
118.307
124.149
130.06
136.032
142.059
148.134
154.246
160.413
166.623
172.87
179.152
185.462
191.798
198.156
204.533
210.925
217.331
223.747
230.17
236.599
243.029
249.46
255.887
262.308
268.721
275.121
281.505
287.869
294.21
300.522
306.802
313.043
319.24
325.388
331.48
337.512
343.476
349.366
355.175
360.896
366.523
372.048
377.464
382.765
387.943
392.995
397.913
402.694
407.333
411.828
416.176
420.379
424.436
428.351
432.131
435.79
439.334
442.769
446.105
449.359
452.548
455.683
458.775
461.827
464.806
467.669
470.404
473.003
475.473
477.828
480.115
482.197
484.13
485.482
486.575
487.004
487.045
486.727
485.874
484.443
482.352
479.569
476.05
471.761
466.679
460.791
454.098
446.612
438.36
429.392
419.766
409.545
398.8
387.606
376.056
364.241
352.236
340.118
327.957
315.837
303.849
292.084
280.653
269.678
259.141
248.951
239.152
229.724
220.66
211.958
203.619
195.638
187.997
180.677
173.677
166.993
160.6
154.498
148.683
143.135
137.81
132.739
127.92
123.34
118.995
114.875
110.972
107.28
103.789
100.489
97.3717
94.428
91.6492
89.0268
86.5528
84.2187
82.0181
79.942
77.9896
76.1492
74.4361
72.83
71.4035
70.0857
69.2708
69.2248
38.805
20.8309
17.0191
15.8547
15.623
15.8697
16.4469
17.2967
18.4039
19.7724
21.4169
23.352
25.5892
28.1302
30.9612
34.0486
37.3436
40.8024
44.3993
48.1311
52.0095
56.0368
60.2242
64.567
69.0552
73.6814
78.4424
83.3363
88.3639
93.531
98.8373
104.275
109.833
115.51
121.301
127.2
133.201
139.297
145.479
151.742
158.081
164.49
170.962
177.491
184.07
190.694
197.357
204.054
210.782
217.535
224.309
231.099
237.902
244.714
251.53
258.345
265.156
271.958
278.745
285.513
292.255
298.966
305.639
312.268
318.844
325.362
331.812
338.188
344.48
350.681
356.783
362.776
368.654
374.407
380.027
385.508
390.842
396.021
401.042
405.898
410.585
415.102
419.447
423.621
427.625
431.464
435.138
438.655
442.025
445.26
448.374
451.372
454.268
457.071
459.795
462.448
465.035
467.556
470
472.355
474.616
476.778
478.838
480.795
482.637
484.318
485.807
486.951
487.693
487.959
487.88
487.482
486.596
485.159
483.102
480.376
476.929
472.722
467.725
461.919
455.3
447.876
439.674
430.735
421.114
410.874
400.091
388.843
377.219
365.302
353.176
340.927
328.647
316.426
304.353
292.509
280.976
269.821
259.054
248.63
238.615
228.982
219.728
210.852
202.351
194.222
186.453
179.032
171.949
165.196
158.758
152.625
146.788
141.231
135.93
130.885
126.076
121.483
117.116
112.963
109.021
105.283
101.741
98.3857
95.2102
92.2066
89.3668
86.683
84.1477
81.7532
79.4931
77.3584
75.3474
73.4544
71.686
70.0376
68.5486
67.2058
66.1803
65.7065
48.9995
26.1861
21.1855
19.5983
19.2016
19.3877
19.9652
20.8472
22.0029
23.4262
25.122
27.0966
29.3521
31.8819
34.6687
37.6848
40.898
44.2782
47.8062
51.4745
55.2853
59.2436
63.3554
67.6233
72.0483
76.6308
81.372
86.2729
91.3347
96.5581
101.942
107.481
113.171
119.008
124.987
131.101
137.345
143.711
150.193
156.782
163.471
170.253
177.121
184.067
191.083
198.163
205.3
212.487
219.719
226.988
234.291
241.62
248.97
256.335
263.71
271.088
278.464
285.831
293.182
300.509
307.807
315.065
322.276
329.431
336.521
343.535
350.464
357.298
364.026
370.638
377.124
383.473
389.676
395.723
401.604
407.312
412.837
418.173
423.314
428.256
432.994
437.527
441.854
445.975
449.893
453.611
457.138
460.481
463.65
466.662
469.525
472.252
474.852
477.337
479.717
482.002
484.195
486.297
488.31
490.235
492.071
493.814
495.459
496.998
498.416
499.684
500.774
501.558
501.925
501.941
501.718
501.117
500.052
498.453
496.255
493.399
489.828
485.496
480.365
474.413
467.626
460.013
451.592
442.404
432.501
421.948
410.821
399.2
387.175
374.838
362.288
349.624
336.944
324.337
311.89
299.679
287.771
276.216
265.038
254.235
243.825
233.811
224.195
214.975
206.151
197.718
189.668
181.988
174.67
167.701
161.067
154.757
148.756
143.051
137.624
132.463
127.555
122.882
118.436
114.188
110.145
106.302
102.65
99.1843
95.8974
92.7829
89.8336
87.0425
84.4026
81.9065
79.548
77.3194
75.2189
73.2419
71.3914
69.6688
68.0977
66.6856
65.5236
64.7209
58.666
31.4478
25.3178
23.3201
22.7597
22.876
23.4368
24.3258
25.4955
26.9283
28.6201
30.5701
32.7761
35.2299
37.9175
40.819
43.9132
47.181
50.6093
54.1925
57.9312
61.8294
65.8929
70.1262
74.5337
79.1186
83.8837
88.8309
93.9616
99.2758
104.773
110.45
116.304
122.331
128.526
134.885
141.401
148.068
154.877
161.822
168.894
176.085
183.386
190.791
198.289
205.874
213.536
221.269
229.065
236.917
244.818
252.76
260.736
268.739
276.763
284.799
292.839
300.876
308.901
316.905
324.879
332.813
340.695
348.516
356.263
363.925
371.49
378.945
386.277
393.475
400.525
407.415
414.134
420.669
427.01
433.146
439.068
444.767
450.238
455.473
460.47
465.224
469.737
474.007
478.037
481.831
485.396
488.738
491.868
494.798
497.541
500.107
502.505
504.749
506.849
508.818
510.663
512.392
514.009
515.519
516.924
518.223
519.413
520.483
521.428
522.216
522.812
523.091
523.029
522.752
522.177
521.225
519.825
517.907
515.405
512.255
508.397
503.778
498.356
492.099
484.992
477.034
468.244
458.656
448.322
437.307
425.686
413.549
400.992
388.123
375.047
361.867
348.682
335.584
322.655
309.967
297.583
285.548
273.891
262.625
251.764
241.315
231.281
221.663
212.461
203.669
195.281
187.284
179.67
172.423
165.531
158.979
152.753
146.837
141.216
135.876
130.801
125.976
121.389
117.021
112.857
108.885
105.099
101.496
98.0725
94.8224
91.7402
88.8192
86.0531
83.4348
80.9584
78.6174
76.4084
74.3284
72.3788
70.5629
68.8963
67.3921
66.1067
65.0501
67.5239
36.394
29.2162
26.828
26.1064
26.1462
26.6749
27.5501
28.708
30.1201
31.7747
33.6667
35.7919
38.144
40.7137
43.4889
46.4572
49.6075
52.9326
56.429
60.0978
63.9424
67.9676
72.1784
76.5795
81.175
85.9683
90.9618
96.1575
101.556
107.158
112.962
118.966
125.167
131.562
138.147
144.916
151.862
158.98
166.262
173.699
181.284
189.008
196.861
204.836
212.923
221.114
229.4
237.772
246.223
254.744
263.327
271.964
280.645
289.363
298.109
306.873
315.645
324.416
333.175
341.91
350.61
359.262
367.853
376.37
384.798
393.122
401.329
409.402
417.327
425.089
432.672
440.063
447.247
454.211
460.942
467.43
473.663
479.632
485.332
490.755
495.899
500.76
505.338
509.634
513.651
517.392
520.865
524.078
527.042
529.768
532.266
534.547
536.623
538.508
540.216
541.757
543.141
544.377
545.468
546.422
547.243
547.923
548.454
548.846
549.028
548.957
548.665
548.127
547.328
546.218
544.736
542.817
540.395
537.405
533.782
529.462
524.39
518.517
511.809
504.243
495.815
486.539
476.446
465.586
454.025
441.847
429.15
416.037
402.62
389.006
375.301
361.602
348.002
334.579
321.404
308.536
296.022
283.892
272.167
260.861
249.983
239.537
229.524
219.943
210.79
202.058
193.736
185.813
178.275
171.107
164.294
157.821
151.673
145.833
140.286
135.017
130.01
125.251
120.725
116.417
112.31
108.382
104.633
101.062
97.6659
94.4405
91.3799
88.478
85.7283
83.125
80.6623
78.3364
76.1445
74.0875
72.1687
70.399
68.7909
67.3849
66.1229
75.3162
40.8347
32.7114
29.9584
29.0797
29.0459
29.5303
30.3809
31.5154
32.8954
34.5031
36.33
38.3718
40.6244
43.0831
45.7421
48.5955
51.638
54.8667
58.2805
61.881
65.6711
69.6552
73.8377
78.2232
82.8159
87.6198
92.6379
97.8731
103.327
109.002
114.897
121.012
127.346
133.898
140.663
147.638
154.818
162.197
169.768
177.525
185.458
193.561
201.823
210.237
218.793
227.482
236.296
245.225
254.261
263.394
272.616
281.916
291.286
300.715
310.194
319.711
329.256
338.817
348.382
357.937
367.469
376.963
386.404
395.776
405.063
414.247
423.311
432.237
441.008
449.604
458.009
466.205
474.174
481.901
489.37
496.567
503.479
510.095
516.404
522.399
528.075
533.426
538.449
543.145
547.514
551.558
555.281
558.691
561.794
564.604
567.126
569.373
571.357
573.094
574.596
575.877
576.947
577.817
578.488
578.968
579.281
579.401
579.301
578.975
578.452
577.707
576.721
575.477
573.953
572.105
569.885
567.233
564.091
560.397
556.09
551.105
545.386
538.883
531.558
523.386
514.36
504.488
493.801
482.352
470.212
457.47
444.225
430.584
416.655
402.548
388.366
374.205
360.154
346.29
332.682
319.385
306.447
293.902
281.775
270.08
258.825
248.014
237.651
227.731
218.253
209.207
200.586
192.376
184.564
177.135
170.072
163.361
156.985
150.928
145.174
139.707
134.512
129.574
124.879
120.412
116.156
112.088
108.192
104.473
100.93
97.5613
94.3602
91.3214
88.4389
85.707
83.1204
80.6752
78.3689
76.2015
74.176
72.2997
70.583
69.0561
67.6245
81.8445
44.618
35.6707
32.5854
31.5553
31.452
31.8985
32.7261
33.8394
35.1918
36.7604
38.5343
40.5089
42.6816
45.0511
47.6156
50.374
53.3248
56.4681
59.8046
63.3365
67.0667
70.9994
75.1387
79.4893
84.0555
88.8418
93.8524
99.091
104.561
110.264
116.204
122.38
128.794
135.445
142.332
149.453
156.805
164.383
172.181
180.194
188.415
196.835
205.448
214.245
223.218
232.357
241.654
251.1
260.686
270.402
280.238
290.185
300.231
310.367
320.58
330.86
341.193
351.566
361.966
372.377
382.784
393.17
403.518
413.809
424.025
434.146
444.151
454.019
463.729
473.261
482.592
491.701
500.569
509.176
517.502
525.531
533.245
540.63
547.674
554.366
560.697
566.66
572.25
577.465
582.302
586.761
590.845
594.555
597.903
600.892
603.531
605.829
607.799
609.456
610.813
611.883
612.677
613.211
613.462
613.446
613.167
612.646
611.862
610.82
609.516
607.944
606.094
603.95
601.492
598.687
595.495
591.87
587.761
583.114
577.875
571.986
565.393
558.048
549.916
540.972
531.209
520.635
509.284
497.211
484.488
471.203
457.452
443.34
428.973
414.454
399.885
385.357
370.954
356.75
342.809
329.185
315.923
303.064
290.631
278.64
267.097
256.006
245.369
235.182
225.443
216.145
207.278
198.831
190.789
183.137
175.858
168.937
162.359
156.107
150.165
144.516
139.146
134.038
129.179
124.555
120.15
115.941
111.902
108.042
104.36
100.854
97.5183
94.3483
91.3379
88.4817
85.7747
83.213
80.7942
78.5178
76.386
74.4036
72.5782
70.9325
69.3548
86.9756
47.6404
38.0132
34.6413
33.4767
33.3127
33.7288
34.5412
35.6436
36.9823
38.5299
40.273
42.2059
44.3266
46.6354
49.1328
51.8201
54.6983
57.7693
61.0351
64.4987
68.1634
72.0334
76.1131
80.4074
84.9215
89.6607
94.6303
99.8354
105.281
110.97
116.906
123.091
129.529
136.221
143.17
150.374
157.833
165.544
173.503
181.706
190.146
198.818
207.715
216.831
226.159
235.69
245.417
255.329
265.419
275.676
286.091
296.652
307.35
318.172
329.106
340.14
351.259
362.449
373.694
384.977
396.282
407.59
418.88
430.133
441.326
452.436
463.441
474.315
485.035
495.576
505.912
516.019
525.873
535.45
544.727
553.682
562.297
570.552
578.431
585.92
593.007
599.683
605.94
611.772
617.176
622.148
626.687
630.796
634.477
637.735
640.576
643.006
645.036
646.681
647.953
648.865
649.412
649.604
649.435
648.927
648.079
646.897
645.376
643.519
641.323
638.788
635.906
632.671
629.066
625.073
620.66
615.798
610.447
604.568
598.119
591.055
583.331
574.907
565.754
555.858
545.224
533.85
521.775
509.053
495.753
481.959
467.763
453.26
438.552
423.735
408.902
394.137
379.518
365.113
350.979
337.166
323.713
310.673
298.067
285.906
274.194
262.936
252.13
241.775
231.866
222.399
213.365
204.751
196.544
188.727
181.285
174.204
167.467
161.058
154.962
149.161
143.641
138.387
133.384
128.617
124.074
119.729
115.559
111.571
107.763
104.133
100.676
97.386
94.2582
91.2872
88.468
85.7971
83.272
80.8918
78.658
76.5734
74.6431
72.8835
71.1789
90.6556
49.8554
39.7095
36.1074
34.832
34.6195
35.0158
35.8237
36.9286
38.2708
39.8188
41.5564
43.476
45.5751
47.8536
50.3129
52.9549
55.782
58.797
62.0026
65.4026
69.0007
72.8018
76.8109
81.0338
85.4765
90.1459
95.0487
100.192
105.584
111.232
117.127
123.276
129.69
136.373
143.329
150.562
158.071
165.858
173.92
182.253
190.852
199.705
208.823
218.197
227.822
237.689
247.791
258.12
268.666
279.421
290.373
301.514
312.831
324.311
335.943
347.712
359.602
371.599
383.685
395.841
408.049
420.287
432.534
444.767
456.96
469.088
481.125
493.043
504.814
516.41
527.801
538.958
549.854
560.461
570.751
580.698
590.28
599.473
608.257
616.614
624.529
631.99
638.985
645.508
651.55
657.107
662.176
666.753
670.841
674.439
677.548
680.175
682.326
684.013
685.248
686.03
686.361
686.245
685.684
684.681
683.238
681.357
679.037
676.277
673.079
669.443
665.368
660.851
655.887
650.468
644.578
638.2
631.316
623.907
615.95
607.415
598.285
588.531
578.137
567.095
555.366
543.02
530.11
516.685
502.809
488.553
473.996
459.223
444.319
429.368
414.45
399.638
384.999
370.59
356.461
342.65
329.192
316.14
303.521
291.343
279.608
268.32
257.475
247.07
237.102
227.571
218.467
209.777
201.487
193.582
186.046
178.866
172.028
165.515
159.312
153.403
147.771
142.404
137.286
132.404
127.743
123.277
118.996
114.9
110.987
107.252
103.691
100.298
97.0683
93.9964
91.0778
88.3091
85.6877
83.2127
80.8848
78.705
76.6768
74.8113
72.9968
92.9059
51.2692
40.7762
37.0086
35.6514
35.4054
35.7939
36.609
37.7299
39.0924
40.6615
42.418
44.3521
46.4592
48.7381
51.1894
53.8148
56.6165
59.5975
62.761
66.1111
69.6524
73.3903
77.3308
81.481
85.8483
90.441
95.2674
100.337
105.662
111.252
117.076
123.165
129.529
136.174
143.107
150.333
157.855
165.676
173.796
182.215
190.928
199.928
209.23
218.824
228.704
238.865
249.301
260.006
270.971
282.187
293.644
305.331
317.236
329.348
341.651
354.132
366.772
379.557
392.466
405.48
418.578
431.738
444.934
458.142
471.334
484.481
497.554
510.521
523.352
536.013
548.472
560.696
572.653
584.31
595.636
606.601
617.177
627.337
637.057
646.314
655.09
663.369
671.138
678.385
685.102
691.282
696.917
702.003
706.536
710.513
713.93
716.789
719.095
720.853
722.071
722.748
722.883
722.472
721.506
719.986
717.913
715.281
712.091
708.336
704.022
699.145
693.711
687.721
681.183
674.095
666.461
658.281
649.564
640.315
630.549
620.243
609.323
597.81
585.796
573.325
560.486
547.271
533.64
519.635
505.305
490.714
475.925
461.009
446.039
431.085
416.214
401.49
386.967
372.694
358.712
345.05
331.715
318.848
306.42
294.42
282.849
271.706
260.988
250.689
240.794
231.32
222.259
213.599
205.325
197.42
189.872
182.67
175.801
169.248
162.997
157.031
151.337
145.899
140.706
135.742
130.99
126.436
122.072
117.896
113.903
110.088
106.446
102.972
99.6596
96.5051
93.5038
90.6523
87.9484
85.3909
82.9797
80.7152
78.5991
76.6381
74.7303
93.7849
51.9395
41.2769
37.4131
36.0064
35.7446
36.1396
36.9743
38.1209
39.5183
41.1278
42.927
44.9031
47.049
49.3615
51.8393
54.4828
57.2935
60.2739
63.427
66.7573
70.2697
73.9705
77.8668
81.967
86.2814
90.8191
95.5877
100.597
105.856
111.372
117.13
123.163
129.478
136.086
142.996
150.215
157.75
165.606
173.787
182.294
191.127
200.283
209.761
219.561
229.681
240.119
250.872
261.936
273.303
284.963
296.907
309.122
321.598
334.32
347.273
360.441
373.808
387.354
401.06
414.904
428.864
442.914
457.029
471.181
485.339
499.472
513.548
527.532
541.39
555.084
568.58
581.84
594.827
607.507
619.842
631.8
643.347
654.452
665.087
675.226
684.846
693.927
702.454
710.412
717.792
724.583
730.776
736.362
741.335
745.686
749.406
752.492
754.945
756.766
757.954
758.51
758.431
757.693
756.277
754.189
751.418
747.957
743.797
738.934
733.364
727.089
720.114
712.448
704.103
695.097
685.451
675.181
664.335
652.901
640.793
628.203
615.276
602.143
588.694
574.966
561.052
546.79
532.302
517.635
502.834
487.942
473.006
458.075
443.199
428.429
413.813
399.394
385.213
371.305
357.698
344.412
331.437
318.892
306.763
295.048
283.745
272.854
262.369
252.283
242.584
233.309
224.431
215.929
207.789
199.996
192.531
185.394
178.573
172.054
165.822
159.862
154.16
148.703
143.479
138.472
133.672
129.073
124.665
120.443
116.402
112.537
108.842
105.311
101.941
98.7256
95.6617
92.7461
89.9765
87.3518
84.8717
82.5353
80.344
78.3006
76.3161
93.5659
51.9392
41.2672
37.381
35.9634
35.7081
36.1271
37.0007
38.2013
39.6646
41.3394
43.2107
45.2635
47.4875
49.8768
52.4281
55.14
58.0124
61.0467
64.2455
67.613
71.1546
74.8783
78.79
82.8975
87.2094
91.7357
96.487
101.474
106.707
112.195
117.949
123.982
130.305
136.932
143.873
151.138
158.735
166.673
174.956
183.591
192.58
201.926
211.629
221.688
232.101
242.867
253.981
265.437
277.228
289.347
301.787
314.536
327.58
340.905
354.495
368.332
382.398
396.673
411.136
425.765
440.535
455.42
470.391
485.418
500.47
515.513
530.511
545.428
560.224
574.862
589.302
603.504
617.427
631.034
644.284
657.14
669.566
681.526
692.987
703.921
714.299
724.099
733.302
741.891
749.855
757.182
763.859
769.877
775.22
779.878
783.836
787.085
789.619
791.434
792.521
792.878
792.516
791.355
789.394
786.629
783.041
778.617
773.341
767.207
760.203
752.335
743.607
734.034
723.643
712.465
700.539
687.718
674.209
660.144
645.888
631.315
616.568
601.45
586.161
570.794
555.409
540.021
524.671
509.392
494.209
479.144
464.22
449.458
434.883
420.517
406.385
392.51
378.912
365.61
352.62
339.954
327.625
315.664
304.081
292.88
282.059
271.617
261.548
251.844
242.48
233.501
224.887
216.623
208.697
201.094
193.795
186.819
180.141
173.742
167.609
161.727
156.084
150.663
145.458
140.464
135.674
131.079
126.671
122.444
118.392
114.51
110.793
107.236
103.835
100.584
97.4806
94.5221
91.7066
89.0329
86.5005
84.1082
81.8567
79.7455
77.7017
92.3959
51.4461
40.8786
37.0172
35.6222
35.4056
35.8869
36.8433
38.1495
39.7237
41.5165
43.5176
45.7091
48.0797
50.6214
53.3285
56.1976
59.2267
62.4156
65.7654
69.2791
72.9603
76.8138
80.847
85.0688
89.4889
94.1182
98.9685
104.053
109.384
114.976
120.842
126.997
133.454
140.227
147.33
154.773
162.569
170.726
179.252
188.154
197.437
207.103
217.155
227.592
238.413
249.615
261.192
273.139
285.448
298.108
311.107
324.436
338.084
352.032
366.266
380.765
395.51
410.481
425.655
441.009
456.516
472.149
487.879
503.675
519.502
535.327
551.11
566.813
582.397
597.818
613.038
628.012
642.7
657.058
671.047
684.625
697.753
710.393
722.508
734.067
745.035
755.388
765.101
774.158
782.545
790.247
797.252
803.544
809.107
813.92
817.962
821.22
823.681
825.33
826.15
826.149
825.323
823.55
820.848
817.194
812.566
806.942
800.302
792.631
783.92
774.166
763.392
751.591
738.7
724.762
709.895
694.538
678.661
662.401
645.551
628.392
611.086
593.728
576.45
559.365
542.553
526.061
509.921
494.147
478.74
463.694
448.998
434.642
420.618
406.918
393.537
380.473
367.724
355.29
343.173
331.374
319.897
308.752
297.944
287.474
277.342
267.545
258.078
248.934
240.107
231.601
223.413
215.534
207.956
200.665
193.641
186.901
180.431
174.212
168.237
162.491
156.959
151.637
146.527
141.618
136.9
132.367
128.01
123.822
119.8
115.94
112.236
108.685
105.281
102.022
98.9048
95.927
93.0873
90.3846
87.8186
85.3875
83.0924
80.9296
78.8438
90.0576
50.2935
40.0588
36.3676
35.1047
35.0187
35.6554
36.7824
38.2691
40.0329
42.0494
44.2959
46.7536
49.4087
52.2509
55.2723
58.4672
61.831
65.3616
69.0581
72.9215
76.9542
81.1604
85.5466
90.1217
94.8958
99.8806
105.089
110.534
116.232
122.198
128.447
134.996
141.859
149.052
156.588
164.48
172.74
181.378
190.402
199.818
209.631
219.844
230.457
241.469
252.877
264.677
276.863
289.427
302.356
315.64
329.262
343.207
357.46
372.004
386.825
401.902
417.218
432.75
448.475
464.371
480.41
496.566
512.809
529.108
545.429
561.736
577.992
594.157
610.191
626.052
641.697
657.086
672.176
686.923
701.287
715.226
728.7
741.669
754.095
765.94
777.17
787.752
797.662
806.879
815.386
823.169
830.212
836.498
842.003
846.7
850.562
853.566
855.693
856.92
857.192
856.636
855.038
852.384
848.66
843.831
837.872
830.75
822.441
812.927
802.197
790.21
776.87
762.301
746.712
730.245
712.863
694.839
676.018
656.68
636.97
617.097
597.265
577.652
558.426
539.725
521.645
504.242
487.534
471.514
456.152
441.406
427.227
413.568
400.383
387.633
375.281
363.298
351.659
340.345
329.342
318.639
308.231
298.115
288.289
278.751
269.498
260.526
251.831
243.409
235.256
227.37
219.748
212.386
205.28
198.421
191.796
185.408
179.251
173.307
167.576
162.05
156.721
151.578
146.626
141.857
137.264
132.841
128.581
124.477
120.531
116.736
113.086
109.578
106.208
102.973
99.8715
96.9015
94.063
91.355
88.7773
86.3282
84.0091
81.8134
79.7051
87.4532
48.9836
39.2015
35.7849
34.7565
34.9099
35.7897
37.1609
38.9305
41.0395
43.446
46.1222
49.0477
52.2069
55.5872
59.178
62.9707
66.958
71.1347
75.4972
80.0439
84.7749
89.6921
94.8004
100.107
105.62
111.35
117.311
123.515
129.977
136.713
143.74
151.073
158.728
166.718
175.055
183.751
192.816
202.26
212.088
222.302
232.906
243.9
255.282
267.048
279.191
291.702
304.569
317.781
331.326
345.189
359.356
373.808
388.529
403.502
418.709
434.133
449.754
465.553
481.51
497.6
513.801
530.086
546.428
562.798
579.166
595.497
611.755
627.901
643.898
659.705
675.283
690.59
705.586
720.232
734.486
748.309
761.662
774.505
786.799
798.502
809.578
819.99
829.708
838.708
846.973
854.484
861.225
867.174
872.302
876.574
879.955
882.412
883.918
884.431
884.002
882.536
879.904
876.102
871.09
864.829
857.279
848.413
838.186
826.5
813.358
798.812
783.059
766.055
747.973
728.646
708.291
687.111
665.262
642.97
620.468