/*--------------------------------*- C++ -*----------------------------------*\
  =========                 |
  \\      /  F ield         | OpenFOAM: The Open Source CFD Toolbox
   \\    /   O peration     | Website:  https://openfoam.org
    \\  /    A nd           | Version:  8
     \\/     M anipulation  |
\*---------------------------------------------------------------------------*/
FoamFile
{
    version     2.0;
    format      ascii;
    class       volScalarField;
    location    "90";
    object      k;
}
// * * * * * * * * * * * * * * * * * * * * * * * * * * * * * * * * * * * * * //

dimensions      [0 2 -2 0 0 0 0];

internalField   nonuniform List<scalar> 
12225
(
0.362811
0.344006
0.327729
0.309842
0.295372
0.283529
0.275468
0.270329
0.270383
0.271954
0.276189
0.280838
0.290254
0.296019
0.307649
0.3131
0.32866
0.337413
0.440191
0.4687
0.461606
0.448392
0.450386
0.458378
0.474536
0.498936
0.524554
0.552807
0.581296
0.607308
0.635085
0.655797
0.682177
0.696994
0.723745
0.739235
0.390544
0.417868
0.420229
0.416825
0.411632
0.407817
0.40803
0.410079
0.414605
0.421553
0.430955
0.439991
0.451743
0.461761
0.473977
0.485052
0.495909
0.510718
0.377546
0.38698
0.391407
0.391342
0.390222
0.387897
0.385669
0.384087
0.382899
0.382921
0.383438
0.384388
0.38648
0.388635
0.391265
0.39478
0.397314
0.402625
0.374562
0.376089
0.378412
0.378665
0.378262
0.377202
0.375491
0.373733
0.372013
0.370451
0.369271
0.368111
0.367419
0.366863
0.366521
0.36654
0.366567
0.367294
0.373815
0.372709
0.372645
0.372383
0.37176
0.370812
0.369552
0.368075
0.366567
0.364966
0.363521
0.362053
0.360747
0.359532
0.358399
0.357464
0.356497
0.35593
0.373783
0.371742
0.370386
0.369285
0.368233
0.367109
0.365911
0.364579
0.36323
0.361795
0.360407
0.359006
0.357655
0.356361
0.355094
0.353947
0.352779
0.351815
0.37382
0.37156
0.369635
0.367975
0.366499
0.365104
0.363771
0.362421
0.361098
0.359753
0.358433
0.357122
0.355836
0.354591
0.353364
0.352211
0.351059
0.350019
0.373832
0.371553
0.369449
0.367524
0.365775
0.36415
0.36264
0.361192
0.359807
0.35846
0.357152
0.355881
0.35464
0.353442
0.352269
0.351152
0.350051
0.349028
0.373831
0.37156
0.369418
0.367404
0.365528
0.36377
0.362129
0.360579
0.359113
0.357715
0.356378
0.355097
0.353863
0.352679
0.351533
0.350441
0.349376
0.348376
0.373829
0.371561
0.369413
0.367378
0.365457
0.363643
0.361934
0.360318
0.358791
0.357342
0.355965
0.354654
0.353402
0.352208
0.351063
0.349973
0.348922
0.34793
0.373828
0.371559
0.369409
0.367371
0.365439
0.363607
0.361873
0.360229
0.358671
0.357193
0.355788
0.354453
0.353182
0.351972
0.350817
0.349718
0.348665
0.347668
0.373827
0.371557
0.369405
0.367365
0.36543
0.363593
0.361849
0.360193
0.358621
0.357127
0.355706
0.354356
0.35307
0.351847
0.35068
0.349572
0.348512
0.347507
0.373827
0.371555
0.369402
0.36736
0.365422
0.363583
0.361836
0.360176
0.358597
0.357096
0.355668
0.354308
0.353014
0.351782
0.350608
0.349491
0.348424
0.34741
0.373826
0.371553
0.369399
0.367355
0.365416
0.363575
0.361826
0.360163
0.358583
0.357079
0.355648
0.354285
0.352987
0.351751
0.350573
0.34945
0.34838
0.347359
0.373826
0.371552
0.369396
0.367351
0.365411
0.363568
0.361817
0.360154
0.358571
0.357066
0.355633
0.354269
0.35297
0.351732
0.350552
0.349428
0.348354
0.347332
0.373825
0.371551
0.369394
0.367348
0.365406
0.363562
0.361811
0.360146
0.358562
0.357056
0.355622
0.354257
0.352957
0.351718
0.350537
0.349411
0.348337
0.347313
0.373825
0.371551
0.369393
0.367346
0.365404
0.363559
0.361806
0.36014
0.358556
0.357049
0.355614
0.354248
0.352948
0.351708
0.350526
0.349399
0.348325
0.3473
0.373825
0.37155
0.369393
0.367346
0.365403
0.363557
0.361805
0.360138
0.358554
0.357046
0.355612
0.354245
0.352944
0.351703
0.350522
0.349395
0.34832
0.347294
0.373825
0.37155
0.369394
0.367346
0.365405
0.363559
0.361807
0.360141
0.358558
0.357049
0.355616
0.354249
0.352949
0.351709
0.350528
0.349401
0.348328
0.347302
0.373825
0.371552
0.369395
0.367349
0.365407
0.363564
0.361812
0.360148
0.358564
0.357059
0.355626
0.354262
0.352962
0.351726
0.350545
0.349422
0.348349
0.347328
0.373826
0.371552
0.369397
0.367352
0.365413
0.363571
0.361824
0.360164
0.358586
0.357087
0.355662
0.354306
0.353015
0.351786
0.350615
0.349499
0.348436
0.347419
0.373826
0.371554
0.369399
0.36736
0.365429
0.363604
0.361877
0.360243
0.358695
0.357225
0.35583
0.354501
0.353237
0.35203
0.35088
0.349779
0.34873
0.347722
0.373828
0.371551
0.369412
0.367417
0.365557
0.363821
0.362192
0.360654
0.359193
0.357799
0.356463
0.35518
0.353946
0.352757
0.351615
0.350512
0.349455
0.348432
0.373823
0.371554
0.369605
0.367893
0.36634
0.364894
0.363497
0.362125
0.360765
0.359419
0.358087
0.356778
0.355498
0.354249
0.353042
0.351871
0.35075
0.349665
0.373788
0.371991
0.371113
0.370266
0.369361
0.368313
0.36705
0.365633
0.364124
0.36258
0.361036
0.359528
0.35808
0.356689
0.355389
0.354149
0.353017
0.351931
0.374355
0.375572
0.377776
0.377858
0.377289
0.375887
0.373835
0.371642
0.369505
0.367482
0.365662
0.364079
0.362705
0.361525
0.360596
0.359798
0.359264
0.358765
0.379125
0.394297
0.398252
0.396576
0.392541
0.387606
0.383643
0.380446
0.378257
0.376838
0.376467
0.376702
0.377367
0.378618
0.380343
0.382301
0.38467
0.386951
0.408394
0.427538
0.422412
0.411048
0.40222
0.3979
0.398595
0.400914
0.40599
0.41294
0.420837
0.429616
0.438559
0.447853
0.456883
0.466057
0.474719
0.483494
0.36605
0.353415
0.341989
0.330208
0.318983
0.30838
0.29941
0.291665
0.2854
0.280317
0.276665
0.273829
0.272266
0.271106
0.271114
0.27138
0.272019
0.273205
0.0167555
0.0436523
0.0633583
0.0804818
0.0954491
0.108337
0.11895
0.126736
0.130756
0.129367
0.128054
0.128464
0.131294
0.135237
0.133498
0.0978375
0.0916852
0.0945497
0.102336
0.112597
0.130686
0.146753
0.163476
0.178471
0.194458
0.211721
0.230351
0.250108
0.270993
0.292732
0.315245
0.338244
0.361641
0.385179
0.408797
0.432292
0.455646
0.478706
0.501473
0.523835
0.545818
0.567346
0.588459
0.60911
0.629342
0.649136
0.668526
0.687515
0.706127
0.724381
0.742285
0.759874
0.777131
0.794106
0.810773
0.827196
0.843341
0.859283
0.874978
0.890518
0.905839
0.921056
0.936091
0.951078
0.965914
0.98076
0.995486
1.01028
1.02499
1.03982
1.0546
1.06955
1.08448
1.09962
1.11475
1.13013
1.14549
1.16112
1.17674
1.19264
1.20851
1.22464
1.2407
1.257
1.27315
1.28945
1.30554
1.3217
1.33761
1.35347
1.36909
1.38435
1.39918
1.41348
1.42724
1.44037
1.45297
1.46508
1.47693
1.48796
1.49782
1.50579
1.51129
1.50965
1.51719
1.53303
1.53114
1.53471
1.53834
1.542
1.54848
1.54371
1.54012
1.53385
1.52606
1.51609
1.50431
1.49065
1.47506
1.45758
1.4382
1.41708
1.39419
1.36968
1.34368
1.31635
1.28793
1.25825
1.22676
1.19468
1.16205
1.12905
1.09591
1.06266
1.02968
0.997398
0.965075
0.936508
0.914343
0.893613
0.873305
0.853311
0.833669
0.814459
0.795717
0.77746
0.759745
0.742271
0.72537
0.708732
0.692605
0.677167
0.66234
0.648008
0.634209
0.620974
0.608334
0.596286
0.584774
0.573766
0.563255
0.553242
0.543712
0.534636
0.525999
0.517785
0.509979
0.502555
0.495494
0.488766
0.482354
0.476196
0.470322
0.464509
0.459089
0.453055
0.448046
0.440227
0.435436
0.411099
0.0339807
0.0743329
0.103153
0.124497
0.141832
0.156447
0.168907
0.17955
0.188878
0.198252
0.206267
0.214048
0.222479
0.231492
0.240025
0.247281
0.259636
0.276423
0.296451
0.319476
0.34621
0.375321
0.404968
0.434593
0.46525
0.497397
0.531125
0.566361
0.603024
0.640954
0.679989
0.719881
0.760448
0.80148
0.842815
0.884267
0.925704
0.966978
1.00799
1.04861
1.08879
1.12844
1.16752
1.20599
1.24384
1.28104
1.3176
1.35352
1.3888
1.42347
1.45753
1.49101
1.52394
1.55633
1.58812
1.61934
1.64999
1.68009
1.70964
1.73868
1.76721
1.79525
1.82282
1.84996
1.87666
1.90298
1.92893
1.95454
1.97984
2.00489
2.02968
2.05429
2.07871
2.10304
2.12724
2.15142
2.17553
2.19969
2.22387
2.24816
2.27254
2.29709
2.32178
2.3467
2.37177
2.39709
2.42257
2.44829
2.4742
2.50039
2.5268
2.55333
2.57988
2.60637
2.6327
2.65872
2.68429
2.70921
2.73337
2.75709
2.78028
2.80264
2.82406
2.84454
2.86481
2.88437
2.90035
2.9164
2.92999
2.93864
2.95519
2.95841
2.96667
2.96677
2.9673
2.96233
2.95395
2.94186
2.92594
2.90605
2.88205
2.85389
2.8217
2.78561
2.74582
2.7026
2.65619
2.60694
2.55513
2.50129
2.44575
2.38889
2.33107
2.27261
2.21378
2.1551
2.09687
2.03906
1.98234
1.92651
1.87162
1.81786
1.7654
1.71437
1.66489
1.61696
1.57042
1.52458
1.48022
1.43755
1.39667
1.3576
1.32013
1.28398
1.24927
1.21606
1.1844
1.15422
1.12538
1.09782
1.07152
1.04649
1.02265
0.999937
0.978312
0.957736
0.938157
0.919522
0.901778
0.884872
0.868747
0.853339
0.838603
0.824417
0.810874
0.797444
0.785251
0.770922
0.760069
0.726525
0.0628719
0.115038
0.149245
0.174369
0.194968
0.212834
0.228933
0.243974
0.258608
0.273405
0.288354
0.303982
0.320837
0.33927
0.359454
0.381658
0.406552
0.434026
0.46368
0.495223
0.528546
0.56364
0.600848
0.639748
0.680176
0.722211
0.765878
0.811119
0.857841
0.905886
0.955047
1.00511
1.05589
1.1072
1.15886
1.2107
1.26255
1.31428
1.36576
1.41689
1.46758
1.51777
1.5674
1.61643
1.66484
1.7126
1.7597
1.80615
1.85192
1.89704
1.9415
1.98531
2.02847
2.07098
2.11285
2.15408
2.19467
2.23464
2.27398
2.3127
2.35081
2.38831
2.42521
2.46153
2.49726
2.53242
2.56701
2.60106
2.63455
2.66753
2.69998
2.73194
2.76342
2.79443
2.82499
2.85512
2.88483
2.91415
2.9431
2.97171
2.99999
3.02797
3.05567
3.08313
3.11035
3.13737
3.1642
3.19086
3.21741
3.24389
3.27034
3.29673
3.32303
3.34925
3.3754
3.40147
3.42743
3.45324
3.47879
3.50408
3.52896
3.55329
3.577
3.6001
3.62231
3.64358
3.66299
3.68145
3.6977
3.71161
3.72453
3.73204
3.73662
3.73791
3.7362
3.72989
3.71912
3.70364
3.68326
3.65783
3.62725
3.59152
3.55074
3.50509
3.45481
3.40021
3.34164
3.27952
3.2143
3.14647
3.07648
3.00479
2.9318
2.85789
2.78344
2.70904
2.63537
2.56272
2.49129
2.42106
2.3521
2.28458
2.21869
2.15457
2.09234
2.03205
1.97367
1.91704
1.86232
1.80959
1.75894
1.71035
1.66365
1.61831
1.57471
1.53294
1.49303
1.45492
1.41837
1.38337
1.34994
1.31806
1.28764
1.2586
1.23092
1.20454
1.1794
1.15544
1.1326
1.11081
1.09002
1.07014
1.05114
1.03291
1.01549
0.998606
0.982887
0.966547
0.954552
0.92709
0.0962556
0.159235
0.198774
0.228029
0.252209
0.273449
0.29293
0.311477
0.32977
0.348388
0.367786
0.388456
0.410853
0.435318
0.46204
0.491079
0.522398
0.555801
0.591082
0.628145
0.667066
0.708023
0.751125
0.796238
0.843247
0.892088
0.942705
0.994996
1.04883
1.10402
1.16039
1.21777
1.27597
1.3348
1.39408
1.45364
1.51332
1.57298
1.6325
1.69178
1.75072
1.80925
1.86731
1.92484
1.98182
2.03819
2.09396
2.14908
2.20356
2.25737
2.31052
2.36299
2.41479
2.4659
2.51632
2.56604
2.61507
2.66339
2.71101
2.75791
2.80408
2.84954
2.89425
2.93823
2.98145
3.02392
3.06562
3.10654
3.14669
3.18605
3.22463
3.26241
3.29941
3.33562
3.37103
3.40567
3.43953
3.47262
3.50496
3.53656
3.56745
3.59765
3.62719
3.65609
3.6844
3.71214
3.73935
3.76609
3.79241
3.81841
3.84413
3.86959
3.89482
3.91986
3.94475
3.96951
3.99413
4.01859
4.04284
4.06683
4.09047
4.11366
4.13633
4.15838
4.17956
4.19975
4.21853
4.23595
4.25139
4.26465
4.27547
4.28185
4.28482
4.28457
4.28059
4.27202
4.25855
4.23987
4.21574
4.18599
4.15049
4.10924
4.06232
4.00991
3.95226
3.88971
3.82266
3.75157
3.67695
3.59932
3.51917
3.437
3.35329
3.2686
3.18349
3.09859
3.01445
2.93143
2.84973
2.76946
2.69074
2.61372
2.53859
2.4655
2.39456
2.32584
2.25934
2.19503
2.13297
2.07316
2.01563
1.96037
1.9073
1.85618
1.80707
1.75997
1.71487
1.67172
1.63012
1.5902
1.55202
1.51556
1.4807
1.44735
1.4155
1.38512
1.35611
1.32842
1.302
1.27676
1.25265
1.22961
1.20758
1.18648
1.16634
1.14702
1.12891
1.11109
1.09763
1.0744
0.131195
0.203894
0.249223
0.283017
0.311021
0.335671
0.358323
0.37992
0.401218
0.422873
0.445468
0.469519
0.495459
0.523585
0.554049
0.586859
0.621921
0.659097
0.698283
0.739458
0.782693
0.828082
0.875675
0.925434
0.977295
1.03118
1.08699
1.1446
1.20387
1.26462
1.3267
1.38991
1.45408
1.51902
1.58456
1.65053
1.71679
1.7832
1.84964
1.91599
1.98216
2.04806
2.11362
2.17878
2.24349
2.30769
2.37134
2.43443
2.4969
2.55875
2.61994
2.68047
2.74031
2.79945
2.85787
2.91556
2.97249
3.02866
3.08404
3.13861
3.19236
3.24526
3.29729
3.34843
3.39866
3.44794
3.49625
3.54358
3.58989
3.63516
3.67937
3.72251
3.76455
3.80548
3.8453
3.88398
3.92153
3.95795
3.99324
4.02742
4.0605
4.0925
4.12346
4.15341
4.18238
4.21043
4.23761
4.26396
4.28958
4.31454
4.33894
4.36281
4.38621
4.4092
4.43183
4.45415
4.47619
4.49794
4.51939
4.54053
4.56129
4.58162
4.60144
4.62064
4.63904
4.65647
4.67266
4.68746
4.7004
4.71117
4.71903
4.723
4.724
4.72166
4.71521
4.70412
4.68795
4.66635
4.63902
4.60573
4.56633
4.52079
4.46914
4.41156
4.34829
4.27968
4.20614
4.12817
4.04628
3.96102
3.87294
3.78263
3.69072
3.59784
3.50462
3.41163
3.31942
3.22835
3.13868
3.05059
2.96423
2.87979
2.79744
2.71733
2.63957
2.56425
2.49138
2.42098
2.35307
2.28763
2.22466
2.16414
2.10601
2.05013
1.99645
1.94495
1.89559
1.84832
1.80294
1.75943
1.71777
1.67792
1.6397
1.60304
1.56798
1.53449
1.50244
1.47179
1.44251
1.4145
1.38772
1.3621
1.3376
1.31417
1.29181
1.2705
1.25047
1.23134
1.21594
1.19435
0.165667
0.247089
0.298662
0.337265
0.369217
0.397269
0.422949
0.447313
0.471195
0.495304
0.520267
0.546619
0.574797
0.605107
0.63773
0.672722
0.710057
0.749676
0.791534
0.835627
0.881991
0.930669
0.981681
1.035
1.09058
1.14833
1.20815
1.2699
1.33343
1.3986
1.46523
1.53315
1.60219
1.67218
1.74297
1.8144
1.88632
1.95859
2.03111
2.10374
2.17638
2.24894
2.32133
2.39347
2.4653
2.53675
2.60777
2.6783
2.74831
2.81775
2.88659
2.9548
3.02235
3.08921
3.15534
3.22072
3.28532
3.34911
3.41206
3.47413
3.53529
3.5955
3.65473
3.71293
3.77006
3.82608
3.88095
3.93462
3.98705
4.0382
4.08804
4.13652
4.18361
4.22927
4.27349
4.31624
4.3575
4.39726
4.43552
4.47228
4.50755
4.54134
4.5737
4.60464
4.63422
4.66247
4.68945
4.71523
4.73988
4.76352
4.78621
4.80802
4.82904
4.84932
4.86896
4.88802
4.90655
4.9246
4.94218
4.9593
4.97595
4.9921
5.00771
5.02269
5.03691
5.05022
5.0624
5.07325
5.08245
5.08943
5.09326
5.09431
5.09252
5.08724
5.07789
5.06396
5.04497
5.02052
4.99024
4.95387
4.9112
4.86214
4.80671
4.74504
4.67734
4.60397
4.52532
4.44189
4.35421
4.26288
4.16856
4.07194
3.97368
3.87444
3.77487
3.67554
3.57695
3.47952
3.38352
3.28919
3.19672
3.10632
3.01815
2.93238
2.84911
2.76843
2.69038
2.61498
2.54224
2.47216
2.4047
2.33984
2.27752
2.21763
2.16013
2.10494
2.052
2.00125
1.95258
1.90591
1.86121
1.81842
1.77742
1.73815
1.70055
1.66459
1.63006
1.59698
1.56534
1.53501
1.50597
1.47817
1.45157
1.42614
1.40189
1.37883
1.35716
1.33676
1.31953
1.29777
0.198401
0.287765
0.345382
0.388736
0.424591
0.455961
0.484522
0.511427
0.537571
0.563706
0.590487
0.618472
0.648123
0.679789
0.713708
0.750011
0.788757
0.829956
0.873612
0.919727
0.968316
1.01939
1.07294
1.12892
1.18729
1.24795
1.31079
1.37568
1.4425
1.51108
1.58128
1.65294
1.72591
1.80004
1.87517
1.95116
2.02788
2.10519
2.18296
2.26108
2.33944
2.41792
2.49644
2.5749
2.65322
2.73133
2.80915
2.88662
2.96369
3.04029
3.11639
3.19193
3.26686
3.34116
3.41476
3.48764
3.55974
3.63102
3.70144
3.77094
3.83948
3.907
3.97344
4.03875
4.10287
4.16574
4.22729
4.28747
4.3462
4.40343
4.4591
4.51315
4.56553
4.61618
4.66507
4.71215
4.75738
4.80075
4.84223
4.88182
4.91952
4.95533
4.98927
5.02138
5.05168
5.08023
5.10708
5.13229
5.15594
5.17812
5.19894
5.21846
5.23677
5.25396
5.27013
5.28538
5.29978
5.31341
5.32631
5.33854
5.35011
5.36104
5.37133
5.38094
5.3898
5.39776
5.40465
5.41032
5.41438
5.41621
5.41563
5.41273
5.40703
5.39799
5.3851
5.36783
5.34568
5.3182
5.28499
5.24571
5.20011
5.14804
5.08946
5.02447
4.95324
4.87608
4.79339
4.70566
4.61348
4.51752
4.4185
4.31712
4.21407
4.11002
4.0056
3.90138
3.79787
3.69548
3.59454
3.49531
3.39802
3.30289
3.21009
3.11978
3.03207
2.94706
2.8648
2.78532
2.70862
2.6347
2.56353
2.49506
2.42924
2.366
2.30525
2.24694
2.19097
2.13729
2.08579
2.03641
1.98906
1.9437
1.90025
1.85862
1.81875
1.78059
1.74399
1.70892
1.67532
1.64303
1.61208
1.5824
1.55399
1.52682
1.5009
1.4763
1.45314
1.43148
1.41258
1.3901
0.228443
0.324642
0.387779
0.43558
0.475135
0.509663
0.540956
0.570235
0.598445
0.626371
0.654689
0.683986
0.714754
0.747388
0.782188
0.819356
0.859021
0.901255
0.946097
0.993561
1.04365
1.09636
1.15166
1.2095
1.2698
1.33249
1.39746
1.46459
1.53375
1.60482
1.67766
1.75213
1.8281
1.90542
1.98398
2.06362
2.14423
2.22567
2.30782
2.39057
2.47379
2.55738
2.64124
2.72526
2.80936
2.89344
2.97742
3.06123
3.1448
3.22806
3.31094
3.39339
3.47535
3.55675
3.63755
3.71769
3.79711
3.87574
3.95353
4.03041
4.10631
4.18117
4.2549
4.32744
4.3987
4.4686
4.53705
4.60398
4.66929
4.73291
4.79474
4.85472
4.91276
4.9688
5.02275
5.07457
5.1242
5.1716
5.21672
5.25955
5.30008
5.33829
5.37419
5.4078
5.43916
5.46829
5.49525
5.52008
5.54288
5.56372
5.58271
5.59992
5.61545
5.6294
5.64188
5.65301
5.66291
5.67166
5.67935
5.68603
5.69178
5.69667
5.70071
5.70395
5.70638
5.70792
5.70825
5.70726
5.70493
5.70084
5.69483
5.68664
5.67588
5.66209
5.64478
5.62342
5.59751
5.56657
5.53015
5.48787
5.43941
5.38456
5.32323
5.25545
5.18135
5.10121
5.01543
4.92454
4.82913
4.72992
4.62762
4.52293
4.41654
4.3091
4.20124
4.09352
3.98644
3.88043
3.77585
3.67299
3.57211
3.47342
3.3771
3.28332
3.1922
3.10383
3.01827
2.93557
2.85573
2.77874
2.70456
2.63317
2.56451
2.4985
2.43507
2.37415
2.31566
2.25952
2.20564
2.15394
2.10434
2.05678
2.01119
1.9675
1.92563
1.88551
1.84704
1.81016
1.77479
1.74084
1.70828
1.67701
1.64703
1.61833
1.59095
1.56494
1.54044
1.51755
1.49708
1.4739
0.254952
0.356716
0.424607
0.476347
0.519256
0.556705
0.590566
0.622106
0.652296
0.68194
0.71173
0.742269
0.774076
0.807581
0.843129
0.880976
0.921306
0.964235
1.00983
1.05813
1.10913
1.16282
1.21916
1.27809
1.33954
1.40344
1.46968
1.53816
1.60878
1.68142
1.75597
1.8323
1.91031
1.98988
2.07089
2.15321
2.23673
2.32134
2.40692
2.49334
2.58051
2.6683
2.75662
2.84535
2.9344
3.02367
3.11308
3.20253
3.29195
3.38125
3.47037
3.55922
3.64774
3.73586
3.82351
3.91061
3.99709
4.08288
4.1679
4.25207
4.3353
4.4175
4.49859
4.57845
4.65699
4.73412
4.80971
4.88366
4.95587
5.02622
5.0946
5.16091
5.22505
5.28692
5.34642
5.40347
5.45799
5.50992
5.5592
5.60578
5.64963
5.69073
5.72908
5.76466
5.79751
5.82764
5.8551
5.87992
5.90219
5.92197
5.93938
5.95447
5.96735
5.97814
5.98695
5.9939
5.99915
6.00283
6.005
6.00571
6.00511
6.00332
6.0004
5.99642
5.9914
5.98531
5.97803
5.96955
5.95977
5.94851
5.93557
5.92073
5.90364
5.88389
5.86104
5.8346
5.80405
5.76892
5.72874
5.68308
5.63156
5.5739
5.50996
5.43972
5.36329
5.28093
5.19303
5.10008
5.00267
4.90148
4.79725
4.69065
4.58232
4.47291
4.363
4.25317
4.14389
4.03561
3.92869
3.82347
3.72021
3.61914
3.52044
3.42427
3.33075
3.24
3.15208
3.06703
2.98486
2.90557
2.82913
2.7555
2.68464
2.61647
2.55093
2.48793
2.42741
2.36927
2.31344
2.25984
2.20837
2.15898
2.11159
2.06614
2.02255
1.98074
1.94062
1.90213
1.8652
1.82974
1.79571
1.76305
1.73173
1.70172
1.67305
1.64578
1.62004
1.59596
1.57405
1.55011
0.277264
0.383266
0.455005
0.510047
0.555871
0.595946
0.63219
0.665892
0.698032
0.729414
0.760733
0.792591
0.825517
0.859958
0.896283
0.93478
0.975666
1.01909
1.06514
1.11387
1.16529
1.21939
1.27614
1.33547
1.39734
1.46166
1.52836
1.59735
1.66855
1.74186
1.81719
1.89445
1.97354
2.05437
2.13684
2.22084
2.30627
2.39303
2.48102
2.57012
2.66023
2.75125
2.84306
2.93557
3.02868
3.12228
3.21628
3.31059
3.40511
3.49977
3.59447
3.68913
3.78367
3.87801
3.97207
4.06575
4.15898
4.25166
4.3437
4.435
4.52545
4.61495
4.70339
4.79064
4.87657
4.96107
5.04401
5.12524
5.20462
5.28204
5.35733
5.43038
5.50105
5.56921
5.63475
5.69754
5.75748
5.81448
5.86845
5.91933
5.96706
6.0116
6.05293
6.09102
6.12588
6.15752
6.18597
6.21126
6.23343
6.25259
6.26879
6.28212
6.29267
6.30056
6.30594
6.30879
6.30949
6.30805
6.30456
6.29913
6.29192
6.28305
6.27263
6.26078
6.24756
6.23302
6.21718
6.20006
6.18165
6.16187
6.14061
6.11769
6.09284
6.06575
6.03604
6.00326
5.96694
5.9266
5.88179
5.83212
5.77707
5.71635
5.64979
5.57734
5.49908
5.41522
5.32608
5.23211
5.1338
5.03187
4.92702
4.81988
4.71102
4.60104
4.49051
4.37997
4.26989
4.1607
4.05278
3.94651
3.84215
3.73993
3.64001
3.54257
3.44773
3.35561
3.26628
3.17979
3.09616
3.01539
2.93744
2.8623
2.7899
2.72021
2.65314
2.58862
2.52658
2.46694
2.40961
2.35452
2.3016
2.25075
2.20192
2.15503
2.11001
2.06679
2.02529
1.98542
1.94713
1.91035
1.87503
1.84112
1.8086
1.77745
1.74766
1.71927
1.6924
1.66719
1.64396
1.61923
0.29493
0.403873
0.47852
0.536182
0.58443
0.626786
0.665191
0.700935
0.734991
0.768149
0.801084
0.834384
0.868566
0.904071
0.941271
0.980462
1.02188
1.06568
1.11197
1.16084
1.21229
1.26632
1.32293
1.38206
1.44367
1.5077
1.5741
1.64281
1.71376
1.78688
1.86211
1.93937
2.01861
2.09973
2.18267
2.26734
2.35366
2.44155
2.53091
2.62166
2.7137
2.80692
2.90124
2.99656
3.09277
3.18978
3.28748
3.3858
3.48462
3.58386
3.68342
3.78321
3.88314
3.98312
4.08306
4.18286
4.28243
4.38164
4.4804
4.57859
4.67607
4.77274
4.86845
4.96305
5.05642
5.14838
5.23878
5.32747
5.41427
5.49901
5.58154
5.66167
5.73926
5.81414
5.88615
5.95515
6.021
6.08359
6.14279
6.19851
6.25067
6.29921
6.34407
6.38522
6.42265
6.45634
6.48632
6.51259
6.5352
6.55421
6.5697
6.58173
6.59039
6.5957
6.59794
6.5972
6.59354
6.58712
6.57805
6.56645
6.5525
6.53631
6.51805
6.49784
6.47584
6.45213
6.42685
6.40007
6.37187
6.34228
6.31129
6.27882
6.24472
6.20875
6.1707
6.13014
6.08668
6.03986
5.98926
5.93437
5.87488
5.81051
5.7411
5.66657
5.5869
5.50224
5.41281
5.31894
5.221
5.11975
5.0157
4.90939
4.8014
4.69229
4.58259
4.47279
4.36335
4.25466
4.14711
4.04115
3.93702
3.83491
3.73501
3.63748
3.54243
3.45
3.36027
3.27331
3.18913
3.10772
3.02908
2.95318
2.87997
2.80942
2.74145
2.676
2.613
2.55236
2.49403
2.43791
2.38394
2.33205
2.28215
2.23417
2.18806
2.14373
2.10111
2.06013
2.02073
1.98284
1.94642
1.91144
1.87786
1.84569
1.81493
1.78555
1.75766
1.7314
1.70697
1.68149
0.307765
0.418459
0.495109
0.554706
0.604859
0.64911
0.689405
0.72702
0.762909
0.797832
0.832433
0.867267
0.902818
0.939504
0.977676
1.01762
1.05957
1.10368
1.15009
1.19886
1.25004
1.30363
1.35965
1.41806
1.47885
1.54198
1.60741
1.67512
1.74507
1.81721
1.89152
1.96796
2.04644
2.12694
2.20941
2.29378
2.38001
2.46803
2.55777
2.64916
2.74211
2.83654
2.93237
3.02951
3.12786
3.22733
3.32783
3.42925
3.53152
3.63452
3.73816
3.84234
3.94697
4.05193
4.15714
4.26251
4.3679
4.47321
4.57829
4.68302
4.78726
4.89085
4.99365
5.0955
5.19621
5.29561
5.39352
5.48974
5.58407
5.67633
5.7663
5.85378
5.93858
6.0205
6.09936
6.17497
6.24717
6.31578
6.38068
6.44173
6.49882
6.55186
6.60077
6.64551
6.68602
6.7223
6.75433
6.78211
6.80567
6.82506
6.84032
6.85152
6.8587
6.86201
6.86162
6.85753
6.84986
6.83874
6.82428
6.80663
6.78593
6.76235
6.73603
6.70716
6.67591
6.64245
6.60695
6.5696
6.53055
6.48995
6.44788
6.40443
6.35955
6.31308
6.26469
6.21394
6.161
6.10563
6.04752
5.98638
5.922
5.85404
5.78198
5.70564
5.62495
5.53996
5.4508
5.35769
5.26076
5.16133
5.05952
4.95568
4.85028
4.74378
4.63667
4.52938
4.42233
4.31588
4.21032
4.1061
4.00357
3.90292
3.80432
3.70791
3.61383
3.52219
3.43313
3.34671
3.26293
3.1818
3.10331
3.02745
2.95419
2.88349
2.8153
2.74955
2.68617
2.6251
2.56627
2.50962
2.45507
2.40254
2.35197
2.30329
2.25643
2.21132
2.16789
2.12608
2.08583
2.04708
2.00979
1.97393
1.93948
1.90644
1.87482
1.84459
1.8158
1.78861
1.76311
1.73695
0.315825
0.427236
0.505061
0.565941
0.617479
0.663209
0.705067
0.744311
0.78187
0.818466
0.854699
0.891078
0.92804
0.965962
1.00516
1.0459
1.08838
1.13278
1.1792
1.22773
1.27842
1.3313
1.3864
1.4437
1.50322
1.56494
1.62887
1.695
1.76331
1.83382
1.90652
1.98142
2.05838
2.13743
2.21856
2.30176
2.387
2.47423
2.56342
2.6545
2.74741
2.8421
2.93849
3.0365
3.13605
3.23706
3.33943
3.44308
3.54792
3.65384
3.76076
3.86855
3.97712
4.08631
4.19612
4.30641
4.41706
4.52792
4.63883
4.74966
4.86023
4.9704
5.08
5.18882
5.29669
5.40338
5.50869
5.61239
5.71426
5.81406
5.91155
6.00651
6.09869
6.18787
6.27382
6.35632
6.43516
6.51015
6.5811
6.64786
6.71028
6.76824
6.82164
6.87039
6.91444
6.95375
6.98829
7.01804
7.04301
7.06322
7.07871
7.08952
7.09572
7.09744
7.09483
7.08782
7.0765
7.06098
7.04138
7.01784
6.99049
6.9595
6.92503
6.88729
6.84644
6.80274
6.75641
6.7077
6.65684
6.60415
6.54973
6.49354
6.43542
6.37592
6.31518
6.25412
6.19186
6.12814
6.06272
5.99541
5.92607
5.85376
5.7785
5.70013
5.61851
5.53358
5.44536
5.35393
5.25926
5.16231
5.06327
4.96246
4.86027
4.75708
4.65331
4.54935
4.44557
4.34229
4.23981
4.13895
4.03965
3.94204
3.84626
3.75244
3.66071
3.57107
3.48379
3.39896
3.31659
3.23669
3.15925
3.08426
3.01175
2.94166
2.87396
2.80858
2.74545
2.68453
2.62577
2.56909
2.51444
2.46175
2.41095
2.36196
2.31473
2.2692
2.22529
2.18297
2.14216
2.10281
2.0649
2.02839
1.99327
1.95953
1.9272
1.89624
1.86669
1.83869
1.81228
1.78555
0.319388
0.430625
0.508917
0.570499
0.622925
0.669706
0.712754
0.75328
0.79225
0.830337
0.868076
0.905918
0.944244
0.983374
1.02359
1.06511
1.10812
1.15277
1.19915
1.24736
1.29744
1.34945
1.40342
1.45937
1.51732
1.5773
1.63935
1.7035
1.76971
1.83802
1.90853
1.98128
2.05619
2.13326
2.21251
2.29394
2.37753
2.46328
2.55116
2.64115
2.7332
2.82727
2.92332
3.02129
3.1211
3.2227
3.326
3.43092
3.53738
3.64529
3.75456
3.86507
3.97672
4.08941
4.20311
4.31766
4.4329
4.54868
4.66483
4.78119
4.89754
5.0138
5.12974
5.24517
5.35983
5.4735
5.58594
5.6969
5.80613
5.91334
6.01828
6.12066
6.22023
6.3167
6.40981
6.4993
6.58493
6.66647
6.74369
6.8164
6.8844
6.94756
7.00573
7.05881
7.10672
7.14939
7.18677
7.21883
7.24555
7.26694
7.283
7.29377
7.29929
7.29977
7.29536
7.28578
7.27112
7.25148
7.22695
7.19767
7.16376
7.12537
7.08268
7.03586
6.98515
6.93078
6.87309
6.81233
6.74866
6.68205
6.61324
6.54283
6.47194
6.40026
6.32826
6.25508
6.18131
6.10705
6.03226
5.95686
5.88062
5.80318
5.72432
5.64378
5.56134
5.47683
5.39014
5.30123
5.21014
5.11717
5.02253
4.92646
4.82923
4.73114
4.63251
4.53366
4.4349
4.33648
4.23855
4.14186
4.04652
3.95268
3.86048
3.77004
3.68148
3.59493
3.51069
3.42868
3.34889
3.27131
3.19596
3.12275
3.05182
2.98313
2.91666
2.85234
2.79013
2.72998
2.67186
2.61572
2.5615
2.50912
2.45854
2.40968
2.36249
2.31691
2.2729
2.23039
2.18934
2.14969
2.11143
2.07451
2.03894
2.00472
1.97184
1.9403
1.91015
1.8815
1.85435
1.82718
0.31895
0.429497
0.507593
0.569244
0.621961
0.669244
0.713008
0.754489
0.794614
0.833971
0.87304
0.912205
0.951776
0.991994
1.03314
1.0754
1.11892
1.1638
1.21015
1.25802
1.30748
1.35858
1.41138
1.4659
1.52215
1.58021
1.64018
1.7022
1.76618
1.83217
1.90023
1.97035
2.04254
2.1169
2.19352
2.27242
2.35363
2.43716
2.52302
2.6112
2.70169
2.79446
2.88949
2.98673
3.08614
3.18766
3.29122
3.39676
3.5042
3.61346
3.72444
3.83704
3.95115
4.06661
4.18335
4.30126
4.4202
4.54004
4.66061
4.78173
4.90322
5.02495
5.14666
5.26811
5.38904
5.50915
5.62825
5.74605
5.86225
5.97653
6.08859
6.19813
6.30484
6.40842
6.50854
6.60492
6.69726
6.7853
6.86878
6.94745
7.0211
7.08953
7.15257
7.2101
7.26198
7.30814
7.34852
7.38305
7.4117
7.43442
7.45123
7.46211
7.46711
7.46661
7.46063
7.44869
7.43086
7.40722
7.37786
7.34286
7.30238
7.25652
7.20546
7.14937
7.08848
7.02273
6.95254
6.87837
6.80083
6.72102
6.63904
6.55565
6.47031
6.38401
6.2973
6.21042
6.12381
6.03779
5.95257
5.86819
5.78457
5.70149
5.61872
5.53594
5.45285
5.36915
5.28459
5.19899
5.11222
5.02431
4.93531
4.84532
4.75447
4.66294
4.57094
4.47871
4.3865
4.29452
4.20302
4.11234
4.02271
3.93428
3.84721
3.76161
3.67758
3.59511
3.51461
3.43606
3.35948
3.28489
3.2123
3.14171
3.07328
3.00689
2.9425
2.88005
2.8195
2.76078
2.70392
2.64889
2.59563
2.54409
2.49421
2.44593
2.39921
2.35401
2.31027
2.26793
2.22697
2.18734
2.14901
2.11196
2.07619
2.04169
2.00846
1.97654
1.94597
1.91686
1.88916
1.8617
0.315533
0.424501
0.501794
0.563058
0.615714
0.663215
0.707435
0.749543
0.790385
0.830581
0.870581
0.910725
0.951281
0.992456
1.03451
1.07753
1.1216
1.16679
1.21316
1.26077
1.30968
1.35994
1.41164
1.46486
1.51956
1.57583
1.6337
1.69323
1.75451
1.81767
1.88283
1.95007
2.01945
2.09103
2.16488
2.24107
2.31965
2.40065
2.48411
2.57006
2.6585
2.74944
2.84285
2.93874
3.03705
3.13777
3.24083
3.34619
3.45378
3.56352
3.67533
3.78912
3.90479
4.02223
4.14134
4.26201
4.3841
4.50743
4.63185
4.75715
4.88309
5.0095
5.13617
5.26288
5.38935
5.51531
5.64052
5.76463
5.88729
6.00814
6.12688
6.24317
6.35666
6.467
6.57383
6.67681
6.77563
6.86997
6.95953
7.04402
7.12319
7.19679
7.26463
7.32651
7.3823
7.4319
7.4752
7.51212
7.5426
7.56659
7.58402
7.59488
7.5992
7.59773
7.59012
7.57569
7.55452
7.52669
7.49222
7.4512
7.40361
7.34957
7.28924
7.22281
7.15057
7.07329
6.9911
6.90444
6.81413
6.71979
6.62247
6.52289
6.4216
6.31938
6.21703
6.11526
6.0147
5.91595
5.81942
5.72538
5.6339
5.54489
5.45814
5.37328
5.28993
5.20765
5.12603
5.0447
4.96334
4.88174
4.79974
4.71728
4.63431
4.55089
4.4671
4.38308
4.299
4.21502
4.13135
4.0482
3.96578
3.88425
3.80373
3.72434
3.64619
3.56937
3.49403
3.42028
3.34815
3.27769
3.20891
3.14176
3.07645
3.01293
2.95117
2.89115
2.83282
2.77617
2.72126
2.668
2.61633
2.56621
2.51757
2.47037
2.42458
2.38017
2.3371
2.29531
2.25479
2.2155
2.1774
2.14048
2.10476
2.0702
2.03687
2.00479
1.97402
1.94463
1.91656
1.889
0.308113
0.415179
0.491245
0.551687
0.603841
0.651144
0.695484
0.738038
0.779576
0.82065
0.861657
0.902887
0.944551
0.986795
1.02972
1.07345
1.11808
1.16366
1.21024
1.25785
1.30654
1.35632
1.40722
1.45924
1.51251
1.56712
1.62323
1.68088
1.74016
1.80118
1.86406
1.92889
1.99579
2.06484
2.13613
2.20976
2.28579
2.3643
2.44534
2.52896
2.6152
2.70407
2.79558
2.88972
2.9865
3.08589
3.18785
3.29234
3.39932
3.50872
3.62047
3.73449
3.85069
3.96898
4.08925
4.21138
4.33523
4.46067
4.58751
4.71557
4.84466
4.97459
5.10512
5.23598
5.36687
5.49745
5.62743
5.7565
5.8843
6.01047
6.13471
6.25661
6.37577
6.4918
6.60431
6.71289
6.81722
6.91696
7.01176
7.10128
7.18522
7.2633
7.33526
7.40088
7.46
7.51246
7.55816
7.59697
7.62879
7.65354
7.67113
7.6815
7.68457
7.68212
7.67251
7.65521
7.63028
7.59774
7.55763
7.51
7.45503
7.39283
7.3235
7.24732
7.16451
7.07572
6.98075
6.88034
6.77508
6.66545
6.55225
6.43637
6.31869
6.20025
6.08206
5.96515
5.85047
5.73888
5.63106
5.52749
5.42843
5.33389
5.24366
5.15738
5.07453
4.99455
4.91683
4.84081
4.76596
4.69183
4.61808
4.5444
4.47063
4.39663
4.32238
4.24791
4.17328
4.09862
4.02406
3.94975
3.87584
3.80246
3.72974
3.65778
3.58668
3.51655
3.44749
3.37961
3.31298
3.24765
3.18366
3.12103
3.05986
3.00015
2.94191
2.88513
2.82979
2.77586
2.7234
2.67239
2.62278
2.57453
2.5276
2.48194
2.43759
2.39446
2.35252
2.31172
2.27205
2.23347