/*--------------------------------*- C++ -*----------------------------------*\
  =========                 |
  \\      /  F ield         | OpenFOAM: The Open Source CFD Toolbox
   \\    /   O peration     | Website:  https://openfoam.org
    \\  /    A nd           | Version:  8
     \\/     M anipulation  |
\*---------------------------------------------------------------------------*/
FoamFile
{
    version     2.0;
    format      ascii;
    class       volScalarField;
    location    "90";
    object      nut;
}
// * * * * * * * * * * * * * * * * * * * * * * * * * * * * * * * * * * * * * //

dimensions      [0 2 -1 0 0 0 0];

internalField   nonuniform List<scalar> 
12225
(
4.14921e-05
3.93423e-05
3.74812e-05
3.54355e-05
3.37808e-05
3.24262e-05
3.15043e-05
3.09165e-05
3.09227e-05
3.10997e-05
3.15893e-05
3.21064e-05
3.3205e-05
3.38387e-05
3.52147e-05
3.57453e-05
3.77173e-05
4.01411e-05
0.000332255
0.000215137
0.000179282
0.000157644
0.000146222
0.000138162
0.000132667
0.000131723
0.0001294
0.000130159
0.000128939
0.000129551
0.000128549
0.000128697
0.000127971
0.00012759
0.00012765
0.000126732
0.000668765
0.000450555
0.000355804
0.000309747
0.000275307
0.000250995
0.000231688
0.000217147
0.000202553
0.000191958
0.000182448
0.000174907
0.000169189
0.000163196
0.000160075
0.000154789
0.000153472
0.000148695
0.000801652
0.000691584
0.000572647
0.000499945
0.000449422
0.000411841
0.000380761
0.000355811
0.000333904
0.000314479
0.000298145
0.000281138
0.000270007
0.000255305
0.000247579
0.000235049
0.000229321
0.000218542
0.000839617
0.000810141
0.000740785
0.000676303
0.000623977
0.000581234
0.000545859
0.000514335
0.00048942
0.000464082
0.00044563
0.000423513
0.000409463
0.000389987
0.000378974
0.000361781
0.000353123
0.000337176
0.000850345
0.000843265
0.000819558
0.000786471
0.000750821
0.000715763
0.00068575
0.000655936
0.000632451
0.000607206
0.000588752
0.000566753
0.00055178
0.000532319
0.000519873
0.000502376
0.00049207
0.000475123
0.000851581
0.000851014
0.0008433
0.000833452
0.000817141
0.000796879
0.000777861
0.0007566
0.000738816
0.000718917
0.000703319
0.000685235
0.000671691
0.000655277
0.000643542
0.000628381
0.000618519
0.000603203
0.000851584
0.000851811
0.000850043
0.000847449
0.000841405
0.000833736
0.000824788
0.000813365
0.000802754
0.00079033
0.00077956
0.000767278
0.000757113
0.000745318
0.000735987
0.000724673
0.000716523
0.000704591
0.000851676
0.000851527
0.00085102
0.000850336
0.000848877
0.000846159
0.000843019
0.000838267
0.000833367
0.000827285
0.000821115
0.00081462
0.000808232
0.000801221
0.000794935
0.000787824
0.000781924
0.000774066
0.000851756
0.000851384
0.000851046
0.000850629
0.000850248
0.000849361
0.0008484
0.000846763
0.000844935
0.000842493
0.000839869
0.000836718
0.000833685
0.000829996
0.00082677
0.000822645
0.000819584
0.00081484
0.000851786
0.000851357
0.000851013
0.000850612
0.000850329
0.000849901
0.000849522
0.00084892
0.00084829
0.000847373
0.000846437
0.000845134
0.000843933
0.000842271
0.000840893
0.000838893
0.000837471
0.000835137
0.000851789
0.000851359
0.000850996
0.000850605
0.000850291
0.000849936
0.000849643
0.000849274
0.000848946
0.000848491
0.000848081
0.000847482
0.000846965
0.000846199
0.000845586
0.000844647
0.000843972
0.000842865
0.000851786
0.000851363
0.000850986
0.000850604
0.000850269
0.000849925
0.000849628
0.000849309
0.000849036
0.000848719
0.00084845
0.000848109
0.000847823
0.000847439
0.000847125
0.000846686
0.000846342
0.000845847
0.000851783
0.000851364
0.000850979
0.000850602
0.000850256
0.000849916
0.000849606
0.000849297
0.000849018
0.000848734
0.00084848
0.000848213
0.000847975
0.000847718
0.000847489
0.000847236
0.00084701
0.000846756
0.000851781
0.000851364
0.000850973
0.000850598
0.000850247
0.000849909
0.000849591
0.000849285
0.000848998
0.00084872
0.000848459
0.000848205
0.000847968
0.000847736
0.000847518
0.000847305
0.000847103
0.000846906
0.00085178
0.000851364
0.000850969
0.000850595
0.00085024
0.000849901
0.000849581
0.000849275
0.000848984
0.000848706
0.000848442
0.000848189
0.000847949
0.000847718
0.000847499
0.00084729
0.00084709
0.000846898
0.000851779
0.000851363
0.000850967
0.000850591
0.000850234
0.000849895
0.000849573
0.000849266
0.000848974
0.000848695
0.000848429
0.000848176
0.000847934
0.000847703
0.000847483
0.000847272
0.000847071
0.000846879
0.000851779
0.000851362
0.000850965
0.000850589
0.000850231
0.000849891
0.000849568
0.00084926
0.000848967
0.000848687
0.000848421
0.000848167
0.000847924
0.000847692
0.000847471
0.00084726
0.000847058
0.000846865
0.000851779
0.000851362
0.000850965
0.000850588
0.00085023
0.00084989
0.000849566
0.000849258
0.000848964
0.000848684
0.000848417
0.000848163
0.00084792
0.000847688
0.000847466
0.000847254
0.000847052
0.000846859
0.000851779
0.000851362
0.000850965
0.000850589
0.000850232
0.000849892
0.000849569
0.000849261
0.000848968
0.000848688
0.000848422
0.000848168
0.000847925
0.000847693
0.000847472
0.00084726
0.000847057
0.000846864
0.000851779
0.000851363
0.000850967
0.000850592
0.000850235
0.000849897
0.000849574
0.000849269
0.000848975
0.000848698
0.000848429
0.000848176
0.000847928
0.000847695
0.000847464
0.000847248
0.000847031
0.000846829
0.000851777
0.000851366
0.000850968
0.000850599
0.000850241
0.000849908
0.000849582
0.000849277
0.000848968
0.000848676
0.000848371
0.000848081
0.000847767
0.00084747
0.00084714
0.000846833
0.000846483
0.000846167
0.000851773
0.000851376
0.000850971
0.000850615
0.000850241
0.000849891
0.000849481
0.000849058
0.000848535
0.000847986
0.000847312
0.000846619
0.000845787
0.000844965
0.000843988
0.000843071
0.00084197
0.000841003
0.000851767
0.000851415
0.000850964
0.000850548
0.000849862
0.000848969
0.000847615
0.000845983
0.000843918
0.000841654
0.000838982
0.00083625
0.000833165
0.000830176
0.000826843
0.00082378
0.000820308
0.000817327
0.000851859
0.00085138
0.000850196
0.000848244
0.000844473
0.000839362
0.000832778
0.00082568
0.000817996
0.000810056
0.000801684
0.000793711
0.000785442
0.000777843
0.000769914
0.000762905
0.00075537
0.000749086
0.000852108
0.000847667
0.000839903
0.000827146
0.000808722
0.000789661
0.000770012
0.000751456
0.000733377
0.000716979
0.000701055
0.000686922
0.000673015
0.000660887
0.000648646
0.000638251
0.000627324
0.000618445
0.000843241
0.000822506
0.000775196
0.000726462
0.000684924
0.000649877
0.000618517
0.000592079
0.00056848
0.000548417
0.000529843
0.000514155
0.000498977
0.000486261
0.000473511
0.000463049
0.00045204
0.000443266
0.000795684
0.000668243
0.000570641
0.000509918
0.000465638
0.000431217
0.000404201
0.000382542
0.000364288
0.000349165
0.00033607
0.000325197
0.000314704
0.000306419
0.000298204
0.00029163
0.000284609
0.000279283
0.000501315
0.000348359
0.00029268
0.000259188
0.000236343
0.00022119
0.000211646
0.000203883
0.000198594
0.000195106
0.000192255
0.000190403
0.000188622
0.000187482
0.000186212
0.000185519
0.000184603
0.000184193
7.27386e-05
7.02254e-05
6.79543e-05
6.56134e-05
6.3383e-05
6.12758e-05
5.94944e-05
5.79541e-05
5.67103e-05
5.57002e-05
5.49746e-05
5.44115e-05
5.41011e-05
5.38697e-05
5.38733e-05
5.39238e-05
5.40572e-05
5.42893e-05
5.1046e-06
6.11581e-05
8.88572e-05
0.000112869
0.000133731
0.000151449
0.000165698
0.000176186
0.000183752
0.00019297
0.000191231
0.00018952
0.000192652
0.000197014
0.000183554
2.175e-05
1.7381e-05
1.6889e-05
1.83941e-05
2.14423e-05
2.94355e-05
4.16441e-05
5.02903e-05
5.31569e-05
5.55302e-05
5.78764e-05
6.02698e-05
6.26731e-05
6.51032e-05
6.75176e-05
6.99179e-05
7.22724e-05
7.4583e-05
7.68285e-05
7.90123e-05
8.11197e-05
8.31575e-05
8.51184e-05
8.70103e-05
8.88263e-05
9.05759e-05
9.22541e-05
9.38706e-05
9.54217e-05
9.69169e-05
9.83536e-05
9.97401e-05
0.000101075
0.000102366
0.000103611
0.000104818
0.000105986
0.000107118
0.000108214
0.000109275
0.000110303
0.000111299
0.000112266
0.000113203
0.000114114
0.000114998
0.00011586
0.000116697
0.000117516
0.000118312
0.000119093
0.000119854
0.000120605
0.000121339
0.000122066
0.000122778
0.000123489
0.000124187
0.000124887
0.000125576
0.00012627
0.000126955
0.000127647
0.000128332
0.000129027
0.000129715
0.000130414
0.000131106
0.00013181
0.000132504
0.000133208
0.000133901
0.000134601
0.000135291
0.000135983
0.000136667
0.000137339
0.000137995
0.000138629
0.000139237
0.000139811
0.000140345
0.000140827
0.000141333
0.000141775
0.000142124
0.000142418
0.000142361
0.000141082
0.000142653
0.00014456
0.000142224
0.00014283
0.000143417
0.000143051
0.000144743
0.000144174
0.000144216
0.00014396
0.000143743
0.000143362
0.000142924
0.0001424
0.000141792
0.000141095
0.000140298
0.000139416
0.000138432
0.000137352
0.000136174
0.000134899
0.000133552
0.00013224
0.000130656
0.000129028
0.000127319
0.000125543
0.00012372
0.000121828
0.000119834
0.000117954
0.000115642
0.00011291
0.000111283
0.000109891
0.00010852
0.000107145
0.000105768
0.000104387
0.000103032
0.00010166
0.00010037
9.90284e-05
9.7757e-05
9.646e-05
9.51577e-05
9.38855e-05
9.26605e-05
9.14551e-05
9.02712e-05
8.91151e-05
8.79896e-05
8.6903e-05
8.58505e-05
8.4829e-05
8.38378e-05
8.2879e-05
8.19533e-05
8.10592e-05
8.01958e-05
7.9363e-05
7.85604e-05
7.77865e-05
7.70405e-05
7.63205e-05
7.56254e-05
7.49507e-05
7.42992e-05
7.36527e-05
7.30405e-05
7.23701e-05
7.18224e-05
7.08988e-05
7.06561e-05
6.824e-05
1.04282e-05
7.57001e-05
0.000154173
0.000218673
0.000268697
0.000305942
0.000331752
0.000347271
0.000354098
0.000355717
0.000352587
0.000346991
0.000338844
0.000324302
0.000295756
0.000246934
0.000235813
0.000237923
0.000246299
0.000260405
0.000280559
0.000303724
0.000320802
0.000332292
0.000343176
0.000354894
0.000367759
0.000381805
0.000396962
0.000413108
0.00043025
0.000448249
0.000466913
0.00048606
0.000505495
0.00052503
0.000544468
0.000563761
0.000582814
0.000601519
0.00061979
0.000637558
0.000654774
0.000671405
0.000687434
0.000702851
0.00071766
0.000731864
0.00074548
0.000758525
0.000771028
0.000783011
0.000794519
0.000805557
0.000816079
0.000826092
0.000835615
0.000844651
0.000853222
0.000861331
0.000869
0.00087623
0.000883051
0.000889467
0.000895511
0.000901189
0.00090654
0.000911572
0.00091633
0.000920829
0.000925119
0.000929219
0.000933182
0.000937033
0.000940826
0.000944584
0.000948363
0.000952188
0.000956124
0.000960205
0.000964493
0.000969024
0.000973863
0.000979047
0.000984629
0.000990631
0.000997096
0.00100404
0.00101152
0.00101955
0.00102822
0.00103748
0.0010473
0.00105761
0.00106826
0.00107905
0.0010897
0.00109984
0.0011091
0.0011186
0.00112866
0.00113934
0.00115039
0.00116347
0.0011718
0.00118484
0.0011866
0.00120023
0.00120532
0.00121195
0.00122488
0.00122958
0.00124077
0.00124642
0.00125477
0.00126032
0.00126504
0.00126868
0.00127117
0.00127241
0.00127226
0.0012707
0.00126798
0.00126385
0.00125833
0.00125145
0.0012433
0.00123441
0.00122435
0.00121333
0.00120141
0.00118867
0.00117526
0.00116126
0.00114653
0.00113167
0.00111605
0.0010963
0.001075
0.00105312
0.00103106
0.00100907
0.000987308
0.000965827
0.000944826
0.000924159
0.000904184
0.000884344
0.000865119
0.000846596
0.000828893
0.000811901
0.000795475
0.000779332
0.000763651
0.000748498
0.000733885
0.000719808
0.000706148
0.000692902
0.000680098
0.000667755
0.00065584
0.000644329
0.000633216
0.000622501
0.000612163
0.000602182
0.000592538
0.000583215
0.000574167
0.000565406
0.000556806
0.000548493
0.000540116
0.000531884
0.000523729
0.000512175
0.000494329
0.000446513
1.91793e-05
0.000109228
0.000213488
0.000301707
0.000372717
0.000427733
0.000467809
0.000494851
0.000510949
0.000518737
0.000521549
0.000521512
0.000519616
0.000515768
0.000509654
0.000502973
0.000506321
0.000517705
0.000535533
0.000559394
0.000585749
0.000610625
0.0006344
0.000657889
0.00068255
0.000709122
0.000737809
0.000768557
0.000801163
0.000836343
0.000873381
0.000911458
0.000950188
0.00098929
0.0010285
0.00106758
0.00110632
0.00114454
0.0011821
0.00121888
0.00125477
0.00128964
0.00132347
0.00135624
0.00138794
0.00141858
0.00144815
0.00147668
0.00150419
0.00153071
0.00155625
0.00158086
0.00160456
0.00162737
0.0016493
0.00167037
0.00169061
0.00171003
0.00172866
0.00174652
0.00176362
0.00178
0.00179567
0.00181066
0.001825
0.00183872
0.00185184
0.00186439
0.00187643
0.00188797
0.00189906
0.00190976
0.00192009
0.00193012
0.0019399
0.00194946
0.00195887
0.00196819
0.00197748
0.00198679
0.0019962
0.00200577
0.00201556
0.00202565
0.00203607
0.00204689
0.00205815
0.0020699
0.00208217
0.00209501
0.00210847
0.00212252
0.00213711
0.00215215
0.00216752
0.0021831
0.00219877
0.00221442
0.00223004
0.00224622
0.00226294
0.00228012
0.00229759
0.00231535
0.00233086
0.0023474
0.00235991
0.00237805
0.00239191
0.00240768
0.00242417
0.00243604
0.00244733
0.00245724
0.00246692
0.00247421
0.00247951
0.00248264
0.00248346
0.00248186
0.0024777
0.00247097
0.00246175
0.00244994
0.00243559
0.00241879
0.00239971
0.00237872
0.00235575
0.00233099
0.00230461
0.0022768
0.00224777
0.00221771
0.00218664
0.00215492
0.00212237
0.00208707
0.00205003
0.00201224
0.00197407
0.00193589
0.001898
0.00186056
0.00182377
0.00178765
0.00175246
0.00171821
0.00168498
0.00165281
0.00162243
0.00159352
0.00156557
0.00153762
0.0015106
0.00148454
0.00145946
0.00143535
0.00141179
0.00138888
0.00136672
0.00134535
0.00132468
0.00130464
0.00128526
0.00126654
0.00124844
0.00123091
0.00121392
0.00119744
0.00118139
0.00116577
0.00115041
0.0011354
0.00112029
0.00110531
0.00108988
0.00107265
0.0010498
0.00098532
2.92968e-05
0.000145439
0.000272724
0.000380787
0.000468388
0.000537436
0.000590125
0.000628867
0.00065641
0.000675764
0.00068841
0.000697016
0.000703608
0.000709652
0.00071641
0.00072552
0.000739272
0.000757984
0.000781119
0.000807529
0.000835911
0.00086786
0.000902166
0.000938795
0.000978034
0.00102003
0.00106473
0.00111202
0.00116171
0.00121285
0.00126495
0.00131787
0.00137122
0.00142482
0.00147845
0.00153183
0.00158474
0.00163699
0.00168842
0.00173891
0.00178839
0.00183654
0.00188339
0.00192891
0.0019731
0.00201594
0.00205747
0.00209769
0.00213663
0.0021743
0.00221075
0.002246
0.00228008
0.00231302
0.00234484
0.00237558
0.00240525
0.00243389
0.00246152
0.00248816
0.00251385
0.00253861
0.00256247
0.00258545
0.0026076
0.00262893
0.00264948
0.00266929
0.00268839
0.00270682
0.00272461
0.00274183
0.0027585
0.00277467
0.00279041
0.00280575
0.00282075
0.00283547
0.00284997
0.0028643
0.00287853
0.00289272
0.00290692
0.0029212
0.00293561
0.00295019
0.00296499
0.00298006
0.00299542
0.00301113
0.00302721
0.00304365
0.00306041
0.00307744
0.00309469
0.00311209
0.00312959
0.0031471
0.00316479
0.00318284
0.00320123
0.00321985
0.00323852
0.003257
0.0032746
0.00329204
0.00330828
0.00332638
0.00334315
0.00336106
0.00337785
0.00339015
0.00340081
0.00341047
0.0034189
0.00342498
0.00342857
0.00342946
0.00342746
0.00342243
0.00341423
0.0034028
0.00338813
0.00337021
0.00334908
0.00332487
0.00329775
0.00326797
0.00323567
0.00320106
0.00316438
0.00312587
0.0030858
0.00304441
0.00300188
0.00295844
0.002914
0.00286785
0.00282042
0.00277281
0.00272465
0.00267642
0.00262848
0.00258108
0.0025344
0.00248856
0.00244374
0.00240005
0.00235759
0.00231639
0.00227676
0.00223871
0.002202
0.0021664
0.00213262
0.00210017
0.00206902
0.00203921
0.00200979
0.00198117
0.00195354
0.00192695
0.00190118
0.00187615
0.00185195
0.00182859
0.00180595
0.001784
0.00176272
0.00174202
0.00172185
0.00170217
0.00168281
0.0016638
0.00164478
0.00162583
0.00160635
0.00158529
0.00156534
0.00150076
3.99202e-05
0.000179615
0.000328461
0.000454686
0.000557259
0.000639001
0.000702599
0.000751039
0.000787218
0.000813962
0.000833909
0.000849619
0.000863376
0.00087709
0.000892322
0.000910355
0.000932176
0.000958198
0.000988391
0.00102245
0.00106009
0.00110133
0.00114593
0.00119378
0.00124479
0.00129883
0.00135563
0.00141487
0.00147613
0.00153889
0.00160275
0.00166739
0.00173255
0.00179784
0.00186292
0.00192753
0.00199145
0.00205448
0.00211648
0.00217731
0.00223686
0.00229503
0.00235178
0.0024071
0.00246097
0.00251339
0.00256437
0.0026139
0.00266202
0.00270875
0.00275411
0.00279812
0.00284082
0.00288224
0.00292239
0.00296132
0.00299904
0.00303557
0.00307096
0.00310522
0.00313837
0.00317044
0.00320147
0.00323146
0.00326046
0.00328848
0.00331555
0.00334171
0.00336698
0.00339138
0.00341496
0.00343775
0.00345979
0.00348112
0.00350177
0.00352178
0.00354122
0.00356011
0.00357852
0.00359649
0.00361407
0.00363132
0.00364828
0.003665
0.00368152
0.00369787
0.00371412
0.00373032
0.0037465
0.0037627
0.00377894
0.00379525
0.00381162
0.00382805
0.00384454
0.00386109
0.00387769
0.00389436
0.00391116
0.00392814
0.00394526
0.00396246
0.00397961
0.00399656
0.00401308
0.00402927
0.0040449
0.00406098
0.00407724
0.00409371
0.00410804
0.00411833
0.00412757
0.00413568
0.00414196
0.00414589
0.0041472
0.00414564
0.00414099
0.00413308
0.00412174
0.00410688
0.00408846
0.00406646
0.00404092
0.00401195
0.00397971
0.00394441
0.00390626
0.00386549
0.00382237
0.00377719
0.00373022
0.00368175
0.003632
0.00358119
0.00352937
0.00347638
0.00342253
0.00336866
0.00331412
0.00325958
0.00320536
0.00315173
0.00309887
0.00304694
0.00299608
0.00294643
0.00289808
0.0028511
0.00280565
0.00276177
0.00271939
0.00267838
0.00263902
0.00260119
0.00256508
0.00253093
0.00249796
0.00246631
0.0024359
0.00240673
0.00237836
0.00235071
0.00232402
0.00229831
0.00227332
0.00224906
0.00222554
0.00220264
0.00218029
0.0021585
0.00213711
0.00211606
0.00209511
0.00207424
0.00205301
0.00203044
0.00201067
0.00195388
5.04105e-05
0.000209835
0.000378934
0.000522355
0.000638955
0.000732633
0.000806387
0.000863808
0.000908163
0.000942508
0.000969708
0.000992424
0.00101305
0.00103362
0.0010558
0.0010808
0.0011095
0.00114235
0.0011795
0.00122089
0.00126637
0.00131581
0.00136899
0.00142571
0.00148572
0.00154873
0.00161439
0.00168231
0.00175206
0.00182323
0.0018954
0.00196825
0.00204143
0.00211463
0.00218755
0.00225995
0.00233162
0.00240237
0.00247206
0.00254056
0.00260778
0.00267363
0.00273807
0.00280107
0.00286259
0.00292263
0.0029812
0.00303828
0.0030939
0.00314807
0.0032008
0.00325213
0.00330207
0.00335064
0.00339788
0.0034438
0.00348842
0.00353177
0.00357387
0.00361474
0.00365439
0.00369285
0.00373013
0.00376626
0.00380125
0.00383512
0.00386789
0.00389957
0.00393019
0.00395976
0.00398831
0.00401585
0.00404241
0.00406802
0.0040927
0.00411649
0.00413942
0.00416151
0.00418281
0.00420336
0.00422319
0.00424235
0.00426088
0.00427881
0.00429621
0.0043131
0.00432951
0.00434547
0.00436102
0.00437619
0.00439103
0.00440557
0.00441983
0.00443384
0.00444764
0.00446128
0.00447481
0.0044883
0.00450177
0.00451521
0.00452863
0.00454199
0.00455526
0.00456837
0.00458121
0.00459376
0.00460589
0.00461843
0.00463181
0.00464439
0.00465344
0.00466096
0.0046676
0.00467286
0.00467633
0.00467762
0.00467645
0.00467255
0.00466567
0.0046556
0.00464215
0.00462518
0.0046046
0.00458039
0.00455254
0.00452114
0.00448631
0.00444823
0.00440711
0.0043632
0.00431679
0.00426818
0.00421764
0.00416547
0.00411192
0.00405721
0.0040015
0.00394486
0.00388752
0.00382987
0.00377201
0.00371423
0.00365679
0.00359993
0.00354385
0.00348869
0.0034346
0.00338171
0.00333011
0.0032799
0.00323116
0.00318395
0.00313827
0.00309407
0.00305145
0.0030104
0.00297098
0.00293331
0.00289719
0.00286306
0.00283053
0.00279956
0.0027699
0.0027414
0.00271405
0.00268777
0.00266202
0.00263701
0.00261277
0.00258908
0.00256594
0.00254334
0.00252112
0.00249925
0.00247756
0.002456
0.00243427
0.00241165
0.00239157
0.00234202
6.03868e-05
0.000236989
0.00042405
0.000583204
0.000712883
0.000817933
0.000901513
0.000967702
0.00102012
0.00106203
0.00109646
0.00112612
0.00115345
0.00118053
0.00120905
0.00124027
0.00127507
0.00131397
0.00135722
0.00140482
0.00145668
0.00151261
0.00157236
0.00163565
0.00170217
0.00177156
0.00184343
0.0019174
0.00199306
0.00207001
0.00214789
0.00222635
0.00230509
0.00238381
0.00246225
0.00254019
0.00261742
0.0026938
0.00276916
0.00284341
0.00291644
0.00298818
0.00305857
0.00312757
0.00319515
0.00326129
0.00332599
0.00338923
0.00345102
0.00351137
0.00357028
0.00362778
0.00368387
0.00373856
0.00379189
0.00384386
0.00389448
0.00394378
0.00399175
0.00403843
0.0040838
0.00412789
0.00417071
0.00421225
0.00425254
0.00429156
0.00432933
0.00436584
0.00440112
0.00443515
0.00446794
0.00449951
0.00452985
0.00455898
0.00458692
0.00461366
0.00463924
0.00466367
0.00468697
0.00470916
0.00473027
0.00475034
0.00476938
0.00478745
0.00480456
0.00482075
0.00483607
0.00485053
0.00486418
0.00487708
0.00488926
0.00490078
0.00491167
0.004922
0.00493182
0.0049412
0.00495021
0.00495891
0.00496736
0.00497557
0.00498358
0.00499142
0.00499912
0.0050067
0.0050141
0.00502134
0.00502843
0.0050363
0.00504446
0.00505054
0.00505501
0.00505883
0.00506177
0.00506355
0.00506386
0.00506236
0.00505877
0.0050528
0.00504419
0.00503267
0.00501803
0.00500008
0.00497868
0.00495376
0.00492528
0.00489326
0.00485778
0.00481899
0.00477708
0.00473232
0.00468498
0.00463535
0.00458371
0.00453033
0.00447548
0.0044194
0.00436229
0.00430432
0.00424571
0.00418674
0.00412763
0.00406862
0.00400994
0.00395181
0.00389442
0.00383791
0.00378244
0.00372813
0.00367507
0.00362335
0.00357305
0.00352424
0.00347692
0.00343111
0.00338684
0.00334412
0.00330298
0.00326349
0.00322558
0.0031894
0.00315508
0.00312274
0.00309217
0.00306318
0.00303559
0.00300925
0.00298382
0.00295923
0.00293542
0.00291196
0.00288903
0.00286655
0.00284445
0.00282268
0.00280115
0.00277979
0.00275842
0.00273657
0.00271657
0.00267353
6.95569e-05
0.000260629
0.00046322
0.000636488
0.000778268
0.00089413
0.000987332
0.00106225
0.00112276
0.00117233
0.00121403
0.00125065
0.00128461
0.00131798
0.00135246
0.00138934
0.00142954
0.00147364
0.00152192
0.00157445
0.00163116
0.00169185
0.00175626
0.00182408
0.00189497
0.00196856
0.00204448
0.00212234
0.00220176
0.00228239
0.00236389
0.00244594
0.00252825
0.00261058
0.00269268
0.00277435
0.00285541
0.0029357
0.00301511
0.0030935
0.00317081
0.00324694
0.00332184
0.00339546
0.00346777
0.00353874
0.00360834
0.00367657
0.00374341
0.00380887
0.00387294
0.00393563
0.00399694
0.00405688
0.00411545
0.00417267
0.00422853
0.00428304
0.00433621
0.00438802
0.00443848
0.00448759
0.00453535
0.00458174
0.00462675
0.00467038
0.00471262
0.00475345
0.00479286
0.00483083
0.00486737
0.00490244
0.00493605
0.00496818
0.00499883
0.005028
0.00505567
0.00508186
0.00510657
0.00512981
0.0051516
0.00517194
0.00519086
0.00520838
0.00522454
0.00523936
0.00525287
0.00526512
0.00527615
0.00528601
0.00529477
0.00530246
0.00530916
0.00531493
0.00531983
0.00532396
0.00532742
0.00533028
0.00533262
0.00533447
0.00533594
0.00533708
0.00533803
0.00533893
0.00533966
0.00534077
0.00534208
0.00534306
0.00534394
0.00534408
0.00534364
0.00534278
0.00534141
0.00533931
0.00533623
0.00533187
0.00532595
0.00531818
0.00530828
0.00529594
0.00528089
0.00526288
0.00524174
0.00521732
0.00518953
0.00515833
0.00512374
0.00508586
0.00504485
0.00500098
0.00495452
0.00490572
0.00485484
0.00480214
0.00474787
0.00469228
0.00463561
0.00457804
0.0045198
0.00446115
0.00440233
0.00434357
0.00428508
0.00422709
0.00416976
0.00411326
0.00405773
0.00400329
0.00395003
0.00389805
0.00384743
0.00379822
0.00375047
0.00370419
0.00365941
0.00361614
0.00357442
0.00353426
0.00349567
0.0034587
0.00342341
0.00339001
0.00335885
0.00332968
0.00330217
0.00327609
0.00325115
0.00322718
0.00320406
0.00318153
0.00315956
0.00313791
0.00311659
0.00309555
0.00307475
0.00305415
0.00303364
0.00301298
0.00299345
0.00295685
7.76729e-05
0.000280452
0.000496041
0.000681663
0.000834478
0.000960304
0.00106295
0.00114649
0.00121509
0.00127233
0.00132134
0.0013649
0.00140539
0.00144486
0.00148499
0.00152706
0.00157201
0.00162046
0.00167275
0.00172901
0.00178917
0.00185307
0.00192047
0.00199107
0.00206453
0.0021405
0.00221863
0.00229857
0.00237997
0.00246252
0.0025459
0.00262984
0.00271409
0.0027984
0.00288258
0.00296644
0.00304981
0.00313256
0.00321456
0.00329572
0.00337594
0.00345514
0.00353328
0.00361029
0.00368614
0.00376079
0.0038342
0.00390636
0.00397725
0.00404685
0.00411516
0.00418216
0.00424786
0.00431225
0.00437533
0.00443708
0.00449751
0.00455661
0.00461437
0.00467077
0.00472579
0.00477943
0.00483165
0.00488245
0.00493179
0.00497964
0.00502598
0.00507077
0.00511399
0.0051556
0.00519556
0.00523385
0.00527044
0.0053053
0.00533839
0.00536971
0.00539922
0.00542691
0.00545276
0.00547678
0.00549896
0.0055193
0.00553781
0.00555451
0.00556941
0.00558255
0.00559396
0.00560367
0.00561174
0.00561822
0.00562316
0.00562664
0.00562871
0.00562946
0.00562897
0.00562728
0.00562462
0.00562106
0.00561666
0.00561147
0.0056057
0.00559933
0.00559271
0.00558627
0.00558006
0.00557377
0.00556739
0.00556109
0.00555486
0.00554858
0.00554232
0.00553613
0.00552994
0.00552361
0.00551691
0.00550959
0.00550137
0.00549197
0.00548108
0.00546839
0.00545353
0.00543618
0.00541612
0.00539316
0.00536712
0.0053379
0.00530545
0.00526979
0.00523104
0.00518944
0.00514529
0.0050988
0.00505015
0.00499959
0.00494736
0.00489371
0.00483887
0.00478305
0.00472644
0.00466933
0.00461197
0.00455458
0.00449738
0.00444057
0.00438434
0.00432885
0.00427424
0.00422062
0.00416811
0.00411678
0.00406673
0.00401802
0.0039707
0.0039248
0.00388034
0.00383735
0.00379585
0.00375587
0.00371741
0.0036805
0.00364519
0.00361158
0.00358016
0.00355114
0.003524
0.00349843
0.00347414
0.00345092
0.00342862
0.00340704
0.00338609
0.0033656
0.00334553
0.00332563
0.00330594
0.00328643
0.00326706
0.00324777
0.00322908
0.00319789
8.45358e-05
0.000296302
0.000522351
0.00071852
0.00088129
0.00101627
0.00112763
0.00121943
0.0012959
0.00136066
0.00141686
0.00146721
0.00151407
0.0015594
0.00160483
0.00165163
0.00170074
0.00175282
0.00180823
0.00186714
0.00192956
0.00199536
0.00206434
0.00213623
0.00221074
0.00228755
0.00236634
0.0024468
0.00252863
0.00261155
0.00269531
0.00277965
0.00286435
0.00294922
0.00303405
0.0031187
0.00320301
0.00328685
0.00337013
0.00345274
0.0035346
0.00361565
0.00369583
0.00377508
0.00385335
0.00393059
0.00400677
0.00408186
0.00415584
0.00422867
0.00430034
0.00437083
0.00444013
0.00450822
0.0045751
0.00464074
0.00470514
0.00476827
0.0048301
0.00489061
0.00494976
0.00500754
0.00506389
0.00511877
0.00517216
0.00522399
0.00527422
0.0053228
0.00536967
0.00541478
0.00545808
0.00549951
0.00553902
0.00557656
0.00561207
0.00564553
0.00567687
0.00570607
0.00573309
0.00575792
0.00578052
0.0058009
0.00581903
0.00583494
0.00584863
0.00586012
0.00586944
0.00587663
0.00588173
0.0058848
0.00588591
0.00588512
0.00588251
0.00587816
0.00587219
0.00586444
0.00585548
0.00584523
0.00583367
0.00582124
0.00580808
0.00579435
0.00578007
0.00576561
0.00575108
0.00573659
0.00572223
0.00570814
0.00569443
0.00568117
0.00566847
0.00565638
0.00564489
0.00563392
0.00562333
0.00561284
0.00560222
0.00559117
0.00557942
0.00556671
0.00555244
0.00553624
0.00551789
0.00549713
0.0054737
0.00544742
0.00541814
0.00538579
0.00535037
0.00531216
0.0052715
0.00522853
0.00518333
0.00513611
0.0050871
0.00503653
0.00498466
0.00493167
0.0048777
0.00482311
0.00476814
0.00471303
0.00465798
0.00460321
0.00454889
0.00449519
0.00444226
0.00439021
0.00433916
0.00428919
0.0042404
0.00419286
0.00414663
0.00410175
0.00405825
0.00401616
0.0039755
0.0039363
0.00389859
0.00386239
0.00382772
0.00379468
0.00376365
0.00373518
0.0037087
0.00368385
0.00366036
0.00363799
0.00361659
0.00359599
0.00357607
0.00355671
0.00353783
0.00351929
0.00350096
0.00348271
0.0034646
0.00344671
0.00342908
0.00340238
9.00084e-05
0.000308146
0.000542137
0.000746918
0.00091826
0.00106138
0.00118068
0.00128015
0.00136403
0.00143595
0.001499
0.00155583
0.0016087
0.00165952
0.00170984
0.00176089
0.0018136
0.00186861
0.00192635
0.00198703
0.0020507
0.00211729
0.00218665
0.00225858
0.00233282
0.00240911
0.00248718
0.00256677
0.00264762
0.00272949
0.00281219
0.00289553
0.00297933
0.00306339
0.00314754
0.00323164
0.00331556
0.00339919
0.00348244
0.00356523
0.0036475
0.0037292
0.00381027
0.00389064
0.00397024
0.00404902
0.00412694
0.00420397
0.00428008
0.00435523
0.0044294
0.00450256
0.00457469
0.00464576
0.00471577
0.00478469
0.00485249
0.00491914
0.0049846
0.00504882
0.00511176
0.00517336
0.00523359
0.00529237
0.00534965
0.00540536
0.00545942
0.00551176
0.0055623
0.00561098
0.0056577
0.0057024
0.00574498
0.00578538
0.00582353
0.00585934
0.00589277
0.00592374
0.00595222
0.00597814
0.00600147
0.00602219
0.00604027
0.0060557
0.00606849
0.00607865
0.00608619
0.00609115
0.00609357
0.00609352
0.00609106
0.00608627
0.00607924
0.00606988
0.00605856
0.0060453
0.00603012
0.0060133
0.00599498
0.00597542
0.00595471
0.00593307
0.00591075
0.005888
0.00586507
0.00584215
0.00581945
0.00579721
0.00577562
0.00575489
0.0057352
0.00571669
0.00569941
0.00568333
0.00566848
0.00565452
0.00564125
0.00562836
0.00561554
0.00560228
0.00558825
0.00557308
0.00555666
0.00553858
0.00551851
0.00549612
0.00547114
0.00544335
0.00541255
0.00537921
0.00534332
0.00530492
0.00526419
0.00522132
0.0051765
0.00513
0.00508203
0.00503284
0.0049823
0.00493104
0.00487927
0.0048272
0.00477504
0.004723
0.00467126
0.00462002
0.00456941
0.00451954
0.00447054
0.0044225
0.00437552
0.0043297
0.0042851
0.00424176
0.00419972
0.00415902
0.00411969
0.00408177
0.0040453
0.0040103
0.00397681
0.00394491
0.003915
0.00388752
0.00386198
0.00383806
0.00381549
0.00379408
0.00377364
0.00375404
0.00373514
0.00371686
0.00369911
0.0036818
0.00366484
0.00364791
0.00363106
0.00361451
0.00359805
0.00357504
9.40346e-05
0.000316108
0.000555585
0.000766959
0.000945307
0.00109536
0.0012216
0.0013279
0.00141849
0.00149692
0.00156622
0.00162896
0.0016873
0.00174306
0.0017977
0.00185241
0.00190807
0.00196534
0.00202466
0.00208627
0.00215027
0.00221667
0.00228536
0.00235619
0.00242898
0.00250352
0.00257959
0.00265698
0.00273547
0.00281485
0.00289491
0.00297589
0.00305747
0.00313942
0.00322157
0.0033038
0.003386
0.0034681
0.00355001
0.00363169
0.0037131
0.00379424
0.00387518
0.00395558
0.00403541
0.00411466
0.00419328
0.00427126
0.00434854
0.00442511
0.00450091
0.00457592
0.0046501
0.00472343
0.00479591
0.00486752
0.00493821
0.00500793
0.00507663
0.00514423
0.00521069
0.00527594
0.0053399
0.0054025
0.00546366
0.00552328
0.00558126
0.00563751
0.00569193
0.00574441
0.00579485
0.00584313
0.00588915
0.00593281
0.00597401
0.00601265
0.00604864
0.0060819
0.00611234
0.00613989
0.00616451
0.00618613
0.00620472
0.00622025