/*--------------------------------*- C++ -*----------------------------------*\
  =========                 |
  \\      /  F ield         | OpenFOAM: The Open Source CFD Toolbox
   \\    /   O peration     | Website:  https://openfoam.org
    \\  /    A nd           | Version:  8
     \\/     M anipulation  |
\*---------------------------------------------------------------------------*/
FoamFile
{
    version     2.0;
    format      ascii;
    class       volScalarField;
    location    "90";
    object      p;
}
// * * * * * * * * * * * * * * * * * * * * * * * * * * * * * * * * * * * * * //

dimensions      [0 2 -2 0 0 0 0];

internalField   nonuniform List<scalar> 
12225
(
-2.1831
-4.37121
-5.46991
-5.78866
-5.96751
-6.13333
-6.26097
-6.35145
-6.42208
-6.4818
-6.53236
-6.57555
-6.60997
-6.63483
-6.64809
-6.63617
-6.61696
-6.44382
-5.34662
-6.11451
-6.27375
-6.17954
-6.16459
-6.22931
-6.30292
-6.36396
-6.41764
-6.46751
-6.51285
-6.55229
-6.58525
-6.60977
-6.62555
-6.62142
-6.61969
-6.55452
-5.74782
-5.73234
-5.85838
-5.93478
-6.02732
-6.14442
-6.24772
-6.32788
-6.39385
-6.45189
-6.50306
-6.54692
-6.58389
-6.61262
-6.63408
-6.6419
-6.65732
-6.6574
-5.62594
-5.56853
-5.80874
-5.96524
-6.06466
-6.1678
-6.26164
-6.33707
-6.40016
-6.45627
-6.50634
-6.54992
-6.58748
-6.61833
-6.64409
-6.66291
-6.69143
-6.7287
-5.61572
-5.63963
-5.8664
-6.0062
-6.08746
-6.17648
-6.26397
-6.33722
-6.39933
-6.45492
-6.50504
-6.54937
-6.58851
-6.62247
-6.65333
-6.68201
-6.72092
-6.77555
-5.67386
-5.7223
-5.89535
-6.01743
-6.09665
-6.18156
-6.26601
-6.33824
-6.40003
-6.4555
-6.5059
-6.55118
-6.59205
-6.62909
-6.66458
-6.70081
-6.74674
-6.80837
-5.73444
-5.77821
-5.91216
-6.0267
-6.10831
-6.18964
-6.2701
-6.34069
-6.40193
-6.45717
-6.50781
-6.55405
-6.59661
-6.63647
-6.67588
-6.71755
-6.76777
-6.83099
-5.7883
-5.82546
-5.93423
-6.04085
-6.12185
-6.19874
-6.27488
-6.34361
-6.40423
-6.45925
-6.51013
-6.5573
-6.60147
-6.64377
-6.68631
-6.73165
-6.78402
-6.84609
-5.83844
-5.8711
-5.9609
-6.0573
-6.13548
-6.20832
-6.28044
-6.34716
-6.40701
-6.46175
-6.51282
-6.5608
-6.60636
-6.65063
-6.69546
-6.74297
-6.7959
-6.85546
-5.88599
-5.91478
-5.98926
-6.07501
-6.14946
-6.2187
-6.28708
-6.35154
-6.41039
-6.46473
-6.51589
-6.56448
-6.61111
-6.6568
-6.7031
-6.7516
-6.80395
-6.86044
-5.9309
-5.95598
-6.01822
-6.09408
-6.16415
-6.22993
-6.29476
-6.35682
-6.41446
-6.46828
-6.51936
-6.56833
-6.61568
-6.66227
-6.70929
-6.75787
-6.80895
-6.86228
-5.96958
-5.99151
-6.04484
-6.11253
-6.17821
-6.24077
-6.30253
-6.36236
-6.41876
-6.47193
-6.52276
-6.57181
-6.61951
-6.66647
-6.7136
-6.76165
-6.8112
-6.86176
-6.00544
-6.02475
-6.07082
-6.13122
-6.19247
-6.25189
-6.31074
-6.36836
-6.42346
-6.4759
-6.52629
-6.57519
-6.62292
-6.66996
-6.71682
-6.76405
-6.81188
-6.85986
-6.04324
-6.06007
-6.09946
-6.15266
-6.209
-6.26493
-6.32065
-6.3758
-6.42933
-6.48084
-6.53059
-6.57902
-6.62645
-6.67317
-6.71946
-6.76546
-6.81131
-6.85655
-6.0818
-6.09629
-6.12983
-6.17629
-6.2275
-6.27967
-6.33217
-6.3846
-6.43628
-6.48661
-6.5355
-6.58309
-6.62976
-6.67569
-6.72099
-6.7655
-6.8092
-6.85172
-6.11923
-6.13167
-6.16032
-6.2009
-6.2471
-6.29546
-6.34478
-6.39449
-6.44401
-6.49289
-6.54064
-6.58717
-6.63259
-6.67728
-6.72114
-6.76402
-6.80552
-6.84556
-6.15273
-6.16352
-6.1884
-6.22428
-6.26612
-6.31094
-6.35738
-6.40454
-6.45187
-6.499
-6.54543
-6.59066
-6.63466
-6.67767
-6.71983
-6.76086
-6.80038
-6.83812
-6.17796
-6.18765
-6.21007
-6.24279
-6.28154
-6.32367
-6.36788
-6.41305
-6.45852
-6.50396
-6.54896
-6.59285
-6.63538
-6.6767
-6.71707
-6.75627
-6.79396
-6.8298
-6.18802
-6.19735
-6.21898
-6.25066
-6.2884
-6.32955
-6.37279
-6.41705
-6.46156
-6.50594
-6.54984
-6.5926
-6.63392
-6.67383
-6.71266
-6.75025
-6.78635
-6.82063
-6.17468
-6.18471
-6.2079
-6.24169
-6.28157
-6.32437
-6.36877
-6.41383
-6.45895
-6.50356
-6.54743
-6.58985
-6.63077
-6.67009
-6.70825
-6.74491
-6.78004
-6.81332
-6.14975
-6.16085
-6.1868
-6.22464
-6.26839
-6.3142
-6.36084
-6.40782
-6.45432
-6.49991
-6.5441
-6.58676
-6.62763
-6.66704
-6.70487
-6.74121
-6.77561
-6.80848
-6.11596
-6.12811
-6.15822
-6.20269
-6.25205
-6.3014
-6.35083
-6.40037
-6.44901
-6.49591
-6.54085
-6.58384
-6.62502
-6.66453
-6.70234
-6.73836
-6.77243
-6.80489
-6.07646
-6.08871
-6.12396
-6.17816
-6.2349
-6.28829
-6.34076
-6.39304
-6.44375
-6.49202
-6.53786
-6.58144
-6.6231
-6.6628
-6.70068
-6.73644
-6.77034
-6.8026
-6.0335
-6.04484
-6.08744
-6.15278
-6.21621
-6.27443
-6.3317
-6.38743
-6.43989
-6.48906
-6.53553
-6.57967
-6.62165
-6.66156
-6.6993
-6.73494
-6.7686
-6.8008
-5.98708
-5.99296
-6.0565
-6.13566
-6.19881
-6.25856
-6.32144
-6.38181
-6.43658
-6.4869
-6.5342
-6.57895
-6.62125
-6.66122
-6.69886
-6.73435
-6.76786
-6.80009
-5.94411
-5.90815
-6.01855
-6.1306
-6.19413
-6.25079
-6.31465
-6.37647
-6.43201
-6.48301
-6.53101
-6.57632
-6.61896
-6.65905
-6.6967
-6.73218
-6.76575
-6.79801
-5.95855
-5.79999
-5.92971
-6.08483
-6.1764
-6.24919
-6.31969
-6.38261
-6.43771
-6.48828
-6.53585
-6.58069
-6.62274
-6.66222
-6.69924
-6.73412
-6.76726
-6.79926
-6.08186
-5.90185
-5.91693
-5.98996
-6.07972
-6.18048
-6.27279
-6.34856
-6.41256
-6.46993
-6.52254
-6.5709
-6.61553
-6.65687
-6.69518
-6.73092
-6.7648
-6.79796
-5.7893
-6.38067
-6.4705
-6.34724
-6.29419
-6.32283
-6.37147
-6.41676
-6.46064
-6.50504
-6.54877
-6.59065
-6.6305
-6.66817
-6.70339
-6.7363
-6.76747
-6.7992
-2.80001
-4.56369
-5.5692
-5.86947
-6.01993
-6.16495
-6.28062
-6.36367
-6.43023
-6.4893
-6.54271
-6.59124
-6.63581
-6.67701
-6.71495
-6.74942
-6.78062
-6.80729
-8.193
-8.18865
-8.18349
-8.18443
-8.188
-8.1929
-8.19951
-8.20719
-8.21502
-8.22246
-8.22934
-8.23586
-8.24244
-8.24894
-8.25563
-8.26333
-8.27404
-8.28802
-8.3056
-8.32433
-8.33841
-8.34923
-8.36804
-8.39386
-8.42288
-8.45542
-8.4918
-8.53218
-8.57664
-8.62509
-8.67736
-8.73312
-8.79191
-8.85328
-8.91658
-8.98131
-9.04673
-9.1124
-9.1776
-9.24203
-9.30507
-9.36661
-9.42617
-9.48379
-9.53908
-9.59225
-9.64302
-9.6917
-9.73802
-9.78237
-9.82452
-9.86495
-9.90342
-9.94038
-9.97558
-10.0096
-10.0421
-10.0737
-10.1039
-10.1334
-10.1618
-10.1896
-10.2164
-10.2429
-10.2684
-10.2936
-10.318
-10.3421
-10.3653
-10.3883
-10.4103
-10.4319
-10.4522
-10.4719
-10.4899
-10.5068
-10.5214
-10.5339
-10.543
-10.5489
-10.55
-10.5463
-10.5363
-10.52
-10.4961
-10.4644
-10.4235
-10.3724
-10.3093
-10.2326
-10.1422
-10.0364
-9.9132
-9.77045
-9.60603
-9.41772
-9.20352
-8.9615
-8.69016
-8.38812
-8.05415
-7.68693
-7.28529
-6.84824
-6.37493
-5.86506
-5.31868
-4.73641
-4.11917
-3.46882
-2.78746
-2.07786
-1.34313
-0.586983
0.186565
0.973018
1.76765
2.56543
3.36139
4.15069
4.92871
5.69101
6.43342
7.15222
7.84413
8.50649
9.13712
9.73448
10.2974
10.8253
11.3181
11.7761
12.2001
12.5913
12.9512
13.2819
13.5854
13.8638
14.1181
14.3494
14.5589
14.748
14.9183
15.0713
15.2085
15.3312
15.4409
15.5388
15.626
15.7036
15.7726
15.834
15.8886
15.937
15.9798
16.0178
16.0514
16.0813
16.1076
16.1309
16.1514
16.1696
16.1857
16.2
16.2126
16.2238
16.2339
16.2431
16.2514
16.2593
16.2671
16.2752
16.2843
16.2955
16.3104
16.3316
16.366
16.4198
16.5196
16.6546
-8.19469
-8.19107
-8.18767
-8.18951
-8.19444
-8.20043
-8.20686
-8.21331
-8.21858
-8.22234
-8.22481
-8.22696
-8.22909
-8.2317
-8.23477
-8.23925
-8.24539
-8.25301
-8.26114
-8.26874
-8.27677
-8.29113
-8.31343
-8.33719
-8.36333
-8.39311
-8.42719
-8.46583
-8.50915
-8.55709
-8.60947
-8.66592
-8.72595
-8.78892
-8.85404
-8.92062
-8.98784
-9.05509
-9.12167
-9.18717
-9.25105
-9.31311
-9.37299
-9.43066
-9.48589
-9.53879
-9.58922
-9.63738
-9.68316
-9.72682
-9.76832
-9.80794
-9.84561
-9.88165
-9.91601
-9.94903
-9.98062
-10.0111
-10.0404
-10.0688
-10.0962
-10.123
-10.1489
-10.1743
-10.1991
-10.2234
-10.2471
-10.2705
-10.2932
-10.3156
-10.3373
-10.3585
-10.379
-10.3987
-10.4173
-10.4348
-10.4506
-10.4644
-10.4755
-10.4836
-10.4877
-10.4873
-10.4814
-10.4693
-10.45
-10.4229
-10.3868
-10.3405
-10.2821
-10.2107
-10.1252
-10.0242
-9.9057
-9.76776
-9.60851
-9.42614
-9.21894
-8.9853
-8.72359
-8.43213
-8.10944
-7.75414
-7.365
-6.94084
-6.4809
-5.98453
-5.45158
-4.88258
-4.27861
-3.64112
-2.97219
-2.27435
-1.55049
-0.80413
-0.0391269
0.740171
1.52916
2.32287
3.11642
3.90493
4.68377
5.44837
6.19452
6.91828
7.61629
8.28566
8.9241
9.52978
10.1015
10.6385
11.1404
11.6077
12.0408
12.4408
12.8092
13.1475
13.4575
13.7412
14.0007
14.2372
14.452
14.6466
14.8224
14.9807
15.123
15.2508
15.3653
15.4678
15.5593
15.6411
15.7142
15.7793
15.8373
15.889
15.9349
15.9758
16.0121
16.0444
16.0731
16.0986
16.1212
16.1412
16.1591
16.1749
16.1891
16.2017
16.2131
16.2234
16.2329
16.2418
16.2505
16.2597
16.2698
16.2818
16.2976
16.3193
16.3519
16.4006
16.489
16.5997
-8.19305
-8.19145
-8.18953
-8.19134
-8.19539
-8.19959
-8.20326
-8.20621
-8.20822
-8.2092
-8.20937
-8.20909
-8.20869
-8.20857
-8.20918
-8.21109
-8.21446
-8.21914
-8.22495
-8.23175
-8.23983
-8.25117
-8.26806
-8.28964
-8.31602
-8.34749
-8.38407
-8.42559
-8.47179
-8.52228
-8.57664
-8.6343
-8.69464
-8.75702
-8.82083
-8.8855
-8.95044
-9.01516
-9.07913
-9.14202
-9.20343
-9.26316
-9.32092
-9.37665
-9.43015
-9.48147
-9.5305
-9.57735
-9.62198
-9.66453
-9.70501
-9.74363
-9.78037
-9.81546
-9.84893
-9.88102
-9.91172
-9.94128
-9.9697
-9.99723
-10.0238
-10.0498
-10.0749
-10.0996
-10.1237
-10.1474
-10.1707
-10.1935
-10.216
-10.2381
-10.2597
-10.2808
-10.3013
-10.3212
-10.3402
-10.3582
-10.3748
-10.3896
-10.4022
-10.4122
-10.4188
-10.4213
-10.4191
-10.4113
-10.3969
-10.375
-10.3447
-10.3046
-10.253
-10.1886
-10.1107
-10.0175
-9.90696
-9.77742
-9.62695
-9.45399
-9.25684
-9.03398
-8.78373
-8.50443
-8.19455
-7.85263
-7.4774
-7.06758
-6.62227
-6.14069
-5.62276
-5.06873
-4.47959
-3.85672
-3.20204
-2.51778
-1.80676
-1.0722
-0.31787
0.4521
1.23319
2.02059
2.80949
3.59501
4.3725
5.1373
5.88516
6.612
7.31442
7.98926
8.63419
9.24715
9.82692
10.3726
10.8839
11.3611
11.8047
12.2158
12.5955
12.9455
13.2673
13.5627
13.8333
14.0804
14.3053
14.5095
14.6943
14.8611
15.0115
15.1469
15.2685
15.3776
15.4754
15.563
15.6413
15.7114
15.774
15.8299
15.8798
15.9243
15.964
15.9995
16.031
16.0592
16.0842
16.1066
16.1265
16.1443
16.1602
16.1745
16.1874
16.1991
16.2099
16.22
16.2299
16.24
16.251
16.2638
16.2801
16.3017
16.3329
16.3762
16.4492
16.5225
-8.18192
-8.1847
-8.18614
-8.18915
-8.19324
-8.19684
-8.19929
-8.20052
-8.20052
-8.19942
-8.19751
-8.19516
-8.19273
-8.19066
-8.18942
-8.18957
-8.19149
-8.19543
-8.2016
-8.21018
-8.22149
-8.23624
-8.25527
-8.27876
-8.30685
-8.33964
-8.37714
-8.4192
-8.46557
-8.51585
-8.56956
-8.62617
-8.6851
-8.74581
-8.80771
-8.8703
-8.93301
-8.99543
-9.05706
-9.11761
-9.17673
-9.23422
-9.28982
-9.34349
-9.39503
-9.44449
-9.49177
-9.53697
-9.58002
-9.6211
-9.66019
-9.69747
-9.73296
-9.76686
-9.79919
-9.83017
-9.85984
-9.8884
-9.91591
-9.94256
-9.9684
-9.99359
-10.0182
-10.0423
-10.0661
-10.0895
-10.1126
-10.1355
-10.1581
-10.1805
-10.2026
-10.2243
-10.2456
-10.2664
-10.2865
-10.3057
-10.3236
-10.34
-10.3545
-10.3665
-10.3755
-10.381
-10.382
-10.3779
-10.3676
-10.3504
-10.3251
-10.2904
-10.2446
-10.1869
-10.1157
-10.0296
-9.92667
-9.80501
-9.66296
-9.49878
-9.31089
-9.09764
-8.85734
-8.58835
-8.28907
-7.95802
-7.5938
-7.19514
-6.761
-6.2907
-5.78402
-5.2412
-4.66305
-4.05089
-3.40644
-2.73184
-2.02976
-1.30334
-0.556242
0.207516
0.983483
1.76697
2.55317
3.33725
4.11445
4.88007
5.62974
6.35937
7.0654
7.74464
8.3946
9.01324
9.59925
10.1517
10.6706
11.1558
11.6082
12.0283
12.4176
12.7771
13.1084
13.413
13.6924
13.9479
14.1808
14.3926
14.5847
14.7585
14.9154
15.057
15.1844
15.2991
15.402
15.4945
15.5773
15.6516
15.7181
15.7776
15.8309
15.8785
15.9211
15.9592
15.9932
16.0236
16.0508
16.0751
16.0969
16.1163
16.1338
16.1495
16.1636
16.1765
16.1884
16.1994
16.2102
16.221
16.2325
16.2455
16.2616
16.2822
16.3103
16.3465
16.4023
16.4432
-8.15686
-8.16449
-8.17105
-8.17677
-8.18216
-8.18634
-8.18889
-8.18991
-8.18955
-8.18804
-8.18572
-8.18299
-8.18032
-8.1782
-8.17716
-8.17771
-8.1803
-8.1853
-8.19303
-8.20379
-8.21794
-8.23585
-8.25785
-8.2841
-8.31471
-8.34967
-8.38888
-8.43213
-8.47913
-8.52949
-8.58276
-8.63845
-8.69603
-8.75501
-8.81485
-8.8751
-8.93527
-8.99502
-9.05392
-9.11172
-9.16811
-9.22294
-9.27597
-9.32716
-9.37635
-9.42358
-9.46874
-9.51194
-9.55312
-9.59243
-9.62986
-9.66557
-9.69959
-9.7321
-9.76313
-9.79289
-9.82142
-9.84891
-9.87543
-9.90118
-9.9262
-9.95068
-9.97467
-9.99832
-10.0217
-10.0449
-10.068
-10.091
-10.1139
-10.1368
-10.1596
-10.1823
-10.2047
-10.2269
-10.2486
-10.2695
-10.2895
-10.3082
-10.3252
-10.34
-10.3522
-10.361
-10.3657
-10.3657
-10.3599
-10.3474
-10.3273
-10.2981
-10.2586
-10.2071
-10.143
-10.0641
-9.96884
-9.85514
-9.72144
-9.56589
-9.38687
-9.18261
-8.95142
-8.6916
-8.40148
-8.07954
-7.7242
-7.33429
-6.9086
-6.4466
-5.94787
-5.41275
-4.84185
-4.23646
-3.59806
-2.92878
-2.23121
-1.50849
-0.764209
-0.00239332
0.772533
1.55592
2.34287
3.12859
3.90809
4.67675
5.4299
6.16361
6.87399
7.55808
8.21306
8.83719
9.42886
9.98754
10.5127
11.0047
11.4637
11.8908
12.2868
12.653
12.9909
13.3017
13.5871
13.8483
14.0867
14.3038
14.5009
14.6795
14.8411
14.987
15.1187
15.2374
15.3442
15.4402
15.5265
15.6039
15.6734
15.7357
15.7916
15.8416
15.8865
15.9266
15.9625
15.9947
16.0235
16.0493
16.0724
16.0931
16.1118
16.1285
16.1437
16.1574
16.17
16.1817
16.1929
16.204
16.2156
16.2284
16.2435
16.262
16.286
16.3143
16.3544
16.3694
-8.12029
-8.13334
-8.14678
-8.1566
-8.16443
-8.17028
-8.17401
-8.17588
-8.17624
-8.17544
-8.17388
-8.17201
-8.17037
-8.16948
-8.1699
-8.17214
-8.17667
-8.18385
-8.19405
-8.20753
-8.22456
-8.24539
-8.27021
-8.2991
-8.33209
-8.36909
-8.40991
-8.45427
-8.50182
-8.55217
-8.60488
-8.65949
-8.71555
-8.77261
-8.83022
-8.888
-8.94554
-9.00254
-9.05865
-9.11364
-9.16726
-9.21937
-9.26977
-9.31843
-9.36519
-9.4101
-9.45307
-9.49418
-9.53339
-9.57084
-9.60652
-9.64058
-9.67305
-9.70412
-9.7338
-9.7623
-9.78967
-9.81611
-9.84167
-9.86656
-9.89082
-9.91466
-9.93812
-9.96138
-9.98449
-10.0076
-10.0307
-10.054
-10.0773
-10.1009
-10.1246
-10.1484
-10.1723
-10.1961
-10.2197
-10.2429
-10.2654
-10.2869
-10.307
-10.3253
-10.3411
-10.354
-10.3632
-10.3679
-10.3672
-10.3601
-10.3457
-10.3227
-10.2894
-10.2452
-10.1881
-10.1169
-10.0294
-9.924
-9.79873
-9.65189
-9.48166
-9.28628
-9.06397
-8.81292
-8.53143
-8.2178
-7.8705
-7.48815
-7.0697
-6.61441
-6.12199
-5.5926
-5.02686
-4.42585
-3.79099
-3.12433
-2.42845
-1.70649
-0.962047
-0.199208
0.577605
1.36364
2.15399
2.94367
3.72765
4.50109
5.25937
5.99836
6.71426
7.40394
8.06474
8.69477
9.29258
9.8574
10.3887
10.8867
11.3517
11.7844
12.1859
12.5574
12.9002
13.2157
13.5055
13.7709
14.0133
14.2341
14.4349
14.6171
14.7821
14.9313
15.0662
15.1878
15.2975
15.3962
15.4851
15.565
15.6368
15.7014
15.7593
15.8113
15.8579
15.8997
15.9372
15.9708
16.0009
16.0279
16.0521
16.0738
16.0933
16.1109
16.1267
16.1411
16.1542
16.1663
16.1777
16.1889
16.2002
16.2122
16.2258
16.2416
16.2608
16.2811
16.3077
16.3019
-8.07773
-8.09627
-8.11695
-8.13135
-8.1422
-8.15041
-8.1561
-8.15965
-8.16155
-8.16229
-8.16235
-8.16222
-8.16249
-8.16368
-8.16636
-8.17103
-8.17815
-8.18807
-8.20113
-8.21754
-8.23753
-8.2612
-8.28864
-8.31986
-8.35479
-8.39329
-8.43513
-8.48003
-8.52763
-8.57758
-8.62944
-8.68282
-8.73729
-8.79247
-8.84794
-8.90339
-8.95846
-9.01288
-9.06635
-9.11869
-9.16966
-9.21916
-9.26701
-9.31319
-9.35756
-9.40017
-9.44094
-9.47995
-9.51717
-9.55273
-9.58661
-9.61899
-9.64988
-9.67946
-9.70776
-9.73499
-9.76119
-9.78657
-9.81119
-9.83525
-9.8588
-9.88207
-9.9051
-9.92807
-9.95106
-9.9742
-9.99755
-10.0212
-10.0452
-10.0696
-10.0945
-10.1197
-10.1452
-10.1709
-10.1968
-10.2225
-10.2479
-10.2726
-10.2963
-10.3184
-10.3385
-10.356
-10.3701
-10.3801
-10.385
-10.384
-10.3759
-10.3594
-10.3333
-10.2961
-10.2468
-10.1835
-10.1041
-10.0071
-9.89031
-9.75213
-9.59062
-9.40397
-9.1903
-8.9477
-8.67441
-8.36854
-8.02864
-7.65314
-7.2411
-6.79157
-6.30437
-5.77947
-5.21752
-4.61932
-3.98634
-3.32052
-2.62449
-1.90136
-1.1548
-0.388957
0.391679
1.18222
1.97772
2.7729
3.5628
4.34224
5.1068
5.85198
6.57428
7.27023
7.93752
8.57385
9.178
9.74881
10.2861
10.7896
11.2599
11.6977
12.1039
12.4798
12.8267
13.146
13.4393
13.708
13.9535
14.1774
14.381
14.5659
14.7336
14.8854
15.0227
15.1467
15.2586
15.3595
15.4505
15.5324
15.6061
15.6724
15.732
15.7856
15.8337
15.8769
15.9157
15.9506
15.9818
16.0098
16.0349
16.0574
16.0776
16.0958
16.1122
16.127
16.1405
16.1528
16.1642
16.1751
16.1858
16.1968
16.2085
16.2212
16.2354
16.248
16.263
16.2404
-8.03572
-8.05883
-8.08603
-8.10477
-8.11868
-8.12951
-8.13752
-8.14318
-8.14709
-8.14984
-8.152
-8.1541
-8.15672
-8.16038
-8.16566
-8.17299
-8.18284
-8.19551
-8.21132
-8.23043
-8.25301
-8.27909
-8.30871
-8.34178
-8.37819
-8.41775
-8.4602
-8.50529
-8.55264
-8.60195
-8.6528
-8.70486
-8.75771
-8.81103
-8.86445
-8.9177
-8.97043
-9.02243
-9.07344
-9.1233
-9.17179
-9.21885
-9.2643
-9.30813
-9.35024
-9.39065
-9.4293
-9.46629
-9.50157
-9.53528
-9.56742
-9.59813
-9.62745
-9.65556
-9.68249
-9.70846
-9.7335
-9.75784
-9.78154
-9.8048
-9.8277
-9.85046
-9.87313
-9.89592
-9.9189
-9.94223
-9.96597
-9.99025
-10.0151
-10.0406
-10.0668
-10.0936
-10.1211
-10.1491
-10.1775
-10.2061
-10.2347
-10.263
-10.2907
-10.3171
-10.3419
-10.3645
-10.384
-10.3998
-10.4109
-10.4163
-10.4149
-10.4056
-10.3867
-10.3575
-10.3161
-10.2609
-10.1899
-10.1013
-9.9932
-9.86365
-9.7108
-9.53273
-9.32745
-9.09303
-8.82747
-8.52899
-8.19585
-7.82668
-7.42027
-6.97582
-6.49293
-5.9716
-5.41223
-4.81562
-4.18317
-3.51682
-2.81919
-2.09343
-1.34329
-0.572968
0.212897
1.00933
1.81118
2.61311
3.40989
4.19642
4.968
5.7203
6.44958
7.15251
7.8265
8.46934
9.07963
9.65631
10.199
10.7077
11.1828
11.625
12.0353
12.415
12.7653
13.0879
13.3841
13.6555
13.9035
14.1298
14.3357
14.5228
14.6926
14.8465
14.9857
15.1116
15.2254
15.3281
15.4208
15.5043
15.5795
15.6473
15.7083
15.7632
15.8126
15.8571
15.897
15.9329
15.9651
15.994
16.0199
16.0432
16.064
16.0828
16.0996
16.1147
16.1284
16.1407
16.152
16.1624
16.1723
16.182
16.1916
16.201
16.2102
16.2156
16.2206
16.1845
-7.99931
-8.0257
-8.05798
-8.08031
-8.09694
-8.11019
-8.12047
-8.12827
-8.13431
-8.13921
-8.14361
-8.14804
-8.15309
-8.15924
-8.16705
-8.17691
-8.18926
-8.20435
-8.22249
-8.24379
-8.26839
-8.29627
-8.32744
-8.36176
-8.39909
-8.43922
-8.48189
-8.52684
-8.57371
-8.62221
-8.67195
-8.72264
-8.7739
-8.82544
-8.87692
-8.92809
-8.97867
-9.02846
-9.07722
-9.1248
-9.17104
-9.21586
-9.25912
-9.3008
-9.34081
-9.3792
-9.41589
-9.45098
-9.48445
-9.51642
-9.54688
-9.57602
-9.60384
-9.63054
-9.65616
-9.6809
-9.70484
-9.72817
-9.75099
-9.7735
-9.7958
-9.8181
-9.84049
-9.86318
-9.88624
-9.90988
-9.93414
-9.95919
-9.98506
-10.0119
-10.0396
-10.0683
-10.098
-10.1285
-10.1598
-10.1917
-10.2239
-10.2562
-10.2881
-10.3193
-10.3492
-10.3772
-10.4026
-10.4246
-10.4422
-10.4544
-10.4603
-10.4584
-10.4475
-10.4261
-10.3932
-10.3464
-10.284
-10.204
-10.1046
-9.98378
-9.83955
-9.66998
-9.47292
-9.24642
-8.98829
-8.6968
-8.37
-8.00664
-7.60529
-7.16529
-6.68596
-6.16732
-5.60952
-5.01346
-4.38041
-3.71239
-3.01198
-2.28243
-1.52752
-0.751584
0.0405863
0.843955
1.65307
2.46266
3.26713
4.06155
4.84089
5.60098
6.33767
7.0479
7.72862
8.37797
8.99415
9.57645
10.1242
10.6376
11.117
11.5631
11.9769
12.3598
12.7131
13.0383
13.3369
13.6105
13.8607
14.0889
14.2967
14.4856
14.6571
14.8127
14.9536
15.0811
15.1964
15.3006
15.3947
15.4796
15.5562
15.6252
15.6874
15.7435
15.794
15.8395
15.8804
15.9172
15.9503
15.98
16.0067
16.0306
16.052
16.0713
16.0885
16.1038
16.1176
16.1298
16.1408
16.1507
16.1597
16.1678
16.1751
16.1812
16.1856
16.1842
16.1807
16.1337
-7.97183
-8.00034
-8.03578
-8.06055
-8.07919
-8.09436
-8.10653
-8.11622
-8.12417
-8.13107
-8.13754
-8.14412
-8.15137
-8.15974
-8.16975
-8.18174
-8.19614
-8.21315
-8.23305
-8.25593
-8.2819
-8.31093
-8.34299
-8.37793
-8.41561
-8.45581
-8.49827
-8.54273
-8.58885
-8.63637
-8.68491
-8.7342
-8.7839
-8.83374
-8.88341
-8.93268
-8.98131
-9.02909
-9.07583
-9.12139
-9.16561
-9.20843
-9.24972
-9.28948
-9.32761
-9.36416
-9.39908
-9.43245
-9.46424
-9.4946
-9.52353
-9.55118
-9.57759
-9.60297
-9.62735
-9.65094
-9.67382
-9.69622
-9.7182
-9.74002
-9.76176
-9.78367
-9.80583
-9.82849
-9.85173
-9.87575
-9.90065
-9.92659
-9.95364
-9.98191
-10.0114
-10.0422
-10.0743
-10.1076
-10.1421
-10.1775
-10.2136
-10.2501
-10.2867
-10.323
-10.3583
-10.3922
-10.4238
-10.4523
-10.4768
-10.4962
-10.5096
-10.5156
-10.5126
-10.4998
-10.4751
-10.4371
-10.3834
-10.3123
-10.2217
-10.1095
-9.97391
-9.81268
-9.62373
-9.40482
-9.15389
-8.86892
-8.54817
-8.19008
-7.79339
-7.35715
-6.88075
-6.36394
-5.80693
-5.2105
-4.57598
-3.90536
-3.2013
-2.46709
-1.7066
-0.924295
-0.125063
0.685855
1.50297
2.32076
3.13369
3.9365
4.72419
5.4923
6.23675
6.95419
7.64172
8.29727
8.9192
9.50666
10.0591
10.5768
11.0599
11.5094
11.9263
12.3119
12.6677
12.9951
13.2957
13.5711
13.8229
14.0527
14.2621
14.4525
14.6255
14.7825
14.9248
15.0537
15.1703
15.2758
15.3711
15.4573
15.535
15.6052
15.6685
15.7256
15.7771
15.8235
15.8653
15.9029
15.9368
15.9673
15.9946
16.0192
16.0412
16.0608
16.0784
16.0939
16.1077
16.1199
16.1305
16.1397
16.1476
16.1542
16.1591
16.1619
16.1617
16.1542
16.1433
16.0874
-7.95514
-7.98467
-8.02094
-8.04689
-8.06671
-8.08308
-8.09655
-8.10763
-8.11708
-8.12556
-8.13371
-8.14201
-8.15102
-8.16113
-8.17282
-8.1864
-8.20226
-8.22058
-8.24161
-8.26542
-8.29212
-8.32165
-8.354
-8.38899
-8.4265
-8.46631
-8.50816
-8.55182
-8.59696
-8.64333
-8.69058
-8.73846
-8.78662
-8.83485
-8.88283
-8.93038
-8.97723
-9.02323
-9.06817
-9.11194
-9.15439
-9.19545
-9.23502
-9.27308
-9.30956
-9.34449
-9.37782
-9.40964
-9.43993
-9.46882
-9.49632
-9.5226
-9.5477
-9.57183
-9.59504
-9.61755
-9.63943
-9.66093
-9.68213
-9.70329
-9.72452
-9.74608
-9.76808
-9.79076
-9.81423
-9.83873
-9.86435
-9.89129
-9.91962
-9.94948
-9.98093
-10.014
-10.0487
-10.085
-10.1228
-10.162
-10.2022
-10.2433
-10.2849
-10.3265
-10.3676
-10.4075
-10.4456
-10.4809
-10.5125
-10.5395
-10.5606
-10.5745
-10.5799
-10.5754
-10.5595
-10.5301
-10.4853
-10.423
-10.341
-10.2375
-10.1103
-9.9572
-9.77604
-9.56438
-9.32025
-9.04141
-8.72628
-8.37302
-7.98049
-7.54744
-7.07333
-6.55771
-6.00087
-5.40347
-4.76692
-4.09317
-3.38496
-2.64563
-1.87917
-1.09012
-0.283397
0.535512
1.36114
2.1876
3.00945
3.82095
4.61726
5.39343
6.14563
6.87008
7.56423
8.2256
8.85294
9.44507
10.0018
10.5231
11.0096
11.462
11.8815
12.2694
12.6272
12.9564
13.2587
13.5356
13.7888
14.0199
14.2306
14.4223
14.5965
14.7547
14.8983
15.0284
15.1462
15.2529
15.3493
15.4366
15.5154
15.5867
15.651
15.709
15.7614
15.8087
15.8513
15.8897
15.9244
15.9555
15.9836
16.0087
16.0312
16.0513
16.0691
16.0849
16.0987
16.1106
16.1209
16.1294
16.1362
16.1411
16.1437
16.1432
16.1387
16.1257
16.1084
16.0453
-7.94955
-7.9788
-8.01392
-8.03979
-8.05989
-8.07665
-8.0907
-8.10253
-8.11288
-8.12238
-8.13164
-8.1411
-8.15127
-8.16251
-8.17528
-8.18982
-8.2065
-8.22548
-8.24701
-8.27112
-8.29794
-8.32739
-8.35946
-8.39401
-8.43089
-8.46991
-8.51083
-8.55343
-8.5974
-8.6425
-8.6884
-8.73484
-8.78152
-8.82821
-8.87464
-8.92061
-8.96588
-9.01029
-9.05366
-9.09588
-9.1368
-9.17635
-9.21444
-9.25103
-9.28607
-9.31957
-9.3515
-9.38194
-9.41087
-9.43842
-9.46461
-9.48962
-9.51349
-9.53644
-9.55854
-9.58
-9.60092
-9.62154
-9.64198
-9.66251
-9.68325
-9.70448
-9.72633
-9.74907
-9.77282
-9.79783
-9.82425
-9.85225
-9.88196
-9.91352
-9.94701
-9.9825
-10.02
-10.0595
-10.1008
-10.1439
-10.1885
-10.2344
-10.2811
-10.3283
-10.3753
-10.4215
-10.4662
-10.5085
-10.5474
-10.5819
-10.6108
-10.6328
-10.6464
-10.6504
-10.6431
-10.6224
-10.5863
-10.5325
-10.4591
-10.3639
-10.2448
-10.0995
-9.92563
-9.72092
-9.48309
-9.21014
-8.90015
-8.55146
-8.16261
-7.73246
-7.26024
-6.74557
-6.18864
-5.59016
-4.95144
-4.27445
-3.56193
-2.81727
-2.04453
-1.24833
-0.43376
0.393645
1.22809
2.06365
2.89449
3.71488
4.51962
5.30384
6.06342
6.7947
7.49492
8.16181
8.79397
9.39039
9.95085
10.4754
10.9646
11.4194
11.841
12.2308
12.5902
12.9209
13.2245
13.5026
13.757
13.9892
14.2009
14.3937
14.5691
14.7284
14.8731
15.0043
15.1232
15.231
15.3285
15.4168
15.4967
15.5689
15.6342
15.6932
15.7465
15.7946
15.838
15.8772
15.9126
15.9444
15.9731
15.9988
16.0218
16.0423
16.0604
16.0763
16.0902
16.102
16.1118
16.1196
16.1252
16.1285
16.1288
16.1253
16.1167
16.0988
16.076
16.007
-7.9539
-7.98165
-8.01421
-8.03889
-8.05838
-8.07471
-8.08856
-8.10044
-8.11103
-8.12089
-8.13061
-8.14057
-8.15127
-8.16299
-8.17616
-8.19101
-8.20789
-8.22691
-8.24833
-8.27216
-8.29854
-8.3274
-8.35874
-8.39241
-8.4283
-8.46623
-8.50598
-8.54733
-8.59
-8.63374
-8.67825
-8.72328
-8.76853
-8.8138
-8.85882
-8.90337
-8.94725
-8.99028
-9.03229
-9.07317
-9.11276
-9.151
-9.18779
-9.22309
-9.25685
-9.28908
-9.31976
-9.34895
-9.37666
-9.403
-9.42798
-9.45179
-9.47449
-9.49629
-9.51728
-9.53769
-9.55761
-9.57734
-9.59698
-9.61684
-9.63705
-9.65793
-9.67961
-9.70238
-9.72639
-9.75193
-9.77913
-9.80824
-9.83936
-9.87269
-9.9083
-9.94629
-9.98665
-10.0294
-10.0744
-10.1216
-10.1707
-10.2215
-10.2736
-10.3264
-10.3795
-10.4322
-10.4837
-10.533
-10.5792
-10.6213
-10.6579
-10.6879
-10.7098
-10.7221
-10.7232
-10.711
-10.6832
-10.6378
-10.5726
-10.4855
-10.3742
-10.2364
-10.0696
-9.87159
-9.63989
-9.37266
-9.06769
-8.72345
-8.33817
-7.91083
-7.44041
-6.92663
-6.36948
-5.76969
-5.1285
-4.44794
-3.73069
-2.98025
-2.2008
-1.39702
-0.57431
0.261807
1.10514
1.94982
2.78949
3.6186
4.43141
5.22332
5.98973
6.72734
7.433
8.10485
8.74116
9.34131
9.90483
10.4321
10.9235
11.3803
11.8036
12.1948
12.5555
12.8873
13.1919
13.471
13.7263
13.9595
14.1722
14.366
14.5424
14.7028
14.8485
14.9807
15.1008
15.2096
15.3082
15.3975
15.4784
15.5516
15.6179
15.6778
15.732
15.7809
15.8252
15.8652
15.9013
15.9338
15.9631
15.9894
16.0129
16.0338
16.0522
16.0683
16.0821
16.0937
16.1031
16.1102
16.1148
16.1164
16.1146
16.1081
16.0959
16.0735
16.0459
15.9722
-7.96637
-7.99176
-8.02082
-8.04342
-8.06147
-8.0766
-8.0895
-8.10069
-8.11078
-8.1203
-8.12977
-8.13954
-8.15007
-8.16161
-8.17455
-8.18908
-8.20555
-8.22404
-8.2448
-8.26785
-8.29332
-8.32116
-8.35138
-8.38386
-8.4185
-8.45512
-8.49352
-8.53348
-8.57473
-8.61702
-8.66009
-8.7037
-8.74759
-8.79153
-8.83525
-8.87854
-8.9212
-8.96303
-9.00387
-9.04358
-9.08202
-9.1191
-9.15472
-9.18886
-9.22143
-9.25247
-9.28194
-9.30993
-9.3364
-9.3615
-9.38524
-9.40781
-9.42925
-9.44981
-9.46955
-9.48877
-9.50758
-9.52628
-9.54501
-9.56409
-9.58369
-9.60411
-9.62552
-9.64824
-9.67247
-9.69847
-9.72646
-9.75666
-9.78925
-9.82438
-9.86219
-9.90275
-9.94613
-9.99229
-10.0412
-10.0926
-10.1464
-10.2023
-10.2598
-10.3186
-10.378
-10.4373
-10.4956
-10.5522
-10.6059
-10.6555
-10.7001
-10.7381
-10.7681
-10.7888
-10.7982
-10.7944
-10.7749
-10.7377
-10.6806
-10.6013
-10.4976
-10.367
-10.2071
-10.0155
-9.78984
-9.52798
-9.22791
-8.88772
-8.50579
-8.08081
-7.61182
-7.09836
-6.54045
-5.93873
-5.29448
-4.60978
-3.88739
-3.13087
-2.34447
-1.53307
-0.702103
0.142554
0.994709
1.84806
2.69628
3.53342
4.3538
5.1525
5.92507
6.66801
7.37837
8.05417
8.6939
9.29689
9.86283
10.3921
10.8852
11.3434
11.7679
12.1602
12.5218
12.8544
13.1598
13.4397
13.6959
13.9299
14.1435
14.3382
14.5155
14.6769
14.8236
14.957
15.0781
15.188
15.2877
15.3781
15.46
15.5343
15.6015
15.6624
15.7175
15.7674
15.8125
15.8533
15.8902
15.9234
15.9534
15.9803
16.0043
16.0256
16.0443
16.0606
16.0744
16.0859
16.0949
16.1012
16.1047
16.1048
16.1009
16.0918
16.0762
16.0499
16.0181
15.9405
-7.98487
-8.0074
-8.03245
-8.0523
-8.06823
-8.08145
-8.09268
-8.10244
-8.1113
-8.11972
-8.12821
-8.13707
-8.14673
-8.1574
-8.16946
-8.18307
-8.19855
-8.21598
-8.2356
-8.25743
-8.2816
-8.30807
-8.33687
-8.36787
-8.40099
-8.43606
-8.47289
-8.51126
-8.55095
-8.59173
-8.63333
-8.67554
-8.71809
-8.76074
-8.80324
-8.84537
-8.88691
-8.92766
-8.96745
-9.00612
-9.04352
-9.07956
-9.11411
-9.14714
-9.17857
-9.20841
-9.23664
-9.26333
-9.28848
-9.31221
-9.33459
-9.35576
-9.37582
-9.39497
-9.41336
-9.43124
-9.44881
-9.46631
-9.48398
-9.50209
-9.52089
-9.54067
-9.5617
-9.58429
-9.60866
-9.63514
-9.66392
-9.69527
-9.72936
-9.76639
-9.8065
-9.84982
-9.89637
-9.94612
-9.99909
-10.055
-10.1137
-10.1749
-10.2383
-10.3031
-10.3691
-10.4351
-10.5006
-10.5645
-10.6257
-10.6832
-10.7356
-10.7816
-10.8199
-10.8487
-10.8664
-10.8707
-10.8592
-10.8298
-10.7804
-10.7085
-10.6121
-10.4882
-10.3348
-10.149
-9.9289
-9.67189
-9.37612
-9.03938
-8.66016
-8.23687
-7.76866
-7.25488
-6.69565
-6.09152
-5.4439
-4.75485
-4.02726
-3.26473
-2.47154
-1.65276
-0.813854
0.0388877
0.899274
1.7605
2.61638
3.46045
4.28732
5.09156
5.86914
6.61616
7.33012
8.00872
8.6509
9.25575
9.8233
10.3538
10.848
11.3071
11.7323
12.1253
12.4875
12.8208
13.1268
13.4074
13.6642
13.8991
14.1136
14.3093
14.4876
14.65
14.7978
14.9323
15.0545
15.1656
15.2664
15.358
15.4411
15.5164
15.5847
15.6466
15.7028
15.7536
15.7997
15.8413
15.879
15.9131
15.9437
15.9712
15.9958
16.0175
16.0366
16.0531
16.067
16.0783
16.0869
16.0927
16.0952
16.0939
16.088
16.0764
16.0578
16.0281
15.9925
15.9119
-8.00855
-8.02805
-8.04896
-8.06562
-8.07874
-8.08933
-8.09812
-8.10565
-8.11246
-8.11898
-8.12568
-8.13283
-8.14084
-8.14988
-8.16033
-8.1723
-8.18612
-8.20183
-8.21971
-8.23973
-8.26207
-8.28665
-8.31353
-8.3426
-8.3738
-8.40696
-8.44195
-8.47856
-8.51657
-8.55576
-8.59587
-8.63667
-8.6779
-8.7193
-8.76064
-8.80166
-8.84215
-8.88188
-8.92068
-8.95836
-8.99476
-9.02976
-9.06324
-9.09514
-9.12538
-9.15397
-9.18086
-9.20616
-9.22983
-9.25207
-9.27286
-9.29247
-9.3109
-9.32851
-9.34531
-9.36174
-9.37782
-9.39405
-9.41046
-9.42757
-9.44546
-9.4646
-9.48522
-9.50765
-9.53217
-9.55911
-9.58867
-9.62123
-9.65691
-9.69602
-9.73863
-9.78491
-9.83483
-9.88852
-9.94567
-10.0064
-10.0703
-10.1371
-10.2065
-10.2777
-10.3503
-10.4234
-10.4962
-10.5675
-10.6363
-10.7016
-10.7618
-10.8158
-10.8619
-10.8987
-10.9242
-10.9361
-10.9322
-10.9102
-10.8679
-10.803
-10.713
-10.5954
-10.4476
-10.2672
-10.0518
-9.7991
-9.5068
-9.17291
-8.79564
-8.37355
-7.90559
-7.39119
-6.83042
-6.22391
-5.57302
-4.87986
-4.14734
-3.37912
-2.57963
-1.75402
-0.908087
-0.0481571
0.819151
1.68707
2.54903
3.39871
4.23037
5.03882
5.81979
6.56966
7.28578
7.96614
8.60958
9.21544
9.78369
10.3148
10.8095
11.269
11.6946
12.088
12.4506
12.7844
13.091
13.3722
13.6299
13.8656
14.0811
14.2778
14.4573
14.6209
14.77
14.9057
15.0292
15.1416
15.2438
15.3366
15.4209
15.4975
15.567
15.6301
15.6874
15.7393
15.7864
15.829
15.8676
15.9025
15.9339
15.9621
15.9872
16.0095
16.029
16.0457
16.0597
16.071
16.0793