/*--------------------------------*- C++ -*----------------------------------*\
  =========                 |
  \\      /  F ield         | OpenFOAM: The Open Source CFD Toolbox
   \\    /   O peration     | Website:  https://openfoam.org
    \\  /    A nd           | Version:  8
     \\/     M anipulation  |
\*---------------------------------------------------------------------------*/
FoamFile
{
    version     2.0;
    format      ascii;
    class       surfaceScalarField;
    location    "90";
    object      phi;
}
// * * * * * * * * * * * * * * * * * * * * * * * * * * * * * * * * * * * * * //

dimensions      [0 3 -1 0 0 0 0];

internalField   nonuniform List<scalar> 
24170
(
3.12899e-06
5.94167e-08
3.04657e-06
8.24209e-08
2.9734e-06
7.31616e-08
2.90466e-06
6.87366e-08
2.84018e-06
6.44723e-08
2.78265e-06
5.75172e-08
2.73309e-06
4.95564e-08
2.69084e-06
4.22456e-08
2.65479e-06
3.60418e-08
2.62387e-06
3.09139e-08
2.59706e-06
2.68065e-08
2.57345e-06
2.36066e-08
2.55227e-06
2.11734e-08
2.53272e-06
1.95439e-08
2.51412e-06
1.85957e-08
2.49396e-06
2.01534e-08
2.47239e-06
2.15722e-08
4.36248e-08
2.42877e-06
3.45306e-06
2.36046e-08
3.45699e-06
7.849e-08
3.4505e-06
7.96513e-08
3.43899e-06
8.02395e-08
3.42414e-06
7.93202e-08
3.4068e-06
7.48561e-08
3.38744e-06
6.89096e-08
3.36674e-06
6.2944e-08
3.34536e-06
5.74121e-08
3.32389e-06
5.23785e-08
3.30279e-06
4.79018e-08
3.28232e-06
4.4078e-08
3.26263e-06
4.08593e-08
3.2437e-06
3.8472e-08
3.2256e-06
3.66918e-08
3.20815e-06
3.75948e-08
3.19196e-06
3.77712e-08
5.22355e-08
3.18335e-06
3.66815e-06
1.79713e-08
3.67917e-06
6.74696e-08
3.68535e-06
7.34618e-08
3.68932e-06
7.62625e-08
3.69084e-06
7.78008e-08
3.68976e-06
7.59257e-08
3.68649e-06
7.21813e-08
3.68147e-06
6.79585e-08
3.67509e-06
6.37857e-08
3.66766e-06
5.98018e-08
3.65944e-06
5.61134e-08
3.65066e-06
5.28592e-08
3.64145e-06
5.0064e-08
3.63193e-06
4.79873e-08
3.62205e-06
4.65708e-08
3.61242e-06
4.72177e-08
3.60185e-06
4.83386e-08
5.60522e-08
3.59803e-06
3.92584e-06
1.75236e-08
3.93588e-06
5.74287e-08
3.94248e-06
6.68589e-08
3.94795e-06
7.07917e-08
3.95227e-06
7.34789e-08
3.95509e-06
7.30976e-08
3.95661e-06
7.06617e-08
3.95705e-06
6.75127e-08
3.9566e-06
6.42322e-08
3.95539e-06
6.10068e-08
3.95354e-06
5.79568e-08
3.95116e-06
5.52401e-08
3.9483e-06
5.29188e-08
3.94506e-06
5.12291e-08
3.94141e-06
5.02151e-08
3.93793e-06
5.06914e-08
3.93429e-06
5.19858e-08
5.609e-08
3.93425e-06
4.20818e-06
1.64654e-08
4.21594e-06
4.9674e-08
4.22158e-06
6.12128e-08
4.2266e-06
6.57615e-08
4.23125e-06
6.88303e-08
4.23509e-06
6.92544e-08
4.23809e-06
6.76534e-08
4.24037e-06
6.52333e-08
4.24201e-06
6.25831e-08
4.2431e-06
5.99098e-08
4.24371e-06
5.73422e-08
4.24391e-06
5.50372e-08
4.24374e-06
5.30838e-08
4.2433e-06
5.16721e-08
4.24263e-06
5.08806e-08
4.24218e-06
5.11343e-08
4.24207e-06
5.20999e-08
5.41843e-08
4.24397e-06
4.51069e-06
1.4858e-08
4.51683e-06
4.35356e-08
4.52202e-06
5.60225e-08
4.52675e-06
6.10274e-08
4.53135e-06
6.42261e-08
4.53546e-06
6.51432e-08
4.53896e-06
6.4149e-08
4.54192e-06
6.22786e-08
4.54439e-06
6.011e-08
4.54643e-06
5.78635e-08
4.54809e-06
5.56763e-08
4.54943e-06
5.36957e-08
4.55049e-06
5.20224e-08
4.55136e-06
5.07983e-08
4.55215e-06
5.00937e-08
4.55318e-06
5.00966e-08
4.5547e-06
5.05836e-08
5.13954e-08
4.55748e-06
4.83431e-06
1.32636e-08
4.83957e-06
3.82711e-08
4.84464e-06
5.0956e-08
4.84925e-06
5.64078e-08
4.85377e-06
5.97043e-08
4.85794e-06
6.09666e-08
4.86164e-06
6.04497e-08
4.86489e-06
5.90227e-08
4.86775e-06
5.7244e-08
4.87026e-06
5.53448e-08
4.87247e-06
5.34678e-08
4.87441e-06
5.17483e-08
4.87615e-06
5.02859e-08
4.87776e-06
4.91804e-08
4.87938e-06
4.84765e-08
4.88124e-06
4.82261e-08
4.88358e-06
4.8242e-08
4.82122e-08
4.88676e-06
5.18103e-06
1.18136e-08
5.1857e-06
3.36009e-08
5.19064e-06
4.60155e-08
5.1952e-06
5.18447e-08
5.19967e-06
5.52349e-08
5.20388e-06
5.67526e-08
5.20769e-06
5.663e-08
5.21113e-06
5.5582e-08
5.21424e-06
5.41365e-08
5.21704e-06
5.25336e-08
5.21959e-06
5.09178e-08
5.22192e-06
4.94121e-08
5.2241e-06
4.81071e-08
5.22621e-06
4.70699e-08
5.22836e-06
4.63185e-08
5.23075e-06
4.5833e-08
5.23354e-06
4.54483e-08
4.48644e-08
5.23689e-06
5.55268e-06
1.04752e-08
5.55683e-06
2.94374e-08
5.56158e-06
4.12673e-08
5.5661e-06
4.73227e-08
5.57054e-06
5.0785e-08
5.5748e-06
5.24904e-08
5.57873e-06
5.26976e-08
5.58232e-06
5.19845e-08
5.58562e-06
5.08347e-08
5.58865e-06
4.94932e-08
5.59146e-06
4.81032e-08
5.5941e-06
4.67762e-08
5.59661e-06
4.55905e-08
5.59909e-06
4.45898e-08
5.60163e-06
4.37718e-08
5.60437e-06
4.30863e-08
5.60743e-06
4.23936e-08
4.14519e-08
5.61083e-06
5.95102e-06
9.22906e-09
5.95473e-06
2.57248e-08
5.95924e-06
3.67546e-08
5.96371e-06
4.28547e-08
5.96814e-06
4.63517e-08
5.97244e-06
4.81864e-08
5.97647e-06
4.86613e-08
5.98021e-06
4.82415e-08
5.98369e-06
4.73553e-08
5.98693e-06
4.62467e-08
5.98998e-06
4.50551e-08
5.99287e-06
4.38806e-08
5.99567e-06
4.27888e-08
5.99845e-06
4.18087e-08
6.00129e-06
4.0927e-08
6.00429e-06
4.00867e-08
6.0075e-06
3.91772e-08
3.80248e-08
6.01092e-06
6.37797e-06
8.07469e-09
6.38129e-06
2.23922e-08
6.38556e-06
3.24816e-08
6.38996e-06
3.84509e-08
6.39437e-06
4.19344e-08
6.39871e-06
4.38456e-08
6.40284e-06
4.45263e-08
6.40672e-06
4.43553e-08
6.41037e-06
4.37021e-08
6.41382e-06
4.28001e-08
6.41708e-06
4.1784e-08
6.42022e-06
4.07424e-08
6.42327e-06
3.97307e-08
6.42631e-06
3.87681e-08
6.42939e-06
3.78402e-08
6.43258e-06
3.6895e-08
6.4359e-06
3.58538e-08
3.45944e-08
6.43933e-06
5.74174e-06
7.16287e-09
5.7443e-06
1.98347e-08
5.74772e-06
2.90572e-08
5.75138e-06
3.47885e-08
5.75509e-06
3.82165e-08
5.75878e-06
4.01558e-08
5.76234e-06
4.09621e-08
5.76573e-06
4.09643e-08
5.76894e-06
4.04833e-08
5.772e-06
3.97366e-08
5.77493e-06
3.88528e-08
5.77776e-06
3.79125e-08
5.78052e-06
3.69626e-08
5.78326e-06
3.6021e-08
5.78603e-06
3.50723e-08
5.78884e-06
3.40775e-08
5.79171e-06
3.29773e-08
3.16913e-08
5.79461e-06
6.99912e-06
6.1972e-09
7.00183e-06
1.71246e-08
7.00554e-06
2.53378e-08
7.00964e-06
3.06887e-08
7.01387e-06
3.39825e-08
7.01811e-06
3.59049e-08
7.02227e-06
3.68047e-08
7.02626e-06
3.69637e-08
7.03009e-06
3.66498e-08
7.03377e-06
3.60593e-08
7.03731e-06
3.53104e-08
7.04074e-06
3.44763e-08
7.0441e-06
3.35975e-08
7.04743e-06
3.26891e-08
7.05075e-06
3.17432e-08
7.05409e-06
3.07317e-08
7.05744e-06
2.96212e-08
2.83538e-08
7.06078e-06
8.53186e-06
5.18246e-09
8.53469e-06
1.42889e-08
8.53868e-06
2.1348e-08
8.54321e-06
2.61522e-08
8.54798e-06
2.9207e-08
8.55283e-06
3.10446e-08
8.55765e-06
3.19879e-08
8.56234e-06
3.22699e-08
8.56687e-06
3.21077e-08
8.57126e-06
3.16653e-08
8.57552e-06
3.10532e-08
8.57966e-06
3.03307e-08
8.58371e-06
2.95374e-08
8.58771e-06
2.86855e-08
8.59167e-06
2.77767e-08
8.5956e-06
2.67954e-08
8.59949e-06
2.5728e-08
2.45367e-08
8.6033e-06
1.04003e-05
4.12693e-09
1.04032e-05
1.13445e-08
1.04075e-05
1.71041e-08
1.04124e-05
2.11813e-08
1.04178e-05
2.38617e-08
1.04233e-05
2.55266e-08
1.04288e-05
2.644e-08
1.04343e-05
2.67956e-08
1.04396e-05
2.67534e-08
1.04448e-05
2.64488e-08
1.04499e-05
2.59676e-08
1.04549e-05
2.53694e-08
1.04597e-05
2.46801e-08
1.04645e-05
2.39207e-08
1.04692e-05
2.30926e-08
1.04738e-05
2.21983e-08
1.04782e-05
2.12336e-08
2.01767e-08
1.04826e-05
1.26779e-05
3.03123e-09
1.26809e-05
8.28348e-09
1.26854e-05
1.2598e-08
1.26909e-05
1.57578e-08
1.26968e-05
1.79063e-08
1.2703e-05
1.92818e-08
1.27094e-05
2.00788e-08
1.27158e-05
2.04386e-08
1.2722e-05
2.04777e-08
1.27282e-05
2.02876e-08
1.27342e-05
1.99394e-08
1.27401e-05
1.94746e-08
1.27458e-05
1.8922e-08
1.27515e-05
1.8294e-08
1.2757e-05
1.76034e-08
1.27623e-05
1.68533e-08
1.27675e-05
1.60547e-08
1.51858e-08
1.27724e-05
1.54543e-05
1.8821e-09
1.54576e-05
5.05352e-09
1.54624e-05
7.76216e-09
1.54683e-05
9.80921e-09
1.5475e-05
1.12473e-08
1.54821e-05
1.22001e-08
1.54893e-05
1.27786e-08
1.54967e-05
1.30688e-08
1.5504e-05
1.31396e-08
1.55113e-05
1.30455e-08
1.55184e-05
1.28288e-08
1.55253e-05
1.25195e-08
1.55321e-05
1.21364e-08
1.55387e-05
1.16915e-08
1.55451e-05
1.11942e-08
1.55513e-05
1.06526e-08
1.55573e-05
1.00781e-08
9.45417e-09
1.5563e-05
1.88389e-05
6.34145e-10
1.88424e-05
1.52572e-09
1.88478e-05
2.41283e-09
1.88544e-05
3.12837e-09
1.8862e-05
3.66721e-09
1.88701e-05
4.05557e-09
1.88786e-05
4.3156e-09
1.88872e-05
4.46841e-09
1.88958e-05
4.53266e-09
1.89043e-05
4.52349e-09
1.89127e-05
4.45208e-09
1.89209e-05
4.32853e-09
1.89288e-05
4.16006e-09
1.89366e-05
3.95216e-09
1.89441e-05
3.70966e-09
1.89513e-05
3.43788e-09
1.89582e-05
3.146e-09
2.81749e-09
1.89648e-05
2.29648e-05
-8.22469e-10
2.29689e-05
-2.59495e-09
2.29752e-05
-3.88011e-09
2.29831e-05
-4.7784e-09
2.29921e-05
-5.33189e-09
2.30018e-05
-5.63316e-09
2.30119e-05
-5.76318e-09
2.30221e-05
-5.78288e-09
2.30324e-05
-5.72272e-09
2.30425e-05
-5.62174e-09
2.30524e-05
-5.4996e-09
2.30621e-05
-5.3802e-09
2.30716e-05
-5.26626e-09
2.30807e-05
-5.16845e-09
2.30895e-05
-5.08306e-09
2.30979e-05
-5.01706e-09
2.3106e-05
-4.9616e-09
-4.93884e-09
2.31138e-05
1.68119e-05
-1.97351e-09
1.68151e-05
-5.80936e-09
1.682e-05
-8.7932e-09
1.68261e-05
-1.08982e-08
1.6833e-05
-1.22108e-08
1.68403e-05
-1.29525e-08
1.68478e-05
-1.33204e-08
1.68555e-05
-1.34078e-08
1.6863e-05
-1.33068e-08
1.68705e-05
-1.30743e-08
1.68778e-05
-1.27781e-08
1.68848e-05
-1.24412e-08
1.68916e-05
-1.20978e-08
1.68982e-05
-1.17478e-08
1.69045e-05
-1.14118e-08
1.69106e-05
-1.10836e-08
1.69164e-05
-1.07748e-08
-1.04902e-08
1.6922e-05
1.46357e-05
-3.07964e-09
1.46388e-05
-8.94029e-09
1.46436e-05
-1.35876e-08
1.46495e-05
-1.67638e-08
1.46559e-05
-1.86568e-08
1.46627e-05
-1.97199e-08
1.46696e-05
-2.02172e-08
1.46764e-05
-2.02945e-08
1.46832e-05
-2.00744e-08
1.46898e-05
-1.96793e-08
1.46962e-05
-1.91792e-08
1.47024e-05
-1.86267e-08
1.47083e-05
-1.80468e-08
1.4714e-05
-1.74634e-08
1.47195e-05
-1.68852e-08
1.47248e-05
-1.63251e-08
1.47298e-05
-1.57808e-08
-1.52722e-08
1.47345e-05
1.27412e-05
-4.11638e-09
1.27443e-05
-1.21094e-08
1.27492e-05
-1.8495e-08
1.2755e-05
-2.25233e-08
1.27611e-05
-2.47878e-08
1.27675e-05
-2.60618e-08
1.27739e-05
-2.66089e-08
1.27801e-05
-2.65782e-08
1.27862e-05
-2.61777e-08
1.27921e-05
-2.55712e-08
1.27978e-05
-2.48489e-08
1.28032e-05
-2.4067e-08
1.28084e-05
-2.32557e-08
1.28134e-05
-2.24463e-08
1.28182e-05
-2.16453e-08
1.28227e-05
-2.08719e-08
1.28271e-05
-2.01195e-08
-1.94075e-08
1.28312e-05
1.10918e-05
-4.98506e-09
1.10951e-05
-1.53697e-08
1.11002e-05
-2.36928e-08
1.1106e-05
-2.82541e-08
1.11118e-05
-3.06603e-08
1.11178e-05
-3.20419e-08
1.11237e-05
-3.25324e-08
1.11295e-05
-3.23133e-08
1.1135e-05
-3.16852e-08
1.11403e-05
-3.08447e-08
1.11453e-05
-2.98874e-08
1.11501e-05
-2.88672e-08
1.11547e-05
-2.78315e-08
1.1159e-05
-2.67996e-08
1.11632e-05
-2.57977e-08
1.11671e-05
-2.48233e-08
1.11709e-05
-2.38888e-08
-2.29937e-08
1.11745e-05
9.65584e-06
-5.615e-09
9.6593e-06
-1.88291e-08
9.6647e-06
-2.91027e-08
9.67029e-06
-3.38475e-08
9.67597e-06
-3.63434e-08
9.68168e-06
-3.77514e-08
9.68718e-06
-3.80391e-08
9.6924e-06
-3.75375e-08
9.69736e-06
-3.66473e-08
9.70208e-06
-3.55623e-08
9.70655e-06
-3.43637e-08
9.71079e-06
-3.311e-08
9.71481e-06
-3.18475e-08
9.71862e-06
-3.06075e-08
9.72222e-06
-2.94029e-08
9.72564e-06
-2.82442e-08
9.72888e-06
-2.71315e-08
-2.60652e-08
9.73195e-06
8.40534e-06
-5.6056e-09
8.40969e-06
-2.31775e-08
8.41498e-06
-3.43973e-08
8.42009e-06
-3.89602e-08
8.42556e-06
-4.18196e-08
8.4311e-06
-4.32924e-08
8.43633e-06
-4.32789e-08
8.44121e-06
-4.24166e-08
8.44576e-06
-4.12064e-08
8.45002e-06
-3.98257e-08
8.454e-06
-3.83441e-08
8.45771e-06
-3.68245e-08
8.46118e-06
-3.53152e-08
8.46441e-06
-3.38446e-08
8.46744e-06
-3.24276e-08
8.47026e-06
-3.10717e-08
8.47291e-06
-2.97769e-08
-2.85478e-08
8.47538e-06
7.31456e-06
-2.88526e-09
7.32123e-06
-2.9851e-08
7.32683e-06
-4.00022e-08
7.33186e-06
-4.39878e-08
7.33735e-06
-4.73112e-08
7.34278e-06
-4.87283e-08
7.34778e-06
-4.82898e-08
7.35234e-06
-4.69791e-08
7.35648e-06
-4.5349e-08
7.36021e-06
-4.35585e-08
7.36355e-06
-4.16914e-08
7.36654e-06
-3.98138e-08
7.36921e-06
-3.79865e-08
7.37159e-06
-3.6229e-08
7.37372e-06
-3.45559e-08
7.37561e-06
-3.29721e-08
7.37731e-06
-3.14766e-08
-3.00654e-08
7.37883e-06
6.36246e-06
4.71505e-09
6.37193e-06
-3.93189e-08
6.3794e-06
-4.74758e-08
6.3861e-06
-5.06913e-08
6.39246e-06
-5.36746e-08
6.39787e-06
-5.41376e-08
6.40227e-06
-5.26962e-08
6.40587e-06
-5.05854e-08
6.4088e-06
-4.82875e-08
6.41114e-06
-4.58956e-08
6.41293e-06
-4.34815e-08
6.41424e-06
-4.11317e-08
6.41514e-06
-3.88913e-08
6.41569e-06
-3.67804e-08
6.41594e-06
-3.48103e-08
6.41594e-06
-3.29785e-08
6.41575e-06
-3.12882e-08
-2.97131e-08
6.41541e-06
5.54121e-06
8.96615e-09
5.55035e-06
-4.8464e-08
5.5584e-06
-5.55282e-08
5.56615e-06
-5.84442e-08
5.57267e-06
-6.02012e-08
5.57707e-06
-5.85409e-08
5.5794e-06
-5.50291e-08
5.58006e-06
-5.12477e-08
5.57941e-06
-4.76488e-08
5.57775e-06
-4.42335e-08
5.57529e-06
-4.10233e-08
5.57222e-06
-3.80621e-08
5.56868e-06
-3.53571e-08
5.56479e-06
-3.28991e-08
5.56066e-06
-3.06834e-08
5.55637e-06
-2.8696e-08
5.55202e-06
-2.69347e-08
-2.53544e-08
5.54766e-06
4.86005e-06
-2.34726e-08
4.86539e-06
-5.38184e-08
4.86527e-06
-5.54028e-08
4.86223e-06
-5.54071e-08
4.85709e-06
-5.50779e-08
4.84965e-06
-5.11005e-08
4.84002e-06
-4.54051e-08
4.8287e-06
-3.99392e-08
4.81622e-06
-3.51717e-08
4.80305e-06
-3.1062e-08
4.78957e-06
-2.75439e-08
4.77605e-06
-2.45555e-08
4.7627e-06
-2.20131e-08
4.74965e-06
-1.98486e-08
4.73697e-06
-1.80134e-08
4.72474e-06
-1.64745e-08
4.71308e-06
-1.5272e-08
-1.49233e-08
4.70265e-06
4.1792e-06
4.12538e-06
4.06998e-06
4.01457e-06
3.9595e-06
3.90839e-06
3.86299e-06
3.82305e-06
3.78788e-06
3.75681e-06
3.72927e-06
3.70471e-06
3.6827e-06
3.66285e-06
3.64483e-06
3.62836e-06
3.61309e-06
3.59816e-06
2.2648e-08
-2.28556e-08
5.56219e-08
-3.31588e-08
8.77669e-08
-3.23237e-08
1.16183e-07
-2.85297e-08
1.39025e-07
-2.29833e-08
1.55407e-07
-1.64872e-08
1.6509e-07
-9.814e-09
1.68805e-07
-3.83344e-09
1.6871e-07
-8.69687e-11
1.64856e-07
3.61677e-09
1.53214e-07
1.13464e-08
1.36042e-07
1.69158e-08
1.14585e-07
2.11529e-08
9.00306e-08
2.43525e-08
6.3107e-08
2.66094e-08
3.50313e-08
2.79268e-08
6.0032e-09
2.86804e-08
-2.37388e-08
2.96242e-08
-5.67087e-08
3.26377e-08
-9.5896e-08
3.91066e-08
-1.44665e-07
4.84765e-08
-2.01324e-07
5.66183e-08
-2.62401e-07
6.08309e-08
-3.27478e-07
6.50497e-08
-3.96614e-07
6.89106e-08
-4.69378e-07
7.27233e-08
-5.4598e-07
7.63688e-08
-6.25623e-07
7.95807e-08
-7.07985e-07
8.21381e-08
-7.92019e-07
8.39496e-08
-8.77204e-07
8.49556e-08
-9.62484e-07
8.51769e-08
-1.04735e-06
8.46484e-08
-1.13094e-06
8.34744e-08
-1.2129e-06
8.17485e-08
-1.29263e-06
7.96033e-08
-1.36997e-06
7.71391e-08
-1.44456e-06
7.4479e-08
-1.51644e-06
7.17008e-08
-1.58544e-06
6.88985e-08
-1.65171e-06
6.61219e-08
-1.71524e-06
6.34358e-08
-1.77623e-06
6.08644e-08
-1.83477e-06
5.84479e-08
-1.89108e-06
5.61915e-08
-1.94529e-06
5.41168e-08
-1.99762e-06
5.22171e-08
-2.04822e-06
5.05019e-08
-2.09728e-06
4.89579e-08
-2.14498e-06
4.75882e-08
-2.19145e-06
4.63767e-08
-2.2369e-06
4.53205e-08
-2.28141e-06
4.44055e-08
-2.32518e-06
4.3629e-08
-2.36828e-06
4.29778e-08
-2.41089e-06
4.24461e-08
-2.45305e-06
4.20248e-08
-2.49494e-06
4.17094e-08
-2.53657e-06
4.1492e-08
-2.57814e-06
4.13638e-08
-2.61961e-06
4.13214e-08
-2.66118e-06
4.13569e-08
-2.70278e-06
4.14692e-08
-2.74464e-06
4.1645e-08
-2.78664e-06
4.18864e-08
-2.82904e-06
4.21744e-08
-2.87166e-06
4.25169e-08
-2.91476e-06
4.2889e-08
-2.95815e-06
4.33021e-08
-3.00207e-06
4.3723e-08
-3.04629e-06
4.41687e-08
-3.09109e-06
4.45986e-08
-3.13615e-06
4.50334e-08
-3.18178e-06
4.54209e-08
-3.22761e-06
4.57912e-08
-3.27395e-06
4.60867e-08
-3.32037e-06
4.63411e-08
-3.36713e-06
4.65033e-08
-3.41378e-06
4.66077e-08
-3.4606e-06
4.65814e-08
-3.50709e-06
4.64638e-08
-3.55348e-06
4.61832e-08
-3.59922e-06
4.57749e-08
-3.64454e-06
4.51402e-08
-3.68881e-06
4.4318e-08
-3.73213e-06
4.3218e-08
-3.77388e-06
4.18892e-08
-3.81396e-06
4.02553e-08
-3.8519e-06
3.83357e-08
-3.88737e-06
3.61158e-08
-3.92027e-06
3.34695e-08
-3.95014e-06
3.03735e-08
-3.97647e-06
2.67624e-08
-3.99867e-06
2.26199e-08
-4.01619e-06
1.78987e-08
-4.02846e-06
1.26437e-08
-4.03512e-06
6.95848e-09
-4.03611e-06
1.26465e-09
-4.03175e-06
-4.18526e-09
-4.022e-06
-9.6422e-09
-4.00666e-06
-1.53582e-08
-3.9855e-06
-2.13358e-08
-3.95837e-06
-2.74568e-08
-3.9251e-06
-3.37724e-08
-3.88505e-06
-4.05833e-08
-3.83809e-06
-4.75759e-08
-3.78444e-06
-5.41441e-08
-3.72396e-06
-6.09726e-08
-3.65605e-06
-6.82329e-08
-3.58102e-06
-7.53295e-08
-3.49894e-06
-8.21921e-08
-3.40987e-06
-8.91577e-08
-3.3139e-06
-9.58814e-08
-3.21128e-06
-1.02485e-07
-3.10217e-06
-1.08818e-07
-2.98695e-06
-1.14888e-07
-2.86588e-06
-1.20593e-07
-2.73943e-06
-1.25936e-07
-2.608e-06
-1.3082e-07
-2.47215e-06
-1.35227e-07
-2.3324e-06
-1.39087e-07
-2.18934e-06
-1.42385e-07
-2.04354e-06
-1.45093e-07
-1.89558e-06
-1.47192e-07
-1.7461e-06
-1.48692e-07
-1.59569e-06
-1.4958e-07
-1.445e-06
-1.49893e-07
-1.29458e-06
-1.49632e-07
-1.14499e-06
-1.4889e-07
-9.96682e-07
-1.47652e-07
-8.50134e-07
-1.46029e-07
-7.0568e-07
-1.43994e-07
-5.63727e-07
-1.41657e-07
-4.24534e-07
-1.38974e-07
-2.88152e-07
-1.36326e-07
-1.53924e-07
-1.34247e-07
-2.09262e-08
-1.33163e-07
1.1073e-07
-1.31898e-07
2.38815e-07
-1.28476e-07
3.61952e-07
-1.23584e-07
4.79764e-07
-1.18297e-07
5.92209e-07
-1.12906e-07
6.99331e-07
-1.07544e-07
8.01225e-07
-1.02288e-07
8.98039e-07
-9.71781e-08
9.89926e-07
-9.22322e-08
1.07709e-06
-8.74796e-08
1.15971e-06
-8.29188e-08
1.238e-06
-7.85625e-08
1.31214e-06
-7.44016e-08
1.38234e-06
-7.04395e-08
1.4488e-06
-6.66755e-08
1.51168e-06
-6.30917e-08
1.57115e-06
-5.96666e-08
1.62737e-06
-5.64095e-08
1.68051e-06
-5.33143e-08
1.73073e-06
-5.03839e-08
1.77818e-06
-4.76082e-08
1.82302e-06
-4.49836e-08
1.86537e-06
-4.24926e-08
1.90537e-06
-4.01346e-08
1.94316e-06
-3.79026e-08
1.97883e-06
-3.57956e-08
2.01253e-06
-3.38017e-08
2.04433e-06
-3.19145e-08
2.07436e-06
-3.01263e-08
2.1027e-06
-2.84322e-08
2.12942e-06
-2.68022e-08
2.15455e-06
-2.52216e-08
2.17813e-06
-2.36608e-08
2.20012e-06
-2.20672e-08
2.22042e-06
-2.03686e-08
2.23881e-06
-1.84697e-08
2.25492e-06
-1.61783e-08
2.26797e-06
-1.31179e-08
2.27646e-06
-8.55856e-09
2.27557e-06
8.27509e-10
2.25656e-06
1.89535e-08
2.19885e-06
5.76556e-08
1.23054e-07
2.07574e-06
3.41233e-08
-5.71488e-08
6.32688e-08
-6.2439e-08
8.4145e-08
-5.33084e-08
9.88088e-08
-4.32665e-08
1.08367e-07
-3.2622e-08
1.13369e-07
-2.1555e-08
1.13869e-07
-1.03939e-08
1.09374e-07
5.8373e-10
9.79537e-08
1.1235e-08
7.97467e-08
2.17144e-08
5.89717e-08
3.19993e-08
3.41743e-08
4.16025e-08
4.91544e-09
5.0291e-08
-2.88865e-08
5.80643e-08
-6.75174e-08
6.51328e-08
-1.11491e-07
7.18314e-08
-1.61557e-07
7.86468e-08
-2.1821e-07
8.62159e-08
-2.80848e-07
9.51826e-08
-3.47558e-07
1.05766e-07
-4.16417e-07
1.17255e-07
-4.87805e-07
1.27965e-07
-5.63617e-07
1.36574e-07
-6.42575e-07
1.43974e-07
-7.24365e-07
1.50629e-07
-8.07853e-07
1.56168e-07
-8.92088e-07
1.60526e-07
-9.76159e-07
1.63604e-07
-1.05944e-06
1.65333e-07
-1.14126e-06
1.65716e-07
-1.2212e-06
1.64806e-07
-1.29881e-06
1.62722e-07
-1.37387e-06
1.59623e-07
-1.44617e-06
1.55706e-07
-1.51568e-06
1.51166e-07
-1.58234e-06
1.46196e-07
-1.64626e-06
1.40965e-07
-1.70748e-06
1.3563e-07
-1.76616e-06
1.30313e-07
-1.82245e-06
1.25121e-07
-1.87652e-06
1.20127e-07
-1.92854e-06
1.15393e-07
-1.97869e-06
1.10953e-07
-2.02713e-06
1.06834e-07
-2.07404e-06
1.03045e-07
-2.11958e-06
9.9593e-08
-2.16389e-06
9.64696e-08
-2.20711e-06
9.36692e-08
-2.24939e-06
9.11769e-08
-2.29084e-06
8.89805e-08
-2.33159e-06
8.70605e-08
-2.37174e-06
8.54041e-08
-2.41139e-06
8.39927e-08
-2.45065e-06
8.28131e-08
-2.48959e-06
8.18464e-08
-2.52831e-06
8.108e-08
-2.56687e-06
8.04985e-08
-2.60535e-06
8.00906e-08
-2.64379e-06
7.98401e-08
-2.68227e-06
7.97353e-08
-2.72081e-06
7.97632e-08
-2.75948e-06
7.9913e-08
-2.79828e-06
8.01712e-08
-2.83727e-06
8.05235e-08
-2.87643e-06
8.09564e-08
-2.91583e-06
8.14541e-08
-2.95541e-06
8.20028e-08
-2.99521e-06
8.2584e-08
-3.03517e-06
8.31843e-08
-3.07533e-06
8.37805e-08
-3.11558e-06
8.43593e-08
-3.15596e-06
8.48915e-08
-3.19635e-06
8.53634e-08
-3.23676e-06
8.57415e-08
-3.27705e-06
8.60111e-08
-3.31721e-06
8.61375e-08
-3.35707e-06
8.61147e-08
-3.39658e-06
8.59039e-08
-3.43553e-06
8.54912e-08
-3.47388e-06
8.48303e-08
-3.51138e-06
8.39091e-08
-3.54795e-06
8.26746e-08
-3.58331e-06
8.11075e-08
-3.61739e-06
7.91466e-08
-3.64987e-06
7.67774e-08
-3.68062e-06
7.3946e-08
-3.70933e-06
7.06446e-08
-3.7358e-06
6.68274e-08
-3.75967e-06
6.25134e-08
-3.78081e-06
5.76182e-08
-3.79909e-06
5.21207e-08
-3.81439e-06
4.59782e-08
-3.82654e-06
3.91797e-08
-3.83544e-06
3.17689e-08
-3.84108e-06
2.37559e-08
-3.84344e-06
1.52078e-08
-3.84247e-06
6.15639e-09
-3.8377e-06
-3.37517e-09
-3.82836e-06
-1.34654e-08
-3.81386e-06
-2.41139e-08
-3.79396e-06
-3.53489e-08
-3.76834e-06
-4.7126e-08
-3.7367e-06
-5.94167e-08
-3.69866e-06
-7.21755e-08
-3.65426e-06
-8.54267e-08
-3.60323e-06
-9.89946e-08
-3.54509e-06
-1.12677e-07
-3.47971e-06
-1.26643e-07
-3.4074e-06
-1.40796e-07
-3.32792e-06
-1.54971e-07
-3.2412e-06
-1.6902e-07
-3.14747e-06
-1.82904e-07
-3.04678e-06
-1.96539e-07
-2.93933e-06
-2.09826e-07
-2.82534e-06
-2.22643e-07
-2.70513e-06
-2.34868e-07
-2.57907e-06
-2.46379e-07
-2.44759e-06
-2.5709e-07
-2.31117e-06
-2.66876e-07
-2.17037e-06
-2.75654e-07
-2.02575e-06
-2.83316e-07
-1.87794e-06
-2.89811e-07
-1.72753e-06
-2.95087e-07
-1.57518e-06
-2.99122e-07
-1.42151e-06
-3.01911e-07
-1.26718e-06
-3.03465e-07
-1.1128e-06
-3.03825e-07
-9.58981e-07
-3.03051e-07
-8.06258e-07
-3.01235e-07
-6.55141e-07
-2.98447e-07
-5.06059e-07
-2.94834e-07
-3.59403e-07
-2.90437e-07
-2.15348e-07
-2.85555e-07
-7.3749e-08
-2.80479e-07
6.51639e-08
-2.752e-07
2.00389e-07
-2.69488e-07
3.30389e-07
-2.63224e-07
4.54437e-07
-2.56069e-07
5.73428e-07
-2.47637e-07
6.87939e-07
-2.38313e-07
7.97992e-07
-2.28573e-07
9.03562e-07
-2.18697e-07
1.00465e-06
-2.08835e-07
1.10128e-06
-1.99115e-07
1.19352e-06
-1.896e-07
1.28146e-06
-1.8035e-07
1.3652e-06
-1.71396e-07
1.44489e-06
-1.62777e-07
1.52067e-06
-1.54488e-07
1.59266e-06
-1.46544e-07
1.66101e-06
-1.38936e-07
1.72588e-06
-1.31677e-07
1.7874e-06
-1.24739e-07
1.84573e-06
-1.18121e-07
1.90102e-06
-1.11816e-07
1.95341e-06
-1.05824e-07
2.00305e-06
-1.00129e-07
2.05007e-06
-9.47344e-08
2.09461e-06
-8.96173e-08
2.1368e-06
-8.47684e-08
2.17675e-06
-8.01736e-08
2.21459e-06
-7.583e-08
2.25044e-06
-7.17225e-08
2.28441e-06
-6.78398e-08
2.31659e-06
-6.41641e-08
2.34708e-06
-6.06868e-08
2.37597e-06
-5.73852e-08
2.40333e-06
-5.42191e-08
2.4292e-06
-5.1146e-08
2.45359e-06
-4.81109e-08
2.47649e-06
-4.50145e-08
2.49779e-06
-4.17251e-08
2.51732e-06
-3.80439e-08
2.53472e-06
-3.36295e-08
2.5494e-06
-2.78426e-08
2.56037e-06
-1.95765e-08
2.56721e-06
-6.05749e-09
2.5688e-06
1.73213e-08
2.5627e-06
6.37196e-08
1.52431e-07
2.53328e-06
2.52306e-08
-8.25104e-08
4.02001e-08
-7.75071e-08
4.85962e-08
-6.17827e-08
5.17232e-08
-4.64452e-08
5.02858e-08
-3.1242e-08
4.469e-08
-1.60054e-08
3.49913e-08
-7.48129e-10
2.1035e-08
1.44907e-08
2.55458e-09
2.96595e-08
-2.04223e-08
4.46379e-08
-4.7636e-08
5.91565e-08
-7.91469e-08
7.30649e-08
-1.15211e-07
8.63037e-08
-1.56117e-07
9.89312e-08
-2.0214e-07
1.11108e-07
-2.53433e-07
1.23091e-07
-3.10001e-07
1.35169e-07
-3.71401e-07
1.47585e-07
-4.36672e-07
1.60407e-07
-5.04379e-07
1.73444e-07
-5.7338e-07
1.86211e-07
-6.43452e-07
1.98008e-07
-7.15328e-07
2.08405e-07
-7.8853e-07
2.17147e-07
-8.62147e-07
2.24199e-07
-9.35512e-07
2.29499e-07
-1.00806e-06
2.33022e-07
-1.07927e-06
2.34776e-07
-1.1488e-06
2.34816e-07
-1.21638e-06
2.33251e-07
-1.28187e-06
2.30244e-07
-1.3452e-06
2.26006e-07
-1.40639e-06
2.20763e-07
-1.46547e-06
2.14742e-07
-1.52252e-06
2.08165e-07
-1.5776e-06
2.01237e-07
-1.63083e-06
1.94139e-07
-1.68226e-06
1.87026e-07
-1.73203e-06
1.80029e-07
-1.78019e-06
1.73249e-07
-1.82687e-06
1.66766e-07
-1.87215e-06
1.60635e-07
-1.91614e-06
1.54896e-07
-1.95891e-06
1.4957e-07
-2.00057e-06
1.44671e-07
-2.04122e-06
1.40198e-07
-2.08093e-06
1.36147e-07
-2.11981e-06
1.32506e-07
-2.15793e-06
1.29261e-07
-2.19538e-06
1.26395e-07
-2.23225e-06
1.23888e-07
-2.26861e-06
1.21721e-07
-2.30454e-06
1.19876e-07
-2.34011e-06
1.18331e-07
-2.37538e-06
1.17068e-07
-2.41042e-06
1.16067e-07
-2.44529e-06
1.15311e-07
-2.48004e-06
1.1478e-07
-2.51472e-06
1.14457e-07
-2.54938e-06
1.14324e-07
-2.58405e-06
1.14363e-07
-2.61876e-06
1.14557e-07
-2.65355e-06
1.14887e-07
-2.68843e-06
1.15336e-07
-2.72343e-06
1.15881e-07
-2.75855e-06
1.16502e-07
-2.79379e-06
1.17177e-07
-2.82916e-06
1.17884e-07
-2.86464e-06
1.18599e-07
-2.90022e-06
1.19296e-07
-2.93586e-06
1.19948e-07
-2.97154e-06
1.20525e-07
-3.00722e-06
1.20998e-07
-3.04287e-06
1.21332e-07
-3.0784e-06
1.21496e-07
-3.11378e-06
1.21456e-07
-3.1489e-06
1.21181e-07
-3.18369e-06
1.20634e-07
-3.21802e-06
1.19778e-07
-3.25181e-06
1.18568e-07
-3.28492e-06
1.16969e-07
-3.31721e-06
1.14928e-07
-3.34854e-06
1.12404e-07
-3.37877e-06
1.09343e-07
-3.40772e-06
1.05706e-07
-3.43523e-06
1.01444e-07
-3.46111e-06
9.65245e-08
-3.48512e-06
9.09165e-08
-3.50704e-06
8.45822e-08
-3.52667e-06
7.75023e-08
-3.54392e-06
6.95995e-08
-3.55864e-06
6.08434e-08
-3.57055e-06
5.12447e-08
-3.57946e-06
4.07853e-08
-3.58508e-06
2.94933e-08
-3.58715e-06
1.73444e-08
-3.58528e-06
4.35001e-09
-3.57909e-06
-9.54543e-09
-3.56821e-06
-2.4357e-08
-3.55231e-06
-4.00852e-08
-3.53109e-06
-5.67049e-08
-3.50424e-06
-7.41776e-08
-3.47148e-06
-9.24699e-08
-3.4325e-06
-1.11479e-07
-3.38714e-06
-1.31151e-07
-3.33511e-06
-1.51325e-07
-3.27618e-06
-1.719e-07
-3.21022e-06
-1.9281e-07
-3.13728e-06
-2.1393e-07
-3.05723e-06
-2.35125e-07
-2.97009e-06
-2.56235e-07
-2.87593e-06
-2.77063e-07
-2.7749e-06
-2.97546e-07
-2.66716e-06
-3.17474e-07
-2.55299e-06
-3.36701e-07
-2.43268e-06
-3.55002e-07
-2.30665e-06
-3.7222e-07
-2.17532e-06
-3.88177e-07
-2.03922e-06
-4.02722e-07
-1.8989e-06
-4.157e-07
-1.75496e-06
-4.26984e-07
-1.60802e-06
-4.36474e-07
-1.45871e-06
-4.44107e-07
-1.30768e-06
-4.4985e-07
-1.15558e-06
-4.53695e-07
-1.00307e-06
-4.55674e-07
-8.50744e-07
-4.55844e-07
-6.99211e-07
-4.54312e-07
-5.48991e-07
-4.51193e-07
-4.0059e-07
-4.46634e-07
-2.54403e-07
-4.40828e-07
-1.10657e-07
-4.34045e-07
3.03597e-08
-4.26464e-07
1.67977e-07
-4.18044e-07
3.01546e-07
-4.08745e-07
4.30625e-07
-3.98589e-07
5.54884e-07
-3.87537e-07
6.74191e-07
-3.75471e-07
7.88827e-07
-3.62402e-07
8.98997e-07
-3.48629e-07
1.00476e-06
-3.34481e-07
1.10614e-06
-3.20202e-07
1.20316e-06
-3.05976e-07
1.29589e-06
-2.91937e-07
1.38439e-06
-2.78188e-07
1.46877e-06
-2.64796e-07
1.54912e-06
-2.51819e-07
1.62558e-06
-2.39293e-07
1.69827e-06
-2.27236e-07
1.76733e-06
-2.15653e-07
1.83289e-06
-2.04549e-07
1.8951e-06
-1.93933e-07
1.95412e-06
-1.83801e-07
2.01009e-06
-1.74137e-07
2.06317e-06
-1.64934e-07
2.11348e-06
-1.56175e-07
2.16116e-06
-1.47851e-07
2.20635e-06
-1.39955e-07
2.24916e-06
-1.32472e-07
2.28974e-06
-1.25382e-07
2.3282e-06
-1.18672e-07
2.36467e-06
-1.12327e-07
2.39924e-06
-1.06331e-07
2.43203e-06
-1.00664e-07
2.46314e-06
-9.5308e-08
2.49267e-06
-9.02435e-08
2.52069e-06
-8.54358e-08
2.54727e-06
-8.08309e-08
2.57246e-06
-7.63668e-08
2.59628e-06
-7.19555e-08
2.6187e-06
-6.74646e-08
2.63966e-06
-6.27067e-08
2.65898e-06
-5.73971e-08
2.6764e-06
-5.10752e-08
2.69146e-06
-4.2935e-08
2.70348e-06
-3.16148e-08
2.71175e-06
-1.43624e-08
2.71557e-06
1.34775e-08
2.71657e-06
6.26942e-08
1.5143e-07
2.71755e-06
9.1413e-09
-9.17631e-08
9.18129e-09
-7.76247e-08
5.67187e-09
-5.83341e-08
-1.32776e-09
-3.9487e-08
-1.17356e-08
-2.08777e-08
-2.54739e-08
-2.30087e-09
-4.25706e-08
1.63093e-08
-6.3072e-08
3.49595e-08
-8.70603e-08
5.36108e-08
-1.1461e-07
7.2156e-08
-1.45914e-07
9.04244e-08
-1.81162e-07
1.08283e-07
-2.20556e-07
1.25664e-07
-2.64211e-07
1.42562e-07
-3.12163e-07
1.59027e-07
-3.64235e-07
1.75142e-07
-4.20078e-07
1.90978e-07
-4.79051e-07
2.06535e-07
-5.40368e-07
2.21689e-07
-6.03124e-07
2.36177e-07
-6.66581e-07
2.49631e-07
-7.30266e-07
2.61669e-07
-7.93923e-07
2.72024e-07
-8.57273e-07
2.8047e-07
-9.19987e-07
2.86872e-07
-9.81704e-07
2.91186e-07
-1.04216e-06
2.93439e-07
-1.10114e-06
2.93722e-07
-1.15855e-06
2.92176e-07
-1.21431e-06
2.88984e-07
-1.26848e-06
2.84365e-07
-1.32106e-06
2.78558e-07
-1.37214e-06
2.71804e-07
-1.42177e-06
2.64336e-07
-1.47001e-06
2.56374e-07
-1.51693e-06
2.48119e-07
-1.56257e-06
2.39746e-07
-1.60698e-06
2.31409e-07
-1.65022e-06
2.23233e-07
-1.69232e-06
2.15321e-07
-1.73334e-06
2.0775e-07
-1.77331e-06
2.00578e-07
-1.81229e-06
1.93848e-07
-1.85033e-06
1.87584e-07
-1.88749e-06
1.81801e-07
-1.92382e-06
1.76502e-07
-1.95939e-06
1.71684e-07
-1.99425e-06
1.67338e-07
-2.02847e-06
1.63449e-07
-2.06211e-06
1.60001e-07
-2.09523e-06
1.56974e-07
-2.12789e-06
1.54349e-07
-2.16016e-06
1.52103e-07
-2.19208e-06
1.50217e-07
-2.22372e-06
1.48667e-07
-2.25513e-06
1.47432e-07
-2.28635e-06
1.46492e-07
-2.31745e-06
1.45824e-07
-2.34844e-06
1.45407e-07
-2.37939e-06
1.4522e-07
-2.41032e-06
1.45241e-07
-2.44127e-06
1.45449e-07
-2.47226e-06
1.45821e-07
-2.50332e-06
1.46334e-07
-2.53446e-06
1.46962e-07
-2.56569e-06
1.47681e-07
-2.59703e-06
1.48462e-07
-2.62848e-06
1.49278e-07
-2.66003e-06
1.50099e-07
-2.69168e-06
1.50893e-07
-2.7234e-06
1.51627e-07
-2.75518e-06
1.52263e-07
-2.78699e-06
1.52765e-07
-2.81879e-06
1.53093e-07
-2.85053e-06
1.53204e-07
-2.88217e-06
1.53057e-07
-2.91364e-06
1.52609e-07
-2.94486e-06
1.51814e-07
-2.97573e-06
1.50622e-07
-3.00618e-06
1.48983e-07
-3.03609e-06
1.46845e-07
-3.06534e-06
1.44151e-07
-3.09381e-06
1.40845e-07
-3.12136e-06
1.36868e-07
-3.14785e-06
1.32166e-07
-3.1731e-06
1.26684e-07
-3.19695e-06
1.20373e-07
-3.21918e-06
1.13183e-07
-3.23956e-06
1.05088e-07
-3.25791e-06
9.59951e-08
-3.27407e-06
8.58906e-08
-3.28783e-06
7.46952e-08
-3.29892e-06
6.23934e-08
-3.30705e-06
4.8955e-08
-3.3119e-06
3.43689e-08
-3.31315e-06
1.85984e-08
-3.31045e-06
1.63275e-09
-3.30348e-06
-1.65665e-08
-3.29191e-06
-3.60032e-08
-3.27546e-06
-5.66674e-08
-3.25381e-06
-7.8533e-08
-3.2267e-06
-1.01548e-07
-3.19381e-06
-1.25657e-07
-3.15488e-06
-1.50736e-07
-3.10966e-06
-1.76687e-07
-3.05792e-06
-2.03344e-07
-2.99946e-06
-2.30599e-07
-2.93415e-06
-2.58297e-07
-2.86193e-06
-2.86297e-07
-2.78272e-06
-3.14419e-07
-2.69655e-06
-3.42455e-07
-2.60347e-06
-3.70148e-07
-2.50362e-06
-3.97359e-07
-2.3972e-06
-4.23823e-07
-2.28446e-06
-4.4933e-07
-2.16573e-06
-4.73588e-07
-2.04141e-06
-4.96379e-07
-1.91193e-06
-5.17453e-07
-1.77783e-06
-5.36613e-07
-1.63966e-06
-5.53648e-07