/*--------------------------------*- C++ -*----------------------------------*\
  =========                 |
  \\      /  F ield         | OpenFOAM: The Open Source CFD Toolbox
   \\    /   O peration     | Website:  https://openfoam.org
    \\  /    A nd           | Version:  8
     \\/     M anipulation  |
\*---------------------------------------------------------------------------*/
FoamFile
{
    version     2.0;
    format      ascii;
    class       volVectorField;
    location    "90";
    object      U;
}
// * * * * * * * * * * * * * * * * * * * * * * * * * * * * * * * * * * * * * //

dimensions      [0 1 -1 0 0 0 0];

internalField   nonuniform List<vector> 
12225
(
(9.85696 -0.886412 0)
(9.66655 -0.740731 0)
(9.45545 -0.429438 0)
(9.22396 -0.222154 0)
(9.00553 -0.106368 0)
(8.81287 -0.0457538 0)
(8.64524 -0.0150398 0)
(8.50228 0.000636659 0)
(8.37947 0.00862024 0)
(8.27546 0.012579 0)
(8.18524 0.0144039 0)
(8.10691 0.0155718 0)
(8.03699 0.0161813 0)
(7.97386 0.0167949 0)
(7.91371 0.0173458 0)
(7.85832 0.0198351 0)
(7.78024 0.0196781 0)
(7.76977 0.0338606 0)
(10.0545 0.227564 0)
(10.121 0.326945 0)
(10.1196 0.261618 0)
(10.0854 0.18663 0)
(10.0431 0.134792 0)
(9.9961 0.101291 0)
(9.94308 0.079535 0)
(9.88382 0.0648903 0)
(9.82193 0.0546908 0)
(9.75859 0.0472416 0)
(9.69622 0.0416774 0)
(9.63512 0.0374243 0)
(9.57629 0.0342229 0)
(9.51989 0.0321304 0)
(9.46501 0.0308498 0)
(9.41526 0.0329683 0)
(9.35937 0.0343067 0)
(9.33546 0.0611355 0)
(10.0035 0.057934 0)
(10.0302 0.0560505 0)
(10.0559 0.0338677 0)
(10.0701 0.0330282 0)
(10.0765 0.0408415 0)
(10.0771 0.0468138 0)
(10.0715 0.0497192 0)
(10.0599 0.0507806 0)
(10.0441 0.0508305 0)
(10.025 0.0503211 0)
(10.0035 0.0495666 0)
(9.98017 0.0488234 0)
(9.95553 0.0482496 0)
(9.92997 0.0481907 0)
(9.9033 0.04865 0)
(9.87705 0.0516092 0)
(9.84904 0.0551304 0)
(9.82703 0.0704315 0)
(9.99778 0.0110765 0)
(10.0109 0.0266669 0)
(10.0349 0.037261 0)
(10.0522 0.0482592 0)
(10.0638 0.0557089 0)
(10.0726 0.0585377 0)
(10.0783 0.0588292 0)
(10.0808 0.0582433 0)
(10.0806 0.0573994 0)
(10.0784 0.056479 0)
(10.0745 0.0555893 0)
(10.0691 0.0549041 0)
(10.0623 0.0544998 0)
(10.0546 0.0546913 0)
(10.0457 0.0555715 0)
(10.0367 0.0584797 0)
(10.0274 0.0625514 0)
(10.0211 0.0724754 0)
(9.99934 0.00722943 0)
(10.0089 0.0317342 0)
(10.0273 0.04407 0)
(10.0415 0.0501557 0)
(10.0522 0.0539454 0)
(10.062 0.0556898 0)
(10.0704 0.0561228 0)
(10.0767 0.0560274 0)
(10.0813 0.0557375 0)
(10.0845 0.0553694 0)
(10.0865 0.0550186 0)
(10.0874 0.0548427 0)
(10.0874 0.0549484 0)
(10.0867 0.0556002 0)
(10.0853 0.0569565 0)
(10.0839 0.0597974 0)
(10.083 0.0637793 0)
(10.0844 0.0702767 0)
(10.0003 0.00921956 0)
(10.0083 0.0312723 0)
(10.0225 0.0411321 0)
(10.0346 0.0456825 0)
(10.0445 0.0494476 0)
(10.054 0.0519304 0)
(10.0626 0.0530962 0)
(10.0698 0.0535613 0)
(10.0758 0.0537262 0)
(10.0807 0.0537554 0)
(10.0848 0.0537668 0)
(10.0881 0.0539128 0)
(10.0908 0.0543176 0)
(10.0929 0.0551928 0)
(10.0946 0.0566919 0)
(10.0966 0.059228 0)
(10.0992 0.0626069 0)
(10.1036 0.0669519 0)
(10.0004 0.00899613 0)
(10.0071 0.0272111 0)
(10.0189 0.0366415 0)
(10.0298 0.0417388 0)
(10.0391 0.0459071 0)
(10.0479 0.048748 0)
(10.0561 0.0502315 0)
(10.0634 0.0509683 0)
(10.0697 0.0513832 0)
(10.0752 0.0516501 0)
(10.0801 0.0518873 0)
(10.0844 0.0522329 0)
(10.0881 0.0528091 0)
(10.0916 0.0537747 0)
(10.0948 0.0552464 0)
(10.0983 0.0574111 0)
(10.1025 0.0600995 0)
(10.1081 0.0630192 0)
(10.0004 0.00797773 0)
(10.0059 0.0235282 0)
(10.016 0.0330053 0)
(10.026 0.0385131 0)
(10.0346 0.042677 0)
(10.0428 0.0455608 0)
(10.0507 0.0472151 0)
(10.0577 0.0481506 0)
(10.064 0.0487544 0)
(10.0697 0.0491987 0)
(10.0749 0.0495998 0)
(10.0796 0.0500806 0)
(10.0839 0.0507519 0)
(10.088 0.0517267 0)
(10.092 0.0530776 0)
(10.0964 0.0548586 0)
(10.1012 0.0568993 0)
(10.1071 0.058818 0)
(10.0004 0.00703282 0)
(10.005 0.0205994 0)
(10.0135 0.0297663 0)
(10.0226 0.0353378 0)
(10.0307 0.03938 0)
(10.0384 0.0422672 0)
(10.0458 0.0440722 0)
(10.0527 0.0451813 0)
(10.0589 0.0459378 0)
(10.0645 0.0465181 0)
(10.0698 0.0470372 0)
(10.0747 0.0476038 0)
(10.0793 0.0483116 0)
(10.0838 0.0492369 0)
(10.0882 0.0504137 0)
(10.0929 0.0518243 0)
(10.0981 0.053304 0)
(10.1039 0.0545088 0)
(10.0004 0.00621282 0)
(10.0043 0.0180565 0)
(10.0115 0.0266304 0)
(10.0196 0.032121 0)
(10.0272 0.03606 0)
(10.0345 0.0389368 0)
(10.0415 0.0408492 0)
(10.0481 0.0420911 0)
(10.0541 0.0429641 0)
(10.0598 0.0436448 0)
(10.065 0.0442445 0)
(10.07 0.0448575 0)
(10.0748 0.0455589 0)
(10.0794 0.0463972 0)
(10.0841 0.0473783 0)
(10.089 0.0484521 0)
(10.0942 0.0494727 0)
(10.0998 0.0501684 0)
(10.0003 0.00546361 0)
(10.0036 0.0157676 0)
(10.0098 0.0236304 0)
(10.017 0.0289437 0)
(10.0241 0.0327632 0)
(10.0309 0.035587 0)
(10.0376 0.037548 0)
(10.0439 0.0388777 0)
(10.0498 0.0398337 0)
(10.0554 0.0405841 0)
(10.0606 0.0412327 0)
(10.0656 0.0418599 0)
(10.0704 0.0425242 0)
(10.0752 0.0432547 0)
(10.08 0.0440406 0)
(10.0849 0.0448227 0)
(10.0899 0.0454829 0)
(10.0953 0.045821 0)
(10.0003 0.00480816 0)
(10.0031 0.0138493 0)
(10.0085 0.0210223 0)
(10.015 0.0260886 0)
(10.0216 0.0297606 0)
(10.028 0.0324983 0)
(10.0343 0.0344591 0)
(10.0404 0.0358324 0)
(10.0462 0.0368362 0)
(10.0516 0.0376248 0)
(10.0568 0.038294 0)
(10.0618 0.0389114 0)
(10.0667 0.0395231 0)
(10.0715 0.040147 0)
(10.0763 0.040766 0)
(10.0811 0.0413242 0)
(10.086 0.0417305 0)
(10.0911 0.0418412 0)
(10.0003 0.00420386 0)
(10.0027 0.0120937 0)
(10.0074 0.0185516 0)
(10.0133 0.0232931 0)
(10.0194 0.0267803 0)
(10.0254 0.0294027 0)
(10.0315 0.0313268 0)
(10.0373 0.0327107 0)
(10.0429 0.033735 0)
(10.0483 0.0345384 0)
(10.0534 0.0352076 0)
(10.0584 0.0357993 0)
(10.0632 0.0363483 0)
(10.068 0.0368665 0)
(10.0727 0.0373368 0)
(10.0775 0.0377126 0)
(10.0823 0.0379263 0)
(10.0871 0.0378744 0)
(10.0002 0.00358034 0)
(10.0023 0.0102694 0)
(10.0064 0.0159016 0)
(10.0116 0.0201939 0)
(10.0172 0.0234132 0)
(10.0229 0.0258588 0)
(10.0285 0.0276931 0)
(10.0341 0.0290461 0)
(10.0396 0.0300595 0)
(10.0448 0.0308506 0)
(10.0499 0.0314972 0)
(10.0548 0.0320446 0)
(10.0596 0.0325178 0)
(10.0643 0.0329239 0)
(10.0689 0.0332501 0)
(10.0736 0.0334635 0)
(10.0781 0.0335213 0)
(10.0827 0.0333481 0)
(10.0002 0.00293251 0)
(10.002 0.00837188 0)
(10.0055 0.0130762 0)
(10.01 0.0167871 0)
(10.0151 0.0196336 0)
(10.0204 0.021823 0)
(10.0257 0.0234959 0)
(10.031 0.0247586 0)
(10.0363 0.0257149 0)
(10.0413 0.0264562 0)
(10.0463 0.0270478 0)
(10.0511 0.0275269 0)
(10.0558 0.0279112 0)
(10.0605 0.0282042 0)
(10.065 0.0283987 0)
(10.0694 0.0284767 0)
(10.0738 0.0284169 0)
(10.0781 0.0281669 0)
(10.0002 0.00225814 0)
(10.0017 0.00640107 0)
(10.0047 0.0100795 0)
(10.0087 0.0130709 0)
(10.0133 0.0154205 0)
(10.0182 0.0172546 0)
(10.0231 0.0186778 0)
(10.0282 0.0197725 0)
(10.0332 0.0206105 0)
(10.0381 0.0212553 0)
(10.0429 0.0217547 0)
(10.0476 0.02214 0)
(10.0522 0.0224241 0)
(10.0567 0.0226103 0)
(10.0611 0.0226948 0)
(10.0653 0.0226711 0)
(10.0695 0.0225348 0)
(10.0735 0.0222478 0)
(10.0002 0.00155209 0)
(10.0015 0.00434006 0)
(10.0041 0.00688972 0)
(10.0076 0.00901969 0)
(10.0118 0.0107325 0)
(10.0163 0.0120925 0)
(10.021 0.0131633 0)
(10.0257 0.0139986 0)
(10.0305 0.0146441 0)
(10.0352 0.015136 0)
(10.0399 0.0155047 0)
(10.0444 0.0157711 0)
(10.0489 0.0159462 0)
(10.0532 0.0160329 0)
(10.0574 0.0160309 0)
(10.0615 0.015939 0)
(10.0654 0.0157624 0)
(10.0692 0.0154714 0)
(10.0001 0.000795459 0)
(10.0013 0.00213328 0)
(10.0036 0.00342819 0)
(10.0069 0.0045438 0)
(10.0108 0.00546559 0)
(10.015 0.0062155 0)
(10.0194 0.0068174 0)
(10.024 0.00729332 0)
(10.0285 0.00766309 0)
(10.0331 0.00794117 0)
(10.0376 0.00813859 0)
(10.042 0.00826362 0)
(10.0463 0.00832208 0)
(10.0505 0.00831548 0)
(10.0545 0.00824472 0)
(10.0584 0.0081103 0)
(10.0622 0.00791963 0)
(10.0658 0.00764708 0)
(10.0001 -5.87429e-05 0)
(10.0013 -0.000346508 0)
(10.0035 -0.000488949 0)
(10.0066 -0.000566777 0)
(10.0104 -0.000595018 0)
(10.0145 -0.000590059 0)
(10.0188 -0.000567902 0)
(10.0233 -0.000542593 0)
(10.0278 -0.00052011 0)
(10.0322 -0.000509198 0)
(10.0366 -0.000515928 0)
(10.0409 -0.000548044 0)
(10.0451 -0.000608005 0)
(10.0491 -0.00070004 0)
(10.053 -0.000824553 0)
(10.0568 -0.00098399 0)
(10.0604 -0.00117253 0)
(10.0638 -0.00141592 0)
(10.0002 -0.000883866 0)
(10.0014 -0.00273183 0)
(10.0037 -0.00427021 0)
(10.0071 -0.00549654 0)
(10.011 -0.00642388 0)
(10.0153 -0.00711222 0)
(10.0198 -0.00762373 0)
(10.0243 -0.00799951 0)
(10.0288 -0.00827693 0)
(10.0333 -0.00848595 0)
(10.0377 -0.00865519 0)
(10.042 -0.00880273 0)
(10.0461 -0.00894383 0)
(10.0501 -0.00908469 0)
(10.0539 -0.0092333 0)
(10.0576 -0.00939227 0)
(10.0612 -0.00956402 0)
(10.0645 -0.00976932 0)
(10.0002 -0.00159819 0)
(10.0015 -0.00481837 0)
(10.0042 -0.00757947 0)
(10.0079 -0.00974571 0)
(10.0122 -0.0113528 0)
(10.0168 -0.012551 0)
(10.0215 -0.0134469 0)
(10.0262 -0.0140976 0)
(10.0309 -0.0145618 0)
(10.0355 -0.0148954 0)
(10.0399 -0.0151475 0)
(10.0442 -0.0153479 0)
(10.0484 -0.01552 0)
(10.0524 -0.0156737 0)
(10.0562 -0.0158208 0)
(10.0598 -0.0159667 0)
(10.0633 -0.0161162 0)
(10.0666 -0.0162887 0)
(10.0002 -0.00227713 0)
(10.0017 -0.00687957 0)
(10.0048 -0.0108831 0)
(10.0091 -0.0138982 0)
(10.014 -0.0160352 0)
(10.0189 -0.0176057 0)
(10.0239 -0.0187697 0)
(10.0289 -0.0196024 0)
(10.0338 -0.0201821 0)
(10.0385 -0.0205895 0)
(10.043 -0.0208808 0)
(10.0474 -0.0210991 0)
(10.0516 -0.0212686 0)
(10.0556 -0.0214114 0)
(10.0594 -0.021536 0)
(10.063 -0.0216574 0)
(10.0665 -0.0217747 0)
(10.0698 -0.0219101 0)
(10.0002 -0.00291283 0)
(10.0018 -0.00896446 0)
(10.0055 -0.0142057 0)
(10.0107 -0.0179684 0)
(10.0162 -0.0205832 0)
(10.0215 -0.0224717 0)
(10.0269 -0.02379 0)
(10.0321 -0.0246666 0)
(10.0372 -0.0252559 0)
(10.0421 -0.0256669 0)
(10.0468 -0.0259565 0)
(10.0512 -0.0261623 0)
(10.0554 -0.026313 0)
(10.0594 -0.02643 0)
(10.0633 -0.0265288 0)
(10.0669 -0.0266206 0)
(10.0704 -0.0267094 0)
(10.0737 -0.026809 0)
(10.0001 -0.00347389 0)
(10.0018 -0.0114426 0)
(10.0063 -0.0176876 0)
(10.0124 -0.0216834 0)
(10.0186 -0.024646 0)
(10.0245 -0.02695 0)
(10.0302 -0.0284805 0)
(10.0358 -0.0293796 0)
(10.0411 -0.0299187 0)
(10.0461 -0.0302645 0)
(10.0509 -0.0304883 0)
(10.0554 -0.0306285 0)
(10.0597 -0.0307193 0)
(10.0637 -0.0307816 0)
(10.0675 -0.0308335 0)
(10.0712 -0.0308809 0)
(10.0746 -0.0309307 0)
(10.0779 -0.0309859 0)
(9.99992 -0.00333612 0)
(10.0016 -0.0148816 0)
(10.0074 -0.022569 0)
(10.0144 -0.0260024 0)
(10.0209 -0.0285043 0)
(10.0273 -0.0307838 0)
(10.0337 -0.0324227 0)
(10.0398 -0.0334271 0)
(10.0454 -0.0340386 0)
(10.0507 -0.034412 0)
(10.0555 -0.0346207 0)
(10.0601 -0.0347191 0)
(10.0644 -0.034753 0)
(10.0684 -0.034754 0)
(10.0721 -0.0347405 0)
(10.0756 -0.0347239 0)
(10.0788 -0.0347078 0)
(10.0818 -0.0346987 0)
(9.99861 -0.000365143 0)
(9.99911 -0.0156909 0)
(10.0076 -0.0273094 0)
(10.0168 -0.0323132 0)
(10.0241 -0.0346254 0)
(10.0311 -0.0359113 0)
(10.0382 -0.0365949 0)
(10.0449 -0.0369966 0)
(10.0509 -0.0372796 0)
(10.0562 -0.0374591 0)
(10.061 -0.0375357 0)
(10.0653 -0.0375331 0)
(10.0692 -0.0374846 0)
(10.0727 -0.0374123 0)
(10.0757 -0.0373314 0)
(10.0785 -0.0372518 0)
(10.0809 -0.0371747 0)
(10.0831 -0.0371059 0)
(9.99489 0.00135824 0)
(9.99291 -0.0080467 0)
(10.0061 -0.0202671 0)
(10.0204 -0.0321467 0)
(10.0309 -0.0403042 0)
(10.0397 -0.0439279 0)
(10.0473 -0.0447873 0)
(10.0537 -0.0445899 0)
(10.0588 -0.0440715 0)
(10.0628 -0.0434254 0)
(10.066 -0.0427288 0)
(10.0685 -0.0420386 0)
(10.0702 -0.0413912 0)
(10.0713 -0.0407954 0)
(10.0719 -0.0402602 0)
(10.0721 -0.0397842 0)
(10.0719 -0.0393655 0)
(10.0715 -0.0389779 0)
(9.99473 -0.030547 0)
(9.99928 -0.022838 0)
(10.0147 -0.00257787 0)
(10.0306 -0.00181465 0)
(10.0437 -0.0115278 0)
(10.0537 -0.0207596 0)
(10.0599 -0.0270827 0)
(10.0625 -0.0312738 0)
(10.0624 -0.0340106 0)
(10.0602 -0.0356691 0)
(10.0564 -0.0365622 0)
(10.0513 -0.0369595 0)
(10.0453 -0.0370492 0)
(10.0386 -0.0369497 0)
(10.0313 -0.0367507 0)
(10.0237 -0.0365104 0)
(10.0159 -0.0362941 0)
(10.0079 -0.0360702 0)
(10.0273 -0.182749 0)
(10.0763 -0.288297 0)
(10.0872 -0.247719 0)
(10.0778 -0.186467 0)
(10.0665 -0.140217 0)
(10.054 -0.108115 0)
(10.0369 -0.0857534 0)
(10.0151 -0.0702714 0)
(9.99009 -0.0594784 0)
(9.96326 -0.0516769 0)
(9.93551 -0.0458287 0)
(9.90744 -0.0413111 0)
(9.87954 -0.0377365 0)
(9.85213 -0.0348416 0)
(9.82545 -0.0324567 0)
(9.79959 -0.0305157 0)
(9.77484 -0.0289755 0)
(9.75115 -0.0281394 0)
(9.93576 0.689324 0)
(9.86865 0.609617 0)
(9.76467 0.380654 0)
(9.62692 0.217483 0)
(9.48637 0.119321 0)
(9.35792 0.0632572 0)
(9.24368 0.0316577 0)
(9.14246 0.0137071 0)
(9.05313 0.00336557 0)
(8.97455 -0.00268166 0)
(8.90507 -0.00622314 0)
(8.84332 -0.00833279 0)
(8.78808 -0.00957683 0)
(8.73844 -0.0103219 0)
(8.6935 -0.0108069 0)
(8.65263 -0.0110601 0)
(8.61494 -0.0112634 0)
(8.58005 -0.0119015 0)
(0.0117896 -0.0132736 -5.41936e-19)
(0.03882 -0.0304011 2.5455e-19)
(0.0630814 -0.0350765 0)
(0.0907518 -0.0333687 0)
(0.11447 -0.0276837 0)
(0.131928 -0.0201247 -9.96894e-20)
(0.143369 -0.0129706 0)
(0.149475 -0.00919333 0)
(0.151442 -0.013862 0)
(0.149799 -0.0173655 0)
(0.142183 -0.000924716 2.32106e-19)
(0.130572 0.00958237 0)
(0.113136 0.0160131 0)
(0.0919792 0.0194449 0)
(0.0682899 0.0204459 0)
(0.0439802 0.0191286 2.84969e-19)
(0.0197852 0.0162679 0)
(-0.00421562 0.011961 0)
(-0.0329529 0.0114726 0)
(-0.0681153 0.0210725 0)
(-0.10803 0.0384608 0)
(-0.156452 0.0508725 0)
(-0.208827 0.0544438 0)
(-0.261889 0.0594939 1.45122e-19)
(-0.323223 0.0620336 -1.31096e-19)
(-0.387242 0.06455 1.18515e-19)
(-0.454723 0.0672798 1.07498e-19)
(-0.525311 0.0699468 0)
(-0.598542 0.0722421 0)
(-0.673807 0.0739993 -8.28115e-20)
(-0.750423 0.0750976 -7.6788e-20)
(-0.827662 0.0755035 0)
(-0.904831 0.0751922 0)
(-0.981298 0.0742279 -6.32927e-20)
(-1.05653 0.0726764 0)
(-1.13007 0.0706591 0)
(-1.2016 0.0682714 5.44825e-20)
(-1.27088 0.0656411 0)
(-1.33777 0.0628489 5.02596e-20)
(-1.40219 0.0599981 9.69983e-20)
(-1.46415 0.0571445 0)
(-1.52371 0.0543624 0)
(-1.58095 0.0516805 0)
(-1.636 0.0491452 0)
(-1.689 0.0467623 0)
(-1.74012 0.0445583 8.20316e-20)
(-1.7895 0.0425254 8.02092e-20)
(-1.83731 0.0406763 7.85094e-20)
(-1.88371 0.0389958 0)
(-1.92885 0.0374894 -7.54108e-20)
(-1.97289 0.0361362 0)
(-2.01598 0.0349376 7.26249e-20)
(-2.05824 0.0338765 7.13246e-20)
(-2.0998 0.0329523 0)
(-2.14079 0.0321468 0)
(-2.18132 0.0314604 0)
(-2.22149 0.0308809 6.65728e-20)
(-2.2614 0.0304074 0)
(-2.30113 0.0300248 0)
(-2.34079 0.0297327 0)
(-2.38044 0.0295238 0)
(-2.42016 0.0293968 0)
(-2.46001 0.0293439 0)
(-2.50007 0.0293611 0)
(-2.54038 0.0294437 0)
(-2.58102 0.0295861 -5.74894e-20)
(-2.62201 0.0297893 0)
(-2.66342 0.0300458 0)
(-2.70525 0.0303611 5.47877e-20)
(-2.74754 0.0307229 5.39185e-20)
(-2.79029 0.0311392 0)
(-2.83354 0.0315877 -5.22334e-20)
(-2.87726 0.032076 5.14199e-20)
(-2.92145 0.032572 0)
(-2.9661 0.033086 -4.98574e-20)
(-3.01117 0.0335799 0)
(-3.05661 0.0340624 0)
(-3.10233 0.03449 4.77069e-20)
(-3.14826 0.0348609 0)
(-3.19433 0.0351161 -4.642e-20)
(-3.24041 0.0352585 0)
(-3.2864 0.0352298 4.5252e-20)
(-3.33212 0.0350352 4.471e-20)
(-3.37745 0.0346192 4.41935e-20)
(-3.4222 0.0340107 8.74048e-20)
(-3.46614 0.0331769 -8.64737e-20)
(-3.50901 0.0321605 0)
(-3.55048 0.0309371 0)
(-3.59021 0.0295579 0)
(-3.62788 0.0280092 -8.33325e-20)
(-3.66335 0.0262759 -8.27157e-20)
(-3.6963 0.0243858 8.21766e-20)
(-3.72627 0.0223368 0)
(-3.75272 0.0201451 -8.13282e-20)
(-3.77511 0.0177892 -8.10083e-20)
(-3.79285 0.0152851 -8.07423e-20)
(-3.80551 0.0126516 0)
(-3.81258 0.0100791 0)
(-3.8146 0.00769161 0)
(-3.81174 0.0052498 -7.95143e-20)
(-3.8037 0.00252845 0)
(-3.79024 -0.000347798 0)
(-3.77119 -0.00315453 7.79224e-20)
(-3.74641 -0.00610778 0)
(-3.71545 -0.010044 0)
(-3.67788 -0.0140993 7.52021e-20)
(-3.63374 -0.0170143 0)
(-3.58321 -0.0203363 0)
(-3.52565 -0.024901 -7.02276e-20)
(-3.461 -0.0290936 -6.7763e-20)
(-3.38958 -0.0330316 0)
(-3.31116 -0.0375292 6.15722e-20)
(-3.22599 -0.0419384 0)
(-3.13408 -0.0464801 -5.31343e-20)
(-3.03571 -0.0509892 0)
(-2.93103 -0.0555129 -4.19712e-20)
(-2.82037 -0.0599585 -3.52118e-20)
(-2.70406 -0.0643131 0)
(-2.5825 -0.0685014 0)
(-2.45613 -0.0724973 0)
(-2.32546 -0.0762454 0)
(-2.191 -0.0797227 0)
(-2.05331 -0.0828915 0)
(-1.91294 -0.0857319 0)
(-1.77046 -0.088237 5.59185e-20)
(-1.62647 -0.0903988 -7.32407e-20)
(-1.48156 -0.0922137 0)
(-1.33632 -0.0936933 0)
(-1.19126 -0.0949136 0)
(-1.0469 -0.0958565 0)
(-0.903679 -0.0965948 -3.81541e-19)
(-0.761999 -0.09712 0)
(-0.62223 -0.0975033 5.1797e-19)
(-0.484766 -0.0976988 -6.0039e-19)
(-0.349686 -0.0977114 0)
(-0.217697 -0.0977448 0)
(-0.0870898 -0.0967605 0)
(0.044747 -0.0933139 8.69039e-19)
(0.174182 -0.0882694 8.25478e-19)
(0.299015 -0.082923 0)
(0.419123 -0.0777448 7.59877e-19)
(0.534253 -0.0728225 7.34455e-19)
(0.644385 -0.0681683 -7.12478e-19)
(0.749585 -0.0637938 0)
(0.849938 -0.0596804 0)
(0.945585 -0.0558217 -6.60921e-19)
(1.03669 -0.0522173 0)
(1.12341 -0.0488403 0)
(1.20596 -0.0456999 0)
(1.2845 -0.0427757 0)
(1.35922 -0.040042 6.03302e-19)
(1.43032 -0.0374904 5.94347e-19)
(1.49795 -0.0351102 0)
(1.56227 -0.0328824 5.7845e-19)
(1.62344 -0.0307958 0)
(1.68161 -0.0288455 0)
(1.73694 -0.0270289 5.58502e-19)
(1.78957 -0.0253285 0)
(1.83965 -0.0237402 5.47238e-19)
(1.88732 -0.0222556 0)
(1.9327 -0.0208694 0)
(1.97591 -0.0195724 5.32805e-19)
(2.01708 -0.0183603 0)
(2.05631 -0.0172303 5.24519e-19)
(2.09371 -0.0161646 0)
(2.12939 -0.0151644 0)
(2.16343 -0.0142372 0)
(2.1959 -0.0133538 -5.10554e-19)
(2.22686 -0.0125099 0)
(2.25635 -0.0117093 5.0475e-19)
(2.28434 -0.0109144 0)
(2.31078 -0.0100959 0)
(2.33549 -0.00925743 0)
(2.35816 -0.00832493 0)
(2.37826 -0.00717694 0)
(2.3943 -0.00563789 0)
(2.40567 -0.00268094 0)
(2.399 0.00292205 -9.99871e-19)
(2.38044 0.0156491 0)
(2.25836 0.033121 0)
(0.0181817 -0.0789942 1.22787e-18)
(0.0479986 -0.0955232 -5.15914e-19)
(0.0662107 -0.0856579 0)
(0.0818585 -0.0722196 1.49588e-19)
(0.0929211 -0.0567323 0)
(0.0994273 -0.0400112 5.61148e-20)
(0.101832 -0.022934 -1.066e-19)
(0.100132 -0.0061445 -1.07916e-19)
(0.093666 0.00997768 0)
(0.0802934 0.025345 -1.4068e-19)
(0.0628374 0.0388173 -7.88842e-20)
(0.0426715 0.0505918 0)
(0.0185571 0.0606559 0)
(-0.00981206 0.068983 0)
(-0.0421548 0.0758271 0)
(-0.0786051 0.0815595 -7.87745e-20)
(-0.120048 0.0869883 0)
(-0.167615 0.0934571 1.42122e-19)
(-0.221663 0.102676 0)
(-0.280456 0.115503 0)
(-0.341767 0.131074 -1.0989e-19)
(-0.404525 0.14642 0)
(-0.470134 0.157689 8.94102e-20)
(-0.539147 0.166857 -4.22253e-20)
(-0.611996 0.175475 4.00777e-20)
(-0.686762 0.182672 -3.80971e-20)
(-0.762583 0.18842 -3.62424e-20)
(-0.838696 0.192572 0)
(-0.914435 0.194992 0)
(-0.989224 0.195664 3.14723e-20)
(-1.06257 0.194619 -2.98475e-20)
(-1.13407 0.191993 0)
(-1.20344 0.187983 0)
(-1.27048 0.182856 2.68354e-20)
(-1.33508 0.17687 0)
(-1.39721 0.170294 0)
(-1.45687 0.163356 -2.43713e-20)
(-1.51415 0.156275 0)
(-1.56914 0.149213 2.28424e-20)
(-1.62196 0.14232 -4.5021e-20)
(-1.67277 0.135687 0)
(-1.72171 0.129398 0)
(-1.76895 0.123493 -8.38689e-20)
(-1.81463 0.11801 -8.22433e-20)
(-1.85891 0.11295 -8.07309e-20)
(-1.90194 0.108324 3.94661e-20)
(-1.94386 0.104113 -3.91837e-20)
(-1.98479 0.100309 -1.15296e-19)
(-2.02486 0.0968843 7.55576e-20)
(-2.06418 0.0938243 3.73917e-20)
(-2.10288 0.0910966 0)
(-2.14104 0.0886843 -3.6331e-20)
(-2.17876 0.0865579 3.5497e-20)
(-2.21615 0.0847021 0)
(-2.25327 0.0830884 0)
(-2.29021 0.0817019 0)
(-2.32704 0.0805201 -3.40046e-20)
(-2.36382 0.0795311 0)
(-2.40062 0.0787126 6.6011e-20)
(-2.43748 0.0780512 0)
(-2.47445 0.0775297 6.44168e-20)
(-2.51157 0.0771373 0)
(-2.54888 0.076858 -6.28901e-20)
(-2.58641 0.0766766 0)
(-2.62418 0.0765782 6.14233e-20)
(-2.6622 0.0765448 -3.01762e-20)
(-2.70049 0.0765645 0)
(-2.73903 0.0766161 -5.93245e-20)
(-2.77784 0.0766911 -2.95135e-20)
(-2.81687 0.0767641 -2.91863e-20)
(-2.85613 0.0768318 0)
(-2.89556 0.0768635 -2.81546e-20)
(-2.93514 0.0768588 -2.82466e-20)
(-2.97481 0.0767811 0)
(-3.01452 0.0766347 2.76626e-20)
(-3.05421 0.0763831 -5.43363e-20)
(-3.09378 0.0760394 0)
(-3.13313 0.0755676 -2.68702e-20)
(-3.17215 0.0749752 0)
(-3.21073 0.0742111 7.87252e-20)
(-3.24871 0.0732831 0)
(-3.28595 0.072133 -7.74638e-20)
(-3.32228 0.0707583 -2.58026e-20)
(-3.35752 0.0690844 2.51038e-20)
(-3.39151 0.067115 4.98772e-20)
(-3.42402 0.0647893 -4.95749e-20)
(-3.45488 0.0621226 0)
(-3.4838 0.0590695 0)
(-3.51052 0.0556479 0)
(-3.5348 0.0518111 1.4763e-19)
(-3.55654 0.0474986 4.92749e-20)
(-3.5756 0.0426842 -4.90938e-20)
(-3.59184 0.0373584 0)
(-3.60511 0.0315626 -4.81563e-20)
(-3.61533 0.0253207 4.87023e-20)
(-3.6225 0.018724 4.86027e-20)
(-3.62659 0.0118685 0)
(-3.62761 0.00492943 0)
(-3.62464 -0.00207848 0)
(-3.61699 -0.00924314 4.78384e-20)
(-3.60434 -0.0166487 0)
(-3.58641 -0.0243073 -9.37726e-20)
(-3.56293 -0.0322234 -1.39615e-19)
(-3.53349 -0.0403247 9.1995e-20)
(-3.49795 -0.0485606 0)
(-3.45618 -0.0568865 4.46773e-20)
(-3.40782 -0.0652722 0)
(-3.35248 -0.0737404 8.59614e-20)
(-3.29022 -0.0820739 -4.19559e-20)
(-3.2212 -0.0903887 -4.06066e-20)
(-3.1451 -0.0985464 0)
(-3.06203 -0.106492 -1.10318e-19)
(-2.97209 -0.114221 6.95433e-20)
(-2.87535 -0.121667 3.16974e-20)
(-2.77204 -0.128772 0)
(-2.66234 -0.135465 2.56433e-20)
(-2.54659 -0.141684 6.8345e-20)
(-2.42516 -0.147404 0)
(-2.29845 -0.152549 3.0541e-20)
(-2.16697 -0.157088 2.16412e-20)
(-2.03122 -0.160961 1.20359e-20)
(-1.89176 -0.164156 0)
(-1.74918 -0.166655 0)
(-1.60408 -0.168455 0)
(-1.45705 -0.169563 1.47611e-20)
(-1.30873 -0.169994 2.50799e-20)
(-1.15973 -0.169792 0)
(-1.01062 -0.169004 7.39947e-20)
(-0.861965 -0.167699 8.87193e-20)
(-0.714281 -0.165923 0)
(-0.568026 -0.16378 1.24155e-19)
(-0.423606 -0.161296 2.7213e-19)
(-0.281366 -0.158569 -1.57333e-19)
(-0.141429 -0.155759 -1.6471e-19)
(-0.00328764 -0.153168 0)
(0.132319 -0.150837 0)
(0.263571 -0.147761 0)
(0.389538 -0.14289 -2.05756e-19)
(0.510377 -0.136671 2.0527e-19)
(0.626856 -0.129978 4.29306e-19)
(0.739253 -0.123226 -2.23265e-19)
(0.847534 -0.116589 2.22504e-19)
(0.951672 -0.110149 2.32808e-19)
(1.05166 -0.103955 0)
(1.14753 -0.0980319 0)
(1.23933 -0.0923907 -2.39745e-19)
(1.32717 -0.0870382 0)
(1.41114 -0.0819769 0)
(1.49138 -0.0771909 5.01934e-19)
(1.568 -0.0726778 0)
(1.64115 -0.0684299 2.53897e-19)
(1.71094 -0.0644392 -2.58899e-19)
(1.77751 -0.060677 0)
(1.84101 -0.0571306 2.59462e-19)
(1.90157 -0.0537944 0)
(1.95934 -0.0506613 0)
(2.01444 -0.0477226 -2.65791e-19)
(2.06702 -0.0449693 5.31587e-19)
(2.11719 -0.0423881 -2.67691e-19)
(2.16508 -0.0399674 0)
(2.21082 -0.0376979 0)
(2.25452 -0.0355741 2.68425e-19)
(2.29629 -0.0335857 0)
(2.33623 -0.0317254 2.69747e-19)
(2.37446 -0.0299817 0)
(2.41107 -0.0283473 0)
(2.44614 -0.0268146 0)
(2.47975 -0.0253599 2.72653e-19)
(2.51195 -0.0239643 0)
(2.54277 -0.0226085 -2.73253e-19)
(2.5722 -0.0212499 0)
(2.60019 -0.0198334 0)
(2.62657 -0.0182859 5.47836e-19)
(2.65108 -0.0164734 -5.4888e-19)
(2.67328 -0.0141308 0)
(2.69217 -0.0108204 0)
(2.70701 -0.00506876 0)
(2.71585 0.00519061 1.68045e-18)
(2.72457 0.0260876 0)
(2.70558 0.0640192 -1.16053e-18)
(0.0133661 -0.139529 -7.80461e-22)
(0.032286 -0.138709 5.21119e-19)
(0.0401954 -0.113037 0)
(0.0452082 -0.0878107 -2.28927e-19)
(0.0461352 -0.0629005 0)
(0.0430496 -0.0381428 0)
(0.0362717 -0.013692 1.88912e-22)
(0.0258426 0.0103319 7.60432e-20)
(0.0115743 0.0338618 7.53915e-20)
(-0.00691285 0.0568009 7.70007e-20)
(-0.0292718 0.078572 0)
(-0.0554222 0.0986755 0)
(-0.0855455 0.117018 -7.59067e-20)
(-0.119878 0.133775 -1.48503e-19)
(-0.158626 0.149316 1.44405e-19)
(-0.202007 0.164264 0)
(-0.250232 0.179372 1.35247e-19)
(-0.30326 0.195372 -6.52187e-20)
(-0.36049 0.21261 0)
(-0.420565 0.230768 1.18466e-19)
(-0.481962 0.248758 5.59051e-20)
(-0.544113 0.265007 -1.05483e-19)
(-0.607764 0.278934 -5.02924e-20)
(-0.673299 0.290422 0)
(-0.739682 0.299627 9.23036e-20)
(-0.806155 0.306443 8.86099e-20)
(-0.872159 0.310774 0)
(-0.937225 0.312565 8.18363e-20)
(-1.00099 0.311846 0)
(-1.06317 0.308758 7.58596e-20)
(-1.12357 0.303536 3.66821e-20)
(-1.18212 0.296494 0)
(-1.23879 0.287978 0)
(-1.29362 0.278357 0)
(-1.34664 0.267982 0)
(-1.39793 0.257175 0)
(-1.44755 0.246215 0)
(-1.49559 0.235335 5.93208e-20)
(-1.54214 0.224724 -8.70075e-20)
(-1.58726 0.214524 0)
(-1.63105 0.204838 0)
(-1.6736 0.195736 0)
(-1.71498 0.187254 2.25761e-22)
(-1.75529 0.179411 5.25832e-20)
(-1.79461 0.172208 1.03151e-19)
(-1.83302 0.165631 -1.01468e-19)
(-1.8706 0.159659 -4.98339e-20)
(-1.90743 0.154264 4.92988e-20)
(-1.9436 0.149414 -2.10696e-22)
(-1.97918 0.145075 4.77005e-20)
(-2.01424 0.141212 0)
(-2.04886 0.137791 4.64359e-20)
(-2.08311 0.134779 -2.04628e-22)
(-2.11706 0.132145 0)
(-2.15076 0.129857 0)
(-2.18428 0.127886 -4.41765e-20)
(-2.21768 0.126206 0)
(-2.251 0.124789 0)
(-2.28429 0.123612 4.24463e-20)
(-2.3176 0.12265 8.43427e-20)
(-2.35096 0.121879 -4.19127e-20)
(-2.38441 0.121279 0)
(-2.41798 0.120827 4.10088e-20)
(-2.45169 0.120498 0)
(-2.48556 0.120271 3.96887e-20)
(-2.5196 0.120121 3.9727e-20)
(-2.55382 0.120026 -7.81614e-20)
(-2.58823 0.119959 -3.84346e-20)
(-2.62281 0.119899 0)
(-2.65755 0.119816 7.57869e-20)
(-2.69244 0.119689 0)
(-2.72745 0.119484 1.11699e-19)
(-2.76255 0.119181 7.35787e-20)
(-2.7977 0.118745 7.28837e-20)
(-2.83286 0.118156 -7.22116e-20)
(-2.86798 0.11738 1.07617e-19)
(-2.90298 0.116404 0)
(-2.93779 0.115193 0)
(-2.9723 0.113729 -6.97929e-20)
(-3.00644 0.111972 -1.0419e-19)
(-3.04008 0.109906 0)
(-3.07309 0.107487 3.44602e-20)
(-3.10536 0.104691 0)
(-3.13675 0.101471 -1.01543e-19)
(-3.1671 0.0978098 -6.29284e-22)
(-3.19625 0.0936654 6.25502e-22)
(-3.22405 0.0890298 6.64855e-20)
(-3.25029 0.0838794 0)
(-3.27473 0.0782159 -6.59716e-20)
(-3.29718 0.0720095 -5.58661e-22)
(-3.31752 0.0652271 0)
(-3.33561 0.0578537 0)
(-3.35126 0.0499093 0)
(-3.36422 0.0414186 6.56646e-20)
(-3.37427 0.0324114 0)
(-3.38115 0.0229032 0)
(-3.38454 0.0129056 0)
(-3.3841 0.00240497 0)
(-3.37941 -0.00860803 0)
(-3.37011 -0.0201101 6.3831e-20)
(-3.35592 -0.0320872 0)
(-3.33655 -0.044494 6.30782e-20)
(-3.3117 -0.0572878 6.24121e-20)
(-3.28102 -0.0703948 -6.16473e-20)
(-3.24434 -0.0837785 0)
(-3.20135 -0.0973217 -5.96669e-20)
(-3.15188 -0.110897 0)
(-3.0956 -0.124521 -5.69025e-20)
(-3.03252 -0.138091 5.51357e-20)
(-2.96265 -0.1515 1.60025e-19)
(-2.8858 -0.164648 0)
(-2.80207 -0.177402 1.45583e-19)
(-2.71146 -0.189745 4.66718e-20)
(-2.61416 -0.201556 0)
(-2.51032 -0.21275 7.81438e-20)
(-2.40021 -0.2232 7.01988e-20)
(-2.28413 -0.232814 -9.08602e-20)
(-2.16249 -0.241508 0)
(-2.03572 -0.249197 -1.91912e-20)
(-1.90431 -0.255811 -1.35146e-20)
(-1.76882 -0.261284 -2.61886e-20)
(-1.62981 -0.265581 0)
(-1.48787 -0.268683 0)
(-1.34363 -0.270595 0)
(-1.1977 -0.271337 1.54612e-20)
(-1.0507 -0.270949 0)
(-0.903258 -0.26949 0)
(-0.755945 -0.267045 -4.35367e-20)
(-0.609312 -0.263713 -5.17434e-20)
(-0.463862 -0.259596 0)
(-0.320029 -0.254819 0)
(-0.178231 -0.249511 -1.54253e-19)
(-0.0384724 -0.243922 0)
(0.0987358 -0.238081 1.81156e-19)
(0.23253 -0.231742 1.87325e-19)
(0.36246 -0.224856 0)
(0.488114 -0.217545 0)
(0.609228 -0.209736 -2.18227e-19)
(0.725897 -0.20135 -4.18686e-21)
(0.83838 -0.192584 -3.97009e-21)
(0.946786 -0.183685 0)
(1.05114 -0.174817 -5.10448e-19)
(1.15146 -0.166086 0)
(1.24776 -0.157573 0)
(1.34009 -0.149329 0)
(1.42853 -0.141386 2.84248e-19)
(1.51316 -0.133769 0)
(1.59409 -0.126496 -5.85811e-19)
(1.67143 -0.119562 -3.0039e-19)
(1.7453 -0.112966 0)
(1.81583 -0.1067 -3.09225e-19)
(1.88315 -0.100771 0)
(1.94738 -0.0951615 0)
(2.00868 -0.0898594 -9.57306e-19)
(2.0672 -0.0848533 6.43675e-19)
(2.12305 -0.0801316 0)
(2.17637 -0.075681 6.55395e-19)
(2.22728 -0.0714953 -3.31593e-19)
(2.27589 -0.0675589 0)
(2.32235 -0.0638592 0)
(2.36677 -0.0603841 0)
(2.40926 -0.057124 -1.01862e-18)
(2.44993 -0.0540675 0)
(2.48889 -0.0511998 -3.43643e-19)
(2.52623 -0.0485111 0)
(2.56206 -0.0459899 0)
(2.59645 -0.0436144 0)
(2.62947 -0.0413602 0)
(2.6612 -0.0391994 0)
(2.69164 -0.0370887 0)
(2.7208 -0.0349713 -7.03959e-19)
(2.74863 -0.03277 0)
(2.77501 -0.0303572 -3.5472e-19)
(2.7997 -0.0275366 1.06688e-18)
(2.82236 -0.0239626 0)
(2.84229 -0.0190299 0)
(2.85893 -0.0114389 -7.22565e-19)
(2.87037 0.000975216 -7.29381e-19)
(2.88093 0.0237384 7.32662e-19)
(2.87975 0.0664109 7.54673e-19)
(0.00290384 -0.172179 -1.49266e-18)
(0.00936698 -0.151284 -6.33914e-19)
(0.00717782 -0.116665 -2.54184e-19)
(0.0025087 -0.0835083 -9.41326e-20)
(-0.00510176 -0.0513004 0)
(-0.0157935 -0.0196704 1.37519e-19)
(-0.0294884 0.0114689 -6.25787e-20)
(-0.0461646 0.0421116 0)
(-0.0659054 0.0721987 -5.61132e-20)
(-0.0888289 0.10155 0)
(-0.115044 0.129846 1.05921e-19)
(-0.144717 0.156859 0)
(-0.178029 0.182519 5.10709e-20)
(-0.215124 0.206903 1.00014e-19)
(-0.256075 0.230236 -9.76745e-20)
(-0.300855 0.25284 0)
(-0.349283 0.275038 -9.23238e-20)
(-0.40094 0.29699 0)
(-0.455155 0.318558 0)
(-0.511069 0.339275 -8.29901e-20)
(-0.567849 0.358414 0)
(-0.624959 0.375227 2.44559e-23)
(-0.682265 0.389294 0)
(-0.739591 0.400345 0)
(-0.796584 0.40822 -1.16907e-24)
(-0.852884 0.412872 -6.53963e-20)
(-0.908202 0.414368 -6.29618e-20)
(-0.962323 0.412867 -6.06925e-20)
(-1.01511 0.408601 0)
(-1.0665 0.401868 -1.13082e-19)
(-1.11648 0.393031 0)
(-1.16508 0.382491 -5.29608e-20)
(-1.21236 0.370649 0)
(-1.25836 0.357882 0)
(-1.30314 0.344537 4.85742e-20)
(-1.34676 0.330925 0)
(-1.38926 0.317311 -4.61687e-20)
(-1.43069 0.303915 -9.02287e-23)
(-1.47109 0.290915 8.82961e-20)
(-1.51049 0.278446 -8.63533e-20)
(-1.54895 0.266606 0)
(-1.58649 0.255461 0)
(-1.62317 0.245049 -4.06578e-20)
(-1.65902 0.235388 0)
(-1.69411 0.22648 -3.94945e-20)
(-1.72846 0.218312 3.88717e-20)
(-1.76215 0.210861 3.82828e-20)
(-1.79522 0.204099 0)
(-1.82772 0.197991 -3.71922e-20)
(-1.85972 0.192501 -3.66845e-20)
(-1.89127 0.18759 7.21781e-20)
(-1.92243 0.183222 -3.57314e-20)
(-1.95324 0.179357 -3.52817e-20)
(-1.98378 0.17596 0)
(-2.01407 0.172993 0)
(-2.04419 0.170421 3.40198e-20)
(-2.07417 0.168212 0)
(-2.10405 0.166333 0)
(-2.13389 0.164753 -6.57233e-20)
(-2.16371 0.163441 -6.49889e-20)
(-2.19356 0.162369 0)
(-2.22346 0.161508 0)
(-2.25345 0.16083 0)
(-2.28354 0.160303 0)
(-2.31375 0.159901 -6.15551e-20)
(-2.34411 0.159591 6.06118e-20)
(-2.37462 0.159346 6.02839e-20)