/*--------------------------------*- C++ -*----------------------------------*\
  =========                 |
  \\      /  F ield         | OpenFOAM: The Open Source CFD Toolbox
   \\    /   O peration     | Website:  https://openfoam.org
    \\  /    A nd           | Version:  8
     \\/     M anipulation  |
\*---------------------------------------------------------------------------*/
FoamFile
{
    version     2.0;
    format      ascii;
    class       volScalarField;
    location    "180";
    object      epsilon;
}
// * * * * * * * * * * * * * * * * * * * * * * * * * * * * * * * * * * * * * //

dimensions      [0 2 -3 0 0 0 0];

internalField   nonuniform List<scalar> 
12225
(
285.523
270.707
257.913
243.815
232.455
223.095
216.799
212.702
212.742
213.966
217.237
220.921
228.118
232.696
241.472
246.164
256.48
254.816
52.4912
91.8869
106.971
114.754
124.84
136.792
152.691
169.912
191.136
210.943
235.294
255.506
281.188
299.4
324.96
339.719
364.074
379.665
20.528
34.8742
44.6742
50.4708
55.3952
59.6091
64.6655
69.6427
76.3263
83.1841
91.4603
99.3252
108.219
116.968
125.623
135.404
142.686
154.262
16.0024
19.4867
24.081
27.564
30.4969
32.8693
35.1568
37.2926
39.5059
41.9174
44.343
47.2054
49.6924
53.0526
55.4313
59.2812
61.4323
65.7606
15.0385
15.7125
17.399
19.0784
20.6396
22.0257
23.2469
24.4308
25.4453
26.5948
27.5253
28.7599
29.6355
30.9907
31.819
33.284
34.0627
35.6902
14.7897
14.8257
15.2495
15.8675
16.5678
17.2869
17.924
18.5841
19.1196
19.7343
20.1939
20.7999
21.2097
21.8249
22.2004
22.8339
23.1681
23.8779
14.7657
14.6146
14.641
14.7257
14.9352
15.2199
15.4917
15.8089
16.0711
16.3828
16.6184
16.9207
17.1315
17.4282
17.6168
17.9164
18.0741
18.4159
14.7687
14.5866
14.466
14.3801
14.3678
14.3896
14.4394
14.5334
14.6185
14.7367
14.8309
14.9567
15.0479
15.1767
15.2613
15.3942
15.4639
15.6254
14.768
14.591
14.4349
14.2963
14.185
14.1044
14.0399
14.0066
13.9814
13.9785
13.9809
13.9918
14.0037
14.0301
14.0464
14.0815
14.0974
14.1524
14.7665
14.594
14.432
14.282
14.143
14.0219
13.9115
13.8193
13.737
13.6698
13.6102
13.5633
13.5181
13.4872
13.4516
13.4345
13.402
13.4014
14.7659
14.5945
14.4322
14.2803
14.1362
14.0032
13.8782
13.7644
13.6582
13.5629
13.4735
13.3952
13.3198
13.2561
13.1915
13.1408
13.0838
13.0452
14.7657
14.5943
14.4321
14.2798
14.1353
13.9999
13.8715
13.7518
13.6385
13.5336
13.434
13.343
13.2557
13.177
13.1002
13.0328
12.9647
12.9074
14.7657
14.5941
14.432
14.2794
14.1349
13.9989
13.8699
13.7485
13.6331
13.5249
13.4219
13.3257
13.2337
13.1483
13.0662
12.9905
12.9171
12.8502
14.7657
14.5939
14.4318
14.279
14.1346
13.9983
13.8692
13.7472
13.6315
13.5223
13.4184
13.3203
13.227
13.1389
13.055
12.9759
12.9002
12.8291
14.7657
14.5938
14.4317
14.2787
14.1342
13.9977
13.8686
13.7464
13.6307
13.5211
13.4171
13.3185
13.2248
13.136
13.0516
12.9715
12.8952
12.8228
14.7657
14.5938
14.4316
14.2785
14.1339
13.9973
13.8681
13.7458
13.63
13.5202
13.4161
13.3174
13.2237
13.1347
13.0501
12.9697
12.8932
12.8205
14.7657
14.5937
14.4315
14.2783
14.1337
13.997
13.8677
13.7453
13.6294
13.5196
13.4154
13.3166
13.2227
13.1336
13.049
12.9685
12.8919
12.8191
14.7657
14.5937
14.4314
14.2782
14.1335
13.9968
13.8674
13.745
13.629
13.5191
13.4148
13.316
13.2221
13.1329
13.0481
12.9676
12.8909
12.818
14.7657
14.5937
14.4314
14.2782
14.1335
13.9967
13.8673
13.7448
13.6288
13.5189
13.4146
13.3157
13.2217
13.1325
13.0477
12.9671
12.8905
12.8175
14.7657
14.5937
14.4314
14.2782
14.1336
13.9968
13.8674
13.745
13.629
13.5191
13.4148
13.3159
13.222
13.1328
13.048
12.9674
12.8907
12.8178
14.7657
14.5937
14.4315
14.2784
14.1338
13.997
13.8677
13.7453
13.6294
13.5196
13.4155
13.3166
13.2229
13.1339
13.0494
12.969
12.8927
12.82
14.7657
14.5937
14.4316
14.2785
14.1341
13.9974
13.8685
13.7464
13.6312
13.522
13.4191
13.3214
13.2293
13.1419
13.0595
12.9811
12.9074
12.8369
14.7659
14.5937
14.4318
14.2788
14.1353
14.0002
13.8742
13.756
13.6463
13.5435
13.4485
13.3592
13.277
13.1993
13.1283
13.0602
12.9989
12.9387
14.7661
14.5928
14.4329
14.2844
14.1515
14.0321
13.9289
13.8376
13.7593
13.6894
13.6307
13.5769
13.5328
13.4905
13.4574
13.423
13.3989
13.3693
14.7641
14.5936
14.461
14.3604
14.3029
14.2767
14.2796
14.294
14.3202
14.3529
14.3959
14.4345
14.4824
14.5217
14.5719
14.6089
14.6616
14.6938
14.757
14.6921
14.758
14.9172
15.1828
15.4611
15.7475
16.012
16.2723
16.5037
16.736
16.9385
17.1506
17.3308
17.5308
17.6935
17.8886
18.0357
14.9575
15.4344
16.5693
17.6884
18.7053
19.5677
20.3372
20.9968
21.6193
22.1659
22.7187
23.2106
23.7397
24.204
24.7323
25.1822
25.7245
26.1654
16.2579
20.9389
25.015
27.7587
29.7844
31.3584
32.7766
34.0582
35.359
36.6159
37.9749
39.2966
40.7607
42.1448
43.7166
45.1723
46.882
48.3566
29.9427
47.225
54.8704
58.6734
61.6136
64.4317
67.579
70.9783
74.737
78.7127
82.9834
87.3421
91.9024
96.4469
101.096
105.618
110.17
114.571
165.79
160.073
154.899
149.564
144.479
139.678
135.613
132.11
129.27
126.973
125.319
124.044
123.339
122.828
122.825
122.98
123.267
123.824
0.731242
0.702779
1.21204
1.69697
2.19668
2.71044
3.23781
3.77183
4.30447
4.82553
5.32861
5.80761
6.26024
6.68275
7.07133
7.4166
7.70669
7.9249
8.05478
8.07431
7.99849
7.80199
7.62092
7.83236
8.13333
8.41446
8.65062
8.85068
9.00805
8.97852
8.51267
9.2524
40.3009
40.0937
44.7466
47.4234
51.0733
54.6538
58.4779
62.4549
66.6038
70.9263
75.4216
80.097
84.9528
89.9966
95.2289
100.658
106.284
112.115
118.151
124.4
130.861
137.542
144.441
151.567
158.914
166.493
174.296
182.333
190.595
199.091
207.811
216.763
225.934
235.333
244.944
254.774
264.807
275.048
285.479
296.103
306.9
317.875
329
340.281
351.69
363.228
374.867
386.607
398.417
410.297
422.213
434.164
446.111
458.054
469.951
481.798
493.554
505.207
516.716
528.054
539.196
550.157
560.975
571.499
581.812
591.894
601.729
611.312
620.626
629.661
638.406
646.852
654.989
662.812
670.315
677.494
684.348
690.876
697.078
702.959
708.52
713.771
718.715
723.367
727.727
731.821
735.655
739.265
742.646
745.815
748.755
751.504
754.046
756.442
758.664
760.781
762.75
764.646
766.42
768.169
769.849
771.566
773.217
774.782
776.282
776.8
779.346
780.46
781.52
782.549
783.09
783.109
783.493
782.908
781.57
779.639
777.167
773.942
769.822
764.762
758.621
751.392
742.897
733.086
722.713
710.246
698.485
693.667
689.348
684.082
677.716
670.322
661.937
652.734
642.698
631.869
620.376
608.397
596.191
583.714
570.956
557.834
544.453
530.785
517.225
500.895
488.22
444.301
2.7391
1.60481
1.59132
1.78781
2.08377
2.44432
2.85262
3.29427
3.75632
4.22794
4.70128
5.17136
5.63537
6.09129
6.53662
6.96737
7.37769
7.76006
8.1186
8.48513
8.89092
9.36991
9.94085
10.5886
11.2786
12.0443
12.9106
13.9455
15.2636
17.1409
19.2256
22.4483
26.0119
27.2751
29.1252
30.8147
32.6429
34.5144
36.459
38.4677
40.544
42.6896
44.9057
47.1945
49.5574
51.9962
54.512
57.1068
59.7813
62.5372
65.3751
68.2963
71.3012
74.3909
77.5654
80.8256
84.1711
87.6026
91.1193
94.7214
98.4078
102.178
106.031
109.967
113.982
118.076
122.246
126.491
130.808
135.195
139.648
144.165
148.741
153.373
158.057
162.789
167.563
172.376
177.22
182.092
186.985
191.893
196.809
201.728
206.64
211.539
216.416
221.264
226.075
230.839
235.552
240.209
244.824
249.434
254.031
258.532
262.953
267.285
271.522
275.661
279.694
283.619
287.429
291.122
294.694
298.141
301.462
304.654
307.718
310.651
313.455
316.129
318.676
321.096
323.394
325.572
327.635
329.586
331.434
333.184
334.838
336.4
337.871
339.259
340.57
341.813
342.995
344.126
345.208
346.253
347.265
348.261
349.246
350.238
351.23
352.24
353.239
354.167
355.339
356.28
357.217
358.107
358.879
359.52
360.131
360.465
360.567
360.434
360.082
359.463
358.501
357.163
355.401
353.191
350.485
347.239
343.583
339.292
334.626
330.947
327.282
323.242
318.747
313.82
308.493
302.828
296.867
290.615
284.082
277.326
270.461
263.51
256.511
249.485
242.481
235.535
228.865
221.937
216.76
211.064
5.23962
2.64587
2.33376
2.38742
2.58644
2.87599
3.23103
3.63523
4.07539
4.54085
5.02378
5.51941
6.02558
6.54203
7.06945
7.60933
8.16448
8.74133
9.34521
9.97434
10.639
11.3505
12.1095
12.912
13.7641
14.6873
15.7006
16.8296
18.1002
19.5377
21.0972
22.751
24.3178
25.6818
27.1165
28.5784
30.0961
31.6659
33.292
34.9727
36.7086
38.5008
40.3502
42.2578
44.2245
46.2514
48.3391
50.4888
52.701
54.9765
57.3158
59.7197
62.1884
64.7225
67.3223
69.9879
72.7194
75.517
78.3804
81.3094
84.3036
87.3626
90.4856
93.672
96.9207
100.231
103.601
107.029
110.514
114.055
117.648
121.293
124.985
128.724
132.505
136.326
140.184
144.074
147.994
151.938
155.904
159.885
163.878
167.878
171.879
175.877
179.865
183.839
187.793
191.725
195.631
199.51
203.365
207.195
210.984
214.712
218.378
221.976
225.5
228.946
232.309
235.585
238.769
241.859
244.849
247.739
250.524
253.204
255.777
258.242
260.598
262.845
264.984
267.016
268.943
270.766
272.489
274.115
275.647
277.089
278.446
279.718
280.91
282.027
283.074
284.057
284.982
285.854
286.682
287.468
288.219
288.946
289.656
290.353
291.038
291.706
292.347
292.971
293.63
294.219
294.776
295.266
295.682
296.032
296.23
296.232
296.118
295.825
295.336
294.619
293.632
292.341
290.715
288.728
286.348
283.553
280.369
276.761
272.844
269.028
265.094
260.89
256.374
251.56
246.476
241.165
235.663
229.994
224.183
218.274
212.311
206.283
200.258
194.269
188.346
182.55
177.007
171.631
167.264
163.716
7.82082
3.75346
3.14967
3.09163
3.23054
3.48051
3.80746
4.19329
4.62543
5.09431
5.59277
6.11612
6.66191
7.22949
7.81936
8.43268
9.07091
9.73575
10.4284
11.1498
11.9025
12.6883
13.5065
14.3579
15.2482
16.188
17.1872
18.2535
19.3896
20.5913
21.8841
23.2106
24.5422
25.8765
27.2542
28.6714
30.1336
31.6407
33.1964
34.8027
36.4608
38.1718
39.9365
41.7558
43.6307
45.562
47.5505
49.5972
51.7027
53.8677
56.0928
58.3786
60.7255
63.1343
65.6052
68.1387
70.7349
73.3942
76.1166
78.9022
81.7508
84.6622
87.636
90.672
93.7693
96.9272
100.145
103.421
106.755
110.145
113.59
117.087
120.634
124.23
127.872
131.558
135.283
139.046
142.843
146.67
150.523
154.399
158.292
162.199
166.115
170.035
173.954
177.868
181.771
185.661
189.533
193.385
197.212
201.008
204.76
208.459
212.099
215.675
219.181
222.611
225.96
229.224
232.397
235.475
238.454
241.332
244.104
246.769
249.324
251.768
254.1
256.317
258.422
260.413
262.292
264.059
265.717
267.268
268.716
270.062
271.31
272.462
273.524
274.497
275.389
276.203
276.944
277.619
278.234
278.792
279.297
279.761
280.192
280.592
280.967
281.303
281.584
281.847
282.097
282.308
282.485
282.565
282.531
282.449
282.24
281.903
281.433
280.771
279.914
278.839
277.514
275.909
273.997
271.753
269.156
266.195
262.879
259.216
255.275
251.198
246.934
242.427
237.663
232.655
227.433
222.033
216.491
210.836
205.093
199.31
193.52
187.742
182.011
176.346
170.758
165.328
160.138
155.23
151.02
147.676
10.3076
4.85429
3.96483
3.8037
3.88677
4.10301
4.40726
4.77777
5.20118
5.66807
6.1714
6.70616
7.2691
7.85847
8.47359
9.11443
9.78124
10.4744
11.1942
11.941
12.7157
13.5196
14.3547
15.2226
16.127
17.0732
18.0661
19.1092
20.2039
21.3505
22.5484
23.7965
25.0818
26.4028
27.7632
29.168
30.6194
32.12
33.6715
35.274
36.9284
38.6358
40.3971
42.2134
44.0856
46.0148
48.0021
50.0484
52.1552
54.3229
56.552
58.8434
61.1978
63.616
66.0988
68.6466
71.2602
73.9399
76.6863
79.4995
82.3799
85.3276
88.3425
91.4245
94.5733
97.7885
101.069
104.415
107.825
111.298
114.833
118.428
122.081
125.79
129.553
133.367
137.23
141.139
145.09
149.079
153.103
157.158
161.24
165.343
169.462
173.594
177.732
181.872
186.008
190.136
194.248
198.34
202.404
206.433
210.417
214.349
218.222
222.028
225.762
229.416
232.985
236.462
239.842
243.119
246.29
249.349
252.292
255.117
257.82
260.399
262.851
265.175
267.37
269.436
271.372
273.178
274.857
276.408
277.835
279.14
280.326
281.396
282.353
283.201
283.946
284.59
285.138
285.598
285.979
286.279
286.495
286.652
286.753
286.807
286.824
286.782
286.632
286.465
286.263
286.014
285.706
285.305
284.827
284.266
283.594
282.802
281.877
280.782
279.503
278.014
276.288
274.298
272.02
269.433
266.52
263.277
259.708
255.828
251.677
247.317
242.739
237.926
232.879
227.616
222.166
216.565
210.846
205.042
199.167
193.284
187.424
181.614
175.883
170.257
164.76
159.446
154.367
149.597
145.373
141.836
12.628
5.90353
4.7407
4.48028
4.50914
4.69218
4.9731
5.32577
5.73532
6.19187
6.68826
7.21923
7.78101
8.37115
8.98822
9.63158
10.3011
10.997
11.7198
12.4703
13.2497
14.0596
14.9021
15.7794
16.6942
17.6496
18.6486
19.6934
20.7853
21.9251
23.113
24.3481
25.6282
26.9529
28.3234
29.7414
31.2084
32.726
34.2955
35.9179
37.5944
39.326
41.1141
42.9597
44.8642
46.8286
48.8542
50.9422
53.0933
55.3091
57.5909
59.9399
62.3573
64.8441
67.4014
70.0303
72.7316
75.5062
78.355
81.2785
84.2774
87.352
90.5029
93.73
97.0334
100.413
103.868
107.399
111.004
114.683
118.434
122.256
126.147
130.105
134.127
138.212
142.356
146.556
150.809
155.11
159.456
163.841
168.262
172.713
177.188
181.683
186.19
190.705
195.22
199.73
204.227
208.703
213.15
217.561
221.925
226.234
230.481
234.656
238.752
242.761
246.677
250.49
254.196
257.787
261.257
264.6
267.813
270.89
273.827
276.621
279.269
281.768
284.116
286.313
288.355
290.245
291.98
293.563
294.994
296.277
297.413
298.405
299.258
299.975
300.561
301.02
301.35
301.563
301.681
301.689
301.562
301.365
301.089
300.738
300.32
299.815
299.232
298.587
297.885
297.12
296.286
295.368
294.369
293.282
292.091
290.783
289.343
287.748
285.978
284.01
281.82
279.383
276.68
273.693
270.408
266.821
262.934
258.758
254.317
249.642
244.736
239.6
234.245
228.691
222.968
217.11
211.153
205.129
199.057
193.002
186.99
181.05
175.211
169.501
163.951
158.606
153.517
148.758
144.465
140.673
14.7225
6.86761
5.44964
5.0915
5.06883
5.2174
5.47305
5.80487
6.1961
6.63623
7.11796
7.63599
8.18647
8.76678
9.37529
10.0112
10.6744
11.3652
12.0844
12.8332
13.6129
14.4254
15.2726
16.1565
17.0794
18.0433
19.0505
20.1025
21.2006
22.3457
23.5384
24.7791
26.0679
27.4053
28.7922
30.2299
31.7196
33.2628
34.8607
36.5148
38.2264
39.9969
41.8277
43.7204
45.6764
47.6973
49.7845
51.9397
54.1643
56.46
58.8284
61.271
63.7896
66.3855
69.0603
71.8154
74.6521
77.5717
80.5754
83.6642
86.839
90.1008
93.4501
96.8875
100.413
104.027
107.729
111.52
115.397
119.361
123.411
127.544
131.759
136.054
140.426
144.873
149.392
153.979
158.629
163.34
168.105
172.921
177.781
182.681
187.613
192.571
197.549
202.539
207.534
212.526
217.507
222.467
227.397
232.288
237.13
241.912
246.625
251.26
255.807
260.258
264.602
268.832
272.939
276.915
280.754
284.447
287.99
291.375
294.599
297.657
300.544
303.258
305.795
308.152
310.328
312.321
314.13
315.756
317.199
318.461
319.544
320.452
321.189
321.758
322.162
322.412
322.492
322.41
322.206
321.858
321.381
320.784
320.078
319.268
318.361
317.353
316.252
315.067
313.804
312.465
311.047
309.546
307.961
306.286
304.513
302.631
300.624
298.475
296.165
293.673
290.979
288.063
284.906
281.493
277.811
273.854
269.622
265.119
260.361
255.363
250.134
244.68
239.016
233.166
227.159
221.029
214.81
208.54
202.246
195.974
189.758
183.628
177.618
171.756
166.075
160.617
155.428
150.576
146.144
142.091
16.5499
7.72189
6.07184
5.61831
5.54715
5.66145
5.89082
6.2001
6.5707
6.99143
7.45487
7.95584
8.49065
9.0568
9.65273
10.2777
10.9317
11.615
12.3286
13.0737
13.8517
14.6643
15.5134
16.4007
17.3282
18.2975
19.3106
20.3687
21.4733
22.6255
23.8263
25.0767
26.3777
27.7304
29.136
30.5959
32.1115
33.6843
35.3159
37.0079
38.7619
40.5798
42.4632
44.4141
46.4342
48.5256
50.6901
52.9298
55.2466
57.6426
60.1198
62.6804
65.3263
68.0596
70.8822
73.7959
76.8027
79.9041
83.1019
86.3975
89.7923
93.2874
96.8838
100.582
104.384
108.288
112.295
116.405
120.618
124.931
129.346
133.858
138.468
143.172
147.968
152.852
157.822
162.872
168
173.198
178.464
183.79
189.17
194.598
200.067
205.569
211.096
216.64
222.192
227.743
233.283
238.802
244.289
249.732
255.122
260.445
265.692
270.851
275.912
280.862
285.693
290.393
294.953
299.363
303.614
307.699
311.61
315.339
318.882
322.231
325.383
328.332
331.075
333.608
335.927
338.031
339.918
341.587
343.037
344.271
345.29
346.098
346.699
347.098
347.29
347.282
347.065
346.675
346.113
345.381
344.487
343.441
342.251
340.928
339.477
337.904
336.218
334.426
332.538
330.56
328.492
326.338
324.097
321.769
319.348
316.826
314.192
311.432
308.531
305.472
302.237
298.809
295.172
291.311
287.212
282.868
278.274
273.431
268.346
263.028
257.483
251.723
245.763
239.625
233.34
226.939
220.46
213.936
207.403
200.899
194.46
188.119
181.91
175.863
170.013
164.398
159.061
154.06
149.445
145.116
18.0855
8.4511
6.59643
6.05467
5.93718
6.01808
6.22122
6.50767
6.85714
7.25777
7.702
8.18479
8.70265
9.25328
9.83529
10.448
11.0915
11.7661
12.4727
13.2123
13.9864
14.7966
15.6445
16.5319
17.4605
18.4319
19.4479
20.51
21.6196
22.7781
23.987
25.2475
26.5612
27.9299
29.3552
30.8387
32.3822
33.9876
35.6566
37.3913
39.1936
41.0658
43.0101
45.0285
47.1236
49.2977
51.5532
53.8927
56.3186
58.8336
61.4401
64.1409
66.9384
69.8352
72.8338
75.9365
79.1458
82.4639
85.8927
89.4343
93.0903
96.8624
100.752
104.76
108.887
113.133
117.5
121.986
126.592
131.316
136.156
141.112
146.181
151.36
156.646
162.036
167.525
173.109
178.782
184.539
190.373
196.279
202.248
208.273
214.346
220.457
226.599
232.76
238.931
245.101
251.259
257.394
263.492
269.541
275.529
281.443
287.27
292.997
298.612
304.102
309.454
314.658
319.701
324.572
329.261
333.759
338.057
342.146
346.019
349.671
353.094
356.284
359.234
361.942
364.402
366.612
368.567
370.267
371.711
372.9
373.835
374.52
374.958
375.143
375.082
374.788
374.261
373.515
372.557
371.394
370.033
368.485
366.759
364.867
362.816
360.618
358.282
355.819
353.24
350.554
347.769
344.891
341.924
338.872
335.733
332.505
329.182
325.754
322.21
318.537
314.721
310.747
306.601
302.267
297.732
292.984
288.017
282.826
277.413
271.78
265.934
259.884
253.645
247.238
240.691
234.036
227.308
220.543
213.775
207.042
200.38
193.824
187.407
181.163
175.126
169.332
163.822
158.642
153.821
149.223
19.3195
9.04872
7.02054
6.40004
6.23932
6.28857
6.46642
6.73073
7.05968
7.44079
7.86634
8.33133
8.83244
9.36755
9.93539
10.5355
11.1679
11.8333
12.5316
13.264
14.0322
14.8375
15.6818
16.5667
17.4939
18.4652
19.4823
20.5469
21.6607
22.8253
24.0423
25.3132
26.6395
28.0247
29.4711
30.9806
32.5551
34.1969
35.9083
37.6917
39.5497
41.4847
43.4995
45.5968
47.7796
50.0507
52.4133
54.8702
57.4248
60.0801
62.8393
65.7056
68.6822
71.7722
74.9787
78.3046
81.7528
85.326
89.0268
92.8576
96.8204
100.917
105.149
109.519
114.026
118.671
123.455
128.377
133.437
138.633
143.964
149.427
155.021
160.742
166.585
172.547
178.622
184.806
191.091
197.471
203.939
210.487
217.107
223.789
230.524
237.301
244.11
250.94
257.779
264.615
271.435
278.225
284.973
291.663
298.282
304.815
311.248
317.567
323.756
329.802
335.691
341.41
346.944
352.283
357.413
362.324
367.006
371.45
375.647
379.59
383.273
386.689
389.832
392.697
395.279
397.572
399.574
401.281
402.691
403.806
404.626
405.154
405.386
405.327
404.987
404.371
403.485
402.338
400.939
399.297
397.42
395.319
393.005
390.489
387.784
384.901
381.854
378.656
375.321
371.862
368.292
364.62
360.856
357.01
353.085
349.086
345.01
340.856
336.615
332.28
327.84
323.282
318.594
313.761
308.769
303.603
298.253
292.71
286.971
281.035
274.904
268.585
262.09
255.439
248.656
241.773
234.821
227.836
220.852
213.907
207.036
200.274
193.657
187.218
180.991
175.013
169.318
163.948
158.913
154.06
20.2554
9.51515
7.34674
6.65867
6.45888
6.47904
6.63317
6.87659
7.18625
7.54906
7.95708
8.40535
8.8907
9.41109
9.96503
10.5522
11.1733
11.8292
12.5193
13.2447
14.0067
14.8069
15.647
16.5287
17.4538
18.4243
19.442
20.5089
21.6269
22.798
24.0241
25.3071
26.6484
28.0539
29.5256
31.0658
32.6773
34.3629
36.1254
37.9676
39.8926
41.9035
44.0037
46.1964
48.4853
50.8739
53.3658
55.9648
58.6747
61.4994
64.4426
67.5082
70.7001
74.0219
77.4774
81.0701
84.8034
88.6805
92.7044
96.8779
101.203
105.683
110.318
115.111
120.062
125.172
130.44
135.866
141.45
147.189
153.081
159.124
165.314
171.647
178.118
184.722
191.452
198.302
205.265
212.332
219.495
226.744
234.069
241.461
248.907
256.396
263.915
271.452
278.993
286.525
294.033
301.502
308.918
316.263
323.524
330.683
337.725
344.633
351.393
357.988
364.402
370.621
376.631
382.416
387.965
393.264
398.303
403.071
407.56
411.762
415.669
419.275
422.572
425.556
428.219
430.557
432.564
434.236
435.572
436.568
437.228
437.552
437.54
437.194
436.524
435.539
434.244
432.647
430.758
428.586
426.141
423.435
420.479
417.286
413.871
410.247
406.43
402.436
398.283
393.987
389.566
385.034
380.409
375.702
370.927
366.093
361.205
356.267
351.276
346.229
341.12
335.94
330.677
325.318
319.847
314.248
308.507
302.612
296.555
290.329
283.934
277.371
270.651
263.788
256.804
249.726
242.585
235.414
228.247
221.118
214.063
207.118
200.318
193.698
187.292
181.135
175.258
169.698
164.455
159.367
20.9036
9.85493
7.5812
6.83823
6.60429
6.59897
6.73108
6.95521
7.24718
7.59342
7.98528
8.41811
8.88936
9.39809
9.9409
10.5177
11.1286
11.7737
12.4533
13.1694
13.9234
14.7171
15.5523
16.4307
17.3546
18.326
19.3472
20.4204
21.5479
22.7323
23.9765
25.2815
26.6473
28.0813
29.5869
31.1678
32.8278
34.5708
36.3998
38.3185
40.3303
42.439
44.6486
46.9633
49.3873
51.9249
54.5805
57.3587
60.2639
63.3007
66.4736
69.7872
73.2461
76.8544
80.6166
84.5366
88.6184
92.8656
97.2814
101.869
106.631
111.569
116.685
121.98
127.456
133.112
138.947
144.961
151.151
157.516
164.053
170.756
177.622
184.646
191.821
199.14
206.597
214.181
221.886
229.7
237.614
245.616
253.694
261.837
270.031
278.263
286.519
294.783
303.042
311.279
319.479
327.626
335.703
343.692
351.576
359.339
366.963
374.43
381.724
388.828
395.725
402.399
408.834
415.015
420.927
426.558
431.896
436.929
441.648
446.045
450.113
453.844
457.232
460.27
462.952
465.27
467.22
468.795
469.992
470.81
471.249
471.31
470.996
470.298
469.241
467.827
466.065
463.961
461.524
458.766
455.698
452.33
448.677
444.751
440.57
436.149
431.505
426.658
421.629
416.438
411.107
405.657
400.109
394.484
388.8
383.073
377.317
371.541
365.749
359.945
354.125
348.285
342.417
336.507
330.539
324.496
318.361
312.117
305.753
299.258
292.624
285.85
278.941
271.906
264.764
257.537
250.252
242.939
235.63
228.358
221.156
214.062
207.109
200.334
193.769
187.449
181.404
175.666
170.23
164.932
21.3004
10.0833
7.73419
6.9481
6.68436
6.65776
6.77108
6.97797
7.25421
7.58691
7.96637
8.38738
8.8464
9.34054
9.8699
10.4344
11.0343
11.6703
12.3434
13.0547
13.8059
14.5985
15.4345
16.3161
17.2456
18.2258
19.2597
20.3491
21.4963
22.7045
23.9768
25.312
26.7165
28.1963
29.7563
31.4006
33.1335
34.9591
36.8827
38.9087
41.0413
43.2848
45.6443
48.1246
50.7309
53.4685
56.3424
59.3581
62.5208
65.8358
69.3083
72.9436
76.7467
80.7226
84.8759
89.211
93.7321
98.443
103.347
108.447
113.746
119.244
124.945
130.847
136.952
143.258
149.764
156.468
163.367
170.457
177.733
185.19
192.822
200.622
208.582
216.693
224.946
233.33
241.835
250.449
259.159
267.952
276.815
285.733
294.692
303.676
312.669
321.655
330.617
339.539
348.403
357.191
365.886
374.469
382.923
391.228
399.367
407.322
415.075
422.608
429.904
436.946
443.717
450.201
456.384
462.252
467.792
472.992
477.844
482.339
486.469
490.229
493.611
496.609
499.216
501.424
503.226
504.616
505.589
506.144
506.28
506.004
505.293
504.173
502.654
500.74
498.438
495.758
492.707
489.299
485.543
481.453
477.043
472.328
467.324
462.05
456.526
450.773
444.815
438.677
432.384
425.963
419.442
412.847
406.203
399.535
392.862
386.203
379.568
372.966
366.401
359.871
353.373
346.894
340.419
333.929
327.403
320.823
314.172
307.434
300.596
293.652
286.6
279.444
272.196
264.875
257.502
250.102
242.705
235.341
228.042
220.843
213.778
206.883
200.191
193.737
187.547
181.652
176.045
170.569
21.4193
10.1965
7.81049
6.99702
6.71063
6.66689
6.76583
6.95998
7.2239
7.54267
7.90814
8.31615
8.76386
9.24982
9.77284
10.3327
10.9296
11.5642
12.2378
12.952
13.7086
14.5103
15.3581
16.2545
17.2023
18.2047
19.2644
20.3812
21.5607
22.8074
24.1254
25.5192
26.9936
28.554
30.2054
31.9532
33.8027
35.7593
37.8288
40.017
42.3291
44.7709
47.3483
50.0674
52.9346
55.9558
59.1372
62.4848
66.0046
69.7025
73.5842
77.6555
81.9217
86.3879
91.059
95.9393
101.033
106.343
111.872
117.624
123.598
129.797
136.22
142.867
149.736
156.825
164.131
171.649
179.376
187.305
195.43
203.742
212.234
220.897
229.72
238.692
247.801
257.035
266.382
275.825
285.353
294.948
304.596
314.28
323.983
333.689
343.38
353.038
362.645
372.183
381.633
390.978
400.198
409.275
418.19
426.924
435.459
443.777
451.86
459.689
467.248
474.52
481.487
488.134
494.446
500.409
506.009
511.236
516.08
520.534
524.59
528.243
531.487
534.315
536.72
538.694
540.229
541.316
541.951
542.133
541.868
541.126
539.93
538.292
536.218
533.714
530.788
527.449
523.706
519.572
515.058
510.179
504.948
499.382
493.498
487.316
480.859
474.15
467.216
460.084
452.785
445.35
437.813
430.207
422.565
414.918
407.293
399.717
392.208
384.782
377.449
370.213
363.073
356.021
349.041
342.113
335.214
328.322
321.416
314.475
307.48
300.417
293.278
286.062
278.774
271.426
264.032
256.612
249.193
241.8
234.463
227.215
220.09
213.122
206.346
199.794
193.493
187.473
181.726
176.106
21.3668
10.2121
7.82146
6.99557
6.69676
6.6418
6.72751
6.90824
7.16035
7.47051
7.8303
8.23461
8.68052
9.16651
9.69203
10.2576
10.8628
11.5083
12.1959
12.9272
13.7042
14.5282
15.4009
16.3269
17.31
18.3541
19.4633
20.6418
21.8941
23.2251
24.64
26.1446
27.7446
29.4461
31.2552
33.1785
35.2225
37.3939
39.6997
42.1466
44.7415
47.4917
50.4046
53.4881
56.7497
60.1962
63.8343
67.6704
71.7106
75.9611
80.4276
85.1157
90.0303
95.1762
100.557
106.177
112.038
118.143
124.493
131.089
137.929
145.014
152.341
159.907
167.708
175.74
183.996
192.47
201.155
210.042
219.122
228.384
237.818
247.41
257.15
267.023
277.015
287.111
297.296
307.554
317.868
328.221
338.596
348.974
359.339
369.671
379.952
390.163
400.286
410.3
420.189
429.933
439.513
448.911
458.108
467.087
475.828
484.315
492.531
500.458
508.079
515.379
522.341
528.951
535.193
541.053
546.52
551.582
556.23
560.457
564.257
567.626
570.559
573.049
575.089
576.669
577.786
578.421
578.573
578.257
577.422
576.101
574.302
572.029
569.289
566.089
562.438
558.344
553.819
548.874
543.522
537.778
531.657
525.175
518.351
511.206
503.764
496.051
488.097
479.931
471.589
463.107
454.523
445.879
437.213
428.564
419.968
411.458
403.063
394.806
386.703
378.763
370.991
363.38
355.918
348.582
341.346
334.185
327.074
319.985
312.895
305.781
298.627
291.426
284.177
276.881
269.547
262.187
254.823
247.477
240.173
232.944
225.821
218.838
212.029
205.427
199.059
192.954
187.104
181.384
21.1931
10.187
7.79738
6.96121
6.64947
6.58433
6.66357
6.84162
7.09381
7.40697
7.77255
8.18548
8.6431
9.14403
9.68755
10.2731
10.9006
11.573
12.2925
13.0619
13.8843
14.7633
15.7025
16.706
17.7788
18.9257
20.1525
21.4651
22.8693
24.3715
25.9785
27.6975
29.5359
31.5014
33.6019
35.8456
38.2405
40.7945
43.5147
46.4097
49.4885
52.7601
56.234
59.9204
63.8293
67.9666
72.3379
76.9486
81.804
86.9089
92.2676
97.884
103.761
109.902
116.307
122.977
129.913
137.113
144.575
152.297
160.275
168.503
176.976
185.688
194.631
203.796
213.175
222.757
232.531
242.486
252.609
262.888
273.307
283.853
294.511
305.264
316.098
326.994
337.936
348.906
359.887
370.86
381.807
392.71
403.55
414.309
424.967
435.506
445.907
456.153
466.224
476.103
485.773
495.216
504.414
513.351
522.01
530.376
538.432
546.164
553.557
560.596
567.266
573.555
579.449
584.934
589.999
594.632
598.827
602.576
605.877
608.724
611.114
613.041
614.5
615.475
615.975
615.956
615.452
614.399
612.843
610.781
608.215
605.151
601.596
597.558
593.046
588.07
582.64
576.769
570.472
563.763
556.656
549.171
541.324
533.14
524.643
515.863
506.831
497.581
488.15
478.579
468.914
459.203
449.491
439.822
430.242
420.792
411.511
402.412
393.519
384.864
376.464
368.317
360.41
352.717
345.211
337.86
330.632
323.494
316.414
309.359
302.307
295.227
288.111
280.962
273.78
266.572
259.353
252.139
244.951
237.817
230.768
223.837
217.057
210.461
204.076
197.932
192.023
186.247
20.8023
10.0656
7.71444
6.88842
6.58464
6.5282
6.61932
6.81172
7.08083
7.41312
7.799
8.23624
8.72337
9.26001
9.84676
10.4854
11.1776
11.926
12.7341
13.606
14.5463
15.5607
16.6546
17.8342
19.1063
20.478
21.9573
23.5523
25.2716
27.1241
29.1192
31.2666
33.5763
36.0585
38.7232
41.5804
44.6401
47.9116
51.4041
55.1266
59.0885
63.2991
67.767
72.5007
77.5114
82.8047
88.3815
94.2428
100.389
106.822
113.54
120.542
127.826
135.389
143.228
151.337
159.711
168.342
177.225
186.35
195.709
205.293
215.09
225.09
235.282
245.654
256.192
266.884
277.717
288.675
299.745
310.911
322.159
333.472
344.834
356.23
367.642
379.055
390.449
401.809
413.117
424.356
435.507
446.555
457.48
468.266
478.895
489.351
499.616
509.673
519.506
529.101
538.441
547.51
556.294
564.778
572.947
580.79
588.292
595.442
602.226
608.633
614.651
620.268
625.474
630.256
634.602
638.502
641.95
644.941
647.471
649.537
651.139
652.261
652.916
653.06
652.746
651.869
650.471
648.55
646.106
643.142
639.658
635.662
631.161
626.164
620.679
614.716
608.286
601.403
594.08
586.334
578.18
569.636
560.72
551.456
541.872
532
521.875
511.529
501.005
490.35
479.614
468.818
458.031
447.319
436.739
426.347
416.191
406.332
396.798
387.584
378.705
370.163
361.943
354.017
346.352
338.915
331.667
324.571
317.588
310.676
303.805
296.95
290.108
283.249
276.36
269.439
262.476
255.496
248.521
241.575
234.687
227.889
221.213
214.691
208.353
202.231
196.319
190.543
20.353
9.89687
7.61019
6.8191
6.54436
6.51596
6.63456
6.8551
7.15779
7.53164
7.97075
8.47226
9.03568
9.66216
10.3541
11.1152
11.9495
12.8622
13.8591
14.9472
16.1339
17.428
18.8388
20.3762
22.0505
23.8728
25.8551
28.0094
30.3485
32.8849
35.6315
38.6008
41.8054
45.2576
48.9687
52.9491
57.2087
61.7566
66.6003
71.7459
77.1994
82.9667
89.0513
95.4565
102.185
109.241
116.61
124.285
132.257
140.517
149.055
157.862
166.928
176.242
185.793
195.567
205.555
215.743
226.119
236.67
247.383
258.246
269.245
280.367
291.599
302.928
314.34
325.822
337.36
348.941
360.549
372.173
383.796
395.405
406.986
418.524
430.005
441.413
452.735
463.954
475.057
486.027
496.851
507.512
517.997
528.291
538.379
548.246
557.877
567.259
576.378
585.223
593.779
602.034
609.975
617.59
624.869
631.8
638.373
644.58
650.41
655.852
660.9
665.544
669.775
673.583
676.955
679.88
682.352
684.373
685.93
687.025
687.667
687.808
687.522