/*--------------------------------*- C++ -*----------------------------------*\
  =========                 |
  \\      /  F ield         | OpenFOAM: The Open Source CFD Toolbox
   \\    /   O peration     | Website:  https://openfoam.org
    \\  /    A nd           | Version:  8
     \\/     M anipulation  |
\*---------------------------------------------------------------------------*/
FoamFile
{
    version     2.0;
    format      ascii;
    class       volScalarField;
    location    "180";
    object      k;
}
// * * * * * * * * * * * * * * * * * * * * * * * * * * * * * * * * * * * * * //

dimensions      [0 2 -2 0 0 0 0];

internalField   nonuniform List<scalar> 
12225
(
0.362813
0.343995
0.32774
0.309825
0.295391
0.283495
0.275496
0.270289
0.270342
0.271879
0.276079
0.280658
0.289988
0.295551
0.307123
0.31235
0.327244
0.335517
0.440188
0.468697
0.461605
0.448371
0.450351
0.458314
0.474507
0.498616
0.524368
0.552207
0.580769
0.606267
0.633959
0.65402
0.680022
0.693492
0.718182
0.730049
0.390542
0.417872
0.420231
0.416826
0.411628
0.407804
0.408016
0.410038
0.414545
0.421423
0.430741
0.439737
0.451237
0.461199
0.472969
0.483688
0.493783
0.50655
0.377546
0.386982
0.391407
0.391343
0.390221
0.387898
0.38566
0.384082
0.38288
0.382896
0.38339
0.384328
0.386317
0.388481
0.390949
0.394304
0.396603
0.401161
0.374562
0.37609
0.378412
0.378666
0.378263
0.377206
0.375487
0.373738
0.372009
0.370454
0.369259
0.368106
0.367384
0.366811
0.366451
0.366359
0.366379
0.366756
0.373814
0.372709
0.372645
0.372384
0.37176
0.370817
0.369553
0.368082
0.366571
0.364976
0.363527
0.362062
0.360754
0.35953
0.358397
0.357432
0.356447
0.355799
0.373782
0.371742
0.370386
0.369287
0.368233
0.367114
0.365915
0.364587
0.363238
0.361807
0.360421
0.359022
0.357676
0.356381
0.355119
0.353965
0.352794
0.351806
0.37382
0.37156
0.369634
0.367977
0.3665
0.365108
0.363775
0.362429
0.361107
0.359766
0.358449
0.357143
0.355861
0.35462
0.353399
0.352247
0.351096
0.35005
0.373832
0.371554
0.369449
0.367525
0.365776
0.364153
0.362645
0.361199
0.359817
0.358473
0.357169
0.355901
0.354666
0.353473
0.352305
0.351193
0.350094
0.34907
0.373831
0.37156
0.369418
0.367405
0.365529
0.363772
0.362133
0.360585
0.359122
0.357727
0.356394
0.355117
0.353887
0.352708
0.351567
0.350479
0.349417
0.348418
0.373829
0.37156
0.369413
0.367378
0.365458
0.363645
0.361937
0.360324
0.358798
0.357352
0.355978
0.354671
0.353423
0.352234
0.351093
0.350007
0.348957
0.347967
0.373828
0.371558
0.369409
0.367371
0.365439
0.363609
0.361876
0.360234
0.358677
0.357201
0.355799
0.354468
0.353199
0.351994
0.350841
0.349746
0.348694
0.3477
0.373827
0.371556
0.369405
0.367365
0.36543
0.363594
0.361851
0.360197
0.358626
0.357134
0.355715
0.354367
0.353084
0.351864
0.3507
0.349594
0.348535
0.347531
0.373826
0.371555
0.369401
0.36736
0.365422
0.363583
0.361837
0.360178
0.3586
0.357101
0.355674
0.354317
0.353024
0.351794
0.350621
0.349506
0.34844
0.347427
0.373826
0.371553
0.369398
0.367355
0.365416
0.363575
0.361826
0.360164
0.358584
0.357081
0.355651
0.354289
0.352993
0.351758
0.35058
0.349459
0.348388
0.347369
0.373826
0.371552
0.369396
0.367351
0.36541
0.363568
0.361817
0.360154
0.358572
0.357067
0.355634
0.354271
0.352972
0.351734
0.350554
0.34943
0.348357
0.347334
0.373825
0.371551
0.369394
0.367348
0.365406
0.363562
0.36181
0.360145
0.358562
0.357055
0.355621
0.354256
0.352956
0.351717
0.350535
0.349409
0.348334
0.34731
0.373825
0.371551
0.369393
0.367346
0.365403
0.363558
0.361805
0.360139
0.358555
0.357047
0.355612
0.354246
0.352944
0.351704
0.350521
0.349394
0.348318
0.347292
0.373825
0.37155
0.369393
0.367346
0.365402
0.363557
0.361804
0.360137
0.358552
0.357044
0.355608
0.354241
0.352939
0.351697
0.350514
0.349386
0.348309
0.347282
0.373825
0.371551
0.369393
0.367347
0.365404
0.363559
0.361806
0.36014
0.358555
0.357047
0.355612
0.354245
0.352942
0.351701
0.350518
0.349389
0.348313
0.347286
0.373825
0.371551
0.369395
0.367349
0.365407
0.363563
0.361811
0.360146
0.358562
0.357056
0.355622
0.354256
0.352955
0.351716
0.350535
0.349408
0.348334
0.347308
0.373826
0.371553
0.369397
0.367352
0.365412
0.363571
0.361822
0.360162
0.358584
0.357083
0.355657
0.354299
0.353007
0.351776
0.350603
0.349484
0.348418
0.347399
0.373826
0.371554
0.369399
0.36736
0.365429
0.363603
0.361875
0.36024
0.358691
0.357221
0.355824
0.354494
0.353228
0.352019
0.350867
0.349764
0.348712
0.347701
0.373828
0.371551
0.369412
0.367417
0.365556
0.36382
0.36219
0.360651
0.359189
0.357794
0.356457
0.355172
0.353936
0.352746
0.351601
0.350496
0.349437
0.348411
0.373823
0.371554
0.369605
0.367893
0.366339
0.364892
0.363495
0.362122
0.360761
0.359414
0.358081
0.35677
0.355489
0.354238
0.35303
0.351856
0.350735
0.349646
0.373788
0.371991
0.371113
0.370266
0.36936
0.368312
0.367048
0.36563
0.364121
0.362576
0.361031
0.359523
0.358074
0.356683
0.355382
0.354142
0.35301
0.351924
0.374355
0.375572
0.377775
0.377858
0.377288
0.375886
0.373836
0.371641
0.369505
0.367482
0.365664
0.364084
0.36271
0.361535
0.360609
0.359818
0.359289
0.3588
0.379125
0.394296
0.398249
0.396573
0.392538
0.387603
0.383646
0.380448
0.378268
0.376852
0.376496
0.37674
0.377414
0.378688
0.380438
0.382419
0.384823
0.387133
0.408394
0.42754
0.422415
0.411056
0.402226
0.397923
0.398625
0.400961
0.406067
0.413051
0.420994
0.429822
0.438827
0.448181
0.457295
0.466538
0.475307
0.484165
0.36605
0.353416
0.341988
0.33021
0.318982
0.308381
0.299411
0.291671
0.285404
0.280333
0.276681
0.273866
0.27231
0.271172
0.271208
0.271469
0.272185
0.273384
0.00247512
0.0109109
0.0188502
0.0264004
0.0341771
0.0421913
0.0504395
0.0588423
0.0672654
0.075564
0.0836038
0.0912756
0.0984864
0.105159
0.111219
0.116616
0.121331
0.125414
0.128375
0.131122
0.134795
0.138282
0.141611
0.147406
0.15137
0.154227
0.155952
0.156146
0.155476
0.151601
0.14672
0.143118
0.138021
0.143826
0.155341
0.161161
0.169521
0.177227
0.185408
0.193658
0.202101
0.210697
0.219452
0.228368
0.237442
0.246679
0.256075
0.265637
0.27536
0.285252
0.295305
0.305528
0.315911
0.326463
0.337173
0.348049
0.35908
0.370272
0.381612
0.393106
0.40474
0.416519
0.428427
0.440469
0.452627
0.464906
0.477285
0.489767
0.502333
0.514985
0.527699
0.540478
0.553298
0.566161
0.579039
0.591934
0.604817
0.61769
0.630524
0.643318
0.656044
0.668698
0.681252
0.693703
0.706018
0.718194
0.730197
0.742022
0.753633
0.765021
0.776147
0.786993
0.797549
0.807857
0.817887
0.827577
0.836988
0.846093
0.85489
0.863374
0.871533
0.879364
0.88686
0.894016
0.900828
0.907295
0.913415
0.919188
0.924615
0.929699
0.934443
0.938853
0.942934
0.946695
0.950142
0.953289
0.956141
0.958719
0.961035
0.963114
0.96496
0.966586
0.967987
0.96919
0.970194
0.971041
0.971723
0.972286
0.972712
0.973056
0.973297
0.973503
0.973655
0.973827
0.973939
0.97399
0.973982
0.973295
0.974015
0.973877
0.973652
0.973399
0.973061
0.972682
0.9715
0.970688
0.969201
0.96711
0.964513
0.961483
0.957868
0.953536
0.948452
0.942498
0.935658
0.927705
0.918796
0.90934
0.89784
0.888974
0.884829
0.880477
0.875231
0.86903
0.861924
0.853944
0.845251
0.835716
0.82545
0.814579
0.803226
0.791591
0.779528
0.767128
0.754239
0.740892
0.727416
0.711373
0.698386
0.654844
0.00935302
0.0285717
0.0408668
0.0504772
0.0592355
0.0678724
0.076622
0.0855043
0.0944357
0.1033
0.111982
0.120388
0.128444
0.136092
0.143288
0.150009
0.156272
0.162154
0.167821
0.173664
0.18014
0.187546
0.19569
0.203507
0.210426
0.21695
0.223282
0.229512
0.236153
0.244109
0.256073
0.265812
0.275819
0.289757
0.30293
0.315581
0.328976
0.342674
0.356706
0.371037
0.385675
0.400616
0.41586
0.431408
0.447263
0.463429
0.479907
0.496705
0.513823
0.531266
0.549038
0.567141
0.585577
0.604349
0.623457
0.642902
0.662684
0.682802
0.703254
0.724037
0.745148
0.766583
0.788336
0.810401
0.832768
0.855433
0.878381
0.901605
0.925091
0.948827
0.972797
0.996988
1.02138
1.04596
1.0707
1.09558
1.12059
1.14569
1.17087
1.1961
1.22134
1.24658
1.27179
1.29692
1.32196
1.34686
1.37159
1.39611
1.42039
1.44438
1.46802
1.49127
1.51403
1.53622
1.55784
1.57901
1.5997
1.6199
1.63959
1.65875
1.67735
1.69538
1.71282
1.72966
1.74588
1.76147
1.77643
1.79074
1.80441
1.81743
1.82981
1.84155
1.85267
1.86316
1.87305
1.88236
1.89109
1.89929
1.90698
1.91418
1.92094
1.92726
1.93318
1.93872
1.94392
1.94882
1.95346
1.95788
1.96213
1.96623
1.97025
1.97422
1.97822
1.98236
1.98659
1.99087
1.99521
1.99956
2.00421
2.00875
2.01325
2.01779
2.02231
2.02666
2.0306
2.03425
2.03717
2.0391
2.04001
2.04004
2.0392
2.03699
2.03323
2.02777
2.02045
2.01114
1.99964
1.98614
1.97057
1.95277
1.93336
1.91177
1.88797
1.86212
1.83444
1.80511
1.77439
1.74233
1.70886
1.67452
1.63959
1.6043
1.56857
1.5326
1.49661
1.46083
1.4253
1.38913
1.35904
1.29136
0.017953
0.0453211
0.0607397
0.0724395
0.082817
0.0927163
0.102493
0.112275
0.122069
0.131829
0.141491
0.151001
0.160318
0.169421
0.178305
0.186994
0.195546
0.204084
0.212799
0.221939
0.231706
0.242134
0.252979
0.263968
0.275025
0.286307
0.297917
0.310006
0.3228
0.336776
0.351698
0.366662
0.38217
0.398477
0.415121
0.432004
0.44928
0.466943
0.484988
0.503408
0.522203
0.541373
0.560919
0.580843
0.601147
0.621836
0.642913
0.664381
0.686244
0.708505
0.731167
0.754233
0.777704
0.801581
0.825864
0.850554
0.875649
0.901148
0.927047
0.953342
0.980029
1.0071
1.03455
1.06238
1.09056
1.1191
1.14798
1.17718
1.20669
1.23651
1.2666
1.29696
1.32756
1.35838
1.38939
1.42059
1.45193
1.48339
1.51495
1.54657
1.57822
1.60987
1.64149
1.67303
1.70446
1.73574
1.76682
1.79767
1.82825
1.8585
1.88838
1.91784
1.94684
1.97533
2.00332
2.03076
2.05762
2.08388
2.1095
2.13445
2.1587
2.18222
2.20498
2.22697
2.24817
2.26855
2.2881
2.30682
2.3247
2.34172
2.3579
2.37323
2.38772
2.40139
2.41424
2.42629
2.43757
2.44811
2.45793
2.46708
2.47558
2.48346
2.49076
2.49752
2.50378
2.50959
2.515
2.52005
2.5248
2.52929
2.53359
2.53775
2.54181
2.54583
2.54983
2.55381
2.5578
2.56182
2.56593
2.56994
2.57381
2.57761
2.58133
2.58473
2.58762
2.58987
2.59115
2.59145
2.59084
2.58904
2.58582
2.58091
2.57407
2.56509
2.55376
2.53993
2.52341
2.50425
2.4827
2.4586
2.43205
2.40294
2.37132
2.33737
2.30132
2.26341
2.22388
2.18296
2.14082
2.09778
2.05413
2.01015
1.96574
1.92105
1.87652
1.83245
1.78905
1.74615
1.70784
1.64727
0.0268407
0.0606725
0.0790684
0.0926914
0.104483
0.115491
0.126191
0.1368
0.147403
0.158018
0.16863
0.179216
0.189764
0.200272
0.210756
0.221251
0.231821
0.242566
0.253611
0.265094
0.277119
0.28971
0.302799
0.316285
0.330146
0.34444
0.35924
0.374628
0.390689
0.407492
0.42494
0.442877
0.461316
0.480249
0.499598
0.51932
0.539437
0.559963
0.580903
0.60226
0.624036
0.646235
0.66886
0.691914
0.715403
0.73933
0.763699
0.788515
0.813782
0.839503
0.865683
0.892325
0.919429
0.946999
0.975034
1.00354
1.0325
1.06193
1.09182
1.12217
1.15297
1.18421
1.2159
1.24802
1.28055
1.3135
1.34685
1.38058
1.41468
1.44913
1.48392
1.51903
1.55442
1.59009
1.62601
1.66214
1.69846
1.73495
1.77156
1.80827
1.84505
1.88184
1.91862
1.95534
1.99197
2.02845
2.06474
2.1008
2.13658
2.17204
2.20711
2.24175
2.27593
2.30958
2.34267
2.37516
2.40699
2.43813
2.46853
2.49816
2.52697
2.55493
2.582
2.60815
2.63337
2.65761
2.68087
2.70312
2.72436
2.74456
2.76374
2.78189
2.799
2.81509
2.83017
2.84426
2.85737
2.86954
2.88078
2.89115
2.90067
2.90937
2.91731
2.92451
2.93103
2.93691
2.94222
2.947
2.95132
2.95521
2.95876
2.96202
2.96502
2.96784
2.9705
2.97303
2.97548
2.97789
2.98026
2.9825
2.98445
2.98618
2.98784
2.9891
2.98959
2.98928
2.98822
2.98621
2.98305
2.97852
2.97238
2.96436
2.95421
2.94171
2.92664
2.90884
2.8882
2.86472
2.83855
2.80963
2.77799
2.74361
2.70658
2.6671
2.6254
2.58174
2.53638
2.48958
2.4416
2.39275
2.34329
2.29352
2.24358
2.19366
2.14411
2.09525
2.0474
2.0007
1.95736
1.90136
0.0354108
0.0747899
0.0959516
0.111419
0.124577
0.136652
0.148227
0.159603
0.170934
0.182294
0.193715
0.20521
0.216787
0.22846
0.240254
0.252205
0.264367
0.276811
0.289621
0.302881
0.316657
0.330977
0.345832
0.361203
0.377084
0.393495
0.410468
0.428037
0.446227
0.465049
0.484473
0.504449
0.524939
0.545916
0.567349
0.589219
0.611527
0.634281
0.657487
0.68115
0.705277
0.729872
0.754941
0.780489
0.806521
0.833044
0.860062
0.887581
0.915607
0.944145
0.973198
1.00277
1.03287
1.06349
1.09464
1.12632
1.15853
1.19126
1.22452
1.25831
1.29261
1.32743
1.36275
1.39858
1.43489
1.47168
1.50894
1.54664
1.58479
1.62335
1.66232
1.70166
1.74135
1.78138
1.82171
1.86232
1.90318
1.94424
1.98548
2.02687
2.06835
2.1099
2.15146
2.193
2.23446
2.27581
2.31698
2.35793
2.3986
2.43895
2.47891
2.51844
2.55747
2.59595
2.63382
2.67102
2.70751
2.74322
2.77812
2.81213
2.84523
2.87736
2.90847
2.93854
2.96752
2.99538
3.0221
3.04764
3.072
3.09515
3.11708
3.13779
3.15727
3.17552
3.19256
3.20838
3.22302
3.23649
3.24882
3.26004
3.2702
3.27932
3.28744
3.29462
3.3009
3.30634
3.31098
3.3149
3.31814
3.32076
3.32285
3.32446
3.32561
3.32642
3.32691
3.32715
3.32718
3.32703
3.3268
3.32639
3.32548
3.32417
3.32275
3.32089
3.31837
3.31514
3.31108
3.30602
3.29975
3.29206
3.2827
3.2714
3.25793
3.24205
3.22357
3.20232
3.17821
3.1512
3.12137
3.08869
3.05315
3.01479
2.97372
2.93013
2.88425
2.83634
2.78667
2.73554
2.68324
2.63005
2.57629
2.52225
2.46815
2.41426
2.3609
2.30845
2.25729
2.20788
2.1613
2.1073
0.0434154
0.0874854
0.111141
0.128325
0.14278
0.155876
0.168286
0.180377
0.192359
0.204355
0.21644
0.228656
0.241037
0.253611
0.26641
0.279472
0.292841
0.306569
0.320714
0.335332
0.350469
0.366155
0.382406
0.399225
0.416615
0.434584
0.453143
0.472304
0.492073
0.512446
0.533407
0.554931
0.576993
0.599572
0.622653
0.646224
0.670284
0.694837
0.719887
0.745442
0.771505
0.798086
0.825189
0.852822
0.880992
0.909706
0.938972
0.968796
0.999186
1.03015
1.06169
1.09381
1.12652
1.15982
1.19372
1.22821
1.26331
1.299
1.33529
1.37218
1.40967
1.44774
1.4864
1.52563
1.56543
1.60578
1.64668
1.6881
1.73004
1.77247
1.81537
1.85873
1.90251
1.9467
1.99125
2.03615
2.08135
2.12683
2.17254
2.21844
2.2645
2.31066
2.35689
2.40312
2.44931
2.49541
2.54136
2.58711
2.63259
2.67774
2.72251
2.76683
2.81063
2.85384
2.89641
2.93825
2.97932
3.01954
3.05885
3.09719
3.13451
3.17075
3.20585
3.23977
3.27246
3.30388
3.33398
3.36275
3.39015
3.41615
3.44074
3.4639
3.48563
3.50591
3.52476
3.54216
3.55814
3.57271
3.5859
3.59773
3.60824
3.61747
3.62546
3.63226
3.63791
3.64247
3.64601
3.64856
3.6502
3.65099
3.65106
3.6504
3.64897
3.6471
3.64473
3.64195
3.6388
3.63531
3.63157
3.62751
3.62303
3.6182
3.61306
3.60747
3.60129
3.59443
3.58677
3.57814
3.56835
3.55717
3.54437
3.52971
3.51295
3.49388
3.47229
3.44804
3.42099
3.39111
3.35838
3.32277
3.28429
3.24296
3.1989
3.15228
3.10333
3.05231
2.99948
2.94515
2.88962
2.83319
2.77619
2.71892
2.66167
2.60473
2.54846
2.49326
2.43954
2.38786
2.33868
2.28495
0.0506453
0.0986007
0.12443
0.143147
0.158785
0.172829
0.186018
0.19877
0.211339
0.223887
0.23652
0.249314
0.26232
0.275584
0.289146
0.303044
0.31732
0.332015
0.347173
0.362832
0.379028
0.395787
0.413128
0.43106
0.449591
0.468725
0.488466
0.508816
0.529776
0.55134
0.573498
0.596237
0.619541
0.6434
0.667804
0.692748
0.718231
0.744256
0.770827
0.797951
0.825635
0.853887
0.882714
0.912126
0.942131
0.972739
1.00396
1.0358
1.06826
1.10137
1.13512
1.16952
1.20458
1.24031
1.2767
1.31377
1.35152
1.38995
1.42906
1.46885
1.50931
1.55045
1.59225
1.63472
1.67784
1.7216
1.76598
1.81099
1.85658
1.90276
1.94948
1.99675
2.04451
2.09276
2.14145
2.19055
2.24003
2.28985
2.33996
2.39033
2.4409
2.49163
2.54247
2.59335
2.64424
2.69506
2.74575
2.79626
2.84651
2.89645
2.94599
2.99507
3.04362
3.09154
3.13877
3.18524
3.23087
3.27558
3.3193
3.36196
3.4035
3.44384
3.48292
3.52067
3.55705
3.59201
3.62548
3.65744
3.68784
3.71666
3.74385
3.76941
3.79331
3.81554
3.83609
3.85496
3.87215
3.88768
3.90155
3.9138
3.92446
3.93357
3.94116
3.94729
3.95201
3.95535
3.9574
3.95819
3.95777
3.95618
3.95364
3.95013
3.94576
3.94063
3.93482
3.92839
3.92141
3.91395
3.90606
3.89777
3.88905
3.87995
3.87046
3.86054
3.85009
3.83904
3.82726
3.81462
3.80092
3.78598
3.76958
3.7515
3.73152
3.70943
3.68503
3.65815
3.62865
3.59644
3.56147
3.52369
3.48307
3.43964
3.3935
3.3448
3.29374
3.24056
3.18555
3.12899
3.07118
3.01243
2.95308
2.89345
2.83387
2.77465
2.71618
2.65887
2.60316
2.5496
2.4983
2.44404
0.0569543
0.108042
0.135699
0.155731
0.172404
0.187297
0.201195
0.214551
0.227651
0.240685
0.253788
0.267056
0.28056
0.294359
0.308501
0.323029
0.337982
0.353398
0.36931
0.38575
0.402744
0.420316
0.43848
0.457249
0.47663
0.496628
0.517245
0.538482
0.560339
0.58281
0.605892
0.629578
0.65386
0.678734
0.704195
0.730244
0.75688
0.784108
0.811934
0.840366
0.869411
0.899079
0.92938
0.960325
0.991924
1.02419
1.05713
1.09076
1.12508
1.16012
1.19587
1.23235
1.26957
1.30754
1.34625
1.38573
1.42597
1.46697
1.50875
1.55129
1.59461
1.63868
1.68352
1.72911
1.77545
1.82252
1.87031
1.9188
1.96798
2.01783
2.06832
2.11942
2.17112
2.22337
2.27615
2.32941
2.38313
2.43725
2.49172
2.54652
2.60157
2.65683
2.71225
2.76776
2.8233
2.8788
2.93421
2.98945
3.04444
3.09912
3.1534
3.20721
3.26045
3.31305
3.36492
3.41598
3.46614
3.51531
3.56341
3.61037
3.65609
3.7005
3.74353
3.7851
3.82514
3.8636
3.90041
3.93553
3.96889
4.00047
4.03023
4.05812
4.08413
4.10824
4.13041
4.15065
4.16894
4.1853
4.19972
4.21224
4.22288
4.23167
4.23867
4.2439
4.24743
4.24926
4.24946
4.24807
4.24523
4.24101
4.2355
4.22877
4.22093
4.21208
4.20231
4.1917
4.18036
4.16835
4.15578
4.14269
4.12913
4.11513
4.10074
4.08593
4.07068
4.05492
4.03856
4.0215
4.00359
3.98466
3.96452
3.94299
3.91985
3.8949
3.86794
3.83877
3.80724
3.77322
3.7366
3.69731
3.6553
3.61057
3.56318
3.51325
3.46097
3.40655
3.35025
3.29234
3.23312
3.17291
3.11203
3.05082
2.98963
2.92881
2.86875
2.80988
2.75265
2.69757
2.64453
2.58946
0.0622544
0.115786
0.144922
0.16604
0.183587
0.199213
0.213736
0.227633
0.241209
0.254675
0.268185
0.28185
0.295758
0.309976
0.324561
0.339558
0.355007
0.370945
0.387402
0.404403
0.421973
0.440129
0.458886
0.478256
0.498246
0.518862
0.540108
0.561987
0.584498
0.607642
0.631418
0.655824
0.680858
0.706521
0.732813
0.759739
0.787301
0.815507
0.844364
0.873882
0.904072
0.934944
0.966511
0.998786
1.03178
1.06551
1.09999
1.13523
1.17124
1.20804
1.24563
1.28405
1.32328
1.36334
1.40425
1.44601
1.48863
1.5321
1.57644
1.62165
1.66773
1.71466
1.76246
1.81111
1.8606
1.91093
1.96207
2.01401
2.06673
2.12021
2.17442
2.22933
2.28492
2.34115
2.39798
2.45537
2.51328
2.57166
2.63047
2.68964
2.74913
2.80888
2.86882
2.9289
2.98903
3.04916
3.10921
3.1691
3.22876
3.2881
3.34703
3.40548
3.46335
3.52053
3.57695
3.63251
3.68711
3.74066
3.79306
3.84422
3.89404
3.94245
3.98935
4.03465
4.07829
4.12017
4.16024
4.19844
4.23469
4.26896
4.30119
4.33135
4.35938
4.38527
4.40898
4.43049
4.44978
4.46686
4.48172
4.49437
4.50484
4.51317
4.51939
4.52355
4.52563
4.52571
4.52383
4.5201
4.51459
4.5074
4.49861
4.48833
4.47664
4.46368
4.44953
4.43433
4.41816
4.40116
4.38342
4.36505
4.34613
4.32673
4.30692
4.28673
4.26618
4.24526
4.22392
4.20208
4.17966
4.15652
4.13252
4.10748
4.08122
4.05354
4.02422
3.99307
3.95988
3.9245
3.88678
3.8466
3.80388
3.75859
3.71073
3.6604
3.60773
3.55292
3.49619
3.43779
3.37801
3.31714
3.25551
3.19347
3.13137
3.06959
3.00853
2.94862
2.89031
2.83405
2.77964
2.72373
0.0665105
0.121873
0.15216
0.174138
0.192394
0.208631
0.223685
0.238048
0.25204
0.265884
0.279743
0.29374
0.307973
0.322517
0.337432
0.352768
0.368568
0.384866
0.401692
0.419072
0.437026
0.45557
0.474721
0.494488
0.514883
0.535911
0.55758
0.579895
0.602858
0.626475
0.650747
0.675677
0.701269
0.727528
0.754458
0.782067
0.810364
0.839357
0.869059
0.899481
0.930636
0.962539
0.995204
1.02865
1.06288
1.09793
1.1338
1.17051
1.20808
1.24652
1.28585
1.32608
1.36723
1.40931
1.45233
1.49629
1.54121
1.5871
1.63395
1.68177
1.73056
1.78032
1.83105
1.88272
1.93534
1.9889
2.04337
2.09873
2.15497
2.21206
2.26997
2.32867
2.38812
2.44829
2.50914
2.57062
2.63268
2.69527
2.75834
2.82183
2.88569
2.94983
3.01421
3.07875
3.14337
3.208
3.27257
3.33698
3.40115
3.465
3.52844
3.59137
3.65368
3.71529
3.77609
3.83597
3.89484
3.95258
4.00911
4.0643
4.11807
4.17031
4.22092
4.2698
4.31687
4.36204
4.40523
4.44636
4.48537
4.52219
4.55677
4.58906
4.619
4.64655
4.67168
4.69434
4.71452
4.7322
4.74737
4.76003
4.77021
4.77793
4.78324
4.78612
4.78663
4.7848
4.7807
4.77442
4.76604
4.75565
4.74335
4.72924
4.71344
4.69607
4.67724
4.6571
4.63577
4.6134
4.59011
4.56606
4.54135
4.51611
4.49044
4.46445
4.43819
4.4117
4.38501
4.35809
4.33089
4.30334
4.27533
4.24672
4.21735
4.18701
4.15551
4.12261
4.08809
4.05176
4.01343
3.97294
3.93015
3.88498
3.8374
3.78744
3.73521
3.68085
3.62453
3.56648
3.50695
3.44623
3.38463
3.32249
3.26017
3.19806
3.13657
3.07614
3.01719
2.96013
2.90471
2.84813
0.0697356
0.126393
0.15753
0.18016
0.198966
0.215685
0.231169
0.245917
0.260256
0.274414
0.28856
0.302825
0.31731
0.332094
0.347244
0.36281
0.378837
0.39536
0.412411
0.430014
0.448191
0.466958
0.486332
0.506326
0.526952
0.548219
0.570138
0.592716
0.615962
0.639882
0.664485
0.689776
0.715764
0.742457
0.769866
0.798003
0.826879
0.85651
0.886909
0.918093
0.950077
0.98288
1.01652
1.05101
1.08638
1.12264
1.15981
1.19791
1.23696
1.27698
1.31798
1.35998
1.403
1.44705
1.49214
1.53829
1.5855
1.63378
1.68314
1.73357
1.78508
1.83767
1.89132
1.94603
2.00179
2.05858
2.11638
2.17517
2.23493
2.29562
2.35721
2.41967
2.48296
2.54704
2.61185
2.67736
2.7435
2.81022
2.87746
2.94515
3.01324
3.08165
3.15031
3.21914
3.28807
3.35701
3.42588
3.49459
3.56305
3.63117
3.69885
3.76599
3.83249
3.89824
3.96313
4.02706
4.08991
4.15157
4.21193
4.27089
4.32832
4.38411
4.43817
4.49037
4.54063
4.58884
4.63491
4.67876
4.72031
4.75949
4.79622
4.83045
4.86212
4.89117
4.91755
4.94122
4.96213
4.98027
4.9956
5.00814
5.01789
5.02487
5.02912
5.03063
5.02945
5.02558
5.01912
5.01014
4.99874
4.98499
4.96901
4.9509
4.93079
4.90879
4.88507
4.85975
4.833
4.80497
4.77585
4.74579
4.71497
4.68355
4.6517
4.61955
4.58723
4.55486
4.52251
4.49022
4.45801
4.42584
4.39368
4.3614
4.32889
4.29596
4.26239
4.22795
4.19239
4.15548
4.11699
4.0767
4.03443
3.99004
3.94345
3.89463
3.84363
3.79052
3.73545
3.67859
3.62015
3.56038
3.49959
3.43809
3.37625
3.31446
3.25313
3.1927
3.13356
3.07612
3.0201
2.96312
0.0719682
0.12947
0.161191
0.184282
0.203485
0.220562
0.23637
0.251414
0.26602
0.28042
0.294786
0.309248
0.32391
0.338855
0.354152
0.369852
0.386002
0.402639
0.419793
0.437491
0.455757
0.474609
0.494067
0.514145
0.53486
0.556225
0.578253
0.600957
0.624348
0.64844
0.673243
0.698769
0.72503
0.752038
0.779808
0.808357
0.837705
0.867869
0.898868
0.930724
0.963456
0.997085
1.03163
1.06712
1.10357
1.14101
1.17945
1.21892
1.25944
1.30103
1.34371
1.38749
1.4324
1.47846
1.52566
1.57403
1.62358
1.67431
1.72622
1.77933
1.83361
1.88908
1.94571
2.00351
2.06245
2.12251
2.18367
2.24591
2.30919
2.37348
2.43875
2.50494
2.57202
2.63994
2.70864
2.77808
2.84818
2.91889
2.99014
3.06187
3.13399
3.20645
3.27915
3.35202
3.42497
3.49792
3.57078
3.64346
3.71585
3.78787
3.85942
3.93038
4.00066
4.07014
4.13871
4.20626
4.27267
4.33783
4.40161
4.4639
4.52459
4.58354
4.64065
4.6958
4.74888
4.79978
4.8484
4.89464
4.93842
4.97965
5.01825
5.05416
5.08731
5.11762
5.14503
5.16949
5.19094
5.20935
5.22469
5.23693
5.2461
5.2522
5.25527
5.25531
5.25232
5.24629
5.23735
5.22557
5.21102
5.19381
5.17403
5.1518
5.12725
5.10051
5.07173
5.04108
5.00874
4.97489
4.93973
4.90347
4.86632
4.82849
4.79019
4.75164
4.71302
4.67451
4.63626
4.59837
4.56094
4.52399
4.48753
4.45151
4.41583
4.38033
4.3448
4.30899
4.27264
4.23548
4.19724
4.15764
4.11646
4.07348
4.02855
3.98161
3.9326
3.88157
3.82857
3.77374
3.71722
3.65923
3.60004
3.53995
3.47931
3.4185
3.35794
3.29805
3.23924
3.18186
3.12566
3.06864
0.0733337
0.131289
0.16333
0.186704
0.206161
0.223472
0.239498
0.254741
0.269529
0.284092
0.298601
0.313188
0.327956
0.342988
0.35835
0.374098
0.390277
0.406927
0.424082
0.441769
0.460016
0.478844
0.498277
0.518333
0.539032
0.560391
0.58243
0.605166
0.628614
0.652792
0.677716
0.703401
0.729862
0.757116
0.785183
0.814089
0.843859
0.874518
0.90609
0.9386
0.972071
1.00653
1.042
1.07851
1.11608
1.15474
1.19451
1.23542
1.27749
1.32075
1.3652
1.41088
1.4578
1.50598
1.55542
1.60615
1.65816
1.71147
1.76607
1.82196
1.87914
1.9376
1.99732
2.05829
2.12049
2.18389
2.24847
2.31418
2.381
2.44889
2.51779
2.58766
2.65845
2.73011
2.80256
2.87576
2.94964
3.02412
3.09914
3.17462
3.25048
3.32664
3.40302
3.47954
3.55611
3.63263
3.70902
3.78517
3.861
3.9364
4.01127
4.08551
4.159
4.23163
4.3033
4.37389
4.44327
4.51134
4.57796
4.64302
4.70639
4.76796
4.82758
4.88515
4.94055
4.99365
5.04435
5.09254
5.13812
5.181
5.2211
5.25833
5.29262
5.32387
5.35203
5.37701
5.39875
5.41719
5.4323
5.44406
5.45246
5.45752
5.45925
5.45772
5.45276
5.44447
5.43295
5.41827
5.4005
5.37975
5.3561
5.32968
5.30062
5.26906
5.23517
5.19912
5.16112
5.12136
5.08008
5.03751
4.99391
4.94955
4.90468
4.85958
4.8145
4.76968
4.72537
4.68173
4.63893
4.59706
4.55621
4.51638
4.47752
4.43949
4.4021
4.3651
4.3282
4.29111
4.25351
4.21508
4.17552
4.13455
4.09196
4.04759
4.00136
3.9532
3.90311
3.85115
3.79741
3.74203
3.68525
3.62735
3.56865
3.50952
3.45037
3.39162
3.33366
3.27683
3.22093
3.16429
0.0737434
0.131831
0.164067
0.187601
0.207195
0.224631
0.240773
0.256123
0.271006
0.285651
0.300225
0.314858
0.329652
0.34469
0.360039
0.375756
0.391887
0.408473
0.42555
0.44315
0.461304
0.480038
0.499378
0.519349
0.539975
0.56128
0.583287
0.606019
0.629497
0.653743
0.678776
0.704617
0.731285
0.758799
0.787169
0.816455
0.84669
0.877901
0.910118
0.94337
0.977684
1.01309
1.04962
1.08729
1.12614
1.1662
1.2075
1.25005
1.29389
1.33903
1.38549
1.4333
1.48247
1.53301
1.58494
1.63826
1.69298
1.74909
1.8066
1.86549
1.92576
1.98738
2.05035
2.11462
2.18019
2.247
2.31504
2.38425
2.45459
2.52601
2.59846
2.67189
2.74622
2.82141
2.89739
2.97407
3.0514
3.1293
3.20769
3.28649
3.36562
3.44499
3.52452
3.60412
3.6837
3.76317
3.84243
3.92139
3.99994
4.078
4.15546
4.23222
4.30816
4.38318
4.45717
4.53001
4.60159
4.67179
4.74048
4.80755
4.87288
4.93632
4.99776
5.05707
5.11413
5.1688
5.22098
5.27054
5.31739
5.36141
5.40251
5.44061
5.4756
5.50741
5.53593
5.56108
5.58278
5.60096
5.61558
5.62659
5.634
5.63781
5.63804
5.63476
5.62769
5.61703
5.60284
5.58518
5.56413
5.53977
5.51222
5.48158
5.44801
5.41163
5.37262
5.33118
5.28751
5.24185
5.19446
5.14559
5.09553
5.04463
4.99316
4.94147
4.88989
4.83871
4.78807
4.73835
4.68983
4.64274
4.59722
4.55339
4.51125
4.47071
4.4316
4.39366
4.3566
4.32007
4.28372
4.24713
4.20995
4.17183
4.13248
4.09158
4.04889
4.00439
3.95805
3.90982
3.85971
3.80779
3.75426
3.69935
3.64336
3.58664
3.52958
3.47259
3.41605
3.36032
3.30523
3.24944
0.0735756
0.131544
0.163738
0.187262
0.206858
0.224298
0.240445
0.255796
0.270675
0.285308
0.299863
0.314467
0.329222
0.344208
0.359493
0.375134
0.391178
0.407669
0.424644
0.442138
0.460187
0.478821
0.498069
0.517962
0.538528
0.559797
0.581797
0.604557
0.628105
0.65247
0.677677
0.703753
0.730726
0.758629
0.787452
0.817289
0.848174
0.880146
0.913242
0.947493
0.982929
1.01958
1.05748
1.09665
1.13714
1.17897
1.22217
1.26677
1.31278
1.36022
1.40912
1.45948
1.51131
1.56463
1.61944
1.67573
1.73352
1.79277
1.8535
1.91567
1.97927
2.04428
2.11065
2.17837
2.24738
2.31765
2.38913
2.46177
2.53552
2.61031
2.68609
2.7628
2.84036
2.9187
2.99776
3.07745
3.15771
3.23844
3.31958
3.40103
3.48271
3.56454
3.64643
3.72829
3.81003
3.89156
3.97279
4.05362
4.13395
4.2137
4.29277
4.37105
4.44844
4.52484
4.60015
4.67424
4.74702
4.81837
4.88816
4.9563
5.02263
5.08705
5.14943
5.20963
5.26753
5.32301
5.37592
5.42615
5.47358
5.51811
5.55962
5.59803
5.63321
5.66508
5.69352
5.71842
5.73969
5.75724
5.77101
5.78097
5.78711
5.7894
5.78805
5.78274
5.77343
5.76027
5.7433
5.72258
5.69819
5.6702
5.63873
5.60389
5.56582
5.52467
5.4806
5.43383
5.38458
5.33311
5.2797
5.22463
5.16807
5.11045
5.05218
4.99365
4.93529
4.87751
4.8208
4.76555
4.7119
4.66012
4.61045
4.56305
4.51799
4.47524
4.43466
4.396
4.35898
4.32322
4.2883
4.25377
4.21918
4.18413
4.14831
4.11145
4.07329
4.03355
3.99207
3.94859
3.90299
3.8554
3.80596
3.75488
3.7024
3.64883
3.59456
3.53999
3.48549
3.43143
3.37769
3.32327
0.0729016
0.130531
0.162504
0.185899
0.205382
0.222717
0.238763
0.254016
0.268799
0.283335
0.29779
0.312289
0.326933
0.341801
0.356962
0.372473
0.388384
0.40474
0.421585
0.438958
0.4569
0.475448
0.494641
0.514517
0.535115
0.556468
0.578615
0.601596
0.625457
0.650245
0.675962
0.702641
0.730316
0.759016
0.788742
0.819603
0.851652
0.884931
0.919475
0.955319
0.992497
1.03104
1.07099
1.11236
1.1552
1.19954
1.24542
1.29283
1.34179
1.39231
1.44439
1.49804
1.55326
1.61005
1.66839
1.72827
1.78968
1.8526
1.91699
1.98284
2.0501
2.11873
2.18869
2.25995
2.33244
2.40611
2.4809
2.55676
2.63363
2.71143
2.79009
2.86956
2.94975
3.03059
3.11201
3.19392
3.27626
3.35892
3.44185
3.52495
3.60814
3.69133
3.77445
3.85741
3.94011
4.02249
4.10444
4.18588
4.26673
4.34688
4.42627
4.50478
4.58234
4.65884
4.73418
4.80827
4.881
4.95226
5.02196
5.08997
5.15617
5.22045
5.28268
5.34273
5.40049
5.4558
5.50854
5.55858
5.60579
5.65005
5.69126
5.72929
5.76403
5.79536
5.82315
5.84728
5.86761
5.88407
5.89656
5.90507
5.90956
5.91005
5.90679
5.89916
5.88739
5.87152
5.85159
5.82766
5.7998
5.76809
5.73263
5.69351
5.65077
5.60465
5.55534
5.50305
5.44803
5.39055
5.33092
5.26948
5.2068
5.14312
5.07877
5.0142
4.94989
4.88633
4.82408
4.76323
4.70431
4.64773
4.59381
4.5428
4.49486
4.45003
4.40819
4.36915
4.3326
4.29816
4.26533
4.23358
4.20238
4.17125
4.13983
4.10789
4.07459
4.03994
4.00372
3.9657
3.9257
3.88356
3.83931
3.79292
3.74474
3.6951
3.64436
3.59289
3.54106
3.48926
3.43742
3.38489
0.0716486
0.128649
0.160177
0.183272
0.202509
0.219626
0.235476
0.250551
0.265172
0.27956
0.293879
0.308253
0.322781
0.337547
0.35262
0.368063
0.38393
0.400273
0.417143
0.434588
0.452652
0.471384
0.490831
0.511048
0.5321
0.554001
0.576793
0.600527
0.625243
0.650957
0.677687
0.70552
0.734522
0.764757
0.796282
0.829145
0.863393
0.899068
0.936205
0.974837
1.01499
1.0567
1.09998
1.14485
1.19134
1.23946
1.28921
1.3406
1.39361
1.44825
1.50449
1.56232
1.62173
1.68268
1.74516
1.80912
1.87454
1.94138
2.00959
2.07912
2.14993
2.22197
2.29518
2.36951
2.44489
2.52127
2.59859
2.67677
2.75576
2.83547
2.91586
2.99683
3.07833
3.16028
3.2426
3.32523
3.40809
3.49109
3.57418
3.65726
3.74027
3.82313
3.90575
3.98808
4.07002
4.1515
4.23245
4.31279
4.39243
4.47131
4.54933
4.62644
4.70253
4.77753
4.85134
4.92387
4.99504
5.06476
5.13293
5.19943
5.26417
5.32701
5.38784