/*--------------------------------*- C++ -*----------------------------------*\
  =========                 |
  \\      /  F ield         | OpenFOAM: The Open Source CFD Toolbox
   \\    /   O peration     | Website:  https://openfoam.org
    \\  /    A nd           | Version:  8
     \\/     M anipulation  |
\*---------------------------------------------------------------------------*/
FoamFile
{
    version     2.0;
    format      ascii;
    class       volScalarField;
    location    "180";
    object      nut;
}
// * * * * * * * * * * * * * * * * * * * * * * * * * * * * * * * * * * * * * //

dimensions      [0 2 -1 0 0 0 0];

internalField   nonuniform List<scalar> 
12225
(
4.14924e-05
3.93411e-05
3.74824e-05
3.54337e-05
3.37829e-05
3.24224e-05
3.15076e-05
3.09121e-05
3.09184e-05
3.10919e-05
3.15774e-05
3.20893e-05
3.31774e-05
3.37846e-05
3.5156e-05
3.56699e-05
3.75778e-05
3.97599e-05
0.000332225
0.000215166
0.000179275
0.00015767
0.000146214
0.0001382
0.000132713
0.00013169
0.000129471
0.000130101
0.000129014
0.00012947
0.000128637
0.00012858
0.000128073
0.000127411
0.000127504
0.000126341
0.000668699
0.000450635
0.000355764
0.000309822
0.000275284
0.000251092
0.000231699
0.000217277
0.000202633
0.000192149
0.000182575
0.000175214
0.000169336
0.000163663
0.000160265
0.000155504
0.000153792
0.000149703
0.000801672
0.000691649
0.000572563
0.000500052
0.000449375
0.00041199
0.000380753
0.000356015
0.000333969
0.000314782
0.000298332
0.000281614
0.000270296
0.000256021
0.000248158
0.000236041
0.00023044
0.000220249
0.000839621
0.000810181
0.000740709
0.000676414
0.000623921
0.000581393
0.000545844
0.000514565
0.000489488
0.000464423
0.000445833
0.000424034
0.000409894
0.000390746
0.000379828
0.000362928
0.00035467
0.000339194
0.000850344
0.000843275
0.000819554
0.000786529
0.000750764
0.00071589
0.000685741
0.000656131
0.000632529
0.000607504
0.000588974
0.000567215
0.000552243
0.000533039
0.000520728
0.000503556
0.000493563
0.000477152
0.000851579
0.000851018
0.000843299
0.000833478
0.000817107
0.000796953
0.000777863
0.000756732
0.00073889
0.000719133
0.000703516
0.000685594
0.000672092
0.000655874
0.000644264
0.000629381
0.000619765
0.000604859
0.000851581
0.000851815
0.000850038
0.000847462
0.0008414
0.000833749
0.000824821
0.00081343
0.000802806
0.000790462
0.000779704
0.000767521
0.000757405
0.000745747
0.000736514
0.000725405
0.000717423
0.000705785
0.000851673
0.00085153
0.000851015
0.000850343
0.000848875
0.00084617
0.000843026
0.000838303
0.0008334
0.000827356
0.000821211
0.000814759
0.000808418
0.000801484
0.000795271
0.000788288
0.000782483
0.000774883
0.000851754
0.000851386
0.000851043
0.000850633
0.000850247
0.000849368
0.000848404
0.00084678
0.000844955
0.000842528
0.00083992
0.000836794
0.000833789
0.00083014
0.000826962
0.000822898
0.000819903
0.000815257
0.000851784
0.000851358
0.000851012
0.000850613
0.000850329
0.000849905
0.000849525
0.000848928
0.000848302
0.000847392
0.000846464
0.000845174
0.000843987
0.000842346
0.00084099
0.000839023
0.000837631
0.000835348
0.000851788
0.000851359
0.000850996
0.000850605
0.000850292
0.000849938
0.000849646
0.00084928
0.000848955
0.000848504
0.000848098
0.000847506
0.000846996
0.000846241
0.000845638
0.000844717
0.000844053
0.00084297
0.000851786
0.000851363
0.000850986
0.000850604
0.000850269
0.000849926
0.00084963
0.000849313
0.000849042
0.000848728
0.000848461
0.000848125
0.000847843
0.000847464
0.000847155
0.000846724
0.000846385
0.0008459
0.000851783
0.000851364
0.000850978
0.000850602
0.000850256
0.000849916
0.000849607
0.0008493
0.000849022
0.00084874
0.000848488
0.000848224
0.000847988
0.000847734
0.000847507
0.000847257
0.000847033
0.000846783
0.000851781
0.000851364
0.000850973
0.000850598
0.000850246
0.000849909
0.000849592
0.000849286
0.000849
0.000848723
0.000848463
0.000848211
0.000847975
0.000847745
0.000847528
0.000847316
0.000847115
0.00084692
0.00085178
0.000851363
0.000850969
0.000850594
0.000850239
0.000849901
0.00084958
0.000849275
0.000848984
0.000848707
0.000848443
0.000848191
0.000847951
0.000847721
0.000847503
0.000847293
0.000847093
0.000846902
0.000851779
0.000851362
0.000850967
0.000850591
0.000850234
0.000849895
0.000849572
0.000849265
0.000848973
0.000848694
0.000848429
0.000848175
0.000847933
0.000847702
0.000847481
0.00084727
0.000847068
0.000846875
0.000851779
0.000851362
0.000850965
0.000850589
0.000850231
0.00084989
0.000849567
0.000849259
0.000848965
0.000848685
0.000848418
0.000848164
0.00084792
0.000847688
0.000847465
0.000847253
0.00084705
0.000846855
0.000851779
0.000851362
0.000850965
0.000850588
0.00085023
0.000849889
0.000849565
0.000849256
0.000848962
0.000848682
0.000848414
0.000848158
0.000847914
0.000847681
0.000847457
0.000847244
0.00084704
0.000846844
0.000851779
0.000851362
0.000850966
0.000850589
0.000850231
0.000849891
0.000849568
0.000849259
0.000848965
0.000848685
0.000848417
0.000848162
0.000847917
0.000847684
0.00084746
0.000847247
0.000847041
0.000846845
0.000851779
0.000851363
0.000850967
0.000850592
0.000850235
0.000849897
0.000849573
0.000849267
0.000848973
0.000848694
0.000848424
0.000848169
0.00084792
0.000847684
0.000847452
0.000847232
0.000847013
0.000846807
0.000851778
0.000851366
0.000850968
0.000850599
0.00085024
0.000849907
0.00084958
0.000849274
0.000848965
0.000848672
0.000848365
0.000848072
0.000847757
0.000847456
0.000847123
0.000846812
0.000846458
0.000846137
0.000851773
0.000851376
0.000850971
0.000850615
0.000850241
0.00084989
0.000849479
0.000849054
0.00084853
0.000847979
0.000847301
0.000846605
0.000845767
0.00084494
0.000843955
0.00084303
0.000841919
0.000840941
0.000851767
0.000851415
0.000850964
0.000850548
0.000849861
0.000848967
0.00084761
0.000845976
0.000843905
0.000841637
0.000838956
0.000836215
0.000833118
0.000830115
0.000826765
0.000823682
0.000820186
0.00081718
0.000851859
0.00085138
0.000850195
0.000848243
0.00084447
0.000839354
0.000832766
0.000825659
0.000817963
0.000810012
0.00080162
0.00079363
0.000785334
0.000777709
0.000769747
0.000762704
0.000755127
0.000748799
0.000852108
0.000847667
0.000839902
0.000827146
0.000808708
0.000789646
0.000769976
0.000751414
0.000733307
0.000716897
0.000700937
0.000686783
0.000672834
0.000660675
0.000648383
0.000637946
0.00062696
0.000618027
0.000843241
0.000822507
0.000775185
0.000726459
0.000684896
0.000649852
0.000618463
0.000592021
0.000568384
0.000548314
0.000529692
0.000513995
0.000498756
0.000486022
0.000473208
0.000462715
0.00045163
0.000442813
0.000795685
0.000668242
0.000570626
0.000509905
0.000465606
0.000431184
0.000404147
0.000382483
0.000364202
0.000349072
0.000335944
0.000325065
0.000314511
0.00030624
0.000297965
0.000291373
0.000284287
0.000278938
0.000501314
0.000348357
0.000292674
0.000259181
0.000236323
0.000221177
0.000211621
0.000203855
0.000198565
0.000195076
0.000192222
0.000190369
0.000188583
0.000187439
0.000186167
0.000185472
0.000184556
0.000184143
7.27385e-05
7.02256e-05
6.79542e-05
6.56138e-05
6.33828e-05
6.12762e-05
5.94944e-05
5.79552e-05
5.67108e-05
5.57031e-05
5.49774e-05
5.44178e-05
5.41093e-05
5.38809e-05
5.38967e-05
5.39321e-05
5.40907e-05
5.43231e-05
7.54006e-07
1.52456e-05
2.6385e-05
3.69648e-05
4.78572e-05
5.91083e-05
7.07184e-05
8.2617e-05
9.46033e-05
0.000106495
0.000118054
0.000129108
0.000139445
0.000148928
0.000157435
0.000165026
0.000171916
0.000178623
0.000184141
0.000191642
0.000204448
0.000220583
0.000236826
0.000249678
0.000253543
0.000254412
0.000253033
0.00024793
0.000241512
0.000230378
0.000227592
0.00019924
4.25419e-05
4.64345e-05
4.85352e-05
4.92913e-05
5.06404e-05
5.17227e-05
5.2906e-05
5.40439e-05
5.51923e-05
5.63315e-05
5.74679e-05
5.86e-05
5.9728e-05
6.08527e-05
6.19737e-05
6.30917e-05
6.42065e-05
6.53185e-05
6.64277e-05
6.75342e-05
6.86378e-05
6.97387e-05
7.08367e-05
7.19317e-05
7.30235e-05
7.4112e-05
7.51967e-05
7.62776e-05
7.73541e-05
7.8426e-05
7.94929e-05
8.05544e-05
8.16099e-05
8.2659e-05
8.37011e-05
8.47358e-05
8.57625e-05
8.67805e-05
8.77893e-05
8.87883e-05
8.97768e-05
9.07541e-05
9.17195e-05
9.26724e-05
9.36119e-05
9.45376e-05
9.54485e-05
9.63439e-05
9.72231e-05
9.80853e-05
9.89297e-05
9.97553e-05
0.000100561
0.000101347
0.00010211
0.000102852
0.000103569
0.00010426
0.000104925
0.000105561
0.000106172
0.000106764
0.000107321
0.000107856
0.000108367
0.000108852
0.000109311
0.000109743
0.000110149
0.000110528
0.000110881
0.000111206
0.000111505
0.000111776
0.000112021
0.000112239
0.000112431
0.000112597
0.000112737
0.000112852
0.000112941
0.000113006
0.000113048
0.000113066
0.000113062
0.000113037
0.000112992
0.000112927
0.000112844
0.000112744
0.000112627
0.000112494
0.000112347
0.000112187
0.000112015
0.000111833
0.000111642
0.000111444
0.000111241
0.000111035
0.000110827
0.00011062
0.000110409
0.000110197
0.000109983
0.000109754
0.000109558
0.00010937
0.000109172
0.000108971
0.00010882
0.000108733
0.000108416
0.000108316
0.000108169
0.000107969
0.000107732
0.000107502
0.000107266
0.000107002
0.000106721
0.000106399
0.000106059
0.000105659
0.000105127
0.000104782
0.000103868
0.000102534
0.000102217
0.000101993
0.000101728
0.000101398
0.00010101
0.000100546
0.000100048
9.94793e-05
9.88482e-05
9.81571e-05
9.73942e-05
9.66149e-05
9.57864e-05
9.49451e-05
9.40373e-05
9.30752e-05
9.20723e-05
9.09266e-05
8.99121e-05
8.68643e-05
2.87434e-06
4.57816e-05
9.44554e-05
0.000128266
0.00015155
0.000169617
0.000185228
0.000199737
0.000213675
0.00022715
0.00024006
0.000252234
0.00026348
0.000273654
0.000282688
0.000290675
0.000297909
0.000304954
0.000312214
0.000319891
0.000328485
0.000337847
0.000346701
0.000352018
0.000353331
0.000351708
0.000347539
0.000339954
0.00032883
0.00031288
0.000306967
0.000283274
0.000263221
0.000277041
0.000283568
0.000290876
0.000298389
0.0003062
0.000314093
0.000322092
0.000330186
0.000338358
0.000346605
0.000354917
0.000363296
0.000371738
0.000380246
0.000388822
0.000397469
0.000406189
0.000414987
0.000423865
0.000432826
0.000441874
0.000451011
0.000460239
0.000469561
0.000478977
0.00048849
0.0004981
0.000507807
0.00051761
0.00052751
0.000537503
0.000547591
0.000557768
0.000568034
0.000578383
0.000588812
0.000599316
0.000609892
0.00062053
0.000631229
0.000641978
0.000652772
0.000663601
0.00067446
0.000685335
0.000696221
0.000707105
0.000717979
0.000728829
0.000739647
0.000750419
0.000761136
0.000771782
0.000782347
0.000792813
0.000803166
0.000813381
0.000823423
0.000833227
0.000842674
0.00085152
0.000859813
0.000867954
0.000875873
0.000883577
0.00089106
0.000898312
0.000905327
0.000912099
0.000918621
0.000924888
0.000930895
0.000936639
0.000942117
0.000947327
0.000952268
0.000956941
0.000961347
0.000965487
0.000969367
0.000972988
0.00097636
0.000979487
0.000982379
0.000985045
0.000987497
0.00098975
0.000991823
0.000993731
0.000995489
0.000997107
0.000998605
0.000999992
0.0010013
0.00100253
0.00100373
0.00100489
0.00100606
0.00100724
0.00100847
0.00100982
0.00101127
0.00101272
0.00101426
0.00101602
0.00101739
0.0010193
0.00102119
0.00102325
0.00102563
0.00102821
0.00103046
0.00103321
0.00103589
0.00103823
0.00104018
0.00104199
0.00104393
0.00104557
0.00104688
0.00104778
0.00104827
0.00104833
0.0010474
0.00104638
0.0010444
0.00103702
0.00102789
0.00101762
0.00100643
0.000994442
0.000981754
0.000968402
0.000954503
0.000940123
0.000925154
0.000909977
0.000894559
0.000879052
0.000863266
0.000847331
0.000831351
0.000815436
0.000798875
0.000782522
0.000766885
0.000711093
5.53627e-06
6.98675e-05
0.000142276
0.000197818
0.00023866
0.000269009
0.00029261
0.000312085
0.000329066
0.000344449
0.000358649
0.000371798
0.00038389
0.000394879
0.000404749
0.00041357
0.000421515
0.000428827
0.000436107
0.000444452
0.000454166
0.000464877
0.00047565
0.000485684
0.000494584
0.000502302
0.000508764
0.000513936
0.000518116
0.000522459
0.000527664
0.000531832
0.000540546
0.000556447
0.000571951
0.000587734
0.000603624
0.000619696
0.000635863
0.00065216
0.00066858
0.000685118
0.000701773
0.000718543
0.00073543
0.000752437
0.00076957
0.000786832
0.000804231
0.000821773
0.000839463
0.000857307
0.000875309
0.000893473
0.000911803
0.000930301
0.00094897
0.00096781
0.000986821
0.001006
0.00102536
0.00104488
0.00106456
0.0010844
0.0011044
0.00112455
0.00114484
0.00116527
0.00118582
0.00120649
0.00122726
0.00124813
0.00126908
0.0012901
0.00131118
0.00133229
0.00135343
0.00137458
0.00139572
0.00141682
0.00143788
0.00145887
0.00147977
0.00150056
0.00152122
0.0015417
0.001562
0.00158208
0.00160189
0.00162139
0.00164053
0.00165921
0.00167736
0.0016949
0.00171196
0.00172863
0.00174487
0.00176069
0.00177605
0.00179094
0.00180534
0.00181924
0.00183263
0.00184549
0.00185781
0.00186958
0.00188081
0.00189147
0.00190157
0.00191111
0.00192009
0.00192851
0.00193638
0.0019437
0.00195048
0.00195674
0.0019625
0.00196776
0.00197256
0.00197692
0.00198087
0.00198443
0.00198765
0.00199054
0.00199313
0.00199546
0.00199756
0.00199947
0.00200122
0.00200286
0.00200443
0.00200596
0.00200746
0.00200898
0.00201055
0.00201221
0.00201409
0.00201612
0.00201804
0.0020203
0.00202258
0.00202518
0.00202817
0.00203112
0.0020343
0.00203782
0.00204062
0.00204311
0.00204553
0.00204766
0.00204945
0.00205068
0.00205123
0.00205096
0.00204979
0.00204763
0.00204404
0.00203937
0.00203318
0.00202218
0.00200812
0.00199192
0.00197401
0.0019546
0.00193385
0.00191185
0.00188875
0.00186474
0.00183992
0.00181451
0.00178866
0.00176292
0.00173661
0.00170968
0.00168264
0.00165548
0.00162742
0.00159885
0.0015694
0.0014917
8.29043e-06
8.8266e-05
0.000178642
0.000250111
0.00030413
0.000344905
0.00037641
0.000401659
0.000422771
0.000441136
0.000457597
0.000472629
0.000486487
0.000499316
0.000511245
0.000522452
0.00053321
0.000543916
0.000555087
0.000567249
0.000580681
0.000595341
0.000610953
0.000627062
0.000643334
0.000659591
0.000675779
0.000691984
0.000708494
0.00072577
0.000742624
0.000760541
0.000780416
0.000802174
0.000824234
0.00084657
0.000869107
0.000891898
0.00091487
0.000937989
0.000961247
0.000984647
0.00100819
0.00103188
0.00105573
0.00107973
0.0011039
0.00112825
0.00115278
0.00117749
0.00120241
0.00122754
0.00125287
0.00127843
0.0013042
0.00133019
0.00135641
0.00138285
0.0014095
0.00143638
0.00146348
0.00149078
0.00151829
0.001546
0.0015739
0.00160198
0.00163024
0.00165865
0.00168721
0.00171591
0.00174472
0.00177364
0.00180265
0.00183172
0.00186084
0.00189
0.00191916
0.00194831
0.00197741
0.00200646
0.00203542
0.00206426
0.00209296
0.00212148
0.0021498
0.00217787
0.00220567
0.00223314
0.00226025
0.00228694
0.00231316
0.00233882
0.00236388
0.00238834
0.00241224
0.0024356
0.0024584
0.00248059
0.00250217
0.00252311
0.00254337
0.00256295
0.00258181
0.00259995
0.00261734
0.00263397
0.00264983
0.00266491
0.0026792
0.0026927
0.00270541
0.00271733
0.00272847
0.00273883
0.00274843
0.00275727
0.00276539
0.0027728
0.00277953
0.00278561
0.00279108
0.00279598
0.00280035
0.00280421
0.0028076
0.00281059
0.00281321
0.0028155
0.0028175
0.00281929
0.00282096
0.00282248
0.00282387
0.00282519
0.00282648
0.00282793
0.00282976
0.00283169
0.00283369
0.00283583
0.00283777
0.00284026
0.00284376
0.00284697
0.00285002
0.00285283
0.00285557
0.00285845
0.00286114
0.00286345
0.00286527
0.0028664
0.00286668
0.00286594
0.00286402
0.00286077
0.00285588
0.00284933
0.00284071
0.00282831
0.0028127
0.0027945
0.00277411
0.00275176
0.0027276
0.00270177
0.00267442
0.00264575
0.00261602
0.00258528
0.00255369
0.00252165
0.00248901
0.00245593
0.002423
0.00238983
0.00235588
0.00232075
0.00228323
0.00220324
1.09486e-05
0.000103706
0.000208989
0.000293735
0.000359362
0.000409611
0.00044867
0.000479841
0.000505587
0.000527659
0.000547251
0.000565152
0.000581872
0.000597758
0.000613078
0.000628087
0.000643076
0.000658384
0.000674386
0.000691423
0.000709707
0.000729243
0.000749857
0.000771357
0.000793531
0.000816219
0.000839339
0.000862905
0.000886994
0.00091166
0.000936842
0.000962416
0.000988783
0.00101588
0.00104345
0.00107125
0.0010992
0.00112728
0.00115546
0.00118379
0.00121228
0.00124093
0.00126975
0.00129875
0.00132794
0.00135731
0.00138689
0.00141667
0.00144665
0.00147685
0.00150729
0.00153797
0.0015689
0.00160008
0.00163152
0.00166321
0.00169515
0.00172734
0.00175978
0.00179247
0.0018254
0.00185856
0.00189194
0.00192554
0.00195934
0.00199334
0.00202752
0.00206186
0.00209635
0.00213098
0.00216572
0.00220056
0.00223548
0.00227045
0.00230546
0.00234047
0.00237548
0.00241044
0.00244533
0.00248014
0.00251481
0.00254934
0.00258367
0.00261779
0.00265164
0.00268521
0.00271844
0.00275129
0.00278372
0.00281569
0.00284713
0.00287803
0.00290833
0.00293803
0.0029671
0.00299554
0.00302332
0.0030504
0.00307675
0.00310235
0.00312716
0.00315115
0.0031743
0.00319658
0.00321798
0.00323847
0.00325803
0.00327666
0.00329434
0.00331106
0.00332682
0.00334162
0.00335546
0.00336835
0.0033803
0.00339132
0.00340144
0.00341068
0.00341906
0.00342663
0.00343342
0.00343947
0.00344482
0.00344952
0.00345361
0.00345714
0.0034602
0.0034628
0.00346494
0.00346679
0.00346855
0.00347001
0.00347117
0.00347222
0.00347303
0.00347405
0.00347593
0.00347765
0.00347962
0.00348179
0.00348363
0.00348578
0.00348864
0.00349161
0.00349457
0.00349755
0.00350044
0.00350334
0.00350606
0.00350842
0.00351029
0.00351146
0.00351177
0.00351102
0.00350902
0.00350557
0.00350043
0.00349339
0.00348409
0.00347165
0.0034562
0.00343807
0.00341754
0.0033948
0.00336999
0.00334326
0.00331474
0.00328464
0.00325344
0.00322089
0.00318718
0.00315259
0.00311718
0.00308111
0.00304473
0.00300794
0.00297072
0.00293274
0.00289195
0.0028178
1.34337e-05
0.000116681
0.000234503
0.000330798
0.000406897
0.000466043
0.000512521
0.00054982
0.000580642
0.000607007
0.000630381
0.000651806
0.000672008
0.000691505
0.000710676
0.00072983
0.000749241
0.000769174
0.000789874
0.00081155
0.000834325
0.000858223
0.000883172
0.000909052
0.000935725
0.000963065
0.000990985
0.00101945
0.00104844
0.00107795
0.00110791
0.0011383
0.00116914
0.00120038
0.00123194
0.00126371
0.00129565
0.00132775
0.00135999
0.00139238
0.00142494
0.00145768
0.00149059
0.00152369
0.00155699
0.0015905
0.00162422
0.00165817
0.00169237
0.00172681
0.00176149
0.00179642
0.0018316
0.00186704
0.00190272
0.00193867
0.00197486
0.00201131
0.002048
0.00208493
0.0021221
0.00215949
0.0021971
0.00223492
0.00227294
0.00231113
0.0023495
0.00238803
0.00242669
0.00246548
0.00250437
0.00254335
0.00258239
0.00262148
0.00266059
0.0026997
0.00273878
0.00277781
0.00281677
0.00285561
0.00289432
0.00293287
0.00297121
0.00300933
0.00304717
0.00308471
0.00312191
0.00315871
0.0031951
0.00323101
0.00326641
0.00330126
0.00333552
0.00336917
0.00340216
0.00343449
0.0034661
0.00349697
0.00352705
0.00355631
0.00358472
0.00361223
0.00363883
0.00366447
0.00368913
0.00371279
0.00373541
0.00375698
0.00377749
0.00379692
0.00381526
0.0038325
0.00384865
0.00386371
0.00387768
0.00389058
0.00390243
0.00391325
0.00392306
0.0039319
0.0039398
0.00394681
0.00395297
0.00395832
0.00396292
0.0039668
0.00397014
0.00397291
0.0039749
0.00397653
0.00397836
0.00397952
0.00398006
0.0039806
0.00398096
0.0039816
0.00398245
0.00398341
0.00398458
0.0039859
0.00398727
0.00398901
0.00399117
0.00399357
0.00399614
0.00399884
0.00400163
0.00400447
0.00400722
0.00400975
0.00401189
0.00401347
0.00401429
0.00401416
0.00401287
0.0040102
0.0040059
0.00399974
0.0039914
0.00398039
0.00396667
0.00395037
0.00393164
0.00391061
0.00388738
0.00386206
0.00383476
0.00380566
0.00377526
0.00374311
0.00370955
0.00367481
0.00363905
0.00360243
0.00356521
0.00352742
0.00348901
0.00344969
0.00340738
0.00334029
1.56797e-05
0.000127408
0.000255695
0.000362213
0.000447664
0.000515252
0.000569016
0.000612566
0.000648758
0.000679794
0.000707334
0.000732605
0.000756502
0.000779672
0.000802586
0.000825596
0.000848973
0.000872933
0.00089765
0.000923249
0.000949802
0.000977322
0.00100577
0.00103507
0.00106514
0.00109587
0.00112721
0.00115908
0.00119146
0.0012243
0.00125756
0.0012912
0.00132519
0.00135947
0.00139401
0.00142875
0.00146367
0.00149875
0.00153398
0.00156937
0.00160493
0.00164065
0.00167656
0.00171265
0.00174893
0.00178542
0.00182213
0.00185905
0.00189621
0.0019336
0.00197123
0.00200911
0.00204722
0.00208558
0.00212419
0.00216305
0.00220215
0.0022415
0.00228108
0.00232089
0.00236094
0.0024012
0.00244167
0.00248234
0.0025232
0.00256424
0.00260544
0.0026468
0.00268828
0.00272989
0.0027716
0.00281339
0.00285524
0.00289714
0.00293907
0.00298099
0.0030229
0.00306475
0.00310654
0.00314822
0.00318978
0.00323119
0.0032724
0.0033134
0.00335414
0.00339459
0.00343471
0.00347447
0.00351383
0.00355273
0.00359115
0.00362905
0.00366637
0.0037031
0.00373919
0.00377459
0.00380929
0.00384322
0.00387635
0.00390864
0.00394004
0.00397052
0.00400003
0.00402853
0.004056
0.0040824
0.00410769
0.00413185
0.00415485
0.00417668
0.00419732
0.00421675
0.00423497
0.00425197
0.00426776
0.00428234
0.00429574
0.00430795
0.00431902
0.00432897
0.00433782
0.00434563
0.00435243
0.00435825
0.00436318
0.00436717
0.00437063
0.00437348
0.00437534
0.00437653
0.0043774
0.00437777
0.00437772
0.00437743
0.00437696
0.00437652
0.00437617
0.00437593
0.00437585
0.00437595
0.00437627
0.00437692
0.00437797
0.00437935
0.00438105
0.00438303
0.00438526
0.0043877
0.00439023
0.00439274
0.00439508
0.00439709
0.00439859
0.00439937
0.00439921
0.00439791
0.0043952
0.00439084
0.00438455
0.00437601
0.0043651
0.00435182
0.00433621
0.00431833
0.00429823
0.00427598
0.00425164
0.00422534
0.00419732
0.00416753
0.00413614
0.00410333
0.00406926
0.00403412
0.00399812
0.00396137
0.00392388
0.00388536
0.00384371
0.0037835
1.76401e-05
0.000136052
0.000272945
0.000388497
0.000482243
0.000557668
0.000618446
0.0006682
0.000709855
0.00074572
0.00077758
0.000806789
0.00083436
0.00086104
0.000887372
0.000913753
0.000940468
0.000967721
0.000995657
0.00102437
0.0010539
0.00108426
0.00111541
0.00114732
0.00117992
0.00121314
0.00124693
0.00128122
0.00131597
0.00135114
0.00138668
0.00142256
0.00145873
0.00149515
0.00153179
0.00156861
0.00160559
0.00164273
0.00168002
0.00171745
0.00175504
0.00179279
0.0018307
0.00186878
0.00190705
0.0019455
0.00198415
0.00202301
0.00206208
0.00210137
0.00214089
0.00218063
0.00222059
0.00226079
0.00230123
0.00234189
0.00238279
0.00242392
0.00246528
0.00250686
0.00254865
0.00259066
0.00263286
0.00267527
0.00271786
0.00276062
0.00280355
0.00284663
0.00288984
0.00293318
0.00297664
0.00302018
0.0030638
0.00310748
0.00315121
0.00319495
0.00323869
0.00328242
0.00332609
0.0033697
0.00341322
0.00345661
0.00349985
0.00354291
0.00358575
0.00362835
0.00367066
0.00371266
0.0037543
0.00379554
0.00383634
0.00387666
0.00391647
0.00395571
0.00399435
0.00403234
0.00406963
0.00410618
0.00414195
0.00417687
0.00421091
0.00424402
0.00427614
0.00430724
0.00433726
0.00436617
0.00439392
0.00442049
0.00444582
0.0044699
0.00449269
0.00451419
0.00453436
0.0045532
0.00457071
0.00458688
0.00460172
0.00461524
0.00462746
0.0046384
0.0046481
0.00465658
0.00466389
0.00467005
0.00467523
0.00467935
0.00468273
0.00468494
0.00468628
0.00468686
0.00468682
0.00468618
0.00468505
0.00468354
0.00468175
0.00467983
0.00467788
0.00467597
0.00467418
0.00467259
0.00467126
0.00467028
0.00466972
0.00466961
0.00466995
0.00467075
0.00467199
0.00467365
0.00467566
0.00467792
0.00468033
0.00468273
0.00468496
0.00468683
0.00468812
0.0046886
0.00468804
0.00468618
0.00468275
0.0046775
0.00467025
0.00466091
0.00464945
0.00463584
0.00462007
0.00460216
0.00458212
0.00456002
0.00453597
0.00451002
0.00448228
0.00445289
0.00442202
0.00438985
0.00435659
0.00432238
0.00428728
0.00425105
0.00421173
0.00415857
1.92864e-05
0.000142772
0.000286553
0.000409803
0.000510909
0.000593502
0.000660882
0.000716616
0.000763634
0.000804291
0.000840441
0.000873518
0.000904615
0.000934552
0.000963933
0.000993195
0.00102265
0.00105252
0.00108294
0.00111402
0.00114579
0.00117826
0.00121141
0.00124521
0.0012796
0.00131454
0.00134999
0.00138589
0.0014222
0.00145888
0.0014959
0.0015332
0.00157075
0.00160851
0.00164644
0.00168451
0.00172273
0.00176107
0.00179954
0.00183814
0.00187686
0.00191572
0.00195473
0.00199388
0.00203319
0.00207267
0.00211233
0.00215217
0.0021922
0.00223243
0.00227286
0.00231349
0.00235434
0.00239541
0.00243669
0.00247819
0.00251991
0.00256185
0.00260402
0.00264639
0.00268898
0.00273178
0.00277478
0.00281799
0.00286138
0.00290496
0.00294871
0.00299263
0.00303671
0.00308093
0.00312529
0.00316977
0.00321436
0.00325904
0.0033038
0.00334862
0.00339348
0.00343837
0.00348326
0.00352813
0.00357296
0.00361773
0.00366241
0.00370696
0.00375137
0.00379559
0.0038396
0.00388335
0.00392682
0.00396996
0.00401274
0.0040551
0.00409701
0.00413842
0.00417928
0.00421955
0.00425917
0.00429808
0.00433625
0.0043736
0.00441009
0.00444566
0.00448026
0.00451382
0.00454629
0.00457763
0.00460777
0.00463667
0.0046643
0.00469059
0.00471552
0.00473906
0.00476118
0.00478185
0.00480106
0.0048188
0.00483508
0.00484988
0.00486324
0.00487515
0.00488565
0.00489475
0.00490253
0.00490914
0.00491444
0.00491848
0.0049213
0.004923
0.00492365
0.00492334
0.0049222
0.0049203
0.00491775
0.00491466
0.00491116
0.00490738
0.00490344
0.00489946
0.00489553
0.00489177
0.00488828
0.00488517
0.00488254
0.00488045
0.00487896
0.00487812
0.00487795
0.00487846
0.00487962
0.00488138
0.00488367
0.00488637
0.00488934
0.00489239
0.00489533
0.00489792
0.00489992
0.00490108
0.00490113
0.00489981
0.00489692
0.00489228
0.00488579
0.00487736
0.0048669
0.00485435
0.0048397
0.00482291
0.00480404
0.00478312
0.00476021
0.00473545
0.00470897
0.00468095
0.00465158
0.00462105
0.00458945
0.00455657
0.0045207
0.00447443
2.06076e-05
0.00014773
0.000296804
0.000426429
0.000533937
0.000622943
0.000696388
0.000757724
0.000809837
0.000855081
0.000895338
0.000932086
0.000966468
0.000999357
0.0010314
0.00106308
0.00109473
0.00112657
0.00115884
0.00119164
0.00122499
0.0012589
0.00129337
0.00132837
0.00136387
0.00139983
0.00143621
0.00147297
0.00151008
0.00154751
0.00158523
0.00162321
0.00166145
0.00169981
0.00173826
0.00177681
0.00181545
0.00185417
0.00189298
0.00193188
0.00197088
0.00200998
0.00204919
0.00208853
0.00212799
0.0021676
0.00220736
0.00224727
0.00228736
0.00232762
0.00236806
0.0024087
0.00244953
0.00249057
0.00253182
0.00257328
0.00261496
0.00265686
0.00269898
0.00274132
0.00278388
0.00282667
0.00286968
0.00291291
0.00295636
0.00300001
0.00304388
0.00308794
0.00313221
0.00317665
0.00322128
0.00326608
0.00331104
0.00335615
0.00340139
0.00344676
0.00349223
0.0035378
0.00358343
0.00362912
0.00367485
0.00372059
0.00376631
0.00381199
0.00385761
0.00390312
0.00394851
0.00399373
0.00403875
0.00408353
0.00412803
0.0041722
0.004216
0.00425938
0.00430228
0.00434466
0.00438646
0.00442761
0.00446807
0.00450777
0.00454663
0.00458461
0.00462164
0.00465764
0.00469256
0.00472633
0.00475889
0.00479018
0.00482013
0.0048487
0.00487584
0.00490149
0.00492562
0.00494819
0.00496918
0.00498857
0.00500635
0.0050225
0.00503704
0.00504997
0.00506131
0.00507109
0.00507945
0.00508633
0.00509168
0.00509554
0.00509798
0.00509908
0.00509893
0.00509761
0.00509522
0.00509188
0.0050877
0.00508279
0.0050773
0.00507136
0.00506511
0.0050587
0.00505227
0.00504595
0.00503988
0.00503421
0.00502906
0.00502456
0.00502082
0.00501791
0.00501593
0.00501493
0.00501492
0.00501591
0.00501788
0.00502074
0.00502438
0.00502865
0.00503335
0.00503826
0.00504313
0.0050477
0.00505168
0.00505481
0.00505683
0.00505752
0.00505668
0.00505415
0.0050498
0.00504348
0.0050351
0.00502458
0.00501187
0.00499695
0.00497987
0.00496071
0.00493958
0.00491665
0.00489211
0.00486614
0.00483887
0.00481015
0.00477847
0.00473886
2.16078e-05
0.000151103
0.000304001
0.000438706
0.000551624
0.00064621
0.000725071
0.000791494
0.000848286
0.000897764
0.000941808
0.000981908
0.00101923
0.00105469
0.00108901
0.00112268
0.00115603
0.00118925
0.00122271
0.00125651
0.00129072
0.00132536
0.00136044
0.00139594
0.00143184
0.00146812
0.00150474
0.00154168
0.00157891
0.00161639
0.00165411
0.00169206
0.00173026
0.00176845
0.00180665
0.00184488
0.00188313
0.0019214
0.00195969
0.00199803
0.00203642
0.00207488
0.00211342
0.00215204
0.00219077
0.00222961
0.00226858
0.00230769
0.00234695
0.00238638
0.00242598
0.00246577
0.00250575
0.00254595
0.00258635
0.00262699
0.00266785
0.00270896
0.00275031
0.00279191
0.00283377
0.00287589
0.00291827
0.00296092
0.00300383
0.003047
0.00309044
0.00313414
0.00317809
0.0032223
0.00326676
0.00331146
0.0033564
0.00340156
0.00344693
0.00349251
0.00353828
0.00358422
0.00363032
0.00367657
0.00372294
0.00376941
0.00381596
0.00386257
0.0039092
0.00395583
0.00400242
0.00404895
0.00409537
0.00414165
0.00418775
0.00423361
0.00427919
0.00432445
0.00436931
0.00441374
0.00445766
0.00450101
0.00454373
0.00458575
0.004627
0.00466741
0.00470689
0.00474538
0.00478281
0.00481908
0.00485414
0.00488791
0.00492031
0.00495127
0.00498074
0.00500864
0.00503492
0.00505955
0.00508246
0.00510364
0.00512305
0.00514069
0.00515654
0.00517062
0.00518294
0.00519352
0.00520245
0.00520971
0.00521525
0.00521902
0.00522112
0.00522166
0.00522071
0.00521835
0.00521469
0.00520984
0.00520392
0.00519706
0.00518942
0.00518113
0.00517237
0.0051633
0.00515409
0.00514491
0.00513594
0.00512736
0.00511935
0.00511207
0.0051057
0.00510036
0.00509621
0.00509334
0.00509185
0.0050918
0.0050932
0.00509605
0.00510026
0.0051057
0.00511219
0.00511952
0.00512745
0.00513569
0.00514394
0.00515191
0.00515928
0.00516577
0.00517113
0.00517513
0.00517754
0.00517817
0.00517682
0.00517335
0.00516762
0.00515955
0.00514913
0.0051364
0.00512143
0.00510438
0.00508542
0.00506473
0.00504245
0.00501848
0.00499156
0.0049584
2.23e-05
0.000153083
0.000308451
0.000446957
0.000564264
0.000663481
0.00074704
0.000817918
0.000878825
0.000932017
0.000979412
0.00102245
0.00106223
0.00109959
0.00113552
0.00117052
0.00120498
0.00123926
0.00127358
0.00130803
0.00134265
0.0013775
0.0014126
0.00144796
0.00148357
0.00151941
0.00155546
0.00159171
0.00162814
0.00166471
0.00170138
0.00173823
0.00177542
0.00181261
0.00184977
0.00188687
0.0019239
0.00196084
0.00199772
0.00203459
0.00207145
0.00210834
0.00214528
0.00218228
0.00221936
0.00225654
0.00229384
0.00233127
0.00236886
0.00240662
0.00244457
0.00248272
0.0025211
0.00255971
0.00259857
0.0026377
0.00267711
0.00271681
0.00275681
0.00279712
0.00283776
0.00287872
0.00292002
0.00296166
0.00300364
0.00304597
0.00308865
0.00313167
0.00317504
0.00321876