/*--------------------------------*- C++ -*----------------------------------*\
  =========                 |
  \\      /  F ield         | OpenFOAM: The Open Source CFD Toolbox
   \\    /   O peration     | Website:  https://openfoam.org
    \\  /    A nd           | Version:  8
     \\/     M anipulation  |
\*---------------------------------------------------------------------------*/
FoamFile
{
    version     2.0;
    format      ascii;
    class       volScalarField;
    location    "180";
    object      p;
}
// * * * * * * * * * * * * * * * * * * * * * * * * * * * * * * * * * * * * * //

dimensions      [0 2 -2 0 0 0 0];

internalField   nonuniform List<scalar> 
12225
(
-1.07179
-3.26037
-4.36024
-4.68075
-4.86186
-5.03069
-5.16203
-5.25691
-5.3332
-5.40019
-5.45968
-5.51388
-5.56276
-5.60782
-5.64915
-5.68135
-5.72046
-5.67824
-4.23523
-5.00362
-5.16402
-5.07161
-5.05892
-5.12658
-5.20391
-5.26938
-5.32868
-5.38573
-5.43984
-5.4901
-5.53711
-5.58094
-5.62244
-5.65734
-5.69796
-5.71904
-4.63638
-4.62132
-4.74859
-4.82681
-4.92153
-5.04151
-5.1485
-5.23309
-5.30459
-5.36956
-5.4292
-5.48349
-5.53384
-5.58042
-5.6247
-5.66404
-5.70942
-5.74768
-4.51444
-4.4575
-4.69899
-4.85716
-4.95873
-5.06474
-5.1622
-5.24199
-5.31042
-5.37314
-5.43125
-5.4847
-5.5346
-5.58122
-5.62598
-5.66799
-5.71431
-5.76115
-4.5041
-4.52851
-4.75646
-4.89787
-4.98132
-5.07318
-5.16418
-5.24164
-5.30888
-5.37075
-5.42845
-5.48191
-5.53209
-5.57942
-5.62522
-5.66962
-5.71706
-5.76769
-4.56206
-4.61098
-4.78515
-4.90891
-4.99026
-5.07789
-5.16571
-5.24197
-5.30865
-5.37003
-5.42742
-5.48091
-5.53128
-5.57916
-5.6257
-5.67154
-5.71953
-5.77076
-4.6224
-4.66661
-4.80169
-4.91788
-5.00146
-5.08541
-5.16911
-5.24351
-5.30932
-5.37002
-5.42695
-5.4803
-5.53074
-5.57896
-5.62597
-5.67254
-5.72053
-5.77086
-4.67593
-4.71355
-4.82341
-4.93156
-5.0144
-5.09382
-5.17303
-5.24528
-5.31007
-5.37001
-5.42639
-5.47952
-5.52994
-5.57833
-5.62555
-5.67232
-5.71983
-5.7686
-4.72566
-4.75877
-4.84959
-4.94742
-5.02734
-5.10253
-5.1775
-5.2474
-5.31098
-5.37004
-5.42576
-5.47853
-5.52878
-5.57713
-5.62426
-5.6708
-5.71745
-5.76439
-4.77271
-4.80193
-4.87736
-4.96444
-5.0405
-5.11188
-5.1828
-5.2501
-5.31221
-5.37021
-5.42514
-5.47737
-5.52726
-5.57533
-5.6221
-5.66804
-5.71358
-5.75864
-4.81702
-4.84248
-4.90559
-4.98264
-5.05418
-5.12184
-5.1889
-5.25341
-5.31382
-5.37061
-5.42458
-5.47609
-5.52544
-5.57299
-5.61915
-5.66424
-5.7085
-5.75172
-4.85503
-4.87735
-4.93146
-5.00017
-5.06716
-5.1314
-5.19507
-5.25696
-5.31563
-5.37117
-5.42414
-5.47484
-5.52351
-5.5704
-5.61582
-5.65997
-5.70298
-5.7446
-4.89014
-4.90983
-4.95657
-5.01785
-5.08022
-5.14109
-5.20156
-5.26084
-5.31769
-5.37189
-5.42376
-5.47354
-5.5214
-5.5675
-5.61206
-5.65518
-5.69694
-5.73706
-4.92692
-4.94409
-4.98403
-5.03795
-5.09517
-5.15222
-5.20923
-5.26561
-5.32029
-5.37284
-5.42335
-5.47196
-5.51875
-5.56382
-5.60727
-5.64915
-5.68948
-5.72803
-4.96413
-4.97889
-5.01283
-5.05984
-5.11164
-5.16454
-5.21791
-5.27115
-5.32335
-5.37395
-5.42282
-5.46998
-5.51543
-5.5592
-5.6013
-5.64174
-5.68052
-5.71745
-4.9998
-5.01242
-5.04131
-5.0822
-5.12871
-5.17736
-5.22705
-5.27707
-5.32659
-5.37498
-5.42196
-5.46741
-5.51128
-5.55351
-5.59407
-5.63293
-5.67008
-5.70539
-5.03104
-5.0419
-5.06684
-5.10275
-5.1446
-5.18929
-5.23553
-5.28246
-5.3293
-5.37538
-5.42033
-5.46393
-5.50604
-5.54658
-5.58549
-5.6227
-5.65822
-5.69195
-5.05348
-5.06313
-5.08538
-5.11784
-5.15628
-5.19792
-5.24138
-5.28577
-5.33029
-5.37428
-5.4173
-5.45909
-5.49948
-5.53835
-5.57562
-5.61125
-5.6452
-5.67747
-5.06023
-5.06938
-5.09061
-5.12177
-5.15887
-5.19918
-5.24126
-5.28425
-5.32737
-5.36998
-5.41162
-5.45202
-5.49101
-5.52849
-5.56438
-5.59866
-5.6313
-5.66234
-5.04408
-5.05385
-5.07646
-5.10956
-5.14858
-5.19031
-5.2333
-5.27686
-5.32029
-5.36292
-5.40435
-5.44436
-5.48282
-5.51967
-5.55485
-5.58838
-5.62025
-5.65053
-5.01721
-5.02801
-5.0533
-5.09034
-5.13313
-5.17767
-5.22279
-5.26807
-5.31275
-5.35615
-5.39799
-5.43816
-5.47661
-5.5133
-5.54824
-5.58143
-5.61294
-5.64284
-4.98199
-4.99381
-5.02318
-5.06679
-5.11509
-5.1631
-5.21094
-5.2587
-5.30529
-5.34993
-5.39251
-5.43312
-5.4718
-5.50853
-5.54338
-5.57641
-5.6077
-5.63735
-4.94144
-4.95334
-4.98781
-5.0411
-5.09667
-5.14865
-5.19957
-5.25005
-5.2986
-5.34451
-5.38798
-5.42921
-5.46825
-5.50516
-5.54003
-5.57302
-5.60421
-5.63374
-4.89774
-4.90872
-4.95051
-5.01495
-5.07715
-5.13385
-5.1895
-5.24339
-5.29369
-5.34054
-5.3847
-5.42642
-5.46572
-5.5027
-5.53757
-5.57048
-5.60157
-5.63097
-4.85081
-4.85632
-4.919
-4.99722
-5.05919
-5.11746
-5.17863
-5.23701
-5.28957
-5.33765
-5.3827
-5.425
-5.46456
-5.50162
-5.53645
-5.56928
-5.60027
-5.62961
-4.8075
-4.77119
-4.88074
-4.99173
-5.05399
-5.1093
-5.17154
-5.2313
-5.28456
-5.33331
-5.37905
-5.42188
-5.46177
-5.49902
-5.53394
-5.56682
-5.59783
-5.62717
-4.82173
-4.66279
-4.79172
-4.94582
-5.03595
-5.10733
-5.17628
-5.23722
-5.29005
-5.33836
-5.38367
-5.42595
-5.46526
-5.50193
-5.53631
-5.56868
-5.59927
-5.62833
-4.94493
-4.76455
-4.77873
-4.85089
-4.93928
-5.03851
-5.12923
-5.20303
-5.26476
-5.31993
-5.37027
-5.41606
-5.45788
-5.49638
-5.53207
-5.5654
-5.59681
-5.62694
-4.6523
-5.2434
-5.33224
-5.20801
-5.15369
-5.18087
-5.22788
-5.27114
-5.31273
-5.35494
-5.39646
-5.43581
-5.47279
-5.50753
-5.54009
-5.57063
-5.59936
-5.62806
-1.66298
-3.42629
-4.431
-4.73016
-4.87935
-5.02299
-5.13705
-5.21804
-5.28229
-5.33918
-5.39047
-5.43653
-5.47822
-5.51646
-5.55175
-5.58388
-5.61271
-5.63648
-6.5636
-6.56359
-6.56414
-6.56551
-6.56751
-6.57003
-6.57302
-6.57646
-6.58034
-6.58468
-6.58954
-6.59498
-6.60107
-6.60791
-6.61559
-6.62404
-6.63311
-6.64255
-6.65242
-6.66294
-6.67374
-6.68434
-6.6955
-6.70859
-6.7238
-6.74127
-6.76179
-6.78428
-6.80744
-6.82928
-6.84826
-6.86722
-6.88728
-6.90696
-6.9284
-6.95181
-6.97614
-7.00123
-7.02694
-7.05314
-7.07973
-7.10662
-7.13371
-7.16093
-7.1882
-7.21545
-7.24259
-7.26955
-7.29625
-7.32261
-7.34853
-7.37393
-7.39871
-7.42277
-7.44598
-7.46825
-7.48945
-7.50945
-7.52811
-7.54531
-7.56087
-7.57467
-7.58651
-7.59627
-7.60374
-7.60878
-7.61117
-7.61076
-7.60734
-7.60074
-7.59073
-7.57717
-7.55981
-7.53851
-7.51303
-7.48323
-7.44888
-7.40985
-7.36591
-7.31696
-7.26278
-7.20328
-7.13825
-7.06763
-6.99126
-6.90909
-6.82101
-6.727
-6.62694
-6.52085
-6.40879
-6.29076
-6.16678
-6.03685
-5.90089
-5.75889
-5.61096
-5.45728
-5.29804
-5.13339
-4.96341
-4.78822
-4.60797
-4.42285
-4.23299
-4.03856
-3.83969
-3.63653
-3.42922
-3.2179
-3.00267
-2.78369
-2.56101
-2.33477
-2.10503
-1.87187
-1.63528
-1.39528
-1.15184
-0.904994
-0.65474
-0.401029
-0.14366
0.11751
0.382737
0.652144
0.926007
1.20449
1.48792
1.77653
2.07068
2.37065
2.67684
2.98953
3.30913
3.63589
3.97019
4.31224
4.66227
5.02035
5.38657
5.76086
6.14308
6.53291
6.92989
7.33333
7.74241
8.15605
8.57304
8.99191
9.41102
9.82856
10.2426
10.6512
11.0523
11.444
11.8244
12.1921
12.5457
12.8838
13.2052
13.5087
13.7936
14.0594
14.3058
14.5328
14.7407
14.9299
15.101
15.2548
15.3922
15.5145
15.6228
15.7189
15.8047
15.8831
15.9595
16.0413
16.1585
16.3078
-6.56085
-6.56147
-6.56236
-6.56342
-6.56445
-6.56559
-6.56709
-6.5691
-6.57167
-6.57484
-6.57862
-6.58303
-6.58809
-6.59381
-6.60011
-6.60688
-6.61411
-6.62183
-6.63038
-6.63965
-6.64938
-6.66019
-6.67327
-6.68784
-6.70255
-6.71706
-6.73121
-6.74506
-6.75939
-6.77543
-6.79637
-6.82119
-6.84681
-6.87431
-6.9012
-6.92677
-6.95218
-6.97781
-7.00373
-7.02996
-7.05646
-7.08318
-7.11007
-7.13706
-7.16409
-7.19109
-7.21799
-7.24473
-7.27122
-7.29739
-7.32314
-7.3484
-7.37307
-7.39704
-7.42021
-7.44247
-7.4637
-7.48377
-7.50254
-7.51989
-7.53565
-7.54969
-7.56183
-7.57192
-7.57979
-7.58527
-7.58816
-7.5883
-7.58548
-7.57953
-7.57024
-7.55744
-7.5409
-7.52047
-7.49592
-7.4671
-7.43379
-7.39583
-7.35302
-7.30523
-7.25227
-7.19401
-7.13028
-7.06099
-6.98598
-6.90519
-6.81851
-6.72589
-6.62723
-6.52254
-6.41182
-6.29506
-6.17222
-6.04329
-5.90831
-5.7674
-5.62066
-5.46819
-5.3101
-5.1465
-4.97755
-4.80341
-4.62423
-4.44013
-4.25127
-4.05778
-3.85982
-3.65752
-3.45104
-3.2405
-3.02606
-2.8078
-2.58585
-2.36029
-2.13123
-1.89873
-1.66284
-1.42351
-1.1808
-0.934704
-0.685255
-0.432363
-0.175894
0.0843473
0.348523
0.616824
0.889438
1.1666
1.44855
1.73557
2.02797
2.32606
2.63018
2.94067
3.25787
3.5821
3.9137
4.25292
4.59999
4.95502
5.31809
5.68917
6.06818
6.45483
6.84869
7.24912
7.65533
8.0663
8.48085
8.89754
9.31478
9.73078
10.1437
10.5515
10.9522
11.3439
11.7248
12.0931
12.4472
12.7859
13.1082
13.4132
13.7
13.968
14.217
14.4469
14.6579
14.8504
15.025
15.1824
15.3235
15.4496
15.5618
15.6618
15.7517
15.8344
15.9151
15.9994
16.1122
16.2426
-6.55379
-6.55578
-6.55855
-6.5607
-6.56207
-6.56316
-6.56439
-6.566
-6.56809
-6.57076
-6.57403
-6.57792
-6.58246
-6.58765
-6.59344
-6.59978
-6.60663
-6.61405
-6.6222
-6.6312
-6.64116
-6.65244
-6.66539
-6.67979
-6.69502
-6.71072
-6.72655
-6.7424
-6.75835
-6.77507
-6.79371
-6.81434
-6.83629
-6.85971
-6.88396
-6.90848
-6.93331
-6.95845
-6.9839
-7.00964
-7.03561
-7.06179
-7.08812
-7.11456
-7.14104
-7.1675
-7.19388
-7.22012
-7.24613
-7.27185
-7.29719
-7.32206
-7.34638
-7.37004
-7.39294
-7.41497
-7.43601
-7.45594
-7.47462
-7.49192
-7.50769
-7.52179
-7.53405
-7.54432
-7.55242
-7.55819
-7.56143
-7.56199
-7.55965
-7.55425
-7.54557
-7.53344
-7.51766
-7.49804
-7.47438
-7.4465
-7.41421
-7.37733
-7.33567
-7.28907
-7.23737
-7.18042
-7.11807
-7.0502
-6.97667
-6.89738
-6.81225
-6.72118
-6.6241
-6.52099
-6.41183
-6.2966
-6.17528
-6.04789
-5.91447
-5.77514
-5.62999
-5.47913
-5.32264
-5.16063
-4.99321
-4.82054
-4.64278
-4.46005
-4.27254
-4.08036
-3.88369
-3.68265
-3.47742
-3.2681
-3.05485
-2.83777
-2.61699
-2.39259
-2.16471
-1.93337
-1.69865
-1.46053
-1.21908
-0.974285
-0.726203
-0.474717
-0.219743
0.0389314
0.301406
0.567909
0.83857
1.11366
1.39337
1.67801
1.96783
2.26316
2.56431
2.87163
3.18541
3.50599
3.83369
4.16879
4.51152
4.86203
5.2204
5.58665
5.96069
6.34233
6.73114
7.12659
7.52791
7.93418
8.34425
8.75678
9.17024
9.58299
9.99321
10.3991
10.7987
11.1902
11.5718
11.9416
12.2982
12.6401
12.9662
13.2754
13.5668
13.8397
14.0939
14.3292
14.5457
14.7437
14.9239
15.0869
15.2337
15.3652
15.4829
15.5883
15.6836
15.7715
15.8569
15.9435
16.0507
16.1527
-6.54311
-6.54663
-6.55194
-6.556
-6.55858
-6.56043
-6.56207
-6.56379
-6.56581
-6.56824
-6.57118
-6.57468
-6.57875
-6.58343
-6.5887
-6.59458
-6.60105
-6.60819
-6.6161
-6.62488
-6.63467
-6.64565
-6.65794
-6.6715
-6.68614
-6.70171
-6.71805
-6.73506
-6.75267
-6.77096
-6.79017
-6.81036
-6.83144
-6.85345
-6.87629
-6.89975
-6.92374
-6.94818
-6.973
-6.99814
-7.02356
-7.04921
-7.07502
-7.10096
-7.12696
-7.15297
-7.17892
-7.20476
-7.2304
-7.25578
-7.28081
-7.30541
-7.3295
-7.35296
-7.3757
-7.39761
-7.41856
-7.43845
-7.45713
-7.47448
-7.49034
-7.50457
-7.51701
-7.5275
-7.53587
-7.54195
-7.54556
-7.54653
-7.54465
-7.53975
-7.53163
-7.5201
-7.50496
-7.48603
-7.46311
-7.43601
-7.40454
-7.36851
-7.32775
-7.2821
-7.23137
-7.17542
-7.1141
-7.04728
-6.97483
-6.89665
-6.81264
-6.7227
-6.62675
-6.52477
-6.41674
-6.30262
-6.18241
-6.05611
-5.9238
-5.78556
-5.64151
-5.49172
-5.3363
-5.17536
-5.009
-4.83739
-4.66064
-4.47893
-4.2924
-4.10119
-3.90547
-3.70538
-3.50107
-3.29268
-3.08034
-2.86417
-2.64429
-2.42081
-2.19382
-1.96339
-1.72958
-1.49242
-1.25196
-1.00822
-0.761204
-0.510836
-0.257011
0.000428713
0.261598
0.526689
0.795853
1.06933
1.34733
1.63013
1.91798
2.21121
2.5101
2.81499
3.12617
3.44399
3.76873
4.10067
4.44005
4.78702
5.14166
5.50403
5.87405
6.25153
6.63611
7.02729
7.42434
7.82641
8.23237
8.64098
9.0508
9.46029
9.86775
10.2715
10.6696
11.0603
11.4418
11.8124
12.1704
12.5145
12.8432
13.1555
13.4503
13.7271
13.9854
14.225
14.446
14.6487
14.8335
15.0013
15.1527
15.2889
15.4112
15.521
15.6205
15.712
15.8
15.8858
15.9836
16.0596
-6.5316
-6.53671
-6.54473
-6.55094
-6.55503
-6.558
-6.56046
-6.56273
-6.56509
-6.56772
-6.57075
-6.57426
-6.57832
-6.58295
-6.58818
-6.59405
-6.60059
-6.60787
-6.61597
-6.62496
-6.63495
-6.64601
-6.65818
-6.67146
-6.68577
-6.70103
-6.71719
-6.73422
-6.75208
-6.77077
-6.79029
-6.8106
-6.83164
-6.85335
-6.8757
-6.89861
-6.92202
-6.94589
-6.97016
-6.99478
-7.0197
-7.04487
-7.07024
-7.09575
-7.12135
-7.14698
-7.17259
-7.1981
-7.22346
-7.24857
-7.27338
-7.29778
-7.3217
-7.34502
-7.36766
-7.3895
-7.41043
-7.43032
-7.44904
-7.46645
-7.48242
-7.49679
-7.5094
-7.5201
-7.52871
-7.53507
-7.53899
-7.54029
-7.53878
-7.53428
-7.52659
-7.51552
-7.50087
-7.48245
-7.46007
-7.43352
-7.40264
-7.36721
-7.32708
-7.28205
-7.23197
-7.17668
-7.11603
-7.04988
-6.97811
-6.90061
-6.81728
-6.72801
-6.63275
-6.53144
-6.42408
-6.31064
-6.19109
-6.06548
-5.93386
-5.79629
-5.65289
-5.50374
-5.34895
-5.18862
-5.0229
-4.85191
-4.67579
-4.49472
-4.30882
-4.11827
-3.9232
-3.7238
-3.52016
-3.31249
-3.10085
-2.88544
-2.66631
-2.44362
-2.21743
-1.98785
-1.75491
-1.51869
-1.27919
-1.03651
-0.790554
-0.541334
-0.288655
-0.0324862
0.227398
0.491065
0.75879
1.03069
1.30709
1.58815
1.87424
2.16556
2.46251
2.76532
3.07439
3.38998
3.71244
4.04199
4.37887
4.72324
5.07525
5.43491
5.80219
6.17688
6.55869
6.94708
7.34142
7.7408
8.14421
8.5504
8.95805
9.36561
9.77151
10.174
10.5713
10.9617
11.3433
11.7144
12.0735
12.419
12.7496
13.064
13.3614
13.6409
13.9021
14.1448
14.3691
14.5751
14.7634
14.9346
15.0894
15.229
15.3544
15.4673
15.5693
15.6626
15.7507
15.8334
15.9213
15.9758
-6.52157
-6.52814
-6.53849
-6.54667
-6.55228
-6.55649
-6.55995
-6.56301
-6.56599
-6.5691
-6.57252
-6.57636
-6.58072
-6.58564
-6.59118
-6.59739
-6.60429
-6.61196
-6.62045
-6.62982
-6.64013
-6.65144
-6.66376
-6.6771
-6.6914
-6.70663
-6.72274
-6.7397
-6.75748
-6.77606
-6.79543
-6.81553
-6.83631
-6.85772
-6.8797
-6.90221
-6.9252
-6.94864
-6.97248
-6.99668
-7.02119
-7.04597
-7.07096
-7.09613
-7.12141
-7.14675
-7.17209
-7.19737
-7.22251
-7.24745
-7.2721
-7.29639
-7.32021
-7.34348
-7.36608
-7.38792
-7.40888
-7.42882
-7.44762
-7.46515
-7.48126
-7.49579
-7.5086
-7.51951
-7.52836
-7.53498
-7.53918
-7.54078
-7.5396
-7.53543
-7.5281
-7.51739
-7.50312
-7.48509
-7.4631
-7.43696
-7.40647
-7.37146
-7.33173
-7.28711
-7.23744
-7.18254
-7.12228
-7.05652
-6.98512
-6.90797
-6.82498
-6.73605
-6.64111
-6.54011
-6.43306
-6.31991
-6.20066
-6.07535
-5.94403
-5.80676
-5.66364
-5.51477
-5.36024
-5.2002
-5.03476
-4.86407
-4.68828
-4.50754
-4.32202
-4.13186
-3.93724
-3.73829
-3.53518
-3.32804
-3.11701
-2.90222
-2.68379
-2.46182
-2.23643
-2.00768
-1.77564
-1.54039
-1.30197
-1.0604
-0.815665
-0.567689
-0.316365
-0.0615987
0.196763
0.458853
0.724884
0.995036
1.26958
1.54873
1.83281
2.12209
2.41691
2.71756
3.0244
3.33774
3.65791
3.98514
4.31969
4.66173
5.01144
5.36885
5.73395
6.10655
6.48636
6.87286
7.26546
7.66326
8.06529
8.47034
8.8771
9.28405
9.68964
10.0921
10.4898
10.8807
11.2633
11.6356
11.9961
12.3433
12.6758
12.9923
13.2919
13.5737
13.8374
14.0827
14.3096
14.5183
14.7092
14.883
15.0404
15.1824
15.3101
15.4248
15.5283
15.622
15.7087
15.7871
15.866
15.9026
-6.51465
-6.52241
-6.5345
-6.54426
-6.55121
-6.55659
-6.56106
-6.56499
-6.56869
-6.57242
-6.57639
-6.58073
-6.58554
-6.59092
-6.59691
-6.60357
-6.61095
-6.61908
-6.62801
-6.63778
-6.64844
-6.66001
-6.67252
-6.68596
-6.70032
-6.71556
-6.73165
-6.74855
-6.76624
-6.78469
-6.80386
-6.82373
-6.84424
-6.86535
-6.88702
-6.90921
-6.93187
-6.95498
-6.97849
-7.00237
-7.02657
-7.05106
-7.07578
-7.1007
-7.12575
-7.15089
-7.17606
-7.20119
-7.22621
-7.25105
-7.27564
-7.29989
-7.3237
-7.34698
-7.36963
-7.39154
-7.41259
-7.43264
-7.45158
-7.46927
-7.48555
-7.50028
-7.5133
-7.52444
-7.53353
-7.5404
-7.54486
-7.54673
-7.54582
-7.54193
-7.53487
-7.52445
-7.51046
-7.4927
-7.47098
-7.4451
-7.41487
-7.38009
-7.34059
-7.29619
-7.24671
-7.19199
-7.13189
-7.06626
-6.99497
-6.91792
-6.835
-6.74612
-6.65121
-6.55023
-6.44317
-6.33001
-6.21075
-6.08541
-5.95406
-5.81677
-5.67362
-5.52471
-5.37016
-5.2101
-5.04468
-4.87402
-4.69831
-4.51768
-4.33231
-4.14235
-3.94798
-3.74933
-3.54659
-3.33985
-3.12931
-2.91505
-2.69724
-2.47593
-2.25128
-2.02333
-1.79221
-1.55793
-1.32061
-1.0802
-0.836732
-0.590066
-0.3402
-0.0869269
0.169786
0.430196
0.694392
0.962682
1.23521
1.51233
1.79424
2.08135
2.37389
2.67227
2.97675
3.28774
3.60552
3.93038
4.26256
4.60231
4.94977
5.30507
5.66815
6.03891
6.41701
6.80204
7.19334
7.59015
7.99144
8.39609
8.80274
9.20995
9.61608
10.0195
10.4183
10.8107
11.1949
11.5691
11.9316
12.2809
12.6155
12.9343
13.2361
13.5203
13.7863
14.0339
14.2631
14.474
14.6671
14.843
15.0023
15.1461
15.2753
15.3911
15.4951
15.5883
15.6729
15.7464
15.8173
15.8388
-6.51175
-6.5203
-6.53349
-6.54436
-6.55237
-6.55873
-6.5641
-6.56884
-6.57327
-6.57766
-6.58221
-6.58709
-6.59242
-6.59828
-6.60474
-6.61187
-6.61969
-6.62826
-6.63761
-6.64776
-6.65874
-6.67058
-6.68327
-6.69683
-6.71124
-6.72648
-6.74253
-6.75936
-6.77695
-6.79526
-6.81427
-6.83393
-6.85422
-6.8751
-6.89652
-6.91846
-6.94089
-6.96375
-6.98703
-7.01069
-7.03469
-7.05899
-7.08354
-7.10831
-7.13324
-7.15828
-7.18336
-7.20844
-7.23344
-7.25828
-7.28289
-7.30718
-7.33107
-7.35444
-7.37721
-7.39925
-7.42044
-7.44067
-7.45979
-7.47767
-7.49416
-7.5091
-7.52235
-7.53371
-7.54304
-7.55014
-7.55484
-7.55694
-7.55626
-7.55259
-7.54574
-7.53552
-7.52171
-7.50412
-7.48255
-7.4568
-7.42668
-7.39199
-7.35255
-7.30818
-7.25871
-7.20397
-7.14382
-7.07811
-7.00672
-6.92953
-6.84645
-6.75737
-6.66224
-6.56102
-6.45371
-6.34028
-6.22074
-6.09511
-5.96347
-5.82588
-5.68244
-5.53326
-5.37845
-5.21816
-5.05252
-4.88171
-4.70587
-4.52517
-4.33979
-4.14989
-3.95563
-3.75718
-3.55468
-3.34829
-3.13815
-2.92438
-2.70711
-2.48645
-2.26251
-2.03537
-1.80514
-1.57189
-1.33566
-1.09646
-0.854276
-0.609017
-0.360621
-0.108948
0.146108
0.404735
0.667086
0.933414
1.20392
1.47892
1.75867
2.04354
2.33381
2.62987
2.93202
3.24065
3.55605
3.87854
4.2084
4.5459
4.8912
5.24446
5.60564
5.97469
6.35129
6.73508
7.12543
7.5216
7.92258
8.32727
8.73432
9.14229
9.54952
9.95432
10.3548
10.7492
11.1356
11.512
11.8769
12.2287
12.5657
12.8869
13.1911
13.4776
13.7458
13.9956
14.2268
14.4397
14.6346
14.8122
14.973
15.118
15.2481
15.3645
15.4683
15.5604
15.6423
15.7108
15.7745
15.7832
-6.51313
-6.52207
-6.53572
-6.54721
-6.55593
-6.56302
-6.5691
-6.57452
-6.57959
-6.58457
-6.58968
-6.59507
-6.60086
-6.60717
-6.61406
-6.62158
-6.62979
-6.63872
-6.6484
-6.65885
-6.67009
-6.68214
-6.695
-6.70866
-6.72312
-6.73837
-6.75439
-6.77116
-6.78865
-6.80685
-6.82572
-6.84523
-6.86535
-6.88606
-6.90731
-6.92908
-6.95134
-6.97406
-6.9972
-7.02073
-7.04462
-7.06883
-7.09332
-7.11803
-7.14294
-7.16797
-7.19307
-7.21819
-7.24325
-7.26817
-7.29289
-7.3173
-7.34133
-7.36486
-7.3878
-7.41003
-7.43142
-7.45186
-7.47119
-7.4893
-7.50601
-7.52118
-7.53465
-7.54624
-7.55578
-7.56309
-7.56799
-7.57027
-7.56976
-7.56625
-7.55953
-7.54942
-7.5357
-7.51818
-7.49664
-7.4709
-7.44075
-7.406
-7.36646
-7.32196
-7.27232
-7.21738
-7.15699
-7.09101
-7.0193
-6.94177
-6.85831
-6.76883
-6.67326
-6.57159
-6.46381
-6.34988
-6.22983
-6.1037
-5.97155
-5.83345
-5.68952
-5.53986
-5.3846
-5.2239
-5.05789
-4.88677
-4.71066
-4.52978
-4.34427
-4.15433
-3.96011
-3.76179
-3.5595
-3.35342
-3.14365
-2.93037
-2.71365
-2.49366
-2.27044
-2.04416
-1.81487
-1.58269
-1.3476
-1.10969
-0.868831
-0.625068
-0.378196
-0.128204
0.125152
0.381916
0.642388
0.906683
1.17516
1.448
1.72559
2.00819
2.29622
2.58995
2.8898
3.19608
3.50916
3.82932
4.15693
4.49223
4.8355
5.18684
5.54633
5.91387
6.28927
6.67209
7.06184
7.45769
7.85877
8.26387
8.67176
9.08087
9.48964
9.89624
10.2989
10.6955
11.0844
11.4635
11.831
12.1854
12.525
12.8487
13.1553
13.4441
13.7145
13.9662
14.1993
14.4138
14.6103
14.7891
14.9511
15.0969
15.2275
15.3439
15.4471
15.5375
15.6164
15.68
15.7373
15.7352
-6.51857
-6.52752
-6.54108
-6.55271
-6.56179
-6.56933
-6.57589
-6.5818
-6.58736
-6.59281
-6.59836
-6.60417
-6.61035
-6.61702
-6.62424
-6.63208
-6.64057
-6.64976
-6.65968
-6.67034
-6.68176
-6.69396
-6.70692
-6.72066
-6.73516
-6.75041
-6.76641
-6.78313
-6.80056
-6.81867
-6.83745
-6.85686
-6.87688
-6.89748
-6.91863
-6.94032
-6.9625
-6.98515
-7.00824
-7.03174
-7.05562
-7.07983
-7.10434
-7.1291
-7.15406
-7.17918
-7.20439
-7.22962
-7.25482
-7.2799
-7.30479
-7.32939
-7.35362
-7.37736
-7.40052
-7.42297
-7.44459
-7.46526
-7.48483
-7.50316
-7.5201
-7.53549
-7.54916
-7.56095
-7.57067
-7.57815
-7.58319
-7.5856
-7.58518
-7.58174
-7.57508
-7.56498
-7.55124
-7.53366
-7.51204
-7.48617
-7.45585
-7.42089
-7.38111
-7.33632
-7.28635
-7.23104
-7.17023
-7.10379
-7.0316
-6.95354
-6.86951
-6.77943
-6.68324
-6.58093
-6.47248
-6.35787
-6.23713
-6.11031
-5.97747
-5.8387
-5.69411
-5.54382
-5.38798
-5.22673
-5.06024
-4.88868
-4.71223
-4.53107
-4.34539
-4.15535
-3.96115
-3.76293
-3.56086
-3.35508
-3.14574
-2.93295
-2.71684
-2.49753
-2.27512
-2.04974
-1.82148
-1.59042
-1.35658
-1.12
-0.880613
-0.638388
-0.393189
-0.144919
0.106582
0.361438
0.619884
0.882118
1.14845
1.41911
1.69446
1.97478
2.26048
2.55188
2.84937
3.15329
3.46403
3.78191
4.10733
4.44057
4.78193
5.13154
5.48954
5.85582
6.23026
6.61245
7.00189
7.39781
7.79931
8.20523
8.61428
9.02493
9.43556
9.84432
10.2494
10.6486
11.0403
11.4222
11.7926
12.1498
12.4921
12.8184
13.1274
13.4184
13.6908
13.9444
14.1791
14.3952
14.5929
14.7727
14.9355
15.0818
15.2125
15.3285
15.4306
15.519
15.5947
15.6536
15.7052
15.6939
-6.52752
-6.53617
-6.54916
-6.56053
-6.56962
-6.57731
-6.58411
-6.59031
-6.59617
-6.60194
-6.60779
-6.61388
-6.62034
-6.62725
-6.6347
-6.64275
-6.65143
-6.66079
-6.67085
-6.68163
-6.69315
-6.70542
-6.71844
-6.73221
-6.74673
-6.76198
-6.77796
-6.79465
-6.81204
-6.83011
-6.84884
-6.86821
-6.88819
-6.90875
-6.92988
-6.95155
-6.97373
-6.9964
-7.01952
-7.04308
-7.06702
-7.09133
-7.11594
-7.14083
-7.16593
-7.1912
-7.21658
-7.24201
-7.26741
-7.2927
-7.31781
-7.34264
-7.3671
-7.39108
-7.41448
-7.43717
-7.45903
-7.47992
-7.49971
-7.51825
-7.53539
-7.55096
-7.56479
-7.57672
-7.58656
-7.59414
-7.59924
-7.60169
-7.60128
-7.59782
-7.59109
-7.58089
-7.56702
-7.54926
-7.52742
-7.50128
-7.47066
-7.43535
-7.39517
-7.34994
-7.29948
-7.24363
-7.18225
-7.1152
-7.04235
-6.96359
-6.87884
-6.788
-6.69103
-6.58791
-6.47864
-6.3632
-6.24163
-6.11397
-5.98031
-5.84074
-5.69538
-5.54436
-5.38783
-5.22595
-5.0589
-4.88685
-4.71001
-4.52854
-4.34267
-4.15253
-3.95835
-3.76026
-3.55844
-3.35301
-3.14414
-2.93191
-2.71648
-2.49793
-2.27642
-2.05202
-1.82489
-1.59502
-1.36255
-1.12739
-0.889589
-0.648985
-0.405575
-0.159125
0.0903827
0.343228
0.599512
0.859588
1.12362
1.39201
1.66499
1.94297
2.22626
2.51528
2.81036
3.11193
3.42032
3.736
4.05929
4.3906
4.73018
5.07828
5.43495
5.80026
6.17399
6.55586
6.94529
7.34164
7.74389
8.15098
8.56153
8.97407
9.38686
9.7981
10.2058
10.608
11.0025
11.3875
11.7609
12.121
12.4662
12.795
13.1064
13.3996
13.6739
13.9293
14.1655
14.3828
14.5815
14.7621
14.9253
15.0718
15.2023
15.3176
15.4183
15.5045
15.577
15.6312
15.6778
15.6586
-6.53928
-6.54736
-6.55942
-6.57016
-6.57896
-6.58653
-6.59332
-6.59958
-6.60556
-6.61145
-6.61745
-6.62369
-6.63029
-6.63733
-6.64489
-6.65302
-6.66179
-6.67121
-6.68133
-6.69216
-6.70371
-6.716
-6.72903
-6.74281
-6.75732
-6.77256
-6.78853
-6.80522
-6.8226
-6.84066
-6.85939
-6.87876
-6.89875
-6.91934
-6.94051
-6.96224
-6.9845
-7.00726
-7.03049
-7.05417
-7.07826
-7.10272
-7.12751
-7.15258
-7.17788
-7.20336
-7.22896
-7.25462
-7.28025
-7.30578
-7.33113
-7.3562
-7.3809
-7.40512
-7.42874
-7.45164
-7.4737
-7.49479
-7.51475
-7.53344
-7.55071
-7.56639
-7.58031
-7.59229
-7.60216
-7.60973
-7.6148
-7.61717
-7.61665
-7.61304
-7.60612
-7.59569
-7.58155
-7.56348
-7.54127
-7.51473
-7.48366
-7.44785
-7.40713
-7.36131
-7.31022
-7.25369
-7.1916
-7.12378
-7.05014
-6.97055
-6.88493
-6.79321
-6.69533
-6.59129
-6.48107
-6.3647
-6.24218
-6.1136
-5.97904
-5.83859
-5.69239
-5.54058
-5.38332
-5.22078
-5.05314
-4.8806
-4.70335
-4.5216
-4.33554
-4.14537
-3.95124
-3.75335
-3.55184
-3.34684
-3.13849
-2.92692
-2.71223
-2.49456
-2.27402
-2.05072
-1.82479
-1.59628
-1.36525
-1.13169
-0.895582
-0.656804
-0.415273
-0.170849
0.0765694
0.327201
0.581234
0.838965
1.10063
1.36659
1.63712
1.91264
2.19347
2.48003
2.77268
3.07186
3.37796
3.69145
4.01273
4.3422
4.68016
5.02687
5.38245
5.74696
6.12024
6.50202
6.89176
7.28878
7.69211
8.10066
8.51303
8.92772
9.34296
9.7569
10.1675
10.5727
10.9705
11.3586
11.7352
12.0983
12.4462
12.7777
13.0915
13.3867
13.6629
13.9198
14.1574
14.3757
14.5752
14.7564
14.9198
15.0662
15.1962
15.3105
15.4096
15.4936
15.5628
15.6127
15.6546
15.6286
-6.55303
-6.56036
-6.57122
-6.58107
-6.5893
-6.59651
-6.60306
-6.60917
-6.61505
-6.6209
-6.62686
-6.63308
-6.63967
-6.64669
-6.65424
-6.66237
-6.67111
-6.68052
-6.69061
-6.70142
-6.71295
-6.72523
-6.73824
-6.75201
-6.76651
-6.78176
-6.79773
-6.81442
-6.83182
-6.8499
-6.86865
-6.88806
-6.90811
-6.92877
-6.95004
-6.97189
-6.99429
-7.0172
-7.04061
-7.06447
-7.08875
-7.11341
-7.13841
-7.16369
-7.18922
-7.21492
-7.24075
-7.26663
-7.29249
-7.31825
-7.34381
-7.36909
-7.39398
-7.41838
-7.44216
-7.46522
-7.4874
-7.50859
-7.52862
-7.54737
-7.56466
-7.58033
-7.59421
-7.60612
-7.61589
-7.62331
-7.6282
-7.63037
-7.62959
-7.62569
-7.61843
-7.60763
-7.59307
-7.57453
-7.55183
-7.52474
-7.49307
-7.45663
-7.41523
-7.36869
-7.31684
-7.25952
-7.19659
-7.1279
-7.05335
-6.97284
-6.88627
-6.79357
-6.6947
-6.58965
-6.47843
-6.36105
-6.23755
-6.108
-5.97249
-5.83114
-5.68408
-5.53147
-5.37346
-5.21026
-5.04204
-4.86903
-4.69141
-4.50943
-4.32324
-4.13308
-3.9391
-3.7415
-3.54038
-3.33593
-3.12822
-2.91742
-2.70361
-2.48694
-2.2675
-2.04546
-1.82086
-1.59386
-1.36442
-1.13264
-0.898364
-0.661586
-0.422089
-0.179887
0.0652863
0.31352
0.56517
0.820389
1.07958
1.34297
1.61099
1.88393
2.16226
2.4463
2.73652
3.0333
3.33716
3.64852
3.96789
4.29562
4.63212
4.97759
5.33229
5.6962
6.06929
6.45122
6.84155
7.23951
7.64422
8.05447
8.46895
8.88601
9.30394
9.72077
10.1345
10.5429
10.9439
11.3353
11.715
12.0811
12.4319
12.766
13.082
13.3793
13.6572
13.9155
14.1542
14.3734
14.5735
14.755
14.9184
15.0645
15.1938
15.3069
15.4042
15.4857
15.5517
15.5976
15.6353
15.6035
-6.56801
-6.57447
-6.58396
-6.59272
-6.60018
-6.6068
-6.61288
-6.61862
-6.6242
-6.6298
-6.63556
-6.64159
-6.64801
-6.65489
-6.6623
-6.67031
-6.67895
-6.68827
-6.69829
-6.70903
-6.72051
-6.73273
-6.74571
-6.75945
-6.77393
-6.78917
-6.80514
-6.82184
-6.83926
-6.85737
-6.87618
-6.89567
-6.91581
-6.9366
-6.95801
-6.98001
-7.00258
-7.02568
-7.04928
-7.07334
-7.09782
-7.12267
-7.14786
-7.17334
-7.19906
-7.22495
-7.25096
-7.27701
-7.30303
-7.32893
-7.35462
-7.38001
-7.40499
-7.42945
-7.45327
-7.47633
-7.4985
-7.51964
-7.5396
-7.55824
-7.57539
-7.59089
-7.60457
-7.61625
-7.62574
-7.63285
-7.6374
-7.63919
-7.638
-7.63364
-7.6259
-7.61458
-7.59945
-7.58032
-7.55698
-7.52922
-7.49685
-7.45966
-7.41748
-7.37013
-7.31743
-7.25923
-7.19538
-7.12576
-7.05025
-6.96875
-6.88117
-6.78746
-6.68755
-6.58147
-6.46923
-6.35083
-6.22632
-6.09579
-5.95934
-5.81709
-5.66918
-5.51578
-5.35708
-5.19325
-5.02452
-4.85109
-4.6732
-4.49104
-4.30484
-4.1148
-3.9211
-3.7239
-3.52336
-3.31959
-3.11272
-2.90285
-2.6901
-2.4746
-2.25647
-2.03584
-1.81281
-1.58747
-1.35987
-1.13001
-0.897795
-0.663139
-0.425923
-0.186068
0.0566342
0.302368
0.55143
0.804056
1.0606
1.32136
1.58674
1.85708
2.13282
2.41434
2.7021
2.99654
3.29819
3.60753
3.92507
4.25122
4.58637
4.93081
5.28477
5.64832
6.0214
6.40374
6.79487
7.19404
7.60033
8.01253
8.42928
8.84894
9.2697
9.68956
10.1064
10.5181
10.9224
11.3171
11.7
12.0691
12.4227
12.7591
13.0774
13.3765
13.6559
13.9155
14.1552
14.3751
14.5757
14.7572
14.9205
15.066
15.1944
15.3062
15.4017
15.4807
15.5436
15.5856
15.6193
15.5826
-6.58355
-6.58907
-6.59712
-6.60466
-6.61117
-6.61699
-6.62239
-6.62754
-6.63261
-6.63775
-6.64311
-6.64879
-6.65489
-6.6615
-6.66868
-6.67648
-6.68494
-6.6941
-6.70397
-6.71459
-6.72596
-6.7381
-6.75101
-6.76469
-6.77913
-6.79434
-6.8103
-6.82702
-6.84447
-6.86265
-6.88154
-6.90112
-6.92137
-6.94228
-6.96381
-6.98596
-7.00867
-7.03191
-7.05566
-7.07985
-7.10446
-7.12944
-7.15474
-7.18031
-7.20611
-7.23207
-7.25813
-7.28421
-7.31024
-7.33613
-7.36178
-7.3871
-7.41198
-7.43631
-7.45998
-7.48286
-7.50481
-7.52571
-7.5454
-7.56373
-7.58055
-7.59569
-7.60897
-7.62023
-7.62927
-7.63591
-7.63996
-7.6412
-7.63946
-7.6345
-7.62615
-7.61417
-7.59837
-7.57853
-7.55445
-7.52593
-7.49276
-7.45476
-7.41173
-7.3635
-7.3099
-7.25078
-7.18598
-7.1154
-7.03891
-6.9564
-6.86783
-6.77308
-6.67218
-6.56508
-6.45183
-6.33245
-6.20699
-6.07553
-5.93821
-5.79513
-5.64647
-5.49239
-5.33309
-5.16877
-4.99965
-4.82595
-4.64792
-4.46575
-4.27971
-4.08996
-3.89673
-3.70013
-3.50036
-3.29748
-3.09164
-2.8829
-2.67143
-2.45728
-2.24067
-2.02163
-1.80038
-1.5769
-1.35133
-1.12354
-0.893568
-0.661195
-0.426447
-0.189079
0.0509885
0.294114
0.540448
0.790398
1.04419
1.30227
1.56494
1.83267
2.10579
2.3848
2.67012
2.96229
3.26181
3.56925
3.88507
4.20979
4.54376
4.88735
5.24074
5.60413
5.97739
6.36033
6.75241
7.15297
7.56097
7.97528
8.39441
8.81676
9.24039
9.66331
10.0833
10.4983
10.9058
11.3037
11.6897
12.0617
12.4179
12.7567
13.0769
13.3777
13.6586
13.9192
14.1597
14.3802
14.581
14.7625
14.9254
15.0703
15.1976
15.308
15.4015
15.4781
15.5379
15.5764
15.6065
15.5656
-6.59969
-6.60431
-6.61092
-6.61715
-6.62252
-6.62732
-6.63177
-6.63606
-6.64034
-6.64478
-6.64951
-6.65463
-6.66024
-6.6664
-6.67319
-6.68064
-6.6888
-6.69769
-6.70733
-6.71774
-6.72893
-6.74091
-6.75368
-6.76725
-6.7816
-6.79675
-6.81266
-6.82934
-6.84678
-6.86494
-6.88383
-6.90343
-6.92371
-6.94465
-6.96622
-6.98839
-7.01111
-7.03435
-7.05808
-7.08225
-7.10682
-7.13174
-7.15696
-7.18243
-7.2081
-7.23391
-7.25979
-7.28567
-7.31147
-7.33709
-7.36245
-7.38745
-7.41199
-7.43594
-7.4592
-7.48165
-7.50315
-7.52356
-7.54275
-7.56056
-7.57682
-7.5914
-7.60409
-7.61475
-7.62317
-7.62917
-7.63256
-7.63313
-7.63069
-7.62503
-7.61595
-7.60323
-7.58667
-7.56606
-7.54118
-7.51185
-7.47786
-7.439
-7.39512
-7.34601
-7.29153
-7.2315
-7.16581
-7.0943
-7.01687
-6.93343
-6.8439
-6.74824
-6.64639
-6.53839
-6.42424
-6.30399
-6.1777
-6.04546
-5.9074
-5.76366
-5.6144
-5.45982
-5.3001
-5.13547
-4.96615
-4.79239
-4.61442
-4.43249
-4.24681
-4.05761
-3.86506
-3.66932
-3.47053
-3.26879
-3.06419
-2.85684
-2.64684
-2.43432
-2.2194
-2.00222
-1.7829
-1.56152
-1.33813
-1.11266
-0.885061
-0.65521
-0.423042
-0.188377
0.0489773
0.289311
0.532865
0.779994
1.03101
1.28631
1.54628
1.81133
2.08188
2.35839
2.64134
2.93131
3.22881