/*--------------------------------*- C++ -*----------------------------------*\
  =========                 |
  \\      /  F ield         | OpenFOAM: The Open Source CFD Toolbox
   \\    /   O peration     | Website:  https://openfoam.org
    \\  /    A nd           | Version:  8
     \\/     M anipulation  |
\*---------------------------------------------------------------------------*/
FoamFile
{
    version     2.0;
    format      ascii;
    class       surfaceScalarField;
    location    "180";
    object      phi;
}
// * * * * * * * * * * * * * * * * * * * * * * * * * * * * * * * * * * * * * //

dimensions      [0 3 -1 0 0 0 0];

internalField   nonuniform List<scalar> 
24170
(
3.129e-06
5.9401e-08
3.04662e-06
8.23825e-08
2.97352e-06
7.30962e-08
2.90488e-06
6.86396e-08
2.84054e-06
6.43376e-08
2.78319e-06
5.73382e-08
2.73385e-06
4.93381e-08
2.69188e-06
4.19698e-08
2.65618e-06
3.56981e-08
2.6257e-06
3.04778e-08
2.59945e-06
2.62424e-08
2.5766e-06
2.28523e-08
2.55646e-06
2.01352e-08
2.53843e-06
1.80256e-08
2.52213e-06
1.63054e-08
2.50628e-06
1.58449e-08
2.49147e-06
1.48013e-08
2.1601e-08
2.46987e-06
3.45306e-06
2.35862e-08
3.457e-06
7.84407e-08
3.45054e-06
7.95583e-08
3.43908e-06
8.00982e-08
3.42429e-06
7.91197e-08
3.40703e-06
7.45913e-08
3.3878e-06
6.85662e-08
3.36726e-06
6.25081e-08
3.3461e-06
5.68609e-08
3.32489e-06
5.16803e-08
3.30413e-06
4.70016e-08
3.28408e-06
4.2895e-08
3.26495e-06
3.92691e-08
3.24675e-06
3.6216e-08
3.22958e-06
3.34762e-08
3.2134e-06
3.20247e-08
3.19856e-06
2.9637e-08
3.27246e-08
3.18744e-06
3.66816e-06
1.79442e-08
3.6792e-06
6.74008e-08
3.68542e-06
7.33335e-08
3.68945e-06
7.60675e-08
3.69104e-06
7.75269e-08
3.69006e-06
7.55639e-08
3.68692e-06
7.17118e-08
3.68206e-06
6.73611e-08
3.67589e-06
6.30284e-08
3.66873e-06
5.88404e-08
3.66085e-06
5.48766e-08
3.65251e-06
5.12401e-08
3.64387e-06
4.79052e-08
3.6351e-06
4.49824e-08
3.62624e-06
4.23303e-08
3.61774e-06
4.05295e-08
3.60889e-06
3.84835e-08
3.87757e-08
3.60284e-06
3.92585e-06
1.74845e-08
3.93591e-06
5.73321e-08
3.94256e-06
6.66851e-08
3.9481e-06
7.0531e-08
3.9525e-06
7.31181e-08
3.95544e-06
7.26234e-08
3.9571e-06
7.00518e-08
3.95772e-06
6.67403e-08
3.95748e-06
6.32582e-08
3.95655e-06
5.97752e-08
3.95504e-06
5.63835e-08
3.95308e-06
5.31987e-08
3.95075e-06
5.0228e-08
3.94817e-06
4.75669e-08
3.94535e-06
4.51499e-08
3.9426e-06
4.32721e-08
3.93962e-06
4.14638e-08
4.05176e-08
3.93788e-06
4.2082e-06
1.64131e-08
4.21598e-06
4.95494e-08
4.22167e-06
6.09908e-08
4.22677e-06
6.5431e-08
4.23151e-06
6.83766e-08
4.23547e-06
6.86608e-08
4.23863e-06
6.68948e-08
4.24109e-06
6.42778e-08
4.24296e-06
6.13845e-08
4.24433e-06
5.84036e-08
4.24528e-06
5.54349e-08
4.24588e-06
5.25921e-08
4.2462e-06
4.99078e-08
4.24631e-06
4.74556e-08
4.24625e-06
4.5212e-08
4.2462e-06
4.33126e-08
4.24612e-06
4.15448e-08
4.00669e-08
4.24657e-06
4.51071e-06
1.47913e-08
4.51688e-06
4.33785e-08
4.52212e-06
5.57459e-08
4.52693e-06
6.06195e-08
4.53163e-06
6.3671e-08
4.53587e-06
6.44211e-08
4.53953e-06
6.32326e-08
4.54268e-06
6.1131e-08
4.54538e-06
5.86798e-08
4.5477e-06
5.60798e-08
4.54969e-06
5.34409e-08
4.55142e-06
5.08687e-08
4.55291e-06
4.84126e-08
4.55424e-06
4.61264e-08
4.55544e-06
4.40068e-08
4.55665e-06
4.21041e-08
4.55788e-06
4.03074e-08
3.85735e-08
4.55938e-06
4.83433e-06
1.31822e-08
4.83962e-06
3.80834e-08
4.84474e-06
5.06254e-08
4.84944e-06
5.59217e-08
4.85406e-06
5.90455e-08
4.85837e-06
6.01132e-08
4.86223e-06
5.93722e-08
4.86567e-06
5.76807e-08
4.86877e-06
5.55824e-08
4.87156e-06
5.32897e-08
4.87408e-06
5.09199e-08
4.87637e-06
4.85718e-08
4.87848e-06
4.63028e-08
4.88046e-06
4.41533e-08
4.88233e-06
4.21272e-08
4.8842e-06
4.02332e-08
4.88611e-06
3.84014e-08
3.65458e-08
4.88814e-06
5.18105e-06
1.17169e-08
5.18575e-06
3.33797e-08
5.19074e-06
4.56274e-08
5.19539e-06
5.12762e-08
5.19996e-06
5.44673e-08
5.20431e-06
5.57636e-08
5.20829e-06
5.5388e-08
5.21193e-06
5.40445e-08
5.21526e-06
5.22467e-08
5.21833e-06
5.02174e-08
5.22117e-06
4.80789e-08
5.22382e-06
4.59249e-08
5.2263e-06
4.38155e-08
5.22867e-06
4.17839e-08
5.23096e-06
3.98356e-08
5.23323e-06
3.79624e-08
5.23552e-06
3.6114e-08
3.42157e-08
5.23785e-06
5.55269e-06
1.03626e-08
5.55688e-06
2.91862e-08
5.56168e-06
4.0825e-08
5.56628e-06
4.66739e-08
5.57084e-06
4.99109e-08
5.57523e-06
5.13684e-08
5.57932e-06
5.12951e-08
5.58311e-06
5.02581e-08
5.58663e-06
4.87281e-08
5.58991e-06
4.69354e-08
5.59298e-06
4.50045e-08
5.59588e-06
4.30262e-08
5.59863e-06
4.10602e-08
5.60128e-06
3.91368e-08
5.60385e-06
3.72622e-08
5.60639e-06
3.54246e-08
5.60891e-06
3.35866e-08
3.16994e-08
5.61143e-06
5.95104e-06
9.10071e-09
5.95478e-06
2.54415e-08
5.95935e-06
3.62564e-08
5.96389e-06
4.21248e-08
5.96843e-06
4.53715e-08
5.97286e-06
4.69333e-08
5.97705e-06
4.7103e-08
5.98098e-06
4.63352e-08
5.98465e-06
4.50478e-08
5.98812e-06
4.34719e-08
5.99139e-06
4.17335e-08
5.99449e-06
3.99201e-08
5.99746e-06
3.80897e-08
6.00032e-06
3.62725e-08
6.00311e-06
3.44762e-08
6.00584e-06
3.26917e-08
6.00853e-06
3.08933e-08
2.90562e-08
6.01117e-06
6.37798e-06
7.93068e-09
6.38134e-06
2.20812e-08
6.38566e-06
3.19325e-08
6.39014e-06
3.76454e-08
6.39465e-06
4.0855e-08
6.39912e-06
4.24704e-08
6.40339e-06
4.28241e-08
6.40744e-06
4.22861e-08
6.41127e-06
4.12173e-08
6.4149e-06
3.98415e-08
6.41835e-06
3.8284e-08
6.42164e-06
3.66287e-08
6.42479e-06
3.49319e-08
6.42784e-06
3.32242e-08
6.4308e-06
3.15162e-08
6.43368e-06
2.98043e-08
6.4365e-06
2.80731e-08
2.63171e-08
6.43924e-06
5.74176e-06
7.00543e-09
5.74434e-06
1.95001e-08
5.7478e-06
2.84664e-08
5.75152e-06
3.3922e-08
5.75532e-06
3.70582e-08
5.7591e-06
3.8685e-08
5.76277e-06
3.91493e-08
5.76629e-06
3.8773e-08
5.76963e-06
3.78704e-08
5.77282e-06
3.66515e-08
5.77586e-06
3.52393e-08
5.77878e-06
3.37144e-08
5.78158e-06
3.21315e-08
5.78428e-06
3.05216e-08
5.78689e-06
2.88983e-08
5.78943e-06
2.7263e-08
5.7919e-06
2.56078e-08
2.39401e-08
5.79427e-06
6.99914e-06
6.02284e-09
7.00187e-06
1.67688e-08
7.00563e-06
2.47056e-08
7.00979e-06
2.97598e-08
7.0141e-06
3.27437e-08
7.01844e-06
3.43373e-08
7.02271e-06
3.48826e-08
7.02683e-06
3.46551e-08
7.03077e-06
3.39191e-08
7.03456e-06
3.28654e-08
7.03819e-06
3.16114e-08
7.04167e-06
3.02332e-08
7.04501e-06
2.87831e-08
7.04824e-06
2.72929e-08
7.05136e-06
2.57789e-08
7.05437e-06
2.42483e-08
7.05728e-06
2.26996e-08
2.11507e-08
7.06007e-06
8.53188e-06
4.99061e-09
8.53473e-06
1.39147e-08
8.53876e-06
2.06772e-08
8.54335e-06
2.51654e-08
8.5482e-06
2.78926e-08
8.55315e-06
2.93892e-08
8.55806e-06
2.99688e-08
8.56285e-06
2.98628e-08
8.56748e-06
2.9285e-08
8.57194e-06
2.83998e-08
8.57624e-06
2.73148e-08
8.58037e-06
2.61006e-08
8.58435e-06
2.48057e-08
8.58818e-06
2.34618e-08
8.59187e-06
2.2088e-08
8.59542e-06
2.0696e-08
8.59883e-06
1.92901e-08
1.7894e-08
8.60208e-06
1.04003e-05
3.91762e-09
1.04032e-05
1.09567e-08
1.04075e-05
1.64028e-08
1.04125e-05
2.01468e-08
1.04179e-05
2.24876e-08
1.04235e-05
2.38026e-08
1.04291e-05
2.43529e-08
1.04347e-05
2.43259e-08
1.04401e-05
2.38862e-08
1.04453e-05
2.31663e-08
1.04504e-05
2.22589e-08
1.04552e-05
2.12262e-08
1.04599e-05
2.01117e-08
1.04644e-05
1.89455e-08
1.04688e-05
1.77481e-08
1.04729e-05
1.65337e-08
1.04769e-05
1.53104e-08
1.41045e-08
1.04807e-05
1.26779e-05
2.80867e-09
1.2681e-05
7.88905e-09
1.26855e-05
1.18799e-08
1.26909e-05
1.46974e-08
1.26969e-05
1.65e-08
1.27032e-05
1.75274e-08
1.27096e-05
1.79695e-08
1.27159e-05
1.79656e-08
1.27222e-05
1.7633e-08
1.27283e-05
1.70689e-08
1.27342e-05
1.6345e-08
1.27399e-05
1.5512e-08
1.27454e-05
1.46056e-08
1.27507e-05
1.36523e-08
1.27558e-05
1.2671e-08
1.27606e-05
1.16768e-08
1.27653e-05
1.06782e-08
9.70173e-09
1.27697e-05
1.54543e-05
1.65267e-09
1.54576e-05
4.66505e-09
1.54624e-05
7.05025e-09
1.54683e-05
8.75621e-09
1.5475e-05
9.85501e-09
1.5482e-05
1.04721e-08
1.54893e-05
1.07169e-08
1.54966e-05
1.06732e-08
1.55038e-05
1.04112e-08
1.55109e-05
9.99011e-09
1.55177e-05
9.45592e-09
1.55244e-05
8.84255e-09
1.55308e-05
8.17513e-09
1.5537e-05
7.47301e-09
1.55429e-05
6.75106e-09
1.55486e-05
6.02159e-09
1.5554e-05
5.2922e-09
4.58568e-09
1.55591e-05
1.88389e-05
4.09335e-10
1.88424e-05
1.15956e-09
1.88477e-05
1.73919e-09
1.88543e-05
2.13125e-09
1.88618e-05
2.35368e-09
1.88698e-05
2.43446e-09
1.88782e-05
2.39539e-09
1.88866e-05
2.25607e-09
1.8895e-05
2.03629e-09
1.89032e-05
1.75407e-09
1.89112e-05
1.42423e-09
1.8919e-05
1.05909e-09
1.89265e-05
6.69044e-10
1.89337e-05
2.63096e-10
1.89406e-05
-1.51076e-10
1.89472e-05
-5.66353e-10
1.89535e-05
-9.78507e-10
-1.37006e-09
1.89594e-05
2.29648e-05
-1.02296e-09
2.29688e-05
-2.9171e-09
2.29751e-05
-4.47336e-09
2.29828e-05
-5.6544e-09
2.29917e-05
-6.48231e-09
2.30011e-05
-7.04327e-09
2.3011e-05
-7.42476e-09
2.30209e-05
-7.68141e-09
2.30308e-05
-7.85033e-09
2.30405e-05
-7.96269e-09
2.305e-05
-8.04277e-09
2.30591e-05
-8.10497e-09
2.30679e-05
-8.15767e-09
2.30764e-05
-8.20498e-09
2.30845e-05
-8.24926e-09
2.30922e-05
-8.29026e-09
2.30996e-05
-8.32873e-09
-8.35366e-09
2.31066e-05
1.68118e-05
-2.14769e-09
1.6815e-05
-6.09264e-09
1.68198e-05
-9.31076e-09
1.68258e-05
-1.16624e-08
1.68326e-05
-1.32078e-08
1.68397e-05
-1.4175e-08
1.6847e-05
-1.47513e-08
1.68544e-05
-1.50409e-08
1.68616e-05
-1.51225e-08
1.68687e-05
-1.50688e-08
1.68756e-05
-1.4932e-08
1.68823e-05
-1.47459e-08
1.68886e-05
-1.45305e-08
1.68947e-05
-1.43004e-08
1.69006e-05
-1.40635e-08
1.69061e-05
-1.3825e-08
1.69113e-05
-1.35873e-08
-1.33445e-08
1.69163e-05
1.46356e-05
-3.2279e-09
1.46387e-05
-9.1841e-09
1.46435e-05
-1.40321e-08
1.46492e-05
-1.74159e-08
1.46555e-05
-1.95072e-08
1.46621e-05
-2.0756e-08
1.46688e-05
-2.14322e-08
1.46754e-05
-2.1672e-08
1.46819e-05
-2.16066e-08
1.46882e-05
-2.13524e-08
1.46942e-05
-2.09853e-08
1.47e-05
-2.05498e-08
1.47055e-05
-2.00764e-08
1.47108e-05
-1.95859e-08
1.47159e-05
-1.90918e-08
1.47206e-05
-1.86011e-08
1.47252e-05
-1.81189e-08
-1.76407e-08
1.47295e-05
1.27411e-05
-4.23933e-09
1.27443e-05
-1.23158e-08
1.27491e-05
-1.88691e-08
1.27548e-05
-2.30706e-08
1.27607e-05
-2.54988e-08
1.27669e-05
-2.69276e-08
1.27731e-05
-2.76196e-08
1.27792e-05
-2.77244e-08
1.2785e-05
-2.7449e-08
1.27906e-05
-2.69589e-08
1.2796e-05
-2.63437e-08
1.28011e-05
-2.5655e-08
1.28059e-05
-2.49299e-08
1.28105e-05
-2.41938e-08
1.28149e-05
-2.34624e-08
1.2819e-05
-2.27434e-08
1.28229e-05
-2.2042e-08
-2.13549e-08
1.28267e-05
1.10918e-05
-5.08453e-09
1.1095e-05
-1.55413e-08
1.11001e-05
-2.40004e-08
1.11058e-05
-2.87024e-08
1.11115e-05
-3.12435e-08
1.11173e-05
-3.27522e-08
1.11231e-05
-3.336e-08
1.11286e-05
-3.32492e-08
1.11339e-05
-3.27224e-08
1.11389e-05
-3.19769e-08
1.11436e-05
-3.11045e-08
1.11481e-05
-3.01619e-08
1.11524e-05
-2.91922e-08
1.11564e-05
-2.8224e-08
1.11602e-05
-2.72722e-08
1.11638e-05
-2.63453e-08
1.11672e-05
-2.54465e-08
-2.45741e-08
1.11705e-05
9.65582e-06
-5.69283e-09
9.65925e-06
-1.89682e-08
9.6646e-06
-2.93503e-08
9.6701e-06
-3.42052e-08
9.67566e-06
-3.68089e-08
9.68123e-06
-3.83196e-08
9.68657e-06
-3.87018e-08
9.6916e-06
-3.82867e-08
9.69635e-06
-3.74773e-08
9.70084e-06
-3.64677e-08
9.70507e-06
-3.53368e-08
9.70905e-06
-3.41442e-08
9.7128e-06
-3.29374e-08
9.71632e-06
-3.17458e-08
9.71963e-06
-3.05844e-08
9.72274e-06
-2.94602e-08
9.72567e-06
-2.83754e-08
-2.73261e-08
9.72842e-06
8.40532e-06
-5.66434e-09
8.40964e-06
-2.32856e-08
8.41488e-06
-3.4589e-08
8.41991e-06
-3.92376e-08
8.42528e-06
-4.21804e-08
8.43069e-06
-4.3734e-08
8.43578e-06
-4.37944e-08
8.44049e-06
-4.30001e-08
8.44487e-06
-4.18541e-08
8.44893e-06
-4.05324e-08
8.4527e-06
-3.91047e-08
8.45618e-06
-3.76334e-08
8.45941e-06
-3.61681e-08
8.4624e-06
-3.47363e-08
8.46517e-06
-3.33532e-08
8.46773e-06
-3.20249e-08
8.47011e-06
-3.07533e-08
-2.95348e-08
8.47232e-06
7.31455e-06
-2.92731e-09
7.32119e-06
-2.99309e-08
7.32674e-06
-4.01431e-08
7.3317e-06
-4.41929e-08
7.3371e-06
-4.75827e-08
7.34242e-06
-4.906e-08
7.3473e-06
-4.86777e-08
7.35172e-06
-4.74188e-08
7.3557e-06
-4.5838e-08
7.35926e-06
-4.4094e-08
7.36243e-06
-4.2267e-08
7.36522e-06
-4.04302e-08
7.36769e-06
-3.86357e-08
7.36986e-06
-3.69076e-08
7.37176e-06
-3.52614e-08
7.37344e-06
-3.36995e-08
7.37491e-06
-3.22224e-08
-3.08206e-08
7.37619e-06
6.36245e-06
4.68799e-09
6.37189e-06
-3.93745e-08
6.37932e-06
-4.75728e-08
6.38596e-06
-5.08371e-08
6.39225e-06
-5.38685e-08
6.39756e-06
-5.4377e-08
6.40186e-06
-5.29769e-08
6.40535e-06
-5.09042e-08
6.40815e-06
-4.86426e-08
6.41034e-06
-4.62836e-08
6.41197e-06
-4.39044e-08
6.41312e-06
-4.15818e-08
6.41385e-06
-3.93668e-08
6.41422e-06
-3.72774e-08
6.41429e-06
-3.53274e-08
6.4141e-06
-3.35128e-08
6.41371e-06
-3.18346e-08
-3.02732e-08
6.41316e-06
5.5412e-06
8.94979e-09
5.55033e-06
-4.84992e-08
5.55834e-06
-5.55934e-08
5.56605e-06
-5.85421e-08
5.57251e-06
-6.03335e-08
5.57684e-06
-5.87054e-08
5.57908e-06
-5.52224e-08
5.57964e-06
-5.14677e-08
5.57889e-06
-4.78934e-08
5.57711e-06
-4.4503e-08
5.57452e-06
-4.13151e-08
5.57131e-06
-3.83725e-08
5.56763e-06
-3.56833e-08
5.56359e-06
-3.32393e-08
5.5593e-06
-3.10374e-08
5.55484e-06
-2.90606e-08
5.55032e-06
-2.73107e-08
-2.57385e-08
5.54578e-06
4.86004e-06
-2.34868e-08
4.86539e-06
-5.3843e-08
4.86524e-06
-5.54502e-08
4.86217e-06
-5.54755e-08
4.857e-06
-5.51663e-08
4.8495e-06
-5.12082e-08
4.83981e-06
-4.55298e-08
4.82842e-06
-4.00782e-08
4.81585e-06
-3.5324e-08
4.80257e-06
-3.12287e-08
4.78898e-06
-2.77213e-08
4.77534e-06
-2.47387e-08
4.76186e-06
-2.22033e-08
4.74866e-06
-2.0044e-08
4.73584e-06
-1.82145e-08
4.72346e-06
-1.66816e-08
4.71163e-06
-1.54833e-08
-1.51388e-08
4.70103e-06
4.17919e-06
4.12535e-06
4.0699e-06
4.01442e-06
3.95925e-06
3.90805e-06
3.86252e-06
3.82244e-06
3.78711e-06
3.75588e-06
3.72816e-06
3.70342e-06
3.68122e-06
3.66118e-06
3.64296e-06
3.62628e-06
3.6108e-06
3.59566e-06
1.62722e-08
-1.63385e-08
3.00613e-08
-1.38853e-08
3.66606e-08
-6.6676e-09
3.57862e-08
8.05946e-10
2.85071e-08
7.22863e-09
1.62543e-08
1.21945e-08
4.11324e-10
1.5803e-08
-1.79935e-08
1.83537e-08
-3.81811e-08
2.01558e-08
-5.96577e-08
2.14322e-08
-8.20463e-08
2.23626e-08
-1.05156e-07
2.30704e-08
-1.28824e-07
2.36455e-08
-1.53019e-07
2.41594e-08
-1.77727e-07
2.46901e-08
-2.0307e-07
2.53106e-08
-2.29158e-07
2.60729e-08
-2.56214e-07
2.70248e-08
-2.84407e-07
2.81786e-08
-3.13877e-07
2.94398e-08
-3.44696e-07
3.08038e-08
-3.75622e-07
3.08953e-08
-4.04379e-07
2.87409e-08
-4.32347e-07
2.79365e-08
-4.62207e-07
2.98415e-08
-4.93998e-07
3.17596e-08
-5.27896e-07
3.38788e-08
-5.64763e-07
3.68355e-08
-6.06222e-07
4.14393e-08
-6.54937e-07
4.86787e-08
-6.99027e-07
4.40644e-08
-7.35736e-07
3.66686e-08
-7.78338e-07
4.25799e-08
-8.19334e-07
4.09625e-08
-8.59237e-07
3.9887e-08
-9.01395e-07
4.21301e-08
-9.43905e-07
4.24961e-08
-9.86601e-07
4.267e-08
-1.02938e-06
4.27662e-08
-1.07221e-06
4.28035e-08
-1.115e-06
4.27766e-08
-1.15772e-06
4.27002e-08
-1.20033e-06
4.25876e-08
-1.2428e-06
4.24482e-08
-1.2851e-06
4.22901e-08
-1.32724e-06
4.21172e-08
-1.36918e-06
4.1933e-08
-1.41094e-06
4.17377e-08
-1.45249e-06
4.15323e-08
-1.49383e-06
4.13153e-08
-1.53493e-06
4.10862e-08
-1.5758e-06
4.08423e-08
-1.61641e-06
4.05824e-08
-1.65674e-06
4.03038e-08
-1.69677e-06
4.0005e-08
-1.73648e-06
3.96826e-08
-1.77585e-06
3.93352e-08
-1.81484e-06
3.89598e-08
-1.85342e-06
3.85553e-08
-1.89157e-06
3.8118e-08
-1.92925e-06
3.76472e-08
-1.96642e-06
3.71401e-08
-2.00305e-06
3.65958e-08
-2.03909e-06
3.60115e-08
-2.0745e-06
3.53869e-08
-2.10925e-06
3.47196e-08
-2.14329e-06
3.40096e-08
-2.17658e-06
3.32549e-08
-2.20906e-06
3.24562e-08
-2.2407e-06
3.16117e-08
-2.27145e-06
3.07224e-08
-2.30127e-06
2.97872e-08
-2.3301e-06
2.8807e-08
-2.35792e-06
2.77815e-08
-2.38466e-06
2.67118e-08
-2.4103e-06
2.55977e-08
-2.43478e-06
2.44414e-08
-2.45806e-06
2.32436e-08
-2.48011e-06
2.20063e-08
-2.50089e-06
2.07301e-08
-2.52035e-06
1.94173e-08
-2.53847e-06
1.80697e-08
-2.5552e-06
1.66896e-08
-2.57053e-06
1.5278e-08
-2.58441e-06
1.38368e-08
-2.59684e-06
1.23663e-08
-2.60775e-06
1.08679e-08
-2.61714e-06
9.34024e-09
-2.62497e-06
7.78352e-09
-2.63122e-06
6.18628e-09
-2.63582e-06
4.54031e-09
-2.63873e-06
2.82806e-09
-2.63987e-06
1.04866e-09
-2.63923e-06
-7.29293e-10
-2.63701e-06
-2.31221e-09
-2.63342e-06
-3.68815e-09
-2.62853e-06
-4.99283e-09
-2.62237e-06
-6.25692e-09
-2.61497e-06
-7.48729e-09
-2.60637e-06
-8.68884e-09
-2.5966e-06
-9.85909e-09
-2.58568e-06
-1.09984e-08
-2.57366e-06
-1.21051e-08
-2.56055e-06
-1.31782e-08
-2.54641e-06
-1.42167e-08
-2.53126e-06
-1.52192e-08
-2.51515e-06
-1.61861e-08
-2.49811e-06
-1.7117e-08
-2.48017e-06
-1.80129e-08
-2.46138e-06
-1.88746e-08
-2.44176e-06
-1.97032e-08
-2.42136e-06
-2.05007e-08
-2.40019e-06
-2.12677e-08
-2.37829e-06
-2.2009e-08
-2.35567e-06
-2.27252e-08
-2.33237e-06
-2.34228e-08
-2.3084e-06
-2.40994e-08
-2.28376e-06
-2.47623e-08
-2.25848e-06
-2.54126e-08
-2.23255e-06
-2.60672e-08
-2.20599e-06
-2.67331e-08
-2.17878e-06
-2.74247e-08
-2.15088e-06
-2.81322e-08
-2.12227e-06
-2.88682e-08
-2.09288e-06
-2.96179e-08
-2.06271e-06
-3.04091e-08
-2.03167e-06
-3.12307e-08
-1.99974e-06
-3.21198e-08
-1.96681e-06
-3.30597e-08
-1.93284e-06
-3.40865e-08
-1.89772e-06
-3.51786e-08
-1.86137e-06
-3.63817e-08
-1.82365e-06
-3.76746e-08
-1.78448e-06
-3.90947e-08
-1.74371e-06
-4.06127e-08
-1.70125e-06
-4.2267e-08
-1.65692e-06
-4.40443e-08
-1.61059e-06
-4.59854e-08
-1.56212e-06
-4.80358e-08
-1.5114e-06
-5.02436e-08
-1.45829e-06
-5.26177e-08
-1.40267e-06
-5.51333e-08
-1.34441e-06
-5.78003e-08
-1.28336e-06
-6.06189e-08
-1.2194e-06
-6.35554e-08
-1.15247e-06
-6.65557e-08
-1.0825e-06
-6.96344e-08
-1.00941e-06
-7.27784e-08
-9.33178e-07
-7.59711e-08
-8.53772e-07
-7.91783e-08
-7.71207e-07
-8.23805e-08
-6.85517e-07
-8.55438e-08
-5.96759e-07
-8.86527e-08
-5.05025e-07
-9.16691e-08
-4.10437e-07
-9.45628e-08
-3.13197e-07
-9.72532e-08
-2.13481e-07
-9.97675e-08
-1.11136e-07
-1.02434e-07
-5.63607e-09
-1.05618e-07
1.02866e-07
-1.08647e-07
2.13086e-07
-1.10381e-07
3.23958e-07
-1.11051e-07
4.34766e-07
-1.10995e-07
5.44874e-07
-1.10306e-07
6.53729e-07
-1.09053e-07
7.60802e-07
-1.07276e-07
8.65639e-07
-1.05035e-07
9.67807e-07
-1.02365e-07
1.06695e-06
-9.93292e-08
1.16271e-06
-9.59475e-08
1.25478e-06
-9.22517e-08
1.34286e-06
-8.82519e-08
1.42659e-06
-8.38949e-08
1.50553e-06
-7.90919e-08
1.57901e-06
-7.36368e-08
1.64597e-06
-6.71061e-08
1.70392e-06
-5.80937e-08
1.74806e-06
-4.42739e-08
1.75846e-06
-1.05258e-08
6.32751e-08
1.69511e-06
7.90342e-09
-2.4298e-08
7.47341e-09
-1.35197e-08
2.2032e-09
-1.4363e-09
-6.48232e-09
9.4566e-09
-1.81817e-08
1.89017e-08
-3.28144e-08
2.67986e-08
-5.02133e-08
3.318e-08
-7.01017e-08
3.82163e-08
-9.21199e-08
4.21548e-08
-1.15967e-07
4.5255e-08
-1.41373e-07
4.77515e-08
-1.68165e-07
4.98388e-08
-1.96209e-07
5.16736e-08
-2.25456e-07
5.3386e-08
-2.55871e-07
5.5091e-08
-2.87471e-07
5.68909e-08
-3.20274e-07
5.88632e-08
-3.5431e-07
6.10432e-08
-3.89546e-07
6.34026e-08
-4.25925e-07
6.58009e-08
-4.63127e-07
6.79941e-08
-5.01778e-07
6.95284e-08
-5.43375e-07
7.03255e-08
-5.86994e-07
7.15367e-08
-6.30872e-07
7.37064e-08
-6.75299e-07
7.61673e-08
-7.20169e-07
7.87343e-08
-7.6488e-07
8.15261e-08
-8.08066e-07
8.46091e-08
-8.46558e-07
8.71504e-08
-8.89039e-07
8.65289e-08
-9.36959e-07
8.45697e-08
-9.79137e-07
8.47435e-08
-1.02234e-06
8.41469e-08
-1.06602e-06
8.35526e-08
-1.10757e-06
8.36684e-08
-1.14865e-06
8.35677e-08
-1.18931e-06
8.3315e-08
-1.22954e-06
8.29887e-08
-1.26937e-06
8.26228e-08
-1.30883e-06
8.22252e-08
-1.34795e-06
8.18015e-08
-1.38673e-06
8.13565e-08
-1.42519e-06
8.08941e-08
-1.46332e-06
8.0417e-08
-1.50114e-06
7.99262e-08
-1.53864e-06
7.94215e-08
-1.57582e-06
7.89014e-08
-1.61266e-06
7.83638e-08
-1.64916e-06
7.78053e-08
-1.68531e-06
7.72225e-08
-1.72109e-06
7.66113e-08
-1.75649e-06
7.59677e-08
-1.79149e-06
7.52874e-08
-1.82607e-06
7.45662e-08
-1.86021e-06
7.37998e-08
-1.89387e-06
7.29843e-08
-1.92705e-06
7.21156e-08
-1.9597e-06
7.11901e-08
-1.99181e-06
7.02039e-08
-2.02333e-06
6.91542e-08
-2.05425e-06
6.80375e-08
-2.08453e-06
6.68513e-08
-2.11413e-06
6.55928e-08
-2.14302e-06
6.42601e-08
-2.17117e-06
6.28511e-08
-2.19854e-06
6.13645e-08
-2.22511e-06
5.9799e-08
-2.25082e-06
5.81539e-08
-2.27566e-06
5.64288e-08
-2.29958e-06
5.46237e-08
-2.32255e-06
5.27387e-08
-2.34454e-06
5.07746e-08
-2.36551e-06
4.87319e-08
-2.38543e-06
4.66123e-08
-2.40427e-06
4.44172e-08
-2.422e-06
4.21493e-08
-2.4386e-06
3.9811e-08
-2.45402e-06
3.74053e-08
-2.46826e-06
3.49351e-08
-2.48127e-06
3.24044e-08
-2.49305e-06
2.98168e-08
-2.50356e-06
2.71762e-08
-2.51281e-06
2.44867e-08
-2.52075e-06
2.17525e-08
-2.5274e-06
1.89775e-08
-2.53273e-06
1.61668e-08
-2.53675e-06
1.33259e-08
-2.53945e-06
1.04594e-08
-2.54088e-06
7.57465e-09
-2.54106e-06
4.67699e-09
-2.54007e-06
1.78491e-09
-2.53801e-06
-1.06728e-09
-2.53496e-06
-3.83378e-09
-2.53083e-06
-6.5018e-09
-2.52548e-06
-9.09926e-09
-2.51889e-06
-1.16409e-08
-2.51108e-06
-1.4129e-08
-2.50206e-06
-1.65614e-08
-2.49187e-06
-1.89371e-08
-2.48053e-06
-2.12527e-08
-2.46807e-06
-2.35069e-08
-2.45452e-06
-2.5698e-08
-2.43992e-06
-2.78239e-08
-2.4243e-06
-2.9883e-08
-2.40769e-06
-3.18737e-08
-2.39013e-06
-3.37965e-08
-2.37164e-06
-3.56514e-08
-2.35226e-06
-3.74405e-08
-2.33202e-06
-3.91651e-08
-2.31095e-06
-4.08288e-08
-2.28907e-06
-4.24336e-08
-2.26642e-06
-4.39845e-08
-2.24301e-06
-4.54856e-08
-2.21886e-06
-4.6944e-08
-2.19399e-06
-4.83652e-08
-2.16842e-06
-4.97558e-08
-2.14213e-06
-5.11212e-08
-2.11515e-06
-5.2475e-08
-2.08747e-06
-5.38353e-08
-2.05909e-06
-5.52226e-08
-2.03e-06
-5.66514e-08
-2.00015e-06
-5.81272e-08
-1.96952e-06
-5.96563e-08
-1.93804e-06
-6.12434e-08
-1.90568e-06
-6.29085e-08
-1.87237e-06
-6.4665e-08
-1.83806e-06
-6.65423e-08
-1.80266e-06
-6.85516e-08
-1.76609e-06
-7.07182e-08
-1.72826e-06
-7.30471e-08
-1.68908e-06
-7.55768e-08
-1.64842e-06
-7.83165e-08
-1.60617e-06
-8.1294e-08
-1.56219e-06
-8.45056e-08
-1.51635e-06
-8.79795e-08
-1.46851e-06
-9.17238e-08
-1.41852e-06
-9.57709e-08
-1.3662e-06
-1.00105e-07
-1.31142e-06
-1.04738e-07
-1.25406e-06
-1.09695e-07
-1.19396e-06
-1.1496e-07
-1.13097e-06
-1.2054e-07
-1.06495e-06
-1.26407e-07
-9.95776e-07
-1.32514e-07
-9.23323e-07
-1.38811e-07
-8.47502e-07
-1.45277e-07
-7.6825e-07
-1.51874e-07
-6.85539e-07
-1.58545e-07
-5.9937e-07
-1.65235e-07
-5.09773e-07
-1.71886e-07
-4.16816e-07
-1.78435e-07
-3.20605e-07
-1.84815e-07
-2.21294e-07
-1.9096e-07
-1.19014e-07
-1.96836e-07
-1.38551e-08
-2.02435e-07
9.39157e-08
-2.0757e-07
2.03653e-07
-2.12229e-07
3.14267e-07
-2.16296e-07
4.24857e-07
-2.19322e-07
5.35318e-07
-2.2093e-07
6.45387e-07
-2.21227e-07
7.54628e-07
-2.20344e-07
8.62588e-07
-2.18389e-07
9.68847e-07
-2.15432e-07
1.073e-06
-2.11561e-07
1.17469e-06
-2.06851e-07
1.27358e-06
-2.01389e-07
1.36937e-06
-1.95243e-07
1.46177e-06
-1.88478e-07
1.55052e-06
-1.8112e-07
1.63532e-06
-1.73181e-07
1.71588e-06
-1.64566e-07
1.79178e-06
-1.55113e-07
1.86244e-06
-1.44415e-07
1.9269e-06
-1.31675e-07
1.98345e-06
-1.14754e-07
2.02901e-06
-8.99373e-08
2.06251e-06
-4.41238e-08
4.65799e-08
2.07914e-06
-4.31109e-09
-2.00292e-08
-1.46091e-08
-3.26405e-09
-2.7244e-08
1.11744e-08
-4.1493e-08
2.36842e-08
-5.72341e-08
3.46264e-08
-7.45838e-08
4.41303e-08
-9.3683e-08
5.22648e-08
-1.14618e-07
5.9134e-08
-1.37376e-07
6.48992e-08
-1.61896e-07
6.97583e-08
-1.88075e-07
7.39173e-08
-2.15821e-07
7.75687e-08
-2.45042e-07
8.08822e-08
-2.75673e-07
8.40022e-08
-3.07642e-07
8.70495e-08
-3.40886e-07
9.01201e-08
-3.7531e-07
9.32774e-08
-4.10814e-07
9.65344e-08
-4.47263e-07
9.9843e-08
-4.84552e-07
1.03078e-07
-5.22622e-07
1.06056e-07
-5.61709e-07
1.08604e-07
-6.02105e-07
1.10713e-07
-6.4331e-07
1.12729e-07
-6.84465e-07
1.14853e-07
-7.25272e-07
1.16962e-07
-7.65498e-07
1.18951e-07
-8.0476e-07
1.20775e-07
-8.42483e-07
1.22321e-07
-8.78666e-07
1.2332e-07
-9.15434e-07
1.23287e-07
-9.53491e-07
1.22614e-07
-9.90836e-07
1.22079e-07
-1.02812e-06
1.21421e-07
-1.06536e-06
1.20787e-07
-1.10199e-06
1.20286e-07
-1.13816e-06
1.19731e-07
-1.17398e-06
1.19125e-07
-1.20949e-06
1.18488e-07
-1.24471e-06
1.17832e-07
-1.27965e-06
1.17163e-07
-1.31435e-06
1.16484e-07
-1.34879e-06
1.15794e-07
-1.383e-06
1.15095e-07
-1.41697e-06
1.14383e-07
-1.45071e-06
1.13657e-07
-1.48421e-06
1.12913e-07
-1.51746e-06
1.12148e-07
-1.55046e-06
1.11356e-07
-1.5832e-06
1.10532e-07
-1.61565e-06
1.09671e-07
-1.64782e-06
1.08767e-07
-1.67967e-06
1.07814e-07
-1.7112e-06
1.06805e-07
-1.74238e-06
1.05736e-07
-1.77319e-06
1.04599e-07
-1.80361e-06
1.0339e-07
-1.83361e-06
1.02103e-07
-1.86317e-06
1.00733e-07
-1.89225e-06
9.92747e-08
-1.92084e-06
9.77239e-08
-1.94889e-06
9.60765e-08
-1.97638e-06
9.43286e-08
-2.00328e-06
9.24768e-08
-2.02955e-06
9.05181e-08
-2.05516e-06
8.84499e-08
-2.08008e-06
8.62704e-08
-2.10427e-06
8.39779e-08
-2.1277e-06
8.15714e-08
-2.15034e-06
7.90503e-08
-2.17214e-06
7.64146e-08
-2.19308e-06
7.36647e-08
-2.21312e-06
7.08013e-08
-2.23223e-06
6.78261e-08
-2.25037e-06
6.47409e-08
-2.26752e-06
6.15483e-08
-2.28364e-06
5.82517e-08
-2.2987e-06
5.48547e-08
-2.31267e-06
5.13619e-08
-2.32553e-06
4.77778e-08
-2.33725e-06
4.41081e-08
-2.34782e-06
4.03586e-08
-2.3572e-06
3.65357e-08
-2.36538e-06
3.2646e-08
-2.37234e-06
2.8697e-08
-2.37808e-06
2.46966e-08
-2.38259e-06
2.06541e-08
-2.38587e-06
1.65792e-08
-2.38791e-06
1.2485e-08
-2.38874e-06
8.38239e-09
-2.38838e-06
4.28885e-09
-2.38686e-06
2.24962e-10
-2.38417e-06
-3.78489e-09
-2.38033e-06
-7.71849e-09
-2.37529e-06
-1.15801e-08
-2.36904e-06
-1.53803e-08
-2.3616e-06
-1.91182e-08
-2.35298e-06
-2.27863e-08
-2.3432e-06
-2.63797e-08
-2.33228e-06
-2.98922e-08
-2.32025e-06
-3.33189e-08
-2.30713e-06
-3.66559e-08
-2.29296e-06
-3.99003e-08
-2.27776e-06
-4.30495e-08
-2.26157e-06
-4.61014e-08
-2.24441e-06
-4.90555e-08
-2.22633e-06
-5.19115e-08
-2.20734e-06
-5.46712e-08
-2.18748e-06
-5.73369e-08
-2.16677e-06
-5.99117e-08
-2.14523e-06
-6.24002e-08
-2.1229e-06
-6.48067e-08
-2.09979e-06
-6.71378e-08
-2.07592e-06
-6.94002e-08
-2.05131e-06
-7.16036e-08
-2.02597e-06
-7.37565e-08
-1.9999e-06
-7.58696e-08
-1.97312e-06
-7.79538e-08
-1.94562e-06
-8.00283e-08
-1.9174e-06
-8.21163e-08
-1.88846e-06
-8.42453e-08
-1.85877e-06
-8.64344e-08
-1.82831e-06
-8.87008e-08
-1.79701e-06
-9.1053e-08
-1.76485e-06
-9.3511e-08
-1.73176e-06
-9.60927e-08
-1.69769e-06
-9.88287e-08
-1.66256e-06
-1.01745e-07
-1.6263e-06
-1.04876e-07
-1.58882e-06
-1.08241e-07
-1.55004e-06
-1.11867e-07
-1.50984e-06
-1.15786e-07
-1.46811e-06
-1.20036e-07
-1.42473e-06
-1.24638e-07
-1.37957e-06
-1.29612e-07
-1.33248e-06
-1.3498e-07
-1.28333e-06
-1.40766e-07
-1.23196e-06
-1.47002e-07
-1.17821e-06
-1.53688e-07
-1.12194e-06
-1.6083e-07
-1.06302e-06
-1.68449e-07
-1.00128e-06
-1.76539e-07
-9.36599e-07
-1.85089e-07
-8.68829e-07
-1.9406e-07
-7.97843e-07
-2.03394e-07
-7.23525e-07
-2.13039e-07
-6.45796e-07
-2.22926e-07
-5.6462e-07
-2.32984e-07
-4.79989e-07
-2.43122e-07
-3.91927e-07
-2.53254e-07
-3.00497e-07
-2.63284e-07
-2.05802e-07
-2.73107e-07
-1.07987e-07
-2.82617e-07
-7.22242e-09
-2.91717e-07
9.62094e-08
-3.00269e-07
2.01886e-07
-3.08116e-07
3.09327e-07
-3.15024e-07
4.17958e-07
-3.20874e-07
5.27115e-07
-3.25472e-07
6.36245e-07
-3.28473e-07
7.45004e-07
-3.29715e-07
8.53018e-07
-3.29265e-07
9.59865e-07
-3.27219e-07
1.06513e-06
-3.23684e-07
1.16843e-06
-3.18759e-07
1.2694e-06
-3.12559e-07
1.36771e-06
-3.05194e-07
1.46308e-06
-2.9678e-07
1.55522e-06
-2.87413e-07
1.6439e-06
-2.77179e-07
1.72887e-06
-2.66117e-07
1.8099e-06
-2.54232e-07
1.88673e-06
-2.41418e-07
1.95902e-06
-2.27429e-07
2.0263e-06
-2.1172e-07
2.08784e-06
-1.93237e-07
2.14265e-06
-1.69582e-07
2.18927e-06
-1.36586e-07
2.22884e-06
-8.37066e-08
7.92287e-09
2.26749e-06
-1.36174e-08
-6.44618e-09
-3.04609e-08
1.35484e-08
-4.82507e-08
2.89465e-08
-6.66684e-08
4.2086e-08
-8.57608e-08
5.37064e-08
-1.05706e-07
6.40614e-08
-1.26705e-07
7.32529e-08
-1.48943e-07
8.13587e-08
-1.72537e-07
8.84826e-08
-1.97552e-07
9.4759e-08
-2.23985e-07
1.0034e-07
-2.51808e-07
1.05379e-07
-2.80952e-07
1.10017e-07
-3.1134e-07
1.14378e-07
-3.42859e-07
1.18559e-07
-3.75384e-07
1.22633e-07
-4.08751e-07
1.26637e-07
-4.42796e-07
1.30568e-07
-4.77338e-07
1.34379e-07
-5.1225e-07
1.37981e-07
-5.47463e-07
1.41263e-07
-5.82998e-07
1.44131e-07
-6.18863e-07
1.46573e-07
-6.54841e-07
1.48698e-07
-6.906e-07
1.50605e-07
-7.25943e-07
1.52295e-07
-7.60734e-07
1.53735e-07
-7.94857e-07
1.54888e-07
-8.28241e-07
1.55699e-07
-8.61022e-07
1.56091e-07
-8.93736e-07
1.55993e-07
-9.26661e-07
1.55529e-07
-9.59502e-07
1.54912e-07
-9.9227e-07
1.54179e-07
-1.0249e-06
1.5341e-07
-1.05728e-06
1.52653e-07
-1.08943e-06
1.51877e-07
-1.12139e-06
1.51077e-07
-1.15317e-06
1.5026e-07
-1.18478e-06
1.49431e-07
-1.21622e-06
1.48595e-07
-1.24749e-06
1.47752e-07
-1.2786e-06
1.46901e-07
-1.30956e-06
1.4604e-07
-1.34034e-06
1.45164e-07
-1.37096e-06
1.4427e-07
-1.4014e-06
1.43351e-07
-1.43167e-06
1.42403e-07
-1.46173e-06
1.41417e-07
-1.49159e-06
1.40387e-07
-1.52123e-06
1.39305e-07
-1.55064e-06
1.38164e-07
-1.57979e-06
1.36956e-07
-1.60866e-06
1.35674e-07
-1.63725e-06
1.34311e-07
-1.66551e-06
1.32857e-07
-1.69344e-06
1.31308e-07
-1.721e-06
1.29656e-07
-1.74817e-06
1.27894e-07
-1.77492e-06
1.26016e-07
-1.80123e-06
1.24017e-07
-1.82706e-06
1.21892e-07
-1.85237e-06
1.19635e-07
-1.87715e-06
1.17243e-07
-1.90135e-06
1.14711e-07
-1.92495e-06
1.12037e-07
-1.94791e-06
1.09218e-07
-1.97019e-06
1.06251e-07
-1.99177e-06
1.03136e-07
-2.0126e-06
9.98724e-08
-2.03266e-06
9.6459e-08
-2.0519e-06
9.2897e-08
-2.07029e-06
8.91875e-08
-2.08781e-06
8.53323e-08
-2.10441e-06
8.1334e-08
-2.12007e-06
7.71961e-08
-2.13476e-06
7.29229e-08
-2.14843e-06
6.85191e-08
-2.16108e-06
6.39907e-08
-2.17265e-06
5.9344e-08
-2.18315e-06
5.45864e-08
-2.19253e-06
4.97257e-08
-2.20078e-06
4.47707e-08
-2.20788e-06
3.9731e-08
-2.21382e-06
3.46169e-08
-2.21857e-06
2.94398e-08
-2.22215e-06
2.42122e-08
-2.22453e-06
1.89486e-08
-2.22573e-06
1.36635e-08
-2.22574e-06
8.3763e-09
-2.22457e-06
3.10201e-09
-2.22223e-06
-2.13744e-09
-2.21872e-06
-7.32374e-09
-2.21402e-06
-1.24417e-08
-2.20814e-06
-1.74892e-08
-2.20108e-06
-2.24655e-08
-2.19286e-06
-2.73651e-08
-2.1835e-06
-3.21778e-08
-2.173e-06
-3.68954e-08
-2.16141e-06
-4.15091e-08
-2.14874e-06
-4.60122e-08
-2.13502e-06
-5.03989e-08
-2.12027e-06
-5.4665e-08
-2.10453e-06
-5.88074e-08
-2.08783e-06
-6.2824e-08
-2.0702e-06
-6.67144e-08
-2.05165e-06
-7.04793e-08
-2.03222e-06
-7.41212e-08
-2.01194e-06
-7.76435e-08
-1.99083e-06
-8.10511e-08
-1.96891e-06
-8.43496e-08
-1.94621e-06
-8.75459e-08
-1.92273e-06
-9.06482e-08
-1.8985e-06
-9.36655e-08
-1.87353e-06
-9.661e-08
-1.84783e-06
-9.94933e-08
-1.82141e-06