/*--------------------------------*- C++ -*----------------------------------*\
  =========                 |
  \\      /  F ield         | OpenFOAM: The Open Source CFD Toolbox
   \\    /   O peration     | Website:  https://openfoam.org
    \\  /    A nd           | Version:  8
     \\/     M anipulation  |
\*---------------------------------------------------------------------------*/
FoamFile
{
    version     2.0;
    format      ascii;
    class       volVectorField;
    location    "180";
    object      U;
}
// * * * * * * * * * * * * * * * * * * * * * * * * * * * * * * * * * * * * * //

dimensions      [0 1 -1 0 0 0 0];

internalField   nonuniform List<vector> 
12225
(
(9.85698 -0.886437 0)
(9.66664 -0.740747 0)
(9.45569 -0.429482 0)
(9.22447 -0.222212 0)
(9.0064 -0.106452 0)
(8.81424 -0.0458588 0)
(8.64727 -0.0151669 0)
(8.50504 0.000465099 0)
(8.38325 0.00840789 0)
(8.2804 0.012303 0)
(8.19179 0.0140345 0)
(8.11542 0.0150601 0)
(8.04831 0.0154442 0)
(7.98887 0.015698 0)
(7.93485 0.0157298 0)
(7.8873 0.0163561 0)
(7.83098 0.0159156 0)
(7.82035 0.0123682 0)
(10.0545 0.227564 0)
(10.121 0.326917 0)
(10.1196 0.261574 0)
(10.0855 0.186549 0)
(10.0434 0.134679 0)
(9.99665 0.101129 0)
(9.94392 0.0793092 0)
(9.88511 0.0645924 0)
(9.82371 0.0542968 0)
(9.76111 0.0467242 0)
(9.69957 0.0409791 0)
(9.63962 0.0364619 0)
(9.58218 0.0328621 0)
(9.5276 0.0300923 0)
(9.47544 0.0277542 0)
(9.42773 0.0272126 0)
(9.37909 0.0251634 0)
(9.3466 0.0359075 0)
(10.0035 0.0579195 0)
(10.0303 0.0560099 0)
(10.056 0.0337874 0)
(10.0703 0.0329069 0)
(10.0769 0.040662 0)
(10.0778 0.0465663 0)
(10.0724 0.0493881 0)
(10.0612 0.0503445 0)
(10.046 0.0502587 0)
(10.0275 0.0495668 0)
(10.0069 0.0485555 0)
(9.98454 0.0474392 0)
(9.96126 0.0463245 0)
(9.93743 0.0453755 0)
(9.91324 0.0445013 0)
(9.8896 0.0445208 0)
(9.8658 0.0441043 0)
(9.84395 0.0477059 0)
(9.99779 0.0110556 0)
(10.011 0.0266135 0)
(10.035 0.0371602 0)
(10.0525 0.0481005 0)
(10.0643 0.0554742 0)
(10.0733 0.0582149 0)
(10.0794 0.0583964 0)
(10.0822 0.05767 0)
(10.0826 0.0566427 0)
(10.081 0.0554766 0)
(10.0778 0.0542479 0)
(10.0734 0.0530815 0)
(10.0678 0.0519835 0)
(10.0616 0.0510853 0)
(10.0546 0.0503142 0)
(10.0475 0.0501767 0)
(10.0402 0.0499459 0)
(10.0333 0.0513289 0)
(9.99935 0.0072008 0)
(10.009 0.0316618 0)
(10.0274 0.0439351 0)
(10.0418 0.0499427 0)
(10.0527 0.0536406 0)
(10.0628 0.0552761 0)
(10.0715 0.0555708 0)
(10.0782 0.0553002 0)
(10.0832 0.0547835 0)
(10.087 0.0541162 0)
(10.0898 0.053359 0)
(10.0916 0.0526149 0)
(10.0926 0.0519112 0)
(10.0931 0.0513467 0)
(10.0931 0.0509045 0)
(10.093 0.0508402 0)
(10.0928 0.0508245 0)
(10.0929 0.051366 0)
(10.0003 0.00918196 0)
(10.0083 0.0311794 0)
(10.0227 0.0409599 0)
(10.0349 0.0454178 0)
(10.045 0.0490733 0)
(10.0547 0.0514215 0)
(10.0636 0.0524198 0)
(10.0713 0.0526757 0)
(10.0777 0.0525725 0)
(10.0832 0.0522514 0)
(10.088 0.0517943 0)
(10.0921 0.0512969 0)
(10.0956 0.0508062 0)
(10.0987 0.0503956 0)
(10.1015 0.0500729 0)
(10.1041 0.0499519 0)
(10.1068 0.049879 0)
(10.1097 0.0499014 0)
(10.0005 0.00894926 0)
(10.0071 0.0270971 0)
(10.0191 0.0364328 0)
(10.0301 0.0414203 0)
(10.0395 0.045456 0)
(10.0486 0.0481364 0)
(10.0572 0.0494249 0)
(10.0648 0.0499199 0)
(10.0715 0.0500269 0)
(10.0776 0.0498954 0)
(10.0831 0.0496089 0)
(10.088 0.0492521 0)
(10.0926 0.0488784 0)
(10.0968 0.0485407 0)
(10.1007 0.0482519 0)
(10.1046 0.0480514 0)
(10.1084 0.0478484 0)
(10.1125 0.0475522 0)
(10.0004 0.00792134 0)
(10.006 0.0233933 0)
(10.0161 0.0327588 0)
(10.0262 0.0381363 0)
(10.0351 0.042145 0)
(10.0435 0.044845 0)
(10.0516 0.0462772 0)
(10.0591 0.0469384 0)
(10.0658 0.0471964 0)
(10.0719 0.0471999 0)
(10.0776 0.0470326 0)
(10.0829 0.0467707 0)
(10.0878 0.0464685 0)
(10.0925 0.0461644 0)
(10.097 0.0458687 0)
(10.1014 0.0455843 0)
(10.1057 0.0452441 0)
(10.1102 0.0447398 0)
(10.0004 0.00696658 0)
(10.0051 0.0204434 0)
(10.0137 0.0294808 0)
(10.0228 0.0349015 0)
(10.0311 0.0387677 0)
(10.0391 0.0414478 0)
(10.0467 0.0430029 0)
(10.0539 0.0438059 0)
(10.0605 0.0441832 0)
(10.0666 0.0442883 0)
(10.0723 0.0442065 0)
(10.0776 0.0440086 0)
(10.0827 0.0437457 0)
(10.0876 0.0434478 0)
(10.0923 0.0431212 0)
(10.0968 0.0427537 0)
(10.1014 0.0422904 0)
(10.106 0.0416463 0)
(10.0004 0.00613662 0)
(10.0043 0.0178804 0)
(10.0116 0.0263068 0)
(10.0198 0.031627 0)
(10.0276 0.0353686 0)
(10.0351 0.0380147 0)
(10.0423 0.039651 0)
(10.0492 0.0405589 0)
(10.0556 0.0410247 0)
(10.0616 0.0412043 0)
(10.0672 0.0411833 0)
(10.0726 0.0410272 0)
(10.0777 0.0407826 0)
(10.0825 0.040475 0)
(10.0873 0.0401078 0)
(10.0919 0.0396653 0)
(10.0964 0.0391038 0)
(10.101 0.0383685 0)
(10.0003 0.00537751 0)
(10.0037 0.0155732 0)
(10.0099 0.0232722 0)
(10.0172 0.0283962 0)
(10.0244 0.031997 0)
(10.0315 0.0345678 0)
(10.0383 0.0362306 0)
(10.0449 0.0372036 0)
(10.0511 0.0377309 0)
(10.0569 0.0379629 0)
(10.0624 0.0379839 0)
(10.0677 0.0378537 0)
(10.0728 0.0376151 0)
(10.0776 0.0372904 0)
(10.0823 0.036883 0)
(10.0869 0.0363791 0)
(10.0914 0.0357466 0)
(10.0958 0.0349568 0)
(10.0003 0.00471298 0)
(10.0032 0.0136338 0)
(10.0086 0.0206286 0)
(10.0152 0.0254884 0)
(10.0219 0.0289243 0)
(10.0285 0.0313906 0)
(10.035 0.033035 0)
(10.0413 0.034035 0)
(10.0473 0.0345957 0)
(10.053 0.0348576 0)
(10.0584 0.0349021 0)
(10.0636 0.0347846 0)
(10.0685 0.0345442 0)
(10.0733 0.0342019 0)
(10.0779 0.0337622 0)
(10.0824 0.033216 0)
(10.0868 0.0325406 0)
(10.091 0.0317277 0)
(10.0003 0.00409884 0)
(10.0028 0.011866 0)
(10.0075 0.0181317 0)
(10.0134 0.0226509 0)
(10.0196 0.0258871 0)
(10.0258 0.028223 0)
(10.032 0.0298161 0)
(10.038 0.0308151 0)
(10.0438 0.03139 0)
(10.0493 0.0316673 0)
(10.0546 0.0317243 0)
(10.0597 0.0316124 0)
(10.0646 0.0313673 0)
(10.0693 0.0310095 0)
(10.0738 0.0305452 0)
(10.0782 0.0299706 0)
(10.0824 0.029271 0)
(10.0865 0.0284536 0)
(10.0002 0.00346444 0)
(10.0024 0.0100287 0)
(10.0064 0.0154534 0)
(10.0117 0.019507 0)
(10.0174 0.0224598 0)
(10.0232 0.0246051 0)
(10.029 0.0260955 0)
(10.0347 0.0270551 0)
(10.0402 0.0276182 0)
(10.0456 0.0278928 0)
(10.0507 0.0279497 0)
(10.0556 0.0278354 0)
(10.0604 0.0275824 0)
(10.065 0.0272102 0)
(10.0694 0.0267275 0)
(10.0736 0.0261357 0)
(10.0777 0.0254282 0)
(10.0816 0.0246231 0)
(10.0002 0.00280569 0)
(10.002 0.0081203 0)
(10.0055 0.0126034 0)
(10.0101 0.0160614 0)
(10.0153 0.0186282 0)
(10.0206 0.020507 0)
(10.026 0.0218297 0)
(10.0314 0.0226971 0)
(10.0367 0.0232104 0)
(10.0418 0.0234558 0)
(10.0467 0.0234942 0)
(10.0515 0.0233665 0)
(10.0561 0.0231013 0)
(10.0605 0.0227173 0)
(10.0648 0.0222251 0)
(10.0689 0.0216309 0)
(10.0728 0.0209345 0)
(10.0766 0.0201605 0)
(10.0002 0.00212177 0)
(10.0017 0.00614243 0)
(10.0047 0.00958986 0)
(10.0087 0.012318 0)
(10.0134 0.0143792 0)
(10.0183 0.0158978 0)
(10.0233 0.016973 0)
(10.0283 0.0176807 0)
(10.0333 0.0180928 0)
(10.0382 0.0182724 0)
(10.0429 0.0182674 0)
(10.0475 0.0181115 0)
(10.052 0.0178285 0)
(10.0562 0.0174355 0)
(10.0603 0.0169441 0)
(10.0642 0.0163633 0)
(10.068 0.0156966 0)
(10.0716 0.0149719 0)
(10.0002 0.00140954 0)
(10.0015 0.00408064 0)
(10.0041 0.00639572 0)
(10.0076 0.00825898 0)
(10.0118 0.00968281 0)
(10.0163 0.0107318 0)
(10.0209 0.0114668 0)
(10.0257 0.0119367 0)
(10.0304 0.012186 0)
(10.035 0.0122553 0)
(10.0395 0.0121769 0)
(10.0439 0.0119749 0)
(10.0482 0.0116671 0)
(10.0523 0.0112674 0)
(10.0562 0.0107861 0)
(10.0599 0.0102328 0)
(10.0635 0.00961225 0)
(10.0669 0.00895148 0)
(10.0001 0.000652386 0)
(10.0013 0.00188258 0)
(10.0036 0.00294805 0)
(10.0069 0.00380309 0)
(10.0107 0.00444715 0)
(10.0149 0.00490281 0)
(10.0192 0.00519292 0)
(10.0237 0.0053372 0)
(10.0282 0.00535465 0)
(10.0326 0.00526303 0)
(10.0369 0.0050772 0)
(10.0411 0.00480901 0)
(10.0452 0.00446801 0)
(10.0491 0.00406242 0)
(10.0528 0.00359932 0)
(10.0564 0.00308576 0)
(10.0598 0.00252573 0)
(10.0631 0.00194225 0)
(10.0001 -0.000193002 0)
(10.0013 -0.000574284 0)
(10.0035 -0.000927211 0)
(10.0066 -0.00124306 0)
(10.0103 -0.00152217 0)
(10.0143 -0.00177848 0)
(10.0185 -0.00202997 0)
(10.0228 -0.00228893 0)
(10.0272 -0.00256308 0)
(10.0315 -0.00285835 0)
(10.0356 -0.00317961 0)
(10.0397 -0.00352969 0)
(10.0436 -0.00390985 0)
(10.0474 -0.00431985 0)
(10.051 -0.00475867 0)
(10.0545 -0.00522386 0)
(10.0577 -0.00571458 0)
(10.0609 -0.00621417 0)
(10.0001 -0.00100217 0)
(10.0013 -0.00293271 0)
(10.0037 -0.00465376 0)
(10.007 -0.00608625 0)
(10.0108 -0.00722764 0)
(10.015 -0.00813783 0)
(10.0194 -0.00887823 0)
(10.0237 -0.00949114 0)
(10.0281 -0.0100109 0)
(10.0324 -0.0104696 0)
(10.0366 -0.010892 0)
(10.0406 -0.0112954 0)
(10.0445 -0.0116909 0)
(10.0482 -0.0120866 0)
(10.0517 -0.0124872 0)
(10.0551 -0.0128954 0)
(10.0583 -0.0133135 0)
(10.0614 -0.013731 0)
(10.0002 -0.00170012 0)
(10.0015 -0.0049928 0)
(10.0041 -0.00791076 0)
(10.0078 -0.0102535 0)
(10.012 -0.0120427 0)
(10.0165 -0.0134285 0)
(10.021 -0.0145169 0)
(10.0256 -0.0153653 0)
(10.0301 -0.0160306 0)
(10.0345 -0.0165716 0)
(10.0387 -0.0170329 0)
(10.0427 -0.0174435 0)
(10.0466 -0.0178226 0)
(10.0503 -0.0181841 0)
(10.0538 -0.0185375 0)
(10.0572 -0.0188883 0)
(10.0604 -0.0192406 0)
(10.0634 -0.0195878 0)
(10.0002 -0.00236293 0)
(10.0017 -0.00702832 0)
(10.0047 -0.0111648 0)
(10.009 -0.0143278 0)
(10.0137 -0.0166181 0)
(10.0186 -0.0183459 0)
(10.0234 -0.0196715 0)
(10.0282 -0.0206656 0)
(10.0329 -0.02141 0)
(10.0374 -0.0219857 0)
(10.0417 -0.0224497 0)
(10.0458 -0.0228385 0)
(10.0497 -0.0231789 0)
(10.0534 -0.0234903 0)
(10.057 -0.0237861 0)
(10.0603 -0.0240738 0)
(10.0635 -0.024359 0)
(10.0665 -0.0246372 0)
(10.0002 -0.00298326 0)
(10.0018 -0.00908932 0)
(10.0054 -0.0144403 0)
(10.0105 -0.0183249 0)
(10.0159 -0.0210646 0)
(10.0212 -0.0230828 0)
(10.0263 -0.0245347 0)
(10.0314 -0.0255455 0)
(10.0363 -0.0262696 0)
(10.041 -0.0268171 0)
(10.0454 -0.0272446 0)
(10.0496 -0.0275877 0)
(10.0535 -0.027876 0)
(10.0572 -0.0281319 0)
(10.0608 -0.0283696 0)
(10.0641 -0.0285976 0)
(10.0673 -0.0288213 0)
(10.0703 -0.0290385 0)
(10.0001 -0.00353008 0)
(10.0018 -0.0115452 0)
(10.0063 -0.0178786 0)
(10.0123 -0.0219732 0)
(10.0183 -0.0250374 0)
(10.0241 -0.0274442 0)
(10.0297 -0.0290798 0)
(10.0351 -0.0300878 0)
(10.0402 -0.0307386 0)
(10.045 -0.0311973 0)
(10.0495 -0.0315313 0)
(10.0537 -0.0317816 0)
(10.0577 -0.0319818 0)
(10.0615 -0.0321562 0)
(10.065 -0.032318 0)
(10.0683 -0.0324748 0)
(10.0715 -0.0326299 0)
(10.0744 -0.0327803 0)
(9.99991 -0.00337943 0)
(10.0016 -0.0149635 0)
(10.0073 -0.0227194 0)
(10.0142 -0.026229 0)
(10.0206 -0.0288141 0)
(10.0269 -0.0311777 0)
(10.0331 -0.0328974 0)
(10.0391 -0.033984 0)
(10.0445 -0.0346827 0)
(10.0495 -0.035146 0)
(10.0541 -0.0354441 0)
(10.0584 -0.0356315 0)
(10.0624 -0.0357544 0)
(10.0661 -0.0358435 0)
(10.0696 -0.0359172 0)
(10.0727 -0.0359852 0)
(10.0757 -0.0360524 0)
(10.0784 -0.0361174 0)
(9.9986 -0.000397087 0)
(9.99909 -0.0157529 0)
(10.0075 -0.0274246 0)
(10.0166 -0.0324839 0)
(10.0238 -0.034859 0)
(10.0307 -0.0362134 0)
(10.0376 -0.0369639 0)
(10.0441 -0.0374295 0)
(10.0499 -0.0377773 0)
(10.055 -0.0380241 0)
(10.0596 -0.0381691 0)
(10.0637 -0.0382378 0)
(10.0673 -0.0382598 0)
(10.0704 -0.0382566 0)
(10.0732 -0.0382435 0)
(10.0756 -0.0382286 0)
(10.0778 -0.0382161 0)
(10.0797 -0.0382038 0)
(9.99488 0.0013363 0)
(9.99288 -0.00809009 0)
(10.006 -0.0203477 0)
(10.0202 -0.0322713 0)
(10.0307 -0.0404721 0)
(10.0393 -0.0441424 0)
(10.0467 -0.0450536 0)
(10.0529 -0.0449079 0)
(10.0578 -0.0444402 0)
(10.0617 -0.0438441 0)
(10.0647 -0.0431993 0)
(10.0669 -0.0425631 0)
(10.0683 -0.0419695 0)
(10.0692 -0.0414268 0)
(10.0695 -0.0409446 0)
(10.0694 -0.0405195 0)
(10.0689 -0.0401487 0)
(10.0681 -0.0398068 0)
(9.99473 -0.0305609 0)
(9.99925 -0.0228702 0)
(10.0147 -0.00263269 0)
(10.0304 -0.0019056 0)
(10.0435 -0.011654 0)
(10.0533 -0.0209168 0)
(10.0594 -0.0272729 0)
(10.0619 -0.0314999 0)
(10.0615 -0.0342742 0)
(10.0591 -0.03597 0)
(10.0551 -0.0369018 0)
(10.0498 -0.0373356 0)
(10.0435 -0.0374618 0)
(10.0365 -0.0374002 0)
(10.029 -0.0372412 0)
(10.0211 -0.0370399 0)
(10.0129 -0.0368615 0)
(10.0047 -0.0366746 0)
(10.0273 -0.182758 0)
(10.0763 -0.288313 0)
(10.0872 -0.247754 0)
(10.0777 -0.186518 0)
(10.0664 -0.140294 0)
(10.0538 -0.108218 0)
(10.0365 -0.085878 0)
(10.0145 -0.0704174 0)
(9.98941 -0.0596481 0)
(9.96238 -0.0518739 0)
(9.93442 -0.0460518 0)
(9.9061 -0.0415545 0)
(9.87794 -0.037999 0)
(9.85024 -0.0351248 0)
(9.82326 -0.0327596 0)
(9.7971 -0.0308401 0)
(9.77201 -0.0293253 0)
(9.74802 -0.0285079 0)
(9.93574 0.68932 0)
(9.86861 0.609605 0)
(9.76454 0.380624 0)
(9.62665 0.217443 0)
(9.48591 0.119269 0)
(9.35723 0.0631883 0)
(9.24272 0.0315772 0)
(9.14118 0.0136177 0)
(9.05151 0.00326484 0)
(8.97254 -0.0027964 0)
(8.90265 -0.00635204 0)
(8.84049 -0.0084715 0)
(8.7848 -0.00972251 0)
(8.7347 -0.0104695 0)
(8.68927 -0.0109731 0)
(8.64794 -0.0112428 0)
(8.60974 -0.011451 0)
(8.5744 -0.0121127 0)
(0.00818664 -0.0181084 -6.81963e-19)
(0.0222668 -0.0203986 4.85815e-19)
(0.0309293 -0.0122208 0)
(0.0335356 -0.00191902 0)
(0.0297019 0.00699545 0)
(0.0207538 0.0134827 -2.08532e-19)
(0.00802074 0.0177026 0)
(-0.00738305 0.0201875 0)
(-0.0246514 0.0215293 0)
(-0.0432744 0.0221929 0)
(-0.0628672 0.0224842 1.17416e-19)
(-0.0831819 0.0226 0)
(-0.104067 0.022687 0)
(-0.125458 0.0228859 0)
(-0.14735 0.0233888 0)
(-0.169794 0.0243758 8.17752e-20)
(-0.192866 0.0259131 0)
(-0.216658 0.0279864 0)
(-0.241386 0.0303614 0)
(-0.267304 0.0324757 0)
(-0.294246 0.0340915 0)
(-0.322008 0.0305029 0)
(-0.349972 0.019506 0)
(-0.37534 0.0139965 6.85085e-20)
(-0.400028 0.0179214 -6.59603e-20)
(-0.427992 0.0227023 6.35993e-20)
(-0.457858 0.0297354 6.13174e-20)
(-0.490229 0.0411285 0)
(-0.526088 0.0583351 0)
(-0.564111 0.0822813 -6.21503e-20)
(-0.606332 0.0623487 -7.72582e-20)
(-0.649047 0.0303908 0)
(-0.680344 0.0433727 0)
(-0.719467 0.0333514 -7.50624e-20)
(-0.757801 0.0282883 0)
(-0.792907 0.03529 0)
(-0.832183 0.0359285 6.75767e-20)
(-0.871183 0.0359798 0)
(-0.91034 0.0358803 6.32312e-20)
(-0.949581 0.0357419 1.22528e-19)
(-0.988867 0.0355397 0)
(-1.02815 0.0352951 0)
(-1.0674 0.0350197 0)
(-1.10658 0.034724 0)
(-1.14567 0.0344157 0)
(-1.18467 0.0340991 1.03738e-19)
(-1.22357 0.0337777 1.01242e-19)
(-1.26234 0.0334524 9.88859e-20)
(-1.30099 0.0331239 0)
(-1.3395 0.0327915 -9.45483e-20)
(-1.37787 0.0324544 0)
(-1.41608 0.0321109 9.06428e-20)
(-1.45412 0.0317599 8.8831e-20)
(-1.49197 0.0313995 0)
(-1.52962 0.0310281 0)
(-1.56705 0.0306435 0)
(-1.60423 0.0302446 8.23593e-20)
(-1.64114 0.0298292 0)
(-1.67776 0.029396 0)
(-1.71405 0.028943 0)
(-1.74998 0.0284694 0)
(-1.78553 0.0279735 0)
(-1.82065 0.0274547 0)
(-1.85532 0.0269113 0)
(-1.88949 0.0263431 0)
(-1.92313 0.0257487 -7.10029e-20)
(-1.9562 0.0251283 0)
(-1.98865 0.024481 0)
(-2.02044 0.023807 6.7854e-20)
(-2.05154 0.0231061 6.685e-20)
(-2.0819 0.0223786 0)
(-2.11147 0.0216242 -6.48972e-20)
(-2.14022 0.0208435 6.39437e-20)
(-2.1681 0.0200368 0)
(-2.19506 0.0192046 -6.20705e-20)
(-2.22108 0.0183475 0)
(-2.2461 0.017467 0)
(-2.27008 0.0165641 5.93155e-20)
(-2.29299 0.0156397 0)
(-2.31478 0.0146951 -5.74927e-20)
(-2.33542 0.0137315 0)
(-2.35487 0.0127501 5.56637e-20)
(-2.3731 0.0117513 5.47427e-20)
(-2.39008 0.0107359 5.38145e-20)
(-2.40577 0.00970476 1.05757e-19)
(-2.42015 0.00865943 -1.03864e-19)
(-2.43318 0.00760067 0)
(-2.44483 0.00652918 0)
(-2.45507 0.00544541 0)
(-2.46387 0.00434275 -9.60466e-20)
(-2.4712 0.00321916 -9.40199e-20)
(-2.477 0.00206844 9.19624e-20)
(-2.48122 0.000900731 0)
(-2.48375 -0.000221698 -8.77499e-20)
(-2.48459 -0.00119053 -8.55561e-20)
(-2.4842 -0.00203512 -8.33223e-20)
(-2.48256 -0.00284037 0)
(-2.47972 -0.00361265 0)
(-2.47571 -0.00435209 0)
(-2.47056 -0.00505454 -7.39156e-20)
(-2.46429 -0.00571877 0)
(-2.45692 -0.00635006 0)
(-2.4485 -0.00695136 6.63393e-20)
(-2.43903 -0.00752205 0)
(-2.42856 -0.00806226 0)
(-2.41711 -0.00857026 5.83226e-20)
(-2.40472 -0.00904684 0)
(-2.39142 -0.00949062 0)
(-2.37725 -0.00990291 -4.98909e-20)
(-2.36222 -0.0102827 -4.69937e-20)
(-2.34638 -0.0106312 0)
(-2.32976 -0.0109479 4.10778e-20)
(-2.31237 -0.011234 0)
(-2.29424 -0.0114898 -3.50098e-20)
(-2.2754 -0.0117163 0)
(-2.25587 -0.0119145 -2.88032e-20)
(-2.23566 -0.0120848 -2.56522e-20)
(-2.21478 -0.0122299 0)
(-2.19324 -0.0123532 0)
(-2.17104 -0.0124625 0)
(-2.14821 -0.0125609 0)
(-2.12471 -0.0126517 0)
(-2.10054 -0.0127307 0)
(-2.07565 -0.0128012 0)
(-2.04999 -0.0128593 5.73533e-22)
(-2.02353 -0.0129176 -3.97852e-21)
(-1.99622 -0.012974 0)
(-1.96801 -0.0130453 0)
(-1.93882 -0.0131269 0)
(-1.90859 -0.0132365 0)
(-1.87722 -0.0133692 -4.33472e-20)
(-1.84463 -0.0135494 0)
(-1.8107 -0.0137737 5.84725e-20)
(-1.77531 -0.0140646 -6.63548e-20)
(-1.73834 -0.0144163 0)
(-1.69967 -0.0148558 0)
(-1.65916 -0.0153909 0)
(-1.61664 -0.0160466 1.01139e-19)
(-1.57197 -0.016779 1.11001e-19)
(-1.52501 -0.0176673 0)
(-1.47563 -0.0187361 1.32687e-19)
(-1.42368 -0.0199461 1.44749e-19)
(-1.36904 -0.0213194 -1.57814e-19)
(-1.31153 -0.0228958 0)
(-1.25101 -0.0246431 0)
(-1.18739 -0.0265138 -2.04825e-19)
(-1.12056 -0.028553 0)
(-1.05045 -0.0307635 0)
(-0.976969 -0.0331417 0)
(-0.90007 -0.035675 0)
(-0.819744 -0.0383544 3.24441e-19)
(-0.73599 -0.0411722 3.5771e-19)
(-0.648835 -0.0441203 0)
(-0.558334 -0.047187 4.37838e-19)
(-0.464567 -0.050356 0)
(-0.367742 -0.0536278 0)
(-0.267966 -0.0569618 6.05207e-19)
(-0.165603 -0.0603587 0)
(-0.0602553 -0.0626695 7.23821e-19)
(0.0495898 -0.0629741 0)
(0.162057 -0.062256 0)
(0.275912 -0.0612304 6.58137e-19)
(0.390477 -0.0600158 0)
(0.505047 -0.0586368 6.19436e-19)
(0.619014 -0.0571074 0)
(0.731813 -0.0554334 0)
(0.842956 -0.0536367 0)
(0.951931 -0.0517254 -5.66151e-19)
(1.05837 -0.0497271 0)
(1.16187 -0.0476395 5.46957e-19)
(1.26208 -0.0454686 0)
(1.35869 -0.0432212 0)
(1.45132 -0.0408873 0)
(1.53953 -0.0384452 0)
(1.62282 -0.0358189 0)
(1.70002 -0.0328653 0)
(1.77048 -0.0291213 0)
(1.82563 -0.0238917 -1.01028e-18)
(1.87627 -0.0123298 0)
(1.82757 0.011357 0)
(0.00460645 -0.0446869 1.51996e-18)
(0.00784772 -0.0316365 -7.73997e-19)
(0.00500572 -0.0120668 0)
(-0.00120481 0.00607352 2.31446e-19)
(-0.0102147 0.0215132 0)
(-0.0219755 0.0338018 8.54731e-20)
(-0.0363002 0.0430698 -1.55062e-19)
(-0.0529731 0.0497915 -1.42743e-19)
(-0.0717075 0.0545611 0)
(-0.0922067 0.0579328 -1.24011e-19)
(-0.114215 0.0603498 -5.83885e-20)
(-0.137537 0.0621388 0)
(-0.162045 0.0635361 0)
(-0.187668 0.0647195 0)
(-0.214372 0.0658401 0)
(-0.242149 0.0670335 -4.71022e-20)
(-0.270995 0.0684119 0)
(-0.300936 0.0700493 9.0371e-20)
(-0.332019 0.0719563 0)
(-0.364243 0.0740063 0)
(-0.397278 0.0759694 -8.85109e-20)
(-0.431578 0.0773554 0)
(-0.46792 0.0779778 8.53674e-20)
(-0.506064 0.0791765 -4.17565e-20)
(-0.545479 0.081585 4.10314e-20)
(-0.585484 0.0840015 -4.05997e-20)
(-0.625965 0.0860005 -4.00863e-20)
(-0.666535 0.0878322 0)
(-0.705749 0.0899287 0)
(-0.742364 0.0917735 3.92286e-20)
(-0.781363 0.0922833 -4.00857e-20)
(-0.821631 0.0918324 0)
(-0.862266 0.0932017 0)
(-0.901653 0.0938758 3.6177e-20)
(-0.940839 0.0936657 0)
(-0.979896 0.0936615 0)
(-1.01777 0.093452 -3.34075e-20)
(-1.05525 0.0929208 0)
(-1.09237 0.0922077 3.1725e-20)
(-1.12918 0.0913816 -6.23871e-20)
(-1.16568 0.0904772 0)
(-1.20192 0.0895187 0)
(-1.23789 0.088525 -1.16933e-19)
(-1.27362 0.0875088 -1.14678e-19)
(-1.30911 0.0864792 -1.12531e-19)
(-1.34436 0.0854408 5.50789e-20)
(-1.37937 0.0843966 -5.44262e-20)
(-1.41414 0.0833464 -1.60146e-19)
(-1.44867 0.0822897 1.04863e-19)
(-1.48294 0.081224 5.17304e-20)
(-1.51694 0.0801467 0)
(-1.55067 0.079054 -5.01031e-20)
(-1.58411 0.0779431 4.90192e-20)
(-1.61725 0.0768099 0)
(-1.65007 0.0756514 0)
(-1.68254 0.0744636 0)
(-1.71465 0.0732437 -4.64912e-20)
(-1.74637 0.0719884 0)
(-1.77769 0.0706953 9.00871e-20)
(-1.80857 0.0693613 0)
(-1.83898 0.0679847 8.76191e-20)
(-1.8689 0.0665632 0)
(-1.89831 0.0650956 -8.52563e-20)
(-1.92716 0.0635803 0)
(-1.95542 0.0620166 8.29788e-20)
(-1.98308 0.0604035 -4.08087e-20)
(-2.01009 0.0587412 0)
(-2.03641 0.0570296 -7.96824e-20)
(-2.06203 0.0552693 -3.94156e-20)
(-2.0869 0.053461 -3.88775e-20)
(-2.11099 0.051606 0)
(-2.13427 0.0497054 -3.76129e-20)
(-2.1567 0.0477609 -3.72768e-20)
(-2.17826 0.0457742 0)
(-2.19891 0.0437475 3.62117e-20)
(-2.21862 0.041683 -7.12016e-20)
(-2.23736 0.0395837 0)
(-2.2551 0.0374528 -3.45994e-20)
(-2.27181 0.0352934 0)
(-2.28747 0.0331087 1.00413e-19)
(-2.30204 0.0309024 0)
(-2.31551 0.0286786 -9.70897e-20)
(-2.32785 0.0264404 -3.18195e-20)
(-2.33905 0.024191 3.11968e-20)
(-2.34908 0.021933 6.12537e-20)
(-2.35794 0.0196691 -6.00965e-20)
(-2.3656 0.0174017 0)
(-2.37205 0.0151337 0)
(-2.37731 0.0128667 0)
(-2.38137 0.0105994 1.65643e-19)
(-2.38426 0.00833015 5.38974e-20)
(-2.38604 0.00606251 -5.25894e-20)
(-2.38677 0.00381656 0)
(-2.38655 0.00164765 -5.00764e-20)
(-2.38549 -0.000350772 4.84961e-20)
(-2.38328 -0.00218732 4.70795e-20)
(-2.37991 -0.00393615 0)
(-2.3754 -0.00561884 0)
(-2.36974 -0.0072385 0)
(-2.36296 -0.00879864 4.12001e-20)
(-2.35509 -0.010297 0)
(-2.34614 -0.0117333 -7.66647e-20)
(-2.33615 -0.0131069 -1.10145e-19)
(-2.32514 -0.0144173 7.04312e-20)
(-2.31314 -0.0156649 0)
(-2.30017 -0.016849 3.22607e-20)
(-2.28628 -0.0179717 0)
(-2.27147 -0.019033 5.75697e-20)
(-2.25579 -0.0200363 -2.73935e-20)
(-2.23926 -0.0209825 -2.57457e-20)
(-2.2219 -0.0218755 0)
(-2.20373 -0.0227169 -6.62112e-20)
(-2.18479 -0.0235111 4.09613e-20)
(-2.16509 -0.0242613 1.85315e-20)
(-2.14465 -0.0249727 0)
(-2.12348 -0.0256493 1.51561e-20)
(-2.10159 -0.0262946 4.09356e-20)
(-2.07899 -0.0269123 0)
(-2.05567 -0.0275104 2.07175e-20)
(-2.03165 -0.0281015 1.73515e-20)
(-2.00692 -0.0286984 1.39963e-20)
(-1.98146 -0.0293105 0)
(-1.95526 -0.0299379 0)
(-1.92826 -0.0305847 0)
(-1.90043 -0.0312493 -6.01489e-22)
(-1.8717 -0.0319459 1.48501e-21)
(-1.84203 -0.0326782 0)
(-1.81135 -0.0334665 8.99091e-21)
(-1.77959 -0.0343113 1.21976e-20)
(-1.74667 -0.0352301 0)
(-1.7125 -0.0362189 1.89463e-20)
(-1.67697 -0.0373024 4.34878e-20)
(-1.63998 -0.0384779 -2.52694e-20)
(-1.6014 -0.0397639 -2.77616e-20)
(-1.56111 -0.0411515 0)
(-1.51895 -0.0426596 0)
(-1.47479 -0.0442854 0)
(-1.42846 -0.0460522 -4.14727e-20)
(-1.37981 -0.0479413 4.42435e-20)
(-1.32866 -0.0499606 9.62202e-20)
(-1.27488 -0.0521247 -5.21385e-20)
(-1.21831 -0.0544285 5.51825e-20)
(-1.15879 -0.0568757 6.0033e-20)
(-1.09614 -0.0594499 0)
(-1.03023 -0.0621286 0)
(-0.960925 -0.0648927 -7.25271e-20)
(-0.888076 -0.0677361 0)
(-0.811592 -0.0706405 0)
(-0.731411 -0.0735825 1.79961e-19)
(-0.647501 -0.0765461 0)
(-0.559857 -0.0795152 1.02413e-19)
(-0.468508 -0.082466 -1.12475e-19)
(-0.373519 -0.0853794 0)
(-0.275004 -0.0882414 1.26695e-19)
(-0.173128 -0.0910392 0)
(-0.0679674 -0.0936989 0)
(0.0404724 -0.096142 -1.53746e-19)
(0.151692 -0.0985892 3.12094e-19)
(0.26464 -0.100634 -1.62644e-19)
(0.378342 -0.101574 0)
(0.492326 -0.101539 0)
(0.606453 -0.100843 1.72771e-19)
(0.720362 -0.099615 0)
(0.833588 -0.097927 1.8183e-19)
(0.945679 -0.0958293 0)
(1.0562 -0.0933702 0)
(1.16477 -0.0905973 0)
(1.271 -0.0875535 2.0168e-19)
(1.37457 -0.0842752 0)
(1.47515 -0.0807993 -2.08322e-19)
(1.57246 -0.0771469 0)
(1.6662 -0.0733266 0)
(1.75603 -0.0692979 4.30494e-19)
(1.84158 -0.0650013 -4.35682e-19)
(1.92238 -0.0602801 0)
(1.99748 -0.0548378 0)
(2.06604 -0.0477232 0)
(2.12368 -0.0375576 1.37659e-18)
(2.1735 -0.0172255 0)
(2.19441 0.0235714 -9.68361e-19)
(-0.00320699 -0.0452935 -1.08391e-21)
(-0.00893372 -0.0184174 7.41652e-19)
(-0.0182549 0.00682179 0)
(-0.0300298 0.0287823 -2.96525e-19)
(-0.0433933 0.0476239 0)
(-0.0581252 0.0634645 0)
(-0.0743415 0.0764449 2.11499e-23)
(-0.0921712 0.0868385 9.23669e-20)
(-0.111655 0.0950428 8.7236e-20)
(-0.132758 0.101508 8.3044e-20)
(-0.155404 0.106671 0)
(-0.179505 0.110916 0)
(-0.20498 0.114564 -7.36739e-20)
(-0.231769 0.117882 -1.42742e-19)
(-0.259814 0.12109 1.38848e-19)
(-0.289053 0.124368 0)
(-0.31941 0.127845 1.33071e-19)
(-0.350804 0.131567 -6.55211e-20)
(-0.383157 0.135498 0)
(-0.416359 0.139449 1.27637e-19)
(-0.450297 0.143081 6.2845e-20)
(-0.485043 0.145958 -1.23135e-19)
(-0.520847 0.147964 -6.01816e-20)
(-0.55767 0.150008 0)
(-0.594963 0.15261 1.14388e-19)
(-0.632117 0.15536 1.11766e-19)
(-0.668865 0.157947 0)
(-0.704897 0.16026 1.06791e-19)
(-0.739719 0.16215 0)
(-0.773318 0.16321 1.03055e-19)
(-0.806731 0.161801 5.06338e-20)
(-0.840746 0.159068 0)
(-0.875031 0.157163 0)
(-0.909104 0.154843 0)
(-0.943159 0.152689 0)
(-0.977081 0.151066 0)
(-1.01049 0.149371 0)
(-1.04356 0.147633 8.54272e-20)
(-1.07637 0.14587 -1.2564e-19)
(-1.10894 0.144095 0)
(-1.14131 0.14231 0)
(-1.17349 0.140521 0)
(-1.20548 0.138729 1.63486e-22)
(-1.23731 0.136939 7.64612e-20)
(-1.26896 0.135152 1.50172e-19)
(-1.30045 0.133366 -1.47692e-19)
(-1.33177 0.131579 -7.25676e-20)
(-1.36291 0.129789 7.15919e-20)
(-1.39388 0.127991 -1.73975e-22)
(-1.42465 0.12618 6.92411e-20)
(-1.45523 0.12435 0)
(-1.48559 0.122497 6.7203e-20)
(-1.51573 0.120613 -1.74521e-22)
(-1.54562 0.118695 0)
(-1.57526 0.116736 0)
(-1.60461 0.114731 -6.34664e-20)
(-1.63367 0.112676 0)
(-1.6624 0.110566 0)
(-1.69079 0.108398 6.07299e-20)
(-1.7188 0.106168 1.20148e-19)
(-1.74642 0.103874 -5.94281e-20)
(-1.77362 0.101512 0)
(-1.80036 0.0990805 5.78455e-20)
(-1.82663 0.0965783 0)
(-1.85238 0.0940044 5.60092e-20)
(-1.87758 0.0913581 5.55442e-20)
(-1.90222 0.0886397 -1.09306e-19)
(-1.92624 0.0858495 -5.37762e-20)
(-1.94963 0.0829887 0)
(-1.97235 0.0800586 1.04868e-19)
(-1.99436 0.0770615 0)
(-2.01563 0.0739993 1.53008e-19)
(-2.03614 0.0708751 1.00462e-19)
(-2.05584 0.0676918 9.89899e-20)
(-2.07471 0.0644531 -9.75126e-20)
(-2.09271 0.0611628 1.44127e-19)
(-2.10981 0.0578259 0)
(-2.12599 0.054447 0)
(-2.14121 0.0510314 -9.15124e-20)
(-2.15545 0.0475843 -1.35024e-19)
(-2.16867 0.0441118 0)
(-2.18086 0.0406199 4.34703e-20)
(-2.192 0.0371147 0)
(-2.20206 0.0336024 -1.25531e-19)
(-2.21102 0.0300896 -2.31635e-23)
(-2.21887 0.0265826 5.46484e-24)
(-2.2256 0.0230888 7.87177e-20)
(-2.2312 0.019616 0)
(-2.23567 0.0161735 -7.52903e-20)
(-2.23902 0.0127707 6.56305e-23)
(-2.24126 0.00942004 0)
(-2.24242 0.00614105 0)
(-2.2425 0.00296048 0)
(-2.24151 -9.65767e-05 6.60634e-20)
(-2.23944 -0.00304032 0)
(-2.23624 -0.00589207 0)
(-2.23191 -0.00865135 0)
(-2.22647 -0.0113142 0)
(-2.21992 -0.0138801 0)
(-2.21229 -0.0163479 5.43312e-20)
(-2.2036 -0.0187163 0)
(-2.19386 -0.0209844 4.9944e-20)
(-2.18311 -0.0231519 4.78364e-20)
(-2.17136 -0.0252185 -4.57122e-20)
(-2.15865 -0.0271843 0)
(-2.145 -0.0290503 -4.14206e-20)
(-2.13043 -0.0308185 0)
(-2.11498 -0.0324913 -3.70833e-20)
(-2.09866 -0.0340723 3.49019e-20)
(-2.0815 -0.0355652 9.87853e-20)
(-2.06352 -0.0369747 0)
(-2.04475 -0.0383053 8.56439e-20)
(-2.02519 -0.0395627 2.67972e-20)
(-2.00488 -0.0407528 0)
(-1.98381 -0.0418832 4.41699e-20)
(-1.96201 -0.0429606 3.98005e-20)
(-1.93948 -0.0439923 -5.28337e-20)
(-1.91622 -0.0449856 0)
(-1.89222 -0.0459532 -1.30652e-20)
(-1.8675 -0.0469113 -1.09208e-20)
(-1.84204 -0.0478778 -2.70089e-20)
(-1.81583 -0.0488648 0)
(-1.78884 -0.0498804 0)
(-1.76102 -0.0509284 0)
(-1.73233 -0.0520175 -1.04636e-21)
(-1.7027 -0.0531593 0)
(-1.6721 -0.0543689 0)
(-1.64043 -0.0556634 -5.56419e-21)
(-1.60764 -0.0570573 -7.5311e-21)
(-1.57363 -0.0585629 0)
(-1.53832 -0.0601895 0)
(-1.50159 -0.0619571 -2.66504e-20)
(-1.46335 -0.063879 0)
(-1.42345 -0.0659671 3.42547e-20)
(-1.38178 -0.0682246 3.75978e-20)
(-1.33818 -0.0706631 0)
(-1.2925 -0.0732912 0)
(-1.2446 -0.0761235 -4.9097e-20)
(-1.19429 -0.0791535 -4.44205e-22)
(-1.14143 -0.0823802 -4.56284e-22)
(-1.08587 -0.0858159 0)
(-1.02744 -0.0894549 -1.31267e-19)
(-0.965984 -0.0932886 0)
(-0.901339 -0.0972911 0)
(-0.833372 -0.101434 0)
(-0.761932 -0.105685 8.50775e-20)
(-0.68689 -0.110013 0)
(-0.60818 -0.114385 -1.91161e-19)
(-0.52576 -0.118758 -1.02829e-19)
(-0.439619 -0.123092 0)
(-0.349777 -0.127348 -1.16797e-19)
(-0.256299 -0.131486 0)
(-0.159293 -0.135465 0)
(-0.0588999 -0.13922 -4.17862e-19)
(0.0447077 -0.1427 2.90176e-19)
(0.151172 -0.145877 0)
(0.260044 -0.148614 3.14289e-19)
(0.370782 -0.15083 -1.65652e-19)
(0.482767 -0.152461 0)
(0.595354 -0.15332 0)
(0.708109 -0.153294 0)
(0.820688 -0.15244 -5.70794e-19)
(0.932682 -0.150832 0)
(1.04366 -0.148545 -2.04955e-19)
(1.1532 -0.145637 0)
(1.26092 -0.142176 0)
(1.36645 -0.138224 0)
(1.46947 -0.133844 0)
(1.56967 -0.129089 0)
(1.66678 -0.124005 0)
(1.76053 -0.118616 -4.84704e-19)
(1.85066 -0.112939 0)
(1.93691 -0.106929 -2.53557e-19)
(2.01895 -0.100487 7.69857e-19)
(2.09639 -0.0933863 0)
(2.16848 -0.0851748 0)
(2.23464 -0.0747609 -5.37622e-19)
(2.29237 -0.0601993 -5.50114e-19)
(2.34445 -0.036111 5.59419e-19)
(2.38069 0.00776172 5.83956e-19)
(-0.00981746 -0.0268476 -2.27518e-18)
(-0.0213051 0.00762034 -8.87491e-19)
(-0.0348672 0.0355922 -3.21764e-19)
(-0.0506623 0.0593484 -1.15739e-19)
(-0.0673972 0.0799019 0)
(-0.0847743 0.0976726 1.67761e-19)
(-0.102975 0.112876 -7.66978e-20)
(-0.122212 0.125723 0)
(-0.142631 0.136488 -6.79867e-20)
(-0.164316 0.145507 0)
(-0.187293 0.153131 1.25073e-19)
(-0.21155 0.1597 0)
(-0.237043 0.165516 5.85235e-20)
(-0.263711 0.170837 1.13758e-19)
(-0.291472 0.175872 -1.10857e-19)
(-0.320219 0.180773 0)
(-0.349823 0.185631 -1.06048e-19)
(-0.380135 0.190453 0)
(-0.411004 0.195148 0)
(-0.442285 0.199528 -1.00276e-19)
(-0.473875 0.203355 0)
(-0.505761 0.206418 3.68038e-23)
(-0.537965 0.208717 0)
(-0.570426 0.210562 0)
(-0.602904 0.2122 -1.21877e-22)
(-0.635141 0.21361 -8.66937e-20)
(-0.66697 0.214716 -8.43092e-20)
(-0.698267 0.215455 -8.22759e-20)
(-0.728947 0.215707 0)
(-0.759066 0.21522 -1.56809e-19)
(-0.788929 0.213666 0)
(-0.81885 0.211381 -7.48743e-20)
(-0.84886 0.208964 0)
(-0.878843 0.206361 0)
(-0.908793 0.203746 7.00284e-20)
(-0.93863 0.201248 0)
(-0.968286 0.198765 -6.72202e-20)
(-0.997785 0.196285 -4.37426e-23)
(-1.02715 0.193817 1.29375e-19)
(-1.05639 0.191366 -1.26949e-19)
(-1.08551 0.188935 0)
(-1.11453 0.186524 0)
(-1.14343 0.184131 -6.01528e-20)
(-1.17224 0.181752 0)
(-1.20093 0.179384 -5.83272e-20)
(-1.22952 0.177021 5.74076e-20)
(-1.25799 0.174659 5.65209e-20)
(-1.28635 0.172289 0)
(-1.31457 0.169906 -5.48367e-20)
(-1.34265 0.167502 -5.40346e-20)
(-1.37059 0.16507 1.06362e-19)
(-1.39836 0.162601 -5.25001e-20)
(-1.42595 0.160088 -5.17642e-20)
(-1.45334 0.157525 0)
(-1.48052 0.154903 0)
(-1.50746 0.152218 4.96632e-20)
(-1.53415 0.149462 0)
(-1.56057 0.146629 0)