/*--------------------------------*- C++ -*----------------------------------*\
  =========                 |
  \\      /  F ield         | OpenFOAM: The Open Source CFD Toolbox
   \\    /   O peration     | Website:  https://openfoam.org
    \\  /    A nd           | Version:  8
     \\/     M anipulation  |
\*---------------------------------------------------------------------------*/
FoamFile
{
    version     2.0;
    format      ascii;
    class       volScalarField;
    location    "205";
    object      epsilon;
}
// * * * * * * * * * * * * * * * * * * * * * * * * * * * * * * * * * * * * * //

dimensions      [0 2 -3 0 0 0 0];

internalField   nonuniform List<scalar> 
12225
(
285.513
270.702
257.916
243.81
232.462
223.086
216.811
212.699
212.742
213.962
217.238
220.917
228.145
232.597
241.629
245.867
257.393
263.791
52.4937
91.8805
106.972
114.748
124.843
136.783
152.69
169.904
191.116
210.933
235.246
255.484
281.097
299.333
324.848
339.265
364.879
373.649
20.3232
34.8563
44.6751
50.4692
55.3964
59.6073
64.6646
69.6425
76.3194
83.1838
91.4423
99.3208
108.185
116.946
125.568
135.303
142.641
153.843
15.3482
19.6974
24.1128
27.5684
30.4977
32.8693
35.1558
37.293
39.5035
41.9174
44.3388
47.2023
49.6852
53.0417
55.4202
59.2444
61.4468
65.6681
14.6508
15.8626
17.3672
19.0735
20.6386
22.0257
23.2463
24.4309
25.4444
26.5946
27.524
28.7584
29.6331
30.9866
31.8154
33.2683
34.0827
35.6532
14.7068
14.8769
15.2015
15.8666
16.5669
17.2867
17.9237
18.5841
19.1192
19.734
20.1935
20.7991
21.2088
21.8231
22.199
22.8266
23.1811
23.8609
14.7421
14.6201
14.6248
14.737
14.9298
15.219
15.4913
15.8089
16.071
16.3826
16.6182
16.9203
17.131
17.4273
17.6162
17.9127
18.0823
18.4073
14.7626
14.5866
14.4638
14.3812
14.3669
14.39
14.4381
14.5337
14.6186
14.7367
14.8309
14.9565
15.0478
15.1763
15.2612
15.392
15.4702
15.6201
14.7667
14.5908
14.4346
14.2963
14.1849
14.1044
14.0398
14.0066
13.9815
13.9785
13.9809
13.9917
14.0041
14.0296
14.0472
14.0795
14.1033
14.1459
14.7663
14.594
14.432
14.282
14.143
14.0219
13.9115
13.8194
13.737
13.6698
13.6102
13.5633
13.5181
13.4872
13.4516
13.4342
13.4022
13.4009
14.7658
14.5945
14.4322
14.2803
14.1362
14.0032
13.8782
13.7644
13.6582
13.5629
13.4735
13.3952
13.3198
13.2561
13.1915
13.1408
13.0838
13.0452
14.7657
14.5943
14.4321
14.2798
14.1353
13.9999
13.8715
13.7518
13.6385
13.5337
13.4341
13.343
13.2557
13.1771
13.1003
13.0328
12.9647
12.9074
14.7657
14.5941
14.432
14.2794
14.135
13.9989
13.8699
13.7485
13.6332
13.5249
13.422
13.3257
13.2338
13.1483
13.0663
12.9906
12.9172
12.8502
14.7657
14.5939
14.4318
14.279
14.1346
13.9983
13.8692
13.7472
13.6315
13.5223
13.4184
13.3203
13.227
13.1389
13.055
12.9759
12.9002
12.8291
14.7657
14.5938
14.4317
14.2787
14.1342
13.9977
13.8686
13.7464
13.6307
13.5211
13.4171
13.3185
13.2248
13.136
13.0516
12.9715
12.8952
12.8228
14.7657
14.5937
14.4316
14.2785
14.1339
13.9973
13.8681
13.7458
13.63
13.5202
13.4161
13.3174
13.2236
13.1346
13.05
12.9697
12.8932
12.8205
14.7657
14.5937
14.4315
14.2783
14.1337
13.997
13.8677
13.7453
13.6294
13.5195
13.4154
13.3165
13.2227
13.1336
13.0489
12.9684
12.8919
12.819
14.7657
14.5937
14.4314
14.2782
14.1335
13.9968
13.8674
13.745
13.629
13.5191
13.4148
13.3159
13.222
13.1329
13.0481
12.9676
12.8909
12.818
14.7657
14.5937
14.4314
14.2782
14.1335
13.9967
13.8673
13.7448
13.6288
13.5189
13.4146
13.3157
13.2217
13.1325
13.0477
12.9671
12.8904
12.8175
14.7657
14.5937
14.4314
14.2782
14.1336
13.9968
13.8674
13.745
13.629
13.5191
13.4148
13.3159
13.2219
13.1327
13.048
12.9674
12.8907
12.8177
14.7657
14.5937
14.4315
14.2784
14.1338
13.997
13.8677
13.7453
13.6294
13.5196
13.4155
13.3166
13.2229
13.1338
13.0494
12.969
12.8927
12.82
14.7657
14.5937
14.4316
14.2785
14.1341
13.9974
13.8685
13.7464
13.6312
13.522
13.419
13.3214
13.2293
13.1418
13.0595
12.981
12.9074
12.8368
14.7658
14.5937
14.4318
14.2788
14.1353
14.0002
13.8742
13.756
13.6463
13.5435
13.4485
13.3592
13.277
13.1992
13.1282
13.0601
12.9988
12.9387
14.7655
14.5928
14.4328
14.2844
14.1515
14.0321
13.929
13.8375
13.7593
13.6894
13.6307
13.5769
13.5328
13.4905
13.4574
13.423
13.3989
13.3693
14.7592
14.5932
14.4603
14.3602
14.3029
14.2766
14.2805
14.2922
14.3211
14.3531
14.3959
14.4345
14.4824
14.5217
14.572
14.6089
14.6616
14.6938
14.7213
14.6911
14.754
14.9176
15.1828
15.4611
15.7476
16.012
16.2723
16.5038
16.7361
16.9386
17.1507
17.3309
17.5309
17.6936
17.8888
18.0359
14.7477
15.5124
16.5473
17.6841
18.7044
19.5675
20.3372
20.9968
21.6194
22.166
22.7189
23.2108
23.7399
24.2042
24.7326
25.1826
25.7249
26.1659
15.9871
20.992
25.0238
27.7604
29.7847
31.3585
32.7771
34.0579
35.3594
36.6163
37.9754
39.2971
40.7615
42.1456
43.7176
45.1735
46.8835
48.3582
29.9032
47.2182
54.8696
58.6734
61.614
64.4319
67.5807
70.9774
74.7386
78.7143
82.9854
87.3444
91.9051
96.4499
101.1
105.622
110.175
114.576
165.798
160.075
154.899
149.564
144.479
139.677
135.615
132.108
129.27
126.973
125.32
124.044
123.34
122.824
122.841
122.96
123.284
123.828
0.422848
0.456375
0.815656
1.15654
1.5195
1.90939
2.33032
2.78114
3.25456
3.7417
4.23265
4.71973
5.19581
5.65624
6.09649
6.51392
6.90567
7.27049
7.60676
7.91437
8.19238
8.44025
8.65459
8.8337
8.97008
9.03742
9.00778
8.83572
8.5521
8.92323
43.8835
43.9371
42.9337
41.6921
9.28691
8.87658
9.26476
41.4725
46.3555
48.85
52.6268
56.1464
59.9908
63.9558
68.1026
72.4259
76.9189
81.6
86.4565
91.5091
96.7441
102.183
107.812
113.652
119.688
125.944
132.402
139.085
145.975
153.096
160.427
167.991
175.768
183.781
192.005
200.465
209.134
218.036
227.142
236.476
246.008
255.76
265.7
275.851
286.175
296.697
307.377
318.237
329.238
340.4
351.68
363.098
374.609
386.23
397.91
409.665
421.441
433.248
445.036
456.801
468.5
480.1
491.575
502.915
514.15
525.374
536.412
547.313
558.035
568.569
578.889
588.974
598.801
608.347
617.589
626.505
635.073
643.272
651.079
658.475
665.435
671.943
677.976
683.516
688.547
693.051
697.015
700.425
703.269
705.534
707.218
708.309
708.788
708.568
707.663
706.323
704.591
702.097
699.017
695.351
691.134
686.362
681.075
675.276
669.005
662.263
655.057
647.458
639.506
631.234
622.686
613.9
604.916
595.775
586.511
577.167
567.775
558.376
548.999
539.686
530.463
521.366
512.421
503.663
495.113
486.805
478.756
470.999
463.56
456.491
450.015
445.733
443.509
441.04
438.499
436.645
435.154
434.03
433.31
433.161
433.406
433.789
434.694
436.041
437.699
439.582
441.49
442.842
442.468
425.625
1.8381
1.09409
1.09638
1.24228
1.46352
1.74013
2.06389
2.42645
2.81846
3.2306
3.65463
4.08406
4.51414
4.9418
5.36541
5.78469
6.20046
6.61481
7.03108
7.45409
7.89023
8.34791
8.83777
9.38693
10.0575
10.905
12.0475
13.7058
15.3209
18.7057
21.1772
21.9619
21.3138
20.2207
18.5208
20.8617
24.4172
28.0139
29.5818
31.264
33.083
34.9255
36.848
38.8309
40.883
43.0046
45.1969
47.4626
49.8017
52.2171
54.7086
57.2789
59.9274
62.6569
65.4665
68.3587
71.3322
74.3894
77.5288
80.7524
84.0582
87.4484
90.9203
94.4758
98.1118
101.83
105.626
109.502
113.454
117.483
121.583
125.756
129.996
134.304
138.673
143.104
147.589
152.128
156.715
161.347
166.017
170.723
175.455
180.212
184.982
189.762
194.542
199.316
204.073
208.809
213.513
218.179
222.81
227.417
232.027
236.699
241.334
245.908
250.416
254.849
259.199
263.457
267.616
271.666
275.599
279.407
283.081
286.612
289.993
293.214
296.267
299.145
301.84
304.342
306.647
308.746
310.633
312.302
313.746
314.962
315.942
316.683
317.174
317.395
317.375
317.157
316.729
316.024
315.057
313.849
312.408
310.735
308.842
306.733
304.418
301.903
299.198
296.32
293.284
290.104
286.794
283.37
279.849
276.245
272.574
268.852
265.093
261.313
257.526
253.748
249.991
246.27
242.599
238.989
235.455
232.008
228.66
225.424
222.316
219.361
216.646
214.505
212.846
211.214
209.69
208.409
207.305
206.377
205.628
205.104
204.781
204.584
204.587
204.802
205.188
205.706
206.369
207.159
207.787
208.323
3.66825
1.85165
1.64383
1.69407
1.85043
2.07781
2.36089
2.68924
3.05325
3.44385
3.85318
4.27519
4.70557
5.14172
5.58309
6.03109
6.48783
6.95697
7.44373
7.95515
8.50046
9.09184
9.74578
10.4758
11.2832
12.1937
13.2234
14.3698
15.5557
16.8545
17.923
18.657
19.2424
19.9477
20.9796
22.5754
24.3038
25.902
27.3022
28.7475
30.2531
31.8098
33.4218
35.0881
36.8101
38.5886
40.4242
42.3181
44.2709
46.2835
48.3564
50.4906
52.6863
54.9443
57.265
59.649
62.0962
64.6073
67.182
69.8207
72.523
75.289
78.1181
81.0101
83.9642
86.9799
90.0562
93.1922
96.3865
99.6381
102.945
106.306
109.72
113.183
116.694
120.251
123.85
127.489
131.165
134.875
138.614
142.381
146.169
149.976
153.797
157.627
161.461
165.296
169.128
172.952
176.766
180.568
184.359
188.143
191.924
195.698
199.436
203.129
206.769
210.352
213.871
217.318
220.688
223.972
227.165
230.26
233.249
236.126
238.885
241.518
244.018
246.38
248.596
250.659
252.565
254.307
255.88
257.277
258.495
259.528
260.373
261.024
261.479
261.703
261.761
261.658
261.35
260.836
260.119
259.208
258.108
256.824
255.361
253.725
251.922
249.959
247.846
245.592
243.21
240.709
238.102
235.4
232.617
229.765
226.855
223.9
220.912
217.904
214.887
211.872
208.871
205.896
202.956
200.063
197.226
194.457
191.764
189.158
186.65
184.258
182.025
180.057
178.334
176.723
175.232
173.899
172.709
171.662
170.758
170.012
169.416
168.945
168.619
168.469
168.454
168.52
168.787
169.245
169.874
171.375
5.59149
2.6616
2.24283
2.21438
2.33025
2.53015
2.79128
3.10138
3.45123
3.83281
4.2392
4.66486
5.10607
5.56097
6.029
6.51069
7.00825
7.52497
8.06509
8.63368
9.23642
9.87917
10.5671
11.3033
12.0886
12.9241
13.8077
14.7332
15.714
16.7254
17.7046
18.6558
19.6319
20.6948
21.8834
23.2047
24.5753
25.9426
27.3056
28.7026
30.1468
31.6403
33.1845
34.7802
36.4281
38.1291
39.8841
41.6938
43.559
45.4806
47.4591
49.4951
51.5891
53.7418
55.9536
58.2251
60.5565
62.9483
65.4006
67.9135
70.4872
73.1216
75.8165
78.5716
81.3866
84.261
87.1941
90.185
93.2329
96.3366
99.4948
102.706
105.969
109.282
112.642
116.048
119.497
122.986
126.513
130.076
133.67
137.292
140.94
144.609
148.295
151.996
155.706
159.424
163.144
166.865
170.583
174.296
178.001
181.698
185.383
189.045
192.672
196.256
199.792
203.272
206.691
210.042
213.318
216.513
219.62
222.632
225.543
228.346
231.034
233.602
236.041
238.346
240.511
242.529
244.394
246.1
247.642
249.015
250.213
251.233
252.069
252.72
253.181
253.423
253.502
253.416
253.128
252.645
251.969
251.107
250.062
248.839
247.443
245.878
244.153
242.274
240.249
238.089
235.802
233.401
230.895
228.296
225.617
222.868
220.062
217.211
214.326
211.418
208.499
205.58
202.672
199.785
196.93
194.117
191.355
188.654
186.023
183.471
181.006
178.643
176.405
174.336
172.438
170.668
169.018
167.501
166.114
164.857
163.729
162.737
161.876
161.137
160.525
160.057
159.705
159.497
159.486
159.647
160.092
161.291
7.45041
3.46655
2.83892
2.73708
2.8139
2.98976
3.23335
3.52955
3.86868
4.24327
4.64714
5.07534
5.52432
5.99189
6.47719
6.98047
7.50307
8.0471
8.61529
9.21076
9.83671
10.4961
11.1911
11.9231
12.6921
13.4982
14.342
15.2265
16.1563
17.1259
18.1224
19.1458
20.2072
21.3217
22.4981
23.7328
25.0176
26.3353
27.6868
29.0825
30.5253
32.0171
33.5593
35.1529
36.7989
38.4984
40.2523
42.0616
43.9272
45.8503
47.832
49.8725
51.9724
54.1327
56.3539
58.6368
60.9819
63.3898
65.8609
68.3957
70.9944
73.6573
76.3844
79.1757
82.031
84.9501
87.9325
90.9776
94.0846
97.2527
100.481
103.768
107.111
110.511
113.964
117.468
121.022
124.622
128.266
131.951
135.674
139.432
143.221
147.037
150.877
154.737
158.614
162.502
166.4
170.301
174.204
178.103
181.994
185.87
189.726
193.554
197.345
201.093
204.79
208.431
212.009
215.515
218.945
222.289
225.542
228.697
231.746
234.683
237.5
240.191
242.748
245.166
247.437
249.554
251.513
253.306
254.928
256.373
257.637
258.714
259.602
260.295
260.793
261.069
261.165
261.084
260.793
260.301
259.612
258.728
257.655
256.395
254.955
253.341
251.558
249.616
247.521
245.284
242.915
240.424
237.823
235.124
232.338
229.478
226.556
223.583
220.573
217.536
214.484
211.429
208.382
205.353
202.353
199.392
196.479
193.624
190.835
188.12
185.489
182.951
180.521
178.221
176.059
174.022
172.105
170.31
168.638
167.089
165.663
164.362
163.185
162.127
161.19
160.383
159.703
159.171
158.819
158.73
158.932
159.575
9.18804
4.23411
3.40618
3.23355
3.27226
3.42477
3.65139
3.93381
4.26139
4.62674
5.02409
5.44893
5.89786
6.36863
6.86005
7.37194
7.90493
8.46031
9.03986
9.64565
10.2799
10.9446
11.6417
12.3726
13.1381
13.9394
14.7776
15.6552
16.5748
17.5365
18.5379
19.5785
20.6608
21.7886
22.9651
24.1907
25.4635
26.7808
28.1433
29.5532
31.0125
32.5228
34.0854
35.7016
37.3727
39.0997
40.884
42.7267
44.6289
46.5916
48.6158
50.7028
52.854
55.0705
57.3531
59.7031
62.1212
64.6085
67.1656
69.7933
72.4922
75.2628
78.1055
81.0205
84.0081
87.068
90.2001
93.404
96.6791
100.025
103.44
106.923
110.473
114.087
117.765
121.504
125.302
129.155
133.061
137.016
141.018
145.063
149.146
153.265
157.414
161.589
165.786
170
174.226
178.461
182.697
186.929
191.152
195.357
199.537
203.687
207.796
211.86
215.869
219.818
223.697
227.5
231.219
234.846
238.374
241.795
245.101
248.285
251.34
254.257
257.03
259.652
262.114
264.411
266.536
268.481
270.242
271.812
273.187
274.36
275.329
276.09
276.639
276.955
277.069
276.987
276.682
276.162
275.429
274.487
273.341
271.994
270.453
268.724
266.813
264.729
262.481
260.078
257.532
254.852
252.052
249.143
246.139
243.052
239.895
236.68
233.421
230.13
226.819
223.5
220.185
216.885
213.61
210.371
207.178
204.039
200.964
197.961
195.038
192.203
189.468
186.844
184.341
181.956
179.689
177.54
175.51
173.599
171.809
170.139
168.59
167.161
165.853
164.671
163.622
162.725
162.016
161.577
161.432
161.583
10.7611
4.94095
3.92537
3.68427
3.68551
3.81439
4.02332
4.29075
4.60484
4.95794
5.34453
5.76038
6.20232
6.66818
7.15666
7.66731
8.20041
8.75681
9.3378
9.94498
10.5801
11.2451
11.9416
12.6714
13.4358
14.2364
15.0745
15.952
16.8707
17.8315
18.8349
19.8813
20.9717
22.1078
23.2913
24.5231
25.8038
27.1337
28.5136
29.9449
31.429
32.9675
34.5618
36.2134
37.9238
39.6944
41.5269
43.4227
45.3832
47.41
49.5045
51.6684
53.9032
56.2104
58.5915
61.0478
63.5807
66.1914
68.8812
71.6511
74.5021
77.4352
80.4509
83.5498
86.7324
89.9989
93.3492
96.7832
100.3
103.9
107.581
111.343
115.184
119.101
123.094
127.159
131.294
135.497
139.762
144.088
148.471
152.905
157.387
161.912
166.475
171.072
175.695
180.34
185.002
189.673
194.348
199.018
203.677
208.317
212.929
217.506
222.039
226.52
230.942
235.295
239.572
243.763
247.861
251.856
255.741
259.507
263.145
266.648
270.007
273.213
276.26
279.139
281.843
284.364
286.695
288.829
290.76
292.482
293.989
295.276
296.339
297.174
297.779
298.132
298.258
298.165
297.832
297.263
296.462
295.433
294.18
292.709
291.025
289.135
287.046
284.767
282.307
279.678
276.889
273.954
270.884
267.693
264.395
261.003
257.531
253.993
250.402
246.771
243.114
239.444
235.772
232.11
228.47
224.862
221.297
217.783
214.33
210.947
207.64
204.419
201.291
198.267
195.352
192.551
189.864
187.293
184.839
182.503
180.285
178.189
176.213
174.36
172.632
171.035
169.578
168.282
167.181
166.344
165.78
165.439
12.1385
5.57032
4.3837
4.07425
4.04114
4.14559
4.33581
4.58692
4.88574
5.22424
5.59694
5.99986
6.43009
6.88561
7.36519
7.86834
8.39517
8.94636
9.52296
10.1263
10.758
11.4196
12.113
12.8399
13.602
14.4008
15.2379
16.1149
17.0334
17.9947
18.9998
20.0498
21.146
22.2896
23.482
24.7246
26.0185
27.3651
28.7657
30.2217
31.7349
33.3069
34.9393
36.634
38.3928
40.2176
42.1101
44.0724
46.1064
48.214
50.3972
52.658
54.9985
57.4205
59.9259
62.5168
65.1948
67.9618
70.8193
73.7689
76.812
79.9498
83.1835
86.514
89.9419
93.4677
97.0917
100.814
104.634
108.551
112.564
116.672
120.874
125.167
129.549
134.018
138.57
143.202
147.91
152.69
157.537
162.447
167.414
172.433
177.498
182.603
187.74
192.904
198.087
203.282
208.48
213.674
218.854
224.011
229.137
234.222
239.258
244.234
249.142
253.971
258.714
263.359
267.898
272.321
276.618
280.781
284.8
288.666
292.37
295.903
299.257
302.424
305.395
308.162
310.718
313.056
315.169
317.05
318.693
320.094
321.248
322.151
322.801
323.177
323.304
323.182
322.798
322.157
321.261
320.114
318.722
317.09
315.225
313.133
310.823
308.303
305.585
302.679
299.597
296.352
292.957
289.427
285.776
282.019
278.171
274.246
270.259
266.223
262.154
258.064
253.966
249.873
245.796
241.748
237.737
233.776
229.872
226.035
222.273
218.592
215.002
211.509
208.12
204.841
201.673
198.619
195.681
192.861
190.162
187.584
185.131
182.805
180.61
178.555
176.65
174.917
173.387
172.118
171.097
170.287
13.3009
6.11026
4.77178
4.39812
4.33166
4.41185
4.58275
4.81663
5.09907
5.42156
5.7786
6.16639
6.58226
7.02439
7.49167
7.98366
8.50048
9.04278
9.61155
10.2081
10.8332
11.4886
12.1763
12.898
13.6555
14.4504
15.2844
16.1591
17.0762
18.0371
19.0433
20.0963
21.1974
22.3483
23.5504
24.8052
26.1141
27.4794
28.9028
30.3864
31.932
33.5419
35.218
36.9625
38.7776
40.6658
42.6291
44.6702
46.7914
48.9952
51.2842
53.6608
56.1275
58.687
61.3416
64.0939
66.946
69.9004
72.9592
76.1244
79.3978
82.7811
86.2759
89.8834
93.6045
97.4401
101.39
105.456
109.636
113.93
118.337
122.856
127.485
132.221
137.063
142.006
147.047
152.183
157.408
162.718
168.107
173.569
179.099
184.689
190.333
196.023
201.751
207.508
213.287
219.078
224.872
230.66
236.43
242.173
247.878
253.535
259.133
264.662
270.111
275.469
280.726
285.871
290.893
295.782
300.527
305.118
309.545
313.798
317.867
321.743
325.417
328.88
332.123
335.139
337.919
340.456
342.742
344.772
346.539
348.038
349.264
350.214
350.886
351.261
351.361
351.182
350.718
349.972
348.948
347.649
346.08
344.25
342.163
339.829
337.256
334.454
331.433
328.206
324.785
321.183
317.416
313.499
309.447
305.275
300.999
296.636
292.199
287.705
283.168
278.603
274.023
269.441
264.871
260.324
255.81
251.342
246.928
242.577
238.298
234.098
229.986
225.967
222.049
218.236
214.534
210.945
207.472
204.117
200.886
197.779
194.802
191.959
189.256
186.703
184.312
182.106
180.112
178.38
176.88
175.563
14.2392
6.55505
5.08656
4.65459
4.55625
4.61261
4.764
4.98026
5.24583
5.55176
5.89245
6.26422
6.6646
7.09197
7.54534
8.02404
8.52846
9.05943
9.61808
10.206
10.8236
11.4723
12.1538
12.8697
13.6218
14.4119
15.2418
16.1132
17.0279
17.9875
18.9939
20.0488
21.154
22.3113
23.5226
24.7898
26.1151
27.5023
28.9517
30.4664
32.0493
33.7029
35.4298
37.2326
39.114
41.0769
43.124
45.2585
47.4832
49.8014
52.2161
54.7304
57.3476
60.0707
62.9028
65.847
68.9062
72.0833
75.3809
78.8016
82.3478
86.0215
89.8247
93.7588
97.8252
102.025
106.358
110.826
115.426
120.16
125.026
130.022
135.145
140.394
145.765
151.254
156.856
162.568
168.383
174.296
180.3
186.388
192.552
198.785
205.078
211.421
217.807
224.224
230.663
237.113
243.563
250.002
256.418
262.799
269.134
275.409
281.614
287.736
293.763
299.682
305.483
311.153
316.679
322.052
327.258
332.287
337.127
341.769
346.202
350.415
354.4
358.147
361.647
364.893
367.875
370.586
373.019
375.168
377.027
378.59
379.854
380.814
381.468
381.804
381.838
381.563
380.977
380.085
378.89
377.396
375.609
373.536
371.186
368.566
365.687
362.559
359.194
355.603
351.8
347.8
343.619
339.271
334.775
330.145
325.399
320.553
315.623
310.626
305.577
300.491
295.383
290.267
285.156
280.062
274.998
269.974
265.001
260.088
255.244
250.477
245.793
241.201
236.707
232.316
228.034
223.864
219.812
215.881
212.075
208.399
204.858
201.46
198.213
195.127
192.218
189.507
187.019
184.797
182.801
180.976
14.9541
6.90398
5.32907
4.84599
4.71797
4.75148
4.88367
5.08241
5.33118
5.62061
5.94502
6.30067
6.68531
7.0979
7.53843
8.00562
8.49942
9.02028
9.56897
10.1463
10.7532
11.3916
12.0634
12.7705
13.5146
14.2976
15.1216
15.9885
16.9003
17.859
18.8668
19.9259
21.0383
22.2064
23.4327
24.7194
26.0684
27.4819
28.9621
30.5144
32.1428
33.85
35.6392
37.5135
39.4763
41.5308
43.6806
45.9292
48.2805
50.7382
53.306
55.9879
58.7875
61.7089
64.7556
67.9315
71.24
74.6845
78.2685
81.9948
85.8662
89.8854
94.0543
98.3749
102.849
107.476
112.259
117.196
122.287
127.531
132.927
138.473
144.165
150.001
155.975
162.085
168.323
174.685
181.163
187.751
194.44
201.222
208.089
215.029
222.035
229.093
236.195
243.327
250.478
257.636
264.788
271.922
279.023
286.077
293.072
299.993
306.828
313.562
320.182
326.674
333.024
339.221
345.25
351.099
356.756
362.208
367.444
372.452
377.222
381.743
386.005
390
393.717
397.15
400.289
403.128
405.659
407.877
409.776
411.351
412.597
413.513
414.094
414.338
414.25
413.825
413.064
411.973
410.555
408.816
406.76
404.397
401.735
398.784
395.555
392.057
388.304
384.308
380.083
375.645
371.01
366.194
361.215
356.089
350.836
345.471
340.012
334.476
328.878
323.236
317.563
311.876
306.188
300.511
294.86
289.244
283.674
278.162
272.714
267.341
262.049
256.846
251.738
246.733
241.835
237.051
232.385
227.842
223.429
219.151
215.016
211.032
207.211
203.565
200.11
196.867
193.861
191.129
188.624
186.295
15.4566
7.16084
5.50361
4.97749
4.82266
4.83491
4.94872
5.1305
5.36296
5.63645
5.94575
6.28833
6.66027
7.05996
7.486
7.93808
8.41715
8.92394
9.45932
10.0244
10.6207
11.2498
11.9134
12.6133
13.3513
14.1297
14.9505
15.816
16.7285
17.6906
18.7046
19.7732
20.8989
22.0846
23.3331
24.6482
26.0313
27.4851
29.0106
30.6159
32.3053
34.0832
35.9543
37.9224
39.9911
42.1644
44.4464
46.8417
49.3546
51.9897
54.7515
57.6446
60.6736
63.843
67.1572
70.6205
74.2371
78.011
81.9457
86.0449
90.3115
94.7484
99.3577
104.141
109.101
114.237
119.55
125.039
130.704
136.543
142.553
148.732
155.076
161.58
168.24
175.049
182.001
189.088
196.303
203.636
211.078
218.619
226.247
233.953
241.723
249.545
257.407
265.294
273.192
281.089
288.969
296.817
304.619
312.358
320.019
327.588
335.049
342.386
349.585
356.631
363.509
370.204
376.704
382.993
389.06
394.89
400.472
405.794
410.846
415.615
420.093
424.271
428.139
431.69
434.915
437.809
440.366
442.578
444.443
445.955
447.111
447.909
448.347
448.423
448.147
447.5
446.498
445.145
443.443
441.4
439.019
436.311
433.286
429.954
426.325
422.413
418.228
413.786
409.1
404.186
399.061
393.743
388.249
382.597
376.805
370.892
364.875
358.772
352.599
346.373
340.109
333.825
327.533
321.247
314.981
308.747
302.555
296.415
290.338
284.332
278.405
272.564
266.817
261.171
255.633
250.208
244.903
239.725
234.68
229.777
225.025
220.434
216.018
211.79
207.769
203.977
200.435
197.178
194.156
191.331
15.7666
7.33518
5.61742
5.05649
4.87795
4.87157
4.96794
5.13412
5.35328
5.61409
5.91014
6.23669
6.59242
6.97638
7.38814
7.8278
8.29548
8.79178
9.31763
9.87423
10.4631
11.0859
11.7444
12.4409
13.1774
13.9562
14.7798
15.6508
16.572
17.5464
18.5774
19.6676
20.8198
22.0372
23.3227
24.6785
26.1081
27.6177
29.2132
30.8994
32.6814
34.5641
36.5527
38.6529
40.8689
43.2057
45.6684
48.2622
50.9926
53.8649
56.8843
60.0562
63.3857
66.8782
70.5385
74.3716
78.3819
82.5739
86.9513
91.5178
96.2766
101.23
106.381
111.729
117.278
123.025
128.972
135.117
141.457
147.991
154.715
161.624
168.714
175.978
183.41
191.002
198.746
206.633
214.653
222.794
231.047
239.398
247.835
256.345
264.914
273.526
282.168
290.824
299.478
308.114
316.717
325.268
333.753
342.153
350.451
358.631
366.676
374.57
382.295
389.838
397.18
404.309
411.207
417.862
424.259
430.385
436.227
441.775
447.016
451.94
456.538
460.801
464.721
468.291
471.503
474.352
476.833
478.942
480.673
482.025
482.996
483.584
483.787
483.614
483.052
482.103
480.783
479.093
477.038
474.623
471.855
468.742
465.296
461.53
457.453
453.08
448.421
443.493
438.309
432.885
427.24
421.39
415.354
409.151
402.799
396.317
389.722
383.032
376.265
369.438
362.568
355.669
348.758
341.848
334.953
328.084
321.254
314.473
307.751
301.097
294.519
288.026
281.625
275.323
269.129
263.049
257.092
251.263
245.573
240.032
234.649
229.438
224.414
219.592
214.994
210.64
206.553
202.765
199.226
195.913
15.879
7.42684
5.67494
5.08938
4.89104
4.86989
4.95347
5.10693
5.31102
5.55637
5.83761
6.15162
6.49609
6.86975
7.27211
7.70319
8.1634
8.65351
9.17464
9.7281
10.3155
10.9388
11.6002
12.3021
13.0475
13.8387
14.6783
15.5694
16.5152
17.519
18.5837
19.7102
20.9046
22.1721
23.5173
24.946
26.4628
28.0733
29.7835
31.5991
33.526
35.5704
37.7388
40.0368
42.4704
45.0459
47.7695
50.6478
53.6869
56.8929
60.2717
63.8293
67.5712
71.5031
75.6303
79.9576
84.4897
89.2308
94.1845
99.3539
104.742
110.35
116.179
122.23
128.503
134.996
141.708
148.635
155.775
163.123
170.674
178.421
186.358
194.476
202.767
211.221
219.828
228.576
237.454
246.448
255.547
264.734
273.996
283.318
292.683
302.076
311.479
320.875
330.247
339.578
348.849
358.043
367.142
376.127
384.98
393.683
402.218
410.568
418.715
426.644
434.337
441.779
448.955
455.849
462.449
468.741
474.712
480.351
485.648
490.592
495.175
499.388
503.225
506.68
509.746
512.419
514.696
516.574
518.05
519.121
519.791
520.056
519.921
519.384
518.433
517.091
515.364
513.254
510.767
507.908
504.683
501.102
497.178
492.923
488.349
483.47
478.298
472.848
467.133
461.172
454.981
448.578
441.982
435.211
428.285
421.221
414.038
406.754
399.386
391.953
384.469
376.952
369.418
361.879
354.351
346.846
339.375
331.949
324.578
317.273
310.041
302.891
295.832
288.871
282.018
275.279
268.665
262.184
255.845
249.661
243.645
237.811
232.176
226.759
221.58
216.664
212.03
207.714
203.663
199.88
15.8508
7.44417
5.68312
5.08509
4.87465
4.8414
4.91054
5.05023
5.24306
5.4789
5.75189
6.05863
6.39704
6.76603
7.16523
7.59484
8.05552
8.54847
9.07551
9.6376
10.2366
10.8748
11.5549
12.2795
13.0509
13.8699
14.7419
15.6714
16.6628
17.7207
18.8499
20.0556
21.3428
22.7169
24.1841
25.7509
27.4236
29.2091
31.1141
33.1456
35.3107
37.6167
40.0714
42.6812
45.4537
48.3967
51.5182
54.826
58.3269
62.0271
65.9327
70.0494
74.3827
78.9378
83.7195
88.7321
93.9792
99.4639
105.189
111.155
117.364
123.815
130.508
137.441
144.612
152.017
159.652
167.512
175.591
183.881
192.376
201.067
209.943
218.995
228.212
237.582
247.091
256.727
266.476
276.323
286.252
296.249
306.296
316.376
326.473
336.569
346.646
356.684
366.666
376.573
386.387
396.089
405.659
415.078
424.329
433.392
442.249
450.883
459.276
467.411
475.272
482.843
490.109
497.057
503.671
509.941
515.853
521.398
526.565
531.346
535.733
539.719
543.299
546.467
549.22
551.555
553.47
554.963
556.037
556.683
556.917
556.734
556.128
555.095
553.656
551.818
549.586
546.966
543.963
540.584
536.834
532.723
528.264
523.47
518.355
512.931
507.211
501.21
494.942
488.423
481.671
474.703
467.539
460.195
452.692
445.047
437.278
429.404
421.441
413.406
405.318
397.191
389.041
380.884
372.732
364.599
356.496
348.435
340.425
332.477
324.6
316.803
309.094
301.482
293.977
286.588
279.324
272.197
265.218
258.399
251.757
245.307
239.069
233.063
227.312
221.841
216.671
211.838
207.289
203.061
15.7454
7.42924
5.66502
5.05533
4.83141
4.78749
4.84914
4.98299
5.17127
5.40424
5.67645
5.98508
6.3279
6.70386
7.1129
7.55551
8.03252
8.54487
9.09303
9.67923
10.3071
10.9798
11.701
12.4745
13.3046
14.196
15.1532
16.1816
17.2867
18.4747
19.7522
21.1261
22.6032
24.1908
25.8967
27.729
29.6961
31.8065
34.0684
36.4905
39.081
41.848
44.7983
47.9411
51.2858
54.8416
58.6183
62.6273
66.8737
71.3616
76.0951
81.0784
86.3149
91.8079
97.5597
103.572
109.846
116.381
123.177
130.232
137.543
145.108
152.921
160.977
169.271
177.795
186.541
195.503
204.669
214.03
223.576
233.294
243.174
253.202
263.364
273.648
284.038
294.519
305.076
315.694
326.355
337.042
347.739
358.428
369.091
379.711
390.267
400.743
411.118
421.375
431.495
441.459
451.249
460.846
470.231
479.386
488.293
496.936
505.297
513.361
521.111
528.534
535.615
542.34
548.698
554.676
560.264
565.454
570.236
574.602
578.548
582.068
585.157
587.814
590.036
591.82
593.171
594.083
594.57
594.606
594.258
593.436
592.196
590.542
588.482
586.021
583.169
579.932
576.316
572.329
567.975
563.262
558.204
552.816
547.109
541.097
534.794
528.211
521.365
514.27
506.942
499.399
491.659
483.741
475.661
467.437
459.088
450.629
442.079
433.454
424.771
416.046
407.294
398.53
389.768
381.02
372.299
363.615
354.98
346.403
337.893
329.461
321.115
312.864
304.72
296.692
288.792
281.032
273.425
265.985
258.731
251.679
244.852
238.272
231.967
225.959
220.271
214.943
209.908
205.256
15.4995
7.35754
5.60933
5.00051
4.77735
4.73525
4.80073
4.94109
5.13835
5.38305
5.66969
5.99455
6.35558
6.75359
7.18944
7.6645
8.18067
8.74047
9.34746
10.0046
10.7158
11.4859
12.3199
13.2239
14.204
15.2671
16.4204
17.6713
19.0281
20.4995
22.0946
23.8231
25.6949
27.7201
29.9092
32.2725
34.8207
37.5641
40.5129
43.6768
47.065
50.6861
54.5482
58.6598
63.029
67.6639
72.5723
77.7617
83.2374
88.9974
95.0404
101.365
107.97
114.852
122.008
129.435
137.127
145.079
153.284
161.736
170.426
179.346
188.488
197.841
207.396
217.141
227.067
237.16
247.41
257.804
268.33
278.975
289.724
300.565
311.483
322.463
333.492
344.555
355.635
366.718
377.787
388.826
399.82
410.75
421.601
432.356
442.996
453.506
463.866
474.061
484.072
493.882
503.475
512.832
521.937
530.773
539.323
547.572
555.505
563.106
570.363
577.263
583.792
589.938
595.691
601.041
605.98
610.5
614.593
618.254
621.48
624.268
626.613
628.517
629.98
630.993
631.582
631.716
631.453
630.731
629.577
628.005
626.02
623.63
620.843
617.668
614.114
610.19
605.904
601.261
596.264
590.922
585.246
579.251
572.949
566.353
559.475
552.327
544.924
537.278
529.406
521.323
513.047
504.594
495.982
487.226
478.343
469.35
460.263
451.097
441.87
432.597
423.293
413.973
404.649
395.335
386.043
376.784
367.568
358.405
349.307
340.282
331.34
322.49
313.745
305.116
296.617
288.261
280.061
272.036
264.205
256.587
249.205
242.081
235.24
228.715
222.529
216.727
211.271
206.272
15.2184
7.25275
5.53906
4.94904
4.74213
4.71698
4.80102
4.95908
5.17725
5.44764
5.76615
6.13136
6.54287
7.0016
7.50965
8.07008
8.68678
9.36454
10.1091
10.9262
11.8227
12.8064
13.8859
15.0708
16.371
17.7975
19.3616
21.0756
22.9523
25.0046
27.2457
29.6891
32.3482
35.2362
38.3659
41.7493
45.3975
49.3212
53.5299
58.0312
62.8313
67.9351
73.3476
79.0719
85.1091
91.4611
98.1301
105.116
112.408
119.993
127.86
136
144.402
153.054
161.945
171.065
180.4
189.94
199.672
209.585
219.667
229.905
240.289
250.805
261.442
272.189
283.033
293.964
304.967
316.034
327.15
338.306
349.488
360.684
371.883
383.071
394.237
405.367
416.449
427.47
438.416
449.273
460.028
470.666
481.173
491.534
501.734
511.76
521.595
531.225
540.633
549.805
558.726
567.38
575.753
583.83
591.596
599.038
606.141
612.894
619.286
625.305
630.939
636.179
641.015
645.44
649.45
653.036
656.19
658.91
661.198
663.053