/*--------------------------------*- C++ -*----------------------------------*\
  =========                 |
  \\      /  F ield         | OpenFOAM: The Open Source CFD Toolbox
   \\    /   O peration     | Website:  https://openfoam.org
    \\  /    A nd           | Version:  8
     \\/     M anipulation  |
\*---------------------------------------------------------------------------*/
FoamFile
{
    version     2.0;
    format      ascii;
    class       volScalarField;
    location    "205";
    object      k;
}
// * * * * * * * * * * * * * * * * * * * * * * * * * * * * * * * * * * * * * //

dimensions      [0 2 -2 0 0 0 0];

internalField   nonuniform List<scalar> 
12225
(
0.362825
0.343997
0.327745
0.30982
0.2954
0.283484
0.275511
0.270286
0.270341
0.27188
0.276063
0.280695
0.289899
0.29582
0.306694
0.313493
0.325655
0.330419
0.440271
0.468738
0.461616
0.448373
0.450347
0.458318
0.474536
0.498559
0.524386
0.552149
0.580749
0.606204
0.633882
0.653932
0.679867
0.693192
0.718419
0.725067
0.390406
0.41786
0.420244
0.416831
0.411634
0.407804
0.408018
0.410039
0.414553
0.421407
0.430729
0.439726
0.451203
0.461167
0.472898
0.483597
0.493656
0.506131
0.377043
0.387169
0.391467
0.391344
0.39026
0.387885
0.38566
0.384081
0.382882
0.382898
0.383358
0.384383
0.386285
0.388468
0.390928
0.394266
0.396582
0.40104
0.374434
0.376094
0.378427
0.378666
0.378275
0.377202
0.375488
0.373738
0.37201
0.370455
0.369256
0.36811
0.367382
0.366807
0.366447
0.366345
0.366368
0.366724
0.373779
0.372704
0.372659
0.372366
0.371772
0.370819
0.369554
0.368083
0.366571
0.364976
0.363528
0.362063
0.360755
0.359529
0.358397
0.357429
0.356443
0.35579
0.373775
0.37174
0.370388
0.369284
0.368235
0.367114
0.365915
0.364587
0.363238
0.361808
0.360422
0.359024
0.357678
0.356382
0.355121
0.353966
0.352794
0.351805
0.373818
0.371559
0.369635
0.367976
0.366501
0.365108
0.363776
0.362429
0.361107
0.359766
0.35845
0.357144
0.355863
0.354622
0.353401
0.352249
0.351098
0.350052
0.373832
0.371553
0.369449
0.367525
0.365777
0.364154
0.362645
0.361199
0.359817
0.358473
0.35717
0.355902
0.354667
0.353475
0.352307
0.351195
0.350096
0.349072
0.373831
0.37156
0.369418
0.367405
0.365529
0.363773
0.362133
0.360585
0.359122
0.357728
0.356395
0.355118
0.353888
0.35271
0.351569
0.350481
0.349419
0.34842
0.373829
0.37156
0.369413
0.367378
0.365458
0.363645
0.361937
0.360324
0.358799
0.357353
0.355979
0.354672
0.353424
0.352235
0.351094
0.350008
0.348959
0.347969
0.373828
0.371558
0.369409
0.367371
0.365439
0.363609
0.361876
0.360234
0.358677
0.357201
0.3558
0.354468
0.3532
0.351994
0.350842
0.349747
0.348695
0.3477
0.373827
0.371556
0.369405
0.367365
0.36543
0.363594
0.361851
0.360197
0.358626
0.357134
0.355715
0.354368
0.353084
0.351864
0.3507
0.349594
0.348535
0.347532
0.373826
0.371555
0.369401
0.36736
0.365422
0.363583
0.361837
0.360178
0.3586
0.357101
0.355674
0.354317
0.353024
0.351794
0.350622
0.349506
0.34844
0.347427
0.373826
0.371553
0.369398
0.367355
0.365416
0.363575
0.361826
0.360164
0.358584
0.357081
0.355651
0.35429
0.352993
0.351758
0.35058
0.349459
0.348388
0.347369
0.373826
0.371552
0.369396
0.367351
0.36541
0.363568
0.361817
0.360154
0.358572
0.357067
0.355634
0.354271
0.352972
0.351734
0.350554
0.34943
0.348357
0.347334
0.373825
0.371551
0.369394
0.367348
0.365406
0.363562
0.36181
0.360145
0.358562
0.357055
0.355621
0.354256
0.352955
0.351716
0.350535
0.349408
0.348334
0.347309
0.373825
0.371551
0.369393
0.367346
0.365403
0.363558
0.361805
0.360139
0.358555
0.357047
0.355612
0.354246
0.352944
0.351703
0.350521
0.349393
0.348317
0.347291
0.373825
0.37155
0.369393
0.367346
0.365402
0.363557
0.361804
0.360137
0.358552
0.357044
0.355608
0.354241
0.352938
0.351697
0.350513
0.349385
0.348308
0.347281
0.373825
0.371551
0.369393
0.367347
0.365404
0.363559
0.361806
0.36014
0.358555
0.357047
0.355611
0.354244
0.352942
0.351701
0.350517
0.349389
0.348312
0.347285
0.373825
0.371551
0.369395
0.367349
0.365407
0.363563
0.361811
0.360146
0.358562
0.357055
0.355621
0.354256
0.352955
0.351716
0.350534
0.349408
0.348333
0.347308
0.373826
0.371553
0.369397
0.367352
0.365412
0.363571
0.361822
0.360161
0.358583
0.357083
0.355657
0.354299
0.353007
0.351775
0.350603
0.349484
0.348418
0.347399
0.373826
0.371554
0.369399
0.36736
0.365429
0.363603
0.361875
0.36024
0.358691
0.35722
0.355823
0.354494
0.353227
0.352019
0.350866
0.349763
0.348711
0.347701
0.373828
0.371551
0.369412
0.367417
0.365556
0.363819
0.362189
0.360651
0.359189
0.357794
0.356456
0.355172
0.353936
0.352746
0.351601
0.350496
0.349436
0.34841
0.373823
0.371554
0.369604
0.367893
0.366339
0.364892
0.363495
0.362122
0.360761
0.359414
0.358081
0.35677
0.355489
0.354238
0.353029
0.351856
0.350734
0.349645
0.373781
0.37199
0.371113
0.370265
0.369361
0.368312
0.367048
0.36563
0.364121
0.362575
0.36103
0.359523
0.358073
0.356682
0.355382
0.354142
0.35301
0.351924
0.374297
0.375564
0.377778
0.377858
0.377291
0.375885
0.373835
0.371641
0.369505
0.367482
0.365664
0.364084
0.36271
0.361535
0.36061
0.359818
0.359289
0.3588
0.378732
0.394394
0.398293
0.396566
0.392558
0.387608
0.383642
0.380455
0.378266
0.376851
0.376496
0.376749
0.377399
0.378697
0.380442
0.382421
0.384825
0.387136
0.408344
0.427539
0.422424
0.411051
0.402227
0.397923
0.398556
0.401117
0.405985
0.413037
0.420995
0.429826
0.438832
0.448188
0.457302
0.466548
0.475315
0.484175
0.366033
0.353412
0.341988
0.33021
0.318983
0.308382
0.299409
0.291674
0.285404
0.280333
0.276682
0.273866
0.272309
0.271183
0.271174
0.271521
0.272154
0.273385
0.0014496
0.00716084
0.0127978
0.0181376
0.0238231
0.029928
0.0365232
0.0435864
0.0510085
0.058643
0.0663408
0.0739756
0.0814455
0.0886749
0.0956053
0.102194
0.108403
0.114202
0.119553
0.124411
0.128716
0.132391
0.135342
0.137462
0.138613
0.138732
0.137782
0.136016
0.134062
0.135545
0.133302
0.135616
0.141137
0.148873
0.159447
0.154265
0.148237
0.148553
0.159011
0.164863
0.173254
0.18078
0.188928
0.197076
0.205453
0.21398
0.222669
0.231531
0.240546
0.249736
0.259079
0.268599
0.27827
0.288117
0.298116
0.308291
0.318615
0.329112
0.339754
0.350566
0.361517
0.372631
0.383878
0.395282
0.406808
0.418481
0.430265
0.442184
0.454201
0.46634
0.478562
0.49089
0.503285
0.515768
0.528299
0.540899
0.553524
0.566198
0.578877
0.591582
0.604267
0.616953
0.629594
0.642206
0.654741
0.667215
0.679577
0.691839
0.703954
0.715921
0.727699
0.739263
0.750588
0.761669
0.77253
0.783261
0.793749
0.804001
0.813997
0.82373
0.833181
0.842338
0.851182
0.8597
0.867873
0.87569
0.883132
0.89019
0.896845
0.903086
0.908897
0.914267
0.91918
0.923626
0.927592
0.931069
0.934048
0.936517
0.93847
0.939897
0.940797
0.941164
0.940991
0.940217
0.938782
0.936917
0.934714
0.931938
0.928533
0.924622
0.920196
0.915264
0.90985
0.903959
0.897618
0.890828
0.883585
0.875948
0.867951
0.85962
0.850989
0.84209
0.832956
0.823621
0.814116
0.804477
0.794734
0.784923
0.775073
0.765219
0.75539
0.745621
0.735938
0.726376
0.71696
0.707723
0.69869
0.689901
0.681401
0.673378
0.667078
0.663229
0.659227
0.655127
0.65167
0.648617
0.645865
0.643484
0.64144
0.639806
0.638707
0.638113
0.637574
0.637549
0.637851
0.638432
0.639072
0.639253
0.637809
0.620688
0.00632882
0.0214209
0.0311711
0.0387148
0.0455907
0.0524964
0.0597047
0.0672792
0.0751643
0.0832502
0.0914146
0.0995484
0.107564
0.115398
0.123004
0.130353
0.137422
0.144197
0.15066
0.15679
0.162552
0.167905
0.172796
0.177186
0.18111
0.184761
0.18865
0.193875
0.202324
0.20932
0.212991
0.220211
0.23103
0.243949
0.257827
0.270756
0.280979
0.291715
0.304078
0.316522
0.329716
0.343151
0.356943
0.371044
0.385465
0.400199
0.415243
0.430601
0.446271
0.462258
0.478561
0.495185
0.512128
0.529397
0.546988
0.564908
0.583153
0.601727
0.620625
0.639851
0.659398
0.67927
0.699458
0.719963
0.740775
0.761895
0.78331
0.805018
0.827006
0.849271
0.871797
0.89458
0.917603
0.940858
0.964325
0.987998
1.01185
1.03588
1.06006
1.08438
1.10882
1.13336
1.15797
1.18265
1.20735
1.23207
1.25676
1.28141
1.30599
1.33046
1.35478
1.37891
1.40279
1.42636
1.44955
1.47227
1.49467
1.51676
1.53853
1.55994
1.58097
1.60159
1.62176
1.64145
1.66063
1.67927
1.69733
1.71479
1.73161
1.74776
1.76321
1.77792
1.79187
1.80501
1.81732
1.82877
1.83934
1.84899
1.85769
1.86543
1.87217
1.87792
1.88266
1.88636
1.88868
1.88992
1.89049
1.89016
1.8885
1.88575
1.88192
1.87705
1.87115
1.86424
1.85635
1.84752
1.83777
1.82716
1.81573
1.80353
1.79062
1.77706
1.76292
1.74825
1.73312
1.71759
1.70173
1.68561
1.66929
1.65284
1.63632
1.6198
1.60335
1.58702
1.57089
1.55501
1.53945
1.52426
1.50953
1.49534
1.48196
1.46944
1.45748
1.44628
1.4359
1.42629
1.41749
1.40954
1.40246
1.39623
1.39088
1.38642
1.38272
1.37976
1.37749
1.37584
1.37444
1.37322
1.3694
1.34981
0.0126446
0.0349286
0.047432
0.0568706
0.0652841
0.0734164
0.0816052
0.0899856
0.0985732
0.107319
0.116146
0.124978
0.133751
0.142421
0.150959
0.159353
0.167604
0.175726
0.183735
0.191657
0.199522
0.207367
0.215248
0.223258
0.231547
0.240329
0.249868
0.260361
0.271609
0.282434
0.293238
0.306033
0.320484
0.335895
0.351673
0.367281
0.382493
0.398068
0.414255
0.430838
0.447886
0.465341
0.483193
0.501436
0.520064
0.539079
0.558479
0.578264
0.598436
0.618997
0.639947
0.661289
0.683023
0.705152
0.727675
0.750592
0.773903
0.797607
0.821702
0.846186
0.871055
0.896305
0.921932
0.947929
0.974289
1.00101
1.02807
1.05547
1.0832
1.11124
1.13959
1.16822
1.19713
1.2263
1.2557
1.28534
1.31517
1.34519
1.37538
1.40571
1.43615
1.46669
1.49731
1.52796
1.55864
1.5893
1.61992
1.65047
1.68092
1.71123
1.74138
1.77131
1.80101
1.83043
1.85954
1.88834
1.91679
1.94486
1.97253
1.99975
2.02649
2.05271
2.07837
2.10342
2.12783
2.15157
2.17458
2.19682
2.21826
2.23886
2.25857
2.27735
2.29516
2.31196
2.32771
2.34238
2.35591
2.36829
2.37948
2.38944
2.39814
2.40557
2.4117
2.41651
2.41988
2.42174
2.42247
2.4221
2.42019
2.41689
2.41225
2.40627
2.39899
2.39044
2.38065
2.36966
2.35753
2.34429
2.33002
2.31477
2.29862
2.28164
2.26391
2.2455
2.2265
2.20699
2.18705
2.16676
2.1462
2.12546
2.10463
2.08377
2.06299
2.04235
2.02193
2.00183
1.9821
1.96284
1.94411
1.92602
1.90867
1.89213
1.87643
1.86166
1.8478
1.83486
1.82289
1.81194
1.80201
1.79311
1.78523
1.77837
1.77247
1.76746
1.76331
1.75998
1.75722
1.75508
1.7513
1.73875
0.0192872
0.0472806
0.0623414
0.0734375
0.0830826
0.09218
0.101149
0.110189
0.119372
0.128701
0.13814
0.147641
0.157162
0.166672
0.176156
0.185617
0.195071
0.204548
0.214087
0.22374
0.233563
0.243622
0.253989
0.264747
0.275994
0.287832
0.300345
0.313542
0.3273
0.341416
0.356066
0.371628
0.388076
0.405229
0.422891
0.440886
0.459155
0.477799
0.496861
0.51633
0.536229
0.556561
0.577326
0.598525
0.620157
0.642225
0.66473
0.687674
0.71106
0.73489
0.759166
0.78389
0.809064
0.834688
0.860764
0.887292
0.914271
0.941701
0.969579
0.997902
1.02667
1.05587
1.0855
1.11556
1.14604
1.17693
1.20821
1.23988
1.27193
1.30434
1.3371
1.3702
1.4036
1.43731
1.47129
1.50553
1.54
1.57469
1.60956
1.6446
1.67978
1.71506
1.75042
1.78584
1.82127
1.8567
1.89208
1.92739
1.96258
1.99764
2.03252
2.06719
2.10162
2.13576
2.16958
2.20304
2.23612
2.26876
2.30092
2.33257
2.36365
2.39413
2.42395
2.45308
2.48146
2.50905
2.5358
2.56166
2.5866
2.61055
2.63348
2.65534
2.67608
2.69565
2.71401
2.73112
2.74692
2.76139
2.77448
2.78615
2.79638
2.80513
2.81238
2.8181
2.82227
2.82469
2.82564
2.82527
2.82323
2.81959
2.81438
2.80762
2.79936
2.78962
2.77844
2.76586
2.75195
2.73676
2.72035
2.7028
2.68419
2.6646
2.64413
2.62285
2.60086
2.57825
2.55512
2.53156
2.50766
2.48353
2.45926
2.43493
2.41066
2.38652
2.36261
2.33903
2.31585
2.29317
2.27106
2.24963
2.22894
2.20909
2.19015
2.1722
2.15523
2.13926
2.12435
2.11053
2.09782
2.08623
2.07576
2.06639
2.05809
2.05081
2.04454
2.03926
2.0349
2.03157
2.02764
2.01848
0.0257095
0.0585988
0.0760015
0.0886459
0.0994323
0.109405
0.119068
0.128678
0.138366
0.148182
0.15813
0.168195
0.178357
0.188601
0.198923
0.209334
0.219858
0.23053
0.241398
0.252516
0.263942
0.275741
0.287973
0.3007
0.313982
0.327869
0.342394
0.357554
0.373307
0.38961
0.406492
0.42402
0.442205
0.461013
0.480385
0.500251
0.520571
0.54134
0.562553
0.584212
0.606327
0.628909
0.651962
0.675491
0.6995
0.723994
0.748976
0.774449
0.800418
0.826886
0.853857
0.881333
0.909316
0.93781
0.966814
0.996332
1.02636
1.0569
1.08795
1.11951
1.15158
1.18414
1.2172
1.25075
1.28477
1.31927
1.35423
1.38963
1.42547
1.46173
1.49839
1.53544
1.57285
1.61061
1.6487
1.68709
1.72575
1.76466
1.8038
1.84313
1.88263
1.92225
1.96198
2.00178
2.04161
2.08144
2.12123
2.16095
2.20056
2.24002
2.27929
2.31835
2.35713
2.3956
2.43372
2.47143
2.5087
2.54549
2.58173
2.61739
2.65241
2.68675
2.72036
2.75317
2.78515
2.81624
2.84639
2.87555
2.90366
2.93068
2.95655
2.98123
3.00465
3.02677
3.04755
3.06692
3.08484
3.10128
3.11617
3.12949
3.1412
3.15126
3.15965
3.16634
3.17132
3.17441
3.17573
3.17553
3.17352
3.16971
3.16415
3.15686
3.14787
3.13721
3.12493
3.11107
3.0957
3.07888
3.06067
3.04117
3.02044
2.9986
2.97572
2.95191
2.92727
2.90189
2.8759
2.84938
2.82245
2.7952
2.76775
2.74021
2.71266
2.68523
2.65799
2.63107
2.60454
2.5785
2.55305
2.52827
2.50425
2.48106
2.4588
2.43753
2.41728
2.39809
2.38
2.36304
2.34724
2.33262
2.31918
2.30691
2.29581
2.28585
2.27704
2.26943
2.26306
2.25807
2.25324
2.24518
0.0317138
0.0687513
0.0882531
0.102323
0.114174
0.124967
0.135275
0.145409
0.155544
0.165772
0.176138
0.186658
0.197335
0.208172
0.219176
0.230364
0.241764
0.253411
0.265351
0.277635
0.290315
0.303444
0.317072
0.331244
0.345998
0.361362
0.377354
0.393974
0.411207
0.429036
0.447459
0.466483
0.486111
0.506337
0.52714
0.548494
0.570376
0.592769
0.615665
0.639062
0.662964
0.687377
0.712307
0.737762
0.763747
0.790268
0.817331
0.844941
0.873104
0.901825
0.931109
0.960959
0.991381
1.02238
1.05395
1.0861
1.11883
1.15215
1.18604
1.22051
1.25556
1.29118
1.32736
1.36411
1.40141
1.43924
1.47761
1.5165
1.55589
1.59576
1.63611
1.6769
1.71813
1.75976
1.80177
1.84414
1.88683
1.92982
1.97308
2.01656
2.06025
2.10411
2.14809
2.19216
2.23628
2.28041
2.32451
2.36854
2.41246
2.45622
2.49979
2.5431
2.58612
2.6288
2.67107
2.7129
2.75423
2.79502
2.83521
2.87474
2.91356
2.95163
2.98887
3.02525
3.0607
3.09516
3.12859
3.16093
3.19211
3.22209
3.25082
3.27822
3.30426
3.32887
3.352
3.37361
3.39363
3.41201
3.42872
3.44371
3.45693
3.46835
3.47794
3.48567
3.49153
3.4954
3.49723
3.49736
3.49551
3.4917
3.48596
3.4783
3.46876
3.45737
3.44418
3.42924
3.41261
3.39436
3.37455
3.35328
3.33064
3.30672
3.28162
3.25544
3.22831
3.20032
3.17159
3.14223
3.11235
3.08208
3.05152
3.02078
2.98998
2.95923
2.92864
2.8983
2.86833
2.83881
2.80986
2.78155
2.75398
2.72723
2.70139
2.67652
2.65269
2.62993
2.60828
2.58779
2.56849
2.55041
2.53356
2.51796
2.50361
2.49053
2.47875
2.46838
2.45953
2.45236
2.4459
2.43749
0.0371505
0.0776422
0.0989702
0.11431
0.127125
0.138672
0.149579
0.160197
0.170734
0.181322
0.192035
0.202919
0.214
0.225299
0.236834
0.248629
0.260713
0.273122
0.285896
0.29908
0.312717
0.326851
0.341521
0.35676
0.372596
0.389048
0.406126
0.423833
0.442165
0.461113
0.480671
0.500837
0.521608
0.542982
0.56495
0.587504
0.61063
0.63432
0.658568
0.683372
0.708735
0.734663
0.761161
0.788237
0.815897
0.844151
0.873005
0.902467
0.932543
0.963242
0.994569
1.02653
1.05913
1.09238
1.12628
1.16083
1.19604
1.23191
1.26844
1.30562
1.34346
1.38196
1.4211
1.46088
1.5013
1.54234
1.58399
1.62623
1.66906
1.71246
1.7564
1.80086
1.84582
1.89125
1.93713
1.98342
2.0301
2.07713
2.12447
2.1721
2.21996
2.26802
2.31624
2.36457
2.41297
2.46139
2.50979
2.55812
2.60634
2.65438
2.70221
2.74976
2.79698
2.84382
2.89022
2.93612
2.98146
3.0262
3.07027
3.11362
3.15619
3.19792
3.23875
3.27862
3.31747
3.35525
3.39189
3.42734
3.46153
3.49442
3.52594
3.55602
3.58463
3.61169
3.63715
3.66096
3.68306
3.7034
3.72192
3.73859
3.75335
3.76617
3.77701
3.78585
3.79265
3.79738
3.79986
3.80041
3.79885
3.79516
3.78937
3.78148
3.77153
3.75955
3.7456
3.72972
3.71197
3.69243
3.67117
3.64827
3.62383
3.59796
3.57075
3.54232
3.51278
3.48224
3.45084
3.41868
3.3859
3.3526
3.31891
3.28495
3.25084
3.21669
3.18262
3.14874
3.11515
3.08197
3.04929
3.01722
2.98584
2.95524
2.92551
2.89673
2.86896
2.84225
2.81666
2.79224
2.76902
2.74706
2.72637
2.707
2.68897
2.67234
2.65718
2.64362
2.63183
2.622
2.61326
2.60349
0.0419121
0.0852143
0.108081
0.124505
0.138159
0.150379
0.161827
0.172884
0.183786
0.194689
0.205695
0.216874
0.228272
0.239925
0.251864
0.264118
0.276719
0.289701
0.303101
0.316956
0.331304
0.346178
0.361611
0.377628
0.39425
0.411492
0.429364
0.44787
0.46701
0.48678
0.507179
0.528203
0.54985
0.572121
0.595011
0.618519
0.64264
0.667372
0.692713
0.718665
0.745232
0.77242
0.800236
0.828689
0.857787
0.887541
0.917958
0.94905
0.980825
1.01329
1.04646
1.08034
1.11494
1.15026
1.18631
1.2231
1.26064
1.29891
1.33794
1.37771
1.41822
1.45948
1.50148
1.54421
1.58766
1.63183
1.6767
1.72226
1.76848
1.81535
1.86285
1.91095
1.95963
2.00886
2.0586
2.10883
2.1595
2.21057
2.26202
2.31379
2.36584
2.41813
2.4706
2.52321
2.57591
2.62864
2.68136
2.734
2.78651
2.83883
2.89091
2.94269
2.9941
3.04508
3.09557
3.14551
3.19483
3.24348
3.29139
3.33851
3.38476
3.43009
3.47443
3.51772
3.55991
3.60092
3.64069
3.67917
3.71629
3.752
3.78623
3.81892
3.85002
3.87946
3.90718
3.93314
3.95727
3.97951
3.99982
4.01815
4.03445
4.04867
4.06077
4.07073
4.07852
4.0841
4.08733
4.08839
4.0872
4.08374
4.07798
4.06996
4.05971
4.04726
4.03266
4.01596
3.99722
3.97651
3.9539
3.92949
3.90337
3.87565
3.84642
3.81582
3.78395
3.75094
3.71691
3.68198
3.64629
3.60996
3.57312
3.53588
3.49839
3.46075
3.42308
3.38552
3.34816
3.31113
3.27452
3.23844
3.20299
3.16827
3.13436
3.10134
3.0693
3.0383
3.0084
2.97967
2.95215
2.9259
2.90099
2.87746
2.85537
2.8348
2.81587
2.79875
2.78361
2.77067
2.75914
2.74732
0.0459318
0.0914535
0.115566
0.132882
0.147239
0.160033
0.171952
0.183397
0.194622
0.205802
0.217057
0.228476
0.240121
0.252042
0.26428
0.27687
0.289845
0.30324
0.317088
0.331421
0.346271
0.361667
0.377634
0.394194
0.411364
0.429159
0.447587
0.466655
0.486367
0.506724
0.527726
0.549376
0.571673
0.59462
0.618218
0.642469
0.667375
0.692937
0.719159
0.746048
0.773608
0.801848
0.830778
0.860409
0.890751
0.921817
0.953617
0.986164
1.01947
1.05355
1.0884
1.12405
1.16051
1.19777
1.23586
1.27477
1.31452
1.35511
1.39654
1.43882
1.48194
1.52591
1.57071
1.61634
1.6628
1.71007
1.75813
1.80698
1.85659
1.90694
1.958
2.00975
2.06217
2.1152
2.16883
2.223
2.27769
2.33284
2.38841
2.44436
2.50062
2.55716
2.6139
2.67081
2.72781
2.78486
2.84188
2.89882
2.95562
3.01221
3.06852
3.12449
3.18004
3.23512
3.28965
3.34356
3.39679
3.44927
3.50094
3.55172
3.60156
3.65038
3.69812
3.74472
3.7901
3.83421
3.87699
3.91836
3.95827
3.99666
4.03346
4.06862
4.10207
4.13376
4.16363
4.19161
4.21765
4.24171
4.26371
4.28361
4.30137
4.31694
4.33027
4.34132
4.35008
4.3565
4.3605
4.36213
4.36137
4.35818
4.35254
4.34446
4.33399
4.32116
4.30601
4.28859
4.26897
4.2472
4.22337
4.19756
4.16986
4.14039
4.10925
4.07657
4.04245
4.00703
3.97043
3.93278
3.89422
3.85487
3.81486
3.77433
3.7334
3.69221
3.65087
3.60951
3.56825
3.52721
3.4865
3.44623
3.4065
3.36741
3.32907
3.29156
3.25497
3.21938
3.18486
3.15149
3.11934
3.08849
3.05901
3.03099
3.00451
2.97968
2.95666
2.93564
2.91682
2.90041
2.88568
2.87131
0.0491777
0.0963869
0.121467
0.139486
0.154406
0.167669
0.17998
0.191753
0.203254
0.214669
0.226133
0.237743
0.249578
0.261695
0.274144
0.286965
0.300194
0.313865
0.328009
0.342655
0.357833
0.373566
0.389877
0.406785
0.424307
0.442456
0.461243
0.480677
0.500766
0.521514
0.542926
0.565008
0.587765
0.611201
0.635323
0.660137
0.685648
0.711865
0.738794
0.766445
0.794827
0.823953
0.853835
0.884486
0.91592
0.948151
0.981195
1.01507
1.04978
1.08535
1.12178
1.15911
1.19732
1.23645
1.27649
1.31746
1.35937
1.40222
1.44602
1.49077
1.53647
1.58312
1.63071
1.67924
1.7287
1.77908
1.83035
1.8825
1.93551
1.98936
2.04402
2.09944
2.15561
2.21249
2.27002
2.32817
2.38689
2.44614
2.50585
2.56598
2.62646
2.68724
2.74825
2.80944
2.87073
2.93205
2.99335
3.05454
3.11556
3.17634
3.2368
3.29688
3.35648
3.41555
3.47399
3.53176
3.58876
3.64493
3.70019
3.75448
3.80773
3.85986
3.91082
3.96052
4.0089
4.05591
4.10147
4.14552
4.188
4.22885
4.268
4.30541
4.341
4.37473
4.40653
4.43635
4.46412
4.4898
4.51333
4.53467
4.55375
4.57054
4.58499
4.59706
4.60672
4.61394
4.61865
4.62086
4.62055
4.61769
4.61218
4.6041
4.59347
4.58033
4.56472
4.54669
4.52628
4.50357
4.47862
4.45153
4.42239
4.39129
4.35836
4.3237
4.28745
4.24971
4.21064
4.17034
4.12897
4.08665
4.04352
3.99971
3.95535
3.91059
3.86554
3.82034
3.77511
3.72998
3.68505
3.64046
3.5963
3.55269
3.50974
3.46753
3.42618
3.38578
3.3464
3.30816
3.27113
3.23541
3.20111
3.16833
3.1372
3.10785
3.08048
3.05528
3.03249
3.01232
2.9941
2.97683
0.051652
0.10008
0.125874
0.144416
0.159763
0.173387
0.186007
0.198041
0.209765
0.221369
0.232995
0.244752
0.256722
0.268971
0.281554
0.294516
0.307896
0.321727
0.336041
0.350864
0.366223
0.38214
0.398637
0.415732
0.433442
0.451783
0.470766
0.490403
0.510706
0.531683
0.553344
0.5757
0.598758
0.62253
0.647026
0.672256
0.698231
0.724963
0.752463
0.780743
0.809819
0.839706
0.870421
0.90198
0.934401
0.967701
1.0019
1.03701
1.07306
1.11005
1.14801
1.18696
1.2269
1.26785
1.30983
1.35285
1.39691
1.44202
1.48819
1.53543
1.58373
1.63308
1.6835
1.73496
1.78745
1.84097
1.89549
1.95099
2.00745
2.06483
2.12311
2.18224
2.2422
2.30293
2.36438
2.42652
2.48928
2.55261
2.61645
2.68073
2.74539
2.81037
2.87559
2.94098
3.00647
3.07198
3.13744
3.20276
3.26788
3.3327
3.39715
3.46116
3.52463
3.58749
3.64965
3.71104
3.77158
3.8312
3.88981
3.94735
4.00374
4.0589
4.11278
4.16529
4.21637
4.26597
4.314
4.36042
4.40515
4.44815
4.48935
4.52869
4.56612
4.60159
4.63503
4.6664
4.69564
4.72269
4.74751
4.77004
4.79024
4.80807
4.82347
4.83641
4.84685
4.85476
4.86011
4.86286
4.86296
4.86045
4.85509
4.84703
4.83629
4.82291
4.80692
4.78836
4.76728
4.74375
4.71782
4.68958
4.65913
4.62655
4.59197
4.55549
4.51724
4.47733
4.4359
4.39309
4.34902
4.30383
4.25767
4.21066
4.16295
4.11466
4.06595
4.01692
3.96772
3.91848
3.86931
3.82035
3.77169
3.72348
3.67581
3.62881
3.58257
3.53721
3.49284
3.44955
3.40748
3.36672
3.32742
3.2897
3.25373
3.21967
3.18774
3.15818
3.1312
3.10706
3.08513
3.06474
0.0533926
0.10264
0.128911
0.147814
0.163458
0.177339
0.19018
0.202405
0.21429
0.22603
0.23777
0.249623
0.261677
0.274002
0.286655
0.299684
0.313127
0.327021
0.341394
0.356276
0.371692
0.387664
0.404216
0.421366
0.439133
0.457534
0.476583
0.496294
0.516684
0.537765
0.559553
0.582061
0.605305
0.6293
0.654061
0.679603
0.705941
0.733093
0.761073
0.7899
0.819593
0.850172
0.881658
0.914071
0.947434
0.981768
1.01709
1.05343
1.0908
1.12923
1.16872
1.20931
1.251
1.29382
1.33778
1.38289
1.42916
1.4766
1.52521
1.575
1.62597
1.67812
1.73143
1.7859
1.8415
1.89824
1.95607
2.01498
2.07493
2.13589
2.19783
2.2607
2.32445
2.38904
2.45441
2.52051
2.58726
2.65462
2.72251
2.79086
2.8596
2.92865
2.99793
3.06737
3.13689
3.20639
3.2758
3.34503
3.41399
3.4826
3.55077
3.61842
3.68545
3.75179
3.81734
3.88202
3.94574
4.00844
4.07003
4.13042
4.18956
4.24735
4.30374
4.35866
4.41202
4.46378
4.51387
4.56223
4.6088
4.65352
4.69635
4.73722
4.77609
4.8129
4.8476
4.88015
4.91049
4.93857
4.96435
4.98779
5.00883
5.02743
5.04355
5.05715
5.0682
5.07666
5.08251
5.08569
5.08616
5.084
5.0788
5.07077
5.05996
5.0464
5.03011
5.01113
4.9895
4.96527
4.9385
4.90928
4.87768
4.8438
4.80774
4.76962
4.72956
4.68766
4.64407
4.59891
4.55232
4.50443
4.45539
4.40533
4.35439
4.30271
4.25043
4.19768
4.1446
4.09132
4.03796
3.98466
3.93154
3.87873
3.82635
3.77452
3.72337
3.67301
3.62358
3.57519
3.52799
3.48211
3.43771
3.39496
3.35404
3.31515
3.27854
3.24447
3.21318
3.18493
3.15916
3.13549
0.0544673
0.104186
0.130724
0.14984
0.165664
0.179702
0.192678
0.205018
0.217
0.22882
0.240625
0.252526
0.264612
0.276954
0.289612
0.302633
0.316061
0.329931
0.344274
0.359119
0.374493
0.39042
0.406926
0.424032
0.441761
0.460136
0.479163
0.498861
0.519254
0.54036
0.562199
0.584789
0.608146
0.632303
0.657279
0.683089
0.709749
0.737284
0.765717
0.795073
0.825376
0.856652
0.888925
0.922221
0.956566
0.991983
1.0285
1.06613
1.10492
1.14486
1.186
1.22834
1.27191
1.31673
1.3628
1.41014
1.45876
1.50867
1.55988
1.61237
1.66616
1.72123
1.77757
1.83517
1.894
1.95405
2.01528
2.07767
2.14118
2.20576
2.27138
2.33798
2.40551
2.47391
2.54313
2.61309
2.68373
2.75497
2.82674
2.89897
2.97157
3.04445
3.11754
3.19074
3.26397
3.33713
3.41014
3.4829
3.55531
3.6273
3.69876
3.76961
3.83975
3.90908
3.97753
4.04499
4.1114
4.17666
4.24069
4.30341
4.36475
4.42464
4.48299
4.53975
4.59485
4.64823
4.69982
4.74958
4.79744
4.84336
4.88729
4.92917
4.96897
5.00663
5.04212
5.07539
5.10639
5.13509
5.16144
5.1854
5.20693
5.22599
5.24254
5.25655
5.26798
5.27681
5.28299
5.28649
5.28727
5.2854
5.28038
5.27238
5.26153
5.24785
5.23134
5.21205
5.18999
5.16522
5.13778
5.10776
5.07522
5.04024
5.00294
4.96341
4.92176
4.87812
4.8326
4.78533
4.73645
4.6861
4.63441
4.58151
4.52756
4.47269
4.41704
4.36075
4.30395
4.24679
4.18939
4.13188
4.07441
4.01711
3.9601
3.90353
3.84753
3.79223
3.73778
3.68432
3.63201
3.58102
3.53152
3.48371
3.43782
3.39407
3.35273
3.31409
3.27841
3.24598
3.21631
3.18934
0.0548601
0.104753
0.131437
0.150655
0.166559
0.180662
0.193694
0.206081
0.218097
0.229937
0.241745
0.253633
0.265692
0.277994
0.290596
0.30355
0.316898
0.330677
0.34492
0.359658
0.374921
0.390735
0.407127
0.424126
0.44176
0.460061
0.479022
0.498675
0.519046
0.54016
0.562041
0.584713
0.608199
0.632552
0.657781
0.683899
0.710918
0.738887
0.767841
0.79781
0.828823
0.860911
0.894105
0.928433
0.963924
1.0006
1.0385
1.07764
1.11805
1.15976
1.20277
1.24712
1.29282
1.33989
1.38833
1.43817
1.48941
1.54204
1.59608
1.65151
1.70834
1.76654
1.82609
1.88699
1.94919
2.01268
2.07741
2.14334
2.21043
2.27864
2.3479
2.41816
2.48937
2.56145
2.63433
2.70795
2.78222
2.85706
2.9324
3.00815
3.08423
3.16053
3.23697
3.31346
3.3899
3.46619
3.54225
3.61796
3.69324
3.76798
3.8421
3.91549
3.98807
4.05973
4.13039
4.19995
4.26833
4.33544
4.40121
4.46555
4.52838
4.58964
4.64926
4.70716
4.76329
4.81759
4.87001
4.92049
4.96898
5.01544
5.05984
5.10211
5.14224
5.18018
5.21589
5.24934
5.28049
5.30931
5.33577
5.35982
5.38145
5.4006
5.41726
5.43138
5.44293
5.45189
5.45823
5.46191
5.4629
5.46128
5.45643
5.44848
5.43764
5.4239
5.40729
5.38781
5.36548
5.34035
5.31245
5.28185
5.2486
5.21279
5.17451
5.13385
5.09092
5.04582
4.99868
4.94961
4.89875
4.84623
4.79219
4.73676
4.68008
4.6223
4.56356
4.50399
4.44374
4.38293
4.32172
4.26024
4.19864
4.13704
4.07559
4.01445
3.95376
3.89367
3.83433
3.77593
3.71862
3.66261
3.6081
3.55532
3.50451
3.45594
3.40991
3.36672
3.32667
3.29007
3.25651
3.22621
0.0547708
0.104613
0.131262
0.150466
0.166357
0.180445
0.193459
0.20582
0.217803
0.229604
0.241365
0.253199
0.265194
0.277422
0.289941
0.302801
0.316047
0.329716
0.343843
0.358462
0.373604
0.389299
0.405578
0.422471
0.440004
0.458205
0.477102
0.496729
0.517117
0.5383
0.560306
0.583164
0.606901
0.631554
0.657162
0.683733
0.711282
0.73989
0.76959
0.800418
0.83241
0.865602
0.900034
0.935735
0.972732
1.01105
1.05073
1.09179
1.13425
1.17814
1.22348
1.27027
1.31854
1.3683
1.41955
1.4723
1.52655
1.58229
1.63952
1.69822
1.75838
1.81997
1.88297
1.94734
2.01305
2.08006
2.14832
2.21779
2.28841
2.36012
2.43287
2.50658
2.58119
2.65662
2.7328
2.80965
2.88708
2.96502
3.04337
3.12204
3.20094
3.27998
3.35907
3.4381
3.51697
3.5956
3.67387
3.75169
3.82896
3.90558
3.98146
4.0565
4.1306
4.20366
4.27561
4.34633
4.41576
4.4838
4.55038
4.61541
4.67884
4.74058
4.80057
4.85874
4.91504
4.96943
5.02184
5.07224
5.12058
5.16683
5.21095
5.25291
5.29268
5.33023
5.36553
5.39856
5.42928
5.45769
5.48375
5.50743
5.52872
5.54757
5.56397
5.57789
5.58929
5.59815
5.60444
5.60816
5.60927
5.60785
5.6032
5.59533
5.58456
5.57088
5.55428
5.53478
5.51238
5.48711
5.45899
5.42808
5.39443
5.3581
5.31917
5.27773
5.23386
5.18768
5.13928
5.08879
5.03632
4.98201
4.926
4.86841
4.80938
4.74906
4.68758
4.62509
4.56172
4.49762
4.43292
4.36778
4.30234
4.23674
4.17114
4.1057
4.04057
3.97592
3.91194
3.8488
3.78671
3.72588
3.66653
3.60894
3.55336
3.50011
3.44939
3.40164
3.35717
3.31636
3.27887
3.24541
0.0543651
0.103974
0.130456
0.149545
0.165326
0.179304
0.192208
0.204459
0.216331
0.228017
0.23966
0.251371
0.263235
0.275325
0.287699
0.300409
0.313501
0.327016
0.340994
0.35547
0.37048
0.386061
0.402252
0.41909
0.436618
0.454865
0.473866
0.493661
0.514292
0.535807
0.558231
0.581594
0.605935
0.631286
0.657668
0.685105
0.713684
0.743468
0.774499
0.806816
0.840457
0.875455
0.911837
0.949636
0.988882
1.02961
1.07184
1.11561
1.16095
1.20785
1.25632
1.30636
1.35798
1.41119
1.46596
1.52231
1.5802
1.63963
1.70058
1.76301
1.82689
1.8922
1.95889
2.02691
2.09622
2.16677
2.2385
2.31136
2.38527
2.46018
2.53602
2.61272
2.69019
2.76837
2.84717
2.92652
3.00632
3.08649
3.16694
3.24758
3.32832
3.40906
3.4897
3.57016
3.65033
3.73012
3.80943
3.88816
3.96621
4.04349
4.11989
4.19533
4.26972
4.34296
4.41496
4.48563
4.55489
4.62266
4.68887
4.75344
4.81631
4.8774
4.93666
4.99403
5.04945
5.10289
5.15431
5.20367
5.25093
5.29606
5.33904
5.37985
5.41846
5.45486
5.48904
5.52096
5.55061
5.578
5.6031
5.62589
5.64636
5.66449
5.68026
5.69362
5.70457
5.71308
5.71913
5.72273
5.72389
5.72262
5.71819
5.71045
5.69985
5.68635
5.66993
5.65059
5.62834
5.60317
5.57512
5.5442
5.51047
5.47397
5.43476
5.39292
5.34851
5.30164
5.25239
5.20088
5.14722
5.09154
5.03396
4.97462
4.91365
4.85119
4.78737
4.72234
4.65624
4.58921
4.52139
4.45295
4.38402
4.31475
4.24532
4.17588
4.10662
4.03772
3.96937
3.90177
3.83511
3.7696
3.70554
3.64323
3.58298
3.52511
3.47006
3.41815
3.36968
3.32506
3.28401
3.24772
0.0535778
0.102774
0.128884
0.14771
0.163263
0.177035
0.189747
0.201821
0.213531
0.225066
0.236569
0.248147
0.259888
0.271862
0.284132
0.296751
0.30977
0.323236
0.337194
0.351689
0.366765
0.382465
0.398837
0.415931
0.433811
0.4525
0.472041
0.49248
0.51386
0.536207
0.559529
0.583918
0.609441
0.636158
0.66414
0.693433
0.724088
0.756154
0.789675
0.824689
0.86123
0.899326
0.938999
0.980271
1.02316
1.06768
1.11384
1.16166
1.21111
1.26219
1.31489
1.3692
1.42512
1.4826
1.54164
1.60219
1.66424
1.72774
1.79265
1.85894
1.92655
1.99544
2.06555
2.13683
2.20923
2.28268
2.35713
2.43252
2.50877
2.58582
2.6636
2.74205
2.82108
2.90062
2.9806
3.06093
3.14154
3.22235
3.30327
3.38421
3.46508
3.54581
3.62629
3.70644
3.78617
3.86539
3.944
4.02191
4.09902
4.17526
4.25051
4.32471