/*--------------------------------*- C++ -*----------------------------------*\
  =========                 |
  \\      /  F ield         | OpenFOAM: The Open Source CFD Toolbox
   \\    /   O peration     | Website:  https://openfoam.org
    \\  /    A nd           | Version:  8
     \\/     M anipulation  |
\*---------------------------------------------------------------------------*/
FoamFile
{
    version     2.0;
    format      ascii;
    class       volScalarField;
    location    "205";
    object      nut;
}
// * * * * * * * * * * * * * * * * * * * * * * * * * * * * * * * * * * * * * //

dimensions      [0 2 -1 0 0 0 0];

internalField   nonuniform List<scalar> 
12225
(
4.14965e-05
3.93422e-05
3.74833e-05
3.54331e-05
3.3784e-05
3.24211e-05
3.15093e-05
3.09117e-05
3.09181e-05
3.10927e-05
3.15734e-05
3.20983e-05
3.31531e-05
3.38604e-05
3.50351e-05
3.59748e-05
3.70817e-05
3.72489e-05
0.000332334
0.000215219
0.000179282
0.00015768
0.000146209
0.000138211
0.000132731
0.000131666
0.000129494
0.00013008
0.000129032
0.000129454
0.000128648
0.000128574
0.000128059
0.000127471
0.000127306
0.00012663
0.000674968
0.00045084
0.000355778
0.000309839
0.000275285
0.0002511
0.000231704
0.000217279
0.00020266
0.000192135
0.000182601
0.000175213
0.000169363
0.000163672
0.000160287
0.000155562
0.000153762
0.000149862
0.000833614
0.000684911
0.000571984
0.000499975
0.000449453
0.000411963
0.000380763
0.000356009
0.000333993
0.000314784
0.00029831
0.000281714
0.000270291
0.000256056
0.000248181
0.000236143
0.000230361
0.000220426
0.000861254
0.000802528
0.000742124
0.000676589
0.000623992
0.000581382
0.000545858
0.000514561
0.000489507
0.00046443
0.000445847
0.000424066
0.000409922
0.00039079
0.000379862
0.000363073
0.00035444
0.000339487
0.00085498
0.000840347
0.000822203
0.0007865
0.000750856
0.000715904
0.000685755
0.000656132
0.000632542
0.000607514
0.000588989
0.000567239
0.00055227
0.000533083
0.00052076
0.000503711
0.000493275
0.000477467
0.000852907
0.000850686
0.000844239
0.000832828
0.000817409
0.000797002
0.000777884
0.000756736
0.000738897
0.000719143
0.000703528
0.000685614
0.000672113
0.000655911
0.00064429
0.000629516
0.000619486
0.000605139
0.000851922
0.000851814
0.000850172
0.000847396
0.000841452
0.000833727
0.000824895
0.000813415
0.000802806
0.000790468
0.000779712
0.000767535
0.000757418
0.000745775
0.000736527
0.000725518
0.000717137
0.000706029
0.00085175
0.000851542
0.000851034
0.000850339
0.000848881
0.000846168
0.000843034
0.000838304
0.000833402
0.000827359
0.000821214
0.00081477
0.000808405
0.000801521
0.000795234
0.00078841
0.000782161
0.000775251
0.000851769
0.00085139
0.000851046
0.000850633
0.000850248
0.000849368
0.000848405
0.000846781
0.000844956
0.00084253
0.000839923
0.000836798
0.000833792
0.00083015
0.000826967
0.000822922
0.000819895
0.000815294
0.000851787
0.000851359
0.000851012
0.000850613
0.000850329
0.000849905
0.000849526
0.000848929
0.000848303
0.000847393
0.000846465
0.000845176
0.000843989
0.00084235
0.000840995
0.00083903
0.000837637
0.000835359
0.000851789
0.000851359
0.000850996
0.000850605
0.000850292
0.000849938
0.000849646
0.00084928
0.000848955
0.000848504
0.000848098
0.000847507
0.000846997
0.000846243
0.000845641
0.00084472
0.000844057
0.000842975
0.000851786
0.000851363
0.000850986
0.000850604
0.000850269
0.000849926
0.00084963
0.000849313
0.000849042
0.000848729
0.000848462
0.000848126
0.000847843
0.000847465
0.000847156
0.000846725
0.000846386
0.000845901
0.000851783
0.000851364
0.000850978
0.000850602
0.000850256
0.000849916
0.000849607
0.0008493
0.000849022
0.00084874
0.000848488
0.000848224
0.000847988
0.000847735
0.000847508
0.000847257
0.000847033
0.000846783
0.000851781
0.000851364
0.000850973
0.000850598
0.000850246
0.000849909
0.000849592
0.000849286
0.000849
0.000848723
0.000848463
0.000848211
0.000847975
0.000847745
0.000847528
0.000847316
0.000847115
0.000846919
0.00085178
0.000851363
0.000850969
0.000850594
0.000850239
0.000849901
0.00084958
0.000849275
0.000848984
0.000848707
0.000848443
0.000848191
0.000847951
0.000847721
0.000847502
0.000847293
0.000847093
0.000846901
0.000851779
0.000851362
0.000850967
0.000850591
0.000850234
0.000849895
0.000849572
0.000849265
0.000848973
0.000848694
0.000848428
0.000848175
0.000847933
0.000847701
0.00084748
0.000847269
0.000847067
0.000846874
0.000851779
0.000851362
0.000850965
0.000850588
0.000850231
0.00084989
0.000849567
0.000849259
0.000848965
0.000848685
0.000848418
0.000848163
0.00084792
0.000847687
0.000847465
0.000847252
0.000847049
0.000846854
0.000851779
0.000851362
0.000850965
0.000850588
0.00085023
0.000849889
0.000849565
0.000849256
0.000848962
0.000848682
0.000848414
0.000848158
0.000847914
0.00084768
0.000847457
0.000847243
0.000847039
0.000846843
0.000851779
0.000851362
0.000850966
0.000850589
0.000850231
0.000849891
0.000849567
0.000849259
0.000848965
0.000848685
0.000848417
0.000848162
0.000847917
0.000847684
0.00084746
0.000847246
0.000847041
0.000846845
0.000851779
0.000851363
0.000850967
0.000850592
0.000850235
0.000849897
0.000849573
0.000849267
0.000848972
0.000848694
0.000848424
0.000848169
0.00084792
0.000847683
0.000847451
0.000847231
0.000847013
0.000846806
0.000851778
0.000851366
0.000850968
0.000850599
0.00085024
0.000849907
0.00084958
0.000849274
0.000848964
0.000848671
0.000848365
0.000848072
0.000847756
0.000847456
0.000847123
0.000846811
0.000846457
0.000846136
0.000851777
0.000851374
0.000850972
0.000850615
0.000850241
0.000849889
0.000849478
0.000849054
0.000848529
0.000847978
0.000847301
0.000846605
0.000845767
0.000844939
0.000843955
0.000843029
0.000841918
0.00084094
0.000851802
0.000851411
0.00085097
0.000850549
0.000849861
0.000848967
0.000847607
0.00084598
0.000843903
0.000841636
0.000838954
0.000836214
0.000833116
0.000830113
0.000826763
0.00082368
0.000820184
0.000817178
0.000852138
0.000851404
0.000850234
0.000848252
0.000844473
0.000839356
0.000832712
0.000825763
0.000817914
0.000810001
0.000801615
0.000793627
0.000785331
0.000777706
0.000769743
0.0007627
0.000755123
0.000748795
0.000854143
0.000847719
0.000840125
0.000827122
0.000808708
0.000789647
0.000769972
0.000751417
0.000733304
0.000716895
0.000700933
0.00068678
0.00067283
0.00066067
0.000648378
0.000637941
0.000626954
0.00061802
0.00085497
0.000818337
0.000776229
0.000726634
0.00068494
0.000649857
0.00061846
0.000592022
0.000568381
0.000548311
0.000529688
0.000513993
0.000498749
0.000486017
0.000473202
0.000462709
0.000451623
0.000442806
0.000807487
0.00066688
0.00057055
0.000509855
0.000465648
0.000431194
0.000404133
0.000382501
0.000364194
0.000349067
0.00033594
0.000325078
0.00031448
0.000306248
0.000297963
0.000291368
0.000284282
0.000278933
0.000501854
0.000348405
0.00029269
0.000259175
0.000236322
0.000221177
0.000211544
0.000204016
0.00019848
0.000195059
0.000192218
0.000190368
0.000188582
0.000187439
0.000186164
0.000185474
0.000184554
0.000184142
7.27286e-05
7.02232e-05
6.7954e-05
6.56136e-05
6.33828e-05
6.12765e-05
5.9493e-05
5.79572e-05
5.67103e-05
5.57029e-05
5.49774e-05
5.44182e-05
5.41082e-05
5.3887e-05
5.38759e-05
5.39617e-05
5.40711e-05
5.43216e-05
4.47253e-07
1.01123e-05
1.80721e-05
2.56e-05
3.36154e-05
4.22185e-05
5.15186e-05
6.14783e-05
7.19508e-05
8.27192e-05
9.35818e-05
0.000104352
0.000114901
0.000125117
0.000134936
0.000144294
0.000153152
0.000161446
0.000169107
0.000176012
0.00018201
0.000186899
0.000190486
0.000192514
0.000192778
0.00019167
0.000189675
0.000188443
0.000189139
0.000185305
3.6443e-05
3.76733e-05
4.17565e-05
4.78434e-05
0.00024638
0.000241286
0.000213463
4.78898e-05
4.90902e-05
5.00754e-05
5.13335e-05
5.23864e-05
5.35491e-05
5.46552e-05
5.57831e-05
5.68977e-05
5.80136e-05
5.91248e-05
6.02338e-05
6.13397e-05
6.24429e-05
6.35434e-05
6.46411e-05
6.57363e-05
6.68285e-05
6.79183e-05
6.90048e-05
7.00888e-05
7.11692e-05
7.22466e-05
7.332e-05
7.439e-05
7.54553e-05
7.65167e-05
7.75727e-05
7.86241e-05
7.96692e-05
8.07089e-05
8.17414e-05
8.27676e-05
8.37857e-05
8.47965e-05
8.57983e-05
8.67916e-05
8.77748e-05
8.87485e-05
8.97109e-05
9.06628e-05
9.16023e-05
9.25301e-05
9.34443e-05
9.43457e-05
9.52323e-05
9.61047e-05
9.69609e-05
9.78014e-05
9.86242e-05
9.94296e-05
0.000100216
0.000100982
0.000101727
0.000102449
0.000103147
0.00010382
0.000104468
0.000105096
0.000105709
0.000106297
0.000106863
0.000107406
0.000107926
0.000108422
0.000108894
0.000109341
0.000109763
0.000110159
0.000110528
0.00011087
0.000111184
0.000111471
0.000111729
0.000111958
0.000112158
0.000112327
0.000112467
0.000112575
0.000112652
0.000112697
0.00011271
0.00011269
0.000112637
0.000112551
0.000112434
0.000112284
0.000112085
0.000111851
0.0001116
0.000111332
0.000111007
0.000110654
0.000110266
0.000109845
0.000109392
0.000108908
0.000108392
0.000107845
0.000107266
0.000106657
0.00010602
0.000105357
0.00010467
0.000103959
0.000103227
0.000102474
0.000101704
0.000100918
0.000100117
9.93047e-05
9.84816e-05
9.76501e-05
9.68123e-05
9.59701e-05
9.51257e-05
9.42813e-05
9.34389e-05
9.26006e-05
9.17693e-05
9.09486e-05
9.01451e-05
8.9398e-05
8.89957e-05
8.88169e-05
8.81879e-05
8.75822e-05
8.71623e-05
8.67143e-05
8.62746e-05
8.58614e-05
8.54585e-05
8.50529e-05
8.47132e-05
8.4481e-05
8.41628e-05
8.3896e-05
8.36576e-05
8.34509e-05
8.32572e-05
8.30499e-05
8.2745e-05
8.14635e-05
1.96119e-06
3.77455e-05
7.97602e-05
0.000108586
0.00012782
0.000142534
0.000155444
0.000167893
0.000180408
0.000193077
0.000205793
0.000218383
0.000230677
0.000242524
0.000253794
0.000264364
0.000274115
0.000282903
0.000290548
0.000296813
0.000301396
0.000303942
0.000304065
0.000301009
0.00029352
0.000281733
0.000265863
0.000246821
0.000240464
0.00021081
0.000192796
0.000198724
0.000225382
0.000264877
0.000323029
0.000316263
0.000291
0.000273393
0.000281312
0.000288407
0.000295745
0.000303438
0.00031119
0.000319092
0.000327092
0.00033518
0.000343351
0.000351594
0.000359912
0.000368297
0.000376756
0.000385285
0.000393889
0.000402565
0.000411319
0.00042015
0.000429064
0.000438056
0.000447134
0.000456294
0.000465541
0.000474871
0.000484289
0.00049379
0.000503378
0.000513048
0.000522802
0.000532635
0.000542549
0.000552537
0.0005626
0.000572733
0.000582935
0.000593199
0.000603526
0.000613908
0.000624343
0.000634824
0.000645351
0.000655916
0.000666519
0.000677153
0.000687818
0.000698507
0.000709221
0.00071995
0.000730695
0.000741446
0.000752202
0.000762949
0.000773672
0.000784332
0.000794862
0.000805149
0.000815019
0.000824172
0.000833129
0.000841984
0.000850732
0.000859364
0.000867877
0.00087626
0.000884507
0.000892607
0.000900552
0.000908332
0.000915938
0.00092336
0.000930588
0.000937614
0.000944425
0.000951012
0.000957365
0.000963471
0.000969321
0.000974904
0.000980208
0.000985225
0.000989942
0.000994353
0.000998452
0.00100224
0.00100575
0.001009
0.00101155
0.00101358
0.00101555
0.00101747
0.00101879
0.00101974
0.00102029
0.00102048
0.00102029
0.00101973
0.00101881
0.00101754
0.00101594
0.00101399
0.00101171
0.0010091
0.00100619
0.00100298
0.000999499
0.000995756
0.000991775
0.000987571
0.000983167
0.00097858
0.000973836
0.000968951
0.000963952
0.000958858
0.000953695
0.000948483
0.000943248
0.000938008
0.000932788
0.000927602
0.00092247
0.000917404
0.000912354
0.000905963
0.000898219
0.000891297
0.000884941
0.0008785
0.000872314
0.000866435
0.000860878
0.000855426
0.000850222
0.00084559
0.000841077
0.000836594
0.000832275
0.000828191
0.000823857
0.000819251
0.000812236
0.000787137
3.92278e-06
5.92989e-05
0.000123177
0.000171826
0.000207293
0.000233465
0.000253865
0.000270993
0.000286417
0.000300987
0.000315085
0.000328816
0.000342158
0.000355043
0.000367352
0.000378935
0.000389685
0.000399478
0.000408165
0.000415571
0.000421484
0.000425666
0.000427863
0.000428222
0.000427652
0.000426304
0.000424932
0.000424565
0.000426816
0.000425951
0.000431792
0.000451791
0.000480393
0.000509046
0.000530546
0.000537778
0.000541769
0.000550584
0.000565692
0.000581127
0.00059677
0.000612666
0.000628716
0.00064493
0.000661287
0.00067778
0.000694406
0.000711162
0.000728047
0.000745063
0.000762213
0.000779498
0.000796923
0.000814489
0.000832199
0.000850056
0.000868061
0.000886215
0.000904521
0.000922976
0.000941582
0.000960336
0.000979238
0.000998285
0.00101748
0.0010368
0.00105627
0.00107586
0.00109557
0.00111541
0.00113535
0.0011554
0.00117555
0.00119578
0.0012161
0.00123648
0.00125693
0.00127743
0.00129798
0.00131856
0.00133917
0.00135979
0.00138041
0.00140103
0.00142163
0.0014422
0.00146272
0.00148318
0.00150356
0.00152382
0.00154394
0.00156384
0.00158347
0.00160272
0.00162153
0.00163989
0.00165801
0.0016759
0.00169357
0.00171099
0.00172814
0.00174502
0.00176161
0.00177787
0.00179381
0.0018094
0.00182462
0.00183945
0.00185387
0.00186787
0.00188142
0.00189451
0.00190711
0.00191919
0.00193076
0.00194177
0.00195221
0.00196206
0.0019713
0.00197992
0.00198791
0.00199525
0.00200195
0.00200823
0.00201338
0.00201727
0.00202087
0.00202422
0.00202661
0.00202819
0.00202901
0.00202906
0.00202836
0.00202692
0.00202474
0.00202184
0.00201825
0.00201396
0.002009
0.00200339
0.00199717
0.00199035
0.00198298
0.00197509
0.00196671
0.00195789
0.00194867
0.00193909
0.00192918
0.001919
0.00190859
0.001898
0.00188727
0.00187644
0.00186557
0.00185469
0.00184386
0.0018331
0.00182246
0.00181191
0.00180125
0.00178951
0.00177693
0.00176502
0.00175363
0.00174241
0.00173161
0.00172129
0.0017115
0.00170207
0.00169308
0.00168478
0.00167684
0.00166886
0.00166119
0.00165426
0.00164647
0.00163803
0.00162494
0.0015877
5.9876e-06
7.55901e-05
0.000155955
0.000219193
0.0002666
0.000302253
0.000329886
0.000352338
0.000371598
0.000388946
0.000405133
0.000420553
0.000435363
0.00044959
0.000463226
0.000476269
0.000488674
0.000500411
0.000511464
0.000521836
0.000531554
0.000540698
0.000549435
0.000558085
0.00056711
0.000576928
0.000587978
0.000600531
0.000613544
0.00062724
0.000644492
0.000666263
0.00069042
0.000714138
0.000735503
0.000753911
0.000772081
0.000791991
0.000813693
0.000835941
0.000858425
0.000881105
0.000903961
0.00092699
0.000950187
0.000973553
0.000997087
0.00102079
0.00104467
0.00106871
0.00109294
0.00111735
0.00114196
0.00116675
0.00119174
0.00121693
0.00124232
0.0012679
0.00129368
0.00131966
0.00134583
0.0013722
0.00139876
0.00142549
0.00145241
0.0014795
0.00150675
0.00153416
0.00156171
0.00158941
0.00161723
0.00164517
0.00167321
0.00170135
0.00172957
0.00175786
0.0017862
0.00181458
0.00184299
0.00187141
0.00189982
0.00192822
0.00195657
0.00198488
0.0020131
0.00204124
0.00206926
0.00209714
0.00212485
0.00215235
0.00217961
0.00220658
0.0022332
0.00225941
0.00228519
0.00231059
0.00233568
0.00236045
0.00238489
0.00240898
0.0024327
0.00245602
0.00247893
0.00250139
0.00252339
0.00254491
0.00256592
0.00258639
0.0026063
0.00262562
0.00264433
0.00266241
0.00267982
0.00269654
0.00271254
0.00272779
0.00274227
0.00275596
0.00276882
0.00278084
0.00279199
0.00280226
0.00281163
0.0028204
0.00282786
0.00283366
0.00283881
0.0028435
0.002847
0.0028494
0.00285074
0.00285103
0.00285027
0.00284847
0.00284565
0.00284182
0.00283701
0.00283123
0.00282451
0.00281688
0.00280838
0.00279904
0.00278892
0.00277805
0.00276649
0.00275429
0.00274151
0.0027282
0.00271442
0.00270023
0.0026857
0.00267088
0.00265584
0.00264064
0.00262536
0.00261004
0.00259476
0.00257958
0.00256453
0.00254962
0.00253472
0.00251932
0.00250356
0.00248824
0.0024734
0.00245896
0.00244505
0.00243175
0.0024191
0.00240703
0.0023956
0.00238491
0.0023748
0.00236493
0.00235567
0.00234657
0.00233671
0.00232672
0.00231129
0.00227343
7.98453e-06
8.91503e-05
0.000183119
0.000258387
0.000316219
0.000360316
0.000394619
0.000422217
0.000445389
0.000465725
0.000484266
0.000501653
0.000518255
0.000534275
0.000549827
0.000564986
0.000579812
0.000594373
0.000608752
0.000623051
0.000637398
0.000651954
0.000666917
0.000682532
0.000699067
0.000716746
0.000735671
0.000755656
0.000776306
0.000797718
0.000820598
0.000845164
0.00087093
0.000897114
0.000923157
0.000949007
0.00097489
0.00100149
0.00102872
0.00105621
0.00108392
0.00111182
0.00113992
0.00116821
0.0011967
0.00122538
0.00125426
0.00128334
0.00131263
0.00134212
0.00137181
0.00140172
0.00143186
0.00146222
0.00149281
0.00152363
0.00155468
0.00158596
0.00161747
0.0016492
0.00168115
0.00171331
0.00174567
0.00177824
0.001811
0.00184394
0.00187705
0.00191032
0.00194374
0.0019773
0.00201098
0.00204477
0.00207865
0.00211261
0.00214664
0.0021807
0.0022148
0.00224891
0.00228301
0.00231708
0.00235111
0.00238508
0.00241895
0.00245272
0.00248636
0.00251985
0.00255316
0.00258625
0.00261912
0.00265172
0.00268402
0.00271599
0.00274759
0.00277882
0.00280967
0.00284013
0.00287022
0.00289993
0.00292924
0.00295813
0.00298656
0.00301453
0.003042
0.00306896
0.00309536
0.0031212
0.00314643
0.00317104
0.003195
0.00321827
0.00324084
0.00326267
0.00328372
0.00330398
0.0033234
0.00334196
0.00335963
0.00337638
0.00339217
0.00340699
0.00342079
0.00343356
0.00344528
0.00345623
0.00346583
0.00347367
0.00348043
0.00348658
0.0034914
0.00349493
0.00349719
0.00349819
0.00349793
0.00349642
0.00349368
0.00348972
0.00348456
0.00347822
0.00347074
0.00346214
0.00345247
0.00344177
0.00343009
0.00341749
0.00340402
0.00338974
0.00337471
0.00335901
0.00334271
0.00332586
0.00330855
0.00329085
0.00327284
0.00325459
0.00323619
0.00321772
0.00319924
0.00318085
0.00316259
0.00314452
0.00312657
0.00310855
0.00309051
0.00307283
0.00305566
0.00303902
0.00302301
0.00300771
0.00299317
0.00297939
0.0029664
0.00295427
0.0029429
0.00293212
0.00292195
0.00291215
0.00290225
0.00289107
0.00287505
0.00284304
9.8518e-06
0.000100471
0.000205795
0.000291416
0.000358533
0.000410396
0.000451046
0.000483741
0.000510969
0.000534551
0.000555765
0.000575472
0.000594233
0.000612409
0.000630233
0.000647874
0.000665467
0.000683136
0.000701009
0.000719216
0.000737894
0.000757181
0.000777217
0.000798141
0.000820077
0.000843108
0.000867236
0.000892319
0.000918151
0.000944685
0.00097205
0.00100031
0.00102936
0.00105899
0.001089
0.00111928
0.00114987
0.00118084
0.00121215
0.00124372
0.00127551
0.00130751
0.0013397
0.00137211
0.00140471
0.00143753
0.00147057
0.00150382
0.0015373
0.00157101
0.00160497
0.00163916
0.00167358
0.00170823
0.00174311
0.00177822
0.00181357
0.00184914
0.00188493
0.00192094
0.00195716
0.00199359
0.00203021
0.00206702
0.00210402
0.00214118
0.00217849
0.00221595
0.00225354
0.00229125
0.00232906
0.00236695
0.00240492
0.00244293
0.00248098
0.00251905
0.00255712
0.00259517
0.00263318
0.00267113
0.002709
0.00274677
0.00278441
0.00282191
0.00285925
0.00289639
0.00293331
0.00296999
0.00300641
0.00304254
0.00307835
0.00311382
0.00314893
0.00318367
0.00321803
0.00325198
0.00328554
0.00331867
0.00335136
0.00338358
0.00341532
0.00344655
0.00347724
0.00350737
0.00353691
0.00356584
0.00359414
0.00362176
0.00364869
0.0036749
0.00370035
0.00372502
0.00374887
0.00377187
0.00379399
0.0038152
0.00383546
0.00385474
0.003873
0.00389021
0.00390635
0.00392137
0.00393524
0.00394826
0.00395991
0.00396989
0.00397842
0.0039862
0.00399258
0.00399756
0.00400113
0.00400329
0.00400405
0.0040034
0.00400136
0.00399795
0.00399317
0.00398706
0.00397965
0.00397095
0.00396103
0.00394991
0.00393765
0.00392431
0.00390995
0.00389463
0.00387842
0.00386139
0.00384362
0.00382518
0.00380615
0.00378662
0.00376668
0.00374641
0.00372589
0.00370523
0.00368452
0.00366383
0.00364327
0.00362288
0.0036027
0.00358266
0.00356282
0.00354338
0.00352447
0.00350617
0.00348858
0.00347178
0.00345584
0.0034408
0.00342669
0.00341356
0.00340138
0.00339006
0.00337963
0.00336987
0.00336037
0.00334991
0.00333528
0.00330926
1.15429e-05
0.000109807
0.00022458
0.000319195
0.000394643
0.000453731
0.000500497
0.000538289
0.000569732
0.000596816
0.000621002
0.000643334
0.000664534
0.000685101
0.000705378
0.000725611
0.000745991
0.000766674
0.000787798
0.000809491
0.000831867
0.000855027
0.000879053
0.00090401
0.000929941
0.000956859
0.000984735
0.00101348
0.00104299
0.00107317
0.00110402
0.00113551
0.00116761
0.00120024
0.0012333
0.00126674
0.00130051
0.0013346
0.00136896
0.00140357
0.0014384
0.00147344
0.00150869
0.00154414
0.0015798
0.00161567
0.00165176
0.00168806
0.00172459
0.00176134
0.00179832
0.00183553
0.00187296
0.00191062
0.00194851
0.00198661
0.00202493
0.00206348
0.00210223
0.00214119
0.00218035
0.0022197
0.00225923
0.00229894
0.00233881
0.00237883
0.00241899
0.00245928
0.00249969
0.00254019
0.00258077
0.00262142
0.00266213
0.00270286
0.00274361
0.00278436
0.00282509
0.00286577
0.0029064
0.00294694
0.00298739
0.00302771
0.00306788
0.00310789
0.00314771
0.00318732
0.0032267
0.00326582
0.00330467
0.00334321
0.00338144
0.00341932
0.00345685
0.003494
0.00353076
0.00356712
0.00360306
0.00363856
0.00367361
0.00370818
0.00374225
0.0037758
0.0038088
0.00384124
0.00387307
0.00390429
0.00393487
0.00396477
0.00399397
0.00402245
0.00405017
0.0040771
0.00410321
0.00412847
0.00415285
0.0041763
0.0041988
0.0042203
0.00424078
0.0042602
0.00427851
0.00429569
0.00431168
0.00432675
0.00434047
0.00435264
0.00436322
0.00437282
0.00438104
0.00438778
0.00439301
0.00439672
0.00439892
0.00439961
0.00439879
0.00439648
0.00439268
0.00438742
0.00438071
0.0043726
0.00436311
0.00435229
0.00434018
0.00432685
0.00431235
0.00429675
0.00428011
0.00426252
0.00424404
0.00422475
0.00420476
0.00418413
0.00416297
0.00414137
0.00411943
0.00409724
0.00407491
0.00405254
0.00403023
0.00400807
0.00398612
0.00396441
0.00394301
0.00392205
0.00390165
0.00388192
0.00386295
0.00384484
0.00382768
0.00381151
0.00379642
0.00378243
0.00376959
0.00375786
0.00374727
0.00373769
0.00372881
0.00371963
0.00370747
0.00368736
1.30243e-05
0.000117324
0.000239826
0.000342426
0.000425107
0.000490942
0.000543593
0.000586447
0.000622209
0.000652983
0.000680363
0.00070553
0.00072934
0.000752403
0.000775156
0.000797912
0.000820901
0.0008443
0.000868252
0.000892873
0.000918258
0.000944475
0.000971568
0.00099956
0.00102845
0.00105823
0.00108885
0.00112026
0.00115237
0.00118513
0.00121847
0.00125237
0.00128678
0.00132165
0.00135693
0.00139258
0.00142855
0.00146481
0.00150132
0.00153807
0.00157503
0.00161219
0.00164955
0.0016871
0.00172485
0.0017628
0.00180095
0.00183931
0.00187787
0.00191664
0.00195561
0.0019948
0.0020342
0.00207381
0.00211362
0.00215364
0.00219386
0.00223428
0.00227489
0.0023157
0.00235669
0.00239785
0.00243918
0.00248067
0.00252231
0.00256408
0.00260598
0.002648
0.00269011
0.00273232
0.00277459
0.00281692
0.0028593
0.00290169
0.0029441
0.00298649
0.00302886
0.00307118
0.00311343
0.00315559
0.00319765
0.00323959
0.00328137
0.00332299
0.00336442
0.00340564
0.00344662
0.00348736
0.00352782
0.00356799
0.00360785
0.00364738
0.00368656
0.00372538
0.00376381
0.00380185
0.00383948
0.00387667
0.00391341
0.00394968
0.00398546
0.00402073
0.00405546
0.00408964
0.00412324
0.00415624
0.00418861
0.00422033
0.00425138
0.00428172
0.00431133
0.00434018
0.00436824
0.00439547
0.00442185
0.00444733
0.00447188
0.00449547
0.00451805
0.00453959
0.00456005
0.00457938
0.00459753
0.00461474
0.00463059
0.00464503
0.00465792
0.0046696
0.00467991
0.00468871
0.00469592
0.00470154
0.00470557
0.004708
0.00470883
0.00470807
0.00470572
0.0047018
0.00469632
0.0046893
0.00468079
0.00467081
0.00465941
0.00464664
0.00463256
0.00461723
0.00460072
0.0045831
0.00456446
0.00454486
0.00452441
0.00450318
0.00448129
0.00445882
0.00443588
0.00441258
0.00438903
0.00436533
0.00434161
0.00431797
0.00429449
0.00427127
0.00424839
0.00422597
0.00420412
0.00418297
0.00416261
0.00414317
0.00412473
0.0041074
0.00409125
0.00407636
0.00406278
0.00405057
0.00403976
0.00403032
0.00402202
0.0040141
0.00400451
0.00398914
1.42754e-05
0.000123192
0.000251896
0.000361333
0.000450439
0.000522447
0.000580674
0.000628467
0.000668554
0.0007031
0.000733786
0.00076189
0.000788367
0.00081392
0.000839059
0.000864155
0.000889471
0.000915197
0.000941475
0.000968411
0.000996141
0.00102469
0.00105407
0.00108427
0.00111529
0.00114709
0.00117964
0.00121288
0.00124675
0.0012812
0.00131618
0.00135165
0.00138757
0.00142389
0.00146059
0.00149763
0.00153499
0.00157262
0.00161047
0.00164853
0.00168678
0.0017252
0.0017638
0.00180257
0.00184151
0.00188063
0.00191992
0.0019594
0.00199905
0.0020389
0.00207892
0.00211914
0.00215954
0.00220013
0.00224091
0.00228187
0.00232302
0.00236436
0.00240587
0.00244755
0.00248941
0.00253143
0.00257362
0.00261595
0.00265843
0.00270104
0.00274377
0.00278662
0.00282957
0.00287261
0.00291573
0.00295891
0.00300214
0.0030454
0.00308868
0.00313196
0.00317523
0.00321846
0.00326163
0.00330474
0.00334775
0.00339066
0.00343343
0.00347605
0.0035185
0.00356075
0.0036028
0.00364461
0.00368617
0.00372746
0.00376846
0.00380915
0.00384951
0.00388953
0.00392918
0.00396846
0.00400734
0.0040458
0.00408384
0.00412142
0.00415853
0.00419516
0.00423128
0.00426687
0.00430191
0.00433638
0.00437027
0.00440354
0.00443618
0.00446815
0.00449944
0.00453001
0.00455984
0.0045889
0.00461714
0.00464455
0.00467107
0.00469668
0.00472134
0.004745
0.00476762
0.00478916
0.00480957
0.004829
0.00484711
0.00486391
0.0048793
0.00489334
0.00490601
0.00491715
0.00492664
0.00493448
0.00494066
0.00494519
0.00494804
0.00494922
0.00494872
0.00494654
0.00494271
0.00493722
0.00493011
0.0049214
0.00491115
0.00489938
0.00488615
0.00487152
0.00485555
0.00483832
0.0048199
0.00480038
0.00477983
0.00475836
0.00473606
0.00471304
0.00468939
0.00466525
0.00464071
0.0046159
0.00459094
0.00456596
0.00454107
0.00451638
0.004492
0.00446806
0.00444468
0.004422
0.00440013
0.0043792
0.00435934
0.00434066
0.00432327
0.00430728
0.00429279
0.00427989
0.00426867
0.00425916
0.00425126
0.00424439
0.00423701
0.00422639
1.5286e-05
0.000127556
0.000261059
0.000376201
0.000470936
0.000548528
0.000611954
0.000664467
0.000708773
0.000747055
0.000781039
0.000812068
0.000841165
0.000869097
0.000896441
0.000923651
0.000950992
0.00097865
0.00100676
0.00103539
0.00106471
0.00109478
0.0011256
0.00115719
0.00118951
0.00122253
0.00125622
0.00129053
0.00132541
0.00136082
0.00139672
0.00143305
0.0014698
0.00150691
0.00154436
0.00158211
0.00162015
0.00165832
0.00169674
0.00173533
0.00177407
0.00181293
0.00185192
0.00189104
0.0019303
0.0019697
0.00200925
0.00204895
0.0020888
0.00212881
0.00216899
0.00220932
0.00224983
0.00229051
0.00233135
0.00237238
0.00241357
0.00245495
0.0024965
0.00253822
0.00258012
0.00262218
0.00266442
0.00270681
0.00274936
0.00279206
0.00283491
0.00287789
0.00292099
0.00296421
0.00300754
0.00305095
0.00309445
0.00313801
0.00318162
0.00322527
0.00326894
0.0033126
0.00335625
0.00339986
0.00344341
0.00348689
0.00353027
0.00357354
0.00361666
0.00365963
0.00370242
0.003745
0.00378737
0.00382949
0.00387136
0.00391294
0.00395423
0.0039952
0.00403583
0.0040761
0.00411601
0.00415553
0.00419464
0.00423332
0.00427157
0.00430936
0.00434668
0.0043835
0.00441981
0.0044556
0.00449083
0.00452551
0.00455959
0.00459307
0.00462592
0.00465811
0.00468962
0.00472041
0.00475046
0.00477974
0.00480821
0.00483583
0.00486256
0.00488836
0.0049132
0.00493701
0.00495977
0.00498153
0.00500204
0.00502134
0.00503934
0.00505601
0.00507127
0.00508504
0.00509706
0.00510739
0.00511603
0.00512296
0.00512816
0.00513161
0.0051333
0.00513323
0.00513139
0.0051278
0.00512246
0.0051154
0.00510665
0.00509624
0.00508422
0.00507064
0.00505556
0.00503905
0.00502117
0.00500202
0.00498168
0.00496023
0.00493778
0.00491442
0.00489028
0.00486547
0.0048401
0.00481431
0.00478822
0.00476198
0.00473571
0.00470954
0.00468361
0.00465806
0.00463302
0.00460865
0.00458509
0.00456248
0.00454097
0.00452071
0.00450183
0.00448449
0.00446883
0.00445498
0.00444308
0.00443323
0.00442543
0.00441927
0.00441364
0.00440686
1.60567e-05
0.000130569
0.000267585
0.000387339
0.000486899
0.00056944
0.000637606
0.000694519
0.000742822
0.00078468
0.000821834
0.000855672
0.000887249
0.000917325
0.000946423
0.000975139
0.00100383
0.00103276
0.00106209
0.00109197
0.00112252
0.00115372
0.00118557
0.00121804
0.00125113
0.00128481
0.00131903
0.00135376
0.00138896
0.00142459
0.00146061
0.00149698
0.00153368
0.00157067
0.00160792
0.00164541
0.00168316
0.00172118
0.00175947
0.00179785
0.00183626
0.00187473
0.00191326
0.00195186
0.00199055
0.00202934
0.00206825
0.00210727
0.00214643
0.00218572
0.00222516
0.00226475
0.00230449
0.00234441
0.00238449
0.00242476
0.00246521
0.00250585
0.00254668
0.00258771
0.00262893
0.00267036
0.00271199
0.00275382
0.00279585
0.00283807
0.00288048
0.00292308
0.00296586
0.0030088
0.00305191
0.00309516
0.00313855
0.00318207
0.00322569
0.0032694
0.00331319
0.00335704
0.00340092
0.00344482
0.00348872
0.00353259
0.00357642
0.00362017
0.00366383
0.00370738
0.00375079
0.00379404
0.0038371
0.00387996
0.0039226
0.00396498
0.0040071
0.00404893
0.00409045
0.00413164
0.00417249
0.00421297
0.00425308
0.00429279
0.00433209
0.00437096
0.00440939
0.00444736
0.00448487
0.00452188
0.0045584
0.0045944
0.00462986
0.00466477
0.00469911
0.00473286
0.00476599
0.00479848
0.00483031
0.00486143
0.00489182
0.00492144
0.00495026
0.00497823
0.00500531
0.00503146
0.00505664
0.00508082
0.00510386
0.0051258
0.00514656
0.00516602
0.00518409
0.00520076
0.00521553
0.0052286
0.00523995
0.00524955
0.00525738
0.00526341
0.0052676
0.00526995
0.00527043
0.00526906
0.00526583
0.00526074
0.00525382
0.0052451
0.00523461
0.00522239
0.0052085
0.005193
0.00517595
0.00515744
0.00513755
0.00511636
0.00509397
0.00507049
0.00504604
0.00502071
0.00499465
0.00496799
0.00494086
0.00491341
0.00488578
0.00485812
0.00483059
0.00480334
0.00477653
0.00475032
0.00472489
0.0047004
0.00467702
0.00465494
0.00463432
0.00461536
0.00459824
0.00458314
0.00457026
0.00455975
0.0045517
0.00454586
0.00454145
0.00453762
1.65993e-05
0.000132407
0.000271752
0.000395058
0.00049862
0.000585415
0.000657778
0.000718662
0.000770623
0.000815772
0.000855755
0.000891815
0.000925295
0.000957078
0.000987901
0.00101825
0.00104838
0.00107854
0.00110891
0.00113961
0.00117073
0.00120229
0.00123433
0.00126687
0.0012999
0.00133339
0.0013673
0.00140161
0.00143627
0.00147125
0.00150652
0.00154207
0.00157785
0.00161387
0.00165008
0.00168643
0.00172299
0.0017598
0.00179696
0.00183417
0.00187139
0.0019086
0.00194577
0.00198293
0.00202012
0.00205738
0.00209472
0.00213217
0.00216973
0.00220743
0.00224527
0.00228327
0.00232145
0.00235982
0.00239838
0.00243717
0.00247618
0.00251542
0.00255492
0.00259466
0.00263467
0.00267495
0.0027155
0.00275633
0.00279743