/*--------------------------------*- C++ -*----------------------------------*\
  =========                 |
  \\      /  F ield         | OpenFOAM: The Open Source CFD Toolbox
   \\    /   O peration     | Website:  https://openfoam.org
    \\  /    A nd           | Version:  8
     \\/     M anipulation  |
\*---------------------------------------------------------------------------*/
FoamFile
{
    version     2.0;
    format      ascii;
    class       volScalarField;
    location    "205";
    object      p;
}
// * * * * * * * * * * * * * * * * * * * * * * * * * * * * * * * * * * * * * //

dimensions      [0 2 -2 0 0 0 0];

internalField   nonuniform List<scalar> 
12225
(
-2.3108
-4.49873
-5.5987
-5.91931
-6.10056
-6.26956
-6.4011
-6.49626
-6.57291
-6.64037
-6.70047
-6.75547
-6.80542
-6.85202
-6.8955
-6.93148
-6.97597
-6.94464
-5.47316
-6.24195
-6.40241
-6.31014
-6.29758
-6.36541
-6.44296
-6.50871
-6.56837
-6.62587
-6.68059
-6.73162
-6.77968
-6.82495
-6.86843
-6.90641
-6.95032
-6.97889
-5.8738
-5.85957
-5.98694
-6.06529
-6.16016
-6.28031
-6.38753
-6.47239
-6.54425
-6.60966
-6.66987
-6.72491
-6.77624
-6.82414
-6.87016
-6.91195
-6.95953
-7.00078
-5.75242
-5.69575
-5.93735
-6.09564
-6.19734
-6.30352
-6.4012
-6.48126
-6.55003
-6.61318
-6.67183
-6.72597
-6.77676
-6.82453
-6.8707
-6.91445
-6.962
-7.00934
-5.74249
-5.76683
-5.99485
-6.13636
-6.21993
-6.31196
-6.40316
-6.48087
-6.54844
-6.61072
-6.66891
-6.723
-6.77395
-6.82223
-6.86911
-6.91462
-6.96255
-7.01259
-5.80059
-5.84936
-6.02356
-6.14741
-6.22887
-6.31666
-6.40467
-6.48117
-6.54815
-6.60989
-6.66774
-6.72177
-6.7728
-6.82141
-6.86871
-6.91516
-6.96312
-7.01325
-5.86091
-5.90501
-6.04012
-6.15638
-6.24007
-6.32415
-6.40804
-6.48265
-6.54874
-6.60977
-6.66709
-6.7209
-6.77186
-6.82061
-6.86808
-6.91488
-6.96249
-7.01153
-5.91438
-5.95194
-6.06183
-6.17005
-6.25299
-6.33254
-6.41191
-6.48436
-6.54939
-6.60962
-6.66633
-6.71982
-6.77062
-6.81936
-6.86679
-6.9135
-6.96043
-7.00788
-5.96405
-5.99713
-6.08799
-6.18588
-6.26589
-6.3412
-6.41632
-6.4864
-6.55018
-6.60947
-6.66546
-6.71849
-6.76899
-6.81752
-6.86468
-6.91096
-6.95692
-7.00261
-6.01105
-6.04027
-6.11573
-6.20287
-6.27901
-6.35049
-6.42154
-6.48899
-6.55127
-6.60945
-6.66457
-6.71698
-6.76701
-6.81511
-6.86176
-6.90732
-6.95213
-6.99605
-6.05531
-6.08078
-6.14392
-6.22102
-6.29263
-6.36039
-6.42755
-6.49218
-6.55271
-6.60964
-6.66373
-6.71534
-6.76472
-6.8122
-6.85813
-6.90277
-6.9463
-6.98849
-6.09328
-6.11561
-6.16975
-6.23851
-6.30556
-6.36987
-6.43363
-6.49561
-6.55437
-6.61
-6.66303
-6.71376
-6.76238
-6.80913
-6.85425
-6.89791
-6.94022
-6.98092
-6.12835
-6.14805
-6.19482
-6.25613
-6.31855
-6.37948
-6.44001
-6.49936
-6.55626
-6.6105
-6.66239
-6.71214
-6.75989
-6.80579
-6.85001
-6.89263
-6.93373
-6.97303
-6.16508
-6.18225
-6.22222
-6.27616
-6.33342
-6.3905
-6.44755
-6.50396
-6.55867
-6.61121
-6.66169
-6.7102
-6.75684
-6.80166
-6.84474
-6.88614
-6.92586
-6.9637
-6.20222
-6.21699
-6.25094
-6.29797
-6.34978
-6.4027
-6.45608
-6.50932
-6.56151
-6.61206
-6.66084
-6.70786
-6.75311
-6.7966
-6.83834
-6.87833
-6.91657
-6.95288
-6.2378
-6.25042
-6.27931
-6.32022
-6.36672
-6.41537
-6.46504
-6.51503
-6.5645
-6.6128
-6.65966
-6.70494
-6.74859
-6.79053
-6.83075
-6.8692
-6.90589
-6.94068
-6.26894
-6.2798
-6.30472
-6.34062
-6.38246
-6.42713
-6.47332
-6.5202
-6.56695
-6.61292
-6.65772
-6.70114
-6.74303
-6.78331
-6.8219
-6.85877
-6.8939
-6.92723
-6.29125
-6.30089
-6.32313
-6.35556
-6.39397
-6.43557
-6.47897
-6.52328
-6.56769
-6.61156
-6.65443
-6.69605
-6.73623
-6.77487
-6.81189
-6.84724
-6.8809
-6.91286
-6.29785
-6.307
-6.32821
-6.35933
-6.39639
-6.43664
-6.47865
-6.52155
-6.56458
-6.60707
-6.64857
-6.68882
-6.72764
-6.76494
-6.80064
-6.83472
-6.86716
-6.898
-6.28159
-6.29136
-6.31394
-6.347
-6.38598
-6.42764
-6.47056
-6.51405
-6.55737
-6.59991
-6.64121
-6.6811
-6.71943
-6.75615
-6.79119
-6.82458
-6.85631
-6.88646
-6.25465
-6.26544
-6.2907
-6.3277
-6.37045
-6.41493
-6.45998
-6.50518
-6.54978
-6.59309
-6.63482
-6.67489
-6.71324
-6.74983
-6.78466
-6.81775
-6.84918
-6.87899
-6.21938
-6.23119
-6.26053
-6.3041
-6.35235
-6.4003
-6.44808
-6.49577
-6.54228
-6.58684
-6.62933
-6.66986
-6.70845
-6.7451
-6.77987
-6.81284
-6.84408
-6.87368
-6.1788
-6.19069
-6.22513
-6.27838
-6.3339
-6.38582
-6.43668
-6.48709
-6.53557
-6.58141
-6.6248
-6.66596
-6.70493
-6.74177
-6.77659
-6.80954
-6.84069
-6.8702
-6.13508
-6.14604
-6.1878
-6.2522
-6.31435
-6.371
-6.42659
-6.48041
-6.53064
-6.57743
-6.62152
-6.66318
-6.70242
-6.73935
-6.77418
-6.80706
-6.83813
-6.86753
-6.08817
-6.09362
-6.15626
-6.23444
-6.29636
-6.35458
-6.41569
-6.47402
-6.52651
-6.57454
-6.61952
-6.66176
-6.70128
-6.7383
-6.7731
-6.80591
-6.83689
-6.86624
-6.0449
-6.00846
-6.11797
-6.22892
-6.29115
-6.34641
-6.40859
-6.4683
-6.52149
-6.57018
-6.61587
-6.65865
-6.6985
-6.73571
-6.77061
-6.80348
-6.8345
-6.86384
-6.059
-5.9
-6.02892
-6.18299
-6.27308
-6.34442
-6.41332
-6.4742
-6.52697
-6.57523
-6.62049
-6.66272
-6.70199
-6.73864
-6.773
-6.80537
-6.83597
-6.86504
-6.18172
-6.00172
-6.01591
-6.08805
-6.1764
-6.2756
-6.36627
-6.44002
-6.50169
-6.55681
-6.60709
-6.65284
-6.69463
-6.7331
-6.76878
-6.8021
-6.83353
-6.86368
-5.88903
-6.4806
-6.56945
-6.44519
-6.39084
-6.41797
-6.46493
-6.50814
-6.54967
-6.59183
-6.6333
-6.6726
-6.70954
-6.74426
-6.77681
-6.80735
-6.83609
-6.86481
-2.90078
-4.66355
-5.66823
-5.96736
-6.11651
-6.26011
-6.37411
-6.45505
-6.51925
-6.57608
-6.62732
-6.67333
-6.71499
-6.75321
-6.78848
-6.82062
-6.84946
-6.87324
-7.76504
-7.7651
-7.76561
-7.76667
-7.76816
-7.77005
-7.7723
-7.77493
-7.77794
-7.78136
-7.78522
-7.78955
-7.7944
-7.79981
-7.80581
-7.81246
-7.81978
-7.82782
-7.83666
-7.84649
-7.85743
-7.8695
-7.88272
-7.89719
-7.91252
-7.92763
-7.94185
-7.95645
-7.9734
-7.99348
-8.01686
-8.04168
-8.06729
-8.09272
-8.11431
-8.13358
-8.15343
-8.17423
-8.19725
-8.22226
-8.24813
-8.27483
-8.3021
-8.32986
-8.35794
-8.38629
-8.41479
-8.44338
-8.47194
-8.50043
-8.52874
-8.55682
-8.58453
-8.61184
-8.63858
-8.66473
-8.6901
-8.71466
-8.73821
-8.7607
-8.78194
-8.80184
-8.8202
-8.83693
-8.85181
-8.86474
-8.87549
-8.88395
-8.88986
-8.8931
-8.89341
-8.89066
-8.88459
-8.87506
-8.86178
-8.84462
-8.82329
-8.79762
-8.76734
-8.73229
-8.69219
-8.64687
-8.59606
-8.5396
-8.47721
-8.40873
-8.33386
-8.25243
-8.1642
-8.06908
-7.96709
-7.85828
-7.74256
-7.61954
-7.48873
-7.34984
-7.20287
-7.0479
-6.88495
-6.71402
-6.53509
-6.34818
-6.15331
-5.95054
-5.73994
-5.52164
-5.29576
-5.06248
-4.82201
-4.57457
-4.32043
-4.05989
-3.79327
-3.5209
-3.24319
-2.96053
-2.67337
-2.38218
-2.08742
-1.78956
-1.4891
-1.18655
-0.882465
-0.577404
-0.271955
0.0333692
0.338058
0.641607
0.943484
1.24319
1.54024
1.83417
2.12452
2.4109
2.69291
2.9702
3.24247
3.50946
3.77095
4.02676
4.2767
4.52068
4.7586
4.99046
5.21625
5.43603
5.64987
5.85791
6.06028
6.25716
6.44878
6.63536
6.81716
6.99446
7.16758
7.33683
7.50255
7.66512
7.8249
7.9823
8.13773
8.29165
8.44441
8.5963
8.74769
8.89906
9.05087
9.20354
9.35756
9.51343
9.67159
9.83236
9.99599
10.1627
10.3327
10.5063
10.6841
10.8662
11.0633
11.264
-7.76288
-7.76342
-7.76419
-7.76506
-7.76584
-7.76667
-7.76778
-7.76932
-7.77134
-7.77387
-7.77694
-7.78054
-7.78468
-7.78939
-7.79469
-7.80061
-7.80717
-7.81441
-7.82239
-7.83113
-7.84054
-7.8506
-7.86147
-7.87304
-7.88493
-7.8974
-7.91189
-7.92904
-7.94765
-7.96642
-7.98338
-7.99993
-8.01661
-8.03374
-8.05568
-8.08322
-8.11256
-8.14254
-8.17116
-8.19829
-8.22534
-8.25258
-8.28008
-8.30785
-8.33583
-8.36401
-8.3923
-8.42065
-8.44898
-8.47723
-8.50531
-8.53316
-8.56067
-8.58778
-8.61438
-8.64038
-8.66566
-8.69013
-8.71366
-8.73614
-8.75742
-8.77738
-8.79587
-8.81275
-8.82784
-8.84102
-8.85207
-8.86086
-8.86718
-8.87086
-8.87168
-8.86948
-8.86403
-8.85516
-8.84262
-8.82624
-8.80576
-8.781
-8.75171
-8.7177
-8.67872
-8.63458
-8.58505
-8.52994
-8.469
-8.40206
-8.32887
-8.24923
-8.16292
-8.06981
-7.96977
-7.86259
-7.748
-7.62583
-7.49608
-7.35872
-7.21366
-7.06078
-6.89999
-6.73126
-6.55457
-6.36992
-6.17734
-5.97687
-5.76857
-5.55257
-5.32897
-5.09796
-4.85973
-4.6145
-4.36252
-4.10407
-3.83948
-3.56908
-3.29324
-3.01237
-2.72689
-2.43726
-2.14394
-1.84741
-1.54814
-1.24667
-0.943509
-0.639231
-0.33441
-0.0295801
0.274764
0.578112
0.879941
1.17975
1.47705
1.77137
2.06225
2.3493
2.63211
2.91033
3.18363
3.45176
3.71448
3.9716
4.22292
4.46833
4.70774
4.94112
5.16845
5.38979
5.60519
5.81478
6.01868
6.21708
6.41016
6.59816
6.78132
6.95994
7.13429
7.3047
7.47151
7.63508
7.79577
7.95398
8.11011
8.26456
8.41767
8.56979
8.72126
8.87256
9.02416
9.17649
9.33003
9.48533
9.64279
9.80276
9.96553
10.1314
10.3006
10.4736
10.6515
10.8339
11.034
11.2287
-7.75707
-7.75866
-7.76089
-7.76259
-7.76362
-7.76439
-7.76528
-7.76649
-7.76815
-7.77032
-7.77303
-7.7763
-7.78014
-7.78458
-7.78963
-7.79533
-7.8017
-7.80877
-7.81659
-7.82519
-7.83451
-7.8445
-7.85508
-7.86625
-7.87803
-7.89082
-7.90538
-7.92222
-7.9408
-7.96004
-7.97876
-7.99693
-8.01502
-8.03358
-8.05417
-8.07733
-8.10216
-8.12805
-8.15433
-8.18066
-8.20721
-8.23402
-8.26108
-8.28838
-8.31586
-8.34351
-8.37126
-8.39906
-8.42685
-8.45457
-8.48214
-8.5095
-8.53656
-8.56323
-8.58943
-8.61506
-8.64001
-8.66419
-8.68746
-8.70973
-8.73085
-8.75069
-8.76911
-8.78596
-8.8011
-8.81435
-8.82555
-8.83454
-8.84112
-8.84512
-8.84634
-8.84459
-8.83967
-8.83139
-8.81952
-8.80388
-8.78422
-8.76035
-8.73204
-8.69908
-8.66124
-8.61832
-8.57009
-8.51634
-8.45687
-8.39147
-8.31992
-8.24202
-8.15757
-8.06644
-7.96849
-7.86347
-7.75113
-7.63124
-7.50378
-7.36873
-7.22604
-7.0756
-6.91734
-6.75119
-6.57713
-6.39514
-6.20525
-6.0075
-5.80194
-5.58868
-5.36783
-5.13956
-4.90404
-4.6615
-4.41217
-4.15633
-3.89428
-3.62635
-3.3529
-3.07432
-2.79103
-2.50349
-2.21213
-1.91742
-1.61985
-1.31994
-1.01821
-0.715204
-0.411461
-0.107548
0.196031
0.498768
0.800159
1.0997
1.3969
1.69129
1.98241
2.26986
2.55322
2.83214
3.10628
3.37538
3.63919
3.8975
4.15012
4.39691
4.63778
4.87267
5.10157
5.3245
5.54152
5.75272
5.95823
6.15821
6.35286
6.54237
6.727
6.907
7.08267
7.2543
7.42224
7.5868
7.74836
7.9073
8.06401
8.21886
8.37224
8.52452
8.6761
8.8274
8.97889
9.13099
9.28419
9.43894
9.59569
9.75479
9.91661
10.0815
10.2499
10.4222
10.6002
10.7825
10.9848
11.1668
-7.74828
-7.75108
-7.75533
-7.7586
-7.76065
-7.76209
-7.76337
-7.76475
-7.76642
-7.7685
-7.77106
-7.77415
-7.7778
-7.78204
-7.78688
-7.79236
-7.79849
-7.80531
-7.81286
-7.82116
-7.83023
-7.84006
-7.85062
-7.86187
-7.87385
-7.88675
-7.9009
-7.91656
-7.93362
-7.95165
-7.97021
-7.98917
-8.00871
-8.02905
-8.05052
-8.07317
-8.0968
-8.12121
-8.14619
-8.17162
-8.19745
-8.22363
-8.25012
-8.27688
-8.30386
-8.33101
-8.35828
-8.38562
-8.41297
-8.44027
-8.46744
-8.49443
-8.52115
-8.54751
-8.57343
-8.59882
-8.62356
-8.64757
-8.67072
-8.69289
-8.71396
-8.7338
-8.75225
-8.76919
-8.78445
-8.79788
-8.8093
-8.81855
-8.82545
-8.82982
-8.83146
-8.83019
-8.8258
-8.81809
-8.80687
-8.79191
-8.77301
-8.74994
-8.7225
-8.69046
-8.65361
-8.61172
-8.5646
-8.51201
-8.45375
-8.38961
-8.31937
-8.24284
-8.1598
-8.07012
-7.97364
-7.87016
-7.75943
-7.6413
-7.51567
-7.38248
-7.24167
-7.09315
-6.93683
-6.77267
-6.60062
-6.42068
-6.23284
-6.03716
-5.83368
-5.62249
-5.40372
-5.17751
-4.94404
-4.70351
-4.45616
-4.20226
-3.9421
-3.67601
-3.40433
-3.12745
-2.84579
-2.55977
-2.26983
-1.97645
-1.68011
-1.38133
-1.08064
-0.778549
-0.475581
-0.172299
0.130767
0.433107
0.734228
1.03363
1.33082
1.62532
1.9167
2.20452
2.48838
2.76791
3.04278
3.31271
3.57745
3.83677
4.09049
4.33845
4.58056
4.81674
5.04698
5.27128
5.48971
5.70232
5.90927
6.11067
6.30673
6.49762
6.68361
6.86491
7.04183
7.21463
7.38367
7.54924
7.71171
7.87144
8.02882
8.18418
8.33791
8.49036
8.64196
8.79314
8.94436
9.09605
9.24869
9.40271
9.55853
9.71656
9.87718
10.0408
10.2079
10.3789
10.5556
10.736
10.9358
11.1037
-7.73882
-7.74285
-7.74929
-7.75436
-7.75768
-7.7601
-7.7621
-7.76401
-7.76603
-7.76834
-7.77105
-7.77424
-7.77795
-7.78223
-7.78711
-7.79263
-7.79879
-7.80565
-7.81322
-7.82154
-7.83064
-7.84055
-7.85128
-7.86286
-7.87529
-7.88867
-7.90306
-7.91855
-7.93505
-7.95243
-7.97054
-7.98936
-8.00898
-8.0295
-8.05101
-8.07345
-8.09668
-8.12057
-8.14498
-8.16986
-8.19515
-8.22082
-8.24681
-8.2731
-8.29963
-8.32635
-8.35321
-8.38017
-8.40716
-8.43412
-8.46099
-8.48769
-8.51414
-8.54028
-8.56599
-8.59121
-8.61582
-8.63972
-8.6628
-8.68493
-8.706
-8.72587
-8.74439
-8.76143
-8.77683
-8.79044
-8.80208
-8.81158
-8.81877
-8.82347
-8.82548
-8.82462
-8.82068
-8.81346
-8.80276
-8.78838
-8.77008
-8.74767
-8.72093
-8.68962
-8.65355
-8.61249
-8.56623
-8.51454
-8.45722
-8.39406
-8.32484
-8.24935
-8.1674
-8.07883
-7.98348
-7.88115
-7.77165
-7.65482
-7.53054
-7.39873
-7.25929
-7.11214
-6.95721
-6.79444
-6.62379
-6.44525
-6.25881
-6.06452
-5.86243
-5.65262
-5.4352
-5.21033
-4.97818
-4.73893
-4.49283
-4.24013
-3.98113
-3.71614
-3.44552
-3.16963
-2.88889
-2.60373
-2.31458
-2.0219
-1.7262
-1.42798
-1.12779
-0.826128
-0.52351
-0.220462
0.0824476
0.384716
0.685835
0.985319
1.28267
1.57742
1.86912
2.15733
2.44165
2.72171
2.99719
3.26778
3.53322
3.79329
4.04779
4.29659
4.53954
4.77662
5.00776
5.23299
5.45234
5.6659
5.87376
6.0761
6.27304
6.46482
6.65163
6.83376
7.01142
7.18495
7.35461
7.52078
7.68375
7.8439
8.00155
8.15708
8.31083
8.46321
8.61463
8.76553
8.91634
9.06751
9.21948
9.37271
9.52759
9.68457
9.84404
10.0064
10.1722
10.3418
10.5166
10.6942
10.8895
11.0443
-7.73059
-7.73577
-7.74411
-7.75082
-7.75544
-7.75891
-7.76178
-7.76438
-7.76696
-7.76971
-7.77277
-7.77626
-7.78023
-7.78475
-7.78986
-7.79559
-7.80198
-7.80907
-7.81687
-7.82544
-7.8348
-7.84498
-7.856
-7.8679
-7.8807
-7.89444
-7.90911
-7.92473
-7.94122
-7.95853
-7.97656
-7.99532
-8.01484
-8.03518
-8.05635
-8.07835
-8.10107
-8.12444
-8.14837
-8.17278
-8.19762
-8.22286
-8.24844
-8.27434
-8.30049
-8.32687
-8.3534
-8.38005
-8.40676
-8.43347
-8.4601
-8.4866
-8.51287
-8.53886
-8.56446
-8.58958
-8.61413
-8.638
-8.66108
-8.68324
-8.70436
-8.72432
-8.74296
-8.76015
-8.77572
-8.78953
-8.80141
-8.81118
-8.81866
-8.82368
-8.82604
-8.82556
-8.82202
-8.81525
-8.80501
-8.79112
-8.77335
-8.75149
-8.72532
-8.69463
-8.65919
-8.61879
-8.57322
-8.52225
-8.46567
-8.40327
-8.33485
-8.26018
-8.17907
-8.09136
-7.99688
-7.89544
-7.78686
-7.67099
-7.54769
-7.41687
-7.27842
-7.13226
-6.97831
-6.81651
-6.64682
-6.46923
-6.28373
-6.09036
-5.88917
-5.68025
-5.46369
-5.23966
-5.0083
-4.76982
-4.52445
-4.27243
-4.01407
-3.74967
-3.47958
-3.20419
-2.92389
-2.63909
-2.35026
-2.05784
-1.76234
-1.46428
-1.16419
-0.862591
-0.559989
-0.256892
0.0461341
0.348566
0.649898
0.949642
1.2473
1.5424
1.83448
2.12311
2.40788
2.68843
2.96441
3.23553
3.50152
3.76214
4.01719
4.26655
4.51007
4.74771
4.9794
5.20518
5.42505
5.63912
5.84747
6.05026
6.24763
6.4398
6.62695
6.80937
6.98729
7.16101
7.33082
7.49705
7.66002
7.82009
7.97757
8.13286
8.28628
8.43828
8.58924
8.73962
8.88982
9.0403
9.19149
9.34384
9.49778
9.65372
9.8121
9.9733
10.1378
10.3059
10.4787
10.6532
10.8441
10.9875
-7.72491
-7.73105
-7.74083
-7.74888
-7.75465
-7.75911
-7.76284
-7.76618
-7.76938
-7.77267
-7.77621
-7.78011
-7.78446
-7.78933
-7.79477
-7.80083
-7.80755
-7.81496
-7.8231
-7.83199
-7.84168
-7.85218
-7.86351
-7.8757
-7.88876
-7.90271
-7.91753
-7.93322
-7.94973
-7.96703
-7.98506
-8.00382
-8.02329
-8.04351
-8.06446
-8.08613
-8.10847
-8.13144
-8.15496
-8.17899
-8.20347
-8.22836
-8.25362
-8.27921
-8.30508
-8.33119
-8.35748
-8.38392
-8.41043
-8.43697
-8.46346
-8.48985
-8.51604
-8.54196
-8.56753
-8.59264
-8.61721
-8.64112
-8.66427
-8.68652
-8.70777
-8.72786
-8.74667
-8.76405
-8.77983
-8.79388
-8.806
-8.81605
-8.82382
-8.82916
-8.83185
-8.83172
-8.82856
-8.82217
-8.81235
-8.79888
-8.78155
-8.76015
-8.73446
-8.70426
-8.66933
-8.62946
-8.58442
-8.53401
-8.478
-8.41619
-8.34837
-8.27431
-8.19383
-8.10676
-8.01292
-7.91214
-7.80423
-7.68903
-7.56643
-7.43629
-7.29852
-7.15303
-6.99974
-6.83858
-6.66952
-6.49254
-6.30763
-6.11483
-5.91418
-5.70577
-5.48971
-5.26613
-5.0352
-4.79711
-4.55208
-4.30038
-4.04228
-3.7781
-3.50819
-3.23293
-2.9527
-2.66794
-2.37909
-2.08662
-1.79103
-1.49284
-1.19257
-0.890782
-0.58796
-0.284623
0.0186996
0.32145
0.623137
0.923253
1.22131
1.51682
1.80933
2.09839
2.38361
2.6646
2.94104
3.2126
3.47904
3.74007
3.99555
4.24528
4.48919
4.72716
4.9592
5.18526
5.40542
5.61971
5.82826
6.03118
6.22867
6.42088
6.60805
6.79041
6.96823
7.14177
7.31136
7.47728
7.6399
7.79953
7.95653
8.11124
8.26406
8.41537
8.56562
8.7152
8.86458
9.01416
9.1644
9.31574
9.46862
9.62346
9.78068
9.94067
10.1038
10.2703
10.4411
10.6126
10.7995
10.9332
-7.72253
-7.72933
-7.74005
-7.74907
-7.75575
-7.76105
-7.76555
-7.76958
-7.7734
-7.77724
-7.78128
-7.78563
-7.7904
-7.79567
-7.80149
-7.80793
-7.815
-7.82277
-7.83124
-7.84047
-7.85047
-7.86127
-7.87288
-7.88531
-7.89857
-7.91267
-7.92759
-7.94332
-7.95982
-7.97709
-7.99509
-8.01381
-8.03323
-8.05334
-8.07413
-8.0956
-8.11769
-8.14038
-8.16361
-8.18736
-8.21158
-8.23622
-8.26125
-8.28663
-8.31231
-8.33825
-8.3644
-8.39072
-8.41713
-8.4436
-8.47004
-8.4964
-8.52259
-8.54854
-8.57415
-8.59934
-8.624
-8.64802
-8.6713
-8.69371
-8.71512
-8.7354
-8.75442
-8.77201
-8.78804
-8.80233
-8.81472
-8.82504
-8.8331
-8.83873
-8.84174
-8.84193
-8.8391
-8.83305
-8.82357
-8.81045
-8.79349
-8.77246
-8.74715
-8.71733
-8.6828
-8.64333
-8.5987
-8.5487
-8.49312
-8.43173
-8.36434
-8.29072
-8.21068
-8.12405
-8.03066
-7.93032
-7.82285
-7.70811
-7.58595
-7.45625
-7.31891
-7.17383
-7.02093
-6.86015
-6.69144
-6.51479
-6.33019
-6.13766
-5.93727
-5.72909
-5.51322
-5.28981
-5.05901
-4.82101
-4.57604
-4.32436
-4.06624
-3.802
-3.53199
-3.25658
-2.97617
-2.69119
-2.40208
-2.10933
-1.81344
-1.51491
-1.21429
-0.912115
-0.608921
-0.305203
-0.00148287
0.301685
0.603799
0.904353
1.20285
1.4988
1.79174
2.08122
2.36686
2.64825
2.92507
3.19699
3.46376
3.72512
3.98088
4.23088
4.47502
4.7132
4.94539
5.17158
5.39182
5.60615
5.81469
6.01756
6.21493
6.40698
6.59393
6.77601
6.9535
7.12666
7.29581
7.46123
7.62328
7.78228
7.93859
8.09255
8.24456
8.39502
8.54435
8.69298
8.84134
8.98987
9.13902
9.28923
9.44095
9.59459
9.75056
9.90924
10.071
10.2357
10.4044
10.573
10.7562
10.8818
-7.72367
-7.73082
-7.74201
-7.7516
-7.75891
-7.76486
-7.76998
-7.77459
-7.77896
-7.7833
-7.78779
-7.79257
-7.79775
-7.80339
-7.80958
-7.81635
-7.82376
-7.83184
-7.84062
-7.85013
-7.86039
-7.87143
-7.88325
-7.89586
-7.90927
-7.92347
-7.93845
-7.95421
-7.97071
-7.98796
-8.00592
-8.02459
-8.04393
-8.06396
-8.08463
-8.10595
-8.12788
-8.1504
-8.17345
-8.19703
-8.22108
-8.24557
-8.27046
-8.29573
-8.32131
-8.34718
-8.37328
-8.39956
-8.42597
-8.45246
-8.47894
-8.50535
-8.53162
-8.55767
-8.5834
-8.60872
-8.63353
-8.65772
-8.68118
-8.70379
-8.72541
-8.74591
-8.76516
-8.78299
-8.79926
-8.8138
-8.82645
-8.83703
-8.84536
-8.85127
-8.85454
-8.85501
-8.85245
-8.84668
-8.83748
-8.82465
-8.80796
-8.78721
-8.76218
-8.73265
-8.6984
-8.65921
-8.61486
-8.56514
-8.50984
-8.44873
-8.38162
-8.30828
-8.22851
-8.14216
-8.04904
-7.94897
-7.84176
-7.72727
-7.60535
-7.47589
-7.33877
-7.19389
-7.04116
-6.88054
-6.71196
-6.53542
-6.3509
-6.15843
-5.95806
-5.74988
-5.53398
-5.31049
-5.07959
-4.84146
-4.59632
-4.34443
-4.08607
-3.82155
-3.55123
-3.27547
-2.99468
-2.70928
-2.41975
-2.12654
-1.83019
-1.53119
-1.23008
-0.927408
-0.623741
-0.319553
-0.0153814
0.288252
0.590818
0.891828
1.19076
1.48713
1.78045
2.07032
2.35631
2.63805
2.91517
3.18737
3.45436
3.71593
3.97184
4.22197
4.46616
4.70438
4.93655
5.16269
5.3828
5.59698
5.8053
6.00793
6.20498
6.39668
6.58322
6.76487
6.94184
7.11446
7.28299
7.44777
7.6091
7.76735
7.92284
8.07595
8.22705
8.37656
8.52488
8.67247
8.81975
8.96717
9.11517
9.26421
9.41472
9.56713
9.72182
9.87914
10.0394
10.2024
10.369
10.5347
10.7147
10.8336
-7.72819
-7.73541
-7.74662
-7.75641
-7.76407
-7.77043
-7.77599
-7.78104
-7.78583
-7.79058
-7.79545
-7.80059
-7.80609
-7.81205
-7.81853
-7.82558
-7.83325
-7.84158
-7.85059
-7.86032
-7.87077
-7.88198
-7.89394
-7.90666
-7.92016
-7.93442
-7.94943
-7.9652
-7.9817
-7.99892
-8.01684
-8.03547
-8.05476
-8.07472
-8.09533
-8.11657
-8.13841
-8.16084
-8.18381
-8.2073
-8.23127
-8.2557
-8.28055
-8.30579
-8.33137
-8.35725
-8.38339
-8.40973
-8.43621
-8.46278
-8.48937
-8.51592
-8.54233
-8.56853
-8.59444
-8.61995
-8.64495
-8.66935
-8.69302
-8.71585
-8.7377
-8.75843
-8.77791
-8.79597
-8.81248
-8.82725
-8.84013
-8.85094
-8.85949
-8.86561
-8.86911
-8.86978
-8.86743
-8.86186
-8.85286
-8.84022
-8.82372
-8.80315
-8.77829
-8.74893
-8.71485
-8.67582
-8.63163
-8.58207
-8.52691
-8.46595
-8.39898
-8.32577
-8.24615
-8.15991
-8.06691
-7.96695
-7.85985
-7.74545
-7.62361
-7.49422
-7.35714
-7.21229
-7.05957
-6.89893
-6.73031
-6.5537
-6.36908
-6.17649
-5.97597
-5.76761
-5.5515
-5.32777
-5.09659
-4.85816
-4.61267
-4.36041
-4.10164
-3.83668
-3.56589
-3.28964
-3.00832
-2.72238
-2.43229
-2.13853
-1.84162
-1.54205
-1.24037
-0.937144
-0.632936
-0.328239
-0.0235854
0.280508
0.583531
0.884989
1.18435
1.48111
1.7748
2.065
2.35129
2.63328
2.9106
3.18296
3.45006
3.71168
3.96759
4.21767
4.46176
4.69982
4.93178
5.15767
5.37748
5.59131
5.79924
6.00142
6.19799
6.38916
6.57512
6.75615
6.93247
7.10439
7.27218
7.43618
7.59669
7.75406
7.90865
8.06082
8.21094
8.35944
8.50672
8.65323
8.7994
8.94568
9.09253
9.24038
9.38969
9.54086
9.69428
9.85023
10.009
10.1703
10.3347
10.4978
10.6748
10.7884
-7.7357
-7.74273
-7.75358
-7.76324
-7.77098
-7.77752
-7.78333
-7.78865
-7.79371
-7.79874
-7.80387
-7.80926
-7.815
-7.82118
-7.82786
-7.83511
-7.84295
-7.85144
-7.8606
-7.87045
-7.88101
-7.89231
-7.90434
-7.91712
-7.93065
-7.94494
-7.95996
-7.97572
-7.9922
-8.0094
-8.0273
-8.0459
-8.06517
-8.08511
-8.10569
-8.12691
-8.14873
-8.17114
-8.1941
-8.21759
-8.24157
-8.26603
-8.29092
-8.31622
-8.34187
-8.36784
-8.39408
-8.42054
-8.44716
-8.47389
-8.50064
-8.52737
-8.55397
-8.58037
-8.60648
-8.6322
-8.65742
-8.68203
-8.70592
-8.72897
-8.75102
-8.77197
-8.79165
-8.80991
-8.8266
-8.84156
-8.85461
-8.86558
-8.87429
-8.88056
-8.88419
-8.88499
-8.88275
-8.87729
-8.86838
-8.85582
-8.8394
-8.8189
-8.79411
-8.7648
-8.73077
-8.69178
-8.64763
-8.5981
-8.54296
-8.48202
-8.41506
-8.34187
-8.26224
-8.176
-8.08299
-7.98301
-7.87588
-7.76144
-7.63955
-7.51009
-7.37293
-7.22797
-7.07513
-6.91433
-6.74554
-6.56872
-6.38388
-6.19104
-5.99024
-5.78157
-5.56512
-5.34103
-5.10946
-4.87059
-4.62465
-4.3719
-4.11262
-3.84712
-3.57576
-3.29892
-3.01699
-2.73044
-2.43973
-2.14536
-1.84782
-1.54765
-1.24537
-0.941569
-0.636785
-0.331557
-0.0263982
0.278152
0.581614
0.883479
1.18322
1.48032
1.77432
2.06476
2.35125
2.63336
2.91077
3.18313
3.45019
3.71168
3.96743
4.21726
4.46108
4.69878
4.93037
5.15579
5.37513
5.58841
5.79577
5.9973
6.19322
6.38367
6.56891
6.74914
6.92467
7.09573
7.26266
7.42574
7.58533
7.74174
7.89535
8.0465
8.19561
8.34305
8.48927
8.63469
8.77976
8.92493
9.07064
9.21736
9.3655
9.51549
9.66767
9.8223
9.97959
10.1392
10.3017
10.4622
10.6366
10.746
-7.74563
-7.75228
-7.76247
-7.77171
-7.77928
-7.78578
-7.79163
-7.79704
-7.80222
-7.80738
-7.81265
-7.81817
-7.82402
-7.83031
-7.83709
-7.84442
-7.85233
-7.86088
-7.87009
-7.87998
-7.89057
-7.90189
-7.91394
-7.92673
-7.94026
-7.95454
-7.96955
-7.9853
-8.00177
-8.01897
-8.03687
-8.05547
-8.07475
-8.09471
-8.11531
-8.13654
-8.15839
-8.18083
-8.20384
-8.2274
-8.25147
-8.27603
-8.30103
-8.32645
-8.35223
-8.37836
-8.40475
-8.43138
-8.45818
-8.48509
-8.51204
-8.53896
-8.56576
-8.59236
-8.61867
-8.64459
-8.67001
-8.69481
-8.71888
-8.7421
-8.76432
-8.78541
-8.80523
-8.82361
-8.84042
-8.85547
-8.8686
-8.87964
-8.8884
-8.89471
-8.89836
-8.89917
-8.89693
-8.89146
-8.88253
-8.86994
-8.85347
-8.83292
-8.80807
-8.7787
-8.74459
-8.70553
-8.66129
-8.61167
-8.55645
-8.49541
-8.42835
-8.35505
-8.27532
-8.18897
-8.09584
-7.99574
-7.88848
-7.77389
-7.65185
-7.52222
-7.38487
-7.23971
-7.08664
-6.92561
-6.75655
-6.57944
-6.39429
-6.20111
-5.99995
-5.7909
-5.57404
-5.34951
-5.11747
-4.87811
-4.63167
-4.37838
-4.11854
-3.85246
-3.58049
-3.30302
-3.02046
-2.73327
-2.44191
-2.14689
-1.84871
-1.5479
-1.24502
-0.940625
-0.63527
-0.329509
-0.0238826
0.281081
0.584906
0.8871
1.18714
1.48447
1.77865
2.06922
2.35576
2.63787
2.9152
3.18741
3.45425
3.71546
3.97085
4.22027
4.46362
4.70081
4.93181
5.15662
5.37529
5.58786
5.79446
5.99521
6.19029
6.37988
6.56422
6.74354
6.91811
7.08821
7.25415
7.41622
7.57479
7.73016
7.88271
8.03281
8.18085
8.32722
8.47236
8.6167
8.76068
8.90475
9.04937
9.19499
9.34201
9.49087
9.64186
9.79524
9.95114
10.1092
10.2698
10.4281
10.5999
10.706
-7.75738
-7.7635
-7.77281
-7.7814
-7.78857
-7.79483
-7.80052
-7.80584
-7.81098
-7.8161
-7.82135
-7.82685
-7.83269
-7.83896
-7.84571
-7.85301
-7.8609
-7.86942
-7.8786
-7.88846
-7.89903
-7.91032
-7.92234
-7.93511
-7.94862
-7.96288
-7.97787
-7.99362
-8.01009
-8.02729
-8.04521
-8.06384
-8.08315
-8.10313
-8.12377
-8.14506
-8.16697
-8.1895
-8.21261
-8.23628
-8.26049
-8.28519
-8.31035
-8.33593
-8.36189
-8.38818
-8.41475
-8.44155
-8.46853
-8.49562
-8.52274
-8.54983
-8.5768
-8.60356
-8.63002
-8.65608
-8.68162
-8.70653
-8.7307
-8.75399
-8.77627
-8.79741
-8.81724
-8.83564
-8.85242
-8.86745
-8.88053
-8.8915
-8.90018
-8.90639
-8.90993
-8.91062
-8.90825
-8.90262
-8.89354
-8.88078
-8.86415
-8.84342
-8.81838
-8.78883
-8.75453
-8.71528
-8.67085
-8.62104
-8.56563
-8.5044
-8.43714
-8.36365
-8.28372
-8.19718
-8.10386
-8.00356
-7.89609
-7.7813
-7.65903
-7.52917
-7.39158
-7.24617
-7.09284
-6.93152
-6.76217
-6.58475
-6.39926
-6.20572
-6.00419
-5.79473
-5.57744
-5.35246
-5.11995
-4.88009
-4.63311
-4.37927
-4.11886
-3.85219
-3.57961
-3.3015
-3.01831
-2.73047
-2.43848
-2.14282
-1.84402
-1.54261
-1.23916
-0.934212
-0.628344
-0.322116
-0.0161138
0.289169
0.593236
0.895635
1.19582
1.49327
1.78748
2.07802
2.36446
2.6464
2.92346
3.19536
3.46177
3.72251
3.97735
4.22618
4.46886
4.70535
4.93558
5.1596
5.3774
5.5891
5.79476
5.99456
6.18865
6.37724
6.56053
6.73881
6.91231
7.08134
7.24618
7.40718
7.56463
7.71892
7.87037
8.01938
8.16633
8.31164
8.45571
8.59899
8.74193
8.88497
9.02856
9.17315
9.31916
9.46695
9.61687
9.76908
9.92369
10.0802
10.2392
10.3954
10.565
10.6687
-7.77035
-7.77583
-7.78413
-7.79189
-7.79849
-7.80432
-7.80966
-7.81469
-7.81959
-7.82451
-7.82957
-7.8349
-7.84059
-7.84671
-7.85333
-7.86051
-7.86828
-7.8767
-7.88578
-7.89556
-7.90605
-7.91727
-7.92923
-7.94195
-7.95541
-7.96964
-7.98461
-8.00034
-8.0168
-8.03401
-8.05193
-8.07058
-8.08992
-8.10996
-8.13066
-8.15203
-8.17405
-8.19669
-8.21993
-8.24375
-8.2681
-8.29295
-8.31826
-8.344
-8.3701
-8.39653
-8.42323
-8.45016
-8.47725
-8.50444
-8.53166
-8.55884
-8.58587
-8.61269
-8.63918
-8.66525
-8.69078
-8.71566
-8.73978
-8.76299
-8.78518
-8.80619
-8.82589
-8.84412
-8.86073
-8.87555
-8.88842
-8.89917
-8.9076
-8.91356
-8.91683
-8.91725
-8.9146
-8.90869
-8.89931
-8.88627
-8.86934
-8.84833
-8.823
-8.79317
-8.75859
-8.71907
-8.67437
-8.6243
-8.56863
-8.50715
-8.43964
-8.36592
-8.28576
-8.199
-8.10546
-8.00494
-7.89724
-7.78222
-7.65973
-7.52963
-7.3918
-7.24613
-7.09254
-6.93095
-6.76131
-6.58358
-6.39777
-6.20389
-6.00199
-5.79215
-5.57446
-5.34905
-5.11608
-4.87574
-4.62827
-4.37391
-4.11295
-3.84572
-3.57256
-3.29387
-3.01009
-2.72166
-2.42909
-2.13286
-1.83352
-1.5316
-1.22765
-0.922237
-0.615951
-0.309385
-0.00311759
0.302342
0.606509
0.908943
1.20912
1.5065
1.80058
2.09091
2.37705
2.65862
2.93524
3.20659
3.4724
3.73246
3.98656
4.23458
4.47641
4.712
4.94129
5.16432
5.38111
5.59175
5.79634
5.99503
6.18799
6.37544
6.55758
6.73469
6.90703
7.07489
7.23858
7.39842
7.55473
7.70788
7.85822
8.00613
8.152
8.29625
8.43929
8.58156
8.72351
8.86558
9.00822
9.15187
9.29694
9.44378
9.5927
9.74385
9.89728
10.0525
10.2098
10.3642
10.5317
10.6338
-7.78401
-7.78881
-7.79602
-7.80285
-7.80871
-7.81391
-7.8187
-7.82325
-7.82771
-7.83223
-7.83694
-7.84195
-7.84734
-7.8532
-7.85958
-7.86654
-7.87412
-7.88236
-7.89129
-7.90093
-7.91129
-7.9224
-7.93426
-7.94688
-7.96027
-7.97443
-7.98935
-8.00504
-8.02149
-8.03868
-8.05661
-8.07528
-8.09466
-8.11475
-8.13552
-8.15698
-8.17909
-8.20183
-8.22516
-8.24907
-8.27351
-8.29844
-8.32382
-8.3496
-8.37574
-8.40219
-8.4289
-8.45581
-8.48288
-8.51003
-8.53718
-8.56427
-8.5912
-8.61788
-8.64422
-8.6701
-8.69542
-8.72008
-8.74393
-8.76687
-8.78876
-8.80946
-8.82882
-8.84671
-8.86295
-8.8774
-8.88989
-8.90024
-8.90828
-8.91383
-8.9167
-8.91671
-8.91366
-8.90735
-8.89759
-8.88416
-8.86686
-8.84548
-8.8198
-8.78961
-8.75471
-8.71486
-8.66986
-8.61949
-8.56354
-8.50178
-8.43406
-8.36008
-8.27971
-8.19273
-8.09898
-7.99825
-7.89035
-7.77513
-7.65244
-7.52214
-7.38411
-7.23823
-7.08443
-6.9226
-6.75272
-6.57474
-6.38867
-6.19451
-5.99231
-5.78215
-5.56412
-5.33836
-5.10501
-4.86428
-4.61638
-4.36159
-4.10018
-3.83248
-3.55884
-3.27967
-2.9954
-2.70651
-2.41347
-2.11682
-1.81706
-1.51475
-1.21042
-0.904699
-0.598156
-0.291421
0.0149538
0.320411
0.624495
0.926754
1.22672
1.52381
1.81755
2.10745
2.39311
2.67408
2.95003
3.22062
3.48562
3.74477
3.99793
4.24493
4.48573
4.72021
4.94839
5.17026
5.38587
5.5953
5.79867
5.99612
6.18784
6.37403
6.55493
6.73078
6.90189
7.06852
7.23101
7.38965
7.54481
7.69682
7.84605
7.99288
8.13772
8.28095
8.42303
8.56436
8.70541
8.84661
8.98842
9.13125
9.27549
9.42151
9.56955
9.71977
9.87214
10.0261
10.1821
10.3349
10.5005
10.6015
-7.79851
-7.80264
-7.80876
-7.81456
-7.81951
-7.82386
-7.82786
-7.83167
-7.83544
-7.83934
-7.84348
-7.84797
-7.85289
-7.85833
-7.86433
-7.87095
-7.87823
-7.88619
-7.89487
-7.90428
-7.91444
-7.92536
-7.93705
-7.94952
-7.96277
-7.97681
-7.99162
-8.00721
-8.02357
-8.0407
-8.05857
-8.07719
-8.09653
-8.1166
-8.13736
-8.1588
-8.18088
-8.20358
-8.22685
-8.25068
-8.27501
-8.29983
-8.32507
-8.3507
-8.37667
-8.40293
-8.42941
-8.45609
-8.4829
-8.50977
-8.53662
-8.56337
-8.58994
-8.61624
-8.64215
-8.66761
-8.69247
-8.71665
-8.74001
-8.76245
-8.78381
-8.80398
-8.82281
-8.84015
-8.85585
-8.86976
-8.8817
-8.89151
-8.89902
-8.90405
-8.9064
-8.90591
-8.90237
-8.89559
-8.88537
-8.8715
-8.85379
-8.83199
-8.80595
-8.77539
-8.74016
-8.69998
-8.6547
-8.60405
-8.54786
-8.48589
-8.41794
-8.3438
-8.26324
-8.17611
-8.0822
-7.98132
-7.87328
-7.75794
-7.63513
-7.50471
-7.36656
-7.22057
-7.06664
-6.9047
-6.73468
-6.55656
-6.37033
-6.17601
-5.97363
-5.76328
-5.54504
-5.31905
-5.08547
-4.84448
-4.59631
-4.34124
-4.07953
-3.81152
-3.53759
-3.25811
-2.97355
-2.68437
-2.39107
-2.09416
-1.79417
-1.49165
-1.18717
-0.881352
-0.574785
-0.268083
0.0381718
0.343415
0.647174
0.949014
1.24849
1.54506