/*--------------------------------*- C++ -*----------------------------------*\
  =========                 |
  \\      /  F ield         | OpenFOAM: The Open Source CFD Toolbox
   \\    /   O peration     | Website:  https://openfoam.org
    \\  /    A nd           | Version:  8
     \\/     M anipulation  |
\*---------------------------------------------------------------------------*/
FoamFile
{
    version     2.0;
    format      ascii;
    class       surfaceScalarField;
    location    "205";
    object      phi;
}
// * * * * * * * * * * * * * * * * * * * * * * * * * * * * * * * * * * * * * //

dimensions      [0 3 -1 0 0 0 0];

internalField   nonuniform List<scalar> 
24170
(
3.12889e-06
5.9517e-08
3.04664e-06
8.22516e-08
2.97354e-06
7.30955e-08
2.90489e-06
6.86437e-08
2.84056e-06
6.43293e-08
2.78323e-06
5.73262e-08
2.7339e-06
4.93252e-08
2.69195e-06
4.1954e-08
2.65627e-06
3.56764e-08
2.62582e-06
3.04492e-08
2.59961e-06
2.62027e-08
2.57681e-06
2.27985e-08
2.55676e-06
2.00555e-08
2.53885e-06
1.79002e-08
2.52275e-06
1.61056e-08
2.50743e-06
1.53118e-08
2.49318e-06
1.42477e-08
1.96432e-08
2.47354e-06
3.45314e-06
2.36264e-08
3.45702e-06
7.83733e-08
3.45054e-06
7.95667e-08
3.43908e-06
8.00997e-08
3.4243e-06
7.91093e-08
3.40705e-06
7.45769e-08
3.38783e-06
6.85455e-08
3.3673e-06
6.24817e-08
3.34614e-06
5.68259e-08
3.32496e-06
5.16345e-08
3.30422e-06
4.69398e-08
3.2842e-06
4.28113e-08
3.26511e-06
3.91479e-08
3.24697e-06
3.60399e-08
3.22988e-06
3.31951e-08
3.2137e-06
3.14884e-08
3.19883e-06
2.91208e-08
3.11465e-08
3.18732e-06
3.66826e-06
1.78821e-08
3.67918e-06
6.74483e-08
3.68542e-06
7.33345e-08
3.68945e-06
7.60593e-08
3.69105e-06
7.75128e-08
3.69008e-06
7.55435e-08
3.68694e-06
7.16836e-08
3.6821e-06
6.73244e-08
3.67594e-06
6.29799e-08
3.6688e-06
5.87769e-08
3.66094e-06
5.47919e-08
3.65263e-06
5.11249e-08
3.64403e-06
4.77432e-08
3.63532e-06
4.47515e-08
3.62654e-06
4.19759e-08
3.61806e-06
3.99654e-08
3.6094e-06
3.77807e-08
3.74127e-08
3.60313e-06
3.92587e-06
1.73972e-08
3.93592e-06
5.74021e-08
3.94256e-06
6.66857e-08
3.9481e-06
7.05184e-08
3.95252e-06
7.30995e-08
3.95546e-06
7.25966e-08
3.95713e-06
7.00156e-08
3.95776e-06
6.6693e-08
3.95754e-06
6.31961e-08
3.95662e-06
5.96941e-08
3.95514e-06
5.6276e-08
3.9532e-06
5.30541e-08
3.95092e-06
5.00294e-08
3.94838e-06
4.72886e-08
3.94561e-06
4.47437e-08
3.94289e-06
4.26822e-08
3.93999e-06
4.0679e-08
3.92925e-08
3.93811e-06
4.20819e-06
1.63307e-08
4.21598e-06
4.96111e-08
4.22168e-06
6.09877e-08
4.22678e-06
6.54163e-08
4.23153e-06
6.83531e-08
4.23549e-06
6.86274e-08
4.23866e-06
6.68501e-08
4.24113e-06
6.42194e-08
4.24302e-06
6.13086e-08
4.24441e-06
5.83049e-08
4.24538e-06
5.53055e-08
4.24601e-06
5.24203e-08
4.24636e-06
4.96766e-08
4.24651e-06
4.71394e-08
4.24648e-06
4.47719e-08
4.24645e-06
4.27088e-08
4.24638e-06
4.07454e-08
3.89618e-08
4.24671e-06
4.51069e-06
1.47297e-08
4.51688e-06
4.34155e-08
4.52213e-06
5.57386e-08
4.52694e-06
6.06021e-08
4.53165e-06
6.36423e-08
4.5359e-06
6.43809e-08
4.53957e-06
6.31791e-08
4.54272e-06
6.10616e-08
4.54544e-06
5.85901e-08
4.54778e-06
5.59641e-08
4.54979e-06
5.32908e-08
4.55154e-06
5.06725e-08
4.55306e-06
4.81539e-08
4.55442e-06
4.5782e-08
4.55564e-06
4.35467e-08
4.55685e-06
4.14991e-08
4.55807e-06
3.95295e-08
3.75807e-08
4.55945e-06
4.83431e-06
1.31427e-08
4.83963e-06
3.80946e-08
4.84475e-06
5.06143e-08
4.84945e-06
5.5901e-08
4.85408e-06
5.90116e-08
4.85839e-06
6.00662e-08
4.86226e-06
5.931e-08
4.86572e-06
5.76002e-08
4.86883e-06
5.54793e-08
4.87164e-06
5.31578e-08
4.87418e-06
5.0751e-08
4.87649e-06
4.83545e-08
4.87862e-06
4.60222e-08
4.88061e-06
4.37898e-08
4.8825e-06
4.16585e-08
4.88436e-06
3.96388e-08
4.88623e-06
3.76639e-08
3.56561e-08
4.88815e-06
5.18103e-06
1.16926e-08
5.18575e-06
3.3373e-08
5.19075e-06
4.56123e-08
5.1954e-06
5.1251e-08
5.19998e-06
5.44279e-08
5.20434e-06
5.57096e-08
5.20833e-06
5.53169e-08
5.21197e-06
5.39533e-08
5.21532e-06
5.21308e-08
5.21841e-06
5.00708e-08
5.22126e-06
4.78935e-08
5.22393e-06
4.56904e-08
5.22643e-06
4.35189e-08
5.22881e-06
4.14099e-08
5.2311e-06
3.93683e-08
5.23335e-06
3.73887e-08
5.23558e-06
3.54266e-08
3.34204e-08
5.23782e-06
5.55268e-06
1.03469e-08
5.55688e-06
2.917e-08
5.56169e-06
4.08057e-08
5.5663e-06
4.66438e-08
5.57086e-06
4.98659e-08
5.57526e-06
5.13075e-08
5.57936e-06
5.12156e-08
5.58315e-06
5.01569e-08
5.58668e-06
4.86007e-08
5.58998e-06
4.67759e-08
5.59306e-06
4.48057e-08
5.59597e-06
4.2779e-08
5.59874e-06
4.0754e-08
5.60139e-06
3.87602e-08
5.60395e-06
3.68049e-08
5.60646e-06
3.48796e-08
5.60893e-06
3.29536e-08
3.09902e-08
5.61136e-06
5.95103e-06
9.08891e-09
5.95478e-06
2.54211e-08
5.95935e-06
3.6233e-08
5.9639e-06
4.20895e-08
5.96845e-06
4.5321e-08
5.97289e-06
4.68657e-08
5.97709e-06
4.70158e-08
5.98102e-06
4.6225e-08
5.98471e-06
4.49104e-08
5.98818e-06
4.3302e-08
5.99146e-06
4.15247e-08
5.99457e-06
3.96649e-08
5.99755e-06
3.77801e-08
6.0004e-06
3.59006e-08
6.00317e-06
3.4036e-08
6.00587e-06
3.21811e-08
6.00851e-06
3.03163e-08
2.84264e-08
6.01107e-06
6.37798e-06
7.92026e-09
6.38134e-06
2.20595e-08
6.38567e-06
3.19056e-08
6.39015e-06
3.76054e-08
6.39467e-06
4.07992e-08
6.39914e-06
4.23968e-08
6.40342e-06
4.27299e-08
6.40748e-06
4.21683e-08
6.41131e-06
4.10721e-08
6.41495e-06
3.96641e-08
6.41841e-06
3.80692e-08
6.4217e-06
3.63707e-08
6.42485e-06
3.46249e-08
6.42789e-06
3.28635e-08
6.43083e-06
3.10993e-08
6.43367e-06
2.93322e-08
6.43644e-06
2.75521e-08
2.57603e-08
6.4391e-06
5.74176e-06
6.99526e-09
5.74434e-06
1.94781e-08
5.74781e-06
2.8437e-08
5.75153e-06
3.38786e-08
5.75533e-06
3.69986e-08
5.75912e-06
3.8607e-08
5.7628e-06
3.90504e-08
5.76631e-06
3.86503e-08
5.76966e-06
3.77204e-08
5.77286e-06
3.64703e-08
5.7759e-06
3.50226e-08
5.77881e-06
3.34578e-08
5.78161e-06
3.1831e-08
5.7843e-06
3.01747e-08
5.78689e-06
2.85046e-08
5.7894e-06
2.68254e-08
5.79181e-06
2.51334e-08
2.34409e-08
5.79413e-06
6.99914e-06
6.01249e-09
7.00187e-06
1.67469e-08
7.00563e-06
2.46738e-08
7.00979e-06
2.97131e-08
7.01411e-06
3.26803e-08
7.01846e-06
3.42551e-08
7.02273e-06
3.47794e-08
7.02685e-06
3.45283e-08
7.0308e-06
3.3766e-08
7.03459e-06
3.26828e-08
7.03822e-06
3.1396e-08
7.04169e-06
2.99823e-08
7.04503e-06
2.84945e-08
7.04824e-06
2.6966e-08
7.05132e-06
2.5415e-08
7.0543e-06
2.38517e-08
7.05715e-06
2.22772e-08
2.07134e-08
7.05988e-06
8.53188e-06
4.97993e-09
8.53473e-06
1.38927e-08
8.53876e-06
2.06433e-08
8.54336e-06
2.51157e-08
8.54821e-06
2.78258e-08
8.55316e-06
2.93037e-08
8.55808e-06
2.98626e-08
8.56287e-06
2.9734e-08
8.5675e-06
2.91314e-08
8.57197e-06
2.82194e-08
8.57625e-06
2.71054e-08
8.58037e-06
2.58611e-08
8.58433e-06
2.45354e-08
8.58814e-06
2.31619e-08
8.59179e-06
2.1761e-08
8.59529e-06
2.03465e-08
8.59865e-06
1.89248e-08
1.75217e-08
8.60184e-06
1.04003e-05
3.90659e-09
1.04032e-05
1.09348e-08
1.04075e-05
1.63674e-08
1.04125e-05
2.0095e-08
1.04179e-05
2.24187e-08
1.04235e-05
2.37153e-08
1.04292e-05
2.42461e-08
1.04347e-05
2.41981e-08
1.04401e-05
2.37362e-08
1.04453e-05
2.29929e-08
1.04503e-05
2.20617e-08
1.04552e-05
2.10048e-08
1.04599e-05
1.98673e-08
1.04644e-05
1.86799e-08
1.04686e-05
1.74647e-08
1.04728e-05
1.62369e-08
1.04767e-05
1.50062e-08
1.37997e-08
1.04804e-05
1.26779e-05
2.7975e-09
1.2681e-05
7.86726e-09
1.26855e-05
1.18441e-08
1.26909e-05
1.46451e-08
1.26969e-05
1.64311e-08
1.27032e-05
1.74412e-08
1.27096e-05
1.78655e-08
1.27159e-05
1.78433e-08
1.27222e-05
1.74919e-08
1.27283e-05
1.6909e-08
1.27341e-05
1.61666e-08
1.27398e-05
1.53163e-08
1.27453e-05
1.43941e-08
1.27506e-05
1.34278e-08
1.27556e-05
1.24366e-08
1.27604e-05
1.14368e-08
1.2765e-05
1.04373e-08
9.46524e-09
1.27693e-05
1.54543e-05
1.64169e-09
1.54576e-05
4.64393e-09
1.54624e-05
7.01534e-09
1.54683e-05
8.70556e-09
1.5475e-05
9.78905e-09
1.5482e-05
1.03908e-08
1.54893e-05
1.06204e-08
1.54965e-05
1.05618e-08
1.55037e-05
1.02852e-08
1.55108e-05
9.85033e-09
1.55177e-05
9.3035e-09
1.55243e-05
8.67913e-09
1.55307e-05
8.00286e-09
1.55368e-05
7.29448e-09
1.55427e-05
6.56932e-09
1.55483e-05
5.84003e-09
1.55536e-05
5.11444e-09
4.41559e-09
1.55587e-05
1.88389e-05
3.99148e-10
1.88424e-05
1.13998e-09
1.88477e-05
1.70713e-09
1.88543e-05
2.08514e-09
1.88618e-05
2.29446e-09
1.88698e-05
2.36269e-09
1.88781e-05
2.31175e-09
1.88865e-05
2.16134e-09
1.88949e-05
1.9315e-09
1.89031e-05
1.64044e-09
1.89111e-05
1.30336e-09
1.89188e-05
9.32788e-10
1.89263e-05
5.39457e-10
1.89335e-05
1.32542e-10
1.89403e-05
-2.80082e-10
1.89468e-05
-6.91238e-10
1.8953e-05
-1.09666e-09
-1.47882e-09
1.89589e-05
2.29648e-05
-1.03149e-09
2.29688e-05
-2.93364e-09
2.2975e-05
-4.50044e-09
2.29828e-05
-5.69282e-09
2.29916e-05
-6.53105e-09
2.30011e-05
-7.1012e-09
2.30109e-05
-7.49106e-09
2.30208e-05
-7.75479e-09
2.30307e-05
-7.9297e-09
2.30404e-05
-8.04647e-09
2.30498e-05
-8.12957e-09
2.30589e-05
-8.19294e-09
2.30677e-05
-8.24514e-09
2.30761e-05
-8.28998e-09
2.30842e-05
-8.33005e-09
2.30918e-05
-8.36494e-09
2.30991e-05
-8.39565e-09
-8.41096e-09
2.31061e-05
1.68118e-05
-2.1547e-09
1.6815e-05
-6.1062e-09
1.68198e-05
-9.33347e-09
1.68258e-05
-1.16947e-08
1.68325e-05
-1.32483e-08
1.68397e-05
-1.42228e-08
1.6847e-05
-1.4805e-08
1.68543e-05
-1.50997e-08
1.68616e-05
-1.51848e-08
1.68687e-05
-1.51336e-08
1.68755e-05
-1.49977e-08
1.68821e-05
-1.48112e-08
1.68885e-05
-1.45937e-08
1.68946e-05
-1.43602e-08
1.69003e-05
-1.41182e-08
1.69059e-05
-1.38735e-08
1.69111e-05
-1.36282e-08
-1.33766e-08
1.6916e-05
1.46356e-05
-3.23336e-09
1.46387e-05
-9.19426e-09
1.46434e-05
-1.40512e-08
1.46492e-05
-1.74428e-08
1.46555e-05
-1.95408e-08
1.46621e-05
-2.07949e-08
1.46687e-05
-2.14757e-08
1.46753e-05
-2.17187e-08
1.46818e-05
-2.16557e-08
1.46881e-05
-2.14025e-08
1.46941e-05
-2.10354e-08
1.46999e-05
-2.05985e-08
1.47054e-05
-2.01227e-08
1.47107e-05
-1.96284e-08
1.47157e-05
-1.91295e-08
1.47205e-05
-1.86329e-08
1.4725e-05
-1.81439e-08
-1.76577e-08
1.47293e-05
1.27411e-05
-4.24316e-09
1.27443e-05
-1.23224e-08
1.27491e-05
-1.88851e-08
1.27547e-05
-2.30933e-08
1.27607e-05
-2.55265e-08
1.27669e-05
-2.69593e-08
1.27731e-05
-2.76545e-08
1.27791e-05
-2.77615e-08
1.27849e-05
-2.74875e-08
1.27905e-05
-2.69977e-08
1.27959e-05
-2.6382e-08
1.2801e-05
-2.56917e-08
1.28058e-05
-2.49641e-08
1.28104e-05
-2.42244e-08
1.28148e-05
-2.34888e-08
1.28189e-05
-2.27645e-08
1.28228e-05
-2.20572e-08
-2.13632e-08
1.28265e-05
1.10918e-05
-5.08565e-09
1.1095e-05
-1.55449e-08
1.11001e-05
-2.40147e-08
1.11057e-05
-2.87222e-08
1.11115e-05
-3.12664e-08
1.11173e-05
-3.27777e-08
1.1123e-05
-3.33876e-08
1.11285e-05
-3.32784e-08
1.11338e-05
-3.27523e-08
1.11388e-05
-3.20069e-08
1.11436e-05
-3.11337e-08
1.11481e-05
-3.01897e-08
1.11523e-05
-2.92175e-08
1.11563e-05
-2.82464e-08
1.11601e-05
-2.72907e-08
1.11637e-05
-2.63594e-08
1.11671e-05
-2.54555e-08
-2.45775e-08
1.11703e-05
9.65581e-06
-5.68559e-09
9.65924e-06
-1.89747e-08
9.66459e-06
-2.93641e-08
9.67009e-06
-3.4223e-08
9.67565e-06
-3.68275e-08
9.68121e-06
-3.83398e-08
9.68655e-06
-3.87233e-08
9.69157e-06
-3.83093e-08
9.69632e-06
-3.75004e-08
9.7008e-06
-3.64907e-08
9.70503e-06
-3.5359e-08
9.709e-06
-3.4165e-08
9.71274e-06
-3.29563e-08
9.71625e-06
-3.1762e-08
9.71956e-06
-3.05975e-08
9.72267e-06
-2.94697e-08
9.72559e-06
-2.83807e-08
-2.73268e-08
9.72834e-06
8.4053e-06
-5.63242e-09
8.40964e-06
-2.33134e-08
8.41487e-06
-3.46039e-08
8.4199e-06
-3.92529e-08
8.42527e-06
-4.21947e-08
8.43068e-06
-4.37491e-08
8.43576e-06
-4.38103e-08
8.44047e-06
-4.30171e-08
8.44484e-06
-4.18715e-08
8.4489e-06
-4.05495e-08
8.45266e-06
-3.91212e-08
8.45614e-06
-3.76489e-08
8.45937e-06
-3.6182e-08
8.46235e-06
-3.47481e-08
8.46512e-06
-3.33624e-08
8.46768e-06
-3.20312e-08
8.47005e-06
-3.07564e-08
-2.9534e-08
8.47226e-06
7.3145e-06
-2.84979e-09
7.32119e-06
-3.00042e-08
7.32675e-06
-4.01594e-08
7.33169e-06
-4.42028e-08
7.33709e-06
-4.7593e-08
7.34241e-06
-4.90708e-08
7.34729e-06
-4.8689e-08
7.3517e-06
-4.74311e-08
7.35568e-06
-4.58508e-08
7.35924e-06
-4.41064e-08
7.36239e-06
-4.22789e-08
7.36519e-06
-4.04414e-08
7.36765e-06
-3.86457e-08
7.36982e-06
-3.69161e-08
7.37172e-06
-3.52677e-08
7.37339e-06
-3.37037e-08
7.37486e-06
-3.22241e-08
-3.08194e-08
7.37614e-06
6.36243e-06
4.78227e-09
6.3719e-06
-3.94683e-08
6.37932e-06
-4.7586e-08
6.38596e-06
-5.08414e-08
6.39224e-06
-5.38756e-08
6.39755e-06
-5.43848e-08
6.40185e-06
-5.29843e-08
6.40533e-06
-5.09127e-08
6.40813e-06
-4.86522e-08
6.41032e-06
-4.62922e-08
6.41195e-06
-4.39127e-08
6.4131e-06
-4.15897e-08
6.41382e-06
-3.93738e-08
6.41419e-06
-3.72835e-08
6.41425e-06
-3.53314e-08
6.41406e-06
-3.35154e-08
6.41367e-06
-3.18357e-08
-3.02717e-08
6.41313e-06
5.54129e-06
8.95313e-09
5.55032e-06
-4.8499e-08
5.55834e-06
-5.56008e-08
5.56604e-06
-5.85494e-08
5.5725e-06
-6.0338e-08
5.57683e-06
-5.87116e-08
5.57907e-06
-5.52268e-08
5.57963e-06
-5.14733e-08
5.57888e-06
-4.79003e-08
5.57709e-06
-4.45083e-08
5.5745e-06
-4.13206e-08
5.57129e-06
-3.83776e-08
5.5676e-06
-3.56874e-08
5.56356e-06
-3.32441e-08
5.55927e-06
-3.10391e-08
5.55481e-06
-2.90616e-08
5.55029e-06
-2.7312e-08
-2.57366e-08
5.54575e-06
4.86019e-06
-2.36301e-08
4.86538e-06
-5.36914e-08
4.86523e-06
-5.54535e-08
4.86217e-06
-5.54884e-08
4.857e-06
-5.51675e-08
4.8495e-06
-5.12106e-08
4.8398e-06
-4.55356e-08
4.82841e-06
-4.0082e-08
4.81583e-06
-3.53245e-08
4.80256e-06
-3.12317e-08
4.78896e-06
-2.77241e-08
4.77532e-06
-2.47415e-08
4.76184e-06
-2.22043e-08
4.74864e-06
-2.00471e-08
4.73581e-06
-1.82137e-08
4.72343e-06
-1.66805e-08
4.7116e-06
-1.54842e-08
-1.51354e-08
4.701e-06
4.17905e-06
4.12535e-06
4.0699e-06
4.01441e-06
3.95924e-06
3.90803e-06
3.8625e-06
3.82242e-06
3.78709e-06
3.75586e-06
3.72814e-06
3.70339e-06
3.68119e-06
3.66114e-06
3.64293e-06
3.62625e-06
3.61076e-06
3.59563e-06
1.43481e-08
-1.43758e-08
2.77748e-08
-1.34686e-08
3.4823e-08
-7.07972e-09
3.49284e-08
-1.36018e-10
2.89013e-08
6.00262e-09
1.80617e-08
1.08137e-08
3.70773e-09
1.43332e-08
-1.31602e-08
1.68456e-08
-3.18364e-08
1.86588e-08
-5.1856e-08
2.00009e-08
-7.29232e-08
2.10521e-08
-9.48738e-08
2.19341e-08
-1.17604e-07
2.27166e-08
-1.41056e-07
2.34365e-08
-1.65177e-07
2.41084e-08
-1.89926e-07
2.4736e-08
-2.15255e-07
2.53169e-08
-2.41117e-07
2.58493e-08
-2.67463e-07
2.63338e-08
-2.94254e-07
2.67792e-08
-3.21473e-07
2.72078e-08
-3.49135e-07
2.76487e-08
-3.77298e-07
2.81504e-08
-4.06149e-07
2.88348e-08
-4.35961e-07
2.97956e-08
-4.67234e-07
3.12522e-08
-5.01243e-07
3.39898e-08
-5.40872e-07
3.95995e-08
-5.76252e-07
3.53536e-08
-5.96283e-07
2.00034e-08
-6.25396e-07
2.90961e-08
-6.65313e-07
3.98964e-08
-7.09059e-07
4.37306e-08
-7.55121e-07
4.60398e-08
-8.03736e-07
4.85983e-08
-8.45973e-07
4.22066e-08
-8.79284e-07
3.32926e-08
-9.15784e-07
3.64669e-08
-9.55726e-07
3.99258e-08
-9.97617e-07
4.18582e-08
-1.03991e-06
4.22775e-08
-1.08259e-06
4.26497e-08
-1.12546e-06
4.28613e-08
-1.16844e-06
4.29561e-08
-1.21141e-06
4.29613e-08
-1.25435e-06
4.29096e-08
-1.29717e-06
4.28182e-08
-1.33989e-06
4.26971e-08
-1.38245e-06
4.25552e-08
-1.42487e-06
4.23945e-08
-1.4671e-06
4.22202e-08
-1.50917e-06
4.20304e-08
-1.55101e-06
4.18281e-08
-1.59265e-06
4.16102e-08
-1.63404e-06
4.13787e-08
-1.67521e-06
4.11281e-08
-1.71608e-06
4.08603e-08
-1.75669e-06
4.05701e-08
-1.79696e-06
4.0259e-08
-1.83692e-06
3.99207e-08
-1.87648e-06
3.95572e-08
-1.91568e-06
3.91631e-08
-1.95442e-06
3.87402e-08
-1.99273e-06
3.8282e-08
-2.03052e-06
3.77911e-08
-2.06781e-06
3.72611e-08
-2.1045e-06
3.66953e-08
-2.14061e-06
3.60874e-08
-2.17605e-06
3.54413e-08
-2.21082e-06
3.47506e-08
-2.24484e-06
3.40197e-08
-2.2781e-06
3.32419e-08
-2.31052e-06
3.24217e-08
-2.34209e-06
3.15527e-08
-2.37273e-06
3.06398e-08
-2.40243e-06
2.96765e-08
-2.4311e-06
2.86685e-08
-2.45873e-06
2.76108e-08
-2.48524e-06
2.65084e-08
-2.51061e-06
2.53543e-08
-2.53476e-06
2.41538e-08
-2.55767e-06
2.29006e-08
-2.57926e-06
2.15996e-08
-2.59951e-06
2.02421e-08
-2.61833e-06
1.88332e-08
-2.6357e-06
1.73649e-08
-2.65152e-06
1.58413e-08
-2.66575e-06
1.42526e-08
-2.67831e-06
1.25977e-08
-2.68912e-06
1.08665e-08
-2.69812e-06
9.04121e-09
-2.7052e-06
7.10503e-09
-2.71022e-06
5.0471e-09
-2.71308e-06
2.87263e-09
-2.71371e-06
6.45004e-10
-2.71227e-06
-1.42876e-09
-2.70895e-06
-3.31165e-09
-2.70379e-06
-5.14772e-09
-2.6968e-06
-6.98007e-09
-2.68797e-06
-8.82775e-09
-2.67728e-06
-1.06935e-08
-2.66471e-06
-1.25779e-08
-2.65023e-06
-1.44772e-08
-2.63385e-06
-1.639e-08
-2.61555e-06
-1.83105e-08
-2.59531e-06
-2.02373e-08
-2.57314e-06
-2.21643e-08
-2.54904e-06
-2.40901e-08
-2.52301e-06
-2.60091e-08
-2.49507e-06
-2.7919e-08
-2.46522e-06
-2.98143e-08
-2.4335e-06
-3.16912e-08
-2.39991e-06
-3.35444e-08
-2.3645e-06
-3.53687e-08
-2.32729e-06
-3.71595e-08
-2.28833e-06
-3.89106e-08
-2.24765e-06
-4.0619e-08
-2.20532e-06
-4.22778e-08
-2.16139e-06
-4.38834e-08
-2.11591e-06
-4.54261e-08
-2.06894e-06
-4.69012e-08
-2.02056e-06
-4.83032e-08
-1.97084e-06
-4.96411e-08
-1.91984e-06
-5.09085e-08
-1.86767e-06
-5.20986e-08
-1.81441e-06
-5.31925e-08
-1.76015e-06
-5.42099e-08
-1.70497e-06
-5.51444e-08
-1.64896e-06
-5.59953e-08
-1.59221e-06
-5.67438e-08
-1.53484e-06
-5.73988e-08
-1.47693e-06
-5.79461e-08
-1.41861e-06
-5.83941e-08
-1.35996e-06
-5.87307e-08
-1.30111e-06
-5.89647e-08
-1.24214e-06
-5.90878e-08
-1.18318e-06
-5.91066e-08
-1.12432e-06
-5.90136e-08
-1.06567e-06
-5.88123e-08
-1.00733e-06
-5.85043e-08
-9.49382e-07
-5.80965e-08
-8.91925e-07
-5.75971e-08
-8.35042e-07
-5.70087e-08
-7.78815e-07
-5.63402e-08
-7.23319e-07
-5.55933e-08
-6.68624e-07
-5.47798e-08
-6.1479e-07
-5.39005e-08
-5.61875e-07
-5.29686e-08
-5.09921e-07
-5.1985e-08
-4.58972e-07
-5.09644e-08
-4.09058e-07
-4.99059e-08
-3.60205e-07
-4.88266e-08
-3.12427e-07
-4.77263e-08
-2.65737e-07
-4.6621e-08
-2.20131e-07
-4.55099e-08
-1.75608e-07
-4.44093e-08
-1.32152e-07
-4.33172e-08
-8.97396e-08
-4.2257e-08
-4.83597e-08
-4.11999e-08
-8.04786e-09
-4.01181e-08
3.10352e-08
-3.88667e-08
6.8804e-08
-3.75442e-08
1.05351e-07
-3.63069e-08
1.4076e-07
-3.51636e-08
1.7518e-07
-3.41598e-08
2.08766e-07
-3.33207e-08
2.41684e-07
-3.26409e-08
2.74124e-07
-3.21575e-08
3.06287e-07
-3.18716e-08
3.38367e-07
-3.17836e-08
3.70538e-07
-3.18695e-08
4.02958e-07
-3.21132e-08
4.35744e-07
-3.24801e-08
4.68981e-07
-3.29261e-08
5.02627e-07
-3.33406e-08
5.36426e-07
-3.34953e-08
5.69571e-07
-3.28544e-08
5.99617e-07
-2.97715e-08
6.21754e-07
-2.18945e-08
1.73631e-08
6.0459e-07
7.79309e-09
-2.21941e-08
7.76659e-09
-1.34721e-08
3.0306e-09
-2.36222e-09
-4.89748e-09
7.77636e-09
-1.55799e-08
1.66724e-08
-2.89581e-08
2.41794e-08
-4.49168e-08
3.02812e-08
-6.31994e-08
3.51171e-08
-8.34717e-08
3.89214e-08
-1.0543e-07
4.1949e-08
-1.28815e-07
4.44282e-08
-1.5343e-07
4.65391e-08
-1.79133e-07
4.84106e-08
-2.05834e-07
5.01289e-08
-2.33483e-07
5.17487e-08
-2.62059e-07
5.33039e-08
-2.91568e-07
5.48173e-08
-3.22033e-07
5.63061e-08
-3.53495e-07
5.77881e-08
-3.86013e-07
5.92893e-08
-4.19665e-07
6.08515e-08
-4.54554e-07
6.25295e-08
-4.90804e-07
6.4391e-08
-5.28505e-07
6.65246e-08
-5.67725e-07
6.90039e-08
-6.0829e-07
7.18025e-08
-6.48997e-07
7.46821e-08
-6.86282e-07
7.68663e-08
-7.26952e-07
7.60081e-08
-7.8019e-07
7.3225e-08
-8.26763e-07
7.56565e-08
-8.68206e-07
8.13242e-08
-9.09775e-07
8.52871e-08
-9.51249e-07
8.74989e-08
-9.90524e-07
8.78602e-08
-1.03393e-06
8.5592e-08
-1.08325e-06
8.26053e-08
-1.12891e-06
8.21089e-08
-1.17155e-06
8.25566e-08
-1.2127e-06
8.29922e-08
-1.25348e-06
8.30413e-08
-1.29377e-06
8.29296e-08
-1.33365e-06
8.27327e-08
-1.37318e-06
8.24692e-08
-1.41238e-06
8.21506e-08
-1.45127e-06
8.17898e-08
-1.48985e-06
8.13962e-08
-1.52814e-06
8.09759e-08
-1.56613e-06
8.05328e-08
-1.60382e-06
8.00681e-08
-1.64119e-06
7.95821e-08
-1.67824e-06
7.90734e-08
-1.71497e-06
7.85406e-08
-1.75135e-06
7.79805e-08
-1.78738e-06
7.73902e-08
-1.82303e-06
7.67657e-08
-1.85829e-06
7.6104e-08
-1.89314e-06
7.54008e-08
-1.92754e-06
7.46526e-08
-1.9615e-06
7.38549e-08
-1.99496e-06
7.30054e-08
-2.02791e-06
7.20995e-08
-2.06031e-06
7.11346e-08
-2.09215e-06
7.01066e-08
-2.12338e-06
6.90133e-08
-2.15398e-06
6.78508e-08
-2.18391e-06
6.66178e-08
-2.21314e-06
6.53108e-08
-2.24163e-06
6.39291e-08
-2.26936e-06
6.24694e-08
-2.29627e-06
6.09313e-08
-2.32235e-06
5.93118e-08
-2.34754e-06
5.76107e-08
-2.37182e-06
5.58251e-08
-2.39514e-06
5.39554e-08
-2.41747e-06
5.19993e-08
-2.43877e-06
4.99584e-08
-2.459e-06
4.78304e-08
-2.47811e-06
4.56163e-08
-2.49607e-06
4.33134e-08
-2.51284e-06
4.09229e-08
-2.52839e-06
3.84423e-08
-2.54266e-06
3.58723e-08
-2.55563e-06
3.321e-08
-2.56725e-06
3.0457e-08
-2.57749e-06
2.76106e-08
-2.58631e-06
2.46722e-08
-2.59368e-06
2.16384e-08
-2.59957e-06
1.85094e-08
-2.60395e-06
1.52801e-08
-2.60683e-06
1.19504e-08
-2.60824e-06
8.53182e-09
-2.60824e-06
5.05264e-09
-2.60691e-06
1.55173e-09
-2.60432e-06
-1.93656e-09
-2.60031e-06
-5.42591e-09
-2.59467e-06
-8.95378e-09
-2.58729e-06
-1.25238e-08
-2.57813e-06
-1.61354e-08
-2.56717e-06
-1.97887e-08
-2.55438e-06
-2.34824e-08
-2.53975e-06
-2.72122e-08
-2.52327e-06
-3.09727e-08
-2.5049e-06
-3.47577e-08
-2.48466e-06
-3.85595e-08
-2.46253e-06
-4.23714e-08
-2.4385e-06
-4.61851e-08
-2.41259e-06
-4.99941e-08
-2.3848e-06
-5.37896e-08
-2.35514e-06
-5.75645e-08
-2.32362e-06
-6.13091e-08
-2.29028e-06
-6.5015e-08
-2.25512e-06
-6.86716e-08
-2.21819e-06
-7.22694e-08
-2.17953e-06
-7.57973e-08
-2.13916e-06
-7.92454e-08
-2.09714e-06
-8.26031e-08
-2.05353e-06
-8.58608e-08
-2.00837e-06
-8.90066e-08
-1.96174e-06
-9.20275e-08
-1.91369e-06
-9.49118e-08
-1.86429e-06
-9.76521e-08
-1.81363e-06
-1.0025e-07
-1.76178e-06
-1.02706e-07
-1.70883e-06
-1.05001e-07
-1.65487e-06
-1.07112e-07
-1.6e-06
-1.09053e-07
-1.54429e-06
-1.10829e-07
-1.48785e-06
-1.12426e-07
-1.43077e-06
-1.13827e-07
-1.37315e-06
-1.15032e-07
-1.31509e-06
-1.16028e-07
-1.2567e-06
-1.16817e-07
-1.19809e-06
-1.17391e-07
-1.13936e-06
-1.17753e-07
-1.08061e-06
-1.17899e-07
-1.02196e-06
-1.17833e-07
-9.63506e-07
-1.17553e-07
-9.05341e-07
-1.17062e-07
-8.47561e-07
-1.16366e-07
-7.90259e-07
-1.15477e-07
-7.3352e-07
-1.14406e-07
-6.77428e-07
-1.13164e-07
-6.22061e-07
-1.11761e-07
-5.67491e-07
-1.10213e-07
-5.1378e-07
-1.0853e-07
-4.60987e-07
-1.06727e-07
-4.0916e-07
-1.04817e-07
-3.58342e-07
-1.02819e-07
-3.08566e-07
-1.00743e-07
-2.59859e-07
-9.86088e-08
-2.12239e-07
-9.64281e-08
-1.65718e-07
-9.42234e-08
-1.20296e-07
-9.20024e-08
-7.59703e-08
-8.97895e-08
-3.27261e-08
-8.7591e-08
9.43828e-09
-8.5415e-08
5.05193e-08
-8.32553e-08
9.05408e-08
-8.11365e-08
1.29579e-07
-7.90558e-08
1.67803e-07
-7.69904e-08
2.05345e-07
-7.49694e-08
2.42242e-07
-7.30881e-08
2.78583e-07
-7.13735e-08
3.14461e-07
-6.99057e-08
3.50005e-07
-6.87193e-08
3.85366e-07
-6.78557e-08
4.20713e-07
-6.7344e-08
4.56222e-07
-6.72223e-08
4.92085e-07
-6.74734e-08
5.28482e-07
-6.80956e-08
5.6559e-07
-6.90384e-08
6.03538e-07
-7.02485e-08
6.42396e-07
-7.15947e-08
6.82099e-07
-7.28594e-08
7.22377e-07
-7.35835e-08
7.6241e-07
-7.27087e-08
8.01021e-07
-6.82071e-08
8.34076e-07
-5.47946e-08
-1.24186e-08
8.63988e-07
-3.35886e-09
-1.8855e-08
-1.27632e-08
-4.0881e-09
-2.44149e-08
9.27779e-09
-3.75485e-08
2.09002e-08
-5.20135e-08
3.11296e-08
-6.79045e-08
4.00624e-08
-8.53648e-08
4.77345e-08
-1.04478e-07
5.42229e-08
-1.25233e-07
5.96699e-08
-1.47552e-07
6.42603e-08
-1.71317e-07
6.81874e-08
-1.96412e-07
7.16274e-08
-2.22734e-07
7.47257e-08
-2.50206e-07
7.75945e-08
-2.7878e-07
8.03168e-08
-3.08435e-07
8.29523e-08
-3.39168e-07
8.55441e-08
-3.70993e-07
8.81249e-08
-4.03932e-07
9.07219e-08
-4.38009e-07
9.33604e-08
-4.7323e-07
9.60661e-08
-5.09569e-07
9.88617e-08
-5.46947e-07
1.01763e-07
-5.85194e-07
1.04764e-07
-6.24009e-07
1.0781e-07
-6.62972e-07
1.10755e-07
-7.01648e-07
1.13348e-07
-7.40027e-07
1.15234e-07
-7.80097e-07
1.16069e-07
-8.23238e-07
1.16355e-07
-8.65335e-07
1.17743e-07
-9.04311e-07
1.2029e-07
-9.41441e-07
1.22408e-07
-9.7744e-07
1.23487e-07
-1.01305e-06
1.23464e-07
-1.04999e-06
1.2252e-07
-1.08857e-06
1.21172e-07
-1.12672e-06
1.20249e-07
-1.16392e-06
1.19747e-07
-1.2003e-06
1.19362e-07
-1.23619e-06
1.18923e-07
-1.27172e-06
1.18446e-07
-1.30693e-06
1.17936e-07
-1.34186e-06
1.17396e-07
-1.37655e-06
1.16829e-07
-1.411e-06
1.16236e-07
-1.44523e-06
1.1562e-07
-1.47924e-06
1.14981e-07
-1.51303e-06
1.14317e-07
-1.5466e-06
1.13628e-07
-1.57993e-06
1.1291e-07
-1.61303e-06
1.1216e-07
-1.64587e-06
1.11374e-07
-1.67844e-06
1.10547e-07
-1.71073e-06
1.09673e-07
-1.74273e-06
1.08748e-07
-1.7744e-06
1.07767e-07
-1.80573e-06
1.06723e-07
-1.8367e-06
1.05612e-07
-1.86728e-06
1.04428e-07
-1.89745e-06
1.03167e-07
-1.92719e-06
1.01823e-07
-1.95645e-06
1.00392e-07
-1.98522e-06
9.88697e-08
-2.01347e-06
9.72518e-08
-2.04116e-06
9.55342e-08
-2.06826e-06
9.37137e-08
-2.09475e-06
9.1787e-08
-2.12057e-06
8.97513e-08
-2.14571e-06
8.76038e-08
-2.17013e-06
8.53421e-08
-2.19378e-06
8.29638e-08
-2.21664e-06
8.04669e-08
-2.23867e-06
7.78495e-08
-2.25982e-06
7.51102e-08
-2.28008e-06
7.22476e-08
-2.29938e-06
6.92615e-08
-2.31771e-06
6.61508e-08
-2.33501e-06
6.29149e-08
-2.35125e-06
5.95527e-08
-2.36639e-06
5.60642e-08
-2.3804e-06
5.24485e-08
-2.39323e-06
4.87058e-08
-2.40485e-06
4.48354e-08
-2.41523e-06
4.08385e-08
-2.42434e-06
3.67155e-08
-2.43213e-06
3.24682e-08
-2.43858e-06
2.80981e-08
-2.44366e-06
2.36074e-08
-2.44736e-06
1.89992e-08
-2.44967e-06
1.42788e-08
-2.45059e-06
9.46065e-09
-2.4501e-06
4.56723e-09
-2.44817e-06
-3.81667e-10
-2.44472e-06
-5.38149e-09
-2.43969e-06
-1.04558e-08
-2.43302e-06
-1.56211e-08
-2.42467e-06
-2.08709e-08
-2.41461e-06
-2.61971e-08
-2.40281e-06
-3.15928e-08
-2.38925e-06
-3.70511e-08
-2.3739e-06
-4.25637e-08
-2.35676e-06
-4.81225e-08
-2.33781e-06
-5.37167e-08
-2.31703e-06
-5.93366e-08
-2.29444e-06
-6.49703e-08
-2.27001e-06
-7.06075e-08
-2.24376e-06
-7.62359e-08
-2.2157e-06
-8.18444e-08
-2.18583e-06
-8.74199e-08
-2.15418e-06
-9.29496e-08
-2.12076e-06
-9.84192e-08
-2.0856e-06
-1.03814e-07
-2.04873e-06
-1.09119e-07
-2.01019e-06
-1.14318e-07
-1.97001e-06
-1.19396e-07
-1.92826e-06
-1.24337e-07
-1.88497e-06
-1.29125e-07
-1.84021e-06
-1.33743e-07
-1.79404e-06
-1.38174e-07
-1.74652e-06
-1.424e-07
-1.69773e-06
-1.46411e-07
-1.64774e-06
-1.502e-07
-1.59664e-06
-1.53771e-07
-1.54451e-06
-1.571e-07
-1.49144e-06
-1.6016e-07
-1.43751e-06
-1.62953e-07
-1.38284e-06
-1.65494e-07
-1.32749e-06
-1.67765e-07
-1.27157e-06
-1.69748e-07
-1.21517e-06
-1.71433e-07
-1.1584e-06
-1.72813e-07
-1.10136e-06
-1.73881e-07
-1.04415e-06
-1.74633e-07
-9.86873e-07
-1.75067e-07
-9.29633e-07
-1.75184e-07
-8.72529e-07
-1.74988e-07
-8.15656e-07
-1.7448e-07
-7.59107e-07
-1.73666e-07
-7.0297e-07
-1.72555e-07
-6.4733e-07
-1.71163e-07
-5.92271e-07
-1.69506e-07
-5.37869e-07
-1.67601e-07
-4.84196e-07
-1.65465e-07
-4.31315e-07
-1.63118e-07
-3.79286e-07
-1.6058e-07
-3.28157e-07
-1.57872e-07
-2.77972e-07
-1.55015e-07
-2.28764e-07
-1.52033e-07
-1.80561e-07
-1.48949e-07
-1.33382e-07
-1.45785e-07
-8.72388e-08
-1.42566e-07
-4.21318e-08
-1.39319e-07
1.94048e-09
-1.36062e-07
4.49865e-08
-1.32816e-07
8.70213e-08
-1.29606e-07
1.2809e-07
-1.26458e-07
1.68249e-07
-1.23388e-07
2.07561e-07
-1.20417e-07
2.46099e-07
-1.17564e-07
2.83985e-07
-1.14842e-07
3.21345e-07
-1.12295e-07
3.58289e-07
-1.09993e-07
3.94923e-07
-1.07971e-07
4.31358e-07
-1.06298e-07
4.67718e-07
-1.0504e-07
5.04158e-07
-1.04251e-07
5.40833e-07
-1.03978e-07
5.77916e-07
-1.0426e-07
6.15583e-07
-1.05097e-07
6.54015e-07
-1.0648e-07
6.93374e-07
-1.08353e-07
7.33789e-07
-1.10616e-07
7.7532e-07
-1.1308e-07
8.17915e-07
-1.15407e-07
8.61337e-07
-1.1696e-07
9.05085e-07
-1.16409e-07
9.48397e-07
-1.11476e-07
9.90232e-07
-9.6591e-08
-5.79933e-08
1.03583e-06
-1.19563e-08
-6.91535e-09
-2.73768e-08
1.13168e-08
-4.37198e-08
2.56119e-08
-6.06348e-08
3.78077e-08
-7.8143e-08
4.86318e-08
-9.63932e-08
5.83064e-08
-1.15571e-07
6.69066e-08
-1.35843e-07
7.44888e-08
-1.57318e-07
8.11395e-08
-1.80044e-07
8.69806e-08
-2.04015e-07
9.2154e-08
-2.29197e-07
9.68034e-08
-2.55537e-07
1.01061e-07
-2.82984e-07
1.05036e-07
-3.11492e-07
1.08819e-07
-3.41019e-07
1.12475e-07
-3.71532e-07
1.16052e-07
-4.02995e-07
1.19583e-07
-4.35366e-07
1.23088e-07
-4.68585e-07
1.26575e-07
-5.02568e-07
1.30044e-07
-5.37189e-07
1.33478e-07
-5.72278e-07
1.36846e-07
-6.07615e-07
1.40095e-07
-6.42956e-07
1.43144e-07
-6.7809e-07
1.45882e-07
-7.12932e-07
1.48183e-07
-7.47656e-07
1.49949e-07
-7.82769e-07
1.51175e-07
-8.18502e-07
1.52079e-07
-8.53865e-07
1.53099e-07
-8.87873e-07
1.54291e-07
-9.20708e-07
1.55236e-07
-9.52877e-07
1.55649e-07
-9.84898e-07
1.55477e-07
-1.01723e-06
1.5484e-07
-1.05001e-06
1.53949e-07
-1.08284e-06
1.53065e-07
-1.11539e-06
1.52296e-07
-1.14763e-06
1.51593e-07
-1.17962e-06
1.50902e-07
-1.21139e-06
1.5021e-07
-1.24297e-06
1.4951e-07
-1.27438e-06
1.48798e-07
-1.30562e-06
1.4807e-07
-1.33672e-06
1.47325e-07
-1.36766e-06
1.46559e-07
-1.39845e-06
1.45768e-07
-1.42909e-06
1.4495e-07
-1.45956e-06
1.44098e-07
-1.48987e-06
1.43209e-07
-1.51999e-06
1.42276e-07
-1.54991e-06
1.41293e-07
-1.57963e-06
1.40254e-07
-1.60911e-06
1.39152e-07
-1.63835e-06
1.37981e-07
-1.66732e-06
1.36732e-07
-1.69601e-06
1.354e-07
-1.72438e-06
1.33978e-07
-1.75242e-06
1.3246e-07
-1.7801e-06
1.30838e-07
-1.80739e-06
1.29108e-07
-1.83427e-06
1.27263e-07
-1.86071e-06
1.25298e-07
-1.88667e-06
1.23207e-07
-1.91213e-06
1.20986e-07
-1.93705e-06
1.1863e-07
-1.96141e-06
1.16136e-07
-1.98516e-06
1.13499e-07
-2.00827e-06
1.10717e-07
-2.03072e-06
1.07785e-07
-2.05246e-06
1.04702e-07
-2.07346e-06
1.01465e-07
-2.09368e-06
9.80703e-08
-2.11309e-06
9.45175e-08
-2.13165e-06
9.08047e-08
-2.14932e-06
8.69309e-08
-2.16607e-06
8.28951e-08
-2.18185e-06
7.86966e-08
-2.19663e-06
7.43346e-08
-2.21038e-06
6.98091e-08
-2.22305e-06
6.51199e-08
-2.23461e-06
6.02673e-08
-2.24502e-06
5.5252e-08
-2.25426e-06
5.00754e-08
-2.26228e-06
4.47395e-08
-2.26906e-06
3.9247e-08
-2.27456e-06
3.36014e-08
-2.27874e-06
2.78071e-08
-2.2816e-06
2.18684e-08
-2.2831e-06
1.5793e-08
-2.28323e-06
9.59148e-09
-2.28194e-06
3.27706e-09
-2.27918e-06
-3.14123e-09
-2.2749e-06
-9.66505e-09
-2.26905e-06
-1.63052e-08
-2.26161e-06
-2.30665e-08
-2.25254e-06
-2.9942e-08
-2.24182e-06
-3.6922e-08
-2.22942e-06
-4.3996e-08
-2.21532e-06
-5.11538e-08
-2.19951e-06
-5.83837e-08
-2.18196e-06
-6.56742e-08
-2.16267e-06
-7.30113e-08
-2.14163e-06
-8.03819e-08
-2.11883e-06
-8.77706e-08
-2.09428e-06
-9.51634e-08
-2.06796e-06
-1.02544e-07
-2.0399e-06
-1.09898e-07
-2.01011e-06
-1.17207e-07
-1.97859e-06
-1.24454e-07
-1.94538e-06
-1.31619e-07
-1.91049e-06
-1.38685e-07
-1.87396e-06
-1.4563e-07
-1.83583e-06
-1.52433e-07
-1.79614e-06