/*--------------------------------*- C++ -*----------------------------------*\
  =========                 |
  \\      /  F ield         | OpenFOAM: The Open Source CFD Toolbox
   \\    /   O peration     | Website:  https://openfoam.org
    \\  /    A nd           | Version:  8
     \\/     M anipulation  |
\*---------------------------------------------------------------------------*/
FoamFile
{
    version     2.0;
    format      ascii;
    class       volVectorField;
    location    "205";
    object      U;
}
// * * * * * * * * * * * * * * * * * * * * * * * * * * * * * * * * * * * * * //

dimensions      [0 1 -1 0 0 0 0];

internalField   nonuniform List<vector> 
12225
(
(9.85699 -0.886636 0)
(9.66629 -0.740716 0)
(9.45577 -0.429419 0)
(9.2245 -0.222143 0)
(9.00646 -0.106394 0)
(8.81433 -0.0458095 0)
(8.64741 -0.0151223 0)
(8.50521 0.000498833 0)
(8.3835 0.00843264 0)
(8.28071 0.0123191 0)
(8.19222 0.0140399 0)
(8.11598 0.015052 0)
(8.04911 0.0153903 0)
(7.9899 0.0156846 0)
(7.9366 0.0155642 0)
(7.88971 0.0164117 0)
(7.83503 0.0197408 0)
(7.82559 0.0117276 0)
(10.0545 0.227708 0)
(10.1213 0.326966 0)
(10.1196 0.261654 0)
(10.0856 0.186596 0)
(10.0434 0.134703 0)
(9.99669 0.101142 0)
(9.94397 0.0793094 0)
(9.8852 0.0645868 0)
(9.82383 0.0542814 0)
(9.76127 0.0466975 0)
(9.69979 0.0409364 0)
(9.63992 0.0363989 0)
(9.58258 0.032767 0)
(9.52816 0.0299126 0)
(9.47614 0.0275025 0)
(9.42862 0.0264055 0)
(9.38041 0.0232974 0)
(9.34591 0.0337631 0)
(10.0035 0.0581558 0)
(10.0305 0.055953 0)
(10.056 0.0337799 0)
(10.0703 0.0328946 0)
(10.077 0.0406463 0)
(10.0778 0.046548 0)
(10.0725 0.0493661 0)
(10.0613 0.0503164 0)
(10.0461 0.050221 0)
(10.0276 0.0495163 0)
(10.0071 0.0484856 0)
(9.98483 0.0473403 0)
(9.96165 0.0461808 0)
(9.93795 0.0451596 0)
(9.91392 0.0441443 0)
(9.89041 0.0439118 0)
(9.86698 0.043254 0)
(9.84515 0.0456819 0)
(9.99772 0.01095 0)
(10.0111 0.026624 0)
(10.035 0.0371291 0)
(10.0525 0.048076 0)
(10.0643 0.05545 0)
(10.0734 0.0581879 0)
(10.0794 0.058364 0)
(10.0823 0.0576295 0)
(10.0827 0.0565902 0)
(10.0812 0.0554072 0)
(10.078 0.0541533 0)
(10.0736 0.05295 0)
(10.0682 0.0517947 0)
(10.062 0.050808 0)
(10.0552 0.0498842 0)
(10.0482 0.0495012 0)
(10.0411 0.0490219 0)
(10.0341 0.0496347 0)
(9.99935 0.00710188 0)
(10.009 0.0317008 0)
(10.0275 0.043917 0)
(10.0418 0.0499223 0)
(10.0528 0.053617 0)
(10.0628 0.0552467 0)
(10.0715 0.0555333 0)
(10.0783 0.055252 0)
(10.0834 0.0547199 0)
(10.0872 0.0540315 0)
(10.09 0.053244 0)
(10.0918 0.052456 0)
(10.093 0.051687 0)
(10.0936 0.0510241 0)
(10.0936 0.0504268 0)
(10.0935 0.0501372 0)
(10.0934 0.0498479 0)
(10.0934 0.0498811 0)
(10.0003 0.00915146 0)
(10.0083 0.0312185 0)
(10.0227 0.0409565 0)
(10.0349 0.0454032 0)
(10.045 0.049051 0)
(10.0547 0.0513903 0)
(10.0637 0.0523778 0)
(10.0713 0.0526198 0)
(10.0778 0.0524981 0)
(10.0834 0.0521519 0)
(10.0882 0.0516599 0)
(10.0923 0.051113 0)
(10.0959 0.0505516 0)
(10.0991 0.0500382 0)
(10.1019 0.0495658 0)
(10.1046 0.0492416 0)
(10.1072 0.0489136 0)
(10.11 0.0485743 0)
(10.0004 0.00892637 0)
(10.0071 0.0271206 0)
(10.0191 0.03643 0)
(10.0301 0.0414078 0)
(10.0396 0.0454327 0)
(10.0486 0.048102 0)
(10.0572 0.0493774 0)
(10.0649 0.049856 0)
(10.0716 0.0499415 0)
(10.0777 0.0497814 0)
(10.0832 0.0494562 0)
(10.0882 0.049046 0)
(10.0928 0.0485986 0)
(10.0971 0.0481582 0)
(10.1011 0.0477291 0)
(10.1049 0.0473481 0)
(10.1087 0.0469247 0)
(10.1126 0.0463635 0)
(10.0004 0.00790394 0)
(10.006 0.0233988 0)
(10.0161 0.0327537 0)
(10.0263 0.0381223 0)
(10.0351 0.0421189 0)
(10.0436 0.0448064 0)
(10.0517 0.0462236 0)
(10.0591 0.0468661 0)
(10.0659 0.0471002 0)
(10.072 0.0470723 0)
(10.0778 0.0468634 0)
(10.0831 0.046546 0)
(10.0881 0.0461694 0)
(10.0928 0.0457662 0)
(10.0972 0.0453425 0)
(10.1016 0.0449007 0)
(10.1059 0.0443775 0)
(10.1103 0.0436771 0)
(10.0004 0.00695469 0)
(10.005 0.0204376 0)
(10.0137 0.0294715 0)
(10.0229 0.0348835 0)
(10.0312 0.0387376 0)
(10.0391 0.0414042 0)
(10.0468 0.0429426 0)
(10.054 0.0437252 0)
(10.0606 0.0440766 0)
(10.0667 0.0441484 0)
(10.0724 0.0440234 0)
(10.0778 0.0437692 0)
(10.0829 0.0434336 0)
(10.0878 0.043043 0)
(10.0925 0.0426019 0)
(10.097 0.0421 0)
(10.1015 0.0414887 0)
(10.1059 0.0406982 0)
(10.0004 0.00612796 0)
(10.0043 0.0178687 0)
(10.0116 0.0262933 0)
(10.0199 0.0316046 0)
(10.0276 0.0353339 0)
(10.0351 0.0379655 0)
(10.0424 0.0395842 0)
(10.0492 0.0404702 0)
(10.0557 0.0409087 0)
(10.0617 0.0410538 0)
(10.0673 0.0409891 0)
(10.0727 0.0407776 0)
(10.0778 0.0404639 0)
(10.0827 0.0400715 0)
(10.0874 0.0396042 0)
(10.092 0.0390492 0)
(10.0965 0.0383699 0)
(10.1009 0.037525 0)
(10.0003 0.00537035 0)
(10.0037 0.0155592 0)
(10.0099 0.0232553 0)
(10.0172 0.0283697 0)
(10.0245 0.0319579 0)
(10.0315 0.0345135 0)
(10.0383 0.0361577 0)
(10.0449 0.0371079 0)
(10.0511 0.0376071 0)
(10.057 0.0378043 0)
(10.0625 0.0377821 0)
(10.0678 0.0375989 0)
(10.0729 0.0372961 0)
(10.0777 0.0368958 0)
(10.0824 0.0364025 0)
(10.0869 0.0358062 0)
(10.0913 0.0350812 0)
(10.0956 0.0342096 0)
(10.0003 0.00470645 0)
(10.0032 0.0136194 0)
(10.0086 0.0206092 0)
(10.0152 0.0254585 0)
(10.0219 0.0288813 0)
(10.0285 0.0313317 0)
(10.035 0.0329569 0)
(10.0413 0.0339336 0)
(10.0473 0.0344661 0)
(10.053 0.0346937 0)
(10.0584 0.0346966 0)
(10.0636 0.0345292 0)
(10.0686 0.0342303 0)
(10.0734 0.0338212 0)
(10.078 0.0333083 0)
(10.0824 0.032686 0)
(10.0867 0.0319375 0)
(10.0909 0.0310623 0)
(10.0003 0.00409228 0)
(10.0028 0.0118513 0)
(10.0075 0.0181106 0)
(10.0134 0.0226186 0)
(10.0196 0.0258413 0)
(10.0259 0.0281608 0)
(10.032 0.0297344 0)
(10.038 0.03071 0)
(10.0438 0.031257 0)
(10.0494 0.0315009 0)
(10.0547 0.0315185 0)
(10.0597 0.0313605 0)
(10.0646 0.0310631 0)
(10.0693 0.0306472 0)
(10.0738 0.0301215 0)
(10.0781 0.0294851 0)
(10.0823 0.0287284 0)
(10.0863 0.0278643 0)
(10.0002 0.00345776 0)
(10.0024 0.0100141 0)
(10.0064 0.0154307 0)
(10.0117 0.0194724 0)
(10.0174 0.0224112 0)
(10.0232 0.0245398 0)
(10.029 0.0260106 0)
(10.0347 0.0269472 0)
(10.0402 0.0274833 0)
(10.0456 0.0277265 0)
(10.0507 0.027747 0)
(10.0556 0.0275918 0)
(10.0604 0.0272935 0)
(10.0649 0.0268731 0)
(10.0693 0.026341 0)
(10.0735 0.0257018 0)
(10.0775 0.024952 0)
(10.0814 0.0241142 0)
(10.0002 0.00279883 0)
(10.002 0.00810571 0)
(10.0055 0.0125795 0)
(10.0101 0.0160248 0)
(10.0153 0.0185774 0)
(10.0206 0.0204396 0)
(10.026 0.0217432 0)
(10.0314 0.0225886 0)
(10.0367 0.0230766 0)
(10.0418 0.0232935 0)
(10.0467 0.0233 0)
(10.0515 0.0231375 0)
(10.0561 0.0228353 0)
(10.0605 0.0224133 0)
(10.0647 0.021884 0)
(10.0687 0.0212556 0)
(10.0726 0.0205305 0)
(10.0763 0.0197359 0)
(10.0002 0.00211477 0)
(10.0017 0.00612792 0)
(10.0047 0.00956524 0)
(10.0087 0.0122805 0)
(10.0134 0.0143275 0)
(10.0183 0.0158301 0)
(10.0233 0.0168873 0)
(10.0283 0.0175749 0)
(10.0333 0.0179645 0)
(10.0382 0.0181195 0)
(10.0429 0.0180881 0)
(10.0475 0.0179044 0)
(10.0519 0.0175932 0)
(10.0561 0.0171725 0)
(10.0602 0.0166555 0)
(10.0641 0.0160524 0)
(10.0677 0.0153687 0)
(10.0713 0.0146338 0)
(10.0002 0.00140256 0)
(10.0015 0.00406641 0)
(10.0041 0.00637124 0)
(10.0076 0.00822188 0)
(10.0118 0.0096322 0)
(10.0163 0.0106665 0)
(10.0209 0.0113853 0)
(10.0256 0.0118377 0)
(10.0304 0.0120683 0)
(10.035 0.0121179 0)
(10.0395 0.0120192 0)
(10.0439 0.0117969 0)
(10.0481 0.0114695 0)
(10.0521 0.0110518 0)
(10.056 0.0105551 0)
(10.0597 0.00998987 0)
(10.0633 0.00936179 0)
(10.0666 0.00869903 0)
(10.0001 0.000645718 0)
(10.0013 0.0018691 0)
(10.0036 0.0029249 0)
(10.0069 0.00376822 0)
(10.0107 0.00440016 0)
(10.0148 0.00484304 0)
(10.0192 0.00511971 0)
(10.0237 0.00525004 0)
(10.0281 0.00525319 0)
(10.0325 0.00514727 0)
(10.0369 0.00494751 0)
(10.041 0.00466629 0)
(10.0451 0.0043137 0)
(10.049 0.00389855 0)
(10.0527 0.00342851 0)
(10.0562 0.0029112 0)
(10.0596 0.0023511 0)
(10.0628 0.00177186 0)
(10.0001 -0.000198936 0)
(10.0012 -0.000586197 0)
(10.0034 -0.000947559 0)
(10.0066 -0.00127341 0)
(10.0102 -0.00156254 0)
(10.0143 -0.00182897 0)
(10.0185 -0.00209066 0)
(10.0228 -0.00235967 0)
(10.0271 -0.00264356 0)
(10.0314 -0.00294793 0)
(10.0356 -0.00327737 0)
(10.0396 -0.00363431 0)
(10.0435 -0.00401965 0)
(10.0473 -0.00443279 0)
(10.0509 -0.00487238 0)
(10.0543 -0.00533568 0)
(10.0576 -0.00582161 0)
(10.0607 -0.00631309 0)
(10.0001 -0.0010071 0)
(10.0013 -0.0029426 0)
(10.0037 -0.00467081 0)
(10.007 -0.00611153 0)
(10.0108 -0.00726082 0)
(10.015 -0.00817874 0)
(10.0193 -0.00892654 0)
(10.0237 -0.00954646 0)
(10.0281 -0.0100726 0)
(10.0323 -0.0105368 0)
(10.0365 -0.0109637 0)
(10.0405 -0.0113702 0)
(10.0444 -0.0117672 0)
(10.0481 -0.0121626 0)
(10.0516 -0.012561 0)
(10.055 -0.0129649 0)
(10.0582 -0.0133763 0)
(10.0612 -0.0137846 0)
(10.0002 -0.00170406 0)
(10.0015 -0.00500051 0)
(10.0041 -0.00792499 0)
(10.0078 -0.0102746 0)
(10.012 -0.0120702 0)
(10.0165 -0.013462 0)
(10.021 -0.014556 0)
(10.0256 -0.0154095 0)
(10.03 -0.0160792 0)
(10.0344 -0.0166237 0)
(10.0386 -0.0170875 0)
(10.0427 -0.0174993 0)
(10.0465 -0.0178782 0)
(10.0502 -0.0182381 0)
(10.0537 -0.0185881 0)
(10.0571 -0.0189337 0)
(10.0602 -0.0192791 0)
(10.0632 -0.0196171 0)
(10.0002 -0.00236581 0)
(10.0016 -0.0070336 0)
(10.0047 -0.0111767 0)
(10.009 -0.0143457 0)
(10.0137 -0.0166411 0)
(10.0185 -0.0183735 0)
(10.0234 -0.0197033 0)
(10.0282 -0.020701 0)
(10.0329 -0.0214484 0)
(10.0374 -0.0220263 0)
(10.0417 -0.0224915 0)
(10.0458 -0.0228805 0)
(10.0497 -0.0232199 0)
(10.0534 -0.023529 0)
(10.0569 -0.0238212 0)
(10.0602 -0.0241037 0)
(10.0634 -0.0243824 0)
(10.0664 -0.0246523 0)
(10.0002 -0.00298468 0)
(10.0018 -0.0090926 0)
(10.0054 -0.0144514 0)
(10.0105 -0.018341 0)
(10.0159 -0.0210843 0)
(10.0211 -0.0231058 0)
(10.0263 -0.0245606 0)
(10.0314 -0.0255739 0)
(10.0363 -0.0263001 0)
(10.0409 -0.0268489 0)
(10.0453 -0.0272769 0)
(10.0495 -0.0276196 0)
(10.0534 -0.0279066 0)
(10.0572 -0.0281601 0)
(10.0607 -0.0283943 0)
(10.064 -0.0286177 0)
(10.0672 -0.0288355 0)
(10.0702 -0.0290453 0)
(10.0001 -0.00352867 0)
(10.0018 -0.0115506 0)
(10.0063 -0.0178916 0)
(10.0123 -0.0219891 0)
(10.0183 -0.0250547 0)
(10.024 -0.0274633 0)
(10.0297 -0.0291007 0)
(10.0351 -0.0301103 0)
(10.0401 -0.0307623 0)
(10.0449 -0.0312217 0)
(10.0494 -0.0315558 0)
(10.0537 -0.0318055 0)
(10.0577 -0.0320045 0)
(10.0614 -0.0321766 0)
(10.0649 -0.0323353 0)
(10.0683 -0.0324881 0)
(10.0714 -0.0326381 0)
(10.0743 -0.0327823 0)
(9.99991 -0.00337276 0)
(10.0016 -0.0149835 0)
(10.0073 -0.0227358 0)
(10.0142 -0.0262437 0)
(10.0206 -0.0288278 0)
(10.0269 -0.031192 0)
(10.0331 -0.0329126 0)
(10.039 -0.0340003 0)
(10.0445 -0.0346999 0)
(10.0494 -0.0351636 0)
(10.0541 -0.0354618 0)
(10.0584 -0.0356488 0)
(10.0624 -0.0357705 0)
(10.0661 -0.0358579 0)
(10.0695 -0.0359289 0)
(10.0727 -0.0359937 0)
(10.0756 -0.0360568 0)
(10.0783 -0.0361167 0)
(9.99859 -0.000380294 0)
(9.99904 -0.0157951 0)
(10.0076 -0.0274343 0)
(10.0166 -0.0324897 0)
(10.0238 -0.0348648 0)
(10.0306 -0.0362203 0)
(10.0376 -0.036972 0)
(10.0441 -0.0374393 0)
(10.0499 -0.0377883 0)
(10.055 -0.0380357 0)
(10.0596 -0.0381809 0)
(10.0636 -0.0382494 0)
(10.0672 -0.0382708 0)
(10.0704 -0.0382663 0)
(10.0732 -0.0382511 0)
(10.0756 -0.0382337 0)
(10.0777 -0.0382181 0)
(10.0796 -0.0382017 0)
(9.99487 0.00140671 0)
(9.99287 -0.00812183 0)
(10.006 -0.0203288 0)
(10.0202 -0.0322606 0)
(10.0307 -0.040467 0)
(10.0392 -0.044141 0)
(10.0467 -0.0450547 0)
(10.0529 -0.0449118 0)
(10.0578 -0.044446 0)
(10.0617 -0.0438504 0)
(10.0646 -0.0432064 0)
(10.0668 -0.0425705 0)
(10.0683 -0.0419766 0)
(10.0691 -0.0414332 0)
(10.0694 -0.0409491 0)
(10.0693 -0.0405224 0)
(10.0688 -0.0401495 0)
(10.0681 -0.0398042 0)
(9.9947 -0.0305766 0)
(9.99943 -0.0228486 0)
(10.0146 -0.00261752 0)
(10.0304 -0.00189799 0)
(10.0434 -0.0116499 0)
(10.0533 -0.020916 0)
(10.0594 -0.0272751 0)
(10.0619 -0.0315028 0)
(10.0615 -0.0342783 0)
(10.0591 -0.035975 0)
(10.0551 -0.0369074 0)
(10.0498 -0.0373414 0)
(10.0435 -0.0374672 0)
(10.0365 -0.0374054 0)
(10.0289 -0.0372444 0)
(10.021 -0.0370425 0)
(10.0129 -0.0368627 0)
(10.0047 -0.0366726 0)
(10.0274 -0.183006 0)
(10.0766 -0.288324 0)
(10.0871 -0.24782 0)
(10.0777 -0.186557 0)
(10.0664 -0.14032 0)
(10.0537 -0.108239 0)
(10.0365 -0.0858913 0)
(10.0145 -0.0704321 0)
(9.98938 -0.0596601 0)
(9.96235 -0.0518832 0)
(9.93438 -0.0460602 0)
(9.90607 -0.0415618 0)
(9.87789 -0.0380051 0)
(9.85019 -0.0351285 0)
(9.82321 -0.0327653 0)
(9.79705 -0.0308416 0)
(9.77195 -0.0293232 0)
(9.74796 -0.0285076 0)
(9.93575 0.689542 0)
(9.86828 0.609596 0)
(9.76458 0.380606 0)
(9.62663 0.217412 0)
(9.48589 0.119243 0)
(9.35721 0.0631617 0)
(9.2427 0.0315499 0)
(9.14112 0.0135987 0)
(9.05146 0.00324535 0)
(8.97249 -0.00281514 0)
(8.90259 -0.00636839 0)
(8.84042 -0.00848651 0)
(8.78472 -0.00973284 0)
(8.73462 -0.0104909 0)
(8.6892 -0.0109719 0)
(8.64786 -0.0112485 0)
(8.60967 -0.0114733 0)
(8.57433 -0.0121124 0)
(0.00664582 -0.0156214 -8.65508e-19)
(0.0201263 -0.0194552 6.62291e-19)
(0.0289361 -0.01268 0)
(0.0323099 -0.00322435 0)
(0.0294697 0.00536818 0)
(0.0217091 0.0117717 -2.98151e-19)
(0.0102779 0.0159901 0)
(-0.00378849 0.0185316 0)
(-0.0197199 0.0199885 0)
(-0.0370171 0.0208447 0)
(-0.0553636 0.021412 1.58883e-19)
(-0.0745692 0.0218622 0)
(-0.0945236 0.0222712 0)
(-0.115161 0.022661 0)
(-0.136436 0.0230215 0)
(-0.158313 0.0233299 1.02295e-19)
(-0.180748 0.0235583 0)
(-0.203688 0.0236858 0)
(-0.227091 0.0237055 0)
(-0.250936 0.0236654 0)
(-0.275203 0.0237027 0)
(-0.299884 0.0240154 0)
(-0.32506 0.0249088 0)
(-0.350897 0.0269625 7.09863e-20)
(-0.377559 0.0305314 -6.93913e-20)
(-0.405184 0.0358493 6.84733e-20)
(-0.434203 0.0436356 6.84394e-20)
(-0.464351 0.0554016 0)
(-0.497894 0.0264034 0)
(-0.530467 -0.0345855 -9.00373e-20)
(-0.553007 0.00220566 -6.36866e-20)
(-0.579862 0.0484092 0)
(-0.617721 0.0724373 0)
(-0.658829 0.0866613 -5.67517e-20)
(-0.701186 0.0960174 0)
(-0.741964 0.0688354 0)
(-0.779628 0.0254407 8.19305e-20)
(-0.810871 0.0250281 0)
(-0.844894 0.0315504 7.57112e-20)
(-0.882064 0.0350558 1.46364e-19)
(-0.921282 0.034656 0)
(-0.960123 0.0348468 0)
(-0.999461 0.0348899 0)
(-1.03896 0.0348322 0)
(-1.07856 0.0346716 0)
(-1.11819 0.0344605 1.22048e-19)
(-1.1578 0.0342133 1.18839e-19)
(-1.19737 0.0339436 1.15819e-19)
(-1.23688 0.0336591 0)
(-1.2763 0.0333639 -1.10293e-19)
(-1.31563 0.0330618 0)
(-1.35486 0.0327526 1.05357e-19)
(-1.39397 0.0324386 1.03082e-19)
(-1.43294 0.0321183 0)
(-1.47177 0.0317922 0)
(-1.51044 0.0314571 0)
(-1.54894 0.0311141 9.50318e-20)
(-1.58724 0.03076 0)
(-1.62532 0.0303951 0)
(-1.66317 0.0300157 0)
(-1.70076 0.0296229 0)
(-1.73807 0.0292135 0)
(-1.77506 0.028788 0)
(-1.8117 0.0283428 0)
(-1.84797 0.0278792 0)
(-1.88384 0.027394 -8.12942e-20)
(-1.91926 0.0268888 0)
(-1.95421 0.0263605 0)
(-1.98864 0.0258115 7.76159e-20)
(-2.02252 0.0252384 7.64599e-20)
(-2.05581 0.0246437 0)
(-2.08846 0.0240244 -7.42388e-20)
(-2.12043 0.0233828 7.31686e-20)
(-2.15169 0.0227161 0)
(-2.18218 0.0220272 -7.10957e-20)
(-2.21188 0.0213132 0)
(-2.24072 0.0205778 0)
(-2.26866 0.0198187 6.81252e-20)
(-2.29566 0.0190383 0)
(-2.32167 0.0182329 -6.62146e-20)
(-2.34663 0.0174054 0)
(-2.37052 0.0165517 6.4342e-20)
(-2.39326 0.0156728 6.34158e-20)
(-2.41482 0.014762 6.24935e-20)
(-2.43513 0.0138186 1.23149e-19)
(-2.45416 0.0128333 -1.21312e-19)
(-2.47184 0.011801 0)
(-2.48809 0.0107083 0)
(-2.50285 0.0095474 0)
(-2.51605 0.00830926 -1.13918e-19)
(-2.52763 0.00699618 -1.12045e-19)
(-2.53752 0.00563386 1.10162e-19)
(-2.5456 0.004264 0)
(-2.55172 0.00291747 -1.06368e-19)
(-2.55578 0.0016242 -1.04452e-19)
(-2.55764 0.000459799 -1.02458e-19)
(-2.55784 -0.000596373 0)
(-2.55629 -0.00162824 0)
(-2.55304 -0.00265514 0)
(-2.54806 -0.00368656 -9.40149e-20)
(-2.54133 -0.00472359 0)
(-2.53283 -0.00576694 0)
(-2.52254 -0.00681545 8.70859e-20)
(-2.51044 -0.00786884 0)
(-2.49652 -0.00892487 0)
(-2.48074 -0.00998344 7.95223e-20)
(-2.46312 -0.0110421 0)
(-2.44363 -0.0121009 0)
(-2.42227 -0.0131573 -7.12025e-20)
(-2.39906 -0.014211 -6.82389e-20)
(-2.37398 -0.0152593 0)
(-2.34706 -0.016301 6.19967e-20)
(-2.3183 -0.0173333 0)
(-2.28773 -0.0183545 -5.53006e-20)
(-2.25537 -0.0193621 0)
(-2.22124 -0.0203535 -4.81094e-20)
(-2.18539 -0.0213268 -4.43152e-20)
(-2.14785 -0.0222785 0)
(-2.10867 -0.0232065 0)
(-2.06789 -0.0241054 0)
(-2.02556 -0.0249726 0)
(-1.98175 -0.0258079 0)
(-1.93651 -0.0266142 0)
(-1.88991 -0.0273839 0)
(-1.84203 -0.0281201 -8.52664e-21)
(-1.79294 -0.0288214 3.29842e-21)
(-1.74272 -0.0294858 0)
(-1.69146 -0.0301039 0)
(-1.63924 -0.03068 0)
(-1.58613 -0.0312062 0)
(-1.53223 -0.0316842 -5.14076e-20)
(-1.47764 -0.0321063 0)
(-1.42245 -0.0324757 7.7453e-20)
(-1.36676 -0.0327855 -9.11215e-20)
(-1.31068 -0.0330395 0)
(-1.25431 -0.0332322 0)
(-1.19775 -0.0333663 0)
(-1.1411 -0.0334359 1.503e-19)
(-1.08446 -0.0334427 1.66268e-19)
(-1.02793 -0.033386 0)
(-0.971607 -0.0332696 1.99691e-19)
(-0.915576 -0.0330953 2.1717e-19)
(-0.859924 -0.0328646 -2.35175e-19)
(-0.804736 -0.0325795 0)
(-0.750091 -0.032242 0)
(-0.696061 -0.0318557 -2.92464e-19)
(-0.642714 -0.0314225 0)
(-0.590109 -0.0309468 0)
(-0.538299 -0.0304309 0)
(-0.487328 -0.0298799 0)
(-0.437236 -0.0292954 3.99595e-19)
(-0.388054 -0.0286837 4.22888e-19)
(-0.339804 -0.0280476 0)
(-0.292502 -0.0273928 4.71471e-19)
(-0.246156 -0.0267215 0)
(-0.200768 -0.0260398 0)
(-0.15633 -0.0253493 5.49626e-19)
(-0.112824 -0.0246583 0)
(-0.0702427 -0.0239642 6.0554e-19)
(-0.0285977 -0.0232654 0)
(0.0121923 -0.0225013 0)
(0.0516749 -0.0214581 6.73462e-19)
(0.0897813 -0.020232 0)
(0.126896 -0.0190312 6.50724e-19)
(0.163134 -0.0178839 0)
(0.198564 -0.0168244 0)
(0.233327 -0.0158598 0)
(0.267628 -0.0150061 -6.10207e-19)
(0.301646 -0.0142637 0)
(0.335599 -0.0136325 5.9145e-19)
(0.369699 -0.0131164 0)
(0.404108 -0.0126921 0)
(0.438987 -0.012337 0)
(0.474444 -0.0120441 0)
(0.510559 -0.011774 0)
(0.547048 -0.0114485 0)
(0.584143 -0.010851 0)
(0.617272 -0.00941962 -1.04467e-18)
(0.654953 -0.00627943 0)
(0.644316 0.00983385 0)
(0.00428723 -0.0400247 1.93791e-18)
(0.00802176 -0.0307848 -9.97932e-19)
(0.00540588 -0.0129368 0)
(-0.000216385 0.00398982 3.02226e-19)
(-0.00841359 0.0186482 0)
(-0.0191517 0.0304638 1.12196e-19)
(-0.0322751 0.0394514 -2.0347e-19)
(-0.0475943 0.0460213 -1.86749e-19)
(-0.0648389 0.0507469 0)
(-0.0837208 0.0541839 -1.60259e-19)
(-0.103989 0.0567743 -7.48328e-20)
(-0.125445 0.058829 0)
(-0.147941 0.0605468 0)
(-0.171379 0.0620456 0)
(-0.195701 0.0633897 0)
(-0.220878 0.0646128 -5.68943e-20)
(-0.246904 0.0657333 0)
(-0.273792 0.0667647 1.04987e-19)
(-0.301582 0.0677212 0)
(-0.330322 0.0686284 0)
(-0.360065 0.0695323 -9.58474e-20)
(-0.390898 0.0704966 0)
(-0.422936 0.0715878 9.21397e-20)
(-0.456242 0.0728834 -4.57012e-20)
(-0.490804 0.0744441 4.56918e-20)
(-0.526561 0.0762584 -4.61964e-20)
(-0.563123 0.0783358 -4.72895e-20)
(-0.598473 0.0807766 0)
(-0.635846 0.0821702 0)
(-0.679528 0.0810468 4.6331e-20)
(-0.721657 0.082056 -4.03438e-20)
(-0.761299 0.0856154 0)
(-0.799699 0.0864431 0)
(-0.837492 0.0862767 4.00363e-20)
(-0.87406 0.0855523 0)
(-0.913628 0.0853563 0)
(-0.955599 0.0864384 -4.04506e-20)
(-0.99856 0.0883595 0)
(-1.03884 0.0896248 3.7993e-20)
(-1.07744 0.0903801 -7.45137e-20)
(-1.1151 0.0904634 0)
(-1.1524 0.0900925 0)
(-1.18936 0.0895253 -1.38871e-19)
(-1.22604 0.0888189 -1.35935e-19)
(-1.26246 0.0880155 -1.33147e-19)
(-1.29865 0.087146 6.50892e-20)
(-1.33461 0.0862329 -6.41463e-20)
(-1.37035 0.0852894 -1.88514e-19)
(-1.40587 0.0843253 1.23275e-19)
(-1.44116 0.0833448 6.0697e-20)
(-1.47624 0.0823514 0)
(-1.51108 0.0813446 -5.86376e-20)
(-1.54567 0.0803252 5.73596e-20)
(-1.58002 0.0792905 0)
(-1.6141 0.0782396 0)
(-1.6479 0.0771678 0)
(-1.68141 0.0760742 -5.4141e-20)
(-1.7146 0.0749543 0)
(-1.74746 0.0738068 1.04804e-19)
(-1.77996 0.0726268 0)
(-1.81208 0.0714138 1.01817e-19)
(-1.84381 0.0701637 0)
(-1.8751 0.0688761 -9.89929e-20)
(-1.90594 0.0675466 0)
(-1.93629 0.0661753 9.63072e-20)
(-1.96613 0.0647585 -4.73713e-20)
(-1.99543 0.0632973 0)
(-2.02415 0.0617885 -9.24915e-20)
(-2.05226 0.0602339 -4.57579e-20)
(-2.07974 0.0586303 -4.51521e-20)
(-2.10654 0.0569802 0)
(-2.13263 0.0552803 -4.37361e-20)
(-2.15798 0.0535334 -4.33818e-20)
(-2.18255 0.0517364 0)
(-2.20631 0.0498926 4.22311e-20)
(-2.22922 0.0479995 -8.3126e-20)
(-2.25124 0.0460614 0)
(-2.27233 0.0440766 -4.05302e-20)
(-2.29246 0.0420485 0)
(-2.31158 0.0399741 1.18047e-19)
(-2.32966 0.0378575 0)
(-2.34666 0.0356962 -1.14675e-19)
(-2.36254 0.0334937 -3.77033e-20)
(-2.37726 0.0312469 3.70127e-20)
(-2.39078 0.02896 7.28963e-20)
(-2.40308 0.0266302 -7.17583e-20)
(-2.4141 0.0242606 0)
(-2.42381 0.021846 0)
(-2.43217 0.0193841 0)
(-2.43917 0.0168637 2.01425e-19)
(-2.44478 0.0142716 6.59322e-20)
(-2.44902 0.0116039 -6.46797e-20)
(-2.45192 0.00887654 0)
(-2.45354 0.00612636 -6.21705e-20)
(-2.45396 0.00341346 6.0809e-20)
(-2.45328 0.000823084 5.94469e-20)
(-2.45109 -0.00166082 0)
(-2.44731 -0.00411012 0)
(-2.44187 -0.00654333 0)
(-2.43475 -0.00896928 5.37264e-20)
(-2.42591 -0.011389 0)
(-2.41533 -0.0138006 -1.01656e-19)
(-2.40299 -0.0162003 -1.47679e-19)
(-2.38887 -0.0185848 9.53915e-20)
(-2.37296 -0.0209486 0)
(-2.35523 -0.0232882 4.46379e-20)
(-2.33569 -0.0255982 0)
(-2.31432 -0.0278755 8.20006e-20)
(-2.29112 -0.030115 -3.95038e-20)
(-2.2661 -0.0323131 -3.77123e-20)
(-2.23926 -0.0344645 0)
(-2.21062 -0.0365651 -1.00666e-19)
(-2.18018 -0.0386093 6.34544e-20)
(-2.14798 -0.0405923 2.93654e-20)
(-2.11403 -0.0425088 0)
(-2.07837 -0.0443539 2.52205e-20)
(-2.04103 -0.0461234 7.01202e-20)
(-2.00206 -0.0478125 0)
(-1.9615 -0.0494161 3.82902e-20)
(-1.9194 -0.0509274 3.37806e-20)
(-1.87582 -0.052342 2.91816e-20)
(-1.83081 -0.0536578 0)
(-1.78444 -0.0548808 0)
(-1.73679 -0.0560099 0)
(-1.68792 -0.0570315 -5.54898e-21)
(-1.63793 -0.0579342 -1.8488e-21)
(-1.58688 -0.0587383 0)
(-1.53487 -0.0594461 5.35433e-21)
(-1.48198 -0.0600495 1.05869e-20)
(-1.4283 -0.060537 0)
(-1.37391 -0.060914 2.2568e-20)
(-1.31891 -0.061174 5.3286e-20)
(-1.26341 -0.0613216 -3.34617e-20)
(-1.2075 -0.0613522 -3.62137e-20)
(-1.15129 -0.0612718 0)
(-1.09487 -0.0610783 0)
(-1.03836 -0.0607772 0)
(-0.981842 -0.0603668 -6.1244e-20)
(-0.925421 -0.0598518 6.40438e-20)
(-0.869189 -0.059236 1.42078e-19)
(-0.813237 -0.0585276 -7.80159e-20)
(-0.757655 -0.0577341 8.08344e-20)
(-0.702526 -0.0568619 8.91277e-20)
(-0.647932 -0.0559176 0)
(-0.593948 -0.0549083 0)
(-0.540642 -0.0538418 -1.02937e-19)
(-0.488076 -0.0527251 0)
(-0.436305 -0.0515657 0)
(-0.385378 -0.0503718 2.40498e-19)
(-0.335333 -0.0491509 0)
(-0.286204 -0.0479101 1.29405e-19)
(-0.238017 -0.0466575 -1.36697e-19)
(-0.190787 -0.0454017 0)
(-0.144526 -0.0441479 1.4428e-19)
(-0.099233 -0.0429033 0)
(-0.0549058 -0.0416707 0)
(-0.0115281 -0.0404558 -1.59947e-19)
(0.0308917 -0.0392609 3.25216e-19)
(0.0723324 -0.0380855 -1.65377e-19)
(0.112863 -0.0369177 0)
(0.152626 -0.0357269 0)
(0.191744 -0.0344599 1.66716e-19)
(0.230303 -0.0331819 0)
(0.268387 -0.0319889 1.68371e-19)
(0.306098 -0.0309251 0)
(0.343527 -0.0300121 0)
(0.380824 -0.0292619 0)
(0.418158 -0.0286888 1.70223e-19)
(0.455703 -0.0283018 0)
(0.493652 -0.0280874 -1.69713e-19)
(0.532214 -0.0280364 0)
(0.57159 -0.028127 0)
(0.61195 -0.0283312 3.35487e-19)
(0.653406 -0.0285984 -3.34038e-19)
(0.696018 -0.0288382 0)
(0.739542 -0.0288745 0)
(0.78393 -0.0282406 0)
(0.826282 -0.0261519 9.88426e-19)
(0.871372 -0.0199625 0)
(0.892808 -4.12823e-05 -6.74841e-19)
(-0.00251046 -0.0420127 -1.00354e-21)
(-0.00750559 -0.0189199 9.49359e-19)
(-0.0162599 0.0043998 0)
(-0.0270837 0.0248255 -3.78831e-19)
(-0.0393703 0.0424955 0)
(-0.0528831 0.0574599 0)
(-0.0677221 0.0697882 3.49949e-23)
(-0.0840137 0.0796974 1.17771e-19)
(-0.101798 0.0875482 1.10899e-19)
(-0.121032 0.0937682 1.05143e-19)
(-0.141626 0.0987727 0)
(-0.163472 0.102915 0)
(-0.186472 0.106466 -9.15028e-20)
(-0.210547 0.109624 -1.75788e-19)
(-0.235645 0.112525 1.6933e-19)
(-0.261735 0.115261 0)
(-0.28881 0.117899 1.58403e-19)
(-0.316877 0.120491 -7.69525e-20)
(-0.345958 0.123083 0)
(-0.376083 0.125723 1.46069e-19)
(-0.407266 0.12846 7.14988e-20)
(-0.439496 0.131341 -1.40134e-19)
(-0.472732 0.134416 -6.89743e-20)
(-0.506856 0.13772 0)
(-0.541631 0.141233 1.34515e-19)
(-0.576745 0.144823 1.3334e-19)
(-0.611926 0.148215 0)
(-0.647077 0.150784 1.30784e-19)
(-0.683141 0.151066 0)
(-0.720883 0.149606 1.22531e-19)
(-0.758944 0.150792 5.87239e-20)
(-0.795774 0.154525 0)
(-0.830647 0.157295 0)
(-0.864007 0.158172 0)
(-0.89675 0.157251 0)
(-0.930165 0.154398 0)
(-0.964738 0.150673 0)
(-0.999828 0.148282 1.03584e-19)
(-1.03445 0.146854 -1.52043e-19)
(-1.06834 0.145607 0)
(-1.10162 0.144193 0)
(-1.13457 0.142715 0)
(-1.16725 0.141184 1.60295e-22)
(-1.19972 0.139612 9.15992e-20)
(-1.232 0.138004 1.79623e-19)
(-1.26411 0.136371 -1.76359e-19)
(-1.29606 0.134719 -8.65327e-20)
(-1.32786 0.133053 8.52007e-20)
(-1.3595 0.131376 -1.6958e-22)
(-1.39099 0.129687 8.22071e-20)
(-1.42232 0.127985 0)
(-1.45348 0.126268 7.95874e-20)
(-1.48447 0.124532 -1.73593e-22)
(-1.51527 0.122774 0)
(-1.54586 0.120989 0)
(-1.57625 0.119172 -7.48563e-20)
(-1.60639 0.117319 0)
(-1.63629 0.115425 0)
(-1.66591 0.113486 7.14932e-20)
(-1.69524 0.111497 1.41314e-19)
(-1.72426 0.109456 -6.98422e-20)
(-1.75294 0.107358 0)
(-1.78125 0.1052 6.79365e-20)
(-1.80917 0.10298 0)
(-1.83668 0.100695 6.57854e-20)
(-1.86374 0.0983425 6.52152e-20)
(-1.89032 0.0959219 -1.28368e-19)
(-1.9164 0.0934312 -6.31724e-20)
(-1.94194 0.0908703 0)
(-1.96691 0.0882379 1.23271e-19)
(-1.99127 0.0855344 0)
(-2.01501 0.0827586 1.80086e-19)
(-2.03807 0.0799118 1.18336e-19)
(-2.06043 0.0769931 1.16716e-19)
(-2.08204 0.0740042 -1.15103e-19)
(-2.10289 0.0709451 1.70361e-19)
(-2.12292 0.0678184 0)
(-2.1421 0.0646243 0)
(-2.1604 0.0613651 -1.08693e-19)
(-2.17777 0.0580406 -1.60725e-19)
(-2.19418 0.0546534 0)
(-2.20959 0.0512035 5.20111e-20)
(-2.22397 0.0476935 0)
(-2.23727 0.0441233 -1.50976e-19)
(-2.24947 0.0404966 -1.14577e-22)
(-2.26053 0.0368142 9.985e-23)
(-2.27041 0.0330803 9.5624e-20)
(-2.27908 0.0292967 0)
(-2.28651 0.0254681 -9.22161e-20)
(-2.29268 0.0215983 -3.48331e-23)
(-2.29757 0.0176945 0)
(-2.30119 0.0137712 0)
(-2.30352 0.00984975 0)
(-2.30452 0.00595129 8.32836e-20)
(-2.30416 0.00208445 0)
(-2.30236 -0.00177748 0)
(-2.29905 -0.00565223 0)
(-2.29418 -0.00952865 0)
(-2.28771 -0.0134016 0)
(-2.27961 -0.0172672 7.14004e-20)
(-2.26985 -0.0211212 0)
(-2.2584 -0.0249581 6.69555e-20)
(-2.24526 -0.0287716 6.47596e-20)
(-2.23039 -0.0325547 -6.25253e-20)
(-2.21378 -0.0363003 0)
(-2.19542 -0.0400005 -5.79379e-20)
(-2.1753 -0.0436485 0)
(-2.15341 -0.047237 -5.31861e-20)
(-2.12975 -0.0507587 5.07467e-20)
(-2.10433 -0.0542065 1.45589e-19)
(-2.07715 -0.0575724 0)
(-2.04823 -0.0608487 1.30404e-19)
(-2.01758 -0.064027 4.15006e-20)
(-1.98522 -0.0670993 0)
(-1.95118 -0.070057 7.14458e-20)
(-1.91549 -0.0728923 6.60111e-20)
(-1.87818 -0.0755974 -9.01708e-20)
(-1.83931 -0.0781654 0)
(-1.79891 -0.0805875 -2.39921e-20)
(-1.75704 -0.0828553 -2.10916e-20)
(-1.71375 -0.084961 -5.57786e-20)
(-1.6691 -0.0869006 0)
(-1.62316 -0.088677 0)
(-1.576 -0.0902958 0)
(-1.5277 -0.0917433 -7.54998e-21)
(-1.47834 -0.0930022 0)
(-1.42799 -0.094084 0)
(-1.37675 -0.0950012 -3.24252e-21)
(-1.32469 -0.095746 -6.38532e-21)
(-1.27191 -0.0963086 0)
(-1.21849 -0.0966888 0)
(-1.16453 -0.0968844 -3.17408e-20)
(-1.11012 -0.0968968 0)
(-1.05536 -0.0967261 4.44054e-20)
(-1.00035 -0.0963767 4.90357e-20)
(-0.945193 -0.0958516 0)
(-0.88998 -0.0951564 0)
(-0.834809 -0.094295 -6.77904e-20)
(-0.77977 -0.093274 -1.68337e-21)
(-0.724951 -0.0921017 -1.67539e-21)
(-0.670438 -0.0907897 0)
(-0.616315 -0.0893498 -1.85909e-19)
(-0.562662 -0.0877936 0)
(-0.509554 -0.0861324 0)
(-0.457058 -0.0843787 0)
(-0.405237 -0.0825448 1.16834e-19)
(-0.354147 -0.080643 0)
(-0.303834 -0.078685 -2.52503e-19)
(-0.25434 -0.0766845 -1.33024e-19)
(-0.205698 -0.0746533 0)
(-0.157933 -0.0726033 -1.43192e-19)
(-0.111062 -0.0705457 0)
(-0.0650958 -0.0684929 0)
(-0.020035 -0.0664544 -4.69645e-19)
(0.0241253 -0.0644444 3.20512e-19)
(0.0673846 -0.0624739 0)
(0.109775 -0.0605492 3.31918e-19)
(0.151352 -0.0586662 -1.693e-19)
(0.192166 -0.0568331 0)
(0.232287 -0.0550626 0)
(0.271815 -0.0533592 0)
(0.310863 -0.0517428 -5.278e-19)
(0.349566 -0.0502482 0)
(0.388045 -0.0488845 -1.79188e-19)
(0.4264 -0.0476868 0)
(0.464749 -0.0466873 0)
(0.503244 -0.0459099 0)
(0.542047 -0.0453731 0)
(0.58133 -0.0450922 0)
(0.621276 -0.0450579 0)
(0.662085 -0.0452607 -3.65306e-19)
(0.70395 -0.0456713 0)
(0.747036 -0.0462475 -1.82693e-19)
(0.791454 -0.0469063 5.46912e-19)
(0.837257 -0.0475077 0)
(0.884238 -0.047782 0)
(0.932363 -0.0471481 -3.63252e-19)
(0.979612 -0.0445642 -3.64089e-19)
(1.03009 -0.0374181 3.66103e-19)
(1.0676 -0.0180061 3.72864e-19)
(-0.00841092 -0.0260142 -2.93051e-18)
(-0.0189593 0.00497748 -1.13338e-18)
(-0.0315516 0.0309097 -4.08991e-19)
(-0.0460186 0.052972 -1.46733e-19)
(-0.0613675 0.0721539 0)
(-0.0772871 0.0888099 2.12572e-19)
(-0.0939266 0.103097 -9.71244e-20)
(-0.11148 0.115179 0)
(-0.130083 0.125294 -8.58124e-20)
(-0.149806 0.133749 0)
(-0.170666 0.140872 1.56693e-19)
(-0.192642 0.146977 0)
(-0.215695 0.152333 7.26276e-20)
(-0.239779 0.157156 1.40379e-19)
(-0.264851 0.161612 -1.35963e-19)
(-0.290874 0.165823 0)
(-0.317816 0.169875 -1.28291e-19)
(-0.345649 0.173831 0)
(-0.374343 0.177735 0)
(-0.403856 0.181618 -1.1901e-19)
(-0.43413 0.185499 0)
(-0.465072 0.189376 2.93529e-23)
(-0.49655 0.193218 0)
(-0.528384 0.196955 0)
(-0.560357 0.200465 2.88759e-23)
(-0.592267 0.203546 -1.05122e-19)
(-0.624009 0.205927 -1.03122e-19)
(-0.655641 0.207322 -1.00866e-19)
(-0.68743 0.207556 0)
(-0.719594 0.20716 -1.91608e-19)
(-0.751822 0.207446 0)
(-0.783403 0.208443 -9.11811e-20)
(-0.813937 0.209017 0)
(-0.843656 0.208578 0)
(-0.873048 0.207003 8.57051e-20)
(-0.902575 0.20446 0)
(-0.932456 0.201468 -8.20814e-20)
(-0.962589 0.198701 -5.0208e-23)
(-0.992681 0.196277 1.57356e-19)
(-1.02255 0.194021 -1.54104e-19)
(-1.05218 0.191789 0)
(-1.08165 0.189571 0)
(-1.11097 0.187361 -7.26211e-20)
(-1.14017 0.185155 0)
(-1.16926 0.182951 -7.0138e-20)
(-1.19825 0.180745 6.89163e-20)
(-1.22714 0.178537 6.77429e-20)
(-1.25594 0.176323 0)
(-1.28464 0.174102 -6.5528e-20)
(-1.31325 0.171868 -6.44805e-20)
(-1.34174 0.169618 1.26788e-19)
(-1.37012 0.167345 -6.24913e-20)
(-1.39837 0.165045 -6.15447e-20)
(-1.42648 0.162711 0)
(-1.45443 0.160336 0)