# vtk DataFile Version 2.0
track0
ASCII
DATASET POLYDATA
POINTS 12085 float
-0.0205 0.001 1e-05
-0.02052 0.000999985 1e-05
-0.02054 0.000999974 1e-05
-0.02056 0.000999965 1e-05
-0.02058 0.000999959 1e-05
-0.0206 0.000999956 1e-05
-0.0205 0.00367778 1e-05
-0.02052 0.00367778 1e-05
-0.02054 0.00367777 1e-05
-0.02056 0.00367777 1e-05
-0.02058 0.00367777 1e-05
-0.0206 0.00367777 1e-05
-0.0205 0.00635556 1e-05
-0.02052 0.00635555 1e-05
-0.02054 0.00635555 1e-05
-0.02056 0.00635555 1e-05
-0.02058 0.00635555 1e-05
-0.0206 0.00635555 1e-05
-0.0205 0.00903333 1e-05
-0.02052 0.00903333 1e-05
-0.02054 0.00903333 1e-05
-0.02056 0.00903333 1e-05
-0.02058 0.00903333 1e-05
-0.0206 0.00903333 1e-05
-0.0205 0.0117111 1e-05
-0.02052 0.0117111 1e-05
-0.02054 0.0117111 1e-05
-0.02056 0.0117111 1e-05
-0.02058 0.0117111 1e-05
-0.0206 0.0117111 1e-05
-0.0205 0.0143889 1e-05
-0.02052 0.0143889 1e-05
-0.02054 0.0143889 1e-05
-0.02056 0.0143889 1e-05
-0.02058 0.0143889 1e-05
-0.0206 0.0143889 1e-05
-0.0205 0.0170667 1e-05
-0.02052 0.0170667 1e-05
-0.02054 0.0170667 1e-05
-0.02056 0.0170667 1e-05
-0.02058 0.0170667 1e-05
-0.0206 0.0170667 1e-05
-0.0205 0.0197444 1e-05
-0.02052 0.0197444 1e-05
-0.02054 0.0197444 1e-05
-0.02056 0.0197444 1e-05
-0.02058 0.0197444 1e-05
-0.0206 0.0197444 1e-05
-0.0205 0.0224222 1e-05
-0.02052 0.0224222 1e-05
-0.02054 0.0224222 1e-05
-0.02056 0.0224222 1e-05
-0.02058 0.0224222 1e-05
-0.0206 0.0224222 1e-05
-0.0205 0.0251 1e-05
-0.02052 0.0250998 1e-05
-0.02054 0.0250997 1e-05
-0.02056 0.0250995 1e-05
-0.02058 0.0250995 1e-05
-0.0206 0.0250994 1e-05
-0.0205 0.001 1e-05
-0.0202034 0.00100022 1e-05
-0.0199069 0.00100067 1e-05
-0.0196103 0.00100133 1e-05
-0.0193137 0.00100219 1e-05
-0.0190172 0.00100326 1e-05
-0.0187132 0.00100467 1e-05
-0.0184093 0.00100589 1e-05
-0.0181054 0.00100711 1e-05
-0.0178015 0.00100833 1e-05
-0.0174976 0.00100954 1e-05
-0.0172058 0.00101084 1e-05
-0.016914 0.00101194 1e-05
-0.0166222 0.00101304 1e-05
-0.0163305 0.00101414 1e-05
-0.0160387 0.00101523 1e-05
-0.0157586 0.00101637 1e-05
-0.0154784 0.00101745 1e-05
-0.0151983 0.00101857 1e-05
-0.0149182 0.00101973 1e-05
-0.0146381 0.00102092 1e-05
-0.0143753 0.0010221 1e-05
-0.0141126 0.00102328 1e-05
-0.0138498 0.00102449 1e-05
-0.013587 0.00102574 1e-05
-0.0133652 0.00102682 1e-05
-0.0133508 0.00102689 1e-05
-0.0133365 0.00102696 1e-05
-0.0133221 0.00102703 1e-05
-0.0133078 0.0010271 1e-05
-0.0132934 0.00102717 1e-05
-0.0130353 0.00102846 1e-05
-0.0127771 0.00102977 1e-05
-0.0125189 0.00103109 1e-05
-0.0122607 0.00103243 1e-05
-0.0120025 0.00103378 1e-05
-0.0117547 0.00103509 1e-05
-0.0115068 0.00103641 1e-05
-0.0112589 0.00103773 1e-05
-0.0110111 0.00103906 1e-05
-0.0107632 0.00104039 1e-05
-0.0105252 0.00104167 1e-05
-0.0102873 0.00104295 1e-05
-0.0100493 0.00104423 1e-05
-0.00981133 0.00104552 1e-05
-0.00957337 0.0010468 1e-05
-0.00934491 0.00104802 1e-05
-0.00911645 0.00104925 1e-05
-0.00888799 0.00105047 1e-05
-0.00865954 0.0010517 1e-05
-0.00843108 0.00105291 1e-05
-0.00821175 0.00105408 1e-05
-0.00799242 0.00105524 1e-05
-0.00777309 0.0010564 1e-05
-0.00755376 0.00105756 1e-05
-0.00733443 0.00105871 1e-05
-0.00712387 0.00105981 1e-05
-0.0069133 0.00106091 1e-05
-0.00670273 0.00106201 1e-05
-0.00649216 0.0010631 1e-05
-0.0062816 0.00106419 1e-05
-0.00607944 0.00106522 1e-05
-0.00587729 0.00106626 1e-05
-0.00567514 0.0010673 1e-05
-0.00547298 0.00106833 1e-05
-0.00527083 0.00106936 1e-05
-0.00507675 0.00107033 1e-05
-0.00488267 0.00107132 1e-05
-0.0046886 0.0010723 1e-05
-0.00449452 0.00107327 1e-05
-0.00430044 0.00107425 1e-05
-0.00411412 0.00107518 1e-05
-0.0039278 0.00107611 1e-05
-0.00374147 0.00107704 1e-05
-0.00355515 0.00107797 1e-05
-0.00336883 0.0010789 1e-05
-0.00318995 0.00107979 1e-05
-0.00301107 0.00108069 1e-05
-0.00283219 0.00108158 1e-05
-0.00265331 0.00108248 1e-05
-0.00247443 0.00108338 1e-05
-0.0023027 0.00108424 1e-05
-0.00213097 0.00108511 1e-05
-0.00195924 0.00108598 1e-05
-0.0017875 0.00108687 1e-05
-0.00161577 0.00108775 1e-05
-0.0014509 0.0010886 1e-05
-0.00128603 0.00108946 1e-05
-0.00112116 0.00109034 1e-05
-0.00095629 0.00109123 1e-05
-0.000791418 0.00109213 1e-05
-0.000633135 0.00109301 1e-05
-0.000474851 0.00109391 1e-05
-0.000316568 0.00109482 1e-05
-0.000158284 0.00109576 1e-05
0 0.00109671 1e-05
0.000105677 0.00109734 1e-05
0.000211355 0.00109799 1e-05
0.000317032 0.00109864 1e-05
0.00042271 0.0010993 1e-05
0.000528387 0.00109995 1e-05
0.000634886 0.00110061 1e-05
0.000741385 0.00110126 1e-05
0.000847885 0.00110191 1e-05
0.000954384 0.00110254 1e-05
0.00106088 0.00110318 1e-05
0.00116821 0.0011038 1e-05
0.00127554 0.00110442 1e-05
0.00138286 0.00110503 1e-05
0.00149019 0.00110563 1e-05
0.00159752 0.00110621 1e-05
0.00170568 0.00110678 1e-05
0.00181384 0.00110735 1e-05
0.001922 0.0011079 1e-05
0.00203016 0.00110844 1e-05
0.00213833 0.00110896 1e-05
0.00224733 0.00110947 1e-05
0.00235633 0.00110998 1e-05
0.00246533 0.00111048 1e-05
0.00257434 0.00111096 1e-05
0.00268334 0.00111143 1e-05
0.00279319 0.00111189 1e-05
0.00290304 0.00111234 1e-05
0.00301289 0.00111278 1e-05
0.00312274 0.00111321 1e-05
0.00323259 0.00111364 1e-05
0.00334329 0.00111404 1e-05
0.003454 0.00111444 1e-05
0.0035647 0.00111483 1e-05
0.0036754 0.00111521 1e-05
0.00378611 0.00111558 1e-05
0.00389767 0.00111594 1e-05
0.00400924 0.00111629 1e-05
0.0041208 0.00111663 1e-05
0.00423237 0.00111696 1e-05
0.00434393 0.00111728 1e-05
0.00445636 0.00111758 1e-05
0.00456879 0.00111788 1e-05
0.00468123 0.00111817 1e-05
0.00479366 0.00111845 1e-05
0.00490609 0.00111871 1e-05
0.0050194 0.00111897 1e-05
0.0051327 0.00111921 1e-05
0.00524601 0.00111945 1e-05
0.00535932 0.00111968 1e-05
0.00547262 0.0011199 1e-05
0.00558681 0.0011201 1e-05
0.005701 0.0011203 1e-05
0.00581518 0.00112048 1e-05
0.00592937 0.00112066 1e-05
0.00604356 0.00112083 1e-05
0.00615863 0.00112098 1e-05
0.00627371 0.00112113 1e-05
0.00638878 0.00112127 1e-05
0.00650386 0.0011214 1e-05
0.00661893 0.00112151 1e-05
0.0067349 0.00112162 1e-05
0.00685087 0.00112172 1e-05
0.00696684 0.0011218 1e-05
0.00708281 0.00112188 1e-05
0.00719878 0.00112195 1e-05
0.00731565 0.00112201 1e-05
0.00743252 0.00112205 1e-05
0.00754939 0.00112209 1e-05
0.00766626 0.00112212 1e-05
0.00778313 0.00112214 1e-05
0.00789121 0.00112215 1e-05
0.00799929 0.00112214 1e-05
0.00810737 0.00112213 1e-05
0.00821545 0.00112212 1e-05
0.00831675 0.00112209 1e-05
0.00832781 0.00112209 1e-05
0.00833887 0.00112208 1e-05
0.00834992 0.00112208 1e-05
0.00836098 0.00112208 1e-05
0.00837203 0.00112207 1e-05
0.00849073 0.00112203 1e-05
0.00860942 0.00112197 1e-05
0.00872812 0.00112191 1e-05
0.00884682 0.00112183 1e-05
0.00896551 0.00112175 1e-05
0.00908513 0.00112165 1e-05
0.00920475 0.00112154 1e-05
0.00932437 0.00112142 1e-05
0.00944398 0.0011213 1e-05
0.0095636 0.00112116 1e-05
0.00968415 0.001121 1e-05
0.0098047 0.00112084 1e-05
0.00992525 0.00112066 1e-05
0.0100458 0.00112048 1e-05
0.0101663 0.00112028 1e-05
0.0102878 0.00112007 1e-05
0.0104093 0.00111985 1e-05
0.0105308 0.00111962 1e-05
0.0106523 0.00111938 1e-05
0.0107738 0.00111913 1e-05
0.0108962 0.00111885 1e-05
0.0110186 0.00111857 1e-05
0.0111411 0.00111829 1e-05
0.0112635 0.00111798 1e-05
0.0113859 0.00111767 1e-05
0.0115093 0.00111734 1e-05
0.0116327 0.001117 1e-05
0.0117561 0.00111665 1e-05
0.0118795 0.00111629 1e-05
0.0120028 0.00111591 1e-05
0.0121272 0.00111552 1e-05
0.0122515 0.00111511 1e-05
0.0123759 0.0011147 1e-05
0.0125002 0.00111428 1e-05
0.0126245 0.00111384 1e-05
0.0127498 0.00111338 1e-05
0.0128752 0.00111291 1e-05
0.0130005 0.00111243 1e-05
0.0131258 0.00111194 1e-05
0.0132511 0.00111144 1e-05
0.0133774 0.00111091 1e-05
0.0135036 0.00111038 1e-05
0.0136299 0.00110983 1e-05
0.0137562 0.00110927 1e-05
0.0138825 0.0011087 1e-05
0.0140098 0.00110811 1e-05
0.014137 0.00110751 1e-05
0.0142643 0.00110689 1e-05
0.0143915 0.00110626 1e-05
0.0145188 0.00110562 1e-05
0.0146471 0.00110496 1e-05
0.0147753 0.00110429 1e-05
0.0149036 0.0011036 1e-05
0.0150318 0.0011029 1e-05
0.0151601 0.00110219 1e-05
0.0152893 0.00110147 1e-05
0.0154186 0.00110072 1e-05
0.0155478 0.00109996 1e-05
0.0156771 0.00109919 1e-05
0.0158063 0.0010984 1e-05
0.0159366 0.00109761 1e-05
0.0160668 0.00109679 1e-05
0.0161971 0.00109596 1e-05
0.0163273 0.00109511 1e-05
0.0164576 0.00109425 1e-05
0.0165889 0.00109338 1e-05
0.0167201 0.00109249 1e-05
0.0168514 0.00109158 1e-05
0.0169827 0.00109066 1e-05
0.0171139 0.00108972 1e-05
0.0172462 0.00108878 1e-05
0.0173785 0.00108781 1e-05
0.0175108 0.00108683 1e-05
0.0176431 0.00108582 1e-05
0.0177754 0.00108481 1e-05
0.0179087 0.0010838 1e-05
0.018042 0.00108275 1e-05
0.0181753 0.00108168 1e-05
0.0183087 0.0010806 1e-05
0.018442 0.00107951 1e-05
0.0185763 0.00107842 1e-05
0.0187107 0.0010773 1e-05
0.018845 0.00107615 1e-05
0.0189794 0.00107498 1e-05
0.0191137 0.00107381 1e-05
0.0192491 0.00107264 1e-05
0.0193845 0.00107144 1e-05
0.0195199 0.00107021 1e-05
0.0196553 0.00106895 1e-05
0.0197907 0.00106771 1e-05
0.0199272 0.00106645 1e-05
0.0200636 0.00106517 1e-05
0.0202001 0.00106385 1e-05
0.0203365 0.00106251 1e-05
0.020473 0.00106118 1e-05
0.0206105 0.00105985 1e-05
0.020748 0.00105847 1e-05
0.0208855 0.00105707 1e-05
0.021023 0.00105565 1e-05
0.0211606 0.00105423 1e-05
0.0212991 0.00105281 1e-05
0.0214377 0.00105135 1e-05
0.0215763 0.00104985 1e-05
0.0217149 0.00104834 1e-05
0.0218535 0.00104684 1e-05
0.0219931 0.00104532 1e-05
0.0221328 0.00104377 1e-05
0.0222724 0.00104219 1e-05
0.0224121 0.00104059 1e-05
0.0225517 0.00103899 1e-05
0.0226925 0.00103739 1e-05
0.0228332 0.00103575 1e-05
0.022974 0.00103407 1e-05
0.0231147 0.00103238 1e-05
0.0232555 0.00103069 1e-05
0.0233973 0.00102899 1e-05
0.0235391 0.00102725 1e-05
0.023681 0.00102548 1e-05
0.0238228 0.00102369 1e-05
0.0239647 0.0010219 1e-05
0.0241076 0.00102011 1e-05
0.0242505 0.00101827 1e-05
0.0243935 0.0010164 1e-05
0.0245364 0.00101451 1e-05
0.0246794 0.00101263 1e-05
0.0248234 0.00101073 1e-05
0.0249675 0.00100879 1e-05
0.0251115 0.00100682 1e-05
0.0252556 0.00100483 1e-05
[...]
POINT_DATA 12085
 FIELD attributes 1
U 3 12085 float
10.0004 	0.00734864 	0 10.0004 	0.00587891 	0 10.0003 	0.00440918 	0 10.0002 	0.00293946 	0 10.0001 	0.00146973 	0 10 	0 	0
10.0001 	0.000880286 	0 10 	0.000704229 	0 10 	0.000528172 	0 10 	0.000352114 	0 10 	0.000176057 	0 10 	0 	0
10.0001 	0.000469301 	0 10.0001 	0.000375251 	0 10.0001 	0.0002812 	0 10 	0.000187149 	0 10 	9.3098e-05 	0 10 	0 	0
10 	0.000269558 	0 10 	0.000215646 	0 10 	0.000161735 	0 10 	0.000107823 	0 10 	5.39115e-05 	0 10 	0 	0
10 	8.35538e-05 	0 10 	6.6843e-05 	0 10 	5.01323e-05 	0 10 	3.34215e-05 	0 10 	1.67108e-05 	0 10 	0 	0
10 	-2.35871e-05 	0 10 	-1.88696e-05 	0 10 	-1.41522e-05 	0 10 	-9.43482e-06 	0 10 	-4.71741e-06 	0 10 	0 	0
10 	-0.000214509 	0 10 	-0.000171608 	0 10 	-0.000128706 	0 10 	-8.58038e-05 	0 10 	-4.29019e-05 	0 10 	0 	0
10 	-0.000376727 	0 10 	-0.000301381 	0 10 	-0.000226036 	0 10 	-0.000150691 	0 10 	-7.53453e-05 	0 10 	0 	0
9.99999 	-0.000425955 	0 9.99999 	-0.000340764 	0 9.99999 	-0.000255573 	0 10 	-0.000170382 	0 10 	-8.5191e-05 	0 10 	0 	0
9.17387 	0.0871273 	0 9.1308 	0.0697018 	0 9.08741 	0.0522761 	0 9.04368 	0.0348501 	0 8.99963 	0.017424 	0 8.95524 	0 	0
10.0004 	0.00734864 	0 10.0024 	0.0152084 	0 10.0045 	0.0222317 	0 10.0065 	0.0292105 	0 10.0086 	0.0361452 	0 10.0135 	0.0463385 	0 10.0164 	0.0402213 	0 10.0208 	0.0401743 	0 10.0252 	0.0401275 	0 10.0297 	0.0400809 	0 10.0356 	0.0445416 	0 10.0385 	0.0379071 	0 10.0424 	0.0378666 	0 10.0464 	0.037826 	0 10.0504 	0.0377854 	0 10.0545 	0.0408881 	0 10.0566 	0.0388153 	0 10.0591 	0.0401282 	0 10.0615 	0.0414428 	0 10.0639 	0.042759 	0 10.0661 	0.0452189 	0 10.0676 	0.0453332 	0 10.0689 	0.0465367 	0 10.0702 	0.0477414 	0 10.0715 	0.0489472 	0 10.0726 	0.0499662 	0 10.0727 	0.0500325 	0 10.0728 	0.0500989 	0 10.0729 	0.0501652 	0 10.0729 	0.0502316 	0 10.073 	0.050288 	0 10.0735 	0.050921 	0 10.074 	0.0515477 	0 10.0745 	0.0521749 	0 10.075 	0.0528026 	0 10.0755 	0.0532658 	0 10.0754 	0.05357 	0 10.075 	0.0537685 	0 10.0746 	0.053967 	0 10.0742 	0.0541657 	0 10.0737 	0.0541257 	0 10.0732 	0.0542825 	0 10.0721 	0.0542705 	0 10.071 	0.0542586 	0 10.0699 	0.0542467 	0 10.0683 	0.0539658 	0 10.0679 	0.0540627 	0 10.0662 	0.0539455 	0 10.0646 	0.0538282 	0 10.0629 	0.0537109 	0 10.0603 	0.0533081 	0 10.0603 	0.0533858 	0 10.0582 	0.0532146 	0 10.0561 	0.0530434 	0 10.054 	0.0528721 	0 10.0504 	0.0524038 	0 10.051 	0.0524913 	0 10.0486 	0.0523052 	0 10.0462 	0.052119 	0 10.0439 	0.0519327 	0 10.0392 	0.0514434 	0 10.0406 	0.0515681 	0 10.0379 	0.051395 	0 10.0353 	0.0512219 	0 10.0327 	0.0510487 	0 10.0269 	0.050562 	0 10.0293 	0.0507415 	0 10.0265 	0.0506121 	0 10.0237 	0.0504827 	0 10.021 	0.0503532 	0 10.0139 	0.0499093 	0 10.0174 	0.050174 	0 10.0146 	0.0501084 	0 10.0117 	0.0500428 	0 10.0088 	0.0499772 	0 10.0005 	0.0495849 	0 10.0052 	0.0499693 	0 10.0023 	0.0500662 	0 9.99937 	0.0501631 	0 9.99645 	0.0502601 	0 9.98695 	0.0500634 	0 9.99307 	0.0506775 	0 9.99015 	0.0509468 	0 9.98724 	0.0512163 	0 9.98433 	0.0514858 	0 9.97358 	0.0513926 	0 9.98123 	0.0522493 	0 9.97855 	0.0530529 	0 9.97588 	0.0538567 	0 9.97322 	0.0546606 	0 9.96147 	0.055198 	0 9.97106 	0.0565576 	8.93839e-22 9.9696 	0.0576347 	6.52734e-21 9.96814 	0.0587119 	1.21596e-20 9.9667 	0.0597893 	1.77906e-20 9.95501 	0.0601883 	1.48002e-20 9.9665 	0.0610745 	1.07688e-19 9.96573 	0.0613174 	1.0035e-19 9.96496 	0.0615603 	9.30142e-20 9.96419 	0.0618032 	8.5682e-20 9.95241 	0.0613041 	-1.73709e-20 9.96418 	0.0610991 	-4.73146e-20 9.96344 	0.0604413 	-5.25115e-20 9.96269 	0.0597835 	-5.77046e-20 9.96195 	0.0591256 	-6.28937e-20 9.94998 	0.0581877 	-2.32945e-20 9.9613 	0.0574986 	-2.06599e-20 9.9599 	0.0563195 	-1.42535e-20 9.9585 	0.0551402 	-7.84817e-21 9.95708 	0.0539608 	-1.44383e-21 9.94457 	0.0526647 	8.5672e-21 9.9554 	0.0520641 	-4.97748e-21 9.95336 	0.0507964 	-2.56662e-20 9.95131 	0.0495284 	-4.63585e-20 9.94925 	0.0482602 	-6.70543e-20 9.93619 	0.0466779 	-9.72215e-20 9.94656 	0.0463258 	-1.43827e-19 9.94395 	0.0452014 	-1.30162e-19 9.94133 	0.0440767 	-1.16485e-19 9.93871 	0.0429517 	-1.02796e-19 9.92516 	0.0412658 	-3.26659e-20 9.93502 	0.0410464 	4.6742e-20 9.93186 	0.0400266 	6.18568e-20 9.92869 	0.0390065 	7.69573e-20 9.92551 	0.037986 	9.20435e-20 9.91157 	0.0362938 	4.04959e-20 9.92083 	0.0360524 	-6.63407e-20 9.91709 	0.0350556 	-7.32389e-20 9.91334 	0.0340585 	-8.01146e-20 9.90958 	0.033061 	-8.69676e-20 9.8953 	0.0314243 	-2.85251e-22 9.90382 	0.0311321 	8.2539e-20 9.89947 	0.0301542 	7.22476e-20 9.8951 	0.0291759 	6.19339e-20 9.89073 	0.0281973 	5.15978e-20 9.87617 	0.0266567 	-2.92173e-20 9.8838 	0.0263217 	-9.86995e-20 9.87881 	0.0253621 	-1.23469e-19 9.87382 	0.0244021 	-1.4823e-19 9.86882 	0.0234417 	-1.72983e-19 9.85412 	0.0219959 	-1.46932e-19 9.8606 	0.0216327 	-1.78534e-19 9.85499 	0.020694 	-1.64713e-19 9.84938 	0.019755 	-1.50884e-19 9.84375 	0.0188155 	-1.3705e-19 9.82912 	0.0174534 	-8.87587e-20 9.83415 	0.0170732 	-7.59879e-20 9.82794 	0.016161 	-5.54256e-20 9.82172 	0.0152484 	-3.4866e-20 9.81549 	0.0143354 	-1.43091e-20 9.80122 	0.0130517 	3.44011e-21 9.80441 	0.0126437 	0 9.79763 	0.0117566 	0 9.79083 	0.0108691 	0 9.78402 	0.00998107 	0 9.77053 	0.00878054 	0 9.77142 	0.0083182 	-1.63541e-20 9.76408 	0.007451 	-3.74051e-20 9.75673 	0.00658329 	-5.84586e-20 9.74936 	0.00571508 	-7.95146e-20 9.73712 	0.00461206 	-1.02612e-19 9.7352 	0.0040578 	-1.14026e-19 9.72733 	0.00320359 	-1.14705e-19 9.71945 	0.00234882 	-1.15377e-19 9.71156 	0.0014935 	-1.16041e-19 9.7011 	0.000510698 	-1.11217e-19 9.69652 	-0.000103514 	-7.3778e-20 9.68885 	-0.000877225 	-4.41423e-20 9.68116 	-0.00165145 	-1.45186e-20 9.67347 	-0.0024262 	1.5093e-20 9.66624 	-0.00315292 	4.28386e-20 9.66545 	-0.00323275 	4.58698e-20 9.66465 	-0.0033126 	4.89008e-20 9.66385 	-0.00339244 	5.19316e-20 9.66305 	-0.0034723 	5.49624e-20 9.66163 	-0.00358044 	5.86961e-20 9.65327 	-0.00439365 	5.98009e-20 9.64434 	-0.00523226 	6.09235e-20 9.63539 	-0.00607159 	6.20429e-20 9.62643 	-0.00691164 	6.31589e-20 9.61042 	-0.0080495 	6.54284e-20 9.60741 	-0.00862667 	5.18399e-20 9.59804 	-0.00946106 	3.82494e-20 9.58865 	-0.0102962 	2.46572e-20 9.57925 	-0.0111322 	1.10632e-20 9.55688 	-0.0124679 	-7.67106e-22 9.55878 	-0.0128747 	-1.04536e-20 9.549 	-0.0137104 	-2.34028e-20 9.53921 	-0.014547 	-3.63502e-20 9.52941 	-0.0153844 	-4.92958e-20 9.50138 	-0.0168522 	-6.22536e-20 9.50765 	-0.0171509 	-6.39917e-20 9.49752 	-0.0179901 	-7.19143e-20 9.48737 	-0.0188302 	-7.98321e-20 9.4772 	-0.0196712 	-8.77452e-20 9.4443 	-0.0212029 	-1.05999e-19 9.4543 	-0.0214575 	-1.53216e-19 9.44385 	-0.0223023 	-1.42766e-19 9.43337 	-0.023148 	-1.32335e-19 9.42288 	-0.0239947 	-1.21925e-19 9.38593 	-0.0255205 	-4.47332e-20 9.39904 	-0.0257986 	-2.945e-20 9.3883 	-0.0266508 	-2.08459e-20 9.37754 	-0.027504 	-1.22407e-20 9.36675 	-0.0283583 	-3.63419e-21 9.32661 	-0.0298085 	0 9.34218 	-0.0301729 	0 9.33119 	-0.0310328 	0 9.32018 	-0.0318937 	0 9.30915 	-0.0327557 	0 9.26661 	-0.0340642 	0 9.28405 	-0.0345707 	2.28239e-21 9.27284 	-0.0354378 	1.02174e-20 9.26161 	-0.036306 	1.81511e-20 9.25035 	-0.0371753 	2.60837e-20 9.20616 	-0.0382836 	4.49192e-20 9.22492 	-0.0389784 	1.6706e-19 9.21353 	-0.0398522 	1.70576e-19 9.20211 	-0.0407272 	1.74115e-19 9.19067 	-0.0416034 	1.77678e-19 9.14551 	-0.0424639 	4.51956e-20 9.16511 	-0.0433853 	2.45354e-20 9.15355 	-0.044266 	1.72504e-20 9.14198 	-0.0451479 	9.9639e-21 9.12976 	-0.0460256 	3.08389e-21 9.08484 	-0.0466068 	1.80785e-20 9.10288 	-0.0477655 	1.14208e-19 9.09318 	-0.0486716 	1.22306e-19 9.08147 	-0.0495608 	1.24112e-19 9.0657 	-0.050376 	1.11117e-19 9.02434 	-0.0507155 	4.25818e-21 9.0393 	-0.0520789 	-1.09128e-19 9.03266 	-0.053065 	-1.39931e-19 9.02085 	-0.053962 	-1.51065e-19 9.00226 	-0.054663 	-1.40256e-19 8.96417 	-0.0547962 	-6.61679e-20 8.97636 	-0.0563352 	-1.94833e-19 8.97223 	-0.057444 	-2.38356e-19 8.96034 	-0.0583494 	-2.41481e-19 8.93958 	-0.0588941 	-1.90285e-19 8.90449 	-0.058854 	-5.118e-20 8.91419 	-0.0605398 	-2.69441e-20 8.91209 	-0.0618059 	-1.16543e-20 8.90015 	-0.0627213 	-3.83477e-21 8.87779 	-0.0630795 	0 8.84543 	-0.0629009 	0 8.8529 	-0.0647146 	0 8.85243 	-0.0661673 	0 8.84046 	-0.0670944 	0 8.81699 	-0.0672408 	2.30071e-21 8.78708 	-0.0669487 	5.89289e-21 8.79259 	-0.0688636 	2.49252e-21 8.79339 	-0.0705184 	0 8.78141 	-0.0714546 	0 8.75725 	-0.071369 	2.7867e-21 8.72956 	-0.0709858 	6.38444e-21 8.73332 	-0.0729685 	2.98463e-21 8.73511 	-0.0748267 	8.51447e-22 8.72312 	-0.0757737 	7.83935e-21 8.69864 	-0.075461 	2.67882e-20 8.67295 	-0.0750263 	4.68928e-20 8.67517 	-0.0770804 	1.84129e-19 8.67733 	-0.0791367 	3.21368e-19 8.66513 	-0.0800554 	3.21968e-19 8.64122 	-0.0795823 	1.84798e-19 8.61733 	-0.079109 	4.76248e-20 8.61822 	-0.0812278 	2.78755e-20 8.61904 	-0.0833489 	8.12845e-21 8.60738 	-0.0842447 	6.77242e-22 8.58507 	-0.0837421 	4.12754e-21 8.56278 	-0.0832392 	7.57774e-21 8.56252 	-0.0854008 	4.33459e-21 8.56219 	-0.0875645 	1.09278e-21 8.55111 	-0.0884345 	4.11967e-22 8.53021 	-0.0879167 	-3.70205e-21 8.50931 	-0.0873985 	-7.8153e-21 8.50807 	-0.0895789 	-5.53704e-20 8.50676 	-0.0917614 	-1.02932e-19 8.49628 	-0.0926035 	-1.05211e-19 8.47661 	-0.0920893 	-6.18024e-20 8.45695 	-0.0915747 	-1.83916e-20 8.45486 	-0.0937494 	8.91954e-20 8.45269 	-0.0959262 	1.96774e-19 8.44283 	-0.0967461 	2.07214e-19 8.42426 	-0.0962695 	1.17347e-19 8.4057 	-0.0957926 	2.74774e-20 8.40286 	-0.0979631 	1.48528e-20 8.39995 	-0.100136 	2.22307e-21 8.39071 	-0.100941 	-3.34491e-21 8.37312 	-0.100513 	1.80014e-21 8.35553 	-0.100084 	6.94605e-21 8.35204 	-0.102248 	5.58332e-22 8.34848 	-0.104413 	-5.83706e-21 8.33984 	-0.105203 	-1.83387e-20 8.32315 	-0.104835 	-7.25253e-20 8.30644 	-0.104462 	-1.26873e-19 8.30237 	-0.106618 	-2.68479e-19 8.29762 	-0.10859 	-3.87775e-19 8.28894 	-0.109366 	-3.63556e-19 8.27432 	-0.10925 	-2.26094e-19 8.25839 	-0.108937 	-6.35983e-20 8.25381 	-0.111086 	7.13486e-20 8.24798 	-0.11283 	1.64398e-19 8.2394 	-0.113637 	1.61266e-19 8.22659 	-0.11377 	9.8018e-20 8.21137 	-0.11352 	5.44624e-22 8.20633 	-0.115665 	-9.60506e-20 8.19963 	-0.11719 	-1.511e-19 8.19116 	-0.118032 	-1.60439e-19 8.17992 	-0.11841 	-1.27746e-19 8.16533 	-0.118224 	-4.38354e-20 8.15988 	-0.120369 	-3.1991e-20 8.15252 	-0.121686 	-2.02746e-20 8.14412 	-0.122563 	-8.62675e-21 8.13425 	-0.123181 	5.76193e-21 8.12024 	-0.123059 	2.79872e-20 8.11442 	-0.125205 	4.00385e-21 8.10654 	-0.126324 	-5.16504e-21 8.09822 	-0.127238 	-1.1366e-20 8.08955 	-0.128092 	-1.61673e-20 8.07604 	-0.128038 	-1.00063e-23 8.06987 	-0.130167 	-1.82816e-20 8.06165 	-0.131121 	-2.50476e-20 8.0534 	-0.132074 	-3.18174e-20 8.0451 	-0.133029 	-3.85911e-20 8.03271 	-0.133174 	-5.94647e-20 8.02593 	-0.135092 	3.31489e-20 8.01776 	-0.136086 	3.47076e-20 8.00956 	-0.137081 	3.62413e-20 8.00132 	-0.138076 	3.775e-20 7.99019 	-0.138475 	-2.67228e-20 7.98295 	-0.140191 	3.29085e-20 7.97482 	-0.141228 	3.50301e-20 7.96666 	-0.142266 	3.71285e-20 7.95846 	-0.143305 	3.92037e-20 7.94843 	-0.143955 	4.52146e-21 7.94084 	-0.145481 	-2.79483e-22 7.93275 	-0.146565 	-2.05511e-22 7.92461 	-0.147648 	-1.31558e-22 7.91644 	-0.148733 	-5.76243e-23 7.90739 	-0.149628 	4.66741e-21 7.89964 	-0.15096 	0 7.89166 	-0.152077 	0 7.88364 	-0.153194 	0 7.87558 	-0.154312 	0 7.86798 	-0.15536 	0 7.86778 	-0.155387 	0 7.86758 	-0.155414 	0 7.86737 	-0.155441 	0 7.86717 	-0.155468 	0 7.86699 	-0.155489 	0 7.85868 	-0.156672 	0 7.85034 	-0.157851 	0 7.84194 	-0.159031 	0 7.83351 	-0.160211 	0 7.82614 	-0.16117 	0 7.81743 	-0.162596 	0 7.80908 	-0.163827 	0 7.80068 	-0.165059 	0 7.79223 	-0.166292 	0 7.78592 	-0.167095 	0 7.77681 	-0.168761 	0 7.76843 	-0.170048 	0 7.76 	-0.171335 	0 7.75153 	-0.172623 	0 7.74625 	-0.173279 	0 7.73673 	-0.17518 	0 7.72832 	-0.176525 	0 7.71986 	-0.177871 	0 7.71134 	-0.179217 	0 7.70706 	-0.179735 	0 7.69716 	-0.181857 	0 7.68867 	-0.183278 	-9.71007e-21 7.68016 	-0.184686 	-1.96182e-20 7.67236 	-0.185949 	-2.95305e-20 7.66829 	-0.186485 	-3.94791e-20 7.65837 	-0.188651 	-2.84956e-20 7.64943 	-0.190328 	-2.45121e-20 7.64087 	-0.191801 	-2.34388e-20 7.63409 	-0.192921 	-2.69759e-20 7.62987 	-0.193546 	-3.69794e-20 7.61993 	-0.195758 	-2.58951e-20 7.61053 	-0.197687 	-1.47871e-20 7.6019 	-0.199229 	-3.64955e-21 7.59613 	-0.200217 	0 7.59174 	-0.200935 	0 7.58178 	-0.203201 	0 7.57192 	-0.205381 	-6.27306e-22 7.5632 	-0.206997 	-5.40674e-21 7.5584 	-0.207861 	-1.02318e-20 7.55384 	-0.208672 	-1.50593e-20 7.54383 	-0.210995 	-5.01708e-20 7.53375 	-0.213318 	-8.52789e-20 7.52555 	-0.214956 	-1.00677e-19 7.52084 	-0.21586 	-8.37401e-20 7.51609 	-0.216763 	-6.67955e-20 7.50603 	-0.219142 	-4.0293e-20 7.49589 	-0.221521 	-1.37757e-20 7.48829 	-0.223217 	-1.22622e-20 7.48338 	-0.224222 	-3.673e-20 7.47843 	-0.225227 	-6.11986e-20 7.46831 	-0.227673 	-7.50378e-20 7.45809 	-0.230118 	-8.88735e-20 7.45107 	-0.231885 	-8.49653e-20 7.44594 	-0.232998 	-5.15549e-20 7.44077 	-0.234112 	-1.81456e-20 7.43056 	-0.236636 	-1.44444e-20 7.42049 	-0.239117 	-1.0418e-20 7.41396 	-0.240923 	-1.26999e-21 7.40842 	-0.242224 	0 7.403 	-0.243443 	0 7.39269 	-0.246047 	0 7.38365 	-0.248396 	0 7.37692 	-0.250296 	0 7.37072 	-0.251898 	0 7.36503 	-0.253221 	0 7.35461 	-0.255905 	0 7.34655 	-0.258124 	0 7.33961 	-0.260118 	0 7.33277 	-0.262025 	-2.69475e-21 7.32679 	-0.263456 	-2.00619e-20 7.31623 	-0.266223 	-9.56174e-23 7.30911 	-0.26832 	8.72584e-23 7.30194 	-0.270412 	1.7498e-22 7.2947 	-0.272504 	2.62746e-22 7.28819 	-0.274168 	3.37735e-21 7.27859 	-0.276808 	2.41714e-20 7.27125 	-0.279003 	2.15854e-20 7.26382 	-0.281197 	1.89784e-20 7.25633 	-0.28339 	1.63502e-20 7.24913 	-0.285374 	8.81133e-21 7.24065 	-0.287837 	6.3944e-21 7.23322 	-0.290084 	1.5499e-20 7.22571 	-0.29233 	2.46087e-20 7.21812 	-0.294576 	3.37235e-20 7.21109 	-0.296638 	4.20989e-20 7.21077 	-0.296728 	4.24107e-20 7.21044 	-0.296817 	4.27225e-20 7.21012 	-0.296907 	4.30343e-20 7.2098 	-0.296997 	4.33461e-20 7.20954 	-0.297078 	4.36616e-20 7.20138 	-0.299485 	4.21793e-20 7.19317 	-0.301882 	4.08228e-20 7.18488 	-0.30428 	3.94546e-20 7.1765 	-0.306677 	3.80744e-20 7.1697 	-0.308868 	3.68201e-20 7.16046 	-0.311576 	3.50723e-20 7.15193 	-0.314084 	3.32763e-20 7.14331 	-0.316591 	3.14681e-20 7.13461 	-0.319098 	2.96475e-20 7.1291 	-0.321206 	3.17169e-20 7.11875 	-0.324222 	2.6741e-20 7.10988 	-0.326845 	2.53091e-20 7.10091 	-0.329467 	2.38646e-20 7.09256 	-0.332004 	2.32336e-20 7.08761 	-0.334123 	2.66403e-20 7.07679 	-0.337286 	2.10681e-20 7.06688 	-0.340193 	1.32363e-20 7.05754 	-0.342931 	3.92851e-21 7.05049 	-0.345385 	-2.55966e-21 7.04511 	-0.34763 	-6.99014e-21 7.03395 	-0.350904 	-3.30495e-21 7.02284 	-0.354133 	0 7.01308 	-0.356985 	0 7.0073 	-0.359355 	0 7.00145 	-0.361725 	0 6.9899 	-0.365109 	0 6.97824 	-0.368491 	0 6.9691 	-0.371429 	-1.81096e-21 6.96283 	-0.373923 	-5.99161e-21 6.95646 	-0.376415 	-1.01761e-20 6.94449 	-0.379912 	-6.75528e-21 6.9324 	-0.383408 	-3.33865e-21 6.92371 	-0.386484 	-3.54671e-21 6.91689 	-0.389097 	-7.60106e-22 6.90997 	-0.391711 	2.01836e-21 6.89754 	-0.395318 	-3.32298e-20 6.88635 	-0.398765 	-5.52878e-20 6.87756 	-0.401916 	-5.28068e-20 6.86933 	-0.404878 	-3.34285e-20 6.86182 	-0.40761 	6.50575e-21 6.84891 	-0.411326 	-3.68217e-20 6.83903 	-0.414671 	-4.22263e-20 6.82969 	-0.417939 	-3.98457e-20 6.82022 	-0.421206 	-3.74432e-20 6.81186 	-0.424118 	-9.834e-21 6.79963 	-0.427796 	-1.11168e-20 6.7898 	-0.431173 	-3.99137e-21 6.77985 	-0.434548 	3.13358e-21 6.76978 	-0.437921 	1.02581e-20 6.75987 	-0.441205 	1.80275e-20 6.75602 	-0.44237 	1.69074e-20 6.75275 	-0.443462 	1.83587e-20 6.74947 	-0.444553 	1.98111e-20 6.74617 	-0.445645 	2.12647e-20 6.74297 	-0.446704 	2.26754e-20 6.73543 	-0.449079 	2.64834e-20 6.72784 	-0.451453 	3.03006e-20 6.72018 	-0.453827 	3.41273e-20 6.71246 	-0.456199 	3.79633e-20 6.70545 	-0.458426 	2.59559e-20 6.69387 	-0.462164 	2.52582e-20 6.68225 	-0.465707 	2.04738e-20 6.6705 	-0.469249 	1.56772e-20 6.65862 	-0.472789 	1.08684e-20 6.64847 	-0.475973 	6.47136e-21 6.63606 	-0.480001 	8.2664e-21 6.62363 	-0.483719 	5.69262e-21 6.6111 	-0.487344 	1.82179e-21 6.59946 	-0.490772 	3.66877e-21 6.5886 	-0.494026 	1.06034e-20 6.57542 	-0.498139 	5.34463e-21 6.56207 	-0.502249 	9.50436e-23 6.54896 	-0.505901 	4.48491e-21 6.53736 	-0.509217 	2.10923e-20 6.52562 	-0.512533 	3.77192e-20 6.5116 	-0.516704 	4.84429e-20 6.49742 	-0.520873 	5.91798e-20 6.48451 	-0.524684 	5.57263e-20 6.47198 	-0.52803 	4.33871e-20 6.45931 	-0.531376 	3.10412e-20 6.4444 	-0.535577 	4.25769e-20 6.43007 	-0.539618 	4.84402e-20 6.41667 	-0.543432 	4.61964e-20 6.40314 	-0.547131 	4.1375e-20 6.38949 	-0.550507 	2.91625e-20 6.3738 	-0.554701 	3.93493e-20 6.35957 	-0.558522 	3.74016e-20 6.34519 	-0.56234 	3.54369e-20 6.33066 	-0.566156 	3.34551e-20 6.31596 	-0.569829 	2.62724e-20 6.31078 	-0.571125 	2.54545e-20 6.30598 	-0.572329 	2.39482e-20 6.30116 	-0.573533 	2.24429e-20 6.29633 	-0.574737 	2.09384e-20 6.29163 	-0.575904 	1.94801e-20 6.28169 	-0.578518 	1.49681e-20 6.27168 	-0.58113 	1.04526e-20 6.2616 	-0.583742 	5.93329e-21 6.25145 	-0.586353 	1.41033e-21 6.24108 	-0.588776 	5.4092e-21 6.22672 	-0.592879 	-1.35654e-21 6.21125 	-0.596657 	-5.26527e-21 6.19563 	-0.600433 	-9.16661e-21 6.17979 	-0.604134 	-9.57026e-21 6.16349 	-0.607501 	6.11151e-21 6.14859 	-0.611727 	-6.02892e-20 6.13301 	-0.615778 	-1.0705e-19 6.1163 	-0.619486 	-1.15597e-19 6.09906 	-0.622805 	-5.03042e-20 6.08163 	-0.626086 	2.254e-20 6.06565 	-0.630227 	1.50891e-20 6.0495 	-0.634366 	7.67434e-21 6.03248 	-0.638073 	7.03198e-21 6.01402 	-0.641239 	1.7693e-20 5.9954 	-0.644407 	2.83771e-20 5.97829 	-0.648439 	2.10575e-20 5.96079 	-0.652262 	1.37398e-20 5.94284 	-0.65582 	6.41963e-21 5.92454 	-0.659307 	0 5.90469 	-0.662306 	0 5.88749 	-0.665839 	-3.96635e-22 5.86973 	-0.668987 	-2.49044e-21 5.85183 	-0.672135 	-4.58683e-21 5.83378 	-0.67528 	-6.68582e-21 5.81705 	-0.678171 	-8.61776e-21 5.81557 	-0.678443 	-8.7383e-21 5.81408 	-0.678715 	-8.85882e-21 5.8126 	-0.678987 	-8.97932e-21 5.81111 	-0.67926 	-9.0998e-21 5.80963 	-0.6795 	-9.22066e-21 5.79067 	-0.682758 	-3.46771e-21 5.77144 	-0.685959 	2.64476e-21 5.75205 	-0.689158 	8.75175e-21 5.7325 	-0.692357 	1.48532e-20 5.71282 	-0.695088 	2.99473e-20 5.69377 	-0.698661 	9.80281e-20 5.67372 	-0.7018 	1.30684e-19 5.65313 	-0.704739 	1.47191e-19 5.63242 	-0.707261 	1.03371e-19 5.61154 	-0.709618 	3.53219e-20 5.59132 	-0.712896 	-3.61708e-21 5.57091 	-0.716174 	-4.25502e-20 5.54994 	-0.718854 	-5.42054e-20 5.5281 	-0.720877 	-3.89586e-20 5.5061 	-0.722902 	-2.36886e-20 5.48474 	-0.725862 	-5.83756e-20 5.46326 	-0.728527 	-7.01606e-20 5.44168 	-0.730845 	-5.49478e-20 5.41995 	-0.733162 	-3.96627e-20 5.39682 	-0.734839 	-1.80804e-21 5.38128 	-0.736615 	-5.16548e-21 5.36579 	-0.737951 	-1.02424e-21 5.35023 	-0.739287 	3.13643e-21 5.33459 	-0.740623 	7.31669e-21 5.31968 	-0.74189 	1.13031e-20 5.31279 	-0.742534 	1.38262e-20 5.30589 	-0.743179 	1.63548e-20 5.29897 	-0.743824 	1.8889e-20 5.29203 	-0.744469 	2.14287e-20 5.28531 	-0.7449 	1.26255e-20 5.26342 	-0.746827 	8.88374e-21 5.24102 	-0.748439 	7.53984e-21 5.21848 	-0.750051 	6.18957e-21 5.19598 	-0.751504 	5.44054e-21 5.17402 	-0.752301 	7.18774e-21 5.1517 	-0.754151 	3.60935e-20 5.12915 	-0.755933 	6.26219e-20 5.10586 	-0.756966 	6.13354e-20 5.08329 	-0.757245 	2.47108e-20 5.06058 	-0.757525 	-1.19618e-20 5.0375 	-0.758876 	-3.46987e-20 5.01435 	-0.760154 	-5.49724e-20 4.99201 	-0.76061 	-4.71005e-20 4.96913 	-0.760681 	-3.1899e-20 4.94576 	-0.760441 	-1.07619e-20 4.92271 	-0.761238 	-3.32913e-21 4.9006 	-0.761152 	6.69392e-22 4.87839 	-0.761066 	4.6703e-21 4.85609 	-0.760979 	8.67363e-21 4.83483 	-0.760896 	1.24752e-20 4.83396 	-0.760898 	1.27961e-20 4.8331 	-0.7609 	1.3117e-20 4.83223 	-0.760902 	1.34379e-20 4.83137 	-0.760904 	1.37589e-20 4.83056 	-0.760869 	1.29525e-20 4.80848 	-0.760414 	8.58478e-21 4.78629 	-0.759916 	4.0543e-21 4.76401 	-0.759418 	-4.76704e-22 4.74164 	-0.75892 	-5.00825e-21 4.72065 	-0.757398 	-1.20449e-20 4.69879 	-0.757036 	-6.44869e-21 4.67665 	-0.756418 	-