# vtk DataFile Version 2.0
track0
ASCII
DATASET POLYDATA
POINTS 12085 float
-0.0205 0.001 1e-05
-0.02052 0.000999985 1e-05
-0.02054 0.000999974 1e-05
-0.02056 0.000999965 1e-05
-0.02058 0.000999959 1e-05
-0.0206 0.000999956 1e-05
-0.0205 0.00367778 1e-05
-0.02052 0.00367778 1e-05
-0.02054 0.00367777 1e-05
-0.02056 0.00367777 1e-05
-0.02058 0.00367777 1e-05
-0.0206 0.00367777 1e-05
-0.0205 0.00635556 1e-05
-0.02052 0.00635555 1e-05
-0.02054 0.00635555 1e-05
-0.02056 0.00635555 1e-05
-0.02058 0.00635555 1e-05
-0.0206 0.00635555 1e-05
-0.0205 0.00903333 1e-05
-0.02052 0.00903333 1e-05
-0.02054 0.00903333 1e-05
-0.02056 0.00903333 1e-05
-0.02058 0.00903333 1e-05
-0.0206 0.00903333 1e-05
-0.0205 0.0117111 1e-05
-0.02052 0.0117111 1e-05
-0.02054 0.0117111 1e-05
-0.02056 0.0117111 1e-05
-0.02058 0.0117111 1e-05
-0.0206 0.0117111 1e-05
-0.0205 0.0143889 1e-05
-0.02052 0.0143889 1e-05
-0.02054 0.0143889 1e-05
-0.02056 0.0143889 1e-05
-0.02058 0.0143889 1e-05
-0.0206 0.0143889 1e-05
-0.0205 0.0170667 1e-05
-0.02052 0.0170667 1e-05
-0.02054 0.0170667 1e-05
-0.02056 0.0170667 1e-05
-0.02058 0.0170667 1e-05
-0.0206 0.0170667 1e-05
-0.0205 0.0197444 1e-05
-0.02052 0.0197444 1e-05
-0.02054 0.0197444 1e-05
-0.02056 0.0197444 1e-05
-0.02058 0.0197444 1e-05
-0.0206 0.0197444 1e-05
-0.0205 0.0224222 1e-05
-0.02052 0.0224222 1e-05
-0.02054 0.0224222 1e-05
-0.02056 0.0224222 1e-05
-0.02058 0.0224222 1e-05
-0.0206 0.0224222 1e-05
-0.0205 0.0251 1e-05
-0.02052 0.0250998 1e-05
-0.02054 0.0250997 1e-05
-0.02056 0.0250995 1e-05
-0.02058 0.0250995 1e-05
-0.0206 0.0250994 1e-05
-0.0205 0.001 1e-05
-0.0202034 0.00100022 1e-05
-0.0199069 0.00100067 1e-05
-0.0196103 0.00100133 1e-05
-0.0193137 0.00100219 1e-05
-0.0190172 0.00100326 1e-05
-0.0187132 0.00100467 1e-05
-0.0184093 0.00100589 1e-05
-0.0181054 0.00100711 1e-05
-0.0178015 0.00100833 1e-05
-0.0174976 0.00100954 1e-05
-0.0172058 0.00101084 1e-05
-0.016914 0.00101194 1e-05
-0.0166222 0.00101304 1e-05
-0.0163305 0.00101414 1e-05
-0.0160387 0.00101523 1e-05
-0.0157586 0.00101637 1e-05
-0.0154784 0.00101745 1e-05
-0.0151983 0.00101857 1e-05
-0.0149182 0.00101973 1e-05
-0.0146381 0.00102092 1e-05
-0.0143753 0.0010221 1e-05
-0.0141126 0.00102328 1e-05
-0.0138498 0.00102449 1e-05
-0.013587 0.00102574 1e-05
-0.0133652 0.00102682 1e-05
-0.0133508 0.00102689 1e-05
-0.0133365 0.00102696 1e-05
-0.0133221 0.00102703 1e-05
-0.0133078 0.0010271 1e-05
-0.0132934 0.00102717 1e-05
-0.0130353 0.00102846 1e-05
-0.0127771 0.00102977 1e-05
-0.0125189 0.00103109 1e-05
-0.0122607 0.00103243 1e-05
-0.0120025 0.00103378 1e-05
-0.0117547 0.00103509 1e-05
-0.0115068 0.00103641 1e-05
-0.0112589 0.00103773 1e-05
-0.0110111 0.00103906 1e-05
-0.0107632 0.00104039 1e-05
-0.0105252 0.00104167 1e-05
-0.0102873 0.00104295 1e-05
-0.0100493 0.00104423 1e-05
-0.00981133 0.00104552 1e-05
-0.00957337 0.0010468 1e-05
-0.00934491 0.00104802 1e-05
-0.00911645 0.00104925 1e-05
-0.00888799 0.00105047 1e-05
-0.00865954 0.0010517 1e-05
-0.00843108 0.00105291 1e-05
-0.00821175 0.00105408 1e-05
-0.00799242 0.00105524 1e-05
-0.00777309 0.0010564 1e-05
-0.00755376 0.00105756 1e-05
-0.00733443 0.00105871 1e-05
-0.00712387 0.00105981 1e-05
-0.0069133 0.00106091 1e-05
-0.00670273 0.00106201 1e-05
-0.00649216 0.0010631 1e-05
-0.0062816 0.00106419 1e-05
-0.00607944 0.00106522 1e-05
-0.00587729 0.00106626 1e-05
-0.00567514 0.0010673 1e-05
-0.00547298 0.00106833 1e-05
-0.00527083 0.00106936 1e-05
-0.00507675 0.00107033 1e-05
-0.00488267 0.00107132 1e-05
-0.0046886 0.0010723 1e-05
-0.00449452 0.00107327 1e-05
-0.00430044 0.00107425 1e-05
-0.00411412 0.00107518 1e-05
-0.0039278 0.00107611 1e-05
-0.00374147 0.00107704 1e-05
-0.00355515 0.00107797 1e-05
-0.00336883 0.0010789 1e-05
-0.00318995 0.00107979 1e-05
-0.00301107 0.00108069 1e-05
-0.00283219 0.00108158 1e-05
-0.00265331 0.00108248 1e-05
-0.00247443 0.00108338 1e-05
-0.0023027 0.00108424 1e-05
-0.00213097 0.00108511 1e-05
-0.00195924 0.00108598 1e-05
-0.0017875 0.00108687 1e-05
-0.00161577 0.00108775 1e-05
-0.0014509 0.0010886 1e-05
-0.00128603 0.00108946 1e-05
-0.00112116 0.00109034 1e-05
-0.00095629 0.00109123 1e-05
-0.000791418 0.00109213 1e-05
-0.000633135 0.00109301 1e-05
-0.000474851 0.00109391 1e-05
-0.000316568 0.00109482 1e-05
-0.000158284 0.00109576 1e-05
0 0.00109671 1e-05
0.000105677 0.00109734 1e-05
0.000211355 0.00109799 1e-05
0.000317032 0.00109864 1e-05
0.00042271 0.0010993 1e-05
0.000528387 0.00109995 1e-05
0.000634886 0.00110061 1e-05
0.000741385 0.00110126 1e-05
0.000847885 0.00110191 1e-05
0.000954384 0.00110254 1e-05
0.00106088 0.00110318 1e-05
0.00116821 0.0011038 1e-05
0.00127554 0.00110442 1e-05
0.00138286 0.00110503 1e-05
0.00149019 0.00110563 1e-05
0.00159752 0.00110621 1e-05
0.00170568 0.00110678 1e-05
0.00181384 0.00110735 1e-05
0.001922 0.0011079 1e-05
0.00203016 0.00110844 1e-05
0.00213833 0.00110896 1e-05
0.00224733 0.00110947 1e-05
0.00235633 0.00110998 1e-05
0.00246533 0.00111048 1e-05
0.00257434 0.00111096 1e-05
0.00268334 0.00111143 1e-05
0.00279319 0.00111189 1e-05
0.00290304 0.00111234 1e-05
0.00301289 0.00111278 1e-05
0.00312274 0.00111321 1e-05
0.00323259 0.00111364 1e-05
0.00334329 0.00111404 1e-05
0.003454 0.00111444 1e-05
0.0035647 0.00111483 1e-05
0.0036754 0.00111521 1e-05
0.00378611 0.00111558 1e-05
0.00389767 0.00111594 1e-05
0.00400924 0.00111629 1e-05
0.0041208 0.00111663 1e-05
0.00423237 0.00111696 1e-05
0.00434393 0.00111728 1e-05
0.00445636 0.00111758 1e-05
0.00456879 0.00111788 1e-05
0.00468123 0.00111817 1e-05
0.00479366 0.00111845 1e-05
0.00490609 0.00111871 1e-05
0.0050194 0.00111897 1e-05
0.0051327 0.00111921 1e-05
0.00524601 0.00111945 1e-05
0.00535932 0.00111968 1e-05
0.00547262 0.0011199 1e-05
0.00558681 0.0011201 1e-05
0.005701 0.0011203 1e-05
0.00581518 0.00112048 1e-05
0.00592937 0.00112066 1e-05
0.00604356 0.00112083 1e-05
0.00615863 0.00112098 1e-05
0.00627371 0.00112113 1e-05
0.00638878 0.00112127 1e-05
0.00650386 0.0011214 1e-05
0.00661893 0.00112151 1e-05
0.0067349 0.00112162 1e-05
0.00685087 0.00112172 1e-05
0.00696684 0.0011218 1e-05
0.00708281 0.00112188 1e-05
0.00719878 0.00112195 1e-05
0.00731565 0.00112201 1e-05
0.00743252 0.00112205 1e-05
0.00754939 0.00112209 1e-05
0.00766626 0.00112212 1e-05
0.00778313 0.00112214 1e-05
0.00789121 0.00112215 1e-05
0.00799929 0.00112214 1e-05
0.00810737 0.00112213 1e-05
0.00821545 0.00112212 1e-05
0.00831675 0.00112209 1e-05
0.00832781 0.00112209 1e-05
0.00833887 0.00112208 1e-05
0.00834992 0.00112208 1e-05
0.00836098 0.00112208 1e-05
0.00837203 0.00112207 1e-05
0.00849073 0.00112203 1e-05
0.00860942 0.00112197 1e-05
0.00872812 0.00112191 1e-05
0.00884682 0.00112183 1e-05
0.00896551 0.00112175 1e-05
0.00908513 0.00112165 1e-05
0.00920475 0.00112154 1e-05
0.00932437 0.00112142 1e-05
0.00944398 0.0011213 1e-05
0.0095636 0.00112116 1e-05
0.00968415 0.001121 1e-05
0.0098047 0.00112084 1e-05
0.00992525 0.00112066 1e-05
0.0100458 0.00112048 1e-05
0.0101663 0.00112028 1e-05
0.0102878 0.00112007 1e-05
0.0104093 0.00111985 1e-05
0.0105308 0.00111962 1e-05
0.0106523 0.00111938 1e-05
0.0107738 0.00111913 1e-05
0.0108962 0.00111885 1e-05
0.0110186 0.00111857 1e-05
0.0111411 0.00111829 1e-05
0.0112635 0.00111798 1e-05
0.0113859 0.00111767 1e-05
0.0115093 0.00111734 1e-05
0.0116327 0.001117 1e-05
0.0117561 0.00111665 1e-05
0.0118795 0.00111629 1e-05
0.0120028 0.00111591 1e-05
0.0121272 0.00111552 1e-05
0.0122515 0.00111511 1e-05
0.0123759 0.0011147 1e-05
0.0125002 0.00111428 1e-05
0.0126245 0.00111384 1e-05
0.0127498 0.00111338 1e-05
0.0128752 0.00111291 1e-05
0.0130005 0.00111243 1e-05
0.0131258 0.00111194 1e-05
0.0132511 0.00111144 1e-05
0.0133774 0.00111091 1e-05
0.0135036 0.00111038 1e-05
0.0136299 0.00110983 1e-05
0.0137562 0.00110927 1e-05
0.0138825 0.0011087 1e-05
0.0140098 0.00110811 1e-05
0.014137 0.00110751 1e-05
0.0142643 0.00110689 1e-05
0.0143915 0.00110626 1e-05
0.0145188 0.00110562 1e-05
0.0146471 0.00110496 1e-05
0.0147753 0.00110429 1e-05
0.0149036 0.0011036 1e-05
0.0150318 0.0011029 1e-05
0.0151601 0.00110219 1e-05
0.0152893 0.00110147 1e-05
0.0154186 0.00110072 1e-05
0.0155478 0.00109996 1e-05
0.0156771 0.00109919 1e-05
0.0158063 0.0010984 1e-05
0.0159366 0.00109761 1e-05
0.0160668 0.00109679 1e-05
0.0161971 0.00109596 1e-05
0.0163273 0.00109511 1e-05
0.0164576 0.00109425 1e-05
0.0165889 0.00109338 1e-05
0.0167201 0.00109249 1e-05
0.0168514 0.00109158 1e-05
0.0169827 0.00109066 1e-05
0.0171139 0.00108972 1e-05
0.0172462 0.00108878 1e-05
0.0173785 0.00108781 1e-05
0.0175108 0.00108683 1e-05
0.0176431 0.00108582 1e-05
0.0177754 0.00108481 1e-05
0.0179087 0.0010838 1e-05
0.018042 0.00108275 1e-05
0.0181753 0.00108168 1e-05
0.0183087 0.0010806 1e-05
0.018442 0.00107951 1e-05
0.0185763 0.00107842 1e-05
0.0187107 0.0010773 1e-05
0.018845 0.00107615 1e-05
0.0189794 0.00107498 1e-05
0.0191137 0.00107381 1e-05
0.0192491 0.00107264 1e-05
0.0193845 0.00107144 1e-05
0.0195199 0.00107021 1e-05
0.0196553 0.00106895 1e-05
0.0197907 0.00106771 1e-05
0.0199272 0.00106645 1e-05
0.0200636 0.00106517 1e-05
0.0202001 0.00106385 1e-05
0.0203365 0.00106251 1e-05
0.020473 0.00106118 1e-05
0.0206105 0.00105985 1e-05
0.020748 0.00105847 1e-05
0.0208855 0.00105707 1e-05
0.021023 0.00105565 1e-05
0.0211606 0.00105423 1e-05
0.0212991 0.00105281 1e-05
0.0214377 0.00105135 1e-05
0.0215763 0.00104985 1e-05
0.0217149 0.00104834 1e-05
0.0218535 0.00104684 1e-05
0.0219931 0.00104532 1e-05
0.0221328 0.00104377 1e-05
0.0222724 0.00104219 1e-05
0.0224121 0.00104059 1e-05
0.0225517 0.00103899 1e-05
0.0226925 0.00103739 1e-05
0.0228332 0.00103575 1e-05
0.022974 0.00103407 1e-05
0.0231147 0.00103238 1e-05
0.0232555 0.00103069 1e-05
0.0233973 0.00102899 1e-05
0.0235391 0.00102725 1e-05
0.023681 0.00102548 1e-05
0.0238228 0.00102369 1e-05
0.0239647 0.0010219 1e-05
0.0241076 0.00102011 1e-05
0.0242505 0.00101827 1e-05
0.0243935 0.0010164 1e-05
0.0245364 0.00101451 1e-05
0.0246794 0.00101263 1e-05
0.0248234 0.00101073 1e-05
0.0249675 0.00100879 1e-05
0.0251115 0.00100682 1e-05
0.0252556 0.00100483 1e-05
[...]
POINT_DATA 12085
 FIELD attributes 2
p 1 12085 float
-5.59837 -5.59506 -5.59175 -5.58844 -5.58513 -5.58183
-5.75173 -5.75171 -5.75169 -5.75167 -5.75165 -5.75162
-5.92627 -5.92615 -5.92602 -5.9259 -5.92578 -5.92567
-6.02017 -6.02012 -6.02006 -6.02001 -6.01996 -6.0199
-6.06585 -6.06573 -6.06562 -6.06551 -6.0654 -6.06528
-6.0729 -6.07274 -6.07258 -6.07242 -6.07226 -6.0721
-6.04639 -6.04632 -6.04624 -6.04617 -6.0461 -6.04603
-5.97709 -5.97705 -5.97701 -5.97697 -5.97693 -5.97689
-5.85601 -5.85602 -5.85603 -5.85603 -5.85604 -5.85605
-3.64357 -3.66289 -3.68209 -3.70115 -3.72008 -3.73887
-5.59837 -5.59768 -5.5941 -5.59045 -5.58671 -5.57842 -5.5923 -5.60729 -5.62227 -5.63726 -5.66168 -5.6834 -5.71328 -5.74315 -5.77303 -5.80571 -5.82128 -5.84289 -5.8645 -5.88611 -5.90933 -5.92804 -5.94875 -5.96946 -5.99018 -6.00767 -6.0088 -6.00993 -6.01106 -6.01219 -6.01331 -6.03479 -6.05627 -6.07775 -6.09923 -6.12043 -6.13895 -6.15729 -6.17562 -6.19395 -6.2117 -6.22702 -6.24206 -6.25709 -6.27213 -6.2866 -6.29998 -6.3131 -6.32622 -6.33934 -6.352 -6.36421 -6.37612 -6.38803 -6.39995 -6.41142 -6.42255 -6.43334 -6.44413 -6.45492 -6.46526 -6.47536 -6.4851 -6.49484 -6.50459 -6.51394 -6.52313 -6.53191 -6.54069 -6.54947 -6.55789 -6.56621 -6.57414 -6.58207 -6.58999 -6.59775 -6.60533 -6.61226 -6.61919 -6.62612 -6.63294 -6.63999 -6.64698 -6.65397 -6.66096 -6.66879 -6.67711 -6.68459 -6.69207 -6.69954 -6.70785 -6.71882 -6.73328 -6.74775 -6.76221 -6.77974 -6.79816 -6.82164 -6.84512 -6.86861 -6.89187 -6.9133 -6.93554 -6.95778 -6.98002 -6.99947 -7.01393 -7.0278 -7.04168 -7.05555 -7.06892 -7.07959 -7.08945 -7.0993 -7.10916 -7.11882 -7.12865 -7.13697 -7.14529 -7.15361 -7.16064 -7.16919 -7.17615 -7.18311 -7.19006 -7.19543 -7.20219 -7.20757 -7.21296 -7.21835 -7.22249 -7.22741 -7.2313 -7.23519 -7.23908 -7.24222 -7.24585 -7.24874 -7.25163 -7.25452 -7.25702 -7.25988 -7.26218 -7.26448 -7.26679 -7.26886 -7.27129 -7.27328 -7.27528 -7.27727 -7.2791 -7.28129 -7.28313 -7.28498 -7.28683 -7.28853 -7.29056 -7.29233 -7.2941 -7.29587 -7.29754 -7.29946 -7.30121 -7.30297 -7.30472 -7.30643 -7.30819 -7.30988 -7.31157 -7.31326 -7.31484 -7.31502 -7.31519 -7.31536 -7.31554 -7.31573 -7.31778 -7.31985 -7.32192 -7.32399 -7.32642 -7.32842 -7.33078 -7.33315 -7.33551 -7.33862 -7.34051 -7.3431 -7.34569 -7.34828 -7.35198 -7.35373 -7.3565 -7.35927 -7.36204 -7.36628 -7.36792 -7.37089 -7.37387 -7.37684 -7.38162 -7.38323 -7.38645 -7.38966 -7.39288 -7.39817 -7.39982 -7.40328 -7.40673 -7.41019 -7.41592 -7.41765 -7.42133 -7.425 -7.42868 -7.43475 -7.43662 -7.44049 -7.44437 -7.44826 -7.45458 -7.45664 -7.46071 -7.46479 -7.46891 -7.47538 -7.4778 -7.48195 -7.48622 -7.49077 -7.49711 -7.50001 -7.50416 -7.50861 -7.51352 -7.51973 -7.52307 -7.52728 -7.5319 -7.53709 -7.54319 -7.54692 -7.55122 -7.55599 -7.56139 -7.56739 -7.57148 -7.57591 -7.58082 -7.58637 -7.59229 -7.59669 -7.60127 -7.60631 -7.61197 -7.61782 -7.6225 -7.62724 -7.63241 -7.63812 -7.64389 -7.64882 -7.65375 -7.65903 -7.66471 -7.67038 -7.67552 -7.68065 -7.68597 -7.69146 -7.69696 -7.70217 -7.70738 -7.71265 -7.71796 -7.72327 -7.72848 -7.73369 -7.73892 -7.74416 -7.7494 -7.75466 -7.75991 -7.76516 -7.77038 -7.7756 -7.78088 -7.78616 -7.79142 -7.79661 -7.80179 -7.80705 -7.81231 -7.81755 -7.82268 -7.8278 -7.833 -7.8382 -7.84338 -7.84845 -7.8535 -7.85861 -7.86373 -7.86881 -7.87382 -7.87878 -7.88381 -7.88881 -7.8938 -7.89873 -7.90359 -7.9085 -7.91338 -7.91825 -7.92309 -7.92782 -7.93261 -7.93735 -7.94209 -7.94682 -7.9514 -7.95605 -7.96064 -7.96522 -7.96981 -7.97424 -7.97873 -7.98315 -7.98756 -7.99198 -7.99627 -8.00056 -8.00479 -8.00903 -8.01326 -8.0174 -8.02149 -8.02552 -8.02956 -8.0336 -8.03759 -8.04138 -8.04514 -8.04891 -8.05268 -8.05621 -8.0563 -8.05639 -8.05648 -8.05658 -8.05667 -8.06024 -8.06381 -8.06739 -8.07097 -8.07452 -8.07789 -8.0812 -8.0845 -8.08781 -8.09105 -8.09422 -8.09723 -8.10025 -8.10327 -8.10615 -8.10911 -8.1118 -8.11449 -8.11719 -8.11968 -8.12241 -8.12476 -8.1271 -8.1294 -8.13149 -8.13388 -8.13595 -8.13789 -8.13971 -8.14136 -8.14336 -8.14516 -8.14669 -8.14801 -8.14923 -8.15085 -8.15241 -8.15352 -8.15429 -8.15503 -8.15623 -8.15745 -8.15807 -8.15824 -8.15841 -8.1591 -8.15979 -8.1599 -8.15943 -8.15896 -8.15905 -8.15914 -8.1587 -8.15757 -8.15645 -8.15591 -8.15534 -8.15426 -8.15255 -8.15074 -8.14953 -8.14811 -8.14632 -8.14413 -8.14157 -8.13964 -8.13727 -8.1347 -8.132 -8.12859 -8.12586 -8.1224 -8.11895 -8.1155 -8.11134 -8.10745 -8.10302 -8.0986 -8.09419 -8.0894 -8.08433 -8.07898 -8.07364 -8.0683 -8.06341 -8.0632 -8.06299 -8.06278 -8.06257 -8.06235 -8.05586 -8.04936 -8.04287 -8.03639 -8.02955 -8.0223 -8.01455 -8.00681 -7.99908 -7.99056 -7.98254 -7.97343 -7.96432 -7.95504 -7.94483 -7.93552 -7.92545 -7.91489 -7.90363 -7.89187 -7.88107 -7.87014 -7.85803 -7.84462 -7.83121 -7.81882 -7.80645 -7.79262 -7.77735 -7.76209 -7.74794 -7.73381 -7.71826 -7.70102 -7.68379 -7.66777 -7.65117 -7.63349 -7.61509 -7.59581 -7.5778 -7.5583 -7.53851 -7.51873 -7.49753 -7.47675 -7.45468 -7.43262 -7.41059 -7.38819 -7.38082 -7.37311 -7.3654 -7.3577 -7.35023 -7.33365 -7.31709 -7.30054 -7.28399 -7.26683 -7.24095 -7.21433 -7.18774 -7.16117 -7.13299 -7.10538 -7.07659 -7.04746 -7.01741 -6.98652 -6.95633 -6.92617 -6.89424 -6.8607 -6.82717 -6.79435 -6.76155 -6.72706 -6.69075 -6.65444 -6.61885 -6.58245 -6.54487 -6.50688 -6.46766 -6.42899 -6.38854 -6.34811 -6.30771 -6.26682 -6.25354 -6.23981 -6.22608 -6.21236 -6.19904 -6.16963 -6.14023 -6.11084 -6.08147 -6.05133 -6.00633 -5.96053 -5.91476 -5.86873 -5.82138 -5.774 -5.72623 -5.67767 -5.62772 -5.57762 -5.52741 -5.47725 -5.42591 -5.37335 -5.32076 -5.26795 -5.21466 -5.16075 -5.10678 -5.05205 -5.0003 -4.9478 -4.89534 -4.84291 -4.79474 -4.7903 -4.78586 -4.78143 -4.77699 -4.77249 -4.71465 -4.6568 -4.59898 -4.54121 -4.48268 -4.42352 -4.3641 -4.30459 -4.24473 -4.18468 -4.12393 -4.06323 -4.00229 -3.94109 -3.87986 -3.81775 -3.75573 -3.69379 -3.63189 -3.56994 -3.52643 -3.48332 -3.44024 -3.39717 -3.35632 -3.33657 -3.31682 -3.29707 -3.27733 -3.25774 -3.19497 -3.13246 -3.06998 -3.00772 -2.94615 -2.88334 -2.82064 -2.75878 -2.69798 -2.63713 -2.57492 -2.51286 -2.45217 -2.392 -2.33217 -2.27267 -2.21482 -2.157 -2.09921 -2.04441 -2.04207 -2.03973 -2.03738 -2.03504 -2.03276 -1.97397 -1.91528 -1.85662 -1.79798 -1.74119 -1.68309 -1.62548 -1.56871 -1.51405 -1.45941 -1.40343 -1.34748 -1.29379 -1.24126 -1.18909 -1.13556 -1.08434 -1.03324 -0.982143 -0.931138 -0.929101 -0.927162 -0.925224 -0.923285 -0.921347 -0.873878 -0.826411 -0.778947 -0.731484 -0.68597 -0.637664 -0.590137 -0.543422 -0.498596 -0.453983 -0.408434 -0.362881 -0.319102 -0.277123 -0.235276 -0.192536 -0.151424 -0.110648 -0.0698491 -0.0296755 -0.0202713 -0.0112906 -0.00230836 0.00667548 0.0157328 0.0455119 0.0753056 0.105114 0.134938 0.16371 0.20163 0.238084 0.274445 0.310012 0.344991 0.380325 0.41569 0.449587 0.482107 0.514628 0.547466 0.579959 0.611713 0.643102 0.673263 0.703252 0.732435 0.76166 0.790925 0.821561 0.821748 0.82193 0.822112 0.822294 0.822476 0.850224 0.878007 0.905826 0.93368 0.961039 0.988358 1.01439 1.04033 1.06605 1.09151 1.11688 1.14228 1.16639 1.19008 1.21377 1.23735 1.26097 1.28439 1.30655 1.32862 1.35058 1.37248 1.39434 1.41617 1.43676 1.45721 1.47765 1.49811 1.51859 1.53879 1.54451 1.55023 1.55595 1.56167 1.56762 1.5812 1.59478 1.60838 1.62199 1.63564 1.65438 1.67262 1.69088 1.70916 1.72759 1.74578 1.76313 1.78036 1.79769 1.81516 1.83238 1.8494 1.86574 1.88237 1.89904 1.91548 1.93192 1.94794 1.96394 1.97994 1.99573 2.01151 2.02756 2.04309 2.05861 2.07394 2.08937 2.10522 2.12063 2.13582 2.15082 2.16618 2.18178 2.19728 2.21233 2.22721 2.24272 2.25825 2.27377 2.28894 2.30409 2.31971 2.33533 2.35095 2.36644 2.37877 2.39132 2.40386 2.41641 2.42935 2.4326 2.43585 2.43909 2.44234 2.44564 2.46193 2.4782 2.49447 2.51074 2.52733 2.54423 2.56107 2.57791 2.59476 2.6122 2.62981 2.64738 2.66495 2.68259 2.70101 2.71943 2.73786 2.75631 2.77514 2.79448 2.81384 2.83323 2.8527 2.87292 2.89333 2.91378 2.93423 2.95503 2.97665 2.99828 3.01997 3.04167 3.06406 3.08705 3.11006 3.13314 3.15623 3.18035 3.20482 3.22933 3.25393 3.279 3.3047 3.33056 3.3567 3.38295 3.41019 3.43756 3.46494 3.49272 3.52114 3.55028 3.57943 3.6086 3.63787 3.644 3.65026 3.65653 3.66279 3.66888 3.69348 3.71808 3.7427 3.76732 3.79245 3.82481 3.85751 3.89023 3.92295 3.95689 3.99093 4.02543 4.06014 4.09556 4.13152 4.16759 4.20366 4.2406 4.27855 4.31657 4.3547 4.39285 4.43209 4.47207 4.51218 4.5524 4.59338 4.63481 4.67626 4.71841 4.75243 4.78719 4.82196 4.85675 4.88813 4.89751 4.90688 4.91626 4.92564 4.93523 4.98024 5.02544 5.07066 5.11589 5.16244 5.20896 5.25587 5.30313 5.35141 5.40001 5.44855 5.49711 5.54663 5.59708 5.64765 5.69817 5.74944 5.80111 5.8528 5.90503 5.92454 5.94444 5.96435 5.98426 6.00344 6.03701 6.07058 6.10417 6.13778 6.17211 6.22646 6.28134 6.33631 6.39202 6.44818 6.50423 6.5603 6.61717 6.67471 6.73245 6.78453 6.83727 6.89014 6.94302 6.99227 6.99866 7.00504 7.01143 7.01784 7.02431 7.0838 7.1434 7.20301 7.26287 7.32336 7.38382 7.4443 7.50528 7.56678 7.62844 7.68517 7.74226 7.79949 7.85673 7.91131 7.91678 7.92226 7.92773 7.93322 7.93874 8.00155 8.06443 8.12731 8.19035 8.2537 8.31712 8.38055 8.44416 8.50805 8.57204 8.61428 8.65659 8.69892 8.74125 8.78296 8.80493 8.8269 8.84887 8.87085 8.89286 8.95724 9.02173 9.08624 9.15074 9.21525 9.27985 9.34442 9.40887 9.47333 9.53786 9.55533 9.57275 9.59015 9.60755 9.62499 9.67203 9.71907 9.76611 9.81306 9.85986 9.92411 9.98835 10.0524 10.1162 10.1799 10.2345 10.2888 10.3429 10.397 10.4528 10.4616 10.4704 10.4793 10.4881 10.4968 10.5597 10.6225 10.6854 10.7478 10.8099 10.8719 10.9339 10.9952 11.0564 11.1174 11.1498 11.1819 11.2138 11.2458 11.2789 11.307 11.335 11.363 11.3909 11.4185 11.4779 11.5371 11.5962 11.6545 11.7125 11.7703 11.828 11.8848 11.9415 11.9979 12.022 12.0458 12.0695 12.0932 12.1179 12.1494 12.1808 12.2122 12.2435 12.2744 12.3285 12.3823 12.436 12.4888 12.5413 12.5934 12.6455 12.6965 12.7473 12.7977 12.8355 12.8725 12.9095 12.9464 12.9874 12.9987 13.01 13.0213 13.0326 13.0436 13.0913 13.1387 13.1861 13.2332 13.2794 13.3253 13.371 13.4161 13.4606 13.5048 13.5487 13.5923 13.6351 13.6774 13.7191 13.7604 13.8019 13.8434 13.8848 13.926 13.9317 13.9367 13.9417 13.9467 13.952 13.9832 14.0143 14.0454 14.0764 14.1043 14.1356 14.1717 14.2078 14.2461 14.292 14.3375 14.3821 14.4093 14.4177 14.4259 14.4322 14.4389 14.4465 14.4543 14.4632 14.4683 14.4742 14.48 14.4858 14.4926 14.495 14.4973 14.4996 14.5019 14.505 14.5124 14.5187 14.5249 14.5303 14.5335 14.5342 14.5345 14.5319 14.526 14.52 14.5111 14.5022 14.4907 14.4777 14.4643 14.448 14.4297 14.4106 14.3914 14.3708 14.3537 14.335 14.3162 14.2974 14.2747 14.2673 14.2598 14.2524 14.2449 14.2369 14.2024 14.1671 14.1317 14.0962 14.0576 14.0149 13.97 13.9245 13.8773 13.8281 13.7752 13.7221 13.6657 13.6054 13.545 13.4808 13.4165 13.3485 13.2771 13.2055 13.1299 13.0537 12.9733 12.8901 12.8059 12.7174 12.6258 12.5322 12.4378 12.3401 12.2376 12.1299 12.0222 11.9145 11.8039 11.6844 11.5617 11.439 11.3164 11.1926 11.1218 11.0498 10.9777 10.9057 10.8205 10.7563 10.692 10.6278 10.5635 10.4982 10.3431 10.1868 10.0306 9.87426 9.71463 9.54205 9.36457 9.18704 9.00946 8.8242 8.62992 8.43144 8.23292 8.03417 7.83025 7.61961 7.39197 7.16091 6.92345 6.67061 6.40931 6.15485 5.90559 5.66278 5.42591 5.18099 4.9108 4.58772 4.20117 3.79489 3.37419 2.96511 2.6848 2.53691 2.39611 2.25023 2.10452 1.62025 0.809546 0