/*--------------------------------*- C++ -*----------------------------------*\
  =========                 |
  \\      /  F ield         | OpenFOAM: The Open Source CFD Toolbox
   \\    /   O peration     | Website:  https://openfoam.org
    \\  /    A nd           | Version:  8
     \\/     M anipulation  |
\*---------------------------------------------------------------------------*/
FoamFile
{
    version     2.0;
    format      ascii;
    class       volScalarField;
    location    "115";
    object      epsilon;
}
// * * * * * * * * * * * * * * * * * * * * * * * * * * * * * * * * * * * * * //

dimensions      [0 2 -3 0 0 0 0];

internalField   nonuniform List<scalar> 
12225
(
285.515
270.706
257.907
243.822
232.439
223.116
216.766
212.715
212.747
213.97
217.256
220.899
228.219
232.725
241.79
245.967
257.965
264.659
52.4869
91.9014
106.952
114.782
124.816
136.841
152.666
169.985
191.161
211.047
235.432
255.665
281.586
299.684
325.985
340.124
367.88
376.645
20.3189
34.8672
44.6625
50.4866
55.3789
59.6339
64.6429
69.6794
76.308
83.2453
91.4629
99.4426
108.259
117.233
125.753
136.033
143.207
155.912
15.3459
19.7018
24.1059
27.5767
30.4891
32.8809
35.1465
37.3082
39.4951
41.9408
44.3369
47.2456
49.7003
53.1278
55.4893
59.4184
61.7166
66.192
14.65
15.8629
17.3647
19.0777
20.6346
22.0306
23.2424
24.4372
25.4412
26.6035
27.5236
28.7733
29.6408
31.014
31.8454
33.324
34.1753
35.8093
14.7066
14.8768
15.2007
15.8683
16.5649
17.2887
17.9221
18.5867
19.1182
19.7375
20.194
20.8048
21.2131
21.8337
22.2122
22.849
23.2155
23.9161
14.7421
14.6201
14.6247
14.737
14.9292
15.2198
15.4906
15.8098
16.0707
16.384
16.6187
16.9227
17.1333
17.4319
17.6223
17.9227
18.0967
18.4298
14.7626
14.5866
14.4637
14.3813
14.3667
14.39
14.438
14.534
14.6184
14.7371
14.8311
14.9574
15.0488
15.1783
15.2639
15.3965
15.4767
15.6301
14.7666
14.5908
14.4345
14.2964
14.1849
14.1044
14.0396
14.0067
13.9814
13.9786
13.981
13.9919
14.0044
14.0303
14.0483
14.0814
14.1062
14.1508
14.7663
14.594
14.432
14.282
14.1429
14.0219
13.9114
13.8193
13.7369
13.6697
13.6101
13.5633
13.5181
13.4873
13.452
13.4349
13.4034
13.4031
14.7658
14.5945
14.4321
14.2803
14.1361
14.0032
13.8781
13.7643
13.6581
13.5628
13.4734
13.3951
13.3197
13.256
13.1915
13.141
13.0842
13.046
14.7657
14.5943
14.4321
14.2798
14.1353
13.9998
13.8714
13.7518
13.6384
13.5336
13.434
13.3429
13.2556
13.177
13.1002
13.0329
12.9649
12.9078
14.7657
14.5941
14.432
14.2794
14.1349
13.9989
13.8698
13.7484
13.6331
13.5249
13.4219
13.3256
13.2337
13.1483
13.0663
12.9907
12.9174
12.8506
14.7657
14.5939
14.4318
14.279
14.1346
13.9983
13.8691
13.7472
13.6315
13.5222
13.4184
13.3203
13.227
13.139
13.0551
12.976
12.9005
12.8295
14.7657
14.5938
14.4317
14.2787
14.1342
13.9977
13.8686
13.7464
13.6307
13.5211
13.4171
13.3185
13.2249
13.1362
13.0518
12.9717
12.8955
12.8232
14.7657
14.5937
14.4315
14.2785
14.1339
13.9973
13.8681
13.7458
13.63
13.5203
13.4162
13.3175
13.2238
13.1348
13.0503
12.97
12.8935
12.8209
14.7657
14.5937
14.4315
14.2783
14.1337
13.997
13.8677
13.7453
13.6294
13.5196
13.4155
13.3167
13.2229
13.1338
13.0492
12.9687
12.8922
12.8195
14.7657
14.5937
14.4314
14.2782
14.1335
13.9968
13.8674
13.745
13.629
13.5191
13.4149
13.316
13.2222
13.133
13.0483
12.9678
12.8912
12.8183
14.7657
14.5937
14.4314
14.2782
14.1335
13.9967
13.8673
13.7448
13.6288
13.5189
13.4147
13.3157
13.2218
13.1326
13.0479
12.9673
12.8906
12.8177
14.7657
14.5937
14.4314
14.2782
14.1336
13.9968
13.8674
13.745
13.629
13.5191
13.4148
13.3159
13.222
13.1328
13.048
12.9674
12.8908
12.8179
14.7657
14.5937
14.4315
14.2784
14.1337
13.997
13.8677
13.7453
13.6294
13.5196
13.4155
13.3166
13.2229
13.1339
13.0494
12.969
12.8927
12.82
14.7657
14.5937
14.4316
14.2785
14.1341
13.9974
13.8685
13.7464
13.6312
13.522
13.419
13.3214
13.2293
13.1418
13.0595
12.981
12.9074
12.8368
14.7658
14.5937
14.4318
14.2788
14.1353
14.0002
13.8742
13.756
13.6463
13.5435
13.4485
13.3591
13.277
13.1992
13.1282
13.0601
12.9988
12.9387
14.7655
14.5928
14.4328
14.2844
14.1515
14.0321
13.929
13.8375
13.7593
13.6894
13.6306
13.5769
13.5328
13.4905
13.4574
13.423
13.3989
13.3694
14.7592
14.5932
14.4603
14.3602
14.3029
14.2766
14.2805
14.2921
14.321
14.3531
14.3959
14.4346
14.4825
14.5218
14.5721
14.6091
14.6618
14.6942
14.7213
14.6911
14.754
14.9176
15.1827
15.4611
15.7475
16.012
16.2723
16.5038
16.7361
16.9387
17.1509
17.3312
17.5313
17.6941
17.8894
18.0368
14.7477
15.5124
16.5472
17.6842
18.7043
19.5676
20.3371
20.9969
21.6194
22.1662
22.719
23.2112
23.7404
24.205
24.7336
25.184
25.7267
26.1681
15.9871
20.9921
25.0236
27.7606
29.7844
31.3587
32.7768
34.0582
35.3593
36.617
37.9758
39.2984
40.7628
42.1481
43.7205
45.1781
46.8891
48.3658
29.9031
47.2184
54.8693
58.6736
61.6135
64.4323
67.5803
70.9784
74.7391
78.717
82.9879
87.3501
91.9117
96.4611
101.114
105.641
110.197
114.606
165.798
160.075
154.899
149.564
144.479
139.677
135.615
132.108
129.27
126.974
125.32
124.045
123.34
122.826
122.843
122.962
123.287
123.832
2.60671
1.78798
2.76116
3.64744
4.48946
5.29534
6.05268
6.74245
7.33444
7.79177
8.06157
8.12417
7.91751
7.98207
8.16253
8.10893
7.6272
6.45057
7.27618
8.06001
8.71239
40.426
47.1548
52.3593
58.4167
64.8609
71.79
79.1308
86.8898
95.0132
103.504
112.307
121.433
130.827
140.503
150.409
160.569
170.93
181.525
192.305
203.313
214.502
225.918
237.512
249.334
261.336
273.573
285.993
298.653
311.502
324.598
337.886
351.425
365.157
379.135
393.302
407.709
422.295
437.106
452.078
467.254
482.565
498.049
513.631
529.344
545.112
560.962
576.81
592.679
608.48
624.226
639.827
655.288
670.509
685.496
700.148
714.487
728.476
742.175
755.278
767.903
779.96
791.489
802.392
812.73
822.395
831.474
839.844
847.589
854.612
860.914
866.557
871.547
875.917
879.682
882.873
885.512
887.618
889.193
890.196
890.564
891.089
891.442
891.478
891.312
891.493
891.357
891.015
891.918
891.536
890.6
891.005
894.021
892.611
895.154
892.992
897.126
895.483
895.958
901.438
899.589
900.614
901.724
905.652
902.295
902.448
902.401
904.589
904.559
900.995
900.834
899.952
900.291
896.525
892.898
888.367
883.083
877.017
870.082
862.346
853.781
844.518
834.554
823.574
811.637
798.745
784.9
770.142
754.564
738.262
721.226
703.594
685.274
666.301
647.529
627.991
608.029
594.671
583.857
573.021
561.935
550.589
539.033
527.418
515.56
503.393
491.202
479.169
467.154
455.167
443.359
431.507
419.729
408.091
396.642
385.023
374.326
360.376
351.39
320.031
6.56928
3.87147
3.70585
4.00368
4.50256
5.1149
5.80247
6.53879
7.29851
8.06236
8.83661
9.66725
10.5813
11.5992
12.6972
13.9142
15.421
17.5342
20.0978
23.1259
27.2128
33.0637
36.5823
39.8863
43.3493
46.935
50.642
54.4563
58.3717
62.3786
66.4735
70.6494
74.9053
79.2361
83.6434
88.1242
92.6824
97.3175
102.037
106.838
111.716
116.67
121.703
126.812
132.003
137.273
142.625
148.056
153.572
159.167
164.847
170.605
176.445
182.361
188.355
194.42
200.559
206.761
213.028
219.351
225.727
232.147
238.606
245.094
251.605
258.126
264.651
271.164
277.658
284.114
290.525
296.871
303.142
309.322
315.404
321.383
327.275
333.125
338.875
344.432
349.8
354.96
359.907
364.623
369.105
373.336
377.316
381.029
384.475
387.64
390.528
393.147
395.501
397.598
399.446
401.052
402.428
403.585
404.534
405.291
405.89
406.423
406.821
407.105
407.335
407.495
407.539
407.57
407.672
407.533
407.41
407.733
408.05
407.786
408.233
408.195
408.823
408.618
408.712
409.395
408.952
408.971
409.343
409.432
408.825
408.471
408.272
408.179
407.631
406.642
406.115
405.485
404.876
403.489
402.069
400.367
398.422
396.209
393.716
390.946
387.893
384.566
380.944
376.974
372.656
367.988
362.97
357.608
351.919
345.923
339.626
333.059
326.217
319.094
311.853
304.406
296.661
289.934
283.748
277.594
271.351
265.013
258.594
252.148
245.668
239.115
232.472
225.835
219.197
212.583
206.049
199.585
193.218
186.978
180.92
174.955
169.483
163.684
159.432
156.648
11.8018
6.20027
5.41084
5.43826
5.78864
6.33845
7.04248
7.88101
8.84781
9.94316
11.164
12.4985
13.9477
15.5017
17.1592
18.9497
20.9272
23.1277
25.508
28.0777
30.9031
33.9072
36.776
39.609
42.485
45.4335
48.4582
51.556
54.7235
57.9574
61.2573
64.6231
68.0513
71.5401
75.0892
78.6982
82.3677
86.0975
89.8884
93.7395
97.6506
101.621
105.653
109.744
113.897
118.111
122.387
126.724
131.123
135.584
140.107
144.691
149.336
154.04
158.802
163.62
168.494
173.42
178.397
183.42
188.487
193.593
198.734
203.905
209.101
214.315
219.541
224.771
229.998
235.213
240.407
245.572
250.7
255.781
260.811
265.784
270.699
275.551
280.309
284.947
289.453
293.815
298.023
302.064
305.931
309.612
313.101
316.389
319.469
322.336
324.986
327.423
329.647
331.661
333.47
335.079
336.494
337.725
338.783
339.682
340.441
341.083
341.604
342.018
342.344
342.58
342.728
342.819
342.871
342.835
342.776
342.767
342.741
342.607
342.571
342.483
342.502
342.348
342.142
342.109
341.667
341.154
340.893
340.474
339.884
339.321
338.781
338.184
337.434
336.539
335.69
334.755
333.706
332.378
330.93
329.305
327.502
325.508
323.313
320.912
318.299
315.466
312.4
309.084
305.505
301.662
297.554
293.186
288.563
283.695
278.59
273.261
267.713
261.954
256.037
249.968
243.775
237.848
232.12
226.428
220.707
214.951
209.17
203.394
197.631
191.875
186.13
180.432
174.712
169.024
163.39
157.833
152.373
147.035
141.859
136.837
132.151
127.631
123.928
121.844
17.4517
8.82137
7.39367
7.19729
7.46093
7.99523
8.73127
9.64099
10.7108
11.9312
13.2913
14.7778
16.3783
18.0824
19.8816
21.7777
23.78
25.8949
28.1172
30.4587
32.9109
35.4475
38.0222
40.66
43.3735
46.1587
49.0139
51.9391
54.9271
57.969
61.0548
64.2003
67.4053
70.6694
73.9926
77.3744
80.8149
84.3134
87.8697
91.4833
95.1542
98.8822
102.667
106.51
110.411
114.369
118.385
122.459
126.592
130.783
135.033
139.34
143.706
148.13
152.611
157.148
161.74
166.386
171.085
175.835
180.633
185.478
190.365
195.291
200.253
205.245
210.264
215.302
220.355
225.416
230.477
235.531
240.571
245.59
250.579
255.532
260.443
265.298
270.076
274.762
279.342
283.802
288.13
292.315
296.345
300.209
303.897
307.399
310.708
313.815
316.717
319.411
321.895
324.17
326.238
328.101
329.765
331.237
332.524
333.638
334.592
335.397
336.061
336.595
337.01
337.312
337.508
337.613
337.645
337.595
337.451
337.191
336.964
336.685
336.393
336.055
335.685
335.222
334.743
334.205
333.532
332.83
332.129
331.344
330.47
329.557
328.602
327.582
326.463
325.248
323.979
322.612
321.122
319.467
317.679
315.74
313.641
311.373
308.927
306.295
303.47
300.443
297.202
293.741
290.024
286.068
281.876
277.45
272.795
267.918
262.827
257.532
252.045
246.384
240.584
234.671
228.693
222.796
216.981
211.195
205.41
199.621
193.842
188.097
182.398
176.746
171.151
165.63
160.17
154.784
149.437
144.168
138.989
133.927
129.016
124.276
119.815
115.646
112.047
109.687
23.0986
11.5345
9.46032
9.04042
9.2043
9.70057
10.4303
11.3509
12.4401
13.6825
15.0642
16.5716
18.1916
19.9128
21.7259
23.6261
25.613
27.6879
29.8521
32.1073
34.451
36.8755
39.3719
41.9402
44.5805
47.2908
50.0681
52.9089
55.8134
58.7828
61.8193
64.9204
68.0849
71.312
74.6015
77.9534
81.3684
84.8446
88.3813
91.9781
95.6348
99.3513
103.128
106.964
110.86
114.817
118.835
122.913
127.052
131.253
135.516
139.841
144.228
148.678
153.19
157.765
162.402
167.101
171.862
176.682
181.563
186.5
191.494
196.541
201.638
206.783
211.97
217.197
222.457
227.744
233.053
238.376
243.706
249.036
254.355
259.655
264.925
270.15
275.316
280.407
285.408
290.306
295.084
299.73
304.23
308.569
312.735
316.716
320.5
324.078
327.441
330.584
333.503
336.194
338.658
340.894
342.906
344.698
346.277
347.651
348.83
349.823
350.641
351.293
351.79
352.141
352.353
352.436
352.377
352.141
351.838
351.462
351.024
350.516
349.943
349.298
348.581
347.788
346.931
345.997
344.972
343.884
342.741
341.522
340.221
338.851
337.409
335.889
334.274
332.564
330.762
328.854
326.82
324.648
322.341
319.889
317.284
314.517
311.581
308.469
305.172
301.683
297.993
294.097
289.979
285.641
281.084
276.312
271.326
266.136
260.749
255.18
249.445
243.567
237.574
231.498
225.381
219.293
213.248
207.231
201.234
195.254
189.29
183.384
177.549
171.79
166.116
160.541
155.064
149.692
144.42
139.25
134.16
129.18
124.341
119.677
115.265
111.174
107.549
104.819
28.508
14.1974
11.483
10.8334
10.8833
11.3203
12.0152
12.911
13.9775
15.1958
16.5511
18.0303
19.6221
21.3162
23.1046
24.982
26.9455
28.9943
31.1284
33.3475
35.6504
38.0344
40.4966
43.0351
45.6486
48.3357
51.0951
53.9254
56.8267
59.799
62.8427
65.9571
69.1417
72.3958
75.7191
79.111
82.5706
86.0982
89.6935
93.3564
97.0866
100.884
104.748
108.68
112.678
116.744
120.878
125.08
129.35
133.69
138.099
142.58
147.131
151.754
156.45
161.219
166.062
170.979
175.971
181.037
186.176
191.389
196.674
202.03
207.454
212.944
218.497
224.109
229.775
235.49
241.247
247.041
252.861
258.701
264.55
270.397
276.229
282.033
287.793
293.494
299.119
304.652
310.074
315.37
320.522
325.513
330.327
334.949
339.363
343.555
347.515
351.233
354.7
357.912
360.864
363.555
365.985
368.158
370.076
371.748
373.181
374.385
375.369
376.144
376.723
377.121
377.326
377.318
377.094
376.756
376.294
375.717
375.035
374.249
373.361
372.372
371.284
370.1
368.824
367.452
365.985
364.429
362.788
361.058
359.235
357.32
355.312
353.207
350.999
348.683
346.257
343.711
341.038
338.229
335.281
332.189
328.946
325.545
321.98
318.245
314.333
310.237
305.951
301.468
296.784
291.896
286.807
281.517
276.034
270.366
264.526
258.529
252.397
246.152
239.821
233.434
227.025
220.635
214.28
207.96
201.677
195.433
189.228
183.111
177.083
171.151
165.325
159.615
154.027
148.567
143.238
138.041
132.969
127.998
123.153
118.48
114.044
109.928
106.219
103.157
33.5039
16.7051
13.3761
12.4893
12.4221
12.7866
13.4316
14.2859
15.3126
16.4897
17.8018
19.2368
20.7847
22.4372
24.1873
26.0302
27.9627
29.9827
32.0893
34.2816
36.5588
38.9194
41.3622
43.886
46.49
49.1734
51.9357
54.7767
57.6963
60.6948
63.7722
66.9285
70.1637
73.4774
76.8695
80.3396
83.8874
87.5128
91.2155
94.9954
98.8521
102.785
106.796
110.882
115.046
119.286
123.604
128.001
132.475
137.03
141.665
146.382
151.181
156.065
161.033
166.089
171.231
176.463
181.784
187.195
192.697
198.29
203.974
209.747
215.609
221.558
227.591
233.704
239.895
246.157
252.484
258.87
265.306
271.783
278.291
284.817
291.347
297.866
304.359
310.808
317.193
323.496
329.697
335.775
341.71
347.48
353.066
358.447
363.604
368.521
373.18
377.569
381.675
385.49
389.006
392.22
395.128
397.732
400.035
402.041
403.758
405.194
406.36
407.268
407.933
408.366
408.526
408.409
408.101
407.617
406.965
406.156
405.2
404.101
402.865
401.495
399.997
398.374
396.631
394.768
392.789
390.695
388.492
386.176
383.747
381.204
378.547
375.772
372.877
369.857
366.711
363.433
360.019
356.464
352.766
348.92
344.923
340.771
336.459
331.983
327.339
322.521
317.526
312.35
306.99
301.446
295.72
289.816
283.744
277.514
271.141
264.645
258.045
251.366
244.631
237.868
231.105
224.368
217.674
211.029
204.44
197.912
191.456
185.094
178.836
172.692
166.672
160.785
155.038
149.438
143.99
138.699
133.56
128.564
123.679
118.953
114.456
110.266
106.445
103.105
37.974
18.985
15.0823
13.9596
13.7767
14.0647
14.654
15.4608
16.4421
17.5731
18.8375
20.224
21.7235
23.329
25.0348
26.8367
28.7315
30.7172
32.7925
34.9563
37.2082
39.5473
41.9732
44.4854
47.0838
49.7683
52.5391
55.3964
58.3408
61.3727
64.4926
67.701
70.9982
74.3845
77.86
81.4248
85.0786
88.8216
92.6535
96.5742
100.584
104.682
108.868
113.143
117.507
121.961
126.504
131.138
135.863
140.681
145.592
150.599
155.703
160.905
166.207
171.611
177.119
182.732
188.452
194.281
200.219
206.268
212.427
218.697
225.078
231.568
238.164
244.865
251.667
258.564
265.551
272.62
279.764
286.973
294.234
301.535
308.862
316.197
323.522
330.819
338.066
345.24
352.319
359.279
366.094
372.739
379.191
385.423
391.414
397.139
402.579
407.715
412.532
417.016
421.158
424.949
428.385
431.465
434.188
436.56
438.587
440.277
441.64
442.69
443.446
443.897
444.018
443.833
443.413
442.766
441.904
440.84
439.584
438.146
436.532
434.749
432.803
430.7
428.446
426.042
423.493
420.803
417.973
415.004
411.897
408.651
405.266
401.74
398.072
394.26
390.304
386.2
381.947
377.545
372.991
368.285
363.427
358.414
353.247
347.923
342.441
336.799
330.997
325.032
318.906
312.62
306.18
299.593
292.869
286.023
279.071
272.032
264.928
257.78
250.611
243.444
236.302
229.205
222.167
215.197
208.304
201.493
194.776
188.168
181.679
175.32
169.099
163.026
157.108
151.351
145.764
140.35
135.11
130.036
125.096
120.299
115.721
111.438
107.493
103.924
41.858
20.9954
16.5728
15.2272
14.9311
15.143
15.6757
16.434
17.3694
18.4542
19.6714
21.0095
22.4603
24.0176
25.6766
27.4339
29.2868
31.2335
33.2731
35.4047
37.628
39.9429
42.3494
44.8479
47.4387
50.1225
52.9001
55.7724
58.7403
61.8048
64.9672
68.2284
71.5896
75.0515
78.6148
82.2799
86.0471
89.9166
93.8885
97.9629
102.14
106.419
110.802
115.287
119.876
124.569
129.366
134.269
139.279
144.397
149.624
154.963
160.415
165.981
171.666
177.469
183.395
189.444
195.62
201.923
208.357
214.922
221.619
228.45
235.413
242.509
249.736
257.091
264.572
272.173
279.889
287.712
295.634
303.645
311.732
319.882
328.078
336.302
344.535
352.755
360.938
369.058
377.089
385.003
392.771
400.363
407.75
414.902
421.79
428.386
434.666
440.606
446.185
451.388
456.199
460.607
464.606
468.191
471.362
474.122
476.476
478.432
480.001
481.197
482.038
482.506
482.601
482.349
481.805
480.981
479.893
478.555
476.979
475.177
473.159
470.933
468.508
465.889
463.084
460.096
456.93
453.591
450.08
446.401
442.553
438.538
434.354
430.004
425.485
420.801
415.949
410.932
405.749
400.404
394.897
389.232
383.411
377.437
371.313
365.04
358.622
352.06
345.359
338.519
331.547
324.448
317.23
309.904
302.483
294.982
287.418
279.812
272.183
264.551
256.936
249.357
241.834
234.382
227.012
219.732
212.551
205.474
198.51
191.672
184.967
178.406
171.996
165.746
159.662
153.753
148.024
142.482
137.128
131.956
126.939
122.061
117.397
113.015
108.948
105.188
45.1299
22.7174
17.8387
16.2895
15.8862
16.0251
16.5026
17.2138
18.105
19.1459
20.3183
21.6105
23.0144
24.5246
26.137
27.8488
29.658
31.5634
33.5644
35.6608
37.8527
40.1403
42.5242
45.0054
47.585
50.2644
53.0449
55.9282
58.9156
62.0088
65.2096
68.5203
71.9431
75.4794
79.1307
82.8978
86.7816
90.7827
94.9017
99.1388
103.495
107.969
112.564
117.278
122.112
127.068
132.146
137.347
142.673
148.125
153.705
159.414
165.256
171.231
177.344
183.595
189.988
196.525
203.21
210.043
217.028
224.166
231.459
238.907
246.512
254.273
262.188
270.257
278.475
286.838
295.34
303.974
312.731
321.601
330.569
339.622
348.742
357.909
367.102
376.297
385.467
394.583
403.616
412.533
421.301
429.884
438.25
446.363
454.188
461.693
468.846
475.621
481.991
487.936
493.438
498.481
503.057
507.16
510.787
513.94
516.623
518.846
520.618
521.953
522.868
523.351
523.416
523.088
522.404
521.385
520.051
518.418
516.501
514.313
511.866
509.171
506.236
503.07
499.68
496.07
492.248
488.215
483.977
479.536
474.893
470.05
465.008
459.769
454.333
448.703
442.881
436.871
430.677
424.302
417.753
411.036
404.158
397.127
389.948
382.631
375.183
367.612
359.927
352.135
344.247
336.273
328.224
320.114
311.957
303.771
295.574
287.385
279.222
271.102
263.043
255.061
247.169
239.379
231.7
224.138
216.696
209.381
202.2
195.159
188.266
181.529
174.954
168.549
162.319
156.272
150.414
144.753
139.288
134.016
128.908
123.947
119.201
114.729
110.55
106.638
47.788
24.1467
18.8829
17.1541
16.6522
16.7233
17.1489
17.8157
18.6655
19.6658
20.797
22.047
23.4077
24.874
26.4424
28.1106
29.8773
31.742
33.7049
35.7667
37.9283
40.1883
42.5481
45.01
47.5762
50.2489
53.0303
55.9226
58.9277
62.0465
65.2803
68.6364
72.1187
75.7291
79.4696
83.3419
87.3473
91.4871
95.7623
100.174
104.722
109.409
114.234
119.199
124.305
129.551
134.941
140.474
146.153
151.979
157.953
164.079
170.358
176.793
183.385
190.139
197.056
204.139
211.39
218.813
226.41
234.182
242.131
250.259
258.565
267.05
275.713
284.551
293.562
302.741
312.081
321.575
331.214
340.987
350.879
360.874
370.955
381.1
391.286
401.485
411.669
421.807
431.864
441.804
451.589
461.18
470.537
479.621
488.391
496.809
504.839
512.448
519.605
526.287
532.47
538.139
543.279
547.883
551.949
555.476
558.47
560.938
562.892
564.345
565.31
565.795
565.812
565.38
564.526
563.286
561.68
559.726
557.442
554.842
551.94
548.747
545.275
541.532
537.525
533.26
528.744
523.981
518.975
513.728
508.243
502.523
496.569
490.384
483.97
477.331
470.472
463.398
456.115
448.632
440.958
433.104
425.081
416.903
408.582
400.133
391.571
382.911
374.167
365.354
356.489
347.585
338.659
329.726
320.805
311.912
303.067
294.289
285.592
276.992
268.502
260.135
251.898
243.801
235.846
228.036
220.374
212.86
205.499
198.294
191.251
184.374
177.669
171.141
164.794
158.634
152.67
146.908
141.348
135.984
130.784
125.751
120.937
116.389
112.119
108.092
49.8474
25.2888
19.7148
17.8343
17.2451
17.2554
17.6335
18.2595
19.0719
20.0358
21.1306
22.3436
23.6666
25.0946
26.6244
28.2542
29.9835
31.8125
33.7425
35.7755
37.9116
40.147
42.4865
44.9331
47.4892
50.1577
52.942
55.8455
58.8719
62.0193
65.2884
68.694
72.2395
75.9297
79.7678
83.7558
87.8959
92.1901
96.64
101.247
106.013
110.939
116.025
121.275
126.688
132.266
138.011
143.924
150.006
156.26
162.687
169.289
176.068
183.027
190.168
197.493
205.005
212.707
220.599
228.685
236.967
245.446
254.124
263.002
272.079
281.355
290.829
300.498
310.359
320.406
330.633
341.032
351.592
362.302
373.146
384.108
395.168
406.304
417.49
428.698
439.896
451.049
462.119
473.068
483.851
494.427
504.75
514.775
524.457
533.752
542.619
551.02
558.922
566.294
573.111
579.355
585.009
590.065
594.518
598.369
601.623
604.288
606.377
607.904
608.883
609.332
609.26
608.673
607.605
606.104
604.189
601.88
599.194
596.149
592.759
589.037
584.995
580.642
575.985
571.032
565.787
560.257
554.443
548.351
541.981
535.338
528.424
521.241
513.794
506.088
498.128
489.924
481.485
472.822
463.949
454.881
445.636
436.233
426.693
417.037
407.287
397.468
387.601
377.709
367.813
357.934
348.094
338.311
328.603
318.991
309.493
300.13
290.912
281.849
272.952
264.229
255.683
247.317
239.13
231.12
223.284
215.62
208.128
200.808
193.661
186.69
179.898
173.288
166.861
160.622
154.583
148.748
143.115
137.675
132.401
127.316
122.456
117.857
113.522
109.417
51.3271
26.1527
20.3477
18.347
17.6829
17.6431
17.9785
18.5689
19.349
20.2826
21.3478
22.5315
23.8253
25.224
26.7249
28.3265
30.0289
31.8332
33.7422
35.7568
37.8694
40.0852
42.4123
44.8521
47.4082
50.0843
52.8849
55.8143
58.8774
62.0686
65.398
68.8753
72.5085
76.303
80.2628
84.3924
88.6968
93.1786
97.8401
102.683
107.71
112.923
118.323
123.913
129.694
135.668
141.836
148.2
154.761
161.522
168.484
175.648
183.017
190.592
198.374
206.366
214.57
222.985
231.616
240.461
249.523
258.803
268.3
278.014
287.945
298.091
308.45
319.018
329.79
340.759
351.92
363.261
374.772
386.44
398.249
410.18
422.214
434.326
446.489
458.673
470.844
482.964
494.994
506.89
518.605
530.093
541.303
552.186
562.693
572.775
582.387
591.485
600.033
607.998
615.352
622.072
628.143
633.555
638.302
642.386
645.812
648.59
650.733
652.257
653.18
653.521
653.294
652.479
651.141
649.323
647.046
644.331
641.196
637.66
633.739
629.447
624.794
619.792
614.447
608.766
602.754
596.416
589.755
582.774
575.477
567.866
559.944
551.715
543.183
534.356
525.241
515.849
506.193
496.287
486.151
475.805
465.273
454.581
443.756
432.83
421.834
410.799
399.757
388.739
377.772
366.885
356.106
345.454
334.952
324.618
314.476
304.545
294.813
285.304
276.028
266.985
258.176
249.594
241.232
233.082
225.135
217.384
209.824
202.45
195.259
188.252
181.428
174.788
168.329
162.051
155.974
150.101
144.425
138.933
133.624
128.52
123.643
119.023
114.652
110.51
52.297
26.7617
20.7977
18.7077
17.9843
17.9046
18.2075
18.7708
19.5276
20.4403
21.4869
22.6534
23.9316
25.3162
26.8046
28.3961
30.0909
31.8893
33.7933
35.8028
37.9181
40.1432
42.482
44.9389
47.5186
50.2261
53.067
56.0467
59.1707
62.4448
65.8767
69.4747
73.2465
77.1989
81.3383
85.6704
90.2007
94.9355
99.8778
105.031
110.397
115.98
121.782
127.805
134.052
140.523
147.221
154.148
161.304
168.691
176.311
184.163
192.25
200.57
209.126
217.917
226.943
236.205
245.702
255.433
265.399
275.597
286.026
296.685
307.57
318.677
330.004
341.543
353.288
365.231
377.363
389.672
402.146
414.77
427.527
440.399
453.362
466.393
479.463
492.54
505.589
518.571
531.444
544.161
556.673
568.93
580.88
592.468
603.642
614.35
624.542
634.174
643.205
651.599
659.327
666.365
672.698
678.314
683.208
687.383
690.846
693.607
695.682
697.09
697.848
697.975
697.493
696.35
694.663
692.451
689.738
686.547
682.898
678.81
674.3
669.383
664.068
658.367
652.285
645.83
639.005
631.814
624.26
616.346
608.075
599.449
590.472
581.148
571.483
561.485
551.164
540.532
529.607
518.406
506.953
495.276
483.403
471.369
459.21
446.966
434.678
422.386
410.134
397.958
385.896
373.984
362.257
350.702
339.373
328.3
317.514
307.034
296.879
287.018
277.45
268.175
259.182
250.46
241.996
233.775
225.783
218.007
210.438
203.066
195.887
188.896
182.09
175.468
169.025
162.747
156.68
150.811
145.129
139.636
134.341
129.26
124.406
119.8
115.428
111.287
52.7342
27.1175
21.0757
18.9327
18.1714
18.0665
18.3509
18.9009
19.6492
20.5578
21.6042
22.7745
24.0604
25.457
26.9608
28.5701
30.285
32.1064
34.0363
36.0771
38.2318
40.5042
42.8992
45.4222
48.0793
50.877
53.8223
56.9226
60.1856
63.6199
67.2341
71.037
75.0374
79.2439
83.6644
88.3068
93.1785
98.2853
103.633
109.226
115.068
121.163
127.515
134.124
140.995
148.128
155.525
163.187
171.115
179.308
187.768
196.492
205.48
214.731
224.243
234.014
244.041
254.321
264.852
275.631
286.652
297.913
309.409
321.134
333.083
345.249
357.624
370.201
382.969
395.917
409.034
422.305
435.715
449.25
462.889
476.614
490.401
504.226
518.059
531.869
545.619
559.272
572.782
586.103
599.186
611.977
624.421
636.465
648.054
659.133
669.652
679.564
688.827
697.404
705.266
712.389
718.756
724.358
729.19
733.257
736.565
739.13
740.969
742.101
742.548
742.331
741.42
739.852
737.702
734.992
731.747
727.989
723.742
719.023
713.851
708.238
702.196
695.733
688.856
681.568
673.874
665.776
657.276
648.377
639.081
629.39
619.308
608.839
597.991
586.773
575.196
563.277
551.035
538.493
525.678
512.626
499.374
485.959
472.428
458.834
445.228
431.659
418.18
404.792
391.572
378.586
365.875
353.533
341.515
329.84
318.54
307.668
297.118
286.935
277.119
267.66
258.542
249.745
241.248
233.028
225.065
217.34
209.836
202.541
195.443
188.537
181.815
175.273
168.904
162.686
156.673
150.838
145.195
139.749
134.509
129.484
124.684
120.125
115.782
111.682
52.6749
27.2323
21.1973
19.0439
18.2736
18.1668
18.4563
19.0182
19.7864
20.7226
21.8039
23.0162
24.3508
25.8024
27.3686
29.0484
30.8422
32.7518
34.78
36.9304
39.2076
41.617
44.1648
46.858
49.7043
52.7119
55.8896
59.2466
62.793
66.5388
70.4944
74.6703
79.0771
83.7249
88.6239
93.7833
99.2107
104.913
110.9
117.177
123.748
130.616
137.785
145.257
153.032
161.113
169.499
178.189
187.183
196.477
206.07
215.956
226.133
236.595
247.336
258.351
269.632
281.174
292.968
305.007
317.283
329.787
342.51
355.442
368.574
381.895
395.392
409.054
422.866
436.813
450.88
465.051
479.308
493.633
508.007
522.409
536.818
551.208
565.552
579.819
593.974
607.981
621.796
635.375
648.667
661.622
674.185
686.304
697.924
708.992
719.459
729.278
738.407
746.812
754.463
761.337
767.418
772.698
777.176
780.855
783.746
785.864
787.233
787.874
787.797
787.012
785.497
783.341
780.573
777.216
773.298
768.843
763.872
758.404
752.456
746.041
739.169
731.845
724.076
715.863
707.209
698.116
688.583
678.613
668.207
657.368
646.099
634.405
622.296
609.781
596.875
583.596
569.969
556.019
541.78
527.295
512.611
497.769
482.824
467.798
452.772
437.834
423.055
408.576
394.363
380.481
367.035
353.906
341.188
328.911
317.1
305.768
294.895
284.478
274.506
264.961
255.815
247.041
238.608
230.487
222.648
215.065
207.716
200.583
193.65
186.907
180.345
173.953
167.729
161.657
155.759
150.042
144.516
139.187
134.06
129.143
124.443
119.971
115.699
111.672
52.2731
27.1639
21.2042
19.0892
18.3515
18.2838
18.6231
19.2453
20.0844
21.1038
22.2822
23.6067
25.0694
26.666
28.3947
30.2554
32.25
34.3811
36.653
39.0709
41.641
44.3704
47.2673
50.3404
53.5992
57.0537
60.7148
64.5936
68.7021
73.0521
77.6558
82.5254
87.6729
93.1107
98.8509
104.906
111.286
117.996
125.039
132.417
140.137
148.201
156.611
165.367
174.468
183.912
193.695
203.812
214.259
225.028
236.111
247.5
259.184
271.153
283.396
295.902
308.659
321.655
334.876
348.309
361.942
375.76
389.749
403.894
418.18
432.593
447.115
461.729
476.417
491.162
505.943
520.743
535.541
550.319
565.059
579.74
594.343
608.845
623.221
637.443
651.483
665.306
678.875
692.149
705.083
717.629
729.739
741.365
752.456
762.965
772.846
782.056
790.558
798.317
805.307
811.506
816.9
821.482
825.252
828.217
830.384
831.774
832.415
832.314
831.486
829.901
827.641
824.725
821.185
817.043
812.326
807.055
801.253
794.936
788.121
780.818
773.034
764.774
756.041
746.834
737.155
727.002
716.375
705.276
693.704
681.663
669.156
656.189
642.772
628.919
614.644
599.97
584.928
569.547
553.866
537.92
521.732
505.396
488.969
472.615
456.374
440.299
424.533
408.978
393.762
378.961
364.637
350.8
337.486
324.722
312.523
300.895
289.827
279.304
269.306
259.801
250.752
242.121
233.871
225.962
218.356
211.018
203.923
197.048
190.369
183.874
177.553
171.385
165.375
159.521
153.834
148.321
142.989
137.845
132.894
128.141
123.59
119.254
115.105
111.195
51.7058
27.0188
21.1694
19.1319
18.479
18.5066
18.9579
19.711
20.7032
21.9002
23.2827
24.8395
26.5649
28.4563
30.5139
32.7397
35.1372
37.7113
40.4681
43.4147
46.5598
49.9125
53.4829
57.2815
61.3193
65.6078
70.1594
74.9866
80.1018
85.5176
91.2464
97.3005
103.692
110.434
117.538
125.018
132.876
141.113
149.731
158.728
168.104
177.856
187.98
198.47
209.321
220.522
232.066
243.94
256.133
268.631
281.42
294.484
307.809
321.378
335.175
349.183
363.384
377.763
392.3
406.979
421.782
436.69
451.686
466.751
481.867
497.014
512.174
527.326
542.45
557.525
572.529
587.444
602.25
616.929
631.466
645.844
660.044
674.05
687.841
701.396
714.692
727.702
740.396
752.738
764.693
776.22
787.279
797.831
807.833
817.245
826.027
834.145
841.565
848.256
854.192
859.353
863.726
867.306
870.09
872.093
873.306
873.766
873.497
872.478
870.719
868.268
865.148
861.378
856.985
851.991
846.417
840.285
833.612
826.416
818.709
810.498