/*--------------------------------*- C++ -*----------------------------------*\
  =========                 |
  \\      /  F ield         | OpenFOAM: The Open Source CFD Toolbox
   \\    /   O peration     | Website:  https://openfoam.org
    \\  /    A nd           | Version:  8
     \\/     M anipulation  |
\*---------------------------------------------------------------------------*/
FoamFile
{
    version     2.0;
    format      ascii;
    class       volScalarField;
    location    "115";
    object      k;
}
// * * * * * * * * * * * * * * * * * * * * * * * * * * * * * * * * * * * * * //

dimensions      [0 2 -2 0 0 0 0];

internalField   nonuniform List<scalar> 
12225
(
0.362829
0.344001
0.327734
0.309836
0.29537
0.283524
0.275453
0.270306
0.270345
0.27192
0.276041
0.280817
0.289895
0.29596
0.306836
0.31392
0.326189
0.331179
0.440279
0.468734
0.461615
0.448372
0.450354
0.458331
0.474408
0.49883
0.524256
0.552525
0.580727
0.606728
0.634114
0.654712
0.680755
0.694318
0.721847
0.727779
0.390414
0.417853
0.420243
0.416826
0.411637
0.407803
0.408007
0.410048
0.414496
0.421528
0.430723
0.439891
0.451295
0.461492
0.473181
0.484391
0.494443
0.508751
0.377047
0.387165
0.391467
0.391342
0.39026
0.387884
0.385657
0.384084
0.382874
0.382902
0.383366
0.384409
0.386322
0.388564
0.391038
0.394513
0.396984
0.401916
0.374435
0.376092
0.378428
0.378665
0.378275
0.3772
0.375486
0.373737
0.372007
0.370453
0.369253
0.368116
0.367383
0.366841
0.366469
0.366445
0.366508
0.366995
0.37378
0.372703
0.372659
0.372365
0.371772
0.370817
0.369552
0.368081
0.366569
0.364974
0.363522
0.362063
0.360748
0.359536
0.358397
0.357452
0.356477
0.355874
0.373775
0.371739
0.370388
0.369283
0.368235
0.367113
0.365914
0.364585
0.363235
0.361805
0.360416
0.35902
0.357669
0.356377
0.355112
0.353964
0.352795
0.351822
0.373819
0.371559
0.369635
0.367976
0.3665
0.365107
0.363774
0.362427
0.361104
0.359763
0.358445
0.357138
0.355855
0.354614
0.35339
0.35224
0.35109
0.35005
0.373832
0.371553
0.369449
0.367525
0.365776
0.364153
0.362643
0.361197
0.359815
0.35847
0.357165
0.355897
0.35466
0.353466
0.352297
0.351185
0.350088
0.349067
0.373831
0.37156
0.369418
0.367404
0.365528
0.363772
0.362132
0.360584
0.35912
0.357725
0.356391
0.355113
0.353882
0.352703
0.351561
0.350473
0.349413
0.348417
0.373829
0.37156
0.369413
0.367378
0.365458
0.363645
0.361936
0.360323
0.358797
0.35735
0.355976
0.354669
0.35342
0.35223
0.351089
0.350004
0.348956
0.347968
0.373828
0.371558
0.369409
0.36737
0.365439
0.363608
0.361875
0.360233
0.358676
0.3572
0.355798
0.354466
0.353197
0.351991
0.350839
0.349745
0.348695
0.347703
0.373827
0.371556
0.369405
0.367365
0.36543
0.363593
0.36185
0.360196
0.358625
0.357133
0.355714
0.354366
0.353083
0.351863
0.3507
0.349595
0.348537
0.347536
0.373827
0.371555
0.369401
0.367359
0.365422
0.363583
0.361837
0.360177
0.3586
0.3571
0.355674
0.354317
0.353024
0.351795
0.350623
0.349509
0.348444
0.347434
0.373826
0.371553
0.369398
0.367355
0.365416
0.363575
0.361826
0.360164
0.358584
0.357082
0.355651
0.35429
0.352994
0.35176
0.350583
0.349463
0.348394
0.347377
0.373826
0.371552
0.369396
0.367351
0.36541
0.363568
0.361817
0.360154
0.358572
0.357067
0.355635
0.354272
0.352974
0.351737
0.350558
0.349435
0.348363
0.347342
0.373825
0.371551
0.369394
0.367348
0.365406
0.363562
0.36181
0.360145
0.358562
0.357056
0.355623
0.354258
0.352958
0.351719
0.350539
0.349414
0.34834
0.347317
0.373825
0.371551
0.369393
0.367346
0.365403
0.363558
0.361806
0.36014
0.358555
0.357048
0.355613
0.354247
0.352946
0.351706
0.350524
0.349397
0.348322
0.347297
0.373825
0.37155
0.369393
0.367345
0.365402
0.363557
0.361804
0.360137
0.358552
0.357044
0.355609
0.354242
0.35294
0.351699
0.350516
0.349388
0.348312
0.347285
0.373825
0.371551
0.369393
0.367346
0.365404
0.363559
0.361806
0.36014
0.358555
0.357047
0.355612
0.354245
0.352943
0.351702
0.350519
0.34939
0.348314
0.347287
0.373825
0.371551
0.369395
0.367349
0.365407
0.363563
0.361811
0.360146
0.358562
0.357056
0.355622
0.354256
0.352955
0.351716
0.350535
0.349408
0.348334
0.347309
0.373826
0.371552
0.369397
0.367352
0.365412
0.363571
0.361822
0.360161
0.358583
0.357083
0.355656
0.354299
0.353006
0.351775
0.350602
0.349483
0.348417
0.347398
0.373826
0.371554
0.369399
0.367359
0.365428
0.363602
0.361875
0.36024
0.358691
0.35722
0.355823
0.354493
0.353227
0.352018
0.350866
0.349762
0.34871
0.3477
0.373828
0.371551
0.369412
0.367417
0.365556
0.363819
0.362189
0.360651
0.359189
0.357793
0.356456
0.355171
0.353936
0.352745
0.3516
0.350495
0.349435
0.348409
0.373823
0.371554
0.369604
0.367893
0.366339
0.364892
0.363495
0.362122
0.360761
0.359413
0.358081
0.356769
0.355488
0.354237
0.353029
0.351855
0.350733
0.349645
0.373781
0.37199
0.371113
0.370265
0.36936
0.368311
0.367048
0.365629
0.36412
0.362575
0.36103
0.359522
0.358073
0.356682
0.355381
0.354141
0.35301
0.351924
0.374297
0.375564
0.377778
0.377858
0.377291
0.375885
0.373835
0.371641
0.369505
0.367482
0.365664
0.364084
0.36271
0.361536
0.360611
0.35982
0.359292
0.358805
0.378732
0.394393
0.398293
0.396565
0.392558
0.387607
0.383641
0.380454
0.378266
0.376851
0.376497
0.376751
0.377401
0.378701
0.380448
0.382431
0.384838
0.387152
0.408344
0.427539
0.422424
0.41105
0.402226
0.397923
0.398556
0.401117
0.405987
0.413041
0.421001
0.429837
0.438848
0.44821
0.457332
0.466588
0.475366
0.484239
0.366033
0.353411
0.341988
0.330209
0.318982
0.308382
0.299409
0.291674
0.285403
0.280333
0.276682
0.273868
0.27231
0.271186
0.271178
0.271527
0.272161
0.273396
0.00897681
0.0280917
0.0434536
0.0574316
0.0707206
0.0834477
0.0954832
0.106641
0.116712
0.125517
0.132824
0.138749
0.143812
0.149141
0.153049
0.155616
0.154841
0.151433
0.151678
0.158174
0.156959
0.145269
0.161321
0.172996
0.18617
0.199547
0.213383
0.227531
0.241977
0.256638
0.271491
0.286467
0.301558
0.316703
0.331907
0.347117
0.362354
0.37757
0.392798
0.407998
0.423216
0.438411
0.45363
0.468833
0.484072
0.499304
0.514584
0.529869
0.545214
0.560575
0.576006
0.591459
0.606988
0.622543
0.638171
0.653821
0.669539
0.685269
0.701054
0.716834
0.73265
0.748437
0.76423
0.779963
0.795666
0.811269
0.826801
0.842186
0.857446
0.872504
0.887375
0.901977
0.91632
0.930315
0.943972
0.957207
0.970061
0.982548
0.994583
1.00604
1.01701
1.0274
1.03727
1.04653
1.05523
1.06328
1.07075
1.07756
1.08374
1.08925
1.09409
1.09831
1.10191
1.10492
1.10734
1.10923
1.11059
1.11148
1.11189
1.11182
1.11147
1.11101
1.1101
1.10911
1.10816
1.10665
1.10476
1.10318
1.10193
1.09907
1.09676
1.09551
1.09404
1.0924
1.09148
1.09056
1.0896
1.08833
1.08792
1.0873
1.08631
1.08633
1.0882
1.08511
1.08394
1.08311
1.08329
1.08269
1.08313
1.07939
1.07933
1.07601
1.07558
1.07162
1.06819
1.06397
1.05926
1.05397
1.04806
1.04156
1.03443
1.02676
1.01859
1.00962
0.99989
0.989384
0.9781
0.966028
0.953174
0.939593
0.92538
0.910508
0.895055
0.878861
0.862075
0.845454
0.827661
0.810279
0.798905
0.788823
0.778567
0.768027
0.75717
0.74604
0.734774
0.723166
0.71121
0.699175
0.687169
0.675042
0.662839
0.650722
0.638418
0.626047
0.613687
0.601065
0.589132
0.573777
0.564225
0.528525
0.0227482
0.0549337
0.0758486
0.0922177
0.106763
0.120415
0.133518
0.146136
0.158237
0.169818
0.181037
0.192285
0.204011
0.215962
0.227577
0.239252
0.252256
0.268836
0.285311
0.300786
0.316222
0.332871
0.353966
0.376232
0.399527
0.423489
0.448052
0.473159
0.498755
0.524772
0.551152
0.577833
0.60477
0.631915
0.659235
0.686692
0.714269
0.741942
0.769707
0.797553
0.825488
0.853506
0.881617
0.909822
0.938135
0.966561
0.995117
1.02381
1.05265
1.08166
1.11084
1.1402
1.16976
1.19951
1.22947
1.25963
1.29
1.32056
1.35133
1.38227
1.41338
1.44464
1.47604
1.50754
1.53912
1.57074
1.60236
1.63394
1.66544
1.69679
1.72794
1.75882
1.78936
1.81948
1.84909
1.87809
1.90637
1.93374
1.96023
1.98588
2.01066
2.03449
2.05734
2.07912
2.09981
2.11933
2.13765
2.15473
2.17054
2.18502
2.19819
2.21004
2.22057
2.22983
2.23784
2.24463
2.25026
2.2548
2.25831
2.26086
2.26257
2.26342
2.26361
2.26322
2.26187
2.26002
2.25773
2.25519
2.25252
2.2496
2.24676
2.24377
2.24072
2.23796
2.23499
2.23239
2.22974
2.22757
2.22532
2.22327
2.22196
2.22012
2.2187
2.21651
2.21495
2.21343
2.21179
2.20995
2.20824
2.20594
2.20373
2.20084
2.1978
2.19402
2.18976
2.1848
2.1791
2.17257
2.16512
2.1567
2.14724
2.13667
2.12492
2.11189
2.09751
2.08175
2.06456
2.04594
2.02587
2.00434
1.98137
1.95702
1.93136
1.90443
1.87623
1.84704
1.81707
1.78592
1.7545
1.72243
1.68958
1.65607
1.62203
1.58758
1.55286
1.51777
1.48208
1.44639
1.41092
1.37552
1.34022
1.3053
1.27081
1.23676
1.20329
1.17041
1.13855
1.10548
1.0818
1.02632
0.0409059
0.0840835
0.109419
0.128938
0.146167
0.162362
0.178106
0.193704
0.209355
0.225245
0.241595
0.258626
0.276429
0.294854
0.313851
0.333686
0.354823
0.37745
0.400752
0.424613
0.449382
0.475479
0.503231
0.53216
0.562019
0.592642
0.623931
0.655807
0.688205
0.721058
0.754307
0.787888
0.821752
0.855854
0.890158
0.924633
0.959257
0.994012
1.02889
1.06388
1.09898
1.13419
1.16952
1.20496
1.24053
1.27624
1.31209
1.3481
1.38428
1.42064
1.45719
1.49393
1.53089
1.56806
1.60545
1.64306
1.68089
1.71894
1.7572
1.79566
1.83431
1.87314
1.91211
1.95121
1.9904
2.02964
2.06891
2.10814
2.1473
2.18632
2.22514
2.2637
2.3019
2.33969
2.37697
2.41364
2.44963
2.48484
2.51922
2.55269
2.58516
2.61655
2.64678
2.67576
2.70344
2.72972
2.75455
2.77788
2.79964
2.8198
2.83832
2.8552
2.87044
2.88406
2.89607
2.90652
2.91546
2.92294
2.92905
2.93386
2.93746
2.93994
2.94143
2.942
2.94161
2.94011
2.93799
2.93537
2.9324
2.92914
2.9256
2.92169
2.91764
2.91356
2.90924
2.90493
2.9007
2.89661
2.89238
2.88825
2.88437
2.88025
2.87608
2.87171
2.86745
2.86313
2.85853
2.85376
2.84885
2.84355
2.83793
2.83179
2.82508
2.81775
2.80971
2.80086
2.79109
2.78029
2.76839
2.75528
2.74089
2.72512
2.70787
2.68905
2.66857
2.6464
2.62247
2.59676
2.56927
2.54
2.50897
2.47623
2.44182
2.40582
2.36827
2.32934
2.28943
2.24856
2.20695
2.16454
2.12135
2.07755
2.03326
1.98862
1.94376
1.89879
1.85373
1.80881
1.76424
1.71983
1.67548
1.63168
1.58855
1.54598
1.50426
1.46349
1.42401
1.38506
1.35318
1.3036
0.0604195
0.112636
0.142862
0.165843
0.185925
0.204735
0.223082
0.241436
0.260105
0.279312
0.299229
0.319973
0.341587
0.36407
0.387448
0.411836
0.437393
0.464187
0.492095
0.521064
0.551156
0.582439
0.614892
0.648357
0.68271
0.717854
0.753707
0.790192
0.827242
0.864788
0.902768
0.941123
0.979806
1.01878
1.058
1.09744
1.13707
1.17689
1.21687
1.25701
1.29729
1.33772
1.3783
1.41903
1.45991
1.50096
1.54218
1.58357
1.62516
1.66696
1.70896
1.75119
1.79365
1.83635
1.8793
1.9225
1.96595
2.00966
2.05361
2.09781
2.14224
2.18689
2.23174
2.27676
2.32193
2.36722
2.41258
2.45796
2.50333
2.54862
2.59377
2.63871
2.68336
2.72764
2.77147
2.81476
2.85741
2.89932
2.94042
2.98058
3.01971
3.05771
3.09446
3.12988
3.16386
3.19631
3.22715
3.2563
3.28368
3.30925
3.33294
3.35473
3.37461
3.39258
3.40865
3.42284
3.43521
3.44579
3.45467
3.46193
3.46765
3.47194
3.47491
3.47667
3.47707
3.47626
3.47419
3.47151
3.4682
3.46431
3.45989
3.45493
3.44958
3.44391
3.43789
3.43165
3.42524
3.41874
3.41202
3.40518
3.39828
3.39114
3.38377
3.37622
3.36854
3.36064
3.35242
3.34391
3.3351
3.32585
3.31613
3.30583
3.29486
3.28318
3.27068
3.25726
3.24282
3.22725
3.21045
3.19233
3.17277
3.15169
3.12896
3.1045
3.07823
3.05009
3.02001
2.98798
2.95399
2.91804
2.88016
2.8404
2.79881
2.75551
2.71062
2.66434
2.61696
2.56864
2.51949
2.46955
2.41891
2.36774
2.31617
2.26436
2.21244
2.16056
2.10882
2.05738
2.00641
1.95594
1.906
1.85685
1.80855
1.76077
1.71408
1.66861
1.62466
1.5823
1.54528
1.49813
0.079855
0.140161
0.175199
0.201695
0.224638
0.245953
0.266632
0.287258
0.308211
0.329754
0.352073
0.375295
0.399502
0.424744
0.451062
0.478516
0.507175
0.537079
0.568218
0.600565
0.634097
0.66878
0.704548
0.741314
0.778995
0.81751
0.856783
0.896741
0.937314
0.978437
1.02005
1.06211
1.10457
1.14738
1.19051
1.23393
1.27761
1.32154
1.36569
1.41005
1.45461
1.49936
1.54431
1.58945
1.63479
1.68033
1.72607
1.77203
1.81821
1.86463
1.9113
1.95823
2.00542
2.0529
2.10066
2.14872
2.19708
2.24575
2.29472
2.344
2.39357
2.44343
2.49356
2.54395
2.59456
2.64538
2.69636
2.74746
2.79863
2.84982
2.90096
2.95199
3.00282
3.05339
3.10358
3.15332
3.20249
3.251
3.29872
3.34553
3.39133
3.43597
3.47935
3.52134
3.56181
3.60065
3.63776
3.67303
3.70636
3.73767
3.76689
3.79397
3.81888
3.84158
3.86208
3.88039
3.89654
3.91057
3.92253
3.93252
3.9406
3.94689
3.9515
3.95454
3.95581
3.95551
3.95367
3.95088
3.94712
3.94244
3.9369
3.93057
3.92356
3.91595
3.90778
3.89912
3.89003
3.88058
3.87074
3.86057
3.8501
3.83926
3.82806
3.81654
3.80469
3.79247
3.77983
3.76678
3.75327
3.73923
3.7246
3.70931
3.69328
3.67646
3.65874
3.64004
3.62026
3.5993
3.57705
3.55341
3.52829
3.50156
3.47314
3.44291
3.4108
3.37674
3.34068
3.3026
3.26248
3.22033
3.17618
3.13012
3.08223
3.03264
2.98152
2.92906
2.87551
2.82103
2.76574
2.70973
2.65312
2.59605
2.5387
2.4812
2.42373
2.36642
2.30941
2.25286
2.19691
2.14165
2.08716
2.03363
1.98118
1.92982
1.87982
1.83126
1.78433
1.73958
1.69907
1.6529
0.0984153
0.165699
0.205216
0.235057
0.260713
0.284346
0.30709
0.329618
0.352379
0.375685
0.399762
0.424771
0.450826
0.478005
0.506364
0.535949
0.566799
0.598935
0.632354
0.667032
0.702931
0.74
0.778175
0.817384
0.857553
0.898612
0.94049
0.983119
1.02644
1.07039
1.11491
1.15996
1.20549
1.25147
1.29784
1.34459
1.39168
1.43909
1.4868
1.53478
1.58304
1.63155
1.68031
1.72932
1.77858
1.82809
1.87785
1.92788
1.97817
2.02875
2.07963
2.13081
2.18231
2.23414
2.28632
2.33885
2.39175
2.44502
2.49867
2.55269
2.6071
2.66189
2.71704
2.77254
2.82838
2.88453
2.94095
2.99761
3.05447
3.11146
3.16854
3.22562
3.28264
3.33951
3.39614
3.45241
3.50822
3.56346
3.61799
3.67168
3.72439
3.77598
3.8263
3.87521
3.92256
3.96822
4.01204
4.05388
4.09364
4.13118
4.16643
4.19929
4.2297
4.25762
4.28302
4.30589
4.32623
4.34409
4.35949
4.37252
4.38324
4.39176
4.39817
4.4026
4.40486
4.40513
4.40357
4.40063
4.39632
4.3907
4.38385
4.3759
4.36694
4.35706
4.34634
4.33483
4.32261
4.30975
4.29626
4.28221
4.2676
4.25244
4.23675
4.22054
4.20381
4.18655
4.16872
4.15033
4.13134
4.1117
4.09138
4.0703
4.04842
4.02567
4.00198
3.97727
3.95146
3.92444
3.89614
3.86645
3.83527
3.80251
3.76805
3.7318
3.69368
3.65364
3.61161
3.56756
3.5215
3.47345
3.42345
3.37161
3.31804
3.26289
3.20632
3.14851
3.08969
3.03
2.96959
2.90854
2.847
2.7851
2.72301
2.66089
2.5989
2.53719
2.47591
2.41522
2.35526
2.29614
2.23797
2.18089
2.12506
2.07061
2.01777
1.96675
1.91779
1.87136
1.8284
1.78227
0.115504
0.188605
0.232109
0.26499
0.29313
0.31888
0.343473
0.367657
0.391932
0.416656
0.442093
0.468439
0.495838
0.524393
0.554175
0.585233
0.617598
0.651282
0.686282
0.722573
0.760118
0.798869
0.838769
0.879752
0.921756
0.964716
1.00857
1.05325
1.09871
1.14488
1.19172
1.23919
1.28723
1.3358
1.38488
1.43442
1.48439
1.53477
1.58554
1.63666
1.68814
1.73995
1.79208
1.84452
1.89729
1.95036
2.00376
2.05747
2.11152
2.16592
2.22066
2.27578
2.33127
2.38717
2.44347
2.50021
2.55738
2.61501
2.67311
2.73168
2.79072
2.85024
2.91024
2.97071
3.03164
3.09299
3.15476
3.21691
3.27939
3.34216
3.40516
3.46832
3.53156
3.59481
3.65795
3.72088
3.78349
3.84564
3.9072
3.96801
4.02792
4.08677
4.14439
4.20061
4.25526
4.30816
4.35914
4.40804
4.4547
4.49899
4.54075
4.57989
4.61631
4.64993
4.6807
4.70857
4.73355
4.75563
4.77484
4.79125
4.8049
4.8159
4.82434
4.83034
4.83374
4.83471
4.8335
4.83041
4.8255
4.81886
4.81062
4.80089
4.78978
4.77739
4.76382
4.74914
4.73344
4.71678
4.69921
4.6808
4.66158
4.64156
4.62079
4.59928
4.57704
4.55408
4.53039
4.50595
4.48078
4.45482
4.42807
4.40048
4.372
4.34261
4.31223
4.28082
4.24831
4.21462
4.17967
4.14338
4.10567
4.06643
4.02558
3.98303
3.9387
3.89253
3.84448
3.79452
3.74266
3.68896
3.63346
3.57629
3.51756
3.45742
3.39603
3.33356
3.27021
3.20611
3.14139
3.07616
3.01055
2.9447
2.87876
2.81289
2.74724
2.68198
2.61727
2.55325
2.49006
2.42783
2.3667
2.30678
2.24825
2.19125
2.13607
2.08292
2.03211
1.98409
1.9394
1.89296
0.130747
0.208542
0.25547
0.291021
0.321377
0.349031
0.375287
0.400942
0.426534
0.452452
0.478992
0.506377
0.534775
0.564311
0.595073
0.627121
0.66049
0.695194
0.731232
0.768584
0.807218
0.847094
0.888162
0.930368
0.973656
1.01797
1.06325
1.10945
1.15651
1.20438
1.25302
1.30237
1.35241
1.40308
1.45436
1.50621
1.55859
1.61148
1.66485
1.71867
1.77294
1.82763
1.88273
1.93822
1.99412
2.0504
2.10708
2.16416
2.22164
2.27953
2.33786
2.39662
2.45585
2.51555
2.57574
2.63645
2.69768
2.75946
2.8218
2.88471
2.94822
3.01231
3.077
3.14229
3.20816
3.27461
3.34162
3.40916
3.47719
3.54567
3.61455
3.68376
3.75323
3.82287
3.89258
3.96225
4.03175
4.10095
4.1697
4.23782
4.30516
4.37153
4.43674
4.50058
4.56287
4.62338
4.68193
4.73831
4.79232
4.84379
4.89254
4.93842
4.98131
5.02108
5.05766
5.09099
5.12101
5.14771
5.17111
5.19124
5.20815
5.22192
5.23263
5.2404
5.24516
5.24701
5.24625
5.2431
5.23763
5.23
5.22034
5.20876
5.1954
5.18037
5.16377
5.14571
5.12627
5.10553
5.08356
5.06044
5.03621
5.01092
4.98461
4.95731
4.92905
4.89985
4.86971
4.83865
4.80668
4.77378
4.73996
4.70519
4.66947
4.63277
4.59507
4.55632
4.51649
4.47552
4.43337
4.38997
4.34524
4.29912
4.25152
4.20237
4.15161
4.09918
4.04506
3.98923
3.93173
3.87261
3.81194
3.74982
3.6864
3.62179
3.55616
3.48966
3.42244
3.35464
3.28636
3.21773
3.14883
3.07982
3.01082
2.94199
2.87347
2.80542
2.73801
2.67137
2.60566
2.54101
2.47754
2.4154
2.35474
2.29575
2.23868
2.1838
2.1314
2.08189
2.03556
1.98854
0.143949
0.225415
0.275192
0.313018
0.3453
0.374632
0.402366
0.429328
0.456078
0.483025
0.510484
0.538694
0.567845
0.598078
0.629497
0.662174
0.696155
0.731464
0.768106
0.806071
0.845336
0.88587
0.927633
0.970582
1.01467
1.05985
1.10608
1.1533
1.20147
1.25055
1.30049
1.35126
1.40281
1.45511
1.50811
1.5618
1.61613
1.67108
1.72662
1.78272
1.83937
1.89654
1.95421
2.01239
2.07105
2.13019
2.18982
2.24994
2.31055
2.37166
2.43328
2.49543
2.55813
2.62139
2.68524
2.74969
2.81476
2.88048
2.94687
3.01394
3.08171
3.15019
3.2194
3.28934
3.36
3.43139
3.50349
3.57628
3.64973
3.72381
3.79846
3.87363
3.94924
4.02521
4.10145
4.17783
4.25423
4.33051
4.4065
4.48203
4.55692
4.63096
4.70393
4.77561
4.84578
4.91419
4.9806
5.04478
5.10649
5.16551
5.22163
5.27465
5.3244
5.37074
5.41354
5.45271
5.48816
5.51987
5.54782
5.57202
5.5925
5.60934
5.62262
5.63242
5.63877
5.6417
5.64156
5.63848
5.6326
5.62407
5.61303
5.59964
5.58402
5.5663
5.54661
5.52505
5.50173
5.47675
5.45019
5.42213
5.39264
5.36177
5.32959
5.29614
5.26147
5.2256
5.18857
5.15041
5.11114
5.07079
5.02936
4.98687
4.94334
4.89877
4.85316
4.80651
4.7588
4.71003
4.66016
4.60915
4.55697
4.50356
4.44886
4.39284
4.33543
4.27663
4.21641
4.15477
4.09177
4.02744
3.96189
3.89521
3.82751
3.75893
3.6896
3.61964
3.54919
3.47836
3.40723
3.33591
3.26448
3.19305
3.12174
3.05069
2.98003
2.90991
2.8405
2.77194
2.70437
2.63792
2.57272
2.50893
2.44669
2.38621
2.32771
2.27148
2.21778
2.16699
2.11919
2.07139
0.155033
0.239277
0.291355
0.331067
0.364975
0.395748
0.424763
0.452863
0.48062
0.50845
0.536675
0.565546
0.595262
0.625977
0.657808
0.69084
0.725131
0.760716
0.797613
0.835821
0.875332
0.916125
0.958174
1.00145
1.04591
1.09152
1.13824
1.18604
1.23487
1.2847
1.33549
1.3872
1.4398
1.49326
1.54755
1.60263
1.65847
1.71505
1.77233
1.83029
1.88891
1.94817
2.00805
2.06853
2.12961
2.19128
2.25354
2.31639
2.37983
2.44387
2.50852
2.5738
2.63972
2.70631
2.77357
2.84155
2.91025
2.9797
3.04993
3.12095
3.19279
3.26546
3.33899
3.41337
3.48863
3.56475
3.64175
3.71959
3.79826
3.87774
3.95797
4.03891
4.1205
4.20264
4.28524
4.3682
4.45138
4.53463
4.6178
4.70069
4.7831
4.86481
4.94559
5.02519
5.10335
5.17979
5.25425
5.32643
5.39608
5.4629
5.52667
5.58712
5.64406
5.69729
5.74665
5.79199
5.83323
5.87028
5.9031
5.9317
5.95608
5.97629
5.99241
6.00453
6.0127
6.01699
6.01766
6.01487
6.00874
5.99945
5.98716
5.97204
5.95424
5.93388
5.91112
5.88607
5.85885
5.82957
5.79833
5.76522
5.73032
5.6937
5.65545
5.61562
5.57426
5.53144
5.48721
5.4416
5.39466
5.34645
5.297
5.24636
5.19456
5.14165
5.08765
5.03261
4.97654
4.91948
4.86141
4.80236
4.7423
4.68124
4.61914
4.55599
4.49177
4.42649
4.36015
4.29277
4.22439
4.15508
4.08491
4.014
3.94244
3.87034
3.79782
3.72498
3.65191
3.57869
3.5054
3.43209
3.35883
3.28571
3.21283
3.14028
3.06819
2.99671
2.92599
2.85618
2.78739
2.71976
2.65342
2.58852
2.52523
2.46373
2.40426
2.34706
2.29239
2.24058
2.19157
2.14303
0.164004
0.250264
0.304144
0.34537
0.380608
0.412574
0.442662
0.471721
0.500325
0.52889
0.557739
0.587125
0.617251
0.648278
0.680332
0.713506
0.747871
0.783473
0.820343
0.858494
0.89793
0.938646
0.980629
1.02386
1.06831
1.11396
1.16078
1.20875
1.25782
1.30798
1.35919
1.41142
1.46465
1.51884
1.57397
1.63002
1.68695
1.74475
1.80337
1.8628
1.92301
1.98399
2.04571
2.10815
2.17132
2.23519
2.29978
2.36506
2.43105
2.49776
2.56519
2.63336
2.70227
2.77196
2.84243
2.91372
2.98584
3.05882
3.13268
3.20744
3.28314
3.35979
3.43741
3.51602
3.59563
3.67625
3.75788
3.84051
3.92414
4.00873
4.09427
4.18069
4.26795
4.35597
4.44466
4.53392
4.62361
4.71359
4.80369
4.89372
4.98347
5.0727
5.16117
5.24859
5.33468
5.41914
5.50165
5.58189
5.65956
5.73432
5.80588
5.87395
5.93828
5.99862
6.05477
6.10656
6.15384
6.19651
6.2345
6.26778
6.29634
6.32021
6.33946
6.35417
6.36442
6.37032
6.37204
6.36976
6.36359
6.35373
6.34037
6.32369
6.30384
6.28098
6.25525
6.22679
6.19574
6.1622
6.12629
6.08812
6.04778
6.00536
5.96095
5.91462
5.86645
5.81651
5.76486
5.71158
5.65673
5.60038
5.5426
5.48347
5.42305
5.36142
5.29865
5.2348
5.16996
5.10419
5.03753
4.97005
4.90177
4.83275
4.76299
4.69251
4.62134
4.54951
4.47704
4.40397
4.33034
4.25624
4.18173
4.10691
4.03188
3.95671
3.88151
3.80632
3.73123
3.65626
3.58146
3.50685
3.43248
3.35839
3.28465
3.21132
3.1385
3.06635
2.99501
2.9246
2.85524
2.78706
2.72016
2.65471
2.59088
2.52885
2.46885
2.41109
2.3558
2.30326
2.25335
2.20423
0.170926
0.258556
0.313789
0.356184
0.392461
0.425371
0.456314
0.486141
0.51542
0.544566
0.573894
0.603657
0.634055
0.66525
0.697373
0.730523
0.764779
0.800198
0.836823
0.87468
0.913789
0.954157
0.995785
1.03867
1.08279
1.12815
1.17473
1.22251
1.27146
1.32158
1.37282
1.42519
1.47864
1.53318
1.58878
1.64541
1.70305
1.76169
1.8213
1.88184
1.9433
2.00566
2.06889
2.13299
2.19794
2.26374
2.33038
2.39784
2.46615
2.53529
2.60528
2.67612
2.74783
2.82043
2.89392
2.96833
3.04369
3.12
3.1973
3.27561
3.35496
3.43536
3.51683
3.59941
3.68311
3.76793
3.85389
3.94099
4.02922
4.11857
4.20902
4.30053
4.39305
4.48653
4.58087
4.67598
4.77174
4.86802
4.96463
5.0614
5.1581
5.2545
5.35032
5.44527
5.53904
5.6313
5.72169
5.80986
5.89545
5.97809
6.05744
6.13316
6.20494
6.27249
6.33557
6.39395
6.44746
6.49594
6.53931
6.57749
6.61046
6.63825
6.66089
6.67845
6.69104
6.69878
6.7018
6.70028
6.6943
6.68408
6.66987
6.65182
6.63012
6.60492
6.5764
6.54469
6.50993
6.47226
6.43179
6.38864
6.34292
6.29474
6.24418
6.19133
6.13631
6.07917
6.02002
5.95894
5.89602
5.83136
5.76505
5.69719
5.62789
5.55727
5.48542
5.41247
5.33854
5.26375
5.1882
5.11199
5.03523
4.95801
4.88039
4.80243
4.72421
4.64577
4.56721
4.48852
4.40979
4.33109
4.2525
4.1741
4.09597
4.01818
3.94078
3.86381
3.78728
3.71119
3.63555
3.56033
3.48555
3.4112
3.33732
3.26393
3.19108
3.11895
3.04769
2.97736
2.90808
2.83995
2.77309
2.70764
2.6438
2.58174
2.52166
2.46376
2.40822
2.35529
2.3048
2.25537
0.175863
0.264343
0.320532
0.363775
0.400816
0.434422
0.465998
0.496391
0.526165
0.555728
0.585388
0.61539
0.645932
0.677171
0.709236
0.742233
0.776244
0.811336
0.847559
0.884956
0.923556
0.96338
1.00444
1.04674
1.09029
1.13509
1.18116
1.22849
1.27703
1.32678
1.37775
1.42992
1.48329
1.53785
1.59359
1.65049
1.70855
1.76773
1.82802
1.8894
1.95185
2.01532
2.07978
2.14527
2.21179
2.27929
2.34776
2.41721
2.48764
2.55905
2.63143
2.7048
2.77916
2.85452
2.93089
3.00828
3.08672
3.16621
3.24679
3.32846
3.41124
3.49517
3.58026
3.66654
3.75401
3.84271
3.93263
4.0238
4.11621
4.20985
4.30472
4.40078
4.49801
4.59635
4.69573
4.79607
4.89727
4.99919
5.10168
5.20455
5.30759
5.41054
5.51315
5.61509
5.71604
5.81564
5.9135
6.00924
6.10244
6.19271
6.27964
6.36285
6.44198
6.51669
6.58667
6.65167
6.71146
6.76585
6.81471
6.85794
6.8955
6.92738
6.95361
6.97426
6.98941
6.9992
7.00377
7.00322
6.99769
6.98735
6.97249
6.95331
6.92998
6.90267
6.87155
6.83678
6.79851
6.75687
6.712
6.66401
6.61304
6.55919
6.50256
6.44327
6.38142
6.31712
6.25046
6.18155
6.11051
6.03745
5.9625
5.8858
5.80748
5.7277
5.6466
5.56436
5.48114
5.39712
5.31247
5.22736
5.14193
5.05636
4.97077
4.88524
4.79991
4.71486
4.63008
4.54567
4.4618
4.37856
4.29606
4.21434
4.13349
4.05353
3.97448
3.89632
3.81902
3.74254
3.66682
3.59179
3.5174
3.44362
3.37042
3.2978
3.2257
3.15436
3.08388
3.01432
2.94578
2.87835
2.81213
2.74724
2.68392
2.62234
2.56266
2.50504
2.44966
2.39672
2.34602
2.29658
0.179086
0.267855
0.324622
0.368412
0.40595
0.440007
0.471991
0.502745
0.532829
0.562641
0.592484
0.622595
0.653161
0.684337
0.716249
0.749
0.782676
0.81735
0.85308
0.88992
0.927912
0.967088
1.00745
1.04901
1.09182
1.13589
1.18126
1.22796
1.27591
1.32513
1.37563
1.42743
1.48051
1.53488
1.59055
1.6475
1.70573
1.76524
1.826
1.888
1.95122
2.01563
2.08121
2.14801
2.21598
2.28508
2.35525
2.42656
2.49901
2.5726
2.6473
2.72312
2.80005
2.8781
2.95727
3.03756
3.11899
3.20154
3.28525
3.37012
3.45616
3.54339
3.63184
3.72151
3.81242
3.9046
3.99806
4.09281
4.18885
4.2862
4.38485
4.48477
4.58597
4.68839
4.792
4.89672
5.00247
5.10914
5.21659
5.32464
5.4331
5.54173
5.65025
5.75835
5.86569
5.97188
6.07653
6.1792
6.27946
6.37685
6.47092
6.56125
6.64741
6.72902
6.80573
6.87721
6.9432
7.00346
7.05782
7.10615
7.14838
7.18446
7.21442
7.23829
7.25618
7.26821
7.27454
7.27513
7.27032
7.26006
7.2448
7.2247
7.19997
7.17077
7.13729
7.09968
7.05811
7.01271
6.96363
6.911
6.85494
6.79558
6.73303
6.66742
6.59886
6.52748
6.45338
6.3767
6.29757
6.21613
6.13254
6.04697
5.9596
5.87062
5.78021
5.6886
5.59601
5.50268
5.40885
5.31474
5.22057
5.12645
5.03249
4.93904
4.84631
4.75442
4.66369
4.57423
4.48591
4.39884
4.31309
4.22871
4.14575
4.06422
3.98409
3.90531
3.8278
3.75147
3.6762
3.60189
3.52843
3.45575
3.38378
3.31246
3.24159
3.17179
3.10289
3.03489
2.96785
2.90185
2.83695
2.77327
2.71105
2.65047
2.59168
2.53481
2.48001
2.42744
2.3769
2.3278
0.180438
0.269224
0.326263
0.370329
0.408112
0.442385
0.474558
0.505473
0.535684
0.565586
0.595473
0.625573
0.656067
0.687101
0.718797
0.751255
0.784561
0.818787
0.854
0.890261
0.927633
0.966195
1.00589
1.04677
1.08888
1.13223
1.17685
1.22274
1.26994
1.31847
1.36837
1.41966
1.47235
1.52646
1.58199
1.63895
1.69735
1.75719
1.81845
1.88113
1.94519
2.01062
2.07737
2.14545
2.21484
2.28554
2.35743
2.43065
2.50516
2.58096
2.65801
2.73631
2.81584
2.89659
2.97856
3.06173
3.14608
3.23163
3.31835
3.40626
3.49536
3.58565
3.67715
3.76986
3.8638
3.95899
4.05543
4.15315
4.25215
4.35245
4.45404
4.55694
4.66114
4.76663
4.87337
4.98134
5.09046
5.20066
5.31184
5.42383
5.53647
5.64953
5.76276
5.87584
5.98843
6.10014
6.21054
6.31919
6.42561
6.52932
6.62982
6.72663
6.81927
6.90732
6.99035
7.06799
7.13993
7.20588
7.26561
7.31897
7.36583
7.40613
7.43986
7.46706
7.4878
7.5022
7.51047
7.51233
7.50846
7.4985
7.48304
7.46226
7.43634
7.40549
7.36987
7.32966
7.28502
7.23609
7.18302
7.12595
7.06501
7.00034
6.93205
6.86029
6.78518
6.70686
6.62546
6.54113
6.45403
6.36431
6.27218
6.17781
6.08146
5.98333
5.88367
5.78273
5.6808
5.57797
5.47462
5.37113
5.2679
5.16534
5.06384
4.96336
4.86417
4.76639
4.67055
4.57606
4.48333
4.39251
4.30368
4.2169
4.13219
4.04953
3.96884
3.89003
3.81296
3.73748
3.66341
3.5906
3.51888
3.44812
3.3782
3.30902
3.24033
3.17258
3.10568
3.03966
2.97454
2.9104
2.84726
2.78519
2.72468
2.6657
2.60835
2.55275
2.49901
2.44727
2.39729
2.34888
0.180142
0.268649
0.32564
0.369697
0.407471
0.441728
0.473882
0.504772
0.534953
0.564813
0.594642
0.624661
0.655043
0.685929
0.717434
0.749652
0.782667
0.816549
0.851358
0.887146
0.923953
0.961811
1.00078
1.04093
1.08231
1.12496
1.16894
1.21426
1.26095
1.30905
1.3586
1.40963
1.46217
1.51624
1.57187
1.62907
1.68786
1.74826
1.8103
1.87388
1.93901
2.00568
2.07387
2.14356
2.21473
2.28736
2.36135
2.43677
2.51361
2.59186
2.67149
2.75247
2.83478
2.91841
3.0033
3.08942
3.17675
3.26526
3.35493
3.44574
3.53769
3.63076
3.72496
3.82029
3.91675
4.01434
4.11309
4.213
4.31409
4.41637
4.51987
4.6246
4.73058
4.83781
4.94631
5.05607
5.16707
5.27926
5.39258
5.50692
5.62212
5.73803
5.8544
5.97095
6.08732
6.20314
6.31798
6.43136
6.5428
6.65177
6.75775
6.86019
6.95859
7.05244
7.14126
7.22464
7.30218
7.37354
7.43846
7.49671
7.54812
7.59261
7.63013
7.66068
7.68433
7.7012
7.71149
7.71476
7.71196
7.70247
7.68698
7.66566
7.63873
7.60637
7.56877
7.5261
7.47852
7.42619
7.36925
7.30786
7.24214
7.17223
7.09829
7.02044
6.93883
6.85361
6.76494
6.673
6.57794
6.47996
6.37928
6.27612
6.17065
6.06307
5.95378
5.84315
5.7315
5.61964
5.50764
5.39576
5.28452
5.17457
5.06538
4.95763
4.85169
4.74776
4.64615
4.54687
4.4501
4.35598
4.26458
4.17597
4.09011
4.00697
3.92642
3.8483
3.77243
3.69859
3.62653
3.55603
3.48686
3.41883
3.35178
3.28556
3.22003
3.15527
3.0913
3.02812
2.96575
2.90425
2.84362
2.7839
2.72549
2.66845
2.61287
2.55886
2.50651
2.45593
2.40684
2.3595
0.179201
0.266782
0.323283
0.36701
0.404516
0.438541
0.470491
0.501205
0.53123
0.560953
0.590655
0.620553
0.650812
0.681565
0.712923
0.744976
0.777806
0.811486
0.846086
0.881674
0.918307
0.956031
0.9949
1.03498
1.07634
1.11899
1.16298
1.20836
1.25519
1.30351
1.35337
1.40481
1.45787
1.51258
1.56898
1.62708
1.68692
1.7485
1.81182
1.8768
1.94348
2.01184
2.08189
2.15359
2.22694
2.30191
2.37847
2.45659
2.53622
2.61732
2.69986
2.78377
2.86901
2.95552
3.04326
3.13217
3.22222
3.31335
3.40553
3.49873
3.59291
3.68806
3.78415
3.88118
3.97914
4.07804
4.17788
4.27867
4.38043
4.48319
4.58697
4.69181
4.79776
4.90485
5.01313
5.12264
5.2334
5.34541
5.45868
5.57312
5.68864
5.80515
5.92244
6.04025
6.15826
6.27611
6.39338
6.50959
6.62424
6.73678
6.84667
6.95333
7.05619
7.1547
7.24832
7.33655
7.41895
7.4951
7.56468
7.62739
7.68304
7.73146
7.77259
7.80639
7.8329
7.85221
7.8644
7.86942
7.86772
7.85897
7.84362
7.822
7.7943
7.7607
7.72139
7.67655
7.62634
7.57091
7.51041
7.445
7.37481
7.29999
7.2207
7.13708
7.0493
6.95751
6.86189
6.76254
6.65968
6.55356
6.4444
6.33255
6.21841
6.10232
5.98452
5.86542
5.74539
5.62526
5.50471
5.38445
5.26505
5.14698
5.03045
4.9159
4.80373
4.69422
4.58767
4.48423
4.38408
4.28736
4.19413
4.10444
4.01824
3.93543
3.85584