/*--------------------------------*- C++ -*----------------------------------*\
  =========                 |
  \\      /  F ield         | OpenFOAM: The Open Source CFD Toolbox
   \\    /   O peration     | Website:  https://openfoam.org
    \\  /    A nd           | Version:  8
     \\/     M anipulation  |
\*---------------------------------------------------------------------------*/
FoamFile
{
    version     2.0;
    format      ascii;
    class       volScalarField;
    location    "115";
    object      nut;
}
// * * * * * * * * * * * * * * * * * * * * * * * * * * * * * * * * * * * * * //

dimensions      [0 2 -1 0 0 0 0];

internalField   nonuniform List<scalar> 
12225
(
4.14969e-05
3.93428e-05
3.7482e-05
3.5435e-05
3.37805e-05
3.24258e-05
3.15026e-05
3.0914e-05
3.09183e-05
3.11007e-05
3.15659e-05
3.21288e-05
3.31414e-05
3.38739e-05
3.50443e-05
3.60582e-05
3.71212e-05
3.72976e-05
0.000332391
0.000215166
0.000179313
0.000157633
0.000146245
0.000138161
0.00013268
0.000131746
0.000129398
0.000130187
0.00012892
0.000129586
0.000128519
0.00012873
0.000127946
0.000127562
0.000127475
0.000126564
0.000675139
0.000450685
0.000355877
0.000309725
0.000275377
0.000250987
0.00023177
0.000217174
0.000202635
0.000192104
0.000182555
0.00017513
0.000169316
0.000163502
0.000160243
0.000155235
0.000153642
0.000149408
0.000833758
0.000684746
0.000572148
0.00049982
0.00044958
0.000411815
0.000380857
0.000355869
0.00033405
0.000314615
0.000298334
0.000281493
0.00027026
0.000255768
0.000248011
0.000235746
0.00022982
0.000219638
0.000861307
0.000802506
0.000742237
0.000676435
0.000624111
0.000581246
0.000545946
0.000514424
0.000489561
0.000464269
0.000445848
0.000423861
0.000409818
0.000390517
0.000379551
0.000362663
0.000353751
0.000338507
0.000854993
0.00084035
0.000822247
0.000786413
0.000750944
0.000715813
0.000685813
0.000656035
0.000632565
0.000607398
0.000588956
0.000567083
0.000552136
0.000532844
0.000520449
0.000503282
0.000492636
0.000476589
0.000852912
0.000850686
0.000844245
0.000832824
0.000817441
0.000796955
0.000777911
0.000756681
0.000738898
0.000719071
0.000703484
0.000685504
0.000671993
0.00065572
0.000644038
0.000629156
0.000618996
0.000604463
0.000851925
0.00085181
0.000850178
0.000847388
0.000841459
0.000833722
0.000824897
0.000813389
0.0008028
0.00079043
0.000779676
0.000767466
0.000757332
0.000745642
0.000736353
0.000725265
0.000716807
0.000705574
0.000851753
0.000851539
0.000851037
0.000850335
0.000848882
0.000846164
0.000843035
0.000838293
0.000833395
0.000827342
0.000821189
0.000814733
0.000808352
0.000801444
0.000795128
0.000788263
0.000781962
0.000774961
0.000851771
0.000851388
0.000851047
0.000850631
0.000850248
0.000849365
0.000848405
0.000846776
0.000844951
0.000842521
0.00083991
0.000836779
0.000833765
0.00083011
0.000826912
0.000822848
0.000819794
0.000815145
0.000851788
0.000851358
0.000851012
0.000850613
0.000850329
0.000849904
0.000849525
0.000848926
0.0008483
0.000847388
0.000846459
0.000845167
0.000843977
0.000842332
0.000840971
0.000838997
0.000837598
0.000835305
0.000851789
0.000851359
0.000850996
0.000850605
0.000850291
0.000849937
0.000849645
0.000849279
0.000848953
0.000848501
0.000848095
0.000847502
0.000846991
0.000846235
0.000845631
0.000844707
0.000844043
0.000842958
0.000851786
0.000851362
0.000850985
0.000850604
0.000850269
0.000849925
0.000849629
0.000849312
0.000849041
0.000848727
0.00084846
0.000848123
0.000847841
0.000847462
0.000847153
0.000846723
0.000846385
0.000845901
0.000851783
0.000851364
0.000850978
0.000850601
0.000850256
0.000849916
0.000849607
0.000849299
0.000849022
0.00084874
0.000848487
0.000848223
0.000847988
0.000847735
0.000847509
0.00084726
0.000847037
0.00084679
0.000851781
0.000851364
0.000850973
0.000850598
0.000850246
0.000849908
0.000849591
0.000849286
0.000849
0.000848723
0.000848464
0.000848212
0.000847976
0.000847747
0.000847531
0.000847321
0.000847122
0.000846928
0.00085178
0.000851363
0.000850969
0.000850594
0.000850239
0.000849901
0.00084958
0.000849275
0.000848985
0.000848708
0.000848444
0.000848193
0.000847953
0.000847725
0.000847507
0.000847299
0.0008471
0.000846911
0.000851779
0.000851362
0.000850967
0.000850591
0.000850234
0.000849895
0.000849572
0.000849266
0.000848974
0.000848695
0.00084843
0.000848177
0.000847936
0.000847705
0.000847485
0.000847275
0.000847075
0.000846883
0.000851779
0.000851362
0.000850965
0.000850588
0.000850231
0.00084989
0.000849567
0.000849259
0.000848966
0.000848686
0.00084842
0.000848165
0.000847922
0.00084769
0.000847469
0.000847257
0.000847055
0.000846862
0.000851779
0.000851362
0.000850965
0.000850588
0.00085023
0.000849889
0.000849565
0.000849256
0.000848962
0.000848682
0.000848415
0.000848159
0.000847915
0.000847682
0.00084746
0.000847247
0.000847043
0.000846848
0.000851779
0.000851362
0.000850965
0.000850589
0.000850231
0.000849891
0.000849567
0.000849259
0.000848965
0.000848685
0.000848418
0.000848163
0.000847918
0.000847685
0.000847461
0.000847248
0.000847043
0.000846847
0.000851779
0.000851363
0.000850967
0.000850592
0.000850235
0.000849896
0.000849573
0.000849267
0.000848972
0.000848694
0.000848424
0.000848169
0.00084792
0.000847684
0.000847452
0.000847232
0.000847013
0.000846807
0.000851778
0.000851366
0.000850968
0.000850599
0.00085024
0.000849907
0.00084958
0.000849274
0.000848964
0.000848671
0.000848365
0.000848072
0.000847756
0.000847455
0.000847122
0.000846811
0.000846456
0.000846135
0.000851777
0.000851374
0.000850971
0.000850615
0.00085024
0.000849889
0.000849478
0.000849054
0.000848529
0.000847978
0.0008473
0.000846604
0.000845766
0.000844938
0.000843953
0.000843027
0.000841914
0.000840936
0.000851802
0.00085141
0.00085097
0.000850549
0.000849861
0.000848967
0.000847607
0.000845979
0.000843903
0.000841635
0.000838953
0.000836212
0.000833114
0.00083011
0.000826758
0.000823673
0.000820176
0.000817167
0.000852138
0.000851403
0.000850234
0.000848252
0.000844472
0.000839355
0.000832711
0.000825762
0.000817913
0.000809999
0.000801613
0.000793623
0.000785326
0.000777699
0.000769733
0.000762687
0.000755107
0.000748774
0.000854143
0.000847718
0.000840125
0.000827121
0.000808709
0.000789645
0.000769973
0.000751414
0.000733303
0.00071689
0.000700929
0.000686773
0.000672821
0.000660658
0.000648363
0.000637921
0.00062693
0.000617992
0.000854972
0.000818336
0.000776232
0.000726631
0.000684941
0.000649853
0.000618462
0.000592017
0.000568381
0.000548305
0.000529684
0.000513983
0.00049874
0.000486003
0.000473187
0.000462688
0.0004516
0.000442778
0.000807489
0.000666876
0.000570555
0.000509852
0.000465652
0.00043119
0.000404136
0.000382496
0.000364195
0.00034906
0.000335939
0.00032507
0.000314474
0.000306237
0.000297954
0.000291354
0.000284267
0.000278912
0.000501855
0.000348403
0.000292691
0.000259173
0.000236324
0.000221176
0.000211545
0.000204013
0.000198481
0.000195056
0.000192218
0.000190365
0.000188582
0.000187436
0.000186164
0.000185472
0.000184556
0.000184143
7.27286e-05
7.0223e-05
6.79539e-05
6.56135e-05
6.33827e-05
6.12764e-05
5.94929e-05
5.79572e-05
5.67102e-05
5.57029e-05
5.49775e-05
5.44184e-05
5.41085e-05
5.38876e-05
5.38765e-05
5.3963e-05
5.40725e-05
5.43242e-05
2.78223e-06
3.97226e-05
6.15463e-05
8.13872e-05
0.000100263
0.000118352
0.000135565
0.000151801
0.00016715
0.000181975
0.000196958
0.000213267
0.000235097
0.000250796
0.000258271
0.000268774
0.000282909
0.000319953
0.000284567
0.000279368
0.000254495
4.69813e-05
4.96707e-05
5.14421e-05
5.33978e-05
5.52525e-05
5.70819e-05
5.88813e-05
6.06488e-05
6.23877e-05
6.40913e-05
6.57633e-05
6.73982e-05
6.90001e-05
7.0565e-05
7.20975e-05
7.35949e-05
7.5062e-05
7.64971e-05
7.79053e-05
7.92867e-05
8.06442e-05
8.19776e-05
8.32903e-05
8.45823e-05
8.58564e-05
8.71128e-05
8.83538e-05
8.95798e-05
9.07924e-05
9.19921e-05
9.31798e-05
9.43563e-05
9.55217e-05
9.66769e-05
9.78215e-05
9.89564e-05
0.00010008
0.000101195
0.000102298
0.000103391
0.000104471
0.00010554
0.000106596
0.000107638
0.000108664
0.000109676
0.000110669
0.000111644
0.000112598
0.000113531
0.000114438
0.00011532
0.000116171
0.000116992
0.000117778
0.000118535
0.000119271
0.000119955
0.000120604
0.000121222
0.000121802
0.000122344
0.000122846
0.000123307
0.000123726
0.0001241
0.000124429
0.000124711
0.000124947
0.000125139
0.000125285
0.000125385
0.00012544
0.000125453
0.000125426
0.00012536
0.000125261
0.000125132
0.000124976
0.000124845
0.000124669
0.000124415
0.000124188
0.000123999
0.000123636
0.000123233
0.000122928
0.000122524
0.000121942
0.000121559
0.000121226
0.000120493
0.000120321
0.000119777
0.000119864
0.000119102
0.000119045
0.000118891
0.000118034
0.000118062
0.000117931
0.000118192
0.000117011
0.000117194
0.000116994
0.000117039
0.000116626
0.000116725
0.00011638
0.000116387
0.000115785
0.000115651
0.000115281
0.000115012
0.000114685
0.000114353
0.000113997
0.00011362
0.000113221
0.000112798
0.00011235
0.000111888
0.000111392
0.000110863
0.000110297
0.000109697
0.000109056
0.000108365
0.000107625
0.000106859
0.000106044
0.000105215
0.000104331
0.000103294
0.00010244
0.000101397
9.93653e-05
9.83845e-05
9.77308e-05
9.70842e-05
9.64203e-05
9.57224e-05
9.49755e-05
9.42478e-05
9.34999e-05
9.26782e-05
9.18176e-05
9.09723e-05
9.01017e-05
8.91873e-05
8.83174e-05
8.73943e-05
8.6437e-05
8.54551e-05
8.44498e-05
8.34482e-05
8.22192e-05
8.15373e-05
7.85565e-05
7.08956e-06
7.01527e-05
0.000139717
0.000191166
0.000227837
0.000255133
0.000276508
0.000293941
0.000308763
0.00032192
0.000333802
0.000344215
0.000354007
0.000361884
0.000367106
0.000370251
0.000371376
0.000370964
0.000364528
0.000352094
0.000330715
0.000301608
0.000308244
0.000319396
0.000331401
0.000343898
0.000356771
0.000370006
0.000383543
0.000397327
0.000411279
0.000425342
0.000439452
0.000453562
0.000467618
0.000481584
0.000495415
0.000509087
0.00052256
0.000535841
0.000548969
0.000561949
0.000574781
0.000587481
0.000600052
0.000612516
0.000624879
0.000637166
0.000649384
0.000661558
0.000673698
0.000685828
0.000697956
0.000710103
0.000722277
0.000734494
0.00074676
0.000759088
0.00077148
0.000783947
0.000796484
0.000809099
0.000821786
0.000834544
0.000847362
0.000860237
0.000873154
0.000886102
0.000899062
0.000912018
0.000924943
0.000937811
0.000950585
0.000963221
0.000975648
0.000987768
0.000999406
0.00101025
0.0010205
0.00103049
0.00104016
0.00104948
0.00105843
0.00106699
0.00107511
0.00108278
0.00108996
0.00109666
0.00110283
0.00110848
0.00111358
0.00111811
0.00112208
0.00112549
0.00112834
0.00113066
0.00113245
0.00113377
0.00113463
0.00113507
0.00113511
0.00113448
0.00113355
0.00113237
0.00113038
0.00112809
0.00112569
0.00112307
0.00112013
0.00111761
0.00111513
0.00111128
0.0011074
0.00110539
0.00110124
0.00109879
0.0010945
0.00109291
0.00109046
0.00108664
0.00108653
0.00108468
0.00108231
0.00107994
0.00108003
0.00107947
0.0010784
0.00107686
0.00107664
0.001077
0.00107625
0.00107509
0.00107373
0.00107372
0.00107333
0.00107302
0.00107264
0.00107217
0.00107158
0.00107079
0.00106977
0.00106844
0.00106676
0.00106481
0.00106254
0.0010599
0.00105689
0.00105347
0.0010496
0.00104522
0.00104034
0.00103493
0.00102911
0.00102295
0.00101593
0.00100865
0.00100168
0.000990074
0.000976381
0.000961873
0.00094682
0.000931393
0.00091568
0.000899619
0.000883398
0.000867056
0.000850384
0.000833728
0.000817352
0.000801029
0.000784557
0.000768311
0.000752241
0.000736248
0.000720276
0.000704677
0.000688366
0.000671951
0.000660641
0.000605179
1.27605e-05
0.000102625
0.000199143
0.000275133
0.000332171
0.000374308
0.000405389
0.000428488
0.000445834
0.000459227
0.00047054
0.000481647
0.000493068
0.000504752
0.000516646
0.00052883
0.000541444
0.000554406
0.000566655
0.000577921
0.00058813
0.000600086
0.000619745
0.000643477
0.000669127
0.000695746
0.000723016
0.000750784
0.000778939
0.000807374
0.000835951
0.000864538
0.000893074
0.000921493
0.000949727
0.000977723
0.00100544
0.00103285
0.00105993
0.00108669
0.00111314
0.00113928
0.00116514
0.00119072
0.00121604
0.00124113
0.00126601
0.00129071
0.00131526
0.00133968
0.00136399
0.00138823
0.00141243
0.0014366
0.00146076
0.00148495
0.00150916
0.00153343
0.00155775
0.00158214
0.00160661
0.00163114
0.00165575
0.00168043
0.00170516
0.00172993
0.00175473
0.00177952
0.00180428
0.00182898
0.00185358
0.00187801
0.00190223
0.00192615
0.00194967
0.00197269
0.00199506
0.00201669
0.00203769
0.00205813
0.00207796
0.00209713
0.00211557
0.00213324
0.00215006
0.00216601
0.00218102
0.00219507
0.0022081
0.00222009
0.00223101
0.00224082
0.00224953
0.00225712
0.00226362
0.00226904
0.00227341
0.00227677
0.00227916
0.0022806
0.0022811
0.00228065
0.00227949
0.0022776
0.00227483
0.00227095
0.0022667
0.00226206
0.00225715
0.00225236
0.0022473
0.00224136
0.00223533
0.00222995
0.00222356
0.00221755
0.00221097
0.00220574
0.00220063
0.00219456
0.00219151
0.00218852
0.00218387
0.00217991
0.00217722
0.00217427
0.00217074
0.00216732
0.00216467
0.00216236
0.00215927
0.00215595
0.00215248
0.00214988
0.00214699
0.00214401
0.00214079
0.00213729
0.00213341
0.00212907
0.00212418
0.00211866
0.00211245
0.00210553
0.00209789
0.00208945
0.00208015
0.00206997
0.00205884
0.00204672
0.00203362
0.00201951
0.00200447
0.00198858
0.00197152
0.00195354
0.00193513
0.00191317
0.00188849
0.00186227
0.00183507
0.0018072
0.0017788
0.00174987
0.00172058
0.00169114
0.00166157
0.00163198
0.00160337
0.00157494
0.0015463
0.00151815
0.00149051
0.00146295
0.00143559
0.00140869
0.00138102
0.00135277
0.0013298
0.00125524
1.8826e-05
0.000129438
0.000248436
0.000343927
0.00041699
0.00047184
0.000512972
0.000544157
0.00056848
0.000588486
0.000606289
0.000623532
0.000641174
0.000659715
0.000679547
0.000700937
0.000724058
0.000748884
0.000775117
0.000802259
0.000830716
0.000861306
0.000894957
0.000930474
0.000967142
0.00100476
0.00104311
0.00108197
0.0011213
0.00116109
0.00120136
0.00124165
0.00128183
0.00132181
0.00136152
0.00140089
0.00143989
0.00147849
0.00151668
0.00155445
0.00159181
0.00162876
0.00166532
0.00170151
0.00173734
0.00177285
0.00180807
0.00184301
0.00187772
0.00191223
0.00194656
0.00198076
0.00201485
0.00204886
0.00208281
0.00211674
0.00215066
0.00218459
0.00221854
0.00225253
0.00228656
0.00232063
0.00235474
0.00238889
0.00242306
0.00245723
0.00249138
0.00252548
0.0025595
0.00259339
0.0026271
0.00266058
0.00269374
0.00272651
0.00275879
0.00279048
0.00282146
0.00285169
0.0028812
0.00290996
0.00293791
0.00296496
0.00299105
0.0030161
0.00304004
0.00306279
0.00308429
0.00310448
0.0031233
0.0031407
0.00315664
0.00317109
0.00318402
0.00319543
0.00320533
0.00321372
0.00322065
0.00322614
0.00323023
0.00323298
0.00323443
0.00323465
0.00323378
0.00323192
0.00322869
0.00322429
0.0032186
0.00321261
0.00320619
0.00319949
0.00319268
0.003186
0.00317828
0.00317047
0.00316213
0.00315383
0.00314553
0.00313792
0.00313007
0.00312256
0.00311619
0.00310965
0.00310269
0.00309618
0.00309026
0.0030843
0.00307813
0.00307208
0.00306638
0.0030608
0.00305486
0.00304876
0.00304261
0.00303672
0.00303061
0.00302426
0.00301756
0.00301042
0.00300275
0.00299445
0.00298542
0.00297555
0.00296477
0.00295299
0.00294044
0.00292683
0.00291207
0.0028961
0.00287888
0.00286038
0.00284058
0.00281948
0.00279712
0.00277354
0.00274862
0.00272246
0.00269516
0.00266527
0.00263296
0.00259892
0.00256366
0.00252756
0.00249078
0.00245329
0.00241528
0.00237698
0.00233852
0.00230003
0.00226205
0.00222448
0.00218792
0.00215241
0.00211799
0.00208345
0.00204957
0.00201635
0.00198271
0.00194846
0.00191803
0.00184157
2.48463e-05
0.000153284
0.000292012
0.000404988
0.00049342
0.000561242
0.00061344
0.000654269
0.000687249
0.000715249
0.00074056
0.000764933
0.000789603
0.000815389
0.000842825
0.000872253
0.000903853
0.000937624
0.000973414
0.00101102
0.00105039
0.00109162
0.00113469
0.00117928
0.00122509
0.0012719
0.00131954
0.00136788
0.00141669
0.00146574
0.00151483
0.00156387
0.00161278
0.00166147
0.00170986
0.00175788
0.00180545
0.00185258
0.00189926
0.00194547
0.00199121
0.00203649
0.00208131
0.00212569
0.00216965
0.00221321
0.0022564
0.00229925
0.0023418
0.00238408
0.00242611
0.00246794
0.0025096
0.00255113
0.00259253
0.00263386
0.00267512
0.00271635
0.00275755
0.00279874
0.00283993
0.00288113
0.00292232
0.00296351
0.00300468
0.00304582
0.00308689
0.00312788
0.00316875
0.00320944
0.00324991
0.0032901
0.00332993
0.00336934
0.00340823
0.00344653
0.00348415
0.00352104
0.00355715
0.0035924
0.00362673
0.00366005
0.00369227
0.00372329
0.00375303
0.0037814
0.00380833
0.00383373
0.00385753
0.00387967
0.0039001
0.00391876
0.00393563
0.00395068
0.00396392
0.00397534
0.00398498
0.00399285
0.00399901
0.00400351
0.0040064
0.00400779
0.00400778
0.00400649
0.00400341
0.00399881
0.00399269
0.00398611
0.0039792
0.00397244
0.00396469
0.00395618
0.003947
0.0039374
0.0039274
0.00391724
0.00390701
0.00389691
0.00388676
0.00387681
0.00386726
0.00385768
0.003848
0.00383853
0.00382931
0.00382014
0.00381093
0.00380179
0.00379279
0.00378383
0.00377473
0.00376554
0.00375629
0.00374704
0.00373758
0.00372783
0.0037177
0.00370709
0.0036959
0.00368402
0.00367134
0.00365776
0.00364317
0.00362746
0.00361068
0.00359267
0.00357336
0.00355267
0.00353057
0.00350702
0.00348202
0.00345555
0.00342765
0.00339834
0.0033676
0.00333544
0.00330183
0.00326613
0.00322836
0.00318889
0.00314814
0.0031065
0.00306434
0.00302138
0.00297778
0.00293378
0.00288956
0.00284528
0.00280128
0.00275765
0.00271473
0.00267294
0.0026331
0.00259465
0.00255776
0.00252193
0.00248596
0.00244979
0.00241578
0.00234583
3.05774e-05
0.000174051
0.000330072
0.000459016
0.000562092
0.000642803
0.000706383
0.000757368
0.000799526
0.000835923
0.000868999
0.000900634
0.000932214
0.000964712
0.000998778
0.00103481
0.00107304
0.0011135
0.00115613
0.00120081
0.00124739
0.00129578
0.0013458
0.00139724
0.0014499
0.00150355
0.00155801
0.0016131
0.00166861
0.00172436
0.00178019
0.00183598
0.00189161
0.00194701
0.00200208
0.00205677
0.00211104
0.00216484
0.00221812
0.00227087
0.00232309
0.00237477
0.00242591
0.00247654
0.00252667
0.00257633
0.00262553
0.00267432
0.00272273
0.00277079
0.00281853
0.00286599
0.00291321
0.00296022
0.00300705
0.00305373
0.00310029
0.00314675
0.00319314
0.00323947
0.00328575
0.003332
0.00337821
0.00342439
0.00347053
0.00351662
0.00356264
0.00360856
0.00365435
0.00369998
0.00374539
0.00379055
0.00383537
0.00387981
0.00392378
0.00396721
0.00401003
0.00405215
0.00409351
0.00413401
0.00417357
0.00421209
0.00424947
0.00428561
0.00432041
0.00435377
0.00438558
0.00441577
0.00444423
0.0044709
0.00449569
0.00451855
0.00453942
0.00455827
0.00457508
0.00458984
0.00460255
0.00461323
0.00462193
0.00462868
0.00463354
0.00463661
0.00463798
0.00463775
0.00463538
0.00463104
0.00462526
0.00461917
0.00461287
0.00460521
0.00459651
0.00458687
0.00457641
0.00456531
0.00455366
0.00454161
0.00452928
0.00451676
0.00450408
0.00449135
0.00447866
0.00446588
0.00445302
0.00444019
0.00442742
0.00441465
0.00440188
0.00438912
0.00437641
0.0043637
0.00435094
0.00433813
0.00432525
0.0043123
0.00429916
0.00428576
0.00427201
0.00425782
0.00424309
0.00422771
0.00421158
0.00419458
0.0041766
0.00415755
0.00413734
0.0041159
0.00409312
0.00406893
0.00404329
0.00401616
0.00398753
0.00395739
0.00392576
0.00389265
0.00385805
0.00382199
0.0037844
0.00374502
0.00370385
0.00366111
0.00361709
0.00357211
0.00352659
0.00348002
0.00343276
0.00338507
0.00333714
0.00328914
0.00324133
0.00319385
0.00314697
0.00310101
0.00305659
0.00301465
0.00297537
0.0029383
0.00290248
0.00286714
0.00283258
0.00277137
3.58377e-05
0.000191646
0.00036249
0.000506017
0.000622539
0.000715716
0.000790497
0.000851572
0.000902848
0.000947511
0.00098811
0.00102663
0.00106458
0.00110303
0.00114274
0.00118419
0.00122765
0.00127324
0.00132095
0.0013707
0.00142237
0.0014758
0.00153082
0.00158722
0.00164481
0.00170338
0.00176273
0.00182267
0.00188303
0.00194362
0.00200429
0.00206492
0.0021254
0.00218561
0.00224549
0.00230496
0.00236397
0.00242247
0.00248043
0.00253781
0.00259461
0.00265083
0.00270646
0.00276153
0.00281603
0.00287001
0.00292347
0.00297646
0.003029
0.00308113
0.00313288
0.0031843
0.00323542
0.00328627
0.00333689
0.00338731
0.00343757
0.00348769
0.0035377
0.00358762
0.00363748
0.00368728
0.00373704
0.00378676
0.00383645
0.0038861
0.0039357
0.00398523
0.00403468
0.004084
0.00413317
0.00418214
0.00423087
0.00427928
0.00432732
0.00437491
0.00442199
0.00446847
0.00451426
0.00455928
0.00460342
0.00464659
0.00468867
0.00472954
0.00476911
0.00480724
0.00484382
0.00487875
0.00491192
0.00494322
0.00497256
0.00499985
0.00502503
0.00504804
0.00506882
0.00508735
0.00510361
0.00511761
0.00512936
0.00513889
0.00514625
0.00515151
0.00515475
0.00515604
0.0051549
0.0051515
0.0051469
0.00514181
0.00513521
0.00512719
0.00511785
0.00510731
0.00509571
0.00508318
0.00506984
0.00505583
0.00504126
0.00502623
0.00501079
0.00499505
0.00497907
0.00496286
0.00494644
0.00492988
0.00491323
0.0048965
0.0048797
0.00486286
0.004846
0.00482914
0.00481224
0.00479531
0.00477835
0.00476132
0.00474418
0.00472684
0.00470926
0.00469134
0.00467299
0.00465412
0.00463461
0.00461436
0.00459325
0.00457117
0.00454803
0.00452373
0.00449818
0.00447129
0.00444302
0.00441332
0.00438217
0.00434955
0.00431548
0.00427997
0.004243
0.00420459
0.0041647
0.00412324
0.00408019
0.0040357
0.00398997
0.00394323
0.00389568
0.00384729
0.00379824
0.00374872
0.00369893
0.00364908
0.00359936
0.00354993
0.00350102
0.00345291
0.00340607
0.00336131
0.0033203
0.00328256
0.00324712
0.00321308
0.00318018
0.00312785
4.05153e-05
0.000206167
0.000389454
0.000546032
0.000674724
0.000779541
0.000864994
0.000935779
0.000995844
0.00104843
0.00109616
0.0011411
0.00118483
0.00122852
0.00127303
0.00131892
0.00136652
0.00141603
0.0014675
0.00152089
0.00157611
0.00163301
0.00169144
0.0017512
0.0018121
0.00187395
0.00193656
0.00199974
0.00206332
0.00212713
0.00219102
0.00225485
0.00231852
0.00238192
0.00244497
0.00250758
0.00256971
0.00263131
0.00269233
0.00275276
0.00281257
0.00287176
0.00293033
0.00298828
0.00304564
0.00310242
0.00315864
0.00321434
0.00326955
0.0033243
0.00337863
0.00343258
0.00348618
0.00353948
0.00359251
0.00364531
0.00369792
0.00375038
0.00380271
0.00385494
0.00390711
0.00395923
0.00401132
0.00406341
0.0041155
0.00416759
0.00421969
0.00427179
0.00432388
0.00437595
0.00442797
0.0044799
0.0045317
0.00458333
0.00463474
0.00468585
0.00473659
0.0047869
0.00483667
0.00488582
0.00493424
0.00498182
0.00502844
0.00507398
0.0051183
0.00516128
0.00520277
0.00524265
0.00528078
0.00531704
0.00535131
0.00538347
0.00541342
0.00544107
0.00546635
0.0054892
0.00550958
0.00552746
0.00554284
0.00555572
0.00556613
0.00557412
0.00557975
0.00558306
0.00558368
0.00558193
0.0055788
0.00557441
0.00556807
0.00555997
0.00555024
0.00553899
0.00552635
0.00551246
0.00549745
0.00548144
0.00546455
0.00544689
0.00542855
0.00540962
0.00539019
0.00537031
0.00535004
0.00532945
0.0053086
0.00528755
0.00526634
0.00524501
0.00522361
0.00520216
0.0051807
0.00515923
0.00513777
0.0051163
0.00509481
0.00507325
0.00505158
0.00502974
0.00500764
0.0049852
0.00496233
0.0049389
0.00491482
0.00488995
0.00486421
0.00483748
0.00480967
0.00478069
0.00475048
0.00471899
0.00468619
0.00465204
0.00461656
0.00457973
0.00454156
0.00450204
0.00446116
0.00441886
0.00437517
0.00433015
0.00428396
0.00423675
0.00418868
0.00413979
0.00409025
0.00404025
0.00398997
0.00393963
0.00388939
0.00383944
0.00378995
0.00374118
0.00369354
0.00364778
0.00360566
0.00356785
0.00353312
0.00350047
0.0034692
0.00342448
4.45534e-05
0.000217814
0.000411261
0.000579112
0.00071869
0.000834142
0.000929521
0.00100943
0.00107779
0.00113785
0.00119226
0.00124312
0.00129207
0.00134038
0.00138897
0.00143847
0.0014893
0.00154173
0.00159585
0.00165169
0.00170919
0.00176825
0.00182872
0.00189045
0.00195326
0.00201697
0.0020814
0.00214638
0.00221174
0.00227731
0.00234296
0.00240854
0.00247394
0.00253906
0.00260379
0.00266809
0.00273187
0.00279511
0.00285775
0.00291977
0.00298115
0.00304189
0.00310198
0.00316143
0.00322025
0.00327847
0.0033361
0.00339318
0.00344974
0.00350581
0.00356144
0.00361665
0.00367151
0.00372603
0.00378028
0.0038343
0.00388811
0.00394177
0.00399532
0.00404878
0.00410221
0.00415562
0.00420905
0.00426253
0.00431608
0.00436972
0.00442346
0.00447731
0.00453127
0.00458534
0.00463951
0.00469375
0.00474804
0.00480235
0.00485663
0.00491083
0.00496487
0.00501869
0.0050722
0.00512531
0.0051779
0.00522985
0.00528105
0.00533135
0.0053806
0.00542866
0.00547536
0.00552055
0.00556407
0.00560575
0.00564545
0.00568302
0.00571832
0.00575124
0.00578165
0.00580946
0.00583461
0.00585703
0.00587668
0.00589355
0.00590765
0.00591898
0.00592758
0.00593348
0.00593649
0.00593691
0.00593545
0.00593206
0.00592637
0.00591855
0.00590872
0.005897
0.00588351
0.00586841
0.00585181
0.00583385
0.00581467
0.00579437
0.00577307
0.00575088
0.00572789
0.0057042
0.00567989
0.00565505
0.00562977
0.00560413
0.00557821
0.00555207
0.00552578
0.00549942
0.00547302
0.00544665
0.00542033
0.00539409
0.00536794
0.00534187
0.00531585
0.00528987
0.00526385
0.00523774
0.00521144
0.00518486
0.00515787
0.00513038
0.00510226
0.00507342
0.00504374
0.00501313
0.00498153
0.00494887
0.00491511
0.00488019
0.00484411
0.00480686
0.00476843
0.00472881
0.00468796
0.00464588
0.00460255
0.00455803
0.0045124
0.00446578
0.00441828
0.00436999
0.00432104
0.00427163
0.00422196
0.00417223
0.00412261
0.00407327
0.00402435
0.0039761
0.00392893
0.00388354
0.00384154
0.00380437
0.0037707
0.00373955
0.00370993
0.00367113
4.7932e-05
0.000226822
0.000428276
0.000605575
0.000754657
0.000879589
0.000983974
0.00107226
0.00114828
0.00121524
0.00127578
0.00133203
0.00138567
0.001438
0.00149
0.00154238
0.00159563
0.00165008
0.00170588
0.0017631
0.00182176
0.00188179
0.0019431
0.00200555
0.00206899
0.00213326
0.00219819
0.00226364
0.00232945
0.00239547
0.00246156
0.00252756
0.00259334
0.00265881
0.00272387
0.00278846
0.00285253
0.00291602
0.00297891
0.00304116
0.00310276
0.0031637
0.00322398
0.00328361
0.0033426
0.00340097
0.00345875
0.00351597
0.00357265
0.00362885
0.0036846
0.00373994
0.00379492
0.00384958
0.00390397
0.00395815
0.00401214
0.00406602
0.00411981
0.00417357
0.00422735
0.00428117
0.0043351
0.00438916
0.00444339
0.00449782
0.00455248
0.0046074
0.00466259
0.00471806
0.00477382
0.00482987
0.00488619
0.00494276
0.00499955
0.00505652
0.00511361
0.00517076
0.00522787
0.00528487
0.00534163
0.00539803
0.00545395
0.00550921
0.00556367
0.00561714
0.00566946
0.00572041
0.00576983
0.0058175
0.00586325
0.00590688
0.00594822
0.0059871
0.00602336
0.00605689
0.00608755
0.00611526
0.00613993
0.00616153
0.00618001
0.00619538
0.00620765
0.00621682
0.00622286
0.00622598
0.00622661
0.00622471
0.00622017
0.00621307
0.00620353
0.00619168
0.00617766
0.0061616
0.00614364
0.00612393
0.0061026
0.00607978
0.0060556
0.00603018
0.00600366
0.00597614
0.00594774
0.00591856
0.00588873
0.00585835
0.00582753
0.00579637
0.00576497
0.00573343
0.00570185
0.00567029
0.00563883
0.00560754
0.00557645
0.0055456
0.00551501
0.00548468
0.00545457
0.00542464
0.00539483
0.00536505
0.00533519
0.00530515
0.00527483
0.00524409
0.00521285
0.00518099
0.00514843
0.00511509
0.00508091
0.00504584
0.00500983
0.00497289
0.00493498
0.00489606
0.00485611
0.00481509
0.00477299
0.00472982
0.00468563
0.00464049
0.00459449
0.0045477
0.00450023
0.00445232
0.00440417
0.00435598
0.00430792
0.00426013
0.00421275
0.00416599
0.0041203
0.00407637
0.00403577
0.00399996
0.00396771
0.00393813
0.00391017
0.003876
5.06562e-05
0.000233443
0.000440892
0.000625814
0.000782935
0.000916058
0.00102837
0.00112411
0.001207
0.00128015
0.00134618
0.0014072
0.0014649
0.00152062
0.00157537
0.00162993
0.00168482
0.00174043
0.00179697
0.00185455
0.00191321
0.00197309
0.0020341
0.00209611
0.00215898
0.00222258
0.00228676
0.0023514
0.00241637
0.00248158
0.00254696
0.00261217
0.00267708
0.0027416
0.00280567
0.00286923
0.00293224
0.00299465
0.00305645
0.0031176
0.0031781
0.00323793
0.0032971
0.00335562
0.00341352
0.00347081
0.00352753
0.00358369
0.00363936
0.00369455
0.00374932
0.00380372
0.00385779
0.00391158
0.00396514
0.00401853
0.0040718
0.00412501
0.0041782
0.00423143
0.00428476
0.00433824
0.00439192
0.00444586
0.0045001
0.00455469
0.00460967
0.00466508
0.00472096
0.00477734
0.00483424
0.00489166
0.00494963
0.00500813
0.00506715
0.00512665
0.00518661
0.00524695
0.0053076
0.00536848
0.00542947
0.00549045
0.00555126
0.00561175
0.00567174
0.00573103
0.00578941
0.00584666
0.00590255
0.00595685
0.00600932
0.00605973
0.00610787
0.00615351
0.00619645
0.00623651
0.00627354
0.00630738
0.00633792
0.00636508
0.00638879
0.00640901
0.00642574
0.00643896
0.00644872
0.00645514
0.00645844
0.00645875
0.00645599
0.00645017
0.00644145
0.00642996
0.00641584
0.00639923
0.00638028
0.00635914
0.00633596
0.00631088
0.00628405
0.00625562
0.00622572
0.00619449
0.00616208
0.00612863
0.00609427
0.00605914
0.00602338
0.00598713
0.00595051
0.00591367
0.00587674
0.00583982
0.00580304
0.00576649
0.00573027
0.00569444
0.00565908
0.0056242
0.00558983
0.00555596
0.00552254
0.0054895
0.00545677
0.00542423
0.00539179
0.00535933
0.00532676
0.00529392
0.00526073
0.00522712
0.00519297
0.00515822
0.00512284
0.0050868
0.00505004
0.00501252
0.00497417
0.00493494
0.00489479
0.00485371
0.00481171
0.00476882
0.00472509
0.00468058
0.00463536
0.00458971
0.00454388
0.00449803
0.00445233
0.00440694
0.00436191
0.00431746
0.0042741
0.00423257
0.00419446
0.00416062
0.00413011
0.00410218
0.00407584
0.00404538
5.2749e-05
0.000237917
0.000449495
0.000640227
0.000803842
0.00094374
0.00106275
0.00116487
0.00125364
0.0013321
0.0014028
0.00146781
0.00152883
0.0015872
0.00164397
0.00169991
0.00175562
0.0018115
0.00186781
0.00192467
0.00198226
0.00204093
0.0021005
0.00216087
0.00222198
0.00228371
0.00234595
0.00240857
0.0024714
0.00253455
0.00259798
0.00266113
0.00272392
0.00278623
0.002848
0.00290921
0.00296982
0.00302983
0.0030892
0.00314794
0.00320601
0.00326343
0.0033202
0.00337636
0.00343194
0.00348696
0.00354144
0.00359543
0.00364898
0.00370212
0.0037549
0.00380737
0.0038596
0.00391162
0.00396349
0.00401527
0.00406702
0.0041188
0.00417067
0.00422269
0.00427492
0.00432742
0.00438026
0.0044335
0.0044872
0.00454143
0.00459624
0.00465168
0.00470782
0.00476469
0.00482234
0.00488081
0.00494011
0.00500026
0.00506127
0.00512312
0.00518578
0.00524922
0.00531337
0.00537814
0.00544343