/*--------------------------------*- C++ -*----------------------------------*\
  =========                 |
  \\      /  F ield         | OpenFOAM: The Open Source CFD Toolbox
   \\    /   O peration     | Website:  https://openfoam.org
    \\  /    A nd           | Version:  8
     \\/     M anipulation  |
\*---------------------------------------------------------------------------*/
FoamFile
{
    version     2.0;
    format      ascii;
    class       volScalarField;
    location    "115";
    object      p;
}
// * * * * * * * * * * * * * * * * * * * * * * * * * * * * * * * * * * * * * //

dimensions      [0 2 -2 0 0 0 0];

internalField   nonuniform List<scalar> 
12225
(
-2.16082
-4.34874
-5.44844
-5.76873
-5.94946
-6.11775
-6.24835
-6.34215
-6.41695
-6.48186
-6.53853
-6.58874
-6.63188
-6.66831
-6.69679
-6.70692
-6.71556
-6.59689
-5.32325
-6.09189
-6.25219
-6.15956
-6.14651
-6.21365
-6.29023
-6.35464
-6.41248
-6.46751
-6.51888
-6.56528
-6.60684
-6.64259
-6.67277
-6.68852
-6.70862
-6.68293
-5.7239
-5.70955
-5.83672
-5.91474
-6.00913
-6.12861
-6.23484
-6.31842
-6.38851
-6.45156
-6.50857
-6.55925
-6.60456
-6.64394
-6.67858
-6.70331
-6.73572
-6.75729
-5.60252
-5.54576
-5.78714
-5.94513
-6.04636
-6.15188
-6.24861
-6.32744
-6.39454
-6.45547
-6.51116
-6.56133
-6.60683
-6.64745
-6.68474
-6.71713
-6.75764
-6.80512
-5.59262
-5.61689
-5.84469
-5.9859
-6.06902
-6.1604
-6.25072
-6.32727
-6.39328
-6.45352
-6.50905
-6.55967
-6.6062
-6.64888
-6.6895
-6.72862
-6.77554
-6.83418
-5.65077
-5.69946
-5.87347
-5.99701
-6.07805
-6.16524
-6.25243
-6.32785
-6.39342
-6.45335
-6.5089
-6.56005
-6.60761
-6.65223
-6.69575
-6.73976
-6.79076
-6.85314
-5.71114
-5.75517
-5.8901
-6.00608
-6.08938
-6.17292
-6.25605
-6.32971
-6.39456
-6.45405
-6.50949
-6.56107
-6.60955
-6.65586
-6.70173
-6.74906
-6.80227
-6.8647
-5.76469
-5.80217
-5.9119
-6.01988
-6.10247
-6.18152
-6.26024
-6.33187
-6.39588
-6.45486
-6.51015
-6.56209
-6.61139
-6.65908
-6.7067
-6.75603
-6.80997
-6.87054
-5.81444
-5.84747
-5.93818
-6.03586
-6.11558
-6.19046
-6.26503
-6.33445
-6.39744
-6.45582
-6.51085
-6.56301
-6.61293
-6.66159
-6.71032
-6.76055
-6.8141
-6.87193
-5.86155
-5.89072
-5.96605
-6.05303
-6.12893
-6.20007
-6.2707
-6.33766
-6.39938
-6.457
-6.51164
-6.56379
-6.61404
-6.66324
-6.71244
-6.76271
-6.8151
-6.86988
-5.90593
-5.93136
-5.99441
-6.07139
-6.14283
-6.21034
-6.27721
-6.34153
-6.40176
-6.45846
-6.51252
-6.56443
-6.61469
-6.66398
-6.7131
-6.76276
-6.81352
-6.86525
-5.94404
-5.96633
-6.02041
-6.08909
-6.15602
-6.22018
-6.28378
-6.34562
-6.40431
-6.46
-6.51336
-6.56482
-6.6148
-6.6638
-6.71243
-6.76112
-6.81017
-6.85925
-5.97925
-5.99892
-6.04566
-6.10695
-6.16932
-6.23017
-6.29067
-6.35005
-6.40708
-6.46165
-6.51417
-6.56501
-6.61447
-6.66293
-6.71077
-6.75826
-6.80551
-6.85214
-6.01617
-6.03333
-6.0733
-6.12727
-6.18455
-6.24168
-6.29882
-6.35544
-6.41049
-6.46362
-6.51501
-6.56492
-6.61353
-6.66106
-6.70772
-6.75363
-6.7988
-6.84284
-6.05355
-6.06833
-6.10232
-6.14943
-6.20135
-6.25442
-6.30803
-6.36164
-6.4144
-6.46575
-6.51567
-6.56426
-6.61162
-6.65781
-6.70291
-6.74689
-6.78974
-6.83114
-6.08943
-6.10207
-6.13104
-6.17208
-6.21878
-6.26768
-6.31771
-6.36821
-6.4184
-6.46768
-6.51578
-6.56268
-6.60837
-6.65284
-6.69602
-6.73784
-6.77822
-6.81702
-6.1209
-6.13181
-6.15685
-6.19293
-6.23502
-6.28003
-6.32667
-6.37414
-6.42169
-6.46868
-6.51473
-6.55964
-6.60335
-6.64577
-6.68679
-6.7263
-6.76421
-6.80044
-6.14357
-6.15327
-6.17565
-6.20829
-6.24699
-6.28896
-6.33285
-6.37775
-6.42292
-6.46771
-6.51168
-6.55454
-6.59615
-6.6364
-6.6752
-6.71241
-6.74795
-6.78178
-6.15051
-6.15973
-6.18107
-6.2124
-6.24973
-6.29031
-6.33276
-6.37616
-6.41977
-6.46295
-6.50524
-6.54633
-6.58606
-6.62435
-6.66111
-6.69622
-6.72965
-6.7614
-6.13445
-6.14427
-6.16699
-6.2002
-6.23939
-6.28132
-6.32458
-6.3684
-6.41213
-6.45509
-6.4969
-6.53724
-6.57606
-6.61324
-6.6488
-6.68259
-6.71467
-6.74505
-6.10761
-6.11844
-6.14381
-6.18094
-6.22384
-6.26853
-6.31382
-6.35926
-6.40408
-6.44765
-6.48962
-6.52992
-6.56844
-6.60519
-6.64011
-6.67322
-6.70451
-6.73417
-6.07239
-6.08423
-6.11367
-6.15732
-6.20569
-6.25379
-6.30173
-6.34956
-6.3962
-6.44084
-6.48339
-6.52393
-6.56249
-6.59907
-6.63365
-6.66632
-6.69714
-6.72627
-6.03183
-6.04375
-6.07826
-6.13158
-6.18718
-6.23921
-6.29015
-6.34062
-6.38914
-6.43497
-6.47829
-6.51931
-6.5581
-6.59466
-6.6291
-6.66151
-6.69207
-6.72088
-5.98812
-5.99911
-6.04093
-6.10537
-6.16759
-6.2243
-6.27993
-6.33375
-6.38394
-6.43064
-6.47456
-6.51599
-6.55493
-6.59146
-6.62574
-6.65797
-6.68828
-6.71684
-5.94122
-5.94669
-6.00938
-6.0876
-6.14955
-6.20781
-6.26894
-6.32723
-6.37962
-6.42748
-6.47224
-6.51419
-6.55333
-6.58984
-6.62399
-6.65605
-6.68616
-6.71459
-5.89795
-5.86152
-5.97108
-6.08207
-6.14432
-6.19958
-6.26175
-6.32141
-6.37448
-6.42296
-6.46837
-6.51081
-6.55022
-6.58686
-6.62106
-6.65311
-6.6832
-6.71155
-5.91204
-5.75306
-5.88202
-6.03611
-6.12624
-6.19757
-6.26643
-6.32724
-6.37987
-6.4279
-6.47285
-6.51472
-6.5535
-6.58953
-6.62316
-6.65467
-6.68431
-6.71234
-6.03476
-5.85477
-5.86902
-5.94116
-6.02955
-6.12873
-6.21935
-6.29301
-6.35453
-6.40939
-6.45937
-6.50474
-6.54601
-6.58384
-6.61874
-6.65119
-6.68164
-6.71074
-5.74207
-6.33365
-6.42255
-6.29831
-6.24397
-6.27109
-6.31799
-6.36112
-6.40248
-6.44438
-6.48553
-6.52445
-6.56088
-6.59493
-6.62668
-6.65633
-6.68409
-6.71176
-2.75382
-4.5166
-5.52132
-5.82048
-5.96963
-6.11321
-6.22717
-6.30801
-6.37204
-6.42861
-6.47951
-6.52514
-6.56629
-6.60383
-6.63831
-6.66954
-6.69741
-6.72013
-7.94558
-7.94483
-7.94504
-7.94763
-7.95162
-7.95646
-7.96219
-7.96868
-7.97571
-7.98281
-7.98945
-7.99554
-8.00255
-8.01176
-8.02222
-8.03236
-8.04244
-8.0544
-8.07078
-8.09055
-8.10802
-8.12248
-8.14118
-8.16463
-8.18948
-8.21604
-8.24417
-8.27365
-8.30434
-8.33593
-8.36825
-8.40097
-8.43392
-8.46676
-8.49933
-8.53131
-8.56259
-8.59284
-8.622
-8.64979
-8.67615
-8.70084
-8.72382
-8.74487
-8.76397
-8.78088
-8.7956
-8.8079
-8.81775
-8.82493
-8.82939
-8.8309
-8.82943
-8.82472
-8.81671
-8.80515
-8.78995
-8.77087
-8.74779
-8.72047
-8.68878
-8.65249
-8.61148
-8.56552
-8.51448
-8.45817
-8.39647
-8.32923
-8.25634
-8.17771
-8.09329
-8.00302
-7.90688
-7.8049
-7.69711
-7.58365
-7.4646
-7.3401
-7.21024
-7.07525
-6.9354
-6.79107
-6.64256
-6.49033
-6.33469
-6.17618
-6.01529
-5.85256
-5.68839
-5.52308
-5.35709
-5.19086
-5.02484
-4.85942
-4.69499
-4.53189
-4.37043
-4.21083
-4.05328
-3.89786
-3.74467
-3.59373
-3.44502
-3.29847
-3.15391
-3.01118
-2.86994
-2.7299
-2.59063
-2.45179
-2.31284
-2.17331
-2.03252
-1.8899
-1.74462
-1.59593
-1.44293
-1.28487
-1.12082
-0.950205
-0.772241
-0.586166
-0.390884
-0.185629
0.0305307
0.258153
0.498018
0.750532
1.01634
1.29572
1.58917
1.89671
2.21858
2.55458
2.90458
3.26808
3.64467
4.03355
4.4339
4.84456
5.26432
5.69181
6.12564
6.56429
7.00614
7.44945
7.89245
8.33334
8.77036
9.20174
9.62581
10.041
10.446
10.8393
11.2201
11.5872
11.9402
12.2784
12.6011
12.9079
13.1983
13.4721
13.7294
13.9702
14.1948
14.4034
14.5965
14.7747
14.9386
15.0889
15.2265
15.3523
15.4676
15.5737
15.6727
15.7671
15.8625
15.9655
16.1068
16.2751
-7.94174
-7.94211
-7.94277
-7.94492
-7.94757
-7.95028
-7.95331
-7.95682
-7.96066
-7.96444
-7.96801
-7.97195
-7.97747
-7.98433
-7.99106
-7.99766
-8.00551
-8.01611
-8.02846
-8.04037
-8.05358
-8.07438
-8.10073
-8.12503
-8.15
-8.17663
-8.20488
-8.23449
-8.26534
-8.29713
-8.32966
-8.36262
-8.3958
-8.42888
-8.46167
-8.49387
-8.52533
-8.55579
-8.58511
-8.61309
-8.63962
-8.66452
-8.68771
-8.70902
-8.72838
-8.74563
-8.76069
-8.77342
-8.78374
-8.79147
-8.79653
-8.79874
-8.79802
-8.79417
-8.78708
-8.77655
-8.76244
-8.74456
-8.72275
-8.69681
-8.66657
-8.63183
-8.59244
-8.54819
-8.49892
-8.44446
-8.38466
-8.31937
-8.24848
-8.17188
-8.08948
-8.00123
-7.90709
-7.80705
-7.70112
-7.58939
-7.47191
-7.34879
-7.22023
-7.08649
-6.94782
-6.80456
-6.657
-6.50553
-6.35049
-6.19236
-6.03161
-5.86876
-5.70422
-5.53839
-5.37169
-5.20455
-5.03743
-4.87075
-4.70493
-4.54031
-4.37724
-4.21596
-4.05672
-3.89965
-3.7449
-3.59249
-3.44248
-3.29474
-3.14922
-3.00566
-2.86383
-2.72337
-2.58395
-2.44512
-2.30645
-2.16732
-2.02717
-1.8853
-1.74108
-1.59373
-1.4425
-1.28646
-1.12484
-0.956843
-0.781787
-0.598803
-0.406927
-0.205219
0.00706396
0.23067
0.466262
0.714438
0.975719
1.25053
1.53924
1.84211
2.15923
2.49055
2.83589
3.1949
3.56714
3.95192
4.34842
4.75554
5.17211
5.59681
6.02824
6.46491
6.9052
7.34736
7.78963
8.23018
8.66722
9.099
9.52383
9.9401
10.3464
10.7414
11.1239
11.4929
11.8476
12.1873
12.5117
12.8204
13.1129
13.3891
13.6489
13.8924
14.1197
14.3312
14.5272
14.7084
14.8752
15.0286
15.1692
15.298
15.4164
15.5256
15.6278
15.7256
15.824
15.9276
16.0616
16.2079
-7.93159
-7.93439
-7.93767
-7.94122
-7.94408
-7.94618
-7.94799
-7.94979
-7.9516
-7.95332
-7.95509
-7.95739
-7.96096
-7.96586
-7.97154
-7.97806
-7.98633
-7.99717
-8.01019
-8.02412
-8.03904
-8.05668
-8.07748
-8.09979
-8.12397
-8.15008
-8.17786
-8.20698
-8.23724
-8.26835
-8.30009
-8.33218
-8.36442
-8.39654
-8.42834
-8.4596
-8.49015
-8.51978
-8.54835
-8.57569
-8.60167
-8.62614
-8.64899
-8.67008
-8.68931
-8.70655
-8.72169
-8.7346
-8.74518
-8.75329
-8.75881
-8.76159
-8.76152
-8.75843
-8.75218
-8.74259
-8.72952
-8.71278
-8.6922
-8.66759
-8.63878
-8.60557
-8.5678
-8.52526
-8.47779
-8.42521
-8.36737
-8.3041
-8.23529
-8.16081
-8.08056
-7.99447
-7.90248
-7.80456
-7.70072
-7.59099
-7.47544
-7.35419
-7.2274
-7.09532
-6.95817
-6.81626
-6.66988
-6.5194
-6.36517
-6.20761
-6.04721
-5.88444
-5.71976
-5.55355
-5.38626
-5.21837
-5.05028
-4.8825
-4.71539
-4.5494
-4.38481
-4.222
-4.06117
-3.90257
-3.74632
-3.59255
-3.44132
-3.29255
-3.14622
-3.00207
-2.85994
-2.71945
-2.58035
-2.44209
-2.30429
-2.16628
-2.02758
-1.88743
-1.74522
-1.60019
-1.45162
-1.29856
-1.14026
-0.975877
-0.804744
-0.625854
-0.438437
-0.241449
-0.0341673
0.184281
0.414452
0.657071
0.91258
1.18157
1.46431
1.76118
2.07222
2.39746
2.73672
3.08979
3.45619
3.83535
4.22643
4.62846
5.04028
5.46063
5.88816
6.32139
6.75869
7.19838
7.63866
8.07776
8.51389
8.94532
9.37038
9.78753
10.1953
10.5925
10.9778
11.3502
11.7087
12.0528
12.3818
12.6952
12.9926
13.2737
13.5384
13.7868
14.019
14.2353
14.4361
14.6219
14.7933
14.951
15.0959
15.229
15.3515
15.4648
15.5709
15.6723
15.7737
15.8776
16.0026
16.1173
-7.91447
-7.92026
-7.92742
-7.93354
-7.93773
-7.94038
-7.94213
-7.94339
-7.94436
-7.9452
-7.94619
-7.94776
-7.95041
-7.95438
-7.95968
-7.96639
-7.97492
-7.98568
-7.9987
-8.01358
-8.03014
-8.0485
-8.06884
-8.09099
-8.11493
-8.14052
-8.16759
-8.19592
-8.22532
-8.25553
-8.28635
-8.31752
-8.34885
-8.38008
-8.41105
-8.44152
-8.47135
-8.50032
-8.5283
-8.55512
-8.58066
-8.60477
-8.62733
-8.64821
-8.66732
-8.68451
-8.69969
-8.71272
-8.7235
-8.73188
-8.73776
-8.74098
-8.74143
-8.73893
-8.73334
-8.7245
-8.71224
-8.69639
-8.67676
-8.65318
-8.62545
-8.59339
-8.55681
-8.51552
-8.46935
-8.4181
-8.36162
-8.29975
-8.23234
-8.15927
-8.08042
-7.9957
-7.90506
-7.80845
-7.70585
-7.59731
-7.48288
-7.36267
-7.23683
-7.10559
-6.96917
-6.82784
-6.68193
-6.53175
-6.37768
-6.22013
-6.05957
-5.89648
-5.7313
-5.56449
-5.39646
-5.2277
-5.05869
-4.88988
-4.72171
-4.55457
-4.38883
-4.22483
-4.06285
-3.90314
-3.74586
-3.59118
-3.43914
-3.28975
-3.14292
-2.99853
-2.85637
-2.71615
-2.57752
-2.44002
-2.30318
-2.16639
-2.02913
-1.89074
-1.75047
-1.60761
-1.4614
-1.311
-1.1556
-0.994393
-0.826581
-0.651171
-0.467395
-0.274294
-0.0710197
0.143251
0.36913
0.607305
0.85829
1.12267
1.40075
1.6929
1.99916
2.31962
2.65412
3.00247
3.36422
3.73884
4.12551
4.52332
4.93114
5.34779
5.7719
6.20203
6.63657
7.07384
7.51206
7.94952
8.38443
8.81513
9.23998
9.65749
10.0662
10.4648
10.852
11.2268
11.5883
11.9356
12.2682
12.5853
12.8865
13.1716
13.4404
13.6929
13.9292
14.1495
14.3543
14.5441
14.7193
14.8808
15.0293
15.1659
15.2916
15.408
15.517
15.6206
15.7228
15.8245
15.9383
16.0258
-7.89405
-7.90288
-7.91458
-7.92393
-7.93015
-7.93411
-7.93669
-7.93843
-7.93971
-7.94085
-7.94222
-7.9442
-7.94719
-7.95148
-7.95728
-7.9647
-7.97397
-7.98523
-7.99856
-8.01383
-8.031
-8.04999
-8.07077
-8.0932
-8.11722
-8.14267
-8.16946
-8.19735
-8.22621
-8.25577
-8.28587
-8.31626
-8.34678
-8.3772
-8.40735
-8.43704
-8.46611
-8.49438
-8.52173
-8.54798
-8.57303
-8.59672
-8.61896
-8.6396
-8.65855
-8.67567
-8.69085
-8.70397
-8.71491
-8.72354
-8.72973
-8.73334
-8.73423
-8.73224
-8.72721
-8.71899
-8.7074
-8.69225
-8.67337
-8.65056
-8.62363
-8.5924
-8.55665
-8.51621
-8.47088
-8.42047
-8.3648
-8.30372
-8.23706
-8.16469
-8.08649
-8.00236
-7.91223
-7.81605
-7.71381
-7.60553
-7.49126
-7.37112
-7.24526
-7.11386
-6.97718
-6.83547
-6.68905
-6.53827
-6.38349
-6.22513
-6.06366
-5.89957
-5.73337
-5.56542
-5.39632
-5.22644
-5.05637
-4.88652
-4.7174
-4.54936
-4.38285
-4.21815
-4.05562
-3.89547
-3.73794
-3.58317
-3.43119
-3.28207
-3.13567
-2.99199
-2.85072
-2.71167
-2.57433
-2.43842
-2.30329
-2.16851
-2.03337
-1.89737
-1.75961
-1.61949
-1.47609
-1.32871
-1.17642
-1.01857
-0.854089
-0.682181
-0.501811
-0.312307
-0.112557
0.0980116
0.320301
0.554752
0.802156
1.06286
1.33742
1.62599
1.92884
2.24587
2.57712
2.92227
3.281
3.65267
4.03659
4.43179
4.83723
5.2517
5.6739
6.10233
6.53543
6.97148
7.40878
7.84558
8.28016
8.71085
9.13606
9.55422
9.96393
10.3638
10.7527
11.1294
11.4931
11.8429
12.178
12.498
12.8021
13.0902
13.3621
13.6177
13.8571
14.0806
14.2886
14.4814
14.6596
14.8239
14.9752
15.1143
15.2423
15.3607
15.4712
15.5754
15.6765
15.7739
15.8767
15.9425
-7.87456
-7.88613
-7.90213
-7.91467
-7.92315
-7.92891
-7.93293
-7.93587
-7.93822
-7.9404
-7.94283
-7.94586
-7.94988
-7.95514
-7.96188
-7.97026
-7.98044
-7.99248
-8.00644
-8.02225
-8.03989
-8.05926
-8.0803
-8.10289
-8.12692
-8.15225
-8.17876
-8.20626
-8.2346
-8.26357
-8.29302
-8.32272
-8.35253
-8.38222
-8.41167
-8.44068
-8.46911
-8.49679
-8.52361
-8.5494
-8.57405
-8.59743
-8.61943
-8.6399
-8.65877
-8.67587
-8.69113
-8.70439
-8.71554
-8.72444
-8.73097
-8.73497
-8.73631
-8.73481
-8.73032
-8.72267
-8.71167
-8.69714
-8.67888
-8.65671
-8.63042
-8.59981
-8.56467
-8.5248
-8.48
-8.43008
-8.37484
-8.31412
-8.24775
-8.17557
-8.09747
-8.01334
-7.92309
-7.82668
-7.72408
-7.61532
-7.50045
-7.37959
-7.25286
-7.12048
-6.98268
-6.83974
-6.69199
-6.53977
-6.38347
-6.22354
-6.06045
-5.89474
-5.72683
-5.55733
-5.38661
-5.21528
-5.04384
-4.8728
-4.70261
-4.53373
-4.36653
-4.20139
-4.03862
-3.87849
-3.72123
-3.56694
-3.41572
-3.26756
-3.12244
-2.98024
-2.84077
-2.70365
-2.56849
-2.43487
-2.30234
-2.17032
-2.03819
-1.90526
-1.77081
-1.63406
-1.4942
-1.35041
-1.20184
-1.04772
-0.88705
-0.718878
-0.542303
-0.35649
-0.160497
0.0464162
0.265037
0.495962
0.739876
0.997246
1.26855
1.55403
1.85391
2.16817
2.49681
2.83956
3.19607
3.56573
3.94782
4.34141
4.74549
5.15884
5.58018
6.00799
6.44071
6.87662
7.31406
7.75124
8.1865
8.61812
9.0445
9.46407
9.8754
10.2771
10.668
11.0469
11.4128
11.765
12.1027
12.4251
12.732
13.0227
13.2973
13.5556
13.7977
14.0239
14.2344
14.4298
14.6105
14.7772
14.9307
15.0718
15.2015
15.3212
15.4322
15.536
15.6348
15.7269
15.8196
15.8678
-7.85926
-7.87312
-7.8925
-7.90766
-7.91825
-7.92589
-7.9316
-7.93605
-7.93982
-7.94336
-7.94712
-7.95146
-7.95672
-7.96315
-7.97099
-7.98038
-7.99146
-8.00429
-8.01892
-8.03529
-8.05339
-8.07311
-8.0944
-8.11711
-8.14116
-8.16639
-8.19269
-8.21988
-8.24782
-8.27633
-8.30526
-8.33441
-8.36365
-8.39278
-8.42168
-8.45015
-8.4781
-8.50533
-8.53176
-8.55722
-8.58162
-8.6048
-8.62668
-8.6471
-8.66598
-8.68318
-8.69859
-8.71207
-8.72351
-8.73275
-8.73966
-8.7441
-8.74591
-8.74491
-8.74095
-8.73384
-8.7234
-8.70942
-8.69172
-8.67008
-8.64429
-8.61414
-8.57942
-8.5399
-8.49539
-8.44568
-8.39056
-8.32986
-8.26339
-8.19099
-8.11254
-8.02792
-7.93704
-7.83984
-7.73631
-7.62647
-7.51037
-7.38811
-7.25985
-7.1258
-6.98619
-6.84132
-6.69153
-6.5372
-6.37873
-6.21659
-6.0513
-5.88336
-5.71336
-5.54173
-5.36907
-5.19596
-5.02289
-4.85047
-4.6791
-4.50933
-4.34147
-4.176
-4.01319
-3.85334
-3.69666
-3.54325
-3.39324
-3.24657
-3.10331
-2.9632
-2.82608
-2.69144
-2.55907
-2.42841
-2.29912
-2.17049
-2.04199
-1.91274
-1.78214
-1.64927
-1.51344
-1.37367
-1.22928
-1.0792
-0.922646
-0.758438
-0.585906
-0.403931
-0.211854
-0.00863777
0.20625
0.433704
0.674157
0.928334
1.1965
1.47912
1.77623
2.08804
2.41438
2.75511
3.10976
3.47782
3.85852
4.25099
4.65417
5.06694
5.48792
5.91566
6.34857
6.78499
7.22318
7.66144
8.09799
8.53118
8.95933
9.3809
9.79437
10.1984
10.5917
10.9731
11.3416
11.6963
12.0366
12.3617
12.6711
12.9645
13.2416
13.5024
13.747
13.9755
14.1884
14.386
14.5689
14.7377
14.893
15.0357
15.1668
15.2872
15.3983
15.5011
15.597
15.6837
15.7673
15.801
-7.85028
-7.86566
-7.88727
-7.90427
-7.91654
-7.92586
-7.93318
-7.93916
-7.94438
-7.94934
-7.95447
-7.96013
-7.96664
-7.97423
-7.98314
-7.9935
-8.00543
-8.01899
-8.03422
-8.05108
-8.06956
-8.08957
-8.11104
-8.13384
-8.1579
-8.18305
-8.20919
-8.23615
-8.2638
-8.29196
-8.32051
-8.34925
-8.37808
-8.40679
-8.4353
-8.46341
-8.49102
-8.51798
-8.54418
-8.56947
-8.59376
-8.61689
-8.63879
-8.6593
-8.67834
-8.69575
-8.71143
-8.72524
-8.73706
-8.74672
-8.7541
-8.75904
-8.76137
-8.76091
-8.7575
-8.75094
-8.74104
-8.72758
-8.71037
-8.68917
-8.66378
-8.63397
-8.5995
-8.56016
-8.51573
-8.46598
-8.4107
-8.34971
-8.2828
-8.20983
-8.13063
-8.04509
-7.95311
-7.85465
-7.74967
-7.6382
-7.5203
-7.39607
-7.26569
-7.12935
-6.98732
-6.83992
-6.6875
-6.53047
-6.36927
-6.2044
-6.03639
-5.86581
-5.69322
-5.51922
-5.34432
-5.16914
-4.99432
-4.82036
-4.64781
-4.47711
-4.30873
-4.14304
-3.98039
-3.82107
-3.66527
-3.51313
-3.36471
-3.22004
-3.07905
-2.94153
-2.80714
-2.67558
-2.54651
-2.41948
-2.29393
-2.16927
-2.0448
-1.91977
-1.79339
-1.66488
-1.5334
-1.39807
-1.25805
-1.11235
-0.960006
-0.800021
-0.631537
-0.453583
-0.26534
-0.0659018
0.145423
0.369417
0.606641
0.857722
1.12303
1.40295
1.69763
2.0072
2.33155
2.67048
3.02357
3.39028
3.76987
4.16147
4.56406
4.97651
5.39747
5.8255
6.259
6.69631
7.13568
7.57539
8.01365
8.44878
8.87908
9.30296
9.7189
10.1255
10.5214
10.9055
11.2768
11.6343
11.9772
12.305
12.617
12.913
13.1926
13.4559
13.7028
13.9336
14.1486
14.3482
14.533
14.7035
14.8604
15.0044
15.1365
15.2574
15.3683
15.4696
15.5625
15.6437
15.7193
15.7413
-7.84834
-7.86444
-7.88709
-7.90507
-7.91848
-7.92908
-7.93773
-7.94502
-7.95155
-7.95779
-7.96416
-7.97101
-7.97864
-7.98728
-7.99713
-8.00833
-8.02099
-8.03517
-8.0509
-8.06816
-8.08693
-8.10715
-8.12874
-8.1516
-8.17564
-8.2007
-8.22671
-8.25348
-8.2809
-8.30881
-8.33709
-8.36556
-8.39411
-8.42257
-8.45084
-8.47875
-8.50621
-8.53305
-8.5592
-8.58449
-8.60884
-8.63209
-8.65417
-8.67493
-8.69426
-8.71203
-8.72812
-8.74238
-8.75468
-8.76488
-8.77282
-8.77832
-8.78124
-8.78137
-8.77854
-8.77254
-8.76317
-8.75021
-8.73344
-8.71263
-8.68755
-8.65795
-8.62361
-8.58428
-8.53972
-8.48971
-8.43403
-8.37246
-8.30482
-8.23091
-8.1506
-8.06374
-7.97025
-7.87007
-7.76317
-7.64958
-7.52935
-7.40262
-7.26955
-7.13037
-6.98537
-6.83488
-6.67929
-6.51903
-6.3546
-6.18651
-6.01535
-5.84173
-5.6663
-5.48953
-5.31221
-5.13481
-4.95811
-4.78259
-4.60887
-4.43734
-4.26856
-4.10286
-3.94063
-3.78214
-3.62755
-3.47706
-3.33064
-3.18841
-3.0501
-2.9156
-2.78448
-2.65657
-2.53134
-2.40843
-2.28711
-2.1669
-2.04692
-1.92653
-1.80478
-1.68102
-1.55422
-1.42367
-1.28822
-1.14712
-0.999116
-0.843506
-0.679106
-0.505238
-0.320766
-0.12508
0.0828332
0.303473
0.537682
0.785814
1.04849
1.3259
1.61839
1.92593
2.24853
2.58584
2.93755
3.30307
3.68177
4.07274
4.47506
4.88751
5.30882
5.73748
6.17195
6.61048
7.05139
7.49285
7.93313
8.37045
8.80315
9.22956
9.64817
10.0575
10.4563
10.8432
11.2174
11.5777
11.9234
12.2539
12.5686
12.8671
13.1492
13.4148
13.6639
13.8968
14.1137
14.3152
14.5016
14.6737
14.8319
14.977
15.1098
15.231
15.3413
15.4411
15.5308
15.607
15.6756
15.688
-7.85316
-7.86925
-7.89186
-7.91001
-7.92396
-7.93536
-7.94493
-7.95321
-7.96077
-7.96804
-7.97543
-7.98326
-7.99181
-8.00129
-8.01191
-8.02377
-8.03701
-8.05165
-8.06776
-8.0853
-8.10428
-8.12462
-8.14627
-8.16913
-8.19312
-8.2181
-8.24398
-8.27061
-8.29788
-8.32562
-8.35373
-8.38204
-8.41045
-8.43879
-8.46698
-8.49486
-8.52232
-8.54923
-8.57549
-8.60095
-8.62553
-8.64908
-8.6715
-8.69266
-8.71244
-8.73071
-8.74734
-8.76218
-8.7751
-8.78592
-8.7945
-8.80067
-8.80423
-8.805
-8.80278
-8.79736
-8.78852
-8.77603
-8.75966
-8.73916
-8.71429
-8.68481
-8.65044
-8.61096
-8.56609
-8.51561
-8.45928
-8.39687
-8.32819
-8.25303
-8.17125
-8.08271
-7.9873
-7.88497
-7.7757
-7.65951
-7.53647
-7.40673
-7.27047
-7.12793
-6.97944
-6.82535
-6.66609
-6.50214
-6.33402
-6.1623
-5.98762
-5.81065
-5.63198
-5.4524
-5.27236
-5.09271
-4.91405
-4.73704
-4.56218
-4.39001
-4.221
-4.05556
-3.89404
-3.73669
-3.58373
-3.43523
-3.2913
-3.15184
-3.01673
-2.88569
-2.75844
-2.6346
-2.51376
-2.39536
-2.2788
-2.16339
-2.04837
-1.93293
-1.81626
-1.69751
-1.57577
-1.45013
-1.31957
-1.1831
-1.0397
-0.888446
-0.728325
-0.558461
-0.377882
-0.185807
0.0186409
0.236113
0.467313
0.712677
0.972732
1.24777
1.53809
1.84371
2.16459
2.50045
2.85095
3.21556
3.59363
3.98432
4.38667
4.79949
5.22148
5.65112
6.08686
6.52696
6.96967
7.41316
7.85568
8.29543
8.73072
9.15984
9.58126
9.99349
10.3952
10.7851
11.1622
11.5254
11.874
12.2072
12.5245
12.8256
13.1101
13.378
13.6293
13.8642
14.083
14.2861
14.4741
14.6474
14.8067
14.9527
15.0859
15.2071
15.3168
15.4148
15.5016
15.5731
15.6357
15.6403
-7.86383
-7.8793
-7.90096
-7.91858
-7.9325
-7.94419
-7.95424
-7.96313
-7.97137
-7.97937
-7.9875
-7.99604
-8.00527
-8.01537
-8.02654
-8.03888
-8.05251
-8.06746
-8.08381
-8.10151
-8.12059
-8.14097
-8.16262
-8.18544
-8.20935
-8.23424
-8.26001
-8.28653
-8.31369
-8.34133
-8.36936
-8.39762
-8.42601
-8.45438
-8.48263
-8.51062
-8.53826
-8.56539
-8.59193
-8.61774
-8.64271
-8.66671
-8.68964
-8.71135
-8.73173
-8.75063
-8.76793
-8.78347
-8.7971
-8.80865
-8.81796
-8.82483
-8.8291
-8.83053
-8.82894
-8.82409
-8.81575
-8.8037
-8.78766
-8.7674
-8.74265
-8.71314
-8.67862
-8.6388
-8.59344
-8.54227
-8.48504
-8.42153
-8.35151
-8.27479
-8.1912
-8.1006
-8.00289
-7.89801
-7.78594
-7.66671
-7.54041
-7.4072
-7.26727
-7.12092
-6.96847
-6.81033
-6.64698
-6.47892
-6.30672
-6.13103
-5.95253
-5.7719
-5.58992
-5.40719
-5.22447
-5.0425
-4.86193
-4.68348
-4.50765
-4.33504
-4.16606
-4.00117
-3.8407
-3.68487
-3.53391
-3.38785
-3.24681
-3.11059
-2.97913
-2.85204
-2.72912
-2.6098
-2.49377
-2.38029
-2.26888
-2.15864
-2.04893
-1.93878
-1.82748
-1.71399
-1.59756
-1.47699
-1.35148
-1.21977
-1.08111
-0.934278
-0.778567
-0.612765
-0.436196
-0.247758
-0.0468819
0.167376
0.395442
0.638042
0.895472
1.16825
1.45648
1.76034
2.07966
2.41428
2.76379
3.12775
3.50548
3.89619
4.29887
4.71238
5.13533
5.56626
6.00354
6.44547
6.89022
7.33599
7.78094
8.22331
8.66132
9.0933
9.51763
9.93286
10.3376
10.7305
11.1106
11.4768
11.8282
12.1642
12.4842
12.7878
13.0747
13.3448
13.5982
13.835
14.0556
14.2603
14.4496
14.6242
14.7844
14.931
15.0646
15.1856
15.2944
15.3907
15.4745
15.5417
15.5991
15.5975
-7.8791
-7.89348
-7.9135
-7.93003
-7.9434
-7.95488
-7.96498
-7.97408
-7.98264
-7.99103
-7.99959
-8.00857
-8.01822
-8.0287
-8.0402
-8.05282
-8.06666
-8.08178
-8.09822
-8.11597
-8.13505
-8.15539
-8.17697
-8.19969
-8.2235
-8.24828
-8.27395
-8.30037
-8.32746
-8.35506
-8.38309
-8.41139
-8.43988
-8.46839
-8.49685
-8.5251
-8.55306
-8.58057
-8.60755
-8.63385
-8.65937
-8.68397
-8.70755
-8.72994
-8.75105
-8.7707
-8.78877
-8.80509
-8.81951
-8.83184
-8.84192
-8.84955
-8.85452
-8.85662
-8.85564
-8.85132
-8.84345
-8.83174
-8.81596
-8.79583
-8.77106
-8.74139
-8.70653
-8.6662
-8.62013
-8.56804
-8.50967
-8.44477
-8.37313
-8.29453
-8.2088
-8.11581
-8.01544
-7.90762
-7.79236
-7.66969
-7.53972
-7.40262
-7.25862
-7.10803
-6.95123
-6.78866
-6.62083
-6.44832
-6.27175
-6.09181
-5.90924
-5.72482
-5.5393
-5.35346
-5.16796
-4.98361
-4.80121
-4.6214
-4.44478
-4.27189
-4.10322
-3.93917
-3.78006
-3.62615
-3.47755
-3.33438
-3.19659
-3.06412
-2.93672
-2.81411
-2.69589
-2.5816
-2.47072
-2.36264
-2.25669
-2.15208
-2.04797
-1.94352
-1.83784
-1.73
-1.61904
-1.5039
-1.38355
-1.25695
-1.12314
-0.98107
-0.829809
-0.668317
-0.495745
-0.311139
-0.113776
0.0971547
0.322212
0.562031
0.817004
1.08756
1.37389
1.6761
1.99408
2.32764
2.67641
3.03995
3.41761
3.80859
4.21188
4.6263
5.05048
5.48291
5.92197
6.36591
6.81289
7.26107
7.7086
8.15369
8.59455
9.02946
9.4568
9.87507
10.2829
10.6789
11.062
11.4311
11.7854
12.1242
12.4468
12.7529
13.0422
13.3145
13.5699
13.8086
14.0309
14.2371
14.4278
14.6034
14.7645
14.9116
15.0453
15.166
15.2738
15.3684
15.4494
15.5128
15.5655
15.5589
-7.89763
-7.91058
-7.92849
-7.94347
-7.95586
-7.96671
-7.97644
-7.98537
-7.99389
-8.00234
-8.01101
-8.02013
-8.02992
-8.04054
-8.05216
-8.06485
-8.07874
-8.09385
-8.11026
-8.12794
-8.14692
-8.16715
-8.18859
-8.21117
-8.23483
-8.25948
-8.28504
-8.31138
-8.33842
-8.36603
-8.39413
-8.42256
-8.45123
-8.48001
-8.50879
-8.53743
-8.56583
-8.59385
-8.6214
-8.64832
-8.67451
-8.69983
-8.72415
-8.74733
-8.76924
-8.78971
-8.80861
-8.82576
-8.84099
-8.85412
-8.86497
-8.87333
-8.87898
-8.8817
-8.88125
-8.8774
-8.86988
-8.85842
-8.84276
-8.8226
-8.79766
-8.76765
-8.73226
-8.69121
-8.64419
-8.59094
-8.53116
-8.46461
-8.39105
-8.31027
-8.22209
-8.12637
-8.02298
-7.91188
-7.79306
-7.66658
-7.53256
-7.3912
-7.24274
-7.08752
-6.92598
-6.75859
-6.58593
-6.40861
-6.22734
-6.04286
-5.85598
-5.66753
-5.47838
-5.28919
-5.10091
-4.91424
-4.73008
-4.54907
-4.37188
-4.199
-4.03095
-3.86812
-3.71079
-3.55922
-3.41347
-3.27368
-3.1397
-3.0115
-2.8887
-2.7711
-2.6581
-2.54936
-2.44414
-2.34198
-2.24196
-2.14342
-2.04534
-1.94699
-1.84729
-1.74544
-1.64021
-1.53075
-1.41577
-1.29451
-1.16568
-1.02852
-0.881763
-0.724695
-0.556124
-0.375417
-0.18152
0.0260768
0.248226
0.485312
0.737971
1.00642
1.29101
1.59171
1.90852
2.2412
2.58947
2.9528
3.33063
3.72209
4.1262
4.54174
4.96734
5.40143
5.84243
6.28851
6.73784
7.18853
7.63874
8.08661
8.53036
8.96824
9.39864
9.81998
10.2309
10.63
11.0161
11.3882
11.7453
12.0868
12.4121
12.7206
13.0122
13.2867
13.5441
13.7846
14.0085
14.2162
14.4081
14.5847
14.7465
14.8941
15.0279
15.1482
15.2549
15.3477
15.4261
15.486
15.5347
15.524
-7.91812
-7.92945
-7.94498
-7.9581
-7.96917
-7.97902
-7.988
-7.99638
-8.00451
-8.01266
-8.02112
-8.03008
-8.03974
-8.05024
-8.06174
-8.07431
-8.08806
-8.10302
-8.11925
-8.13674
-8.15551
-8.17552
-8.19676
-8.21913
-8.24262
-8.26711
-8.29255
-8.31881
-8.34583
-8.37349
-8.40169
-8.4303
-8.45924
-8.48834
-8.51752
-8.54663
-8.57558
-8.6042
-8.63241
-8.66003
-8.68697
-8.71306
-8.73819
-8.76218
-8.78491
-8.80621
-8.82592
-8.84386
-8.85987
-8.87374
-8.88527
-8.89426
-8.90048
-8.90369
-8.90366
-8.90011
-8.89279
-8.88141
-8.86569
-8.84533
-8.82003
-8.78947
-8.75335
-8.71134
-8.66316
-8.60849
-8.54705
-8.47857
-8.40281
-8.31954
-8.22859
-8.1298
-8.02305
-7.9083
-7.78555
-7.65487
-7.5164
-7.37035
-7.21702
-7.05678
-6.89009
-6.7175
-6.53963
-6.35718
-6.1709
-5.98163
-5.79025
-5.59764
-5.4047
-5.21235
-5.02131
-4.83256
-4.64689
-4.46506
-4.28767
-4.11528
-3.94836
-3.78728
-3.63234
-3.48369
-3.34146
-3.20562
-3.07613
-2.95276
-2.83525
-2.72316
-2.61601
-2.51326
-2.41432
-2.31846
-2.22489
-2.13275
-2.04114
-1.94915
-1.85579
-1.76007
-1.66087
-1.55715
-1.44782
-1.33189
-1.20826
-1.07594
-0.933863
-0.781111
-0.616659
-0.439703
-0.249335
-0.044905
0.174333
0.408875
0.659265
0.925797
1.20874
1.50813
1.82393
2.15594
2.50386
2.86722
3.24538
3.63751
4.04259
4.45939
4.88651
5.32238
5.76536
6.21364
6.66534
7.11856
7.57142
8.02205
8.46865
8.90949
9.34292
9.76734
10.1813
10.5834
10.9726
11.3476
11.7076
12.0518
12.3796
12.6905
12.9844
13.261
13.5203
13.7626
13.9881
14.1972
14.3902
14.5678
14.7303
14.8783
15.012
15.1318
15.2375
15.3285
15.4044
15.4612
15.5062
15.4923
-7.93946
-7.94912
-7.96217
-7.97325
-7.98272
-7.99125
-7.99913
-8.0066
-8.01396
-8.02146
-8.02936
-8.03783
-8.04706
-8.05717
-8.0683
-8.08052
-8.09392
-8.10854
-8.12443
-8.14158
-8.16002
-8.1797
-8.20063
-8.22273
-8.24597
-8.27026
-8.29555
-8.32174
-8.34874
-8.37645
-8.40478
-8.43359
-8.4628
-8.49225
-8.52185
-8.55145
-8.58095
-8.61019
-8.63906
-8.66739
-8.69507
-8.72192
-8.74782
-8.77259
-8.7961
-8.81815
-8.83859
-8.85723
-8.87389
-8.88836
-8.90044
-8.9099
-8.91651
-8.92003
-8.92021
-8.91678
-8.90945
-8.89795
-8.88195
-8.86117
-8.83527
-8.80394
-8.76684
-8.72365
-8.67403
-8.61769
-8.55431
-8.48362
-8.40537
-8.31934
-8.22531
-8.12314
-8.01271
-7.89399
-7.76699
-7.63178
-7.48853
-7.33747
-7.17895
-7.01337
-6.84127
-6.66322
-6.47995
-6.29219
-6.1008
-5.90671
-5.71078
-5.51412
-5.31761
-5.1222
-4.92879
-4.73833
-4.55161
-4.36945
-4.19242
-4.0211
-3.85594
-3.69725
-3.54534
-3.40028
-3.26221
-3.13099
-3.0066
-2.88867
-2.77698
-2.6709
-2.57008
-2.47379
-2.38152
-2.29233
-2.20553
-2.12007
-2.03518
-1.94973
-1.86288
-1.77335
-1.68028
-1.58233
-1.4787
-1.36807
-1.24964
-1.1221
-0.98468
-0.836131
-0.675748
-0.502393
-0.315483
-0.114054
0.102372
0.334548
0.582786
0.847559
1.12899
1.42722
1.74214
2.07364
2.42137
2.78489
3.16349
3.55638
3.96246
4.38055
4.80917
5.24679
5.69169
6.14209
6.59605
7.0517
7.5071
7.96038
8.40971
8.85339
9.28972
9.71711
10.134
10.5391
10.9311
11.309
11.6717
12.0186
12.3489
12.6622
12.9582
13.2369
13.4981
13.7422
13.9692
14.1796
14.3738
14.5523
14.7155
14.8638
14.9975
15.1167
15.2213
15.3106
15.3843
15.4382
15.4799
15.4635
-7.96165
-7.96966
-7.98028
-7.9892
-7.99679
-8.00364
-8.01
-8.01612
-8.02225
-8.02866
-8.03557
-8.04314
-8.05155
-8.0609
-8.07132
-8.08287
-8.09563
-8.10962
-8.12491
-8.14147
-8.15936
-8.17852
-8.19896
-8.22061
-8.24346
-8.26742
-8.29245
-8.31844
-8.34534
-8.37301
-8.40138
-8.43031
-8.45971
-8.48942
-8.51937
-8.54937
-8.57934
-8.60911
-8.63855
-8.66749
-8.69582
-8.72332
-8.74988
-8.7753
-8.79944
-8.8221
-8.84313
-8.86229
-8.87943
-8.8943
-8.90672
-8.91644
-8.92323
-8.92684
-8.927
-8.92345
-8.9159
-8.90403
-8.88754
-8.8661
-8.83938
-8.80703
-8.76871
-8.72408
-8.67279
-8.61452
-8.54897
-8.47583
-8.39485
-8.30577
-8.2084
-8.10259
-7.98824
-7.86529
-7.73378
-7.59381
-7.44553
-7.28926
-7.12534
-6.95426
-6.77658
-6.59299
-6.40422
-6.21117
-6.01471
-5.81588
-5.61567
-5.41513
-5.21538
-5.01736
-4.82207
-4.63039
-4.44327
-4.2614
-4.08544
-3.91591
-3.75322
-3.5977
-3.44952
-3.30882
-3.17557
-3.0497
-2.93098
-2.81913
-2.71369
-2.61419
-2.52007
-2.43073
-2.34539
-2.26324
-2.18336
-2.10485
-2.02675
-1.94802
-1.86762
-1.78442
-1.69734
-1.60526
-1.50716
-1.4019
-1.28847
-1.16574
-1.03275
-0.888426
-0.731878
-0.562132
-0.378446