/*--------------------------------*- C++ -*----------------------------------*\
  =========                 |
  \\      /  F ield         | OpenFOAM: The Open Source CFD Toolbox
   \\    /   O peration     | Website:  https://openfoam.org
    \\  /    A nd           | Version:  8
     \\/     M anipulation  |
\*---------------------------------------------------------------------------*/
FoamFile
{
    version     2.0;
    format      ascii;
    class       surfaceScalarField;
    location    "115";
    object      phi;
}
// * * * * * * * * * * * * * * * * * * * * * * * * * * * * * * * * * * * * * //

dimensions      [0 3 -1 0 0 0 0];

internalField   nonuniform List<scalar> 
24170
(
3.12889e-06
5.95198e-08
3.04662e-06
8.22647e-08
2.97351e-06
7.31143e-08
2.90483e-06
6.86726e-08
2.84046e-06
6.4369e-08
2.78307e-06
5.73874e-08
2.73368e-06
4.93914e-08
2.69164e-06
4.2045e-08
2.65584e-06
3.57996e-08
2.62521e-06
3.06227e-08
2.59876e-06
2.6446e-08
2.57561e-06
2.31508e-08
2.55503e-06
2.05772e-08
2.53631e-06
1.8723e-08
2.51888e-06
1.74248e-08
2.50098e-06
1.79058e-08
2.4824e-06
1.8573e-08
3.35381e-08
2.44886e-06
3.45314e-06
2.36297e-08
3.45702e-06
7.83862e-08
3.45054e-06
7.95929e-08
3.43907e-06
8.01388e-08
3.42427e-06
7.91671e-08
3.407e-06
7.46546e-08
3.38774e-06
6.86528e-08
3.36716e-06
6.26238e-08
3.34594e-06
5.70191e-08
3.32466e-06
5.18995e-08
3.30379e-06
4.7309e-08
3.2836e-06
4.33369e-08
3.26427e-06
3.99117e-08
3.24578e-06
3.72077e-08
3.22824e-06
3.49607e-08
3.21142e-06
3.47303e-08
3.19587e-06
3.41146e-08
4.32875e-08
3.18612e-06
3.66826e-06
1.78884e-08
3.67918e-06
6.74652e-08
3.6854e-06
7.33691e-08
3.68943e-06
7.61123e-08
3.69101e-06
7.75898e-08
3.69001e-06
7.5648e-08
3.68684e-06
7.18282e-08
3.68194e-06
6.7518e-08
3.67572e-06
6.32445e-08
3.66848e-06
5.91386e-08
3.66049e-06
5.52939e-08
3.65199e-06
5.18345e-08
3.64314e-06
4.87633e-08
3.63407e-06
4.62771e-08
3.62477e-06
4.42619e-08
3.61572e-06
4.37817e-08
3.60616e-06
4.36716e-08
4.79406e-08
3.6015e-06
3.92587e-06
1.74066e-08
3.93591e-06
5.74247e-08
3.94255e-06
6.67298e-08
3.94807e-06
7.05867e-08
3.95246e-06
7.31977e-08
3.95538e-06
7.27308e-08
3.95701e-06
7.01991e-08
3.95758e-06
6.69398e-08
3.9573e-06
6.35313e-08
3.95628e-06
6.01511e-08
3.95467e-06
5.69055e-08
3.95257e-06
5.3935e-08
3.95005e-06
5.12788e-08
3.94721e-06
4.91113e-08
3.94406e-06
4.74191e-08
3.94102e-06
4.68157e-08
3.9379e-06
4.67912e-08
4.85505e-08
3.93729e-06
4.20819e-06
1.63429e-08
4.21597e-06
4.96404e-08
4.22166e-06
6.10429e-08
4.22675e-06
6.55013e-08
4.23147e-06
6.84745e-08
4.23541e-06
6.87933e-08
4.23853e-06
6.7075e-08
4.24095e-06
6.45213e-08
4.24277e-06
6.17152e-08
4.24406e-06
5.88551e-08
4.24491e-06
5.60556e-08
4.24539e-06
5.34556e-08
4.24555e-06
5.11201e-08
4.24547e-06
4.91875e-08
4.2452e-06
4.76885e-08
4.24508e-06
4.69393e-08
4.24519e-06
4.66793e-08
4.70952e-08
4.24664e-06
4.51069e-06
1.47447e-08
4.51687e-06
4.34514e-08
4.52211e-06
5.58052e-08
4.52691e-06
6.07042e-08
4.53159e-06
6.37873e-08
4.53581e-06
6.45785e-08
4.53944e-06
6.34452e-08
4.54254e-06
6.1417e-08
4.54519e-06
5.90652e-08
4.54744e-06
5.66012e-08
4.54935e-06
5.41495e-08
4.55096e-06
5.18393e-08
4.55233e-06
4.97493e-08
4.55354e-06
4.79818e-08
4.55465e-06
4.65752e-08
4.55592e-06
4.56662e-08
4.55752e-06
4.50812e-08
4.46643e-08
4.55995e-06
4.8343e-06
1.31604e-08
4.83962e-06
3.81376e-08
4.84473e-06
5.06929e-08
4.84941e-06
5.60207e-08
4.85402e-06
5.91807e-08
4.8583e-06
6.02957e-08
4.86213e-06
5.9617e-08
4.86554e-06
5.80076e-08
4.86859e-06
5.6019e-08
4.87131e-06
5.38738e-08
4.87376e-06
5.17032e-08
4.87597e-06
4.96261e-08
4.878e-06
4.77238e-08
4.87991e-06
4.60695e-08
4.88179e-06
4.46911e-08
4.88384e-06
4.36241e-08
4.88619e-06
4.2728e-08
4.17739e-08
4.88908e-06
5.18103e-06
1.17132e-08
5.18574e-06
3.34225e-08
5.19073e-06
4.57022e-08
5.19537e-06
5.13877e-08
5.19993e-06
5.46201e-08
5.20425e-06
5.59692e-08
5.20821e-06
5.5662e-08
5.2118e-06
5.44077e-08
5.2151e-06
5.27272e-08
5.21812e-06
5.08527e-08
5.2209e-06
4.89187e-08
5.22349e-06
4.70346e-08
5.22594e-06
4.52777e-08
5.2283e-06
4.36999e-08
5.23068e-06
4.23144e-08
5.2332e-06
4.11061e-08
5.23597e-06
3.99549e-08
3.86581e-08
5.23908e-06
5.55268e-06
1.03703e-08
5.55688e-06
2.92259e-08
5.56167e-06
4.09068e-08
5.56626e-06
4.67968e-08
5.5708e-06
5.00799e-08
5.57518e-06
5.15951e-08
5.57925e-06
5.15949e-08
5.583e-06
5.06522e-08
5.58648e-06
4.92439e-08
5.58973e-06
4.76084e-08
5.59277e-06
4.58802e-08
5.59564e-06
4.41609e-08
5.5984e-06
4.25207e-08
5.6011e-06
4.09972e-08
5.60382e-06
3.9592e-08
5.60666e-06
3.827e-08
5.60968e-06
3.69316e-08
3.54288e-08
5.61291e-06
5.95103e-06
9.11481e-09
5.95477e-06
2.54824e-08
5.95934e-06
3.63437e-08
5.96388e-06
4.22566e-08
5.9684e-06
4.55536e-08
5.97282e-06
4.71766e-08
5.97699e-06
4.74228e-08
5.98089e-06
4.67516e-08
5.98455e-06
4.55867e-08
5.98799e-06
4.41654e-08
5.99125e-06
4.26209e-08
5.99436e-06
4.1047e-08
5.99737e-06
3.95063e-08
6.00034e-06
3.80278e-08
6.00333e-06
3.66069e-08
6.00639e-06
3.52064e-08
6.00957e-06
3.37488e-08
3.21386e-08
6.01286e-06
6.37798e-06
7.94834e-09
6.38134e-06
2.21259e-08
6.38565e-06
3.20248e-08
6.39013e-06
3.77846e-08
6.39463e-06
4.10473e-08
6.39908e-06
4.2726e-08
6.40335e-06
4.31573e-08
6.40738e-06
4.27155e-08
6.4112e-06
4.17659e-08
6.41483e-06
4.05369e-08
6.41829e-06
3.9158e-08
6.42163e-06
3.77158e-08
6.42487e-06
3.62659e-08
6.42806e-06
3.48328e-08
6.43125e-06
3.34115e-08
6.43449e-06
3.19708e-08
6.43778e-06
3.04556e-08
2.88135e-08
6.44111e-06
5.74176e-06
7.02509e-09
5.74434e-06
1.95478e-08
5.7478e-06
2.85619e-08
5.75152e-06
3.40657e-08
5.75531e-06
3.72561e-08
5.75909e-06
3.89465e-08
5.76276e-06
3.94876e-08
5.76627e-06
3.92047e-08
5.76962e-06
3.84156e-08
5.77282e-06
3.73331e-08
5.77589e-06
3.60825e-08
5.77887e-06
3.47443e-08
5.78176e-06
3.33695e-08
5.78462e-06
3.19807e-08
5.78745e-06
3.05753e-08
5.79029e-06
2.91307e-08
5.79314e-06
2.76083e-08
2.59843e-08
5.79597e-06
6.99914e-06
6.04396e-09
7.00187e-06
1.6819e-08
7.00562e-06
2.4803e-08
7.00978e-06
2.99058e-08
7.0141e-06
3.29437e-08
7.01844e-06
3.45997e-08
7.02271e-06
3.52187e-08
7.02684e-06
3.50787e-08
7.03081e-06
3.44462e-08
7.03462e-06
3.35135e-08
7.03831e-06
3.23981e-08
7.04188e-06
3.11735e-08
7.04536e-06
2.98863e-08
7.04879e-06
2.8559e-08
7.05217e-06
2.71932e-08
7.05552e-06
2.57768e-08
7.05885e-06
2.42865e-08
2.27229e-08
7.06211e-06
8.53188e-06
5.01258e-09
8.53473e-06
1.39657e-08
8.53876e-06
2.07745e-08
8.54336e-06
2.53099e-08
8.54821e-06
2.80892e-08
8.55317e-06
2.96444e-08
8.55809e-06
3.02915e-08
8.56291e-06
3.02631e-08
8.56758e-06
2.97739e-08
8.57211e-06
2.89886e-08
8.57649e-06
2.80126e-08
8.58075e-06
2.69129e-08
8.58491e-06
2.57313e-08
8.58898e-06
2.44906e-08
8.59297e-06
2.31982e-08
8.5969e-06
2.18519e-08
8.60074e-06
2.04426e-08
1.89857e-08
8.60448e-06
1.04003e-05
3.93939e-09
1.04033e-05
1.10064e-08
1.04075e-05
1.6496e-08
1.04126e-05
2.02842e-08
1.0418e-05
2.26723e-08
1.04236e-05
2.4039e-08
1.04292e-05
2.46463e-08
1.04348e-05
2.46825e-08
1.04403e-05
2.43113e-08
1.04456e-05
2.36641e-08
1.04508e-05
2.28313e-08
1.04558e-05
2.187e-08
1.04607e-05
2.08181e-08
1.04655e-05
1.9698e-08
1.04702e-05
1.85224e-08
1.04748e-05
1.72967e-08
1.04792e-05
1.60219e-08
1.47222e-08
1.04834e-05
1.26779e-05
2.82876e-09
1.2681e-05
7.93426e-09
1.26855e-05
1.19638e-08
1.2691e-05
1.48193e-08
1.2697e-05
1.66613e-08
1.27033e-05
1.77293e-08
1.27097e-05
1.8214e-08
1.27162e-05
1.8254e-08
1.27225e-05
1.79654e-08
1.27287e-05
1.74431e-08
1.27348e-05
1.67564e-08
1.27407e-05
1.59517e-08
1.27465e-05
1.50601e-08
1.27521e-05
1.41031e-08
1.27575e-05
1.30947e-08
1.27628e-05
1.20458e-08
1.27678e-05
1.0962e-08
9.87144e-09
1.27727e-05
1.54543e-05
1.66922e-09
1.54576e-05
4.70189e-09
1.54624e-05
7.11775e-09
1.54684e-05
8.85251e-09
1.54751e-05
9.97913e-09
1.54822e-05
1.06225e-08
1.54895e-05
1.08916e-08
1.54969e-05
1.08695e-08
1.55042e-05
1.06246e-08
1.55115e-05
1.0214e-08
1.55185e-05
9.68124e-09
1.55254e-05
9.05776e-09
1.55321e-05
8.36534e-09
1.55386e-05
7.62078e-09
1.55449e-05
6.8365e-09
1.55509e-05
6.02386e-09
1.55567e-05
5.18974e-09
4.36035e-09
1.55622e-05
1.88389e-05
4.20425e-10
1.88424e-05
1.18395e-09
1.88477e-05
1.78339e-09
1.88544e-05
2.1923e-09
1.8862e-05
2.42853e-09
1.88701e-05
2.51926e-09
1.88785e-05
2.48527e-09
1.8887e-05
2.34539e-09
1.88955e-05
2.11756e-09
1.89039e-05
1.81849e-09
1.89121e-05
1.4611e-09
1.89201e-05
1.05665e-09
1.89279e-05
6.13777e-10
1.89353e-05
1.40744e-10
1.89425e-05
-3.55571e-10
1.89494e-05
-8.67445e-10
1.8956e-05
-1.38995e-09
-1.90209e-09
1.89623e-05
2.29648e-05
-1.0185e-09
2.29689e-05
-2.90778e-09
2.29751e-05
-4.45574e-09
2.29829e-05
-5.63245e-09
2.29918e-05
-6.45997e-09
2.30014e-05
-7.02585e-09
2.30113e-05
-7.41813e-09
2.30213e-05
-7.69265e-09
2.30313e-05
-7.88737e-09
2.30412e-05
-8.03462e-09
2.30508e-05
-8.1594e-09
2.30601e-05
-8.27672e-09
2.30691e-05
-8.39494e-09
2.30778e-05
-8.51815e-09
2.30861e-05
-8.64819e-09
2.3094e-05
-8.78428e-09
2.31015e-05
-8.92559e-09
-9.0586e-09
2.31087e-05
1.68118e-05
-2.14663e-09
1.6815e-05
-6.09157e-09
1.68199e-05
-9.30814e-09
1.68259e-05
-1.16616e-08
1.68326e-05
-1.3213e-08
1.68398e-05
-1.41913e-08
1.68472e-05
-1.47846e-08
1.68546e-05
-1.50985e-08
1.68619e-05
-1.52114e-08
1.68691e-05
-1.51975e-08
1.6876e-05
-1.51084e-08
1.68827e-05
-1.49794e-08
1.68892e-05
-1.48289e-08
1.68953e-05
-1.46722e-08
1.69012e-05
-1.45151e-08
1.69068e-05
-1.43635e-08
1.6912e-05
-1.42171e-08
-1.40688e-08
1.69171e-05
1.46357e-05
-3.22873e-09
1.46387e-05
-9.18775e-09
1.46435e-05
-1.40383e-08
1.46492e-05
-1.74279e-08
1.46556e-05
-1.95282e-08
1.46622e-05
-2.07907e-08
1.46689e-05
-2.14858e-08
1.46755e-05
-2.1751e-08
1.4682e-05
-2.17178e-08
1.46883e-05
-2.15024e-08
1.46944e-05
-2.11815e-08
1.47002e-05
-2.0799e-08
1.47058e-05
-2.03855e-08
1.47111e-05
-1.99606e-08
1.47161e-05
-1.95378e-08
1.47208e-05
-1.91227e-08
1.47253e-05
-1.87197e-08
-1.83217e-08
1.47296e-05
1.27411e-05
-4.24074e-09
1.27443e-05
-1.23205e-08
1.27491e-05
-1.88807e-08
1.27548e-05
-2.30892e-08
1.27608e-05
-2.55274e-08
1.2767e-05
-2.69697e-08
1.27731e-05
-2.76805e-08
1.27792e-05
-2.78092e-08
1.27851e-05
-2.75635e-08
1.27907e-05
-2.71088e-08
1.2796e-05
-2.65351e-08
1.28011e-05
-2.58934e-08
1.28059e-05
-2.52208e-08
1.28105e-05
-2.45414e-08
1.28149e-05
-2.38712e-08
1.28189e-05
-2.32164e-08
1.28228e-05
-2.2582e-08
-2.19622e-08
1.28264e-05
1.10918e-05
-5.08467e-09
1.1095e-05
-1.55456e-08
1.11001e-05
-2.40144e-08
1.11058e-05
-2.87242e-08
1.11115e-05
-3.12738e-08
1.11173e-05
-3.27951e-08
1.11231e-05
-3.34195e-08
1.11286e-05
-3.33301e-08
1.11339e-05
-3.28292e-08
1.11389e-05
-3.21143e-08
1.11436e-05
-3.12776e-08
1.11481e-05
-3.03753e-08
1.11523e-05
-2.94497e-08
1.11563e-05
-2.85295e-08
1.11601e-05
-2.76286e-08
1.11636e-05
-2.67553e-08
1.11669e-05
-2.59115e-08
-2.50949e-08
1.11701e-05
9.65582e-06
-5.68537e-09
9.65925e-06
-1.89764e-08
9.6646e-06
-2.93663e-08
9.6701e-06
-3.42279e-08
9.67567e-06
-3.68377e-08
9.68123e-06
-3.83582e-08
9.68657e-06
-3.87549e-08
9.69159e-06
-3.83581e-08
9.69633e-06
-3.75704e-08
9.70081e-06
-3.65866e-08
9.70501e-06
-3.54853e-08
9.70896e-06
-3.4326e-08
9.71267e-06
-3.31553e-08
9.71614e-06
-3.2003e-08
9.7194e-06
-3.08833e-08
9.72244e-06
-2.98028e-08
9.72529e-06
-2.87626e-08
-2.77584e-08
9.72796e-06
8.4053e-06
-5.63263e-09
8.40964e-06
-2.33154e-08
8.41488e-06
-3.46065e-08
8.41991e-06
-3.92586e-08
8.42528e-06
-4.22052e-08
8.43069e-06
-4.37667e-08
8.43577e-06
-4.38384e-08
8.44047e-06
-4.30592e-08
8.44483e-06
-4.19309e-08
8.44888e-06
-4.06298e-08
8.45262e-06
-3.92262e-08
8.45607e-06
-3.77817e-08
8.45926e-06
-3.63454e-08
8.46221e-06
-3.49448e-08
8.46492e-06
-3.35949e-08
8.46742e-06
-3.23013e-08
8.46972e-06
-3.10652e-08
-2.98823e-08
8.47184e-06
7.3145e-06
-2.85012e-09
7.32119e-06
-3.00062e-08
7.32675e-06
-4.01625e-08
7.3317e-06
-4.42081e-08
7.3371e-06
-4.76022e-08
7.34242e-06
-4.90855e-08
7.34729e-06
-4.87121e-08
7.3517e-06
-4.74651e-08
7.35567e-06
-4.58982e-08
7.35921e-06
-4.41702e-08
7.36234e-06
-4.23619e-08
7.36511e-06
-4.05461e-08
7.36754e-06
-3.87737e-08
7.36966e-06
-3.70699e-08
7.37152e-06
-3.54491e-08
7.37313e-06
-3.3914e-08
7.37453e-06
-3.24645e-08
-3.109e-08
7.37573e-06
6.36243e-06
4.78186e-09
6.3719e-06
-3.947e-08
6.37933e-06
-4.75886e-08
6.38596e-06
-5.08459e-08
6.39225e-06
-5.38829e-08
6.39756e-06
-5.43963e-08
6.40185e-06
-5.30019e-08
6.40532e-06
-5.09383e-08
6.40811e-06
-4.86877e-08
6.41028e-06
-4.63397e-08
6.41189e-06
-4.39748e-08
6.41302e-06
-4.16676e-08
6.41371e-06
-3.94692e-08
6.41404e-06
-3.73977e-08
6.41406e-06
-3.54658e-08
6.41382e-06
-3.36712e-08
6.41336e-06
-3.20135e-08
-3.04721e-08
6.41275e-06
5.54129e-06
8.95286e-09
5.55032e-06
-4.84999e-08
5.55834e-06
-5.56023e-08
5.56605e-06
-5.85523e-08
5.57251e-06
-6.03425e-08
5.57683e-06
-5.87193e-08
5.57907e-06
-5.52389e-08
5.57962e-06
-5.1491e-08
5.57886e-06
-4.79249e-08
5.57706e-06
-4.45415e-08
5.57445e-06
-4.13636e-08
5.57122e-06
-3.84315e-08
5.5675e-06
-3.57534e-08
5.56343e-06
-3.33229e-08
5.55909e-06
-3.11317e-08
5.55459e-06
-2.91687e-08
5.55001e-06
-2.74344e-08
-2.58739e-08
5.54541e-06
4.86019e-06
-2.36298e-08
4.86538e-06
-5.36904e-08
4.86523e-06
-5.54529e-08
4.86217e-06
-5.54887e-08
4.857e-06
-5.51694e-08
4.8495e-06
-5.12152e-08
4.8398e-06
-4.55432e-08
4.8284e-06
-4.00934e-08
4.81582e-06
-3.53406e-08
4.80253e-06
-3.12532e-08
4.78892e-06
-2.77516e-08
4.77527e-06
-2.4776e-08
4.76176e-06
-2.22464e-08
4.74854e-06
-2.00971e-08
4.73568e-06
-1.82719e-08
4.72326e-06
-1.67473e-08
4.71138e-06
-1.55597e-08
-1.52192e-08
4.70073e-06
4.17905e-06
4.12536e-06
4.0699e-06
4.01441e-06
3.95925e-06
3.90803e-06
3.86249e-06
3.82239e-06
3.78705e-06
3.7558e-06
3.72805e-06
3.70327e-06
3.68103e-06
3.66093e-06
3.64266e-06
3.62591e-06
3.61035e-06
3.59513e-06
2.22147e-08
-2.22298e-08
4.13248e-08
-1.91155e-08
5.24897e-08
-1.11853e-08
5.56049e-08
-3.11768e-09
5.14836e-08
4.10124e-09
4.14473e-08
1.00316e-08
2.6802e-08
1.4623e-08
8.72923e-09
1.80647e-08
-1.19485e-08
2.06547e-08
-3.46509e-08
2.26939e-08
-5.90689e-08
2.43967e-08
-8.48106e-08
2.5736e-08
-1.1102e-07
2.61911e-08
-1.37446e-07
2.64218e-08
-1.66034e-07
2.85703e-08
-1.99025e-07
3.29888e-08
-2.38674e-07
3.96233e-08
-2.79019e-07
4.03393e-08
-3.174e-07
3.83498e-08
-3.61953e-07
4.45513e-08
-4.11029e-07
4.90474e-08
-4.63033e-07
5.20067e-08
-5.17711e-07
5.46529e-08
-5.74034e-07
5.63285e-08
-6.31096e-07
5.70385e-08
-6.88772e-07
5.76801e-08
-7.46924e-07
5.81254e-08
-8.05217e-07
5.82957e-08
-8.63431e-07
5.81874e-08
-9.21254e-07
5.78221e-08
-9.78516e-07
5.72309e-08
-1.03497e-06
5.64495e-08
-1.09052e-06
5.55144e-08
-1.14498e-06
5.44613e-08
-1.19834e-06
5.33227e-08
-1.25048e-06
5.21286e-08
-1.30142e-06
5.09032e-08
-1.3511e-06
4.96683e-08
-1.39957e-06
4.84391e-08
-1.4468e-06
4.72297e-08
-1.49288e-06
4.60479e-08
-1.53779e-06
4.49005e-08
-1.5816e-06
4.37877e-08
-1.62432e-06
4.2712e-08
-1.66602e-06
4.16697e-08
-1.70669e-06
4.06612e-08
-1.7464e-06
3.96796e-08
-1.78513e-06
3.87237e-08
-1.82295e-06
3.77854e-08
-1.85981e-06
3.68628e-08
-1.89579e-06
3.59457e-08
-1.93082e-06
3.50325e-08
-1.96497e-06
3.41123e-08
-1.99815e-06
3.31829e-08
-2.03042e-06
3.22338e-08
-2.0617e-06
3.12653e-08
-2.092e-06
3.02667e-08
-2.12125e-06
2.92387e-08
-2.14947e-06
2.81709e-08
-2.17655e-06
2.70668e-08
-2.20251e-06
2.59156e-08
-2.22725e-06
2.47215e-08
-2.25079e-06
2.34746e-08
-2.27299e-06
2.21817e-08
-2.29389e-06
2.08335e-08
-2.31335e-06
1.94391e-08
-2.33141e-06
1.79885e-08
-2.34793e-06
1.64927e-08
-2.36293e-06
1.49421e-08
-2.37631e-06
1.33484e-08
-2.38808e-06
1.17023e-08
-2.39813e-06
1.00159e-08
-2.40647e-06
8.27854e-09
-2.413e-06
6.50125e-09
-2.41774e-06
4.66696e-09
-2.42055e-06
2.78307e-09
-2.42145e-06
8.38762e-10
-2.4204e-06
-1.09133e-09
-2.41762e-06
-2.86051e-09
-2.41326e-06
-4.4174e-09
-2.40748e-06
-5.86736e-09
-2.40033e-06
-7.22539e-09
-2.39194e-06
-8.50633e-09
-2.38233e-06
-9.69074e-09
-2.37167e-06
-1.0787e-08
-2.36e-06
-1.17763e-08
-2.34747e-06
-1.26666e-08
-2.33418e-06
-1.34397e-08
-2.32027e-06
-1.40902e-08
-2.30587e-06
-1.46181e-08
-2.29109e-06
-1.49983e-08
-2.27608e-06
-1.52363e-08
-2.26096e-06
-1.53222e-08
-2.2459e-06
-1.52674e-08
-2.23102e-06
-1.50732e-08
-2.21646e-06
-1.47481e-08
-2.20235e-06
-1.42891e-08
-2.18879e-06
-1.37176e-08
-2.17589e-06
-1.30489e-08
-2.16374e-06
-1.22783e-08
-2.15241e-06
-1.14326e-08
-2.14198e-06
-1.05242e-08
-2.13253e-06
-9.52938e-09
-2.12407e-06
-8.53217e-09
-2.11658e-06
-7.5699e-09
-2.1101e-06
-6.57039e-09
-2.10463e-06
-5.58638e-09
-2.1001e-06
-4.65858e-09
-2.09646e-06
-3.80147e-09
-2.09365e-06
-2.9966e-09
-2.09144e-06
-2.41671e-09
-2.08965e-06
-2.02321e-09
-2.08832e-06
-1.57926e-09
-2.08719e-06
-1.40715e-09
-2.08597e-06
-1.50487e-09
-2.08452e-06
-1.75506e-09
-2.0828e-06
-2.03038e-09
-2.08056e-06
-2.56191e-09
-2.07737e-06
-3.48953e-09
-2.07339e-06
-4.31334e-09
-2.0683e-06
-5.46602e-09
-2.06173e-06
-7.03887e-09
-2.05349e-06
-8.73649e-09
-2.04345e-06
-1.05811e-08
-2.03135e-06
-1.25705e-08
-2.0169e-06
-1.49232e-08
-1.99985e-06
-1.74091e-08
-1.98023e-06
-1.99579e-08
-1.9578e-06
-2.26424e-08
-1.93238e-06
-2.56164e-08
-1.90375e-06
-2.868e-08
-1.87187e-06
-3.19027e-08
-1.83659e-06
-3.51688e-08
-1.79791e-06
-3.85259e-08
-1.75563e-06
-4.19943e-08
-1.70978e-06
-4.55195e-08
-1.66025e-06
-4.90589e-08
-1.6071e-06
-5.26253e-08
-1.55027e-06
-5.61575e-08
-1.48989e-06
-5.96712e-08
-1.42601e-06
-6.31371e-08
-1.35876e-06
-6.65555e-08
-1.28822e-06
-6.98957e-08
-1.2145e-06
-7.31333e-08
-1.13773e-06
-7.62404e-08
-1.05805e-06
-7.91906e-08
-9.75635e-07
-8.19658e-08
-8.90679e-07
-8.45538e-08
-8.0337e-07
-8.69481e-08
-7.13904e-07
-8.91446e-08
-6.22477e-07
-9.11411e-08
-5.29295e-07
-9.29335e-08
-4.34557e-07
-9.45181e-08
-3.38517e-07
-9.58561e-08
-2.41393e-07
-9.69669e-08
-1.43066e-07
-9.82057e-08
-4.30564e-08
-9.99148e-08
5.89791e-08
-1.0198e-07
1.62231e-07
-1.03219e-07
2.65635e-07
-1.03404e-07
3.68668e-07
-1.03045e-07
4.70917e-07
-1.02286e-07
5.72062e-07
-1.01187e-07
6.71766e-07
-9.97626e-08
7.69762e-07
-9.80541e-08
8.65777e-07
-9.60833e-08
9.59585e-07
-9.387e-08
1.05097e-06
-9.14493e-08
1.13976e-06
-8.8849e-08
1.22573e-06
-8.60303e-08
1.30866e-06
-8.29805e-08
1.38829e-06
-7.96852e-08
1.4643e-06
-7.60505e-08
1.53621e-06
-7.19484e-08
1.60334e-06
-6.71691e-08
1.66462e-06
-6.13141e-08
1.71757e-06
-5.2996e-08
1.7574e-06
-3.98625e-08
1.76402e-06
-6.63967e-09
6.70737e-08
1.69695e-06
1.2871e-08
-3.51119e-08
1.65657e-08
-2.28153e-08
1.40101e-08
-8.64016e-09
6.94873e-09
3.94093e-09
-4.01729e-09
1.50576e-08
-1.87177e-08
2.4728e-08
-3.70968e-08
3.29916e-08
-5.90361e-08
3.99986e-08
-8.4394e-08
4.60017e-08
-1.13023e-07
5.1317e-08
-1.4489e-07
5.62531e-08
-1.80167e-07
6.10087e-08
-2.19468e-07
6.54828e-08
-2.62935e-07
6.98841e-08
-3.09571e-07
7.51971e-08
-3.58184e-07
8.15972e-08
-4.06772e-07
8.82013e-08
-4.59511e-07
9.30733e-08
-5.17427e-07
9.62562e-08
-5.73371e-07
1.00491e-07
-6.28878e-07
1.04545e-07
-6.84653e-07
1.07779e-07
-7.40306e-07
1.10298e-07
-7.96018e-07
1.12038e-07
-8.51886e-07
1.12898e-07
-9.07282e-07
1.13074e-07
-9.61901e-07
1.12735e-07
-1.01555e-06
1.11943e-07
-1.06813e-06
1.10751e-07
-1.11952e-06
1.09217e-07
-1.1697e-06
1.07399e-07
-1.21862e-06
1.05355e-07
-1.26626e-06
1.03145e-07
-1.31262e-06
1.0082e-07
-1.35774e-06
9.84258e-08
-1.40162e-06
9.60023e-08
-1.44432e-06
9.35812e-08
-1.48584e-06
9.11876e-08
-1.52626e-06
8.88401e-08
-1.56558e-06
8.6551e-08
-1.60388e-06
8.43276e-08
-1.64115e-06
8.21732e-08
-1.67747e-06
8.00873e-08
-1.71283e-06
7.80668e-08
-1.74728e-06
7.61063e-08
-1.78082e-06
7.4199e-08
-1.81349e-06
7.23362e-08
-1.84529e-06
7.05091e-08
-1.87622e-06
6.87073e-08
-1.90629e-06
6.6921e-08
-1.93549e-06
6.5139e-08
-1.96382e-06
6.33509e-08
-1.99127e-06
6.15451e-08
-2.01781e-06
5.97124e-08
-2.04343e-06
5.78422e-08
-2.0681e-06
5.59267e-08
-2.09181e-06
5.39563e-08
-2.11451e-06
5.1925e-08
-2.13619e-06
4.98247e-08
-2.15679e-06
4.76515e-08
-2.17629e-06
4.53987e-08
-2.19465e-06
4.30641e-08
-2.21184e-06
4.06432e-08
-2.22782e-06
3.81372e-08
-2.24256e-06
3.55431e-08
-2.256e-06
3.28647e-08
-2.26814e-06
3.0101e-08
-2.27893e-06
2.72582e-08
-2.28835e-06
2.43372e-08
-2.29638e-06
2.13468e-08
-2.303e-06
1.82906e-08
-2.30819e-06
1.51805e-08
-2.31196e-06
1.20232e-08
-2.31432e-06
8.83468e-09
-2.31531e-06
5.62738e-09
-2.31498e-06
2.42824e-09
-2.31344e-06
-7.32672e-10
-2.31076e-06
-3.80743e-09
-2.30689e-06
-6.77015e-09
-2.30174e-06
-9.60726e-09
-2.29533e-06
-1.23185e-08
-2.28772e-06
-1.48897e-08
-2.27897e-06
-1.73112e-08
-2.26915e-06
-1.95616e-08
-2.25837e-06
-2.16301e-08
-2.24671e-06
-2.3498e-08
-2.2343e-06
-2.51565e-08
-2.22123e-06
-2.65854e-08
-2.20764e-06
-2.77794e-08
-2.19365e-06
-2.87166e-08
-2.17938e-06
-2.93944e-08
-2.16493e-06
-2.97969e-08
-2.15044e-06
-2.99201e-08
-2.13603e-06
-2.97737e-08
-2.12184e-06
-2.93649e-08
-2.10797e-06
-2.87078e-08
-2.09453e-06
-2.78119e-08
-2.08163e-06
-2.66999e-08
-2.06935e-06
-2.53947e-08
-2.05777e-06
-2.39177e-08
-2.04696e-06
-2.22944e-08
-2.03697e-06
-2.05568e-08
-2.0278e-06
-1.87305e-08
-2.0195e-06
-1.68672e-08
-2.01209e-06
-1.50171e-08
-2.00553e-06
-1.31876e-08
-1.99976e-06
-1.14187e-08
-1.99474e-06
-9.75954e-09
-1.99037e-06
-8.2655e-09
-1.9865e-06
-6.96717e-09
-1.98311e-06
-5.93713e-09
-1.98005e-06
-5.21195e-09
-1.97704e-06
-4.74062e-09
-1.97402e-06
-4.58296e-09
-1.97092e-06
-4.77654e-09
-1.96753e-06
-5.3234e-09
-1.96353e-06
-6.21882e-09
-1.95876e-06
-7.50849e-09
-1.95317e-06
-9.25541e-09
-1.94631e-06
-1.13621e-08
-1.93809e-06
-1.3932e-08
-1.92839e-06
-1.70119e-08
-1.91693e-06
-2.05211e-08
-1.9034e-06
-2.44161e-08
-1.88758e-06
-2.8692e-08
-1.86938e-06
-3.33839e-08
-1.84861e-06
-3.84195e-08
-1.82497e-06
-4.37767e-08
-1.79832e-06
-4.94445e-08
-1.76856e-06
-5.54698e-08
-1.73554e-06
-6.17585e-08
-1.69914e-06
-6.82991e-08
-1.65923e-06
-7.50329e-08
-1.61567e-06
-8.19759e-08
-1.56844e-06
-8.90737e-08
-1.51746e-06
-9.62924e-08
-1.46269e-06
-1.03572e-07
-1.40412e-06
-1.10879e-07
-1.34174e-06
-1.18158e-07
-1.27562e-06
-1.25381e-07
-1.20583e-06
-1.32515e-07
-1.13248e-06
-1.3953e-07
-1.05565e-06
-1.46379e-07
-9.75469e-07
-1.53006e-07
-8.92066e-07
-1.59364e-07
-8.05605e-07
-1.65397e-07
-7.16267e-07
-1.71074e-07
-6.24252e-07
-1.76365e-07
-5.29767e-07
-1.81252e-07
-4.3303e-07
-1.85724e-07
-3.34259e-07
-1.89773e-07
-2.33679e-07
-1.93397e-07
-1.31461e-07
-1.96636e-07
-2.7671e-08
-1.99569e-07
7.75276e-08
-2.02103e-07
1.83654e-07
-2.04293e-07
2.89942e-07
-2.06175e-07
3.95472e-07
-2.07503e-07
5.00127e-07
-2.07873e-07
6.03995e-07
-2.07291e-07
7.06862e-07
-2.05934e-07
8.08478e-07
-2.0394e-07
9.08616e-07
-2.01364e-07
1.00705e-06
-1.98247e-07
1.10358e-06
-1.94631e-07
1.19801e-06
-1.90575e-07
1.29018e-06
-1.86094e-07
1.37991e-06
-1.81241e-07
1.46704e-06
-1.76031e-07
1.5514e-06
-1.70447e-07
1.63281e-06
-1.64438e-07
1.71102e-06
-1.57952e-07
1.78574e-06
-1.50814e-07
1.85654e-06
-1.42796e-07
1.92281e-06
-1.33482e-07
1.98356e-06
-1.22107e-07
2.03704e-06
-1.06519e-07
2.08009e-06
-8.29527e-08
2.11222e-06
-3.87912e-08
5.13986e-08
2.12788e-06
-2.33028e-09
-3.27908e-08
-1.15941e-08
-1.35556e-08
-2.41599e-08
3.91859e-09
-3.93067e-08
1.9086e-08
-5.6867e-08
3.26118e-08
-7.6935e-08
4.47937e-08
-9.97412e-08
5.57916e-08
-1.2551e-07
6.57644e-08
-1.54427e-07
7.49124e-08
-1.86574e-07
8.34604e-08
-2.21937e-07
9.16099e-08
-2.60408e-07
9.94773e-08
-3.01964e-07
1.07033e-07
-3.46412e-07
1.14329e-07
-3.92836e-07
1.21616e-07
-4.40133e-07
1.28892e-07
-4.87707e-07
1.35769e-07
-5.36303e-07
1.41667e-07
-5.86456e-07
1.46403e-07
-6.36505e-07
1.50538e-07
-6.86029e-07
1.54063e-07
-7.35129e-07
1.56877e-07
-7.83764e-07
1.58927e-07
-8.31841e-07
1.60113e-07
-8.79406e-07
1.60457e-07
-9.26384e-07
1.60049e-07
-9.72658e-07
1.59002e-07
-1.01813e-06
1.57413e-07
-1.06275e-06
1.55367e-07
-1.10649e-06
1.52946e-07
-1.14932e-06
1.50223e-07
-1.19123e-06
1.47269e-07
-1.23224e-06
1.44147e-07
-1.27234e-06
1.40915e-07
-1.31155e-06
1.37624e-07
-1.34987e-06
1.34314e-07
-1.38731e-06
1.3102e-07
-1.4239e-06
1.27769e-07
-1.45964e-06
1.24578e-07
-1.49456e-06
1.2146e-07
-1.52866e-06
1.18423e-07
-1.56196e-06
1.15469e-07
-1.59447e-06
1.12596e-07
-1.62621e-06
1.09799e-07
-1.65718e-06
1.07072e-07
-1.68739e-06
1.04405e-07
-1.71685e-06
1.01787e-07
-1.74556e-06
9.92067e-08
-1.77351e-06
9.66502e-08
-1.8007e-06
9.41043e-08
-1.82712e-06
9.1555e-08
-1.85277e-06
8.89885e-08
-1.87762e-06
8.63906e-08
-1.90167e-06
8.3748e-08
-1.92489e-06
8.10481e-08
-1.94725e-06
7.82791e-08
-1.96873e-06
7.543e-08
-1.98931e-06
7.2491e-08
-2.00895e-06
6.94533e-08
-2.02762e-06
6.63097e-08
-2.04529e-06
6.30534e-08
-2.06192e-06
5.96803e-08
-2.07747e-06
5.61869e-08
-2.09192e-06
5.2572e-08
-2.10523e-06
4.88358e-08
-2.11736e-06
4.49807e-08
-2.12828e-06
4.10098e-08
-2.13796e-06
3.69294e-08
-2.14639e-06
3.27465e-08
-2.15353e-06
2.84714e-08
-2.15937e-06
2.41157e-08
-2.16391e-06
1.96947e-08
-2.16713e-06
1.52254e-08
-2.16904e-06
1.07301e-08
-2.16967e-06
6.23262e-09
-2.16902e-06
1.76406e-09
-2.16713e-06
-2.64231e-09
-2.16401e-06
-6.95194e-09
-2.15967e-06
-1.11405e-08
-2.15411e-06
-1.51878e-08
-2.14739e-06
-1.90713e-08
-2.13955e-06
-2.27637e-08
-2.13065e-06
-2.62393e-08
-2.12078e-06
-2.94707e-08
-2.11001e-06
-3.24339e-08
-2.09844e-06
-3.51042e-08
-2.08618e-06
-3.74611e-08
-2.07333e-06
-3.94848e-08
-2.06e-06
-4.11555e-08
-2.04632e-06
-4.24644e-08
-2.03238e-06
-4.33908e-08
-2.01831e-06
-4.39254e-08
-2.00422e-06
-4.4068e-08
-1.99022e-06
-4.38223e-08
-1.97642e-06
-4.32053e-08
-1.96294e-06
-4.22315e-08
-1.94986e-06
-4.09247e-08
-1.93729e-06
-3.93107e-08
-1.92528e-06
-3.74239e-08
-1.91392e-06
-3.52993e-08
-1.90326e-06
-3.29764e-08
-1.89333e-06
-3.0503e-08
-1.88415e-06
-2.7926e-08
-1.87572e-06
-2.53042e-08
-1.86807e-06
-2.26957e-08
-1.86114e-06
-2.01474e-08
-1.85489e-06
-1.77068e-08
-1.84926e-06
-1.54433e-08
-1.84416e-06
-1.34289e-08
-1.83948e-06
-1.1719e-08
-1.83513e-06
-1.03654e-08
-1.831e-06
-9.43e-09
-1.82692e-06
-8.9252e-09
-1.82274e-06
-8.86697e-09
-1.81833e-06
-9.29962e-09
-1.81351e-06
-1.02711e-08
-1.80803e-06
-1.18152e-08
-1.80172e-06
-1.39372e-08
-1.79442e-06
-1.6674e-08
-1.78587e-06
-2.00439e-08
-1.77591e-06
-2.40661e-08
-1.76436e-06
-2.87594e-08
-1.75099e-06
-3.41156e-08
-1.73553e-06
-4.00819e-08
-1.7178e-06
-4.66373e-08
-1.69761e-06
-5.37484e-08
-1.67479e-06
-6.14036e-08
-1.64911e-06
-6.95794e-08
-1.62042e-06
-7.82437e-08
-1.58858e-06
-8.73735e-08
-1.55346e-06
-9.69206e-08
-1.51493e-06
-1.06828e-07
-1.47287e-06
-1.17066e-07
-1.42717e-06
-1.27602e-07
-1.37777e-06
-1.3837e-07
-1.32461e-06
-1.49309e-07
-1.26765e-06
-1.60353e-07
-1.20688e-06
-1.71431e-07
-1.14231e-06
-1.82479e-07
-1.07398e-06
-1.93437e-07
-1.00199e-06
-2.04253e-07
-9.26426e-07
-2.14871e-07
-8.47396e-07
-2.25215e-07
-7.65028e-07
-2.35208e-07
-6.79472e-07
-2.44772e-07
-5.90904e-07
-2.53838e-07
-4.99518e-07
-2.62347e-07
-4.05526e-07
-2.7026e-07
-3.09151e-07
-2.77541e-07
-2.10627e-07
-2.84175e-07
-1.10185e-07
-2.90151e-07
-8.04009e-09
-2.95487e-07
9.55332e-08
-3.00162e-07
2.00159e-07
-3.04154e-07
3.05458e-07
-3.07368e-07
4.11006e-07
-3.0981e-07
5.16317e-07
-3.11461e-07
6.2095e-07
-3.12113e-07
7.24703e-07
-3.11609e-07
8.27431e-07
-3.10002e-07
9.28917e-07
-3.07408e-07
1.02894e-06
-3.03948e-07
1.12727e-06
-2.99693e-07
1.22373e-06
-2.94697e-07
1.31813e-06
-2.89021e-07
1.41029e-06
-2.82734e-07
1.50008e-06
-2.75874e-07
1.58734e-06
-2.68491e-07
1.67193e-06
-2.60622e-07
1.75374e-06
-2.52248e-07
1.83261e-06
-2.43293e-07
1.90831e-06
-2.33646e-07
1.9806e-06
-2.23088e-07
2.04911e-06
-2.11295e-07
2.11334e-06
-1.97707e-07
2.17253e-06
-1.81281e-07
2.2256e-06
-1.59587e-07
2.27106e-06
-1.28406e-07
2.30993e-06
-7.76432e-08
1.28511e-08
2.3485e-06
-1.5361e-08
-1.74383e-08
-3.41702e-08
5.25023e-09
-5.43461e-08
2.4089e-08
-7.5773e-08
4.05115e-08
-9.85891e-08
5.54236e-08
-1.2302e-07
6.92234e-08
-1.49338e-07
8.21056e-08
-1.77776e-07
9.42002e-08
-2.08493e-07
1.05625e-07
-2.41522e-07
1.16488e-07
-2.76774e-07
1.26858e-07
-3.14054e-07
1.36756e-07
-3.53175e-07
1.4615e-07
-3.9388e-07
1.55033e-07
-4.35689e-07
1.63422e-07
-4.78055e-07
1.71256e-07
-5.20655e-07
1.78364e-07
-5.63524e-07
1.84535e-07
-6.06793e-07
1.89667e-07
-6.5011e-07
1.93853e-07
-6.93191e-07
1.9714e-07
-7.35856e-07
1.9954e-07
-7.78e-07
2.01067e-07
-8.19617e-07
2.01727e-07
-8.60725e-07
2.0156e-07
-9.01318e-07
2.00639e-07
-9.41374e-07
1.99053e-07
-9.8086e-07
1.96895e-07
-1.01975e-06
1.94254e-07
-1.05802e-06
1.91214e-07
-1.09566e-06
1.87857e-07
-1.13265e-06
1.84256e-07
-1.16899e-06
1.8048e-07
-1.20467e-06
1.76587e-07
-1.23968e-06
1.7263e-07
-1.27402e-06
1.6865e-07
-1.30769e-06
1.64683e-07
-1.34068e-06
1.60756e-07
-1.37299e-06
1.56889e-07
-1.40463e-06
1.53095e-07
-1.4356e-06
1.49383e-07
-1.46588e-06
1.45755e-07
-1.4955e-06
1.4221e-07
-1.52445e-06
1.38743e-07
-1.55273e-06
1.35346e-07
-1.58034e-06
1.32009e-07
-1.60728e-06
1.2872e-07
-1.63354e-06
1.25464e-07
-1.65912e-06
1.22226e-07
-1.68401e-06
1.18992e-07
-1.70821e-06
1.15743e-07
-1.73169e-06
1.12464e-07
-1.75445e-06
1.09138e-07
-1.77646e-06
1.0575e-07
-1.7977e-06
1.02283e-07
-1.81816e-06
9.87237e-08
-1.83779e-06
9.50583e-08
-1.85659e-06
9.12749e-08
-1.87451e-06
8.73627e-08
-1.89152e-06
8.33126e-08
-1.90759e-06
7.9117e-08
-1.92269e-06
7.47703e-08
-1.93678e-06
7.02688e-08
-1.94982e-06
6.56112e-08
-1.9618e-06
6.07981e-08
-1.97266e-06
5.58326e-08
-1.98238e-06
5.07203e-08
-1.99093e-06
4.5469e-08
-1.99828e-06
4.00895e-08
-2.00442e-06
3.45954e-08
-2.00932e-06
2.90032e-08
-2.01297e-06
2.33333e-08
-2.01537e-06
1.76088e-08
-2.01651e-06
1.18569e-08
-2.0164e-06
6.10852e-09
-2.01505e-06
3.98019e-10
-2.01247e-06
-5.23903e-09
-2.00867e-06
-1.07661e-08
-2.00368e-06
-1.615e-08
-1.99753e-06
-2.13591e-08
-1.99027e-06
-2.63597e-08
-1.98194e-06
-3.11153e-08
-1.97261e-06
-3.55899e-08
-1.96236e-06
-3.97476e-08
-1.95126e-06
-4.35546e-08
-1.93942e-06
-4.69791e-08
-1.92691e-06
-4.99927e-08
-1.91386e-06
-5.25689e-08
-1.90036e-06
-5.46898e-08
-1.88653e-06
-5.63301e-08
-1.87247e-06
-5.7483e-08
-1.85829e-06
-5.81325e-08
-1.8441e-06
-5.82798e-08
-1.83001e-06
-5.79327e-08
-1.81612e-06
-5.71095e-08
-1.80254e-06
-5.58329e-08
-1.78934e-06
-5.41331e-08
-1.77661e-06
-5.2046e-08
-1.76442e-06
-4.96144e-08
-1.75284e-06
-4.68873e-08
-1.7419e-06
-4.39173e-08
-1.73164e-06
-4.07666e-08
-1.72206e-06
-3.74981e-08
-1.71319e-06
-3.41845e-08
-1.705e-06
-3.08962e-08
-1.69747e-06
-2.77004e-08
-1.69055e-06
-2.46611e-08
-1.68417e-06
-2.18647e-08
-1.67825e-06
-1.9399e-08
-1.67269e-06
-1.73341e-08
-1.66739e-06
-1.57289e-08
-1.66225e-06
-1.46533e-08
-1.6571e-06
-1.41489e-08
-1.65181e-06
-1.42457e-08