/*--------------------------------*- C++ -*----------------------------------*\
  =========                 |
  \\      /  F ield         | OpenFOAM: The Open Source CFD Toolbox
   \\    /   O peration     | Website:  https://openfoam.org
    \\  /    A nd           | Version:  8
     \\/     M anipulation  |
\*---------------------------------------------------------------------------*/
FoamFile
{
    version     2.0;
    format      ascii;
    class       volVectorField;
    location    "115";
    object      U;
}
// * * * * * * * * * * * * * * * * * * * * * * * * * * * * * * * * * * * * * //

dimensions      [0 1 -1 0 0 0 0];

internalField   nonuniform List<vector> 
12225
(
(9.857 -0.886598 0)
(9.66626 -0.740724 0)
(9.45571 -0.429403 0)
(9.22435 -0.222137 0)
(9.00624 -0.106371 0)
(8.81395 -0.0457776 0)
(8.6468 -0.015092 0)
(8.50443 0.000555206 0)
(8.38232 0.00850282 0)
(8.27916 0.0124278 0)
(8.18995 0.014177 0)
(8.1129 0.0152897 0)
(8.04461 0.0157768 0)
(7.98356 0.0162861 0)
(7.92678 0.016475 0)
(7.87537 0.0184834 0)
(7.80718 0.0224555 0)
(7.79668 0.0253481 0)
(10.0545 0.227692 0)
(10.1213 0.326989 0)
(10.1196 0.261662 0)
(10.0855 0.186627 0)
(10.0433 0.134735 0)
(9.99658 0.101194 0)
(9.9438 0.0793873 0)
(9.88485 0.0646847 0)
(9.82335 0.054423 0)
(9.76052 0.0468972 0)
(9.69877 0.0412364 0)
(9.63843 0.0368342 0)
(9.58052 0.0334299 0)
(9.52526 0.0309892 0)
(9.47192 0.0292446 0)
(9.42351 0.0298244 0)
(9.37127 0.0289795 0)
(9.34263 0.0495095 0)
(10.0035 0.0581593 0)
(10.0305 0.0559601 0)
(10.056 0.0338031 0)
(10.0703 0.0329257 0)
(10.0769 0.0406985 0)
(10.0777 0.0466204 0)
(10.0723 0.0494663 0)
(10.061 0.0504567 0)
(10.0456 0.050421 0)
(10.0269 0.0498016 0)
(10.006 0.048898 0)
(9.98337 0.0479494 0)
(9.95961 0.0470922 0)
(9.93511 0.0465966 0)
(9.90987 0.046399 0)
(9.88504 0.0479914 0)
(9.85941 0.0499159 0)
(9.8378 0.0597512 0)
(9.99772 0.0109549 0)
(10.0111 0.0266358 0)
(10.035 0.0371558 0)
(10.0524 0.0481187 0)
(10.0642 0.0555146 0)
(10.0732 0.05828 0)
(10.0792 0.0584952 0)
(10.082 0.0578149 0)
(10.0822 0.056853 0)
(10.0804 0.0557823 0)
(10.077 0.0546934 0)
(10.0723 0.0537423 0)
(10.0663 0.0529735 0)
(10.0595 0.052622 0)
(10.0518 0.0526922 0)
(10.0439 0.0541887 0)
(10.036 0.0564592 0)
(10.0298 0.0623925 0)
(9.99935 0.00710824 0)
(10.009 0.0317182 0)
(10.0274 0.0439509 0)
(10.0417 0.0499773 0)
(10.0527 0.0536989 0)
(10.0627 0.0553631 0)
(10.0713 0.0556987 0)
(10.0779 0.0554835 0)
(10.0829 0.0550461 0)
(10.0865 0.0544929 0)
(10.089 0.0539027 0)
(10.0906 0.0534097 0)
(10.0913 0.053085 0)
(10.0914 0.0531195 0)
(10.0909 0.0535877 0)
(10.0904 0.0550626 0)
(10.0902 0.0572612 0)
(10.0914 0.0609597 0)
(10.0003 0.00916006 0)
(10.0083 0.0312403 0)
(10.0227 0.0409985 0)
(10.0349 0.0454701 0)
(10.0449 0.0491501 0)
(10.0546 0.0515313 0)
(10.0635 0.0525765 0)
(10.071 0.0528969 0)
(10.0773 0.0528854 0)
(10.0827 0.0526954 0)
(10.0873 0.0524276 0)
(10.0912 0.0522086 0)
(10.0945 0.0521281 0)
(10.0973 0.0523356 0)
(10.0998 0.0529194 0)
(10.1024 0.0541737 0)
(10.1054 0.0559349 0)
(10.1096 0.0581974 0)
(10.0004 0.00893677 0)
(10.0071 0.0271467 0)
(10.019 0.0364799 0)
(10.0301 0.041487 0)
(10.0395 0.0455497 0)
(10.0485 0.0482681 0)
(10.057 0.0496094 0)
(10.0646 0.0501776 0)
(10.0712 0.0503874 0)
(10.0771 0.0504011 0)
(10.0825 0.0503207 0)
(10.0873 0.0502595 0)
(10.0916 0.0503089 0)
(10.0957 0.0505797 0)
(10.0996 0.0511431 0)
(10.1036 0.052126 0)
(10.108 0.0533905 0)
(10.1133 0.0546937 0)
(10.0004 0.00791609 0)
(10.0059 0.0234293 0)
(10.0161 0.0328116 0)
(10.0262 0.0382141 0)
(10.035 0.0422538 0)
(10.0434 0.0449966 0)
(10.0515 0.0464876 0)
(10.0589 0.0472296 0)
(10.0655 0.0475997 0)
(10.0715 0.0477587 0)
(10.0771 0.0478078 0)
(10.0823 0.0478479 0)
(10.0872 0.0479639 0)
(10.0918 0.0482349 0)
(10.0963 0.0487056 0)
(10.101 0.0494071 0)
(10.106 0.0502067 0)
(10.1117 0.050831 0)
(10.0004 0.0069686 0)
(10.005 0.0204724 0)
(10.0137 0.0295373 0)
(10.0228 0.0349873 0)
(10.0311 0.0388892 0)
(10.039 0.0416169 0)
(10.0466 0.0432361 0)
(10.0537 0.0441262 0)
(10.0602 0.044622 0)
(10.0663 0.0448885 0)
(10.0719 0.0450263 0)
(10.0772 0.045126 0)
(10.0823 0.0452613 0)
(10.0872 0.0454869 0)
(10.092 0.0458232 0)
(10.097 0.046252 0)
(10.1022 0.0466488 0)
(10.1079 0.046786 0)
(10.0004 0.00614354 0)
(10.0043 0.0179074 0)
(10.0116 0.0263662 0)
(10.0198 0.0317194 0)
(10.0276 0.0355006 0)
(10.035 0.0381984 0)
(10.0422 0.039903 0)
(10.0491 0.040902 0)
(10.0554 0.0414894 0)
(10.0614 0.0418314 0)
(10.067 0.042026 0)
(10.0723 0.0421532 0)
(10.0775 0.0422742 0)
(10.0825 0.042426 0)
(10.0874 0.0426114 0)
(10.0925 0.0427919 0)
(10.0977 0.0428589 0)
(10.1032 0.0426476 0)
(10.0003 0.00538742 0)
(10.0036 0.0156011 0)
(10.0099 0.0233342 0)
(10.0172 0.0284936 0)
(10.0244 0.0321372 0)
(10.0314 0.0347624 0)
(10.0382 0.0364957 0)
(10.0448 0.0375612 0)
(10.051 0.0382097 0)
(10.0568 0.0386 0)
(10.0623 0.0388254 0)
(10.0677 0.0389553 0)
(10.0728 0.03904 0)
(10.0778 0.0391037 0)
(10.0828 0.0391398 0)
(10.0878 0.039106 0)
(10.0929 0.0389148 0)
(10.0982 0.0384585 0)
(10.0003 0.00472475 0)
(10.0032 0.0136647 0)
(10.0086 0.0206935 0)
(10.0152 0.0255901 0)
(10.0219 0.0290703 0)
(10.0285 0.0315921 0)
(10.035 0.0333074 0)
(10.0412 0.0343988 0)
(10.0472 0.0350771 0)
(10.0529 0.0354889 0)
(10.0584 0.0357218 0)
(10.0637 0.0358368 0)
(10.0688 0.035875 0)
(10.0737 0.0358534 0)
(10.0787 0.0357622 0)
(10.0836 0.0355635 0)
(10.0886 0.0351904 0)
(10.0935 0.0345789 0)
(10.0003 0.00411166 0)
(10.0028 0.0118982 0)
(10.0075 0.018198 0)
(10.0134 0.0227548 0)
(10.0196 0.0260359 0)
(10.0258 0.0284271 0)
(10.032 0.0300896 0)
(10.038 0.0311765 0)
(10.0438 0.0318619 0)
(10.0494 0.0322767 0)
(10.0547 0.032502 0)
(10.0599 0.0325907 0)
(10.065 0.0325772 0)
(10.0699 0.0324742 0)
(10.0747 0.0322723 0)
(10.0795 0.0319416 0)
(10.0843 0.0314329 0)
(10.089 0.030716 0)
(10.0002 0.00347802 0)
(10.0024 0.010062 0)
(10.0064 0.0155204 0)
(10.0117 0.0196114 0)
(10.0174 0.0226083 0)
(10.0232 0.0248071 0)
(10.029 0.0263633 0)
(10.0347 0.0274039 0)
(10.0403 0.028066 0)
(10.0457 0.0284606 0)
(10.0509 0.0286589 0)
(10.056 0.0287064 0)
(10.0609 0.0286306 0)
(10.0657 0.0284425 0)
(10.0705 0.0281352 0)
(10.0751 0.0276894 0)
(10.0797 0.0270723 0)
(10.0841 0.0262802 0)
(10.0002 0.00281946 0)
(10.002 0.00815351 0)
(10.0055 0.0126691 0)
(10.0101 0.0161628 0)
(10.0153 0.0187712 0)
(10.0207 0.020699 0)
(10.0261 0.0220805 0)
(10.0315 0.0230178 0)
(10.0368 0.0236136 0)
(10.042 0.0239545 0)
(10.0471 0.0241006 0)
(10.052 0.0240892 0)
(10.0568 0.0239424 0)
(10.0614 0.0236697 0)
(10.066 0.0232698 0)
(10.0704 0.0227326 0)
(10.0748 0.0220414 0)
(10.0789 0.0212086 0)
(10.0002 0.00213491 0)
(10.0017 0.00617381 0)
(10.0047 0.00965107 0)
(10.0088 0.0124115 0)
(10.0134 0.0145092 0)
(10.0183 0.0160693 0)
(10.0234 0.0171921 0)
(10.0285 0.0179542 0)
(10.0335 0.0184268 0)
(10.0385 0.0186719 0)
(10.0433 0.0187355 0)
(10.0481 0.0186464 0)
(10.0527 0.0184225 0)
(10.0572 0.0180723 0)
(10.0615 0.0175985 0)
(10.0657 0.0169997 0)
(10.0698 0.0162699 0)
(10.0737 0.0154316 0)
(10.0002 0.00142102 0)
(10.0015 0.00410779 0)
(10.0041 0.00644804 0)
(10.0077 0.00833762 0)
(10.0118 0.00978996 0)
(10.0164 0.0108695 0)
(10.0211 0.0116371 0)
(10.0258 0.0121413 0)
(10.0306 0.0124251 0)
(10.0353 0.0125269 0)
(10.04 0.0124759 0)
(10.0445 0.0122925 0)
(10.0489 0.0119888 0)
(10.0532 0.0115728 0)
(10.0573 0.0110484 0)
(10.0613 0.0104196 0)
(10.0651 0.00968567 0)
(10.0688 0.00887356 0)
(10.0001 0.000661093 0)
(10.0013 0.00190273 0)
(10.0036 0.00298638 0)
(10.0069 0.00385933 0)
(10.0107 0.00452109 0)
(10.0149 0.00499344 0)
(10.0194 0.00529847 0)
(10.0239 0.0054548 0)
(10.0284 0.00547945 0)
(10.0329 0.00538769 0)
(10.0373 0.00519137 0)
(10.0416 0.00489929 0)
(10.0458 0.00451715 0)
(10.0499 0.00404936 0)
(10.0538 0.0034992 0)
(10.0575 0.00287102 0)
(10.0611 0.00216655 0)
(10.0645 0.00141021 0)
(10.0001 -0.000188009 0)
(10.0013 -0.000563468 0)
(10.0035 -0.000906631 0)
(10.0066 -0.0012144 0)
(10.0103 -0.00148773 0)
(10.0144 -0.00174147 0)
(10.0186 -0.00199516 0)
(10.023 -0.0022621 0)
(10.0274 -0.00255242 0)
(10.0317 -0.00287349 0)
(10.036 -0.00323321 0)
(10.0401 -0.00363605 0)
(10.0441 -0.0040862 0)
(10.048 -0.00458485 0)
(10.0516 -0.00513347 0)
(10.0552 -0.0057302 0)
(10.0585 -0.00637533 0)
(10.0617 -0.00704987 0)
(10.0001 -0.00100033 0)
(10.0013 -0.0029295 0)
(10.0037 -0.00464741 0)
(10.007 -0.00607927 0)
(10.0109 -0.00722301 0)
(10.0151 -0.00813999 0)
(10.0194 -0.00889245 0)
(10.0238 -0.00952475 0)
(10.0282 -0.0100722 0)
(10.0326 -0.0105691 0)
(10.0368 -0.0110411 0)
(10.0408 -0.011508 0)
(10.0448 -0.0119811 0)
(10.0485 -0.0124707 0)
(10.0521 -0.0129814 0)
(10.0555 -0.0135178 0)
(10.0587 -0.0140807 0)
(10.0618 -0.0146593 0)
(10.0002 -0.0017 0)
(10.0015 -0.00499372 0)
(10.0041 -0.0079123 0)
(10.0078 -0.0102582 0)
(10.012 -0.0120536 0)
(10.0165 -0.01345 0)
(10.0211 -0.0145543 0)
(10.0257 -0.0154257 0)
(10.0302 -0.0161218 0)
(10.0346 -0.0167034 0)
(10.0388 -0.0172156 0)
(10.0429 -0.0176895 0)
(10.0468 -0.0181441 0)
(10.0505 -0.0185948 0)
(10.054 -0.0190503 0)
(10.0573 -0.019518 0)
(10.0605 -0.0200006 0)
(10.0635 -0.0204907 0)
(10.0002 -0.00236356 0)
(10.0017 -0.00703092 0)
(10.0047 -0.0111711 0)
(10.009 -0.0143394 0)
(10.0137 -0.0166375 0)
(10.0186 -0.018377 0)
(10.0234 -0.0197195 0)
(10.0283 -0.0207369 0)
(10.033 -0.021512 0)
(10.0375 -0.022126 0)
(10.0418 -0.022638 0)
(10.0459 -0.0230845 0)
(10.0498 -0.023494 0)
(10.0535 -0.0238846 0)
(10.057 -0.0242716 0)
(10.0603 -0.024661 0)
(10.0634 -0.0250599 0)
(10.0663 -0.0254605 0)
(10.0002 -0.00298358 0)
(10.0018 -0.00909226 0)
(10.0054 -0.01445 0)
(10.0105 -0.0183406 0)
(10.0159 -0.0210881 0)
(10.0212 -0.0231174 0)
(10.0264 -0.0245848 0)
(10.0315 -0.025617 0)
(10.0363 -0.0263689 0)
(10.041 -0.0269511 0)
(10.0454 -0.0274209 0)
(10.0495 -0.0278146 0)
(10.0535 -0.0281622 0)
(10.0572 -0.0284864 0)
(10.0607 -0.0288017 0)
(10.0639 -0.0291167 0)
(10.067 -0.0294361 0)
(10.0699 -0.0297568 0)
(10.0001 -0.00352827 0)
(10.0018 -0.0115515 0)
(10.0063 -0.0178925 0)
(10.0123 -0.0219917 0)
(10.0183 -0.0250617 0)
(10.0241 -0.027478 0)
(10.0297 -0.0291271 0)
(10.0351 -0.0301532 0)
(10.0402 -0.0308274 0)
(10.0449 -0.0313157 0)
(10.0494 -0.0316859 0)
(10.0536 -0.0319792 0)
(10.0576 -0.0322289 0)
(10.0613 -0.0324604 0)
(10.0648 -0.0326865 0)
(10.0681 -0.0329157 0)
(10.0711 -0.0331496 0)
(10.074 -0.0333858 0)
(9.99991 -0.00337275 0)
(10.0016 -0.0149848 0)
(10.0073 -0.0227377 0)
(10.0142 -0.0262477 0)
(10.0206 -0.0288355 0)
(10.0269 -0.0312063 0)
(10.0331 -0.0329374 0)
(10.039 -0.0340394 0)
(10.0445 -0.0347573 0)
(10.0494 -0.0352445 0)
(10.054 -0.0355725 0)
(10.0583 -0.0357951 0)
(10.0623 -0.0359586 0)
(10.0659 -0.0360941 0)
(10.0693 -0.0362202 0)
(10.0724 -0.0363464 0)
(10.0752 -0.0364773 0)
(10.0779 -0.0366111 0)
(9.99859 -0.000380467 0)
(9.99904 -0.0157965 0)
(10.0076 -0.0274362 0)
(10.0166 -0.0324939 0)
(10.0238 -0.0348724 0)
(10.0306 -0.0362326 0)
(10.0376 -0.0369926 0)
(10.0441 -0.0374717 0)
(10.0499 -0.0378358 0)
(10.055 -0.038102 0)
(10.0595 -0.0382706 0)
(10.0635 -0.0383675 0)
(10.0671 -0.0384217 0)
(10.0702 -0.0384554 0)
(10.0729 -0.0384837 0)
(10.0753 -0.0385147 0)
(10.0773 -0.0385524 0)
(10.0791 -0.0385935 0)
(9.99487 0.00140648 0)
(9.99287 -0.00812314 0)
(10.006 -0.0203307 0)
(10.0202 -0.0322641 0)
(10.0307 -0.0404736 0)
(10.0392 -0.0441514 0)
(10.0467 -0.0450709 0)
(10.0529 -0.0449367 0)
(10.0578 -0.0444825 0)
(10.0616 -0.0439015 0)
(10.0646 -0.0432757 0)
(10.0667 -0.0426611 0)
(10.0681 -0.0420919 0)
(10.0689 -0.0415776 0)
(10.0692 -0.0411267 0)
(10.069 -0.0407371 0)
(10.0684 -0.0404049 0)
(10.0676 -0.0401039 0)
(9.9947 -0.0305768 0)
(9.99943 -0.0228493 0)
(10.0146 -0.00261932 0)
(10.0304 -0.00190062 0)
(10.0434 -0.0116545 0)
(10.0533 -0.020924 0)
(10.0594 -0.0272875 0)
(10.0619 -0.0315211 0)
(10.0615 -0.0343046 0)
(10.059 -0.0360117 0)
(10.055 -0.0369573 0)
(10.0497 -0.0374063 0)
(10.0434 -0.0375497 0)
(10.0363 -0.0375077 0)
(10.0287 -0.0373697 0)
(10.0207 -0.0371937 0)
(10.0124 -0.0370426 0)
(10.0041 -0.0368837 0)
(10.0274 -0.183006 0)
(10.0766 -0.288324 0)
(10.0871 -0.24782 0)
(10.0777 -0.186559 0)
(10.0664 -0.140323 0)
(10.0538 -0.108244 0)
(10.0365 -0.0858995 0)
(10.0145 -0.0704447 0)
(9.98936 -0.0596781 0)
(9.96231 -0.0519084 0)
(9.93432 -0.046094 0)
(9.90598 -0.0416062 0)
(9.87776 -0.0380618 0)
(9.85001 -0.0351986 0)
(9.82296 -0.0328503 0)
(9.79673 -0.0309437 0)
(9.77155 -0.0294442 0)
(9.74746 -0.0286482 0)
(9.93575 0.689541 0)
(9.86828 0.609596 0)
(9.76459 0.380607 0)
(9.62663 0.217413 0)
(9.4859 0.119244 0)
(9.3572 0.063161 0)
(9.24268 0.031547 0)
(9.14108 0.0135934 0)
(9.0514 0.00323693 0)
(8.97238 -0.00282731 0)
(8.90242 -0.00638525 0)
(8.84018 -0.00850927 0)
(8.78439 -0.00976266 0)
(8.73418 -0.0105285 0)
(8.68863 -0.0110178 0)
(8.64714 -0.0113037 0)
(8.60879 -0.0115389 0)
(8.57326 -0.012188 0)
(0.0129771 -0.0230768 -6.25177e-19)
(0.0310409 -0.0248851 3.34633e-19)
(0.0427104 -0.0165254 0)
(0.0492878 -0.00594267 0)
(0.0489468 0.00384052 0)
(0.0424062 0.0115969 -1.35919e-19)
(0.0312165 0.0171328 0)
(0.0164976 0.0208212 0)
(-0.000974767 0.0232882 0)
(-0.0205805 0.0251779 0)
(-0.0417348 0.0269712 1.01138e-19)
(-0.0640774 0.0282443 0)
(-0.0875964 0.0273129 0)
(-0.111538 0.0265886 0)
(-0.135685 0.0315847 0)
(-0.162398 0.0417966 9.39776e-20)
(-0.190017 0.0560572 0)
(-0.224953 0.045378 0)
(-0.269476 0.0210976 0)
(-0.304824 0.0288635 0)
(-0.346452 0.0365091 0)
(-0.391217 0.0426052 0)
(-0.438367 0.0492083 0)
(-0.488349 0.0527329 1.04442e-19)
(-0.539963 0.0531156 -9.76385e-20)
(-0.59168 0.0536346 9.16318e-20)
(-0.64402 0.0540176 8.63095e-20)
(-0.696679 0.054118 0)
(-0.749425 0.0539223 0)
(-0.802012 0.0534582 -7.36594e-20)
(-0.854224 0.0527644 -7.03219e-20)
(-0.90587 0.0518791 0)
(-0.956797 0.0508419 0)
(-1.00688 0.0496885 -6.22517e-20)
(-1.05604 0.0484542 0)
(-1.1042 0.0471683 0)
(-1.15132 0.0458573 5.63103e-20)
(-1.19739 0.0445421 0)
(-1.2424 0.0432401 5.31765e-20)
(-1.28636 0.0419647 1.03601e-19)
(-1.3293 0.0407262 0)
(-1.37123 0.0395299 0)
(-1.41221 0.0383772 0)
(-1.45224 0.0372689 0)
(-1.49138 0.0362031 0)
(-1.52964 0.035178 9.0738e-20)
(-1.56706 0.0341885 8.90338e-20)
(-1.60365 0.0332319 8.74218e-20)
(-1.63944 0.0323015 0)
(-1.67443 0.0313934 -8.4428e-20)
(-1.70864 0.0304991 0)
(-1.74207 0.0296152 8.169e-20)
(-1.77472 0.0287324 8.03993e-20)
(-1.80659 0.0278474 0)
(-1.83765 0.0269518 0)
(-1.86789 0.0260442 0)
(-1.89728 0.0251159 7.56381e-20)
(-1.9258 0.0241662 0)
(-1.95342 0.0231868 0)
(-1.98009 0.0221789 0)
(-2.00578 0.021134 0)
(-2.03044 0.0200544 0)
(-2.05404 0.0189327 0)
(-2.07652 0.0177733 0)
(-2.09783 0.0165691 0)
(-2.11792 0.0153264 -6.61598e-20)
(-2.13674 0.0140377 0)
(-2.15425 0.0127108 0)
(-2.1704 0.011339 6.30643e-20)
(-2.18513 0.00993159 6.20149e-20)
(-2.1984 0.00848284 0)
(-2.21017 0.00700303 -5.98741e-20)
(-2.22039 0.00548624 5.87782e-20)
(-2.22901 0.00394244 0)
(-2.23599 0.00236221 -5.6526e-20)
(-2.24127 0.000755965 0)
(-2.24482 -0.000876343 0)
(-2.24655 -0.00246387 5.29671e-20)
(-2.24647 -0.00389926 0)
(-2.24498 -0.00517407 -5.0411e-20)
(-2.24212 -0.00637445 0)
(-2.23796 -0.00750177 4.77283e-20)
(-2.23258 -0.0085626 4.63355e-20)
(-2.22607 -0.00954256 4.49091e-20)
(-2.21849 -0.0104479 8.68959e-20)
(-2.20994 -0.0112641 -8.39092e-20)
(-2.20053 -0.0119927 0)
(-2.19037 -0.0126151 0)
(-2.17956 -0.0131277 0)
(-2.16822 -0.0135306 -7.13907e-20)
(-2.15646 -0.0138068 -6.8154e-20)
(-2.14441 -0.0139606 6.48877e-20)
(-2.13219 -0.0139818 0)
(-2.11994 -0.0138762 -5.8293e-20)
(-2.1078 -0.013644 -5.49803e-20)
(-2.09589 -0.0132854 -5.16696e-20)
(-2.08434 -0.0127924 0)
(-2.07326 -0.0121939 0)
(-2.06275 -0.0115112 0)
(-2.0529 -0.0107125 -3.86549e-20)
(-2.0438 -0.00984363 0)
(-2.03552 -0.00890607 0)
(-2.02812 -0.00783327 2.94207e-20)
(-2.02168 -0.00680263 0)
(-2.01618 -0.00582935 0)
(-2.01161 -0.00474894 2.09285e-20)
(-2.00802 -0.00369146 0)
(-2.00539 -0.00272325 0)
(-2.00363 -0.00178769 -1.3356e-20)
(-2.00272 -0.000833372 -1.1048e-20)
(-2.00254 -0.000232041 0)
(-2.0028 0.000196898 6.74279e-21)
(-2.00355 0.00105059 0)
(-2.00467 0.00160622 -2.87841e-21)
(-2.00583 0.00185269 0)
(-2.00684 0.00212144 5.74541e-22)
(-2.00762 0.00264428 2.15276e-21)
(-2.00812 0.00286183 0)
(-2.00785 0.00254153 0)
(-2.00673 0.00286739 0)
(-2.00482 0.00281072 0)
(-2.0016 0.00220405 0)
(-1.99689 0.0017393 0)
(-1.99047 0.00137633 0)
(-1.9822 0.000964877 1.26727e-20)
(-1.97177 4.45803e-05 -1.39378e-20)
(-1.95888 -0.000906138 0)
(-1.94348 -0.0016055 0)
(-1.92545 -0.00239106 0)
(-1.90454 -0.00355205 0)
(-1.88053 -0.00481392 -4.28829e-20)
(-1.85332 -0.00621564 0)
(-1.82276 -0.00760663 5.10443e-20)
(-1.78883 -0.00901512 -5.5868e-20)
(-1.75134 -0.0106669 0)
(-1.71024 -0.0124007 0)
(-1.66546 -0.0142365 0)
(-1.61694 -0.0161743 8.21588e-20)
(-1.56468 -0.0181925 9.10302e-20)
(-1.5087 -0.0203008 0)
(-1.44906 -0.0224843 1.12439e-19)
(-1.38586 -0.0247391 1.25286e-19)
(-1.31917 -0.0270423 -1.398e-19)
(-1.24907 -0.0293819 0)
(-1.17565 -0.0317433 0)
(-1.09903 -0.034111 -1.95499e-19)
(-1.01937 -0.0364742 0)
(-0.936831 -0.0388319 0)
(-0.85159 -0.0411858 0)
(-0.763825 -0.0435379 0)
(-0.673725 -0.0458892 3.47086e-19)
(-0.581469 -0.0482477 3.90233e-19)
(-0.487244 -0.0506169 0)
(-0.391311 -0.053015 4.95372e-19)
(-0.293898 -0.0554616 0)
(-0.195077 -0.0579907 0)
(-0.0950585 -0.0599713 6.99501e-19)
(0.00786351 -0.0602278 0)
(0.113192 -0.0590769 6.82934e-19)
(0.219144 -0.0576647 0)
(0.325361 -0.0561762 0)
(0.431355 -0.0546543 6.25586e-19)
(0.536733 -0.0530938 0)
(0.641174 -0.0514905 5.98542e-19)
(0.744389 -0.0498673 0)
(0.846029 -0.0482171 0)
(0.94587 -0.0465252 0)
(1.0437 -0.0448043 -5.5953e-19)
(1.13931 -0.0430738 0)
(1.23244 -0.0413009 5.44731e-19)
(1.3229 -0.0394892 0)
(1.41042 -0.0376451 0)
(1.49468 -0.0357218 0)
(1.57526 -0.03367 0)
(1.65159 -0.03142 0)
(1.7225 -0.02884 0)
(1.78751 -0.0254852 0)
(1.83741 -0.0206832 -1.02765e-18)
(1.8852 -0.00928915 0)
(1.83067 0.0140368 0)
(0.00699034 -0.0625336 1.40387e-18)
(0.0151191 -0.0472214 -6.07329e-19)
(0.0143497 -0.0246624 0)
(0.0100921 -0.00432257 1.81342e-19)
(0.00220358 0.0133685 0)
(-0.00921133 0.0280936 6.85014e-20)
(-0.0239692 0.0398618 -1.25884e-19)
(-0.0419805 0.0490339 -1.18443e-19)
(-0.0631588 0.0561832 0)
(-0.0873075 0.0619565 -1.10059e-19)
(-0.114248 0.066937 -5.42374e-20)
(-0.144037 0.0715144 0)
(-0.177423 0.0754298 0)
(-0.214496 0.0789686 0)
(-0.254448 0.0842786 0)
(-0.296531 0.0919289 -5.22796e-20)
(-0.339476 0.100982 0)
(-0.386909 0.108942 1.09829e-19)
(-0.437413 0.114222 0)
(-0.487965 0.120889 0)
(-0.537697 0.126967 -9.25092e-20)
(-0.587551 0.131354 0)
(-0.637517 0.134543 8.27911e-20)
(-0.687961 0.136769 -3.97141e-20)
(-0.73864 0.137728 3.81287e-20)
(-0.788931 0.137704 -3.66662e-20)
(-0.838707 0.13698 -3.53153e-20)
(-0.88776 0.135631 0)
(-0.935949 0.13373 0)
(-0.983178 0.131357 3.18676e-20)
(-1.02938 0.128598 -3.06717e-20)
(-1.07451 0.125538 0)
(-1.11855 0.122263 0)
(-1.1615 0.118847 2.84165e-20)
(-1.20336 0.115357 0)
(-1.24415 0.111848 0)
(-1.2839 0.108365 -2.6462e-20)
(-1.32264 0.104943 0)
(-1.36039 0.101607 2.51778e-20)
(-1.39721 0.0983752 -4.97947e-20)
(-1.43312 0.0952565 0)
(-1.46815 0.0922557 0)
(-1.50233 0.0893715 -9.40545e-20)
(-1.5357 0.0866001 -9.25314e-20)
(-1.56827 0.0839337 -9.10849e-20)
(-1.60006 0.0813646 4.46655e-20)
(-1.6311 0.0788813 -4.43792e-20)
(-1.66139 0.0764741 -1.30868e-19)
(-1.69094 0.0741299 8.59063e-20)
(-1.71975 0.0718386 4.25391e-20)
(-1.74782 0.0695862 0)
(-1.77514 0.0673628 -4.14045e-20)
(-1.80171 0.0651543 4.05343e-20)
(-1.82751 0.062952 0)
(-1.85252 0.0607436 0)
(-1.87673 0.0585232 0)
(-1.9001 0.0562799 -3.87525e-20)
(-1.92261 0.0540095 0)
(-1.94424 0.0517029 7.5202e-20)
(-1.96494 0.0493591 0)
(-1.98469 0.0469698 7.3181e-20)
(-2.00345 0.0445358 0)
(-2.02119 0.042051 -7.11421e-20)
(-2.03787 0.0395201 0)
(-2.05346 0.0369381 6.90646e-20)
(-2.06792 0.0343122 -3.39436e-20)
(-2.08122 0.0316387 0)
(-2.09332 0.0289269 -6.58339e-20)
(-2.1042 0.0261739 -3.23812e-20)
(-2.11384 0.0233908 -3.17984e-20)
(-2.12221 0.0205761 0)
(-2.12929 0.0177429 -3.06305e-20)
(-2.13508 0.0148907 -2.99706e-20)
(-2.13958 0.012034 0)
(-2.14281 0.00917299 2.86804e-20)
(-2.1448 0.00632774 -5.61738e-20)
(-2.14562 0.00351339 0)
(-2.14536 0.000789913 -2.66252e-20)
(-2.14412 -0.00176214 0)
(-2.14169 -0.00410644 7.57244e-20)
(-2.13808 -0.00629142 0)
(-2.13333 -0.00832524 -7.11846e-20)
(-2.12749 -0.0102135 -2.28368e-20)
(-2.12063 -0.0119393 2.2394e-20)
(-2.11281 -0.0135036 4.32015e-20)
(-2.10413 -0.0148913 -4.1586e-20)
(-2.09468 -0.0161041 0)
(-2.08458 -0.0171261 0)
(-2.07393 -0.0179559 0)
(-2.06284 -0.0185846 1.02835e-19)
(-2.05142 -0.0190073 3.22465e-20)
(-2.03978 -0.0192188 -3.05168e-20)
(-2.02802 -0.0192158 0)
(-2.01629 -0.0190129 -2.79933e-20)
(-2.00468 -0.0186166 2.53419e-20)
(-1.99333 -0.018043 2.36347e-20)
(-1.98232 -0.0172983 0)
(-1.97177 -0.0164017 0)
(-1.96177 -0.0153704 0)
(-1.95239 -0.0142244 1.70121e-20)
(-1.9437 -0.0129802 0)
(-1.93577 -0.0116633 -2.84215e-20)
(-1.92863 -0.0102956 -3.77497e-20)
(-1.92229 -0.00890179 2.23938e-20)
(-1.91679 -0.0075302 0)
(-1.91213 -0.00618856 8.57386e-21)
(-1.90827 -0.00488593 0)
(-1.90515 -0.00365097 1.15631e-20)
(-1.90271 -0.00254251 -4.66816e-21)
(-1.90083 -0.00157419 -3.48374e-21)
(-1.89944 -0.000765511 0)
(-1.89847 -0.000160282 -3.8122e-21)
(-1.89767 0.000226223 5.97967e-22)
(-1.89691 0.000420574 -5.93028e-22)
(-1.89613 0.000409353 0)
(-1.8952 0.000166306 -2.20783e-21)
(-1.89385 -0.000298855 -8.96184e-21)
(-1.89184 -0.000954001 0)
(-1.88908 -0.00184365 -8.6761e-21)
(-1.88533 -0.00300129 -9.85586e-21)
(-1.88029 -0.00438367 -1.09589e-20)
(-1.87391 -0.00601198 0)
(-1.86594 -0.007897 0)
(-1.85613 -0.00999778 0)
(-1.84418 -0.0122904 7.48183e-21)
(-1.82992 -0.0147437 7.60615e-21)
(-1.81324 -0.0173548 0)
(-1.79389 -0.0201567 1.71776e-20)
(-1.77162 -0.0230904 1.80632e-20)
(-1.74631 -0.0261644 0)
(-1.71784 -0.029329 1.9807e-20)
(-1.68602 -0.0325872 4.22721e-20)
(-1.65078 -0.035917 -2.22269e-20)
(-1.61193 -0.039343 -2.38549e-20)
(-1.56938 -0.0427937 0)
(-1.52306 -0.0462775 0)
(-1.4729 -0.049755 0)
(-1.41886 -0.0532195 -3.16147e-20)
(-1.3609 -0.0566368 3.38359e-20)
(-1.29904 -0.0600011 7.40931e-20)
(-1.23334 -0.0632972 -4.08274e-20)
(-1.16386 -0.0665161 4.36417e-20)
(-1.09069 -0.0696386 4.90369e-20)
(-1.0139 -0.0726404 0)
(-0.933612 -0.0755018 0)
(-0.849946 -0.0782008 -6.31907e-20)
(-0.763063 -0.0807283 0)
(-0.67314 -0.0830769 0)
(-0.580362 -0.0852467 1.70417e-19)
(-0.48493 -0.0872403 0)
(-0.38705 -0.0890653 1.00933e-19)
(-0.286931 -0.0907361 -1.13927e-19)
(-0.184791 -0.0922742 0)
(-0.080747 -0.093661 1.30496e-19)
(0.0252496 -0.0948214 0)
(0.132884 -0.0959881 0)
(0.241379 -0.0970973 -1.52979e-19)
(0.349834 -0.097423 3.1383e-19)
(0.457776 -0.0968328 -1.64772e-19)
(0.565246 -0.0957192 0)
(0.672183 -0.0942548 0)
(0.778343 -0.0925286 1.78039e-19)
(0.883472 -0.0905802 0)
(0.987336 -0.0884299 1.88691e-19)
(1.08972 -0.0861075 0)
(1.1904 -0.0836405 0)
(1.28919 -0.0810379 0)
(1.38593 -0.0783322 2.10666e-19)
(1.48043 -0.0755359 0)
(1.57249 -0.072634 -2.1839e-19)
(1.66194 -0.0696099 0)
(1.74856 -0.0664473 0)
(1.83205 -0.0630806 4.5423e-19)
(1.91202 -0.0594233 -4.60418e-19)
(1.98798 -0.0553119 0)
(2.05894 -0.0504719 0)
(2.12414 -0.0439584 0)
(2.17877 -0.0343521 1.4648e-18)
(2.22701 -0.0148402 0)
(2.24573 0.0256877 -1.02888e-18)
(-0.00378287 -0.0693589 -1.32019e-21)
(-0.00598347 -0.0381692 6.05328e-19)
(-0.0154741 -0.0078267 0)
(-0.0275535 0.0183804 -2.5117e-19)
(-0.0420445 0.0412439 0)
(-0.0587881 0.0611865 0)
(-0.0778585 0.0784854 3.88691e-23)
(-0.0994775 0.093483 7.97938e-20)
(-0.123854 0.106636 7.66875e-20)
(-0.151099 0.118469 7.46579e-20)
(-0.181203 0.129478 0)
(-0.214124 0.139973 0)
(-0.249895 0.149911 -6.98441e-20)
(-0.288388 0.159474 -1.36096e-19)
(-0.329103 0.169421 1.32415e-19)
(-0.371076 0.179905 0)
(-0.413709 0.190148 1.25727e-19)
(-0.457339 0.198585 -6.12088e-20)
(-0.501984 0.204816 0)
(-0.546963 0.210288 1.12416e-19)
(-0.591523 0.214628 5.38591e-20)
(-0.635752 0.217647 -1.03096e-19)
(-0.679862 0.219449 -4.96651e-20)
(-0.723673 0.219935 0)
(-0.766981 0.219204 9.22049e-20)
(-0.809788 0.217403 8.90737e-20)
(-0.852051 0.214707 0)
(-0.893684 0.211254 8.34632e-20)
(-0.934621 0.207171 0)
(-0.974821 0.202583 7.86246e-20)
(-1.01426 0.197609 3.83243e-20)
(-1.05293 0.192357 0)
(-1.09083 0.186925 0)
(-1.12795 0.181403 0)
(-1.16431 0.175866 0)
(-1.19991 0.170375 0)
(-1.23477 0.164979 0)
(-1.26888 0.159712 6.50435e-20)
(-1.30228 0.154599 -9.58297e-20)
(-1.33496 0.149656 0)
(-1.36695 0.144887 0)
(-1.39825 0.140293 0)
(-1.42887 0.135868 2.01631e-22)
(-1.45884 0.131604 5.88729e-20)
(-1.48815 0.127489 1.15789e-19)
(-1.51681 0.123508 -1.14109e-19)
(-1.54483 0.119645 -5.61516e-20)
(-1.5722 0.115884 5.55667e-20)
(-1.59894 0.112207 -1.86435e-22)
(-1.62502 0.108599 5.39026e-20)
(-1.65046 0.10504 0)
(-1.67524 0.101515 5.25074e-20)
(-1.69934 0.0980073 -1.67793e-22)
(-1.72275 0.0945024 0)
(-1.74546 0.0909862 0)
(-1.76744 0.0874474 -4.98643e-20)
(-1.78867 0.0838741 0)
(-1.80912 0.0802583 0)
(-1.82876 0.076591 4.78126e-20)
(-1.84757 0.0728674 9.45899e-20)
(-1.86551 0.0690813 -4.67554e-20)
(-1.88255 0.065231 0)
(-1.89866 0.0613139 4.54272e-20)
(-1.9138 0.0573319 0)
(-1.92794 0.0532858 4.39436e-20)
(-1.94105 0.0491809 4.33675e-20)
(-1.95309 0.0450208 -8.52458e-20)
(-1.96403 0.040814 -4.18923e-20)
(-1.97385 0.036567 0)
(-1.98252 0.0322919 8.0895e-20)
(-1.99002 0.0279986 0)
(-1.99634 0.0237031 1.16707e-19)
(-2.00147 0.0194197 7.62452e-20)
(-2.0054 0.0151696 7.46211e-20)
(-2.00815 0.0109738 -7.29583e-20)
(-2.00973 0.0068628 1.06781e-19)
(-2.01016 0.00286953 0)
(-2.00946 -0.000967908 0)
(-2.00763 -0.0046331 -6.58293e-20)
(-2.00467 -0.00811735 -9.57344e-20)
(-2.00061 -0.0114083 0)
(-1.99549 -0.0144854 2.98201e-20)
(-1.98937 -0.0173334 0)
(-1.98229 -0.0199329 -8.37637e-20)
(-1.97434 -0.0222707 4.65781e-22)
(-1.96559 -0.0243314 -4.85498e-22)
(-1.95614 -0.0261057 4.9695e-20)
(-1.94609 -0.0275809 0)
(-1.93554 -0.02875 -4.53828e-20)
(-1.92459 -0.029607 5.31748e-22)
(-1.91335 -0.0301453 0)
(-1.90192 -0.0303609 0)
(-1.89041 -0.0302593 0)
(-1.87892 -0.0298521 3.39484e-20)
(-1.86757 -0.0291575 0)
(-1.85646 -0.0281943 0)
(-1.84568 -0.0269838 0)
(-1.83532 -0.0255524 0)
(-1.82547 -0.0239299 0)
(-1.8162 -0.0221458 2.17479e-20)
(-1.80755 -0.0202314 0)
(-1.79959 -0.0182253 1.74196e-20)
(-1.79232 -0.0161622 1.55394e-20)
(-1.78578 -0.014088 -1.3717e-20)
(-1.77997 -0.0120483 0)
(-1.77488 -0.0100704 -1.02614e-20)
(-1.77047 -0.00818998 0)
(-1.76668 -0.00645281 -7.08086e-21)
(-1.76345 -0.00490712 5.59446e-21)
(-1.76069 -0.00358665 1.26666e-20)
(-1.7583 -0.00252875 0)
(-1.75619 -0.0017767 4.69977e-21)
(-1.75422 -0.00131616 3.20507e-22)
(-1.75223 -0.00115153 0)
(-1.7501 -0.00131024 -3.75979e-21)
(-1.74769 -0.00182006 -5.75678e-21)
(-1.74476 -0.00269021 1.1307e-20)
(-1.74112 -0.00391293 0)
(-1.73662 -0.00551379 5.32022e-21)
(-1.73104 -0.00748145 6.04342e-21)
(-1.72415 -0.00983327 2.04492e-20)
(-1.71584 -0.0125768 0)
(-1.70586 -0.015692 0)
(-1.69399 -0.0191373 0)
(-1.67997 -0.0228801 9.28945e-21)
(-1.66361 -0.0269073 0)
(-1.64476 -0.0311986 0)
(-1.6232 -0.0357354 -1.04833e-20)
(-1.59871 -0.0404866 -1.10096e-20)
(-1.57117 -0.0454473 0)
(-1.54041 -0.0505714 0)
(-1.5063 -0.0558303 -2.56288e-20)
(-1.46871 -0.0611953 0)
(-1.4275 -0.0666578 2.86949e-20)
(-1.38258 -0.0721709 3.04942e-20)
(-1.33386 -0.0777044 0)
(-1.28129 -0.0832175 0)
(-1.22482 -0.0886765 -3.73077e-20)
(-1.16441 -0.0940443 -3.51285e-22)
(-1.10011 -0.0992946 -4.5394e-22)
(-1.03194 -0.104403 0)
(-0.959978 -0.109346 -1.03218e-19)
(-0.884315 -0.114088 0)
(-0.805041 -0.118592 0)
(-0.722278 -0.122824 0)
(-0.636172 -0.126752 7.39981e-20)
(-0.546891 -0.130355 0)
(-0.454626 -0.13362 -1.73903e-19)
(-0.359576 -0.136543 -9.65331e-20)
(-0.261959 -0.139129 0)
(-0.161996 -0.141386 -1.14582e-19)
(-0.059905 -0.143306 0)
(0.0441248 -0.144898 0)
(0.149751 -0.146197 -4.13062e-19)
(0.256601 -0.147135 2.89031e-19)
(0.364266 -0.147692 0)
(0.472294 -0.147884 3.19695e-19)
(0.580184 -0.147614 -1.70244e-19)
(0.687614 -0.146759 0)
(0.794439 -0.145344 0)
(0.900477 -0.143455 0)
(1.0055 -0.14117 -6.01437e-19)
(1.10928 -0.138535 0)
(1.21159 -0.135581 -2.1741e-19)
(1.31224 -0.132345 0)
(1.41105 -0.128867 0)
(1.50784 -0.125165 0)
(1.60245 -0.121271 0)
(1.69473 -0.11721 0)
(1.78454 -0.112978 0)
(1.87173 -0.108542 -5.24436e-19)
(1.9561 -0.103864 0)
(2.03739 -0.0988498 -2.74972e-19)
(2.11526 -0.0933682 8.37192e-19)
(2.18931 -0.0871863 0)
(2.25875 -0.0798629 0)
(2.32299 -0.0702943 -5.88263e-19)
(2.37927 -0.056504 -6.02708e-19)
(2.43106 -0.0333116 6.1345e-19)
(2.46531 0.010167 6.39298e-19)
(-0.0134425 -0.0504022 -1.96168e-18)
(-0.0233996 -0.0108687 -7.28698e-19)
(-0.0391907 0.0234142 -2.72241e-19)
(-0.0572829 0.052891 -9.84729e-20)
(-0.0769442 0.0790164 0)
(-0.0979761 0.102503 1.43182e-19)
(-0.12055 0.123749 -6.56646e-20)
(-0.144921 0.143073 0)
(-0.171289 0.160798 -5.90722e-20)
(-0.199742 0.177236 0)
(-0.230241 0.192622 1.10341e-19)
(-0.262657 0.207068 0)
(-0.296822 0.220551 5.19552e-20)
(-0.33258 0.233139 1.00692e-19)
(-0.369607 0.245009 -9.74748e-20)
(-0.407417 0.256116 0)
(-0.445638 0.266077 -9.11661e-20)
(-0.484163 0.274352 0)
(-0.522986 0.280761 0)
(-0.561961 0.285667 -8.19227e-20)
(-0.600821 0.289147 0)
(-0.639431 0.291192 9.47197e-23)
(-0.677723 0.291841 0)
(-0.715616 0.291098 0)
(-0.753076 0.289031 -4.12098e-23)
(-0.790109 0.285806 -6.65505e-20)
(-0.826706 0.281606 -6.44939e-20)
(-0.862846 0.2766 -6.26513e-20)
(-0.898504 0.270941 0)
(-0.933659 0.264772 -1.18447e-19)
(-0.968291 0.25822 0)
(-1.00239 0.251404 -5.621e-20)
(-1.03594 0.244431 0)
(-1.06894 0.237389 0)
(-1.10139 0.230355 5.24396e-20)
(-1.13328 0.223391 0)
(-1.1646 0.216546 -5.03212e-20)
(-1.19535 0.209854 -7.59469e-23)
(-1.22553 0.203342 9.69945e-20)
(-1.25515 0.197023 -9.52172e-20)
(-1.28419 0.190905 0)
(-1.31266 0.184987 0)
(-1.34057 0.179264 -4.52462e-20)
(-1.3679 0.173724 0)
(-1.39467 0.168355 -4.40636e-20)
(-1.42087 0.163141 4.34355e-20)
(-1.44651 0.158061 4.2832e-20)
(-1.47157 0.153098 0)
(-1.49606 0.148231 -4.16869e-20)
(-1.51996 0.143438 -4.11403e-20)
(-1.54327 0.138701 8.10827e-20)
(-1.56598 0.133997 -4.00871e-20)
(-1.58807 0.129308 -3.95764e-20)
(-1.60952 0.124616 0)
(-1.63033 0.119904 0)
(-1.65046 0.115157 3.80847e-20)
(-1.66989 0.110361 0)
(-1.6886 0.105504 0)