# vtk DataFile Version 2.0
track0
ASCII
DATASET POLYDATA
POINTS 12035 float
-0.0205 0.001 1e-05
-0.02052 0.000999985 1e-05
-0.02054 0.000999974 1e-05
-0.02056 0.000999965 1e-05
-0.02058 0.000999959 1e-05
-0.0206 0.000999956 1e-05
-0.0205 0.00367778 1e-05
-0.02052 0.00367778 1e-05
-0.02054 0.00367777 1e-05
-0.02056 0.00367777 1e-05
-0.02058 0.00367777 1e-05
-0.0206 0.00367777 1e-05
-0.0205 0.00635556 1e-05
-0.02052 0.00635555 1e-05
-0.02054 0.00635555 1e-05
-0.02056 0.00635555 1e-05
-0.02058 0.00635555 1e-05
-0.0206 0.00635555 1e-05
-0.0205 0.00903333 1e-05
-0.02052 0.00903333 1e-05
-0.02054 0.00903333 1e-05
-0.02056 0.00903333 1e-05
-0.02058 0.00903333 1e-05
-0.0206 0.00903333 1e-05
-0.0205 0.0117111 1e-05
-0.02052 0.0117111 1e-05
-0.02054 0.0117111 1e-05
-0.02056 0.0117111 1e-05
-0.02058 0.0117111 1e-05
-0.0206 0.0117111 1e-05
-0.0205 0.0143889 1e-05
-0.02052 0.0143889 1e-05
-0.02054 0.0143889 1e-05
-0.02056 0.0143889 1e-05
-0.02058 0.0143889 1e-05
-0.0206 0.0143889 1e-05
-0.0205 0.0170667 1e-05
-0.02052 0.0170667 1e-05
-0.02054 0.0170667 1e-05
-0.02056 0.0170667 1e-05
-0.02058 0.0170667 1e-05
-0.0206 0.0170667 1e-05
-0.0205 0.0197444 1e-05
-0.02052 0.0197444 1e-05
-0.02054 0.0197444 1e-05
-0.02056 0.0197444 1e-05
-0.02058 0.0197444 1e-05
-0.0206 0.0197444 1e-05
-0.0205 0.0224222 1e-05
-0.02052 0.0224222 1e-05
-0.02054 0.0224222 1e-05
-0.02056 0.0224222 1e-05
-0.02058 0.0224222 1e-05
-0.0206 0.0224222 1e-05
-0.0205 0.0251 1e-05
-0.02052 0.0250998 1e-05
-0.02054 0.0250997 1e-05
-0.02056 0.0250995 1e-05
-0.02058 0.0250995 1e-05
-0.0206 0.0250994 1e-05
-0.0205 0.001 1e-05
-0.0202034 0.00100022 1e-05
-0.0199069 0.00100067 1e-05
-0.0196103 0.00100132 1e-05
-0.0193137 0.00100219 1e-05
-0.0190172 0.00100326 1e-05
-0.0187132 0.00100466 1e-05
-0.0184093 0.00100588 1e-05
-0.0181054 0.0010071 1e-05
-0.0178015 0.00100832 1e-05
-0.0174976 0.00100953 1e-05
-0.0172058 0.00101083 1e-05
-0.016914 0.00101193 1e-05
-0.0166222 0.00101303 1e-05
-0.0163305 0.00101413 1e-05
-0.0160387 0.00101523 1e-05
-0.0157586 0.00101637 1e-05
-0.0154784 0.00101745 1e-05
-0.0151983 0.00101856 1e-05
-0.0149182 0.00101972 1e-05
-0.0146381 0.00102091 1e-05
-0.0143749 0.00102209 1e-05
-0.0141118 0.00102327 1e-05
-0.0138487 0.00102449 1e-05
-0.0135855 0.00102574 1e-05
-0.0133633 0.00102682 1e-05
-0.0133493 0.00102689 1e-05
-0.0133354 0.00102696 1e-05
-0.0133214 0.00102703 1e-05
-0.0133074 0.00102709 1e-05
-0.0132934 0.00102716 1e-05
-0.0130353 0.00102845 1e-05
-0.0127771 0.00102976 1e-05
-0.0125189 0.00103108 1e-05
-0.0122607 0.00103241 1e-05
-0.0120025 0.00103377 1e-05
-0.0117547 0.00103507 1e-05
-0.0115068 0.00103639 1e-05
-0.0112589 0.00103771 1e-05
-0.0110111 0.00103904 1e-05
-0.0107632 0.00104037 1e-05
-0.0105252 0.00104165 1e-05
-0.0102873 0.00104293 1e-05
-0.0100493 0.00104421 1e-05
-0.00981133 0.00104549 1e-05
-0.00957337 0.00104677 1e-05
-0.00934491 0.00104799 1e-05
-0.00911645 0.00104921 1e-05
-0.00888799 0.00105044 1e-05
-0.00865954 0.00105166 1e-05
-0.00843108 0.00105287 1e-05
-0.00821175 0.00105403 1e-05
-0.00799242 0.00105519 1e-05
-0.00777309 0.00105635 1e-05
-0.00755376 0.0010575 1e-05
-0.00733443 0.00105865 1e-05
-0.00712387 0.00105974 1e-05
-0.0069133 0.00106084 1e-05
-0.00670273 0.00106193 1e-05
-0.00649216 0.00106301 1e-05
-0.0062816 0.0010641 1e-05
-0.00607944 0.00106513 1e-05
-0.00587729 0.00106616 1e-05
-0.00567514 0.00106718 1e-05
-0.00547298 0.00106821 1e-05
-0.00527083 0.00106923 1e-05
-0.00507675 0.0010702 1e-05
-0.00488267 0.00107117 1e-05
-0.0046886 0.00107213 1e-05
-0.00449452 0.0010731 1e-05
-0.00430044 0.00107406 1e-05
-0.00411412 0.00107497 1e-05
-0.0039278 0.00107589 1e-05
-0.00374147 0.00107681 1e-05
-0.00355515 0.00107772 1e-05
-0.00336883 0.00107863 1e-05
-0.00318995 0.00107949 1e-05
-0.00301107 0.00108036 1e-05
-0.00283219 0.00108123 1e-05
-0.00265331 0.0010821 1e-05
-0.00247443 0.00108297 1e-05
-0.0023027 0.00108379 1e-05
-0.00213097 0.00108462 1e-05
-0.00195924 0.00108546 1e-05
-0.0017875 0.00108629 1e-05
-0.00161577 0.00108712 1e-05
-0.0014509 0.00108792 1e-05
-0.00128603 0.00108872 1e-05
-0.00112116 0.00108953 1e-05
-0.000956289 0.00109034 1e-05
-0.000791418 0.00109116 1e-05
-0.000633135 0.00109194 1e-05
-0.000474851 0.00109274 1e-05
-0.000316568 0.00109354 1e-05
-0.000158284 0.00109435 1e-05
0 0.00109516 1e-05
0.000105677 0.0010957 1e-05
0.000211355 0.00109624 1e-05
0.000317032 0.00109678 1e-05
0.00042271 0.00109732 1e-05
0.000528387 0.00109786 1e-05
0.000634886 0.0010984 1e-05
0.000741385 0.00109894 1e-05
0.000847885 0.00109947 1e-05
0.000954384 0.0011 1e-05
0.00106088 0.00110052 1e-05
0.00116821 0.00110104 1e-05
0.00127554 0.00110156 1e-05
0.00138286 0.00110207 1e-05
0.00149019 0.00110257 1e-05
0.00159752 0.00110306 1e-05
0.00170568 0.00110354 1e-05
0.00181384 0.00110403 1e-05
0.001922 0.0011045 1e-05
0.00203016 0.00110496 1e-05
0.00213833 0.00110541 1e-05
0.00224733 0.00110585 1e-05
0.00235633 0.00110629 1e-05
0.00246533 0.00110672 1e-05
0.00257434 0.00110714 1e-05
0.00268334 0.00110755 1e-05
0.00279319 0.00110795 1e-05
0.00290304 0.00110834 1e-05
0.00301289 0.00110873 1e-05
0.00312274 0.00110911 1e-05
0.00323259 0.00110948 1e-05
0.00334329 0.00110984 1e-05
0.003454 0.0011102 1e-05
0.0035647 0.00111055 1e-05
0.0036754 0.00111089 1e-05
0.00378611 0.00111122 1e-05
0.00389767 0.00111154 1e-05
0.00400924 0.00111186 1e-05
0.0041208 0.00111217 1e-05
0.00423237 0.00111247 1e-05
0.00434393 0.00111276 1e-05
0.00445636 0.00111304 1e-05
0.00456879 0.00111332 1e-05
0.00468123 0.00111359 1e-05
0.00479366 0.00111385 1e-05
0.00490609 0.0011141 1e-05
0.0050194 0.00111434 1e-05
0.0051327 0.00111458 1e-05
0.00524601 0.00111481 1e-05
0.00535932 0.00111503 1e-05
0.00547262 0.00111525 1e-05
0.00558681 0.00111545 1e-05
0.005701 0.00111565 1e-05
0.00581518 0.00111584 1e-05
0.00592937 0.00111602 1e-05
0.00604356 0.0011162 1e-05
0.00615863 0.00111636 1e-05
0.00627371 0.00111652 1e-05
0.00638878 0.00111667 1e-05
0.00650386 0.00111682 1e-05
0.00661893 0.00111695 1e-05
0.0067349 0.00111708 1e-05
0.00685087 0.0011172 1e-05
0.00696684 0.00111731 1e-05
0.00708281 0.00111741 1e-05
0.00719878 0.00111751 1e-05
0.00731565 0.00111759 1e-05
0.00743252 0.00111767 1e-05
0.00754939 0.00111775 1e-05
0.00766626 0.00111781 1e-05
0.00778313 0.00111786 1e-05
0.00781726 0.00111788 1e-05
0.00785138 0.00111789 1e-05
0.0078855 0.0011179 1e-05
0.00791962 0.00111791 1e-05
0.00795317 0.00111793 1e-05
0.00803694 0.00111795 1e-05
0.00812071 0.00111797 1e-05
0.00820449 0.00111799 1e-05
0.00828826 0.001118 1e-05
0.00837203 0.00111801 1e-05
0.00849073 0.00111801 1e-05
0.00860942 0.00111801 1e-05
0.00872812 0.00111799 1e-05
0.00884682 0.00111797 1e-05
0.00896551 0.00111794 1e-05
0.00908513 0.0011179 1e-05
0.00920475 0.00111785 1e-05
0.00932437 0.0011178 1e-05
0.00944398 0.00111773 1e-05
0.0095636 0.00111766 1e-05
0.00968415 0.00111757 1e-05
0.0098047 0.00111748 1e-05
0.00992525 0.00111737 1e-05
0.0100458 0.00111726 1e-05
0.0101663 0.00111715 1e-05
0.0102878 0.00111701 1e-05
0.0104093 0.00111687 1e-05
0.0105308 0.00111672 1e-05
0.0106523 0.00111656 1e-05
0.0107738 0.0011164 1e-05
0.0108962 0.00111621 1e-05
0.0110186 0.00111602 1e-05
0.0111411 0.00111582 1e-05
0.0112635 0.00111562 1e-05
0.0113859 0.0011154 1e-05
0.0115093 0.00111516 1e-05
0.0116327 0.00111493 1e-05
0.0117561 0.00111468 1e-05
0.0118795 0.00111443 1e-05
0.0120028 0.00111416 1e-05
0.0121272 0.00111387 1e-05
0.0122515 0.00111358 1e-05
0.0123759 0.00111329 1e-05
0.0125002 0.00111298 1e-05
0.0126245 0.00111266 1e-05
0.0127498 0.00111232 1e-05
0.0128752 0.00111198 1e-05
0.0130005 0.00111163 1e-05
0.0131258 0.00111127 1e-05
0.0132511 0.0011109 1e-05
0.0133774 0.0011105 1e-05
0.0135036 0.00111011 1e-05
0.0136299 0.0011097 1e-05
0.0137562 0.00110929 1e-05
0.0138825 0.00110886 1e-05
0.0140098 0.00110841 1e-05
0.014137 0.00110796 1e-05
0.0142643 0.0011075 1e-05
0.0143915 0.00110703 1e-05
0.0145188 0.00110655 1e-05
0.0146471 0.00110604 1e-05
0.0147753 0.00110554 1e-05
0.0149036 0.00110502 1e-05
0.0150318 0.00110449 1e-05
0.0151601 0.00110395 1e-05
0.0152893 0.00110339 1e-05
0.0154186 0.00110282 1e-05
0.0155478 0.00110225 1e-05
0.0156771 0.00110166 1e-05
0.0158063 0.00110106 1e-05
0.0159366 0.00110045 1e-05
0.0160668 0.00109982 1e-05
0.0161971 0.00109918 1e-05
0.0163274 0.00109854 1e-05
0.0164576 0.00109788 1e-05
0.0165889 0.00109721 1e-05
0.0167201 0.00109652 1e-05
0.0168514 0.00109583 1e-05
0.0169827 0.00109512 1e-05
0.0171139 0.0010944 1e-05
0.0172462 0.00109367 1e-05
0.0173785 0.00109293 1e-05
0.0175108 0.00109217 1e-05
0.0176431 0.0010914 1e-05
0.0177754 0.00109062 1e-05
0.0179087 0.00108984 1e-05
0.018042 0.00108904 1e-05
0.0181753 0.00108822 1e-05
0.0183087 0.00108738 1e-05
0.018442 0.00108655 1e-05
0.0185763 0.0010857 1e-05
0.0187107 0.00108484 1e-05
0.018845 0.00108395 1e-05
0.0189794 0.00108306 1e-05
0.0191137 0.00108216 1e-05
0.0192491 0.00108126 1e-05
0.0193845 0.00108033 1e-05
0.0195199 0.00107938 1e-05
0.0196553 0.00107842 1e-05
0.0197907 0.00107746 1e-05
0.0199272 0.0010765 1e-05
0.0200636 0.00107551 1e-05
0.0202001 0.0010745 1e-05
0.0203365 0.00107347 1e-05
0.020473 0.00107245 1e-05
0.0206105 0.00107143 1e-05
0.020748 0.00107038 1e-05
0.0208855 0.0010693 1e-05
0.021023 0.00106821 1e-05
0.0211606 0.00106713 1e-05
0.0212991 0.00106604 1e-05
0.0214377 0.00106493 1e-05
0.0215763 0.00106379 1e-05
0.0217149 0.00106263 1e-05
0.0218535 0.00106149 1e-05
0.0219931 0.00106034 1e-05
0.0221328 0.00105916 1e-05
0.0222724 0.00105795 1e-05
0.0224121 0.00105673 1e-05
0.0225517 0.00105552 1e-05
0.0226925 0.00105431 1e-05
0.0228332 0.00105307 1e-05
0.022974 0.00105179 1e-05
0.0231147 0.00105051 1e-05
0.0232555 0.00104923 1e-05
0.0233973 0.00104795 1e-05
0.0235391 0.00104664 1e-05
0.023681 0.0010453 1e-05
0.0238228 0.00104395 1e-05
0.0239647 0.00104261 1e-05
0.0241076 0.00104126 1e-05
0.0242505 0.00103989 1e-05
0.0243935 0.00103848 1e-05
0.0245364 0.00103706 1e-05
0.0246794 0.00103565 1e-05
0.0248234 0.00103423 1e-05
0.0249675 0.00103279 1e-05
0.0251115 0.00103131 1e-05
0.0252556 0.00102983 1e-05
[...]
POINT_DATA 12035
 FIELD attributes 2
p 1 12035 float
-3.9476 -3.94428 -3.94096 -3.93765 -3.93434 -3.93102
-4.10005 -4.10003 -4.10001 -4.09999 -4.09996 -4.09994
-4.27439 -4.27427 -4.27414 -4.27402 -4.2739 -4.27379
-4.36801 -4.36796 -4.36791 -4.36785 -4.3678 -4.36775
-4.41345 -4.41333 -4.41322 -4.41311 -4.413 -4.41288
-4.42034 -4.42018 -4.42002 -4.41986 -4.4197 -4.41954
-4.39374 -4.39367 -4.3936 -4.39353 -4.39345 -4.39338
-4.32444 -4.3244 -4.32435 -4.32431 -4.32427 -4.32423
-4.20331 -4.20332 -4.20333 -4.20333 -4.20334 -4.20335
-1.99078 -2.01011 -2.02931 -2.04838 -2.06731 -2.08611
-3.9476 -3.94688 -3.94325 -3.93955 -3.93577 -3.92738 -3.94121 -3.95616 -3.97111 -3.98606 -4.01047 -4.0322 -4.0621 -4.092 -4.1219 -4.1546 -4.17021 -4.19186 -4.21351 -4.23517 -4.25844 -4.27724 -4.29804 -4.31886 -4.33967 -4.35725 -4.35836 -4.35946 -4.36056 -4.36166 -4.36276 -4.38434 -4.40592 -4.42749 -4.44907 -4.47038 -4.48904 -4.5075 -4.52597 -4.54443 -4.56232 -4.57781 -4.59303 -4.60824 -4.62345 -4.6381 -4.65171 -4.66506 -4.67842 -4.69177 -4.70467 -4.71717 -4.72939 -4.74162 -4.75384 -4.76563 -4.77716 -4.78837 -4.79958 -4.81078 -4.82155 -4.83217 -4.84248 -4.85279 -4.8631 -4.87304 -4.88292 -4.89248 -4.90203 -4.91159 -4.92081 -4.93004 -4.939 -4.94796 -4.95693 -4.96568 -4.97443 -4.98275 -4.99108 -4.9994 -5.00754 -5.01593 -5.02437 -5.03281 -5.04125 -5.05008 -5.05923 -5.06788 -5.07654 -5.0852 -5.09405 -5.1042 -5.11614 -5.12808 -5.14002 -5.1532 -5.16608 -5.18127 -5.19646 -5.21164 -5.22651 -5.24008 -5.25357 -5.26706 -5.28056 -5.29258 -5.30225 -5.31228 -5.32231 -5.33234 -5.34265 -5.35172 -5.36077 -5.36982 -5.37887 -5.38784 -5.39672 -5.40438 -5.41205 -5.41971 -5.42627 -5.43369 -5.4397 -5.4457 -5.4517 -5.45645 -5.4625 -5.4674 -5.4723 -5.4772 -5.48108 -5.48605 -5.4901 -5.49414 -5.49819 -5.50146 -5.50545 -5.5087 -5.51196 -5.51522 -5.51793 -5.52104 -5.52361 -5.52617 -5.52874 -5.53097 -5.53347 -5.53561 -5.53774 -5.53988 -5.54182 -5.54405 -5.54603 -5.54801 -5.54999 -5.55187 -5.55395 -5.55586 -5.55778 -5.5597 -5.56155 -5.56352 -5.56539 -5.56727 -5.56914 -5.571 -5.57156 -5.57211 -5.57265 -5.57319 -5.57372 -5.57505 -5.57638 -5.57771 -5.57904 -5.5805 -5.58227 -5.58417 -5.58607 -5.58798 -5.59026 -5.59186 -5.59388 -5.59589 -5.5979 -5.60063 -5.60208 -5.60426 -5.60644 -5.60862 -5.61187 -5.61315 -5.61547 -5.61779 -5.6201 -5.62384 -5.62493 -5.62736 -5.62979 -5.63222 -5.63639 -5.63732 -5.63987 -5.64241 -5.64495 -5.64955 -5.65036 -5.65304 -5.65572 -5.6584 -5.66338 -5.66413 -5.66694 -5.66975 -5.67257 -5.67789 -5.67861 -5.68156 -5.6845 -5.68745 -5.69303 -5.69378 -5.69685 -5.69993 -5.70302 -5.70877 -5.70974 -5.71282 -5.71601 -5.7195 -5.72512 -5.72646 -5.72944 -5.73276 -5.73658 -5.74207 -5.74376 -5.7467 -5.75014 -5.75423 -5.75959 -5.76163 -5.76456 -5.76812 -5.77244 -5.77766 -5.78002 -5.783 -5.78666 -5.79115 -5.79625 -5.79891 -5.80195 -5.80571 -5.81033 -5.81532 -5.81826 -5.82139 -5.82524 -5.82994 -5.83482 -5.83799 -5.84122 -5.84514 -5.84988 -5.85465 -5.85802 -5.8614 -5.86541 -5.8701 -5.87479 -5.87836 -5.88193 -5.88602 -5.89064 -5.89526 -5.89902 -5.90279 -5.90695 -5.91152 -5.91609 -5.92003 -5.92397 -5.9282 -5.93272 -5.93723 -5.94128 -5.94534 -5.94959 -5.95406 -5.95852 -5.96263 -5.96675 -5.97102 -5.97545 -5.97988 -5.98402 -5.98817 -5.99246 -5.99688 -6.00129 -6.00545 -6.00963 -6.01393 -6.01832 -6.02272 -6.02689 -6.03109 -6.03539 -6.03976 -6.04414 -6.0483 -6.0525 -6.05679 -6.06112 -6.06548 -6.06962 -6.07381 -6.07807 -6.08236 -6.08669 -6.09078 -6.09496 -6.09917 -6.10341 -6.1077 -6.11174 -6.11588 -6.12004 -6.12422 -6.12845 -6.13243 -6.13652 -6.14062 -6.14472 -6.14888 -6.15279 -6.15681 -6.16083 -6.16484 -6.16891 -6.17275 -6.17667 -6.18059 -6.18451 -6.18847 -6.19222 -6.19603 -6.19984 -6.20365 -6.20748 -6.21111 -6.21479 -6.21847 -6.22215 -6.22584 -6.22934 -6.23287 -6.2364 -6.23993 -6.24346 -6.24355 -6.24365 -6.24374 -6.24383 -6.24392 -6.24721 -6.2505 -6.25378 -6.25707 -6.26037 -6.26358 -6.26679 -6.27 -6.27321 -6.27642 -6.27946 -6.28248 -6.28549 -6.28851 -6.29153 -6.29436 -6.29714 -6.29992 -6.30271 -6.30547 -6.30808 -6.31059 -6.31311 -6.31563 -6.31811 -6.32046 -6.3227 -6.32492 -6.32714 -6.32931 -6.33137 -6.33333 -6.33525 -6.33714 -6.33899 -6.34074 -6.34241 -6.34401 -6.34556 -6.34707 -6.34849 -6.34987 -6.35112 -6.35228 -6.35343 -6.35449 -6.35555 -6.35643 -6.35718 -6.35793 -6.3586 -6.35927 -6.35975 -6.36007 -6.36039 -6.36065 -6.36091 -6.36097 -6.36083 -6.36069 -6.36048 -6.36029 -6.3599 -6.35927 -6.35864 -6.35796 -6.35728 -6.35641 -6.35527 -6.35413 -6.35294 -6.3517 -6.35029 -6.34869 -6.347 -6.34527 -6.34344 -6.34147 -6.33938 -6.33712 -6.33483 -6.33235 -6.32979 -6.3272 -6.32434 -6.32145 -6.31828 -6.31511 -6.31194 -6.3085 -6.30491 -6.30109 -6.29728 -6.29347 -6.28948 -6.28515 -6.28067 -6.27618 -6.27171 -6.26716 -6.26347 -6.25971 -6.25596 -6.25221 -6.24863 -6.2472 -6.24576 -6.24432 -6.24289 -6.24142 -6.23563 -6.2298 -6.22398 -6.21816 -6.21218 -6.2058 -6.19924 -6.19269 -6.18614 -6.1793 -6.17232 -6.16501 -6.15771 -6.15041 -6.14266 -6.135 -6.12699 -6.11892 -6.1107 -6.10217 -6.09372 -6.08509 -6.07623 -6.06706 -6.05773 -6.04848 -6.03921 -6.02955 -6.01942 -6.00928 -5.99922 -5.98918 -5.97868 -5.96773 -5.95678 -5.94591 -5.93505 -5.92374 -5.91197 -5.90021 -5.88853 -5.87684 -5.86466 -5.85214 -5.83956 -5.82706 -5.81437 -5.80136 -5.78819 -5.77479 -5.76147 -5.74775 -5.73393 -5.72011 -5.70591 -5.6917 -5.67706 -5.66242 -5.64779 -5.63295 -5.61773 -5.60228 -5.58684 -5.5714 -5.55594 -5.55333 -5.55067 -5.54802 -5.54537 -5.54275 -5.52924 -5.51573 -5.50223 -5.48873 -5.4751 -5.45827 -5.44136 -5.42446 -5.40756 -5.39037 -5.37291 -5.35525 -5.3376 -5.31986 -5.30184 -5.28364 -5.26535 -5.24696 -5.22833 -5.20958 -5.19066 -5.17175 -5.15262 -5.13316 -5.11371 -5.0941 -5.07449 -5.0546 -5.03447 -5.01434 -4.99405 -4.97373 -4.9531 -4.93235 -4.91156 -4.89062 -4.86949 -4.84822 -4.82693 -4.80552 -4.78393 -4.76205 -4.74016 -4.71829 -4.69634 -4.67848 -4.66047 -4.64246 -4.62445 -4.60721 -4.60257 -4.59793 -4.59329 -4.58866 -4.584 -4.56089 -4.53779 -4.51469 -4.49161 -4.46845 -4.4447 -4.42098 -4.39726 -4.37354 -4.34967 -4.32526 -4.30087 -4.27647 -4.25196 -4.22737 -4.20229 -4.17721 -4.15206 -4.12673 -4.10139 -4.07559 -4.04979 -4.02382 -3.99777 -3.97172 -3.94522 -3.91865 -3.89192 -3.86519 -3.83845 -3.81126 -3.78386 -3.75643 -3.72901 -3.7016 -3.67363 -3.64552 -3.61742 -3.58933 -3.56123 -3.56099 -3.56074 -3.5605 -3.56025 -3.56001 -3.5315 -3.503 -3.47451 -3.44602 -3.4173 -3.38787 -3.35843 -3.329 -3.2995 -3.26962 -3.23946 -3.20929 -3.17911 -3.14858 -3.11793 -3.08701 -3.05611 -3.02496 -2.99344 -2.96192 -2.93016 -2.89842 -2.86611 -2.83367 -2.80121 -2.76855 -2.73551 -2.70219 -2.66888 -2.63539 -2.60157 -2.5672 -2.53285 -2.4985 -2.46411 -2.45781 -2.4514 -2.445 -2.4386 -2.43227 -2.40326 -2.37427 -2.34527 -2.31629 -2.28681 -2.25051 -2.21396 -2.17741 -2.14068 -2.10313 -2.06571 -2.02814 -1.99033 -1.95161 -1.91273 -1.87402 -1.83532 -1.7958 -1.75548 -1.71514 -1.67501 -1.63459 -1.59324 -1.55164 -1.50974 -1.46807 -1.42514 -1.38217 -1.33921 -1.29596 -1.27824 -1.26008 -1.24192 -1.22377 -1.20614 -1.17961 -1.15309 -1.12657 -1.10006 -1.07288 -1.02701 -0.980676 -0.934348 -0.887727 -0.839759 -0.792254 -0.744524 -0.696224 -0.646333 -0.596333 -0.546828 -0.497333 -0.446354 -0.394112 -0.341827 -0.29007 -0.237267 -0.183653 -0.130048 -0.0755168 -0.0373466 0.00201608 0.0413745 0.0807286 0.117723 0.134761 0.151799 0.168835 0.18587 0.203443 0.26117 0.319336 0.377487 0.43589 0.496258 0.55592 0.615882 0.676754 0.739826 0.802987 0.865411 0.927823 0.992395 1.05812 1.1242 1.18951 1.25696 1.32467 1.39236 1.46047 1.4693 1.47845 1.48759 1.49674 1.50577 1.56689 1.62799 1.68908 1.75015 1.81348 1.88538 1.95804 2.0313 2.10678 2.18274 2.25785 2.33294 2.4104 2.48902 2.56824 2.63625 2.70621 2.77641 2.84659 2.91034 2.92222 2.93411 2.946 2.95793 2.97019 3.05308 3.13636 3.21962 3.30361 3.38963 3.47476 3.55986 3.64681 3.73562 3.82477 3.913 4.00284 4.0933 4.18373 4.27461 4.27593 4.27729 4.27865 4.28001 4.28136 4.3725 4.4636 4.55465 4.64621 4.73966 4.8336 4.9275 5.02276 5.11947 5.2167 5.2901 5.36418 5.43868 5.51315 5.58144 5.60586 5.63029 5.65471 5.67927 5.70409 5.80239 5.9013 6.00015 6.09981 6.20037 6.29999 6.39973 6.50003 6.60026 6.70163 6.71842 6.73523 6.75208 6.76893 6.78549 6.86964 6.95374 7.03778 7.12199 7.2069 7.3077 7.40842 7.50912 7.61001 7.71182 7.74787 7.78386 7.81976 7.85564 7.8904 7.95528 8.02013 8.08495 8.14966 8.21461 8.31425 8.41381 8.51285 8.61175 8.71137 8.75017 8.78881 8.82713 8.86545 8.90276 8.96243 9.02209 9.08172 9.14082 9.19994 9.2962 9.39239 9.48721 9.58164 9.67653 9.69768 9.71873 9.73941 9.76008 9.78057 9.85295 9.92531 9.99765 10.0688 10.1398 10.2282 10.3161 10.4022 10.4883 10.5732 10.5757 10.5782 10.5807 10.5831 10.5856 10.6724 10.7592 10.846 10.9306 11.0149 11.0723 11.1293 11.1849 11.2404 11.2968 11.3225 11.3483 11.374 11.3991 11.424 11.5034 11.5829 11.6609 11.7373 11.8134 11.8462 11.8789 11.9105 11.9422 11.9748 12.0168 12.0588 12.1008 12.1417 12.1821 12.2532 12.3243 12.3935 12.4618 12.5293 12.5482 12.5669 12.585 12.6031 12.6218 12.6693 12.7168 12.7643 12.8107 12.8562 12.9187 12.9812 13.0418 13.1018 13.1609 13.1789 13.1966 13.2139 13.2312 13.2492 13.2889 13.3287 13.3684 13.4074 13.4455 13.4995 13.5535 13.6062 13.6576 13.7086 13.7406 13.7719 13.8027 13.8334 13.8676 13.8845 13.9013 13.9181 13.9347 13.951 13.9967 14.0419 14.0871 14.131 14.1742 14.2159 14.2573 14.2974 14.3374 14.3767 14.3977 14.418 14.4382 14.4583 14.4808 14.4969 14.513 14.5291 14.5452 14.5608 14.5948 14.6285 14.6622 14.6952 14.7275 14.7581 14.7886 14.8183 14.8474 14.8764 14.9036 14.9302 14.9565 14.9827 15.0086 15.0221 15.0351 15.0482 15.0613 15.0759 15.086 15.0961 15.1061 15.1162 15.126 15.147 15.168 15.1889 15.2097 15.23 15.2483 15.2667 15.2849 15.3027 15.3204 15.3363 15.3522 15.3678 15.3832 15.3985 15.4122 15.4257 15.439 15.4522 15.4654 15.477 15.4884 15.4997 15.5109 15.5222 15.5319 15.5414 15.5509 15.5604 15.5699 15.5724 15.5749 15.5773 15.5798 15.5824 15.588 15.5936 15.5991 15.6047 15.6102 15.6169 15.6236 15.6303 15.6371 15.6438 15.6491 15.6547 15.6603 15.6659 15.6715 15.6759 15.6806 15.6853 15.6901 15.6949 15.6988 15.7027 15.7068 15.7112 15.7156 15.7192 15.7227 15.7267 15.7313 15.7358 15.7397 15.7436 15.7477 15.7522 15.7568 15.7608 15.7649 15.7702 15.777 15.7837 15.7899 15.796 15.8003 15.8024 15.8043 15.8052 15.806 15.8117 15.8218 15.8318 15.8417 15.8514 15.8446 15.8206 15.7964 15.7687 15.7402 15.7104 15.6805 15.6507 15.6183 15.5865 15.5547 15.5229 15.4928 15.4608 15.4283 15.3958 15.3633 15.3307 15.3142 15.2974 15.2807 15.264 15.245 15.2259 15.2069 15.1878 15.1687 15.1494 15.1087 15.0678 15.0269 14.9859 14.9444 14.8992 14.8535 14.8078 14.7621 14.7156 14.6659 14.6153 14.5647 14.5137 14.4621 14.4071 14.3515 14.2953 14.2384 14.181 14.1201 14.059 13.9965 13.9327 13.8687 13.8011 13.7335 13.664 13.5927 13.5214 13.4463 13.3711 13.2937 13.2142 13.1346 13.0508 12.9671 12.8809 12.792 12.703 12.6096 12.5157 12.4193 12.3204 12.2208 12.1164 12.0103 11.9022 11.7924 11.6805 11.5633 11.4432 11.322 11.2003 11.075 10.9439 10.8074 10.6709 10.5344 10.3937 10.2441 10.0913 9.93841 9.78556 9.63056 9.46051 9.28635 9.11218 8.93801 8.76237 8.66639 8.57028 8.47417 8.37805 8.27303 8.17871 8.08439 7.99007 7.89575 7.80112 7.57891 7.35303 7.12708 6.90107 6.66471 6.41625 6.17788 5.9395 5.70113 5.47873 5.23047 4.90871 4.58664 4.26425 3.84124 3.39435 3.12019 2.85145 2.61058 2.5295 2.44503 2.11716 1.66401 0.927707 0