# vtk DataFile Version 2.0
track0
ASCII
DATASET POLYDATA
POINTS 12035 float
-0.0205 0.001 1e-05
-0.02052 0.000999985 1e-05
-0.02054 0.000999974 1e-05
-0.02056 0.000999965 1e-05
-0.02058 0.000999959 1e-05
-0.0206 0.000999956 1e-05
-0.0205 0.00367778 1e-05
-0.02052 0.00367778 1e-05
-0.02054 0.00367777 1e-05
-0.02056 0.00367777 1e-05
-0.02058 0.00367777 1e-05
-0.0206 0.00367777 1e-05
-0.0205 0.00635556 1e-05
-0.02052 0.00635555 1e-05
-0.02054 0.00635555 1e-05
-0.02056 0.00635555 1e-05
-0.02058 0.00635555 1e-05
-0.0206 0.00635555 1e-05
-0.0205 0.00903333 1e-05
-0.02052 0.00903333 1e-05
-0.02054 0.00903333 1e-05
-0.02056 0.00903333 1e-05
-0.02058 0.00903333 1e-05
-0.0206 0.00903333 1e-05
-0.0205 0.0117111 1e-05
-0.02052 0.0117111 1e-05
-0.02054 0.0117111 1e-05
-0.02056 0.0117111 1e-05
-0.02058 0.0117111 1e-05
-0.0206 0.0117111 1e-05
-0.0205 0.0143889 1e-05
-0.02052 0.0143889 1e-05
-0.02054 0.0143889 1e-05
-0.02056 0.0143889 1e-05
-0.02058 0.0143889 1e-05
-0.0206 0.0143889 1e-05
-0.0205 0.0170667 1e-05
-0.02052 0.0170667 1e-05
-0.02054 0.0170667 1e-05
-0.02056 0.0170667 1e-05
-0.02058 0.0170667 1e-05
-0.0206 0.0170667 1e-05
-0.0205 0.0197444 1e-05
-0.02052 0.0197444 1e-05
-0.02054 0.0197444 1e-05
-0.02056 0.0197444 1e-05
-0.02058 0.0197444 1e-05
-0.0206 0.0197444 1e-05
-0.0205 0.0224222 1e-05
-0.02052 0.0224222 1e-05
-0.02054 0.0224222 1e-05
-0.02056 0.0224222 1e-05
-0.02058 0.0224222 1e-05
-0.0206 0.0224222 1e-05
-0.0205 0.0251 1e-05
-0.02052 0.0250998 1e-05
-0.02054 0.0250997 1e-05
-0.02056 0.0250995 1e-05
-0.02058 0.0250995 1e-05
-0.0206 0.0250994 1e-05
-0.0205 0.001 1e-05
-0.0202034 0.00100022 1e-05
-0.0199069 0.00100067 1e-05
-0.0196103 0.00100132 1e-05
-0.0193137 0.00100219 1e-05
-0.0190172 0.00100326 1e-05
-0.0187132 0.00100466 1e-05
-0.0184093 0.00100588 1e-05
-0.0181054 0.0010071 1e-05
-0.0178015 0.00100832 1e-05
-0.0174976 0.00100953 1e-05
-0.0172058 0.00101083 1e-05
-0.016914 0.00101193 1e-05
-0.0166222 0.00101303 1e-05
-0.0163305 0.00101413 1e-05
-0.0160387 0.00101523 1e-05
-0.0157586 0.00101637 1e-05
-0.0154784 0.00101745 1e-05
-0.0151983 0.00101856 1e-05
-0.0149182 0.00101972 1e-05
-0.0146381 0.00102091 1e-05
-0.0143749 0.00102209 1e-05
-0.0141118 0.00102327 1e-05
-0.0138487 0.00102449 1e-05
-0.0135855 0.00102574 1e-05
-0.0133633 0.00102682 1e-05
-0.0133493 0.00102689 1e-05
-0.0133354 0.00102696 1e-05
-0.0133214 0.00102703 1e-05
-0.0133074 0.00102709 1e-05
-0.0132934 0.00102716 1e-05
-0.0130353 0.00102845 1e-05
-0.0127771 0.00102976 1e-05
-0.0125189 0.00103108 1e-05
-0.0122607 0.00103241 1e-05
-0.0120025 0.00103377 1e-05
-0.0117547 0.00103507 1e-05
-0.0115068 0.00103639 1e-05
-0.0112589 0.00103771 1e-05
-0.0110111 0.00103904 1e-05
-0.0107632 0.00104037 1e-05
-0.0105252 0.00104165 1e-05
-0.0102873 0.00104293 1e-05
-0.0100493 0.00104421 1e-05
-0.00981133 0.00104549 1e-05
-0.00957337 0.00104677 1e-05
-0.00934491 0.00104799 1e-05
-0.00911645 0.00104921 1e-05
-0.00888799 0.00105044 1e-05
-0.00865954 0.00105166 1e-05
-0.00843108 0.00105287 1e-05
-0.00821175 0.00105403 1e-05
-0.00799242 0.00105519 1e-05
-0.00777309 0.00105635 1e-05
-0.00755376 0.0010575 1e-05
-0.00733443 0.00105865 1e-05
-0.00712387 0.00105974 1e-05
-0.0069133 0.00106084 1e-05
-0.00670273 0.00106193 1e-05
-0.00649216 0.00106301 1e-05
-0.0062816 0.0010641 1e-05
-0.00607944 0.00106513 1e-05
-0.00587729 0.00106616 1e-05
-0.00567514 0.00106718 1e-05
-0.00547298 0.00106821 1e-05
-0.00527083 0.00106923 1e-05
-0.00507675 0.0010702 1e-05
-0.00488267 0.00107117 1e-05
-0.0046886 0.00107213 1e-05
-0.00449452 0.0010731 1e-05
-0.00430044 0.00107406 1e-05
-0.00411412 0.00107497 1e-05
-0.0039278 0.00107589 1e-05
-0.00374147 0.00107681 1e-05
-0.00355515 0.00107772 1e-05
-0.00336883 0.00107863 1e-05
-0.00318995 0.00107949 1e-05
-0.00301107 0.00108036 1e-05
-0.00283219 0.00108123 1e-05
-0.00265331 0.0010821 1e-05
-0.00247443 0.00108297 1e-05
-0.0023027 0.00108379 1e-05
-0.00213097 0.00108462 1e-05
-0.00195924 0.00108546 1e-05
-0.0017875 0.00108629 1e-05
-0.00161577 0.00108712 1e-05
-0.0014509 0.00108792 1e-05
-0.00128603 0.00108872 1e-05
-0.00112116 0.00108953 1e-05
-0.000956289 0.00109034 1e-05
-0.000791418 0.00109116 1e-05
-0.000633135 0.00109194 1e-05
-0.000474851 0.00109274 1e-05
-0.000316568 0.00109354 1e-05
-0.000158284 0.00109435 1e-05
0 0.00109516 1e-05
0.000105677 0.0010957 1e-05
0.000211355 0.00109624 1e-05
0.000317032 0.00109678 1e-05
0.00042271 0.00109732 1e-05
0.000528387 0.00109786 1e-05
0.000634886 0.0010984 1e-05
0.000741385 0.00109894 1e-05
0.000847885 0.00109947 1e-05
0.000954384 0.0011 1e-05
0.00106088 0.00110052 1e-05
0.00116821 0.00110104 1e-05
0.00127554 0.00110156 1e-05
0.00138286 0.00110207 1e-05
0.00149019 0.00110257 1e-05
0.00159752 0.00110306 1e-05
0.00170568 0.00110354 1e-05
0.00181384 0.00110403 1e-05
0.001922 0.0011045 1e-05
0.00203016 0.00110496 1e-05
0.00213833 0.00110541 1e-05
0.00224733 0.00110585 1e-05
0.00235633 0.00110629 1e-05
0.00246533 0.00110672 1e-05
0.00257434 0.00110714 1e-05
0.00268334 0.00110755 1e-05
0.00279319 0.00110795 1e-05
0.00290304 0.00110834 1e-05
0.00301289 0.00110873 1e-05
0.00312274 0.00110911 1e-05
0.00323259 0.00110948 1e-05
0.00334329 0.00110984 1e-05
0.003454 0.0011102 1e-05
0.0035647 0.00111055 1e-05
0.0036754 0.00111089 1e-05
0.00378611 0.00111122 1e-05
0.00389767 0.00111154 1e-05
0.00400924 0.00111186 1e-05
0.0041208 0.00111217 1e-05
0.00423237 0.00111247 1e-05
0.00434393 0.00111276 1e-05
0.00445636 0.00111304 1e-05
0.00456879 0.00111332 1e-05
0.00468123 0.00111359 1e-05
0.00479366 0.00111385 1e-05
0.00490609 0.0011141 1e-05
0.0050194 0.00111434 1e-05
0.0051327 0.00111458 1e-05
0.00524601 0.00111481 1e-05
0.00535932 0.00111503 1e-05
0.00547262 0.00111525 1e-05
0.00558681 0.00111545 1e-05
0.005701 0.00111565 1e-05
0.00581518 0.00111584 1e-05
0.00592937 0.00111602 1e-05
0.00604356 0.0011162 1e-05
0.00615863 0.00111636 1e-05
0.00627371 0.00111652 1e-05
0.00638878 0.00111667 1e-05
0.00650386 0.00111682 1e-05
0.00661893 0.00111695 1e-05
0.0067349 0.00111708 1e-05
0.00685087 0.0011172 1e-05
0.00696684 0.00111731 1e-05
0.00708281 0.00111741 1e-05
0.00719878 0.00111751 1e-05
0.00731565 0.00111759 1e-05
0.00743252 0.00111767 1e-05
0.00754939 0.00111775 1e-05
0.00766626 0.00111781 1e-05
0.00778313 0.00111786 1e-05
0.00781726 0.00111788 1e-05
0.00785138 0.00111789 1e-05
0.0078855 0.0011179 1e-05
0.00791962 0.00111791 1e-05
0.00795317 0.00111793 1e-05
0.00803694 0.00111795 1e-05
0.00812071 0.00111797 1e-05
0.00820449 0.00111799 1e-05
0.00828826 0.001118 1e-05
0.00837203 0.00111801 1e-05
0.00849073 0.00111801 1e-05
0.00860942 0.00111801 1e-05
0.00872812 0.00111799 1e-05
0.00884682 0.00111797 1e-05
0.00896551 0.00111794 1e-05
0.00908513 0.0011179 1e-05
0.00920475 0.00111785 1e-05
0.00932437 0.0011178 1e-05
0.00944398 0.00111773 1e-05
0.0095636 0.00111766 1e-05
0.00968415 0.00111757 1e-05
0.0098047 0.00111748 1e-05
0.00992525 0.00111737 1e-05
0.0100458 0.00111726 1e-05
0.0101663 0.00111715 1e-05
0.0102878 0.00111701 1e-05
0.0104093 0.00111687 1e-05
0.0105308 0.00111672 1e-05
0.0106523 0.00111656 1e-05
0.0107738 0.0011164 1e-05
0.0108962 0.00111621 1e-05
0.0110186 0.00111602 1e-05
0.0111411 0.00111582 1e-05
0.0112635 0.00111562 1e-05
0.0113859 0.0011154 1e-05
0.0115093 0.00111516 1e-05
0.0116327 0.00111493 1e-05
0.0117561 0.00111468 1e-05
0.0118795 0.00111443 1e-05
0.0120028 0.00111416 1e-05
0.0121272 0.00111387 1e-05
0.0122515 0.00111358 1e-05
0.0123759 0.00111329 1e-05
0.0125002 0.00111298 1e-05
0.0126245 0.00111266 1e-05
0.0127498 0.00111232 1e-05
0.0128752 0.00111198 1e-05
0.0130005 0.00111163 1e-05
0.0131258 0.00111127 1e-05
0.0132511 0.0011109 1e-05
0.0133774 0.0011105 1e-05
0.0135036 0.00111011 1e-05
0.0136299 0.0011097 1e-05
0.0137562 0.00110929 1e-05
0.0138825 0.00110886 1e-05
0.0140098 0.00110841 1e-05
0.014137 0.00110796 1e-05
0.0142643 0.0011075 1e-05
0.0143915 0.00110703 1e-05
0.0145188 0.00110655 1e-05
0.0146471 0.00110604 1e-05
0.0147753 0.00110554 1e-05
0.0149036 0.00110502 1e-05
0.0150318 0.00110449 1e-05
0.0151601 0.00110395 1e-05
0.0152893 0.00110339 1e-05
0.0154186 0.00110282 1e-05
0.0155478 0.00110225 1e-05
0.0156771 0.00110166 1e-05
0.0158063 0.00110106 1e-05
0.0159366 0.00110045 1e-05
0.0160668 0.00109982 1e-05
0.0161971 0.00109918 1e-05
0.0163274 0.00109854 1e-05
0.0164576 0.00109788 1e-05
0.0165889 0.00109721 1e-05
0.0167201 0.00109652 1e-05
0.0168514 0.00109583 1e-05
0.0169827 0.00109512 1e-05
0.0171139 0.0010944 1e-05
0.0172462 0.00109367 1e-05
0.0173785 0.00109293 1e-05
0.0175108 0.00109217 1e-05
0.0176431 0.0010914 1e-05
0.0177754 0.00109062 1e-05
0.0179087 0.00108984 1e-05
0.018042 0.00108904 1e-05
0.0181753 0.00108822 1e-05
0.0183087 0.00108738 1e-05
0.018442 0.00108655 1e-05
0.0185763 0.0010857 1e-05
0.0187107 0.00108484 1e-05
0.018845 0.00108395 1e-05
0.0189794 0.00108306 1e-05
0.0191137 0.00108216 1e-05
0.0192491 0.00108126 1e-05
0.0193845 0.00108033 1e-05
0.0195199 0.00107938 1e-05
0.0196553 0.00107842 1e-05
0.0197907 0.00107746 1e-05
0.0199272 0.0010765 1e-05
0.0200636 0.00107551 1e-05
0.0202001 0.0010745 1e-05
0.0203365 0.00107347 1e-05
0.020473 0.00107245 1e-05
0.0206105 0.00107143 1e-05
0.020748 0.00107038 1e-05
0.0208855 0.0010693 1e-05
0.021023 0.00106821 1e-05
0.0211606 0.00106713 1e-05
0.0212991 0.00106604 1e-05
0.0214377 0.00106493 1e-05
0.0215763 0.00106379 1e-05
0.0217149 0.00106263 1e-05
0.0218535 0.00106149 1e-05
0.0219931 0.00106034 1e-05
0.0221328 0.00105916 1e-05
0.0222724 0.00105795 1e-05
0.0224121 0.00105673 1e-05
0.0225517 0.00105552 1e-05
0.0226925 0.00105431 1e-05
0.0228332 0.00105307 1e-05
0.022974 0.00105179 1e-05
0.0231147 0.00105051 1e-05
0.0232555 0.00104923 1e-05
0.0233973 0.00104795 1e-05
0.0235391 0.00104664 1e-05
0.023681 0.0010453 1e-05
0.0238228 0.00104395 1e-05
0.0239647 0.00104261 1e-05
0.0241076 0.00104126 1e-05
0.0242505 0.00103989 1e-05
0.0243935 0.00103848 1e-05
0.0245364 0.00103706 1e-05
0.0246794 0.00103565 1e-05
0.0248234 0.00103423 1e-05
0.0249675 0.00103279 1e-05
0.0251115 0.00103131 1e-05
0.0252556 0.00102983 1e-05
[...]
POINT_DATA 12035
 FIELD attributes 1
U 3 12035 float
10.0004 	0.00731848 	0 10.0004 	0.00585478 	0 10.0003 	0.00439109 	0 10.0002 	0.00292739 	0 10.0001 	0.00146369 	0 10 	0 	0
10.0001 	0.000880672 	0 10 	0.000704538 	0 10 	0.000528403 	0 10 	0.000352269 	0 10 	0.000176134 	0 10 	0 	0
10.0001 	0.000468281 	0 10.0001 	0.000374436 	0 10.0001 	0.00028059 	0 10 	0.000186745 	0 10 	9.28991e-05 	0 10 	0 	0
10 	0.000268785 	0 10 	0.000215028 	0 10 	0.000161271 	0 10 	0.000107514 	0 10 	5.37569e-05 	0 10 	0 	0
10 	8.31054e-05 	0 10 	6.64843e-05 	0 10 	4.98633e-05 	0 10 	3.32422e-05 	0 10 	1.66211e-05 	0 10 	0 	0
10 	-2.37779e-05 	0 10 	-1.90223e-05 	0 10 	-1.42668e-05 	0 10 	-9.51117e-06 	0 10 	-4.75559e-06 	0 10 	0 	0
10 	-0.000214375 	0 10 	-0.0001715 	0 10 	-0.000128625 	0 10 	-8.57501e-05 	0 10 	-4.28751e-05 	0 10 	0 	0
10 	-0.000376654 	0 10 	-0.000301323 	0 10 	-0.000225992 	0 10 	-0.000150662 	0 10 	-7.53308e-05 	0 10 	0 	0
9.99999 	-0.000426833 	0 9.99999 	-0.000341466 	0 9.99999 	-0.0002561 	0 10 	-0.000170733 	0 10 	-8.53666e-05 	0 10 	0 	0
9.17387 	0.0870993 	0 9.1308 	0.0696794 	0 9.08741 	0.0522593 	0 9.04368 	0.0348389 	0 8.99962 	0.0174184 	0 8.95524 	0 	0
10.0004 	0.00731848 	0 10.0024 	0.0151695 	0 10.0045 	0.022189 	0 10.0065 	0.0291644 	0 10.0085 	0.0360957 	0 10.0135 	0.0463117 	0 10.0163 	0.0402117 	0 10.0207 	0.0401713 	0 10.0252 	0.040131 	0 10.0296 	0.0400909 	0 10.0356 	0.0445526 	0 10.0384 	0.0379139 	0 10.0424 	0.0378712 	0 10.0464 	0.0378285 	0 10.0504 	0.0377858 	0 10.0545 	0.0408875 	0 10.0567 	0.0388119 	0 10.0591 	0.0401227 	0 10.0615 	0.0414351 	0 10.064 	0.0427491 	0 10.0661 	0.0452078 	0 10.0676 	0.0453202 	0 10.069 	0.0465227 	0 10.0703 	0.0477264 	0 10.0716 	0.0489312 	0 10.0727 	0.0499497 	0 10.0728 	0.0500141 	0 10.0729 	0.0500786 	0 10.073 	0.0501431 	0 10.073 	0.0502076 	0 10.0731 	0.0502623 	0 10.0736 	0.0508919 	0 10.0741 	0.0515152 	0 10.0746 	0.0521391 	0 10.0752 	0.0527635 	0 10.0756 	0.0532235 	0 10.0755 	0.053523 	0 10.0752 	0.0537168 	0 10.0748 	0.0539107 	0 10.0744 	0.0541047 	0 10.0739 	0.0540601 	0 10.0734 	0.0542102 	0 10.0723 	0.0541917 	0 10.0712 	0.0541732 	0 10.0701 	0.0541547 	0 10.0686 	0.0538669 	0 10.0682 	0.0539542 	0 10.0665 	0.0538274 	0 10.0649 	0.0537006 	0 10.0633 	0.0535738 	0 10.0607 	0.0531606 	0 10.0607 	0.0532244 	0 10.0586 	0.0530393 	0 10.0566 	0.0528541 	0 10.0545 	0.0526688 	0 10.051 	0.0521851 	0 10.0516 	0.0522519 	0 10.0492 	0.0520446 	0 10.0469 	0.0518372 	0 10.0445 	0.0516298 	0 10.0399 	0.0511164 	0 10.0413 	0.0512093 	0 10.0388 	0.0510037 	0 10.0362 	0.050798 	0 10.0336 	0.0505923 	0 10.0278 	0.0500685 	0 10.0303 	0.0501981 	0 10.0276 	0.0500156 	0 10.0249 	0.0498329 	0 10.0222 	0.0496502 	0 10.0152 	0.0491444 	0 10.0188 	0.0493271 	0 10.016 	0.0491751 	0 10.0132 	0.0490231 	0 10.0104 	0.048871 	0 10.0023 	0.0483801 	0 10.0071 	0.0486293 	0 10.0043 	0.0485687 	0 10.0015 	0.048508 	0 9.99865 	0.0484473 	0 9.98929 	0.0480651 	0 9.99545 	0.04844 	0 9.99266 	0.0484509 	0 9.98988 	0.0484618 	0 9.98709 	0.0484727 	0 9.97652 	0.0481021 	0 9.9841 	0.0485661 	0 9.98145 	0.0488621 	0 9.97881 	0.049158 	0 9.97617 	0.049454 	0 9.96449 	0.0494482 	0 9.97372 	0.0501485 	8.58827e-22 9.9719 	0.0504578 	5.84615e-21 9.97009 	0.0507671 	1.08332e-20 9.96827 	0.0510765 	1.58198e-20 9.95631 	0.0508465 	1.332e-20 9.96701 	0.0512442 	9.379e-20 9.96557 	0.0511299 	8.7192e-20 9.96412 	0.0510156 	8.05928e-20 9.96268 	0.0509012 	7.39923e-20 9.95053 	0.0502854 	-1.5013e-20 9.96125 	0.050198 	-4.07701e-20 9.95984 	0.0497792 	-4.53073e-20 9.95842 	0.0493604 	-4.98422e-20 9.95701 	0.0489415 	-5.43751e-20 9.94491 	0.0482423 	-2.0887e-20 9.95517 	0.0478915 	-1.84391e-20 9.95343 	0.0471323 	-1.27901e-20 9.95168 	0.0463729 	-7.14181e-21 9.94993 	0.0456135 	-1.49404e-21 9.93777 	0.0446628 	7.19385e-21 9.9476 	0.044294 	-5.14436e-21 9.94551 	0.0433559 	-2.3484e-20 9.9434 	0.0424175 	-4.18259e-20 9.94129 	0.041479 	-6.01701e-20 9.929 	0.040241 	-8.63822e-20 9.93831 	0.0400072 	-1.24276e-19 9.9358 	0.0391157 	-1.12121e-19 9.93328 	0.038224 	-9.99565e-20 9.93075 	0.037332 	-8.77843e-20 9.91828 	0.035974 	-2.92624e-20 9.92696 	0.0358633 	3.68828e-20 9.92399 	0.0350593 	5.02229e-20 9.92102 	0.034255 	6.3553e-20 9.91805 	0.0334505 	7.68731e-20 9.90547 	0.0320779 	3.61238e-20 9.91341 	0.0319839 	-5.10157e-20 9.91 	0.0312117 	-5.70688e-20 9.90658 	0.0304393 	-6.31064e-20 9.90316 	0.0296667 	-6.91285e-20 9.89056 	0.028323 	-3.02303e-22 9.89765 	0.0281869 	6.50349e-20 9.89376 	0.0274277 	5.58381e-20 9.88987 	0.0266681 	4.6626e-20 9.88596 	0.0259083 	3.73985e-20 9.8734 	0.0246312 	-2.7309e-20 9.87947 	0.0244372 	-8.44253e-20 9.87507 	0.0236893 	-1.06348e-19 9.87066 	0.0229411 	-1.28265e-19 9.86625 	0.0221926 	-1.50176e-19 9.85384 	0.0210013 	-1.32913e-19 9.85866 	0.0207505 	-1.55697e-19 9.85374 	0.0200168 	-1.43449e-19 9.84881 	0.0192828 	-1.31197e-19 9.84387 	0.0185485 	-1.18941e-19 9.83178 	0.0174497 	-8.08388e-20 9.83509 	0.0171496 	-6.84436e-20 9.82964 	0.0164327 	-5.02039e-20 9.82419 	0.0157155 	-3.1966e-20 9.81874 	0.014998 	-1.373e-20 9.80721 	0.0139884 	2.47718e-21 9.80868 	0.0136293 	0 9.80274 	0.0129219 	0 9.79678 	0.0122141 	0 9.79082 	0.0115061 	0 9.78019 	0.0105795 	0 9.77943 	0.0101452 	-1.55345e-20 9.77299 	0.00944356 	-3.42336e-20 9.76655 	0.00874157 	-5.29344e-20 9.76009 	0.00803922 	-7.16371e-20 9.75073 	0.00720195 	-9.15149e-20 9.74732 	0.00667326 	-9.83913e-20 9.7404 	0.00597753 	-9.90987e-20 9.73347 	0.0052814 	-9.98005e-20 9.72653 	0.00458489 	-1.00497e-19 9.71887 	0.0038544 	-9.97001e-20 9.71759 	0.0036956 	-8.92567e-20 9.71546 	0.00349524 	-8.09319e-20 9.71332 	0.00329484 	-7.26079e-20 9.71118 	0.00309441 	-6.42848e-20 9.70908 	0.00289733 	-5.61034e-20 9.70376 	0.0024022 	-3.56491e-20 9.69844 	0.00190685 	-1.51999e-20 9.69312 	0.00141126 	5.24417e-21 9.68779 	0.000915432 	2.5683e-20 9.67793 	0.000215539 	5.06569e-20 9.67417 	-0.000295376 	5.16171e-20 9.66626 	-0.000988804 	5.27092e-20 9.65833 	-0.00168274 	5.3799e-20 9.6504 	-0.00237718 	5.48863e-20 9.63173 	-0.00353118 	5.74876e-20 9.63318 	-0.00381631 	4.54407e-20 9.62484 	-0.0045073 	3.33916e-20 9.61649 	-0.00519884 	2.13412e-20 9.60813 	-0.00589094 	9.28959e-21 9.58321 	-0.00724784 	-8.50744e-22 9.58954 	-0.00735777 	-8.78763e-21 9.58081 	-0.00804874 	-2.03026e-20 9.57206 	-0.00874032 	-3.18163e-20 9.5633 	-0.00943249 	-4.33288e-20 9.53266 	-0.0109362 	-5.4854e-20 9.54343 	-0.0109254 	-5.57832e-20 9.53432 	-0.0116185 	-6.30112e-20 9.52521 	-0.0123123 	-7.02358e-20 9.51608 	-0.0130067 	-7.74569e-20 9.48038 	-0.0145979 	-9.46905e-20 9.49506 	-0.014519 	-1.41493e-19 9.48563 	-0.0152143 	-1.32086e-19 9.47618 	-0.0159104 	-1.22694e-19 9.46671 	-0.0166072 	-1.13316e-19 9.42667 	-0.018225 	-4.06223e-20 9.44467 	-0.0181311 	-2.65262e-20 9.43492 	-0.0188294 	-1.87267e-20 9.42516 	-0.0195285 	-1.09262e-20 9.41539 	-0.0202283 	-3.12489e-21 9.37177 	-0.0218143 	0 9.39249 	-0.0217597 	0 9.38247 	-0.0224626 	0 9.37243 	-0.0231663 	0 9.36237 	-0.0238708 	0 9.31594 	-0.0253696 	0 9.33879 	-0.0254081 	1.98717e-21 9.32852 	-0.0261157 	9.23585e-21 9.31823 	-0.0268241 	1.64837e-20 9.30792 	-0.0275334 	2.37306e-20 9.25941 	-0.0288872 	4.08065e-20 9.28382 	-0.0290665 	1.51205e-19 9.27333 	-0.0297774 	1.54134e-19 9.26282 	-0.0304891 	1.5708e-19 9.25229 	-0.0312017 	1.60042e-19 9.20239 	-0.0323588 	4.09993e-20 9.22785 	-0.0327189 	2.24205e-20 9.21717 	-0.0334318 	1.58862e-20 9.20646 	-0.0341457 	9.35088e-21 9.19536 	-0.0348624 	3.00417e-21 9.14507 	-0.0357782 	1.65916e-20 9.16924 	-0.0363596 	1.03006e-19 9.16026 	-0.037067 	1.0887e-19 9.14939 	-0.0377823 	1.10184e-19 9.13427 	-0.0384909 	9.99751e-20 9.08763 	-0.0391428 	3.78342e-21 9.10849 	-0.0399429 	-9.84079e-20 9.10286 	-0.0406728 	-1.24009e-19 9.09184 	-0.0413893 	-1.34069e-19 9.07342 	-0.0420371 	-1.26522e-19 9.03023 	-0.0424523 	-5.99034e-20 9.04802 	-0.0434468 	-1.75707e-19 9.04519 	-0.0442433 	-2.10633e-19 9.03404 	-0.0449607 	-2.13022e-19 9.01298 	-0.0455026 	-1.71516e-19 8.97301 	-0.045708 	-4.61604e-20 8.98798 	-0.0468721 	-2.42027e-20 8.98744 	-0.0477719 	-1.10099e-20 8.97619 	-0.0484899 	-3.85999e-21 8.95309 	-0.0488879 	0 8.9161 	-0.0489101 	0 8.9285 	-0.0502202 	0 8.9298 	-0.0512536 	0 8.91848 	-0.0519718 	0 8.89387 	-0.0521956 	1.89266e-21 8.85963 	-0.0520599 	5.16059e-21 8.86971 	-0.0534934 	2.05044e-21 8.87246 	-0.0546843 	0 8.86107 	-0.0554036 	0 8.83543 	-0.0554318 	2.29276e-21 8.80371 	-0.0551645 	5.56516e-21 8.81168 	-0.0567039 	2.4549e-21 8.81554 	-0.0580723 	1.36035e-21 8.80411 	-0.0587952 	7.82125e-21 8.77784 	-0.058614 	2.39995e-20 8.74841 	-0.0582404 	4.22454e-20 8.7545 	-0.059871 	1.66419e-19 8.75919 	-0.061433 	2.81246e-19 8.74774 	-0.0621583 	2.84829e-19 8.72117 	-0.0617515 	1.66943e-19 8.69383 	-0.0612859 	4.27883e-20 8.69824 	-0.0629817 	2.48221e-20 8.70259 	-0.0646794 	6.85739e-21 8.69094 	-0.0653582 	2.50673e-22 8.66548 	-0.0648187 	3.39508e-21 8.64003 	-0.0642789 	6.53932e-21 8.64295 	-0.066015 	3.56279e-21 8.6458 	-0.0677529 	5.87212e-22 8.63458 	-0.0684004 	2.2152e-21 8.61083 	-0.0678177 	-1.5927e-21 8.58709 	-0.0672346 	-5.39966e-21 8.58868 	-0.069015 	-4.83469e-20 8.59022 	-0.0707971 	-9.12985e-20 8.57946 	-0.0714182 	-9.26725e-20 8.55725 	-0.0707982 	-5.34017e-20 8.53504 	-0.0701778 	-1.41289e-20 8.53549 	-0.0719938 	8.37312e-20 8.53587 	-0.0738116 	1.81585e-19 8.52562 	-0.074405 	1.90027e-19 8.50477 	-0.0737534 	1.08433e-19 8.48394 	-0.0731014 	2.6839e-20 8.48338 	-0.074934 	1.55265e-20 8.48275 	-0.0767685 	4.20995e-21 8.47302 	-0.0773353 	1.98788e-22 8.4534 	-0.0766728 	4.80112e-21 8.4338 	-0.0760099 	9.40503e-21 8.43235 	-0.0778485 	3.83069e-21 8.43085 	-0.0796888 	-1.74943e-21 8.42165 	-0.0802319 	-2.0103e-20 8.40313 	-0.079573 	-6.94856e-20 8.38463 	-0.0789136 	-1.1887e-19 8.38241 	-0.0807442 	-2.47908e-19 8.38012 	-0.0825764 	-3.76939e-19 8.37147 	-0.0830984 	-3.6136e-19 8.35395 	-0.0824605 	-2.13423e-19 8.33644 	-0.0818222 	-6.54858e-20 8.33352 	-0.0836417 	5.69e-20 8.33027 	-0.0853949 	1.72986e-19 8.32175 	-0.0858735 	1.70492e-19 8.30583 	-0.0853584 	8.91712e-20 8.28922 	-0.0847491 	3.9489e-22 8.28569 	-0.0865552 	-8.76511e-20 8.28116 	-0.0881009 	-1.59961e-19 8.27276 	-0.0885926 	-1.68907e-19 8.25876 	-0.0882782 	-1.13297e-19 8.24296 	-0.0877033 	-3.68368e-20 8.23889 	-0.0894954 	-2.58743e-20 8.23332 	-0.0908386 	-1.50102e-20 8.22504 	-0.0913451 	-4.32476e-21 8.21271 	-0.0912306 	1.20614e-20 8.19765 	-0.0906936 	3.23255e-20 8.1931 	-0.0924718 	1.07369e-20 8.18671 	-0.0936191 	-2.85627e-21 8.17852 	-0.0941419 	-8.53798e-21 8.16765 	-0.094225 	-5.41645e-21 8.15326 	-0.0937285 	9.29728e-21 8.14828 	-0.0954936 	-7.162e-21 8.14125 	-0.0964527 	-1.68882e-20 8.13316 	-0.0969932 	-2.31178e-20 8.12355 	-0.0972704 	-3.33187e-20 8.10976 	-0.0968164 	-5.45284e-20 8.10439 	-0.0985695 	5.18626e-20 8.09688 	-0.0993483 	7.31427e-20 8.08888 	-0.0999079 	7.52397e-20 8.08036 	-0.100375 	6.84499e-20 8.06712 	-0.0999653 	-2.26222e-20 8.0614 	-0.101708 	6.70525e-20 8.05355 	-0.102315 	7.18644e-20 8.04562 	-0.102895 	7.46309e-20 8.03767 	-0.103475 	7.73852e-20 8.02531 	-0.103183 	8.76079e-21 8.01903 	-0.104759 	-5.22324e-22 8.01119 	-0.10536 	-3.61781e-22 8.00333 	-0.105962 	-2.01261e-22 7.99545 	-0.106564 	-4.07644e-23 7.98428 	-0.106478 	1.45143e-20 7.97754 	-0.107868 	0 7.96976 	-0.108492 	0 7.96196 	-0.109116 	0 7.95413 	-0.109741 	0 7.94401 	-0.109857 	1.11041e-20 7.93691 	-0.11107 	0 7.92918 	-0.111718 	0 7.92143 	-0.112366 	0 7.91366 	-0.113014 	0 7.90444 	-0.113327 	0 7.89709 	-0.114371 	0 7.88941 	-0.115044 	0 7.8817 	-0.115717 	0 7.87396 	-0.11639 	0 7.86553 	-0.116896 	-3.7149e-21 7.85802 	-0.117778 	0 7.85036 	-0.118476 	0 7.84268 	-0.119174 	0 7.83498 	-0.119873 	0 7.82723 	-0.120567 	-2.0364e-22 7.82702 	-0.120592 	0 7.8268 	-0.120612 	0 7.82659 	-0.120632 	0 7.82638 	-0.120653 	0 7.82617 	-0.120673 	0 7.81855 	-0.121379 	0 7.81091 	-0.122086 	0 7.80323 	-0.122793 	0 7.79553 	-0.1235 	0 7.78869 	-0.124035 	0 7.78054 	-0.124948 	-7.45393e-21 7.77269 	-0.125703 	-1.67364e-20 7.76481 	-0.126459 	-2.60171e-20 7.7569 	-0.127215 	-3.52958e-20 7.75073 	-0.127625 	-4.4589e-20 7.74225 	-0.128723 	-4.01117e-20 7.7344 	-0.129507 	-3.93889e-20 7.72652 	-0.130291 	-3.86622e-20 7.71861 	-0.131075 	-3.79317e-20 7.71332 	-0.131346 	-4.29476e-20 7.7045 	-0.132624 	-3.28261e-20 7.69664 	-0.133437 	-2.2677e-20 7.68875 	-0.134249 	-1.25259e-20 7.68084 	-0.135062 	-2.37286e-21 7.67641 	-0.135202 	0 7.66723 	-0.136657 	-7.68436e-22 7.65936 	-0.1375 	-5.31576e-21 7.65146 	-0.138344 	-9.86205e-21 7.64353 	-0.139187 	-1.44073e-20 7.63993 	-0.139204 	-1.89413e-20 7.63048 	-0.140797 	-5.19282e-20 7.6225 	-0.141709 	-7.15935e-20 7.61458 	-0.142585 	-9.05357e-20 7.60739 	-0.143317 	-1.03509e-19 7.60385 	-0.143361 	-8.78282e-20 7.59438 	-0.14497 	-6.36412e-20 7.58601 	-0.146074 	-4.90403e-20 7.57805 	-0.146983 	-3.81094e-20 7.57172 	-0.147583 	-4.01005e-20 7.56808 	-0.147682 	-6.30953e-20 7.55859 	-0.14931 	-7.62371e-20 7.54983 	-0.150601 	-7.43327e-20 7.54182 	-0.151544 	-5.69025e-20 7.53633 	-0.152018 	-3.115e-20 7.53257 	-0.152169 	3.06769e-22 7.52305 	-0.153815 	4.20086e-21 7.51388 	-0.15529 	5.84044e-21 7.50581 	-0.156268 	9.33017e-22 7.50114 	-0.156618 	0 7.49725 	-0.156821 	0 7.4877 	-0.158484 	0 7.47811 	-0.16014 	0 7.4701 	-0.161128 	0 7.46609 	-0.161383 	0 7.46206 	-0.161638 	0 7.45247 	-0.16332 	0 7.44281 	-0.165003 	0 7.4353 	-0.166009 	-1.26514e-20 7.43114 	-0.166316 	-2.92258e-20 7.42697 	-0.166624 	-4.57993e-20 7.41732 	-0.168326 	-2.75964e-20 7.40761 	-0.170028 	-9.38606e-21 7.40054 	-0.171063 	1.93216e-21 7.39623 	-0.171422 	5.71389e-21 7.39191 	-0.171781 	9.4954e-21 7.38219 	-0.173504 	3.97766e-20 7.37241 	-0.175227 	7.00559e-20 7.36578 	-0.176291 	7.42452e-20 7.3613 	-0.176701 	6.03122e-20 7.35682 	-0.177111 	4.63759e-20 7.34702 	-0.178854 	2.36484e-20 7.33717 	-0.180598 	9.11098e-22 7.33096 	-0.181686 	8.32831e-21 7.3263 	-0.182153 	1.69583e-20 7.32164 	-0.182613 	2.559e-20 7.31176 	-0.184378 	8.42119e-20 7.30261 	-0.186005 	1.3018e-19 7.29641 	-0.187102 	1.27733e-19 7.29118 	-0.187778 	8.57165e-20 7.28634 	-0.188286 	2.78522e-20 7.27637 	-0.190073 	2.01366e-20 7.26804 	-0.19156 	1.61962e-20 7.26168 	-0.192692 	1.67199e-20 7.25589 	-0.193573 	2.06436e-20 7.25085 	-0.194129 	2.90015e-20 7.24077 	-0.195937 	8.57833e-20 7.23325 	-0.197286 	1.00206e-19 7.22673 	-0.198453 	9.76846e-20 7.22036 	-0.199537 	8.73538e-20 7.21512 	-0.200138 	3.13609e-20 7.20493 	-0.201967 	2.3946e-20 7.19819 	-0.203181 	1.63452e-20 7.19149 	-0.204381 	8.74256e-21 7.18475 	-0.205581 	1.14259e-21 7.17911 	-0.206309 	0 7.16965 	-0.208008 	0 7.16282 	-0.20924 	0 7.15594 	-0.210471 	0 7.14901 	-0.211703 	0 7.14276 	-0.212638 	0 7.13411 	-0.214193 	0 7.12708 	-0.215455 	0 7.12001 	-0.216718 	0 7.11289 	-0.21798 	0 7.10602 	-0.219118 	3.28382e-21 7.10012 	-0.220176 	4.06383e-21 7.09489 	-0.221113 	9.72544e-21 7.08964 	-0.222049 	1.53884e-20 7.08436 	-0.222985 	2.10528e-20 7.0793 	-0.223879 	2.64583e-20 7.07717 	-0.224242 	2.84e-20 7.07504 	-0.224605 	3.03416e-20 7.07291 	-0.224968 	3.22829e-20 7.07077 	-0.225332 	3.4224e-20 7.069 	-0.225652 	3.58416e-20 7.06119 	-0.227013 	3.63778e-20 7.05355 	-0.228331 	4.04073e-20 7.04585 	-0.229649 	4.44167e-20 7.03811 	-0.230966 	4.8406e-20 7.03202 	-0.232089 	6.58182e-20 7.02326 	-0.233633 	4.21612e-20 7.0154 	-0.234976 	3.14858e-20 7.00749 	-0.236318 	2.07901e-20 6.99952 	-0.237661 	1.0074e-20 6.99455 	-0.238657 	2.84451e-20 6.98482 	-0.240382 	2.46355e-20 6.97673 	-0.241747 	2.32328e-20 6.96859 	-0.243112 	2.18242e-20 6.96043 	-0.244474 	2.04889e-20 6.95656 	-0.245346 	3.04745e-20 6.94614 	-0.24718 	2.00524e-20 6.93749 	-0.248634 	1.76156e-20 6.92912 	-0.25002 	1.66089e-20 6.92212 	-0.251246 	2.03353e-20 6.918 	-0.252144 	3.37847e-20 6.90735 	-0.253991 	4.65797e-20 6.89766 	-0.255628 	5.07124e-20 6.88904 	-0.257032 	4.52376e-20 6.88321 	-0.258121 	2.8369e-20 6.87883 	-0.259044 	5.49482e-21 6.86795 	-0.260902 	2.55602e-21 6.85719 	-0.262722 	-1.09526e-22 6.84832 	-0.264144 	-1.18181e-24 6.84367 	-0.265095 	0 6.83904 	-0.266041 	0 6.82791 	-0.267911 	0 6.81672 	-0.26978 	0 6.80836 	-0.271195 	-6.8901e-21 6.8035 	-0.27216 	-1.51592e-20 6.7986 	-0.273125 	-2.34246e-20 6.78722 	-0.275003 	-1.28608e-20 6.77578 	-0.27688 	-2.28764e-21 6.76778 	-0.278317 	4.26663e-21 6.76265 	-0.279297 	1.03444e-20 6.75748 	-0.280277 	1.6425e-20 6.74585 	-0.282158 	1.13489e-20 6.73431 	-0.284022 	6.49336e-21 6.7268 	-0.28544 	7.21534e-21 6.72112 	-0.286487 	2.2572e-20 6.71567 	-0.287477 	4.01131e-20 6.70379 	-0.28936 	2.15971e-20 6.69354 	-0.291057 	7.21131e-21 6.68576 	-0.292479 	-1.0381e-21 6.67888 	-0.293714 	-6.84004e-21 6.67316 	-0.294713 	-9.547e-21 6.66101 	-0.296594 	-5.19066e-20 6.65207 	-0.298121 	-6.59507e-20 6.64403 	-0.299544 	-7.17508e-20 6.63593 	-0.300967 	-7.75359e-20 6.62994 	-0.301973 	-4.43426e-20 6.61818 	-0.30378 	-7.20866e-20 6.60992 	-0.305203 	-6.7143e-20 6.60161 	-0.306625 	-6.21876e-20 6.59325 	-0.308047 	-5.72203e-20 6.58601 	-0.309244 	-3.58477e-20 6.57561 	-0.310872 	-4.76036e-20 6.56709 	-0.312292 	-3.95567e-20 6.55852 	-0.313711 	-3.14942e-20 6.54989 	-0.31513 	-2.34163e-20 6.54138 	-0.316518 	-1.28883e-20 6.53968 	-0.316778 	-1.25154e-20 6.53826 	-0.317009 	-1.21255e-20 6.53683 	-0.31724 	-1.17356e-20 6.5354 	-0.31747 	-1.13458e-20 6.53399 	-0.317699 	-1.09598e-20 6.52627 	-0.318884 	-8.56615e-21 6.51851 	-0.320068 	-6.17149e-21 6.51071 	-0.321253 	-3.77587e-21 6.50287 	-0.322438 	-1.37928e-21 6.49592 	-0.323487 	0 6.48606 	-0.325044 	0 6.47654 	-0.326452 	0 6.46697 	-0.327861 	0 6.45733 	-0.329269 	0 6.44972 	-0.330378 	0 6.43905 	-0.332102 	-9.17019e-23 6.42924 	-0.333501 	-2.13872e-21 6.41938 	-0.3349 	-4.18442e-21 6.41008 	-0.336211 	-6.1993e-21 6.40275 	-0.33723 	-8.11489e-21 6.39174 	-0.338952 	1.23807e-20 6.38117 	-0.340506 	2.37699e-20 6.37102 	-0.341893 	2.60667e-20 6.36264 	-0.343021 	9.98117e-21 6.35506 	-0.344029 	-1.46863e-20 6.34376 	-0.345731 	-8.53765e-21 6.33239 	-0.347433 	-2.39034e-21 6.32228 	-0.348773 	3.50211e-21 6.3145 	-0.349768 	7.0727e-21 6.30667 	-0.350764 	1.0642e-20 6.29508 	-0.352446 	6.16976e-21 6.28342 	-0.354127 	1.69449e-21 6.27372 	-0.355463 	4.80522e-21 6.26569 	-0.356444 	1.49888e-20 6.25761 	-0.357426 	2.51732e-20 6.24575 	-0.359085 	3.06716e-20 6.23406 	-0.36071 	3.47959e-20 6.22478 	-0.361994 	2.5548e-20 6.21626 	-0.363036 	1.08079e-20 6.20795 	-0.364002 	-5.64538e-21 6.19581 	-0.365638 	8.48674e-21 6.18521 	-0.367056 	1.2868e-20 6.17569 	-0.368318 	1.02757e-20 6.16628 	-0.369532 	4.9195e-21 6.15773 	-0.370482 	-1.61499e-20 6.14556 	-0.372063 	-1.08418e-20 6.13586 	-0.3733 	-3.88507e-21 6.12611 	-0.374536 	3.07136e-21 6.11631 	-0.375772 	1.00275e-20 6.10702 	-0.376851 	1.36306e-20 6.09798 	-0.377973 	1.44294e-20 6.09006 	-0.378941 	1.50679e-20 6.0821 	-0.37991 	1.5709e-20 6.0741 	-0.380878 	1.63526e-20 6.06641 	-0.381805 	1.69714e-20 6.06441 	-0.382056 	1.74442e-20 6.06242 	-0.382307 	1.79176e-20 6.06042 	-0.382558 	1.83914e-20 6.05842 	-0.382809 	1.88658e-20 6.05647 	-0.383019 	1.66192e-20 6.0469 	-0.384249 	1.28265e-20 6.0372 	-0.385437 	9.04537e-21 6.02744 	-0.386624 	5.26242e-21 6.01763 	-0.387811 	1.47764e-21 6.00805 	-0.388763 	-4.07749e-21 5.99871 	-0.390157 	0 5.98881 	-0.39132 	0 5.97885 	-0.392482 	0 5.9689 	-0.393597 	-8.44019e-22 5.9593 	-0.394383 	-7.60205e-21 5.94992 	-0.395824 	-2.25187e-21 5.94011 	-0.397102 	1.42501e-21 5.92996 	-0.398261 	3.88533e-21 5.92005 	-0.399188 	1.03963e-20 5.91025 	-0.399989 	1.91032e-20 5.90069 	-0.401436 	3.35469e-20 5.89106 	-0.402883 	4.79921e-20 5.88087 	-0.40403 	4.86017e-20 5.87094 	-0.40487 	3.62621e-20 5.86097 	-0.40571 	2.39219e-20 5.85123 	-0.407187 	2.53502e-20 5.84142 	-0.408663 	2.67814e-20 5.83174 	-0.40984 	2.16747e-20 5.82164 	-0.41072 	1.01785e-20 5.81149 	-0.4116 	-1.31829e-21 5.80157 	-0.41311 	-1.97386e-20 5.79171 	-0.414525 	-3.40941e-20 5.78211 	-0.415693 	-3.78754e-20 5.77214 	-0.416732 	-3.23326e-20 5.7618 	-0.417642 	-1.74014e-20 5.7517 	-0.419178 	6.04313e-21 5.7419 	-0.420428 	6.58037e-21 5.73211 	-0.421621 	2.75772e-21 5.72226 	