/*--------------------------------*- C++ -*----------------------------------*\
  =========                 |
  \\      /  F ield         | OpenFOAM: The Open Source CFD Toolbox
   \\    /   O peration     | Website:  https://openfoam.org
    \\  /    A nd           | Version:  8
     \\/     M anipulation  |
\*---------------------------------------------------------------------------*/
FoamFile
{
    version     2.0;
    format      ascii;
    class       volScalarField;
    location    "190";
    object      epsilon;
}
// * * * * * * * * * * * * * * * * * * * * * * * * * * * * * * * * * * * * * //

dimensions      [0 2 -3 0 0 0 0];

internalField   nonuniform List<scalar> 
12225
(
285.522
270.707
257.914
243.814
232.458
223.091
216.805
212.7
212.742
213.965
217.235
220.915
228.086
232.773
241.462
246.152
256.043
257.894
52.4918
91.8847
106.972
114.751
124.842
136.787
152.692
169.906
191.129
210.935
235.274
255.494
281.145
299.375
324.894
339.643
363.863
379.413
20.5283
34.8731
44.6751
50.4696
55.3959
59.6077
64.6658
69.6415
76.3245
83.1822
91.4539
99.3209
108.206
116.955
125.602
135.367
142.621
154.163
16.0023
19.4864
24.0816
27.5635
30.4971
32.869
35.1566
37.2925
39.5051
41.9171
44.3412
47.2041
49.6889
53.0482
55.4249
59.2704
61.4143
65.7358
15.0385
15.7124
17.3992
19.0783
20.6396
22.0257
23.2467
24.4308
25.445
26.5947
27.5247
28.7592
29.6344
30.989
31.8167
33.2801
34.0568
35.6821
14.7897
14.8256
15.2495
15.8675
16.5678
17.2869
17.924
18.5841
19.1194
19.7342
20.1937
20.7996
21.2093
21.8242
22.1994
22.8323
23.1658
23.8747
14.7658
14.6146
14.641
14.7257
14.9352
15.2199
15.4917
15.8089
16.071
16.3827
16.6183
16.9206
17.1313
17.4278
17.6164
17.9156
18.0732
18.4145
14.7687
14.5866
14.466
14.3801
14.3678
14.3896
14.4394
14.5334
14.6185
14.7367
14.8309
14.9566
15.0478
15.1766
15.2611
15.3939
15.4635
15.6248
14.768
14.591
14.4349
14.2963
14.185
14.1044
14.0399
14.0066
13.9814
13.9785
13.9809
13.9918
14.0037
14.03
14.0463
14.0814
14.0972
14.1521
14.7665
14.594
14.432
14.282
14.143
14.0219
13.9115
13.8194
13.737
13.6698
13.6102
13.5633
13.5181
13.4872
13.4516
13.4344
13.4019
13.4013
14.7659
14.5945
14.4322
14.2803
14.1362
14.0032
13.8782
13.7644
13.6582
13.5629
13.4735
13.3952
13.3198
13.2561
13.1915
13.1408
13.0838
13.0452
14.7657
14.5943
14.4321
14.2798
14.1353
13.9999
13.8715
13.7518
13.6385
13.5336
13.4341
13.343
13.2557
13.1771
13.1002
13.0328
12.9647
12.9074
14.7657
14.5941
14.432
14.2794
14.135
13.9989
13.8699
13.7485
13.6332
13.5249
13.4219
13.3257
13.2338
13.1483
13.0662
12.9906
12.9172
12.8502
14.7657
14.5939
14.4318
14.279
14.1346
13.9983
13.8692
13.7472
13.6315
13.5223
13.4184
13.3203
13.227
13.1389
13.055
12.9759
12.9002
12.8291
14.7657
14.5938
14.4317
14.2787
14.1342
13.9977
13.8686
13.7464
13.6307
13.5211
13.4171
13.3185
13.2249
13.136
13.0516
12.9715
12.8952
12.8228
14.7657
14.5937
14.4316
14.2785
14.1339
13.9973
13.8681
13.7458
13.63
13.5202
13.4161
13.3174
13.2237
13.1346
13.0501
12.9697
12.8932
12.8205
14.7657
14.5937
14.4315
14.2783
14.1337
13.997
13.8677
13.7453
13.6294
13.5195
13.4154
13.3166
13.2227
13.1336
13.0489
12.9685
12.8919
12.8191
14.7657
14.5937
14.4314
14.2782
14.1335
13.9968
13.8674
13.745
13.629
13.5191
13.4148
13.316
13.2221
13.1329
13.0481
12.9676
12.8909
12.818
14.7657
14.5937
14.4314
14.2782
14.1335
13.9967
13.8673
13.7448
13.6288
13.5189
13.4146
13.3157
13.2217
13.1325
13.0477
12.9671
12.8904
12.8175
14.7657
14.5937
14.4314
14.2782
14.1336
13.9968
13.8674
13.745
13.629
13.5191
13.4148
13.3159
13.222
13.1328
13.048
12.9674
12.8907
12.8178
14.7657
14.5937
14.4315
14.2784
14.1338
13.997
13.8677
13.7453
13.6294
13.5196
13.4155
13.3166
13.2229
13.1339
13.0494
12.969
12.8927
12.82
14.7657
14.5937
14.4316
14.2785
14.1341
13.9974
13.8685
13.7464
13.6312
13.522
13.419
13.3214
13.2293
13.1419
13.0595
12.9811
12.9074
12.8369
14.7659
14.5937
14.4318
14.2788
14.1353
14.0002
13.8742
13.756
13.6463
13.5435
13.4485
13.3592
13.277
13.1993
13.1282
13.0602
12.9988
12.9387
14.7661
14.5928
14.4329
14.2844
14.1515
14.0321
13.9289
13.8375
13.7593
13.6894
13.6307
13.5769
13.5328
13.4905
13.4574
13.423
13.3989
13.3693
14.7641
14.5936
14.461
14.3604
14.3029
14.2767
14.2796
14.294
14.3202
14.3529
14.3959
14.4345
14.4824
14.5217
14.572
14.6089
14.6616
14.6938
14.757
14.6921
14.758
14.9172
15.1828
15.4611
15.7475
16.012
16.2723
16.5038
16.736
16.9386
17.1507
17.3309
17.5309
17.6935
17.8887
18.0359
14.9575
15.4344
16.5693
17.6884
18.7053
19.5677
20.3372
20.9968
21.6194
22.166
22.7188
23.2107
23.7398
24.2042
24.7325
25.1825
25.7248
26.1657
16.2579
20.9389
25.015
27.7588
29.7844
31.3585
32.7766
34.0583
35.3591
36.6161
37.9751
39.2969
40.7612
42.1453
43.7173
45.1731
46.883
48.3577
29.9427
47.225
54.8704
58.6735
61.6138
64.4319
67.5793
70.9787
74.7375
78.7134
82.9844
87.3434
91.904
96.4488
101.098
105.621
110.173
114.574
165.79
160.073
154.899
149.564
144.479
139.678
135.613
132.11
129.27
126.973
125.319
124.044
123.339
122.829
122.825
122.981
123.268
123.825
0.56622
0.576059
1.01279
1.43147
1.87113
2.33416
2.82189
3.32991
3.84928
4.36973
4.88128
5.37564
5.84601
6.28726
6.69525
7.06706
7.4006
7.69528
7.95201
8.17258
8.32535
8.4716
8.64784
8.77926
8.87567
8.95419
8.81216
8.36423
8.56507
8.73203
8.94897
9.1935
40.3607
42.1288
43.9834
41.2147
45.679
48.6996
52.2326
55.9046
59.7255
63.7362
67.9037
72.253
76.7735
81.478
86.3637
91.4402
96.7065
102.172
107.835
113.705
119.78
126.07
132.571
139.294
146.234
153.401
160.789
168.408
176.25
184.326
192.625
201.157
209.911
218.896
228.098
237.525
247.162
257.015
267.07
277.329
287.775
298.411
309.218
320.196
331.322
342.598
353.999
365.522
377.141
388.851
400.624
412.449
424.295
436.147
447.97
459.742
471.423
482.988
494.402
505.661
516.801
527.846
538.671
549.319
559.747
569.947
579.89
589.559
598.929
607.982
616.697
625.057
633.043
640.637
647.825
654.59
660.922
666.806
672.236
677.2
681.694
685.713
689.256
692.319
694.902
697.001
698.608
699.681
700.213
700.787
700.954
700.502
699.493
698.148
696.357
694.284
692.018
689.436
686.622
683.518
680.239
676.778
673.147
669.495
665.7
661.913
658.013
654.304
650.662
647.153
643.975
640.712
637.766
635.056
632.233
629.887
627.728
625.866
624.124
622.158
620.362
618.703
617.112
615.592
613.916
612.13
610.152
607.858
605.254
602.29
598.684
594.76
589.931
588.276
590.185
591.859
592.83
592.964
592.143
590.32
587.544
583.714
578.705
572.441
564.758
555.199
544.412
501.731
2.28069
1.34685
1.34478
1.52065
1.78536
2.11166
2.48667
2.89851
3.33524
3.78598
4.24164
4.69565
5.1435
5.58298
6.01332
6.43565
6.8522
7.26702
7.68479
8.11121
8.55102
9.03516
9.59418
10.2221
10.9327
11.7793
12.9097
14.0844
15.4065
16.6172
17.9186
21.0778
24.3627
25.4618
26.5457
27.5094
29.5304
31.2552
33.0854
34.9683
36.9118
38.9217
40.9969
43.1422
45.3577
47.6467
50.0095
52.4489
54.9651
57.5604
60.235
62.991
65.8281
68.7483
71.7514
74.8387
78.0097
81.2656
84.6055
88.0304
91.5387
95.1314
98.8064
102.564
106.402
110.321
114.316
118.389
122.536
126.755
131.043
135.398
139.816
144.294
148.828
153.415
158.049
162.726
167.441
172.188
176.961
181.754
186.559
191.37
196.177
200.972
205.746
210.49
215.197
219.863
224.49
229.093
233.706
238.355
242.921
247.417
251.831
256.155
260.381
264.501
268.506
272.388
276.14
279.754
283.223
286.539
289.697
292.69
295.513
298.16
300.628
302.912
305.01
306.919
308.638
310.165
311.5
312.642
313.592
314.353
314.947
315.426
315.707
315.779
315.665
315.343
314.907
314.356
313.687
312.895
312.006
311.013
309.943
308.802
307.607
306.377
305.104
303.826
302.538
301.288
300.06
298.889
297.781
296.717
295.778
294.831
294.071
293.284
292.676
292.123
291.563
291.112
290.729
290.423
290.127
289.84
289.547
289.235
288.898
288.479
287.951
287.297
286.445
285.426
284.179
283.294
283.022
282.634
281.903
280.785
279.229
277.222
274.777
271.894
268.558
264.8
260.594
256.137
252.193
245.268
4.45042
2.24688
1.9902
2.04591
2.22845
2.49276
2.8183
3.19124
3.59952
4.03256
4.48166
4.94067
5.40589
5.87613
6.35223
6.83719
7.33584
7.85539
8.40512
8.99727
9.64668
10.3562
11.1201
11.9452
12.8291
13.769
14.7561
15.8115
16.8965
18.0305
19.3021
20.7898
22.1739
23.3787
24.6384
25.926
27.3787
28.8465
30.3655
31.9369
33.5619
35.2418
36.977
38.7689
40.618
42.5255
44.4919
46.5184
48.6055
50.7541
52.9646
55.2379
57.5742
59.9742
62.438
64.9662
67.5586
70.2157
72.9371
75.7229
78.5726
81.4861
84.4626
87.5016
90.6022
93.7636
96.9844
100.264
103.6
106.991
110.435
113.931
117.476
121.068
124.704
128.38
132.095
135.844
139.625
143.432
147.263
151.112
154.975
158.847
162.724
166.6
170.471
174.332
178.181
182.017
185.841
189.654
193.461
197.244
200.979
204.66
208.281
211.834
215.314
218.713
222.024
225.24
228.356
231.364
234.258
237.033
239.682
242.201
244.585
246.829
248.929
250.883
252.687
254.339
255.837
257.182
258.371
259.407
260.29
261.027
261.624
262.09
262.41
262.584
262.587
262.41
262.148
261.786
261.322
260.759
260.108
259.373
258.568
257.701
256.783
255.825
254.833
253.824
252.805
251.796
250.8
249.832
248.896
247.996
247.148
246.333
245.588
244.878
244.239
243.646
243.085
242.574
242.107
241.675
241.259
240.851
240.435
239.998
239.52
238.984
238.349
237.597
236.696
235.638
234.412
233.186
232.042
230.758
229.219
227.387
225.238
222.768
219.986
216.905
213.538
209.931
206.125
202.335
199.014
195.728
6.69979
3.2036
2.69656
2.65692
2.78847
3.01786
3.31647
3.6688
4.06348
4.49119
4.9443
5.41722
5.90646
6.41073
6.93064
7.46867
8.02868
8.61606
9.237
9.89812
10.6049
11.3598
12.1625
13.0112
13.9012
14.8285
15.7807
16.7518
17.7492
18.7899
19.8958
21.0617
22.2553
23.4772
24.7467
26.0685
27.4455
28.8624
30.3202
31.8254
33.38
34.9855
36.643
38.3534
40.1176
41.9364
43.8106
45.7411
47.7285
49.7735
51.8765
54.0383
56.2593
58.54
60.8809
63.2823
65.7445
68.2677
70.852
73.4975
76.2041
78.9716
81.7997
84.688
87.636
90.6429
93.7081
96.8304
100.009
103.242
106.528
109.867
113.254
116.69
120.171
123.696
127.261
130.863
134.5
138.167
141.863
145.582
149.322
153.078
156.846
160.622
164.402
168.183
171.962
175.736
179.503
183.26
187.001
190.712
194.382
198.005
201.574
205.082
208.522
211.886
215.169
218.363
221.461
224.457
227.345
230.118
232.77
235.296
237.691
239.95
242.069
244.044
245.873
247.552
249.081
250.458
251.683
252.755
253.678
254.454
255.087
255.581
255.934
256.144
256.179
256.046
255.812
255.471
255.024
254.475
253.831
253.099
252.288
251.407
250.467
249.475
248.441
247.377
246.293
245.201
244.109
243.025
241.956
240.908
239.888
238.895
237.94
237.018
236.137
235.29
234.471
233.684
232.922
232.182
231.451
230.721
229.978
229.209
228.392
227.51
226.52
225.411
224.164
222.764
221.212
219.564
217.843
215.961
213.856
211.501
208.883
206.003
202.874
199.509
195.937
192.207
188.386
184.68
181.382
178.655
8.86775
4.15365
3.40048
3.27295
3.35682
3.55663
3.83407
4.17054
4.55426
4.97646
5.43016
5.91012
6.41272
6.93611
7.4799
8.04514
8.63385
9.24901
9.89395
10.5722
11.2868
12.0398
12.8313
13.6597
14.5211
15.4094
16.3268
17.2812
18.2721
19.3075
20.3959
21.5383
22.7298
23.9559
25.2227
26.5319
27.8909
29.2957
30.7485
32.2501
33.8012
35.4032
37.0571
38.7639
40.5247
42.3405
44.2121
46.1408
48.1276
50.1733
52.2782
54.4431
56.6686
58.9556
61.3046
63.7163
66.1912
68.7298
71.3323
73.9993
76.7307
79.5268
82.3875
85.3127
88.3022
91.3555
94.4721
97.6513
100.892
104.194
107.555
110.974
114.45
117.98
121.563
125.195
128.876
132.602
136.37
140.177
144.019
147.894
151.796
155.723
159.671
163.635
167.61
171.594
175.581
179.567
183.547
187.514
191.46
195.376
199.255
203.088
206.868
210.589
214.242
217.82
221.315
224.72
228.027
231.229
234.319
237.29
240.136
242.849
245.425
247.857
250.142
252.275
254.253
256.072
257.73
259.226
260.559
261.728
262.736
263.585
264.277
264.816
265.203
265.429
265.471
265.34
265.086
264.709
264.209
263.593
262.866
262.036
261.112
260.102
259.016
257.864
256.654
255.398
254.105
252.786
251.45
250.104
248.757
247.412
246.079
244.759
243.46
242.18
240.926
239.693
238.481
237.287
236.109
234.943
233.78
232.612
231.429
230.215
228.952
227.63
226.21
224.681
223.026
221.231
219.292
217.23
215.045
212.693
210.138
207.362
204.356
201.122
197.661
194.005
190.188
186.264
182.307
178.497
175.034
172.142
10.8931
5.05976
4.071
3.85905
3.89689
4.06824
4.32515
4.64537
5.01601
5.4283
5.8756
6.3529
6.85652
7.38421
7.93484
8.50846
9.10589
9.72872
10.3789
11.0586
11.7702
12.5156
13.2963
14.1131
14.9656
15.8534
16.7771
17.739
18.7411
19.7868
20.8793
22.0196
23.2064
24.4373
25.7129
27.0345
28.4038
29.8216
31.289
32.8071
34.3768
35.9995
37.6763
39.4085
41.1971
43.0435
44.9486
46.9137
48.9395
51.0274
53.1785
55.3942
57.6754
60.0233
62.4387
64.9228
67.4763
70.1001
72.7948
75.5612
78.3998
81.311
84.295
87.3522
90.4824
93.6856
96.9615
100.31
103.729
107.219
110.779
114.407
118.101
121.861
125.683
129.565
133.506
137.501
141.549
145.645
149.786
153.969
158.188
162.44
166.721
171.025
175.347
179.682
184.025
188.369
192.709
197.035
201.34
205.616
209.854
214.047
218.187
222.264
226.272
230.2
234.041
237.787
241.428
244.957
248.365
251.644
254.787
257.787
260.637
263.33
265.862
268.226
270.419
272.437
274.277
275.938
277.417
278.715
279.832
280.769
281.53
282.117
282.534
282.759
282.79
282.632
282.328
281.876
281.279
280.543
279.675
278.683
277.576
276.363
275.052
273.655
272.182
270.641
269.046
267.404
265.726
264.019
262.292
260.551
258.804
257.056
255.312
253.576
251.851
250.137
248.436
246.745
245.063
243.386
241.71
240.027
238.327
236.597
234.822
232.987
231.073
229.064
226.944
224.701
222.329
219.829
217.194
214.399
211.421
208.246
204.869
201.292
197.532
193.611
189.561
185.437
181.313
177.342
173.663
170.438
12.7264
5.89438
4.68522
4.39127
4.38463
4.52689
4.76229
5.06454
5.41931
5.81747
6.25252
6.71969
7.21542
7.73736
8.28415
8.8554
9.45142
10.0732
10.7222
11.4
12.1088
12.8503
13.6266
14.4391
15.2891
16.1775
17.1051
18.0734
19.0837
20.1379
21.2376
22.3838
23.5769
24.8171
26.1051
27.4419
28.8287
30.2668
31.7574
33.3018
34.9013
36.5572
38.271
40.0441
41.8779
43.774
45.7337
47.7586
49.85
52.0096
54.2389
56.5394
58.9126
61.36
63.8829
66.4827
69.1607
71.9181
74.756
77.6755
80.6774
83.7625
86.9315
90.1848
93.5228
96.9455
100.453
104.045
107.72
111.479
115.319
119.241
123.241
127.319
131.472
135.698
139.993
144.355
148.781
153.266
157.806
162.398
167.036
171.716
176.432
181.179
185.95
190.739
195.54
200.345
205.146
209.936
214.704
219.443
224.143
228.796
233.392
237.921
242.375
246.744
251.019
255.188
259.244
263.177
266.976
270.634
274.141
277.489
280.67
283.677
286.503
289.143
291.59
293.842
295.893
297.743
299.388
300.827
302.062
303.093
303.922
304.552
304.985
305.195
305.193
304.985
304.601
304.039
303.307
302.408
301.352
300.146
298.799
297.322
295.724
294.015
292.207
290.31
288.335
286.292
284.192
282.043
279.854
277.634
275.389
273.128
270.855
268.577
266.298
264.02
261.746
259.477
257.211
254.948
252.683
250.413
248.13
245.823
243.481
241.092
238.641
236.115
233.499
230.782
227.955
225.012
221.942
218.727
215.351
211.802
208.079
204.185
200.134
195.948
191.661
187.324
183.007
178.839
174.912
171.314
14.3317
6.63707
5.22678
4.85132
4.80353
4.91672
5.12973
5.41263
5.74954
6.13088
6.55017
7.00284
7.48558
7.99618
8.53329
9.09643
9.68573
10.302
10.9463
11.6203
12.3256
13.064
13.8375
14.6478
15.4964
16.3846
17.3137
18.2848
19.2994
20.3587
21.4643
22.6174
23.819
25.0701
26.3718
27.7254
29.1324
30.5941
32.1122
33.6881
35.3234
37.0199
38.7791
40.603
42.4932
44.4517
46.4802
48.5808
50.7553
53.0057
55.3341
57.7423
60.2323
62.806
65.4654
68.2122
71.0482
73.9751
76.9943
80.1075
83.3158
86.6205
90.0225
93.5226
97.1214
100.819
104.616
108.512
112.507
116.6
120.789
125.074
129.453
133.923
138.483
143.129
147.858
152.667
157.552
162.509
167.532
172.617
177.758
182.95
188.185
193.458
198.762
204.087
209.428
214.775
220.119
225.452
230.762
236.041
241.277
246.462
251.585
256.634
261.601
266.473
271.24
275.891
280.415
284.801
289.04
293.12
297.031
300.765
304.311
307.662
310.81
313.748
316.469
318.97
321.244
323.29
325.105
326.688
328.037
329.154
330.041
330.7
331.127
331.302
331.242
330.96
330.464
329.76
328.853
327.751
326.461
324.993
323.357
321.562
319.62
317.541
315.336
313.019
310.599
308.088
305.497
302.836
300.113
297.34
294.525
291.676
288.8
285.905
282.997
280.08
277.159
274.237
271.314
268.394
265.474
262.553
259.627
256.689
253.732
250.745
247.72
244.643
241.505
238.292
234.995
231.603
228.105
224.484
220.727
216.825
212.775
208.582
204.257
199.82
195.305
190.759
186.244
181.868
177.686
173.732
15.6865
7.27394
5.6853
5.23378
5.14632
5.23077
5.42106
5.68396
6.00216
6.36552
6.76752
7.20378
7.67121
8.16781
8.69237
9.24443
9.82408
10.4319
11.069
11.7368
12.4367
13.1705
13.9401
14.7471
15.5932
16.4803
17.4088
18.3803
19.3963
20.4582
21.5682
22.7277
23.938
25.2005
26.5166
27.888
29.3166
30.8042
32.3527
33.9641
35.6402
37.3832
39.1951
41.0781
43.0344
45.0665
47.1765
49.367
51.6404
53.9992
56.4458
58.9828
61.6128
64.338
67.1611
70.0842
73.1098
76.24
79.4768
82.8222
86.2778
89.8453
93.526
97.321
101.231
105.257
109.399
113.657
118.03
122.518
127.12
131.833
136.657
141.589
146.625
151.763
156.999
162.328
167.746
173.248
178.828
184.481
190.199
195.976
201.804
207.675
213.581
219.513
225.462
231.417
237.37
243.308
249.221
255.098
260.928
266.698
272.398
278.015
283.538
288.955
294.253
299.42
304.444
309.313
314.016
318.54
322.875
327.01
330.935
334.639
338.116
341.355
344.351
347.098
349.591
351.825
353.798
355.509
356.957
358.142
359.064
359.728
360.122
360.241
360.097
359.699
359.055
358.169
357.048
355.7
354.133
352.357
350.383
348.221
345.882
343.379
340.723
337.928
335.005
331.967
328.824
325.588
322.27
318.881
315.43
311.928
308.383
304.804
301.2
297.576
293.941
290.299
286.656
283.015
279.379
275.75
272.128
268.51
264.893
261.269
257.634
253.978
250.29
246.562
242.78
238.934
235.009
230.991
226.867
222.628
218.27
213.795
209.214
204.545
199.816
195.071
190.364
185.784
181.357
177.081
16.7802
7.79843
6.05747
5.53732
5.41231
5.469
5.63685
5.87984
6.17932
6.52464
6.90918
7.32864
7.78012
8.26181
8.77267
9.31236
9.88097
10.4786
11.1064
11.7657
12.4581
13.1853
13.9489
14.7509
15.5929
16.4773
17.4036
18.3741
19.3905
20.454
21.5687
22.7353
23.9554
25.2306
26.5626
27.9529
29.4051
30.9217
32.5048
34.1567
35.8799
37.6769
39.5501
41.5024
43.5365
45.6553
47.8616
50.1585
52.5491
55.0363
57.6234
60.3135
63.1096
66.0149
69.0323
72.1649
75.4154
78.7866
82.2811
85.9013
89.6492
93.527
97.5361
101.678
105.954
110.364
114.91
119.59
124.404
129.352
134.432
139.642
144.979
150.442
156.025
161.726
167.539
173.46
179.483
185.602
191.81
198.099
204.463
210.892
217.377
223.91
230.481
237.078
243.691
250.31
256.922
263.515
270.077
276.594
283.055
289.446
295.755
301.967
308.071
314.052
319.897
325.593
331.127
336.485
341.655
346.623
351.378
355.907
360.2
364.246
368.036
371.56
374.811
377.782
380.468
382.864
384.968
386.777
388.291
389.51
390.433
391.064
391.391
391.419
391.15
390.594
389.758
388.647
387.268
385.629
383.739
381.608
379.248
376.669
373.884
370.907
367.749
364.424
360.945
357.325
353.577
349.711
345.742
341.68
337.536
333.323
329.051
324.73
320.371
315.983
311.576
307.158
302.737
298.322
293.918
289.532
285.167
280.825
276.507
272.21
267.933
263.668
259.409
255.147
250.869
246.562
242.212
237.803
233.323
228.761
224.112
219.376
214.559
209.677
204.754
199.826
194.94
190.169
185.518
180.962
17.614
8.2099
6.34478
5.76498
5.60547
5.63608
5.7824
6.00612
6.28751
6.61542
6.9831
7.3863
7.82223
8.28892
8.78573
9.31285
9.87124
10.4595
11.0788
11.7303
12.4157
13.1363
13.894
14.6905
15.5276
16.407
17.3303
18.2998
19.3174
20.3852
21.5051
22.6794
23.9102
25.1994
26.5492
27.9618
29.443
30.9947
32.6197
34.3209
36.1014
37.964
39.9121
41.9488
44.0776
46.3019
48.6254
51.0517
53.5845
56.2277
58.985
61.8602
64.8572
67.9796
71.2311
74.6153
78.1357
81.7955
85.5977
89.5453
93.6407
97.8863
102.284
106.835
111.541
116.402
121.419
126.592
131.918
137.399
143.03
148.81
154.736
160.804
167.01
173.348
179.813
186.399
193.098
199.903
206.807
213.799
220.872
228.014
235.215
242.465
249.751
257.062
264.384
271.706
279.014
286.294
293.532
300.713
307.824
314.85
321.777
328.589
335.274
341.816
348.2
354.413
360.44
366.267
371.88
377.265
382.41
387.301
391.927
396.278
400.341
404.108
407.57
410.721
413.554
416.065
418.251
420.109
421.639
422.841
423.715
424.262
424.477
424.363
423.916
423.149
422.07
420.683
418.996
417.015
414.752
412.217
409.421
406.376
403.096
399.594
395.884
391.98
387.896
383.646
379.242
374.699
370.028
365.244
360.359
355.386
350.337
345.226
340.063
334.863
329.636
324.396
319.152
313.917
308.702
303.517
298.369
293.266
288.212
283.211
278.263
273.366
268.515
263.703
258.917
254.146
249.372
244.579
239.753
234.884
229.963
224.985
219.956
214.883
209.788
204.7
199.656
194.715
189.87
185.081
18.1993
8.51259
6.55233
5.92297
5.73281
5.7397
5.86594
6.07152
6.33589
6.64748
6.99935
7.38774
7.81098
8.26565
8.75095
9.26636
9.81129
10.3869
10.9945
11.6355
12.3112
13.0234
13.7738
14.5643
15.3969
16.2737
17.1969
18.1687
19.1914
20.2674
21.399
22.589
23.8404
25.1552
26.5355
27.9835
29.5045
31.103
32.783
34.5488
36.4042
38.3526
40.3976
42.5433
44.7937
47.1532
49.626
52.2166
54.9295
57.7692
60.7403
63.8472
67.0946
70.4868
74.0281
77.7227
81.5746
85.5875
89.765
94.11
98.6256
103.314
108.177
113.217
118.434
123.828
129.401
135.15
141.074
147.172
153.44
159.876
166.474
173.231
180.14
187.195
194.388
201.713
209.16
216.721
224.384
232.141
239.978
247.886
255.851
263.859
271.899
279.955
288.013
296.06
304.079
312.056
319.974
327.817
335.571
343.219
350.746
358.135
365.372
372.44
379.325
386.011
392.484
398.727
404.728
410.472
415.945
421.135
426.029
430.615
434.883
438.823
442.426
445.685
448.594
451.148
453.344
455.18
456.656
457.772
458.528
458.925
458.962
458.642
457.948
456.907
455.524
453.801
451.747
449.369
446.676
443.682
440.396
436.834
433.007
428.931
424.621
420.09
415.354
410.428
405.325
400.059
394.646
389.098
383.43
377.657
371.792
365.85
359.846
353.796
347.713
341.612
335.511
329.422
323.362
317.345
311.384
305.491
299.675
293.945
288.304
282.756
277.298
271.925
266.627
261.389
256.195
251.027
245.87
240.711
235.537
230.343
225.125
219.89
214.65
209.429
204.255
199.175
194.17
189.2
18.562
8.71886
6.6891
6.02021
5.80309
5.78984
5.89771
6.08659
6.33582
6.63473
6.97416
7.34969
7.75766
8.19737
8.66846
9.17086
9.70506
10.2717
10.8716
11.5061
12.1767
12.8853
13.6337
14.4241
15.2585
16.1396
17.0699
18.0522
19.0899
20.1848
21.3396
22.5575
23.8416
25.1916
26.6139
28.114
29.6972
31.368
33.131
34.9906
36.9524
39.021
41.2007
43.4963
45.9127
48.4551
51.1288
53.9392
56.8913
59.9907
63.2426
66.6521
70.2246
73.9649
77.878
81.9685
86.2407
90.6987
95.346
100.186
105.221
110.454
115.886
121.519
127.352
133.385
139.618
146.048
152.674
159.491
166.496
173.684
181.05
188.586
196.285
204.139
212.139
220.275
228.537
236.914
245.393
253.961
262.606
271.314
280.07
288.859
297.666
306.474
315.267
324.03
332.746
341.397
349.965
358.435
366.789
375.009
383.079
390.983
398.704
406.226
413.532
420.609
427.439
434.009
440.304
446.309
452.012
457.399
462.458
467.178
471.547
475.557
479.198
482.464
485.347
487.845
489.954
491.672
493
493.939
494.489
494.652
494.432
493.808
492.793
491.405
489.644
487.516
485.026
482.184
479
475.486
471.654
467.518
463.092
458.392
453.432
448.229
442.797
437.153
431.31
425.284
419.091
412.744
406.261
399.655
392.943
386.142
379.269
372.34
365.375
358.39
351.405
344.44
337.512
330.642
323.848
317.146
310.551
304.076
297.731
291.521
285.449
279.512
273.701
268.003
262.399
256.87
251.4
245.973
240.573
235.19
229.815
224.449
219.098
213.779
208.509
203.326
198.204
193.105
18.6896
8.82693
6.75988
6.06439
5.82556
5.79585
5.88993
6.06624
6.30271
6.58621
6.91093
7.27298
7.67017
8.10083
8.56421
9.06027
9.58944
10.1525
10.7504
11.3848
12.0574
12.7705
13.5267
14.3278
15.176
16.0745
17.0261
18.0339
19.1006
20.2271
21.4191
22.6813
24.0182
25.4347
26.9357
28.5266
30.2131
32.0004
33.8943
35.9005
38.0253
40.2743
42.653
45.1676
47.8242
50.6292
53.5888
56.7091
59.9963
63.4563
67.0949
70.918
74.9311
79.1396
83.5486
88.1628
92.9863
98.0232
103.277
108.749
114.443
120.36
126.5
132.863
139.449
146.256
153.281
160.52
167.971
175.627
183.482
191.53
199.762
208.17
216.745
225.475
234.35
243.358
252.485
261.718
271.044
280.447
289.911
299.422
308.961
318.514
328.061
337.585
347.068
356.493
365.842
375.096
384.237
393.245
402.104
410.795
419.302
427.606
435.691
443.541
451.141
458.475
465.527
472.284
478.73
484.854
490.642
496.082
501.161
505.87
510.199
514.138
517.679
520.816
523.542
525.855
527.751
529.23
530.291
530.939
531.174
531.001
530.403
529.381
527.956
526.131
523.908
521.292
518.291
514.912
511.167
507.067
502.626
497.859
492.779
487.404
481.747
475.826
469.657
463.256
456.638
449.819
442.815
435.642
428.316
420.854
413.274
405.594
397.832
390.01
382.146
374.264
366.384
358.529
350.725
342.994
335.359
327.842
320.463
313.241
306.189
299.32
292.639
286.145
279.833
273.69
267.696
261.83
256.074
250.409
244.816
239.279
233.785
228.328
222.906
217.529
212.206
206.965
201.773
196.605
18.6525
8.84677
6.77248
6.06376
5.81248
5.77146
5.85167
6.0142
6.23852
6.51328
6.83119
7.18801
7.58128
8.00971
8.47281
8.97091
9.50507
10.0756
10.6836
11.3311
12.0202
12.7531
13.5322
14.3576
15.2345
16.167
17.159
18.2149
19.3391
20.5363
21.8109
23.1685
24.6147
26.1556
27.7972
29.546
31.4085
33.3915
35.5017
37.7462
40.1323
42.6667
45.3567
48.2099
51.234
54.437
57.8262
61.408
65.1888
69.1749
73.3722
77.7863
82.4226
87.2862
92.3815
97.7124
103.282
109.094
115.148
121.448
127.992
134.781
141.813
149.086
156.597
164.341
172.314
180.51
188.922
197.541
206.361
215.37
224.559
233.916
243.429
253.086
262.871
272.772
282.772
292.857
303.01
313.214
323.452
333.706
343.959
354.191
364.384
374.519
384.576
394.537
404.384
414.097
423.656
433.044
442.242
451.232
459.995
468.517
476.779
484.768
492.467
499.862
506.938
513.683
520.084
526.129
531.805
537.102
542.01
546.52
550.622
554.31
557.575
560.411
562.814
564.781
566.31
567.401
568.052
568.275
568.068
567.415
566.318
564.798
562.854
560.491
557.711
554.518
550.919
546.924
542.544
537.79
532.676
527.217
521.429
515.327
508.928
502.248
495.303
488.11
480.686
473.047
465.208
457.188
449.002
440.668
432.206
423.636
414.979
406.257
397.492
388.709
379.934
371.193
362.515
353.928
345.459
337.136
328.984
321.026
313.284
305.773
298.503
291.476
284.69
278.132
271.781
265.615
259.611
253.749
248.007
242.361
236.795
231.294
225.85
220.465
215.139
209.893
204.686
199.511
18.5153
8.8329
6.75469
6.03455
5.76968
5.71783
5.79081
5.94905
6.17123
6.44594
6.76691
7.1294
7.53096
7.97061
8.4481
8.96359
9.51717
10.1093
10.7432
11.4215
12.1473
12.924
13.7554
14.6455
15.5984
16.6191
17.7127
18.885
20.142
21.4899
22.9352
24.4848
26.1459
27.9262
29.8337
31.8765
34.0628
36.401
38.8992
41.5653
44.4063
47.4315
50.6501
54.0713
57.7047
61.5616
65.6495
69.9734
74.5381
79.3486
84.4093
89.7245
95.2975
101.131
107.228
113.589
120.215
127.105
134.258
141.672
149.343
157.269
165.443
173.861
182.515
191.397
200.5
209.814
219.329
229.034
238.917
248.966
259.167
269.508
279.972
290.546
301.212
311.956
322.76
333.607
344.479
355.359
366.228
377.067
387.858
398.582
409.22
419.752
430.159
440.422
450.522
460.442
470.162
479.664
488.93
497.943
506.686
515.143
523.3
531.142
538.657
545.83
552.649
559.103
565.181
570.873
576.168
581.059
585.536
589.593
593.223
596.42
599.177
601.49
603.354
604.77
605.733
606.25
606.302
605.948
605.096
603.807
602.081
599.92
597.324
594.296
590.838
586.955
582.654
577.943
572.834
567.339
561.471
555.247
548.681
541.789
534.588
527.094
519.324
511.295
503.025
494.529
485.824
476.927
467.856
458.63
449.269
439.795
430.231
420.601
410.93
401.245
391.577
381.954
372.411
362.98
353.693
344.581
335.676
327.007
318.587
310.444
302.598
295.06
287.829
280.895
274.233
267.818
261.626
255.631
249.806
244.123
238.555
233.082
227.688
222.366
217.108
211.92
206.757
201.644
18.2136
8.73139
6.68511
5.97173
5.71176
5.66551
5.74665
5.91548
6.15081
6.44122
6.7795
7.16149
7.58674
8.0552
8.56752
9.12517
9.73054
10.3859
11.0944
11.8598
12.6866
13.5799
14.5453
15.5889
16.7171
17.9368
19.2554
20.681
22.2222
23.8877
25.6868
27.6293
29.7249
31.984
34.4168
37.0338
39.845
42.8606
46.09
49.5424
53.2264
57.151
61.3254
65.758
70.4572
75.431
80.6903
86.2343
92.0632
98.1769
104.575
111.258
118.222
125.466
132.985
140.777
148.836
157.156
165.73
174.551
183.61
192.9
202.41
212.13
222.051
232.159
242.444
252.894
263.495
274.234
285.097
296.071
307.14
318.289
329.503
340.766
352.062
363.375
374.686
385.981
397.24
408.447
419.585
430.635
441.579
452.4
463.081
473.602
483.946
494.095
504.032
513.741
523.204
532.404
541.326
549.953
558.271
566.266
573.925
581.237
588.19
594.774
600.977
606.791
612.206
617.217
621.815
625.993
629.744
633.065
635.953
638.401
640.404
641.964
643.068
643.729
643.928
643.699
642.997
641.833
640.226
638.179
635.696
632.776
629.42
625.629
621.404
616.749
611.671
606.178
600.282
593.994
587.329
580.301
572.926
565.218
557.195
548.872
540.267
531.397
522.278
512.928
503.364
493.601
483.659
473.557
463.317
452.962
442.52
432.013
421.469
410.919
400.395
389.932
379.548
369.291
359.204
349.326
339.694
330.349
321.349
312.699
304.402
296.472
288.911
281.707
274.833
268.26
261.961
255.907
250.067
244.409
238.898
233.509
228.219
223.012
217.876
212.807
207.769
202.803
17.8535
8.60641
6.60227
5.91383
5.6761
5.6521
5.75586
5.94748
6.21002
6.53401
6.91482
7.34989
7.83883
8.38281
8.98413
9.64616
10.3732
11.1702
12.0426
12.997
14.0405
15.1816
16.4294
17.7935
19.2842
20.9125
22.69
24.6291
26.7424
29.0428
31.5432
34.2568
37.1965
40.3751
43.8047
47.4964
51.4607
55.7076
60.2455
65.081
70.2196
75.6669
81.4277
87.5046
93.9001
100.616
107.656
115.006
122.656
130.598
138.82
147.314
156.07
165.076
174.322
183.796
193.487
203.382
213.471
223.741
234.18
244.776
255.516
266.389
277.381
288.48
299.674
310.949
322.293
333.694
345.137
356.61
368.099
379.591
391.07
402.524
413.939
425.299
436.591
447.799
458.908
469.905
480.773
491.497
502.061
512.451
522.652
532.647
542.422
551.959
561.246
570.267
579.009
587.456
595.595
603.412
610.894
618.031
624.811
631.226
637.268
642.927
648.194
653.062
657.527
661.584
665.226
668.447
671.243
673.614
675.562
677.076
678.151
678.805
678.996
678.784
678.114
676.981