/*--------------------------------*- C++ -*----------------------------------*\
  =========                 |
  \\      /  F ield         | OpenFOAM: The Open Source CFD Toolbox
   \\    /   O peration     | Website:  https://openfoam.org
    \\  /    A nd           | Version:  8
     \\/     M anipulation  |
\*---------------------------------------------------------------------------*/
FoamFile
{
    version     2.0;
    format      ascii;
    class       volScalarField;
    location    "190";
    object      k;
}
// * * * * * * * * * * * * * * * * * * * * * * * * * * * * * * * * * * * * * //

dimensions      [0 2 -2 0 0 0 0];

internalField   nonuniform List<scalar> 
12225
(
0.362813
0.343995
0.327742
0.309824
0.295395
0.28349
0.275504
0.270287
0.270342
0.271877
0.276073
0.280672
0.289887
0.295757
0.306693
0.313595
0.322955
0.335996
0.440187
0.468698
0.461605
0.448371
0.45035
0.458313
0.474524
0.498584
0.524386
0.552169
0.580772
0.606228
0.633931
0.653971
0.679935
0.693585
0.717803
0.729323
0.390541
0.417873
0.420231
0.416827
0.411628
0.407804
0.408017
0.410037
0.414553
0.42141
0.430742
0.439725
0.451226
0.46118
0.472941
0.48366
0.493691
0.50641
0.377546
0.386982
0.391407
0.391343
0.390222
0.387897
0.385662
0.384082
0.382882
0.382896
0.38339
0.384326
0.386313
0.388477
0.39094
0.394292
0.396576
0.40112
0.374562
0.37609
0.378412
0.378666
0.378263
0.377206
0.375488
0.373738
0.37201
0.370454
0.369259
0.368106
0.367384
0.366809
0.366449
0.366353
0.366371
0.366743
0.373814
0.37271
0.372645
0.372384
0.37176
0.370817
0.369553
0.368083
0.366571
0.364976
0.363528
0.362062
0.360755
0.35953
0.358397
0.357431
0.356446
0.355796
0.373782
0.371742
0.370386
0.369287
0.368234
0.367114
0.365915
0.364587
0.363238
0.361808
0.360422
0.359023
0.357677
0.356382
0.35512
0.353966
0.352794
0.351805
0.37382
0.37156
0.369634
0.367977
0.366501
0.365108
0.363775
0.362429
0.361107
0.359766
0.35845
0.357143
0.355862
0.354621
0.3534
0.352248
0.351097
0.350051
0.373832
0.371554
0.369449
0.367525
0.365777
0.364154
0.362645
0.361199
0.359817
0.358473
0.357169
0.355902
0.354666
0.353474
0.352306
0.351194
0.350095
0.349071
0.373831
0.37156
0.369418
0.367405
0.365529
0.363773
0.362133
0.360585
0.359122
0.357728
0.356394
0.355117
0.353887
0.352709
0.351568
0.35048
0.349418
0.348419
0.373829
0.37156
0.369413
0.367378
0.365458
0.363645
0.361937
0.360324
0.358798
0.357353
0.355979
0.354672
0.353424
0.352235
0.351093
0.350008
0.348958
0.347968
0.373828
0.371558
0.369409
0.367371
0.365439
0.363609
0.361876
0.360234
0.358677
0.357201
0.3558
0.354468
0.3532
0.351994
0.350842
0.349747
0.348695
0.3477
0.373827
0.371556
0.369405
0.367365
0.36543
0.363594
0.361851
0.360197
0.358626
0.357134
0.355715
0.354367
0.353084
0.351864
0.3507
0.349594
0.348535
0.347531
0.373826
0.371555
0.369401
0.36736
0.365422
0.363583
0.361837
0.360178
0.3586
0.357101
0.355674
0.354317
0.353024
0.351794
0.350622
0.349506
0.34844
0.347427
0.373826
0.371553
0.369398
0.367355
0.365416
0.363575
0.361826
0.360164
0.358584
0.357081
0.355651
0.35429
0.352993
0.351758
0.35058
0.349459
0.348388
0.347369
0.373826
0.371552
0.369396
0.367351
0.36541
0.363568
0.361817
0.360154
0.358572
0.357067
0.355634
0.354271
0.352972
0.351734
0.350554
0.34943
0.348357
0.347334
0.373825
0.371551
0.369394
0.367348
0.365406
0.363562
0.36181
0.360145
0.358562
0.357055
0.355621
0.354256
0.352956
0.351716
0.350535
0.349409
0.348334
0.347309
0.373825
0.371551
0.369393
0.367346
0.365403
0.363558
0.361805
0.360139
0.358555
0.357047
0.355612
0.354246
0.352944
0.351704
0.350521
0.349393
0.348317
0.347291
0.373825
0.37155
0.369393
0.367346
0.365402
0.363557
0.361804
0.360137
0.358552
0.357044
0.355608
0.354241
0.352938
0.351697
0.350514
0.349385
0.348309
0.347282
0.373825
0.371551
0.369393
0.367347
0.365404
0.363559
0.361806
0.36014
0.358555
0.357047
0.355611
0.354245
0.352942
0.351701
0.350518
0.349389
0.348313
0.347286
0.373825
0.371551
0.369395
0.367349
0.365407
0.363563
0.361811
0.360146
0.358562
0.357056
0.355622
0.354256
0.352955
0.351716
0.350535
0.349408
0.348334
0.347308
0.373826
0.371553
0.369397
0.367352
0.365412
0.363571
0.361822
0.360162
0.358584
0.357083
0.355657
0.354299
0.353007
0.351775
0.350603
0.349484
0.348418
0.347399
0.373826
0.371554
0.369399
0.36736
0.365429
0.363603
0.361875
0.36024
0.358691
0.357221
0.355823
0.354494
0.353227
0.352019
0.350866
0.349763
0.348711
0.347701
0.373828
0.371551
0.369412
0.367417
0.365556
0.36382
0.36219
0.360651
0.359189
0.357794
0.356457
0.355172
0.353936
0.352746
0.351601
0.350496
0.349437
0.348411
0.373823
0.371554
0.369605
0.367893
0.366339
0.364892
0.363495
0.362122
0.360761
0.359414
0.358081
0.35677
0.355489
0.354238
0.35303
0.351856
0.350735
0.349646
0.373788
0.371991
0.371113
0.370266
0.36936
0.368312
0.367048
0.36563
0.364121
0.362575
0.361031
0.359523
0.358074
0.356682
0.355382
0.354142
0.35301
0.351924
0.374355
0.375572
0.377775
0.377858
0.377288
0.375886
0.373836
0.371641
0.369505
0.367482
0.365664
0.364084
0.362711
0.361535
0.36061
0.359818
0.359289
0.358801
0.379125
0.394296
0.398249
0.396573
0.392538
0.387603
0.383646
0.380448
0.378268
0.376852
0.376497
0.37674
0.377414
0.378689
0.38044
0.38242
0.384824
0.387135
0.408394
0.42754
0.422415
0.411056
0.402226
0.397923
0.398625
0.400962
0.406068
0.413052
0.420996
0.429824
0.438831
0.448184
0.4573
0.466544
0.475313
0.484172
0.36605
0.353416
0.341988
0.33021
0.318982
0.308381
0.299411
0.291671
0.285404
0.280333
0.276682
0.273866
0.272311
0.271173
0.271209
0.27147
0.272186
0.273387
0.00193077
0.00900335
0.0158261
0.0223537
0.0292114
0.0364377
0.0440523
0.05199
0.0601086
0.0682517
0.0762619
0.0840199
0.0914239
0.0984142
0.104939
0.110983
0.116523
0.121564
0.126086
0.130071
0.133456
0.136278
0.138391
0.139488
0.139392
0.138362
0.135352
0.132492
0.134542
0.137822
0.140233
0.140167
0.133768
0.144427
0.147431
0.147047
0.158102
0.164116
0.172244
0.180016
0.188117
0.196373
0.204785
0.213378
0.222118
0.231035
0.240103
0.249346
0.258743
0.268317
0.278045
0.28795
0.29801
0.308246
0.318636
0.329201
0.339917
0.350804
0.361837
0.373036
0.384375
0.395871
0.407499
0.419275
0.431172
0.443206
0.455346
0.467609
0.479963
0.492424
0.504959
0.517581
0.530258
0.543002
0.555777
0.568595
0.58142
0.594262
0.607085
0.619897
0.632661
0.645381
0.65802
0.67058
0.683021
0.695339
0.707491
0.719469
0.73123
0.742759
0.754027
0.765033
0.775815
0.786422
0.796714
0.806749
0.816486
0.825926
0.835045
0.843833
0.85227
0.860347
0.868046
0.875359
0.882272
0.888775
0.894858
0.900511
0.905728
0.9105
0.914825
0.918695
0.922112
0.925069
0.927573
0.929619
0.931212
0.932347
0.933022
0.933215
0.932987
0.932649
0.931848
0.93041
0.92866
0.926545
0.924075
0.921358
0.91828
0.914914
0.911289
0.907442
0.903399
0.899204
0.894864
0.890419
0.885842
0.881266
0.876629
0.87202
0.867468
0.863072
0.858675
0.85454
0.850442
0.846419
0.842754
0.839022
0.835555
0.83228
0.829216
0.826417
0.823783
0.821264
0.81881
0.816387
0.813972
0.811491
0.808954
0.806269
0.803351
0.8002
0.796726
0.792727
0.788623
0.78433
0.784749
0.785972
0.786726
0.786835
0.786221
0.784752
0.782349
0.779101
0.774837
0.769442
0.762674
0.754192
0.744365
0.705509
0.00782815
0.0250703
0.036133
0.0447721
0.0526909
0.0606006
0.0687434
0.0771478
0.0857292
0.0943618
0.102915
0.111281
0.119377
0.127153
0.134575
0.141638
0.148343
0.154709
0.160752
0.166496
0.171958
0.177134
0.181962
0.186376
0.190323
0.19418
0.199294
0.208224
0.21663
0.224603
0.23336
0.242384
0.252508
0.264422
0.27375
0.29069
0.305151
0.317649
0.330768
0.34427
0.358157
0.372379
0.386919
0.401775
0.41694
0.432418
0.448207
0.464314
0.480736
0.497483
0.514551
0.531948
0.549672
0.567729
0.586117
0.604842
0.623899
0.643293
0.663019
0.68308
0.703468
0.724187
0.745226
0.766587
0.788259
0.81024
0.832517
0.855087
0.877935
0.901057
0.924434
0.948059
0.971914
0.995988
1.02026
1.04472
1.06933
1.0941
1.11898
1.14397
1.16903
1.19415
1.21928
1.24442
1.26951
1.29454
1.31945
1.34422
1.36879
1.39312
1.41715
1.44079
1.46395
1.48662
1.50893
1.53086
1.55238
1.57345
1.59405
1.61413
1.63366
1.65262
1.67096
1.68866
1.70568
1.722
1.73759
1.75242
1.76648
1.77973
1.79216
1.80375
1.81449
1.82437
1.83338
1.84152
1.84878
1.85517
1.86069
1.86535
1.86918
1.87223
1.87454
1.87582
1.87631
1.87613
1.87502
1.87339
1.87112
1.86826
1.86486
1.86097
1.85664
1.85193
1.84689
1.84158
1.83606
1.83038
1.82462
1.81885
1.81316
1.80761
1.80222
1.79707
1.79216
1.78756
1.7833
1.77938
1.77584
1.7727
1.77
1.76769
1.76574
1.76411
1.76277
1.76168
1.76076
1.7599
1.75902
1.75799
1.75667
1.7549
1.75253
1.74936
1.74545
1.74071
1.73544
1.7289
1.7207
1.71068
1.69874
1.68483
1.66887
1.65092
1.63093
1.60889
1.58463
1.55894
1.53281
1.47813
0.0152963
0.0402339
0.0542545
0.0648917
0.0743775
0.0835063
0.0926194
0.10184
0.111167
0.120541
0.129882
0.139114
0.148184
0.15706
0.165736
0.174228
0.182571
0.190817
0.19903
0.207285
0.215654
0.224202
0.232967
0.241991
0.251362
0.261352
0.272363
0.284492
0.296878
0.309564
0.322789
0.336602
0.351127
0.366308
0.381963
0.399175
0.416062
0.432909
0.450067
0.46761
0.485548
0.503879
0.522596
0.541699
0.561185
0.581056
0.601313
0.621959
0.642995
0.664425
0.68625
0.708474
0.731095
0.754118
0.777541
0.801366
0.82559
0.850215
0.875236
0.900651
0.926457
0.952648
0.979219
1.00616
1.03347
1.06114
1.08916
1.11751
1.14619
1.17518
1.20446
1.23403
1.26387
1.29395
1.32426
1.35477
1.38548
1.41634
1.44734
1.47845
1.50964
1.54089
1.57216
1.60341
1.63463
1.66576
1.69676
1.72761
1.75825
1.78866
1.81878
1.84857
1.878
1.90704
1.93567
1.96384
1.99152
2.01866
2.04521
2.07113
2.09638
2.12091
2.14469
2.16766
2.18978
2.21103
2.23136
2.25073
2.26912
2.2865
2.30283
2.31811
2.3323
2.34539
2.35738
2.36825
2.37799
2.38663
2.39414
2.40056
2.4059
2.41019
2.41346
2.41569
2.4167
2.41677
2.41577
2.41397
2.41135
2.40794
2.40381
2.39901
2.3936
2.38765
2.38123
2.37441
2.36727
2.35987
2.3523
2.34465
2.33702
2.32947
2.32207
2.31484
2.30787
2.30122
2.29487
2.28892
2.28335
2.2782
2.27347
2.26913
2.26516
2.26152
2.25818
2.25507
2.25209
2.24913
2.24606
2.24274
2.23898
2.23459
2.2294
2.22318
2.21582
2.20732
2.19747
2.18592
2.17241
2.15679
2.13899
2.11895
2.09666
2.07215
2.04549
2.01683
1.98628
1.95486
1.92311
1.87473
0.0230455
0.0540843
0.0708775
0.0833027
0.0941004
0.104247
0.114184
0.124116
0.134112
0.144171
0.154258
0.164332
0.17436
0.184329
0.194247
0.204144
0.21407
0.224089
0.234276
0.244707
0.255449
0.266557
0.278072
0.290036
0.302509
0.315596
0.329406
0.343938
0.359016
0.37461
0.390765
0.407511
0.424852
0.442762
0.461215
0.480267
0.499629
0.519304
0.539345
0.559784
0.580639
0.601918
0.623624
0.645762
0.668332
0.69134
0.714785
0.738673
0.763006
0.787788
0.81302
0.838706
0.864846
0.891444
0.918499
0.946012
0.973981
1.00241
1.03129
1.06061
1.09039
1.12061
1.15126
1.18234
1.21384
1.24575
1.27806
1.31076
1.34383
1.37727
1.41105
1.44516
1.47957
1.51428
1.54926
1.58448
1.61992
1.65555
1.69136
1.7273
1.76335
1.79947
1.83564
1.87181
1.90796
1.94403
1.98
2.01581
2.05144
2.08683
2.12196
2.15676
2.1912
2.22524
2.25882
2.2919
2.32442
2.35634
2.3876
2.41815
2.44794
2.47691
2.50502
2.53221
2.55843
2.58364
2.6078
2.63085
2.65276
2.6735
2.69303
2.71133
2.72836
2.74411
2.75856
2.7717
2.78353
2.79404
2.80323
2.81113
2.81774
2.82309
2.82721
2.83012
2.83163
2.83192
2.83098
2.82902
2.82605
2.82211
2.81727
2.81157
2.80511
2.79793
2.79014
2.7818
2.773
2.76383
2.75437
2.74472
2.73498
2.72522
2.71551
2.70592
2.6965
2.68734
2.67845
2.6699
2.6617
2.65388
2.64645
2.63938
2.63265
2.62624
2.62009
2.61415
2.60829
2.60242
2.59637
2.58999
2.5831
2.57548
2.56693
2.55725
2.54628
2.53395
2.52001
2.50421
2.48634
2.46628
2.44394
2.41931
2.39239
2.36325
2.33202
2.29895
2.26437
2.22937
2.19425
2.14939
0.0305142
0.0667825
0.0861307
0.100249
0.112291
0.123392
0.134091
0.144666
0.155249
0.165897
0.17662
0.187411
0.19826
0.209171
0.22016
0.23126
0.242521
0.254003
0.265773
0.277896
0.290428
0.303416
0.316892
0.330889
0.345438
0.360587
0.376374
0.392806
0.409849
0.427485
0.445708
0.46451
0.483875
0.50378
0.524201
0.545117
0.566476
0.588266
0.610492
0.633167
0.656298
0.679894
0.70396
0.728502
0.753525
0.779033
0.805032
0.831526
0.858518
0.886014
0.914016
0.942529
0.971554
1.00109
1.03115
1.06173
1.09282
1.12443
1.15655
1.18919
1.22233
1.25598
1.29013
1.32476
1.35988
1.39548
1.43153
1.46803
1.50497
1.54233
1.58009
1.61824
1.65675
1.6956
1.73477
1.77424
1.81397
1.85395
1.89413
1.93449
1.975
2.01561
2.0563
2.09703
2.13774
2.17842
2.219
2.25945
2.29972
2.33977
2.37955
2.41901
2.45809
2.49673
2.53489
2.57251
2.60953
2.6459
2.68155
2.71641
2.75045
2.78358
2.81576
2.84693
2.87703
2.906
2.93379
2.96035
2.98563
3.0096
3.0322
3.05341
3.07319
3.09152
3.10838
3.12374
3.13761
3.14996
3.16081
3.17017
3.17804
3.18444
3.18941
3.19298
3.19497
3.19548
3.19459
3.19247
3.18913
3.18461
3.17899
3.17232
3.16469
3.15618
3.14686
3.13683
3.12617
3.11499
3.10336
3.09141
3.07921
3.06686
3.05444
3.04201
3.02967
3.01747
3.00546
2.9937
2.98223
2.97108
2.96025
2.94974
2.93955
2.92964
2.91997
2.91048
2.90107
2.89161
2.88197
2.87197
2.86144
2.85018
2.838
2.82468
2.81006
2.79401
2.7763
2.7567
2.73505
2.71122
2.68514
2.65679
2.62622
2.5935
2.55882
2.52251
2.48502
2.44742
2.40985
2.3663
0.037491
0.0781861
0.0998325
0.115521
0.128737
0.140747
0.152171
0.163345
0.174457
0.185611
0.19686
0.208231
0.219738
0.231401
0.243242
0.255297
0.267612
0.280239
0.293234
0.306652
0.320538
0.334932
0.349861
0.365349
0.381418
0.398088
0.415377
0.433291
0.451823
0.470965
0.490704
0.511027
0.531915
0.553351
0.575318
0.597803
0.620789
0.644271
0.66825
0.69273
0.717715
0.743213
0.769229
0.79577
0.822843
0.850453
0.878608
0.907314
0.936576
0.966399
0.996789
1.02775
1.05929
1.0914
1.1241
1.15738
1.19125
1.2257
1.26074
1.29636
1.33256
1.36933
1.40668
1.44459
1.48305
1.52205
1.56159
1.60165
1.64221
1.68326
1.72479
1.76676
1.80916
1.85197
1.89516
1.9387
1.98256
2.02671
2.07113
2.11577
2.1606
2.20558
2.25067
2.29583
2.34102
2.38618
2.43128
2.47626
2.52108
2.56567
2.61
2.65399
2.69759
2.74074
2.78338
2.82544
2.86687
2.90759
2.94754
2.98666
3.02487
3.06211
3.09832
3.13342
3.16736
3.20006
3.23148
3.26154
3.2902
3.3174
3.34309
3.36723
3.38979
3.41072
3.43001
3.44763
3.46357
3.4778
3.49034
3.50118
3.51033
3.51782
3.52365
3.52787
3.53032
3.53104
3.53019
3.52786
3.52409
3.51892
3.51242
3.50466
3.49573
3.4857
3.47466
3.46271
3.44994
3.43645
3.42235
3.40773
3.3927
3.37735
3.36176
3.34603
3.33024
3.31446
3.29877
3.28321
3.26785
3.25272
3.23784
3.22324
3.20892
3.19484
3.18099
3.16731
3.15372
3.1401
3.12632
3.11224
3.0977
3.08251
3.06649
3.04944
3.03118
3.01154
2.99032
2.9673
2.94233
2.91528
2.88608
2.85473
2.82125
2.78577
2.74849
2.70978
2.67016
2.6306
2.59112
2.54766
0.0438049
0.088179
0.111829
0.12892
0.143207
0.156061
0.168164
0.179898
0.191493
0.20309
0.21478
0.226618
0.238643
0.25089
0.26339
0.276182
0.289307
0.302811
0.316741
0.331142
0.346051
0.361503
0.377519
0.394118
0.411315
0.429121
0.447543
0.466586
0.486249
0.506528
0.527413
0.548896
0.570964
0.593607
0.616814
0.640577
0.66489
0.689752
0.715163
0.741126
0.767648
0.794733
0.82239
0.850626
0.879449
0.908868
0.938889
0.969521
1.00077
1.03265
1.06516
1.0983
1.1321
1.16654
1.20164
1.23739
1.27381
1.31089
1.34863
1.38704
1.4261
1.46582
1.50619
1.54721
1.58886
1.63114
1.67403
1.71751
1.76159
1.80623
1.85141
1.89712
1.94334
1.99002
2.03716
2.08471
2.13265
2.18094
2.22954
2.27842
2.32754
2.37685
2.42631
2.47588
2.5255
2.57513
2.62471
2.6742
2.72352
2.77263
2.82147
2.86996
2.91805
2.96567
3.01275
3.05922
3.10502
3.15007
3.19431
3.23765
3.28002
3.32136
3.36159
3.40062
3.4384
3.47485
3.50989
3.54347
3.57552
3.60597
3.63478
3.66189
3.68725
3.71083
3.73259
3.7525
3.77053
3.78668
3.80093
3.81329
3.82374
3.83231
3.83901
3.84387
3.84675
3.84769
3.84684
3.84426
3.83998
3.83407
3.82659
3.81762
3.80723
3.79552
3.78257
3.76848
3.75335
3.73729
3.7204
3.70279
3.68456
3.66582
3.64667
3.62719
3.60748
3.58764
3.56774
3.54785
3.52804
3.50837
3.48887
3.46958
3.45052
3.4317
3.41308
3.39465
3.37633
3.35806
3.33971
3.32118
3.30232
3.28298
3.26297
3.24212
3.22024
3.19716
3.17266
3.14655
3.11866
3.08888
3.05713
3.02339
2.98768
2.95014
2.91098
2.87057
2.82944
2.78846
2.74751
2.70364
0.0493336
0.0966914
0.122031
0.140325
0.155549
0.169161
0.181883
0.194131
0.206166
0.218158
0.230224
0.242445
0.254882
0.267582
0.280586
0.293936
0.307671
0.321834
0.336462
0.351593
0.36726
0.38349
0.400302
0.417712
0.435732
0.454368
0.473627
0.493511
0.51402
0.535154
0.556909
0.579281
0.602264
0.625852
0.650042
0.67483
0.700214
0.726196
0.752779
0.779968
0.807769
0.836191
0.865241
0.894929
0.925264
0.956257
0.987917
1.02025
1.05328
1.087
1.12143
1.15657
1.19243
1.22902
1.26635
1.30442
1.34323
1.38279
1.42311
1.46417
1.50598
1.54854
1.59183
1.63586
1.68062
1.72609
1.77226
1.81912
1.86665
1.91483
1.96364
2.01306
2.06305
2.11359
2.16466
2.21621
2.26821
2.32062
2.3734
2.42651
2.47991
2.53355
2.58737
2.64133
2.69538
2.74946
2.8035
2.85746
2.91127
2.96486
3.01818
3.07114
3.12368
3.17572
3.22721
3.27805
3.32817
3.37751
3.42598
3.47351
3.52
3.56539
3.60959
3.65252
3.69411
3.73426
3.77291
3.80999
3.84541
3.8791
3.91102
3.94108
3.96925
3.99547
4.01969
4.04189
4.06203
4.0801
4.09606
4.10993
4.12168
4.13133
4.13889
4.14437
4.14766
4.14879
4.1479
4.14501
4.14017
4.13344
4.12489
4.11459
4.10263
4.08908
4.07405
4.05764
4.03994
4.02107
4.00114
3.98026
3.95853
3.93608
3.913
3.88941
3.8654
3.84107
3.81653
3.79185
3.76712
3.74241
3.71779
3.69331
3.669
3.64491
3.62103
3.59737
3.5739
3.55057
3.52731
3.50403
3.48061
3.45693
3.43284
3.40817
3.38273
3.35634
3.32879
3.2999
3.2695
3.23744
3.20365
3.16808
3.13076
3.09179
3.05139
3.00991
2.96785
2.92592
2.88394
2.83961
0.0539992
0.103703
0.130413
0.1497
0.165714
0.17998
0.193248
0.205957
0.218386
0.230729
0.243122
0.255663
0.268429
0.28148
0.294865
0.308628
0.32281
0.337449
0.352579
0.368232
0.384436
0.401214
0.418585
0.436562
0.455155
0.474374
0.494223
0.514706
0.535826
0.557585
0.579982
0.603019
0.626694
0.651008
0.675961
0.701555
0.727792
0.754676
0.782214
0.810413
0.839282
0.868831
0.89907
0.930011
0.961665
0.994046
1.02716
1.06103
1.09567
1.13107
1.16726
1.20425
1.24205
1.28066
1.3201
1.36037
1.40147
1.44342
1.48621
1.52986
1.57434
1.61967
1.66584
1.71284
1.76066
1.80929
1.85872
1.90893
1.95989
2.0116
2.06403
2.11714
2.17091
2.22531
2.28031
2.33585
2.39191
2.44845
2.50541
2.56275
2.62041
2.67836
2.73653
2.79486
2.85331
2.91179
2.97026
3.02865
3.08688
3.1449
3.20262
3.25997
3.31688
3.37327
3.42906
3.48417
3.53853
3.59205
3.64464
3.69624
3.74674
3.79607
3.84414
3.89085
3.93614
3.9799
4.02206
4.06253
4.10123
4.13809
4.17303
4.20599
4.23689
4.26569
4.29233
4.31677
4.33897
4.35891
4.37655
4.39189
4.40491
4.41561
4.42399
4.43006
4.43372
4.43502
4.43404
4.4308
4.42534
4.41773
4.40803
4.39631
4.38267
4.36718
4.34995
4.33106
4.31064
4.28879
4.26563
4.24127
4.21582
4.18941
4.16214
4.13414
4.10552
4.07638
4.04685
4.01701
3.98698
3.95684
3.92668
3.89659
3.86663
3.83686
3.80733
3.77807
3.74909
3.72038
3.69192
3.66364
3.63549
3.60735
3.5791
3.55059
3.52166
3.49211
3.46174
3.43036
3.39779
3.36389
3.32854
3.29168
3.25331
3.21351
3.17247
3.1305
3.08803
3.04567
3.00311
2.95854
0.0577658
0.109243
0.137021
0.157095
0.173749
0.188555
0.202285
0.215391
0.228166
0.240815
0.253485
0.266291
0.279318
0.292636
0.306299
0.320356
0.334848
0.349812
0.365279
0.381278
0.397835
0.41497
0.432702
0.451044
0.470008
0.489603
0.509838
0.530717
0.552248
0.574434
0.59728
0.62079
0.644969
0.669822
0.695353
0.721567
0.748472
0.776076
0.804388
0.83342
0.863183
0.893689
0.924954
0.956989
0.989811
1.02343
1.05787
1.09314
1.12926
1.16623
1.20408
1.24282
1.28246
1.32301
1.36448
1.40688
1.45022
1.49451
1.53974
1.58592
1.63306
1.68114
1.73016
1.78012
1.831
1.88279
1.93548
1.98904
2.04346
2.09871
2.15476
2.21158
2.26914
2.32741
2.38633
2.44587
2.50599
2.56664
2.62776
2.6893
2.75121
2.81342
2.87589
2.93854
3.0013
3.06412
3.12692
3.18963
3.25218
3.31449
3.37649
3.43809
3.49921
3.55978
3.61971
3.67891
3.73731
3.79482
3.85135
3.90681
3.96111
4.01418
4.0659
4.1162
4.16498
4.21215
4.25762
4.30131
4.34311
4.38296
4.42077
4.45646
4.48996
4.52121
4.55014
4.57671
4.60087
4.62258
4.64181
4.65855
4.67276
4.68445
4.69359
4.70018
4.70418
4.70561
4.7045
4.70085
4.69472
4.68617
4.67526
4.66208
4.64669
4.62919
4.60967
4.58823
4.56499
4.54004
4.51352
4.48554
4.45622
4.42568
4.39404
4.36143
4.32798
4.2938
4.25902
4.22376
4.18815
4.15229
4.11631
4.0803
4.04438
4.00863
3.97315
3.93801
3.90325
3.86892
3.83504
3.8016
3.76855
3.73586
3.70341
3.67109
3.63874
3.60617
3.57319
3.5396
3.5052
3.46985
3.4334
3.39575
3.35686
3.31679
3.27567
3.23376
3.19142
3.14912
3.10649
3.06207
0.0606371
0.113387
0.141956
0.162624
0.17977
0.195002
0.209103
0.222534
0.235595
0.248496
0.261395
0.27441
0.287634
0.301144
0.314997
0.329245
0.343931
0.359091
0.374756
0.390955
0.407709
0.425042
0.442971
0.461512
0.480677
0.500481
0.520931
0.542039
0.563813
0.586263
0.609396
0.633221
0.657747
0.682983
0.708938
0.735623
0.763048
0.791226
0.820172
0.849899
0.880424
0.911763
0.943932
0.97695
1.01083
1.0456
1.08127
1.11786
1.15539
1.19387
1.23332
1.27376
1.3152
1.35766
1.40114
1.44566
1.49123
1.53785
1.58553
1.63427
1.68407
1.73492
1.78683
1.83977
1.89374
1.94873
2.00471
2.06165
2.11955
2.17836
2.23806
2.29861
2.35997
2.4221
2.48495
2.54848
2.61263
2.67735
2.74259
2.80827
2.87434
2.94074
3.0074
3.07424
3.1412
3.2082
3.27517
3.34203
3.40869
3.47509
3.54114
3.60675
3.67184
3.73632
3.80011
3.86313
3.92527
3.98646
4.04661
4.10563
4.16341
4.21989
4.27495
4.32851
4.38047
4.43074
4.47922
4.52581
4.57044
4.613
4.65342
4.6916
4.72746
4.76094
4.79196
4.82047
4.84641
4.86974
4.89042
4.90842
4.92372
4.93628
4.9461
4.95316
4.95743
4.9589
4.95763
4.95352
4.94666
4.93713
4.92498
4.91029
4.89313
4.87358
4.85174
4.8277
4.80158
4.7735
4.74356
4.71189
4.67862
4.64386
4.60775
4.57043
4.53202
4.49267
4.45251
4.41168
4.37031
4.32856
4.28657
4.24446
4.20239
4.16047
4.11885
4.07763
4.03692
3.99681
3.95736
3.91861
3.8806
3.84328
3.80662
3.77051
3.73482
3.69937
3.66398
3.62843
3.59253
3.5561
3.51898
3.48101
3.44212
3.40231
3.36165
3.32034
3.27865
3.23694
3.19477
3.15098
0.0626536
0.116251
0.145357
0.166441
0.18394
0.199483
0.213861
0.227538
0.240817
0.253911
0.266979
0.280144
0.293503
0.307135
0.321101
0.335454
0.350237
0.365486
0.381234
0.397508
0.414333
0.431732
0.449724
0.468327
0.487557
0.507431
0.527962
0.549164
0.57105
0.593633
0.616927
0.640944
0.665697
0.6912
0.717468
0.744515
0.772356
0.801011
0.830497
0.860834
0.892042
0.924142
0.957155
0.991101
1.026
1.06188
1.09875
1.13665
1.17558
1.21557
1.25663
1.2988
1.34207
1.38647
1.43201
1.4787
1.52656
1.57558
1.62577
1.67713
1.72967
1.78337
1.83823
1.89423
1.95136
2.0096
2.06893
2.12932
2.19074
2.25315
2.31652
2.38081
2.44596
2.51194
2.57869
2.64615
2.71427
2.78298
2.85223
2.92193
2.99203
3.06245
3.13311
3.20395
3.27487
3.34581
3.41668
3.4874
3.55788
3.62804
3.6978
3.76706
3.83575
3.90376
3.971
4.03741
4.10287
4.16731
4.23064
4.29275
4.35357
4.413
4.47094
4.52731
4.582
4.63492
4.68598
4.73508
4.78212
4.82701
4.86966
4.90997
4.94787
4.98326
5.01609
5.04627
5.07374
5.09847
5.12039
5.13947
5.15567
5.16898
5.17935
5.18677
5.19121
5.19265
5.19116
5.18652
5.17889
5.16834
5.15493
5.13872
5.11977
5.09817
5.074
5.04738
5.01839
4.98716
4.95381
4.91846
4.88123
4.84225
4.80167
4.75961
4.71623
4.67168
4.62609
4.57964
4.53248
4.48477
4.4367
4.38842
4.34011
4.29194
4.24409
4.19671
4.14996
4.10398
4.0589
4.0148
3.97176
3.92982
3.88895
3.84911
3.81018
3.77201
3.73439
3.69714
3.66005
3.6229
3.58551
3.54768
3.50927
3.47023
3.43056
3.39039
3.34988
3.3093
3.26816
3.22555
0.0639039
0.11798
0.147387
0.168726
0.186447
0.202191
0.216751
0.230591
0.244013
0.257232
0.270409
0.283665
0.297098
0.310785
0.324789
0.339165
0.353957
0.369202
0.384935
0.401184
0.417977
0.435337
0.453287
0.47185
0.491044
0.51089
0.531405
0.55261
0.574521
0.597158
0.620536
0.644675
0.669591
0.695302
0.721824
0.749179
0.77739
0.806484
0.836484
0.867415
0.899302
0.932169
0.966041
1.00094
1.0369
1.07394
1.11208
1.15135
1.19177
1.23337
1.27615
1.32015
1.36538
1.41185
1.45958
1.50858
1.55886
1.61043
1.66328
1.71741
1.77282
1.8295
1.88744
1.94662
2.00701
2.06861
2.13136
2.19525
2.26024
2.32628
2.39333
2.46133
2.53025
2.60002
2.67058
2.74186
2.81381
2.88635
2.9594
3.03291
3.10678
3.18094
3.25531
3.32981
3.40435
3.47885
3.55322
3.62737
3.70121
3.77466
3.84763
3.92004
3.99178
4.06277
4.13292
4.20214
4.27034
4.33743
4.40333
4.46794
4.53118
4.59296
4.65318
4.71175
4.76858
4.82358
4.87665
4.92769
4.97661
5.02332
5.06771
5.1097
5.14919
5.1861
5.22034
5.25184
5.28053
5.30634
5.32923
5.34915
5.36605
5.37991
5.39068
5.39833
5.40283
5.40412
5.40233
5.3971
5.38865
5.37706
5.36238
5.34464
5.32392
5.30029
5.27384
5.24466
5.21286
5.17855
5.14184
5.10287
5.06175
5.01863
4.97364
4.92692
4.87864
4.82895
4.77801
4.726
4.6731
4.61949
4.56538
4.51097
4.45646
4.40206
4.348
4.29447
4.2417
4.18986
4.13915
4.08972
4.04169
3.99516
3.95016
3.90668
3.86463
3.82389
3.78427
3.74558
3.70759
3.67009
3.63283
3.59558
3.55813
3.52036
3.4822
3.4437
3.40492
3.36601
3.32648
3.28565
0.0643461
0.118583
0.148172
0.169649
0.187484
0.203329
0.217979
0.2319
0.245393
0.258669
0.271885
0.285162
0.298598
0.312271
0.326245
0.340574
0.355303
0.370472
0.386116
0.402267
0.418955
0.436207
0.454051
0.472512
0.491615
0.511384
0.531843
0.553017
0.57493
0.597605
0.621062
0.645325
0.670415
0.696352
0.723154
0.750837
0.779456
0.809045
0.83963
0.871242
0.903911
0.937665
0.972532
1.00854
1.04572
1.0841
1.1237
1.16456
1.20668
1.25011
1.29485
1.34093
1.38837
1.43717
1.48735
1.53891
1.59187
1.64622
1.70197
1.75909
1.81759
1.87745
1.93864
2.00115
2.06495
2.13
2.19626
2.26371
2.33228
2.40193
2.47261
2.54426
2.61681
2.69021
2.76438
2.83926
2.91477
2.99083
3.06736
3.14429
3.22152
3.29898
3.37658
3.45423
3.53184
3.60932
3.68659
3.76355
3.84011
3.91618
3.99168
4.06651
4.14059
4.21382
4.28612
4.35739
4.42755
4.49653
4.56422
4.63055
4.69544
4.75879
4.82052
4.88054
4.93877
4.99511
5.04948
5.10178
5.15192
5.1998
5.24534
5.28842
5.32897
5.36688
5.40207
5.43446
5.46396
5.4905
5.51404
5.5345
5.55184
5.56601
5.57698
5.58469
5.58911
5.59014
5.58797
5.58205
5.57275
5.5601
5.54413
5.52489
5.50243
5.47683
5.44815
5.41651
5.38199
5.3447
5.30476
5.2623
5.21743
5.1703
5.12105
5.06983
5.01681
4.96214
4.906
4.84859
4.7901
4.73075
4.67076
4.61036
4.54979
4.4893
4.42916
4.36961
4.31092
4.25335
4.19711
4.14235
4.08927
4.03809
3.98893
3.94183
3.89676
3.8536
3.81221
3.77238
3.73389
3.6965
3.65991
3.62381
3.58794
3.5521
3.51613
3.47985
3.44334
3.40669
3.36935
3.33092
0.0642265
0.118386
0.147947
0.16942
0.187255
0.203101
0.21775
0.231665
0.245145
0.2584
0.271588
0.284828
0.298216
0.311829
0.325732
0.339978
0.354613
0.369681
0.385217
0.401255
0.41783
0.434973
0.452715
0.471087
0.490116
0.509833
0.530264
0.551442
0.573398
0.596163
0.619762
0.644224
0.669578
0.695861
0.72308
0.751253
0.780468
0.810758
0.842157
0.874701
0.908429
0.943371
0.979554
1.01701
1.05577
1.09586
1.13732
1.18016
1.22442
1.2701
1.31724
1.36583
1.4159
1.46745
1.5205
1.57503
1.63105
1.68855
1.74753
1.80796
1.86982
1.9331
1.99775
2.06375
2.13107
2.19964
2.26944
2.34041
2.41249
2.48562
2.55975
2.6348
2.71071
2.7874
2.86481
2.94284
3.02142
3.10047
3.1799
3.25962
3.33956
3.41961
3.4997
3.57973
3.6596
3.73924
3.81855
3.89743
3.97581
4.05358
4.13066
4.20697
4.28242
4.35692
4.43038
4.50273
4.57388
4.64375
4.71226
4.77934
4.84491
4.90889
4.9712
5.03175
5.09048
5.1473
5.20212
5.25486
5.30543
5.35374
5.39969
5.4432
5.48417
5.52249
5.55808
5.59084
5.6207
5.64755
5.67135
5.69201
5.70949
5.72373
5.73466
5.74225
5.74646
5.74709
5.7444
5.73774
5.72755
5.71382
5.69659
5.67588
5.65175
5.62425
5.59346
5.55947
5.52237
5.48226
5.43926
5.39349
5.34507
5.29415
5.24086
5.18536
5.12782
5.06842
5.00734
4.94478
4.88095
4.8161
4.75048
4.68435
4.61797
4.55156
4.48538
4.41983
4.35523
4.2919
4.23014
4.17031
4.11272
4.05745
4.00464
3.95441
3.90675
3.86158
3.81877
3.77813
3.73945
3.70246
3.66681
3.63215
3.59813
3.56451
3.53106
3.49769
3.46418
3.43053
3.39615
3.36084
0.0637185
0.117586
0.146962
0.168322
0.186056
0.201802
0.216353
0.230172
0.243556
0.256714
0.269798
0.282929
0.2962
0.30969
0.323461
0.33757
0.352066
0.366993
0.382389
0.398297
0.414753
0.431797
0.449467
0.467802
0.48684
0.506617
0.527174
0.54855
0.570785
0.593931
0.617995
0.643011
0.669017
0.696043
0.724079
0.753223
0.783544
0.815087
0.84789
0.881992
0.917421
0.954213
0.992398
1.03201
1.07308
1.11564
1.15972
1.20535
1.25253
1.30128
1.35159
1.40347
1.45693
1.51196
1.56855
1.6267
1.68638
1.74758
1.81028
1.87444
1.94003
2.00701
2.07535
2.14498
2.21588
2.28797
2.3612
2.43552
2.51086
2.58715
2.66432
2.74229
2.821
2.90037
2.98031
3.06074
3.14159
3.22275
3.30416
3.38571
3.46733
3.54893
3.63041
3.71169
3.79267
3.87328
3.95342
4.03301
4.11196
4.19018
4.26759
4.34412
4.41968
4.49418
4.56756
4.63973
4.71062
4.78016
4.84829
4.91493
4.98001
5.04347
5.10523
5.16522
5.22337
5.27963
5.3339
5.38612
5.43619
5.48405
5.52959
5.57273
5.61338
5.65142
5.68677
5.71933
5.74899
5.77568
5.7993
5.81977
5.83704
5.85103
5.86167
5.86889
5.87267
5.87279
5.86943
5.86195
5.8508
5.83596
5.81746
5.7953
5.76953
5.7402
5.70739
5.67116
5.6316
5.58882
5.54292
5.49402
5.44223
5.38771
5.3306
5.27105
5.20923
5.1453
5.0794
5.0118
4.94274
4.87249
4.80133
4.72954
4.65744
4.58548
4.51396
4.44314
4.37339
4.30506
4.23856
4.17433
4.11238
4.05313
3.99683
3.94361
3.89356
3.84662
3.80269
3.7616
3.72316
3.68706
3.65292
3.62028
3.58875
3.55798
3.5278
3.49763
3.46741
3.43706
3.40599
3.37441
0.0627247
0.116111
0.145072
0.16615
0.183649
0.199185
0.213546
0.227189
0.240411
0.253419
0.266368
0.279374
0.29253
0.305915
0.319594
0.333628
0.348068
0.362967
0.378371
0.394329
0.410884
0.428083
0.445974
0.464613
0.484065
0.504345
0.525497
0.547572
0.570608
0.594621
0.619642
0.645754
0.67302
0.701506
0.731271
0.762364
0.794834
0.828728
0.864085
0.90094
0.93932
0.979254
1.02077
1.06388
1.1086
1.15496
1.20296
1.2526
1.30387
1.35677
1.41129
1.46742
1.52513
1.5844
1.64521
1.70752
1.77131
1.83653
1.90314
1.9711
2.04036
2.11087
2.18258
2.25542
2.32935
2.4043
2.4802
2.55699
2.63461
2.71297
2.79203
2.87169
2.95188
3.03254
3.11357
3.1949
3.27645
3.35815
3.4399
3.52163
3.60325
3.68468
3.76583
3.84664
3.927
4.00685
4.08611
4.16469
4.24251
4.3195
4.39558
4.47068
4.54474
4.61768
4.68941
4.75989
4.82903
4.89679
4.96312