/*--------------------------------*- C++ -*----------------------------------*\
  =========                 |
  \\      /  F ield         | OpenFOAM: The Open Source CFD Toolbox
   \\    /   O peration     | Website:  https://openfoam.org
    \\  /    A nd           | Version:  8
     \\/     M anipulation  |
\*---------------------------------------------------------------------------*/
FoamFile
{
    version     2.0;
    format      ascii;
    class       volScalarField;
    location    "190";
    object      nut;
}
// * * * * * * * * * * * * * * * * * * * * * * * * * * * * * * * * * * * * * //

dimensions      [0 2 -1 0 0 0 0];

internalField   nonuniform List<scalar> 
12225
(
4.14923e-05
3.93411e-05
3.74827e-05
3.54334e-05
3.37834e-05
3.24218e-05
3.15085e-05
3.09118e-05
3.09184e-05
3.10916e-05
3.15764e-05
3.20933e-05
3.31591e-05
3.38205e-05
3.50591e-05
3.59566e-05
3.66617e-05
3.93976e-05
0.000332219
0.000215172
0.000179273
0.000157674
0.000146212
0.000138204
0.000132722
0.000131677
0.000129484
0.000130088
0.000129027
0.000129459
0.000128646
0.000128571
0.000128067
0.000127473
0.000127443
0.000126174
0.000668688
0.000450651
0.000355757
0.00030983
0.000275281
0.000251098
0.000231699
0.000217281
0.000202646
0.000192141
0.000182589
0.000175212
0.000169349
0.000163669
0.000160273
0.000155529
0.000153805
0.000149716
0.000801679
0.00069166
0.000572551
0.00050006
0.000449372
0.000411993
0.000380757
0.000356015
0.000333979
0.000314784
0.000298343
0.00028162
0.00027031
0.000256037
0.000248175
0.000236069
0.000230476
0.000220287
0.000839623
0.000810187
0.000740701
0.00067642
0.00062392
0.000581394
0.00054585
0.000514564
0.000489496
0.000464426
0.000445844
0.000424044
0.000409909
0.000390765
0.000379852
0.00036296
0.000354715
0.000339248
0.000850344
0.000843277
0.000819553
0.00078653
0.000750764
0.00071589
0.000685745
0.000656131
0.000632534
0.000607509
0.000588981
0.000567225
0.000552256
0.000533058
0.000520751
0.000503589
0.000493607
0.000477206
0.000851579
0.000851019
0.0008433
0.000833478
0.000817108
0.000796953
0.000777865
0.000756733
0.000738893
0.000719137
0.000703522
0.000685603
0.000672102
0.000655889
0.000644283
0.000629409
0.0006198
0.000604905
0.000851581
0.000851816
0.000850037
0.000847463
0.0008414
0.00083375
0.000824822
0.000813431
0.000802807
0.000790465
0.000779708
0.000767527
0.000757412
0.000745758
0.000736528
0.000725425
0.000717447
0.000705818
0.000851673
0.000851531
0.000851015
0.000850343
0.000848875
0.00084617
0.000843026
0.000838304
0.000833401
0.000827358
0.000821213
0.000814762
0.000808423
0.000801491
0.00079528
0.0007883
0.000782498
0.000774905
0.000851754
0.000851386
0.000851043
0.000850633
0.000850247
0.000849368
0.000848404
0.00084678
0.000844955
0.000842529
0.000839922
0.000836796
0.000833791
0.000830144
0.000826967
0.000822905
0.000819911
0.000815267
0.000851784
0.000851358
0.000851012
0.000850613
0.000850329
0.000849905
0.000849526
0.000848928
0.000848303
0.000847393
0.000846465
0.000845175
0.000843988
0.000842348
0.000840993
0.000839026
0.000837634
0.000835353
0.000851788
0.000851359
0.000850996
0.000850605
0.000850292
0.000849938
0.000849646
0.00084928
0.000848955
0.000848504
0.000848098
0.000847507
0.000846996
0.000846242
0.000845639
0.000844718
0.000844055
0.000842972
0.000851786
0.000851363
0.000850986
0.000850604
0.000850269
0.000849926
0.00084963
0.000849313
0.000849042
0.000848728
0.000848462
0.000848126
0.000847843
0.000847465
0.000847155
0.000846725
0.000846385
0.000845901
0.000851783
0.000851364
0.000850978
0.000850602
0.000850256
0.000849916
0.000849607
0.0008493
0.000849022
0.00084874
0.000848488
0.000848224
0.000847988
0.000847734
0.000847508
0.000847257
0.000847033
0.000846783
0.000851781
0.000851364
0.000850973
0.000850598
0.000850246
0.000849909
0.000849592
0.000849286
0.000849
0.000848723
0.000848463
0.000848212
0.000847975
0.000847745
0.000847528
0.000847316
0.000847115
0.000846919
0.00085178
0.000851363
0.000850969
0.000850594
0.000850239
0.000849901
0.00084958
0.000849275
0.000848984
0.000848707
0.000848443
0.000848191
0.000847951
0.000847721
0.000847503
0.000847293
0.000847093
0.000846902
0.000851779
0.000851362
0.000850967
0.000850591
0.000850234
0.000849895
0.000849572
0.000849265
0.000848973
0.000848694
0.000848429
0.000848175
0.000847933
0.000847702
0.000847481
0.00084727
0.000847068
0.000846875
0.000851779
0.000851362
0.000850965
0.000850589
0.000850231
0.00084989
0.000849567
0.000849259
0.000848965
0.000848685
0.000848418
0.000848164
0.00084792
0.000847687
0.000847465
0.000847253
0.000847049
0.000846855
0.000851779
0.000851362
0.000850965
0.000850588
0.00085023
0.000849889
0.000849565
0.000849256
0.000848962
0.000848682
0.000848414
0.000848158
0.000847914
0.000847681
0.000847457
0.000847244
0.000847039
0.000846844
0.000851779
0.000851362
0.000850966
0.000850589
0.000850231
0.000849891
0.000849568
0.000849259
0.000848965
0.000848685
0.000848417
0.000848162
0.000847917
0.000847684
0.00084746
0.000847246
0.000847041
0.000846845
0.000851779
0.000851363
0.000850967
0.000850592
0.000850235
0.000849897
0.000849573
0.000849267
0.000848973
0.000848694
0.000848424
0.000848169
0.00084792
0.000847684
0.000847451
0.000847231
0.000847013
0.000846806
0.000851778
0.000851366
0.000850968
0.000850599
0.00085024
0.000849908
0.00084958
0.000849274
0.000848965
0.000848671
0.000848365
0.000848072
0.000847757
0.000847456
0.000847123
0.000846812
0.000846457
0.000846136
0.000851773
0.000851376
0.000850971
0.000850615
0.000850241
0.00084989
0.000849479
0.000849054
0.00084853
0.000847978
0.000847301
0.000846605
0.000845767
0.00084494
0.000843955
0.00084303
0.000841918
0.00084094
0.000851767
0.000851415
0.000850964
0.000850548
0.000849861
0.000848967
0.00084761
0.000845976
0.000843905
0.000841637
0.000838955
0.000836215
0.000833117
0.000830114
0.000826764
0.000823681
0.000820185
0.000817179
0.000851859
0.00085138
0.000850195
0.000848243
0.00084447
0.000839354
0.000832766
0.000825659
0.000817962
0.000810012
0.000801619
0.000793629
0.000785333
0.000777708
0.000769745
0.000762702
0.000755125
0.000748796
0.000852108
0.000847667
0.000839902
0.000827146
0.000808708
0.000789646
0.000769976
0.000751414
0.000733306
0.000716896
0.000700935
0.000686782
0.000672832
0.000660672
0.00064838
0.000637943
0.000626956
0.000618023
0.000843241
0.000822507
0.000775185
0.000726459
0.000684896
0.000649852
0.000618462
0.00059202
0.000568382
0.000548313
0.00052969
0.000513993
0.000498754
0.000486019
0.000473204
0.000462711
0.000451625
0.000442808
0.000795685
0.000668241
0.000570626
0.000509905
0.000465605
0.000431184
0.000404147
0.000382482
0.0003642
0.000349071
0.000335943
0.000325063
0.000314509
0.000306238
0.000297962
0.00029137
0.000284284
0.000278934
0.000501314
0.000348357
0.000292674
0.000259181
0.000236323
0.000221177
0.000211621
0.000203855
0.000198564
0.000195076
0.000192221
0.000190368
0.000188583
0.000187439
0.000186166
0.000185472
0.000184555
0.000184143
7.27385e-05
7.02256e-05
6.79542e-05
6.56138e-05
6.33828e-05
6.12762e-05
5.94944e-05
5.79552e-05
5.67108e-05
5.57032e-05
5.49775e-05
5.44179e-05
5.41094e-05
5.3881e-05
5.3897e-05
5.39324e-05
5.4091e-05
5.43235e-05
5.92538e-07
1.26644e-05
2.22571e-05
3.14166e-05
4.10436e-05
5.11933e-05
6.18927e-05
7.3055e-05
8.44766e-05
9.59434e-05
0.000107232
0.000118189
0.000128677
0.000138643
0.000148031
0.000156861
0.00016512
0.000172834
0.000179928
0.000186313
0.000192538
0.000197299
0.000199319
0.000199462
0.000197024
0.000192421
0.000187106
0.000188885
0.000190207
0.00019578
0.000197775
0.000192332
3.99015e-05
4.45615e-05
4.44763e-05
4.72176e-05
4.92494e-05
4.97758e-05
5.11198e-05
5.21693e-05
5.33262e-05
5.44529e-05
5.55834e-05
5.67132e-05
5.7836e-05
5.896e-05
6.00766e-05
6.11944e-05
6.23053e-05
6.34173e-05
6.4523e-05
6.56295e-05
6.673e-05
6.7831e-05
6.89263e-05
7.00218e-05
7.11116e-05
7.2201e-05
7.32845e-05
7.43672e-05
7.54435e-05
7.65181e-05
7.75858e-05
7.86513e-05
7.9709e-05
8.07636e-05
8.18096e-05
8.28514e-05
8.38836e-05
8.49106e-05
8.59271e-05
8.69371e-05
8.79354e-05
8.89261e-05
8.9904e-05
9.08727e-05
9.18274e-05
9.27714e-05
9.37002e-05
9.46169e-05
9.55169e-05
9.64031e-05
9.72711e-05
9.81236e-05
9.8956e-05
9.97704e-05
0.000100562
0.000101333
0.00010208
0.000102802
0.000103499
0.00010417
0.000104818
0.00010545
0.000106053
0.000106634
0.000107189
0.000107719
0.000108222
0.0001087
0.00010915
0.000109572
0.000109965
0.00011033
0.000110666
0.000110972
0.000111248
0.000111494
0.000111709
0.000111893
0.000112046
0.000112168
0.000112259
0.000112318
0.000112346
0.000112343
0.000112309
0.000112244
0.000112148
0.000112023
0.000111883
0.00011171
0.000111492
0.00011122
0.000110962
0.00011067
0.000110364
0.000110043
0.000109667
0.000109272
0.000108852
0.000108425
0.000107979
0.000107526
0.000107065
0.000106582
0.000106091
0.000105598
0.000105109
0.000104596
0.000104087
0.000103593
0.000103046
0.000102576
0.000102064
0.000101532
0.000101104
0.000100583
0.000100097
9.96093e-05
9.91532e-05
9.87962e-05
9.84517e-05
9.81128e-05
9.7779e-05
9.7441e-05
9.71299e-05
9.68202e-05
9.65276e-05
9.625e-05
9.59657e-05
9.56827e-05
9.54251e-05
9.50928e-05
9.48811e-05
9.41151e-05
9.3911e-05
9.39372e-05
9.39637e-05
9.39683e-05
9.39519e-05
9.38902e-05
9.3757e-05
9.359e-05
9.33696e-05
9.30816e-05
9.26954e-05
9.22055e-05
9.15981e-05
8.92848e-05
2.41822e-06
4.19992e-05
8.73773e-05
0.000118639
0.000139954
0.000156521
0.000171036
0.000184805
0.000198323
0.000211669
0.000224732
0.00023735
0.00024936
0.000260631
0.000271055
0.000280549
0.000289033
0.000296428
0.000302639
0.000307583
0.000311223
0.000312544
0.000310595
0.000305833
0.000298194
0.000288095
0.000276894
0.000277054
0.000274143
0.000273222
0.000273521
0.000250856
0.000235541
0.000247144
0.000254073
0.000276453
0.000283794
0.000290547
0.000297613
0.000305048
0.000312769
0.000320642
0.000328648
0.000336749
0.000344935
0.000353198
0.000361532
0.000369939
0.000378416
0.000386968
0.000395594
0.000404299
0.000413083
0.000421952
0.000430905
0.000439947
0.000449079
0.000458304
0.000467623
0.000477038
0.000486549
0.000496158
0.000505864
0.000515668
0.000525569
0.000535566
0.000545657
0.000555842
0.000566115
0.000576477
0.000586923
0.00059745
0.000608053
0.00061873
0.000629474
0.000640282
0.000651146
0.000662061
0.000673021
0.000684021
0.000695054
0.000706113
0.000717192
0.000728285
0.000739382
0.000750476
0.000761552
0.000772596
0.000783579
0.000794457
0.00080515
0.000815515
0.00082533
0.000834478
0.00084356
0.000852479
0.000861249
0.000869853
0.000878284
0.000886526
0.000894569
0.0009024
0.000910008
0.000917381
0.000924508
0.000931378
0.00093798
0.000944306
0.000950346
0.000956091
0.000961534
0.000966668
0.000971487
0.000975986
0.000980163
0.000984015
0.000987542
0.000990745
0.00099363
0.000996196
0.000998409
0.00100015
0.00100172
0.00100287
0.00100374
0.00100458
0.00100478
0.0010048
0.0010045
0.00100397
0.00100316
0.00100218
0.00100096
0.000999568
0.000998
0.000996248
0.000994416
0.000992429
0.000990395
0.000988216
0.000986067
0.000983879
0.000981661
0.000979561
0.000977301
0.000975418
0.000973279
0.000971613
0.000969756
0.000968161
0.000967068
0.000966037
0.00096518
0.00096441
0.000963932
0.000963689
0.000963656
0.000963755
0.000963918
0.000964191
0.000964507
0.000964757
0.000965006
0.000964957
0.00096486
0.00096263
0.000957724
0.000951827
0.000945263
0.000938004
0.000930113
0.000921561
0.000912242
0.000902179
0.000891403
0.000879782
0.000867227
0.000853939
0.000838464
0.000801725
4.73168e-06
6.48404e-05
0.000133112
0.00018524
0.00022342
0.000251768
0.000273942
0.000292493
0.000308992
0.00032429
0.000338766
0.000352534
0.000365576
0.000377819
0.00038918
0.000399579
0.000408936
0.000417167
0.000424167
0.0004298
0.00043389
0.000436836
0.000439264
0.000441212
0.000443247
0.000446469
0.000452446
0.000460692
0.000469466
0.000478339
0.000485819
0.000490484
0.000500413
0.000516553
0.000532932
0.000553138
0.000569046
0.000584711
0.000600367
0.000616193
0.000632209
0.000648391
0.000664726
0.000681201
0.000697808
0.000714546
0.000731413
0.000748413
0.000765548
0.000782823
0.000800242
0.00081781
0.000835531
0.000853408
0.000871445
0.000889645
0.000908011
0.000926543
0.000945245
0.000964115
0.000983154
0.00100236
0.00102173
0.00104127
0.00106097
0.00108083
0.00110083
0.00112099
0.00114129
0.00116172
0.00118228
0.00120296
0.00122376
0.00124465
0.00126564
0.0012867
0.00130784
0.00132903
0.00135027
0.00137154
0.00139283
0.00141412
0.0014354
0.00145665
0.00147784
0.00149896
0.00151997
0.00154084
0.00156151
0.00158192
0.00160199
0.00162163
0.00164074
0.00165942
0.00167785
0.00169599
0.00171381
0.00173129
0.00174842
0.00176516
0.00178149
0.00179739
0.00181283
0.0018278
0.00184226
0.00185619
0.00186958
0.00188241
0.00189465
0.00190629
0.00191731
0.0019277
0.00193744
0.00194653
0.00195495
0.00196271
0.00196979
0.00197619
0.00198191
0.00198693
0.00199123
0.00199478
0.00199776
0.00200013
0.00200178
0.00200325
0.00200357
0.00200336
0.00200256
0.00200122
0.00199935
0.00199701
0.00199421
0.00199099
0.00198737
0.0019834
0.00197916
0.00197463
0.00196989
0.00196494
0.00195993
0.00195483
0.00194973
0.00194465
0.00193958
0.00193479
0.00192997
0.00192554
0.0019212
0.0019172
0.00191365
0.00191036
0.00190736
0.00190464
0.00190229
0.00190027
0.00189853
0.00189698
0.00189559
0.00189422
0.0018929
0.00189146
0.00188984
0.00188776
0.00188509
0.00188048
0.00187293
0.00186361
0.001853
0.00184117
0.00182818
0.00181398
0.00179847
0.00178162
0.00176344
0.00174382
0.00172263
0.00169982
0.0016725
0.0016161
7.13432e-06
8.21763e-05
0.000167667
0.000235062
0.000285798
0.000324092
0.000353818
0.000377898
0.000398363
0.000416522
0.000433147
0.000448654
0.000463244
0.000477006
0.00048998
0.000502198
0.000513699
0.000524535
0.000534768
0.000544481
0.000553793
0.000562928
0.000572183
0.000581873
0.000592472
0.000604517
0.000618841
0.00063554
0.00065357
0.000672167
0.000690735
0.000709622
0.000729936
0.000751515
0.00077363
0.000796326
0.00081859
0.00084092
0.000863461
0.000886154
0.00090901
0.000932027
0.000955207
0.00097855
0.00100206
0.00102573
0.00104958
0.0010736
0.00109779
0.00112218
0.00114676
0.00117155
0.00119654
0.00122174
0.00124715
0.00127278
0.00129863
0.00132469
0.00135098
0.00137748
0.0014042
0.00143113
0.00145827
0.00148561
0.00151315
0.00154088
0.0015688
0.0015969
0.00162516
0.00165357
0.00168213
0.00171083
0.00173964
0.00176856
0.00179758
0.00182667
0.00185582
0.00188501
0.00191422
0.00194344
0.00197265
0.00200182
0.00203093
0.00205995
0.00208885
0.0021176
0.00214617
0.0021745
0.00220256
0.00223027
0.00225759
0.00228443
0.00231081
0.00233678
0.00236238
0.00238757
0.00241233
0.00243664
0.00246045
0.00248375
0.00250648
0.00252863
0.00255015
0.00257103
0.00259122
0.0026107
0.00262944
0.0026474
0.00266457
0.00268092
0.00269642
0.00271105
0.0027248
0.00273765
0.00274958
0.00276058
0.00277064
0.00277976
0.00278791
0.00279509
0.00280128
0.00280649
0.00281081
0.00281429
0.00281691
0.00281894
0.00281964
0.00281951
0.00281852
0.00281674
0.00281419
0.00281094
0.00280701
0.00280246
0.00279734
0.00279169
0.0027856
0.0027791
0.00277226
0.00276513
0.00275783
0.00275038
0.00274289
0.00273539
0.00272795
0.0027207
0.00271357
0.00270677
0.00270021
0.00269403
0.00268831
0.00268298
0.00267804
0.00267352
0.00266943
0.00266573
0.00266237
0.00265928
0.0026564
0.00265362
0.00265105
0.0026484
0.00264549
0.00264207
0.00263783
0.00263194
0.00262364
0.00261343
0.00260162
0.0025883
0.00257349
0.00255713
0.00253912
0.00251941
0.002498
0.00247476
0.00244957
0.00242208
0.00238903
0.00232734
9.45006e-06
9.66358e-05
0.000196345
0.000276354
0.000338069
0.00038528
0.00042207
0.000451628
0.000476302
0.000497736
0.000517022
0.000534853
0.000551661
0.000567716
0.000583207
0.000598289
0.000613106
0.000627806
0.000642531
0.000657415
0.000672585
0.000688178
0.000704364
0.00072138
0.000739579
0.000759413
0.000780874
0.000803572
0.000827373
0.000851841
0.000876597
0.000901618
0.00092707
0.000953481
0.000980496
0.00100798
0.00103548
0.00106313
0.00109089
0.00111879
0.00114687
0.00117512
0.00120356
0.00123219
0.00126101
0.00129003
0.00131925
0.00134868
0.00137831
0.00140816
0.00143823
0.00146855
0.00149911
0.00152991
0.00156097
0.00159227
0.00162382
0.00165561
0.00168766
0.00171995
0.00175247
0.00178523
0.00181822
0.00185142
0.00188484
0.00191846
0.00195227
0.00198626
0.00202042
0.00205473
0.00208918
0.00212376
0.00215844
0.00219322
0.00222807
0.00226297
0.00229791
0.00233286
0.0023678
0.00240271
0.00243757
0.00247234
0.00250701
0.00254154
0.00257589
0.00261005
0.00264396
0.0026776
0.00271091
0.00274386
0.00277642
0.00280856
0.00284027
0.00287154
0.00290238
0.00293274
0.00296261
0.00299194
0.0030207
0.00304886
0.00307637
0.0031032
0.00312931
0.00315466
0.00317923
0.00320297
0.00322584
0.00324782
0.00326887
0.00328896
0.00330805
0.00332613
0.00334316
0.00335913
0.003374
0.00338778
0.00340043
0.00341195
0.00342232
0.00343152
0.00343955
0.0034464
0.00345212
0.0034569
0.00346067
0.00346347
0.00346487
0.0034652
0.00346448
0.00346275
0.00346007
0.00345649
0.00345206
0.00344684
0.00344089
0.00343427
0.00342705
0.00341931
0.00341111
0.00340253
0.00339367
0.00338462
0.00337544
0.00336623
0.00335705
0.00334802
0.00333916
0.00333059
0.00332233
0.00331448
0.00330709
0.00330018
0.00329375
0.00328783
0.00328241
0.00327747
0.00327296
0.0032688
0.00326494
0.00326117
0.00325761
0.00325402
0.00325021
0.0032459
0.00324079
0.00323428
0.00322586
0.00321566
0.00320382
0.00319038
0.00317533
0.00315863
0.00314039
0.00312034
0.00309841
0.00307453
0.00304859
0.00302015
0.00298607
0.00292747
1.1613e-05
0.000108735
0.000220336
0.000311232
0.000382764
0.00043824
0.00048184
0.00051693
0.000546084
0.000571197
0.000593615
0.000614271
0.000633797
0.000652632
0.00067109
0.00068942
0.000707833
0.000726515
0.000745628
0.000765301
0.00078563
0.000806684
0.000828518
0.000851212
0.000874883
0.000899662
0.000925573
0.000952514
0.000980356
0.00100889
0.00103792
0.00106738
0.00109728
0.00112769
0.00115853
0.00118971
0.00122111
0.0012527
0.00128448
0.00131645
0.00134859
0.00138093
0.00141346
0.0014462
0.00147914
0.00151229
0.00154567
0.00157928
0.00161313
0.00164722
0.00168156
0.00171615
0.00175097
0.00178605
0.00182138
0.00185695
0.00189277
0.00192883
0.00196514
0.00200168
0.00203845
0.00207545
0.00211266
0.00215008
0.0021877
0.0022255
0.00226348
0.00230162
0.00233991
0.00237834
0.00241688
0.00245553
0.00249426
0.00253306
0.00257191
0.00261079
0.00264968
0.00268856
0.00272741
0.0027662
0.00280492
0.00284352
0.002882
0.00292031
0.00295843
0.00299634
0.00303399
0.00307135
0.0031084
0.0031451
0.00318143
0.00321736
0.00325287
0.00328793
0.00332254
0.00335665
0.00339023
0.00342325
0.00345567
0.00348745
0.00351855
0.00354893
0.00357855
0.00360737
0.00363536
0.00366246
0.00368865
0.00371387
0.0037381
0.00376129
0.0037834
0.00380442
0.00382429
0.00384299
0.0038605
0.0038768
0.00389185
0.00390564
0.00391815
0.00392936
0.00393926
0.00394784
0.0039551
0.00396142
0.00396649
0.00397034
0.00397269
0.00397382
0.00397373
0.00397247
0.00397009
0.00396664
0.00396219
0.00395679
0.0039505
0.0039434
0.00393557
0.00392708
0.00391801
0.00390846
0.00389852
0.00388829
0.00387785
0.00386731
0.00385675
0.00384628
0.00383595
0.00382588
0.00381612
0.00380676
0.00379787
0.00378949
0.00378165
0.00377438
0.00376768
0.00376153
0.00375591
0.00375076
0.00374603
0.0037416
0.00373742
0.00373333
0.00372912
0.00372457
0.00371937
0.00371308
0.00370534
0.00369609
0.00368533
0.00367304
0.00365918
0.00364373
0.0036265
0.00360747
0.00358659
0.00356381
0.00353906
0.00351188
0.00347945
0.00342734
1.35701e-05
0.000118723
0.000240228
0.00034064
0.000420959
0.00048421
0.000534435
0.000575118
0.00060898
0.000638097
0.000664008
0.000687829
0.000710361
0.000732176
0.000753691
0.000775219
0.000797008
0.000819253
0.000842111
0.000865693
0.00089007
0.000915273
0.000941309
0.000968176
0.000995885
0.00102445
0.00105387
0.00108409
0.00111506
0.00114666
0.0011788
0.00121141
0.00124444
0.00127788
0.00131168
0.00134577
0.00138012
0.00141469
0.00144946
0.00148443
0.00151958
0.00155493
0.00159048
0.00162623
0.00166218
0.00169835
0.00173474
0.00177135
0.0018082
0.00184528
0.0018826
0.00192015
0.00195795
0.00199598
0.00203425
0.00207276
0.00211151
0.00215049
0.0021897
0.00222913
0.00226878
0.00230864
0.0023487
0.00238895
0.00242939
0.00246999
0.00251076
0.00255167
0.00259271
0.00263388
0.00267514
0.0027165
0.00275792
0.0027994
0.00284092
0.00288245
0.00292398
0.00296549
0.00300696
0.00304836
0.00308967
0.00313088
0.00317195
0.00321285
0.00325358
0.00329408
0.00333435
0.00337434
0.00341404
0.00345341
0.00349243
0.00353109
0.00356934
0.00360716
0.00364454
0.00368143
0.0037178
0.00375362
0.00378885
0.00382344
0.00385736
0.00389058
0.00392303
0.00395469
0.0039855
0.00401543
0.00404443
0.00407245
0.00409945
0.00412538
0.00415021
0.00417389
0.00419639
0.00421766
0.00423767
0.0042564
0.0042738
0.00428985
0.00430454
0.00431782
0.00432969
0.00434013
0.00434913
0.00435716
0.00436371
0.00436882
0.0043724
0.00437459
0.00437541
0.00437491
0.00437314
0.00437014
0.00436598
0.00436072
0.00435442
0.00434716
0.00433901
0.00433007
0.00432041
0.00431014
0.00429935
0.00428815
0.00427664
0.00426492
0.00425309
0.00424126
0.00422952
0.00421797
0.00420671
0.0041958
0.00418535
0.00417541
0.00416604
0.00415728
0.00414915
0.00414165
0.00413479
0.00412853
0.00412283
0.00411761
0.00411279
0.00410824
0.00410378
0.00409919
0.00409421
0.0040885
0.00408177
0.00407388
0.00406474
0.00405429
0.00404243
0.00402908
0.00401412
0.00399748
0.00397912
0.00395901
0.00393711
0.00391297
0.00388421
0.00384013
1.52838e-05
0.000126777
0.000256417
0.000365301
0.000453331
0.000523801
0.000580406
0.000626651
0.000665337
0.000698651
0.000728265
0.000755433
0.000781081
0.000805886
0.000830345
0.000854825
0.000879598
0.000904867
0.000930778
0.000957432
0.000984882
0.00101315
0.00104222
0.00107207
0.00110268
0.00113402
0.00116607
0.00119879
0.00123214
0.00126605
0.00130045
0.0013353
0.00137055
0.00140615
0.00144207
0.00147827
0.00151471
0.00155136
0.00158821
0.00162525
0.00166247
0.00169988
0.00173747
0.00177526
0.00181324
0.00185142
0.0018898
0.00192839
0.0019672
0.00200622
0.00204546
0.00208493
0.00212461
0.00216452
0.00220464
0.00224499
0.00228556
0.00232634
0.00236733
0.00240853
0.00244993
0.00249152
0.0025333
0.00257525
0.00261738
0.00265966
0.00270209
0.00274465
0.00278734
0.00283013
0.00287303
0.002916
0.00295905
0.00300214
0.00304527
0.00308842
0.00313157
0.00317471
0.00321781
0.00326085
0.00330383
0.0033467
0.00338946
0.00343208
0.00347454
0.00351681
0.00355888
0.0036007
0.00364228
0.00368356
0.00372455
0.0037652
0.00380549
0.0038454
0.00388489
0.00392394
0.00396251
0.00400057
0.00403807
0.00407498
0.00411126
0.00414686
0.00418174
0.00421586
0.00424917
0.00428161
0.00431315
0.00434373
0.0043733
0.00440181
0.00442922
0.00445546
0.00448051
0.00450431
0.00452681
0.00454798
0.00456778
0.00458618
0.00460313
0.00461861
0.00463259
0.00464503
0.00465602
0.00466589
0.00467414
0.00468069
0.00468569
0.00468917
0.00469113
0.00469162
0.00469068
0.00468837
0.00468473
0.00467982
0.00467371
0.00466648
0.0046582
0.00464895
0.00463884
0.00462796
0.00461641
0.0046043
0.00459174
0.00457884
0.00456571
0.00455247
0.00453922
0.00452608
0.00451314
0.00450052
0.00448831
0.00447659
0.00446545
0.00445495
0.00444514
0.00443605
0.0044277
0.00442009
0.00441321
0.00440701
0.00440142
0.00439634
0.00439162
0.00438707
0.00438246
0.00437753
0.00437202
0.00436576
0.00435862
0.00435048
0.00434121
0.00433071
0.00431883
0.0043055
0.00429066
0.00427432
0.00425641
0.00423655
0.00421271
0.00417716
1.67298e-05
0.000133062
0.000269234
0.000385362
0.000480248
0.000557344
0.000619992
0.000671649
0.000715133
0.000752688
0.000786067
0.000816616
0.000845352
0.000873034
0.000900221
0.000927327
0.00095465
0.00098241
0.00101075
0.00103977
0.00106951
0.0011
0.00113121
0.00116313
0.00119571
0.00122891
0.00126276
0.00129721
0.00133221
0.00136772
0.00140365
0.00143995
0.00147661
0.00151358
0.00155084
0.00158836
0.00162609
0.001664
0.00170209
0.00174034
0.00177876
0.00181734
0.00185608
0.001895
0.00193408
0.00197334
0.00201278
0.00205241
0.00209223
0.00213224
0.00217244
0.00221285
0.00225345
0.00229426
0.00233526
0.00237647
0.00241788
0.00245949
0.0025013
0.00254329
0.00258548
0.00262785
0.00267039
0.00271311
0.00275599
0.00279903
0.00284221
0.00288553
0.00292898
0.00297254
0.00301621
0.00305997
0.00310382
0.00314773
0.00319169
0.0032357
0.00327973
0.00332377
0.0033678
0.00341181
0.00345578
0.00349969
0.00354352
0.00358725
0.00363086
0.00367434
0.00371766
0.0037608
0.00380373
0.00384644
0.0038889
0.00393109
0.00397298
0.00401455
0.00405575
0.00409658
0.00413698
0.00417693
0.00421639
0.00425532
0.00429368
0.00433142
0.0043685
0.00440488
0.0044405
0.0044753
0.00450925
0.00454228
0.00457434
0.00460538
0.00463533
0.00466414
0.00469175
0.00471811
0.00474317
0.00476687
0.00478917
0.00481002
0.00482938
0.0048472
0.00486346
0.0048781
0.00489127
0.00490306
0.00491314
0.00492146
0.00492812
0.00493309
0.00493639
0.00493806
0.00493815
0.0049367
0.00493375
0.00492936
0.0049236
0.00491653
0.00490823
0.00489878
0.00488829
0.00487684
0.00486456
0.00485153
0.00483789
0.00482375
0.00480922
0.00479444
0.00477953
0.00476461
0.0047498
0.00473523
0.004721
0.00470724
0.00469404
0.0046815
0.0046697
0.00465871
0.00464858
0.00463934
0.00463102
0.0046236
0.00461705
0.00461129
0.00460623
0.0046017
0.00459752
0.00459346
0.00458931
0.00458488
0.00458001
0.00457454
0.00456832
0.00456121
0.00455305
0.00454374
0.00453321
0.00452144
0.00450838
0.00449365
0.00447559
0.00444863
1.78972e-05
0.000137729
0.00027895
0.000401115
0.000502001
0.000585076
0.000653331
0.000710122
0.000758236
0.000799929
0.000836993
0.000870829
0.000902515
0.00093287
0.000962501
0.000991854
0.00102126
0.00105101
0.00108123
0.00111201
0.00114339
0.0011754
0.00120803
0.00124126
0.00127504
0.00130932
0.00134421
0.00137963
0.00141554
0.00145192
0.00148859
0.00152557
0.00156285
0.00160042
0.00163826
0.00167637
0.00171463
0.00175302
0.00179154
0.00183018
0.00186894
0.00190784
0.00194686
0.00198602
0.00202532
0.00206477
0.00210437
0.00214413
0.00218406
0.00222415
0.00226442
0.00230486
0.00234549
0.0023863
0.0024273
0.00246849
0.00250987
0.00255144
0.00259321
0.00263517
0.00267731
0.00271965
0.00276217
0.00280487
0.00284775
0.0028908
0.00293401
0.00297739
0.00302092
0.00306459
0.0031084
0.00315234
0.00319639
0.00324055
0.0032848
0.00332913
0.00337353
0.00341799
0.00346249
0.00350702
0.00355155
0.00359609
0.00364059
0.00368507
0.00372948
0.00377382
0.00381806
0.00386218
0.00390617
0.00395001
0.00399366
0.00403711
0.00408034
0.00412331
0.00416599
0.00420837
0.0042504
0.00429205
0.00433328
0.00437406
0.00441435
0.0044541
0.00449326
0.00453179
0.00456963
0.00460674
0.00464304
0.0046785
0.00471304
0.0047466
0.00477912
0.00481053
0.00484077
0.00486978
0.00489749
0.00492384
0.00494877
0.00497222
0.00499414
0.00501448
0.00503319
0.00505023
0.00506573
0.00507961
0.00509175
0.00510209
0.00511063
0.0051173
0.00512213
0.00512517
0.00512647
0.00512606
0.00512398
0.00512027
0.00511499
0.00510821
0.0051
0.00509045
0.00507964
0.00506767
0.00505466
0.00504072
0.00502596
0.00501051
0.0049945
0.00497807
0.00496134
0.00494447
0.00492758
0.00491083
0.00489434
0.00487827
0.00486273
0.00484786
0.00483377
0.00482057
0.00480835
0.00479719
0.00478715
0.00477826
0.00477053
0.00476393
0.00475839
0.00475382
0.00475004
0.00474689
0.00474416
0.00474168
0.00473928
0.00473677
0.00473397
0.00473069
0.00472675
0.00472202
0.0047164
0.00470985
0.00470228
0.00469334
0.00468162
0.00466319
1.87872e-05
0.000140939
0.000285846
0.00041287
0.000518877
0.000607215
0.000680539
0.000742062
0.000794502
0.000840088
0.000880619
0.000917517
0.000951905
0.000984672
0.00101643
0.00104761
0.00107848
0.00110954
0.0011409
0.00117269
0.00120497
0.00123775
0.00127106
0.00130488
0.0013392
0.00137401
0.00140928
0.00144497
0.00148103
0.00151744
0.00155417
0.00159119
0.00162846
0.00166599
0.00170376
0.00174176
0.00177977
0.00181784
0.00185597
0.00189417
0.00193243
0.00197076
0.00200918
0.00204771
0.00208634
0.00212508
0.00216396
0.00220297
0.00224212
0.00228142
0.00232088
0.00236051
0.00240032
0.00244031
0.00248049
0.00252086
0.00256143
0.00260221
0.0026432
0.00268441
0.00272582
0.00276746
0.00280931
0.00285139
0.00289368
0.00293618
0.0029789
0.00302183
0.00306496
0.00310829
0.00315181
0.00319551
0.00323939
0.00328344
0.00332764
0.00337199
0.00341647
0.00346108
0.00350578
0.00355059
0.00359547
0.00364041
0.0036854
0.00373042
0.00377545
0.00382047
0.00386548
0.00391043
0.00395533
0.00400014
0.00404485
0.00408943
0.00413386
0.0041781
0.00422215
0.00426596
0.00430951
0.00435276
0.00439567
0.00443822
0.00448036
0.00452204
0.00456322
0.00460385
0.00464388
0.00468325
0.00472191
0.00475978
0.00479682
0.00483293
0.00486807
0.00490215
0.0049351
0.00496685
0.00499732
0.00502643
0.00505413
0.00508034
0.00510498
0.00512802
0.00514938
0.00516903
0.00518698
0.00520319
0.00521765
0.00523022
0.0052409
0.00524947
0.00525602
0.00526064
0.00526336
0.00526418
0.00526315
0.0052603
0.00525567
0.00524934
0.00524135
0.00523181
0.00522078
0.00520838
0.0051947
0.00517987
0.005164
0.00514723
0.00512969
0.00511154
0.00509291
0.00507395
0.00505484
0.00503574
0.0050168
0.0049982
0.00498009
0.00496264
0.004946
0.00493032
0.00491574
0.00490238
0.00489035
0.00487974
0.00487061
0.00486297
0.00485682
0.00485208
0.00484864
0.00484636
0.00484508
0.00484463
0.00484484
0.0048455
0.00484639
0.00484728
0.00484797
0.00484827
0.00484804
0.0048472
0.00484563
0.00484296
0.004838
0.00482804
1.94125e-05
0.000142881
0.000290213
0.000420945
0.000531162
0.000623971
0.000701724
0.000767455
0.000823775
0.000872868
0.000916515
0.000956081
0.000992574
0.00102712
0.0010604
0.00109295
0.00112523
0.00115744
0.00118973
0.00122222
0.00125499
0.00128809
0.00132154
0.00135534
0.00138951
0.001424
0.0014588
0.0014939
0.00152926
0.00156488
0.00160073
0.00163676
0.00167294
0.00170932
0.00174591
0.00178274
0.00181966
0.0018566
0.00189352
0.00193041
0.00196726
0.00200413
0.00204104
0.00207801
0.00211505
0.00215219
0.00218944
0.00222682
0.00226433
0.00230199
0.00233982
0.00237784
0.00241604
0.00245446
0.00249309
0.00253196
0.00257106
0.00261042
0.00265004
0.00268994
0.0027301
0.00277055
0.00281129
0.00285231
0.00289363
0.00293523