/*--------------------------------*- C++ -*----------------------------------*\
  =========                 |
  \\      /  F ield         | OpenFOAM: The Open Source CFD Toolbox
   \\    /   O peration     | Website:  https://openfoam.org
    \\  /    A nd           | Version:  8
     \\/     M anipulation  |
\*---------------------------------------------------------------------------*/
FoamFile
{
    version     2.0;
    format      ascii;
    class       volScalarField;
    location    "190";
    object      p;
}
// * * * * * * * * * * * * * * * * * * * * * * * * * * * * * * * * * * * * * //

dimensions      [0 2 -2 0 0 0 0];

internalField   nonuniform List<scalar> 
12225
(
-1.67914
-3.86771
-4.96762
-5.28817
-5.46933
-5.63824
-5.76967
-5.86467
-5.94112
-6.00832
-6.06808
-6.12263
-6.17199
-6.21773
-6.26
-6.2938
-6.33526
-6.29792
-4.84258
-5.61099
-5.77139
-5.67903
-5.66639
-5.73412
-5.81155
-5.87714
-5.9366
-5.99385
-6.04823
-6.09883
-6.14629
-6.19076
-6.23313
-6.26939
-6.31142
-6.33574
-5.24372
-5.22869
-5.35596
-5.43422
-5.529
-5.64905
-5.75614
-5.84084
-5.91251
-5.97767
-6.03755
-6.09218
-6.14295
-6.19011
-6.23515
-6.27558
-6.32191
-6.36147
-5.12178
-5.06485
-5.30636
-5.46457
-5.56619
-5.67227
-5.76983
-5.84973
-5.91832
-5.98122
-6.03957
-6.09332
-6.14361
-6.19073
-6.23611
-6.27889
-6.32574
-6.37279
-5.11144
-5.13585
-5.36383
-5.50528
-5.58878
-5.6807
-5.77179
-5.84936
-5.91675
-5.9788
-6.03671
-6.09046
-6.14097
-6.18871
-6.23498
-6.27988
-6.32752
-6.37788
-5.16939
-5.21832
-5.39251
-5.51631
-5.59771
-5.6854
-5.77331
-5.84968
-5.91649
-5.97803
-6.03562
-6.08935
-6.14001
-6.18821
-6.23508
-6.28119
-6.32915
-6.37989
-5.22972
-5.27395
-5.40905
-5.52527
-5.6089
-5.69291
-5.77669
-5.85119
-5.91712
-5.97797
-6.03507
-6.08862
-6.13929
-6.18774
-6.23495
-6.28163
-6.32944
-6.3792
-5.28325
-5.32088
-5.43076
-5.53894
-5.62182
-5.7013
-5.78058
-5.85292
-5.91783
-5.97789
-6.03442
-6.08771
-6.13829
-6.18684
-6.23414
-6.2809
-6.32814
-6.37633
-5.33297
-5.36609
-5.45693
-5.55478
-5.63474
-5.70999
-5.78502
-5.85501
-5.91868
-5.97784
-6.03368
-6.08656
-6.13693
-6.18535
-6.2325
-6.27892
-6.32527
-6.37166
-5.38001
-5.40924
-5.48468
-5.57179
-5.64788
-5.7193
-5.79029
-5.85766
-5.91984
-5.97793
-6.03294
-6.08525
-6.1352
-6.18328
-6.23001
-6.27578
-6.321
-6.36556
-5.4243
-5.44977
-5.5129
-5.58996
-5.66154
-5.72924
-5.79635
-5.86092
-5.92138
-5.97823
-6.03226
-6.08381
-6.13317
-6.18069
-6.22676
-6.27165
-6.31559
-6.35836
-5.4623
-5.48462
-5.53875
-5.60748
-5.67449
-5.73877
-5.80248
-5.86441
-5.92312
-5.9787
-6.0317
-6.08242
-6.13106
-6.17789
-6.22318
-6.26712
-6.30983
-6.35105
-5.49739
-5.51708
-5.56384
-5.62513
-5.68753
-5.74842
-5.80891
-5.86823
-5.92511
-5.97933
-6.0312
-6.08097
-6.12878
-6.1748
-6.21921
-6.26212
-6.30359
-6.34336
-5.53415
-5.55132
-5.59127
-5.6452
-5.70244
-5.7595
-5.81653
-5.87293
-5.92762
-5.98017
-6.03067
-6.07924
-6.12596
-6.17092
-6.21421
-6.25589
-6.29596
-6.3342
-5.57133
-5.5861
-5.62004
-5.66706
-5.71886
-5.77177
-5.82514
-5.87839
-5.93058
-5.98116
-6.03
-6.0771
-6.12246
-6.16611
-6.20806
-6.24831
-6.28686
-6.32353
-5.60697
-5.61958
-5.64847
-5.68937
-5.73587
-5.78452
-5.8342
-5.88422
-5.93371
-5.98207
-6.02899
-6.07438
-6.11815
-6.16025
-6.20067
-6.23936
-6.27631
-6.31141
-5.63816
-5.64902
-5.67395
-5.70985
-5.75169
-5.79638
-5.84259
-5.88951
-5.93631
-5.98235
-6.02723
-6.07075
-6.11277
-6.1532
-6.19197
-6.22905
-6.2644
-6.29797
-5.66054
-5.67018
-5.69243
-5.72487
-5.7633
-5.80492
-5.84836
-5.89271
-5.93719
-5.98113
-6.02409
-6.06581
-6.10611
-6.14488
-6.18204
-6.21755
-6.25139
-6.28353
-5.66722
-5.67638
-5.69759
-5.72873
-5.76582
-5.8061
-5.84815
-5.8911
-5.93419
-5.97675
-6.01833
-6.05866
-6.09758
-6.13499
-6.17079
-6.20499
-6.23755
-6.2685
-5.65102
-5.6608
-5.68339
-5.71647
-5.75547
-5.79717
-5.84013
-5.88366
-5.92705
-5.96964
-6.01101
-6.05097
-6.08938
-6.12617
-6.16129
-6.19476
-6.22657
-6.2568
-5.62413
-5.63492
-5.66019
-5.69721
-5.73999
-5.7845
-5.82959
-5.87483
-5.91948
-5.96285
-6.00464
-6.04476
-6.08317
-6.11982
-6.1547
-6.18786
-6.21933
-6.24919
-5.58888
-5.6007
-5.63005
-5.67364
-5.72192
-5.7699
-5.81772
-5.86545
-5.91201
-5.95661
-5.99915
-6.03972
-6.07836
-6.11506
-6.14987
-6.18288
-6.21414
-6.24378
-5.54831
-5.56021
-5.59466
-5.64793
-5.70348
-5.75544
-5.80633
-5.85678
-5.9053
-5.95119
-5.99462
-6.03582
-6.07483
-6.1117
-6.14655
-6.17952
-6.21069
-6.24022
-5.50459
-5.51557
-5.55735
-5.62177
-5.68395
-5.74063
-5.79625
-5.85011
-5.90038
-5.94721
-5.99134
-6.03303
-6.0723
-6.10926
-6.14411
-6.17701
-6.20809
-6.23749
-5.45766
-5.46316
-5.52582
-5.60403
-5.66597
-5.72423
-5.78537
-5.84373
-5.89625
-5.94432
-5.98934
-6.03161
-6.07115
-6.10819
-6.143
-6.17582
-6.20681
-6.23615
-5.41435
-5.37802
-5.48756
-5.59853
-5.66078
-5.71606
-5.77827
-5.83802
-5.89124
-5.93997
-5.98569
-6.02849
-6.06836
-6.10559
-6.14051
-6.17338
-6.20439
-6.23373
-5.42857
-5.26962
-5.39854
-5.55262
-5.64272
-5.71409
-5.78302
-5.84393
-5.89673
-5.94502
-5.9903
-6.03256
-6.07185
-6.10851
-6.14288
-6.17525
-6.20584
-6.23491
-5.55176
-5.37138
-5.38555
-5.45768
-5.54605
-5.64527
-5.73596
-5.80974
-5.87145
-5.92659
-5.9769
-6.02267
-6.06448
-6.10296
-6.13865
-6.17197
-6.20339
-6.23353
-5.25914
-5.85023
-5.93906
-5.81481
-5.76047
-5.78763
-5.83461
-5.87785
-5.91941
-5.9616
-6.0031
-6.04242
-6.07938
-6.11411
-6.14666
-6.1772
-6.20594
-6.23465
-2.26981
-4.03312
-5.03781
-5.33695
-5.48612
-5.62975
-5.74378
-5.82474
-5.88897
-5.94584
-5.99711
-6.04314
-6.08482
-6.12304
-6.15833
-6.19046
-6.2193
-6.24307
-7.15434
-7.15438
-7.15493
-7.15615
-7.15792
-7.16015
-7.16281
-7.1659
-7.16941
-7.17337
-7.17779
-7.18273
-7.1882
-7.19427
-7.201
-7.20846
-7.21672
-7.22583
-7.23593
-7.24724
-7.25959
-7.27226
-7.28439
-7.29598
-7.30827
-7.32228
-7.33781
-7.3552
-7.37601
-7.39867
-7.42194
-7.44688
-7.47037
-7.49176
-7.51264
-7.53285
-7.5545
-7.57813
-7.60305
-7.62886
-7.65532
-7.68228
-7.70961
-7.73722
-7.765
-7.79289
-7.82079
-7.84863
-7.87632
-7.90379
-7.93093
-7.95769
-7.98394
-8.0096
-8.03454
-8.05869
-8.08189
-8.10404
-8.12499
-8.14463
-8.16278
-8.17933
-8.19406
-8.20686
-8.21752
-8.2259
-8.23177
-8.23497
-8.23528
-8.23252
-8.22646
-8.21692
-8.20365
-8.18648
-8.16515
-8.13948
-8.10921
-8.07416
-8.03408
-7.9888
-7.93807
-7.88173
-7.81955
-7.7514
-7.67704
-7.59638
-7.50923
-7.4155
-7.31509
-7.20796
-7.09411
-6.97352
-6.84597
-6.71117
-6.56906
-6.41981
-6.26353
-6.10033
-5.93033
-5.75368
-5.57051
-5.38098
-5.18527
-4.98363
-4.77629
-4.56352
-4.3456
-4.12282
-3.89549
-3.66393
-3.42847
-3.18943
-2.94714
-2.70195
-2.45418
-2.2042
-1.9523
-1.69881
-1.44398
-1.18814
-0.931575
-0.67457
-0.417346
-0.160122
0.0969495
0.353664
0.609915
0.865544
1.12051
1.3747
1.62816
1.88083
2.13281
2.38414
2.63499
2.88545
3.13575
3.3861
3.63675
3.8879
4.13982
4.39283
4.64731
4.90366
5.1623
5.42366
5.68816
5.95623
6.22828
6.50469
6.78582
7.07198
7.36342
7.66032
7.96275
8.27065
8.58384
8.90199
9.22461
9.55104
9.88046
10.2119
10.5441
10.876
11.2059
11.5324
11.8537
12.1682
12.4745
12.7711
13.0567
13.3301
13.5902
13.8366
14.069
14.2879
14.4959
14.6963
14.9134
15.1424
-7.15183
-7.15242
-7.15328
-7.15425
-7.15516
-7.15617
-7.15752
-7.15935
-7.16171
-7.16464
-7.16814
-7.17221
-7.17686
-7.18211
-7.18796
-7.19444
-7.20156
-7.20933
-7.21785
-7.22697
-7.23633
-7.24587
-7.25633
-7.26879
-7.28302
-7.29749
-7.31201
-7.3277
-7.3434
-7.35951
-7.37818
-7.39723
-7.41857
-7.44364
-7.47026
-7.49871
-7.52651
-7.55316
-7.57952
-7.606
-7.63272
-7.65971
-7.68695
-7.71439
-7.74196
-7.76961
-7.79727
-7.82487
-7.85232
-7.87957
-7.90652
-7.93309
-7.95919
-7.98472
-8.00957
-8.03364
-8.05682
-8.07898
-8.09999
-8.11971
-8.13801
-8.15473
-8.1697
-8.18278
-8.19378
-8.20253
-8.20885
-8.21255
-8.21341
-8.21127
-8.20589
-8.19708
-8.18462
-8.1683
-8.14791
-8.12323
-8.09403
-8.06011
-8.02124
-7.97722
-7.92784
-7.87291
-7.81222
-7.74561
-7.67289
-7.59391
-7.50851
-7.41656
-7.31793
-7.2125
-7.10019
-6.98082
-6.85429
-6.72073
-6.58022
-6.43275
-6.27831
-6.11697
-5.94882
-5.77396
-5.59253
-5.40471
-5.21069
-5.01067
-4.80489
-4.5936
-4.37709
-4.15564
-3.92955
-3.69914
-3.46474
-3.22666
-2.98524
-2.74082
-2.49374
-2.24432
-1.99291
-1.73979
-1.48527
-1.22964
-0.973214
-0.716254
-0.459005
-0.201666
0.0555537
0.312496
0.568998
0.824945
1.08023
1.33479
1.58859
1.84163
2.09395
2.34561
2.59672
2.84742
3.0979
3.34835
3.59902
3.85009
4.1018
4.35449
4.60852
4.8643
5.12224
5.38274
5.64624
5.91317
6.18394
6.45893
6.7385
7.02298
7.31263
7.60763
7.90807
8.21393
8.52504
8.84109
9.16163
9.48603
9.81351
10.1431
10.4737
10.8039
11.1323
11.4573
11.7773
12.0909
12.3967
12.6932
12.9791
13.2532
13.5146
13.7626
13.9973
14.2191
14.431
14.6353
14.8537
15.0693
-7.14533
-7.14715
-7.14968
-7.15163
-7.15284
-7.15381
-7.15491
-7.15638
-7.15834
-7.16084
-7.16392
-7.16759
-7.17187
-7.17678
-7.18235
-7.18857
-7.19545
-7.20296
-7.21109
-7.21975
-7.22879
-7.23821
-7.24843
-7.26014
-7.27366
-7.28878
-7.30529
-7.32306
-7.3412
-7.35928
-7.37772
-7.39621
-7.41548
-7.43651
-7.4592
-7.48364
-7.50905
-7.5348
-7.56073
-7.58686
-7.6132
-7.63976
-7.66651
-7.69343
-7.72047
-7.74758
-7.7747
-7.80177
-7.82872
-7.85548
-7.88197
-7.90811
-7.93381
-7.95897
-7.9835
-8.00729
-8.03022
-8.05217
-8.07302
-8.09264
-8.11088
-8.12759
-8.14262
-8.1558
-8.16697
-8.17595
-8.18256
-8.18662
-8.18791
-8.18626
-8.18145
-8.17328
-8.16154
-8.14602
-8.1265
-8.10277
-8.07461
-8.0418
-8.00412
-7.96138
-7.91336
-7.85987
-7.8007
-7.73569
-7.66464
-7.5874
-7.5038
-7.41371
-7.31698
-7.21351
-7.10318
-6.98586
-6.86146
-6.73005
-6.59168
-6.44634
-6.29407
-6.1349
-5.96892
-5.79622
-5.61692
-5.43118
-5.23918
-5.04113
-4.83727
-4.62783
-4.41309
-4.19334
-3.96886
-3.73997
-3.507
-3.27026
-3.03009
-2.78681
-2.54078
-2.29231
-2.04174
-1.78937
-1.53551
-1.28045
-1.02452
-0.767951
-0.511025
-0.253928
0.00309779
0.259918
0.516335
0.772257
1.02752
1.2821
1.53591
1.78898
2.04127
2.2929
2.5439
2.79445
3.04468
3.2948
3.545
3.79548
4.04648
4.29828
4.55127
4.80584
5.06239
5.3213
5.58302
5.84794
6.11649
6.38905
6.666
6.94764
7.23427
7.52609
7.82321
8.12563
8.43323
8.74577
9.06286
9.38395
9.70834
10.0352
10.3633
10.6916
11.0185
11.3426
11.6624
11.9763
12.2828
12.5806
12.8682
13.1446
13.4088
13.6602
13.8988
14.1252
14.3422
14.551
14.77
14.9653
-7.13558
-7.13876
-7.14359
-7.14729
-7.14962
-7.15131
-7.15282
-7.15444
-7.15636
-7.15871
-7.16156
-7.16496
-7.16894
-7.17352
-7.17873
-7.18459
-7.19109
-7.19825
-7.20605
-7.21444
-7.22337
-7.23287
-7.24315
-7.25454
-7.26737
-7.28175
-7.29767
-7.31499
-7.33334
-7.35232
-7.37178
-7.39156
-7.41177
-7.43272
-7.45458
-7.47749
-7.50136
-7.52594
-7.551
-7.57645
-7.60221
-7.62823
-7.65448
-7.6809
-7.70746
-7.73411
-7.76078
-7.78743
-7.81398
-7.84037
-7.86652
-7.89235
-7.91777
-7.94269
-7.96702
-7.99064
-8.01345
-8.03532
-8.05613
-8.07576
-8.09404
-8.11085
-8.12602
-8.13939
-8.1508
-8.16007
-8.16702
-8.17147
-8.17321
-8.17205
-8.1678
-8.16024
-8.14916
-8.13435
-8.11561
-8.0927
-8.06542
-8.03355
-7.99688
-7.95518
-7.90826
-7.85592
-7.79795
-7.73417
-7.6644
-7.58848
-7.50623
-7.41751
-7.32218
-7.22012
-7.11123
-6.99541
-6.87258
-6.74276
-6.60597
-6.46222
-6.31151
-6.15391
-5.98947
-5.8183
-5.64051
-5.45625
-5.26571
-5.06907
-4.86657
-4.65845
-4.44497
-4.22641
-4.00307
-3.77525
-3.54327
-3.30746
-3.06815
-2.82567
-2.58036
-2.33254
-2.08254
-1.83068
-1.57726
-1.32258
-1.06696
-0.810651
-0.553909
-0.296956
-0.0400113
0.216762
0.473185
0.729132
0.984458
1.2391
1.49299
1.74612
1.99849
2.25015
2.50117
2.7517
3.00185
3.25182
3.50177
3.7519
4.00244
4.25369
4.506
4.75975
5.01533
5.27313
5.53355
5.79699
6.06386
6.33455
6.60942
6.88878
7.17291
7.46205
7.75628
8.05568
8.36013
8.66945
8.98329
9.30119
9.62246
9.9463
10.2717
10.5975
10.9224
11.2449
11.5637
11.8771
12.1836
12.4819
12.7705
13.0484
13.3145
13.5683
13.8098
14.0392
14.2591
14.4692
14.6843
14.8604
-7.12515
-7.12973
-7.13701
-7.14268
-7.14642
-7.14915
-7.15143
-7.15359
-7.15586
-7.15842
-7.16139
-7.16484
-7.16883
-7.1734
-7.17857
-7.18437
-7.19083
-7.19796
-7.20578
-7.21428
-7.22349
-7.23346
-7.24428
-7.25614
-7.26914
-7.28339
-7.29889
-7.31558
-7.33332
-7.35196
-7.37134
-7.39135
-7.41195
-7.43315
-7.45502
-7.47758
-7.50084
-7.52472
-7.54912
-7.57396
-7.59916
-7.62468
-7.65046
-7.67644
-7.70259
-7.72885
-7.75516
-7.78146
-7.8077
-7.8338
-7.85969
-7.88529
-7.91051
-7.93527
-7.95947
-7.98299
-8.00574
-8.02758
-8.04841
-8.06808
-8.08645
-8.10337
-8.1187
-8.13227
-8.14392
-8.15346
-8.16073
-8.16552
-8.16765
-8.16692
-8.16314
-8.15608
-8.14555
-8.13132
-8.11319
-8.09094
-8.06435
-8.0332
-7.99727
-7.95636
-7.91026
-7.85875
-7.80165
-7.73876
-7.6699
-7.59489
-7.51357
-7.4258
-7.33141
-7.23032
-7.12242
-7.00761
-6.88583
-6.75705
-6.62128
-6.47852
-6.32879
-6.17213
-6.00861
-5.83834
-5.66142
-5.47801
-5.28827
-5.09242
-4.89067
-4.68326
-4.47045
-4.25253
-4.02978
-3.80252
-3.57106
-3.33574
-3.09687
-2.85481
-2.60987
-2.3624
-2.11272
-1.86115
-1.60798
-1.35356
-1.09815
-0.842048
-0.585469
-0.328691
-0.0718703
0.184756
0.441076
0.696872
0.952087
1.20656
1.46031
1.71324
1.96542
2.21683
2.46761
2.71781
2.96762
3.21716
3.46662
3.71617
3.96606
4.21662
4.46815
4.72106
4.97571
5.23251
5.49182
5.75405
6.01959
6.28884
6.56214
6.83982
7.12216
7.40937
7.70158
7.99883
8.30108
8.60814
8.9197
9.23529
9.5543
9.87594
10.1993
10.5232
10.8465
11.1678
11.4857
11.7987
12.1052
12.4038
12.6931
12.972
13.2395
13.4949
13.7381
13.9691
14.1899
14.3989
14.6079
14.7678
-7.11611
-7.122
-7.13139
-7.13887
-7.14401
-7.14788
-7.15109
-7.15399
-7.15683
-7.15984
-7.16316
-7.1669
-7.17113
-7.17592
-7.18131
-7.18732
-7.194
-7.20137
-7.20946
-7.2183
-7.22793
-7.23839
-7.24976
-7.26211
-7.2755
-7.28995
-7.30546
-7.32198
-7.33944
-7.35774
-7.37681
-7.39658
-7.41698
-7.43802
-7.45967
-7.48193
-7.50479
-7.5282
-7.55212
-7.57648
-7.60123
-7.62633
-7.65171
-7.67733
-7.70313
-7.72908
-7.7551
-7.78115
-7.80715
-7.83305
-7.85877
-7.88422
-7.90933
-7.93401
-7.95815
-7.98165
-8.00441
-8.0263
-8.04719
-8.06697
-8.08547
-8.10257
-8.1181
-8.1319
-8.1438
-8.15363
-8.1612
-8.16634
-8.16884
-8.16851
-8.16514
-8.15853
-8.14846
-8.13473
-8.11711
-8.09539
-8.06935
-8.03876
-8.00342
-7.96311
-7.91761
-7.86673
-7.81025
-7.74799
-7.67976
-7.60538
-7.5247
-7.43754
-7.34379
-7.2433
-7.13603
-7.02183
-6.90066
-6.77248
-6.63728
-6.49505
-6.34583
-6.18964
-6.02657
-5.85671
-5.68017
-5.49712
-5.30771
-5.11216
-4.91068
-4.70352
-4.49094
-4.27321
-4.05065
-3.82355
-3.59224
-3.35704
-3.11831
-2.87636
-2.63155
-2.38419
-2.13463
-1.88318
-1.63016
-1.37588
-1.12064
-0.864694
-0.608311
-0.351725
-0.0951302
0.16127
0.417307
0.672802
0.927654
1.18175
1.43505
1.6875
1.93914
2.18997
2.4401
2.68961
2.93865
3.18734
3.43586
3.6844
3.93323
4.18268
4.43307
4.68477
4.93817
5.19366
5.45161
5.71242
5.97649
6.24422
6.51598
6.79205
7.07275
7.3583
7.64884
7.94443
8.24505
8.5505
8.86053
9.17466
9.49233
9.81275
10.135
10.4581
10.7807
11.1016
11.4194
11.7324
12.0394
12.3387
12.629
12.9091
13.1779
13.4346
13.6791
13.9109
14.1315
14.3382
14.5413
14.6872
-7.10993
-7.11689
-7.12787
-7.13679
-7.14317
-7.14812
-7.15225
-7.15593
-7.15944
-7.16301
-7.16682
-7.17099
-7.17562
-7.18077
-7.18651
-7.19288
-7.19991
-7.20765
-7.21612
-7.22536
-7.2354
-7.24629
-7.25807
-7.27077
-7.28441
-7.29902
-7.31457
-7.33104
-7.34836
-7.36648
-7.38535
-7.4049
-7.4251
-7.44593
-7.46735
-7.48935
-7.5119
-7.53498
-7.55854
-7.58255
-7.60696
-7.63173
-7.65681
-7.68215
-7.70771
-7.73343
-7.75926
-7.78514
-7.811
-7.83679
-7.86242
-7.88782
-7.9129
-7.93758
-7.96175
-7.98532
-8.00816
-8.03016
-8.0512
-8.07114
-8.08984
-8.10714
-8.12291
-8.13697
-8.14915
-8.15928
-8.16717
-8.17264
-8.17549
-8.17552
-8.17253
-8.16632
-8.15665
-8.14333
-8.12613
-8.10484
-8.07923
-8.04908
-8.01417
-7.97429
-7.92923
-7.87877
-7.82271
-7.76087
-7.69304
-7.61905
-7.53874
-7.45195
-7.35852
-7.25838
-7.1514
-7.0375
-6.9166
-6.78866
-6.65366
-6.5116
-6.36251
-6.20643
-6.04343
-5.8736
-5.69707
-5.51399
-5.32454
-5.12892
-4.92735
-4.72008
-4.50738
-4.28952
-4.06682
-3.83957
-3.60813
-3.3728
-3.13395
-2.8919
-2.64701
-2.39959
-2.15
-1.89854
-1.64556
-1.39133
-1.13619
-0.880372
-0.624179
-0.367785
-0.111456
0.144665
0.400325
0.655426
0.90978
1.16336
1.41603
1.66783
1.9187
2.16874
2.41797
2.66654
2.91452
3.16207
3.40936
3.6566
3.90407
4.1521
4.40103
4.6512
4.90304
5.15691
5.41322
5.67234
5.93468
6.20066
6.47065
6.74498
7.02396
7.30783
7.59675
7.89082
8.19001
8.4942
8.80308
9.11627
9.43315
9.75302
10.0749
10.3978
10.7205
11.0417
11.3599
11.6738
11.9816
12.2821
12.5737
12.8552
13.1254
13.3836
13.6291
13.8614
14.0813
14.2853
14.4829
14.6171
-7.10743
-7.11511
-7.1271
-7.13705
-7.1444
-7.15025
-7.15521
-7.15963
-7.16379
-7.16795
-7.17229
-7.17694
-7.18201
-7.18759
-7.19374
-7.2005
-7.20793
-7.21606
-7.22492
-7.23455
-7.24496
-7.2562
-7.26828
-7.28123
-7.29505
-7.30976
-7.32532
-7.34173
-7.35894
-7.37693
-7.39563
-7.41502
-7.43505
-7.4557
-7.47693
-7.49873
-7.52106
-7.54391
-7.56723
-7.59101
-7.61519
-7.63975
-7.66463
-7.6898
-7.71521
-7.74081
-7.76654
-7.79235
-7.81817
-7.84394
-7.86958
-7.89501
-7.92016
-7.94492
-7.96921
-7.9929
-8.0159
-8.03808
-8.05932
-8.07947
-8.09841
-8.11597
-8.132
-8.14634
-8.15881
-8.16925
-8.17745
-8.18324
-8.18642
-8.18679
-8.18413
-8.17825
-8.16892
-8.15594
-8.13907
-8.1181
-8.09281
-8.06297
-8.02836
-7.98877
-7.94398
-7.89378
-7.83796
-7.77633
-7.7087
-7.63489
-7.55473
-7.46806
-7.37474
-7.27466
-7.16773
-7.05384
-6.93292
-6.80493
-6.66984
-6.52765
-6.3784
-6.22211
-6.05887
-5.88877
-5.71195
-5.52855
-5.33876
-5.14278
-4.94084
-4.73319
-4.5201
-4.30185
-4.07877
-3.85116
-3.61937
-3.38373
-3.14458
-2.90228
-2.65716
-2.40957
-2.15985
-1.90832
-1.6553
-1.40111
-1.14603
-0.890345
-0.634322
-0.378172
-0.122126
0.133619
0.388859
0.643449
0.897241
1.15016
1.40212
1.6531
1.9031
2.15217
2.40038
2.64782
2.89459
3.14083
3.38671
3.63248
3.87843
4.12489
4.3722
4.6207
4.87079
5.12287
5.37733
5.6346
5.89506
6.15917
6.42729
6.69978
6.97697
7.25914
7.54646
7.83907
8.13695
8.44001
8.74798
9.06047
9.3769
9.69656
10.0185
10.3417
10.6649
10.9868
11.306
11.621
11.9302
12.2322
12.5253
12.8084
13.0802
13.3396
13.5861
13.8187
14.0377
14.2389
14.4317
14.5561
-7.10881
-7.11686
-7.12931
-7.13985
-7.14786
-7.15439
-7.16
-7.16504
-7.16979
-7.17448
-7.1793
-7.18441
-7.18991
-7.1959
-7.20243
-7.20957
-7.21736
-7.22584
-7.23503
-7.24498
-7.25569
-7.26719
-7.2795
-7.29263
-7.30657
-7.32134
-7.33691
-7.35327
-7.3704
-7.38827
-7.40684
-7.4261
-7.44599
-7.4665
-7.48759
-7.50925
-7.53144
-7.55415
-7.57733
-7.60097
-7.62503
-7.64948
-7.67427
-7.69937
-7.72473
-7.7503
-7.77603
-7.80186
-7.82773
-7.85357
-7.8793
-7.90485
-7.93014
-7.95506
-7.97952
-8.00342
-8.02663
-8.04904
-8.07052
-8.09093
-8.11013
-8.12797
-8.14428
-8.15891
-8.17168
-8.18241
-8.19091
-8.197
-8.20047
-8.20113
-8.19875
-8.19315
-8.18408
-8.17135
-8.15472
-8.13398
-8.10889
-8.07924
-8.04481
-8.00536
-7.9607
-7.91059
-7.85485
-7.79326
-7.72565
-7.65182
-7.57161
-7.48485
-7.39141
-7.29118
-7.18406
-7.06996
-6.94877
-6.82048
-6.68505
-6.54249
-6.39282
-6.23608
-6.07236
-5.90175
-5.72439
-5.54043
-5.35006
-5.1535
-4.95096
-4.74272
-4.52903
-4.31022
-4.08657
-3.85844
-3.62616
-3.39007
-3.15052
-2.90787
-2.66245
-2.41463
-2.16473
-1.91311
-1.66005
-1.40589
-1.15089
-0.895392
-0.63958
-0.383749
-0.128065
0.127201
0.381934
0.635896
0.889024
1.14114
1.39226
1.64227
1.89126
2.13921
2.38624
2.6324
2.87782
3.1226
3.36694
3.61111
3.8554
4.10016
4.34571
4.59241
4.84067
5.09087
5.34343
5.59878
5.85733
6.11952
6.38577
6.65644
6.9319
7.21243
7.49825
7.78951
8.08624
8.38835
8.69561
9.00763
9.32387
9.64358
9.96589
10.2897
10.6138
10.9367
11.2572
11.5737
11.8845
12.1882
12.4831
12.7679
13.0413
13.302
13.5493
13.7821
14.0001
14.1986
14.3872
14.5036
-7.1139
-7.12199
-7.13439
-7.1451
-7.15346
-7.16041
-7.16648
-7.17197
-7.17716
-7.18228
-7.18751
-7.193
-7.19886
-7.20518
-7.21203
-7.21947
-7.22754
-7.23628
-7.24573
-7.25591
-7.26683
-7.27851
-7.29097
-7.30421
-7.31823
-7.33304
-7.34861
-7.36494
-7.38201
-7.39979
-7.41828
-7.43743
-7.45723
-7.47765
-7.49865
-7.52023
-7.54235
-7.56499
-7.58812
-7.61172
-7.63575
-7.66019
-7.68498
-7.71011
-7.73551
-7.76114
-7.78696
-7.81289
-7.83889
-7.86487
-7.89077
-7.91651
-7.942
-7.96714
-7.99183
-8.01597
-8.03943
-8.06211
-8.08385
-8.10454
-8.12402
-8.14214
-8.15873
-8.17364
-8.18668
-8.19768
-8.20644
-8.21278
-8.21649
-8.21737
-8.21521
-8.2098
-8.20091
-8.18834
-8.17185
-8.15122
-8.12623
-8.09664
-8.06224
-8.02281
-7.97812
-7.92796
-7.87213
-7.81043
-7.74266
-7.66864
-7.5882
-7.50117
-7.40743
-7.30685
-7.19935
-7.08482
-6.96318
-6.83438
-6.69841
-6.55527
-6.40498
-6.24759
-6.08318
-5.91187
-5.73378
-5.54908
-5.35796
-5.16063
-4.95733
-4.74833
-4.53392
-4.31439
-4.09008
-3.86132
-3.62845
-3.39183
-3.15182
-2.90877
-2.66304
-2.41497
-2.16491
-1.91319
-1.66013
-1.40604
-1.15121
-0.895927
-0.640441
-0.385003
-0.129826
0.124881
0.37895
0.632188
0.88448
1.1357
1.38581
1.63473
1.88253
2.12922
2.37488
2.61959
2.86345
3.1066
3.34926
3.5917
3.83421
4.07714
4.32082
4.56563
4.81195
5.06021
5.31082
5.56421
5.82083
6.08113
6.34555
6.61446
6.88827
7.16726
7.45172
7.74177
8.03752
8.33886
8.64562
8.95739
9.27367
9.5937
9.91661
10.2413
10.5665
10.8908
11.2129
11.531
11.8437
12.1493
12.4461
12.7327
13.0077
13.2698
13.5179
13.7506
13.9676
14.1636
14.3486
14.4586
-7.12223
-7.13007
-7.14201
-7.15251
-7.16091
-7.16802
-7.17432
-7.18009
-7.18556
-7.19097
-7.19647
-7.20223
-7.20833
-7.21489
-7.22196
-7.22961
-7.23787
-7.24679
-7.2564
-7.26671
-7.27776
-7.28955
-7.30209
-7.31539
-7.32944
-7.34426
-7.35982
-7.37613
-7.39315
-7.41089
-7.42932
-7.44842
-7.46817
-7.48855
-7.50953
-7.5311
-7.55321
-7.57586
-7.59902
-7.62265
-7.64674
-7.67124
-7.69613
-7.72136
-7.74688
-7.77266
-7.79863
-7.82474
-7.85092
-7.87711
-7.90323
-7.9292
-7.95493
-7.98032
-8.00527
-8.02967
-8.05341
-8.07635
-8.09836
-8.11932
-8.13906
-8.15743
-8.17427
-8.18941
-8.20268
-8.21388
-8.22284
-8.22936
-8.23323
-8.23425
-8.23221
-8.2269
-8.21809
-8.20556
-8.18909
-8.16846
-8.14343
-8.11378
-8.07928
-8.03972
-7.99486
-7.94451
-7.88845
-7.82647
-7.75839
-7.68402
-7.60319
-7.51574
-7.42152
-7.32044
-7.21239
-7.09727
-6.975
-6.84554
-6.70886
-6.56498
-6.41392
-6.25572
-6.09049
-5.91833
-5.73937
-5.5538
-5.3618
-5.16359
-4.95943
-4.74958
-4.53435
-4.31403
-4.08898
-3.85953
-3.62605
-3.38888
-3.1484
-2.90495
-2.65892
-2.41064
-2.16046
-1.90871
-1.65572
-1.40176
-1.14717
-0.892186
-0.637124
-0.382172
-0.127607
0.126439
0.379708
0.63209
0.883377
1.13355
1.38246
1.63014
1.87657
2.12183
2.36594
2.60899
2.85111
3.09246
3.33327
3.57381
3.8144
4.05537
4.29707
4.53987
4.78419
5.03044
5.27905
5.53049
5.78519
6.04363
6.30625
6.5735
6.84574
7.12335
7.40657
7.69561
7.99054
8.29135
8.5978
8.90957
9.22612
9.54674
9.87049
10.1963
10.5229
10.8488
11.1726
11.4927
11.8074
12.115
12.4139
12.7024
12.9791
13.2424
13.4912
13.724
13.9399
14.1336
14.3157
14.4204
-7.13315
-7.14051
-7.15165
-7.16163
-7.16979
-7.17682
-7.18313
-7.18897
-7.19455
-7.20009
-7.20573
-7.21162
-7.21786
-7.22453
-7.2317
-7.23945
-7.24779
-7.25679
-7.26646
-7.27683
-7.28792
-7.29975
-7.31231
-7.32563
-7.33969
-7.3545
-7.37006
-7.38634
-7.40336
-7.42108
-7.43949
-7.45859
-7.47834
-7.49873
-7.51973
-7.54134
-7.56351
-7.58624
-7.60949
-7.63323
-7.65744
-7.68209
-7.70713
-7.73253
-7.75823
-7.7842
-7.81038
-7.8367
-7.86312
-7.88954
-7.9159
-7.94212
-7.9681
-7.99374
-8.01894
-8.04359
-8.06757
-8.09075
-8.11299
-8.13416
-8.1541
-8.17266
-8.18968
-8.20498
-8.21838
-8.22971
-8.23876
-8.24535
-8.24928
-8.25033
-8.24829
-8.24295
-8.23409
-8.22149
-8.20491
-8.18413
-8.15894
-8.12908
-8.09435
-8.05452
-8.00937
-7.95868
-7.90224
-7.83985
-7.77133
-7.69647
-7.61512
-7.52711
-7.4323
-7.33057
-7.22183
-7.106
-6.98298
-6.85273
-6.71524
-6.5705
-6.41856
-6.25947
-6.09331
-5.92021
-5.74031
-5.55379
-5.36084
-5.1617
-4.95662
-4.74588
-4.52979
-4.30868
-4.08288
-3.85274
-3.61864
-3.38093
-3.13999
-2.89619
-2.64989
-2.40145
-2.15121
-1.89951
-1.64665
-1.39294
-1.13868
-0.884132
-0.629585
-0.375264
-0.121406
0.131803
0.384151
0.635478
0.885623
1.13452
1.38207
1.62829
1.87318
2.11677
2.35913
2.60034
2.84054
3.07992
3.31872
3.55724
3.79576
4.03465
4.27426
4.51498
4.75721
5.00141
5.24799
5.49744
5.75022
6.00683
6.26772
6.53336
6.80414
7.08046
7.36258
7.65076
7.94506
8.2455
8.55187
8.86385
9.1809
9.50232
9.82717
10.1543
10.4825
10.8103
11.136
11.4582
11.775
12.0848
12.3858
12.6763
12.9546
13.2192
13.4688
13.7015
13.9165
14.1082
14.2876
14.3882
-7.14596
-7.15268
-7.16277
-7.17197
-7.17966
-7.18638
-7.19249
-7.1982
-7.20371
-7.2092
-7.21482
-7.22069
-7.22691
-7.23357
-7.24073
-7.24846
-7.25679
-7.26577
-7.27542
-7.28578
-7.29686
-7.30867
-7.32122
-7.33453
-7.34858
-7.36339
-7.37894
-7.39523
-7.41225
-7.42998
-7.44841
-7.46752
-7.4873
-7.50774
-7.52881
-7.5505
-7.57278
-7.59564
-7.61904
-7.64295
-7.66733
-7.69217
-7.7174
-7.743
-7.76891
-7.79509
-7.82148
-7.84803
-7.87466
-7.90131
-7.9279
-7.95433
-7.98052
-8.00637
-8.03176
-8.05659
-8.08074
-8.10407
-8.12645
-8.14773
-8.16777
-8.18641
-8.20349
-8.21882
-8.23224
-8.24355
-8.25257
-8.2591
-8.26294
-8.26388
-8.2617
-8.2562
-8.24714
-8.23432
-8.21749
-8.19644
-8.17093
-8.14074
-8.10564
-8.06541
-8.01983
-7.96867
-7.91174
-7.84883
-7.77974
-7.70429
-7.62231
-7.53364
-7.43812
-7.33567
-7.22617
-7.10954
-6.98569
-6.85459
-6.71621
-6.57058
-6.41771
-6.25767
-6.09056
-5.91649
-5.73562
-5.54812
-5.35421
-5.15412
-4.94811
-4.73649
-4.51956
-4.29765
-4.07112
-3.84032
-3.60562
-3.36742
-3.12608
-2.88199
-2.6355
-2.387
-2.13679
-1.88525
-1.63265
-1.37933
-1.12554
-0.871601
-0.617725
-0.364215
-0.111244
0.14092
0.392154
0.642205
0.891014
1.13842
1.38443
1.62897
1.8721
2.11383
2.35424
2.59342
2.83153
3.06879
3.30545
3.54179
3.77814
4.01485
4.25228
4.49084
4.73094
4.97303
5.21758
5.46505
5.71595
5.97076
6.22999
6.4941
6.76355
7.0387
7.3199
7.60736
7.90124
8.20149
8.508
8.82039
9.13818
9.46061
9.78677
10.1155
10.4455
10.7752
11.103
11.4274
11.7465
12.0586
12.3617
12.6542
12.9342
13.2
13.4502
13.6829
13.8971
14.087
14.2642
14.3615
-7.15997
-7.16594
-7.17483
-7.18307
-7.19008
-7.19629
-7.20199
-7.20737
-7.21261
-7.21788
-7.22329
-7.22899
-7.23505
-7.24156
-7.2486
-7.25621
-7.26444
-7.27333
-7.28291
-7.2932
-7.30421
-7.31598
-7.32849
-7.34176
-7.35579
-7.37057
-7.38611
-7.4024
-7.41942
-7.43716
-7.45562
-7.47478
-7.49462
-7.51514
-7.53631
-7.55813
-7.58055
-7.60357
-7.62713
-7.65122
-7.67579
-7.70081
-7.72623
-7.75201
-7.77809
-7.80445
-7.83101
-7.85773
-7.88452
-7.91132
-7.93804
-7.9646
-7.99089
-8.01683
-8.0423
-8.06718
-8.09135
-8.11469
-8.13706
-8.15831
-8.17829
-8.19684
-8.21381
-8.22901
-8.24227
-8.25341
-8.26222
-8.26853
-8.27211
-8.27278
-8.27031
-8.26448
-8.25509
-8.2419
-8.22469
-8.20323
-8.17729
-8.14665
-8.11108
-8.07035
-8.02424
-7.97254
-7.91503
-7.85151
-7.78179
-7.7057
-7.62303
-7.53365
-7.4374
-7.33417
-7.22388
-7.10642
-6.98172
-6.84975
-6.71047
-6.56392
-6.41012
-6.24913
-6.08106
-5.90603
-5.7242
-5.53574
-5.34089
-5.13987
-4.93298
-4.72051
-4.50278
-4.28013
-4.05294
-3.82156
-3.58638
-3.34779
-3.10618
-2.86193
-2.61541
-2.36698
-2.11699
-1.86578
-1.61364
-1.36088
-1.10778
-0.854612
-0.601628
-0.349106
-0.0972707
0.153667
0.403533
0.652125
0.899344
1.14508
1.3893
1.63198
1.87314
2.11281
2.35108
2.58806
2.82394
3.05893
3.29332
3.52738
3.76146
3.99589
4.23108
4.46742
4.70536
4.94534
5.18785
5.43336
5.68242
5.93551
6.19316
6.45586
6.72408
6.99821
7.27861
7.56554
7.85915
8.15943
8.46624
8.77926
9.09797
9.42161
9.74925
10.0797
10.4116
10.7434
11.0734
11.4001
11.7215
12.0359
12.3413
12.6357
12.9173
13.1843
13.4352
13.6678
13.8812
14.0695
14.2447
14.3396
-7.17459
-7.17975
-7.18737
-7.19453
-7.20069
-7.20619
-7.21127
-7.21612
-7.22088
-7.22572
-7.23076
-7.23611
-7.24188
-7.24813
-7.25493
-7.26233
-7.27038
-7.27911
-7.28854
-7.2987
-7.30961
-7.32127
-7.33371
-7.34691
-7.36088
-7.37563
-7.39114
-7.40741
-7.42443
-7.4422
-7.4607
-7.47992
-7.49984
-7.52046
-7.54173
-7.56366
-7.5862
-7.60934
-7.63303
-7.65724
-7.68192
-7.70705
-7.73256
-7.75842
-7.78458
-7.81099
-7.83759
-7.86433
-7.89113
-7.91793
-7.94462
-7.97112
-7.99735
-8.02319
-8.04853
-8.07327
-8.09728
-8.12042
-8.14257
-8.16358
-8.18331
-8.20158
-8.21825
-8.23313
-8.24605
-8.25683
-8.26528
-8.2712
-8.27438
-8.27463
-8.27172
-8.26545
-8.25559
-8.24192
-8.22422
-8.20226
-8.1758
-8.14463
-8.10851
-8.06721
-8.02052
-7.96822
-7.91009
-7.84594
-7.77557
-7.69879
-7.61545
-7.52534
-7.42836
-7.32437
-7.21329
-7.09503
-6.96951
-6.83669
-6.69656
-6.54913
-6.39445
-6.23258
-6.06362
-5.8877
-5.70499
-5.51566
-5.31996
-5.11813
-4.91046
-4.69725
-4.47886
-4.25562
-4.0279
-3.7961
-3.5606
-3.32179
-3.08009
-2.83586
-2.5895
-2.34136
-2.0918
-1.84113
-1.58967
-1.33768
-1.08548
-0.833284
-0.581426
-0.330118
-0.07965
0.169849
0.418113
0.665039
0.910443
1.15431
1.39654
1.63716
1.87615
2.11359
2.34956
2.5842
2.81771
3.05034
3.28235
3.51406
3.74578
3.97791
4.21082
4.44495
4.68072
4.91862
5.15912
5.40276
5.65004
5.90151
6.15769
6.41911
6.68622
6.95949
7.23926
7.52582
7.81932
8.11979
8.42707
8.74087
9.06063
9.38563
9.71487
10.0472
10.3811
10.715
11.0473
11.3763
11.7001
12.0168
12.3243
12.6206
12.9038
13.172
13.4234
13.656
13.8687
14.0556
14.229
14.3221
-7.18991
-7.19427
-7.20063
-7.20661
-7.21175
-7.2163
-7.22052
-7.22456
-7.22859
-7.23276
-7.23721
-7.24202
-7.24731
-7.25313
-7.25955
-7.26662
-7.27436
-7.28282
-7.29202
-7.30197
-7.31269
-7.32419
-7.33647
-7.34954
-7.3634
-7.37806
-7.39349
-7.4097
-7.42668
-7.44441
-7.46288
-7.48209
-7.50201
-7.52264
-7.54392
-7.56585
-7.58839
-7.6115
-7.63515
-7.65931
-7.68393
-7.70897
-7.73438
-7.76013
-7.78615
-7.8124
-7.83882
-7.86536
-7.89193
-7.91847
-7.94489
-7.97109
-7.99699
-8.02248
-8.04745
-8.07179
-8.09538
-8.11809
-8.13979
-8.16034
-8.17958
-8.19737
-8.21353
-8.22791
-8.24032
-8.25058
-8.25849
-8.26388
-8.26652
-8.26622
-8.26277
-8.25595
-8.24553
-8.23132
-8.21305
-8.19052
-8.16351
-8.13176
-8.09507
-8.05318
-8.00591
-7.953
-7.8943
-7.82953
-7.75855
-7.68114
-7.59713
-7.50637
-7.4087
-7.30403
-7.19224
-7.07325
-6.947
-6.81344
-6.67256
-6.52438
-6.36894
-6.20632
-6.03661
-5.85996
-5.67652
-5.48649
-5.29011
-5.08764
-4.87938
-4.66565
-4.44679
-4.22317
-3.99516
-3.76315
-3.52756
-3.28878
-3.04722
-2.80327
-2.55732
-2.30973
-2.06085
-1.81099
-1.56044
-1.30948
-1.0584
-0.807461
-0.556963
-0.307153
-0.0582626
0.189522
0.435981
0.680974
0.924377
1.16614
1.40619
1.64454
1.88119