/*--------------------------------*- C++ -*----------------------------------*\
  =========                 |
  \\      /  F ield         | OpenFOAM: The Open Source CFD Toolbox
   \\    /   O peration     | Website:  https://openfoam.org
    \\  /    A nd           | Version:  8
     \\/     M anipulation  |
\*---------------------------------------------------------------------------*/
FoamFile
{
    version     2.0;
    format      ascii;
    class       surfaceScalarField;
    location    "190";
    object      phi;
}
// * * * * * * * * * * * * * * * * * * * * * * * * * * * * * * * * * * * * * //

dimensions      [0 3 -1 0 0 0 0];

internalField   nonuniform List<scalar> 
24170
(
3.129e-06
5.94007e-08
3.04662e-06
8.23808e-08
2.97352e-06
7.30946e-08
2.90488e-06
6.86367e-08
2.84055e-06
6.43341e-08
2.78321e-06
5.73324e-08
2.73388e-06
4.93327e-08
2.69191e-06
4.19624e-08
2.65622e-06
3.56885e-08
2.62575e-06
3.04651e-08
2.59952e-06
2.62252e-08
2.57669e-06
2.28278e-08
2.55659e-06
2.01e-08
2.53862e-06
1.79717e-08
2.52238e-06
1.6235e-08
2.50673e-06
1.5645e-08
2.49219e-06
1.45437e-08
2.07974e-08
2.47139e-06
3.45306e-06
2.35858e-08
3.457e-06
7.8439e-08
3.45054e-06
7.95558e-08
3.43908e-06
8.00941e-08
3.4243e-06
7.9114e-08
3.40704e-06
7.45836e-08
3.38781e-06
6.85562e-08
3.36728e-06
6.24954e-08
3.34612e-06
5.68446e-08
3.32492e-06
5.16592e-08
3.30417e-06
4.69734e-08
3.28414e-06
4.2856e-08
3.26502e-06
3.92156e-08
3.24685e-06
3.61407e-08
3.22971e-06
3.3366e-08
3.21356e-06
3.17928e-08
3.19874e-06
2.93594e-08
3.20307e-08
3.18751e-06
3.66816e-06
1.79432e-08
3.6792e-06
6.7399e-08
3.68542e-06
7.33303e-08
3.68945e-06
7.60624e-08
3.69104e-06
7.75197e-08
3.69007e-06
7.5554e-08
3.68693e-06
7.16987e-08
3.68208e-06
6.73441e-08
3.67591e-06
6.30064e-08
3.66876e-06
5.88116e-08
3.66089e-06
5.48384e-08
3.65256e-06
5.11878e-08
3.64394e-06
4.78337e-08
3.6352e-06
4.48827e-08
3.62638e-06
4.2183e-08
3.61789e-06
4.02779e-08
3.60911e-06
3.81348e-08
3.8159e-08
3.60299e-06
3.92585e-06
1.74831e-08
3.93592e-06
5.73295e-08
3.94256e-06
6.66807e-08
3.9481e-06
7.05241e-08
3.95251e-06
7.31084e-08
3.95545e-06
7.26103e-08
3.95711e-06
7.00347e-08
3.95773e-06
6.67181e-08
3.95751e-06
6.32295e-08
3.95658e-06
5.97379e-08
3.95508e-06
5.63346e-08
3.95313e-06
5.3133e-08
3.95082e-06
5.01395e-08
3.94826e-06
4.74446e-08
3.94547e-06
4.49744e-08
3.94274e-06
4.30062e-08
3.93978e-06
4.10918e-08
3.99632e-08
3.93797e-06
4.2082e-06
1.64113e-08
4.21598e-06
4.95463e-08
4.22167e-06
6.09857e-08
4.22677e-06
6.54227e-08
4.23152e-06
6.83649e-08
4.23548e-06
6.8645e-08
4.23864e-06
6.68742e-08
4.24111e-06
6.4251e-08
4.24298e-06
6.135e-08
4.24436e-06
5.83588e-08
4.24532e-06
5.53767e-08
4.24594e-06
5.25149e-08
4.24627e-06
4.9805e-08
4.2464e-06
4.7316e-08
4.24635e-06
4.50187e-08
4.24632e-06
4.30402e-08
4.24623e-06
4.11754e-08
3.95701e-08
4.24662e-06
4.51071e-06
1.47892e-08
4.51688e-06
4.33744e-08
4.52212e-06
5.57393e-08
4.52693e-06
6.06092e-08
4.53164e-06
6.36566e-08
4.53588e-06
6.44018e-08
4.53955e-06
6.32076e-08
4.5427e-06
6.10988e-08
4.54541e-06
5.86386e-08
4.54774e-06
5.60271e-08
4.54974e-06
5.3373e-08
4.55147e-06
5.07804e-08
4.55298e-06
4.82971e-08
4.55432e-06
4.59734e-08
4.55553e-06
4.38026e-08
4.55674e-06
4.18315e-08
4.55796e-06
3.99534e-08
3.81295e-08
4.5594e-06
4.83433e-06
1.31798e-08
4.83962e-06
3.80788e-08
4.84474e-06
5.06179e-08
4.84944e-06
5.591e-08
4.85407e-06
5.9029e-08
4.85838e-06
6.00911e-08
4.86224e-06
5.93436e-08
4.86569e-06
5.7644e-08
4.8688e-06
5.55356e-08
4.87159e-06
5.32301e-08
4.87412e-06
5.0844e-08
4.87643e-06
4.84745e-08
4.87854e-06
4.61777e-08
4.88052e-06
4.39917e-08
4.88241e-06
4.19187e-08
4.88427e-06
3.99665e-08
4.88615e-06
3.80693e-08
3.61508e-08
4.88813e-06
5.18105e-06
1.17141e-08
5.18575e-06
3.33741e-08
5.19075e-06
4.56185e-08
5.19539e-06
5.12624e-08
5.19997e-06
5.44481e-08
5.20432e-06
5.57381e-08
5.20831e-06
5.53551e-08
5.21195e-06
5.40027e-08
5.21529e-06
5.2194e-08
5.21837e-06
5.01511e-08
5.22121e-06
4.79954e-08
5.22387e-06
4.58198e-08
5.22636e-06
4.36831e-08
5.22873e-06
4.16173e-08
5.23102e-06
3.96274e-08
5.23328e-06
3.7706e-08
5.23554e-06
3.58071e-08
3.38644e-08
5.23783e-06
5.55269e-06
1.03594e-08
5.55688e-06
2.91803e-08
5.56169e-06
4.08153e-08
5.56629e-06
4.66587e-08
5.57085e-06
4.98896e-08
5.57524e-06
5.13402e-08
5.57934e-06
5.12588e-08
5.58313e-06
5.02122e-08
5.58665e-06
4.86707e-08
5.58994e-06
4.68637e-08
5.59302e-06
4.49155e-08
5.59592e-06
4.29157e-08
5.59868e-06
4.09237e-08
5.60132e-06
3.89692e-08
5.60389e-06
3.70587e-08
5.60641e-06
3.51821e-08
5.60891e-06
3.33056e-08
3.13883e-08
5.61139e-06
5.95104e-06
9.09708e-09
5.95478e-06
2.54345e-08
5.95935e-06
3.62452e-08
5.9639e-06
4.21075e-08
5.96844e-06
4.53477e-08
5.97287e-06
4.6902e-08
5.97707e-06
4.70631e-08
5.98099e-06
4.62851e-08
5.98468e-06
4.49857e-08
5.98814e-06
4.33954e-08
5.99142e-06
4.16398e-08
5.99453e-06
3.98059e-08
5.9975e-06
3.79515e-08
6.00036e-06
3.61069e-08
6.00313e-06
3.42805e-08
6.00585e-06
3.24651e-08
6.00852e-06
3.06385e-08
2.87808e-08
6.01112e-06
6.37798e-06
7.9266e-09
6.38134e-06
2.20739e-08
6.38566e-06
3.19206e-08
6.39014e-06
3.76268e-08
6.39466e-06
4.08292e-08
6.39913e-06
4.24367e-08
6.40341e-06
4.27813e-08
6.40746e-06
4.22328e-08
6.41129e-06
4.11518e-08
6.41492e-06
3.97617e-08
6.41837e-06
3.81877e-08
6.42166e-06
3.65132e-08
6.42482e-06
3.47948e-08
6.42786e-06
3.30635e-08
6.43081e-06
3.13309e-08
6.43368e-06
2.95953e-08
6.43647e-06
2.78434e-08
2.60747e-08
6.43917e-06
5.74176e-06
7.00112e-09
5.74434e-06
1.94921e-08
5.7478e-06
2.84536e-08
5.75153e-06
3.39022e-08
5.75532e-06
3.70308e-08
5.75911e-06
3.86494e-08
5.76278e-06
3.91044e-08
5.7663e-06
3.87176e-08
5.76965e-06
3.78028e-08
5.77284e-06
3.65702e-08
5.77588e-06
3.5142e-08
5.77879e-06
3.35997e-08
5.78159e-06
3.19975e-08
5.78428e-06
3.03672e-08
5.78689e-06
2.87237e-08
5.78942e-06
2.70696e-08
5.79186e-06
2.53996e-08
2.37229e-08
5.79421e-06
6.99914e-06
6.01801e-09
7.00187e-06
1.67604e-08
7.00563e-06
2.46918e-08
7.00979e-06
2.97386e-08
7.0141e-06
3.27147e-08
7.01845e-06
3.42998e-08
7.02272e-06
3.48357e-08
7.02684e-06
3.45977e-08
7.03079e-06
3.38501e-08
7.03457e-06
3.27832e-08
7.0382e-06
3.15151e-08
7.04168e-06
3.01213e-08
7.04502e-06
2.86549e-08
7.04824e-06
2.7148e-08
7.05134e-06
2.56182e-08
7.05434e-06
2.40739e-08
7.05722e-06
2.25145e-08
2.09614e-08
7.05998e-06
8.53188e-06
4.98543e-09
8.53473e-06
1.39054e-08
8.53876e-06
2.06628e-08
8.54335e-06
2.51432e-08
8.5482e-06
2.78624e-08
8.55315e-06
2.93504e-08
8.55807e-06
2.99207e-08
8.56286e-06
2.98047e-08
8.56749e-06
2.92157e-08
8.57195e-06
2.83191e-08
8.57625e-06
2.72213e-08
8.58037e-06
2.59945e-08
8.58434e-06
2.46862e-08
8.58816e-06
2.33297e-08
8.59183e-06
2.19443e-08
8.59536e-06
2.0543e-08
8.59875e-06
1.91309e-08
1.77331e-08
8.60197e-06
1.04003e-05
3.91192e-09
1.04032e-05
1.0947e-08
1.04075e-05
1.63877e-08
1.04125e-05
2.01242e-08
1.04179e-05
2.24569e-08
1.04235e-05
2.37637e-08
1.04291e-05
2.43052e-08
1.04347e-05
2.42688e-08
1.04401e-05
2.38195e-08
1.04453e-05
2.30891e-08
1.04504e-05
2.21718e-08
1.04552e-05
2.11285e-08
1.04599e-05
2.00044e-08
1.04644e-05
1.88289e-08
1.04687e-05
1.76243e-08
1.04729e-05
1.64041e-08
1.04768e-05
1.51783e-08
1.3973e-08
1.04806e-05
1.26779e-05
2.80279e-09
1.2681e-05
7.87882e-09
1.26855e-05
1.1865e-08
1.26909e-05
1.4675e-08
1.26969e-05
1.64702e-08
1.27032e-05
1.74898e-08
1.27096e-05
1.79239e-08
1.27159e-05
1.79119e-08
1.27222e-05
1.7571e-08
1.27283e-05
1.69986e-08
1.27342e-05
1.62666e-08
1.27399e-05
1.54261e-08
1.27454e-05
1.45127e-08
1.27506e-05
1.3554e-08
1.27557e-05
1.25683e-08
1.27605e-05
1.15721e-08
1.27651e-05
1.0573e-08
9.59976e-09
1.27695e-05
1.54543e-05
1.64672e-09
1.54576e-05
4.65515e-09
1.54624e-05
7.036e-09
1.54683e-05
8.73502e-09
1.5475e-05
9.82698e-09
1.5482e-05
1.04373e-08
1.54893e-05
1.06752e-08
1.54966e-05
1.06249e-08
1.55038e-05
1.03564e-08
1.55108e-05
9.92906e-09
1.55177e-05
9.38914e-09
1.55244e-05
8.77085e-09
1.55308e-05
8.09943e-09
1.55369e-05
7.39453e-09
1.55428e-05
6.6711e-09
1.55485e-05
5.94172e-09
1.55538e-05
5.2139e-09
4.51133e-09
1.55589e-05
1.88389e-05
4.03722e-10
1.88424e-05
1.15024e-09
1.88477e-05
1.72617e-09
1.88543e-05
2.11208e-09
1.88618e-05
2.32873e-09
1.88698e-05
2.40391e-09
1.88782e-05
2.35951e-09
1.88866e-05
2.21515e-09
1.88949e-05
1.99078e-09
1.89031e-05
1.70447e-09
1.89112e-05
1.37126e-09
1.89189e-05
1.00355e-09
1.89264e-05
6.11877e-10
1.89336e-05
2.05356e-10
1.89405e-05
-2.08317e-10
1.8947e-05
-6.21931e-10
1.89533e-05
-1.03133e-09
-1.41841e-09
1.89592e-05
2.29648e-05
-1.02787e-09
2.29688e-05
-2.92582e-09
2.2975e-05
-4.48482e-09
2.29828e-05
-5.67047e-09
2.29917e-05
-6.50299e-09
2.30011e-05
-7.06777e-09
2.30109e-05
-7.45328e-09
2.30209e-05
-7.71297e-09
2.30307e-05
-7.88496e-09
2.30404e-05
-7.99925e-09
2.30499e-05
-8.08111e-09
2.3059e-05
-8.14386e-09
2.30678e-05
-8.19679e-09
2.30763e-05
-8.2431e-09
2.30844e-05
-8.28598e-09
2.30921e-05
-8.32447e-09
2.30994e-05
-8.36004e-09
-8.3806e-09
2.31063e-05
1.68118e-05
-2.152e-09
1.6815e-05
-6.10119e-09
1.68198e-05
-9.32112e-09
1.68258e-05
-1.16766e-08
1.68326e-05
-1.3225e-08
1.68397e-05
-1.41957e-08
1.6847e-05
-1.47742e-08
1.68543e-05
-1.50666e-08
1.68616e-05
-1.51494e-08
1.68687e-05
-1.50974e-08
1.68756e-05
-1.49607e-08
1.68822e-05
-1.47751e-08
1.68886e-05
-1.45585e-08
1.68947e-05
-1.43277e-08
1.69005e-05
-1.40884e-08
1.6906e-05
-1.38479e-08
1.69112e-05
-1.36067e-08
-1.33605e-08
1.69162e-05
1.46356e-05
-3.23163e-09
1.46387e-05
-9.19228e-09
1.46435e-05
-1.40415e-08
1.46492e-05
-1.74282e-08
1.46555e-05
-1.95222e-08
1.46621e-05
-2.0773e-08
1.46687e-05
-2.14515e-08
1.46754e-05
-2.16924e-08
1.46818e-05
-2.16283e-08
1.46881e-05
-2.13744e-08
1.46942e-05
-2.10076e-08
1.47e-05
-2.05715e-08
1.47055e-05
-2.00973e-08
1.47108e-05
-1.96053e-08
1.47158e-05
-1.91095e-08
1.47206e-05
-1.86163e-08
1.47251e-05
-1.81316e-08
-1.76496e-08
1.47294e-05
1.27411e-05
-4.24245e-09
1.27443e-05
-1.23231e-08
1.27491e-05
-1.88776e-08
1.27548e-05
-2.30812e-08
1.27607e-05
-2.55116e-08
1.27669e-05
-2.6942e-08
1.27731e-05
-2.76355e-08
1.27791e-05
-2.77413e-08
1.2785e-05
-2.74665e-08
1.27906e-05
-2.69765e-08
1.27959e-05
-2.63613e-08
1.2801e-05
-2.56716e-08
1.28059e-05
-2.49458e-08
1.28105e-05
-2.4208e-08
1.28148e-05
-2.34753e-08
1.2819e-05
-2.27539e-08
1.28229e-05
-2.20505e-08
-2.13601e-08
1.28266e-05
1.10918e-05
-5.08709e-09
1.1095e-05
-1.55476e-08
1.11001e-05
-2.40074e-08
1.11058e-05
-2.87114e-08
1.11115e-05
-3.1254e-08
1.11173e-05
-3.27641e-08
1.1123e-05
-3.3373e-08
1.11286e-05
-3.3263e-08
1.11338e-05
-3.27365e-08
1.11388e-05
-3.19911e-08
1.11436e-05
-3.11183e-08
1.11481e-05
-3.01753e-08
1.11524e-05
-2.92042e-08
1.11564e-05
-2.82352e-08
1.11602e-05
-2.72814e-08
1.11638e-05
-2.6353e-08
1.11672e-05
-2.54517e-08
-2.45771e-08
1.11704e-05
9.65582e-06
-5.69485e-09
9.65925e-06
-1.89735e-08
9.66459e-06
-2.93562e-08
9.67009e-06
-3.42124e-08
9.67566e-06
-3.68174e-08
9.68122e-06
-3.83292e-08
9.68656e-06
-3.87123e-08
9.69159e-06
-3.82978e-08
9.69634e-06
-3.74886e-08
9.70083e-06
-3.6479e-08
9.70505e-06
-3.53478e-08
9.70903e-06
-3.41546e-08
9.71277e-06
-3.29471e-08
9.71629e-06
-3.17543e-08
9.7196e-06
-3.05916e-08
9.72271e-06
-2.94657e-08
9.72563e-06
-2.83789e-08
-2.73277e-08
9.72838e-06
8.40532e-06
-5.66591e-09
8.40964e-06
-2.32898e-08
8.41487e-06
-3.45935e-08
8.4199e-06
-3.92433e-08
8.42527e-06
-4.21871e-08
8.43068e-06
-4.37415e-08
8.43577e-06
-4.38025e-08
8.44048e-06
-4.30087e-08
8.44486e-06
-4.18628e-08
8.44892e-06
-4.0541e-08
8.45268e-06
-3.91131e-08
8.45617e-06
-3.76415e-08
8.45939e-06
-3.61756e-08
8.46238e-06
-3.47429e-08
8.46515e-06
-3.33587e-08
8.46771e-06
-3.2029e-08
8.47008e-06
-3.07559e-08
-2.95354e-08
8.47229e-06
7.31455e-06
-2.92846e-09
7.32119e-06
-2.99341e-08
7.32674e-06
-4.01466e-08
7.33169e-06
-4.4197e-08
7.33709e-06
-4.75879e-08
7.34242e-06
-4.90657e-08
7.3473e-06
-4.86839e-08
7.35171e-06
-4.74253e-08
7.35569e-06
-4.58445e-08
7.35925e-06
-4.41004e-08
7.36241e-06
-4.22731e-08
7.36521e-06
-4.04365e-08
7.36767e-06
-3.86414e-08
7.36984e-06
-3.69126e-08
7.37174e-06
-3.52655e-08
7.37342e-06
-3.37026e-08
7.37488e-06
-3.22244e-08
-3.08211e-08
7.37617e-06
6.36245e-06
4.6872e-09
6.37189e-06
-3.93768e-08
6.37932e-06
-4.75752e-08
6.38596e-06
-5.08402e-08
6.39224e-06
-5.38722e-08
6.39756e-06
-5.43812e-08
6.40186e-06
-5.29814e-08
6.40534e-06
-5.09088e-08
6.40814e-06
-4.86473e-08
6.41033e-06
-4.6288e-08
6.41196e-06
-4.39091e-08
6.41311e-06
-4.15862e-08
6.41384e-06
-3.9371e-08
6.41421e-06
-3.7281e-08
6.41427e-06
-3.53304e-08
6.41408e-06
-3.35151e-08
6.41369e-06
-3.18359e-08
-3.0274e-08
6.41314e-06
5.5412e-06
8.94932e-09
5.55033e-06
-4.85006e-08
5.55834e-06
-5.55949e-08
5.56605e-06
-5.85442e-08
5.57251e-06
-6.03359e-08
5.57684e-06
-5.87081e-08
5.57908e-06
-5.52253e-08
5.57964e-06
-5.14708e-08
5.57889e-06
-4.78964e-08
5.5771e-06
-4.45061e-08
5.57451e-06
-4.13182e-08
5.5713e-06
-3.83754e-08
5.56762e-06
-3.5686e-08
5.56358e-06
-3.32417e-08
5.55928e-06
-3.10393e-08
5.55483e-06
-2.90619e-08
5.5503e-06
-2.73118e-08
-2.5739e-08
5.54577e-06
4.86004e-06
-2.34871e-08
4.86539e-06
-5.38435e-08
4.86524e-06
-5.54509e-08
4.86217e-06
-5.54767e-08
4.857e-06
-5.51674e-08
4.8495e-06
-5.12096e-08
4.83981e-06
-4.55313e-08
4.82841e-06
-4.00798e-08
4.81584e-06
-3.53255e-08
4.80257e-06
-3.12305e-08
4.78897e-06
-2.77229e-08
4.77533e-06
-2.474e-08
4.76185e-06
-2.22043e-08
4.74865e-06
-2.00449e-08
4.73583e-06
-1.8215e-08
4.72345e-06
-1.66818e-08
4.71162e-06
-1.54834e-08
-1.51389e-08
4.70102e-06
4.17919e-06
4.12535e-06
4.06989e-06
4.01442e-06
3.95925e-06
3.90804e-06
3.86251e-06
3.82243e-06
3.7871e-06
3.75587e-06
3.72815e-06
3.70341e-06
3.68121e-06
3.66116e-06
3.64294e-06
3.62626e-06
3.61078e-06
3.59564e-06
1.53451e-08
-1.53861e-08
2.89703e-08
-1.36911e-08
3.55868e-08
-6.6591e-09
3.48997e-08
6.36024e-10
2.7944e-08
6.92498e-09
1.61124e-08
1.17828e-08
7.78543e-10
1.53111e-08
-1.70947e-08
1.78257e-08
-3.67439e-08
1.96328e-08
-5.77408e-08
2.09511e-08
-7.97204e-08
2.19681e-08
-1.02567e-07
2.2801e-08
-1.26098e-07
2.35234e-08
-1.50317e-07
2.41721e-08
-1.75091e-07
2.47718e-08
-2.00473e-07
2.53334e-08
-2.26344e-07
2.58747e-08
-2.52801e-07
2.64082e-08
-2.79752e-07
2.69555e-08
-3.07316e-07
2.75171e-08
-3.35277e-07
2.79678e-08
-3.63539e-07
2.82193e-08
-3.91839e-07
2.83005e-08
-4.1996e-07
2.80788e-08
-4.4851e-07
2.85426e-08
-4.80173e-07
3.16094e-08
-5.18483e-07
3.82952e-08
-5.54983e-07
3.64158e-08
-5.85065e-07
3.00588e-08
-6.21277e-07
3.61189e-08
-6.61854e-07
4.05731e-08
-7.04198e-07
4.22622e-08
-7.46682e-07
4.24845e-08
-7.83723e-07
3.69823e-08
-8.30519e-07
4.68153e-08
-8.79788e-07
4.92229e-08
-9.17039e-07
3.72765e-08
-9.56703e-07
3.96218e-08
-9.97886e-07
4.12072e-08
-1.04001e-06
4.20812e-08
-1.08251e-06
4.25229e-08
-1.12527e-06
4.27234e-08
-1.16804e-06
4.27874e-08
-1.21084e-06
4.27614e-08
-1.25351e-06
4.26864e-08
-1.29611e-06
4.25713e-08
-1.33853e-06
4.24363e-08
-1.38084e-06
4.22783e-08
-1.42294e-06
4.21096e-08
-1.46489e-06
4.19224e-08
-1.50661e-06
4.17267e-08
-1.54816e-06
4.15119e-08
-1.58945e-06
4.12861e-08
-1.63053e-06
4.10395e-08
-1.67131e-06
4.07787e-08
-1.71184e-06
4.04921e-08
-1.75203e-06
4.01864e-08
-1.79192e-06
3.9851e-08
-1.83142e-06
3.94923e-08
-1.87056e-06
3.90983e-08
-1.90923e-06
3.8676e-08
-1.94749e-06
3.82147e-08
-1.9852e-06
3.77213e-08
-2.02242e-06
3.71838e-08
-2.05902e-06
3.66099e-08
-2.09504e-06
3.59882e-08
-2.13036e-06
3.53269e-08
-2.165e-06
3.46148e-08
-2.19886e-06
3.38606e-08
-2.23194e-06
3.30531e-08
-2.26413e-06
3.22016e-08
-2.29546e-06
3.12951e-08
-2.32579e-06
3.03426e-08
-2.35516e-06
2.93336e-08
-2.38343e-06
2.82778e-08
-2.41064e-06
2.71646e-08
-2.43665e-06
2.6004e-08
-2.46147e-06
2.47875e-08
-2.485e-06
2.35242e-08
-2.50724e-06
2.22042e-08
-2.52808e-06
2.08366e-08
-2.54753e-06
1.94128e-08
-2.56547e-06
1.79409e-08
-2.58191e-06
1.64107e-08
-2.59674e-06
1.48288e-08
-2.60995e-06
1.3185e-08
-2.62144e-06
1.14824e-08
-2.63116e-06
9.70555e-09
-2.63901e-06
7.85229e-09
-2.6449e-06
5.9024e-09
-2.64875e-06
3.84931e-09
-2.6505e-06
1.70832e-09
-2.65014e-06
-4.01851e-10
-2.64788e-06
-2.3189e-09
-2.64387e-06
-4.06691e-09
-2.63817e-06
-5.77035e-09
-2.63077e-06
-7.45216e-09
-2.62171e-06
-9.12586e-09
-2.61097e-06
-1.07881e-08
-2.59859e-06
-1.24386e-08
-2.58456e-06
-1.40708e-08
-2.56892e-06
-1.56817e-08
-2.55168e-06
-1.7266e-08
-2.53288e-06
-1.88192e-08
-2.51255e-06
-2.03386e-08
-2.49073e-06
-2.18184e-08
-2.46746e-06
-2.3258e-08
-2.44281e-06
-2.46498e-08
-2.41681e-06
-2.59945e-08
-2.38952e-06
-2.72838e-08
-2.361e-06
-2.85195e-08
-2.33131e-06
-2.96931e-08
-2.30052e-06
-3.08071e-08
-2.26869e-06
-3.18541e-08
-2.23588e-06
-3.28373e-08
-2.20216e-06
-3.37508e-08
-2.16761e-06
-3.45964e-08
-2.1323e-06
-3.53681e-08
-2.09628e-06
-3.60684e-08
-2.05964e-06
-3.66991e-08
-2.02245e-06
-3.72652e-08
-1.98478e-06
-3.77503e-08
-1.94672e-06
-3.81587e-08
-1.90833e-06
-3.85152e-08
-1.86965e-06
-3.88052e-08
-1.83077e-06
-3.90281e-08
-1.79172e-06
-3.9201e-08
-1.75257e-06
-3.93238e-08
-1.71337e-06
-3.93652e-08
-1.67419e-06
-3.93662e-08
-1.63506e-06
-3.93102e-08
-1.59602e-06
-3.92279e-08
-1.55707e-06
-3.91021e-08
-1.51826e-06
-3.89668e-08
-1.47956e-06
-3.88025e-08
-1.44101e-06
-3.86462e-08
-1.40254e-06
-3.8466e-08
-1.36417e-06
-3.83149e-08
-1.32577e-06
-3.81547e-08
-1.28738e-06
-3.80375e-08
-1.24899e-06
-3.79498e-08
-1.21057e-06
-3.79533e-08
-1.17206e-06
-3.80398e-08
-1.13333e-06
-3.82412e-08
-1.09427e-06
-3.85578e-08
-1.05479e-06
-3.8975e-08
-1.01474e-06
-3.95274e-08
-9.73992e-07
-4.02195e-08
-9.32422e-07
-4.10367e-08
-8.89862e-07
-4.20086e-08
-8.46183e-07
-4.3124e-08
-8.01198e-07
-4.441e-08
-7.54758e-07
-4.58636e-08
-7.06683e-07
-4.74812e-08
-6.56836e-07
-4.92559e-08
-6.05049e-07
-5.11892e-08
-5.51182e-07
-5.32793e-08
-4.95081e-07
-5.5517e-08
-4.36607e-07
-5.79105e-08
-3.75621e-07
-6.04359e-08
-3.12005e-07
-6.3092e-08
-2.45642e-07
-6.58641e-08
-1.76549e-07
-6.8628e-08
-1.04811e-07
-7.13083e-08
-3.03983e-08
-7.40252e-08
4.71426e-08
-7.7206e-08
1.28161e-07
-8.07381e-08
2.12451e-07
-8.40644e-08
2.99768e-07
-8.7134e-08
3.89743e-07
-8.98384e-08
4.8194e-07
-9.20944e-08
5.75799e-07
-9.37929e-08
6.70676e-07
-9.48363e-08
7.65762e-07
-9.50756e-08
8.60059e-07
-9.43112e-08
9.52175e-07
-9.21539e-08
1.03974e-06
-8.76303e-08
1.11829e-06
-7.86118e-08
1.17538e-06
-5.71523e-08
9.19433e-09
1.16618e-06
7.6571e-09
-2.30816e-08
7.20518e-09
-1.3285e-08
1.96091e-09
-1.44105e-09
-6.57511e-09
9.14654e-09
-1.79926e-08
1.8325e-08
-3.22339e-08
2.60015e-08
-4.91407e-08
3.22033e-08
-6.84374e-08
3.70999e-08
-8.97593e-08
4.09416e-08
-1.1282e-07
4.39892e-08
-1.37338e-07
4.64746e-08
-1.63142e-07
4.8581e-08
-1.90071e-07
5.04428e-08
-2.18075e-07
5.21527e-08
-2.47088e-07
5.37757e-08
-2.77136e-07
5.53573e-08
-3.08202e-07
5.69339e-08
-3.40348e-07
5.85299e-08
-3.73561e-07
6.01632e-08
-4.07922e-07
6.18535e-08
-4.43583e-07
6.36257e-08
-4.80896e-07
6.5511e-08
-5.20145e-07
6.7545e-08
-5.61844e-07
6.97533e-08
-6.05704e-07
7.23938e-08
-6.49802e-07
7.56791e-08
-6.90305e-07
7.87823e-08
-7.33348e-07
7.94192e-08
-7.82145e-07
7.88373e-08
-8.26536e-07
8.04709e-08
-8.68216e-07
8.22386e-08
-9.09279e-07
8.32911e-08
-9.50519e-07
8.37161e-08
-9.97308e-07
8.37469e-08
-1.03621e-06
8.57182e-08
-1.07354e-06
8.65363e-08
-1.12007e-06
8.38064e-08
-1.16354e-06
8.30797e-08
-1.20523e-06
8.289e-08
-1.24593e-06
8.27753e-08
-1.28602e-06
8.26055e-08
-1.32567e-06
8.23642e-08
-1.36495e-06
8.20611e-08
-1.4039e-06
8.1708e-08
-1.44254e-06
8.13186e-08
-1.48087e-06
8.08993e-08
-1.51889e-06
8.04571e-08
-1.55662e-06
7.99927e-08
-1.59402e-06
7.95086e-08
-1.63111e-06
7.90017e-08
-1.66785e-06
7.84719e-08
-1.70427e-06
7.79144e-08
-1.74032e-06
7.7328e-08
-1.776e-06
7.67071e-08
-1.81128e-06
7.60493e-08
-1.84615e-06
7.53484e-08
-1.88058e-06
7.46025e-08
-1.91455e-06
7.38052e-08
-1.94802e-06
7.29543e-08
-1.98098e-06
7.20436e-08
-2.01339e-06
7.10717e-08
-2.04522e-06
7.00326e-08
-2.07643e-06
6.89251e-08
-2.10701e-06
6.77431e-08
-2.13689e-06
6.64862e-08
-2.16606e-06
6.51488e-08
-2.19447e-06
6.37311e-08
-2.2221e-06
6.22285e-08
-2.24888e-06
6.06416e-08
-2.27481e-06
5.8966e-08
-2.29981e-06
5.72031e-08
-2.32388e-06
5.53488e-08
-2.34694e-06
5.34052e-08
-2.36899e-06
5.13682e-08
-2.38996e-06
4.92405e-08
-2.40983e-06
4.70192e-08
-2.42854e-06
4.47078e-08
-2.44607e-06
4.23042e-08
-2.46237e-06
3.98116e-08
-2.47741e-06
3.72276e-08
-2.49114e-06
3.45562e-08
-2.50353e-06
3.17956e-08
-2.51455e-06
2.89495e-08
-2.52417e-06
2.60159e-08
-2.53234e-06
2.29995e-08
-2.53907e-06
1.9899e-08
-2.54432e-06
1.67195e-08
-2.54808e-06
1.34635e-08
-2.55037e-06
1.01373e-08
-2.55121e-06
6.75724e-09
-2.55072e-06
3.34432e-09
-2.54897e-06
-5.66239e-11
-2.546e-06
-3.40941e-09
-2.54163e-06
-6.72949e-09
-2.53569e-06
-1.00439e-08
-2.52814e-06
-1.3354e-08
-2.51898e-06
-1.66554e-08
-2.50819e-06
-1.99467e-08
-2.4958e-06
-2.32198e-08
-2.4818e-06
-2.64678e-08
-2.46622e-06
-2.96801e-08
-2.44907e-06
-3.28489e-08
-2.43039e-06
-3.59642e-08
-2.41019e-06
-3.90182e-08
-2.38853e-06
-4.20026e-08
-2.36544e-06
-4.49096e-08
-2.34096e-06
-4.77322e-08
-2.31514e-06
-5.04622e-08
-2.28803e-06
-5.30934e-08
-2.2597e-06
-5.56177e-08
-2.23019e-06
-5.80305e-08
-2.19956e-06
-6.03242e-08
-2.16788e-06
-6.24957e-08
-2.13521e-06
-6.45388e-08
-2.10161e-06
-6.64525e-08
-2.06715e-06
-6.82317e-08
-2.0319e-06
-6.98757e-08
-1.99592e-06
-7.13785e-08
-1.95927e-06
-7.27424e-08
-1.92204e-06
-7.39672e-08
-1.88429e-06
-7.50578e-08
-1.84608e-06
-7.60076e-08
-1.80748e-06
-7.68245e-08
-1.76854e-06
-7.75182e-08
-1.72933e-06
-7.80923e-08
-1.6899e-06
-7.85431e-08
-1.6503e-06
-7.88884e-08
-1.61059e-06
-7.91259e-08
-1.57081e-06
-7.92484e-08
-1.531e-06
-7.92764e-08
-1.4912e-06
-7.92207e-08
-1.45142e-06
-7.91e-08
-1.41169e-06
-7.89242e-08
-1.37202e-06
-7.87141e-08
-1.3324e-06
-7.84805e-08
-1.29284e-06
-7.8246e-08
-1.25329e-06
-7.80172e-08
-1.21372e-06
-7.78102e-08
-1.17408e-06
-7.7647e-08
-1.13434e-06
-7.75492e-08
-1.09447e-06
-7.75678e-08
-1.05441e-06
-7.77329e-08
-1.0141e-06
-7.80949e-08
-9.73409e-07
-7.86517e-08
-9.32242e-07
-7.94559e-08
-8.90449e-07
-8.04756e-08
-8.47918e-07
-8.17757e-08
-8.04489e-07
-8.33432e-08
-7.60019e-07
-8.52133e-08
-7.14327e-07
-8.73836e-08
-6.67249e-07
-8.98947e-08
-6.18594e-07
-9.27354e-08
-5.68192e-07
-9.59459e-08
-5.1584e-07
-9.94957e-08
-4.6136e-07
-1.03409e-07
-4.04553e-07
-1.07659e-07
-3.45245e-07
-1.12265e-07
-2.83262e-07
-1.17175e-07
-2.18446e-07
-1.2242e-07
-1.50657e-07
-1.27926e-07
-7.98445e-08
-1.33627e-07
-5.95744e-09
-1.39492e-07
7.11488e-08
-1.45501e-07
1.51625e-07
-1.5158e-07
2.35511e-07
-1.57731e-07
3.22401e-07
-1.63947e-07
4.11792e-07
-1.70001e-07
5.03459e-07
-1.75638e-07
5.97103e-07
-1.80701e-07
6.92346e-07
-1.85039e-07
7.88761e-07
-1.88479e-07
8.8583e-07
-1.90864e-07
9.82966e-07
-1.91983e-07
1.07944e-06
-1.91589e-07
1.17434e-06
-1.89259e-07
1.26641e-06
-1.84298e-07
1.35368e-06
-1.74977e-07
1.43325e-06
-1.58285e-07
1.49983e-06
-1.23809e-07
-4.53016e-08
1.55427e-06
-4.07147e-09
-1.90398e-08
-1.41694e-08
-3.21819e-09
-2.65083e-08
1.08817e-08
-4.03676e-08
2.29898e-08
-5.56252e-08
3.35716e-08
-7.24018e-08
4.27634e-08
-9.08346e-08
5.06263e-08
-1.11008e-07
5.72581e-08
-1.32893e-07
6.28171e-08
-1.56419e-07
6.74994e-08
-1.8146e-07
7.15068e-08
-2.07918e-07
7.50229e-08
-2.35684e-07
7.8201e-08
-2.64709e-07
8.11615e-08
-2.94935e-07
8.39946e-08
-3.26362e-07
8.67663e-08
-3.58958e-07
8.95234e-08
-3.92743e-07
9.2297e-08
-4.27691e-07
9.51076e-08
-4.6382e-07
9.79663e-08
-5.01073e-07
1.00876e-07
-5.39399e-07
1.03825e-07
-5.78644e-07
1.06787e-07
-6.18623e-07
1.0972e-07
-6.5883e-07
1.12595e-07
-6.98488e-07
1.15322e-07
-7.37263e-07
1.17549e-07
-7.7671e-07
1.18846e-07
-8.17338e-07
1.19455e-07
-8.57029e-07
1.20141e-07
-8.95569e-07
1.20769e-07
-9.33447e-07
1.2115e-07
-9.71103e-07
1.21365e-07
-1.0089e-06
1.21525e-07
-1.04496e-06
1.21782e-07
-1.08017e-06
1.21731e-07
-1.11716e-06
1.20797e-07
-1.15403e-06
1.19934e-07
-1.19037e-06
1.19228e-07
-1.22622e-06
1.18613e-07
-1.26164e-06
1.18029e-07
-1.29674e-06
1.17448e-07
-1.33153e-06
1.16856e-07
-1.36608e-06
1.16246e-07
-1.40038e-06
1.15617e-07
-1.43445e-06
1.14968e-07
-1.4683e-06
1.14298e-07
-1.50191e-06
1.13604e-07
-1.53529e-06
1.12884e-07
-1.56842e-06
1.12133e-07
-1.6013e-06
1.11347e-07
-1.63391e-06
1.10521e-07
-1.66624e-06
1.0965e-07
-1.69827e-06
1.08728e-07
-1.72997e-06
1.07749e-07
-1.76134e-06
1.06707e-07
-1.79234e-06
1.05597e-07
-1.82295e-06
1.04412e-07
-1.85315e-06
1.03146e-07
-1.88292e-06
1.01795e-07
-1.91221e-06
1.00353e-07
-1.941e-06
9.88142e-08
-1.96926e-06
9.71749e-08
-1.99695e-06
9.54296e-08
-2.02405e-06
9.35748e-08
-2.05051e-06
9.16059e-08
-2.07631e-06
8.952e-08
-2.1014e-06
8.73138e-08
-2.12575e-06
8.49849e-08
-2.14932e-06
8.25305e-08
-2.17207e-06
7.99492e-08
-2.19397e-06
7.72387e-08
-2.21496e-06
7.43983e-08
-2.23503e-06
7.14266e-08
-2.25412e-06
6.83235e-08
-2.27219e-06
6.50887e-08
-2.28921e-06
6.17235e-08
-2.30515e-06
5.82284e-08
-2.31995e-06
5.46051e-08
-2.33358e-06
5.08544e-08
-2.34601e-06
4.69794e-08
-2.3572e-06
4.29818e-08
-2.36712e-06
3.88655e-08
-2.37575e-06
3.46335e-08
-2.38305e-06
3.02914e-08
-2.389e-06
2.58445e-08
-2.39359e-06
2.13015e-08
-2.3968e-06
1.66712e-08
-2.39863e-06
1.19693e-08
-2.39908e-06
7.21076e-09
-2.39816e-06
2.42024e-09
-2.39586e-06
-2.38054e-09
-2.3921e-06
-7.18645e-09
-2.38685e-06
-1.2009e-08
-2.38006e-06
-1.68554e-08
-2.37173e-06
-2.17122e-08
-2.36184e-06
-2.65697e-08
-2.35039e-06
-3.14146e-08
-2.3374e-06
-3.6236e-08
-2.32286e-06
-4.10192e-08
-2.30681e-06
-4.57513e-08
-2.28925e-06
-5.04177e-08
-2.27021e-06
-5.50051e-08
-2.24973e-06
-5.95013e-08
-2.22783e-06
-6.38933e-08
-2.20457e-06
-6.81704e-08
-2.17997e-06
-7.23199e-08
-2.1541e-06
-7.63322e-08
-2.12699e-06
-8.01952e-08
-2.09871e-06
-8.39008e-08
-2.0693e-06
-8.74386e-08
-2.03882e-06
-9.0802e-08
-2.00734e-06
-9.39826e-08
-1.97491e-06
-9.69761e-08
-1.9416e-06
-9.97767e-08
-1.90746e-06
-1.02382e-07
-1.87257e-06
-1.04786e-07
-1.83698e-06
-1.06988e-07
-1.80075e-06
-1.08987e-07
-1.76396e-06
-1.10784e-07
-1.72666e-06
-1.12382e-07
-1.68892e-06
-1.13785e-07
-1.65079e-06
-1.14996e-07
-1.61233e-06
-1.16026e-07
-1.57359e-06
-1.16885e-07
-1.53462e-06
-1.17572e-07
-1.49547e-06
-1.181e-07
-1.45619e-06
-1.18476e-07
-1.41681e-06
-1.18702e-07
-1.37736e-06
-1.18795e-07
-1.33788e-06
-1.1878e-07
-1.29838e-06
-1.18673e-07
-1.25887e-06
-1.185e-07
-1.21936e-06
-1.18281e-07
-1.17985e-06
-1.18045e-07
-1.14031e-06
-1.17814e-07
-1.10072e-06
-1.17612e-07
-1.06103e-06
-1.17457e-07
-1.0212e-06
-1.17384e-07
-9.8118e-07
-1.17436e-07
-9.40931e-07
-1.17665e-07
-9.004e-07
-1.18132e-07
-8.59485e-07
-1.18874e-07
-8.1809e-07
-1.19928e-07
-7.7609e-07
-1.21327e-07
-7.33361e-07
-1.2309e-07
-6.8976e-07
-1.25251e-07
-6.45149e-07
-1.27843e-07
-5.99358e-07
-1.30884e-07
-5.52225e-07
-1.34408e-07
-5.03564e-07
-1.38438e-07
-4.53202e-07
-1.42991e-07
-4.00946e-07
-1.48086e-07
-3.46611e-07
-1.53728e-07
-2.89999e-07
-1.59909e-07
-2.30933e-07
-1.66626e-07
-1.69227e-07
-1.73866e-07
-1.04733e-07
-1.81579e-07
-3.73399e-08
-1.89721e-07
3.30581e-08
-1.98245e-07
1.0659e-07
-2.07083e-07
1.83329e-07
-2.16168e-07
2.63279e-07
-2.25389e-07
3.4636e-07
-2.3461e-07
4.32405e-07
-2.43725e-07
5.21104e-07
-2.52603e-07
6.121e-07
-2.60955e-07
7.05074e-07
-2.68574e-07
7.99665e-07
-2.75256e-07
8.9547e-07
-2.8081e-07
9.92034e-07
-2.85011e-07
1.08885e-06
-2.87646e-07
1.18532e-06
-2.8843e-07
1.28078e-06
-2.87014e-07
1.37437e-06
-2.82827e-07
1.46501e-06
-2.74921e-07
1.55131e-06
-2.61253e-07
1.63143e-06
-2.3839e-07
1.70441e-06
-1.96768e-07
-1.17894e-07
1.77704e-06
-1.29696e-08
-6.09449e-09
-2.93088e-08
1.30972e-08
-4.65321e-08
2.80933e-08
-6.43348e-08
4.07798e-08
-8.27589e-08
5.19876e-08
-1.01979e-07
6.19721e-08
-1.22186e-07
7.08256e-08
-1.43559e-07
7.86185e-08
-1.66199e-07
8.54498e-08
-1.90164e-07
9.1452e-08
-2.1544e-07
9.67757e-08
-2.42003e-07
1.01572e-07
-2.69788e-07
1.05979e-07
-2.98753e-07
1.10113e-07
-3.28827e-07
1.14062e-07
-3.59968e-07
1.17893e-07
-3.92096e-07
1.21647e-07
-4.25156e-07
1.25342e-07
-4.59033e-07
1.28981e-07
-4.93624e-07
1.32546e-07
-5.28756e-07
1.36006e-07
-5.64257e-07
1.39317e-07
-5.99895e-07
1.42425e-07
-6.35463e-07
1.4528e-07
-6.70715e-07
1.47845e-07
-7.05478e-07
1.50076e-07
-7.39804e-07
1.51871e-07
-7.74111e-07
1.5314e-07
-8.08591e-07
1.53929e-07
-8.42883e-07
1.54419e-07
-8.76798e-07
1.54677e-07
-9.10393e-07
1.54731e-07
-9.43667e-07
1.54634e-07
-9.76581e-07
1.54427e-07
-1.00892e-06
1.54116e-07
-1.04084e-06
1.53647e-07
-1.07297e-06
1.52924e-07
-1.10516e-06
1.52113e-07
-1.13724e-06
1.51299e-07
-1.16914e-06
1.50505e-07
-1.20084e-06
1.49727e-07
-1.23235e-06
1.48958e-07
-1.26369e-06
1.48188e-07
-1.29486e-06
1.4741e-07
-1.32586e-06
1.4662e-07
-1.35671e-06
1.45812e-07
-1.38739e-06
1.4498e-07
-1.41791e-06
1.4412e-07
-1.44825e-06
1.43225e-07
-1.47841e-06
1.4229e-07
-1.50837e-06
1.41307e-07
-1.53813e-06
1.4027e-07
-1.56765e-06
1.39171e-07
-1.59693e-06
1.38003e-07
-1.62594e-06
1.36759e-07
-1.65467e-06
1.35431e-07
-1.68309e-06
1.34011e-07
-1.71118e-06
1.32492e-07
-1.7389e-06
1.30867e-07
-1.76625e-06
1.29129e-07
-1.79317e-06
1.27272e-07
-1.81965e-06
1.25288e-07
-1.84566e-06
1.23173e-07
-1.87116e-06
1.20919e-07
-1.89611e-06
1.18523e-07
-1.92049e-06
1.15979e-07
-1.94426e-06
1.13282e-07
-1.96738e-06
1.10429e-07
-1.98982e-06
1.07416e-07
-2.01153e-06
1.04241e-07
-2.03249e-06
1.00901e-07
-2.05265e-06
9.73931e-08
-2.07197e-06
9.37165e-08
-2.09041e-06
8.98698e-08
-2.10795e-06
8.58528e-08
-2.12453e-06
8.16654e-08
-2.14012e-06
7.73088e-08
-2.15468e-06
7.27841e-08
-2.16817e-06
6.80934e-08
-2.18056e-06
6.32391e-08
-2.19181e-06
5.82248e-08
-2.20188e-06
5.30543e-08
-2.21075e-06
4.77327e-08
-2.21839e-06
4.22659e-08
-2.22477e-06
3.66613e-08
-2.22985e-06
3.09278e-08
-2.23364e-06
2.50758e-08
-2.23609e-06
1.91187e-08
-2.23719e-06
1.30696e-08
-2.23692e-06
6.94896e-09
-2.23527e-06
7.69237e-10
-2.23221e-06
-5.45265e-09
-2.2277e-06
-1.17133e-08
-2.22172e-06
-1.80124e-08
-2.21425e-06
-2.43458e-08
-2.20528e-06
-3.06979e-08
-2.19481e-06
-3.7054e-08
-2.18285e-06
-4.33955e-08
-2.16939e-06
-4.97065e-08
-2.15445e-06
-5.59678e-08
-2.13805e-06
-6.21617e-08
-2.1202e-06
-6.82694e-08
-2.10093e-06
-7.42734e-08
-2.08027e-06
-8.01569e-08
-2.05825e-06
-8.59029e-08
-2.03492e-06
-9.14967e-08
-2.01031e-06
-9.69217e-08
-1.98447e-06
-1.02165e-07
-1.95745e-06
-1.07211e-07
-1.9293e-06
-1.12049e-07
-1.90007e-06
-1.16665e-07
-1.86982e-06
-1.21053e-07
-1.83861e-06
-1.252e-07
-1.80649e-06
-1.29103e-07
-1.77352e-06
-1.32753e-07
-1.73976e-06