/*--------------------------------*- C++ -*----------------------------------*\
  =========                 |
  \\      /  F ield         | OpenFOAM: The Open Source CFD Toolbox
   \\    /   O peration     | Website:  https://openfoam.org
    \\  /    A nd           | Version:  8
     \\/     M anipulation  |
\*---------------------------------------------------------------------------*/
FoamFile
{
    version     2.0;
    format      ascii;
    class       volVectorField;
    location    "190";
    object      U;
}
// * * * * * * * * * * * * * * * * * * * * * * * * * * * * * * * * * * * * * //

dimensions      [0 1 -1 0 0 0 0];

internalField   nonuniform List<vector> 
12225
(
(9.85698 -0.886442 0)
(9.66664 -0.740746 0)
(9.4557 -0.429481 0)
(9.22449 -0.222211 0)
(9.00643 -0.106453 0)
(8.81429 -0.0458614 0)
(8.64733 -0.0151687 0)
(8.50512 0.000460486 0)
(8.38336 0.00840306 0)
(8.28053 0.0122958 0)
(8.19198 0.0140219 0)
(8.11567 0.0150285 0)
(8.04866 0.0154203 0)
(7.98933 0.0156982 0)
(7.93557 0.0156969 0)
(7.88831 0.0160498 0)
(7.83264 0.0165934 0)
(7.82258 0.0120743 0)
(10.0545 0.227566 0)
(10.121 0.326913 0)
(10.1196 0.261573 0)
(10.0855 0.186545 0)
(10.0434 0.134675 0)
(9.99667 0.101124 0)
(9.94394 0.0793017 0)
(9.88515 0.0645839 0)
(9.82376 0.0542849 0)
(9.76118 0.0467085 0)
(9.69967 0.0409579 0)
(9.63975 0.0364361 0)
(9.58236 0.032815 0)
(9.52783 0.0300085 0)
(9.47576 0.0276422 0)
(9.42813 0.026996 0)
(9.37977 0.0246006 0)
(9.34668 0.0349045 0)
(10.0035 0.0579191 0)
(10.0303 0.0560092 0)
(10.0561 0.033785 0)
(10.0703 0.0329038 0)
(10.077 0.0406571 0)
(10.0778 0.0465593 0)
(10.0725 0.0493792 0)
(10.0613 0.0503321 0)
(10.046 0.0502421 0)
(10.0275 0.0495441 0)
(10.007 0.048524 0)
(9.98467 0.0473937 0)
(9.96143 0.0462608 0)
(9.93766 0.0452829 0)
(9.91355 0.0443611 0)
(9.88998 0.0442497 0)
(9.86632 0.043687 0)
(9.84449 0.0468617 0)
(9.99779 0.0110549 0)
(10.011 0.026612 0)
(10.035 0.0371576 0)
(10.0525 0.0480962 0)
(10.0643 0.055468 0)
(10.0734 0.058206 0)
(10.0794 0.0583843 0)
(10.0823 0.0576535 0)
(10.0826 0.0566205 0)
(10.0811 0.0554463 0)
(10.0779 0.0542063 0)
(10.0735 0.0530227 0)
(10.068 0.0519005 0)
(10.0618 0.0509649 0)
(10.0549 0.050131 0)
(10.0478 0.0498748 0)
(10.0406 0.0495041 0)
(10.0336 0.0505676 0)
(9.99935 0.00719984 0)
(10.009 0.0316599 0)
(10.0275 0.0439319 0)
(10.0418 0.0499373 0)
(10.0527 0.0536327 0)
(10.0628 0.0552649 0)
(10.0715 0.0555555 0)
(10.0782 0.0552796 0)
(10.0833 0.0547558 0)
(10.0871 0.0540787 0)
(10.0898 0.053308 0)
(10.0917 0.052544 0)
(10.0928 0.0518122 0)
(10.0933 0.0512053 0)
(10.0934 0.0506966 0)
(10.0932 0.0505236 0)
(10.0931 0.0503693 0)
(10.0931 0.0506982 0)
(10.0003 0.00918075 0)
(10.0083 0.031177 0)
(10.0227 0.040956 0)
(10.0349 0.0454111 0)
(10.045 0.0490636 0)
(10.0547 0.0514079 0)
(10.0637 0.0524014 0)
(10.0713 0.0526509 0)
(10.0777 0.0525393 0)
(10.0833 0.0522069 0)
(10.0881 0.0517343 0)
(10.0922 0.0512148 0)
(10.0957 0.0506932 0)
(10.0989 0.0502377 0)
(10.1017 0.0498492 0)
(10.1043 0.0496324 0)
(10.107 0.0494375 0)
(10.1098 0.0493067 0)
(10.0005 0.00894782 0)
(10.0071 0.0270942 0)
(10.0191 0.036428 0)
(10.0301 0.0414124 0)
(10.0395 0.0454445 0)
(10.0486 0.0481204 0)
(10.0572 0.0494032 0)
(10.0648 0.0498909 0)
(10.0716 0.0499883 0)
(10.0776 0.0498441 0)
(10.0831 0.0495404 0)
(10.0881 0.0491599 0)
(10.0927 0.048754 0)
(10.0969 0.048371 0)
(10.1009 0.0480198 0)
(10.1047 0.0477357 0)
(10.1086 0.047431 0)
(10.1125 0.0470229 0)
(10.0004 0.00791967 0)
(10.006 0.0233899 0)
(10.0161 0.0327532 0)
(10.0262 0.0381271 0)
(10.0351 0.0421317 0)
(10.0435 0.0448265 0)
(10.0517 0.0462524 0)
(10.0591 0.0469053 0)
(10.0658 0.0471528 0)
(10.072 0.0471424 0)
(10.0777 0.0469566 0)
(10.083 0.0466702 0)
(10.0879 0.0463353 0)
(10.0926 0.0459874 0)
(10.0971 0.0456346 0)
(10.1015 0.0452785 0)
(10.1058 0.0448559 0)
(10.1102 0.0442694 0)
(10.0004 0.00696465 0)
(10.0051 0.0204396 0)
(10.0137 0.0294744 0)
(10.0228 0.0348911 0)
(10.0311 0.0387526 0)
(10.0391 0.041427 0)
(10.0468 0.0429749 0)
(10.0539 0.043769 0)
(10.0605 0.0441348 0)
(10.0666 0.0442252 0)
(10.0723 0.0441243 0)
(10.0777 0.0439015 0)
(10.0828 0.0436065 0)
(10.0877 0.0432676 0)
(10.0923 0.0428902 0)
(10.0969 0.0424624 0)
(10.1014 0.0419336 0)
(10.1059 0.041229 0)
(10.0004 0.00613445 0)
(10.0043 0.0178761 0)
(10.0116 0.0262997 0)
(10.0198 0.0316154 0)
(10.0276 0.0353517 0)
(10.0351 0.0379915 0)
(10.0423 0.0396202 0)
(10.0492 0.0405184 0)
(10.0556 0.0409721 0)
(10.0616 0.0411365 0)
(10.0673 0.0410961 0)
(10.0726 0.0409155 0)
(10.0777 0.0406404 0)
(10.0826 0.0402953 0)
(10.0873 0.0398839 0)
(10.0919 0.0393916 0)
(10.0965 0.0387789 0)
(10.1009 0.0379991 0)
(10.0003 0.00537506 0)
(10.0037 0.0155685 0)
(10.0099 0.0232643 0)
(10.0172 0.0283834 0)
(10.0245 0.0319785 0)
(10.0315 0.0345426 0)
(10.0383 0.0361971 0)
(10.0449 0.03716 0)
(10.0511 0.0376748 0)
(10.0569 0.0378914 0)
(10.0625 0.0378932 0)
(10.0678 0.0377395 0)
(10.0728 0.0374725 0)
(10.0777 0.0371145 0)
(10.0824 0.0366693 0)
(10.0869 0.0361251 0)
(10.0913 0.035453 0)
(10.0957 0.0346307 0)
(10.0003 0.00471034 0)
(10.0032 0.0136287 0)
(10.0086 0.02062 0)
(10.0152 0.0254746 0)
(10.0219 0.0289045 0)
(10.0285 0.0313636 0)
(10.035 0.0329995 0)
(10.0413 0.0339892 0)
(10.0473 0.0345373 0)
(10.053 0.0347841 0)
(10.0584 0.03481 0)
(10.0636 0.0346705 0)
(10.0686 0.0344043 0)
(10.0733 0.0340327 0)
(10.0779 0.033561 0)
(10.0824 0.0329819 0)
(10.0867 0.0322757 0)
(10.091 0.0314384 0)
(10.0003 0.00409595 0)
(10.0028 0.0118606 0)
(10.0075 0.0181225 0)
(10.0134 0.0226362 0)
(10.0196 0.0258661 0)
(10.0258 0.0281946 0)
(10.032 0.0297789 0)
(10.038 0.0307675 0)
(10.0438 0.03133 0)
(10.0493 0.0315924 0)
(10.0546 0.031632 0)
(10.0597 0.0314998 0)
(10.0646 0.0312318 0)
(10.0693 0.0308486 0)
(10.0738 0.0303576 0)
(10.0781 0.0297565 0)
(10.0823 0.029033 0)
(10.0864 0.0281977 0)
(10.0002 0.00346127 0)
(10.0024 0.0100229 0)
(10.0064 0.0154436 0)
(10.0117 0.0194914 0)
(10.0174 0.0224376 0)
(10.0232 0.0245754 0)
(10.029 0.0260569 0)
(10.0347 0.0270063 0)
(10.0402 0.0275573 0)
(10.0456 0.0278181 0)
(10.0507 0.0278591 0)
(10.0556 0.027727 0)
(10.0604 0.0274542 0)
(10.0649 0.0270611 0)
(10.0693 0.0265571 0)
(10.0736 0.0259452 0)
(10.0776 0.0252199 0)
(10.0815 0.0244029 0)
(10.0002 0.00280225 0)
(10.002 0.00811401 0)
(10.0055 0.0125933 0)
(10.0101 0.0160452 0)
(10.0153 0.0186055 0)
(10.0206 0.0204767 0)
(10.026 0.0217908 0)
(10.0314 0.0226484 0)
(10.0367 0.0231504 0)
(10.0418 0.0233834 0)
(10.0467 0.0234079 0)
(10.0515 0.0232652 0)
(10.0561 0.022984 0)
(10.0605 0.0225835 0)
(10.0648 0.0220756 0)
(10.0688 0.0214667 0)
(10.0727 0.0207586 0)
(10.0764 0.0199771 0)
(10.0002 0.00211811 0)
(10.0017 0.00613583 0)
(10.0047 0.00957952 0)
(10.0087 0.0123018 0)
(10.0134 0.0143565 0)
(10.0183 0.0158679 0)
(10.0233 0.016935 0)
(10.0283 0.0176338 0)
(10.0333 0.018036 0)
(10.0382 0.0182047 0)
(10.0429 0.0181883 0)
(10.0475 0.0180203 0)
(10.0519 0.0177251 0)
(10.0562 0.0173201 0)
(10.0602 0.0168178 0)
(10.0642 0.0162275 0)
(10.0679 0.0155538 0)
(10.0714 0.014826 0)
(10.0002 0.0014058 0)
(10.0015 0.00407398 0)
(10.0041 0.00638566 0)
(10.0076 0.00824329 0)
(10.0118 0.00966109 0)
(10.0163 0.0107035 0)
(10.0209 0.0114314 0)
(10.0257 0.0118935 0)
(10.0304 0.0121344 0)
(10.035 0.012195 0)
(10.0395 0.0121076 0)
(10.0439 0.0118967 0)
(10.0481 0.0115803 0)
(10.0522 0.0111728 0)
(10.0561 0.0106847 0)
(10.0598 0.0101264 0)
(10.0634 0.00950242 0)
(10.0668 0.00884193 0)
(10.0001 0.000648729 0)
(10.0013 0.00187621 0)
(10.0036 0.00293863 0)
(10.0069 0.00378855 0)
(10.0107 0.00442725 0)
(10.0149 0.00487726 0)
(10.0192 0.00516139 0)
(10.0237 0.00529946 0)
(10.0281 0.0053105 0)
(10.0326 0.00521246 0)
(10.0369 0.00502034 0)
(10.0411 0.00474629 0)
(10.0451 0.00440003 0)
(10.049 0.00399013 0)
(10.0528 0.00352379 0)
(10.0563 0.00300846 0)
(10.0597 0.00244815 0)
(10.063 0.00186704 0)
(10.0001 -0.000196347 0)
(10.0013 -0.00058027 0)
(10.0035 -0.00093565 0)
(10.0066 -0.00125572 0)
(10.0103 -0.00153924 0)
(10.0143 -0.00179991 0)
(10.0185 -0.00205604 0)
(10.0228 -0.00231943 0)
(10.0272 -0.00259811 0)
(10.0314 -0.00289745 0)
(10.0356 -0.00322261 0)
(10.0397 -0.00357582 0)
(10.0436 -0.00395862 0)
(10.0473 -0.00437016 0)
(10.0509 -0.00480974 0)
(10.0544 -0.00527436 0)
(10.0577 -0.0057635 0)
(10.0608 -0.00625934 0)
(10.0001 -0.00100509 0)
(10.0013 -0.00293842 0)
(10.0037 -0.00466125 0)
(10.007 -0.00609707 0)
(10.0108 -0.00724174 0)
(10.015 -0.0081553 0)
(10.0193 -0.0088989 0)
(10.0237 -0.00951508 0)
(10.0281 -0.0100377 0)
(10.0324 -0.0104991 0)
(10.0365 -0.0109235 0)
(10.0406 -0.0113287 0)
(10.0444 -0.011725 0)
(10.0481 -0.012121 0)
(10.0517 -0.0125208 0)
(10.055 -0.0129278 0)
(10.0582 -0.0133432 0)
(10.0613 -0.013757 0)
(10.0002 -0.00170267 0)
(10.0015 -0.00499831 0)
(10.0041 -0.00791753 0)
(10.0078 -0.010263 0)
(10.012 -0.0120547 0)
(10.0165 -0.013443 0)
(10.021 -0.0145338 0)
(10.0256 -0.0153846 0)
(10.0301 -0.0160517 0)
(10.0344 -0.0165945 0)
(10.0387 -0.0170569 0)
(10.0427 -0.0174684 0)
(10.0466 -0.0178474 0)
(10.0503 -0.0182087 0)
(10.0538 -0.0185608 0)
(10.0571 -0.0189099 0)
(10.0603 -0.0192595 0)
(10.0633 -0.0196029 0)
(10.0002 -0.0023651 0)
(10.0017 -0.00703342 0)
(10.0047 -0.0111709 0)
(10.009 -0.014336 0)
(10.0137 -0.0166284 0)
(10.0185 -0.0183581 0)
(10.0234 -0.0196856 0)
(10.0282 -0.0206812 0)
(10.0329 -0.021427 0)
(10.0374 -0.0220037 0)
(10.0417 -0.0224684 0)
(10.0458 -0.0228572 0)
(10.0497 -0.0231976 0)
(10.0534 -0.023508 0)
(10.0569 -0.0238028 0)
(10.0603 -0.0240883 0)
(10.0634 -0.0243714 0)
(10.0664 -0.0246457 0)
(10.0002 -0.00298506 0)
(10.0018 -0.00909382 0)
(10.0054 -0.0144456 0)
(10.0105 -0.0183319 0)
(10.0159 -0.0210733 0)
(10.0212 -0.023093 0)
(10.0263 -0.0245463 0)
(10.0314 -0.0255583 0)
(10.0363 -0.0262835 0)
(10.041 -0.0268316 0)
(10.0454 -0.0272594 0)
(10.0495 -0.0276024 0)
(10.0535 -0.0278903 0)
(10.0572 -0.0281453 0)
(10.0607 -0.0283817 0)
(10.0641 -0.0286079 0)
(10.0672 -0.0288294 0)
(10.0702 -0.0290435 0)
(10.0001 -0.00353154 0)
(10.0018 -0.011549 0)
(10.0063 -0.017883 0)
(10.0123 -0.021979 0)
(10.0183 -0.0250445 0)
(10.0241 -0.0274525 0)
(10.0297 -0.0290893 0)
(10.0351 -0.0300982 0)
(10.0402 -0.0307497 0)
(10.0449 -0.0312089 0)
(10.0494 -0.031543 0)
(10.0537 -0.0317932 0)
(10.0577 -0.0319929 0)
(10.0615 -0.0321666 0)
(10.065 -0.032327 0)
(10.0683 -0.0324823 0)
(10.0714 -0.032635 0)
(10.0744 -0.0327831 0)
(9.99991 -0.00338057 0)
(10.0016 -0.0149666 0)
(10.0073 -0.022723 0)
(10.0142 -0.0262336 0)
(10.0206 -0.0288198 0)
(10.0269 -0.0311843 0)
(10.0331 -0.0329049 0)
(10.039 -0.0339922 0)
(10.0445 -0.0346914 0)
(10.0495 -0.035155 0)
(10.0541 -0.0354532 0)
(10.0584 -0.0356406 0)
(10.0624 -0.0357631 0)
(10.0661 -0.0358515 0)
(10.0695 -0.0359241 0)
(10.0727 -0.0359907 0)
(10.0756 -0.036056 0)
(10.0783 -0.0361187 0)
(9.9986 -0.000397948 0)
(9.99909 -0.0157554 0)
(10.0075 -0.0274273 0)
(10.0166 -0.0324874 0)
(10.0238 -0.0348633 0)
(10.0306 -0.0362185 0)
(10.0376 -0.0369697 0)
(10.0441 -0.0374358 0)
(10.0499 -0.037784 0)
(10.055 -0.038031 0)
(10.0596 -0.038176 0)
(10.0637 -0.0382448 0)
(10.0672 -0.0382666 0)
(10.0704 -0.0382628 0)
(10.0732 -0.0382488 0)
(10.0756 -0.0382327 0)
(10.0778 -0.0382187 0)
(10.0796 -0.0382043 0)
(9.99488 0.00133568 0)
(9.99288 -0.00809187 0)
(10.006 -0.0203497 0)
(10.0202 -0.0322738 0)
(10.0307 -0.0404753 0)
(10.0392 -0.0441461 0)
(10.0467 -0.0450578 0)
(10.0529 -0.0449125 0)
(10.0578 -0.044445 0)
(10.0617 -0.0438489 0)
(10.0647 -0.0432044 0)
(10.0668 -0.0425683 0)
(10.0683 -0.0419746 0)
(10.0691 -0.0414313 0)
(10.0695 -0.0409485 0)
(10.0693 -0.0405225 0)
(10.0689 -0.0401505 0)
(10.0681 -0.0398075 0)
(9.99473 -0.0305613 0)
(9.99925 -0.0228713 0)
(10.0147 -0.00263399 0)
(10.0304 -0.00190739 0)
(10.0434 -0.0116562 0)
(10.0533 -0.0209194 0)
(10.0594 -0.0272759 0)
(10.0619 -0.0315032 0)
(10.0615 -0.0342775 0)
(10.0591 -0.0359734 0)
(10.0551 -0.0369055 0)
(10.0498 -0.0373392 0)
(10.0435 -0.0374653 0)
(10.0365 -0.0374034 0)
(10.029 -0.037244 0)
(10.021 -0.0370421 0)
(10.0129 -0.036863 0)
(10.0047 -0.0366755 0)
(10.0273 -0.182758 0)
(10.0763 -0.288313 0)
(10.0871 -0.247754 0)
(10.0777 -0.186519 0)
(10.0664 -0.140295 0)
(10.0538 -0.10822 0)
(10.0365 -0.0858798 0)
(10.0145 -0.0704193 0)
(9.9894 -0.05965 0)
(9.96237 -0.0518761 0)
(9.9344 -0.046054 0)
(9.90609 -0.0415565 0)
(9.87792 -0.0380009 0)
(9.85022 -0.0351264 0)
(9.82324 -0.0327607 0)
(9.79707 -0.0308408 0)
(9.77199 -0.0293257 0)
(9.74799 -0.028508 0)
(9.93574 0.689319 0)
(9.86861 0.609605 0)
(9.76454 0.380623 0)
(9.62664 0.217442 0)
(9.4859 0.119268 0)
(9.35722 0.0631874 0)
(9.2427 0.0315761 0)
(9.14116 0.0136166 0)
(9.05149 0.00326369 0)
(8.97252 -0.00279766 0)
(8.90262 -0.00635333 0)
(8.84046 -0.00847261 0)
(8.78476 -0.00972352 0)
(8.73466 -0.0104703 0)
(8.68924 -0.0109737 0)
(8.6479 -0.0112432 0)
(8.60971 -0.0114512 0)
(8.57436 -0.0121129 0)
(0.00726989 -0.0169285 -7.74376e-19)
(0.0213915 -0.0199019 5.87169e-19)
(0.0298956 -0.0120918 0)
(0.0326532 -0.00207936 0)
(0.0290315 0.00666359 0)
(0.0204108 0.0130272 -2.5764e-19)
(0.00810581 0.0171685 0)
(-0.00684067 0.0196486 0)
(-0.023652 0.0210698 0)
(-0.0418218 0.0218959 0)
(-0.0610174 0.0224251 1.40115e-19)
(-0.0810382 0.0228141 0)
(-0.101753 0.0231335 0)
(-0.123087 0.0233929 0)
(-0.144988 0.0235861 0)
(-0.167429 0.023702 9.50663e-20)
(-0.190369 0.0237556 0)
(-0.213788 0.0237852 0)
(-0.237729 0.0238864 0)
(-0.262268 0.0242371 0)
(-0.287438 0.0248011 0)
(-0.31307 0.0259537 0)
(-0.338745 0.0283855 0)
(-0.3643 0.0318073 6.72493e-20)
(-0.389813 0.0384795 -6.54079e-20)
(-0.415713 0.0514445 6.555e-20)
(-0.443503 0.0695352 7.40913e-20)
(-0.477808 0.048941 0)
(-0.513848 0.00635803 0)
(-0.541692 0.0107176 -1.05809e-19)
(-0.576705 0.0177335 -9.99958e-20)
(-0.615224 0.0221791 0)
(-0.653091 0.0270035 0)
(-0.691874 0.0189894 -7.40289e-20)
(-0.730356 0.0635094 0)
(-0.766212 0.0760271 0)
(-0.811253 0.032655 7.68633e-20)
(-0.845445 0.033217 0)
(-0.882501 0.0343363 7.18999e-20)
(-0.920737 0.0349439 1.39184e-19)
(-0.959581 0.0351529 0)
(-0.99875 0.0351578 0)
(-1.03808 0.0350417 0)
(-1.07747 0.0348473 0)
(-1.11687 0.0346122 0)
(-1.15623 0.0343454 1.1699e-19)
(-1.19553 0.0340656 1.1405e-19)
(-1.23475 0.0337709 1.11279e-19)
(-1.27388 0.0334721 0)
(-1.3129 0.0331636 -1.06192e-19)
(-1.35181 0.0328533 0)
(-1.3906 0.0325333 1.01628e-19)
(-1.42924 0.0322101 9.95168e-20)
(-1.46773 0.0318761 0)
(-1.50605 0.0315364 0)
(-1.54418 0.0311823 0)
(-1.58209 0.0308188 9.20138e-20)
(-1.61978 0.0304382 0)
(-1.65721 0.0300451 0)
(-1.69435 0.029631 0)
(-1.73118 0.029201 0)
(-1.76767 0.0287476 0)
(-1.80378 0.0282756 0)
(-1.83947 0.0277768 0)
(-1.87472 0.027257 0)
(-1.90947 0.0267083 -7.90578e-20)
(-1.9437 0.0261367 0)
(-1.97736 0.0255348 0)
(-2.01041 0.0249087 7.55442e-20)
(-2.04279 0.0242515 7.4435e-20)
(-2.07448 0.0235692 0)
(-2.10541 0.022855 -7.22939e-20)
(-2.13554 0.022115 7.12571e-20)
(-2.16483 0.0213427 0)
(-2.19322 0.0205442 -6.92395e-20)
(-2.22067 0.0197131 0)
(-2.24713 0.0188557 0)
(-2.27254 0.0179667 6.63195e-20)
(-2.29686 0.017051 0)
(-2.32003 0.0161023 -6.44191e-20)
(-2.342 0.0151256 0)
(-2.36272 0.0141149 6.25371e-20)
(-2.38214 0.0130731 6.15981e-20)
(-2.40021 0.0119926 6.06582e-20)
(-2.41687 0.0108752 1.19431e-19)
(-2.43208 0.00971287 -1.17536e-19)
(-2.44576 0.00850547 0)
(-2.45786 0.00724352 0)
(-2.46828 0.00592701 0)
(-2.47695 0.00455227 -1.09819e-19)
(-2.4838 0.00313512 -1.07849e-19)
(-2.48874 0.00171886 1.05861e-19)
(-2.49165 0.000394359 0)
(-2.4926 -0.000773287 -1.0173e-19)
(-2.492 -0.00183552 -9.9582e-20)
(-2.48977 -0.00286855 -9.73832e-20)
(-2.48596 -0.00388573 0)
(-2.48057 -0.00489567 0)
(-2.47361 -0.0058952 0)
(-2.46509 -0.00688149 -8.80017e-20)
(-2.45501 -0.00785019 0)
(-2.44338 -0.00880083 0)
(-2.43022 -0.00973164 8.02767e-20)
(-2.41555 -0.0106401 0)
(-2.3994 -0.011525 0)
(-2.3818 -0.0123826 7.19008e-20)
(-2.36278 -0.0132126 0)
(-2.34239 -0.0140103 0)
(-2.32067 -0.0147762 -6.28391e-20)
(-2.29766 -0.0155052 -5.96629e-20)
(-2.27342 -0.0161985 0)
(-2.24799 -0.016851 5.30755e-20)
(-2.22144 -0.0174642 0)
(-2.19381 -0.0180337 -4.61765e-20)
(-2.16518 -0.0185612 0)
(-2.13559 -0.019042 -3.89709e-20)
(-2.10512 -0.019477 -3.52561e-20)
(-2.07382 -0.0198627 0)
(-2.04176 -0.0202028 0)
(-2.00901 -0.020502 0)
(-1.97563 -0.0207626 0)
(-1.94168 -0.0209452 0)
(-1.90726 -0.0210628 0)
(-1.87242 -0.0211611 0)
(-1.83721 -0.021215 -3.05228e-21)
(-1.8017 -0.0212149 -1.25506e-21)
(-1.76594 -0.021189 0)
(-1.72997 -0.021113 0)
(-1.69386 -0.0209555 0)
(-1.65766 -0.0207652 0)
(-1.62142 -0.0205327 -4.71683e-20)
(-1.58517 -0.0202683 0)
(-1.54893 -0.0199699 6.57e-20)
(-1.51274 -0.0196458 -7.50973e-20)
(-1.47658 -0.0192972 0)
(-1.44047 -0.0189265 0)
(-1.40441 -0.018525 0)
(-1.36834 -0.0181248 1.13564e-19)
(-1.33222 -0.0177065 1.23413e-19)
(-1.29602 -0.0172921 0)
(-1.25973 -0.0168707 1.43428e-19)
(-1.22334 -0.0164935 1.53613e-19)
(-1.18681 -0.0161454 -1.63965e-19)
(-1.15003 -0.0158551 0)
(-1.1129 -0.0156255 0)
(-1.07529 -0.0154255 -1.96242e-19)
(-1.03708 -0.0153162 0)
(-0.998152 -0.0152916 0)
(-0.958345 -0.0153421 0)
(-0.917517 -0.0154998 0)
(-0.875518 -0.0157647 2.57614e-19)
(-0.832169 -0.0161727 2.71795e-19)
(-0.787294 -0.0167296 0)
(-0.740723 -0.0174364 3.03155e-19)
(-0.692281 -0.018298 0)
(-0.641798 -0.019325 0)
(-0.589108 -0.0205379 3.61058e-19)
(-0.534046 -0.0219534 0)
(-0.476439 -0.0235832 4.10414e-19)
(-0.416141 -0.0254285 0)
(-0.352985 -0.0275046 0)
(-0.286837 -0.0298725 5.09533e-19)
(-0.217632 -0.0325675 0)
(-0.145402 -0.0354721 6.00687e-19)
(-0.0700512 -0.0384138 0)
(0.00817897 -0.0402912 0)
(0.0902737 -0.0410763 0)
(0.17626 -0.0418213 -6.20729e-19)
(0.265858 -0.042511 0)
(0.358771 -0.0430975 5.83903e-19)
(0.454594 -0.0435409 0)
(0.552828 -0.043791 0)
(0.652866 -0.0438022 0)
(0.753966 -0.0435215 0)
(0.855253 -0.0428725 0)
(0.955282 -0.0417206 0)
(1.05309 -0.039672 0)
(1.14142 -0.0360283 -1.00661e-18)
(1.22798 -0.0281001 0)
(1.23811 -0.00382445 0)
(0.00416868 -0.042231 1.73772e-18)
(0.0077557 -0.0309667 -9.27403e-19)
(0.00468823 -0.0117923 0)
(-0.00140034 0.00587781 2.77935e-19)
(-0.0102033 0.0209298 0)
(-0.0216625 0.032919 1.02652e-19)
(-0.0355959 0.0419648 -1.85966e-19)
(-0.0517898 0.0485392 -1.70745e-19)
(-0.0699535 0.0532431 0)
(-0.0897954 0.0566341 -1.47226e-19)
(-0.111061 0.059154 -6.90325e-20)
(-0.133553 0.061112 0)
(-0.157126 0.0627133 0)
(-0.181692 0.0640823 0)
(-0.207203 0.0653009 0)
(-0.233651 0.0664216 -5.40641e-20)
(-0.261037 0.0674948 0)
(-0.289397 0.0685609 1.01154e-19)
(-0.318783 0.0696666 0)
(-0.349221 0.0708567 0)
(-0.380768 0.0721469 -9.4289e-20)
(-0.413534 0.0734379 0)
(-0.447742 0.0745286 9.23827e-20)
(-0.483876 0.0751662 -4.66399e-20)
(-0.522047 0.0756361 4.7517e-20)
(-0.561487 0.0768413 -4.9286e-20)
(-0.600036 0.0792323 -5.20866e-20)
(-0.640388 0.0817454 0)
(-0.681583 0.0842523 0)
(-0.72336 0.0882359 5.27427e-20)
(-0.762295 0.0912152 -5.0224e-20)
(-0.799761 0.0926515 0)
(-0.836969 0.0927701 0)
(-0.877439 0.0918725 4.09097e-20)
(-0.913841 0.0906397 0)
(-0.951688 0.090991 0)
(-0.989964 0.0901434 -3.83397e-20)
(-1.03086 0.0907332 0)
(-1.06983 0.0910523 3.63019e-20)
(-1.10763 0.0909527 -7.13171e-20)
(-1.14478 0.0905267 0)
(-1.18152 0.0898854 0)
(-1.21795 0.0891102 -1.33299e-19)
(-1.25412 0.0882454 -1.30604e-19)
(-1.29005 0.0873288 -1.28041e-19)
(-1.32574 0.0863741 6.26398e-20)
(-1.36122 0.0853994 -6.17955e-20)
(-1.39646 0.0844055 -1.81732e-19)
(-1.43147 0.0834015 1.18921e-19)
(-1.46625 0.0823822 5.85998e-20)
(-1.50079 0.0813531 0)
(-1.53507 0.0803062 -5.66815e-20)
(-1.56908 0.0792451 5.54652e-20)
(-1.60282 0.0781615 0)
(-1.63625 0.0770577 0)
(-1.66937 0.0759242 0)
(-1.70216 0.0747635 -5.24607e-20)
(-1.73458 0.073567 0)
(-1.76663 0.072337 1.01616e-19)
(-1.79826 0.0710646 0)
(-1.82947 0.069753 9.87779e-20)
(-1.8602 0.0683943 0)
(-1.89045 0.0669916 -9.60806e-20)
(-1.92017 0.0655371 0)
(-1.94934 0.0640346 9.35015e-20)
(-1.97791 0.062477 -4.59956e-20)
(-2.00586 0.0608692 0)
(-2.03315 0.0592045 -8.98099e-20)
(-2.05975 0.0574886 -4.44273e-20)
(-2.08561 0.0557153 -4.38346e-20)
(-2.11071 0.0538905 0)
(-2.13499 0.0520087 -4.24536e-20)
(-2.15843 0.050076 -4.20893e-20)
(-2.18099 0.0480872 0)
(-2.20263 0.0460492 4.09433e-20)
(-2.2233 0.0439572 -8.05711e-20)
(-2.24298 0.0418187 0)
(-2.26162 0.0396306 -3.92306e-20)
(-2.27918 0.0373993 0)
(-2.29562 0.0351209 1.14117e-19)
(-2.31091 0.0328022 0)
(-2.32501 0.0304401 -1.10653e-19)
(-2.33789 0.0280406 -3.6329e-20)
(-2.3495 0.0255995 3.56603e-20)
(-2.35983 0.0231222 7.01458e-20)
(-2.36884 0.0206042 -6.89565e-20)
(-2.37651 0.0180487 0)
(-2.38282 0.0154504 0)
(-2.38777 0.0128102 0)
(-2.39136 0.0101276 1.91989e-19)
(-2.39367 0.00741221 6.26702e-20)
(-2.39477 0.00470208 -6.13397e-20)
(-2.39476 0.0020772 0)
(-2.39361 -0.000398899 -5.87046e-20)
(-2.39101 -0.00276014 5.71034e-20)
(-2.38691 -0.00506562 5.56352e-20)
(-2.3813 -0.00732472 0)
(-2.37417 -0.00954452 0)
(-2.36551 -0.0117217 0)
(-2.35534 -0.0138539 4.94717e-20)
(-2.34364 -0.0159342 0)
(-2.33046 -0.0179582 -9.28729e-20)
(-2.31579 -0.01992 -1.34089e-19)
(-2.29965 -0.0218153 8.61785e-20)
(-2.28209 -0.0236405 0)
(-2.26313 -0.0253909 3.99197e-20)
(-2.2428 -0.0270645 0)
(-2.22115 -0.028656 7.20761e-20)
(-2.19822 -0.0301644 -3.45505e-20)
(-2.17406 -0.0315844 -3.27052e-20)
(-2.1487 -0.032916 0)
(-2.12222 -0.0341545 -8.52612e-20)
(-2.09465 -0.0353011 5.32347e-20)
(-2.06605 -0.0363519 2.4253e-20)
(-2.03649 -0.0373097 0)
(-2.00602 -0.0381715 2.02696e-20)
(-1.97471 -0.0389395 5.56403e-20)
(-1.9426 -0.0396104 0)
(-1.90977 -0.0401875 2.92774e-20)
(-1.87627 -0.040672 2.51906e-20)
(-1.84218 -0.0410693 2.10874e-20)
(-1.80755 -0.0413792 0)
(-1.77244 -0.0416067 0)
(-1.73691 -0.0417554 0)
(-1.70101 -0.0418297 -2.76083e-21)
(-1.66481 -0.0418305 2.23183e-22)
(-1.62833 -0.0417671 0)
(-1.59166 -0.0416423 7.74161e-21)
(-1.55482 -0.0414516 1.18261e-20)
(-1.51785 -0.041207 0)
(-1.48079 -0.0409118 2.07878e-20)
(-1.44367 -0.0405821 4.78807e-20)
(-1.4065 -0.0402189 -2.87347e-20)
(-1.36931 -0.0398397 -3.10666e-20)
(-1.33208 -0.0394444 0)
(-1.29483 -0.0390528 0)
(-1.25752 -0.0386592 0)
(-1.22013 -0.0382805 -4.78645e-20)
(-1.1826 -0.0379191 5.02356e-20)
(-1.1449 -0.0375952 1.09062e-19)
(-1.10699 -0.0373261 -5.8709e-20)
(-1.06884 -0.0371339 6.1085e-20)
(-1.03037 -0.0370369 6.56422e-20)
(-0.99149 -0.037039 0)
(-0.952087 -0.037162 0)
(-0.912027 -0.0373868 -7.47594e-20)
(-0.871176 -0.0377422 0)
(-0.8294 -0.0382251 0)
(-0.786532 -0.0388409 1.69873e-19)
(-0.742407 -0.0395959 0)
(-0.696842 -0.0405023 9.10695e-20)
(-0.649645 -0.04156 -9.49797e-20)
(-0.600627 -0.0427844 0)
(-0.549591 -0.0441643 1.01057e-19)
(-0.496327 -0.0457075 0)
(-0.440629 -0.0474043 0)
(-0.382296 -0.0492623 -1.12977e-19)
(-0.321131 -0.0512648 2.33558e-19)
(-0.256941 -0.0534289 -1.21784e-19)
(-0.18957 -0.055755 0)
(-0.118853 -0.0582254 0)
(-0.0447729 -0.0607476 1.35638e-19)
(0.0327547 -0.0632087 0)
(0.114 -0.0656421 1.40406e-19)
(0.199113 -0.068202 0)
(0.287851 -0.0706955 0)
(0.379747 -0.0729133 0)
(0.474451 -0.0749019 1.52711e-19)
(0.571735 -0.0766126 0)
(0.671261 -0.0779859 -1.59109e-19)
(0.772625 -0.0789605 0)
(0.875352 -0.0794767 0)
(0.97888 -0.0794601 3.35812e-19)
(1.08253 -0.0788221 -3.42733e-19)
(1.18551 -0.077409 0)
(1.28657 -0.074962 0)
(1.38462 -0.0707484 0)
(1.47511 -0.0636008 1.11968e-18)
(1.56151 -0.0484554 0)
(1.61195 -0.0124486 -8.01487e-19)
(-0.00314182 -0.0430524 -1.0751e-21)
(-0.00851019 -0.0179826 8.83427e-19)
(-0.0178068 0.00668899 0)
(-0.0292455 0.0279725 -3.52291e-19)
(-0.0422076 0.0462229 0)
(-0.0564677 0.0615725 0)
(-0.0721339 0.0741485 4.34331e-23)
(-0.0893313 0.0842147 1.09533e-19)
(-0.108092 0.0921645 1.03209e-19)
(-0.128369 0.0984459 9.80122e-20)
(-0.15007 0.103489 0)
(-0.173093 0.10766 0)
(-0.197345 0.111245 -8.60224e-20)
(-0.22276 0.11446 -1.65928e-19)
(-0.249293 0.11746 1.60548e-19)
(-0.276926 0.120356 0)
(-0.305648 0.123232 1.51649e-19)
(-0.33546 0.12614 -7.40869e-20)
(-0.366368 0.129115 0)
(-0.398367 0.13217 1.41862e-19)
(-0.431406 0.135289 6.98104e-20)
(-0.46537 0.138436 -1.36989e-19)
(-0.500151 0.141577 -6.77366e-20)
(-0.53571 0.144729 0)
(-0.571869 0.148105 1.33185e-19)
(-0.60814 0.15186 1.33411e-19)
(-0.644041 0.155357 0)
(-0.680046 0.157019 1.33755e-19)
(-0.716468 0.15727 0)
(-0.752798 0.158045 1.26285e-19)
(-0.788226 0.158484 6.05783e-20)
(-0.822835 0.157993 0)
(-0.857037 0.156806 0)
(-0.891286 0.155182 0)
(-0.924876 0.154551 0)
(-0.957964 0.153433 0)
(-0.991289 0.150347 0)
(-1.02516 0.148143 9.84789e-20)
(-1.05878 0.146395 -1.44676e-19)
(-1.09198 0.144795 0)
(-1.12483 0.143211 0)
(-1.15739 0.141603 0)
(-1.18971 0.139964 1.58522e-22)
(-1.22183 0.138298 8.76002e-20)
(-1.25377 0.136614 1.71922e-19)
(-1.28555 0.134915 -1.68934e-19)
(-1.31717 0.133207 -8.29497e-20)
(-1.34862 0.131488 8.17396e-20)
(-1.37991 0.129758 -1.69845e-22)
(-1.41103 0.128014 7.89658e-20)
(-1.44197 0.126253 0)
(-1.47272 0.124469 7.65391e-20)
(-1.50327 0.122659 -1.72904e-22)
(-1.5336 0.120816 0)
(-1.56369 0.118937 0)
(-1.59353 0.117015 -7.21254e-20)
(-1.6231 0.115046 0)
(-1.65237 0.113024 0)
(-1.68133 0.110946 6.89537e-20)
(-1.70994 0.108806 1.36336e-19)
(-1.73819 0.106602 -6.73991e-20)
(-1.76604 0.104329 0)
(-1.79347 0.101986 6.55817e-20)
(-1.82045 0.0995683 0)
(-1.84694 0.0970749 6.35194e-20)
(-1.87291 0.0945027 6.29663e-20)
(-1.89834 0.0918523 -1.23945e-19)
(-1.92318 0.0891211 -6.09963e-20)
(-1.94741 0.0863105 0)
(-1.97098 0.0834189 1.18984e-19)
(-1.99386 0.0804482 0)
(-2.01601 0.0773974 1.73731e-19)
(-2.0374 0.0742694 1.14128e-19)
(-2.05799 0.0710636 1.1252e-19)
(-2.07774 0.0677835 -1.10915e-19)
(-2.09661 0.0644296 1.64061e-19)
(-2.11457 0.0610067 0)
(-2.13158 0.0575159 0)
(-2.1476 0.0539617 -1.04465e-19)
(-2.16258 0.0503455 -1.54321e-19)
(-2.17651 0.0466726 0)
(-2.18933 0.0429451 4.9821e-20)
(-2.20102 0.0391683 0)
(-2.21155 0.0353452 -1.44302e-19)
(-2.22088 0.0314823 -5.2529e-23)
(-2.229 0.0275841 3.40814e-23)
(-2.23588 0.0236596 9.0993e-20)
(-2.2415 0.019717 0)
(-2.24585 0.0157706 -8.7423e-20)
(-2.24894 0.0118383 4.37355e-23)
(-2.25075 0.00794339 0)
(-2.2513 0.00411093 0)
(-2.25053 0.000345457 0)
(-2.2484 -0.00337415 7.77787e-20)
(-2.24484 -0.00705681 0)
(-2.23983 -0.0106904 0)
(-2.23337 -0.0142683 0)
(-2.22544 -0.0177836 0)
(-2.21605 -0.0212287 0)
(-2.20519 -0.0245955 6.53124e-20)
(-2.19287 -0.0278752 0)
(-2.17911 -0.0310593 6.05453e-20)
(-2.16393 -0.0341396 5.82448e-20)
(-2.14734 -0.0371093 -5.59133e-20)
(-2.12937 -0.0399613 0)
(-2.11006 -0.0426902 -5.11614e-20)
(-2.08944 -0.0452897 0)
(-2.06755 -0.0477553 -4.62997e-20)
(-2.04442 -0.0500816 4.38314e-20)
(-2.02012 -0.0522651 1.24942e-19)
(-1.99467 -0.054302 0)
(-1.96814 -0.0561899 1.09877e-19)
(-1.94057 -0.0579269 3.47587e-20)
(-1.91202 -0.0595119 0)
(-1.88254 -0.0609452 5.82918e-20)
(-1.85219 -0.062227 5.31483e-20)
(-1.82103 -0.063358 -7.14391e-20)
(-1.78911 -0.0643384 0)
(-1.75649 -0.0651712 -1.82646e-20)
(-1.72323 -0.0658606 -1.56725e-20)
(-1.68939 -0.0664122 -4.03843e-20)
(-1.65503 -0.0668283 0)
(-1.62019 -0.0671158 0)
(-1.58494 -0.0672839 0)
(-1.54932 -0.0673399 -3.95227e-21)
(-1.51338 -0.0672842 0)
(-1.47717 -0.0671317 0)
(-1.44073 -0.0668856 -4.71317e-21)
(-1.4041 -0.0665463 -7.18071e-21)
(-1.36731 -0.0661276 0)
(-1.3304 -0.0656432 0)
(-1.29337 -0.0651069 -2.88406e-20)
(-1.25626 -0.0645323 0)
(-1.21905 -0.0639334 3.81777e-20)
(-1.18176 -0.0633245 4.1804e-20)
(-1.14437 -0.0627208 0)
(-1.10685 -0.0621317 0)
(-1.06917 -0.0615684 -5.51194e-20)
(-1.03128 -0.061049 -7.97671e-22)
(-0.993134 -0.0605943 -7.63298e-22)
(-0.954688 -0.0602351 0)
(-0.915893 -0.0599977 -1.43947e-19)
(-0.876666 -0.0599067 0)
(-0.836911 -0.0599703 0)
(-0.796511 -0.0602107 0)
(-0.755331 -0.0606237 8.71983e-20)
(-0.713245 -0.0612303 0)
(-0.670096 -0.0620376 -1.87343e-19)
(-0.625726 -0.0630541 -9.75515e-20)
(-0.579962 -0.0642875 0)
(-0.532618 -0.0657504 -1.04242e-19)
(-0.483502 -0.0674431 0)
(-0.432421 -0.0693781 0)
(-0.379171 -0.0715468 -3.42169e-19)
(-0.323544 -0.0739486 2.34831e-19)
(-0.265331 -0.0765738 0)
(-0.204339 -0.0794237 2.496e-19)
(-0.140375 -0.0824776 -1.29284e-19)
(-0.0732617 -0.0857252 0)
(-0.00293606 -0.089092 0)
(0.0707927 -0.0925382 0)
(0.14805 -0.0960946 -4.26393e-19)
(0.228899 -0.0997531 0)
(0.313331 -0.103429 -1.48813e-19)
(0.401218 -0.107046 0)
(0.492362 -0.110561 0)
(0.586396 -0.113835 0)
(0.682999 -0.116761 0)
(0.781842 -0.119253 0)
(0.882545 -0.121231 0)
(0.984677 -0.122603 -3.54235e-19)
(1.08775 -0.123287 0)
(1.1912 -0.12317 -1.88944e-19)
(1.29437 -0.122118 5.78811e-19)
(1.39651 -0.119901 0)
(1.49653 -0.116127 0)
(1.59346 -0.109896 -4.16836e-19)
(1.68427 -0.0996371 -4.31682e-19)
(1.77204 -0.0806166 4.42159e-19)
(1.83962 -0.0425455 4.65028e-19)
(-0.00933184 -0.0254652 -2.6269e-18)
(-0.0203924 0.00738798 -1.05474e-18)
(-0.0336488 0.0346463 -3.81431e-19)
(-0.0488956 0.0575967 -1.37108e-19)
(-0.0650498 0.0774359 0)
(-0.0818071 0.094588 1.9874e-19)
(-0.0993349 0.10925 -9.07877e-20)
(-0.117837 0.121617 0)
(-0.13745 0.131957 -8.02994e-20)
(-0.158245 0.140598 0)
(-0.180241 0.147886 1.47e-19)
(-0.203418 0.154151 0)
(-0.227737 0.159676 6.84663e-20)
(-0.253149 0.164691 1.32711e-19)
(-0.279609 0.169372 -1.28927e-19)
(-0.307068 0.173845 0)
(-0.335477 0.178195 -1.22394e-19)
(-0.364778 0.182466 0)
(-0.394897 0.186669 0)
(-0.425734 0.190785 -1.14188e-19)
(-0.457147 0.194759 0)
(-0.488957 0.198519 1.8832e-22)
(-0.520989 0.201991 0)
(-0.553091 0.205119 0)
(-0.585119 0.207894 -2.35264e-23)
(-0.616914 0.210267 -1.00467e-19)
(-0.648393 0.211974 -9.88634e-20)
(-0.67971 0.212697 -9.70243e-20)
(-0.711037 0.21259 0)
(-0.742287 0.212145 -1.85071e-19)
(-0.773271 0.211344 0)
(-0.803952 0.210129 -8.75886e-20)
(-0.834369 0.208582 0)
(-0.864545 0.206839 0)
(-0.8944 0.20506 8.12298e-20)
(-0.923956 0.20296 0)
(-0.953453 0.200274 -7.7863e-20)
(-0.983051 0.197605 -2.01872e-24)
(-1.01264 0.195076 1.49467e-19)
(-1.04214 0.19266 -1.46534e-19)
(-1.0715 0.190314 0)
(-1.10073 0.188007 0)
(-1.12983 0.185722 -6.92366e-20)
(-1.15883 0.183447 0)
(-1.18771 0.181178 -6.69771e-20)
(-1.21649 0.17891 6.58626e-20)
(-1.24517 0.176639 6.479e-20)
(-1.27374 0.174359 0)
(-1.30219 0.172067 -6.27589e-20)
(-1.33053 0.169755 -6.1795e-20)
(-1.35874 0.167417 1.21578e-19)
(-1.38681 0.165046 -5.99579e-20)
(-1.41472 0.162636 -5.90805e-20)
(-1.44246 0.160179 0)
(-1.47001 0.157669 0)
(-1.49735 0.155098 5.65898e-20)
(-1.52447 0.15246 0)