/*--------------------------------*- C++ -*----------------------------------*\
  =========                 |
  \\      /  F ield         | OpenFOAM: The Open Source CFD Toolbox
   \\    /   O peration     | Website:  https://openfoam.org
    \\  /    A nd           | Version:  8
     \\/     M anipulation  |
\*---------------------------------------------------------------------------*/
FoamFile
{
    version     2.0;
    format      ascii;
    class       volScalarField;
    location    "175";
    object      epsilon;
}
// * * * * * * * * * * * * * * * * * * * * * * * * * * * * * * * * * * * * * //

dimensions      [0 2 -3 0 0 0 0];

internalField   nonuniform List<scalar> 
12225
(
285.515
270.702
257.913
243.813
232.455
223.094
216.797
212.703
212.744
213.954
217.258
220.864
228.205
232.592
241.695
245.813
257.547
264.063
52.4917
91.8874
106.967
114.757
124.838
136.795
152.69
169.917
191.14
210.948
235.309
255.51
281.227
299.392
325.093
339.422
365.401
374.179
20.322
34.8598
44.672
50.4732
55.3938
59.6112
64.6642
69.6447
76.327
83.1863
91.4639
99.3295
108.226
116.979
125.639
135.401
142.795
154.135
15.3476
19.6987
24.1111
27.57
30.4966
32.8705
35.1563
37.2933
39.5062
41.9176
44.3448
47.2054
49.6958
53.0536
55.4395
59.2753
61.4931
65.7425
14.6506
15.8627
17.3666
19.0743
20.6382
22.026
23.2466
24.431
25.4454
26.5949
27.5258
28.7601
29.6364
30.9915
31.822
33.2794
34.0984
35.6773
14.7067
14.8769
15.2014
15.8669
16.5667
17.2868
17.9238
18.5842
19.1196
19.7343
20.1941
20.8001
21.21
21.8253
22.2018
22.8312
23.1873
23.8704
14.7421
14.6201
14.6248
14.737
14.9297
15.219
15.4913
15.8089
16.0711
16.3828
16.6184
16.9208
17.1316
17.4283
17.6175
17.9147
18.0851
18.4114
14.7626
14.5866
14.4637
14.3812
14.3669
14.39
14.4381
14.5337
14.6186
14.7367
14.831
14.9567
15.048
15.1767
15.2618
15.3929
15.4715
15.622
14.7666
14.5908
14.4346
14.2964
14.1849
14.1044
14.0398
14.0066
13.9814
13.9785
13.9809
13.9917
14.0042
14.0297
14.0474
14.0799
14.1039
14.1468
14.7663
14.594
14.432
14.282
14.143
14.0219
13.9115
13.8193
13.737
13.6698
13.6102
13.5633
13.5181
13.4872
13.4517
13.4343
13.4024
13.4012
14.7658
14.5945
14.4322
14.2803
14.1362
14.0032
13.8782
13.7644
13.6582
13.5629
13.4735
13.3952
13.3198
13.256
13.1915
13.1408
13.0838
13.0453
14.7657
14.5943
14.4321
14.2798
14.1353
13.9999
13.8715
13.7518
13.6385
13.5336
13.434
13.343
13.2556
13.177
13.1002
13.0328
12.9647
12.9074
14.7657
14.5941
14.432
14.2794
14.1349
13.9989
13.8699
13.7485
13.6331
13.5249
13.4219
13.3257
13.2337
13.1483
13.0662
12.9905
12.9171
12.8502
14.7657
14.5939
14.4318
14.279
14.1346
13.9983
13.8692
13.7472
13.6315
13.5222
13.4184
13.3203
13.227
13.1389
13.055
12.9758
12.9002
12.8291
14.7657
14.5938
14.4317
14.2787
14.1342
13.9977
13.8686
13.7464
13.6307
13.5211
13.4171
13.3185
13.2248
13.136
13.0516
12.9715
12.8952
12.8228
14.7657
14.5938
14.4316
14.2785
14.1339
13.9973
13.8681
13.7458
13.63
13.5202
13.4161
13.3174
13.2237
13.1347
13.0501
12.9697
12.8932
12.8205
14.7657
14.5937
14.4315
14.2783
14.1337
13.997
13.8677
13.7453
13.6294
13.5195
13.4154
13.3166
13.2227
13.1336
13.049
12.9685
12.8919
12.8191
14.7657
14.5937
14.4314
14.2782
14.1335
13.9968
13.8674
13.745
13.629
13.5191
13.4149
13.316
13.2221
13.1329
13.0482
12.9676
12.891
12.8181
14.7657
14.5937
14.4314
14.2782
14.1335
13.9967
13.8673
13.7448
13.6288
13.5189
13.4146
13.3157
13.2218
13.1325
13.0478
12.9671
12.8905
12.8175
14.7657
14.5937
14.4314
14.2782
14.1336
13.9968
13.8674
13.745
13.629
13.5191
13.4148
13.3159
13.222
13.1328
13.048
12.9674
12.8907
12.8178
14.7657
14.5937
14.4315
14.2784
14.1338
13.997
13.8677
13.7453
13.6294
13.5196
13.4155
13.3166
13.2229
13.1339
13.0494
12.969
12.8927
12.82
14.7657
14.5937
14.4316
14.2785
14.1341
13.9974
13.8685
13.7464
13.6312
13.522
13.4191
13.3214
13.2293
13.1419
13.0595
12.9811
12.9074
12.8369
14.7658
14.5937
14.4318
14.2788
14.1353
14.0002
13.8742
13.756
13.6463
13.5435
13.4485
13.3592
13.277
13.1993
13.1283
13.0602
12.9989
12.9387
14.7655
14.5928
14.4328
14.2844
14.1515
14.0321
13.929
13.8375
13.7593
13.6894
13.6307
13.5769
13.5328
13.4905
13.4574
13.423
13.3988
13.3693
14.7592
14.5932
14.4603
14.3602
14.3029
14.2766
14.2805
14.2921
14.321
14.3531
14.3959
14.4345
14.4824
14.5216
14.5719
14.6088
14.6615
14.6938
14.7213
14.6911
14.754
14.9176
15.1828
15.4611
15.7476
16.0119
16.2723
16.5037
16.736
16.9385
17.1506
17.3307
17.5307
17.6934
17.8885
18.0356
14.7477
15.5124
16.5473
17.6841
18.7044
19.5675
20.3371
20.9967
21.6193
22.1659
22.7186
23.2105
23.7395
24.2038
24.7321
25.182
25.7242
26.1651
15.9871
20.9921
25.0238
27.7604
29.7846
31.3584
32.7768
34.0576
35.359
36.6158
37.9747
39.2962
40.7604
42.1443
43.716
45.1716
46.8811
48.3556
29.9032
47.2182
54.8695
58.6732
61.6137
64.4314
67.5798
70.9763
74.737
78.7122
82.9826
87.3409
91.9008
96.4448
101.094
105.615
110.167
114.567
165.798
160.075
154.899
149.564
144.479
139.677
135.614
132.109
129.27
126.973
125.319
124.044
123.339
122.824
122.84
122.958
123.282
123.825
0.829152
0.776009
1.32828
1.85752
2.40184
2.96304
3.54077
4.12943
4.71948
5.30053
5.86253
6.39733
6.89832
7.36116
7.78312
8.1639
8.50507
8.81054
38.4336
40.0192
41.4609
42.9142
44.1154
45.1556
46.5808
47.4693
48.7269
48.5742
48.0705
45.7958
43.3635
40.1531
39.775
44.3639
47.0266
50.7973
54.3481
58.2184
62.1954
66.3627
70.6921
75.1977
79.879
84.7415
89.7883
95.0246
100.454
106.081
111.91
117.946
124.191
130.651
137.328
144.226
151.346
158.693
166.266
174.069
182.101
190.365
198.858
207.582
216.533
225.712
235.112
244.734
254.57
264.619
274.87
285.323
295.964
306.791
317.789
328.955
340.271
351.733
363.319
375.027
386.833
398.734
410.702
422.736
434.806
446.911
459.016
471.123
483.196
495.236
507.21
519.115
530.919
542.599
554.131
565.492
576.664
587.645
598.482
609.06
619.391
629.517
639.428
649.118
658.583
667.815
676.81
685.566
694.08
702.358
710.396
718.205
725.781
733.139
740.275
747.21
753.937
760.481
766.83
773.016
779.034
784.918
790.644
796.223
801.621
806.866
811.928
816.853
821.597
826.207
830.627
834.906
838.995
842.966
846.798
850.456
853.67
856.424
858.995
860.108
861.658
862.741
862.602
861.719
859.882
857.25
853.517
848.542
842.395
834.886
825.989
815.725
804.024
790.786
776.805
761.281
744.605
735.12
727.725
719.586
710.428
700.309
689.353
677.633
665.394
652.555
639.112
625.411
611.593
597.734
584.066
570.327
556.507
542.828
529.391
516.201
503.276
490.32
477.765
462.576
451.303
410.687
2.98617
1.74451
1.73191
1.94894
2.27305
2.66774
3.11518
3.60069
4.11111
4.63643
5.17132
5.71815
6.29083
6.92315
7.68353
8.70393
10.2336
12.743
17.1315
18.9006
20.0263
20.997
21.899
22.7699
23.6284
24.3546
24.9387
25.2285
25.3712
25.3632
25.5218
25.9311
26.9325
28.9124
30.6771
32.5589
34.4582
36.4282
38.4536
40.5458
42.7042
44.9327
47.2327
49.6067
52.0559
54.5825
57.1876
59.8729
62.6395
65.4888
68.4214
71.4387
74.5409
77.7292
81.0035
84.3644
87.8118
91.346
94.9663
98.6727
102.464
106.34
110.299
114.34
118.462
122.662
126.939
131.291
135.714
140.207
144.766
149.388
154.07
158.807
163.596
168.432
173.31
178.227
183.177
188.154
193.154
198.171
203.199
208.232
213.263
218.287
223.297
228.286
233.248
238.176
243.062
247.896
252.675
257.395
262.063
266.712
271.347
275.89
280.352
284.731
289.027
293.235
297.353
301.377
305.308
309.143
312.882
316.525
320.074
323.528
326.89
330.161
333.345
336.443
339.459
342.396
345.257
348.047
350.771
353.432
356.031
358.563
361.028
363.428
365.767
368.047
370.27
372.437
374.548
376.605
378.608
380.565
382.474
384.326
386.081
387.767
389.325
390.611
391.854
392.879
393.503
393.816
393.777
393.415
392.649
391.408
389.676
387.406
384.57
381.158
377.146
372.505
367.352
361.621
355.216
349.713
344.508
339.049
333.203
326.989
320.456
313.655
306.662
299.505
292.176
284.651
277.09
269.557
262.106
254.738
247.458
240.315
233.349
226.59
220.075
213.74
207.844
201.622
197.664
193.58
5.66134
2.85837
2.52017
2.57831
2.79462
3.10906
3.49463
3.93408
4.41366
4.92283
5.45526
6.0108
6.59765
7.23573
7.96
8.82233
9.88377
11.1798
12.6176
13.7163
14.6425
15.514
16.3755
17.2412
18.1084
18.9577
19.7817
20.5795
21.3934
22.2654
23.2567
24.3911
25.691
27.1469
28.626
30.156
31.7346
33.3679
35.0572
36.8024
38.6038
40.4627
42.3799
44.3565
46.3934
48.4916
50.652
52.8756
55.163
57.515
59.9322
62.4152
64.9645
67.5804
70.2633
73.0133
75.8306
78.7151
81.6667
84.6852
87.7701
90.9209
94.1369
97.4173
100.761
104.167
107.634
111.161
114.745
118.385
122.078
125.824
129.618
133.459
137.344
141.268
145.23
149.226
153.251
157.302
161.375
165.465
169.569
173.68
177.795
181.908
186.015
190.109
194.187
198.243
202.272
206.269
210.232
214.16
218.055
221.918
225.735
229.491
233.182
236.806
240.36
243.84
247.244
250.569
253.814
256.977
260.056
263.052
265.963
268.791
271.535
274.197
276.778
279.279
281.703
284.052
286.329
288.536
290.677
292.756
294.772
296.725
298.618
300.45
302.227
303.949
305.62
307.24
308.812
310.334
311.809
313.236
314.612
315.924
317.159
318.309
319.347
320.237
321.015
321.586
321.863
321.88
321.677
321.199
320.398
319.23
317.669
315.687
313.26
310.372
307.008
303.156
298.848
294.095
288.947
283.866
278.764
273.465
267.911
262.112
256.107
249.936
243.65
237.283
230.853
224.376
217.916
211.509
205.138
198.866
192.717
186.706
180.859
175.211
169.794
164.597
159.749
155.049
151.417
148.72
8.40892
4.04042
3.38827
3.3245
3.47296
3.74089
4.09149
4.50524
4.9685
5.47083
6.0046
6.56575
7.15438
7.7756
8.43953
9.15976
9.94757
10.7998
11.6822
12.5373
13.378
14.2272
15.0992
16.0013
16.9355
17.901
18.8981
19.9312
21.0099
22.1443
23.3427
24.6093
25.9429
27.3364
28.7689
30.2442
31.7638
33.3287
34.9438
36.6109
38.3312
40.1057
41.9351
43.8205
45.7627
47.7627
49.8212
51.9393
54.1177
56.3571
58.658
61.0212
63.4471
65.9364
68.4895
71.1067
73.7884
76.5347
79.3459
82.2219
85.1625
88.1677
91.2369
94.3699
97.5658
100.824
104.143
107.523
110.962
114.458
118.009
121.615
125.272
128.979
132.733
136.531
140.37
144.247
148.159
152.101
156.071
160.063
164.073
168.097
172.13
176.167
180.203
184.233
188.251
192.254
196.236
200.193
204.12
208.017
211.878
215.698
219.467
223.177
226.823
230.4
233.905
237.335
240.684
243.951
247.132
250.225
253.229
256.141
258.961
261.688
264.321
266.861
269.307
271.661
273.924
276.099
278.186
280.188
282.109
283.951
285.715
287.403
289.016
290.556
292.027
293.43
294.77
296.047
297.263
298.418
299.515
300.552
301.526
302.425
303.242
303.973
304.59
305.085
305.395
305.505
305.433
305.126
304.582
303.773
302.664
301.221
299.418
297.229
294.634
291.615
288.164
284.28
279.989
275.319
270.331
265.195
259.914
254.436
248.746
242.861
236.817
230.652
224.409
218.123
211.823
205.534
199.297
193.142
187.081
181.144
175.351
169.693
164.189
158.888
153.813
148.967
144.432
140.181
136.618
133.89
11.0584
5.21758
4.25891
4.08331
4.16994
4.39922
4.7225
5.11625
5.56587
6.06083
6.59309
7.15694
7.74901
8.36853
9.01705
9.69782
10.4138
11.1644
11.9432
12.743
13.5657
14.4168
15.3018
16.2246
17.188
18.1939
19.2437
20.3385
21.4796
22.6678
23.9031
25.1855
26.5137
27.8879
29.3061
30.7693
32.2797
33.8404
35.4527
37.1172
38.8349
40.6068
42.434
44.3176
46.2586
48.258
50.3169
52.4365
54.618
56.8622
59.1696
61.5411
63.9774
66.4793
69.0476
71.683
74.3861
77.1573
79.9972
82.906
85.8841
88.9314
92.0481
95.2339
98.4885
101.812
105.202
108.66
112.184
115.772
119.423
123.137
126.909
130.74
134.625
138.563
142.55
146.583
150.659
154.774
158.924
163.103
167.309
171.535
175.777
180.029
184.286
188.542
192.792
197.029
201.249
205.445
209.611
213.741
217.83
221.871
225.855
229.777
233.628
237.405
241.101
244.711
248.232
251.658
254.987
258.215
261.339
264.356
267.264
270.061
272.745
275.317
277.775
280.119
282.35
284.469
286.477
288.378
290.172
291.863
293.453
294.944
296.337
297.636
298.843
299.962
300.994
301.945
302.815
303.604
304.315
304.955
305.515
305.982
306.355
306.65
306.801
306.795
306.646
306.34
305.853
305.157
304.231
303.051
301.583
299.799
297.672
295.178
292.297
289.018
285.334
281.252
276.792
271.984
266.876
261.55
256.026
250.298
244.373
238.274
232.038
225.702
219.309
212.894
206.49
200.126
193.836
187.648
181.583
175.663
169.905
164.315
158.898
153.696
148.722
143.976
139.525
135.398
131.795
128.81
13.5369
6.34342
5.09146
4.80851
4.83588
5.02825
5.32505
5.69813
6.13134
6.61383
7.13759
7.69662
8.28667
8.90523
9.55135
10.2254
10.9283
11.6609
12.4232
13.2152
14.0384
14.8955
15.789
16.7215
17.6952
18.7119
19.773
20.8793
22.0315
23.2294
24.4731
25.7627
27.0985
28.4811
29.9111
31.3895
32.9179
34.4979
36.131
37.8181
39.5606
41.3597
43.2167
45.1327
47.1092
49.1473
51.2482
53.4133
55.6435
57.9401
60.3046
62.7383
65.2424
67.8181
70.4665
73.1886
75.9854
78.8578
81.8066
84.8326
87.9364
91.1183
94.3787
97.7178
101.135
104.632
108.206
111.858
115.586
119.39
123.268
127.218
131.239
135.329
139.484
143.703
147.981
152.316
156.703
161.139
165.619
170.137
174.689
179.27
183.873
188.492
193.121
197.753
202.383
207.002
211.605
216.183
220.73
225.237
229.698
234.104
238.447
242.718
246.911
251.018
255.032
258.948
262.76
266.462
270.049
273.517
276.862
280.079
283.166
286.119
288.936
291.614
294.152
296.55
298.807
300.923
302.899
304.738
306.441
308.011
309.45
310.762
311.948
313.012
313.957
314.786
315.503
316.114
316.622
317.022
317.319
317.536
317.662
317.664
317.539
317.334
316.992
316.519
315.901
315.127
314.178
313.033
311.669
310.06
308.176
305.99
303.477
300.615
297.386
293.781
289.797
285.441
280.729
275.684
270.345
264.757
258.944
252.921
246.705
240.328
233.825
227.236
220.602
213.96
207.345
200.79
194.326
187.981
181.778
175.737
169.877
164.208
158.734
153.492
148.49
143.741
139.288
135.167
131.483
128.235
15.7805
7.38173
5.85563
5.46671
5.43841
5.59318
5.86234
6.21265
6.62602
7.09109
7.59985
8.14648
8.7267
9.33771
9.97793
10.6469
11.345
12.073
12.8319
13.6231
14.4481
15.3088
16.207
17.1448
18.1238
19.1455
20.2115
21.3227
22.4799
23.6839
24.9353
26.2346
27.5827
28.9805
30.4291
31.9297
33.4835
35.0921
36.7567
38.4789
40.26
42.1016
44.0052
45.9722
48.0043
50.1031
52.2701
54.5069
56.8152
59.1966
61.6529
64.1856
66.7964
69.487
72.2587
75.1132
78.0518
81.0759
84.1865
87.3849
90.6721
94.0487
97.5155
101.073
104.721
108.46
112.29
116.211
120.221
124.319
128.505
132.776
137.131
141.567
146.082
150.673
155.335
160.066
164.86
169.714
174.622
179.578
184.577
189.612
194.677
199.764
204.867
209.978
215.088
220.19
225.276
230.336
235.361
240.343
245.272
250.139
254.933
259.646
264.268
268.791
273.207
277.508
281.688
285.738
289.654
293.429
297.057
300.534
303.854
307.014
310.01
312.837
315.494
317.979
320.291
322.428
324.392
326.183
327.805
329.259
330.549
331.677
332.647
333.462
334.127
334.643
335.015
335.255
335.368
335.339
335.167
334.901
334.52
334.008
333.381
332.639
331.768
330.766
329.624
328.331
326.872
325.227
323.376
321.292
318.95
316.322
313.387
310.124
306.519
302.562
298.25
293.588
288.586
283.264
277.648
271.771
265.657
259.326
252.806
246.128
239.33
232.454
225.54
218.627
211.752
204.948
198.248
191.68
185.269
179.034
172.996
167.167
161.558
156.19
151.076
146.233
141.692
137.488
133.683
130.185
17.7425
8.30442
6.52837
6.03634
5.95553
6.07326
6.31417
6.64043
7.03205
7.47697
7.96719
8.49708
9.06262
9.66111
10.2909
10.9514
11.6427
12.3654
13.1206
13.9096
14.7339
15.5951
16.4949
17.435
18.4168
19.4419
20.5117
21.6275
22.7904
24.0015
25.262
26.573
27.9356
29.3513
30.8212
32.3468
33.9296
35.5711
37.2729
39.0367
40.8642
42.7573
44.7176
46.7472
48.848
51.022
53.2711
55.5975
58.0032
60.4903
63.061
65.7174
68.4615
71.2955
74.2213
77.241
80.3563
83.5691
86.8809
90.2933
93.8077
97.4252
101.147
104.973
108.905
112.943
117.086
121.335
125.688
130.145
134.704
139.363
144.121
148.975
153.922
158.958
164.08
169.282
174.561
179.91
185.325
190.798
196.323
201.892
207.498
213.133
218.788
224.455
230.123
235.784
241.428
247.044
252.621
258.149
263.617
269.013
274.326
279.545
284.66
289.66
294.535
299.277
303.876
308.325
312.615
316.74
320.692
324.466
328.054
331.452
334.655
337.656
340.453
343.043
345.422
347.59
349.547
351.294
352.831
354.163
355.292
356.222
356.956
357.498
357.857
358.028
358.015
357.824
357.481
356.973
356.313
355.514
354.578
353.503
352.297
350.963
349.499
347.903
346.17
344.293
342.259
340.054
337.657
335.046
332.199
329.09
325.7
322.009
318.003
313.674
309.015
304.028
298.719
293.101
287.194
281.021
274.606
267.973
261.15
254.172
247.077
239.906
232.701
225.502
218.346
211.27
204.306
197.483
190.827
184.36
178.103
172.069
166.273
160.731
155.457
150.468
145.787
141.444
137.473
133.722
19.393
9.09336
7.09667
6.50923
6.37826
6.46007
6.67298
6.97512
7.34464
7.76879
8.23944
8.75113
9.30008
9.88378
10.5007
11.1503
11.8324
12.5476
13.2969
14.0814
14.9024
15.7614
16.6599
17.5997
18.5821
19.6088
20.6812
21.8009
22.9691
24.1874
25.4572
26.7803
28.1582
29.5927
31.0853
32.6378
34.252
35.9296
37.6727
39.4833
41.3633
43.3151
45.3409
47.4429
49.6236
51.8854
54.2309
56.6625
59.1829
61.7948
64.5007
67.3034
70.2054
73.2093
76.3178
79.5332
82.8579
86.2941
89.8441
93.5096
97.2925
101.194
105.216
109.36
113.625
118.012
122.522
127.155
131.908
136.783
141.776
146.886
152.11
157.446
162.89
168.438
174.085
179.827
185.657
191.57
197.559
203.616
209.734
215.904
222.117
228.364
234.635
240.92
247.208
253.487
259.747
265.975
272.159
278.287
284.344
290.319
296.198
301.968
307.618
313.135
318.507
323.724
328.776
333.653
338.345
342.844
347.143
351.233
355.106
358.757
362.178
365.362
368.306
371.003
373.451
375.648
377.592
379.284
380.725
381.919
382.867
383.576
384.05
384.285
384.292
384.067
383.629
382.985
382.143
381.109
379.892
378.506
376.956
375.249
373.395
371.401
369.27
367.005
364.607
362.071
359.391
356.555
353.548
350.353
346.948
343.314
339.43
335.279
330.847
326.123
321.1
315.774
310.147
304.227
298.027
291.565
284.861
277.94
270.83
263.566
256.187
248.732
241.244
233.763
226.329
218.977
211.741
204.653
197.739
191.023
184.527
178.266
172.257
166.514
161.051
155.884
151.031
146.516
142.352
138.352
20.7189
9.74011
7.55639
6.88381
6.70614
6.75401
6.94005
7.2189
7.56706
7.97109
8.42266
8.91637
9.44861
10.0171
10.6202
11.2575
11.929
12.6352
13.3771
14.1559
14.9718
15.8265
16.7217
17.6591
18.6405
19.6674
20.7415
21.8645
23.0378
24.263
25.5415
26.8767
28.2707
29.7253
31.2426
32.8247
34.4737
36.1919
37.9816
39.8454
41.7856
43.8051
45.9065
48.0926
50.3665
52.731
55.1893
57.7444
60.3997
63.1582
66.0232
68.9981
72.0859
75.2899
78.6131
82.0587
85.6294
89.328
93.157
97.1189
101.216
105.449
109.821
114.333
118.985
123.778
128.711
133.786
139
144.353
149.842
155.465
161.22
167.102
173.107
179.232
185.469
191.814
198.26
204.799
211.424
218.125
224.895
231.723
238.599
245.512
252.451
259.403
266.357
273.3
280.219
287.099
293.927
300.688
307.368
313.951
320.423
326.77
332.977
339.03
344.916
350.623
356.138
361.451
366.552
371.43
376.077
380.482
384.639
388.538
392.171
395.531
398.61
401.403
403.906
406.114
408.026
409.643
410.964
411.992
412.733
413.187
413.356
413.244
412.86
412.211
411.306
410.153
408.763
407.146
405.312
403.275
401.047
398.64
396.065
393.336
390.46
387.447
384.302
381.028
377.624
374.084
370.399
366.555
362.537
358.327
353.905
349.257
344.367
339.224
333.818
328.141
322.19
315.968
309.48
302.742
295.768
288.583
281.213
273.69
266.053
258.339
250.591
242.849
235.152
227.538
220.041
212.694
205.525
198.56
191.821
185.327
179.094
173.136
167.47
162.107
157.064
152.358
147.987
143.748
21.7226
10.2443
7.90971
7.16425
6.94447
6.9613
7.12227
7.37926
7.70742
8.09265
8.52636
9.00318
9.51969
10.0737
10.6632
11.2878
11.9478
12.644
13.3774
14.1497
14.9598
15.8096
16.7011
17.6359
18.616
19.643
20.719
21.8456
23.025
24.2588
25.5485
26.8983
28.311
29.7894
31.3358
32.9529
34.6435
36.4102
38.2558
40.1835
42.1961
44.297
46.4895
48.7771
51.1632
53.6515
56.2458
58.9497
61.7672
64.7022
67.7584
70.9398
74.2503
77.6936
81.2734
84.9932
88.8565
92.8664
97.026
101.338
105.804
110.428
115.209
120.151
125.253
130.516
135.94
141.524
147.266
153.166
159.221
165.426
171.78
178.277
184.912
191.679
198.572
205.584
212.707
219.932
227.25
234.651
242.125
249.66
257.244
264.865
272.51
280.166
287.818
295.452
303.053
310.606
318.095
325.504
332.816
340.015
347.084
354.007
360.769
367.352
373.744
379.929
385.894
391.627
397.117
402.353
407.324
412.021
416.435
420.555
424.372
427.877
431.061
433.919
436.442
438.627
440.472
441.975
443.137
443.96
444.448
444.603
444.426
443.923
443.106
441.979
440.553
438.837
436.843
434.582
432.069
429.317
426.344
423.164
419.794
416.252
412.552
408.71
404.738
400.645
396.438
392.118
387.683
383.124
378.432
373.589
368.582
363.394
358.013
352.424
346.616
340.576
334.298
327.777
321.016
314.021
306.805
299.388
291.793
284.05
276.192
268.259
260.287
252.319
244.391
236.543
228.81
221.225
213.818
206.617
199.645
192.923
186.468
180.297
174.423
168.86
163.619
158.713
154.132
149.663
22.414
10.6102
8.16303
7.35873
7.10211
7.09215
7.22997
7.46691
7.77686
8.14528
8.56257
9.02369
9.52576
10.0674
10.6457
11.2602
11.9111
12.5987
13.3237
14.0867
14.8893
15.7334
16.6208
17.5536
18.5337
19.5634
20.6448
21.7801
22.9718
24.2223
25.5316
26.9021
28.3409
29.851
31.4357
33.0988
34.8436
36.6735
38.5917
40.6018
42.7075
44.9127
47.2215
49.638
52.1665
54.8114
57.577
60.4679
63.4887
66.644
69.9382
73.376
76.9618
80.6999
84.5947
88.6502
92.87
97.2579
101.817
106.55
111.46
116.549
121.818
127.268
132.9
138.714
144.709
150.883
157.236
163.764
170.463
177.33
184.36
191.546
198.884
206.364
213.98
221.722
229.582
237.549
245.612
253.759
261.978
270.257
278.582
286.938
295.311
303.686
312.047
320.378
328.663
336.884
345.025
353.067
360.993
368.784
376.424
383.893
391.175
398.252
405.108
411.728
418.097
424.202
430.03
435.571
440.814
445.747
450.362
454.646
458.591
462.184
465.417
468.28
470.767
472.872
474.591
475.922
476.867
477.428
477.606
477.405
476.821
475.869
474.557
472.893
470.885
468.544
465.883
462.914
459.654
456.12
452.331
448.307
444.068
439.638
435.037
430.288
425.41
420.42
415.333
410.159
404.902
399.562
394.133
388.603
382.961
377.192
371.284
365.223
358.996
352.586
345.982
339.173
332.156
324.932
317.51
309.903
302.129
294.215
286.189
278.085
269.941
261.794
253.682
245.642
237.711
229.922
222.308
214.896
207.714
200.782
194.119
187.744
181.67
175.909
170.473
165.369
160.58
155.896
22.8332
10.8543
8.32737
7.47723
7.18903
7.1567
7.27503
7.49411
7.78781
8.14204
8.54663
8.99591
9.48613
10.0144
10.5797
11.1824
11.8227
12.5012
13.2191
13.9777
14.7782
15.6224
16.5121
17.4496
18.4376
19.4788
20.575
21.7285
22.9423
24.2195
25.5585
26.9659
28.4479
30.0091
31.6534
33.385
35.208
37.1274
39.1476
41.2725
43.5067
45.8547
48.3216
50.9123
53.632
56.4859
59.4791
62.617
65.9048
69.3479
72.9514
76.7205
80.6602
84.7754
89.0707
93.5503
98.2184
103.078
108.134
113.387
118.841
124.497
130.355
136.417
142.682
149.15
155.818
162.684
169.745
176.997
184.435
192.052
199.844
207.802
215.917
224.182
232.586
241.119
249.768
258.523
267.37
276.296
285.286
294.326
303.402
312.496
321.592
330.674
339.724
348.725
357.66
366.51
375.256
383.88
392.362
400.684
408.827
416.771
424.499
431.991
439.23
446.2
452.886
459.274
465.351
471.105
476.527
481.604
486.327
490.684
494.664
498.256
501.447
504.228
506.591
508.528
510.035
511.111
511.757
511.974
511.767
511.123
510.055
508.579
506.698
504.422
501.759
498.721
495.321
491.574
487.496
483.11
478.434
473.495
468.316
462.926
457.351
451.622
445.765
439.806
433.768
427.67
421.525
415.341
409.117
402.849
396.526
390.14
383.676
377.124
370.467
363.686
356.764
349.687
342.443
335.029
327.445
319.7
311.807
303.783
295.652
287.444
279.191
270.928
262.691
254.515
246.437
238.493
230.714
223.131
215.771
208.658
201.813
195.254
188.996
183.052
177.43
172.137
167.152
162.272
22.9461
10.9712
8.40752
7.52911
7.21744
7.16732
7.27075
7.47679
7.75809
8.09875
8.48942
8.92576
9.40464
9.92446
10.4839
11.0826
11.7207
12.399
13.1187
13.8816
14.69
15.5448
16.448
17.4026
18.4114
19.4774
20.5994
21.7831
23.0328
24.3527
25.7471
27.2208
28.779
30.4267
32.1691
34.0113
35.9586
38.0166
40.1911
42.4873
44.9106
47.4669
50.1622
53.0026
55.9942
59.1431
62.4552
65.9366
69.593
73.4305
77.4546
81.671
86.0848
90.7011
95.5245
100.559
105.809
111.277
116.966
122.878
129.014
135.375
141.96
148.77
155.801
163.053
170.52
178.199
186.084
194.171
202.451
210.916
219.559
228.369
237.335
246.448
255.693
265.06
274.534
284.1
293.745
303.453
313.207
322.992
332.79
342.584
352.357
362.089
371.763
381.36
390.862
400.249
409.503
418.603
427.531
436.268
444.792
453.087
461.131
468.906
476.395
483.58
490.446
496.978
503.164
508.993
514.455
519.538
524.233
528.528
532.411
535.87
538.891
541.464
543.578
545.227
546.405
547.109
547.344
547.114
546.399
545.211
543.566
541.468
538.926
535.947
532.542
528.723
524.502
519.898
514.928
509.614
503.98
498.055
491.867
485.449
478.834
472.058
465.157
458.166
451.116
444.035
436.946
429.865
422.801
415.755
408.72
401.689
394.655
387.604
380.52
373.381
366.164
358.85
351.422
343.867
336.182
328.366
320.424
312.366
304.209
295.975
287.692
279.389
271.1
262.859
254.701
246.661
238.774
231.07
223.578
216.325
209.332
202.62
196.204
190.098
184.31
178.845
173.681
168.628
22.8891
10.9845
8.41697
7.52666
7.20246
7.14091
7.23097
7.42349
7.69295
8.02489
8.4103
8.84361
9.32164
9.84276
10.4065
11.0121
11.6598
12.3507
13.0862
13.8682
14.6984
15.5766
16.5076
17.495
18.5425
19.6541
20.8339
22.086
23.4153
24.827
26.3265
27.9196
29.6119
31.4096
33.3189
35.3463
37.4984
39.7819
42.2035
44.77
47.4885
50.3663
53.4109
56.63
60.0304
63.6189
67.4018
71.3856
75.5762
79.9797
84.6017
89.4474
94.5218
99.8292
105.373
111.157
117.184
123.455
129.971
136.732
143.739
150.989
158.479
166.208
174.17
182.36
190.773
199.401
208.237
217.271
226.494
235.896
245.464
255.188
265.053
275.045
285.152
295.357
305.644
315.999
326.403
336.84
347.293
357.743
368.172
378.563
388.896
399.152
409.312
419.359
429.272
439.033
448.623
458.022
467.213
476.175
484.89
493.339
501.504
509.364
516.903
524.103
530.949
537.427
543.526
549.234
554.542
559.44
563.92
567.97
571.576
574.726
577.405
579.601
581.302
582.505
583.197
583.379
583.071
582.227
580.875
579.021
576.673
573.836
570.518
566.728
562.478
557.778
552.645
547.095
541.148
534.827
528.161
521.18
513.917
506.407
498.69
490.81
482.812
474.738
466.629
458.521
450.45
442.44
434.508
426.664
418.905
411.227
403.626
396.091
388.604
381.141
373.673
366.175
358.623
350.996
343.286
335.483
327.582
319.582
311.492
303.326
295.107
286.857
278.604
270.381
262.222
254.161
246.234
238.472
230.906
223.563
216.468
209.643
203.104
196.868
190.94
185.328
180.009
174.81
22.6639
10.934
8.38217
7.48596
7.15035
7.07925
7.16337
7.35389
7.62432
7.96052
8.35309
8.79657
9.28808
9.82606
10.4096
11.0364
11.7089
12.4295
13.2004
14.0244
14.9048
15.845
16.8487
17.9204
19.0649
20.2876
21.594
22.9901
24.4819
26.0761
27.7795
29.5993
31.543
33.6182
35.8329
38.1951
40.7127
43.3929
46.2437
49.2741
52.4931
55.9098
59.534
63.3765
67.4434
71.7407
76.274
81.0488
86.0702
91.3428
96.8707
102.658
108.706
115.018
121.595
128.438
135.545
142.915
150.546
158.435
166.578
174.969
183.602
192.47
201.566
210.88
220.403
230.125
240.034
250.119
260.366
270.762
281.293
291.944
302.7
313.544
324.462
335.434
346.446
357.478
368.513
379.534
390.522
401.458
412.325
423.104
433.776
444.323
454.727
464.968
475.031
484.895
494.544
503.961
513.127
522.025
530.638
538.949
546.94
554.593
561.891
568.818
575.359
581.501
587.232
592.545
597.43
601.88
605.886
609.437
612.519
615.119
617.218
618.808
619.87
620.415
620.403
619.879
618.779
617.149
614.983
612.287
609.066
605.326
601.076
596.327
591.088
585.375
579.202
572.587
565.55
558.116
550.317
542.189
533.765
525.086
516.196
507.147
497.993
488.787
479.573
470.401
461.317
452.357
443.545
434.867
426.357
418.024
409.869
401.884
394.048
386.331
378.698
371.115
363.552
355.98
348.363
340.679
332.925
325.094
317.18
309.192
301.145
293.052
284.937
276.83
268.761
260.765
252.876
245.128
237.554
230.182
223.038
216.147
209.528
203.197
197.163
191.434
185.987
180.671
22.2484
10.8202
8.29884
7.40908
7.08097
7.01952
7.11713
7.32383
7.61312
7.97024
8.3853
8.85574
9.37985
9.95714
10.5882
11.2746
12.0181
12.8216
13.6887
14.6236
15.6312
16.7171
17.8868
19.1468
20.5039
21.9655
23.5395
25.2342
27.0584
29.0209
31.1311
33.3988
35.8339
38.4464
41.2464
44.2437
47.4477
50.8678
54.5131
58.3929
62.5165
66.8929
71.5308
76.4403
81.6302
87.1019
92.8569
98.8965
105.221
111.832
118.728
125.907
133.367
141.106
149.117
157.397
165.939
174.736
183.781
193.065
202.579
212.312
222.255
232.396
242.724
253.225
263.887
274.696
285.638
296.7
307.866
319.121
330.449
341.834
353.261
364.713
376.172
387.623
399.048
410.43
421.752
432.996
444.146
455.184
466.093
476.857
487.459
497.881
508.108
518.122
527.909
537.452
546.737
555.747
564.469
572.888
580.989
588.758
596.179
603.237
609.915
616.198
622.073
627.528
632.553
637.141
641.283
644.975
648.21
650.975
653.253
655.034
656.291
657.028
657.2
656.867
655.93
654.438
652.389
649.785
646.625
642.914
638.659
633.867
628.545
622.705
616.357
609.519
602.205
594.433
586.224
577.606
568.609
559.282
549.653
539.769
529.681
519.447
509.108
498.706
488.33
478.05
467.922
457.999
448.317
438.926
429.822
420.988
412.425
404.127
396.07
388.219
380.532
372.97
365.495
358.07
350.668
343.272
335.842
328.352
320.787
313.132
305.388
297.578
289.721
281.844
273.975
266.147
258.394
250.752
243.253
235.928
228.806
221.912
215.269
208.895
202.801
196.996
191.46
186.067
21.7397
10.6252
8.18053
7.33188
7.03664
7.00648
7.13451
7.37235
7.69875
8.10193
8.57539
9.116
9.72318
10.398
11.1431
11.9619
12.8588
13.8389
14.9085
16.0746
17.3448
18.7281
20.2337
21.8718
23.6528
25.5879
27.689
29.9682
32.438
35.111
37.9997
41.1165
44.4739
48.0835
51.9563
56.1025
60.5316
65.252
70.271
75.5947
81.2288
87.1789
93.448
100.039
106.96
114.202
121.754
129.609
137.757
146.192
154.902
163.879
173.111
182.588
192.298
202.229
212.369
222.705
233.224
243.913
254.76
265.751
276.873
288.112
299.455
310.888
322.397
333.968
345.588
357.242
368.917
380.597
392.269
403.917
415.528
427.087
438.58
449.99
461.305
472.509
483.586
494.524
505.306
515.919
526.348
536.581
546.602
556.398
565.954
575.256
584.293
593.052
601.519
609.684
617.533
625.057
632.242
639.079
645.555
651.657
657.369
662.677
667.57
672.035
676.066
679.655
682.795
685.48
687.709
689.465
690.721
691.488
691.698