/*--------------------------------*- C++ -*----------------------------------*\
  =========                 |
  \\      /  F ield         | OpenFOAM: The Open Source CFD Toolbox
   \\    /   O peration     | Website:  https://openfoam.org
    \\  /    A nd           | Version:  8
     \\/     M anipulation  |
\*---------------------------------------------------------------------------*/
FoamFile
{
    version     2.0;
    format      ascii;
    class       volScalarField;
    location    "175";
    object      k;
}
// * * * * * * * * * * * * * * * * * * * * * * * * * * * * * * * * * * * * * //

dimensions      [0 2 -2 0 0 0 0];

internalField   nonuniform List<scalar> 
12225
(
0.362827
0.343997
0.327742
0.309825
0.29539
0.283496
0.275493
0.27029
0.27034
0.271902
0.276038
0.280796
0.289838
0.295932
0.30665
0.313677
0.325723
0.330518
0.440274
0.468737
0.461615
0.448373
0.450348
0.458322
0.474499
0.498628
0.524362
0.552229
0.580766
0.606303
0.633963
0.654074
0.680075
0.69337
0.719069
0.725555
0.390409
0.417857
0.420243
0.416829
0.411634
0.407804
0.408014
0.410041
0.414541
0.421429
0.430739
0.439746
0.451247
0.461205
0.472998
0.48368
0.493889
0.506471
0.377044
0.387168
0.391466
0.391343
0.39026
0.387884
0.385658
0.384082
0.382879
0.382898
0.383359
0.38439
0.386298
0.388479
0.390956
0.394305
0.39665
0.401162
0.374434
0.376093
0.378427
0.378665
0.378275
0.377202
0.375487
0.373738
0.372009
0.370454
0.369256
0.36811
0.367384
0.366811
0.366452
0.366362
0.366391
0.366763
0.37378
0.372704
0.372659
0.372365
0.371772
0.370819
0.369553
0.368082
0.366571
0.364975
0.363527
0.362062
0.360754
0.35953
0.358397
0.357432
0.356449
0.355802
0.373775
0.37174
0.370388
0.369284
0.368235
0.367114
0.365915
0.364586
0.363237
0.361807
0.360421
0.359022
0.357676
0.356381
0.355119
0.353965
0.352793
0.351806
0.373819
0.371559
0.369635
0.367976
0.366501
0.365107
0.363775
0.362429
0.361107
0.359765
0.358449
0.357142
0.355861
0.35462
0.353398
0.352247
0.351095
0.35005
0.373832
0.371553
0.369449
0.367525
0.365776
0.364153
0.362644
0.361199
0.359817
0.358472
0.357168
0.355901
0.354665
0.353473
0.352305
0.351192
0.350094
0.349069
0.373831
0.37156
0.369418
0.367405
0.365529
0.363772
0.362133
0.360585
0.359121
0.357727
0.356393
0.355116
0.353886
0.352708
0.351567
0.350478
0.349417
0.348418
0.373829
0.37156
0.369413
0.367378
0.365458
0.363645
0.361937
0.360324
0.358798
0.357352
0.355978
0.354671
0.353423
0.352234
0.351092
0.350006
0.348957
0.347967
0.373828
0.371558
0.369409
0.367371
0.365439
0.363609
0.361875
0.360233
0.358677
0.357201
0.355799
0.354467
0.353199
0.351993
0.350841
0.349746
0.348694
0.347699
0.373827
0.371556
0.369405
0.367365
0.36543
0.363593
0.361851
0.360197
0.358626
0.357133
0.355715
0.354367
0.353084
0.351863
0.350699
0.349593
0.348534
0.347531
0.373826
0.371555
0.369401
0.36736
0.365422
0.363583
0.361837
0.360178
0.3586
0.357101
0.355674
0.354317
0.353024
0.351794
0.350621
0.349506
0.34844
0.347427
0.373826
0.371553
0.369398
0.367355
0.365416
0.363575
0.361826
0.360164
0.358584
0.357081
0.355651
0.354289
0.352993
0.351758
0.35058
0.349459
0.348388
0.347369
0.373826
0.371552
0.369396
0.367351
0.36541
0.363568
0.361817
0.360154
0.358572
0.357067
0.355634
0.354271
0.352972
0.351734
0.350555
0.34943
0.348357
0.347334
0.373825
0.371551
0.369394
0.367348
0.365406
0.363562
0.36181
0.360145
0.358562
0.357055
0.355621
0.354256
0.352956
0.351717
0.350535
0.349409
0.348335
0.34731
0.373825
0.371551
0.369393
0.367346
0.365403
0.363558
0.361805
0.360139
0.358555
0.357047
0.355612
0.354246
0.352944
0.351704
0.350521
0.349394
0.348318
0.347292
0.373825
0.37155
0.369393
0.367346
0.365402
0.363557
0.361804
0.360137
0.358552
0.357044
0.355608
0.354241
0.352939
0.351697
0.350514
0.349386
0.348309
0.347282
0.373825
0.371551
0.369393
0.367347
0.365404
0.363559
0.361806
0.36014
0.358555
0.357047
0.355612
0.354245
0.352942
0.351701
0.350518
0.34939
0.348313
0.347286
0.373825
0.371551
0.369395
0.367349
0.365407
0.363563
0.361811
0.360146
0.358562
0.357056
0.355622
0.354256
0.352956
0.351716
0.350535
0.349408
0.348334
0.347309
0.373826
0.371553
0.369397
0.367352
0.365412
0.363571
0.361822
0.360162
0.358584
0.357083
0.355657
0.354299
0.353007
0.351776
0.350603
0.349484
0.348418
0.347399
0.373826
0.371554
0.369399
0.36736
0.365429
0.363603
0.361875
0.36024
0.358691
0.357221
0.355824
0.354494
0.353228
0.352019
0.350867
0.349764
0.348712
0.347702
0.373828
0.371551
0.369412
0.367417
0.365556
0.36382
0.36219
0.360651
0.359189
0.357794
0.356457
0.355172
0.353937
0.352746
0.351601
0.350496
0.349437
0.348411
0.373823
0.371554
0.369605
0.367893
0.366339
0.364892
0.363495
0.362122
0.360761
0.359414
0.358081
0.35677
0.355489
0.354238
0.35303
0.351856
0.350735
0.349646
0.37378
0.37199
0.371113
0.370266
0.36936
0.368312
0.367048
0.36563
0.364121
0.362575
0.361031
0.359523
0.358074
0.356683
0.355382
0.354142
0.35301
0.351924
0.374297
0.375564
0.377778
0.377858
0.377291
0.375886
0.373835
0.371641
0.369505
0.367482
0.365664
0.364084
0.36271
0.361535
0.360609
0.359817
0.359288
0.3588
0.378732
0.394394
0.398294
0.396566
0.392559
0.387608
0.383642
0.380455
0.378266
0.376851
0.376495
0.376748
0.377397
0.378694
0.380439
0.382418
0.384821
0.387131
0.408344
0.427539
0.422424
0.41105
0.402226
0.397922
0.398555
0.401114
0.405981
0.413033
0.420988
0.429819
0.438823
0.448177
0.457289
0.466534
0.4753
0.484158
0.366033
0.353411
0.341988
0.33021
0.318982
0.308382
0.299409
0.291674
0.285403
0.280332
0.276681
0.273865
0.272308
0.271181
0.271173
0.271516
0.272149
0.273379
0.00282937
0.0121727
0.0208594
0.029193
0.0377512
0.0465716
0.055644
0.0648748
0.0740949
0.0831169
0.0917348
0.0997483
0.106929
0.113011
0.117636
0.120305
0.120259
0.116299
0.106401
0.107413
0.111121
0.115514
0.120029
0.124612
0.129271
0.133747
0.136161
0.138289
0.140457
0.14225
0.143854
0.143969
0.144022
0.154648
0.160593
0.168926
0.176608
0.184844
0.193101
0.201584
0.210199
0.218983
0.227917
0.237013
0.246262
0.255676
0.265246
0.274982
0.284878
0.294942
0.305167
0.31556
0.326112
0.336832
0.347708
0.358749
0.369942
0.381293
0.392789
0.404437
0.41622
0.428145
0.440194
0.452372
0.46466
0.477063
0.48956
0.502155
0.514825
0.527573
0.540377
0.553239
0.566132
0.579061
0.591996
0.604941
0.617866
0.630774
0.643634
0.65645
0.66919
0.681857
0.694419
0.706881
0.719207
0.731404
0.743435
0.755308
0.76699
0.778483
0.789756
0.800792
0.811568
0.822071
0.832295
0.842269
0.851977
0.861337
0.87042
0.879227
0.887755
0.896004
0.903972
0.911656
0.919055
0.926173
0.933007
0.939567
0.945853
0.951878
0.957639
0.963154
0.968421
0.973461
0.978272
0.982877
0.98727
0.99148
0.995506
0.999383
1.00309
1.00665
1.01003
1.01326
1.01631
1.01924
1.02201
1.02466
1.02715
1.02952
1.03173
1.03383
1.0358
1.03769
1.03923
1.04057
1.04175
1.04162
1.04282
1.04267
1.04223
1.04127
1.03942
1.0369
1.03374
1.02974
1.02477
1.01887
1.01189
1.0038
0.994601
0.984175
0.972521
0.960301
0.946177
0.932692
0.925286
0.91843
0.910774
0.902212
0.892797
0.882629
0.871775
0.860398
0.848369
0.835807
0.822952
0.80994
0.796832
0.783761
0.770393
0.75693
0.743522
0.730203
0.717006
0.703675
0.690602
0.674931
0.662699
0.621653
0.0102457
0.0306276
0.0436502
0.0539169
0.0633604
0.0727188
0.0822204
0.0918711
0.10156
0.11113
0.120406
0.129213
0.137365
0.144666
0.150892
0.155828
0.159336
0.161582
0.163526
0.168083
0.174169
0.180979
0.188158
0.195569
0.203107
0.210652
0.218034
0.225862
0.234723
0.245333
0.257952
0.272431
0.290341
0.304734
0.317059
0.330132
0.343707
0.357735
0.372109
0.386813
0.401824
0.41714
0.432757
0.44868
0.464908
0.481448
0.498301
0.515473
0.532966
0.550787
0.568935
0.587417
0.606231
0.625382
0.644869
0.664692
0.68485
0.705344
0.726167
0.74732
0.768796
0.79059
0.812695
0.835106
0.85781
0.880802
0.904066
0.927594
0.95137
0.975381
0.999609
1.02404
1.04865
1.07343
1.09835
1.1234
1.14854
1.17375
1.19902
1.2243
1.24959
1.27484
1.30003
1.32513
1.35012
1.37496
1.39962
1.42407
1.44828
1.47223
1.49587
1.51916
1.54207
1.56454
1.58653
1.60795
1.62877
1.64911
1.66898
1.68836
1.70726
1.72566
1.74356
1.76096
1.77784
1.79421
1.81006
1.82541
1.84026
1.85462
1.86851
1.88193
1.8949
1.90745
1.9196
1.93137
1.94278
1.95387
1.96466
1.9752
1.9855
1.99557
2.00542
2.01507
2.02455
2.03388
2.04309
2.05219
2.0612
2.07012
2.07897
2.08776
2.09653
2.10542
2.11418
2.1227
2.1309
2.13861
2.14611
2.1528
2.15881
2.16378
2.16721
2.16909
2.16977
2.1691
2.16659
2.16208
2.15545
2.14656
2.13532
2.12165
2.10541
2.08679
2.06598
2.04263
2.01767
1.99067
1.96159
1.93066
1.89814
1.86431
1.82939
1.79366
1.75697
1.71954
1.6818
1.64412
1.60673
1.56973
1.53294
1.49667
1.46111
1.42637
1.39248
1.35934
1.32693
1.29399
1.26677
1.20227
0.0194432
0.0481258
0.0643589
0.0767518
0.0878006
0.0983839
0.108868
0.119376
0.129901
0.140367
0.150669
0.160698
0.170353
0.179545
0.188211
0.196338
0.204017
0.211513
0.219306
0.227969
0.237449
0.247564
0.258178
0.269236
0.28072
0.292646
0.305115
0.318398
0.332734
0.348304
0.364911
0.382358
0.400158
0.417283
0.434207
0.451451
0.469105
0.487179
0.505653
0.524515
0.543758
0.563378
0.583376
0.603753
0.624512
0.645657
0.66719
0.689118
0.711441
0.734166
0.757295
0.780829
0.804771
0.829121
0.853881
0.879048
0.904622
0.930601
0.95698
0.983755
1.01092
1.03847
1.0664
1.09469
1.12334
1.15234
1.18166
1.21131
1.24126
1.27149
1.302
1.33274
1.36372
1.3949
1.42626
1.45778
1.48942
1.52116
1.55297
1.58482
1.61667
1.6485
1.68027
1.71194
1.74347
1.77484
1.806
1.83692
1.86755
1.89786
1.9278
1.95734
1.98643
2.01503
2.0431
2.07061
2.09756
2.12393
2.1497
2.17485
2.19937
2.22323
2.24644
2.26896
2.29081
2.31196
2.33241
2.35218
2.37125
2.38965
2.40738
2.42445
2.44089
2.45671
2.47194
2.48661
2.50075
2.51439
2.52757
2.54032
2.55268
2.56467
2.57631
2.58763
2.59866
2.60943
2.61998
2.63033
2.6405
2.65051
2.66037
2.67008
2.67965
2.68907
2.69823
2.70706
2.71544
2.72328
2.73053
2.73688
2.74227
2.74628
2.74851
2.74919
2.74836
2.74557
2.74055
2.73306
2.72295
2.71003
2.69418
2.67529
2.65327
2.62819
2.60047
2.5701
2.5373
2.50203
2.46439
2.42462
2.38302
2.33989
2.29553
2.25022
2.20414
2.15751
2.11068
2.06392
2.0175
1.97156
1.92577
1.88066
1.83648
1.79335
1.75137
1.71045
1.67064
1.63156
1.59739
1.5397
0.0288781
0.0641697
0.0834729
0.0978413
0.110325
0.122015
0.133404
0.144718
0.156033
0.167351
0.178631
0.189822
0.200882
0.211783
0.22253
0.233166
0.243789
0.254559
0.265676
0.277315
0.289522
0.302285
0.315578
0.329394
0.343744
0.358656
0.374186
0.390432
0.40747
0.425318
0.443883
0.463017
0.482522
0.502202
0.522105
0.542338
0.562958
0.583988
0.605434
0.627302
0.649592
0.672308
0.695451
0.719027
0.743038
0.76749
0.792387
0.817735
0.843536
0.869797
0.89652
0.923708
0.951365
0.979491
1.00809
1.03715
1.06669
1.09669
1.12716
1.15809
1.18947
1.2213
1.25356
1.28626
1.31938
1.35291
1.38683
1.42114
1.4558
1.49081
1.52614
1.56178
1.5977
1.63388
1.67028
1.70688
1.74366
1.78057
1.81759
1.85468
1.8918
1.92892
1.96599
2.00298
2.03984
2.07653
2.11301
2.14923
2.18514
2.22071
2.25588
2.2906
2.32484
2.35854
2.39167
2.4242
2.45608
2.48729
2.51779
2.54755
2.57655
2.60476
2.63216
2.65874
2.68447
2.70935
2.73336
2.75651
2.77879
2.8002
2.82076
2.84046
2.85934
2.8774
2.89467
2.91118
2.92696
2.94204
2.95646
2.97027
2.98349
2.99616
3.00831
3.01997
3.03118
3.04198
3.05241
3.06249
3.07227
3.08175
3.09096
3.09991
3.10858
3.11696
3.12499
3.13256
3.13964
3.14607
3.15175
3.15645
3.15994
3.16185
3.16215
3.1609
3.15777
3.15245
3.14467
3.13419
3.12082
3.10436
3.08466
3.06165
3.0353
3.00571
2.97315
2.93772
2.89954
2.85867
2.81528
2.76963
2.72203
2.67279
2.62224
2.57067
2.51835
2.46557
2.41262
2.35978
2.30732
2.25543
2.20412
2.15364
2.10423
2.05601
2.00912
1.96349
1.91924
1.87654
1.83755
1.78471
0.0379741
0.0789448
0.10111
0.117384
0.131266
0.144032
0.156292
0.168356
0.180381
0.192434
0.204532
0.216673
0.228852
0.241074
0.253363
0.265767
0.278358
0.291233
0.304492
0.318222
0.332476
0.347278
0.362635
0.378554
0.395041
0.41211
0.429784
0.448093
0.46706
0.486683
0.506921
0.527712
0.548975
0.570645
0.592711
0.615184
0.638083
0.66142
0.685206
0.70945
0.734156
0.759333
0.784984
0.811116
0.837736
0.864848
0.892461
0.920578
0.949207
0.978353
1.00802
1.03821
1.06894
1.10019
1.13198
1.16431
1.19717
1.23056
1.26449
1.29894
1.33392
1.36942
1.40543
1.44194
1.47895
1.51643
1.55438
1.59278
1.63161
1.67085
1.71049
1.7505
1.79085
1.83152
1.87248
1.9137
1.95514
1.99678
2.03856
2.08046
2.12243
2.16443
2.20642
2.24834
2.29016
2.33181
2.37326
2.41444
2.45531
2.49581
2.5359
2.57551
2.61459
2.6531
2.69097
2.72817
2.76464
2.80034
2.83522
2.86925
2.90239
2.93461
2.96587
2.99615
3.02542
3.05367
3.08088
3.10704
3.13213
3.15617
3.17913
3.20104
3.2219
3.24173
3.26054
3.27836
3.29523
3.31117
3.32623
3.34044
3.35385
3.36649
3.3784
3.38961
3.40018
3.41014
3.41954
3.42843
3.43684
3.4448
3.45234
3.45948
3.46623
3.47257
3.47845
3.4838
3.48859
3.49268
3.49596
3.49813
3.49898
3.49839
3.49636
3.49262
3.48689
3.47889
3.46834
3.45501
3.43866
3.41912
3.39625
3.37
3.34034
3.30735
3.2712
3.23202
3.1899
3.14496
3.0974
3.04747
2.99549
2.94178
2.88667
2.8305
2.77356
2.71616
2.6586
2.60118
2.54416
2.48777
2.43214
2.37747
2.32397
2.27182
2.22115
2.17208
2.12475
2.07944
2.03717
1.98653
0.0464853
0.0922672
0.117021
0.135075
0.150292
0.164098
0.177197
0.189971
0.202637
0.215319
0.228084
0.240969
0.254
0.267202
0.280608
0.294263
0.308222
0.32255
0.337312
0.352564
0.36835
0.384697
0.40162
0.419128
0.437225
0.455916
0.475207
0.495105
0.515613
0.536726
0.558425
0.580683
0.603464
0.626742
0.6505
0.674736
0.699451
0.724653
0.750348
0.776545
0.803251
0.830473
0.858219
0.886497
0.915315
0.944681
0.974603
1.00509
1.03614
1.06778
1.1
1.13281
1.16621
1.20022
1.23483
1.27004
1.30587
1.3423
1.37934
1.41699
1.45524
1.49408
1.53352
1.57353
1.61412
1.65527
1.69696
1.73919
1.78192
1.82515
1.86885
1.91299
1.95755
2.0025
2.04781
2.09345
2.13937
2.18555
2.23193
2.27848
2.32515
2.37189
2.41865
2.46538
2.51202
2.55853
2.60483
2.65088
2.69661
2.74197
2.78688
2.83129
2.87513
2.91835
2.96087
3.00264
3.04359
3.08368
3.12285
3.16104
3.1982
3.23431
3.2693
3.30316
3.33583
3.3673
3.39755
3.42654
3.45426
3.48071
3.50587
3.52973
3.55231
3.57361
3.59365
3.61245
3.63003
3.64644
3.6617
3.67585
3.68895
3.70103
3.71213
3.7223
3.73159
3.74005
3.74773
3.75469
3.76098
3.76663
3.77169
3.7762
3.7802
3.78368
3.78659
3.78888
3.79062
3.79161
3.79164
3.7906
3.78848
3.78506
3.78017
3.77359
3.76503
3.75424
3.74093
3.72488
3.70586
3.6837
3.65826
3.62947
3.5973
3.5618
3.52305
3.48117
3.43624
3.38841
3.33786
3.28487
3.22972
3.17276
3.11431
3.05472
2.9943
2.93338
2.87228
2.8113
2.75072
2.69079
2.63171
2.57367
2.5169
2.46158
2.40788
2.35598
2.30609
2.25851
2.21357
2.16338
0.0541952
0.103968
0.130983
0.15063
0.16707
0.181851
0.195744
0.209185
0.222439
0.235673
0.248994
0.262474
0.276164
0.290106
0.30434
0.31891
0.333863
0.349247
0.36511
0.381492
0.398427
0.415939
0.434043
0.452748
0.472057
0.491971
0.51249
0.533614
0.555341
0.577664
0.600575
0.624059
0.648103
0.672692
0.697818
0.723476
0.749668
0.776397
0.80367
0.831494
0.859876
0.888826
0.918354
0.948468
0.979178
1.0105
1.04243
1.07499
1.10818
1.14202
1.17651
1.21166
1.24748
1.28398
1.32115
1.35901
1.39756
1.4368
1.47673
1.51734
1.55865
1.60064
1.64331
1.68665
1.73064
1.77529
1.82057
1.86647
1.91296
1.96004
2.00766
2.05582
2.10448
2.1536
2.20317
2.25312
2.30344
2.35407
2.40498
2.4561
2.5074
2.55882
2.6103
2.66179
2.71322
2.76454
2.81566
2.86654
2.9171
2.96727
3.01699
3.06617
3.11474
3.16264
3.20978
3.25609
3.30151
3.34595
3.38936
3.43167
3.47283
3.51277
3.55145
3.58882
3.62483
3.65945
3.69264
3.72437
3.75461
3.78334
3.81055
3.83621
3.86034
3.88292
3.90396
3.92349
3.94152
3.95808
3.97322
3.98697
3.99937
4.01048
4.02033
4.02898
4.03648
4.04289
4.04828
4.05272
4.05626
4.05894
4.06083
4.06202
4.06257
4.06251
4.06173
4.06021
4.05811
4.05527
4.0516
4.047
4.04137
4.03457
4.02641
4.01666
4.00508
3.99139
3.97536
3.95674
3.93534
3.91096
3.88347
3.85276
3.81878
3.78151
3.74102
3.69735
3.65059
3.60087
3.54838
3.49336
3.4361
3.37692
3.31616
3.25414
3.19121
3.1277
3.06395
3.00025
2.93692
2.87421
2.81237
2.75162
2.69219
2.63429
2.57811
2.52388
2.47181
2.4222
2.37503
2.32438
0.0609449
0.113936
0.142854
0.163871
0.181387
0.197046
0.211669
0.225728
0.239524
0.253254
0.267057
0.28103
0.295245
0.309759
0.324621
0.339874
0.355562
0.371725
0.388398
0.405615
0.423403
0.44178
0.460759
0.48035
0.500556
0.521377
0.542815
0.564866
0.587528
0.610798
0.63467
0.659139
0.684198
0.709843
0.736071
0.76288
0.790274
0.818257
0.846835
0.876018
0.905814
0.936233
0.967287
0.998986
1.03134
1.06437
1.09808
1.13248
1.16759
1.20341
1.23996
1.27725
1.31528
1.35408
1.39363
1.43396
1.47506
1.51694
1.5596
1.60304
1.64726
1.69226
1.73804
1.78457
1.83186
1.8799
1.92866
1.97814
2.0283
2.07914
2.13062
2.18272
2.2354
2.28863
2.34238
2.3966
2.45126
2.5063
2.56167
2.61733
2.67322
2.72927
2.78543
2.84164
2.89782
2.9539
3.00982
3.06549
3.12084
3.1758
3.23028
3.28421
3.33748
3.39002
3.44175
3.49257
3.54241
3.59118
3.6388
3.6852
3.73031
3.77405
3.81637
3.8572
3.89649
3.9342
3.97026
4.00465
4.03733
4.06825
4.0974
4.12475
4.15028
4.17399
4.19587
4.21594
4.23421
4.25071
4.26547
4.27853
4.28994
4.29975
4.308
4.31475
4.32005
4.32397
4.32659
4.32802
4.3283
4.32746
4.32557
4.32282
4.31927
4.31495
4.30986
4.30404
4.29755
4.29035
4.2824
4.27365
4.26401
4.25335
4.24151
4.22829
4.21347
4.1968
4.17807
4.15703
4.13349
4.10725
4.07815
4.04606
4.01088
3.97255
3.93106
3.88644
3.83875
3.78807
3.73459
3.67851
3.62011
3.55968
3.49755
3.43404
3.36949
3.30424
3.23864
3.17299
3.10762
3.04282
2.97886
2.91598
2.85442
2.79443
2.73622
2.68003
2.6261
2.57469
2.52556
2.47403
0.0666308
0.12213
0.15259
0.174738
0.193165
0.209589
0.22486
0.23948
0.253769
0.267948
0.282174
0.296564
0.311206
0.326169
0.341508
0.35727
0.373495
0.390221
0.407479
0.425296
0.443693
0.462688
0.482293
0.502516
0.523362
0.544835
0.566935
0.589662
0.613016
0.636996
0.6616
0.686829
0.71268
0.739156
0.766257
0.793987
0.822351
0.851357
0.881014
0.91133
0.942318
0.97399
1.00636
1.03944
1.07324
1.10778
1.14307
1.17914
1.21598
1.25362
1.29206
1.33133
1.37143
1.41238
1.45417
1.49683
1.54036
1.58477
1.63005
1.67621
1.72326
1.77118
1.81997
1.86962
1.92014
1.97149
2.02367
2.07666
2.13044
2.18498
2.24026
2.29624
2.3529
2.41019
2.46807
2.52651
2.58545
2.64484
2.70463
2.76477
2.82518
2.88581
2.94659
3.00745
3.06831
3.1291
3.18974
3.25014
3.31021
3.36989
3.42906
3.48764
3.54554
3.60266
3.65889
3.71415
3.76834
3.82136
3.87312
3.92353
3.97251
4.01998
4.06586
4.11008
4.15257
4.19328
4.23214
4.2691
4.30411
4.33713
4.36811
4.39703
4.42385
4.44856
4.47114
4.49159
4.50993
4.52618
4.54037
4.55253
4.56271
4.57096
4.57734
4.58188
4.58467
4.58573
4.58517
4.58313
4.57966
4.57484
4.56878
4.56161
4.55344
4.54435
4.53441
4.52368
4.51225
4.50014
4.48737
4.47392
4.45975
4.44478
4.42888
4.41189
4.39362
4.37386
4.3524
4.32904
4.30354
4.27573
4.2454
4.21239
4.17655
4.13778
4.09601
4.05121
4.0034
3.95265
3.89908
3.84288
3.78427
3.72353
3.66095
3.59685
3.53155
3.4654
3.39873
3.33188
3.26518
3.19894
3.13345
3.06898
3.00581
2.94418
2.88434
2.82655
2.77104
2.71804
2.66719
2.61463
0.0712053
0.128579
0.160236
0.183283
0.202452
0.219513
0.23534
0.250449
0.265174
0.279749
0.294343
0.309084
0.324072
0.339383
0.355078
0.371208
0.387812
0.404928
0.422583
0.440804
0.45961
0.479017
0.499037
0.519681
0.540955
0.562864
0.585413
0.608605
0.632442
0.656926
0.682061
0.70785
0.734296
0.761405
0.789183
0.817638
0.846778
0.876614
0.907158
0.938421
0.970419
1.00317
1.03668
1.07097
1.10606
1.14196
1.17869
1.21627
1.25472
1.29405
1.33427
1.3754
1.41747
1.46047
1.50442
1.54933
1.59521
1.64207
1.68991
1.73873
1.78854
1.83933
1.89109
1.94382
1.99751
2.05214
2.1077
2.16417
2.22152
2.27973
2.33876
2.39858
2.45917
2.52046
2.58243
2.64502
2.70818
2.77186
2.83599
2.90052
2.96537
3.03048
3.09578
3.16118
3.22661
3.29198
3.3572
3.42219
3.48686
3.5511
3.61482
3.67792
3.74029
3.80182
3.86242
3.92196
3.98035
4.03747
4.09322
4.1475
4.20022
4.25127
4.30057
4.34804
4.3936
4.43717
4.47869
4.5181
4.55532
4.59031
4.623
4.65336
4.68134
4.70691
4.73005
4.75074
4.769
4.78484
4.79828
4.80936
4.81812
4.82461
4.82889
4.83096
4.83095
4.82887
4.82486
4.81904
4.81148
4.80232
4.79166
4.77966
4.76643
4.75212
4.73683
4.72069
4.70381
4.68628
4.66816
4.64951
4.63034
4.61062
4.59028
4.56921
4.54726
4.52426
4.50002
4.47434
4.44701
4.41783
4.38658
4.35304
4.31702
4.27837
4.23695
4.19269
4.14556
4.09557
4.0428
3.98738
3.92949
3.86937
3.80727
3.74347
3.6783
3.61207
3.54514
3.47783
3.4105
3.34347
3.27706
3.21156
3.14726
3.08445
3.02338
2.96432
2.90752
2.85315
2.80082
2.74724
0.0746745
0.133366
0.165907
0.189634
0.209378
0.226946
0.243226
0.258742
0.273834
0.288741
0.303641
0.318667
0.333923
0.349493
0.365441
0.381819
0.39867
0.41603
0.433928
0.452389
0.471435
0.491081
0.511342
0.532228
0.553751
0.575918
0.598737
0.622216
0.64636
0.671176
0.696672
0.722853
0.749727
0.777305
0.805597
0.834615
0.864373
0.894885
0.926166
0.958232
0.9911
1.02479
1.05932
1.0947
1.13096
1.16812
1.2062
1.24521
1.28518
1.32612
1.36805
1.411
1.45497
1.49998
1.54605
1.59318
1.64139
1.69068
1.74106
1.79253
1.84509
1.89874
1.95346
2.00926
2.06612
2.12402
2.18295
2.24287
2.30377
2.36561
2.42837
2.49199
2.55645
2.62169
2.68767
2.75433
2.82162
2.88948
2.95783
3.02662
3.09577
3.16521
3.23485
3.30461
3.37442
3.44417
3.51377
3.58313
3.65215
3.72072
3.78874
3.85611
3.9227
3.9884
4.05309
4.11667
4.179
4.23997
4.29947
4.35738
4.41359
4.46799
4.52049
4.57098
4.61939
4.66563
4.70961
4.75126
4.79051
4.82729
4.86152
4.89315
4.92212
4.94839
4.97192
4.99269
5.01071
5.02597
5.0385
5.04833
5.0555
5.06005
5.06204
5.06147
5.05844
5.05301
5.04532
5.03547
5.02357
5.00976
4.99418
4.97699
4.95835
4.93843
4.91739
4.8954
4.87263
4.84921
4.8253
4.80099
4.77638
4.7515
4.72636
4.70089
4.67501
4.64858
4.62145
4.59343
4.56433
4.53392
4.50197
4.46823
4.43245
4.39442
4.35394
4.31089
4.26517
4.21674
4.16563
4.11189
4.05565
3.99707
3.93637
3.87381
3.80965
3.74421
3.67783
3.61084
3.5436
3.47646
3.40974
3.34378
3.27888
3.21535
3.15346
3.0935
3.03569
2.98021
2.92666
2.87218
0.0770704
0.136612
0.16976
0.193968
0.214128
0.232073
0.248697
0.264526
0.279904
0.29507
0.310205
0.325442
0.34089
0.356633
0.372739
0.389262
0.406247
0.42373
0.441742
0.46031
0.479455
0.499197
0.519552
0.540535
0.562159
0.584438
0.607384
0.631008
0.65532
0.680332
0.706055
0.732498
0.759674
0.787596
0.81628
0.845745
0.876008
0.907089
0.939008
0.971783
1.00544
1.03999
1.07546
1.11188
1.14927
1.18764
1.22703
1.26745
1.30892
1.35147
1.39512
1.43989
1.48579
1.53283
1.58105
1.63043
1.68101
1.73277
1.78573
1.83989
1.89525
1.9518
2.00953
2.06843
2.12848
2.18967
2.25197
2.31535
2.37979
2.44525
2.51168
2.57905
2.64732
2.71642
2.7863
2.85692
2.92819
3.00006
3.07246
3.14531
3.21854
3.29206
3.3658
3.43965
3.51354
3.58736
3.66101
3.73441
3.80743
3.87997
3.95192
4.02317
4.0936
4.16308
4.23149
4.2987
4.3646
4.42904
4.49191
4.55307
4.61241
4.66982
4.72517
4.77836
4.8293
4.87789
4.92404
4.96765
5.00866
5.04696
5.08248
5.11515
5.14489
5.17164
5.19536
5.21601
5.23359
5.24809
5.25953
5.26794
5.27336
5.27582
5.27535
5.27199
5.26576
5.25681
5.24524
5.23117
5.21472
5.19604
5.17529
5.15265
5.12832
5.10249
5.07537
5.04719
5.01815
4.98848
4.95838
4.92803
4.8976
4.86721
4.83692
4.80676
4.77669
4.74662
4.71645
4.68603
4.65516
4.62363
4.59117
4.55749
4.52231
4.48535
4.44636
4.40514
4.36154
4.31545
4.26683
4.21566
4.16198
4.1059
4.04756
3.98715
3.92492
3.86116
3.79618
3.73032
3.66393
3.59739
3.53103
3.4652
3.40025
3.33648
3.27421
3.21372
3.15524
3.09895
3.04445
2.98927
0.0785308
0.138515
0.171991
0.196492
0.216918
0.23511
0.251966
0.26801
0.283583
0.298925
0.314214
0.329586
0.345148
0.360985
0.377164
0.39374
0.410759
0.428262
0.446279
0.464841
0.483973
0.503697
0.524033
0.545002
0.56662
0.588906
0.611877
0.635548
0.659935
0.685054
0.71092
0.737545
0.764947
0.793142
0.822152
0.852003
0.882721
0.91433
0.946855
0.98032
1.01475
1.05017
1.0866
1.12408
1.16262
1.20225
1.24301
1.2849
1.32796
1.37221
1.41767
1.46436
1.51229
1.56149
1.61197
1.66373
1.71679
1.77115
1.82681
1.88377
1.94203
2.00157
2.06239
2.12447
2.18778
2.2523
2.318
2.38486
2.45282
2.52185
2.59191
2.66295
2.73491
2.80774
2.88137
2.95574
3.03078
3.10642
3.18259
3.2592
3.33618
3.41343
3.49087
3.56841
3.64595
3.72339
3.80062
3.87756
3.95407
4.03007
4.10542
4.18002
4.25373
4.32643
4.398
4.46831
4.53721
4.60459
4.67029
4.73419
4.79616
4.85606
4.91379
4.96922
5.02224
5.07275
5.12065
5.16583
5.20822
5.24769
5.28417
5.31755
5.34776
5.37471
5.39834
5.41862
5.43552
5.44903
5.45917
5.46596
5.46944
5.46964
5.4666
5.46022
5.45067
5.43804
5.42244
5.40399
5.38282
5.35911
5.33301
5.30475
5.27452
5.24257
5.20915
5.17453
5.13898
5.10278
5.0662
5.02951
4.99295
4.95674
4.92102
4.88589
4.85139
4.81751
4.78416
4.75125
4.71861
4.68603
4.65322
4.61986
4.5856
4.55013
4.51313
4.47434
4.43353
4.39054
4.34525
4.29753
4.24733
4.19469
4.13967
4.08239
4.02304
3.96188
3.89918
3.83529
3.77056
3.70536
3.64006
3.57501
3.51057
3.4471
3.38491
3.32431
3.26554
3.20877
3.15363
3.09801
0.0789438
0.139043
0.172717
0.197384
0.217956
0.236282
0.253262
0.269421
0.285098
0.30053
0.315891
0.331315
0.346907
0.362753
0.378921
0.395467
0.41244
0.429879
0.44782
0.466297
0.485337
0.504969
0.525218
0.546107
0.56766
0.589901
0.612852
0.636533
0.660964
0.686167
0.712161
0.738965
0.766598
0.795078
0.824415
0.854673
0.885885
0.918079
0.951281
0.985522
1.02083
1.05723
1.09475
1.13343
1.17328
1.21435
1.25666
1.30023
1.34508
1.39125
1.43874
1.48758
1.53779
1.58938
1.64235
1.69672
1.75249
1.80966
1.86822
1.92818
1.98952
2.05221
2.11626
2.18161
2.24827
2.31617
2.3853
2.45562
2.52706
2.5996
2.67317
2.74772
2.82318
2.8995
2.97661
3.05443
3.13289
3.21192
3.29143
3.37135
3.45158
3.53203
3.61262
3.69325
3.77382
3.85424
3.93439
4.01417
4.09348
4.1722
4.25022
4.32741
4.40366
4.47884
4.55282
4.62546
4.69664
4.76621
4.83403
4.89997
4.96388
5.02563
5.08509
5.14213
5.19664
5.2485
5.29761
5.34385
5.38712
5.42731
5.46429
5.49798
5.52825
5.55502
5.57822
5.59779
5.61369
5.62593
5.63449
5.63942
5.64075
5.63859
5.63268
5.62315
5.61012
5.59367
5.57391
5.55096
5.52497
5.4961
5.46455
5.43055
5.39432
5.35613
5.31626
5.27507
5.23285
5.18995
5.14671
5.10347
5.06039
5.01784
4.97616
4.93556
4.89619
4.85812
4.82134
4.78581
4.75142
4.71795
4.68508
4.65246
4.61968
4.58634
4.55208
4.51658
4.47953
4.4406
4.39947
4.35608
4.31029
4.26205
4.21133
4.15817
4.10267
4.04506
3.98558
3.92454
3.86231
3.79924
3.73572
3.67214
3.60885
3.54624
3.48465
3.42439
3.36574
3.30885
3.25343
3.19768
0.0787416
0.138702
0.17233
0.196984
0.217554
0.235883
0.252868
0.269028
0.284701
0.300121
0.315463
0.330858
0.34641
0.362202
0.378304
0.394772
0.411656
0.428997
0.446835
0.465205
0.48414
0.503672
0.52383
0.544644
0.566142
0.588352
0.611304
0.635023
0.659538
0.684876
0.711062
0.738121
0.766081
0.794975
0.824788
0.855624
0.887517
0.920505
0.95462
0.989891
1.02635
1.06402
1.10295
1.14315
1.18467
1.22754
1.27178
1.31742
1.36447
1.41296
1.4629
1.51431
1.56719
1.62155
1.67741
1.73475
1.79358
1.85388
1.91565
1.97886
2.0435
2.10954
2.17696
2.24571
2.31576
2.38707
2.45959
2.53327
2.60806
2.6839
2.76073
2.83848
2.9171
2.9965
3.07663
3.15739
3.23871
3.32052
3.40272
3.48524
3.56799
3.65087
3.7338
3.81667
3.89941
3.98189
4.06404
4.14573
4.22686
4.30733
4.38703
4.46583
4.54363
4.62029
4.69569
4.7697
4.84219
4.91302
4.98204
5.04912
5.1141
5.17685
5.23722
5.29509
5.35034
5.40283
5.45246
5.49911
5.54265
5.58296
5.61991
5.65336
5.68321
5.70933
5.73164
5.75008
5.7646
5.7752
5.78187
5.78463
5.78366
5.77879
5.76983
5.75698
5.7403
5.71988
5.69584
5.6683
5.6374
5.60331
5.56624
5.52644
5.48417
5.43972
5.39326
5.34516
5.29588
5.24584
5.19549
5.14526
5.09567
5.04725
5.00011
4.95452
4.91069
4.86877
4.82884
4.79092
4.75493
4.72069
4.68787
4.65609
4.62487
4.59378
4.56238
4.5303
4.49723
4.46293
4.42707
4.38922
4.34913
4.30647
4.26106
4.213
4.16235
4.10927
4.05396
3.9967
3.93784
3.87774
3.81679
3.75539
3.69392
3.63277
3.57233
3.51292
3.45483
3.39825
3.34293
3.28741
0.0780726
0.13766
0.170984
0.19547
0.215909
0.234122
0.250999
0.267057
0.282629
0.297949
0.313187
0.328473
0.343909
0.359579
0.375552
0.391887
0.408633
0.425837
0.443542
0.461789
0.480618
0.500067
0.520174
0.540977
0.562514
0.584819
0.607929
0.631884
0.656727
0.682506
0.709224
0.736911
0.765603
0.795326
0.826076
0.857966
0.89105
0.925366
0.96095
0.997837
1.03606
1.07565
1.11664
1.15906
1.20296
1.24836
1.29529
1.34376
1.39377
1.44534
1.49847
1.55316
1.60941
1.66723
1.72659
1.7875
1.84992
1.91384
1.97923
2.04606
2.1143
2.18391
2.25485
2.32707
2.40051
2.47514
2.55089
2.6277
2.70552
2.78427
2.86389
2.94431
3.02546
3.10727
3.18965
3.27254
3.35586
3.43951
3.52343
3.60753
3.69172
3.77591
3.86003
3.94397
4.02765
4.11098
4.19386
4.27619
4.35788
4.43881
4.5189
4.59803
4.67608
4.75295
4.82851
4.90265
4.97523
5.04612
5.11518
5.18227
5.24722
5.3099
5.37018
5.4279
5.48294
5.53517
5.58447
5.63071
5.67374
5.71344
5.74964
5.7822
5.81097
5.83582
5.85666
5.87341
5.88604
5.89451
5.8988
5.89907
5.89546
5.88743
5.87514
5.85867
5.83808
5.81345
5.78481
5.7523
5.7161
5.67641
5.63343
5.58744
5.53871
5.48762
5.43469
5.38022
5.32453
5.26807
5.21137
5.15494
5.09938
5.04485
4.99193
4.94103
4.89248
4.84651
4.8033
4.76295
4.72547
4.6907
4.65831
4.62785
4.59881
4.57067
4.54292
4.51513
4.48697
4.45829
4.42804
4.39607
4.36206
4.32571
4.28688
4.24528
4.20079
4.15329
4.10313
4.05058
3.99601
3.93975
3.88217
3.8237
3.76473
3.70569
3.64696
3.58892
3.53185
3.47601
3.42118
3.36625
0.0765773
0.135462
0.168382
0.192579
0.212769
0.230757
0.247431
0.263303
0.278706
0.293872
0.308967
0.324121
0.339438
0.355001
0.370883
0.387147
0.403848
0.421041
0.438774
0.457097
0.476056
0.495698
0.516071
0.537229
0.559235
0.582106
0.605882
0.630613
0.656341
0.683086
0.710847
0.739714
0.769754
0.801032
0.833606
0.867521
0.902825
0.939555
0.977748
1.01743
1.05864
1.1014
1.14573
1.19164
1.23918
1.28833
1.33912
1.39154
1.44557
1.50122
1.55847
1.6173
1.67769
1.73963
1.80307
1.86799
1.93435
2.00212
2.07125
2.14169
2.2134
2.28633
2.36042
2.43561
2.51186
2.5891
2.66726
2.74629
2.82612
2.90668
2.9879
3.06973
3.15208
3.23488
3.31807
3.40157
3.48531
3.56921
3.6532
3.73721
3.82114
3.90494
3.98851
4.07179
4.15467
4.2371
4.31898
4.40023
4.48074
4.56044
4.63924
4.71704
4.79372
4.8692
4.94335
5.01607
5.08725
5.15675
5.22445
5.29018
5.35382
5.41518
5.47416
5.5306
5.58436