/*--------------------------------*- C++ -*----------------------------------*\
  =========                 |
  \\      /  F ield         | OpenFOAM: The Open Source CFD Toolbox
   \\    /   O peration     | Website:  https://openfoam.org
    \\  /    A nd           | Version:  8
     \\/     M anipulation  |
\*---------------------------------------------------------------------------*/
FoamFile
{
    version     2.0;
    format      ascii;
    class       volScalarField;
    location    "175";
    object      nut;
}
// * * * * * * * * * * * * * * * * * * * * * * * * * * * * * * * * * * * * * //

dimensions      [0 2 -1 0 0 0 0];

internalField   nonuniform List<scalar> 
12225
(
4.14967e-05
3.93423e-05
3.74829e-05
3.54337e-05
3.37828e-05
3.24225e-05
3.15073e-05
3.09122e-05
3.09177e-05
3.1099e-05
3.15648e-05
3.21291e-05
3.31304e-05
3.38868e-05
3.50155e-05
3.60249e-05
3.70752e-05
3.72328e-05
0.000332352
0.000215201
0.000179289
0.000157667
0.000146215
0.000138202
0.00013271
0.000131692
0.000129465
0.000130109
0.000129005
0.000129484
0.000128622
0.000128604
0.000128041
0.000127477
0.000127354
0.00012662
0.000675021
0.000450789
0.000355802
0.000309812
0.000275298
0.000251083
0.000231701
0.000217274
0.000202628
0.000192149
0.000182567
0.000175214
0.000169333
0.000163653
0.000160264
0.000155502
0.000153741
0.000149779
0.000833657
0.000684861
0.000572023
0.000499942
0.000449468
0.000411947
0.000380754
0.000356009
0.000333965
0.000314783
0.000298271
0.000281705
0.000270251
0.000256013
0.000248129
0.000236066
0.000230266
0.000220311
0.000861269
0.000802521
0.000742149
0.000676559
0.000624002
0.000581372
0.000545847
0.000514558
0.000489485
0.000464422
0.000445816
0.00042404
0.000409882
0.000390738
0.000379794
0.000362985
0.000354322
0.000339329
0.000854983
0.000840348
0.000822211
0.000786485
0.000750864
0.000715899
0.000685748
0.000656128
0.000632527
0.000607501
0.000588966
0.00056721
0.000552234
0.000533031
0.000520695
0.000503618
0.000493158
0.000477309
0.000852909
0.000850686
0.00084424
0.000832828
0.000817411
0.000796999
0.000777881
0.000756732
0.000738888
0.000719131
0.000703512
0.000685589
0.000672084
0.000655867
0.000644236
0.000629438
0.000619389
0.000605008
0.000851923
0.000851813
0.000850173
0.000847395
0.000841452
0.000833727
0.000824894
0.000813412
0.000802801
0.00079046
0.000779701
0.000767518
0.000757397
0.000745745
0.000736489
0.000725463
0.000717068
0.000705937
0.000851751
0.000851542
0.000851035
0.000850338
0.00084888
0.000846167
0.000843033
0.000838302
0.000833399
0.000827355
0.000821208
0.000814761
0.000808392
0.000801503
0.00079521
0.000788377
0.000782118
0.00077519
0.00085177
0.000851389
0.000851046
0.000850633
0.000850248
0.000849367
0.000848405
0.00084678
0.000844954
0.000842527
0.000839919
0.000836793
0.000833785
0.00083014
0.000826954
0.000822904
0.000819873
0.000815263
0.000851787
0.000851359
0.000851012
0.000850613
0.000850329
0.000849905
0.000849525
0.000848928
0.000848302
0.000847392
0.000846464
0.000845174
0.000843986
0.000842345
0.000840988
0.000839021
0.000837627
0.000835345
0.000851789
0.000851359
0.000850996
0.000850605
0.000850292
0.000849938
0.000849646
0.00084928
0.000848954
0.000848503
0.000848097
0.000847506
0.000846995
0.000846241
0.000845638
0.000844716
0.000844052
0.000842969
0.000851786
0.000851363
0.000850986
0.000850604
0.000850269
0.000849926
0.00084963
0.000849313
0.000849042
0.000848728
0.000848461
0.000848125
0.000847842
0.000847464
0.000847154
0.000846723
0.000846384
0.000845899
0.000851783
0.000851364
0.000850978
0.000850602
0.000850256
0.000849916
0.000849607
0.0008493
0.000849022
0.00084874
0.000848488
0.000848224
0.000847988
0.000847734
0.000847507
0.000847257
0.000847032
0.000846783
0.000851781
0.000851364
0.000850973
0.000850598
0.000850246
0.000849908
0.000849592
0.000849286
0.000849
0.000848723
0.000848463
0.000848211
0.000847975
0.000847744
0.000847528
0.000847316
0.000847115
0.00084692
0.00085178
0.000851363
0.000850969
0.000850594
0.000850239
0.000849901
0.00084958
0.000849275
0.000848984
0.000848707
0.000848443
0.000848191
0.000847951
0.000847721
0.000847503
0.000847293
0.000847093
0.000846902
0.000851779
0.000851362
0.000850967
0.000850591
0.000850234
0.000849895
0.000849572
0.000849265
0.000848973
0.000848694
0.000848429
0.000848175
0.000847933
0.000847702
0.000847481
0.00084727
0.000847068
0.000846875
0.000851779
0.000851362
0.000850965
0.000850589
0.000850231
0.00084989
0.000849567
0.000849259
0.000848965
0.000848685
0.000848419
0.000848164
0.00084792
0.000847688
0.000847466
0.000847253
0.00084705
0.000846855
0.000851779
0.000851362
0.000850965
0.000850588
0.00085023
0.000849889
0.000849565
0.000849256
0.000848962
0.000848682
0.000848414
0.000848158
0.000847914
0.000847681
0.000847458
0.000847244
0.00084704
0.000846845
0.000851779
0.000851362
0.000850966
0.000850589
0.000850231
0.000849891
0.000849568
0.000849259
0.000848965
0.000848685
0.000848417
0.000848162
0.000847918
0.000847684
0.00084746
0.000847247
0.000847042
0.000846846
0.000851779
0.000851363
0.000850967
0.000850592
0.000850235
0.000849897
0.000849573
0.000849267
0.000848973
0.000848694
0.000848424
0.000848169
0.00084792
0.000847684
0.000847452
0.000847232
0.000847013
0.000846807
0.000851778
0.000851366
0.000850968
0.000850599
0.00085024
0.000849907
0.00084958
0.000849274
0.000848965
0.000848672
0.000848365
0.000848072
0.000847757
0.000847456
0.000847124
0.000846812
0.000846458
0.000846137
0.000851777
0.000851374
0.000850972
0.000850615
0.000850241
0.00084989
0.000849478
0.000849054
0.00084853
0.000847979
0.000847301
0.000846605
0.000845768
0.00084494
0.000843956
0.000843031
0.000841919
0.000840941
0.000851802
0.00085141
0.000850971
0.000850549
0.000849861
0.000848967
0.000847607
0.00084598
0.000843904
0.000841636
0.000838956
0.000836216
0.000833118
0.000830116
0.000826765
0.000823683
0.000820187
0.000817182
0.000852138
0.000851404
0.000850234
0.000848253
0.000844473
0.000839356
0.000832712
0.000825764
0.000817915
0.000810002
0.000801618
0.00079363
0.000785335
0.000777711
0.000769748
0.000762706
0.00075513
0.000748802
0.000854142
0.000847718
0.000840126
0.000827123
0.000808708
0.000789648
0.000769974
0.000751419
0.000733307
0.000716898
0.000700938
0.000686785
0.000672836
0.000660677
0.000648386
0.00063795
0.000626964
0.000618031
0.00085497
0.000818336
0.00077623
0.000726636
0.00068494
0.000649859
0.000618462
0.000592025
0.000568385
0.000548316
0.000529693
0.000513998
0.000498757
0.000486025
0.000473211
0.000462718
0.000451634
0.000442817
0.000807487
0.00066688
0.000570552
0.000509856
0.00046565
0.000431196
0.000404135
0.000382504
0.000364197
0.000349071
0.000335944
0.000325083
0.000314486
0.000306253
0.000297969
0.000291376
0.00028429
0.000278941
0.000501854
0.000348405
0.00029269
0.000259175
0.000236323
0.000221178
0.000211545
0.000204017
0.000198481
0.000195061
0.000192219
0.000190369
0.000188583
0.00018744
0.000186165
0.000185475
0.000184555
0.000184143
7.27285e-05
7.02231e-05
6.79539e-05
6.56136e-05
6.33827e-05
6.12765e-05
5.94929e-05
5.79572e-05
5.67102e-05
5.57028e-05
5.49773e-05
5.4418e-05
5.4108e-05
5.38863e-05
5.3876e-05
5.39608e-05
5.40701e-05
5.43205e-05
8.68938e-07
1.71851e-05
2.9482e-05
4.12922e-05
5.34023e-05
6.58791e-05
7.87012e-05
9.17287e-05
0.000104695
0.000117301
0.000129189
0.000139976
0.000149172
0.000156149
0.00016002
0.000159557
0.000153038
0.000138163
2.65108e-05
2.59471e-05
2.68039e-05
2.79839e-05
2.93916e-05
3.09494e-05
3.2288e-05
3.39153e-05
3.42436e-05
3.54334e-05
3.6936e-05
3.97669e-05
4.29497e-05
4.6458e-05
4.69345e-05
4.85179e-05
4.93576e-05
5.05586e-05
5.16509e-05
5.28191e-05
5.39576e-05
5.511e-05
5.62513e-05
5.7393e-05
5.85278e-05
5.96608e-05
6.0788e-05
6.19134e-05
6.30337e-05
6.41525e-05
6.52665e-05
6.63794e-05
6.74877e-05
6.85948e-05
6.96975e-05
7.07988e-05
7.18956e-05
7.29906e-05
7.40809e-05
7.51688e-05
7.62516e-05
7.73314e-05
7.84053e-05
7.94755e-05
8.0539e-05
8.15979e-05
8.26493e-05
8.36949e-05
8.4732e-05
8.57623e-05
8.67828e-05
8.77954e-05
8.8797e-05
8.97893e-05
9.07694e-05
9.17389e-05
9.26949e-05
9.36388e-05
9.45677e-05
9.54831e-05
9.63822e-05
9.72663e-05
9.81327e-05
9.89828e-05
9.98138e-05
0.000100627
0.00010142
0.000102193
0.000102945
0.000103676
0.000104384
0.00010507
0.00010573
0.000106366
0.000106974
0.000107556
0.000108112
0.00010865
0.000109156
0.00010963
0.000110087
0.000110519
0.000110927
0.000111311
0.000111671
0.000112008
0.000112321
0.00011261
0.000112876
0.00011312
0.000113342
0.000113542
0.000113721
0.00011388
0.000114019
0.00011414
0.000114242
0.000114328
0.000114397
0.000114452
0.000114492
0.00011452
0.000114537
0.000114543
0.000114536
0.000114521
0.000114494
0.00011446
0.000114417
0.00011437
0.000114314
0.000114255
0.000114186
0.000114113
0.000114029
0.000113953
0.000113862
0.000113787
0.000113704
0.00011353
0.000113587
0.00011341
0.000113333
0.000113242
0.000113081
0.000112878
0.000112682
0.000112467
0.000112197
0.000111907
0.000111567
0.000111171
0.000110732
0.000110237
0.000109579
0.000109022
0.000108208
0.000106503
0.000105883
0.0001055
0.000105086
0.000104609
0.000104065
0.000103468
0.000102795
0.0001021
0.000101353
0.000100529
9.9662e-05
9.87735e-05
9.78395e-05
9.69364e-05
9.59835e-05
9.4993e-05
9.39839e-05
9.29632e-05
9.19351e-05
9.0888e-05
8.98429e-05
8.86295e-05
8.75802e-05
8.4689e-05
3.16383e-06
4.83943e-05
9.90127e-05
0.000134244
0.000158953
0.000178399
0.000195307
0.000210967
0.000225803
0.000239731
0.000252313
0.000262784
0.000269954
0.000272063
0.000266696
0.000251083
0.000223276
0.000184398
0.000140482
0.000134528
0.000136328
0.000140392
0.000145499
0.000151176
0.00015713
0.000163982
0.00017156
0.000181986
0.000195439
0.000213574
0.000234643
0.000257593
0.000281697
0.000289069
0.000294923
0.000301265
0.000308552
0.000316175
0.000324076
0.000332124
0.000340285
0.000348533
0.000356852
0.000365238
0.000373686
0.000382198
0.000390772
0.000399415
0.000408126
0.000416911
0.000425771
0.000434713
0.000443736
0.000452845
0.000462042
0.000471329
0.000480708
0.000490179
0.000499743
0.0005094
0.00051915
0.000528992
0.000538923
0.000548942
0.000559045
0.00056923
0.000579492
0.000589826
0.000600227
0.00061069
0.000621207
0.000631772
0.000642377
0.000653015
0.000663676
0.00067435
0.000685029
0.000695701
0.000706355
0.00071698
0.000727564
0.000738095
0.000748563
0.000758954
0.000769257
0.00077946
0.00078955
0.000799513
0.00080934
0.000819018
0.000828538
0.000837879
0.000847012
0.000855892
0.000864436
0.000872453
0.00087991
0.000887171
0.000894211
0.000901025
0.000907616
0.000913982
0.000920124
0.000926039
0.000931729
0.000937192
0.000942432
0.00094745
0.000952253
0.000956846
0.000961236
0.000965431
0.000969442
0.00097328
0.000976959
0.00098049
0.000983892
0.000987176
0.000990364
0.000993476
0.000996537
0.000999561
0.00100256
0.00100555
0.00100855
0.00101156
0.00101461
0.00101771
0.00102088
0.00102411
0.00102742
0.0010308
0.00103429
0.00103805
0.00104195
0.0010458
0.00104967
0.00105381
0.00105785
0.00106167
0.00106591
0.00106998
0.00107348
0.00107633
0.00107911
0.00108186
0.00108416
0.00108598
0.00108728
0.00108799
0.00108808
0.00108757
0.00108601
0.0010838
0.00108144
0.00107376
0.00106352
0.00105191
0.00103932
0.00102594
0.00101188
0.0009973
0.000982193
0.000966754
0.000950877
0.000934872
0.000918696
0.000902524
0.000886445
0.000870561
0.000854654
0.000838904
0.000823386
0.000808103
0.000792961
0.000778055
0.000762427
0.00074742
0.000730655
0.00067203
6.0098e-06
7.29254e-05
0.000147921
0.000205629
0.000248264
0.000280196
0.000305238
0.000326014
0.00034409
0.000360212
0.000374518
0.000386663
0.00039587
0.000400966
0.000400514
0.000393248
0.000379012
0.000360147
0.000343057
0.000341003
0.000346553
0.000355543
0.000366342
0.000378391
0.00039166
0.000406575
0.000423554
0.00044335
0.000465753
0.000490375
0.00051531
0.000539451
0.000560952
0.000577275
0.000592755
0.000608259
0.000624095
0.000640163
0.000656402
0.000672795
0.000689323
0.000705972
0.000722736
0.000739613
0.000756603
0.000773712
0.000790943
0.000808303
0.000825797
0.000843433
0.000861216
0.000879152
0.000897245
0.000915499
0.000933917
0.000952502
0.000971253
0.000990173
0.00100926
0.00102851
0.00104793
0.0010675
0.00108723
0.00110711
0.00112713
0.00114728
0.00116756
0.00118796
0.00120847
0.00122907
0.00124975
0.0012705
0.0012913
0.00131214
0.00133301
0.00135388
0.00137473
0.00139556
0.00141633
0.00143703
0.00145764
0.00147813
0.00149849
0.00151868
0.0015387
0.00155851
0.00157809
0.00159742
0.00161647
0.00163521
0.00165361
0.00167164
0.00168924
0.00170634
0.00172287
0.00173879
0.00175416
0.00176912
0.00178362
0.00179766
0.00181124
0.00182435
0.00183698
0.00184914
0.00186081
0.00187201
0.00188272
0.00189296
0.00190273
0.00191204
0.0019209
0.00192933
0.00193735
0.00194497
0.00195222
0.00195912
0.00196571
0.001972
0.00197805
0.00198388
0.00198953
0.00199504
0.00200043
0.00200573
0.00201098
0.00201619
0.00202142
0.00202667
0.00203199
0.00203738
0.00204286
0.00204843
0.00205412
0.00205998
0.00206597
0.00207199
0.00207807
0.00208428
0.00209031
0.00209632
0.00210277
0.00210882
0.00211358
0.00211777
0.00212179
0.00212523
0.00212785
0.00212953
0.00213018
0.00212965
0.00212788
0.0021248
0.00212009
0.00211382
0.00210633
0.00209425
0.00207851
0.00206028
0.00204019
0.00201856
0.00199561
0.00197154
0.00194645
0.00192056
0.00189402
0.00186712
0.00183992
0.00181258
0.00178576
0.00175914
0.00173193
0.00170493
0.00167832
0.00165201
0.00162583
0.00159971
0.00157242
0.00154518
0.00151667
0.00143465
8.92562e-06
9.17227e-05
0.000185078
0.000259156
0.000315418
0.000358172
0.000391471
0.000418376
0.000441013
0.000460729
0.000478267
0.000493916
0.000507635
0.000519149
0.000528083
0.000534183
0.000537719
0.000540015
0.000543781
0.000552056
0.000563917
0.000578038
0.00059361
0.000610268
0.000627936
0.000646728
0.000666806
0.000688332
0.000711228
0.000735207
0.000759675
0.000784038
0.000807715
0.000830343
0.000852775
0.00087527
0.000897971
0.000920941
0.000944076
0.000967353
0.000990767
0.00101432
0.001038
0.00106183
0.00108581
0.00110994
0.00113423
0.0011587
0.00118334
0.00120817
0.0012332
0.00125844
0.00128388
0.00130954
0.00133541
0.0013615
0.00138781
0.00141434
0.00144108
0.00146803
0.0014952
0.00152256
0.00155012
0.00157786
0.00160578
0.00163387
0.00166211
0.00169049
0.00171899
0.0017476
0.0017763
0.00180508
0.00183391
0.00186278
0.00189165
0.00192052
0.00194935
0.00197812
0.00200681
0.00203539
0.00206382
0.00209209
0.00212016
0.00214801
0.0021756
0.00220291
0.0022299
0.00225653
0.00228278
0.00230861
0.00233397
0.00235882
0.0023831
0.00240676
0.00242974
0.00245207
0.00247376
0.00249485
0.00251532
0.00253515
0.00255434
0.00257286
0.00259072
0.0026079
0.0026244
0.00264022
0.00265536
0.00266982
0.00268361
0.00269673
0.00270921
0.00272105
0.00273229
0.00274293
0.00275302
0.00276259
0.00277166
0.00278028
0.0027885
0.00279635
0.00280388
0.00281115
0.00281817
0.00282501
0.00283168
0.00283825
0.00284476
0.00285123
0.00285772
0.00286426
0.00287087
0.00287753
0.00288431
0.00289127
0.00289834
0.00290541
0.00291263
0.00291985
0.00292741
0.0029351
0.00294228
0.0029488
0.00295463
0.00296016
0.00296512
0.00296929
0.00297245
0.00297443
0.00297508
0.00297425
0.0029718
0.00296761
0.00296145
0.00295325
0.00294293
0.00292886
0.0029112
0.00289063
0.00286768
0.00284269
0.00281589
0.00278751
0.0027577
0.00272668
0.00269465
0.00266191
0.00262858
0.00259484
0.00256111
0.00252741
0.00249346
0.00245995
0.00242707
0.00239444
0.00236191
0.00232921
0.00229529
0.00226082
0.00222441
0.00214105
1.17362e-05
0.000107503
0.00021604
0.000303701
0.000371893
0.00042441
0.000465524
0.000498596
0.000526128
0.000549886
0.000571052
0.000590373
0.000608285
0.000625022
0.000640715
0.000655496
0.000669641
0.000683737
0.000698669
0.000715206
0.000733369
0.000752881
0.000773465
0.000794923
0.00081715
0.000840123
0.000863884
0.000888506
0.000914031
0.000940427
0.000967542
0.000995142
0.001023
0.0010509
0.00107887
0.00110697
0.00113519
0.00116349
0.00119189
0.00122042
0.0012491
0.00127793
0.00130692
0.00133608
0.00136541
0.00139493
0.00142464
0.00145455
0.00148467
0.00151499
0.00154555
0.00157634
0.00160739
0.00163867
0.00167021
0.001702
0.00173404
0.00176633
0.00179886
0.00183163
0.00186463
0.00189785
0.00193129
0.00196494
0.00199877
0.00203278
0.00206695
0.00210127
0.00213572
0.00217028
0.00220493
0.00223964
0.0022744
0.00230919
0.00234397
0.00237872
0.00241341
0.00244803
0.00248253
0.00251688
0.00255106
0.00258504
0.00261878
0.00265225
0.00268541
0.00271823
0.00275067
0.0027827
0.00281427
0.00284535
0.00287589
0.00290586
0.0029352
0.00296388
0.00299187
0.00301915
0.00304571
0.00307155
0.00309664
0.00312098
0.00314453
0.0031673
0.00318925
0.00321039
0.00323069
0.00325017
0.0032688
0.0032866
0.00330357
0.00331972
0.00333505
0.0033496
0.00336337
0.00337639
0.0033887
0.00340033
0.00341132
0.00342171
0.00343155
0.00344089
0.00344978
0.00345826
0.00346639
0.00347422
0.00348179
0.00348916
0.0034964
0.00350353
0.00351062
0.00351774
0.00352491
0.00353207
0.00353935
0.0035469
0.00355459
0.0035621
0.00357015
0.00357859
0.00358705
0.00359509
0.00360257
0.00360957
0.00361636
0.00362269
0.00362838
0.00363324
0.00363705
0.00363962
0.00364079
0.00364038
0.00363823
0.00363417
0.00362801
0.00361959
0.00360867
0.00359447
0.00357694
0.00355644
0.00353332
0.00350787
0.00348031
0.00345085
0.00341965
0.00338692
0.00335289
0.0033178
0.00328183
0.00324518
0.00320817
0.00317091
0.00313339
0.00309597
0.00305905
0.00302222
0.00298555
0.00294919
0.00291208
0.00287424
0.00283399
0.0027573
1.43666e-05
0.000120785
0.000242062
0.000341492
0.000420375
0.000481984
0.00053068
0.000570014
0.000602733
0.000630889
0.000655963
0.000678993
0.000700698
0.000721569
0.000741957
0.00076214
0.000782379
0.000802979
0.000824277
0.000846539
0.000869853
0.000894181
0.000919431
0.000945497
0.000972292
0.000999756
0.00102787
0.00105662
0.00108604
0.00111612
0.00114679
0.00117795
0.00120948
0.00124126
0.00127323
0.00130535
0.0013376
0.00136996
0.00140246
0.00143508
0.00146785
0.00150078
0.00153387
0.00156713
0.00160058
0.00163423
0.00166809
0.00170216
0.00173648
0.00177103
0.00180583
0.00184086
0.00187615
0.00191169
0.00194748
0.00198352
0.00201981
0.00205635
0.00209314
0.00213016
0.00216741
0.00220488
0.00224256
0.00228045
0.00231852
0.00235676
0.00239517
0.00243371
0.00247238
0.00251115
0.00255
0.00258892
0.00262788
0.00266685
0.00270582
0.00274475
0.00278362
0.00282239
0.00286105
0.00289956
0.00293788
0.00297599
0.00301385
0.00305143
0.00308868
0.00312558
0.00316209
0.00319816
0.00323375
0.00326883
0.00330334
0.00333726
0.00337053
0.00340311
0.00343497
0.00346609
0.00349643
0.00352598
0.00355471
0.00358259
0.00360961
0.00363574
0.00366095
0.00368524
0.00370859
0.00373098
0.00375241
0.00377288
0.00379239
0.00381093
0.00382853
0.00384519
0.00386093
0.00387579
0.00388978
0.00390294
0.00391531
0.00392694
0.00393786
0.00394815
0.00395784
0.00396698
0.00397564
0.00398387
0.00399172
0.00399927
0.00400659
0.00401372
0.00402071
0.00402772
0.00403477
0.00404165
0.00404862
0.00405605
0.0040639
0.00407144
0.00407958
0.00408779
0.00409587
0.00410368
0.00411146
0.00411905
0.0041264
0.00413338
0.00413982
0.00414551
0.00415027
0.00415391
0.00415624
0.00415706
0.00415621
0.00415348
0.00414868
0.0041416
0.00413202
0.00411951
0.00410397
0.00408554
0.00406444
0.00404086
0.00401497
0.00398694
0.00395693
0.00392511
0.00389169
0.00385689
0.0038209
0.00378393
0.00374624
0.00370799
0.00366929
0.0036304
0.00359172
0.00355291
0.00351411
0.0034754
0.00343622
0.00339636
0.00335399
0.00328473
1.67511e-05
0.000131789
0.000263692
0.000373543
0.000461922
0.000532128
0.000588232
0.000633909
0.000672063
0.000704933
0.000734202
0.000761108
0.000786551
0.000811175
0.000835449
0.000859719
0.000884253
0.000909275
0.00093497
0.000961473
0.000988847
0.00101709
0.00104618
0.00107603
0.00110658
0.00113777
0.00116954
0.00120187
0.00123471
0.00126806
0.00130186
0.00133604
0.00137055
0.0014053
0.00144025
0.00147536
0.0015106
0.00154597
0.00158147
0.0016171
0.00165287
0.0016888
0.00172488
0.00176113
0.00179757
0.0018342
0.00187103
0.00190808
0.00194535
0.00198286
0.0020206
0.00205858
0.0020968
0.00213527
0.00217399
0.00221295
0.00225216
0.00229161
0.00233131
0.00237123
0.00241139
0.00245176
0.00249234
0.00253312
0.00257409
0.00261523
0.00265652
0.00269796
0.00273953
0.0027812
0.00282296
0.00286479
0.00290667
0.00294857
0.00299047
0.00303234
0.00307416
0.00311591
0.00315754
0.00319903
0.00324036
0.00328148
0.00332237
0.00336298
0.00340329
0.00344325
0.00348282
0.00352197
0.00356065
0.00359882
0.00363643
0.00367345
0.00370982
0.0037455
0.00378046
0.00381465
0.00384805
0.00388061
0.00391232
0.00394312
0.00397299
0.0040019
0.00402983
0.00405674
0.00408262
0.00410744
0.0041312
0.00415388
0.00417548
0.004196
0.00421543
0.00423379
0.0042511
0.00426737
0.00428262
0.0042969
0.00431023
0.00432266
0.00433423
0.004345
0.00435502
0.00436435
0.00437303
0.00438113
0.00438871
0.00439587
0.00440269
0.0044092
0.00441542
0.00442165
0.00442804
0.00443414
0.00444041
0.00444707
0.00445374
0.00446032
0.0044674
0.00447468
0.00448204
0.00448949
0.00449701
0.00450454
0.00451202
0.00451932
0.00452629
0.00453274
0.00453852
0.00454342
0.00454725
0.00454983
0.00455094
0.00455039
0.00454795
0.00454342
0.00453656
0.0045271
0.0045149
0.00449999
0.00448246
0.0044624
0.00443994
0.00441517
0.00438823
0.00435925
0.00432839
0.00429585
0.00426182
0.00422649
0.00419009
0.00415282
0.00411483
0.00407634
0.00403762
0.00399868
0.00395959
0.00392041
0.00388086
0.00384061
0.00379755
0.00373503
1.8841e-05
0.000140687
0.000281335
0.00040038
0.000497203
0.000575384
0.000638617
0.000690588
0.000734273
0.000772023
0.000805649
0.000836525
0.000865674
0.000893849
0.000921595
0.000949311
0.000977284
0.00100572
0.00103477
0.00106453
0.00109505
0.00112633
0.00115835
0.00119107
0.00122443
0.00125837
0.00129284
0.00132778
0.00136316
0.00139894
0.00143506
0.00147149
0.00150816
0.00154504
0.00158209
0.00161929
0.00165661
0.00169404
0.0017316
0.00176927
0.00180708
0.00184502
0.0018831
0.00192135
0.00195976
0.00199835
0.00203712
0.0020761
0.00211529
0.00215469
0.00219431
0.00223416
0.00227424
0.00231455
0.0023551
0.00239589
0.00243691
0.00247817
0.00251967
0.00256139
0.00260333
0.00264549
0.00268786
0.00273043
0.00277319
0.00281613
0.00285923
0.00290249
0.00294588
0.0029894
0.00303301
0.00307672
0.0031205
0.00316432
0.00320816
0.00325201
0.00329584
0.00333962
0.00338332
0.00342692
0.00347038
0.00351368
0.00355679
0.00359965
0.00364225
0.00368453
0.00372647
0.00376802
0.00380913
0.00384977
0.00388988
0.00392942
0.00396835
0.00400661
0.00404415
0.00408094
0.00411693
0.00415208
0.00418633
0.00421966
0.00425202
0.00428337
0.00431367
0.00434289
0.004371
0.00439797
0.00442377
0.0044484
0.00447182
0.00449404
0.00451505
0.00453485
0.00455344
0.00457085
0.00458708
0.00460218
0.00461616
0.00462908
0.00464097
0.00465189
0.00466187
0.00467099
0.00467928
0.00468684
0.00469365
0.00469993
0.00470579
0.00471141
0.00471655
0.00472144
0.00472605
0.00473065
0.00473535
0.00474025
0.00474526
0.00475043
0.00475596
0.00476179
0.00476792
0.00477434
0.00478105
0.00478803
0.00479521
0.0048025
0.00480977
0.00481687
0.00482365
0.00482994
0.00483553
0.00484024
0.00484384
0.00484612
0.00484685
0.00484579
0.0048427
0.00483736
0.0048296
0.00481935
0.0048066
0.00479136
0.00477369
0.00475361
0.0047312
0.00470654
0.00467977
0.00465102
0.00462047
0.00458829
0.0045547
0.0045199
0.00448407
0.00444742
0.00441019
0.00437249
0.00433444
0.00429614
0.00425744
0.00421802
0.00417582
0.00411955
2.06038e-05
0.000147627
0.000295285
0.000422172
0.0005265
0.000611986
0.000681944
0.000739997
0.000789131
0.000831742
0.000869718
0.000904516
0.000937245
0.000968735
0.000999595
0.00103027
0.00106107
0.00109221
0.00112384
0.00115606
0.00118892
0.00122243
0.00125658
0.00129133
0.00132664
0.00136245
0.00139872
0.00143541
0.00147246
0.00150983
0.00154747
0.00158535
0.0016234
0.00166161
0.00169995
0.00173839
0.00177693
0.00181557
0.0018543
0.00189313
0.00193207
0.00197111
0.00201029
0.00204959
0.00208904
0.00212865
0.00216843
0.00220838
0.00224853
0.00228886
0.0023294
0.00237016
0.00241112
0.00245231
0.00249373
0.00253537
0.00257724
0.00261935
0.00266168
0.00270424
0.00274703
0.00279004
0.00283326
0.0028767
0.00292034
0.00296418
0.0030082
0.0030524
0.00309676
0.00314128
0.00318593
0.00323071
0.00327559
0.00332057
0.00336561
0.00341071
0.00345584
0.00350097
0.00354608
0.00359114
0.00363613
0.00368102
0.00372576
0.00377034
0.0038147
0.00385882
0.00390265
0.00394614
0.00398927
0.00403197
0.00407419
0.0041159
0.00415704
0.00419755
0.00423738
0.00427649
0.0043148
0.00435228
0.00438887
0.00442452
0.00445917
0.00449278
0.0045253
0.00455668
0.00458688
0.00461586
0.00464359
0.00467003
0.00469516
0.00471897
0.00474143
0.00476253
0.00478229
0.00480069
0.00481776
0.00483351
0.00484798
0.00486119
0.00487319
0.00488402
0.00489373
0.00490238
0.00490998
0.00491673
0.00492264
0.00492779
0.00493223
0.00493612
0.00493949
0.00494248
0.00494518
0.00494775
0.00495031
0.00495298
0.00495581
0.00495888
0.00496232
0.00496619
0.00497053
0.00497538
0.00498078
0.00498674
0.00499323
0.00500018
0.00500751
0.00501512
0.00502286
0.00503058
0.00503811
0.00504523
0.00505173
0.00505735
0.00506186
0.005065
0.00506651
0.00506614
0.0050637
0.00505905
0.00505208
0.00504274
0.00503096
0.00501673
0.00500005
0.00498094
0.00495947
0.00493574
0.00490989
0.00488208
0.0048525
0.00482134
0.00478881
0.00475512
0.0047205
0.00468512
0.00464915
0.0046127
0.00457577
0.00453805
0.00449768
0.0044471
2.20242e-05
0.000152763
0.000305809
0.000439196
0.000550063
0.000642097
0.000718243
0.000782009
0.000836332
0.000883611
0.000925763
0.000964292
0.00100036
0.00103486
0.00106846
0.00110162
0.0011347
0.00116792
0.00120145
0.00123536
0.00126983
0.00130484
0.00134038
0.00137641
0.00141289
0.00144978
0.00148705
0.00152466
0.00156258
0.00160078
0.00163924
0.00167784
0.00171652
0.00175528
0.00179412
0.00183301
0.00187195
0.00191095
0.00195
0.00198912
0.00202831
0.00206759
0.00210696
0.00214643
0.00218603
0.00222576
0.00226563
0.00230566
0.00234586
0.00238623
0.00242679
0.00246755
0.00250852
0.0025497
0.0025911
0.00263273
0.00267459
0.00271668
0.00275902
0.00280159
0.00284441
0.00288746
0.00293076
0.0029743
0.00301807
0.00306208
0.00310631
0.00315076
0.00319542
0.00324028
0.00328534
0.00333058
0.00337599
0.00342155
0.00346725
0.00351307
0.00355899
0.00360499
0.00365105
0.00369714
0.00374324
0.00378931
0.00383533
0.00388125
0.00392705
0.00397268
0.0040181
0.00406327
0.00410815
0.00415267
0.0041968
0.00424047
0.00428363
0.00432623
0.0043682
0.00440947
0.00445
0.00448971
0.00452855
0.00456644
0.00460333
0.00463916
0.00467386
0.00470738
0.00473966
0.00477065
0.0048003
0.00482857
0.00485542
0.00488082
0.00490474
0.00492716
0.00494806
0.00496745
0.00498533
0.0050017
0.0050166
0.00503005
0.00504208
0.00505274
0.00506207
0.00507014
0.00507706
0.00508281
0.00508749
0.00509111
0.00509387
0.00509585
0.00509716
0.00509794
0.0050983
0.0050984
0.0050984
0.00509842
0.0050986
0.00509906
0.00509994
0.00510136
0.00510342
0.00510623
0.00510986
0.00511437
0.00511977
0.00512607
0.00513321
0.00514112
0.00514973
0.00515888
0.00516842
0.00517815
0.00518782
0.00519717
0.00520594
0.00521383
0.00522056
0.00522585
0.00522946
0.00523118
0.00523084
0.00522827
0.00522334
0.00521594
0.00520599
0.00519344
0.0051783
0.00516062
0.00514049
0.00511805
0.00509347
0.00506693
0.00503864
0.00500882
0.00497769
0.00494548
0.00491238
0.00487855
0.00484407
0.00480868
0.00477077
0.00472537
2.31034e-05
0.000156262
0.000313194
0.000451757
0.000568151
0.00066588
0.000747555
0.000816511
0.000875602
0.000927191
0.000973193
0.00101513
0.00105418
0.00109126
0.00112717
0.00116238
0.00119724
0.00123199
0.00126679
0.00130172
0.00133709
0.00137286
0.00140903
0.00144557
0.00148247
0.00151969
0.00155721
0.001595
0.00163302
0.00167127
0.00170976
0.0017483
0.00178687
0.00182542
0.00186396
0.00190248
0.00194099
0.0019795
0.00201801
0.00205654
0.0020951
0.00213372
0.00217239
0.00221115
0.00225
0.00228895
0.00232803
0.00236726
0.00240663
0.00244618
0.00248591
0.00252584
0.00256597
0.00260633
0.00264692
0.00268775
0.00272883
0.00277017
0.00281179
0.00285367
0.00289584
0.00293829
0.00298102
0.00302405
0.00306737
0.00311098
0.00315487
0.00319906
0.00324353
0.00328827
0.00333328
0.00337856
0.00342409
0.00346986
0.00351585
0.00356206
0.00360846
0.00365503
0.00370175
0.00374861
0.00379556
0.00384259
0.00388966
0.00393673
0.00398378
0.00403075
0.00407762
0.00412432
0.00417082
0.00421706
0.00426299
0.00430854
0.00435366
0.00439828
0.00444234
0.00448576
0.00452848
0.00457042
0.00461152
0.00465168
0.00469085
0.00472895
0.0047659
0.00480164
0.00483609
0.00486918
0.00490086
0.00493107
0.00495975
0.00498685
0.00501234
0.00503617
0.00505834
0.00507881
0.00509758
0.00511466
0.00513006
0.00514381
0.00515593
0.00516646
0.00517546
0.00518299
0.00518912
0.00519383
0.00519719
0.00519926
0.00520022
0.00520018
0.00519926
0.00519762
0.00519539
0.00519276
0.00518989
0.00518695
0.00518413
0.00518159
0.00517952
0.00517809
0.00517746
0.00517779
0.00517922
0.00518188
0.00518584
0.00519114
0.00519781
0.00520581
0.00521512
0.00522562
0.00523718
0.00524958
0.0052626
0.00527593
0.00528928
0.00530232
0.00531474
0.00532621
0.00533645
0.00534518
0.00535216
0.00535711
0.00535983
0.0053601
0.00535775
0.00535265
0.00534474
0.005334
0.00532047
0.00530427
0.00528553
0.00526442
0.00524116
0.00521596
0.00518907
0.00516071
0.00513113
0.00510053
0.00506903
0.00503645
0.00500143
0.00496081
2.38506e-05
0.000158307
0.000317734
0.000460152
0.000581036
0.00068346
0.000769921
0.00084341
0.000906682
0.000962028
0.00101143
0.00105635
0.00109792
0.00113702
0.00117457
0.0012111
0.00124702
0.00128261
0.00131812
0.00135373
0.00138952
0.00142549
0.00146166
0.00149804
0.00153461
0.00157136
0.00160827
0.00164533
0.0016825
0.00171977
0.00175728
0.00179502
0.00183266
0.00187021
0.00190765
0.00194495
0.00198215
0.00201925
0.0020563
0.00209332
0.00213033
0.00216736
0.00220442
0.00224154
0.00227873
0.00231602
0.00235343
0.00239099
0.0024287
0.00246659
0.00250469
0.002543
0.00258155
0.00262035
0.00265943
0.00269879
0.00273846
0.00277844
0.00281874
0.00285939
0.00290039
0.00294174
0.00298346
0.00302555
0.00306801
0.00311085
0.00315408
0.00319768
0.00324166