/*--------------------------------*- C++ -*----------------------------------*\
  =========                 |
  \\      /  F ield         | OpenFOAM: The Open Source CFD Toolbox
   \\    /   O peration     | Website:  https://openfoam.org
    \\  /    A nd           | Version:  8
     \\/     M anipulation  |
\*---------------------------------------------------------------------------*/
FoamFile
{
    version     2.0;
    format      ascii;
    class       volScalarField;
    location    "175";
    object      p;
}
// * * * * * * * * * * * * * * * * * * * * * * * * * * * * * * * * * * * * * //

dimensions      [0 2 -2 0 0 0 0];

internalField   nonuniform List<scalar> 
12225
(
-0.733155
-2.92111
-4.02095
-4.34145
-4.52251
-4.69129
-4.82256
-4.91734
-4.99351
-5.06035
-5.11965
-5.17362
-5.22219
-5.26685
-5.30758
-5.33909
-5.37749
-5.33209
-3.89554
-4.66426
-4.82469
-4.73227
-4.71955
-4.78716
-4.86442
-4.9298
-4.98898
-5.04588
-5.09981
-5.14983
-5.19655
-5.23998
-5.28098
-5.31504
-5.35467
-5.37412
-4.29618
-4.2819
-4.40922
-4.48744
-4.58213
-4.70207
-4.80899
-4.89349
-4.96488
-5.02971
-5.08917
-5.14324
-5.19331
-5.23952
-5.28335
-5.32201
-5.36664
-5.40416
-4.1748
-4.1181
-4.35962
-4.51779
-4.61933
-4.72529
-4.82269
-4.90239
-4.97071
-5.0333
-5.09124
-5.14448
-5.19412
-5.24042
-5.2848
-5.3263
-5.37217
-5.41884
-4.16488
-4.1892
-4.41713
-4.55852
-4.64194
-4.73375
-4.82468
-4.90205
-4.96919
-5.03093
-5.08847
-5.14174
-5.19169
-5.23874
-5.28424
-5.32829
-5.37549
-5.42621
-4.223
-4.27173
-4.44586
-4.56959
-4.6509
-4.73848
-4.82623
-4.90241
-4.96898
-5.03023
-5.08748
-5.1408
-5.19097
-5.23862
-5.28494
-5.33056
-5.37847
-5.42992
-4.28334
-4.3274
-4.46244
-4.57859
-4.66212
-4.74602
-4.82966
-4.90397
-4.96968
-5.03027
-5.08706
-5.14027
-5.19054
-5.23859
-5.28544
-5.3319
-5.3799
-5.43051
-4.33683
-4.37435
-4.48418
-4.59229
-4.67509
-4.75446
-4.8336
-4.90577
-4.97048
-5.03031
-5.08658
-5.13957
-5.18986
-5.23813
-5.28524
-5.33198
-5.37957
-5.42863
-4.38653
-4.41958
-4.51037
-4.60816
-4.68804
-4.76319
-4.8381
-4.90793
-4.97143
-5.03039
-5.08601
-5.13868
-5.18883
-5.23709
-5.28418
-5.33073
-5.37751
-5.42472
-4.43356
-4.46275
-4.53815
-4.6252
-4.70122
-4.77256
-4.84343
-4.91067
-4.9727
-5.03063
-5.08547
-5.13762
-5.18745
-5.23546
-5.28223
-5.32823
-5.37391
-5.41922
-4.47786
-4.5033
-4.56639
-4.64341
-4.71493
-4.78255
-4.84956
-4.91402
-4.97436
-5.03109
-5.085
-5.13646
-5.18576
-5.23329
-5.27948
-5.32464
-5.36905
-5.4125
-4.51587
-4.53818
-4.59227
-4.66096
-4.72793
-4.79214
-4.85577
-4.91761
-4.97623
-5.03172
-5.08464
-5.13531
-5.18395
-5.23085
-5.27631
-5.32054
-5.3637
-5.40553
-4.55099
-4.57067
-4.6174
-4.67866
-4.74101
-4.80185
-4.86228
-4.92153
-4.97834
-5.0325
-5.08433
-5.1341
-5.18195
-5.22808
-5.27269
-5.31591
-5.35781
-5.39812
-4.58778
-4.60494
-4.64488
-4.69878
-4.75598
-4.81301
-4.87
-4.92635
-4.981
-5.03353
-5.08402
-5.13263
-5.17943
-5.22454
-5.26806
-5.31003
-5.3505
-5.38922
-4.62501
-4.63977
-4.6737
-4.7207
-4.77249
-4.82537
-4.87873
-4.93196
-4.98414
-5.03473
-5.08359
-5.13076
-5.17625
-5.22006
-5.26224
-5.30278
-5.34168
-5.37875
-4.66071
-4.67332
-4.70221
-4.7431
-4.7896
-4.83825
-4.88793
-4.93795
-4.98746
-5.03586
-5.08284
-5.12832
-5.17223
-5.21451
-5.25515
-5.2941
-5.33136
-5.36679
-4.69199
-4.70285
-4.72778
-4.76369
-4.80554
-4.85024
-4.89647
-4.94342
-4.99026
-5.03636
-5.08133
-5.12496
-5.16712
-5.20772
-5.2467
-5.284
-5.3196
-5.35344
-4.71447
-4.72412
-4.74637
-4.77883
-4.81728
-4.85893
-4.90241
-4.94681
-4.99135
-5.03536
-5.07841
-5.12025
-5.16068
-5.19961
-5.23694
-5.27264
-5.30667
-5.33902
-4.72127
-4.73043
-4.75166
-4.78283
-4.81995
-4.86027
-4.90237
-4.94538
-4.98853
-5.03117
-5.07284
-5.11328
-5.15231
-5.18984
-5.22579
-5.26012
-5.29283
-5.32394
-4.70517
-4.71495
-4.73757
-4.77068
-4.80971
-4.85146
-4.89447
-4.93806
-4.98151
-5.02417
-5.06563
-5.10568
-5.14418
-5.18108
-5.21631
-5.24988
-5.28181
-5.31214
-4.67834
-4.68914
-4.71443
-4.75148
-4.7943
-4.83886
-4.884
-4.9293
-4.97401
-5.01745
-5.05931
-5.09952
-5.13801
-5.17474
-5.20972
-5.24296
-5.27451
-5.30446
-4.64314
-4.65496
-4.68434
-4.72796
-4.77628
-4.82431
-4.87218
-4.91996
-4.96658
-5.01125
-5.05385
-5.0945
-5.13321
-5.16999
-5.20487
-5.23794
-5.26928
-5.29898
-4.60261
-4.61451
-4.64899
-4.70229
-4.75788
-4.80988
-4.86083
-4.91133
-4.9599
-5.00585
-5.04935
-5.09061
-5.12968
-5.16662
-5.20154
-5.23456
-5.26579
-5.29536
-4.55893
-4.56991
-4.6117
-4.67615
-4.73837
-4.79509
-4.85077
-4.90468
-4.955
-5.00188
-5.04607
-5.08782
-5.12715
-5.16418
-5.19908
-5.23203
-5.26315
-5.29259
-4.51205
-4.51752
-4.58019
-4.65843
-4.72041
-4.7787
-4.8399
-4.89831
-4.95088
-4.999
-5.04408
-5.0864
-5.126
-5.1631
-5.19796
-5.23082
-5.26185
-5.29123
-4.4688
-4.43237
-4.54192
-4.65292
-4.71521
-4.77054
-4.8328
-4.89259
-4.94587
-4.99465
-5.04043
-5.08329
-5.12321
-5.16049
-5.19545
-5.22836
-5.25941
-5.28878
-4.4829
-4.32392
-4.45288
-4.607
-4.69715
-4.76857
-4.83755
-4.89851
-4.95136
-4.9997
-5.04504
-5.08736
-5.1267
-5.16341
-5.19782
-5.23022
-5.26085
-5.28994
-4.60563
-4.42564
-4.43988
-4.51207
-4.60048
-4.69975
-4.79049
-4.86432
-4.92608
-4.98128
-5.03164
-5.07747
-5.11933
-5.15786
-5.19358
-5.22694
-5.25839
-5.28855
-4.31294
-4.90453
-4.99341
-4.86921
-4.81492
-4.84212
-4.88915
-4.93244
-4.97406
-5.0163
-5.05785
-5.09723
-5.13424
-5.16901
-5.2016
-5.23217
-5.26094
-5.28968
-1.32469
-3.08748
-4.0922
-4.39138
-4.54059
-4.68426
-4.79834
-4.87935
-4.94363
-5.00055
-5.05186
-5.09795
-5.13968
-5.17794
-5.21326
-5.24543
-5.2743
-5.2981
-6.2279
-6.22787
-6.22842
-6.22985
-6.23194
-6.23457
-6.23768
-6.24126
-6.24527
-6.24971
-6.25461
-6.26
-6.26594
-6.27261
-6.28019
-6.28876
-6.29839
-6.30915
-6.32078
-6.33308
-6.34618
-6.36033
-6.37554
-6.39173
-6.40911
-6.42889
-6.45166
-6.47501
-6.49735
-6.51798
-6.53609
-6.55288
-6.5693
-6.58783
-6.60968
-6.63301
-6.65743
-6.68263
-6.70843
-6.73467
-6.76126
-6.78809
-6.81508
-6.84215
-6.86923
-6.89623
-6.92309
-6.94973
-6.97605
-7.002
-7.02746
-7.05235
-7.07658
-7.10004
-7.12261
-7.1442
-7.16466
-7.18389
-7.20174
-7.21808
-7.23275
-7.24562
-7.25651
-7.2653
-7.27177
-7.27581
-7.27719
-7.27579
-7.27138
-7.26383
-7.25291
-7.2385
-7.22036
-7.19838
-7.17233
-7.1421
-7.10747
-7.06834
-7.02451
-6.97589
-6.92228
-6.86362
-6.79971
-6.73054
-6.65594
-6.57593
-6.49039
-6.3993
-6.30257
-6.20018
-6.0922
-5.97862
-5.85941
-5.73458
-5.60413
-5.4681
-5.32656
-5.17954
-5.02716
-4.86948
-4.70648
-4.53818
-4.36469
-4.1861
-4.00245
-3.81376
-3.62005
-3.42134
-3.21762
-3.00889
-2.79512
-2.57629
-2.35231
-2.12313
-1.88864
-1.64873
-1.40319
-1.15184
-0.894472
-0.630961
-0.361083
-0.084591
0.198927
0.489801
0.788443
1.09511
1.41017
1.73389
2.06664
2.40865
2.76025
3.12163
3.49298
3.87437
4.2658
4.66712
5.07805
5.49812
5.9267
6.36294
6.80584
7.25415
7.7065
8.16127
8.61669
9.07075
9.52137
9.96635
10.4035
10.8306
11.2456
11.6467
12.0322
12.4009
12.7517
13.084
13.397
13.6898
13.9621
14.2136
14.4447
14.6556
14.8471
15.0197
15.1745
15.3122
15.434
15.541
15.6342
15.7147
15.7838
15.8427
15.8927
15.9354
15.9729
16.0079
16.0456
16.0943
16.1813
16.3039
-6.22504
-6.22567
-6.22658
-6.22767
-6.22873
-6.22991
-6.23147
-6.23355
-6.23622
-6.23949
-6.24336
-6.24782
-6.25291
-6.2587
-6.26517
-6.27233
-6.28031
-6.28901
-6.29839
-6.30878
-6.32039
-6.333
-6.34674
-6.36139
-6.37685
-6.39221
-6.40704
-6.42166
-6.43759
-6.45565
-6.47693
-6.50137
-6.52867
-6.55663
-6.58244
-6.60775
-6.63312
-6.65874
-6.68466
-6.71087
-6.73732
-6.76397
-6.79074
-6.81758
-6.84441
-6.87118
-6.8978
-6.92422
-6.95035
-6.97612
-7.00142
-7.02619
-7.05032
-7.07372
-7.09626
-7.11785
-7.13836
-7.15767
-7.17564
-7.19215
-7.20703
-7.22015
-7.23134
-7.24047
-7.24734
-7.2518
-7.25368
-7.2528
-7.24897
-7.24204
-7.23181
-7.21811
-7.20074
-7.17956
-7.15437
-7.12503
-7.09134
-7.05316
-7.01034
-6.96274
-6.91019
-6.85261
-6.78983
-6.72179
-6.64835
-6.56948
-6.48509
-6.39514
-6.29955
-6.19834
-6.09152
-5.9791
-5.86105
-5.73735
-5.60801
-5.47303
-5.33243
-5.1863
-5.03472
-4.87776
-4.71555
-4.54817
-4.37569
-4.19812
-4.01549
-3.8278
-3.63512
-3.43742
-3.23474
-3.02706
-2.81439
-2.59665
-2.37383
-2.14583
-1.9126
-1.67399
-1.42985
-1.17999
-0.92423
-0.66242
-0.394382
-0.119823
0.1616
0.450262
0.746493
1.05061
1.36291
1.68372
2.01334
2.35206
2.70018
3.05792
3.42548
3.80296
4.19039
4.58767
4.99458
5.41068
5.8354
6.26793
6.70735
7.15245
7.60194
8.05421
8.50754
8.95996
9.4094
9.85369
10.2906
10.718
11.1339
11.5362
11.9233
12.2937
12.6462
12.9801
13.2948
13.5898
13.8646
14.1191
14.3534
14.5679
14.763
14.9395
15.0981
15.2398
15.3656
15.4764
15.5734
15.6577
15.7305
15.793
15.8466
15.8928
15.9338
15.9723
16.0133
16.0627
16.1441
16.2478
-6.21784
-6.21993
-6.2228
-6.22505
-6.2265
-6.22766
-6.22898
-6.23069
-6.23293
-6.23575
-6.23921
-6.24334
-6.24818
-6.25377
-6.26013
-6.26721
-6.275
-6.28343
-6.29254
-6.30253
-6.31357
-6.32569
-6.33894
-6.35329
-6.36851
-6.38403
-6.3994
-6.4148
-6.43072
-6.4478
-6.46689
-6.48845
-6.51226
-6.53736
-6.56245
-6.58755
-6.61274
-6.63811
-6.66367
-6.68944
-6.71541
-6.74153
-6.76776
-6.79406
-6.82036
-6.8466
-6.87272
-6.89866
-6.92433
-6.94967
-6.97458
-6.99899
-7.02279
-7.04589
-7.06819
-7.08957
-7.10991
-7.1291
-7.147
-7.16347
-7.17838
-7.19157
-7.20289
-7.21219
-7.2193
-7.22405
-7.22628
-7.2258
-7.22245
-7.21604
-7.20639
-7.19333
-7.17667
-7.15625
-7.13188
-7.1034
-7.07064
-7.03345
-6.99165
-6.94512
-6.89371
-6.83729
-6.77573
-6.70894
-6.63679
-6.55924
-6.47618
-6.38757
-6.29333
-6.19346
-6.08799
-5.97689
-5.86015
-5.73777
-5.60976
-5.47615
-5.33699
-5.19234
-5.04226
-4.88682
-4.72608
-4.56015
-4.3891
-4.21296
-4.03177
-3.84555
-3.65435
-3.45816
-3.25703
-3.05092
-2.83987
-2.62381
-2.40273
-2.17653
-1.94518
-1.70853
-1.46647
-1.21878
-0.965358
-0.706006
-0.44058
-0.16876
0.109744
0.395323
0.688242
0.988856
1.29742
1.61428
1.9397
2.27401
2.61745
2.97029
3.33269
3.70481
4.08667
4.47822
4.87926
5.28943
5.70821
6.13489
6.56858
7.00821
7.45251
7.89999
8.34894
8.79753
9.24372
9.68547
10.1206
10.5472
10.9631
11.3665
11.7557
12.1292
12.4857
12.8244
13.1443
13.4449
13.7256
13.9862
14.2268
14.4476
14.649
14.8318
14.9966
15.1444
15.2761
15.3926
15.4952
15.5848
15.6626
15.73
15.7883
15.8391
15.8844
15.9269
15.9713
16.0209
16.0949
16.1694
-6.20699
-6.21069
-6.21624
-6.22049
-6.22322
-6.22521
-6.227
-6.22889
-6.23111
-6.23379
-6.23702
-6.24088
-6.24543
-6.25073
-6.25682
-6.26368
-6.27129
-6.2796
-6.28859
-6.29832
-6.3089
-6.32041
-6.33289
-6.34639
-6.36083
-6.37608
-6.39194
-6.40838
-6.42553
-6.44359
-6.46289
-6.48365
-6.50582
-6.52908
-6.55296
-6.57723
-6.60179
-6.62663
-6.65169
-6.67698
-6.70246
-6.72809
-6.75385
-6.77967
-6.80552
-6.83133
-6.85704
-6.88259
-6.90791
-6.93292
-6.95754
-6.98169
-7.00527
-7.02819
-7.05034
-7.07161
-7.09188
-7.11103
-7.12894
-7.14546
-7.16046
-7.17378
-7.18527
-7.19479
-7.20215
-7.20721
-7.20977
-7.20968
-7.20676
-7.20081
-7.19167
-7.17916
-7.1631
-7.1433
-7.1196
-7.09182
-7.05979
-7.02336
-6.98236
-6.93665
-6.88609
-6.83055
-6.7699
-6.70403
-6.63284
-6.55625
-6.47418
-6.38656
-6.29331
-6.19444
-6.08994
-5.97981
-5.86401
-5.74256
-5.61549
-5.48282
-5.34463
-5.20097
-5.05192
-4.89754
-4.73791
-4.57309
-4.40314
-4.22811
-4.04805
-3.86298
-3.67295
-3.47797
-3.27807
-3.07325
-2.8635
-2.6488
-2.42912
-2.20439
-1.97456
-1.7395
-1.4991
-1.25319
-1.00164
-0.744281
-0.480933
-0.211296
0.0649269
0.348074
0.638421
0.936292
1.24196
1.55575
1.87793
2.20881
2.54864
2.89768
3.25609
3.62403
4.00154
4.3886
4.785
5.19044
5.6044
6.02626
6.45516
6.89012
7.3299
7.77309
8.21803
8.66296
9.10595
9.54505
9.97825
10.4036
10.8191
11.223
11.6136
11.9892
12.3486
12.6907
13.0146
13.3195
13.6048
13.8703
14.1158
14.3418
14.5485
14.7365
14.9066
15.0595
15.1962
15.3177
15.425
15.5192
15.6014
15.673
15.7352
15.7896
15.8383
15.8834
15.9291
15.9765
16.0396
16.0868
-6.19534
-6.20071
-6.20911
-6.21562
-6.21995
-6.22314
-6.22582
-6.22834
-6.23096
-6.23391
-6.23731
-6.24127
-6.24587
-6.25118
-6.25726
-6.26412
-6.27178
-6.28023
-6.28946
-6.29946
-6.31026
-6.32188
-6.33434
-6.34764
-6.36177
-6.37671
-6.39245
-6.409
-6.42644
-6.44484
-6.46429
-6.48482
-6.50636
-6.52874
-6.55178
-6.57531
-6.59924
-6.62351
-6.64806
-6.67287
-6.69789
-6.72309
-6.74843
-6.77385
-6.79932
-6.82478
-6.85016
-6.87541
-6.90045
-6.92521
-6.94961
-6.97357
-6.997
-7.01979
-7.04184
-7.06305
-7.08329
-7.10244
-7.12038
-7.13697
-7.15206
-7.16551
-7.17717
-7.18687
-7.19445
-7.19975
-7.20259
-7.2028
-7.2002
-7.19461
-7.18584
-7.17373
-7.15808
-7.13872
-7.11548
-7.08818
-7.05664
-7.02071
-6.98023
-6.93505
-6.88503
-6.83003
-6.76993
-6.70462
-6.634
-6.55799
-6.4765
-6.38946
-6.29681
-6.19853
-6.09464
-5.9851
-5.86991
-5.74906
-5.62261
-5.49058
-5.35304
-5.21006
-5.06172
-4.90808
-4.74922
-4.58521
-4.41609
-4.24193
-4.06275
-3.87863
-3.68957
-3.49563
-3.29679
-3.0931
-2.88451
-2.67106
-2.45266
-2.22931
-2.00089
-1.76734
-1.5285
-1.28428
-1.03449
-0.779013
-0.517574
-0.249963
0.024208
0.305154
0.593253
0.888722
1.19194
1.50314
1.82268
2.1508
2.48783
2.83395
3.18941
3.55431
3.92875
4.31268
4.70595
5.10823
5.51907
5.93782
6.36375
6.79584
7.23293
7.67358
8.11624
8.55914
9.00049
9.43832
9.87075
10.2958
10.7115
11.1161
11.5078
11.885
12.2465
12.5911
12.9177
13.2256
13.5141
13.7829
14.0321
14.2617
14.4722
14.664
14.8378
14.9945
15.1349
15.26
15.3707
15.4682
15.5536
15.6282
15.6931
15.75
15.8005
15.8466
15.8915
15.9347
15.9868
16.0115
-6.18525
-6.19216
-6.20302
-6.2116
-6.21752
-6.22202
-6.22576
-6.22912
-6.23242
-6.23589
-6.23972
-6.24404
-6.24894
-6.25451
-6.26081
-6.26788
-6.27575
-6.28444
-6.29394
-6.30427
-6.31541
-6.32736
-6.34011
-6.35364
-6.36794
-6.38299
-6.39881
-6.41542
-6.43288
-6.45122
-6.47047
-6.49062
-6.51162
-6.53336
-6.55574
-6.57866
-6.60203
-6.62579
-6.64987
-6.67425
-6.69887
-6.72369
-6.74867
-6.77377
-6.79894
-6.82412
-6.84925
-6.87427
-6.89911
-6.9237
-6.94796
-6.9718
-6.99514
-7.01787
-7.03989
-7.0611
-7.08136
-7.10057
-7.11858
-7.13527
-7.15048
-7.16407
-7.17589
-7.18578
-7.19357
-7.19908
-7.20216
-7.20262
-7.20028
-7.19496
-7.18648
-7.17466
-7.15931
-7.14025
-7.11731
-7.09031
-7.05909
-7.02346
-6.98328
-6.9384
-6.88867
-6.83395
-6.77414
-6.7091
-6.63875
-6.563
-6.48177
-6.39499
-6.30259
-6.20459
-6.10097
-5.99171
-5.8768
-5.75627
-5.63014
-5.49847
-5.36132
-5.21876
-5.07087
-4.91772
-4.7594
-4.59596
-4.42748
-4.25398
-4.07555
-3.89221
-3.70401
-3.51097
-3.31313
-3.11048
-2.90304
-2.69077
-2.47367
-2.25167
-2.02471
-1.79269
-1.55551
-1.31303
-1.0651
-0.811567
-0.552169
-0.286638
-0.0146609
0.264032
0.549761
0.842802
1.1435
1.45213
1.76904
2.0945
2.42883
2.77227
3.12504
3.48729
3.85911
4.24046
4.63123
5.0311
5.43968
5.85635
6.28039
6.7108
7.14645
7.58593
8.02771
8.47006
8.91121
9.34921
9.78216
10.208
10.625
11.0311
11.4246
11.8039
12.1676
12.5145
12.8436
13.154
13.4452
13.7169
13.9688
14.2013
14.4146
14.6093
14.786
14.9455
15.0886
15.2163
15.3296
15.4295
15.5172
15.5938
15.6605
15.7187
15.77
15.8158
15.8587
15.8969
15.9391
15.9451
-6.1784
-6.18656
-6.19925
-6.20948
-6.21681
-6.22253
-6.22732
-6.23159
-6.23564
-6.23976
-6.24414
-6.24895
-6.25429
-6.26025
-6.2669
-6.27429
-6.28246
-6.29143
-6.3012
-6.3118
-6.3232
-6.33541
-6.34841
-6.36217
-6.3767
-6.39196
-6.40796
-6.4247
-6.44222
-6.46051
-6.4796
-6.49946
-6.52006
-6.54135
-6.56325
-6.58569
-6.6086
-6.63193
-6.65563
-6.67964
-6.70394
-6.72846
-6.75317
-6.77803
-6.80297
-6.82796
-6.85292
-6.8778
-6.90252
-6.92703
-6.95122
-6.97503
-6.99836
-7.0211
-7.04316
-7.06442
-7.08476
-7.10407
-7.1222
-7.13902
-7.15438
-7.16814
-7.18013
-7.1902
-7.19818
-7.20389
-7.20717
-7.20783
-7.2057
-7.20058
-7.1923
-7.18067
-7.16551
-7.14663
-7.12386
-7.09702
-7.06594
-7.03044
-6.99038
-6.9456
-6.89595
-6.8413
-6.78154
-6.71654
-6.64621
-6.57046
-6.48923
-6.40244
-6.31004
-6.21201
-6.10838
-5.99913
-5.88424
-5.76375
-5.63769
-5.50613
-5.36912
-5.22675
-5.07909
-4.92622
-4.76824
-4.60518
-4.43715
-4.26417
-4.08633
-3.90364
-3.71619
-3.52396
-3.32702
-3.12534
-2.91897
-2.70784
-2.492
-2.27132
-2.04582
-1.81533
-1.57982
-1.3391
-1.09309
-0.841511
-0.584204
-0.320793
-0.0510833
0.225311
0.5086
0.799182
1.0973
1.40335
1.71759
2.04042
2.37208
2.7129
3.06307
3.4228
3.79215
4.17116
4.55968
4.95752
5.36424
5.77933
6.20201
6.63139
7.06628
7.50538
7.94711
8.38984
8.8317
9.27083
9.7052
10.1329
10.5518
10.9602
11.3561
11.7379
12.1042
12.4537
12.7853
13.0983
13.392
13.6661
13.9206
14.1555
14.3712
14.5682
14.7471
14.9088
15.054
15.1837
15.2988
15.4004
15.4897
15.5676
15.6353
15.6941
15.7454
15.7901
15.8301
15.8629
15.8966
15.8868
-6.17573
-6.18472
-6.19855
-6.20993
-6.21835
-6.22509
-6.23081
-6.23591
-6.24071
-6.24548
-6.25045
-6.25578
-6.2616
-6.26799
-6.27503
-6.28278
-6.29127
-6.30053
-6.31058
-6.32141
-6.33303
-6.34544
-6.35862
-6.37255
-6.38723
-6.40263
-6.41875
-6.43559
-6.45315
-6.47142
-6.49041
-6.51009
-6.53043
-6.55141
-6.57298
-6.59508
-6.61766
-6.64068
-6.66409
-6.68784
-6.7119
-6.73622
-6.76075
-6.78545
-6.81027
-6.83515
-6.86004
-6.88487
-6.90957
-6.93407
-6.95829
-6.98214
-7.00553
-7.02835
-7.05051
-7.07189
-7.09236
-7.11181
-7.1301
-7.14708
-7.16261
-7.17654
-7.18872
-7.19896
-7.20712
-7.213
-7.21645
-7.21726
-7.21527
-7.21029
-7.20212
-7.1906
-7.17552
-7.1567
-7.13397
-7.10715
-7.07606
-7.04053
-7.00041
-6.95555
-6.90579
-6.85102
-6.7911
-6.72593
-6.65541
-6.57945
-6.49799
-6.41096
-6.31832
-6.22006
-6.1162
-6.00672
-5.89162
-5.77095
-5.64476
-5.51309
-5.37603
-5.23365
-5.08604
-4.93329
-4.77548
-4.61268
-4.44496
-4.2724
-4.09503
-3.91293
-3.72613
-3.53466
-3.33854
-3.1378
-2.93244
-2.72245
-2.50781
-2.28847
-2.06438
-1.83545
-1.6016
-1.36268
-1.11856
-0.868985
-0.613728
-0.352487
-0.0849975
0.189065
0.469976
0.758092
1.05371
1.35721
1.6689
1.98916
2.31828
2.65657
3.00428
3.36163
3.7287
4.10555
4.49209
4.88814
5.29332
5.70713
6.12884
6.55759
6.99222
7.43146
7.87372
8.31738
8.76057
9.20139
9.63779
10.0678
10.4893
10.9004
11.2991
11.6838
12.0528
12.4051
12.7393
13.0548
13.351
13.6274
13.8841
14.1211
14.3388
14.5377
14.7185
14.8818
15.0286
15.1598
15.2762
15.3791
15.4693
15.548
15.6162
15.675
15.7255
15.7685
15.8054
15.8327
15.8588
15.8357
-6.17748
-6.18688
-6.20118
-6.21319
-6.22234
-6.22981
-6.23626
-6.24205
-6.24748
-6.25284
-6.25835
-6.26417
-6.27042
-6.27721
-6.28462
-6.29269
-6.30147
-6.31098
-6.32125
-6.33228
-6.34408
-6.35663
-6.36994
-6.38399
-6.39876
-6.41424
-6.43044
-6.44732
-6.46489
-6.48315
-6.50206
-6.52163
-6.54182
-6.56261
-6.58397
-6.60585
-6.62822
-6.65104
-6.67427
-6.69787
-6.7218
-6.74601
-6.77046
-6.7951
-6.81989
-6.84476
-6.86966
-6.89453
-6.91929
-6.94387
-6.96818
-6.99215
-7.01566
-7.03863
-7.06095
-7.08249
-7.10314
-7.12276
-7.14123
-7.15839
-7.17411
-7.18821
-7.20055
-7.21096
-7.21926
-7.22529
-7.22885
-7.22977
-7.22785
-7.22292
-7.21479
-7.20327
-7.18816
-7.16929
-7.14647
-7.11953
-7.08829
-7.05258
-7.01224
-6.96713
-6.91709
-6.86201
-6.80175
-6.73621
-6.6653
-6.58894
-6.50706
-6.41959
-6.32652
-6.22782
-6.12354
-6.01364
-5.89816
-5.77713
-5.65062
-5.51868
-5.3814
-5.23887
-5.09118
-4.93843
-4.78068
-4.61805
-4.45057
-4.27835
-4.10141
-3.91986
-3.73367
-3.54294
-3.34764
-3.14784
-2.94349
-2.73465
-2.52123
-2.30325
-2.0806
-1.85328
-1.62112
-1.38405
-1.14182
-0.894285
-0.641081
-0.382034
-0.116743
0.15499
0.433581
0.719265
1.01248
1.3135
1.62275
1.94053
2.26723
2.60313
2.94854
3.30366
3.66864
4.04352
4.42831
4.8228
5.22675
5.6396
6.06076
6.48928
6.92414
7.36396
7.80728
8.25233
8.69734
9.14029
9.57918
10.0119
10.4363
10.8504
11.2522
11.6399
12.0119
12.367
12.7039
13.0219
13.3203
13.5989
13.8575
14.0964
14.3158
14.5163
14.6985
14.8631
15.0111
15.1432
15.2606
15.3642
15.4549
15.5339
15.602
15.6603
15.7097
15.7506
15.784
15.8059
15.8255
15.7909
-6.18342
-6.19283
-6.20701
-6.21915
-6.22864
-6.23656
-6.24349
-6.24976
-6.25568
-6.2615
-6.26743
-6.27363
-6.28024
-6.28736
-6.29504
-6.30337
-6.31237
-6.32207
-6.3325
-6.34366
-6.35557
-6.36822
-6.3816
-6.39572
-6.41054
-6.42607
-6.4423
-6.4592
-6.47678
-6.49502
-6.5139
-6.53341
-6.55352
-6.57422
-6.59547
-6.61724
-6.63952
-6.66225
-6.6854
-6.70895
-6.73284
-6.75704
-6.78151
-6.80618
-6.83103
-6.85598
-6.88097
-6.90595
-6.93085
-6.95557
-6.98005
-7.00419
-7.02788
-7.05104
-7.07355
-7.09529
-7.11614
-7.13596
-7.15461
-7.17196
-7.18785
-7.20212
-7.2146
-7.22513
-7.23354
-7.23965
-7.24326
-7.24421
-7.2423
-7.23734
-7.22913
-7.21751
-7.20226
-7.18321
-7.16018
-7.13298
-7.10144
-7.0654
-7.02469
-6.97916
-6.92868
-6.87311
-6.81234
-6.74626
-6.67479
-6.59784
-6.51536
-6.4273
-6.3336
-6.23432
-6.12944
-6.01898
-5.90295
-5.78142
-5.65445
-5.52211
-5.3845
-5.24171
-5.09385
-4.941
-4.78327
-4.62073
-4.45346
-4.28155
-4.10505
-3.92401
-3.73848
-3.54849
-3.35405
-3.1552
-2.95193
-2.74424
-2.53212
-2.31552
-2.09441
-1.86872
-1.63834
-1.40313
-1.16289
-0.917381
-0.66632
-0.409447
-0.146431
0.123007
0.399224
0.682529
0.973316
1.27192
1.57874
1.89412
2.21844
2.55202
2.8952
3.24819
3.61119
3.98429
4.36752
4.76076
5.16375
5.57603
5.99699
6.42573
6.86122
7.3021
7.74687
8.19378
8.64101
9.0865
9.52821
9.96395
10.3916
10.8089
11.214
11.6049
11.98
12.3379
12.6775
12.9978
13.2985
13.579
13.8395
14.0799
14.3008
14.5025
14.6857
14.8513
15.0001
15.133
15.2508
15.3547
15.4456
15.5245
15.5922
15.6496
15.6974
15.7359
15.7657
15.7825
15.7962
15.7519
-6.19299
-6.20206
-6.21562
-6.22745
-6.23694
-6.24499
-6.25214
-6.25868
-6.26488
-6.27099
-6.2772
-6.28367
-6.29052
-6.29784
-6.30571
-6.3142
-6.32333
-6.33315
-6.34367
-6.35491
-6.36687
-6.37956
-6.39297
-6.40711
-6.42195
-6.4375
-6.45373
-6.47065
-6.48824
-6.50649
-6.52537
-6.54486
-6.56496
-6.58564
-6.60687
-6.62863
-6.6509
-6.67364
-6.69682
-6.7204
-6.74436
-6.76864
-6.7932
-6.81799
-6.84297
-6.86807
-6.89323
-6.91839
-6.94347
-6.9684
-6.99308
-7.01743
-7.04135
-7.06472
-7.08744
-7.10939
-7.13043
-7.15044
-7.16927
-7.18677
-7.2028
-7.21718
-7.22976
-7.24036
-7.24881
-7.25492
-7.25851
-7.25939
-7.25738
-7.25227
-7.24389
-7.23204
-7.21653
-7.19717
-7.17378
-7.14619
-7.1142
-7.07767
-7.03644
-6.99034
-6.93926
-6.88305
-6.82161
-6.75483
-6.68264
-6.60496
-6.52173
-6.4329
-6.33848
-6.23844
-6.13285
-6.02169
-5.90501
-5.78286
-5.65533
-5.52251
-5.38449
-5.24137
-5.09329
-4.9403
-4.78255
-4.62008
-4.45304
-4.28144
-4.1054
-3.92491
-3.74008
-3.55085
-3.35734
-3.15947
-2.95734
-2.75087
-2.54011
-2.32497
-2.10547
-1.88148
-1.65297
-1.41969
-1.18151
-0.938081
-0.689234
-0.434572
-0.173904
0.0931944
0.366956
0.647841
0.936131
1.23229
1.53664
1.84962
2.17155
2.50288
2.84388
3.19487
3.55603
3.92756
4.30946
4.70172
5.10405
5.51611
5.93721
6.36659
6.80308
7.24545
7.69206
8.14124
8.59102
9.03942
9.48424
9.92332
10.3544
10.7752
11.1837
11.5779
11.9561
12.3168
12.659
12.9817
13.2844
13.5668
13.8288
14.0706
14.2926
14.4953
14.6793
14.8456
14.9948
15.128
15.2461
15.35
15.4407
15.519
15.5859
15.6421
15.6882
15.7241
15.7503
15.7623
15.7707
15.7179
-6.20542
-6.21388
-6.22642
-6.23759
-6.24674
-6.25464
-6.26175
-6.26833
-6.27462
-6.28084
-6.28717
-6.29375
-6.30071
-6.30812
-6.31607
-6.32461
-6.33379
-6.34364
-6.35417
-6.36542
-6.37738
-6.39006
-6.40347
-6.4176
-6.43244
-6.44799
-6.46424
-6.48117
-6.49878
-6.51705
-6.53596
-6.55549
-6.57563
-6.59635
-6.61764
-6.63947
-6.66182
-6.68465
-6.70794
-6.73165
-6.75574
-6.78017
-6.8049
-6.82987
-6.85504
-6.88034
-6.90572
-6.9311
-6.9564
-6.98155
-7.00646
-7.03103
-7.05516
-7.07874
-7.10165
-7.12378
-7.14499
-7.16514
-7.18409
-7.20169
-7.21779
-7.23221
-7.2448
-7.25538
-7.26376
-7.26977
-7.27322
-7.27393
-7.27169
-7.26632
-7.25762
-7.24541
-7.2295
-7.20969
-7.1858
-7.15766
-7.12509
-7.08793
-7.04602
-6.99921
-6.94738
-6.89039
-6.82814
-6.76053
-6.68749
-6.60894
-6.52484
-6.43516
-6.33986
-6.239
-6.13259
-6.02065
-5.90323
-5.7804
-5.65226
-5.5189
-5.38043
-5.23698
-5.08863
-4.93553
-4.77774
-4.61541
-4.44859
-4.27738
-4.10183
-3.92198
-3.73787
-3.54953
-3.35696
-3.16019
-2.95924
-2.7541
-2.54475
-2.33118
-2.11336
-1.89121
-1.66463
-1.43342
-1.19737
-0.956195
-0.709634
-0.457355
-0.199093
0.0655063
0.336766
0.615103
0.900871
1.19451
1.49638
1.80693
2.12654
2.45563
2.79455
3.14365
3.50314
3.87325
4.25406
4.64556
5.04753
5.45963
5.88124
6.31154
6.74943
7.19358
7.6424
8.09413
8.5468
8.99836
9.44658
9.8892
10.3239
10.7483
11.1603
11.5578
11.9391
12.3027
12.6474
12.9724
13.277
13.561
13.8244
14.0674
14.2903
14.4937
14.6783
14.8449
14.9944
15.1276
15.2456
15.3492
15.4394
15.517
15.5829
15.6376
15.6816
15.7148
15.7375
15.7449
15.7486
15.6885
-6.21987
-6.22752
-6.23878
-6.24898
-6.25752
-6.26502
-6.27185
-6.27824
-6.28441
-6.29055
-6.29682
-6.30336
-6.31028
-6.31765
-6.32556
-6.33406
-6.34319
-6.35298
-6.36347
-6.37467
-6.38658
-6.39923
-6.41261
-6.42673
-6.44156
-6.45712
-6.47338
-6.49034
-6.50798
-6.52629
-6.54525
-6.56485
-6.58507
-6.6059
-6.6273
-6.64927
-6.67176
-6.69476
-6.71822
-6.74211
-6.76639
-6.79102
-6.81595
-6.84113
-6.86651
-6.89204
-6.91763
-6.94323
-6.96875
-6.99411
-7.01921
-7.04397
-7.06827
-7.092
-7.11504
-7.13727
-7.15856
-7.17877
-7.19774
-7.21533
-7.23139
-7.24574
-7.25821
-7.26863
-7.27682
-7.2826
-7.28577
-7.28615
-7.28355
-7.27776
-7.26861
-7.25589
-7.23942
-7.21902
-7.19449
-7.16566
-7.13237
-7.09444
-7.05172
-7.00408
-6.95138
-6.89349
-6.83032
-6.76178
-6.68779
-6.60829
-6.52324
-6.43261
-6.3364
-6.23463
-6.12735
-6.01459
-5.8964
-5.77287
-5.6441
-5.5102
-5.37128
-5.22748
-5.0789
-4.92569
-4.76793
-4.60577
-4.43925
-4.2685
-4.09352
-3.91441
-3.73113
-3.54376
-3.35226
-3.15671
-2.95704
-2.75334
-2.54554
-2.33368
-2.11768
-1.89752
-1.673
-1.44401
-1.21021
-0.971433
-0.72725
-0.477489
-0.22174
0.040228
0.308911
0.584602
0.867811
1.15886
1.45826
1.76638
2.08371
2.41062
2.74757
3.09487
3.45287
3.82173
4.20168
4.59264
4.99455
5.40696
5.82938
6.26091
6.70051
7.14675
7.59808
8.05261
8.50843
8.96334
9.41515
9.86144
10.2999
10.728
11.1435
11.5444
11.9287
12.2951
12.6422
12.9692
13.2756
13.5611
13.8256
14.0695
14.2931
14.497
14.6819
14.8486
14.998
15.131
15.2486
15.3517
15.4412
15.5179
15.5825
15.6355
15.6774
15.7078
15.727
15.7302
15.7295
15.6633
-6.23553
-6.24225
-6.25203
-6.26107
-6.26878
-6.27565
-6.28197
-6.28796
-6.2938
-6.29966
-6.30569
-6.31202
-6.31875
-6.32595
-6.3337
-6.34206
-6.35106
-6.36074
-6.37113
-6.38224
-6.39409
-6.40668
-6.42002
-6.4341
-6.44891
-6.46446
-6.48073
-6.49771
-6.51539
-6.53376
-6.5528
-6.57251
-6.59285
-6.61381
-6.63537
-6.65751
-6.68019
-6.70337
-6.72703
-6.75112
-6.7756
-6.80042
-6.82554
-6.85092
-6.87649
-6.90219
-6.92796
-6.95372
-6.97939
-7.00487
-7.03008
-7.05492
-7.07928
-7.10304
-7.12609
-7.14829
-7.16952
-7.18963
-7.20848
-7.22591
-7.24176
-7.25587
-7.26806
-7.27816
-7.286
-7.29137
-7.2941
-7.294
-7.29086
-7.28451
-7.27475
-7.26138
-7.24422
-7.22309
-7.19779
-7.16816
-7.13402
-7.09522
-7.0516
-7.00303
-6.94937
-6.89051
-6.82635
-6.7568
-6.68181
-6.60131
-6.51527
-6.42366
-6.32649
-6.22381
-6.11565
-6.00205
-5.88309
-5.75887
-5.62948
-5.49507
-5.35574
-5.21165
-5.06291
-4.90966
-4.75203
-4.59012
-4.42404
-4.25385
-4.0796
-3.90132
-3.71904
-3.53277
-3.34251
-3.14829
-2.95012
-2.74799
-2.54193
-2.33193
-2.11795
-1.89993
-1.67769
-1.45104
-1.21968
-0.983356
-0.741734
-0.494573
-0.241519
0.0177724
0.283745
0.556772
0.83733
1.12581
1.4227
1.72843
2.0435
2.36832
2.70337
3.04903
3.40567
3.77351
4.15277
4.54347
4.94551
5.35853
5.78201
6.21506
6.6566
7.10521
7.55923
8.01679
8.47588
8.93431
9.38977
9.83982
10.282
10.7137
11.1328
11.5369
11.9242
12.2931
12.6425
12.9714
13.2794
13.5661
13.8316
14.0762
14.3002
14.5044
14.6894
14.856
15.0051
15.1377
15.2548
15.3571
15.4457
15.5212
15.5844
15.6357
15.6753
15.7029
15.7188
15.718
15.7132
15.6417
-6.25167
-6.25739
-6.26565
-6.27338
-6.28008
-6.2861
-6.29171
-6.29707
-6.30236
-6.30774
-6.31335
-6.3193
-6.32569
-6.3326
-6.34009
-6.34822
-6.35702
-6.36653
-6.37676
-6.38773
-6.39947
-6.41196
-6.42522
-6.43924
-6.45402
-6.46955
-6.48582
-6.50283
-6.52057
-6.53901
-6.55815
-6.57797
-6.59844
-6.61954
-6.64124
-6.66353
-6.68636
-6.7097
-6.73351
-6.75774
-6.78235
-6.80729
-6.83252
-6.85798
-6.88363
-6.9094
-6.93521
-6.96099
-6.98664
-7.0121
-7.03725
-7.062
-7.08623
-7.10984
-7.1327
-7.15468
-7.17565
-7.19548
-7.214
-7.23107
-7.24653
-7.26021
-7.27194
-7.28154
-7.28884
-7.29365
-7.29578
-7.29503
-7.29123
-7.28417
-7.27366
-7.25952
-7.24156
-7.21958
-7.19342
-7.16289
-7.12783
-7.08808
-7.0435
-6.99394
-6.93928
-6.8794
-6.81422
-6.74366
-6.66765
-6.58614
-6.49912
-6.40653
-6.30844
-6.20486
-6.09587
-5.98149
-5.86183
-5.73698
-5.60708
-5.47225
-5.33263
-5.18835
-5.03959
-4.88644
-4.72909
-4.56761
-4.40213
-4.23267
-4.05933
-3.88207
-3.70098
-3.51597
-3.32714
-3.13443
-2.9379
-2.73753
-2.53339
-2.32542
-2.11366
-1.89792
-1.67812
-1.45391
-1.22512
-0.99134
-0.752423
-0.50796
-0.257707
-0.0011393
0.262051
0.532409
0.810283
1.09622
1.39061
1.69403
2.00689
2.32974
2.663
3.00717
3.36259
3.72961
4.10838
4.49904
4.90141
5.31526
5.73998
6.17474
6.61837
7.06947
7.52628
7.98694
8.44935
8.91129
9.37038
9.82414
10.2699
10.7052
11.1276
11.5348
11.9248
12.2961
12.6475
12.9781
13.2875
13.5752
13.8415
14.0866
14.3109
14.5151
14.6999
14.8662
15.0149
15.1469
15.2633
15.3647
15.4522
15.5265
15.5881
15.6376
15.6749
15.6998
15.7125
15.708
15.6994
15.6235
-6.26836
-6.2731
-6.27983
-6.28617
-6.29168
-6.29662
-6.30123
-6.30569
-6.31017
-6.31482
-6.31977
-6.32514
-6.33101
-6.33745
-6.34454
-6.3523
-6.36078
-6.37
-6.37998
-6.39074
-6.40228
-6.41461
-6.42773
-6.44165
-6.45634
-6.47181
-6.48804
-6.50504
-6.52276
-6.54121
-6.56037
-6.58021
-6.60071
-6.62186
-6.64362
-6.66594
-6.68879
-6.71214
-6.73594
-6.76015
-6.78472
-6.80961
-6.83476
-6.86012
-6.88563
-6.91124
-6.93686
-6.96242
-6.98784
-7.01301
-7.03785
-7.06226
-7.08612
-7.10933
-7.13175
-7.15327
-7.17374
-7.19304
-7.21101
-7.22751
-7.24236
-7.25542
-7.26649
-7.27542
-7.28202
-7.2861
-7.28748
-7.28596
-7.28136
-7.27348
-7.26213
-7.24713
-7.22828
-7.2054
-7.17832
-7.14685
-7.11085
-7.07013
-7.02458
-6.97403
-6.9184
-6.85754
-6.7914
-6.71986
-6.6429
-6.56045
-6.4725
-6.37907
-6.28013
-6.17579
-6.06607
-5.95105
-5.83082
-5.70551
-5.57524
-5.44016
-5.30041
-5.15616
-5.00754
-4.85472
-4.69783
-4.537
-4.37231
-4.20383
-4.03158
-3.85559
-3.67584
-3.49234
-3.3051
-3.11411
-2.9194
-2.72101
-2.51896
-2.31325
-2.10384
-1.89059
-1.67331
-1.45171
-1.22553
-0.994491
-0.758343
-0.516736
-0.2693
-0.0155756
0.244847
0.512466
0.787702
1.07107
1.36305
1.66418
1.97495
2.2959
2.62753
2.9703
3.32465
3.69093
4.06936
4.46004
4.86289
5.27762
5.70366
6.14015
6.58592