/*--------------------------------*- C++ -*----------------------------------*\
  =========                 |
  \\      /  F ield         | OpenFOAM: The Open Source CFD Toolbox
   \\    /   O peration     | Website:  https://openfoam.org
    \\  /    A nd           | Version:  8
     \\/     M anipulation  |
\*---------------------------------------------------------------------------*/
FoamFile
{
    version     2.0;
    format      ascii;
    class       surfaceScalarField;
    location    "175";
    object      phi;
}
// * * * * * * * * * * * * * * * * * * * * * * * * * * * * * * * * * * * * * //

dimensions      [0 3 -1 0 0 0 0];

internalField   nonuniform List<scalar> 
24170
(
3.12889e-06
5.95175e-08
3.04663e-06
8.22555e-08
2.97353e-06
7.31e-08
2.90487e-06
6.86513e-08
2.84053e-06
6.43395e-08
2.78318e-06
5.73421e-08
2.73384e-06
4.93416e-08
2.69186e-06
4.1975e-08
2.65615e-06
3.57041e-08
2.62566e-06
3.04865e-08
2.59941e-06
2.62524e-08
2.57654e-06
2.28667e-08
2.55638e-06
2.01525e-08
2.53833e-06
1.80475e-08
2.522e-06
1.63305e-08
2.50626e-06
1.57371e-08
2.49132e-06
1.49402e-08
2.18414e-08
2.46947e-06
3.45314e-06
2.36272e-08
3.45701e-06
7.83766e-08
3.45054e-06
7.95732e-08
3.43908e-06
8.01097e-08
3.42429e-06
7.91242e-08
3.40703e-06
7.45967e-08
3.3878e-06
6.85723e-08
3.36725e-06
6.25156e-08
3.34608e-06
5.687e-08
3.32487e-06
5.16931e-08
3.3041e-06
4.70163e-08
3.28405e-06
4.29168e-08
3.2649e-06
3.92952e-08
3.24669e-06
3.62535e-08
3.22952e-06
3.35057e-08
3.21322e-06
3.20364e-08
3.19821e-06
2.99422e-08
3.31037e-08
3.18695e-06
3.66826e-06
1.78838e-08
3.67918e-06
6.74527e-08
3.68541e-06
7.33438e-08
3.68944e-06
7.60732e-08
3.69103e-06
7.75333e-08
3.69006e-06
7.55706e-08
3.68691e-06
7.17203e-08
3.68205e-06
6.73715e-08
3.67587e-06
6.30416e-08
3.66871e-06
5.88579e-08
3.66082e-06
5.48983e-08
3.65247e-06
5.12696e-08
3.64382e-06
4.79425e-08
3.63504e-06
4.50349e-08
3.62615e-06
4.23851e-08
3.61757e-06
4.0623e-08
3.60874e-06
3.87681e-08
3.91448e-08
3.6027e-06
3.92587e-06
1.73999e-08
3.93591e-06
5.74082e-08
3.94256e-06
6.66978e-08
3.94809e-06
7.05367e-08
3.9525e-06
7.31258e-08
3.95543e-06
7.26318e-08
3.95709e-06
7.00624e-08
3.9577e-06
6.67534e-08
3.95747e-06
6.3275e-08
3.95652e-06
5.9797e-08
3.95501e-06
5.64112e-08
3.95304e-06
5.32355e-08
3.9507e-06
5.0276e-08
3.9481e-06
4.76322e-08
3.94526e-06
4.52303e-08
3.94247e-06
4.34083e-08
3.93951e-06
4.17258e-08
4.08533e-08
3.9378e-06
4.20819e-06
1.63342e-08
4.21598e-06
4.96195e-08
4.22167e-06
6.10035e-08
4.22677e-06
6.544e-08
4.2315e-06
6.83865e-08
4.23546e-06
6.86718e-08
4.23862e-06
6.69085e-08
4.24107e-06
6.42947e-08
4.24294e-06
6.14059e-08
4.2443e-06
5.84308e-08
4.24525e-06
5.54693e-08
4.24584e-06
5.26369e-08
4.24615e-06
4.9966e-08
4.24625e-06
4.7533e-08
4.24616e-06
4.5313e-08
4.2461e-06
4.34692e-08
4.24604e-06
4.17878e-08
4.03718e-08
4.24652e-06
4.51069e-06
1.47341e-08
4.51688e-06
4.3426e-08
4.52212e-06
5.57581e-08
4.52693e-06
6.06312e-08
4.53163e-06
6.36828e-08
4.53586e-06
6.44346e-08
4.53952e-06
6.32491e-08
4.54266e-06
6.11514e-08
4.54536e-06
5.87052e-08
4.54768e-06
5.61119e-08
4.54966e-06
5.34814e-08
4.55138e-06
5.09207e-08
4.55286e-06
4.84797e-08
4.55418e-06
4.6214e-08
4.55537e-06
4.4122e-08
4.55657e-06
4.22686e-08
4.55782e-06
4.05344e-08
3.88501e-08
4.55934e-06
4.83431e-06
1.3148e-08
4.83962e-06
3.81076e-08
4.84474e-06
5.06379e-08
4.84943e-06
5.5936e-08
4.85406e-06
5.90599e-08
4.85836e-06
6.01298e-08
4.86221e-06
5.93923e-08
4.86566e-06
5.77052e-08
4.86875e-06
5.56126e-08
4.87153e-06
5.33272e-08
4.87405e-06
5.09668e-08
4.87634e-06
4.8631e-08
4.87844e-06
4.63779e-08
4.8804e-06
4.42494e-08
4.88227e-06
4.22514e-08
4.88414e-06
4.03987e-08
4.88606e-06
3.86136e-08
3.67965e-08
4.88811e-06
5.18103e-06
1.16989e-08
5.18575e-06
3.33882e-08
5.19074e-06
4.56398e-08
5.19538e-06
5.12918e-08
5.19996e-06
5.44838e-08
5.2043e-06
5.57828e-08
5.20828e-06
5.5411e-08
5.21191e-06
5.40725e-08
5.21524e-06
5.2281e-08
5.21831e-06
5.02598e-08
5.22114e-06
4.81313e-08
5.22378e-06
4.59901e-08
5.22626e-06
4.38969e-08
5.22862e-06
4.18859e-08
5.23091e-06
3.99641e-08
5.23318e-06
3.81248e-08
5.23548e-06
3.6312e-08
3.44431e-08
5.23783e-06
5.55268e-06
1.03542e-08
5.55688e-06
2.91877e-08
5.56168e-06
4.08375e-08
5.56628e-06
4.66906e-08
5.57083e-06
4.99296e-08
5.57522e-06
5.13905e-08
5.57931e-06
5.13215e-08
5.58309e-06
5.029e-08
5.58661e-06
4.87669e-08
5.58988e-06
4.69825e-08
5.59295e-06
4.50621e-08
5.59584e-06
4.30968e-08
5.59859e-06
4.11466e-08
5.60123e-06
3.92427e-08
5.6038e-06
3.73917e-08
5.60635e-06
3.55815e-08
5.60889e-06
3.37707e-08
3.19056e-08
5.61142e-06
5.95103e-06
9.0972e-09
5.95478e-06
2.5441e-08
5.95934e-06
3.62686e-08
5.96389e-06
4.21418e-08
5.96842e-06
4.53918e-08
5.97286e-06
4.69576e-08
5.97704e-06
4.71322e-08
5.98096e-06
4.63703e-08
5.98463e-06
4.50901e-08
5.98809e-06
4.3523e-08
5.99136e-06
4.17952e-08
5.99446e-06
3.99944e-08
5.99742e-06
3.81793e-08
6.00028e-06
3.63799e-08
6.00307e-06
3.46039e-08
6.00581e-06
3.28414e-08
6.00852e-06
3.10639e-08
2.92432e-08
6.01118e-06
6.37798e-06
7.92947e-09
6.38134e-06
2.20818e-08
6.38566e-06
3.19451e-08
6.39014e-06
3.76631e-08
6.39465e-06
4.08769e-08
6.39911e-06
4.2497e-08
6.40338e-06
4.28559e-08
6.40742e-06
4.23242e-08
6.41125e-06
4.12629e-08
6.41488e-06
3.98959e-08
6.41832e-06
3.8349e-08
6.42161e-06
3.67058e-08
6.42476e-06
3.5023e-08
6.42781e-06
3.33311e-08
6.43077e-06
3.16402e-08
6.43367e-06
2.99458e-08
6.4365e-06
2.82304e-08
2.64865e-08
6.43925e-06
5.74176e-06
7.00529e-09
5.74434e-06
1.95018e-08
5.7478e-06
2.84792e-08
5.75152e-06
3.39403e-08
5.75531e-06
3.70813e-08
5.75909e-06
3.87131e-08
5.76277e-06
3.91831e-08
5.76627e-06
3.88133e-08
5.76962e-06
3.79183e-08
5.7728e-06
3.67082e-08
5.77584e-06
3.53061e-08
5.77876e-06
3.37928e-08
5.78156e-06
3.22227e-08
5.78426e-06
3.06267e-08
5.78688e-06
2.90181e-08
5.78943e-06
2.73969e-08
5.7919e-06
2.57543e-08
2.40955e-08
5.79429e-06
6.99914e-06
6.02335e-09
7.00186e-06
1.67724e-08
7.00562e-06
2.4719e-08
7.00978e-06
2.97787e-08
7.01409e-06
3.27679e-08
7.01844e-06
3.43669e-08
7.0227e-06
3.49182e-08
7.02681e-06
3.46972e-08
7.03076e-06
3.39689e-08
7.03454e-06
3.29238e-08
7.03817e-06
3.16795e-08
7.04165e-06
3.03119e-08
7.045e-06
2.88732e-08
7.04823e-06
2.73949e-08
7.05135e-06
2.58927e-08
7.05437e-06
2.43733e-08
7.05729e-06
2.28336e-08
2.12917e-08
7.0601e-06
8.53188e-06
4.99174e-09
8.53473e-06
1.392e-08
8.53875e-06
2.06915e-08
8.54335e-06
2.51852e-08
8.54819e-06
2.7918e-08
8.55314e-06
2.94203e-08
8.55805e-06
3.00059e-08
8.56284e-06
2.99067e-08
8.56747e-06
2.93361e-08
8.57193e-06
2.84593e-08
8.57623e-06
2.73829e-08
8.58036e-06
2.61783e-08
8.58434e-06
2.48929e-08
8.58817e-06
2.35589e-08
8.59187e-06
2.21942e-08
8.59543e-06
2.08104e-08
8.59885e-06
1.94111e-08
1.80192e-08
8.60212e-06
1.04003e-05
3.91916e-09
1.04032e-05
1.09638e-08
1.04075e-05
1.6418e-08
1.04125e-05
2.01677e-08
1.04179e-05
2.25141e-08
1.04235e-05
2.3835e-08
1.04291e-05
2.43914e-08
1.04347e-05
2.43708e-08
1.04401e-05
2.39381e-08
1.04453e-05
2.32253e-08
1.04503e-05
2.23259e-08
1.04552e-05
2.13008e-08
1.04599e-05
2.01944e-08
1.04644e-05
1.90354e-08
1.04688e-05
1.7845e-08
1.0473e-05
1.6636e-08
1.0477e-05
1.54173e-08
1.42136e-08
1.04808e-05
1.26779e-05
2.81062e-09
1.2681e-05
7.89744e-09
1.26855e-05
1.18962e-08
1.26909e-05
1.47191e-08
1.26969e-05
1.65274e-08
1.27032e-05
1.75604e-08
1.27096e-05
1.80083e-08
1.27159e-05
1.80105e-08
1.27222e-05
1.7684e-08
1.27283e-05
1.71262e-08
1.27342e-05
1.64085e-08
1.27399e-05
1.55818e-08
1.27454e-05
1.46811e-08
1.27507e-05
1.37334e-08
1.27558e-05
1.27564e-08
1.27607e-05
1.1766e-08
1.27653e-05
1.07697e-08
9.79464e-09
1.27697e-05
1.54543e-05
1.65481e-09
1.54576e-05
4.67448e-09
1.54624e-05
7.06697e-09
1.54683e-05
8.77807e-09
1.5475e-05
9.88218e-09
1.5482e-05
1.05045e-08
1.54893e-05
1.07546e-08
1.54966e-05
1.07161e-08
1.55038e-05
1.04593e-08
1.55109e-05
1.00432e-08
1.55178e-05
9.51382e-09
1.55244e-05
8.90502e-09
1.55309e-05
8.24168e-09
1.55371e-05
7.54309e-09
1.5543e-05
6.82387e-09
1.55487e-05
6.09636e-09
1.55541e-05
5.36808e-09
4.66164e-09
1.55592e-05
1.88389e-05
4.11538e-10
1.88424e-05
1.16926e-09
1.88477e-05
1.75544e-09
1.88543e-05
2.15204e-09
1.88618e-05
2.37918e-09
1.88699e-05
2.46453e-09
1.88782e-05
2.42988e-09
1.88866e-05
2.29479e-09
1.8895e-05
2.07905e-09
1.89032e-05
1.8006e-09
1.89112e-05
1.47423e-09
1.8919e-05
1.11215e-09
1.89266e-05
7.24681e-10
1.89338e-05
3.20753e-10
1.89407e-05
-9.20321e-11
1.89473e-05
-5.06556e-10
1.89536e-05
-9.18514e-10
-1.31071e-09
1.89595e-05
2.29648e-05
-1.0209e-09
2.29688e-05
-2.90807e-09
2.29751e-05
-4.45904e-09
2.29828e-05
-5.63625e-09
2.29917e-05
-6.46045e-09
2.30012e-05
-7.01761e-09
2.3011e-05
-7.39582e-09
2.30209e-05
-7.64912e-09
2.30308e-05
-7.81528e-09
2.30405e-05
-7.92488e-09
2.305e-05
-8.00286e-09
2.30592e-05
-8.06308e-09
2.3068e-05
-8.1145e-09
2.30765e-05
-8.16074e-09
2.30846e-05
-8.20467e-09
2.30923e-05
-8.24558e-09
2.30997e-05
-8.28451e-09
-8.31033e-09
2.31067e-05
1.68118e-05
-2.14574e-09
1.6815e-05
-6.08449e-09
1.68198e-05
-9.29852e-09
1.68258e-05
-1.16472e-08
1.68326e-05
-1.31892e-08
1.68397e-05
-1.41536e-08
1.6847e-05
-1.47268e-08
1.68544e-05
-1.50142e-08
1.68617e-05
-1.50931e-08
1.68688e-05
-1.50377e-08
1.68757e-05
-1.4899e-08
1.68823e-05
-1.47119e-08
1.68887e-05
-1.44953e-08
1.68948e-05
-1.42651e-08
1.69006e-05
-1.40277e-08
1.69062e-05
-1.37898e-08
1.69114e-05
-1.35523e-08
-1.33108e-08
1.69164e-05
1.46356e-05
-3.22594e-09
1.46387e-05
-9.17637e-09
1.46435e-05
-1.40222e-08
1.46492e-05
-1.74035e-08
1.46555e-05
-1.94923e-08
1.46621e-05
-2.07384e-08
1.46688e-05
-2.14124e-08
1.46754e-05
-2.16498e-08
1.46819e-05
-2.15827e-08
1.46882e-05
-2.13267e-08
1.46942e-05
-2.09585e-08
1.47e-05
-2.05219e-08
1.47056e-05
-2.00481e-08
1.47109e-05
-1.95572e-08
1.47159e-05
-1.90633e-08
1.47207e-05
-1.85728e-08
1.47252e-05
-1.80913e-08
-1.76137e-08
1.47295e-05
1.27411e-05
-4.23711e-09
1.27443e-05
-1.23077e-08
1.27491e-05
-1.88615e-08
1.27548e-05
-2.30613e-08
1.27608e-05
-2.54873e-08
1.27669e-05
-2.69137e-08
1.27731e-05
-2.76036e-08
1.27792e-05
-2.77065e-08
1.2785e-05
-2.74296e-08
1.27906e-05
-2.69382e-08
1.2796e-05
-2.63221e-08
1.28011e-05
-2.56324e-08
1.28059e-05
-2.49071e-08
1.28106e-05
-2.41706e-08
1.28149e-05
-2.34396e-08
1.28191e-05
-2.27208e-08
1.2823e-05
-2.20201e-08
-2.13335e-08
1.28267e-05
1.10918e-05
-5.08081e-09
1.1095e-05
-1.5533e-08
1.11001e-05
-2.39955e-08
1.11058e-05
-2.86965e-08
1.11115e-05
-3.12349e-08
1.11173e-05
-3.27414e-08
1.11231e-05
-3.33473e-08
1.11286e-05
-3.3235e-08
1.11339e-05
-3.27069e-08
1.11389e-05
-3.19604e-08
1.11437e-05
-3.10871e-08
1.11482e-05
-3.01441e-08
1.11524e-05
-2.91738e-08
1.11565e-05
-2.82058e-08
1.11603e-05
-2.72538e-08
1.11639e-05
-2.63274e-08
1.11673e-05
-2.54288e-08
-2.45571e-08
1.11705e-05
9.65582e-06
-5.68179e-09
9.65925e-06
-1.89652e-08
9.6646e-06
-2.9349e-08
9.6701e-06
-3.42027e-08
9.67567e-06
-3.68027e-08
9.68123e-06
-3.83112e-08
9.68658e-06
-3.86917e-08
9.69162e-06
-3.82754e-08
9.69637e-06
-3.7465e-08
9.70086e-06
-3.64546e-08
9.7051e-06
-3.53231e-08
9.70908e-06
-3.41301e-08
9.71283e-06
-3.29231e-08
9.71635e-06
-3.17313e-08
9.71967e-06
-3.057e-08
9.72278e-06
-2.94461e-08
9.72571e-06
-2.83614e-08
-2.73126e-08
9.72847e-06
8.4053e-06
-5.62954e-09
8.40964e-06
-2.3306e-08
8.41488e-06
-3.45921e-08
8.41991e-06
-3.92372e-08
8.42528e-06
-4.21756e-08
8.4307e-06
-4.37272e-08
8.43579e-06
-4.37861e-08
8.4405e-06
-4.29911e-08
8.44488e-06
-4.18444e-08
8.44895e-06
-4.05219e-08
8.45272e-06
-3.90938e-08
8.45621e-06
-3.76224e-08
8.45944e-06
-3.6157e-08
8.46243e-06
-3.47251e-08
8.4652e-06
-3.3342e-08
8.46777e-06
-3.20139e-08
8.47015e-06
-3.07425e-08
-2.95241e-08
8.47236e-06
7.3145e-06
-2.84773e-09
7.32119e-06
-2.99987e-08
7.32675e-06
-4.01508e-08
7.3317e-06
-4.41911e-08
7.3371e-06
-4.75788e-08
7.34243e-06
-4.90545e-08
7.34731e-06
-4.86709e-08
7.35173e-06
-4.74117e-08
7.35572e-06
-4.58306e-08
7.35928e-06
-4.40859e-08
7.36244e-06
-4.22585e-08
7.36524e-06
-4.04218e-08
7.36771e-06
-3.86272e-08
7.36988e-06
-3.68992e-08
7.37179e-06
-3.52528e-08
7.37347e-06
-3.36912e-08
7.37494e-06
-3.22143e-08
-3.08126e-08
7.37622e-06
6.36243e-06
4.78363e-09
6.3719e-06
-3.94645e-08
6.37933e-06
-4.75799e-08
6.38597e-06
-5.08331e-08
6.39225e-06
-5.38655e-08
6.39757e-06
-5.43732e-08
6.40187e-06
-5.29714e-08
6.40535e-06
-5.08987e-08
6.40816e-06
-4.86376e-08
6.41035e-06
-4.62773e-08
6.41199e-06
-4.38982e-08
6.41314e-06
-4.15756e-08
6.41387e-06
-3.93606e-08
6.41424e-06
-3.72715e-08
6.41431e-06
-3.53209e-08
6.41413e-06
-3.35067e-08
6.41374e-06
-3.18289e-08
-3.02674e-08
6.41319e-06
5.54129e-06
8.95395e-09
5.55032e-06
-4.84966e-08
5.55834e-06
-5.55968e-08
5.56605e-06
-5.8544e-08
5.57251e-06
-6.03312e-08
5.57684e-06
-5.87037e-08
5.57909e-06
-5.52181e-08
5.57965e-06
-5.14639e-08
5.5789e-06
-4.78904e-08
5.57712e-06
-4.44983e-08
5.57453e-06
-4.13108e-08
5.57132e-06
-3.83683e-08
5.56764e-06
-3.56787e-08
5.56361e-06
-3.32362e-08
5.55932e-06
-3.10323e-08
5.55486e-06
-2.9056e-08
5.55034e-06
-2.7308e-08
-2.57341e-08
5.54581e-06
4.86019e-06
-2.36295e-08
4.86538e-06
-5.36899e-08
4.86523e-06
-5.5451e-08
4.86217e-06
-5.54851e-08
4.857e-06
-5.51635e-08
4.8495e-06
-5.12059e-08
4.83981e-06
-4.55305e-08
4.82842e-06
-4.00766e-08
4.81585e-06
-3.5319e-08
4.80258e-06
-3.12263e-08
4.78898e-06
-2.7719e-08
4.77535e-06
-2.47367e-08
4.76187e-06
-2.22002e-08
4.74868e-06
-2.00436e-08
4.73586e-06
-1.82109e-08
4.72348e-06
-1.66787e-08
4.71165e-06
-1.54833e-08
-1.51357e-08
4.70105e-06
4.17905e-06
4.12536e-06
4.06991e-06
4.01442e-06
3.95926e-06
3.90805e-06
3.86252e-06
3.82244e-06
3.78712e-06
3.7559e-06
3.72818e-06
3.70344e-06
3.68124e-06
3.6612e-06
3.64299e-06
3.62631e-06
3.61082e-06
3.59569e-06
1.61826e-08
-1.62541e-08
2.94051e-08
-1.33335e-08
3.52292e-08
-5.89033e-09
3.3501e-08
1.64972e-09
2.53728e-08
8.08363e-09
1.22485e-08
1.30581e-08
-4.48076e-09
1.66988e-08
-2.38495e-08
1.93119e-08
-4.50716e-08
2.11999e-08
-6.77099e-08
2.25901e-08
-9.13922e-08
2.36643e-08
-1.15972e-07
2.45399e-08
-1.4128e-07
2.52919e-08
-1.67276e-07
2.5963e-08
-1.93876e-07
2.6586e-08
-2.2109e-07
2.71872e-08
-2.48891e-07
2.77877e-08
-2.77305e-07
2.83883e-08
-3.06319e-07
2.90007e-08
-3.35977e-07
2.96307e-08
-3.6617e-07
3.01772e-08
-3.96897e-07
3.06968e-08
-4.28312e-07
3.13983e-08
-4.60436e-07
3.20928e-08
-4.92963e-07
3.25078e-08
-5.26085e-07
3.30936e-08
-5.60867e-07
3.47599e-08
-5.98163e-07
3.727e-08
-6.38793e-07
4.06051e-08
-6.81698e-07
4.28771e-08
-7.24857e-07
4.31296e-08
-7.71493e-07
4.65985e-08
-8.1286e-07
4.13245e-08
-8.45261e-07
3.23502e-08
-8.82196e-07
3.68936e-08
-9.21971e-07
3.97207e-08
-9.63294e-07
4.12861e-08
-1.0054e-06
4.20486e-08
-1.04783e-06
4.2399e-08
-1.0904e-06
4.25238e-08
-1.13295e-06
4.25266e-08
-1.17545e-06
4.24533e-08
-1.21781e-06
4.23363e-08
-1.26004e-06
4.21882e-08
-1.30208e-06
4.20221e-08
-1.34395e-06
4.18398e-08
-1.38561e-06
4.16477e-08
-1.42709e-06
4.14435e-08
-1.46834e-06
4.12307e-08
-1.50938e-06
4.10048e-08
-1.55017e-06
4.07681e-08
-1.59073e-06
4.05149e-08
-1.631e-06
4.0247e-08
-1.67101e-06
3.99586e-08
-1.71069e-06
3.96514e-08
-1.75006e-06
3.93189e-08
-1.78906e-06
3.89629e-08
-1.82769e-06
3.85776e-08
-1.86588e-06
3.81648e-08
-1.90365e-06
3.77185e-08
-1.94093e-06
3.72405e-08
-1.9777e-06
3.67259e-08
-2.01391e-06
3.6177e-08
-2.04955e-06
3.55882e-08
-2.08454e-06
3.49628e-08
-2.11888e-06
3.42956e-08
-2.1525e-06
3.35903e-08
-2.18539e-06
3.28422e-08
-2.21747e-06
3.20554e-08
-2.24875e-06
3.12257e-08
-2.27913e-06
3.03578e-08
-2.30862e-06
2.94478e-08
-2.33715e-06
2.85007e-08
-2.36471e-06
2.75128e-08
-2.39123e-06
2.64898e-08
-2.41672e-06
2.54279e-08
-2.44109e-06
2.43337e-08
-2.46436e-06
2.32051e-08
-2.48645e-06
2.20487e-08
-2.50737e-06
2.08614e-08
-2.52707e-06
1.96509e-08
-2.54555e-06
1.84158e-08
-2.56276e-06
1.71636e-08
-2.57871e-06
1.58908e-08
-2.59337e-06
1.46045e-08
-2.60673e-06
1.33021e-08
-2.61877e-06
1.19907e-08
-2.6295e-06
1.06676e-08
-2.63887e-06
9.3406e-09
-2.64691e-06
8.00236e-09
-2.65362e-06
6.65232e-09
-2.65897e-06
5.28076e-09
-2.66295e-06
3.8863e-09
-2.6655e-06
2.45739e-09
-2.66658e-06
9.85249e-10
-2.66615e-06
-5.22498e-10
-2.66433e-06
-1.91808e-09
-2.66132e-06
-3.10803e-09
-2.65723e-06
-4.19063e-09
-2.65209e-06
-5.23807e-09
-2.64593e-06
-6.25463e-09
-2.63879e-06
-7.25136e-09
-2.63066e-06
-8.23077e-09
-2.62158e-06
-9.19685e-09
-2.61154e-06
-1.01459e-08
-2.60058e-06
-1.10825e-08
-2.58869e-06
-1.20032e-08
-2.57589e-06
-1.2916e-08
-2.56218e-06
-1.38179e-08
-2.54758e-06
-1.47198e-08
-2.53207e-06
-1.56177e-08
-2.51568e-06
-1.65253e-08
-2.49836e-06
-1.74369e-08
-2.48012e-06
-1.83704e-08
-2.46093e-06
-1.9318e-08
-2.44078e-06
-2.03014e-08
-2.41961e-06
-2.13083e-08
-2.3974e-06
-2.23626e-08
-2.37406e-06
-2.34535e-08
-2.34959e-06
-2.46153e-08
-2.32393e-06
-2.58438e-08
-2.29701e-06
-2.717e-08
-2.26871e-06
-2.85663e-08
-2.23895e-06
-3.00654e-08
-2.20756e-06
-3.1628e-08
-2.17449e-06
-3.33079e-08
-2.13957e-06
-3.5068e-08
-2.10274e-06
-3.69702e-08
-2.06381e-06
-3.89697e-08
-2.02271e-06
-4.11279e-08
-1.97922e-06
-4.3395e-08
-1.93329e-06
-4.58245e-08
-1.88471e-06
-4.83655e-08
-1.83342e-06
-5.10584e-08
-1.77925e-06
-5.38506e-08
-1.72212e-06
-5.6793e-08
-1.66186e-06
-5.98486e-08
-1.59842e-06
-6.30366e-08
-1.53165e-06
-6.63245e-08
-1.46153e-06
-6.96869e-08
-1.38802e-06
-7.31025e-08
-1.31113e-06
-7.65418e-08
-1.23084e-06
-7.99858e-08
-1.14717e-06
-8.34164e-08
-1.06016e-06
-8.68074e-08
-9.69901e-07
-9.01105e-08
-8.76492e-07
-9.33061e-08
-7.80089e-07
-9.63512e-08
-6.80853e-07
-9.9237e-08
-5.78993e-07
-1.01914e-07
-4.74723e-07
-1.04376e-07
-3.68356e-07
-1.06527e-07
-2.60167e-07
-1.08399e-07
-1.50062e-07
-1.10361e-07
-3.75928e-08
-1.12763e-07
7.72812e-08
-1.15192e-07
1.93171e-07
-1.16219e-07
3.08574e-07
-1.15744e-07
4.22705e-07
-1.14473e-07
5.34949e-07
-1.12593e-07
6.44832e-07
-1.10224e-07
7.51927e-07
-1.07436e-07
8.55897e-07
-1.04298e-07
9.56444e-07
-1.0087e-07
1.05335e-06
-9.72125e-08
1.14643e-06
-9.33733e-08
1.23555e-06
-8.93938e-08
1.32059e-06
-8.53074e-08
1.40149e-06
-8.11513e-08
1.4782e-06
-7.69419e-08
1.55065e-06
-7.26636e-08
1.61874e-06
-6.82941e-08
1.68233e-06
-6.37868e-08
1.74116e-06
-5.90128e-08
1.7947e-06
-5.37199e-08
1.84193e-06
-4.73863e-08
1.88033e-06
-3.85652e-08
1.90369e-06
-2.35002e-08
1.89121e-06
1.23535e-08
8.29319e-08
1.80819e-06
7.36464e-09
-2.36778e-08
6.33654e-09
-1.23755e-08
6.34314e-10
-2.26382e-10
-8.47252e-09
1.07181e-08
-2.06317e-08
2.02183e-08
-3.57826e-08
2.81777e-08
-5.37357e-08
3.46327e-08
-7.42103e-08
3.97582e-08
-9.68319e-08
4.38052e-08
-1.21303e-07
4.70351e-08
-1.47334e-07
4.96814e-08
-1.74748e-07
5.19309e-08
-2.03392e-07
5.39226e-08
-2.33204e-07
5.57553e-08
-2.64129e-07
5.74995e-08
-2.9616e-07
5.92023e-08
-3.29277e-07
6.08936e-08
-3.63495e-07
6.25905e-08
-3.98808e-07
6.43021e-08
-4.35217e-07
6.60229e-08
-4.7278e-07
6.77273e-08
-5.11527e-07
6.94261e-08
-5.51337e-07
7.11933e-08
-5.92264e-07
7.30009e-08
-6.3453e-07
7.47581e-08
-6.78096e-07
7.66413e-08
-7.22345e-07
7.89915e-08
-7.66801e-07
8.17074e-08
-8.10653e-07
8.44386e-08
-8.54266e-07
8.64707e-08
-8.98509e-07
8.73506e-08
-9.39496e-07
8.75611e-08
-9.83629e-07
8.54333e-08
-1.03376e-06
8.24508e-08
-1.07896e-06
8.20683e-08
-1.12153e-06
8.22636e-08
-1.16271e-06
8.24414e-08
-1.20314e-06
8.2458e-08
-1.24308e-06
8.23128e-08
-1.28263e-06
8.20469e-08
-1.32182e-06
8.16999e-08
-1.36069e-06
8.12982e-08
-1.39923e-06
8.08605e-08
-1.43746e-06
8.03974e-08
-1.47536e-06
7.99158e-08
-1.51296e-06
7.9418e-08
-1.55023e-06
7.89054e-08
-1.58718e-06
7.83762e-08
-1.62379e-06
7.7829e-08
-1.66007e-06
7.72601e-08
-1.69598e-06
7.66666e-08
-1.73153e-06
7.60439e-08
-1.76669e-06
7.53888e-08
-1.80146e-06
7.46965e-08
-1.83579e-06
7.39635e-08
-1.86968e-06
7.31852e-08
-1.9031e-06
7.23587e-08
-1.93603e-06
7.14796e-08
-1.96844e-06
7.05452e-08
-2.0003e-06
6.95514e-08
-2.03158e-06
6.84966e-08
-2.06226e-06
6.73773e-08
-2.0923e-06
6.6192e-08
-2.12168e-06
6.49381e-08
-2.15035e-06
6.3615e-08
-2.1783e-06
6.22204e-08
-2.20549e-06
6.07548e-08
-2.23189e-06
5.92167e-08
-2.25747e-06
5.76074e-08
-2.28219e-06
5.59262e-08
-2.30603e-06
5.4175e-08
-2.32896e-06
5.23539e-08
-2.35095e-06
5.04655e-08
-2.37197e-06
4.85104e-08
-2.392e-06
4.64921e-08
-2.41102e-06
4.44119e-08
-2.42899e-06
4.22746e-08
-2.4459e-06
4.00826e-08
-2.46172e-06
3.7841e-08
-2.47645e-06
3.55524e-08
-2.49005e-06
3.3223e-08
-2.50253e-06
3.08561e-08
-2.51385e-06
2.84575e-08
-2.52403e-06
2.60299e-08
-2.53304e-06
2.35793e-08
-2.54089e-06
2.11087e-08
-2.54755e-06
1.86242e-08
-2.55305e-06
1.61307e-08
-2.55737e-06
1.36322e-08
-2.56052e-06
1.11329e-08
-2.56253e-06
8.62981e-09
-2.56343e-06
6.12882e-09
-2.56323e-06
3.63669e-09
-2.562e-06
1.16478e-09
-2.5598e-06
-1.26881e-09
-2.55675e-06
-3.63206e-09
-2.55283e-06
-5.90177e-09
-2.54792e-06
-8.08549e-09
-2.54196e-06
-1.02081e-08
-2.53498e-06
-1.22826e-08
-2.52698e-06
-1.43132e-08
-2.51799e-06
-1.63071e-08
-2.50802e-06
-1.82718e-08
-2.49707e-06
-2.0209e-08
-2.48518e-06
-2.21203e-08
-2.47232e-06
-2.40071e-08
-2.45853e-06
-2.58729e-08
-2.44379e-06
-2.77225e-08
-2.42812e-06
-2.95623e-08
-2.41151e-06
-3.13992e-08
-2.39397e-06
-3.3241e-08
-2.37547e-06
-3.50965e-08
-2.35602e-06
-3.69749e-08
-2.33558e-06
-3.88877e-08
-2.31414e-06
-4.08461e-08
-2.29166e-06
-4.28636e-08
-2.26812e-06
-4.49506e-08
-2.24344e-06
-4.71195e-08
-2.21759e-06
-4.93873e-08
-2.19051e-06
-5.17814e-08
-2.16216e-06
-5.43229e-08
-2.13245e-06
-5.70335e-08
-2.10129e-06
-5.99126e-08
-2.06856e-06
-6.29719e-08
-2.03415e-06
-6.62074e-08
-1.99794e-06
-6.9649e-08
-1.95982e-06
-7.32997e-08
-1.91967e-06
-7.71963e-08
-1.87735e-06
-8.1334e-08
-1.83273e-06
-8.57489e-08
-1.78566e-06
-9.04286e-08
-1.73601e-06
-9.53996e-08
-1.68363e-06
-1.00638e-07
-1.62838e-06
-1.06168e-07
-1.57009e-06
-1.11965e-07
-1.50864e-06
-1.18039e-07
-1.4439e-06
-1.24362e-07
-1.37577e-06
-1.30935e-07
-1.30414e-06
-1.37711e-07
-1.22894e-06
-1.44654e-07
-1.15011e-06
-1.5171e-07
-1.06764e-06
-1.5883e-07
-9.81519e-07
-1.65955e-07
-8.91781e-07
-1.73037e-07
-7.98492e-07
-1.79996e-07
-7.01773e-07
-1.86768e-07
-6.01767e-07
-1.93265e-07
-4.98679e-07
-1.99431e-07
-3.92733e-07
-2.0519e-07
-2.84209e-07
-2.10485e-07
-1.7336e-07
-2.15285e-07
-6.03447e-08
-2.19641e-07
5.45785e-08
-2.23428e-07
1.7062e-07
-2.26541e-07
2.8659e-07
-2.28874e-07
4.01327e-07
-2.30098e-07
5.14683e-07
-2.29742e-07
6.26654e-07
-2.27907e-07
7.36859e-07
-2.24865e-07
8.4489e-07
-2.2083e-07
9.50391e-07
-2.15923e-07
1.05303e-06
-2.10289e-07
1.15255e-06
-2.04016e-07
1.24871e-06
-1.97233e-07
1.34132e-06
-1.90022e-07
1.43023e-06
-1.82487e-07
1.51534e-06
-1.74684e-07
1.59654e-06
-1.66695e-07
1.67378e-06
-1.58559e-07
1.74698e-06
-1.50319e-07
1.81611e-06
-1.41951e-07
1.88109e-06
-1.33426e-07
1.94179e-06
-1.24625e-07
1.99795e-06
-1.15317e-07
2.04912e-06
-1.05021e-07
2.09445e-06
-9.2838e-08
2.13229e-06
-7.6533e-08
2.16066e-06
-5.19766e-08
2.17875e-06
-5.83526e-09
8.31412e-08
2.17847e-06
-4.89184e-09
-1.88294e-08
-1.56473e-08
-1.66545e-09
-2.85868e-08
1.26897e-08
-4.31231e-08
2.52308e-08
-5.91672e-08
3.62471e-08
-7.68537e-08
4.58438e-08
-9.63134e-08
5.40796e-08
-1.17629e-07
6.1055e-08
-1.40767e-07
6.69307e-08
-1.65654e-07
7.19045e-08
-1.92164e-07
7.61805e-08
-2.20195e-07
7.99448e-08
-2.49635e-07
8.33526e-08
-2.80418e-07
8.65236e-08
-3.12472e-07
8.95442e-08
-3.45753e-07
9.24715e-08
-3.80208e-07
9.53397e-08
-4.15792e-07
9.81619e-08
-4.52431e-07
1.00933e-07
-4.90052e-07
1.03631e-07
-5.28564e-07
1.0623e-07
-5.67867e-07
1.08714e-07
-6.07778e-07
1.11094e-07
-6.48144e-07
1.13353e-07
-6.88867e-07
1.15469e-07
-7.2973e-07
1.17491e-07
-7.70257e-07
1.19506e-07
-8.09995e-07
1.21433e-07
-8.48642e-07
1.23073e-07
-8.86338e-07
1.24152e-07
-9.23458e-07
1.24456e-07
-9.59999e-07
1.24086e-07
-9.97517e-07
1.22935e-07
-1.0365e-06
1.21418e-07
-1.07478e-06
1.20336e-07
-1.11212e-06
1.19577e-07
-1.14866e-06
1.18965e-07
-1.18461e-06
1.18391e-07
-1.22011e-06
1.17802e-07
-1.25527e-06
1.17186e-07
-1.29012e-06
1.16542e-07
-1.32471e-06
1.15874e-07
-1.35905e-06
1.15187e-07
-1.39315e-06
1.14484e-07
-1.42701e-06
1.13764e-07
-1.46063e-06
1.13028e-07
-1.49401e-06
1.12272e-07
-1.52713e-06
1.11493e-07
-1.56e-06
1.10686e-07
-1.5926e-06
1.09847e-07
-1.62491e-06
1.0897e-07
-1.65693e-06
1.08048e-07
-1.68863e-06
1.07078e-07
-1.72e-06
1.06052e-07
-1.75102e-06
1.04965e-07
-1.78166e-06
1.03812e-07
-1.81191e-06
1.02587e-07
-1.84173e-06
1.01285e-07
-1.87111e-06
9.9903e-08
-1.90001e-06
9.84351e-08
-1.92841e-06
9.6878e-08
-1.95628e-06
9.52284e-08
-1.98359e-06
9.34832e-08
-2.01031e-06
9.16398e-08
-2.03641e-06
8.96964e-08
-2.06186e-06
8.76512e-08
-2.08662e-06
8.55035e-08
-2.11067e-06
8.32526e-08
-2.13398e-06
8.0899e-08
-2.15652e-06
7.8443e-08
-2.17824e-06
7.5886e-08
-2.19914e-06
7.32296e-08
-2.21916e-06
7.0476e-08
-2.2383e-06
6.76279e-08
-2.25651e-06
6.46886e-08
-2.27378e-06
6.16618e-08
-2.29008e-06
5.85525e-08
-2.30538e-06
5.53655e-08
-2.31967e-06
5.21066e-08
-2.33292e-06
4.87812e-08
-2.34511e-06
4.53961e-08
-2.35623e-06
4.19578e-08
-2.36627e-06
3.8473e-08
-2.37522e-06
3.49482e-08
-2.38305e-06
3.13909e-08
-2.38978e-06
2.78078e-08
-2.39538e-06
2.42072e-08
-2.39987e-06
2.05964e-08
-2.40324e-06
1.69851e-08
-2.4055e-06
1.33775e-08
-2.40667e-06
9.78182e-09
-2.40678e-06
6.20631e-09
-2.40584e-06
2.6626e-09
-2.40388e-06
-8.33313e-10
-2.40092e-06
-4.26533e-09
-2.39697e-06
-7.61671e-09
-2.39203e-06
-1.08844e-08
-2.38607e-06
-1.40808e-08
-2.3791e-06
-1.7217e-08
-2.37113e-06
-2.02958e-08
-2.36216e-06
-2.332e-08
-2.35222e-06
-2.62954e-08
-2.34131e-06
-2.92288e-08
-2.32944e-06
-3.21235e-08
-2.31663e-06
-3.49836e-08
-2.30287e-06
-3.78118e-08
-2.28818e-06
-4.06151e-08
-2.27255e-06
-4.33991e-08
-2.25599e-06
-4.61747e-08
-2.23849e-06
-4.89497e-08
-2.22004e-06
-5.1738e-08
-2.20064e-06
-5.45491e-08
-2.18027e-06
-5.74003e-08
-2.15891e-06
-6.0304e-08
-2.13654e-06
-6.32815e-08
-2.11311e-06
-6.63478e-08
-2.0886e-06
-6.95244e-08
-2.06295e-06
-7.28278e-08
-2.03611e-06
-7.6288e-08
-2.00801e-06
-7.99348e-08
-1.97863e-06
-8.38039e-08
-1.94786e-06
-8.7916e-08
-1.91562e-06
-9.22901e-08
-1.88178e-06
-9.69297e-08
-1.84626e-06
-1.01857e-07
-1.80891e-06
-1.07089e-07
-1.76963e-06
-1.12657e-07
-1.7283e-06
-1.1858e-07
-1.68478e-06
-1.24886e-07
-1.63894e-06
-1.31591e-07
-1.59063e-06
-1.38716e-07
-1.53971e-06
-1.46264e-07
-1.48604e-06
-1.54238e-07
-1.42946e-06
-1.62646e-07
-1.36982e-06
-1.71483e-07
-1.30699e-06
-1.80727e-07
-1.24085e-06
-1.90356e-07
-1.17128e-06
-2.00343e-07
-1.0982e-06
-2.10632e-07
-1.02154e-06
-2.21162e-07
-9.41254e-07
-2.31867e-07
-8.57316e-07
-2.42663e-07
-7.69744e-07
-2.53447e-07
-6.78599e-07
-2.64119e-07
-5.83985e-07
-2.74567e-07
-4.8604e-07
-2.84681e-07
-3.84953e-07
-2.94337e-07
-2.80951e-07
-3.03426e-07
-1.74305e-07
-3.11846e-07
-6.52787e-08
-3.19523e-07
4.57746e-08
-3.26364e-07
1.58309e-07
-3.322e-07
2.71687e-07
-3.36843e-07
3.85274e-07
-3.40162e-07
4.98374e-07
-3.4202e-07
6.10382e-07
-3.42147e-07
7.20975e-07
-3.40387e-07
8.29886e-07
-3.36863e-07
9.3675e-07
-3.31783e-07
1.04122e-06
-3.25348e-07
1.14297e-06
-3.17728e-07
1.24173e-06
-3.09091e-07
1.33725e-06
-2.99586e-07
1.42934e-06
-2.89367e-07
1.51784e-06
-2.78569e-07
1.60263e-06
-2.67317e-07
1.68362e-06
-2.55716e-07
1.76074e-06
-2.43856e-07
1.83396e-06
-2.31812e-07
1.90324e-06
-2.1963e-07
1.96856e-06
-2.07302e-07
2.02987e-06
-1.94761e-07
2.08705e-06
-1.81845e-07
2.13994e-06
-1.68224e-07
2.18816e-06
-1.53272e-07
2.23113e-06
-1.35833e-07
2.26797e-06
-1.13405e-07
2.29764e-06
-8.1672e-08
2.32175e-06
-2.99685e-08
5.96174e-08
2.34527e-06
-1.41297e-08
-4.73444e-09
-3.13371e-08
1.55088e-08
-4.94099e-08
3.07457e-08
-6.81014e-08
4.39045e-08
-8.74698e-08
5.56042e-08
-1.07703e-07
6.60619e-08
-1.28997e-07
7.53627e-08
-1.51532e-07
8.35754e-08
-1.7541e-07
9.07995e-08
-2.00687e-07
9.71666e-08
-2.27342e-07
1.02827e-07
-2.55339e-07
1.07929e-07
-2.84603e-07
1.12608e-07
-3.15062e-07
1.16971e-07
-3.46625e-07
1.21099e-07
-3.79207e-07
1.25043e-07
-4.12699e-07
1.28825e-07
-4.46993e-07
1.32445e-07
-4.81951e-07
1.35884e-07
-5.1744e-07
1.3911e-07
-5.53311e-07
1.42093e-07
-5.89424e-07
1.44816e-07
-6.25613e-07
1.47275e-07
-6.61739e-07
1.49468e-07
-6.97676e-07
1.51398e-07
-7.33284e-07
1.53089e-07
-7.68349e-07
1.54562e-07
-8.02706e-07
1.5578e-07
-8.36297e-07
1.56654e-07
-8.69236e-07
1.57081e-07
-9.01787e-07
1.56996e-07
-9.34174e-07
1.56461e-07
-9.66804e-07
1.55553e-07
-9.99834e-07
1.54436e-07
-1.03285e-06
1.53342e-07
-1.06563e-06
1.52337e-07
-1.09808e-06
1.51411e-07
-1.13024e-06
1.50532e-07
-1.16212e-06
1.49676e-07
-1.19378e-06
1.48827e-07
-1.22522e-06
1.47977e-07
-1.25648e-06
1.47121e-07
-1.28756e-06
1.46256e-07
-1.31846e-06
1.45379e-07
-1.34919e-06
1.44486e-07
-1.37975e-06
1.43573e-07
-1.41012e-06
1.42634e-07
-1.4403e-06
1.41663e-07
-1.47027e-06
1.40655e-07
-1.50003e-06
1.39601e-07
-1.52957e-06
1.38495e-07
-1.55886e-06
1.37329e-07
-1.58788e-06
1.36095e-07
-1.61663e-06
1.34788e-07
-1.64508e-06
1.33398e-07
-1.6732e-06
1.31921e-07
-1.70097e-06
1.30348e-07
-1.72837e-06
1.28675e-07
-1.75538e-06
1.26894e-07
-1.78196e-06
1.25002e-07
-1.80809e-06
1.22992e-07
-1.83373e-06
1.20861e-07
-1.85887e-06
1.18605e-07
-1.88347e-06
1.16221e-07
-1.90749e-06
1.13706e-07
-1.93091e-06
1.11058e-07
-1.9537e-06
1.08277e-07
-1.97582e-06
1.05361e-07
-1.99725e-06
1.02311e-07
-2.01794e-06
9.91271e-08
-2.03788e-06
9.58114e-08
-2.05703e-06
9.23657e-08
-2.07536e-06
8.87933e-08
-2.09284e-06
8.50972e-08
-2.10945e-06
8.1282e-08
-2.12515e-06
7.73526e-08
-2.13993e-06
7.3315e-08
-2.15375e-06
6.91756e-08
-2.1666e-06
6.49415e-08
-2.17846e-06
6.06203e-08
-2.1893e-06
5.62204e-08
-2.19911e-06
5.17504e-08
-2.20787e-06
4.72193e-08
-2.21558e-06
4.26363e-08
-2.22222e-06
3.80111e-08
-2.22778e-06
3.33537e-08
-2.23227e-06
2.86745e-08
-2.23567e-06
2.3985e-08
-2.23799e-06
1.92949e-08
-2.23924e-06
1.46171e-08
-2.23944e-06
9.95905e-09
-2.23859e-06
5.33432e-09
-2.2367e-06
7.55631e-10
-2.2338e-06
-3.76184e-09
-2.22989e-06
-8.20531e-09
-2.22496e-06
-1.25647e-08
-2.21904e-06
-1.68395e-08
-2.21211e-06
-2.10366e-08
-2.20419e-06
-2.51629e-08
-2.19529e-06
-2.92207e-08
-2.18543e-06
-3.32138e-08
-2.17461e-06
-3.71474e-08
-2.16284e-06
-4.10279e-08
-2.15015e-06
-4.48598e-08
-2.13652e-06
-4.86493e-08
-2.12197e-06
-5.24015e-08
-2.1065e-06
-5.61261e-08
-2.0901e-06
-5.9831e-08
-2.07279e-06
-6.35298e-08
-2.05455e-06
-6.72332e-08
-2.03537e-06
-7.09584e-08
-2.01524e-06
-7.47184e-08
-1.99415e-06
-7.8535e-08
-1.97208e-06
-8.24246e-08
-1.94899e-06
-8.64152e-08
-1.92486e-06
-9.05259e-08
-1.89965e-06