/*--------------------------------*- C++ -*----------------------------------*\
  =========                 |
  \\      /  F ield         | OpenFOAM: The Open Source CFD Toolbox
   \\    /   O peration     | Website:  https://openfoam.org
    \\  /    A nd           | Version:  8
     \\/     M anipulation  |
\*---------------------------------------------------------------------------*/
FoamFile
{
    version     2.0;
    format      ascii;
    class       volVectorField;
    location    "175";
    object      U;
}
// * * * * * * * * * * * * * * * * * * * * * * * * * * * * * * * * * * * * * //

dimensions      [0 1 -1 0 0 0 0];

internalField   nonuniform List<vector> 
12225
(
(9.857 -0.886623 0)
(9.66628 -0.74072 0)
(9.45575 -0.42942 0)
(9.22445 -0.222144 0)
(9.00639 -0.10639 0)
(8.81421 -0.0458016 0)
(8.64722 -0.0151154 0)
(8.50498 0.000512057 0)
(8.38317 0.00844549 0)
(8.28029 0.0123441 0)
(8.19166 0.0140546 0)
(8.11524 0.0151054 0)
(8.04811 0.0154798 0)
(7.98855 0.0157864 0)
(7.93464 0.015713 0)
(7.88698 0.0167522 0)
(7.83015 0.0201278 0)
(7.82039 0.0139498 0)
(10.0545 0.227702 0)
(10.1213 0.326975 0)
(10.1196 0.261657 0)
(10.0855 0.186605 0)
(10.0434 0.134712 0)
(9.99664 0.101155 0)
(9.9439 0.0793299 0)
(9.88508 0.06461 0)
(9.82367 0.0543143 0)
(9.76105 0.046741 0)
(9.6995 0.0410017 0)
(9.63954 0.0364814 0)
(9.58205 0.0328877 0)
(9.52747 0.0301115 0)
(9.4752 0.0278056 0)
(9.42749 0.0269789 0)
(9.37856 0.024238 0)
(9.34494 0.0362414 0)
(10.0035 0.0581568 0)
(10.0305 0.0559541 0)
(10.056 0.0337866 0)
(10.0703 0.0329026 0)
(10.0769 0.0406598 0)
(10.0777 0.0465665 0)
(10.0724 0.0493909 0)
(10.0612 0.0503499 0)
(10.0459 0.0502674 0)
(10.0274 0.0495797 0)
(10.0068 0.0485727 0)
(9.98445 0.0474641 0)
(9.96115 0.0463573 0)
(9.93729 0.0454235 0)
(9.91302 0.0445461 0)
(9.88926 0.0446065 0)
(9.86541 0.0443579 0)
(9.84356 0.0479781 0)
(9.99772 0.0109513 0)
(10.0111 0.0266273 0)
(10.035 0.0371364 0)
(10.0525 0.0480875 0)
(10.0643 0.0554671 0)
(10.0733 0.0582118 0)
(10.0794 0.0583973 0)
(10.0822 0.0576748 0)
(10.0826 0.0566519 0)
(10.0809 0.0554914 0)
(10.0778 0.0542686 0)
(10.0733 0.0531124 0)
(10.0677 0.0520263 0)
(10.0614 0.0511475 0)
(10.0544 0.0503905 0)
(10.0472 0.0503161 0)
(10.0399 0.0502811 0)
(10.033 0.0517565 0)
(9.99935 0.00710366 0)
(10.009 0.0317058 0)
(10.0275 0.0439265 0)
(10.0418 0.0499373 0)
(10.0527 0.0536392 0)
(10.0628 0.0552775 0)
(10.0714 0.0555759 0)
(10.0782 0.0553092 0)
(10.0832 0.0547972 0)
(10.087 0.0541362 0)
(10.0897 0.0533867 0)
(10.0915 0.0526538 0)
(10.0925 0.0519649 0)
(10.093 0.0514227 0)
(10.093 0.0510068 0)
(10.0928 0.0510113 0)
(10.0926 0.0511321 0)
(10.0927 0.0517725 0)
(10.0003 0.00915398 0)
(10.0083 0.0312248 0)
(10.0227 0.0409686 0)
(10.0349 0.045422 0)
(10.045 0.0490785 0)
(10.0547 0.0514283 0)
(10.0636 0.0524297 0)
(10.0712 0.0526893 0)
(10.0776 0.0525912 0)
(10.0832 0.052277 0)
(10.0879 0.0518288 0)
(10.092 0.0513439 0)
(10.0955 0.0508702 0)
(10.0986 0.050484 0)
(10.1013 0.0501946 0)
(10.104 0.0501391 0)
(10.1066 0.0501644 0)
(10.1096 0.0502694 0)
(10.0004 0.00892947 0)
(10.0071 0.0271283 0)
(10.0191 0.0364447 0)
(10.0301 0.0414307 0)
(10.0395 0.0454658 0)
(10.0486 0.0481476 0)
(10.0571 0.049439 0)
(10.0648 0.049938 0)
(10.0715 0.0500505 0)
(10.0775 0.0499265 0)
(10.083 0.0496499 0)
(10.0879 0.0493068 0)
(10.0925 0.0489516 0)
(10.0967 0.0486395 0)
(10.1006 0.0483863 0)
(10.1044 0.0482438 0)
(10.1083 0.048115 0)
(10.1124 0.0478853 0)
(10.0004 0.00790762 0)
(10.006 0.0234081 0)
(10.0161 0.0327713 0)
(10.0262 0.0381494 0)
(10.0351 0.0421577 0)
(10.0435 0.0448595 0)
(10.0516 0.0462949 0)
(10.059 0.0469605 0)
(10.0657 0.0472247 0)
(10.0719 0.0472363 0)
(10.0776 0.0470797 0)
(10.0828 0.0468324 0)
(10.0878 0.0465494 0)
(10.0924 0.0462711 0)
(10.0969 0.0460106 0)
(10.1013 0.0457755 0)
(10.1056 0.045493 0)
(10.1101 0.0450415 0)
(10.0004 0.00695899 0)
(10.005 0.0204484 0)
(10.0137 0.0294919 0)
(10.0228 0.0349148 0)
(10.0311 0.0387822 0)
(10.0391 0.0414649 0)
(10.0467 0.0430235 0)
(10.0539 0.0438316 0)
(10.0604 0.0442156 0)
(10.0665 0.0443295 0)
(10.0722 0.0442591 0)
(10.0776 0.0440761 0)
(10.0827 0.0438326 0)
(10.0875 0.04356 0)
(10.0922 0.043266 0)
(10.0968 0.04294 0)
(10.1013 0.0425223 0)
(10.1059 0.0419198 0)
(10.0004 0.00613289 0)
(10.0043 0.0178811 0)
(10.0116 0.0263165 0)
(10.0198 0.0316401 0)
(10.0276 0.0353841 0)
(10.035 0.0380335 0)
(10.0423 0.0396742 0)
(10.0492 0.0405876 0)
(10.0555 0.0410607 0)
(10.0615 0.0412496 0)
(10.0672 0.0412404 0)
(10.0725 0.0410994 0)
(10.0776 0.0408738 0)
(10.0825 0.04059 0)
(10.0872 0.0402522 0)
(10.0919 0.0398443 0)
(10.0964 0.039319 0)
(10.101 0.0386164 0)
(10.0003 0.00537588 0)
(10.0036 0.015573 0)
(10.0099 0.0232811 0)
(10.0172 0.028409 0)
(10.0244 0.0320132 0)
(10.0314 0.0345881 0)
(10.0383 0.0362557 0)
(10.0449 0.0372349 0)
(10.051 0.0377698 0)
(10.0569 0.0380115 0)
(10.0624 0.0380445 0)
(10.0677 0.0379291 0)
(10.0727 0.0377086 0)
(10.0776 0.0374059 0)
(10.0823 0.0370242 0)
(10.0869 0.036549 0)
(10.0913 0.0359455 0)
(10.0958 0.0351816 0)
(10.0003 0.00471253 0)
(10.0032 0.0136347 0)
(10.0086 0.0206374 0)
(10.0152 0.0255013 0)
(10.0219 0.0289412 0)
(10.0285 0.0314119 0)
(10.035 0.0330616 0)
(10.0413 0.0340681 0)
(10.0472 0.0346368 0)
(10.0529 0.0349086 0)
(10.0583 0.034965 0)
(10.0635 0.0348618 0)
(10.0685 0.0346385 0)
(10.0733 0.0343161 0)
(10.0779 0.0338988 0)
(10.0824 0.0333764 0)
(10.0868 0.0327247 0)
(10.0911 0.0319325 0)
(10.0003 0.00409889 0)
(10.0028 0.0118676 0)
(10.0075 0.0181406 0)
(10.0134 0.0226642 0)
(10.0196 0.0259048 0)
(10.0258 0.0282455 0)
(10.032 0.0298442 0)
(10.038 0.03085 0)
(10.0438 0.031433 0)
(10.0493 0.0317201 0)
(10.0546 0.0317887 0)
(10.0597 0.0316903 0)
(10.0645 0.0314611 0)
(10.0692 0.031121 0)
(10.0738 0.0306761 0)
(10.0782 0.0301214 0)
(10.0824 0.029441 0)
(10.0865 0.0286403 0)
(10.0002 0.00346493 0)
(10.0024 0.0100315 0)
(10.0064 0.0154628 0)
(10.0117 0.0195208 0)
(10.0174 0.0224783 0)
(10.0232 0.0246288 0)
(10.029 0.026125 0)
(10.0347 0.0270915 0)
(10.0402 0.0276626 0)
(10.0455 0.0279468 0)
(10.0507 0.0280146 0)
(10.0556 0.0279131 0)
(10.0604 0.0276741 0)
(10.0649 0.0273174 0)
(10.0694 0.0268507 0)
(10.0736 0.0262752 0)
(10.0777 0.0255827 0)
(10.0817 0.0247908 0)
(10.0002 0.00280653 0)
(10.002 0.00812427 0)
(10.0055 0.0126135 0)
(10.0101 0.0160759 0)
(10.0153 0.0186477 0)
(10.0206 0.0205317 0)
(10.026 0.0218604 0)
(10.0314 0.0227346 0)
(10.0367 0.0232557 0)
(10.0418 0.0235101 0)
(10.0467 0.0235586 0)
(10.0515 0.0234422 0)
(10.0561 0.0231892 0)
(10.0605 0.0228178 0)
(10.0648 0.0223388 0)
(10.0689 0.0217569 0)
(10.0728 0.0210723 0)
(10.0766 0.0203079 0)
(10.0002 0.00212286 0)
(10.0017 0.00614748 0)
(10.0047 0.00960067 0)
(10.0087 0.0123333 0)
(10.0134 0.0143994 0)
(10.0183 0.0159233 0)
(10.0233 0.0170044 0)
(10.0283 0.0177187 0)
(10.0333 0.018138 0)
(10.0382 0.0183257 0)
(10.0429 0.0183296 0)
(10.0475 0.0181832 0)
(10.052 0.0179103 0)
(10.0562 0.0175274 0)
(10.0603 0.017046 0)
(10.0643 0.0164744 0)
(10.068 0.0158164 0)
(10.0716 0.0150987 0)
(10.0002 0.00141082 0)
(10.0015 0.00408651 0)
(10.0041 0.00640707 0)
(10.0076 0.00827463 0)
(10.0118 0.00970325 0)
(10.0163 0.0107574 0)
(10.0209 0.011498 0)
(10.0257 0.0119738 0)
(10.0304 0.0122296 0)
(10.035 0.0123059 0)
(10.0395 0.0122347 0)
(10.0439 0.0120405 0)
(10.0482 0.0117404 0)
(10.0523 0.0113484 0)
(10.0562 0.0108743 0)
(10.06 0.0103278 0)
(10.0635 0.00971303 0)
(10.067 0.00905718 0)
(10.0001 0.000653739 0)
(10.0013 0.0018889 0)
(10.0036 0.00295944 0)
(10.0069 0.00381846 0)
(10.0107 0.00446693 0)
(10.0149 0.00492729 0)
(10.0192 0.00522234 0)
(10.0237 0.00537183 0)
(10.0282 0.0053947 0)
(10.0326 0.00530872 0)
(10.0369 0.00512865 0)
(10.0411 0.00486626 0)
(10.0452 0.00453092 0)
(10.0491 0.00413075 0)
(10.0529 0.00367258 0)
(10.0565 0.00316343 0)
(10.0599 0.00260721 0)
(10.0631 0.00202657 0)
(10.0001 -0.000191685 0)
(10.0013 -0.000568077 0)
(10.0035 -0.000916622 0)
(10.0066 -0.00122901 0)
(10.0103 -0.00150437 0)
(10.0143 -0.00175666 0)
(10.0185 -0.00200412 0)
(10.0229 -0.00225883 0)
(10.0272 -0.00252878 0)
(10.0315 -0.00281969 0)
(10.0357 -0.00313679 0)
(10.0397 -0.0034827 0)
(10.0437 -0.00385907 0)
(10.0474 -0.00426546 0)
(10.051 -0.00470122 0)
(10.0545 -0.0051637 0)
(10.0578 -0.00565224 0)
(10.0609 -0.00615036 0)
(10.0001 -0.00100092 0)
(10.0013 -0.002927 0)
(10.0037 -0.00464455 0)
(10.007 -0.00607425 0)
(10.0109 -0.00721252 0)
(10.015 -0.00811952 0)
(10.0194 -0.00885657 0)
(10.0237 -0.00946625 0)
(10.0281 -0.00998267 0)
(10.0324 -0.0104382 0)
(10.0366 -0.0108574 0)
(10.0406 -0.011258 0)
(10.0445 -0.0116507 0)
(10.0482 -0.0120441 0)
(10.0518 -0.0124425 0)
(10.0551 -0.0128493 0)
(10.0584 -0.0132659 0)
(10.0614 -0.0136828 0)
(10.0002 -0.00169889 0)
(10.0015 -0.00498745 0)
(10.0041 -0.00790302 0)
(10.0078 -0.0102436 0)
(10.012 -0.0120302 0)
(10.0165 -0.0134134 0)
(10.021 -0.014499 0)
(10.0256 -0.0153448 0)
(10.0301 -0.0160073 0)
(10.0345 -0.0165458 0)
(10.0387 -0.0170046 0)
(10.0428 -0.017413 0)
(10.0466 -0.0177899 0)
(10.0503 -0.0181499 0)
(10.0539 -0.0185017 0)
(10.0572 -0.0188515 0)
(10.0604 -0.0192029 0)
(10.0634 -0.0195498 0)
(10.0002 -0.00236155 0)
(10.0017 -0.00702285 0)
(10.0047 -0.0111587 0)
(10.009 -0.0143202 0)
(10.0137 -0.0166085 0)
(10.0186 -0.018334 0)
(10.0234 -0.0196573 0)
(10.0282 -0.020649 0)
(10.0329 -0.0213913 0)
(10.0374 -0.0219648 0)
(10.0417 -0.0224269 0)
(10.0459 -0.0228138 0)
(10.0498 -0.0231528 0)
(10.0535 -0.0234627 0)
(10.057 -0.0237577 0)
(10.0604 -0.0240443 0)
(10.0635 -0.0243292 0)
(10.0665 -0.0246069 0)
(10.0002 -0.00298123 0)
(10.0018 -0.00908383 0)
(10.0054 -0.0144368 0)
(10.0105 -0.0183204 0)
(10.0159 -0.021058 0)
(10.0212 -0.0230741 0)
(10.0264 -0.0245238 0)
(10.0315 -0.0255327 0)
(10.0363 -0.0262549 0)
(10.041 -0.0268007 0)
(10.0454 -0.0272265 0)
(10.0496 -0.0275681 0)
(10.0535 -0.0278551 0)
(10.0573 -0.02811 0)
(10.0608 -0.0283468 0)
(10.0642 -0.0285742 0)
(10.0673 -0.0287974 0)
(10.0703 -0.0290144 0)
(10.0001 -0.00352593 0)
(10.0018 -0.0115435 0)
(10.0063 -0.0178798 0)
(10.0123 -0.0219726 0)
(10.0183 -0.0250338 0)
(10.0241 -0.0274382 0)
(10.0297 -0.0290717 0)
(10.0351 -0.0300778 0)
(10.0402 -0.030727 0)
(10.045 -0.0311841 0)
(10.0495 -0.0315167 0)
(10.0537 -0.0317659 0)
(10.0578 -0.0319651 0)
(10.0615 -0.0321387 0)
(10.0651 -0.0322997 0)
(10.0684 -0.0324561 0)
(10.0715 -0.0326106 0)
(10.0745 -0.032761 0)
(9.99991 -0.00337064 0)
(10.0016 -0.014978 0)
(10.0073 -0.0227266 0)
(10.0142 -0.0262308 0)
(10.0206 -0.0288115 0)
(10.0269 -0.0311725 0)
(10.0331 -0.0328901 0)
(10.0391 -0.0339752 0)
(10.0445 -0.0346727 0)
(10.0495 -0.0351347 0)
(10.0541 -0.0354319 0)
(10.0585 -0.0356185 0)
(10.0625 -0.0357407 0)
(10.0662 -0.0358292 0)
(10.0696 -0.0359024 0)
(10.0728 -0.0359701 0)
(10.0757 -0.0360369 0)
(10.0784 -0.0361018 0)
(9.99859 -0.000378729 0)
(9.99904 -0.0157909 0)
(10.0076 -0.0274273 0)
(10.0166 -0.0324799 0)
(10.0238 -0.0348524 0)
(10.0307 -0.0362054 0)
(10.0377 -0.0369549 0)
(10.0442 -0.0374202 0)
(10.0499 -0.0377676 0)
(10.0551 -0.0380137 0)
(10.0596 -0.0381582 0)
(10.0637 -0.0382267 0)
(10.0673 -0.0382485 0)
(10.0705 -0.038245 0)
(10.0732 -0.0382315 0)
(10.0757 -0.0382165 0)
(10.0778 -0.0382039 0)
(10.0797 -0.0381913 0)
(9.99487 0.00140779 0)
(9.99287 -0.00811887 0)
(10.006 -0.0203238 0)
(10.0202 -0.0322536 0)
(10.0307 -0.0404582 0)
(10.0393 -0.0441304 0)
(10.0468 -0.0450424 0)
(10.0529 -0.0448979 0)
(10.0578 -0.0444309 0)
(10.0617 -0.0438344 0)
(10.0647 -0.0431899 0)
(10.0669 -0.0425539 0)
(10.0683 -0.0419603 0)
(10.0692 -0.0414177 0)
(10.0695 -0.040935 0)
(10.0694 -0.0405101 0)
(10.0689 -0.0401395 0)
(10.0682 -0.0397973 0)
(9.9947 -0.0305759 0)
(9.99943 -0.0228465 0)
(10.0146 -0.00261395 0)
(10.0304 -0.00189296 0)
(10.0434 -0.0116434 0)
(10.0533 -0.0209083 0)
(10.0594 -0.0272663 0)
(10.0619 -0.0314929 0)
(10.0616 -0.0342675 0)
(10.0591 -0.0359636 0)
(10.0551 -0.0368958 0)
(10.0498 -0.0373297 0)
(10.0436 -0.0374559 0)
(10.0366 -0.0373945 0)
(10.029 -0.0372345 0)
(10.0211 -0.0370338 0)
(10.013 -0.0368557 0)
(10.0048 -0.0366678 0)
(10.0274 -0.183006 0)
(10.0766 -0.288323 0)
(10.0871 -0.247818 0)
(10.0777 -0.186554 0)
(10.0664 -0.140317 0)
(10.0538 -0.108234 0)
(10.0365 -0.0858859 0)
(10.0146 -0.070426 0)
(9.98941 -0.0596536 0)
(9.96239 -0.0518764 0)
(9.93443 -0.0460533 0)
(9.90612 -0.041555 0)
(9.87796 -0.0379987 0)
(9.85027 -0.0351229 0)
(9.82329 -0.0327605 0)
(9.79714 -0.0308378 0)
(9.77205 -0.0293209 0)
(9.74806 -0.0285069 0)
(9.93575 0.689542 0)
(9.86828 0.609596 0)
(9.76459 0.380608 0)
(9.62664 0.217414 0)
(9.48592 0.119246 0)
(9.35724 0.0631647 0)
(9.24274 0.0315532 0)
(9.14118 0.0136023 0)
(9.05153 0.00324918 0)
(8.97257 -0.00281122 0)
(8.90269 -0.00636448 0)
(8.84053 -0.00848265 0)
(8.78484 -0.00972935 0)
(8.73475 -0.0104875 0)
(8.68933 -0.0109691 0)
(8.648 -0.0112467 0)
(8.60981 -0.0114721 0)
(8.57447 -0.012112 0)
(0.00805943 -0.018016 -6.36739e-19)
(0.0221825 -0.0195054 4.49496e-19)
(0.0299915 -0.0109041 0)
(0.031881 -0.000503981 0)
(0.0272924 0.00837839 0)
(0.0175706 0.0148159 -1.88843e-19)
(0.00405121 0.0190243 0)
(-0.0121817 0.0215626 0)
(-0.0303501 0.0230194 0)
(-0.0499626 0.0238432 0)
(-0.0706552 0.024306 1.04656e-19)
(-0.0921939 0.0245408 0)
(-0.114435 0.0245906 0)
(-0.137309 0.0244528 0)
(-0.160774 0.0241415 0)
(-0.184812 0.0237054 7.30011e-20)
(-0.209459 0.0232321 0)
(-0.234733 0.0228297 0)
(-0.260596 0.0227017 0)
(-0.287001 0.0230253 0)
(-0.313977 0.0236023 0)
(-0.341461 0.0247086 0)
(-0.36938 0.0268135 0)
(-0.397922 0.0291379 5.17765e-20)
(-0.427165 0.0312931 -4.97892e-20)
(-0.456974 0.035378 4.81253e-20)
(-0.48746 0.0441902 4.72e-20)
(-0.519932 0.0565112 0)
(-0.555245 0.0718839 0)
(-0.593217 0.0837255 -4.71191e-20)
(-0.633449 0.0884893 -4.76348e-20)
(-0.671563 0.100535 0)
(-0.710367 0.0758251 0)
(-0.748421 0.0298783 -7.25045e-20)
(-0.778295 0.0312218 0)
(-0.813335 0.0333583 0)
(-0.8503 0.0348313 6.49733e-20)
(-0.8885 0.035422 0)
(-0.927198 0.0355973 6.08143e-20)
(-0.966162 0.0355414 1.17911e-19)
(-1.00522 0.0353711 0)
(-1.0443 0.0351294 0)
(-1.08334 0.0348499 0)
(-1.12231 0.0345454 0)
(-1.16118 0.0342289 0)
(-1.19995 0.0339029 1.0025e-19)
(-1.23861 0.0335736 9.79026e-20)
(-1.27713 0.0332392 9.56851e-20)
(-1.31553 0.0329029 0)
(-1.35378 0.032561 -9.15972e-20)
(-1.39187 0.0322156 0)
(-1.42981 0.0318619 8.79093e-20)
(-1.46757 0.0315014 8.61953e-20)
(-1.50513 0.0311297 0)
(-1.54248 0.0307478 0)
(-1.5796 0.0303509 0)
(-1.61647 0.0299404 8.00563e-20)
(-1.65305 0.0295119 0)
(-1.68933 0.0290667 0)
(-1.72528 0.0286006 0)
(-1.76086 0.028115 0)
(-1.79605 0.0276067 0)
(-1.83081 0.0270772 0)
(-1.86511 0.026523 0)
(-1.8989 0.0259461 0)
(-1.93217 0.0253436 -6.91865e-20)
(-1.96486 0.0247179 0)
(-1.99694 0.0240665 0)
(-2.02837 0.0233922 6.61411e-20)
(-2.05912 0.0226928 6.5167e-20)
(-2.08914 0.0219713 0)
(-2.1184 0.0212258 -6.32664e-20)
(-2.14686 0.0204593 6.23356e-20)
(-2.17449 0.0196705 0)
(-2.20124 0.0188628 -6.05029e-20)
(-2.22708 0.0180348 0)
(-2.25198 0.0171908 0)
(-2.27591 0.0163304 5.7797e-20)
(-2.29883 0.0154574 0)
(-2.32072 0.0145709 -5.60011e-20)
(-2.34154 0.0136755 0)
(-2.36127 0.0127709 5.41965e-20)
(-2.37989 0.0118606 5.3287e-20)
(-2.39738 0.0109441 5.23707e-20)
(-2.41373 0.0100264 1.02892e-19)
(-2.42891 0.00910879 -1.01024e-19)
(-2.44291 0.00819649 0)
(-2.45571 0.00729003 0)
(-2.4673 0.00639427 0)
(-2.47768 0.00550278 -9.33221e-20)
(-2.48684 0.0046155 -9.13315e-20)
(-2.49478 0.00372541 8.93129e-20)
(-2.50147 0.00282964 0)
(-2.50687 0.00191822 -8.51893e-20)
(-2.51094 0.000984337 -8.30838e-20)
(-2.51365 4.06587e-05 -8.09488e-20)
(-2.51487 -0.000808639 0)
(-2.51496 -0.00151916 0)
(-2.51406 -0.00215908 0)
(-2.51215 -0.002749 -7.19844e-20)
(-2.50927 -0.00328768 0)
(-2.50546 -0.00379309 0)
(-2.50073 -0.00427383 6.48952e-20)
(-2.49508 -0.004732 0)
(-2.48854 -0.00516678 0)
(-2.48111 -0.00557906 5.74992e-20)
(-2.4728 -0.00596814 0)
(-2.46362 -0.00633659 0)
(-2.45357 -0.00668406 -4.98192e-20)
(-2.44266 -0.00701439 -4.71995e-20)
(-2.43089 -0.00732654 0)
(-2.41825 -0.00762553 4.18742e-20)
(-2.40473 -0.00790953 0)
(-2.39033 -0.00818533 -3.64364e-20)
(-2.37502 -0.00845006 0)
(-2.35878 -0.00871256 -3.08864e-20)
(-2.34157 -0.00896866 -2.80677e-20)
(-2.32334 -0.00922956 0)
(-2.30405 -0.00949247 0)
(-2.28365 -0.00977331 0)
(-2.26209 -0.01007 0)
(-2.23933 -0.0103948 0)
(-2.21526 -0.0107363 0)
(-2.18977 -0.0111102 0)
(-2.16274 -0.0115036 -4.10928e-21)
(-2.13405 -0.0119451 8.52136e-22)
(-2.10359 -0.0124242 0)
(-2.07124 -0.0129744 0)
(-2.03687 -0.0135839 0)
(-2.00034 -0.0142894 0)
(-1.96151 -0.0150797 -3.42684e-20)
(-1.92024 -0.0159905 0)
(-1.87637 -0.0170126 5.10683e-20)
(-1.82976 -0.0181636 -6.0233e-20)
(-1.78029 -0.0194275 0)
(-1.72783 -0.0208781 0)
(-1.67222 -0.0225066 0)
(-1.61335 -0.0243239 1.04388e-19)
(-1.55109 -0.0263178 1.17963e-19)
(-1.48535 -0.028441 0)
(-1.41611 -0.0306967 1.49255e-19)
(-1.34329 -0.0331035 1.6743e-19)
(-1.2669 -0.0356471 -1.87633e-19)
(-1.18689 -0.0383256 0)
(-1.10329 -0.0411099 0)
(-1.01614 -0.0439794 -2.63147e-19)
(-0.92553 -0.0469221 0)
(-0.831561 -0.049914 0)
(-0.734378 -0.0529502 0)
(-0.634147 -0.0560038 0)
(-0.531072 -0.0590688 4.64725e-19)
(-0.425416 -0.0621003 5.2236e-19)
(-0.317498 -0.0650742 0)
(-0.207577 -0.0680242 6.64078e-19)
(-0.0957234 -0.0702491 0)
(0.0199305 -0.0704865 0)
(0.138056 -0.0690878 6.99491e-19)
(0.256275 -0.0672274 0)
(0.37401 -0.0651822 6.51473e-19)
(0.490521 -0.0630109 0)
(0.60525 -0.0607493 0)
(0.717723 -0.0584103 6.01176e-19)
(0.827545 -0.056011 0)
(0.934387 -0.0535827 5.76466e-19)
(1.03795 -0.0511366 0)
(1.13803 -0.0486811 0)
(1.23445 -0.0462343 0)
(1.32705 -0.0437999 -5.39497e-19)
(1.41574 -0.0413856 0)
(1.50045 -0.0390159 5.25043e-19)
(1.58107 -0.0366851 0)
(1.65752 -0.0343732 0)
(1.72967 -0.0320618 0)
(1.79728 -0.0297074 0)
(1.85997 -0.0272284 0)
(1.91676 -0.0244517 0)
(1.96668 -0.0209469 0)
(2.0023 -0.0155781 -9.89371e-19)
(2.02909 -0.00346737 0)
(1.95704 0.0182403 0)
(0.00403023 -0.0440559 1.42284e-18)
(0.00721019 -0.0299195 -7.28797e-19)
(0.00376187 -0.0101263 0)
(-0.00277257 0.0080817 2.16017e-19)
(-0.0121733 0.0235511 0)
(-0.0243785 0.035876 7.93552e-20)
(-0.0391881 0.0452068 -1.43625e-19)
(-0.0563744 0.0520283 -1.31917e-19)
(-0.0756429 0.0569426 0)
(-0.0966931 0.0605031 -1.14186e-19)
(-0.11926 0.0631483 -5.36803e-20)
(-0.143133 0.0651913 0)
(-0.168172 0.0668432 0)
(-0.194294 0.0682393 0)
(-0.221455 0.0694758 0)
(-0.249652 0.0706228 -4.25105e-20)
(-0.278883 0.0717381 0)
(-0.309129 0.0728691 7.95554e-20)
(-0.340371 0.074047 0)
(-0.372607 0.0752686 0)
(-0.405864 0.0764764 -7.27674e-20)
(-0.440202 0.0776651 0)
(-0.4756 0.0790014 6.91146e-20)
(-0.512052 0.0804748 -3.38287e-20)
(-0.549643 0.0817339 3.31682e-20)
(-0.588391 0.0828111 -3.26685e-20)
(-0.628073 0.0842382 -3.23881e-20)
(-0.668328 0.0860619 0)
(-0.708214 0.0878516 0)
(-0.747755 0.088689 3.28936e-20)
(-0.787205 0.0880522 -3.24131e-20)
(-0.825958 0.0876164 0)
(-0.866594 0.0878353 0)
(-0.909133 0.0886575 3.46063e-20)
(-0.952186 0.0906333 0)
(-0.992141 0.0918267 0)
(-1.03041 0.0922246 -3.2095e-20)
(-1.06781 0.0920834 0)
(-1.10472 0.0915753 3.0471e-20)
(-1.14127 0.0908417 -6.00171e-20)
(-1.17754 0.0899744 0)
(-1.21355 0.0890256 0)
(-1.24931 0.0880308 -1.12656e-19)
(-1.28484 0.0870079 -1.10549e-19)
(-1.32013 0.0859709 -1.08541e-19)
(-1.35518 0.0849237 5.31465e-20)
(-1.38999 0.0838715 -5.25628e-20)
(-1.42457 0.0828126 -1.54727e-19)
(-1.45889 0.081748 1.0136e-19)
(-1.49296 0.0806732 5.00339e-20)
(-1.52676 0.0795878 0)
(-1.56028 0.0784857 -4.85036e-20)
(-1.59352 0.0773661 4.74621e-20)
(-1.62644 0.0762232 0)
(-1.65904 0.075056 0)
(-1.6913 0.0738587 0)
(-1.72319 0.0726307 -4.50918e-20)
(-1.7547 0.0713671 0)
(-1.78579 0.0700677 8.74203e-20)
(-1.81645 0.0687279 0)
(-1.84665 0.0673482 8.50707e-20)
(-1.87635 0.065925 0)
(-1.90554 0.0644595 -8.28138e-20)
(-1.93419 0.0629486 0)
(-1.96226 0.0613942 8.06316e-20)
(-1.98972 0.0597939 -3.96587e-20)
(-2.01656 0.0581505 0)
(-2.04273 0.0564623 -7.7461e-20)
(-2.06821 0.0547328 -3.8322e-20)
(-2.09297 0.052961 -3.78021e-20)
(-2.11697 0.0511512 0)
(-2.1402 0.049303 -3.65755e-20)
(-2.16262 0.0474208 -3.62516e-20)
(-2.18421 0.0455045 0)
(-2.20493 0.0435593 3.52175e-20)
(-2.22477 0.0415857 -6.92468e-20)
(-2.2437 0.0395898 0)
(-2.2617 0.0375734 -3.36501e-20)
(-2.27875 0.0355424 0)
(-2.29482 0.0334982 9.76565e-20)
(-2.30991 0.0314477 0)
(-2.32398 0.0293931 -9.44267e-20)
(-2.33704 0.0273399 -3.09492e-20)
(-2.34905 0.0252888 3.03401e-20)
(-2.36002 0.0232449 5.95746e-20)
(-2.36994 0.0212092 -5.84535e-20)
(-2.3788 0.0191874 0)
(-2.38658 0.0171819 0)
(-2.3933 0.0151978 0)
(-2.39894 0.0132346 1.61286e-19)
(-2.40353 0.0112896 5.25106e-20)
(-2.40708 0.00936236 -5.12609e-20)
(-2.40962 0.00745621 0)
(-2.41117 0.00557221 -4.88511e-20)
(-2.41179 0.00371648 4.74114e-20)
(-2.41156 0.00190738 4.60799e-20)
(-2.41061 0.000213619 0)
(-2.40878 -0.00132502 0)
(-2.40598 -0.00275986 0)
(-2.40221 -0.00413806 4.05801e-20)
(-2.39748 -0.00546444 0)
(-2.39181 -0.00674519 -7.57718e-20)
(-2.38521 -0.00798613 -1.0923e-19)
(-2.37769 -0.00919009 7.00377e-20)
(-2.36926 -0.0103581 0)
(-2.35992 -0.011492 3.22693e-20)
(-2.34968 -0.0125939 0)
(-2.33854 -0.0136681 5.83275e-20)
(-2.32649 -0.0147181 -2.78508e-20)
(-2.31355 -0.0157502 -2.63634e-20)
(-2.2997 -0.0167681 0)
(-2.28494 -0.0177791 -6.94169e-20)
(-2.26925 -0.0187871 4.33895e-20)
(-2.25262 -0.0198016 2.00146e-20)
(-2.23501 -0.0208261 0)
(-2.21641 -0.0218718 1.70011e-20)
(-2.19677 -0.02294 4.68216e-20)
(-2.17605 -0.0240413 0)
(-2.15418 -0.0251808 2.5286e-20)
(-2.13113 -0.026379 2.2264e-20)
(-2.10683 -0.0276442 1.92419e-20)
(-2.08123 -0.0289924 0)
(-2.05422 -0.0304141 0)
(-2.02571 -0.03192 0)
(-1.99556 -0.0334967 -3.69956e-21)
(-1.96366 -0.035169 -1.87109e-21)
(-1.9299 -0.0369276 0)
(-1.89414 -0.0388019 2.17309e-21)
(-1.85627 -0.040777 5.32955e-21)
(-1.81613 -0.0428812 0)
(-1.77359 -0.0450943 1.21006e-20)
(-1.72848 -0.0474388 3.02844e-20)
(-1.68066 -0.0498907 -1.89069e-20)
(-1.62998 -0.0524748 -2.17685e-20)
(-1.57627 -0.0551681 0)
(-1.51937 -0.0579793 0)
(-1.45914 -0.0608907 0)
(-1.39544 -0.063914 -3.8557e-20)
(-1.32816 -0.0670214 4.19489e-20)
(-1.2572 -0.0702025 9.48662e-20)
(-1.18247 -0.0734344 -5.34542e-20)
(-1.10393 -0.0766846 5.73484e-20)
(-1.02152 -0.0799324 6.53595e-20)
(-0.935232 -0.0831572 0)
(-0.845118 -0.0863355 0)
(-0.751244 -0.0894396 -8.40235e-20)
(-0.653722 -0.0924368 0)
(-0.552709 -0.0953069 0)
(-0.448401 -0.0980276 2.23378e-19)
(-0.341035 -0.100579 0)
(-0.230891 -0.10295 1.30007e-19)
(-0.118227 -0.105137 -1.45138e-19)
(-0.00299963 -0.107086 0)
(0.11431 -0.108934 1.53127e-19)
(0.232402 -0.110435 0)
(0.350102 -0.110698 0)
(0.466817 -0.109643 -1.73405e-19)
(0.582527 -0.107796 3.52176e-19)
(0.697033 -0.105407 -1.83209e-19)
(0.809914 -0.102604 0)
(0.920769 -0.0994668 0)
(1.02924 -0.0960674 1.91974e-19)
(1.13501 -0.092455 0)
(1.23782 -0.0886907 1.99656e-19)
(1.33743 -0.0848172 0)
(1.43367 -0.0808784 0)
(1.52637 -0.0769011 0)
(1.61543 -0.0729215 2.15359e-19)
(1.70074 -0.0689588 0)
(1.78223 -0.0650238 -2.19835e-19)
(1.85982 -0.0611045 0)
(1.93343 -0.0571897 0)
(2.00296 -0.0532343 4.48321e-19)
(2.06818 -0.0491454 -4.51729e-19)
(2.12876 -0.0447294 0)
(2.18389 -0.0396345 0)
(2.23282 -0.032884 0)
(2.27126 -0.0226688 1.40836e-18)
(2.30447 -0.00194427 0)
(2.31081 0.0375241 -9.83017e-19)
(-0.00385675 -0.0435293 -1.06402e-21)
(-0.00961488 -0.015834 6.98908e-19)
(-0.019345 0.00934336 0)
(-0.0313506 0.0313577 -2.78714e-19)
(-0.0449686 0.0503041 0)
(-0.0599876 0.0662732 0)
(-0.0765183 0.0793965 4.98582e-24)
(-0.0946827 0.089946 8.63239e-20)
(-0.11451 0.098322 8.13988e-20)
(-0.13595 0.104978 7.73308e-20)
(-0.158909 0.110352 0)
(-0.183281 0.114819 0)
(-0.208974 0.118677 -6.8243e-20)
(-0.235919 0.122148 -1.31874e-19)
(-0.264064 0.125385 1.2781e-19)
(-0.293365 0.128487 0)
(-0.32378 0.131512 1.20989e-19)
(-0.355254 0.134477 -5.89554e-20)
(-0.387721 0.137372 0)
(-0.421118 0.140175 1.12783e-19)
(-0.455383 0.142858 5.50464e-20)
(-0.490439 0.145424 -1.07707e-19)
(-0.52617 0.147931 -5.25768e-20)
(-0.562431 0.150339 0)
(-0.599108 0.152578 1.0059e-19)
(-0.636056 0.15475 9.85938e-20)
(-0.672965 0.157066 0)
(-0.709379 0.159317 9.5456e-20)
(-0.744868 0.161096 0)
(-0.779429 0.16186 9.32208e-20)
(-0.813362 0.161321 4.61765e-20)
(-0.847062 0.159997 0)
(-0.881184 0.15708 0)
(-0.916151 0.153459 0)
(-0.951393 0.151236 0)
(-0.985952 0.149603 0)
(-1.0198 0.148109 0)
(-1.05308 0.146575 8.16994e-20)
(-1.08595 0.144958 -1.20302e-19)
(-1.1185 0.143269 0)
(-1.15081 0.141531 0)
(-1.18291 0.139763 0)
(-1.21482 0.137979 1.78076e-22)
(-1.24655 0.136189 7.34795e-20)
(-1.27811 0.134397 1.44384e-19)
(-1.3095 0.132605 -1.42081e-19)
(-1.34071 0.130811 -6.98435e-20)
(-1.37175 0.129011 6.8954e-20)
(-1.4026 0.127204 -1.78617e-22)
(-1.43326 0.125382 6.67473e-20)
(-1.46372 0.123542 0)
(-1.49395 0.121677 6.48447e-20)
(-1.52396 0.119783 -1.77057e-22)
(-1.55372 0.117853 0)
(-1.58321 0.115883 0)
(-1.61242 0.113868 -6.13419e-20)
(-1.64132 0.111804 0)
(-1.6699 0.109687 0)
(-1.69813 0.107514 5.87524e-20)
(-1.72599 0.105281 1.16283e-19)
(-1.75344 0.102988 -5.75379e-20)
(-1.78048 0.100631 0)
(-1.80706 0.0982101 5.6034e-20)
(-1.83316 0.0957238 0)
(-1.85875 0.0931724 5.42715e-20)
(-1.88381 0.0905557 5.38385e-20)
(-1.9083 0.0878754 -1.05962e-19)
(-1.9322 0.0851321 -5.21366e-20)
(-1.95547 0.0823285 0)
(-1.97808 0.0794663 1.01706e-19)
(-2.00002 0.0765491 0)
(-2.02124 0.0735795 1.48431e-19)
(-2.04172 0.0705617 9.74653e-20)
(-2.06143 0.0674991 9.60461e-20)
(-2.08034 0.0643967 -9.46209e-20)
(-2.09844 0.0612586 1.39866e-19)
(-2.11568 0.0580912 0)
(-2.13206 0.0548995 0)
(-2.14754 0.05169 -8.88261e-20)
(-2.16211 0.0484678 -1.31075e-19)
(-2.17574 0.0452404 0)
(-2.18842 0.0420131 4.22105e-20)
(-2.20013 0.0387929 0)
(-2.21085 0.0355846 -1.2192e-19)
(-2.22058 0.0323947 -3.51915e-23)
(-2.2293 0.0292279 1.9604e-23)
(-2.23702 0.0260911 7.65007e-20)
(-2.24371 0.0229895 0)
(-2.24938 0.0199295 -7.32185e-20)
(-2.25403 0.0169146 4.19012e-23)
(-2.25768 0.0139479 0)
(-2.26034 0.0110359 0)
(-2.26202 0.00818765 0)
(-2.26275 0.00541694 6.45332e-20)
(-2.26255 0.00273998 0)
(-2.26143 0.000177627 0)
(-2.2594 -0.00226573 0)
(-2.25643 -0.00461101 0)
(-2.2525 -0.00687571 0)
(-2.24763 -0.00906263 5.35066e-20)
(-2.24183 -0.0111756 0)
(-2.23509 -0.013221 4.94993e-20)
(-2.22744 -0.0152053 4.75591e-20)
(-2.21887 -0.0171318 -4.56092e-20)
(-2.2094 -0.0190034 0)
(-2.19904 -0.0208228 -4.16859e-20)
(-2.18777 -0.0225951 0)
(-2.1756 -0.0243255 -3.77402e-20)
(-2.16254 -0.0260215 3.57622e-20)
(-2.14857 -0.0276897 1.01787e-19)
(-2.13369 -0.0293392 0)
(-2.11788 -0.0309775 8.99109e-20)
(-2.10114 -0.0326151 2.82918e-20)
(-2.08343 -0.0342612 0)
(-2.06475 -0.0359281 4.82344e-20)
(-2.04505 -0.037626 4.42954e-20)
(-2.02429 -0.0393662 -6.0326e-20)
(-2.00243 -0.0411584 0)
(-1.97942 -0.0430193 -1.60497e-20)
(-1.95519 -0.0449682 -1.41036e-20)
(-1.92969 -0.0470245 -3.69245e-20)
(-1.90286 -0.0492004 0)
(-1.8746 -0.0515005 0)
(-1.8448 -0.0539259 0)
(-1.81335 -0.0564815 -4.86392e-21)
(-1.78013 -0.0591786 0)
(-1.74502 -0.0620282 0)
(-1.70789 -0.0650443 -1.35091e-21)
(-1.66862 -0.0682328 -3.30362e-21)
(-1.62706 -0.0716056 0)
(-1.58306 -0.0751633 0)
(-1.53647 -0.0789104 -1.85931e-20)
(-1.48714 -0.082838 0)
(-1.43492 -0.0869513 2.69709e-20)
(-1.37962 -0.0912389 3.08199e-20)
(-1.32111 -0.0956928 0)
(-1.25923 -0.100294 0)
(-1.19385 -0.105032 -4.48611e-20)
(-1.12486 -0.109873 -7.71362e-22)
(-1.05218 -0.114784 -8.6603e-22)
(-0.975718 -0.119733 0)
(-0.895419 -0.124674 -1.35625e-19)
(-0.811248 -0.129554 0)
(-0.723239 -0.134329 0)
(-0.631454 -0.138947 0)
(-0.535991 -0.143358 9.76674e-20)
(-0.436996 -0.147506 0)
(-0.334659 -0.151349 -2.26324e-19)
(-0.229216 -0.154845 -1.24723e-19)
(-0.120935 -0.157964 0)
(-0.0100575 -0.160671 -1.43083e-19)
(0.102994 -0.162925 0)
(0.21756 -0.164602 0)
(0.333026 -0.165594 -4.88008e-19)
(0.448715 -0.165871 3.3755e-19)
(0.563936 -0.16531 0)
(0.678234 -0.163783 3.6605e-19)
(0.791339 -0.16136 -1.92914e-19)
(0.902926 -0.158188 0)
(1.01262 -0.154393 0)
(1.12008 -0.150072 0)
(1.22497 -0.14532 -6.51267e-19)
(1.32702 -0.140213 0)
(1.42601 -0.134835 -2.3026e-19)
(1.52173 -0.129254 0)
(1.61403 -0.123532 0)
(1.70279 -0.117719 0)
(1.78792 -0.111859 0)
(1.86933 -0.105987 0)
(1.94699 -0.100129 0)
(2.02084 -0.0942762 -5.18681e-19)
(2.09085 -0.0884036 0)
(2.15691 -0.0824424 -2.67574e-19)
(2.21886 -0.0762527 8.08893e-19)
(2.27642 -0.0695637 0)
(2.32902 -0.0618721 0)
(2.37618 -0.0520289 -5.57513e-19)
(2.41555 -0.0380044 -5.67632e-19)
(2.45054 -0.0143423 5.76565e-19)
(2.47235 0.0285678 5.96411e-19)
(-0.0103976 -0.0241007 -2.12976e-18)
(-0.0219272 0.0109344 -8.36658e-19)
(-0.0357936 0.0386504 -3.03466e-19)
(-0.0518173 0.062437 -1.09187e-19)
(-0.0687917 0.083116 0)
(-0.0864202 0.101049 1.57943e-19)
(-0.104882 0.116425 -7.21278e-20)
(-0.124386 0.129442 0)
(-0.145068 0.140373 -6.37174e-20)
(-0.167 0.149548 0)
(-0.190194 0.15732 1.169e-19)
(-0.214625 0.164019 0)
(-0.240242 0.169932 5.45271e-20)
(-0.266986 0.175285 1.05824e-19)
(-0.294791 0.180244 -1.02931e-19)
(-0.323582 0.184914 0)
(-0.353273 0.189347 -9.792e-20)
(-0.383762 0.19355 0)
(-0.41493 0.19749 0)
(-0.446653 0.201107 -9.15082e-20)
(-0.478808 0.204348 0)
(-0.51127 0.207182 -5.78525e-23)
(-0.543909 0.209614 0)
(-0.576591 0.211649 0)
(-0.609203 0.213303 2.07777e-23)
(-0.641627 0.214653 -7.96783e-20)
(-0.673692 0.215763 -7.79405e-20)
(-0.705203 0.216546 -7.62809e-20)
(-0.736051 0.2168 0)
(-0.766283 0.216287 -1.465e-19)
(-0.796099 0.214861 0)
(-0.825766 0.212629 -7.05641e-20)
(-0.855546 0.209635 0)
(-0.885617 0.206295 0)
(-0.915865 0.203232 6.65736e-20)
(-0.946026 0.200463 0)
(-0.975977 0.197881 -6.40823e-20)
(-1.00569 0.195392 -7.61072e-23)
(-1.03519 0.192944 1.23638e-19)
(-1.0645 0.190515 -1.21402e-19)
(-1.09365 0.188099 0)
(-1.12267 0.185693 0)
(-1.15156 0.183297 -5.76436e-20)
(-1.18033 0.180911 0)
(-1.20898 0.178532 -5.59942e-20)
(-1.23752 0.176156 5.51442e-20)
(-1.26593 0.173779 5.43237e-20)
(-1.29422 0.171393 0)
(-1.32237 0.168993 -5.27628e-20)
(-1.35038 0.166571 -5.20181e-20)
(-1.37822 0.164119 1.02432e-19)
(-1.4059 0.161631 -5.05908e-20)
(-1.43338 0.159099 -4.99049e-20)
(-1.46067 0.156517 0)
(-1.48773 0.153877 0)
(-1.51455 0.151174 4.79405e-20)
(-1.54111 0.148402 0)
(-1.56738 0.145557 0)
(-1.59335 0.142635 -9.21793e-20)