/*--------------------------------*- C++ -*----------------------------------*\
| =========                 |                                                 |
| \\      /  F ield         | OpenFOAM: The Open Source CFD Toolbox           |
|  \\    /   O peration     | Version:  5.x                                   |
|   \\  /    A nd           | Web:      www.OpenFOAM.org                      |
|    \\/     M anipulation  |                                                 |
\*---------------------------------------------------------------------------*/
FoamFile
{
    version     2.0;
    format      ascii;
    class       volScalarField;
    location    "100";
    object      epsilon;
}
// * * * * * * * * * * * * * * * * * * * * * * * * * * * * * * * * * * * * * //

dimensions      [0 2 -3 0 0 0 0];

internalField   nonuniform List<scalar> 
20540
(
0.241032
0.116336
0.241032
0.19229
0.241032
0.256486
0.241032
0.304301
0.241032
0.332811
0.241032
0.340114
0.241032
0.325923
0.241032
0.292114
0.241033
0.243148
0.241033
0.186015
0.241033
0.129328
0.241033
0.0812755
0.241033
0.0468178
0.241033
0.0266387
0.241033
0.0186221
0.241033
0.0168019
0.241033
0.0165073
0.241033
0.016462
0.241033
0.0164551
0.241033
0.0164543
0.241034
0.0164547
0.241034
0.0164553
0.241034
0.0164562
0.241034
0.0164573
0.241034
0.0164586
0.241034
0.0164602
0.241034
0.0164619
0.241034
0.0164637
0.241034
0.0164653
0.241033
0.016467
0.241034
0.0164686
0.241034
0.0164693
0.241034
0.0164694
0.241034
0.0164688
0.241034
0.0164675
0.241034
0.0164662
0.241034
0.0164647
0.241034
0.0164632
0.241034
0.0164618
0.241034
0.0164604
0.241034
0.0164593
0.241034
0.0164583
0.241034
0.0164574
0.241034
0.0164568
0.241034
0.0164564
0.241034
0.0164565
0.241034
0.016459
0.241034
0.0164754
0.241034
0.0165771
0.241034
0.017206
0.241034
0.0205659
0.241034
0.0320361
0.241034
0.0556975
0.241033
0.09253
0.241033
0.140846
0.241033
0.195184
0.241033
0.247949
0.241033
0.291691
0.241033
0.320578
0.241033
0.330997
0.241033
0.32151
0.241033
0.292501
0.241033
0.245756
0.241032
0.184193
0.241032
0.113814
515724
424578
301698
207682
144823
105107
80305.2
64623.4
54086.7
46333.7
40366
35716.1
32120.7
29340.3
27194.4
25529.1
24235.1
23221.6
22425.8
21794.1
21291.6
20887.8
20563.5
20302
20092.6
19926.5
19797.8
19702.1
19636.2
19598.4
19586.9
19601.4
19641.7
19708.5
19802.4
19923.8
20073.6
20252
20459.5
20696.5
20964.2
21264.4
21599.2
21971.4
22384.3
22842.3
23350.3
23913.7
24538.3
25230.4
25996.7
26843.9
27778.7
28808.1
29938.2
31175.3
32527.2
34002.3
35614.6
37378.7
39314.6
41469.5
44012.3
45639.6
47163.3
48577.4
49987.9
51452.7
52946.5
54494.1
56060.1
57671.4
59302.6
60981.9
62694.3
64455.8
66269.4
68137.9
70085.4
72138
74340.2
76677.5
79158.2
81877.5
85057.5
88570.2
93768.5
97800.6
592474
387958
264850
177257
118376
81351.7
58718.9
44848.8
35922.7
29687
25110.3
21672.6
19090.5
17138.3
15659.9
14529.6
13662.7
12990.1
12466.2
12052.5
11724.6
11461.6
11250.6
11080.5
10944.6
10837.1
10754.2
10693.2
10651.9
10629.1
10623.8
10635.7
10664.8
10711.3
10775.6
10858
10958.8
11078.2
11216.6
11374.1
11551.8
11750.8
11972.6
12219.3
12493.6
12798.5
13137.8
13515.7
13936.9
14406.4
14929.6
15512.5
16161
16882.2
17683
18571.2
19557.2
20652.2
21873.7
23239.2
24772.2
26506.1
28690.1
30300.1
31805.2
33170.8
34575.4
36073.2
37643.5
39286.6
40975.5
42716.4
44494.5
46329.8
48223.2
50200.8
52290.4
54520.9
56938.4
59591.6
62575.6
65914.9
69587.8
73690.8
78493.9
84242.2
90674.7
85569.3
406812
281855
195800
134495
92247.5
64795.6
47490.1
36615.8
29508.1
24507.4
20817.4
18026.7
15914.7
14306.1
13080.2
12137.9
11411.9
10846.6
10404.8
10054.8
9776.31
9552.01
9371.33
9225.09
9107.69
9014.44
8942.27
8888.88
8852.65
8832.52
8827.64
8837.75
8862.94
8903.51
8959.63
9031.57
9119.58
9223.73
9344.03
9480.68
9634.23
9805.56
9995.86
10206.7
10440.2
10699
10986.1
11304.9
11659.3
12053.2
12491
12977.4
13517.1
14115.7
14778.7
15512.3
16324.9
17225.7
18228.7
19348.4
20603.1
22019.4
23794.6
25123.1
26411.7
27592.3
28784.9
30047.2
31371.9
32757.6
34183.8
35650.6
37145.7
38678.8
40250.2
41874.3
43571.8
45362.6
47282.3
49366.8
51678.8
54252.6
57097.1
60257.6
63902.8
68100
72872.8
64948.5
283161
212362
149452
104181
72541.2
51592.2
38158.8
29606
23974.3
20001.9
17064.3
14835.4
13141.4
11846.1
10855.3
10091.2
9501.12
9040.77
8680.47
8394.69
8167.09
7983.56
7835.49
7715.44
7618.84
7541.88
7482.07
7437.56
7407.02
7389.61
7384.65
7391.95
7411.62
7443.97
7489.21
7547.6
7619.4
7704.68
7803.42
7915.74
8042.02
8182.88
8339.21
8512.22
8703.51
8915.11
9149.4
9409.07
9697.07
10016.6
10370.9
10763.7
11198.5
11679.4
12210.6
12796.7
13443.7
14158.5
14951
15832.2
16815.4
17922.6
19280.1
20275.4
21280.4
22223
23157.1
24131.4
25147.6
26208.6
27300
28422
29564.4
30730.9
31920.8
33138.8
34396.5
35701.4
37074.7
38532.9
40101.7
41803.2
43655.7
45662.2
47876.6
50182
52784.3
47861.6
199087
164937
118016
83322.7
58700.7
42110.8
31310.3
24359.1
19758.9
16514.5
14116.9
12297.9
10913.5
9853.09
9040.03
8411.99
7926.06
7546.65
7249.46
7013.78
6826.05
6674.76
6552.71
6453.84
6374.29
6310.93
6261.67
6224.98
6199.73
6185.2
6180.84
6186.47
6202.2
6228.32
6265.06
6312.71
6371.53
6441.62
6523
6615.76
6720.17
6836.69
6965.99
7109
7266.97
7441.47
7634.39
7847.84
8084.14
8345.76
8635.33
8955.6
9309.34
9699.58
10129.4
10602.2
11122.2
11694.3
12325.6
13024.1
13799.2
14668.9
15704.2
16435.2
17200.5
17940
18661.3
19399.9
20160.8
20950.5
21759.7
22589.2
23431.6
24287.2
25155.2
26034.3
26930.6
27842.9
28781.9
29750
30750.4
31791.2
32888.5
34025.1
35195
36221.6
37324.1
35841.2
139623
130455
95577.8
68417.9
48736.6
35210.4
26256.9
20427.9
16551.9
13822.9
11812.4
10291.6
9135.07
8249.37
7569.43
7043.63
6636.28
6318.07
6068.72
5871.12
5713.78
5587.19
5485.2
5402.77
5336.61
5284.1
5243.45
5213.33
5192.77
5181.12
5177.87
5182.86
5196.19
5218.11
5248.86
5288.73
5337.98
5396.76
5465.12
5543.14
5631.01
5729.09
5837.88
5958.13
6090.81
6237.18
6398.73
6577.14
6774.27
6992.07
7232.61
7498.02
7790.45
8112.16
8465.44
8852.77
9277.09
9742.11
10252.4
10814
11433.1
12124.6
12920.5
13456
14031.6
14605.8
15160.5
15717.1
16280.5
16858.6
17445.9
18044.1
18647.8
19256.1
19868.2
20480.3
21095.3
21707.4
22320.9
22930.7
23529.3
24116
24700.1
25259.3
25770.5
26073.2
26357.5
26408.4
96508.3
103970
78751.3
57308.3
41304.9
30044
22444
17428.8
14074.3
11717.3
9989
8688.36
7702.24
6948.3
6369.31
5921.32
5573.92
5302.49
5089.77
4921.36
4787.41
4679.86
4593.39
4523.78
4468.15
4424.29
4390.62
4365.97
4349.49
4340.56
4338.7
4343.75
4355.78
4375.02
4401.7
4436.12
4478.55
4529.16
4588.03
4655.22
4730.87
4815.25
4908.77
5012.01
5125.77
5251.06
5389.07
5541.18
5708.87
5893.72
6097.36
6321.47
6567.72
6837.78
7133.38
7456.32
7808.62
8193.04
8612.46
9071.41
9573.72
10131.5
10751.6
11146.3
11575.7
12016.7
12441.3
12859.3
13273.4
13691.2
14109.8
14531.1
14951.9
15370.5
15786.7
16195.7
16599.1
16989.5
17367.9
17726.4
18054.9
18348.4
18610.6
18821.7
18963
18915.7
18839.8
19085.5
64959.2
82674.9
65522.1
48661.6
35541.6
26045.9
19490.2
15093.4
12128.6
10047.4
8528.92
7393.75
6537.16
5884.26
5383.08
4995.22
4694.28
4459.17
4274.96
4129.32
4013.64
3921.01
3846.78
3787.31
3740.08
3703.19
3675.23
3655.17
3642.22
3635.78
3635.42
3640.92
3652.39
3670.01
3694.04
3724.75
3762.44
3807.31
3859.44
3918.89
3985.73
4060.2
4142.59
4233.4
4333.28
4443.06
4563.72
4696.41
4842.33
5002.78
5179.05
5372.48
5584.38
5815.97
6068.53
6343.37
6641.82
6965.98
7317.5
7699.81
8115
8572.87
9065.3
9361.15
9680.26
10015.3
10338.2
10651.2
10954
11252.9
11546.6
11837
12122.4
12401
12673.3
12934.3
13185.1
13418.8
13635
13825.8
13982.2
14098.8
14176.6
14200.5
14161.5
13980.8
13791.7
13869.5
42013.2
64927.3
54631.1
41621.7
30874.3
22830.8
17131.7
13234.7
10577.3
8708.15
7349.48
6340.9
5584.41
5010.24
4569.98
4229.3
3964.91
3758.45
3596.79
3469.22
3368.08
3287.38
3222.97
3171.69
3131.3
3100.14
3076.95
3060.79
3050.92
3046.78
3047.92
3054.15
3065.55
3082.31
3104.69
3133.02
3167.6
3208.65
3256.25
3310.44
3371.27
3438.89
3513.56
3595.69
3685.81
3784.66
3893.06
4011.99
4142.45
4285.51
4442.25
4613.72
4800.93
5004.79
5226.22
5466.16
5725.42
6005.6
6307.48
6633.7
6985.11
7369.72
7771.39
8000
8238.64
8491.39
8735.43
8969.07
9190.15
9402.83
9606.84
9803.63
9993.01
10173
10344.6
10503.3
10650.4
10779.6
10890.6
10977
11032
11051.1
11035.4
10974.6
10866.6
10661.4
10468.6
10436.4
25688.4
49777.8
45264.2
35615.7
26909.3
20125.6
15177.6
11717.2
9320.92
7624.34
6391.57
5482
4804.33
4292.58
3900.74
3597.59
3362.36
3178.83
3035.31
2922.31
2832.97
2762
2705.66
2661.16
2626.5
2600.18
2581.07
2568.32
2561.22
2559.22
2561.88
2569.01
2580.71
2597.17
2618.72
2645.74
2678.57
2717.42
2762.4
2813.5
2870.72
2934.17
3004.07
3080.76
3164.74
3256.65
3357.24
3467.35
3587.85
3719.68
3863.7
4020.78
4191.71
4377.15
4577.71
4794.06
5026.6
5276.58
5544.13
5831.38
6138.25
6471.6
6811.54
6996.85
7179.52
7370.77
7555.02
7729.75
7891.79
8043.55
8185.33
8318.06
8442.54
8556.73
8662.33
8754.97
8836.49
8901.52
8950.26
8977.85
8979.68
8952.65
8898.67
8811.94
8692.68
8508.59
8348.47
8296.23
14534.9
36727.3
36894.7
30250.2
23367
17729
13482.9
10436.5
8283.83
6739.52
5611.6
4782.35
4168.46
3707.31
3354.62
3081.7
2870.05
2705.17
2576.46
2475.43
2395.86
2333
2283.45
2244.74
2215.01
2192.93
2177.46
2167.79
2163.26
2163.33
2167.55
2175.74
2188.06
2204.68
2226.1
2252.8
2285.15
2323.37
2367.52
2417.58
2473.49
2535.32
2603.25
2677.62
2758.9
2847.69
2944.71
3050.72
3166.54
3292.96
3430.75
3580.59
3743.12
3918.79
4107.98
4311.14
4528.33
4760.57
5007.48
5270.93
5550.12
5851.33
6153.18
6313.42
6459.93
6607.94
6748.89
6881.25
7002.01
7112.3
7212.84
7303.99
7387.33
7460.72
7526.36
7580.15
7624.27
7654.24
7670.76
7670.38
7649.93
7607.27
7545.09
7460.78
7354.38
7203.74
7078.69
7033.95
7385.86
25585.7
29203.7
25256.8
20048.7
15491
11934.2
9309.22
7405.86
6010.49
4977.78
4217.89
3658.02
3239.24
2918.87
2670.6
2478.24
2328.7
2212.27
2121.23
2049.88
1993.91
1950.22
1916.54
1891.17
1872.9
1860.75
1853.95
1851.88
1853.97
1859.78
1869.16
1882.3
1899.44
1921.38
1948.76
1981.98
2021.24
2066.55
2117.79
2174.88
2237.84
2306.86
2382.29
2464.62
2554.47
2652.55
2759.63
2876.47
3003.82
3142.32
3292.55
3454.99
3629.92
3817.52
4018.07
4231.29
4458.13
4697.72
4951.92
5219.34
5506.21
5790.19
5939.4
6065.3
6185.7
6297.72
6401.6
6495.23
6579.02
6654.09
6720.29
6779.77
6830.2
6874.16
6907.7
6933.21
6946.87
6949.66
6939.05
6912.48
6868.09
6808.5
6732.63
6638.78
6511.68
6404.34
6363.63
3224.31
16371.4
22048.2
20468.6
16825.5
13310
10450.2
8273.34
6644.01
5409.62
4473.07
3778.67
3267.52
2885.65
2592.3
2363.96
2187.2
2050.19
1943.83
1861
1796.46
1746.24
1707.47
1678.06
1656.44
1641.46
1632.22
1627.95
1628.07
1631.96
1639.21
1649.64
1663.56
1681.27
1704.27
1733.44
1769.18
1811.57
1860.5
1915.76
1977.2
2044.84
2118.91
2199.8
2288.09
2384.49
2489.76
2604.69
2730.04
2866.51
3014.67
3174.96
3347.7
3533
3730.78
3941.19
4163.6
4398.95
4645.83
4906.38
5178.61
5469.05
5753.4
5901.93
6018.41
6123.67
6218.84
6305.8
6383.53
6452.04
6512.85
6565.18
6611.49
6649.08
6680.63
6702.2
6716.02
6718.61
6710.58
6689.38
6651.89
6595.37
6520.61
6425.49
6305.15
6151.86
6006.29
5938.1
1131.68
9211.18
15453
15820.3
13645.7
11150.7
9003.42
7310.9
5993.24
4943.72
4111.86
3483.97
3018.51
2668.82
2396.86
2182.6
2016.91
1888.87
1789.56
1712.35
1652.4
1605.99
1570.43
1543.71
1524.41
1511.4
1503.86
1501.04
1502.33
1507.1
1514.91
1525.52
1539.31
1556.88
1581.31
1613.8
1654.52
1703.27
1759.68
1823.41
1894.23
1972.2
2057.62
2151.07
2253.29
2365.14
2487.51
2621.27
2767.19
2925.91
3097.86
3283.29
3482.25
3694.55
3919.73
4157.7
4407.27
4669.46
4941.99
5227.45
5523.01
5835.2
6135.07
6285.99
6396.93
6493.33
6578.36
6654.36
6721.04
6777.67
6825.56
6862.78
6890.96
6906.48
6910.67
6899.22
6872.46
6826.45
6759.15
6666.07
6541.28
6379.63
6178.03
5932.29
5638.28
5302.99
4956.69
4660.78
300.941
4216.22
9595.03
11341.1
10538.3
9067.81
7661.39
6497.65
5538.81
4703.48
3983.89
3422.38
2995.71
2669.5
2408.35
2196.24
2032.38
1906.18
1807.18
1729.22
1668.17
1620.33
1583.06
1554.36
1532.92
1517.68
1507.98
1503.01
1502.22
1504.85
1510.51
1518.56
1529.25
1544.46
1571.11
1610.3
1661.33
1723.22
1795.07
1876.25
1966.49
2065.98
2175.28
2295.31
2427.16
2572
2730.95
2904.98
3094.8
3300.86
3523.21
3761.58
4015.33
4283.51
4564.72
4858.1
5161.17
5474.4
5793.69
6121.28
6452.22
6788.82
7094.74
7216.79
7298.37
7362.87
7411.64
7444.25
7458.85
7451.84
7419.89
7356.89
7257.32
7113.95
6921.31
6674.94
6372.82
6016.51
5610.08
5161.46
4680.94
4181.99
3678.97
3185.82
2715.55
2282.42
1895.66
1564.51
62.0118
1333.73
4631.1
6733.59
6773.01
5987.23
5234.72
4805.55
4536.36
4180.18
3737.19
3371.25
3070.34
2824.54
2601.89
2405.03
2256.43
2144.82
2052.21
1974.77
1911.4
1858.9
1814.93
1777.77
1746.85
1721.67
1702.25
1688.06
1678.71
1673.38
1671.75
1672.36
1673.47
1683.14
1718.38
1776.91
1854.86
1949.14
2057.67
2179.36
2313.95
2462.07
2624.9
2804.06
3001.26
3218.05
3455.56
3714.31
3994
4293.47
4610.52
4941.99
5283.67
5630.33
5975.66
6312.91
6633.02
6927.95
7185.29
7395.11
7541.63
7602.17
7558.67
7285.24
6952.84
6579.54
6166.26
5717.49
5242.21
4751.07
4254.68
3764.03
3288.55
2837.29
2416.96
2033.24
1689.19
1386.49
1124.75
902.306
716.314
563.247
439.091
339.731
261.218
199.965
152.474
115.922
10.7562
250.21
1175.51
1776.95
1257.2
752.167
513.51
432.96
433.36
435.051
346.781
310.894
307.5
322.339
368.734
258.616
242.362
247.473
240.691
243.793
253.867
268.342
287.757
307.215
326.904
349.457
376.71
408.125
441.873
476.846
512.664
549.938
590.303
634.399
681.381
731.22
783.508
838.353
895.754
955.304
1016.55
1079.02
1142.17
1205.41
1267.98
1329.04
1387.62
1442.7
1493.14
1537.76
1575.28
1604.34
1623.52
1631.36
1626.43
1607.34
1572.88
1521.91
1453.99
1368.86
1267.36
1150.05
1025.2
884.87
752.081
631.229
523.47
429.111
347.982
279.44
222.42
175.68
137.841
107.568
83.579
64.7351
50.0285
38.6136
29.7864
22.9783
17.7354
13.701
10.5964
8.20648
6.36568
4.94643
3.84633
2.99178
1.64367
31.1306
136.832
150.475
55.8742
19.5562
13.7794
11.0322
8.75023
10.0316
6.82646
4.60607
5.54557
4.51977
6.48228
3.23508
2.78159
2.89261
2.73585
2.35503
2.41186
2.62986
3.15768
3.53068
3.6259
3.56805
3.68545
4.20176
4.96273
5.73979
6.40071
6.91951
7.29813
7.59747
8.11006
8.69767
9.32025
9.98657
10.7052
11.4677
12.2588
13.0617
13.8602
14.6376
15.3771
16.0614
16.6739
17.1991
17.6232
17.934
18.1215
18.1775
18.0958
17.8716
17.5019
16.9836
16.3155
15.4939
14.522
13.4027
12.1539
10.7999
9.42688
7.98676
6.6654
5.50206
4.50218
3.65778
2.95473
2.37619
1.90441
1.52262
1.2154
0.969382
0.773008
0.616675
0.49239
0.393661
0.315227
0.252878
0.203259
0.163711
0.132134
0.10687
0.086616
0.0703337
0.0571787
0.0465306
0.223234
3.11896
10.7119
7.02079
1.13763
0.285932
0.299525
0.293742
0.0327294
0.0354635
0.0906085
0.0318026
0.0474481
0.0246956
0.0327101
0.0219004
0.0133516
0.0182143
0.0160207
0.0114172
0.0110115
0.0135066
0.0166408
0.0183509
0.0184856
0.0173224
0.0163166
0.0175959
0.0212336
0.025618
0.0291237
0.0310659
0.0309665
0.0313391
0.0329823
0.0351024
0.0374125
0.0399125
0.0426419
0.0455747
0.0486428
0.0517666
0.0548703
0.0578832
0.060739
0.0633755
0.0657354
0.0677669
0.069424
0.0706661
0.0714581
0.0717698
0.0715761
0.070857
0.0695984
0.0677886
0.0654243
0.0625003
0.0590325
0.0550415
0.0505887
0.0457632
0.040801
0.0353427
0.0302748
0.0257223
0.021718
0.018249
0.0152784
0.0127582
0.010635
0.00885629
0.00737219
0.00613778
0.00511303
0.00426344
0.00355936
0.00297584
0.00249192
0.0020902
0.00175626
0.00147825
0.00124638
0.00105264
0.000890439
0.000754306
0.000639656
0.000543126
0.0288496
0.264473
0.669322
0.262374
0.024494
0.00322669
0.00481958
0.00751994
0.000237736
0.000127638
0.00012778
3.6277e-05
0.000232074
4.37674e-05
0.000100255
0.000113583
4.45443e-05
3.46024e-05
2.81885e-05
3.23197e-05
3.74634e-05
4.45301e-05
4.86774e-05
5.24421e-05
5.65385e-05
5.92544e-05
5.92103e-05
6.10843e-05
7.09599e-05
8.5991e-05
9.82219e-05
0.000102741
0.000102067
0.000105241
0.000111593
0.000119445
0.00012791
0.000136819
0.000146222
0.000156075
0.000166215
0.000176427
0.000186485
0.000196181
0.000205322
0.000213736
0.000221274
0.000227804
0.00023321
0.000237392
0.000240256
0.000241714
0.000241686
0.000240098
0.000236889
0.000232007
0.00022543
0.000217146
0.000207209
0.000195697
0.00018279
0.000168739
0.000154076
0.000137306
0.000121501
0.000106957
9.37901e-05
8.20071e-05
7.15552e-05
6.23479e-05
5.42784e-05
4.72346e-05
4.11033e-05
3.57777e-05
3.11577e-05
2.71529e-05
2.36821e-05
2.06737e-05
1.80649e-05
1.58011e-05
1.38349e-05
1.21253e-05
1.06372e-05
9.34032e-06
8.20864e-06
7.21952e-06
6.35346e-06
5.59824e-06
0.00485275
0.0188072
0.033347
0.0109587
0.0010579
5.68552e-05
2.26504e-05
6.16724e-05
4.24875e-06
2.66109e-06
1.37843e-07
1.03539e-07
9.11204e-07
8.71237e-08
1.70192e-07
4.79548e-07
1.34587e-07
8.30153e-08
1.02684e-07
1.02772e-07
1.29657e-07
1.55929e-07
1.71398e-07
1.88575e-07
2.10012e-07
2.34787e-07
2.58221e-07
2.83552e-07
3.24237e-07
3.75765e-07
4.15221e-07
4.2589e-07
4.40094e-07
4.63529e-07
4.9508e-07
5.31191e-07
5.68992e-07
6.07117e-07
6.4516e-07
6.82922e-07
7.20087e-07
7.56191e-07
7.90694e-07
8.23046e-07
8.52719e-07
8.79238e-07
9.02188e-07
9.21219e-07
9.3605e-07
9.46452e-07
9.52247e-07
9.53293e-07
9.49485e-07
9.40751e-07
9.2706e-07
9.08415e-07
8.84897e-07
8.56621e-07
8.23845e-07
7.86871e-07
7.46202e-07
7.02472e-07
6.5679e-07
6.05307e-07
5.55894e-07
5.09169e-07
4.65452e-07
4.24867e-07
3.87416e-07
3.53021e-07
3.2155e-07
2.92838e-07
2.66701e-07
2.42949e-07
2.21387e-07
2.01831e-07
1.84101e-07
1.68031e-07
1.53468e-07
1.4027e-07
1.28306e-07
1.1746e-07
1.07624e-07
9.8703e-08
9.06096e-08
8.3266e-08
7.66038e-08
7.06043e-08
0.00198661
0.00131105
0.00138532
0.000491397
0.000109461
2.04041e-05
4.70318e-06
2.63267e-06
6.14744e-07
2.51727e-07
1.20697e-07
7.72699e-08
7.57967e-08
5.49162e-08
4.53535e-08
4.35037e-08
3.63989e-08
3.21683e-08
3.04056e-08
2.90919e-08
2.81295e-08
2.7446e-08
2.69672e-08
2.66478e-08
2.6383e-08
2.60652e-08
2.56301e-08
2.51052e-08
2.45801e-08
2.40526e-08
2.34061e-08
2.25848e-08
2.18232e-08
2.11463e-08
2.05655e-08
2.00767e-08
1.96681e-08
1.93258e-08
1.90373e-08
1.8792e-08
1.85801e-08
1.83924e-08
1.82205e-08
1.80564e-08
1.78932e-08
1.77249e-08
1.75464e-08
1.73537e-08
1.71439e-08
1.69147e-08
1.66649e-08
1.63937e-08
1.6101e-08
1.57871e-08
1.54526e-08
1.50987e-08
1.47265e-08
1.43377e-08
1.39342e-08
1.35179e-08
1.30915e-08
1.26581e-08
1.22217e-08
1.18009e-08
1.13957e-08
1.10084e-08
1.06403e-08
1.02919e-08
9.96371e-09
9.65565e-09
9.36759e-09
9.09927e-09
8.85027e-09
8.62011e-09
8.40824e-09
8.21411e-09
8.0372e-09
7.87705e-09
7.73324e-09
7.60538e-09
7.49309e-09
7.39609e-09
7.31416e-09
7.24722e-09
7.1954e-09
7.15908e-09
7.13892e-09
7.13647e-09
0.00181883
0.000334193
0.00011174
3.90616e-05
1.38402e-05
5.2181e-06
2.23586e-06
1.13498e-06
6.2275e-07
3.76206e-07
2.46523e-07
1.7301e-07
1.289e-07
1.00094e-07
8.04443e-08
6.64896e-08
5.61353e-08
4.82501e-08
4.21225e-08
3.72434e-08
3.32798e-08
3.00031e-08
2.72578e-08
2.49291e-08
2.29331e-08
2.12039e-08
1.96927e-08
1.8361e-08
1.71806e-08
1.61279e-08
1.51846e-08
1.43362e-08
1.35736e-08
1.28858e-08
1.22637e-08
1.16992e-08
1.11857e-08
1.07171e-08
1.02885e-08
9.89553e-09
9.53428e-09
9.20147e-09
8.8942e-09
8.60993e-09
8.34642e-09
8.10172e-09
7.87408e-09
7.66197e-09
7.46405e-09
7.2791e-09
7.10606e-09
6.94398e-09
6.792e-09
6.64935e-09
6.51536e-09
6.38944e-09
6.271e-09
6.15968e-09
6.05497e-09
5.95664e-09
5.86433e-09
5.77797e-09
5.69721e-09
5.64623e-09
5.59971e-09
5.55759e-09
5.51983e-09
5.48639e-09
5.45728e-09
5.43254e-09
5.41223e-09
5.39638e-09
5.38505e-09
5.37829e-09
5.37613e-09
5.37865e-09
5.38593e-09
5.3981e-09
5.41532e-09
5.43775e-09
5.46558e-09
5.49906e-09
5.53852e-09
5.58445e-09
5.63751e-09
5.69852e-09
5.76853e-09
5.84892e-09
0.00181404
0.000297318
6.88391e-05
2.09894e-05
7.91e-06
3.51243e-06
1.77758e-06
9.9988e-07
6.11897e-07
4.00777e-07
2.77719e-07
2.0152e-07
1.52034e-07
1.18429e-07
9.47952e-08
7.76143e-08
6.47934e-08
5.49863e-08
4.7335e-08
4.12531e-08
3.63444e-08
3.23253e-08
2.89952e-08
2.62047e-08
2.38443e-08
2.18293e-08
2.00964e-08
1.85946e-08
1.72853e-08
1.61365e-08
1.51234e-08
1.42252e-08
1.34254e-08
1.271e-08
1.20676e-08
1.14885e-08
1.09647e-08
1.04893e-08
1.00566e-08
9.66158e-09
9.30009e-09
8.96844e-09
8.66349e-09
8.38248e-09
8.12301e-09
7.88298e-09
7.66054e-09
7.45408e-09
7.26214e-09
7.08345e-09
6.91688e-09
6.76142e-09
6.61618e-09
6.48035e-09
6.35323e-09
6.23419e-09
6.12266e-09
6.01821e-09
5.92038e-09
5.82888e-09
5.74338e-09
5.66371e-09
5.58958e-09
5.54441e-09
5.50345e-09
5.46656e-09
5.43368e-09
5.40478e-09
5.37985e-09
5.35894e-09
5.34208e-09
5.32932e-09
5.3207e-09
5.31628e-09
5.31611e-09
5.32028e-09
5.32889e-09
5.34207e-09
5.35998e-09
5.38278e-09
5.41065e-09
5.44386e-09
5.48273e-09
5.5277e-09
5.57931e-09
5.63831e-09
5.70562e-09
5.7825e-09
0.00181417
0.000296463
6.76969e-05
2.03617e-05
7.63651e-06
3.4069e-06
1.7416e-06
9.90121e-07
6.12484e-07
4.05009e-07
2.82789e-07
2.06298e-07
1.56124e-07
1.21771e-07
9.74591e-08
7.97063e-08
6.64226e-08
5.62483e-08
4.8309e-08
4.20026e-08
3.69198e-08
3.27659e-08
2.93316e-08
2.64606e-08
2.40381e-08
2.19752e-08
2.02053e-08
1.86752e-08
1.73442e-08
1.61788e-08
1.51532e-08
1.42455e-08
1.34386e-08
1.27178e-08
1.20715e-08
1.14895e-08
1.09636e-08
1.04867e-08
1.00531e-08
9.65746e-09
9.29562e-09
8.96383e-09
8.65888e-09
8.37798e-09
8.1187e-09
7.8789e-09
7.65674e-09
7.45056e-09
7.25892e-09
7.08052e-09
6.91424e-09
6.75906e-09
6.61408e-09
6.47851e-09
6.35162e-09
6.2328e-09
6.1215e-09
6.01724e-09
5.91961e-09
5.82826e-09
5.74291e-09
5.66335e-09
5.58928e-09
5.544e-09
5.50288e-09
5.46575e-09
5.43257e-09
5.40329e-09
5.37791e-09
5.35646e-09
5.33896e-09
5.32547e-09
5.31603e-09
5.31068e-09
5.3095e-09
5.31256e-09
5.31997e-09
5.33184e-09
5.34831e-09
5.36952e-09
5.39565e-09
5.42691e-09
5.4636e-09
5.50609e-09
5.55489e-09
5.61064e-09
5.67422e-09
5.74683e-09
0.00181444
0.000296484
6.76816e-05
2.03473e-05
7.62842e-06
3.40328e-06
1.7404e-06
9.90048e-07
6.12888e-07
4.0557e-07
2.83362e-07
2.06815e-07
1.56563e-07
1.22131e-07
9.77464e-08
7.99321e-08
6.65982e-08
5.63839e-08
4.84133e-08
4.20826e-08
3.69812e-08
3.2813e-08
2.9368e-08
2.64887e-08
2.406e-08
2.19924e-08
2.0219e-08
1.86862e-08
1.73531e-08
1.61862e-08
1.51594e-08
1.42509e-08
1.34433e-08
1.2722e-08
1.20753e-08
1.1493e-08
1.09669e-08
1.049e-08
1.00562e-08
9.66051e-09
9.29862e-09
8.96679e-09
8.6618e-09
8.38086e-09
8.12154e-09
7.8817e-09
7.65949e-09
7.45326e-09
7.26156e-09
7.0831e-09
6.91675e-09
6.76149e-09
6.61643e-09
6.48078e-09
6.35381e-09
6.23491e-09
6.12353e-09
6.01919e-09
5.92148e-09
5.83005e-09
5.74461e-09
5.66492e-09
5.5907e-09
5.54519e-09
5.50378e-09
5.46634e-09
5.43279e-09
5.4031e-09
5.37726e-09
5.35529e-09
5.33721e-09
5.32307e-09
5.31291e-09
5.30677e-09
5.30474e-09
5.30688e-09
5.31329e-09
5.32407e-09
5.33934e-09
5.35923e-09
5.38391e-09
5.41356e-09
5.44845e-09
5.48893e-09
5.53545e-09
5.58864e-09
5.64933e-09
5.71866e-09
0.00181473
0.000296523
6.76904e-05
2.03497e-05
7.62922e-06
3.40361e-06
1.74058e-06
9.90167e-07
6.12979e-07
4.05642e-07
2.8342e-07
2.06862e-07
1.566e-07
1.2216e-07
9.77694e-08
7.99501e-08
6.66123e-08
5.63951e-08
4.84223e-08
4.209e-08
3.69873e-08
3.28183e-08
2.93727e-08
2.6493e-08
2.4064e-08
2.19962e-08
2.02226e-08
1.86897e-08
1.73566e-08
1.61896e-08
1.51627e-08
1.42541e-08
1.34465e-08
1.27252e-08
1.20785e-08
1.14962e-08
1.09701e-08
1.04931e-08
1.00593e-08
9.66359e-09
9.30168e-09
8.96983e-09
8.66481e-09
8.38384e-09
8.12447e-09
7.88459e-09
7.66232e-09
7.45602e-09
7.26425e-09
7.08571e-09
6.91928e-09
6.76393e-09
6.61879e-09
6.48304e-09
6.35599e-09
6.237e-09
6.12554e-09
6.02112e-09
5.92334e-09
5.83183e-09
5.7463e-09
5.66649e-09
5.59211e-09
5.54637e-09
5.50471e-09
5.46698e-09
5.43311e-09
5.40307e-09
5.37684e-09
5.35443e-09
5.33587e-09
5.32119e-09
5.31043e-09
5.30365e-09
5.3009e-09
5.30227e-09
5.30785e-09
5.31771e-09
5.33198e-09
5.35077e-09
5.37423e-09
5.40256e-09
5.43599e-09
5.47486e-09
5.5196e-09
5.57081e-09
5.6293e-09
5.69615e-09
0.00181503
0.000296557
6.76977e-05
2.03517e-05
7.62991e-06
3.40387e-06
1.74069e-06
9.90213e-07
6.12995e-07
4.05648e-07
2.83419e-07
2.06859e-07
1.56596e-07
1.22156e-07
9.7766e-08
7.99473e-08
6.66101e-08
5.63936e-08
4.84213e-08
4.20897e-08
3.69876e-08
3.28191e-08
2.93739e-08
2.64947e-08
2.4066e-08
2.19985e-08
2.02252e-08
1.86925e-08
1.73595e-08
1.61927e-08
1.51659e-08
1.42573e-08
1.34497e-08
1.27284e-08
1.20817e-08
1.14994e-08
1.09732e-08
1.04962e-08
1.00624e-08
9.6667e-09
9.30477e-09
8.97289e-09
8.66783e-09
8.38681e-09
8.1274e-09
7.88746e-09
7.66512e-09
7.45876e-09
7.26691e-09
7.08829e-09
6.92177e-09
6.76635e-09
6.62111e-09
6.48528e-09
6.35814e-09
6.23908e-09
6.12754e-09
6.02304e-09
5.92519e-09
5.8336e-09
5.74797e-09
5.66802e-09
5.59347e-09
5.54753e-09
5.50564e-09
5.46765e-09
5.43349e-09
5.40314e-09
5.37656e-09
5.35378e-09
5.33479e-09
5.31964e-09
5.30837e-09
5.30102e-09
5.29767e-09
5.29837e-09
5.30321e-09
5.31228e-09
5.32568e-09
5.34353e-09
5.36597e-09
5.39319e-09
5.42542e-09
5.46298e-09
5.50629e-09
5.55593e-09
5.61268e-09
5.67758e-09
0.00181528
0.000296576
6.76998e-05
2.03518e-05
7.62973e-06
3.40372e-06
1.74055e-06
9.90114e-07
6.12908e-07
4.05584e-07
2.83364e-07
2.06818e-07
1.56562e-07
1.22129e-07
9.77437e-08
7.99297e-08
6.65959e-08
5.63825e-08
4.84127e-08
4.20832e-08
3.69829e-08
3.28159e-08
2.9372e-08
2.64939e-08
2.40661e-08
2.19994e-08
2.02267e-08
1.86945e-08
1.73619e-08
1.61954e-08
1.51688e-08
1.42604e-08
1.34528e-08
1.27316e-08
1.20849e-08
1.15026e-08
1.09765e-08
1.04995e-08
1.00656e-08
9.6699e-09
9.30794e-09
8.97603e-09
8.67093e-09
8.38987e-09
8.13041e-09
7.89041e-09
7.66801e-09
7.46157e-09
7.26964e-09
7.09095e-09
6.92434e-09
6.76883e-09
6.6235e-09
6.48758e-09
6.36035e-09
6.2412e-09
6.12958e-09
6.02501e-09
5.92706e-09
5.83538e-09
5.74964e-09
5.66953e-09
5.59478e-09
5.54865e-09
5.50653e-09
5.4683e-09
5.43388e-09
5.40324e-09
5.37635e-09
5.35322e-09
5.33386e-09
5.31829e-09
5.30655e-09
5.2987e-09
5.29479e-09
5.2949e-09
5.2991e-09
5.30747e-09
5.32011e-09
5.33715e-09
5.35871e-09
5.38499e-09
5.41621e-09
5.45268e-09
5.4948e-09
5.54315e-09
5.59846e-09
5.66176e-09
0.00181553
0.000296599
6.77033e-05
2.03524e-05
7.62981e-06
3.40368e-06
1.74048e-06
9.90052e-07
6.1285e-07
4.05539e-07
2.83326e-07
2.06787e-07
1.56537e-07
1.22109e-07
9.77273e-08
7.99165e-08
6.65853e-08
5.6374e-08
4.84061e-08
4.20781e-08
3.69792e-08
3.28133e-08
2.93704e-08
2.64929e-08
2.40658e-08
2.19996e-08
2.02274e-08
1.86956e-08
1.73633e-08
1.61969e-08
1.51705e-08
1.42622e-08
1.34548e-08
1.27336e-08
1.20869e-08
1.15046e-08
1.09785e-08
1.05015e-08
1.00676e-08
9.67187e-09
9.30989e-09
8.97796e-09
8.67284e-09
8.39174e-09
8.13224e-09
7.89219e-09
7.66974e-09
7.46325e-09
7.27126e-09
7.0925e-09
6.92583e-09
6.77024e-09
6.62485e-09
6.48885e-09
6.36156e-09
6.24233e-09
6.13064e-09
6.026e-09
5.92798e-09
5.83621e-09
5.75034e-09
5.67009e-09
5.59515e-09
5.54884e-09
5.50654e-09
5.4681e-09
5.43347e-09
5.40259e-09
5.37544e-09
5.35202e-09
5.33233e-09
5.31641e-09
5.30429e-09
5.29602e-09
5.29166e-09
5.29128e-09
5.29495e-09
5.30275e-09
5.31479e-09
5.33118e-09
5.35205e-09
5.37759e-09
5.40802e-09
5.44364e-09
5.48485e-09
5.5322e-09
5.58641e-09
5.64849e-09
0.00181584
0.000296651
6.77171e-05
2.0357e-05
7.63173e-06
3.40452e-06
1.74097e-06
9.90307e-07
6.13031e-07
4.05647e-07
2.83411e-07
2.06843e-07
1.56583e-07
1.22142e-07
9.7754e-08
7.99361e-08
6.66014e-08
5.63861e-08
4.84158e-08
4.20854e-08
3.69849e-08
3.28175e-08
2.93735e-08
2.6495e-08
2.40673e-08
2.20004e-08
2.02277e-08
1.86954e-08
1.73629e-08
1.61963e-08
1.51697e-08
1.42613e-08
1.34538e-08
1.27326e-08
1.20859e-08
1.15036e-08
1.09775e-08
1.05005e-08
1.00667e-08
9.67094e-09
9.30898e-09
8.97706e-09
8.67195e-09
8.39086e-09
8.13135e-09
7.89131e-09
7.66885e-09
7.46235e-09
7.27035e-09
7.09157e-09
6.92489e-09
6.76929e-09
6.62388e-09
6.48786e-09
6.36055e-09
6.24131e-09
6.12961e-09
6.02496e-09
5.92692e-09
5.83512e-09
5.74921e-09
5.66888e-09
5.59385e-09
5.54746e-09
5.50507e-09
5.46655e-09
5.43182e-09
5.40084e-09
5.37358e-09
5.35005e-09
5.33024e-09
5.31419e-09
5.30193e-09
5.29351e-09
5.28899e-09
5.28844e-09
5.29193e-09
5.29955e-09
5.31139e-09
5.32758e-09
5.34824e-09
5.37356e-09
5.40376e-09
5.43913e-09
5.48009e-09
5.52716e-09
5.58109e-09
5.64286e-09
0.00181597
0.000296672
6.77229e-05
2.03589e-05
7.63256e-06
3.40487e-06
1.74119e-06
9.90413e-07
6.13114e-07
4.05692e-07
2.8345e-07
2.06867e-07
1.56604e-07
1.22155e-07
9.77659e-08
7.99441e-08
6.66083e-08
5.6391e-08
4.842e-08
4.20884e-08
3.69874e-08
3.28192e-08
2.9375e-08
2.6496e-08
2.40681e-08
2.20007e-08
2.02281e-08
1.86955e-08
1.73629e-08
1.61961e-08
1.51696e-08
1.4261e-08
1.34536e-08
1.27323e-08
1.20856e-08
1.15033e-08
1.09773e-08
1.05003e-08
1.00665e-08
9.67074e-09
9.30879e-09
8.97687e-09
8.67176e-09
8.39067e-09
8.13115e-09
7.8911e-09
7.66863e-09
7.46211e-09
7.2701e-09
7.0913e-09
6.92459e-09
6.76897e-09
6.62354e-09
6.4875e-09
6.36016e-09
6.2409e-09
6.12917e-09
6.02448e-09
5.92641e-09
5.83454e-09
5.74854e-09
5.66812e-09
5.59297e-09
5.54651e-09
5.50403e-09
5.46541e-09
5.43058e-09
5.39949e-09
5.37212e-09
5.34847e-09
5.32853e-09
5.31233e-09
5.29992e-09
5.29134e-09
5.28666e-09
5.28592e-09
5.28923e-09
5.29664e-09
5.30828e-09
5.32424e-09
5.34466e-09
5.36973e-09
5.39966e-09
5.43475e-09
5.47539e-09
5.52214e-09
5.57572e-09
5.63711e-09
0.00181597
0.000296673
6.77232e-05
2.03589e-05
7.63265e-06
3.40487e-06
1.74122e-06
9.90413e-07
6.13128e-07
4.05692e-07
2.83457e-07
2.06867e-07
1.56607e-07
1.22155e-07
9.77675e-08
7.9944e-08
6.66089e-08
5.63907e-08
4.84201e-08
4.2088e-08
3.69872e-08
3.28187e-08
2.93747e-08
2.64954e-08
2.40677e-08
2.20002e-08
2.02277e-08
1.86949e-08
1.73626e-08
1.61956e-08
1.51693e-08
1.42606e-08
1.34533e-08
1.27319e-08
1.20853e-08
1.1503e-08
1.0977e-08
1.05e-08
1.00662e-08
9.67052e-09
9.3086e-09
8.97669e-09
8.67159e-09
8.39051e-09
8.131e-09
7.89095e-09
7.66848e-09
7.46196e-09
7.26994e-09
7.09113e-09
6.92442e-09
6.76878e-09
6.62333e-09
6.48728e-09
6.35992e-09
6.24064e-09
6.12889e-09
6.02417e-09
5.92604e-09
5.83411e-09
5.74804e-09
5.66752e-09
5.59229e-09
5.54576e-09
5.50322e-09
5.46455e-09
5.42966e-09
5.39851e-09
5.37107e-09
5.34734e-09
5.32733e-09
5.31106e-09
5.29856e-09
5.28989e-09
5.28511e-09
5.28428e-09
5.28748e-09
5.29478e-09
5.3063e-09
5.32213e-09
5.34243e-09
5.36736e-09
5.39714e-09
5.43207e-09
5.47255e-09
5.51911e-09
5.57248e-09