/*--------------------------------*- C++ -*----------------------------------*\
| =========                 |                                                 |
| \\      /  F ield         | OpenFOAM: The Open Source CFD Toolbox           |
|  \\    /   O peration     | Version:  5.x                                   |
|   \\  /    A nd           | Web:      www.OpenFOAM.org                      |
|    \\/     M anipulation  |                                                 |
\*---------------------------------------------------------------------------*/
FoamFile
{
    version     2.0;
    format      ascii;
    class       volScalarField;
    location    "100";
    object      k;
}
// * * * * * * * * * * * * * * * * * * * * * * * * * * * * * * * * * * * * * //

dimensions      [0 2 -2 0 0 0 0];

internalField   nonuniform List<scalar> 
20540
(
2.45293e-05
5.52183e-06
2.45293e-05
1.01489e-05
2.45293e-05
1.79477e-05
2.45293e-05
2.80525e-05
2.45293e-05
3.94583e-05
2.45293e-05
5.08422e-05
2.45293e-05
6.0534e-05
2.45294e-05
6.66365e-05
2.45294e-05
6.73393e-05
2.45294e-05
6.14537e-05
2.45294e-05
4.91392e-05
2.45294e-05
3.26661e-05
2.45294e-05
1.67518e-05
2.45294e-05
6.81388e-06
2.45294e-05
3.46147e-06
2.45294e-05
2.80778e-06
2.45294e-05
2.70691e-06
2.45295e-05
2.69128e-06
2.45295e-05
2.68883e-06
2.45295e-05
2.6885e-06
2.45295e-05
2.68852e-06
2.45295e-05
2.68862e-06
2.45295e-05
2.68876e-06
2.45295e-05
2.68893e-06
2.45295e-05
2.68914e-06
2.45295e-05
2.68938e-06
2.45295e-05
2.68965e-06
2.45295e-05
2.68992e-06
2.45295e-05
2.69018e-06
2.45295e-05
2.69042e-06
2.45295e-05
2.69068e-06
2.45295e-05
2.6908e-06
2.45295e-05
2.69082e-06
2.45295e-05
2.69071e-06
2.45295e-05
2.6905e-06
2.45295e-05
2.69031e-06
2.45295e-05
2.69009e-06
2.45295e-05
2.68987e-06
2.45295e-05
2.68964e-06
2.45296e-05
2.68944e-06
2.45296e-05
2.68926e-06
2.45296e-05
2.6891e-06
2.45296e-05
2.68897e-06
2.45296e-05
2.68888e-06
2.45296e-05
2.68882e-06
2.45296e-05
2.68891e-06
2.45295e-05
2.68982e-06
2.45295e-05
2.69558e-06
2.45295e-05
2.73044e-06
2.45295e-05
2.94803e-06
2.45295e-05
4.20824e-06
2.45295e-05
9.32054e-06
2.45295e-05
2.09144e-05
2.45295e-05
3.64438e-05
2.45295e-05
5.0977e-05
2.45294e-05
6.09832e-05
2.45294e-05
6.50097e-05
2.45294e-05
6.32419e-05
2.45294e-05
5.68662e-05
2.45294e-05
4.75012e-05
2.45294e-05
3.67916e-05
2.45294e-05
2.61765e-05
2.45294e-05
1.68067e-05
2.45294e-05
9.58221e-06
2.45293e-05
5.31813e-06
2.94788
2.44352
1.75419
1.21733
0.851859
0.617761
0.470189
0.376333
0.313249
0.267084
0.231783
0.204412
0.183316
0.16703
0.154473
0.144731
0.137164
0.131238
0.126585
0.122892
0.119954
0.117592
0.115695
0.114167
0.112947
0.111983
0.111242
0.110698
0.110334
0.110137
0.110098
0.110214
0.110483
0.11091
0.111497
0.112247
0.113163
0.114249
0.115505
0.116935
0.118544
0.120343
0.122344
0.124562
0.127018
0.129736
0.132744
0.136075
0.139762
0.143841
0.148351
0.153331
0.15882
0.164858
0.171483
0.178734
0.18666
0.195314
0.20478
0.215148
0.226531
0.239205
0.254166
0.26385
0.272966
0.281454
0.289916
0.298668
0.307573
0.316749
0.326012
0.335482
0.345044
0.354823
0.364785
0.374996
0.38554
0.39642
0.407822
0.419876
0.432843
0.446636
0.46131
0.477347
0.495959
0.516169
0.543626
0.549975
14.5631
11.9871
9.24796
6.94831
5.21423
3.99807
3.17397
2.62035
2.23378
1.94348
1.71675
1.53743
1.39668
1.28626
1.19994
1.13218
1.07904
1.03709
1.00394
0.977481
0.956326
0.939253
0.925498
0.914393
0.905514
0.898509
0.893138
0.889226
0.886642
0.885301
0.885131
0.886107
0.888223
0.8915
0.89595
0.901592
0.908447
0.916525
0.925828
0.936371
0.948188
0.96134
0.975903
0.991979
1.0097
1.02922
1.05073
1.07444
1.10054
1.12928
1.16089
1.19559
1.23362
1.27521
1.32057
1.36992
1.42357
1.48183
1.54523
1.61428
1.68968
1.77293
1.87149
1.93717
1.9986
2.05505
2.11133
2.16952
2.22872
2.28941
2.35047
2.41243
2.47462
2.53778
2.60179
2.66723
2.73478
2.80478
2.87845
2.95672
3.04144
3.13249
3.22966
3.33523
3.45587
3.58941
3.75014
3.59757
16.1248
14.4183
11.5114
8.95541
6.96503
5.52174
4.51222
3.81529
3.31828
2.93922
2.63912
2.3988
2.20788
2.05646
1.93692
1.84229
1.76755
1.7082
1.66107
1.62332
1.59303
1.56852
1.54873
1.53272
1.5199
1.50978
1.50201
1.49636
1.49263
1.49071
1.49048
1.49193
1.49503
1.49982
1.50633
1.51458
1.52461
1.53641
1.55
1.56537
1.58256
1.60164
1.62271
1.64589
1.67135
1.6993
1.72998
1.76364
1.80055
1.84101
1.88529
1.93367
1.98641
2.04375
2.10594
2.17318
2.24578
2.32409
2.40866
2.50012
2.59917
2.70787
2.83343
2.91451
2.99279
3.06582
3.13713
3.20974
3.28292
3.35745
3.43199
3.50714
3.58206
3.65737
3.73296
3.80913
3.88663
3.96552
4.04716
4.13228
4.22212
4.31669
4.41676
4.52355
4.6422
4.76268
4.90757
4.60902
15.9603
15.4018
12.5666
9.93929
7.8477
6.30281
5.2049
4.43735
3.88538
3.46258
3.12684
2.85729
2.64249
2.47165
2.33635
2.22896
2.14393
2.0763
2.02254
1.97945
1.94486
1.91688
1.89429
1.87604
1.86144
1.84993
1.84113
1.83475
1.83058
1.82848
1.82832
1.83006
1.83371
1.83929
1.84685
1.85643
1.86806
1.88177
1.89755
1.9154
1.93536
1.9575
1.9819
2.00872
2.03811
2.07031
2.10557
2.14417
2.18639
2.23254
2.28291
2.33778
2.39741
2.46204
2.53186
2.60708
2.68794
2.77478
2.86806
2.96842
3.07646
3.19458
3.32747
3.40963
3.49117
3.56895
3.64366
3.71845
3.79284
3.86797
3.94255
4.01728
4.09127
4.16495
4.23824
4.31106
4.3841
4.45693
4.5307
4.60551
4.68143
4.75811
4.83685
4.91737
5.00137
5.07092
5.15182
4.90945
15.0688
15.7912
13.1713
10.5547
8.41869
6.81309
5.65574
4.83796
4.24614
3.79201
3.43133
3.14189
2.91117
2.72755
2.58189
2.46613
2.37434
2.30128
2.24317
2.1966
2.15924
2.12906
2.10472
2.08511
2.06947
2.0572
2.04789
2.04121
2.03694
2.03491
2.03498
2.0371
2.04127
2.04754
2.05595
2.06656
2.07942
2.09457
2.112
2.13172
2.15375
2.17815
2.20503
2.2345
2.26675
2.302
2.34052
2.38258
2.42847
2.47851
2.53297
2.59212
2.65622
2.72546
2.80002
2.88004
2.96571
3.05732
3.1552
3.25997
3.37205
3.49406
3.6275
3.70565
3.78474
3.86204
3.9354
4.00745
4.07781
4.14795
4.21675
4.28499
4.35187
4.41761
4.4822
4.5452
4.60726
4.66746
4.7267
4.7844
4.83967
4.89163
4.94156
4.9881
5.03058
5.04756
5.06311
4.95298
13.7573
15.812
13.5338
10.9878
8.84147
7.19595
5.99159
5.13089
4.50392
4.02224
3.64005
3.33398
3.09027
2.89642
2.74252
2.62008
2.52289
2.4455
2.38392
2.33461
2.29507
2.26319
2.23754
2.21694
2.2006
2.18788
2.17833
2.17162
2.16748
2.16573
2.16622
2.16887
2.17368
2.18071
2.19003
2.20169
2.21578
2.23234
2.25137
2.27287
2.29685
2.32338
2.35254
2.38445
2.41929
2.45729
2.4987
2.5438
2.59288
2.64622
2.70412
2.76681
2.83452
2.90741
2.98561
3.06921
3.15832
3.25319
3.35399
3.46129
3.57531
3.69878
3.83
3.90227
3.97587
4.04948
4.11878
4.18551
4.24916
4.3114
4.37134
4.42981
4.48618
4.54046
4.5928
4.64243
4.69001
4.73424
4.77581
4.81361
4.84624
4.87232
4.89279
4.90572
4.90971
4.88373
4.84957
4.81125
12.1677
15.5302
13.7192
11.3016
9.17417
7.50486
6.2619
5.36212
4.70165
4.19335
3.79048
3.46874
3.21308
3.00998
2.84867
2.72023
2.61817
2.53687
2.47217
2.4204
2.37893
2.34557
2.3188
2.29742
2.28056
2.26757
2.25798
2.25142
2.24761
2.24634
2.24742
2.25078
2.25641
2.26437
2.27474
2.28762
2.30309
2.32122
2.34201
2.36545
2.39156
2.42036
2.45194
2.48642
2.52397
2.5648
2.60918
2.65736
2.70964
2.76629
2.82757
2.8937
2.96487
3.04119
3.12274
3.20957
3.30167
3.39926
3.50235
3.61143
3.7265
3.85031
3.97833
4.04439
4.11088
4.17853
4.24188
4.30169
4.35715
4.40992
4.45939
4.50634
4.55042
4.59144
4.62972
4.66423
4.6957
4.7226
4.74547
4.76291
4.77337
4.7753
4.76919
4.75293
4.72565
4.66902
4.60359
4.56425
10.3923
14.9534
13.7357
11.5099
9.43267
7.75718
6.48523
5.55094
4.8587
4.32422
3.90072
3.56346
3.29615
3.08418
2.9158
2.78162
2.67489
2.58983
2.52214
2.46804
2.42476
2.39003
2.36226
2.34021
2.32298
2.30989
2.30042
2.29419
2.2909
2.29029
2.29217
2.29642
2.30306
2.31214
2.32378
2.33809
2.35519
2.37516
2.398
2.4237
2.45224
2.48364
2.51797
2.55534
2.59592
2.63991
2.68758
2.73917
2.79497
2.85523
2.92019
2.99004
3.06493
3.14491
3.22999
3.32018
3.41534
3.51566
3.62095
3.73167
3.84754
3.97128
4.09608
4.15637
4.21511
4.27519
4.33112
4.38286
4.42927
4.47177
4.51005
4.54477
4.57591
4.60305
4.62674
4.64574
4.6609
4.67054
4.67518
4.67333
4.6636
4.64447
4.61625
4.5769
4.52646
4.45012
4.36792
4.30218
8.51284
14.0663
13.5618
11.5999
9.60982
7.95046
6.66338
5.70244
4.98232
4.42316
3.97942
3.62677
3.34804
3.12749
2.95226
2.81251
2.70124
2.61253
2.54195
2.4856
2.44061
2.40463
2.376
2.35342
2.33597
2.32294
2.31378
2.30809
2.30552
2.30579
2.30866
2.31402
2.32187
2.3323
2.34544
2.36145
2.38048
2.40263
2.42791
2.45626
2.48766
2.5221
2.55963
2.60036
2.64445
2.69209
2.74355
2.79908
2.85892
2.92334
2.99254
3.06666
3.1458
3.22997
3.31909
3.4131
3.51175
3.61516
3.72295
3.83555
3.95238
4.07607
4.19818
4.25352
4.30454
4.35608
4.40344
4.44621
4.48298
4.51485
4.54175
4.56418
4.58243
4.59592
4.60539
4.60943
4.60904
4.60248
4.59033
4.57116
4.54384
4.50712
4.46134
4.40478
4.33803
4.24965
4.15938
4.07594
6.61557
12.849
13.1569
11.5401
9.6819
8.06767
6.78571
5.81148
5.07134
4.49142
4.02912
3.66194
3.37247
3.14392
2.96229
2.81728
2.70174
2.6096
2.53633
2.47793
2.43142
2.39439
2.36509
2.34222
2.32478
2.31205
2.30345
2.29853
2.29693
2.29832
2.30243
2.30911
2.3184
2.3304
2.34531
2.36333
2.38466
2.4094
2.43757
2.46908
2.50386
2.54189
2.58319
2.62785
2.67604
2.72796
2.78386
2.844
2.9086
2.97791
3.05209
3.13125
3.21543
3.30455
3.39847
3.49702
3.59983
3.70697
3.81782
3.9328
4.05102
4.17497
4.29516
4.34644
4.39018
4.43275
4.47071
4.50373
4.53035
4.55134
4.56684
4.57719
4.58294
4.58335
4.57935
4.56939
4.55459
4.53325
4.506
4.47159
4.42911
4.37762
4.31772
4.24806
4.16921
4.07267
3.9777
3.89018
4.79678
11.2933
12.4683
11.2842
9.61082
8.07841
6.82974
5.86292
5.11651
4.52372
4.04696
3.66769
3.36926
3.13411
2.9471
2.79757
2.67836
2.58333
2.50783
2.44782
2.4002
2.36251
2.33293
2.31012
2.29305
2.28097
2.27327
2.26946
2.26915
2.27194
2.27755
2.28581
2.29678
2.31059
2.32754
2.34792
2.37196
2.3998
2.4314
2.46666
2.50545
2.54771
2.59343
2.64273
2.69574
2.7527
2.81383
2.8794
2.94963
3.02473
3.10482
3.18996
3.28013
3.37515
3.47477
3.57876
3.68656
3.7982
3.91282
4.03079
4.15093
4.27554
4.39453
4.44232
4.4793
4.51276
4.54069
4.56316
4.57897
4.58863
4.59251
4.59073
4.58412
4.57175
4.55472
4.53136
4.50286
4.46759
4.42621
4.37764
4.32114
4.25602
4.18303
4.10124
4.01073
3.90576
3.80457
3.71662
3.16091
9.41888
11.4388
10.7727
9.34464
7.9386
6.76002
5.83015
5.09897
4.50707
4.02397
3.63784
3.33426
3.0954
2.90506
2.75255
2.63094
2.53413
2.4574
2.39663
2.34867
2.31103
2.28182
2.25969
2.24356
2.23265
2.22632
2.22405
2.22541
2.22996
2.23736
2.24743
2.2603
2.27612
2.29538
2.3185
2.34575
2.37725
2.41294
2.45264
2.49616
2.54341
2.59435
2.64909
2.70779
2.77067
2.83797
2.90996
2.98684
3.06877
3.15585
3.24804
3.34524
3.44718
3.55347
3.66378
3.77738
3.89422
4.01315
4.13457
4.25694
4.38227
4.50018
4.54426
4.57437
4.59838
4.61544
4.62622
4.62999
4.62713
4.61826
4.60333
4.58334
4.55723
4.52614
4.48838
4.44504
4.39464
4.33771
4.27332
4.2007
4.11928
4.02973
3.93127
3.82331
3.70322
3.58769
3.49472
1.81142
7.29359
10.0187
9.93619
8.81808
7.58957
6.52621
5.67248
4.98767
4.41847
3.94318
3.56001
3.25849
3.02127
2.83142
2.67876
2.55717
2.46068
2.38452
2.32456
2.27764
2.24125
2.2135
2.19298
2.17861
2.16958
2.16524
2.16502
2.16847
2.1751
2.18455
2.19658
2.21141
2.22926
2.25102
2.27726
2.30828
2.34414
2.38468
2.42965
2.47878
2.53193
2.58904
2.65023
2.71565
2.78554
2.86016
2.93974
3.02445
3.1144
3.2096
3.30992
3.41513
3.52483
3.63847
3.7556
3.87525
3.99732
4.12032
4.24469
4.36846
4.49318
4.60825
4.64644
4.6678
4.68063
4.68479
4.68137
4.67023
4.65171
4.62664
4.5948
4.55724
4.51282
4.46255
4.40481
4.34039
4.26795
4.18765
4.09846
3.99939
3.88974
3.76961
3.63801
3.49387
3.33839
3.18662
3.0689
0.834662
5.05347
8.18479
8.70075
7.95205
6.95572
6.05947
5.33089
4.73501
4.22092
3.77618
3.41269
3.12573
2.89941
2.71662
2.56872
2.45132
2.35884
2.28642
2.22991
2.18631
2.15314
2.1285
2.11095
2.09946
2.09318
2.09149
2.09379
2.09963
2.1085
2.12002
2.13383
2.15025
2.16971
2.19391
2.22366
2.25914
2.30024
2.34666
2.39798
2.45386
2.51409
2.57862
2.64755
2.72106
2.79937
2.88271
2.97126
3.06511
3.16425
3.26852
3.37765
3.49119
3.60855
3.72896
3.85176
3.9757
4.10059
4.22451
4.34791
4.46834
4.58622
4.69102
4.71587
4.72172
4.71714
4.70197
4.67721
4.64307
4.59972
4.54787
4.48712
4.41807
4.33969
4.25234
4.1548
4.04699
3.92787
3.79667
3.65215
3.493
3.31868
3.12913
2.92431
2.70547
2.47923
2.25763
2.05724
0.280333
2.91694
5.96332
6.9831
6.63243
5.91716
5.24463
4.70218
4.25362
3.84248
3.46387
3.1482
2.89726
2.69817
2.53392
2.39967
2.29418
2.21257
2.14972
2.10149
2.06526
2.03868
2.01989
2.00744
2.00038
1.99791
1.99949
2.00456
2.01278
2.0236
2.03675
2.05153
2.06822
2.08791
2.11433
2.14824
2.1894
2.23723
2.29111
2.35043
2.4147
2.48369
2.55733
2.63571
2.719
2.80734
2.90084
2.9995
3.10315
3.21151
3.32407
3.44018
3.559
3.67955
3.80063
3.92122
4.03959
4.15518
4.26558
4.37075
4.46767
4.55371
4.62028
4.60688
4.57397
4.5288
4.47002
4.39709
4.30955
4.20662
4.08728
3.95036
3.79463
3.61956
3.42491
3.21201
2.98254
2.74001
2.48818
2.23191
1.97637
1.72709
1.48894
1.26609
1.06212
0.88058
0.723034
0.588839
0.0695315
1.18434
3.40561
4.50289
4.29001
3.6754
3.1776
2.91743
2.78533
2.63592
2.44749
2.29298
2.17256
2.07632
1.98346
1.90867
1.85558
1.82181
1.80054
1.78753
1.78161
1.78108
1.78413
1.78968
1.79732
1.80657
1.8174
1.82964
1.84343
1.8585
1.87481
1.89145
1.90687
1.92533
1.95537
1.99631
2.04639
2.10409
2.16819
2.23777
2.31223
2.39126
2.47475
2.56266
2.6549
2.75122
2.85113
2.95387
3.05834
3.16314
3.26659
3.3667
3.46126
3.54779
3.62359
3.6859
3.7315
3.7574
3.76007
3.7364
3.68249
3.59107
3.46727
3.26551
3.05146
2.8289
2.59882
2.36382
2.12781
1.89502
1.66911
1.45373
1.25157
1.06517
0.895997
0.745152
0.612765
0.498524
0.401452
0.32023
0.253248
0.198769
0.155001
0.120224
0.0928773
0.0715924
0.055107
0.0423189
0.0142009
0.26948
1.03092
1.29748
0.866662
0.500028
0.324997
0.270491
0.263642
0.241089
0.204221
0.196831
0.183257
0.19316
0.179293
0.167725
0.162874
0.164571
0.165872
0.167963
0.174826
0.186324
0.198576
0.210562
0.222407
0.2343
0.246693
0.260306
0.275502
0.292247
0.310169
0.329128
0.349795
0.371389
0.39341
0.415943
0.438809
0.46205
0.485654
0.509407
0.53305
0.556291
0.578821
0.600293
0.620323
0.638498
0.654397
0.667599
0.67769
0.68427
0.686954
0.685381
0.679219
0.668189
0.652084
0.630769
0.604261
0.572624
0.536248
0.495515
0.45117
0.403712
0.356226
0.303128
0.255249
0.212881
0.175826
0.143818
0.11656
0.0936828
0.0747347
0.0592443
0.046719
0.0366977
0.0287456
0.0224821
0.0175736
0.0137421
0.0107577
0.00843546
0.00662831
0.00522083
0.00412281
0.00326448
0.00259213
0.00206423
0.00164711
0.00131516
0.00251299
0.0381404
0.131779
0.118822
0.041218
0.0129208
0.00490127
0.00343026
0.00435439
0.00330213
0.00221259
0.00267645
0.00189477
0.00264438
0.00202377
0.00189482
0.00168381
0.00165542
0.00157259
0.00154243
0.0015704
0.00172647
0.00179006
0.00186023
0.00198302
0.00212582
0.00218231
0.00212859
0.00207509
0.00208612
0.0021549
0.00226198
0.00238222
0.00253853
0.00279244
0.00308445
0.003399
0.00372876
0.00406839
0.00441255
0.0047571
0.0050982
0.00543187
0.00575354
0.00605807
0.00633981
0.00659289
0.00681131
0.00698903
0.00712005
0.00719849
0.00721872
0.00717568
0.0070653
0.00688513
0.00663442
0.00631563
0.00593278
0.00549499
0.00501209
0.00449867
0.00396858
0.00345314
0.00289596
0.00241164
0.00199768
0.00164715
0.00135264
0.00110706
0.000903753
0.000736452
0.000599548
0.000487974
0.000397376
0.000323967
0.00026458
0.000216545
0.000177676
0.00014618
0.000120608
9.97957e-05
8.28086e-05
6.89e-05
5.74748e-05
4.80589e-05
4.02687e-05
3.37815e-05
2.83625e-05
0.000382313
0.00424504
0.0106762
0.00607572
0.000859445
5.07695e-05
4.51767e-06
3.07982e-06
1.40733e-05
9.41274e-06
2.87209e-06
1.02689e-05
4.9563e-06
1.17634e-05
8.45404e-06
8.0132e-06
7.94425e-06
6.20183e-06
5.42017e-06
6.48913e-06
6.9569e-06
7.34206e-06
6.99612e-06
7.05055e-06
7.75643e-06
8.91149e-06
9.5714e-06
8.95257e-06
7.8756e-06
7.19474e-06
6.99135e-06
7.086e-06
7.17858e-06
7.79131e-06
8.82408e-06
1.00617e-05
1.14276e-05
1.28748e-05
1.4363e-05
1.58587e-05
1.73396e-05
1.879e-05
2.0197e-05
2.15478e-05
2.28288e-05
2.4026e-05
2.51247e-05
2.61097e-05
2.69645e-05
2.76713e-05
2.82104e-05
2.85608e-05
2.87006e-05
2.86086e-05
2.82668e-05
2.76611e-05
2.67875e-05
2.56477e-05
2.42613e-05
2.26536e-05
2.08696e-05
1.89597e-05
1.70243e-05
1.47782e-05
1.27772e-05
1.10147e-05
9.47309e-06
8.13231e-06
6.97239e-06
5.97398e-06
5.11799e-06
4.38665e-06
3.76321e-06
3.23266e-06
2.78141e-06
2.39757e-06
2.07076e-06
1.79209e-06
1.55398e-06
1.35004e-06
1.17492e-06
1.02413e-06
8.93946e-07
7.8125e-07
6.83441e-07
5.98301e-07
5.23892e-07
4.5897e-07
4.65024e-05
0.000389833
0.000683967
0.00022399
1.68693e-05
1.33998e-07
8.48032e-10
9.01996e-10
4.96338e-10
5.50201e-10
7.16351e-10
9.36354e-09
2.99506e-09
1.84038e-08
1.08944e-08
1.15318e-08
1.66695e-08
1.12119e-08
1.01403e-08
1.63512e-08
2.02857e-08
2.05003e-08
1.86077e-08
1.87305e-08
2.1567e-08
2.70637e-08
3.24457e-08
3.26388e-08
2.85626e-08
2.49253e-08
2.33538e-08
2.31599e-08
2.41754e-08
2.71716e-08
3.14574e-08
3.64826e-08
4.19628e-08
4.7698e-08
5.35106e-08
5.9255e-08
6.48348e-08
7.01912e-08
7.52872e-08
8.00944e-08
8.4588e-08
8.87454e-08
9.25459e-08
9.59689e-08
9.89918e-08
1.01587e-07
1.03719e-07
1.05345e-07
1.06413e-07
1.06864e-07
1.06641e-07
1.05685e-07
1.03956e-07
1.01421e-07
9.80889e-08
9.3982e-08
8.91798e-08
8.37896e-08
7.80442e-08
7.1017e-08
6.44745e-08
5.84385e-08
5.29028e-08
4.78496e-08
4.32554e-08
3.90935e-08
3.53334e-08
3.19436e-08
2.88915e-08
2.61457e-08
2.36754e-08
2.14522e-08
1.94497e-08
1.76439e-08
1.60134e-08
1.45394e-08
1.32051e-08
1.19958e-08
1.08986e-08
9.90235e-09
8.99692e-09
8.17328e-09
7.42333e-09
6.74445e-09
3.53926e-06
2.7919e-05
3.53621e-05
7.24133e-06
4.76951e-07
1.84489e-08
1.27776e-10
2.05793e-11
3.20581e-12
1.74899e-12
1.07103e-12
8.89994e-12
3.54158e-12
2.88231e-11
1.39158e-11
1.47232e-11
3.34672e-11
2.20058e-11
1.83198e-11
4.48272e-11
7.20354e-11
7.82699e-11
7.37597e-11
7.56471e-11
8.88549e-11
1.15111e-10
1.47622e-10
1.66747e-10
1.66774e-10
1.61797e-10
1.61604e-10
1.66954e-10
1.82121e-10
2.05057e-10
2.33343e-10
2.64699e-10
2.97461e-10
3.30397e-10
3.62554e-10
3.93237e-10
4.22024e-10
4.48718e-10
4.73264e-10
4.95673e-10
5.15979e-10
5.3422e-10
5.50427e-10
5.6463e-10
5.76849e-10
5.87095e-10
5.95359e-10
6.01612e-10
6.05797e-10
6.07835e-10
6.07627e-10
6.05055e-10
6.0002e-10
5.92411e-10
5.82203e-10
5.69375e-10
5.54044e-10
5.36402e-10
5.16948e-10
4.96104e-10
4.75355e-10
4.54928e-10
4.34972e-10
4.15594e-10
3.9687e-10
3.7886e-10
3.616e-10
3.45112e-10
3.29404e-10
3.14476e-10
3.00319e-10
2.86918e-10
2.74255e-10
2.62311e-10
2.51067e-10
2.40506e-10
2.30607e-10
2.21353e-10
2.12729e-10
2.04719e-10
1.97309e-10
1.90491e-10
1.84258e-10
1.78664e-10
5.69754e-07
1.42444e-06
1.48916e-06
3.01215e-07
3.13417e-08
3.64134e-09
7.15518e-10
2.08967e-10
1.02216e-10
5.88274e-11
4.93285e-11
5.04548e-11
5.27051e-11
5.98453e-11
6.64405e-11
7.16207e-11
7.69392e-11
8.07285e-11
8.27827e-11
8.4527e-11
8.65056e-11
8.85031e-11
9.02459e-11
9.16512e-11
9.27904e-11
9.38223e-11
9.48695e-11
9.58977e-11
9.68186e-11
9.75903e-11
9.82149e-11
9.87111e-11
9.90382e-11
9.91265e-11
9.89371e-11
9.84607e-11
9.77167e-11
9.6743e-11
9.55869e-11
9.42983e-11
9.29248e-11
9.1509e-11
9.00873e-11
8.86891e-11
8.73373e-11
8.60485e-11
8.48336e-11
8.36996e-11
8.26492e-11
8.1683e-11
8.0799e-11
7.99941e-11
7.92641e-11
7.86042e-11
7.80091e-11
7.74745e-11
7.69944e-11
7.65664e-11
7.61846e-11
7.58481e-11
7.55523e-11
7.52985e-11
7.50814e-11
7.50676e-11
7.50868e-11
7.51403e-11
7.52279e-11
7.53503e-11
7.55089e-11
7.57057e-11
7.59434e-11
7.62246e-11
7.6552e-11
7.69285e-11
7.73569e-11
7.784e-11
7.83811e-11
7.89839e-11
7.96523e-11
8.03906e-11
8.12027e-11
8.20929e-11
8.30659e-11
8.41273e-11
8.52837e-11
8.65433e-11
8.79153e-11
8.94112e-11
4.65836e-07
1.51551e-07
8.74132e-08
3.22028e-08
1.05196e-08
4.09359e-09
2.02765e-09
1.21165e-09
8.38892e-10
6.3637e-10
5.13516e-10
4.32826e-10
3.76779e-10
3.36209e-10
3.05659e-10
2.81608e-10
2.62071e-10
2.45666e-10
2.31555e-10
2.19199e-10
2.08271e-10
1.98512e-10
1.89734e-10
1.81775e-10
1.74519e-10
1.67866e-10
1.61746e-10
1.56092e-10
1.50857e-10
1.45993e-10
1.41466e-10
1.37236e-10
1.33268e-10
1.29542e-10
1.26041e-10
1.22749e-10
1.19652e-10
1.16738e-10
1.13997e-10
1.11417e-10
1.08991e-10
1.06708e-10
1.04561e-10
1.02541e-10
1.00641e-10
9.8854e-11
9.71724e-11
9.55903e-11
9.41017e-11
9.27009e-11
9.13828e-11
9.01426e-11
8.89759e-11
8.78786e-11
8.6847e-11
8.58781e-11
8.49685e-11
8.41168e-11
8.33201e-11
8.25781e-11
8.18891e-11
8.12545e-11
8.06725e-11
8.03439e-11
8.00623e-11
7.98285e-11
7.96431e-11
7.95074e-11
7.94228e-11
7.93912e-11
7.94147e-11
7.94953e-11
7.96354e-11
7.98371e-11
8.01024e-11
8.04339e-11
8.08342e-11
8.13061e-11
8.18529e-11
8.24775e-11
8.31827e-11
8.39715e-11
8.48473e-11
8.58139e-11
8.6876e-11
8.80388e-11
8.93091e-11
9.06956e-11
4.63267e-07
1.1524e-07
3.93342e-08
1.66497e-08
8.1819e-09
4.55086e-09
2.81381e-09
1.89611e-09
1.36944e-09
1.04347e-09
8.29334e-10
6.81064e-10
5.74302e-10
4.94562e-10
4.33378e-10
3.85158e-10
3.46394e-10
3.1461e-10
2.8816e-10
2.6583e-10
2.46772e-10
2.30333e-10
2.16039e-10
2.03508e-10
1.92456e-10
1.82645e-10
1.73894e-10
1.66047e-10
1.58984e-10
1.52599e-10
1.46808e-10
1.41537e-10
1.36724e-10
1.32316e-10
1.28269e-10
1.24545e-10
1.21108e-10
1.17931e-10
1.14987e-10
1.12255e-10
1.09714e-10
1.07349e-10
1.05142e-10
1.03082e-10
1.01156e-10
9.93521e-11
9.76619e-11
9.60763e-11
9.45876e-11
9.31889e-11
9.18738e-11
9.06369e-11
8.9473e-11
8.83777e-11
8.7347e-11
8.63778e-11
8.54667e-11
8.4612e-11
8.38113e-11
8.30638e-11
8.23684e-11
8.17255e-11
8.11339e-11
8.0799e-11
8.05089e-11
8.02637e-11
8.00645e-11
7.99126e-11
7.98097e-11
7.97578e-11
7.97591e-11
7.98157e-11
7.99298e-11
8.01036e-11
8.03392e-11
8.06392e-11
8.1006e-11
8.14424e-11
8.19509e-11
8.25342e-11
8.31947e-11
8.39349e-11
8.47578e-11
8.56666e-11
8.66652e-11
8.77584e-11
8.89522e-11
9.02555e-11
4.63273e-07
1.14481e-07
3.8031e-08
1.5959e-08
8.0077e-09
4.59812e-09
2.92507e-09
2.01153e-09
1.46986e-09
1.1257e-09
8.95221e-10
7.3344e-10
6.1585e-10
5.27489e-10
4.59467e-10
4.05823e-10
3.62765e-10
3.27582e-10
2.98447e-10
2.73995e-10
2.53258e-10
2.3549e-10
2.20141e-10
2.06773e-10
1.95054e-10
1.84712e-10
1.75537e-10
1.67353e-10
1.60021e-10
1.53421e-10
1.47459e-10
1.42052e-10
1.37132e-10
1.3264e-10
1.28528e-10
1.24752e-10
1.21275e-10
1.18067e-10
1.15099e-10
1.12349e-10
1.09794e-10
1.07418e-10
1.05204e-10
1.03138e-10
1.01208e-10
9.94011e-11
9.77087e-11
9.61216e-11
9.46317e-11
9.32321e-11
9.19163e-11
9.06787e-11
8.95141e-11
8.84182e-11
8.73868e-11
8.64167e-11
8.55049e-11
8.46491e-11
8.38474e-11
8.30986e-11
8.24018e-11
8.17569e-11
8.1163e-11
8.08241e-11
8.05294e-11
8.02787e-11
8.00731e-11
7.99139e-11
7.98025e-11
7.9741e-11
7.97312e-11
7.97754e-11
7.98755e-11
8.00337e-11
8.02521e-11
8.0533e-11
8.08788e-11
8.12919e-11
8.17745e-11
8.23289e-11
8.29571e-11
8.36616e-11
8.44447e-11
8.53095e-11
8.62593e-11
8.72988e-11
8.84338e-11
8.96729e-11
4.63337e-07
1.14481e-07
3.80083e-08
1.59396e-08
8.0006e-09
4.60072e-09
2.93265e-09
2.02069e-09
1.47877e-09
1.13359e-09
9.01882e-10
7.38913e-10
6.20274e-10
5.31025e-10
4.6227e-10
4.08033e-10
3.64498e-10
3.28938e-10
2.99505e-10
2.7482e-10
2.53902e-10
2.35993e-10
2.20536e-10
2.07083e-10
1.95299e-10
1.84906e-10
1.75692e-10
1.67478e-10
1.60122e-10
1.53504e-10
1.47529e-10
1.42111e-10
1.37183e-10
1.32685e-10
1.28568e-10
1.24788e-10
1.21309e-10
1.18099e-10
1.1513e-10
1.12379e-10
1.09824e-10
1.07448e-10
1.05233e-10
1.03167e-10
1.01236e-10
9.94289e-11
9.77362e-11
9.61486e-11
9.46583e-11
9.32581e-11
9.19417e-11
9.07033e-11
8.9538e-11
8.84411e-11
8.74088e-11
8.64378e-11
8.55249e-11
8.46681e-11
8.38653e-11
8.31152e-11
8.24169e-11
8.17702e-11
8.11739e-11
8.08315e-11
8.05328e-11
8.02775e-11
8.00665e-11
7.99011e-11
7.97827e-11
7.97132e-11
7.96945e-11
7.97283e-11
7.98169e-11
7.99622e-11
8.01664e-11
8.04315e-11
8.07598e-11
8.11533e-11
8.16141e-11
8.21442e-11
8.27455e-11
8.342e-11
8.41701e-11
8.49984e-11
8.59082e-11
8.6904e-11
8.79918e-11
8.91798e-11
4.63408e-07
1.14496e-07
3.80126e-08
1.59411e-08
8.00133e-09
4.6013e-09
2.93325e-09
2.02129e-09
1.47934e-09
1.1341e-09
9.0233e-10
7.39288e-10
6.20581e-10
5.31273e-10
4.62469e-10
4.08191e-10
3.64624e-10
3.29038e-10
2.99585e-10
2.74885e-10
2.53955e-10
2.36038e-10
2.20574e-10
2.07117e-10
1.9533e-10
1.84935e-10
1.7572e-10
1.67505e-10
1.60149e-10
1.53531e-10
1.47555e-10
1.42137e-10
1.37209e-10
1.32711e-10
1.28594e-10
1.24815e-10
1.21336e-10
1.18126e-10
1.15157e-10
1.12406e-10
1.09851e-10
1.07475e-10
1.05261e-10
1.03194e-10
1.01263e-10
9.94562e-11
9.77631e-11
9.61752e-11
9.46844e-11
9.32837e-11
9.19666e-11
9.07275e-11
8.95614e-11
8.84637e-11
8.74306e-11
8.64586e-11
8.55449e-11
8.46872e-11
8.38834e-11
8.31322e-11
8.24326e-11
8.17842e-11
8.11858e-11
8.08404e-11
8.05382e-11
8.02788e-11
8.00632e-11
7.98926e-11
7.97684e-11
7.96922e-11
7.96658e-11
7.9691e-11
7.97699e-11
7.99043e-11
8.00963e-11
8.0348e-11
8.06612e-11
8.1038e-11
8.14801e-11
8.19896e-11
8.25681e-11
8.32176e-11
8.39402e-11
8.47386e-11
8.56161e-11
8.6577e-11
8.76273e-11
8.8775e-11
4.63479e-07
1.14508e-07
3.80163e-08
1.59425e-08
8.00196e-09
4.60162e-09
2.93342e-09
2.02139e-09
1.47939e-09
1.13413e-09
9.02341e-10
7.39292e-10
6.20579e-10
5.31269e-10
4.62463e-10
4.08185e-10
3.64619e-10
3.29035e-10
2.99584e-10
2.74886e-10
2.53959e-10
2.36045e-10
2.20583e-10
2.07128e-10
1.95344e-10
1.84951e-10
1.75738e-10
1.67524e-10
1.6017e-10
1.53553e-10
1.47579e-10
1.42162e-10
1.37234e-10
1.32737e-10
1.28621e-10
1.24841e-10
1.21363e-10
1.18153e-10
1.15185e-10
1.12434e-10
1.09879e-10
1.07503e-10
1.05289e-10
1.03223e-10
1.01291e-10
9.9484e-11
9.77907e-11
9.62023e-11
9.47111e-11
9.33098e-11
9.19922e-11
9.07524e-11
8.95856e-11
8.84871e-11
8.74533e-11
8.64805e-11
8.5566e-11
8.47074e-11
8.39028e-11
8.31506e-11
8.24499e-11
8.17998e-11
8.11992e-11
8.08511e-11
8.05457e-11
8.02828e-11
8.00632e-11
7.98881e-11
7.97587e-11
7.96767e-11
7.96436e-11
7.96614e-11
7.97318e-11
7.98567e-11
8.00381e-11
8.0278e-11
8.05781e-11
8.09403e-11
8.13664e-11
8.18582e-11
8.24173e-11
8.30459e-11
8.37458e-11
8.45199e-11
8.53712e-11
8.63043e-11
8.73248e-11
8.84406e-11
4.63536e-07
1.14513e-07
3.80171e-08
1.59424e-08
8.00171e-09
4.60139e-09
2.93319e-09
2.0212e-09
1.47921e-09
1.13398e-09
9.02193e-10
7.39168e-10
6.20465e-10
5.31173e-10
4.62378e-10
4.08113e-10
3.64557e-10
3.28984e-10
2.99542e-10
2.74853e-10
2.53934e-10
2.36027e-10
2.20572e-10
2.07124e-10
1.95344e-10
1.84957e-10
1.75748e-10
1.67538e-10
1.60187e-10
1.53573e-10
1.47601e-10
1.42185e-10
1.37259e-10
1.32763e-10
1.28648e-10
1.24869e-10
1.21391e-10
1.18182e-10
1.15214e-10
1.12463e-10
1.09909e-10
1.07533e-10
1.05319e-10
1.03253e-10
1.01321e-10
9.95138e-11
9.78202e-11
9.62315e-11
9.47398e-11
9.3338e-11
9.20197e-11
9.07793e-11
8.96117e-11
8.85125e-11
8.74779e-11
8.65043e-11
8.5589e-11
8.47296e-11
8.39241e-11
8.31708e-11
8.24687e-11
8.18168e-11
8.12138e-11
8.08632e-11
8.05549e-11
8.02888e-11
8.00656e-11
7.98863e-11
7.97523e-11
7.9665e-11
7.9626e-11
7.9637e-11
7.96998e-11
7.98163e-11
7.99882e-11
8.02175e-11
8.05061e-11
8.08556e-11
8.12678e-11
8.17444e-11
8.22873e-11
8.28983e-11
8.35795e-11
8.43335e-11
8.51635e-11
8.60738e-11
8.707e-11
8.81598e-11
4.63594e-07
1.14521e-07
3.80186e-08
1.59428e-08
8.00172e-09
4.60131e-09
2.93307e-09
2.02108e-09
1.47908e-09
1.13387e-09
9.02088e-10
7.39077e-10
6.20383e-10
5.31102e-10
4.62316e-10
4.0806e-10
3.64511e-10
3.28945e-10
2.9951e-10
2.74827e-10
2.53914e-10
2.36012e-10
2.20563e-10
2.07118e-10
1.95343e-10
1.84959e-10
1.75754e-10
1.67546e-10
1.60197e-10
1.53585e-10
1.47614e-10
1.422e-10
1.37275e-10
1.3278e-10
1.28665e-10
1.24887e-10
1.21409e-10
1.182e-10
1.15233e-10
1.12482e-10
1.09928e-10
1.07552e-10
1.05338e-10
1.03272e-10
1.0134e-10
9.95325e-11
9.78386e-11
9.62496e-11
9.47575e-11
9.33552e-11
9.20364e-11
9.07954e-11
8.96272e-11
8.85274e-11
8.7492e-11
8.65178e-11
8.56018e-11
8.47416e-11
8.39353e-11
8.3181e-11
8.24776e-11
8.18239e-11
8.12188e-11
8.08661e-11
8.05554e-11
8.02865e-11
8.00603e-11
7.98777e-11
7.97398e-11
7.96482e-11
7.96043e-11
7.96098e-11
7.96664e-11
7.9776e-11
7.99403e-11
8.01612e-11
8.04406e-11
8.07801e-11
8.11815e-11
8.16465e-11
8.21769e-11
8.27746e-11
8.34416e-11
8.41806e-11
8.49947e-11
8.58879e-11
8.6866e-11
8.79364e-11
4.63669e-07
1.14541e-07
3.80262e-08
1.59462e-08
8.00364e-09
4.60238e-09
2.93382e-09
2.02156e-09
1.47947e-09
1.13414e-09
9.02326e-10
7.39253e-10
6.2054e-10
5.31223e-10
4.62423e-10
4.08145e-10
3.64586e-10
3.29005e-10
2.99561e-10
2.74868e-10
2.53948e-10
2.36039e-10
2.20584e-10
2.07133e-10
1.95354e-10
1.84965e-10
1.75757e-10
1.67547e-10
1.60196e-10
1.53581e-10
1.47609e-10
1.42194e-10
1.37269e-10
1.32772e-10
1.28657e-10
1.24879e-10
1.21401e-10
1.18192e-10
1.15224e-10
1.12474e-10
1.0992e-10
1.07544e-10
1.0533e-10
1.03263e-10
1.01331e-10
9.95237e-11
9.78296e-11
9.62404e-11
9.47481e-11
9.33456e-11
9.20266e-11
9.07854e-11
8.9617e-11
8.8517e-11
8.74815e-11
8.65071e-11
8.5591e-11
8.47307e-11
8.39243e-11
8.31698e-11
8.24658e-11
8.18114e-11
8.12053e-11
8.08518e-11
8.05401e-11
8.02702e-11
8.00427e-11
7.98588e-11
7.97195e-11
7.96261e-11
7.95803e-11
7.95836e-11
7.96379e-11
7.97448e-11
7.99062e-11
8.0124e-11
8.03999e-11
8.07356e-11
8.1133e-11
8.15938e-11
8.21197e-11
8.27125e-11
8.33744e-11
8.41079e-11
8.49163e-11
8.58036e-11
8.67754e-11
8.78393e-11
4.63702e-07
1.14549e-07
3.80294e-08
1.59477e-08
8.00447e-09
4.60282e-09
2.93416e-09
2.02176e-09
1.47965e-09
1.13425e-09
9.02436e-10
7.39328e-10
6.20612e-10
5.31274e-10
4.62472e-10
4.08181e-10
3.64619e-10
3.2903e-10
2.99584e-10
2.74885e-10
2.53963e-10
2.3605e-10
2.20593e-10
2.0714e-10
1.9536e-10
1.84969e-10
1.7576e-10
1.67548e-10
1.60197e-10
1.53581e-10
1.47609e-10
1.42193e-10
1.37267e-10
1.32771e-10
1.28656e-10
1.24877e-10
1.214e-10
1.1819e-10
1.15223e-10
1.12472e-10
1.09918e-10
1.07542e-10
1.05328e-10
1.03261e-10
1.0133e-10
9.95217e-11
9.78275e-11
9.62381e-11
9.47457e-11
9.3343e-11
9.20238e-11
9.07824e-11
8.96138e-11
8.85135e-11
8.74778e-11
8.65032e-11
8.55868e-11
8.47263e-11
8.39194e-11
8.31644e-11
8.24597e-11
8.18043e-11
8.1197e-11
8.08426e-11
8.05298e-11
8.02588e-11
8.00301e-11
7.98448e-11
7.97039e-11
7.96089e-11
7.95611e-11
7.95623e-11
7.96142e-11
7.97186e-11
7.98772e-11
8.0092e-11
8.03646e-11
8.06969e-11
8.10905e-11
8.15472e-11