/*--------------------------------*- C++ -*----------------------------------*\
| =========                 |                                                 |
| \\      /  F ield         | OpenFOAM: The Open Source CFD Toolbox           |
|  \\    /   O peration     | Version:  5.x                                   |
|   \\  /    A nd           | Web:      www.OpenFOAM.org                      |
|    \\/     M anipulation  |                                                 |
\*---------------------------------------------------------------------------*/
FoamFile
{
    version     2.0;
    format      ascii;
    class       volScalarField;
    location    "100";
    object      nut;
}
// * * * * * * * * * * * * * * * * * * * * * * * * * * * * * * * * * * * * * //

dimensions      [0 2 -1 0 0 0 0];

internalField   nonuniform List<scalar> 
20540
(
2.10937e-10
2.21468e-11
2.10937e-10
4.52624e-11
2.10937e-10
1.06124e-10
2.10937e-10
2.18523e-10
2.10937e-10
3.95309e-10
2.10937e-10
6.42215e-10
2.10937e-10
9.50037e-10
2.10937e-10
1.28448e-09
2.10937e-10
1.57588e-09
2.10937e-10
1.71556e-09
2.10938e-10
1.57768e-09
2.10938e-10
1.10941e-09
2.10938e-10
5.06489e-10
2.10938e-10
1.47276e-10
2.10938e-10
5.43686e-11
2.10938e-10
3.96482e-11
2.10938e-10
3.75082e-11
2.10938e-10
3.71785e-11
2.10938e-10
3.71263e-11
2.10938e-10
3.7119e-11
2.10938e-10
3.7119e-11
2.10938e-10
3.71203e-11
2.10938e-10
3.71221e-11
2.10939e-10
3.71243e-11
2.10939e-10
3.71271e-11
2.10939e-10
3.71302e-11
2.10939e-10
3.71337e-11
2.10939e-10
3.71372e-11
2.10938e-10
3.71405e-11
2.10938e-10
3.71436e-11
2.10939e-10
3.71471e-11
2.10939e-10
3.71487e-11
2.10939e-10
3.71489e-11
2.10939e-10
3.71474e-11
2.10938e-10
3.71447e-11
2.10939e-10
3.71423e-11
2.10939e-10
3.71396e-11
2.10939e-10
3.71366e-11
2.10939e-10
3.71338e-11
2.10939e-10
3.71311e-11
2.10939e-10
3.71288e-11
2.10939e-10
3.71268e-11
2.10939e-10
3.71251e-11
2.10939e-10
3.71239e-11
2.10939e-10
3.71232e-11
2.10939e-10
3.71255e-11
2.10939e-10
3.7145e-11
2.10939e-10
3.72669e-11
2.10939e-10
3.80026e-11
2.10939e-10
4.26816e-11
2.10939e-10
7.27627e-11
2.10939e-10
2.29139e-10
2.10939e-10
6.63608e-10
2.10938e-10
1.21289e-09
2.10938e-10
1.55905e-09
2.10938e-10
1.61003e-09
2.10938e-10
1.44029e-09
2.10938e-10
1.15863e-09
2.10938e-10
8.52377e-10
2.10937e-10
5.76026e-10
2.10937e-10
3.55762e-10
2.10937e-10
1.97949e-10
2.10937e-10
9.7122e-11
2.10937e-10
4.21225e-11
2.10937e-10
2.09981e-11
1.42383e-06
1.18831e-06
8.61864e-07
6.0294e-07
4.23404e-07
3.06809e-07
2.32625e-07
1.85188e-07
1.53301e-07
1.30094e-07
1.12461e-07
9.88571e-08
8.84038e-08
8.03491e-08
7.41449e-08
6.93337e-08
6.55981e-08
6.26731e-08
6.03775e-08
5.85553e-08
5.71052e-08
5.59396e-08
5.50036e-08
5.42504e-08
5.36499e-08
5.31779e-08
5.28175e-08
5.25566e-08
5.23862e-08
5.23001e-08
5.22936e-08
5.23648e-08
5.25133e-08
5.27405e-08
5.30475e-08
5.34356e-08
5.39068e-08
5.44619e-08
5.51017e-08
5.58274e-08
5.66421e-08
5.75501e-08
5.85575e-08
5.9672e-08
6.09033e-08
6.22637e-08
6.37669e-08
6.54285e-08
6.7265e-08
6.92943e-08
7.1535e-08
7.40065e-08
7.67279e-08
7.97191e-08
8.29993e-08
8.65888e-08
9.05133e-08
9.48015e-08
9.94959e-08
1.04643e-07
1.10296e-07
1.16592e-07
1.24027e-07
1.28893e-07
1.33497e-07
1.37796e-07
1.42081e-07
1.46496e-07
1.50979e-07
1.55574e-07
1.60203e-07
1.64905e-07
1.69642e-07
1.74453e-07
1.7935e-07
1.84352e-07
1.89532e-07
1.94886e-07
2.00526e-07
2.06507e-07
2.12958e-07
2.19835e-07
2.27167e-07
2.35158e-07
2.44363e-07
2.54187e-07
2.66318e-07
2.61337e-07
3.02481e-05
3.12966e-05
2.72866e-05
2.30151e-05
1.94076e-05
1.66032e-05
1.44972e-05
1.29367e-05
1.17373e-05
1.07511e-05
9.91784e-06
9.21585e-06
8.6344e-06
8.15728e-06
7.76933e-06
7.45472e-06
7.20108e-06
6.99645e-06
6.83187e-06
6.69878e-06
6.59128e-06
6.50396e-06
6.43329e-06
6.37619e-06
6.33061e-06
6.29487e-06
6.26779e-06
6.24849e-06
6.23631e-06
6.23077e-06
6.23148e-06
6.23825e-06
6.25101e-06
6.26985e-06
6.29481e-06
6.32599e-06
6.36347e-06
6.40729e-06
6.4574e-06
6.51379e-06
6.57652e-06
6.64576e-06
6.72173e-06
6.80477e-06
6.8953e-06
6.99385e-06
7.101e-06
7.21736e-06
7.34353e-06
7.4801e-06
7.6276e-06
7.78646e-06
7.957e-06
8.13934e-06
8.33342e-06
8.53908e-06
8.75607e-06
8.98439e-06
9.22398e-06
9.47537e-06
9.73866e-06
1.00207e-05
1.03158e-05
1.04652e-05
1.06123e-05
1.07583e-05
1.08944e-05
1.10255e-05
1.11501e-05
1.12736e-05
1.13931e-05
1.15125e-05
1.16297e-05
1.17463e-05
1.18617e-05
1.19748e-05
1.20859e-05
1.21925e-05
1.22961e-05
1.23963e-05
1.24914e-05
1.25792e-05
1.26659e-05
1.27555e-05
1.28569e-05
1.29233e-05
1.31059e-05
1.27808e-05
5.4007e-05
6.23246e-05
5.71868e-05
5.03875e-05
4.44374e-05
3.97615e-05
3.62272e-05
3.35925e-05
3.15314e-05
2.97868e-05
2.82715e-05
2.6973e-05
2.58827e-05
2.49792e-05
2.42362e-05
2.36282e-05
2.31334e-05
2.27321e-05
2.24078e-05
2.21458e-05
2.19346e-05
2.17642e-05
2.16275e-05
2.15185e-05
2.14328e-05
2.1367e-05
2.13184e-05
2.12853e-05
2.12661e-05
2.12596e-05
2.12651e-05
2.12819e-05
2.13097e-05
2.13489e-05
2.13997e-05
2.14624e-05
2.15376e-05
2.16255e-05
2.17262e-05
2.18399e-05
2.19665e-05
2.21063e-05
2.22597e-05
2.24271e-05
2.2609e-05
2.28062e-05
2.30193e-05
2.32491e-05
2.34962e-05
2.37612e-05
2.40446e-05
2.43464e-05
2.46665e-05
2.50041e-05
2.53579e-05
2.5726e-05
2.6106e-05
2.64964e-05
2.68938e-05
2.72983e-05
2.77072e-05
2.8139e-05
2.85104e-05
2.85703e-05
2.86557e-05
2.87847e-05
2.88906e-05
2.89729e-05
2.90294e-05
2.9078e-05
2.91157e-05
2.91538e-05
2.91886e-05
2.92228e-05
2.92547e-05
2.92792e-05
2.92953e-05
2.92927e-05
2.92724e-05
2.92281e-05
2.91477e-05
2.90226e-05
2.88702e-05
2.86949e-05
2.84961e-05
2.81457e-05
2.7927e-05
2.76379e-05
7.60166e-05
9.439e-05
8.92869e-05
8.01268e-05
7.17393e-05
6.50641e-05
5.99912e-05
5.61984e-05
5.32083e-05
5.06506e-05
4.84151e-05
4.65014e-05
4.48996e-05
4.35768e-05
4.24904e-05
4.16021e-05
4.08791e-05
4.02933e-05
3.98207e-05
3.94403e-05
3.91351e-05
3.88912e-05
3.86977e-05
3.85461e-05
3.84295e-05
3.83431e-05
3.82827e-05
3.82454e-05
3.82287e-05
3.82308e-05
3.825e-05
3.82852e-05
3.83357e-05
3.84019e-05
3.84844e-05
3.85836e-05
3.87006e-05
3.8836e-05
3.89903e-05
3.91637e-05
3.93564e-05
3.95688e-05
3.98013e-05
4.00545e-05
4.0329e-05
4.06257e-05
4.09452e-05
4.12883e-05
4.16554e-05
4.20471e-05
4.24636e-05
4.29045e-05
4.33692e-05
4.38554e-05
4.43606e-05
4.48814e-05
4.54125e-05
4.59513e-05
4.64905e-05
4.70292e-05
4.7561e-05
4.81153e-05
4.85261e-05
4.84509e-05
4.83971e-05
4.84322e-05
4.84449e-05
4.8417e-05
4.8338e-05
4.82369e-05
4.81115e-05
4.79807e-05
4.78415e-05
4.76983e-05
4.75505e-05
4.73903e-05
4.72177e-05
4.70157e-05
4.67853e-05
4.65136e-05
4.61797e-05
4.57632e-05
4.52837e-05
4.47472e-05
4.4148e-05
4.32995e-05
4.24887e-05
4.25535e-05
9.63763e-05
0.000127753
0.000124216
0.000112975
0.000102024
9.31432e-05
8.63273e-05
8.11933e-05
7.71052e-05
7.3575e-05
7.04759e-05
6.78277e-05
6.56189e-05
6.38013e-05
6.23108e-05
6.10927e-05
6.01012e-05
5.92981e-05
5.86509e-05
5.8131e-05
5.77152e-05
5.73849e-05
5.7125e-05
5.69242e-05
5.67732e-05
5.66654e-05
5.6595e-05
5.65581e-05
5.65509e-05
5.65707e-05
5.66148e-05
5.66813e-05
5.67692e-05
5.68788e-05
5.70106e-05
5.71658e-05
5.73454e-05
5.75509e-05
5.77829e-05
5.80414e-05
5.83267e-05
5.86392e-05
5.89795e-05
5.93482e-05
5.97461e-05
6.0174e-05
6.06325e-05
6.11224e-05
6.16439e-05
6.21973e-05
6.27822e-05
6.33977e-05
6.40422e-05
6.47119e-05
6.54026e-05
6.61089e-05
6.68228e-05
6.75403e-05
6.82501e-05
6.89501e-05
6.96292e-05
7.03267e-05
7.0804e-05
7.0601e-05
7.037e-05
7.02538e-05
7.01282e-05
6.99509e-05
6.9695e-05
6.9395e-05
6.90495e-05
6.86839e-05
6.8298e-05
6.78975e-05
6.74858e-05
6.70528e-05
6.66033e-05
6.61155e-05
6.55923e-05
6.50165e-05
6.43634e-05
6.36e-05
6.27394e-05
6.17913e-05
6.07593e-05
5.94362e-05
5.80367e-05
5.78374e-05
0.000114543
0.000161946
0.000161935
0.00014911
0.000135535
0.000124269
0.000115531
0.000108897
0.00010356
9.88997e-05
9.47835e-05
9.12645e-05
8.83363e-05
8.59327e-05
8.3964e-05
8.2355e-05
8.10454e-05
7.99845e-05
7.91301e-05
7.84447e-05
7.78979e-05
7.74652e-05
7.71269e-05
7.68688e-05
7.66785e-05
7.6548e-05
7.64695e-05
7.64379e-05
7.64483e-05
7.64966e-05
7.65789e-05
7.66924e-05
7.68356e-05
7.70088e-05
7.7213e-05
7.74495e-05
7.77202e-05
7.80268e-05
7.837e-05
7.87497e-05
7.91657e-05
7.96182e-05
8.01077e-05
8.06349e-05
8.12005e-05
8.18054e-05
8.24502e-05
8.31353e-05
8.38606e-05
8.4626e-05
8.54304e-05
8.62717e-05
8.71471e-05
8.80507e-05
8.89758e-05
8.99148e-05
9.08566e-05
9.17956e-05
9.27163e-05
9.36155e-05
9.44759e-05
9.53472e-05
9.59345e-05
9.56262e-05
9.51945e-05
9.48706e-05
9.45546e-05
9.41851e-05
9.37123e-05
9.3169e-05
9.25537e-05
9.18949e-05
9.11974e-05
9.04668e-05
8.97127e-05
8.89223e-05
8.81088e-05
8.7247e-05
8.63454e-05
8.53851e-05
8.43445e-05
8.31809e-05
8.18979e-05
8.05086e-05
7.90399e-05
7.72976e-05
7.53978e-05
7.40681e-05
0.000129631
0.000196021
0.000201955
0.00018833
0.000172182
0.00015841
0.000147628
0.0001394
0.000132719
0.00012681
0.000121541
0.000117021
0.000113262
0.00011018
0.000107658
0.000105597
0.000103919
0.000102559
0.000101464
0.000100588
9.98898e-05
9.93397e-05
9.89125e-05
9.85904e-05
9.83581e-05
9.82057e-05
9.81233e-05
9.81048e-05
9.81435e-05
9.82339e-05
9.83708e-05
9.85502e-05
9.87701e-05
9.9031e-05
9.93345e-05
9.96829e-05
0.000100079
0.000100524
0.00010102
0.000101565
0.000102159
0.000102801
0.000103491
0.00010423
0.000105018
0.000105857
0.000106746
0.000107685
0.000108675
0.000109714
0.0001108
0.000111929
0.000113097
0.000114295
0.000115514
0.000116742
0.000117964
0.000119174
0.000120351
0.00012149
0.000122568
0.000123645
0.00012439
0.000124002
0.000123361
0.000122777
0.00012221
0.000121595
0.000120859
0.000120026
0.000119093
0.000118088
0.000117021
0.000115896
0.000114729
0.000113505
0.000112247
0.000110927
0.000109564
0.000108138
0.000106638
0.000105017
0.000103273
0.000101419
9.95112e-05
9.73835e-05
9.50545e-05
9.22342e-05
0.000140488
0.00022854
0.000243317
0.000230046
0.000211539
0.00019522
0.000182344
0.000172506
0.000164469
0.00015726
0.000150749
0.000145123
0.000140437
0.000136598
0.000133457
0.000130887
0.000128796
0.0001271
0.000125737
0.000124647
0.000123781
0.000123102
0.000122579
0.00012219
0.000121917
0.000121748
0.000121671
0.000121677
0.00012176
0.00012191
0.000122122
0.00012239
0.000122712
0.000123089
0.000123522
0.000124018
0.000124578
0.000125205
0.000125902
0.000126663
0.000127489
0.000128377
0.000129325
0.000130336
0.000131408
0.000132542
0.000133739
0.000134999
0.000136319
0.000137698
0.000139133
0.000140616
0.000142142
0.000143698
0.00014527
0.000146845
0.000148401
0.00014993
0.000151405
0.000152821
0.000154147
0.00015545
0.000156391
0.000155939
0.000155091
0.000154206
0.000153324
0.000152397
0.000151338
0.000150159
0.000148855
0.000147449
0.000145956
0.000144374
0.000142731
0.000141002
0.000139223
0.000137365
0.000135456
0.000133481
0.000131438
0.000129285
0.000127017
0.000124651
0.000122255
0.000119693
0.000116893
0.000112764
0.000145754
0.000257506
0.000284481
0.000273175
0.000252749
0.000233949
0.000219001
0.000207618
0.000198311
0.000189843
0.000182071
0.000175286
0.000169614
0.000164964
0.000161158
0.000158043
0.000155507
0.000153452
0.000151801
0.000150483
0.000149442
0.000148629
0.00014801
0.000147559
0.000147254
0.000147079
0.000147022
0.000147072
0.000147219
0.000147453
0.000147766
0.000148149
0.000148602
0.000149124
0.000149722
0.000150401
0.000151167
0.000152023
0.000152969
0.000154
0.000155112
0.000156301
0.000157567
0.000158907
0.000160322
0.000161812
0.000163377
0.000165016
0.000166727
0.000168505
0.000170346
0.000172241
0.000174179
0.000176144
0.000178118
0.000180082
0.00018201
0.000183889
0.000185685
0.000187394
0.000188974
0.000190498
0.000191637
0.000191102
0.000190044
0.000188829
0.000187567
0.000186247
0.000184785
0.000183183
0.000181435
0.000179554
0.000177563
0.00017545
0.000173251
0.000170933
0.000168544
0.00016605
0.00016349
0.000160852
0.000158143
0.000155328
0.000152406
0.000149388
0.000146335
0.000143136
0.000139645
0.000134512
0.000143964
0.00028026
0.000323154
0.000315963
0.000294358
0.000273278
0.000256356
0.000243561
0.000233155
0.000223575
0.000214619
0.0002067
0.000200041
0.000194572
0.000190092
0.000186426
0.000183442
0.000181024
0.000179087
0.000177545
0.000176333
0.000175398
0.000174695
0.000174197
0.000173877
0.000173719
0.000173705
0.000173824
0.000174063
0.000174409
0.000174851
0.00017538
0.000175993
0.000176692
0.000177487
0.000178385
0.000179393
0.000180517
0.000181754
0.000183097
0.000184538
0.000186073
0.000187697
0.000189409
0.000191207
0.000193091
0.000195061
0.000197114
0.000199247
0.000201454
0.000203727
0.000206054
0.000208422
0.00021081
0.000213194
0.00021555
0.000217844
0.00022006
0.000222154
0.000224124
0.000225912
0.000227589
0.00022886
0.00022815
0.000226843
0.000225263
0.00022355
0.000221736
0.000219758
0.000217615
0.000215304
0.00021283
0.000210219
0.000207451
0.000204564
0.00020152
0.00019837
0.000195079
0.000191692
0.000188195
0.000184599
0.000180876
0.000177027
0.000173048
0.00016897
0.000164724
0.000160145
0.00015414
0.000133765
0.000293432
0.000356048
0.00035569
0.000334022
0.000311046
0.000292336
0.00027831
0.000267038
0.000256578
0.00024662
0.000237685
0.000230117
0.000223886
0.000218778
0.0002146
0.000211205
0.00020846
0.000206268
0.000204534
0.000203184
0.000202157
0.000201403
0.00020089
0.000200589
0.00020048
0.000200544
0.000200764
0.000201128
0.000201618
0.00020222
0.000202922
0.000203722
0.000204624
0.000205639
0.000206776
0.000208046
0.000209454
0.000210997
0.000212664
0.000214446
0.000216333
0.000218319
0.000220401
0.000222576
0.000224843
0.000227201
0.000229645
0.00023217
0.00023477
0.000237433
0.000240145
0.000242887
0.000245635
0.00024836
0.000251032
0.000253607
0.000256067
0.000258355
0.000260466
0.000262329
0.000263989
0.000265205
0.000264127
0.000262451
0.000260421
0.000258147
0.000255694
0.000253029
0.000250157
0.000247087
0.000243815
0.00024037
0.000236723
0.000232914
0.000228895
0.000224717
0.000220344
0.000215815
0.000211116
0.000206251
0.000201203
0.000195963
0.000190503
0.000184823
0.000178941
0.000172789
0.000165941
0.000114309
0.000292993
0.000378602
0.000388264
0.00036804
0.000343768
0.000323563
0.000308534
0.000296651
0.000285585
0.000274872
0.000265124
0.000256809
0.000249946
0.000244317
0.000239727
0.000236014
0.000233025
0.000230659
0.000228808
0.000227391
0.00022634
0.000225599
0.000225132
0.000224905
0.000224896
0.000225084
0.00022545
0.000225976
0.000226646
0.000227441
0.000228341
0.00022935
0.000230473
0.000231713
0.000233083
0.000234596
0.000236259
0.00023807
0.000240017
0.000242085
0.000244264
0.000246543
0.000248918
0.000251384
0.000253936
0.000256572
0.000259286
0.000262071
0.000264919
0.000267817
0.000270749
0.000273693
0.000276622
0.0002795
0.000282292
0.000284948
0.000287438
0.000289694
0.000291705
0.000293383
0.000294715
0.000295545
0.000293792
0.000291519
0.000288853
0.000285825
0.000282502
0.000278883
0.000274991
0.000270847
0.000266448
0.000261821
0.000256936
0.000251822
0.000246435
0.00024081
0.000234916
0.000228778
0.000222375
0.000215708
0.000208768
0.000201538
0.000193971
0.000186058
0.00017796
0.000169829
0.000162172
8.59921e-05
0.00027457
0.000384687
0.000407575
0.000390515
0.00036569
0.000344393
0.000328641
0.00031639
0.000304953
0.000293728
0.000283413
0.000274581
0.000267295
0.000261325
0.000256498
0.00025263
0.000249558
0.000247174
0.000245352
0.000244011
0.000243072
0.000242473
0.000242169
0.000242125
0.000242314
0.000242712
0.000243299
0.000244057
0.000244966
0.000246007
0.00024715
0.000248402
0.000249771
0.000251232
0.000252797
0.000254484
0.000256311
0.000258279
0.000260378
0.000262594
0.00026491
0.000267315
0.000269799
0.000272352
0.000274967
0.000277639
0.000280361
0.000283126
0.000285926
0.000288748
0.000291577
0.00029439
0.000297159
0.000299844
0.000302405
0.000304781
0.000306934
0.000308784
0.000310304
0.000311387
0.000311926
0.000311892
0.000309103
0.000305914
0.000302311
0.000298213
0.000293672
0.000288717
0.00028339
0.000277726
0.000271734
0.000265436
0.000258816
0.000251887
0.000244621
0.000237029
0.000229096
0.000220819
0.000212184
0.000203188
0.000193847
0.000184146
0.000174052
0.000163597
0.000153082
0.00014286
0.000134022
5.2018e-05
0.000234273
0.000366318
0.000404348
0.000391579
0.00036664
0.000344602
0.000328462
0.000316109
0.000304521
0.000293038
0.000282472
0.000273506
0.000266168
0.000260178
0.000255456
0.000251752
0.000248915
0.000246843
0.000245381
0.000244436
0.000243926
0.000243773
0.00024392
0.000244327
0.000244958
0.000245787
0.000246791
0.000247958
0.000249266
0.000250697
0.000252206
0.000253811
0.000255508
0.000257204
0.000258906
0.000260658
0.000262495
0.000264437
0.00026648
0.000268611
0.000270813
0.000273066
0.000275353
0.000277661
0.000279976
0.000282289
0.000284594
0.000286886
0.000289159
0.000291406
0.000293614
0.000295763
0.000297825
0.000299761
0.000301524
0.00030305
0.000304286
0.000305146
0.000305582
0.000305474
0.000304587
0.000303091
0.000298955
0.000294501
0.000289565
0.000283988
0.000277795
0.000271038
0.000263778
0.000256056
0.000247909
0.000239355
0.000230419
0.000221102
0.000211425
0.000201376
0.000190975
0.000180206
0.000169077
0.000157612
0.000145879
0.000133922
0.00012181
0.000109698
9.79417e-05
8.68904e-05
7.67305e-05
2.2066e-05
0.000170526
0.000313175
0.000363329
0.00035272
0.000326272
0.000303374
0.000287541
0.000276032
0.000265253
0.000254491
0.00024471
0.000236773
0.000230443
0.00022528
0.000221555
0.000218829
0.000217014
0.000216083
0.000215804
0.000216055
0.000216747
0.000217778
0.000219073
0.000220579
0.000222242
0.000224027
0.000225908
0.000227884
0.00022994
0.000232065
0.000234197
0.000236359
0.000238509
0.000240434
0.000242169
0.000243809
0.000245436
0.000247098
0.000248806
0.000250549
0.000252306
0.000254048
0.000255748
0.00025738
0.000258926
0.00026037
0.000261704
0.000262924
0.000264026
0.000265007
0.000265857
0.000266558
0.000267084
0.000267395
0.000267444
0.000267167
0.000266501
0.000265373
0.00026371
0.000261402
0.000258103
0.000254247
0.0002485
0.000242224
0.000235384
0.000227804
0.000219466
0.000210401
0.00020066
0.000190251
0.000179241
0.000167656
0.000155617
0.000143208
0.000130606
0.00011795
0.000105443
9.32503e-05
8.15526e-05
7.05117e-05
6.02705e-05
5.09198e-05
4.25176e-05
3.51033e-05
2.87078e-05
2.33031e-05
1.87272e-05
6.58789e-06
8.88662e-05
0.000211623
0.000254445
0.000229611
0.000190651
0.00016299
0.000149663
0.000144511
0.000140452
0.000135442
0.000131785
0.000129901
0.000128973
0.000127765
0.000127997
0.000128942
0.000130759
0.000133487
0.000136724
0.000140324
0.0001442
0.000148201
0.000152242
0.000156261
0.000160183
0.000163958
0.000167572
0.000171055
0.000174417
0.000177664
0.000180765
0.000183604
0.0001861
0.000188017
0.000189515
0.000190776
0.000191931
0.000193053
0.00019416
0.000195238
0.000196251
0.000197154
0.000197902
0.000198449
0.000198753
0.000198781
0.0001985
0.000197888
0.000196918
0.000195567
0.000193804
0.000191597
0.000188902
0.000185673
0.000181851
0.000177384
0.000172197
0.000166267
0.000159521
0.000151941
0.00014334
0.000134396
0.000123685
0.000113164
0.000102777
9.25523e-05
8.25808e-05
7.29808e-05
6.38694e-05
5.533e-05
4.74426e-05
4.02497e-05
3.37902e-05
2.80672e-05
2.30759e-05
1.87831e-05
1.51465e-05
1.21079e-05
9.60344e-06
7.56561e-06
5.92728e-06
4.62349e-06
3.59506e-06
2.79044e-06
2.16589e-06
1.68296e-06
1.30545e-06
1.58426e-06
2.45247e-05
7.63974e-05
8.00543e-05
5.04839e-05
2.80887e-05
1.73806e-05
1.42796e-05
1.35531e-05
1.12894e-05
1.01625e-05
1.05301e-05
9.2285e-06
9.78085e-06
7.36669e-06
9.19174e-06
9.24901e-06
9.24771e-06
9.65924e-06
9.77831e-06
1.01733e-05
1.09322e-05
1.15793e-05
1.21948e-05
1.2786e-05
1.32741e-05
1.36509e-05
1.40292e-05
1.45147e-05
1.51349e-05
1.5857e-05
1.66446e-05
1.75149e-05
1.83718e-05
1.91937e-05
1.99929e-05
2.07665e-05
2.15183e-05
2.22496e-05
2.29533e-05
2.3619e-05
2.42344e-05
2.47864e-05
2.5261e-05
2.56436e-05
2.59202e-05
2.60776e-05
2.61043e-05
2.59907e-05
2.5729e-05
2.53137e-05
2.47414e-05
2.40116e-05
2.31263e-05
2.20917e-05
2.09165e-05
1.9616e-05
1.82057e-05
1.67119e-05
1.51569e-05
1.35717e-05
1.19752e-05
1.04592e-05
8.77463e-06
7.32014e-06
6.06659e-06
4.99034e-06
4.073e-06
3.29913e-06
2.65392e-06
2.12191e-06
1.68821e-06
1.33803e-06
1.05792e-06
8.35416e-07
6.59769e-07
5.21626e-07
4.1326e-07
3.28305e-07
2.61671e-07
2.09325e-07
1.68107e-07
1.35546e-07
1.09731e-07
8.91922e-08
7.27918e-08
5.96012e-08
4.88522e-08
3.24657e-07
3.94858e-06
1.07241e-05
7.92846e-06
2.56932e-06
7.21362e-07
1.47315e-07
9.01263e-08
1.83101e-07
9.18489e-08
6.05984e-08
1.31415e-07
5.47047e-08
1.30734e-07
5.33891e-08
9.37799e-08
8.61291e-08
8.00535e-08
7.63828e-08
8.53637e-08
8.64027e-08
9.57734e-08
8.57485e-08
8.28193e-08
9.16423e-08
1.07023e-07
1.09194e-07
9.1119e-08
7.33177e-08
6.40677e-08
6.13029e-08
6.24827e-08
6.57067e-08
7.16723e-08
8.12454e-08
9.2429e-08
1.04744e-07
1.17644e-07
1.30649e-07
1.43469e-07
1.55988e-07
1.68147e-07
1.79881e-07
1.91098e-07
2.01674e-07
2.11458e-07
2.20278e-07
2.27935e-07
2.34211e-07
2.38862e-07
2.41627e-07
2.42238e-07
2.40439e-07
2.36023e-07
2.28874e-07
2.18994e-07
2.06581e-07
1.9196e-07
1.75697e-07
1.58381e-07
1.40705e-07
1.23227e-07
1.06885e-07
8.87303e-08
7.3732e-08
6.1289e-08
5.09214e-08
4.22674e-08
3.50494e-08
2.90452e-08
2.4065e-08
1.99486e-08
1.6555e-08
1.37647e-08
1.1473e-08
9.59211e-09
8.04718e-09
6.77628e-09
5.72805e-09
4.86071e-09
4.14029e-09
3.53939e-09
3.03585e-09
2.61189e-09
2.25323e-09
1.94818e-09
1.68648e-09
1.46086e-09
5.53266e-08
4.88215e-07
8.99134e-07
4.44289e-07
5.48646e-08
7.61728e-10
5.75775e-12
2.72861e-12
5.1134e-10
2.11109e-10
7.6928e-12
2.80183e-10
4.37474e-11
4.73483e-10
1.8463e-10
2.47751e-10
3.99421e-10
1.78436e-10
1.54954e-10
3.11652e-10
3.71399e-10
3.37245e-10
2.48541e-10
2.28899e-10
2.75009e-10
3.87391e-10
4.74436e-10
3.84894e-10
2.46831e-10
1.70743e-10
1.41818e-10
1.36576e-10
1.40618e-10
1.63678e-10
1.99487e-10
2.43702e-10
2.94952e-10
3.50938e-10
4.088e-10
4.66303e-10
5.22294e-10
5.76315e-10
6.28194e-10
6.77811e-10
7.25029e-10
7.69657e-10
8.11445e-10
8.50044e-10
8.84976e-10
9.15595e-10
9.41075e-10
9.60409e-10
9.72458e-10
9.76039e-10
9.70086e-10
9.53761e-10
9.26794e-10
8.89348e-10
8.42548e-10
7.87849e-10
7.275e-10
6.63748e-10
6.0024e-10
5.22157e-10
4.55667e-10
3.98562e-10
3.49156e-10
3.06228e-10
2.6887e-10
2.36372e-10
2.08123e-10
1.83599e-10
1.62322e-10
1.43869e-10
1.27852e-10
1.13931e-10
1.018e-10
9.11946e-11
8.18869e-11
7.36824e-11
6.64174e-11
5.99544e-11
5.41788e-11
4.89956e-11
4.43256e-11
4.01004e-11
3.62571e-11
3.27736e-11
6.33385e-09
4.8555e-08
5.90598e-08
1.61581e-08
9.81724e-10
4.70217e-13
1.26088e-17
9.14222e-18
8.75621e-17
2.0041e-16
3.39349e-16
2.04223e-13
3.26617e-15
6.53918e-13
1.00038e-13
9.89315e-14
5.27118e-13
3.0698e-13
3.08239e-13
6.99021e-13
9.28173e-13
7.97488e-13
6.01054e-13
5.65295e-13
6.95174e-13
1.04451e-12
1.50236e-12
1.47365e-12
9.7149e-13
6.105e-13
4.69207e-13
4.41149e-13
4.83859e-13
5.92792e-13
7.49318e-13
9.41588e-13
1.16327e-12
1.40512e-12
1.65472e-12
1.90097e-12
2.13699e-12
2.35971e-12
2.56835e-12
2.76315e-12
2.94469e-12
3.11365e-12
3.2707e-12
3.41631e-12
3.55065e-12
3.67337e-12
3.78356e-12
3.87956e-12
3.95906e-12
4.01914e-12
4.05659e-12
4.06804e-12
4.05087e-12
4.00279e-12
3.92363e-12
3.81384e-12
3.67653e-12
3.51577e-12
3.34043e-12
3.10379e-12
2.89104e-12
2.69801e-12
2.52149e-12
2.35919e-12
2.20951e-12
2.07131e-12
1.94357e-12
1.82543e-12
1.71601e-12
1.61453e-12
1.52015e-12
1.43214e-12
1.34977e-12
1.27241e-12
1.19947e-12
1.13048e-12
1.06504e-12
1.00282e-12
9.43572e-13
8.87098e-13
8.33246e-13
7.81883e-13
7.32899e-13
6.8659e-13
2.18119e-10
3.50213e-09
3.16867e-09
4.04327e-10
1.81703e-11
5.05859e-13
6.09082e-17
5.80269e-19
2.04395e-19
9.71339e-20
7.03193e-19
6.4644e-17
1.16315e-18
8.0575e-16
9.61461e-17
3.8197e-17
7.03223e-16
4.92917e-16
2.76182e-16
1.65221e-15
3.38184e-15
3.31987e-15
2.68218e-15
2.56423e-15
3.1767e-15
4.76888e-15
7.1313e-15
8.28589e-15
7.24855e-15
5.88678e-15
5.31472e-15
5.53035e-15
6.36845e-15
7.66529e-15
9.29329e-15
1.11458e-14
1.31405e-14
1.51934e-14
1.72161e-14
1.91335e-14
2.09e-14
2.24995e-14
2.39362e-14
2.52245e-14
2.63825e-14
2.74278e-14
2.83766e-14
2.9243e-14
3.00388e-14
3.07733e-14
3.14532e-14
3.20821e-14
3.26605e-14
3.31859e-14
3.3653e-14
3.40535e-14
3.43791e-14
3.4619e-14
3.47665e-14
3.48137e-14
3.47607e-14
3.46105e-14
3.43814e-14
3.43579e-14
3.4348e-14
3.43463e-14
3.43482e-14
3.43512e-14
3.4354e-14
3.43569e-14
3.43609e-14
3.43675e-14
3.43787e-14
3.43968e-14
3.44246e-14
3.44654e-14
3.4523e-14
3.46018e-14
3.47071e-14
3.48452e-14
3.5023e-14
3.52484e-14
3.55303e-14
3.5879e-14
3.6306e-14
3.68246e-14
3.74505e-14
3.8203e-14
1.38076e-11
1.30776e-10
1.35266e-10
1.56018e-11
7.58305e-13
5.49113e-14
9.19827e-15
1.40158e-15
1.43615e-15
1.16168e-15
1.70355e-15
2.78388e-15
3.09679e-15
5.51082e-15
8.22455e-15
9.9634e-15
1.37425e-14
1.71192e-14
1.9045e-14
2.07527e-14
2.24793e-14
2.41154e-14
2.55198e-14
2.66362e-14
2.75764e-14
2.85369e-14
2.96729e-14
3.09535e-14
3.22248e-14
3.34586e-14
3.48244e-14
3.64563e-14
3.79789e-14
3.92646e-14
4.02195e-14
4.08028e-14
4.10234e-14
4.09222e-14
4.05553e-14
3.99845e-14
3.92711e-14
3.84721e-14
3.76378e-14
3.681e-14
3.6022e-14
3.52988e-14
3.46582e-14
3.41123e-14
3.36686e-14
3.33315e-14
3.31029e-14
3.29834e-14
3.29729e-14
3.3071e-14
3.32771e-14
3.35919e-14
3.40153e-14
3.45503e-14
3.51973e-14
3.59614e-14
3.68437e-14
3.78497e-14
3.89753e-14
4.03504e-14
4.18064e-14
4.33389e-14
4.4943e-14
4.66154e-14
4.83539e-14
5.01572e-14
5.20246e-14
5.3956e-14
5.59517e-14
5.80121e-14
6.0138e-14
6.23306e-14
6.45913e-14
6.69221e-14
6.93254e-14
7.18037e-14
7.43596e-14
7.69956e-14
7.97146e-14
8.25199e-14
8.54148e-14
8.84028e-14
9.14856e-14
9.46578e-14
1.00817e-11
5.80734e-12
5.77832e-12
2.24334e-12
6.75636e-13
2.71365e-13
1.5538e-13
1.093e-13
9.54894e-14
9.09601e-14
9.03873e-14
9.14981e-14
9.30634e-14
9.54263e-14
9.81374e-14
1.00784e-13
1.03386e-13
1.05693e-13
1.0756e-13
1.09015e-13
1.10137e-13
1.10985e-13
1.11598e-13
1.12e-13
1.12223e-13
1.12297e-13
1.12258e-13
1.1213e-13
1.11931e-13
1.11671e-13
1.11366e-13
1.11009e-13
1.10564e-13
1.10044e-13
1.09461e-13
1.08826e-13
1.08152e-13
1.07449e-13
1.0673e-13
1.06004e-13
1.05281e-13
1.04567e-13
1.0387e-13
1.03194e-13
1.02544e-13
1.01922e-13
1.01331e-13
1.00773e-13
1.00248e-13
9.97577e-14
9.93016e-14
9.888e-14
9.84927e-14
9.81395e-14
9.78201e-14
9.75347e-14
9.72827e-14
9.70653e-14
9.68822e-14
9.67353e-14
9.66253e-14
9.65554e-14
9.65262e-14
9.66059e-14
9.6727e-14
9.68915e-14
9.7102e-14
9.73611e-14
9.76722e-14
9.80389e-14
9.8465e-14
9.89549e-14
9.95129e-14
1.00143e-13
1.00851e-13
1.01639e-13
1.02515e-13
1.03481e-13
1.04544e-13
1.05708e-13
1.06976e-13
1.08351e-13
1.09835e-13
1.11427e-13
1.13128e-13
1.14933e-13
1.16838e-13
1.18838e-13
9.99709e-12
3.77435e-12
1.89916e-12
1.11601e-12
7.15136e-13
4.98236e-13
3.76372e-13
3.03835e-13
2.58979e-13
2.29568e-13
2.09271e-13
1.94497e-13
1.83314e-13
1.74518e-13
1.67419e-13
1.61507e-13
1.56483e-13
1.52106e-13
1.48232e-13
1.44747e-13
1.41583e-13
1.38684e-13
1.36017e-13
1.33549e-13
1.31261e-13
1.29131e-13
1.27147e-13
1.25294e-13
1.23562e-13
1.21941e-13
1.20422e-13
1.18997e-13
1.17657e-13
1.16396e-13
1.15208e-13
1.14089e-13
1.13034e-13
1.12038e-13
1.11097e-13
1.10209e-13
1.09369e-13
1.08576e-13
1.07825e-13
1.07115e-13
1.06444e-13
1.05808e-13
1.05208e-13
1.04639e-13
1.04103e-13
1.03595e-13
1.03117e-13
1.02666e-13
1.02243e-13
1.01846e-13
1.01475e-13
1.0113e-13
1.00812e-13
1.0052e-13
1.00256e-13
1.00022e-13
9.98184e-14
9.96484e-14
9.95136e-14
9.94976e-14
9.95197e-14
9.9582e-14
9.96879e-14
9.98411e-14
1.00046e-13
1.00305e-13
1.00625e-13
1.01009e-13
1.01462e-13
1.01989e-13
1.02593e-13
1.0328e-13
1.04053e-13
1.04917e-13
1.05877e-13
1.06935e-13
1.08093e-13
1.09354e-13
1.10718e-13
1.12185e-13
1.13754e-13
1.15421e-13
1.17184e-13
1.19039e-13
9.99662e-12
3.73552e-12
1.80536e-12
1.05696e-12
7.0954e-13
5.24394e-13
4.15129e-13
3.45322e-13
2.98066e-13
2.64385e-13
2.39472e-13
2.20339e-13
2.05276e-13
1.93081e-13
1.83039e-13
1.74597e-13
1.67414e-13
1.61209e-13
1.55798e-13
1.5103e-13
1.46799e-13
1.43014e-13
1.39612e-13
1.36535e-13
1.33742e-13
1.31194e-13
1.28864e-13
1.26723e-13
1.24754e-13
1.22936e-13
1.21254e-13
1.19694e-13
1.18245e-13
1.16895e-13
1.15636e-13
1.14459e-13
1.13357e-13
1.12323e-13
1.11353e-13
1.10441e-13
1.09582e-13
1.08773e-13
1.0801e-13
1.0729e-13
1.0661e-13
1.05968e-13
1.05361e-13
1.04787e-13
1.04246e-13
1.03734e-13
1.03252e-13
1.02797e-13
1.02369e-13
1.01968e-13
1.01593e-13
1.01244e-13
1.00921e-13
1.00625e-13
1.00356e-13
1.00116e-13
9.99074e-14
9.97316e-14
9.95905e-14
9.95669e-14
9.95808e-14
9.96341e-14
9.97299e-14
9.98718e-14
1.00064e-13
1.0031e-13
1.00614e-13
1.0098e-13
1.01414e-13
1.01918e-13
1.02498e-13
1.03157e-13
1.039e-13
1.04731e-13
1.05652e-13
1.06666e-13
1.07776e-13
1.08982e-13
1.10287e-13
1.11688e-13
1.13186e-13
1.14779e-13
1.16463e-13
1.18236e-13
9.9979e-12
3.7353e-12
1.80361e-12
1.05513e-12
7.09034e-13
5.25545e-13
4.17568e-13
3.48497e-13
3.01491e-13
2.67732e-13
2.42558e-13
2.2308e-13
2.07651e-13
1.95102e-13
1.84735e-13
1.76005e-13
1.68572e-13
1.62155e-13
1.56567e-13
1.51653e-13
1.47302e-13
1.4342e-13
1.39939e-13
1.36799e-13
1.33955e-13
1.31367e-13
1.29004e-13
1.26838e-13
1.24848e-13
1.23014e-13
1.21319e-13
1.19749e-13
1.18292e-13
1.16936e-13
1.15672e-13
1.14491e-13
1.13386e-13
1.12351e-13
1.11379e-13
1.10465e-13
1.09606e-13
1.08796e-13
1.08033e-13
1.07312e-13
1.06632e-13
1.05989e-13
1.05382e-13
1.04808e-13
1.04266e-13
1.03754e-13
1.03271e-13
1.02816e-13
1.02388e-13
1.01985e-13
1.01609e-13
1.01259e-13
1.00935e-13
1.00637e-13
1.00367e-13
1.00126e-13
9.99145e-14
9.97361e-14
9.95918e-14
9.95639e-14
9.95729e-14
9.96203e-14
9.97093e-14
9.98433e-14
1.00026e-13
1.00262e-13
1.00554e-13
1.00907e-13
1.01325e-13
1.01811e-13
1.02371e-13
1.03008e-13
1.03725e-13
1.04526e-13
1.05414e-13
1.06392e-13
1.0746e-13
1.08621e-13
1.09875e-13
1.11222e-13
1.12661e-13
1.14191e-13
1.1581e-13
1.17516e-13
9.99934e-12
3.73573e-12
1.80379e-12
1.0552e-12
7.09089e-13
5.25627e-13
4.17696e-13
3.48664e-13
3.01682e-13
2.67929e-13
2.42748e-13
2.23256e-13
2.07807e-13
1.95237e-13
1.8485e-13
1.76102e-13
1.68652e-13
1.62221e-13
1.56622e-13
1.51698e-13
1.47339e-13
1.43452e-13
1.39966e-13
1.36823e-13
1.33976e-13
1.31386e-13
1.29022e-13
1.26855e-13
1.24865e-13
1.2303e-13
1.21335e-13
1.19765e-13
1.18308e-13