/*--------------------------------*- C++ -*----------------------------------*\
| =========                 |                                                 |
| \\      /  F ield         | OpenFOAM: The Open Source CFD Toolbox           |
|  \\    /   O peration     | Version:  5.x                                   |
|   \\  /    A nd           | Web:      www.OpenFOAM.org                      |
|    \\/     M anipulation  |                                                 |
\*---------------------------------------------------------------------------*/
FoamFile
{
    version     2.0;
    format      ascii;
    class       volScalarField;
    location    "100";
    object      p;
}
// * * * * * * * * * * * * * * * * * * * * * * * * * * * * * * * * * * * * * //

dimensions      [0 2 -2 0 0 0 0];

internalField   nonuniform List<scalar> 
20540
(
-27.3688
-25.1644
-27.3688
-25.1642
-27.3688
-25.1638
-27.3688
-25.1634
-27.3688
-25.1632
-27.3688
-25.1638
-27.3688
-25.1655
-27.3688
-25.1688
-27.3688
-25.1743
-27.3688
-25.1825
-27.3688
-25.1942
-27.3688
-25.2098
-27.3689
-25.23
-27.3689
-25.2552
-27.3689
-25.2859
-27.3689
-25.3228
-27.3689
-25.3666
-27.369
-25.4185
-27.3691
-25.4796
-27.3692
-25.5516
-27.3694
-25.6361
-27.3697
-25.7346
-27.3702
-25.8489
-27.3708
-25.9804
-27.3716
-26.13
-27.3728
-26.2975
-27.3744
-26.481
-27.3763
-26.6758
-27.3788
-26.8734
-27.3816
-27.0597
-27.3843
-27.1949
-27.3862
-27.2652
-27.3873
-27.2735
-27.3876
-27.2196
-27.3873
-27.1037
-27.3865
-26.9401
-27.3856
-26.7619
-27.3847
-26.583
-27.3839
-26.4119
-27.3833
-26.2535
-27.3829
-26.1101
-27.3825
-25.9824
-27.3823
-25.8702
-27.3821
-25.7724
-27.382
-25.6879
-27.3819
-25.6151
-27.3818
-25.5527
-27.3818
-25.4993
-27.3818
-25.4539
-27.3817
-25.4152
-27.3817
-25.3826
-27.3817
-25.3554
-27.3817
-25.3331
-27.3817
-25.3153
-27.3817
-25.3015
-27.3817
-25.2913
-27.3817
-25.2841
-27.3817
-25.2793
-27.3817
-25.2764
-27.3817
-25.275
-27.3817
-25.2745
-27.3817
-25.2747
-27.3817
-25.2751
-27.3817
-25.2754
-27.3817
-25.2756
-28.1912
-37.3323
-45.1345
-51.8986
-59.0473
-65.9914
-73.3113
-79.8206
-86.1274
-91.4236
-96.4125
-100.647
-104.623
-108.061
-111.271
-114.075
-116.655
-118.904
-120.929
-122.687
-124.249
-125.616
-126.84
-127.943
-128.967
-129.936
-130.882
-131.82
-132.771
-133.739
-134.732
-135.75
-136.791
-137.851
-138.916
-139.97
-140.995
-141.977
-142.903
-143.765
-144.559
-145.284
-145.943
-146.544
-147.092
-147.599
-148.074
-148.528
-148.973
-149.421
-149.885
-150.377
-150.914
-151.512
-152.194
-152.984
-153.909
-155.016
-156.324
-157.909
-159.767
-161.992
-164.394
-167.654
-170.662
-173.432
-176.18
-179.124
-182.161
-185.381
-188.64
-192.026
-195.401
-198.861
-202.324
-205.873
-209.504
-213.287
-217.276
-221.505
-226.044
-231.041
-236.463
-242.175
-248.325
-254.931
-263.574
-267.167
-28.179
-37.3299
-45.1334
-51.8977
-59.0465
-65.9908
-73.3109
-79.8203
-86.1271
-91.4234
-96.4123
-100.647
-104.622
-108.06
-111.271
-114.075
-116.655
-118.903
-120.929
-122.687
-124.249
-125.616
-126.84
-127.943
-128.967
-129.936
-130.882
-131.82
-132.771
-133.739
-134.732
-135.75
-136.791
-137.851
-138.916
-139.97
-140.995
-141.977
-142.903
-143.765
-144.559
-145.284
-145.943
-146.544
-147.092
-147.599
-148.074
-148.528
-148.973
-149.421
-149.885
-150.377
-150.914
-151.512
-152.194
-152.984
-153.91
-155.017
-156.324
-157.909
-159.768
-161.992
-164.395
-167.655
-170.663
-173.432
-176.181
-179.125
-182.162
-185.383
-188.642
-192.028
-195.402
-198.862
-202.326
-205.874
-209.505
-213.289
-217.278
-221.507
-226.047
-231.044
-236.467
-242.18
-248.331
-254.928
-263.566
-267.088
-28.1665
-37.326
-45.1316
-51.8964
-59.0455
-65.99
-73.3103
-79.8198
-86.1268
-91.4232
-96.4121
-100.646
-104.622
-108.06
-111.27
-114.074
-116.655
-118.903
-120.929
-122.687
-124.249
-125.616
-126.84
-127.943
-128.967
-129.936
-130.882
-131.82
-132.771
-133.739
-134.732
-135.75
-136.791
-137.851
-138.916
-139.97
-140.995
-141.977
-142.903
-143.765
-144.559
-145.284
-145.944
-146.544
-147.092
-147.599
-148.074
-148.529
-148.974
-149.422
-149.885
-150.377
-150.914
-151.512
-152.194
-152.984
-153.91
-155.017
-156.325
-157.91
-159.768
-161.993
-164.396
-167.657
-170.664
-173.434
-176.183
-179.127
-182.164
-185.385
-188.644
-192.03
-195.404
-198.865
-202.328
-205.876
-209.507
-213.291
-217.281
-221.51
-226.051
-231.049
-236.472
-242.187
-248.342
-254.935
-263.566
-266.941
-28.1553
-37.3204
-45.1291
-51.8944
-59.0438
-65.9887
-73.3093
-79.819
-86.1262
-91.4227
-96.4117
-100.646
-104.622
-108.06
-111.27
-114.074
-116.654
-118.903
-120.929
-122.687
-124.249
-125.616
-126.84
-127.943
-128.967
-129.936
-130.882
-131.82
-132.771
-133.739
-134.732
-135.75
-136.791
-137.851
-138.916
-139.97
-140.995
-141.977
-142.903
-143.765
-144.559
-145.284
-145.944
-146.544
-147.093
-147.599
-148.074
-148.529
-148.974
-149.422
-149.885
-150.378
-150.915
-151.513
-152.195
-152.985
-153.911
-155.018
-156.326
-157.911
-159.769
-161.995
-164.398
-167.659
-170.666
-173.436
-176.185
-179.129
-182.166
-185.388
-188.647
-192.033
-195.408
-198.868
-202.331
-205.88
-209.511
-213.295
-217.285
-221.515
-226.056
-231.055
-236.479
-242.197
-248.357
-254.958
-263.596
-267.038
-28.1467
-37.3129
-45.1255
-51.8917
-59.0416
-65.9869
-73.3079
-79.818
-86.1254
-91.4221
-96.4112
-100.646
-104.622
-108.06
-111.27
-114.074
-116.654
-118.903
-120.929
-122.687
-124.249
-125.615
-126.84
-127.943
-128.967
-129.936
-130.882
-131.82
-132.771
-133.739
-134.732
-135.75
-136.791
-137.851
-138.916
-139.97
-140.995
-141.977
-142.903
-143.765
-144.559
-145.284
-145.944
-146.544
-147.093
-147.6
-148.074
-148.529
-148.974
-149.422
-149.886
-150.378
-150.915
-151.513
-152.195
-152.986
-153.912
-155.019
-156.327
-157.912
-159.771
-161.997
-164.401
-167.661
-170.669
-173.438
-176.188
-179.132
-182.17
-185.392
-188.651
-192.038
-195.413
-198.873
-202.336
-205.885
-209.516
-213.3
-217.29
-221.52
-226.063
-231.062
-236.487
-242.207
-248.372
-254.987
-263.645
-267.185
-28.1408
-37.3035
-45.1209
-51.8881
-59.0387
-65.9846
-73.3061
-79.8166
-86.1243
-91.4212
-96.4106
-100.645
-104.621
-108.059
-111.27
-114.074
-116.654
-118.903
-120.929
-122.687
-124.249
-125.615
-126.839
-127.943
-128.967
-129.936
-130.882
-131.82
-132.771
-133.739
-134.732
-135.75
-136.791
-137.851
-138.916
-139.97
-140.995
-141.977
-142.904
-143.766
-144.559
-145.284
-145.944
-146.544
-147.093
-147.6
-148.075
-148.529
-148.974
-149.423
-149.886
-150.379
-150.916
-151.514
-152.196
-152.987
-153.913
-155.02
-156.328
-157.914
-159.773
-161.999
-164.404
-167.665
-170.673
-173.442
-176.192
-179.137
-182.175
-185.397
-188.657
-192.043
-195.419
-198.879
-202.343
-205.892
-209.523
-213.307
-217.296
-221.526
-226.069
-231.069
-236.495
-242.213
-248.377
-255.007
-263.652
-267.262
-28.1376
-37.2922
-45.1147
-51.8835
-59.0349
-65.9816
-73.3037
-79.8148
-86.1229
-91.4201
-96.4097
-100.644
-104.621
-108.059
-111.269
-114.074
-116.654
-118.903
-120.929
-122.687
-124.249
-125.615
-126.839
-127.943
-128.967
-129.936
-130.882
-131.82
-132.771
-133.739
-134.732
-135.75
-136.791
-137.851
-138.916
-139.97
-140.995
-141.977
-142.904
-143.766
-144.559
-145.285
-145.944
-146.545
-147.093
-147.6
-148.075
-148.53
-148.975
-149.423
-149.887
-150.379
-150.916
-151.515
-152.197
-152.988
-153.914
-155.021
-156.33
-157.916
-159.775
-162.002
-164.407
-167.669
-170.677
-173.447
-176.196
-179.141
-182.18
-185.403
-188.663
-192.051
-195.426
-198.887
-202.351
-205.9
-209.531
-213.315
-217.304
-221.533
-226.074
-231.076
-236.503
-242.216
-248.371
-255.017
-263.602
-267.357
-28.1373
-37.2792
-45.1069
-51.8777
-59.0303
-65.9778
-73.3008
-79.8125
-86.1212
-91.4187
-96.4085
-100.644
-104.62
-108.058
-111.269
-114.073
-116.654
-118.903
-120.928
-122.686
-124.249
-125.615
-126.839
-127.942
-128.967
-129.936
-130.882
-131.82
-132.771
-133.739
-134.732
-135.75
-136.791
-137.851
-138.917
-139.97
-140.995
-141.978
-142.904
-143.766
-144.56
-145.285
-145.944
-146.545
-147.094
-147.6
-148.076
-148.53
-148.975
-149.424
-149.887
-150.38
-150.917
-151.516
-152.198
-152.989
-153.915
-155.023
-156.332
-157.918
-159.778
-162.005
-164.411
-167.674
-170.683
-173.452
-176.201
-179.147
-182.186
-185.41
-188.671
-192.059
-195.435
-198.897
-202.361
-205.91
-209.541
-213.324
-217.312
-221.539
-226.079
-231.082
-236.508
-242.212
-248.349
-255.025
-263.507
-267.54
-28.1402
-37.2652
-45.0977
-51.871
-59.0249
-65.9735
-73.2974
-79.8099
-86.1191
-91.4171
-96.4071
-100.642
-104.619
-108.058
-111.268
-114.073
-116.653
-118.902
-120.928
-122.686
-124.248
-125.615
-126.839
-127.942
-128.966
-129.936
-130.882
-131.82
-132.771
-133.739
-134.732
-135.75
-136.791
-137.851
-138.917
-139.97
-140.996
-141.978
-142.904
-143.766
-144.56
-145.285
-145.945
-146.545
-147.094
-147.601
-148.076
-148.531
-148.976
-149.425
-149.888
-150.381
-150.918
-151.517
-152.2
-152.99
-153.917
-155.025
-156.334
-157.92
-159.78
-162.008
-164.415
-167.678
-170.689
-173.458
-176.207
-179.153
-182.193
-185.417
-188.679
-192.068
-195.445
-198.907
-202.372
-205.922
-209.553
-213.335
-217.322
-221.545
-226.081
-231.083
-236.507
-242.199
-248.311
-255.028
-263.361
-267.812
-28.1466
-37.251
-45.0879
-51.864
-59.0195
-65.9693
-73.294
-79.8072
-86.1169
-91.4153
-96.4057
-100.641
-104.618
-108.057
-111.268
-114.072
-116.653
-118.902
-120.928
-122.686
-124.248
-125.615
-126.839
-127.942
-128.966
-129.936
-130.881
-131.82
-132.77
-133.738
-134.732
-135.749
-136.791
-137.851
-138.917
-139.97
-140.996
-141.978
-142.904
-143.767
-144.56
-145.286
-145.945
-146.546
-147.095
-147.602
-148.077
-148.532
-148.977
-149.426
-149.889
-150.382
-150.92
-151.518
-152.201
-152.992
-153.919
-155.027
-156.336
-157.923
-159.783
-162.011
-164.418
-167.683
-170.695
-173.465
-176.213
-179.159
-182.2
-185.424
-188.687
-192.077
-195.455
-198.918
-202.384
-205.933
-209.565
-213.347
-217.331
-221.55
-226.08
-231.076
-236.492
-242.173
-248.258
-255.015
-263.129
-268.14
-28.1569
-37.238
-45.0788
-51.8582
-59.0153
-65.9661
-73.2915
-79.8052
-86.1153
-91.414
-96.4046
-100.64
-104.617
-108.056
-111.267
-114.072
-116.652
-118.902
-120.927
-122.686
-124.248
-125.615
-126.839
-127.942
-128.966
-129.936
-130.881
-131.82
-132.77
-133.738
-134.732
-135.749
-136.791
-137.851
-138.917
-139.97
-140.996
-141.978
-142.905
-143.767
-144.561
-145.286
-145.946
-146.547
-147.095
-147.603
-148.078
-148.533
-148.978
-149.427
-149.89
-150.384
-150.921
-151.52
-152.203
-152.994
-153.921
-155.029
-156.338
-157.925
-159.786
-162.013
-164.421
-167.686
-170.701
-173.471
-176.218
-179.164
-182.205
-185.43
-188.694
-192.085
-195.464
-198.927
-202.394
-205.944
-209.575
-213.357
-217.338
-221.552
-226.074
-231.056
-236.459
-242.13
-248.189
-254.962
-262.776
-268.512
-28.1713
-37.2269
-45.0718
-51.855
-59.014
-65.9654
-73.2911
-79.8049
-86.115
-91.4137
-96.4043
-100.64
-104.617
-108.056
-111.267
-114.071
-116.652
-118.901
-120.927
-122.686
-124.248
-125.615
-126.839
-127.942
-128.966
-129.936
-130.881
-131.82
-132.77
-133.738
-134.732
-135.749
-136.791
-137.851
-138.917
-139.97
-140.996
-141.978
-142.905
-143.767
-144.561
-145.287
-145.947
-146.547
-147.096
-147.603
-148.079
-148.534
-148.979
-149.428
-149.892
-150.385
-150.923
-151.522
-152.204
-152.996
-153.922
-155.031
-156.34
-157.926
-159.787
-162.013
-164.421
-167.686
-170.704
-173.476
-176.221
-179.165
-182.207
-185.432
-188.697
-192.088
-195.469
-198.932
-202.4
-205.951
-209.582
-213.363
-217.34
-221.548
-226.06
-231.022
-236.401
-242.061
-248.096
-254.84
-262.307
-268.861
-28.1903
-37.2181
-45.0678
-51.8559
-59.0168
-65.9685
-73.2939
-79.8071
-86.1169
-91.4153
-96.4056
-100.641
-104.617
-108.056
-111.267
-114.072
-116.652
-118.902
-120.928
-122.686
-124.248
-125.615
-126.839
-127.942
-128.966
-129.936
-130.881
-131.82
-132.77
-133.738
-134.732
-135.749
-136.791
-137.85
-138.916
-139.97
-140.996
-141.978
-142.905
-143.767
-144.561
-145.287
-145.947
-146.548
-147.097
-147.604
-148.079
-148.534
-148.98
-149.429
-149.893
-150.386
-150.924
-151.523
-152.206
-152.997
-153.923
-155.031
-156.34
-157.926
-159.786
-162.009
-164.418
-167.682
-170.704
-173.477
-176.22
-179.162
-182.204
-185.427
-188.694
-192.084
-195.467
-198.929
-202.399
-205.949
-209.581
-213.361
-217.334
-221.536
-226.037
-230.969
-236.315
-241.955
-247.957
-254.611
-261.729
-269.008
-28.2143
-37.2115
-45.067
-51.8608
-59.0239
-65.9755
-73.2999
-79.8121
-86.1211
-91.4189
-96.4086
-100.643
-104.619
-108.058
-111.268
-114.073
-116.653
-118.902
-120.928
-122.686
-124.249
-125.615
-126.839
-127.942
-128.966
-129.936
-130.881
-131.819
-132.77
-133.738
-134.731
-135.748
-136.79
-137.85
-138.916
-139.969
-140.995
-141.977
-142.904
-143.767
-144.561
-145.286
-145.947
-146.548
-147.097
-147.604
-148.08
-148.535
-148.98
-149.429
-149.893
-150.386
-150.924
-151.523
-152.205
-152.996
-153.922
-155.03
-156.338
-157.922
-159.781
-162.001
-164.409
-167.671
-170.699
-173.472
-176.213
-179.151
-182.193
-185.414
-188.682
-192.068
-195.452
-198.912
-202.383
-205.933
-209.565
-213.346
-217.315
-221.511
-225.997
-230.89
-236.183
-241.781
-247.722
-254.207
-260.991
-268.632
-28.2443
-37.206
-45.0683
-51.8684
-59.0335
-65.9844
-73.3074
-79.8183
-86.1264
-91.4236
-96.4126
-100.647
-104.622
-108.06
-111.27
-114.074
-116.654
-118.903
-120.929
-122.687
-124.249
-125.616
-126.84
-127.943
-128.967
-129.936
-130.881
-131.819
-132.769
-133.737
-134.731
-135.748
-136.789
-137.849
-138.914
-139.968
-140.994
-141.976
-142.903
-143.765
-144.559
-145.285
-145.946
-146.547
-147.096
-147.603
-148.079
-148.534
-148.979
-149.428
-149.892
-150.384
-150.922
-151.52
-152.202
-152.993
-153.918
-155.024
-156.331
-157.914
-159.771
-161.985
-164.395
-167.653
-170.685
-173.458
-176.198
-179.129
-182.171
-185.386
-188.653
-192.033
-195.417
-198.872
-202.343
-205.891
-209.525
-213.304
-217.268
-221.453
-225.914
-230.746
-235.955
-241.463
-247.279
-253.493
-259.895
-267.258
-28.2815
-37.2009
-45.0699
-51.8762
-59.0424
-65.9918
-73.313
-79.8228
-86.1305
-91.4274
-96.4162
-100.65
-104.625
-108.062
-111.271
-114.075
-116.655
-118.904
-120.93
-122.688
-124.25
-125.616
-126.84
-127.943
-128.967
-129.936
-130.881
-131.819
-132.769
-133.737
-134.73
-135.747
-136.789
-137.848
-138.913
-139.967
-140.992
-141.974
-142.901
-143.763
-144.557
-145.283
-145.943
-146.544
-147.093
-147.6
-148.075
-148.53
-148.975
-149.423
-149.886
-150.379
-150.916
-151.513
-152.195
-152.985
-153.909
-155.014
-156.32
-157.9
-159.755
-161.963
-164.376
-167.627
-170.656
-173.428
-176.165
-179.087
-182.123
-185.327
-188.588
-191.955
-195.334
-198.778
-202.246
-205.788
-209.419
-213.19
-217.136
-221.291
-225.698
-230.431
-235.498
-240.836
-246.419
-252.223
-258.072
-264.425
-28.3267
-37.1956
-45.0702
-51.8817
-59.0479
-65.9952
-73.3144
-79.8234
-86.1313
-91.4288
-96.4179
-100.651
-104.626
-108.063
-111.272
-114.076
-116.655
-118.904
-120.929
-122.687
-124.249
-125.616
-126.84
-127.943
-128.967
-129.936
-130.881
-131.82
-132.77
-133.737
-134.73
-135.747
-136.788
-137.847
-138.912
-139.965
-140.99
-141.971
-142.897
-143.759
-144.553
-145.278
-145.938
-146.538
-147.086
-147.593
-148.068
-148.522
-148.966
-149.413
-149.876
-150.367
-150.903
-151.5
-152.181
-152.97
-153.895
-154.998
-156.302
-157.878
-159.727
-161.926
-164.346
-167.576
-170.587
-173.354
-176.083
-178.986
-182.01
-185.19
-188.437
-191.779
-195.143
-198.567
-202.022
-205.549
-209.163
-212.907
-216.811
-220.9
-225.206
-229.78
-234.625
-239.685
-244.894
-250.131
-255.197
-260.041
-28.3811
-37.1898
-45.0685
-51.8846
-59.0499
-65.994
-73.3108
-79.8191
-86.1277
-91.4266
-96.4167
-100.651
-104.626
-108.063
-111.272
-114.075
-116.654
-118.902
-120.928
-122.686
-124.248
-125.614
-126.839
-127.942
-128.967
-129.936
-130.882
-131.82
-132.77
-133.737
-134.73
-135.747
-136.788
-137.846
-138.91
-139.962
-140.985
-141.966
-142.89
-143.751
-144.543
-145.267
-145.926
-146.525
-147.072
-147.578
-148.051
-148.504
-148.947
-149.393
-149.855
-150.345
-150.88
-151.475
-152.155
-152.943
-153.866
-154.966
-156.266
-157.834
-159.673
-161.857
-164.285
-167.473
-170.441
-173.193
-175.91
-178.785
-181.786
-184.933
-188.153
-191.458
-194.796
-198.186
-201.615
-205.109
-208.685
-212.374
-216.196
-220.169
-224.312
-228.652
-233.185
-237.849
-242.543
-247.074
-251.2
-254.527
-28.4459
-37.1837
-45.0654
-51.886
-59.0495
-65.9894
-73.3027
-79.8098
-86.1193
-91.4199
-96.4117
-100.647
-104.622
-108.059
-111.268
-114.071
-116.65
-118.898
-120.923
-122.681
-124.244
-125.611
-126.835
-127.94
-128.964
-129.935
-130.881
-131.819
-132.769
-133.737
-134.729
-135.745
-136.785
-137.842
-138.904
-139.954
-140.975
-141.953
-142.876
-143.734
-144.525
-145.247
-145.904
-146.501
-147.047
-147.551
-148.023
-148.474
-148.915
-149.359
-149.817
-150.305
-150.837
-151.431
-152.108
-152.893
-153.812
-154.907
-156.199
-157.754
-159.577
-161.741
-164.174
-167.297
-170.201
-172.927
-175.625
-178.464
-181.431
-184.532
-187.71
-190.964
-194.258
-197.599
-200.98
-204.418
-207.925
-211.52
-215.214
-219.012
-222.923
-226.954
-231.084
-235.247
-239.315
-243.071
-246.26
-248.448
-28.5225
-37.1775
-45.0613
-51.8871
-59.0484
-65.9827
-73.2912
-79.796
-86.1061
-91.4087
-96.4025
-100.639
-104.615
-108.053
-111.262
-114.064
-116.643
-118.891
-120.916
-122.674
-124.236
-125.604
-126.83
-127.934
-128.96
-129.931
-130.877
-131.817
-132.767
-133.734
-134.726
-135.741
-136.78
-137.835
-138.894
-139.941
-140.959
-141.934
-142.853
-143.709
-144.497
-145.216
-145.871
-146.466
-147.009
-147.511
-147.979
-148.427
-148.864
-149.305
-149.759
-150.243
-150.771
-151.36
-152.033
-152.813
-153.726
-154.812
-156.092
-157.629
-159.432
-161.569
-164
-167.036
-169.86
-172.546
-175.213
-178.006
-180.927
-183.968
-187.087
-190.274
-193.504
-196.773
-200.08
-203.431
-206.832
-210.287
-213.798
-217.36
-220.969
-224.615
-228.266
-231.849
-235.234
-238.224
-240.609
-242.087
-28.6126
-37.1712
-45.0563
-51.8883
-59.0471
-65.9746
-73.2766
-79.7782
-86.0884
-91.3931
-96.3892
-100.628
-104.605
-108.043
-111.252
-114.055
-116.633
-118.88
-120.905
-122.663
-124.226
-125.594
-126.821
-127.926
-128.953
-129.925
-130.872
-131.812
-132.762
-133.729
-134.721
-135.735
-136.772
-137.824
-138.881
-139.924
-140.938
-141.909
-142.824
-143.676
-144.46
-145.176
-145.827
-146.419
-146.959
-147.456
-147.921
-148.364
-148.796
-149.231
-149.68
-150.158
-150.679
-151.262
-151.928
-152.701
-153.605
-154.678
-155.943
-157.457
-159.233
-161.337
-163.752
-166.687
-169.415
-172.044
-174.668
-177.402
-180.258
-183.223
-186.264
-189.362
-192.501
-195.673
-198.873
-202.098
-205.346
-208.609
-211.878
-215.139
-218.378
-221.574
-224.689
-227.653
-230.353
-232.643
-234.382
-235.403
-28.7179
-37.1651
-45.0503
-51.8898
-59.046
-65.9652
-73.2594
-79.7566
-86.0666
-91.3733
-96.372
-100.612
-104.591
-108.03
-111.24
-114.042
-116.62
-118.867
-120.892
-122.65
-124.213
-125.582
-126.809
-127.916
-128.944
-129.917
-130.865
-131.805
-132.756
-133.723
-134.714
-135.727
-136.762
-137.811
-138.863
-139.902
-140.911
-141.877
-142.787
-143.635
-144.414
-145.126
-145.773
-146.361
-146.896
-147.388
-147.847
-148.284
-148.71
-149.137
-149.578
-150.048
-150.561
-151.135
-151.792
-152.554
-153.445
-154.501
-155.746
-157.23
-158.973
-161.034
-163.417
-166.237
-168.858
-171.411
-173.97
-176.629
-179.401
-182.269
-185.204
-188.188
-191.205
-194.244
-197.295
-200.348
-203.389
-206.401
-209.366
-212.264
-215.075
-217.774
-220.323
-222.665
-224.719
-226.39
-227.594
-228.257
-28.8401
-37.1596
-45.0431
-51.8916
-59.0452
-65.9548
-73.2395
-79.731
-86.0404
-91.3494
-96.3511
-100.594
-104.575
-108.015
-111.225
-114.027
-116.605
-118.851
-120.876
-122.634
-124.198
-125.567
-126.796
-127.904
-128.933
-129.907
-130.856
-131.797
-132.749
-133.715
-134.706
-135.717
-136.75
-137.795
-138.843
-139.876
-140.879
-141.839
-142.744
-143.586
-144.36
-145.066
-145.708
-146.29
-146.819
-147.304
-147.756
-148.185
-148.602
-149.02
-149.451
-149.91
-150.412
-150.974
-151.618
-152.365
-153.239
-154.272
-155.49
-156.937
-158.638
-160.644
-162.972
-165.664
-168.164
-170.619
-173.09
-175.651
-178.313
-181.055
-183.854
-186.689
-189.545
-192.408
-195.261
-198.085
-200.86
-203.56
-206.162
-208.643
-210.983
-213.158
-215.139
-216.886
-218.348
-219.473
-220.222
-220.572
-28.9804
-37.155
-45.0347
-51.8937
-59.0447
-65.9432
-73.2167
-79.7014
-86.0098
-91.3211
-96.3263
-100.572
-104.555
-107.996
-111.207
-114.009
-116.587
-118.833
-120.857
-122.615
-124.18
-125.55
-126.78
-127.889
-128.92
-129.896
-130.846
-131.788
-132.74
-133.706
-134.696
-135.706
-136.735
-137.776
-138.818
-139.845
-140.842
-141.795
-142.693
-143.528
-144.295
-144.995
-145.63
-146.205
-146.726
-147.203
-147.645
-148.064
-148.469
-148.875
-149.293
-149.737
-150.224
-150.77
-151.396
-152.123
-152.973
-153.977
-155.159
-156.559
-158.205
-160.14
-162.386
-164.933
-167.295
-169.627
-171.981
-174.414
-176.931
-179.513
-182.136
-184.78
-187.429
-190.063
-192.66
-195.196
-197.642
-199.972
-202.161
-204.187
-206.033
-207.682
-209.116
-210.312
-211.248
-211.902
-212.27
-212.358
-29.1397
-37.1519
-45.0248
-51.8961
-59.0446
-65.9304
-73.1911
-79.6676
-85.9746
-91.2884
-96.2976
-100.547
-104.532
-107.975
-111.187
-113.989
-116.567
-118.812
-120.836
-122.594
-124.159
-125.531
-126.762
-127.873
-128.905
-129.882
-130.835
-131.778
-132.73
-133.696
-134.685
-135.692
-136.719
-137.755
-138.791
-139.81
-140.799
-141.743
-142.633
-143.46
-144.219
-144.911
-145.537
-146.103
-146.614
-147.08
-147.51
-147.915
-148.306
-148.695
-149.095
-149.521
-149.988
-150.512
-151.113
-151.812
-152.631
-153.594
-154.729
-156.069
-157.642
-159.484
-161.615
-163.993
-166.193
-168.373
-170.575
-172.841
-175.173
-177.551
-179.953
-182.357
-184.744
-187.092
-189.374
-191.561
-193.625
-195.539
-197.281
-198.835
-200.188
-201.332
-202.261
-202.97
-203.458
-203.728
-203.796
-203.681
-29.3174
-37.1509
-45.0135
-51.8986
-59.0449
-65.9164
-73.1626
-79.6294
-85.9349
-91.2511
-96.265
-100.518
-104.507
-107.951
-111.165
-113.967
-116.544
-118.788
-120.813
-122.571
-124.136
-125.509
-126.741
-127.854
-128.889
-129.868
-130.822
-131.766
-132.719
-133.685
-134.672
-135.677
-136.7
-137.73
-138.759
-139.769
-140.749
-141.684
-142.564
-143.381
-144.13
-144.812
-145.427
-145.98
-146.479
-146.931
-147.345
-147.732
-148.104
-148.472
-148.849
-149.25
-149.69
-150.184
-150.753
-151.413
-152.188
-153.098
-154.17
-155.43
-156.906
-158.625
-160.602
-162.776
-164.783
-166.777
-168.786
-170.841
-172.941
-175.066
-177.194
-179.305
-181.375
-183.379
-185.29
-187.079
-188.72
-190.191
-191.475
-192.563
-193.45
-194.137
-194.628
-194.934
-195.068
-195.047
-194.891
-194.616
-29.5113
-37.1526
-45.0009
-51.9012
-59.0457
-65.9013
-73.1317
-79.5872
-85.8911
-91.2098
-96.2292
-100.485
-104.479
-107.925
-111.14
-113.941
-116.519
-118.762
-120.786
-122.544
-124.111
-125.484
-126.719
-127.834
-128.871
-129.852
-130.808
-131.753
-132.707
-133.672
-134.659
-135.661
-136.679
-137.702
-138.722
-139.723
-140.692
-141.616
-142.484
-143.289
-144.026
-144.695
-145.296
-145.835
-146.317
-146.75
-147.144
-147.508
-147.855
-148.195
-148.543
-148.91
-149.314
-149.768
-150.291
-150.9
-151.614
-152.453
-153.439
-154.595
-155.942
-157.499
-159.275
-161.2
-162.975
-164.742
-166.513
-168.308
-170.124
-171.944
-173.749
-175.515
-177.218
-178.832
-180.332
-181.692
-182.892
-183.917
-184.758
-185.413
-185.886
-186.186
-186.326
-186.323
-186.195
-185.958
-185.629
-185.22
-29.7162
-37.1575
-44.9873
-51.9036
-59.0471
-65.8854
-73.0992
-79.5419
-85.8446
-91.1655
-96.1913
-100.451
-104.449
-107.896
-111.113
-113.914
-116.492
-118.734
-120.758
-122.515
-124.083
-125.458
-126.695
-127.812
-128.852
-129.835
-130.793
-131.74
-132.694
-133.66
-134.644
-135.643
-136.655
-137.671
-138.682
-139.671
-140.628
-141.538
-142.392
-143.183
-143.905
-144.557
-145.141
-145.661
-146.122
-146.531
-146.899
-147.234
-147.548
-147.852
-148.16
-148.484
-148.839
-149.239
-149.701
-150.24
-150.872
-151.615
-152.487
-153.503
-154.679
-156.026
-157.543
-159.166
-160.663
-162.155
-163.641
-165.128
-166.613
-168.082
-169.518
-170.899
-172.2
-173.397
-174.469
-175.396
-176.166
-176.771
-177.213
-177.495
-177.628
-177.624
-177.5
-177.271
-176.951
-176.554
-176.089
-175.567
-29.9226
-37.165
-44.9735
-51.9052
-59.0495
-65.8687
-73.0669
-79.4949
-85.7978
-91.1201
-96.154
-100.417
-104.42
-107.868
-111.087
-113.886
-116.464
-118.704
-120.728
-122.485
-124.054
-125.43
-126.669
-127.789
-128.832
-129.818
-130.779
-131.727
-132.682
-133.646
-134.629
-135.623
-136.63
-137.637
-138.637
-139.613
-140.555
-141.45
-142.288
-143.06
-143.764
-144.397
-144.959
-145.454
-145.888
-146.267
-146.601
-146.898
-147.17
-147.428
-147.684
-147.951
-148.241
-148.57
-148.949
-149.394
-149.917
-150.531
-151.25
-152.082
-153.037
-154.115
-155.312
-156.573
-157.742
-158.912
-160.069
-161.206
-162.321
-163.407
-164.447
-165.423
-166.311
-167.091
-167.747
-168.267
-168.646
-168.885
-168.99
-168.97
-168.836
-168.603
-168.281
-167.883
-167.421
-166.903
-166.34
-165.741
-30.1162
-37.174
-44.9615
-51.9043
-59.0533
-65.8504
-73.0383
-79.4476
-85.7559
-91.0756
-96.1216
-100.383
-104.396
-107.84
-111.064
-113.858
-116.438
-118.674
-120.7
-122.455
-124.026
-125.402
-126.645
-127.767
-128.813
-129.801
-130.765
-131.714
-132.67
-133.634
-134.614
-135.604
-136.604
-137.6
-138.588
-139.549
-140.475
-141.352
-142.17
-142.922
-143.603
-144.21
-144.745
-145.21
-145.609
-145.95
-146.241
-146.49
-146.707
-146.905
-147.094
-147.285
-147.492
-147.725
-147.996
-148.316
-148.694
-149.139
-149.658
-150.254
-150.927
-151.673
-152.484
-153.325
-154.116
-154.922
-155.712
-156.471
-157.198
-157.889
-158.533
-159.112
-159.607
-160.003
-160.288
-160.458
-160.513
-160.46
-160.307
-160.065
-159.743
-159.354
-158.905
-158.408
-157.87
-157.302
-156.713
-156.112
-30.2561
-37.1813
-44.9558
-51.8987
-59.0592
-65.8313
-73.0217
-79.408
-85.7308
-91.0407
-96.1041
-100.358
-104.382
-107.818
-111.049
-113.836
-116.42
-118.65
-120.678
-122.43
-124.004
-125.38
-126.625
-127.748
-128.798
-129.788
-130.755
-131.704
-132.662
-133.623
-134.602
-135.586
-136.58
-137.567
-138.543
-139.49
-140.4
-141.257
-142.056
-142.785
-143.442
-144.022
-144.527
-144.958
-145.319
-145.617
-145.858
-146.053
-146.21
-146.339
-146.452
-146.558
-146.667
-146.791
-146.936
-147.113
-147.325
-147.578
-147.873
-148.208
-148.579
-148.978
-149.395
-149.821
-150.244
-150.699
-151.146
-151.564
-151.952
-152.307
-152.621
-152.879
-153.066
-153.168
-153.178
-153.097
-152.927
-152.677
-152.356
-151.975
-151.544
-151.071
-150.565
-150.033
-149.485
-148.927
-148.367
-147.811
-30.3285
-37.1826
-44.9555
-51.89
-59.0655
-65.8139
-73.0171
-79.3803
-85.7236
-91.0193
-96.1027
-100.344
-104.382
-107.805
-111.045
-113.821
-116.41
-118.633
-120.665
-122.413
-123.99
-125.365
-126.614
-127.737
-128.789
-129.78
-130.749
-131.699
-132.657
-133.617
-134.594
-135.573
-136.562
-137.54
-138.506
-139.439
-140.335
-141.175
-141.955
-142.663
-143.297
-143.85
-144.325
-144.722
-145.045
-145.3
-145.493
-145.633
-145.729
-145.79
-145.825
-145.844
-145.855
-145.867
-145.886
-145.916
-145.962
-146.023
-146.097
-146.179
-146.263
-146.34
-146.4
-146.46
-146.561
-146.71
-146.868
-147.007
-147.125
-147.219
-147.282
-147.3
-147.261
-147.153
-146.974
-146.724
-146.409
-146.038
-145.622
-145.169
-144.688
-144.189
-143.676
-143.157
-142.636
-142.117
-141.607
-141.108
-30.3369
-37.1781
-44.9614
-51.8798
-59.0733
-65.7996
-73.0248
-79.3651
-85.7344
-91.0124
-96.1179
-100.342
-104.394
-107.802
-111.052
-113.814
-116.411
-118.623
-120.661
-122.403
-123.984
-125.356
-126.608
-127.731
-128.786
-129.777
-130.748
-131.697
-132.657
-133.613
-134.591
-135.564
-136.55
-137.518
-138.476
-139.396
-140.279
-141.103
-141.866
-142.553
-143.164
-143.692
-144.137
-144.5
-144.785
-144.997
-145.141
-145.226
-145.26
-145.251
-145.208
-145.139
-145.051
-144.949
-144.839
-144.722
-144.6
-144.469
-144.326
-144.163
-143.974
-143.749
-143.481
-143.211
-143.025
-142.905
-142.813
-142.72
-142.617
-142.502
-142.367
-142.201
-141.991
-141.73
-141.418
-141.056
-140.652
-140.214
-139.752
-139.274
-138.786
-138.296
-137.807
-137.323
-136.846
-136.38
-135.925
-135.486
-30.2811
-37.1674
-44.9733
-51.8679
-59.0825
-65.7881
-73.0448
-79.3623
-85.7635
-91.0198
-96.1499
-100.352
-104.421
-107.808
-111.07
-113.816
-116.421
-118.622
-120.666
-122.4
-123.986
-125.355
-126.61
-127.731
-128.789
-129.778
-130.752
-131.698
-132.661
-133.613
-134.591
-135.559
-136.542
-137.502
-138.454
-139.362
-140.234
-141.042
-141.789
-142.457
-143.046
-143.548
-143.964
-144.294
-144.541
-144.71
-144.806
-144.837
-144.809
-144.731
-144.611
-144.454
-144.267
-144.053
-143.815
-143.553
-143.265
-142.948
-142.594
-142.199
-141.753
-141.25
-140.683
-140.117
-139.676
-139.318
-139.009
-138.717
-138.429
-138.142
-137.845
-137.53
-137.187
-136.812
-136.405
-135.97
-135.512
-135.041
-134.563
-134.086
-133.613
-133.149
-132.696
-132.256
-131.829
-131.416
-131.02
-130.642
-30.1611
-37.1512
-44.9914
-51.8519
-59.0931
-65.7768
-73.0776
-79.3696
-85.8115
-91.0393
-96.1992
-100.372
-104.461
-107.821
-111.099
-113.823
-116.441
-118.626
-120.68
-122.404
-123.997
-125.359
-126.619
-127.736
-128.798
-129.784
-130.761
-131.703
-132.669
-133.616
-134.597
-135.558
-136.542
-137.491
-138.44
-139.336
-140.2
-140.993
-141.726
-142.374
-142.943
-143.419
-143.808
-144.105
-144.315
-144.442
-144.49
-144.466
-144.378
-144.232
-144.036
-143.793
-143.509
-143.186
-142.823
-142.42
-141.972
-141.476
-140.923
-140.308
-139.623
-138.861
-138.021
-137.185
-136.511
-135.939
-135.434
-134.964
-134.513
-134.073
-133.637
-133.196
-132.744
-132.279
-131.803
-131.319
-130.834
-130.353
-129.883
-129.427
-128.989
-128.569
-128.167
-127.785
-127.421
-127.075
-126.748
-126.44
-29.9914
-37.1337
-45.0149
-51.8324
-59.1052
-65.7655
-73.1212
-79.3845
-85.8749
-91.0672
-96.2619
-100.398
-104.511
-107.839
-111.136
-113.835
-116.469
-118.636
-120.702
-122.414
-124.015
-125.369
-126.635
-127.745
-128.812
-129.791
-130.773
-131.709
-132.68
-133.62
-134.607
-135.559
-136.547
-137.486
-138.436
-139.319
-140.18
-140.958
-141.682
-142.312
-142.865
-143.318
-143.683
-143.95
-144.127
-144.216
-144.221
-144.15
-144.007
-143.802
-143.538
-143.22
-142.851
-142.433
-141.962
-141.436
-140.85
-140.198
-139.474
-138.671
-137.782
-136.803
-135.732
-134.669
-133.796
-133.04
-132.369
-131.746