/*--------------------------------*- C++ -*----------------------------------*\
| =========                 |                                                 |
| \\      /  F ield         | OpenFOAM: The Open Source CFD Toolbox           |
|  \\    /   O peration     | Version:  5.x                                   |
|   \\  /    A nd           | Web:      www.OpenFOAM.org                      |
|    \\/     M anipulation  |                                                 |
\*---------------------------------------------------------------------------*/
FoamFile
{
    version     2.0;
    format      ascii;
    class       surfaceScalarField;
    location    "100";
    object      phi;
}
// * * * * * * * * * * * * * * * * * * * * * * * * * * * * * * * * * * * * * //

dimensions      [0 3 -1 0 0 0 0];

internalField   nonuniform List<scalar> 
40747
(
1.4879e-05
1.45534e-09
6.59299e-06
8.28578e-06
1.79987e-05
3.91307e-09
1.30877e-05
1.15033e-05
2.17726e-05
7.70376e-09
1.98607e-05
1.49983e-05
2.63376e-05
1.34117e-08
2.70053e-05
1.91909e-05
3.18595e-05
2.18183e-08
3.45379e-05
2.43233e-05
3.85389e-05
3.39427e-08
4.24236e-05
3.06474e-05
4.66184e-05
5.10846e-08
5.05769e-05
3.84554e-05
5.63913e-05
7.48656e-08
5.88583e-05
4.80947e-05
6.82129e-05
1.07268e-07
6.70692e-05
5.99784e-05
8.25127e-05
1.50676e-07
7.49506e-05
7.45956e-05
9.98103e-05
2.0792e-07
8.21894e-05
9.25184e-05
0.000120735
2.8235e-07
8.8439e-05
0.000114408
0.000146046
3.77924e-07
9.33601e-05
0.000141013
0.000176665
4.99295e-07
9.66944e-05
0.00017317
0.000213705
6.51834e-07
9.84026e-05
0.000211771
0.000258514
8.41457e-07
9.87798e-05
0.000257826
0.00031272
1.07421e-06
9.82539e-05
0.000312833
0.000378298
1.35572e-06
9.71269e-05
0.000378885
0.000457635
1.69062e-06
9.55378e-05
0.000458528
0.000553618
2.08171e-06
9.35103e-05
0.00055476
0.000669744
2.52876e-06
9.10007e-05
0.000671137
0.00081024
3.02679e-06
8.79274e-05
0.000811917
0.000980226
3.56355e-06
8.41838e-05
0.000982235
0.00118589
4.11613e-06
7.96418e-05
0.00118829
0.00143474
4.64679e-06
7.41511e-05
0.00143759
0.00173582
5.09795e-06
6.75369e-05
0.00173922
0.00210012
5.38754e-06
5.95984e-05
0.00210415
0.00254089
5.4447e-06
5.0262e-05
0.00254566
0.00307419
5.2088e-06
3.96955e-05
0.00307983
0.00371939
4.57772e-06
2.76544e-05
0.00372605
0.00356413
3.42549e-06
1.54226e-05
0.00357039
0.0035643
2.02515e-06
2.97445e-06
0.00357047
0.00356431
5.94165e-07
-9.48003e-06
0.00357046
0.00356419
-6.20645e-07
-2.15221e-05
0.00357035
0.00360667
-1.45969e-06
-3.32926e-05
0.00361295
0.00300004
-2.02999e-06
-4.38975e-05
0.00300535
0.00249543
-2.34197e-06
-5.32902e-05
0.00249991
0.00207569
-2.44178e-06
-6.14905e-05
0.00207949
0.00172657
-2.38533e-06
-6.85656e-05
0.00172978
0.00143619
-2.22492e-06
-7.46108e-05
0.0014389
0.00119465
-2.00378e-06
-7.97346e-05
0.00119694
0.000993755
-1.75476e-06
-8.40472e-05
0.000995682
0.000826653
-1.50124e-06
-8.76544e-05
0.000828273
0.000687659
-1.2588e-06
-9.06527e-05
0.000689018
0.000572045
-1.03694e-06
-9.31243e-05
0.000573174
0.000475875
-8.40698e-07
-9.51274e-05
0.00047679
0.000395879
-6.71929e-07
-9.66759e-05
0.000396553
0.000329335
-5.30243e-07
-9.77035e-05
0.000329667
0.00027398
-4.13748e-07
-9.8017e-05
0.000273748
0.000227931
-3.19609e-07
-9.72746e-05
0.000226769
0.000189624
-2.44538e-07
-9.51043e-05
0.000187137
0.000157756
-1.85268e-07
-9.13648e-05
0.000153782
0.000131244
-1.3886e-07
-8.61895e-05
0.000125898
0.000109188
-1.02807e-07
-7.98507e-05
0.000102728
9.08393e-05
-7.50232e-08
-7.26672e-05
8.35707e-05
7.5574e-05
-5.3798e-08
-6.49509e-05
6.77993e-05
6.28741e-05
-3.77471e-08
-5.69777e-05
5.48615e-05
5.23083e-05
-2.57629e-08
-4.8973e-05
4.42776e-05
4.3518e-05
-1.69629e-08
-4.11086e-05
3.56368e-05
3.62046e-05
-1.06407e-08
-3.35046e-05
2.85899e-05
3.01202e-05
-6.22558e-09
-2.62333e-05
2.28422e-05
2.50581e-05
-3.36318e-09
-1.93227e-05
1.81431e-05
2.08468e-05
-1.94274e-09
-1.27537e-05
1.42742e-05
1.7343e-05
-9.10224e-10
-6.4321e-06
1.10196e-05
1.44282e-05
7.99606e-06
1.89051e-06
6.39497e-06
1.46632e-06
4.24005e-07
1.19424e-06
2.71951e-07
9.69352e-07
2.24787e-07
7.9329e-07
1.7597e-07
6.62256e-07
1.30973e-07
5.67216e-07
9.49359e-08
4.98389e-07
6.87748e-08
4.46581e-07
5.16818e-08
4.05932e-07
4.06004e-08
3.73144e-07
3.26658e-08
3.46673e-07
2.6431e-08
3.25305e-07
2.12667e-08
3.08181e-07
1.70941e-08
2.94429e-07
1.36798e-08
2.83434e-07
1.09778e-08
2.746e-07
8.79834e-09
2.67508e-07
7.09674e-09
2.6177e-07
5.74078e-09
2.57117e-07
4.68989e-09
2.53316e-07
3.84365e-09
2.50213e-07
3.17579e-09
2.47681e-07
2.61267e-09
2.45637e-07
2.152e-09
2.44012e-07
1.7396e-09
2.42761e-07
1.38957e-09
2.41844e-07
1.05953e-09
2.41235e-07
7.69417e-10
2.40908e-07
4.8655e-10
2.40849e-07
2.30183e-10
2.41041e-07
-2.60806e-11
2.41484e-07
-2.70645e-10
2.42169e-07
-5.1612e-10
2.43087e-07
-7.46522e-10
2.44229e-07
-9.69072e-10
2.45591e-07
-1.18416e-09
2.47169e-07
-1.39378e-09
2.48958e-07
-1.59656e-09
2.50957e-07
-1.79663e-09
2.5317e-07
-2.00134e-09
2.55606e-07
-2.21589e-09
2.58279e-07
-2.44603e-09
2.61208e-07
-2.69594e-09
2.64415e-07
-2.97177e-09
2.6793e-07
-3.2784e-09
2.71784e-07
-3.62005e-09
2.76013e-07
-3.99901e-09
2.80655e-07
-4.41714e-09
2.85747e-07
-4.87443e-09
2.91329e-07
-5.37159e-09
2.97441e-07
-5.90801e-09
3.04123e-07
-6.48374e-09
3.11418e-07
-7.09841e-09
3.19378e-07
-7.7591e-09
3.28055e-07
-8.45202e-09
3.37516e-07
-9.22473e-09
3.47855e-07
-1.00263e-08
3.59149e-07
-1.09812e-08
3.71557e-07
-1.196e-08
3.85112e-07
-1.31358e-08
3.99963e-07
-1.42615e-08
4.1753e-07
-1.70632e-08
4.37961e-07
-1.96875e-08
4.5121e-07
-1.2544e-08
4.62634e-07
-1.03414e-08
4.73693e-07
-1.01413e-08
4.85756e-07
-1.1058e-08
4.98239e-07
-1.14652e-08
5.11094e-07
-1.18907e-08
5.2384e-07
-1.17099e-08
5.36661e-07
-1.20566e-08
5.49239e-07
-1.17424e-08
5.61956e-07
-1.23079e-08
5.74723e-07
-1.21633e-08
5.87928e-07
-1.30262e-08
6.01817e-07
-1.32213e-08
6.16719e-07
-1.4522e-08
6.32992e-07
-1.53512e-08
6.5083e-07
-1.71856e-08
6.70958e-07
-1.948e-08
6.93817e-07
-2.28112e-08
7.18437e-07
-2.53508e-08
7.44547e-07
-2.83554e-08
7.74513e-07
-3.3867e-08
8.11415e-07
-4.44921e-08
8.52843e-07
-5.14e-08
9.01026e-07
-6.08004e-08
-5.49136e-07
1.43583e-06
4.82278e-06
1.30748e-05
3.86651e-06
1.37992e-06
3.28023e-06
8.57971e-07
2.77547e-06
7.29346e-07
2.35528e-06
5.95969e-07
2.02464e-06
4.61483e-07
1.77402e-06
3.45327e-07
1.58637e-06
2.56307e-07
1.44196e-06
1.95814e-07
1.32683e-06
1.55625e-07
1.23264e-06
1.26586e-07
1.15558e-06
1.03402e-07
1.09255e-06
8.40711e-08
1.04149e-06
6.80853e-08
1.00005e-06
5.49557e-08
9.66672e-07
4.43245e-08
9.39649e-07
3.57446e-08
9.17855e-07
2.89077e-08
9.00146e-07
2.34639e-08
8.8576e-07
1.91661e-08
8.73991e-07
1.57184e-08
8.64398e-07
1.2943e-08
8.56574e-07
1.06304e-08
8.50291e-07
8.69099e-09
8.45304e-07
6.99802e-09
8.41502e-07
5.51792e-09
8.38722e-07
4.17414e-09
8.36909e-07
2.95731e-09
8.35948e-07
1.81991e-09
8.35815e-07
7.60997e-10
8.36438e-07
-2.62406e-10
8.37831e-07
-1.26423e-09
8.39948e-07
-2.24129e-09
8.42752e-07
-3.15123e-09
8.46205e-07
-4.01953e-09
8.50317e-07
-4.88081e-09
8.55088e-07
-5.73452e-09
8.60518e-07
-6.57659e-09
8.66611e-07
-7.41799e-09
8.73385e-07
-8.2824e-09
8.80869e-07
-9.18787e-09
8.89102e-07
-1.01526e-08
8.98137e-07
-1.11918e-08
9.08035e-07
-1.23268e-08
9.18876e-07
-1.35755e-08
9.30747e-07
-1.49533e-08
9.43745e-07
-1.64695e-08
9.57972e-07
-1.81309e-08
9.73534e-07
-1.99385e-08
9.90534e-07
-2.18934e-08
1.00909e-06
-2.3995e-08
1.02929e-06
-2.62409e-08
1.05128e-06
-2.86366e-08
1.07518e-06
-3.11994e-08
1.10116e-06
-3.39087e-08
1.12936e-06
-3.68788e-08
1.1601e-06
-4.00315e-08
1.19347e-06
-4.36324e-08
1.23e-06
-4.74493e-08
1.2696e-06
-5.17804e-08
1.31273e-06
-5.60407e-08
1.36344e-06
-6.66388e-08
1.42251e-06
-7.70618e-08
1.46097e-06
-4.93846e-08
1.4941e-06
-4.1076e-08
1.52578e-06
-3.9751e-08
1.5596e-06
-4.26369e-08
1.59489e-06
-4.44722e-08
1.63061e-06
-4.54825e-08
1.66659e-06
-4.54024e-08
1.702e-06
-4.58154e-08
1.73751e-06
-4.54335e-08
1.77257e-06
-4.65199e-08
1.80868e-06
-4.69371e-08
1.84537e-06
-4.92983e-08
1.8848e-06
-5.1106e-08
1.92639e-06
-5.51879e-08
1.97187e-06
-5.87733e-08
2.02065e-06
-6.45418e-08
2.07411e-06
-7.16604e-08
2.13163e-06
-8.04648e-08
2.19122e-06
-8.69323e-08
2.25144e-06
-9.42188e-08
2.31449e-06
-1.06473e-07
2.38138e-06
-1.29616e-07
2.4273e-06
-1.20789e-07
2.47917e-06
-1.40354e-07
-3.95027e-07
2.29354e-06
7.69034e-06
2.03818e-05
6.22122e-06
2.84864e-06
5.35142e-06
1.72748e-06
4.60056e-06
1.47999e-06
3.96202e-06
1.23429e-06
3.44847e-06
9.74884e-07
3.05207e-06
7.41458e-07
2.75125e-06
5.57e-07
2.51817e-06
4.28575e-07
2.33163e-06
3.42041e-07
2.17863e-06
2.79277e-07
2.05284e-06
2.29085e-07
1.94958e-06
1.87073e-07
1.8655e-06
1.52089e-07
1.79707e-06
1.23205e-07
1.7417e-06
9.96502e-08
1.69679e-06
8.0569e-08
1.66044e-06
6.52827e-08
1.63084e-06
5.30857e-08
1.60669e-06
4.34207e-08
1.58688e-06
3.56602e-08
1.57064e-06
2.93882e-08
1.55735e-06
2.4158e-08
1.5466e-06
1.97445e-08
1.53803e-06
1.58906e-08
1.53145e-06
1.24939e-08
1.5266e-06
9.41403e-09
1.52341e-06
6.60316e-09
1.52168e-06
3.98514e-09
1.52138e-06
1.53329e-09
1.5224e-06
-8.2593e-10
1.52476e-06
-3.14575e-09
1.52839e-06
-5.40499e-09
1.53323e-06
-7.52349e-09
1.53924e-06
-9.54441e-09
1.54639e-06
-1.1543e-08
1.55468e-06
-1.35136e-08
1.56408e-06
-1.54455e-08
1.57459e-06
-1.73626e-08
1.58621e-06
-1.93169e-08
1.59898e-06
-2.13508e-08
1.61295e-06
-2.35058e-08
1.62821e-06
-2.58182e-08
1.64486e-06
-2.83372e-08
1.66303e-06
-3.11041e-08
1.68287e-06
-3.41542e-08
1.70452e-06
-3.7508e-08
1.72818e-06
-4.11797e-08
1.75399e-06
-4.51707e-08
1.78214e-06
-4.94807e-08
1.81279e-06
-5.41083e-08
1.84613e-06
-5.90456e-08
1.88233e-06
-6.43111e-08
1.92161e-06
-6.99443e-08
1.96423e-06
-7.59168e-08
2.01047e-06
-8.2471e-08
2.06078e-06
-8.94861e-08
2.11547e-06
-9.74675e-08
2.17527e-06
-1.0603e-07
2.24025e-06
-1.1564e-07
2.31096e-06
-1.25173e-07
2.39474e-06
-1.49102e-07
2.49162e-06
-1.71949e-07
2.55633e-06
-1.122e-07
2.61404e-06
-9.60032e-08
2.66844e-06
-9.17418e-08
2.72605e-06
-9.76252e-08
2.78624e-06
-1.01993e-07
2.84745e-06
-1.04211e-07
2.90909e-06
-1.04382e-07
2.96999e-06
-1.04817e-07
3.03077e-06
-1.04102e-07
3.09087e-06
-1.05646e-07
3.15208e-06
-1.06582e-07
3.21417e-06
-1.10898e-07
3.27999e-06
-1.15072e-07
3.3494e-06
-1.23464e-07
3.42486e-06
-1.31793e-07
3.50626e-06
-1.4428e-07
3.59607e-06
-1.60035e-07
3.69431e-06
-1.79004e-07
3.79853e-06
-1.93708e-07
3.90699e-06
-2.09771e-07
4.02371e-06
-2.35077e-07
4.15364e-06
-2.82088e-07
4.26343e-06
-2.59398e-07
4.33499e-06
-2.44862e-07
1.6637e-07
3.73517e-06
1.10966e-05
2.84747e-05
9.00749e-06
4.93721e-06
7.79247e-06
2.94214e-06
6.74898e-06
2.52319e-06
5.85153e-06
2.13146e-06
5.12054e-06
1.70569e-06
4.55031e-06
1.31136e-06
4.11437e-06
9.9278e-07
3.77566e-06
7.66877e-07
3.50449e-06
6.13054e-07
3.28206e-06
5.01312e-07
3.09893e-06
4.12088e-07
2.94836e-06
3.37312e-07
2.82549e-06
2.74864e-07
2.72534e-06
2.23126e-07
2.64416e-06
1.80786e-07
2.57822e-06
1.4639e-07
2.52477e-06
1.18769e-07
2.48119e-06
9.66922e-08
2.44557e-06
7.91763e-08
2.4163e-06
6.5101e-08
2.39224e-06
5.37103e-08
2.37249e-06
4.41996e-08
2.35648e-06
3.61515e-08
2.34367e-06
2.91097e-08
2.33378e-06
2.28788e-08
2.32648e-06
1.72194e-08
2.32161e-06
1.20354e-08
2.31895e-06
7.20464e-09
2.31841e-06
2.6697e-09
2.31986e-06
-1.69257e-09
2.3233e-06
-5.99034e-09
2.32866e-06
-1.0182e-08
2.33587e-06
-1.41337e-08
2.34484e-06
-1.79079e-08
2.35555e-06
-2.16279e-08
2.36796e-06
-2.52778e-08
2.38202e-06
-2.88349e-08
2.39771e-06
-3.23412e-08
2.41502e-06
-3.58906e-08
2.43399e-06
-3.9563e-08
2.45471e-06
-4.34359e-08
2.47727e-06
-4.75801e-08
2.50183e-06
-5.20874e-08
2.52857e-06
-5.70362e-08
2.5577e-06
-6.24917e-08
2.58946e-06
-6.84922e-08
2.6241e-06
-7.50623e-08
2.66187e-06
-8.22033e-08
2.703e-06
-8.99115e-08
2.74776e-06
-9.81838e-08
2.79638e-06
-1.07003e-07
2.84914e-06
-1.1641e-07
2.90636e-06
-1.26479e-07
2.96839e-06
-1.37176e-07
3.03566e-06
-1.48936e-07
3.10884e-06
-1.61583e-07
3.18842e-06
-1.75974e-07
3.27543e-06
-1.9151e-07
3.3701e-06
-2.08898e-07
3.47317e-06
-2.26258e-07
3.59543e-06
-2.69695e-07
3.73624e-06
-3.10255e-07
3.8321e-06
-2.05665e-07
3.91972e-06
-1.80118e-07
4.00187e-06
-1.70849e-07
4.08805e-06
-1.80509e-07
4.17805e-06
-1.88608e-07
4.26981e-06
-1.92836e-07
4.36238e-06
-1.9358e-07
4.45412e-06
-1.94158e-07
4.54564e-06
-1.92957e-07
4.63624e-06
-1.95016e-07
4.72815e-06
-1.96494e-07
4.82121e-06
-2.03323e-07
4.91913e-06
-2.10615e-07
5.02204e-06
-2.24908e-07
5.1333e-06
-2.39928e-07
5.25313e-06
-2.61984e-07
5.38499e-06
-2.90102e-07
5.52944e-06
-3.2389e-07
5.68375e-06
-3.51407e-07
5.84576e-06
-3.81053e-07
6.02062e-06
-4.25435e-07
6.21441e-06
-5.05179e-07
6.38624e-06
-4.68559e-07
6.45961e-06
-3.60369e-07
9.27487e-07
5.64809e-06
1.53366e-05
3.7459e-05
1.24875e-05
7.78559e-06
1.08377e-05
4.59136e-06
9.43177e-06
3.92879e-06
8.21318e-06
3.34968e-06
7.21064e-06
2.70798e-06
6.42178e-06
2.09977e-06
5.81508e-06
1.59926e-06
5.34268e-06
1.23874e-06
4.96453e-06
9.90996e-07
4.65443e-06
8.10884e-07
4.39894e-06
6.67411e-07
4.18863e-06
5.47176e-07
4.01674e-06
4.46625e-07
3.87643e-06
3.6313e-07
3.76251e-06
2.9464e-07
3.66987e-06
2.38876e-07
3.59466e-06
1.94017e-07
3.53329e-06
1.58106e-07
3.48306e-06
1.29587e-07
3.44173e-06
1.06654e-07
3.40772e-06
8.80796e-08
3.37976e-06
7.25542e-08
3.35704e-06
5.93928e-08
3.33885e-06
4.78574e-08
3.32476e-06
3.76261e-08
3.31434e-06
2.83191e-08
3.30736e-06
1.97781e-08
3.3035e-06
1.18142e-08
3.30264e-06
4.3314e-09
3.3046e-06
-2.86863e-09
3.30938e-06
-9.97126e-09
3.3169e-06
-1.69091e-08
3.32704e-06
-2.34729e-08
3.33969e-06
-2.9751e-08
3.35482e-06
-3.59262e-08
3.37238e-06
-4.19654e-08
3.39227e-06
-4.78251e-08
3.41444e-06
-5.35705e-08
3.43889e-06
-5.93527e-08
3.46566e-06
-6.53043e-08
3.49483e-06
-7.15557e-08
3.52655e-06
-7.8228e-08
3.56101e-06
-8.54753e-08
3.59848e-06
-9.34295e-08
3.63925e-06
-1.02199e-07
3.68365e-06
-1.11849e-07
3.73201e-06
-1.22418e-07
3.78469e-06
-1.33907e-07
3.84203e-06
-1.46306e-07
3.90436e-06
-1.59608e-07
3.97202e-06
-1.73785e-07
4.0454e-06
-1.88906e-07
4.12492e-06
-2.05099e-07
4.2111e-06
-2.22325e-07
4.30452e-06
-2.41283e-07
4.4061e-06
-2.61728e-07
4.51655e-06
-2.85e-07
4.63729e-06
-3.10214e-07
4.76868e-06
-3.3841e-07
4.9118e-06
-3.66747e-07
5.08105e-06
-4.36742e-07
5.27505e-06
-5.00923e-07
5.40905e-06
-3.36481e-07
5.53415e-06
-3.00583e-07
5.65135e-06
-2.84002e-07
5.7731e-06
-2.97882e-07
5.8999e-06
-3.10913e-07
6.02932e-06
-3.18103e-07
6.16013e-06
-3.19911e-07
6.2901e-06
-3.20934e-07
6.41992e-06
-3.19233e-07
6.54857e-06
-3.22029e-07
6.67891e-06
-3.24172e-07
6.81067e-06
-3.34225e-07
6.94864e-06
-3.45422e-07
7.093e-06
-3.67295e-07
7.24816e-06
-3.90929e-07
7.41446e-06
-4.25449e-07
7.59626e-06
-4.69528e-07
7.79438e-06
-5.22628e-07
8.00605e-06
-5.67624e-07
8.22843e-06
-6.1583e-07
8.46714e-06
-6.8481e-07
8.72643e-06
-8.03319e-07
8.95802e-06
-7.49446e-07
9.03637e-06
-4.93731e-07
1.70251e-06
8.19386e-06
2.06966e-05
4.74061e-05
1.69178e-05
1.15633e-05
1.47153e-05
6.79318e-06
1.2854e-05
5.78958e-06
1.1231e-05
4.97212e-06
9.88363e-06
4.05504e-06
8.81467e-06
3.16812e-06
7.98776e-06
2.42587e-06
7.34246e-06
1.8833e-06
6.826e-06
1.50716e-06
6.40266e-06
1.2335e-06
6.05375e-06
1.01608e-06
5.76628e-06
8.34033e-07
5.531e-06
6.81726e-07
5.33863e-06
5.55067e-07
5.18219e-06
4.50986e-07
5.05478e-06
3.66076e-07
4.9512e-06
2.97656e-07
4.86656e-06
2.42791e-07
4.79724e-06
1.99167e-07
4.74015e-06
1.64056e-07
4.69313e-06
1.35594e-07
4.65446e-06
1.1178e-07
4.62302e-06
9.15632e-08
4.59783e-06
7.38208e-08
4.57832e-06
5.80599e-08
4.56387e-06
4.3711e-08
4.55418e-06
3.0534e-08
4.54879e-06
1.82491e-08
4.54753e-06
6.70924e-09
4.55015e-06
-4.39502e-09
4.55665e-06
-1.53581e-08
4.56692e-06
-2.60773e-08
4.58081e-06
-3.62389e-08
4.59815e-06
-4.59703e-08
4.61892e-06
-5.55332e-08
4.64303e-06
-6.48671e-08
4.67035e-06
-7.38959e-08
4.70081e-06
-8.27118e-08
4.73437e-06
-9.1541e-08
4.77107e-06
-1.00588e-07
4.81103e-06
-1.10056e-07
4.85443e-06
-1.2014e-07
4.90152e-06
-1.31078e-07
4.95266e-06
-1.43079e-07
5.00824e-06
-1.56311e-07
5.06871e-06
-1.70876e-07
5.13452e-06
-1.86832e-07
5.20614e-06
-2.04179e-07
5.28403e-06
-2.22899e-07
5.36865e-06
-2.42978e-07
5.46045e-06
-2.6437e-07
5.55994e-06
-2.87186e-07
5.66771e-06
-3.11624e-07
5.78443e-06
-3.37642e-07
5.91091e-06
-3.66286e-07
6.04838e-06
-3.97225e-07
6.19777e-06
-4.32433e-07
6.36098e-06
-4.70644e-07
6.53852e-06
-5.13368e-07
6.73196e-06
-5.56588e-07
6.95946e-06
-6.61218e-07
7.21853e-06
-7.55438e-07
7.39946e-06
-5.13063e-07
7.57169e-06
-4.66492e-07
7.73338e-06
-4.40177e-07
7.89979e-06
-4.58309e-07
8.07235e-06
-4.77346e-07
8.24844e-06
-4.88515e-07
8.42663e-06
-4.91998e-07
8.60402e-06
-4.93957e-07
8.7815e-06
-4.91888e-07
8.95756e-06
-4.9585e-07
9.1359e-06
-4.989e-07
9.31595e-06
-5.13089e-07
9.50384e-06
-5.29023e-07
9.69952e-06
-5.6027e-07
9.90861e-06
-5.94392e-07
1.01313e-05
-6.44272e-07
1.03726e-05
-7.07684e-07
1.06334e-05
-7.84246e-07
1.09108e-05
-8.51205e-07
1.12011e-05
-9.22867e-07
1.15097e-05
-1.02113e-06
1.18358e-05
-1.18107e-06
1.21241e-05
-1.10301e-06
1.22193e-05
-6.60756e-07
2.35362e-06
1.14786e-05
2.75078e-05
5.83479e-05
2.26038e-05
1.64656e-05
1.96975e-05
9.69853e-06
1.72611e-05
8.2252e-06
1.51258e-05
7.10665e-06
1.33372e-05
5.84318e-06
1.19061e-05
4.59831e-06
1.07923e-05
3.53926e-06
9.92083e-06
2.75369e-06
9.22346e-06
2.20413e-06
8.65209e-06
1.80382e-06
8.18122e-06
1.48661e-06
7.79293e-06
1.22143e-06
7.47475e-06
9.99648e-07
7.21412e-06
8.15074e-07
7.0018e-06
6.63174e-07
6.82856e-06
5.39021e-07
6.68749e-06
4.38802e-07
6.57207e-06
3.58274e-07
6.47747e-06
2.94142e-07
6.3995e-06
2.42462e-07
6.33529e-06
2.00522e-07
6.28247e-06
1.65395e-07
6.23954e-06
1.3553e-07
6.20518e-06
1.09296e-07
6.1786e-06
8.59689e-08
6.15893e-06
6.47288e-08
6.14576e-06
4.52299e-08
6.13844e-06
2.70701e-08
6.13672e-06
1.00351e-08
6.14023e-06
-6.34914e-09
6.14901e-06
-2.2531e-08
6.16286e-06
-3.83571e-08
6.1816e-06
-5.33692e-08
6.205e-06
-6.77591e-08
6.23302e-06
-8.18976e-08
6.26555e-06
-9.56833e-08
6.30244e-06
-1.08991e-07
6.34355e-06
-1.21942e-07
6.38882e-06
-1.3486e-07
6.4383e-06
-1.48044e-07
6.49212e-06
-1.618e-07
6.55051e-06
-1.7642e-07
6.61382e-06
-1.92263e-07
6.68249e-06
-2.09636e-07
6.75706e-06
-2.28793e-07
6.8381e-06
-2.49881e-07
6.92623e-06
-2.72991e-07
7.02208e-06
-2.98116e-07
7.12624e-06
-3.25227e-07
7.23932e-06
-3.54298e-07
7.36193e-06
-3.85264e-07
7.49474e-06
-4.18285e-07
7.63852e-06
-4.5365e-07
7.79418e-06
-4.9132e-07
7.96274e-06
-5.32777e-07
8.14586e-06
-5.77579e-07
8.3447e-06
-6.28524e-07
8.56177e-06
-6.83821e-07
8.79767e-06
-7.45655e-07
9.05472e-06
-8.0859e-07
9.3548e-06
-9.57066e-07
9.69385e-06
-1.08813e-06
9.93247e-06
-7.45639e-07
1.01637e-05
-6.88883e-07
1.03817e-05
-6.50546e-07
1.06042e-05
-6.72515e-07
1.08337e-05
-6.98352e-07
1.10675e-05
-7.14453e-07
1.13042e-05
-7.20256e-07
1.15401e-05
-7.23803e-07
1.17765e-05
-7.21624e-07
1.20112e-05
-7.27418e-07
1.2249e-05
-7.31747e-07
1.24888e-05
-7.5123e-07
1.27384e-05
-7.72779e-07
1.29972e-05
-8.15313e-07
1.32722e-05
-8.6171e-07
1.3563e-05
-9.29782e-07
1.38751e-05
-1.01556e-06
1.42088e-05
-1.11919e-06
1.45613e-05
-1.21214e-06
1.49277e-05
-1.31178e-06
1.53123e-05
-1.44287e-06
1.57058e-05
-1.64312e-06
1.60481e-05
-1.53106e-06
1.61711e-05
-8.76367e-07
2.84443e-06
1.55635e-05
3.61701e-05
7.02636e-05
2.99274e-05
2.27056e-05
2.6128e-05
1.34964e-05
2.29641e-05
1.1388e-05
2.01783e-05
9.89139e-06
1.78233e-05
8.1975e-06
1.59219e-05
6.49838e-06
1.4432e-05
5.02853e-06
1.32626e-05
3.92152e-06
1.23267e-05
3.13941e-06
1.15604e-05
2.56863e-06
1.09291e-05
2.11742e-06
1.04081e-05
1.74106e-06
9.98078e-06
1.42662e-06
9.63002e-06
1.16492e-06
9.34371e-06
9.49282e-07
9.1096e-06
7.72693e-07
8.91865e-06
6.29864e-07
8.76219e-06
5.14826e-07
8.63386e-06
4.23015e-07
8.52805e-06
3.48911e-07
8.44094e-06
2.88681e-07
8.36931e-06
2.38179e-07
8.31119e-06
1.9518e-07
8.26473e-06
1.5738e-07
8.22889e-06
1.23751e-07
8.20246e-06
9.31475e-08
8.18483e-06
6.50864e-08
8.17509e-06
3.90051e-08
8.17287e-06
1.45995e-08
8.17765e-06
-8.8484e-09
8.18947e-06
-3.20042e-08
8.20805e-06
-5.46392e-08
8.23311e-06
-7.60957e-08
8.26438e-06
-9.66754e-08
8.30181e-06
-1.16906e-07
8.34525e-06
-1.36625e-07
8.3945e-06
-1.55636e-07
8.44938e-06
-1.74089e-07
8.50979e-06
-1.92433e-07
8.57577e-06
-2.11088e-07
8.64748e-06
-2.30503e-07
8.72522e-06
-2.51102e-07
8.80943e-06
-2.73403e-07
8.90071e-06
-2.97847e-07
8.99972e-06
-3.24799e-07
9.10726e-06
-3.5447e-07
9.2241e-06
-3.86989e-07
9.35108e-06
-4.22344e-07
9.48898e-06
-4.60488e-07
9.6386e-06
-5.01377e-07
9.80072e-06
-5.44921e-07
9.97623e-06
-5.91337e-07
1.01661e-05
-6.41034e-07
1.03716e-05
-6.93974e-07
1.0594e-05
-7.52186e-07
1.08354e-05
-8.15069e-07
1.10973e-05
-8.86489e-07
1.13829e-05
-9.63908e-07
1.16929e-05
-1.0505e-06
1.20306e-05
-1.13911e-06
1.24214e-05
-1.34185e-06
1.28591e-05
-1.51682e-06
1.31685e-05
-1.04653e-06
1.34729e-05
-9.80858e-07
1.37618e-05
-9.28679e-07
1.40546e-05
-9.53676e-07
1.43549e-05
-9.86704e-07
1.46599e-05
-1.00848e-06
1.49686e-05
-1.01715e-06
1.52763e-05
-1.02304e-06
1.55851e-05
-1.02111e-06
1.58917e-05
-1.02966e-06
1.62026e-05
-1.03576e-06
1.65157e-05
-1.06197e-06
1.6841e-05
-1.09006e-06
1.71767e-05
-1.1459e-06
1.75317e-05
-1.20624e-06
1.79043e-05
-1.29521e-06
1.83004e-05
-1.40598e-06
1.87191e-05
-1.5396e-06
1.91574e-05
-1.66195e-06
1.96089e-05
-1.79349e-06
2.0076e-05
-1.9597e-06
2.05381e-05
-2.19514e-06
2.09335e-05
-2.03811e-06
2.10903e-05
-1.15076e-06
3.20635e-06
2.05797e-05
4.71702e-05
8.30583e-05
3.93724e-05
3.04991e-05
3.44487e-05
1.84177e-05
3.03649e-05
1.547e-05
2.67526e-05
1.3502e-05
2.36698e-05
1.12793e-05
2.11563e-05
9.00997e-06
1.91717e-05
7.0122e-06
1.76079e-05
5.48301e-06
1.63557e-05
4.39066e-06
1.5331e-05
3.59108e-06
1.44874e-05
2.96025e-06
1.37911e-05
2.4355e-06
1.32192e-05
1.9979e-06
1.27488e-05
1.63396e-06
1.23641e-05
1.33373e-06
1.20487e-05
1.08738e-06
1.17911e-05
8.87681e-07
1.15796e-05
7.26401e-07
1.14061e-05
5.97341e-07
1.1263e-05
4.92958e-07
1.11453e-05
4.0796e-07
1.10486e-05
3.36601e-07
1.09703e-05
2.75755e-07
1.09079e-05
2.22239e-07
1.08599e-05
1.74619e-07
1.08246e-05
1.31332e-07
1.08013e-05
9.17204e-08
1.07886e-05
5.50122e-08
1.07859e-05
2.07831e-08
1.07925e-05
-1.20466e-08
1.08084e-05
-4.4449e-08
1.08333e-05
-7.60812e-08
1.08666e-05
-1.06012e-07
1.09082e-05
-1.34733e-07
1.09579e-05
-1.63002e-07
1.10155e-05
-1.90564e-07
1.10808e-05
-2.17116e-07
1.11536e-05
-2.42837e-07
1.12337e-05
-2.68331e-07
1.13211e-05
-2.9418e-07
1.14161e-05
-3.21022e-07
1.15189e-05
-3.4946e-07
1.16303e-05
-3.80228e-07
1.17508e-05
-4.13935e-07
1.18816e-05
-4.51094e-07
1.20234e-05
-4.92001e-07
1.21774e-05
-5.36832e-07
1.23447e-05
-5.85565e-07
1.25261e-05
-6.38131e-07
1.27229e-05
-6.94456e-07
1.2936e-05
-7.5442e-07
1.31666e-05
-8.183e-07
1.34158e-05
-8.86656e-07
1.36854e-05
-9.59451e-07
1.39769e-05
-1.03939e-06
1.42932e-05
-1.12564e-06
1.46358e-05
-1.22343e-06
1.50091e-05
-1.32917e-06
1.54135e-05
-1.44746e-06
1.58538e-05
-1.56908e-06
1.63585e-05
-1.83777e-06
1.69185e-05
-2.06387e-06
1.73147e-05
-1.43062e-06
1.77093e-05
-1.35782e-06
1.80868e-05
-1.29083e-06
1.84674e-05
-1.3178e-06
1.88555e-05
-1.35795e-06
1.92484e-05
-1.3858e-06
1.96455e-05
-1.39766e-06
2.00411e-05
-1.40674e-06
2.04384e-05
-1.40545e-06
2.08329e-05
-1.41798e-06
2.12331e-05
-1.42652e-06
2.16357e-05
-1.46121e-06
2.20535e-05
-1.4968e-06
2.24828e-05
-1.56807e-06
2.29347e-05
-1.64393e-06
2.34056e-05
-1.75633e-06
2.39014e-05
-1.89432e-06
2.44195e-05
-2.06022e-06
2.49566e-05
-2.2148e-06
2.55043e-05
-2.38156e-06
2.60627e-05
-2.58393e-06
2.65964e-05
-2.8456e-06
2.70484e-05
-2.63339e-06
2.72479e-05
-1.49651e-06
3.39074e-06
2.68804e-05
6.10969e-05
9.65365e-05
5.15517e-05
4.00368e-05
4.52294e-05
2.47362e-05
3.99851e-05
2.07117e-05
3.53241e-05
1.81606e-05
3.13066e-05
1.52951e-05
2.79963e-05
1.23174e-05
2.536e-05
9.64702e-06
2.32725e-05
7.56701e-06
2.15992e-05
6.06261e-06
2.02304e-05
4.95646e-06
1.91047e-05
4.08481e-06
1.81752e-05
3.36201e-06
1.74114e-05
2.76089e-06
1.67816e-05
2.2617e-06
1.62653e-05
1.84953e-06
1.58412e-05
1.51054e-06
1.5494e-05
1.23505e-06
1.52087e-05
1.01191e-06
1.49745e-05
8.32782e-07
1.47813e-05
6.87543e-07
1.46226e-05
5.69019e-07
1.44924e-05
4.69388e-07
1.43873e-05
3.84311e-07
1.43037e-05
3.09466e-07
1.42398e-05
2.42877e-07
1.41932e-05
1.82448e-07
1.41626e-05
1.27298e-07
1.41462e-05
7.63833e-08
1.41431e-05
2.912e-08
1.41523e-05
-1.61068e-08
1.41738e-05
-6.07014e-08
1.42069e-05
-1.04146e-07
1.42513e-05
-1.45142e-07
1.43063e-05
-1.8451e-07
1.4372e-05
-2.23347e-07
1.44483e-05
-2.61248e-07
1.45347e-05
-2.97751e-07
1.46309e-05
-3.33055e-07
1.47368e-05
-3.67957e-07
1.48524e-05
-4.03249e-07
1.49778e-05
-4.3983e-07
1.51136e-05
-4.78541e-07
1.52605e-05
-5.20397e-07
1.54195e-05
-5.66232e-07
1.55917e-05
-6.16746e-07
1.57785e-05
-6.7234e-07
1.59811e-05
-7.33253e-07
1.62009e-05
-7.99445e-07
1.64393e-05
-8.70816e-07
1.66976e-05
-9.47241e-07
1.6977e-05
-1.02857e-06
1.72792e-05
-1.11512e-06
1.76055e-05
-1.20766e-06
1.79583e-05
-1.30613e-06
1.83393e-05
-1.41407e-06
1.87523e-05
-1.53028e-06
1.9199e-05
-1.66181e-06
1.96851e-05
-1.80347e-06
2.02105e-05
-1.96202e-06
2.07823e-05
-2.12566e-06
2.14306e-05
-2.47331e-06
2.21434e-05
-2.75789e-06
2.26467e-05
-1.91627e-06
2.31522e-05
-1.83799e-06
2.36398e-05
-1.75648e-06
2.41298e-05
-1.78429e-06
2.46269e-05
-1.83106e-06
2.51283e-05
-1.86507e-06
2.56342e-05
-1.88015e-06
2.61377e-05
-1.89336e-06
2.66436e-05
-1.89324e-06
2.71457e-05
-1.91142e-06
2.76556e-05
-1.92329e-06
2.81679e-05
-1.96865e-06
2.86991e-05
-2.0129e-06
2.9243e-05
-2.1019e-06
2.9813e-05
-2.19489e-06
3.04031e-05
-2.33321e-06
3.10189e-05
-2.50045e-06
3.16554e-05
-2.70047e-06
3.23089e-05
-2.88984e-06
3.29687e-05
-3.09478e-06
3.36314e-05
-3.33332e-06
3.42455e-05
-3.60933e-06
3.47663e-05
-3.33514e-06
3.50366e-05
-1.94472e-06
3.29264e-06
3.4917e-05
7.86525e-05
0.000110371
6.72367e-05
5.14399e-05
5.92056e-05
3.2761e-05
5.25039e-05
2.74092e-05
4.65143e-05
2.41463e-05
4.12992e-05
2.05077e-05
3.69534e-05
1.66587e-05
3.34596e-05
1.31386e-05
3.06761e-05
1.03451e-05
2.84404e-05
8.2963e-06
2.66114e-05
6.78014e-06
2.51092e-05
5.58521e-06
2.38691e-05
4.59767e-06
2.28493e-05
3.7793e-06
2.20064e-05
3.10145e-06
2.13139e-05
2.5413e-06
2.07436e-05
2.0793e-06
2.02762e-05
1.70282e-06
1.98914e-05
1.39696e-06
1.95755e-05
1.15053e-06
1.93151e-05
9.50146e-07
1.91015e-05
7.86227e-07
1.89266e-05
6.48283e-07
1.87858e-05
5.30338e-07
1.86743e-05
4.26589e-07
1.85895e-05
3.34328e-07
1.8528e-05
2.50781e-07
1.84882e-05
1.74778e-07
1.84672e-05
1.04929e-07
1.84639e-05
4.04327e-08
1.84767e-05
-2.11113e-08
1.85058e-05
-8.17168e-08
1.85501e-05
-1.40602e-07
1.86089e-05
-1.95992e-07
1.86817e-05
-2.49285e-07
1.87686e-05
-3.02065e-07
1.88695e-05
-3.53662e-07
1.89839e-05
-4.03363e-07
1.91113e-05
-4.51355e-07
1.92516e-05
-4.98691e-07
1.94046e-05
-5.46431e-07
1.95706e-05
-5.95833e-07
1.97503e-05
-6.48058e-07
1.99446e-05
-7.04497e-07
2.01548e-05
-7.66268e-07
2.03823e-05
-8.34314e-07
2.06288e-05
-9.09163e-07
2.08961e-05
-9.9113e-07
2.11858e-05
-1.08014e-06
2.14996e-05
-1.17606e-06
2.18393e-05
-1.27866e-06
2.22065e-05
-1.38776e-06
2.2603e-05
-1.50373e-06
2.3031e-05
-1.62753e-06
2.3493e-05
-1.7591e-06
2.39913e-05
-1.90296e-06
2.4531e-05
-2.05741e-06
2.51134e-05
-2.23185e-06
2.57463e-05
-2.41877e-06
2.64286e-05
-2.62812e-06
2.71705e-05
-2.84491e-06
2.8002e-05
-3.28587e-06
2.89085e-05
-3.63657e-06
2.95449e-05
-2.52675e-06
3.01872e-05
-2.44353e-06
3.08118e-05
-2.34937e-06
3.14384e-05
-2.37707e-06
3.20714e-05
-2.4297e-06
3.27077e-05
-2.46977e-06
3.33488e-05
-2.48798e-06
3.3986e-05
-2.50664e-06
3.46268e-05
-2.50859e-06
3.52627e-05
-2.53487e-06
3.59091e-05
-2.55161e-06
3.65582e-05
-2.61059e-06
3.7231e-05
-2.66521e-06
3.79181e-05
-2.77468e-06
3.86355e-05
-2.88699e-06
3.93741e-05
-3.05402e-06
4.01388e-05
-3.25295e-06
4.09219e-05
-3.48919e-06
4.17191e-05
-3.71657e-06
4.25172e-05
-3.96304e-06
4.33085e-05
-4.23753e-06
4.40263e-05
-4.51535e-06
4.46474e-05
-4.17901e-06
4.50578e-05
-2.56288e-06
2.77242e-06
4.53349e-05
0.000100658
0.00012407
8.73845e-05
6.46903e-05
7.73214e-05
4.28136e-05
6.88034e-05
3.59203e-05
6.11364e-05
3.18072e-05
5.4392e-05
2.72481e-05
4.87064e-05
2.23375e-05
4.40884e-05
1.77531e-05
4.03815e-05
1.40435e-05
3.73942e-05
1.12804e-05
3.49485e-05
9.21762e-06
3.29428e-05
7.58824e-06
3.12873e-05
6.24612e-06
2.99259e-05
5.13867e-06
2.87973e-05
4.22505e-06
2.78681e-05
3.46938e-06
2.71011e-05
2.8439e-06
2.64719e-05
2.33259e-06
2.59532e-05
1.91608e-06
2.55274e-05
1.57916e-06
2.51766e-05
1.30431e-06
2.48895e-05
1.07889e-06
2.46549e-05
8.89064e-07
2.44668e-05
7.26592e-07
2.43183e-05
5.83772e-07
2.42062e-05
4.56865e-07
2.41253e-05
3.42248e-07
2.40737e-05
2.38349e-07
2.4047e-05
1.4335e-07
2.40439e-05
5.61533e-08
2.40617e-05
-2.67893e-08
2.41009e-05
-1.08355e-07
2.41598e-05
-1.8737e-07
2.42378e-05
-2.61508e-07
2.43341e-05
-3.33184e-07
2.44494e-05
-4.04629e-07
2.45835e-05
-4.74648e-07
2.47359e-05
-5.42103e-07
2.49059e-05
-6.07119e-07
2.5093e-05
-6.71075e-07
2.52972e-05
-7.35398e-07
2.55188e-05
-8.01849e-07
2.57585e-05
-8.72031e-07
2.60176e-05
-9.47835e-07
2.62977e-05
-1.03074e-06
2.66008e-05
-1.12201e-06
2.69289e-05
-1.22231e-06
2.72843e-05
-1.33204e-06
2.76691e-05
-1.45107e-06
2.80854e-05
-1.57918e-06
2.85355e-05
-1.71602e-06
2.90214e-05
-1.86134e-06
2.95454e-05
-2.01552e-06
3.01099e-05
-2.17975e-06
3.07187e-05
-2.35394e-06
3.13739e-05
-2.5438e-06
3.20825e-05
-2.74687e-06
3.28453e-05
-2.97569e-06
3.36726e-05
-3.21934e-06
3.45618e-05
-3.49269e-06
3.55277e-05
-3.77655e-06
3.65972e-05
-4.32655e-06
3.77539e-05
-4.75141e-06
3.85586e-05
-3.29287e-06
3.93717e-05
-3.20293e-06
4.01689e-05
-3.10021e-06
4.09681e-05
-3.1273e-06
4.17731e-05
-3.18507e-06
4.25801e-05
-3.23152e-06
4.33927e-05
-3.25318e-06
4.41998e-05
-3.27974e-06
4.50125e-05
-3.28583e-06
4.58197e-05
-3.3243e-06
4.66419e-05
-3.34899e-06
4.74679e-05
-3.42609e-06
4.83248e-05
-3.49443e-06
4.91986e-05
-3.62837e-06
5.0109e-05
-3.76408e-06
5.10427e-05
-3.96417e-06
5.20037e-05
-4.19924e-06
5.29818e-05
-4.47589e-06
5.39724e-05
-4.74726e-06
5.49598e-05
-5.04131e-06
5.59321e-05
-5.35395e-06
5.6813e-05
-5.62607e-06
5.7612e-05
-5.24181e-06
5.83101e-05
-3.49208e-06
1.55078e-06
5.92791e-05
0.000128043
0.000136955
0.00011316
7.95332e-05
0.00010078
5.51757e-05
9.00281e-05
4.66605e-05
8.02546e-05
4.15711e-05
7.15683e-05
3.59282e-05
6.41606e-05
2.97343e-05
5.80798e-05
2.38285e-05
5.31553e-05
1.89547e-05
4.91671e-05
1.52635e-05
4.58952e-05