/*--------------------------------*- C++ -*----------------------------------*\
| =========                 |                                                 |
| \\      /  F ield         | OpenFOAM: The Open Source CFD Toolbox           |
|  \\    /   O peration     | Version:  5.x                                   |
|   \\  /    A nd           | Web:      www.OpenFOAM.org                      |
|    \\/     M anipulation  |                                                 |
\*---------------------------------------------------------------------------*/
FoamFile
{
    version     2.0;
    format      ascii;
    class       volVectorField;
    location    "100";
    object      U;
}
// * * * * * * * * * * * * * * * * * * * * * * * * * * * * * * * * * * * * * //

dimensions      [0 1 -1 0 0 0 0];

internalField   nonuniform List<vector> 
20540
(
(44.1728 2.79139e-07 0)
(44.2028 0.00480137 0)
(44.1719 1.0495e-06 0)
(44.2013 0.0139364 0)
(44.1709 2.26763e-06 0)
(44.1997 0.023113 0)
(44.1697 4.0985e-06 0)
(44.1979 0.0327025 0)
(44.1685 6.8018e-06 0)
(44.196 0.042946 0)
(44.1673 1.07157e-05 0)
(44.1941 0.0538742 0)
(44.1661 1.62744e-05 0)
(44.1922 0.0653055 0)
(44.165 2.40318e-05 0)
(44.1904 0.0768845 0)
(44.1641 3.46879e-05 0)
(44.1888 0.0881116 0)
(44.1635 4.91123e-05 0)
(44.1875 0.0983988 0)
(44.1631 6.83657e-05 0)
(44.1866 0.107161 0)
(44.163 9.37155e-05 0)
(44.186 0.113931 0)
(44.1631 0.000126653 0)
(44.1858 0.118473 0)
(44.1634 0.000168915 0)
(44.1858 0.120868 0)
(44.1639 0.000222491 0)
(44.1862 0.121538 0)
(44.1645 0.000289602 0)
(44.1867 0.120963 0)
(44.1652 0.000372596 0)
(44.1875 0.119467 0)
(44.1661 0.000473777 0)
(44.1886 0.117356 0)
(44.1672 0.000595198 0)
(44.1899 0.114838 0)
(44.1684 0.000738371 0)
(44.1915 0.111976 0)
(44.1699 0.000903863 0)
(44.1934 0.108735 0)
(44.1716 0.0010907 0)
(44.1956 0.105019 0)
(44.1736 0.00129552 0)
(44.1983 0.1007 0)
(44.1758 0.00151139 0)
(44.2013 0.0956282 0)
(44.1784 0.00172632 0)
(44.2048 0.0896273 0)
(44.1813 0.00192141 0)
(44.2087 0.0824968 0)
(44.1845 0.0020688 0)
(44.213 0.0740041 0)
(44.1878 0.00213784 0)
(44.2176 0.0639521 0)
(44.1912 0.00210224 0)
(44.2221 0.0523064 0)
(44.1944 0.0019305 0)
(44.2264 0.0389595 0)
(44.1967 0.00157561 0)
(44.2295 0.0246571 0)
(44.1979 0.00106701 0)
(44.2311 0.0102262 0)
(44.198 0.000503994 0)
(44.2312 -0.00432233 0)
(44.1971 -2.21001e-05 0)
(44.2299 -0.0186809 0)
(44.1951 -0.000428673 0)
(44.2271 -0.0327431 0)
(44.1922 -0.000706071 0)
(44.2232 -0.0459388 0)
(44.1892 -0.000878888 0)
(44.219 -0.0575997 0)
(44.1861 -0.000957565 0)
(44.2148 -0.0677772 0)
(44.1831 -0.000962999 0)
(44.2107 -0.0765876 0)
(44.1804 -0.000917032 0)
(44.207 -0.084171 0)
(44.1779 -0.000838803 0)
(44.2037 -0.0906781 0)
(44.1757 -0.000743478 0)
(44.2007 -0.0962598 0)
(44.1737 -0.000642218 0)
(44.1981 -0.101061 0)
(44.172 -0.000542711 0)
(44.1958 -0.105217 0)
(44.1706 -0.000449872 0)
(44.1939 -0.108848 0)
(44.1693 -0.00036652 0)
(44.1923 -0.112055 0)
(44.1682 -0.000293956 0)
(44.191 -0.114901 0)
(44.1673 -0.00023241 0)
(44.19 -0.117378 0)
(44.1665 -0.000181391 0)
(44.1891 -0.119367 0)
(44.1659 -0.000139941 0)
(44.1885 -0.120621 0)
(44.1653 -0.000106835 0)
(44.1881 -0.120848 0)
(44.1649 -8.07591e-05 0)
(44.1879 -0.119699 0)
(44.1647 -6.04522e-05 0)
(44.1879 -0.116706 0)
(44.1646 -4.47906e-05 0)
(44.1883 -0.1116 0)
(44.1648 -3.28126e-05 0)
(44.189 -0.104425 0)
(44.1652 -2.37173e-05 0)
(44.19 -0.0954828 0)
(44.1658 -1.6856e-05 0)
(44.1913 -0.0852503 0)
(44.1667 -1.17177e-05 0)
(44.1928 -0.0742751 0)
(44.1676 -7.90876e-06 0)
(44.1945 -0.0630787 0)
(44.1687 -5.12827e-06 0)
(44.1963 -0.052087 0)
(44.1698 -3.14944e-06 0)
(44.1982 -0.0415932 0)
(44.1709 -1.81864e-06 0)
(44.2 -0.0317377 0)
(44.1719 -1.0249e-06 0)
(44.2017 -0.0224742 0)
(44.1728 -5.47011e-07 0)
(44.2032 -0.0135604 0)
(44.1736 -1.48634e-07 0)
(44.2047 -0.00467276 0)
(6.45881 0.00715583 0)
(4.80203 0.000244138 0)
(3.92519 0.000160578 0)
(3.18328 0.000157702 0)
(2.58623 0.000157675 0)
(2.1347 0.000148003 0)
(1.80521 0.000131202 0)
(1.56856 0.000111076 0)
(1.39489 9.07527e-05 0)
(1.26029 7.2164e-05 0)
(1.15269 5.68814e-05 0)
(1.06532 4.51098e-05 0)
(0.994977 3.65303e-05 0)
(0.938287 3.06893e-05 0)
(0.89296 2.68488e-05 0)
(0.856554 2.41088e-05 0)
(0.827478 2.17035e-05 0)
(0.804057 1.94592e-05 0)
(0.785252 1.73208e-05 0)
(0.769954 1.53558e-05 0)
(0.757535 1.33743e-05 0)
(0.747341 1.13395e-05 0)
(0.739026 9.16306e-06 0)
(0.732245 6.91788e-06 0)
(0.726804 4.65504e-06 0)
(0.722525 2.49546e-06 0)
(0.719292 5.37032e-07 0)
(0.717012 -1.11206e-06 0)
(0.715608 -2.38029e-06 0)
(0.715024 -3.2292e-06 0)
(0.715211 -3.70816e-06 0)
(0.716148 -3.94821e-06 0)
(0.717823 -3.97787e-06 0)
(0.720218 -3.6989e-06 0)
(0.723303 -3.24693e-06 0)
(0.727055 -2.83122e-06 0)
(0.731464 -2.51046e-06 0)
(0.736508 -2.2487e-06 0)
(0.742173 -2.06847e-06 0)
(0.748458 -2.06781e-06 0)
(0.755382 -2.40995e-06 0)
(0.762979 -3.30224e-06 0)
(0.771296 -4.92508e-06 0)
(0.780394 -7.16705e-06 0)
(0.790351 -1.0432e-05 0)
(0.801259 -1.45015e-05 0)
(0.813221 -1.9209e-05 0)
(0.826347 -2.44421e-05 0)
(0.840748 -3.08932e-05 0)
(0.856542 -3.75834e-05 0)
(0.873843 -4.51002e-05 0)
(0.892775 -5.34975e-05 0)
(0.913451 -6.26322e-05 0)
(0.936018 -7.35066e-05 0)
(0.960623 -8.44357e-05 0)
(0.987418 -9.79684e-05 0)
(1.01669 -0.000113442 0)
(1.04862 -0.000129953 0)
(1.08367 -0.000145281 0)
(1.12204 -0.000161388 0)
(1.16415 -0.000172529 0)
(1.20979 -0.000199305 0)
(1.2702 -0.000227633 0)
(1.31927 -0.000218328 0)
(1.3579 -0.000187322 0)
(1.38947 -0.000180067 0)
(1.42402 -0.000166878 0)
(1.46098 -0.000124037 0)
(1.49908 -6.39776e-05 0)
(1.53754 7.25932e-06 0)
(1.57591 7.5964e-05 0)
(1.61396 0.000145715 0)
(1.65174 0.000197254 0)
(1.68977 0.000245749 0)
(1.72832 0.000231946 0)
(1.76842 0.000182669 0)
(1.81097 3.14298e-05 0)
(1.85707 -0.000176928 0)
(1.90756 -0.000450748 0)
(1.9637 -0.000712348 0)
(2.0287 -0.000959678 0)
(2.10177 -0.00125718 0)
(2.17927 -0.00152637 0)
(2.26517 -0.00153033 0)
(2.36733 -0.00149209 0)
(2.51087 -0.00491177 0)
(2.60255 -0.0111051 0)
(2.92716 -0.0832512 0)
(13.4599 0.0162128 0)
(10.2815 0.00133874 0)
(8.73471 0.000834468 0)
(7.39836 0.000777297 0)
(6.2518 0.000717799 0)
(5.33002 0.000628193 0)
(4.62309 0.000526476 0)
(4.09565 0.000429388 0)
(3.69833 0.000348133 0)
(3.38512 0.000283399 0)
(3.13119 0.000232552 0)
(2.92217 0.000192116 0)
(2.75168 0.000159948 0)
(2.61266 0.000135004 0)
(2.50039 0.000115767 0)
(2.40943 0.00010044 0)
(2.33627 8.736e-05 0)
(2.277 7.60365e-05 0)
(2.22918 6.61595e-05 0)
(2.19013 5.76779e-05 0)
(2.15834 4.99464e-05 0)
(2.13218 4.27307e-05 0)
(2.1108 3.56127e-05 0)
(2.09335 2.86595e-05 0)
(2.07933 2.18003e-05 0)
(2.06831 1.5259e-05 0)
(2.05999 9.11896e-06 0)
(2.05412 3.60603e-06 0)
(2.05052 -1.20073e-06 0)
(2.04904 -5.20374e-06 0)
(2.04955 -8.55324e-06 0)
(2.05199 -1.15343e-05 0)
(2.05634 -1.422e-05 0)
(2.06253 -1.6347e-05 0)
(2.07049 -1.81725e-05 0)
(2.08016 -2.0147e-05 0)
(2.09151 -2.23739e-05 0)
(2.1045 -2.47641e-05 0)
(2.11909 -2.73929e-05 0)
(2.13527 -3.05317e-05 0)
(2.15309 -3.45839e-05 0)
(2.17262 -4.00537e-05 0)
(2.19396 -4.73593e-05 0)
(2.21725 -5.6648e-05 0)
(2.24268 -6.8454e-05 0)
(2.27047 -8.28399e-05 0)
(2.30085 -9.94813e-05 0)
(2.33407 -0.000117855 0)
(2.3704 -0.000140521 0)
(2.4101 -0.00016487 0)
(2.45343 -0.000192038 0)
(2.50066 -0.00022224 0)
(2.55204 -0.00025563 0)
(2.60789 -0.000294359 0)
(2.66855 -0.00033638 0)
(2.73434 -0.000385168 0)
(2.80592 -0.000440063 0)
(2.88368 -0.000503052 0)
(2.96869 -0.000568714 0)
(3.06133 -0.000639941 0)
(3.16253 -0.00070536 0)
(3.27163 -0.000851617 0)
(3.41527 -0.00100273 0)
(3.53263 -0.000991403 0)
(3.62684 -0.00087868 0)
(3.70357 -0.000868702 0)
(3.78591 -0.000920925 0)
(3.87363 -0.000913629 0)
(3.964 -0.00085848 0)
(4.05511 -0.000764256 0)
(4.14589 -0.000675491 0)
(4.23574 -0.000567536 0)
(4.32474 -0.000510746 0)
(4.41404 -0.000459229 0)
(4.50439 -0.000521896 0)
(4.59807 -0.000663805 0)
(4.69714 -0.00101245 0)
(4.80388 -0.00150495 0)
(4.92013 -0.00217238 0)
(5.04803 -0.00292364 0)
(5.19346 -0.00372943 0)
(5.35486 -0.00458283 0)
(5.52482 -0.00552264 0)
(5.70887 -0.00621451 0)
(5.91884 -0.0071367 0)
(6.19257 -0.010505 0)
(6.38321 -0.0215301 0)
(6.62162 -0.120808 0)
(17.6939 0.0252901 0)
(13.5992 0.00307874 0)
(11.6906 0.00189409 0)
(10.063 0.00176694 0)
(8.63823 0.00164119 0)
(7.46561 0.00144146 0)
(6.54789 0.00120926 0)
(5.85209 0.000986697 0)
(5.32286 0.000802796 0)
(4.90402 0.000659562 0)
(4.56355 0.000548318 0)
(4.28219 0.000459025 0)
(4.05164 0.000386208 0)
(3.86277 0.000327666 0)
(3.70959 0.000280908 0)
(3.58503 0.000242692 0)
(3.48452 0.000210151 0)
(3.40285 0.000182166 0)
(3.33679 0.000158119 0)
(3.28271 0.000137656 0)
(3.23854 0.000119414 0)
(3.20208 0.000102717 0)
(3.17219 8.66091e-05 0)
(3.14769 7.10464e-05 0)
(3.12795 5.57879e-05 0)
(3.11237 4.11364e-05 0)
(3.10056 2.72093e-05 0)
(3.0922 1.43428e-05 0)
(3.08702 2.70413e-06 0)
(3.08484 -7.57785e-06 0)
(3.08548 -1.67424e-05 0)
(3.08887 -2.53983e-05 0)
(3.09498 -3.36581e-05 0)
(3.10372 -4.10185e-05 0)
(3.115 -4.78684e-05 0)
(3.1287 -5.50561e-05 0)
(3.1448 -6.27095e-05 0)
(3.1632 -7.0623e-05 0)
(3.18382 -7.89389e-05 0)
(3.20663 -8.82085e-05 0)
(3.23166 -9.92476e-05 0)
(3.259 -0.000113037 0)
(3.28879 -0.000130353 0)
(3.32119 -0.000152293 0)
(3.35647 -0.000179137 0)
(3.39491 -0.000211757 0)
(3.43684 -0.000249577 0)
(3.48259 -0.00029233 0)
(3.53253 -0.000342698 0)
(3.587 -0.000398903 0)
(3.64634 -0.000461365 0)
(3.71092 -0.000530791 0)
(3.78104 -0.000608713 0)
(3.85715 -0.0006965 0)
(3.93968 -0.000796592 0)
(4.0291 -0.000909162 0)
(4.12631 -0.00103449 0)
(4.23185 -0.00118149 0)
(4.34722 -0.00134115 0)
(4.47298 -0.00151353 0)
(4.61036 -0.00168193 0)
(4.7586 -0.00204937 0)
(4.95357 -0.00242218 0)
(5.11468 -0.00244774 0)
(5.24767 -0.00220915 0)
(5.35661 -0.00218211 0)
(5.47169 -0.00234924 0)
(5.594 -0.00244152 0)
(5.72036 -0.00242452 0)
(5.84797 -0.00233317 0)
(5.97536 -0.00222687 0)
(6.10141 -0.00209763 0)
(6.2262 -0.00203033 0)
(6.35101 -0.00199446 0)
(6.47685 -0.0021224 0)
(6.60665 -0.00240466 0)
(6.74321 -0.00302071 0)
(6.8898 -0.00392459 0)
(7.04913 -0.00519451 0)
(7.22442 -0.00676084 0)
(7.4235 -0.00850316 0)
(7.64562 -0.0102427 0)
(7.88232 -0.012239 0)
(8.13997 -0.0142905 0)
(8.43442 -0.0170053 0)
(8.8117 -0.0182821 0)
(9.10297 -0.0305129 0)
(9.16653 -0.0981611 0)
(21.0797 0.0360947 0)
(16.2448 0.00567527 0)
(14.0221 0.0034189 0)
(12.1609 0.00314402 0)
(10.516 0.00289594 0)
(9.1437 0.00252492 0)
(8.05688 0.00210343 0)
(7.22519 0.00170661 0)
(6.5896 0.00138554 0)
(6.08632 0.00114159 0)
(5.6773 0.000954782 0)
(5.33899 0.000804533 0)
(5.06128 0.00068006 0)
(4.83335 0.000577753 0)
(4.64811 0.000494171 0)
(4.49722 0.000425005 0)
(4.37527 0.000366313 0)
(4.27604 0.00031627 0)
(4.19567 0.000273736 0)
(4.12978 0.000237871 0)
(4.07588 0.000206433 0)
(4.03131 0.000178165 0)
(3.99469 0.000151389 0)
(3.96461 0.000125828 0)
(3.94031 0.0001009 0)
(3.92108 7.69058e-05 0)
(3.90645 5.38568e-05 0)
(3.89604 3.21527e-05 0)
(3.88955 1.19569e-05 0)
(3.88674 -6.56851e-06 0)
(3.88741 -2.37828e-05 0)
(3.89147 -4.05863e-05 0)
(3.89889 -5.71583e-05 0)
(3.90958 -7.27511e-05 0)
(3.92341 -8.77916e-05 0)
(3.94027 -0.000103421 0)
(3.96009 -0.000119716 0)
(3.98275 -0.000136326 0)
(4.00812 -0.000153448 0)
(4.03616 -0.000171914 0)
(4.06688 -0.000192949 0)
(4.10037 -0.000217929 0)
(4.13677 -0.000248142 0)
(4.17631 -0.000285758 0)
(4.21926 -0.000330973 0)
(4.26598 -0.000385539 0)
(4.31686 -0.000448902 0)
(4.37232 -0.000522946 0)
(4.43277 -0.000605032 0)
(4.49864 -0.000699971 0)
(4.57034 -0.000805765 0)
(4.64828 -0.000923931 0)
(4.73286 -0.00105759 0)
(4.82459 -0.00120503 0)
(4.924 -0.00137472 0)
(5.03166 -0.0015667 0)
(5.14867 -0.00178175 0)
(5.27571 -0.00203349 0)
(5.41458 -0.00231169 0)
(5.56604 -0.00262019 0)
(5.73157 -0.00293019 0)
(5.91045 -0.00359109 0)
(6.14472 -0.00425796 0)
(6.33922 -0.00437923 0)
(6.50431 -0.00401674 0)
(6.64097 -0.00397913 0)
(6.78317 -0.00431844 0)
(6.9337 -0.00460618 0)
(7.08947 -0.00472919 0)
(7.24713 -0.00473974 0)
(7.4049 -0.00470234 0)
(7.56128 -0.00464022 0)
(7.71623 -0.00464566 0)
(7.87104 -0.0046952 0)
(8.02689 -0.0049494 0)
(8.18699 -0.00540187 0)
(8.35467 -0.00629044 0)
(8.53377 -0.00757298 0)
(8.72761 -0.00943995 0)
(8.94012 -0.0119396 0)
(9.18009 -0.0148679 0)
(9.4477 -0.0176771 0)
(9.73457 -0.0209548 0)
(10.0469 -0.0253733 0)
(10.4018 -0.031741 0)
(10.8458 -0.0307636 0)
(11.2084 -0.0418352 0)
(11.14 -0.040263 0)
(24.0403 0.0485436 0)
(18.601 0.00937233 0)
(16.0842 0.00556855 0)
(14.0165 0.00506591 0)
(12.1793 0.00465301 0)
(10.6303 0.00404883 0)
(9.39167 0.0033647 0)
(8.43655 0.00272277 0)
(7.70378 0.00220666 0)
(7.1235 0.00181906 0)
(6.65215 0.00152501 0)
(6.26221 0.00128885 0)
(5.94176 0.00109159 0)
(5.67837 0.000927438 0)
(5.46397 0.000791548 0)
(5.28905 0.000678423 0)
(5.14748 0.000582755 0)
(5.03214 0.000501758 0)
(4.9386 0.000433454 0)
(4.86184 0.000376282 0)
(4.79897 0.000326765 0)
(4.74693 0.000282797 0)
(4.7041 0.00024167 0)
(4.66889 0.000202718 0)
(4.6404 0.000164835 0)
(4.61781 0.000128267 0)
(4.60059 9.28217e-05 0)
(4.58831 5.89559e-05 0)
(4.58061 2.67891e-05 0)
(4.5772 -3.4649e-06 0)
(4.57785 -3.23288e-05 0)
(4.58248 -6.10566e-05 0)
(4.59104 -8.99328e-05 0)
(4.60344 -0.00011789 0)
(4.61954 -0.000145336 0)
(4.63919 -0.000173713 0)
(4.66232 -0.000202977 0)
(4.68878 -0.00023255 0)
(4.71841 -0.000262673 0)
(4.75113 -0.000294492 0)
(4.78694 -0.000329748 0)
(4.82594 -0.000370208 0)
(4.86826 -0.000418656 0)
(4.91416 -0.000476613 0)
(4.96395 -0.000546589 0)
(5.01804 -0.000630478 0)
(5.07687 -0.000728115 0)
(5.14091 -0.000843086 0)
(5.21066 -0.000969598 0)
(5.2866 -0.00111627 0)
(5.36919 -0.00128117 0)
(5.45891 -0.00146615 0)
(5.55619 -0.0016733 0)
(5.66164 -0.00190491 0)
(5.77586 -0.00216255 0)
(5.8995 -0.00246327 0)
(6.03382 -0.00280517 0)
(6.17964 -0.00320112 0)
(6.33898 -0.00364083 0)
(6.51276 -0.00414438 0)
(6.70267 -0.00465708 0)
(6.90818 -0.0057236 0)
(7.17524 -0.00679682 0)
(7.39682 -0.00709427 0)
(7.59003 -0.00663121 0)
(7.75217 -0.00657283 0)
(7.91858 -0.00715056 0)
(8.09371 -0.00772877 0)
(8.27494 -0.00808917 0)
(8.45869 -0.00830056 0)
(8.64298 -0.00840436 0)
(8.82602 -0.00848138 0)
(9.00768 -0.00862442 0)
(9.18914 -0.00882813 0)
(9.37169 -0.00927091 0)
(9.55864 -0.00996355 0)
(9.75358 -0.0111896 0)
(9.96065 -0.0129342 0)
(10.1836 -0.0154905 0)
(10.4266 -0.0191202 0)
(10.6987 -0.0235754 0)
(11.001 -0.0278006 0)
(11.3256 -0.0327366 0)
(11.678 -0.0405508 0)
(12.0749 -0.0525244 0)
(12.5585 -0.052577 0)
(12.9646 -0.0702712 0)
(12.8774 -0.0242472 0)
(26.7425 0.062555 0)
(20.8226 0.0144557 0)
(18.0214 0.0085536 0)
(15.7621 0.0077084 0)
(13.7483 0.00707485 0)
(12.0344 0.0061607 0)
(10.6514 0.00512171 0)
(9.57719 0.00414351 0)
(8.74983 0.00335592 0)
(8.09452 0.00276647 0)
(7.56256 0.00232145 0)
(7.12253 0.00196463 0)
(6.76063 0.0016652 0)
(6.46283 0.00141413 0)
(6.22003 0.00120458 0)
(6.02162 0.00102963 0)
(5.86077 0.000882197 0)
(5.72953 0.000758149 0)
(5.62296 0.000654216 0)
(5.53542 0.000567788 0)
(5.46365 0.000493638 0)
(5.4042 0.00042843 0)
(5.35525 0.000367981 0)
(5.31497 0.000311015 0)
(5.28237 0.000255654 0)
(5.25651 0.00020201 0)
(5.23679 0.000149576 0)
(5.22272 9.88604e-05 0)
(5.21386 4.99022e-05 0)
(5.2099 2.99984e-06 0)
(5.21056 -4.25873e-05 0)
(5.21573 -8.85552e-05 0)
(5.22539 -0.000135344 0)
(5.23941 -0.000181448 0)
(5.25764 -0.000227179 0)
(5.27993 -0.000274299 0)
(5.30619 -0.000322543 0)
(5.33623 -0.000370984 0)
(5.36988 -0.000419854 0)
(5.40702 -0.000470639 0)
(5.44764 -0.000525738 0)
(5.49182 -0.000587413 0)
(5.53973 -0.000661347 0)
(5.5916 -0.000745402 0)
(5.64781 -0.000848023 0)
(5.7088 -0.000970447 0)
(5.77506 -0.0011135 0)
(5.84713 -0.00127784 0)
(5.92556 -0.00146878 0)
(6.01086 -0.00168401 0)
(6.10357 -0.00192801 0)
(6.20423 -0.00220043 0)
(6.3133 -0.00250251 0)
(6.43146 -0.00284987 0)
(6.55937 -0.00323071 0)
(6.69778 -0.0036758 0)
(6.84806 -0.00418015 0)
(7.01116 -0.00477094 0)
(7.18924 -0.0054358 0)
(7.3834 -0.00619743 0)
(7.59546 -0.00699243 0)
(7.82518 -0.00860943 0)
(8.12064 -0.0102189 0)
(8.36464 -0.0108076 0)
(8.58284 -0.0102911 0)
(8.76885 -0.0102069 0)
(8.95753 -0.0110784 0)
(9.15471 -0.0120582 0)
(9.35842 -0.0127683 0)
(9.56516 -0.0132996 0)
(9.77284 -0.0136571 0)
(9.97952 -0.0139683 0)
(10.185 -0.0143356 0)
(10.3902 -0.0147941 0)
(10.5967 -0.0155069 0)
(10.8076 -0.0165288 0)
(11.0266 -0.0181699 0)
(11.258 -0.0204579 0)
(11.5056 -0.0238156 0)
(11.7737 -0.028727 0)
(12.0712 -0.0349604 0)
(12.3994 -0.0409224 0)
(12.7514 -0.0478759 0)
(13.1317 -0.0596646 0)
(13.5551 -0.0784519 0)
(14.0572 -0.0818306 0)
(14.4841 -0.113518 0)
(14.4351 -0.0331664 0)
(29.2641 0.0780778 0)
(22.9898 0.0212741 0)
(19.9116 0.0126715 0)
(17.4689 0.0113212 0)
(15.2879 0.0103855 0)
(13.4151 0.00905898 0)
(11.8899 0.00754495 0)
(10.696 0.00611179 0)
(9.77257 0.0049528 0)
(9.04086 0.00408442 0)
(8.44727 0.00342929 0)
(7.95648 0.00290398 0)
(7.5526 0.00246161 0)
(7.21996 0.00208875 0)
(6.94827 0.00177584 0)
(6.72588 0.00151432 0)
(6.54522 0.00129471 0)
(6.3976 0.00111104 0)
(6.27751 0.000958074 0)
(6.17879 0.000831673 0)
(6.09778 0.000724152 0)
(6.03067 0.000630377 0)
(5.97538 0.000544079 0)
(5.9299 0.000463024 0)
(5.8931 0.000384228 0)
(5.86394 0.000307533 0)
(5.84173 0.000231974 0)
(5.82589 0.000158089 0)
(5.81594 8.58013e-05 0)
(5.81148 1.55318e-05 0)
(5.81219 -5.37411e-05 0)
(5.81795 -0.000124272 0)
(5.82873 -0.000196718 0)
(5.84438 -0.000268976 0)
(5.86473 -0.000341156 0)
(5.88962 -0.000415358 0)
(5.91895 -0.000490959 0)
(5.9525 -0.0005665 0)
(5.99008 -0.000642103 0)
(6.03154 -0.00071956 0)
(6.07685 -0.000802099 0)
(6.12609 -0.000893107 0)
(6.17941 -0.000998974 0)
(6.23709 -0.00111954 0)
(6.29952 -0.00126416 0)
(6.36719 -0.00143605 0)
(6.44063 -0.00163833 0)
(6.52045 -0.00187029 0)
(6.60722 -0.00214188 0)
(6.70154 -0.00244726 0)
(6.80399 -0.0027928 0)
(6.91513 -0.00317735 0)
(7.0355 -0.00361102 0)
(7.16582 -0.00410051 0)
(7.30683 -0.00465341 0)
(7.45934 -0.0052846 0)
(7.62482 -0.00600156 0)
(7.80433 -0.0068486 0)
(8.00014 -0.00780845 0)
(8.21349 -0.00890908 0)
(8.44631 -0.0100854 0)
(8.69868 -0.0124132 0)
(9.01932 -0.0147098 0)
(9.28213 -0.0157341 0)
(9.52248 -0.0152368 0)
(9.73085 -0.0151542 0)
(9.9403 -0.0163696 0)
(10.1576 -0.0178622 0)
(10.3813 -0.0190585 0)
(10.6084 -0.0200465 0)
(10.8367 -0.0207948 0)
(11.0642 -0.0214693 0)
(11.2907 -0.0221882 0)
(11.517 -0.0230265 0)
(11.7446 -0.0241355 0)
(11.9766 -0.0255995 0)
(12.2167 -0.0277693 0)
(12.469 -0.0306772 0)
(12.7374 -0.034958 0)
(13.0259 -0.0412495 0)
(13.3428 -0.0494136 0)
(13.6897 -0.0575048 0)
(14.0604 -0.0670037 0)
(14.4581 -0.0827787 0)
(14.8956 -0.108213 0)
(15.4009 -0.114735 0)
(15.8332 -0.159743 0)
(15.8297 -0.0419997 0)
(31.6409 0.0950662 0)
(25.1494 0.0302287 0)
(21.8038 0.018319 0)
(19.1828 0.0162457 0)
(16.8404 0.0148887 0)
(14.811 0.0130098 0)
(13.1422 0.0108614 0)
(11.8249 0.00881809 0)
(10.801 0.00715819 0)
(9.98898 0.0059106 0)
(9.33065 0.00496689 0)
(8.78674 0.00420816 0)
(8.33903 0.00356655 0)
(7.97001 0.0030233 0)
(7.66806 0.00256543 0)
(7.42043 0.00218257 0)
(7.21882 0.00186218 0)
(7.05378 0.00159576 0)
(6.91929 0.00137516 0)
(6.80863 0.00119404 0)
(6.71775 0.00104129 0)
(6.64246 0.000909141 0)
(6.58044 0.000788403 0)
(6.52947 0.00067533 0)
(6.48827 0.000565373 0)
(6.45569 0.000457845 0)
(6.43094 0.00035113 0)
(6.41334 0.000245717 0)
(6.40233 0.00014137 0)
(6.39745 3.86569e-05 0)
(6.39828 -6.38066e-05 0)
(6.40472 -0.000168985 0)
(6.4167 -0.000277831 0)
(6.43405 -0.000387428 0)
(6.45658 -0.000497554 0)
(6.48412 -0.000610659 0)
(6.51656 -0.000725559 0)
(6.55367 -0.000840007 0)
(6.5952 -0.000953823 0)
(6.641 -0.00106897 0)
(6.69102 -0.00118971 0)
(6.7453 -0.00132182 0)
(6.80403 -0.00146489 0)
(6.8675 -0.00163862 0)
(6.93613 -0.00183776 0)
(7.01044 -0.00207241 0)
(7.09102 -0.00235112 0)
(7.17851 -0.00267452 0)
(7.27356 -0.00304539 0)
(7.3768 -0.00346646 0)
(7.48885 -0.00394051 0)
(7.61034 -0.00447693 0)
(7.74183 -0.00508015 0)
(7.88411 -0.00575029 0)
(8.03797 -0.00651535 0)
(8.2043 -0.00738494 0)
(8.38464 -0.00838267 0)
(8.58013 -0.00955862 0)
(8.79315 -0.0108946 0)
(9.02503 -0.0124384 0)
(9.27776 -0.014113 0)
(9.5518 -0.0173318 0)
(9.89528 -0.020477 0)
(10.1741 -0.022101 0)
(10.4339 -0.0217478 0)
(10.6631 -0.0217176 0)
(10.892 -0.0233493 0)
(11.1277 -0.0254617 0)
(11.3695 -0.0272833 0)
(11.6145 -0.0289014 0)
(11.8609 -0.0301977 0)
(12.1066 -0.031413 0)
(12.3514 -0.0326457 0)
(12.5962 -0.034024 0)
(12.8422 -0.0357095 0)
(13.0925 -0.037769 0)
(13.3507 -0.0406187 0)
(13.6207 -0.0442584 0)
(13.9061 -0.0495737 0)
(14.2108 -0.0572745 0)
(14.5422 -0.0674208 0)
(14.902 -0.0781827 0)
(15.2843 -0.0909783 0)
(15.6913 -0.110379 0)
(16.1339 -0.141009 0)
(16.6325 -0.150235 0)
(17.0622 -0.204352 0)
(17.0879 -0.0542502 0)
(33.8837 0.113394 0)
(27.329 0.0417215 0)
(23.7326 0.0259674 0)
(20.9367 0.0228979 0)
(18.4366 0.0209544 0)
(16.251 0.0183372 0)
(14.4349 0.0153479 0)
(12.9881 0.0124963 0)
(11.8569 0.0101718 0)
(10.9587 0.00841851 0)
(10.2307 0.00708556 0)
(9.62986 0.00600825 0)
(9.13531 0.00509218 0)
(8.72746 0.00431264 0)
(8.39312 0.00365279 0)
(8.11835 0.00310052 0)
(7.89412 0.00263962 0)
(7.71022 0.00225826 0)
(7.56006 0.0019442 0)
(7.43641 0.00168797 0)
(7.33478 0.00147383 0)
(7.25062 0.00129017 0)
(7.18133 0.00112376 0)
(7.12446 0.000968486 0)
(7.07857 0.000817589 0)
(7.04239 0.000669403 0)
(7.015 0.000521352 0)
(6.99562 0.000373711 0)
(6.9836 0.000225967 0)
(6.97836 7.88478e-05 0)
(6.97943 -6.95429e-05 0)
(6.98665 -0.000223064 0)
(6.99995 -0.000383073 0)
(7.01913 -0.000545556 0)
(7.04396 -0.000709814 0)
(7.07428 -0.000878626 0)
(7.10996 -0.00104999 0)
(7.15075 -0.0012205 0)
(7.19639 -0.00138936 0)
(7.24668 -0.0015584 0)
(7.30154 -0.00173309 0)
(7.36104 -0.00192115 0)
(7.42534 -0.00212136 0)
(7.49475 -0.00235969 0)
(7.56973 -0.00263164 0)
(7.65085 -0.00294746 0)
(7.73874 -0.00332379 0)
(7.83408 -0.00375955 0)
(7.93758 -0.00426103 0)
(8.04991 -0.00482914 0)
(8.17174 -0.00547496 0)
(8.30373 -0.00620247 0)
(8.44651 -0.00701285 0)
(8.60089 -0.00792346 0)
(8.76772 -0.00894688 0)
(8.94796 -0.0101262 0)
(9.1432 -0.0114701 0)
(9.35469 -0.0130568 0)
(9.58483 -0.0148681 0)
(9.83505 -0.0169723 0)
(10.1074 -0.0192786 0)
(10.4026 -0.023597 0)
(10.7674 -0.0277595 0)
(11.0601 -0.0301665 0)
(11.3371 -0.0301227 0)
(11.5853 -0.0302564 0)
(11.8324 -0.032379 0)
(12.0852 -0.0352365 0)
(12.3433 -0.0378136 0)
(12.6045 -0.040248 0)
(12.8668 -0.0422974 0)
(13.1284 -0.0442796 0)
(13.3892 -0.0462402 0)
(13.6498 -0.0483839 0)
(13.9117 -0.0508723 0)
(14.1777 -0.0537365 0)
(14.4514 -0.0574632 0)
(14.7361 -0.061995 0)
(15.0356 -0.0684712 0)
(15.353 -0.0775743 0)
(15.6951 -0.0896266 0)
(16.0634 -0.103548 0)
(16.4525 -0.120358 0)
(16.8634 -0.142954 0)
(17.3055 -0.176703 0)
(17.7924 -0.189895 0)
(18.2178 -0.250796 0)
(18.2585 -0.0805573 0)
(35.9865 0.132783 0)
(29.5415 0.0560711 0)
(25.7232 0.0360975 0)
(22.7564 0.0317072 0)
(20.1011 0.0289603 0)
(17.7586 0.0253723 0)
(15.7904 0.0212897 0)
(14.2065 0.0173904 0)
(12.9596 0.0142049 0)
(11.9672 0.011794 0)
(11.1629 0.00994994 0)
(10.5 0.00844957 0)
(9.95447 0.00716519 0)
(9.50451 0.00606569 0)
(9.13496 0.00513018 0)
(8.83056 0.00434527 0)
(8.58154 0.00369097 0)
(8.37693 0.00315139 0)
(8.20954 0.00270901 0)
(8.07159 0.00235007 0)
(7.95815 0.0020529 0)
(7.86427 0.00180048 0)
(7.78703 0.00157411 0)
(7.72376 0.00136407 0)
(7.67283 0.00116046 0)
(7.63281 0.000959954 0)
(7.60265 0.000758463 0)
(7.58146 0.000555746 0)
(7.56845 0.000350728 0)
(7.56293 0.000144255 0)
(7.56433 -6.63686e-05 0)
(7.57246 -0.000286121 0)
(7.58724 -0.000516922 0)
(7.60841 -0.000753282 0)
(7.63571 -0.000993928 0)
(7.669 -0.00124189 0)
(7.70816 -0.00149406 0)
(7.75291 -0.00174538 0)
(7.80295 -0.00199389 0)
(7.85805 -0.0022408 0)
(7.91811 -0.00249286 0)
(7.98317 -0.00275558 0)
(8.05342 -0.00304664 0)
(8.12918 -0.00336445 0)
(8.21095 -0.00373312 0)
(8.29932 -0.00415955 0)
(8.39499 -0.00465897 0)
(8.49869 -0.00524094 0)
(8.61116 -0.00590561 0)
(8.73313 -0.00666762 0)
(8.8653 -0.00753196 0)
(9.00839 -0.00848985 0)
(9.16305 -0.00956658 0)
(9.33012 -0.010779 0)
(9.51052 -0.0121328 0)
(9.70525 -0.0136957 0)
(9.91596 -0.0154691 0)
(10.144 -0.0175556 0)
(10.3917 -0.0199502 0)
(10.6607 -0.0227485 0)
(10.9529 -0.025845 0)
(11.2696 -0.0314665 0)
(11.6551 -0.0368271 0)
(11.9605 -0.0402129 0)
(12.2528 -0.0406685 0)
(12.5185 -0.0411489 0)
(12.7825 -0.0438601 0)
(13.0513 -0.0475985 0)
(13.3246 -0.0510833 0)
(13.6004 -0.0545366 0)
(13.877 -0.0575724 0)
(14.1529 -0.0606129 0)
(14.4278 -0.0635837 0)
(14.7025 -0.0667936 0)
(14.9785 -0.0703705 0)
(15.2582 -0.0743191 0)
(15.5454 -0.0791958 0)
(15.8429 -0.084847 0)
(16.1543 -0.0926589 0)
(16.4822 -0.103184 0)
(16.8329 -0.117034 0)
(17.2076 -0.134279 0)
(17.6011 -0.15551 0)
(18.0139 -0.181245 0)
(18.4541 -0.216551 0)
(18.9286 -0.236034 0)
(19.3533 -0.302556 0)
(19.4104 -0.125402 0)
(37.9297 0.152752 0)
(31.7871 0.0734081 0)
(27.7937 0.0490959 0)
(24.6629 0.0430078 0)
(21.8545 0.0391762 0)
(19.3541 0.0343432 0)
(17.2289 0.028885 0)
(15.4997 0.0236761 0)
(14.1275 0.0194137 0)
(13.0316 0.016178 0)
(12.1428 0.0136888 0)
(11.4112 0.0116509 0)
(10.8096 0.00989428 0)
(10.3134 0.0083801 0)
(9.90519 0.00708311 0)
(9.56809 0.0059897 0)
(9.29163 0.00507685 0)
(9.06412 0.00432464 0)
(8.87764 0.00370923 0)
(8.72386 0.00321192 0)
(8.59736 0.00280377 0)
(8.49278 0.00246085 0)
(8.40684 0.0021571 0)
(8.33658 0.00187781 0)
(8.28018 0.00160853 0)
(8.23603 0.00134335 0)
(8.20294 0.00107569 0)
(8.17985 0.000804271 0)
(8.16586 0.000526855 0)
(8.16012 0.000244204 0)
(8.16196 -4.76948e-05 0)
(8.17115 -0.000355285 0)
(8.18757 -0.000681248 0)
(8.2109 -0.00101817 0)
(8.24091 -0.00136427 0)
(8.27748 -0.00172269 0)
(8.32051 -0.00208896 0)
(8.36968 -0.0024558 0)
(8.42465 -0.00281931 0)
(8.48515 -0.00317923 0)
(8.55105 -0.0035433 0)
(8.62238 -0.00391764 0)
(8.69931 -0.00432566 0)
(8.78221 -0.00476198 0)
(8.8716 -0.00525823 0)
(8.96813 -0.00583726 0)
(9.07253 -0.00649645 0)
(9.1856 -0.00727234 0)
(9.30811 -0.00814951 0)
(9.44085 -0.00915558 0)
(9.58454 -0.0102858 0)
(9.73994 -0.0115506 0)
(9.90774 -0.0129635 0)
(10.0888 -0.0145514 0)
(10.2841 -0.0163185 0)
(10.4946 -0.0183451 0)
(10.7221 -0.0206398 0)
(10.968 -0.0233344 0)
(11.2346 -0.0264364 0)
(11.5235 -0.0300692 0)
(11.8368 -0.0341442 0)
(12.1762 -0.0412755 0)
(12.5831 -0.0479923 0)
(12.9012 -0.0525477 0)
(13.2078 -0.0537284 0)
(13.4897 -0.0548025 0)
(13.7699 -0.0582456 0)
(14.0541 -0.0630179 0)
(14.342 -0.0675818 0)
(14.6318 -0.0722981 0)
(14.9221 -0.0765947 0)
(15.2115 -0.0810441 0)
(15.4999 -0.0854021 0)
(15.788 -0.0900752 0)
(16.0774 -0.0951356 0)
(16.3705 -0.100546 0)
(16.6707 -0.106946 0)
(16.9808 -0.114049 0)
(17.3039 -0.123445 0)
(17.6426 -0.135504 0)
(18.0022 -0.15113 0)
(18.3839 -0.171559 0)
(18.7834 -0.197209 0)
(19.2003 -0.226548 0)
(19.6417 -0.263398 0)
(20.1088 -0.291544 0)
(20.5424 -0.359997 0)
(20.6286 -0.191995 0)
(39.6832 0.17258 0)
(34.0513 0.0935686 0)
(29.955 0.0651309 0)
(26.6734 0.0569047 0)
(23.7147 0.0516078 0)
(21.0559 0.0452116 0)
(18.7695 0.0380923 0)
(16.8876 0.0313282 0)
(15.3805 0.0257881 0)
(14.1709 0.0215715 0)
(13.188 0.0183136 0)
(12.38 0.0156364 0)
(11.7162 0.0133148 0)
(11.1691 0.0112986 0)
(10.7181 0.00955597 0)
(10.3446 0.0080754 0)
(10.0376 0.00683268 0)
(9.78467 0.00580581 0)
(9.57701 0.00496426 0)
(9.40565 0.00428529 0)
(9.26469 0.00373187 0)
(9.14831 0.00327245 0)
(9.0528 0.00287152 0)
(8.97491 0.00250802 0)
(8.91255 0.00216112 0)
(8.86392 0.00182103 0)
(8.82765 0.00147727 0)
(8.80255 0.00112642 0)
(8.78753 0.000764095 0)
(8.78161 0.000390256 0)
(8.78395 -1.25987e-06 0)
(8.79431 -0.000419085 0)
(8.81252 -0.000866878 0)
(8.83822 -0.0013349 0)
(8.87125 -0.00182141 0)
(8.91157 -0.00232929 0)
(8.9591 -0.00285298 0)
(9.0135 -0.00338239 0)
(9.07435 -0.00391037 0)
(9.14131 -0.00443437 0)
(9.21421 -0.00496107 0)
(9.29304 -0.00550371 0)
(9.37799 -0.00607041 0)
(9.46946 -0.00668304 0)
(9.568 -0.00736254 0)
(9.67432 -0.00813898 0)
(9.7892 -0.00902387 0)
(9.91348 -0.0100459 0)
(10.048 -0.0112115 0)
(10.1936 -0.0125283 0)
(10.351 -0.0140042 0)
(10.5209 -0.0156641 0)
(10.7042 -0.0175087 0)
(10.9017 -0.0195663 0)
(11.1143 -0.0218479 0)
(11.3431 -0.0244386 0)
(11.59 -0.027358 0)
(11.8562 -0.0307932 0)
(12.1443 -0.034722 0)
(12.4559 -0.0393515 0)
(12.7929 -0.0446081 0)
(13.1577 -0.0534428 0)
(13.5886 -0.0616389 0)
(13.9206 -0.0675173 0)
(14.2418 -0.0696846 0)
(14.54 -0.0716848 0)
(14.8365 -0.076051 0)
(15.1366 -0.0820616 0)
(15.4397 -0.0879118 0)
(15.7444 -0.0941833 0)
(16.0493 -0.100105 0)
(16.3532 -0.106412 0)
(16.6564 -0.112662 0)
(16.9594 -0.11933 0)
(17.264 -0.126435 0)
(17.5725 -0.133836 0)
(17.8882 -0.142281 0)
(18.2136 -0.151348 0)
(18.552 -0.162749 0)
(18.9055 -0.176676 0)
(19.2788 -0.194313 0)
(19.6734 -0.217868 0)
(20.0859 -0.247946 0)
(20.5157 -0.282011 0)
(20.9687 -0.322331 0)
(21.442 -0.361271 0)
(21.902 -0.427205 0)
(22.0376 -0.292289 0)
(41.2079 0.191293 0)
(36.302 0.116007 0)
(32.2088 0.0840439 0)
(28.8013 0.0731649 0)
(25.6976 0.0658598 0)
(22.8815 0.0575101 0)
(20.432 0.0484625 0)
(18.3924 0.0399663 0)
(16.7425 0.0330203 0)
(15.4094 0.027726 0)
(14.3222 0.023626 0)
(13.4293 0.0202576 0)
(12.6966 0.0173236 0)
(12.0933 0.0147555 0)
(11.595 0.0125088 0)
(11.1809 0.0105775 0)
(10.8398 0.00893969 0)
(10.5587 0.00757652 0)
(10.3275 0.00645167 0)
(10.1367 0.00554223 0)
(9.97968 0.00480433 0)
(9.85028 0.00419946 0)
(9.74425 0.00368156 0)
(9.65797 0.00322167 0)
(9.58905 0.00279107 0)
(9.53547 0.00237387 0)
(9.49569 0.001954 0)
(9.4683 0.0015236 0)
(9.45208 0.0010746 0)
(9.44586 0.000604379 0)
(9.44865 0.000103165 0)
(9.46016 -0.000441331 0)
(9.48022 -0.00103414 0)
(9.50843 -0.00166293 0)
(9.54485 -0.00232788 0)
(9.58965 -0.00303018 0)
(9.64278 -0.00376523 0)
(9.70381 -0.00451963 0)
(9.77221 -0.00528074 0)
(9.84751 -0.00604423 0)
(9.92946 -0.00680796 0)
(10.018 -0.00759225 0)
(10.1134 -0.00840309 0)
(10.2159 -0.00927464 0)
(10.3263 -0.0102283 0)
(10.4454 -0.011281 0)
(10.5738 -0.01248 0)
(10.7127 -0.0138341 0)
(10.8627 -0.0153893 0)
(11.0248 -0.0171269 0)
(11.1998 -0.0190734 0)
(11.3884 -0.0212415 0)
(11.5914 -0.0236499 0)
(11.8095 -0.0263043 0)
(12.0439 -0.029243 0)
(12.2956 -0.0325221 0)
(12.5663 -0.0362055 0)
(12.8576 -0.0405113 0)
(13.1719 -0.0453922 0)
(13.5111 -0.0512031 0)