/*--------------------------------*- C++ -*----------------------------------*\
  =========                 |
  \\      /  F ield         | OpenFOAM: The Open Source CFD Toolbox
   \\    /   O peration     | Website:  https://openfoam.org
    \\  /    A nd           | Version:  8
     \\/     M anipulation  |
\*---------------------------------------------------------------------------*/
FoamFile
{
    version     2.0;
    format      ascii;
    class       volScalarField;
    location    "250";
    object      epsilon;
}
// * * * * * * * * * * * * * * * * * * * * * * * * * * * * * * * * * * * * * //

dimensions      [0 2 -3 0 0 0 0];

internalField   nonuniform List<scalar> 
12225
(
285.524
270.702
257.921
243.804
232.47
223.075
216.824
212.694
212.74
213.961
217.23
220.914
228.066
232.736
241.41
246.115
255.931
257.78
52.4937
91.8796
106.976
114.744
124.846
136.775
152.691
169.894
191.099
210.92
235.199
255.465
280.991
299.308
324.589
339.457
363.283
378.528
20.5289
34.8713
44.6765
50.4675
55.3967
59.6052
64.6647
69.6405
76.3149
83.1799
91.4282
99.3101
108.156
116.917
125.51
135.252
142.436
153.807
16.0022
19.4861
24.082
27.5631
30.4969
32.8688
35.155
37.2929
39.5015
41.9169
44.334
47.1998
49.6762
53.034
55.4002
59.2334
61.3565
65.6482
15.0385
15.7123
17.3993
19.0783
20.6393
22.0258
23.2459
24.4309
25.4436
26.5942
27.5225
28.7569
29.6304
30.983
31.8084
33.2666
34.0367
35.6536
14.7897
14.8256
15.2495
15.8676
16.5677
17.2869
17.9236
18.5841
19.1189
19.7337
20.1929
20.7983
21.2077
21.8214
22.196
22.8267
23.1579
23.8633
14.7658
14.6146
14.6409
14.7257
14.9351
15.2199
15.4915
15.8088
16.0708
16.3824
16.618
16.9199
17.1305
17.4265
17.6147
17.9131
18.0697
18.4095
14.7687
14.5866
14.466
14.3801
14.3677
14.3896
14.4394
14.5334
14.6185
14.7366
14.8308
14.9563
15.0475
15.176
15.2603
15.3927
15.4619
15.6224
14.768
14.591
14.4349
14.2963
14.185
14.1044
14.0399
14.0066
13.9814
13.9785
13.9808
13.9917
14.0036
14.0298
14.046
14.0809
14.0965
14.1509
14.7665
14.594
14.432
14.282
14.143
14.0219
13.9115
13.8193
13.737
13.6698
13.6102
13.5633
13.5181
13.4872
13.4515
13.4343
13.4017
13.4008
14.7659
14.5945
14.4322
14.2803
14.1361
14.0032
13.8782
13.7644
13.6582
13.5629
13.4736
13.3952
13.3198
13.2561
13.1915
13.1408
13.0838
13.0451
14.7657
14.5943
14.4321
14.2798
14.1353
13.9998
13.8715
13.7518
13.6385
13.5337
13.4341
13.343
13.2557
13.1771
13.1003
13.0328
12.9647
12.9074
14.7657
14.5941
14.432
14.2794
14.1349
13.9989
13.8699
13.7485
13.6332
13.525
13.422
13.3257
13.2338
13.1484
13.0663
12.9906
12.9172
12.8502
14.7657
14.5939
14.4318
14.279
14.1346
13.9983
13.8691
13.7472
13.6315
13.5223
13.4184
13.3204
13.227
13.139
13.055
12.9759
12.9002
12.8291
14.7657
14.5938
14.4317
14.2787
14.1342
13.9977
13.8686
13.7464
13.6307
13.5211
13.4171
13.3185
13.2248
13.136
13.0516
12.9714
12.8951
12.8227
14.7657
14.5937
14.4315
14.2785
14.1339
13.9973
13.8681
13.7458
13.63
13.5202
13.4161
13.3174
13.2236
13.1346
13.05
12.9696
12.8931
12.8204
14.7657
14.5937
14.4315
14.2783
14.1337
13.997
13.8677
13.7453
13.6294
13.5195
13.4154
13.3165
13.2227
13.1336
13.0489
12.9684
12.8918
12.819
14.7657
14.5937
14.4314
14.2782
14.1335
13.9968
13.8674
13.7449
13.629
13.5191
13.4148
13.3159
13.222
13.1328
13.0481
12.9675
12.8909
12.8179
14.7657
14.5937
14.4314
14.2782
14.1335
13.9967
13.8673
13.7448
13.6288
13.5189
13.4146
13.3156
13.2217
13.1325
13.0477
12.9671
12.8904
12.8174
14.7657
14.5937
14.4314
14.2782
14.1336
13.9968
13.8674
13.745
13.629
13.519
13.4148
13.3158
13.2219
13.1327
13.0479
12.9673
12.8906
12.8177
14.7657
14.5937
14.4315
14.2784
14.1337
13.997
13.8677
13.7453
13.6294
13.5195
13.4154
13.3166
13.2229
13.1338
13.0493
12.9689
12.8926
12.8199
14.7657
14.5937
14.4316
14.2785
14.1341
13.9974
13.8685
13.7464
13.6312
13.522
13.419
13.3213
13.2293
13.1418
13.0594
12.981
12.9073
12.8368
14.7659
14.5937
14.4318
14.2788
14.1353
14.0002
13.8742
13.756
13.6463
13.5435
13.4485
13.3591
13.277
13.1992
13.1282
13.0601
12.9988
12.9386
14.7661
14.5928
14.4329
14.2844
14.1515
14.0321
13.9289
13.8375
13.7593
13.6893
13.6306
13.5769
13.5328
13.4905
13.4574
13.423
13.3988
13.3693
14.7641
14.5936
14.461
14.3603
14.3029
14.2767
14.2796
14.294
14.3202
14.3529
14.3959
14.4345
14.4824
14.5217
14.572
14.609
14.6617
14.6939
14.757
14.6921
14.7579
14.9172
15.1828
15.4611
15.7475
16.0121
16.2723
16.5038
16.7361
16.9387
17.1508
17.331
17.531
17.6938
17.889
18.0361
14.9575
15.4344
16.5693
17.6884
18.7053
19.5678
20.3373
20.9969
21.6195
22.1662
22.719
23.211
23.7402
24.2046
24.733
25.183
25.7254
26.1665
16.2579
20.9389
25.015
27.7588
29.7844
31.3586
32.7768
34.0585
35.3595
36.6166
37.9759
39.2978
40.7623
42.1466
43.7189
45.175
46.8852
48.3601
29.9428
47.2251
54.8706
58.6737
61.6141
64.4325
67.5801
70.9799
74.7393
78.7158
82.9874
87.3472
91.9085
96.4542
101.105
105.628
110.181
114.583
165.79
160.073
154.899
149.564
144.479
139.678
135.613
132.11
129.27
126.973
125.32
124.045
123.339
122.83
122.826
122.983
123.27
123.827
0.206274
0.253116
0.46741
0.661022
0.857415
1.07819
1.33223
1.627
1.96332
2.33593
2.7364
3.15587
3.58634
4.0213
4.45535
4.88434
5.30447
5.71292
6.10645
6.48255
6.83767
7.16866
7.47083
7.73978
7.96964
8.15543
8.29189
8.37622
8.3967
8.36782
8.27092
8.17139
8.09415
8.33752
8.6961
9.01344
9.17238
9.1366
40.8198
43.217
44.6446
42.8276
47.0861
50.2694
53.7454
57.4794
61.2987
65.3403
69.5231
73.8954
78.4356
83.16
88.0647
93.1574
98.4386
103.914
109.584
115.454
121.524
127.799
134.279
140.968
147.864
154.971
162.287
169.813
177.548
185.491
193.64
201.993
210.546
219.298
228.242
237.374
246.689
256.18
265.84
275.663
285.638
295.759
306.013
316.392
326.883
337.475
348.153
358.905
369.714
380.564
391.436
402.311
413.164
423.97
434.701
445.331
455.836
466.205
476.462
486.683
496.713
506.614
516.341
525.895
535.251
544.396
553.311
561.982
570.391
578.523
586.362
593.895
601.107
607.983
614.513
620.683
626.484
631.904
636.935
641.567
645.796
649.613
653.016
656
658.562
660.701
662.415
663.698
664.536
665.073
665.213
664.849
663.984
662.731
661.169
659.188
656.857
654.161
651.115
647.731
644.023
640.009
635.706
631.148
626.33
621.261
615.959
610.434
604.704
598.778
592.675
586.403
579.98
573.413
566.718
559.902
552.981
545.959
538.851
531.661
524.401
517.08
509.71
502.314
495.024
489.199
486.387
484.073
481.766
479.405
476.98
474.476
471.885
469.188
466.367
463.391
460.21
456.736
452.791
447.95
441.354
414.378
1.02798
0.631537
0.638543
0.723667
0.854701
1.02397
1.23184
1.47815
1.76035
2.07361
2.41198
2.76959
3.14128
3.52284
3.91098
4.3032
4.69761
5.09283
5.48785
5.88188
6.2742
6.66403
7.05028
7.43147
7.80543
8.16887
8.54268
8.94836
9.39584
9.91679
10.5556
11.3692
12.3641
13.4961
14.4991
16.4261
18.6088
21.0052
24.1673
25.51
26.8064
27.8284
29.8951
31.5867
33.3739
35.2237
37.1263
39.0986
41.1338
43.239
45.4132
47.6593
49.9778
52.3703
54.8375
57.3806
60.0001
62.6969
65.4714
68.3241
71.2549
74.2643
77.3519
80.5177
83.7611
87.0817
90.4785
93.9508
97.4971
101.116
104.807
108.567
112.394
116.286
120.242
124.257
128.329
132.456
136.633
140.857
145.123
149.429
153.768
158.137
162.529
166.94
171.363
175.792
180.218
184.636
189.037
193.412
197.756
202.065
206.34
210.591
214.847
219.167
223.412
227.607
231.738
235.8
239.787
243.692
247.509
251.231
254.853
258.367
261.768
265.051
268.208
271.236
274.129
276.882
279.491
281.951
284.259
286.41
288.403
290.234
291.9
293.401
294.735
295.901
296.897
297.725
298.386
298.893
299.226
299.368
299.33
299.12
298.781
298.278
297.632
296.834
295.891
294.808
293.588
292.239
290.768
289.18
287.479
285.669
283.757
281.746
279.643
277.453
275.181
272.832
270.413
267.926
265.378
262.772
260.113
257.404
254.651
251.855
249.022
246.155
243.26
240.35
237.476
234.909
232.928
231.109
229.309
227.491
225.647
223.771
221.859
219.908
217.914
215.872
213.778
211.632
209.414
207.21
205.018
201.222
2.16731
1.11099
0.998718
1.03878
1.14353
1.29599
1.49108
1.72578
1.99628
2.29765
2.6244
2.97133
3.33413
3.7095
4.09523
4.48997
4.89317
5.30487
5.72569
6.15665
6.5992
7.05516
7.52692
8.01793
8.53379
9.08428
9.66743
10.2861
10.9591
11.7017
12.5259
13.4356
14.4216
15.4894
16.655
17.9608
19.3575
20.7928
22.1897
23.4222
24.7016
25.9735
27.4197
28.8646
30.3612
31.9092
33.5095
35.1642
36.8733
38.638
40.4587
42.3363
44.2712
46.2642
48.3158
50.4265
52.5966
54.8265
57.1166
59.467
61.8778
64.3489
66.8804
69.472
72.1233
74.8339
77.6032
80.4307
83.3154
86.2561
89.2516
92.3007
95.4019
98.5534
101.754
105
108.291
111.625
114.997
118.407
121.85
125.324
128.825
132.351
135.896
139.457
143.03
146.611
150.195
153.777
157.354
160.923
164.479
168.023
171.556
175.081
178.602
182.109
185.575
188.998
192.371
195.691
198.95
202.145
205.269
208.317
211.285
214.166
216.957
219.652
222.246
224.736
227.117
229.384
231.534
233.564
235.469
237.249
238.898
240.416
241.801
243.05
244.163
245.139
245.978
246.679
247.245
247.675
247.964
248.092
248.091
247.947
247.688
247.3
246.789
246.156
245.403
244.534
243.554
242.468
241.278
239.992
238.611
237.14
235.583
233.946
232.231
230.444
228.589
226.671
224.692
222.658
220.571
218.437
216.257
214.036
211.777
209.483
207.156
204.8
202.422
200.029
197.652
195.386
193.325
191.348
189.388
187.421
185.438
183.434
181.407
179.357
177.286
175.192
173.081
170.967
168.868
166.901
165.132
163.392
3.44374
1.64409
1.40261
1.40018
1.49006
1.63689
1.82925
2.06169
2.32978
2.62896
2.95447
3.3019
3.66758
4.04884
4.44403
4.85245
5.27421
5.7101
6.1615
6.63022
7.11842
7.62852
8.16308
8.72484
9.31661
9.94102
10.5995
11.2951
12.0331
12.8182
13.6538
14.5399
15.4767
16.4663
17.5135
18.6302
19.7903
20.9852
22.1947
23.414
24.6728
25.9792
27.3352
28.7299
30.1699
31.6573
33.1938
34.7808
36.4192
38.1098
39.8534
41.6507
43.5023
45.4089
47.3709
49.3889
51.4634
53.5947
55.7834
58.0297
60.3338
62.6959
65.116
67.5943
70.1304
72.7243
75.3755
78.0835
80.8477
83.6673
86.5413
89.4688
92.4484
95.4787
98.5583
101.685
104.858
108.074
111.331
114.627
117.959
121.323
124.718
128.14
131.585
135.05
138.531
142.024
145.526
149.032
152.54
156.047
159.548
163.043
166.529
170.006
173.467
176.902
180.3
183.656
186.965
190.222
193.42
196.554
199.619
202.609
205.52
208.345
211.081
213.722
216.263
218.699
221.028
223.243
225.342
227.321
229.177
230.906
232.506
233.975
235.31
236.511
237.576
238.504
239.295
239.949
240.466
240.848
241.081
241.163
241.117
240.94
240.637
240.208
239.654
238.978
238.184
237.276
236.256
235.131
233.903
232.578
231.159
229.651
228.059
226.386
224.638
222.818
220.932
218.983
216.975
214.913
212.801
210.641
208.438
206.196
203.916
201.603
199.26
196.889
194.496
192.088
189.684
187.329
185.064
182.847
180.643
178.437
176.22
173.989
171.744
169.484
167.206
164.92
162.637
160.378
158.175
156.133
154.321
152.75
4.71069
2.18453
1.81048
1.76645
1.8388
1.97817
2.16684
2.39675
2.66268
2.96017
3.28501
3.63337
4.00206
4.38874
4.79198
5.21122
5.64666
6.09915
6.57006
7.06111
7.57432
8.11179
8.67561
9.26773
9.88984
10.5433
11.2291
11.9486
12.7034
13.4951
14.3259
15.1986
16.1146
17.0759
18.0844
19.1403
20.2391
21.3769
22.5592
23.7753
25.0284
26.3224
27.6691
29.0622
30.5022
31.9905
33.5284
35.1171
36.7577
38.4513
40.1988
42.0013
43.8597
45.775
47.7476
49.7781
51.8672
54.0158
56.2244
58.4935
60.8237
63.2154
65.669
68.1847
70.7626
73.4028
76.1051
78.8694
81.6952
84.5819
87.5289
90.5353
93.6
96.7218
99.8993
103.131
106.414
109.748
113.13
116.557
120.026
123.536
127.082
130.661
134.27
137.906
141.564
145.24
148.931
152.632
156.34
160.05
163.759
167.462
171.155
174.83
178.483
182.106
185.692
189.233
192.726
196.162
199.537
202.844
206.078
209.231
212.3
215.277
218.158
220.937
223.608
226.168
228.61
230.931
233.127
235.193
237.125
238.922
240.579
242.094
243.466
244.692
245.772
246.703
247.487
248.123
248.611
248.952
249.125
249.155
249.041
248.788
248.397
247.87
247.21
246.419
245.501
244.461
243.302
242.03
240.649
239.164
237.579
235.9
234.132
232.279
230.346
228.339
226.261
224.119
221.915
219.656
217.345
214.986
212.583
210.14
207.66
205.147
202.605
200.035
197.444
194.837
192.228
189.641
187.095
184.577
182.07
179.563
177.051
174.532
172.006
169.475
166.944
164.419
161.912
159.449
157.066
154.857
152.874
151.109
5.91163
2.70588
2.20213
2.11654
2.16982
2.29984
2.4829
2.70843
2.97029
3.26393
3.58546
3.9315
4.29921
4.68651
5.09205
5.51522
5.95613
6.41542
6.89422
7.39397
7.91636
8.46317
9.03618
9.63707
10.2673
10.9282
11.6209
12.3464
13.106
13.9012
14.7341
15.6067
16.5209
17.4782
18.4798
19.5257
20.6156
21.7494
22.9275
24.1486
25.4139
26.7255
28.0861
29.4958
30.9555
32.4664
34.0298
35.6468
37.3188
39.0471
40.8327
42.6769
44.5806
46.5449
48.5712
50.6607
52.8146
55.0338
57.3193
59.6721
62.093
64.5828
67.1422
69.7717
72.4717
75.2427
78.0847
80.9978
83.9817
87.0362
90.1607
93.3544
96.6163
99.9452
103.34
106.798
110.319
113.899
117.537
121.229
124.973
128.766
132.604
136.483
140.4
144.35
148.33
152.334
156.357
160.396
164.446
168.5
172.553
176.601
180.636
184.652
188.642
192.598
196.514
200.382
204.196
207.948
211.632
215.242
218.77
222.209
225.554
228.797
231.932
234.954
237.856
240.633
243.279
245.79
248.16
250.386
252.462
254.387
256.156
257.766
259.216
260.504
261.628
262.587
263.381
264.01
264.475
264.767
264.882
264.843
264.645
264.29
263.781
263.121
262.313
261.361
260.269
259.042
257.684
256.202
254.6
252.883
251.058
249.13
247.105
244.987
242.784
240.5
238.141
235.713
233.22
230.668
228.061
225.405
222.704
219.962
217.183
214.371
211.53
208.663
205.775
202.872
199.963
197.063
194.184
191.322
188.47
185.621
182.773
179.925
177.079
174.237
171.406
168.593
165.815
163.097
160.476
158.034
155.799
153.712
7.0074
3.18964
2.5628
2.43601
2.46903
2.5879
2.7633
2.98223
3.23759
3.52459
3.83954
4.17936
4.54155
4.92422
5.32612
5.74667
6.18585
6.64415
7.12252
7.62218
8.14462
8.69146
9.26435
9.86493
10.4948
11.1553
11.8478
12.5738
13.3345
14.1317
14.967
15.8423
16.7592
17.7191
18.7229
19.7713
20.8649
22.0044
23.1906
24.424
25.7058
27.0375
28.4205
29.8562
31.3457
32.8904
34.492
36.1517
37.8713
39.6522
41.4959
43.404
45.3781
47.4196
49.5302
51.7115
53.9649
56.292
58.6941
61.1726
63.7286
66.3635
69.0782
71.8737
74.7506
77.7098
80.7516
83.8762
87.0838
90.3741
93.7467
97.2009
100.736
104.35
108.043
111.812
115.654
119.569
123.552
127.602
131.714
135.885
140.112
144.389
148.712
153.077
157.478
161.911
166.368
170.846
175.337
179.835
184.334
188.826
193.304
197.76
202.187
206.576
210.919
215.209
219.437
223.597
227.679
231.677
235.582
239.387
243.085
246.667
250.127
253.457
256.652
259.705
262.61
265.361
267.952
270.379
272.638
274.724
276.633
278.364
279.912
281.277
282.457
283.45
284.257
284.878
285.313
285.546
285.597
285.468
285.161
284.678
284.021
283.195
282.204
281.051
279.742
278.283
276.678
274.934
273.058
271.054
268.931
266.694
264.35
261.905
259.366
256.74
254.033
251.25
248.399
245.485
242.514
239.491
236.422
233.311
230.163
226.982
223.773
220.541
217.289
214.023
210.751
207.482
204.226
200.983
197.751
194.526
191.309
188.1
184.901
181.718
178.556
175.426
172.343
169.335
166.438
163.717
161.183
158.73
7.97049
3.62185
2.88171
2.7148
2.72677
2.83287
2.99863
3.20883
3.45537
3.73319
4.03864
4.36891
4.72176
5.09555
5.48918
5.90213
6.33435
6.78629
7.25877
7.75295
8.27022
8.81212
9.38026
9.9763
10.6019
11.2586
11.9479
12.6712
13.4302
14.2267
15.0622
15.9384
16.857
17.8192
18.8263
19.8794
20.9795
22.1277
23.3254
24.574
25.8747
27.229
28.6385
30.1048
31.6299
33.2154
34.8631
36.575
38.3529
40.1988
42.1147
44.1025
46.1644
48.3022
50.5181
52.8141
55.1921
57.6542
60.2022
62.8379
65.5631
68.3793
71.288
74.2906
77.3882
80.5817
83.872
87.2594
90.7443
94.3266
98.0061
101.782
105.654
109.619
113.678
117.827
122.064
126.386
130.791
135.275
139.834
144.463
149.159
153.915
158.727
163.589
168.495
173.439
178.413
183.411
188.426
193.449
198.473
203.489
208.489
213.463
218.403
223.3
228.144
232.927
237.639
242.272
246.817
251.264
255.605
259.831
263.933
267.903
271.734
275.417
278.944
282.309
285.504
288.524
291.362
294.013
296.472
298.735
300.797
302.655
304.307
305.75
306.983
308.005
308.816
309.417
309.802
309.966
309.928
309.686
309.243
308.601
307.765
306.739
305.527
304.135
302.568
300.833
298.936
296.884
294.685
292.345
289.873
287.274
284.558
281.732
278.804
275.78
272.668
269.476
266.21
262.878
259.485
256.039
252.545
249.009
245.437
241.834
238.204
234.553
230.885
227.206
223.523
219.843
216.173
212.516
208.874
205.245
201.631
198.034
194.458
190.907
187.39
183.917
180.505
177.181
173.976
170.946
168.081
165.248
8.78397
3.99375
3.15259
2.94657
2.93784
3.02968
3.18407
3.38367
3.61946
3.88605
4.1798
4.49807
4.83887
5.20079
5.58292
5.98488
6.40669
6.84867
7.31152
7.79651
8.30504
8.83864
9.39891
9.98754
10.6063
11.257
11.9416
12.6608
13.4163
14.2098
15.0431
15.9179
16.8359
17.7986
18.8075
19.8641
20.97
22.1268
23.3375
24.603
25.9248
27.3045
28.7436
30.2445
31.8099
33.442
35.1431
36.9156
38.7618
40.6842
42.6853
44.7675
46.9334
49.1857
51.5269
53.9596
56.4863
59.1096
61.8318
64.6553
67.5824
70.6151
73.7554
77.005
80.3654
83.838
87.4238
91.1234
94.9373
98.8657
102.908
107.064
111.332
115.712
120.2
124.795
129.493
134.293
139.189
144.178
149.255
154.415
159.652
164.961
170.335
175.767
181.25
186.776
192.338
197.926
203.533
209.149
214.765
220.37
225.955
231.509
237.022
242.485
247.885
253.214
258.46
263.614
268.666
273.604
278.419
283.102
287.642
292.03
296.258
300.316
304.195
307.889
311.389
314.689
317.781
320.66
323.321
325.758
327.968
329.947
331.692
333.2
334.471
335.504
336.299
336.856
337.167
337.24
337.082
336.694
336.081
335.247
334.194
332.93
331.458
329.785
327.919
325.865
323.632
321.227
318.659
315.936
313.067
310.06
306.924
303.668
300.3
296.829
293.264
289.613
285.884
282.084
278.223
274.306
270.34
266.334
262.292
258.221
254.127
250.015
245.89
241.758
237.625
233.499
229.385
225.287
221.209
217.153
213.12
209.113
205.139
201.201
197.309
193.474
189.714
186.052
182.517
179.155
175.941
172.724
9.43994
4.30065
3.37234
3.12884
3.10024
3.17699
3.31869
3.50625
3.72983
3.98372
4.26425
4.56892
4.89594
5.24395
5.61233
6.00113
6.41085
6.84258
7.29628
7.77269
8.27298
8.79857
9.35102
9.93195
10.5431
11.186
11.8622
12.5736
13.3219
14.1092
14.9375
15.8085
16.7243
17.6867
18.6975
19.7587
20.8721
22.0397
23.2631
24.5449
25.8873
27.2929
28.765
30.3055
31.9174
33.6037
35.3673
37.2111
39.1379
41.1508
43.2528
45.447
47.7366
50.1249
52.615
55.2101
57.9135
60.7282
63.6572
66.7035
69.8699
73.1588
76.5728
80.114
83.7842
87.5851
91.5179
95.5835
99.7823
104.115
108.58
113.177
117.906
122.763
127.747
132.855
138.083
143.428
148.884
154.448
160.112
165.872
171.72
177.649
183.652
189.721
195.846
202.019
208.23
214.469
220.727
226.991
233.252
239.498
245.717
251.898
258.028
264.097
270.092
276.001
281.813
287.517
293.1
298.551
303.86
309.015
314.005
318.82
323.45
327.885
332.117
336.136
339.934
343.504
346.839
349.933
352.778
355.371
357.708
359.783
361.595
363.142
364.422
365.434
366.179
366.656
366.862
366.806
366.488
365.915
365.092
364.023
362.713
361.167
359.392
357.396
355.185
352.768
350.154
347.351
344.37
341.219
337.908
334.447
330.846
327.115
323.264
319.303
315.241
311.087
306.852
302.544
298.172
293.744
289.268
284.752
280.203
275.628
271.034
266.427
261.812
257.196
252.585
247.985
243.402
238.842
234.309
229.807
225.337
220.906
216.517
212.178
207.897
203.686
199.562
195.547
191.666
187.957
184.384
180.788
9.93794
4.54123
3.54077
3.26336
3.21543
3.27667
3.40478
3.57926
3.78962
4.02985
4.29612
4.58634
4.89942
5.23523
5.59227
5.96999
6.36833
6.78734
7.22762
7.69067
8.17793
8.69084
9.23096
9.79991
10.3994
11.0311
11.6969
12.3989
13.1392
13.9199
14.743
15.6106
16.5248
17.4879
18.5022
19.57
20.6937
21.8758
23.119
24.4261
25.8
27.2432
28.7583
30.3467
32.015
33.7677
35.608
37.5393
39.5651
41.6888
43.9144
46.2455
48.686
51.2399
53.9111
56.7033
59.6206
62.6665
65.8448
69.1589
72.6122
76.2076
79.9481
83.8361
87.8737
92.0627
96.4045
100.9
105.55
110.353
115.31
120.419
125.678
131.085
136.637
142.33
148.16
154.122
160.21
166.419
172.74
179.167
185.693
192.307
199.001
205.766
212.59
219.464
226.376
233.315
240.268
247.224
254.169
261.09
267.976
274.811
281.583
288.279
294.885
301.389
307.776
314.035
320.152
326.115
331.912
337.53
342.958
348.184
353.199
357.991
362.55
366.868
370.936
374.745
378.289
381.56
384.553
387.262
389.684
391.814
393.65
395.19
396.433
397.378
398.026
398.377
398.433
398.197
397.67
396.863
395.781
394.429
392.812
390.937
388.812
386.444
383.842
381.017
377.976
374.731
371.291
367.668
363.872
359.915
355.808
351.561
347.187
342.696
338.099
333.407
328.63
323.778
318.861
313.889
308.87
303.814
298.729
293.622
288.501
283.373
278.244
273.12
268.008
262.915
257.847
252.81
247.808
242.847
237.93
233.063
228.251
223.501
218.823
214.227
209.731
205.353
201.116
197.052
193.117
189.151
10.286
4.71811
3.66062
3.35351
3.28715
3.33286
3.44689
3.60761
3.8042
4.03111
4.28564
4.56422
4.86491
5.18601
5.52711
5.88866
6.27102
6.67477
7.10115
7.55111
8.0258
8.5266
9.05507
9.61288
10.2019
10.8239
11.4811
12.1756
12.9097
13.6857
14.506
15.3731
16.2896
17.2581
18.2815
19.3627
20.5045
21.71
22.9825
24.326
25.743
27.236
28.8065
30.4617
32.2072
34.0475
35.9882
38.0338
40.188
42.455
44.8392
47.3453
49.9779
52.7417
55.6412
58.681
61.8656
65.1994
68.6866
72.3312
76.1368
80.107
84.2447
88.5526
93.0329
97.6874
102.517
107.523
112.705
118.062
123.593
129.296
135.169
141.208
147.409
153.768
160.278
166.933
173.727
180.652
187.699
194.859
202.123
209.48
216.919
224.43
232
239.616
247.265
254.935
262.612
270.28
277.928
285.538
293.098
300.591
308.004
315.322
322.529
329.612
336.555
343.346
349.97
356.413
362.663
368.706
374.531
380.124
385.476
390.574
395.409
399.971
404.251
408.241
411.934
415.322
418.4
421.163
423.607
425.728
427.524
428.993
430.135
430.95
431.439
431.602
431.447
430.968
430.172
429.072
427.673
425.981
424.003
421.745
419.217
416.427
413.386
410.103
406.59
402.856
398.915
394.778
390.457
385.965
381.314
376.516
371.584
366.53
361.366
356.104
350.756
345.333
339.845
334.304
328.719
323.101
317.458
311.799
306.132
300.466
294.806
289.16
283.535
277.938
272.374
266.852
261.375
255.95
250.581
245.275
240.037
234.874
229.796
224.813
219.941
215.198
210.603
206.182
201.889
197.566
10.498
4.8371
3.7365
3.40408
3.32055
3.35109
3.45155
3.60059
3.78611
4.00108
4.24074
4.50325
4.78756
5.09306
5.41975
5.76745
6.13648
6.52747
6.94135
7.37924
7.84242
8.33238
8.85077
9.39943
9.98034
10.5956
11.2476
11.9387
12.6716
13.449
14.2737
15.1487
16.0768
17.0615
18.1063
19.2153
20.3914
21.6377
22.9576
24.3533
25.8286
27.3907
29.0466
30.8015
32.6606
34.6293
36.7133
38.9187
41.2503
43.7132
46.3128
49.0546
51.944
54.9863
58.1869
61.5509
65.0834
68.7891
72.6727
76.7384
80.9901
85.4312
90.0647
94.893
99.9181
105.141
110.563
116.182
122
128.013
134.22
140.617
147.201
153.966
160.908
168.018
175.292
182.719
190.292
198.002
205.837
213.787
221.84
229.985
238.208
246.497
254.836
263.213
271.612
280.019
288.417
296.792
305.128
313.407
321.615
329.736
337.752
345.648
353.409
361.018
368.46
375.721
382.786
389.641
396.271
402.664
408.806
414.685
420.289
425.609
430.632
435.35
439.753
443.834
447.586
451.001
454.074
456.801
459.178
461.202
462.871
464.184
465.142
465.745
465.994
465.896
465.451
464.65
463.515
462.053
460.271
458.176
455.774
453.075
450.087
446.822
443.289
439.5
435.467
431.202
426.718
422.028
417.145
412.083
406.856
401.476
395.958
390.314
384.559
378.705
372.765
366.751
360.675
354.549
348.384
342.19
335.978
329.757
323.536
317.323
311.127
304.954
298.813
292.709
286.649
280.642
274.692
268.806
262.989
257.248
251.588
246.017
240.543
235.178
229.935
224.831
219.881
215.11
210.468
205.808
10.5669
4.89731
3.77111
3.41938
3.32166
3.34107
3.4304
3.56607
3.73668
3.93642
4.16192
4.41109
4.68252
4.97553
5.28993
5.62581
5.98362
6.36407
6.76816
7.19712
7.65242
8.13574
8.64901
9.19431
9.77387
10.3901
11.0458
11.7436
12.4869
13.2794
14.1243
15.0247
15.9841
17.0063
18.0944
19.2504
20.4792
21.7875
23.1809
24.666
26.2486
27.9344
29.7303
31.6424
33.677
35.841
38.1414
40.5839
43.1751
45.9215
48.8297
51.9061
55.1567
58.5875
62.204
66.0118
70.016
74.2215
78.6327
83.2537
88.0879
93.1381
98.4066
103.895
109.604
115.533
121.682
128.05
134.633
141.429
148.433
155.64
163.044
170.639
178.416
186.368
194.484
202.756
211.171
219.719
228.387
237.162
246.031
254.98
263.994
273.058
282.156
291.273
300.392
309.498
318.572
327.599
336.561
345.441
354.222
362.887
371.418
379.799
388.014
396.045
403.879
411.498
418.888
426.035
432.925
439.543
445.877
451.916
457.646
463.058
468.142
472.888
477.287
481.333
485.018
488.336
491.283
493.855
496.048
497.86
499.291
500.339
501.009
501.299
501.214
500.761
499.921
498.718
497.162
495.26
493.021
490.45
487.557
484.353
480.847
477.051
472.975
468.632
464.035
459.197
454.132
448.854
443.377
437.717
431.887
425.903
419.778
413.528
407.166
400.707
394.164
387.55
380.879
374.163
367.414
360.643
353.861
347.079
340.306
333.551
326.824
320.13
313.479
306.877
300.332
293.85
287.439
281.104
274.851
268.688
262.619
256.653
250.797
245.062
239.461
234.008
228.716
223.608
218.632
213.659
10.5462
4.90779
3.77153
3.40985
3.30183
3.30761
3.38281
3.50538
3.66406
3.85243
4.0669
4.30537
4.56667
4.85023
5.15601
5.48431
5.83574
6.21119
6.61183
7.03913
7.49485
7.98106
8.50029
9.05547
9.64874
10.283
10.9614
11.6872
12.4636
13.293
14.1782
15.1255
16.1404
17.2282
18.3945
19.6462
20.9886
22.4277
23.9705
25.6246
27.3971
29.2955
31.3271
33.4995
35.8203
38.2973
40.9384
43.7509
46.7425
49.9213
53.2951
56.8712
60.6557
64.6539
68.871
73.312
77.9812
82.8825
88.0193
93.3941
99.0089
104.865
110.962
117.3
123.877
130.692
137.74
145.019
152.521
160.243
168.177
176.315
184.648
193.169
201.865
210.727
219.743
228.9
238.185
247.586
257.087
266.674
276.332
286.045
295.798
305.573
315.354
325.125
334.867
344.564
354.198
363.751
373.207
382.546
391.751
400.806
409.693
418.395
426.895
435.177
443.226
451.025
458.562
465.82
472.787
479.449
485.795
491.811
497.488
502.815
507.784
512.384
516.609
520.453
523.908
526.97
529.635
531.9
533.763
535.222
536.278
536.929
537.186
537.047
536.517
535.577
534.252
532.551
530.481
528.052
525.273
522.152
518.699
514.925
510.841
506.458
501.789
496.847
491.646
486.199
480.521
474.628
468.535
462.256
455.808
449.206
442.465
435.602
428.629
421.564
414.419
407.21
399.95
392.651
385.328
377.991
370.652
363.323
356.014
348.734
341.492
334.297
327.156
320.077
313.067
306.134
299.284
292.523
285.858
279.296
272.842
266.503
260.288
254.205
248.266
242.485
236.872
231.448
226.163
220.908
10.4739
4.89509
3.75372
3.37909
3.25814
3.25321
3.31837
3.43152
3.58134
3.76172
3.9692
4.20183
4.45862
4.73931
5.04419
5.37422
5.73038
6.11357
6.52535
6.96764
7.4426
7.95252
8.49948
9.08384
9.71122
10.3862
11.1134
11.8974
12.7434
13.6575
14.6456
15.7132
16.867
18.1141
19.4622
20.9196
22.4942
24.1943
26.0285
28.006
30.1359
32.427
34.8883
37.5288
40.3571
43.3811
46.6072
50.0446
53.7028
57.591
61.7196
66.098
70.7274
75.6103
80.7491
86.1461
91.8029
97.7202
103.898
110.336
117.033
123.985
131.189
138.641
146.336
154.268
162.429
170.812
179.409
188.21
197.206
206.384
215.736
225.247
234.906
244.7
254.615
264.636
274.75
284.941
295.195
305.494
315.825
326.169
336.511
346.833
357.12
367.353
377.516
387.592
397.562
407.41
417.119
426.672
436.05
445.239
454.22
462.979
471.498
479.763
487.758
495.47
502.884
509.987
516.767
523.211
529.308
535.048
540.419
545.415
550.026
554.244
558.064
561.48
564.487
567.08
569.259
571.018
572.361
573.282
573.79
573.871
573.574
572.841
571.696
570.151
568.213
565.89
563.193
560.132
556.714
552.951
548.852
544.431
539.697
534.664
529.344
523.75
517.898
511.801
505.475
498.937
492.201
485.283
478.201
470.969
463.605
456.123
448.54
440.871
433.13
425.334
417.495
409.627
401.745
393.859
385.984
378.129
370.305
362.524
354.794
347.123
339.52
331.992
324.547
317.192
309.933
302.778
295.731
288.8
281.991
275.31
268.764
262.362
256.114
250.031
244.124
238.412
232.844
227.343
10.3282
4.85522
3.71303
3.33188
3.20517
3.19549
3.25667
3.3672
3.51622
3.69828
3.91004
4.14963
4.41639
4.7103
5.03166
5.38059
5.75755
6.1658
6.60819
7.08776
7.60791
8.1725
8.78609
9.45456
10.1824
10.9753
11.84
12.7836
13.8141
14.9399
16.1699
17.5129
18.9785
20.5768
22.3186
24.2147
26.2763
28.5144
30.9402
33.5646
36.3983
39.4513
42.7336
46.2542
50.0218
54.0436
58.3256
62.8751
67.6988
72.8031
78.1956
83.8792
89.8489
96.1012
102.632
109.439
116.516
123.858
131.459
139.313
147.412
155.748
164.312
173.096
182.089
191.281
200.661
210.219
219.942
229.819
239.838
249.986
260.25
270.618
281.075
291.608
302.204
312.847
323.524
334.221
344.921
355.612
366.276
376.901
387.469
397.965
408.375
418.682
428.87
438.924
448.828
458.567
468.124
477.485
486.633
495.554
504.233
512.655
520.806
528.671
536.238
543.493
550.424
557.019
563.269
569.161
574.686
579.833
584.595
588.966
592.937
596.502
599.655
602.395
604.717
606.614
608.093
609.142
609.773
609.973
609.771
609.148
608.096
606.637
604.771
602.506
599.849
596.811
593.402
589.633
585.511
581.047
576.255
571.145
565.729
560.02
554.03
547.774
541.265
534.52
527.553
520.381
513.02
505.486
497.796
489.965
482.011
473.95
465.796
457.567
449.277
440.941
432.575
424.191
415.803
407.424
399.067
390.742
382.463
374.238
366.077
357.99
349.983
342.064
334.242
326.522
318.912
311.418
304.045
296.8
289.688
282.716
275.89
269.216
262.706
256.368
250.21
244.253
238.445
232.748
10.1714
4.79034
3.66185
3.28571
3.16284
3.1584
3.22741
3.34808
3.50953
3.70546
3.93284
4.19173
4.48253
4.80631
5.16483
5.56087
5.99768
6.47866
7.00832
7.5919
8.23543
8.94586
9.73122
10.6004
11.5622
12.6264
13.8037
15.1062
16.5467
18.1385
19.8954
21.8311
23.9598
26.2959
28.854
31.6479
34.6908
37.995
41.5722
45.4332
49.5865
54.0392
58.7966
63.8639
69.2452
74.9402
80.9476
87.2675
93.9007
100.843
108.102
115.643
123.457
131.533
139.858
148.421
157.209
166.21
175.412
184.802
194.367
204.096
213.977
223.998
234.146
244.41
254.779
265.24
275.782
286.394
297.065
307.782
318.536
329.313
340.104
350.895
361.677
372.436
383.162
393.842
404.464
415.016
425.486
435.86
446.128
456.275
466.289
476.157
485.865
495.4
504.749
513.899
522.836
531.547
540.018
548.237
556.191
563.866
571.251
578.333
585.101
591.543
597.648
603.408
608.813
613.853
618.518
622.802
626.697
630.198
633.3
635.995
638.277
640.154
641.614
642.646
643.282