/*--------------------------------*- C++ -*----------------------------------*\
  =========                 |
  \\      /  F ield         | OpenFOAM: The Open Source CFD Toolbox
   \\    /   O peration     | Website:  https://openfoam.org
    \\  /    A nd           | Version:  8
     \\/     M anipulation  |
\*---------------------------------------------------------------------------*/
FoamFile
{
    version     2.0;
    format      ascii;
    class       volScalarField;
    location    "250";
    object      k;
}
// * * * * * * * * * * * * * * * * * * * * * * * * * * * * * * * * * * * * * //

dimensions      [0 2 -2 0 0 0 0];

internalField   nonuniform List<scalar> 
12225
(
0.362815
0.343988
0.327749
0.309812
0.295409
0.28347
0.275527
0.27028
0.270341
0.271866
0.276074
0.280646
0.289878
0.295718
0.306639
0.313489
0.322859
0.335782
0.440185
0.468698
0.461606
0.448369
0.450347
0.458309
0.474579
0.498491
0.524425
0.552064
0.580759
0.606109
0.633822
0.653829
0.679673
0.693196
0.717258
0.728378
0.39054
0.417874
0.420232
0.416827
0.411628
0.407803
0.408021
0.410034
0.414571
0.421377
0.430733
0.439696
0.451168
0.461143
0.472808
0.483542
0.493434
0.505998
0.377547
0.386982
0.391406
0.391343
0.390221
0.387895
0.385664
0.384079
0.382885
0.382896
0.383386
0.384321
0.386294
0.388464
0.390901
0.394242
0.396492
0.400978
0.374562
0.376091
0.378412
0.378666
0.378263
0.377205
0.375489
0.373737
0.37201
0.370455
0.369259
0.368105
0.36738
0.366803
0.366441
0.366332
0.366342
0.366696
0.373814
0.37271
0.372645
0.372384
0.371761
0.370817
0.369554
0.368082
0.366572
0.364976
0.363528
0.362063
0.360755
0.359529
0.358397
0.357426
0.356438
0.355781
0.373782
0.371742
0.370386
0.369287
0.368234
0.367114
0.365915
0.364587
0.363238
0.361808
0.360423
0.359024
0.357679
0.356383
0.355122
0.353967
0.352795
0.351803
0.37382
0.37156
0.369634
0.367976
0.366501
0.365108
0.363775
0.362429
0.361108
0.359767
0.358451
0.357144
0.355864
0.354623
0.353402
0.352251
0.3511
0.350053
0.373832
0.371553
0.369449
0.367525
0.365776
0.364153
0.362645
0.361199
0.359818
0.358474
0.35717
0.355903
0.354668
0.353476
0.352309
0.351197
0.350099
0.349074
0.373831
0.37156
0.369418
0.367405
0.365529
0.363772
0.362133
0.360585
0.359122
0.357728
0.356395
0.355118
0.353889
0.352711
0.35157
0.350482
0.349421
0.348421
0.373829
0.37156
0.369413
0.367378
0.365458
0.363645
0.361937
0.360324
0.358799
0.357353
0.355979
0.354673
0.353425
0.352236
0.351095
0.350009
0.34896
0.34797
0.373828
0.371558
0.369409
0.36737
0.365439
0.363609
0.361875
0.360234
0.358677
0.357202
0.3558
0.354469
0.353201
0.351995
0.350843
0.349748
0.348696
0.347701
0.373827
0.371556
0.369405
0.367365
0.36543
0.363593
0.361851
0.360197
0.358626
0.357134
0.355716
0.354368
0.353085
0.351865
0.350701
0.349595
0.348535
0.347532
0.373826
0.371555
0.369401
0.367359
0.365422
0.363583
0.361837
0.360178
0.3586
0.357101
0.355674
0.354317
0.353024
0.351795
0.350622
0.349506
0.34844
0.347427
0.373826
0.371553
0.369398
0.367355
0.365416
0.363575
0.361826
0.360164
0.358584
0.357081
0.355651
0.354289
0.352993
0.351758
0.35058
0.349458
0.348388
0.347368
0.373826
0.371552
0.369396
0.367351
0.36541
0.363567
0.361817
0.360153
0.358571
0.357067
0.355634
0.35427
0.352971
0.351734
0.350554
0.349429
0.348356
0.347333
0.373825
0.371551
0.369394
0.367348
0.365406
0.363562
0.36181
0.360145
0.358561
0.357055
0.355621
0.354256
0.352955
0.351716
0.350534
0.349408
0.348333
0.347308
0.373825
0.371551
0.369393
0.367346
0.365403
0.363558
0.361805
0.360139
0.358554
0.357047
0.355612
0.354245
0.352943
0.351703
0.35052
0.349392
0.348316
0.34729
0.373825
0.37155
0.369393
0.367345
0.365402
0.363557
0.361804
0.360137
0.358552
0.357043
0.355608
0.35424
0.352938
0.351696
0.350513
0.349384
0.348307
0.34728
0.373825
0.371551
0.369393
0.367347
0.365404
0.363559
0.361806
0.360139
0.358555
0.357046
0.355611
0.354244
0.352941
0.3517
0.350517
0.349388
0.348312
0.347284
0.373825
0.371551
0.369395
0.367349
0.365407
0.363563
0.361811
0.360146
0.358562
0.357055
0.355621
0.354255
0.352954
0.351715
0.350534
0.349407
0.348332
0.347307
0.373826
0.371552
0.369397
0.367352
0.365412
0.363571
0.361822
0.360161
0.358583
0.357083
0.355656
0.354298
0.353006
0.351775
0.350602
0.349483
0.348417
0.347398
0.373826
0.371554
0.369399
0.367359
0.365428
0.363602
0.361875
0.36024
0.35869
0.35722
0.355823
0.354493
0.353227
0.352018
0.350865
0.349762
0.34871
0.3477
0.373828
0.371551
0.369412
0.367417
0.365556
0.363819
0.362189
0.360651
0.359189
0.357793
0.356456
0.355171
0.353936
0.352745
0.3516
0.350495
0.349436
0.34841
0.373823
0.371554
0.369604
0.367893
0.366339
0.364892
0.363495
0.362122
0.360761
0.359413
0.358081
0.35677
0.355488
0.354237
0.353029
0.351855
0.350734
0.349645
0.373788
0.371991
0.371113
0.370266
0.36936
0.368311
0.367048
0.36563
0.36412
0.362575
0.36103
0.359522
0.358073
0.356682
0.355381
0.354141
0.353009
0.351924
0.374355
0.375572
0.377775
0.377857
0.377288
0.375886
0.373835
0.371641
0.369505
0.367482
0.365664
0.364084
0.36271
0.361535
0.36061
0.359818
0.359289
0.358801
0.379125
0.394296
0.398249
0.396573
0.392538
0.387603
0.383646
0.380448
0.378268
0.376853
0.376497
0.376741
0.377416
0.378691
0.380442
0.382423
0.384828
0.387139
0.408394
0.427541
0.422416
0.411056
0.402226
0.397924
0.398627
0.400964
0.406071
0.413057
0.421002
0.429832
0.43884
0.448195
0.457313
0.466558
0.475329
0.484188
0.36605
0.353416
0.341988
0.33021
0.318982
0.308382
0.299411
0.291671
0.285404
0.280334
0.276682
0.273867
0.272312
0.271175
0.271212
0.271474
0.27219
0.273391
0.000712447
0.00398864
0.00736668
0.0104105
0.0134882
0.0169452
0.0209219
0.0255379
0.0308068
0.0366465
0.0429231
0.0494964
0.05624
0.0630502
0.0698418
0.0765453
0.0831009
0.0894558
0.0955612
0.101371
0.106842
0.111935
0.116617
0.120867
0.12468
0.128072
0.131082
0.133253
0.135406
0.138622
0.141084
0.14359
0.145859
0.14966
0.150396
0.149669
0.147729
0.14314
0.137957
0.148166
0.150779
0.150785
0.161884
0.167899
0.175968
0.183752
0.191799
0.200038
0.208415
0.216978
0.22569
0.234571
0.24361
0.252811
0.262171
0.271692
0.28137
0.291207
0.301198
0.311344
0.321641
0.332088
0.342679
0.353412
0.364283
0.375286
0.386417
0.39767
0.409038
0.420516
0.432096
0.44377
0.45553
0.467368
0.479274
0.49124
0.503254
0.515308
0.52739
0.539491
0.551596
0.563696
0.575777
0.587827
0.599832
0.611779
0.623651
0.635434
0.647111
0.658661
0.670065
0.6813
0.69234
0.703163
0.713749
0.724093
0.734222
0.744228
0.753948
0.763455
0.772706
0.781709
0.790442
0.7989
0.807067
0.814936
0.822494
0.829731
0.836638
0.843205
0.849424
0.855286
0.860785
0.865912
0.870663
0.875031
0.879012
0.882601
0.885796
0.888594
0.890995
0.892996
0.894599
0.895805
0.896614
0.897023
0.897022
0.896706
0.896071
0.894943
0.893359
0.89144
0.889234
0.886633
0.883712
0.880452
0.876871
0.872977
0.868783
0.864302
0.859552
0.854561
0.849323
0.843848
0.83815
0.832239
0.82613
0.819831
0.813358
0.806718
0.799926
0.79299
0.785923
0.778732
0.771428
0.764019
0.756514
0.74892
0.741246
0.7335
0.725696
0.717855
0.710094
0.703634
0.700081
0.697045
0.694024
0.690962
0.687847
0.684669
0.681416
0.678073
0.674621
0.671029
0.667248
0.663189
0.65868
0.653307
0.646181
0.619092
0.00355494
0.0139553
0.0209158
0.0261447
0.0308056
0.0354348
0.0403818
0.0458168
0.0517769
0.0582094
0.0650157
0.0720856
0.0793166
0.0866221
0.093932
0.101189
0.108347
0.115367
0.122213
0.128856
0.135272
0.14144
0.14735
0.153
0.158407
0.163605
0.168652
0.173653
0.178869
0.184527
0.190718
0.197711
0.205138
0.211757
0.217699
0.224105
0.23165
0.242497
0.252291
0.263884
0.273117
0.289242
0.302919
0.315139
0.328091
0.341404
0.355099
0.369131
0.383487
0.398164
0.413157
0.428467
0.444094
0.46004
0.476304
0.492889
0.509796
0.527025
0.544575
0.562448
0.580641
0.599153
0.617982
0.637125
0.656578
0.676336
0.696394
0.716746
0.737384
0.7583
0.779485
0.80093
0.822623
0.844554
0.866708
0.889073
0.911633
0.934374
0.957279
0.980332
1.00351
1.0268
1.05019
1.07364
1.09713
1.12066
1.14418
1.16768
1.19113
1.21449
1.23775
1.26086
1.28378
1.30648
1.3289
1.35098
1.37265
1.39384
1.41475
1.43533
1.45558
1.47546
1.49495
1.51403
1.53268
1.55087
1.56857
1.58577
1.60245
1.61857
1.63412
1.64908
1.66343
1.67716
1.69024
1.70266
1.7144
1.72546
1.73581
1.74546
1.75439
1.76259
1.77007
1.77681
1.78282
1.7881
1.79265
1.79649
1.79963
1.80206
1.80351
1.80421
1.80441
1.80386
1.80265
1.80078
1.79825
1.79508
1.7913
1.78693
1.78198
1.77648
1.77045
1.76391
1.75688
1.74938
1.74143
1.73306
1.72429
1.71513
1.70561
1.69574
1.68556
1.67507
1.66429
1.65324
1.64193
1.63038
1.6186
1.60661
1.59441
1.58202
1.56948
1.55709
1.54512
1.53313
1.52098
1.50866
1.49616
1.48345
1.47053
1.45737
1.44396
1.43027
1.41625
1.40186
1.38691
1.3715
1.35433
1.3163
0.00750019
0.023798
0.0330072
0.0398738
0.0459711
0.0519039
0.0579909
0.0643989
0.0711874
0.0783408
0.0857994
0.0934868
0.101327
0.109256
0.11722
0.125179
0.133103
0.140972
0.14877
0.156489
0.164128
0.171697
0.179215
0.186721
0.194277
0.201977
0.209955
0.218358
0.227338
0.237008
0.24738
0.258317
0.269422
0.280634
0.292231
0.304279
0.317432
0.331788
0.346282
0.361257
0.376688
0.393633
0.410181
0.426817
0.44381
0.461199
0.47899
0.497178
0.515757
0.534726
0.554082
0.573825
0.593954
0.614472
0.635377
0.65667
0.678351
0.70042
0.722876
0.745717
0.768941
0.792546
0.816527
0.840879
0.865598
0.890678
0.916109
0.941886
0.967997
0.994434
1.02118
1.04823
1.07557
1.10318
1.13105
1.15916
1.1875
1.21603
1.24475
1.27364
1.30266
1.33181
1.36104
1.39035
1.4197
1.44907
1.47842
1.50773
1.53696
1.56609
1.59508
1.6239
1.65251
1.68088
1.70897
1.73676
1.76421
1.79132
1.81806
1.8444
1.87032
1.89578
1.92075
1.94519
1.96908
1.99239
2.01508
2.03712
2.05849
2.07915
2.09909
2.11827
2.13666
2.15425
2.17102
2.18693
2.20198
2.21615
2.22942
2.24177
2.2532
2.2637
2.27326
2.28188
2.28955
2.29628
2.30207
2.30693
2.31086
2.31385
2.31576
2.31663
2.31678
2.31599
2.31435
2.31184
2.30849
2.30432
2.29935
2.29361
2.28713
2.27993
2.27204
2.26349
2.2543
2.2445
2.23412
2.22318
2.21172
2.19976
2.18733
2.17444
2.16114
2.14744
2.13335
2.11892
2.10414
2.08904
2.07365
2.05796
2.04201
2.02581
2.00941
1.99295
1.97656
1.96007
1.94338
1.92646
1.9093
1.89189
1.87423
1.85629
1.83808
1.81959
1.80081
1.78175
1.76238
1.74293
1.72221
1.68887
0.0119242
0.0330028
0.0443152
0.0525837
0.059785
0.0666476
0.0735326
0.0806313
0.088029
0.0957396
0.103732
0.111956
0.120353
0.128873
0.137478
0.146139
0.154839
0.163571
0.172337
0.181147
0.190017
0.198977
0.208066
0.217341
0.226874
0.236759
0.247098
0.257992
0.269527
0.281744
0.294621
0.308064
0.32195
0.336251
0.351035
0.366379
0.382442
0.399207
0.416466
0.434218
0.452484
0.471335
0.490481
0.509971
0.529847
0.550136
0.57085
0.591998
0.613581
0.635602
0.658062
0.680963
0.704305
0.72809
0.75232
0.776995
0.802115
0.827681
0.853691
0.880144
0.907039
0.934372
0.962139
0.990336
1.01896
1.04799
1.07744
1.10729
1.13752
1.16814
1.19912
1.23045
1.26212
1.2941
1.3264
1.35897
1.39181
1.42488
1.45818
1.49167
1.52533
1.55914
1.59306
1.62706
1.66113
1.69521
1.72929
1.76334
1.7973
1.83116
1.86488
1.89842
1.93174
1.96482
1.99761
2.03008
2.06221
2.09394
2.12526
2.15611
2.18647
2.21629
2.24553
2.27416
2.30213
2.32942
2.35599
2.38179
2.40679
2.43097
2.45429
2.47671
2.49821
2.51877
2.53834
2.55691
2.57447
2.59097
2.60642
2.62078
2.63405
2.64623
2.65729
2.66723
2.67605
2.68376
2.69035
2.69583
2.70021
2.70347
2.7055
2.70632
2.70623
2.70506
2.70285
2.69962
2.6954
2.6902
2.68405
2.67699
2.66905
2.66025
2.65064
2.64023
2.62907
2.61718
2.6046
2.59137
2.57751
2.56306
2.54804
2.5325
2.51645
2.49993
2.48296
2.46557
2.44778
2.42962
2.4111
2.39224
2.37306
2.35359
2.33386
2.31398
2.294
2.27386
2.25348
2.23284
2.21193
2.19076
2.16931
2.1476
2.12562
2.10341
2.08098
2.05843
2.03583
2.01348
1.99037
1.95939
0.0163171
0.0415679
0.0548022
0.0643576
0.0725425
0.0801937
0.087726
0.0953647
0.103226
0.111356
0.119753
0.128391
0.137234
0.146246
0.1554
0.164677
0.174071
0.183584
0.193228
0.203025
0.213002
0.223196
0.233653
0.24443
0.255589
0.267205
0.279351
0.292094
0.305482
0.319532
0.334228
0.349521
0.365367
0.381738
0.398646
0.416119
0.434197
0.452866
0.472074
0.491803
0.51204
0.53277
0.553948
0.575575
0.597656
0.620199
0.643214
0.666707
0.690684
0.71515
0.740107
0.76556
0.791512
0.817965
0.844921
0.872382
0.900351
0.928826
0.95781
0.9873
1.0173
1.04779
1.07879
1.11029
1.14227
1.17473
1.20767
1.24108
1.27494
1.30924
1.34397
1.37911
1.41464
1.45056
1.48683
1.52344
1.56037
1.59758
1.63506
1.67278
1.7107
1.7488
1.78705
1.82542
1.86386
1.90235
1.94085
1.97932
2.01773
2.05603
2.09418
2.13216
2.16991
2.2074
2.24458
2.28142
2.31786
2.35387
2.3894
2.42441
2.45886
2.49269
2.52587
2.55835
2.59008
2.62103
2.65115
2.68041
2.70875
2.73615
2.76256
2.78795
2.81229
2.83554
2.85768
2.87866
2.89848
2.9171
2.9345
2.95067
2.96559
2.97924
2.99162
3.00272
3.01253
3.02106
3.02831
3.03428
3.03898
3.0424
3.04442
3.04513
3.04472
3.04308
3.04025
3.03624
3.03109
3.02482
3.01746
3.00905
2.99963
2.98922
2.97788
2.96562
2.9525
2.93854
2.92379
2.90829
2.89208
2.87518
2.85764
2.8395
2.82078
2.80153
2.78176
2.76152
2.74083
2.7197
2.69818
2.67627
2.65401
2.63142
2.60853
2.58541
2.56211
2.53858
2.51479
2.49074
2.4664
2.4418
2.41692
2.3918
2.36646
2.34093
2.3153
2.2897
2.26429
2.23939
2.21413
2.18353
0.0204823
0.0493131
0.0642704
0.0749996
0.0840767
0.0924305
0.100525
0.108617
0.116853
0.125309
0.134012
0.142961
0.152142
0.161534
0.171122
0.180898
0.190863
0.201025
0.211404
0.222026
0.232922
0.244132
0.2557
0.267675
0.28011
0.293058
0.30657
0.320689
0.335444
0.350848
0.366894
0.383563
0.400832
0.418682
0.437107
0.456111
0.475695
0.495853
0.516568
0.537829
0.559627
0.581953
0.604795
0.628153
0.652026
0.676419
0.701338
0.72679
0.752781
0.779317
0.806403
0.834045
0.862247
0.891014
0.920349
0.950256
0.980738
1.0118
1.04343
1.07565
1.10844
1.14181
1.17575
1.21027
1.24534
1.28098
1.31717
1.35389
1.39115
1.42892
1.46719
1.50594
1.54516
1.58483
1.62492
1.66541
1.70628
1.74749
1.78903
1.83084
1.87292
1.91522
1.9577
2.00033
2.04307
2.08589
2.12873
2.17156
2.21433
2.25701
2.29954
2.34189
2.38399
2.42581
2.4673
2.5084
2.54907
2.58926
2.62891
2.66797
2.70641
2.74415
2.78117
2.8174
2.85279
2.8873
2.92088
2.95349
2.98508
3.0156
3.04501
3.07327
3.10035
3.12621
3.15081
3.17411
3.1961
3.21675
3.23602
3.2539
3.27038
3.28543
3.29904
3.31121
3.32193
3.3312
3.33902
3.34541
3.35035
3.35385
3.35579
3.35633
3.35552
3.35334
3.34981
3.34496
3.33881
3.33141
3.32278
3.31296
3.30199
3.28992
3.27678
3.26262
3.24748
3.23141
3.21444
3.19663
3.17801
3.15864
3.13854
3.11776
3.09635
3.07433
3.05176
3.02865
3.00504
2.98096
2.95644
2.9315
2.90618
2.88049
2.85448
2.82819
2.80166
2.77487
2.74781
2.72047
2.69286
2.66499
2.63687
2.60854
2.58004
2.55143
2.52283
2.49441
2.46637
2.43904
2.41162
2.38018
0.0242833
0.0561274
0.0725837
0.0843505
0.0942217
0.1032
0.111788
0.120272
0.128821
0.137537
0.146473
0.155651
0.165078
0.174749
0.184663
0.19482
0.205228
0.215901
0.22686
0.238134
0.249756
0.261762
0.274193
0.287088
0.300491
0.314441
0.328972
0.344115
0.35989
0.376307
0.393368
0.411064
0.429384
0.448317
0.467854
0.487992
0.508727
0.530053
0.551966
0.574461
0.597534
0.621181
0.645402
0.670196
0.695565
0.721514
0.748049
0.775177
0.802906
0.831242
0.860194
0.889767
0.919969
0.950806
0.982284
1.01441
1.04718
1.08061
1.11469
1.14944
1.18484
1.22091
1.25763
1.295
1.33303
1.3717
1.411
1.45093
1.49147
1.53262
1.57434
1.61663
1.65946
1.70282
1.74667
1.791
1.83577
1.88095
1.92651
1.97241
2.01862
2.06511
2.11182
2.15871
2.20576
2.2529
2.30009
2.34728
2.39443
2.44149
2.4884
2.5351
2.58156
2.6277
2.67348
2.71883
2.76371
2.80805
2.85179
2.89489
2.93728
2.97892
3.01973
3.05968
3.09869
3.13673
3.17373
3.20964
3.24442
3.27802
3.31038
3.34146
3.37123
3.39964
3.42664
3.45222
3.47632
3.49893
3.52001
3.53955
3.55751
3.5739
3.58868
3.60185
3.61341
3.62336
3.63169
3.63842
3.64353
3.64705
3.64885
3.64913
3.64787
3.64508
3.64079
3.63502
3.62781
3.6192
3.60922
3.59793
3.58535
3.57154
3.55654
3.54041
3.52318
3.50492
3.48567
3.46548
3.4444
3.42248
3.39976
3.3763
3.35213
3.32731
3.30187
3.27585
3.2493
3.22223
3.1947
3.16672
3.13833
3.10955
3.08043
3.051
3.02129
2.99131
2.96105
2.93053
2.89975
2.86873
2.8375
2.8061
2.77459
2.74305
2.71163
2.68053
2.64996
2.62023
2.59059
2.55778
0.0276245
0.0619429
0.0796598
0.0923107
0.102865
0.112384
0.1214
0.130219
0.139031
0.147956
0.157069
0.166413
0.176012
0.18588
0.196025
0.206458
0.217191
0.228244
0.239639
0.251404
0.263571
0.276172
0.289242
0.302816
0.316927
0.331604
0.346875
0.362762
0.37928
0.396439
0.414245
0.432696
0.451788
0.471516
0.491876
0.512864
0.534478
0.556716
0.579578
0.603064
0.627174
0.65191
0.677274
0.70327
0.729902
0.757176
0.785102
0.813686
0.842938
0.872868
0.903484
0.934795
0.966811
0.99954
1.03299
1.06717
1.10208
1.13773
1.17413
1.21127
1.24917
1.28782
1.32722
1.36736
1.40825
1.44988
1.49224
1.53532
1.5791
1.62357
1.66872
1.71451
1.76094
1.80798
1.85559
1.90375
1.95242
2.00158
2.05118
2.10119
2.15156
2.20225
2.25321
2.3044
2.35576
2.40725
2.45881
2.51039
2.56193
2.61338
2.66467
2.71574
2.76654
2.81701
2.86707
2.91666
2.96573
3.0142
3.06202
3.10912
3.15545
3.20093
3.24551
3.28912
3.33172
3.37322
3.41359
3.45276
3.49067
3.52728
3.56253
3.59637
3.62875
3.65964
3.68899
3.71675
3.7429
3.7674
3.79022
3.81133
3.83072
3.84835
3.86423
3.87833
3.89066
3.9012
3.90997
3.91697
3.92219
3.92565
3.92725
3.92719
3.92542
3.92195
3.91682
3.91007
3.90173
3.89184
3.88045
3.86761
3.85335
3.83774
3.82082
3.80264
3.78328
3.76276
3.74117
3.71854
3.69494
3.67041
3.64503
3.61883
3.59187
3.56419
3.53585
3.5069
3.47737
3.4473
3.41673
3.38571
3.35425
3.3224
3.29018
3.25764
3.22481
3.19171
3.15834
3.12472
3.09087
3.05682
3.02259
2.98825
2.95386
2.91954
2.88542
2.85174
2.81871
2.78661
2.75471
2.72043
0.030447
0.0667377
0.0854742
0.098846
0.109962
0.119931
0.129304
0.138403
0.14743
0.15652
0.165765
0.175224
0.184938
0.194934
0.205231
0.215848
0.226804
0.238119
0.249819
0.261929
0.274478
0.287495
0.301012
0.315055
0.329654
0.344832
0.360611
0.37701
0.394043
0.411721
0.43005
0.449035
0.468677
0.488977
0.509935
0.531551
0.553828
0.576766
0.60037
0.624643
0.649592
0.67522
0.701533
0.728539
0.756245
0.784661
0.813796
0.843662
0.87427
0.905631
0.937758
0.970661
1.00435
1.03884
1.07414
1.11026
1.1472
1.18498
1.2236
1.26306
1.30338
1.34455
1.38657
1.42944
1.47316
1.51771
1.5631
1.60931
1.65632
1.70412
1.75268
1.802
1.85203
1.90276
1.95415
2.00616
2.05877
2.11192
2.16559
2.21972
2.27427
2.32918
2.38441
2.43991
2.4956
2.55145
2.60738
2.66334
2.71927
2.77509
2.83074
2.88617
2.94128
2.99603
3.05033
3.10411
3.15731
3.20986
3.26169
3.31272
3.3629
3.41215
3.46041
3.50761
3.55368
3.59856
3.64219
3.6845
3.72545
3.76496
3.80298
3.83946
3.87435
3.90761
3.93918
3.96902
3.9971
4.02337
4.04782
4.0704
4.0911
4.10989
4.12676
4.14169
4.15469
4.16574
4.17485
4.18202
4.18727
4.19057
4.19193
4.19144
4.18907
4.18485
4.17882
4.17102
4.16149
4.15027
4.13741
4.12296
4.10697
4.08951
4.07062
4.05036
4.0288
4.006
3.98201
3.95691
3.93075
3.9036
3.87551
3.84655
3.81677
3.78623
3.75498
3.72308
3.69057
3.65751
3.62393
3.58987
3.55538
3.52048
3.48522
3.44964
3.41376
3.37762
3.34124
3.30463
3.26782
3.23085
3.19377
3.15662
3.11949
3.08251
3.04582
3.00966
2.97425
2.93981
2.90566
2.86963
0.0327231
0.0705285
0.0900515
0.103981
0.115536
0.125858
0.135514
0.144832
0.154025
0.163239
0.172575
0.182108
0.191888
0.201954
0.212335
0.223057
0.234143
0.245617
0.257504
0.269829
0.282618
0.295897
0.309693
0.324031
0.338934
0.354425
0.370522
0.387242
0.4046
0.422608
0.441275
0.46061
0.48062
0.50131
0.522685
0.54475
0.567513
0.590979
0.615156
0.640052
0.665675
0.692034
0.719141
0.747005
0.775637
0.80505
0.835258
0.866274
0.898112
0.930788
0.964315
0.998708
1.03398
1.07015
1.10722
1.1452
1.18412
1.22397
1.26477
1.30652
1.34923
1.3929
1.43753
1.48312
1.52966
1.57715
1.62558
1.67493
1.72519
1.77633
1.82835
1.8812
1.93487
1.98931
2.0445
2.1004
2.15695
2.21413
2.27187
2.33013
2.38886
2.448
2.50749
2.56727
2.62728
2.68745
2.74772
2.80801
2.86826
2.92839
2.98833
3.04801
3.10735
3.16627
3.2247
3.28256
3.33977
3.39626
3.45196
3.50678
3.56066
3.61352
3.6653
3.71591
3.76529
3.81337
3.86008
3.90536
3.94915
3.99138
4.03199
4.07094
4.10815
4.14359
4.17721
4.20896
4.2388
4.26669
4.2926
4.31649
4.33835
4.35815
4.37587
4.3915
4.40503
4.41647
4.4258
4.43304
4.43821
4.44128
4.4423
4.4413
4.43826
4.43321
4.42621
4.4173
4.40652
4.39392
4.37955
4.36346
4.3457
4.32635
4.30546
4.2831
4.25933
4.23422
4.20784
4.18026
4.15154
4.12176
4.09098
4.05926
4.02668
3.99329
3.95916
3.92435
3.88891
3.85289
3.81634
3.77931
3.74184
3.70398
3.66576
3.62722
3.58841
3.54935
3.51007
3.47061
3.43099
3.39126
3.35145
3.31165
3.27194
3.23245
3.19334
3.15482
3.11712
3.08042
3.04407
3.00622
0.0344511
0.0733623
0.0934543
0.107788
0.11966
0.13024
0.1401
0.149576
0.158884
0.168177
0.177565
0.187129
0.196931
0.207017
0.217426
0.228187
0.239329
0.250875
0.262851
0.27528
0.288187
0.301596
0.315531
0.330014
0.345068
0.360712
0.376967
0.393848
0.411372
0.429554
0.448407
0.467942
0.488172
0.509106
0.530755
0.55313
0.576242
0.6001
0.624717
0.650105
0.676279
0.703252
0.731038
0.759651
0.789107
0.819421
0.850612
0.882696
0.915692
0.949616
0.984487
1.02032
1.05714
1.09494
1.13376
1.17361
1.21449
1.25642
1.2994
1.34346
1.38858
1.43478
1.48205
1.53039
1.5798
1.63027
1.68178
1.73432
1.78788
1.84242
1.89792
1.95435
2.01168
2.06987
2.12888
2.18867
2.24918
2.31037
2.37218
2.43455
2.49743
2.56074
2.62443
2.68843
2.75266
2.81706
2.88155
2.94605
3.01048
3.07477
3.13884
3.20261
3.26598
3.32889
3.39124
3.45296
3.51396
3.57417
3.63349
3.69185
3.74918
3.80539
3.86042
3.91417
3.96659
4.0176
4.06712
4.11509
4.16145
4.20613
4.24906
4.2902
4.32947
4.36684
4.40226
4.43566
4.46702
4.49629
4.52344
4.54843
4.57125
4.59186
4.61024
4.62639
4.6403
4.65196
4.66138
4.66856
4.67352
4.67626
4.67681
4.67523
4.67142
4.66547
4.65744
4.64737
4.6353
4.62128
4.60537
4.58762
4.56809
4.54685
4.52396
4.4995
4.47354
4.44615
4.4174
4.38736
4.35613
4.32376
4.29033
4.25592
4.22059
4.18442
4.14748
4.10983
4.07153
4.03265
3.99323
3.95334
3.91301
3.87229
3.83123
3.78988
3.74827
3.70645
3.66445
3.6223
3.58004
3.53772
3.49538
3.45312
3.411
3.36918
3.3278
3.28707
3.2472
3.20836
3.16991
3.13029
0.0356584
0.0753227
0.0957792
0.110374
0.12245
0.133193
0.14318
0.152747
0.162117
0.171443
0.180842
0.190402
0.200191
0.21026
0.22065
0.231394
0.242521
0.25406
0.266033
0.278467
0.291384
0.304807
0.31876
0.333264
0.34834
0.36401
0.380293
0.397208
0.414774
0.433009
0.45193
0.471552
0.491893
0.512967
0.534791
0.55738
0.580748
0.604913
0.629888
0.655691
0.682343
0.709863
0.738269
0.767578
0.797813
0.828993
0.86114
0.894276
0.928421
0.963598
0.999825
1.03712
1.07551
1.115
1.15562
1.19738
1.24029
1.28437
1.32962
1.37605
1.42368
1.47249
1.52249
1.57368
1.62605
1.67958
1.73426
1.79006
1.84698
1.90497
1.96402
2.02407
2.08509
2.14705
2.20988
2.27354
2.33798
2.40314
2.46895
2.53535
2.60227
2.66965
2.7374
2.80546
2.87374
2.94217
3.01067
3.07915
3.14753
3.21572
3.28363
3.35119
3.4183
3.48487
3.55082
3.61605
3.68049
3.74404
3.80662
3.86815
3.92855
3.98773
4.04561
4.10212
4.15719
4.21073
4.26267
4.31294
4.36149
4.40823
4.45311
4.49607
4.53705
4.576
4.61287
4.6476
4.68016
4.71051
4.7386
4.76442
4.78792
4.80909
4.8279
4.84435
4.85843
4.87012
4.87945
4.88641
4.89102
4.89331
4.89329
4.89103
4.88635
4.87944
4.87032
4.85904
4.84565
4.83019
4.81273
4.79332
4.77203
4.74893
4.72409
4.69757
4.66947
4.63985
4.6088
4.5764
4.54272
4.50786
4.47188
4.43488
4.39692
4.35809
4.31846
4.2781
4.23709
4.19548
4.15334
4.11073
4.0677
4.0243
3.98058
3.9366
3.89239
3.848
3.80347
3.75884
3.71416
3.66947
3.62482
3.5803
3.536
3.49204
3.44859
3.40584
3.36398
3.32315
3.28277
3.24152
0.0363934
0.0764972
0.0971389
0.111865
0.12404
0.134857
0.144894
0.15449
0.163869
0.173188
0.182564
0.192085
0.201823
0.211832
0.222156
0.232827
0.243878
0.255337
0.267232
0.279586
0.292425
0.305769
0.319644
0.33407
0.349072
0.36467
0.380889
0.397748
0.415271
0.433479
0.452394
0.472037
0.49243
0.513592
0.535546
0.558313
0.581912
0.606364
0.631686
0.657893
0.685018
0.713087
0.742124
0.772154
0.803205
0.8353
0.868467
0.90273
0.938114
0.974642
1.01234
1.05122
1.09131
1.13263
1.17519
1.21902
1.26412
1.3105
1.35819
1.40717
1.45746
1.50905
1.56195
1.61613
1.67159
1.72832
1.78628
1.84546
1.90583
1.96735
2.02998
2.09368
2.1584
2.2241
2.29071
2.35819
2.42646
2.49546
2.56512
2.63537
2.70614
2.77735
2.84891
2.92075
2.99277
3.06491
3.13706
3.20915
3.28107
3.35274
3.42407
3.49497
3.56535
3.6351
3.70415
3.7724
3.83976
3.90614
3.97145
4.03562
4.09854
4.16015
4.22036
4.27909
4.33627
4.39181
4.44565
4.49771
4.54793
4.59624
4.64258
4.68689
4.72911
4.76919
4.80707
4.84272
4.87608
4.90711
4.93579
4.96208
4.98594
5.00737
5.02632
5.04281
5.0568
5.06832
5.07735
5.08391
5.08801
5.08969
5.08901
5.08593
5.08031
5.07236
5.06211
5.0496
5.03487
5.01798
4.99899
4.97796
4.95496
4.93005
4.90332
4.87484
4.8447
4.81297
4.77973
4.74509
4.70911
4.6719
4.63353
4.59409
4.55367
4.51235
4.47021
4.42734
4.3838
4.33967
4.29501
4.2499
4.20439
4.15853
4.11238
4.066
4.01943
3.97272
3.92592
3.87907
3.83222
3.78542
3.73872
3.6922
3.64596
3.60012
3.55483
3.51028
3.46662
3.42402
3.38191
3.33925
0.0366319
0.0769077
0.0976181
0.112377
0.124564
0.135381
0.145405
0.154976
0.164314
0.173576
0.18288
0.192319
0.201965
0.211877
0.222106
0.232682
0.243633
0.25499
0.266777
0.27902
0.291744
0.304972
0.31873
0.33304
0.347929
0.36342
0.379539
0.396312
0.413764
0.431921
0.450811
0.470459
0.490891
0.512135
0.534219
0.557171
0.581016
0.605778
0.631481
0.658153
0.685842
0.714569
0.744366
0.775262
0.807289
0.840478
0.87486
0.910464
0.947314
0.985437
1.02486
1.06559
1.10766
1.15109
1.19588
1.24206
1.28964
1.33863
1.38903
1.44084
1.49406
1.54868
1.6047
1.66209
1.72085
1.78093
1.84233
1.90499
1.96889
2.03398
2.10021
2.16753
2.2359
2.30524
2.3755
2.4466
2.51849
2.59108
2.6643
2.73808
2.81233
2.88696
2.9619
3.03705
3.11232
3.18764
3.26289
3.338
3.41287
3.4874
3.56151
3.63509
3.70806
3.78032
3.85178
3.92233
3.99191
4.0604
4.12773
4.19381
4.25856
4.32188
4.38371
4.44396
4.50256
4.55943
4.61449
4.66769
4.71894
4.76819
4.81538
4.86044
4.90333
4.94399
4.98236
5.01841
5.05208
5.08335
5.11217
5.13852
5.16237
5.18368
5.20245
5.21866
5.23231
5.24338
5.25189
5.25785
5.26128
5.26219
5.26077
5.25671
5.25009
5.24105
5.22964
5.21589
5.19984
5.18155
5.16109
5.13851
5.11388
5.08727
5.05878
5.02847
4.99643
4.96274
4.9275
4.8908
4.85272
4.81337
4.77282
4.73117
4.68852
4.64495
4.60055
4.55541
4.5096
4.46321
4.41631
4.36897
4.32125
4.27322
4.22494
4.17645
4.12782
4.0791
4.03034
3.98157
3.93286
3.88425
3.83581
3.7876
3.73971
3.69227
3.64542
3.59933
3.55414
3.51002
3.46643
3.42263
0.0365583
0.0768108
0.0974651
0.11218
0.124322
0.135088
0.145054
0.154556
0.163819
0.172999
0.182214
0.191555
0.201093
0.210884
0.220971
0.231389
0.242173
0.253351
0.264955
0.277012
0.289549
0.302592
0.31617
0.33031
0.34504
0.360392
0.376395
0.39308
0.410482
0.428634
0.447568
0.467317
0.487916
0.509395
0.531787
0.555127
0.579458
0.6048
0.631175
0.658602
0.687129
0.716806
0.747675
0.779771
0.813132
0.847793
0.883796
0.921169
0.959933
1.00011
1.04173
1.0848
1.12933
1.17535
1.22287
1.27188
1.3224
1.37443
1.42797
1.483
1.53953
1.59752
1.65696
1.71782
1.78008
1.8437
1.90863
1.97484
2.04228
2.11089
2.18062
2.25142
2.3232
2.39592
2.46949
2.54385
2.61892
2.69463
2.77088
2.8476
2.9247
3.0021
3.07971
3.15744
3.23519
3.31288
3.39041
3.4677
3.54464
3.62114
3.69712
3.77247
3.8471
3.92092
3.99384
4.06576
4.13661
4.20628
4.27469
4.34176
4.4074
4.47154
4.5341
4.59499
4.65415
4.7115
4.76696
4.82048
4.87199
4.92143
4.96874
5.01386
5.05674
5.09732
5.13557
5.17143
5.20486
5.23583
5.2643
5.29025
5.31364
5.33446
5.35267
5.36828
5.38126
5.39163
5.39938
5.40453
5.40711
5.40715
5.40485
5.39971
5.39204
5.38189
5.36932
5.35434
5.33703
5.31741
5.29556
5.27155
5.24543
5.21729
5.1872
5.15525
5.12152
5.08611
5.0491
5.01059
4.97068
4.92945
4.88701
4.84345
4.79887
4.75336
4.70702
4.65993
4.61219
4.56387
4.51506
4.46584
4.41627
4.36642
4.31635
4.26612
4.2158
4.16542
4.11506
4.06475
4.01454
3.96449
3.91465
3.8651
3.81591
3.76721
3.71912
3.6718
3.62539
3.58004
3.53528
3.49066
0.0363142
0.0764222
0.0968859
0.111454
0.123452
0.134072
0.143888
0.153238
0.162344
0.171363
0.180411
0.189578
0.198934
0.208533
0.218423
0.228642
0.239231
0.250223
0.261647
0.273534
0.285914
0.298819
0.312281
0.326334
0.341012
0.356353
0.372392
0.389167
0.406719
0.42509
0.444328
0.464478
0.48557
0.50764
0.530727
0.55486
0.580048
0.606338
0.633805
0.66252
0.692528
0.723864
0.756566
0.79067
0.826209
0.863214
0.901704
0.941705
0.983244
1.02635
1.07105
1.11735
1.16522
1.21469
1.26575
1.31838
1.3726
1.42838
1.4857
1.54454
1.60488
1.66668
1.72991
1.79453
1.86049
1.92775
1.99626
2.06596
2.13679
2.2087
2.28162
2.35548
2.43021
2.50575
2.58202
2.65893
2.73642
2.81441
2.89281
2.97154
3.05051
3.12964
3.20885
3.28804
3.36713
3.44603
3.52465
3.60289
3.68068
3.75791
3.8345
3.91036
3.98541
4.05954
4.13268
4.20473
4.27561
4.34525
4.41354
4.48042
4.5458
4.60961
4.67177
4.73222
4.79087
4.84767
4.90253
4.9554
5.00623
5.05495
5.1015
5.14583
5.1879
5.22765
5.26503
5.30001
5.33255
5.36261
5.39016
5.41516
5.4376
5.45745
5.47469
5.48931
5.50129
5.51064
5.51736
5.52147
5.52298
5.52211
5.51866
5.51239
5.50361
5.49233
5.47859
5.46243
5.4439
5.42304
5.39992
5.3746
5.34715
5.31765
5.28617
5.2528
5.21762
5.18074
5.14223
5.10221
5.06075
5.01797
4.97396
4.92882
4.88266
4.83556
4.78763
4.73896
4.68965
4.63979
4.58946
4.53874
4.4877
4.43643
4.38497
4.33341
4.28179
4.23017
4.17861
4.12715
4.07585
4.02475
3.97391
3.9234
3.87329
3.82368
3.77471
3.72651
3.67921
3.63297
3.58735
3.54226
0.0358005
0.0756057
0.0957608
0.110094
0.121875
0.132286
0.1419
0.151055
0.15997
0.168804
0.177671
0.186661
0.195844
0.205279
0.215013
0.225091
0.235551
0.246431
0.257768
0.269598
0.281961
0.294895
0.308439
0.322638
0.33754
0.353204
0.369667
0.386969
0.405159
0.424283
0.444373
0.465416
0.48752
0.510754
0.53518
0.56086
0.587869
0.616252
0.646055
0.677332
0.710128
0.744477
0.780409
0.817952
0.857131
0.897956
0.940438
0.984585
1.0304
1.07789
1.12701
1.17775
1.2301
1.28406
1.33959
1.39667
1.45527
1.51536
1.5769
1.63984
1.70415
1.76978
1.83667
1.90478
1.97405
2.04442
2.11584
2.18825
2.26159
2.33579
2.41079
2.48652
2.56292
2.63992
2.71744
2.79541
2.87377
2.95244
3.03133
3.11039
3.18952