/*--------------------------------*- C++ -*----------------------------------*\
  =========                 |
  \\      /  F ield         | OpenFOAM: The Open Source CFD Toolbox
   \\    /   O peration     | Website:  https://openfoam.org
    \\  /    A nd           | Version:  8
     \\/     M anipulation  |
\*---------------------------------------------------------------------------*/
FoamFile
{
    version     2.0;
    format      ascii;
    class       volScalarField;
    location    "250";
    object      nut;
}
// * * * * * * * * * * * * * * * * * * * * * * * * * * * * * * * * * * * * * //

dimensions      [0 2 -1 0 0 0 0];

internalField   nonuniform List<scalar> 
12225
(
4.14926e-05
3.93404e-05
3.74835e-05
3.54321e-05
3.3785e-05
3.24195e-05
3.15112e-05
3.0911e-05
3.09184e-05
3.10898e-05
3.15773e-05
3.20876e-05
3.31598e-05
3.38168e-05
3.50544e-05
3.59376e-05
3.66562e-05
3.93646e-05
0.000332206
0.000215184
0.000179266
0.000157683
0.000146206
0.000138214
0.000132753
0.000131637
0.000129524
0.000130048
0.000129062
0.000129423
0.000128672
0.000128544
0.000128088
0.0001274
0.000127453
0.000126142
0.000668662
0.000450676
0.000355746
0.000309844
0.000275276
0.000251107
0.000231708
0.000217281
0.000202689
0.000192117
0.000182632
0.000175208
0.000169382
0.000163695
0.000160301
0.000155585
0.000153844
0.000149818
0.000801685
0.000691672
0.00057254
0.000500067
0.000449375
0.000411991
0.00038078
0.000356006
0.000334014
0.000314785
0.000298386
0.000281637
0.000270352
0.000256089
0.000248236
0.000236157
0.000230595
0.000220425
0.000839624
0.000810192
0.000740697
0.00067642
0.000623928
0.000581387
0.000545872
0.00051456
0.000489524
0.000464436
0.000445879
0.000424076
0.000409955
0.000390828
0.000379935
0.000363064
0.000354869
0.000339432
0.000850344
0.000843278
0.000819552
0.000786528
0.000750772
0.000715884
0.00068576
0.000656133
0.000632553
0.000607524
0.000589007
0.000567261
0.000552299
0.000533121
0.00052083
0.000503701
0.000493754
0.000477395
0.000851579
0.000851019
0.0008433
0.000833476
0.000817112
0.00079695
0.000777872
0.000756738
0.000738903
0.000719152
0.00070354
0.000685633
0.000672137
0.000655943
0.000644348
0.000629503
0.00061992
0.000605063
0.000851581
0.000851815
0.000850038
0.000847461
0.000841402
0.00083375
0.000824824
0.000813435
0.000802813
0.000790475
0.00077972
0.000767548
0.000757437
0.000745796
0.000736575
0.000725492
0.000717532
0.000705931
0.000851673
0.00085153
0.000851015
0.000850343
0.000848875
0.00084617
0.000843027
0.000838306
0.000833404
0.000827363
0.000821221
0.000814773
0.000808439
0.000801513
0.000795309
0.000788342
0.000782548
0.000774983
0.000851754
0.000851386
0.000851043
0.000850633
0.000850247
0.000849368
0.000848404
0.000846781
0.000844956
0.000842531
0.000839925
0.000836802
0.000833799
0.000830156
0.000826982
0.000822927
0.000819938
0.000815305
0.000851784
0.000851358
0.000851012
0.000850613
0.000850329
0.000849905
0.000849525
0.000848929
0.000848303
0.000847394
0.000846466
0.000845178
0.000843992
0.000842354
0.000841
0.000839036
0.000837647
0.000835369
0.000851788
0.000851359
0.000850995
0.000850605
0.000850291
0.000849938
0.000849646
0.00084928
0.000848955
0.000848504
0.000848099
0.000847508
0.000846998
0.000846245
0.000845643
0.000844723
0.00084406
0.000842979
0.000851786
0.000851363
0.000850985
0.000850604
0.000850269
0.000849926
0.00084963
0.000849313
0.000849042
0.000848729
0.000848462
0.000848126
0.000847844
0.000847466
0.000847157
0.000846726
0.000846387
0.000845903
0.000851783
0.000851364
0.000850978
0.000850602
0.000850256
0.000849916
0.000849607
0.0008493
0.000849022
0.00084874
0.000848488
0.000848224
0.000847988
0.000847735
0.000847508
0.000847258
0.000847033
0.000846783
0.000851781
0.000851364
0.000850972
0.000850598
0.000850246
0.000849908
0.000849591
0.000849286
0.000849
0.000848723
0.000848463
0.000848211
0.000847975
0.000847744
0.000847527
0.000847315
0.000847114
0.000846918
0.00085178
0.000851363
0.000850969
0.000850594
0.000850239
0.000849901
0.00084958
0.000849274
0.000848984
0.000848707
0.000848443
0.000848191
0.000847951
0.000847721
0.000847502
0.000847292
0.000847092
0.0008469
0.000851779
0.000851362
0.000850967
0.000850591
0.000850234
0.000849894
0.000849572
0.000849265
0.000848973
0.000848694
0.000848428
0.000848174
0.000847932
0.000847701
0.00084748
0.000847268
0.000847066
0.000846873
0.000851779
0.000851362
0.000850965
0.000850588
0.00085023
0.00084989
0.000849567
0.000849258
0.000848965
0.000848685
0.000848418
0.000848163
0.000847919
0.000847686
0.000847464
0.000847251
0.000847048
0.000846853
0.000851779
0.000851362
0.000850965
0.000850588
0.000850229
0.000849889
0.000849565
0.000849256
0.000848962
0.000848681
0.000848413
0.000848157
0.000847913
0.000847679
0.000847456
0.000847242
0.000847038
0.000846842
0.000851779
0.000851362
0.000850965
0.000850589
0.000850231
0.000849891
0.000849567
0.000849259
0.000848965
0.000848685
0.000848417
0.000848161
0.000847916
0.000847683
0.000847459
0.000847245
0.00084704
0.000846843
0.000851779
0.000851363
0.000850967
0.000850592
0.000850235
0.000849896
0.000849573
0.000849266
0.000848972
0.000848693
0.000848423
0.000848168
0.000847919
0.000847682
0.00084745
0.00084723
0.000847011
0.000846805
0.000851778
0.000851366
0.000850968
0.000850599
0.00085024
0.000849907
0.00084958
0.000849274
0.000848964
0.000848671
0.000848364
0.000848071
0.000847755
0.000847455
0.000847122
0.00084681
0.000846456
0.000846135
0.000851773
0.000851376
0.000850971
0.000850615
0.00085024
0.000849889
0.000849478
0.000849053
0.000848529
0.000847978
0.0008473
0.000846604
0.000845766
0.000844938
0.000843953
0.000843028
0.000841916
0.000840938
0.000851767
0.000851415
0.000850964
0.000850548
0.000849861
0.000848966
0.00084761
0.000845975
0.000843904
0.000841635
0.000838953
0.000836213
0.000833115
0.000830111
0.00082676
0.000823677
0.00082018
0.000817174
0.000851859
0.00085138
0.000850195
0.000848243
0.000844469
0.000839353
0.000832765
0.000825657
0.00081796
0.000810009
0.000801615
0.000793624
0.000785328
0.000777702
0.000769738
0.000762695
0.000755117
0.000748788
0.000852108
0.000847667
0.000839902
0.000827146
0.000808707
0.000789645
0.000769974
0.000751411
0.000733302
0.000716892
0.000700929
0.000686775
0.000672824
0.000660664
0.000648371
0.000637933
0.000626945
0.000618011
0.000843241
0.000822506
0.000775184
0.000726458
0.000684894
0.000649849
0.000618459
0.000592016
0.000568378
0.000548307
0.000529684
0.000513985
0.000498745
0.00048601
0.000473194
0.0004627
0.000451614
0.000442796
0.000795685
0.000668241
0.000570625
0.000509904
0.000465603
0.000431181
0.000404144
0.000382478
0.000364196
0.000349066
0.000335938
0.000325058
0.000314502
0.000306232
0.000297955
0.000291362
0.000284275
0.000278926
0.000501314
0.000348357
0.000292673
0.00025918
0.000236322
0.000221176
0.00021162
0.000203853
0.000198563
0.000195075
0.00019222
0.000190367
0.000188582
0.000187437
0.000186165
0.000185471
0.000184554
0.000184142
7.27385e-05
7.02256e-05
6.79542e-05
6.56138e-05
6.33828e-05
6.12762e-05
5.94944e-05
5.79552e-05
5.67109e-05
5.57033e-05
5.49776e-05
5.44182e-05
5.41097e-05
5.38814e-05
5.38977e-05
5.3933e-05
5.40917e-05
5.43244e-05
2.21464e-07
5.65682e-06
1.04493e-05
1.4756e-05
1.90966e-05
2.39685e-05
2.95709e-05
3.60765e-05
4.35057e-05
5.17424e-05
6.05961e-05
6.98666e-05
7.93747e-05
8.89709e-05
9.85353e-05
0.000107963
0.000117169
0.000126067
0.000134591
0.000142667
0.000150251
0.000157301
0.00016383
0.000169874
0.000175548
0.00018101
0.000186498
0.000190787
0.000196521
0.000206678
0.000216594
0.00022709
0.000236559
0.000241777
0.000234094
0.000223674
0.000214138
0.000201828
4.19625e-05
4.57179e-05
4.58304e-05
4.77785e-05
5.00905e-05
5.04703e-05
5.18523e-05
5.28682e-05
5.40111e-05
5.51174e-05
5.62302e-05
5.73398e-05
5.84458e-05
5.95495e-05
6.06498e-05
6.17472e-05
6.28415e-05
6.39327e-05
6.50207e-05
6.61055e-05
6.71868e-05
6.82647e-05
6.93388e-05
7.0409e-05
7.14749e-05
7.25364e-05
7.35929e-05
7.46444e-05
7.56902e-05
7.67301e-05
7.77635e-05
7.87902e-05
7.98094e-05
8.08209e-05
8.1824e-05
8.28183e-05
8.38032e-05
8.47781e-05
8.57425e-05
8.66959e-05
8.76376e-05
8.85672e-05
8.94838e-05
9.03872e-05
9.12764e-05
9.21511e-05
9.30104e-05
9.38537e-05
9.46804e-05
9.54896e-05
9.62805e-05
9.70522e-05
9.78036e-05
9.85336e-05
9.92409e-05
9.99244e-05
0.000100583
0.000101217
0.000101828
0.000102426
0.000102996
0.000103546
0.000104072
0.000104576
0.000105057
0.000105514
0.000105948
0.000106357
0.000106742
0.000107102
0.000107436
0.000107745
0.000108029
0.000108286
0.000108518
0.000108723
0.000108901
0.000109053
0.000109178
0.000109277
0.000109349
0.000109394
0.000109413
0.000109405
0.000109371
0.000109311
0.000109225
0.000109114
0.000108976
0.000108811
0.000108634
0.00010842
0.000108178
0.000107917
0.000107637
0.00010733
0.000107002
0.000106652
0.000106281
0.00010589
0.000105478
0.000105048
0.0001046
0.000104135
0.000103654
0.000103156
0.000102644
0.000102117
0.000101577
0.000101024
0.000100459
9.98825e-05
9.92955e-05
9.86986e-05
9.80925e-05
9.74779e-05
9.68554e-05
9.62256e-05
9.5589e-05
9.49464e-05
9.42982e-05
9.36452e-05
9.29884e-05
9.23295e-05
9.16744e-05
9.10859e-05
9.06895e-05
9.03344e-05
8.99821e-05
8.96289e-05
8.92744e-05
8.89178e-05
8.85587e-05
8.8196e-05
8.78284e-05
8.74535e-05
8.70684e-05
8.66665e-05
8.62369e-05
8.57527e-05
8.51458e-05
8.32445e-05
1.10642e-06
2.77536e-05
6.16594e-05
8.50102e-05
9.99282e-05
0.00011036
0.00011914
0.000127812
0.000137062
0.000147062
0.000157727
0.000168859
0.000180245
0.000191693
0.000203041
0.000214151
0.000224907
0.000235203
0.000244948
0.000254061
0.000262483
0.00027018
0.000277163
0.000283499
0.000289331
0.0002949
0.000299662
0.000303294
0.000306463
0.000309022
0.000310129
0.000309439
0.000306316
0.000299025
0.000294181
0.000275175
0.00025953
0.000251958
0.000237037
0.000245673
0.000250439
0.000270569
0.000276245
0.000282972
0.000290284
0.000297814
0.000305675
0.000313649
0.00032177
0.000329983
0.000338291
0.000346681
0.000355153
0.000363704
0.000372335
0.000381045
0.000389837
0.000398711
0.000407668
0.000416709
0.000425836
0.000435049
0.000444348
0.000453733
0.000463205
0.000472761
0.0004824
0.000492122
0.000501924
0.000511803
0.000521758
0.000531784
0.000541878
0.000552036
0.000562254
0.000572527
0.00058285
0.000593216
0.000603622
0.000614061
0.000624528
0.000635015
0.000645519
0.000656031
0.000666547
0.000677061
0.000687566
0.000698057
0.00070853
0.000718978
0.000729393
0.000739759
0.000750057
0.000760248
0.000770271
0.000780012
0.000789287
0.000797804
0.000806297
0.000814633
0.00082284
0.000830904
0.000838822
0.000846586
0.000854189
0.000861625
0.000868886
0.000875967
0.000882861
0.000889561
0.000896062
0.000902358
0.000908443
0.000914312
0.000919961
0.000925384
0.000930578
0.000935538
0.000940262
0.000944745
0.000948987
0.000952984
0.000956735
0.000960241
0.000963503
0.000966521
0.000969295
0.000971802
0.000974117
0.000976281
0.000977974
0.000979427
0.000980758
0.000981809
0.000982624
0.000983213
0.000983578
0.000983722
0.000983651
0.000983369
0.000982881
0.000982187
0.000981304
0.000980237
0.000978994
0.000977582
0.000976006
0.000974276
0.000972396
0.000970375
0.000968219
0.000965936
0.000963531
0.00096101
0.00095838
0.000955646
0.000952811
0.000949882
0.000946858
0.000943741
0.000940523
0.000937175
0.000933546
0.000928902
0.000922452
0.000915337
0.00090797
0.000900457
0.000892825
0.000885082
0.000877225
0.000869245
0.000861129
0.000852864
0.000844418
0.000835736
0.000826669
0.000817005
0.000805194
0.000774961
2.33597e-06
4.58791e-05
9.81784e-05
0.000137752
0.000166327
0.000187086
0.000202983
0.000216279
0.000228469
0.0002404
0.000252454
0.000264723
0.000277149
0.000289612
0.000301971
0.000314095
0.00032586
0.000337157
0.000347891
0.000357984
0.000367382
0.000376063
0.000384037
0.000391349
0.000398054
0.000404164
0.000410377
0.000417186
0.000424435
0.000432035
0.000439706
0.000446982
0.000452997
0.0004576
0.000461476
0.000463938
0.000468483
0.000476487
0.000486353
0.000501472
0.000516989
0.000536902
0.000552245
0.000568014
0.000583872
0.000599933
0.000616208
0.000632652
0.000649263
0.000666024
0.000682933
0.000699985
0.000717178
0.000734515
0.000751996
0.000769623
0.000787398
0.000805321
0.000823394
0.000841618
0.000859992
0.000878516
0.00089719
0.00091601
0.000934975
0.000954081
0.000973324
0.000992698
0.0010122
0.00103182
0.00105156
0.00107141
0.00109135
0.00111139
0.00113151
0.00115171
0.00117196
0.00119227
0.00121261
0.00123298
0.00125337
0.00127377
0.00129415
0.00131452
0.00133484
0.00135512
0.00137534
0.00139547
0.00141551
0.00143544
0.00145522
0.00147484
0.00149424
0.00151337
0.00153217
0.00155054
0.00156841
0.00158583
0.00160302
0.00161993
0.00163657
0.00165291
0.00166893
0.00168463
0.0017
0.00171501
0.00172965
0.00174392
0.00175779
0.00177125
0.00178431
0.00179693
0.00180911
0.00182085
0.00183212
0.00184293
0.00185326
0.00186311
0.00187246
0.00188132
0.00188967
0.00189752
0.00190485
0.00191168
0.00191799
0.0019238
0.00192909
0.00193388
0.00193821
0.00194223
0.00194544
0.00194805
0.00195033
0.00195206
0.00195332
0.0019541
0.00195442
0.00195428
0.00195369
0.00195267
0.00195122
0.00194935
0.00194709
0.00194444
0.00194142
0.00193805
0.00193434
0.00193031
0.00192596
0.00192131
0.00191638
0.00191118
0.00190572
0.00190002
0.00189408
0.00188791
0.00188153
0.00187495
0.00186816
0.00186117
0.00185397
0.00184649
0.00183856
0.00182953
0.00181877
0.00180703
0.00179476
0.00178216
0.00176927
0.00175613
0.00174274
0.00172908
0.00171514
0.00170089
0.00168628
0.00167119
0.00165536
0.00163811
0.00161654
0.00157111
3.71593e-06
5.96234e-05
0.000126012
0.00017773
0.000215885
0.000244226
0.000266029
0.00028381
0.00029935
0.000313792
0.000327788
0.000341642
0.000355447
0.00036918
0.000382764
0.000396106
0.000409115
0.000421709
0.000433825
0.000445426
0.000456505
0.000467099
0.000477301
0.000487267
0.000497228
0.000507487
0.000518433
0.000530353
0.000543338
0.000557344
0.000572158
0.000587441
0.000602756
0.000617978
0.000633244
0.000648464
0.000665152
0.000683478
0.000703321
0.000724741
0.000746846
0.000769621
0.000792072
0.000814702
0.000837472
0.000860417
0.000883549
0.000906867
0.000930372
0.000954062
0.000977938
0.001002
0.00102625
0.00105068
0.00107532
0.00110014
0.00112517
0.00115039
0.00117581
0.00120144
0.00122725
0.00125327
0.00127947
0.00130586
0.00133244
0.00135919
0.00138611
0.0014132
0.00144044
0.00146783
0.00149535
0.00152299
0.00155075
0.00157861
0.00160655
0.00163457
0.00166264
0.00169075
0.00171889
0.00174704
0.00177518
0.0018033
0.00183137
0.00185938
0.0018873
0.00191513
0.00194283
0.00197039
0.00199777
0.00202496
0.00205191
0.0020786
0.00210498
0.002131
0.00215662
0.00218176
0.00220643
0.0022307
0.00225461
0.00227814
0.00230127
0.00232399
0.00234628
0.00236811
0.00238948
0.00241035
0.00243072
0.00245056
0.00246985
0.00248859
0.00250676
0.00252433
0.0025413
0.00255764
0.00257336
0.00258842
0.00260283
0.00261657
0.00262964
0.00264201
0.0026537
0.00266468
0.00267496
0.00268452
0.00269338
0.00270153
0.00270898
0.00271572
0.00272192
0.00272757
0.00273217
0.00273585
0.0027391
0.00274164
0.00274349
0.00274467
0.00274521
0.0027451
0.00274436
0.00274301
0.00274107
0.00273855
0.00273547
0.00273185
0.00272771
0.00272307
0.00271795
0.00271237
0.00270635
0.00269991
0.00269306
0.00268582
0.00267822
0.00267027
0.00266198
0.00265337
0.00264446
0.00263525
0.00262574
0.00261595
0.00260585
0.0025954
0.00258442
0.0025725
0.00255923
0.00254496
0.00253004
0.00251462
0.0024988
0.00248261
0.00246607
0.00244918
0.002432
0.00241443
0.0023964
0.00237777
0.00235825
0.00233691
0.00231039
0.00226205
5.08679e-06
7.11869e-05
0.000149295
0.000211029
0.000257568
0.000292589
0.000319649
0.000341504
0.000360166
0.000377009
0.000392897
0.000408324
0.00042353
0.000438604
0.000453554
0.000468348
0.00048295
0.000497326
0.000511464
0.000525373
0.000539095
0.000552712
0.000566352
0.000580198
0.000594482
0.000609476
0.000625457
0.000642642
0.00066114
0.000680921
0.000701788
0.000723414
0.000745559
0.000768053
0.000790882
0.000814196
0.000838349
0.000863449
0.000889076
0.000915587
0.000942791
0.0009705
0.000998126
0.00102593
0.00105393
0.00108214
0.00111056
0.00113919
0.00116803
0.00119709
0.00122636
0.00125585
0.00128556
0.00131548
0.00134562
0.001376
0.00140661
0.00143744
0.00146851
0.0014998
0.00153131
0.00156304
0.00159499
0.00162714
0.00165949
0.00169203
0.00172476
0.00175765
0.0017907
0.0018239
0.00185724
0.00189069
0.00192425
0.00195789
0.00199161
0.00202538
0.00205919
0.00209301
0.00212684
0.00216064
0.00219439
0.00222809
0.0022617
0.0022952
0.00232857
0.00236179
0.00239483
0.00242766
0.00246026
0.0024926
0.00252465
0.00255637
0.00258774
0.00261871
0.00264926
0.00267939
0.00270907
0.00273831
0.00276713
0.00279549
0.00282338
0.00285078
0.00287767
0.00290402
0.00292981
0.00295502
0.00297963
0.00300363
0.00302698
0.00304968
0.0030717
0.00309302
0.00311363
0.00313352
0.00315265
0.00317103
0.00318864
0.00320545
0.00322147
0.00323668
0.00325107
0.00326463
0.00327736
0.00328925
0.0033003
0.00331051
0.00331988
0.00332844
0.00333643
0.00334354
0.0033495
0.00335449
0.00335885
0.00336237
0.00336508
0.00336699
0.00336811
0.00336846
0.00336806
0.00336692
0.00336507
0.00336251
0.00335929
0.0033554
0.00335089
0.00334577
0.00334007
0.0033338
0.00332699
0.00331967
0.00331186
0.00330357
0.00329483
0.00328566
0.00327608
0.00326611
0.00325575
0.00324504
0.00323396
0.00322253
0.00321073
0.00319853
0.00318579
0.00317227
0.00315772
0.00314228
0.00312614
0.00310943
0.00309224
0.00307459
0.0030565
0.00303799
0.00301904
0.00299963
0.00297973
0.00295922
0.00293781
0.00291454
0.00288611
0.0028397
6.3869e-06
8.08832e-05
0.00016882
0.000239185
0.000293205
0.00033433
0.000366292
0.000392029
0.000413737
0.000432977
0.000450799
0.000467865
0.000484562
0.000501095
0.000517563
0.00053401
0.000550455
0.000566917
0.000583426
0.000600027
0.000616789
0.000633808
0.000651206
0.000669135
0.00068777
0.000707296
0.000727887
0.000749672
0.000772704
0.000796943
0.000822245
0.000848408
0.000875252
0.000902638
0.000930511
0.000958908
0.000987882
0.00101742
0.00104747
0.00107805
0.0011091
0.00114049
0.00117211
0.00120396
0.00123604
0.00126835
0.00130088
0.00133364
0.00136663
0.00139985
0.0014333
0.00146699
0.00150093
0.00153511
0.00156953
0.00160418
0.00163906
0.00167417
0.0017095
0.00174506
0.00178084
0.00181682
0.00185302
0.00188941
0.00192599
0.00196274
0.00199967
0.00203675
0.00207398
0.00211133
0.0021488
0.00218638
0.00222404
0.00226176
0.00229954
0.00233734
0.00237516
0.00241298
0.00245076
0.0024885
0.00252618
0.00256376
0.00260123
0.00263856
0.00267573
0.00271273
0.00274951
0.00278606
0.00282235
0.00285835
0.00289403
0.00292937
0.00296434
0.00299891
0.00303306
0.00306678
0.00310005
0.00313286
0.00316519
0.00319703
0.00322836
0.00325915
0.00328938
0.00331903
0.00334807
0.00337649
0.00340425
0.00343134
0.00345774
0.00348342
0.00350837
0.00353256
0.00355598
0.00357861
0.00360043
0.00362142
0.00364156
0.00366085
0.00367927
0.0036968
0.00371344
0.00372917
0.00374398
0.00375787
0.00377084
0.00378288
0.00379399
0.00380431
0.0038139
0.00382245
0.00382973
0.0038361
0.00384166
0.0038463
0.00385003
0.00385286
0.00385482
0.00385592
0.00385617
0.0038556
0.00385422
0.00385206
0.00384913
0.00384547
0.0038411
0.00383604
0.00383031
0.00382395
0.00381698
0.00380942
0.0038013
0.00379264
0.00378347
0.00377382
0.00376369
0.00375311
0.00374211
0.00373068
0.00371885
0.00370662
0.00369399
0.00368091
0.00366732
0.00365305
0.00363797
0.00362211
0.00360556
0.00358842
0.00357074
0.00355256
0.0035339
0.00351477
0.00349518
0.00347511
0.00345457
0.00343346
0.00341153
0.00338791
0.00335966
0.00331707
7.57357e-06
8.88896e-05
0.000185015
0.000262868
0.000323608
0.000370385
0.000407014
0.000436547
0.000461315
0.00048303
0.000502895
0.00052172
0.000540026
0.000558131
0.000576225
0.000594423
0.000612798
0.00063141
0.000650319
0.000669588
0.000689292
0.000709518
0.000730363
0.000751935
0.000774345
0.000797701
0.000822096
0.000847588
0.000874188
0.00090185
0.000930475
0.000959934
0.000990101
0.00102087
0.00105218
0.00108401
0.00111634
0.00114914
0.00118238
0.00121604
0.00125007
0.00128444
0.00131908
0.00135398
0.00138912
0.0014245
0.00146011
0.00149594
0.00153201
0.00156831
0.00160483
0.00164159
0.00167858
0.00171581
0.00175326
0.00179094
0.00182883
0.00186695
0.00190528
0.00194383
0.00198257
0.00202152
0.00206066
0.00209998
0.00213948
0.00217914
0.00221895
0.0022589
0.00229899
0.00233919
0.00237949
0.00241987
0.00246033
0.00250084
0.00254138
0.00258194
0.0026225
0.00266304
0.00270354
0.00274397
0.00278433
0.00282458
0.00286471
0.00290469
0.0029445
0.00298411
0.00302351
0.00306266
0.00310154
0.00314013
0.0031784
0.00321632
0.00325387
0.00329103
0.00332778
0.0033641
0.00339996
0.00343536
0.00347026
0.00350466
0.00353853
0.00357185
0.00360458
0.00363672
0.00366823
0.00369909
0.00372928
0.00375877
0.00378754
0.00381557
0.00384284
0.00386933
0.00389501
0.00391987
0.00394388
0.00396703
0.0039893
0.00401067
0.00403113
0.00405066
0.00406925
0.00408688
0.00410355
0.00411924
0.00413396
0.00414768
0.00416043
0.00417245
0.00418345
0.00419343
0.00420208
0.00420987
0.00421668
0.00422252
0.00422738
0.00423128
0.00423423
0.00423625
0.00423736
0.00423758
0.00423692
0.00423542
0.00423309
0.00422996
0.00422605
0.00422139
0.00421601
0.00420994
0.0042032
0.00419582
0.00418783
0.00417925
0.00417011
0.00416044
0.00415026
0.00413959
0.00412845
0.00411685
0.00410482
0.00409235
0.00407945
0.0040661
0.00405225
0.0040378
0.00402268
0.00400686
0.0039904
0.00397335
0.00395574
0.00393762
0.00391899
0.00389988
0.0038803
0.00386028
0.00383981
0.00381887
0.00379726
0.00377423
0.00374733
0.00370945
8.61682e-06
9.53444e-05
0.000198185
0.000282494
0.000349244
0.000401257
0.000442341
0.000475606
0.000503469
0.000527752
0.000549779
0.000570485
0.000590506
0.000610262
0.000630025
0.000649975
0.000670232
0.00069089
0.000712024
0.000733704
0.000755997
0.000778971
0.000802697
0.00082724
0.000852664
0.000879022
0.000906356
0.00093469
0.000964003
0.000994245
0.00102534
0.00105721
0.00108976
0.00112292
0.00115661
0.00119081
0.00122548
0.00126059
0.00129609
0.00133197
0.00136818
0.00140471
0.00144152
0.0014786
0.00151591
0.00155345
0.00159121
0.00162919
0.00166739
0.00170579
0.00174441
0.00178325
0.0018223
0.00186156
0.00190102
0.0019407
0.00198057
0.00202065
0.00206092
0.00210138
0.00214203
0.00218286
0.00222387
0.00226504
0.00230637
0.00234786
0.00238948
0.00243123
0.0024731
0.00251507
0.00255714
0.00259928
0.00264149
0.00268374
0.00272603
0.00276833
0.00281064
0.00285292
0.00289516
0.00293734
0.00297945
0.00302146
0.00306335
0.0031051
0.00314668
0.00318808
0.00322927
0.00327023
0.00331093
0.00335135
0.00339147
0.00343126
0.0034707
0.00350976
0.00354843
0.00358668
0.00362449
0.00366184
0.00369871
0.00373507
0.00377091
0.0038062
0.00384091
0.00387501
0.0039085
0.00394133
0.00397349
0.00400494
0.00403568
0.00406567
0.00409489
0.00412331
0.00415093
0.0041777
0.00420362
0.00422866
0.0042528
0.00427602
0.00429831
0.00431964
0.00434001
0.0043594
0.00437779
0.00439517
0.00441153
0.00442686
0.00444125
0.0044548
0.00446724
0.00447861
0.00448869
0.00449789
0.00450603
0.00451312
0.00451919
0.00452424
0.00452829
0.00453135
0.00453345
0.00453461
0.00453483
0.00453416
0.0045326
0.0045302
0.00452696
0.00452293
0.00451813
0.00451258
0.00450632
0.00449938
0.00449179
0.00448357
0.00447476
0.00446538
0.00445546
0.00444502
0.00443408
0.00442266
0.00441079
0.00439846
0.00438568
0.00437245
0.00435873
0.00434448
0.00432963
0.00431417
0.00429811
0.00428148
0.0042643
0.00424661
0.00422841
0.00420973
0.00419061
0.00417108
0.00415118
0.0041309
0.00411012
0.00408823
0.00406327
0.00403072
9.49819e-06
0.00010037
0.000208567
0.000298431
0.000370427
0.000427275
0.000472592
0.0005095
0.000540465
0.00056738
0.00059166
0.000614336
0.00063614
0.000657579
0.000678995
0.00070062
0.000722618
0.000745117
0.000768218
0.000791969
0.000816421
0.000841624
0.000867623
0.000894453
0.000922138
0.000950684
0.000980069
0.00101038
0.00104159
0.00107364
0.00110648
0.00114003
0.00117423
0.00120902
0.00124434
0.00128016
0.00131641
0.00135308
0.00139003
0.00142731
0.0014649
0.00150279
0.00154098
0.00157943
0.0016181
0.00165697
0.00169603
0.00173528
0.00177472
0.00181434
0.00185415
0.00189415
0.00193433
0.0019747
0.00201525
0.00205598
0.0020969
0.00213799
0.00217925
0.00222069
0.00226231
0.00230408
0.00234602
0.00238812
0.00243037
0.00247276
0.00251528
0.00255794
0.00260072
0.0026436
0.00268658
0.00272965
0.0027728
0.002816
0.00285926
0.00290254
0.00294584
0.00298915
0.00303243
0.00307568
0.00311888
0.003162
0.00320503
0.00324794
0.00329072
0.00333335
0.00337579
0.00341803
0.00346005
0.00350181
0.0035433
0.0035845
0.00362538
0.00366591
0.00370607
0.00374584
0.0037852
0.00382412
0.00386258
0.00390055
0.00393801
0.00397494
0.00401131
0.00404708
0.00408225
0.00411678
0.00415064
0.00418382
0.00421628
0.004248
0.00427896
0.00430912
0.00433848
0.004367
0.00439466
0.00442144
0.00444732
0.00447227
0.00449628
0.00451932
0.00454138
0.00456244
0.00458249
0.00460151
0.00461949
0.00463641
0.00465242
0.0046674
0.00468132
0.00469412
0.00470572
0.00471634
0.00472584
0.00473424
0.00474157
0.00474784
0.00475307
0.00475727
0.00476046
0.00476265
0.00476387
0.00476415
0.00476349
0.00476194
0.00475952
0.00475625
0.00475218
0.00474732
0.00474171
0.00473538
0.00472836
0.00472069
0.00471239
0.0047035
0.00469404
0.00468405
0.00467354
0.00466253
0.00465105
0.00463911
0.00462672
0.00461387
0.00460055
0.00458674
0.0045724
0.00455751
0.00454207
0.00452609
0.00450958
0.00449258
0.00447508
0.00445714
0.00443877
0.00442005
0.00440102
0.00438172
0.00436209
0.00434163
0.00431882
0.00429084
1.0209e-05
0.000104097
0.000216418
0.000311007
0.000387507
0.000448733
0.000498015
0.00053843
0.000572449
0.000602006
0.000628576
0.000653258
0.000676862
0.000699983
0.000723009
0.000746178
0.000769645
0.000793488
0.000817916
0.000843039
0.000868919
0.000895595
0.000923096
0.00095144
0.000980636
0.00101069
0.00104161
0.00107337
0.00110593
0.00113924
0.00117324
0.00120787
0.00124308
0.00127881
0.00131504
0.0013517
0.00138876
0.0014262
0.00146401
0.00150214
0.00154057
0.00157924
0.0016181
0.00165717
0.00169642
0.00173581
0.00177534
0.00181502
0.00185484
0.00189481
0.00193494
0.00197522
0.00201565
0.00205624
0.00209699
0.0021379
0.00217898
0.00222021
0.00226161
0.00230317
0.0023449
0.0023868
0.00242885
0.00247107
0.00251345
0.00255598
0.00259867
0.00264151
0.00268449
0.0027276
0.00277084
0.0028142
0.00285766
0.00290123
0.00294487
0.0029886
0.00303237
0.0030762
0.00312004
0.0031639
0.00320775
0.00325157
0.00329535
0.00333905
0.00338267
0.00342617
0.00346954
0.00351275
0.00355579
0.00359861
0.0036412
0.00368354
0.0037256
0.00376736
0.00380878
0.00384985
0.00389053
0.00393081
0.00397066
0.00401005
0.00404895
0.00408734
0.0041252
0.00416249
0.00419919
0.00423527
0.0042707
0.00430547
0.00433953
0.00437287
0.00440546
0.00443727
0.00446828
0.00449847
0.0045278
0.00455625
0.00458381
0.00461044
0.00463612
0.00466083
0.00468456
0.00470728
0.00472897
0.00474963
0.00476922
0.00478777
0.00480533
0.00482181
0.00483724
0.00485153
0.00486469
0.00487679
0.0048877
0.00489746
0.00490612
0.00491369
0.00492017
0.00492558
0.00492994
0.00493327
0.00493557
0.00493689
0.00493724
0.00493665
0.00493514
0.00493275
0.00492952
0.00492546
0.00492062
0.00491502
0.00490871
0.00490171
0.00489407
0.00488581
0.00487696
0.00486756
0.00485763
0.0048472
0.00483629
0.00482491
0.00481309
0.00480082
0.0047881
0.00477492
0.00476126
0.0047471
0.00473244
0.00471728
0.00470163
0.0046855
0.00466892
0.00465192
0.00463453
0.00461684
0.0045989
0.0045808
0.0045625
0.00454364
0.00452301
0.00449897
1.07486e-05
0.000106663
0.000221995
0.00032042
0.000400776
0.000465906
0.000518838
0.000562563
0.000599525
0.000631665
0.000660512
0.000687163
0.000712403
0.000736749
0.000760811
0.000784969
0.000809482
0.000834563
0.000860334
0.000886806
0.000914005
0.000941958
0.000970685
0.0010002
0.00103049
0.00106157
0.0010934
0.00112595
0.00115916
0.001193
0.00122744
0.00126243
0.00129793
0.00133389
0.00137028
0.00140704
0.00144415
0.00148158
0.00151929
0.00155724
0.00159542
0.00163382
0.00167247
0.00171143
0.0017505
0.0017896
0.00182876
0.00186801
0.00190734
0.00194679
0.00198635
0.00202604
0.00206585
0.00210581
0.0021459
0.00218615
0.00222655
0.00226712
0.00230786
0.00234878
0.00238988
0.00243116
0.00247264
0.00251431
0.00255617
0.00259823
0.00264049
0.00268295
0.0027256
0.00276843
0.00281145
0.00285465
0.00289802
0.00294155
0.00298523
0.00302904
0.00307298
0.00311702
0.00316116
0.00320537
0.00324963
0.00329393
0.00333825
0.00338256
0.00342684
0.00347106
0.00351521
0.00355925
0.00360316
0.00364692
0.0036905
0.00373388
0.00377701
0.00381989
0.00386247
0.00390474
0.00394666
0.00398821
0.00402937
0.00407009
0.00411036
0.00415015
0.00418942
0.00422816
0.00426633
0.00430391
0.00434086
0.00437716
0.00441278
0.0044477
0.00448188
0.0045153
0.00454793
0.00457975
0.00461073
0.00464084
0.00467006
0.00469836
0.00472572
0.00475211
0.00477751
0.0048019
0.00482526
0.00484757
0.00486881
0.004889
0.00490813
0.00492618
0.00494318
0.00495906
0.0049738
0.00498748
0.00499984
0.00501104
0.0050211
0.00503004
0.00503785
0.00504456
0.00505018
0.00505473
0.00505821
0.00506067
0.00506211
0.00506258
0.00506209
0.00506068
0.00505838
0.00505523
0.00505126
0.0050465
0.005041
0.00503479
0.00502791
0.00502039
0.00501228
0.00500359
0.00499437
0.00498465
0.00497444
0.00496377
0.00495266
0.00494112
0.00492915
0.00491675
0.00490392
0.00489064
0.0048769
0.00486271
0.00484807
0.00483298
0.00481748
0.00480158
0.00478536
0.00476886
0.0047522
0.00473544
0.0047186
0.00470141
0.00468292
0.00466234
1.11255e-05
0.000108225
0.000225544
0.000326945
0.000410523
0.000479058
0.000535276
0.000582065
0.000621776
0.000656229
0.000686791
0.000714859
0.000741409
0.000767226
0.000792778
0.00081833
0.00084412
0.000870316
0.000896986
0.000924227
0.000952106
0.000980657
0.0010099
0.00103984
0.00107046
0.00110175
0.00113369
0.00116624
0.00119936
0.00123302
0.00126717
0.00130179
0.00133682
0.00137224
0.00140799
0.00144404
0.00148037
0.00151694
0.00155371
0.00159064
0.00162775
0.00166513
0.00170286
0.00174074
0.00177865
0.0018166
0.00185451
0.00189241
0.00193035
0.00196837
0.00200647
0.00204468
0.00208302
0.00212149
0.00216012