/*--------------------------------*- C++ -*----------------------------------*\
  =========                 |
  \\      /  F ield         | OpenFOAM: The Open Source CFD Toolbox
   \\    /   O peration     | Website:  https://openfoam.org
    \\  /    A nd           | Version:  8
     \\/     M anipulation  |
\*---------------------------------------------------------------------------*/
FoamFile
{
    version     2.0;
    format      ascii;
    class       volScalarField;
    location    "250";
    object      p;
}
// * * * * * * * * * * * * * * * * * * * * * * * * * * * * * * * * * * * * * //

dimensions      [0 2 -2 0 0 0 0];

internalField   nonuniform List<scalar> 
12225
(
-1.34115
-3.52975
-4.62983
-4.95058
-5.13201
-5.30124
-5.43303
-5.52855
-5.60562
-5.67361
-5.73437
-5.79022
-5.84132
-5.88947
-5.93515
-5.97445
-6.02347
-6.00325
-4.50457
-5.27306
-5.43357
-5.34144
-5.32905
-5.39711
-5.47492
-5.54101
-5.60109
-5.65911
-5.71447
-5.76634
-5.81548
-5.86225
-5.9077
-5.9488
-5.99612
-6.03156
-4.90571
-4.89074
-5.01815
-5.09662
-5.19166
-5.31201
-5.41951
-5.50469
-5.57695
-5.64287
-5.70371
-5.75955
-5.8119
-5.86117
-5.90893
-5.95323
-6.00325
-6.0474
-4.78377
-4.72689
-4.96855
-5.12697
-5.22884
-5.33522
-5.43317
-5.51354
-5.5827
-5.64633
-5.70558
-5.76047
-5.81219
-5.86116
-5.90878
-5.95436
-6.00334
-6.05129
-4.77342
-4.79789
-5.02601
-5.16766
-5.2514
-5.34363
-5.43509
-5.51311
-5.58106
-5.64379
-5.70254
-5.75732
-5.8091
-5.85838
-5.90639
-5.95313
-6.00174
-6.05137
-4.83136
-4.88034
-5.05467
-5.17866
-5.2603
-5.34829
-5.43655
-5.51335
-5.58069
-5.64286
-5.70122
-5.75586
-5.80759
-5.85701
-5.90513
-5.95231
-6.00042
-6.04966
-4.89168
-4.93595
-5.07118
-5.18759
-5.27145
-5.35573
-5.43986
-5.51476
-5.58118
-5.6426
-5.70037
-5.7547
-5.80624
-5.8556
-5.90362
-5.95076
-5.99816
-6.0461
-4.94518
-4.98285
-5.09286
-5.20122
-5.28432
-5.36406
-5.44365
-5.51637
-5.58171
-5.64228
-5.69938
-5.7533
-5.80454
-5.8537
-5.90144
-5.94822
-5.99471
-6.04103
-4.99487
-5.02802
-5.11898
-5.217
-5.29717
-5.37266
-5.44798
-5.51829
-5.58235
-5.64194
-5.69824
-5.75162
-5.80244
-5.85122
-5.89849
-5.94463
-5.99003
-6.03463
-5.04186
-5.07113
-5.14669
-5.23395
-5.31022
-5.38186
-5.4531
-5.52076
-5.58327
-5.6417
-5.69707
-5.74972
-5.79996
-5.84818
-5.89479
-5.94007
-5.98425
-6.02715
-5.0861
-5.11161
-5.17484
-5.25204
-5.32378
-5.39168
-5.459
-5.52381
-5.58453
-5.64165
-5.69593
-5.74769
-5.79717
-5.84465
-5.89043
-5.9347
-5.9776
-6.01886
-5.12405
-5.1464
-5.20062
-5.26947
-5.33663
-5.40107
-5.46496
-5.52709
-5.58601
-5.64178
-5.69493
-5.74575
-5.79438
-5.84104
-5.88594
-5.92919
-5.97088
-6.01073
-5.15907
-5.1788
-5.22563
-5.28703
-5.34955
-5.41058
-5.47122
-5.53069
-5.58771
-5.64204
-5.694
-5.74377
-5.79147
-5.83722
-5.88115
-5.92335
-5.96384
-6.00238
-5.19575
-5.21294
-5.25296
-5.30698
-5.36431
-5.42148
-5.47861
-5.53511
-5.58988
-5.64247
-5.69296
-5.74144
-5.78796
-5.83257
-5.87534
-5.9163
-5.95546
-5.99261
-5.23282
-5.2476
-5.2816
-5.32868
-5.38055
-5.43352
-5.48695
-5.54024
-5.59245
-5.643
-5.69174
-5.73866
-5.78375
-5.827
-5.86841
-5.90797
-5.9457
-5.98142
-5.26831
-5.28093
-5.30986
-5.35079
-5.39733
-5.44601
-5.4957
-5.54569
-5.59514
-5.64339
-5.69016
-5.73531
-5.77875
-5.82044
-5.86033
-5.89839
-5.93462
-5.96891
-5.29931
-5.31018
-5.33512
-5.37104
-5.41288
-5.45755
-5.50372
-5.55057
-5.59727
-5.64315
-5.68783
-5.73108
-5.77276
-5.81278
-5.85107
-5.88758
-5.92233
-5.95523
-5.32147
-5.33111
-5.35335
-5.38578
-5.42418
-5.46575
-5.50911
-5.55336
-5.59769
-5.64144
-5.68417
-5.72562
-5.76559
-5.80399
-5.84074
-5.87578
-5.90912
-5.94074
-5.32789
-5.33704
-5.35823
-5.38934
-5.42637
-5.46657
-5.50852
-5.55135
-5.59427
-5.63664
-5.678
-5.71808
-5.75672
-5.79381
-5.82929
-5.86312
-5.89531
-5.92589
-5.31148
-5.32124
-5.34381
-5.37684
-5.41578
-5.45739
-5.50024
-5.54364
-5.58687
-5.62928
-5.67046
-5.71019
-5.74837
-5.7849
-5.81976
-5.85296
-5.8845
-5.91445
-5.28443
-5.29522
-5.32046
-5.35743
-5.40013
-5.44456
-5.48954
-5.53465
-5.57915
-5.62235
-5.66396
-5.7039
-5.7421
-5.77854
-5.81321
-5.84615
-5.8774
-5.90706
-5.24908
-5.26088
-5.29021
-5.33375
-5.38195
-5.42985
-5.47756
-5.52516
-5.57158
-5.61603
-5.65841
-5.69881
-5.73727
-5.77379
-5.80843
-5.84126
-5.87235
-5.90183
-5.20844
-5.22032
-5.25475
-5.30797
-5.36344
-5.41531
-5.4661
-5.51642
-5.56481
-5.61055
-5.65384
-5.69488
-5.73374
-5.77045
-5.80515
-5.83797
-5.86901
-5.89841
-5.16467
-5.17563
-5.21738
-5.28175
-5.34386
-5.40045
-5.45597
-5.50971
-5.55985
-5.60654
-5.65053
-5.69208
-5.73121
-5.76803
-5.80275
-5.83553
-5.86649
-5.89579
-5.11769
-5.12319
-5.18582
-5.26398
-5.32585
-5.38401
-5.44506
-5.5033
-5.5557
-5.60363
-5.64852
-5.69066
-5.73007
-5.76698
-5.80168
-5.83439
-5.86528
-5.89454
-5.07436
-5.03802
-5.14753
-5.25845
-5.32063
-5.37583
-5.43794
-5.49757
-5.55068
-5.59927
-5.64487
-5.68754
-5.72729
-5.7644
-5.7992
-5.83197
-5.8629
-5.89217
-5.08857
-4.9296
-5.05849
-5.21252
-5.30256
-5.37384
-5.44267
-5.50347
-5.55616
-5.60432
-5.64948
-5.69162
-5.73079
-5.76733
-5.8016
-5.83387
-5.86438
-5.89338
-5.21175
-5.03135
-5.0455
-5.11758
-5.20588
-5.30502
-5.39561
-5.46928
-5.53087
-5.58589
-5.63608
-5.68174
-5.72342
-5.7618
-5.79738
-5.83061
-5.86196
-5.89203
-4.91912
-5.5102
-5.599
-5.4747
-5.4203
-5.44737
-5.49425
-5.53739
-5.57883
-5.6209
-5.66227
-5.70149
-5.73833
-5.77295
-5.8054
-5.83585
-5.86451
-5.89317
-1.92979
-3.69308
-4.69775
-4.99684
-5.14595
-5.28949
-5.40343
-5.48428
-5.5484
-5.60515
-5.65629
-5.70221
-5.74378
-5.78189
-5.81708
-5.84913
-5.87789
-5.90161
-6.7681
-6.76814
-6.76854
-6.76936
-6.77044
-6.77172
-6.77323
-6.77498
-6.77702
-6.77938
-6.78212
-6.78526
-6.78887
-6.79298
-6.79763
-6.80289
-6.80878
-6.81535
-6.82265
-6.8307
-6.83954
-6.84921
-6.8598
-6.87139
-6.88406
-6.89788
-6.91293
-6.92936
-6.94707
-6.96504
-6.98184
-6.99789
-7.01575
-7.03711
-7.06091
-7.08592
-7.1116
-7.13906
-7.16908
-7.19608
-7.21853
-7.24077
-7.26484
-7.29101
-7.31853
-7.34686
-7.37577
-7.40506
-7.4346
-7.46426
-7.49396
-7.52358
-7.55302
-7.58221
-7.61103
-7.63939
-7.66718
-7.69429
-7.72062
-7.74605
-7.77044
-7.79368
-7.81562
-7.83612
-7.85503
-7.8722
-7.88747
-7.90067
-7.91162
-7.92015
-7.92608
-7.92922
-7.92938
-7.92637
-7.91998
-7.91003
-7.8963
-7.87861
-7.85674
-7.83049
-7.79966
-7.76406
-7.72349
-7.67777
-7.6267
-7.5701
-7.50779
-7.4396
-7.36537
-7.28496
-7.19825
-7.1051
-7.00541
-6.8991
-6.78619
-6.66675
-6.54063
-6.40732
-6.26663
-6.11882
-5.96394
-5.80204
-5.63317
-5.45737
-5.2747
-5.08526
-4.88912
-4.68642
-4.47728
-4.26186
-4.04032
-3.81285
-3.57963
-3.34089
-3.09686
-2.84777
-2.59389
-2.33547
-2.07277
-1.80608
-1.53569
-1.26191
-0.985021
-0.705337
-0.423152
-0.138769
0.147519
0.435406
0.724605
1.01483
1.3058
1.59721
1.8888
2.18028
2.4714
2.76192
3.05159
3.34021
3.62754
3.9134
4.19756
4.47986
4.76013
5.03821
5.31396
5.58725
5.85795
6.12595
6.39115
6.65345
6.91276
7.169
7.42209
7.67198
7.91859
8.16187
8.40175
8.63817
8.87109
9.10043
9.32615
9.54821
9.7666
9.98131
10.192
10.3985
10.6005
10.798
10.9908
11.1789
11.362
11.5401
11.7129
11.8803
12.0425
12.1996
12.3529
12.5035
12.6645
12.8318
-6.76674
-6.76709
-6.76767
-6.76838
-6.76904
-6.76964
-6.77035
-6.77131
-6.77263
-6.77434
-6.77649
-6.77909
-6.78217
-6.78574
-6.78985
-6.79453
-6.79981
-6.80574
-6.81234
-6.81967
-6.82774
-6.83658
-6.84623
-6.85668
-6.86793
-6.87998
-6.89278
-6.90625
-6.92003
-6.93413
-6.94997
-6.96906
-6.99048
-7.01139
-7.03109
-7.05059
-7.07156
-7.09424
-7.11662
-7.1424
-7.174
-7.2069
-7.23808
-7.26777
-7.29693
-7.32604
-7.35526
-7.38463
-7.4141
-7.44363
-7.47314
-7.50256
-7.5318
-7.56079
-7.58942
-7.61761
-7.64526
-7.67226
-7.6985
-7.72386
-7.74823
-7.77147
-7.79346
-7.81404
-7.83308
-7.85041
-7.86589
-7.87934
-7.89059
-7.89948
-7.9058
-7.90939
-7.91004
-7.90758
-7.90179
-7.89249
-7.87947
-7.86253
-7.84147
-7.81609
-7.78619
-7.75158
-7.71205
-7.66742
-7.61751
-7.56213
-7.5011
-7.43426
-7.36145
-7.28252
-7.19735
-7.10581
-7.00776
-6.90309
-6.79164
-6.67324
-6.54773
-6.41527
-6.27603
-6.12986
-5.9767
-5.81655
-5.64943
-5.4754
-5.2945
-5.10681
-4.91242
-4.71146
-4.50404
-4.2903
-4.07043
-3.84458
-3.61297
-3.37579
-3.13327
-2.88565
-2.63318
-2.37612
-2.11473
-1.84929
-1.58009
-1.30743
-1.03161
-0.752919
-0.471665
-0.188145
0.097338
0.384487
0.673012
0.962635
1.25307
1.54402
1.83521
2.12635
2.4172
2.7075
2.99703
3.28555
3.57285
3.85872
4.14295
4.42536
4.70579
4.98407
5.26007
5.53364
5.80466
6.07303
6.33862
6.60134
6.86111
7.11784
7.37145
7.62188
7.86907
8.11295
8.35347
8.59056
8.82415
9.05421
9.28067
9.50345
9.72242
9.93728
10.1479
10.3542
10.5561
10.7536
10.9465
11.1347
11.318
11.4963
11.6695
11.8375
12.0004
12.1586
12.3136
12.4663
12.6299
12.791
-6.76247
-6.76356
-6.76509
-6.76634
-6.76708
-6.76757
-6.76806
-6.76875
-6.76978
-6.77121
-6.77309
-6.77544
-6.77829
-6.78167
-6.78559
-6.79009
-6.7952
-6.80096
-6.8074
-6.81454
-6.82244
-6.83112
-6.84061
-6.85092
-6.86204
-6.87399
-6.88677
-6.90035
-6.91461
-6.92966
-6.94614
-6.96476
-6.98532
-7.00681
-7.02876
-7.05115
-7.0739
-7.09661
-7.11871
-7.14164
-7.16711
-7.19454
-7.2229
-7.25151
-7.28018
-7.30892
-7.33774
-7.36666
-7.39565
-7.42466
-7.45365
-7.48255
-7.51129
-7.53978
-7.56795
-7.5957
-7.62293
-7.64955
-7.67545
-7.70052
-7.72463
-7.74766
-7.76947
-7.78993
-7.80889
-7.8262
-7.8417
-7.85524
-7.86662
-7.8757
-7.88227
-7.88617
-7.8872
-7.88517
-7.87989
-7.87115
-7.85877
-7.84253
-7.82225
-7.79771
-7.76872
-7.73509
-7.69661
-7.65311
-7.60438
-7.55026
-7.49056
-7.42512
-7.35377
-7.27636
-7.19276
-7.10283
-7.00646
-6.90352
-6.7939
-6.67742
-6.55395
-6.42354
-6.28627
-6.14208
-5.99095
-5.83286
-5.66782
-5.49589
-5.3171
-5.13152
-4.93925
-4.7404
-4.53508
-4.32343
-4.10562
-3.88182
-3.65222
-3.41703
-3.17645
-2.93073
-2.68012
-2.42487
-2.16523
-1.90149
-1.63394
-1.36286
-1.08856
-0.811316
-0.531448
-0.249246
0.0349813
0.320942
0.608344
0.896919
1.18637
1.47641
1.76675
2.05712
2.34727
2.63694
2.92589
3.2139
3.50074
3.78621
4.07009
4.35221
4.63239
4.91047
5.1863
5.45975
5.73069
5.99899
6.26455
6.52727
6.78706
7.04383
7.2975
7.548
7.79526
8.0392
8.27977
8.51691
8.75056
8.98068
9.2072
9.4301
9.64929
9.86459
10.0759
10.283
10.4857
10.6841
10.8779
11.067
11.2512
11.4305
11.6049
11.7741
11.9386
12.0986
12.256
12.4107
12.5766
12.7248
-6.75567
-6.75762
-6.76059
-6.76294
-6.76441
-6.76538
-6.7662
-6.76707
-6.76817
-6.76959
-6.77142
-6.7737
-6.77647
-6.77976
-6.78361
-6.78803
-6.79306
-6.79872
-6.80506
-6.81209
-6.81984
-6.82836
-6.83767
-6.84781
-6.85879
-6.87063
-6.88332
-6.89686
-6.91124
-6.92654
-6.94299
-6.96085
-6.98012
-7.00052
-7.02188
-7.04416
-7.0672
-7.0907
-7.11437
-7.13843
-7.16336
-7.1893
-7.21613
-7.24358
-7.27139
-7.29947
-7.32773
-7.35614
-7.38465
-7.4132
-7.44175
-7.47023
-7.49857
-7.52668
-7.5545
-7.58194
-7.60889
-7.63526
-7.66095
-7.68584
-7.70981
-7.73274
-7.75449
-7.77493
-7.79392
-7.8113
-7.82691
-7.8406
-7.85219
-7.86151
-7.86838
-7.87262
-7.87404
-7.87245
-7.86765
-7.85945
-7.84764
-7.83204
-7.81243
-7.78863
-7.76042
-7.72761
-7.69002
-7.64743
-7.59968
-7.54657
-7.48793
-7.42359
-7.35338
-7.27715
-7.19476
-7.10607
-7.01094
-6.90925
-6.8009
-6.68576
-6.56375
-6.43487
-6.29912
-6.15647
-6.00688
-5.85036
-5.6869
-5.51655
-5.33936
-5.15538
-4.96471
-4.76744
-4.5637
-4.35363
-4.13737
-3.91511
-3.68702
-3.45331
-3.2142
-2.96991
-2.72069
-2.46679
-2.20847
-1.946
-1.67968
-1.40979
-1.13662
-0.860466
-0.581637
-0.300426
-0.0171398
0.267928
0.554497
0.842292
1.13101
1.42036
1.71006
1.99986
2.28948
2.57868
2.86721
3.15485
3.44136
3.72653
4.01016
4.29206
4.57207
4.85001
5.12573
5.3991
5.66999
5.93826
6.20382
6.46655
6.72636
6.98317
7.23688
7.48743
7.73474
7.97874
8.21936
8.45657
8.69031
8.92051
9.14711
9.37006
9.58929
9.80471
10.0162
10.2236
10.4268
10.6255
10.8198
11.0094
11.1942
11.3741
11.5491
11.7192
11.8846
12.0456
12.204
12.3586
12.5225
12.6564
-6.748
-6.75086
-6.75547
-6.75919
-6.76161
-6.76331
-6.76471
-6.76604
-6.76747
-6.76915
-6.77118
-6.77362
-6.77653
-6.77994
-6.7839
-6.78843
-6.79357
-6.79935
-6.80579
-6.81293
-6.8208
-6.82944
-6.83886
-6.84911
-6.86021
-6.87219
-6.88506
-6.89883
-6.91351
-6.92918
-6.9459
-6.96376
-6.98272
-7.00267
-7.02351
-7.0452
-7.06767
-7.09084
-7.1146
-7.13896
-7.16396
-7.1896
-7.21586
-7.24263
-7.26982
-7.29732
-7.32508
-7.35302
-7.3811
-7.40926
-7.43744
-7.46557
-7.49358
-7.5214
-7.54895
-7.57615
-7.60289
-7.62908
-7.65462
-7.67939
-7.70328
-7.72616
-7.74789
-7.76835
-7.78739
-7.80485
-7.82058
-7.83442
-7.8462
-7.85574
-7.86286
-7.86739
-7.86913
-7.86789
-7.86348
-7.85571
-7.84436
-7.82925
-7.81016
-7.78691
-7.7593
-7.72711
-7.69016
-7.64826
-7.60122
-7.54884
-7.49097
-7.42742
-7.35802
-7.28263
-7.2011
-7.11328
-7.01905
-6.91828
-6.81087
-6.69671
-6.57574
-6.44791
-6.31321
-6.17161
-6.02307
-5.8676
-5.70521
-5.53592
-5.35978
-5.17686
-4.98724
-4.79103
-4.58833
-4.37928
-4.16405
-3.94278
-3.71568
-3.48294
-3.24478
-3.00142
-2.75311
-2.50009
-2.24263
-1.981
-1.71548
-1.44637
-1.17395
-0.898519
-0.620377
-0.339832
-0.0571751
0.227292
0.513307
0.80057
1.08878
1.37765
1.66692
1.95631
2.24557
2.53444
2.82267
3.11003
3.3963
3.68126
3.9647
4.24644
4.52632
4.80415
5.0798
5.35312
5.62397
5.89224
6.1578
6.42056
6.68041
6.93728
7.19107
7.4417
7.6891
7.93322
8.17399
8.41134
8.64519
8.8755
9.10217
9.32515
9.54437
9.75974
9.97119
10.1786
10.3818
10.5807
10.7751
10.9649
11.1499
11.3301
11.5055
11.6759
11.8417
12.003
12.1612
12.3143
12.4744
12.5952
-6.74103
-6.74475
-6.75087
-6.75589
-6.75931
-6.76183
-6.76392
-6.76582
-6.76775
-6.76985
-6.77224
-6.77501
-6.77822
-6.78192
-6.78616
-6.79096
-6.79637
-6.80242
-6.80913
-6.81656
-6.82471
-6.83363
-6.84335
-6.85389
-6.86529
-6.87756
-6.89073
-6.90481
-6.91981
-6.93577
-6.95271
-6.97064
-6.98956
-7.00938
-7.03003
-7.05146
-7.07361
-7.09642
-7.11988
-7.14396
-7.16866
-7.19394
-7.21976
-7.24605
-7.27276
-7.29981
-7.32714
-7.3547
-7.38242
-7.41025
-7.43813
-7.46599
-7.49376
-7.52137
-7.54874
-7.57577
-7.60238
-7.62847
-7.65393
-7.67865
-7.70252
-7.72541
-7.74718
-7.76771
-7.78684
-7.80442
-7.8203
-7.8343
-7.84628
-7.85604
-7.86341
-7.8682
-7.87023
-7.8693
-7.86523
-7.8578
-7.84683
-7.83212
-7.81345
-7.79063
-7.76347
-7.73175
-7.69529
-7.65389
-7.60737
-7.55553
-7.49821
-7.43522
-7.3664
-7.29159
-7.21066
-7.12345
-7.02984
-6.92971
-6.82295
-6.70947
-6.58919
-6.46206
-6.32806
-6.18714
-6.03929
-5.8845
-5.72279
-5.55418
-5.37872
-5.19647
-5.00752
-4.81196
-4.60992
-4.40152
-4.18692
-3.96629
-3.73981
-3.50768
-3.27012
-3.02735
-2.77961
-2.52715
-2.27024
-2.00915
-1.74416
-1.47556
-1.20364
-0.9287
-0.651035
-0.370951
-0.0887467
0.195296
0.4809
0.767759
1.05557
1.34405
1.63297
1.92204
2.21098
2.49955
2.7875
3.07459
3.3606
3.64532
3.92855
4.21009
4.48978
4.76746
5.04296
5.31614
5.58688
5.85504
6.12053
6.38322
6.64302
6.89985
7.15361
7.40424
7.65167
7.89581
8.1366
8.37398
8.60788
8.83823
9.06496
9.28798
9.5072
9.72256
9.93399
10.1414
10.3446
10.5436
10.7381
10.928
11.1132
11.2937
11.4692
11.6399
11.8058
11.9669
12.1244
12.2754
12.4316
12.541
-6.73589
-6.74039
-6.7477
-6.75381
-6.75816
-6.76148
-6.76427
-6.76679
-6.76926
-6.77186
-6.7747
-6.77788
-6.78149
-6.78557
-6.79018
-6.79535
-6.80112
-6.80753
-6.81461
-6.8224
-6.83092
-6.8402
-6.85027
-6.86116
-6.87289
-6.88549
-6.89895
-6.9133
-6.92855
-6.94471
-6.96177
-6.97973
-6.99859
-7.01828
-7.03878
-7.06002
-7.08196
-7.10456
-7.12779
-7.15162
-7.17605
-7.20102
-7.2265
-7.25244
-7.2788
-7.30551
-7.33253
-7.3598
-7.38726
-7.41486
-7.44253
-7.47021
-7.49783
-7.52531
-7.55257
-7.57953
-7.60609
-7.63215
-7.65762
-7.68237
-7.70629
-7.72925
-7.75112
-7.77176
-7.79102
-7.80876
-7.82481
-7.83901
-7.85119
-7.86117
-7.86877
-7.87381
-7.8761
-7.87545
-7.87166
-7.86453
-7.85386
-7.83945
-7.8211
-7.79861
-7.77178
-7.74041
-7.70429
-7.66325
-7.61708
-7.56561
-7.50865
-7.44603
-7.37759
-7.30316
-7.22261
-7.13579
-7.04257
-6.94283
-6.83647
-6.7234
-6.60354
-6.47684
-6.34325
-6.20273
-6.05529
-5.90089
-5.73957
-5.57135
-5.39627
-5.2144
-5.02582
-4.83063
-4.62895
-4.42091
-4.20667
-3.98639
-3.76026
-3.52848
-3.29125
-3.04882
-2.80142
-2.54929
-2.29271
-2.03195
-1.76729
-1.49901
-1.22742
-0.952803
-0.675467
-0.395707
-0.113828
0.169905
0.455184
0.741712
1.02919
1.31737
1.60598
1.89475
2.18339
2.47167
2.75933
3.04614
3.33187
3.61632
3.89928
4.18057
4.46002
4.73745
5.01273
5.2857
5.55623
5.8242
6.0895
6.35202
6.61166
6.86835
7.12198
7.37249
7.61981
7.86385
8.10457
8.34188
8.57573
8.80605
9.03276
9.25577
9.475
9.69036
9.90179
10.1092
10.3125
10.5115
10.7061
10.8962
11.0816
11.2622
11.438
11.6087
11.7746
11.9353
12.0918
12.2405
12.3933
12.4927
-6.73332
-6.73839
-6.74653
-6.75348
-6.75859
-6.76261
-6.76604
-6.76916
-6.77217
-6.77526
-6.77857
-6.7822
-6.78623
-6.79072
-6.79573
-6.8013
-6.80747
-6.81426
-6.82173
-6.82989
-6.83878
-6.84843
-6.85885
-6.87008
-6.88212
-6.89499
-6.90871
-6.92329
-6.93872
-6.95501
-6.97215
-6.99013
-7.00893
-7.02852
-7.04888
-7.06995
-7.09172
-7.11414
-7.13718
-7.16083
-7.18505
-7.2098
-7.23505
-7.26076
-7.28689
-7.31339
-7.34021
-7.36729
-7.39459
-7.42206
-7.44962
-7.47721
-7.50476
-7.53221
-7.55945
-7.58642
-7.61302
-7.63913
-7.66467
-7.68952
-7.71355
-7.73664
-7.75865
-7.77945
-7.79888
-7.8168
-7.83304
-7.84744
-7.85983
-7.87002
-7.87785
-7.88311
-7.88563
-7.8852
-7.88164
-7.87474
-7.8643
-7.85012
-7.832
-7.80974
-7.78313
-7.75198
-7.71608
-7.67525
-7.6293
-7.57804
-7.52128
-7.45887
-7.39063
-7.3164
-7.23605
-7.14942
-7.05639
-6.95685
-6.85068
-6.7378
-6.61814
-6.49162
-6.35821
-6.21788
-6.0706
-5.91637
-5.75521
-5.58714
-5.41221
-5.23049
-5.04206
-4.84701
-4.64547
-4.43758
-4.22348
-4.00334
-3.77735
-3.54571
-3.30864
-3.06635
-2.8191
-2.56714
-2.31073
-2.05014
-1.78567
-1.51758
-1.24619
-0.971779
-0.694662
-0.415132
-0.133481
0.150006
0.435021
0.721267
1.00847
1.29638
1.58472
1.87321
2.16157
2.44956
2.73693
3.02344
3.30888
3.59302
3.87569
4.15669
4.43585
4.713
4.98799
5.26068
5.53094
5.79865
6.0637
6.32598
6.58539
6.84185
7.09528
7.3456
7.59273
7.83661
8.07717
8.31435
8.54808
8.77829
9.00491
9.22787
9.44705
9.66239
9.87381
10.0812
10.2846
10.4837
10.6784
10.8686
11.0542
11.2349
11.4108
11.5816
11.7472
11.9075
12.0628
12.2091
12.3589
12.4497
-6.73361
-6.73901
-6.74763
-6.75512
-6.76079
-6.76538
-6.76935
-6.77298
-6.77648
-6.78003
-6.78377
-6.78781
-6.79224
-6.79712
-6.80251
-6.80844
-6.81497
-6.82212
-6.82994
-6.83845
-6.84767
-6.85763
-6.86835
-6.87985
-6.89215
-6.90525
-6.91917
-6.93391
-6.94946
-6.96584
-6.98302
-7.00101
-7.01977
-7.03929
-7.05954
-7.0805
-7.10213
-7.12442
-7.14733
-7.17084
-7.19492
-7.21953
-7.24464
-7.27022
-7.29622
-7.3226
-7.34932
-7.37633
-7.40357
-7.43099
-7.45853
-7.48613
-7.51371
-7.5412
-7.56851
-7.59556
-7.62226
-7.6485
-7.67417
-7.69916
-7.72336
-7.74661
-7.76881
-7.78979
-7.80942
-7.82753
-7.84397
-7.85857
-7.87115
-7.88154
-7.88955
-7.895
-7.8977
-7.89745
-7.89406
-7.88732
-7.87703
-7.863
-7.84501
-7.82287
-7.79638
-7.76533
-7.72953
-7.68879
-7.64292
-7.59173
-7.53504
-7.47268
-7.40448
-7.3303
-7.24997
-7.16338
-7.07037
-6.97085
-6.8647
-6.75183
-6.63218
-6.50567
-6.37226
-6.23191
-6.08462
-5.93037
-5.76919
-5.6011
-5.42614
-5.24439
-5.05593
-4.86086
-4.65929
-4.45137
-4.23725
-4.0171
-3.79111
-3.55947
-3.3224
-3.08014
-2.83292
-2.581
-2.32465
-2.06414
-1.79974
-1.53176
-1.26048
-0.986217
-0.709251
-0.429894
-0.148422
0.13485
0.419633
0.705626
0.992584
1.28024
1.56832
1.85652
2.14459
2.43227
2.71933
3.00553
3.29064
3.57446
3.85679
4.13745
4.41627
4.69309
4.96775
5.24012
5.51006
5.77746
6.0422
6.30418
6.56331
6.8195
7.07267
7.32275
7.56965
7.81332
8.05369
8.29069
8.52426
8.75433
8.98083
9.20368
9.42279
9.63809
9.84949
10.0569
10.2603
10.4594
10.6543
10.8446
11.0303
11.2112
11.3871
11.5578
11.7232
11.8827
12.0368
12.1809
12.328
12.4115
-6.73671
-6.74225
-6.751
-6.75875
-6.76478
-6.76976
-6.77414
-6.77817
-6.78206
-6.78599
-6.79009
-6.79448
-6.79924
-6.80444
-6.81014
-6.81639
-6.82322
-6.83066
-6.83876
-6.84753
-6.85701
-6.86721
-6.87815
-6.88985
-6.90233
-6.91559
-6.92964
-6.94448
-6.96011
-6.97653
-6.99373
-7.0117
-7.03043
-7.0499
-7.07009
-7.09097
-7.11253
-7.13473
-7.15757
-7.181
-7.20501
-7.22956
-7.25462
-7.28016
-7.30612
-7.33248
-7.35919
-7.38621
-7.41348
-7.44095
-7.46856
-7.49624
-7.52392
-7.55153
-7.57898
-7.60618
-7.63303
-7.65944
-7.68529
-7.71047
-7.73485
-7.7583
-7.78069
-7.80187
-7.82169
-7.83999
-7.85661
-7.87138
-7.88412
-7.89467
-7.90282
-7.90841
-7.91122
-7.91108
-7.90777
-7.90111
-7.89088
-7.8769
-7.85894
-7.83682
-7.81033
-7.77928
-7.74346
-7.70268
-7.65676
-7.60551
-7.54875
-7.48631
-7.41802
-7.34374
-7.26331
-7.17659
-7.08347
-6.98382
-6.87754
-6.76454
-6.64475
-6.5181
-6.38454
-6.24404
-6.0966
-5.94219
-5.78085
-5.61259
-5.43748
-5.25557
-5.06695
-4.87173
-4.67002
-4.46197
-4.24772
-4.02745
-3.80135
-3.56962
-3.33248
-3.09015
-2.84289
-2.59094
-2.33457
-2.07407
-1.80971
-1.54179
-1.27059
-0.99643
-0.719593
-0.440381
-0.159089
0.123975
0.408525
0.694274
0.98098
1.26838
1.55617
1.84406
2.13181
2.41915
2.70586
2.9917
3.27644
3.55988
3.84184
4.12212
4.40055
4.67699
4.95126
5.22325
5.49282
5.75984
6.02423
6.28587
6.54467
6.80054
7.05341
7.3032
7.54984
7.79326
8.0334
8.27019
8.50357
8.73347
8.95983
9.18256
9.40158
9.61682
9.8282
10.0356
10.239
10.4382
10.6331
10.8236
11.0094
11.1903
11.3662
11.5368
11.7019
11.8607
12.0135
12.1554
12.3002
12.3776
-6.74238
-6.74785
-6.75645
-6.7642
-6.77038
-6.77558
-6.78022
-6.78452
-6.78869
-6.79289
-6.79726
-6.8019
-6.80691
-6.81235
-6.81827
-6.82473
-6.83176
-6.8394
-6.84767
-6.85662
-6.86625
-6.87659
-6.88767
-6.89949
-6.91206
-6.9254
-6.93952
-6.95441
-6.97008
-6.98651
-7.00372
-7.02168
-7.04039
-7.05983
-7.07999
-7.10084
-7.12236
-7.14455
-7.16736
-7.19079
-7.2148
-7.23937
-7.26445
-7.29002
-7.31604
-7.34246
-7.36925
-7.39635
-7.42373
-7.45132
-7.47906
-7.50689
-7.53473
-7.56251
-7.59014
-7.61753
-7.64457
-7.67118
-7.69723
-7.7226
-7.74718
-7.77082
-7.79339
-7.81474
-7.83471
-7.85316
-7.86991
-7.8848
-7.89766
-7.90829
-7.91651
-7.92215
-7.925
-7.92486
-7.92155
-7.91487
-7.9046
-7.89055
-7.87252
-7.8503
-7.8237
-7.79252
-7.75655
-7.71562
-7.66953
-7.6181
-7.56114
-7.4985
-7.43
-7.3555
-7.27484
-7.1879
-7.09454
-6.99464
-6.88812
-6.77487
-6.65482
-6.52792
-6.3941
-6.25335
-6.10565
-5.95098
-5.78938
-5.62088
-5.44551
-5.26336
-5.07451
-4.87906
-4.67714
-4.46888
-4.25444
-4.034
-3.80774
-3.57586
-3.3386
-3.09616
-2.84882
-2.59681
-2.34042
-2.07991
-1.81557
-1.54769
-1.27658
-1.00252
-0.725823
-0.446774
-0.165689
0.11715
0.401443
0.686923
0.973341
1.26044
1.54789
1.83544
2.12281
2.40977
2.69608
2.98149
3.26581
3.54881
3.83033
4.11016
4.38815
4.66413
4.93796
5.2095
5.47864
5.74524
6.00922
6.27046
6.52888
6.7844
7.03692
7.28639
7.53273
7.77587
8.01575
8.25231
8.48549
8.71521
8.94141
9.16401
9.38294
9.59812
9.80947
10.0169
10.2203
10.4196
10.6146
10.8051
10.991
11.172
11.3479
11.5183
11.683
11.841
11.9926
12.1325
12.2751
12.3475
-6.75022
-6.75547
-6.76368
-6.7712
-6.77733
-6.78258
-6.78732
-6.79175
-6.79607
-6.80042
-6.80494
-6.80972
-6.81486
-6.82042
-6.82645
-6.833
-6.84012
-6.84783
-6.85618
-6.86519
-6.87488
-6.88527
-6.89639
-6.90825
-6.92086
-6.93423
-6.94837
-6.96327
-6.97895
-6.99539
-7.0126
-7.03056
-7.04926
-7.0687
-7.08886
-7.10972
-7.13127
-7.15348
-7.17634
-7.19982
-7.22388
-7.24851
-7.27367
-7.29933
-7.32546
-7.35202
-7.37895
-7.40621
-7.43375
-7.46152
-7.48944
-7.51745
-7.54548
-7.57345
-7.60127
-7.62886
-7.65609
-7.68289
-7.70911
-7.73466
-7.75939
-7.78317
-7.80586
-7.82732
-7.84739
-7.86591
-7.88272
-7.89764
-7.9105
-7.92112
-7.92931
-7.93489
-7.93766
-7.93743
-7.934
-7.92717
-7.91674
-7.90251
-7.88428
-7.86185
-7.83502
-7.80359
-7.76737
-7.72616
-7.67979
-7.62806
-7.57081
-7.50786
-7.43905
-7.36422
-7.28324
-7.19597
-7.10229
-7.00206
-6.89521
-6.78163
-6.66125
-6.53402
-6.39987
-6.2588
-6.11077
-5.95579
-5.79388
-5.62507
-5.44942
-5.26698
-5.07786
-4.88215
-4.67998
-4.47149
-4.25684
-4.03621
-3.80977
-3.57775
-3.34036
-3.09783
-2.85041
-2.59836
-2.34195
-2.08146
-1.81716
-1.54936
-1.27836
-1.00444
-0.72792
-0.449089
-0.168247
0.114319
0.398312
0.683468
0.969552
1.25628
1.54332
1.83044
2.11738
2.40387
2.6897
2.97462
3.25843
3.54093
3.82192
4.10124
4.3787
4.65416
4.92748
5.19852
5.46715
5.73328
5.99679
6.25758
6.51558
6.77068
7.02282
7.27193
7.51793
7.76077
8.00037
8.23667
8.46962
8.69915
8.92518
9.14765
9.36648
9.5816
9.79292
10.0004
10.2038
10.4032
10.5983
10.7889
10.9749
11.1559
11.3317
11.502
11.6662
11.8234
11.9738
12.1118
12.2525
12.3208
-6.75976
-6.76467
-6.77231
-6.77942
-6.78533
-6.79047
-6.79516
-6.79957
-6.80388
-6.80824
-6.81276
-6.81755
-6.82268
-6.82822
-6.83423
-6.84076
-6.84785
-6.85554
-6.86386
-6.87285
-6.88251
-6.89289
-6.90398
-6.91582
-6.92841
-6.94176
-6.95588
-6.97077
-6.98643
-7.00286
-7.02006
-7.03803
-7.05675
-7.07621
-7.09641
-7.11731
-7.13891
-7.16118
-7.18411
-7.20766
-7.23182
-7.25655
-7.28184
-7.30765
-7.33394
-7.36067
-7.38778
-7.41523
-7.44296
-7.4709
-7.49901
-7.5272
-7.5554
-7.58354
-7.61153
-7.63926
-7.66664
-7.69355
-7.71989
-7.74552
-7.77032
-7.79415
-7.81687
-7.83833
-7.85838
-7.87685
-7.89359
-7.90841
-7.92115
-7.93162
-7.93965
-7.94503
-7.94759
-7.94713
-7.94344
-7.93634
-7.92562
-7.91109
-7.89254
-7.86978
-7.8426
-7.81082
-7.77423
-7.73266
-7.68591
-7.6338
-7.57616
-7.51282
-7.44361
-7.3684
-7.28703
-7.19938
-7.1053
-7.0047
-6.89746
-6.78351
-6.66276
-6.53516
-6.40067
-6.25924
-6.11088
-5.95558
-5.79335
-5.62423
-5.44828
-5.26557
-5.07618
-4.88023
-4.67783
-4.46914
-4.2543
-4.0335
-3.80693
-3.57479
-3.33731
-3.09472
-2.84726
-2.59521
-2.33883
-2.0784
-1.81421
-1.54655
-1.27571
-1.00201
-0.725742
-0.447209
-0.166681
0.115528
0.399134
0.683883
0.969548
1.2558
1.54235
1.82895
2.11535
2.40129
2.68654
2.97089
3.2541
3.536
3.81639
4.0951
4.37196
4.64683
4.91955
5.19001
5.45809
5.72367
5.98666
6.24695
6.50446
6.75912
7.01084
7.25955
7.50518
7.74768
7.98698
8.22301
8.45572
8.68504
8.9109
9.13324
9.35197
9.56704
9.77835
9.98582
10.1893
10.3888
10.5839
10.7747
10.9607
11.1418
11.3175
11.4875
11.6513
11.8078
11.957
12.0933
12.2322
12.2972
-6.77056
-6.77504
-6.78199
-6.78856
-6.7941
-6.79896
-6.80342
-6.80765
-6.81179
-6.81599
-6.82036
-6.82499
-6.82997
-6.83537
-6.84124
-6.84764
-6.8546
-6.86217
-6.87038
-6.87925
-6.88882
-6.8991
-6.91011
-6.92187
-6.93439
-6.94769
-6.96176
-6.97661
-6.99226
-7.00868
-7.02588
-7.04385
-7.06258
-7.08207
-7.1023
-7.12325
-7.1449
-7.16724
-7.19025
-7.2139
-7.23818
-7.26306
-7.28851
-7.31448
-7.34093
-7.36782
-7.3951
-7.4227
-7.45058
-7.47865
-7.50688
-7.53517
-7.56348
-7.5917
-7.61974
-7.64752
-7.67492
-7.70183
-7.72814
-7.75372
-7.77844
-7.80216
-7.82475
-7.84605
-7.86591
-7.88418
-7.90067
-7.91524
-7.9277
-7.93787
-7.94557
-7.95061
-7.95281
-7.95197
-7.9479
-7.9404
-7.92927
-7.91432
-7.89534
-7.87215
-7.84454
-7.81232
-7.77529
-7.73328
-7.68609
-7.63354
-7.57547
-7.5117
-7.44207
-7.36644
-7.28467
-7.19661
-7.10214
-7.00114
-6.89353
-6.7792
-6.6581
-6.53015
-6.39532
-6.25357
-6.10489
-5.94929
-5.78677
-5.61739
-5.44118
-5.25823
-5.06863
-4.87248
-4.66991
-4.46106
-4.2461
-4.0252
-3.79855
-3.56637
-3.32887
-3.0863
-2.8389
-2.58693
-2.33068
-2.0704
-1.80641
-1.53898
-1.26842
-0.995053
-0.719154
-0.441008
-0.160907
0.12083
0.403932
0.688182
0.973306
1.25897
1.5449
1.83088
2.11663
2.40191
2.68649
2.97015
3.25268
3.53388
3.81357
4.09158
4.36775
4.64193
4.91399
5.1838
5.45124
5.71621
5.97861
6.23835
6.49534
6.74949
7.00075
7.24903
7.49427
7.73641
7.97538
8.21113
8.44359
8.67269
8.89838
9.12059
9.33923
9.55425
9.76555
9.97305
10.1766
10.3761
10.5714
10.7623
10.9484
11.1295
11.3051
11.4749
11.6382
11.7939
11.942
12.0768
12.214
12.2764
-6.78221
-6.78623
-6.79243
-6.79834
-6.80336
-6.80777
-6.81183
-6.81568
-6.81947
-6.82333
-6.82737
-6.8317
-6.83639
-6.84152
-6.84713
-6.85329
-6.86002
-6.86738
-6.8754
-6.8841
-6.8935
-6.90364
-6.91452
-6.92617
-6.93859
-6.95179
-6.96578
-6.98057
-6.99615
-7.01252
-7.02969
-7.04764
-7.06637
-7.08586
-7.1061
-7.12708
-7.14878
-7.1712
-7.1943
-7.21806
-7.24245
-7.26744
-7.29298
-7.31905
-7.34558
-7.37254
-7.39986
-7.42749
-7.45538
-7.48344
-7.51163
-7.53988
-7.56811
-7.59624
-7.62417
-7.65181
-7.67904
-7.70576
-7.73184
-7.75717
-7.78161
-7.80502
-7.82728
-7.84823
-7.86772
-7.88559
-7.90167
-7.91581
-7.92782
-7.93754
-7.94477
-7.94934
-7.95106
-7.94973
-7.94516
-7.93716
-7.92554
-7.91009
-7.89062
-7.86693
-7.83883
-7.80612
-7.76862
-7.72614
-7.67849
-7.62549
-7.56697
-7.50277
-7.43274
-7.35671
-7.27454
-7.1861
-7.09126
-6.98992
-6.88197
-6.76732
-6.64591
-6.51767
-6.38256
-6.24055
-6.09163
-5.9358
-5.77308
-5.60351
-5.42714
-5.24404
-5.05432
-4.85807
-4.65543
-4.44654
-4.23156
-4.01067
-3.78406
-3.55195
-3.31456
-3.07213
-2.82491
-2.57316
-2.31716
-2.05717
-1.79351
-1.52645
-1.25632
-0.983414
-0.708002
-0.430373
-0.150852
0.130271
0.412748
0.696375
0.980813
1.26575
1.55095
1.83617
2.12115
2.40565
2.68944
2.9723
3.25403
3.53442
3.81332
4.09053
4.36592
4.63933
4.91064
5.17972
5.44646
5.71076
5.97251
6.23164
6.48805
6.74168
6.99243
7.24025
7.48507
7.72683
7.96546
8.20091
8.43311
8.66201
8.88753
9.10961
9.32817
9.54314
9.75445
9.96199
10.1656
10.3653
10.5607
10.7516
10.9378
11.1189
11.2945
11.464
11.6268
11.7819
11.9289
12.0622
12.1977
12.2584
-6.79488
-6.79845
-6.8039
-6.80907
-6.8134
-6.81716
-6.82057
-6.82381
-6.82701
-6.83031
-6.83384
-6.83768
-6.84191
-6.84662
-6.85184
-6.85764
-6.86405
-6.87111
-6.87884
-6.88727
-6.89643
-6.90634
-6.91701
-6.92846
-6.9407
-6.95373
-6.96757
-6.98221
-6.99765
-7.0139
-7.03095
-7.0488
-7.06744
-7.08686
-7.10706
-7.12801
-7.14969
-7.17209
-7.19516
-7.21889
-7.24323
-7.26815
-7.29361
-7.31956
-7.34596
-7.37276
-7.39991
-7.42734
-7.45499
-7.48282
-7.51075
-7.53872
-7.56666
-7.59446
-7.62203
-7.64928
-7.67609
-7.70236
-7.72797
-7.75281
-7.77674
-7.79963
-7.82134
-7.84174
-7.86066
-7.87795
-7.89346
-7.90701
-7.91844
-7.92756
-7.93421
-7.9382
-7.93934
-7.93743
-7.9323
-7.92375
-7.91158
-7.89559
-7.8756
-7.8514
-7.82281
-7.78962
-7.75166
-7.70873
-7.66065
-7.60725
-7.54835
-7.4838
-7.4134
-7.33704
-7.25455
-7.16581
-7.07069
-6.96908
-6.86089
-6.74602
-6.62441
-6.49598
-6.36071
-6.21856
-6.06952
-5.9136
-5.75081
-5.58119
-5.40479
-5.2217
-5.032
-4.83581
-4.63325
-4.42446
-4.20963
-3.98892
-3.76252
-3.53065
-3.29354
-3.05143
-2.80456
-2.5532
-2.29762
-2.03811
-1.77495
-1.50846
-1.23893
-0.966634
-0.691878
-0.414965
-0.136204
0.144138
0.425851
0.708678
0.992258
1.27631
1.56063
1.84494