/*--------------------------------*- C++ -*----------------------------------*\
  =========                 |
  \\      /  F ield         | OpenFOAM: The Open Source CFD Toolbox
   \\    /   O peration     | Website:  https://openfoam.org
    \\  /    A nd           | Version:  8
     \\/     M anipulation  |
\*---------------------------------------------------------------------------*/
FoamFile
{
    version     2.0;
    format      ascii;
    class       surfaceScalarField;
    location    "250";
    object      phi;
}
// * * * * * * * * * * * * * * * * * * * * * * * * * * * * * * * * * * * * * //

dimensions      [0 3 -1 0 0 0 0];

internalField   nonuniform List<scalar> 
24170
(
3.12901e-06
5.94006e-08
3.04663e-06
8.23777e-08
2.97354e-06
7.30902e-08
2.90491e-06
6.86292e-08
2.84059e-06
6.43226e-08
2.78327e-06
5.73132e-08
2.73396e-06
4.93129e-08
2.69202e-06
4.19374e-08
2.65637e-06
3.56546e-08
2.62595e-06
3.042e-08
2.59978e-06
2.61638e-08
2.57704e-06
2.27437e-08
2.55706e-06
1.99797e-08
2.53927e-06
1.77929e-08
2.52331e-06
1.59558e-08
2.50819e-06
1.51217e-08
2.4945e-06
1.36873e-08
1.81757e-08
2.47633e-06
3.45306e-06
2.35853e-08
3.45701e-06
7.84362e-08
3.45055e-06
7.95495e-08
3.43909e-06
8.00836e-08
3.42432e-06
7.90972e-08
3.40707e-06
7.45606e-08
3.38786e-06
6.85241e-08
3.36734e-06
6.24543e-08
3.34621e-06
5.67904e-08
3.32504e-06
5.15879e-08
3.30432e-06
4.68782e-08
3.28434e-06
4.27265e-08
3.26529e-06
3.90359e-08
3.2472e-06
3.58782e-08
3.23017e-06
3.29837e-08
3.21417e-06
3.11264e-08
3.1995e-06
2.83537e-08
2.96887e-08
3.18799e-06
3.66816e-06
1.79418e-08
3.6792e-06
6.73942e-08
3.68543e-06
7.33202e-08
3.68947e-06
7.60466e-08
3.69107e-06
7.74956e-08
3.69011e-06
7.55216e-08
3.68698e-06
7.1654e-08
3.68215e-06
6.72865e-08
3.67601e-06
6.29301e-08
3.66888e-06
5.87118e-08
3.66106e-06
5.47059e-08
3.65277e-06
5.10093e-08
3.64422e-06
4.75892e-08
3.63557e-06
4.45329e-08
3.62687e-06
4.16804e-08
3.61852e-06
3.94771e-08
3.60994e-06
3.69305e-08
3.60737e-08
3.60356e-06
3.92585e-06
1.74808e-08
3.93592e-06
5.73225e-08
3.94257e-06
6.66666e-08
3.94812e-06
7.05024e-08
3.95254e-06
7.30766e-08
3.95549e-06
7.25675e-08
3.95717e-06
6.9977e-08
3.95781e-06
6.66434e-08
3.95761e-06
6.31316e-08
3.95671e-06
5.96103e-08
3.95525e-06
5.61665e-08
3.95335e-06
5.29086e-08
3.95111e-06
4.98356e-08
3.94862e-06
4.70205e-08
3.94592e-06
4.43765e-08
3.94328e-06
4.21194e-08
3.9404e-06
3.98145e-08
3.8072e-08
3.9384e-06
4.2082e-06
1.64079e-08
4.21599e-06
4.9536e-08
4.22169e-06
6.09662e-08
4.2268e-06
6.53936e-08
4.23155e-06
6.83234e-08
4.23553e-06
6.85897e-08
4.2387e-06
6.68013e-08
4.24119e-06
6.4157e-08
4.24309e-06
6.12285e-08
4.2445e-06
5.82018e-08
4.2455e-06
5.51722e-08
4.24616e-06
5.22458e-08
4.24655e-06
4.94467e-08
4.24674e-06
4.68292e-08
4.24676e-06
4.4352e-08
4.24678e-06
4.21075e-08
4.24669e-06
3.98991e-08
3.78492e-08
4.24691e-06
4.51071e-06
1.47847e-08
4.51688e-06
4.33613e-08
4.52214e-06
5.57147e-08
4.52696e-06
6.05728e-08
4.53168e-06
6.36057e-08
4.53593e-06
6.43344e-08
4.53961e-06
6.31196e-08
4.54278e-06
6.0986e-08
4.54552e-06
5.84941e-08
4.54788e-06
5.58419e-08
4.54992e-06
5.31346e-08
4.55169e-06
5.0471e-08
4.55324e-06
4.78923e-08
4.55464e-06
4.54378e-08
4.5559e-06
4.30915e-08
4.55712e-06
4.08836e-08
4.5583e-06
3.87173e-08
3.65694e-08
4.55958e-06
4.83433e-06
1.31741e-08
4.83963e-06
3.80619e-08
4.84476e-06
5.05872e-08
4.84947e-06
5.58651e-08
4.8541e-06
5.89674e-08
4.85843e-06
6.00101e-08
4.86231e-06
5.92392e-08
4.86578e-06
5.75111e-08
4.86891e-06
5.53673e-08
4.87174e-06
5.30168e-08
4.8743e-06
5.0573e-08
4.87664e-06
4.81284e-08
4.8788e-06
4.57338e-08
4.88082e-06
4.34196e-08
4.88273e-06
4.11828e-08
4.88458e-06
3.90255e-08
4.88641e-06
3.68945e-08
3.47379e-08
4.88824e-06
5.18105e-06
1.17072e-08
5.18576e-06
3.33542e-08
5.19076e-06
4.55823e-08
5.19542e-06
5.12096e-08
5.20001e-06
5.43762e-08
5.20437e-06
5.56443e-08
5.20838e-06
5.52351e-08
5.21204e-06
5.38511e-08
5.2154e-06
5.20035e-08
5.21851e-06
4.99122e-08
5.22138e-06
4.76958e-08
5.22407e-06
4.54432e-08
5.22659e-06
4.32096e-08
5.22899e-06
4.10222e-08
5.23129e-06
3.88843e-08
5.23352e-06
3.67894e-08
5.23571e-06
3.47043e-08
3.25872e-08
5.23787e-06
5.55269e-06
1.03513e-08
5.55689e-06
2.91565e-08
5.5617e-06
4.07727e-08
5.56631e-06
4.65973e-08
5.57088e-06
4.98068e-08
5.57529e-06
5.12329e-08
5.57941e-06
5.11228e-08
5.58322e-06
5.00419e-08
5.58676e-06
4.84589e-08
5.59007e-06
4.66012e-08
5.59318e-06
4.45908e-08
5.59611e-06
4.25147e-08
5.59889e-06
4.04295e-08
5.60154e-06
3.83631e-08
5.60411e-06
3.63227e-08
5.60659e-06
3.43024e-08
5.60902e-06
3.22806e-08
3.0235e-08
5.61137e-06
5.95104e-06
9.08784e-09
5.95479e-06
2.54078e-08
5.95936e-06
3.61973e-08
5.96392e-06
4.20386e-08
5.96847e-06
4.52551e-08
5.97292e-06
4.67827e-08
5.97713e-06
4.69128e-08
5.98108e-06
4.60985e-08
5.98478e-06
4.47557e-08
5.98827e-06
4.31137e-08
5.99156e-06
4.12961e-08
5.99469e-06
3.93882e-08
5.99767e-06
3.74467e-08
6.00053e-06
3.55017e-08
6.00329e-06
3.3564e-08
6.00596e-06
3.1632e-08
6.00855e-06
2.96934e-08
2.7743e-08
6.01104e-06
6.37798e-06
7.91631e-09
6.38135e-06
2.20435e-08
6.38568e-06
3.18669e-08
6.39017e-06
3.75501e-08
6.3947e-06
4.0727e-08
6.39917e-06
4.23059e-08
6.40347e-06
4.26178e-08
6.40753e-06
4.20316e-08
6.41138e-06
4.09065e-08
6.41503e-06
3.94647e-08
6.4185e-06
3.78305e-08
6.4218e-06
3.60864e-08
6.42496e-06
3.42888e-08
6.42799e-06
3.24698e-08
6.43091e-06
3.06442e-08
6.43373e-06
2.88156e-08
6.43644e-06
2.69794e-08
2.51435e-08
6.43904e-06
5.74176e-06
6.98983e-09
5.74434e-06
1.94597e-08
5.74782e-06
2.8396e-08
5.75155e-06
3.382e-08
5.75535e-06
3.69217e-08
5.75915e-06
3.85104e-08
5.76283e-06
3.89318e-08
5.76636e-06
3.85065e-08
5.76972e-06
3.75476e-08
5.77292e-06
3.62643e-08
5.77597e-06
3.47787e-08
5.77888e-06
3.31711e-08
5.78168e-06
3.14971e-08
5.78436e-06
2.97901e-08
5.78693e-06
2.80679e-08
5.78941e-06
2.63387e-08
5.79179e-06
2.46027e-08
2.28771e-08
5.79405e-06
6.99914e-06
6.00592e-09
7.00187e-06
1.67253e-08
7.00564e-06
2.463e-08
7.00981e-06
2.96507e-08
7.01413e-06
3.25985e-08
7.01849e-06
3.41528e-08
7.02277e-06
3.46545e-08
7.0269e-06
3.4378e-08
7.03086e-06
3.35872e-08
7.03465e-06
3.2472e-08
7.03828e-06
3.11496e-08
7.04175e-06
2.96971e-08
7.04508e-06
2.81677e-08
7.04828e-06
2.65962e-08
7.05134e-06
2.5003e-08
7.05428e-06
2.34007e-08
7.05709e-06
2.17939e-08
2.02065e-08
7.05976e-06
8.53188e-06
4.97223e-09
8.53474e-06
1.3868e-08
8.53877e-06
2.05965e-08
8.54337e-06
2.50495e-08
8.54823e-06
2.77394e-08
8.55319e-06
2.91962e-08
8.55811e-06
2.97323e-08
8.56291e-06
2.95788e-08
8.56755e-06
2.89488e-08
8.57201e-06
2.80069e-08
8.5763e-06
2.6861e-08
8.58042e-06
2.55826e-08
8.58436e-06
2.42221e-08
8.58815e-06
2.28138e-08
8.59177e-06
2.13805e-08
8.59523e-06
1.99376e-08
8.59853e-06
1.84935e-08
1.70756e-08
8.60166e-06
1.04003e-05
3.89796e-09
1.04033e-05
1.09072e-08
1.04075e-05
1.63177e-08
1.04126e-05
2.00255e-08
1.0418e-05
2.23286e-08
1.04236e-05
2.36042e-08
1.04292e-05
2.41126e-08
1.04347e-05
2.40409e-08
1.04401e-05
2.35537e-08
1.04453e-05
2.27839e-08
1.04504e-05
2.18249e-08
1.04552e-05
2.074e-08
1.04599e-05
1.95747e-08
1.04643e-05
1.83613e-08
1.04686e-05
1.71227e-08
1.04726e-05
1.58761e-08
1.04765e-05
1.46316e-08
1.34175e-08
1.04802e-05
1.26779e-05
2.78805e-09
1.2681e-05
7.83759e-09
1.26855e-05
1.17923e-08
1.26909e-05
1.45735e-08
1.26969e-05
1.63393e-08
1.27032e-05
1.7329e-08
1.27096e-05
1.77324e-08
1.27159e-05
1.76886e-08
1.27222e-05
1.73151e-08
1.27283e-05
1.67097e-08
1.27341e-05
1.5945e-08
1.27398e-05
1.50728e-08
1.27452e-05
1.41305e-08
1.27505e-05
1.3146e-08
1.27554e-05
1.21401e-08
1.27602e-05
1.11292e-08
1.27647e-05
1.01233e-08
9.14904e-09
1.2769e-05
1.54543e-05
1.63186e-09
1.54576e-05
4.61339e-09
1.54624e-05
6.9633e-09
1.54683e-05
8.63451e-09
1.5475e-05
9.69895e-09
1.5482e-05
1.0282e-08
1.54893e-05
1.0493e-08
1.54965e-05
1.04158e-08
1.55037e-05
1.0121e-08
1.55108e-05
9.66849e-09
1.55176e-05
9.10497e-09
1.55242e-05
8.4653e-09
1.55306e-05
7.77568e-09
1.55367e-05
7.05643e-09
1.55425e-05
6.32337e-09
1.5548e-05
5.58954e-09
1.55533e-05
4.86292e-09
4.16628e-09
1.55583e-05
1.88389e-05
3.89432e-10
1.88424e-05
1.11044e-09
1.88477e-05
1.65763e-09
1.88543e-05
2.01835e-09
1.88618e-05
2.21077e-09
1.88698e-05
2.26287e-09
1.88781e-05
2.19647e-09
1.88865e-05
2.03135e-09
1.88948e-05
1.78771e-09
1.8903e-05
1.48402e-09
1.8911e-05
1.13572e-09
1.89187e-05
7.55679e-10
1.89261e-05
3.54911e-10
1.89332e-05
-5.71069e-11
1.894e-05
-4.72319e-10
1.89465e-05
-8.83406e-10
1.89526e-05
-1.28617e-09
-1.66341e-09
1.89585e-05
2.29648e-05
-1.04029e-09
2.29688e-05
-2.96016e-09
2.2975e-05
-4.54378e-09
2.29828e-05
-5.75067e-09
2.29916e-05
-6.60254e-09
2.30011e-05
-7.18552e-09
2.30109e-05
-7.58697e-09
2.30207e-05
-7.86144e-09
2.30306e-05
-8.04562e-09
2.30402e-05
-8.17059e-09
2.30496e-05
-8.26007e-09
2.30587e-05
-8.32837e-09
2.30675e-05
-8.38344e-09
2.30758e-05
-8.42945e-09
2.30838e-05
-8.4685e-09
2.30914e-05
-8.50063e-09
2.30987e-05
-8.5266e-09
-8.53591e-09
2.31056e-05
1.68118e-05
-2.1625e-09
1.6815e-05
-6.12968e-09
1.68198e-05
-9.3708e-09
1.68258e-05
-1.1744e-08
1.68325e-05
-1.3309e-08
1.68396e-05
-1.42937e-08
1.68469e-05
-1.48854e-08
1.68543e-05
-1.51881e-08
1.68615e-05
-1.52804e-08
1.68686e-05
-1.52346e-08
1.68754e-05
-1.51031e-08
1.6882e-05
-1.4919e-08
1.68883e-05
-1.47028e-08
1.68943e-05
-1.44686e-08
1.69001e-05
-1.42248e-08
1.69056e-05
-1.39762e-08
1.69108e-05
-1.37262e-08
-1.34684e-08
1.69157e-05
1.46356e-05
-3.24029e-09
1.46387e-05
-9.21527e-09
1.46434e-05
-1.40824e-08
1.46492e-05
-1.74838e-08
1.46555e-05
-1.9591e-08
1.4662e-05
-2.08537e-08
1.46687e-05
-2.15418e-08
1.46753e-05
-2.17914e-08
1.46817e-05
-2.17335e-08
1.4688e-05
-2.14845e-08
1.4694e-05
-2.11201e-08
1.46998e-05
-2.06848e-08
1.47053e-05
-2.0209e-08
1.47105e-05
-1.97136e-08
1.47155e-05
-1.92122e-08
1.47202e-05
-1.8712e-08
1.47247e-05
-1.82182e-08
-1.77267e-08
1.4729e-05
1.27411e-05
-4.24958e-09
1.27443e-05
-1.23417e-08
1.27491e-05
-1.89105e-08
1.27547e-05
-2.31264e-08
1.27607e-05
-2.55673e-08
1.27669e-05
-2.70071e-08
1.2773e-05
-2.77083e-08
1.27791e-05
-2.78204e-08
1.27849e-05
-2.75505e-08
1.27905e-05
-2.70638e-08
1.27958e-05
-2.645e-08
1.28009e-05
-2.57605e-08
1.28057e-05
-2.50325e-08
1.28103e-05
-2.42916e-08
1.28146e-05
-2.35533e-08
1.28187e-05
-2.28259e-08
1.28226e-05
-2.21143e-08
-2.14157e-08
1.28263e-05
1.10918e-05
-5.09286e-09
1.1095e-05
-1.55625e-08
1.11001e-05
-2.40341e-08
1.11057e-05
-2.87477e-08
1.11115e-05
-3.12988e-08
1.11173e-05
-3.2816e-08
1.1123e-05
-3.34309e-08
1.11285e-05
-3.33257e-08
1.11338e-05
-3.28029e-08
1.11388e-05
-3.20597e-08
1.11435e-05
-3.11879e-08
1.1148e-05
-3.02442e-08
1.11522e-05
-2.92718e-08
1.11562e-05
-2.82991e-08
1.116e-05
-2.73415e-08
1.11636e-05
-2.64071e-08
1.1167e-05
-2.54999e-08
-2.46177e-08
1.11702e-05
9.65582e-06
-5.69947e-09
9.65924e-06
-1.89853e-08
9.66459e-06
-2.93772e-08
9.67008e-06
-3.42412e-08
9.67563e-06
-3.68528e-08
9.68119e-06
-3.83701e-08
9.68652e-06
-3.87578e-08
9.69154e-06
-3.8347e-08
9.69627e-06
-3.75405e-08
9.70075e-06
-3.65324e-08
9.70496e-06
-3.54018e-08
9.70893e-06
-3.4208e-08
9.71265e-06
-3.29987e-08
9.71616e-06
-3.18033e-08
9.71945e-06
-3.06369e-08
9.72255e-06
-2.95068e-08
9.72547e-06
-2.8415e-08
-2.73578e-08
9.72821e-06
8.40532e-06
-5.66945e-09
8.40964e-06
-2.32989e-08
8.41487e-06
-3.46099e-08
8.41989e-06
-3.92657e-08
8.42526e-06
-4.22145e-08
8.43066e-06
-4.3773e-08
8.43574e-06
-4.38376e-08
8.44044e-06
-4.30466e-08
8.4448e-06
-4.19027e-08
8.44885e-06
-4.05822e-08
8.4526e-06
-3.91546e-08
8.45608e-06
-3.76822e-08
8.45929e-06
-3.62147e-08
8.46227e-06
-3.47799e-08
8.46503e-06
-3.33928e-08
8.46758e-06
-3.20597e-08
8.46995e-06
-3.07825e-08
-2.95578e-08
8.47215e-06
7.31455e-06
-2.93103e-09
7.32119e-06
-2.99408e-08
7.32674e-06
-4.01588e-08
7.33169e-06
-4.42141e-08
7.33708e-06
-4.76082e-08
7.3424e-06
-4.90891e-08
7.34727e-06
-4.87101e-08
7.35168e-06
-4.74537e-08
7.35565e-06
-4.58745e-08
7.3592e-06
-4.41313e-08
7.36235e-06
-4.23045e-08
7.36513e-06
-4.04666e-08
7.36759e-06
-3.86703e-08
7.36975e-06
-3.69399e-08
7.37164e-06
-3.52906e-08
7.37331e-06
-3.3725e-08
7.37477e-06
-3.22436e-08
-3.08371e-08
7.37605e-06
6.36245e-06
4.68548e-09
6.37189e-06
-3.93815e-08
6.37932e-06
-4.75839e-08
6.38595e-06
-5.08522e-08
6.39223e-06
-5.38869e-08
6.39754e-06
-5.4398e-08
6.40183e-06
-5.30002e-08
6.40531e-06
-5.09292e-08
6.4081e-06
-4.86689e-08
6.41028e-06
-4.63106e-08
6.41191e-06
-4.39313e-08
6.41305e-06
-4.1608e-08
6.41377e-06
-3.93917e-08
6.41413e-06
-3.73004e-08
6.41419e-06
-3.53481e-08
6.414e-06
-3.35308e-08
6.4136e-06
-3.18495e-08
-3.02842e-08
6.41305e-06
5.5412e-06
8.94825e-09
5.55032e-06
-4.85035e-08
5.55834e-06
-5.56006e-08
5.56604e-06
-5.85519e-08
5.5725e-06
-6.03456e-08
5.57682e-06
-5.87194e-08
5.57906e-06
-5.52379e-08
5.57961e-06
-5.14844e-08
5.57886e-06
-4.7911e-08
5.57707e-06
-4.4521e-08
5.57447e-06
-4.13329e-08
5.57125e-06
-3.83897e-08
5.56756e-06
-3.56996e-08
5.56351e-06
-3.32542e-08
5.55921e-06
-3.10506e-08
5.55476e-06
-2.90719e-08
5.55023e-06
-2.73197e-08
-2.5745e-08
5.54569e-06
4.86004e-06
-2.34878e-08
4.86539e-06
-5.38451e-08
4.86524e-06
-5.5454e-08
4.86217e-06
-5.54806e-08
4.857e-06
-5.51729e-08
4.84949e-06
-5.12162e-08
4.83979e-06
-4.55384e-08
4.8284e-06
-4.00874e-08
4.81582e-06
-3.53335e-08
4.80254e-06
-3.12381e-08
4.78893e-06
-2.77301e-08
4.77529e-06
-2.47471e-08
4.7618e-06
-2.22109e-08
4.7486e-06
-2.00505e-08
4.73577e-06
-1.82198e-08
4.72338e-06
-1.66855e-08
4.71155e-06
-1.54855e-08
-1.51392e-08
4.70094e-06
4.17919e-06
4.12534e-06
4.06989e-06
4.01441e-06
3.95924e-06
3.90802e-06
3.86248e-06
3.82239e-06
3.78706e-06
3.75582e-06
3.72809e-06
3.70335e-06
3.68113e-06
3.66108e-06
3.64286e-06
3.62618e-06
3.61069e-06
3.59555e-06
1.1953e-08
-1.19545e-08
2.53373e-08
-1.33887e-08
3.4275e-08
-8.9383e-09
3.74895e-08
-3.21822e-09
3.51359e-08
2.35403e-09
2.80531e-08
7.07968e-09
1.733e-08
1.0725e-08
3.94052e-09
1.33874e-08
-1.13912e-08
1.53342e-08
-2.82185e-08
1.68264e-08
-4.62436e-08
1.80275e-08
-6.53041e-08
1.90608e-08
-8.53054e-08
2.00033e-08
-1.06197e-07
2.08932e-08
-1.27942e-07
2.17461e-08
-1.50505e-07
2.25659e-08
-1.73856e-07
2.33511e-08
-1.97951e-07
2.40983e-08
-2.22754e-07
2.48031e-08
-2.48212e-07
2.54628e-08
-2.74287e-07
2.60753e-08
-3.00927e-07
2.66434e-08
-3.28101e-07
2.71743e-08
-3.55785e-07
2.76871e-08
-3.83998e-07
2.82121e-08
-4.1279e-07
2.87954e-08
-4.42296e-07
2.9506e-08
-4.72693e-07
3.04007e-08
-5.04149e-07
3.14556e-08
-5.36906e-07
3.27629e-08
-5.71404e-07
3.4498e-08
-6.06159e-07
3.47629e-08
-6.38779e-07
3.26208e-08
-6.71544e-07
3.27731e-08
-7.07701e-07
3.6154e-08
-7.48437e-07
4.07402e-08
-7.96628e-07
4.81858e-08
-8.41782e-07
4.51526e-08
-8.7992e-07
3.81301e-08
-9.15126e-07
3.52019e-08
-9.62152e-07
4.70202e-08
-1.01234e-06
5.01796e-08
-1.05006e-06
3.77215e-08
-1.0906e-06
4.05344e-08
-1.13282e-06
4.22163e-08
-1.17588e-06
4.30559e-08
-1.21931e-06
4.34276e-08
-1.26286e-06
4.35547e-08
-1.30641e-06
4.35417e-08
-1.34985e-06
4.34439e-08
-1.39315e-06
4.32925e-08
-1.43625e-06
4.31044e-08
-1.47915e-06
4.28894e-08
-1.5218e-06
4.26526e-08
-1.5642e-06
4.23967e-08
-1.60633e-06
4.21224e-08
-1.64816e-06
4.18296e-08
-1.68968e-06
4.15173e-08
-1.73086e-06
4.11841e-08
-1.77169e-06
4.08281e-08
-1.81214e-06
4.04476e-08
-1.85219e-06
4.00406e-08
-1.89179e-06
3.96051e-08
-1.93094e-06
3.9139e-08
-1.96958e-06
3.86405e-08
-2.00769e-06
3.81078e-08
-2.04523e-06
3.75392e-08
-2.08216e-06
3.69332e-08
-2.11845e-06
3.62886e-08
-2.15406e-06
3.5604e-08
-2.18893e-06
3.48785e-08
-2.22305e-06
3.41111e-08
-2.25635e-06
3.33009e-08
-2.2888e-06
3.24475e-08
-2.32035e-06
3.15503e-08
-2.35096e-06
3.06091e-08
-2.38058e-06
2.96238e-08
-2.40918e-06
2.85943e-08
-2.4367e-06
2.75209e-08
-2.4631e-06
2.64037e-08
-2.48835e-06
2.52429e-08
-2.51239e-06
2.40388e-08
-2.53518e-06
2.27916e-08
-2.55668e-06
2.15013e-08
-2.57685e-06
2.01683e-08
-2.59564e-06
1.87925e-08
-2.61302e-06
1.73739e-08
-2.62893e-06
1.59111e-08
-2.64333e-06
1.44022e-08
-2.65617e-06
1.2843e-08
-2.6674e-06
1.12279e-08
-2.67695e-06
9.54972e-09
-2.68475e-06
7.79989e-09
-2.69072e-06
5.96599e-09
-2.69475e-06
4.03219e-09
-2.69675e-06
1.99922e-09
-2.69671e-06
-4.89188e-11
-2.6948e-06
-1.90666e-09
-2.69123e-06
-3.57267e-09
-2.68604e-06
-5.19791e-09
-2.67923e-06
-6.81093e-09
-2.6708e-06
-8.4253e-09
-2.66076e-06
-1.00423e-08
-2.6491e-06
-1.16614e-08
-2.63582e-06
-1.32806e-08
-2.62092e-06
-1.48978e-08
-2.6044e-06
-1.65108e-08
-2.58628e-06
-1.81167e-08
-2.56656e-06
-1.97136e-08
-2.54526e-06
-2.12984e-08
-2.52239e-06
-2.28692e-08
-2.49796e-06
-2.44228e-08
-2.472e-06
-2.59574e-08
-2.44452e-06
-2.74699e-08
-2.41556e-06
-2.89588e-08
-2.38513e-06
-3.04211e-08
-2.35327e-06
-3.18551e-08
-2.32001e-06
-3.32576e-08
-2.28538e-06
-3.46272e-08
-2.24942e-06
-3.59613e-08
-2.21216e-06
-3.72589e-08
-2.17364e-06
-3.85174e-08
-2.1339e-06
-3.97361e-08
-2.09298e-06
-4.09123e-08
-2.05093e-06
-4.20462e-08
-2.0078e-06
-4.31361e-08
-1.96362e-06
-4.41838e-08
-1.91843e-06
-4.51882e-08
-1.87229e-06
-4.61524e-08
-1.82522e-06
-4.7077e-08
-1.77727e-06
-4.79519e-08
-1.72851e-06
-4.87722e-08
-1.67897e-06
-4.95451e-08
-1.6287e-06
-5.02747e-08
-1.57774e-06
-5.09582e-08
-1.52614e-06
-5.15962e-08
-1.47395e-06
-5.21874e-08
-1.4212e-06
-5.27332e-08
-1.36795e-06
-5.32332e-08
-1.31423e-06
-5.36915e-08
-1.26008e-06
-5.41107e-08
-1.20555e-06
-5.44937e-08
-1.15066e-06
-5.48424e-08
-1.09546e-06
-5.51577e-08
-1.03996e-06
-5.54408e-08
-9.84215e-07
-5.5693e-08
-9.28241e-07
-5.59167e-08
-8.72066e-07
-5.61136e-08
-8.15718e-07
-5.62864e-08
-7.59215e-07
-5.64365e-08
-7.02582e-07
-5.65668e-08
-6.45832e-07
-5.66789e-08
-5.88986e-07
-5.67756e-08
-5.32053e-07
-5.68583e-08
-4.75049e-07
-5.693e-08
-4.1798e-07
-5.69915e-08
-3.60857e-07
-5.70465e-08
-3.03682e-07
-5.70951e-08
-2.46467e-07
-5.71373e-08
-1.89203e-07
-5.71832e-08
-1.31907e-07
-5.7219e-08
-7.46132e-08
-5.7214e-08
-1.74643e-08
-5.70743e-08
3.95272e-08
-5.69163e-08
9.64842e-08
-5.689e-08
1.53464e-07
-5.69144e-08
2.10509e-07
-5.69874e-08
2.67675e-07
-5.71112e-08
3.24994e-07
-5.72717e-08
3.82482e-07
-5.74437e-08
4.40121e-07
-5.76022e-08
4.97861e-07
-5.77068e-08
5.55594e-07
-5.7707e-08
6.13127e-07
-5.751e-08
6.70103e-07
-5.69611e-08
7.25853e-07
-5.57398e-08
7.78984e-07
-5.31275e-08
8.26256e-07
-4.72713e-08
8.59289e-07
-3.30352e-08
1.44434e-08
8.44851e-07
8.73888e-09
-2.06946e-08
1.0916e-08
-1.55684e-08
8.35968e-09
-6.38241e-09
2.60874e-09
2.53114e-09
-5.71798e-09
1.06808e-08
-1.64696e-08
1.78302e-08
-2.95932e-08
2.38491e-08
-4.49638e-08
2.87573e-08
-6.23372e-08
3.27085e-08
-8.14306e-08
3.59197e-08
-1.02007e-07
3.86045e-08
-1.23883e-07
4.09378e-08
-1.46924e-07
4.30452e-08
-1.71038e-07
4.5008e-08
-1.96166e-07
4.68749e-08
-2.22272e-07
4.86733e-08
-2.49339e-07
5.04184e-08
-2.77358e-07
5.21198e-08
-3.0634e-07
5.37849e-08
-3.36297e-07
5.54225e-08
-3.67265e-07
5.70439e-08
-3.99285e-07
5.86649e-08
-4.32417e-07
6.03074e-08
-4.66729e-07
6.20007e-08
-5.02298e-07
6.37802e-08
-5.3919e-07
6.56884e-08
-5.77449e-07
6.77648e-08
-6.17065e-07
7.00189e-08
-6.58027e-07
7.2417e-08
-7.0012e-07
7.4859e-08
-7.42694e-07
7.70736e-08
-7.86298e-07
7.83715e-08
-8.32538e-07
7.88619e-08
-8.79925e-07
8.01647e-08
-9.2616e-07
8.23883e-08
-9.70307e-07
8.48884e-08
-1.00937e-06
8.72503e-08
-1.05089e-06
8.66688e-08
-1.09741e-06
8.46412e-08
-1.14659e-06
8.43858e-08
-1.18625e-06
8.6675e-08
-1.22368e-06
8.76012e-08
-1.27053e-06
8.45756e-08
-1.31385e-06
8.38522e-08
-1.35529e-06
8.36524e-08
-1.39572e-06
8.34847e-08
-1.43553e-06
8.3231e-08
-1.47486e-06
8.28901e-08
-1.5138e-06
8.24769e-08
-1.55236e-06
8.20078e-08
-1.59057e-06
8.1495e-08
-1.62841e-06
8.09467e-08
-1.66589e-06
8.03672e-08
-1.703e-06
7.97584e-08
-1.73972e-06
7.91202e-08
-1.77605e-06
7.8451e-08
-1.81197e-06
7.77484e-08
-1.84747e-06
7.70095e-08
-1.88252e-06
7.62307e-08
-1.9171e-06
7.54086e-08
-1.95119e-06
7.45394e-08
-1.98477e-06
7.36196e-08
-2.01781e-06
7.26456e-08
-2.05029e-06
7.16139e-08
-2.08217e-06
7.05215e-08
-2.11343e-06
6.93653e-08
-2.14403e-06
6.81426e-08
-2.17395e-06
6.6851e-08
-2.20315e-06
6.54883e-08
-2.2316e-06
6.40527e-08
-2.25927e-06
6.25424e-08
-2.28611e-06
6.09562e-08
-2.3121e-06
5.92929e-08
-2.33721e-06
5.75517e-08
-2.36139e-06
5.5732e-08
-2.38462e-06
5.38335e-08
-2.40685e-06
5.18562e-08
-2.42806e-06
4.98003e-08
-2.4482e-06
4.7666e-08
-2.46725e-06
4.54538e-08
-2.48517e-06
4.31644e-08
-2.50193e-06
4.07985e-08
-2.5175e-06
3.83568e-08
-2.53184e-06
3.58403e-08
-2.54492e-06
3.32499e-08
-2.55671e-06
3.05865e-08
-2.56719e-06
2.78511e-08
-2.57633e-06
2.50441e-08
-2.58409e-06
2.2166e-08
-2.59046e-06
1.92169e-08
-2.59543e-06
1.61974e-08
-2.59899e-06
1.31097e-08
-2.60115e-06
9.95821e-09
-2.60194e-06
6.75167e-09
-2.60142e-06
3.50916e-09
-2.59969e-06
2.70273e-10
-2.59682e-06
-2.91733e-09
-2.59266e-06
-6.06919e-09
-2.58701e-06
-9.22877e-09
-2.57981e-06
-1.24004e-08
-2.57104e-06
-1.55824e-08
-2.56069e-06
-1.87756e-08
-2.54875e-06
-2.19773e-08
-2.53523e-06
-2.5184e-08
-2.52012e-06
-2.83911e-08
-2.50342e-06
-3.15942e-08
-2.48514e-06
-3.47883e-08
-2.46528e-06
-3.79687e-08
-2.44387e-06
-4.11302e-08
-2.42089e-06
-4.4268e-08
-2.39638e-06
-4.7377e-08
-2.37035e-06
-5.04522e-08
-2.34281e-06
-5.34889e-08
-2.3138e-06
-5.64821e-08
-2.28333e-06
-5.94275e-08
-2.25142e-06
-6.23203e-08
-2.21812e-06
-6.51563e-08
-2.18345e-06
-6.79305e-08
-2.14743e-06
-7.06391e-08
-2.11011e-06
-7.3278e-08
-2.07153e-06
-7.58439e-08
-2.03171e-06
-7.8333e-08
-1.9907e-06
-8.07425e-08
-1.94854e-06
-8.3069e-08
-1.90528e-06
-8.5311e-08
-1.86095e-06
-8.74666e-08
-1.81559e-06
-8.95368e-08
-1.76926e-06
-9.15225e-08
-1.72199e-06
-9.34274e-08
-1.67382e-06
-9.52508e-08
-1.6248e-06
-9.69797e-08
-1.57497e-06
-9.86052e-08
-1.52438e-06
-1.00139e-07
-1.47307e-06
-1.01586e-07
-1.42108e-06
-1.02942e-07
-1.36847e-06
-1.04209e-07
-1.31527e-06
-1.05385e-07
-1.26152e-06
-1.06472e-07
-1.20727e-06
-1.07473e-07
-1.15255e-06
-1.08391e-07
-1.0974e-06
-1.09234e-07
-1.04187e-06
-1.10004e-07
-9.8598e-07
-1.10707e-07
-9.29766e-07
-1.11344e-07
-8.73259e-07
-1.11919e-07
-8.16485e-07
-1.12434e-07
-7.59475e-07
-1.12895e-07
-7.0225e-07
-1.13304e-07
-6.44834e-07
-1.13667e-07
-5.87247e-07
-1.13986e-07
-5.29509e-07
-1.14268e-07
-4.71632e-07
-1.14516e-07
-4.13633e-07
-1.14736e-07
-3.5552e-07
-1.14929e-07
-2.97305e-07
-1.15104e-07
-2.38991e-07
-1.15262e-07
-1.80586e-07
-1.15409e-07
-1.2209e-07
-1.15547e-07
-6.35096e-08
-1.15676e-07
-4.8626e-09
-1.15787e-07
5.38447e-08
-1.15885e-07
1.12644e-07
-1.15973e-07
1.71624e-07
-1.16016e-07
2.30784e-07
-1.16039e-07
2.90037e-07
-1.16109e-07
3.49393e-07
-1.16237e-07
4.08876e-07
-1.16439e-07
4.68501e-07
-1.16708e-07
5.28274e-07
-1.17018e-07
5.88182e-07
-1.17329e-07
6.48189e-07
-1.17589e-07
7.08226e-07
-1.17727e-07
7.68167e-07
-1.17635e-07
8.27806e-07
-1.17139e-07
8.86781e-07
-1.15929e-07
9.44476e-07
-1.13433e-07
9.99713e-07
-1.08365e-07
1.05066e-06
-9.8224e-08
1.09346e-06
-7.58388e-08
-2.10248e-08
1.12892e-06
-7.01925e-10
-1.99934e-08
-7.63225e-09
-8.63949e-09
-1.71135e-08
3.0987e-09
-2.82116e-08
1.36284e-08
-4.06363e-08
2.31055e-08
-5.43788e-08
3.15721e-08
-6.9543e-08
3.90136e-08
-8.62327e-08
4.54466e-08
-1.04481e-07
5.0957e-08
-1.24249e-07
5.56876e-08
-1.45449e-07
5.98051e-08
-1.67979e-07
6.3468e-08
-1.91741e-07
6.68085e-08
-2.16659e-07
6.99266e-08
-2.42677e-07
7.28933e-08
-2.6976e-07
7.57568e-08
-2.97891e-07
7.85499e-08
-3.27066e-07
8.12963e-08
-3.57295e-07
8.40149e-08
-3.88595e-07
8.67231e-08
-4.20989e-07
8.94385e-08
-4.54502e-07
9.2179e-08
-4.89157e-07
9.4963e-08
-5.24962e-07
9.78069e-08
-5.61904e-07
1.00722e-07
-5.9992e-07
1.03704e-07
-6.38882e-07
1.06727e-07
-6.78598e-07
1.09735e-07
-7.18812e-07
1.12631e-07
-7.5922e-07
1.15269e-07
-7.99612e-07
1.17466e-07
-8.40282e-07
1.19045e-07
-8.81514e-07
1.20095e-07
-9.2251e-07
1.21162e-07
-9.62478e-07
1.22357e-07
-1.00093e-06
1.23336e-07
-1.03767e-06
1.23993e-07
-1.07486e-06
1.23854e-07
-1.11338e-06
1.23163e-07
-1.15175e-06
1.22757e-07
-1.18785e-06
1.2277e-07
-1.22281e-06
1.22555e-07
-1.25964e-06
1.21412e-07
-1.29623e-06
1.20433e-07
-1.33222e-06
1.19642e-07
-1.36767e-06
1.18939e-07
-1.4027e-06
1.18257e-07
-1.43737e-06
1.17564e-07
-1.47174e-06
1.16846e-07
-1.50583e-06
1.16098e-07
-1.53966e-06
1.15319e-07
-1.57322e-06
1.14506e-07
-1.60651e-06
1.13659e-07
-1.63953e-06
1.12775e-07
-1.67226e-06
1.11851e-07
-1.70469e-06
1.10881e-07
-1.73681e-06
1.09863e-07
-1.76859e-06
1.08789e-07
-1.80002e-06
1.07657e-07
-1.83107e-06
1.06459e-07
-1.86172e-06
1.05191e-07
-1.89195e-06
1.03849e-07
-1.92173e-06
1.02426e-07
-1.95104e-06
1.00918e-07
-1.97984e-06
9.93211e-08
-2.0081e-06
9.76311e-08
-2.03581e-06
9.5844e-08
-2.06291e-06
9.39568e-08
-2.08939e-06
9.19662e-08
-2.11521e-06
8.98698e-08
-2.14033e-06
8.76653e-08
-2.16473e-06
8.53509e-08
-2.18836e-06
8.29249e-08
-2.21119e-06
8.03864e-08
-2.2332e-06
7.77345e-08
-2.25433e-06
7.49689e-08
-2.27457e-06
7.20895e-08
-2.29386e-06
6.90966e-08
-2.31219e-06
6.59908e-08
-2.32951e-06
6.27728e-08
-2.34579e-06
5.94438e-08
-2.36099e-06
5.6005e-08
-2.3751e-06
5.24581e-08
-2.38806e-06
4.88049e-08
-2.39986e-06
4.50476e-08
-2.41046e-06
4.11883e-08
-2.41984e-06
3.72298e-08
-2.42797e-06
3.31748e-08
-2.43483e-06
2.90268e-08
-2.4404e-06
2.47896e-08
-2.44467e-06
2.04686e-08
-2.44764e-06
1.60713e-08
-2.44929e-06
1.16078e-08
-2.44963e-06
7.09196e-09
-2.44866e-06
2.54213e-09
-2.44637e-06
-2.01985e-09
-2.44271e-06
-6.58552e-09
-2.4376e-06
-1.1176e-08
-2.43102e-06
-1.58084e-08
-2.42295e-06
-2.04764e-08
-2.41336e-06
-2.51726e-08
-2.40224e-06
-2.98907e-08
-2.3896e-06
-3.46241e-08
-2.37541e-06
-3.93658e-08
-2.3597e-06
-4.41089e-08
-2.34244e-06
-4.88463e-08
-2.32366e-06
-5.35705e-08
-2.30335e-06
-5.82744e-08
-2.28153e-06
-6.29502e-08
-2.2582e-06
-6.75907e-08
-2.23339e-06
-7.21885e-08
-2.2071e-06
-7.67363e-08
-2.17936e-06
-8.12268e-08
-2.15019e-06
-8.5653e-08
-2.11961e-06
-9.0008e-08
-2.08764e-06
-9.42853e-08
-2.05431e-06
-9.8478e-08
-2.01966e-06
-1.0258e-07
-1.98372e-06
-1.06585e-07
-1.94651e-06
-1.10487e-07
-1.90807e-06
-1.14281e-07
-1.86844e-06
-1.17962e-07
-1.82765e-06
-1.21525e-07
-1.78575e-06
-1.24966e-07
-1.74278e-06
-1.28282e-07
-1.69878e-06
-1.31471e-07
-1.65378e-06
-1.34534e-07
-1.60784e-06
-1.37471e-07
-1.56098e-06
-1.40287e-07
-1.51325e-06
-1.4298e-07
-1.4647e-06
-1.45537e-07
-1.41536e-06
-1.4795e-07
-1.36527e-06
-1.50227e-07
-1.31449e-06
-1.52375e-07
-1.26304e-06
-1.5439e-07
-1.21098e-06
-1.56272e-07
-1.15833e-06
-1.58024e-07
-1.10515e-06
-1.59646e-07
-1.05147e-06
-1.61144e-07
-9.97333e-07
-1.62522e-07
-9.42766e-07
-1.63789e-07
-8.87809e-07
-1.64949e-07
-8.32494e-07
-1.6601e-07
-7.7685e-07
-1.66975e-07
-7.20907e-07
-1.67849e-07
-6.6469e-07
-1.68638e-07
-6.08225e-07
-1.69346e-07
-5.51535e-07
-1.69981e-07
-4.94639e-07
-1.70548e-07
-4.37558e-07
-1.71054e-07
-3.80307e-07
-1.71505e-07
-3.22902e-07
-1.71908e-07
-2.65353e-07
-1.7227e-07
-2.07672e-07
-1.72597e-07
-1.49865e-07
-1.72898e-07
-9.19388e-08
-1.73176e-07
-3.38981e-08
-1.73437e-07
2.42508e-08
-1.73684e-07
8.25083e-08
-1.73922e-07
1.40884e-07
-1.74152e-07
1.9939e-07
-1.74381e-07
2.58036e-07
-1.7461e-07
3.16858e-07
-1.74828e-07
3.75875e-07
-1.75048e-07
4.35073e-07
-1.75298e-07
4.94441e-07
-1.75598e-07
5.53975e-07
-1.75966e-07
6.13667e-07
-1.76394e-07
6.73505e-07
-1.76849e-07
7.33463e-07
-1.77281e-07
7.93496e-07
-1.77617e-07
8.53527e-07
-1.77753e-07
9.13428e-07
-1.77531e-07
9.72996e-07
-1.76703e-07
1.03191e-06
-1.74839e-07
1.08965e-06
-1.71174e-07
1.14545e-06
-1.64157e-07
1.19822e-06
-1.51e-07
1.24734e-06
-1.24954e-07
-7.1512e-08
1.29783e-06
-8.88385e-09
-1.11099e-08
-2.17598e-08
4.23555e-09
-3.58506e-08
1.71895e-08
-5.06694e-08
2.84467e-08
-6.6151e-08
3.85872e-08
-8.23724e-08
4.77931e-08
-9.94712e-08
5.61126e-08
-1.17595e-07
6.35705e-08
-1.36857e-07
7.02194e-08
-1.57319e-07
7.61496e-08
-1.78991e-07
8.14774e-08
-2.01849e-07
8.63263e-08
-2.25851e-07
9.08107e-08
-2.50951e-07
9.50272e-08
-2.77109e-07
9.90513e-08
-3.04291e-07
1.02939e-07
-3.32473e-07
1.06732e-07
-3.61634e-07
1.10459e-07
-3.9176e-07
1.14141e-07
-4.22831e-07
1.17794e-07
-4.54822e-07
1.2143e-07
-4.87695e-07
1.25054e-07
-5.21399e-07
1.28666e-07
-5.5585e-07
1.32258e-07
-5.90936e-07
1.35808e-07
-6.2651e-07
1.39277e-07
-6.6239e-07
1.42607e-07
-6.98378e-07
1.45723e-07
-7.34286e-07
1.48538e-07
-7.69965e-07
1.50949e-07
-8.05363e-07
1.52864e-07
-8.40558e-07
1.54242e-07
-8.75639e-07
1.55176e-07
-9.10355e-07
1.5588e-07
-9.44438e-07
1.56439e-07
-9.77883e-07
1.56782e-07
-1.01077e-06
1.5688e-07
-1.04358e-06
1.56664e-07
-1.0766e-06
1.56182e-07
-1.10945e-06
1.55602e-07
-1.14167e-06
1.54988e-07
-1.1734e-06
1.54283e-07
-1.20535e-06
1.5336e-07
-1.23731e-06
1.52397e-07
-1.26913e-06
1.51461e-07
-1.30075e-06
1.50555e-07
-1.33215e-06
1.49661e-07
-1.36335e-06
1.48764e-07
-1.39436e-06
1.47853e-07
-1.42518e-06
1.46919e-07
-1.45582e-06
1.45955e-07
-1.48627e-06
1.44954e-07
-1.51652e-06
1.43912e-07
-1.54657e-06
1.42822e-07
-1.5764e-06
1.41679e-07
-1.60599e-06
1.40475e-07
-1.63533e-06
1.39204e-07
-1.6644e-06
1.37859e-07
-1.69318e-06
1.36434e-07
-1.72164e-06
1.34921e-07
-1.74977e-06
1.33315e-07
-1.77753e-06
1.31608e-07
-1.8049e-06
1.29794e-07
-1.83185e-06
1.27868e-07
-1.85835e-06
1.25823e-07
-1.88438e-06
1.23656e-07
-1.90989e-06
1.21361e-07
-1.93487e-06
1.18934e-07
-1.95928e-06
1.16372e-07
-1.98308e-06
1.1367e-07
-2.00624e-06
1.10827e-07
-2.02873e-06
1.0784e-07
-2.05051e-06
1.04707e-07
-2.07155e-06
1.01426e-07
-2.09181e-06
9.79979e-08
-2.11127e-06
9.44207e-08
-2.12987e-06
9.0695e-08
-2.1476e-06
8.68211e-08
-2.1644e-06
8.27998e-08
-2.18026e-06
7.86323e-08
-2.19514e-06
7.43204e-08
-2.209e-06
6.98659e-08
-2.22182e-06
6.52714e-08
-2.23355e-06
6.05396e-08
-2.24418e-06
5.56737e-08
-2.25367e-06
5.06776e-08
-2.26199e-06
4.55553e-08
-2.26913e-06
4.03117e-08
-2.27505e-06
3.49522e-08
-2.27975e-06
2.94834e-08
-2.28319e-06
2.39127e-08
-2.28537e-06
1.82496e-08
-2.28627e-06
1.25051e-08
-2.28587e-06
6.69189e-09
-2.28415e-06
8.23376e-10
-2.28108e-06
-5.08938e-09
-2.27663e-06
-1.10453e-08
-2.27075e-06
-1.70542e-08
-2.26344e-06
-2.31208e-08
-2.25468e-06
-2.92377e-08
-2.24446e-06
-3.53953e-08
-2.23276e-06
-4.15839e-08
-2.21959e-06
-4.77941e-08
-2.20494e-06
-5.40162e-08
-2.18881e-06
-6.02406e-08
-2.17119e-06
-6.64578e-08
-2.15211e-06
-7.26579e-08
-2.13155e-06
-7.88312e-08
-2.10953e-06
-8.49678e-08
-2.08606e-06
-9.10581e-08
-2.06115e-06
-9.70921e-08
-2.03483e-06
-1.0306e-07
-2.0071e-06
-1.08953e-07
-1.97799e-06
-1.14762e-07
-1.94752e-06
-1.20477e-07
-1.91571e-06
-1.2609e-07
-1.88259e-06