/*--------------------------------*- C++ -*----------------------------------*\
  =========                 |
  \\      /  F ield         | OpenFOAM: The Open Source CFD Toolbox
   \\    /   O peration     | Website:  https://openfoam.org
    \\  /    A nd           | Version:  8
     \\/     M anipulation  |
\*---------------------------------------------------------------------------*/
FoamFile
{
    version     2.0;
    format      ascii;
    class       volVectorField;
    location    "250";
    object      U;
}
// * * * * * * * * * * * * * * * * * * * * * * * * * * * * * * * * * * * * * //

dimensions      [0 1 -1 0 0 0 0];

internalField   nonuniform List<vector> 
12225
(
(9.85697 -0.886451 0)
(9.66665 -0.740745 0)
(9.45572 -0.429483 0)
(9.22455 -0.222213 0)
(9.00653 -0.10646 0)
(8.81443 -0.0458728 0)
(8.64757 -0.0151771 0)
(8.5054 0.000444135 0)
(8.38378 0.00838323 0)
(8.28105 0.0122671 0)
(8.1927 0.0139857 0)
(8.11659 0.0149722 0)
(8.04992 0.0153322 0)
(7.99103 0.0155624 0)
(7.93799 0.0154965 0)
(7.89173 0.0156371 0)
(7.83866 0.0160743 0)
(7.82911 0.00950441 0)
(10.0545 0.22757 0)
(10.121 0.326909 0)
(10.1196 0.261571 0)
(10.0856 0.186538 0)
(10.0434 0.134665 0)
(9.99675 0.10111 0)
(9.94404 0.0792776 0)
(9.88532 0.0645565 0)
(9.82398 0.0542461 0)
(9.76149 0.0466559 0)
(9.70006 0.0408823 0)
(9.64027 0.0363297 0)
(9.58304 0.032661 0)
(9.52872 0.029771 0)
(9.47697 0.0272716 0)
(9.42957 0.0262996 0)
(9.38204 0.0234589 0)
(9.34792 0.0319107 0)
(10.0035 0.0579187 0)
(10.0303 0.0560072 0)
(10.0561 0.0337785 0)
(10.0703 0.0328945 0)
(10.077 0.0406417 0)
(10.0779 0.046537 0)
(10.0726 0.0493491 0)
(10.0615 0.0502912 0)
(10.0462 0.050185 0)
(10.0278 0.0494663 0)
(10.0073 0.0484163 0)
(9.98518 0.0472424 0)
(9.9621 0.0460438 0)
(9.93853 0.0449567 0)
(9.91471 0.0438689 0)
(9.89146 0.0434011 0)
(9.86829 0.0423372 0)
(9.84652 0.0441107 0)
(9.99779 0.0110536 0)
(10.011 0.0266082 0)
(10.035 0.0371493 0)
(10.0525 0.048083 0)
(10.0644 0.0554474 0)
(10.0734 0.0581771 0)
(10.0795 0.0583434 0)
(10.0825 0.0575977 0)
(10.0829 0.0565441 0)
(10.0814 0.0553422 0)
(10.0783 0.0540629 0)
(10.074 0.0528222 0)
(10.0686 0.0516158 0)
(10.0626 0.0505459 0)
(10.0559 0.0495085 0)
(10.0491 0.0488808 0)
(10.0421 0.0479681 0)
(10.0351 0.0480037 0)
(9.99935 0.00719807 0)
(10.009 0.0316541 0)
(10.0275 0.0439204 0)
(10.0418 0.0499191 0)
(10.0528 0.0536053 0)
(10.0629 0.0552268 0)
(10.0716 0.0555026 0)
(10.0784 0.0552084 0)
(10.0835 0.0546594 0)
(10.0874 0.0539484 0)
(10.0902 0.0531303 0)
(10.0922 0.0522986 0)
(10.0934 0.0514687 0)
(10.0941 0.0507127 0)
(10.0943 0.0499828 0)
(10.0943 0.0494532 0)
(10.0942 0.0487996 0)
(10.0941 0.0483975 0)
(10.0003 0.00917826 0)
(10.0083 0.0311693 0)
(10.0227 0.0409408 0)
(10.035 0.0453877 0)
(10.0451 0.0490292 0)
(10.0548 0.0513603 0)
(10.0638 0.0523363 0)
(10.0715 0.0525638 0)
(10.078 0.0524226 0)
(10.0835 0.0520504 0)
(10.0884 0.0515232 0)
(10.0926 0.0509273 0)
(10.0963 0.0502978 0)
(10.0995 0.0496854 0)
(10.1024 0.049073 0)
(10.1052 0.0485287 0)
(10.1078 0.0479024 0)
(10.1105 0.04723 0)
(10.0005 0.0089446 0)
(10.0071 0.0270843 0)
(10.0191 0.036409 0)
(10.0302 0.0413833 0)
(10.0396 0.0454026 0)
(10.0487 0.0480628 0)
(10.0573 0.0493254 0)
(10.065 0.0497874 0)
(10.0718 0.049851 0)
(10.0779 0.0496618 0)
(10.0835 0.0492975 0)
(10.0885 0.0488342 0)
(10.0932 0.0483143 0)
(10.0975 0.0477729 0)
(10.1015 0.0472056 0)
(10.1054 0.0466292 0)
(10.1092 0.0459623 0)
(10.1129 0.0451444 0)
(10.0004 0.0079157 0)
(10.006 0.0233778 0)
(10.0161 0.0327302 0)
(10.0263 0.0380922 0)
(10.0351 0.042082 0)
(10.0436 0.0447586 0)
(10.0518 0.0461616 0)
(10.0592 0.0467854 0)
(10.066 0.0469952 0)
(10.0722 0.0469354 0)
(10.078 0.0466845 0)
(10.0833 0.0463111 0)
(10.0884 0.0458601 0)
(10.0931 0.0453575 0)
(10.0976 0.0448033 0)
(10.102 0.044192 0)
(10.1062 0.043471 0)
(10.1104 0.0425717 0)
(10.0004 0.00695993 0)
(10.0051 0.0204252 0)
(10.0137 0.0294473 0)
(10.0229 0.0348502 0)
(10.0312 0.0386949 0)
(10.0392 0.0413488 0)
(10.0469 0.0428713 0)
(10.0541 0.0436332 0)
(10.0607 0.0439581 0)
(10.0668 0.0439957 0)
(10.0726 0.0438265 0)
(10.078 0.043515 0)
(10.0832 0.0431054 0)
(10.0881 0.0426198 0)
(10.0927 0.0420595 0)
(10.0973 0.0414129 0)
(10.1017 0.0406415 0)
(10.106 0.0396965 0)
(10.0004 0.00612898 0)
(10.0043 0.0178594 0)
(10.0116 0.0262686 0)
(10.0199 0.0315687 0)
(10.0277 0.0352863 0)
(10.0351 0.0379035 0)
(10.0424 0.0395043 0)
(10.0493 0.0403678 0)
(10.0558 0.040778 0)
(10.0618 0.0408873 0)
(10.0675 0.0407772 0)
(10.0729 0.0405086 0)
(10.078 0.0401232 0)
(10.0829 0.0396424 0)
(10.0876 0.0390688 0)
(10.0922 0.0383919 0)
(10.0966 0.0375836 0)
(10.1009 0.0366181 0)
(10.0003 0.0053689 0)
(10.0037 0.0155497 0)
(10.0099 0.0232294 0)
(10.0173 0.0283313 0)
(10.0245 0.0319059 0)
(10.0315 0.0344455 0)
(10.0384 0.0360702 0)
(10.045 0.0369965 0)
(10.0512 0.037466 0)
(10.0571 0.0376265 0)
(10.0627 0.037559 0)
(10.068 0.0373201 0)
(10.073 0.0369497 0)
(10.0779 0.0364688 0)
(10.0825 0.0358827 0)
(10.087 0.0351846 0)
(10.0914 0.0343562 0)
(10.0956 0.0333901 0)
(10.0003 0.00470351 0)
(10.0032 0.0136078 0)
(10.0086 0.0205817 0)
(10.0152 0.0254176 0)
(10.0219 0.0288255 0)
(10.0286 0.0312587 0)
(10.0351 0.0328633 0)
(10.0414 0.0338151 0)
(10.0474 0.0343173 0)
(10.0531 0.034508 0)
(10.0586 0.0344663 0)
(10.0637 0.0342456 0)
(10.0687 0.0338838 0)
(10.0735 0.0334023 0)
(10.0781 0.0328087 0)
(10.0825 0.0321011 0)
(10.0867 0.0312685 0)
(10.0908 0.0303178 0)
(10.0003 0.00408855 0)
(10.0028 0.0118383 0)
(10.0075 0.0180815 0)
(10.0134 0.0225753 0)
(10.0197 0.0257821 0)
(10.0259 0.0280835 0)
(10.0321 0.0296357 0)
(10.0381 0.0305859 0)
(10.0439 0.0311024 0)
(10.0494 0.0313101 0)
(10.0547 0.0312847 0)
(10.0598 0.0310766 0)
(10.0647 0.0307216 0)
(10.0693 0.0302415 0)
(10.0738 0.0296464 0)
(10.0781 0.028939 0)
(10.0822 0.0281142 0)
(10.0862 0.0271898 0)
(10.0002 0.00345328 0)
(10.0024 0.00999902 0)
(10.0064 0.0153996 0)
(10.0117 0.0194264 0)
(10.0174 0.0223484 0)
(10.0232 0.0244583 0)
(10.029 0.0259072 0)
(10.0347 0.0268182 0)
(10.0403 0.0273244 0)
(10.0456 0.0275326 0)
(10.0508 0.0275129 0)
(10.0557 0.0273118 0)
(10.0604 0.0269625 0)
(10.065 0.0264869 0)
(10.0693 0.0258974 0)
(10.0734 0.0252012 0)
(10.0774 0.0243984 0)
(10.0812 0.0235144 0)
(10.0002 0.00279368 0)
(10.002 0.00808854 0)
(10.0055 0.0125463 0)
(10.0101 0.0159762 0)
(10.0153 0.0185115 0)
(10.0206 0.0203545 0)
(10.026 0.0216362 0)
(10.0314 0.0224566 0)
(10.0367 0.022916 0)
(10.0418 0.0231003 0)
(10.0468 0.0230703 0)
(10.0515 0.0228676 0)
(10.0561 0.022522 0)
(10.0605 0.0220547 0)
(10.0646 0.0214799 0)
(10.0687 0.020808 0)
(10.0725 0.0200433 0)
(10.0761 0.0192154 0)
(10.0002 0.00210907 0)
(10.0017 0.00610904 0)
(10.0047 0.00953028 0)
(10.0088 0.0122299 0)
(10.0134 0.0142594 0)
(10.0183 0.015743 0)
(10.0233 0.0167789 0)
(10.0283 0.0174429 0)
(10.0333 0.0178061 0)
(10.0382 0.0179321 0)
(10.0429 0.0178692 0)
(10.0475 0.0176519 0)
(10.0519 0.0173058 0)
(10.0561 0.01685 0)
(10.0601 0.0162989 0)
(10.0639 0.0156645 0)
(10.0676 0.0149534 0)
(10.0711 0.0141958 0)
(10.0002 0.0013965 0)
(10.0015 0.00404651 0)
(10.0041 0.00633541 0)
(10.0076 0.00817054 0)
(10.0118 0.00956396 0)
(10.0163 0.0105801 0)
(10.0209 0.0112793 0)
(10.0256 0.0117103 0)
(10.0303 0.0119179 0)
(10.035 0.011943 0)
(10.0395 0.0118187 0)
(10.0438 0.01157 0)
(10.048 0.0112164 0)
(10.052 0.0107732 0)
(10.0559 0.010253 0)
(10.0596 0.00966692 0)
(10.0631 0.00902178 0)
(10.0664 0.00834573 0)
(10.0001 0.0006396 0)
(10.0013 0.0018492 0)
(10.0036 0.00288974 0)
(10.0069 0.00371848 0)
(10.0107 0.00433484 0)
(10.0148 0.00476137 0)
(10.0192 0.00502084 0)
(10.0237 0.0051331 0)
(10.0281 0.00511748 0)
(10.0325 0.00499229 0)
(10.0368 0.00477317 0)
(10.041 0.00447289 0)
(10.045 0.00410215 0)
(10.0489 0.00367034 0)
(10.0526 0.00318576 0)
(10.0561 0.00265657 0)
(10.0594 0.0020877 0)
(10.0626 0.00150274 0)
(10.0001 -0.000204718 0)
(10.0012 -0.000604805 0)
(10.0034 -0.000979763 0)
(10.0066 -0.00131844 0)
(10.0102 -0.0016209 0)
(10.0143 -0.00190099 0)
(10.0185 -0.00217659 0)
(10.0228 -0.00245975 0)
(10.0271 -0.00275775 0)
(10.0314 -0.00307605 0)
(10.0355 -0.00341883 0)
(10.0395 -0.00378826 0)
(10.0434 -0.00418478 0)
(10.0472 -0.00460747 0)
(10.0507 -0.00505455 0)
(10.0541 -0.00552304 0)
(10.0574 -0.00601164 0)
(10.0604 -0.00650347 0)
(10.0001 -0.00101232 0)
(10.0013 -0.00295919 0)
(10.0037 -0.00469871 0)
(10.007 -0.00615006 0)
(10.0108 -0.00731031 0)
(10.015 -0.00823917 0)
(10.0193 -0.00899795 0)
(10.0237 -0.0096286 0)
(10.028 -0.0101652 0)
(10.0323 -0.0106393 0)
(10.0364 -0.0110754 0)
(10.0404 -0.0114899 0)
(10.0443 -0.0118938 0)
(10.048 -0.0122944 0)
(10.0515 -0.0126964 0)
(10.0548 -0.0131018 0)
(10.058 -0.0135129 0)
(10.061 -0.013919 0)
(10.0002 -0.00170872 0)
(10.0015 -0.00501529 0)
(10.0041 -0.00794863 0)
(10.0078 -0.010307 0)
(10.012 -0.0121116 0)
(10.0164 -0.0135123 0)
(10.021 -0.0146152 0)
(10.0255 -0.0154772 0)
(10.03 -0.016155 0)
(10.0344 -0.016707 0)
(10.0386 -0.0171775 0)
(10.0426 -0.0175949 0)
(10.0464 -0.0179783 0)
(10.0501 -0.0183413 0)
(10.0536 -0.0186929 0)
(10.0569 -0.0190385 0)
(10.0601 -0.0193824 0)
(10.0631 -0.0197174 0)
(10.0002 -0.0023701 0)
(10.0016 -0.00704712 0)
(10.0047 -0.0111962 0)
(10.009 -0.014372 0)
(10.0137 -0.0166747 0)
(10.0185 -0.0184146 0)
(10.0234 -0.0197514 0)
(10.0282 -0.020756 0)
(10.0328 -0.0215097 0)
(10.0373 -0.0220934 0)
(10.0416 -0.0225636 0)
(10.0457 -0.0229567 0)
(10.0496 -0.0232992 0)
(10.0533 -0.0236102 0)
(10.0568 -0.0239028 0)
(10.0601 -0.0241847 0)
(10.0632 -0.0244612 0)
(10.0662 -0.024728 0)
(10.0002 -0.00298915 0)
(10.0018 -0.00910484 0)
(10.0054 -0.0144661 0)
(10.0105 -0.018361 0)
(10.0159 -0.0211107 0)
(10.0211 -0.0231383 0)
(10.0263 -0.024599 0)
(10.0314 -0.0256179 0)
(10.0363 -0.0263491 0)
(10.0409 -0.0269024 0)
(10.0453 -0.0273343 0)
(10.0494 -0.0276801 0)
(10.0534 -0.0279693 0)
(10.0571 -0.028224 0)
(10.0606 -0.0284583 0)
(10.0639 -0.0286806 0)
(10.0671 -0.0288964 0)
(10.07 -0.0291033 0)
(10.0001 -0.00353483 0)
(10.0018 -0.0115578 0)
(10.0062 -0.0178994 0)
(10.0123 -0.0220023 0)
(10.0183 -0.0250743 0)
(10.024 -0.0274884 0)
(10.0296 -0.029131 0)
(10.035 -0.0301452 0)
(10.0401 -0.0308014 0)
(10.0449 -0.0312643 0)
(10.0494 -0.0316015 0)
(10.0536 -0.0318535 0)
(10.0576 -0.032054 0)
(10.0613 -0.0322269 0)
(10.0648 -0.0323855 0)
(10.0682 -0.0325373 0)
(10.0713 -0.0326856 0)
(10.0742 -0.0328272 0)
(9.99991 -0.00338316 0)
(10.0016 -0.0149735 0)
(10.0073 -0.0227358 0)
(10.0142 -0.0262519 0)
(10.0206 -0.0288431 0)
(10.0268 -0.0312124 0)
(10.0331 -0.0329373 0)
(10.039 -0.0340287 0)
(10.0444 -0.0347315 0)
(10.0494 -0.035198 0)
(10.054 -0.0354984 0)
(10.0583 -0.0356869 0)
(10.0623 -0.0358097 0)
(10.066 -0.0358974 0)
(10.0694 -0.0359683 0)
(10.0725 -0.0360321 0)
(10.0755 -0.0360937 0)
(10.0782 -0.0361516 0)
(9.9986 -0.000399891 0)
(9.99909 -0.0157606 0)
(10.0075 -0.0274371 0)
(10.0166 -0.0325015 0)
(10.0238 -0.0348811 0)
(10.0306 -0.0362398 0)
(10.0376 -0.0369944 0)
(10.0441 -0.0374637 0)
(10.0498 -0.0378146 0)
(10.0549 -0.0380639 0)
(10.0595 -0.0382106 0)
(10.0636 -0.0382798 0)
(10.0671 -0.0383016 0)
(10.0703 -0.0382972 0)
(10.0731 -0.0382817 0)
(10.0755 -0.0382635 0)
(10.0776 -0.0382464 0)
(10.0795 -0.0382285 0)
(9.99488 0.00133432 0)
(9.99288 -0.00809558 0)
(10.006 -0.0203568 0)
(10.0202 -0.032284 0)
(10.0306 -0.0404882 0)
(10.0392 -0.0441616 0)
(10.0467 -0.0450758 0)
(10.0529 -0.0449329 0)
(10.0578 -0.0444675 0)
(10.0616 -0.0438733 0)
(10.0646 -0.0432298 0)
(10.0667 -0.042594 0)
(10.0682 -0.0420001 0)
(10.069 -0.0414563 0)
(10.0693 -0.0409724 0)
(10.0692 -0.0405447 0)
(10.0687 -0.0401704 0)
(10.068 -0.0398241 0)
(9.99473 -0.0305622 0)
(9.99925 -0.022874 0)
(10.0147 -0.00263921 0)
(10.0304 -0.00191484 0)
(10.0434 -0.0116657 0)
(10.0533 -0.0209307 0)
(10.0594 -0.0272888 0)
(10.0618 -0.0315177 0)
(10.0615 -0.0342936 0)
(10.059 -0.0359907 0)
(10.055 -0.0369233 0)
(10.0497 -0.0373573 0)
(10.0434 -0.0374832 0)
(10.0364 -0.0374208 0)
(10.0289 -0.0372605 0)
(10.0209 -0.0370574 0)
(10.0128 -0.0368765 0)
(10.0045 -0.0366864 0)
(10.0273 -0.182759 0)
(10.0763 -0.288314 0)
(10.0871 -0.247757 0)
(10.0777 -0.186523 0)
(10.0664 -0.140301 0)
(10.0537 -0.108227 0)
(10.0365 -0.0858875 0)
(10.0145 -0.0704281 0)
(9.98936 -0.0596597 0)
(9.96231 -0.0518862 0)
(9.93433 -0.0460643 0)
(9.90601 -0.0415669 0)
(9.87783 -0.038011 0)
(9.85011 -0.0351359 0)
(9.82312 -0.0327694 0)
(9.79694 -0.0308483 0)
(9.77184 -0.0293313 0)
(9.74784 -0.0285113 0)
(9.93574 0.689319 0)
(9.86861 0.609604 0)
(9.76453 0.380622 0)
(9.62663 0.21744 0)
(9.48588 0.119265 0)
(9.35718 0.0631839 0)
(9.24265 0.0315721 0)
(9.14109 0.0136121 0)
(9.05139 0.00325877 0)
(8.97241 -0.00280264 0)
(8.9025 -0.00635822 0)
(8.84031 -0.00847753 0)
(8.7846 -0.00972829 0)
(8.73449 -0.0104745 0)
(8.68905 -0.0109774 0)
(8.6477 -0.0112464 0)
(8.6095 -0.0114531 0)
(8.57416 -0.0121133 0)
(0.00523597 -0.0122442 -8.1703e-19)
(0.0173749 -0.0182025 7.0853e-19)
(0.027278 -0.0146645 0)
(0.0329159 -0.00746279 0)
(0.0333833 0.000225166 0)
(0.028971 0.00671364 -3.61883e-19)
(0.0208442 0.0114108 0)
(0.00994313 0.0144536 0)
(-0.00297155 0.0162711 0)
(-0.0173652 0.0173428 0)
(-0.0329293 0.0180506 2.04899e-19)
(-0.0494807 0.0186202 0)
(-0.0669168 0.0191576 0)
(-0.0851805 0.0197011 0)
(-0.104237 0.0202553 0)
(-0.124058 0.0208135 1.17085e-19)
(-0.144616 0.021365 0)
(-0.165882 0.0219028 0)
(-0.187823 0.0224203 0)
(-0.210397 0.0229141 0)
(-0.233559 0.0233774 0)
(-0.257263 0.0238055 0)
(-0.281476 0.0241975 0)
(-0.306176 0.0245698 7.31168e-20)
(-0.331356 0.024951 -7.0783e-20)
(-0.35704 0.0253907 6.89032e-20)
(-0.383318 0.026027 6.74428e-20)
(-0.410421 0.0270387 0)
(-0.438596 0.0284606 0)
(-0.467813 0.0306236 -6.49308e-20)
(-0.497963 0.0336832 -6.41394e-20)
(-0.52898 0.0312966 0)
(-0.560787 0.0218771 0)
(-0.590695 0.0223208 -5.82316e-20)
(-0.620825 0.0354614 0)
(-0.656314 0.0519498 0)
(-0.694199 0.0739167 5.72905e-20)
(-0.736787 0.0579201 0)
(-0.779092 0.0275559 7.46072e-20)
(-0.813388 0.0181702 1.26354e-19)
(-0.851917 0.063637 0)
(-0.8889 0.0765947 0)
(-0.934523 0.0314066 0)
(-0.969367 0.0325405 0)
(-1.00755 0.0337701 0)
(-1.04691 0.0343436 1.17633e-19)
(-1.08684 0.0345023 1.14302e-19)
(-1.12704 0.0344522 1.11174e-19)
(-1.16733 0.0342838 0)
(-1.20763 0.0340426 -1.05482e-19)
(-1.24787 0.0337594 0)
(-1.28802 0.0334487 1.00445e-19)
(-1.32803 0.0331202 9.81404e-20)
(-1.3679 0.0327787 0)
(-1.40761 0.032427 0)
(-1.44714 0.0320661 0)
(-1.48646 0.0316962 9.00811e-20)
(-1.52558 0.0313167 0)
(-1.56445 0.0309268 0)
(-1.60308 0.0305252 0)
(-1.64143 0.0301108 0)
(-1.67949 0.0296822 0)
(-1.71722 0.0292381 0)
(-1.7546 0.0287773 0)
(-1.7916 0.0282986 0)
(-1.8282 0.0278009 -7.66322e-20)
(-1.86435 0.0272834 0)
(-1.90002 0.0267452 0)
(-1.93518 0.0261857 7.30822e-20)
(-1.9698 0.0256044 7.19701e-20)
(-2.00382 0.0250009 0)
(-2.03723 0.0243749 -6.98354e-20)
(-2.06996 0.0237261 6.88075e-20)
(-2.102 0.0230546 0)
(-2.13328 0.0223603 -6.68184e-20)
(-2.16378 0.0216436 0)
(-2.19344 0.0209045 0)
(-2.22223 0.0201436 6.39675e-20)
(-2.25011 0.019361 0)
(-2.27703 0.0185571 -6.21309e-20)
(-2.30295 0.0177322 0)
(-2.32782 0.0168867 6.03275e-20)
(-2.35161 0.0160207 5.94336e-20)
(-2.37428 0.015134 5.85426e-20)
(-2.39577 0.0142263 1.15306e-19)
(-2.41605 0.0132968 -1.13526e-19)
(-2.43508 0.0123438 0)
(-2.45281 0.0113645 0)
(-2.46919 0.0103554 0)
(-2.48418 0.00931128 -1.06335e-19)
(-2.49773 0.00822542 -1.04506e-19)
(-2.50978 0.00708989 1.0266e-19)
(-2.52026 0.00589685 0)
(-2.52909 0.00464214 -9.89122e-20)
(-2.5362 0.00333652 -9.70091e-20)
(-2.54149 0.00202692 -9.5087e-20)
(-2.54485 0.000807204 0)
(-2.54621 -0.000239584 0)
(-2.54611 -0.00117116 0)
(-2.54444 -0.00207705 -8.69423e-20)
(-2.54127 -0.00297037 0)
(-2.53658 -0.00385859 0)
(-2.53037 -0.00474221 8.02962e-20)
(-2.52262 -0.00562111 0)
(-2.51334 -0.00649452 0)
(-2.50251 -0.00736133 7.31202e-20)
(-2.49014 -0.00822069 0)
(-2.47623 -0.00907127 0)
(-2.46078 -0.00991224 -6.53437e-20)
(-2.4438 -0.0107422 -6.2606e-20)
(-2.42529 -0.0115603 0)
(-2.40526 -0.0123651 5.68966e-20)
(-2.38372 -0.013156 0)
(-2.3607 -0.0139315 -5.0858e-20)
(-2.3362 -0.0146911 0)
(-2.31025 -0.015433 -4.44689e-20)
(-2.28286 -0.0161569 -4.11364e-20)
(-2.25406 -0.016861 0)
(-2.22388 -0.0175453 0)
(-2.19234 -0.0182087 0)
(-2.15948 -0.0188512 0)
(-2.12531 -0.0194717 0)
(-2.08989 -0.0200701 0)
(-2.05323 -0.0206452 0)
(-2.01538 -0.0211977 -1.07829e-20)
(-1.97638 -0.0217276 6.479e-21)
(-1.93626 -0.0222364 0)
(-1.89505 -0.0227221 0)
(-1.8528 -0.0231862 0)
(-1.80954 -0.023629 0)
(-1.76531 -0.0240481 -3.40411e-20)
(-1.72014 -0.0244437 0)
(-1.67409 -0.0248155 5.48868e-20)
(-1.6272 -0.0251668 -6.57988e-20)
(-1.5795 -0.025498 0)
(-1.53104 -0.0258081 0)
(-1.48185 -0.0260978 0)
(-1.43197 -0.0263684 1.13088e-19)
(-1.38144 -0.0266207 1.25919e-19)
(-1.33031 -0.0268577 0)
(-1.2786 -0.0270814 1.52957e-19)
(-1.22636 -0.0272937 1.67221e-19)
(-1.17361 -0.0274961 -1.82023e-19)
(-1.12039 -0.0276897 0)
(-1.06673 -0.0278759 0)
(-1.01264 -0.0280561 -2.30056e-19)
(-0.958171 -0.0282324 0)
(-0.903333 -0.0284065 0)
(-0.848151 -0.0285807 0)
(-0.792647 -0.0287568 0)
(-0.736837 -0.0289373 3.25235e-19)
(-0.680738 -0.029124 3.47142e-19)
(-0.624364 -0.0293194 0)
(-0.567727 -0.0295255 3.94553e-19)
(-0.510835 -0.0297448 0)
(-0.453697 -0.0299792 0)
(-0.396317 -0.0302316 4.76571e-19)
(-0.3387 -0.0305028 0)
(-0.28085 -0.0307945 5.40463e-19)
(-0.222762 -0.0311132 0)
(-0.164442 -0.0314844 0)
(-0.105905 -0.0318987 6.54939e-19)
(-0.0471985 -0.0322648 0)
(0.0115177 -0.0321877 7.22323e-19)
(0.0702345 -0.0315725 0)
(0.129212 -0.0308574 0)
(0.188485 -0.0302119 0)
(0.248076 -0.0296366 -6.61508e-19)
(0.308033 -0.0291197 0)
(0.368388 -0.0286467 6.3335e-19)
(0.429146 -0.0282032 0)
(0.490279 -0.0277701 0)
(0.551715 -0.0273238 0)
(0.613299 -0.0268265 0)
(0.674801 -0.0262145 0)
(0.735546 -0.0253703 0)
(0.795195 -0.0240054 0)
(0.848628 -0.0214824 -1.10951e-18)
(0.902084 -0.0161035 0)
(0.899582 0.0020777 0)
(0.00474313 -0.0351732 1.88619e-18)
(0.00987869 -0.0325337 -1.08116e-18)
(0.00916344 -0.0184424 0)
(0.00540837 -0.0037724 3.38259e-19)
(-0.000802247 0.0097092 0)
(-0.0092619 0.021174 1.2941e-19)
(-0.0199229 0.0303012 -2.36055e-19)
(-0.0326678 0.0372284 -2.17311e-19)
(-0.0473154 0.0423681 0)
(-0.0636226 0.0462176 -1.85487e-19)
(-0.0813554 0.0492191 -8.59586e-20)
(-0.100329 0.0516949 0)
(-0.120408 0.0538494 0)
(-0.141495 0.0557976 0)
(-0.163527 0.0575986 0)
(-0.186465 0.0592788 -6.18232e-20)
(-0.210289 0.0608482 0)
(-0.234989 0.0623098 1.11445e-19)
(-0.260567 0.0636639 0)
(-0.287034 0.064912 0)
(-0.314411 0.0660575 -9.83709e-20)
(-0.342734 0.0671088 0)
(-0.372051 0.0680834 9.23473e-20)
(-0.402423 0.0690159 -4.50695e-20)
(-0.433923 0.0699626 4.41202e-20)
(-0.46662 0.0710086 -4.33727e-20)
(-0.500593 0.0722461 -4.28437e-20)
(-0.53588 0.0737334 0)
(-0.572392 0.0755041 0)
(-0.609996 0.0775426 4.23697e-20)
(-0.648283 0.0796653 -4.22846e-20)
(-0.687742 0.0811543 0)
(-0.728733 0.082019 0)
(-0.770812 0.0833159 3.99101e-20)
(-0.813765 0.0844788 0)
(-0.85458 0.0857386 0)
(-0.892222 0.0873981 -3.78261e-20)
(-0.931173 0.0877915 0)
(-0.970555 0.0876358 3.80049e-20)
(-1.01451 0.0880852 -7.21545e-20)
(-1.05234 0.0873813 0)
(-1.09104 0.0878886 0)
(-1.12959 0.0873748 -1.35926e-19)
(-1.17076 0.0881404 -1.32743e-19)
(-1.2098 0.0884677 -1.29821e-19)
(-1.24762 0.0883047 6.33507e-20)
(-1.28479 0.087788 -6.23553e-20)
(-1.32151 0.0870553 -1.82974e-19)
(-1.3579 0.0861868 1.19491e-19)
(-1.394 0.0852331 5.87566e-20)
(-1.42982 0.0842244 0)
(-1.46536 0.0831787 -5.66346e-20)
(-1.50063 0.0821067 5.5352e-20)
(-1.53562 0.081014 0)
(-1.57032 0.0799028 0)
(-1.60472 0.0787735 0)
(-1.6388 0.077625 -5.2068e-20)
(-1.67256 0.0764556 0)
(-1.70598 0.0752628 1.00665e-19)
(-1.73904 0.0740441 0)
(-1.77171 0.0727969 9.76868e-20)
(-1.80398 0.0715185 0)
(-1.83583 0.0702066 -9.48847e-20)
(-1.86722 0.0688586 0)
(-1.89814 0.0674727 9.22314e-20)
(-1.92855 0.066047 -4.53491e-20)
(-1.95843 0.06458 0)
(-1.98775 0.0630705 -8.84775e-20)
(-2.01648 0.0615177 -4.3757e-20)
(-2.04459 0.0599209 -4.31633e-20)
(-2.07204 0.0582798 0)
(-2.09881 0.0565942 -4.17824e-20)
(-2.12486 0.0548642 -4.14311e-20)
(-2.15016 0.0530903 0)
(-2.17467 0.0512729 4.03062e-20)
(-2.19836 0.0494131 -7.9311e-20)
(-2.2212 0.0475118 0)
(-2.24316 0.0455704 -3.86438e-20)
(-2.2642 0.0435901 0)
(-2.28428 0.0415723 1.12471e-19)
(-2.30338 0.0395185 0)
(-2.32146 0.0374302 -1.09173e-19)
(-2.33848 0.0353088 -3.58786e-20)
(-2.35442 0.0331559 3.52075e-20)
(-2.36925 0.0309732 6.93094e-20)
(-2.38292 0.0287621 -6.81947e-20)
(-2.39542 0.0265237 0)
(-2.40672 0.0242583 0)
(-2.41677 0.0219657 0)
(-2.42557 0.0196446 1.91006e-19)
(-2.43309 0.0172934 6.2487e-20)
(-2.43931 0.0149103 -6.12618e-20)
(-2.44424 0.0124929 0)
(-2.44789 0.0100379 -5.87885e-20)
(-2.45029 0.00754638 5.74773e-20)
(-2.45151 0.00504323 5.61811e-20)
(-2.45165 0.00260025 0)
(-2.4508 0.00030258 0)
(-2.44855 -0.00187955 0)
(-2.44487 -0.00401792 5.06496e-20)
(-2.43972 -0.00612513 0)
(-2.43308 -0.00820881 -9.56951e-20)
(-2.42495 -0.0102691 -1.3895e-19)
(-2.41532 -0.0123045 8.96958e-20)
(-2.40417 -0.0143129 0)
(-2.39151 -0.0162917 4.19144e-20)
(-2.37732 -0.0182383 0)
(-2.36163 -0.02015 7.7012e-20)
(-2.34442 -0.0220244 -3.707e-20)
(-2.3257 -0.0238588 -3.53948e-20)
(-2.30548 -0.0256509 0)
(-2.28376 -0.0273982 -9.47864e-20)
(-2.26057 -0.0290987 5.98048e-20)
(-2.23592 -0.03075 2.77938e-20)
(-2.20982 -0.0323506 0)
(-2.18229 -0.0338984 2.40478e-20)
(-2.15335 -0.0353919 6.70597e-20)
(-2.12303 -0.0368289 0)
(-2.09134 -0.0382082 3.71275e-20)
(-2.05833 -0.0395285 3.31364e-20)
(-2.02401 -0.0407892 2.90866e-20)
(-1.98841 -0.0419889 0)
(-1.95157 -0.0431275 0)
(-1.91353 -0.0442037 0)
(-1.87431 -0.0452183 -6.5872e-21)
(-1.83396 -0.0461712 -3.55988e-21)
(-1.79251 -0.0470647 0)
(-1.75 -0.0479005 8.17262e-22)
(-1.70645 -0.0486825 5.29755e-21)
(-1.66192 -0.0494112 0)
(-1.61642 -0.0500779 1.53545e-20)
(-1.57002 -0.0506782 3.80494e-20)
(-1.52273 -0.0512233 -2.46688e-20)
(-1.47461 -0.0517162 -2.7415e-20)
(-1.42569 -0.0521559 0)
(-1.37601 -0.0525435 0)
(-1.32561 -0.05288 0)
(-1.27452 -0.0531668 -4.86879e-20)
(-1.22279 -0.0534063 5.15558e-20)
(-1.17044 -0.0536019 1.15076e-19)
(-1.11752 -0.053758 -6.35682e-20)
(-1.06405 -0.0538774 6.65232e-20)
(-1.01008 -0.0539638 7.36759e-20)
(-0.955615 -0.0540182 0)
(-0.900697 -0.0540439 0)
(-0.845349 -0.0540419 -8.70196e-20)
(-0.789595 -0.0540164 0)
(-0.733456 -0.0539685 0)
(-0.676952 -0.0539028 2.07705e-19)
(-0.620103 -0.0538203 0)
(-0.562923 -0.0537254 1.13532e-19)
(-0.505426 -0.0536192 -1.21059e-19)
(-0.447623 -0.0535061 0)
(-0.389524 -0.053387 1.29966e-19)
(-0.331134 -0.0532664 0)
(-0.272459 -0.0531447 0)
(-0.213498 -0.0530266 -1.48946e-19)
(-0.154254 -0.0529138 3.07298e-19)
(-0.0947258 -0.0528087 -1.60502e-19)
(-0.0349129 -0.0527105 0)
(0.0251493 -0.0525937 0)
(0.0854905 -0.0524509 1.70012e-19)
(0.146194 -0.0522829 0)
(0.207307 -0.0520027 1.73235e-19)
(0.268773 -0.0516004 0)
(0.330557 -0.0511871 0)
(0.392686 -0.0508191 0)
(0.455188 -0.0504972 1.81832e-19)
(0.51808 -0.0502096 0)
(0.581362 -0.0499373 -1.84831e-19)
(0.645018 -0.0496575 0)
(0.709 -0.0493394 0)
(0.773218 -0.0489395 3.76147e-19)
(0.837505 -0.0483887 -3.78769e-19)
(0.901606 -0.0475627 0)
(0.964943 -0.0462372 0)
(1.02703 -0.043853 0)
(1.08471 -0.0394157 1.17455e-18)
(1.14125 -0.0293442 0)
(1.17254 -0.00413718 -8.19498e-19)
(-0.000506892 -0.0417581 -8.6016e-22)
(-0.00375145 -0.025224 1.04059e-18)
(-0.0107243 -0.00509378 0)
(-0.019732 0.0132711 -4.21784e-19)
(-0.0302038 0.0296101 0)
(-0.0418496 0.0438503 0)
(-0.0547057 0.0559334 3.77885e-23)
(-0.0688867 0.0659245 1.31012e-19)
(-0.0844639 0.0740556 1.2324e-19)
(-0.101434 0.0806697 1.16538e-19)
(-0.119738 0.0861335 0)
(-0.139287 0.0907725 0)
(-0.159992 0.0948399 -9.97913e-20)
(-0.181777 0.0985141 -1.90314e-19)
(-0.204584 0.101913 1.81892e-19)
(-0.228374 0.105109 0)
(-0.253128 0.108152 1.67377e-19)
(-0.278839 0.111071 -8.0616e-20)
(-0.30551 0.113895 0)
(-0.333156 0.116649 1.50637e-19)
(-0.361795 0.119365 7.31339e-20)
(-0.391455 0.122079 -1.42337e-19)
(-0.422161 0.124835 -6.94925e-20)
(-0.453933 0.127682 0)
(-0.486774 0.130666 1.33587e-19)
(-0.520664 0.133826 1.315e-19)
(-0.555538 0.137177 0)
(-0.591243 0.140681 1.27864e-19)
(-0.627531 0.144192 0)
(-0.664108 0.147453 1.23987e-19)
(-0.700745 0.150111 6.08107e-20)
(-0.737577 0.15168 0)
(-0.774815 0.152162 0)
(-0.812248 0.152878 0)
(-0.849326 0.154183 0)
(-0.885155 0.155268 0)
(-0.919715 0.156096 0)
(-0.953941 0.15506 1.03958e-19)
(-0.98845 0.152483 -1.52075e-19)
(-1.02334 0.150276 0)
(-1.0573 0.149568 0)
(-1.09052 0.148354 0)
(-1.12386 0.145035 1.02029e-22)
(-1.15774 0.142793 9.0595e-20)
(-1.1913 0.14102 1.77395e-19)
(-1.22441 0.139375 -1.739e-19)
(-1.25713 0.137724 -8.5201e-20)
(-1.28956 0.136037 8.37588e-20)
(-1.32174 0.13431 -1.56042e-22)
(-1.3537 0.13255 8.06097e-20)
(-1.38546 0.130762 0)
(-1.41704 0.128952 7.78564e-20)
(-1.44842 0.127123 -1.60009e-22)
(-1.4796 0.125273 0)
(-1.51057 0.123402 0)
(-1.54133 0.121506 -7.29418e-20)
(-1.57186 0.119583 0)
(-1.60214 0.117628 0)
(-1.63215 0.115637 6.95065e-20)
(-1.66188 0.113605 1.3728e-19)
(-1.69131 0.111529 -6.77994e-20)
(-1.72041 0.109404 0)
(-1.74917 0.107228 6.58703e-20)
(-1.77755 0.104996 0)
(-1.80553 0.102706 6.37207e-20)
(-1.83308 0.100355 6.31308e-20)
(-1.86018 0.0979428 -1.24208e-19)
(-1.8868 0.0954661 -6.1098e-20)
(-1.9129 0.0929245 0)
(-1.93847 0.0903173 1.19111e-19)
(-1.96345 0.0876442 0)
(-1.98783 0.0849053 1.73856e-19)
(-2.01157 0.0821011 1.14194e-19)
(-2.03464 0.0792323 1.12582e-19)
(-2.057 0.0763002 -1.10979e-19)
(-2.07862 0.0733063 1.64186e-19)
(-2.09947 0.0702523 0)
(-2.11952 0.0671403 0)
(-2.13872 0.0639724 -1.04616e-19)
(-2.15705 0.0607511 -1.54626e-19)
(-2.17448 0.0574789 0)
(-2.19096 0.0541583 4.99904e-20)
(-2.20647 0.0507921 0)
(-2.22097 0.0473832 -1.44966e-19)
(-2.23444 0.0439345 -1.0958e-22)
(-2.24685 0.0404491 9.51647e-23)
(-2.25816 0.0369301 9.16706e-20)
(-2.26834 0.0333805 0)
(-2.27739 0.0298037 -8.83016e-20)
(-2.28526 0.0262032 -3.41293e-23)
(-2.29195 0.0225838 0)
(-2.29743 0.0189526 0)
(-2.30172 0.0153203 0)
(-2.30479 0.0117015 7.949e-20)
(-2.30666 0.00811642 0)
(-2.30731 0.0045879 0)
(-2.30671 0.0011244 0)
(-2.3048 -0.00230278 0)
(-2.30152 -0.00571263 0)
(-2.29684 -0.00909556 6.7961e-20)
(-2.29075 -0.0124472 0)
(-2.28321 -0.0157643 6.36827e-20)
(-2.27423 -0.019043 6.15682e-20)
(-2.26379 -0.0222792 -5.94234e-20)
(-2.25189 -0.0254687 0)
(-2.23851 -0.028607 -5.50417e-20)
(-2.22367 -0.0316898 0)
(-2.20735 -0.0347128 -5.05364e-20)
(-2.18957 -0.0376718 4.82374e-20)
(-2.17032 -0.0405627 1.38364e-19)
(-2.14962 -0.0433816 0)
(-2.12747 -0.0461248 1.24183e-19)
(-2.10389 -0.0487888 3.94819e-20)
(-2.07889 -0.0513702 0)
(-2.05249 -0.0538661 6.84347e-20)
(-2.02469 -0.0562735 6.34575e-20)
(-1.99554 -0.0585899 -8.72032e-20)
(-1.96503 -0.0608126 0)
(-1.93321 -0.0629394 -2.36388e-20)
(-1.9001 -0.0649685 -2.10337e-20)
(-1.86571 -0.0668984 -5.62031e-20)
(-1.83009 -0.0687279 0)
(-1.79327 -0.0704561 0)
(-1.75527 -0.0720822 0)
(-1.71613 -0.0736065 -8.77733e-21)
(-1.67588 -0.0750297 0)
(-1.63457 -0.0763542 0)
(-1.59222 -0.077583 -5.05389e-22)
(-1.54887 -0.0787205 -3.2645e-21)
(-1.50455 -0.079768 0)
(-1.4593 -0.0807181 0)
(-1.41316 -0.0815662 -2.31945e-20)
(-1.36616 -0.0823223 0)
(-1.31833 -0.0829912 3.43712e-20)
(-1.26973 -0.083573 3.87375e-20)
(-1.22037 -0.0840698 0)
(-1.17031 -0.0844837 0)
(-1.11957 -0.0848173 -5.55355e-20)
(-1.06818 -0.0850745 -1.26102e-21)
(-1.01619 -0.0852603 -1.26502e-21)
(-0.963626 -0.0853804 0)
(-0.910516 -0.0854396 -1.57094e-19)
(-0.856891 -0.0854427 0)
(-0.802779 -0.0853925 0)
(-0.748205 -0.0852934 0)
(-0.693192 -0.0851482 1.01431e-19)
(-0.637763 -0.0849618 0)
(-0.581938 -0.0847372 -2.22419e-19)
(-0.525734 -0.0844798 -1.17981e-19)
(-0.469169 -0.0841923 0)
(-0.412257 -0.0838798 -1.28941e-19)
(-0.355009 -0.0835452 0)
(-0.297435 -0.0831936 0)
(-0.239543 -0.0828273 -4.33313e-19)
(-0.181338 -0.0824518 2.9888e-19)
(-0.122824 -0.0820687 0)
(-0.0639994 -0.0816823 3.20491e-19)
(-0.00487045 -0.0812922 -1.66397e-19)
(0.0545621 -0.080898 0)
(0.114312 -0.0805005 0)
(0.174391 -0.0801022 0)
(0.234817 -0.0797058 -5.34338e-19)
(0.295616 -0.0793059 0)
(0.356827 -0.0789074 -1.8439e-19)
(0.418457 -0.0785317 0)
(0.48049 -0.0781894 0)
(0.542927 -0.0778894 0)
(0.605767 -0.0776275 0)
(0.669006 -0.0773883 0)
(0.732631 -0.077148 0)
(0.796611 -0.0768748 -4.03914e-19)
(0.860891 -0.0765246 0)
(0.925374 -0.0760319 -2.07919e-19)
(0.989894 -0.0752929 6.28846e-19)
(1.05421 -0.0741273 0)
(1.11783 -0.0722101 0)
(1.18035 -0.0688553 -4.33476e-19)
(1.23969 -0.0627824 -4.41272e-19)
(1.29888 -0.0507026 4.47432e-19)
(1.34435 -0.0246614 4.62352e-19)
(-0.00581342 -0.0311139 -2.89417e-18)
(-0.0146969 -0.0059211 -1.24652e-18)
(-0.0255472 0.0173334 -4.51015e-19)
(-0.0381145 0.0376045 -1.61241e-19)
(-0.0516228 0.055558 0)
(-0.0657419 0.0714499 2.33785e-19)
(-0.0805562 0.0853647 -1.06875e-19)
(-0.0962258 0.0973832 0)
(-0.11288 0.107662 -9.42874e-20)
(-0.1306 0.116437 0)
(-0.149417 0.123983 1.71125e-19)
(-0.169322 0.130575 0)
(-0.190286 0.13645 7.85183e-20)
(-0.212268 0.1418 1.50856e-19)
(-0.235231 0.146765 -1.45183e-19)
(-0.259143 0.151447 0)
(-0.283982 0.155917 -1.35218e-19)
(-0.309728 0.160228 0)
(-0.33637 0.164419 0)
(-0.363892 0.168523 -1.23255e-19)
(-0.392278 0.17257 0)
(-0.421504 0.176585 -3.06689e-23)
(-0.451534 0.180588 0)
(-0.482312 0.184589 0)
(-0.513757 0.188578 4.3809e-23)
(-0.545754 0.192513 -1.07376e-19)
(-0.578157 0.196309 -1.05385e-19)
(-0.610785 0.199839 -1.03325e-19)
(-0.64344 0.202939 0)
(-0.675946 0.2054 -1.98025e-19)
(-0.708222 0.207009 0)
(-0.740313 0.207646 -9.40424e-20)
(-0.772313 0.207518 0)
(-0.80418 0.207161 0)
(-0.835677 0.206781 8.67681e-20)
(-0.866646 0.206211 0)
(-0.897133 0.20531 -8.2777e-20)
(-0.927356 0.203733 -3.63113e-23)
(-0.957553 0.201637 1.58384e-19)
(-0.987727 0.199515 -1.54672e-19)
(-1.01764 0.197515 0)
(-1.04723 0.195265 0)
(-1.07674 0.192431 -7.26102e-20)
(-1.10636 0.189693 0)
(-1.13594 0.187131 -6.9805e-20)
(-1.1654 0.184686 6.84799e-20)
(-1.19472 0.182301 6.72102e-20)
(-1.22389 0.179941 0)
(-1.25292 0.177586 -6.48247e-20)
(-1.28183 0.175228 -6.37027e-20)
(-1.31061 0.172859 1.25119e-19)
(-1.33927 0.170475 -6.15849e-20)
(-1.3678 0.168071 -6.05834e-20)
(-1.39619 0.165643 0)
(-1.42443 0.163185 0)