# vtk DataFile Version 2.0
track0
ASCII
DATASET POLYDATA
POINTS 12085 float
-0.0205 0.001 1e-05
-0.02052 0.000999985 1e-05
-0.02054 0.000999973 1e-05
-0.02056 0.000999965 1e-05
-0.02058 0.000999959 1e-05
-0.0206 0.000999956 1e-05
-0.0205 0.00367778 1e-05
-0.02052 0.00367778 1e-05
-0.02054 0.00367777 1e-05
-0.02056 0.00367777 1e-05
-0.02058 0.00367777 1e-05
-0.0206 0.00367777 1e-05
-0.0205 0.00635556 1e-05
-0.02052 0.00635555 1e-05
-0.02054 0.00635555 1e-05
-0.02056 0.00635555 1e-05
-0.02058 0.00635555 1e-05
-0.0206 0.00635555 1e-05
-0.0205 0.00903333 1e-05
-0.02052 0.00903333 1e-05
-0.02054 0.00903333 1e-05
-0.02056 0.00903333 1e-05
-0.02058 0.00903333 1e-05
-0.0206 0.00903333 1e-05
-0.0205 0.0117111 1e-05
-0.02052 0.0117111 1e-05
-0.02054 0.0117111 1e-05
-0.02056 0.0117111 1e-05
-0.02058 0.0117111 1e-05
-0.0206 0.0117111 1e-05
-0.0205 0.0143889 1e-05
-0.02052 0.0143889 1e-05
-0.02054 0.0143889 1e-05
-0.02056 0.0143889 1e-05
-0.02058 0.0143889 1e-05
-0.0206 0.0143889 1e-05
-0.0205 0.0170667 1e-05
-0.02052 0.0170667 1e-05
-0.02054 0.0170667 1e-05
-0.02056 0.0170667 1e-05
-0.02058 0.0170667 1e-05
-0.0206 0.0170667 1e-05
-0.0205 0.0197444 1e-05
-0.02052 0.0197444 1e-05
-0.02054 0.0197444 1e-05
-0.02056 0.0197444 1e-05
-0.02058 0.0197444 1e-05
-0.0206 0.0197444 1e-05
-0.0205 0.0224222 1e-05
-0.02052 0.0224222 1e-05
-0.02054 0.0224222 1e-05
-0.02056 0.0224222 1e-05
-0.02058 0.0224222 1e-05
-0.0206 0.0224222 1e-05
-0.0205 0.0251 1e-05
-0.02052 0.0250998 1e-05
-0.02054 0.0250997 1e-05
-0.02056 0.0250995 1e-05
-0.02058 0.0250995 1e-05
-0.0206 0.0250994 1e-05
-0.0205 0.001 1e-05
-0.0202034 0.00100022 1e-05
-0.0199069 0.00100067 1e-05
-0.0196103 0.00100134 1e-05
-0.0193137 0.00100221 1e-05
-0.0190172 0.00100329 1e-05
-0.0187132 0.00100471 1e-05
-0.0184093 0.00100595 1e-05
-0.0181054 0.00100718 1e-05
-0.0178015 0.00100842 1e-05
-0.0174976 0.00100966 1e-05
-0.0172058 0.00101098 1e-05
-0.016914 0.00101212 1e-05
-0.0166222 0.00101325 1e-05
-0.0163305 0.00101439 1e-05
-0.0160387 0.00101553 1e-05
-0.0157586 0.00101671 1e-05
-0.0154784 0.00101783 1e-05
-0.0151983 0.00101899 1e-05
-0.0149182 0.0010202 1e-05
-0.0146381 0.00102144 1e-05
-0.0144076 0.00102251 1e-05
-0.0141771 0.00102359 1e-05
-0.0139466 0.0010247 1e-05
-0.0137161 0.00102583 1e-05
-0.0135198 0.00102682 1e-05
-0.0134745 0.00102705 1e-05
-0.0134293 0.00102728 1e-05
-0.013384 0.00102752 1e-05
-0.0133387 0.00102775 1e-05
-0.0132934 0.00102799 1e-05
-0.0130353 0.00102934 1e-05
-0.0127771 0.00103071 1e-05
-0.0125189 0.0010321 1e-05
-0.0122607 0.00103351 1e-05
-0.0120025 0.00103494 1e-05
-0.0117547 0.00103632 1e-05
-0.0115068 0.00103772 1e-05
-0.0112589 0.00103913 1e-05
-0.0110111 0.00104055 1e-05
-0.0107632 0.00104197 1e-05
-0.0105252 0.00104335 1e-05
-0.0102873 0.00104473 1e-05
-0.0100493 0.00104613 1e-05
-0.00981133 0.00104753 1e-05
-0.00957337 0.00104894 1e-05
-0.00934491 0.00105029 1e-05
-0.00911645 0.00105165 1e-05
-0.00888799 0.00105302 1e-05
-0.00865954 0.0010544 1e-05
-0.00843108 0.00105578 1e-05
-0.00821175 0.00105711 1e-05
-0.00799242 0.00105845 1e-05
-0.00777309 0.0010598 1e-05
-0.00755376 0.00106115 1e-05
-0.00733443 0.0010625 1e-05
-0.00712387 0.0010638 1e-05
-0.0069133 0.00106512 1e-05
-0.00670273 0.00106643 1e-05
-0.00649217 0.00106776 1e-05
-0.0062816 0.00106909 1e-05
-0.00607944 0.00107037 1e-05
-0.00587729 0.00107166 1e-05
-0.00567514 0.00107296 1e-05
-0.00547298 0.00107427 1e-05
-0.00527083 0.00107559 1e-05
-0.00507675 0.00107686 1e-05
-0.00488267 0.00107815 1e-05
-0.0046886 0.00107945 1e-05
-0.00449452 0.00108076 1e-05
-0.00430044 0.00108209 1e-05
-0.00411412 0.00108338 1e-05
-0.0039278 0.00108469 1e-05
-0.00374147 0.00108603 1e-05
-0.00355515 0.00108738 1e-05
-0.00336883 0.00108876 1e-05
-0.00318995 0.0010901 1e-05
-0.00301107 0.00109148 1e-05
-0.00283219 0.0010929 1e-05
-0.00265331 0.00109435 1e-05
-0.00247443 0.00109583 1e-05
-0.0023027 0.00109729 1e-05
-0.00213097 0.0010988 1e-05
-0.00195924 0.00110037 1e-05
-0.00178751 0.00110199 1e-05
-0.00161577 0.00110366 1e-05
-0.0014509 0.00110532 1e-05
-0.00128603 0.00110706 1e-05
-0.00112116 0.00110888 1e-05
-0.000956295 0.00111079 1e-05
-0.000791418 0.00111279 1e-05
-0.000633135 0.0011148 1e-05
-0.000474852 0.00111691 1e-05
-0.000316572 0.00111914 1e-05
-0.000158293 0.0011215 1e-05
0 0.00112399 1e-05
0.000105677 0.00112573 1e-05
0.000211354 0.00112754 1e-05
0.000317029 0.0011294 1e-05
0.000422704 0.00113133 1e-05
0.000528387 0.00113331 1e-05
0.000634886 0.00113535 1e-05
0.000741385 0.00113741 1e-05
0.000847883 0.00113949 1e-05
0.000954381 0.00114159 1e-05
0.00106088 0.0011437 1e-05
0.00116821 0.00114586 1e-05
0.00127554 0.00114804 1e-05
0.00138286 0.00115024 1e-05
0.00149019 0.00115244 1e-05
0.00159752 0.00115467 1e-05
0.00170568 0.00115693 1e-05
0.00181384 0.00115924 1e-05
0.001922 0.00116158 1e-05
0.00203016 0.00116394 1e-05
0.00213833 0.00116633 1e-05
0.00224733 0.00116875 1e-05
0.00235633 0.00117123 1e-05
0.00246533 0.00117376 1e-05
0.00257433 0.00117632 1e-05
0.00268334 0.0011789 1e-05
0.00279319 0.0011815 1e-05
0.00290304 0.00118416 1e-05
0.00301288 0.00118688 1e-05
0.00312273 0.00118963 1e-05
0.00323259 0.0011924 1e-05
0.00334329 0.00119518 1e-05
0.00345399 0.00119804 1e-05
0.00356469 0.00120094 1e-05
0.00367539 0.00120388 1e-05
0.00378611 0.00120684 1e-05
0.00389767 0.00120981 1e-05
0.00400923 0.00121285 1e-05
0.0041208 0.00121595 1e-05
0.00423236 0.00121908 1e-05
0.00434393 0.00122222 1e-05
0.00445636 0.00122538 1e-05
0.00456879 0.00122861 1e-05
0.00468122 0.0012319 1e-05
0.00479365 0.00123521 1e-05
0.00490609 0.00123853 1e-05
0.0050194 0.00124187 1e-05
0.0051327 0.00124528 1e-05
0.005246 0.00124876 1e-05
0.0053593 0.00125226 1e-05
0.00547262 0.00125576 1e-05
0.00558681 0.00125927 1e-05
0.00570099 0.00126286 1e-05
0.00581518 0.00126652 1e-05
0.00592936 0.00127021 1e-05
0.00604356 0.00127388 1e-05
0.00615863 0.00127757 1e-05
0.0062737 0.00128134 1e-05
0.00638877 0.00128517 1e-05
0.00650384 0.00128904 1e-05
0.00661893 0.00129288 1e-05
0.0067349 0.00129674 1e-05
0.00685087 0.00130068 1e-05
0.00696683 0.00130468 1e-05
0.0070828 0.00130872 1e-05
0.00719878 0.00131273 1e-05
0.00731565 0.00131674 1e-05
0.00743252 0.00132083 1e-05
0.00754938 0.00132499 1e-05
0.00766625 0.00132917 1e-05
0.00778313 0.00133332 1e-05
0.00790091 0.00133748 1e-05
0.00801869 0.0013417 1e-05
0.00813647 0.00134599 1e-05
0.00825424 0.00135029 1e-05
0.00837203 0.00135457 1e-05
0.00849073 0.00135886 1e-05
0.00860942 0.0013632 1e-05
0.00872811 0.00136759 1e-05
0.0088468 0.001372 1e-05
0.00896551 0.00137639 1e-05
0.00908513 0.00138079 1e-05
0.00920475 0.00138524 1e-05
0.00932436 0.00138973 1e-05
0.00944398 0.00139423 1e-05
0.0095636 0.00139872 1e-05
0.00968415 0.00140322 1e-05
0.0098047 0.00140776 1e-05
0.00992524 0.00141233 1e-05
0.0100458 0.00141691 1e-05
0.0101663 0.00142148 1e-05
0.0102878 0.00142607 1e-05
0.0104093 0.00143069 1e-05
0.0105308 0.00143533 1e-05
0.0106523 0.00143997 1e-05
0.0107738 0.00144462 1e-05
0.0108962 0.00144929 1e-05
0.0110186 0.00145397 1e-05
0.0111411 0.00145867 1e-05
0.0112635 0.00146336 1e-05
0.0113859 0.00146806 1e-05
0.0115093 0.00147279 1e-05
0.0116327 0.00147752 1e-05
0.0117561 0.00148225 1e-05
0.0118795 0.00148699 1e-05
0.0120028 0.00149172 1e-05
0.0121272 0.00149649 1e-05
0.0122515 0.00150125 1e-05
0.0123759 0.001506 1e-05
0.0125002 0.00151075 1e-05
0.0126245 0.0015155 1e-05
0.0127498 0.00152029 1e-05
0.0128752 0.00152506 1e-05
0.0130005 0.00152983 1e-05
0.0131258 0.00153459 1e-05
0.0132511 0.00153934 1e-05
0.0133774 0.00154413 1e-05
0.0135036 0.0015489 1e-05
0.0136299 0.00155366 1e-05
0.0137562 0.00155842 1e-05
0.0138825 0.00156316 1e-05
0.0140098 0.00156793 1e-05
0.014137 0.00157269 1e-05
0.0142643 0.00157742 1e-05
0.0143915 0.00158215 1e-05
0.0145188 0.00158685 1e-05
0.0146471 0.00159159 1e-05
0.0147753 0.0015963 1e-05
0.0149036 0.00160099 1e-05
0.0150318 0.00160566 1e-05
0.0151601 0.00161031 1e-05
0.0152893 0.00161498 1e-05
0.0154186 0.00161963 1e-05
0.0155478 0.00162424 1e-05
0.0156771 0.00162883 1e-05
0.0158063 0.0016334 1e-05
0.0159366 0.00163798 1e-05
0.0160668 0.00164253 1e-05
0.0161971 0.00164704 1e-05
0.0163274 0.00165152 1e-05
0.0164576 0.00165597 1e-05
0.0165712 0.00165983 1e-05
0.0166848 0.00166365 1e-05
0.0167984 0.00166745 1e-05
0.016912 0.00167122 1e-05
0.017042 0.0016755 1e-05
0.0170564 0.00167597 1e-05
0.0170708 0.00167644 1e-05
0.0170852 0.00167691 1e-05
0.0170996 0.00167737 1e-05
0.0171139 0.00167784 1e-05
0.0172462 0.00168214 1e-05
0.0173785 0.00168639 1e-05
0.0175108 0.00169059 1e-05
0.0176431 0.00169475 1e-05
0.0177754 0.00169886 1e-05
0.0179087 0.00170296 1e-05
0.018042 0.001707 1e-05
0.0181753 0.00171099 1e-05
0.0183087 0.00171492 1e-05
0.018442 0.0017188 1e-05
0.0185763 0.00172265 1e-05
0.0187107 0.00172644 1e-05
0.018845 0.00173016 1e-05
0.0189794 0.00173382 1e-05
0.0191137 0.00173742 1e-05
0.0192491 0.00174097 1e-05
0.0193845 0.00174445 1e-05
0.0195199 0.00174785 1e-05
0.0196554 0.00175118 1e-05
0.0197907 0.00175443 1e-05
0.0199272 0.00175763 1e-05
0.0200636 0.00176073 1e-05
0.0202001 0.00176374 1e-05
0.0203366 0.00176666 1e-05
0.020473 0.0017695 1e-05
0.0206105 0.00177227 1e-05
0.020748 0.00177492 1e-05
0.0208855 0.00177747 1e-05
0.0210231 0.00177991 1e-05
0.0211606 0.00178225 1e-05
0.0212991 0.00178451 1e-05
0.0214377 0.00178663 1e-05
0.0215763 0.00178862 1e-05
0.0217149 0.0017905 1e-05
0.0218535 0.00179225 1e-05
0.0219931 0.00179389 1e-05
0.0221328 0.00179538 1e-05
0.0222724 0.00179672 1e-05
0.0224121 0.00179792 1e-05
0.0225517 0.00179898 1e-05
0.0226925 0.0017999 1e-05
0.0228332 0.00180065 1e-05
0.022974 0.00180122 1e-05
0.0231147 0.00180163 1e-05
0.0232555 0.00180186 1e-05
0.0233973 0.00180194 1e-05
0.0235391 0.0018018 1e-05
0.023681 0.00180148 1e-05
0.0238228 0.00180095 1e-05
0.0239647 0.00180023 1e-05
0.0241076 0.00179931 1e-05
0.0242505 0.00179816 1e-05
0.0243935 0.00179678 1e-05
0.0245364 0.00179518 1e-05
0.0246794 0.00179334 1e-05
0.0247001 0.00179305 1e-05
0.0247209 0.00179274 1e-05
0.0247417 0.00179243 1e-05
0.0247625 0.00179212 1e-05
[...]
POINT_DATA 12085
 FIELD attributes 1
U 3 12085 float
10.0004 	0.00737805 	0 10.0004 	0.00590244 	0 10.0003 	0.00442683 	0 10.0002 	0.00295122 	0 10.0001 	0.00147561 	0 10 	0 	0
10 	0.000967712 	0 10 	0.000774169 	0 10 	0.000580627 	0 10 	0.000387085 	0 10 	0.000193542 	0 10 	0 	0
10.0001 	0.000607946 	0 10.0001 	0.000486206 	0 10 	0.000364466 	0 10 	0.000242726 	0 10 	0.000120986 	0 10 	0 	0
10 	0.000439724 	0 10 	0.000351779 	0 10 	0.000263834 	0 10 	0.00017589 	0 10 	8.79448e-05 	0 10 	0 	0
10 	0.000265476 	0 10 	0.000212381 	0 10 	0.000159285 	0 10 	0.00010619 	0 10 	5.30951e-05 	0 10 	0 	0
10 	0.000147523 	0 10 	0.000118018 	0 10 	8.85137e-05 	0 10 	5.90092e-05 	0 10 	2.95046e-05 	0 10 	0 	0
10 	-8.34822e-05 	0 10 	-6.67857e-05 	0 10 	-5.00893e-05 	0 10 	-3.33929e-05 	0 10 	-1.66964e-05 	0 10 	0 	0
10 	-0.000284631 	0 10 	-0.000227705 	0 10 	-0.000170779 	0 10 	-0.000113852 	0 10 	-5.69262e-05 	0 10 	0 	0
9.99999 	-0.00036712 	0 9.99999 	-0.000293696 	0 9.99999 	-0.000220272 	0 10 	-0.000146848 	0 10 	-7.34239e-05 	0 10 	0 	0
9.17393 	0.0871385 	0 9.13085 	0.0697108 	0 9.08744 	0.0522828 	0 9.04371 	0.0348546 	0 8.99964 	0.0174263 	0 8.95524 	0 	0
10.0004 	0.00737805 	0 10.0024 	0.0153185 	0 10.0044 	0.0224217 	0 10.0064 	0.0294799 	0 10.0084 	0.0364933 	0 10.0134 	0.0467536 	0 10.016 	0.0407126 	0 10.0203 	0.0407789 	0 10.0246 	0.040845 	0 10.0289 	0.0409111 	0 10.0346 	0.045482 	0 10.0372 	0.0390245 	0 10.0408 	0.0390747 	0 10.0445 	0.039125 	0 10.0481 	0.0391752 	0 10.0519 	0.0422657 	0 10.0537 	0.0403646 	0 10.0557 	0.041756 	0 10.0578 	0.0431492 	0 10.0598 	0.0445441 	0 10.0616 	0.0469792 	0 10.0625 	0.0471327 	0 10.0634 	0.0482857 	0 10.0642 	0.0494397 	0 10.065 	0.0505947 	0 10.0657 	0.0515795 	0 10.0658 	0.051808 	0 10.066 	0.0520365 	0 10.0662 	0.0522651 	0 10.0663 	0.0524937 	0 10.0665 	0.0526915 	0 10.0665 	0.0534601 	0 10.0664 	0.0542067 	0 10.0664 	0.054954 	0 10.0664 	0.0557019 	0 10.0663 	0.0562656 	0 10.0654 	0.0567758 	0 10.0642 	0.0571642 	0 10.063 	0.057553 	0 10.0618 	0.0579419 	0 10.0604 	0.0580795 	0 10.0591 	0.0585703 	0 10.057 	0.0588713 	0 10.0549 	0.0591725 	0 10.0528 	0.0594738 	0 10.0502 	0.0594884 	0 10.0489 	0.0600092 	0 10.0462 	0.060277 	0 10.0435 	0.0605449 	0 10.0408 	0.060813 	0 10.0371 	0.0607595 	0 10.0361 	0.0612927 	0 10.0328 	0.0615268 	0 10.0296 	0.0617611 	0 10.0263 	0.0619955 	0 10.0213 	0.0618982 	0 10.0209 	0.0624782 	0 10.017 	0.0627392 	0 10.0132 	0.0630003 	0 10.0094 	0.0632616 	0 10.0029 	0.063218 	0 10.0031 	0.0639392 	0 9.99874 	0.0643341 	0 9.99433 	0.0647291 	0 9.98993 	0.0651244 	0 9.98174 	0.0652648 	0 9.98289 	0.066257 	0 9.97794 	0.0669334 	0 9.973 	0.0676102 	0 9.96806 	0.0682873 	0 9.95807 	0.0687827 	0 9.96032 	0.0702128 	0 9.95483 	0.0713216 	0 9.94934 	0.0724311 	0 9.94387 	0.073541 	0 9.93189 	0.0745356 	0 9.93542 	0.0766239 	0 9.92941 	0.0785105 	0 9.92342 	0.080398 	0 9.91744 	0.0822865 	0 9.9034 	0.0841895 	0 9.90855 	0.0873074 	0 9.90213 	0.0903048 	0 9.89574 	0.0933038 	0 9.88936 	0.0963043 	0 9.87323 	0.0994085 	0 9.88064 	0.104024 	0 9.87412 	0.109194 	0 9.86765 	0.114367 	0 9.86047 	0.119545 	0 9.84303 	0.124789 	0 9.8514 	0.131191 	0 9.8492 	0.138922 	3.46833e-21 9.84557 	0.14684 	7.42108e-21 9.83994 	0.154693 	9.97065e-21 9.82615 	0.162281 	6.91476e-21 9.83802 	0.168139 	7.68463e-20 9.84085 	0.173655 	9.11235e-20 9.84079 	0.179061 	8.7451e-20 9.83774 	0.184177 	6.41996e-20 9.82626 	0.188481 	-1.40553e-20 9.84132 	0.190562 	-3.60364e-20 9.84613 	0.192258 	-4.53202e-20 9.84686 	0.193801 	-4.95586e-20 9.84347 	0.195629 	-4.25053e-20 9.8308 	0.198096 	-1.01396e-20 9.84693 	0.199986 	-9.63728e-21 9.85152 	0.201369 	-6.73617e-21 9.8503 	0.202497 	-2.62733e-21 9.84365 	0.203873 	2.83696e-21 9.82735 	0.205687 	1.07046e-20 9.84441 	0.209976 	3.0092e-21 9.84931 	0.21308 	-8.11595e-21 9.84641 	0.215422 	-2.14426e-20 9.83643 	0.2171 	-3.85786e-20 9.81663 	0.217854 	-6.10015e-20 9.83587 	0.223767 	-1.09737e-19 9.84255 	0.228085 	-1.27624e-19 9.83869 	0.231064 	-1.19648e-19 9.82536 	0.232442 	-8.31079e-20 9.80202 	0.232128 	-1.63964e-20 9.82408 	0.238374 	5.9726e-20 9.83349 	0.243109 	1.05705e-19 9.82851 	0.246128 	1.17429e-19 9.81086 	0.24707 	8.7302e-20 9.7834 	0.246404 	2.4786e-20 9.80886 	0.252811 	-9.05492e-20 9.82222 	0.257869 	-1.64989e-19 9.81594 	0.26074 	-1.73099e-19 9.79272 	0.261191 	-1.06719e-19 9.76041 	0.260342 	-3.70847e-22 9.79014 	0.266966 	1.04036e-19 9.80931 	0.272442 	1.78002e-19 9.80181 	0.275022 	1.75224e-19 9.77157 	0.27476 	1.01769e-19 9.73364 	0.273537 	4.42426e-21 9.76837 	0.280438 	-7.0891e-20 9.7955 	0.286528 	-1.36053e-19 9.78694 	0.288812 	-1.5376e-19 9.74799 	0.287671 	-1.03985e-19 9.7038 	0.285939 	-4.25924e-20 9.7437 	0.293208 	-1.03106e-19 9.7808 	0.300176 	-1.59642e-19 9.7714 	0.302225 	-1.51983e-19 9.72221 	0.300032 	-8.18066e-20 9.67168 	0.297697 	-9.53454e-21 9.7165 	0.305342 	-1.05445e-20 9.76139 	0.312991 	-1.1529e-20 9.75102 	0.314828 	7.67819e-22 9.69452 	0.311861 	9.25013e-21 9.638 	0.308892 	1.77324e-20 9.68705 	0.31684 	9.69595e-21 9.7362 	0.324793 	1.6672e-21 9.72681 	0.326627 	0 9.66511 	0.32303 	0 9.60337 	0.319432 	0 9.65549 	0.327477 	0 9.70771 	0.335529 	0 9.69959 	0.337291 	-1.34449e-20 9.63394 	0.333063 	-3.89832e-20 9.56825 	0.328832 	-6.45273e-20 9.62191 	0.33654 	-1.19181e-19 9.67568 	0.344255 	-1.7383e-19 9.66905 	0.345847 	-1.73965e-19 9.60127 	0.341244 	-1.19157e-19 9.53343 	0.336637 	-6.43416e-20 9.58694 	0.343688 	4.27941e-20 9.64055 	0.350747 	1.49933e-19 9.63536 	0.352161 	1.66349e-19 9.56748 	0.347571 	9.60897e-20 9.49955 	0.342977 	2.58229e-20 9.5514 	0.349258 	9.76601e-20 9.60333 	0.355545 	1.69491e-19 9.59933 	0.356799 	1.6899e-19 9.53304 	0.35252 	9.67335e-20 9.46671 	0.348238 	2.44704e-20 9.51548 	0.353603 	1.28353e-20 9.56434 	0.358975 	1.19529e-21 9.56073 	0.359997 	6.93091e-24 9.49804 	0.356265 	0 9.43487 	0.352494 	0 9.4795 	0.356866 	0 9.51736 	0.36073 	-1.19383e-22 9.51183 	0.361349 	-9.96117e-22 9.4628 	0.35883 	-1.01097e-20 9.40407 	0.355612 	-2.10552e-20 9.44398 	0.359007 	-9.32997e-20 9.47015 	0.361482 	-1.3963e-19 9.46434 	0.361822 	-1.25838e-19 9.42799 	0.360241 	-7.11428e-20 9.37457 	0.357588 	6.39242e-21 9.40976 	0.360049 	9.94571e-20 9.42572 	0.361375 	1.43513e-19 9.41977 	0.361407 	1.31772e-19 9.39434 	0.360414 	8.34146e-20 9.34637 	0.358236 	-7.30011e-21 9.37685 	0.359692 	-9.32187e-22 9.38423 	0.360034 	-5.60219e-21 9.3783 	0.359733 	-1.66256e-20 9.36198 	0.359023 	-2.74891e-20 9.31962 	0.357286 	-3.79519e-20 9.34603 	0.357842 	-2.8227e-20 9.34665 	0.357498 	-1.8473e-20 9.34087 	0.356931 	-8.71131e-21 9.3317 	0.356289 	0 9.29451 	0.355029 	0 9.31721 	0.354939 	0 9.3126 	0.354192 	-1.11436e-20 9.30703 	0.353421 	-2.26703e-20 9.30145 	0.35265 	-3.4196e-20 9.27094 	0.351764 	-3.95539e-20 9.28721 	0.351079 	-1.13334e-19 9.28195 	0.350055 	-1.11138e-19 9.27668 	0.349029 	-1.08952e-19 9.27138 	0.348002 	-1.06774e-19 9.24896 	0.347182 	-4.25203e-20 9.25936 	0.345862 	-4.64684e-20 9.25452 	0.344535 	-6.90712e-20 9.24964 	0.343207 	-9.16663e-20 9.24473 	0.341876 	-1.14254e-19 9.22873 	0.340973 	-1.42805e-19 9.23467 	0.339162 	-1.6963e-19 9.23032 	0.33753 	-1.57578e-19 9.22594 	0.335894 	-1.45535e-19 9.22152 	0.334257 	-1.33499e-19 9.21048 	0.333096 	-9.81082e-20 9.21313 	0.330895 	-2.99605e-20 9.20939 	0.328927 	1.09284e-20 9.2056 	0.326955 	5.18428e-20 9.20176 	0.324981 	9.27828e-20 9.19452 	0.323397 	1.03069e-19 9.19497 	0.320859 	1.12341e-19 9.19191 	0.318515 	9.96525e-20 9.18879 	0.316168 	8.69829e-20 9.18561 	0.313818 	7.43324e-20 9.18118 	0.31168 	5.30897e-20 9.18055 	0.309199 	2.83665e-20 9.17855 	0.30681 	3.91121e-22 9.1765 	0.304419 	-2.75813e-20 9.17439 	0.302026 	-5.55509e-20 9.17191 	0.299283 	-8.75631e-20 9.1716 	0.298979 	-9.10488e-20 9.17129 	0.298675 	-9.45345e-20 9.17098 	0.298371 	-9.80202e-20 9.17067 	0.298067 	-1.01506e-19 9.17004 	0.297744 	-1.04861e-19 9.16874 	0.294529 	-1.10036e-19 9.16705 	0.291305 	-1.13218e-19 9.16529 	0.288078 	-1.16339e-19 9.16345 	0.284847 	-1.19399e-19 9.15863 	0.281475 	-1.03439e-19 9.1606 	0.277722 	-8.16793e-20 9.15993 	0.27398 	-6.00203e-20 9.15917 	0.270235 	-3.8373e-20 9.15831 	0.266485 	-1.67373e-20 9.15265 	0.26256 	0 9.15712 	0.258094 	7.66967e-21 9.15757 	0.253742 	1.76889e-20 9.15792 	0.249386 	2.77151e-20 9.15815 	0.245027 	3.77481e-20 9.15245 	0.240503 	4.80867e-20 9.15876 	0.235164 	8.62904e-20 9.16041 	0.230087 	6.79513e-20 9.16193 	0.225007 	4.94806e-20 9.16332 	0.219924 	3.08781e-20 9.15819 	0.214717 	-4.92e-20 9.1658 	0.20836 	-1.18374e-19 9.16865 	0.20244 	-1.30468e-19 9.17137 	0.196519 	-1.42437e-19 9.17393 	0.190594 	-1.54281e-19 9.16988 	0.184623 	-9.73298e-20 9.17845 	0.177098 	-6.95444e-20 9.18253 	0.170183 	-3.72624e-20 9.18644 	0.163266 	-4.99082e-21 9.19019 	0.156348 	2.72703e-20 9.18753 	0.149479 	4.98585e-20 9.19677 	0.140669 	4.46324e-20 9.20196 	0.132579 	4.42074e-20 9.20697 	0.124488 	4.38091e-20 9.2118 	0.116399 	4.34375e-20 9.21069 	0.108439 	5.29355e-20 9.22026 	0.0982435 	7.61268e-20 9.22639 	0.0887738 	6.52299e-20 9.23231 	0.0793066 	5.4222e-20 9.23802 	0.0698419 	4.31033e-20 9.23858 	0.060546 	9.18532e-21 9.24817 	0.0488324 	-2.0844e-20 9.25496 	0.0377623 	3.32421e-21 9.2615 	0.0266972 	2.76812e-20 9.26781 	0.015637 	5.22266e-20 9.27005 	0.00474909 	1.17247e-19 9.27922 	-0.00861327 	1.63447e-19 9.28627 	-0.0214848 	1.71849e-19 9.29306 	-0.0343486 	1.80007e-19 9.29958 	-0.0472047 	1.87922e-19 9.30351 	-0.0599222 	1.678e-19 9.31173 	-0.0750456 	1.61913e-19 9.31861 	-0.0898808 	1.21977e-19 9.32519 	-0.104705 	8.16951e-20 9.33149 	-0.119519 	4.10682e-20 9.33717 	-0.1343 	-4.52576e-21 9.33825 	-0.136775 	-4.3649e-21 9.33918 	-0.139213 	-4.16292e-21 9.3401 	-0.141651 	-3.96096e-21 9.34101 	-0.144088 	-3.75903e-21 9.34184 	-0.146316 	-3.57443e-21 9.34701 	-0.160725 	-6.23545e-21 9.35193 	-0.175119 	-9.09008e-21 9.35661 	-0.189499 	-1.21379e-20 9.36105 	-0.203864 	-1.53787e-20 9.36568 	-0.218013 	2.37697e-21 9.37171 	-0.237046 	3.92236e-20 9.37629 	-0.255845 	5.69802e-20 9.38051 	-0.274621 	7.50024e-20 9.3844 	-0.293375 	9.32896e-20 9.38858 	-0.311707 	5.74092e-20 9.39469 	-0.333126 	4.40148e-20 9.39728 	-0.353803 	3.08457e-20 9.39951 	-0.374456 	1.76329e-20 9.40139 	-0.395086 	4.37667e-21 9.40331 	-0.415078 	2.78038e-20 9.40984 	-0.439007 	2.19385e-19 9.40987 	-0.461321 	2.17092e-19 9.40947 	-0.483595 	2.13588e-19 9.40858 	-0.505662 	1.54835e-19 9.407 	-0.527227 	-5.62892e-20 9.41069 	-0.552811 	-5.17028e-20 9.41114 	-0.577496 	-4.69966e-20 9.40753 	-0.601032 	-4.22052e-20 9.40269 	-0.62397 	-7.04822e-20 9.3972 	-0.646735 	-1.09581e-19 9.39758 	-0.673452 	-2.95107e-19 9.39754 	-0.700143 	-4.80534e-19 9.39136 	-0.72474 	-4.3893e-19 9.38167 	-0.748059 	-1.85134e-19 9.37161 	-0.77141 	6.90268e-20 9.36788 	-0.798607 	3.65492e-20 9.36374 	-0.825785 	3.96831e-21 9.35683 	-0.851898 	1.66451e-20 9.34315 	-0.875482 	3.46334e-20 9.32847 	-0.898876 	5.29091e-20 9.32048 	-0.92599 	3.96127e-20 9.31011 	-0.952234 	4.73861e-20 9.29813 	-0.977943 	6.80506e-20 9.28577 	-1.00364 	8.8902e-20 9.26692 	-1.02681 	1.01755e-19 9.25636 	-1.04737 	2.44011e-19 9.24339 	-1.06681 	2.18384e-19 9.23019 	-1.08624 	1.92295e-19 9.21676 	-1.10567 	1.65743e-19 9.20547 	-1.12174 	1.43389e-19 9.20132 	-1.1277 	1.40557e-19 9.19716 	-1.13366 	1.37709e-19 9.19297 	-1.13961 	1.34847e-19 9.18876 	-1.14557 	1.3197e-19 9.18419 	-1.15122 	1.36369e-19 9.16502 	-1.17559 	1.01392e-19 9.14394 	-1.19895 	6.62658e-20 9.12253 	-1.22233 	3.10217e-20 9.10052 	-1.24547 	0 9.07618 	-1.26695 	0 9.05555 	-1.29116 	0 9.03379 	-1.31487 	-3.3066e-21 9.00769 	-1.33597 	-2.28661e-20 8.97892 	-1.35519 	-4.24193e-20 8.94974 	-1.3745 	-6.19357e-20 8.92455 	-1.39625 	-2.8979e-20 8.89869 	-1.41773 	0 8.87014 	-1.43729 	0 8.83962 	-1.45575 	-1.53613e-20 8.8063 	-1.47273 	-5.26817e-20 8.78504 	-1.48663 	-4.66643e-21 8.76182 	-1.49895 	0 8.73826 	-1.51111 	0 8.71455 	-1.52327 	0 8.69311 	-1.53421 	0 8.68357 	-1.5394 	0 8.67399 	-1.5446 	0 8.66439 	-1.54979 	0 8.65469 	-1.55486 	0 8.64459 	-1.55934 	0 8.6106 	-1.57589 	-2.79215e-21 8.57474 	-1.59093 	-1.08024e-20 8.5386 	-1.60601 	-1.87593e-20 8.50142 	-1.61966 	-2.66988e-20 8.46317 	-1.63218 	-3.46531e-20 8.42651 	-1.64639 	-1.89308e-20 8.38957 	-1.66063 	-3.16569e-21 8.35144 	-1.6728 	0 8.3111 	-1.68269 	-6.8675e-21 8.27012 	-1.69243 	-1.46382e-20 8.24243 	-1.70031 	-3.37072e-21 8.21418 	-1.70702 	0 8.18561 	-1.71323 	0 8.15693 	-1.71945 	0 8.13015 	-1.72526 	0 8.11727 	-1.72842 	0 8.10437 	-1.73158 	0 8.09144 	-1.73475 	0 8.0784 	-1.73764 	-8.92154e-22 8.06515 	-1.74004 	-3.2787e-21 8.02328 	-1.74896 	3.83815e-25 7.98004 	-1.7566 	8.4489e-24 7.93657 	-1.76428 	1.64609e-23 7.89255 	-1.77011 	-9.04326e-22 7.84805 	-1.77556 	-2.03868e-21 7.80418 	-1.78212 	3.67969e-20 7.76008 	-1.78821 	6.41861e-20 7.71575 	-1.79278 	5.5923e-20 7.67121 	-1.79738 	4.75479e-20 7.62562 	-1.80126 	2.19683e-20 7.61614 	-1.80223 	2.13876e-20 7.6067 	-1.80299 	1.95631e-20 7.59729 	-1.80357 	1.66532e-20 7.58788 	-1.80415 	1.37431e-20 7.5786 	-1.80472 	1.0879e-20 7.54275 	-1.80757 	1.85335e-21 7.50676 	-1.81044 	-7.16274e-21 7.47065 	-1.81333 	-1.61691e-20 7.43401 	-1.81558 	-2.76145e-20 7.39668 	-1.81716 	-4.17181e-20 7.35178 	-1.81975 	-5.74595e-20 7.30668 	-1.82237 	-7.31987e-20 7.26096 	-1.824 	-6.48474e-20 7.21384 	-1.82467 	-3.70787e-20 7.16634 	-1.82538 	-9.17772e-21 7.14319 	-1.82602 	-3.36507e-21 7.11999 	-1.82638 	-1.97083e-22 7.09672 	-1.82639 	-1.80497e-22 7.0734 	-1.8264 	-1.63959e-22 7.05081 	-1.82642 	-1.48007e-22 7.02856 	-1.82656 	-1.05862e-22 7.00627 	-1.82671 	-6.36852e-23 6.98394 	-1.82687 	-2.14752e-23 6.96123 	-1.82669 	0 6.93809 	-1.82616 	0 6.89513 	-1.82567 	0 6.85183 	-1.82518 	4.26109e-22 6.80691 	-1.82419 	5.81771e-21 6.76105 	-1.82234 	1.7685e-20 6.71486 	-1.82051 	2.95951e-20 6.68071 	-1.81949 	5.71595e-20 6.64619 	-1.81812 	6.62418e-20 6.61127 	-1.81635 	5.40627e-20 6.57626 	-1.81459 	4.18339e-20 6.54261 	-1.81292 	3.00671e-20 6.53347 	-1.81245 	2.91206e-20 6.52432 	-1.81198 	2.8173e-20 6.51517 	-1.81151 	2.72244e-20 6.50591 	-1.81093 	2.60924e-20 6.49653 	-1.81021 	2.47644e-20 6.45562 	-1.80755 	1.9108e-20 6.41355 	-1.80481 	1.19407e-20 6.37134 	-1.80208 	4.75736e-21 6.32839 	-1.79856 	4.63171e-21 6.28502 	-1.79486 	6.13612e-21 6.24471 	-1.79186 	4.06241e-20 6.20409 	-1.7886 	6.23511e-20 6.16295 	-1.78479 	5.80629e-20 6.12169 	-1.78099 	5.37161e-20 6.07973 	-1.77719 	4.09191e-20 6.07616 	-1.7769 	3.7939e-20 6.07258 	-1.77659 	3.65794e-20 6.06897 	-1.77624 	3.71724e-20 6.06536 	-1.77589 	3.77661e-20 6.06176 	-1.77554 	3.8358e-20 6.02624 	-1.77178 	6.54811e-20 5.99062 	-1.76803 	9.27407e-20 5.95492 	-1.7643 	1.20139e-19 5.91883 	-1.76019 	8.88204e-20 5.88222 	-1.75567 	-7.25044e-21 5.84505 	-1.75156 	-9.64076e-20 5.80777 	-1.74746 	-1.8553e-19 5.76989 	-1.74273 	-1.71389e-19 5.73103 	-1.73786 	-1.07222e-19 5.69152 	-1.73298 	-2.63317e-20 5.67577 	-1.73123 	-1.83491e-20 5.65989 	-1.72934 	-1.3766e-20 5.64388 	-1.72731 	-1.28381e-20 5.62785 	-1.72527 	-1.19116e-20 5.61206 	-1.72327 	-1.10015e-20 5.59143 	-1.72042 	-7.90144e-21 5.57076 	-1.71756 	-4.80005e-21 5.55007 	-1.71471 	-1.69731e-21 5.52916 	-1.71166 	0 5.50797 	-1.70834 	0 5.47395 	-1.70355 	0 5.43984 	-1.69877 	0 5.40421 	-1.69371 	-3.18981e-21 5.36801 	-1.68814 	-6.51508e-21 5.33162 	-1.68256 	-9.84149e-21 5.30402 	-1.67876 	-3.97324e-20 5.2761 	-1.67468 	-4.33479e-20 5.24786 	-1.67033 	-2.21392e-20 5.21957 	-1.66598 	-8.86603e-22 5.19198 	-1.66176 	1.98376e-20 5.18591 	-1.66075 	2.36349e-20 5.17985 	-1.65974 	2.74338e-20 5.17377 	-1.65873 	3.12341e-20 5.16764 	-1.65766 	3.01785e-20 5.16142 	-1.6565 	2.25452e-20 5.1299 	-1.65127 	4.74069e-20 5.09752 	-1.64598 	5.95505e-20 5.06505 	-1.64069 	7.17296e-20 5.032 	-1.63487 	4.99039e-20 4.99854 	-1.62882 	1.30637e-20 4.96791 	-1.62386 	6.04946e-21 4.93709 	-1.6188 	4.62736e-23 4.90557 	-1.61313 	2.37017e-23 4.87398 	-1.60746 	1.18368e-24 4.84106 	-1.60168 	-1.89062e-21 4.833 	-1.60041 	-6.07255e-22 4.82484 	-1.59906 	1.22293e-23 4.81658 	-1.59761 	3.54426e-23 4.80831 	-1.59616 	5.86599e-23 4.8001 	-1.59473 	8.16961e-23 4.77832 	-1.59061 	1.09276e-22 4.7565 	-1.58649 	1.36815e-22 4.73464 	-1.58238 	1.64311e-22 4.7125 	-1.57803 	-7.75928e-22 4.68991 	-1.57332 	-3.15676e-21 4.66199 	-1.56813 	-2.58579e-20 4.634 	-1.56294 	-4.85556e-20 4.60478 	-1.5573 	-5.19731e-20 4.57453 	-1.55116 	-3.6605e-20 4.54414 	-1.54501 	-2.12059e-20 4.52246 	-1.5411 	-1.83215e-20 4.50036 	-1.53686 	-1.66716e-20 4.47792 	-1.53236 	-1.59731e-20 4.45544 	-1.52787 	-1.52803e-20 4.43338 	-1.52347 	-1.46074e-20 4.42738 	-1.52219 	-1.30061e-20 4.42139 	-1.5209 	-1.14046e-20 4.41539 	-1.51962 	-9.80284e-21 4.4093 	-1.51827 	-9.2e-21 4.40307 	-1.5168 	-1.03008e-20 4.37717 	-1.51134 	-7.46149e-21 4.3503 	-1.50571 	-6.98423e-21 4.32338 	-1.50008 	-6.50228e-21 4.29572 	-1.49388 	-4.94252e-21 4.26761 	-1.48739 	-2.86722e-21 4.24235 	-1.48221 	-1.0724e-22 4.21696 	-1.47696 	2.63304e-21 4.19058 	-1.47096 	5.0617e-21 4.1639 	-1.46491 	7.78158e-21 4.13604 	-1.45863 	1.17153e-20 4.1268 	-1.45678 	1.13895e-20 4.11733 	-1.45475 	1.07693e-20 4.10771 	-1.4526 	9.94041e-21 4.09807 	-1.45046 	9.11191e-21 4.08851 	-1.44833 	8.2909e-21 4.07285 	-1.44461 	5.68033e-21 4.05716 	-1.4409 	3.06938e-21 4.04146 	-1.43718 	4.58031e-22 4.02551 	-1.43327 	-1.31104e-21 4.00911 	-1.42898 	-1.4728e-21 3.98596 	-1.42361 	-4.0389e-21 3.96256 	-1.4182 	-6.3468e-21 3.93777 	-1.4123 	-6.33779e-21 3.91214 	-1.4057 	-3.23629e-21 3.88641 	-1.39909 	-1.28002e-22 3.86337 	-1.39384 	1.40198e-22 3.83972 	-1.38811 	3.10425e-22 3.81558 	-1.382 	4.07678e-22 3.7914 	-1.37589 	5.05092e-22 3.76698 	-1.36973 	6.19777e-22 3.76619 	-1.36955 	6.10679e-22 3.76538 	-1.36936 	5.40124e-22 3.76456 	-1.36915 	4.30128e-22 3.76374 	-1.36895 	3.2013e-22 3.76292 	-1.36874 	2.10207e-22 3.74116 	-1.36297 	-1.35535e-21 3.71937 	-1.35721 	-2.91941e-21 3.69754 	-1.35144 	-4.48193e-21 3.67539 	-1.34538 	-4.35561e-21 3.65254 	-1.33867 	-5.67218e-22 3.63144 	-1.33324 	-2.81956e-22 3.61029 	-1.32781 	7.3168e-24 3.58818 	-1.32169 	4.37436e-21 3.56476 	-1.31488 	1.21002e-20 3.54125 	-1.30806 	1.98448e-20 3.52467 	-1.30384 	3.8943e-20 3.50759 	-1.29914 	3.80239e-20 3.49022 	-1.2942 	2.65103e-20 3.47284 	-1.28925 	1.49914e-20 3.45564 	-1.28435 	3.60558e-21 3.45121 	-1.28303 	1.61037e-21 3.44678 	-1.2817 	-3.84883e-22 3.44236 	-1.28037 	-2.38018e-21 3.43788 	-1.27898 	-4.20654e-21 3.43328 	-1.27744 	-5.5906e-21 3.41347 	-1.27161 	-5.18331e-20 3.39294 	-1.26549 	-7.67373e-20 3.37238 	-1.25936 	-1.01665e-19 3.35136 	-1.25267 	-7.42604e-20 3.32993 	-1.24553 	-5.24247e-21 3.31076 	-1.23999 	3.89706e-20 3.29155 	-1.23446 	8.31802e-20 3.27164 	-1.22808 	8.44336e-20 3.25069 	-1.22116 	6.00354e-20 3.22939 	-1.21411 	2.98274e-20 3.21718 	-1.2106 	2.66654e-20 3.2046 	-1.20666 	2.5399e-20 3.19186 	-1.20253 	2.49977e-20 3.17911 	-1.1984 	2.45979e-20 3.16644 	-1.1943 	2.42022e-20 3.1597 	-1.192 	2.12636e-20 3.15297 	-1.18971 	1.83247e-20 3.14623 	-1.18741 	1.53857e-20 3.13962 	-1.18504 	1.37269e-20 3.1334 	-1.18244 	1.61018e-20 3.11504 	-1.1766 	8.8308e-20 3.09656 	-1.17031 	1.14354e-19 3.07806 	-1.16402 	1.40414e-19 3.06054 	-1.15715 	9.73276e-20 3.04344 	-1.15002 	2.41939e-20 3.02525 	-1.14427 	1.52914e-20 3.00705 	-1.13853 	6.39119e-21 2.99015 	-1.132 	8.67405e-21 2.97323 	-1.12515 	1.06717e-20 2.95627 	-1.1181 	1.20818e-20 2.94522 	-1.1146 	-2.64371e-20 2.93476 	-1.11074 	-2.39346e-20 2.92452 	-1.10674 	-6.14011e-21 2.91429 	-1.10275 	1.16527e-20 2.90408 	-1.09877 	2.94051e-20 2.89737 	-1.09621 	4.37654e-20 2.89067 	-1.09366 	5.81255e-20 2.88396 	-1.0911 	7.24854e-20 2.87754 	-1.08848 	7.31483e-20 2.87174 	-1.0857 	4.3998e-20 2.85423 	-1.07952 	1.02012e-19 2.83704 	-1.073 	1.32717e-19 2.81988 	-1.06644 	1.61095e-19 2.80461 	-1.05943 	1.2121e-19 2.78976 	-1.05232 	6.74109e-20 2.77247 	-1.04618 	4.20658e-20 2.75553 	-1.03995 	2.04958e-20 2.74047 	-1.03326 	1.91305e-20 2.72546 	-1.02654 	1.93322e-20 2.71079 	-1.01949 	3.45828e-20 2.70426 	-1.01715 	2.76376e-20 2.69828 	-1.01467 	2.65086e-20 2.69259 	-1.01213 	2.83245e-20 2.6869 	-1.0