# vtk DataFile Version 2.0
track0
ASCII
DATASET POLYDATA
POINTS 12085 float
-0.0205 0.001 1e-05
-0.02052 0.000999985 1e-05
-0.02054 0.000999973 1e-05
-0.02056 0.000999965 1e-05
-0.02058 0.000999959 1e-05
-0.0206 0.000999956 1e-05
-0.0205 0.00367778 1e-05
-0.02052 0.00367778 1e-05
-0.02054 0.00367777 1e-05
-0.02056 0.00367777 1e-05
-0.02058 0.00367777 1e-05
-0.0206 0.00367777 1e-05
-0.0205 0.00635556 1e-05
-0.02052 0.00635555 1e-05
-0.02054 0.00635555 1e-05
-0.02056 0.00635555 1e-05
-0.02058 0.00635555 1e-05
-0.0206 0.00635555 1e-05
-0.0205 0.00903333 1e-05
-0.02052 0.00903333 1e-05
-0.02054 0.00903333 1e-05
-0.02056 0.00903333 1e-05
-0.02058 0.00903333 1e-05
-0.0206 0.00903333 1e-05
-0.0205 0.0117111 1e-05
-0.02052 0.0117111 1e-05
-0.02054 0.0117111 1e-05
-0.02056 0.0117111 1e-05
-0.02058 0.0117111 1e-05
-0.0206 0.0117111 1e-05
-0.0205 0.0143889 1e-05
-0.02052 0.0143889 1e-05
-0.02054 0.0143889 1e-05
-0.02056 0.0143889 1e-05
-0.02058 0.0143889 1e-05
-0.0206 0.0143889 1e-05
-0.0205 0.0170667 1e-05
-0.02052 0.0170667 1e-05
-0.02054 0.0170667 1e-05
-0.02056 0.0170667 1e-05
-0.02058 0.0170667 1e-05
-0.0206 0.0170667 1e-05
-0.0205 0.0197444 1e-05
-0.02052 0.0197444 1e-05
-0.02054 0.0197444 1e-05
-0.02056 0.0197444 1e-05
-0.02058 0.0197444 1e-05
-0.0206 0.0197444 1e-05
-0.0205 0.0224222 1e-05
-0.02052 0.0224222 1e-05
-0.02054 0.0224222 1e-05
-0.02056 0.0224222 1e-05
-0.02058 0.0224222 1e-05
-0.0206 0.0224222 1e-05
-0.0205 0.0251 1e-05
-0.02052 0.0250998 1e-05
-0.02054 0.0250997 1e-05
-0.02056 0.0250995 1e-05
-0.02058 0.0250995 1e-05
-0.0206 0.0250994 1e-05
-0.0205 0.001 1e-05
-0.0202034 0.00100022 1e-05
-0.0199069 0.00100067 1e-05
-0.0196103 0.00100134 1e-05
-0.0193137 0.00100221 1e-05
-0.0190172 0.00100329 1e-05
-0.0187132 0.00100471 1e-05
-0.0184093 0.00100595 1e-05
-0.0181054 0.00100718 1e-05
-0.0178015 0.00100842 1e-05
-0.0174976 0.00100966 1e-05
-0.0172058 0.00101098 1e-05
-0.016914 0.00101212 1e-05
-0.0166222 0.00101325 1e-05
-0.0163305 0.00101439 1e-05
-0.0160387 0.00101553 1e-05
-0.0157586 0.00101671 1e-05
-0.0154784 0.00101783 1e-05
-0.0151983 0.00101899 1e-05
-0.0149182 0.0010202 1e-05
-0.0146381 0.00102144 1e-05
-0.0144076 0.00102251 1e-05
-0.0141771 0.00102359 1e-05
-0.0139466 0.0010247 1e-05
-0.0137161 0.00102583 1e-05
-0.0135198 0.00102682 1e-05
-0.0134745 0.00102705 1e-05
-0.0134293 0.00102728 1e-05
-0.013384 0.00102752 1e-05
-0.0133387 0.00102775 1e-05
-0.0132934 0.00102799 1e-05
-0.0130353 0.00102934 1e-05
-0.0127771 0.00103071 1e-05
-0.0125189 0.0010321 1e-05
-0.0122607 0.00103351 1e-05
-0.0120025 0.00103494 1e-05
-0.0117547 0.00103632 1e-05
-0.0115068 0.00103772 1e-05
-0.0112589 0.00103913 1e-05
-0.0110111 0.00104055 1e-05
-0.0107632 0.00104197 1e-05
-0.0105252 0.00104335 1e-05
-0.0102873 0.00104473 1e-05
-0.0100493 0.00104613 1e-05
-0.00981133 0.00104753 1e-05
-0.00957337 0.00104894 1e-05
-0.00934491 0.00105029 1e-05
-0.00911645 0.00105165 1e-05
-0.00888799 0.00105302 1e-05
-0.00865954 0.0010544 1e-05
-0.00843108 0.00105578 1e-05
-0.00821175 0.00105711 1e-05
-0.00799242 0.00105845 1e-05
-0.00777309 0.0010598 1e-05
-0.00755376 0.00106115 1e-05
-0.00733443 0.0010625 1e-05
-0.00712387 0.0010638 1e-05
-0.0069133 0.00106512 1e-05
-0.00670273 0.00106643 1e-05
-0.00649217 0.00106776 1e-05
-0.0062816 0.00106909 1e-05
-0.00607944 0.00107037 1e-05
-0.00587729 0.00107166 1e-05
-0.00567514 0.00107296 1e-05
-0.00547298 0.00107427 1e-05
-0.00527083 0.00107559 1e-05
-0.00507675 0.00107686 1e-05
-0.00488267 0.00107815 1e-05
-0.0046886 0.00107945 1e-05
-0.00449452 0.00108076 1e-05
-0.00430044 0.00108209 1e-05
-0.00411412 0.00108338 1e-05
-0.0039278 0.00108469 1e-05
-0.00374147 0.00108603 1e-05
-0.00355515 0.00108738 1e-05
-0.00336883 0.00108876 1e-05
-0.00318995 0.0010901 1e-05
-0.00301107 0.00109148 1e-05
-0.00283219 0.0010929 1e-05
-0.00265331 0.00109435 1e-05
-0.00247443 0.00109583 1e-05
-0.0023027 0.00109729 1e-05
-0.00213097 0.0010988 1e-05
-0.00195924 0.00110037 1e-05
-0.00178751 0.00110199 1e-05
-0.00161577 0.00110366 1e-05
-0.0014509 0.00110532 1e-05
-0.00128603 0.00110706 1e-05
-0.00112116 0.00110888 1e-05
-0.000956295 0.00111079 1e-05
-0.000791418 0.00111279 1e-05
-0.000633135 0.0011148 1e-05
-0.000474852 0.00111691 1e-05
-0.000316572 0.00111914 1e-05
-0.000158293 0.0011215 1e-05
0 0.00112399 1e-05
0.000105677 0.00112573 1e-05
0.000211354 0.00112754 1e-05
0.000317029 0.0011294 1e-05
0.000422704 0.00113133 1e-05
0.000528387 0.00113331 1e-05
0.000634886 0.00113535 1e-05
0.000741385 0.00113741 1e-05
0.000847883 0.00113949 1e-05
0.000954381 0.00114159 1e-05
0.00106088 0.0011437 1e-05
0.00116821 0.00114586 1e-05
0.00127554 0.00114804 1e-05
0.00138286 0.00115024 1e-05
0.00149019 0.00115244 1e-05
0.00159752 0.00115467 1e-05
0.00170568 0.00115693 1e-05
0.00181384 0.00115924 1e-05
0.001922 0.00116158 1e-05
0.00203016 0.00116394 1e-05
0.00213833 0.00116633 1e-05
0.00224733 0.00116875 1e-05
0.00235633 0.00117123 1e-05
0.00246533 0.00117376 1e-05
0.00257433 0.00117632 1e-05
0.00268334 0.0011789 1e-05
0.00279319 0.0011815 1e-05
0.00290304 0.00118416 1e-05
0.00301288 0.00118688 1e-05
0.00312273 0.00118963 1e-05
0.00323259 0.0011924 1e-05
0.00334329 0.00119518 1e-05
0.00345399 0.00119804 1e-05
0.00356469 0.00120094 1e-05
0.00367539 0.00120388 1e-05
0.00378611 0.00120684 1e-05
0.00389767 0.00120981 1e-05
0.00400923 0.00121285 1e-05
0.0041208 0.00121595 1e-05
0.00423236 0.00121908 1e-05
0.00434393 0.00122222 1e-05
0.00445636 0.00122538 1e-05
0.00456879 0.00122861 1e-05
0.00468122 0.0012319 1e-05
0.00479365 0.00123521 1e-05
0.00490609 0.00123853 1e-05
0.0050194 0.00124187 1e-05
0.0051327 0.00124528 1e-05
0.005246 0.00124876 1e-05
0.0053593 0.00125226 1e-05
0.00547262 0.00125576 1e-05
0.00558681 0.00125927 1e-05
0.00570099 0.00126286 1e-05
0.00581518 0.00126652 1e-05
0.00592936 0.00127021 1e-05
0.00604356 0.00127388 1e-05
0.00615863 0.00127757 1e-05
0.0062737 0.00128134 1e-05
0.00638877 0.00128517 1e-05
0.00650384 0.00128904 1e-05
0.00661893 0.00129288 1e-05
0.0067349 0.00129674 1e-05
0.00685087 0.00130068 1e-05
0.00696683 0.00130468 1e-05
0.0070828 0.00130872 1e-05
0.00719878 0.00131273 1e-05
0.00731565 0.00131674 1e-05
0.00743252 0.00132083 1e-05
0.00754938 0.00132499 1e-05
0.00766625 0.00132917 1e-05
0.00778313 0.00133332 1e-05
0.00790091 0.00133748 1e-05
0.00801869 0.0013417 1e-05
0.00813647 0.00134599 1e-05
0.00825424 0.00135029 1e-05
0.00837203 0.00135457 1e-05
0.00849073 0.00135886 1e-05
0.00860942 0.0013632 1e-05
0.00872811 0.00136759 1e-05
0.0088468 0.001372 1e-05
0.00896551 0.00137639 1e-05
0.00908513 0.00138079 1e-05
0.00920475 0.00138524 1e-05
0.00932436 0.00138973 1e-05
0.00944398 0.00139423 1e-05
0.0095636 0.00139872 1e-05
0.00968415 0.00140322 1e-05
0.0098047 0.00140776 1e-05
0.00992524 0.00141233 1e-05
0.0100458 0.00141691 1e-05
0.0101663 0.00142148 1e-05
0.0102878 0.00142607 1e-05
0.0104093 0.00143069 1e-05
0.0105308 0.00143533 1e-05
0.0106523 0.00143997 1e-05
0.0107738 0.00144462 1e-05
0.0108962 0.00144929 1e-05
0.0110186 0.00145397 1e-05
0.0111411 0.00145867 1e-05
0.0112635 0.00146336 1e-05
0.0113859 0.00146806 1e-05
0.0115093 0.00147279 1e-05
0.0116327 0.00147752 1e-05
0.0117561 0.00148225 1e-05
0.0118795 0.00148699 1e-05
0.0120028 0.00149172 1e-05
0.0121272 0.00149649 1e-05
0.0122515 0.00150125 1e-05
0.0123759 0.001506 1e-05
0.0125002 0.00151075 1e-05
0.0126245 0.0015155 1e-05
0.0127498 0.00152029 1e-05
0.0128752 0.00152506 1e-05
0.0130005 0.00152983 1e-05
0.0131258 0.00153459 1e-05
0.0132511 0.00153934 1e-05
0.0133774 0.00154413 1e-05
0.0135036 0.0015489 1e-05
0.0136299 0.00155366 1e-05
0.0137562 0.00155842 1e-05
0.0138825 0.00156316 1e-05
0.0140098 0.00156793 1e-05
0.014137 0.00157269 1e-05
0.0142643 0.00157742 1e-05
0.0143915 0.00158215 1e-05
0.0145188 0.00158685 1e-05
0.0146471 0.00159159 1e-05
0.0147753 0.0015963 1e-05
0.0149036 0.00160099 1e-05
0.0150318 0.00160566 1e-05
0.0151601 0.00161031 1e-05
0.0152893 0.00161498 1e-05
0.0154186 0.00161963 1e-05
0.0155478 0.00162424 1e-05
0.0156771 0.00162883 1e-05
0.0158063 0.0016334 1e-05
0.0159366 0.00163798 1e-05
0.0160668 0.00164253 1e-05
0.0161971 0.00164704 1e-05
0.0163274 0.00165152 1e-05
0.0164576 0.00165597 1e-05
0.0165712 0.00165983 1e-05
0.0166848 0.00166365 1e-05
0.0167984 0.00166745 1e-05
0.016912 0.00167122 1e-05
0.017042 0.0016755 1e-05
0.0170564 0.00167597 1e-05
0.0170708 0.00167644 1e-05
0.0170852 0.00167691 1e-05
0.0170996 0.00167737 1e-05
0.0171139 0.00167784 1e-05
0.0172462 0.00168214 1e-05
0.0173785 0.00168639 1e-05
0.0175108 0.00169059 1e-05
0.0176431 0.00169475 1e-05
0.0177754 0.00169886 1e-05
0.0179087 0.00170296 1e-05
0.018042 0.001707 1e-05
0.0181753 0.00171099 1e-05
0.0183087 0.00171492 1e-05
0.018442 0.0017188 1e-05
0.0185763 0.00172265 1e-05
0.0187107 0.00172644 1e-05
0.018845 0.00173016 1e-05
0.0189794 0.00173382 1e-05
0.0191137 0.00173742 1e-05
0.0192491 0.00174097 1e-05
0.0193845 0.00174445 1e-05
0.0195199 0.00174785 1e-05
0.0196554 0.00175118 1e-05
0.0197907 0.00175443 1e-05
0.0199272 0.00175763 1e-05
0.0200636 0.00176073 1e-05
0.0202001 0.00176374 1e-05
0.0203366 0.00176666 1e-05
0.020473 0.0017695 1e-05
0.0206105 0.00177227 1e-05
0.020748 0.00177492 1e-05
0.0208855 0.00177747 1e-05
0.0210231 0.00177991 1e-05
0.0211606 0.00178225 1e-05
0.0212991 0.00178451 1e-05
0.0214377 0.00178663 1e-05
0.0215763 0.00178862 1e-05
0.0217149 0.0017905 1e-05
0.0218535 0.00179225 1e-05
0.0219931 0.00179389 1e-05
0.0221328 0.00179538 1e-05
0.0222724 0.00179672 1e-05
0.0224121 0.00179792 1e-05
0.0225517 0.00179898 1e-05
0.0226925 0.0017999 1e-05
0.0228332 0.00180065 1e-05
0.022974 0.00180122 1e-05
0.0231147 0.00180163 1e-05
0.0232555 0.00180186 1e-05
0.0233973 0.00180194 1e-05
0.0235391 0.0018018 1e-05
0.023681 0.00180148 1e-05
0.0238228 0.00180095 1e-05
0.0239647 0.00180023 1e-05
0.0241076 0.00179931 1e-05
0.0242505 0.00179816 1e-05
0.0243935 0.00179678 1e-05
0.0245364 0.00179518 1e-05
0.0246794 0.00179334 1e-05
0.0247001 0.00179305 1e-05
0.0247209 0.00179274 1e-05
0.0247417 0.00179243 1e-05
0.0247625 0.00179212 1e-05
[...]
POINT_DATA 12085
 FIELD attributes 2
p 1 12085 float
-0.796048 -0.792741 -0.789435 -0.78613 -0.782826 -0.779523
-0.964802 -0.964786 -0.96477 -0.964754 -0.964738 -0.964722
-1.17091 -1.17079 -1.17067 -1.17056 -1.17044 -1.17035
-1.30698 -1.30694 -1.30691 -1.30687 -1.30684 -1.3068
-1.3999 -1.39979 -1.39969 -1.39958 -1.39948 -1.39937
-1.45324 -1.45305 -1.45286 -1.45267 -1.45248 -1.45229
-1.4683 -1.46821 -1.46811 -1.46802 -1.46792 -1.46783
-1.43134 -1.43128 -1.43122 -1.43116 -1.43111 -1.43105
-1.33093 -1.33093 -1.33093 -1.33093 -1.33092 -1.33092
0.873565 0.854247 0.835059 0.816004 0.797082 0.778297
-0.796048 -0.795603 -0.792278 -0.788873 -0.785391 -0.777037 -0.790503 -0.804289 -0.818075 -0.83186 -0.854547 -0.872475 -0.896886 -0.921296 -0.945706 -0.971995 -0.983863 -1.00214 -1.02042 -1.03871 -1.05872 -1.07441 -1.09178 -1.10916 -1.12653 -1.14134 -1.14475 -1.14816 -1.15158 -1.15499 -1.15837 -1.17177 -1.1851 -1.19842 -1.21175 -1.22431 -1.22836 -1.23207 -1.23579 -1.2395 -1.24261 -1.24494 -1.24735 -1.24977 -1.25218 -1.25488 -1.26041 -1.26608 -1.27174 -1.27741 -1.28314 -1.28934 -1.29468 -1.30001 -1.30535 -1.30918 -1.31028 -1.3093 -1.30831 -1.30733 -1.30354 -1.29614 -1.28612 -1.27611 -1.2661 -1.25341 -1.23797 -1.22005 -1.20213 -1.1842 -1.16489 -1.14378 -1.12025 -1.09672 -1.07319 -1.04976 -1.02497 -0.997001 -0.969038 -0.94108 -0.914618 -0.887735 -0.855562 -0.823403 -0.791256 -0.762536 -0.73904 -0.719456 -0.699892 -0.680867 -0.668978 -0.660507 -0.663919 -0.669028 -0.675687 -0.688504 -0.681537 -0.702136 -0.731633 -0.767917 -0.823266 -0.833634 -0.853171 -0.876353 -0.904829 -0.945168 -0.945874 -0.943207 -0.938845 -0.941127 -0.955191 -0.965917 -0.973445 -0.978922 -0.986909 -0.99837 -1.03379 -1.06607 -1.09572 -1.11856 -1.13421 -1.18005 -1.22179 -1.25888 -1.28244 -1.29553 -1.33299 -1.36689 -1.39499 -1.40943 -1.41652 -1.43911 -1.45927 -1.47331 -1.47848 -1.48066 -1.49073 -1.50013 -1.50635 -1.51219 -1.51797 -1.52565 -1.53352 -1.54443 -1.56304 -1.58192 -1.59725 -1.61259 -1.63777 -1.67424 -1.71071 -1.73867 -1.76665 -1.80707 -1.85896 -1.91087 -1.95046 -1.99007 -2.04098 -2.1022 -2.16344 -2.21052 -2.25762 -2.31318 -2.37733 -2.44148 -2.4917 -2.54194 -2.59825 -2.66159 -2.72492 -2.77573 -2.82654 -2.88147 -2.94199 -3.00252 -3.05217 -3.10181 -3.15473 -3.21305 -3.27142 -3.32031 -3.36968 -3.42198 -3.47906 -3.53721 -3.58703 -3.63797 -3.69148 -3.74927 -3.80944 -3.86226 -3.91686 -3.97347 -4.03339 -4.09711 -4.15456 -4.21416 -4.27501 -4.33778 -4.40534 -4.46796 -4.53283 -4.59825 -4.6643 -4.73552 -4.8031 -4.87281 -4.94258 -5.01236 -5.08672 -5.1593 -5.2329 -5.30651 -5.38011 -5.45652 -5.53292 -5.6096 -5.6863 -5.76299 -5.84127 -5.9204 -5.99958 -6.07877 -6.15795 -6.23813 -6.31972 -6.40113 -6.48254 -6.56395 -6.64595 -6.72958 -6.81288 -6.89619 -6.97951 -7.06305 -7.13691 -7.21058 -7.28425 -7.35794 -7.4423 -7.45164 -7.46097 -7.4703 -7.47963 -7.48894 -7.57584 -7.66279 -7.74976 -7.83675 -7.92345 -8.01175 -8.10037 -8.18901 -8.27768 -8.36566 -8.45519 -8.54514 -8.63512 -8.72513 -8.81392 -8.90428 -8.995 -9.08576 -9.17656 -9.26558 -9.35626 -9.44695 -9.53769 -9.62849 -9.7168 -9.80672 -9.89613 -9.98561 -10.0751 -10.1615 -10.2493 -10.3362 -10.4231 -10.51 -10.5934 -10.6776 -10.7603 -10.8431 -10.926 -11.0053 -11.0841 -11.1609 -11.2379 -11.315 -11.3887 -11.4596 -11.5287 -11.598 -11.6674 -11.7346 -11.7954 -11.855 -11.9147 -11.9745 -12.0343 -12.0414 -12.0483 -12.0553 -12.0622 -12.0685 -12.1105 -12.1527 -12.195 -12.2376 -12.2781 -12.3174 -12.3537 -12.3903 -12.4271 -12.4582 -12.4882 -12.5101 -12.5324 -12.555 -12.5661 -12.5864 -12.5927 -12.5993 -12.6022 -12.5943 -12.5973 -12.5946 -12.5845 -12.5624 -12.5367 -12.5213 -12.5065 -12.477 -12.4327 -12.3888 -12.3548 -12.3213 -12.2718 -12.2107 -12.1488 -12.0962 -12.0331 -11.9638 -11.895 -11.817 -11.7586 -11.6902 -11.622 -11.5542 -11.4982 -11.4789 -11.4596 -11.4404 -11.4212 -11.3981 -11.303 -11.2059 -11.1093 -11.011 -10.8977 -10.793 -10.6878 -10.5768 -10.4516 -10.3262 -10.2077 -10.088 -9.95679 -9.8246 -9.69029 -9.59648 -9.49585 -9.39465 -9.29361 -9.203 -9.1636 -9.12423 -9.0849 -9.04505 -9.0027 -8.86 -8.71777 -8.57587 -8.43045 -8.28151 -8.13528 -7.98937 -7.84035 -7.69216 -7.54372 -7.4408 -7.33696 -7.2328 -7.12877 -7.03211 -6.98605 -6.94001 -6.89401 -6.84787 -6.80143 -6.6515 -6.50476 -6.35825 -6.21251 -6.06644 -5.92008 -5.77443 -5.63052 -5.48683 -5.34522 -5.31572 -5.28657 -5.25773 -5.22889 -5.20052 -5.08862 -4.97682 -4.86515 -4.75508 -4.64636 -4.50725 -4.36832 -4.23259 -4.10206 -3.97113 -3.90397 -3.83785 -3.77294 -3.70807 -3.64536 -3.57952 -3.5137 -3.44793 -3.38315 -3.31929 -3.18941 -3.06011 -2.93479 -2.81226 -2.68936 -2.59094 -2.49372 -2.39786 -2.30209 -2.21039 -2.18391 -2.15745 -2.13099 -2.10481 -2.0789 -1.95701 -1.83757 -1.71823 -1.60101 -1.48392 -1.36641 -1.24965 -1.1343 -1.01906 -0.904424 -0.894318 -0.884283 -0.874332 -0.864382 -0.854472 -0.750461 -0.646507 -0.54261 -0.439496 -0.336925 -0.22439 -0.111925 -0.000681713 0.108834 0.217855 0.264543 0.310982 0.357154 0.403314 0.448714 0.511665 0.574599 0.637516 0.700157 0.762579 0.871112 0.979595 1.08598 1.1917 1.29769 1.38431 1.47057 1.5565 1.64239 1.72594 1.74542 1.76491 1.7844 1.80382 1.82317 1.92772 2.03129 2.13483 2.23785 2.34091 2.44323 2.54542 2.64709 2.74871 2.84934 2.8759 2.90238 2.92878 2.95518 2.98137 3.05529 3.12919 3.20308 3.2768 3.35042 3.44975 3.54905 3.6474 3.74502 3.84289 3.91893 3.99475 4.07039 4.14601 4.22009 4.2415 4.26291 4.28432 4.30569 4.32702 4.42307 4.51847 4.61385 4.70883 4.80386 4.89795 4.99199 5.08551 5.17885 5.27174 5.30563 5.33939 5.37306 5.40674 5.44012 5.4985 5.55688 5.61526 5.67351 5.73163 5.82256 5.91338 6.00348 6.09315 6.18302 6.27192 6.3605 6.44882 6.53713 6.62556 6.62855 6.63152 6.63448 6.63744 6.6404 6.72446 6.80852 6.89256 6.97642 7.06005 7.14559 7.23112 7.31619 7.40069 7.48535 7.55134 7.617 7.68248 7.74795 7.81263 7.83047 7.84831 7.86614 7.88396 7.90171 7.98368 8.06536 8.14702 8.22828 8.30933 8.38933 8.46933 8.54894 8.62822 8.70753 8.75757 8.80735 8.85701 8.90667 8.956 8.9842 9.0124 9.0406 9.06869 9.09645 9.17301 9.24907 9.32513 9.40045 9.4755 9.55023 9.62495 9.69842 9.77146 9.84428 9.88879 9.93282 9.97668 10.0205 10.0643 10.0923 10.1203 10.1484 10.1762 10.2035 10.2747 10.3452 10.4156 10.4847 10.5535 10.6228 10.6917 10.7591 10.8265 10.8931 10.9189 10.9441 10.9691 10.9941 11.0192 11.0599 11.1007 11.1415 11.1819 11.2216 11.2862 11.3506 11.4143 11.4767 11.539 11.6015 11.6632 11.7241 11.7851 11.8457 11.853 11.8603 11.8674 11.8746 11.8818 11.9341 11.9865 12.0388 12.0906 12.1414 12.1995 12.2576 12.3146 12.3703 12.4259 12.4745 12.5222 12.5693 12.6164 12.6647 12.6716 12.6786 12.6856 12.6925 12.6992 12.7523 12.8052 12.8581 12.9101 12.961 13.0124 13.0638 13.1137 13.1628 13.2116 13.2455 13.2786 13.3113 13.344 13.3777 13.3924 13.4072 13.422 13.4366 13.4508 13.4974 13.5435 13.5896 13.6345 13.6786 13.7232 13.7678 13.8108 13.8533 13.8954 13.9232 13.9501 13.9768 14.0034 14.0312 14.0453 14.0595 14.0737 14.0877 14.1013 14.1412 14.1807 14.2201 14.2585 14.2961 14.3341 14.3722 14.4089 14.4448 14.4804 14.5116 14.5417 14.5715 14.6013 14.6332 14.6375 14.6419 14.6462 14.6504 14.6545 14.6879 14.721 14.7542 14.7869 14.8184 14.8503 14.8823 14.9132 14.943 14.9726 15.0026 15.0321 15.0608 15.0894 15.1174 15.1322 15.1462 15.1602 15.1743 15.1891 15.202 15.2149 15.2278 15.2408 15.2531 15.2791 15.3048 15.3305 15.3556 15.3799 15.4045 15.429 15.4528 15.4756 15.4984 15.5214 15.544 15.5659 15.5877 15.6089 15.6285 15.6472 15.666 15.6847 15.7056 15.7069 15.7081 15.7094 15.7107 15.7119 15.7313 15.7507 15.77 15.7893 15.8078 15.8262 15.8443 15.8624 15.8799 15.897 15.9142 15.9314 15.948 15.964 15.98 15.996 16.012 16.0273 16.0424 16.0574 16.0724 16.0869 16.1012 16.1155 16.1295 16.1414 16.1529 16.1644 16.1759 16.189 16.1906 16.1922 16.1938 16.1953 16.1969 16.2096 16.2223 16.235 16.2477 16.2602 16.2721 16.2841 16.2961 16.3081 16.3198 16.3312 16.3425 16.3539 16.3652 16.3765 16.3873 16.398 16.4089 16.4197 16.4305 16.4408 16.451 16.4613 16.4719 16.4824 16.4922 16.5021 16.5122 16.5225 16.5328 16.5424 16.5521 16.5621 16.5721 16.5823 16.5916 16.6015 16.6114 16.6213 16.6314 16.6408 16.6507 16.6606 16.6704 16.6805 16.6899 16.6997 16.7094 16.7192 16.729 16.7361 16.7433 16.7505 16.7577 16.7657 16.7679 16.7701 16.7723 16.7745 16.7767 16.786 16.7954 16.8047 16.8141 16.8234 16.8325 16.8416 16.8507 16.8597 16.8688 16.8775 16.8862 16.8948 16.9035 16.9118 16.9201 16.928 16.936 16.944 16.9512 16.9587 16.9659 16.9731 16.98 16.9863 16.993 16.9995 17.0059 17.0118 17.0173 17.0233 17.0291 17.0346 17.0394 17.044 17.0491 17.0541 17.0587 17.0624 17.066 17.0701 17.0742 17.0779 17.0808 17.0838 17.0871 17.0905 17.0935 17.0959 17.0984 17.1012 17.1041 17.1065 17.1085 17.1105 17.1129 17.1152 17.1171 17.1187 17.1203 17.1221 17.1239 17.1252 17.1263 17.1274 17.1287 17.1299 17.1307 17.1315 17.1322 17.1332 17.1341 17.1348 17.1355 17.1362 17.1372 17.1381 17.139 17.1398 17.1407 17.1417 17.1426 17.1435 17.1443 17.1449 17.1458 17.1463 17.1467 17.1471 17.1473 17.1477 17.1478 17.1479 17.148 17.1481 17.1484 17.1486 17.1489 17.1491 17.1495 17.15 17.1504 17.1509 17.1514 17.1518 17.1523 17.1527 17.1531 17.1535 17.1538 17.1542 17.1545 17.1548 17.1552 17.1555 17.156 17.1566 17.1571 17.1577 17.1582 17.1589 17.1596 17.1603 17.1609 17.1616 17.1621 17.1626 17.1631 17.1637 17.1641 17.1644 17.1647 17.165 17.1653 17.1656 17.1657 17.1657 17.1658 17.1659 17.1659 17.1661 17.1663 17.1664 17.1666 17.1667 17.1671 17.1674 17.1677 17.1681 17.1684 17.1688 17.1692 17.1695 17.1699 17.1702 17.1705 17.1707 17.171 17.1713 17.1715 17.1717 17.1719 17.1721 17.1723 17.1725 17.1727 17.1728 17.173 17.1731 17.1732 17.1734 17.1735 17.1737 17.1738 17.1739 17.1742 17.1744 17.1746 17.1748 17.175 17.1753 17.1754 17.1756 17.1757 17.1758 17.1759 17.1759 17.176 17.176 17.1759 17.176 17.1761 17.1762 17.1763 17.1765 17.177 17.1773 17.1777 17.1781 17.1786 17.1794 17.1799 17.1804 17.1809 17.1813 17.182 17.1827 17.1833 17.1839 17.1847 17.1857 17.1868 17.1878 17.1889 17.1903 17.1919 17.1936 17.1953 17.1972 17.1994 17.202 17.2046 17.2071 17.2098 17.2129 17.2166 17.2201 17.2234 17.227 17.231 17.2356 17.2401 17.2446 17.2495 17.2553 17.2619 17.2681 17.2742 17.2811 17.29 17.2995 17.3046 17.3084 17.312 17.3151 17.3174 17.3181 17.3186 17.319 17.3238 17.3283 17.3107 17.2928 17.2657 17.2165 17.1649 17.1126 17.0593 16.9957 16.9282 16.8625 16.7969 16.7444 16.7017 16.6591 16.618 16.5768 16.5401 16.5082 16.4762 16.4436 16.411 16.3727 16.3274 16.2821 16.2346 16.1866 16.1316 16.0717 16.0109 15.9473 15.8827 15.8159 15.7487 15.681 15.6106 15.5407 15.4713 15.4024 15.335 15.2653 15.1951 15.1248 15.0546 14.9842 14.9117 14.8384 14.7651 14.6918 14.6175 14.5398 14.4597 14.3795 14.2994 14.2173 14.1289 14.0387 13.9485 13.8583 13.7671 13.6669 13.5658 13.4647 13.3636 13.2623 13.2456 13.2287 13.2118 13.195 13.1775 13.081 12.9845 12.888 12.7915 12.694 12.5686 12.4424 12.3162 12.1899 12.0622 11.9253 11.7869 11.6484 11.51 11.369 11.2195 11.0673 10.9151 10.7629 10.607 10.4433 10.2755 10.1077 9.93993 9.76735 9.58802 9.40239 9.21675 9.03083 8.83892 8.64062 8.43363 8.22543 8.01509 7.79635 7.57071 7.33703 7.10013 6.8592 6.61092 6.35441 6.09545 5.83456 5.57187 5.30737 5.03286 4.7425 4.42898 4.08925 3.73542 3.36841 3.01507 2.69962 2.42108 2.1541 1.87771 1.58391 1.16154 0.583996 0