/*--------------------------------*- C++ -*----------------------------------*\
  =========                 |
  \\      /  F ield         | OpenFOAM: The Open Source CFD Toolbox
   \\    /   O peration     | Website:  https://openfoam.org
    \\  /    A nd           | Version:  8
     \\/     M anipulation  |
\*---------------------------------------------------------------------------*/
FoamFile
{
    version     2.0;
    format      ascii;
    class       volScalarField;
    location    "45";
    object      epsilon;
}
// * * * * * * * * * * * * * * * * * * * * * * * * * * * * * * * * * * * * * //

dimensions      [0 2 -3 0 0 0 0];

internalField   nonuniform List<scalar> 
12225
(
285.399
270.876
257.808
243.999
232.401
223.325
216.804
212.963
213.068
214.486
218.047
222.069
229.765
234.855
244.285
250.275
260.059
270.379
52.5135
91.8175
107.125
114.836
125.246
137.198
153.656
171.015
193.313
213.463
239.49
260.55
288.662
308.444
337.83
354.878
388.773
401.741
20.3443
34.7878
44.7591
50.4267
55.5655
59.6469
65.0025
69.8308
77.0819
83.8601
93.0176
100.869
111.013
120.141
130.523
141.649
151.52
167.282
15.362
19.6651
24.1667
27.5309
30.5832
32.8608
35.3074
37.337
39.7758
42.0974
44.8392
47.6683
50.5517
54.0626
56.9128
61.3103
64.2214
69.9168
14.6554
15.8616
17.3889
19.0473
20.6796
22.0177
23.3125
24.4541
25.5523
26.68
27.7068
28.9618
29.9442
31.4037
32.36
34.0568
35.1029
37.2177
14.7079
14.8772
15.2079
15.8541
16.5866
17.2836
17.9519
18.5994
19.1645
19.7817
20.2709
20.9021
21.3435
22.0189
22.4407
23.1778
23.6216
24.5202
14.7426
14.6202
14.6257
14.7367
14.9356
15.2177
15.5019
15.8175
16.0897
16.4081
16.6532
16.9733
17.1959
17.5248
17.7354
18.0851
18.2942
18.7165
14.7631
14.5861
14.4645
14.3799
14.3678
14.3906
14.4401
14.5372
14.6249
14.7481
14.8458
14.9815
15.0784
15.2239
15.3202
15.4787
15.5752
15.7735
14.767
14.5904
14.435
14.2955
14.1845
14.1038
14.0393
14.0069
13.9818
13.9819
13.9856
14.0001
14.0162
14.0494
14.0735
14.12
14.1519
14.225
14.7665
14.5939
14.4321
14.2816
14.1424
14.0208
13.9101
13.8178
13.7352
13.6684
13.6094
13.5636
13.5204
13.4918
13.4612
13.4472
13.4267
13.4324
14.7658
14.5947
14.4322
14.2801
14.1357
14.0022
13.8768
13.7623
13.6557
13.5599
13.4705
13.392
13.3172
13.2541
13.1915
13.1427
13.0896
13.0562
14.7656
14.5946
14.4322
14.2798
14.135
13.999
13.8704
13.7499
13.6362
13.5306
13.4307
13.339
13.2516
13.173
13.0967
13.0305
12.9638
12.9093
14.7655
14.5945
14.4321
14.2795
14.1348
13.9983
13.8691
13.7469
13.6313
13.5224
13.4188
13.3222
13.2297
13.1443
13.0621
12.987
12.9144
12.8489
14.7655
14.5944
14.4319
14.2792
14.1346
13.9979
13.8687
13.7461
13.6302
13.5203
13.4161
13.3176
13.2239
13.1357
13.0518
12.9729
12.8981
12.8277
14.7655
14.5942
14.4318
14.2789
14.1343
13.9975
13.8683
13.7457
13.6299
13.5198
13.4156
13.3168
13.223
13.1342
13.0501
12.9702
12.8948
12.8232
14.7655
14.5941
14.4316
14.2788
14.134
13.9973
13.868
13.7455
13.6297
13.5198
13.4155
13.317
13.2231
13.1345
13.0503
12.9705
12.8949
12.8232
14.7655
14.594
14.4315
14.2785
14.1339
13.9971
13.868
13.7454
13.6297
13.5198
13.4158
13.3173
13.2236
13.1351
13.051
12.9713
12.8958
12.824
14.7656
14.5939
14.4315
14.2784
14.1339
13.997
13.868
13.7454
13.6298
13.5201
13.4162
13.3178
13.2243
13.1359
13.0519
12.9723
12.8967
12.8251
14.7656
14.5937
14.4315
14.2783
14.1339
13.997
13.868
13.7457
13.6302
13.5206
13.4168
13.3186
13.2252
13.1369
13.053
12.9735
12.898
12.8263
14.7656
14.5938
14.4315
14.2784
14.134
13.9973
13.8683
13.7462
13.6307
13.5213
13.4176
13.3195
13.2263
13.138
13.0543
12.9748
12.8993
12.8277
14.7656
14.5938
14.4316
14.2785
14.1343
13.9976
13.8689
13.7467
13.6315
13.5222
13.4188
13.3207
13.228
13.1397
13.0565
12.977
12.9021
12.8305
14.7657
14.5937
14.4318
14.2786
14.1346
13.9981
13.8698
13.748
13.6335
13.5249
13.4227
13.3259
13.2347
13.1481
13.0668
12.9893
12.9167
12.8473
14.7658
14.5936
14.4319
14.2789
14.1359
14.0008
13.8755
13.7576
13.6486
13.5463
13.4519
13.3633
13.2815
13.2046
13.1339
13.0666
13.0055
12.946
14.7656
14.5926
14.433
14.2844
14.1521
14.0327
13.93
13.8385
13.7606
13.6907
13.632
13.5781
13.5336
13.491
13.4573
13.4222
13.3973
13.3668
14.7596
14.5927
14.4609
14.3595
14.3033
14.2763
14.2801
14.291
14.3194
14.3496
14.3912
14.4277
14.4736
14.5103
14.5579
14.5917
14.6413
14.6697
14.7221
14.6909
14.7536
14.9148
15.1838
15.4566
15.7448
16.0038
16.2634
16.4893
16.7185
16.9149
17.1216
17.2949
17.4874
17.6419
17.8284
17.9657
14.7521
15.5115
16.5518
17.6726
18.7058
19.5519
20.3285
20.9713
21.5939
22.124
22.6704
23.145
23.66
24.106
24.6132
25.0416
25.5566
25.9711
15.9941
20.9808
25.0397
27.7373
29.7937
31.3198
32.7559
33.9861
35.286
36.4912
37.8289
39.095
40.511
41.8388
43.3302
44.7112
46.3077
47.7039
29.9116
47.1759
54.873
58.5997
61.5808
64.2812
67.4318
70.6828
74.3927
78.1955
82.3555
86.5023
90.88
95.1743
99.5744
103.859
108.088
112.285
165.794
160.078
154.892
149.571
144.472
139.699
135.588
132.131
129.214
126.967
125.216
123.977
123.159
122.658
122.543
122.628
122.889
123.383
25.0048
8.23296
8.5023
37.988
37.894
37.3407
37.6727
8.71516
8.66856
8.03988
7.97387
7.99212
7.67006
7.83516
7.9298
8.47213
8.98279
44.0277
54.7536
72.2775
95.9598
123.702
155.504
187.118
218.577
249.404
279.502
309.019
337.742
366.127
393.719
421.238
447.931
474.713
500.6
526.66
551.701
577.009
601.238
625.878
649.432
673.521
696.412
719.771
741.705
764.095
785.021
806.698
827.067
848.133
866.817
885.632
902.759
918.644
936.368
957.394
969.305
984.706
998.428
1003.81
1021.66
1024.04
1019.3
1041.35
1038.14
1035.3
1025.54
1000.97
1024.63
1022.41
1012.13
978.977
989.737
977.612
936.7
944.267
928.118
905.138
857.432
862.424
808.758
813.714
815.114
771.708
771.27
731.104
729.214
689.679
684.967
641.794
630.781
611.901
595.465
578.904
562.792
547.036
531.591
516.52
501.747
487.331
473.176
459.188
444.371
430.205
416.477
403.192
390.384
377.951
365.889
354.145
342.784
331.841
321.465
313.119
306.577
300.436
294.443
288.53
282.692
276.793
270.911
265.11
259.412
253.594
248.206
242.943
237.08
230.907
224.819
218.869
213.176
207.569
202.077
196.616
191.372
186.3
181.567
177.051
172.848
168.856
164.88
160.851
156.266
151.18
145.182
137.981
130.083
119.664
109.804
99.9485
90.9278
82.6706
75.8205
71.1845
68.4729
66.0802
68.674
68.7336
68.1839
66.483
15.3689
15.0497
14.7401
14.4803
14.2539
14.0734
13.9121
13.7781
13.6595
13.5651
13.49
13.4393
13.3944
13.3826
13.3516
13.4288
13.4829
13.5307
13.6143
13.3885
58.3095
45.0062
39.1388
34.964
32.0729
30.0572
28.5425
27.0003
26.1583
26.0875
27.8775
32.6037
41.2083
53.8338
70.6886
91.5541
114.878
139.354
157.892
172.62
184.398
194.75
204.01
212.194
219.966
227.521
232.548
238.034
243.438
249.064
254.824
260.842
266.969
273.322
279.708
286.257
292.765
299.389
305.92
312.53
318.997
325.495
331.786
338.053
344.076
350.069
355.827
361.558
367.007
372.34
377.317
382.286
387.123
392.101
397.332
402.774
407.935
413.656
419.46
425.885
431.788
434.151
436.105
438.137
438.514
438.262
437.017
432.261
437.293
435.882
431.215
421.893
423.862
419.183
406.844
404.672
398.684
391.857
384.284
379.68
371.356
367.69
361.741
352.644
346.884
337.68
331.72
322.256
315.937
305.674
299.053
291.514
284.388
277.354
270.475
263.752
257.168
250.74
244.444
238.292
232.246
226.286
220.305
214.501
208.843
203.353
198.008
192.807
187.722
182.76
177.905
173.189
168.637
164.442
160.61
156.969
153.417
149.938
146.509
143.112
139.738
136.404
133.12
129.851
126.66
123.605
120.31
116.886
113.442
110.028
106.662
103.344
100.073
96.8338
93.6572
90.5669
87.5933
84.7283
81.9592
79.2968
76.6687
74.0615
71.3303
68.4428
65.3907
61.9784
58.3947
54.3015
50.1801
46.0124
42.0538
38.282
34.9804
32.0635
29.753
28.5956
26.7996
26.696
24.7319
23.8936
17.3586
14.7035
13.468
12.8011
12.3819
12.0966
11.8791
11.7111
11.5762
11.466
11.3826
11.3149
11.2626
11.2316
11.2116
11.2222
11.2664
11.3793
11.605
12.2838
89.9006
62.4188
51.8574
46.5625
43.6512
42.5074
43.1711
46.0123
51.8483
61.6054
76.0992
94.7895
115.09
133.293
147.266
156.124
162.41
166.915
170.227
173.695
177.181
179.447
181.885
184.351
186.919
189.431
194.187
199.182
204.484
210.002
215.624
221.299
226.94
232.535
238.02
243.414
248.673
253.834
258.859
263.796
268.607
273.343
277.972
282.55
287.05
291.53
295.962
300.397
304.802
309.23
313.662
318.168
322.722
327.367
332.065
336.791
341.479
346.132
350.616
354.87
358.684
361.89
364.806
367.281
368.82
369.91
370.419
371.015
372.634
371.823
369.852
367.306
365.329
361.662
356.999
353.188
348.438
343.241
337.794
332.431
326.503
320.898
314.634
307.841
301.34
294.391
287.795
280.79
274.181
267.182
260.799
254.418
248.198
242.099
236.135
230.306
224.612
219.052
213.621
208.314
203.117
198.021
193.007
188.115
183.338
178.684
174.134
169.69
165.336
161.073
156.892
152.812
148.839
145.011
141.37
137.872
134.464
131.128
127.851
124.622
121.432
118.286
115.185
112.131
109.131
106.203
103.26
100.304
97.3531
94.4344
91.4809
88.5221
85.586
82.6668
79.77
76.9208
74.1311
71.4084
68.7459
66.1484
63.59
61.0596
58.502
55.8789
53.1852
50.3309
47.3554
44.1855
40.9213
37.5807
34.2765
31.05
28.0685
25.34
22.9585
21.1772
19.4584
18.3093
16.9375
15.9726
14.3743
13.1913
12.4067
11.8799
11.5065
11.2305
11.0132
10.8401
10.6989
10.5809
10.4872
10.4043
10.3506
10.2985
10.2646
10.2691
10.2876
10.3549
10.4922
10.8687
118.825
80.5237
69.7571
65.2743
63.6378
64.3786
68.122
75.3284
86.1615
99.9812
115.176
129.234
139.384
146.012
150.003
152.538
153.866
154.389
155.088
156.013
157.702
160.882
164.623
168.857
173.58
178.771
184.473
190.311
196.211
202.105
207.925
213.64
219.21
224.635
229.895
235.01
239.972
244.81
249.526
254.168
258.721
263.221
267.668
272.101
276.522
280.966
285.434
289.957
294.531
299.184
303.908
308.721
313.605
318.561
323.553
328.567
333.557
338.479
343.272
347.884
352.239
356.284
360.007
363.33
366.144
368.504
370.38
371.737
372.489
373.309
372.799
371.494
369.534
366.684
363.15
359.204
354.653
349.603
344.152
338.375
332.247
325.89
319.211
312.3
305.323
298.25
291.21
284.155
277.209
270.303
263.587
256.992
250.541
244.232
238.067
232.049
226.178
220.453
214.869
209.421
204.102
198.903
193.82
188.855
184.006
179.268
174.636
170.104
165.669
161.328
157.082
152.933
148.884
144.929
141.124
137.436
133.84
130.321
126.868
123.475
120.134
116.846
113.612
110.433
107.313
104.254
101.232
98.2397
95.2804
92.3613
89.4685
86.6055
83.7744
80.9405
78.0904
75.2645
72.4646
69.7004
66.9712
64.2826
61.6275
59.0003
56.3766
53.729
51.0436
48.2729
45.4136
42.4421
39.3774
36.2294
33.0533
29.8994
26.8818
24.0664
21.5341
19.4288
17.6053
16.1662
14.9026
13.9062
12.9908
12.2491
11.6846
11.2614
10.9355
10.6802
10.4764
10.3123
10.1737
10.057
9.96348
9.87454
9.82658
9.77811
9.75476
9.75949
9.77142
9.83206
9.95564
10.2218
144.181
103.144
93.2456
89.9958
89.1721
90.4842
94.4983
101.035
109.297
117.9
125.127
130.994
135.084
136.353
136.623
136.563
137.494
139.144
141.548
144.692
148.615
153.243
158.343
163.822
169.612
175.637
181.814
188.03
194.237
200.376
206.404
212.304
218.055
223.661
229.115
234.433
239.615
244.682
249.632
254.528
259.363
264.17
268.958
273.76
278.587
283.47
288.416
293.457
298.594
303.853
309.23
314.738
320.363
326.102
331.926
337.814
343.725
349.636
355.496
361.26
366.862
372.241
377.329
382.044
386.299
390.037
393.181
395.646
397.405
398.275
399.13
398.68
397.193
394.763
391.495
387.483
382.757
377.391
371.466
365.058
358.23
351.058
343.593
335.916
328.117
320.253
312.39
304.567
296.833
289.205
281.716
274.382
267.217
260.222
253.4
246.751
240.276
233.972
227.835
221.857
216.034
210.353
204.814
199.409
194.137
188.99
183.966
179.058
174.265
169.581
165.007
160.539
156.18
151.928
147.794
143.767
139.836
135.989
132.22
128.521
124.889
121.319
117.815
114.376
111.005
107.698
104.451
101.256
98.115
95.0272
91.9915
89.0048
86.0666
83.1631
80.285
77.423
74.5428
71.6669
68.8009
65.9533
63.1288
60.3283
57.5431
54.756
51.952
49.1018
46.1913
43.2055
40.1416
36.9993
33.8058
30.6028
27.4741
24.5046
21.7797
19.4144
17.393
15.7376
14.3783
13.3025
12.4422
11.7693
11.248
10.8494
10.5309
10.2806
10.0846
9.9312
9.79252
9.67688
9.58483
9.49736
9.48119
9.43936
9.41548
9.44027
9.4471
9.49449
9.59656
9.7905
150.885
118.076
114.097
112.798
111.639
111.241
111.906
113.876
116.511
119.121
121.261
122.638
122.861
123.393
124.352
125.978
128.451
131.667
135.56
140.05
145.074
150.536
156.34
162.411
168.688
175.112
181.602
188.089
194.55
200.956
207.277
213.499
219.607
225.603
231.482
237.26
242.944
248.554
254.101
259.604
265.063
270.508
275.949
281.416
286.921
292.496
298.153
303.922
309.811
315.848
322.036
328.393
334.915
341.609
348.463
355.466
362.588
369.8
377.053
384.293
391.45
398.444
405.185
411.571
417.494
422.846
427.516
431.393
434.363
436.169
437.481
438.216
437.336
435.265
432.116
427.972
422.912
417.024
410.405
403.155
395.373
387.158
378.605
369.807
360.858
351.836
342.813
333.846
324.986
316.256
307.687
299.306
291.132
283.171
275.423
267.888
260.563
253.446
246.529
239.806
233.269
226.91
220.723
214.703
208.842
203.136
197.575
192.156
186.872
181.719
176.693
171.791
167.01
162.347
157.802
153.368
149.037
144.801
140.653
136.588
132.601
128.689
124.854
121.094
117.411
113.802
110.265
106.796
103.395
100.061
96.7928
93.5885
90.4454
87.3565
84.3137
81.3078
78.3175
75.3041
72.2652
69.2191
66.1818
63.1632
60.1636
57.1745
54.1842
51.1726
48.1244
45.0264
41.869
38.6467
35.3711
32.0715
28.8115
25.6742
22.7544
20.1495
17.9009
16.0226
14.4973
13.2896
12.3472
11.6213
11.0606
10.6344
10.289
10.0273
9.82773
9.67423
9.51984
9.40012
9.3082
9.24195
9.26663
9.20189
9.23221
9.2006
9.25896
9.24065
9.37114
9.47105
131.207
125.067
127.381
127.454
124.84
121.591
118.686
116.55
115.479
114.678
114.085
114.057
114.619
115.899
117.954
120.763
124.287
128.426
133.106
138.252
143.804
149.695
155.866
162.262
168.819
175.509
182.294
189.149
196.043
202.927
209.77
216.558
223.273
229.914
236.469
242.943
249.33
255.65
261.908
268.121
274.296
280.457
286.615
292.798
299.022
305.318
311.703
318.211
324.861
331.685
338.698
345.93
353.39
361.096
369.049
377.247
385.67
394.293
403.066
411.935
420.819
429.627
438.246
446.554
454.41
461.671
468.186
473.806
478.391
481.842
483.842
485.382
485.26
483.64
480.644
476.371
470.924
464.414
456.966
448.71
439.78
430.306
420.415
410.227
399.853
389.394
378.935
368.551
358.298
348.212
338.324
328.669
319.27
310.137
301.268
292.663
284.318
276.227
268.384
260.782
253.409
246.261
239.323
232.592
226.054
219.704
213.529
207.525
201.681
195.994
190.453
185.057
179.798
174.672
169.674
164.797
160.034
155.378
150.822
146.362
141.991
137.709
133.512
129.403
125.378
121.438
117.579
113.801
110.101
106.479
102.933
99.4621
96.0619
92.7284
89.4533
86.2276
83.0332
79.8428
76.6069
73.3345
70.0564
66.7914
63.5468
60.3209
57.1054
53.8865
50.6501
47.3846
44.0792
40.7278
37.3324
33.9113
30.5115
27.2079
24.0959
21.2721
18.8001
16.7098
14.9964
13.6289
12.5605
11.7358
11.1015
10.6186
10.2327
9.9344
9.70412
9.52881
9.3621
9.22439
9.1244
9.15058
9.13898
9.12298
9.12655
9.12252
9.13302
9.07884
9.20713
9.25848
137.475
130.748
132.977
132.393
128.414
123.305
118.49
114.528
111.258
109.34
108.589
108.689
109.791
111.783
114.571
118.052
122.147
126.77
131.857
137.351
143.203
149.368
155.803
162.471
169.37
176.451
183.663
190.967
198.335
205.741
213.157
220.565
227.944
235.285
242.572
249.806
256.976
264.09
271.147
278.16
285.131
292.081
299.018
305.97
312.951
319.994
327.12
334.368
341.762
349.346
357.145
365.201
373.54
382.195
391.183
400.519
410.197
420.203
430.498
441.028
451.711
462.448
473.109
483.547
493.59
503.053
511.74
519.454
526.007
531.233
534.718
536.908
537.977
537.017
534.316
530
524.195
517.041
508.694
499.321
489.096
478.186
466.756
454.958
442.932
430.805
418.682
406.657
394.797
383.149
371.749
360.636
349.84
339.373
329.237
319.43
309.948
300.782
291.925
283.364
275.088
267.084
259.34
251.844
244.582
237.544
230.717
224.09
217.655
211.4
205.319
199.402
193.642
188.032
182.565
177.233
172.028
166.943
161.971
157.107
152.345
147.683
143.118
138.648
134.273
129.99
125.798
121.694
117.679
113.749
109.903
106.14
102.455
98.8433
95.2984
91.8096
88.3604
84.9241
81.4575
77.932
74.3916
70.8617
67.3547
63.873
60.412
56.9618
53.5107
50.048
46.5637
43.0513
39.5099
35.9504
32.4064
28.9418
25.6489
22.6254
19.9466
17.6547
15.7557
14.2256
13.0198
12.0836
11.3601
10.8041
10.3663
10.0219
9.74909
9.53486
9.35346
9.16997
9.14775
9.12904
9.05304
9.08131
9.08222
9.07929
9.06895
9.00195
9.02977
9.20445
137.52
129.209
131.076
130.253
126.061
120.532
114.875
110.025
106.578
104.8
104.287
104.853
106.46
108.946
112.179
116.047
120.47
125.376
130.716
136.444
142.527
148.928
155.617
162.592
169.842
177.308
184.944
192.723
200.615
208.596
216.638
224.721
232.818
240.915
248.992
257.04
265.045
273.005
280.912
288.773
296.583
304.359
312.103
319.84
327.582
335.362
343.202
351.145
359.22
367.478
375.958
384.714
393.788
403.235
413.091
423.396
434.166
445.408
457.101
469.204
481.644
494.319
507.091
519.792
532.218
544.139
555.306
565.459
574.342
581.713
587.387
590.833
593.016
592.969
590.792
586.606
580.557
572.814
563.57
553.036
541.428
528.964
515.85
502.278
488.424
474.445
460.475
446.626
432.985
419.609
406.544
393.836
381.523
369.617
358.123
347.036
336.351
326.052
316.131
306.568
297.351
288.46
279.882
271.598
263.593
255.851
248.359
241.1
234.065
227.239
220.612
214.172
207.912
201.819
195.888
190.106
184.467
178.96
173.582
168.322
163.178
158.142
153.215
148.391
143.67
139.048
134.525
130.096
125.762
121.519
117.366
113.299
109.316
105.411
101.575
97.7981
94.0631
90.3431
86.5977
82.7925
78.9735
75.1677
71.3898
67.6444
63.9296
60.2381
56.5604
52.8868
49.2084
45.5187
41.8155
38.1055
34.4142
30.7949
27.3349
24.1319
21.2675
18.7922
16.7205
15.0344
13.6924
12.6409
11.8227
11.188
10.6896
10.2945
9.97762
9.71966
9.51347
9.29656
9.19805
9.16424
9.15017
9.13404
9.08649
9.08583
9.05379
8.9843
9.09336
9.14942
133.677
123.702
124.738
123.402
119.197
113.874
108.741
104.543
101.753
100.516
100.399
101.428
103.427
106.246
109.763
113.874
118.51
123.614
129.145
135.071
141.366
148.005
154.967
162.218
169.756
177.605
185.7
193.976
202.415
210.993
219.68
228.454
237.287
246.157
255.041
263.922
272.78
281.606
290.382
299.107
307.772
316.384
324.94
333.458
341.946
350.434
358.943
367.514
376.182
385.004
394.026
403.317
412.935
422.957
433.443
444.465
456.068
468.292
481.142
494.606
508.629
523.123
537.951
552.93
567.83
582.381
596.275
609.183
620.773
630.727
638.767
644.326
647.732
649.05
647.707
643.906
637.812
629.622
619.569
607.911
594.915
580.852
565.979
550.535
534.739
518.786
502.845
487.057
471.529
456.334
441.524
427.154
413.263
399.868
386.972
374.569
362.648
351.193
340.186
329.609
319.439
309.657
300.241
291.172
282.427
273.989
265.84
257.961
250.338
242.955
235.798
228.853
222.11
215.556
209.179
202.97
196.918
191.014
185.25
179.617
174.111
168.724
163.453
158.294
153.243
148.298
143.456
138.714
134.07
129.521
125.064
120.696
116.413
112.207
108.072
103.993
99.9537
95.9264
91.8656
87.7621
83.6556
79.5705
75.5208
71.5121
67.5439
63.6106
59.7044
55.8167
51.9394
48.0665
44.1947
40.3295
36.4897
32.7228
29.1107
25.7494
22.7227
20.0861
17.8597
16.0302
14.5595
13.3956
12.4817
11.7659
11.2013
10.7508
10.3868
10.0855
9.84447
9.59624
9.494
9.40423
9.26767
9.21235
9.0631
9.1573
9.04254
9.14223
9.15611
9.13605
150.437
119.835
115.669
113.826
110.157
105.87
101.856
98.6713
96.7399
96.0612
96.4444
97.8453
100.136
103.183
106.886
111.157
115.941
121.191
126.877
132.974
139.464
146.328
153.554
161.117
168.979
177.125
185.557
194.29
203.264
212.437
221.755
231.202
240.75
250.373
260.042
269.737
279.43
289.104
298.736
308.315
317.823
327.26
336.614
345.895
355.105
364.267
373.396
382.533
391.711
400.987
410.416
420.075
430.038
440.401
451.253
462.697
474.815
487.689
501.364
515.866
531.175
547.229
563.907
581.03
598.35
615.559
632.296
648.158
662.722
675.566
686.295
694.52
699.862
702.706
702.515
699.408
693.539
685.123
674.431
661.769
647.467
631.855
615.249
597.943
580.206
562.275
544.357
526.62
509.199
492.177
475.616
459.579
444.107
429.221
414.923
401.207
388.056
375.453
363.373
351.795
340.69
330.036
319.804
309.973
300.514
291.408
282.629
274.161
265.981
258.073
250.419
243.004
235.811
228.83
222.044
215.443
209.014
202.748
196.633
190.662
184.826
179.12
173.536
168.07
162.718
157.475
152.338
147.303
142.368
137.528
132.78
128.121
123.544
119.042
114.606
110.22
105.866
101.516
97.1236
92.7172
88.3244
83.9648
79.6501
75.3857
71.1714
67.0029
62.8736
58.776
54.7026
50.648
46.6084
42.5887
38.6038
34.6988
30.9514
27.4541
24.29
21.5163
19.156
17.199
15.6104
14.3398
13.332
12.5342
11.8995
11.3891
10.9734
10.6272
10.3419
10.0779
9.87772
9.72088
9.55832
9.45107
9.26108
9.38835
9.25324
9.35471
9.26611
9.39535
157.214
117.069
108.316
104.202
100.771
97.5014
94.6619
92.5576
91.479
91.3556
92.1955
93.9102
96.4145
99.6125
103.427
107.792
112.666
118.011
123.806
130.033
136.677
143.725
151.164
158.982
167.162
175.669
184.466
193.53
202.864
212.483
222.345
232.405
242.62
252.934
263.325
273.773
284.244
294.716
305.155
315.544
325.857
336.085
346.207
356.224
366.127
375.933
385.646
395.303
404.929
414.583
424.317
434.215
444.359
454.862
465.837
477.418
489.728
502.896
517.015
532.163
548.367
565.606
583.79
602.757
622.258
641.964
661.467
680.293
697.93
713.853
727.551
738.574
746.447
751.132
752.41
750.325
744.993
736.634
725.557
712.129
696.741
679.784
661.632
642.636
623.111
603.337
583.555
563.971
544.741
525.97
507.73
490.088
473.096
456.774
441.128
426.148
411.817
398.112
385.006
372.472
360.48
348.999
338
327.453
317.329
307.601
298.244
289.234
280.547
272.163
264.061
256.224
248.633
241.273
234.127
227.183
220.425
213.843
207.425
201.16
195.039
189.055
183.199
177.465
171.847
166.341
160.941
155.643
150.443
145.337
140.319
135.385
130.528
125.739
121.008
116.317
111.643
106.954
102.247
97.5499
92.8836
88.2628
83.697
79.1905
74.7433
70.3519
66.0108
61.7131
57.4525
53.2234
49.0227
44.8549
40.7337
36.704
32.8407
29.2318
25.9569
23.0719
20.6003
18.534
16.8402
15.4709
14.3725
13.4927
12.785
12.2102
11.7376
11.3417
11.008
10.7135
10.4605
10.2464
10.047
9.89121
9.67692
9.76801
9.74016
9.70413
9.65479
9.69453
155.942
110.527
99.1102
94.4775
91.5562
89.2723
87.5214
86.4248
86.0839
86.5227
87.7423
89.7046
92.3569
95.6375
99.4965
103.889
108.784
114.158
119.995
126.282
133.009
140.165
147.742
155.726
164.104
172.859
181.977
191.415
201.134
211.109
221.317
231.752
242.407
253.267
264.266
275.367
286.526
297.72
308.885
320.01
331.064
342.03
352.877
363.594
374.163
384.589
394.869
405.028
415.083
425.084
435.079
445.152
455.385
465.902
476.828
488.327
500.557
513.695
527.892
543.282
559.953
577.939
597.187
617.561
638.827
660.652
682.601
704.134
724.659
743.587
760.276
774.139
784.69
791.598
794.502
793.759
789.312
781.363
770.262
756.432
740.322
722.372
703.009
682.633
661.607
640.25
618.844
597.625
576.785
556.44
536.684
517.588
499.211
481.578
464.699
448.561
433.151
418.436
404.394
390.987
378.188
365.959
354.268
343.08
332.363
322.084
312.218
302.734
293.609
284.816
276.334
268.14
260.215
252.539
245.096
237.869
230.843
224.004
217.34
210.837
204.485
198.274
192.196
186.241
180.404
174.676
169.053
163.528
158.098
152.754
147.493
142.308
137.19
132.13
127.114
122.121
117.124
112.119
107.126
102.163
97.2455
92.3846
87.5879
82.8586
78.1971
73.6002
69.0635
64.5807
60.1464
55.7557
51.406
47.1022
42.8593
38.7239
34.7682
31.0745
27.7172
24.7481
22.1894
20.0332
18.2484
16.7894
15.6046
14.6435
13.8605
13.217
12.6817
12.2297
11.8433
11.5054
11.2078
10.9459
10.7077
10.5048
10.272
10.282
10.2279
10.0755
9.9162
10.0537
148.106
102.584
90.2921
85.5423
83.1317
81.6739
80.8263
80.5362
80.8291
81.7352
83.2692
85.4175
88.1582
91.4594
95.2961
99.6424
104.483
109.803
115.594
121.847
128.558
135.718
143.321
151.357
159.813
168.677
177.929
187.553
197.529
207.82
218.391
229.205
240.226
251.427
262.786
274.28
285.877
297.586
309.343
321.102
332.817
344.463
356.008
367.397
378.616
389.664
400.527
411.217
421.735
432.121
442.413
452.686
463.018
473.531
484.357
495.673
507.664
520.543
534.503
549.736
566.412
584.626
604.37
625.54
647.948
671.319
695.213
719
742.031
763.577
782.93
799.431
812.515
821.727
826.445
827.174
823.904
816.698
805.938
792.109
775.714
757.217
737.09
715.772
693.665
671.123
648.464
625.953
603.816
582.191
561.185
540.883
521.346
502.611
484.687
467.568
451.235
435.662
420.816
406.667
393.18
380.318
368.044
356.321
345.109
334.377
324.093
314.228
304.752
295.638
286.859
278.391
270.211
262.299
254.634
247.199
239.976
232.951
226.108
219.433
212.914
206.537
200.294
194.174
188.169
182.27
176.47
170.761
165.139
159.594
154.122
148.713
143.357
138.045
132.755
127.464
122.174
116.902
111.661
106.465
101.326
96.2527
91.2508
86.3234
81.4706
76.6902
71.9784
67.3303
62.741
58.2065
53.7255
49.3041
44.9609
40.7452
36.7254
32.9772
29.5679
26.5436
23.923
21.6974
19.837
18.2983
17.0325
15.9914
15.1313
14.4147
13.8112
13.2961
12.8509
12.46
12.1132
11.8028
11.5222
11.2702
11.0269
10.8417
10.6885
10.547
10.3381
10.4859
137.683
94.633
82.3741
77.8181
75.8742
75.0557
74.8871
75.2045
75.995
77.2788
79.0583
81.3364
84.1132
87.3792
91.1294
95.3552
100.054
105.222
110.859
116.962
123.531
130.561
138.05
145.989
154.371
163.184
172.413
182.042
192.05
202.416
213.114
224.128
235.412
246.935
258.662
270.562
282.585
294.681
306.833
319.017
331.191
343.331
355.405
367.414
379.287
390.994
402.507
413.828
424.921
435.817
446.542
457.159
467.736
478.38
489.219
500.428
512.207
524.788
538.406
553.278
569.607
587.558
607.251
628.519
651.173
675.076
699.903
724.865
749.31
772.522
793.745
812.253
827.4
838.663
845.717
847.854
846.002
839.927
829.946
816.613
800.409
781.879
761.521
739.807
717.159
693.967
670.545
647.228
624.226
601.734
579.858
558.701
538.329
518.788
500.09
482.239
465.211
448.987
433.529
418.814
404.805
391.468
378.759
366.64
355.06
343.996
333.414
323.283
313.569
304.242
295.271
286.629
278.292
270.236
262.438
254.881
247.547
240.418
233.475
226.704
220.087
213.615
207.272
201.049
194.935
188.919
182.993
177.149
171.378
165.672
160.023
154.42
148.85
143.307
137.753
132.21
126.689
121.2
115.756
110.367
105.042
99.7892
94.6127
89.516
84.4995
79.562
74.7005
69.9113
65.1907
60.5359
55.9475
51.4341
47.0203
42.7561
38.7056
34.9367
31.5082
28.4587
25.8024
23.5288
21.6087
20.001
18.6601
17.5409
16.6023
15.8088
15.1315
14.5465
14.0355
13.5833
13.1797
12.8152
12.4852
12.1824
11.9046
11.6497
11.4277
11.2305
10.9878
11.0441
125.827
87.307
75.4634
71.237
69.716
69.4058
69.7542
70.5682
71.7838
73.3734
75.3496
77.7189
80.4941
83.6796
87.2866
91.3196
95.7899
100.702
106.067
111.887
118.171
124.918
132.132
139.808
147.943
156.53
165.556
175.01
184.875
195.134
205.764
216.746
228.049
239.647
251.509
263.61
275.918
288.39
300.985
313.672
326.407
339.154
351.852
364.461
376.944
389.285
401.453
413.462
425.301
436.916
448.311
459.54
470.64
481.708
492.837
504.201
515.98
528.426
541.763
556.254
572.104
589.519
608.629
629.393
651.672
675.17
699.819
724.748
749.383
773.012
794.872
814.219
830.395
842.893
851.445
854.561
853.737
848.552
839.255
826.708
811.223
793.299
773.395
752.005
729.539
706.389
682.913
659.409
636.166
613.357
591.133
569.598
548.833
528.887
509.788
491.539
474.129
457.518
441.707
426.67
412.374
398.777
385.84
373.515
361.739
350.51
339.798
329.56
319.753
310.344
301.305
292.608
284.226
276.135
268.306
260.725
253.376
246.234
239.281
232.496
225.863
219.368
212.997
206.737
200.576
194.501
188.502
182.57
176.694
170.866
165.072
159.303
153.537
147.777
142.03
136.304
130.61
124.956
119.354
113.812
108.338
102.939
97.6206
92.3854
87.2351
82.1693
77.1864
72.284
67.46
62.7134
58.0477
53.4761
49.0291
44.755
40.7124
36.9603
33.5475
30.5045
27.8393
25.5393
23.5755
21.9096
20.4995
19.3039
18.2852
17.4109
16.6539
15.9918
15.4071
14.8853
14.4161
13.9895
13.6017
13.2425
12.9156
12.6057
12.3332
12.0681
11.8317
11.6148
113.847
80.8338
69.9713
66.2444
65.1517
65.2685
65.9937
67.2111
68.7604
70.6112
72.7615
75.213
77.9805
81.0754
84.5182
88.3239
92.5144
97.105
102.115
107.558
113.448
119.795
126.608
133.889
141.64
149.859
158.539
167.673
177.248
187.253
197.67
208.482
219.665
231.201
243.06
255.222
267.654
280.328
293.204
306.253
319.43
332.703
346.016
359.337
372.619
385.831
398.912
411.86
424.603
437.16
449.512
461.683
473.684
485.583
497.438
509.392
521.596
534.283
547.662
561.98
577.433
594.217
612.43
632.093
653.143
675.108
697.93
721.097
744.086
766.272
787.007
805.625
821.543
834.374
843.933
847.827
847.898
843.679
835.755
824.193
809.626
792.514
773.383
752.652
730.782
708.12
685.038
661.849
638.827
616.179
594.06
572.585
551.842
531.888
512.759
494.464
476.999
460.325
444.453
429.358
415.014
401.378
388.413
376.069
364.23
353
342.326
332.145
322.414
313.094
304.156
295.56
287.29
279.314
271.592
264.126
256.886
249.846
242.987
236.289
229.732
223.302
216.987
210.768
204.632
198.564
192.554
186.59
180.66
174.754
168.849
162.949
157.056
151.176
145.313
139.477
133.674
127.915
122.208
116.563
110.986
105.486
100.068
94.7357
89.4917
84.3371
79.2718
74.2953
69.4073
64.6097
59.9108
55.3295
50.8991
46.6651
42.6789
38.9893
35.6343
32.6347
29.9922
27.6913
25.7037
23.9939
22.524
21.2572
20.1603
19.2041
18.3643
17.6205
16.9565
16.3585
15.8169
15.3212
14.8681
14.4461
14.0614
13.6932
13.3691
13.0392
12.7797
12.4503
103.161
75.4174
65.8944
62.7877
62.1445
62.6116
63.7422
65.32
67.203
69.3575
71.7388
74.3324
77.1496
80.2067
83.5318
87.1506
91.0946
95.3902
100.066
105.146
110.652
116.603
123.019
129.906
137.269
145.11
153.429
162.225
171.49
181.217
191.394
202.01
213.047
224.491
236.322
248.52
261.061
273.921
287.067
300.475
314.1
327.927
341.89
355.955
370.069
384.195
398.269
412.215
426.029
439.73
453.278
466.661
479.88
492.929
505.869
518.751
531.733
544.947
558.615
572.883
587.963
603.943
620.926
638.891
657.73
677.092
696.851
716.737
736.336
755.24
772.992
789.078
803.044
814.598
823.875
827.841
828.216
824.539
817.478
807.209
794.076
778.482
760.829
741.539
720.992
699.57
677.588
655.369
633.186
611.26
589.759
568.813
548.52
528.951
510.148
492.137
474.918
458.469
442.797
427.888
413.712
400.24
387.433
375.25
363.577
352.514
341.99
331.959
322.381
313.222
304.448
296.021
287.921
280.116
272.534
265.246
258.197