/*--------------------------------*- C++ -*----------------------------------*\
  =========                 |
  \\      /  F ield         | OpenFOAM: The Open Source CFD Toolbox
   \\    /   O peration     | Website:  https://openfoam.org
    \\  /    A nd           | Version:  8
     \\/     M anipulation  |
\*---------------------------------------------------------------------------*/
FoamFile
{
    version     2.0;
    format      ascii;
    class       volScalarField;
    location    "45";
    object      k;
}
// * * * * * * * * * * * * * * * * * * * * * * * * * * * * * * * * * * * * * //

dimensions      [0 2 -2 0 0 0 0];

internalField   nonuniform List<scalar> 
12225
(
0.362694
0.344198
0.327624
0.310039
0.295335
0.283763
0.275516
0.27061
0.270768
0.272461
0.277137
0.282015
0.292067
0.298293
0.310635
0.317085
0.332169
0.33409
0.440211
0.468849
0.461706
0.44874
0.450791
0.458999
0.475377
0.500359
0.526967
0.555621
0.585855
0.612401
0.642498
0.664199
0.69386
0.709537
0.743788
0.752426
0.390345
0.417899
0.420248
0.416902
0.411695
0.408015
0.40826
0.410442
0.415421
0.42205
0.432803
0.441138
0.455155
0.464122
0.4798
0.489635
0.505734
0.519944
0.377014
0.387193
0.391462
0.391357
0.390288
0.387959
0.385744
0.384172
0.383121
0.383161
0.383817
0.3849
0.38747
0.38935
0.393109
0.396525
0.400339
0.406677
0.374426
0.37611
0.378417
0.37867
0.378276
0.377214
0.375504
0.373737
0.372069
0.370485
0.369412
0.368181
0.367757
0.367093
0.367115
0.367241
0.367671
0.36879
0.373774
0.372714
0.372659
0.372358
0.371754
0.370808
0.369542
0.368047
0.366564
0.36493
0.363543
0.362028
0.360811
0.359589
0.358546
0.357719
0.35688
0.356542
0.373771
0.371747
0.370383
0.369283
0.368215
0.367091
0.365889
0.364538
0.363199
0.361738
0.360368
0.358946
0.357614
0.356328
0.355083
0.353989
0.352886
0.352022
0.373815
0.371566
0.369629
0.367974
0.366483
0.365081
0.363743
0.362377
0.361052
0.359689
0.358367
0.357045
0.355755
0.354514
0.35329
0.352161
0.351041
0.350053
0.373829
0.37156
0.369445
0.367522
0.365762
0.364129
0.362611
0.361148
0.359757
0.358395
0.357078
0.355796
0.354546
0.353347
0.352172
0.351066
0.349985
0.348987
0.373829
0.371567
0.369415
0.367403
0.365516
0.363752
0.362101
0.360539
0.359064
0.357653
0.356306
0.355014
0.353769
0.352582
0.351432
0.350347
0.349293
0.348314
0.373827
0.371567
0.369411
0.367378
0.365448
0.36363
0.36191
0.360285
0.358747
0.357287
0.355899
0.354579
0.353317
0.35212
0.350971
0.349886
0.348845
0.347869
0.373825
0.371565
0.369408
0.367373
0.365431
0.363597
0.361853
0.360202
0.358634
0.357145
0.355733
0.354388
0.353109
0.351895
0.350737
0.349644
0.348598
0.347619
0.373825
0.371564
0.369404
0.367369
0.365424
0.363586
0.361834
0.360172
0.358592
0.35709
0.35566
0.354304
0.353009
0.351786
0.350617
0.349514
0.348462
0.347474
0.373824
0.371562
0.369401
0.367365
0.365419
0.363579
0.361826
0.36016
0.358577
0.357068
0.355635
0.354269
0.352971
0.351738
0.350566
0.349455
0.3484
0.3474
0.373824
0.37156
0.369399
0.36736
0.365415
0.363573
0.361821
0.360154
0.358571
0.357061
0.355628
0.354261
0.352963
0.351728
0.350556
0.349442
0.348385
0.347383
0.373823
0.371559
0.369396
0.367357
0.365411
0.363569
0.361816
0.360151
0.358567
0.357061
0.355626
0.354265
0.352965
0.351735
0.350562
0.349451
0.348392
0.347391
0.373824
0.371556
0.369395
0.367353
0.365408
0.363565
0.361814
0.360148
0.358568
0.357061
0.355631
0.354269
0.352976
0.351745
0.350577
0.349464
0.348409
0.347405
0.373824
0.371554
0.369393
0.36735
0.365406
0.363563
0.361813
0.360149
0.358569
0.357065
0.355637
0.354278
0.352987
0.351758
0.350591
0.34948
0.348425
0.347422
0.373824
0.371553
0.369393
0.367349
0.365407
0.363563
0.361815
0.360152
0.358575
0.357073
0.355647
0.354291
0.353001
0.351775
0.350609
0.3495
0.348445
0.34744
0.373824
0.371552
0.369394
0.36735
0.365409
0.363568
0.36182
0.360161
0.358584
0.357086
0.355661
0.354308
0.353019
0.351796
0.35063
0.349522
0.348467
0.347463
0.373824
0.371552
0.369396
0.367351
0.365414
0.363573
0.361829
0.360171
0.358598
0.357101
0.35568
0.354329
0.353045
0.351822
0.350662
0.349554
0.348504
0.347499
0.373825
0.371553
0.369397
0.367355
0.365419
0.363583
0.361843
0.36019
0.358624
0.357135
0.355722
0.35438
0.353105
0.351891
0.350739
0.34964
0.348596
0.3476
0.373825
0.371554
0.369399
0.367363
0.365436
0.363616
0.361897
0.360272
0.358734
0.357276
0.355892
0.35458
0.353328
0.35214
0.351005
0.349924
0.34889
0.347904
0.373826
0.371552
0.369412
0.367422
0.365565
0.363834
0.362213
0.360683
0.359232
0.357849
0.356526
0.355256
0.354037
0.352864
0.351738
0.350651
0.349612
0.348606
0.37382
0.371556
0.369603
0.367899
0.366347
0.364909
0.363519
0.362155
0.360804
0.359467
0.358147
0.35685
0.355583
0.354347
0.353155
0.351994
0.350893
0.349817
0.373778
0.371993
0.371108
0.37027
0.369362
0.368331
0.367068
0.365666
0.364159
0.362627
0.361088
0.359591
0.358146
0.356763
0.355467
0.354231
0.353104
0.352022
0.374298
0.375574
0.377777
0.377863
0.377297
0.37591
0.373834
0.371671
0.369507
0.367503
0.365662
0.364078
0.362681
0.361496
0.360536
0.359718
0.35915
0.358631
0.378734
0.394419
0.398327
0.39661
0.392613
0.387682
0.383631
0.380477
0.378151
0.37677
0.37624
0.37644
0.377001
0.37816
0.37973
0.381558
0.383802
0.385908
0.408335
0.427503
0.422396
0.411011
0.402186
0.397679
0.398237
0.400563
0.405153
0.412066
0.419522
0.42812
0.436534
0.445562
0.45406
0.462856
0.471044
0.479351
0.366023
0.353423
0.341968
0.33023
0.31896
0.308435
0.299342
0.291726
0.28527
0.280318
0.276448
0.273712
0.271911
0.270799
0.270551
0.270782
0.271221
0.272451
0.0991392
0.136974
0.154705
0.151197
0.149935
0.146797
0.143254
0.143525
0.148998
0.14116
0.144678
0.146505
0.149743
0.145697
0.169662
0.177561
0.212608
0.17824
0.176983
0.202106
0.243385
0.289946
0.340019
0.389362
0.435473
0.478718
0.519289
0.55755
0.593642
0.628166
0.660859
0.692554
0.722601
0.752016
0.77989
0.807391
0.833393
0.85925
0.883668
0.908148
0.931227
0.954483
0.976273
0.998239
1.01867
1.03937
1.05859
1.07825
1.09636
1.11466
1.1308
1.14717
1.16175
1.17646
1.19157
1.2066
1.21733
1.23188
1.24345
1.25564
1.2734
1.27682
1.27906
1.27956
1.2693
1.2735
1.27481
1.28504
1.2805
1.25619
1.25988
1.26208
1.25347
1.22341
1.23034
1.21769
1.17791
1.17432
1.17273
1.15725
1.13689
1.11061
1.10319
1.08262
1.04435
1.04226
1.00531
1.00166
0.964764
0.957287
0.918763
0.90628
0.887453
0.870543
0.8534
0.83663
0.820028
0.803708
0.787592
0.77175
0.756084
0.740535
0.72449
0.708342
0.692676
0.677347
0.662432
0.647837
0.633574
0.619564
0.605854
0.592479
0.579426
0.567411
0.558213
0.550219
0.54253
0.534916
0.527383
0.519782
0.512145
0.504467
0.496993
0.48956
0.482006
0.474763
0.467768
0.459871
0.451703
0.443477
0.435454
0.427541
0.419846
0.412174
0.404599
0.397078
0.389816
0.3828
0.376189
0.36984
0.363777
0.357884
0.351959
0.345931
0.339223
0.331548
0.322969
0.311218
0.297452
0.282362
0.266243
0.250209
0.233678
0.219751
0.207275
0.201056
0.197402
0.193579
0.195113
0.194001
0.19114
0.186843
0.181948
0.177298
0.173021
0.169377
0.166151
0.163397
0.160926
0.158777
0.157006
0.155416
0.154269
0.153171
0.153386
0.152438
0.15301
0.153071
0.153475
0.150319
0.197005
0.245175
0.283377
0.299637
0.303316
0.301525
0.297258
0.293107
0.289681
0.288576
0.293951
0.31176
0.345686
0.387053
0.431776
0.474789
0.517831
0.555781
0.602104
0.648496
0.692333
0.733927
0.774424
0.813975
0.853485
0.893476
0.933956
0.974837
1.01621
1.05811
1.10029
1.14282
1.18534
1.22801
1.27043
1.31285
1.35487
1.3968
1.43826
1.4796
1.52042
1.56112
1.60125
1.64122
1.68057
1.71974
1.75825
1.79651
1.83401
1.87113
1.90722
1.94266
1.97687
2.01019
2.04213
2.07284
2.1017
2.12974
2.15655
2.18268
2.20771
2.2302
2.25141
2.27011
2.28752
2.3047
2.30999
2.32102
2.32786
2.32521
2.33175
2.31897
2.3144
2.30673
2.29901
2.28494
2.26863
2.25256
2.23438
2.21198
2.18877
2.16255
2.13672
2.10841
2.07699
2.0476
2.01368
1.98346
1.94932
1.91892
1.88461
1.85335
1.82165
1.79049
1.75965
1.72928
1.69933
1.66988
1.64085
1.61231
1.58415
1.5564
1.52899
1.50201
1.47546
1.44942
1.42381
1.39865
1.37384
1.3494
1.32524
1.30142
1.27798
1.25501
1.23244
1.2101
1.18785
1.16574
1.14375
1.12189
1.10012
1.07845
1.05695
1.03571
1.01462
0.993671
0.972954
0.951346
0.929519
0.90787
0.886601
0.865756
0.845295
0.825068
0.804983
0.785293
0.76619
0.747763
0.729976
0.712784
0.696032
0.679633
0.663204
0.646705
0.629623
0.611473
0.591995
0.569332
0.543768
0.515591
0.484944
0.452952
0.419032
0.386204
0.355226
0.326317
0.303865
0.285943
0.27291
0.262637
0.255249
0.247725
0.240215
0.233436
0.227469
0.222506
0.218224
0.214709
0.211539
0.20894
0.207082
0.205004
0.204893
0.204583
0.20378
0.203055
0.203928
0.203643
0.20626
0.205748
0.312159
0.366586
0.401686
0.419072
0.426866
0.431243
0.437439
0.449745
0.472006
0.506866
0.555369
0.614581
0.676789
0.732016
0.77598
0.809733
0.837994
0.86539
0.896523
0.931525
0.97132
1.01533
1.06319
1.1143
1.16813
1.22395
1.28119
1.33947
1.39806
1.45648
1.51421
1.57097
1.62643
1.68055
1.73315
1.78433
1.83404
1.8825
1.92968
1.97582
2.0209
2.06518
2.10862
2.15146
2.19366
2.23545
2.27677
2.3178
2.35843
2.39883
2.43883
2.47859
2.51793
2.55693
2.5954
2.63331
2.67034
2.7065
2.74148
2.77507
2.80681
2.83635
2.86375
2.88882
2.91091
2.92992
2.94448
2.95651
2.96425
2.96863
2.97504
2.97303
2.96724
2.95749
2.94325
2.9252
2.9042
2.88024
2.85354
2.82379
2.79215
2.75814
2.72255
2.68522
2.64625
2.60701
2.56649
2.52639
2.48547
2.44532
2.40452
2.36435
2.32444
2.28494
2.24589
2.20735
2.16935
2.13191
2.09503
2.05871
2.0229
1.98759
1.95277
1.91848
1.88468
1.85141
1.81858
1.7862
1.7542
1.72258
1.69128
1.66036
1.62984
1.59984
1.57025
1.541
1.51196
1.48313
1.45448
1.42603
1.39771
1.36958
1.34164
1.31401
1.28663
1.25944
1.23249
1.20558
1.17878
1.15225
1.12609
1.10038
1.07511
1.05007
1.02482
0.999967
0.975778
0.952397
0.929764
0.907713
0.886171
0.865119
0.844281
0.823458
0.802311
0.780159
0.756786
0.731183
0.702605
0.670438
0.634579
0.595272
0.553029
0.509252
0.466537
0.426179
0.390435
0.360286
0.335664
0.316116
0.300987
0.288577
0.278028
0.269157
0.26166
0.255475
0.250184
0.245801
0.241807
0.238812
0.236765
0.233987
0.233872
0.233097
0.233063
0.233012
0.232912
0.23179
0.234755
0.233259
0.42107
0.491987
0.538697
0.564365
0.578228
0.588913
0.603666
0.627756
0.663828
0.710592
0.763207
0.814324
0.857695
0.89083
0.917295
0.943099
0.9732
1.00969
1.05321
1.10303
1.15832
1.21811
1.28149
1.34736
1.41486
1.48322
1.5517
1.61971
1.68671
1.75233
1.81625
1.87836
1.9385
1.99674
2.05306
2.10764
2.16052
2.21194
2.26196
2.31084
2.35864
2.40561
2.45181
2.49746
2.54261
2.58747
2.63207
2.67656
2.72094
2.76532
2.80966
2.85403
2.89834
2.94257
2.98657
3.03023
3.07332
3.11566
3.15693
3.19687
3.23509
3.2713
3.30522
3.33648
3.36457
3.38918
3.40986
3.42641
3.43827
3.44517
3.45169
3.45552
3.45105
3.44101
3.42586
3.40624
3.38255
3.35499
3.32392
3.28958
3.2525
3.21286
3.17109
3.12747
3.08238
3.03638
2.98958
2.94252
2.8952
2.84799
2.80075
2.75384
2.70731
2.66123
2.61567
2.57068
2.52629
2.48254
2.43942
2.39693
2.35505
2.31375
2.27302
2.23286
2.19324
2.15414
2.11552
2.07738
2.03968
2.00243
1.9656
1.92922
1.89329
1.85785
1.82285
1.78823
1.75392
1.71989
1.68611
1.65258
1.61928
1.58621
1.5534
1.52092
1.48876
1.4569
1.42534
1.39405
1.36305
1.33238
1.30212
1.27233
1.24304
1.21423
1.1858
1.15794
1.1308
1.10448
1.07893
1.05368
1.0289
1.00466
0.980772
0.957019
0.933042
0.908216
0.882216
0.854387
0.823938
0.789967
0.75184
0.709235
0.662413
0.612274
0.561145
0.511438
0.465365
0.424878
0.390658
0.362829
0.340787
0.323285
0.309218
0.297862
0.288604
0.281073
0.274744
0.269385
0.264787
0.261761
0.25936
0.255968
0.256737
0.254364
0.254705
0.254917
0.25482
0.253329
0.256852
0.255275
0.510649
0.618386
0.687757
0.725679
0.744761
0.756267
0.768778
0.787483
0.813821
0.84542
0.878467
0.909756
0.939123
0.968654
1.00148
1.03992
1.08531
1.13764
1.19613
1.25961
1.32708
1.39746
1.46987
1.54346
1.61756
1.69156
1.76494
1.83727
1.90818
1.97743
2.04483
2.1103
2.17376
2.2353
2.29493
2.35279
2.40897
2.46367
2.51698
2.56912
2.6202
2.67043
2.71991
2.76888
2.8174
2.86568
2.9138
2.96192
3.01008
3.05842
3.10694
3.1557
3.20467
3.25382
3.30305
3.35225
3.40119
3.4497
3.49743
3.5441
3.5893
3.63268
3.67379
3.71219
3.74735
3.77882
3.80611
3.82884
3.8466
3.85906
3.86649
3.87283
3.87106
3.86241
3.84769
3.82748
3.8022
3.77221
3.73793
3.69978
3.65822
3.61368
3.56659
3.51741
3.46657
3.41454
3.36165
3.30829
3.25469
3.20109
3.14756
3.09435
3.0416
2.98939
2.93777
2.88679
2.8365
2.78692
2.73805
2.68989
2.64241
2.59559
2.54941
2.50385
2.4589
2.41453
2.37074
2.32748
2.28477
2.24257
2.20089
2.1597
2.11904
2.07886
2.03917
1.99991
1.96103
1.9225
1.88429
1.84637
1.80875
1.77142
1.73443
1.69778
1.66153
1.62564
1.59014
1.55501
1.52029
1.48599
1.45217
1.41887
1.3861
1.35388
1.32224
1.29124
1.26103
1.23169
1.20321
1.17541
1.14824
1.12161
1.09537
1.06929
1.04301
1.01585
0.98761
0.957803
0.925755
0.890544
0.851189
0.807001
0.757718
0.703782
0.646986
0.589974
0.535453
0.485972
0.443082
0.407423
0.378695
0.355906
0.337891
0.323626
0.312264
0.303134
0.295592
0.289136
0.284286
0.281029
0.277734
0.274641
0.275097
0.272344
0.272451
0.272728
0.272584
0.270877
0.274108
0.272741
0.580648
0.733907
0.825367
0.872701
0.892215
0.897831
0.899709
0.903743
0.913455
0.929274
0.950611
0.976803
1.00835
1.04598
1.09044
1.14169
1.1993
1.26233
1.32979
1.40067
1.47415
1.54944
1.62592
1.70299
1.78018
1.85704
1.93317
2.00825
2.082
2.15423
2.22477
2.29354
2.36046
2.42559
2.48891
2.55053
2.61052
2.66902
2.72613
2.78203
2.83682
2.89071
2.94381
2.99632
3.04837
3.10015
3.15177
3.20344
3.25523
3.30731
3.35973
3.41261
3.46596
3.51981
3.57408
3.62871
3.68351
3.73829
3.79273
3.84652
3.89921
3.95036
3.99945
4.04592
4.08915
4.12855
4.16351
4.19346
4.21785
4.23617
4.24727
4.25535
4.25863
4.25249
4.23903
4.21894
4.19273
4.16087
4.12387
4.08224
4.03653
3.98729
3.93507
3.88041
3.82381
3.76577
3.70674
3.6471
3.58719
3.52721
3.46737
3.40789
3.34895
3.29065
3.23304
3.17618
3.12011
3.06483
3.01036
2.95668
2.90378
2.85165
2.80025
2.7496
2.69966
2.65041
2.60182
2.55387
2.50655
2.45984
2.41372
2.36817
2.32319
2.27876
2.23485
2.19142
2.14843
2.10584
2.06364
2.02179
1.98029
1.93915
1.89839
1.85804
1.81811
1.77862
1.73957
1.70098
1.66287
1.62526
1.58819
1.5517
1.51581
1.48053
1.4459
1.41197
1.37882
1.34656
1.31519
1.28463
1.25479
1.22554
1.19669
1.16802
1.1392
1.10977
1.07939
1.04766
1.01405
0.977821
0.937656
0.892782
0.842382
0.786333
0.725821
0.663364
0.602042
0.544926
0.494299
0.451366
0.416222
0.388121
0.365928
0.348464
0.334698
0.323733
0.31476
0.307392
0.301018
0.29671
0.292857
0.291223
0.291072
0.289658
0.287085
0.287826
0.287265
0.286815
0.287148
0.286474
0.642413
0.822127
0.923416
0.976746
0.995602
0.99727
0.990923
0.986346
0.986746
0.99679
1.01668
1.04583
1.08365
1.12934
1.18214
1.24104
1.3051
1.37331
1.44487
1.519
1.5951
1.67261
1.75108
1.83008
1.90922
1.98816
2.06656
2.14415
2.2207
2.296
2.36989
2.44226
2.51302
2.58215
2.64962
2.71547
2.77974
2.84252
2.90386
2.96393
3.0228
3.08064
3.13756
3.19378
3.24939
3.30464
3.35964
3.41463
3.46973
3.52517
3.58105
3.63757
3.69478
3.75281
3.81164
3.87129
3.9316
3.99243
4.05348
4.11442
4.1748
4.2341
4.29173
4.34701
4.3992
4.44756
4.49131
4.52971
4.56205
4.58774
4.60624
4.61706
4.62406
4.62107
4.60961
4.59031
4.56373
4.53043
4.49099
4.44607
4.39631
4.3424
4.28498
4.2247
4.16217
4.09797
4.03261
3.96655
3.90016
3.83371
3.76743
3.70159
3.63638
3.57194
3.50831
3.44556
3.38371
3.3228
3.26282
3.20379
3.14567
3.08847
3.03215
2.97671
2.92209
2.8683
2.81527
2.763
2.71144
2.66058
2.61039
2.56087
2.51195
2.46366
2.41592
2.36873
2.32202
2.27579
2.22998
2.1846
2.13961
2.09504
2.05089
2.00719
1.96396
1.92121
1.87895
1.83721
1.79599
1.75535
1.71529
1.67587
1.63709
1.59898
1.56157
1.52491
1.48902
1.45399
1.41984
1.38655
1.354
1.32205
1.2905
1.25913
1.22763
1.19563
1.16275
1.12862
1.0928
1.05472
1.01358
0.968621
0.918067
0.861134
0.798308
0.731902
0.665229
0.601795
0.544472
0.495002
0.453895
0.420673
0.394288
0.373506
0.357149
0.344197
0.333716
0.325176
0.317869
0.312067
0.307005
0.303602
0.3049
0.303403
0.302669
0.300306
0.299936
0.297672
0.300207
0.29883
0.682949
0.867848
0.974931
1.03274
1.0539
1.05609
1.04924
1.04398
1.04451
1.0559
1.07887
1.11254
1.15551
1.20628
1.26358
1.3262
1.39318
1.46366
1.537
1.6126
1.69002
1.76883
1.84868
1.92921
2.0101
2.09108
2.17186
2.25217
2.33178
2.41048
2.48807
2.56443
2.63941
2.71295
2.78496
2.85545
2.92437
2.99179
3.05772
3.12225
3.18543
3.24743
3.3083
3.36826
3.42741
3.48598
3.54412
3.60208
3.66005
3.71828
3.77697
3.83636
3.89662
3.95796
4.02048
4.08426
4.14926
4.2154
4.28244
4.35009
4.4179
4.48531
4.55165
4.61616
4.67797
4.73614
4.78972
4.83775
4.8793
4.91354
4.93978
4.95631
4.96778
4.969
4.96047
4.94275
4.91644
4.88218
4.84067
4.79266
4.73896
4.68036
4.61767
4.55165
4.48302
4.41247
4.3406
4.26795
4.19495
4.1219
4.04908
3.97677
3.90523
3.83459
3.76496
3.69637
3.62888
3.5625
3.49726
3.43312
3.37009
3.30814
3.24723
3.18733
3.12841
3.07042
3.01333
2.9571
2.9017
2.84708
2.79323
2.74009
2.68766
2.63588
2.58474
2.53418
2.48417
2.43468
2.38568
2.33714
2.28906
2.24143
2.19427
2.14759
2.10141
2.05575
2.01062
1.96604
1.92203
1.87862
1.83583
1.79371
1.75226
1.71153
1.67154
1.6323
1.59385
1.55622
1.51944
1.48349
1.44827
1.41363
1.37938
1.34529
1.31108
1.27639
1.24089
1.20421
1.16593
1.1256
1.08265
1.03645
0.985905
0.929083
0.864943
0.795741
0.724946
0.656411
0.593469
0.538322
0.491872
0.453907
0.423506
0.399441
0.380445
0.3654
0.353304
0.343455
0.335173
0.328276
0.321997
0.319371
0.318057
0.314205
0.31566
0.314463
0.313692
0.309167
0.311363
0.309399
0.679646
0.867289
0.977608
1.04109
1.06943
1.07843
1.07916
1.07941
1.08585
1.10225
1.12965
1.16726
1.21366
1.26729
1.32687
1.39125
1.45959
1.53116
1.60544
1.68197
1.76039
1.84034
1.92155
2.0037
2.08654
2.1698
2.2532
2.33651
2.41946
2.50184
2.58343
2.66406
2.74355
2.82178
2.89863
2.97403
3.04789
3.12022
3.19097
3.2602
3.3279
3.39419
3.45911
3.52283
3.58544
3.64717
3.70818
3.76872
3.82902
3.88938
3.95005
4.01137
4.07361
4.13707
4.20198
4.26858
4.33694
4.40712
4.47899
4.55231
4.6267
4.70161
4.77634
4.85003
4.92169
4.99022
5.05443
5.11311
5.16504
5.20912
5.24439
5.26968
5.2851
5.29242
5.28801
5.27287
5.24767
5.21314
5.17008
5.11938
5.06199
4.99887
4.93097
4.8592
4.78442
4.70744
4.62897
4.54963
4.46993
4.39022
4.31084
4.23211
4.15433
4.07766
4.00221
3.92804
3.85519
3.78367
3.71349
3.64462
3.57704
3.51071
3.4456
3.38164
3.31882
3.25705
3.19632
3.13655
3.07772
3.01977
2.96267
2.90636
2.85083
2.79601
2.74189
2.6884
2.63552
2.58321
2.53143
2.48016
2.4294
2.37912
2.32936
2.28009
2.23135
2.18314
2.13548
2.0884
2.04191
1.99603
1.9508
1.90623
1.86237
1.81924
1.77685
1.73522
1.69437
1.65431
1.61505
1.57656
1.53876
1.50149
1.46458
1.42781
1.3909
1.35353
1.31539
1.2761
1.23531
1.19259
1.14749
1.09949
1.04782
0.991174
0.9263
0.855097
0.781169
0.70862
0.641112
0.581211
0.530142
0.487947
0.453848
0.42666
0.405083
0.387926
0.374134
0.362891
0.353509
0.345571
0.33862
0.332427
0.329268
0.325596
0.327694
0.326606
0.325699
0.320746
0.32181
0.319351
0.657832
0.846504
0.958006
1.02484
1.05876
1.07473
1.08364
1.09344
1.10844
1.13128
1.16336
1.20429
1.25305
1.30839
1.36919
1.43449
1.50358
1.57584
1.65086
1.72824
1.80768
1.8889
1.97164
2.05565
2.14065
2.22641
2.31266
2.39917
2.48566
2.5719
2.65765
2.7427
2.82685
2.90992
2.99174
3.0722
3.15116
3.22855
3.30428
3.37834
3.45069
3.52138
3.59041
3.6579
3.72393
3.78868
3.8523
3.91506
3.97717
4.03899
4.10081
4.16304
4.22604
4.29025
4.35603
4.42379
4.49378
4.56624
4.6412
4.71857
4.79807
4.87924
4.96137
5.04358
5.12477
5.20368
5.2789
5.34893
5.41225
5.46742
5.51315
5.54844
5.57128
5.58481
5.58567
5.5743
5.55131
5.51748
5.47371
5.421
5.36046
5.29323
5.22042
5.14312
5.06233
4.97903
4.89406
4.80816
4.72194
4.63582
4.55015
4.46533
4.38165
4.29932
4.21844
4.13909
4.06129
3.98505
3.91035
3.83719
3.7655
3.69525
3.62638
3.55884
3.49256
3.42749
3.36356
3.30073
3.23893
3.17812
3.11823
3.05923
3.00107
2.94369
2.88706
2.83112
2.77583
2.72116
2.66707
2.61354
2.56054
2.50806
2.45611
2.40469
2.35379
2.30344
2.25365
2.20444
2.15582
2.10781
2.06044
2.01374
1.96773
1.92244
1.87789
1.83408
1.79102
1.7487
1.70711
1.66623
1.62596
1.58617
1.54669
1.5073
1.46776
1.42777
1.38701
1.34515
1.30185
1.25671
1.20936
1.15929
1.106
1.04819
0.982981
0.910262
0.833951
0.758327
0.687252
0.623532
0.568638
0.522821
0.485446
0.455396
0.43138
0.412164
0.396657
0.383971
0.373394
0.364382
0.356566
0.349416
0.343661
0.338766
0.339623
0.337638
0.336909
0.334555
0.331203
0.329351
0.617351
0.796495
0.911932
0.985083
1.02854
1.05482
1.07287
1.08981
1.1114
1.14046
1.17723
1.22136
1.27217
1.32879
1.39041
1.4563
1.5259
1.59868
1.67438
1.75264
1.8332
1.9158
2.0002
2.08618
2.17349
2.26187
2.35107
2.44083
2.53088
2.62097
2.71085
2.80029
2.88905
2.97692
3.06368
3.14917
3.23319
3.31564
3.39636
3.47529
3.55232
3.62744
3.70061
3.7719
3.84131
3.909
3.97507
4.03978
4.10332
4.16606
4.22831
4.29054
4.35318
4.41678
4.48185
4.54898
4.61865
4.69129
4.76718
4.84647
4.92904
5.01455
5.10241
5.19173
5.28136
5.36994
5.45591
5.53745
5.61269
5.67979
5.73709
5.78314
5.81627
5.8368
5.84461
5.83846
5.81907
5.78722
5.74386
5.69015
5.62734
5.55676
5.47973
5.39752
5.31134
5.22231
5.13142
5.03954
4.94738
4.85541
4.76404
4.67368
4.58466
4.49721
4.41144
4.32743
4.2452
4.16477
4.08609
4.00915
3.93388
3.86023
3.78812
3.71751
3.6483
3.58044
3.51385
3.44847
3.38422
3.32106
3.25891
3.19772
3.13744
3.07802
3.01939
2.96152
2.90434
2.84782
2.79192
2.73662
2.68187
2.62768
2.57402
2.5209
2.46831
2.41626
2.36476
2.31383
2.26347
2.21371
2.16456
2.11605
2.06821
2.02105
1.97459
1.92883
1.88377
1.83939
1.79567
1.75256
1.70998
1.6678
1.62587
1.58399
1.54191
1.49937
1.45608
1.41172
1.36595
1.31844
1.26879
1.21657
1.16135
1.10185
1.03571
0.961566
0.883398
0.805499
0.731783
0.665163
0.607262
0.558485
0.518328
0.485749
0.459495
0.438326
0.421133
0.406989
0.395154
0.385029
0.376259
0.368374
0.361353
0.355019
0.351454
0.34652
0.347496
0.345532
0.341544
0.342069
0.588762
0.744772
0.854634
0.930151
0.981438
1.01768
1.0466
1.07351
1.10221
1.13542
1.17481
1.22058
1.27237
1.32954
1.39149
1.45763
1.52754
1.6009
1.67724
1.75635
1.838
1.92196
2.008
2.0959
2.18543
2.27635
2.3684
2.46135
2.55476
2.64846
2.74219
2.83573
2.92881
3.02121
3.11264
3.20291
3.29177
3.37907
3.46461
3.54827
3.62989
3.7094
3.78669
3.86175
3.93454
4.00515
4.07363
4.14018
4.20497
4.26833
4.33056
4.39216
4.4536
4.5155
4.57849
4.64335
4.71075
4.78142
4.85587
4.93448
5.01742
5.10461
5.19574
5.29008
5.38648
5.48339
5.57901
5.67135
5.75826
5.83747
5.90681
5.96441
6.00878
6.03899
6.05462
6.05503
6.0408
6.01249
5.97107
5.91786
5.85427
5.78178
5.70189
5.61607
5.5257
5.43206
5.3363
5.23942
5.14222
5.04527
4.94901
4.8539
4.7603
4.66846
4.57851
4.49053
4.40454
4.32055
4.23853
4.15843
4.08019
4.00375
3.92902
3.85591
3.78437
3.71429
3.64561
3.57824
3.51212
3.44716
3.38332
3.32051
3.25868
3.19777
3.13771
3.07845
3.01994
2.96212
2.90496
2.84842
2.79247
2.73708
2.68223
2.62792
2.57413
2.52086
2.46813
2.41592
2.36426
2.31316
2.26263
2.21269
2.16337
2.11467
2.0666
2.01917
1.97236
1.92614
1.88049
1.83535
1.79064
1.74625
1.70202
1.65777
1.61329
1.56832
1.52259
1.47581
1.42766
1.37781
1.32589
1.27148
1.21415
1.1527
1.08486
1.00922
0.929595
0.850123
0.774626
0.705997
0.645912
0.59487
0.552466
0.517742
0.489501
0.466524
0.447709
0.432116
0.418988
0.407711
0.397868
0.389076
0.381135
0.373789
0.367937
0.361985
0.357766
0.354742
0.352556
0.351034
0.563739
0.695962
0.796509
0.871332
0.927639
0.971572
1.00882
1.0438
1.07981
1.11882
1.16203
1.21001
1.26284
1.32038
1.38232
1.44831
1.51804
1.59119
1.6675
1.74673
1.82869
1.91315
1.99991
2.08875
2.17943
2.27174
2.36546
2.46044
2.55648
2.65318
2.7502
2.84728
2.94414
3.04055
3.13627
3.23083
3.32405
3.41578
3.50577
3.59387
3.67985
3.76359
3.8449
3.92373
3.99992
4.0735
4.14445
4.21292
4.279
4.34297
4.4051
4.46585
4.52567
4.58524
4.64524
4.70654
4.76999
4.83651
4.90686
4.98179
5.06183
5.14726
5.23812
5.33388
5.4337
5.536
5.63899
5.74053
5.8382
5.92939
6.01153
6.08211
6.13855
6.17968
6.20477
6.21306
6.20591
6.18314
6.14569
6.09508
6.03285
5.9605
5.87971
5.7921
5.69923
5.60255
5.50338
5.40285
5.30189
5.20113
5.10109
5.00227
4.90509
4.8098
4.71658
4.62547
4.53653
4.44976
4.36515
4.28263
4.20216
4.12361
4.04694
3.97202
3.89879
3.82715
3.75702
3.6883
3.62092
3.55479
3.48986
3.42604
3.36327
3.30147
3.24059
3.18055
3.12129
3.06277
3.00494
2.94774
2.89116
2.83514
2.77966
2.7247
2.67025
2.61629
2.56283
2.50985
2.45736
2.40538
2.3539
2.30295
2.25253
2.20266
2.15333
2.10453
2.05625
2.00846
1.96112
1.91418
1.86755
1.82113
1.77478
1.72833
1.68159
1.63432
1.58627
1.53717
1.48672
1.4346
1.38045
1.32383
1.26428
1.20066
1.13049
1.0533
0.972576
0.892186
0.815721
0.745942
0.684481
0.631871
0.587777
0.551322
0.521374
0.496765
0.476419
0.459408
0.444975
0.432507
0.421556
0.411758
0.402883
0.394645
0.387378
0.38043
0.374334
0.368602
0.367512
0.364234
0.53182
0.647603
0.74029
0.813474
0.872591
0.921908
0.965436
1.00654
1.04776
1.09082
1.13688
1.18658
1.24029
1.29801
1.35969
1.42517
1.49432
1.56695
1.64289
1.72195
1.80394
1.88868
1.97598
2.06561
2.15734
2.25093
2.34606
2.44252
2.53998
2.63824
2.73703
2.8361
2.93517
3.03402
3.13242
3.23027
3.32711
3.42264
3.51657
3.60867
3.69868
3.78644
3.87169
3.95439
4.03408
4.11079
4.18445
4.25512
4.32282
4.38776
4.4501
4.51024
4.5686
4.62582
4.68259
4.73985
4.79856
4.85983
4.92479
4.99447
5.0697
5.15109
5.23884
5.33283
5.43254
5.53638
5.64267
5.74923
5.85349
5.95261
6.04378
6.12425
6.19173
6.24475
6.28157
6.29989
6.3024
6.28854
6.25824
6.21311
6.15477
6.08501
6.00566
5.9185
5.82526
5.72756
5.62686
5.52442
5.42131
5.31826
5.21585
5.11467
5.01516
4.91762
4.82223
4.72905
4.6381
4.54949
4.46318
4.37912
4.29723
4.21741
4.13957
4.06361
3.98944
3.91696
3.84608
3.77671
3.70876
3.64214
3.57678
3.5126
3.44954
3.38752
3.32646
3.26629
3.20693
3.14834
3.09046
3.03324
2.97663
2.92059
2.86508
2.81006
2.75552
2.70143
2.64779
2.59457
2.54177
2.4894
2.43745
2.38594
2.33485
2.2842
2.23398
2.18416
2.13473
2.08566
2.0369
1.9884
1.94009
1.89186
1.84358
1.79511
1.74627
1.69684
1.6466
1.59529
1.54263
1.4883
1.43194
1.3731
1.31121
1.24518
1.17231
1.09368
1.0123
0.931652
0.85501
0.784907
0.722857
0.669368
0.624146
0.586387
0.555036
0.528992
0.507227
0.488849
0.473117
0.459431
0.447336
0.43647
0.426596
0.417434
0.409069
0.401139
0.393947
0.387073
0.38108
0.380437
0.489468
0.598858
0.686813
0.758817
0.819639
0.87257
0.920577
0.966198
1.01139
1.05756
1.10575
1.15662
1.21063
1.26798
1.32882
1.39315
1.46097
1.53221
1.60678
1.68455
1.7654
1.84916
1.93567
2.02473
2.11615
2.20972
2.30523
2.40237
2.50082
2.60035
2.70068
2.80156
2.90266
3.0037
3.10439
3.20441
3.30354
3.40156
3.49816
3.59312
3.68614
3.77702
3.86549
3.9515
4.03465
4.11474
4.19154
4.26498
4.33498
4.40162
4.465
4.52537
4.58307
4.63863
4.69272
4.74625
4.8003
4.85601
4.91468
4.97756
5.04577
5.12022
5.20154
5.28991
5.38505
5.48604
5.59145
5.69927
5.80704
5.9119
6.01058
6.10022
6.17857
6.24144
6.28782
6.31667
6.32714
6.32146
6.29796
6.2602
6.20849
6.14428
6.06935
5.98557
5.89478
5.79877
5.69903
5.59709
5.49397
5.39057
5.28769
5.18597
5.08585
4.98768
4.89161
4.79775
4.70597
4.6166
4.52965
4.44507
4.36274
4.28258
4.20447
4.12833
4.05405
3.98155
3.91072
3.84146
3.77369
3.70731
3.64222
3.57839
3.51577
3.45423
3.3937
3.33408
3.2753
3.21732
3.16006
3.10348
3.0475
2.99208
2.93716
2.88271
2.82869
2.77508
2.72183
2.66894
2.61638
2.56415
2.51224
2.46064
2.40934
2.35834
2.30761
2.25715
2.20691
2.15688
2.107
2.05722
2.00746
1.95765
1.90766
1.85735
1.80658
1.75514
1.70284
1.64943
1.59463
1.53814
1.47958
1.41848
1.35412
1.28504
1.20981
1.13014
1.04867
0.96846
0.892423
0.822795
0.76091
0.707206
0.661407
0.62277
0.590329
0.563061
0.54001
0.520332
0.503325
0.488411
0.475145
0.463167
0.452238
0.442089
0.43271
0.423789
0.415623
0.407611
0.400569
0.394012
0.446031
0.549479
0.634566
0.706236
0.768645
0.824554
0.876093
0.925261
0.973602
1.02224
1.07206
1.12369
1.17762
1.23417
1.29361
1.35607
1.42169
1.49049
1.56251
1.6377
1.716
1.7973
1.8815
1.96842
2.05791
2.14977
2.24379
2.33972
2.43731
2.53632
2.63648
2.73756
2.83928
2.94142
3.04359
3.14554
3.24696
3.34759
3.44711
3.54526
3.64168
3.73609
3.82815
3.91759
4.0041
4.08751
4.16754
4.24408
4.31689
4.386
4.4513
4.51296
4.5711
4.62615
4.67854
4.72913
4.7789
4.8292
4.88128
4.93657
4.99629
5.06168
5.13362
5.21272
5.29907
5.39228
5.49133
5.59466
5.7001
5.80502
5.90637
6.00109
6.08617
6.15866
6.21636
6.2574
6.28123
6.28619
6.27512
6.24658
6.20248
6.14487
6.07548
5.99643
5.90954
5.81671
5.71962
5.61968
5.51824
5.41609
5.31427
5.21344
5.11407
5.01651
4.92099
4.82755
4.73575
4.64684
4.56055
4.47669
4.39512
4.31575
4.23848
4.16322
4.08988
4.01838
3.9486
3.88041
3.81379
3.74864
3.68473
3.62219
3.56083
3.50057
3.44133
3.38303
3.32555
3.2689
3.213
3.15776
3.10312
3.049
2.99536
2.94214
2.88929
2.83677
2.78455
2.73258
2.68083
2.62929
2.57794
2.52675
2.4757
2.42478
2.37396
2.32322
2.27252
2.22184
2.17111
2.1203
2.06934
2.01814
1.96661
1.91462
1.86205
1.80872
1.75444
1.69898
1.64208
1.58341
1.52258
1.45905
1.39192
1.3196
1.24263
1.16254
1.08166
1.00266
0.92803
0.859662
0.798669
0.745387
0.699535
0.660434
0.627207
0.598928
0.574723
0.55382
0.535565
0.519417
0.504953
0.491821
0.479786
0.468583
0.458177
0.448238
0.439119
0.429991
0.422289
0.413203
0.403331
0.503943
0.587913
0.660091
0.724119
0.782268
0.83663
0.888673
0.93958
0.990201
1.04125
1.09327
1.14674
1.20201
1.25945
1.31929
1.38177
1.44706
1.51528
1.58648
1.66073
1.73798
1.81819
1.90128
1.98712
2.07556
2.16643
2.25953
2.35463
2.45153
2.54996
2.6497
2.75049
2.85208
2.95417
3.0565
3.15877
3.26072
3.36202
3.46241
3.56152
3.65911
3.75474
3.84808
3.93872
4.02641
4.11075
4.19151
4.26837
4.34119
4.40976
4.4741
4.53418
4.59029
4.64269
4.69212
4.73937
4.78569
4.83225
4.88048
4.93165
4.9871
5.04786
5.11484
5.18857
5.26906
5.35598
5.44826
5.54447
5.64245
5.73974
5.83341
5.92044
5.99785
6.0631
6.11409
6.15003
6.1657
6.16581
6.14887
6.11607
6.06871
6.00878
5.93804
5.85865
5.77235
5.68098
5.58608
5.48901
5.39079
5.29244
5.19466
5.09803
5.00292
4.90965
4.81829
4.72858
4.64147
4.55677
4.4744
4.39431
4.31639
4.2406
4.16681
4.095
4.02504
3.95685
3.89027
3.82531
3.76185
3.69945
3.63879
3.57953
3.5214
3.46437
3.40829
3.353
3.29856
3.24482
3.19171
3.13916
3.08708
3.03544
2.98415
2.93317
2.88243
2.83188
2.78148
2.73117
2.68092
2.6307
2.58046