/*--------------------------------*- C++ -*----------------------------------*\
  =========                 |
  \\      /  F ield         | OpenFOAM: The Open Source CFD Toolbox
   \\    /   O peration     | Website:  https://openfoam.org
    \\  /    A nd           | Version:  8
     \\/     M anipulation  |
\*---------------------------------------------------------------------------*/
FoamFile
{
    version     2.0;
    format      ascii;
    class       volScalarField;
    location    "45";
    object      p;
}
// * * * * * * * * * * * * * * * * * * * * * * * * * * * * * * * * * * * * * //

dimensions      [0 2 -2 0 0 0 0];

internalField   nonuniform List<scalar> 
12225
(
-0.223488
-2.40819
-3.49481
-3.79388
-3.96892
-4.11593
-4.19558
-4.24061
-4.28406
-4.31694
-4.31692
-4.28193
-4.2202
-4.14136
-4.04345
-3.88892
-3.72059
-3.17495
-3.38589
-4.14486
-4.30299
-4.18888
-4.16545
-4.20913
-4.23667
-4.2551
-4.2822
-4.30361
-4.29697
-4.25805
-4.1964
-4.12054
-4.02758
-3.89333
-3.70447
-3.49614
-3.78709
-3.77108
-3.89087
-3.9444
-4.02588
-4.12079
-4.18237
-4.22441
-4.26388
-4.29041
-4.28757
-4.25387
-4.20008
-4.13366
-4.05297
-3.94477
-3.80738
-3.72025
-3.66663
-3.60849
-3.83454
-3.97311
-4.06335
-4.14429
-4.19991
-4.24016
-4.27525
-4.29645
-4.29135
-4.26026
-4.21303
-4.15567
-4.0873
-4.00082
-3.90369
-3.81859
-3.65788
-3.67696
-3.89298
-4.01878
-4.08996
-4.15516
-4.20593
-4.24526
-4.27805
-4.29693
-4.29271
-4.26673
-4.22751
-4.18025
-4.12447
-4.05758
-3.98493
-3.9266
-3.71768
-3.76118
-3.92791
-4.03292
-4.10067
-4.1622
-4.21142
-4.25066
-4.28307
-4.30215
-4.30072
-4.28041
-4.24888
-4.21113
-4.1676
-4.11834
-4.06964
-4.04391
-3.78038
-3.82006
-3.94847
-4.04244
-4.11398
-4.17465
-4.22086
-4.25874
-4.29136
-4.31197
-4.31403
-4.29911
-4.27478
-4.24618
-4.21476
-4.18211
-4.15467
-4.14773
-3.83694
-3.87045
-3.97324
-4.05885
-4.13171
-4.19049
-4.23288
-4.26899
-4.30237
-4.32537
-4.33135
-4.32194
-4.30478
-4.28533
-4.26576
-4.24811
-4.23767
-4.24335
-3.89051
-3.91945
-4.00355
-4.08027
-4.15068
-4.20699
-4.2466
-4.28165
-4.31603
-4.3417
-4.35203
-4.34864
-4.33881
-4.32826
-4.31983
-4.31554
-4.31928
-4.33537
-3.94234
-3.96776
-4.03695
-4.10509
-4.17117
-4.2246
-4.26271
-4.29757
-4.33299
-4.36143
-4.3766
-4.37974
-4.37716
-4.37505
-4.37672
-4.38398
-4.39942
-4.42512
-3.9925
-4.01461
-4.07071
-4.13211
-4.19419
-4.24432
-4.28135
-4.31642
-4.35296
-4.3843
-4.40482
-4.41489
-4.4198
-4.42571
-4.43624
-4.45309
-4.47815
-4.51157
-4.03696
-4.05633
-4.10268
-4.15852
-4.21748
-4.26521
-4.30158
-4.33657
-4.37346
-4.40723
-4.43304
-4.4502
-4.46259
-4.47546
-4.49273
-4.5164
-4.54835
-4.58842
-4.07949
-4.09683
-4.13633
-4.1855
-4.24083
-4.28802
-4.32525
-4.35995
-4.39584
-4.43095
-4.46198
-4.48733
-4.50803
-4.52801
-4.55117
-4.58004
-4.61769
-4.66208
-4.1261
-4.14105
-4.17591
-4.21762
-4.26745
-4.31552
-4.35637
-4.39173
-4.4254
-4.46012
-4.49628
-4.53075
-4.56203
-4.5911
-4.62111
-4.65478
-4.69643
-4.74362
-4.17631
-4.18868
-4.22082
-4.25663
-4.29932
-4.34731
-4.39398
-4.43298
-4.46524
-4.49831
-4.5371
-4.58022
-4.62296
-4.66313
-4.70159
-4.74111
-4.78659
-4.83573
-4.22913
-4.24014
-4.26911
-4.30201
-4.33835
-4.38346
-4.43531
-4.48172
-4.51688
-4.54876
-4.588
-4.63686
-4.69015
-4.74222
-4.79083
-4.83699
-4.88627
-4.93653
-4.28258
-4.29252
-4.31856
-4.35193
-4.38566
-4.4264
-4.48033
-4.53514
-4.57773
-4.61185
-4.65081
-4.7021
-4.76313
-4.82608
-4.88497
-4.93892
-4.99308
-5.04575
-4.33302
-4.34261
-4.36666
-4.40191
-4.43743
-4.47624
-4.5301
-4.59099
-4.64227
-4.68238
-4.7238
-4.77694
-4.84234
-4.91317
-4.98121
-5.04291
-5.10189
-5.15612
-4.37367
-4.38416
-4.40838
-4.44532
-4.48539
-4.52754
-4.58292
-4.64753
-4.70584
-4.75354
-4.80068
-4.85802
-4.92716
-5.00234
-5.07535
-5.14217
-5.20486
-5.26115
-4.38682
-4.39848
-4.42566
-4.46614
-4.51183
-4.56118
-4.62116
-4.68826
-4.7489
-4.80199
-4.85591
-4.92025
-4.99334
-5.07021
-5.143
-5.21047
-5.2738
-5.33279
-4.38045
-4.39352
-4.42525
-4.47008
-4.52136
-4.57758
-4.64291
-4.7108
-4.77299
-4.82996
-4.89155
-4.96193
-5.03905
-5.11522
-5.18708
-5.25248
-5.31635
-5.3762
-4.36056
-4.37493
-4.41199
-4.46278
-4.52149
-4.58599
-4.65574
-4.72398
-4.78646
-4.84843
-4.91717
-4.99352
-5.07227
-5.14706
-5.21616
-5.28037
-5.34408
-5.40644
-4.33124
-4.34596
-4.3888
-4.44787
-4.516
-4.58955
-4.66325
-4.73128
-4.79488
-4.86173
-4.9367
-5.01703
-5.0952
-5.16776
-5.23391
-5.29808
-5.36261
-5.42815
-4.29555
-4.30957
-4.36129
-4.42989
-4.5055
-4.58591
-4.66394
-4.7339
-4.80069
-4.87304
-4.95292
-5.03473
-5.11145
-5.18096
-5.24585
-5.30969
-5.37642
-5.44424
-4.25416
-4.26221
-4.3363
-4.42012
-4.49741
-4.57848
-4.65841
-4.73109
-4.80262
-4.88079
-4.9648
-5.04704
-5.12199
-5.18957
-5.25382
-5.31861
-5.38689
-5.45648
-4.21465
-4.18043
-4.29853
-4.41713
-4.50041
-4.58001
-4.65799
-4.72934
-4.80247
-4.88435
-4.97042
-5.05205
-5.12501
-5.19124
-5.25564
-5.32206
-5.39254
-5.46462
-4.23124
-4.07758
-4.21155
-4.36812
-4.48019
-4.58021
-4.66607
-4.73804
-4.81176
-4.89545
-4.98249
-5.06215
-5.13186
-5.19503
-5.25764
-5.32366
-5.39528
-5.46985
-4.35526
-4.18043
-4.20907
-4.27992
-4.3841
-4.51104
-4.61843
-4.70261
-4.78612
-4.87969
-4.97501
-5.05966
-5.13041
-5.19335
-5.25557
-5.32142
-5.39465
-5.47262
-4.06317
-4.65102
-4.75881
-4.63993
-4.60352
-4.65777
-4.71855
-4.76861
-4.8303
-4.91201
-5.00157
-5.08214
-5.14809
-5.2059
-5.26317
-5.3246
-5.39398
-5.47012
-1.0756
-2.84438
-3.85228
-4.157
-4.33037
-4.50361
-4.63046
-4.7157
-4.79833
-4.89461
-4.99522
-5.08394
-5.15536
-5.21629
-5.27535
-5.33815
-5.40722
-5.47946
-6.54193
-6.51306
-6.5352
-6.60216
-6.67629
-6.74275
-6.79538
-6.83348
-6.86
-6.87719
-6.89007
-6.90147
-6.91251
-6.92371
-6.93677
-6.95125
-6.97128
-6.99828
-7.03404
-7.08393
-7.15627
-7.25862
-7.39622
-7.57164
-7.78431
-8.03216
-8.31009
-8.61351
-8.93522
-9.27052
-9.61251
-9.95778
-10.3003
-10.6381
-10.9665
-11.2851
-11.59
-11.8817
-12.1571
-12.4172
-12.6591
-12.8842
-13.0893
-13.2758
-13.4406
-13.5848
-13.7045
-13.8002
-13.8678
-13.9075
-13.9149
-13.8891
-13.8253
-13.7227
-13.5775
-13.3896
-13.1567
-12.8798
-12.5582
-12.1929
-11.7833
-11.331
-10.8377
-10.3054
-9.73709
-9.13444
-8.50212
-7.84211
-7.16015
-6.45824
-5.74236
-5.01409
-4.28038
-3.54241
-2.80626
-2.0724
-1.34829
-0.633782
0.064978
0.749729
1.41473
2.06231
2.68774
3.29473
3.87888
4.44329
4.98389
5.50307
5.99896
6.47445
6.93234
7.37227
7.79377
8.19695
8.58258
8.95123
9.30386
9.64114
9.96389
10.2727
10.5684
10.8514
11.1224
11.3817
11.6295
11.8664
12.0928
12.3092
12.5162
12.7141
12.9033
13.0843
13.2575
13.4233
13.5819
13.7332
13.8771
14.0137
14.1437
14.2678
14.3852
14.4956
14.5992
14.6975
14.7912
14.8787
14.9603
15.0373
15.1082
15.1759
15.2423
15.3043
15.3596
15.4105
15.4605
15.5105
15.5564
15.5967
15.6355
15.6751
15.713
15.7491
15.7859
15.8241
15.8603
15.896
15.9305
15.9673
16.0086
16.0486
16.0852
16.1157
16.1386
16.1606
16.1825
16.1965
16.207
16.2145
16.2207
16.23
16.2368
16.2387
16.2368
16.2339
16.2306
16.2264
16.2208
16.2138
16.2062
16.1994
16.1928
16.1862
16.1813
16.1792
16.1805
16.188
16.2056
16.2381
16.3061
16.3929
-6.63728
-6.64878
-6.68208
-6.73408
-6.79255
-6.84395
-6.8812
-6.90144
-6.90516
-6.89593
-6.8794
-6.8615
-6.84726
-6.84024
-6.84226
-6.85369
-6.87309
-6.89869
-6.93378
-6.98801
-7.07234
-7.19425
-7.35663
-7.55917
-7.79821
-8.069
-8.36498
-8.6807
-9.00952
-9.34696
-9.68757
-10.0284
-10.3653
-10.6966
-11.0191
-11.3321
-11.6331
-11.9218
-12.1961
-12.4561
-12.6995
-12.9264
-13.1345
-13.3239
-13.492
-13.6385
-13.7605
-13.8574
-13.9265
-13.9671
-13.9758
-13.9514
-13.8908
-13.7932
-13.656
-13.4786
-13.2593
-12.9973
-12.6912
-12.341
-11.9467
-11.5093
-11.0301
-10.5108
-9.95385
-9.36182
-8.73864
-8.08691
-7.41056
-6.7128
-5.99918
-5.27297
-4.53922
-3.80046
-3.06204
-2.32609
-1.59793
-0.879681
-0.17565
0.513954
1.18541
1.83889
2.47204
3.08539
3.67658
4.24699
4.79457
5.32008
5.82259
6.30477
6.76877
7.21449
7.64151
8.05018
8.44126
8.81509
9.17279
9.51496
9.84241
10.1556
10.4557
10.7428
11.0179
11.2808
11.5324
11.773
12.003
12.2227
12.4331
12.6342
12.8264
13.0102
13.1856
13.3528
13.5128
13.6656
13.811
13.9499
14.0819
14.207
14.3258
14.438
14.5445
14.645
14.7388
14.8276
14.9115
14.9903
15.0659
15.1372
15.2028
15.2645
15.3223
15.3774
15.4291
15.4771
15.5227
15.5669
15.6092
15.6503
15.6911
15.7306
15.768
15.8052
15.8431
15.8798
15.9206
15.9615
15.997
16.0308
16.0648
16.0994
16.1323
16.1595
16.1835
16.2055
16.2199
16.2292
16.2345
16.2367
16.2369
16.2347
16.2313
16.2276
16.2235
16.2187
16.2131
16.2057
16.198
16.1918
16.1858
16.1793
16.1748
16.173
16.1741
16.181
16.1962
16.2244
16.2825
16.348
-6.68501
-6.71693
-6.75427
-6.79557
-6.83791
-6.87259
-6.89364
-6.89914
-6.88998
-6.87006
-6.84546
-6.8222
-6.80528
-6.79897
-6.80713
-6.83297
-6.87811
-6.94267
-7.02785
-7.13674
-7.2727
-7.43748
-7.63071
-7.85084
-8.09454
-8.35855
-8.63865
-8.93169
-9.23348
-9.54148
-9.85213
-10.1637
-10.4731
-10.7794
-11.08
-11.3742
-11.6598
-11.9363
-12.2017
-12.4556
-12.6958
-12.9218
-13.1316
-13.3244
-13.4977
-13.6504
-13.7803
-13.886
-13.9651
-14.0159
-14.0355
-14.0223
-13.974
-13.8892
-13.7657
-13.6025
-13.398
-13.1511
-12.8601
-12.5246
-12.1449
-11.7218
-11.256
-10.7489
-10.203
-9.62068
-9.00528
-8.35978
-7.68794
-6.99363
-6.28145
-5.55552
-4.82042
-4.07977
-3.33808
-2.59915
-1.86698
-1.14453
-0.434881
0.260173
0.938106
1.59772
2.23759
2.85705
3.45492
4.03124
4.58525
5.11666
5.6255
6.11373
6.58331
7.03414
7.46587
7.87925
8.27479
8.65307
9.015
9.36135
9.69266
10.0097
10.3134
10.6041
10.8824
11.1485
11.4033
11.6469
11.8801
12.1031
12.3167
12.521
12.7166
12.9037
13.0827
13.2537
13.4174
13.5737
13.7226
13.8644
13.9994
14.1279
14.25
14.3654
14.4747
14.5777
14.6747
14.7666
14.8536
14.9353
15.0126
15.0851
15.1526
15.2164
15.277
15.334
15.3874
15.4374
15.4859
15.5325
15.5765
15.6188
15.6606
15.7015
15.7406
15.7789
15.8178
15.8562
15.8963
15.9363
15.9726
16.0078
16.0442
16.0815
16.1165
16.1458
16.1714
16.195
16.2124
16.2246
16.2321
16.2351
16.2355
16.2334
16.2298
16.2255
16.2203
16.2148
16.2088
16.2015
16.194
16.1877
16.1818
16.1755
16.1711
16.169
16.1699
16.1757
16.1877
16.2101
16.2525
16.2821
-6.56954
-6.62987
-6.68117
-6.72141
-6.75636
-6.78274
-6.79747
-6.80066
-6.79478
-6.78413
-6.77428
-6.77098
-6.77949
-6.80454
-6.84963
-6.91664
-7.00561
-7.11545
-7.24492
-7.39362
-7.56145
-7.74836
-7.95351
-8.17599
-8.41394
-8.66586
-8.92921
-9.20235
-9.48255
-9.76839
-10.0572
-10.3478
-10.6378
-10.9263
-11.2111
-11.4916
-11.7656
-12.0325
-12.2905
-12.5389
-12.7756
-12.9999
-13.2097
-13.404
-13.5804
-13.7376
-13.8732
-13.9858
-14.0726
-14.1321
-14.1613
-14.1586
-14.1214
-14.0479
-13.9361
-13.7845
-13.5912
-13.355
-13.0746
-12.7492
-12.3787
-11.9637
-11.5049
-11.0036
-10.462
-9.88249
-9.26823
-8.62243
-7.94904
-7.25213
-6.53616
-5.80538
-5.06446
-4.31768
-3.56943
-2.8239
-2.08493
-1.35572
-0.639205
0.0623477
0.746791
1.41258
2.05842
2.6834
3.28673
3.86798
4.42681
4.96285
5.47623
5.96898
6.44255
6.89687
7.33188
7.7482
8.1466
8.5277
8.89239
9.24136
9.57531
9.895
10.2011
10.4942
10.7748
11.0434
11.3004
11.5464
11.7819
12.0075
12.2235
12.4305
12.6286
12.8183
12.9999
13.1737
13.3399
13.4987
13.65
13.7942
13.9317
14.0626
14.187
14.3048
14.4161
14.5213
14.6208
14.715
14.804
14.8878
14.9666
15.0407
15.1104
15.1762
15.2385
15.2971
15.3522
15.4043
15.4542
15.5018
15.5471
15.5906
15.6331
15.6747
15.715
15.7544
15.7937
15.8326
15.8716
15.9104
15.9476
15.9845
16.0221
16.0598
16.0956
16.1269
16.1545
16.1794
16.199
16.2131
16.2227
16.2277
16.2293
16.228
16.2249
16.2206
16.2155
16.21
16.204
16.1973
16.1902
16.1838
16.1779
16.1719
16.1672
16.1643
16.1642
16.1678
16.1763
16.191
16.2171
16.2211
-6.2863
-6.38083
-6.45904
-6.5118
-6.55239
-6.584
-6.60805
-6.62763
-6.64647
-6.66827
-6.69683
-6.73623
-6.79004
-6.86087
-6.9498
-7.05694
-7.18147
-7.32248
-7.47873
-7.64964
-7.83447
-8.03286
-8.24383
-8.46688
-8.70066
-8.94448
-9.19672
-9.45661
-9.72226
-9.99293
-10.2667
-10.5428
-10.8192
-11.0954
-11.3694
-11.6406
-11.907
-12.1681
-12.4218
-12.6675
-12.903
-13.1276
-13.3391
-13.5364
-13.717
-13.8797
-14.0219
-14.142
-14.2373
-14.3059
-14.3449
-14.3525
-14.3258
-14.2629
-14.1615
-14.0197
-13.8355
-13.6075
-13.3343
-13.015
-12.6494
-12.2376
-11.7804
-11.2791
-10.7357
-10.1527
-9.53321
-8.88079
-8.19958
-7.4939
-6.76841
-6.0276
-5.27633
-4.51918
-3.76079
-3.0054
-2.25691
-1.51874
-0.793807
-0.0845767
0.606895
1.27898
1.93044
2.56036
3.16811
3.75323
4.31552
4.85471
5.37116
5.86658
6.34262
6.79897
7.23567
7.65349
8.05327
8.43581
8.8019
9.15231
9.48778
9.8091
10.1168
10.4116
10.6938
10.9641
11.2227
11.4706
11.7078
11.9353
12.1531
12.3619
12.5618
12.7534
12.9367
13.1123
13.28
13.4405
13.5934
13.7395
13.8787
14.0113
14.1373
14.2567
14.3696
14.4766
14.5777
14.6736
14.7641
14.8496
14.93
15.006
15.0775
15.145
15.2088
15.2689
15.3254
15.3789
15.4299
15.4785
15.5248
15.5694
15.6127
15.6548
15.6958
15.7357
15.775
15.8138
15.8519
15.8896
15.9267
15.9638
16.0013
16.0386
16.0744
16.1069
16.1359
16.1617
16.1829
16.1988
16.2101
16.2168
16.2198
16.2198
16.2175
16.2139
16.2094
16.2043
16.1987
16.1925
16.186
16.1797
16.1737
16.1677
16.1625
16.1587
16.1571
16.158
16.1624
16.1692
16.1807
16.167
-5.94588
-6.07108
-6.18064
-6.25548
-6.31235
-6.35934
-6.40315
-6.44996
-6.50404
-6.56793
-6.64291
-6.72997
-6.82983
-6.94316
-7.06992
-7.20987
-7.36222
-7.52643
-7.70159
-7.88733
-8.08286
-8.28808
-8.50217
-8.72497
-8.95556
-9.19379
-9.43852
-9.68953
-9.94551
-10.2061
-10.4699
-10.7365
-11.0042
-11.2726
-11.54
-11.8059
-12.0683
-12.3268
-12.5793
-12.8252
-13.0622
-13.2897
-13.5051
-13.7075
-13.8943
-14.0642
-14.2144
-14.3434
-14.4483
-14.5271
-14.5768
-14.5952
-14.5794
-14.5271
-14.4358
-14.3034
-14.1276
-13.9068
-13.6392
-13.324
-12.9606
-12.549
-12.09
-11.5846
-11.0351
-10.4439
-9.81448
-9.15048
-8.45641
-7.73684
-6.99687
-6.24139
-5.47548
-4.70407
-3.93198
-3.1636
-2.40302
-1.65374
-0.918779
-0.200663
0.498556
1.17727
1.83434
2.46889
3.08043
3.66862
4.23342
4.77467
5.29277
5.78979
6.26695
6.72416
7.16142
7.57968
7.97987
8.36291
8.72957
9.08066
9.41702
9.73927
10.0481
10.3439
10.6272
10.8985
11.1584
11.4074
11.6461
11.8749
12.0942
12.3044
12.5058
12.6987
12.8834
13.0603
13.2294
13.3911
13.5454
13.6928
13.8334
13.9674
14.0947
14.2153
14.3296
14.4379
14.5405
14.6377
14.7297
14.8166
14.8987
14.9762
15.0493
15.1184
15.1836
15.2452
15.3032
15.358
15.4102
15.46
15.5075
15.5533
15.5975
15.6404
15.6819
15.7222
15.7615
15.8
15.8374
15.8742
15.9106
15.9469
15.9833
16.0196
16.0549
16.0876
16.1172
16.1437
16.1659
16.1832
16.1958
16.2039
16.2084
16.2096
16.2086
16.2059
16.2021
16.1976
16.1925
16.1869
16.181
16.1752
16.1692
16.163
16.1571
16.1523
16.1489
16.147
16.1468
16.146
16.1451
16.1176
-5.67111
-5.8058
-5.93656
-6.03452
-6.11411
-6.18279
-6.25031
-6.32498
-6.41148
-6.51147
-6.62447
-6.74953
-6.88549
-7.03179
-7.1876
-7.35255
-7.52585
-7.7073
-7.89614
-8.0924
-8.29553
-8.50568
-8.72223
-8.94545
-9.17467
-9.41007
-9.65084
-9.89708
-10.1478
-10.4029
-10.6613
-10.9228
-11.1859
-11.4505
-11.7149
-11.9787
-12.2402
-12.499
-12.7528
-13.0012
-13.2419
-13.4742
-13.6955
-13.9048
-14.0995
-14.2782
-14.4381
-14.5775
-14.6933
-14.7835
-14.8449
-14.8752
-14.8712
-14.8303
-14.7497
-14.627
-14.4597
-14.2458
-13.9835
-13.6714
-13.3089
-12.8958
-12.4326
-11.9207
-11.362
-10.7593
-10.1162
-9.4368
-8.72581
-7.98826
-7.2297
-6.45556
-5.6713
-4.88215
-4.09326
-3.30924
-2.53431
-1.77211
-1.02573
-0.297754
0.409822
1.09547
1.75814
2.39709
3.012
3.60268
4.16923
4.7117
5.23075
5.72829
6.20584
6.66312
7.10032
7.51842
7.91853
8.30157
8.66838
9.0197
9.35645
9.67905
9.98837
10.2846
10.5685
10.8404
11.1011
11.351
11.5908
11.8205
12.041
12.2522
12.4549
12.6489
12.835
13.0129
13.1832
13.3459
13.5016
13.6501
13.792
13.927
14.0555
14.1772
14.2929
14.4023
14.5063
14.6048
14.6981
14.7863
14.8698
14.9486
15.0232
15.0936
15.1603
15.2232
15.2827
15.339
15.3926
15.4438
15.4928
15.5399
15.5852
15.629
15.6712
15.7119
15.7514
15.7897
15.8267
15.8629
15.8984
15.9335
15.9685
16.0034
16.0376
16.0698
16.0994
16.1261
16.1487
16.1669
16.1805
16.1899
16.1957
16.1984
16.1985
16.1969
16.194
16.1902
16.1856
16.1806
16.1753
16.1697
16.1638
16.1576
16.1512
16.145
16.1397
16.1349
16.13
16.122
16.1106
16.072
-5.49632
-5.63633
-5.77671
-5.88866
-5.98753
-6.07847
-6.16937
-6.2682
-6.37943
-6.50459
-6.6428
-6.79246
-6.95164
-7.1192
-7.29387
-7.4752
-7.66235
-7.85532
-8.05353
-8.25726
-8.46597
-8.68018
-8.89941
-9.12408
-9.35372
-9.58877
-9.82854
-10.0733
-10.3223
-10.5757
-10.8323
-11.0922
-11.3544
-11.6184
-11.883
-12.1478
-12.4111
-12.6726
-12.9302
-13.1833
-13.4298
-13.6689
-13.8979
-14.116
-14.3203
-14.5095
-14.6807
-14.832
-14.9603
-15.0635
-15.1381
-15.1816
-15.1906
-15.1622
-15.0934
-14.9814
-14.8234
-14.617
-14.3601
-14.051
-13.6889
-13.2733
-12.8047
-12.2843
-11.7143
-11.0975
-10.4378
-9.73974
-9.00848
-8.24952
-7.46895
-6.67277
-5.867
-5.05728
-4.24906
-3.44723
-2.6562
-1.87975
-1.12099
-0.382489
0.333817
1.02651
1.69468
2.33781
2.95574
3.54848
4.11636
4.65962
5.17904
5.67678
6.15427
6.61134
7.04819
7.46593
7.86562
8.24826
8.61469
8.96581
9.30235
9.62497
9.93413
10.2305
10.5145
10.7868
11.0479
11.2985
11.5389
11.7696
11.9908
12.2031
12.4067
12.6018
12.7888
12.9678
13.1391
13.303
13.4597
13.6095
13.7525
13.8886
14.0181
14.141
14.2577
14.3685
14.4736
14.5733
14.6678
14.7573
14.842
14.9221
14.998
15.0697
15.1377
15.202
15.2629
15.3207
15.3759
15.4286
15.4791
15.5275
15.5741
15.6188
15.6619
15.7032
15.743
15.7814
15.8185
15.8543
15.8891
15.9232
15.9568
15.9901
16.0228
16.0539
16.0829
16.1091
16.1317
16.1503
16.1647
16.1752
16.1822
16.1862
16.1877
16.1872
16.1853
16.1822
16.1783
16.1738
16.1689
16.1635
16.1575
16.1512
16.1444
16.137
16.1297
16.122
16.1126
16.0982
16.0778
16.0305
-5.43899
-5.57387
-5.71093
-5.82819
-5.93778
-6.04371
-6.15153
-6.26713
-6.39416
-6.5341
-6.68606
-6.84867
-7.01988
-7.19854
-7.3832
-7.57343
-7.76833
-7.96806
-8.17195
-8.38049
-8.59324
-8.81075
-9.03259
-9.25938
-9.49063
-9.72689
-9.96759
-10.2132
-10.4629
-10.717
-10.9747
-11.2361
-11.4999
-11.7662
-12.0337
-12.302
-12.5697
-12.8363
-13.0998
-13.3599
-13.6141
-13.8619
-14.1005
-14.3291
-14.5448
-14.7461
-14.9302
-15.0951
-15.2375
-15.3552
-15.4446
-15.5029
-15.5264
-15.5121
-15.4565
-15.3565
-15.209
-15.0111
-14.7604
-14.4548
-14.0932
-13.6748
-13.2
-12.67
-12.0869
-11.454
-10.7754
-10.056
-9.30163
-8.51844
-7.71308
-6.8922
-6.06246
-5.22995
-4.40055
-3.57943
-2.77116
-1.97963
-1.20796
-0.458616
0.266554
0.966282
1.63989
2.28708
2.90789
3.50254
4.07159
4.61552
5.13525
5.633
6.11019
6.56671
7.00277
7.41962
7.81838
8.20018
8.56582
8.91633
9.25226
9.5745
9.88319
10.1794
10.4632
10.7357
10.997
11.2481
11.4889
11.7204
11.9422
12.1554
12.3597
12.5559
12.7437
12.9237
13.096
13.261
13.4188
13.5698
13.7137
13.851
13.9814
14.1055
14.2233
14.3354
14.4416
14.5426
14.6382
14.729
14.8148
14.8962
14.9732
15.0463
15.1155
15.1812
15.2435
15.3028
15.3595
15.4138
15.4658
15.5156
15.5633
15.6091
15.653
15.6951
15.7354
15.7742
15.8114
15.8471
15.8815
15.9148
15.9474
15.9792
16.0102
16.0399
16.0676
16.0929
16.1151
16.1337
16.1486
16.16
16.1681
16.1734
16.1762
16.1769
16.1761
16.1739
16.1707
16.1668
16.1621
16.1567
16.1505
16.144
16.1368
16.1284
16.1191
16.1084
16.0947
16.0745
16.0466
15.9925
-5.48386
-5.59926
-5.7237
-5.83635
-5.94707
-6.05804
-6.17298
-6.29654
-6.4311
-6.57752
-6.7349
-6.90222
-7.07764
-7.26023
-7.44855
-7.64229
-7.84046
-8.04328
-8.25011
-8.46145
-8.67678
-8.8968
-9.12106
-9.35016
-9.58363
-9.82212
-10.0651
-10.313
-10.5652
-10.8221
-11.0828
-11.3476
-11.6153
-11.8861
-12.1585
-12.4325
-12.7065
-12.9802
-13.2516
-13.5203
-13.7841
-14.0422
-14.2921
-14.5328
-14.7613
-14.9764
-15.1748
-15.3548
-15.5128
-15.6466
-15.7524
-15.8271
-15.8669
-15.8684
-15.8276
-15.7413
-15.6057
-15.4177
-15.1743
-14.8732
-14.5125
-14.0914
-13.6102
-13.0697
-12.4725
-11.8218
-11.1224
-10.3796
-9.59995
-8.79034
-7.95815
-7.11069
-6.25523
-5.39853
-4.54682
-3.70555
-2.87943
-2.0724
-1.28755
-0.527225
0.206891
0.913711
1.59279
2.2441
2.86784
3.46441
4.03451
4.57876
5.09834
5.59547
6.07181
6.52715
6.96192
7.37738
7.77482
8.15532
8.51988
8.86931
9.20446
9.52582
9.83405
10.1297
10.4134
10.6857
10.9473
11.1985
11.4398
11.6717
11.8943
12.108
12.3132
12.5101
12.6988
12.8797
13.0531
13.2191
13.3781
13.5301
13.6751
13.8133
13.9449
14.0701
14.1891
14.3023
14.4098
14.512
14.6088
14.7007
14.7878
14.8704
14.9487
15.023
15.0935
15.1605
15.2242
15.2851
15.3434
15.3992
15.4526
15.5037
15.5526
15.5995
15.6443
15.6871
15.7281
15.7673
15.8048
15.8406
15.8748
15.9077
15.9394
15.9699
15.9994
16.0274
16.0536
16.0775
16.0989
16.1173
16.1324
16.1445
16.1536
16.16
16.1641
16.166
16.1663
16.1651
16.1627
16.1593
16.155
16.1496
16.1432
16.1363
16.1284
16.1192
16.1081
16.0943
16.0767
16.0516
16.0173
15.9577
-5.58899
-5.67633
-5.77607
-5.87637
-5.981
-6.09065
-6.20652
-6.33129
-6.46662
-6.61332
-6.77038
-6.9371
-7.1118
-7.29384
-7.48182
-7.67558
-7.87409
-8.07763
-8.28545
-8.49812
-8.71513
-8.93706
-9.16343
-9.39499
-9.63118
-9.87258
-10.1187
-10.37
-10.626
-10.887
-11.1522
-11.4219
-11.6951
-11.9718
-12.2508
-12.532
-12.8139
-13.0962
-13.3769
-13.6558
-13.9305
-14.2003
-14.4627
-14.7167
-14.9594
-15.1894
-15.4036
-15.5999
-15.775
-15.9263
-16.0499
-16.1426
-16.2003
-16.2191
-16.1948
-16.1237
-16.0016
-15.8249
-15.59
-15.2941
-14.9351
-14.5117
-14.0238
-13.4726
-12.8604
-12.191
-11.4694
-10.7019
-9.89548
-9.05803
-8.19772
-7.32259
-6.44061
-5.55903
-4.6845
-3.82272
-2.97859
-2.15599
-1.35789
-0.586481
0.156646
0.87055
1.55494
2.20992
2.83599
3.43379
4.0042
4.54811
5.06675
5.56268
6.03746
6.49107
6.92405
7.33769
7.73343
8.1123
8.47549
8.82359
9.15769
9.47797
9.78549
10.0804
10.3639
10.6359
10.8976
11.1489
11.3907
11.6229
11.8461
12.0604
12.2664
12.464
12.6536
12.8354
13.0098
13.1768
13.3369
13.4899
13.6361
13.7752
13.908
14.0342
14.1546
14.2689
14.3778
14.481
14.5792
14.6723
14.7607
14.8445
14.9241
14.9997
15.0716
15.1399
15.2052
15.2675
15.3273
15.3846
15.4394
15.4918
15.5419
15.5898
15.6354
15.679
15.7207
15.7604
15.7983
15.8343
15.8685
15.9011
15.9321
15.9616
15.9896
16.0158
16.0403
16.0628
16.0831
16.101
16.1162
16.1288
16.1387
16.1463
16.1515
16.1547
16.1561
16.1559
16.1543
16.1516
16.1476
16.1423
16.1358
16.1283
16.1197
16.1094
16.0965
16.08
16.0587
16.0293
15.9899
15.9257
-5.69383
-5.76558
-5.84134
-5.92423
-6.01696
-6.11901
-6.22999
-6.35112
-6.4828
-6.62555
-6.77853
-6.94123
-7.1122
-7.29104
-7.47634
-7.66809
-7.86524
-8.06804
-8.27575
-8.48889
-8.7068
-8.93021
-9.15856
-9.39253
-9.63164
-9.87652
-10.1265
-10.3822
-10.6428
-10.909
-11.1797
-11.4555
-11.7352
-12.0191
-12.3058
-12.5953
-12.8862
-13.1781
-13.4692
-13.7592
-14.0458
-14.3283
-14.6042
-14.8724
-15.1302
-15.3761
-15.6069
-15.8206
-16.0136
-16.1834
-16.3259
-16.4376
-16.5142
-16.5515
-16.5449
-16.4901
-16.3826
-16.218
-15.9925
-15.7027
-15.3458
-14.9204
-14.4261
-13.8639
-13.2366
-12.548
-11.8038
-11.0109
-10.1772
-9.31149
-8.42275
-7.51985
-6.6114
-5.7051
-4.80791
-3.92581
-3.0638
-2.22587
-1.415
-0.633284
0.117907
0.837858
1.52649
2.18415
2.81159
3.40963
3.97952
4.52217
5.03922
5.53314
6.0058
6.45721
6.88792
7.29945
7.69309
8.07017
8.4316
8.77833
9.11097
9.43028
9.73671
10.0311
10.314
10.586
10.8475
11.0991
11.341
11.5736
11.7973
12.0123
12.2188
12.4172
12.6077
12.7904
12.9658
13.134
13.2951
13.4491
13.5962
13.7365
13.8704
13.9979
14.1195
14.2351
14.3451
14.4497
14.5491
14.6435
14.7332
14.8183
14.8993
14.9762
15.0495
15.1193
15.1861
15.25
15.3113
15.37
15.4262
15.4798
15.531
15.5799
15.6265
15.6708
15.7132
15.7534
15.7917
15.828
15.8623
15.8947
15.9251
15.9536
15.9802
16.0047
16.0274
16.0484
16.0675
16.0848
16.0999
16.1129
16.1236
16.1322
16.1386
16.1429
16.1455
16.1463
16.1456
16.1435
16.1399
16.1349
16.1282
16.1203
16.1108
16.0993
16.0846
16.0656
16.0411
16.0079
15.9643
15.8966
-5.77081
-5.83052
-5.88758
-5.95395
-6.03308
-6.12431
-6.2266
-6.3404
-6.46546
-6.60195
-6.74885
-6.90588
-7.07165
-7.24601
-7.42763
-7.6165
-7.81157
-8.01312
-8.22026
-8.43355
-8.65231
-8.87717
-9.10752
-9.34407
-9.58625
-9.83477
-10.089
-10.3494
-10.6154
-10.8875
-11.1646
-11.4473
-11.7345
-12.0263
-12.3214
-12.6201
-12.9205
-13.2228
-13.5249
-13.8265
-14.1254
-14.421
-14.7107
-14.9936
-15.2667
-15.5288
-15.7764
-16.0076
-16.2188
-16.4073
-16.5688
-16.6999
-16.7956
-16.8518
-16.8632
-16.8251
-16.7325
-16.5807
-16.365
-16.0816
-15.7274
-15.3003
-14.8
-14.2273
-13.5852
-12.8778
-12.1116
-11.294
-10.4339
-9.54049
-8.62391
-7.69375
-6.75937
-5.829
-4.91012
-4.00889
-3.13045
-2.27874
-1.45671
-0.666328
0.0912709
0.815695
1.5071
2.16607
2.79356
3.39083
3.95906
4.49973
5.01423
5.50566
5.97557
6.42433
6.85244
7.26158
7.65297
8.02805
8.38757
8.73274
9.06386
9.38203
9.68742
9.98123
10.2635
10.5354
10.7967
11.0485
11.2905
11.5236
11.7476
11.9633
12.1704
12.3696
12.5608
12.7446
12.921
13.0903
13.2524
13.4075
13.5556
13.6971
13.8321
13.9609
14.0836
14.2006
14.3119
14.4179
14.5185
14.6143
14.7052
14.7919
14.8742
14.9526
15.0273
15.0987
15.1671
15.2326
15.2953
15.3554
15.4128
15.4676
15.5199
15.5698
15.6172
15.6624
15.7054
15.7462
15.7848
15.8214
15.8557
15.8879
15.9178
15.9454
15.9705
15.9934
16.0144
16.0338
16.0519
16.0685
16.0835
16.0969
16.1083
16.1178
16.1254
16.1309
16.1346
16.1364
16.1366
16.1351
16.132
16.1272
16.1205
16.1122
16.1019
16.089
16.0725
16.0511
16.0236
15.987
15.94
15.8696
-5.80372
-5.85178
-5.89293
-5.94497
-6.01148
-6.09147
-6.18375
-6.2887
-6.40568
-6.53464
-6.67453
-6.8252
-6.98531
-7.15476
-7.33234
-7.51805
-7.71089
-7.91111
-8.11781
-8.33144
-8.55123
-8.77786
-9.01068
-9.25024
-9.49595
-9.74855
-10.0073
-10.2729
-10.5446
-10.8229
-11.1069
-11.3969
-11.6919
-11.9921
-12.2961
-12.6041
-12.9145
-13.2273
-13.5405
-13.8538
-14.1651
-14.4738
-14.7772
-15.0746
-15.3629
-15.6408
-15.905
-16.1535
-16.3825
-16.5895
-16.7699
-16.9201
-17.035
-17.1101
-17.1396
-17.1186
-17.0414
-16.9027
-16.6973
-16.4209
-16.0699
-15.6419
-15.1362
-14.5537
-13.8973
-13.1718
-12.3839
-11.5419
-10.6555
-9.73495
-8.79125
-7.83497
-6.87609
-5.92352
-4.98505
-4.06701
-3.17472
-2.3118
-1.48132
-0.684669
0.0769502
0.803777
1.49592
2.15452
2.78064
3.37577
3.94127
4.47927
4.9905
5.47884
5.94565
6.39131
6.81663
7.2231
7.61222
7.98507
8.34281
8.68614
9.01594
9.33272
9.63732
9.93027
10.2122
10.4837
10.7451
10.9968
11.2392
11.4725
11.6971
11.9133
12.1212
12.3211
12.5132
12.698
12.8754
13.0457
13.2089
13.365
13.5142
13.6568
13.7931
13.9231
14.0472
14.1655
14.2781
14.3854
14.4874
14.5846
14.677
14.765
14.8488
14.9287
15.005
15.078
15.148
15.215
15.2792
15.3406
15.3993
15.4552
15.5086
15.5594
15.6078
15.6537
15.6973
15.7386
15.7776
15.8143
15.8487
15.8806
15.9098
15.9363
15.9601
15.9814
16.0008
16.0189
16.0359
16.052
16.067
16.0807
16.0929
16.1034
16.112
16.1187
16.1234
16.1263
16.1274
16.1266
16.124
16.1194
16.1128
16.104
16.093
16.0788
16.0606
16.0371
16.0068
15.9671
15.917
15.8444
-5.78511
-5.81953
-5.8462
-5.88629
-5.94168
-6.01087
-6.09304
-6.18858
-6.29693
-6.41808
-6.55078
-6.69496
-6.84946
-7.01428
-7.18815
-7.37109
-7.56208
-7.76137
-7.96803
-8.1825
-8.40396
-8.63292
-8.86876
-9.11207
-9.36202
-9.61933
-9.88331
-10.1545
-10.4321
-10.7169
-11.0077
-11.3051
-11.6079
-11.9165
-12.2295
-12.5471
-12.8676
-13.1911
-13.5155
-13.8407
-14.1645
-14.4862
-14.8034
-15.1151
-15.4185
-15.7121
-15.9927
-16.2583
-16.505
-16.7301
-16.9291
-17.098
-17.2318
-17.3253
-17.3728
-17.3684
-17.3063
-17.1804
-16.9851
-16.7152
-16.367
-15.9375
-15.426
-14.833
-14.1618
-13.4175
-12.6076
-11.7413
-10.8291
-9.88266
-8.91371
-7.93376
-6.95332
-5.9821
-5.02758
-4.09678
-3.19425
-2.32396
-1.48835
-0.688879
0.0740033
0.800461
1.49116
2.14744
2.77055
3.36183
3.92475
4.45808
4.96669
5.45112
5.91449
6.35678
6.77912
7.18287
7.56966
7.94036
8.2963
8.63788
8.96634
9.28187
9.58571
9.87794
10.1596
10.4308
10.6922
10.9439
11.1867
11.4203
11.6455
11.8621
12.0708
12.2714
12.4646
12.6503
12.8289
13.0001
13.1643
13.3214
13.4719
13.6157
13.7533
13.8845
14.01
14.1296
14.2436
14.3522
14.4558
14.5543
14.6483
14.7378
14.8232
14.9047
14.9826
15.0572
15.1288
15.1973
15.2629
15.3256
15.3854
15.4425
15.4969
15.5487
15.5979
15.6446
15.6888
15.7305
15.7698
15.8066
15.8408
15.8721
15.9006
15.926
15.9483
15.9682
15.9863
16.0033
16.0196
16.0353
16.0504
16.0645
16.0774
16.0888
16.0986
16.1064
16.1122
16.1162
16.1181
16.118
16.1159
16.1116
16.105
16.096
16.0842
16.0688
16.0491
16.0236
15.9909
15.9484
15.8955
15.8206
-5.71529
-5.73205
-5.74631
-5.77627
-5.82132
-5.8799
-5.95181
-6.03803
-6.13764
-6.25079
-6.37637
-6.5145
-6.66384
-6.82463
-6.99557
-7.17673
-7.36682
-7.56622
-7.77374
-7.98994
-8.21368
-8.44571
-8.68506
-8.93259
-9.18714
-9.4498
-9.71956
-9.99712
-10.2814
-10.5733
-10.8715
-11.1768
-11.4878
-11.8051
-12.127
-12.454
-12.7843
-13.1181
-13.4533
-13.79
-14.1255
-14.4599
-14.7901
-15.1158
-15.4334
-15.7421
-16.0382
-16.3201
-16.5834
-16.8259
-17.0422
-17.2291
-17.3803
-17.4914
-17.5553
-17.5665
-17.5178
-17.4034
-17.2164
-16.9516
-16.6044
-16.1718
-15.6528
-15.0481
-14.3614
-13.5981
-12.7667
-11.8771
-10.9413
-9.97153
-8.98111
-7.98155
-6.98463
-5.99944
-5.03475
-4.09631
-3.18821
-2.31578
-1.47878
-0.680888
0.0804453
0.802858
1.49033
2.14142
2.76012
3.34731
3.90473
4.4353
4.93903
5.42004
5.87949
6.31825
6.73748
7.13871
7.52312
7.89194
8.24596
8.58619
8.9132
9.22788
9.53082
9.8227
10.104
10.3751
10.6364
10.8885
11.1314
11.3656
11.5913
11.8086
12.018
12.2196
12.4137
12.6005
12.7801
12.9525
13.1177
13.276
13.4277
13.5728
13.7117
13.8444
13.9713
14.0923
14.2078
14.318
14.423
14.5232
14.6187
14.7099
14.7969
14.8801
14.9596
15.0359
15.109
15.179
15.2459
15.3099
15.3709
15.4291
15.4846
15.5373
15.5873
15.6347
15.6794
15.7216
15.761
15.7976
15.8314
15.8621
15.8896
15.9137
15.9348
15.9535
15.9706
15.9868
16.0026
16.0182
16.0335
16.0481
16.0619
16.0743
16.0851
16.0941
16.101
16.1059
16.1087
16.1094
16.1078
16.1038
16.0973
16.088
16.0756
16.0592
16.0381
16.0108
15.976
15.9312
15.8757
15.7986
-5.59961
-5.59806
-5.60185
-5.62286
-5.65746
-5.7051
-5.76679
-5.84374
-5.9351
-6.04084
-6.15993
-6.29277
-6.43821
-6.59613
-6.7653
-6.94575
-7.13611
-7.33666
-7.54615
-7.76505
-7.99236
-8.22849
-8.47242
-8.725
-8.98513
-9.25349
-9.52925
-9.81307
-10.1039
-10.4026
-10.7079
-11.0204
-11.3389
-11.664
-11.994
-12.3294
-12.6685
-13.0115
-13.3563
-13.703
-14.0492
-14.3946
-14.7365
-15.0743
-15.4048
-15.7269
-16.0369
-16.3332
-16.6114
-16.8691
-17.101
-17.3034
-17.4702