/*--------------------------------*- C++ -*----------------------------------*\
  =========                 |
  \\      /  F ield         | OpenFOAM: The Open Source CFD Toolbox
   \\    /   O peration     | Website:  https://openfoam.org
    \\  /    A nd           | Version:  8
     \\/     M anipulation  |
\*---------------------------------------------------------------------------*/
FoamFile
{
    version     2.0;
    format      ascii;
    class       surfaceScalarField;
    location    "45";
    object      phi;
}
// * * * * * * * * * * * * * * * * * * * * * * * * * * * * * * * * * * * * * //

dimensions      [0 3 -1 0 0 0 0];

internalField   nonuniform List<scalar> 
24170
(
3.12874e-06
5.96649e-08
3.04605e-06
8.26766e-08
2.97226e-06
7.37763e-08
2.90269e-06
6.95479e-08
2.83706e-06
6.56263e-08
2.77811e-06
5.89309e-08
2.72697e-06
5.11381e-08
2.68283e-06
4.4119e-08
2.64448e-06
3.83488e-08
2.61082e-06
3.36381e-08
2.58083e-06
2.99907e-08
2.55345e-06
2.73668e-08
2.52771e-06
2.57278e-08
2.50251e-06
2.51872e-08
2.47661e-06
2.58882e-08
2.44715e-06
2.94178e-08
2.4111e-06
3.59586e-08
6.12475e-08
2.34976e-06
3.45306e-06
2.38495e-08
3.45681e-06
7.89217e-08
3.45004e-06
8.05367e-08
3.43806e-06
8.15202e-08
3.42259e-06
8.10925e-08
3.40448e-06
7.70333e-08
3.38413e-06
7.14834e-08
3.36212e-06
6.61287e-08
3.33916e-06
6.13153e-08
3.31581e-06
5.69781e-08
3.29255e-06
5.32571e-08
3.26951e-06
5.0403e-08
3.24675e-06
4.84814e-08
3.22412e-06
4.78108e-08
3.2016e-06
4.83999e-08
3.17868e-06
5.2304e-08
3.15622e-06
5.8324e-08
7.92766e-08
3.13814e-06
3.6682e-06
1.81642e-08
3.67888e-06
6.82381e-08
3.68467e-06
7.47315e-08
3.68811e-06
7.80699e-08
3.68894e-06
8.02557e-08
3.68704e-06
7.89198e-08
3.68274e-06
7.57768e-08
3.67645e-06
7.24129e-08
3.66852e-06
6.92329e-08
3.65925e-06
6.62326e-08
3.64888e-06
6.36332e-08
3.63751e-06
6.17543e-08
3.62522e-06
6.07664e-08
3.61198e-06
6.10404e-08
3.59766e-06
6.27102e-08
3.58253e-06
6.74095e-08
3.56621e-06
7.45972e-08
9.08603e-08
3.55463e-06
3.92579e-06
1.77573e-08
3.93552e-06
5.85144e-08
3.94168e-06
6.85623e-08
3.94655e-06
7.32044e-08
3.95013e-06
7.66689e-08
3.95204e-06
7.70071e-08
3.95242e-06
7.53959e-08
3.9515e-06
7.33312e-08
3.94944e-06
7.1285e-08
3.94635e-06
6.93238e-08
3.9423e-06
6.7685e-08
3.93733e-06
6.67239e-08
3.93143e-06
6.66624e-08
3.92459e-06
6.78631e-08
3.91674e-06
7.05503e-08
3.90833e-06
7.57969e-08
3.89913e-06
8.37504e-08
9.71409e-08
3.89282e-06
4.20806e-06
1.68194e-08
4.21553e-06
5.10403e-08
4.22072e-06
6.33697e-08
4.22509e-06
6.88206e-08
4.22894e-06
7.2816e-08
4.23177e-06
7.41708e-08
4.23353e-06
7.36262e-08
4.23436e-06
7.24939e-08
4.23434e-06
7.13035e-08
4.23348e-06
7.01732e-08
4.23182e-06
6.93467e-08
4.22938e-06
6.91636e-08
4.22616e-06
6.98781e-08
4.2222e-06
7.18117e-08
4.21754e-06
7.52107e-08
4.21257e-06
8.07508e-08
4.20761e-06
8.86869e-08
9.95561e-08
4.20521e-06
4.51054e-06
1.5362e-08
4.51641e-06
4.51773e-08
4.52109e-06
5.86827e-08
4.52513e-06
6.47821e-08
4.52887e-06
6.90701e-08
4.53191e-06
7.11374e-08
4.5341e-06
7.14296e-08
4.53554e-06
7.10518e-08
4.53628e-06
7.05611e-08
4.5363e-06
7.0142e-08
4.53563e-06
7.0021e-08
4.53427e-06
7.05166e-08
4.53227e-06
7.18778e-08
4.52969e-06
7.43778e-08
4.52666e-06
7.82295e-08
4.52357e-06
8.3826e-08
4.52099e-06
9.1252e-08
1.00267e-07
4.52024e-06
4.83417e-06
1.39118e-08
4.83913e-06
4.02166e-08
4.84364e-06
5.41609e-08
4.84754e-06
6.08783e-08
4.85114e-06
6.54608e-08
4.85419e-06
6.80937e-08
4.85652e-06
6.90903e-08
4.8582e-06
6.93675e-08
4.85927e-06
6.94909e-08
4.85971e-06
6.96965e-08
4.85953e-06
7.0201e-08
4.85876e-06
7.12864e-08
4.85745e-06
7.31823e-08
4.85572e-06
7.61056e-08
4.85374e-06
8.02114e-08
4.85186e-06
8.56896e-08
4.8506e-06
9.24889e-08
1.00282e-07
4.85064e-06
5.18089e-06
1.25998e-08
5.18522e-06
3.58861e-08
5.1896e-06
4.97817e-08
5.19342e-06
5.70524e-08
5.19693e-06
6.19531e-08
5.19997e-06
6.50585e-08
5.20239e-06
6.66697e-08
5.20421e-06
6.75433e-08
5.20546e-06
6.82308e-08
5.20616e-06
6.89934e-08
5.20631e-06
7.00492e-08
5.20595e-06
7.16392e-08
5.20516e-06
7.39687e-08
5.20408e-06
7.7189e-08
5.20288e-06
8.14019e-08
5.2019e-06
8.66615e-08
5.20153e-06
9.28747e-08
9.96065e-08
5.20219e-06
5.55254e-06
1.13997e-08
5.55634e-06
3.2076e-08
5.56052e-06
4.56048e-08
5.56428e-06
5.32901e-08
5.56773e-06
5.84988e-08
5.57078e-06
6.20063e-08
5.5733e-06
6.41542e-08
5.57525e-06
6.55885e-08
5.57668e-06
6.68054e-08
5.5776e-06
6.8073e-08
5.57804e-06
6.96054e-08
5.57806e-06
7.16203e-08
5.57774e-06
7.42866e-08
5.57722e-06
7.77024e-08
5.57671e-06
8.19148e-08
5.57646e-06
8.6903e-08
5.5768e-06
9.25203e-08
9.843e-08
5.57805e-06
5.95089e-06
1.02906e-08
5.95424e-06
2.87195e-08
5.95818e-06
4.16674e-08
5.96186e-06
4.96058e-08
5.96529e-06
5.50727e-08
5.96838e-06
5.89127e-08
5.97101e-06
6.15257e-08
5.97312e-06
6.34828e-08
5.97473e-06
6.51929e-08
5.97589e-06
6.69091e-08
5.97665e-06
6.88445e-08
5.97706e-06
7.12047e-08
5.97722e-06
7.41185e-08
5.97727e-06
7.76449e-08
5.9774e-06
8.17783e-08
5.97783e-06
8.64577e-08
5.97883e-06
9.15441e-08
9.669e-08
5.98058e-06
6.37783e-06
9.26908e-09
6.38081e-06
2.57479e-08
6.38451e-06
3.79655e-08
6.38811e-06
4.59989e-08
6.39153e-06
5.16567e-08
6.39468e-06
5.57601e-08
6.39744e-06
5.87705e-08
6.39973e-06
6.11911e-08
6.40158e-06
6.33498e-08
6.40302e-06
6.54588e-08
6.40413e-06
6.77316e-08
6.40497e-06
7.03495e-08
6.40564e-06
7.34383e-08
6.40628e-06
7.69904e-08
6.40706e-06
8.09941e-08
6.40816e-06
8.53458e-08
6.40977e-06
8.99086e-08
9.4456e-08
6.41205e-06
5.74164e-06
8.46614e-09
5.74389e-06
2.34915e-08
5.74685e-06
3.50069e-08
5.74985e-06
4.29894e-08
5.75275e-06
4.87607e-08
5.75546e-06
5.30505e-08
5.75789e-06
5.63371e-08
5.76e-06
5.90766e-08
5.76179e-06
6.15569e-08
5.76328e-06
6.39588e-08
5.76453e-06
6.64661e-08
5.7656e-06
6.9285e-08
5.76659e-06
7.24343e-08
5.76761e-06
7.59815e-08
5.76877e-06
7.98125e-08
5.77023e-06
8.38914e-08
5.7721e-06
8.80645e-08
9.21242e-08
5.77445e-06
6.99901e-06
7.61122e-09
7.00138e-06
2.11245e-08
7.00458e-06
3.17983e-08
7.00796e-06
3.9612e-08
7.01129e-06
4.54268e-08
7.01448e-06
4.98572e-08
7.01742e-06
5.33848e-08
7.02006e-06
5.64353e-08
7.02238e-06
5.92266e-08
7.02441e-06
6.18964e-08
7.02625e-06
6.46477e-08
7.02794e-06
6.7575e-08
7.02961e-06
7.07973e-08
7.03134e-06
7.42448e-08
7.03327e-06
7.79052e-08
7.03552e-06
8.16464e-08
7.03823e-06
8.53956e-08
8.89522e-08
7.04143e-06
8.53174e-06
6.71861e-09
8.53422e-06
1.86375e-08
8.53765e-06
2.83633e-08
8.54144e-06
3.58209e-08
8.54528e-06
4.15907e-08
8.54904e-06
4.60874e-08
8.55262e-06
4.98018e-08
8.55595e-06
5.31003e-08
8.55899e-06
5.61669e-08
8.56181e-06
5.90881e-08
8.56447e-06
6.19947e-08
8.56706e-06
6.5014e-08
8.56966e-06
6.82018e-08
8.57241e-06
7.15294e-08
8.57538e-06
7.49371e-08
8.57873e-06
7.83325e-08
8.58252e-06
8.16255e-08
8.4675e-08
8.58686e-06
1.04001e-05
5.79874e-09
1.04027e-05
1.60305e-08
1.04064e-05
2.46698e-08
1.04107e-05
3.15651e-08
1.04152e-05
3.71227e-08
1.04196e-05
4.1624e-08
1.0424e-05
4.54119e-08
1.04283e-05
4.88706e-08
1.04323e-05
5.21155e-08
1.04362e-05
5.52131e-08
1.044e-05
5.82072e-08
1.04438e-05
6.12375e-08
1.04477e-05
6.43006e-08
1.04519e-05
6.74433e-08
1.04562e-05
7.05422e-08
1.0461e-05
7.35666e-08
1.04663e-05
7.63991e-08
7.8967e-08
1.0472e-05
1.26778e-05
4.81828e-09
1.26805e-05
1.32536e-08
1.26846e-05
2.06564e-08
1.26894e-05
2.67446e-08
1.26947e-05
3.18771e-08
1.27001e-05
3.62102e-08
1.27055e-05
3.99612e-08
1.2711e-05
4.34083e-08
1.27164e-05
4.67099e-08
1.27218e-05
4.98478e-08
1.27272e-05
5.28606e-08
1.27327e-05
5.57738e-08
1.27383e-05
5.8678e-08
1.27442e-05
6.15267e-08
1.27505e-05
6.4309e-08
1.27571e-05
6.69195e-08
1.27642e-05
6.93301e-08
7.14311e-08
1.27717e-05
1.54543e-05
3.74106e-09
1.54573e-05
1.02126e-08
1.54619e-05
1.60971e-08
1.54675e-05
2.1137e-08
1.54738e-05
2.55593e-08
1.54806e-05
2.94945e-08
1.54875e-05
3.30155e-08
1.54946e-05
3.62896e-08
1.55019e-05
3.94499e-08
1.55093e-05
4.24892e-08
1.55168e-05
4.53815e-08
1.55245e-05
4.813e-08
1.55324e-05
5.07761e-08
1.55406e-05
5.33184e-08
1.55491e-05
5.57307e-08
1.55581e-05
5.79491e-08
1.55674e-05
5.99342e-08
6.16479e-08
1.55772e-05
1.88389e-05
2.49505e-09
1.88425e-05
6.64787e-09
1.88479e-05
1.06354e-08
1.88548e-05
1.42873e-08
1.88627e-05
1.76834e-08
1.88713e-05
2.0911e-08
1.88803e-05
2.39723e-08
1.88897e-05
2.68902e-08
1.88994e-05
2.97271e-08
1.89095e-05
3.24806e-08
1.89197e-05
3.51238e-08
1.89302e-05
3.76299e-08
1.8941e-05
4.0001e-08
1.89521e-05
4.22262e-08
1.89635e-05
4.42868e-08
1.89754e-05
4.61523e-08
1.89875e-05
4.77919e-08
4.92065e-08
1.89999e-05
2.2965e-05
8.60009e-10
2.29695e-05
2.12058e-09
2.29765e-05
3.63566e-09
2.29854e-05
5.4232e-09
2.29956e-05
7.41169e-09
2.3007e-05
9.58922e-09
2.3019e-05
1.19146e-08
2.30316e-05
1.42987e-08
2.30447e-05
1.66556e-08
2.30582e-05
1.89927e-08
2.3072e-05
2.12877e-08
2.30861e-05
2.35189e-08
2.31005e-05
2.56276e-08
2.31151e-05
2.75841e-08
2.313e-05
2.93522e-08
2.31452e-05
3.09326e-08
2.31607e-05
3.23029e-08
3.35034e-08
2.31764e-05
1.6812e-05
-4.87937e-10
1.68158e-05
-1.60954e-09
1.68215e-05
-2.12304e-09
1.68288e-05
-1.84034e-09
1.68371e-05
-9.37829e-10
1.68462e-05
4.51775e-10
1.68559e-05
2.23208e-09
1.6866e-05
4.23096e-09
1.68763e-05
6.2904e-09
1.6887e-05
8.36701e-09
1.68978e-05
1.04519e-08
1.69088e-05
1.2524e-08
1.69199e-05
1.44972e-08
1.69312e-05
1.63322e-08
1.69426e-05
1.7987e-08
1.69541e-05
1.94633e-08
1.69656e-05
2.07647e-08
2.19247e-08
1.69772e-05
1.46359e-05
-1.80449e-09
1.46396e-05
-5.32436e-09
1.46453e-05
-7.84373e-09
1.46524e-05
-8.94516e-09
1.46604e-05
-8.95113e-09
1.4669e-05
-8.21169e-09
1.46781e-05
-6.88098e-09
1.46875e-05
-5.1822e-09
1.46971e-05
-3.34241e-09
1.47069e-05
-1.42547e-09
1.47168e-05
5.51099e-10
1.47268e-05
2.53194e-09
1.47369e-05
4.44319e-09
1.4747e-05
6.21541e-09
1.47571e-05
7.83117e-09
1.47673e-05
9.28414e-09
1.47775e-05
1.05792e-08
1.17656e-08
1.47877e-05
1.27414e-05
-3.04396e-09
1.27451e-05
-9.06416e-09
1.27509e-05
-1.36821e-08
1.27579e-05
-1.59436e-08
1.27656e-05
-1.66289e-08
1.27737e-05
-1.63885e-08
1.27822e-05
-1.53962e-08
1.2791e-05
-1.39132e-08
1.27998e-05
-1.21967e-08
1.28087e-05
-1.0352e-08
1.28177e-05
-8.41151e-09
1.28266e-05
-6.44812e-09
1.28356e-05
-4.55463e-09
1.28446e-05
-2.78393e-09
1.28536e-05
-1.16668e-09
1.28625e-05
3.18896e-10
1.28714e-05
1.65074e-09
2.90192e-09
1.28803e-05
1.1092e-05
-4.10757e-09
1.10958e-05
-1.28558e-08
1.11018e-05
-1.97299e-08
1.11087e-05
-2.28642e-08
1.11161e-05
-2.39883e-08
1.11238e-05
-2.40979e-08
1.11317e-05
-2.32961e-08
1.11397e-05
-2.1896e-08
1.11477e-05
-2.02235e-08
1.11557e-05
-1.83885e-08
1.11637e-05
-1.64374e-08
1.11717e-05
-1.44547e-08
1.11797e-05
-1.25343e-08
1.11876e-05
-1.07453e-08
1.11955e-05
-9.08027e-09
1.12033e-05
-7.55978e-09
1.12112e-05
-6.16058e-09
-4.85588e-09
1.12189e-05
9.65602e-06
-4.91561e-09
9.65999e-06
-1.68253e-08
9.66616e-06
-2.5907e-08
9.67282e-06
-2.95163e-08
9.67984e-06
-3.10189e-08
9.68714e-06
-3.13955e-08
9.69446e-06
-3.06243e-08
9.70173e-06
-2.91713e-08
9.70896e-06
-2.74543e-08
9.71614e-06
-2.5583e-08
9.72327e-06
-2.35774e-08
9.73035e-06
-2.15379e-08
9.73736e-06
-1.9567e-08
9.74432e-06
-1.77134e-08
9.75122e-06
-1.6e-08
9.75806e-06
-1.44069e-08
9.76483e-06
-1.29426e-08
-1.15557e-08
9.77153e-06
8.40547e-06
-5.02916e-09
8.41033e-06
-2.16895e-08
8.41635e-06
-3.19232e-08
8.4224e-06
-3.55704e-08
8.42903e-06
-3.76529e-08
8.43597e-06
-3.83275e-08
8.44281e-06
-3.74721e-08
8.44951e-06
-3.58674e-08
8.45608e-06
-3.40331e-08
8.46254e-06
-3.20437e-08
8.46889e-06
-2.9926e-08
8.47511e-06
-2.77619e-08
8.48121e-06
-2.5672e-08
8.4872e-06
-2.37131e-08
8.49309e-06
-2.18956e-08
8.49889e-06
-2.02123e-08
8.50458e-06
-1.86547e-08
-1.71658e-08
8.5102e-06
7.31465e-06
-2.38971e-09
7.32176e-06
-2.88016e-08
7.32804e-06
-3.82082e-08
7.33394e-06
-4.14672e-08
7.34047e-06
-4.4183e-08
7.34712e-06
-4.49738e-08
7.3535e-06
-4.38558e-08
7.35961e-06
-4.19787e-08
7.36549e-06
-3.99082e-08
7.37113e-06
-3.76883e-08
7.37654e-06
-3.53334e-08
7.38173e-06
-3.29513e-08
7.38671e-06
-3.06531e-08
7.39151e-06
-2.85117e-08
7.39615e-06
-2.65358e-08
7.40065e-06
-2.47056e-08
7.405e-06
-2.30227e-08
-2.14272e-08
7.40925e-06
6.36263e-06
5.04271e-09
6.37239e-06
-3.85613e-08
6.38037e-06
-4.61858e-08
6.38782e-06
-4.89066e-08
6.39511e-06
-5.14775e-08
6.4016e-06
-5.14625e-08
6.40721e-06
-4.94702e-08
6.41216e-06
-4.69223e-08
6.41657e-06
-4.4323e-08
6.42052e-06
-4.16349e-08
6.42407e-06
-3.88806e-08
6.42727e-06
-3.61477e-08
6.43017e-06
-3.35523e-08
6.43283e-06
-3.11649e-08
6.43528e-06
-2.89826e-08
6.43757e-06
-2.69847e-08
6.43971e-06
-2.51578e-08
-2.34491e-08
6.44171e-06
5.54143e-06
9.08043e-09
5.55076e-06
-4.78974e-08
5.55918e-06
-5.45973e-08
5.5675e-06
-5.72282e-08
5.57474e-06
-5.87172e-08
5.58001e-06
-5.67367e-08
5.58338e-06
-5.28391e-08
5.58522e-06
-4.87522e-08
5.58586e-06
-4.49575e-08
5.58557e-06
-4.13542e-08
5.58461e-06
-3.79158e-08
5.58316e-06
-3.46938e-08
5.58137e-06
-3.17495e-08
5.57933e-06
-2.91204e-08
5.57714e-06
-2.67784e-08
5.57487e-06
-2.4706e-08
5.57259e-06
-2.28809e-08
-2.12305e-08
5.57037e-06
4.8601e-06
-2.34129e-08
4.86555e-06
-5.33444e-08
4.86573e-06
-5.47696e-08
4.86313e-06
-5.46284e-08
4.85852e-06
-5.4111e-08
4.85174e-06
-4.99535e-08
4.84295e-06
-4.40551e-08
4.83263e-06
-3.8425e-08
4.82124e-06
-3.35686e-08
4.80928e-06
-2.9385e-08
4.79713e-06
-2.57649e-08
4.78508e-06
-2.26395e-08
4.77331e-06
-1.99742e-08
4.76194e-06
-1.77325e-08
4.75102e-06
-1.58491e-08
4.74062e-06
-1.42977e-08
4.73085e-06
-1.31047e-08
-1.2793e-08
4.7224e-06
4.17926e-06
4.12592e-06
4.07115e-06
4.01652e-06
3.96241e-06
3.91246e-06
3.8684e-06
3.82998e-06
3.79641e-06
3.76702e-06
3.74126e-06
3.71862e-06
3.69865e-06
3.68092e-06
3.66507e-06
3.65078e-06
3.63767e-06
3.62488e-06
1.11176e-07
-1.10375e-07
2.68909e-07
-1.56787e-07
4.22855e-07
-1.53305e-07
5.53988e-07
-1.30118e-07
6.55372e-07
-1.00944e-07
7.24607e-07
-6.81099e-08
7.59273e-07
-3.44706e-08
7.62422e-07
-1.82195e-09
7.36117e-07
2.63883e-08
6.91058e-07
4.6565e-08
6.34336e-07
5.66204e-08
5.78022e-07
5.79033e-08
5.20978e-07
5.66155e-08
4.63492e-07
5.90305e-08
3.95958e-07
6.66763e-08
3.17783e-07
7.99249e-08
2.18263e-07
9.82263e-08
1.00758e-07
1.19713e-07
-4.46837e-08
1.44203e-07
-2.15471e-07
1.72619e-07
-4.14267e-07
1.97992e-07
-6.30986e-07
2.17795e-07
-8.63554e-07
2.32157e-07
-1.10448e-06
2.41447e-07
-1.35049e-06
2.45943e-07
-1.59673e-06
2.46366e-07
-1.83991e-06
2.43287e-07
-2.07754e-06
2.37467e-07
-2.30696e-06
2.29648e-07
-2.52773e-06
2.20472e-07
-2.73783e-06
2.1052e-07
-2.93832e-06
2.00163e-07
-3.12759e-06
1.898e-07
-3.30746e-06
1.79583e-07
-3.47648e-06
1.69755e-07
-3.63702e-06
1.60285e-07
-3.78755e-06
1.51325e-07
-3.93059e-06
1.42734e-07
-4.06444e-06
1.34624e-07
-4.19165e-06
1.26793e-07
-4.31028e-06
1.19346e-07
-4.42281e-06
1.12045e-07
-4.52711e-06
1.04999e-07
-4.62555e-06
9.79458e-08
-4.71578e-06
9.10161e-08
-4.80017e-06
8.39373e-08
-4.87626e-06
7.6884e-08
-4.94632e-06
6.95647e-08
-5.00766e-06
6.21296e-08
-5.06257e-06
5.42613e-08
-5.10816e-06
4.62147e-08
-5.14671e-06
3.76738e-08
-5.17523e-06
2.89276e-08
-5.19606e-06
1.99422e-08
-5.20684e-06
1.13348e-08
-5.21051e-06
2.86591e-09
-5.20503e-06
-4.97951e-09
-5.19336e-06
-1.23398e-08
-5.17345e-06
-1.92557e-08
-5.14744e-06
-2.65035e-08
-5.11325e-06
-3.3618e-08
-5.07281e-06
-4.07253e-08
-5.02432e-06
-4.77812e-08
-4.96975e-06
-5.45977e-08
-4.90817e-06
-6.08969e-08
-4.84006e-06
-6.80038e-08
-4.76476e-06
-7.47853e-08
-4.68337e-06
-8.1283e-08
-4.59616e-06
-8.69313e-08
-4.50463e-06
-9.1452e-08
-4.40806e-06
-9.65035e-08
-4.30532e-06
-1.02584e-07
-4.19854e-06
-1.0684e-07
-4.08895e-06
-1.09192e-07
-3.97506e-06
-1.13889e-07
-3.85721e-06
-1.17008e-07
-3.73869e-06
-1.18315e-07
-3.61766e-06
-1.19922e-07
-3.49571e-06
-1.21932e-07
-3.37168e-06
-1.22799e-07
-3.24861e-06
-1.23033e-07
-3.12365e-06
-1.23692e-07
-3.00132e-06
-1.22591e-07
-2.87768e-06
-1.22298e-07
-2.7558e-06
-1.21935e-07
-2.63395e-06
-1.20532e-07
-2.51459e-06
-1.19605e-07
-2.39649e-06
-1.18056e-07
-2.28087e-06
-1.16929e-07
-2.16784e-06
-1.15325e-07
-2.05526e-06
-1.14165e-07
-1.94409e-06
-1.11991e-07
-1.83454e-06
-1.09831e-07
-1.72711e-06
-1.07552e-07
-1.62176e-06
-1.05304e-07
-1.51861e-06
-1.03084e-07
-1.41746e-06
-1.00924e-07
-1.3184e-06
-9.87944e-08
-1.22124e-06
-9.67269e-08
-1.12604e-06
-9.46891e-08
-1.03259e-06
-9.27216e-08
-9.40882e-07
-9.07385e-08
-8.50772e-07
-8.88338e-08
-7.62285e-07
-8.69216e-08
-6.75532e-07
-8.51406e-08
-5.90532e-07
-8.33759e-08
-5.07338e-07
-8.18135e-08
-4.25796e-07
-8.03323e-08
-3.45855e-07
-7.90082e-08
-2.67418e-07
-7.76805e-08
-1.90217e-07
-7.66087e-08
-1.14091e-07
-7.56553e-08
-3.89149e-08
-7.47962e-08
3.59279e-08
-7.45408e-08
1.10492e-07
-7.43788e-08
1.83996e-07
-7.33008e-08
2.56091e-07
-7.20246e-08
3.26705e-07
-7.06362e-08
3.95688e-07
-6.92725e-08
4.63264e-07
-6.77667e-08
5.2956e-07
-6.62799e-08
5.94808e-07
-6.47881e-08
6.58861e-07
-6.34924e-08
7.21717e-07
-6.21645e-08
7.82891e-07
-6.07652e-08
8.42553e-07
-5.92683e-08
9.00628e-07
-5.798e-08
9.57441e-07
-5.66677e-08
1.0128e-06
-5.54524e-08
1.06706e-06
-5.4262e-08
1.11992e-06
-5.30665e-08
1.17147e-06
-5.1633e-08
1.22154e-06
-5.0339e-08
1.27047e-06
-4.90739e-08
1.31798e-06
-4.78265e-08
1.36408e-06
-4.63188e-08
1.40842e-06
-4.47191e-08
1.45121e-06
-4.31813e-08
1.49239e-06
-4.18838e-08
1.53204e-06
-4.04417e-08
1.57002e-06
-3.88581e-08
1.60651e-06
-3.71905e-08
1.64135e-06
-3.54292e-08
1.67425e-06
-3.32783e-08
1.70415e-06
-3.0229e-08
1.73052e-06
-2.65526e-08
1.75318e-06
-2.28545e-08
1.77244e-06
-1.93444e-08
1.78796e-06
-1.5665e-08
1.8002e-06
-1.23339e-08
1.81034e-06
-1.03274e-08
1.8196e-06
-9.4345e-09
1.829e-06
-9.66701e-09
1.84055e-06
-1.17979e-08
1.86022e-06
-1.99763e-08
1.88721e-06
-2.72792e-08
1.92206e-06
-3.51703e-08
1.95326e-06
-3.14937e-08
1.98118e-06
-2.8221e-08
2.01552e-06
-3.46292e-08
2.04718e-06
-3.19689e-08
2.07474e-06
-2.78644e-08
2.09836e-06
-2.39463e-08
2.11858e-06
-2.05315e-08
2.13587e-06
-1.76023e-08
2.15069e-06
-1.51095e-08
2.16344e-06
-1.30424e-08
2.17453e-06
-1.13332e-08
2.18415e-06
-9.85458e-09
2.19249e-06
-8.52483e-09
2.19975e-06
-7.43201e-09
2.20595e-06
-6.31508e-09
2.2109e-06
-5.05707e-09
2.21459e-06
-3.73774e-09
2.21569e-06
-1.14524e-09
2.21221e-06
3.47536e-09
2.20092e-06
1.12826e-08
2.17531e-06
2.56353e-08
2.11747e-06
5.78622e-08
1.10494e-07
2.00701e-06
1.50754e-07
-2.60614e-07
2.70113e-07
-2.75609e-07
3.54213e-07
-2.37092e-07
4.10926e-07
-1.8632e-07
4.43292e-07
-1.33074e-07
4.55832e-07
-8.0033e-08
4.50533e-07
-2.89438e-08
4.3073e-07
1.88118e-08
3.95098e-07
6.21988e-08
3.4284e-07
9.98295e-08
2.69317e-07
1.30223e-07
1.73607e-07
1.54595e-07
5.23588e-08
1.77798e-07
-9.54827e-08
2.07471e-07
-2.75255e-07
2.46265e-07
-4.84606e-07
2.89586e-07
-7.19467e-07
3.32943e-07
-9.72969e-07
3.73512e-07
-1.23838e-06
4.09512e-07
-1.50434e-06
4.38883e-07
-1.76598e-06
4.59587e-07
-2.01898e-06
4.71062e-07
-2.26078e-06
4.73949e-07
-2.48861e-06
4.69438e-07
-2.70144e-06
4.58825e-07
-2.89863e-06
4.43631e-07
-3.0806e-06
4.25341e-07
-3.2483e-06
4.05141e-07
-3.40254e-06
3.84005e-07
-3.54481e-06
3.62688e-07
-3.67587e-06
3.41747e-07
-3.79733e-06
3.2155e-07
-3.90964e-06
3.02335e-07
-4.01429e-06
2.84193e-07
-4.11139e-06
2.67157e-07
-4.20228e-06
2.51154e-07
-4.28676e-06
2.36122e-07
-4.36599e-06
2.21919e-07
-4.43952e-06
2.0845e-07
-4.50838e-06
1.95552e-07
-4.57192e-06
1.83138e-07
-4.63106e-06
1.71049e-07
-4.68504e-06
1.59217e-07
-4.7347e-06
1.47494e-07
-4.77925e-06
1.35847e-07
-4.81952e-06
1.2415e-07
-4.85472e-06
1.12399e-07
-4.88572e-06
1.00481e-07
-4.91171e-06
8.84194e-08
-4.93367e-06
7.61108e-08
-4.9509e-06
6.36291e-08
-4.96442e-06
5.09262e-08
-4.97351e-06
3.81212e-08
-4.97895e-06
2.51657e-08
-4.97963e-06
1.21379e-08
-4.97581e-06
-1.17221e-09
-4.96593e-06
-1.47434e-08
-4.94983e-06
-2.85616e-08
-4.92648e-06
-4.24529e-08
-4.89655e-06
-5.65283e-08
-4.8594e-06
-7.06136e-08
-4.81539e-06
-8.47232e-08
-4.76419e-06
-9.87615e-08
-4.70606e-06
-1.12608e-07
-4.64058e-06
-1.26131e-07
-4.56888e-06
-1.39552e-07
-4.49095e-06
-1.52511e-07
-4.4072e-06
-1.64914e-07
-4.31757e-06
-1.76448e-07
-4.22173e-06
-1.87218e-07
-4.12077e-06
-1.97428e-07
-4.01621e-06
-2.07065e-07
-3.90754e-06
-2.15483e-07
-3.794e-06
-2.22588e-07
-3.67864e-06
-2.29129e-07
-3.56069e-06
-2.34593e-07
-3.44002e-06
-2.38741e-07
-3.31748e-06
-2.42061e-07
-3.19446e-06
-2.44719e-07
-3.07049e-06
-2.46314e-07
-2.94616e-06
-2.47146e-07
-2.82228e-06
-2.47175e-07
-2.69835e-06
-2.46361e-07
-2.57506e-06
-2.45134e-07
-2.45328e-06
-2.43469e-07
-2.33217e-06
-2.4119e-07
-2.213e-06
-2.38622e-07
-2.09537e-06
-2.35725e-07
-1.98038e-06
-2.32747e-07
-1.86721e-06
-2.29604e-07
-1.75592e-06
-2.26205e-07
-1.64587e-06
-2.22347e-07
-1.53748e-06
-2.18203e-07
-1.43101e-06
-2.13947e-07
-1.32646e-06
-2.09653e-07
-1.22393e-06
-2.05433e-07
-1.1233e-06
-2.01267e-07
-1.02461e-06
-1.97217e-07
-9.27693e-07
-1.93244e-07
-8.32603e-07
-1.89402e-07
-7.39131e-07
-1.85636e-07
-6.47299e-07
-1.81967e-07
-5.56909e-07
-1.78373e-07
-4.68099e-07
-1.74882e-07
-3.80751e-07
-1.71532e-07
-2.95013e-07
-1.68328e-07
-2.10728e-07
-1.65348e-07
-1.27893e-07
-1.62638e-07
-4.62114e-08
-1.60202e-07
3.43795e-08
-1.57968e-07
1.13918e-07
-1.55854e-07
1.92182e-07
-1.53757e-07
2.69288e-07
-1.51732e-07
3.44567e-07
-1.4976e-07
4.17959e-07
-1.47677e-07
4.89941e-07
-1.45265e-07
5.60649e-07
-1.42686e-07
6.29941e-07
-1.40033e-07
6.97894e-07
-1.37356e-07
7.64595e-07
-1.34609e-07
8.3021e-07
-1.31846e-07
8.94695e-07
-1.29071e-07
9.57934e-07
-1.26385e-07
1.01979e-06
-1.23723e-07
1.08028e-06
-1.21e-07
1.13937e-06
-1.18208e-07
1.19703e-06
-1.15546e-07
1.2533e-06
-1.12923e-07
1.30824e-06
-1.1039e-07
1.36184e-06
-1.07925e-07
1.41416e-06
-1.05454e-07
1.46519e-06
-1.02779e-07
1.51484e-06
-1.001e-07
1.56307e-06
-9.74557e-08
1.60991e-06
-9.48238e-08
1.65538e-06
-9.19755e-08
1.69939e-06
-8.89361e-08
1.7418e-06
-8.59301e-08
1.78256e-06
-8.30862e-08
1.8217e-06
-8.01441e-08
1.85925e-06
-7.69526e-08
1.89518e-06
-7.35725e-08
1.92931e-06
-6.98913e-08
1.96139e-06
-6.55984e-08
1.99134e-06
-6.03252e-08
2.01907e-06
-5.43774e-08
2.04452e-06
-4.83474e-08
2.06767e-06
-4.25043e-08
2.0889e-06
-3.68971e-08
2.10865e-06
-3.20842e-08
2.12717e-06
-2.88739e-08
2.14541e-06
-2.77246e-08
2.16442e-06
-2.87734e-08
2.18473e-06
-3.22353e-08
2.20371e-06
-3.91263e-08
2.22168e-06
-4.54601e-08
2.23653e-06
-5.02562e-08
2.25206e-06
-4.72989e-08
2.26633e-06
-4.2759e-08
2.27766e-06
-4.62445e-08
2.29108e-06
-4.5679e-08
2.30559e-06
-4.26887e-08
2.32014e-06
-3.87907e-08
2.33407e-06
-3.4784e-08
2.34712e-06
-3.09462e-08
2.35919e-06
-2.74812e-08
2.3703e-06
-2.44117e-08
2.38044e-06
-2.17236e-08
2.38965e-06
-1.92769e-08
2.39802e-06
-1.70686e-08
2.40561e-06
-1.51621e-08
2.41232e-06
-1.31307e-08
2.41796e-06
-1.07628e-08
2.42213e-06
-7.93146e-09
2.42455e-06
-3.55428e-09
2.42509e-06
2.97638e-09
2.42285e-06
1.3594e-08
2.41617e-06
3.24127e-08
2.40255e-06
7.1599e-08
1.4529e-07
2.36788e-06
8.45796e-08
-3.44911e-07
1.2549e-07
-3.16137e-07
1.42628e-07
-2.5405e-07
1.41981e-07
-1.85333e-07
1.24618e-07
-1.15551e-07
9.19401e-08
-4.68843e-08
4.36108e-08
1.95354e-08
-2.03751e-08
8.3352e-08
-1.0254e-07
1.44531e-07
-2.05264e-07
2.03048e-07
-3.3403e-07
2.5909e-07
-4.92694e-07
3.1362e-07
-6.82911e-07
3.68015e-07
-8.98074e-07
4.22862e-07
-1.12857e-06
4.76673e-07
-1.36478e-06
5.25958e-07
-1.59954e-06
5.67607e-07
-1.82579e-06
5.99919e-07
-2.03864e-06
6.22287e-07
-2.23413e-06
6.34555e-07
-2.41177e-06
6.37192e-07
-2.57196e-06
6.31399e-07
-2.7166e-06
6.1861e-07
-2.84745e-06
6.00394e-07
-2.96686e-06
5.78287e-07
-3.07685e-06
5.53691e-07
-3.17917e-06
5.27754e-07
-3.27539e-06
5.01382e-07
-3.36654e-06
4.75262e-07
-3.45373e-06
4.49877e-07
-3.53739e-06
4.25533e-07
-3.61825e-06
4.02399e-07
-3.69631e-06
3.80541e-07
-3.77206e-06
3.59934e-07
-3.84524e-06
3.40506e-07
-3.91624e-06
3.22145e-07
-3.98466e-06
3.04716e-07
-4.05085e-06
2.88069e-07
-4.11431e-06
2.72063e-07
-4.17537e-06
2.56547e-07
-4.2335e-06
2.4139e-07
-4.28898e-06
2.26456e-07
-4.34128e-06
2.11632e-07
-4.39065e-06
1.96803e-07
-4.43653e-06
1.81883e-07
-4.47918e-06
1.6678e-07
-4.51802e-06
1.51433e-07
-4.5533e-06
1.35765e-07
-4.58443e-06
1.19731e-07
-4.61158e-06
1.03277e-07
-4.6342e-06
8.6391e-08
-4.65236e-06
6.90421e-08
-4.66537e-06
5.12403e-08
-4.67318e-06
3.29474e-08
-4.67509e-06
1.41474e-08
-4.67109e-06
-5.20206e-09
-4.6607e-06
-2.50669e-08
-4.6439e-06
-4.53791e-08
-4.62028e-06
-6.60102e-08
-4.58993e-06
-8.68953e-08
-4.55259e-06
-1.07923e-07
-4.50829e-06
-1.29008e-07
-4.45696e-06
-1.50024e-07
-4.39868e-06
-1.7082e-07
-4.3335e-06
-1.91225e-07
-4.26179e-06
-2.1119e-07
-4.18374e-06
-2.3048e-07
-4.09967e-06
-2.48909e-07
-4.00984e-06
-2.66229e-07
-3.91456e-06
-2.82451e-07
-3.8144e-06
-2.97564e-07
-3.71e-06
-3.11414e-07
-3.60171e-06
-3.23749e-07
-3.48975e-06
-3.3447e-07
-3.3751e-06
-3.43678e-07
-3.25806e-06
-3.51478e-07
-3.13889e-06
-3.57743e-07
-3.0182e-06
-3.62573e-07
-2.89666e-06
-3.66103e-07
-2.77451e-06
-3.68272e-07
-2.65223e-06
-3.69265e-07
-2.5302e-06
-3.69044e-07
-2.40862e-06
-3.67786e-07
-2.2879e-06
-3.65645e-07
-2.16842e-06
-3.62736e-07
-2.05021e-06
-3.59166e-07
-1.93363e-06
-3.55023e-07
-1.81888e-06
-3.50501e-07
-1.70637e-06
-3.45649e-07
-1.59596e-06
-3.40667e-07
-1.48723e-06
-3.35297e-07
-1.37998e-06
-3.29578e-07
-1.27443e-06
-3.23584e-07
-1.17069e-06
-3.17432e-07
-1.0688e-06
-3.11262e-07
-9.68777e-07
-3.05142e-07
-8.70591e-07
-2.99136e-07
-7.74188e-07
-2.93258e-07
-6.79518e-07
-2.8754e-07
-5.86522e-07
-2.81981e-07
-4.95095e-07
-2.76567e-07
-4.05193e-07
-2.71309e-07
-3.16699e-07
-2.66173e-07
-2.29687e-07
-2.61223e-07
-1.44044e-07
-2.5647e-07
-5.98056e-08
-2.52021e-07
2.31776e-08
-2.47825e-07
1.0477e-07
-2.43896e-07
1.85041e-07
-2.40155e-07
2.63866e-07
-2.36611e-07
3.4136e-07
-2.33149e-07
4.17462e-07
-2.29768e-07
4.9223e-07
-2.26381e-07
5.65466e-07
-2.2297e-07
6.37263e-07
-2.19411e-07
7.07679e-07
-2.1569e-07
7.76814e-07
-2.11823e-07
8.44585e-07
-2.07912e-07
9.1107e-07
-2.03948e-07
9.76297e-07
-1.99939e-07
1.04039e-06
-1.95882e-07
1.10329e-06
-1.91815e-07
1.16493e-06
-1.87762e-07
1.22514e-06
-1.83742e-07
1.28399e-06
-1.79654e-07
1.34142e-06
-1.75554e-07
1.39748e-06
-1.71512e-07
1.4521e-06
-1.67546e-07
1.50538e-06
-1.63649e-07
1.55722e-06
-1.59813e-07
1.60767e-06
-1.55927e-07
1.65675e-06
-1.51943e-07
1.70452e-06
-1.47928e-07
1.75091e-06
-1.43946e-07
1.7959e-06
-1.39905e-07
1.83947e-06
-1.35668e-07
1.88164e-06
-1.31255e-07
1.92233e-06
-1.26856e-07
1.96145e-06
-1.22518e-07
1.99899e-06
-1.18069e-07
2.03505e-06
-1.13372e-07
2.06956e-06
-1.08379e-07
2.10241e-06
-1.02957e-07
2.13355e-06
-9.68867e-08
2.16309e-06
-8.99788e-08
2.19109e-06
-8.24537e-08
2.21762e-06
-7.49336e-08
2.24272e-06
-6.7638e-08
2.26654e-06
-6.07382e-08
2.28935e-06
-5.49188e-08
2.31139e-06
-5.09409e-08
2.33302e-06
-4.93842e-08
2.35456e-06
-5.03567e-08
2.37579e-06
-5.35147e-08
2.39543e-06
-5.88338e-08
2.41289e-06
-6.29928e-08
2.42693e-06
-6.43997e-08
2.44072e-06
-6.1194e-08
2.45441e-06
-5.66004e-08
2.46418e-06
-5.61475e-08
2.47323e-06
-5.48856e-08
2.4826e-06
-5.21891e-08
2.49225e-06
-4.86078e-08
2.50195e-06
-4.46229e-08
2.51144e-06
-4.05948e-08
2.52062e-06
-3.67988e-08
2.52938e-06
-3.33152e-08
2.53765e-06
-3.01159e-08
2.54543e-06
-2.71775e-08
2.55277e-06
-2.45053e-08
2.55958e-06
-2.20575e-08
2.56566e-06
-1.92732e-08
2.57076e-06
-1.59241e-08
2.57454e-06
-1.17586e-08
2.57671e-06
-5.76161e-09
2.57686e-06
2.79675e-09
2.57423e-06
1.61949e-08
2.56754e-06
3.90738e-08
2.5579e-06
8.12377e-08
1.55091e-07
2.54811e-06
-4.09571e-10
-3.44383e-07
-2.87498e-08
-2.87612e-07
-7.05029e-08
-2.12231e-07
-1.24598e-07
-1.31e-07
-1.9171e-07
-4.83694e-08
-2.72401e-07
3.40862e-08
-3.68608e-07
1.1584e-07
-4.81529e-07
1.96588e-07
-6.12923e-07
2.75977e-07
-7.62942e-07
3.5337e-07
-9.31667e-07
4.27832e-07
-1.11595e-06
4.98139e-07
-1.31075e-06
5.62787e-07
-1.50762e-06
6.199e-07
-1.69868e-06
6.67661e-07
-1.8773e-06
7.04709e-07
-2.04039e-06
7.30607e-07
-2.18611e-06
7.45754e-07
-2.31497e-06
7.51073e-07
-2.42809e-06
7.47776e-07
-2.52817e-06
7.37243e-07
-2.61761e-06
7.20927e-07
-2.69922e-06
7.00224e-07
-2.77519e-06
6.76435e-07
-2.84753e-06
6.50682e-07
-2.91769e-06
6.23904e-07
-2.98666e-06
5.96808e-07
-3.05519e-06
5.69939e-07
-3.12351e-06
5.43692e-07
-3.19195e-06
5.1833e-07
-3.26031e-06
4.94004e-07
-3.32868e-06
4.70776e-07
-3.39666e-06
4.48638e-07
-3.46428e-06
4.27536e-07
-3.53102e-06
4.07378e-07
-3.59695e-06
3.88045e-07
-3.66153e-06
3.69409e-07
-3.72483e-06
3.51329e-07
-3.78634e-06
3.33667e-07
-3.84615e-06
3.16283e-07
-3.90372e-06
2.99043e-07
-3.95916e-06
2.81818e-07
-4.01194e-06
2.64488e-07
-4.06214e-06
2.4694e-07
-4.10923e-06
2.29073e-07
-4.15326e-06
2.10794e-07
-4.1937e-06
1.92016e-07
-4.23057e-06
1.72659e-07
-4.26334e-06
1.52662e-07
-4.29197e-06
1.3196e-07
-4.31594e-06
1.10514e-07
-4.33515e-06
8.82917e-08
-4.34904e-06
6.52741e-08
-4.35749e-06
4.14387e-08
-4.36e-06
1.6791e-08
-4.35653e-06
-8.64651e-09
-4.34669e-06
-3.48142e-08
-4.33044e-06
-6.16194e-08
-4.30747e-06
-8.89395e-08
-4.27773e-06
-1.16654e-07
-4.24102e-06
-1.44624e-07
-4.19735e-06
-1.72699e-07
-4.14667e-06
-2.00698e-07
-4.08906e-06
-2.2842e-07
-4.02462e-06
-2.55652e-07
-3.95358e-06
-2.82206e-07
-3.8762e-06
-3.07838e-07
-3.79277e-06
-3.32307e-07
-3.7036e-06
-3.55374e-07
-3.60916e-06
-3.76862e-07
-3.50992e-06
-3.96786e-07
-3.40636e-06
-4.14949e-07
-3.29895e-06
-4.31121e-07
-3.18815e-06
-4.45223e-07
-3.07452e-06
-4.57256e-07
-2.95859e-06
-4.67313e-07
-2.84085e-06
-4.75387e-07
-2.7218e-06
-4.81524e-07
-2.60197e-06
-4.85834e-07
-2.48175e-06
-4.88384e-07
-2.3616e-06
-4.89318e-07
-2.24183e-06
-4.88714e-07
-2.12276e-06
-4.86749e-07
-2.00468e-06
-4.83591e-07
-1.88783e-06
-4.79409e-07
-1.77244e-06
-4.74378e-07
-1.65867e-06
-4.68627e-07
-1.54677e-06
-4.62344e-07
-1.43706e-06
-4.55676e-07
-1.3294e-06
-4.487e-07
-1.22344e-06
-4.41406e-07
-1.11907e-06
-4.33802e-07
-1.01642e-06
-4.25942e-07
-9.15552e-07
-4.1796e-07
-8.16484e-07
-4.09956e-07
-7.19215e-07
-4.02042e-07
-6.23697e-07
-3.94259e-07
-5.29898e-07
-3.86663e-07
-4.37749e-07
-3.79266e-07
-3.47185e-07
-3.72094e-07
-2.58131e-07
-3.65106e-07
-1.70501e-07
-3.5835e-07
-8.42268e-08
-3.51807e-07
7.22785e-10
-3.45531e-07
8.42965e-08
-3.39471e-07
1.6645e-07
-3.33701e-07
2.47168e-07
-3.28166e-07
3.26462e-07
-3.22904e-07
4.04349e-07
-3.17819e-07
4.80833e-07
-3.12929e-07
5.55935e-07
-3.08119e-07
6.29658e-07
-3.034e-07
7.02004e-07
-2.98655e-07
7.72957e-07
-2.93887e-07
8.42557e-07
-2.88982e-07
9.10839e-07
-2.83978e-07
9.77825e-07
-2.78852e-07
1.0435e-06
-2.73689e-07
1.10789e-06
-2.68449e-07