/*--------------------------------*- C++ -*----------------------------------*\
  =========                 |
  \\      /  F ield         | OpenFOAM: The Open Source CFD Toolbox
   \\    /   O peration     | Website:  https://openfoam.org
    \\  /    A nd           | Version:  8
     \\/     M anipulation  |
\*---------------------------------------------------------------------------*/
FoamFile
{
    version     2.0;
    format      ascii;
    class       volVectorField;
    location    "45";
    object      U;
}
// * * * * * * * * * * * * * * * * * * * * * * * * * * * * * * * * * * * * * //

dimensions      [0 1 -1 0 0 0 0];

internalField   nonuniform List<vector> 
12225
(
(9.85685 -0.886761 0)
(9.66539 -0.740425 0)
(9.45308 -0.429692 0)
(9.21922 -0.221822 0)
(8.99764 -0.105453 0)
(8.80149 -0.0446215 0)
(8.62889 -0.013992 0)
(8.48012 0.00176583 0)
(8.35068 0.0100722 0)
(8.23929 0.014461 0)
(8.14021 0.0167359 0)
(8.05099 0.0183784 0)
(7.96789 0.0195925 0)
(7.88874 0.0211062 0)
(7.80874 0.0232366 0)
(7.72855 0.0269101 0)
(7.61385 0.0351048 0)
(7.5572 0.048109 0)
(10.0545 0.227892 0)
(10.1209 0.327234 0)
(10.1188 0.262203 0)
(10.0834 0.187524 0)
(10.0396 0.136107 0)
(9.9908 0.102744 0)
(9.93513 0.0810844 0)
(9.87211 0.0667944 0)
(9.80607 0.0572681 0)
(9.73808 0.0505956 0)
(9.67004 0.045828 0)
(9.60195 0.0425071 0)
(9.53468 0.0405292 0)
(9.46829 0.0401199 0)
(9.40172 0.041442 0)
(9.3377 0.0468779 0)
(9.26475 0.0557524 0)
(9.21897 0.0875907 0)
(10.0035 0.0583234 0)
(10.0301 0.0563775 0)
(10.0547 0.0348585 0)
(10.0675 0.0342122 0)
(10.0724 0.042283 0)
(10.0711 0.0486369 0)
(10.0628 0.0520483 0)
(10.0478 0.0539531 0)
(10.0283 0.0550278 0)
(10.0049 0.0555139 0)
(9.97818 0.0557927 0)
(9.94828 0.0563532 0)
(9.91574 0.0575874 0)
(9.88089 0.0600785 0)
(9.84323 0.0640444 0)
(9.80364 0.0720242 0)
(9.7598 0.0829882 0)
(9.71933 0.111541 0)
(9.9977 0.0111481 0)
(10.0106 0.0273312 0)
(10.0335 0.0381718 0)
(10.0494 0.0495358 0)
(10.0595 0.0576618 0)
(10.0663 0.061184 0)
(10.0692 0.0622532 0)
(10.0684 0.0626795 0)
(10.0646 0.0629987 0)
(10.0582 0.0632735 0)
(10.0491 0.0637772 0)
(10.0375 0.06493 0)
(10.0235 0.0670603 0)
(10.0073 0.070664 0)
(9.9886 0.0761268 0)
(9.96801 0.0851422 0)
(9.94542 0.0982127 0)
(9.92409 0.120774 0)
(9.99928 0.00737256 0)
(10.0084 0.0325005 0)
(10.0259 0.0452657 0)
(10.0387 0.0521122 0)
(10.0479 0.0567051 0)
(10.0556 0.0592074 0)
(10.0611 0.0605221 0)
(10.0642 0.0615721 0)
(10.0652 0.0626409 0)
(10.0643 0.0637928 0)
(10.0613 0.0652737 0)
(10.0563 0.0674731 0)
(10.0495 0.0707123 0)
(10.0409 0.0754435 0)
(10.0307 0.0821092 0)
(10.0192 0.0918885 0)
(10.0072 0.105501 0)
(9.99728 0.124768 0)
(10.0002 0.00950662 0)
(10.0077 0.0322444 0)
(10.0212 0.0428231 0)
(10.0319 0.048208 0)
(10.0401 0.0527609 0)
(10.0475 0.0561444 0)
(10.0533 0.0584288 0)
(10.0574 0.0602741 0)
(10.0598 0.0620723 0)
(10.0608 0.0639861 0)
(10.0601 0.0662625 0)
(10.0578 0.0692564 0)
(10.0539 0.0732874 0)
(10.0488 0.0787817 0)
(10.0426 0.0861709 0)
(10.0357 0.0962885 0)
(10.0291 0.109649 0)
(10.0246 0.126821 0)
(10.0004 0.00936974 0)
(10.0066 0.0284129 0)
(10.0176 0.0386983 0)
(10.0271 0.0446716 0)
(10.0347 0.0497894 0)
(10.0415 0.0537887 0)
(10.0471 0.0566546 0)
(10.0512 0.0590085 0)
(10.0541 0.0613129 0)
(10.0558 0.0637946 0)
(10.0561 0.066682 0)
(10.055 0.0702905 0)
(10.0527 0.0749318 0)
(10.0496 0.0809861 0)
(10.0457 0.088833 0)
(10.0416 0.0990094 0)
(10.038 0.111794 0)
(10.0363 0.12707 0)
(10.0003 0.00843489 0)
(10.0055 0.0249328 0)
(10.0147 0.0353936 0)
(10.0233 0.0419392 0)
(10.0304 0.047294 0)
(10.0367 0.0515432 0)
(10.0419 0.0547801 0)
(10.0459 0.0575522 0)
(10.049 0.0603028 0)
(10.051 0.063272 0)
(10.0518 0.0666789 0)
(10.0515 0.0708077 0)
(10.0503 0.0759536 0)
(10.0484 0.0824303 0)
(10.0462 0.0905349 0)
(10.044 0.100581 0)
(10.0425 0.11267 0)
(10.0425 0.126472 0)
(10.0003 0.00757503 0)
(10.0046 0.0222237 0)
(10.0123 0.0325352 0)
(10.02 0.03934 0)
(10.0266 0.0447851 0)
(10.0325 0.0491981 0)
(10.0374 0.0527596 0)
(10.0414 0.0559376 0)
(10.0445 0.0591184 0)
(10.0468 0.0625278 0)
(10.048 0.066386 0)
(10.0483 0.0709564 0)
(10.0479 0.0765053 0)
(10.0471 0.0832685 0)
(10.0461 0.0914606 0)
(10.0454 0.101247 0)
(10.0453 0.112631 0)
(10.0466 0.125257 0)
(10.0003 0.00684127 0)
(10.0038 0.0199114 0)
(10.0103 0.0298047 0)
(10.0172 0.0366797 0)
(10.0234 0.0422129 0)
(10.0289 0.0468096 0)
(10.0336 0.0506689 0)
(10.0375 0.0542148 0)
(10.0407 0.0577796 0)
(10.0432 0.0615779 0)
(10.0448 0.0658209 0)
(10.0457 0.0707551 0)
(10.046 0.0765985 0)
(10.0461 0.083525 0)
(10.0462 0.0916741 0)
(10.0466 0.10112 0)
(10.0478 0.111807 0)
(10.0499 0.123411 0)
(10.0003 0.00617659 0)
(10.0032 0.0178598 0)
(10.0087 0.0272011 0)
(10.0148 0.0340346 0)
(10.0205 0.0396282 0)
(10.0257 0.0443912 0)
(10.0303 0.0485103 0)
(10.0342 0.0523648 0)
(10.0375 0.0562495 0)
(10.0401 0.0603661 0)
(10.0422 0.0649179 0)
(10.0436 0.0701204 0)
(10.0447 0.0761553 0)
(10.0457 0.0831346 0)
(10.0467 0.0911448 0)
(10.0481 0.100188 0)
(10.0502 0.110189 0)
(10.0531 0.120864 0)
(10.0003 0.0055979 0)
(10.0028 0.0161642 0)
(10.0074 0.0249516 0)
(10.0129 0.0317158 0)
(10.0183 0.0372998 0)
(10.0233 0.0421347 0)
(10.0277 0.0464606 0)
(10.0315 0.0505723 0)
(10.035 0.0546973 0)
(10.0379 0.059021 0)
(10.0403 0.0637603 0)
(10.0423 0.0691361 0)
(10.044 0.075271 0)
(10.0457 0.0822471 0)
(10.0475 0.0900594 0)
(10.0498 0.0986997 0)
(10.0526 0.10807 0)
(10.0562 0.117965 0)
(10.0002 0.00506443 0)
(10.0024 0.0146179 0)
(10.0065 0.0228237 0)
(10.0114 0.0294389 0)
(10.0164 0.0349655 0)
(10.0212 0.0398038 0)
(10.0255 0.0442598 0)
(10.0294 0.0485864 0)
(10.033 0.0529283 0)
(10.0361 0.0574237 0)
(10.0389 0.0622892 0)
(10.0414 0.0677353 0)
(10.0438 0.0738751 0)
(10.0461 0.080752 0)
(10.0487 0.0883318 0)
(10.0516 0.0965647 0)
(10.0551 0.105359 0)
(10.0593 0.114511 0)
(10.0002 0.00451305 0)
(10.0021 0.013025 0)
(10.0056 0.0205245 0)
(10.01 0.0268617 0)
(10.0146 0.0322999 0)
(10.0192 0.0370863 0)
(10.0235 0.0415846 0)
(10.0275 0.0460658 0)
(10.0312 0.050612 0)
(10.0346 0.0552729 0)
(10.0378 0.0602324 0)
(10.041 0.0656568 0)
(10.044 0.0716985 0)
(10.0471 0.0783506 0)
(10.0504 0.0856054 0)
(10.054 0.0933515 0)
(10.0581 0.10151 0)
(10.0629 0.109873 0)
(10.0002 0.00394575 0)
(10.0017 0.0113537 0)
(10.0048 0.0180902 0)
(10.0088 0.0239853 0)
(10.013 0.0292358 0)
(10.0174 0.0339346 0)
(10.0218 0.0383641 0)
(10.026 0.0428453 0)
(10.0299 0.0474773 0)
(10.0336 0.0522667 0)
(10.0373 0.0572619 0)
(10.041 0.0626134 0)
(10.0448 0.0684136 0)
(10.0486 0.0747259 0)
(10.0527 0.0814862 0)
(10.057 0.0886374 0)
(10.0618 0.0960544 0)
(10.067 0.10359 0)
(10.0002 0.00334968 0)
(10.0015 0.00959035 0)
(10.0042 0.0154712 0)
(10.0079 0.0207445 0)
(10.0118 0.0256277 0)
(10.016 0.0301569 0)
(10.0205 0.0344398 0)
(10.0249 0.038762 0)
(10.0292 0.0432904 0)
(10.0333 0.0480338 0)
(10.0374 0.052963 0)
(10.0418 0.0581297 0)
(10.0462 0.0635968 0)
(10.0509 0.0694241 0)
(10.0557 0.0755776 0)
(10.0607 0.081995 0)
(10.066 0.0885809 0)
(10.0717 0.0952015 0)
(10.0001 0.00270021 0)
(10.0014 0.00768927 0)
(10.0038 0.0125422 0)
(10.0073 0.0170232 0)
(10.0112 0.0213224 0)
(10.0153 0.0254891 0)
(10.0198 0.0295201 0)
(10.0246 0.0335595 0)
(10.0293 0.0377874 0)
(10.0339 0.0422313 0)
(10.0385 0.0468746 0)
(10.0434 0.0516772 0)
(10.0485 0.056686 0)
(10.0539 0.0618969 0)
(10.0593 0.067329 0)
(10.065 0.0729039 0)
(10.0708 0.0785793 0)
(10.077 0.0842394 0)
(10.0001 0.00196342 0)
(10.0013 0.0055404 0)
(10.0037 0.00916235 0)
(10.0071 0.0126612 0)
(10.0111 0.0161126 0)
(10.0153 0.0196081 0)
(10.02 0.0231352 0)
(10.0251 0.0267168 0)
(10.0304 0.0304423 0)
(10.0355 0.0343594 0)
(10.0407 0.038457 0)
(10.0461 0.0427031 0)
(10.0518 0.0470834 0)
(10.0577 0.0515804 0)
(10.0638 0.0561791 0)
(10.07 0.0608442 0)
(10.0763 0.0655274 0)
(10.0828 0.0701929 0)
(10.0002 0.00105377 0)
(10.0014 0.00291689 0)
(10.0039 0.00496733 0)
(10.0074 0.0071545 0)
(10.0117 0.00946984 0)
(10.0163 0.0119717 0)
(10.0213 0.0146809 0)
(10.0269 0.017549 0)
(10.0327 0.0205668 0)
(10.0384 0.0237373 0)
(10.0441 0.0270686 0)
(10.0501 0.0305309 0)
(10.0563 0.0341047 0)
(10.0628 0.0377455 0)
(10.0694 0.0414216 0)
(10.0759 0.0450948 0)
(10.0826 0.0487385 0)
(10.0893 0.0523573 0)
(10.0002 0.000113207 0)
(10.0016 0.000217318 0)
(10.0043 0.000623131 0)
(10.0083 0.00142988 0)
(10.013 0.00258083 0)
(10.0182 0.00406163 0)
(10.0238 0.00587505 0)
(10.0298 0.00796469 0)
(10.036 0.0102289 0)
(10.0422 0.0126538 0)
(10.0484 0.0152263 0)
(10.0548 0.0179571 0)
(10.0615 0.0207852 0)
(10.0683 0.0236781 0)
(10.0751 0.0265675 0)
(10.0819 0.0294377 0)
(10.0887 0.0322523 0)
(10.0956 0.03505 0)
(10.0002 -0.000727019 0)
(10.0018 -0.00223678 0)
(10.0049 -0.00330619 0)
(10.0094 -0.00368443 0)
(10.0147 -0.00349397 0)
(10.0204 -0.00283362 0)
(10.0265 -0.00172762 0)
(10.0329 -0.000265364 0)
(10.0395 0.00140788 0)
(10.046 0.00325682 0)
(10.0526 0.00528453 0)
(10.0594 0.0074917 0)
(10.0663 0.00980234 0)
(10.0733 0.0121656 0)
(10.0803 0.0145128 0)
(10.0872 0.0168317 0)
(10.0941 0.0190929 0)
(10.1011 0.0213483 0)
(10.0002 -0.00153491 0)
(10.002 -0.00467958 0)
(10.0057 -0.00725007 0)
(10.0109 -0.00875271 0)
(10.0167 -0.00940005 0)
(10.023 -0.00940731 0)
(10.0296 -0.00883011 0)
(10.0365 -0.00784965 0)
(10.0433 -0.00663889 0)
(10.0502 -0.00525068 0)
(10.0571 -0.00365391 0)
(10.0642 -0.00188559 0)
(10.0714 -5.39836e-06 0)
(10.0785 0.00189214 0)
(10.0856 0.00377837 0)
(10.0925 0.00562339 0)
(10.0995 0.00743173 0)
(10.1065 0.00925172 0)
(10.0002 -0.0022959 0)
(10.0021 -0.00712939 0)
(10.0065 -0.0111756 0)
(10.0126 -0.0136603 0)
(10.0192 -0.015067 0)
(10.026 -0.0156898 0)
(10.0332 -0.0155798 0)
(10.0403 -0.0149693 0)
(10.0475 -0.014094 0)
(10.0546 -0.0130108 0)
(10.0618 -0.0117192 0)
(10.0691 -0.0102644 0)
(10.0764 -0.00873237 0)
(10.0836 -0.00719871 0)
(10.0907 -0.00568902 0)
(10.0978 -0.00420675 0)
(10.1048 -0.00275817 0)
(10.1118 -0.00127769 0)
(10.0002 -0.00297485 0)
(10.0022 -0.00996064 0)
(10.0074 -0.0152474 0)
(10.0144 -0.0181624 0)
(10.0217 -0.0200827 0)
(10.0292 -0.0213232 0)
(10.0369 -0.0217376 0)
(10.0444 -0.0215296 0)
(10.0518 -0.020959 0)
(10.0592 -0.0201161 0)
(10.0666 -0.0190363 0)
(10.0741 -0.0177998 0)
(10.0815 -0.0165124 0)
(10.0887 -0.015231 0)
(10.0958 -0.013979 0)
(10.1029 -0.0127492 0)
(10.1099 -0.0115538 0)
(10.1169 -0.0103427 0)
(9.99995 -0.00293718 0)
(10.002 -0.0137298 0)
(10.0085 -0.0206854 0)
(10.0165 -0.0233561 0)
(10.0242 -0.0250088 0)
(10.0322 -0.0262998 0)
(10.0405 -0.0269403 0)
(10.0485 -0.0270491 0)
(10.0563 -0.0268208 0)
(10.064 -0.0262947 0)
(10.0717 -0.0254975 0)
(10.0793 -0.024531 0)
(10.0867 -0.0234991 0)
(10.0939 -0.0224571 0)
(10.1008 -0.0214176 0)
(10.1077 -0.020381 0)
(10.1145 -0.0193555 0)
(10.1213 -0.0183072 0)
(9.99862 -4.16963e-05 0)
(9.99944 -0.0148416 0)
(10.0087 -0.025747 0)
(10.0189 -0.0302527 0)
(10.0275 -0.0321116 0)
(10.0362 -0.0327264 0)
(10.0451 -0.0325654 0)
(10.0537 -0.0321544 0)
(10.0617 -0.0317015 0)
(10.0696 -0.0311312 0)
(10.0773 -0.0303994 0)
(10.0846 -0.0295649 0)
(10.0916 -0.0287171 0)
(10.0982 -0.0278856 0)
(10.1046 -0.0270676 0)
(10.1108 -0.02625 0)
(10.1168 -0.0254341 0)
(10.1227 -0.0245713 0)
(9.99497 0.001642 0)
(9.99334 -0.00750372 0)
(10.0072 -0.0191269 0)
(10.0223 -0.0303572 0)
(10.0342 -0.0381502 0)
(10.0447 -0.0414825 0)
(10.0542 -0.0418837 0)
(10.0624 -0.0411571 0)
(10.0695 -0.0401037 0)
(10.0761 -0.0388589 0)
(10.0821 -0.0374768 0)
(10.0875 -0.0360557 0)
(10.0923 -0.0347096 0)
(10.0965 -0.033497 0)
(10.1004 -0.0324041 0)
(10.1041 -0.0313954 0)
(10.1075 -0.0304572 0)
(10.1108 -0.0294963 0)
(9.99477 -0.0304579 0)
(9.99983 -0.0222815 0)
(10.0158 -0.00202081 0)
(10.0324 -0.000762562 0)
(10.0465 -0.00987456 0)
(10.0582 -0.0186986 0)
(10.0663 -0.024677 0)
(10.0707 -0.0286099 0)
(10.0725 -0.0311415 0)
(10.0728 -0.0325376 0)
(10.0718 -0.0330365 0)
(10.0697 -0.0329156 0)
(10.0667 -0.0324424 0)
(10.0631 -0.031851 0)
(10.0591 -0.0312322 0)
(10.055 -0.0306236 0)
(10.0509 -0.0300906 0)
(10.0468 -0.0295213 0)
(10.0272 -0.182911 0)
(10.0766 -0.288094 0)
(10.0877 -0.247337 0)
(10.0792 -0.186117 0)
(10.0687 -0.139739 0)
(10.0576 -0.10719 0)
(10.0422 -0.0843198 0)
(10.022 -0.0684652 0)
(9.99899 -0.0575111 0)
(9.97457 -0.0496248 0)
(9.94975 -0.0436622 0)
(9.92478 -0.0389151 0)
(9.90004 -0.0350433 0)
(9.87584 -0.0318508 0)
(9.85258 -0.0292039 0)
(9.83037 -0.027056 0)
(9.80942 -0.0253384 0)
(9.7899 -0.0244055 0)
(9.93593 0.689633 0)
(9.86904 0.609716 0)
(9.76666 0.381626 0)
(9.63038 0.218244 0)
(9.49183 0.11975 0)
(9.36626 0.0637052 0)
(9.25515 0.0323885 0)
(9.15708 0.0147373 0)
(9.07108 0.00457165 0)
(8.99645 -0.00140334 0)
(8.93134 -0.00489196 0)
(8.87432 -0.00690554 0)
(8.82378 -0.00798992 0)
(8.77897 -0.0085445 0)
(8.73893 -0.00881478 0)
(8.70315 -0.00893093 0)
(8.67061 -0.00899418 0)
(8.64098 -0.00945618 0)
(0.101342 -0.102614 -1.90631e-19)
(0.175054 -0.199719 1.08319e-19)
(0.286669 -0.222581 0)
(0.435378 -0.198016 0)
(0.543633 -0.163658 0)
(0.619885 -0.124357 -1.00624e-19)
(0.665986 -0.084067 0)
(0.684062 -0.0441252 0)
(0.672266 -0.00838763 0)
(0.638937 0.01788 0)
(0.592224 0.0321808 1.14282e-19)
(0.541306 0.0346065 0)
(0.490361 0.029836 0)
(0.439591 0.0199531 0)
(0.38572 0.00625259 0)
(0.321273 -0.00244651 1.59052e-19)
(0.242202 0.000667122 0)
(0.141118 0.0210148 0)
(0.0314641 0.0565355 0)
(-0.105219 0.10062 0)
(-0.273129 0.142255 0)
(-0.462323 0.176685 0)
(-0.665962 0.20334 0)
(-0.880066 0.222277 6.03723e-20)
(-1.10021 0.233795 -5.22665e-20)
(-1.32272 0.239096 4.646e-20)
(-1.54376 0.239064 4.22483e-20)
(-1.76089 0.235072 0)
(-1.97182 0.228266 0)
(-2.17525 0.219624 -3.51352e-20)
(-2.37009 0.209917 -3.38548e-20)
(-2.55599 0.199674 0)
(-2.73264 0.189343 0)
(-2.90022 0.179128 -3.16243e-20)
(-3.05883 0.169242 0)
(-3.20896 0.159672 0)
(-3.35091 0.150523 3.07106e-20)
(-3.48519 0.141679 0)
(-3.6121 0.133211 3.04541e-20)
(-3.73207 0.124951 6.07769e-20)
(-3.84531 0.116976 0)
(-3.95211 0.109109 0)
(-4.05255 0.101435 0)
(-4.14681 0.0937795 0)
(-4.23482 0.0862822 0)
(-4.31666 0.0788075 6.11926e-20)
(-4.39217 0.0715523 6.14506e-20)
(-4.46135 0.0643334 6.17615e-20)
(-4.52392 0.0572545 0)
(-4.5798 0.0500915 -6.25767e-20)
(-4.62857 0.043079 0)
(-4.67004 0.0359733 6.36273e-20)
(-4.70375 0.0288934 6.42227e-20)
(-4.72941 0.022071 0)
(-4.74693 0.0160183 0)
(-4.75639 0.00969599 0)
(-4.75855 0.00331288 6.64568e-20)
(-4.75393 -0.00232114 0)
(-4.74277 -0.00744146 0)
(-4.72508 -0.0131998 0)
(-4.70078 -0.0188359 0)
(-4.66982 -0.0241484 0)
(-4.63221 -0.0296928 0)
(-4.58818 -0.0346552 0)
(-4.53813 -0.0387427 0)
(-4.48183 -0.045163 -6.50134e-20)
(-4.41901 -0.0513888 0)
(-4.35006 -0.0570881 0)
(-4.27536 -0.0610347 6.10755e-20)
(-4.19617 -0.0623188 5.93389e-20)
(-4.11253 -0.0660547 0)
(-4.02368 -0.0734685 -5.52231e-20)
(-3.92946 -0.0769047 5.26019e-20)
(-3.83267 -0.0766133 0)
(-3.73214 -0.0827992 -4.69459e-20)
(-3.62732 -0.0854469 0)
(-3.52076 -0.084289 0)
(-3.41233 -0.0849432 3.65083e-20)
(-3.30245 -0.0872724 0)
(-3.19038 -0.0878807 -2.86948e-20)
(-3.07851 -0.0873965 0)
(-2.96524 -0.0891712 2.02491e-20)
(-2.85256 -0.0865897 1.5716e-20)
(-2.74066 -0.0870144 1.11029e-20)
(-2.62782 -0.0872319 1.25121e-20)
(-2.51671 -0.0858635 -2.60139e-21)
(-2.40556 -0.0853718 0)
(-2.2971 -0.0839516 0)
(-2.18937 -0.0832772 0)
(-2.08488 -0.0815536 4.01009e-20)
(-1.98049 -0.0816735 5.16524e-20)
(-1.87725 -0.0798583 -6.36287e-20)
(-1.77519 -0.0783883 0)
(-1.67478 -0.0768123 8.90582e-20)
(-1.57618 -0.0753056 1.02589e-19)
(-1.47943 -0.0738502 1.16743e-19)
(-1.38448 -0.0724639 0)
(-1.29129 -0.0711289 0)
(-1.19982 -0.0698653 0)
(-1.11002 -0.0686713 1.81488e-19)
(-1.02179 -0.0675661 0)
(-0.935027 -0.066481 0)
(-0.849678 -0.0654962 -2.42291e-19)
(-0.765689 -0.0646105 0)
(-0.683137 -0.0638758 0)
(-0.602094 -0.0632331 -3.20015e-19)
(-0.522585 -0.0627922 0)
(-0.444575 -0.0624926 0)
(-0.367946 -0.0623652 4.2394e-19)
(-0.292612 -0.0622785 4.67241e-19)
(-0.218445 -0.0624049 0)
(-0.145317 -0.062641 -5.73475e-19)
(-0.0734811 -0.0628099 0)
(-0.00163224 -0.0617936 6.44846e-19)
(0.0706814 -0.0595846 0)
(0.142003 -0.0570716 5.71259e-19)
(0.212316 -0.0546649 5.42426e-19)
(0.281398 -0.0523963 0)
(0.349173 -0.0503584 0)
(0.415545 -0.0483229 0)
(0.480749 -0.046269 0)
(0.545063 -0.0443169 0)
(0.608538 -0.0427207 0)
(0.671013 -0.0413312 0)
(0.732046 -0.0398031 4.078e-19)
(0.791732 -0.0380102 -3.9726e-19)
(0.850218 -0.0364639 0)
(0.90737 -0.0351746 0)
(0.963317 -0.0341267 0)
(1.01833 -0.0335942 0)
(1.07204 -0.0331603 -7.13981e-19)
(1.12443 -0.0320788 0)
(1.17588 -0.0307842 6.88923e-19)
(1.22639 -0.0297793 -6.77764e-19)
(1.27568 -0.029246 0)
(1.32339 -0.0285342 0)
(1.3696 -0.0271768 0)
(1.41467 -0.0256248 6.39359e-19)
(1.4585 -0.0246462 6.30897e-19)
(1.50058 -0.0239181 0)
(1.54109 -0.0231147 6.15258e-19)
(1.58033 -0.0223709 6.07923e-19)
(1.61821 -0.021769 -6.0064e-19)
(1.6544 -0.0208631 0)
(1.68817 -0.0188942 0)
(1.71888 -0.0166651 -5.83624e-19)
(1.74615 -0.015441 0)
(1.77029 -0.0158817 0)
(1.79014 -0.0158037 0)
(1.80663 -0.0141699 0)
(1.82039 -0.012007 5.97977e-19)
(1.83318 -0.00980616 6.05454e-19)
(1.84507 -0.00940901 0)
(1.85816 -0.0131368 6.19608e-19)
(1.87776 -0.02764 0)
(1.90319 -0.0286967 0)
(1.93825 -0.0126761 6.20793e-19)
(1.97003 0.0394721 0)
(2.01023 0.0577678 5.2891e-19)
(2.04592 0.0279152 0)
(2.08297 0.0110141 0)
(2.1167 0.0011297 5.04632e-19)
(2.14657 -0.00466142 0)
(2.17281 -0.00805196 5.04363e-19)
(2.19581 -0.00988795 0)
(2.21614 -0.0106856 0)
(2.23428 -0.0108653 0)
(2.2507 -0.0107024 -5.02625e-19)
(2.26559 -0.010231 0)
(2.27911 -0.00949944 5.01126e-19)
(2.29144 -0.00870431 0)
(2.30283 -0.00788105 0)
(2.31309 -0.00686148 0)
(2.32215 -0.00588855 0)
(2.32961 -0.00415988 0)
(2.33333 -0.0016267 0)
(2.33147 0.00147815 0)
(2.31615 0.00642978 -9.97525e-19)
(2.2907 0.0164922 0)
(2.18147 0.031046 0)
(0.0861139 -0.387614 4.53698e-19)
(0.193443 -0.444935 -2.69322e-19)
(0.280659 -0.402216 0)
(0.342475 -0.327816 1.24559e-19)
(0.382715 -0.243677 0)
(0.402735 -0.157996 5.77591e-20)
(0.405227 -0.0748537 -1.21082e-19)
(0.393487 0.00184783 -1.27586e-19)
(0.370988 0.0672766 0)
(0.333855 0.116245 -1.48297e-19)
(0.279663 0.144411 -8.11151e-20)
(0.20503 0.154298 0)
(0.105205 0.159439 0)
(-0.0137817 0.180153 0)
(-0.158013 0.223943 0)
(-0.33344 0.282979 -6.33049e-20)
(-0.534749 0.349381 0)
(-0.754277 0.416644 9.07202e-20)
(-0.985788 0.478557 0)
(-1.22454 0.529542 0)
(-1.46275 0.566519 -6.08824e-20)
(-1.69519 0.589072 0)
(-1.9186 0.598484 5.06181e-20)
(-2.13063 0.59674 -2.36175e-20)
(-2.32967 0.585734 2.22321e-20)
(-2.51473 0.567824 -2.11816e-20)
(-2.68594 0.54511 -2.04115e-20)
(-2.84404 0.519188 0)
(-2.98979 0.491485 0)
(-3.12427 0.463139 1.9283e-20)
(-3.24849 0.435035 -1.97112e-20)
(-3.36353 0.407749 0)
(-3.47031 0.381728 0)
(-3.5697 0.357141 1.92e-20)
(-3.6624 0.334134 0)
(-3.74906 0.312606 0)
(-3.83017 0.292555 -1.95152e-20)
(-3.90616 0.273746 0)
(-3.97733 0.256126 1.97185e-20)
(-4.04394 0.239408 -3.98134e-20)
(-4.10615 0.223548 0)
(-4.16406 0.208256 0)
(-4.21774 0.193512 -8.08701e-20)
(-4.26722 0.179031 -8.13914e-20)
(-4.31253 0.164843 -8.19304e-20)
(-4.35364 0.150691 4.11091e-20)
(-4.39061 0.136661 -4.1667e-20)
(-4.42341 0.12252 -1.25681e-19)
(-4.45211 0.10839 8.43649e-20)
(-4.47674 0.0940506 4.25991e-20)
(-4.49745 0.0797144 0)
(-4.51434 0.0652294 -4.32703e-20)
(-4.52756 0.0509036 4.3438e-20)
(-4.53715 0.0366324 0)
(-4.54298 0.0227673 0)
(-4.54492 0.00923267 0)
(-4.542 -0.00375486 -4.46784e-20)
(-4.53331 -0.0165716 0)
(-4.5184 -0.0290685 8.97379e-20)
(-4.49714 -0.0415744 0)
(-4.46952 -0.0538766 8.95928e-20)
(-4.43545 -0.0661669 0)
(-4.39495 -0.0782473 -8.81814e-20)
(-4.34788 -0.0900306 0)
(-4.29414 -0.101345 8.60264e-20)
(-4.23409 -0.112388 -4.27762e-20)
(-4.16835 -0.122881 0)
(-4.09692 -0.132885 -8.09229e-20)
(-4.02006 -0.142074 -3.87018e-20)
(-3.93746 -0.150638 -3.74677e-20)
(-3.84946 -0.15842 0)
(-3.75738 -0.165434 -3.6196e-20)
(-3.6618 -0.171461 -3.27479e-20)
(-3.56171 -0.176353 0)
(-3.45822 -0.180627 2.88591e-20)
(-3.35303 -0.184245 -5.53641e-20)
(-3.24499 -0.186829 0)
(-3.13465 -0.188595 -2.22498e-20)
(-3.02309 -0.189744 0)
(-2.91076 -0.189982 5.47295e-20)
(-2.79768 -0.1897 0)
(-2.68438 -0.188468 -4.01675e-20)
(-2.57124 -0.186903 -1.01791e-20)
(-2.45805 -0.184858 9.69959e-21)
(-2.34576 -0.182572 1.4159e-20)
(-2.23433 -0.179832 -8.91269e-21)
(-2.12387 -0.176909 0)
(-2.01493 -0.173796 0)
(-1.90785 -0.170697 0)
(-1.8028 -0.16765 -4.47613e-20)
(-1.6991 -0.164153 -2.14695e-20)
(-1.59672 -0.160406 2.67929e-20)
(-1.49549 -0.156446 0)
(-1.3958 -0.152441 3.39454e-20)
(-1.29775 -0.148469 -4.29125e-20)
(-1.2014 -0.144606 -4.83429e-20)
(-1.10672 -0.140847 0)
(-1.01368 -0.137214 0)
(-0.922234 -0.133695 0)
(-0.832321 -0.130308 -7.05614e-20)
(-0.743866 -0.127035 0)
(-0.656775 -0.123872 1.61017e-19)
(-0.570965 -0.120834 2.60872e-19)
(-0.486423 -0.117907 -1.84958e-19)
(-0.403161 -0.115143 0)
(-0.321199 -0.112526 -1.03457e-19)
(-0.24053 -0.110119 0)
(-0.161092 -0.107925 -2.36278e-19)
(-0.0828181 -0.10598 1.23302e-19)
(-0.00533802 -0.104272 1.27376e-19)
(0.0713698 -0.102789 0)
(0.147041 -0.101427 3.9575e-19)
(0.221755 -0.100177 -2.65412e-19)
(0.295181 -0.098517 -1.35198e-19)
(0.366945 -0.0962702 0)
(0.43728 -0.0937073 -1.37772e-19)
(0.506522 -0.0910769 -4.14935e-19)
(0.574626 -0.0884399 0)
(0.641524 -0.0858563 -2.80844e-19)
(0.707333 -0.0832963 -2.83198e-19)
(0.772194 -0.0808076 -2.85479e-19)
(0.83617 -0.0783974 0)
(0.899173 -0.0761108 0)
(0.961005 -0.0738755 0)
(1.02168 -0.0716433 1.45998e-19)
(1.0812 -0.069387 1.48459e-19)
(1.13944 -0.067305 0)
(1.1965 -0.0653282 2.98547e-19)
(1.25237 -0.0634206 3.00072e-19)
(1.30702 -0.0615561 0)
(1.36059 -0.0597132 3.03858e-19)
(1.41309 -0.0577435 6.06906e-19)
(1.46446 -0.0558664 -3.05562e-19)
(1.51457 -0.0540724 -3.03961e-19)
(1.56339 -0.0523092 0)
(1.611 -0.0504183 0)
(1.65741 -0.0484546 0)
(1.70246 -0.0465948 -3.08305e-19)
(1.74603 -0.0449414 3.06314e-19)
(1.78811 -0.043244 6.145e-19)
(1.82869 -0.0413853 -3.07803e-19)
(1.86783 -0.0394481 3.05316e-19)
(1.90544 -0.0373881 3.06005e-19)
(1.94129 -0.0349774 0)
(1.97511 -0.0319719 0)
(2.00683 -0.0286894 -3.00612e-19)
(2.03646 -0.0252854 0)
(2.06383 -0.0218965 0)
(2.08926 -0.0187632 6.14297e-19)
(2.1132 -0.0160145 0)
(2.13574 -0.0141803 3.20398e-19)
(2.15744 -0.0135539 -3.31674e-19)
(2.1795 -0.0138324 0)
(2.20296 -0.0150664 3.55343e-19)
(2.2268 -0.0172226 0)
(2.24952 -0.0237943 0)
(2.26925 -0.0345102 -3.94702e-19)
(2.29077 -0.0448838 7.94538e-19)
(2.30628 -0.042013 -3.62184e-19)
(2.32352 -0.0346227 0)
(2.34059 -0.0286053 0)
(2.35929 -0.0239835 3.49082e-19)
(2.37854 -0.0204155 0)
(2.39745 -0.0176585 3.51762e-19)
(2.4156 -0.0154522 0)
(2.43287 -0.013639 0)
(2.44921 -0.0121209 0)
(2.46472 -0.0108654 3.55512e-19)
(2.47932 -0.00977273 0)
(2.49304 -0.00881672 -3.55678e-19)
(2.50601 -0.00805038 0)
(2.51821 -0.0073031 0)
(2.52962 -0.00645088 7.07454e-19)
(2.53976 -0.00544978 -7.04381e-19)
(2.54809 -0.00391019 0)
(2.55466 -0.00140606 0)
(2.55937 0.0029795 0)
(2.55868 0.0109274 2.09227e-18)
(2.55816 0.028319 0)
(2.53453 0.0577976 -1.3996e-18)
(0.0460012 -0.627432 1.67596e-21)
(0.0992824 -0.603625 2.90792e-19)
(0.122894 -0.492253 0)
(0.128741 -0.372294 -2.06916e-19)
(0.120838 -0.253724 0)
(0.0988946 -0.139826 0)
(0.0630438 -0.0329873 -2.27335e-22)
(0.0135534 0.0658845 1.04908e-19)
(-0.050255 0.156758 1.02042e-19)
(-0.130972 0.239349 9.79849e-20)
(-0.232725 0.314066 0)
(-0.360559 0.384894 0)
(-0.517427 0.458298 -7.72304e-20)
(-0.700246 0.539378 -1.38494e-19)
(-0.901283 0.62651 1.23876e-19)
(-1.112 0.711414 0)
(-1.32478 0.786071 1.01232e-19)
(-1.53252 0.84617 -4.70988e-20)
(-1.72992 0.89013 0)
(-1.91357 0.917259 8.01368e-20)
(-2.08143 0.927751 3.75144e-20)
(-2.23344 0.923226 -7.11966e-20)
(-2.37074 0.905884 -3.32719e-20)
(-2.49495 0.878398 0)
(-2.60788 0.843408 6.28509e-20)
(-2.71162 0.803386 6.11721e-20)
(-2.80791 0.760543 0)
(-2.89819 0.71667 5.90193e-20)
(-2.9836 0.673105 0)
(-3.06512 0.630801 5.78844e-20)
(-3.14343 0.590387 2.81018e-20)
(-3.21905 0.552218 0)
(-3.29227 0.51646 0)
(-3.36332 0.483097 0)
(-3.43228 0.452037 0)
(-3.49921 0.423081 0)
(-3.5641 0.396033 0)
(-3.6269 0.370633 5.80108e-20)
(-3.68757 0.34667 -8.73404e-20)
(-3.74601 0.323888 0)
(-3.80213 0.302104 0)
(-3.85582 0.281089 0)
(-3.90696 0.260699 1.56946e-22)
(-3.95541 0.240744 6.00639e-20)
(-4.00103 0.221128 1.20715e-19)
(-4.04368 0.201704 -1.21528e-19)
(-4.08322 0.182418 -6.10755e-20)
(-4.11948 0.163143 6.17261e-20)
(-4.1523 0.143855 -1.96671e-22)
(-4.18151 0.124455 6.2442e-20)
(-4.20691 0.104974 0)
(-4.22827 0.0853533 6.33992e-20)
(-4.2453 0.0656464 -1.0672e-22)
(-4.25767 0.0457823 0)
(-4.265 0.0257772 0)
(-4.267 0.00550122 -6.50001e-20)
(-4.26339 -0.0149708 0)
(-4.25392 -0.0355647 0)
(-4.23838 -0.0561018 6.55516e-20)
(-4.21663 -0.0765877 1.30485e-19)
(-4.18856 -0.0968643 -6.46229e-20)
(-4.15409 -0.116881 0)
(-4.1132 -0.136482 6.34585e-20)
(-4.06576 -0.15557 0)
(-4.01194 -0.173982 6.31811e-20)
(-3.95186 -0.191804 6.04806e-20)
(-3.88583 -0.20867 -1.20225e-19)
(-3.81397 -0.22447 -5.97484e-20)
(-3.73663 -0.238983 0)
(-3.65394 -0.252359 1.10307e-19)
(-3.56646 -0.264545 0)
(-3.47461 -0.275463 1.50935e-19)
(-3.37894 -0.284768 9.65095e-20)
(-3.27951 -0.292424 9.12026e-20)
(-3.17714 -0.298684 -8.53766e-20)
(-3.0723 -0.303572 1.17706e-19)
(-2.96513 -0.306972 0)
(-2.85617 -0.309087 0)
(-2.74592 -0.31013 -6.02436e-20)
(-2.6349 -0.309908 -7.89122e-20)
(-2.52333 -0.308719 0)
(-2.41166 -0.306495 1.85789e-20)
(-2.30018 -0.303385 0)
(-2.18909 -0.299612 -3.73565e-20)
(-2.07889 -0.29525 2.51038e-21)
(-1.9696 -0.290363 -2.46732e-21)
(-1.86154 -0.285073 4.52469e-21)
(-1.75487 -0.279537 0)
(-1.65011 -0.273812 9.4255e-21)
(-1.54717 -0.268056 2.2634e-21)
(-1.44581 -0.262036 0)
(-1.34571 -0.255738 0)
(-1.24693 -0.249254 0)
(-1.14963 -0.242722 -4.54069e-20)
(-1.05388 -0.236245 0)
(-0.959732 -0.229902 0)
(-0.867157 -0.22372 0)
(-0.776124 -0.217725 0)
(-0.686584 -0.211917 0)
(-0.598489 -0.206311 -8.24707e-20)
(-0.511762 -0.200879 0)
(-0.426325 -0.195629 -9.7252e-20)
(-0.342107 -0.190535 -1.03698e-19)
(-0.259088 -0.185633 1.10169e-19)
(-0.177261 -0.180935 0)
(-0.0966279 -0.176506 1.23242e-19)
(-0.0170543 -0.172365 0)
(0.061459 -0.168538 1.31865e-19)
(0.138808 -0.164953 -1.35116e-19)
(0.215006 -0.161529 -4.11347e-19)
(0.290041 -0.158183 0)
(0.363932 -0.154923 -4.29029e-19)
(0.436696 -0.151708 -1.43766e-19)
(0.508244 -0.148544 0)
(0.578503 -0.145334 -3.01725e-19)
(0.647576 -0.142002 -3.07231e-19)
(0.715538 -0.138591 4.70366e-19)
(0.782379 -0.135182 0)
(0.848096 -0.131783 1.62908e-19)
(0.912736 -0.128392 1.65446e-19)
(0.976394 -0.125033 5.01435e-19)
(1.03909 -0.121711 0)
(1.10077 -0.118463 0)
(1.1613 -0.115272 0)
(1.22065 -0.112069 1.75315e-19)
(1.27876 -0.108908 0)
(1.33567 -0.105851 0)
(1.39137 -0.102856 -1.83877e-19)
(1.44585 -0.0999586 -1.85889e-19)
(1.49914 -0.0970996 0)
(1.55121 -0.0942225 0)
(1.60206 -0.0913415 -3.81837e-19)
(1.65172 -0.0885334 0)
(1.70022 -0.0857949 3.87357e-19)
(1.74753 -0.0830323 3.88316e-19)
(1.79358 -0.0801547 0)
(1.83836 -0.0772494 0)
(1.88186 -0.0744334 -3.9345e-19)
(1.92402 -0.0716648 -1.27743e-21)
(1.96475 -0.068816 -1.21921e-21)
(2.00404 -0.0658499 0)
(2.04199 -0.0627517 -7.90681e-19)
(2.07851 -0.0594193 0)
(2.11344 -0.0557343 0)
(2.14684 -0.0516047 0)
(2.17872 -0.047106 3.89537e-19)
(2.20916 -0.0427045 0)
(2.23834 -0.0384381 -7.76327e-19)
(2.26643 -0.0343649 -3.92267e-19)
(2.29346 -0.031101 0)
(2.31963 -0.0290557 -4.09199e-19)
(2.34514 -0.0284669 0)
(2.37073 -0.0293118 0)
(2.39633 -0.0312272 -1.39488e-18)
(2.42107 -0.0343585 9.80729e-19)
(2.4439 -0.036195 0)
(2.46372 -0.0368687 1.08159e-18)
(2.4831 -0.0363222 -5.60631e-19)
(2.50031 -0.0357383 0)
(2.51588 -0.036369 0)
(2.52965 -0.0351509 0)
(2.54351 -0.0329238 -1.69151e-18)
(2.55782 -0.0303862 0)
(2.57235 -0.0278289 -5.7406e-19)
(2.58683 -0.0253928 0)
(2.60112 -0.0231868 0)
(2.61508 -0.0212404 0)
(2.62869 -0.0195321 0)
(2.64187 -0.0180236 0)
(2.65466 -0.0166798 0)
(2.66704 -0.0154747 -1.17025e-18)
(2.67878 -0.0141622 0)
(2.68994 -0.0126723 -5.8271e-19)
(2.69983 -0.0109071 1.74189e-18)
(2.70818 -0.00836538 0)
(2.7149 -0.00472411 0)
(2.71938 0.00107616 -1.1576e-18)
(2.71936 0.0110965 -1.14897e-18)
(2.71871 0.0303972 1.1389e-18)
(2.70556 0.0661263 1.14719e-18)
(-0.00881785 -0.689859 -5.90023e-19)
(-0.00892206 -0.593521 -3.69451e-19)
(-0.0397229 -0.460239 -1.93023e-19)
(-0.0843184 -0.317199 -8.49081e-20)
(-0.138422 -0.174028 0)
(-0.203506 -0.0343209 1.54875e-19)
(-0.28151 0.100782 -7.34221e-20)
(-0.374009 0.231196 0)
(-0.482305 0.357335 -6.79793e-20)
(-0.607427 0.479624 0)
(-0.749892 0.598105 1.16458e-19)
(-0.90849 0.712273 0)
(-1.07944 0.82037 4.99946e-20)
(-1.25636 0.918925 9.20524e-20)
(-1.43167 1.00402 -8.50714e-20)
(-1.59859 1.0722 0)
(-1.75259 1.12161 -7.34826e-20)
(-1.89144 1.15205 0)
(-2.01471 1.16457 0)
(-2.12325 1.16086 -6.07749e-20)
(-2.21899 1.14307 0)
(-2.3043 1.11392 -1.17587e-21)
(-2.38149 1.07614 0)
(-2.45281 1.03234 0)
(-2.52014 0.984842 1.51584e-21)
(-2.58507 0.935611 -4.88614e-20)
(-2.64866 0.886101 -4.95518e-20)
(-2.71165 0.837399 -4.75475e-20)
(-2.77449 0.790282 0)
(-2.83741 0.745248 -9.50292e-20)
(-2.90045 0.702566 0)
(-2.96356 0.66233 -4.77007e-20)
(-3.0266 0.624509 0)
(-3.08939 0.588976 0)
(-3.15171 0.555552 4.76773e-20)
(-3.21335 0.524015 0)
(-3.2741 0.494135 -4.79145e-20)
(-3.33375 0.465666 3.01021e-22)
(-3.39209 0.438381 9.63551e-20)
(-3.44894 0.412054 -9.70581e-20)
(-3.50409 0.386482 0)
(-3.55735 0.361467 0)
(-3.60853 0.336841 -4.94249e-20)
(-3.65741 0.312445 0)
(-3.70379 0.28815 -5.00325e-20)
(-3.74745 0.263829 5.04142e-20)
(-3.78816 0.239382 5.08086e-20)
(-3.82571 0.214711 0)
(-3.85984 0.189749 -5.16412e-20)
(-3.89029 0.164427 -5.20743e-20)
(-3.91679 0.138714 1.05086e-19)
(-3.93906 0.112577 -5.29446e-20)
(-3.95679 0.0860182 -5.33658e-20)
(-3.96964 0.0590158 0)
(-3.97733 0.0315844 0)
(-3.97963 0.00373758 5.42628e-20)
(-3.9763 -0.0244504 0)
(-3.96713 -0.0528685 0)
(-3.95195 -0.0813591 -1.08806e-19)
(-3.93058 -0.109805 -1.08556e-19)
(-3.9029 -0.138056 0)
(-3.86881 -0.165968 0)
(-3.82826 -0.193369 0)
(-3.78126 -0.220074 0)
(-3.72789 -0.245867 -1.03538e-19)
(-3.66826 -0.27061 1.03472e-19)
(-3.60259 -0.294082 9.94726e-20)
(-3.53116 -0.316054 1.95959e-19)
(-3.45416 -0.336254 0)
(-3.37201 -0.354656 2.09989e-21)
(-3.2851 -0.371378 0)
(-3.19385 -0.386165 -8.33343e-20)