/*--------------------------------*- C++ -*----------------------------------*\
  =========                 |
  \\      /  F ield         | OpenFOAM: The Open Source CFD Toolbox
   \\    /   O peration     | Website:  https://openfoam.org
    \\  /    A nd           | Version:  8
     \\/     M anipulation  |
\*---------------------------------------------------------------------------*/
FoamFile
{
    version     2.0;
    format      ascii;
    class       volScalarField;
    location    "50";
    object      epsilon;
}
// * * * * * * * * * * * * * * * * * * * * * * * * * * * * * * * * * * * * * //

dimensions      [0 2 -3 0 0 0 0];

internalField   nonuniform List<scalar> 
12225
(
285.459
270.81
257.854
243.926
232.434
223.242
216.839
212.924
213.046
214.372
218.013
221.884
229.653
234.696
244.025
250.186
261.077
265.818
52.503
91.8669
107.091
114.831
125.201
137.126
153.582
170.901
193.081
213.234
239.025
260.076
287.874
307.506
336.336
353.781
384.065
406.903
20.5358
34.837
44.7324
50.4431
55.5387
59.635
64.9682
69.812
76.9882
83.8201
92.7953
100.783
110.605
119.939
129.789
141.167
150.052
166.11
15.9978
19.4718
24.1171
27.5393
30.5661
32.8623
35.2871
37.3354
39.7363
42.0963
44.7561
47.656
50.4125
53.9975
56.7007
61.1087
63.7905
69.469
15.0376
15.7067
17.4163
19.0625
20.6715
22.0206
23.3021
24.454
25.5352
26.6781
27.677
28.9507
29.8999
31.3655
32.2917
33.9717
34.943
37.0229
14.7896
14.8251
15.2504
15.8619
16.5825
17.2854
17.9466
18.5989
19.1571
19.7789
20.2595
20.8934
21.3271
21.9979
22.4125
23.1385
23.5552
24.4329
14.7659
14.6144
14.6409
14.7239
14.9401
15.2195
15.4996
15.8169
16.0864
16.4059
16.6485
16.9679
17.1887
17.5139
17.7217
18.0656
18.2635
18.6755
14.7689
14.5863
14.4664
14.3789
14.3683
14.39
14.4406
14.5364
14.6234
14.7467
14.8437
14.9786
15.0749
15.2184
15.3131
15.4686
15.5599
15.7533
14.7683
14.5908
14.4351
14.2957
14.1844
14.1038
14.039
14.0067
13.9813
13.9812
13.9847
13.9989
14.0142
14.0471
14.0692
14.1154
14.1437
14.2151
14.7667
14.594
14.4321
14.2817
14.1423
14.021
13.91
13.8178
13.735
13.6683
13.6091
13.5632
13.5196
13.4908
13.4593
13.4452
13.4222
13.4272
14.766
14.5946
14.4322
14.2801
14.1357
14.0023
13.8768
13.7625
13.6558
13.56
13.4705
13.392
13.317
13.2537
13.1907
13.1417
13.0877
13.0534
14.7658
14.5944
14.4322
14.2797
14.135
13.9992
13.8703
13.7501
13.6362
13.5308
13.4307
13.3392
13.2516
13.1729
13.0964
13.0298
12.9628
12.9076
14.7657
14.5942
14.4321
14.2794
14.1348
13.9984
13.869
13.7471
13.6313
13.5226
13.4189
13.3223
13.2298
13.1442
13.0619
12.9866
12.9136
12.8477
14.7657
14.594
14.432
14.2791
14.1346
13.998
13.8686
13.7463
13.6302
13.5205
13.4162
13.3176
13.224
13.1356
13.0516
12.9725
12.8974
12.8267
14.7657
14.5939
14.4319
14.2788
14.1343
13.9976
13.8683
13.7459
13.6299
13.5199
13.4157
13.3167
13.223
13.134
13.0497
12.9698
12.8939
12.8222
14.7657
14.5939
14.4317
14.2786
14.134
13.9974
13.868
13.7457
13.6296
13.5198
13.4155
13.3168
13.223
13.1342
13.0498
12.97
12.894
12.8222
14.7657
14.5937
14.4316
14.2784
14.1339
13.9971
13.8678
13.7455
13.6296
13.5198
13.4157
13.317
13.2235
13.1347
13.0505
12.9706
12.8949
12.8229
14.7657
14.5937
14.4315
14.2783
14.1337
13.997
13.8678
13.7454
13.6297
13.5199
13.416
13.3174
13.2241
13.1354
13.0514
12.9715
12.8959
12.824
14.7657
14.5936
14.4315
14.2783
14.1337
13.997
13.8678
13.7456
13.6299
13.5204
13.4166
13.3181
13.2249
13.1364
13.0525
12.9728
12.8972
12.8253
14.7657
14.5936
14.4315
14.2783
14.1338
13.9972
13.8682
13.746
13.6305
13.521
13.4174
13.3191
13.226
13.1376
13.0538
12.9742
12.8986
12.8269
14.7657
14.5936
14.4315
14.2784
14.1341
13.9975
13.8686
13.7466
13.6312
13.5219
13.4185
13.3204
13.2276
13.1394
13.0559
12.9766
12.9015
12.83
14.7658
14.5936
14.4317
14.2786
14.1344
13.998
13.8695
13.7479
13.6332
13.5247
13.4224
13.3255
13.2343
13.1477
13.0663
12.9889
12.9161
12.8467
14.7659
14.5935
14.4318
14.2789
14.1357
14.0009
13.8753
13.7575
13.6483
13.5461
13.4516
13.3629
13.2813
13.2042
13.1336
13.0661
13.0052
12.9456
14.7662
14.5926
14.433
14.2845
14.1519
14.0327
13.9297
13.8385
13.7604
13.6906
13.6318
13.5779
13.5335
13.4908
13.4572
13.4221
13.3972
13.3668
14.7643
14.5933
14.4612
14.3601
14.3031
14.2763
14.279
14.2929
14.3182
14.3497
14.3911
14.4281
14.4738
14.5106
14.5581
14.592
14.6414
14.67
14.7571
14.6916
14.7578
14.9156
15.1818
15.4582
15.7433
16.0053
16.2625
16.4906
16.7182
16.916
17.1217
17.2956
17.488
17.6426
17.8288
17.9661
14.9567
15.4328
16.571
17.6831
18.7013
19.5579
20.3235
20.9766
21.5903
22.1288
22.6679
23.1489
23.6592
24.1086
24.6143
25.0434
25.5583
25.9721
16.2506
20.936
25.0199
27.7486
29.7774
31.3346
32.7401
34.0022
35.2745
36.5076
37.821
39.1107
40.508
41.8527
43.3347
44.7217
46.3203
47.7077
29.9433
47.1992
54.854
58.6246
61.5509
64.3182
67.4064
70.7318
74.3814
78.2502
82.3553
86.561
90.8921
95.2394
99.607
103.919
108.149
112.316
165.783
160.084
154.886
149.58
144.462
139.705
135.578
132.131
129.209
126.956
125.218
123.959
123.166
122.643
122.545
122.653
122.864
123.404
26.6392
8.14843
8.73581
38.1107
39.6647
40.3304
40.1691
38.6655
39.2403
39.8579
44.8597
48.2482
50.1635
48.7969
50.0995
52.3019
54.5426
50.5735
47.6257
49.3588
58.1195
74.7032
97.275
124.18
155.318
187.968
220.932
253.908
286.519
318.749
350.393
381.691
412.286
442.659
472.28
501.843
530.607
559.47
587.48
615.708
643.015
670.63
697.259
724.269
750.22
776.58
801.725
827.214
851.32
875.789
898.794
922.26
944.094
966.366
986.8
1007.63
1027.09
1047
1064.61
1083.04
1099.19
1118.3
1137.05
1150.75
1164.45
1181.72
1186.73
1197.62
1198.48
1196.45
1177.96
1185.26
1188.79
1200.97
1191.61
1156.96
1162.93
1120.38
1122.29
1063.97
1060.34
1039.46
1021.95
1003.25
986.8
968.661
952.579
939.226
885.694
865.101
832.187
808.243
784.844
761.671
738.625
716.218
694.149
672.663
651.645
631.216
611.283
591.919
573.081
554.643
535.703
517.75
500.534
483.981
468.116
452.825
438.093
423.846
410.126
396.903
384.309
373.142
364.784
357.47
350.482
343.584
336.782
330.055
323.491
317.05
310.748
304.475
298.408
292.334
286.392
280.732
274.656
268.322
262.005
255.782
249.768
243.894
238.177
232.498
226.911
221.421
216.088
210.943
205.999
201.246
196.687
192.354
188.221
184.244
180.365
176.473
172.443
168.011
163.191
157.257
150.837
142.416
133.626
122.719
112.335
101.421
92.7137
84.5676
80.5377
78.048
75.7017
75.1172
73.141
70.3991
16.1719
15.7109
15.3348
14.9544
14.6185
14.7767
14.6444
14.5105
14.6696
14.7346
14.8523
14.562
51.0489
41.5479
36.6289
33.2979
30.9832
29.3705
28.3301
27.8319
28.1108
30.2969
33.5697
37.8327
43.7547
51.4321
60.5495
71.14
83.0709
98.9618
116.575
135.123
153.802
171.319
185.824
198.509
210.038
220.461
230.302
240.019
247.666
254.86
261.94
269.056
276.201
283.495
290.855
298.385
305.952
313.666
321.365
329.169
336.902
344.698
352.374
360.073
367.602
375.11
382.4
389.627
396.604
403.512
410.158
416.72
422.995
429.189
435.103
440.966
446.614
452.23
457.671
463.282
468.956
475.095
480.849
485.986
490.987
495.924
500.006
504.464
505.369
505.1
501.529
504.052
505.361
507.333
499.9
496.712
496.276
483.643
480.335
472.425
468.338
462.007
455.755
448.998
441.97
434.294
426.15
416.976
404.52
395.614
385.132
375.748
366.056
356.225
346.521
336.998
327.648
318.513
309.583
300.888
292.406
284.16
276.121
268.279
260.535
253.087
245.909
238.996
232.32
225.875
219.629
213.579
207.712
202.039
196.592
191.501
186.951
182.736
178.695
174.758
170.896
167.101
163.381
159.742
156.18
152.681
149.256
145.889
142.57
139.345
135.976
132.534
129.077
125.651
122.278
118.95
115.681
112.454
109.263
106.123
103.049
100.053
97.1398
94.3164
91.5819
88.938
86.3801
83.8921
81.4474
79.0134
76.5371
73.9509
71.2365
68.2279
65.0219
61.3565
57.4339
53.0822
48.6555
44.191
40.2336
36.4064
33.7206
31.1388
29.3982
28.8003
26.4693
25.2463
17.8823
14.8816
13.4869
12.7288
12.2062
12.031
11.8638
11.9018
11.9169
11.8813
12.0546
12.8534
82.0439
57.5168
47.595
42.4249
39.3704
37.714
37.2668
38.001
40.2445
44.6738
51.9946
62.7937
77.3076
95.0022
114.657
132.821
147.159
156.491
163.066
168.629
173.786
178.805
184.193
188.865
192.88
196.862
200.78
204.477
209.528
215.438
221.59
227.967
234.467
241.042
247.611
254.152
260.606
266.973
273.208
279.329
285.302
291.153
296.856
302.443
307.891
313.235
318.457
323.595
328.632
333.61
338.513
343.382
348.2
353.015
357.812
362.637
367.471
372.353
377.265
382.24
387.231
392.215
397.023
401.637
406.061
410.218
413.972
417.3
419.848
421.896
423.472
425.206
425.998
427.013
425.79
424.468
422.396
418.526
415.306
411.074
406.773
401.628
395.976
389.769
383.051
375.796
368.042
359.748
350.906
342.506
333.878
325.403
316.904
308.43
300.061
291.829
283.759
275.869
268.172
260.678
253.387
246.304
239.419
232.729
226.209
219.883
213.795
207.926
202.255
196.772
191.458
186.309
181.312
176.474
171.805
167.346
163.139
159.142
155.292
151.553
147.898
144.321
140.818
137.395
134.045
130.766
127.554
124.408
121.319
118.297
115.283
112.274
109.282
106.323
103.387
100.435
97.5132
94.6276
91.7649
88.9286
86.1352
83.3896
80.6983
78.0632
75.4879
72.9729
70.5179
68.1159
65.7492
63.3983
61.0364
58.6293
56.1521
53.5398
50.7884
47.8272
44.6716
41.3151
37.8437
34.3542
31.0521
27.8928
25.2504
22.8689
20.8966
19.5102
17.8334
16.5947
14.6348
13.2008
12.2623
11.6428
11.2157
10.9429
10.8699
10.8519
10.7774
10.7331
10.8938
11.2716
109.661
72.7217
61.2697
56.1019
53.5503
52.8094
53.8921
57.1529
63.0598
72.0733
84.2989
99.0128
114.58
128.847
139.965
147.305
151.951
155.448
158.211
160.212
162.476
165.007
167.685
171.349
175.982
181.085
186.616
192.565
198.993
205.681
212.461
219.267
226.029
232.707
239.257
245.664
251.903
257.978
263.875
269.606
275.167
280.578
285.84
290.978
295.996
300.922
305.761
310.542
315.273
319.982
324.676
329.382
334.105
338.873
343.688
348.572
353.521
358.547
363.638
368.791
373.978
379.167
384.292
389.326
394.226
398.939
403.399
407.545
411.288
414.627
417.548
420.029
421.863
422.835
423.761
423.624
422.536
420.519
417.873
414.408
410.235
405.28
399.624
393.309
386.389
378.922
370.977
362.633
354.015
345.325
336.549
327.77
319.004
310.295
301.687
293.22
284.92
276.81
268.905
261.217
253.75
246.506
239.484
232.678
226.079
219.671
213.51
207.56
201.81
196.249
190.867
185.655
180.607
175.722
171.001
166.457
162.097
157.907
153.858
149.924
146.089
142.344
138.685
135.11
131.616
128.201
124.86
121.591
118.388
115.253
112.164
109.116
106.108
103.145
100.224
97.3348
94.4867
91.6798
88.8789
86.0815
83.3159
80.5764
77.8724
75.2049
72.5777
69.9937
67.4548
64.9582
62.4948
60.0533
57.6165
55.1616
52.6644
50.088
47.4106
44.5986
41.6364
38.5311
35.3167
32.0701
28.9048
25.8732
23.1675
20.7585
18.6994
17.0598
15.564
14.3487
13.2077
12.2866
11.5918
11.0893
10.7097
10.5161
10.3573
10.3788
10.3113
10.2711
10.4541
10.6181
135.776
91.3943
79.4781
74.7844
72.9224
72.8697
75.0144
79.5714
86.5978
95.7452
106.148
116.507
125.163
132.057
137.515
140.538
142.104
142.967
144.401
147.008
150.346
154.35
159.001
164.332
170.22
176.509
183.128
190.019
197.088
204.24
211.397
218.511
225.532
232.433
239.18
245.76
252.15
258.376
264.427
270.313
276.034
281.608
287.04
292.352
297.555
302.673
307.718
312.717
317.684
322.645
327.614
332.617
337.668
342.789
347.993
353.297
358.707
364.235
369.873
375.62
381.453
387.353
393.289
399.231
405.137
410.958
416.633
422.093
427.26
432.064
436.426
440.252
443.413
445.848
447.245
448.514
448.53
447.477
445.423
442.366
438.341
433.38
427.542
420.898
413.528
405.521
396.974
387.995
378.699
369.208
359.59
349.926
340.273
330.682
321.203
311.878
302.742
293.82
285.133
276.692
268.507
260.578
252.909
245.49
238.319
231.387
224.697
218.237
212.001
205.977
200.159
194.533
189.096
183.837
178.756
173.85
169.12
164.551
160.128
155.833
151.654
147.579
143.605
139.727
135.944
132.249
128.64
125.112
121.663
118.288
114.98
111.733
108.546
105.415
102.342
99.3206
96.3535
93.4377
90.5619
87.7209
84.916
82.1049
79.3128
76.5387
73.7864
71.061
68.3679
65.7091
63.0814
60.4792
57.8914
55.3014
52.6883
50.0254
47.2891
44.4549
41.5027
38.4335
35.2657
32.0554
28.883
25.829
23.0231
20.5102
18.3357
16.5323
15.0071
13.7648
12.7448
11.9379
11.3131
10.8337
10.4894
10.3936
10.2001
10.2027
10.1308
10.0954
10.2701
10.3393
158.694
109.618
98.5234
94.783
93.1798
92.905
94.1982
97.2892
101.889
107.395
113.014
118.028
122.664
125.697
127.368
128.945
130.865
133.29
136.493
140.502
145.177
150.436
156.22
162.471
169.112
176.031
183.158
190.414
197.792
205.24
212.699
220.128
227.488
234.754
241.9
248.911
255.777
262.495
269.053
275.456
281.702
287.804
293.767
299.608
305.339
310.98
316.545
322.059
327.537
333.007
338.484
343.997
349.564
355.212
360.958
366.828
372.835
378.999
385.326
391.824
398.487
405.31
412.271
419.345
426.488
433.649
440.761
447.746
454.509
460.948
466.947
472.383
477.124
481.045
484.064
485.818
487.14
487.064
485.701
483.077
479.239
474.24
468.154
461.07
453.09
444.329
434.908
424.954
414.598
403.953
393.13
382.224
371.317
360.476
349.762
339.225
328.906
318.839
309.045
299.542
290.337
281.435
272.834
264.532
256.522
248.798
241.352
234.175
227.257
220.588
214.156
207.949
201.959
196.174
190.588
185.193
179.983
174.945
170.066
165.332
160.731
156.253
151.893
147.644
143.503
139.464
135.523
131.676
127.919
124.247
120.657
117.142
113.701
110.33
107.028
103.792
100.621
97.5123
94.4602
91.46
88.5071
85.5848
82.6836
79.7725
76.8601
73.9562
71.0715
68.2139
65.3857
62.5853
59.8054
57.0334
54.2518
51.4391
48.5737
45.6344
42.6022
39.4726
36.2571
32.9965
29.7578
26.6212
23.6941
21.0477
18.7337
16.7777
15.1487
13.8245
12.7693
11.9426
11.308
10.78
10.5913
10.4629
10.2245
10.1997
10.1068
10.0878
10.2584
10.2604
167.974
119.479
113.271
111.149
109.13
107.665
107.11
107.341
108.546
110.406
112.604
114.689
116.261
117.968
119.847
122.207
125.187
128.822
133.126
138.045
143.504
149.439
155.798
162.501
169.468
176.705
184.181
191.859
199.664
207.552
215.477
223.405
231.299
239.131
246.874
254.513
262.032
269.42
276.665
283.766
290.716
297.52
304.181
310.711
317.115
323.414
329.617
335.748
341.824
347.872
353.911
359.974
366.083
372.273
378.57
385.008
391.613
398.416
405.439
412.705
420.221
427.995
436.014
444.259
452.693
461.264
469.901
478.514
486.995
495.218
503.039
510.303
516.847
522.506
527.126
530.585
532.517
533.687
533.221
531.183
527.64
522.665
516.346
508.788
500.12
490.482
480.021
468.891
457.242
445.218
432.946
420.552
408.14
395.799
383.601
371.609
359.872
348.431
337.31
326.532
316.106
306.04
296.332
286.982
277.98
269.319
260.985
252.969
245.255
237.833
230.687
223.805
217.171
210.776
204.606
198.652
192.902
187.344
181.964
176.75
171.688
166.77
161.987
157.334
152.803
148.389
144.086
139.891
135.797
131.802
127.899
124.085
120.356
116.709
113.142
109.651
106.235
102.891
99.6143
96.4006
93.2445
90.1353
87.0612
84.001
80.9112
77.8079
74.7106
71.6331
68.5827
65.5613
62.5646
59.5831
56.6021
53.604
50.5694
47.4796
44.3178
41.0772
37.7645
34.4102
31.0713
27.8254
24.7689
21.9819
19.5222
17.4186
15.6627
14.231
13.0913
12.1947
11.5098
10.9245
10.7236
10.5764
10.3294
10.3
10.1838
10.2601
10.324
10.3116
124.546
109.849
118.915
120.706
118.224
115.155
112.601
110.759
109.779
109.603
109.753
110.449
111.66
113.456
115.866
118.924
122.628
126.942
131.826
137.224
143.086
149.362
156.012
163.001
170.319
177.912
185.738
193.769
201.963
210.283
218.689
227.148
235.625
244.089
252.511
260.87
269.141
277.308
285.352
293.266
301.035
308.661
316.135
323.466
330.654
337.712
344.649
351.484
358.233
364.923
371.575
378.223
384.896
391.633
398.47
405.45
412.611
420
427.65
435.604
443.885
452.516
461.502
470.836
480.492
490.424
500.562
510.815
521.06
531.155
540.929
550.194
558.747
566.38
572.89
578.084
581.63
583.649
584.421
583.184
580.113
575.294
568.827
560.84
551.482
540.925
529.347
516.934
503.867
490.315
476.441
462.395
448.31
434.294
420.44
406.82
393.498
380.522
367.926
355.734
343.963
332.619
321.701
311.205
301.122
291.438
282.14
273.213
264.64
256.404
248.489
240.878
233.555
226.506
219.714
213.166
206.848
200.747
194.847
189.135
183.599
178.227
173.01
167.94
163.01
158.212
153.54
148.988
144.551
140.224
136
131.877
127.849
123.914
120.067
116.305
112.626
109.027
105.503
102.049
98.6608
95.3282
92.0393
88.7744
85.4957
82.1782
78.8551
75.5462
72.2628
69.0092
65.7838
62.5791
59.383
56.1803
52.9541
49.688
46.3678
42.9868
39.549
36.0779
32.6222
29.256
26.0693
23.1446
20.5434
18.2987
16.413
14.8651
13.6253
12.642
11.8871
11.2455
10.8908
10.6926
10.4991
10.4845
10.3601
10.4474
10.4818
10.4406
125.416
111.469
122.003
123.936
120.729
116.701
113.142
110.39
108.424
107.209
106.87
107.33
108.655
110.763
113.597
117.097
121.213
125.889
131.078
136.734
142.82
149.305
156.177
163.419
170.994
178.865
187.006
195.391
203.985
212.755
221.664
230.682
239.771
248.902
258.04
267.158
276.227
285.224
294.124
302.912
311.566
320.08
328.439
336.642
344.683
352.571
360.306
367.906
375.381
382.755
390.05
397.3
404.536
411.803
419.142
426.604
434.241
442.109
450.262
458.757
467.64
476.954
486.726
496.969
507.674
518.811
530.322
542.118
554.075
566.034
577.805
589.165
599.871
609.663
618.281
625.473
631.029
634.415
636.393
636.179
633.799
629.324
622.863
614.559
604.587
593.15
580.464
566.749
552.221
537.086
521.534
505.751
489.896
474.105
458.493
443.15
428.156
413.565
399.422
385.753
372.578
359.9
347.722
336.033
324.825
314.079
303.782
293.911
284.45
275.375
266.669
258.311
250.283
242.565
235.141
227.991
221.102
214.456
208.038
201.832
195.826
190.005
184.361
178.881
173.56
168.385
163.353
158.453
153.68
149.028
144.491
140.064
135.742
131.521
127.396
123.363
119.419
115.56
111.781
108.079
104.445
100.872
97.3465
93.8493
90.3485
86.8008
83.2431
79.698
76.1784
72.6902
69.2332
65.8018
62.3857
58.9716
55.5451
52.0918
48.5997
45.0627
41.4846
37.8847
34.3056
30.8174
27.5057
24.4521
21.7201
19.3456
17.3368
15.6753
14.3333
13.2596
12.4271
11.7216
11.2878
11.0192
10.7996
10.7429
10.6231
10.6844
10.7043
10.6405
126.64
115.418
121.655
122.274
118.77
114.68
110.99
107.797
105.465
104.262
103.988
104.641
106.218
108.612
111.735
115.502
119.853
124.731
130.096
135.915
142.162
148.813
155.844
163.237
170.99
179.102
187.54
196.271
205.256
214.464
223.865
233.43
243.121
252.906
262.75
272.621
282.486
292.317
302.081
311.757
321.317
330.745
340.019
349.132
358.068
366.828
375.407
383.814
392.054
400.148
408.113
415.98
423.781
431.561
439.364
447.25
455.276
463.512
472.026
480.893
490.183
499.963
510.284
521.188
532.691
544.788
557.441
570.575
584.072
597.771
611.464
624.902
637.8
649.847
660.724
670.116
677.734
683.117
686.319
687.438
685.991
682.084
675.829
667.381
656.939
644.739
631.033
616.082
600.141
583.447
566.236
548.726
531.11
513.551
496.187
479.129
462.465
446.264
430.573
415.428
400.844
386.833
373.39
360.508
348.173
336.368
325.072
314.262
303.915
294.009
284.519
275.423
266.699
258.325
250.28
242.544
235.1
227.927
221.009
214.33
207.874
201.627
195.576
189.71
184.018
178.49
173.117
167.891
162.804
157.848
153.017
148.305
143.705
139.212
134.822
130.53
126.33
122.219
118.191
114.241
110.361
106.542
102.771
99.027
95.277
91.4878
87.6926
83.9124
80.16
76.4416
72.7576
69.1035
65.4706
61.8476
58.2217
54.5805
50.9139
47.2171
43.4939
39.7613
36.0593
32.4544
29.0279
25.8593
23.0117
20.5225
18.4027
16.6367
15.1973
14.0357
13.1231
12.3593
11.8228
11.4661
11.1998
11.0137
10.9982
10.9402
10.9686
10.9096
167.381
124.413
118.953
116.849
113.389
109.557
106.073
103.348
101.542
100.759
100.814
101.801
103.654
106.281
109.599
113.529
118.014
123.006
128.475
134.395
140.751
147.531
154.713
162.274
170.203
178.486
187.111
196.066
205.346
214.932
224.775
234.839
245.084
255.468
265.962
276.534
287.147
297.767
308.357
318.89
329.332
339.659
349.844
359.868
369.71
379.361
388.809
398.053
407.093
415.94
424.605
433.116
441.499
449.796
458.053
466.33
474.689
483.21
491.97
501.062
510.577
520.607
531.232
542.524
554.531
567.281
580.764
594.932
609.685
624.87
640.274
655.626
670.604
684.85
697.982
709.613
719.372
726.91
731.815
734.331
734.004
730.881
725.045
716.656
705.932
693.145
678.589
662.564
645.366
627.279
608.564
589.477
570.24
551.043
532.043
513.373
495.131
477.401
460.236
443.68
427.749
412.457
397.8
383.772
370.355
357.531
345.275
333.564
322.369
311.666
301.428
291.629
282.244
273.248
264.617
256.33
248.365
240.702
233.32
226.204
219.333
212.695
206.272
200.054
194.026
188.179
182.5
176.981
171.611
166.382
161.286
156.317
151.466
146.727
142.095
137.564
133.127
128.78
124.516
120.329
116.21
112.15
108.132
104.135
100.123
96.0913
92.0632
88.056
84.0805
80.1424
76.242
72.3758
68.5362
64.7133
60.8962
57.0742
53.2389
49.3868
45.5221
41.6611
37.8435
34.1329
30.6066
27.3405
24.3959
21.8099
19.5947
17.7364
16.2083
14.9645
13.9729
13.1505
12.5314
12.0889
11.7471
11.5095
11.3538
11.4182
11.3489
11.3028
173.49
122.854
111.491
107.474
104.571
101.913
99.5975
97.8269
96.8225
96.5899
97.1516
98.5144
100.639
103.458
106.909
110.932
115.483
120.524
126.033
131.992
138.391
145.22
152.472
160.143
168.219
176.682
185.513
194.692
204.201
214.016
224.12
234.495
245.132
255.999
267.04
278.216
289.485
300.812
312.144
323.456
334.713
345.884
356.936
367.84
378.567
389.102
399.424
409.523
419.388
429.023
438.43
447.627
456.634
465.487
474.227
482.912
491.604
500.384
509.337
518.568
528.183
538.298
549.02
560.452
572.675
585.753
599.714
614.543
630.172
646.469
663.229
680.17
696.936
713.128
728.316
742.048
753.883
763.414
770.245
774.237
775.132
772.958
767.731
759.61
748.838
735.723
720.6
703.8
685.655
666.473
646.549
626.163
605.566
584.972
564.562
544.482
524.852
505.761
487.279
469.449
452.301
435.845
420.083
405.006
390.599
376.841
363.707
351.168
339.197
327.765
316.843
306.402
296.414
286.854
277.694
268.91
260.478
252.377
244.584
237.08
229.845
222.864
216.118
209.594
203.277
197.155
191.214
185.444
179.833
174.372
169.05
163.86
158.793
153.841
148.998
144.256
139.608
135.049
130.569
126.163
121.819
117.526
113.267
109.016
104.751
100.488
96.2407
92.0216
87.8389
83.6972
79.5966
75.5339
71.5029
67.4949
63.5005
59.5108
55.5189
51.5225
47.5268
43.5489
39.6293
35.8295
32.2226
28.88
25.8597
23.1973
20.9044
18.9682
17.3622
16.0438
14.9765
14.0979
13.3966
12.8646
12.433
12.1466
11.9389
11.9505
11.8908
11.8207
168.457
116.741
103.094
98.0914
95.531
93.7907
92.5287
91.7672
91.5702
91.9863
93.0538
94.7791
97.1459
100.115
103.649
107.708
112.263
117.289
122.772
128.7
135.069
141.874
149.113
156.781
164.874
173.382
182.3
191.619
201.308
211.345
221.702
232.355
243.266
254.413
265.769
277.306
288.995
300.83
312.758
324.728
336.694
348.621
360.472
372.19
383.753
395.139
406.32
417.278
427.992
438.451
448.649
458.594
468.296
477.782
487.083
496.25
505.34
514.431
523.608
532.979
542.66
552.783
563.477
574.871
587.077
600.194
614.284
629.376
645.437
662.372
680.008
698.064
716.128
733.78
750.565
765.991
779.562
790.809
799.325
804.79
806.852
805.722
801.259
793.626
783.075
769.952
754.636
737.456
718.766
698.9
678.171
656.882
635.304
613.672
592.188
571.013
550.283
530.097
510.54
491.662
473.501
456.065
439.366
423.398
408.147
393.589
379.701
366.45
353.811
341.75
330.239
319.246
308.743
298.699
289.088
279.882
271.057
262.587
254.451
246.625
239.09
231.827
224.818
218.046
211.497
205.155
199.006
193.037
187.235
181.589
176.088
170.721
165.48
160.355
155.338
150.42
145.593
140.85
136.181
131.577
127.026
122.514
118.022
113.528
109.042
104.572
100.128
95.719
91.3507
87.0265
82.7465
78.5079
74.3054
70.1315
65.9786
61.8392
57.708
53.584
49.474
45.3969
41.395
37.5276
33.8631
30.468
27.3957
24.6788
22.3272
20.3288
18.6568
17.2718
16.1348
15.1966
14.4269
13.81
13.2921
12.9519
12.7135
12.4928
12.5569
12.4338
159.654
108.42
94.3095
89.1575
86.9655
85.9512
85.5614
85.6305
86.167
87.1842
88.7123
90.7609
93.3314
96.4075
99.9743
104.011
108.505
113.443
118.82
124.633
130.881
137.564
144.684
152.241
160.232
168.655
177.503
186.769
196.438
206.495
216.927
227.712
238.811
250.199
261.844
273.711
285.762
297.948
310.248
322.634
335.066
347.51
359.936
372.347
384.669
396.86
408.878
420.7
432.294
443.624
454.681
465.464
475.966
486.204
496.196
505.985
515.614
525.154
534.681
544.299
554.122
564.292
574.948
586.241
598.3
611.25
625.184
640.162
656.186
673.197
691.067
709.455
727.935
746.117
763.59
779.865
794.427
806.785
816.502
823.275
826.448
826.395
822.897
816.074
806.123
793.451
778.357
761.243
742.487
722.431
701.403
679.715
657.645
635.449
613.339
591.493
570.055
549.14
528.842
509.229
490.336
472.176
454.772
438.131
422.237
407.068
392.596
378.795
365.634
353.084
341.112
329.688
318.781
308.362
298.401
288.871
279.744
270.994
262.598
254.532
246.775
239.305
232.104
225.154
218.44
211.944
205.649
199.542
193.607
187.831
182.203
176.71
171.342
166.09
160.941
155.886
150.917
146.022
141.192
136.417
131.679
126.963
122.257
117.566
112.896
108.252
103.641
99.07
94.5426
90.0616
85.6271
81.2369
76.8866
72.5703
68.2816
64.0147
59.766
55.5362
51.3339
47.1817
43.1228
39.2138
35.5185
32.0974
28.9984
26.2501
23.8601
21.8157
20.0904
18.6471
17.4472
16.4476
15.6156
14.9236
14.3403
13.8777
13.5444
13.2348
13.282
13.1377
148.079
99.6024
85.9605
81.0735
79.2954
78.8515
79.1107
79.8374
80.9643
82.4762
84.385
86.6977
89.4237
92.561
96.1112
100.069
104.436
109.21
114.396
119.996
126.017
132.465
139.344
146.658
154.412
162.604
171.233
180.294
189.778
199.677
209.975
220.657
231.699
243.08
254.776
266.765
279.012
291.476
304.123
316.921
329.831
342.811
355.806
368.768
381.679
394.509
407.223
419.795
432.22
444.461
456.464
468.213
479.662
490.816
501.689
512.304
522.695
532.912
543.019
553.102
563.269
573.65
584.393
595.644
607.547
620.231
633.807
648.347
663.878
680.354
697.647
715.393
733.179
750.929
768.152
784.33
798.96
811.555
821.663
828.918
832.977
833.527
830.678
824.481
815.074
803.076
788.666
772.19
753.983
734.4
713.747
692.336
670.44
648.322
626.2
604.258
582.628
561.478
540.91
520.996
501.766
483.216
465.422
448.392
432.115
416.575
401.743
387.596
374.103
361.238
348.969
337.267
326.1
315.44
305.256
295.521
286.205
277.283
268.73
260.521
252.633
245.046
237.735
230.687
223.885
217.31
210.941
204.763
198.759
192.916
187.219
181.655
176.214
170.882
165.647
160.499
155.425
150.415
145.454
140.535
135.628
130.743
125.88
121.041
116.23
111.45
106.707
102.005
97.3488
92.7403
88.1798
83.6658
79.1951
74.7632
70.3652
65.997
61.6569
57.3477
53.081
48.8833
44.7973
40.877
37.1804
33.7617
30.6626
27.9069
25.4988
23.425
21.6592
20.1663
18.9096
17.8499
16.9558
16.1963
15.5479
14.9998
14.5476
14.1571
14.0915
14.0274
135.166
91.1364
78.3285
73.8843
72.5169
72.5405
73.2883
74.5296
76.1292
78.043
80.2642
82.7908
85.633
88.7945
92.2873
96.1166
100.296
104.832
109.74
115.029
120.714
126.805
133.314
140.249
147.62
155.43
163.684
172.38
181.516
191.087
201.084
211.496
222.308
233.504
245.065
256.97
269.192
281.704
294.474
307.474
320.667
334.024
347.508
361.077
374.687
388.302
401.876
415.368
428.709
441.877
454.838
467.59
480.157
492.444
504.441
516.162
527.613
538.829
549.838
560.712
571.523
582.392
593.442
604.818
616.643
629.048
642.126
655.959
670.56
685.901
701.902
718.085
734.421
750.633
766.325
781.093
794.539
806.242
815.835
822.974
827.412
828.384
826.143
820.715
812.408
801.272
787.701
772.031
754.621
735.783
715.828
695.046
673.707
652.063
630.339
608.714
587.328
566.351
545.9
526.047
506.829
488.158
470.298
453.222
436.89
421.279
406.367
392.131
378.548
365.592
353.236
341.451
330.209
319.48
309.237
299.45
290.092
281.137
272.56
264.33
256.432
248.842
241.528
234.484
227.685
221.113
214.749
208.575
202.574
196.729
191.025
185.449
179.988
174.628
169.355
164.154
159.013
153.923
148.855
143.816
138.802
133.811
128.845
123.905
118.995
114.117
109.277
104.478
99.7254
95.0201
90.3636
85.7554
81.1934
76.6748
72.1964
67.7559
63.354
58.9963
54.6983
50.489
46.4102
42.5118
38.8462
35.4601
32.3884
29.6492
27.2434
25.1562
23.362
21.828
20.5198
19.4017
18.4451
17.6197
16.9045
16.2838
15.7409
15.2784
14.8863
14.8536
122.25
83.6394
71.981
68.0851
67.1129
67.4937
68.629
70.2594
72.2262
74.4615
76.9399
79.6484
82.5902
85.7682
89.197
92.8881
96.8615
101.133
105.726
110.656
115.947
121.615
127.679
134.155
141.056
148.393
156.174
164.404
173.085
182.219
191.802
201.83
212.293
223.183
234.485
246.185
258.265
270.704
283.478
296.565
309.935
323.561
337.408
351.444
365.626
379.919
394.278
408.66
423.013
437.302
451.491
465.526
479.338
492.93
506.269
519.352
532.16
544.692
556.944
568.946
580.734
592.398
604.02
615.715
627.589
639.715
652.186
665.017
678.244
691.759
705.39
719.114
732.69
745.874
758.445
770.141
780.709
789.923
797.509
803.224
806.877
807.589
805.313
800.298
792.765
782.799
770.619
756.466
740.617
723.345
704.919
685.594
665.618
645.224
624.631
604.014
583.524
563.32
543.527
524.23
505.484
487.211
469.68
452.849
436.716
421.268
406.494
392.377
378.899
366.036
353.766
342.062
330.898
320.246
310.081
300.372
291.095
282.222
273.729
265.585
257.774
250.274
243.038
236.091
229.4
222.936
216.678
210.601
204.69
198.928
193.291
187.773
182.356
177.024
171.764
166.558
161.389
156.256
151.152
146.074
141.018
135.983
130.97
125.981
121.019
116.088
111.193
106.338
101.526
96.7617
92.0461
87.38
82.7629
78.1935
73.6707
69.1946
64.7685
60.4018
56.1139
51.9345
47.9036
44.0667
40.4693
37.1503
34.1369
31.4412
29.0602
26.978
25.1696
23.6048
22.2524
21.0803
20.0629
19.1724
18.3912
17.6987
17.0865
16.5351
16.0594
15.6651
110.694
77.2379
66.9619
63.6982
63.1449
63.851
65.3564
67.3415
69.6533
72.2046
74.949
77.8845
80.9858
84.2472
87.6815
91.3044
95.1406
99.2137
103.553
108.183
113.134
118.429
124.095
130.159
136.634
143.534
150.875
158.666
166.917
175.633
184.816
194.467
204.585
215.166
226.202
237.687
249.609
261.956
274.71
287.857
301.374
315.24
329.425
343.902
358.634
373.588
388.723
404.003
419.363
434.762
450.144
465.437
480.577
495.575
510.395
524.975
539.289
553.282
566.932
580.198
593.097
605.637
617.878
629.877
641.671
653.336
664.831
676.213
687.418
698.443
708.808
718.841
728.345
737.221
745.342
752.656
759.108
764.71
769.297
772.722
774.825
774.809
771.997
767.269
760.51
751.754
741.079
728.643
714.639
699.275
682.763
665.316
647.149
628.469
609.473
590.338
571.216
552.25
533.562
515.252
497.392
480.023
463.215
447.006
431.414
416.445
402.098
388.366
375.238
362.698
350.726
339.302
328.402
318.002
308.076
298.599
289.545
280.891
272.61