/*--------------------------------*- C++ -*----------------------------------*\
  =========                 |
  \\      /  F ield         | OpenFOAM: The Open Source CFD Toolbox
   \\    /   O peration     | Website:  https://openfoam.org
    \\  /    A nd           | Version:  8
     \\/     M anipulation  |
\*---------------------------------------------------------------------------*/
FoamFile
{
    version     2.0;
    format      ascii;
    class       volScalarField;
    location    "50";
    object      k;
}
// * * * * * * * * * * * * * * * * * * * * * * * * * * * * * * * * * * * * * //

dimensions      [0 2 -2 0 0 0 0];

internalField   nonuniform List<scalar> 
12225
(
0.362742
0.344113
0.327669
0.309954
0.295366
0.283667
0.275548
0.270561
0.270694
0.272459
0.276965
0.281988
0.291725
0.298163
0.309956
0.317523
0.329943
0.341734
0.440167
0.468774
0.461662
0.448651
0.450707
0.458884
0.475424
0.500047
0.52676
0.555213
0.585324
0.611814
0.641509
0.663276
0.692072
0.70867
0.738897
0.75627
0.390517
0.417886
0.420221
0.41687
0.411661
0.407969
0.408229
0.410382
0.415363
0.421955
0.432538
0.441031
0.454587
0.463998
0.478698
0.489368
0.503573
0.519014
0.377548
0.386984
0.391397
0.391349
0.390236
0.387943
0.385736
0.38415
0.383096
0.383127
0.383757
0.384832
0.387331
0.389235
0.392682
0.396437
0.399651
0.406001
0.374562
0.376099
0.378404
0.378667
0.37826
0.377204
0.375505
0.37373
0.372064
0.370474
0.3694
0.368155
0.367717
0.367047
0.367
0.36714
0.367377
0.368505
0.373814
0.372715
0.372642
0.372379
0.371748
0.370797
0.369543
0.368046
0.366565
0.364929
0.363542
0.36202
0.3608
0.359571
0.358506
0.35766
0.356779
0.356395
0.373782
0.371745
0.370383
0.369281
0.368221
0.367089
0.365892
0.364541
0.363202
0.361741
0.360372
0.358947
0.357613
0.356321
0.355071
0.35396
0.352837
0.351948
0.37382
0.371562
0.369632
0.367969
0.366489
0.365082
0.363746
0.362381
0.361056
0.359694
0.358372
0.357049
0.355759
0.354512
0.353287
0.352146
0.351014
0.35001
0.373832
0.371556
0.369448
0.367519
0.365765
0.36413
0.362614
0.361153
0.359761
0.3584
0.357083
0.355801
0.354551
0.353347
0.352171
0.351057
0.349966
0.348958
0.373831
0.371563
0.369418
0.3674
0.365519
0.363753
0.362104
0.360543
0.359067
0.357658
0.35631
0.355018
0.353774
0.352583
0.351432
0.35034
0.349278
0.348289
0.373829
0.371563
0.369414
0.367376
0.36545
0.363629
0.361912
0.360287
0.35875
0.357291
0.355902
0.354582
0.35332
0.352119
0.350969
0.349878
0.34883
0.347846
0.373828
0.371561
0.36941
0.367369
0.365434
0.363597
0.361855
0.360203
0.358636
0.357148
0.355734
0.35439
0.353111
0.351894
0.350735
0.349637
0.348585
0.347598
0.373827
0.371559
0.369407
0.367365
0.365427
0.363585
0.361836
0.360173
0.358593
0.357092
0.355661
0.354304
0.35301
0.351783
0.350613
0.349506
0.348449
0.347454
0.373827
0.371558
0.369404
0.367361
0.365421
0.363578
0.361827
0.360161
0.358577
0.357069
0.355635
0.354269
0.352971
0.351735
0.350561
0.349445
0.348386
0.34738
0.373826
0.371556
0.369401
0.367357
0.365417
0.363573
0.361821
0.360155
0.358571
0.357062
0.355627
0.35426
0.352961
0.351724
0.350549
0.349431
0.348369
0.347362
0.373826
0.371554
0.369398
0.367354
0.365412
0.363569
0.361816
0.360152
0.358566
0.357061
0.355624
0.354262
0.352961
0.351729
0.350552
0.349438
0.348375
0.347369
0.373826
0.371553
0.369396
0.36735
0.365409
0.363564
0.361813
0.360148
0.358565
0.357059
0.355628
0.354265
0.35297
0.351737
0.350565
0.34945
0.348391
0.347383
0.373825
0.371551
0.369395
0.367348
0.365407
0.363562
0.361812
0.360147
0.358567
0.357062
0.355633
0.354272
0.35298
0.351749
0.35058
0.349466
0.348409
0.347401
0.373825
0.37155
0.369394
0.367347
0.365406
0.363563
0.361813
0.36015
0.358572
0.357069
0.355642
0.354284
0.352994
0.351766
0.350599
0.349487
0.348431
0.347424
0.373825
0.37155
0.369394
0.367348
0.365408
0.363566
0.361818
0.360158
0.358581
0.357081
0.355657
0.354301
0.353013
0.351787
0.350621
0.349511
0.348455
0.34745
0.373825
0.371551
0.369395
0.36735
0.365412
0.363572
0.361826
0.360168
0.358593
0.357097
0.355674
0.354323
0.353037
0.351815
0.350652
0.349545
0.348492
0.347489
0.373826
0.371552
0.369397
0.367354
0.365418
0.363581
0.36184
0.360187
0.358619
0.35713
0.355716
0.354373
0.353097
0.351883
0.35073
0.349631
0.348586
0.347589
0.373826
0.371553
0.369399
0.367362
0.365435
0.363615
0.361895
0.360269
0.358729
0.357271
0.355887
0.354573
0.353322
0.352131
0.350996
0.349914
0.348882
0.347894
0.373828
0.37155
0.369412
0.367421
0.365564
0.363833
0.36221
0.360681
0.359228
0.357845
0.35652
0.35525
0.35403
0.352856
0.351729
0.350642
0.349602
0.348597
0.373822
0.371554
0.369604
0.367898
0.366347
0.364908
0.363516
0.362152
0.3608
0.359462
0.358141
0.356842
0.355574
0.354337
0.353143
0.351985
0.350879
0.349806
0.373786
0.371992
0.37111
0.370269
0.369363
0.368329
0.367066
0.365661
0.364155
0.362619
0.36108
0.359578
0.358136
0.356749
0.355453
0.354218
0.353087
0.352006
0.374356
0.375578
0.377777
0.377861
0.377293
0.375904
0.373831
0.37166
0.369502
0.367489
0.365654
0.36406
0.362675
0.361474
0.360527
0.359704
0.359135
0.358617
0.379127
0.394314
0.398279
0.396609
0.39258
0.387654
0.383622
0.380453
0.378151
0.376749
0.37624
0.37643
0.377021
0.378128
0.37977
0.381557
0.38382
0.385927
0.408388
0.427509
0.422384
0.411
0.402174
0.397682
0.39828
0.400524
0.405246
0.41209
0.419626
0.428123
0.4367
0.445563
0.454264
0.462897
0.47123
0.47944
0.366033
0.35344
0.341959
0.330244
0.318945
0.308439
0.299334
0.291714
0.285277
0.280287
0.276467
0.273669
0.271935
0.270769
0.270558
0.270722
0.271375
0.272416
0.090896
0.127416
0.148391
0.145543
0.147407
0.148571
0.147683
0.144386
0.142038
0.136311
0.140776
0.14537
0.148476
0.143657
0.139615
0.138133
0.142937
0.147564
0.155172
0.162368
0.177475
0.206962
0.246808
0.291682
0.339962
0.390121
0.437417
0.482606
0.525592
0.566364
0.605085
0.642155
0.677394
0.711427
0.743847
0.775433
0.805555
0.835136
0.863352
0.891243
0.91783
0.944256
0.969421
0.994541
1.01841
1.04229
1.06486
1.08746
1.10871
1.13005
1.15001
1.17012
1.18875
1.20751
1.22472
1.24217
1.25819
1.27425
1.28859
1.30344
1.31689
1.33207
1.34526
1.35685
1.36941
1.3799
1.38571
1.39398
1.39105
1.39685
1.40153
1.38964
1.40202
1.40947
1.38977
1.39682
1.38907
1.37474
1.36058
1.33819
1.29189
1.28694
1.26955
1.25472
1.23899
1.22194
1.20491
1.18529
1.15935
1.13216
1.10794
1.08697
1.06478
1.04289
1.02097
0.999282
0.977723
0.956471
0.935455
0.914803
0.894438
0.874451
0.854814
0.835471
0.815878
0.796553
0.777945
0.759868
0.74235
0.725288
0.70872
0.692555
0.676839
0.661559
0.646809
0.633023
0.622039
0.61299
0.604434
0.595991
0.587645
0.579375
0.571261
0.563248
0.555383
0.547556
0.539837
0.53223
0.524606
0.517209
0.509896
0.501984
0.493939
0.485855
0.477936
0.470121
0.462491
0.454954
0.447484
0.440017
0.432622
0.425368
0.41832
0.411469
0.40481
0.398375
0.392193
0.386234
0.380489
0.374832
0.369247
0.363435
0.357487
0.35065
0.343413
0.334184
0.324135
0.310995
0.29671
0.279727
0.262698
0.2457
0.230886
0.220215
0.211363
0.204649
0.205086
0.203312
0.197851
0.191251
0.185786
0.177751
0.17838
0.177966
0.17292
0.172829
0.169527
0.169425
0.170442
0.166094
0.175702
0.226792
0.269063
0.291236
0.300773
0.302867
0.301245
0.296963
0.289198
0.278979
0.274454
0.280637
0.296646
0.324937
0.358813
0.398666
0.441011
0.483799
0.524128
0.566574
0.613298
0.663066
0.712246
0.75943
0.805088
0.8497
0.893774
0.93802
0.982767
1.02756
1.07264
1.11793
1.16324
1.2086
1.25371
1.29865
1.34314
1.38732
1.43093
1.47419
1.51685
1.55918
1.60093
1.6424
1.68335
1.72409
1.76434
1.8044
1.84399
1.88342
1.92237
1.96113
1.99935
2.03735
2.07474
2.11178
2.14804
2.18375
2.21842
2.25229
2.28484
2.31643
2.34688
2.37642
2.40478
2.43199
2.45766
2.48206
2.50395
2.52366
2.54011
2.55611
2.57057
2.57497
2.57463
2.58066
2.57404
2.57057
2.56116
2.54881
2.53206
2.51582
2.49545
2.47268
2.44734
2.41942
2.38917
2.35616
2.32117
2.28254
2.2444
2.20543
2.16609
2.1267
2.08726
2.04801
2.00904
1.97053
1.93251
1.89511
1.85832
1.82225
1.78686
1.75227
1.71843
1.68546
1.65334
1.62209
1.59159
1.56185
1.53278
1.50437
1.47654
1.44933
1.42272
1.39687
1.37183
1.34742
1.32339
1.29966
1.27619
1.25301
1.23013
1.20757
1.18532
1.16338
1.14171
1.12034
1.09923
1.07833
1.05749
1.03612
1.0147
0.993439
0.972511
0.951962
0.931775
0.911873
0.892049
0.872375
0.853009
0.83408
0.815663
0.797751
0.780296
0.763347
0.746938
0.73101
0.71544
0.700042
0.68461
0.668919
0.652752
0.635597
0.617335
0.596919
0.574443
0.54851
0.51975
0.487437
0.452784
0.418237
0.382928
0.351419
0.324081
0.300483
0.283937
0.271734
0.26265
0.253337
0.244748
0.234952
0.234032
0.232394
0.229719
0.225614
0.224485
0.224465
0.225825
0.22366
0.282428
0.339662
0.37833
0.399634
0.41098
0.417027
0.421141
0.426286
0.435506
0.45222
0.480215
0.522088
0.576377
0.638123
0.698328
0.75141
0.794683
0.830307
0.862409
0.89531
0.931476
0.971921
1.01647
1.06503
1.11706
1.17219
1.22989
1.28951
1.35037
1.41221
1.47438
1.53637
1.5977
1.65806
1.71707
1.77461
1.83054
1.88492
1.9377
1.98903
2.03891
2.08755
2.13495
2.18133
2.22671
2.2713
2.31512
2.35834
2.40099
2.44323
2.48506
2.52662
2.56788
2.60898
2.64989
2.6907
2.73133
2.77185
2.81213
2.85217
2.89181
2.93095
2.96936
3.00687
3.04324
3.07827
3.11147
3.14265
3.17126
3.19712
3.22008
3.23969
3.25536
3.26602
3.27226
3.27991
3.27942
3.2752
3.26542
3.25128
3.2325
3.20996
3.1832
3.15269
3.11866
3.08131
3.04099
2.99795
2.95305
2.90591
2.85805
2.80917
2.75977
2.71009
2.66035
2.61078
2.56158
2.5129
2.46486
2.41758
2.3711
2.32551
2.28081
2.23709
2.19434
2.15262
2.1119
2.07217
2.03336
1.99544
1.95833
1.92202
1.88642
1.85156
1.81742
1.78407
1.75152
1.71966
1.68833
1.65744
1.62692
1.59677
1.567
1.53764
1.50865
1.48005
1.45181
1.42393
1.39639
1.36915
1.34215
1.31526
1.28853
1.26206
1.23593
1.21019
1.18486
1.1599
1.13483
1.10981
1.08516
1.06103
1.03752
1.01456
0.992049
0.97011
0.948817
0.928134
0.907881
0.887857
0.867881
0.847748
0.827192
0.805764
0.783054
0.758346
0.731101
0.700496
0.666061
0.627582
0.585347
0.541
0.496102
0.452861
0.414015
0.379705
0.35102
0.328365
0.310615
0.29626
0.283659
0.272943
0.267441
0.262935
0.2627
0.258788
0.255662
0.256973
0.258167
0.255373
0.375748
0.447562
0.495556
0.52375
0.540139
0.550987
0.561448
0.576103
0.598995
0.633083
0.679188
0.734545
0.793134
0.847857
0.893794
0.929903
0.959652
0.988879
1.02266
1.06308
1.11044
1.16427
1.22359
1.28732
1.35468
1.42472
1.49654
1.56934
1.64248
1.71534
1.78733
1.85806
1.92715
1.99442
2.05967
2.12287
2.184
2.24313
2.3003
2.35567
2.40932
2.46142
2.51209
2.5615
2.60976
2.65707
2.70352
2.74929
2.79448
2.83924
2.88366
2.92787
2.97193
3.01597
3.06002
3.10416
3.14839
3.19275
3.23716
3.2816
3.32594
3.37003
3.41369
3.45669
3.49876
3.5396
3.5788
3.61602
3.65081
3.6828
3.71166
3.73688
3.75792
3.77422
3.78563
3.7921
3.79731
3.79538
3.7869
3.77264
3.75282
3.72781
3.69777
3.66307
3.62404
3.58108
3.53463
3.48517
3.43334
3.37942
3.32413
3.26772
3.21058
3.15304
3.09536
3.03784
2.9807
2.92413
2.8683
2.81331
2.75926
2.70621
2.65423
2.60334
2.55357
2.50492
2.45738
2.41092
2.36549
2.32106
2.27758
2.23502
2.19333
2.15251
2.11252
2.07337
2.03504
1.99745
1.9605
1.92409
1.88815
1.85268
1.81767
1.78313
1.74904
1.7154
1.68219
1.6494
1.61702
1.58502
1.55336
1.52201
1.49097
1.46027
1.42993
1.40002
1.37054
1.34151
1.31278
1.2844
1.25649
1.22913
1.20242
1.17627
1.15034
1.125
1.10033
1.07631
1.05274
1.02941
1.00617
0.982856
0.959182
0.934733
0.909023
0.881438
0.851281
0.817777
0.780128
0.737911
0.691093
0.640699
0.588714
0.537253
0.489258
0.446156
0.408794
0.378068
0.353216
0.333757
0.31697
0.305137
0.297835
0.289963
0.289735
0.285643
0.281738
0.283408
0.284721
0.281956
0.46479
0.558693
0.623717
0.663129
0.686257
0.701205
0.714646
0.732053
0.75711
0.790898
0.831612
0.87523
0.917457
0.955547
0.989963
1.02365
1.06018
1.10232
1.1513
1.20724
1.26952
1.33708
1.40885
1.48383
1.56113
1.63993
1.71952
1.79928
1.87867
1.95721
2.03448
2.11019
2.18407
2.25596
2.32575
2.3934
2.4589
2.52229
2.58362
2.64302
2.70056
2.75641
2.81065
2.86348
2.91499
2.96539
3.01479
3.06338
3.11127
3.15865
3.20562
3.25235
3.29894
3.34554
3.39222
3.43911
3.48624
3.53369
3.58143
3.62948
3.67773
3.7261
3.7744
3.82242
3.86988
3.91646
3.96174
4.00532
4.0467
4.08539
4.12089
4.15259
4.1799
4.20228
4.21915
4.22926
4.23646
4.23947
4.23362
4.22068
4.20111
4.17527
4.14346
4.10608
4.06358
4.01644
3.9652
3.91045
3.85279
3.79276
3.7309
3.6677
3.60358
3.53893
3.47407
3.40933
3.34498
3.28124
3.2183
3.1563
3.09535
3.03552
2.97689
2.91946
2.86327
2.8083
2.75456
2.70199
2.65061
2.60034
2.55119
2.50307
2.45598
2.40986
2.36468
2.32042
2.27704
2.23446
2.19261
2.1514
2.11077
2.07069
2.03115
1.99214
1.95366
1.91569
1.87821
1.84121
1.80469
1.76861
1.73297
1.69774
1.66292
1.62852
1.59455
1.56105
1.52804
1.4955
1.46341
1.43179
1.40069
1.37019
1.34037
1.31124
1.28271
1.25485
1.22769
1.20118
1.17505
1.14903
1.12312
1.09716
1.07089
1.0439
1.01566
0.985656
0.953194
0.917477
0.877566
0.832776
0.782782
0.728204
0.670869
0.613078
0.557757
0.507088
0.462393
0.424721
0.393692
0.369152
0.348726
0.333265
0.322988
0.314177
0.311527
0.30674
0.305925
0.305973
0.307344
0.304418
0.527938
0.657365
0.745937
0.798994
0.828859
0.845196
0.856048
0.867604
0.883835
0.906044
0.933337
0.963849
0.996345
1.03102
1.06899
1.11174
1.16065
1.21613
1.27795
1.34537
1.41749
1.49335
1.57213
1.65307
1.73551
1.81889
1.90266
1.98637
2.06959
2.15194
2.23309
2.3128
2.39081
2.46698
2.54116
2.61329
2.68333
2.75127
2.81714
2.881
2.94291
3.00297
3.06127
3.11796
3.17314
3.22699
3.27962
3.33121
3.38191
3.4319
3.48132
3.53037
3.57917
3.62792
3.67675
3.72583
3.77526
3.82517
3.87562
3.92666
3.97828
4.03042
4.08294
4.13568
4.18836
4.24065
4.29214
4.34235
4.39072
4.43667
4.47955
4.51864
4.55324
4.58265
4.60626
4.62349
4.63358
4.64025
4.63812
4.62774
4.60959
4.58406
4.55153
4.51245
4.46734
4.41679
4.36142
4.30188
4.23889
4.17302
4.10495
4.03522
3.96438
3.89285
3.82105
3.74932
3.678
3.60733
3.53754
3.46877
3.40116
3.3348
3.26974
3.20603
3.14368
3.0827
3.02309
2.96482
2.90786
2.85218
2.79773
2.74448
2.69237
2.64136
2.5914
2.54245
2.49446
2.44736
2.40107
2.35551
2.31064
2.2664
2.22279
2.17978
2.13737
2.09553
2.05424
2.0135
1.97329
1.93359
1.89439
1.85569
1.81746
1.77973
1.7425
1.70578
1.6696
1.63396
1.59884
1.56426
1.53025
1.49685
1.46414
1.43216
1.40092
1.37041
1.34064
1.31153
1.28292
1.25459
1.2264
1.19816
1.16961
1.14034
1.10977
1.07752
1.04299
1.0054
0.963701
0.91703
0.864734
0.807085
0.745655
0.682835
0.621588
0.564524
0.513461
0.469662
0.433117
0.403736
0.379759
0.360847
0.347199
0.336798
0.332365
0.327079
0.326207
0.324556
0.327333
0.323986
0.537556
0.715746
0.838101
0.908337
0.944222
0.960494
0.96766
0.972242
0.979456
0.99222
1.01156
1.03749
1.06978
1.10839
1.15355
1.20532
1.26351
1.32756
1.39676
1.4703
1.54741
1.62738
1.70962
1.7936
1.87883
1.96488
2.05134
2.13786
2.22408
2.30968
2.39437
2.47789
2.55999
2.6405
2.71924
2.79611
2.87099
2.94387
3.01467
3.08344
3.15015
3.21489
3.27769
3.33867
3.39789
3.45551
3.51163
3.56643
3.62004
3.67265
3.72444
3.7756
3.82633
3.87684
3.92733
3.97803
4.02911
4.08077
4.13317
4.18644
4.24065
4.29582
4.3519
4.40874
4.46614
4.52377
4.58123
4.63801
4.69349
4.74699
4.79773
4.84488
4.88759
4.92499
4.95626
4.98069
4.99713
5.00668
5.01018
5.00358
4.98795
4.96375
4.9314
4.89143
4.84441
4.79102
4.73198
4.66804
4.59998
4.52855
4.45443
4.37833
4.30087
4.22258
4.14393
4.06533
3.98714
3.90966
3.83312
3.75771
3.68357
3.61084
3.53955
3.46979
3.40155
3.33488
3.26971
3.20607
3.14388
3.08313
3.02375
2.96571
2.90894
2.85339
2.799
2.74573
2.69351
2.64227
2.59193
2.54244
2.49371
2.44573
2.39844
2.35183
2.30588
2.26057
2.21588
2.17179
2.12828
2.08536
2.04298
2.00116
1.95989
1.91916
1.87898
1.83937
1.80034
1.76188
1.72402
1.68675
1.65008
1.61406
1.57871
1.54409
1.51024
1.47716
1.44483
1.41315
1.382
1.3512
1.32055
1.28984
1.25881
1.22709
1.19424
1.15983
1.12334
1.0841
1.04091
0.992852
0.93887
0.878893
0.814269
0.747406
0.681331
0.618929
0.562407
0.513259
0.471811
0.43799
0.410535
0.38855
0.371585
0.358995
0.353624
0.347021
0.343262
0.344657
0.34548
0.3415
0.442791
0.754787
0.899248
0.979186
1.02005
1.03872
1.04551
1.04834
1.05255
1.06255
1.08071
1.10762
1.14309
1.18656
1.23741
1.29487
1.35821
1.42661
1.49933
1.57569
1.6551
1.73702
1.82103
1.90671
1.99371
2.08169
2.17034
2.25932
2.34833
2.43708
2.52526
2.61261
2.69888
2.78385
2.86732
2.94912
3.02911
3.10717
3.18322
3.25721
3.32908
3.39884
3.4665
3.5321
3.59569
3.65738
3.71725
3.77544
3.83208
3.88738
3.94148
3.99462
4.04701
4.09892
4.15059
4.2023
4.25431
4.30692
4.36035
4.41486
4.47061
4.52775
4.5863
4.64623
4.70739
4.76952
4.83225
4.89506
4.95731
5.01823
5.07694
5.13249
5.18383
5.22993
5.26975
5.30235
5.32693
5.3418
5.35044
5.34863
5.3366
5.31475
5.28352
5.24347
5.19526
5.13965
5.07745
5.00953
4.93679
4.86004
4.78013
4.69787
4.61397
4.52906
4.44369
4.35834
4.27341
4.18925
4.10613
4.02429
3.94389
3.86506
3.78787
3.71239
3.63863
3.56659
3.49625
3.42759
3.36056
3.2951
3.23118
3.16872
3.10767
3.04797
2.98954
2.93233
2.87628
2.8213
2.76733
2.71429
2.66212
2.61078
2.56022
2.51042
2.46134
2.41297
2.36527
2.31824
2.27184
2.22606
2.1809
2.13634
2.09237
2.04899
2.0062
1.96402
1.92244
1.88148
1.84115
1.80144
1.76238
1.72397
1.68624
1.64922
1.61295
1.57745
1.54266
1.50852
1.47488
1.44159
1.40846
1.37524
1.34167
1.30741
1.27207
1.23522
1.19641
1.15507
1.1104
1.06144
1.00626
0.944477
0.877309
0.807187
0.737197
0.67041
0.609311
0.555595
0.509871
0.472097
0.441371
0.416572
0.396733
0.381934
0.372912
0.36589
0.361699
0.362834
0.362948
0.358528
0.449377
0.77532
0.92545
1.01194
1.05914
1.08294
1.09412
1.10006
1.10684
1.11926
1.14004
1.17004
1.20899
1.25608
1.31036
1.37084
1.43666
1.50702
1.58128
1.65886
1.73932
1.82224
1.90729
1.99416
2.08257
2.17223
2.26286
2.35417
2.44587
2.53768
2.62931
2.72047
2.8109
2.90035
2.98858
3.07538
3.16055
3.24394
3.32539
3.40479
3.48203
3.55708
3.62986
3.70038
3.76863
3.83467
3.89854
3.96037
4.02024
4.07834
4.13481
4.18989
4.24381
4.29685
4.34929
4.40148
4.45374
4.50644
4.55992
4.61454
4.67059
4.72836
4.78799
4.84959
4.91312
4.97842
5.04519
5.11297
5.1811
5.24879
5.31507
5.37885
5.43893
5.49407
5.54301
5.58454
5.61761
5.64056
5.65409
5.6586
5.65131
5.63289
5.6038
5.56462
5.51607
5.45899
5.39432
5.32304
5.24612
5.16454
5.07925
4.99116
4.90113
4.80989
4.71809
4.62628
4.53495
4.44448
4.35521
4.26736
4.18114
4.09665
4.01401
3.93325
3.85441
3.77745
3.70238
3.62915
3.55771
3.48799
3.41996
3.35353
3.28863
3.2252
3.16317
3.10246
3.04301
2.98473
2.92756
2.87142
2.81625
2.76199
2.70859
2.65603
2.60426
2.55325
2.50298
2.45342
2.40455
2.35635
2.3088
2.26189
2.21562
2.16996
2.12493
2.08052
2.03674
1.9936
1.95109
1.90924
1.86804
1.8275
1.78764
1.74846
1.70999
1.67225
1.63517
1.59869
1.56268
1.52698
1.4914
1.4557
1.41962
1.38282
1.34495
1.30561
1.26435
1.22071
1.17406
1.12361
1.06769
1.00444
0.93519
0.862428
0.789302
0.718992
0.654163
0.596665
0.547314
0.50613
0.472433
0.445055
0.422949
0.40576
0.393445
0.387069
0.384159
0.381432
0.380328
0.378213
0.451459
0.768244
0.918498
1.01034
1.06333
1.09553
1.11496
1.12831
1.14161
1.15949
1.18477
1.21844
1.26042
1.30997
1.36619
1.42815
1.49506
1.56621
1.64106
1.71914
1.8001
1.88361
1.96942
2.05726
2.14689
2.23806
2.33052
2.42402
2.51826
2.61299
2.7079
2.80272
2.89715
2.99093
3.08377
3.17546
3.26572
3.35437
3.4412
3.52604
3.60874
3.68917
3.76723
3.84287
3.916
3.98666
4.05481
4.12054
4.1839
4.24502
4.30405
4.36119
4.41665
4.47073
4.52373
4.57603
4.62799
4.68007
4.73268
4.78632
4.8414
4.89835
4.95749
5.01908
5.08324
5.14996
5.21907
5.2902
5.36277
5.43596
5.50878
5.58003
5.64837
5.71234
5.77044
5.82123
5.86334
5.89555
5.91607
5.92691
5.92528
5.91135
5.8855
5.84828
5.80043
5.74287
5.67664
5.60281
5.5225
5.43679
5.34677
5.25352
5.158
5.06108
4.96351
4.86592
4.76884
4.67273
4.57792
4.4847
4.39325
4.30372
4.2162
4.13074
4.04736
3.96605
3.88678
3.80952
3.73419
3.66074
3.5891
3.5192
3.45096
3.3843
3.31915
3.25543
3.19307
3.13198
3.0721
3.01334
2.95563
2.89893
2.84317
2.78831
2.73431
2.68114
2.62876
2.57714
2.52625
2.47607
2.42658
2.37776
2.3296
2.28207
2.23519
2.18895
2.14333
2.09836
2.05403
2.01034
1.9673
1.92491
1.88317
1.84209
1.80165
1.76187
1.7227
1.68405
1.64581
1.60782
1.56989
1.5318
1.49328
1.45401
1.41366
1.37184
1.32815
1.28215
1.23332
1.181
1.12383
1.05928
0.988231
0.913325
0.837739
0.764699
0.696958
0.636456
0.584149
0.540127
0.503835
0.474189
0.450071
0.430744
0.416164
0.404354
0.403056
0.398242
0.396669
0.394357
0.540634
0.755988
0.896034
0.987881
1.04821
1.0869
1.11312
1.13427
1.15575
1.18073
1.2114
1.24898
1.29367
1.34505
1.40244
1.4651
1.53238
1.60372
1.67868
1.75688
1.83802
1.92187
2.00819
2.09678
2.18742
2.27989
2.37396
2.46937
2.56588
2.66321
2.76107
2.85918
2.95725
3.05498
3.15209
3.24831
3.34337
3.43701
3.52899
3.61911
3.70714
3.79292
3.87628
3.9571
4.03526
4.11072
4.18339
4.25331
4.32046
4.38493
4.44681
4.50628
4.5635
4.61877
4.67236
4.72467
4.77608
4.8271
4.87821
4.93
4.983
5.03781
5.09491
5.15475
5.21763
5.28376
5.35312
5.42554
5.50055
5.57738
5.65503
5.73227
5.80765
5.87953
5.94616
6.00587
6.05709
6.09825
6.12757
6.14508
6.15012
6.14172
6.12022
6.08611
6.04012
5.98325
5.91663
5.84143
5.7589
5.67027
5.57671
5.47946
5.37959
5.27809
5.17579
5.07341
4.97154
4.87068
4.77121
4.67345
4.57757
4.48378
4.39212
4.30269
4.21547
4.13048
4.04766
3.967
3.8884
3.81182
3.73717
3.66438
3.59336
3.52403
3.45631
3.39013
3.3254
3.26204
3.19997
3.13911
3.0794
3.02077
2.96315
2.90651
2.85079
2.79595
2.74195
2.68877
2.63635
2.58468
2.53372
2.48345
2.43385
2.38491
2.33662
2.28895
2.24191
2.19549
2.1497
2.10453
2.05997
2.01604
1.97271
1.92999
1.88784
1.84626
1.8052
1.76458
1.72427
1.68415
1.64402
1.60366
1.56281
1.52118
1.47843
1.43422
1.38816
1.33984
1.28878
1.23438
1.17543
1.10939
1.03669
0.960041
0.882602
0.807568
0.737697
0.674956
0.620374
0.574094
0.535644
0.504025
0.478163
0.457054
0.440543
0.425976
0.421184
0.411205
0.412364
0.409544
0.580161
0.743668
0.868356
0.954437
1.01609
1.0613
1.0959
1.12471
1.15234
1.18285
1.21868
1.26024
1.30765
1.36067
1.41892
1.48189
1.54917
1.62032
1.69503
1.77301
1.85403
1.93788
2.02439
2.11336
2.20462
2.29797
2.39319
2.49007
2.58835
2.68778
2.78807
2.8889
2.98999
3.09108
3.19185
3.29203
3.39132
3.48945
3.58614
3.68114
3.7742
3.86509
3.95358
4.03952
4.12272
4.20307
4.28045
4.35481
4.42608
4.49428
4.55943
4.62165
4.68106
4.7379
4.79242
4.84498
4.89597
4.94588
4.99525
5.04471
5.09491
5.14657
5.20034
5.25687
5.31666
5.38012
5.44744
5.51861
5.59332
5.67103
5.7509
5.83179
5.91224
5.99049
6.06451
6.13231
6.19187
6.24146
6.27947
6.30487
6.31671
6.31455
6.29847
6.26868
6.22587
6.17123
6.10589
6.03107
5.9481
5.85826
5.76288
5.66325
5.56058
5.45596
5.35032
5.24446
5.13903
5.0346
4.9316
4.83036
4.73111
4.63401
4.53916
4.44662
4.35642
4.26855
4.18297
4.09965
4.01851
3.93949
3.86251
3.78748
3.71432
3.64295
3.57328
3.50523
3.43872
3.37367
3.31
3.24762
3.18647
3.12646
3.06754
3.00966
2.95275
2.89678
2.8417
2.78747
2.73404
2.68138
2.62946
2.57825
2.52771
2.47783
2.42858
2.37995
2.33192
2.28448
2.23763
2.19135
2.14565
2.10051
2.05591
2.01182
1.96824
1.92511
1.8824
1.84002
1.79786
1.75578
1.71361
1.67113
1.6281
1.58424
1.53923
1.49274
1.4444
1.39382
1.34053
1.28396
1.22295
1.155
1.08072
1.00269
0.923969
0.84764
0.776394
0.71216
0.655979
0.60803
0.56788
0.534627
0.507273
0.484716
0.466523
0.450543
0.440487
0.428858
0.428997
0.423214
0.580948
0.721697
0.827641
0.908476
0.971414
1.02157
1.06331
1.10054
1.13633
1.17312
1.21278
1.25684
1.30582
1.3597
1.41828
1.48122
1.5482
1.61891
1.69311
1.77055
1.85107
1.93448
2.02064
2.10939
2.20057
2.29399
2.38947
2.4868
2.58579
2.68621
2.78786
2.8905
2.99378
3.09739
3.20101
3.30435
3.40709
3.50898
3.6097
3.709
3.80658
3.90222
3.99553
4.08634
4.17444
4.25967
4.34185
4.42086
4.49656
4.56891
4.63783
4.70335
4.76555
4.82459
4.88066
4.93406
4.98513
5.03434
5.08221
5.12939
5.17657
5.22457
5.27417
5.32612
5.38104
5.43954
5.50209
5.56897
5.64015
5.7153
5.79403
5.8751
5.95705
6.03818
6.1165
6.18983
6.25603
6.31305
6.35907
6.39256
6.41233
6.41744
6.40881
6.38575
6.34857
6.29841
6.23649
6.16417
6.08288
5.99397
5.89882
5.79882
5.69529
5.58938
5.48216
5.37446
5.267
5.16044
5.05532
4.95196
4.85059
4.75138
4.65447
4.5599
4.46772
4.37793
4.29051
4.2054
4.12256
4.0419
3.96335
3.88682
3.81224
3.73952
3.66857
3.59931
3.53168
3.46557
3.40092
3.33764
3.27565
3.21486
3.15523
3.09668
3.03916
2.98262
2.92701
2.87229
2.8184
2.76531
2.71296
2.66132
2.61036
2.56004
2.51034
2.46122
2.41266
2.36466
2.31718
2.27021
2.22374
2.17776
2.13222
2.08709
2.04236
1.99797
1.95386
1.90997
1.86617
1.82235
1.77832
1.7339
1.68885
1.6429
1.59577
1.54712
1.49662
1.44386
1.38838
1.32956
1.26626
1.19612
1.12037
1.04134
0.961894
0.884951
0.813059
0.748056
0.690937
0.641893
0.600515
0.565981
0.537326
0.513512
0.493881
0.476881
0.463922
0.450902
0.448688
0.441988
0.556015
0.680639
0.778867
0.856895
0.920817
0.974763
1.02205
1.0655
1.10758
1.15028
1.19495
1.24248
1.29353
1.34836
1.40703
1.46947
1.53554
1.60509
1.67799
1.75408
1.83327
1.91541
2.00042
2.08815
2.17846
2.27121
2.3662
2.46327
2.56223
2.66286
2.76488
2.86803
2.97205
3.07669
3.18165
3.28666
3.3914
3.4956
3.59895
3.7012
3.80208
3.90149
3.99899
4.09428
4.18704
4.27704
4.36404
4.44788
4.52836
4.6054
4.67865
4.74816
4.81391
4.87599
4.9345
4.98966
5.04172
5.09109
5.13822
5.18371
5.22825
5.27265
5.31775
5.36445
5.41365
5.46627
5.52291
5.58408
5.64998
5.72053
5.79518
5.87318
5.95331
6.03417
6.11329
6.18867
6.25811
6.31944
6.37063
6.40996
6.43608
6.44721
6.44495
6.42818
6.39665
6.35279
6.2968
6.22976
6.15299
6.06786
5.97578
5.87815
5.77626
5.67161
5.56527
5.45806
5.35056
5.24388
5.13845
5.0346
4.93263
4.83275
4.7351
4.63977
4.5468
4.45622
4.368
4.28211
4.19851
4.11712
4.03787
3.96069
3.88548
3.81217
3.74068
3.67092
3.60285
3.53639
3.47144
3.40792
3.34573
3.28481
3.22508
3.16648
3.10894
3.05242
2.99688
2.94225
2.88848
2.83551
2.78329
2.73178
2.68094
2.63071
2.58107
2.53197
2.48338
2.43528
2.38763
2.3404
2.29358
2.24713
2.20101
2.15519
2.10962
2.06426
2.01904
1.97388
1.92869
1.88333
1.83765
1.79147
1.74457
1.69671
1.64759
1.59692
1.54434
1.48948
1.43184
1.3707
1.30468
1.23251
1.15557
1.07599
0.996406
0.919522
0.847694
0.782616
0.7252
0.675617
0.633474
0.59801
0.568316
0.543401
0.522549
0.504637
0.489879
0.475936
0.470314
0.465272
0.519222
0.634552
0.727427
0.803538
0.868218
0.92499
0.976459
1.02473
1.07159
1.11848
1.16653
1.21649
1.26896
1.32425
1.38258
1.44402
1.50861
1.57631
1.64712
1.72097
1.79785
1.87766
1.96037
2.04588
2.1341
2.22493
2.31825
2.41389
2.51165
2.61134
2.71271
2.81554
2.9196
3.02463
3.13038
3.23656
3.3429
3.44909
3.55482
3.65976
3.7636
3.866
3.96669
4.06544
4.16195
4.25595
4.34717
4.43536
4.52032
4.60191
4.67994
4.75415
4.82436
4.89053
4.95263
5.01078
5.06512
5.11594
5.16358
5.20856
5.25151
5.29319
5.33446
5.37634
5.41988
5.46585
5.5151
5.56832
5.62599
5.68825
5.75496
5.82556
5.89915
5.97442
6.04969
6.12303
6.19233
6.25545
6.31022
6.35476
6.38742
6.40695
6.41175
6.40348
6.38105
6.34444
6.29495
6.23388
6.1625
6.08223
5.99446
5.9006
5.80195
5.70009
5.59613
5.4909
5.38448
5.27937
5.17551
5.07311
4.97238
4.87358
4.77684
4.6823
4.59
4.5
4.41229
4.32687
4.24368
4.16267
4.08379
4.00697
3.93209
3.85914
3.78805
3.71861
3.65087
3.5848
3.52029
3.45723
3.39555
3.33517
3.27601
3.218
3.16106
3.10518
3.05031
2.99639
2.94332
2.89106
2.83955
2.78874
2.73857
2.68899
2.63994
2.59139
2.54327
2.49556
2.44821
2.40117
2.35443
2.30791
2.2616
2.21543
2.16935
2.12332
2.07727
2.03112
1.98477
1.93811
1.89099
1.84324
1.79466
1.74503
1.69407
1.64149
1.58693
1.53001
1.47018
1.40659
1.33777
1.26391
1.18621
1.10661
1.0275
0.95135
0.880275
0.815785
0.758679
0.709084
0.666619
0.63057
0.600097
0.574268
0.552368
0.533459
0.517331
0.502965
0.490564
0.483146
0.475541
0.584403
0.673966
0.749167
0.814717
0.873762
0.928488
0.980487
1.03109
1.0813
1.13198
1.18373
1.23707
1.29232
1.34978
1.40962
1.472
1.53702
1.60477
1.67529
1.74865
1.82485
1.9039
1.98577
2.07042
2.15778
2.24778
2.34028
2.43513
2.53219
2.63124
2.73211
2.83457
2.9384
3.04336
3.14921
3.25568
3.36251
3.46941
3.57613
3.6823
3.78761
3.89173
3.99437
4.0952
4.19391
4.29015
4.38363
4.47397
4.56088
4.64405
4.72335
4.79854
4.86952
4.93613
4.99837
5.05623
5.10988
5.15946
5.20536
5.248
5.2881
5.32639
5.36389
5.40152
5.44026
5.48096
5.5245
5.57147
5.62231
5.67712
5.73579
5.79778
5.86233
5.92827
5.9941
6.05811
6.11826
6.17255
6.21899
6.2559
6.2821
6.29402
6.29429
6.28123
6.25471
6.21532
6.16395
6.10184
6.03018
5.95038
5.86381
5.77184
5.67589
5.57719
5.47666
5.37478
5.27316
5.17224
5.07242
4.97402
4.87733
4.78252
4.68972
4.59904
4.51051
4.42419
4.34005
4.25809
4.17824
4.10048
4.02474
3.95091
3.87901
3.80896
3.74041
3.67386
3.60908
3.54588
3.48416
3.42383
3.36482
3.30702
3.2504
3.19483
3.14034
3.08683
3.03425
2.98252
2.93159
2.88139
2.83186
2.78295
2.73458
2.68669
2.63921
2.59209
2.54527
2.49869
2.4523
2.40605
2.35989
2.31374
2.26757
2.22131
2.17491
2.12829
2.08139
2.03411
1.98634
1.93795
1.88879
1.83867
1.78739
1.73468
1.68024
1.62371
1.56468
1.50251
1.43605
1.36511
1.29012
1.21221
1.1332
1.05523
0.980489
0.910838
0.84757
0.791343
0.742226
0.699845
0.663536
0.632527
0.605964
0.583163
0.563313
0.546028
0.53078
0.516432
0.506537
0.430858
0.535583
0.623493
0.6984
0.76481
0.825682
0.882882
0.937668
0.991017
1.04364
1.09614
1.14897
1.20254
1.25717
1.31317
1.37078
1.43025
1.49178
1.55556
1.62175
1.69049
1.76188
1.836
1.91291
1.99263
2.07514
2.16042
2.24839
2.33895
2.43198
2.52734
2.62486
2.72436
2.82566
2.92853
3.03276
3.13811
3.24434
3.35118
3.45837
3.5656
3.67257
3.77895
3.88444
3.98869
4.09136
4.1921
4.29056
4.38638
4.4792
4.5686
4.65427
4.73586
4.8131
4.88571
4.95352
5.01638
5.07426
5.12717
5.17531
5.21895
5.25868
5.2951
5.32906
5.36142
5.39301
5.42482
5.45758
5.49215
5.52893
5.5685
5.61096
5.65651
5.70494
5.75587
5.80845
5.86146
5.91336
5.9623
6.00644
6.04404
6.07348
6.0934
6.10093
6.09753
6.08134
6.05287
6.01259
5.96139
5.90035
5.83074
5.75387
5.67109
5.58371
5.49298
5.39988
5.30533
5.21016
5.11505
5.0205
4.92693
4.83465
4.7439
4.65485
4.56763
4.48232
4.399
4.31768
4.23838
4.16105
4.08569
4.01226
3.94066
3.87091
3.80294
3.73647
3.67184
3.60888
3.5475
3.48758
3.42905
3.37185
3.31587
3.26108
3.20721
3.15468
3.10323
3.0527
3.00305
2.95418
2.90597
2.85836
2.81131
2.76474
2.71857
2.67274
2.62716
2.58175
2.53645
2.49119
2.4459
2.4005
2.35493
2.30914
2.26305
2.2166
2.16972
2.12235
2.07439
2.02574