/*--------------------------------*- C++ -*----------------------------------*\
  =========                 |
  \\      /  F ield         | OpenFOAM: The Open Source CFD Toolbox
   \\    /   O peration     | Website:  https://openfoam.org
    \\  /    A nd           | Version:  8
     \\/     M anipulation  |
\*---------------------------------------------------------------------------*/
FoamFile
{
    version     2.0;
    format      ascii;
    class       volScalarField;
    location    "50";
    object      nut;
}
// * * * * * * * * * * * * * * * * * * * * * * * * * * * * * * * * * * * * * //

dimensions      [0 2 -1 0 0 0 0];

internalField   nonuniform List<scalar> 
12225
(
4.14852e-05
3.93533e-05
3.74748e-05
3.54469e-05
3.37803e-05
3.24402e-05
3.15138e-05
3.0942e-05
3.09547e-05
3.11656e-05
3.16672e-05
3.22537e-05
3.33518e-05
3.40913e-05
3.54331e-05
3.62685e-05
3.75276e-05
3.95397e-05
0.000332118
0.000215283
0.000179118
0.000157761
0.000146024
0.000138207
0.000132454
0.00013168
0.000129338
0.000130108
0.000129001
0.000129533
0.00012866
0.000128759
0.000128166
0.00012776
0.00012794
0.000126504
0.000668358
0.000451146
0.000355285
0.000310057
0.000274617
0.000251185
0.000230861
0.000217115
0.000201685
0.000191173
0.000181453
0.000173697
0.000168152
0.000161553
0.000158901
0.000152679
0.000152099
0.00014595
0.000801912
0.000692187
0.00057168
0.000500517
0.00044839
0.000412175
0.000379496
0.000355732
0.000332408
0.000313822
0.000296144
0.000279684
0.000267836
0.000252518
0.000244758
0.000231466
0.000225345
0.000213553
0.000839676
0.000810513
0.000739945
0.000676985
0.000622948
0.000581523
0.000544602
0.000514053
0.000487908
0.000463023
0.000443728
0.000421352
0.000407006
0.000386575
0.000375391
0.000357098
0.000347622
0.000330109
0.000850345
0.000843334
0.000819495
0.00078679
0.000750049
0.000715872
0.000684844
0.000655479
0.00063127
0.000605978
0.000587116
0.000564544
0.000549343
0.000528967
0.000516114
0.000497563
0.000486356
0.000467878
0.000851566
0.000851046
0.00084329
0.000833551
0.000816781
0.000796865
0.00077737
0.000756159
0.00073804
0.000717861
0.00070205
0.000683399
0.00066962
0.000652443
0.000640277
0.000624167
0.00061349
0.000596937
0.000851565
0.000851845
0.000850008
0.000847498
0.000841311
0.00083361
0.000824622
0.000813051
0.000802312
0.000789614
0.000778696
0.000765998
0.00075561
0.000743251
0.000733557
0.000721504
0.000712662
0.000699893
0.000851659
0.000851554
0.000851002
0.000850348
0.000848859
0.000846098
0.00084294
0.000838089
0.000833151
0.000826868
0.000820594
0.000813887
0.000807294
0.000799943
0.000793375
0.000785786
0.000779344
0.000770973
0.000851745
0.0008514
0.000851041
0.000850628
0.000850243
0.000849331
0.000848362
0.000846675
0.000844819
0.000842299
0.000839591
0.000836337
0.000833159
0.00082933
0.000825848
0.00082159
0.000818017
0.000813086
0.000851779
0.000851367
0.000851012
0.000850611
0.000850322
0.000849884
0.000849496
0.000848874
0.000848222
0.000847277
0.000846294
0.000844949
0.000843669
0.000841946
0.000840447
0.000838352
0.000836775
0.000834246
0.000851785
0.000851367
0.000850995
0.000850606
0.000850284
0.000849924
0.000849621
0.000849243
0.000848899
0.000848431
0.000847997
0.000847377
0.000846826
0.000846027
0.000845371
0.00084438
0.000843652
0.000842462
0.000851783
0.000851371
0.000850985
0.000850607
0.000850263
0.000849916
0.000849611
0.000849285
0.000849003
0.000848676
0.000848394
0.000848042
0.000847742
0.000847344
0.000847016
0.000846561
0.000846203
0.000845688
0.00085178
0.000851372
0.000850978
0.000850607
0.000850253
0.000849911
0.000849595
0.00084928
0.000848995
0.000848703
0.000848443
0.000848169
0.000847925
0.000847665
0.000847434
0.000847183
0.000846961
0.000846715
0.000851779
0.00085137
0.000850974
0.000850603
0.000850246
0.000849907
0.000849586
0.000849276
0.000848985
0.000848702
0.000848437
0.000848181
0.000847941
0.000847712
0.000847497
0.000847294
0.000847104
0.000846927
0.000851778
0.000851368
0.00085097
0.000850599
0.000850241
0.000849903
0.00084958
0.000849272
0.00084898
0.000848701
0.000848435
0.000848185
0.000847944
0.000847723
0.000847509
0.000847316
0.000847129
0.000846961
0.000851778
0.000851367
0.000850967
0.000850595
0.000850237
0.000849897
0.000849577
0.000849267
0.00084898
0.000848698
0.000848439
0.000848188
0.000847954
0.000847732
0.000847525
0.000847329
0.00084715
0.000846977
0.000851777
0.000851366
0.000850965
0.000850592
0.000850234
0.000849894
0.000849574
0.000849266
0.00084898
0.0008487
0.000848444
0.000848194
0.000847965
0.000847745
0.00084754
0.000847348
0.000847166
0.000847
0.000851777
0.000851364
0.000850965
0.000850591
0.000850235
0.000849895
0.000849577
0.00084927
0.000848986
0.000848709
0.000848454
0.000848208
0.000847979
0.000847762
0.000847559
0.000847366
0.000847187
0.000847018
0.000851778
0.000851363
0.000850965
0.000850591
0.000850235
0.000849899
0.000849581
0.000849279
0.000848995
0.000848723
0.000848469
0.000848227
0.000848001
0.000847784
0.000847585
0.000847391
0.000847214
0.000847043
0.000851777
0.000851365
0.000850965
0.000850595
0.000850238
0.000849907
0.000849588
0.000849292
0.000849006
0.000848742
0.000848484
0.000848248
0.000848016
0.000847802
0.000847592
0.000847398
0.000847206
0.00084703
0.000851775
0.000851368
0.000850966
0.000850602
0.000850245
0.00084992
0.000849599
0.000849304
0.000849006
0.000848728
0.000848438
0.000848165
0.000847874
0.000847598
0.000847296
0.000847015
0.000846699
0.000846414
0.000851769
0.000851379
0.000850968
0.00085062
0.000850247
0.000849905
0.000849504
0.000849093
0.000848588
0.000848057
0.000847409
0.000846744
0.00084595
0.000845165
0.000844238
0.00084337
0.00084233
0.000841422
0.00085176
0.000851423
0.000850959
0.000850558
0.000849872
0.000848995
0.000847658
0.000846054
0.000844021
0.000841802
0.000839186
0.00083652
0.000833513
0.000830612
0.000827378
0.000824421
0.000821065
0.000818206
0.000851844
0.000851399
0.00085018
0.00084828
0.000844495
0.000839444
0.000832896
0.000825856
0.000818251
0.00081041
0.00080215
0.000794306
0.000786179
0.000778738
0.000770972
0.000764146
0.000756788
0.000750702
0.000852098
0.000847698
0.000839899
0.000827249
0.000808772
0.00078987
0.000770255
0.000751855
0.000733882
0.00071764
0.000701878
0.000687912
0.000674202
0.00066227
0.000650233
0.000640064
0.000629338
0.000620712
0.00084329
0.000822618
0.000775115
0.000726689
0.000685059
0.000650239
0.000618865
0.000592652
0.000569138
0.000549252
0.000530849
0.000515296
0.000500354
0.00048778
0.000475258
0.000464984
0.000454178
0.000445652
0.000796053
0.000668397
0.000570599
0.000510184
0.000465813
0.000431625
0.000404547
0.000383122
0.000364848
0.000349915
0.000336852
0.000326073
0.000315814
0.000307466
0.000299535
0.000292983
0.000286238
0.000280973
0.000501289
0.000348497
0.000292718
0.000259326
0.000236503
0.000221299
0.000211796
0.000204119
0.000198708
0.000195318
0.000192431
0.000190571
0.000188835
0.000187605
0.000186453
0.000185573
0.000184793
0.000184192
7.27352e-05
7.02307e-05
6.79483e-05
6.56205e-05
6.33753e-05
6.12872e-05
5.94793e-05
5.7963e-05
5.66868e-05
5.56922e-05
5.49367e-05
5.43772e-05
5.40357e-05
5.38021e-05
5.37613e-05
5.37788e-05
5.39458e-05
5.41225e-05
2.79133e-05
0.000179316
0.000226859
5.00237e-05
4.93032e-05
4.92579e-05
4.88663e-05
4.85251e-05
4.62721e-05
4.19553e-05
3.976e-05
3.94195e-05
3.95521e-05
3.80632e-05
3.50164e-05
3.28335e-05
3.37128e-05
3.87509e-05
4.55017e-05
4.80706e-05
4.87745e-05
5.16043e-05
5.63585e-05
6.16612e-05
6.69703e-05
7.28716e-05
7.79425e-05
8.25564e-05
8.67734e-05
9.05702e-05
9.40416e-05
9.72322e-05
0.000100168
0.000102904
0.000105441
0.000107836
0.000110068
0.000112197
0.000114189
0.000116107
0.000117909
0.000119657
0.000121303
0.00012291
0.000124422
0.000125902
0.000127293
0.000128661
0.000129952
0.000131231
0.000132431
0.000133614
0.000134712
0.000135795
0.0001368
0.000137817
0.000138716
0.000139574
0.000140372
0.000141181
0.000141993
0.000142804
0.000143244
0.000143988
0.000144941
0.000145018
0.000145625
0.000146027
0.00014531
0.000146773
0.000150078
0.000146633
0.000148815
0.000148876
0.000145879
0.000151777
0.000149327
0.000151816
0.000148452
0.000151477
0.000141662
0.000143401
0.000141941
0.000141231
0.000140006
0.00013873
0.000137168
0.000134624
0.00013658
0.000133348
0.000132755
0.000131563
0.00013001
0.000128514
0.000127012
0.00012548
0.000123943
0.000122402
0.000120859
0.000119322
0.000117788
0.000116266
0.000114754
0.000113264
0.000111833
0.000110294
0.000108819
0.000107372
0.000105951
0.000104552
0.000103187
0.000101846
0.00010053
9.9242e-05
9.79746e-05
9.66514e-05
9.54644e-05
9.46038e-05
9.38154e-05
9.3044e-05
9.22835e-05
9.15326e-05
9.07923e-05
9.00563e-05
8.93346e-05
8.86234e-05
8.78938e-05
8.72089e-05
8.64865e-05
8.57597e-05
8.51954e-05
8.45213e-05
8.38067e-05
8.30588e-05
8.23085e-05
8.15569e-05
8.08257e-05
8.01231e-05
7.94221e-05
7.86976e-05
7.79523e-05
7.71982e-05
7.64531e-05
7.57166e-05
7.4984e-05
7.4255e-05
7.35487e-05
7.28706e-05
7.22398e-05
7.16535e-05
7.11592e-05
7.07552e-05
7.04804e-05
7.03687e-05
7.0367e-05
7.05755e-05
7.07623e-05
7.09314e-05
7.05324e-05
6.94355e-05
6.69904e-05
6.42465e-05
5.95714e-05
5.59207e-05
5.31124e-05
5.01789e-05
5.17551e-05
5.28447e-05
0.000217851
0.00020953
0.000202578
0.00019015
0.000195899
0.000192904
0.000183764
0.000185266
0.000176319
0.000175331
0.000176036
0.000170502
5.44263e-05
0.000111416
0.00017788
0.000229253
0.000262781
0.000281082
0.000288294
0.000285171
0.000267769
0.000231199
0.000201945
0.000187356
0.000181007
0.00018476
0.000191368
0.00020107
0.000210714
0.000212865
0.000212085
0.000213809
0.000220102
0.000230967
0.000245698
0.000261479
0.000277736
0.000294741
0.000312177
0.000329929
0.000350976
0.000372872
0.00039532
0.000418048
0.000440918
0.000463726
0.000486364
0.000508689
0.000530676
0.000552241
0.00057343
0.000594199
0.000614644
0.000634738
0.000654609
0.000674237
0.00069377
0.000713186
0.000732636
0.00075207
0.000771616
0.000791187
0.000810893
0.000830633
0.000850522
0.000870414
0.000890385
0.000910195
0.000929811
0.000949048
0.000967783
0.000985473
0.0010019
0.00101648
0.0010309
0.00104583
0.00106004
0.00107338
0.00108721
0.0010991
0.00111657
0.00113482
0.00115785
0.00116661
0.00117679
0.00117623
0.00119341
0.0012067
0.00120157
0.00122964
0.00122906
0.00123761
0.00123206
0.00123297
0.00122972
0.00122556
0.00121966
0.00121306
0.00120552
0.00119824
0.00119872
0.00118525
0.00117716
0.00116501
0.00115358
0.00114269
0.00113153
0.00112015
0.0011087
0.00109719
0.00108569
0.00107425
0.00106292
0.00105171
0.0010407
0.00103005
0.0010201
0.00101021
0.00100044
0.000990835
0.000981339
0.000971972
0.000962748
0.000953657
0.000944657
0.000935704
0.00092665
0.00091703
0.000905974
0.000894182
0.000882075
0.000869891
0.000857719
0.000845613
0.000833566
0.000821576
0.000809631
0.000797811
0.000786006
0.000774323
0.000762773
0.000751029
0.000740179
0.000729019
0.00071791
0.000706901
0.000696121
0.000685672
0.000675463
0.000665483
0.000655459
0.000645418
0.000635487
0.000625791
0.000616406
0.000607281
0.000598345
0.000589657
0.000581296
0.000573281
0.000565604
0.000558201
0.000551133
0.00054456
0.000538315
0.000532898
0.000527503
0.000522652
0.000517092
0.000510108
0.000499688
0.000483888
0.000458601
0.000432425
0.000391364
0.000356938
0.000321535
0.000282153
0.000274122
0.000263229
0.000347194
0.000388141
0.000399733
0.000390314
0.000403845
0.00040401
0.000400324
0.000384912
0.000380588
0.000381657
0.000380743
0.000350266
8.75008e-05
0.000180527
0.000270658
0.000338802
0.000386113
0.000415019
0.000428326
0.000430377
0.000424154
0.000411993
0.000399169
0.000390674
0.000386753
0.00038576
0.000382788
0.000382586
0.000386228
0.000396489
0.000410493
0.000427817
0.000449337
0.000475473
0.000504843
0.000540523
0.000582252
0.000628164
0.000678036
0.000731895
0.000783258
0.000833143
0.000882894
0.000931885
0.000979824
0.00102648
0.00107164
0.00111521
0.00115723
0.00119774
0.00123687
0.00127471
0.0013114
0.00134708
0.00138188
0.00141592
0.00144935
0.00148225
0.00151474
0.00154688
0.00157875
0.0016104
0.00164187
0.00167318
0.00170436
0.00173537
0.00176621
0.00179681
0.00182713
0.00185707
0.00188654
0.00191539
0.00194362
0.00197122
0.00199873
0.00202599
0.00205269
0.00207894
0.00210476
0.00213003
0.00215583
0.0021805
0.0022037
0.00222152
0.0022389
0.00224822
0.00226329
0.00228098
0.00229149
0.00230673
0.00231074
0.00231436
0.00231189
0.00230897
0.00230304
0.00229508
0.00228518
0.00227385
0.00226138
0.0022485
0.00223662
0.00221891
0.00220188
0.00218262
0.00216302
0.00214315
0.00212281
0.00210211
0.00208118
0.0020601
0.00203898
0.0020179
0.00199691
0.00197609
0.00195553
0.00193535
0.00191575
0.00189666
0.00187755
0.0018586
0.00183981
0.0018212
0.00180278
0.00178453
0.00176643
0.00174839
0.00173028
0.00171179
0.00169244
0.00167241
0.00165199
0.00163138
0.00161069
0.00159001
0.00156936
0.00154874
0.00152815
0.00150765
0.00148718
0.0014668
0.00144654
0.00142617
0.00140631
0.00138671
0.00136737
0.00134826
0.00132973
0.0013124
0.00129572
0.00127957
0.00126307
0.00124652
0.00123041
0.00121503
0.00120052
0.00118672
0.00117336
0.00116071
0.00114897
0.00113819
0.00112826
0.00111905
0.00111064
0.00110322
0.0010967
0.00109139
0.00108658
0.00108219
0.00107688
0.00106892
0.00105506
0.00103182
0.000993068
0.000944379
0.000877238
0.0008071
0.000738244
0.000665077
0.000621832
0.00058477
0.000593332
0.000598397
0.000590559
0.000575878
0.000573947
0.000568599
0.000571392
0.000555425
0.000545834
0.000553725
0.000550637
0.000520726
0.000115873
0.000247905
0.00036073
0.000440062
0.000490333
0.000517386
0.000526425
0.000522643
0.000512079
0.000500483
0.000492494
0.000490442
0.000494115
0.000502128
0.000513687
0.000528323
0.000545463
0.000566165
0.000594938
0.000634862
0.000683039
0.000739346
0.000803558
0.00087043
0.000938533
0.00100884
0.00108011
0.00115106
0.00122013
0.0012875
0.00135324
0.00141706
0.00147881
0.00153839
0.00159578
0.00165101
0.00170417
0.00175536
0.00180474
0.00185243
0.00189861
0.0019434
0.00198696
0.00202941
0.0020709
0.00211152
0.00215139
0.0021906
0.00222924
0.00226737
0.00230504
0.00234232
0.00237923
0.00241579
0.00245203
0.00248793
0.00252351
0.00255874
0.0025936
0.00262806
0.0026621
0.00269576
0.00272915
0.00276216
0.00279464
0.00282647
0.00285748
0.00288754
0.00291659
0.00294403
0.00296943
0.00299214
0.00301278
0.00303197
0.00304368
0.00305508
0.00307136
0.00308296
0.00308864
0.00309104
0.00308977
0.00308599
0.00307944
0.00307043
0.00305917
0.00304593
0.00303098
0.00301456
0.00299679
0.00297644
0.00295496
0.002932
0.00290812
0.00288353
0.0028583
0.00283256
0.00280645
0.00278007
0.00275353
0.00272694
0.00270036
0.00267386
0.00264754
0.00262148
0.00259582
0.00257075
0.00254548
0.00252037
0.00249541
0.00247062
0.00244602
0.00242158
0.00239727
0.00237305
0.00234879
0.00232432
0.00229939
0.00227402
0.00224831
0.00222238
0.00219633
0.00217023
0.0021441
0.00211797
0.00209186
0.00206577
0.00203971
0.0020137
0.00198776
0.00196182
0.00193613
0.00191069
0.00188553
0.00186063
0.00183613
0.00181235
0.00178919
0.00176666
0.00174514
0.00172479
0.00170541
0.00168745
0.00167098
0.00165581
0.00164095
0.00162737
0.00161538
0.00160504
0.00159604
0.0015881
0.0015814
0.00157611
0.00157227
0.00156994
0.00156862
0.00156785
0.00156645
0.00156207
0.00155094
0.00152809
0.00148712
0.00142791
0.00134639
0.00125142
0.0011521
0.00105013
0.000966342
0.000896539
0.000850148
0.000815968
0.000780061
0.000755664
0.000745449
0.000719566
0.000729459
0.000707525
0.000692819
0.0007038
0.000697901
0.000673842
0.000143196
0.000307377
0.000440524
0.000529209
0.000581239
0.000607275
0.000612745
0.000606136
0.000595735
0.000587985
0.000586372
0.000591746
0.000605254
0.00062228
0.0006414
0.000671047
0.000711867
0.000764931
0.000826138
0.000892253
0.00096478
0.00104244
0.00112349
0.00120584
0.00128858
0.00137128
0.00145312
0.00153335
0.00161169
0.00168801
0.00176218
0.00183406
0.00190356
0.00197065
0.00203537
0.00209779
0.00215806
0.00221605
0.00227193
0.00232583
0.00237787
0.0024282
0.00247693
0.0025242
0.0025701
0.00261477
0.0026583
0.0027008
0.00274235
0.00278304
0.00282295
0.00286215
0.0029007
0.00293865
0.00297606
0.00301297
0.00304942
0.00308544
0.00312107
0.00315633
0.00319126
0.00322586
0.00326007
0.00329379
0.00332687
0.00335917
0.00339049
0.00342064
0.00344946
0.00347666
0.00350197
0.00352516
0.00354622
0.00356473
0.00358217
0.00358917
0.00360129
0.00361488
0.00362153
0.00362431
0.00362375
0.00362028
0.00361401
0.00360513
0.00359381
0.00358023
0.0035646
0.00354708
0.00352776
0.00350656
0.00348388
0.00345982
0.00343467
0.00340859
0.00338174
0.00335426
0.00332627
0.00329791
0.00326926
0.00324043
0.0032115
0.00318252
0.00315358
0.00312474
0.00309606
0.00306755
0.00303913
0.0030108
0.0029826
0.0029545
0.00292653
0.00289865
0.00287086
0.0028431
0.00281532
0.0027874
0.00275924
0.0027308
0.00270209
0.00267316
0.00264407
0.00261486
0.00258558
0.00255624
0.00252686
0.00249746
0.00246806
0.00243867
0.0024093
0.00237995
0.00235073
0.00232168
0.00229284
0.00226424
0.00223597
0.00220819
0.00218093
0.00215423
0.00212829
0.00210328
0.00207939
0.00205795
0.00203867
0.00202175
0.0020069
0.00199433
0.00198412
0.0019762
0.00196994
0.00196471
0.00196102
0.00195907
0.00195893
0.00196051
0.00196328
0.00196686
0.00197028
0.00197117
0.00196539
0.00194714
0.00190934
0.00184775
0.00175936
0.00164932
0.00152699
0.00139983
0.00128224
0.00117945
0.00109451
0.00102737
0.000967452
0.000922667
0.000895083
0.000854726
0.000856309
0.000829979
0.000831441
0.000834611
0.000827786
0.000806667
0.000158069
0.000354792
0.000508286
0.000606177
0.000663563
0.00069202
0.000700158
0.00069634
0.000690014
0.000687952
0.000693727
0.000708398
0.000728355
0.000761116
0.000807466
0.000862671
0.000926445
0.000998634
0.00107686
0.00115943
0.00124561
0.00133418
0.0014239
0.00151373
0.00160297
0.00169147
0.00177885
0.00186494
0.00194894
0.00203068
0.00211005
0.00218697
0.00226138
0.00233324
0.00240254
0.0024693
0.00253354
0.00259531
0.00265474
0.00271193
0.00276698
0.00281999
0.00287107
0.00292032
0.00296784
0.00301373
0.00305811
0.00310107
0.00314272
0.00318316
0.0032225
0.00326082
0.00329822
0.00333481
0.00337066
0.00340586
0.00344048
0.00347461
0.00350829
0.00354159
0.00357452
0.00360707
0.0036392
0.00367084
0.0037019
0.00373224
0.00376172
0.00379018
0.00381744
0.00384332
0.00386761
0.00389012
0.00391068
0.00392907
0.0039449
0.00396012
0.00396663
0.00397868
0.00398619
0.00398992
0.0039904
0.0039879
0.00398261
0.00397467
0.00396421
0.0039514
0.00393641
0.00391939
0.00390049
0.00387983
0.00385764
0.00383407
0.00380932
0.00378356
0.00375694
0.00372959
0.00370164
0.0036732
0.00364437
0.00361523
0.00358587
0.00355634
0.00352671
0.00349702
0.00346732
0.00343763
0.00340795
0.00337829
0.00334866
0.00331905
0.00328947
0.00325991
0.00323036
0.00320078
0.00317114
0.00314139
0.00311147
0.00308132
0.00305094
0.00302035
0.00298956
0.00295862
0.00292754
0.00289637
0.00286511
0.00283378
0.00280241
0.00277102
0.00273961
0.00270822
0.00267689
0.00264568
0.00261463
0.00258379
0.00255323
0.00252305
0.00249333
0.00246413
0.00243558
0.00240786
0.00238117
0.00235616
0.00233338
0.00231404
0.00229808
0.00228545
0.002276
0.00226949
0.00226547
0.00226346
0.00226344
0.00226541
0.00226941
0.0022752
0.00228196
0.00228981
0.00229809
0.00230474
0.00230534
0.00229373
0.00226155
0.00220219
0.00211192
0.00199374
0.0018562
0.00170952
0.00156633
0.00143604
0.00132217
0.0012284
0.00114782
0.00108711
0.00102435
0.00097573
0.000972371
0.00094398
0.000947573
0.000939781
0.000940037
0.000920733
0.000154828
0.000385894
0.000558108
0.000668083
0.000735268
0.000771184
0.000786788
0.00079255
0.000795428
0.000802539
0.000817848
0.00084467
0.000885928
0.000937265
0.000999284
0.00106992
0.00114774
0.0012313
0.00131894
0.0014094
0.00150171
0.00159499
0.00168842
0.00178171
0.00187469
0.00196637
0.00205623
0.00214397
0.00222967
0.00231324
0.00239455
0.00247351
0.00255003
0.00262409
0.00269564
0.00276464
0.00283109
0.002895
0.00295643
0.00301545
0.00307211
0.0031265
0.00317867
0.00322873
0.00327675
0.00332283
0.00336706
0.00340954
0.00345037
0.00348966
0.00352751
0.00356405
0.00359937
0.0036336
0.00366684
0.00369921
0.00373081
0.00376175
0.00379213
0.00382202
0.00385149
0.00388058
0.0039093
0.00393764
0.00396555
0.00399296
0.00401977
0.00404586
0.00407108
0.00409527
0.00411824
0.00413982
0.00415978
0.00417793
0.00419407
0.0042079
0.00422037
0.00422723
0.00423684
0.0042419
0.00424375
0.00424266
0.0042388
0.0042323
0.00422328
0.00421187
0.00419824
0.00418254
0.00416494
0.0041456
0.0041247
0.00410242
0.00407893
0.00405438
0.00402891
0.00400266
0.00397574
0.00394825
0.00392028
0.00389192
0.00386322
0.00383424
0.00380504
0.00377566
0.00374614
0.00371651
0.00368678
0.00365696
0.00362707
0.0035971
0.00356707
0.00353697
0.00350678
0.00347651
0.00344612
0.00341559
0.00338488
0.00335396
0.00332281
0.00329143
0.00325984
0.00322805
0.00319609
0.00316398
0.00313174
0.00309941
0.00306699
0.00303451
0.003002
0.00296949
0.00293701
0.00290461
0.00287234
0.00284026
0.00280844
0.00277695
0.00274588
0.00271531
0.00268537
0.00265621
0.00262804
0.00260127
0.00257644
0.00255447
0.00253703
0.00252392
0.00251473
0.00250904
0.00250637
0.00250629
0.00250855
0.002513
0.00251959
0.00252814
0.00253828
0.0025499
0.00256262
0.00257502
0.00258217
0.00257825
0.00255325
0.00249846
0.00240919
0.00228713
0.00214008
0.0019793
0.00181752
0.00166602
0.00153038
0.00141579
0.00131788
0.00124376
0.00115883
0.00109668
0.00108956
0.00105224
0.00104132
0.00104199
0.0010405
0.00101788
0.00014168
0.000466763
0.000612021
0.000714899
0.000792099
0.000843259
0.000873687
0.000893036
0.000908261
0.000927071
0.000957737
0.000999678
0.00105319
0.00111685
0.00118935
0.0012689
0.0013539
0.00144293
0.00153476
0.00162838
0.00172304
0.00181808
0.00191302
0.00200734
0.0021004
0.00219215
0.00228242
0.00237091
0.00245748
0.00254201
0.00262438
0.00270447
0.0027822
0.0028575
0.00293031
0.00300057
0.00306826
0.00313337
0.00319591
0.00325591
0.00331339
0.0033684
0.00342099
0.00347121
0.00351912
0.00356481
0.00360835
0.00364982
0.00368932
0.00372695
0.00376282
0.00379704
0.00382973
0.00386102
0.00389105
0.00391994
0.00394785
0.0039749
0.00400125
0.00402703
0.00405235
0.0040773
0.00410198
0.00412642
0.00415066
0.00417466
0.0041984
0.00422178
0.00424469
0.00426699
0.00428852
0.00430906
0.00432842
0.00434636
0.00436265
0.00437712
0.00439086
0.00440013
0.00440855
0.00441491
0.00441835
0.00441894
0.00441681
0.00441206
0.0044048
0.00439513
0.00438322
0.00436921
0.00435327
0.00433558
0.00431632
0.00429567
0.00427379
0.00425084
0.00422695
0.00420225
0.00417685
0.00415083
0.00412429
0.00409728
0.00406987
0.0040421
0.00401403
0.00398568
0.00395709
0.00392828
0.00389927
0.00387007
0.0038407
0.00381116
0.00378145
0.00375158
0.00372154
0.00369134
0.00366096
0.00363038
0.00359959
0.00356856
0.00353729
0.00350577
0.003474
0.00344199
0.00340978
0.00337738
0.00334482
0.00331213
0.00327932
0.00324642
0.00321348
0.00318051
0.00314756
0.00311468
0.00308191
0.00304931
0.00301696
0.00298492
0.00295331
0.0029222
0.00289171
0.00286202
0.00283332
0.00280595
0.00278039
0.00275746
0.00273867
0.00272518
0.00271615
0.002711
0.00270921
0.00271032
0.002714
0.00272
0.00272816
0.0027383
0.00275019
0.00276363
0.00277833
0.00279335
0.00280587
0.00281053
0.00279352
0.00274417
0.00265716
0.00253362
0.00238089
0.00221056
0.00203578
0.00186893
0.00171719
0.00158668
0.00147494
0.0013888
0.00130071
0.00122782
0.00119207
0.0011492
0.0011365
0.0011341
0.00113109
0.00110806
0.000144914
0.000485347
0.000631796
0.00074362
0.000836249
0.000904437
0.000952248
0.000986612
0.00101693
0.00105165
0.00109453
0.00114794
0.00121071
0.00128198
0.00136037
0.00144434
0.00153249
0.00162365
0.00171684
0.00181129
0.00190639
0.00200162
0.00209634
0.00219009
0.00228276
0.00237427
0.00246434
0.00255278
0.00263944
0.0027242
0.00280691
0.00288747
0.00296576
0.0030417
0.0031152
0.0031862
0.00325464
0.0033205
0.00338373
0.00344435
0.00350234
0.00355772
0.0036105
0.00366072
0.00370841
0.00375363
0.00379642
0.00383687
0.00387503
0.003911
0.00394487
0.00397677
0.00400679
0.00403509
0.00406181
0.0040871
0.00411113
0.00413409
0.00415615
0.0041775
0.00419832
0.00421877
0.00423901
0.00425915
0.00427929
0.00429948
0.00431974
0.00434005
0.00436032
0.00438044
0.00440027
0.00441961
0.00443826
0.00445596
0.00447247
0.00448754
0.00450087
0.0045135
0.00452108
0.00452982
0.00453513
0.00453764
0.00453748
0.00453471
0.00452942
0.00452171
0.00451171
0.00449956
0.00448545
0.00446954
0.00445204
0.00443312
0.00441297
0.00439176
0.00436961
0.00434666
0.00432301
0.00429875
0.00427394
0.00424865
0.00422293
0.0041968
0.00417031
0.00414347
0.00411631
0.00408885
0.0040611
0.00403307
0.00400477
0.00397622
0.00394741
0.00391834
0.00388903
0.00385947
0.00382966
0.00379959
0.00376926
0.00373865
0.00370777
0.0036766
0.00364515
0.00361344
0.00358148
0.00354929
0.00351692
0.00348437
0.00345169
0.0034189
0.00338605
0.00335316
0.00332028
0.00328745
0.00325473
0.00322219
0.00318989
0.00315792
0.00312637
0.00309535
0.00306499
0.00303545
0.00300695
0.0029798
0.00295448
0.00293172
0.0029128
0.00289947
0.00289082
0.00288619
0.00288504
0.00288692
0.00289146
0.00289835
0.00290738
0.00291832
0.00293096
0.00294508
0.00296038
0.00297614
0.00299047
0.00299921
0.00299066
0.00294644
0.00286168
0.00273761
0.00258147
0.00240496
0.0022215
0.00204403
0.00188091
0.00173875
0.00161641
0.00152083
0.00142629
0.00134472
0.00129004
0.00125516
0.0012503
0.00122553
0.00121618
0.00120992
0.000144846
0.000460224
0.000624123
0.000751347
0.00085679
0.000941893
0.00100805
0.0010629
0.00111216
0.00116052
0.00121486
0.00127687
0.00134609
0.00142195
0.00150342
0.00158929
0.00167846
0.00176998
0.00186305
0.00195703
0.0020514
0.00214578
0.0022399
0.00233347
0.002426
0.00251701
0.00260647
0.00269437
0.00278066
0.00286526
0.00294796
0.00302862
0.00310714
0.00318342
0.00325735
0.00332886
0.00339785
0.00346427
0.00352808
0.00358924
0.0036477
0.00370346
0.00375651
0.00380683
0.00385446
0.0038994
0.00394168
0.00398135
0.00401845
0.00405305
0.00408523
0.00411509
0.00414273
0.00416829
0.00419191
0.00421375
0.00423402
0.0042529
0.00427063
0.00428743
0.00430355
0.00431922
0.00433466
0.00435007
0.00436564
0.0043815
0.00439775
0.00441443
0.00443153
0.00444898
0.00446665
0.00448439
0.00450198
0.00451917
0.00453566
0.00455116
0.00456534
0.00457926
0.00458969
0.00459903
0.00460619
0.00461082
0.00461288
0.00461238
0.00460933
0.0046038
0.00459592
0.0045858
0.00457363
0.00455959
0.00454389
0.00452676
0.00450838
0.00448896
0.00446863
0.00444754
0.00442578
0.00440344
0.00438058
0.00435726
0.00433349
0.0043093
0.00428472
0.00425974
0.00423439
0.00420866
0.00418258
0.00415614
0.00412936
0.00410223
0.00407477
0.00404697
0.00401884
0.00399038
0.0039616
0.0039325
0.00390308
0.00387334
0.00384327
0.00381289
0.00378219
0.00375119
0.00371991
0.00368838
0.00365662
0.00362467
0.00359256
0.00356033
0.00352802
0.00349567
0.00346332
0.00343103
0.00339885
0.00336686
0.00333512
0.00330372
0.00327277
0.00324239
0.0032127
0.00318391
0.00315622
0.00312998
0.00310564
0.00308396
0.00306618
0.00305372
0.00304578
0.00304177
0.00304118
0.0030436
0.00304863
0.00305596
0.00306533
0.00307649
0.0030892
0.0031032
0.00311817
0.00313346
0.00314751
0.00315704
0.0031523
0.00311164
0.00302791
0.00290319
0.0027448
0.00256444
0.0023756
0.00219135
0.0020208
0.00187069
0.00174094
0.00163739
0.001542
0.00145635
0.00139176
0.00133609
0.00132939
0.0013047
0.00129106
0.00128296
0.00015716
0.000413436
0.000607459
0.000751668
0.0008721
0.000970471
0.0010513
0.0011204
0.00118394
0.00124527
0.00131008
0.00137911
0.00145314
0.00153201
0.00161512
0.00170165
0.00179079
0.0018818
0.00197406
0.00206701
0.0021602
0.00225322
0.00234598
0.00243837
0.00253011
0.002621
0.00271075
0.00279907
0.00288555
0.00296996
0.00305245
0.00313297
0.00321146
0.00328793
0.00336217
0.00343407
0.00350353
0.00357049
0.00363488
0.00369663
0.00375567
0.00381195
0.00386543
0.0039161
0.00396392
0.0040089
0.00405102
0.0040903
0.00412675
0.00416042
0.00419136
0.00421963
0.00424531
0.00426854
0.00428943
0.00430816
0.00432491
0.0043399
0.00435337
0.0043656
0.00437687
0.00438749
0.00439775
0.00440796
0.00441838
0.00442925
0.00444076
0.00445309
0.00446631
0.00448036
0.00449517
0.00451066
0.00452666
0.00454289
0.00455902
0.00457482
0.00459004
0.00460439
0.00461761
0.00462813
0.00463779
0.00464489
0.00464956
0.0046517
0.00465126
0.00464829
0.00464285
0.00463504
0.00462504
0.00461305
0.00459931
0.00458407
0.00456756
0.00455
0.00453157
0.00451242
0.00449266
0.00447237
0.00445162
0.00443044
0.00440885
0.00438684
0.00436442
0.00434158
0.00431833
0.00429466
0.00427058
0.00424608
0.00422116
0.00419583
0.00417008
0.00414393
0.00411736
0.0040904
0.00406304
0.0040353
0.00400718
0.0039787
0.00394985
0.00392064
0.00389108
0.00386119
0.00383098
0.00380049
0.00376975
0.00373879
0.00370766
0.0036764
0.00364506
0.00361367
0.00358229
0.00355098
0.00351979
0.00348881
0.0034581
0.00342776
0.00339791
0.00336867
0.0033402
0.00331269
0.00328641
0.00326169
0.00323904
0.00321924
0.0032036
0.0031926
0.00318572
0.00318247
0.00318244
0.00318524
0.00319052
0.00319796
0.00320727
0.00321817
0.0032304
0.00324366
0.00325757
0.00327144
0.00328379
0.00329161
0.00328582
0.00324516
0.00316027
0.003034
0.0028738
0.0026912
0.00249954
0.00231168
0.00213703
0.00198219
0.00184802
0.00173862
0.00164208
0.00155521
0.00148692
0.00141891
0.00140619
0.00133279
0.0013485
0.00133555
0.000174608
0.000405145
0.000608696
0.000762839
0.000888568
0.000994684
0.00108526
0.00116377
0.00123432
0.00130368
0.00137586
0.00145094
0.00152918
0.00161059
0.00169489
0.00178164
0.00187035
0.00196052
0.0020517
0.00214347
0.00223547
0.0023274
0.00241902
0.00251006
0.00260037
0.00268992
0.00277858
0.00286627
0.00295278
0.00303797
0.00312154
0.00320312
0.00328233
0.00335911
0.00343361
0.00350581
0.00357564
0.00364302
0.00370803
0.00377045
0.00383018
0.00388714
0.00394125
0.00399249
0.0040408
0.00408613
0.00412846
0.00416776
0.00420401
0.00423723
0.0042674
0.00429457
0.0043188
0.00434017
0.00435879
0.0043748
0.00438838
0.00439973
0.00440911
0.00441681
0.00442315
0.00442849
0.00443321
0.0044377
0.00444234
0.00444745
0.00445332
0.00446015
0.00446809
0.00447733
0.00448797
0.00450016
0.00451391
0.00452897
0.0045448
0.00456098