/*--------------------------------*- C++ -*----------------------------------*\
  =========                 |
  \\      /  F ield         | OpenFOAM: The Open Source CFD Toolbox
   \\    /   O peration     | Website:  https://openfoam.org
    \\  /    A nd           | Version:  8
     \\/     M anipulation  |
\*---------------------------------------------------------------------------*/
FoamFile
{
    version     2.0;
    format      ascii;
    class       volScalarField;
    location    "50";
    object      p;
}
// * * * * * * * * * * * * * * * * * * * * * * * * * * * * * * * * * * * * * //

dimensions      [0 2 -2 0 0 0 0];

internalField   nonuniform List<scalar> 
12225
(
-0.7863
-2.97144
-4.06051
-4.36433
-4.53516
-4.68128
-4.77223
-4.8299
-4.87697
-4.90685
-4.90714
-4.88256
-4.84101
-4.78694
-4.71378
-4.58939
-4.44378
-4.00561
-3.94992
-4.71138
-4.86729
-4.75737
-4.73143
-4.77572
-4.81434
-4.84408
-4.87392
-4.8925
-4.88696
-4.85914
-4.81764
-4.76545
-4.69613
-4.58696
-4.43705
-4.24258
-4.35155
-4.33424
-4.45378
-4.51248
-4.59275
-4.68944
-4.76095
-4.81205
-4.85317
-4.87758
-4.87737
-4.85579
-4.8217
-4.77717
-4.71724
-4.62843
-4.51618
-4.42161
-4.23035
-4.17117
-4.40006
-4.54227
-4.63073
-4.71375
-4.77801
-4.8255
-4.86194
-4.88247
-4.88178
-4.86332
-4.83446
-4.79629
-4.74526
-4.6739
-4.59254
-4.51506
-4.22108
-4.24094
-4.45876
-4.58676
-4.65635
-4.72428
-4.78308
-4.82879
-4.86325
-4.8828
-4.88402
-4.87023
-4.84734
-4.81634
-4.77479
-4.7199
-4.65988
-4.61109
-4.28059
-4.3251
-4.49193
-4.6001
-4.6669
-4.73116
-4.78785
-4.83312
-4.86752
-4.88788
-4.89189
-4.88264
-4.86532
-4.84133
-4.80954
-4.76992
-4.73044
-4.70949
-4.34306
-4.38347
-4.5115
-4.61004
-4.68058
-4.74305
-4.79624
-4.84022
-4.87507
-4.89695
-4.90379
-4.89864
-4.88672
-4.86999
-4.84832
-4.82311
-4.8014
-4.79605
-4.39936
-4.43339
-4.53595
-4.62658
-4.69812
-4.75774
-4.80679
-4.84926
-4.885
-4.90892
-4.91875
-4.91779
-4.91154
-4.90245
-4.89095
-4.87871
-4.87113
-4.87646
-4.45258
-4.48207
-4.56597
-4.64739
-4.71654
-4.7732
-4.81913
-4.86059
-4.89733
-4.92346
-4.93663
-4.94028
-4.93994
-4.93845
-4.93667
-4.93597
-4.94023
-4.95426
-4.50395
-4.52981
-4.59885
-4.67097
-4.73609
-4.78993
-4.83394
-4.87492
-4.91258
-4.94103
-4.95792
-4.96652
-4.97202
-4.97777
-4.98493
-4.99438
-5.00858
-5.0306
-4.55354
-4.57597
-4.63246
-4.69679
-4.75786
-4.80868
-4.8512
-4.89198
-4.93062
-4.96161
-4.98269
-4.99648
-5.00775
-5.02022
-5.03526
-5.05345
-5.07628
-5.10501
-4.59736
-4.61691
-4.66418
-4.7222
-4.7799
-4.82828
-4.86955
-4.90989
-4.94914
-4.98265
-5.00811
-5.02713
-5.04379
-5.06162
-5.08261
-5.10736
-5.13692
-5.17189
-4.63914
-4.65647
-4.69687
-4.74824
-4.80251
-4.8498
-4.89061
-4.93004
-4.969
-5.00472
-5.03502
-5.06028
-5.08257
-5.10538
-5.13108
-5.16099
-5.19647
-5.23646
-4.6848
-4.6998
-4.7349
-4.77914
-4.8289
-4.87628
-4.9183
-4.95695
-4.99448
-5.03157
-5.06754
-5.10039
-5.1302
-5.15886
-5.18937
-5.22356
-5.26378
-5.30808
-4.73377
-4.74644
-4.7778
-4.81603
-4.86025
-4.90743
-4.95251
-4.99212
-5.02814
-5.06543
-5.10587
-5.14704
-5.18583
-5.22198
-5.25784
-5.29617
-5.34019
-5.38801
-4.78496
-4.79615
-4.82396
-4.85846
-4.89757
-4.94298
-4.99147
-5.03513
-5.07203
-5.10895
-5.15192
-5.20016
-5.24839
-5.29357
-5.33596
-5.3785
-5.42538
-5.47551
-4.83631
-4.8464
-4.87142
-4.90493
-4.94137
-4.98394
-5.03453
-5.08394
-5.12518
-5.16326
-5.20741
-5.26008
-5.3167
-5.37117
-5.42116
-5.46862
-5.51871
-5.57095
-4.88415
-4.89382
-4.91726
-4.95147
-4.98853
-5.02983
-5.08129
-5.13587
-5.18337
-5.22544
-5.27185
-5.3277
-5.39012
-5.45246
-5.51011
-5.56316
-5.61645
-5.67002
-4.92166
-4.93199
-4.95583
-4.99163
-5.03213
-5.07613
-5.12958
-5.18817
-5.24186
-5.29007
-5.34116
-5.401
-5.46767
-5.53502
-5.59794
-5.65593
-5.71281
-5.76873
-4.93218
-4.94373
-4.97044
-5.00996
-5.05565
-5.10561
-5.16315
-5.22474
-5.28192
-5.33573
-5.39279
-5.45787
-5.5274
-5.59637
-5.66046
-5.72083
-5.78027
-5.83963
-4.92401
-4.93697
-4.96781
-5.01203
-5.06326
-5.11916
-5.18125
-5.24473
-5.30491
-5.36348
-5.42686
-5.49606
-5.56759
-5.63599
-5.70028
-5.76116
-5.82309
-5.88483
-4.90279
-4.91704
-4.95295
-5.00382
-5.06237
-5.12508
-5.19093
-5.25596
-5.31844
-5.38235
-5.45143
-5.52419
-5.59603
-5.66338
-5.72698
-5.78904
-5.85291
-5.9176
-4.8725
-4.88706
-4.9286
-4.98863
-5.05636
-5.12649
-5.1959
-5.26216
-5.3272
-5.39578
-5.46928
-5.54401
-5.61488
-5.68117
-5.74436
-5.80841
-5.87451
-5.94207
-4.83612
-4.84997
-4.89992
-4.97019
-5.04521
-5.12149
-5.19568
-5.26529
-5.33411
-5.40703
-5.48335
-5.55818
-5.62771
-5.69266
-5.75649
-5.82189
-5.89038
-5.95947
-4.79425
-4.80238
-4.87437
-4.95961
-5.03537
-5.11216
-5.18972
-5.26373
-5.3375
-5.41482
-5.49341
-5.56791
-5.63633
-5.7009
-5.76556
-5.83254
-5.90228
-5.97198
-4.75436
-4.7204
-4.83751
-4.95734
-5.03723
-5.11156
-5.188
-5.26208
-5.33769
-5.41756
-5.49705
-5.57084
-5.63837
-5.70318
-5.76925
-5.8382
-5.90952
-5.98023
-4.7708
-4.61616
-4.75025
-4.90992
-5.01876
-5.1123
-5.1963
-5.27136
-5.34736
-5.42795
-5.50709
-5.57862
-5.64371
-5.70702
-5.77288
-5.84249
-5.91496
-5.98696
-4.89518
-4.71906
-4.74433
-4.81909
-4.92201
-5.04307
-5.14909
-5.23716
-5.32328
-5.41292
-5.49869
-5.57365
-5.63945
-5.70309
-5.76972
-5.84049
-5.9152
-5.99026
-4.60315
-5.19325
-5.2961
-5.17888
-5.13996
-5.18785
-5.24796
-5.30354
-5.36935
-5.44762
-5.52674
-5.5962
-5.65627
-5.71466
-5.77699
-5.84445
-5.91647
-5.99059
-1.61444
-3.38225
-4.39128
-4.69848
-4.86723
-5.03247
-5.15835
-5.24989
-5.33767
-5.43113
-5.52113
-5.59802
-5.66274
-5.72386
-5.788
-5.85688
-5.92884
-5.99861
-7.08656
-7.04995
-7.06596
-7.13346
-7.20721
-7.27208
-7.32623
-7.36861
-7.39996
-7.42361
-7.44401
-7.46164
-7.47497
-7.48588
-7.50055
-7.52056
-7.54451
-7.56492
-7.58895
-7.62054
-7.66017
-7.71162
-7.78212
-7.87829
-8.00499
-8.16471
-8.35746
-8.58199
-8.83407
-9.10999
-9.40353
-9.71092
-10.0257
-10.345
-10.6634
-10.9796
-11.289
-11.5917
-11.8837
-12.1661
-12.4351
-12.6925
-12.9345
-13.1632
-13.3752
-13.5728
-13.7523
-13.916
-14.0603
-14.1876
-14.2939
-14.3811
-14.4439
-14.4835
-14.4946
-14.4779
-14.4275
-14.3438
-14.2215
-14.0613
-13.858
-13.6126
-13.3226
-12.9894
-12.6108
-12.1883
-11.7216
-11.2121
-10.6609
-10.0703
-9.44284
-8.78143
-8.09015
-7.37147
-6.6302
-5.86866
-5.09409
-4.3098
-3.52313
-2.73538
-1.95391
-1.17971
-0.419339
0.327965
1.0558
1.76523
2.45046
3.11211
3.74676
4.35566
4.94066
5.50105
6.03621
6.54599
7.0311
7.49216
7.93025
8.3462
8.74112
9.1159
9.47177
9.80968
10.1307
10.4355
10.7249
10.9997
11.2609
11.5093
11.7457
11.971
12.1857
12.3905
12.586
12.7726
12.951
13.1217
13.2849
13.4408
13.5895
13.7317
13.867
13.9955
14.1174
14.2335
14.3444
14.4493
14.5485
14.6431
14.7322
14.8174
14.8995
14.9767
15.0482
15.1157
15.181
15.244
15.3023
15.3557
15.4067
15.4565
15.5033
15.547
15.5892
15.6299
15.6673
15.7025
15.7356
15.7687
15.803
15.8353
15.8655
15.8933
15.9196
15.9489
15.9813
16.0117
16.0428
16.0736
16.1032
16.1309
16.1543
16.1724
16.1821
16.1906
16.1955
16.1923
16.1904
16.1921
16.1923
16.1905
16.1864
16.1801
16.1733
16.1682
16.1664
16.17
16.1829
16.2097
16.2724
16.359
-7.16258
-7.16625
-7.19492
-7.24738
-7.30898
-7.36632
-7.41223
-7.44345
-7.45984
-7.4628
-7.45721
-7.448
-7.43849
-7.43141
-7.42901
-7.43241
-7.44116
-7.45785
-7.48369
-7.51483
-7.55328
-7.60657
-7.68488
-7.79543
-7.94181
-8.12433
-8.3404
-8.58614
-8.85576
-9.14438
-9.44605
-9.7568
-10.0715
-10.3875
-10.7009
-11.0107
-11.3137
-11.6096
-11.8962
-12.1737
-12.4397
-12.6949
-12.9368
-13.1662
-13.3807
-13.5811
-13.7648
-13.9324
-14.0815
-14.2128
-14.3236
-14.4136
-14.4795
-14.5212
-14.535
-14.5203
-14.4737
-14.3944
-14.2793
-14.1276
-13.9365
-13.7051
-13.4311
-13.114
-12.7523
-12.3463
-11.896
-11.4023
-10.8664
-10.2902
-9.67613
-9.02665
-8.34519
-7.6348
-6.89981
-6.1441
-5.3736
-4.59237
-3.80626
-3.01841
-2.23462
-1.45732
-0.691672
0.060755
0.795388
1.51123
2.2044
2.87382
3.51671
4.13424
4.72765
5.29629
5.83954
6.35741
6.85053
7.31933
7.76497
8.18819
8.59012
8.97157
9.33389
9.67791
10.0048
10.3151
10.6098
10.8897
11.1558
11.4087
11.6497
11.8791
12.0979
12.3066
12.5058
12.6957
12.8769
13.0496
13.2144
13.372
13.5224
13.6657
13.8026
13.9327
14.057
14.1751
14.2868
14.3933
14.4948
14.591
14.6834
14.771
14.8532
14.9311
15.005
15.0755
15.1421
15.2045
15.2636
15.32
15.3734
15.4243
15.473
15.5188
15.5615
15.6021
15.6411
15.6777
15.7149
15.7505
15.7817
15.8119
15.8424
15.8741
15.9064
15.9377
15.9697
16.003
16.0339
16.0643
16.0936
16.1217
16.1461
16.1659
16.1837
16.1954
16.203
16.2085
16.2074
16.2012
16.1946
16.1884
16.1814
16.1732
16.1664
16.1617
16.1595
16.1625
16.1735
16.1966
16.2487
16.3126
-7.2258
-7.24753
-7.27874
-7.32087
-7.36875
-7.41246
-7.44544
-7.46498
-7.47069
-7.46387
-7.4478
-7.42658
-7.40482
-7.38691
-7.37681
-7.37697
-7.38972
-7.41762
-7.46377
-7.52743
-7.60915
-7.711
-7.83616
-7.98683
-8.16344
-8.36489
-8.58855
-8.83154
-9.08997
-9.36097
-9.64065
-9.92663
-10.2155
-10.5057
-10.7945
-11.0812
-11.3633
-11.6406
-11.9111
-12.1749
-12.4299
-12.6763
-12.9122
-13.1377
-13.3508
-13.5514
-13.7376
-13.9093
-14.0643
-14.2024
-14.3209
-14.4191
-14.4945
-14.5457
-14.5699
-14.566
-14.5312
-14.4642
-14.3623
-14.2242
-14.0477
-13.8317
-13.5738
-13.2729
-12.928
-12.5386
-12.1046
-11.6265
-11.1054
-10.543
-9.94135
-9.3028
-8.6305
-7.92782
-7.19893
-6.44841
-5.6815
-4.90268
-4.1167
-3.32785
-2.54103
-1.76017
-0.989322
-0.23155
0.509646
1.23197
1.93263
2.60949
3.26078
3.8867
4.48825
5.06474
5.61548
6.14087
6.64125
7.11725
7.56975
7.9997
8.40794
8.79557
9.16372
9.51333
9.84547
10.1607
10.4602
10.7446
11.0151
11.2722
11.5173
11.7506
11.9733
12.1856
12.3885
12.582
12.767
12.9436
13.1124
13.2735
13.4276
13.5747
13.7152
13.8488
13.9762
14.0972
14.2124
14.3221
14.4268
14.526
14.6204
14.7099
14.7944
14.875
14.9516
15.0241
15.0926
15.1572
15.219
15.2776
15.3327
15.3848
15.4346
15.4818
15.526
15.568
15.6086
15.647
15.6845
15.7204
15.7533
15.7858
15.819
15.8529
15.8859
15.9173
15.949
15.9821
16.0135
16.0443
16.0743
16.1031
16.1294
16.1516
16.1713
16.1855
16.1952
16.203
16.2051
16.2008
16.194
16.1868
16.1789
16.1701
16.1629
16.1577
16.155
16.1568
16.165
16.1826
16.2196
16.2478
-7.1754
-7.21991
-7.25991
-7.29763
-7.33654
-7.37103
-7.39612
-7.40989
-7.41249
-7.40549
-7.39203
-7.37609
-7.3624
-7.35572
-7.36076
-7.38132
-7.42053
-7.48016
-7.5609
-7.66157
-7.78092
-7.91805
-8.07276
-8.24497
-8.43427
-8.63991
-8.86025
-9.09388
-9.33847
-9.59251
-9.85335
-10.1196
-10.3889
-10.66
-10.9309
-11.2009
-11.4679
-11.7318
-11.9906
-12.2443
-12.491
-12.7307
-12.9615
-13.1835
-13.3947
-13.5949
-13.7821
-13.956
-14.1146
-14.2572
-14.3814
-14.4863
-14.5693
-14.629
-14.6627
-14.6689
-14.6451
-14.5896
-14.4999
-14.3743
-14.2106
-14.0072
-13.762
-13.4736
-13.1408
-12.7629
-12.3397
-11.8714
-11.3589
-10.8038
-10.2079
-9.57361
-8.90396
-8.2026
-7.47377
-6.72217
-5.95285
-5.17057
-4.38006
-3.58602
-2.79316
-2.00582
-1.228
-0.463222
0.285258
1.01466
1.7225
2.40656
3.06503
3.69839
4.30671
4.8894
5.44602
5.97684
6.48249
6.96351
7.42084
7.85531
8.26794
8.65978
9.03191
9.38534
9.72096
10.0397
10.3424
10.63
10.9036
11.164
11.4121
11.6485
11.8741
12.0894
12.295
12.4914
12.6791
12.8585
13.03
13.1939
13.3506
13.5003
13.6433
13.7794
13.9091
14.0324
14.1501
14.2622
14.3689
14.4702
14.5665
14.6579
14.7448
14.8274
14.9059
14.9801
15.0504
15.1171
15.1805
15.2403
15.2967
15.3502
15.4011
15.4494
15.495
15.5383
15.5799
15.6195
15.6575
15.6939
15.7288
15.7633
15.7978
15.8319
15.8649
15.8966
15.9284
15.961
15.9926
16.0236
16.054
16.0834
16.1105
16.1341
16.1548
16.1709
16.1826
16.1917
16.1957
16.1939
16.1886
16.1819
16.1742
16.1659
16.1585
16.1525
16.1488
16.1486
16.1533
16.1638
16.1853
16.1875
-6.97353
-7.04553
-7.10713
-7.1537
-7.19467
-7.22904
-7.25482
-7.2724
-7.28381
-7.29139
-7.29797
-7.30679
-7.32183
-7.34699
-7.38595
-7.44121
-7.51438
-7.60577
-7.71493
-7.84075
-7.98214
-8.13805
-8.30766
-8.49041
-8.68545
-8.89212
-9.10917
-9.33579
-9.57038
-9.81218
-10.0594
-10.3113
-10.566
-10.8229
-11.0803
-11.3378
-11.5936
-11.8475
-12.0977
-12.3442
-12.5852
-12.8206
-13.0486
-13.269
-13.48
-13.6812
-13.8707
-14.048
-14.211
-14.359
-14.4896
-14.6018
-14.693
-14.7617
-14.8053
-14.8221
-14.8095
-14.7654
-14.6874
-14.5734
-14.4212
-14.2287
-13.9939
-13.7151
-13.3911
-13.0208
-12.604
-12.1405
-11.6313
-11.0776
-10.4815
-9.84522
-9.17208
-8.46577
-7.73079
-6.97198
-6.1944
-5.40306
-4.60299
-3.79914
-2.99638
-2.19925
-1.4119
-0.638035
0.119056
0.856474
1.5718
2.2628
2.92806
3.56735
4.18128
4.76878
5.32955
5.86406
6.37298
6.85707
7.31714
7.7542
8.16922
8.56343
8.93771
9.29334
9.63089
9.95172
10.2563
10.5462
10.8218
11.0845
11.3346
11.5732
11.8007
12.018
12.2254
12.4237
12.6131
12.7943
12.9674
13.1331
13.2914
13.4428
13.5873
13.7251
13.8562
13.9814
14.1005
14.2143
14.3224
14.4254
14.5233
14.6165
14.705
14.7892
14.8691
14.9449
15.0166
15.0847
15.1493
15.2104
15.2681
15.3229
15.375
15.4243
15.4711
15.5154
15.5578
15.5984
15.6371
15.6745
15.7106
15.746
15.7809
15.8149
15.8479
15.88
15.9117
15.9437
15.9751
16.0059
16.0361
16.0653
16.0925
16.1167
16.1379
16.1551
16.1684
16.1784
16.1837
16.1838
16.1803
16.1746
16.1677
16.1601
16.1525
16.1458
16.1408
16.1382
16.139
16.1421
16.1498
16.1334
-6.68473
-6.78573
-6.87613
-6.94056
-6.99155
-7.03222
-7.06498
-7.09353
-7.12188
-7.15318
-7.18992
-7.23393
-7.28732
-7.35176
-7.42884
-7.51956
-7.62459
-7.74379
-7.87668
-8.02241
-8.18005
-8.34882
-8.52789
-8.71668
-8.91441
-9.12067
-9.33446
-9.55546
-9.78251
-10.0153
-10.2526
-10.494
-10.7381
-10.9848
-11.2324
-11.4809
-11.7287
-11.9756
-12.2201
-12.4621
-12.6998
-12.9331
-13.1603
-13.3812
-13.5938
-13.7978
-13.9911
-14.1733
-14.3422
-14.497
-14.6353
-14.756
-14.8565
-14.9352
-14.9896
-15.0177
-15.0167
-14.9845
-14.9183
-14.816
-14.6749
-14.4929
-14.2677
-13.9974
-13.6805
-13.3157
-12.9026
-12.4409
-11.9315
-11.3755
-10.7749
-10.1322
-9.4509
-8.73484
-7.9887
-7.21753
-6.42674
-5.62163
-4.80757
-3.98986
-3.1736
-2.36356
-1.56406
-0.778992
-0.0117064
0.734844
1.45828
2.15649
2.82786
3.47287
4.09133
4.68262
5.24638
5.78329
6.29416
6.77986
7.24129
7.6795
8.09566
8.49086
8.86625
9.22278
9.56152
9.88329
10.1892
10.4801
10.7572
11.021
11.2725
11.5124
11.7413
11.9598
12.1686
12.3681
12.5588
12.7411
12.9154
13.0822
13.2418
13.3944
13.54
13.6789
13.8114
13.9378
14.0582
14.1732
14.2827
14.3869
14.4862
14.5807
14.6705
14.756
14.8371
14.9142
14.9872
15.0565
15.1223
15.1847
15.2438
15.2999
15.3533
15.4037
15.4516
15.497
15.5403
15.5818
15.6215
15.6598
15.6968
15.7328
15.7678
15.802
15.8351
15.8673
15.8989
15.9304
15.9612
15.9914
16.0209
16.0495
16.0763
16.1006
16.1219
16.1397
16.1537
16.1642
16.1704
16.172
16.1699
16.1655
16.1596
16.1527
16.1452
16.1378
16.1314
16.1263
16.1227
16.1187
16.1146
16.0836
-6.40943
-6.52413
-6.6375
-6.72186
-6.7888
-6.8414
-6.88591
-6.92935
-6.97744
-7.03372
-7.10009
-7.17702
-7.26478
-7.36343
-7.4732
-7.59402
-7.72581
-7.86813
-8.02039
-8.18198
-8.35225
-8.53065
-8.7165
-8.90958
-9.10923
-9.31534
-9.52717
-9.74472
-9.9671
-10.1943
-10.4254
-10.6602
-10.8977
-11.1379
-11.3795
-11.6224
-11.8653
-12.1082
-12.3496
-12.5894
-12.826
-13.0593
-13.2875
-13.5106
-13.7263
-13.9346
-14.1333
-14.3218
-14.4979
-14.6607
-14.8079
-14.9383
-15.0492
-15.1391
-15.2051
-15.2453
-15.2568
-15.2371
-15.1834
-15.0932
-14.9636
-14.7922
-14.5765
-14.3144
-14.0039
-13.6437
-13.233
-12.7714
-12.2596
-11.6988
-11.0908
-10.4386
-9.74554
-9.01591
-8.25467
-7.46715
-6.6591
-5.83635
-5.00468
-4.16976
-3.33701
-2.51145
-1.69762
-0.899576
-0.120742
0.635901
1.36798
2.07348
2.75117
3.40107
4.02366
4.61801
5.18401
5.72248
6.23447
6.72091
7.18291
7.62152
8.03814
8.43365
8.80947
9.16618
9.50526
9.8272
10.1336
10.4249
10.7026
10.9669
11.2192
11.4597
11.6895
11.9088
12.1186
12.3189
12.5105
12.6937
12.869
13.0367
13.1973
13.3507
13.4974
13.6372
13.7708
13.8982
14.0199
14.1359
14.2466
14.3519
14.4523
14.5479
14.639
14.7254
14.8078
14.8859
14.9601
15.0305
15.0975
15.1611
15.2216
15.279
15.3335
15.3852
15.4342
15.4808
15.5253
15.5678
15.6085
15.6477
15.6856
15.7222
15.7577
15.7921
15.8255
15.8577
15.8892
15.9201
15.9503
15.9796
16.0083
16.0359
16.062
16.0858
16.1068
16.1247
16.139
16.1498
16.1565
16.1592
16.1584
16.155
16.15
16.1439
16.1367
16.1286
16.1208
16.1129
16.105
16.0944
16.0801
16.0375
-6.20364
-6.31992
-6.4446
-6.54206
-6.62392
-6.69146
-6.75122
-6.81154
-6.87878
-6.95656
-7.04649
-7.14832
-7.26143
-7.38496
-7.51827
-7.66065
-7.81153
-7.97032
-8.13645
-8.30949
-8.48881
-8.67426
-8.86529
-9.06184
-9.26345
-9.47028
-9.68169
-9.89789
-10.1181
-10.3427
-10.5706
-10.8021
-11.0363
-11.2733
-11.5119
-11.7523
-11.9933
-12.2349
-12.4756
-12.7157
-12.9533
-13.1887
-13.4198
-13.6467
-13.8673
-14.0814
-14.2868
-14.4829
-14.6675
-14.8398
-14.9972
-15.1385
-15.261
-15.3632
-15.442
-15.4954
-15.5202
-15.514
-15.4736
-15.3962
-15.2788
-15.1187
-14.9129
-14.6591
-14.355
-13.999
-13.5901
-13.1277
-12.6122
-12.0448
-11.4275
-10.7631
-10.0556
-9.30938
-8.5298
-7.72262
-6.8941
-6.05059
-5.19839
-4.3436
-3.49201
-2.64895
-1.81919
-1.0069
-0.215583
0.551752
1.29285
2.0058
2.6894
3.34424
3.97048
4.56752
5.13535
5.67506
6.18779
6.67472
7.13692
7.57567
7.99211
8.38749
8.76281
9.11926
9.45777
9.77954
10.0856
10.3769
10.6545
10.9191
11.1715
11.4125
11.6426
11.8624
12.0726
12.2736
12.4658
12.6498
12.8258
12.9944
13.1557
13.31
13.4574
13.5982
13.7327
13.8612
13.9838
14.1009
14.2125
14.319
14.4204
14.5171
14.6091
14.6966
14.78
14.8592
14.9344
15.006
15.074
15.1388
15.2004
15.259
15.3147
15.3676
15.4179
15.4657
15.5114
15.555
15.5969
15.6372
15.6759
15.7132
15.7494
15.7842
15.8179
15.8503
15.8817
15.9122
15.9417
15.9702
15.9978
16.0243
16.0494
16.0723
16.0927
16.1102
16.1244
16.1352
16.1423
16.1457
16.1459
16.1434
16.1391
16.1337
16.1267
16.1183
16.1091
16.0986
16.0865
16.0698
16.0469
15.9953
-6.08626
-6.20053
-6.32375
-6.42475
-6.5145
-6.5938
-6.66771
-6.74334
-6.82647
-6.92044
-7.02664
-7.14478
-7.2739
-7.41284
-7.56056
-7.7161
-7.87867
-8.04768
-8.22248
-8.40278
-8.58811
-8.77838
-8.97315
-9.17257
-9.37615
-9.58416
-9.79611
-10.0123
-10.2322
-10.456
-10.6831
-10.9138
-11.1471
-11.3835
-11.6218
-11.8622
-12.1037
-12.3464
-12.5888
-12.8313
-13.0721
-13.3113
-13.5472
-13.7797
-14.0067
-14.2281
-14.4417
-14.6468
-14.8413
-15.0242
-15.193
-15.3465
-15.4818
-15.5973
-15.6901
-15.7577
-15.7971
-15.8054
-15.7793
-15.7158
-15.6115
-15.4634
-15.2682
-15.0233
-14.7261
-14.3745
-13.9672
-13.5034
-12.9835
-12.4083
-11.78
-11.1017
-10.3775
-9.61218
-8.81166
-7.98224
-7.13072
-6.26406
-5.38913
-4.51255
-3.64051
-2.77866
-1.93194
-1.10466
-0.300369
0.477987
1.22824
1.94867
2.63838
3.29791
3.92779
4.52751
5.09715
5.63804
6.1513
6.63836
7.10026
7.53854
7.95419
8.3488
8.72306
9.07864
9.41615
9.73727
10.0426
10.3336
10.6107
10.8752
11.1274
11.3684
11.5985
11.8188
12.0292
12.2306
12.4233
12.6078
12.7845
12.9538
13.1157
13.2708
13.4189
13.5607
13.696
13.8255
13.949
14.0671
14.1797
14.2872
14.3896
14.4873
14.5803
14.6689
14.7532
14.8335
14.9097
14.9823
15.0515
15.1173
15.18
15.2397
15.2965
15.3506
15.4021
15.4512
15.4981
15.543
15.586
15.6274
15.667
15.7052
15.742
15.7774
15.8114
15.8441
15.8755
15.9057
15.9347
15.9625
15.9891
16.0144
16.0382
16.06
16.0794
16.0961
16.11
16.1207
16.1281
16.132
16.1329
16.1311
16.1273
16.1222
16.1155
16.1069
16.0964
16.0833
16.0674
16.0453
16.0151
15.9566
-6.0637
-6.15939
-6.27162
-6.36726
-6.45688
-6.5413
-6.62401
-6.7104
-6.80469
-6.90933
-7.02536
-7.15258
-7.29014
-7.43696
-7.59193
-7.75411
-7.92263
-8.09692
-8.27637
-8.46073
-8.6495
-8.84274
-9.04006
-9.24161
-9.44696
-9.65645
-9.86958
-10.0868
-10.3075
-10.5321
-10.76
-10.9916
-11.2261
-11.4637
-11.7037
-11.9462
-12.1902
-12.4359
-12.682
-12.9286
-13.1743
-13.4191
-13.6613
-13.9009
-14.1358
-14.3658
-14.5888
-14.8043
-15.0098
-15.2044
-15.3858
-15.5525
-15.7017
-15.8317
-15.9393
-16.0223
-16.0772
-16.1011
-16.0904
-16.0418
-15.9516
-15.8166
-15.633
-15.3978
-15.108
-14.7611
-14.3556
-13.8903
-13.3654
-12.7816
-12.1413
-11.4476
-10.7049
-9.91871
-9.09531
-8.24171
-7.36538
-6.47393
-5.57487
-4.67535
-3.78195
-2.90062
-2.03646
-1.19384
-0.376302
0.413246
1.17279
1.90086
2.59675
3.26118
3.8947
4.49681
5.06789
5.6093
6.12258
6.60904
7.07016
7.50723
7.92173
8.31479
8.68779
9.04183
9.37825
9.69812
10.0026
10.2927
10.5693
10.8332
11.0852
11.326
11.5562
11.7764
11.987
12.1887
12.3818
12.5668
12.744
12.9139
13.0765
13.2322
13.3811
13.5236
13.6599
13.7902
13.9147
14.0337
14.1474
14.2558
14.3593
14.458
14.552
14.6416
14.727
14.8082
14.8855
14.9592
15.0294
15.0963
15.1601
15.2208
15.2788
15.334
15.3867
15.4371
15.4853
15.5314
15.5756
15.618
15.6586
15.6976
15.7351
15.7711
15.8056
15.8386
15.8702
15.9003
15.9289
15.956
15.9817
16.0058
16.0282
16.0486
16.0668
16.0825
16.0958
16.1062
16.1137
16.1181
16.1196
16.1184
16.1149
16.1099
16.1032
16.0943
16.0827
16.0675
16.0482
16.0212
15.9849
15.9208
-6.10403
-6.17615
-6.26333
-6.34673
-6.43038
-6.51489
-6.60173
-6.69388
-6.79422
-6.90444
-7.02509
-7.15607
-7.29669
-7.44611
-7.60335
-7.76764
-7.9381
-8.11426
-8.29545
-8.48148
-8.67192
-8.86674
-9.06556
-9.26867
-9.47561
-9.6867
-9.90148
-10.1204
-10.3429
-10.5694
-10.7994
-11.0332
-11.2702
-11.5107
-11.7539
-12
-12.2481
-12.4984
-12.7495
-13.0018
-13.2538
-13.5056
-13.7554
-14.0033
-14.2472
-14.487
-14.7205
-14.9471
-15.1646
-15.372
-15.5668
-15.7476
-15.9116
-16.0569
-16.1804
-16.2795
-16.3509
-16.3913
-16.3968
-16.3641
-16.2889
-16.1677
-15.9965
-15.7717
-15.4898
-15.1482
-14.7445
-14.2777
-13.7474
-13.1545
-12.5013
-11.7912
-11.029
-10.2205
-9.37302
-8.49407
-7.59196
-6.67494
-5.75114
-4.8282
-3.91316
-3.0122
-2.13056
-1.2726
-0.441753
0.359074
1.1279
1.86341
2.56498
3.23359
3.86996
4.47368
5.04543
5.58667
6.09926
6.58453
7.04429
7.47964
7.89246
8.2836
8.65491
9.00715
9.34218
9.66061
9.9641
10.2531
10.529
10.7922
11.0438
11.2842
11.5143
11.7344
11.9452
12.147
12.3405
12.5258
12.7037
12.874
13.0373
13.1935
13.3433
13.4865
13.6237
13.7549
13.8804
14.0004
14.1151
14.2245
14.329
14.4287
14.5238
14.6144
14.7008
14.7831
14.8615
14.9362
15.0075
15.0756
15.1404
15.2023
15.2613
15.3178
15.3717
15.4233
15.4728
15.5201
15.5654
15.6088
15.6504
15.6903
15.7285
15.7651
15.8001
15.8334
15.8651
15.8952
15.9236
15.9502
15.975
15.9978
16.0188
16.0377
16.0546
16.0693
16.0818
16.0918
16.0993
16.1041
16.1061
16.1055
16.1023
16.0972
16.09
16.0807
16.068
16.0511
16.0288
15.9977
15.9566
15.888
-6.15122
-6.21743
-6.28514
-6.35349
-6.42661
-6.50524
-6.58985
-6.68179
-6.78239
-6.8927
-7.01306
-7.14336
-7.28301
-7.43137
-7.58755
-7.75092
-7.92068
-8.09637
-8.27739
-8.46354
-8.6543
-8.84977
-9.04949
-9.2537
-9.462
-9.67479
-9.89154
-10.1127
-10.3378
-10.5671
-10.8002
-11.0374
-11.2781
-11.5226
-11.7701
-12.0211
-12.2744
-12.5304
-12.7878
-13.0469
-13.3063
-13.566
-13.8244
-14.0814
-14.3352
-14.5856
-14.8303
-15.0689
-15.2991
-15.5198
-15.7286
-15.9241
-16.1033
-16.2644
-16.4042
-16.52
-16.6082
-16.6656
-16.6879
-16.6714
-16.6117
-16.5048
-16.3463
-16.1321
-15.8585
-15.522
-15.1203
-14.6516
-14.1157
-13.5133
-12.8468
-12.1197
-11.3375
-10.5065
-9.63454
-8.73013
-7.80219
-6.85975
-5.91147
-4.96544
-4.02901
-3.10871
-2.20994
-1.33715
-0.493813
0.317245
1.09432
1.83603
2.54218
3.21384
3.85196
4.4564
5.02784
5.56823
6.07931
6.56292
7.02059
7.45398
7.86448
8.25365
8.62274
8.97328
9.30647
9.62359
9.92565
10.2137
10.4886
10.7512
11.0022
11.2423
11.4721
11.6921
11.9029
12.105
12.2987
12.4846
12.6629
12.8338
12.9976
13.1546
13.305
13.4491
13.5872
13.7193
13.8458
13.9667
14.0824
14.1929
14.2985
14.3992
14.4953
14.587
14.6745
14.7578
14.8373
14.9132
14.9857
15.0548
15.1208
15.1838
15.2441
15.3018
15.3569
15.4098
15.4605
15.509
15.5554
15.5998
15.6424
15.6831
15.722
15.7592
15.7947
15.8284
15.8603
15.8904
15.9185
15.9446
15.9685
15.9902
16.0096
16.027
16.0425
16.0561
16.0678
16.0775
16.0849
16.0899
16.0924
16.0923
16.0896
16.0844
16.0767
16.0663
16.0524
16.0338
16.0091
15.9748
15.9301
15.858
-6.19476
-6.25455
-6.30802
-6.36317
-6.425
-6.49466
-6.57258
-6.65954
-6.7561
-6.86264
-6.97922
-7.10573
-7.24166
-7.38655
-7.53959
-7.70021
-7.86769
-8.04162
-8.22136
-8.40674
-8.59728
-8.79297
-8.99335
-9.19864
-9.4084
-9.62298
-9.84189
-10.0656
-10.2936
-10.5263
-10.7631
-11.0045
-11.2497
-11.4992
-11.7521
-12.0089
-12.2684
-12.531
-12.7955
-13.0623
-13.3297
-13.598
-13.8655
-14.1323
-14.3965
-14.6577
-14.914
-15.1648
-15.4078
-15.642
-15.8648
-16.0749
-16.2694
-16.4462
-16.6021
-16.7344
-16.8392
-16.9133
-16.9521
-16.9517
-16.9072
-16.8144
-16.6684
-16.4648
-16.1992
-15.8678
-15.4678
-14.9974
-14.4558
-13.844
-13.1643
-12.4207
-11.619
-10.7661
-9.87049
-8.94118
-7.98801
-7.02064
-6.04853
-5.08028
-4.12366
-3.18539
-2.27104
-1.38508
-0.531031
0.288617
1.07196
1.81833
2.52728
3.20059
3.83909
4.44309
5.01329
5.552
6.06094
6.54232
6.99745
7.42847
7.83641
8.22333
8.59012
8.93882
9.27012
9.58583
9.88646
10.1735
10.4474
10.7094
10.9597
11.1996
11.429
11.6491
11.8599
12.0622
12.2562
12.4426
12.6213
12.7928
12.9571
13.1149
13.2661
13.4111
13.55
13.6832
13.8106
13.9326
14.0492
14.1609
14.2674
14.3693
14.4665
14.5594
14.6479
14.7324
14.8131
14.8902
14.9638
15.0341
15.1013
15.1655
15.227
15.2859
15.3423
15.3964
15.4482
15.4979
15.5453
15.5908
15.6343
15.6758
15.7154
15.7532
15.7891
15.8232
15.8552
15.8853
15.9132
15.9387
15.9617
15.9822
16.0002
16.0161
16.0303
16.0428
16.0538
16.0631
16.0706
16.0758
16.0788
16.0792
16.0768
16.0717
16.0635
16.0521
16.0366
16.0161
15.9891
15.9522
15.9048
15.8305
-6.22273
-6.27163
-6.31087
-6.35378
-6.40495
-6.46505
-6.53451
-6.6141
-6.70408
-6.80456
-6.9154
-7.03646
-7.16725
-7.30734
-7.45609
-7.61296
-7.77734
-7.94883
-8.12683
-8.31113
-8.50118
-8.69702
-8.89816
-9.1047
-9.3162
-9.53298
-9.75451
-9.98122
-10.2126
-10.4491
-10.6901
-10.9361
-11.1864
-11.4414
-11.7001
-11.9632
-12.2294
-12.4992
-12.7712
-13.046
-13.3219
-13.5992
-13.8762
-14.153
-14.4276
-14.6999
-14.9678
-15.2308
-15.4865
-15.734
-15.9708
-16.1953
-16.4047
-16.5969
-16.7685
-16.9169
-17.038
-17.1283
-17.1831
-17.1983
-17.1687
-17.0896
-16.9558
-16.7625
-16.5047
-16.1784
-15.7802
-15.308
-14.761
-14.1398
-13.4472
-12.6873
-11.8663
-10.9917
-10.0727
-9.11906
-8.14141
-7.15017
-6.15572
-5.16695
-4.1923
-3.23833
-2.31102
-1.41453
-0.552308
0.27319
1.06045
1.80934
2.51905
3.19228
3.82976
4.43189
4.99994
5.536
6.04235
6.52077
6.97325
7.40134
7.80683
8.19111
8.55588
8.90243
9.23217
9.54623
9.84575
10.1316
10.4048
10.666
10.916
11.1554
11.3848
11.6048
11.8158
12.0183
12.2128
12.3995
12.5788
12.7508
12.9159
13.0744
13.2265
13.3724
13.5122
13.6464
13.7748
13.8978
14.0156
14.1283
14.2359
14.339
14.4373
14.5312
14.6209
14.7067
14.7886
14.8669
14.9418
15.0133
15.0818
15.1472
15.21
15.2701
15.3278
15.3831
15.436
15.4867
15.5353
15.5817
15.6261
15.6684
15.7087
15.7471
15.7834
15.8177
15.8499
15.8798
15.9073
15.9322
15.9542
15.9734
15.9901
16.0048
16.0178
16.0294
16.0397
16.0488
16.0562
16.0618
16.0652
16.0661
16.0641
16.0591
16.0507
16.0384
16.0214
15.9989
15.9695
15.9301
15.8806
15.8048
-6.22165
-6.2568
-6.28148
-6.31287
-6.35389
-6.4044
-6.46492
-6.53614
-6.6183
-6.71151
-6.81548
-6.93008
-7.05493
-7.1897
-7.33377
-7.48667
-7.64782
-7.81683
-7.99312
-8.17647
-8.36631
-8.56257
-8.76478
-8.97305
-9.18678
-9.40628
-9.63103
-9.86136
-10.0967
-10.3376
-10.5833
-10.8344
-11.0901
-11.3509
-11.6159
-11.8856
-12.1589
-12.4361
-12.7161
-12.9991
-13.2838
-13.5704
-13.8571
-14.144
-14.4294
-14.7128
-14.9924
-15.2675
-15.5359
-15.7966
-16.0469
-16.2855
-16.5093
-16.7163
-16.9032
-17.0669
-17.2036
-17.3093
-17.3796
-17.4094
-17.3939
-17.3276
-17.2052
-17.0211
-16.7702
-16.4479
-16.0504
-15.5754
-15.0218
-14.3904
-13.6841
-12.9074
-12.0669
-11.171
-10.2293
-9.25278
-8.25246
-7.24006
-6.22607
-5.22042
-4.23117
-3.26551
-2.3289
-1.42555
-0.558763
0.26903
1.05834
1.806
2.51546
3.18622
3.82111
4.42008
4.98492
5.51767
6.02085
6.49605
6.9456
7.37073
7.77368
8.15548
8.51828
8.8629
9.19121
9.50383
9.80235
10.0872
10.3598
10.6204
10.8702
11.1093
11.3388
11.5588
11.7701
11.9729
12.1679
12.3551
12.535
12.7076
12.8736
13.0328
13.1858
13.3326
13.4736
13.6086
13.7382
13.8622
13.9812
14.0949
14.2039
14.308
14.4076
14.5027
14.5936
14.6806
14.7639
14.8435
14.9196
14.9924
15.0622
15.1289
15.193
15.2543
15.3132
15.3696
15.4237
15.4755
15.525
15.5724
15.6176
15.6607
15.7017
15.7405
15.7772
15.8117
15.8439
15.8735
15.9005
15.9246
15.9456
15.9636
15.9791
15.9926
16.0047
16.0156
16.0255
16.0344
16.042
16.048
16.0518
16.0532
16.0517
16.0469
16.0383
16.0254
16.0072
15.9829
15.9512
15.9092
15.8575
15.7806
-6.18551
-6.20395
-6.21552
-6.23627
-6.26715
-6.30774
-6.35871
-6.42097
-6.49455
-6.57961
-6.67605
-6.78382
-6.90253
-7.03194
-7.17154
-7.32083
-7.4792
-7.64629
-7.82143
-8.0044
-8.19453
-8.39179
-8.59555
-8.80602
-9.02241
-9.24522
-9.47372
-9.70837
-9.94836
-10.1944
-10.4455
-10.7024
-10.9642
-11.2314
-11.503
-11.7797
-12.0602
-12.3452
-12.633
-12.9245
-13.2178
-13.5135
-13.8097
-14.1067
-14.4022
-14.6967
-14.9874
-15.2743
-15.5547
-15.828
-16.0911
-16.3432
-16.5804
-16.8015
-17.0021
-17.1803
-17.3309
-17.4511
-17.5348
-17.5781
-17.5745
-17.5195
-17.4063
-17.2296
-16.9835
-16.6631
-16.2643
-15.7844
-15.2226
-14.5797
-13.859
-13.0654
-12.2061
-11.29
-10.328
-9.33127
-8.31183
-7.28262
-6.25357
-5.23624
-4.23722
-3.26543
-2.32384
-1.419
-0.551726
0.275397
1.06147
1.80756
2.51243
3.17955
3.80982
4.40434
4.96488
5.49385
5.99324
6.46522
6.91149
7.33401
7.73427
8.1141
8.47488
8.81813
9.14501
9.45676
9.7543
10.0387
10.3107
10.5712
10.8207
11.06
11.2895
11.5098
11.7215
11.9249
12.1204
12.3083
12.4888
12.6623
12.829
12.9892
13.1432
13.291
13.433
13.5692
13.6999
13.8252
13.9453
14.0603
14.1705
14.2759
14.3767
14.4732
14.5655
14.6539
14.7385
14.8195
14.8969
14.9711
15.0422
15.1102
15.1755
15.2381
15.2982
15.3558
15.4109
15.4638
15.5143
15.5626
15.6086
15.6524
15.694
15.7333
15.7702
15.8048
15.8368
15.866
15.8923
15.9154
15.9354
15.9524
15.9668
15.9795
15.9908
16.0013
16.0111
16.0201
16.028
16.0343
16.0387
16.0406
16.0395
16.035
16.0264
16.013
15.994
15.9683
15.9346
15.8902
15.8364
15.7581
-6.11363
-6.11512
-6.11525
-6.12617
-6.14672
-6.17701
-6.21826
-6.27136
-6.33633
-6.4133
-6.5023
-6.60353
-6.71671
-6.84145
-6.9773
-7.12379
-7.28025
-7.44629
-7.6212
-7.8047
-7.99616
-8.19536
-8.40162
-8.61509
-8.83503
-9.06165
-9.29436
-9.53351
-9.77838
-10.0295
-10.2861
-10.5486
-10.8163
-11.0896
-11.3677
-11.6509
-11.9384
-12.2304
-12.5258
-12.8249
-13.1263
-13.4303
-13.7352
-14.0412
-14.3462
-14.6504