/*--------------------------------*- C++ -*----------------------------------*\
  =========                 |
  \\      /  F ield         | OpenFOAM: The Open Source CFD Toolbox
   \\    /   O peration     | Website:  https://openfoam.org
    \\  /    A nd           | Version:  8
     \\/     M anipulation  |
\*---------------------------------------------------------------------------*/
FoamFile
{
    version     2.0;
    format      ascii;
    class       surfaceScalarField;
    location    "50";
    object      phi;
}
// * * * * * * * * * * * * * * * * * * * * * * * * * * * * * * * * * * * * * //

dimensions      [0 3 -1 0 0 0 0];

internalField   nonuniform List<scalar> 
24170
(
3.12886e-06
5.95452e-08
3.04612e-06
8.27501e-08
2.97242e-06
7.36976e-08
2.90295e-06
6.94611e-08
2.83749e-06
6.54749e-08
2.77875e-06
5.87339e-08
2.72781e-06
5.09516e-08
2.6839e-06
4.3899e-08
2.64587e-06
3.80382e-08
2.61262e-06
3.32397e-08
2.58313e-06
2.94987e-08
2.55636e-06
2.67668e-08
2.5314e-06
2.4963e-08
2.50724e-06
2.41522e-08
2.48283e-06
2.44191e-08
2.45542e-06
2.73907e-08
2.4232e-06
3.21855e-08
5.60112e-08
2.36715e-06
3.45302e-06
2.37777e-08
3.45685e-06
7.89334e-08
3.45013e-06
8.0429e-08
3.43823e-06
8.13681e-08
3.42286e-06
8.08588e-08
3.40485e-06
7.67597e-08
3.38463e-06
7.11835e-08
3.36281e-06
6.57331e-08
3.34009e-06
6.07726e-08
3.31703e-06
5.63064e-08
3.29409e-06
5.24603e-08
3.27143e-06
4.94419e-08
3.24913e-06
4.72682e-08
3.2271e-06
4.61933e-08
3.20535e-06
4.61885e-08
3.18347e-06
4.92675e-08
3.16214e-06
5.3491e-08
7.22573e-08
3.14589e-06
3.6681e-06
1.8191e-08
3.67893e-06
6.81058e-08
3.68479e-06
7.45685e-08
3.6883e-06
7.78425e-08
3.68924e-06
7.99257e-08
3.68746e-06
7.85446e-08
3.68329e-06
7.53483e-08
3.67717e-06
7.18453e-08
3.66948e-06
6.84682e-08
3.66049e-06
6.52904e-08
3.65043e-06
6.25161e-08
3.63946e-06
6.04091e-08
3.62766e-06
5.90737e-08
3.61503e-06
5.88206e-08
3.60148e-06
5.97307e-08
3.58738e-06
6.3364e-08
3.57198e-06
6.88664e-08
8.24927e-08
3.56175e-06
3.92577e-06
1.78113e-08
3.93557e-06
5.83195e-08
3.9418e-06
6.83444e-08
3.94676e-06
7.28991e-08
3.95044e-06
7.62524e-08
3.95247e-06
7.65242e-08
3.953e-06
7.48258e-08
3.95227e-06
7.25853e-08
3.95045e-06
7.03038e-08
3.94763e-06
6.81186e-08
3.94391e-06
6.62524e-08
3.93933e-06
6.50002e-08
3.9339e-06
6.4509e-08
3.92764e-06
6.5084e-08
3.92048e-06
6.68932e-08
3.9129e-06
7.09456e-08
3.90461e-06
7.71472e-08
8.78711e-08
3.89923e-06
4.20808e-06
1.68543e-08
4.21559e-06
5.08109e-08
4.22084e-06
6.30944e-08
4.2253e-06
6.84267e-08
4.22926e-06
7.2303e-08
4.23222e-06
7.35596e-08
4.23416e-06
7.28872e-08
4.23519e-06
7.15501e-08
4.23539e-06
7.00976e-08
4.2348e-06
6.87022e-08
4.23346e-06
6.75941e-08
4.23141e-06
6.70564e-08
4.22865e-06
6.72706e-08
4.22523e-06
6.85026e-08
4.22117e-06
7.09476e-08
4.21689e-06
7.52226e-08
4.2126e-06
8.14224e-08
8.9983e-08
4.2105e-06
4.51058e-06
1.53589e-08
4.51647e-06
4.49405e-08
4.52122e-06
5.83486e-08
4.52535e-06
6.4303e-08
4.52921e-06
6.84586e-08
4.53238e-06
7.0394e-08
4.53475e-06
7.052e-08
4.5364e-06
6.9912e-08
4.53737e-06
6.91379e-08
4.53766e-06
6.84158e-08
4.5373e-06
6.79617e-08
4.53632e-06
6.80415e-08
4.53475e-06
6.88429e-08
4.53267e-06
7.05873e-08
4.53017e-06
7.34464e-08
4.52762e-06
7.77729e-08
4.52544e-06
8.35911e-08
9.06779e-08
4.52473e-06
4.83421e-06
1.38726e-08
4.83919e-06
3.9957e-08
4.84378e-06
5.3751e-08
4.84777e-06
6.03086e-08
4.8515e-06
6.47379e-08
4.85468e-06
6.72062e-08
4.8572e-06
6.80004e-08
4.85909e-06
6.80219e-08
4.86039e-06
6.78415e-08
4.86109e-06
6.77106e-08
4.86122e-06
6.78348e-08
4.86081e-06
6.84518e-08
4.85991e-06
6.97407e-08
4.85862e-06
7.18765e-08
4.85708e-06
7.49866e-08
4.85561e-06
7.92435e-08
4.85458e-06
8.4595e-08
9.07092e-08
4.85458e-06
5.18092e-06
1.25326e-08
5.18529e-06
3.55957e-08
5.18975e-06
4.93012e-08
5.19367e-06
5.64006e-08
5.1973e-06
6.11176e-08
5.20048e-06
6.40275e-08
5.20309e-06
6.54061e-08
5.20511e-06
6.59993e-08
5.2066e-06
6.63605e-08
5.20756e-06
6.67569e-08
5.20801e-06
6.73936e-08
5.20799e-06
6.84749e-08
5.20757e-06
7.01649e-08
5.20686e-06
7.25877e-08
5.20602e-06
7.58283e-08
5.20531e-06
7.9943e-08
5.20506e-06
8.4852e-08
9.01525e-08
5.20562e-06
5.55256e-06
1.13091e-08
5.55642e-06
3.17374e-08
5.56067e-06
4.5046e-08
5.56453e-06
5.25468e-08
5.56811e-06
5.75392e-08
5.57132e-06
6.08234e-08
5.57401e-06
6.27162e-08
5.57616e-06
6.38448e-08
5.57782e-06
6.471e-08
5.57899e-06
6.55855e-08
5.57971e-06
6.66718e-08
5.58004e-06
6.81532e-08
5.58004e-06
7.01666e-08
5.57983e-06
7.27944e-08
5.57958e-06
7.60794e-08
5.57951e-06
8.00142e-08
5.57987e-06
8.44838e-08
8.91508e-08
5.58091e-06
5.95091e-06
1.01802e-08
5.95432e-06
2.83374e-08
5.95833e-06
4.10399e-08
5.96212e-06
4.87732e-08
5.96568e-06
5.39935e-08
5.96892e-06
5.75882e-08
5.97172e-06
5.99303e-08
5.97402e-06
6.15559e-08
5.97585e-06
6.28865e-08
5.97725e-06
6.41888e-08
5.97826e-06
6.56625e-08
5.97894e-06
6.74812e-08
5.97936e-06
6.9747e-08
5.97965e-06
7.2512e-08
5.97994e-06
7.57781e-08
5.98045e-06
7.95048e-08
5.98136e-06
8.35828e-08
8.76965e-08
5.98283e-06
6.37785e-06
9.14259e-09
6.38088e-06
2.53108e-08
6.38466e-06
3.72654e-08
6.38837e-06
4.5066e-08
6.39192e-06
5.04539e-08
6.39522e-06
5.4297e-08
6.39813e-06
5.70242e-08
6.4006e-06
5.90923e-08
6.40264e-06
6.08469e-08
6.40431e-06
6.25248e-08
6.40564e-06
6.43311e-08
6.4067e-06
6.64163e-08
6.40757e-06
6.88785e-08
6.40836e-06
7.17142e-08
6.40921e-06
7.4922e-08
6.41028e-06
7.84291e-08
6.41172e-06
8.21338e-08
8.58126e-08
6.41364e-06
5.74165e-06
8.32779e-09
5.74395e-06
2.30138e-08
5.74697e-06
3.42558e-08
5.75006e-06
4.1983e-08
5.75306e-06
4.74649e-08
5.75588e-06
5.14772e-08
5.75844e-06
5.44694e-08
5.76069e-06
5.68493e-08
5.76262e-06
5.89162e-08
5.76427e-06
6.08798e-08
5.76567e-06
6.29201e-08
5.76689e-06
6.52067e-08
5.76799e-06
6.77594e-08
5.76908e-06
7.0632e-08
5.77025e-06
7.37437e-08
5.7716e-06
7.70711e-08
5.77325e-06
8.04966e-08
8.3839e-08
5.77524e-06
6.99902e-06
7.46643e-09
7.00145e-06
2.05916e-08
7.00472e-06
3.09868e-08
7.00819e-06
3.852e-08
7.01163e-06
4.40269e-08
7.01495e-06
4.81694e-08
7.01802e-06
5.13966e-08
7.02079e-06
5.40799e-08
7.02326e-06
5.64512e-08
7.02544e-06
5.86818e-08
7.02741e-06
6.09632e-08
7.02922e-06
6.33886e-08
7.03095e-06
6.60456e-08
7.03268e-06
6.88861e-08
7.03454e-06
7.19033e-08
7.0366e-06
7.50022e-08
7.03899e-06
7.81343e-08
8.11173e-08
7.04172e-06
8.53175e-06
6.5642e-09
8.53429e-06
1.80473e-08
8.53781e-06
2.74786e-08
8.54169e-06
3.46391e-08
8.54564e-06
4.00826e-08
8.54953e-06
4.42839e-08
8.55323e-06
4.76953e-08
8.55668e-06
5.06281e-08
8.55985e-06
5.32739e-08
8.56279e-06
5.57534e-08
8.56554e-06
5.82156e-08
8.56819e-06
6.07646e-08
8.57078e-06
6.34508e-08
8.57344e-06
6.62453e-08
8.57623e-06
6.91086e-08
8.57928e-06
7.19734e-08
8.58263e-06
7.47796e-08
7.74025e-08
8.58639e-06
1.04002e-05
5.62918e-09
1.04028e-05
1.53839e-08
1.04066e-05
2.37073e-08
1.04109e-05
3.02999e-08
1.04155e-05
3.55227e-08
1.04201e-05
3.97127e-08
1.04246e-05
4.31995e-08
1.04289e-05
4.6303e-08
1.0433e-05
4.91411e-08
1.0437e-05
5.18172e-08
1.04408e-05
5.43967e-08
1.04446e-05
5.70125e-08
1.04484e-05
5.96551e-08
1.04523e-05
6.23587e-08
1.04564e-05
6.50238e-08
1.04607e-05
6.76358e-08
1.04654e-05
7.01085e-08
7.23756e-08
1.04704e-05
1.26778e-05
4.63668e-09
1.26806e-05
1.25583e-08
1.26847e-05
1.9619e-08
1.26896e-05
2.54087e-08
1.26949e-05
3.02136e-08
1.27004e-05
3.42287e-08
1.27059e-05
3.768e-08
1.27114e-05
4.0801e-08
1.27169e-05
4.37316e-08
1.27222e-05
4.64865e-08
1.27275e-05
4.91317e-08
1.27328e-05
5.17027e-08
1.27383e-05
5.4272e-08
1.27438e-05
5.67934e-08
1.27496e-05
5.9256e-08
1.27556e-05
6.15748e-08
1.2762e-05
6.37441e-08
6.56542e-08
1.27687e-05
1.54543e-05
3.55308e-09
1.54574e-05
9.47776e-09
1.5462e-05
1.50216e-08
1.54676e-05
1.97664e-08
1.5474e-05
2.38859e-08
1.54807e-05
2.75136e-08
1.54876e-05
3.07467e-08
1.54947e-05
3.37327e-08
1.55019e-05
3.65806e-08
1.55091e-05
3.92987e-08
1.55163e-05
4.18876e-08
1.55237e-05
4.43671e-08
1.55312e-05
4.67708e-08
1.55389e-05
4.90906e-08
1.55469e-05
5.12981e-08
1.55551e-05
5.33417e-08
1.55636e-05
5.5199e-08
5.68205e-08
1.55724e-05
1.88389e-05
2.3045e-09
1.88425e-05
5.90913e-09
1.88479e-05
9.58448e-09
1.88548e-05
1.29551e-08
1.88626e-05
1.60845e-08
1.88711e-05
1.90404e-08
1.888e-05
2.18387e-08
1.88892e-05
2.45084e-08
1.88987e-05
2.71015e-08
1.89084e-05
2.96175e-08
1.89182e-05
3.20407e-08
1.89283e-05
3.43559e-08
1.89385e-05
3.65658e-08
1.89489e-05
3.86574e-08
1.89596e-05
4.06112e-08
1.89706e-05
4.23989e-08
1.89817e-05
4.39998e-08
4.53957e-08
1.89932e-05
2.2965e-05
6.9561e-10
2.29694e-05
1.43752e-09
2.29763e-05
2.69056e-09
2.29851e-05
4.22407e-09
2.29952e-05
5.99353e-09
2.30063e-05
7.95991e-09
2.3018e-05
1.00725e-08
2.30303e-05
1.22484e-08
2.3043e-05
1.4436e-08
2.3056e-05
1.66221e-08
2.30692e-05
1.87924e-08
2.30827e-05
2.0904e-08
2.30964e-05
2.29182e-08
2.31102e-05
2.47992e-08
2.31243e-05
2.65324e-08
2.31386e-05
2.81077e-08
2.3153e-05
2.95153e-08
3.07633e-08
2.31677e-05
1.6812e-05
-6.31052e-10
1.68157e-05
-2.21172e-09
1.68213e-05
-2.94539e-09
1.68284e-05
-2.88796e-09
1.68366e-05
-2.16773e-09
1.68455e-05
-9.37257e-10
1.68549e-05
6.58313e-10
1.68647e-05
2.48728e-09
1.68747e-05
4.39917e-09
1.6885e-05
6.38163e-09
1.68954e-05
8.37703e-09
1.6906e-05
1.03774e-08
1.69166e-05
1.22777e-08
1.69274e-05
1.4075e-08
1.69382e-05
1.5712e-08
1.69491e-05
1.72222e-08
1.696e-05
1.85716e-08
1.98059e-08
1.6971e-05
1.46359e-05
-1.92602e-09
1.46395e-05
-5.83008e-09
1.46451e-05
-8.53509e-09
1.4652e-05
-9.83377e-09
1.46599e-05
-9.98703e-09
1.46683e-05
-9.37616e-09
1.46772e-05
-8.19425e-09
1.46863e-05
-6.64873e-09
1.46956e-05
-4.90974e-09
1.4705e-05
-3.06626e-09
1.47146e-05
-1.14323e-09
1.47242e-05
7.77911e-10
1.47338e-05
2.64119e-09
1.47435e-05
4.38202e-09
1.47532e-05
6.00208e-09
1.4763e-05
7.48569e-09
1.47727e-05
8.84495e-09
1.00857e-08
1.47824e-05
1.27414e-05
-3.14676e-09
1.2745e-05
-9.48559e-09
1.27507e-05
-1.4244e-08
1.27576e-05
-1.66774e-08
1.27651e-05
-1.74793e-08
1.2773e-05
-1.73463e-08
1.27813e-05
-1.64851e-08
1.27898e-05
-1.51188e-08
1.27984e-05
-1.34772e-08
1.2807e-05
-1.16763e-08
1.28156e-05
-9.77591e-09
1.28243e-05
-7.8627e-09
1.28329e-05
-6.00763e-09
1.28416e-05
-4.26483e-09
1.28502e-05
-2.63523e-09
1.28588e-05
-1.12521e-09
1.28674e-05
2.6804e-10
1.5582e-09
1.28759e-05
1.1092e-05
-4.19178e-09
1.10957e-05
-1.32028e-08
1.11016e-05
-2.01911e-08
1.11084e-05
-2.34553e-08
1.11156e-05
-2.46645e-08
1.11231e-05
-2.48633e-08
1.11308e-05
-2.41821e-08
1.11386e-05
-2.28782e-08
1.11464e-05
-2.12546e-08
1.11542e-05
-1.94449e-08
1.11619e-05
-1.75245e-08
1.11696e-05
-1.55799e-08
1.11773e-05
-1.37033e-08
1.1185e-05
-1.1927e-08
1.11926e-05
-1.02668e-08
1.12002e-05
-8.70984e-09
1.12077e-05
-7.26839e-09
-5.92071e-09
1.12152e-05
9.65601e-06
-4.98869e-09
9.65991e-06
-1.70955e-08
9.666e-06
-2.62784e-08
9.67254e-06
-2.99925e-08
9.67943e-06
-3.15481e-08
9.68656e-06
-3.19991e-08
9.69371e-06
-3.13286e-08
9.70079e-06
-2.99541e-08
9.70781e-06
-2.82699e-08
9.71477e-06
-2.64071e-08
9.72168e-06
-2.44241e-08
9.72852e-06
-2.24206e-08
9.73531e-06
-2.04867e-08
9.74204e-06
-1.86588e-08
9.74871e-06
-1.69438e-08
9.75533e-06
-1.53297e-08
9.76188e-06
-1.38249e-08
-1.24067e-08
9.76837e-06
8.40548e-06
-5.11703e-09
8.41025e-06
-2.18617e-08
8.41618e-06
-3.22066e-08
8.42214e-06
-3.59453e-08
8.42866e-06
-3.80692e-08
8.43546e-06
-3.87956e-08
8.44217e-06
-3.80277e-08
8.4487e-06
-3.64858e-08
8.4551e-06
-3.46656e-08
8.46137e-06
-3.26734e-08
8.4675e-06
-3.05611e-08
8.47352e-06
-2.84289e-08
8.47942e-06
-2.6379e-08
8.48521e-06
-2.44505e-08
8.49091e-06
-2.2641e-08
8.49652e-06
-2.0942e-08
8.50204e-06
-1.93459e-08
-1.78431e-08
8.50748e-06
7.31468e-06
-2.51393e-09
7.32171e-06
-2.88816e-08
7.3279e-06
-3.8401e-08
7.3337e-06
-4.17445e-08
7.34013e-06
-4.44878e-08
7.34666e-06
-4.53246e-08
7.35292e-06
-4.42894e-08
7.3589e-06
-4.2467e-08
7.36464e-06
-4.03971e-08
7.37012e-06
-3.81552e-08
7.37536e-06
-3.57977e-08
7.38037e-06
-3.34337e-08
7.38518e-06
-3.11774e-08
7.3898e-06
-2.90686e-08
7.39426e-06
-2.71031e-08
7.39859e-06
-2.52601e-08
7.40279e-06
-2.35431e-08
-2.19235e-08
7.40687e-06
6.36261e-06
4.93884e-09
6.37234e-06
-3.86042e-08
6.38028e-06
-4.63346e-08
6.38765e-06
-4.91045e-08
6.39483e-06
-5.1678e-08
6.40121e-06
-5.16959e-08
6.4067e-06
-4.97851e-08
6.41153e-06
-4.729e-08
6.41582e-06
-4.46859e-08
6.41964e-06
-4.19758e-08
6.42306e-06
-3.9203e-08
6.42611e-06
-3.64909e-08
6.42887e-06
-3.39296e-08
6.43138e-06
-3.15698e-08
6.43367e-06
-2.93948e-08
6.4358e-06
-2.73788e-08
6.43779e-06
-2.55271e-08
-2.37772e-08
6.43966e-06
5.54132e-06
9.08395e-09
5.5507e-06
-4.79844e-08
5.5591e-06
-5.47203e-08
5.56737e-06
-5.73652e-08
5.57454e-06
-5.885e-08
5.57972e-06
-5.68859e-08
5.58299e-06
-5.30471e-08
5.5847e-06
-4.89991e-08
5.58521e-06
-4.51987e-08
5.58482e-06
-4.15724e-08
5.58374e-06
-3.81214e-08
5.58217e-06
-3.4917e-08
5.58024e-06
-3.20017e-08
5.57807e-06
-2.93916e-08
5.57574e-06
-2.70542e-08
5.57332e-06
-2.49611e-08
5.57091e-06
-2.31023e-08
-2.14092e-08
5.56855e-06
4.86001e-06
-2.33136e-08
4.86553e-06
-5.35056e-08
4.86566e-06
-5.48433e-08
4.863e-06
-5.46947e-08
4.85835e-06
-5.41962e-08
4.85151e-06
-5.00491e-08
4.84264e-06
-4.41772e-08
4.83221e-06
-3.85696e-08
4.82072e-06
-3.37051e-08
4.80865e-06
-2.94981e-08
4.7964e-06
-2.58645e-08
4.78424e-06
-2.27504e-08
4.77235e-06
-2.0105e-08
4.76083e-06
-1.78731e-08
4.74978e-06
-1.59961e-08
4.73926e-06
-1.44252e-08
4.72936e-06
-1.32007e-08
-1.28465e-08
4.72082e-06
4.17936e-06
4.12586e-06
4.07102e-06
4.01632e-06
3.96212e-06
3.91208e-06
3.8679e-06
3.82933e-06
3.79562e-06
3.76613e-06
3.74026e-06
3.71751e-06
3.69741e-06
3.67954e-06
3.66354e-06
3.64912e-06
3.63592e-06
3.62308e-06
1.02197e-07
-1.02477e-07
2.43359e-07
-1.41544e-07
3.844e-07
-1.41279e-07
5.14214e-07
-1.30228e-07
6.25041e-07
-1.11003e-07
7.09274e-07
-8.46531e-08
7.66166e-07
-5.69898e-08
7.91189e-07
-2.53866e-08
7.81607e-07
9.49597e-09
7.34243e-07
4.72198e-08
6.69632e-07
6.45773e-08
6.05975e-07
6.35999e-08
5.50083e-07
5.58125e-08
5.02007e-07
4.77865e-08
4.54325e-07
4.74411e-08
4.07085e-07
4.66341e-08
3.54059e-07
5.26397e-08
2.86344e-07
6.71733e-08
1.9906e-07
8.6884e-08
8.99794e-08
1.09107e-07
-4.42914e-08
1.34123e-07
-2.05083e-07
1.61335e-07
-3.90185e-07
1.8512e-07
-5.93475e-07
2.03787e-07
-8.10833e-07
2.17437e-07
-1.03705e-06
2.26434e-07
-1.26813e-06
2.31127e-07
-1.5002e-06
2.32015e-07
-1.72984e-06
2.29686e-07
-1.9548e-06
2.24738e-07
-2.17249e-06
2.17832e-07
-2.38235e-06
2.09578e-07
-2.58266e-06
2.00522e-07
-2.77398e-06
1.91052e-07
-2.95516e-06
1.81537e-07
-3.12757e-06
1.72159e-07
-3.29029e-06
1.63145e-07
-3.44508e-06
1.54525e-07
-3.59108e-06
1.46422e-07
-3.73015e-06
1.38769e-07
-3.86138e-06
1.31633e-07
-3.98659e-06
1.24889e-07
-4.10476e-06
1.18578e-07
-4.21761e-06
1.12546e-07
-4.32396e-06
1.06822e-07
-4.42546e-06
1.01233e-07
-4.52079e-06
9.58182e-08
-4.61144e-06
9.03987e-08
-4.69595e-06
8.50122e-08
-4.77578e-06
7.94848e-08
-4.84926e-06
7.38988e-08
-4.91779e-06
6.80519e-08
-4.9795e-06
6.20332e-08
-5.03566e-06
5.56602e-08
-5.08426e-06
4.90454e-08
-5.12672e-06
4.19632e-08
-5.16087e-06
3.45659e-08
-5.18801e-06
2.66657e-08
-5.206e-06
1.85517e-08
-5.21663e-06
1.01987e-08
-5.21848e-06
2.36151e-09
-5.21384e-06
-4.93251e-09
-5.20124e-06
-1.18974e-08
-5.18231e-06
-1.90478e-08
-5.15558e-06
-2.59594e-08
-5.12253e-06
-3.31247e-08
-5.08131e-06
-4.05378e-08
-5.03339e-06
-4.80487e-08
-4.97764e-06
-5.51867e-08
-4.9153e-06
-6.25183e-08
-4.84479e-06
-7.00562e-08
-4.76772e-06
-7.72176e-08
-4.68366e-06
-8.36927e-08
-4.59396e-06
-8.97587e-08
-4.49832e-06
-9.53206e-08
-4.3961e-06
-1.02106e-07
-4.28813e-06
-1.07704e-07
-4.1754e-06
-1.12454e-07
-4.05832e-06
-1.16856e-07
-3.93714e-06
-1.20674e-07
-3.81216e-06
-1.24709e-07
-3.68416e-06
-1.27313e-07
-3.55429e-06
-1.29692e-07
-3.42201e-06
-1.3134e-07
-3.28907e-06
-1.32628e-07
-3.15481e-06
-1.33272e-07
-3.02091e-06
-1.33806e-07
-2.88741e-06
-1.334e-07
-2.75484e-06
-1.33108e-07
-2.62292e-06
-1.33159e-07
-2.49231e-06
-1.31573e-07
-2.36307e-06
-1.30047e-07
-2.23565e-06
-1.28012e-07
-2.11049e-06
-1.25752e-07
-1.9876e-06
-1.2335e-07
-1.86725e-06
-1.20808e-07
-1.74937e-06
-1.1815e-07
-1.63418e-06
-1.15417e-07
-1.52157e-06
-1.12633e-07
-1.41168e-06
-1.09819e-07
-1.30435e-06
-1.07009e-07
-1.19961e-06
-1.04166e-07
-1.09735e-06
-1.01361e-07
-9.97599e-07
-9.85232e-08
-9.00449e-07
-9.58384e-08
-8.05846e-07
-9.32105e-08
-7.1386e-07
-9.07971e-08
-6.24294e-07
-8.84836e-08
-5.37102e-07
-8.63834e-08
-4.52085e-07
-8.43312e-08
-3.69166e-07
-8.24578e-08
-2.88199e-07
-8.06024e-08
-2.09078e-07
-7.89024e-08
-1.3168e-07
-7.72668e-08
-5.5972e-08
-7.56573e-08
1.83807e-08
-7.43092e-08
9.17327e-08
-7.33791e-08
1.63732e-07
-7.20778e-08
2.34003e-07
-7.04997e-08
3.02638e-07
-6.87767e-08
3.69774e-07
-6.71147e-08
4.35596e-07
-6.54966e-08
5.00033e-07
-6.40293e-08
5.63082e-07
-6.2566e-08
6.24511e-07
-6.11326e-08
6.84463e-07
-5.96807e-08
7.42913e-07
-5.8374e-08
8.001e-07
-5.70873e-08
8.55925e-07
-5.588e-08
9.10615e-07
-5.46861e-08
9.63971e-07
-5.349e-08
1.0161e-06
-5.21839e-08
1.06693e-06
-5.10228e-08
1.11674e-06
-4.99195e-08
1.16536e-06
-4.88734e-08
1.21288e-06
-4.77e-08
1.25909e-06
-4.65385e-08
1.30418e-06
-4.54479e-08
1.34806e-06
-4.44763e-08
1.39077e-06
-4.33905e-08
1.43224e-06
-4.22221e-08
1.47263e-06
-4.10653e-08
1.51195e-06
-3.99341e-08
1.55019e-06
-3.87527e-08
1.58724e-06
-3.75278e-08
1.62321e-06
-3.63847e-08
1.6581e-06
-3.52628e-08
1.69201e-06
-3.42263e-08
1.72497e-06
-3.32443e-08
1.75683e-06
-3.2101e-08
1.78749e-06
-3.08783e-08
1.81671e-06
-2.93867e-08
1.84413e-06
-2.75964e-08
1.86951e-06
-2.55106e-08
1.89232e-06
-2.29634e-08
1.91212e-06
-1.99192e-08
1.929e-06
-1.70352e-08
1.94326e-06
-1.43927e-08
1.95562e-06
-1.25275e-08
1.96673e-06
-1.12768e-08
1.97661e-06
-1.00831e-08
1.98719e-06
-1.07593e-08
2.00074e-06
-1.37454e-08
2.02147e-06
-2.09111e-08
2.05444e-06
-3.31528e-08
2.08187e-06
-2.76099e-08
2.10466e-06
-2.29697e-08
2.13536e-06
-3.08716e-08
2.16368e-06
-2.85005e-08
2.18786e-06
-2.43565e-08
2.20779e-06
-2.01157e-08
2.22436e-06
-1.67699e-08
2.23749e-06
-1.33292e-08
2.24694e-06
-9.64378e-09
2.25335e-06
-6.61093e-09
2.25442e-06
-1.27543e-09
2.24619e-06
8.02319e-09
2.22285e-06
2.31492e-08
2.1664e-06
5.62722e-08
1.10326e-07
2.05594e-06
1.47664e-07
-2.50264e-07
2.74238e-07
-2.68285e-07
3.67867e-07
-2.34995e-07
4.31675e-07
-1.94223e-07
4.72125e-07
-1.51531e-07
4.94088e-07
-1.06826e-07
4.98658e-07
-6.16406e-08
4.89582e-07
-1.65009e-08
4.71714e-07
2.72956e-08
4.52232e-07
6.66175e-08
4.2049e-07
9.62773e-08
3.66671e-07
1.17391e-07
2.87892e-07
1.34521e-07
1.83174e-07
1.52378e-07
6.01829e-08
1.70258e-07
-8.69235e-08
1.93506e-07
-2.60875e-07
2.26387e-07
-4.60757e-07
2.66909e-07
-6.82463e-07
3.08472e-07
-9.20429e-07
3.47086e-07
-1.16781e-06
3.81485e-07
-1.41639e-06
4.10047e-07
-1.66219e-06
4.30955e-07
-1.90178e-06
4.43513e-07
-2.13232e-06
4.48035e-07
-2.35127e-06
4.45463e-07
-2.55715e-06
4.3703e-07
-2.74918e-06
4.24026e-07
-2.92726e-06
4.07781e-07
-3.09214e-06
3.89554e-07
-3.24453e-06
3.70253e-07
-3.38569e-06
3.50638e-07
-3.51638e-06
3.31274e-07
-3.63796e-06
3.12558e-07
-3.75106e-06
2.94749e-07
-3.85695e-06
2.77977e-07
-3.95596e-06
2.623e-07
-4.0492e-06
2.47693e-07
-4.13675e-06
2.34104e-07
-4.2195e-06
2.21431e-07
-4.29733e-06
2.0958e-07
-4.37096e-06
1.9842e-07
-4.4401e-06
1.87846e-07
-4.50535e-06
1.77719e-07
-4.56631e-06
1.67942e-07
-4.62349e-06
1.58387e-07
-4.67645e-06
1.48969e-07
-4.72566e-06
1.39576e-07
-4.7706e-06
1.30151e-07
-4.81174e-06
1.2059e-07
-4.84856e-06
1.10861e-07
-4.88154e-06
1.00896e-07
-4.91007e-06
9.0693e-08
-4.93469e-06
8.01873e-08
-4.95489e-06
6.93934e-08
-4.9713e-06
5.82593e-08
-4.98343e-06
4.68356e-08
-4.9919e-06
3.50782e-08
-4.99625e-06
2.30566e-08
-4.99687e-06
1.07332e-08
-4.99248e-06
-1.86573e-09
-4.98254e-06
-1.48821e-08
-4.96595e-06
-2.82442e-08
-4.94292e-06
-4.19988e-08
-4.91261e-06
-5.59957e-08
-4.87534e-06
-7.02862e-08
-4.83086e-06
-8.47802e-08
-4.77942e-06
-9.94156e-08
-4.72044e-06
-1.13977e-07
-4.65434e-06
-1.28567e-07
-4.58128e-06
-1.42961e-07
-4.50155e-06
-1.56899e-07
-4.41485e-06
-1.70243e-07
-4.32149e-06
-1.83048e-07
-4.22143e-06
-1.95229e-07
-4.11648e-06
-2.06922e-07
-4.00632e-06
-2.17713e-07
-3.89106e-06
-2.2755e-07
-3.77146e-06
-2.36277e-07
-3.64783e-06
-2.44054e-07
-3.52153e-06
-2.50802e-07
-3.39225e-06
-2.56301e-07
-3.26101e-06
-2.60706e-07
-3.12796e-06
-2.6398e-07
-2.99403e-06
-2.66238e-07
-2.85943e-06
-2.6747e-07
-2.72522e-06
-2.67838e-07
-2.5912e-06
-2.67342e-07
-2.4584e-06
-2.66341e-07
-2.32746e-06
-2.6459e-07
-2.19759e-06
-2.61943e-07
-2.06943e-06
-2.58518e-07
-1.94318e-06
-2.54465e-07
-1.81915e-06
-2.49958e-07
-1.69751e-06
-2.451e-07
-1.57841e-06
-2.40004e-07
-1.46185e-06
-2.34698e-07
-1.34795e-06
-2.29284e-07
-1.23665e-06
-2.23776e-07
-1.12803e-06
-2.18267e-07
-1.02193e-06
-2.1275e-07
-9.18401e-07
-2.07272e-07
-8.17254e-07
-2.01833e-07
-7.18592e-07
-1.96481e-07
-6.22309e-07
-1.91295e-07
-5.28512e-07
-1.86312e-07
-4.3704e-07
-1.81595e-07
-3.47891e-07
-1.77147e-07
-2.6087e-07
-1.72958e-07
-1.75929e-07
-1.68991e-07
-9.28165e-08
-1.65307e-07
-1.14454e-08
-1.61835e-07
6.83533e-08
-1.58564e-07
1.46503e-07
-1.55376e-07
2.23162e-07
-1.52264e-07
2.98106e-07
-1.49266e-07
3.71068e-07
-1.46335e-07
4.42208e-07
-1.43302e-07
5.11827e-07
-1.40209e-07
5.80049e-07
-1.3709e-07
6.47004e-07
-1.34035e-07
7.12689e-07
-1.31049e-07
7.77067e-07
-1.28178e-07
8.40062e-07
-1.25365e-07
9.017e-07
-1.22596e-07
9.61972e-07
-1.19855e-07
1.02089e-06
-1.17222e-07
1.07847e-06
-1.14652e-07
1.13476e-06
-1.12161e-07
1.18976e-06
-1.09715e-07
1.24353e-06
-1.07294e-07
1.29611e-06
-1.04824e-07
1.34746e-06
-1.02443e-07
1.39759e-06
-1.00153e-07
1.44654e-06
-9.79323e-08
1.49435e-06
-9.5648e-08
1.54098e-06
-9.3335e-08
1.58638e-06
-9.1107e-08
1.63053e-06
-8.89875e-08
1.67352e-06
-8.68261e-08
1.7154e-06
-8.45566e-08
1.7562e-06
-8.22902e-08
1.79595e-06
-8.00351e-08
1.83461e-06
-7.77308e-08
1.87217e-06
-7.53737e-08
1.90862e-06
-7.31019e-08
1.94401e-06
-7.087e-08
1.97832e-06
-6.87457e-08
2.01154e-06
-6.66471e-08
2.0436e-06
-6.43126e-08
2.0742e-06
-6.16113e-08
2.10315e-06
-5.84434e-08
2.13032e-06
-5.48587e-08
2.15561e-06
-5.08806e-08
2.17888e-06
-4.62948e-08
2.20014e-06
-4.12214e-08
2.21952e-06
-3.64709e-08
2.23756e-06
-3.24773e-08
2.25473e-06
-2.97664e-08
2.2718e-06
-2.84103e-08
2.28971e-06
-2.80861e-08
2.30854e-06
-2.96869e-08
2.32756e-06
-3.28761e-08
2.34492e-06
-3.84062e-08
2.35701e-06
-4.53958e-08
2.37012e-06
-4.08997e-08
2.38155e-06
-3.45858e-08
2.38939e-06
-3.89105e-08
2.39946e-06
-3.87524e-08
2.4108e-06
-3.59008e-08
2.42225e-06
-3.17688e-08
2.43279e-06
-2.75238e-08
2.44216e-06
-2.29102e-08
2.44963e-06
-1.73244e-08
2.45411e-06
-1.13044e-08
2.45606e-06
-3.43948e-09
2.45499e-06
8.90219e-09
2.44892e-06
2.90177e-08
2.43567e-06
6.93444e-08
1.44724e-07
2.40114e-06
9.6249e-08
-3.46555e-07
1.54567e-07
-3.26701e-07
1.90637e-07
-2.71107e-07
2.07664e-07
-2.1136e-07
2.07567e-07
-1.51482e-07
1.92748e-07
-9.21299e-08
1.64986e-07
-3.39331e-08
1.2584e-07
2.25483e-08
7.64295e-08
7.6651e-08
1.55362e-08
1.27482e-07
-6.25619e-08
1.7434e-07
-1.6353e-07
2.18355e-07
-2.90676e-07
2.61627e-07
-4.44359e-07
3.06017e-07
-6.25911e-07
3.51744e-07
-8.31752e-07
3.99269e-07
-1.05297e-06
4.47531e-07
-1.2794e-06
4.93279e-07
-1.50404e-06
5.33053e-07
-1.72167e-06
5.64727e-07
-1.92763e-06
5.87425e-07
-2.1185e-06
6.00978e-07
-2.29321e-06
6.05683e-07
-2.45199e-06
6.02366e-07
-2.59621e-06
5.92279e-07
-2.72747e-06
5.7677e-07
-2.84765e-06
5.57229e-07
-2.9586e-06
5.34985e-07
-3.06198e-06
5.11181e-07
-3.15919e-06
4.8673e-07
-3.25124e-06
4.62331e-07
-3.33916e-06
4.38509e-07
-3.42346e-06
4.15615e-07
-3.50481e-06
3.93864e-07
-3.58337e-06
3.73361e-07
-3.65956e-06
3.54129e-07
-3.73333e-06
3.36132e-07
-3.80497e-06
3.19285e-07
-3.87429e-06
3.03486e-07
-3.94153e-06
2.88609e-07
-4.00642e-06
2.74525e-07
-4.06917e-06
2.61097e-07
-4.12946e-06
2.48193e-07
-4.18747e-06
2.35681e-07
-4.24288e-06
2.23435e-07
-4.29583e-06
2.11337e-07
-4.34603e-06
1.99278e-07
-4.39359e-06
1.87152e-07
-4.43819e-06
1.74869e-07
-4.47992e-06
1.62342e-07
-4.51845e-06
1.49508e-07
-4.55385e-06
1.36298e-07
-4.58573e-06
1.22673e-07
-4.61409e-06
1.08579e-07
-4.63856e-06
9.39786e-08
-4.65911e-06
7.8826e-08
-4.67527e-06
6.30982e-08
-4.68693e-06
4.67503e-08
-4.69355e-06
2.97593e-08
-4.69491e-06
1.20848e-08
-4.69043e-06
-6.27841e-09
-4.67995e-06
-2.53491e-08
-4.66304e-06
-4.50712e-08
-4.63959e-06
-6.53956e-08
-4.60926e-06
-8.62267e-08
-4.57201e-06
-1.07481e-07
-4.52766e-06
-1.29036e-07
-4.47623e-06
-1.50783e-07
-4.41758e-06
-1.72553e-07
-4.35183e-06
-1.94244e-07
-4.27907e-06
-2.1564e-07
-4.19939e-06
-2.36495e-07
-4.11291e-06
-2.56635e-07
-4.01998e-06
-2.75887e-07
-3.92101e-06
-2.94097e-07
-3.81659e-06
-3.11232e-07
-3.70705e-06
-3.27144e-07
-3.59276e-06
-3.41722e-07
-3.47423e-06
-3.54695e-07
-3.35204e-06
-3.66098e-07
-3.2269e-06
-3.75806e-07
-3.09923e-06
-3.83812e-07
-2.96965e-06
-3.90125e-07
-2.83864e-06
-3.94778e-07
-2.70681e-06
-3.97844e-07
-2.57466e-06
-3.99385e-07
-2.44278e-06
-3.99547e-07
-2.31163e-06
-3.98488e-07
-2.18172e-06
-3.96345e-07
-2.05348e-06
-3.93146e-07
-1.92673e-06
-3.88879e-07
-1.80168e-06
-3.8357e-07
-1.67866e-06
-3.77457e-07
-1.55785e-06
-3.70674e-07
-1.43944e-06
-3.63414e-07
-1.32351e-06
-3.55783e-07
-1.21013e-06
-3.47908e-07
-1.09932e-06
-3.39862e-07
-9.91099e-07
-3.31747e-07
-8.85435e-07
-3.23623e-07
-7.82257e-07
-3.15534e-07
-6.81536e-07
-3.0753e-07
-5.83149e-07
-2.99619e-07
-4.87146e-07
-2.91895e-07
-3.93417e-07
-2.84386e-07
-3.02025e-07
-2.77206e-07
-2.12804e-07
-2.70341e-07
-1.25749e-07
-2.63884e-07
-4.06192e-08
-2.57787e-07
4.26041e-08
-2.52043e-07
1.24033e-07
-2.46563e-07
2.03622e-07
-2.41347e-07
2.81479e-07
-2.36328e-07
3.57608e-07
-2.3149e-07
4.32159e-07
-2.26778e-07
5.05059e-07
-2.22189e-07
5.76349e-07
-2.1764e-07
6.46072e-07
-2.1311e-07
7.14382e-07
-2.08595e-07
7.81339e-07
-2.04123e-07
8.47053e-07
-1.99718e-07
9.11494e-07
-1.95405e-07
9.74661e-07
-1.91184e-07
1.03647e-06
-1.87055e-07
1.09696e-06
-1.82969e-07
1.15611e-06
-1.78958e-07
1.21397e-06
-1.75025e-07
1.27049e-06
-1.71179e-07
1.32575e-06
-1.67409e-07
1.3797e-06
-1.63699e-07
1.4324e-06
-1.60006e-07
1.48385e-06
-1.56331e-07
1.5341e-06
-1.52727e-07
1.58309e-06
-1.49221e-07
1.63084e-06
-1.45759e-07
1.67737e-06
-1.42283e-07
1.72273e-06
-1.38818e-07
1.76689e-06
-1.3546e-07
1.80985e-06
-1.32201e-07
1.85165e-06
-1.28925e-07
1.89237e-06
-1.25581e-07
1.93203e-06
-1.22197e-07
1.97059e-06
-1.18808e-07
2.00807e-06
-1.15379e-07
2.04448e-06
-1.11945e-07
2.07983e-06
-1.08572e-07
2.11412e-06
-1.05274e-07
2.14728e-06
-1.02002e-07
2.17922e-06
-9.86613e-08
2.20989e-06
-9.50571e-08
2.23923e-06
-9.10049e-08
2.26713e-06
-8.64029e-08
2.29352e-06
-8.12998e-08
2.3183e-06
-7.56972e-08
2.3415e-06
-6.95458e-08
2.36335e-06
-6.3105e-08
2.38398e-06
-5.71493e-08
2.40379e-06
-5.23258e-08
2.42314e-06
-4.91479e-08
2.44241e-06
-4.77219e-08
2.46193e-06
-4.76398e-08
2.4815e-06
-4.92877e-08
2.50058e-06
-5.19922e-08
2.51744e-06
-5.53018e-08
2.52981e-06
-5.78231e-08
2.54185e-06
-5.29982e-08
2.55365e-06
-4.64772e-08
2.56075e-06
-4.60975e-08
2.56692e-06
-4.50096e-08
2.57339e-06
-4.24532e-08
2.58028e-06
-3.87553e-08
2.587e-06
-3.43334e-08
2.59299e-06
-2.89906e-08
2.59771e-06
-2.21417e-08
2.60046e-06
-1.41465e-08
2.60087e-06
-3.94466e-09
2.5983e-06
1.13773e-08
2.59139e-06
3.58434e-08
2.58165e-06
7.90092e-08
1.54544e-07
2.57178e-06
2.339e-08
-3.69993e-07
1.93139e-08
-3.22691e-07
3.45114e-09
-2.55287e-07
-2.40251e-08
-1.83949e-07
-6.32785e-08
-1.12271e-07
-1.14265e-07
-4.11961e-08
-1.77164e-07
2.89226e-08
-2.52577e-07
9.79354e-08
-3.4164e-07
1.6568e-07
-4.46083e-07
2.31929e-07
-5.68379e-07
2.96608e-07
-7.09858e-07
3.59842e-07
-8.69909e-07
4.21644e-07
-1.0453e-06
4.81391e-07
-1.23139e-06
5.37779e-07
-1.42122e-06
5.89064e-07
-1.60703e-06
6.33286e-07
-1.78242e-06
6.68642e-07
-1.94375e-06
6.94331e-07
-2.08939e-06
7.10365e-07
-2.21933e-06
7.17346e-07
-2.33454e-06
7.16215e-07
-2.43699e-06
7.08127e-07
-2.52892e-06
6.94332e-07
-2.61271e-06
6.76083e-07
-2.69049e-06
6.54565e-07
-2.76408e-06
6.3085e-07
-2.83496e-06
6.05867e-07
-2.90413e-06
5.80371e-07
-2.97234e-06
5.54928e-07
-3.03995e-06
5.29972e-07
-3.10729e-06
5.05817e-07
-3.1743e-06
4.82663e-07
-3.2411e-06
4.60622e-07
-3.30743e-06
4.39732e-07
-3.37331e-06
4.19974e-07
-3.43844e-06
4.01294e-07
-3.5028e-06
3.83602e-07
-3.56607e-06
3.66793e-07
-3.62827e-06
3.50749e-07
-3.68907e-06
3.35346e-07
-3.74848e-06
3.20453e-07
-3.8062e-06
3.05941e-07
-3.86225e-06
2.91683e-07
-3.91631e-06
2.77552e-07
-3.96841e-06
2.63431e-07
-4.01825e-06
2.492e-07
-4.06584e-06
2.34752e-07
-4.11085e-06
2.19985e-07
-4.15327e-06
2.04802e-07
-4.19277e-06
1.89116e-07
-4.22928e-06
1.72852e-07
-4.26242e-06
1.55936e-07
-4.29208e-06
1.38298e-07
-4.31785e-06
1.19876e-07
-4.33957e-06
1.00608e-07
-4.35681e-06
8.04412e-08
-4.36934e-06
5.93248e-08
-4.37673e-06
3.72225e-08
-4.37875e-06
1.41126e-08
-4.375e-06
-9.99819e-09
-4.36528e-06
-3.5083e-08
-4.34924e-06
-6.10799e-08
-4.32672e-06
-8.79168e-08
-4.29746e-06
-1.15478e-07
-4.2613e-06
-1.43629e-07
-4.21808e-06
-1.72221e-07
-4.16775e-06
-2.01085e-07
-4.11024e-06
-2.3002e-07
-4.04561e-06
-2.58822e-07
-3.97395e-06
-2.87237e-07
-3.89538e-06
-3.14984e-07
-3.81012e-06
-3.41811e-07
-3.71845e-06
-3.67469e-07
-3.62076e-06
-3.91692e-07
-3.51752e-06
-4.14375e-07
-3.40915e-06
-4.35418e-07
-3.29618e-06
-4.54597e-07
-3.17911e-06
-4.71672e-07
-3.05855e-06
-4.86561e-07
-2.93508e-06
-4.99175e-07
-2.80928e-06
-5.09505e-07
-2.68172e-06
-5.17563e-07
-2.55295e-06
-5.23398e-07
-2.42352e-06
-5.27095e-07
-2.29397e-06
-5.28767e-07
-2.1648e-06
-5.28584e-07
-2.03647e-06
-5.26719e-07
-1.90955e-06
-5.23397e-07
-1.78417e-06
-5.186e-07
-1.66047e-06
-5.12565e-07
-1.53861e-06
-5.05307e-07
-1.41882e-06
-4.97043e-07
-1.30129e-06
-4.87975e-07
-1.18615e-06
-4.78293e-07
-1.07349e-06
-4.68171e-07
-9.6335e-07
-4.57742e-07
-8.55751e-07
-4.4714e-07
-7.50677e-07
-4.36461e-07
-6.48095e-07
-4.25811e-07
-5.47945e-07
-4.15224e-07
-4.50153e-07
-4.0479e-07
-3.54665e-07
-3.94522e-07
-2.61435e-07
-3.84529e-07
-1.70437e-07
-3.74842e-07
-8.15868e-08
-3.656e-07
5.20069e-09
-3.56763e-07
8.99706e-08
-3.48376e-07
1.72765e-07
-3.40369e-07
2.53638e-07
-3.32765e-07
3.32669e-07
-3.25477e-07
4.09917e-07
-3.18521e-07
4.8545e-07
-3.11805e-07
5.59327e-07
-3.05342e-07
6.31614e-07
-2.99049e-07
7.02339e-07
-2.9293e-07
7.71559e-07
-2.86894e-07
8.39327e-07
-2.80954e-07
9.05732e-07
-2.75069e-07
9.70838e-07
-2.6928e-07