/*--------------------------------*- C++ -*----------------------------------*\
  =========                 |
  \\      /  F ield         | OpenFOAM: The Open Source CFD Toolbox
   \\    /   O peration     | Website:  https://openfoam.org
    \\  /    A nd           | Version:  8
     \\/     M anipulation  |
\*---------------------------------------------------------------------------*/
FoamFile
{
    version     2.0;
    format      ascii;
    class       volVectorField;
    location    "50";
    object      U;
}
// * * * * * * * * * * * * * * * * * * * * * * * * * * * * * * * * * * * * * //

dimensions      [0 1 -1 0 0 0 0];

internalField   nonuniform List<vector> 
12225
(
(9.85685 -0.886478 0)
(9.66583 -0.740516 0)
(9.45337 -0.429494 0)
(9.21992 -0.221783 0)
(8.99875 -0.105649 0)
(8.80298 -0.0449078 0)
(8.63107 -0.0141931 0)
(8.48312 0.0016274 0)
(8.35471 0.00988461 0)
(8.24428 0.0141888 0)
(8.14647 0.0163309 0)
(8.05884 0.0178791 0)
(7.97799 0.0190132 0)
(7.90174 0.0203397 0)
(7.82564 0.0221847 0)
(7.75075 0.0253508 0)
(7.6451 0.0308911 0)
(7.60171 0.0448498 0)
(10.0545 0.227697 0)
(10.1208 0.327161 0)
(10.1189 0.262054 0)
(10.0838 0.187327 0)
(10.0402 0.135821 0)
(9.99162 0.102464 0)
(9.93628 0.0808765 0)
(9.87395 0.0666073 0)
(9.80856 0.0569792 0)
(9.74124 0.0501328 0)
(9.67391 0.0451821 0)
(9.60681 0.0416603 0)
(9.54083 0.0394429 0)
(9.47611 0.0386693 0)
(9.41158 0.039382 0)
(9.35011 0.0440425 0)
(9.28061 0.0503345 0)
(9.23951 0.0803335 0)
(10.0035 0.0580718 0)
(10.0299 0.0564012 0)
(10.055 0.0346679 0)
(10.068 0.0340409 0)
(10.0731 0.0421205 0)
(10.0719 0.0484749 0)
(10.0641 0.0518579 0)
(10.0497 0.0536141 0)
(10.0307 0.0544498 0)
(10.0079 0.0547099 0)
(9.98183 0.0547962 0)
(9.95289 0.0551546 0)
(9.92162 0.0560832 0)
(9.88835 0.0580584 0)
(9.85258 0.0612018 0)
(9.81546 0.0678782 0)
(9.77446 0.076854 0)
(9.73765 0.100971 0)
(9.99776 0.0112315 0)
(10.0106 0.0272105 0)
(10.0337 0.0380929 0)
(10.0499 0.0494407 0)
(10.0601 0.0574594 0)
(10.0671 0.0608864 0)
(10.0705 0.0618462 0)
(10.0702 0.0620853 0)
(10.0669 0.0621676 0)
(10.061 0.0622329 0)
(10.0526 0.0625389 0)
(10.042 0.0634317 0)
(10.0291 0.065127 0)
(10.0143 0.0680296 0)
(9.99726 0.0724265 0)
(9.97862 0.0799168 0)
(9.95822 0.0905945 0)
(9.93953 0.109582 0)
(9.99929 0.00744313 0)
(10.0085 0.032379 0)
(10.0261 0.0451587 0)
(10.0391 0.0518777 0)
(10.0485 0.0563391 0)
(10.0564 0.0587519 0)
(10.0624 0.0599586 0)
(10.066 0.0608279 0)
(10.0674 0.0616638 0)
(10.067 0.0625798 0)
(10.0647 0.0637966 0)
(10.0606 0.0656266 0)
(10.0548 0.0682965 0)
(10.0475 0.0721814 0)
(10.0386 0.0776446 0)
(10.0287 0.0857764 0)
(10.0182 0.0970131 0)
(10.0098 0.112968 0)
(10.0002 0.009502 0)
(10.0078 0.0320953 0)
(10.0214 0.0426024 0)
(10.0323 0.047863 0)
(10.0407 0.0523274 0)
(10.0483 0.0556187 0)
(10.0546 0.0577619 0)
(10.0591 0.0594 0)
(10.062 0.0609369 0)
(10.0635 0.0625585 0)
(10.0634 0.0644853 0)
(10.0618 0.0670082 0)
(10.0589 0.0703732 0)
(10.0549 0.0749367 0)
(10.0498 0.0810602 0)
(10.0441 0.0894834 0)
(10.0385 0.10055 0)
(10.0349 0.114652 0)
(10.0004 0.00934786 0)
(10.0067 0.028238 0)
(10.0177 0.0384226 0)
(10.0275 0.0442921 0)
(10.0353 0.0493119 0)
(10.0423 0.0531755 0)
(10.0483 0.0558521 0)
(10.0529 0.0579647 0)
(10.0562 0.0599771 0)
(10.0583 0.062116 0)
(10.0592 0.0645859 0)
(10.0588 0.0676515 0)
(10.0574 0.0715647 0)
(10.0551 0.0766417 0)
(10.0522 0.0831965 0)
(10.0489 0.0916933 0)
(10.0461 0.102324 0)
(10.0448 0.114912 0)
(10.0004 0.0083985 0)
(10.0055 0.024745 0)
(10.0148 0.0350852 0)
(10.0237 0.0415121 0)
(10.031 0.0467258 0)
(10.0374 0.0508049 0)
(10.043 0.0538259 0)
(10.0475 0.0563318 0)
(10.051 0.0587612 0)
(10.0534 0.0613463 0)
(10.0547 0.0642854 0)
(10.0551 0.0678198 0)
(10.0546 0.0721921 0)
(10.0535 0.0776617 0)
(10.0519 0.0844737 0)
(10.0503 0.092896 0)
(10.0492 0.103 0)
(10.0494 0.114444 0)
(10.0003 0.00752438 0)
(10.0046 0.0220147 0)
(10.0125 0.0321826 0)
(10.0204 0.0388406 0)
(10.0272 0.044106 0)
(10.0333 0.0483303 0)
(10.0385 0.0516647 0)
(10.0429 0.0545551 0)
(10.0464 0.0573826 0)
(10.049 0.0603709 0)
(10.0507 0.0637209 0)
(10.0516 0.067657 0)
(10.0518 0.0723979 0)
(10.0516 0.0781411 0)
(10.0511 0.0850648 0)
(10.0507 0.0933127 0)
(10.0509 0.102885 0)
(10.0521 0.113425 0)
(10.0003 0.00677755 0)
(10.0039 0.0196743 0)
(10.0105 0.0293984 0)
(10.0176 0.0361139 0)
(10.0239 0.0414405 0)
(10.0296 0.0458231 0)
(10.0346 0.0494399 0)
(10.0389 0.0526759 0)
(10.0424 0.0558582 0)
(10.0452 0.0592034 0)
(10.0472 0.0629065 0)
(10.0486 0.0671762 0)
(10.0494 0.0721928 0)
(10.05 0.0781044 0)
(10.0504 0.085031 0)
(10.051 0.0930411 0)
(10.0522 0.102093 0)
(10.0541 0.111862 0)
(10.0003 0.00610178 0)
(10.0033 0.0175886 0)
(10.0088 0.026743 0)
(10.0151 0.0334108 0)
(10.021 0.0387792 0)
(10.0264 0.0432979 0)
(10.0312 0.0471498 0)
(10.0354 0.0506707 0)
(10.039 0.0541494 0)
(10.042 0.0577915 0)
(10.0443 0.0617849 0)
(10.0461 0.0663115 0)
(10.0476 0.0715194 0)
(10.0488 0.0775083 0)
(10.0501 0.084356 0)
(10.0515 0.092078 0)
(10.0535 0.100621 0)
(10.056 0.109708 0)
(10.0003 0.00551411 0)
(10.0028 0.0158639 0)
(10.0076 0.0244542 0)
(10.0132 0.0310266 0)
(10.0187 0.0363779 0)
(10.0239 0.0409602 0)
(10.0285 0.0449935 0)
(10.0327 0.0487407 0)
(10.0364 0.052439 0)
(10.0395 0.0562875 0)
(10.0422 0.060481 0)
(10.0444 0.0651927 0)
(10.0463 0.0705197 0)
(10.0482 0.0765325 0)
(10.0501 0.0832479 0)
(10.0523 0.0906759 0)
(10.0549 0.0987525 0)
(10.058 0.107278 0)
(10.0002 0.00497482 0)
(10.0024 0.0142853 0)
(10.0066 0.022283 0)
(10.0117 0.028679 0)
(10.0168 0.0339634 0)
(10.0217 0.0385495 0)
(10.0262 0.0427026 0)
(10.0304 0.046639 0)
(10.0341 0.0505255 0)
(10.0375 0.0545301 0)
(10.0405 0.058852 0)
(10.0432 0.0636587 0)
(10.0456 0.0690302 0)
(10.048 0.0750006 0)
(10.0506 0.0815575 0)
(10.0533 0.0886802 0)
(10.0565 0.0963163 0)
(10.0601 0.104289 0)
(10.0002 0.00441885 0)
(10.0021 0.012654 0)
(10.0057 0.0199454 0)
(10.0102 0.0260431 0)
(10.015 0.0312135 0)
(10.0196 0.0357456 0)
(10.0241 0.039947 0)
(10.0283 0.0440298 0)
(10.0321 0.0480946 0)
(10.0357 0.0522392 0)
(10.0391 0.0566505 0)
(10.0423 0.0614721 0)
(10.0453 0.0668107 0)
(10.0483 0.0726547 0)
(10.0515 0.0789955 0)
(10.0548 0.0857633 0)
(10.0586 0.0929167 0)
(10.0627 0.100288 0)
(10.0002 0.00384375 0)
(10.0018 0.0109457 0)
(10.0049 0.0174561 0)
(10.009 0.0231044 0)
(10.0133 0.0280632 0)
(10.0178 0.0324867 0)
(10.0223 0.0366307 0)
(10.0265 0.0407391 0)
(10.0305 0.0448992 0)
(10.0344 0.0491574 0)
(10.0381 0.0536009 0)
(10.0418 0.0583722 0)
(10.0455 0.0635479 0)
(10.0492 0.0691613 0)
(10.0529 0.0751573 0)
(10.0569 0.0814915 0)
(10.0613 0.0880831 0)
(10.0659 0.0948121 0)
(10.0002 0.0032389 0)
(10.0016 0.00914748 0)
(10.0043 0.0147787 0)
(10.008 0.0198101 0)
(10.012 0.0243981 0)
(10.0163 0.0286225 0)
(10.0208 0.0326135 0)
(10.0252 0.0365981 0)
(10.0295 0.0407017 0)
(10.0336 0.0449466 0)
(10.0378 0.0493428 0)
(10.042 0.0539662 0)
(10.0463 0.0588795 0)
(10.0507 0.064124 0)
(10.0551 0.0696633 0)
(10.0597 0.0754423 0)
(10.0646 0.0813965 0)
(10.0697 0.0874039 0)
(10.0001 0.0025838 0)
(10.0014 0.00721728 0)
(10.0039 0.0118161 0)
(10.0073 0.0160615 0)
(10.0112 0.0200809 0)
(10.0154 0.0239324 0)
(10.0199 0.0276519 0)
(10.0246 0.0313713 0)
(10.0292 0.0352297 0)
(10.0338 0.0392484 0)
(10.0383 0.0434276 0)
(10.0431 0.0477604 0)
(10.048 0.0522992 0)
(10.053 0.0570466 0)
(10.0581 0.0620096 0)
(10.0632 0.0671195 0)
(10.0686 0.0723475 0)
(10.0742 0.0775744 0)
(10.0001 0.00184448 0)
(10.0013 0.0050526 0)
(10.0037 0.00842635 0)
(10.007 0.0116873 0)
(10.011 0.0148891 0)
(10.0153 0.0181001 0)
(10.0199 0.0213278 0)
(10.0249 0.0246082 0)
(10.03 0.028019 0)
(10.0349 0.0315953 0)
(10.04 0.0353305 0)
(10.0452 0.0392061 0)
(10.0507 0.0432213 0)
(10.0563 0.0473673 0)
(10.0619 0.051633 0)
(10.0676 0.0559848 0)
(10.0734 0.0603879 0)
(10.0794 0.0647834 0)
(10.0002 0.000942191 0)
(10.0014 0.00244462 0)
(10.0038 0.00427491 0)
(10.0073 0.0062397 0)
(10.0115 0.00834058 0)
(10.0161 0.0106127 0)
(10.0211 0.0130679 0)
(10.0264 0.0156714 0)
(10.032 0.0184277 0)
(10.0375 0.0213371 0)
(10.0431 0.0244091 0)
(10.0488 0.0276124 0)
(10.0548 0.0309336 0)
(10.0609 0.0343341 0)
(10.0671 0.0377957 0)
(10.0732 0.0412854 0)
(10.0794 0.0447876 0)
(10.0857 0.0482801 0)
(10.0002 1.64567e-05 0)
(10.0015 -0.000206437 0)
(10.0043 1.68189e-05 0)
(10.0081 0.000625583 0)
(10.0128 0.00158977 0)
(10.0179 0.0028855 0)
(10.0233 0.0044919 0)
(10.0291 0.0063627 0)
(10.0351 0.00841808 0)
(10.0411 0.0106555 0)
(10.0471 0.0130531 0)
(10.0533 0.0156115 0)
(10.0597 0.0182665 0)
(10.0662 0.0209952 0)
(10.0726 0.02374 0)
(10.0791 0.0265038 0)
(10.0855 0.0292474 0)
(10.092 0.032003 0)
(10.0002 -0.000810491 0)
(10.0017 -0.0026021 0)
(10.0048 -0.00382594 0)
(10.0092 -0.00438004 0)
(10.0144 -0.00434585 0)
(10.02 -0.00383342 0)
(10.0259 -0.00290029 0)
(10.0322 -0.00162426 0)
(10.0385 -0.000116706 0)
(10.0448 0.00159847 0)
(10.0513 0.00350463 0)
(10.0578 0.00558621 0)
(10.0645 0.00776304 0)
(10.0711 0.00999759 0)
(10.0778 0.0122352 0)
(10.0844 0.0144814 0)
(10.091 0.0167058 0)
(10.0976 0.0189447 0)
(10.0002 -0.00160598 0)
(10.0019 -0.0049861 0)
(10.0056 -0.00768217 0)
(10.0107 -0.00933001 0)
(10.0164 -0.0100911 0)
(10.0226 -0.0102118 0)
(10.029 -0.00978923 0)
(10.0356 -0.00897812 0)
(10.0423 -0.00790467 0)
(10.049 -0.00662061 0)
(10.0557 -0.00511584 0)
(10.0626 -0.00345124 0)
(10.0694 -0.00167986 0)
(10.0762 0.000113931 0)
(10.083 0.00192888 0)
(10.0897 0.00373158 0)
(10.0964 0.00554305 0)
(10.1031 0.00735811 0)
(10.0002 -0.00235509 0)
(10.0021 -0.0073829 0)
(10.0064 -0.0115311 0)
(10.0123 -0.0141436 0)
(10.0188 -0.0156356 0)
(10.0256 -0.0163412 0)
(10.0325 -0.0163547 0)
(10.0394 -0.0158736 0)
(10.0464 -0.0150974 0)
(10.0534 -0.0140907 0)
(10.0604 -0.0128785 0)
(10.0674 -0.0115198 0)
(10.0744 -0.010091 0)
(10.0813 -0.00864374 0)
(10.0882 -0.0071922 0)
(10.095 -0.00573195 0)
(10.1018 -0.00427196 0)
(10.1085 -0.00279039 0)
(10.0002 -0.00302415 0)
(10.0022 -0.0101592 0)
(10.0073 -0.015522 0)
(10.0142 -0.0185529 0)
(10.0214 -0.0205615 0)
(10.0287 -0.0218887 0)
(10.0361 -0.0224019 0)
(10.0435 -0.0222714 0)
(10.0507 -0.0217457 0)
(10.0579 -0.0209394 0)
(10.0652 -0.0199183 0)
(10.0724 -0.0187636 0)
(10.0795 -0.0175679 0)
(10.0864 -0.016361 0)
(10.0933 -0.0151628 0)
(10.1002 -0.0139543 0)
(10.107 -0.0127622 0)
(10.1137 -0.0115603 0)
(9.99995 -0.00298276 0)
(10.002 -0.0138708 0)
(10.0084 -0.0208831 0)
(10.0163 -0.0236126 0)
(10.0238 -0.025331 0)
(10.0317 -0.026732 0)
(10.0397 -0.0274948 0)
(10.0476 -0.0276844 0)
(10.0553 -0.0274884 0)
(10.0628 -0.0269814 0)
(10.0703 -0.0262212 0)
(10.0776 -0.0253108 0)
(10.0846 -0.0243378 0)
(10.0915 -0.0233422 0)
(10.0983 -0.0223287 0)
(10.105 -0.0213034 0)
(10.1117 -0.0202777 0)
(10.1181 -0.0192595 0)
(9.99864 -9.2435e-05 0)
(9.99945 -0.0149261 0)
(10.0086 -0.0259522 0)
(10.0187 -0.0304794 0)
(10.0271 -0.0323144 0)
(10.0356 -0.0329637 0)
(10.0444 -0.0329008 0)
(10.0528 -0.0325811 0)
(10.0607 -0.0321817 0)
(10.0684 -0.0316514 0)
(10.0758 -0.0309697 0)
(10.0829 -0.0301938 0)
(10.0896 -0.0293989 0)
(10.0959 -0.0285967 0)
(10.1021 -0.0277795 0)
(10.1081 -0.0269419 0)
(10.1139 -0.0260925 0)
(10.1195 -0.0252352 0)
(9.99495 0.0015516 0)
(9.99328 -0.00753655 0)
(10.0071 -0.0192956 0)
(10.0221 -0.0306433 0)
(10.0339 -0.0384445 0)
(10.0442 -0.0417436 0)
(10.0534 -0.0421521 0)
(10.0615 -0.0414463 0)
(10.0685 -0.0404017 0)
(10.0749 -0.0391757 0)
(10.0807 -0.0378406 0)
(10.0858 -0.0365008 0)
(10.0903 -0.0352467 0)
(10.0943 -0.0341023 0)
(10.098 -0.0330392 0)
(10.1015 -0.0320203 0)
(10.1047 -0.0310478 0)
(10.1077 -0.0300525 0)
(9.99478 -0.0304415 0)
(9.9996 -0.0223968 0)
(10.0156 -0.00203451 0)
(10.0322 -0.000845544 0)
(10.0463 -0.0100851 0)
(10.0577 -0.0189743 0)
(10.0656 -0.025001 0)
(10.0698 -0.0289336 0)
(10.0716 -0.0314156 0)
(10.0716 -0.0327473 0)
(10.0704 -0.0332097 0)
(10.068 -0.0331151 0)
(10.0647 -0.032716 0)
(10.0609 -0.0322008 0)
(10.0567 -0.031635 0)
(10.0524 -0.0310394 0)
(10.0481 -0.0304787 0)
(10.0436 -0.0298499 0)
(10.0272 -0.182681 0)
(10.0764 -0.288093 0)
(10.0877 -0.247306 0)
(10.079 -0.186044 0)
(10.0685 -0.139622 0)
(10.0572 -0.107158 0)
(10.0416 -0.08442 0)
(10.0212 -0.0686752 0)
(9.99811 -0.0577441 0)
(9.97354 -0.0498146 0)
(9.94843 -0.0437808 0)
(9.92311 -0.0389974 0)
(9.89803 -0.0351248 0)
(9.87359 -0.0319623 0)
(9.8501 -0.0293494 0)
(9.82769 -0.0272234 0)
(9.8066 -0.0254935 0)
(9.78667 -0.0244843 0)
(9.93588 0.689398 0)
(9.86927 0.609728 0)
(9.76637 0.381295 0)
(9.63003 0.218025 0)
(9.49137 0.119711 0)
(9.36543 0.0637601 0)
(9.25396 0.0323959 0)
(9.15562 0.014648 0)
(9.06948 0.00441627 0)
(8.99461 -0.00157444 0)
(8.92922 -0.00504153 0)
(8.87177 -0.00703063 0)
(8.82087 -0.00811463 0)
(8.77568 -0.00868926 0)
(8.73541 -0.00902525 0)
(8.69935 -0.00914419 0)
(8.66667 -0.00925782 0)
(8.63672 -0.00980176 0)
(0.0815826 -0.0594596 -2.00466e-19)
(0.163266 -0.132392 1.07583e-19)
(0.258527 -0.162601 0)
(0.399781 -0.168764 0)
(0.511869 -0.15683 0)
(0.600189 -0.131222 -8.95086e-20)
(0.659879 -0.105612 0)
(0.69991 -0.065528 0)
(0.71257 -0.00714043 0)
(0.681049 0.0813408 0)
(0.620201 0.116135 5.4889e-20)
(0.563471 0.0957528 0)
(0.513821 0.0551519 0)
(0.475224 0.0134807 0)
(0.425596 0.0123235 0)
(0.385142 0.00236581 1.25083e-19)
(0.341303 -0.00540788 0)
(0.288822 -0.00626415 0)
(0.218701 0.00311295 0)
(0.128702 0.0280644 0)
(0.0276977 0.0609487 0)
(-0.101458 0.0961561 0)
(-0.258991 0.131102 0)
(-0.435622 0.161084 9.07802e-20)
(-0.626339 0.18468 -7.37717e-20)
(-0.827111 0.201851 6.20723e-20)
(-1.03397 0.212787 5.37998e-20)
(-1.24341 0.218136 0)
(-1.45228 0.218839 0)
(-1.65779 0.215729 -4.01151e-20)
(-1.85797 0.209916 -3.76368e-20)
(-2.05143 0.202302 0)
(-2.23715 0.193627 0)
(-2.41467 0.184442 -3.31841e-20)
(-2.58371 0.175179 0)
(-2.74441 0.166086 0)
(-2.89696 0.157377 3.1114e-20)
(-3.04176 0.149101 0)
(-3.17918 0.141332 3.03773e-20)
(-3.30971 0.134002 6.02503e-20)
(-3.43374 0.12712 0)
(-3.55169 0.120572 0)
(-3.66388 0.114343 0)
(-3.77064 0.108302 0)
(-3.8722 0.102442 0)
(-3.9688 0.0966419 5.90292e-20)
(-4.06052 0.0909256 5.90075e-20)
(-4.14748 0.0851881 5.90186e-20)
(-4.22966 0.079478 0)
(-4.30708 0.073725 -5.91507e-20)
(-4.37962 0.0680151 0)
(-4.44719 0.0622601 5.9448e-20)
(-4.50949 0.0565494 5.9669e-20)
(-4.5663 0.0508 0)
(-4.61722 0.0451118 0)
(-4.66204 0.0393716 0)
(-4.7003 0.0336453 6.10546e-20)
(-4.73167 0.0277424 0)
(-4.75564 0.0218111 0)
(-4.77213 0.0158355 0)
(-4.78077 0.0104052 0)
(-4.78271 0.00548381 0)
(-4.77825 0.000501463 0)
(-4.76723 -0.00488104 0)
(-4.7497 -0.00977234 0)
(-4.72573 -0.0150234 -6.37684e-20)
(-4.69504 -0.0211039 0)
(-4.65743 -0.0270795 0)
(-4.61311 -0.032265 6.27409e-20)
(-4.56212 -0.0378598 6.20576e-20)
(-4.50426 -0.0447171 0)
(-4.43938 -0.0507719 -6.00845e-20)
(-4.36834 -0.0553546 5.86898e-20)
(-4.29124 -0.0590303 0)
(-4.20884 -0.0624212 -5.52968e-20)
(-4.12045 -0.0696508 0)
(-4.02581 -0.0741042 0)
(-3.92687 -0.077118 4.80548e-20)
(-3.82298 -0.0804273 0)
(-3.71559 -0.0832729 -4.19498e-20)
(-3.60379 -0.0878037 0)
(-3.48905 -0.089624 3.47622e-20)
(-3.37172 -0.0915806 3.07911e-20)
(-3.25228 -0.0928421 2.65818e-20)
(-3.13119 -0.0939987 4.42841e-20)
(-3.00893 -0.0946581 -3.49442e-20)
(-2.88612 -0.0954167 0)
(-2.76329 -0.0943407 0)
(-2.64171 -0.0942975 0)
(-2.51969 -0.0954183 6.56569e-21)
(-2.399 -0.0936084 1.79331e-20)
(-2.279 -0.0927132 -2.97148e-20)
(-2.16044 -0.0911988 0)
(-2.04364 -0.0895848 5.45801e-20)
(-1.92875 -0.0879755 6.7705e-20)
(-1.81595 -0.086264 8.13292e-20)
(-1.70531 -0.0844863 0)
(-1.5969 -0.0826764 0)
(-1.4908 -0.0808461 0)
(-1.38702 -0.0790218 1.41845e-19)
(-1.28555 -0.0772189 0)
(-1.18631 -0.0754296 0)
(-1.08927 -0.0736933 -1.95726e-19)
(-0.994422 -0.0719804 0)
(-0.901824 -0.0704262 0)
(-0.811497 -0.0689876 -2.60485e-19)
(-0.723459 -0.0677284 0)
(-0.637648 -0.0665955 0)
(-0.553944 -0.0656493 3.41223e-19)
(-0.47224 -0.0647938 3.73127e-19)
(-0.392408 -0.064111 0)
(-0.314347 -0.0634945 -4.47355e-19)
(-0.237901 -0.0630001 0)
(-0.163032 -0.0625889 5.40626e-19)
(-0.0899084 -0.0622291 0)
(-0.0179909 -0.0611593 6.29587e-19)
(0.0533128 -0.0589781 6.11723e-19)
(0.123539 -0.0562643 0)
(0.192377 -0.053614 0)
(0.259721 -0.0510392 0)
(0.325711 -0.0486248 0)
(0.390531 -0.0464003 0)
(0.454215 -0.0444352 0)
(0.516736 -0.0426372 0)
(0.577896 -0.0408965 4.41943e-19)
(0.637661 -0.0390841 -4.29592e-19)
(0.696234 -0.0374771 0)
(0.753562 -0.0360877 0)
(0.80969 -0.0348229 0)
(0.864891 -0.0338167 0)
(0.91889 -0.0328473 -7.63282e-19)
(0.971727 -0.0315512 0)
(1.02364 -0.0302707 7.34496e-19)
(1.07462 -0.0292658 -7.21591e-19)
(1.12457 -0.0285413 0)
(1.17337 -0.0276626 0)
(1.22116 -0.0264718 0)
(1.26811 -0.0253296 6.76969e-19)
(1.31409 -0.0246111 6.67493e-19)
(1.35882 -0.0240542 0)
(1.40242 -0.023438 6.50359e-19)
(1.44515 -0.0228979 6.42473e-19)
(1.487 -0.0224412 -6.34929e-19)
(1.52777 -0.0217999 0)
(1.56758 -0.0209295 0)
(1.60648 -0.0201725 -6.14243e-19)
(1.64441 -0.0195492 0)
(1.68149 -0.0194422 0)
(1.71757 -0.0194287 0)
(1.75269 -0.0185377 0)
(1.78696 -0.0170192 5.84285e-19)
(1.82003 -0.0153614 5.79018e-19)
(1.85174 -0.0141483 0)
(1.88162 -0.013623 5.69916e-19)
(1.90894 -0.0130682 0)
(1.93355 -0.0121309 0)
(1.9556 -0.0116307 5.63002e-19)
(1.97463 -0.0113629 0)
(1.99162 -0.0115703 5.67764e-19)
(2.00722 -0.0118434 0)
(2.02069 -0.0112139 0)
(2.03476 -0.0135328 5.89002e-19)
(2.04956 -0.0196211 0)
(2.07218 -0.0288593 5.9684e-19)
(2.10255 -0.0270334 0)
(2.13152 0.0387615 0)
(2.16903 0.0657626 0)
(2.20088 0.031616 -4.96728e-19)
(2.23576 0.0126662 0)
(2.26699 0.00179471 4.91851e-19)
(2.29397 -0.00437055 0)
(2.31721 -0.0087531 0)
(2.33684 -0.00895456 0)
(2.35338 -0.00709309 0)
(2.36653 -0.00751479 0)
(2.37567 -0.00529412 0)
(2.37776 -0.000435428 0)
(2.36518 0.00466487 -9.89244e-19)
(2.34214 0.0144966 0)
(2.2337 0.0288091 0)
(0.0798163 -0.360036 4.77983e-19)
(0.194237 -0.41365 -2.54059e-19)
(0.28782 -0.378115 0)
(0.35825 -0.324224 1.07166e-19)
(0.40478 -0.262826 0)
(0.432231 -0.193319 4.67689e-20)
(0.443434 -0.120632 -9.50598e-20)
(0.441086 -0.047333 -9.9841e-20)
(0.430514 0.0217008 0)
(0.413556 0.0774022 -1.05906e-19)
(0.391137 0.112578 -5.02672e-20)
(0.352686 0.132167 0)
(0.297952 0.143552 0)
(0.216817 0.153763 0)
(0.114255 0.154492 0)
(-0.00615153 0.16354 -7.65374e-20)
(-0.149343 0.196047 0)
(-0.317669 0.251427 1.14896e-19)
(-0.508356 0.315179 0)
(-0.715708 0.377532 0)
(-0.932444 0.434778 -7.59904e-20)
(-1.15494 0.482788 0)
(-1.37797 0.518946 5.99498e-20)
(-1.59738 0.542393 -2.75108e-20)
(-1.80993 0.553672 2.52431e-20)
(-2.01313 0.554381 -2.34762e-20)
(-2.20521 0.546355 -2.21174e-20)
(-2.38519 0.531469 0)
(-2.55252 0.511665 0)
(-2.70775 0.488721 1.9689e-20)
(-2.85157 0.463827 -1.96841e-20)
(-2.98486 0.438119 0)
(-3.10852 0.412461 0)
(-3.22355 0.387461 1.86715e-20)
(-3.33082 0.363563 0)
(-3.43119 0.340993 0)
(-3.52537 0.319915 -1.86151e-20)
(-3.614 0.300316 0)
(-3.69761 0.282196 1.87561e-20)
(-3.77663 0.265411 -3.75734e-20)
(-3.85138 0.24989 0)
(-3.92214 0.235434 0)
(-3.98908 0.22194 -7.58614e-20)
(-4.05234 0.209187 -7.6173e-20)
(-4.11199 0.197078 -7.6503e-20)
(-4.16809 0.185398 3.81949e-20)
(-4.22065 0.174076 -3.88448e-20)
(-4.26967 0.162911 -1.16628e-19)
(-4.31514 0.151852 7.79858e-20)
(-4.35703 0.140726 3.94101e-20)
(-4.39532 0.129545 0)
(-4.42996 0.118167 -3.98134e-20)
(-4.46089 0.106646 3.97242e-20)
(-4.48807 0.0948653 0)
(-4.51151 0.0829094 0)
(-4.53125 0.0706614 0)
(-4.54734 0.0582728 -4.10195e-20)
(-4.55983 0.0456776 0)
(-4.56883 0.0331032 8.27969e-20)
(-4.57425 0.0205319 0)
(-4.57611 0.00828751 8.35307e-20)
(-4.57302 -0.0037722 0)
(-4.56417 -0.0156399 -8.3918e-20)
(-4.54931 -0.0276242 0)
(-4.52814 -0.0396061 8.38238e-20)
(-4.50037 -0.0516977 -4.18394e-20)
(-4.46607 -0.063723 0)
(-4.42521 -0.0758042 -8.23025e-20)
(-4.37762 -0.0876864 -4.03637e-20)
(-4.32324 -0.0995086 -3.96389e-20)
(-4.26225 -0.110806 0)
(-4.1949 -0.121627 -3.88779e-20)
(-4.12121 -0.131969 -3.68272e-20)
(-4.04115 -0.141915 0)
(-3.95465 -0.151096 3.43783e-20)
(-3.86247 -0.159519 -6.72306e-20)
(-3.76584 -0.167486 0)
(-3.66426 -0.174694 -2.92054e-20)
(-3.55802 -0.180748 0)
(-3.44781 -0.186024 7.7648e-20)
(-3.33426 -0.190221 0)
(-3.21799 -0.193533 -6.45024e-20)
(-3.09923 -0.195954 -1.84238e-20)
(-2.97855 -0.197459 1.81816e-20)
(-2.85642 -0.198149 3.13455e-20)
(-2.73334 -0.19803 -2.61501e-20)
(-2.6099 -0.197301 0)
(-2.48667 -0.196118 0)
(-2.36392 -0.194491 0)
(-2.24237 -0.192262 3.2743e-21)
(-2.12213 -0.189428 -6.06093e-21)
(-2.0028 -0.185897 1.17593e-20)
(-1.88506 -0.181966 0)
(-1.76905 -0.177741 1.90239e-20)
(-1.65502 -0.173309 -2.90293e-20)
(-1.54312 -0.168762 -3.48201e-20)
(-1.43343 -0.164118 0)
(-1.326 -0.159447 0)
(-1.22086 -0.154769 0)
(-1.11803 -0.15014 -5.80895e-20)
(-1.01747 -0.145565 0)
(-0.919129 -0.14106 1.36043e-19)
(-0.822936 -0.136642 2.23613e-19)
(-0.728868 -0.132326 -1.59812e-19)
(-0.636927 -0.128202 0)
(-0.547126 -0.124268 -9.02553e-20)
(-0.459439 -0.120596 0)
(-0.373793 -0.117165 -2.08151e-19)
(-0.290102 -0.113983 1.08721e-19)
(-0.20824 -0.110978 1.15031e-19)
(-0.128095 -0.108202 0)
(-0.049511 -0.105622 3.87537e-19)
(0.0277414 -0.103284 -2.63611e-19)
(0.103631 -0.101082 -1.34315e-19)
(0.178138 -0.0989836 0)
(0.251307 -0.0967496 -1.36357e-19)
(0.322859 -0.0941163 -4.09974e-19)
(0.392697 -0.0911919 0)
(0.461068 -0.0882423 -2.7702e-19)
(0.528206 -0.0853406 -2.79134e-19)
(0.59424 -0.0825648 -2.81139e-19)
(0.659222 -0.0799239 0)
(0.723123 -0.0774295 0)
(0.785855 -0.0750206 0)
(0.84743 -0.0727045 1.43215e-19)
(0.907845 -0.0704561 1.45641e-19)
(0.967067 -0.0683412 0)
(1.02515 -0.0663296 2.92595e-19)
(1.0821 -0.064385 2.94013e-19)
(1.1379 -0.0624802 0)
(1.19265 -0.060628 2.97798e-19)
(1.2464 -0.0587688 5.95319e-19)
(1.29911 -0.0570348 -3.00044e-19)
(1.35075 -0.0553976 -2.9872e-19)
(1.40133 -0.0538236 0)
(1.45093 -0.0522267 0)
(1.49957 -0.0506531 0)
(1.54717 -0.049174 -3.04178e-19)
(1.59367 -0.0477981 3.02957e-19)
(1.6391 -0.0463832 6.09305e-19)
(1.68353 -0.0448883 -3.06218e-19)
(1.72705 -0.0434112 3.04915e-19)
(1.76966 -0.0419785 3.07096e-19)
(1.81135 -0.0405464 0)
(1.85207 -0.0390978 0)
(1.89186 -0.0377805 -3.061e-19)
(1.93067 -0.0364834 0)
(1.96847 -0.0352308 0)
(2.00545 -0.0340287 6.12885e-19)
(2.04149 -0.0327161 0)
(2.07625 -0.0313479 3.04977e-19)
(2.10956 -0.029857 -3.05585e-19)
(2.14127 -0.028181 0)
(2.17127 -0.0262866 3.03101e-19)
(2.1994 -0.0239923 0)
(2.22549 -0.0212836 0)
(2.24974 -0.0187512 -3.04469e-19)
(2.27254 -0.0165003 6.13365e-19)
(2.29428 -0.0148676 -3.11991e-19)
(2.31562 -0.0139222 0)
(2.33727 -0.013554 0)
(2.36029 -0.0136169 3.40783e-19)
(2.38411 -0.0140345 0)
(2.40695 -0.0168491 3.67255e-19)
(2.42694 -0.0256663 0)
(2.4463 -0.0402817 0)
(2.45912 -0.0391954 0)
(2.47423 -0.0309004 3.40907e-19)
(2.4885 -0.0246914 0)
(2.50462 -0.0201423 -3.37414e-19)
(2.52129 -0.0166007 0)
(2.53756 -0.0137271 0)
(2.55319 -0.0116049 6.86063e-19)
(2.56696 -0.00953835 -6.80753e-19)
(2.57836 -0.00700034 0)
(2.58659 -0.00404858 0)
(2.59283 0.000738747 0)
(2.59288 0.00927136 2.04995e-18)
(2.59319 0.0272298 0)
(2.5701 0.0576537 -1.36836e-18)
(0.0500415 -0.610008 8.11846e-22)
(0.11716 -0.603568 2.61698e-19)
(0.15627 -0.505448 0)
(0.17895 -0.400956 -1.71512e-19)
(0.186692 -0.298411 0)
(0.180202 -0.198715 0)
(0.161233 -0.102905 -4.21281e-22)
(0.131488 -0.0118774 8.2417e-20)
(0.0921795 0.0732166 8.49854e-20)
(0.0436347 0.149952 8.65953e-20)
(-0.0166502 0.213936 0)
(-0.0949175 0.267368 0)
(-0.19535 0.317435 -7.80994e-20)
(-0.321171 0.371178 -1.46997e-19)
(-0.471417 0.430469 1.36614e-19)
(-0.645906 0.497915 0)
(-0.838897 0.573294 1.1471e-19)
(-1.04128 0.650163 -5.29841e-20)
(-1.24492 0.720093 0)
(-1.44458 0.777905 8.84039e-20)
(-1.63527 0.821488 4.16188e-20)
(-1.81369 0.850007 -7.70006e-20)
(-1.97831 0.863332 -3.6342e-20)
(-2.12858 0.862606 0)
(-2.26521 0.849805 6.56813e-20)
(-2.38959 0.827126 6.30552e-20)
(-2.50327 0.796978 0)
(-2.60789 0.761673 5.91248e-20)
(-2.70516 0.723228 0)
(-2.79646 0.683404 5.68402e-20)
(-2.8828 0.643549 2.73928e-20)
(-2.96512 0.604637 0)
(-3.0441 0.56734 0)
(-3.12027 0.532067 0)
(-3.19398 0.499037 0)
(-3.26549 0.468297 0)
(-3.33495 0.439804 0)
(-3.40247 0.413417 5.45744e-20)
(-3.46809 0.388972 -8.18354e-20)
(-3.53183 0.366255 0)
(-3.59366 0.34507 0)
(-3.65355 0.325189 0)
(-3.71145 0.30642 6.30915e-23)
(-3.76729 0.288551 5.56224e-20)
(-3.82101 0.271411 1.11634e-19)
(-3.87253 0.254815 -1.12172e-19)
(-3.92176 0.238624 -5.62365e-20)
(-3.96862 0.222683 5.67822e-20)
(-4.01303 0.206892 -2.8346e-22)
(-4.05486 0.191124 5.70965e-20)
(-4.09402 0.175318 0)
(-4.13037 0.159388 5.77387e-20)
(-4.16377 0.143312 -2.64508e-22)
(-4.19403 0.127017 0)
(-4.22097 0.110493 0)
(-4.24441 0.0936795 -5.91447e-20)
(-4.26411 0.0765871 0)
(-4.2798 0.0591504 0)
(-4.29118 0.041382 6.00321e-20)
(-4.29789 0.0232211 1.20857e-19)
(-4.29959 0.00470265 -6.05941e-20)
(-4.29585 -0.0142175 0)
(-4.28641 -0.0334399 6.05714e-20)
(-4.27101 -0.052945 0)
(-4.24944 -0.0725904 6.05687e-20)
(-4.22148 -0.0923504 5.98066e-20)
(-4.18706 -0.112092 -1.19264e-19)
(-4.14607 -0.131725 -5.94773e-20)
(-4.09844 -0.151046 0)
(-4.04417 -0.17004 1.14594e-19)
(-3.98328 -0.188508 0)
(-3.91592 -0.206149 1.64079e-19)
(-3.8421 -0.222779 1.07106e-19)
(-3.76203 -0.238362 1.03825e-19)
(-3.67601 -0.252909 -9.99983e-20)
(-3.58453 -0.266394 1.42288e-19)
(-3.48822 -0.278478 0)
(-3.38704 -0.289248 0)
(-3.28158 -0.298469 -8.03764e-20)
(-3.17227 -0.306249 -1.1067e-19)
(-3.05974 -0.312498 0)
(-2.94451 -0.317185 2.97478e-20)
(-2.82704 -0.320394 0)
(-2.70783 -0.322158 -7.19827e-20)
(-2.58739 -0.322598 2.89294e-21)
(-2.46623 -0.321758 -2.88167e-21)
(-2.34483 -0.319822 2.74534e-20)
(-2.22378 -0.316889 0)
(-2.10342 -0.313225 -1.26091e-20)
(-1.98434 -0.308694 2.73716e-21)
(-1.8665 -0.303346 0)
(-1.74993 -0.297184 0)
(-1.63492 -0.290428 0)
(-1.52172 -0.283225 -2.70473e-20)
(-1.41049 -0.275731 0)
(-1.30138 -0.268049 0)
(-1.19445 -0.260263 0)
(-1.08975 -0.252448 0)
(-0.987294 -0.244665 0)
(-0.887087 -0.236974 -6.70831e-20)
(-0.789083 -0.229396 0)
(-0.693228 -0.22197 -8.26873e-20)
(-0.599456 -0.214698 -8.92777e-20)
(-0.507737 -0.20764 9.57889e-20)
(-0.418055 -0.200835 0)
(-0.33039 -0.19435 1.08601e-19)
(-0.244694 -0.188189 0)
(-0.160892 -0.182392 1.2118e-19)
(-0.0789059 -0.176931 -1.27407e-19)
(0.00146659 -0.171812 -3.92868e-19)
(0.0802653 -0.167008 0)
(0.157469 -0.162449 -4.11259e-19)
(0.233137 -0.158057 -1.37763e-19)
(0.307311 -0.153805 0)
(0.380062 -0.149689 -2.89234e-19)
(0.45144 -0.14571 -2.94231e-19)
(0.521408 -0.141823 4.50138e-19)
(0.589992 -0.137982 0)
(0.657298 -0.134185 1.55674e-19)
(0.723431 -0.130454 1.57941e-19)
(0.788481 -0.126825 4.78035e-19)
(0.852485 -0.123304 0)
(0.915417 -0.119901 0)
(0.977236 -0.116598 0)
(1.03791 -0.113367 1.66304e-19)
(1.09743 -0.110235 0)
(1.15584 -0.107209 0)
(1.21311 -0.104262 -1.74118e-19)
(1.26928 -0.101411 -1.75965e-19)
(1.32434 -0.0986159 0)
(1.3783 -0.0958574 0)
(1.43119 -0.0931608 -3.62344e-19)
(1.48302 -0.0905686 0)
(1.5338 -0.0880646 3.68849e-19)
(1.58351 -0.0856031 3.70317e-19)
(1.63215 -0.0831484 0)
(1.67975 -0.0807578 0)
(1.72632 -0.0784853 -3.78376e-19)
(1.77187 -0.076278 -1.27177e-21)
(1.81638 -0.074055 -1.23064e-21)
(1.8599 -0.0718158 0)
(1.90252 -0.0695936 -7.75822e-19)
(1.94423 -0.0673914 0)
(1.98499 -0.0651986 0)
(2.0248 -0.0630527 0)
(2.0637 -0.0609574 3.93725e-19)
(2.10164 -0.0589452 0)
(2.13866 -0.0569464 -7.87571e-19)
(2.1747 -0.0549111 -3.94877e-19)
(2.2096 -0.0528438 0)
(2.24325 -0.0506167 -3.94466e-19)
(2.27561 -0.0481221 0)
(2.30666 -0.045345 0)
(2.33629 -0.0422335 -1.17457e-18)
(2.36435 -0.0388014 7.80971e-19)
(2.39097 -0.0352711 0)
(2.41643 -0.0319941 7.81821e-19)
(2.44104 -0.029368 -3.94528e-19)
(2.46505 -0.0276565 0)
(2.48894 -0.026906 0)
(2.51312 -0.0268684 0)
(2.53752 -0.0279154 -1.33743e-18)
(2.56214 -0.0295388 0)
(2.58501 -0.0312174 -4.95146e-19)
(2.60488 -0.0325631 0)
(2.62314 -0.0306542 0)
(2.63914 -0.0292538 0)
(2.65322 -0.0302447 0)
(2.66476 -0.0292653 0)
(2.67634 -0.0272243 0)
(2.68825 -0.0247477 -1.09596e-18)
(2.70066 -0.0221481 0)
(2.71289 -0.0193213 -5.50127e-19)
(2.72351 -0.016101 1.64759e-18)
(2.73297 -0.0125873 0)
(2.74008 -0.00807769 0)
(2.74483 -0.00141053 -1.1055e-18)
(2.74463 0.00927189 -1.11009e-18)
(2.74386 0.0291485 1.09307e-18)
(2.73131 0.0656588 1.10332e-18)
(0.00159106 -0.711271 -5.76716e-19)
(0.0230759 -0.632482 -3.34374e-19)
(0.0125213 -0.511327 -1.71309e-19)
(-0.00771747 -0.385233 -7.40233e-20)
(-0.0371341 -0.260599 0)
(-0.0767396 -0.139087 1.33873e-19)
(-0.127008 -0.0217995 -6.60558e-20)
(-0.188259 0.0908362 0)
(-0.26114 0.198559 -6.29805e-20)
(-0.34684 0.301035 0)
(-0.447288 0.398671 1.16578e-19)
(-0.564547 0.493097 0)
(-0.699372 0.58629 5.19745e-20)
(-0.850282 0.678859 9.68147e-20)
(-1.01344 0.769576 -8.99845e-20)
(-1.18337 0.855517 0)
(-1.35326 0.932411 -7.81644e-20)
(-1.51634 0.995782 0)
(-1.66829 1.04335 0)
(-1.80655 1.07437 -6.45482e-20)
(-1.93048 1.0893 0)
(-2.04065 1.08939 -4.01288e-22)
(-2.13852 1.0764 0)
(-2.22611 1.05243 0)
(-2.30551 1.01992 1.00014e-21)
(-2.3787 0.981204 -4.88489e-20)
(-2.44749 0.938423 -4.86729e-20)
(-2.51335 0.89345 -4.64789e-20)
(-2.57738 0.847822 0)
(-2.64037 0.802632 -9.12617e-20)
(-2.70279 0.758698 0)
(-2.76492 0.716587 -4.52587e-20)
(-2.8269 0.676645 0)
(-2.88873 0.639038 0)
(-2.95035 0.603803 4.46349e-20)
(-3.01165 0.570874 0)
(-3.07249 0.540124 -4.45469e-20)
(-3.13273 0.511373 3.55879e-22)
(-3.19222 0.484424 8.89864e-20)
(-3.25082 0.459064 -8.94676e-20)
(-3.30838 0.435082 0)
(-3.36476 0.412263 0)
(-3.41984 0.390405 -4.52509e-20)
(-3.47347 0.369311 0)
(-3.52552 0.348803 -4.55739e-20)
(-3.57587 0.328708 4.58266e-20)
(-3.62439 0.308873 4.60879e-20)
(-3.67093 0.289152 0)
(-3.71535 0.269423 -4.66415e-20)
(-3.75751 0.24957 -4.69345e-20)
(-3.79724 0.2295 9.43048e-20)
(-3.83436 0.209125 -4.75514e-20)
(-3.86865 0.188382 -4.78733e-20)
(-3.8999 0.167197 0)
(-3.92784 0.145514 0)
(-3.95222 0.123274 4.88671e-20)
(-3.97276 0.100444 0)
(-3.98915 0.07698 0)
(-4.00108 0.0528671 -9.95715e-20)
(-4.00823 0.0280937 -9.99916e-20)
(-4.01033 0.00268503 0)
(-4.00705 -0.0233325 0)
(-3.99815 -0.0498708 0)
(-3.98337 -0.0768428 0)
(-3.9625 -0.104114 -9.96357e-20)
(-3.93534 -0.131547 9.99335e-20)
(-3.90174 -0.158981 9.82747e-20)
(-3.86158 -0.186258 1.95591e-19)
(-3.81477 -0.213175 0)
(-3.76132 -0.239555 1.41074e-21)
(-3.70125 -0.265154 0)
(-3.63467 -0.28972 -9.02442e-20)