/*--------------------------------*- C++ -*----------------------------------*\
  =========                 |
  \\      /  F ield         | OpenFOAM: The Open Source CFD Toolbox
   \\    /   O peration     | Website:  https://openfoam.org
    \\  /    A nd           | Version:  8
     \\/     M anipulation  |
\*---------------------------------------------------------------------------*/
FoamFile
{
    version     2.0;
    format      ascii;
    class       volScalarField;
    location    "70";
    object      p;
}
// * * * * * * * * * * * * * * * * * * * * * * * * * * * * * * * * * * * * * //

dimensions      [0 2 -2 0 0 0 0];

internalField   nonuniform List<scalar> 
404911
(
13.8475
13.8362
13.8292
13.827
13.8805
13.8493
13.8316
13.828
13.829
13.8281
14.0159
13.9915
13.963
13.9142
13.8761
13.8447
14.0748
14.0425
14.014
13.9788
14.1501
14.1086
14.0718
14.2198
14.1906
14.1502
14.2772
14.2414
14.2204
14.3935
14.3381
14.2961
14.2554
14.2354
14.4256
14.3794
14.3343
14.5831
14.5334
14.4889
14.443
14.654
14.619
14.5754
14.5357
14.4845
14.6876
14.6503
14.6158
14.5773
14.7555
14.7222
14.6833
14.6481
14.7708
14.7499
14.9686
13.8364
13.8765
13.8489
13.9921
13.9601
14.0772
14.0434
14.0138
14.1473
14.109
14.0726
14.2166
14.1852
14.2743
14.2419
14.2167
14.342
14.3033
14.2697
14.2396
14.4238
14.3835
14.5258
14.4853
14.6149
14.5723
14.5337
14.6903
14.6502
14.7555
14.7251
14.695
14.7772
14.7559
14.964
15.0028
14.9773
15.1219
15.0758
15.0348
15.2019
15.1657
15.1142
15.2697
15.2332
15.2076
15.272
7.22658
7.14016
7.06288
7.61821
7.54361
7.4151
7.36951
7.27241
7.18141
7.1205
7.02563
7.83293
7.73858
7.57467
7.49796
7.39613
7.31436
7.21166
7.14856
6.92905
8.11062
8.02596
7.95104
7.86011
7.77839
7.72592
7.62788
7.54804
7.43007
7.33713
7.26468
7.1646
7.03828
6.93885
6.92451
6.90525
8.30302
8.23086
8.15113
8.07356
7.99099
7.8952
7.80131
7.73705
7.66068
7.56914
7.48512
7.38488
7.321
7.16579
6.95643
8.49463
8.41631
8.35053
8.27153
8.19324
8.11753
8.03792
7.94605
7.84219
7.75808
7.67458
7.60121
7.53145
7.43165
7.38944
8.61386
8.54308
8.4749
8.40512
8.33209
8.25331
8.16817
8.08047
7.99729
7.90559
7.8062
7.72504
7.63705
7.55461
7.46472
7.40838
8.80901
8.72817
8.65292
8.57791
8.51191
8.44087
8.36809
8.29351
8.21369
8.11929
8.04554
7.95346
7.85738
7.76769
7.68183
7.59587
7.51603
9.02895
8.97021
8.91507
8.84546
8.7672
8.68584
8.61413
8.54674
8.4759
8.40579
8.33775
8.26382
8.17209
8.0921
8.00625
7.91007
7.82341
7.73178
9.13097
9.08122
9.02143
8.96116
8.89041
8.81037
8.73133
8.65835
8.58329
8.5115
8.44324
8.38008
8.28482
8.21825
8.14054
8.05415
7.9749
7.89158
9.32987
9.25077
9.18811
9.13046
9.07343
9.00505
8.93542
8.85311
8.76986
8.69959
8.62244
8.56069
8.4925
8.4313
8.35302
8.26216
8.18975
8.11004
9.47385
9.38
9.30163
9.23645
9.17884
9.11707
9.04808
8.97784
8.91019
8.83223
8.74927
8.67099
8.60579
8.53858
8.47852
8.39594
8.27005
9.67421
9.58238
9.49256
9.42705
9.35808
9.28901
9.22652
9.1708
9.10345
9.02703
8.95767
8.87768
8.7968
8.72131
8.64717
8.57472
8.51539
9.82459
9.76113
9.69741
9.63762
9.55872
9.48755
9.40972
9.34577
9.28229
9.22788
9.16553
9.07828
9.00234
8.91487
8.84532
8.76913
8.69534
8.63214
9.94952
9.90803
9.85335
9.79691
9.72257
9.68128
9.60835
9.53541
9.45497
9.38391
9.33908
9.27582
9.19923
9.12542
9.04483
8.95544
8.89152
8.82698
10.0808
10.0361
9.98329
9.93994
9.88517
9.81812
9.75111
9.70515
9.64695
9.57215
9.48928
9.41099
9.37155
9.31288
9.23399
9.16438
9.09874
9.00352
10.2044
10.1235
10.0616
10.0052
9.96509
9.91255
9.83976
9.77923
9.71944
9.67306
9.59367
9.50682
9.44276
9.40136
9.34554
9.2723
9.20043
9.13375
10.3726
10.3079
10.2362
10.1651
10.1013
10.0295
9.98439
9.94138
9.86776
9.80702
9.74772
9.70446
9.63918
9.55411
9.46337
9.4243
9.36322
9.30098
10.4758
10.4093
10.3476
10.2876
10.2104
10.1309
10.0799
10.0136
9.94893
9.89511
9.84241
9.79058
9.73336
9.66988
9.59747
9.49659
9.4535
9.40962
10.5987
10.5628
10.5125
10.4542
10.3853
10.3276
10.2546
10.1787
10.1097
10.0473
9.97244
9.92154
9.87015
9.81972
9.7713
9.7018
9.61862
9.51418
10.6963
10.6363
10.5966
10.555
10.4967
10.4293
10.3591
10.2952
10.2242
10.1493
10.0904
10.0103
9.95519
9.89424
9.84645
9.79828
9.73757
10.7995
10.7554
10.7053
10.666
10.6332
10.5986
10.5407
10.4742
10.4072
10.3383
10.2667
10.1946
10.1281
10.0561
10.0006
9.93587
9.88737
9.82955
10.8936
10.8253
10.7869
10.7386
10.6948
10.6642
10.6267
10.5796
10.5246
10.4547
10.3843
10.3161
10.2374
10.1676
10.1032
10.0365
9.97495
9.92069
10.9506
10.9086
10.8562
10.8159
10.7661
10.7202
10.6871
10.6563
10.6044
10.5606
10.5081
10.4349
10.3592
10.2808
10.2102
10.1625
10.082
10.0206
11.0991
11.0306
10.9771
10.9294
10.8865
10.8492
10.813
10.7604
10.7086
10.6735
10.627
10.5809
10.5316
10.4822
10.3984
10.3249
10.2569
10.1637
11.2076
11.1648
11.1157
11.0652
11.01
10.959
10.9135
10.8744
10.8448
10.7995
10.7502
10.7105
10.6534
10.6094
10.5563
10.5059
10.4412
10.3699
11.306
11.2421
11.1937
11.1425
11.0876
11.0322
10.9905
10.9568
10.907
10.859
10.8224
10.7879
10.7469
10.6905
10.6478
10.5932
10.5449
10.4655
11.414
11.3751
11.3288
11.2785
11.2266
11.1743
11.1168
11.0564
11.0147
10.9949
10.9605
10.9077
10.858
10.8122
10.7813
10.7348
10.6611
10.6405
11.4894
11.4536
11.4101
11.3622
11.3127
11.2622
11.2106
11.151
11.0855
11.0335
11.0049
10.9808
10.9444
10.9
10.8478
10.8124
10.7711
10.7258
11.5451
11.5173
11.4865
11.4443
11.3988
11.3499
11.2998
11.2488
11.1905
11.1255
11.0646
11.022
10.993
10.9622
10.9275
10.8802
10.8369
10.7878
11.6055
11.5713
11.543
11.5108
11.4745
11.4341
11.3845
11.3342
11.2852
11.231
11.1703
11.1089
11.0573
11.0183
10.9829
10.9484
10.9105
10.8824
11.6923
11.6715
11.6355
11.6022
11.578
11.5332
11.4975
11.4645
11.4257
11.3753
11.3194
11.2691
11.2142
11.1578
11.1046
11.0593
11.0189
10.9603
11.7875
11.739
11.694
11.6608
11.6312
11.6019
11.5619
11.5186
11.483
11.4517
11.4072
11.3537
11.304
11.2535
11.2005
11.1501
11.1016
11.0597
11.8618
11.8189
11.7777
11.7373
11.6948
11.6622
11.6316
11.5929
11.5461
11.5046
11.4697
11.4314
11.3869
11.3378
11.2908
11.2434
11.1991
11.1625
11.9131
11.886
11.8517
11.8142
11.778
11.7384
11.7028
11.6631
11.6288
11.5842
11.5368
11.4975
11.4591
11.4168
11.3689
11.3222
11.2816
12.0298
11.9875
11.9518
11.9196
11.8808
11.8429
11.8122
11.7814
11.7462
11.6976
11.6635
11.6232
11.577
11.5325
11.492
11.4472
11.401
11.3443
12.1055
12.053
12.0185
11.9888
11.9518
11.9129
11.8684
11.8365
11.8096
11.7754
11.7273
11.6956
11.6594
11.6132
11.5675
11.5256
11.4777
11.4442
12.1495
12.1121
12.0736
12.041
12.0129
11.9856
11.9504
11.9113
11.8673
11.8427
11.81
11.7705
11.7265
11.6898
11.6443
11.6014
11.567
11.5244
12.2657
12.217
12.1782
12.1353
12.094
12.0602
12.0384
12.0166
11.9849
11.9421
11.9053
11.8712
11.8391
11.8006
11.7562
11.7188
11.6733
11.6338
12.3242
12.2847
12.2481
12.2046
12.1611
12.1169
12.0777
12.0583
12.0477
12.0178
11.9763
11.9314
11.8969
11.8688
11.8348
11.7919
11.7488
11.6886
12.4052
12.357
12.3162
12.2792
12.2375
12.1915
12.1462
12.1033
12.0764
12.0697
12.0544
12.009
11.9713
11.933
11.9018
11.8668
11.8212
11.786
12.4617
12.4362
12.3921
12.3521
12.314
12.2716
12.226
12.1819
12.1383
12.1033
12.0863
12.075
12.039
12.0062
11.9694
11.9339
11.9013
11.8528
12.5507
12.5149
12.4715
12.4275
12.3859
12.3478
12.3053
12.2598
12.2206
12.1816
12.1352
12.1072
12.0948
12.0673
12.038
12.0076
11.9666
12.6638
12.6174
12.5806
12.5412
12.5019
12.4621
12.4217
12.3817
12.3382
12.2909
12.255
12.2331
12.1908
12.1503
12.121
12.0982
12.0697
12.04
12.7161
12.6811
12.6463
12.6119
12.573
12.5355
12.4977
12.4586
12.4135
12.3705
12.3226
12.281
12.2618
12.2396
12.1918
12.1548
12.1253
12.1021
12.7872
12.7505
12.712
12.6766
12.6371
12.5985
12.5652
12.5376
12.4984
12.4478
12.3982
12.3525
12.307
12.277
12.2565
12.2231
12.1847
12.1552
12.8519
12.8227
12.7869
12.7465
12.709
12.667
12.6238
12.587
12.5639
12.5347
12.4894
12.4308
12.3856
12.341
12.305
12.2809
12.2484
12.2189
12.9361
12.896
12.8593
12.8241
12.7857
12.7451
12.7014
12.6556
12.6129
12.5823
12.5535
12.5168
12.4717
12.4259
12.3809
12.3418
12.3152
12.2693
13.0009
12.9693
12.9364
12.9006
12.8647
12.8257
12.7843
12.7416
12.6968
12.6532
12.6137
12.5803
12.5467
12.5073
12.4651
12.4211
12.3855
12.3471
13.0609
13.0311
13.002
12.9736
12.9407
12.9048
12.8656
12.8243
12.7822
12.7388
12.6983
12.656
12.6169
12.58
12.5415
12.5001
12.4577
12.4109
13.1123
13.0838
13.0608
13.0307
13.0032
12.9711
12.9373
12.9006
12.8573
12.8132
12.7713
12.7365
12.6975
12.6564
12.6174
12.5763
12.5353
12.5075
13.2015
13.1666
13.1328
13.1077
13.0861
13.0621
13.0345
12.9905
12.9566
12.927
12.8995
12.8559
12.8146
12.7718
12.734
12.6926
12.6522
12.6153
12.5742
13.2563
13.2276
13.1918
13.1597
13.1238
13.1037
13.0895
13.0634
13.0195
12.9804
12.9454
12.922
12.8869
12.8489
12.8055
12.7666
12.7278
12.6893
13.2922
13.2527
13.2151
13.1754
13.1389
13.1149
13.1075
13.0888
13.0442
13.0024
12.9673
12.9325
12.9102
12.8781
12.8365
12.7951
12.7627
13.3879
13.3601
13.324
13.2828
13.2438
13.2034
13.1638
13.1357
13.1247
13.1072
13.0658
13.0287
12.992
12.9552
12.9322
12.9026
12.8662
12.828
13.4739
13.4249
13.3913
13.3527
13.3139
13.2761
13.2376
13.1978
13.1655
13.15
13.1278
13.0875
13.0552
13.0197
12.9884
12.9583
12.9268
12.8756
13.545
13.5129
13.4667
13.4222
13.3822
13.3445
13.3119
13.2768
13.2305
13.194
13.1761
13.1533
13.1175
13.0862
13.0503
13.0159
12.9862
12.9585
13.5869
13.5496
13.5024
13.4561
13.4132
13.3747
13.3453
13.3206
13.2732
13.2317
13.2004
13.1748
13.1458
13.1143
13.0803
13.0461
13.0154
13.6612
13.6248
13.5786
13.5378
13.4923
13.4474
13.4064
13.3767
13.3544
13.307
13.2665
13.2302
13.1999
13.1706
13.1432
13.1124
13.0801
13.7258
13.702
13.6816
13.6503
13.6104
13.572
13.5288
13.484
13.4387
13.4051
13.3809
13.3373
13.2958
13.2654
13.2297
13.1985
13.1693
13.1402
13.7722
13.7456
13.7278
13.7063
13.6757
13.643
13.6046
13.5652
13.5262
13.4757
13.4339
13.4028
13.3703
13.3307
13.2963
13.2578
13.2329
13.8351
13.8015
13.7673
13.7517
13.7291
13.7005
13.6689
13.6319
13.5963
13.5622
13.5135
13.4686
13.4281
13.3978
13.3618
13.3274
13.2873
13.9581
13.9182
13.878
13.8417
13.8037
13.7745
13.7497
13.7242
13.6835
13.651
13.6156
13.5809
13.5447
13.5071
13.4613
13.4238
13.3872
13.3479
14.0149
13.9818
13.9446
13.9085
13.8735
13.8388
13.8039
13.7667
13.736
13.6972
13.6785
13.6417
13.5942
13.5666
13.5384
13.4984
13.4583
13.4189
14.0622
14.0292
14.0034
13.9736
13.9353
13.8989
13.8598
13.8231
13.7914
13.7569
13.7246
13.6949
13.6649
13.6327
13.5952
13.5635
13.53
13.4911
14.1424
14.1049
14.0597
14.0256
13.995
13.96
13.9213
13.8809
13.845
13.8164
13.7823
13.747
13.7144
13.6842
13.6559
13.6246
13.5908
13.5608
14.2306
14.1892
14.1579
14.1346
14.091
14.0492
14.0163
13.9808
13.9484
13.9083
13.872
13.8432
13.808
13.7678
13.7327
13.7025
13.6672
13.6336
13.6207
14.276
14.2448
14.2138
14.187
14.1587
14.1192
14.0776
14.0399
14.0069
13.971
13.9312
13.8943
13.8635
13.8302
13.7899
13.7527
13.7246
13.6863
13.6647
14.2924
14.2739
14.2426
14.2151
14.1852
14.1473
14.1119
14.0681
14.0273
13.9928
13.9554
13.9194
13.886
13.8542
13.8171
13.7797
13.7506
13.7218
14.3714
14.3388
14.3088
14.2741
14.2441
14.2122
14.1778
14.1435
14.1028
14.0605
14.0243
13.9871
13.9523
13.9173
13.8842
13.8494
13.8135
14.4588
14.4162
14.3769
14.3411
14.3055
14.2744
14.2423
14.2104
14.1764
14.1333
14.0946
14.0624
14.0214
13.9858
13.9508
13.9199
13.8688
14.5716
14.5068
14.4634
14.4196
14.3807
14.3462
14.3107
14.2743
14.242
14.207
14.1673
14.1298
14.0958
14.0577
14.018
13.9864
13.9492
14.7019
14.6653
14.6165
14.5569
14.5104
14.4689
14.427
14.3894
14.3477
14.3113
14.2772
14.2404
14.2009
14.1629
14.1295
14.0936
14.0579
14.0277
14.7776
14.7417
14.7018
14.6571
14.6096
14.5643
14.521
14.4789
14.4358
14.3901
14.3525
14.3176
14.2781
14.2402
14.1955
14.1583
14.126
14.8477
14.8075
14.7716
14.7336
14.6962
14.6537
14.6122
14.5691
14.5244
14.4766
14.4276
14.3817
14.3444
14.3092
14.2724
14.2288
14.1926
14.9179
14.8835
14.8442
14.8065
14.7652
14.7285
14.6879
14.6493
14.6073
14.5576
14.5084
14.4625
14.4166
14.3711
14.3374
14.3042
14.2589
15.0102
14.9638
14.9224
14.8769
14.8429
14.7972
14.763
14.7281
14.6881
14.6392
14.5896
14.541
14.4939
14.4493
14.4042
14.3732
14.3331
15.0885
15.0483
15.0038
14.9638
14.9241
14.8837
14.8395
14.7972
14.7578
14.7192
14.6781
14.6262
14.5773
14.5329
14.4848
14.4423
14.4075
15.1738
15.1313
15.0841
15.0381
15.0003
14.9622
14.9246
14.882
14.8331
14.7907
14.7531
14.7116
14.6664
14.6164
14.5754
14.5246
14.4874
15.211
15.1668
15.1238
15.0805
15.0377
14.9941
14.9561
14.9225
14.8751
14.828
14.7874
14.7488
14.7054
14.6528
14.6222
14.5682
15.3002
15.256
15.2004
15.1579
15.1165
15.0785
15.0322
14.9948
14.9566
14.9183
14.8699
14.8251
14.7855
14.7399
14.695
15.4448
15.3883
15.3486
15.2962
15.2381
15.2014
15.1607
15.125
15.0767
15.0286
14.9868
14.951
14.9148
14.8676
14.8252
14.7725
15.555
15.4991
15.4545
15.4071
15.3553
15.2904
15.2489
15.2024
15.1629
15.1205
15.0735
15.0248
14.9844
14.9517
14.9108
14.8553
15.7003
15.6328
15.5716
15.5045
15.4602
15.4161
15.3555
15.2967
15.2467
15.2081
15.1671
15.1286
15.0738
15.0297
14.9865
14.9503
15.9358
15.8484
15.7671
15.6959
15.65
15.5906
15.5333
15.4848
15.433
15.3689
15.3081
15.2552
15.1955
15.1621
15.1138
15.0636
16.064
15.9884
15.9261
15.8479
15.765
15.703
15.6526
15.5974
15.5475
15.5019
15.4574
15.3858
15.3139
15.255
15.1983
15.1641
16.2449
16.1494
16.0626
15.9951
15.919
15.8435
15.7709
15.7101
15.654
15.6012
15.551
15.5216
15.4636
15.3915
15.3216
15.2572
16.4245
16.3213
16.217
16.1147
16.0495
15.982
15.909
15.8315
15.7693
15.708
15.6508
15.5928
15.5552
15.5191
15.448
15.377
16.5623
16.4741
16.3917
16.3034
16.2049
16.1091
16.0479
15.9702
15.8842
15.817
15.7625
15.6958
15.6458
15.6005
15.5528
15.508
16.6661
16.6082
16.5351
16.4436
16.3626
16.2718
16.1825
16.1133
16.047
15.9575
15.8754
15.8233
15.7764
15.7036
15.6531
16.7921
16.7295
16.6552
16.582
16.5097
16.4275
16.3477
16.2536
16.1786
16.1083
16.0339
15.9579
15.8769
15.8252
15.7716
15.7155
16.9162
16.847
16.784
16.7179
16.6374
16.5554
16.4867
16.4189
16.3389
16.2502
16.1767
16.1011
16.0302
15.9391
15.8906
15.8326
17.0364
16.9701
16.9009
16.8313
16.7676
16.6849
16.6114
16.5395
16.4687
16.3946
16.3143
16.2374
16.1734
16.1022
16.0061
17.0773
17.0198
16.9545
16.8796
16.801
16.7328
16.6552
16.593
16.526
16.4543
16.3724
16.2993
16.2281
16.1438
17.1639
17.1215
17.0676
16.9967
16.9197
16.8513
16.7776
16.7085
16.638
16.578
16.5166
16.4402
16.3734
17.3126
17.2621
17.2099
17.1668
17.1147
17.0413
16.9645
16.9041
16.8245
16.7556
16.6907
16.6254
16.5638
16.4696
17.462
17.3844
17.3278
17.263
17.2092
17.1665
17.0911
17.0181
16.9537
16.8792
16.8084
16.7445
16.6799
16.6212
17.6451
17.5409
17.4569
17.3811
17.3301
17.2784
17.2252
17.1428
17.0807
17.0067
16.9381
16.8575
16.7939
16.7565
17.7924
17.7092
17.6123
17.5292
17.4493
17.3918
17.3471
17.2772
17.2051
17.1376
17.0761
16.9915
16.9205
16.8632
17.9653
17.8642
17.7775
17.69
17.6101
17.5019
17.4572
17.3975
17.3328
17.2601
17.1928
17.1326
17.0657
16.9941
18.1206
18.0243
17.9115
17.834
17.7467
17.6687
17.583
17.5296
17.4643
17.3934
17.3153
17.2461
17.1936
17.8683
17.8064
17.7217
17.6326
17.5604
17.5168
17.4428
17.3648
17.281
17.8924
17.8388
17.7624
17.6749
17.5882
17.5463
17.5011
17.4374
18.0654
17.9455
17.864
17.8153
17.7161
17.6323
17.5818
18.2254
18.1273
18.0246
17.9141
17.8345
17.7621
17.6726
18.1912
18.096
17.9715
17.8764
17.8298
18.4565
18.3624
18.2318
18.1704
18.0536
17.9332
18.8946
18.8693
18.606
18.5349
18.2032
18.9576
18.9063
18.8374
18.774
18.7144
18.3598
19.1455
18.8281
18.722
18.6954
18.6274
19.2552
19.0882
18.8473
2.41496
2.30886
2.2426
3.19051
3.0552
2.87653
2.76667
2.64753
2.49056
2.32727
2.25194
1.5536
3.80518
3.70499
3.51204
3.38695
3.24053
3.08
2.93138
2.80357
2.68663
2.53818
2.35995
2.20146
2.04044
1.80973
1.64801
4.27703
4.17653
4.04497
3.86337
3.74208
3.57834
3.43077
3.28284
3.12661
2.96418
2.84989
2.69483
2.54456
2.40911
2.24795
2.06381
1.85236
1.6226
1.50197
1.24786
0.923079
0.744325
4.79196
4.72811
4.51082
4.36451
4.22613
4.08757
3.94371
3.77817
3.6235
3.47354
3.32119
3.15249
3.00161
2.93068
2.72158
2.60571
2.44238
2.32421
2.14607
1.92469
1.70174
1.47257
1.19408
5.31411
5.12924
5.03754
4.88412
4.75372
4.56936
4.42568
4.28521
4.17097
4.02133
3.85572
3.6797
3.52568
3.37451
3.18316
3.06144
3.01258
2.86829
2.68928
2.50875
2.37082
2.21281
2.00529
1.79101
1.54961
5.5748
5.43
5.32535
5.20548
5.07605
4.90232
4.78637
4.65505
4.50934
4.3758
4.23944
4.1071
3.94071
3.75114
3.58768
3.44358
3.28799
3.14455
3.06702
2.88761
2.7329
2.54948
2.41754
2.26672
2.03155
5.75185
5.68952
5.59387
5.50119
5.35813
5.24024
5.12831
5.01862
4.87676
4.75466
4.60666
4.42024
4.29927
4.1617
4.03627
3.86433
3.68316
3.535
3.36871
3.22055
3.10992
2.96134
2.73713
2.60329
2.43944
5.95692
5.87577
5.80238
5.72593
5.61367
5.51795
5.40061
5.29589
5.15209
5.05077
4.91881
4.78619
4.65337
4.50313
4.33467
4.2342
4.1044
3.95651
3.77865
3.58903
3.43832
3.28458
3.15689
3.02075
2.81403
6.29899
6.17325
6.07388
6.00639
5.92938
5.85275
5.75159
5.64339
5.54827
5.45805
5.35559
5.18717
5.07371
4.95283
4.80994
4.67865
4.54405
4.37862
4.25429
4.17261
4.01898
3.83402
3.65423
3.51921
3.37157
3.1884
6.64062
6.55875
6.43531
6.32368
6.21807
6.14437
6.06523
5.96259
5.8778
5.79089
5.69007
5.58923
5.48915
5.39019
5.26156
5.11206
4.96379
4.83836
4.70977
4.51483
4.40117
4.29917
4.17253
4.05921
3.95378
3.7357
3.61205
6.74357
6.66895
6.57444
6.4801
6.38155
6.28501
6.1738
6.10663
6.01146
5.92523
5.83857
5.73419
5.63749
5.55114
5.43005
5.32354
5.17998
5.02378
4.87802
4.75984
4.60102
4.4148
4.37099
4.27669
4.18166
6.97742
6.92704
6.85378
6.78344
6.69235
6.60423
6.52654
6.42555
6.32658
6.23825
6.15425
6.05559
5.96476
5.87007
5.77382
5.68312
5.6029
5.47743
5.37734
5.23875
5.08469
4.94177
4.80917
4.65246
4.52323
7.10215
7.01829
6.95226
6.86486
6.79687
6.72407
6.64127
6.56024
6.4645
6.36204
6.27442
6.20141
6.09607
5.99964
5.90774
5.8128
5.7261
5.64327
5.52445
5.42348
5.28791
5.13715
4.99199
4.84102
7.39958
7.31255
7.2242
7.15194
7.06153
6.98079
6.9028
6.83232
6.76028
6.66961
6.58272
6.49387
6.40309
6.29563
6.23655
6.13016
6.03359
5.94241
5.85364
5.76792
5.68767
5.582
5.4754
5.3411
5.15455
7.64598
7.52515
7.42169
7.34906
7.27244
7.18572
7.09497
7.01775
6.96682
6.88798
6.79394
6.70325
6.61076
6.51452
6.4388
6.36559
6.26413
6.1673
6.07335
5.98196
5.90202
5.8261
5.71494
5.63287
5.51677
7.83928
7.74575
7.6672
7.57733
7.48162
7.39319
7.31651
7.22462
7.13095
7.05613
7.01321
6.93317
6.83628
6.73947
6.6309
6.55573
6.46185
6.38881
6.3003
6.20521
6.10622
6.01771
5.94006
5.86934
5.78115
8.0908
8.03457
7.94945
7.87301
7.78964
7.71005
7.61971
7.53847
7.44393
7.3572
7.26869
7.17351
7.09613
7.04955
6.9713
6.88136
6.78035
6.66967
6.59404
6.4997
6.38973
6.32825
6.23914
6.13341
6.04972
5.96128
8.27425
8.24315
8.14236
8.0669
7.99097
7.91115
7.82706
7.74705
7.67575
7.58473
7.48399
7.39463
7.31116
7.21232
7.12467
7.05723
6.98536
6.91898
6.83698
6.71823
6.61876
6.54564
6.43575
6.34712
6.25592
6.15647
8.49903
8.40043
8.32322
8.26158
8.18243
8.09815
8.02388
7.947
7.85885
7.77496
7.71332
7.63568
7.5327
7.44342
7.35093
7.25907
7.16218
7.07758
6.9954
6.92219
6.85142
6.73662
6.63618
6.56295
6.45232
6.36175
6.27525
8.64378
8.60016
8.52209
8.4447
8.37347
8.29477
8.21608
8.14052
8.06406
7.98552
7.89473
7.80154
7.73172
7.66139
7.57835
7.49194
7.397
7.31454
7.23311
7.13807
7.02969
6.9584
6.87557
6.76863
6.65865
6.58205
6.46615
8.8032
8.70729
8.63884
8.56129
8.48557
8.4155
8.33968
8.25881
8.17822
8.1011
8.02495
7.93861
7.84352
7.75728
7.68368
7.60956
7.52565
7.43464
7.36618
7.30423
7.2032
7.10597
7.00762
6.91387
6.80465
6.67512
8.99412
8.88608
8.8195
8.75181
8.67462
8.60133
8.53207
8.45281
8.37242
8.29162
8.21069
8.13473
8.06288
7.98507
7.8966
7.80498
7.72145
7.64224
7.55786
7.4703
7.39651
7.32267
7.24536
7.15196
7.05373
6.94775
9.12709
9.05615
8.9986
8.93614
8.86544
8.79713
8.71976
8.64178
8.56953
8.49549
8.41609
8.33654
8.25124
8.17508
8.10469
8.03001
7.94641
7.85855
7.7711
7.68687
7.60453
7.52001
7.42873
7.35413
7.28424
7.1715
9.2452
9.1649
9.09586
9.0289
8.97449
8.91343
8.83529
8.75837
8.68398
8.61202
8.53906
8.46369
8.38174
8.29507
8.22332
8.15114
8.0751
7.99407
7.90952
7.82418
7.74116
7.65695
7.57683
7.48717
7.40543
9.45867
9.36717
9.29358
9.21205
9.1415
9.08147
9.01441
8.95036
8.88184
8.80455
8.72769
8.65387
8.58389
8.50632
8.42552
8.33846
8.26987
8.19916
8.12368
8.0446
7.96215
7.88043
7.79476
7.70939
7.63088
7.55288
9.63096
9.56636
9.4909
9.41659
9.33091
9.25737
9.19268
9.13387
9.06264
8.99441
8.92472
8.84302
8.77069
8.69541
8.62769
8.55298
8.48574
8.39768
8.32034
8.2464
8.17335
8.09655
8.0101
7.92609
7.84881
7.77034
9.79677
9.73415
9.67076
9.61331
9.53678
9.45885
9.38038
9.30707
9.24318
9.18441
9.1156
9.04637
8.97508
8.89553
8.82012
8.74613
8.67389
8.59869
8.53408
8.46035
8.3737
8.29315
8.21946
8.13815
8.05282
7.97844
7.90464
9.89953
9.82236
9.78014
9.7178
9.65245
9.57807
9.50583
9.43204
9.35806
9.2936
9.23263
9.16635
9.09542
9.02679
8.94668
8.87328
8.79882
8.72216
8.64665
8.57242
8.50742
8.42991
8.34776
8.26529
8.18464
8.12156
10.0342
9.98093
9.93035
9.86558
9.81194
9.75305
9.68908
9.62171
9.55082
9.47982
9.4084
9.34336
9.2911
9.22638
9.15099
9.06868
8.98717
8.91622
8.84667
8.76996
8.69488
8.62239
8.56403
8.48029
8.38031
8.32394
10.1069
10.0619
10.0113
9.96014
9.90744
9.84585
9.77833
9.7214
9.66591
9.59799
9.52383
9.44567
9.3856
9.34276
9.27822
9.18847
9.1127
9.0357
8.95558
8.88889
8.82322
8.74403
8.66343
8.60216
8.53876
10.2652
10.2103
10.1466
10.0866
10.036
9.98958
9.94293
9.88156
9.8027
9.74838
9.70228
9.64265
9.5591
9.4831
9.41929
9.3722
9.31028
9.22045
9.15479
9.0851
9.00813
8.94007
8.86909
8.78694
8.68548
10.3798
10.313
10.2518
10.1862
10.1239
10.0641
10.0129
9.97107
9.91663
9.83336
9.76958
9.72416
9.66842
9.5916
9.51618
9.44943
9.4012
9.33692
9.26085
9.19464
9.13459
9.06722
8.9932
8.91553
8.87242
10.5328
10.4772
10.4219
10.3575
10.2955
10.2308
10.1631
10.1007
10.0434
9.99506
9.94093
9.87241
9.80813
9.75428
9.6963
9.62462
9.54382
9.47385
9.42177
9.36998
9.30484
9.24077
9.17249
9.11864
9.04132
10.6372
10.5731
10.5234
10.4645
10.4027
10.3373
10.2733
10.2005
10.1339
10.0727
10.0103
9.95743
9.90096
9.84501
9.79298
9.72757
9.65783
9.57933
9.50401
9.448
9.4013
9.34228
9.27041
9.2163
9.16348
10.7457
10.7114
10.6592
10.6068
10.5629
10.5033
10.4358
10.374
10.3154
10.2434
10.1676
10.1048
10.034
9.98375
9.93045
9.87566
9.82244
9.76441
9.69398
9.62268
9.5508
9.48619
9.43406
9.38185
9.32545
10.8286
10.7849
10.7371
10.686
10.6417
10.6017
10.5518
10.4837
10.4172
10.3548
10.292
10.2175
10.1452
10.0711
10.0168
9.96237
9.90203
9.84876
9.79658
9.73592
9.66757
9.59307
9.52684
9.44121
10.9487
10.8998
10.8524
10.8056
10.7599
10.714
10.6689
10.6346
10.5979
10.5432
10.4751
10.4061
10.3318
10.2606
10.1798
10.1131
10.0567
9.99898
9.93673
9.88458
9.83016
9.76912
9.70098
9.63323
9.57115
11.0257
10.9742
10.9283
10.8814
10.8336
10.7881
10.7445
10.7022
10.667
10.6313
10.5841
10.5332
10.4716
10.3882
10.316
10.2279
10.1578
10.0984
10.0379
9.97733
9.9215
9.86484
9.80287
9.71383
11.151
11.1045
11.0555
11.0028
10.9556
10.9107
10.8631
10.8194
10.7756
10.732
10.693
10.6559
10.6095
10.5647
10.5122
10.4413
10.3563
10.28
10.2054
10.1401
10.0783
10.0175
9.95408
9.89479
9.83432
11.2275
11.1821
11.1352
11.0847
11.0325
10.9825
10.9352
10.8905
10.8501
10.8116
10.7622
10.7141
10.6774
10.6368
10.5889
10.5359
10.4735
10.4011
10.3256
10.2547
10.1861
10.1194
10.0566
9.98805
11.3411
11.3012
11.2568
11.2089
11.1644
11.1154
11.0614
11.0101
10.9638
10.9207
10.8812
10.8454
10.8017
10.7496
10.7059
10.6646
10.6173
10.563
10.5069
10.4462
10.3737
10.3035
10.2272
10.1707
10.1079
11.4133
11.3743
11.3341
11.2892
11.2423
11.1938
11.1435
11.0897
11.0367
10.9935
10.9549
10.9121
10.8694
10.8286
10.7857
10.7405
10.6966
10.649
10.5985
10.5469
10.4874
10.4137
10.3577
10.2785
11.4826
11.4505
11.4106
11.369
11.3244
11.275
11.2256
11.1746
11.1199
11.0655
11.0223
10.9903
10.9512
10.9059
10.8587
10.814
10.7744
10.7304
10.6822
10.6349
10.5853
10.5236
10.459
10.3974
11.5792
11.5471
11.5156
11.4822
11.4448
11.4015
11.3557
11.3089
11.2604
11.2089
11.1534
11.0967
11.0491
11.0134
10.9777
10.9368
10.8928
10.8453
10.804
10.7625
10.7189
10.6694
10.6219
10.5596
10.5145
11.648
11.6097
11.5746
11.5442
11.5142
11.4772
11.4345
11.3905
11.3449
11.2969
11.2453
11.1903
11.1334
11.0803
11.0367
10.9983
10.9599
10.9207
10.8796
10.8346
10.7929
10.7518
10.7092
10.662
11.7375
11.6763
11.6414
11.6063
11.5751
11.5441
11.5073
11.4661
11.4244
11.3788
11.3322
11.2821
11.2289
11.1739
11.119
11.0694
11.0258
10.9872
10.9504
10.9125
10.8723
10.8238
10.7875
10.7379
11.7952
11.7586
11.7122
11.67
11.6363
11.6061
11.5726
11.5343
11.4944
11.4565
11.4135
11.3638
11.3176
11.2673
11.2153
11.1625
11.111
11.0641
11.0218
10.9841
10.9438
10.9102
10.8607
11.8988
11.8612
11.8292
11.7862
11.7447
11.7029
11.6659
11.6358
11.6018
11.5619
11.5209
11.4846
11.446
11.3967
11.3512
11.3031
11.2542
11.2048
11.1556
11.1076
11.0624
11.0227
10.9782
10.9314
11.9741
11.9269
11.8897
11.8541
11.818
11.7787
11.7395
11.7024
11.6682
11.633
11.5934
11.55
11.5099
11.4702
11.4273
11.3832
11.3365
11.2899
11.2424
11.1962
11.1536
11.105
11.0673
11.0226
12.035
12.0012
11.9621
11.9218
11.8864
11.8505
11.8128
11.7752
11.7389
11.7007
11.6661
11.6277
11.5841
11.5396
11.498
11.4566
11.4135
11.3675
11.3235
11.2795
11.2333
11.1877
11.1441
12.1367
12.0987
12.0641
12.0252
11.9875
11.9527
11.9179
11.8819
11.8447
11.8097
11.7773
11.7342
11.6978
11.6619
11.6194
11.5748
11.5316
11.4894
11.4455
11.3997
11.3579
11.3145
11.2742
11.2073
12.2199
12.1632
12.1251
12.0899
12.0522
12.016
11.9827
11.9495
11.9131
11.8754
11.8415
11.8131
11.772
11.7284
11.6954
11.6541
11.6098
11.5656
11.525
11.4821
11.4364
11.3946
11.3476
11.3204
12.2593
12.2297
12.193
12.1535
12.1168
12.0769
12.0405
12.0106
11.9804
11.9455
11.906
11.8696
11.8435
11.8121
11.7636
11.7266
11.6862
11.6414
11.5965
11.5567
11.5156
11.4736
11.4315
11.3914
12.3343
12.2997
12.2596
12.2183
12.1792
12.1402
12.1013
12.0652
12.0377
12.013
11.9799
11.9375
11.8967
11.8707
11.8383
11.7965
11.7565
11.7139
11.6705
11.6279
11.5865
11.5398
11.5118
12.4324
12.4092
12.3658
12.3261
12.2879
12.2486
12.2071
12.1654
12.1258
12.0896
12.064
12.0447
12.0186
11.9734
11.9295
11.9011
11.8669
11.8284
11.7885
11.7443
11.7002
11.6572
11.6196
11.5686
12.5311
12.4758
12.4396
12.4
12.3595
12.3205
12.2811
12.2387
12.1951
12.1542
12.1169
12.0897
12.0711
12.0523
12.0119
11.9687
11.9346
11.8984
11.8605
11.8208
11.7777
11.7353
11.6888
11.6469
12.5913
12.5556
12.5158
12.4746
12.4343
12.3937
12.3542
12.3142
12.2716
12.228
12.1877
12.15
12.1182
12.095
12.0735
12.039
12.0029
11.9688
11.931
11.8918
11.8495
11.8022
11.7642
12.6614
12.6255
12.5854
12.5489
12.5104
12.468
12.4274
12.3877
12.3477
12.3048
12.2613
12.223
12.187
12.15
12.1204
12.096
12.0658
12.0344
12.0031
11.9648
11.9236
11.8844
11.8313
12.7161
12.6853
12.6534
12.617
12.5796
12.5409
12.4996
12.4606
12.4221
12.3811
12.3378
12.2944
12.2572
12.2278
12.1921
12.1546
12.1256
12.0958
12.0662
12.0369
11.9978
11.956
11.9179
12.7873
12.7568
12.7185
12.6826
12.6457
12.6087
12.5706
12.5327
12.4955
12.4567
12.4142
12.371
12.3277
12.2893
12.2608
12.2288
12.1915
12.1578
12.1275
12.0993
12.071
12.0281
12.0066
12.8643
12.8218
12.7853
12.7506
12.7145
12.6776
12.6389
12.5993
12.5632
12.5296
12.4902
12.4464
12.4041
12.3604
12.3187
12.2849
12.2535
12.2209
12.1893
12.1594
12.1301
12.0971
12.0581
12.9332
12.894
12.857
12.8212
12.7855
12.7487
12.7104
12.6701
12.6288
12.5917
12.5611
12.5258
12.4799
12.4367
12.3934
12.3514
12.3137
12.2809
12.251
12.2212
12.1912
12.1547
12.1298
13.0186
12.9931
12.9629
12.9293
12.894
12.8581
12.8221
12.7845
12.7452
12.7041
12.6619
12.6222
12.5882
12.5533
12.5131
12.4714
12.4293
12.3876
12.3491
12.3143
12.282
12.2528
12.223
13.0964
13.0572
13.0322
12.9992
12.9653
12.9309
12.8957
12.8593
12.8214
12.782
12.7419
12.7001
12.6586
12.6191
12.5824
12.5453
12.5062
12.4658
12.4252
12.3871
12.3514
12.3183
12.2882
13.1486
13.1192
13.0868
13.058
13.0302
12.9991
12.967
12.9324
12.8958
12.858
12.8194
12.7803
12.7396
12.6985
12.6574
12.6178
12.58
12.5417
12.5016
12.4626
12.4254
12.384
12.3576
13.2273
13.1794
13.147
13.1134
13.0847
13.0583
13.029
12.9985
12.9646
12.9288
12.8913
12.8517
12.813
12.7757
12.7368
12.6962
12.6561
12.6175
12.5787
12.5382
12.5
12.4625
12.4197
13.2647
13.2389
13.2032
13.1676
13.1369
13.1075
13.0817
13.0565
13.0241
12.9887
12.9547
12.9207
12.886
12.847
12.8089
12.7723
12.7324
12.6916
12.6519
12.6136
12.5744
12.5364
12.5035
13.3275
13.297
13.2639
13.2273
13.1922
13.1583
13.1274
13.1033
13.0837
13.0587
13.0116
12.9705
12.9416
12.9142
12.8792
12.8401
12.8042
12.7644
12.7241
12.6853
12.6459
12.6076
12.5693
13.4038
13.3643
13.3302
13.2938
13.2562
13.2187
13.1825
13.1493
13.1246
13.107
13.0897
13.0534
12.9994
12.9622
12.9345
12.9046
12.8696
12.8329
12.7945
12.7573
12.718
12.6817
12.6418
13.4718
13.4319
13.3928
13.3583
13.322
13.2854
13.248
13.2113
13.1767
13.1489
13.1295
13.1108
13.079
13.0284
12.9916
12.961
12.9298
12.8957
12.8613
12.8264
12.7898
12.75
12.7123
13.5443
13.506
13.4651
13.4266
13.3893
13.352
13.3154
13.2793
13.2435
13.2088
13.1781
13.1549
13.1324
13.0976
13.0569
13.0231
12.9905
12.9566
12.9224
12.8874
12.8552
12.8228
12.786
13.6185
13.5821
13.54
13.4997
13.459
13.4199
13.3823
13.3459
13.3113
13.2767
13.2391
13.2063
13.1804
13.1535
13.1201
13.0858
13.0523
13.0195
12.9855
12.9521
12.9176
12.8824
13.7092
13.664
13.6451
13.6163
13.5756
13.5342
13.4937
13.4535
13.4145
13.3776
13.3442
13.3141
13.2742
13.2346
13.206
13.1765
13.1443
13.1129
13.0821
13.049
13.0152
12.9817
12.9496
13.7512
13.7223
13.7008
13.6738
13.6421
13.6054
13.5696
13.5302
13.4895
13.4494
13.4114
13.3779
13.3504
13.3114
13.2684
13.2359
13.2028
13.1713
13.142
13.1121
13.0791
13.0452
13.0096
13.8091
13.7788
13.7452
13.7271
13.7026
13.673
13.6373
13.6026
13.5638
13.5241
13.4843
13.444
13.4087
13.3788
13.3381
13.3009
13.2675
13.2318
13.1985
13.169
13.1418
13.1089
13.0769
13.9063
13.8488
13.8093
13.7741
13.7531
13.7311
13.7009
13.668
13.6328
13.5947
13.5568
13.5191
13.4748
13.4358
13.4023
13.3668
13.3305
13.296
13.2606
13.2271
13.1947
13.1667
13.1308
13.9479
13.9193
13.8823
13.8424
13.8051
13.7796
13.755
13.7244
13.6935
13.6608
13.6237
13.588
13.5544
13.5111
13.4666
13.4308
13.3951
13.3594
13.3252
13.2909
13.2555
13.2241
13.1842
14.0163
13.9846
13.9494
13.9137
13.8766