/*--------------------------------*- C++ -*----------------------------------*\
| =========                 |                                                 |
| \\      /  F ield         | OpenFOAM: The Open Source CFD Toolbox           |
|  \\    /   O peration     | Version:  2312                                  |
|   \\  /    A nd           | Website:  www.openfoam.com                      |
|    \\/     M anipulation  |                                                 |
\*---------------------------------------------------------------------------*/
FoamFile
{
    version     2.0;
    format      ascii;
    arch        "LSB;label=64;scalar=64";
    class       volScalarField;
    location    "80";
    object      nut_ML_ND;
}
// * * * * * * * * * * * * * * * * * * * * * * * * * * * * * * * * * * * * * //

dimensions      [0 0 0 0 0 0 0];

internalField   nonuniform List<scalar> 
404911
(
0.527042
0.560997
0.184499
0.0749554
0.582167
0.576263
0.559564
0.308935
0.338146
0.299477
0.586505
0.565563
0.592892
0.591234
0.543093
0.349342
0.581686
0.594384
0.587767
0.555883
0.508095
0.596551
0.507307
0.534959
0.586697
0.51416
0.585614
0.58875
0.596809
0.516647
0.593936
0.594905
0.605041
0.55091
0.602654
0.594984
0.58279
0.523154
0.571355
0.581655
0.574725
0.393914
0.559252
0.578843
0.587772
0.540121
0.522014
0.579201
0.58898
0.476994
0.490468
0.536065
0.565612
0.478263
0.526757
0.503472
0.0744256
0.584827
0.547593
0.553154
0.567737
0.5785
0.55938
0.584939
0.577835
0.546274
0.584706
0.54458
0.576627
0.584149
0.573673
0.584438
0.57712
0.577754
0.585193
0.530608
0.335243
0.562646
0.579841
0.57419
0.578125
0.570763
0.585399
0.573109
0.580187
0.57712
0.530635
0.581804
0.475802
0.565853
0.558931
0.262161
0.579193
0.571079
0.569079
0.578743
0.576256
0.574344
0.583297
0.553849
0.522868
0.582702
0.576638
0.521108
0.510529
0.544136
0.583087
0.552975
0.587556
0.598717
0.595744
0.592444
0.589856
0.590606
0.367536
0.560159
0.593672
0.369411
0.535093
0.577851
0.58163
0.586212
0.590892
0.578657
0.520756
0.585904
0.595828
0.590662
0.587605
0.542587
0.549943
0.550797
0.585899
0.587863
0.588636
0.592745
0.588849
0.589985
0.589522
0.564293
0.529405
0.587319
0.596969
0.595432
0.590698
0.580883
0.57605
0.576183
0.53836
0.546434
0.591603
0.587153
0.589579
0.503124
0.557314
0.532096
0.589078
0.594763
0.592659
0.587333
0.587022
0.582573
0.573439
0.572801
0.580343
0.584306
0.586402
0.589976
0.587399
0.576085
0.576613
0.55797
0.562372
0.548792
0.542331
0.544302
0.535756
0.577795
0.580056
0.581247
0.582304
0.583264
0.584574
0.587944
0.591192
0.58886
0.589719
0.554115
0.565421
0.546298
0.538788
0.558235
0.546895
0.53973
0.540625
0.576751
0.582295
0.583359
0.584303
0.586683
0.590657
0.591368
0.515342
0.533088
0.590825
0.565484
0.581394
0.569964
0.559615
0.539223
0.538582
0.548028
0.54667
0.546658
0.545534
0.58424
0.584018
0.586549
0.59011
0.590887
0.561465
0.532685
0.554723
0.583346
0.574795
0.574142
0.559372
0.558505
0.554623
0.563765
0.542386
0.558762
0.573374
0.578705
0.584051
0.590107
0.594605
0.581988
0.517409
0.51454
0.584373
0.595497
0.584277
0.57741
0.576673
0.572757
0.573153
0.568828
0.5576
0.559234
0.572884
0.573519
0.558427
0.543329
0.590573
0.596333
0.520538
0.560093
0.597282
0.596647
0.579395
0.575106
0.575038
0.577274
0.578297
0.577944
0.57688
0.57455
0.574531
0.551849
0.540349
0.549374
0.551972
0.576076
0.565454
0.595331
0.595799
0.556912
0.57664
0.57768
0.577602
0.576013
0.57522
0.576868
0.576369
0.576567
0.570906
0.542866
0.545832
0.55894
0.511418
0.577421
0.594076
0.591611
0.592417
0.587526
0.57564
0.578759
0.578639
0.577107
0.573501
0.574098
0.572737
0.575871
0.562836
0.555838
0.555256
0.587496
0.5254
0.522884
0.527849
0.579207
0.578919
0.581859
0.581859
0.576764
0.576089
0.575873
0.578159
0.580548
0.577032
0.576649
0.576604
0.575579
0.562425
0.592124
0.554124
0.522292
0.587132
0.595198
0.587876
0.582452
0.579165
0.577926
0.580573
0.575878
0.576944
0.578394
0.585845
0.579772
0.576371
0.578158
0.575888
0.569864
0.585943
0.562516
0.597297
0.596157
0.592872
0.587158
0.576679
0.578422
0.578244
0.585134
0.584707
0.585962
0.584811
0.58546
0.576994
0.573626
0.574963
0.593689
0.524642
0.523985
0.589493
0.600713
0.594933
0.591746
0.587823
0.584019
0.578117
0.580865
0.582937
0.58573
0.580048
0.581481
0.576317
0.588587
0.595118
0.551706
0.52826
0.581301
0.597025
0.596793
0.5893
0.581807
0.582394
0.580712
0.583843
0.583262
0.584572
0.586881
0.582932
0.58145
0.578234
0.579933
0.594275
0.582845
0.539081
0.520648
0.532549
0.576086
0.581135
0.577564
0.582386
0.57944
0.578656
0.583165
0.585882
0.585249
0.585553
0.587572
0.588
0.58466
0.583204
0.596617
0.567764
0.571879
0.599277
0.590855
0.582953
0.582429
0.583701
0.582703
0.580815
0.582866
0.580321
0.581752
0.586808
0.588292
0.589444
0.594999
0.595646
0.580369
0.533495
0.600433
0.602653
0.592872
0.589188
0.583703
0.58351
0.583915
0.581444
0.578537
0.576936
0.577684
0.581957
0.588135
0.590157
0.592426
0.596275
0.577131
0.573068
0.603956
0.598501
0.595184
0.589324
0.583941
0.582427
0.584497
0.583884
0.579148
0.579223
0.581352
0.581029
0.579748
0.594346
0.592954
0.594847
0.522446
0.592732
0.604206
0.600717
0.59375
0.589752
0.586241
0.581713
0.577353
0.585166
0.585131
0.581782
0.581704
0.580974
0.580466
0.58641
0.597919
0.586806
0.519924
0.567864
0.600732
0.601478
0.596271
0.591774
0.588494
0.584025
0.585035
0.585446
0.584359
0.583757
0.586221
0.584775
0.588589
0.584237
0.59858
0.598421
0.521495
0.521597
0.590477
0.600727
0.594739
0.592432
0.590707
0.588955
0.587399
0.585081
0.584801
0.586296
0.584691
0.58394
0.586201
0.588763
0.594158
0.596241
0.578947
0.563019
0.59665
0.596926
0.593709
0.59046
0.589154
0.589043
0.586379
0.584422
0.58623
0.586476
0.586084
0.58274
0.585961
0.588717
0.590354
0.590788
0.517649
0.512514
0.585494
0.596824
0.595178
0.59169
0.589663
0.588403
0.587719
0.587912
0.584693
0.583991
0.585433
0.585243
0.587072
0.588574
0.592912
0.590501
0.581369
0.521554
0.594336
0.595673
0.592285
0.590826
0.589814
0.588746
0.5878
0.587564
0.587766
0.58642
0.585679
0.586649
0.588814
0.592657
0.593666
0.59302
0.576999
0.586007
0.599105
0.592005
0.589937
0.589912
0.590109
0.589597
0.588812
0.588307
0.588231
0.587996
0.588297
0.588495
0.589921
0.592234
0.595937
0.594229
0.557377
0.592704
0.597789
0.586614
0.584475
0.589061
0.589825
0.588585
0.58684
0.587398
0.587722
0.587348
0.588154
0.588982
0.589757
0.59469
0.596419
0.585994
0.518153
0.524279
0.600008
0.601588
0.593487
0.585198
0.587016
0.588147
0.58717
0.5852
0.585234
0.586958
0.587501
0.58761
0.588965
0.590559
0.5926
0.594868
0.563797
0.532815
0.602671
0.603303
0.59631
0.590026
0.588282
0.587714
0.587215
0.585955
0.585454
0.585711
0.58744
0.588537
0.589278
0.591621
0.593117
0.594572
0.517308
0.585925
0.601001
0.60033
0.595879
0.590402
0.586879
0.586628
0.587152
0.585941
0.587066
0.588383
0.589278
0.589785
0.590013
0.592294
0.596639
0.592123
0.513349
0.589414
0.600804
0.599117
0.592744
0.590505
0.586003
0.584756
0.584763
0.586955
0.586768
0.586183
0.588797
0.589501
0.590484
0.593093
0.595705
0.579969
0.524346
0.59806
0.600317
0.597685
0.591873
0.588814
0.588027
0.584746
0.585176
0.586354
0.58692
0.587659
0.587785
0.58857
0.590114
0.591792
0.593369
0.561962
0.567088
0.599941
0.59926
0.593908
0.590984
0.589067
0.586788
0.586528
0.584321
0.585344
0.586451
0.585703
0.587935
0.588926
0.589265
0.5926
0.590787
0.51656
0.587561
0.601363
0.598353
0.592173
0.589861
0.587527
0.585272
0.585266
0.584825
0.587087
0.58523
0.585627
0.58612
0.58901
0.590589
0.588573
0.581513
0.510008
0.521494
0.595461
0.600633
0.597276
0.591053
0.588212
0.587469
0.585073
0.58572
0.585738
0.585424
0.586419
0.585306
0.585497
0.590175
0.592273
0.592313
0.576798
0.521575
0.595902
0.59938
0.595649
0.59097
0.587076
0.585797
0.586208
0.583963
0.585642
0.585787
0.585732
0.58631
0.587457
0.590221
0.593392
0.592833
0.557411
0.522777
0.597141
0.599268
0.594902
0.590067
0.585993
0.585403
0.585398
0.586758
0.586237
0.586316
0.585612
0.585265
0.58684
0.5889
0.59136
0.589204
0.512271
0.524224
0.599068
0.599462
0.594592
0.589382
0.583485
0.584471
0.585046
0.585558
0.586614
0.587358
0.58621
0.585723
0.585596
0.589597
0.59081
0.578163
0.503518
0.589793
0.601793
0.599374
0.593588
0.589168
0.584716
0.582478
0.583012
0.58568
0.589046
0.586247
0.586068
0.585876
0.584296
0.588539
0.593945
0.577401
0.518497
0.593331
0.604044
0.599519
0.591485
0.587416
0.585458
0.584476
0.583953
0.58343
0.586815
0.586443
0.584536
0.585645
0.586872
0.588374
0.589869
0.578331
0.521894
0.600333
0.602238
0.59619
0.590702
0.587228
0.586365
0.585485
0.584135
0.585303
0.585573
0.586514
0.587321
0.585221
0.585128
0.592853
0.592
0.577544
0.528336
0.599829
0.603268
0.597238
0.590609
0.586417
0.586287
0.586679
0.585475
0.58434
0.585913
0.589102
0.587076
0.587734
0.589824
0.592641
0.595204
0.57903
0.526248
0.598688
0.602412
0.597304
0.591227
0.587097
0.584544
0.58607
0.586211
0.585692
0.585711
0.588851
0.590213
0.589398
0.590766
0.592241
0.596594
0.577349
0.525726
0.59841
0.600492
0.596153
0.591394
0.586799
0.584953
0.585041
0.586708
0.588117
0.588189
0.589617
0.590784
0.590511
0.592195
0.596212
0.597183
0.564244
0.528098
0.598444
0.597724
0.593693
0.589736
0.58601
0.585113
0.585075
0.585633
0.586357
0.586311
0.58836
0.589307
0.589821
0.592099
0.595788
0.595871
0.521454
0.586731
0.599361
0.597283
0.590801
0.587781
0.58383
0.583948
0.585405
0.586021
0.586774
0.587785
0.587918
0.588221
0.589181
0.591401
0.594375
0.595166
0.517469
0.586285
0.599629
0.597857
0.591772
0.586198
0.584105
0.585041
0.585931
0.586524
0.586303
0.586355
0.587477
0.588499
0.589334
0.591081
0.594018
0.592613
0.517982
0.516978
0.596744
0.599222
0.596228
0.591589
0.585621
0.585459
0.585642
0.58553
0.585277
0.583913
0.580629
0.585058
0.587777
0.589251
0.591045
0.59368
0.59117
0.517611
0.521187
0.595213
0.599251
0.591308
0.589366
0.588071
0.584644
0.585418
0.582643
0.581699
0.581549
0.578099
0.579618
0.585809
0.58967
0.591369
0.59347
0.584692
0.592992
0.597058
0.593911
0.589918
0.587815
0.586632
0.587816
0.583849
0.576879
0.577794
0.57247
0.58391
0.588142
0.59026
0.593632
0.593321
0.581253
0.518655
0.591138
0.59529
0.592994
0.589758
0.588107
0.587373
0.586913
0.587728
0.585067
0.573313
0.569545
0.579361
0.587306
0.587966
0.59094
0.592746
0.573089
0.514062
0.59087
0.594049
0.592401
0.589224
0.586857
0.58719
0.587911
0.587302
0.587173
0.584067
0.574105
0.578049
0.586683
0.589796
0.590743
0.592339
0.556398
0.508222
0.587292
0.592124
0.590505
0.588488
0.58661
0.586959
0.588533
0.586464
0.586002
0.586594
0.585499
0.585042
0.587261
0.591332
0.5936
0.592228
0.517206
0.582755
0.581061
0.586586
0.585943
0.584646
0.585714
0.588536
0.585584
0.583614
0.584871
0.58696
0.587813
0.58909
0.590092
0.59238
0.590694
0.51301
0.507057
0.578064
0.584548
0.585685
0.584575
0.584861
0.586751
0.588218
0.584503
0.579207
0.58464
0.587286
0.589095
0.590688
0.589214
0.589268
0.507819
0.474925
0.560038
0.578908
0.583392
0.58614
0.585513
0.585654
0.587081
0.586172
0.58655
0.585876
0.584167
0.587363
0.590121
0.592265
0.593074
0.587132
0.509359
0.563706
0.587409
0.58151
0.583801
0.587814
0.586782
0.586102
0.587249
0.586225
0.585585
0.585774
0.587276
0.587729
0.591738
0.592774
0.592185
0.574938
0.568098
0.589697
0.589299
0.587613
0.588657
0.587172
0.585584
0.5872
0.587159
0.585306
0.580409
0.585767
0.587415
0.59045
0.591432
0.591448
0.571873
0.497144
0.576208
0.592259
0.589393
0.584426
0.584721
0.585145
0.585385
0.586592
0.586626
0.584314
0.583294
0.585763
0.587966
0.590929
0.591168
0.588982
0.51609
0.513235
0.589045
0.589242
0.587857
0.58359
0.585268
0.584906
0.585715
0.585629
0.583212
0.584879
0.584877
0.586267
0.585787
0.58745
0.590448
0.588319
0.502773
0.517603
0.589568
0.57812
0.583373
0.583927
0.585427
0.585824
0.58139
0.586022
0.578859
0.580502
0.584106
0.585753
0.585216
0.582963
0.586548
0.587381
0.502759
0.547669
0.592994
0.582172
0.583024
0.585534
0.585674
0.584567
0.578433
0.584054
0.585773
0.585146
0.585683
0.585327
0.585238
0.583901
0.580286
0.588709
0.510246
0.515279
0.583532
0.593783
0.586425
0.583304
0.58572
0.578925
0.557569
0.565966
0.58399
0.585692
0.584956
0.583715
0.583897
0.586705
0.586472
0.586639
0.566522
0.511212
0.527907
0.592595
0.590733
0.58591
0.584141
0.585766
0.567903
0.5483
0.559062
0.583251
0.5856
0.585147
0.586863
0.588008
0.588716
0.591592
0.59285
0.589148
0.5058
0.589339
0.590893
0.586054
0.584757
0.585277
0.564335
0.548927
0.554761
0.5732
0.585743
0.586183
0.58807
0.588257
0.589781
0.59183
0.59613
0.581588
0.506455
0.588335
0.593543
0.582911
0.585538
0.583484
0.5522
0.549391
0.565884
0.574211
0.583184
0.585772
0.587651
0.58977
0.590232
0.593455
0.596109
0.575641
0.593145
0.597494
0.584858
0.584556
0.582786
0.555762
0.548108
0.557574
0.582205
0.579801
0.585713
0.586649
0.588161
0.590256
0.592249
0.594767
0.559875
0.597457
0.592033
0.589439
0.583548
0.585101
0.552544
0.548986
0.558622
0.572813
0.580737
0.584683
0.586291
0.589179
0.590091
0.594263
0.594198
0.519937
0.527174
0.596992
0.595145
0.58585
0.583253
0.585858
0.569993
0.553811
0.567065
0.579202
0.585576
0.585765
0.585173
0.588003
0.590882
0.590242
0.589882
0.514288
0.524227
0.593124
0.591472
0.58507
0.584647
0.585495
0.557529
0.555189
0.572999
0.584487
0.585815
0.584811
0.583867
0.589294
0.594985
0.595607
0.580776
0.523964
0.594972
0.593893
0.587407
0.584971
0.585588
0.56495
0.551942
0.563179
0.584475
0.585719
0.584737
0.588082
0.590006
0.594608
0.596051
0.577001
0.528239
0.597739
0.593826
0.58766
0.585233
0.583763
0.554784
0.55966
0.580934
0.585647
0.585432
0.58444
0.588058
0.591516
0.593306
0.596824
0.575761
0.537138
0.60253
0.597208
0.588584
0.584424
0.585759
0.560896
0.559402
0.578142
0.585734
0.585526
0.584957
0.589808
0.592572
0.595794
0.595552
0.525824
0.54825
0.607691
0.601174
0.589648
0.584815
0.585511
0.585688
0.575271
0.575069
0.585737
0.584967
0.584833
0.590488
0.592931
0.595446
0.593432
0.521702
0.606824
0.607615
0.600082
0.585206
0.584762
0.583857
0.583174
0.585597
0.585648
0.58563
0.58529
0.588086
0.59057
0.592157
0.595583
0.591779
0.515757
0.59042
0.579551
0.58153
0.585441
0.582752
0.555806
0.572873
0.584699
0.585339
0.585436
0.587622
0.58935
0.591676
0.592763
0.583665
0.51087
0.588902
0.583748
0.579962
0.585428
0.559846
0.552892
0.55908
0.584336
0.585588
0.585068
0.584801
0.587806
0.59198
0.591514
0.575435
0.596174
0.594168
0.585995
0.576772
0.581138
0.560641
0.553895
0.568525
0.583846
0.585737
0.58494
0.586193
0.587875
0.591213
0.593601
0.568813
0.596231
0.605144
0.594508
0.582426
0.577616
0.585684
0.562795
0.565924
0.585739
0.584802
0.58416
0.581624
0.581894
0.585378
0.591528
0.512815
0.596908
0.604284
0.596006
0.582662
0.576632
0.578663
0.584131
0.583942
0.583775
0.583406
0.583341
0.580892
0.579723
0.578084
0.586234
0.51363
0.533274
0.59817
0.604756
0.600153
0.587511
0.577426
0.577544
0.580014
0.580163
0.573487
0.577161
0.577355
0.581092
0.577821
0.577386
0.554202
0.532005
0.605885
0.604105
0.594879
0.592205
0.581631
0.576818
0.580425
0.5851
0.583303
0.580763
0.578519
0.576955
0.576446
0.55944
0.58593
0.543211
0.604447
0.604013
0.599488
0.590077
0.5806
0.579712
0.57997
0.582835
0.583912
0.579444
0.578991
0.577085
0.576761
0.548234
0.529686
0.594187
0.601476
0.558357
0.568142
0.58713
0.583489
0.581449
0.584099
0.584386
0.583314
0.581432
0.585999
0.585904
0.580485
0.577856
0.435251
0.585857
0.569463
0.582993
0.579781
0.580739
0.580863
0.583323
0.579566
0.577986
0.57917
0.584186
0.589249
0.592383
0.592463
0.582088
0.540826
0.52002
0.553705
0.576778
0.579992
0.580388
0.579908
0.582893
0.58273
0.577188
0.579633
0.575548
0.585791
0.59652
0.598739
0.585012
0.513623
0.59665
0.560419
0.568317
0.579682
0.579964
0.582546
0.579687
0.577757
0.5781
0.578582
0.578392
0.592458
0.596174
0.596115
0.511678
0.515826
0.595333
0.593341
0.549966
0.564267
0.577159
0.580648
0.581655
0.577641
0.575791
0.577447
0.577857
0.581827
0.596379
0.584486
0.523362
0.558299
0.594226
0.591605
0.544325
0.547771
0.575807
0.579981
0.578361
0.57595
0.576655
0.576079
0.580925
0.599029
0.601799
0.584723
0.516663
0.561557
0.546996
0.537337
0.555981
0.577207
0.57917
0.578035
0.576231
0.577575
0.579036
0.598086
0.59291
0.51324
0.529009
0.553473
0.553455
0.54529
0.565073
0.551359
0.575992
0.57628
0.577001
0.579701
0.59919
0.599048
0.578783
0.509518
0.592682
0.589524
0.549471
0.53847
0.572116
0.551767
0.538973
0.577927
0.576129
0.580868
0.597276
0.596257
0.562981
0.505553
0.594792
0.589935
0.544267
0.527366
0.557089
0.573568
0.565154
0.544887
0.546235
0.569766
0.59546
0.5949
0.505563
0.508675
0.597617
0.555393
0.536888
0.53324
0.544138
0.56252
0.561818
0.573811
0.553193
0.551949
0.593913
0.593587
0.509444
0.509539
0.593201
0.540644
0.540386
0.534951
0.53742
0.562441
0.571946
0.576051
0.572101
0.546587
0.597211
0.586198
0.514996
0.512461
0.590595
0.593211
0.535887
0.533764
0.534775
0.523598
0.573729
0.569492
0.556598
0.592235
0.59818
0.584581
0.509738
0.499145
0.504295
0.57358
0.578202
0.536119
0.539701
0.53358
0.518871
0.573666
0.548026
0.54297
0.598078
0.588464
0.57129
0.537039
0.535255
0.537764
0.587528
0.548491
0.548585
0.567622
0.578397
0.580358
0.588326
0.538257
0.537637
0.592382
0.596221
0.589495
0.528567
0.328693
0.520806
0.589219
0.553887
0.557658
0.599777
0.585143
0.338739
0.358742
0.544336
0.529302
0.592982
0.598915
0.530006
0.538623
0.515262
0.59746
0.601268
0.572331
0.518223
0.52726
0.576784
0.594957
0.599157
0.527038
0.517192
0.557195
0.499688
0.519279
0.581133
0.560217
0.583195
0.585868
0.581038
0.581373
0.573011
0.584102
0.570532
0.560744
0.546041
0.512915
0.491244
0.23206
0.540131
0.532395
0.579751
0.575426
0.561339
0.608303
0.616047
0.61702
0.610762
0.60447
0.598494
0.590972
0.589412
0.564526
0.611798
0.62619
0.631417
0.62913
0.62201
0.614079
0.608009
0.600572
0.591905
0.588047
0.590139
0.59152
0.592903
0.591715
0.564702
0.613225
0.627874
0.628626
0.625535
0.623278
0.620429
0.614739
0.607443
0.599787
0.597312
0.597606
0.599314
0.597464
0.595862
0.595836
0.596021
0.592617
0.587434
0.588606
0.591682
0.578207
0.572173
0.60716
0.622495
0.622381
0.62055
0.617207
0.61216
0.606388
0.600774
0.59759
0.596679
0.595097
0.593574
0.596097
0.576322
0.581069
0.595212
0.595293
0.59313
0.589699
0.584439
0.585178
0.569738
0.586359
0.61002
0.618114
0.617731
0.614482
0.616487
0.615957
0.610733
0.603152
0.596975
0.590491
0.588226
0.592791
0.595692
0.596797
0.595454
0.594087
0.568707
0.575024
0.585546
0.587189
0.588983
0.59207
0.59704
0.533419
0.589416
0.608065
0.610674
0.612341
0.610357
0.605755
0.589266
0.57547
0.560498
0.595598
0.592195
0.588676
0.590324
0.593201
0.600083
0.603175
0.601425
0.598211
0.594193
0.564097
0.574824
0.591062
0.597093
0.600435
0.579523
0.522061
0.589269
0.58589
0.591291
0.592449
0.593142
0.592633
0.591892
0.583672
0.581047
0.580618
0.568211
0.593797
0.59947
0.585759
0.591169
0.570866
0.598664
0.599044
0.595103
0.591772
0.562778
0.571712
0.604703
0.583032
0.528064
0.586913
0.581079
0.582038
0.585128
0.587365
0.586199
0.584698
0.586555
0.580478
0.579994
0.579997
0.581097
0.580943
0.582244
0.583185
0.607919
0.596661
0.587898
0.604105
0.604028
0.602256
0.602857
0.605828
0.586538
0.58744
0.532056
0.592834
0.585526
0.580247
0.582758
0.586316
0.587893
0.588491
0.583816
0.584019
0.585701
0.582852
0.577168
0.580409
0.581071
0.584954
0.595221
0.598419
0.603544
0.595092
0.60973
0.612177
0.609338
0.602312
0.585075
0.535259
0.585336
0.604221
0.602489
0.591933
0.582894
0.581723
0.584518
0.586754
0.588399
0.584758
0.584494
0.584231
0.584414
0.586205
0.584724
0.583581
0.584543
0.590074
0.602079
0.599471
0.606362
0.608729
0.609347
0.609289
0.589587
0.545539
0.594639
0.599806
0.594213
0.59636
0.589191
0.582295
0.584022
0.58351
0.58469
0.5849
0.584085
0.585903
0.586505
0.586077
0.583747
0.58517
0.585289
0.585931
0.589923
0.596311
0.611753
0.591038
0.595394
0.585685
0.492191
0.548631
0.510407
0.588466
0.594041
0.593022
0.588814
0.586138
0.584049
0.586058
0.586538
0.586183
0.585907
0.58541
0.58517
0.58526
0.584683
0.586115
0.58424
0.585515
0.588452
0.592933
0.602929
0.611163
0.583756
0.527241
0.524383
0.58502
0.587021
0.590796
0.59448
0.585306
0.584928
0.585565
0.58548
0.586047
0.58577
0.584749
0.585287
0.585502
0.584611
0.584006
0.584461
0.585182
0.58489
0.590678
0.601678
0.613216
0.60976
0.588164
0.588636
0.604226
0.596875
0.586829
0.583419
0.587181
0.586702
0.582638
0.58557
0.585805
0.585612
0.584503
0.585302
0.58576
0.585899
0.585978
0.585879
0.584066
0.583459
0.58334
0.582112
0.596737
0.610442
0.607092
0.586367
0.587642
0.608757
0.606862
0.597786
0.590354
0.58637
0.587245
0.587408
0.583732
0.584976
0.585691
0.585488
0.585709
0.584975
0.585173
0.585867
0.585983
0.585613
0.584489
0.582777
0.581894
0.58259
0.581214
0.601083
0.579989
0.591896
0.607656
0.603127
0.602092
0.59472
0.589842
0.586832
0.586231
0.586637
0.587812
0.585008
0.585606
0.585594
0.585694
0.585718
0.585312
0.585909
0.586009
0.584488
0.583074
0.58233
0.581126
0.580976
0.576491
0.546661
0.541726
0.595029
0.608098
0.60324
0.59819
0.594066
0.592942
0.58966
0.587503
0.58514
0.585795
0.585977
0.586111
0.585379
0.585946
0.585752
0.585862
0.58583
0.585938
0.586007
0.585579
0.581658
0.580052
0.581521
0.580682
0.568161
0.546872
0.599155
0.611899
0.6047
0.597961
0.592791
0.589518
0.587607
0.587456
0.586065
0.586384
0.586893
0.586709
0.586042
0.58593
0.585546
0.585501
0.58451
0.584056
0.585915
0.585334
0.58635
0.58299
0.581369
0.576649
0.567784
0.552534
0.609873
0.61445
0.604861
0.597051
0.591757
0.58896
0.58678
0.585945
0.585762
0.585698
0.58423
0.585635
0.587614
0.587384
0.586026
0.585784
0.585887
0.585669
0.583792
0.585119
0.588308
0.589492
0.588493
0.58637
0.585824
0.517891
0.541973
0.604156
0.611848
0.605588
0.596502
0.590161
0.587283
0.586091
0.585748
0.585907
0.585905
0.585594
0.585427
0.585272
0.586004
0.588013
0.587379
0.585899
0.585902
0.586924
0.586011
0.584446
0.589038
0.592125
0.591338
0.597016
0.514207
0.593823
0.611579
0.604829
0.598323
0.591786
0.587079
0.585912
0.585657
0.586005
0.586546
0.586869
0.586905
0.586702
0.586752
0.587264
0.58829
0.588644
0.586619
0.585696
0.586307
0.586537
0.585393
0.589193
0.59084
0.596879
0.575632
0.5859
0.607207
0.605855
0.599435
0.593438
0.590471
0.589312
0.585486
0.583506
0.582635
0.583534
0.585261
0.586452
0.587304
0.588186
0.589052
0.58954
0.589015
0.586918
0.58532
0.587582
0.589465
0.589858
0.597129
0.599847
0.576863
0.547832
0.60211
0.606073
0.601302
0.59511
0.591288
0.589799
0.587085
0.583215
0.577638
0.574555
0.574001
0.577878
0.58363
0.585914
0.587148
0.588266
0.588708
0.587932
0.586246
0.585557
0.589284
0.593639
0.599357
0.604436
0.583116
0.591214
0.607184
0.602999
0.595781
0.591996
0.590755
0.586115
0.5805
0.574947
0.571086
0.567689
0.567245
0.570257
0.577717
0.583433
0.585962
0.587034
0.587353
0.586717
0.585742
0.586375
0.590657
0.595371
0.598572
0.596134
0.584108
0.605091
0.601384
0.596878
0.592993
0.591717
0.585296
0.577952
0.565543
0.561318
0.562599
0.562139
0.559709
0.561393
0.568339
0.57971
0.584455
0.58636
0.586429
0.585838
0.585756
0.588176
0.59207
0.598757
0.603494
0.550079
0.546426
0.599973
0.603393
0.598678
0.593187
0.591659
0.590473
0.584293
0.566741
0.555967
0.552001
0.553038
0.555638
0.556892
0.556481
0.561278
0.574176
0.582397
0.585247
0.5859
0.585703
0.586931
0.59125
0.597869
0.602773
0.584533
0.542763
0.599536
0.602489
0.597607
0.592852
0.590524
0.588944
0.587992
0.582809
0.567845
0.555167
0.551956
0.549599
0.549835
0.551712
0.555125
0.560735
0.572219
0.585307
0.586597
0.587124
0.588073
0.591659
0.59612
0.597709
0.595716
0.533939
0.58409
0.602797
0.597998
0.592245
0.58966
0.588132
0.587403
0.586029
0.577999
0.56329
0.554625
0.552941
0.552777
0.551041
0.551199
0.556119
0.566819
0.5767
0.584138
0.58945
0.59175
0.595729
0.598402
0.600136
0.596915
0.542269
0.553168
0.600971
0.599303
0.595592
0.590471
0.587803
0.586814
0.58573
0.583124
0.573746
0.559855
0.555772
0.557713
0.561013
0.555136
0.552754
0.558595
0.575191
0.585072
0.588504
0.591513
0.594121
0.598216
0.601589
0.599271
0.545848
0.598944
0.60257
0.596309
0.591861
0.591283
0.586649
0.582225
0.581294
0.57883
0.570895
0.561056
0.557207
0.567011
0.574694
0.568929
0.557214
0.561457
0.576951
0.587103
0.590261
0.593542
0.595635
0.602164
0.602467
0.54801
0.554674
0.603403
0.600075
0.593174
0.589427
0.58769
0.587456
0.579026
0.572168
0.57326
0.574538
0.572637
0.568681
0.569263
0.577191
0.583082
0.574176
0.569153
0.582873
0.590439
0.592643
0.593928
0.597409
0.598382
0.585953
0.596119
0.601979
0.595626
0.590314
0.587194
0.585861
0.584952
0.582808
0.570968
0.565261
0.568685
0.571798
0.575069
0.57353
0.575871
0.582224
0.586074
0.584298
0.586785
0.590867
0.594395
0.596869
0.598471
0.596239
0.542303
0.537826
0.599301
0.600502
0.592995
0.588767
0.586197
0.584267
0.582107
0.578812
0.574076
0.569079
0.56648
0.569221
0.570007
0.569676
0.569319
0.577277
0.585402
0.588612
0.590049
0.594693
0.595123
0.600979
0.601457
0.546373
0.585359
0.59951
0.597894
0.59173
0.587712
0.585785
0.582912
0.578575
0.57424
0.568413
0.564724
0.566763
0.568829
0.572955
0.573995
0.570282
0.572532
0.583529
0.587925
0.590881
0.593399
0.598875
0.599298
0.593966
0.524845
0.549675
0.601028
0.59869
0.593273
0.592271
0.587391
0.580586
0.577496
0.571064
0.563561
0.561295
0.558653
0.559684
0.567036
0.572244
0.577702
0.58275
0.586052
0.588675
0.591431
0.59251
0.595468
0.596566
0.596845
0.542019
0.594556
0.59689
0.594017
0.590292
0.589607
0.589
0.577799
0.564852
0.560338
0.557957
0.556276
0.556793
0.554979
0.561348
0.572379
0.579073
0.583841
0.586353
0.587924
0.589615
0.593104
0.597107
0.600691
0.580696
0.551094
0.600053
0.596932
0.591796
0.589337
0.587516
0.587183
0.584251
0.569715
0.556542
0.55317
0.551862
0.553568
0.555466
0.560628
0.570048
0.579295
0.583652
0.585771
0.586749
0.588937
0.591278
0.594332
0.593196
0.533851
0.59355
0.599349
0.593818
0.589567
0.587175
0.586199
0.584396
0.581499
0.575323
0.562958
0.555171
0.554188
0.553726
0.558869
0.564037
0.568715
0.579475
0.584172
0.585595
0.58681
0.589674
0.592345
0.593429
0.575785
0.548275
0.599948
0.59732
0.592088
0.58856
0.586436
0.584792
0.582139
0.576213
0.569074
0.566739
0.563941
0.560984
0.563833
0.567564
0.572077
0.573667
0.580969
0.586122
0.586816
0.588584
0.591078
0.595197
0.595346
0.533192
0.591471
0.598409
0.594026
0.589958
0.587526
0.585661
0.583897
0.580651
0.575016
0.566161
0.55808
0.558842
0.563048
0.568254
0.574336
0.579973
0.585283
0.587298
0.588029
0.588604
0.59152
0.595205
0.596397
0.588344
0.546005
0.599321
0.596829
0.591977
0.588857
0.586433
0.584976
0.582336
0.578981
0.574453
0.567025
0.560289
0.554778
0.556226
0.562517
0.573409
0.581308
0.584997
0.586747
0.587969
0.589465
0.592753
0.598246
0.598444
0.538486
0.591406
0.598696
0.594425
0.590379
0.587725
0.585423
0.583266
0.580612
0.577111
0.573458
0.56911
0.55954
0.555207
0.555377
0.560161
0.569149
0.57999
0.584512
0.585946
0.587075
0.589284
0.593727
0.595231
0.591833
0.594702
0.595808
0.592868
0.589788
0.586659
0.584121
0.581333
0.578304
0.575533
0.572745
0.569633
0.566716
0.559188
0.557057
0.561092
0.570658
0.580321
0.584232
0.585834
0.586918
0.590498
0.593401
0.597936
0.54724
0.543516
0.597585
0.596391
0.591749
0.588827
0.585609
0.582468
0.579203
0.576181
0.574021
0.572612
0.570991
0.568758
0.567787
0.567891
0.570853
0.576722
0.582746
0.585867
0.586118
0.587534
0.590256
0.593905
0.590499
0.528592
0.546999
0.595722
0.593917
0.590859
0.588138
0.584923
0.580926
0.576937
0.573871
0.57194
0.571078
0.570779
0.57039
0.570291
0.57191
0.575869
0.580436
0.583815
0.58548
0.586305
0.587762
0.591406
0.592709
0.546959
0.578839
0.597812
0.593366
0.590511
0.588186
0.583178
0.577624
0.574183
0.570325
0.567113
0.566786
0.568592
0.570001
0.571155
0.573249
0.57711
0.581521
0.584321
0.585644
0.586564
0.588895
0.592895
0.594499
0.538347
0.595015
0.596827
0.593052
0.589869
0.587768
0.584413
0.574917
0.569971
0.568838
0.564393
0.559206
0.561423
0.567887
0.571187
0.573638
0.577366
0.581705
0.584712
0.586017
0.587371
0.590734
0.592262
0.587639
0.546769
0.597379
0.595301
0.59151
0.588827
0.58608
0.583486
0.577453
0.569418
0.56723
0.566487
0.562722
0.559014
0.563243
0.570999
0.575094
0.578344
0.582012
0.584821
0.586517
0.588646
0.592203
0.595964
0.542101
0.576441
0.598314
0.594005
0.59007
0.587163
0.585209
0.581612
0.576432
0.570871
0.567111
0.566859
0.567464
0.56594
0.565591
0.570062
0.575728
0.580119
0.583433
0.585414
0.587048
0.589854
0.592343
0.592855
0.526789
0.593034
0.595661
0.592761
0.589345
0.586262
0.584465
0.581146
0.575105
0.567271
0.561997
0.563349
0.566387
0.568725
0.570245
0.571489
0.575581
0.580096
0.583497
0.585697
0.587454
0.590657
0.593809
0.58856
0.540822
0.597493
0.595783
0.591834
0.588621
0.585991
0.583719
0.580197
0.574651
0.567458
0.559258
0.555043
0.559538
0.565939
0.570009
0.573175
0.576479
0.580631
0.583866
0.586064
0.588124
0.591403
0.593831
0.573776
0.573408
0.596081
0.593517
0.590125
0.587857
0.585713
0.583163
0.578669
0.572086
0.564777
0.559291
0.555693
0.553275
0.556714
0.565828
0.572439
0.577026
0.58139
0.584407
0.586277
0.588641
0.593216
0.596474
0.541191
0.588812
0.59721
0.593065
0.590329
0.587231
0.584857
0.581863
0.577298
0.569638
0.559464
0.553636
0.552792
0.554368
0.55384
0.556715
0.567908
0.576925
0.581623
0.585019
0.58696
0.589901
0.592906
0.593895
0.526184
0.593499
0.594267
0.591879
0.589465
0.587186
0.584216
0.580262
0.575513
0.5694
0.559938
0.550896
0.548019
0.549899
0.554386
0.558246
0.565067
0.57559
0.582121
0.585057
0.587506
0.590411
0.595778
0.591519
0.532444
0.597176
0.596199
0.591427
0.588461
0.586089
0.58378
0.579111
0.573931
0.569421
0.564147
0.557035
0.549347
0.546661
0.549408
0.557862
0.568205
0.577136
0.582801
0.586036
0.588276
0.592187
0.593742
0.574224
0.543448
0.599695
0.595637
0.591048
0.588071
0.585613
0.583075
0.579234
0.573884
0.569743
0.566357
0.562423
0.558795
0.551995
0.548087
0.552804
0.566752
0.578519
0.584011
0.586896
0.589723
0.592528
0.596807
0.537848
0.54772
0.595647
0.593466
0.59056
0.587977
0.585487
0.582688
0.579533
0.57673
0.572451
0.568452
0.564778
0.561058
0.558106
0.554957
0.553783
0.56322
0.577787
0.584593
0.587606
0.590985
0.595963
0.592363
0.586791
0.595688
0.593139
0.590498
0.587688
0.585331
0.581899
0.578271
0.576045
0.574782
0.571622
0.566674
0.561417
0.555696
0.555216
0.559316
0.566822
0.578874
0.585557
0.588275
0.591258