/*--------------------------------*- C++ -*----------------------------------*\
| =========                 |                                                 |
| \\      /  F ield         | OpenFOAM: The Open Source CFD Toolbox           |
|  \\    /   O peration     | Version:  2312                                  |
|   \\  /    A nd           | Website:  www.openfoam.com                      |
|    \\/     M anipulation  |                                                 |
\*---------------------------------------------------------------------------*/
FoamFile
{
    version     2.0;
    format      ascii;
    arch        "LSB;label=64;scalar=64";
    class       volScalarField;
    location    "80";
    object      omega;
}
// * * * * * * * * * * * * * * * * * * * * * * * * * * * * * * * * * * * * * //

dimensions      [0 0 -1 0 0 0 0];

internalField   nonuniform List<scalar> 
404911
(
243.354
161.339
3436.41
1536.71
178.092
211.198
155.061
603.769
342.113
282.289
238.484
316.269
178.348
210.258
425.729
1103
256.222
177.181
191.982
314.52
511.045
218.467
623.389
429.489
170.536
957.16
267.179
171.676
229.147
1004.79
241.746
174.205
295.916
511.721
247.027
181.923
318.514
436.728
241.846
129.821
343.509
1012.29
220.932
111.426
153.075
399.145
326.43
131.624
155.563
804.695
385.602
304.331
199.61
1345.99
339.097
581.562
9402.72
120.854
325.777
229.876
194.126
126.434
167.648
49.4292
85.7849
256.871
57.1621
319.02
101.979
64.4837
143.167
31.4817
135.345
102.384
52.309
596.936
2268.9
255.853
94.4689
128.601
99.4939
141.491
35.4059
125.252
79.8074
105.018
362.736
64.7867
1138.02
179.314
167.995
2955.72
77.621
103.64
128.186
86.6055
101.863
109.615
60.2022
237.284
605.293
65.0765
91.8614
454.357
1181.57
435.626
198.819
647.745
313.067
252.841
187.346
178.303
161.436
170.33
2203.15
473.94
190.275
4479.74
541.673
132.658
136.168
142.015
147.444
218.029
1279.62
289.248
182.085
163.944
142.124
457.711
416.121
464.484
147.029
134.881
145.142
144.872
195.572
199.39
138.247
226.511
1158.07
288.896
175.324
150.816
140.673
131.988
132.076
122.573
446.93
400.64
143.834
129.348
145.136
1725.83
219.767
956.507
246.746
169.963
149.99
147.072
134.965
129.285
135.493
134.624
129.36
128.396
131.47
132.996
145.286
209.344
377.511
564.353
423.28
368.34
377.563
384.464
447.37
127.505
140.805
137.204
139.455
140.695
149.423
161.25
166.218
164.355
279.841
690.926
441.439
354.723
354.274
206.257
315.073
487.722
396.768
125.49
139.279
141.134
151.299
160.144
168.26
197.542
1117.66
964.924
251.482
576.809
291.574
246.704
224.578
248.647
387.434
279.671
339.059
405.324
402.069
125.553
145.406
154.396
155.854
180.136
461.186
819.838
573.002
263.549
199.619
131.72
226.552
231.052
234.725
175.36
263.693
201.432
179.485
111.684
138.585
152.998
174.06
262.529
1161
1171.69
250.381
114.904
160.406
124.811
114.009
136.261
136.927
169.1
201.49
206.364
136.766
134.862
266.685
425.257
153.64
194.232
1070.4
423.28
145.447
101.064
202.195
137.149
131.904
104.768
107.778
117.596
116.288
131.297
129.977
290.653
328.659
419.276
494.323
415.732
443.476
183.68
137.485
360.719
169.28
114.424
117.586
119.894
139.465
124.261
113.723
105.464
150.472
314.901
387.264
445.678
1658.74
347.279
170.165
138.522
95.4647
111.115
142.884
115.159
107.891
120.403
153.257
131.198
138.865
123.405
216.131
355.774
401.097
229.577
992.576
933.207
842.214
275.88
211.577
71.2528
70.0861
120.779
135.559
123.06
115.642
136.211
147.023
122.271
119.584
127.19
327.66
176.245
511.33
1069.56
225.245
130.258
152.979
135.364
134.964
108.223
73.1561
126.202
120.327
124.844
80.9264
88.5323
128
115.82
132.719
282.464
243.109
434.526
145.93
100.916
92.0148
92.0988
159.975
107.221
107.076
58.8253
80.6269
68.6714
63.2369
68.2939
105.901
155.294
190.755
172.296
965.178
1107.36
238.182
132.358
92.7767
70.0437
69.3469
69.7778
107.815
85.2449
75.7468
59.0267
102.931
94.8771
127.559
94.9709
107.449
400.074
849.045
340.591
136.382
101.952
109.974
134.843
72.7922
84.6071
61.5222
52.5251
49.8847
52.1686
76.6989
94.4087
124.183
151.416
126.689
250.047
673.558
1060.18
854.935
303.375
146.101
153.621
77.2463
92.2821
93.6064
72.7411
52.0227
46.03
53.502
56.2692
81.1615
124.463
142.593
131.743
412.655
404.95
150.999
152.733
110.107
92.2709
68.7424
69.7282
80.3193
71.8369
87.1148
78.8663
53.8501
68.0168
88.3193
89.3741
116.733
239.221
942.467
173.596
115.807
128.271
78.2389
79.8355
63.8471
61.8863
78.7591
99.1925
114.248
112.603
90.4081
79.7591
87.6974
134.565
131.144
273.167
403.248
130.686
138.706
111.116
76.0504
63.9414
70.3425
55.3706
59.3744
90.0268
106.257
96.5387
98.8396
121.253
105.733
146.392
153.359
930.373
232.66
111.88
94.6845
76.1535
64.1007
50.0167
61.9472
95.5548
45.8741
48.1602
76.5364
85.5267
106.479
138.744
184.095
151.762
254.907
1134.93
434.318
161.622
109.233
86.3693
71.9662
56.7567
67.9591
52.3618
47.9818
54.3498
52.898
48.6719
60.4468
74.5098
152.735
103.881
163.743
959.633
1089.05
214.593
111.449
133.873
85.4829
64.1644
57.322
48.9382
51.1737
52.5136
38.1897
57.4755
61.9696
72.3415
85.2935
95.4693
132.775
258.618
397.717
138.378
102.559
81.2982
68.5937
57.8823
51.1989
53.5265
59.4868
39.478
36.9649
42.0311
72.8444
96.7774
126.408
134.378
151.06
945.38
1084.12
204.138
108.609
85.511
70.3396
61.4451
56.4865
55.7358
52.1065
57.5106
59.6658
49.0673
51.1019
53.2725
87.0491
97.5992
160.695
233.579
846.205
130.754
98.9697
77.5809
63.1857
54.3151
52.75
56.1437
56.4263
53.5307
50.2202
51.6444
56.0838
62.5835
78.744
111.654
174.387
288.526
231.16
104.8
103.885
77.1312
58.4704
51.5453
51.6735
50.6327
50.6441
50.552
49.1903
50.001
56.8482
68.8943
97.4511
120.017
146.09
471.338
213.984
128.183
130.868
70.5208
52.0736
48.2942
50.3002
49.5984
47.2949
48.4771
48.4492
49.3108
55.5864
78.343
92.7669
114.503
219.416
1070.62
1126.13
165.851
101.986
101.376
86.7783
52.8006
48.8545
47.0524
56.283
52.6945
49.4243
49.6328
51.1472
56.6608
72.3956
124.483
144.752
427.817
899.777
152.876
103.348
79.2845
64.516
51.236
45.7348
45.0748
46.4725
48.5617
48.151
51.166
54.6243
62.5605
73.6874
115.472
148.951
1014.57
265.919
130.789
104.368
77.8083
63.2893
55.4322
49.6307
45.0653
49.43
47.0399
42.2202
45.1221
52.3131
65.7782
96.9477
98.8961
154.113
1050.67
253.89
116.865
87.4183
73.1536
57.0104
67.0773
57.5031
50.6362
42.9323
45.6307
53.9614
49.968
54.303
69.9897
90.6618
110.91
234.165
998.669
182.887
115.816
87.066
70.6004
60.2662
47.3528
57.7166
52.3947
41.0685
41.481
45.5911
51.2739
58.2007
73.5257
113.223
130.867
411.208
400.162
135.769
104.96
99.5624
69.1631
54.7624
48.6565
38.4505
55.2534
50.0796
38.4884
46.664
51.7132
57.77
75.674
109.239
144.642
954.949
253.746
114.845
86.221
70.9908
59.0586
50.8004
57.3599
49.4228
49.967
36.6202
51.2466
39.7682
52.4183
61.0237
70.3472
124.981
179.008
1079.96
1009.44
164.192
106.644
88.6101
69.1094
55.9943
44.928
55.9921
40.0722
40.987
45.7335
32.2749
49.422
51.8313
58.5949
76.3646
98.4195
201.945
1000.61
154.134
103.549
80.714
67.7194
54.3133
45.4795
39.8993
55.8414
44.9534
40.7805
37.2075
38.1243
48.3114
60.7295
74.4385
111.192
372.336
985.829
151.784
100.86
76.3473
67.7396
62.3237
46.254
42.7255
39.7852
41.4755
35.8234
37.2404
34.9831
46.7229
65.3013
85.7543
122.577
842.69
987.144
149.233
100.146
75.9257
64.6267
67.7616
55.2713
46.4858
47.4446
50.6029
41.0622
35.671
41.4454
47.643
64.9696
90.1278
170.423
1065.72
252.386
134.06
102.527
77.2571
63.3386
58.6658
63.2644
60.4538
48.7112
42.5571
44.4767
41.3956
38.7595
58.5562
69.7467
91.0764
193.216
1115.17
232.172
114.456
88.7903
75.2856
61.3681
53.4533
52.9192
55.1321
58.0292
47.1336
35.1227
30.9038
37.0907
52.481
65.4155
111.394
190.901
1065.88
156.695
114.435
104.513
74.0777
58.6706
48.166
50.3514
52.4185
52.7023
52.7424
51.2169
42.7072
51.4209
65.0543
75.5641
105.863
208.098
945.421
154.384
104.017
80.1067
71.6868
65.2651
48.1132
42.7249
50.1878
54.3732
53.2306
49.5618
53.0568
56.1223
61.0633
91.2166
102.385
220.846
1013.24
155.85
104.621
81.9066
68.8566
61.926
54.8887
47.0114
40.6113
44.3497
49.1986
51.6866
49.9523
53.8248
64.4441
98.2729
106.537
238.193
1016.38
160.1
108.193
83.0459
69.3203
59.1736
49.3855
46.8964
45.3321
43.5726
40.7959
42.3719
48.2572
56.8237
71.4746
89.2246
119.058
386.422
949.508
153.063
106.186
83.3498
70.4471
59.3272
48.1301
44.585
43.3175
44.8671
50.9849
49.4266
50.9458
60.5319
75.866
105.486
145.248
945.937
262.009
148.15
103.985
82.2483
69.3886
64.6315
57.5796
48.6241
46.6984
42.6546
43.6241
46.8789
53.6611
61.4706
75.4529
106.014
148.025
1030.04
268.711
141.882
100.14
78.7679
61.2296
53.1623
47.671
44.8875
40.3795
36.517
41.6208
44.1013
48.1322
55.9922
72.7252
100.897
145.722
995.369
1140.78
187.793
137.735
101.563
72.7789
72.9449
52.1974
42.7546
44.6598
30.1893
28.8583
22.5165
33.3616
44.0915
54.6413
68.2804
105.367
155.729
977.418
1025.53
154.128
107.425
130.202
81.2944
53.5953
56.6937
36.5669
26.7146
24.3232
23.5863
19.1069
21.0322
46.395
54.7699
69.5418
99.2956
191.175
158.86
100.359
75.6047
63.9073
56.7355
53.1369
41.0166
27.8757
18.1986
18.9758
14.3306
26.9859
40.045
54.1745
72.5128
100.975
202.188
954.262
154.037
96.1577
70.7967
59.2355
50.2006
48.1303
48.5507
37.9181
32.5911
15.0613
12.492
20.7793
42.5537
59.8216
86.2667
106.406
239.548
989.113
140.938
90.1897
66.1148
56.4068
49.8927
46.2889
45.348
45.5829
35.1568
28.6055
15.6566
19.4484
42.0681
57.8105
82.9198
107.32
383.345
1086.49
133.258
90.2922
66.4891
58.2782
49.8441
45.5565
40.6458
41.0844
41.5073
33.6615
34.4724
33.0472
46.9032
62.8949
80.5862
114.899
789.623
123.265
123.813
71.9839
60.5748
59.4862
50.9707
43.9213
32.7691
28.5663
32.0691
41.3579
42.082
49.7742
67.8695
98.2116
133.954
894.234
679.91
141.933
66.4767
54.4678
53.1148
52.5818
49.466
49.2059
28.8179
20.6746
31.6489
47.8805
55.8676
66.6887
114.102
138.468
991.57
2102.64
242.11
112.605
83.5837
52.3101
48.8961
47.425
45.8956
48.5194
47.9022
33.0031
29.5805
41.5487
57.1599
73.6988
97.4711
156.216
1042.75
224.81
84.6017
88.2161
75.2149
47.4235
50.0556
46.543
41.1211
36.3282
36.1615
40.3322
40.4216
48.0236
53.2074
78.888
104.238
216.187
209.073
120.286
77.3774
50.6342
44.2757
45.9746
49.07
43.7123
35.3077
34.1088
22.032
40.6901
53.5601
56.8408
74.988
108.051
236.002
1114.58
180.212
88.2449
75.7262
72.3269
56.3747
53.4909
50.7162
43.8746
40.0644
27.5086
25.1251
32.4756
46.9
57.8077
80.6184
119.706
792.388
890.05
131.606
106.676
59.3416
64.373
49.3083
59.2751
51.8168
37.7419
26.3577
32.154
32.287
38.4508
45.897
65.6327
83.9337
124.029
912.949
763.202
107.069
155.31
90.9023
58.6764
46.555
41.5379
24.6534
42.5438
20.366
22.2008
29.2939
39.9331
49.5045
80.684
106.009
127.953
923.924
376.653
93.3385
102.791
64.3167
44.4487
37.7765
31.7801
20.3756
30.0842
51.2484
32.885
42.8872
47.8417
50.701
74.221
147.491
142.551
970.729
951.429
188.069
95.0926
69.4519
64.9055
39.3748
20.1275
6.65483
10.6088
29.7435
43.3578
49.6083
56.8133
58.5905
54.1704
80.2637
106.078
266.799
980.175
848.751
116.91
104.995
69.4829
59.8511
39.9985
11.5567
3.35309
7.2622
27.0999
45.7817
48.7165
50.0035
47.7935
56.238
69.6397
94.7947
149.65
1005.8
170.942
84.2285
56.369
56.0908
34.3144
9.69082
3.55507
5.57661
14.9656
39.152
44.2263
48.2146
55.2075
64.7251
95.2796
96.2637
197.503
1132.06
202.294
95.7622
91.3402
49.9164
27.9422
4.67127
3.70809
10.4452
15.7545
27.0555
41.0206
48.3875
50.0129
64.5599
89.3743
105.695
235.282
221.081
115.737
118.381
61.9785
26.6972
5.97653
3.30431
6.67076
24.9051
21.354
38.9363
47.338
56.1107
64.3023
90.8074
109.866
384.612
206.237
218.519
152.815
81.4051
34.8539
4.82152
3.591
7.16094
14.7871
22.549
32.0275
47.7764
54.2041
73.6281
86.8377
115.797
812.266
911.676
144.217
130.034
127.973
77.2708
43.2614
13.2675
5.28111
11.2861
21.2745
38.0594
43.1376
52.7417
63.3978
73.9452
122.582
143.374
913.253
848.648
141.593
129.827
113.725
63.0164
39.0066
6.73476
5.80223
15.2572
32.2291
43.8544
55.4392
65.8129
64.6205
77.3987
100.512
210.676
780.517
115.405
83.5755
86.6057
59.7764
38.0026
10.138
4.5931
9.25074
32.6031
46.2865
55.7966
52.1765
64.1392
85.2404
108.017
244.902
797.016
114.376
85.8461
88.4479
59.7725
28.988
5.6091
7.5673
23.4048
39.6184
49.8783
62.4883
60.2002
67.1716
95.2065
112.532
246.907
824.044
119.983
95.15
77.3303
68.9376
41.3456
8.06798
7.43937
19.6052
41.59
47.9102
61.5206
57.3073
70.8332
88.5198
121.648
807.899
857.96
130.042
105.378
103.156
63.9292
47.1564
39.1748
16.8342
16.5319
40.6808
52.6073
63.7134
55.1603
68.4357
92.8746
145.165
915.197
273.698
139.917
138.655
119.481
62.7937
28.7172
27.5794
37.5182
44.7306
37.5949
50.258
47.5568
54.895
66.9686
91.0226
149.456
986.139
318.493
264.452
96.3326
52.1741
26.9834
6.02442
14.8655
53.3187
47.1998
47.8107
47.9028
54.6582
68.6158
98.3776
181.481
1114.95
299.769
166.451
97.7993
49.459
7.70231
4.93567
7.34782
31.0424
46.4619
51.5432
61.2853
57.4102
66.4409
101.753
215.552
255.806
230.974
148.903
141.109
76.7532
8.05002
5.30077
12.0976
29.1783
46.6011
52.8381
44.7188
57.5709
74.8818
99.2453
233.371
279.455
122.471
135.461
140.61
118.865
48.1656
9.14894
10.6118
42.9117
58.3299
64.0068
81.0961
69.6428
108.933
120.321
778.415
288.459
128.107
131.204
143.289
143.562
110.828
65.2722
63.4872
61.6673
65.1966
59.817
96.6728
106.484
156.798
157.593
978.833
1154.93
267.609
148.953
103.596
132.756
160.805
127.078
104.034
94.9281
150.721
145.526
118.607
70.7729
112.859
167.807
427.773
1202.38
193.527
120.669
124.667
86.4
139.72
119.756
97.6772
64.5525
79.495
116.592
134.508
153.584
150.803
260.972
200.495
969.008
185.041
133.849
94.2124
76.707
112.815
100.485
98.5455
89.7024
77.2451
128.939
160.79
155.726
166.364
372.277
753.958
276.813
144.221
471.767
210.349
101.557
76.051
96.3191
74.5619
70.249
74.3921
90.8202
81.3708
90.3852
136.965
257.569
4014.78
277.721
526.21
242.119
141.47
130.022
105.32
87.0944
119.687
116.958
99.8476
77.4202
88.3483
101.994
142.063
239.224
736.353
1010.9
593.062
277.235
114.216
120.277
116.102
77.5968
81.7997
112.904
106.524
142.933
111.519
160.781
156.585
276.439
1125.35
162.567
396.211
196.228
99.4957
99.0346
83.2257
98.0114
109.764
114.356
120.482
125.595
109.79
156.823
197.557
1358.24
1117.49
180.714
129.364
303.39
188.99
112.323
88.0089
86.3363
117.046
122.594
121.37
143.928
145.625
133.438
271.405
1194.18
530.235
179.177
140.021
413.353
256.336
118.513
96.9376
102.419
126.134
115.423
127.707
164.405
102.015
131.755
283.096
1066.93
506.104
401.91
284.388
241.809
111.582
96.1163
99.2086
117.501
123.971
183.028
124.042
181.968
1072.15
638.442
462.181
393.155
317.063
173.274
242.17
119.088
112.281
117.483
142.604
99.3911
133.983
258.647
1086.44
159.042
127.866
430.822
288.14
136.653
249.532
462.407
120.154
134.448
161.365
119.505
152.346
461.731
1148.76
176.511
138.311
431.225
385.455
222.61
131.399
182.23
348.642
420.241
290.614
134.429
170.6
1110.87
1074.1
170.369
493.232
411.4
413.093
294.572
200.026
197.723
133.136
274.462
431.117
147.485
185.286
1202.86
1137.97
164.199
485.614
416.915
413.564
389.571
194.036
160.361
132.955
166.729
421.15
142.552
258.571
1257.54
1085.16
173.313
131.671
439.122
390.322
427.048
615.98
152.941
174.005
273.604
138.041
148.826
251.855
1357.42
1351.29
1067.54
130.746
122.673
410.522
413.612
527.313
471.878
171.499
279.135
431.568
174.936
282.239
125.117
440.594
392.108
396.37
124.132
425.047
442.023
501.876
473.375
120.846
111.847
393.959
472.19
154.234
159.802
220.936
1091.11
6181
499.898
124.45
425.767
468.433
177.674
309.149
2704.65
1986.97
419.656
713.494
170.88
197.231
1088.98
391.491
684.637
168.22
185.54
520.336
751.024
520.708
195.617
168.961
208.102
1082.81
1070.99
203.31
1874.72
740.988
475.15
276.956
149.002
138.847
164.492
158.299
600.121
220.825
136.219
284.599
599.264
1409.01
1212.84
6320.57
405.958
1359.46
477.434
448.443
1320.8
534.455
347.961
254.06
232.775
203.545
177.545
167.913
266.397
1367.12
560.085
353.314
257.446
242.121
220.515
203.493
190.416
181.51
171.328
176.015
173.884
179.999
185.925
175.514
1277.87
529.557
279.725
248.437
225.673
221.021
212.795
202.883
199.262
189.878
178.33
163.28
164.29
180.614
195.625
191.333
190.089
179.584
179.467
259.152
328.033
771.687
957.131
491.801
260.6
232.487
225.604
210.468
203.156
201.825
198.222
192.064
186.916
185.899
186.988
166.075
504.224
526.171
206.15
200.043
176.719
178.122
171.986
192.069
505.088
519.613
297.543
228.024
212.142
191.884
179.931
182.265
184.607
182.709
173.697
168.162
165.684
174.723
177.464
179.737
177.57
156.512
453.171
528.805
159.729
168.244
167.63
185.256
225.378
1176.32
387.63
181.448
145.111
138.99
174.104
190.856
430.602
631.546
695.832
143.134
157.11
151.807
138.834
147.582
157.172
172.87
172.793
156.475
137.641
412.299
509.165
182.523
199.939
236.056
550.371
1450.33
358.118
208.067
171.601
128.25
134.922
117.205
145.572
213.98
212.438
172.64
211.093
117.09
138.3
253.529
198.959
603.556
148.512
163.039
165.675
163.877
472.554
508.988
226.28
538.674
1196.6
286.898
277.653
168.126
103.7
93.2491
101.391
130.875
72.8961
119.383
199.338
193.802
164.168
179.56
269.68
413.891
157.663
192.639
474.951
173.963
177.559
172.13
177.06
209.857
482.075
389.429
1308.61
288.897
236.581
203.616
143.085
82.8898
83.5216
82.6519
94.0785
92.3378
71.4913
97.0267
239.57
214.997
214.017
187.563
158.026
154.732
132.862
193.922
143.325
182.355
203.324
308.173
551.682
1038.02
360.923
162.075
158.912
192.134
133.119
171.769
87.4485
73.1461
76.2698
116.059
88.3387
67.384
71.5646
73.2793
80.2444
92.8563
107.37
142.876
141.698
223.538
180.303
184.412
186.025
209.502
485.846
1081.65
212.084
135.928
192.157
153.96
123.484
146.552
70.3782
85.8482
78.8649
81.313
89.068
82.9029
74.599
82.8338
81.1112
78.4786
84.5137
95.4721
114.195
218.073
159.854
562.801
530.071
641.02
4495.56
722.586
1304.04
277.549
175.297
122.065
101.539
89.9082
89.817
73.9218
70.28
74.7719
74.083
75.0351
76.958
77.7146
88.1962
95.1475
81.9943
92.8132
106.065
124.795
136.277
137.017
544.696
1620.93
1218.59
304.212
157.366
101.898
80.9295
112.292
71.8545
59.0842
41.3631
53.8916
68.6741
76.2063
74.0948
66.6852
74.8353
83.313
93.36
100.099
106.844
129.092
140.635
123.124
184.428
414.995
414.855
165.974
189.669
168.432
155.48
80.4362
74.5782
99.0231
58.4546
45.3779
41.3608
35.0794
40.3125
46.5592
59.7537
48.4396
49.2669
77.5732
100.619
111.833
135.368
186.722
121.913
179.509
443.681
391.351
172.602
135.239
133.473
100.118
87.1174
77.1029
73.2188
72.7983
61.2697
42.4919
40.0952
44.0034
40.4537
42.4019
50.2288
47.7782
53.6431
71.8872
100.891
129.955
134.557
315.03
165.551
427.865
353.27
148.321
171.617
149.122
119.005
94.0256
78.0087
70.7907
66.9604
61.9251
60.8095
56.3571
49.3652
43.161
45.7838
43.4842
52.1824
57.9758
77.3394
90.1201
108.914
164.737
223.689
335.586
805.04
1109.15
343.873
145.89
152.071
121.474
114.947
106.322
95.7897
74.4111
72.9359
63.1424
53.875
54.8795
57.119
53.0742
56.9746
49.4144
51.661
47.474
48.2453
56.8426
100.931
145.524
170.714
240.125
369.998
1100.87
346.903
141.126
139.345
115.134
103.67
92.4539
76.706
66.6989
50.0799
48.3198
52.2559
50.7689
47.4941
51.1411
56.1264
56.1167
64.1704
69.5374
59.2436
58.4709
71.2866
110.821
163.824
299.345
393.245
995.188
237.824
139.953
144.941
116.707
99.8987
85.3293
71.5749
57.5869
48.3748
44.5885
37.9205
42.1842
46.6139
48.7112
48.6425
47.9862
46.9749
47.6443
59.7394
81.8524
65.9424
87.0299
122.118
177.74
287.175
1272.27
1197.26
255.751
136.126
118.801
107.205
93.8468
74.9529
63.436
54.2208
47.2759
40.9433
38.6043
39.1264
39.6767
42.531
46.8248
49.4773
49.9248
47.8282
54.8097
52.1469
72.635
92.6491
134.31
197.424
162.207
1468.19
381.652
143.133
148.721
111.476
89.8314
64.0267
49.4259
44.6504
41.7456
39.903
38.8354
37.7415
38.3473
39.4838
41.0676
43.6046
47.1522
51.9026
55.6725
58.035
46.8619
75.5817
117.905
164.348
159.384
393.399
421.946
171.304
126.608
106.2
89.2651
70.5466
48.1682
38.0997
34.3148
32.7965
34.5572
38.1249
38.8882
39.0289
40.9777
43.46
45.4038
47.9634
54.3997
65.1493
75.7159
85.2013
103.566
137.618
159.544
406.108
961.091
215.132
126.096
119.388
97.9263
75.0936
59.8683
40.1646
30.5152
21.585
18.1214
17.7844
22.9138
34.3713
38.3278
40.4622
43.7346
48.1237
54.1691
62.5494
74.0974
99.6993
110.107
128.283
132.701
357.124
372.668
140.105
117.748
96.8479
75.6898
55.8279
36.7878
24.7469
17.8879
14.6484
12.2567
11.9396
14.1004
22.0413
32.9053
38.5776
42.7311
47.6621
55.2504
67.3753
79.2173
90.8521
137.765
195.24
249.226
423.135
158.687
156.003
115.882
88.8934
60.8939
33.3159
20.7233
10.9342
8.60588
9.22051
8.98959
7.81291
8.63571
12.7768
24.6817
35.81
41.5259
49.0964
60.2215
72.8143
91.8535
105.575
127.898
149.297
779.148
904.819
202.983
125.404
121.569
93.9001
71.5592
49.6406
30.9473
11.6534
6.21472
4.66947
5.05174
6.05411
6.55975
6.39794
8.61689
17.4197
29.5201
41.2749
49.9655
66.4646
90.2829
105.361
123.196
129.545
361.536
904.624
213.48
126.645
119.418
93.5006
75.0296
51.7144
39.0423
26.5632
12.2681
5.8794
4.64158
3.82167
3.90385
4.55998
5.85889
8.30471
15.4544
32.4256
44.849
52.9262
78.0503
98.3537
130.139
179.146
219.43
1031.52
369.307
146.311
123.415
91.1182
74.6654
55.0795
41.4004
31.5776
20.9451
9.6923
5.68304
5.00839
4.9321
4.30884
4.37599
6.2666
11.5901
19.8069
31.8915
46.0269
69.8819
96.1797
127.04
165.214
201.52
864.173
740.1
172.915
149.814
101.353
74.2203
52.6255
41.6445
33.9256
26.4639
16.5637
7.94137
6.13033
6.92267
8.31312
5.83456
4.94167
7.34504
17.8858
34.3022
45.3583
55.3849
81.5639
132.79
174.168
204.838
858.678
221.169
123.451
100.79
83.9939
63.0347
35.5245
26.8841
24.1956
20.8147
14.2498
8.47105
6.70557
11.4465
16.669
12.6056
6.74944
8.72779
20.0617
36.9369
52.1931
72.3971
99.5136
128.442
188.319
862.374
745.256
143.083
110.868
90.1137
73.5669
55.3199
39.7141
21.2589
14.846
15.5288
16.4228
15.204
12.5249
12.7066
18.6871
25.4516
16.7748
13.3497
27.7558
44.8742
69.8067
93.7921
126.529
182.403
350.516
236.554
122.571
96.6753
82.1441
57.3673
42.313
33.8764
26.2496
14.1028
10.4969
12.4624
14.3223
17.176
16.0544
17.7963
24.3806
32.7117
29.6002
34.9963
67.2493
81.5942
122.867
174.439
209.767
893.4
905.484
181.472
110.484
83.6919
67.3229
47.0342
34.237
27.5199
21.5741
16.3045
12.7644
11.2479
12.8375
13.27
13.2151
13.1782
20.1212
31.5154
38.8115
53.566
72.0765
100.904
118.77
142.728
802.503
302.168
146.199
121.056
83.0996
50.8662
38.229
28.8441
21.4157
16.7822
12.5337
10.3682
11.3408
12.5091
15.3029
16.2498
13.6321
15.7939
29.4964
44.2864
67.3601
89.4513
120.59
168.256
226.542
1159.26
692.179
128.996
104.742
88.076
70.2508
35.9812
24.2421
19.7923
14.3463
9.78961
8.59387
7.40129
7.89996
11.6374
14.8112
19.4306
26.0264
33.058
35.9473
50.4814
72.1367
94.4516
154.898
198.995
855.992
187.175
138.676
97.3452
84.3176
65.87
43.4782
19.4757
10.3587
8.11902
7.06672
6.32956
6.55462
5.82371
8.61421
15.3248
21.4401
29.2952
38.3465
47.8764
67.9021
91.0566
117.035
131.299
382.37
674.916
131.511
101.159
79.1301
64.5007
49.799
42.3867
28.0766
12.9643
6.40654
5.10187
4.62465
5.23929
5.99082
8.21097
13.5572
22.5942
30.747
40.626
53.223
66.9583
91.2374
146.003
196.708
959.575
214.769
117.231
90.6649
78.2982
54.9361
44.5404
33.238
24.5297
16.984
9.186
5.82356
5.45356
5.29553
7.38225
9.92617
12.7956
22.1985
34.1522
42.6353
57.9095
75.7008
101.994
144.966
354.606
680.428
129.474
100.827
84.7662
65.5151
49.2574
36.8387
27.7659
18.9013
12.709
11.0595
9.61254
8.15497
9.51735
11.7236
14.7775
16.2341
23.4217
35.6315
50.217
68.4864
87.9999
103.848
143.819
836.05
211.612
112.58
87.3251
74.7381
57.4288
42.2947
33.0273
24.7926
17.4022
11.0512
7.05892
7.28743
9.19365
11.9203
16.0008
21.714
29.8179
33.8824
39.3933
53.9842
77.8202
105.941
143.296
223.56
694.186
128.957
98.1721
76.8541
61.4786
44.861
36.5763
28.3118
22.3207
17.0257
11.4233
7.92876
5.68201
6.24802
9.08619
15.765
24.1437
32.6092
40.6259
49.9298
61.4424
95.278
112.423
138.786
801.479
218.773
109.921
84.6813
69.5031
50.8415
37.7761
30.0328
24.3649
19.6538
16.1603
12.8508
7.68127
5.82197
5.89144
7.91249
12.8798
23.45
33.2798
43.5235
58.0275
78.8924
93.9788
166.388
221.797
184.124
135.101
85.7876
63.2756
42.3636
31.6092
25.2737
20.7951
17.7362
15.2849
12.9994
11.1784
7.51697
6.62527
8.46326
14.0126
24.414
35.3556
44.7927
66.6024
92.9311
116.934
123.734
671.889
720.987
125.68
99.1571
75.7198
53.4835
36.4021
27.3087
21.8543
18.3279
16.2596
15.0785
13.8399
12.3417
11.7362
11.8846
13.9028
19.1572
28.6034
43.0374
51.7712
64.4488
96.2247
153.407
197.732
962.187
683.677
129.93
91.6282
71.033
51.1451
32.5565
23.9918
19.1324
16.2975
14.6963
13.9419
13.7152
13.4722
13.4299
14.656
18.0697
23.8939
31.9486
40.6303
53.9083
69.9682
91.6619
158.838
622.663
326.385
124.671
90.0897
70.6128
49.8432
28.3425
19.3179
16.2743
13.6168
11.6327
11.3594
12.2788
13.1958
14.0796
15.7988
19.5967
26.073
34.2499
43.7256
57.6815
82.5163
107.992
152.857
755.632
184.445
135.38
90.2619
66.4876
48.8813
32.1521
17.2097
13.1745
12.465
10.006
7.55282
8.59522
11.9251
14.0334
15.9974
19.8187
26.5056
35.4078
48.2145
69.4363
84.3074
139.814
208.471
696.218
139.735
111.219
80.5915
59.049
40.415
30.2229
19.8493
12.8853
11.4618
10.9833
9.02641
7.42913
9.51601
14.0816
17.1983
20.7235
26.9781
35.7842
49.2331
70.2208
109.291
121.821
693.188
342.527
122.779
89.3308
69.4872
51.5037
37.6895
26.9994
19.041
13.9191
11.3582
11.137
11.4063
10.6102
10.6088
13.5819
18.1474
23.0393
29.7774
38.2925
51.4576
76.874
105.871
158.073
937.884
177.668
135.123
88.9389
68.3545
46.2239
34.9544
25.7792
17.8554
11.8594
8.89405
9.39606
10.8419
12.1533
13.2137
14.3406
18.0197
23.493
30.2517
39.8171
54.5598
79.5133
115.362
197.503
724.375
127.417
97.2753
75.5201
58.9848
43.4734
32.1009
23.8522
17.0221
11.6959
7.55971
5.83096
7.65341
10.6624
13.0758
15.4289
18.5945
24.2323
31.4788
43.0271
65.7476
81.0972
126.652
341.162
331.018
117.649
85.0093
72.8427
53.7482
39.7209
30.1378
21.7657
15.0726
10.2204
7.44549
6.00252
5.13482
6.48862
10.705
14.8949
19.0082
25.0795
33.3857
43.377
70.9324
106.238
118.863
671.535
222.617
102.11
77.6927
63.3542
46.2557
34.5584
26.7001
19.9976
13.3519
7.71818
5.27017
4.90095
5.45505
5.32524
6.50426
12.0509
18.9279
25.282
34.511
49.0192
68.8879
109.917
163.016
951.316
186.305
131.749
80.2502
57.8711
44.057
32.0265
23.6975
17.9524
13.0637
7.88648
4.27652
3.29579
3.90158
5.46613
7.08443
10.4944
18.1056
26.3424
34.8908
49.1646
79.4452
101.991
178.03
891.273
131.384
91.109
69.0695
50.3351
37.6631
30.2147
21.9699
16.3471
13.0096
9.85288
6.57501
3.73122
2.85958
3.75394
6.89129
12.1403
19.4746
27.8101
39.2551
59.9534
79.1156
133.279
328.24
705.077
122.582
98.9878
71.5896
51.1401
36.568
28.5282
21.7608
16.2122
13.239
11.0911
8.88454
7.21174
4.61917
3.31664
4.96721
11.3577
20.7828
30.608
45.3967
66.0789
104.166
121.554
710.731
649.635
124.812
91.1595
74.5278
53.0492
36.9436
27.9467
21.9409
18.4947
15.0441
12.3729
10.1499
8.20585
6.87704
5.67309
5.30403
9.4903
20.353
32.1723
52.245
81.2412
97.7404
173.136
226.444
105.685
80.9831
65.4817
52.4312
36.9289
26.6046
20.6056
17.8822
16.784
14.3674
11.2005
8.50633
5.9967
5.76994
7.4412
11.3107
21.2761
35.2044
54.9666
87.1605
131.973
220.92
218.128
102.44
77.9131
67.27
47.7056
34.6419
25.4659
19.5895
16.6198
15.5462
14.7879
12.8148
10.1095
7.13463
5.06205
6.51957
12.3984
22.9057
39.0072
62.517
84.9087
146.6
628.783
188.742
133.469
82.5669
58.1426
44.0128
33.2988
24.1747
18.6555
15.2335
13.1494
13.0685
13.4921
12.356
11.0714
9.61643
9.3514
14.1255
24.2314
37.908
62.2495
103.722
148.334
665.666
184.614
101.778
73.1172
53.4683
39.2818
30.8115
23.5126
17.9832
14.0999
11.0481
8.38126
9.49477
12.683
13.3186
13.809
15.3593
19.9184
29.5309
41.8029
67.498
91.134
142.942
797.441
178.37
102.185
74.16
53.6228
39.0686
29.8554
21.9612
17.5304
14.68
11.4661
8.81146
7.10003
8.77199
12.9483
15.087
17.4595
22.7794
32.761
43.8089
67.6238
99.996
130.322
892.026
867.536
138.549
100.21
76.5476
55.4121
39.4354
29.5675
21.3805
16.3443
14.2628
12.7046
10.9426
9.53887
9.1798
11.2204
14.6665
18.1751
23.5274
31.9053
44.8923
62.1984
98.7973
158.45
682.082
145.679
121.293
84.6719
57.9251
39.0548
29.5929
21.7084
16.4299
13.652
12.2052
11.3664
10.9746
11.3625
12.1892
14.3525
18.3557
24.2701
33.4159
48.4314
65.566
103.713
163.874
668.187
127.447
89.1169
72.9199
54.7525
36.4027
27.2961
21.4476
17.1578
14.3516
11.6911
10.0282
9.78844
10.6992
12.4694
14.9162
18.5745
24.6729
33.5327
51.0817
76.9888
93.0067
173.659
334.236
117.342
86.0662
69.8873
51.0175
36.3524
23.8214
16.4707
13.9545
12.0441
9.94755
7.35618
6.08426
7.3229
10.3963
13.7524
18.0247
24.5839
33.1601
48.931
78.6167
115.319
218.809
223.759
104.093
79.2218
63.5115
47.7284
34.6553
24.4169
13.6266
8.26202
6.82864
6.05002
4.87558
3.36614
3.33559
5.7872
11.3973
17.1719
24.3126
34.2442
48.2329
77.529
120.342
594.443
229.05
105.961
79.7795
59.8873
42.0634
32.8376
23.8938
15.7078
9.31307
4.76547
2.74658
2.38821
2.40601
2.73271
4.05135
8.58757
16.2237
24.1053
34.8946
50.4838
73.8614
126.645
630.229
196.29
106.834
81.3287
61.3635
40.1944
29.0907
22.0656
16.5964
12.0266
8.35548
3.97972
1.86391
1.6355
2.15439
4.20619
8.94763
16.2269
24.7674
35.974
59.3346
76.2248
117.363
658.358
182.861
105.319
76.3999
56.6993
38.4377
27.4936
20.3803
16.0389
13.006
10.2004
6.876
3.13584
1.75636
1.89619
3.50623
8.75064
16.9196
25.9859
36.2805
60.3443
87.4304
119.982
722.458
189.285
104.704
72.1784
52.1613
35.0414
25.6334
19.3354
15.5039
12.7708
10.2997
8.18863
5.82598
3.14076
2.41317
3.62049
8.57175
16.9057
26.2305
38.2357
59.9401
91.2224
156.436
912.389
181.401
102.388
70.6599
47.2904
32.5459
23.8437
18.2881
14.7381
12.2924
9.54925
6.51304
5.56643
5.40779
4.76478
5.55722
10.2688
18.857
27.3507
38.2372
62.6786
94.5056
168.127
857.399
130.332
95.301
65.894
38.9447
27.6497
21.9582
17.6881
14.6369
12.1469
9.72063
6.20434
3.48966
3.97533
6.53384
9.3071
13.5793
21.0652
30.4872
41.3996
63.834
98.8528
170.415
671.558
151.416
102.141
54.2162
24.6579
17.8009
17.4863
16.2519
14.6151
12.6245
10.5118
8.19852
4.84996
3.2137
5.03228
10.391
16.3223
23.0883
31.538
44.8409
62.459
99.1724
174.122
673.983
124.45
84.1759
56.3819
23.201
10.8168
10.838
12.991
13.3821
12.2934
10.1307
7.95894
6.61136
5.25334
5.1928
9.58004
17.1398
25.0242
33.9592
47.686
72.6251
91.8663
164.194
339.889
117.709
79.3512
57.8161
33.799
15.2933
10.2309
11.0034
12.1268
11.5429
9.5071
6.30887
4.31719
4.89139
7.31392
10.9158
17.5082
25.753
35.1669
50.3453
72.8273
115.401
194.247
212.218
102.043
76.2977
55.5445
37.824