/*--------------------------------*- C++ -*----------------------------------*\
| =========                 |                                                 |
| \\      /  F ield         | OpenFOAM: The Open Source CFD Toolbox           |
|  \\    /   O peration     | Version:  2312                                  |
|   \\  /    A nd           | Website:  www.openfoam.com                      |
|    \\/     M anipulation  |                                                 |
\*---------------------------------------------------------------------------*/
FoamFile
{
    version     2.0;
    format      ascii;
    arch        "LSB;label=64;scalar=64";
    class       volScalarField;
    location    "80";
    object      p;
}
// * * * * * * * * * * * * * * * * * * * * * * * * * * * * * * * * * * * * * //

dimensions      [0 2 -2 0 0 0 0];

internalField   nonuniform List<scalar> 
404911
(
0.460286
0.460428
0.46104
0.461249
0.4595
0.460001
0.46103
0.461113
0.461131
0.461171
0.462894
0.459115
0.459575
0.459135
0.46003
0.461176
0.463305
0.461612
0.461015
0.460886
0.462263
0.462107
0.461338
0.462092
0.462103
0.456499
0.462271
0.46184
0.462669
0.465818
0.462959
0.462309
0.460644
0.465022
0.463944
0.46348
0.463745
0.465633
0.465835
0.465279
0.463023
0.466122
0.46559
0.465598
0.465157
0.461651
0.465279
0.465538
0.465285
0.466456
0.464364
0.464778
0.465229
0.46686
0.465169
0.464836
0.46777
0.458791
0.459408
0.458871
0.461144
0.460963
0.462087
0.461528
0.460931
0.462384
0.462114
0.461441
0.462618
0.462428
0.462881
0.462277
0.46223
0.463226
0.463154
0.462673
0.461795
0.46409
0.464
0.465094
0.464936
0.465419
0.464973
0.464807
0.465226
0.465142
0.465312
0.46525
0.465191
0.465543
0.465286
0.466646
0.466925
0.466825
0.467521
0.467395
0.467094
0.467973
0.467833
0.467434
0.46814
0.468152
0.46805
0.468444
0.423971
0.423905
0.423807
0.424937
0.426305
0.422634
0.42453
0.423604
0.423747
0.423581
0.4237
0.426394
0.425802
0.425496
0.424346
0.424075
0.423978
0.42383
0.423975
0.423735
0.428047
0.427297
0.427064
0.426641
0.426212
0.426422
0.425909
0.425015
0.424571
0.424454
0.424413
0.42457
0.424163
0.422585
0.422871
0.423433
0.429006
0.428316
0.427826
0.427313
0.427087
0.426664
0.426261
0.426019
0.426059
0.425697
0.425078
0.425001
0.424784
0.424636
0.421936
0.431007
0.43047
0.429165
0.428128
0.4278
0.427565
0.42727
0.4267
0.426225
0.425805
0.425524
0.425245
0.425103
0.424847
0.424894
0.430985
0.431247
0.430491
0.429325
0.428127
0.427816
0.427478
0.427553
0.426764
0.426254
0.425862
0.42553
0.425085
0.424681
0.424404
0.424644
0.432413
0.431364
0.430489
0.430605
0.430423
0.429824
0.428641
0.428437
0.428026
0.427464
0.426836
0.426425
0.425996
0.4255
0.425071
0.424466
0.424657
0.433775
0.433201
0.432282
0.432085
0.431086
0.430708
0.430489
0.430116
0.429531
0.42926
0.429066
0.42792
0.427389
0.427077
0.426708
0.426171
0.425684
0.425476
0.43466
0.434381
0.433357
0.432462
0.431722
0.431381
0.431204
0.431354
0.430531
0.429978
0.429032
0.42879
0.428321
0.427441
0.427227
0.42678
0.426461
0.42589
0.435615
0.435228
0.434781
0.434528
0.433696
0.432865
0.431973
0.431355
0.431243
0.431414
0.430688
0.429978
0.429432
0.429066
0.428444
0.427812
0.427275
0.427217
0.435953
0.436367
0.43579
0.435247
0.434704
0.434201
0.433109
0.432325
0.432042
0.431701
0.431282
0.430913
0.430334
0.429719
0.429734
0.428597
0.427158
0.435856
0.436147
0.436151
0.43659
0.436121
0.435436
0.434689
0.434715
0.434098
0.433133
0.432484
0.432001
0.431798
0.43119
0.43084
0.429897
0.429814
0.438103
0.437057
0.436154
0.436556
0.436434
0.436721
0.436383
0.43586
0.435046
0.434775
0.43449
0.433674
0.432849
0.43202
0.432148
0.431783
0.430767
0.430374
0.437762
0.438204
0.438084
0.436692
0.436419
0.436687
0.436664
0.436388
0.436437
0.436012
0.435242
0.43481
0.434444
0.433723
0.432908
0.431759
0.431649
0.432084
0.438147
0.438055
0.437995
0.438665
0.437898
0.436981
0.436769
0.437135
0.437121
0.436487
0.436602
0.436217
0.435972
0.435289
0.434745
0.433826
0.43347
0.432483
0.438357
0.438311
0.438203
0.437993
0.438276
0.437703
0.43729
0.436996
0.437157
0.43748
0.436416
0.435869
0.436235
0.436636
0.436541
0.434899
0.433849
0.432741
0.439408
0.438853
0.438247
0.438144
0.438116
0.437893
0.437949
0.437863
0.437624
0.437422
0.437333
0.437483
0.436947
0.435861
0.436029
0.436384
0.437406
0.435599
0.440798
0.439602
0.438822
0.43854
0.438108
0.437949
0.43786
0.437622
0.438079
0.438071
0.438236
0.438102
0.437963
0.437691
0.43649
0.436417
0.43632
0.436503
0.441065
0.441832
0.44087
0.439532
0.438876
0.438738
0.438459
0.438081
0.437815
0.43752
0.437589
0.438028
0.438144
0.438305
0.438502
0.438508
0.437483
0.436807
0.441751
0.44143
0.44192
0.441501
0.440173
0.439506
0.439323
0.43876
0.438194
0.437971
0.437918
0.437648
0.43803
0.437928
0.437987
0.438003
0.437743
0.442032
0.441864
0.441529
0.44154
0.441578
0.441347
0.440414
0.43998
0.439454
0.439006
0.438561
0.438354
0.438161
0.438037
0.438302
0.438096
0.43798
0.437722
0.442386
0.442039
0.442054
0.441676
0.441484
0.441643
0.441027
0.440473
0.440219
0.440066
0.439498
0.439092
0.438711
0.438233
0.438213
0.438117
0.43833
0.438142
0.44243
0.442399
0.44228
0.442386
0.441713
0.441329
0.441482
0.440992
0.440566
0.440574
0.440478
0.439865
0.439672
0.439385
0.438802
0.43901
0.43831
0.438631
0.44305
0.442535
0.442462
0.442495
0.442421
0.442512
0.44242
0.441644
0.441272
0.440901
0.440459
0.44048
0.440481
0.44044
0.440064
0.439587
0.439004
0.438958
0.443349
0.443311
0.443151
0.442799
0.442688
0.442653
0.442556
0.442494
0.442701
0.442052
0.4415
0.440928
0.44023
0.440413
0.440301
0.440247
0.439876
0.439677
0.443753
0.443482
0.443327
0.443205
0.442975
0.442851
0.442897
0.442999
0.44243
0.442291
0.442032
0.441812
0.4413
0.440525
0.440544
0.440351
0.440331
0.440151
0.444146
0.443924
0.443703
0.443517
0.443339
0.44319
0.443039
0.443012
0.443148
0.443538
0.442911
0.442434
0.442074
0.441527
0.44164
0.44113
0.440197
0.440599
0.444626
0.444257
0.443819
0.443715
0.443507
0.443327
0.443216
0.443109
0.443086
0.443234
0.443447
0.443219
0.44275
0.442224
0.441612
0.441683
0.441323
0.441178
0.445332
0.444695
0.444252
0.443827
0.44378
0.44358
0.443416
0.443265
0.443196
0.443155
0.443187
0.443158
0.442939
0.442621
0.442211
0.441751
0.441728
0.441585
0.445698
0.446158
0.444946
0.444012
0.444003
0.443897
0.443706
0.44331
0.443367
0.443305
0.443298
0.443256
0.443066
0.442742
0.442454
0.442132
0.442028
0.442031
0.445743
0.446171
0.446182
0.446353
0.445777
0.444622
0.444521
0.44442
0.444119
0.443587
0.443393
0.443412
0.443433
0.443418
0.443186
0.44285
0.44254
0.442062
0.446741
0.446299
0.446072
0.445965
0.445725
0.445431
0.445013
0.444799
0.444841
0.444516
0.443916
0.443551
0.443553
0.4435
0.443513
0.443396
0.44307
0.44291
0.447496
0.447124
0.446671
0.446349
0.44585
0.445527
0.445333
0.445058
0.444878
0.444746
0.444557
0.444279
0.44391
0.443761
0.443613
0.443527
0.443486
0.443641
0.447411
0.447518
0.447353
0.446954
0.446782
0.446195
0.445407
0.445134
0.445118
0.444916
0.444748
0.444563
0.444374
0.444132
0.443897
0.443732
0.443706
0.448446
0.447803
0.447725
0.44766
0.447362
0.447039
0.446955
0.446836
0.445957
0.445468
0.445377
0.445097
0.44488
0.444674
0.444472
0.444295
0.44395
0.443781
0.448848
0.448486
0.448261
0.448032
0.447789
0.44742
0.446904
0.446796
0.446963
0.446254
0.445678
0.445493
0.445356
0.445127
0.444874
0.444669
0.444445
0.444522
0.448706
0.448695
0.448675
0.448503
0.448405
0.448185
0.447744
0.447197
0.446608
0.446779
0.446626
0.44607
0.4456
0.445549
0.445322
0.445148
0.444987
0.44494
0.44966
0.44911
0.448896
0.448841
0.448841
0.448745
0.448673
0.448514
0.448025
0.447575
0.446936
0.446777
0.447032
0.446686
0.445838
0.445699
0.445436
0.445242
0.449671
0.449474
0.449314
0.44906
0.448933
0.448894
0.44894
0.448922
0.448644
0.448083
0.44772
0.447
0.446657
0.446841
0.446802
0.446341
0.445953
0.445634
0.449999
0.449735
0.449563
0.449365
0.449092
0.449057
0.449045
0.448982
0.448852
0.448747
0.448517
0.448028
0.447395
0.446742
0.446758
0.446639
0.44644
0.446328
0.449511
0.449945
0.449781
0.449606
0.449373
0.449229
0.449277
0.449239
0.449067
0.448879
0.448632
0.448599
0.448195
0.4477
0.446978
0.446904
0.44668
0.44662
0.450562
0.45044
0.449913
0.449793
0.449576
0.449317
0.449277
0.449426
0.449481
0.449389
0.448957
0.448558
0.44856
0.448322
0.447616
0.447348
0.447032
0.451581
0.450896
0.450717
0.450424
0.450105
0.449889
0.449657
0.449371
0.449348
0.449446
0.449692
0.449923
0.449569
0.448884
0.448424
0.448357
0.448076
0.447638
0.451614
0.451327
0.451283
0.451004
0.450657
0.450301
0.4499
0.449787
0.449475
0.449502
0.449458
0.449704
0.449959
0.449921
0.449126
0.448559
0.448396
0.448383
0.452257
0.451863
0.451527
0.451442
0.451313
0.451064
0.450637
0.45036
0.449821
0.449338
0.449387
0.449378
0.449588
0.449704
0.449591
0.449232
0.448838
0.44858
0.452282
0.452223
0.451999
0.451668
0.451498
0.451346
0.451208
0.450942
0.450848
0.450489
0.450107
0.449539
0.449507
0.449592
0.449672
0.449566
0.449219
0.449135
0.452973
0.452473
0.452238
0.451995
0.45175
0.451544
0.451365
0.451167
0.450985
0.450851
0.450679
0.450466
0.450086
0.449844
0.44974
0.449702
0.449603
0.449289
0.453362
0.453109
0.452783
0.452376
0.45208
0.451863
0.451726
0.451554
0.451259
0.451015
0.450883
0.450722
0.450529
0.45033
0.450058
0.449866
0.449821
0.449585
0.454051
0.453706
0.453254
0.452948
0.452595
0.452371
0.452191
0.451966
0.451749
0.451409
0.451149
0.450967
0.450801
0.45066
0.450478
0.450277
0.450055
0.449677
0.45422
0.454224
0.454138
0.453463
0.452758
0.452859
0.452605
0.452247
0.45193
0.451569
0.451289
0.451345
0.451177
0.451017
0.45089
0.450715
0.450558
0.450618
0.4551
0.454741
0.454427
0.454557
0.454618
0.454332
0.45353
0.453061
0.452794
0.452489
0.452366
0.45182
0.451414
0.451585
0.451492
0.451346
0.451157
0.450971
0.451
0.455634
0.455578
0.455201
0.454841
0.454848
0.454955
0.454824
0.454122
0.453747
0.453216
0.452563
0.452699
0.452671
0.452265
0.451949
0.451881
0.45174
0.451474
0.455629
0.455585
0.455404
0.455151
0.455083
0.455054
0.455061
0.454747
0.454471
0.453917
0.453159
0.452994
0.452979
0.452771
0.452374
0.4522
0.452034
0.456033
0.455954
0.455884
0.455681
0.455476
0.455247
0.455103
0.455062
0.455068
0.455206
0.454946
0.454363
0.453757
0.453315
0.453221
0.452982
0.452754
0.452557
0.456411
0.456033
0.456119
0.45599
0.455791
0.455597
0.455342
0.455162
0.455065
0.455197
0.455542
0.455313
0.454643
0.453919
0.453691
0.453508
0.453219
0.45293
0.455705
0.456393
0.456182
0.456164
0.456142
0.455939
0.45577
0.45554
0.455089
0.454917
0.455296
0.4556
0.455316
0.454647
0.454099
0.453812
0.453663
0.453484
0.456436
0.456222
0.456168
0.456198
0.456268
0.456133
0.455969
0.456027
0.455491
0.454782
0.455234
0.45529
0.455153
0.454727
0.454331
0.454006
0.453807
0.457675
0.456708
0.45617
0.456257
0.456258
0.456268
0.456123
0.456046
0.456189
0.45603
0.455187
0.455272
0.45524
0.455119
0.454921
0.454589
0.454237
0.460085
0.459404
0.458214
0.45715
0.456584
0.4565
0.456375
0.456276
0.45619
0.456069
0.456312
0.456113
0.455456
0.455442
0.455318
0.45509
0.454892
0.454944
0.459842
0.459929
0.459707
0.458512
0.457349
0.456931
0.456754
0.45662
0.456554
0.456097
0.455755
0.456239
0.456315
0.455834
0.455639
0.45546
0.455345
0.459805
0.459781
0.459534
0.459295
0.458426
0.457352
0.456991
0.456981
0.456818
0.456917
0.456462
0.455991
0.456092
0.456161
0.456046
0.455916
0.455732
0.460668
0.460416
0.460048
0.459853
0.45954
0.458916
0.458449
0.457891
0.457317
0.457135
0.456884
0.456932
0.456709
0.456408
0.456028
0.456033
0.45596
0.455904
0.46154
0.460896
0.460444
0.460193
0.459836
0.459396
0.459061
0.45865
0.458275
0.457803
0.45775
0.457257
0.456885
0.456573
0.456433
0.456211
0.456117
0.455991
0.462073
0.46178
0.460995
0.460664
0.46033
0.459908
0.459454
0.459508
0.459253
0.458684
0.458338
0.458097
0.457838
0.457399
0.456594
0.456547
0.456528
0.456268
0.462628
0.462626
0.462168
0.461424
0.460899
0.460618
0.460566
0.459964
0.459606
0.45943
0.459051
0.458908
0.45868
0.458412
0.458099
0.457342
0.456932
0.456873
0.463862
0.463236
0.46304
0.46299
0.462422
0.461933
0.461304
0.460574
0.460597
0.460346
0.459964
0.459868
0.459736
0.459531
0.459478
0.459351
0.458924
0.458625
0.45781
0.464398
0.464
0.463464
0.463226
0.462925
0.462459
0.462103
0.461139
0.460757
0.460487
0.460372
0.460287
0.460237
0.460166
0.459967
0.459559
0.459407
0.458894
0.458755
0.463733
0.464045
0.463489
0.463295
0.462862
0.462463
0.461916
0.461246
0.460717
0.460509
0.460344
0.460182
0.460115
0.460009
0.459817
0.459417
0.459204
0.459043
0.464498
0.464453
0.464403
0.463884
0.463489
0.463036
0.462596
0.461992
0.461512
0.460943
0.460326
0.460317
0.460128
0.460004
0.459838
0.459592
0.459472
0.464523
0.464553
0.464757
0.464726
0.464188
0.463576
0.463026
0.462898
0.462229
0.461548
0.461146
0.460729
0.460365
0.460216
0.460004
0.45983
0.459451
0.4654
0.464677
0.464707
0.464856
0.464749
0.464299
0.463963
0.463158
0.462589
0.462169
0.46168
0.461148
0.460855
0.460525
0.460302
0.460095
0.459837
0.466455
0.466539
0.465679
0.464916
0.464404
0.464708
0.464462
0.464287
0.464186
0.46348
0.462861
0.462572
0.461856
0.461389
0.461076
0.460831
0.460443
0.460564
0.466713
0.466619
0.466619
0.466281
0.465623
0.465113
0.46495
0.464598
0.464349
0.464152
0.463423
0.463191
0.462828
0.462355
0.461561
0.461286
0.46094
0.466601
0.466581
0.466439
0.466369
0.466059
0.465762
0.465432
0.464899
0.464516
0.464303
0.464051
0.463383
0.463098
0.46282
0.462426
0.461964
0.46155
0.466247
0.466603
0.466632
0.466493
0.466254
0.465802
0.465328
0.465158
0.465034
0.464537
0.464344
0.464046
0.463573
0.463068
0.462831
0.462529
0.462242
0.466231
0.466441
0.466687
0.46644
0.466484
0.466134
0.465787
0.465461
0.465306
0.465257
0.464869
0.464364
0.464078
0.463669
0.46328
0.462942
0.46255
0.465984
0.466398
0.466483
0.466886
0.466587
0.466242
0.466118
0.466027
0.465527
0.465489
0.46541
0.465108
0.464707
0.464354
0.463949
0.46351
0.463191
0.467522
0.466546
0.466538
0.466298
0.466679
0.466594
0.466206
0.466056
0.466186
0.465707
0.46553
0.465482
0.465365
0.464988
0.464742
0.464415
0.464043
0.467056
0.467146
0.467097
0.467048
0.467107
0.466686
0.466236
0.466251
0.466189
0.465809
0.465562
0.465454
0.465298
0.465085
0.465073
0.464771
0.468955
0.467964
0.467691
0.467812
0.467615
0.467298
0.466852
0.466609
0.466283
0.466246
0.465893
0.465564
0.465478
0.46537
0.465318
0.469461
0.469899
0.469484
0.468546
0.468223
0.468207
0.467942
0.467629
0.467018
0.466815
0.466289
0.466096
0.466105
0.465708
0.465661
0.465538
0.469428
0.469838
0.469277
0.469081
0.468508
0.468725
0.468942
0.468337
0.468152
0.467505
0.466815
0.466128
0.465746
0.465979
0.465814
0.46555
0.469362
0.470182
0.470573
0.46933
0.468902
0.468525
0.468645
0.468952
0.468638
0.468246
0.467943
0.467294
0.466325
0.465868
0.466667
0.466159
0.470892
0.470149
0.469133
0.469507
0.470525
0.469726
0.469308
0.468821
0.46838
0.468322
0.468427
0.46813
0.467879
0.467674
0.46721
0.466577
0.469413
0.469477
0.46993
0.469675
0.469241
0.46958
0.469707
0.469444
0.469291
0.468858
0.468751
0.46837
0.46843
0.4676
0.467546
0.467445
0.470464
0.470022
0.469313
0.469538
0.469578
0.469409
0.469533
0.469247
0.469227
0.469122
0.469033
0.469186
0.469057
0.46841
0.467732
0.467862
0.471587
0.470825
0.469195
0.469292
0.469498
0.46949
0.469348
0.469271
0.468994
0.469079
0.469322
0.469214
0.469692
0.4699
0.46945
0.467862
0.472195
0.471013
0.470891
0.469935
0.469399
0.469636
0.469696
0.469219
0.468965
0.468856
0.468908
0.468763
0.469015
0.469211
0.468862
0.469043
0.471381
0.47136
0.471562
0.471427
0.4709
0.470361
0.469927
0.470018
0.469651
0.469154
0.468432
0.468454
0.468709
0.468618
0.468797
0.471234
0.471743
0.471801
0.472039
0.471583
0.471515
0.471241
0.470819
0.470462
0.470226
0.469983
0.468639
0.468834
0.468559
0.469022
0.468573
0.470776
0.471302
0.471941
0.472885
0.4723
0.471826
0.471746
0.472069
0.471382
0.471042
0.470995
0.47139
0.470553
0.469839
0.469229
0.469844
0.47182
0.471446
0.471429
0.471765
0.472753
0.472574
0.472276
0.472145
0.472223
0.47215
0.471512
0.471274
0.471512
0.471362
0.470809
0.472356
0.471774
0.471995
0.472055
0.472382
0.472824
0.472971
0.473037
0.47288
0.472827
0.472073
0.471659
0.471408
0.471498
0.47522
0.473004
0.472853
0.473045
0.472544
0.472533
0.47283
0.473148
0.473068
0.472789
0.472631
0.472381
0.472224
0.47404
0.473794
0.473847
0.473563
0.473451
0.473423
0.473364
0.473249
0.472968
0.473226
0.473131
0.472723
0.472428
0.472061
0.474536
0.474215
0.474094
0.47372
0.473615
0.473713
0.473648
0.473417
0.473568
0.473056
0.472853
0.473016
0.472815
0.472644
0.475151
0.474965
0.474427
0.473948
0.473986
0.474189
0.474163
0.473735
0.474148
0.474036
0.473725
0.473607
0.473369
0.473515
0.474754
0.475298
0.475307
0.474844
0.474626
0.474652
0.474826
0.474545
0.473876
0.4742
0.474787
0.474316
0.473963
0.473939
0.475468
0.474994
0.475282
0.475267
0.475108
0.47475
0.475709
0.475533
0.475057
0.473796
0.474186
0.47434
0.474287
0.474043
0.475411
0.475393
0.475952
0.475603
0.475341
0.475478
0.474841
0.476484
0.476502
0.476202
0.474313
0.47435
0.474631
0.476306
0.475419
0.475625
0.475039
0.475727
0.477135
0.476776
0.475201
0.474625
0.476649
0.475848
0.476291
0.47541
0.476032
0.476122
0.47626
0.475593
0.476489
0.476521
0.47617
0.476694
0.476431
0.47551
0.476081
0.476567
0.476761
0.476431
0.476641
0.476158
0.476163
0.475266
0.47773
0.477437
0.476723
0.476359
0.476657
0.477588
0.477237
0.477115
0.478125
0.477679
0.476825
0.478693
0.479052
0.478464
0.478155
0.476379
0.478059
0.478855
0.478474
0.478477
0.478513
0.474812
0.476654
0.478494
0.478262
0.478619
0.479042
0.479352
0.478178
0.477898
0.391079
0.391302
0.392714
0.398958
0.396632
0.395345
0.395274
0.394012
0.393065
0.39266
0.393403
0.401835
0.406459
0.405467
0.401455
0.40068
0.398499
0.39763
0.39746
0.396709
0.395774
0.394754
0.394098
0.394093
0.395752
0.398286
0.402527
0.411855
0.410362
0.409366
0.406608
0.405729
0.402874
0.40057
0.398954
0.398284
0.398494
0.398283
0.396838
0.395667
0.395054
0.395087
0.396268
0.398207
0.401892
0.407374
0.412041
0.414781
0.411262
0.413396
0.415201
0.413929
0.412683
0.410694
0.408927
0.407296
0.405681
0.404167
0.401814
0.39972
0.398798
0.398733
0.399104
0.397959
0.399415
0.395998
0.396384
0.396973
0.398485
0.400806
0.404875
0.409303
0.417068
0.415157
0.415825
0.414955
0.415285
0.413887
0.412163
0.410241
0.409192
0.408015
0.40661
0.404696
0.402381
0.400514
0.399447
0.39967
0.400028
0.402536
0.399256
0.396752
0.396922
0.397205
0.397751
0.398798
0.402358
0.418262
0.416993
0.417186
0.416293
0.415885
0.41401
0.415663
0.414445
0.411833
0.410331
0.408786
0.408487
0.407397
0.40588
0.403069
0.400752
0.400248
0.400509
0.400874
0.403021
0.400056
0.397487
0.396875
0.396737
0.397303
0.418856
0.417224
0.417086
0.417145
0.416759
0.41599
0.414723
0.414895
0.415616
0.415023
0.412576
0.409923
0.409199
0.408129
0.40877
0.407613
0.402603
0.401452
0.400795
0.401243
0.401396
0.402831
0.401305
0.397982
0.397001
0.419528
0.419469
0.419123
0.41748
0.416688
0.416657
0.416772
0.415824
0.414402
0.414894
0.414515
0.414681
0.413793
0.410471
0.409365
0.408882
0.408252
0.408539
0.402271
0.401746
0.401552
0.401528
0.401271
0.400448
0.39988
0.421198
0.41984
0.42071
0.419555
0.419448
0.418972
0.417829
0.41698
0.416693
0.416807
0.415826
0.414299
0.41435
0.414191
0.413981
0.413962
0.412889
0.409982
0.407885
0.407427
0.409003
0.40534
0.402481
0.401957
0.401406
0.399754
0.421159
0.42052
0.420565
0.420275
0.420247
0.420392
0.419741
0.419407
0.418838
0.418279
0.417805
0.416446
0.416101
0.415412
0.414452
0.413873
0.413222
0.413072
0.412704
0.411593
0.410679
0.409262
0.407828
0.405655
0.404576
0.402596
0.401894
0.42228
0.421544
0.421145
0.420679
0.420879
0.419583
0.419564
0.419741
0.419192
0.419026
0.418367
0.417582
0.416786
0.415769
0.414846
0.414583
0.413562
0.412837
0.412206
0.412415
0.412305
0.410053
0.411369
0.408187
0.405492
0.424241
0.425308
0.424201
0.423202
0.422243
0.420834
0.421069
0.420423
0.419514
0.419336
0.419492
0.419079
0.418717
0.418136
0.417358
0.417481
0.416449
0.414822
0.41478
0.413713
0.412677
0.412387
0.412906
0.41244
0.412991
0.424599
0.423708
0.423504
0.423924
0.42367
0.423109
0.421726
0.421215
0.420272
0.4198
0.419552
0.419308
0.418686
0.418413
0.417959
0.417426
0.417635
0.416658
0.415171
0.414815
0.413837
0.412812
0.41237
0.413208
0.424676
0.425242
0.424915
0.424943
0.423486
0.423665
0.424236
0.424184
0.423379
0.422526
0.421745
0.420672
0.419621
0.419355
0.419533
0.418869
0.418126
0.418099
0.417629
0.417687
0.417002
0.415542
0.414626
0.413381
0.412421
0.426156
0.425212
0.424784
0.424777
0.425016
0.425031
0.423943
0.424047
0.424407
0.424297
0.423753
0.423338
0.422241
0.420926
0.420124
0.419662
0.419143
0.418926
0.418791
0.418518
0.418317
0.418317
0.416698
0.416061
0.41411
0.426551
0.426132
0.425846
0.425419
0.424932
0.424451
0.424561
0.424441
0.424066
0.423896
0.424382
0.424206
0.424211
0.423688
0.422403
0.421412
0.420252
0.420006
0.419261
0.419101
0.418726
0.417597
0.418331
0.418329
0.4162
0.427704
0.427482
0.427365
0.426837
0.426087
0.425843
0.425342
0.425109
0.424154
0.424061
0.423888
0.423866
0.424437
0.424707
0.424007
0.424067
0.423621
0.422587
0.421915
0.42072
0.419896
0.419645
0.419264
0.418536
0.417798
0.417878
0.428419
0.429502
0.428321
0.427942
0.427516
0.426868
0.426187
0.42577
0.425575
0.424975
0.4243
0.42396
0.423688
0.423981
0.424711
0.424486
0.423785
0.423659
0.42364
0.422778
0.422095
0.422002
0.420516
0.419873
0.419267
0.418633
0.431933
0.429912
0.428971
0.428862
0.428548
0.427946
0.427231
0.426895
0.426306
0.426024
0.425987
0.425248
0.42447
0.424332
0.423975
0.424326
0.424497
0.423834
0.423093
0.422857
0.423174
0.422338
0.422047
0.422522
0.421632
0.420541
0.420401
0.43115
0.431701
0.430847
0.430288
0.42981
0.429183
0.428412
0.427801
0.427237
0.426835
0.426371
0.426117
0.42601
0.425567
0.424916
0.424646
0.424382
0.424628
0.424379
0.423512
0.422234
0.4222
0.422322
0.421989
0.421773
0.422175
0.423168
0.432181
0.431685
0.431222
0.430823
0.43062
0.430105
0.429187
0.428401
0.427907
0.427506
0.427033
0.426506
0.426165
0.425795
0.425369
0.42496
0.424698
0.42467
0.425053
0.425094
0.424308
0.422784
0.422714
0.422284
0.421871
0.421856
0.433576
0.432283
0.431973
0.431862
0.431431
0.43102
0.43066
0.429845
0.429015
0.428229
0.427636
0.427576
0.427333
0.426729
0.42624
0.425791
0.425298
0.424876
0.424466
0.424252
0.424564
0.424947
0.424773
0.424088
0.423222
0.423062
0.433879
0.433733
0.433268
0.432673
0.43234
0.431883
0.431422
0.430968
0.430562
0.429946
0.429206
0.428628
0.42799
0.427533
0.427441
0.426892
0.426416
0.425944
0.425386
0.424873
0.424303
0.424057
0.424105
0.424344
0.424237
0.424295
0.433975
0.434116
0.433785
0.433322
0.432658
0.432295
0.431795
0.431383
0.430888
0.430495
0.429978
0.42941
0.428983
0.4284
0.428127
0.427575
0.427076
0.42665
0.426135
0.425558
0.425074
0.424434
0.424466
0.42417
0.424435
0.435264
0.435423
0.434961
0.434378
0.434048
0.433643
0.432852
0.432403
0.431866
0.431383
0.431072
0.430785
0.430217
0.429543
0.42898
0.428463
0.428545
0.427788
0.427282
0.426897
0.426239
0.425729
0.425402
0.424942
0.424785
0.425033
0.436244
0.436089
0.435762
0.435596
0.435396
0.434823
0.434387
0.434201
0.433386
0.432523
0.431898
0.431432
0.431281
0.431066
0.430375
0.429685
0.429452
0.428678
0.428506
0.427997
0.427456
0.427059
0.426394
0.425939
0.42559
0.425881
0.437689
0.4369
0.436266
0.436072
0.435945
0.435932
0.435592
0.435196
0.434778
0.434693
0.433846
0.433113
0.432397
0.431695
0.431424
0.43123
0.43064
0.429777
0.429817
0.429483
0.428629
0.428477
0.427616
0.427143
0.426748
0.426607
0.426053
0.436943
0.437289
0.437272
0.43667
0.436385
0.436285
0.436218
0.436002
0.435572
0.43499
0.434708
0.434117
0.433349
0.432857
0.432202
0.43191
0.431639
0.431017
0.430273
0.429952
0.429834
0.42919
0.428569
0.427891
0.427564
0.427386
0.437922
0.437639
0.437529
0.437646
0.437445
0.436845
0.436619
0.436642
0.436591
0.436331
0.43603
0.435512
0.435094
0.43442
0.433771
0.433147
0.432579
0.432238
0.432019
0.431302
0.430622
0.430133
0.429865
0.42918
0.428378
0.428203
0.437908
0.437847
0.43769
0.437728
0.437908
0.437395
0.436619
0.436601
0.43696
0.437018
0.436663
0.436294
0.435875
0.43568
0.435006
0.434202
0.433553
0.432713
0.432214
0.431887
0.431388
0.430646
0.430273
0.430009
0.42905
0.439261
0.438729
0.438275
0.437906
0.437647
0.437683
0.438022
0.437926
0.436633
0.436705
0.437292
0.437576
0.437035
0.436446
0.436109
0.436016
0.435655
0.434345
0.433727
0.433183
0.432377
0.431957
0.431552
0.431051
0.430141
0.440099
0.439329
0.438972
0.438484
0.438083
0.437833
0.437842
0.438155
0.438311
0.437096
0.4369
0.437229
0.437442
0.436832
0.436214
0.436133
0.436291
0.435807
0.434429
0.433953
0.433238
0.43272
0.431974
0.43165
0.43183
0.440423
0.440606
0.440303
0.439623
0.439125
0.43872
0.438222
0.437978
0.437922
0.438123
0.438433
0.437872
0.437535
0.437511
0.437405
0.436782
0.435911
0.436108
0.436222
0.436102
0.434894
0.434279
0.433506
0.433176
0.432336
0.441099
0.441089
0.440834
0.440575
0.439835
0.439289
0.43878
0.43819
0.437856
0.437802
0.437619
0.437995
0.438007
0.438099
0.438256
0.438021
0.437265
0.43655
0.436363
0.436226
0.436299
0.435517
0.434941
0.434595
0.433978
0.441414
0.441456
0.441278
0.44126
0.441263
0.440562
0.439746
0.439292
0.438918
0.438248
0.437692
0.437687
0.43741
0.437734
0.43801
0.438117
0.438259
0.438238
0.437678
0.437166
0.436798
0.43658
0.43656
0.435745
0.435209
0.441906
0.441765
0.441516
0.441298
0.441336
0.44148
0.441321
0.440202
0.439619
0.439162
0.438688
0.438103
0.437887
0.437582
0.437827
0.438109
0.43803
0.437937
0.437926
0.437608
0.437627
0.437234
0.436983
0.4362
0.442571
0.441963
0.441934
0.441883
0.441669
0.441288
0.441267
0.441378
0.441426
0.440736
0.440238
0.439706
0.438924
0.438356
0.438197
0.437997
0.438137
0.438234
0.438011
0.437884
0.437733
0.437435
0.437586
0.437613
0.43766
0.4425
0.442274
0.442202
0.442135
0.441999
0.441873
0.441576
0.441393
0.441436
0.441266
0.440754
0.440511
0.440372
0.439663
0.439145
0.438469
0.438341
0.438414
0.43828
0.43813
0.437937
0.437893
0.437652
0.437552
0.443248
0.44281
0.442725
0.442524
0.442302
0.442223
0.442131
0.442031
0.44172
0.441409
0.441469
0.441304
0.440819
0.440685
0.440699
0.440372
0.439673
0.439074
0.438778
0.438724
0.438581
0.438384
0.438113
0.437925
0.437852
0.443393
0.443198
0.44307
0.442849
0.442654
0.442434
0.442333
0.442238
0.442181
0.442086
0.441483
0.44122
0.44101
0.440671
0.440512
0.440524
0.440435
0.440046
0.439492
0.439187
0.438885
0.438806
0.438666
0.438542
0.44421
0.443712
0.443478
0.443284
0.443193
0.442958
0.442783
0.442561
0.442473
0.442405
0.442295
0.442389
0.441876
0.441449
0.440912
0.440589
0.440441
0.440306
0.440168
0.440056
0.439569
0.439316
0.438988
0.439131
0.439387
0.444223
0.44405
0.443851
0.44361
0.443432
0.44326
0.443064
0.442832
0.44264
0.44259
0.442659
0.442349
0.442118
0.441839
0.441675
0.441184
0.440808
0.44051
0.440223
0.44017
0.44
0.439783
0.439677
0.439306
0.444558
0.444512
0.444146
0.443971
0.443686
0.443495
0.443298
0.443084
0.442873
0.442763
0.442766
0.442963
0.442727
0.442273
0.441803
0.441574
0.44141
0.441099
0.440601
0.440295
0.440316
0.440123
0.439993
0.440078
0.445537
0.445254
0.44491
0.444632
0.444309
0.444015
0.443759
0.443529
0.443342
0.443146
0.442963
0.442889
0.442895
0.442937
0.442752
0.442378
0.441969
0.441703
0.441613
0.441405
0.440917
0.440525
0.440482
0.440322
0.440461
0.445806
0.44568
0.445458
0.445152
0.444806
0.44439
0.44407
0.44381
0.44362
0.443469
0.443285
0.443086
0.442999
0.442974
0.442887
0.442658
0.442332
0.442027
0.441797
0.441579
0.441454
0.441293
0.441076
0.440922
0.446506
0.44594
0.445945
0.445712
0.445463
0.444992
0.444459
0.444167
0.443939
0.443702
0.443527
0.443462
0.443273
0.443158
0.443097
0.442964
0.442722
0.442409
0.442138
0.441921
0.441824
0.44147
0.441478
0.441129
0.446644
0.446543
0.446193
0.445918
0.445785
0.445677
0.445369
0.444746
0.44446
0.444264
0.44391
0.443525
0.443609
0.443461
0.443331
0.443242
0.443131
0.442896
0.442569
0.442292
0.442114
0.442083
0.441852
0.447581
0.447421
0.447019
0.446704
0.446453
0.446106
0.445889
0.445739
0.445495
0.445071
0.444726
0.444496
0.444253
0.443867
0.443801
0.443649
0.443471
0.443359
0.443267
0.443083
0.442684
0.442575
0.44223
0.441965
0.44768
0.447673
0.447539
0.447199
0.4469
0.446643
0.446372
0.446056
0.445776
0.445567
0.44525
0.44492
0.444563
0.44428
0.444098
0.44397
0.4438
0.443635
0.443469
0.443329
0.443274
0.44289
0.442985
0.442547
0.448197
0.447987
0.44783
0.447671
0.447395
0.447138
0.446851
0.446581
0.44622
0.445734
0.445606
0.445444
0.445107
0.444742
0.444443
0.444257
0.444091
0.443902
0.443739
0.443504
0.443326
0.443256
0.442944
0.44866
0.448314
0.448282
0.448173
0.44798
0.447767
0.447561
0.447303
0.446986
0.446766
0.446592
0.446018
0.445795
0.445729
0.445362
0.445
0.444717
0.444528
0.444284
0.444022
0.44387
0.443704
0.443569
0.442981
0.449369
0.4488
0.448589
0.448437
0.44832
0.448204
0.447972
0.447743
0.447433
0.447002
0.446742
0.446726
0.446356
0.445894
0.445903
0.445607
0.445248
0.444972
0.444778
0.444477
0.444152
0.444028
0.443719
0.444219
0.449029
0.449128
0.449033
0.44882
0.448615
0.448488
0.448327
0.448141
0.447944
0.447564
0.447078
0.446568
0.446631
0.446553
0.446149
0.44594
0.44573
0.445404
0.445131
0.444941
0.44468
0.444418
0.444258
0.443995
0.449474
0.449469
0.449265
0.449087
0.448953
0.448764
0.448615
0.448479
0.448364
0.448256
0.447801
0.447366
0.446819
0.446754
0.44678
0.446452
0.446091
0.445828
0.445519
0.445214
0.444984
0.444779
0.444768
0.449768
0.450061
0.449708
0.449599
0.449439
0.449272
0.449116
0.448897
0.448741
0.448649
0.44858
0.448446
0.447974
0.44758
0.447
0.446781
0.446749
0.446538
0.446273
0.445951
0.445666
0.445471
0.445276
0.44501
0.450868
0.450119
0.450039
0.449884
0.449727
0.449554
0.449382
0.44921
0.449032
0.44891
0.448814
0.448648
0.448458
0.448265
0.447728
0.447233
0.44694
0.446823
0.446627
0.446413
0.446102
0.445876
0.445556
0.445685
0.450557
0.450571
0.450452
0.450161
0.449966
0.449793
0.449634
0.449451
0.449307
0.449206
0.449117
0.449036
0.448815
0.448429
0.448329
0.447879
0.447467
0.447199
0.446986
0.446725
0.446565
0.446257
0.446039
0.451337
0.450955
0.450702
0.450471
0.450294
0.450081
0.449899
0.449728
0.449524
0.449406
0.449356
0.449298
0.449271
0.448998
0.448551
0.448394
0.448066
0.447708
0.447476
0.447134
0.446873
0.446735
0.446492
0.451609
0.451371
0.451132
0.45097