/*--------------------------------*- C++ -*----------------------------------*\
  =========                 |
  \\      /  F ield         | OpenFOAM: The Open Source CFD Toolbox
   \\    /   O peration     | Website:  https://openfoam.org
    \\  /    A nd           | Version:  8
     \\/     M anipulation  |
\*---------------------------------------------------------------------------*/
FoamFile
{
    version     2.0;
    format      ascii;
    class       volScalarField;
    location    "170";
    object      epsilon;
}
// * * * * * * * * * * * * * * * * * * * * * * * * * * * * * * * * * * * * * //

dimensions      [0 2 -3 0 0 0 0];

internalField   nonuniform List<scalar> 
12225
(
285.526
270.704
257.915
243.812
232.455
223.094
216.796
212.702
212.742
213.971
217.226
220.971
228.09
232.884
241.328
246.859
256.351
260.129
52.4893
91.8936
106.965
114.763
124.833
136.803
152.686
169.926
191.14
210.959
235.316
255.527
281.245
299.43
325.093
339.744
364.242
380.222
20.527
34.8784
44.6698
50.4764
55.3898
59.6158
64.66
69.6502
76.3236
83.1922
91.4645
99.3348
108.235
116.984
125.661
135.439
142.745
154.418
16.0029
19.4881
24.0782
27.5669
30.4939
32.8727
35.154
37.2959
39.5042
41.9203
44.3438
47.2085
49.6967
53.058
55.4411
59.2945
61.4511
65.7955
15.0386
15.713
17.3977
19.08
20.6381
22.0272
23.2457
24.4321
25.4448
26.5958
27.5257
28.761
29.637
30.9929
31.8222
33.289
34.0695
35.7011
14.7897
14.8258
15.2494
15.868
16.567
17.2875
17.9235
18.5846
19.1194
19.7346
20.1942
20.8004
21.2104
21.8259
22.2017
22.836
23.171
23.8821
14.7657
14.6146
14.6409
14.7258
14.9348
15.2201
15.4915
15.8091
16.071
16.3829
16.6185
16.9209
17.1317
17.4286
17.6174
17.9173
18.0754
18.4178
14.7686
14.5867
14.466
14.3802
14.3677
14.3896
14.4394
14.5334
14.6185
14.7368
14.831
14.9568
15.048
15.1769
15.2616
15.3946
15.4645
15.6263
14.768
14.591
14.4349
14.2963
14.185
14.1044
14.0399
14.0066
13.9814
13.9785
13.9809
13.9918
14.0038
14.0302
14.0465
14.0817
14.0976
14.1529
14.7665
14.594
14.432
14.282
14.143
14.0219
13.9115
13.8193
13.737
13.6698
13.6102
13.5633
13.5181
13.4872
13.4516
13.4345
13.402
13.4015
14.7659
14.5945
14.4322
14.2803
14.1361
14.0032
13.8782
13.7644
13.6581
13.5628
13.4735
13.3952
13.3198
13.256
13.1915
13.1408
13.0838
13.0453
14.7657
14.5943
14.4321
14.2798
14.1353
13.9998
13.8715
13.7518
13.6385
13.5336
13.434
13.343
13.2556
13.177
13.1002
13.0328
12.9647
12.9074
14.7657
14.5941
14.432
14.2794
14.1349
13.9989
13.8698
13.7485
13.6331
13.5249
13.4219
13.3257
13.2337
13.1483
13.0662
12.9905
12.9171
12.8502
14.7657
14.5939
14.4318
14.279
14.1346
13.9983
13.8691
13.7472
13.6315
13.5222
13.4184
13.3203
13.227
13.1389
13.055
12.9758
12.9002
12.8291
14.7657
14.5938
14.4317
14.2787
14.1342
13.9977
13.8686
13.7464
13.6307
13.5211
13.4171
13.3185
13.2248
13.136
13.0516
12.9715
12.8952
12.8228
14.7657
14.5937
14.4316
14.2785
14.1339
13.9973
13.8681
13.7458
13.63
13.5202
13.4161
13.3174
13.2237
13.1347
13.0501
12.9697
12.8932
12.8205
14.7657
14.5937
14.4315
14.2783
14.1337
13.997
13.8677
13.7453
13.6294
13.5196
13.4154
13.3166
13.2227
13.1336
13.049
12.9685
12.8919
12.8191
14.7657
14.5937
14.4314
14.2782
14.1335
13.9968
13.8674
13.745
13.629
13.5191
13.4149
13.316
13.2221
13.1329
13.0482
12.9676
12.891
12.8181
14.7657
14.5937
14.4314
14.2782
14.1335
13.9967
13.8673
13.7448
13.6288
13.5189
13.4146
13.3157
13.2218
13.1325
13.0478
12.9672
12.8905
12.8175
14.7657
14.5937
14.4314
14.2782
14.1336
13.9968
13.8674
13.745
13.629
13.5191
13.4148
13.3159
13.222
13.1328
13.048
12.9674
12.8908
12.8178
14.7657
14.5937
14.4315
14.2784
14.1338
13.997
13.8677
13.7453
13.6294
13.5196
13.4155
13.3167
13.2229
13.1339
13.0494
12.969
12.8927
12.8201
14.7657
14.5937
14.4316
14.2785
14.1341
13.9974
13.8685
13.7464
13.6312
13.522
13.4191
13.3214
13.2293
13.1419
13.0595
12.9811
12.9074
12.8369
14.7659
14.5937
14.4318
14.2788
14.1353
14.0002
13.8742
13.756
13.6463
13.5435
13.4485
13.3592
13.277
13.1993
13.1283
13.0602
12.9989
12.9387
14.7661
14.5928
14.4329
14.2844
14.1515
14.0321
13.9289
13.8376
13.7593
13.6894
13.6307
13.5769
13.5328
13.4905
13.4574
13.423
13.3988
13.3693
14.7641
14.5936
14.461
14.3604
14.3029
14.2767
14.2796
14.294
14.3202
14.3529
14.3958
14.4345
14.4824
14.5216
14.5719
14.6088
14.6615
14.6937
14.757
14.6921
14.7579
14.9172
15.1828
15.4611
15.7475
16.012
16.2722
16.5037
16.7359
16.9384
17.1505
17.3307
17.5306
17.6933
17.8884
18.0355
14.9574
15.4344
16.5693
17.6884
18.7053
19.5677
20.3371
20.9967
21.6192
22.1658
22.7185
23.2104
23.7394
24.2036
24.7319
25.1817
25.7239
26.1647
16.2579
20.9389
25.015
27.7587
29.7843
31.3583
32.7764
34.0579
35.3587
36.6155
37.9743
39.2959
40.7598
42.1438
43.7153
45.1708
46.8801
48.3544
29.9427
47.2249
54.8703
58.6731
61.6133
64.4313
67.5783
70.9773
74.7357
78.7109
82.9812
87.3392
91.8989
96.4425
101.091
105.612
110.163
114.563
165.79
160.073
154.899
149.564
144.479
139.678
135.613
132.11
129.27
126.973
125.319
124.044
123.338
122.827
122.824
122.979
123.266
123.822
0.934901
0.848244
1.43582
1.99525
2.56702
3.15071
3.74492
4.34221
4.93227
5.50294
6.04299
6.54171
6.98937
7.37597
7.69072
7.9214
8.05482
8.07111
7.96518
7.76056
7.52631
7.64391
7.85884
8.03171
8.09359
7.90802
7.24627
7.92957
8.23906
8.37639
9.18951
39.7338
44.4018
47.0609
50.7589
54.355
58.2267
62.2368
66.4261
70.783
75.3139
80.0199
84.9061
89.9749
95.232
100.68
106.326
112.171
118.223
124.483
130.956
137.647
144.557
151.691
159.051
166.639
174.457
182.506
190.787
199.3
208.044
217.02
226.224
235.657
245.311
255.188
265.278
275.582
286.087
296.795
307.689
318.772
330.024
341.447
353.019
364.741
376.588
388.564
400.641
412.822
425.077
437.413
449.794
462.231
474.684
487.166
499.636
512.108
524.548
536.964
549.335
561.638
573.86
585.983
597.991
609.862
621.58
633.126
644.507
655.776
666.851
677.757
688.52
699.123
709.57
719.863
729.996
739.984
749.815
759.51
769.052
778.464
787.726
796.863
805.85
814.714
823.417
831.99
840.4
848.673
856.756
864.643
872.266
879.635
886.682
893.437
899.819
905.863
911.506
916.801
921.615
925.798
929.334
931.877
933.183
934.656
933.586
931.721
929.203
925.271
919.798
912.802
904.26
894.095
882.305
868.958
854.091
837.67
820.163
801.813
781.529
766.869
756.495
745.816
734.283
721.925
708.865
695.259
681.21
666.824
652.241
637.371
622.431
607.601
592.917
578.628
564.495
550.633
537.045
523.806
510.985
498.601
486.642
475.065
463.816
452.643
441.812
428.775
418.9
382.191
3.25121
1.90146
1.87508
2.0964
2.43291
2.84259
3.30499
3.80313
4.32169
4.84738
5.36965
5.88043
6.37371
6.84428
7.28692
7.69536
8.06832
8.43557
8.83155
9.29111
9.83428
10.454
11.1165
11.8489
12.6976
13.8135
15.077
16.6799
18.4077
20.5644
23.4552
27.5113
29.1619
30.8759
32.7299
34.6282
36.603
38.6414
40.7487
42.9245
45.171
47.4896
49.8823
52.3504
54.896
57.5203
60.2251
63.0115
65.881
68.8346
71.8735
74.9983
78.2101
81.5091
84.8959
88.3707
91.9337
95.5847
99.3235
103.15
107.062
111.061
115.144
119.31
123.559
127.887
132.294
136.776
141.332
145.959
150.654
155.413
160.234
165.114
170.046
175.03
180.058
185.129
190.237
195.378
200.546
205.738
210.947
216.17
221.4
226.634
231.864
237.088
242.299
247.493
252.663
257.801
262.9
267.956
272.961
277.911
282.806
287.652
292.484
297.321
302.086
306.789
311.431
316.008
320.522
324.971
329.357
333.68
337.941
342.141
346.282
350.364
354.387
358.353
362.262
366.114
369.908
373.643
377.32
380.934
384.479
387.944
391.319
394.597
397.772
400.84
403.789
406.616
409.311
411.872
414.277
416.484
418.52
420.282
421.547
422.683
423.155
423.193
422.89
422.058
420.634
418.595
415.92
412.582
408.569
403.887
398.541
392.536
385.94
378.852
371.064
363.818
357.228
350.573
343.639
336.423
328.97
321.346
313.603
305.788
297.955
290.07
282.107
274.222
266.466
258.901
251.504
244.305
237.311
230.542
224.014
217.742
211.732
205.983
200.498
195.207
190.357
185.1
182.598
179.258
6.11307
3.09942
2.72566
2.77879
3.00157
3.32869
3.73055
4.18812
4.68619
5.21228
5.75701
6.31418
6.88082
7.45671
8.04453
8.65087
9.28481
9.94449
10.6363
11.3727
12.1556
12.981
13.8528
14.7905
15.8151
16.9478
18.126
19.4429
20.8725
22.4433
24.1415
25.8536
27.3244
28.8126
30.3573
31.9539
33.6049
35.3102
37.0726
38.8915
40.7678
42.7027
44.6971
46.7522
48.869
51.0485
53.2918
55.5996
57.9728
60.4123
62.9186
65.4923
68.134
70.8441
73.6229
76.4706
79.3873
82.3731
85.4278
88.5511
91.7427
95.0021
98.3285
101.721
105.179
108.701
112.286
115.932
119.637
123.4
127.219
131.091
135.015
138.986
143.004
147.063
151.162
155.297
159.465
163.661
167.882
172.124
176.383
180.654
184.933
189.216
193.497
197.774
202.04
206.291
210.523
214.729
218.906
223.05
227.156
231.226
235.257
239.256
243.224
247.153
251.026
254.844
258.604
262.305
265.944
269.523
273.04
276.494
279.888
283.219
286.491
289.702
292.853
295.946
298.981
301.958
304.879
307.742
310.549
313.297
315.984
318.604
321.153
323.626
326.021
328.331
330.552
332.677
334.697
336.602
338.375
339.991
341.436
342.664
343.578
344.15
344.393
344.317
343.909
343.094
341.827
340.082
337.836
335.072
331.779
327.954
323.6
318.725
313.362
307.568
301.378
295.175
289.07
282.876
276.506
269.962
263.278
256.498
249.669
242.827
236.011
229.227
222.488
215.848
209.344
202.977
196.75
190.708
184.86
179.22
173.783
168.568
163.586
158.839
154.331
150.042
146.095
142.22
139.495
137.379
9.06207
4.37672
3.66528
3.58803
3.73966
4.02015
4.38957
4.82681
5.31747
5.85053
6.41773
7.01351
7.63496
8.28139
8.95383
9.65424
10.3845
11.1451
11.9375
12.7632
13.6202
14.5079
15.4289
16.3884
17.3899
18.4323
19.5402
20.7334
21.9998
23.3358
24.7276
26.144
27.5574
29.0027
30.494
32.0332
33.6203
35.2535
36.9392
38.6779
40.471
42.3192
44.2238
46.1855
48.2056
50.2848
52.4242
54.6247
56.8873
59.2126
61.6014
64.0543
66.5719
69.1548
71.8036
74.5185
77.3
80.1483
83.0636
86.0459
89.095
92.2109
95.393
98.641
101.954
105.332
108.773
112.276
115.84
119.463
123.144
126.881
130.671
134.512
138.402
142.338
146.317
150.334
154.388
158.475
162.589
166.728
170.887
175.061
179.246
183.438
187.63
191.819
195.999
200.166
204.314
208.438
212.534
216.597
220.625
224.615
228.567
232.477
236.34
240.151
243.902
247.589
251.21
254.762
258.243
261.651
264.985
268.244
271.428
274.535
277.567
280.522
283.402
286.207
288.938
291.595
294.181
296.694
299.137
301.508
303.806
306.03
308.175
310.241
312.223
314.12
315.925
317.633
319.235
320.721
322.074
323.277
324.315
325.137
325.624
325.844
325.799
325.445
324.762
323.705
322.239
320.337
317.978
315.144
311.824
308.013
303.716
298.949
293.749
288.169
282.274
276.223
270.086
263.824
257.414
250.87
244.225
237.521
230.798
224.094
217.441
210.861
204.372
198.008
191.795
185.746
179.868
174.179
168.689
163.401
158.293
153.397
148.724
144.281
140.062
136.072
132.376
128.902
126.1
123.924
11.9108
5.65101
4.60953
4.412
4.49795
4.73851
5.08093
5.49977
5.97961
6.50952
7.08136
7.68921
8.32916
8.99901
9.69777
10.4252
11.1812
11.9658
12.7791
13.6216
14.495
15.4
16.3378
17.3109
18.3218
19.374
20.4752
21.6313
22.8427
24.1081
25.4217
26.7744
28.1637
29.5955
31.0738
32.6008
34.1781
35.8081
37.4913
39.2281
41.0196
42.8667
44.7706
46.7323
48.7531
50.8339
52.9759
55.1803
57.4483
59.7813
62.1797
64.6441
67.1756
69.775
72.4431
75.1805
77.988
80.8661
83.8153
86.8359
89.9281
93.0922
96.328
99.6354
103.014
106.463
109.983
113.571
117.228
120.951
124.739
128.59
132.503
136.475
140.502
144.584
148.715
152.894
157.115
161.376
165.671
169.997
174.348
178.72
183.108
187.505
191.906
196.306
200.699
205.079
209.44
213.777
218.083
222.354
226.584
230.769
234.905
238.987
243.009
246.965
250.849
254.656
258.383
262.026
265.58
269.045
272.417
275.694
278.874
281.957
284.94
287.825
290.61
293.296
295.884
298.375
300.769
303.069
305.275
307.388
309.407
311.333
313.164
314.9
316.539
318.079
319.515
320.845
322.059
323.15
324.104
324.905
325.538
325.912
326.023
325.927
325.56
324.9
323.918
322.578
320.848
318.703
316.119
313.077
309.566
305.583
301.138
296.251
290.958
285.308
279.359
273.201
266.885
260.418
253.806
247.077
240.264
233.408
226.55
219.728
212.973
206.313
199.771
193.372
187.139
181.087
175.225
169.567
164.117
158.881
153.851
149.037
144.446
140.082
135.932
132.016
128.375
125.005
122.117
119.698
14.5759
6.86949
5.51181
5.19838
5.22058
5.42175
5.73613
6.13316
6.59548
7.11157
7.67309
8.27383
8.90929
9.57648
10.2736
10.9997
11.7545
12.5383
13.3516
14.1957
15.0722
15.9829
16.9293
17.9134
18.9372
20.0032
21.1145
22.2738
23.4823
24.7403
26.0462
27.3982
28.796
30.2412
31.7355
33.2806
34.8781
36.5292
38.2352
39.9971
41.816
43.6932
45.63
47.6276
49.6875
51.8109
53.9991
56.2535
58.5753
60.9656
63.426
65.9579
68.5625
71.2412
73.9951
76.8253
79.7328
82.7185
85.7834
88.9281
92.1532
95.4592
98.8464
102.315
105.864
109.495
113.206
116.996
120.866
124.812
128.835
132.931
137.1
141.338
145.642
150.011
154.439
158.924
163.46
168.045
172.672
177.337
182.034
186.757
191.5
196.258
201.022
205.788
210.547
215.292
220.018
224.717
229.381
234.004
238.58
243.101
247.562
251.957
256.277
260.517
264.669
268.727
272.687
276.544
280.292
283.929
287.449
290.851
294.13
297.284
300.312
303.213
305.985
308.63
311.146
313.536
315.801
317.941
319.96
321.859
323.639
325.3
326.844
328.271
329.582
330.776
331.851
332.804
333.63
334.326
334.879
335.266
335.458
335.418
335.177
334.71
333.986
332.979
331.658
329.992
327.949
325.503
322.629
319.31
315.534
311.303
306.626
301.525
296.031
290.188
284.045
277.663
271.084
264.334
257.438
250.428
243.343
236.225
229.114
222.049
215.065
208.191
201.453
194.874
188.477
182.275
176.281
170.505
164.952
159.625
154.523
149.649
145.005
140.596
136.418
132.483
128.817
125.437
122.449
119.776
16.9845
7.99107
6.33809
5.9096
5.87203
6.03244
6.31678
6.68884
7.12902
7.62501
8.16829
8.75266
9.3736
10.028
10.7139
11.4304
12.1773
12.9551
13.7647
14.6075
15.4852
16.3994
17.3518
18.3442
19.3782
20.4556
21.5783
22.7479
23.9655
25.2319
26.5473
27.9119
29.3264
30.7917
32.3092
33.8804
35.5068
37.1898
38.9307
40.7311
42.5922
44.5157
46.503
48.5558
50.6757
52.8644
55.1234
57.4545
59.8594
62.3397
64.8972
67.5338
70.251
73.0506
75.9341
78.9031
81.959
85.1032
88.3369
91.6612
95.0771
98.5853
102.187
105.881
109.669
113.551
117.526
121.593
125.752
130.001
134.339
138.765
143.275
147.867
152.538
157.284
162.102
166.988
171.936
176.942
182
187.104
192.248
197.425
202.627
207.848
213.08
218.314
223.543
228.758
233.951
239.113
244.236
249.311
254.33
259.284
264.165
268.964
273.675
278.287
282.794
287.188
291.463
295.612
299.629
303.509
307.246
310.836
314.274
317.557
320.683
323.647
326.451
329.091
331.571
333.888
336.047
338.048
339.893
341.586
343.13
344.524
345.774
346.881
347.846
348.672
349.361
349.908
350.315
350.583
350.684
350.603
350.348
349.899
349.246
348.371
347.249
345.854
344.157
342.126
339.732
336.947
333.749
330.119
326.049
321.537
316.594
311.236
305.494
299.403
293.006
286.349
279.475
272.414
265.2
257.871
250.469
243.036
235.616
228.248
220.97
213.812
206.803
199.966
193.324
186.892
180.682
174.704
168.963
163.464
158.204
153.187
148.412
143.882
139.596
135.564
131.804
128.336
125.217
122.3
19.0855
8.98459
7.06293
6.52316
6.42883
6.54914
6.80278
7.14862
7.56488
8.03848
8.56076
9.12567
9.72891
10.3675
11.0398
11.7447
12.4823
13.253
14.0579
14.8981
15.7751
16.6906
17.6461
18.6432
19.6833
20.7681
21.8989
23.0772
24.3044
25.5815
26.9095
28.2895
29.7225
31.2098
32.7529
34.3533
36.0126
37.7324
39.5145
41.3605
43.2722
45.2514
47.3001
49.4201
51.6135
53.8824
56.2287
58.6547
61.1624
63.7541
66.4319
69.1982
72.0549
75.0043
78.0484
81.1893
84.4287
87.7686
91.2106
94.7562
98.4068
102.163
106.027
109.998
114.078
118.266
122.561
126.965
131.475
136.09
140.809
145.63
150.55
155.567
160.676
165.875
171.157
176.52
181.957
187.462
193.029
198.652
204.322
210.032
215.774
221.539
227.318
233.101
238.879
244.642
250.38
256.082
261.739
267.34
272.874
278.331
283.701
288.974
294.14
299.19
304.113
308.902
313.548
318.044
322.381
326.553
330.552
334.374
338.01
341.458
344.712
347.769
350.627
353.284
355.741
357.998
360.056
361.918
363.588
365.067
366.359
367.469
368.4
369.158
369.744
370.163
370.424
370.517
370.44
370.212
369.814
369.245
368.499
367.567
366.437
365.094
363.516
361.677
359.551
357.108
354.32
351.16
347.608
343.643
339.257
334.446
329.216
323.583
317.57
311.208
304.535
297.589
290.41
283.032
275.494
267.837
260.102
252.337
244.585
236.888
229.285
221.808
214.489
207.353
200.422
193.713
187.24
181.011
175.033
169.31
163.843
158.631
153.675
148.975
144.533
140.356
136.454
132.847
129.561
126.405
20.8473
9.83091
7.67283
7.03053
6.88223
6.96388
7.18741
7.50732
7.89987
8.35117
8.85242
9.39768
9.98288
10.6053
11.2633
11.9561
12.6836
13.4462
14.2449
15.0808
15.9552
16.8695
17.825
18.8234
19.866
20.9544
22.0901
23.2746
24.5097
25.7967
27.1371
28.5324
29.9842
31.4941
33.0638
34.6951
36.3899
38.1501
39.9778
41.875
43.8439
45.8866
48.0056
50.2031
52.4817
54.8438
57.2921
59.8291
62.4575
65.18
67.9993
70.9182
73.9394
77.0654
80.2989
83.6424
87.0983
90.6689
94.3562
98.1622
102.089
106.137
110.308
114.604
119.024
123.569
128.239
133.033
137.951
142.991
148.151
153.428
158.821
164.326
169.938
175.653
181.467
187.373
193.365
199.437
205.581
211.789
218.053
224.363
230.71
237.084
243.475
249.871
256.26
262.633
268.976
275.278
281.526
287.708
293.811
299.823
305.733
311.527
317.196
322.726
328.108
333.332
338.387
343.264
347.954
352.449
356.739
360.817
364.675
368.306
371.705
374.867
377.789
380.469
382.906
385.099
387.052
388.765
390.243
391.488
392.506
393.302
393.879
394.249
394.41
394.369
394.131
393.707
393.102
392.32
391.361
390.227
388.915
387.42
385.735
383.847
381.737
379.386
376.766
373.854
370.623
367.047
363.105
358.779
354.054
348.925
343.394
337.474
331.182
324.545
317.593
310.361
302.886
295.204
287.353
279.376
271.317
263.223
255.139
247.109
239.173
231.368
223.725
216.271
209.031
202.022
195.259
188.753
182.51
176.534
170.828
165.39
160.221
155.321
150.691
146.334
142.26
138.48
135.002
131.608
22.2572
10.5217
8.16407
7.43077
7.23251
7.27797
7.47294
7.7682
8.13827
8.5685
9.04986
9.57645
10.1444
10.7511
11.3949
12.0751
12.7917
13.5452
14.3364
15.1666
16.0372
16.9486
17.902
18.8994
19.9421
21.032
22.1704
23.3587
24.6002
25.8964
27.249
28.6599
30.1312
31.6649
33.2632
34.9282
36.6622
38.4676
40.3466
42.3019
44.3361
46.4518
48.6519
50.9392
53.3167
55.7876
58.3548
61.0217
63.7914
66.6672
69.6525
72.7505
75.9645
79.2977
82.7532
86.3342
90.0434
93.8836
97.8573
101.967
106.215
110.602
115.13
119.801
124.615
129.572
134.672
139.915
145.3
150.824
156.485
162.282
168.209
174.265
180.443
186.738
193.145
199.658
206.267
212.967
219.748
226.601
233.517
240.484
247.492
254.53
261.584
268.642
275.692
282.721
289.713
296.656
303.535
310.335
317.043
323.643
330.123
336.468
342.664
348.7
354.563
360.24
365.721
370.995
376.052
380.88
385.469
389.81
393.894
397.711
401.255
404.52
407.5
410.193
412.597
414.712
416.539
418.081
419.341
420.323
421.032
421.474
421.65
421.574
421.252
420.693
419.906
418.903
417.692
416.284
414.684
412.899
410.932
408.784
406.453
403.931
401.205
398.26
395.075
391.627
387.894
383.853
379.48
374.756
369.665
364.198
358.353
352.138
345.565
338.656
331.436
323.936
316.187
308.225
300.088
291.817
283.457
275.056
266.659
258.312
250.056
241.929
233.966
226.196
218.644
211.33
204.269
197.475
190.954
184.712
178.75
173.069
167.669
162.549
157.709
153.153
148.883
144.909
141.223
137.594
23.3193
11.0575
8.53973
7.72899
7.48599
7.49865
7.66724
7.93965
8.28894
8.6998
9.16286
9.67229
10.2243
10.8167
11.4469
12.1144
12.8196
13.5631
14.3457
15.1689
16.0345
16.9416
17.8921
18.8877
19.9303
21.0216
22.1631
23.3564
24.6067
25.9143
27.2803
28.7087
30.2024
31.7638
33.3955
35.1002
36.8806
38.7395
40.6798
42.7045
44.8168
47.02
49.3174
51.7125
54.209
56.8104
59.5207
62.3435
65.2828
68.3425
71.5266
74.8389
78.2833
81.8636
85.5835
89.4466
93.4561
97.6154
101.927
106.394
111.019
115.803
120.748
125.855
131.126
136.559
142.155
147.912
153.83
159.905
166.136
172.518
179.048
185.72
192.529
199.469
206.533
213.712
220.999
228.384
235.857
243.408
251.025
258.696
266.409
274.151
281.907
289.663
297.405
305.117
312.785
320.391
327.92
335.355
342.68
349.879
356.936
363.835
370.562
377.102
383.441
389.566
395.466
401.127
406.538
411.686
416.56
421.148
425.439
429.422
433.089
436.431
439.443
442.121
444.463
446.466
448.134
449.467
450.469
451.144
451.496
451.53
451.253
450.676
449.811
448.668
447.261
445.601
443.705
441.585
439.254
436.725
434.008
431.109
428.034
424.782
421.349
417.722
413.89
409.833
405.532
400.965
396.111
390.949
385.46
379.631
373.458
366.942
360.092
352.924
345.456
337.714
329.725
321.521
313.138
304.614
295.994
287.323
278.649
270.017
261.47
253.048
244.786
236.716
228.865
221.256
213.904
206.825
200.027
193.516
187.295
181.365
175.726
170.377
165.317
160.548
156.07
151.888
147.985
144.125
24.045
11.4435
8.80723
7.93447
7.65236
7.63715
7.78158
8.0332
8.36377
8.75749
9.20389
9.69742
10.2348
10.8145
11.4333
12.0909
12.7871
13.5226
14.298
15.1146
15.9732
16.8752
17.8226
18.8174
19.8617
20.9577
22.1073
23.3126
24.5759
25.9002
27.2852
28.738
30.2614
31.859
33.5345
35.2908
37.1313
39.0594
41.0784
43.1921
45.4042
47.7187
50.1397
52.6714
55.318
58.084
60.9739
63.9921
67.1432
70.4319
73.8627
77.4401
81.1686
85.0525
89.0961
93.3033
97.6778
102.223
106.942
111.838
116.914
122.17
127.608
133.23
139.035
145.024
151.195
157.547
164.077
170.782
177.659
184.703
191.909
199.27
206.78
214.431
222.214
230.121
238.14
246.262
254.475
262.766
271.123
279.533
287.98
296.449
304.926
313.395
321.838
330.24
338.582
346.848
355.019
363.076
371.003
378.78
386.391
393.818
401.044
408.055
414.835
421.371
427.648
433.655
439.376
444.8
449.912
454.7
459.15
463.25
466.99
470.36
473.352
475.962
478.187
480.024
481.476
482.543
483.229
483.537
483.47
483.033
482.232
481.087
479.608
477.806
475.697
473.298
470.629
467.706
464.551
461.18
457.613
453.863
449.945
445.865
441.628
437.23
432.664
427.918
422.976
417.821
412.431
406.787
400.865
394.652
388.138
381.32
374.202
366.792
359.106
351.16
342.977
334.582
326.007
317.286
308.461
299.575
290.676
281.808
273.015
264.338
255.815
247.478
239.356
231.475
223.852
216.505
209.442
202.672
196.199
190.024
184.148
178.569
173.286
168.299
163.608
159.212
155.089
151.005
24.4782
11.6971
8.97837
8.0579
7.74284
7.70437
7.82862
8.06188
8.3758
8.75501
9.18852
9.67019
10.196
10.763
11.3692
12.0153
12.7016
13.4286
14.1973
15.0092
15.866
16.7688
17.7196
18.7207
19.7747
20.8847
22.0517
23.2781
24.567
25.9206
27.3404
28.8337
30.4053
32.0591
33.7991
35.6295
37.5551
39.5803
41.709
43.9454
46.2942
48.7601
51.3481
54.0632
56.9105
59.8952
63.0226
66.2978
69.7261
73.3128
77.0631
80.982
85.0745
89.3453
93.799
98.4397
103.271
108.297
113.521
118.945
124.57
130.399
136.433
142.671
149.113
155.758
162.604
169.648
176.886
184.314
191.927
199.718
207.681
215.808
224.09
232.518
241.081
249.768
258.568
267.468
276.454
285.513
294.63
303.79
312.976
322.172
331.361
340.526
349.649
358.711
367.694
376.578
385.345
393.974
402.446
410.742
418.842
426.728
434.383
441.789
448.933
455.798
462.372
468.64
474.589
480.203
485.469
490.372
494.896
499.027
502.754
506.066
508.953
511.41
513.434
515.021
516.173
516.892
517.181
517.04
516.468
515.471
514.068
512.271
510.091
507.544
504.646
501.418
497.882
494.064
489.987
485.679
481.162
476.462
471.601
466.597
461.461
456.201
450.816
445.302
439.648
433.842
427.865
421.696
415.312
408.695
401.832
394.716
387.347
379.727
371.862
363.763
355.444
346.923
338.224
329.377
320.418
311.389
302.333
293.295
284.318
275.444
266.711
258.154
249.805
241.69
233.83
226.242
218.94
211.932
205.224
198.818
192.714
186.913
181.413
176.213
171.309
166.7
162.359
158.061
24.5746
11.8115
9.05775
8.10898
7.77014
7.71362
7.8229
8.0429
8.34423
8.70979
9.12933
9.59808
10.1126
10.6709
11.2719
11.9147
12.5996
13.3274
14.0993
14.9171
15.7833
16.6985
17.6647
18.6849
19.7619
20.8981
22.0937
23.3543
24.6842
26.0879
27.5699
29.1353
30.7889
32.5358
34.381
36.3296
38.3873
40.5598
42.8521
45.2696
47.8179
50.5029
53.3306
56.307
59.4381
62.7299
66.1882
69.819
73.6281
77.6213
81.8041
86.182
90.76
95.543
100.535
105.741
111.164
116.806
122.671
128.759
135.073
141.612
148.376
155.364
162.573
170.001
177.644
185.497
193.556
201.812
210.259
218.889
227.693
236.66
245.78
255.041
264.431
273.936
283.543
293.237
303.003
312.826
322.688
332.574
342.465
352.344
362.193
371.992
381.724
391.368
400.905
410.315
419.578
428.674
437.581
446.28
454.75
462.973
470.93
478.604
485.979
493.042
499.778
506.174
512.215
517.887
523.173
528.058
532.524
536.557
540.143
543.268
545.924
548.104
549.805
551.022
551.757
552.014
551.796
551.086
549.895
548.241
546.132
543.581
540.601
537.208
533.423
529.268
524.77
519.959
514.865
509.521
503.96
498.215
492.318
486.299
480.177
473.972
467.69
461.337
454.909
448.398
441.792
435.068
428.202
421.173
413.966
406.569
398.979
391.191
383.203
375.016
366.635
358.068
349.331
340.447
331.444
322.358
313.231
304.105
295.022
286.024
277.15
268.437
259.917
251.619
243.568
235.782
228.276
221.061
214.145
207.53
201.22
195.214
189.509
184.105
178.997
174.182
169.631
165.132
24.5008
11.8185
9.06316
8.10349
7.75203
7.68376
7.77908
7.98532
8.27475
8.63165
9.04628
9.51254
10.0269
10.5877
11.1942
11.8455
12.5416
13.2838
14.0735
14.9124
15.8018
16.7428
17.7397
18.7963
19.9165
21.1043
22.3638
23.6994
25.1161
26.6193
28.2146
29.9075
31.704
33.6101
35.6321
37.7764
40.0497
42.4588
45.0102
47.7108
50.5676
53.5882
56.7801
60.1501
63.7049
67.4512
71.3951
75.5429
79.9005
84.4736
89.2678
94.288
99.5388
105.024
110.748
116.712
122.92
129.373
136.07
143.013
150.2
157.629
165.297
173.202
181.338
189.699
198.28
207.073
216.07
225.262
234.637
244.187
253.898
263.759
273.755
283.874
294.1
304.419
314.814
325.269
335.768
346.293
356.827
367.351
377.848
388.298
398.684
408.984
419.182
429.256
439.187
448.956
458.542
467.925
477.084
485.999
494.649
503.015
511.078
518.822
526.232
533.294
539.994
546.321
552.26
557.796
562.912
567.59
571.814
575.565
578.829
581.591
583.843
585.575
586.789
587.475
587.634
587.293
586.396
584.974
583.038
580.594
577.651
574.222
570.323
565.971
561.188
555.999
550.436
544.533
538.325
531.852
525.155
518.277
511.262
504.148
496.968
489.749
482.511
475.265
468.019
460.771
453.515
446.226
438.88
431.454
423.928
416.289
408.529
400.637
392.601
384.41
376.06
367.548
358.876
350.061
341.12
332.084
322.989
313.874
304.78
295.747
286.816
278.024
269.405
260.99
252.807
244.875
237.213
229.834
222.747
215.957
209.468
203.28
197.392
191.802
186.505
181.498
176.75
172.066
24.2741
11.7709
9.0262
8.05743
7.69372
7.61584
7.70575
7.91058
8.20178
8.56402
8.98709
9.46501
9.9946
10.574
11.2021
11.8767
12.6004
13.3754
14.2041
15.0894
16.0349
17.0436
18.1196
19.2677
20.4927
21.8001
23.1957
24.6854
26.2756
27.9728
29.7842
31.7168
33.7782
35.9759
38.3179
40.8121
43.466
46.2868
49.2835
52.465
55.8403
59.4188
63.2116
67.2251
71.4656
75.9389
80.6508
85.6063
90.8105
96.2676
101.982
107.955
114.192
120.692
127.456
134.486
141.779
149.334
157.147
165.216
173.536
182.101
190.904
199.939
209.196
218.667
228.343
238.211
248.261
258.48
268.855
279.372
290.018
300.776
311.632
322.569
333.572
344.623
355.706
366.802
377.895
388.967
400
410.975
421.874
432.679
443.372
453.933
464.345
474.589
484.647
494.499
504.128
513.513
522.635
531.475
540.013
548.229
556.106
563.628
570.78
577.551
583.93
589.904
595.461
600.585
605.259
609.464
613.181
616.392
619.08
621.228
622.835
623.878
624.378
624.303
623.691
622.486
620.722
618.401
615.527
612.108
608.154
603.679
598.699
593.232
587.303
580.941
574.179
567.058
559.619
551.906
543.97
535.861
527.638
519.35
511.039
502.745
494.5
486.326
478.237
470.24
462.31
454.453
446.649
438.87
431.093
423.302
415.47
407.568
399.584
391.5
383.297
374.959
366.477
357.857
349.103
340.239
331.293
322.305
313.309
304.345
295.453
286.672
278.037
269.581
261.334
253.32
245.558
238.064
230.85
223.924
217.29
210.95
204.904
199.15
193.682
188.499
183.57
178.72
23.77
11.6175
8.92195
7.96822
7.61594
7.55006
7.65549
7.87857
8.19076
8.57603
9.02395
9.53161
10.0971
10.7198
11.4004
12.1402
12.9412
13.8062
14.739
15.7441
16.8266
17.9918
19.2457
20.5948
22.0462
23.6074
25.2864
27.0917
29.0321
31.1164
33.3541
35.7548
38.3286
41.0851
44.0343
47.1859
50.5489
54.1327
57.9466
61.9999
66.3017
70.8612
75.6876
80.7912
86.1749
91.8407
97.7901
104.024
110.544
117.349
124.439
131.811
139.463
147.391
155.589
164.053
172.776
181.75
190.968
200.42
210.096
219.987
230.081
240.368
250.833
261.466
272.253
283.179
294.231
305.395
316.654
327.994
339.398
350.852
362.338
373.841
385.344
396.83
408.282
419.685
431.02
442.272
453.424
464.458
475.359
486.11
496.694
507.095
517.296
527.282
537.037
546.544
555.787
564.75
573.414
581.762
589.777
597.44
604.734
611.644
618.158
624.265
629.957
635.226
640.056
644.432
648.336
651.749
654.649
657.016
658.838
660.084
660.783
660.857
660.411
659.321
657.662
655.412
652.573
649.151
645.15
640.579
635.447
629.769
623.565
616.854
609.658
602.011
593.948
585.522
576.774
567.756
558.525
549.143
539.651
530.093
520.566
511.132
501.835
492.709
483.78
475.068
466.573
458.293
450.171
442.168
434.262
426.431
418.665
410.936
403.2
395.421
387.566
379.607
371.517
363.248
354.831
346.284
337.631
328.907
320.142
311.373
302.639
293.981
285.434
277.035
268.814
260.799
253.012
245.471
238.192
231.185
224.455
218.007
211.842
205.959
200.353
195.022
189.937
184.948
23.2044
11.3999
8.78979
7.88167
7.56587
7.53488
7.67413
7.9316
8.28458
8.72045
9.23214
9.8162
10.4719
11.2004
12.0042
12.8869
13.8529
14.9075
16.0571
17.309
18.6711
20.1523
21.7621
23.5107
25.4086
27.4671
29.6982
32.1138
34.7265
37.5486
40.5925
43.8704
47.3943
51.1755
55.2245
59.5511
64.1643
69.0723
74.2819
79.7994
85.6305
91.7798
98.2496
105.05
112.176
119.618
127.368
135.417
143.758
152.382
161.279
170.439
179.851
189.504
199.385
209.483
219.784
230.276
240.945
251.779
262.763
273.884
285.129
296.483
307.933
319.466
331.066
342.72
354.413
366.132
377.862
389.588
401.296
412.972
424.602
436.17
447.663
459.066
470.366
481.547
492.596
503.499
514.241
524.81
535.192
545.373
555.339
565.076
574.573
583.815
592.791
601.488
609.891
617.988
625.764
633.204
640.292
647.013
653.348
659.284
664.809
669.918
674.602
678.856
682.664
686.008
688.866
691.226
693.055
694.333
695.072
695.171
694.763
693.694
692.051