/*--------------------------------*- C++ -*----------------------------------*\
  =========                 |
  \\      /  F ield         | OpenFOAM: The Open Source CFD Toolbox
   \\    /   O peration     | Website:  https://openfoam.org
    \\  /    A nd           | Version:  8
     \\/     M anipulation  |
\*---------------------------------------------------------------------------*/
FoamFile
{
    version     2.0;
    format      ascii;
    class       volScalarField;
    location    "170";
    object      k;
}
// * * * * * * * * * * * * * * * * * * * * * * * * * * * * * * * * * * * * * //

dimensions      [0 2 -2 0 0 0 0];

internalField   nonuniform List<scalar> 
12225
(
0.362817
0.343991
0.327742
0.309822
0.29539
0.283495
0.275492
0.27029
0.270342
0.271879
0.276065
0.280692
0.289883
0.295924
0.306654
0.313467
0.324268
0.334295
0.440191
0.468695
0.461605
0.448369
0.450351
0.458315
0.474501
0.498638
0.524359
0.552247
0.580767
0.606329
0.63397
0.65412
0.680101
0.693606
0.718358
0.72969
0.390544
0.417869
0.420231
0.416824
0.411629
0.407803
0.408015
0.410038
0.414541
0.421432
0.430743
0.439748
0.451256
0.461214
0.473021
0.483723
0.493867
0.506696
0.377546
0.386981
0.391407
0.391342
0.390221
0.387896
0.385661
0.384081
0.382879
0.382896
0.383391
0.384329
0.386324
0.388484
0.390963
0.394321
0.39663
0.401212
0.374562
0.376089
0.378412
0.378665
0.378263
0.377205
0.375488
0.373737
0.372009
0.370453
0.369259
0.368105
0.367386
0.366812
0.366453
0.366366
0.366389
0.366772
0.373815
0.372709
0.372645
0.372384
0.371761
0.370816
0.369553
0.368082
0.366571
0.364975
0.363527
0.362061
0.360754
0.35953
0.358397
0.357433
0.35645
0.355804
0.373783
0.371742
0.370386
0.369287
0.368234
0.367113
0.365914
0.364586
0.363237
0.361807
0.36042
0.359022
0.357675
0.35638
0.355118
0.353965
0.352793
0.351806
0.37382
0.37156
0.369634
0.367976
0.3665
0.365107
0.363775
0.362429
0.361106
0.359765
0.358449
0.357142
0.355861
0.354619
0.353397
0.352246
0.351095
0.350049
0.373832
0.371553
0.369449
0.367525
0.365776
0.364153
0.362644
0.361198
0.359816
0.358472
0.357168
0.355901
0.354665
0.353472
0.352304
0.351192
0.350093
0.349069
0.373831
0.37156
0.369418
0.367405
0.365529
0.363772
0.362132
0.360585
0.359121
0.357727
0.356393
0.355116
0.353886
0.352707
0.351566
0.350478
0.349416
0.348417
0.373829
0.37156
0.369413
0.367378
0.365458
0.363645
0.361937
0.360323
0.358798
0.357352
0.355978
0.354671
0.353423
0.352233
0.351092
0.350006
0.348956
0.347966
0.373828
0.371558
0.369409
0.36737
0.365439
0.363609
0.361875
0.360233
0.358677
0.357201
0.355799
0.354467
0.353199
0.351993
0.35084
0.349745
0.348693
0.347699
0.373827
0.371556
0.369405
0.367365
0.36543
0.363593
0.361851
0.360196
0.358625
0.357133
0.355715
0.354367
0.353083
0.351863
0.350699
0.349593
0.348534
0.347531
0.373827
0.371555
0.369401
0.36736
0.365422
0.363583
0.361837
0.360177
0.3586
0.357101
0.355674
0.354316
0.353024
0.351794
0.350621
0.349505
0.34844
0.347427
0.373826
0.371553
0.369398
0.367355
0.365416
0.363575
0.361826
0.360164
0.358584
0.357081
0.355651
0.354289
0.352992
0.351758
0.35058
0.349459
0.348388
0.347369
0.373826
0.371552
0.369396
0.367351
0.36541
0.363568
0.361817
0.360154
0.358572
0.357067
0.355634
0.354271
0.352972
0.351734
0.350555
0.34943
0.348357
0.347335
0.373825
0.371551
0.369394
0.367348
0.365406
0.363562
0.36181
0.360145
0.358562
0.357055
0.355622
0.354256
0.352956
0.351717
0.350535
0.349409
0.348335
0.34731
0.373825
0.371551
0.369393
0.367346
0.365403
0.363558
0.361805
0.360139
0.358555
0.357047
0.355612
0.354246
0.352944
0.351704
0.350521
0.349394
0.348318
0.347292
0.373825
0.37155
0.369393
0.367346
0.365402
0.363557
0.361804
0.360137
0.358552
0.357044
0.355608
0.354241
0.352939
0.351698
0.350514
0.349386
0.34831
0.347282
0.373825
0.371551
0.369393
0.367347
0.365404
0.363559
0.361806
0.36014
0.358555
0.357047
0.355612
0.354245
0.352943
0.351701
0.350518
0.34939
0.348314
0.347286
0.373825
0.371551
0.369395
0.367349
0.365407
0.363563
0.361811
0.360146
0.358562
0.357056
0.355622
0.354256
0.352956
0.351716
0.350535
0.349409
0.348334
0.347309
0.373826
0.371552
0.369397
0.367352
0.365412
0.363571
0.361822
0.360162
0.358584
0.357084
0.355657
0.354299
0.353007
0.351776
0.350603
0.349485
0.348419
0.3474
0.373826
0.371554
0.369399
0.367359
0.365429
0.363603
0.361875
0.36024
0.358691
0.357221
0.355824
0.354494
0.353228
0.35202
0.350867
0.349764
0.348712
0.347702
0.373828
0.371551
0.369412
0.367417
0.365556
0.36382
0.36219
0.360651
0.359189
0.357794
0.356457
0.355172
0.353937
0.352746
0.351602
0.350497
0.349437
0.348411
0.373823
0.371554
0.369604
0.367893
0.366339
0.364892
0.363495
0.362122
0.360762
0.359414
0.358081
0.35677
0.355489
0.354239
0.35303
0.351856
0.350735
0.349646
0.373788
0.371991
0.371113
0.370266
0.36936
0.368312
0.367048
0.36563
0.364121
0.362576
0.361031
0.359523
0.358074
0.356683
0.355382
0.354142
0.35301
0.351925
0.374355
0.375572
0.377775
0.377858
0.377288
0.375886
0.373835
0.371641
0.369505
0.367482
0.365664
0.364084
0.36271
0.361534
0.360609
0.359817
0.359288
0.358799
0.379125
0.394296
0.398249
0.396573
0.392538
0.387603
0.383645
0.380448
0.378267
0.376852
0.376495
0.376738
0.377412
0.378686
0.380436
0.382416
0.384819
0.387129
0.408394
0.42754
0.422415
0.411055
0.402226
0.397922
0.398623
0.400959
0.406064
0.413047
0.420989
0.429815
0.43882
0.448171
0.457285
0.466526
0.475293
0.484149
0.36605
0.353416
0.341988
0.33021
0.318982
0.308381
0.299411
0.291671
0.285404
0.280333
0.276681
0.273865
0.272309
0.27117
0.271206
0.271466
0.272181
0.27338
0.00317814
0.0132046
0.0224078
0.0311549
0.0400896
0.0492124
0.0584962
0.0678289
0.077039
0.0859343
0.094332
0.10207
0.109022
0.115092
0.12024
0.12449
0.127388
0.129747
0.132389
0.134771
0.137048
0.140805
0.142836
0.143347
0.143012
0.140512
0.137507
0.137141
0.142981
0.146179
0.151779
0.141363
0.15439
0.160079
0.168623
0.176416
0.184719
0.19306
0.201601
0.210276
0.219111
0.228091
0.237229
0.246517
0.255964
0.265564
0.275327
0.285246
0.29533
0.305574
0.315983
0.326553
0.337287
0.34818
0.359235
0.370445
0.381811
0.393327
0.404992
0.416799
0.428745
0.440822
0.453027
0.465351
0.477787
0.490328
0.502965
0.515689
0.528491
0.541362
0.55429
0.567267
0.580277
0.593316
0.606363
0.619415
0.632451
0.645468
0.658443
0.671375
0.684239
0.697036
0.709741
0.722357
0.734855
0.747241
0.759485
0.771597
0.783552
0.795354
0.806985
0.81843
0.829677
0.840714
0.851529
0.862105
0.872433
0.882507
0.892356
0.90199
0.911337
0.920469
0.929379
0.938069
0.946539
0.954797
0.962841
0.970685
0.978324
0.985778
0.993036
1.00012
1.00702
1.01376
1.02032
1.02673
1.03297
1.03905
1.04497
1.05074
1.05633
1.06174
1.06693
1.0719
1.07661
1.08109
1.08528
1.08921
1.09282
1.09616
1.09919
1.10183
1.10394
1.10557
1.10645
1.10641
1.10634
1.10437
1.1019
1.09882
1.09464
1.08926
1.08271
1.07493
1.06585
1.05549
1.04384
1.03093
1.01669
1.00171
0.985505
0.968456
0.957384
0.94816
0.938382
0.92781
0.916487
0.904511
0.892014
0.879057
0.865766
0.852091
0.83815
0.824113
0.810048
0.796121
0.782362
0.768662
0.755055
0.741629
0.728474
0.715629
0.703097
0.690847
0.678838
0.666817
0.655085
0.641024
0.630177
0.591712
0.0111505
0.0325164
0.0461913
0.0569522
0.0667877
0.0764638
0.0862094
0.0960222
0.105788
0.11535
0.124553
0.133263
0.141377
0.148832
0.155614
0.161776
0.167463
0.173039
0.178973
0.185675
0.193138
0.200406
0.206944
0.213273
0.219962
0.228364
0.24055
0.25134
0.261164
0.271102
0.281226
0.291348
0.304563
0.317618
0.331333
0.34528
0.359584
0.374168
0.389042
0.404201
0.419651
0.435391
0.451425
0.467757
0.484392
0.501333
0.518586
0.536155
0.554045
0.572259
0.590801
0.609674
0.62888
0.648419
0.668293
0.6885
0.709041
0.729912
0.751111
0.772632
0.794472
0.816623
0.839079
0.86183
0.884868
0.90818
0.931756
0.955582
0.979645
1.00393
1.02842
1.05309
1.07794
1.10293
1.12805
1.15327
1.17858
1.20395
1.22936
1.25478
1.28018
1.30555
1.33086
1.35608
1.38118
1.40615
1.43096
1.45558
1.48
1.50419
1.52813
1.55179
1.57515
1.59819
1.62088
1.6432
1.66511
1.68657
1.70753
1.72796
1.74798
1.76762
1.78688
1.80577
1.82428
1.84244
1.86024
1.87769
1.89483
1.91165
1.92818
1.94443
1.96043
1.9762
1.99174
2.00709
2.02226
2.03726
2.05212
2.06684
2.08143
2.09587
2.11014
2.12422
2.13811
2.15178
2.16522
2.17839
2.19127
2.20383
2.21608
2.22811
2.23942
2.24996
2.25961
2.26795
2.27496
2.28029
2.28314
2.28471
2.28445
2.28197
2.27704
2.26958
2.25948
2.24669
2.23118
2.21295
2.192
2.16847
2.14278
2.11467
2.08492
2.05345
2.02016
1.9853
1.94916
1.91201
1.87413
1.83577
1.79713
1.758
1.71863
1.67952
1.64091
1.60303
1.566
1.52985
1.4944
1.45982
1.42627
1.39382
1.36246
1.33217
1.30285
1.27438
1.24669
1.21872
1.19427
1.13494
0.0210233
0.0509804
0.0679459
0.0808844
0.0923865
0.103358
0.114171
0.12495
0.135686
0.146308
0.156726
0.166861
0.176665
0.186128
0.195296
0.20428
0.213273
0.222531
0.232292
0.242658
0.253478
0.26453
0.275784
0.287489
0.299954
0.313462
0.327875
0.342299
0.356841
0.371681
0.386985
0.402905
0.419655
0.436818
0.45441
0.472379
0.490716
0.50941
0.528463
0.547874
0.567648
0.587787
0.608295
0.629177
0.650437
0.67208
0.694111
0.716535
0.739356
0.762577
0.786204
0.810236
0.834678
0.85953
0.884791
0.910461
0.936538
0.963019
0.9899
1.01718
1.04484
1.07289
1.1013
1.13009
1.15922
1.18869
1.21848
1.24859
1.27898
1.30965
1.34058
1.37174
1.40312
1.43468
1.46641
1.49828
1.53026
1.56232
1.59444
1.62658
1.65871
1.69081
1.72283
1.75476
1.78655
1.81817
1.84959
1.88078
1.91171
1.94234
1.97265
2.0026
2.03217
2.06131
2.09001
2.11823
2.14595
2.17315
2.19982
2.22596
2.25159
2.27668
2.30125
2.32528
2.34879
2.37176
2.39421
2.41616
2.43761
2.45858
2.47909
2.49915
2.51881
2.53807
2.55697
2.57552
2.59376
2.61171
2.62939
2.64682
2.66401
2.68095
2.69764
2.71407
2.73022
2.74608
2.76164
2.77683
2.79163
2.80596
2.81975
2.8329
2.8452
2.8565
2.86665
2.87528
2.88223
2.88692
2.88922
2.88958
2.88763
2.88295
2.87533
2.8646
2.85063
2.83334
2.81268
2.78863
2.76123
2.73061
2.69725
2.66141
2.62331
2.58299
2.54058
2.49634
2.4506
2.40369
2.35593
2.30761
2.25898
2.21019
2.16145
2.11308
2.06532
2.01837
1.9724
1.92749
1.88329
1.84019
1.79838
1.75791
1.7188
1.68105
1.64458
1.60928
1.57517
1.54178
1.5123
1.45966
0.0311873
0.0679693
0.0881275
0.103127
0.116141
0.128299
0.140109
0.151801
0.163459
0.175086
0.186656
0.198135
0.209511
0.2208
0.232056
0.243376
0.254893
0.266751
0.279074
0.291916
0.305249
0.319007
0.333202
0.347937
0.363327
0.379432
0.396174
0.413383
0.431021
0.449105
0.467673
0.486749
0.506332
0.526352
0.546797
0.567654
0.588917
0.610583
0.632654
0.655134
0.678026
0.701335
0.725067
0.749228
0.773822
0.798856
0.824336
0.850266
0.876653
0.9035
0.930813
0.958594
0.986846
1.01557
1.04477
1.07444
1.10459
1.1352
1.16629
1.19783
1.22983
1.26227
1.29516
1.32847
1.36221
1.39634
1.43087
1.46577
1.50102
1.53661
1.57252
1.60871
1.64518
1.68188
1.7188
1.75589
1.79315
1.83052
1.86797
1.90548
1.943
1.9805
2.01794
2.05527
2.09247
2.12948
2.16628
2.20281
2.23904
2.27493
2.31045
2.34554
2.38018
2.41432
2.44794
2.481
2.51348
2.54535
2.57659
2.60719
2.63714
2.66641
2.695
2.72289
2.75009
2.77659
2.8024
2.82751
2.85195
2.87572
2.89883
2.92132
2.9432
2.9645
2.98525
3.00547
3.0252
3.04447
3.06329
3.08171
3.09973
3.11736
3.1346
3.15146
3.16792
3.18399
3.19963
3.21481
3.22948
3.24357
3.25699
3.26962
3.28129
3.29182
3.30103
3.30866
3.31431
3.31751
3.31849
3.31724
3.31332
3.30641
3.29628
3.28272
3.2656
3.2448
3.22024
3.19197
3.16008
3.12477
3.08639
3.04525
3.00152
2.95535
2.90691
2.85652
2.8045
2.7512
2.69697
2.64213
2.58697
2.53173
2.47666
2.42204
2.36811
2.31506
2.26307
2.21226
2.16259
2.1142
2.06721
2.02171
1.97772
1.93525
1.89422
1.85459
1.81647
1.77976
1.74615
1.69864
0.0409968
0.0836567
0.106807
0.123809
0.138306
0.151622
0.16439
0.176933
0.189413
0.201904
0.214436
0.227017
0.239659
0.252391
0.26526
0.278339
0.291715
0.305481
0.31971
0.334443
0.349686
0.365438
0.381713
0.398553
0.416002
0.434083
0.452777
0.472041
0.491837
0.512145
0.532958
0.554261
0.576038
0.598267
0.620944
0.644064
0.667628
0.691636
0.716094
0.741006
0.766379
0.792217
0.818528
0.845319
0.872597
0.900369
0.928641
0.957422
0.986717
1.01653
1.04687
1.07775
1.10915
1.1411
1.17358
1.20661
1.24017
1.27428
1.30893
1.3441
1.37981
1.41603
1.45277
1.49002
1.52775
1.56596
1.60464
1.64376
1.68331
1.72326
1.76359
1.80429
1.84531
1.88664
1.92824
1.97007
2.01211
2.05432
2.09665
2.13907
2.18154
2.22401
2.26643
2.30876
2.35096
2.39297
2.43475
2.47624
2.51741
2.5582
2.59856
2.63844
2.6778
2.7166
2.75479
2.79233
2.82919
2.86533
2.90072
2.93533
2.96914
3.00212
3.03425
3.06552
3.09591
3.12541
3.15403
3.18175
3.20858
3.23453
3.25961
3.28385
3.30725
3.32986
3.35169
3.37277
3.39315
3.41285
3.43191
3.45037
3.46823
3.48554
3.50229
3.5185
3.53417
3.54932
3.56392
3.57795
3.59138
3.60414
3.61614
3.62729
3.63741
3.64635
3.6539
3.65985
3.66364
3.66516
3.66446
3.66136
3.65547
3.64647
3.63412
3.61819
3.59851
3.57496
3.5475
3.51617
3.4811
3.44247
3.40056
3.35564
3.30791
3.25754
3.20478
3.14993
3.09333
3.03535
2.97635
2.91666
2.85662
2.79651
2.7366
2.67718
2.61849
2.56073
2.5041
2.44872
2.39467
2.34205
2.29094
2.24144
2.19357
2.14739
2.10288
2.06005
2.019
1.9798
1.94315
1.89766
0.0501698
0.0978071
0.123667
0.142545
0.158458
0.17289
0.186575
0.199908
0.213119
0.226338
0.239643
0.253081
0.266688
0.280503
0.294573
0.308952
0.323702
0.338886
0.354555
0.370744
0.387475
0.404759
0.422609
0.441041
0.460075
0.47972
0.499972
0.520816
0.542228
0.564189
0.586678
0.609679
0.633177
0.657161
0.681629
0.706582
0.73202
0.757949
0.784373
0.811298
0.838731
0.866681
0.895154
0.92416
0.953706
0.983802
1.01446
1.04568
1.07748
1.10986
1.14283
1.17639
1.21056
1.24534
1.28073
1.31673
1.35335
1.39059
1.42844
1.4669
1.50597
1.54564
1.58591
1.62677
1.66819
1.71018
1.75271
1.79577
1.83933
1.88338
1.92789
1.97284
2.01819
2.06391
2.10997
2.15633
2.20295
2.2498
2.29682
2.34398
2.39122
2.43849
2.48575
2.53293
2.57999
2.62686
2.6735
2.71983
2.76581
2.81137
2.85646
2.90102
2.94499
2.98832
3.03096
3.07284
3.11394
3.15419
3.19355
3.23199
3.26947
3.30595
3.3414
3.3758
3.40913
3.44136
3.47249
3.5025
3.53139
3.55917
3.58583
3.61139
3.63587
3.6593
3.68169
3.70309
3.72354
3.74306
3.76171
3.77951
3.79651
3.81273
3.82821
3.84296
3.85702
3.8704
3.8831
3.89513
3.90646
3.91705
3.92684
3.93572
3.94358
3.95026
3.95558
3.95922
3.96085
3.96043
3.95785
3.95281
3.94496
3.93401
3.9197
3.90178
3.88007
3.85448
3.82495
3.79153
3.75429
3.71342
3.66912
3.62164
3.57115
3.51788
3.46207
3.40404
3.34412
3.28269
3.22013
3.15678
3.093
3.0291
2.96539
2.90214
2.83962
2.77806
2.71765
2.65854
2.60086
2.54469
2.49014
2.43728
2.38618
2.33688
2.28943
2.24387
2.20031
2.15887
2.11968
2.0747
0.0584587
0.110214
0.138441
0.158997
0.176206
0.191681
0.206224
0.220292
0.23416
0.248006
0.261947
0.276063
0.290412
0.305046
0.320014
0.335364
0.351144
0.3674
0.384172
0.401489
0.419372
0.437833
0.456882
0.476529
0.496782
0.517644
0.539113
0.561182
0.583838
0.607066
0.630853
0.655185
0.680052
0.705448
0.73137
0.757821
0.784804
0.812323
0.840386
0.868999
0.898172
0.927912
0.95823
0.989136
1.02064
1.05275
1.08549
1.11885
1.15285
1.18751
1.22282
1.25881
1.29546
1.33281
1.37084
1.40956
1.44898
1.48911
1.52993
1.57145
1.61367
1.65657
1.70016
1.74443
1.78936
1.83494
1.88116
1.92799
1.97542
2.02342
2.07196
2.12102
2.17057
2.22056
2.27097
2.32175
2.37286
2.42425
2.47588
2.52769
2.57963
2.63164
2.68367
2.73564
2.7875
2.83919
2.89063
2.94176
2.9925
3.0428
3.09259
3.14179
3.19033
3.23814
3.28517
3.33135
3.37661
3.42091
3.46417
3.50635
3.5474
3.58727
3.62593
3.66333
3.69945
3.73426
3.76772
3.79983
3.83056
3.85992
3.88789
3.91449
3.93974
3.96364
3.98623
4.00754
4.02761
4.04648
4.06421
4.08083
4.09639
4.11094
4.12452
4.13716
4.14892
4.15983
4.16992
4.17922
4.18772
4.19543
4.20229
4.20823
4.21318
4.21703
4.21952
4.22044
4.21961
4.21695
4.21219
4.20506
4.19525
4.18245
4.1664
4.14687
4.12366
4.09665
4.06579
4.03106
3.99255
3.95036
3.90468
3.85567
3.80353
3.74846
3.69071
3.63059
3.56843
3.50461
3.43951
3.37348
3.30691
3.24012
3.17343
3.10716
3.04157
2.9769
2.91338
2.85117
2.79042
2.73125
2.67375
2.61801
2.56411
2.51212
2.4621
2.41414
2.36833
2.32482
2.2834
2.23801
0.0656887
0.120751
0.150967
0.172965
0.191313
0.207725
0.223055
0.237797
0.252265
0.266669
0.281154
0.295825
0.310763
0.32603
0.341679
0.357757
0.374307
0.391367
0.408967
0.427133
0.445881
0.465225
0.485173
0.50573
0.526901
0.548686
0.571086
0.594095
0.617708
0.641916
0.666712
0.692088
0.718039
0.744562
0.771657
0.799327
0.827577
0.856412
0.885842
0.915874
0.94652
0.97779
1.00969
1.04225
1.07546
1.10935
1.14392
1.17919
1.21517
1.25187
1.28931
1.32749
1.36643
1.40614
1.44662
1.48788
1.52993
1.57276
1.61639
1.66081
1.70602
1.75202
1.79879
1.84634
1.89465
1.9437
1.99349
2.04399
2.09517
2.14702
2.19951
2.2526
2.30626
2.36045
2.41514
2.47027
2.5258
2.58168
2.63786
2.69427
2.75085
2.80755
2.8643
2.92102
2.97765
3.03411
3.09032
3.14621
3.2017
3.25671
3.31116
3.36496
3.41804
3.47031
3.5217
3.57213
3.62152
3.66981
3.71691
3.76278
3.80733
3.85053
3.89231
3.93263
3.97144
4.00871
4.04439
4.07845
4.11087
4.14164
4.17074
4.19817
4.22393
4.24805
4.27055
4.29146
4.31082
4.32868
4.34508
4.36009
4.37376
4.38614
4.39729
4.40727
4.41615
4.42398
4.43083
4.43674
4.44177
4.44593
4.44921
4.45158
4.45302
4.45338
4.45251
4.45033
4.44666
4.44134
4.43411
4.42473
4.41289
4.39832
4.38074
4.35991
4.33564
4.30777
4.2762
4.2409
4.2019
4.15925
4.11308
4.06352
4.01073
3.95489
3.89624
3.83505
3.77167
3.70644
3.63974
3.57196
3.50346
3.4346
3.36572
3.29714
3.22915
3.16201
3.09597
3.0312
2.96788
2.90615
2.84612
2.7879
2.73156
2.67721
2.62491
2.57478
2.52692
2.48144
2.43796
2.39165
0.0717525
0.129376
0.161201
0.184389
0.203703
0.220929
0.236957
0.252309
0.267321
0.282223
0.297183
0.312323
0.327737
0.343498
0.359665
0.376287
0.393403
0.411048
0.429249
0.448027
0.4674
0.487379
0.507972
0.529184
0.551019
0.573478
0.596563
0.620271
0.644602
0.669551
0.695117
0.721297
0.748091
0.7755
0.803526
0.832175
0.861454
0.891371
0.921936
0.953159
0.985054
1.01763
1.05091
1.0849
1.11961
1.15507
1.19128
1.22827
1.26605
1.30462
1.34402
1.38424
1.4253
1.46722
1.51001
1.55367
1.59821
1.64363
1.68994
1.73715
1.78525
1.83423
1.88409
1.93483
1.98643
2.03888
2.09216
2.14624
2.20112
2.25675
2.31311
2.37017
2.42788
2.48621
2.54511
2.60453
2.66442
2.72472
2.78538
2.84634
2.90751
2.96884
3.03025
3.09166
3.15299
3.21416
3.27509
3.33568
3.39585
3.4555
3.51455
3.5729
3.63045
3.68712
3.74281
3.79742
3.85087
3.90308
3.95396
4.00344
4.05143
4.09787
4.14269
4.18583
4.22725
4.26687
4.30465
4.34056
4.37454
4.40658
4.43665
4.46473
4.49083
4.51496
4.53714
4.5574
4.57577
4.59232
4.60709
4.62014
4.63153
4.64133
4.64961
4.65646
4.66195
4.66617
4.66921
4.67117
4.67211
4.67211
4.67118
4.66933
4.66661
4.66294
4.65825
4.65245
4.64542
4.63701
4.62699
4.61514
4.60118
4.58485
4.56587
4.544
4.51901
4.49073
4.459
4.42376
4.38498
4.34266
4.29686
4.24767
4.19519
4.13957
4.081
4.01976
3.95613
3.89046
3.82311
3.75447
3.6849
3.61479
3.54447
3.47429
3.40456
3.33556
3.26755
3.20075
3.13534
3.07148
3.00932
2.94896
2.89051
2.83408
2.77976
2.72766
2.6779
2.63055
2.58515
2.53766
0.0766066
0.136129
0.169201
0.193335
0.213433
0.23134
0.247967
0.263851
0.279341
0.294682
0.310051
0.325584
0.341383
0.357528
0.374083
0.391098
0.408614
0.426665
0.445276
0.464469
0.48426
0.504664
0.525688
0.54734
0.569623
0.592542
0.6161
0.640298
0.665139
0.690623
0.716754
0.743533
0.770964
0.799052
0.827804
0.857229
0.887335
0.918134
0.949639
0.981862
1.01482
1.04853
1.083
1.11825
1.15431
1.19118
1.22888
1.26744
1.30688
1.3472
1.38842
1.43056
1.47364
1.51767
1.56267
1.60863
1.65557
1.70351
1.75243
1.80235
1.85327
1.90518
1.95807
2.01194
2.06678
2.12256
2.17928
2.2369
2.29541
2.35477
2.41495
2.47591
2.53762
2.60002
2.66307
2.72671
2.79088
2.85554
2.9206
2.986
3.05167
3.11753
3.1835
3.24949
3.31542
3.38119
3.44671
3.51188
3.57661
3.64079
3.70432
3.76709
3.829
3.88993
3.94979
4.00847
4.06586
4.12187
4.1764
4.22935
4.28065
4.33021
4.37795
4.4238
4.46769
4.50955
4.54931
4.58693
4.62234
4.6555
4.68639
4.71497
4.74124
4.7652
4.78686
4.80625
4.82342
4.8384
4.85126
4.86206
4.87087
4.87775
4.8828
4.8861
4.88778
4.88791
4.88664
4.88409
4.88039
4.87563
4.8699
4.86328
4.85582
4.84754
4.83843
4.82847
4.81757
4.80562
4.79245
4.77787
4.76162
4.74347
4.72314
4.70038
4.67493
4.64658
4.61515
4.58052
4.54259
4.50132
4.4567
4.40874
4.3575
4.30307
4.24559
4.18527
4.12239
4.05726
3.99021
3.92163
3.85187
3.78132
3.71034
3.63929
3.56849
3.49826
3.42886
3.36055
3.29353
3.22799
3.16409
3.10195
3.04171
2.98348
2.92737
2.87351
2.822
2.77289
2.72568
2.6769
0.0802647
0.141109
0.175098
0.199947
0.220655
0.239104
0.256218
0.272543
0.288435
0.304144
0.319853
0.335702
0.351799
0.368229
0.38506
0.402343
0.42012
0.438426
0.457289
0.47673
0.496768
0.517419
0.538694
0.560602
0.583151
0.606347
0.630197
0.654705
0.679879
0.705724
0.732247
0.759451
0.787348
0.815944
0.845252
0.875284
0.906054
0.937576
0.969865
1.00294
1.03682
1.07151
1.10705
1.14345
1.18072
1.2189
1.258
1.29804
1.33904
1.38103
1.42401
1.46801
1.51305
1.55914
1.60629
1.65452
1.70384
1.75425
1.80576
1.85838
1.91209
1.9669
2.0228
2.07978
2.13783
2.19693
2.25705
2.31818
2.38029
2.44333
2.50728
2.57209
2.63772
2.70411
2.77122
2.83898
2.90734
2.97622
3.04556
3.11528
3.18529
3.25552
3.32589
3.39628
3.46662
3.5368
3.60672
3.67628
3.74536
3.81385
3.88164
3.94861
4.01465
4.07964
4.14345
4.20598
4.26709
4.32669
4.38466
4.4409
4.4953
4.54779
4.59825
4.64662
4.6928
4.73671
4.77827
4.81742
4.85409
4.88821
4.91973
4.94863
4.97489
4.99848
5.01944
5.03776
5.05351
5.06671
5.07743
5.08573
5.09168
5.09536
5.09686
5.09627
5.09374
5.08938
5.08338
5.07587
5.06702
5.05699
5.04592
5.03394
5.02117
5.0077
4.99361
4.97892
4.96364
4.9477
4.93099
4.91335
4.89459
4.87448
4.85276
4.82916
4.8034
4.77525
4.74448
4.71092
4.67441
4.63485
4.59215
4.54626
4.49717
4.44487
4.38946
4.33109
4.26997
4.20637
4.1406
4.07302
4.00398
3.93387
3.86304
3.79188
3.72073
3.64992
3.57974
3.51048
3.44236
3.37559
3.31036
3.24683
3.18512
3.12539
3.06775
3.01233
2.95924
2.9085
2.85961
2.80954
0.0827669
0.144449
0.179065
0.20442
0.22557
0.244421
0.261905
0.278571
0.294775
0.310769
0.326737
0.342821
0.35913
0.375752
0.392756
0.410195
0.428115
0.44655
0.465532
0.485083
0.505226
0.525979
0.547355
0.569368
0.59203
0.615353
0.639346
0.664021
0.689386
0.715453
0.74223
0.769726
0.797955
0.82693
0.856667
0.887184
0.9185
0.950632
0.983602
1.01743
1.05214
1.08774
1.12427
1.16175
1.20019
1.23963
1.28009
1.32158
1.36414
1.40777
1.45252
1.49838
1.54539
1.59355
1.64289
1.69342
1.74514
1.79806
1.85218
1.90752
1.96406
2.0218
2.08073
2.14084
2.20211
2.26452
2.32805
2.39267
2.45833
2.52502
2.59268
2.66126
2.73072
2.80101
2.87206
2.94381
3.01618
3.08912
3.16254
3.23636
3.3105
3.38486
3.45935
3.53388
3.60835
3.68263
3.75664
3.83025
3.90335
3.97582
4.04754
4.11838
4.18821
4.2569
4.32432
4.39035
4.45486
4.51771
4.5788
4.638
4.6952
4.7503
4.80319
4.85379
4.90198
4.94768
4.99079
5.03123
5.0689
5.10374
5.13568
5.16467
5.19069
5.2137
5.23373
5.25077
5.26488
5.27608
5.28444
5.29002
5.29288
5.29308
5.29078
5.28598
5.27892
5.26974
5.25862
5.24574
5.23132
5.21556
5.19865
5.18081
5.1622
5.14302
5.1234
5.10347
5.08329
5.06289
5.04223
5.02119
4.99963
4.97736
4.95413
4.92968
4.9037
4.87593
4.84611
4.814
4.77942
4.74216
4.70209
4.65908
4.61301
4.5638
4.51144
4.45602
4.39769
4.33665
4.27318
4.2076
4.14024
4.07146
4.00166
3.9312
3.86045
3.78977
3.71947
3.64985
3.58117
3.51368
3.44757
3.38304
3.32023
3.25931
3.20042
3.14368
3.08919
3.03699
2.98656
2.93529
0.0842632
0.146356
0.181311
0.206973
0.228406
0.247522
0.265257
0.282155
0.298572
0.314758
0.330897
0.34713
0.363566
0.380291
0.397376
0.414874
0.432833
0.45129
0.470279
0.489826
0.509958
0.530694
0.552055
0.574059
0.596722
0.620062
0.644093
0.668831
0.694291
0.720485
0.747428
0.775132
0.803615
0.832894
0.862989
0.893927
0.925733
0.958431
0.992046
1.0266
1.06212
1.09864
1.13617
1.17474
1.21439
1.25513
1.29699
1.34
1.38419
1.42956
1.47615
1.52398
1.57305
1.6234
1.67504
1.72796
1.78219
1.83773
1.89458
1.95274
2.0122
2.07295
2.13498
2.19827
2.26281
2.32856
2.3955
2.46358
2.53278
2.60304
2.67433
2.74659
2.81975
2.89377
2.96857
3.04409
3.12025
3.19698
3.27419
3.3518
3.42971
3.50783
3.58607
3.66432
3.74248
3.82043
3.89806
3.97526
4.05189
4.12785
4.20299
4.27718
4.35029
4.42219
4.49272
4.56176
4.62916
4.69479
4.75851
4.82021
4.87975
4.93703
4.99193
5.04434
5.09416
5.14126
5.18556
5.22693
5.26528
5.30051
5.33255
5.36134
5.38682
5.40898
5.4278
5.4433
5.45551
5.46448
5.47024
5.47287
5.47241
5.46894
5.46249
5.45326
5.4414
5.4271
5.41055
5.39198
5.37162
5.34973
5.32659
5.30245
5.27756
5.2522
5.22657
5.20092
5.1754
5.1501
5.12507
5.10028
5.07562
5.05097
5.02609
5.00072
4.97456
4.9473
4.91865
4.88834
4.85612
4.82174
4.78494
4.74558
4.70339
4.65819
4.60987
4.55844
4.50395
4.44654
4.38642
4.32387
4.2592
4.19273
4.12486
4.05597
3.98644
3.91664
3.84691
3.77759
3.70895
3.64127
3.57478
3.50969
3.44618
3.38443
3.32458
3.26679
3.21114
3.15767
3.1059
3.05354
0.0846059
0.146791
0.181948
0.207787
0.229377
0.248639
0.266509
0.283534
0.300065
0.31635
0.332569
0.34886
0.365331
0.38207
0.399144
0.416613
0.434524
0.452917
0.471828
0.491288
0.511328
0.531972
0.553247
0.575174
0.597777
0.621079
0.6451
0.669859
0.695377
0.721672
0.748764
0.77667
0.805411
0.835002
0.865453
0.896828
0.92916
0.962477
0.996805
1.03217
1.06861
1.10614
1.1448
1.18461
1.22561
1.26782
1.31127
1.356
1.40201
1.44933
1.49799
1.54799
1.59937
1.65213
1.70628
1.76183
1.81878
1.87714
1.9369
1.99805
2.06058
2.12448
2.18972
2.25629
2.32415
2.39327
2.46361
2.53513
2.60779
2.68153
2.7563
2.83204
2.90869
2.98618
3.06444
3.1434
3.22297
3.30308
3.38364
3.46455
3.54573
3.62708
3.70849
3.78987
3.8711
3.95207
4.03266
4.11276
4.19224
4.27098
4.34883
4.42567
4.50136
4.57575
4.64869
4.72005
4.78966
4.8574
4.92311
4.98666
5.04793
5.10678
5.16311
5.21678
5.26768
5.31568
5.36066
5.40249
5.44106
5.47625
5.50798
5.53615
5.56072
5.58165
5.59893
5.61256
5.62258
5.62901
5.63191
5.63135
5.62737
5.61988
5.60911
5.59519
5.57829
5.55862
5.53639
5.51186
5.48528
5.45698
5.42729
5.39651
5.365
5.33309
5.30106
5.26897
5.23735
5.20644
5.17639
5.14727
5.11906
5.0917
5.065
5.03871
5.01251
4.98605
4.959
4.93106
4.9019
4.87122
4.83871
4.80391
4.76647
4.7262
4.6829
4.63649
4.58693
4.53424
4.47856
4.42013
4.35919
4.29605
4.23109
4.16468
4.09724
4.02913
3.96073
3.8924
3.82444
3.75716
3.69083
3.62566
3.56189
3.49969
3.43925
3.3807
3.32415
3.26965
3.21677
3.16351
0.0843711
0.146376
0.181465
0.207282
0.228866
0.248129
0.266003
0.283028
0.299555
0.315828
0.332026
0.348286
0.364714
0.381395
0.3984
0.415786
0.433603
0.451893
0.470696
0.490045
0.509976
0.530518
0.551701
0.573552
0.596101
0.619376
0.643403
0.66821
0.693822
0.720267
0.747568
0.775751
0.804842
0.83487
0.865821
0.897801
0.930844
0.964987
1.00026
1.03669
1.0743
1.11314
1.15323
1.1946
1.2373
1.28134
1.32676
1.37357
1.42181
1.47147
1.5226
1.57518
1.62924
1.68479
1.74182
1.80034
1.86035
1.92182
1.98476
2.04915
2.11496
2.18217
2.25075
2.32067
2.39188
2.46435
2.53803
2.61287
2.68881
2.7658
2.84378
2.92268
3.00242
3.08295
3.16418
3.24604
3.32844
3.41129
3.49452
3.57803
3.66172
3.74549
3.82926
3.9129
3.99633
4.07941
4.16205
4.24412
4.32549
4.40605
4.48566
4.56419
4.6415
4.71743
4.79185
4.86461
4.93554
5.0045
5.07134
5.13592
5.19809
5.25774
5.31473
5.36894
5.42022
5.46845
5.51348
5.55516
5.59336
5.62795
5.65881
5.68585
5.70902
5.72826
5.74356
5.7549
5.76234
5.7659
5.76566
5.76171
5.75378
5.74207
5.72673
5.70789
5.68574
5.66048
5.63238
5.60169
5.5687
5.53356
5.49674
5.45871
5.41988
5.3807
5.34162
5.30322
5.26586
5.22968
5.1949
5.16167
5.13007
5.1001
5.07162
5.04442
5.01815
4.99247
4.967
4.94138
4.91528
4.88832
4.86023
4.83072
4.79921
4.76519
4.7283
4.68821
4.64468
4.59782
4.54769
4.4945
4.43839
4.37964
4.3186
4.25567
4.19122
4.12568
4.05942
3.99283
3.92625
3.86001
3.79441
3.72971
3.66615
3.60394
3.54328
3.48432
3.42719
3.37194
3.3182
3.26427
0.0834839
0.145101
0.179888
0.205536
0.226985
0.246127
0.263888
0.280804
0.297225
0.313391
0.329478
0.345622
0.361927
0.378477
0.395345
0.41259
0.430261
0.448406
0.467068
0.48629
0.506111
0.526568
0.5477
0.569544
0.592137
0.615514
0.639711
0.664766
0.690723
0.717626
0.745481
0.774316
0.804167
0.835064
0.86698
0.900039
0.934296
0.969788
1.00655
1.04462
1.08402
1.12479
1.16697
1.21058
1.25566
1.30226
1.35038
1.40004
1.45124
1.50399
1.55829
1.61416
1.67158
1.73055
1.79107
1.85312
1.91669
1.98174
2.04825
2.1162
2.18555
2.25627
2.3283
2.4016
2.47614
2.55184
2.62867
2.70655
2.78543
2.86525
2.94593
3.0274
3.1096
3.19245
3.27588
3.35979
3.44412
3.52877
3.61367
3.69872
3.78383
3.86891
3.95386
4.03859
4.12299
4.20696
4.29038
4.37315
4.45515
4.53626
4.61636
4.69532
4.77299
4.84924
4.92392
4.99688
5.06797
5.13702
5.20388
5.26841
5.33045
5.38989
5.44658
5.50039
5.55116
5.59875
5.643
5.68373
5.72078
5.75401
5.78328
5.8085
5.82959
5.84651
5.85921
5.8677
5.87203
5.87226
5.86863
5.86061
5.84838
5.83197
5.81149
5.78714
5.75913
5.72768
5.69305
5.65557
5.61558
5.57378
5.5303
5.48556
5.44004
5.39426
5.34876
5.30408
5.26049
5.21852
5.17852
5.14076
5.10543
5.07263
5.04231
5.01427
4.98818
4.96365
4.94024
4.91757
4.89525
4.87284
4.85007
4.82668
4.80136
4.77386
4.74376
4.71083
4.67479
4.63528
4.59225
4.54553
4.4954
4.44213
4.38609
4.32763
4.26716
4.20508
4.14182
4.07775
4.01327
3.94873
3.88447
3.82078
3.75792
3.69615
3.63567
3.57666
3.51926
3.46355
3.4092
3.35484
0.0818806
0.142683
0.177028
0.202361
0.223543
0.242446
0.259991
0.276712
0.292953
0.308955
0.324891
0.340894
0.357069
0.373505
0.390274
0.407441
0.425062
0.44319
0.461878
0.481174
0.50113
0.521788
0.543196
0.565406
0.58848
0.612437
0.637318
0.663171
0.690041
0.717956
0.746881
0.776917
0.808132
0.840585
0.874341
0.909443
0.945936
0.983856
1.02324
1.06411
1.1065
1.15044
1.19594
1.24304
1.29174
1.34207
1.39403
1.4476
1.50279
1.55958
1.61796
1.67791
1.73942
1.80245
1.86698
1.93298
2.00041
2.06922
2.13939
2.21086
2.28358
2.35751
2.4326
2.50878
2.586
2.66421
2.74334
2.82333
2.90411
2.98563
3.06781
3.15058
3.23388
3.31763
3.40177
3.48622
3.5709
3.65573
3.74065
3.82556
3.91039
3.99505
4.07945
4.16352
4.24714
4.33024
4.41272
4.49446
4.57536
4.65533
4.73425
4.81198
4.88841
4.96338
5.03678
5.10845
5.17824
5.24598
5.31151
5.37469
5.43534
5.49336
5.54861
5.60094
5.65017
5.69614
5.73866
5.77753
5.81258
5.84363
5.87052
5.89309