/*--------------------------------*- C++ -*----------------------------------*\
  =========                 |
  \\      /  F ield         | OpenFOAM: The Open Source CFD Toolbox
   \\    /   O peration     | Website:  https://openfoam.org
    \\  /    A nd           | Version:  8
     \\/     M anipulation  |
\*---------------------------------------------------------------------------*/
FoamFile
{
    version     2.0;
    format      ascii;
    class       volScalarField;
    location    "170";
    object      nut;
}
// * * * * * * * * * * * * * * * * * * * * * * * * * * * * * * * * * * * * * //

dimensions      [0 2 -1 0 0 0 0];

internalField   nonuniform List<scalar> 
12225
(
4.14928e-05
3.93407e-05
3.74826e-05
3.54333e-05
3.37828e-05
3.24223e-05
3.15071e-05
3.09122e-05
3.09184e-05
3.10912e-05
3.15758e-05
3.20898e-05
3.31575e-05
3.38427e-05
3.50697e-05
3.58242e-05
3.6916e-05
3.86647e-05
0.000332241
0.000215148
0.000179284
0.000157656
0.000146222
0.000138189
0.000132715
0.00013169
0.000129464
0.00013011
0.000129002
0.000129486
0.000128616
0.000128606
0.00012805
0.000127443
0.000127507
0.000126032
0.00066874
0.000450575
0.000355798
0.000309785
0.000275312
0.000251062
0.000231717
0.000217254
0.000202637
0.000192139
0.000182569
0.000175206
0.000169325
0.000163652
0.000160251
0.000155486
0.00015378
0.000149637
0.000801648
0.000691596
0.000572631
0.000499997
0.000449419
0.000411944
0.000380784
0.000355982
0.000333982
0.00031476
0.000298327
0.000281598
0.000270282
0.000255999
0.000248132
0.000236008
0.000230401
0.000220188
0.000839616
0.00081015
0.000740768
0.000676356
0.000623965
0.000581349
0.000545874
0.000514535
0.000489498
0.000464404
0.000445827
0.000424017
0.000409876
0.000390722
0.000379794
0.000362888
0.000354619
0.00033912
0.000850344
0.000843268
0.000819558
0.000786504
0.000750801
0.000715862
0.00068576
0.000656112
0.000632533
0.000607491
0.000588965
0.0005672
0.000552225
0.000533015
0.000520696
0.000503514
0.000493509
0.00047708
0.00085158
0.000851015
0.0008433
0.000833469
0.000817125
0.00079694
0.000777872
0.000756723
0.000738889
0.000719126
0.000703509
0.000685583
0.000672077
0.000655853
0.000644238
0.000629346
0.00061972
0.000604799
0.000851583
0.000851813
0.00085004
0.000847458
0.000841404
0.00083375
0.00082482
0.000813428
0.000802805
0.000790458
0.000779699
0.000767514
0.000757394
0.000745733
0.000736496
0.00072538
0.000717391
0.000705742
0.000851674
0.000851529
0.000851017
0.000850341
0.000848875
0.000846169
0.000843026
0.000838302
0.000833399
0.000827354
0.000821208
0.000814754
0.000808412
0.000801475
0.00079526
0.000788272
0.000782464
0.000774854
0.000851755
0.000851385
0.000851044
0.000850632
0.000850247
0.000849367
0.000848404
0.000846779
0.000844954
0.000842527
0.000839919
0.000836791
0.000833786
0.000830135
0.000826956
0.00082289
0.000819893
0.000815242
0.000851785
0.000851358
0.000851012
0.000850613
0.000850329
0.000849905
0.000849525
0.000848928
0.000848302
0.000847391
0.000846463
0.000845173
0.000843985
0.000842344
0.000840987
0.000839018
0.000837625
0.000835341
0.000851788
0.000851359
0.000850996
0.000850605
0.000850292
0.000849938
0.000849645
0.00084928
0.000848954
0.000848503
0.000848097
0.000847505
0.000846995
0.00084624
0.000845637
0.000844714
0.000844051
0.000842967
0.000851786
0.000851363
0.000850986
0.000850604
0.000850269
0.000849926
0.00084963
0.000849313
0.000849042
0.000848728
0.000848461
0.000848125
0.000847842
0.000847464
0.000847154
0.000846723
0.000846384
0.000845898
0.000851783
0.000851364
0.000850978
0.000850602
0.000850256
0.000849916
0.000849607
0.000849299
0.000849022
0.00084874
0.000848487
0.000848224
0.000847988
0.000847734
0.000847507
0.000847257
0.000847032
0.000846782
0.000851781
0.000851364
0.000850973
0.000850598
0.000850246
0.000849908
0.000849592
0.000849286
0.000849
0.000848723
0.000848463
0.000848211
0.000847975
0.000847744
0.000847528
0.000847316
0.000847115
0.00084692
0.00085178
0.000851363
0.000850969
0.000850594
0.000850239
0.000849901
0.00084958
0.000849275
0.000848984
0.000848707
0.000848443
0.000848191
0.000847951
0.000847722
0.000847503
0.000847293
0.000847093
0.000846902
0.000851779
0.000851362
0.000850967
0.000850591
0.000850234
0.000849895
0.000849572
0.000849265
0.000848973
0.000848694
0.000848429
0.000848175
0.000847933
0.000847702
0.000847481
0.00084727
0.000847068
0.000846876
0.000851779
0.000851362
0.000850965
0.000850588
0.000850231
0.00084989
0.000849567
0.000849259
0.000848965
0.000848686
0.000848419
0.000848164
0.00084792
0.000847688
0.000847466
0.000847253
0.00084705
0.000846856
0.000851779
0.000851362
0.000850965
0.000850588
0.00085023
0.000849889
0.000849565
0.000849256
0.000848962
0.000848682
0.000848414
0.000848159
0.000847914
0.000847681
0.000847458
0.000847244
0.00084704
0.000846845
0.000851779
0.000851362
0.000850966
0.000850589
0.000850231
0.000849891
0.000849568
0.000849259
0.000848965
0.000848685
0.000848418
0.000848162
0.000847918
0.000847684
0.000847461
0.000847247
0.000847042
0.000846846
0.000851779
0.000851363
0.000850967
0.000850592
0.000850235
0.000849897
0.000849573
0.000849267
0.000848973
0.000848694
0.000848425
0.000848169
0.00084792
0.000847684
0.000847452
0.000847232
0.000847014
0.000846808
0.000851778
0.000851366
0.000850968
0.000850599
0.00085024
0.000849907
0.00084958
0.000849274
0.000848965
0.000848672
0.000848365
0.000848073
0.000847757
0.000847457
0.000847124
0.000846813
0.000846459
0.000846138
0.000851773
0.000851376
0.000850971
0.000850615
0.000850241
0.000849889
0.000849479
0.000849054
0.00084853
0.000847979
0.000847302
0.000846605
0.000845768
0.000844941
0.000843956
0.000843031
0.00084192
0.000840942
0.000851767
0.000851415
0.000850964
0.000850548
0.000849861
0.000848967
0.000847611
0.000845976
0.000843905
0.000841637
0.000838956
0.000836216
0.000833119
0.000830117
0.000826767
0.000823684
0.000820189
0.000817184
0.000851859
0.00085138
0.000850195
0.000848243
0.00084447
0.000839355
0.000832766
0.00082566
0.000817964
0.000810014
0.000801621
0.000793632
0.000785337
0.000777713
0.000769751
0.000762709
0.000755133
0.000748806
0.000852108
0.000847667
0.000839902
0.000827146
0.000808708
0.000789647
0.000769977
0.000751416
0.000733309
0.0007169
0.00070094
0.000686787
0.000672839
0.00066068
0.00064839
0.000637954
0.000626968
0.000618036
0.000843241
0.000822507
0.000775185
0.000726459
0.000684897
0.000649853
0.000618464
0.000592023
0.000568386
0.000548318
0.000529696
0.000513999
0.000498762
0.000486028
0.000473215
0.000462722
0.000451639
0.000442822
0.000795686
0.000668242
0.000570626
0.000509906
0.000465607
0.000431186
0.000404149
0.000382485
0.000364204
0.000349075
0.000335947
0.000325069
0.000314516
0.000306245
0.00029797
0.000291378
0.000284294
0.000278945
0.000501314
0.000348357
0.000292674
0.000259181
0.000236324
0.000221178
0.000211622
0.000203856
0.000198565
0.000195077
0.000192222
0.000190369
0.000188584
0.00018744
0.000186167
0.000185473
0.000184556
0.000184144
7.27385e-05
7.02256e-05
6.79542e-05
6.56138e-05
6.33828e-05
6.12762e-05
5.94944e-05
5.79551e-05
5.67108e-05
5.5703e-05
5.49773e-05
5.44176e-05
5.4109e-05
5.38806e-05
5.38961e-05
5.39316e-05
5.40901e-05
5.43223e-05
9.72351e-07
1.85001e-05
3.14733e-05
4.37821e-05
5.63479e-05
6.91804e-05
8.22347e-05
9.53589e-05
0.000108297
0.000120776
0.000132528
0.000143334
0.000153049
0.000161626
0.000169189
0.000176079
0.00018132
0.000187718
0.00019804
0.000210639
0.000224599
0.000233432
0.000233647
0.000230255
0.00022743
0.000224701
0.000234843
0.000213466
0.000223316
0.000229592
0.000225617
4.5264e-05
4.83148e-05
4.90064e-05
5.04154e-05
5.15322e-05
5.27406e-05
5.38991e-05
5.50665e-05
5.62201e-05
5.73713e-05
5.85144e-05
5.96542e-05
6.07875e-05
6.1918e-05
6.30429e-05
6.41653e-05
6.5283e-05
6.63985e-05
6.75097e-05
6.8619e-05
6.97242e-05
7.08274e-05
7.19265e-05
7.30235e-05
7.41159e-05
7.52058e-05
7.62909e-05
7.73727e-05
7.84491e-05
7.95215e-05
8.05878e-05
8.16492e-05
8.27035e-05
8.37518e-05
8.47922e-05
8.58255e-05
8.68497e-05
8.78657e-05
8.88715e-05
8.98677e-05
9.08525e-05
9.18265e-05
9.27879e-05
9.3737e-05
9.46722e-05
9.55938e-05
9.65004e-05
9.73921e-05
9.82673e-05
9.91265e-05
9.99683e-05
0.000100793
0.000101599
0.000102386
0.000103154
0.000103903
0.000104631
0.00010534
0.000106027
0.000106693
0.000107337
0.000107958
0.000108556
0.000109131
0.000109681
0.000110207
0.00011071
0.000111197
0.000111658
0.000112091
0.000112509
0.000112905
0.000113281
0.000113638
0.000113976
0.000114296
0.000114598
0.000114882
0.000115151
0.000115403
0.00011564
0.000115863
0.000116073
0.000116269
0.000116454
0.000116626
0.000116788
0.000116939
0.000117082
0.000117215
0.000117339
0.000117453
0.000117557
0.00011765
0.000117735
0.000117808
0.000117871
0.000117919
0.000117956
0.000117989
0.00011802
0.000118021
0.000118048
0.000118069
0.000117874
0.000117995
0.00011781
0.000117602
0.000117443
0.000117244
0.000116986
0.000116673
0.000116311
0.000115883
0.000115385
0.000114818
0.000114191
0.000113427
0.00011263
0.000111845
0.000110073
0.000109046
0.000108486
0.000107929
0.000107317
0.000106643
0.000105907
0.000105125
0.000104295
0.000103427
0.000102523
0.000101577
0.0001006
9.96025e-05
9.85828e-05
9.75883e-05
9.65721e-05
9.55408e-05
9.45029e-05
9.34678e-05
9.24412e-05
9.14247e-05
9.04178e-05
8.9419e-05
8.84097e-05
8.74179e-05
8.62506e-05
8.53211e-05
8.24483e-05
3.44184e-06
5.00449e-05
0.00010241
0.000139248
0.000165009
0.000185114
0.000202387
0.000218195
0.000233056
0.000247042
0.00026002
0.000271801
0.000282234
0.000291278
0.000299087
0.000306087
0.000312824
0.00031946
0.000326424
0.00033395
0.000341376
0.000345767
0.000346722
0.000345492
0.000342938
0.000339778
0.000345413
0.000340858
0.00033348
0.000321655
0.000303469
0.000277687
0.000286274
0.000294057
0.000301875
0.000309853
0.000317926
0.000326078
0.000334289
0.000342557
0.000350881
0.000359254
0.000367678
0.000376151
0.000384676
0.000393255
0.00040189
0.000410586
0.000419346
0.000428174
0.000437076
0.000446052
0.000455108
0.000464245
0.000473467
0.000482772
0.000492165
0.000501643
0.000511209
0.00052086
0.000530595
0.000540412
0.00055031
0.000560283
0.00057033
0.000580443
0.00059062
0.000600853
0.000611138
0.000621466
0.000631832
0.000642224
0.000652639
0.000663062
0.000673489
0.000683906
0.000694305
0.000704672
0.000715
0.000725273
0.000735484
0.000745618
0.000755669
0.000765623
0.000775473
0.000785204
0.000794811
0.000804278
0.000813603
0.000822778
0.000831802
0.000840669
0.000849372
0.000857903
0.000866256
0.000874415
0.000882349
0.000889994
0.000897175
0.000903821
0.000910302
0.000916601
0.000922725
0.000928684
0.00093448
0.000940119
0.00094561
0.00095096
0.000956182
0.000961286
0.000966289
0.000971201
0.000976042
0.000980824
0.000985567
0.000990285
0.000995
0.000999721
0.00100447
0.00100927
0.00101413
0.00101906
0.00102408
0.00102917
0.00103435
0.0010396
0.00104494
0.00105034
0.0010558
0.00106129
0.0010669
0.00107279
0.00107844
0.00108405
0.00109009
0.0010952
0.00110075
0.00110581
0.00110938
0.00111309
0.00111662
0.00111961
0.00112196
0.00112363
0.00112459
0.00112479
0.00112419
0.00112281
0.00112048
0.00111707
0.00111365
0.00110623
0.00109516
0.00108251
0.00106884
0.00105441
0.00103939
0.00102388
0.001008
0.000991876
0.000975547
0.000958907
0.00094231
0.000925789
0.000909437
0.000893288
0.000877571
0.000862204
0.000846946
0.000831934
0.00081728
0.000802993
0.000789042
0.000775404
0.000761946
0.000748771
0.000734839
0.000722173
0.000702993
0.000646712
6.50706e-06
7.54689e-05
0.000152439
0.000211893
0.000255924
0.00028884
0.000314473
0.000335504
0.000353586
0.000369616
0.000383996
0.000396859
0.000408228
0.000418137
0.000426704
0.000434144
0.0004409
0.000448168
0.000456586
0.00046598
0.000475712
0.000485157
0.000494131
0.000502924
0.000512011
0.000521795
0.000533774
0.000542365
0.000549058
0.000553983
0.0005583
0.000565101
0.000580063
0.00059602
0.000612174
0.00062849
0.000644911
0.00066142
0.000677982
0.000694624
0.000711349
0.000728161
0.000745061
0.000762054
0.000779147
0.000796345
0.000813656
0.000831086
0.000848643
0.000866334
0.000884166
0.000902144
0.000920273
0.000938557
0.000956998
0.000975598
0.000994357
0.00101327
0.00103235
0.00105158
0.00107095
0.00109048
0.00111014
0.00112994
0.00114985
0.00116989
0.00119003
0.00121026
0.00123057
0.00125095
0.00127138
0.00129186
0.00131235
0.00133285
0.00135334
0.0013738
0.00139421
0.00141455
0.0014348
0.00145495
0.00147496
0.00149482
0.00151451
0.00153401
0.0015533
0.00157236
0.00159117
0.00160972
0.00162797
0.00164593
0.00166358
0.0016809
0.00169786
0.00171446
0.00173066
0.00174643
0.00176173
0.00177648
0.00179065
0.00180432
0.00181761
0.00183052
0.00184304
0.00185519
0.00186698
0.0018784
0.00188948
0.00190023
0.00191067
0.00192082
0.0019307
0.00194034
0.00194977
0.00195901
0.00196811
0.00197709
0.00198598
0.00199483
0.00200365
0.00201249
0.00202138
0.00203034
0.00203938
0.00204852
0.00205775
0.00206709
0.00207652
0.00208602
0.00209559
0.00210518
0.00211478
0.00212441
0.00213383
0.0021431
0.00215261
0.00216199
0.00217093
0.00217848
0.00218454
0.00219028
0.00219543
0.00219955
0.00220248
0.0022041
0.00220433
0.00220307
0.00220026
0.00219588
0.00218979
0.00218184
0.00217257
0.00215966
0.00214258
0.00212272
0.00210088
0.00207753
0.00205293
0.00202729
0.00200079
0.00197365
0.00194597
0.00191794
0.00188985
0.00186178
0.00183383
0.00180634
0.00177958
0.0017533
0.00172676
0.00170053
0.00167493
0.0016499
0.00162536
0.00160121
0.00157724
0.00155343
0.00152849
0.00150427
0.00147556
0.00139581
9.65985e-06
9.49989e-05
0.000190703
0.000266769
0.000324624
0.000368505
0.000402487
0.000429668
0.000452223
0.000471575
0.000488588
0.000503768
0.000517429
0.000529829
0.000541275
0.000552179
0.000563084
0.000574608
0.000587174
0.000600898
0.000615698
0.000631303
0.000647625
0.000664822
0.00068319
0.00070296
0.000722912
0.000741781
0.000760013
0.000777885
0.000796059
0.000815608
0.000837287
0.000859719
0.00088243
0.000905336
0.000928431
0.000951765
0.000975188
0.000998709
0.00102233
0.00104606
0.0010699
0.00109387
0.00111796
0.0011422
0.00116659
0.00119114
0.00121586
0.00124075
0.00126583
0.00129111
0.00131659
0.00134227
0.00136817
0.00139427
0.00142058
0.00144709
0.00147381
0.00150073
0.00152784
0.00155513
0.0015826
0.00161024
0.00163804
0.00166598
0.00169404
0.00172222
0.00175049
0.00177885
0.00180726
0.00183571
0.00186418
0.00189265
0.00192109
0.00194948
0.00197779
0.002006
0.00203409
0.00206202
0.00208977
0.00211731
0.00214462
0.00217166
0.00219842
0.00222486
0.00225096
0.00227669
0.00230203
0.00232696
0.00235145
0.00237548
0.00239902
0.00242204
0.0024445
0.00246637
0.0024876
0.00250817
0.00252811
0.00254744
0.00256621
0.00258442
0.00260209
0.00261921
0.00263578
0.00265183
0.00266736
0.00268239
0.00269694
0.00271104
0.00272472
0.00273801
0.00275093
0.00276354
0.00277588
0.00278797
0.00279987
0.00281162
0.00282326
0.00283483
0.00284638
0.00285794
0.00286952
0.00288116
0.00289285
0.00290462
0.00291646
0.00292837
0.00294033
0.00295231
0.00296428
0.00297619
0.00298789
0.00299951
0.0030118
0.00302369
0.00303444
0.00304362
0.00305182
0.00305948
0.00306613
0.00307148
0.00307533
0.00307753
0.00307794
0.00307643
0.00307293
0.00306734
0.00305958
0.00304951
0.00303721
0.00302155
0.00300209
0.00297951
0.00295444
0.00292731
0.00289842
0.00286804
0.00283636
0.00280363
0.00277003
0.00273579
0.00270119
0.00266639
0.00263154
0.00259686
0.00256263
0.00252882
0.00249518
0.00246194
0.00242969
0.00239808
0.00236695
0.00233619
0.00230561
0.00227494
0.0022433
0.0022116
0.00217615
0.00209551
1.27e-05
0.00011146
0.000222732
0.000312689
0.000382745
0.000436642
0.000478686
0.000512287
0.000539992
0.000563618
0.000584414
0.000603221
0.000620626
0.000637081
0.000653001
0.000668814
0.000684969
0.000701888
0.000719871
0.000739022
0.000759239
0.000780458
0.000802645
0.000825839
0.000850091
0.000875324
0.000901123
0.000927084
0.000953096
0.000979187
0.0010056
0.00103265
0.00106036
0.00108845
0.00111674
0.00114518
0.00117372
0.00120231
0.00123098
0.00125976
0.00128866
0.00131768
0.00134684
0.00137615
0.00140562
0.00143526
0.00146508
0.00149508
0.00152528
0.00155568
0.00158629
0.00161713
0.00164821
0.00167953
0.00171109
0.00174289
0.00177493
0.0018072
0.00183971
0.00187244
0.00190539
0.00193855
0.00197191
0.00200545
0.00203916
0.00207303
0.00210704
0.00214117
0.0021754
0.00220971
0.00224408
0.00227848
0.0023129
0.0023473
0.00238166
0.00241595
0.00245014
0.00248421
0.00251813
0.00255185
0.00258536
0.00261862
0.00265161
0.00268428
0.00271661
0.00274856
0.00278011
0.00281123
0.00284187
0.00287203
0.00290166
0.00293073
0.00295922
0.0029871
0.00301432
0.00304087
0.00306672
0.00309184
0.00311625
0.00313994
0.00316295
0.00318525
0.00320687
0.0032278
0.00324805
0.00326763
0.00328654
0.00330481
0.00332246
0.00333951
0.00335599
0.00337195
0.00338741
0.00340242
0.00341702
0.00343127
0.00344521
0.00345889
0.00347236
0.00348568
0.00349888
0.00351201
0.00352511
0.00353821
0.00355133
0.00356449
0.00357771
0.00359101
0.00360437
0.00361777
0.00363119
0.0036446
0.00365785
0.00367162
0.00368559
0.00369869
0.00371053
0.00372116
0.00373102
0.00374019
0.00374825
0.00375494
0.00376003
0.00376335
0.00376473
0.00376404
0.00376116
0.00375598
0.00374839
0.00373826
0.00372547
0.00370947
0.00368999
0.00366735
0.00364198
0.0036142
0.00358433
0.00355258
0.00351921
0.00348442
0.00344845
0.00341152
0.00337392
0.00333584
0.00329746
0.003259
0.00322068
0.0031826
0.00314471
0.00310715
0.00307023
0.0030339
0.00299807
0.00296266
0.00292785
0.00289317
0.00285783
0.00282202
0.00278276
0.00270766
1.55415e-05
0.000125331
0.000249722
0.000351785
0.000432863
0.000496187
0.000546172
0.000586435
0.000619783
0.000648324
0.000673599
0.000696713
0.000718467
0.000739457
0.000760161
0.000780986
0.000802287
0.000824353
0.000847378
0.000871436
0.000896505
0.000922533
0.00094947
0.00097729
0.00100597
0.00103543
0.0010655
0.00109602
0.00112685
0.00115794
0.00118932
0.00122102
0.00125302
0.00128525
0.00131763
0.00135013
0.00138273
0.00141541
0.00144819
0.00148107
0.00151407
0.0015472
0.00158048
0.0016139
0.0016475
0.00168127
0.00171523
0.0017494
0.00178379
0.00181841
0.00185326
0.00188835
0.00192367
0.00195924
0.00199506
0.00203112
0.00206742
0.00210396
0.00214073
0.00217774
0.00221496
0.00225239
0.00229002
0.00232784
0.00236583
0.00240398
0.00244227
0.00248068
0.00251919
0.00255778
0.00259642
0.0026351
0.00267379
0.00271247
0.00275109
0.00278965
0.00282811
0.00286643
0.00290459
0.00294256
0.0029803
0.00301777
0.00305496
0.00309181
0.0031283
0.00316439
0.00320005
0.00323524
0.00326993
0.00330407
0.00333765
0.00337062
0.00340294
0.00343459
0.00346552
0.00349572
0.00352515
0.00355379
0.00358163
0.00360868
0.00363492
0.00366035
0.00368498
0.00370879
0.0037318
0.003754
0.0037754
0.00379603
0.00381589
0.00383502
0.00385344
0.00387118
0.00388829
0.00390481
0.00392078
0.00393627
0.00395131
0.00396597
0.0039803
0.00399436
0.00400821
0.00402189
0.00403546
0.00404894
0.0040624
0.00407587
0.00408938
0.00410297
0.00411665
0.00413039
0.00414419
0.00415817
0.0041724
0.00418703
0.00420135
0.00421496
0.00422758
0.00423945
0.0042508
0.00426138
0.00427091
0.00427917
0.00428591
0.00429096
0.00429414
0.00429528
0.00429424
0.00429089
0.0042851
0.00427672
0.0042656
0.00425143
0.00423405
0.00421358
0.00419027
0.00416436
0.00413607
0.00410562
0.00407322
0.00403909
0.00400344
0.00396651
0.00392855
0.00388978
0.00385041
0.00381064
0.0037707
0.00373072
0.00369078
0.00365099
0.00361157
0.00357257
0.00353399
0.00349577
0.00345799
0.00342041
0.00338249
0.00334405
0.0033024
0.00323434
1.81087e-05
0.000136808
0.000272154
0.000385004
0.000475881
0.000548159
0.000605937
0.000652962
0.00069221
0.000725986
0.000756031
0.000783642
0.000809778
0.000835142
0.000860265
0.000885549
0.000911299
0.000937737
0.000965
0.000993146
0.00102217
0.00105204
0.0010827
0.0011141
0.0011462
0.00117894
0.00121223
0.00124597
0.00128009
0.00131452
0.00134921
0.00138414
0.00141928
0.00145458
0.00149002
0.00152555
0.00156118
0.0015969
0.0016327
0.00166861
0.00170463
0.00174078
0.00177706
0.00181348
0.00185007
0.00188683
0.00192378
0.00196093
0.0019983
0.00203588
0.00207369
0.00211173
0.00215001
0.00218853
0.00222729
0.0022663
0.00230554
0.00234503
0.00238475
0.0024247
0.00246487
0.00250525
0.00254584
0.00258662
0.00262757
0.00266869
0.00270995
0.00275134
0.00279284
0.00283443
0.00287608
0.00291778
0.0029595
0.00300122
0.0030429
0.00308453
0.00312606
0.00316748
0.00320874
0.00324982
0.00329068
0.00333129
0.00337161
0.00341161
0.00345124
0.00349047
0.00352927
0.00356758
0.00360538
0.00364263
0.00367927
0.00371528
0.00375062
0.00378524
0.00381911
0.0038522
0.00388446
0.00391589
0.00394644
0.00397612
0.0040049
0.00403278
0.00405974
0.00408577
0.00411087
0.00413504
0.00415828
0.0041806
0.00420203
0.00422256
0.00424225
0.0042611
0.00427917
0.00429649
0.00431311
0.00432909
0.00434448
0.00435934
0.00437373
0.00438772
0.00440137
0.00441474
0.00442788
0.00444086
0.00445375
0.0044666
0.00447945
0.0044924
0.00450546
0.00451861
0.00453208
0.00454598
0.00455999
0.00457417
0.00458815
0.00460168
0.00461473
0.00462749
0.00463983
0.00465158
0.00466252
0.00467242
0.00468107
0.00468826
0.0046938
0.00469753
0.00469926
0.00469885
0.00469614
0.00469095
0.00468313
0.00467246
0.00465879
0.00464215
0.00462263
0.00460038
0.00457555
0.00454833
0.00451887
0.00448737
0.00445404
0.00441908
0.00438274
0.00434523
0.00430677
0.00426758
0.00422787
0.00418781
0.00414753
0.00410717
0.00406691
0.00402684
0.00398702
0.00394747
0.00390823
0.00386919
0.00383001
0.00379031
0.00374751
0.00368584
2.0348e-05
0.000146057
0.000290419
0.000412763
0.000512389
0.000592974
0.000658231
0.000711925
0.000757104
0.000796182
0.000831031
0.000863075
0.000893382
0.000922743
0.000951738
0.000980789
0.00101019
0.00104015
0.00107078
0.00110214
0.00113425
0.00116707
0.00120057
0.0012347
0.00126941
0.00130465
0.00134036
0.00137648
0.00141294
0.00144968
0.00148667
0.00152384
0.00156118
0.00159865
0.00163622
0.00167388
0.00171161
0.00174942
0.0017873
0.00182528
0.00186335
0.00190152
0.00193982
0.00197825
0.00201682
0.00205556
0.00209446
0.00213356
0.00217285
0.00221234
0.00225206
0.00229199
0.00233215
0.00237254
0.00241317
0.00245403
0.00249513
0.00253647
0.00257804
0.00261984
0.00266186
0.0027041
0.00274655
0.0027892
0.00283204
0.00287504
0.00291821
0.00296153
0.00300497
0.00304852
0.00309217
0.00313588
0.00317964
0.00322342
0.0032672
0.00331095
0.00335464
0.00339824
0.00344173
0.00348506
0.0035282
0.00357113
0.0036138
0.00365617
0.0036982
0.00373985
0.00378109
0.00382186
0.00386213
0.00390184
0.00394096
0.00397944
0.00401724
0.0040543
0.00409059
0.00412606
0.00416067
0.0041944
0.0042272
0.00425905
0.00428992
0.00431979
0.00434864
0.00437645
0.00440321
0.00442892
0.00445356
0.00447714
0.00449967
0.00452117
0.00454164
0.00456112
0.00457964
0.00459725
0.00461399
0.0046299
0.00464506
0.00465953
0.00467336
0.00468664
0.00469942
0.00471179
0.00472381
0.00473554
0.0047471
0.00475856
0.00476995
0.00478149
0.00479333
0.00480526
0.00481754
0.00483011
0.004843
0.00485608
0.00486915
0.00488228
0.0048954
0.0049085
0.00492148
0.00493419
0.00494645
0.00495804
0.00496876
0.00497841
0.00498678
0.00499369
0.00499894
0.00500235
0.00500374
0.00500291
0.00499966
0.0049938
0.00498515
0.00497366
0.0049593
0.00494214
0.00492226
0.00489976
0.00487477
0.00484744
0.00481795
0.00478649
0.00475328
0.00471852
0.00468245
0.00464527
0.0046072
0.00456844
0.00452914
0.00448948
0.00444962
0.0044097
0.00436981
0.00433004
0.00429045
0.00425101
0.00421152
0.00417156
0.00412879
0.00407264
2.22263e-05
0.000153234
0.000304805
0.000435237
0.000542633
0.000630807
0.000703088
0.000763173
0.000814118
0.000858379
0.000897898
0.000934177
0.000968361
0.00100131
0.00103365
0.00106584
0.00109819
0.00113091
0.00116413
0.00119792
0.0012323
0.00126728
0.00130284
0.00133893
0.00137551
0.00141254
0.00144996
0.00148773
0.00152577
0.00156403
0.00160249
0.00164109
0.0016798
0.00171861
0.00175748
0.00179641
0.00183538
0.00187441
0.00191348
0.00195262
0.00199184
0.00203113
0.00207053
0.00211003
0.00214966
0.00218943
0.00222935
0.00226944
0.00230971
0.00235016
0.00239082
0.00243168
0.00247276
0.00251406
0.00255559
0.00259736
0.00263935
0.00268159
0.00272406
0.00276677
0.00280971
0.00285288
0.00289627
0.00293988
0.0029837
0.00302772
0.00307192
0.0031163
0.00316085
0.00320554
0.00325036
0.00329529
0.00334032
0.00338541
0.00343056
0.00347572
0.00352088
0.003566
0.00361106
0.00365603
0.00370086
0.00374552
0.00378998
0.00383419
0.00387812
0.00392171
0.00396492
0.00400771
0.00405002
0.00409181
0.00413303
0.00417362
0.00421353
0.00425271
0.00429111
0.00432867
0.00436536
0.00440111
0.00443589
0.00446966
0.00450237
0.00453399
0.0045645
0.00459386
0.00462205
0.00464906
0.00467486
0.00469945
0.00472283
0.00474501
0.004766
0.00478581
0.00480448
0.00482205
0.00483855
0.00485404
0.00486859
0.00488224
0.00489509
0.00490719
0.00491863
0.00492948
0.00493985
0.00494976
0.00495941
0.00496891
0.0049784
0.00498793
0.00499763
0.00500758
0.00501784
0.00502846
0.00503954
0.00505102
0.00506288
0.00507514
0.00508778
0.00510079
0.00511408
0.00512754
0.00514101
0.0051543
0.00516722
0.00517956
0.00519112
0.00520168
0.00521104
0.00521898
0.00522529
0.00522974
0.00523208
0.00523209
0.00522956
0.00522432
0.00521628
0.00520539
0.00519166
0.00517512
0.00515585
0.00513394
0.00510954
0.00508281
0.00505394
0.00502313
0.0049906
0.00495657
0.00492125
0.00488486
0.00484759
0.00480961
0.00477112
0.00473228
0.00469323
0.00465409
0.00461497
0.00457591
0.0045368
0.00449728
0.00445527
0.0044038
2.37303e-05
0.00015851
0.000315602
0.000452718
0.000566863
0.000661813
0.000740522
0.000806563
0.000862938
0.000912104
0.000956023
0.000996241
0.00103395
0.00107007
0.00110527
0.00114004
0.00117474
0.00120957
0.00124469
0.00128017
0.00131605
0.00135243
0.0013893
0.00142662
0.00146435
0.00150245
0.00154089
0.00157964
0.00161856
0.00165762
0.0016968
0.00173607
0.00177539
0.00181474
0.0018541
0.00189347
0.00193285
0.00197224
0.00201165
0.00205108
0.00209056
0.00213009
0.00216969
0.00220938
0.00224916
0.00228907
0.0023291
0.00236928
0.00240962
0.00245014
0.00249085
0.00253175
0.00257287
0.0026142
0.00265576
0.00269756
0.00273961
0.0027819
0.00282444
0.00286723
0.00291028
0.00295359
0.00299715
0.00304097
0.00308503
0.00312933
0.00317387
0.00321863
0.00326361
0.0033088
0.00335418
0.00339973
0.00344544
0.00349129
0.00353726
0.00358332
0.00362946
0.00367563
0.00372182
0.00376799
0.0038141
0.00386012
0.003906
0.00395172
0.00399721
0.00404243
0.00408734
0.00413189
0.00417601
0.00421965
0.00426276
0.00430528
0.00434714
0.00438829
0.00442866
0.00446819
0.00450683
0.00454451
0.00458117
0.00461677
0.00465125
0.00468456
0.00471666
0.00474751
0.00477707
0.0048053
0.0048322
0.00485773
0.00488188
0.00490465
0.00492605
0.00494608
0.00496477
0.00498214
0.00499825
0.00501313
0.00502686
0.00503948
0.00505109
0.00506175
0.00507154
0.00508055
0.00508895
0.00509676
0.00510414
0.00511122
0.00511812
0.00512504
0.0051321
0.00513943
0.00514714
0.00515534
0.00516413
0.00517357
0.00518372
0.00519462
0.00520633
0.00521885
0.00523214
0.00524611
0.00526064
0.00527558
0.00529074
0.00530592
0.0053209
0.00533547
0.00534938
0.00536241
0.00537428
0.00538473
0.00539347
0.00540023
0.00540472
0.00540668
0.00540592
0.00540232
0.00539577
0.00538626
0.00537376
0.00535835
0.00534009
0.00531913
0.00529561
0.00526974
0.00524172
0.00521177
0.00518012
0.00514697
0.00511256
0.00507707
0.00504073
0.00500371
0.0049662
0.00492837
0.00489036
0.00485226
0.00481406
0.00477543
0.00473463
0.00468714
2.48644e-05
0.000162067
0.000323118
0.000465532
0.000585359
0.000686173
0.000770588
0.000841999
0.000903316
0.000956954
0.00100487
0.00104863
0.00108942
0.00112819
0.00116577
0.00120263
0.00123912
0.00127549
0.0013119
0.00134844
0.00138514
0.00142224
0.00145971
0.00149752
0.00153564
0.00157406
0.00161274
0.00165169
0.00169065
0.00172971
0.00176892
0.00180813
0.00184729
0.00188639
0.00192543
0.0019644
0.00200333
0.00204221
0.00208107
0.00211991
0.00215876
0.00219763
0.00223654
0.00227551
0.00231456
0.0023537
0.00239296
0.00243236
0.00247191
0.00251163
0.00255153
0.00259164
0.00263197
0.00267253
0.00271333
0.00275439
0.00279572
0.00283732
0.00287922
0.0029214
0.00296389
0.00300668
0.00304978
0.00309319
0.00313691
0.00318093
0.00322527
0.0032699
0.00331483
0.00336004
0.00340553
0.00345128
0.00349728
0.00354351
0.00358995
0.00363658
0.00368337
0.0037303
0.00377734
0.00382446
0.00387161
0.00391877
0.00396588
0.00401291
0.00405981
0.00410653
0.00415301
0.00419919
0.00424502
0.00429044
0.00433538
0.00437977
0.00442355
0.00446665
0.00450898
0.00455049
0.0045911
0.00463073
0.00466932
0.0047068
0.0047431
0.00477816
0.00481193
0.00484433
0.00487534
0.00490489
0.00493295
0.00495949
0.00498449
0.00500792
0.00502978
0.00505007
0.00506881
0.00508602
0.00510173
0.00511599
0.00512886
0.0051404
0.0051507
0.00515982
0.00516787
0.00517494
0.00518117
0.0051866
0.00519142
0.00519574
0.00519979
0.00520375
0.00520779
0.0052121
0.00521683
0.00522216
0.00522823
0.00523519
0.00524316
0.00525227
0.00526261
0.00527425
0.00528719
0.0053014
0.0053168
0.00533325
0.0053506
0.00536865
0.00538718
0.00540596
0.00542473
0.00544322
0.00546113
0.00547814
0.00549391
0.00550812
0.00552038
0.00553034
0.00553771
0.00554226
0.00554382
0.00554224
0.00553747
0.00552948
0.0055183
0.00550401
0.00548674
0.00546667
0.005444
0.00541894
0.00539172
0.00536256
0.00533171
0.0052994
0.00526584
0.00523126
0.00519587
0.00515989
0.00512348
0.00508681
0.00504991
0.00501254
0.00497322
0.00492917
2.56408e-05
0.000164102
0.000327662
0.000473993
0.000598426
0.000704027
0.000793349
0.000869412
0.000935021
0.000992515
0.00104392
0.00109074
0.00113414
0.00117501
0.00121427
0.00125247
0.00129
0.00132716
0.00136416
0.00140113
0.00143822
0.00147547
0.0015129
0.00155049
0.00158823
0.0016261
0.0016641
0.00170222
0.00174044
0.0017787
0.00181715
0.00185549
0.00189369
0.00193173
0.00196959
0.00200728
0.00204484
0.00208229
0.00211967
0.00215698
0.00219427
0.00223154
0.00226884
0.00230617
0.00234358
0.00238107
0.00241868
0.00245643
0.00249434
0.00253244
0.00257075
0.00260928
0.00264807
0.00268713
0.00272648
0.00276613
0.00280611
0.00284642
0.00288709
0.00292812
0.00296952
0.00301131
0.00305349
0.00309606
0.00313904
0.00318241
0.00322619
0.00327037
0.00331495
0.00335992