/*--------------------------------*- C++ -*----------------------------------*\
  =========                 |
  \\      /  F ield         | OpenFOAM: The Open Source CFD Toolbox
   \\    /   O peration     | Website:  https://openfoam.org
    \\  /    A nd           | Version:  8
     \\/     M anipulation  |
\*---------------------------------------------------------------------------*/
FoamFile
{
    version     2.0;
    format      ascii;
    class       volScalarField;
    location    "170";
    object      p;
}
// * * * * * * * * * * * * * * * * * * * * * * * * * * * * * * * * * * * * * //

dimensions      [0 2 -2 0 0 0 0];

internalField   nonuniform List<scalar> 
12225
(
-0.437423
-2.62603
-3.72583
-4.0463
-4.22733
-4.39607
-4.5273
-4.62202
-4.69811
-4.76483
-4.82399
-4.87775
-4.92606
-4.97032
-5.01051
-5.04095
-5.07785
-5.02955
-3.6009
-4.36924
-4.52963
-4.43716
-4.4244
-4.49197
-4.56918
-4.6345
-4.6936
-4.75038
-4.80417
-4.85399
-4.90044
-4.9435
-4.98398
-5.01722
-5.05594
-5.07335
-4.00205
-3.98695
-4.11419
-4.19236
-4.28701
-4.40691
-4.51378
-4.59822
-4.66952
-4.73424
-4.79355
-4.84743
-4.89725
-4.94312
-4.98649
-5.02451
-5.06857
-5.10532
-3.8801
-3.82315
-4.0646
-4.22272
-4.32422
-4.43014
-4.52749
-4.60713
-4.67537
-4.73785
-4.79566
-4.84872
-4.89814
-4.94414
-4.98814
-5.02919
-5.07475
-5.12134
-3.86977
-3.89417
-4.12208
-4.26344
-4.34682
-4.43859
-4.52948
-4.6068
-4.67386
-4.73551
-4.79292
-4.84603
-4.89578
-4.94259
-4.98781
-5.03158
-5.07867
-5.12958
-3.92774
-3.97665
-4.15078
-4.27449
-4.35577
-4.44332
-4.53104
-4.60716
-4.67367
-4.73483
-4.79197
-4.84515
-4.89516
-4.94263
-4.98875
-5.03422
-5.08215
-5.13391
-3.98809
-4.0323
-4.16734
-4.28347
-4.36699
-4.45086
-4.53447
-4.60874
-4.67439
-4.7349
-4.7916
-4.84469
-4.89484
-4.94275
-4.98949
-5.0359
-5.08401
-5.13497
-4.04164
-4.07925
-4.18907
-4.29718
-4.37996
-4.45931
-4.53842
-4.61056
-4.67521
-4.73499
-4.79117
-4.84409
-4.89428
-4.94246
-4.98953
-5.03629
-5.08405
-5.13345
-4.09139
-4.12449
-4.21528
-4.31306
-4.39293
-4.46806
-4.54294
-4.61274
-4.6762
-4.73511
-4.79068
-4.84328
-4.89338
-4.9416
-4.98869
-5.03532
-5.08228
-5.12983
-4.13847
-4.16768
-4.24307
-4.33012
-4.40613
-4.47745
-4.5483
-4.61552
-4.67752
-4.73541
-4.79021
-4.84233
-4.89213
-4.94015
-4.98695
-5.03305
-5.07893
-5.12454
-4.1828
-4.20825
-4.27134
-4.34835
-4.41985
-4.48747
-4.55447
-4.61891
-4.67923
-4.73594
-4.78983
-4.84127
-4.89057
-4.93814
-4.98439
-5.02968
-5.07429
-5.118
-4.22085
-4.24315
-4.29724
-4.36592
-4.43288
-4.49708
-4.56071
-4.62254
-4.68115
-4.73663
-4.78955
-4.84022
-4.88889
-4.93584
-4.98139
-5.02575
-5.0691
-5.11116
-4.25599
-4.27567
-4.3224
-4.38365
-4.44599
-4.50683
-4.56726
-4.62651
-4.68332
-4.73748
-4.78933
-4.83912
-4.88701
-4.93321
-4.97792
-5.02127
-5.06335
-5.10388
-4.29282
-4.30997
-4.34991
-4.40381
-4.46101
-4.51804
-4.57503
-4.63139
-4.68605
-4.7386
-4.78912
-4.83776
-4.88463
-4.92982
-4.97344
-5.01555
-5.05618
-5.09509
-4.33009
-4.34484
-4.37877
-4.42577
-4.47756
-4.53046
-4.58382
-4.63707
-4.68928
-4.7399
-4.78881
-4.83603
-4.88158
-4.92549
-4.96777
-5.00844
-5.04749
-5.08474
-4.36583
-4.37844
-4.40733
-4.44823
-4.49474
-4.5434
-4.5931
-4.64315
-4.6927
-4.74114
-4.78818
-4.83372
-4.87771
-4.92009
-4.96083
-4.99991
-5.0373
-5.07288
-4.39716
-4.40802
-4.43296
-4.46888
-4.51075
-4.55547
-4.60174
-4.64872
-4.69561
-4.74176
-4.78679
-4.8305
-4.87275
-4.91344
-4.95252
-4.98994
-5.02567
-5.05963
-4.41971
-4.42936
-4.45163
-4.4841
-4.52257
-4.56426
-4.60777
-4.65222
-4.69681
-4.74088
-4.78401
-4.82592
-4.86644
-4.90546
-4.94289
-4.9787
-5.01284
-5.0453
-4.42658
-4.43575
-4.45699
-4.48818
-4.52533
-4.56568
-4.60783
-4.65089
-4.69411
-4.73681
-4.77855
-4.81907
-4.85819
-4.89581
-4.93185
-4.96628
-4.99909
-5.03029
-4.41054
-4.42032
-4.44296
-4.47609
-4.51516
-4.55694
-4.60001
-4.64365
-4.68717
-4.7299
-4.77143
-4.81156
-4.85014
-4.88712
-4.92244
-4.9561
-4.98812
-5.01854
-4.38374
-4.39455
-4.41986
-4.45694
-4.49979
-4.54439
-4.58959
-4.63495
-4.67972
-4.72323
-4.76516
-4.80544
-4.84402
-4.88083
-4.91589
-4.94921
-4.98085
-5.01088
-4.34857
-4.3604
-4.3898
-4.43345
-4.4818
-4.52988
-4.5778
-4.62564
-4.67233
-4.71706
-4.75974
-4.80047
-4.83925
-4.8761
-4.91107
-4.94422
-4.97564
-5.00541
-4.30806
-4.31997
-4.35447
-4.4078
-4.46342
-4.51547
-4.56647
-4.61703
-4.66568
-4.71169
-4.75526
-4.7966
-4.83575
-4.87276
-4.90775
-4.94086
-4.97216
-5.00181
-4.26438
-4.27538
-4.31719
-4.38167
-4.44393
-4.5007
-4.55643
-4.61041
-4.66079
-4.70775
-4.752
-4.79383
-4.83323
-4.87033
-4.90531
-4.93833
-4.96953
-4.99904
-4.21747
-4.22299
-4.2857
-4.36397
-4.42599
-4.48433
-4.54558
-4.60405
-4.65669
-4.70488
-4.75003
-4.79242
-4.8321
-4.86926
-4.9042
-4.93714
-4.96823
-4.99768
-4.17417
-4.13787
-4.24745
-4.35848
-4.42081
-4.47619
-4.5385
-4.59835
-4.6517
-4.70054
-4.74639
-4.78932
-4.82931
-4.86666
-4.9017
-4.93468
-4.96579
-4.99523
-4.18841
-4.02948
-4.15844
-4.31258
-4.40277
-4.47423
-4.54326
-4.60428
-4.65719
-4.7056
-4.75101
-4.79339
-4.8328
-4.86958
-4.90406
-4.93654
-4.96723
-4.99639
-4.3116
-4.13124
-4.14546
-4.21765
-4.3061
-4.40541
-4.49621
-4.57009
-4.63191
-4.68717
-4.73761
-4.7835
-4.82543
-4.86404
-4.89983
-4.93325
-4.96477
-4.995
-4.01898
-4.61009
-4.69897
-4.57478
-4.52052
-4.54777
-4.59485
-4.6382
-4.67988
-4.72218
-4.7638
-4.80326
-4.84034
-4.87518
-4.90784
-4.93848
-4.96731
-4.99612
-1.02966
-2.79298
-3.79772
-4.09693
-4.24618
-4.38989
-4.50403
-4.5851
-4.64944
-4.70643
-4.75781
-4.80397
-4.84577
-4.88411
-4.9195
-4.95173
-4.98066
-5.00453
-5.94888
-5.94882
-5.9494
-5.95098
-5.9533
-5.95623
-5.95971
-5.9637
-5.96818
-5.97317
-5.9787
-5.98485
-5.99172
-5.99951
-6.00828
-6.01771
-6.02751
-6.03739
-6.04691
-6.05618
-6.0662
-6.0783
-6.09225
-6.10655
-6.12172
-6.13917
-6.15935
-6.18098
-6.20291
-6.22336
-6.24211
-6.26129
-6.28277
-6.30589
-6.32979
-6.35445
-6.37973
-6.40552
-6.43173
-6.45826
-6.48504
-6.51198
-6.53901
-6.56607
-6.59307
-6.61996
-6.64664
-6.67306
-6.69912
-6.72476
-6.74986
-6.77437
-6.79817
-6.82117
-6.84325
-6.86432
-6.88424
-6.9029
-6.92015
-6.93589
-6.94995
-6.96222
-6.9725
-6.98068
-6.98657
-6.99005
-6.99092
-6.98904
-6.98423
-6.97635
-6.96519
-6.95063
-6.93247
-6.9106
-6.88481
-6.85502
-6.82101
-6.7827
-6.73989
-6.69253
-6.64041
-6.58349
-6.52158
-6.45469
-6.38267
-6.30555
-6.22317
-6.1355
-6.04239
-5.94379
-5.83973
-5.73015
-5.61499
-5.49418
-5.36771
-5.23561
-5.09793
-4.95472
-4.80599
-4.65156
-4.49116
-4.32463
-4.15203
-3.97337
-3.78852
-3.5974
-3.39982
-3.19568
-2.98478
-2.76697
-2.542
-2.30971
-2.06979
-1.82202
-1.56607
-1.30166
-1.02837
-0.74589
-0.453841
-0.151972
0.160075
0.482646
0.816197
1.16107
1.51759
1.88593
2.26626
2.6586
3.06295
3.47912
3.90683
4.34557
4.79466
5.25319
5.72001
6.19374
6.67277
7.15533
7.6395
8.12323
8.60434
9.08049
9.54934
10.0085
10.4558
10.889
11.3062
11.7058
12.0866
12.4476
12.7883
13.1086
13.4082
13.6867
13.9438
14.1798
14.3952
14.5907
14.7671
14.9254
15.0665
15.1915
15.3015
15.3976
15.4808
15.5523
15.613
15.664
15.7061
15.7404
15.7677
15.789
15.8054
15.8182
15.829
15.8402
15.857
15.8867
15.954
16.0561
-5.94583
-5.94647
-5.94743
-5.94863
-5.94986
-5.95124
-5.95303
-5.95539
-5.95837
-5.96198
-5.96623
-5.97111
-5.97663
-5.98278
-5.98938
-5.99622
-6.00342
-6.01092
-6.019
-6.02858
-6.04015
-6.05268
-6.06504
-6.07748
-6.09137
-6.10593
-6.12141
-6.13824
-6.15646
-6.17749
-6.20237
-6.22931
-6.25535
-6.2801
-6.30492
-6.33005
-6.35554
-6.38136
-6.40748
-6.43386
-6.46043
-6.48715
-6.51393
-6.54074
-6.56749
-6.59413
-6.62058
-6.64678
-6.67265
-6.69811
-6.72307
-6.74746
-6.77116
-6.7941
-6.81616
-6.83723
-6.85719
-6.87593
-6.89331
-6.9092
-6.92346
-6.93595
-6.94652
-6.95502
-6.96128
-6.96515
-6.96647
-6.96507
-6.96078
-6.95346
-6.94291
-6.92899
-6.91151
-6.89035
-6.86531
-6.83629
-6.8031
-6.76561
-6.72367
-6.67717
-6.62596
-6.56995
-6.50899
-6.44304
-6.37198
-6.29578
-6.21435
-6.12763
-6.0355
-5.93795
-5.83498
-5.72655
-5.61259
-5.49303
-5.36785
-5.23702
-5.10051
-4.95829
-4.81027
-4.65635
-4.49662
-4.33109
-4.15971
-3.98233
-3.79885
-3.60912
-3.41302
-3.21041
-3.00113
-2.78501
-2.56186
-2.33146
-2.09357
-1.84794
-1.5943
-1.33231
-1.06165
-0.781945
-0.492888
-0.194178
0.1145
0.433528
0.763318
1.10424
1.4566
1.82059
2.19639
2.58406
2.98361
3.39491
3.81772
4.25161
4.69597
5.14995
5.61248
6.08226
6.55777
7.03729
7.51893
8.00067
8.48037
8.95571
9.42436
9.88392
10.3321
10.7668
11.1861
11.5882
11.9717
12.3357
12.6792
13.0019
13.3039
13.585
13.8453
14.0848
14.304
14.5034
14.6839
14.8463
14.9916
15.1208
15.2349
15.3349
15.4221
15.4973
15.5617
15.6161
15.6616
15.699
15.7293
15.7535
15.7728
15.7882
15.8017
15.8156
15.8346
15.8638
15.9254
16.01
-5.93813
-5.94031
-5.94332
-5.94572
-5.94732
-5.94863
-5.95009
-5.95195
-5.95433
-5.95729
-5.96088
-5.96511
-5.96997
-5.97543
-5.98134
-5.98756
-5.99411
-6.0012
-6.00925
-6.01883
-6.03014
-6.04269
-6.0559
-6.06988
-6.08498
-6.10091
-6.11742
-6.13456
-6.15232
-6.17134
-6.19226
-6.21476
-6.23798
-6.26153
-6.28558
-6.3101
-6.33503
-6.3603
-6.38587
-6.41167
-6.43766
-6.46379
-6.49
-6.51624
-6.54244
-6.56855
-6.5945
-6.62022
-6.64563
-6.67067
-6.69525
-6.71928
-6.74267
-6.76533
-6.78715
-6.80801
-6.82782
-6.84644
-6.86374
-6.8796
-6.89388
-6.90643
-6.91711
-6.92577
-6.93225
-6.93638
-6.93802
-6.93699
-6.93313
-6.92627
-6.91625
-6.9029
-6.88605
-6.86556
-6.84125
-6.81299
-6.78061
-6.74398
-6.70295
-6.6574
-6.60718
-6.55219
-6.49231
-6.42745
-6.35751
-6.28244
-6.20215
-6.11657
-6.02561
-5.92925
-5.8275
-5.72032
-5.60764
-5.48946
-5.3657
-5.23637
-5.1014
-4.96076
-4.81434
-4.6621
-4.50405
-4.34023
-4.1706
-3.99503
-3.81345
-3.62568
-3.43166
-3.2312
-3.0242
-2.81045
-2.58982
-2.36204
-2.12696
-1.88426
-1.63373
-1.37502
-1.10785
-0.831834
-0.546705
-0.252134
0.0521645
0.366599
0.691537
1.02737
1.37435
1.73273
2.10266
2.48424
2.87748
3.2823
3.69849
4.12569
4.56335
5.0107
5.46674
5.93021
6.3997
6.87361
7.35017
7.82743
8.30327
8.77548
9.24174
9.69978
10.1474
10.5824
11.003
11.4075
11.7945
12.1628
12.5116
12.8404
13.1488
13.4367
13.7039
13.9504
14.1765
14.383
14.5704
14.7396
14.8915
15.027
15.1473
15.2533
15.3461
15.4266
15.496
15.5552
15.6052
15.6468
15.6811
15.709
15.7318
15.7506
15.7673
15.784
15.805
15.8334
15.8871
15.9436
-5.92639
-5.93029
-5.9361
-5.94056
-5.94343
-5.94553
-5.94738
-5.94931
-5.95151
-5.95413
-5.95725
-5.96093
-5.9652
-5.97006
-5.97545
-5.98132
-5.98768
-5.99466
-6.00252
-6.01159
-6.02206
-6.03385
-6.04681
-6.06096
-6.07639
-6.093
-6.11054
-6.12883
-6.14767
-6.16711
-6.18735
-6.20845
-6.23032
-6.25287
-6.27605
-6.29979
-6.32401
-6.34863
-6.37358
-6.3988
-6.42422
-6.44981
-6.47549
-6.50123
-6.52696
-6.55262
-6.57814
-6.60347
-6.62853
-6.65324
-6.67753
-6.7013
-6.72447
-6.74694
-6.7686
-6.78936
-6.80908
-6.82766
-6.84496
-6.86085
-6.8752
-6.88787
-6.89869
-6.90754
-6.91424
-6.91864
-6.92058
-6.91989
-6.9164
-6.90996
-6.90038
-6.88752
-6.87119
-6.85125
-6.82752
-6.79987
-6.76813
-6.73217
-6.69184
-6.64701
-6.59755
-6.54335
-6.48428
-6.42026
-6.35119
-6.27698
-6.19758
-6.1129
-6.02284
-5.92741
-5.82658
-5.72032
-5.6086
-5.49136
-5.36861
-5.2403
-5.10641
-4.96689
-4.82167
-4.67073
-4.51405
-4.35165
-4.18347
-4.00941
-3.82937
-3.64324
-3.4509
-3.25224
-3.0471
-2.83533
-2.61675
-2.39116
-2.15834
-1.91806
-1.67005
-1.41401
-1.14964
-0.876595
-0.594599
-0.303335
-0.00249178
0.308327
0.629484
0.961338
1.30415
1.65816
2.02353
2.40036
2.7887
3.18846
3.59946
4.02139
4.45373
4.89575
5.3465
5.8048
6.26932
6.73855
7.21076
7.68407
8.1564
8.62562
9.08946
9.54576
9.99236
10.4273
10.8487
11.2549
11.6445
12.0162
12.369
12.7025
13.0159
13.3091
13.5816
13.8337
14.0657
14.2779
14.471
14.6459
14.8033
14.9443
15.0699
15.1809
15.2786
15.3638
15.4376
15.5009
15.5547
15.6
15.6377
15.6689
15.6946
15.7161
15.735
15.7534
15.7747
15.7998
15.8424
15.8722
-5.91364
-5.91931
-5.92813
-5.93493
-5.93943
-5.94271
-5.94541
-5.94789
-5.95041
-5.95319
-5.95635
-5.96
-5.96418
-5.96894
-5.9743
-5.98028
-5.98692
-5.99432
-6.0026
-6.01194
-6.02244
-6.03413
-6.04698
-6.061
-6.07622
-6.09257
-6.10997
-6.12827
-6.14731
-6.167
-6.18732
-6.20825
-6.22977
-6.25187
-6.27453
-6.29771
-6.32135
-6.3454
-6.36979
-6.39448
-6.4194
-6.44451
-6.46974
-6.49505
-6.52037
-6.54566
-6.57084
-6.59585
-6.62062
-6.64508
-6.66914
-6.69271
-6.71572
-6.73805
-6.75961
-6.78029
-6.79997
-6.81853
-6.83584
-6.85178
-6.8662
-6.87896
-6.88991
-6.89891
-6.90578
-6.91038
-6.91254
-6.9121
-6.90889
-6.90273
-6.89347
-6.88093
-6.86495
-6.84537
-6.82203
-6.79477
-6.76344
-6.7279
-6.68801
-6.64362
-6.59463
-6.5409
-6.48234
-6.41883
-6.3503
-6.27665
-6.19782
-6.11372
-6.02429
-5.92948
-5.82932
-5.72372
-5.61269
-5.49616
-5.37415
-5.24662
-5.11356
-4.97493
-4.83069
-4.68082
-4.5253
-4.36411
-4.19717
-4.02444
-3.84575
-3.66109
-3.47027
-3.27323
-3.06978
-2.85982
-2.6431
-2.41952
-2.18877
-1.95069
-1.70495
-1.45131
-1.18942
-0.919023
-0.639751
-0.351349
-0.0534141
0.254383
0.572471
0.901128
1.24068
1.59132
1.95327
2.32662
2.71144
3.10767
3.51515
3.93358
4.36248
4.80113
5.2486
5.70381
6.16545
6.63204
7.10191
7.57316
8.04381
8.51167
8.97465
9.43052
9.87726
10.3128
10.7354
11.1432
11.5349
11.9092
12.265
12.6016
12.9185
13.2152
13.4915
13.7475
13.9834
14.1996
14.3968
14.5757
14.7371
14.882
15.0113
15.1261
15.2272
15.3158
15.3928
15.4592
15.5159
15.5638
15.604
15.6374
15.665
15.6882
15.7082
15.7267
15.7466
15.7671
15.7986
15.806
-5.90241
-5.90974
-5.92116
-5.93011
-5.93624
-5.94085
-5.94461
-5.94792
-5.95109
-5.95437
-5.95794
-5.96192
-5.96642
-5.97149
-5.97719
-5.98358
-5.9907
-5.99864
-6.00748
-6.01731
-6.02819
-6.04014
-6.05316
-6.06725
-6.08238
-6.09853
-6.11563
-6.13362
-6.15239
-6.17185
-6.19196
-6.21266
-6.23391
-6.25568
-6.27797
-6.30073
-6.32393
-6.34753
-6.37148
-6.39573
-6.42024
-6.44494
-6.4698
-6.49476
-6.51976
-6.54475
-6.56967
-6.59444
-6.619
-6.64327
-6.66718
-6.69063
-6.71353
-6.73579
-6.7573
-6.77795
-6.79763
-6.81621
-6.83357
-6.84958
-6.86408
-6.87695
-6.88802
-6.89715
-6.90418
-6.90894
-6.91128
-6.91102
-6.908
-6.90205
-6.893
-6.88068
-6.86493
-6.84557
-6.82246
-6.79543
-6.76433
-6.72902
-6.68935
-6.6452
-6.59644
-6.54295
-6.48463
-6.42138
-6.35311
-6.27974
-6.2012
-6.11742
-6.02831
-5.93389
-5.83411
-5.72896
-5.61838
-5.50237
-5.3809
-5.25398
-5.12157
-4.98367
-4.84025
-4.69128
-4.53676
-4.37662
-4.21081
-4.03926
-3.86187
-3.67856
-3.48921
-3.29372
-3.09193
-2.88371
-2.66887
-2.44723
-2.21858
-1.98266
-1.73922
-1.48797
-1.22859
-0.960792
-0.684245
-0.398627
-0.103549
0.201363
0.5165
0.842173
1.17869
1.5263
1.88521
2.25557
2.63745
3.03084
3.4356
3.85144
4.27788
4.71425
5.15966
5.61302
6.07313
6.53849
7.00748
7.47819
7.94867
8.41675
8.88034
9.33724
9.78536
10.2226
10.6472
11.0573
11.4515
11.8284
12.187
12.5264
12.8462
13.1458
13.4251
13.684
13.9229
14.1421
14.3423
14.5241
14.6884
14.8361
14.9682
15.0856
15.1893
15.2803
15.3596
15.4281
15.4868
15.5366
15.5785
15.6133
15.6421
15.666
15.6862
15.7039
15.7213
15.7363
15.7581
15.7469
-5.89457
-5.90323
-5.91658
-5.92725
-5.93485
-5.94071
-5.94556
-5.94979
-5.95375
-5.9577
-5.96187
-5.9664
-5.97141
-5.97699
-5.9832
-5.99011
-5.99778
-6.00626
-6.01561
-6.02588
-6.03712
-6.04934
-6.06254
-6.07672
-6.09184
-6.10789
-6.12482
-6.14256
-6.16107
-6.18026
-6.2001
-6.22053
-6.2415
-6.263
-6.28498
-6.30742
-6.33028
-6.35354
-6.37715
-6.40106
-6.42525
-6.44965
-6.47423
-6.49893
-6.5237
-6.54848
-6.57322
-6.59783
-6.62226
-6.64643
-6.67026
-6.69365
-6.71652
-6.73877
-6.7603
-6.78098
-6.80071
-6.81935
-6.83679
-6.85289
-6.86749
-6.88047
-6.89166
-6.90092
-6.90807
-6.91297
-6.91544
-6.91532
-6.91242
-6.9066
-6.89767
-6.88546
-6.86981
-6.85056
-6.82753
-6.80058
-6.76956
-6.73431
-6.69469
-6.65059
-6.60187
-6.54841
-6.49012
-6.42691
-6.35867
-6.28535
-6.20687
-6.12316
-6.03417
-5.93986
-5.84026
-5.73532
-5.62499
-5.5093
-5.38819
-5.2617
-5.12979
-4.99247
-4.84971
-4.7015
-4.54782
-4.3886
-4.22381
-4.05332
-3.87714
-3.69509
-3.50714
-3.31311
-3.11293
-2.90639
-2.69338
-2.47364
-2.24704
-2.01326
-1.77209
-1.52318
-1.26631
-1.00108
-0.727234
-0.444341
-0.152075
0.150026
0.462273
0.78507
1.11867
1.46341
1.81948
2.1871
2.56635
2.95725
3.35969
3.77338
4.1979
4.63257
5.07655
5.52883
5.98817
6.45317
6.92213
7.39328
7.86456
8.3339
8.79908
9.25797
9.70834
10.1482
10.5754
10.9884
11.3854
11.7653
12.1267
12.469
12.7914
13.0937
13.3756
13.637
13.8784
14.1
14.3025
14.4866
14.6531
14.8029
14.937
15.0563
15.1619
15.2546
15.3355
15.4056
15.4656
15.5166
15.5595
15.5951
15.6244
15.6484
15.6681
15.6843
15.6985
15.708
15.7213
15.6944
-5.89115
-5.9007
-5.91523
-5.92711
-5.93584
-5.94277
-5.94859
-5.9537
-5.95844
-5.96312
-5.96794
-5.97307
-5.97866
-5.98479
-5.99155
-5.99899
-6.00717
-6.01614
-6.02594
-6.0366
-6.04815
-6.06059
-6.07394
-6.08819
-6.10331
-6.11928
-6.13607
-6.15363
-6.17191
-6.19087
-6.21047
-6.23065
-6.25138
-6.27263
-6.29437
-6.31656
-6.33918
-6.36219
-6.38556
-6.40924
-6.43321
-6.45742
-6.48182
-6.50637
-6.531
-6.55568
-6.58032
-6.60488
-6.62926
-6.65341
-6.67724
-6.70065
-6.72356
-6.74587
-6.76746
-6.78823
-6.80804
-6.82679
-6.84434
-6.86055
-6.87527
-6.88836
-6.89966
-6.90903
-6.91629
-6.92128
-6.92384
-6.92378
-6.92095
-6.91517
-6.90627
-6.89408
-6.87843
-6.85915
-6.83608
-6.80907
-6.77797
-6.74262
-6.7029
-6.65867
-6.60981
-6.55621
-6.49777
-6.43439
-6.366
-6.29253
-6.21391
-6.13009
-6.04099
-5.94665
-5.84703
-5.74211
-5.63187
-5.51631
-5.39542
-5.26921
-5.13767
-5.0008
-4.85859
-4.71104
-4.55808
-4.3997
-4.23581
-4.06636
-3.89127
-3.71045
-3.52381
-3.33123
-3.13257
-2.9277
-2.71644
-2.4986
-2.27398
-2.04231
-1.80334
-1.55677
-1.30232
-1.03963
-0.768382
-0.488155
-0.198563
0.100814
0.410336
0.730388
1.06128
1.40334
1.75682
2.12195
2.49886
2.88758
3.28803
3.69996
4.12294
4.55636
4.9994
5.45111
5.91026
6.37548
6.8451
7.31732
7.79009
8.26132
8.72876
9.19021
9.64342
10.0862
10.5166
10.9328
11.333
11.7158
12.0802
12.4253
12.7504
13.0552
13.3393
13.603
13.8464
14.0699
14.2743
14.4601
14.6283
14.7797
14.9153
15.036
15.1428
15.2367
15.3188
15.3898
15.4507
15.5024
15.5458
15.5818
15.6111
15.6346
15.6533
15.6674
15.6783
15.6822
15.6881
15.6477
-5.89244
-5.9024
-5.91741
-5.92994
-5.93943
-5.94713
-5.95372
-5.95957
-5.965
-5.97032
-5.97575
-5.98145
-5.98757
-5.99421
-6.00145
-6.00935
-6.01796
-6.02733
-6.03749
-6.04845
-6.06025
-6.07288
-6.08634
-6.10064
-6.11576
-6.13167
-6.14835
-6.16576
-6.18387
-6.20265
-6.22205
-6.24204
-6.26259
-6.28365
-6.30521
-6.32723
-6.34968
-6.37253
-6.39576
-6.41932
-6.44317
-6.46729
-6.49161
-6.5161
-6.5407
-6.56536
-6.59001
-6.61459
-6.63902
-6.66322
-6.68712
-6.71063
-6.73364
-6.75606
-6.77777
-6.79866
-6.8186
-6.83748
-6.85515
-6.87148
-6.88632
-6.89952
-6.91092
-6.92037
-6.9277
-6.93274
-6.93532
-6.93528
-6.93243
-6.92662
-6.91765
-6.90536
-6.88959
-6.87017
-6.84693
-6.81972
-6.7884
-6.7528
-6.71281
-6.66829
-6.61913
-6.56522
-6.50645
-6.44275
-6.37403
-6.30024
-6.22132
-6.1372
-6.04788
-5.95329
-5.85352
-5.74847
-5.63818
-5.52262
-5.40183
-5.27579
-5.14452
-5.00802
-4.86628
-4.7193
-4.56701
-4.40941
-4.24638
-4.07793
-3.90392
-3.72432
-3.53897
-3.34783
-3.15068
-2.94748
-2.73796
-2.52202
-2.29936
-2.06981
-1.83302
-1.58878
-1.33671
-1.07653
-0.80779
-0.530143
-0.2431
0.0536698
0.360632
0.678101
1.00649
1.34609
1.69724
2.06014
2.43498
2.82181
3.22058
3.63106
4.05286
4.4854
4.92795
5.37954
5.83903
6.305
6.77586
7.2497
7.72455
8.1982
8.66844
9.1329
9.58936
10.0355
10.4693
10.8888
11.2923
11.6783
12.0457
12.3935
12.7211
13.0281
13.3143
13.5799
13.825
14.0501
14.2559
14.443
14.6124
14.7648
14.9014
15.023
15.1307
15.2253
15.308
15.3795
15.4409
15.4929
15.5365
15.5723
15.6013
15.624
15.6411
15.6529
15.6602
15.6587
15.6582
15.6063
-5.89819
-5.90813
-5.92299
-5.93564
-5.94549
-5.95365
-5.96075
-5.96712
-5.97308
-5.97891
-5.98482
-5.99098
-5.99753
-6.00457
-6.01219
-6.02044
-6.02938
-6.03903
-6.04944
-6.06062
-6.07259
-6.08534
-6.09889
-6.11323
-6.12834
-6.1442
-6.16081
-6.17812
-6.19612
-6.21477
-6.23403
-6.25389
-6.27431
-6.29526
-6.31671
-6.33863
-6.361
-6.3838
-6.40697
-6.4305
-6.45434
-6.47845
-6.5028
-6.52732
-6.55198
-6.57671
-6.60144
-6.62612
-6.65067
-6.67501
-6.69905
-6.7227
-6.74586
-6.76843
-6.79029
-6.81133
-6.83143
-6.85044
-6.86824
-6.88469
-6.89963
-6.91291
-6.92438
-6.93387
-6.94121
-6.94624
-6.94878
-6.94867
-6.94572
-6.93977
-6.93063
-6.91814
-6.90213
-6.88244
-6.8589
-6.83135
-6.79965
-6.76367
-6.72325
-6.67829
-6.62867
-6.57428
-6.51503
-6.45084
-6.38164
-6.30738
-6.228
-6.14346
-6.05371
-5.95882
-5.85872
-5.75345
-5.64298
-5.52734
-5.40654
-5.2806
-5.14953
-5.01334
-4.87203
-4.72558
-4.57395
-4.41708
-4.25495
-4.08746
-3.91457
-3.73617
-3.55216
-3.36244
-3.16687
-2.96532
-2.7576
-2.54354
-2.3229
-2.09544
-1.86088
-1.61894
-1.36928
-1.11154
-0.845288
-0.570113
-0.285578
0.00871042
0.313186
0.628223
0.95423
1.29155
1.64051
2.00137
2.37432
2.75944
3.15674
3.56603
3.98695
4.41897
4.86141
5.31335
5.77365
6.2409
6.71347
7.18947
7.66687
8.14343
8.61686
9.08476
9.54478
9.99458
10.432
10.855
11.2619
11.651
12.0213
12.3717
12.7017
13.0108
13.2988
13.566
13.8125
14.0388
14.2456
14.4337
14.6038
14.757
14.8942
15.0163
15.1244
15.2194
15.3023
15.374
15.4355
15.4875
15.5308
15.5662
15.5944
15.6159
15.6313
15.6406
15.6442
15.6376
15.6314
15.5696
-5.90779
-5.91735
-5.93151
-5.94382
-5.95364
-5.96195
-5.96928
-5.97595
-5.98223
-5.98839
-5.99462
-6.0011
-6.00794
-6.01526
-6.02313
-6.03161
-6.04075
-6.05059
-6.06116
-6.07247
-6.08453
-6.09736
-6.11094
-6.12529
-6.14039
-6.15622
-6.17278
-6.19003
-6.20796
-6.22654
-6.24574
-6.26553
-6.28589
-6.30679
-6.32821
-6.35013
-6.3725
-6.39531
-6.41853
-6.44211
-6.46602
-6.49022
-6.51467
-6.53932
-6.56411
-6.58898
-6.61388
-6.63872
-6.66345
-6.68796
-6.71218
-6.73602
-6.75936
-6.7821
-6.80413
-6.82533
-6.84556
-6.86471
-6.88261
-6.89914
-6.91415
-6.92746
-6.93893
-6.94839
-6.95568
-6.96061
-6.96303
-6.96274
-6.95959
-6.95338
-6.94396
-6.93114
-6.91477
-6.89466
-6.87068
-6.84265
-6.81044
-6.77391
-6.73293
-6.68738
-6.63714
-6.58213
-6.52225
-6.45743
-6.38761
-6.31274
-6.23278
-6.14768
-6.05745
-5.96207
-5.86159
-5.75599
-5.64527
-5.52947
-5.40861
-5.28272
-5.15181
-5.01591
-4.87501
-4.72908
-4.5781
-4.422
-4.26077
-4.09428
-3.92253
-3.74535
-3.56273
-3.37445
-3.18049
-2.98062
-2.77475
-2.56259
-2.34401
-2.11867
-1.88639
-1.64677
-1.39953
-1.14421
-0.880441
-0.607704
-0.325661
-0.0338156
0.268185
0.580835
0.904487
1.23958
1.58642
1.94532
2.3165
2.7001
3.09614
3.5045
3.92486
4.35674
4.79947
5.25219
5.71372
6.18272
6.65744
7.13606
7.61641
8.09629
8.57327
9.04494
9.5088
9.96248
10.4037
10.8303
11.2406
11.6329
12.0059
12.3589
12.691
13.002
13.2917
13.5601
13.8077
14.0349
14.2425
14.4311
14.6017
14.7552
14.8926
15.0149
15.123
15.218
15.3009
15.3725
15.4337
15.4853
15.5281
15.5628
15.5899
15.6101
15.6235
15.63
15.63
15.6187
15.6073
15.5371
-5.9204
-5.92929
-5.94236
-5.95393
-5.96339
-5.97153
-5.97883
-5.98554
-5.99193
-5.99822
-6.00461
-6.01124
-6.01824
-6.02569
-6.03368
-6.04227
-6.05151
-6.06143
-6.07206
-6.08342
-6.09551
-6.10836
-6.12195
-6.1363
-6.15138
-6.16719
-6.18372
-6.20095
-6.21885
-6.23741
-6.2566
-6.27639
-6.29676
-6.3177
-6.33916
-6.36114
-6.3836
-6.40651
-6.42984
-6.45355
-6.47761
-6.50197
-6.52659
-6.55141
-6.57639
-6.60147
-6.62657
-6.65162
-6.67655
-6.70127
-6.72568
-6.7497
-6.77322
-6.79613
-6.8183
-6.83963
-6.85997
-6.87919
-6.89715
-6.9137
-6.92868
-6.94195
-6.95334
-6.96268
-6.9698
-6.97453
-6.97669
-6.97612
-6.97263
-6.96605
-6.9562
-6.94292
-6.92603
-6.90538
-6.88081
-6.85216
-6.81929
-6.78208
-6.74038
-6.6941
-6.64312
-6.58735
-6.52672
-6.46115
-6.39059
-6.315
-6.23435
-6.14861
-6.05777
-5.96188
-5.86094
-5.75495
-5.64394
-5.52794
-5.40699
-5.28113
-5.15038
-5.01477
-4.87429
-4.72891
-4.5786
-4.42332
-4.263
-4.0976
-3.927
-3.75114
-3.56989
-3.38316
-3.19081
-2.99271
-2.7887
-2.57855
-2.36206
-2.13896
-1.90898
-1.67179
-1.42701
-1.17421
-0.912938
-0.642743
-0.363212
-0.0738859
0.225654
0.535886
0.857221
1.19011
1.53491
1.89197
2.26154
2.6438
3.03882
3.4465
3.86659
4.29866
4.74205
5.19591
5.65909
6.13017
6.60744
7.089
7.57268
8.05618
8.53702
9.01268
9.48061
9.93831
10.3834
10.8137
11.2274
11.6227
11.9985
12.3539
12.688
13.0007
13.2916
13.5611
13.8095
14.0373
14.2453
14.4342
14.6049
14.7584
14.8958
15.0179
15.1258
15.2206
15.3031
15.3743
15.435
15.486
15.528
15.5618
15.5877
15.6062
15.6175
15.6213
15.6177
15.6019
15.5859
15.5083
-5.93513
-5.94315
-5.95482
-5.96536
-5.97417
-5.98187
-5.98887
-5.9954
-6.00168
-6.00791
-6.01426
-6.02087
-6.02785
-6.0353
-6.04328
-6.05187
-6.06109
-6.071
-6.08162
-6.09296
-6.10504
-6.11788
-6.13146
-6.14579
-6.16086
-6.17667
-6.1932
-6.21042
-6.22833
-6.24691
-6.26613
-6.28597
-6.30642
-6.32745
-6.34903
-6.37114
-6.39374
-6.41682
-6.44032
-6.46422
-6.48847
-6.51304
-6.53786
-6.5629
-6.5881
-6.61338
-6.63869
-6.66395
-6.68907
-6.71398
-6.73856
-6.76273
-6.78638
-6.80939
-6.83164
-6.85302
-6.87337
-6.89258
-6.91049
-6.92695
-6.94181
-6.95491
-6.96609
-6.97517
-6.98199
-6.98638
-6.98815
-6.98714
-6.98317
-6.97606
-6.96564
-6.95175
-6.93421
-6.91286
-6.88756
-6.85815
-6.82449
-6.78646
-6.74394
-6.6968
-6.64496
-6.58834
-6.52685
-6.46044
-6.38906
-6.31268
-6.23128
-6.14484
-6.05338
-5.9569
-5.85546
-5.74906
-5.63773
-5.52153
-5.40049
-5.27468
-5.14411
-5.00883
-4.86879
-4.72402
-4.57444
-4.42005
-4.26073
-4.09648
-3.92712
-3.75265
-3.57289
-3.38779
-3.19717
-3.00095
-2.7989
-2.59088
-2.37659
-2.15585
-1.92829
-1.69364
-1.4514
-1.2012
-0.942487
-0.674895
-0.397892
-0.111126
0.185958
0.493766
0.812833
1.14356
1.48643
1.84177
2.20989
2.59101
2.98523
3.39249
3.8126
4.24515
4.68956
5.14489
5.61005
6.08355
6.5637
7.04848
7.53576
8.0231
8.50801
8.98782
9.45994
9.92173
10.3708
10.8047
11.2217
11.62
11.9984
12.3559
12.6918
13.0059
13.2979
13.5682
13.8171
14.0452
14.2533
14.4422
14.6127
14.766
14.9029
15.0246
15.1321
15.2263
15.3082
15.3788
15.4388
15.489
15.5301
15.5627
15.5872
15.6039
15.613
15.614
15.607
15.587
15.5668
15.483
-5.95111
-5.95811
-5.96822
-5.97751
-5.98543
-5.99247
-5.99894
-6.00505
-6.01099
-6.01694
-6.02306
-6.02948
-6.03629
-6.04359
-6.05144
-6.05991
-6.06904
-6.07887
-6.08941
-6.10069
-6.11273
-6.12552
-6.13908
-6.15338
-6.16844
-6.18424
-6.20077
-6.21801
-6.23595
-6.25458
-6.27388
-6.29382
-6.31438
-6.33555
-6.35728
-6.37956
-6.40236
-6.42563
-6.44933
-6.47343
-6.49789
-6.52265
-6.54767
-6.5729
-6.59828
-6.62374
-6.64921
-6.67461
-6.69986
-6.72487
-6.74953
-6.77375
-6.79741
-6.82041
-6.84261
-6.8639
-6.88413
-6.90317
-6.92088
-6.93709
-6.95167
-6.96444
-6.97524
-6.9839
-6.99026
-6.99413
-6.99536
-6.99375
-6.98914
-6.98135
-6.97021
-6.95556
-6.93723
-6.91507
-6.88891
-6.85862
-6.82407
-6.78512
-6.74166
-6.69359
-6.64082
-6.58326
-6.52085
-6.45354
-6.3813
-6.30409
-6.22191
-6.13476
-6.04262
-5.94558
-5.84364
-5.73683
-5.62521
-5.50883
-5.38776
-5.26205
-5.13174
-4.99684
-4.85737
-4.71328
-4.56456
-4.41115
-4.25299
-4.08997
-3.92202
-3.74903
-3.57091
-3.38754
-3.19881
-3.00458
-2.80466
-2.59887
-2.38696
-2.16869
-1.94372
-1.71168
-1.47211
-1.22454
-0.968467
-0.703474
-0.429089
-0.144873
0.149715
0.455155
0.771978
1.10065
1.44166
1.79541
2.16225
2.54242
2.93607
3.34315
3.76353
4.19686
4.64255
5.09968
5.56709
6.0433
6.52653
7.01478
7.50581
7.99715
8.48619
8.97022
9.44652
9.91239
10.3653
10.8028
11.2229
11.624
12.0047
12.3642
12.7016
13.0168
13.3097
13.5805
13.8296
14.0577
14.2656
14.4542
14.6243
14.777
14.9134
15.0344
15.1412
15.2347
15.3158
15.3856
15.4447
15.4939
15.5339
15.5652
15.5882
15.6031
15.61
15.6082
15.5979
15.5741
15.5499
15.4607
-5.96756
-5.97348
-5.98195
-5.98985
-5.99671
-6.00286
-6.00857
-6.01403
-6.01942
-6.02489
-6.03058
-6.03663
-6.04312
-6.05014
-6.05776
-6.06602
-6.07497
-6.08463
-6.09504
-6.10621
-6.11815
-6.13086
-6.14435
-6.15862
-6.17365
-6.18944
-6.20597
-6.22325
-6.24125
-6.25996
-6.27935
-6.2994
-6.32009
-6.3414
-6.36328
-6.38572
-6.40867
-6.4321
-6.45595
-6.4802
-6.50478
-6.52967
-6.55479
-6.58012
-6.60557
-6.63109
-6.65659
-6.68199
-6.70721
-6.73216
-6.75673
-6.78082
-6.80432
-6.82712
-6.84908
-6.87009
-6.89001
-6.90869
-6.926
-6.94178
-6.95587
-6.96813
-6.97837
-6.98644
-6.99216
-6.99536
-6.99587
-6.99352
-6.98812
-6.97952
-6.96753
-6.952
-6.93277
-6.90968
-6.88258
-6.85132
-6.81579
-6.77586
-6.73141
-6.68236
-6.62861
-6.57009
-6.50674
-6.43853
-6.36542
-6.28738
-6.20445
-6.11657
-6.02384
-5.92624
-5.82386
-5.71672
-5.60489
-5.48843
-5.36744
-5.24194
-5.11202
-4.97765
-4.83888
-4.69563
-4.54794
-4.39566
-4.2388
-4.07717
-3.91077
-3.73942
-3.56308
-3.38158
-3.19488
-3.00276
-2.80512
-2.6017
-2.39232
-2.17664
-1.95437
-1.725
-1.48814
-1.24319
-0.989804
-0.727441
-0.455724
-0.174042
0.118062
0.421202
0.735841
1.06257
1.40184
1.75415
2.11985
2.49927
2.89254
3.2997
3.72059
4.15492
4.60208
5.0612
5.53103
6.01009
6.4965
6.98828
7.48308
7.9784
8.47151
8.95966
9.44
9.9098
10.3664
10.8072
11.2303
11.6338
12.0166
12.3777
12.7164
13.0324
13.3258
13.5968
13.8459
14.0738
14.2813
14.4693
14.6388
14.7907
14.9263
15.0465
15.1524
15.245
15.3252
15.394
15.4521
15.5003
15.5392
15.5691
15.5905
15.6036
15.6082
15.6037
15.5903
15.5628
15.535
15.4414
-5.98451
-5.98937
-5.99622
-6.00265
-6.00824
-6.01326
-6.01795
-6.02248
-6.02703
-6.03175
-6.03679
-6.04225
-6.04822
-6.05479
-6.062
-6.06991
-6.07855
-6.08795
-6.09813
-6.1091
-6.12086
-6.13343
-6.1468
-6.16097
-6.17592
-6.19166
-6.20817
-6.22544
-6.24344
-6.26215
-6.28156
-6.30164
-6.32237
-6.34373
-6.36566
-6.38814
-6.41112
-6.43457
-6.45843
-6.48266
-6.50722
-6.53205
-6.55709
-6.58231
-6.60763
-6.63297
-6.65827
-6.68345
-6.7084
-6.73304
-6.75727
-6.78098
-6.80407
-6.82642
-6.8479
-6.86839
-6.88775
-6.90585
-6.92254
-6.93767
-6.95108
-6.96262
-6.97212
-6.97942
-6.98434
-6.98671
-6.98637
-6.98313
-6.97683
-6.9673
-6.95437
-6.93789
-6.91768
-6.8936
-6.86551
-6.83326
-6.79673
-6.7558
-6.71038
-6.66034
-6.60565
-6.54621
-6.48199
-6.41293
-6.33902
-6.26026
-6.17664
-6.08818
-5.99491
-5.89691
-5.79422
-5.68689
-5.57499
-5.45862
-5.33785
-5.21276
-5.08337
-4.94973
-4.81183
-4.66965
-4.52312
-4.3722
-4.21677
-4.05675
-3.89201
-3.72248
-3.54804
-3.3686
-3.18404
-2.99423
-2.79898
-2.59811
-2.39137
-2.17843
-1.95889
-1.73226
-1.49806
-1.25581
-1.00513
-0.745496
-0.476408
-0.197283
0.0924157
0.393279
0.705845
1.03071
1.36837
1.71935
2.08406
2.46284
2.85587
3.26321
3.68476
4.12017
4.56889
5.02999
5.50224
5.98407
6.47362
6.96878
7.46723
7.96631
8.4633
8.95529
9.43942
9.91287
10.3729
10.8168
11.2424