/*--------------------------------*- C++ -*----------------------------------*\
  =========                 |
  \\      /  F ield         | OpenFOAM: The Open Source CFD Toolbox
   \\    /   O peration     | Website:  https://openfoam.org
    \\  /    A nd           | Version:  8
     \\/     M anipulation  |
\*---------------------------------------------------------------------------*/
FoamFile
{
    version     2.0;
    format      ascii;
    class       surfaceScalarField;
    location    "170";
    object      phi;
}
// * * * * * * * * * * * * * * * * * * * * * * * * * * * * * * * * * * * * * //

dimensions      [0 3 -1 0 0 0 0];

internalField   nonuniform List<scalar> 
24170
(
3.129e-06
5.9401e-08
3.04662e-06
8.2387e-08
2.97352e-06
7.31005e-08
2.90487e-06
6.86461e-08
2.84052e-06
6.4345e-08
2.78317e-06
5.73477e-08
2.73383e-06
4.93483e-08
2.69184e-06
4.19825e-08
2.65613e-06
3.57131e-08
2.62563e-06
3.04961e-08
2.59936e-06
2.62664e-08
2.57648e-06
2.28804e-08
2.5563e-06
2.01802e-08
2.53823e-06
1.80713e-08
2.52183e-06
1.63994e-08
2.5059e-06
1.5931e-08
2.49082e-06
1.50753e-08
2.24971e-08
2.46832e-06
3.45306e-06
2.35867e-08
3.457e-06
7.84451e-08
3.45054e-06
7.95654e-08
3.43908e-06
8.01071e-08
3.42429e-06
7.91313e-08
3.40703e-06
7.46052e-08
3.3878e-06
6.85832e-08
3.36725e-06
6.25283e-08
3.34607e-06
5.68857e-08
3.32486e-06
5.17103e-08
3.30408e-06
4.70405e-08
3.28402e-06
4.29426e-08
3.26486e-06
3.93374e-08
3.24663e-06
3.63002e-08
3.22942e-06
3.36115e-08
3.21316e-06
3.21902e-08
3.1982e-06
3.00329e-08
3.35869e-08
3.18711e-06
3.66816e-06
1.79458e-08
3.6792e-06
6.74058e-08
3.68542e-06
7.33424e-08
3.68945e-06
7.60793e-08
3.69103e-06
7.75421e-08
3.69006e-06
7.55825e-08
3.6869e-06
7.17347e-08
3.68204e-06
6.73887e-08
3.67587e-06
6.30624e-08
3.66869e-06
5.88821e-08
3.6608e-06
5.49296e-08
3.65244e-06
5.13071e-08
3.64378e-06
4.79954e-08
3.63498e-06
4.51035e-08
3.62609e-06
4.2503e-08
3.6175e-06
4.07723e-08
3.6086e-06
3.89366e-08
3.95315e-08
3.60265e-06
3.92585e-06
1.74871e-08
3.93591e-06
5.73387e-08
3.94256e-06
6.66963e-08
3.94809e-06
7.05462e-08
3.9525e-06
7.31374e-08
3.95543e-06
7.26472e-08
3.95708e-06
7.00809e-08
3.9577e-06
6.67756e-08
3.95746e-06
6.33014e-08
3.95651e-06
5.98285e-08
3.95499e-06
5.64506e-08
3.95301e-06
5.32839e-08
3.95066e-06
5.03399e-08
3.94805e-06
4.77177e-08
3.9452e-06
4.53568e-08
3.9424e-06
4.35647e-08
3.93941e-06
4.19283e-08
4.11874e-08
3.93775e-06
4.2082e-06
1.64162e-08
4.21598e-06
4.95577e-08
4.22167e-06
6.10044e-08
4.22677e-06
6.54494e-08
4.2315e-06
6.84e-08
4.23546e-06
6.86897e-08
4.23861e-06
6.69303e-08
4.24106e-06
6.43208e-08
4.24293e-06
6.14372e-08
4.24429e-06
5.84684e-08
4.24522e-06
5.55158e-08
4.24581e-06
5.26944e-08
4.24611e-06
5.00398e-08
4.2462e-06
4.76303e-08
4.24611e-06
4.5445e-08
4.24604e-06
4.36321e-08
4.24597e-06
4.20006e-08
4.06684e-08
4.24649e-06
4.51071e-06
1.4795e-08
4.51688e-06
4.33888e-08
4.52212e-06
5.57622e-08
4.52693e-06
6.06415e-08
4.53163e-06
6.3699e-08
4.53586e-06
6.44555e-08
4.53951e-06
6.32747e-08
4.54265e-06
6.11822e-08
4.54535e-06
5.87421e-08
4.54766e-06
5.61562e-08
4.54964e-06
5.35353e-08
4.55135e-06
5.09869e-08
4.55282e-06
4.85628e-08
4.55413e-06
4.63205e-08
4.55532e-06
4.42586e-08
4.55651e-06
4.24357e-08
4.55777e-06
4.07459e-08
3.9117e-08
4.55932e-06
4.83433e-06
1.31865e-08
4.83962e-06
3.80954e-08
4.84474e-06
5.06442e-08
4.84943e-06
5.59473e-08
4.85405e-06
5.9078e-08
4.85835e-06
6.01532e-08
4.86221e-06
5.94211e-08
4.86565e-06
5.77399e-08
4.86874e-06
5.56542e-08
4.87152e-06
5.33771e-08
4.87402e-06
5.10272e-08
4.87631e-06
4.87045e-08
4.8784e-06
4.64685e-08
4.88036e-06
4.43623e-08
4.88223e-06
4.23908e-08
4.88409e-06
4.05668e-08
4.88602e-06
3.88182e-08
3.70391e-08
4.8881e-06
5.18105e-06
1.17217e-08
5.18575e-06
3.33936e-08
5.19074e-06
4.56491e-08
5.19538e-06
5.13055e-08
5.19996e-06
5.45046e-08
5.2043e-06
5.58094e-08
5.20828e-06
5.54437e-08
5.2119e-06
5.41117e-08
5.21523e-06
5.23278e-08
5.21829e-06
5.03155e-08
5.22112e-06
4.8198e-08
5.22375e-06
4.60703e-08
5.22623e-06
4.39939e-08
5.22859e-06
4.20036e-08
5.23087e-06
4.01052e-08
5.23315e-06
3.82913e-08
5.23546e-06
3.65075e-08
3.46653e-08
5.23783e-06
5.55269e-06
1.0368e-08
5.55688e-06
2.92017e-08
5.56168e-06
4.08492e-08
5.56628e-06
4.67068e-08
5.57083e-06
4.99526e-08
5.57522e-06
5.14197e-08
5.57931e-06
5.13573e-08
5.58309e-06
5.0333e-08
5.58659e-06
4.8818e-08
5.58987e-06
4.70431e-08
5.59293e-06
4.5134e-08
5.59582e-06
4.31821e-08
5.59856e-06
4.12482e-08
5.6012e-06
3.93631e-08
5.60378e-06
3.75328e-08
5.60632e-06
3.57445e-08
5.60887e-06
3.39564e-08
3.21103e-08
5.61143e-06
5.95104e-06
9.1067e-09
5.95478e-06
2.54588e-08
5.95935e-06
3.62833e-08
5.96389e-06
4.21613e-08
5.96842e-06
4.54178e-08
5.97285e-06
4.69902e-08
5.97704e-06
4.71717e-08
5.98095e-06
4.64174e-08
5.98463e-06
4.51457e-08
5.98808e-06
4.35883e-08
5.99134e-06
4.18718e-08
5.99444e-06
4.00843e-08
5.9974e-06
3.82842e-08
6.00026e-06
3.65017e-08
6.00305e-06
3.47437e-08
6.0058e-06
3.29995e-08
6.00851e-06
3.12395e-08
2.94327e-08
6.01119e-06
6.37798e-06
7.93728e-09
6.38134e-06
2.20998e-08
6.38566e-06
3.19617e-08
6.39014e-06
3.76852e-08
6.39465e-06
4.09054e-08
6.39911e-06
4.25323e-08
6.40338e-06
4.28985e-08
6.40742e-06
4.23748e-08
6.41124e-06
4.13223e-08
6.41487e-06
3.9965e-08
6.41831e-06
3.84292e-08
6.42159e-06
3.67986e-08
6.42475e-06
3.51299e-08
6.4278e-06
3.34529e-08
6.43076e-06
3.17775e-08
6.43366e-06
3.0098e-08
6.43651e-06
2.83963e-08
2.66624e-08
6.43928e-06
5.74176e-06
7.01252e-09
5.74434e-06
1.95202e-08
5.7478e-06
2.84979e-08
5.75152e-06
3.39648e-08
5.75531e-06
3.71122e-08
5.7591e-06
3.87509e-08
5.76276e-06
3.92284e-08
5.76627e-06
3.88667e-08
5.76961e-06
3.79804e-08
5.7728e-06
3.678e-08
5.77584e-06
3.53887e-08
5.77875e-06
3.38872e-08
5.78155e-06
3.23298e-08
5.78425e-06
3.07474e-08
5.78688e-06
2.91519e-08
5.78943e-06
2.75436e-08
5.79192e-06
2.59116e-08
2.42611e-08
5.79432e-06
6.99914e-06
6.0305e-09
7.00187e-06
1.67902e-08
7.00563e-06
2.47389e-08
7.00978e-06
2.98052e-08
7.0141e-06
3.2801e-08
7.01844e-06
3.44071e-08
7.0227e-06
3.49659e-08
7.02681e-06
3.47532e-08
7.03076e-06
3.40335e-08
7.03454e-06
3.29978e-08
7.03817e-06
3.17635e-08
7.04165e-06
3.04067e-08
7.045e-06
2.89794e-08
7.04823e-06
2.75125e-08
7.05136e-06
2.60218e-08
7.05439e-06
2.45125e-08
7.05732e-06
2.2982e-08
2.14452e-08
7.06014e-06
8.53188e-06
4.9987e-09
8.53473e-06
1.39367e-08
8.53876e-06
2.0712e-08
8.54335e-06
2.52128e-08
8.5482e-06
2.79526e-08
8.55314e-06
2.9462e-08
8.55805e-06
3.00555e-08
8.56284e-06
2.99641e-08
8.56747e-06
2.94022e-08
8.57194e-06
2.85339e-08
8.57623e-06
2.74671e-08
8.58037e-06
2.62719e-08
8.58435e-06
2.49965e-08
8.58819e-06
2.36719e-08
8.59189e-06
2.23166e-08
8.59546e-06
2.09409e-08
8.5989e-06
1.95482e-08
1.81607e-08
8.60218e-06
1.04003e-05
3.92615e-09
1.04032e-05
1.09789e-08
1.04075e-05
1.64382e-08
1.04125e-05
2.01954e-08
1.04179e-05
2.2549e-08
1.04235e-05
2.38773e-08
1.04291e-05
2.44411e-08
1.04347e-05
2.44285e-08
1.04401e-05
2.40036e-08
1.04453e-05
2.32995e-08
1.04504e-05
2.2408e-08
1.04552e-05
2.13917e-08
1.04599e-05
2.02931e-08
1.04645e-05
1.91424e-08
1.04688e-05
1.79587e-08
1.0473e-05
1.67565e-08
1.0477e-05
1.5542e-08
1.43416e-08
1.04808e-05
1.26779e-05
2.8174e-09
1.2681e-05
7.91068e-09
1.26855e-05
1.19149e-08
1.26909e-05
1.47458e-08
1.26969e-05
1.65614e-08
1.27032e-05
1.76016e-08
1.27096e-05
1.80569e-08
1.27159e-05
1.80664e-08
1.27222e-05
1.77475e-08
1.27283e-05
1.7197e-08
1.27342e-05
1.6487e-08
1.27399e-05
1.56671e-08
1.27455e-05
1.47735e-08
1.27508e-05
1.38315e-08
1.27559e-05
1.28605e-08
1.27608e-05
1.18741e-08
1.27654e-05
1.08816e-08
9.90764e-09
1.27699e-05
1.54543e-05
1.66139e-09
1.54576e-05
4.68515e-09
1.54624e-05
7.08352e-09
1.54683e-05
8.8026e-09
1.5475e-05
9.91395e-09
1.5482e-05
1.05433e-08
1.54893e-05
1.08002e-08
1.54966e-05
1.07685e-08
1.55038e-05
1.05184e-08
1.55109e-05
1.01088e-08
1.55178e-05
9.58579e-09
1.55245e-05
8.98273e-09
1.55309e-05
8.32475e-09
1.55371e-05
7.63075e-09
1.55431e-05
6.91555e-09
1.55488e-05
6.1911e-09
1.55542e-05
5.46504e-09
4.75952e-09
1.55593e-05
1.88389e-05
4.17533e-10
1.88424e-05
1.17712e-09
1.88477e-05
1.76902e-09
1.88543e-05
2.17331e-09
1.88618e-05
2.40728e-09
1.88699e-05
2.49907e-09
1.88782e-05
2.4706e-09
1.88866e-05
2.34145e-09
1.8895e-05
2.1314e-09
1.89033e-05
1.8583e-09
1.89113e-05
1.5369e-09
1.89191e-05
1.17928e-09
1.89267e-05
7.95775e-10
1.89339e-05
3.95177e-10
1.89408e-05
-1.48678e-11
1.89474e-05
-4.27379e-10
1.89537e-05
-8.38089e-10
-1.22988e-09
1.89597e-05
2.29648e-05
-1.0159e-09
2.29689e-05
-2.90316e-09
2.29751e-05
-4.44883e-09
2.29829e-05
-5.61949e-09
2.29917e-05
-6.43748e-09
2.30012e-05
-6.98947e-09
2.3011e-05
-7.36218e-09
2.3021e-05
-7.61101e-09
2.30309e-05
-7.77234e-09
2.30406e-05
-7.87819e-09
2.30501e-05
-7.95219e-09
2.30593e-05
-8.00945e-09
2.30681e-05
-8.05784e-09
2.30766e-05
-8.10206e-09
2.30848e-05
-8.14399e-09
2.30925e-05
-8.18383e-09
2.30999e-05
-8.2219e-09
-8.24773e-09
2.31069e-05
1.68118e-05
-2.14166e-09
1.6815e-05
-6.08091e-09
1.68198e-05
-9.29026e-09
1.68259e-05
-1.16327e-08
1.68326e-05
-1.31702e-08
1.68397e-05
-1.41294e-08
1.68471e-05
-1.46991e-08
1.68544e-05
-1.49817e-08
1.68617e-05
-1.50579e-08
1.68688e-05
-1.49986e-08
1.68757e-05
-1.48578e-08
1.68824e-05
-1.46675e-08
1.68888e-05
-1.44497e-08
1.68949e-05
-1.4217e-08
1.69007e-05
-1.39791e-08
1.69063e-05
-1.37395e-08
1.69116e-05
-1.35025e-08
-1.32602e-08
1.69166e-05
1.46356e-05
-3.22283e-09
1.46387e-05
-9.17446e-09
1.46435e-05
-1.40149e-08
1.46492e-05
-1.73913e-08
1.46555e-05
-1.94756e-08
1.46621e-05
-2.07182e-08
1.46688e-05
-2.13884e-08
1.46754e-05
-2.16233e-08
1.46819e-05
-2.1553e-08
1.46882e-05
-2.1295e-08
1.46943e-05
-2.09244e-08
1.47001e-05
-2.04864e-08
1.47057e-05
-2.00107e-08
1.4711e-05
-1.95188e-08
1.4716e-05
-1.90237e-08
1.47208e-05
-1.85329e-08
1.47254e-05
-1.80509e-08
-1.75739e-08
1.47297e-05
1.27411e-05
-4.23519e-09
1.27443e-05
-1.2308e-08
1.27491e-05
-1.88552e-08
1.27548e-05
-2.30504e-08
1.27608e-05
-2.54729e-08
1.27669e-05
-2.68964e-08
1.27731e-05
-2.75838e-08
1.27792e-05
-2.76843e-08
1.27851e-05
-2.74053e-08
1.27907e-05
-2.69122e-08
1.2796e-05
-2.62943e-08
1.28012e-05
-2.56037e-08
1.2806e-05
-2.48768e-08
1.28106e-05
-2.414e-08
1.2815e-05
-2.34077e-08
1.28192e-05
-2.26889e-08
1.28231e-05
-2.19877e-08
-2.13016e-08
1.28268e-05
1.10918e-05
-5.08125e-09
1.1095e-05
-1.55352e-08
1.11001e-05
-2.39893e-08
1.11058e-05
-2.86864e-08
1.11115e-05
-3.12226e-08
1.11173e-05
-3.2727e-08
1.11231e-05
-3.3331e-08
1.11286e-05
-3.32168e-08
1.11339e-05
-3.26871e-08
1.11389e-05
-3.19391e-08
1.11437e-05
-3.10648e-08
1.11482e-05
-3.01206e-08
1.11525e-05
-2.91499e-08
1.11565e-05
-2.81807e-08
1.11604e-05
-2.72289e-08
1.1164e-05
-2.63017e-08
1.11674e-05
-2.54036e-08
-2.45317e-08
1.11706e-05
9.65582e-06
-5.69031e-09
9.65925e-06
-1.89637e-08
9.6646e-06
-2.93418e-08
9.67011e-06
-3.41927e-08
9.67568e-06
-3.67925e-08
9.68125e-06
-3.82997e-08
9.6866e-06
-3.86789e-08
9.69164e-06
-3.82611e-08
9.6964e-06
-3.74494e-08
9.7009e-06
-3.64379e-08
9.70514e-06
-3.53055e-08
9.70913e-06
-3.41115e-08
9.71289e-06
-3.29037e-08
9.71642e-06
-3.17116e-08
9.71974e-06
-3.055e-08
9.72286e-06
-2.9426e-08
9.7258e-06
-2.83418e-08
-2.7293e-08
9.72856e-06
8.40532e-06
-5.66248e-09
8.40964e-06
-2.32822e-08
8.41488e-06
-3.45827e-08
8.41992e-06
-3.92283e-08
8.42529e-06
-4.21679e-08
8.43071e-06
-4.37187e-08
8.43581e-06
-4.37766e-08
8.44053e-06
-4.29803e-08
8.44491e-06
-4.18325e-08
8.44898e-06
-4.05094e-08
8.45276e-06
-3.90804e-08
8.45625e-06
-3.7608e-08
8.45949e-06
-3.61419e-08
8.46249e-06
-3.47097e-08
8.46526e-06
-3.33265e-08
8.46784e-06
-3.19984e-08
8.47022e-06
-3.07271e-08
-2.95094e-08
8.47244e-06
7.31455e-06
-2.92599e-09
7.32119e-06
-2.99286e-08
7.32675e-06
-4.01387e-08
7.33171e-06
-4.41864e-08
7.33711e-06
-4.75734e-08
7.34244e-06
-4.90485e-08
7.34733e-06
-4.86645e-08
7.35175e-06
-4.7404e-08
7.35574e-06
-4.58218e-08
7.35931e-06
-4.40767e-08
7.36248e-06
-4.22489e-08
7.36528e-06
-4.04109e-08
7.36775e-06
-3.86157e-08
7.36993e-06
-3.68875e-08
7.37184e-06
-3.52411e-08
7.37352e-06
-3.36794e-08
7.375e-06
-3.22026e-08
-3.08013e-08
7.37629e-06
6.36245e-06
4.68886e-09
6.3719e-06
-3.93729e-08
6.37933e-06
-4.75698e-08
6.38597e-06
-5.08325e-08
6.39226e-06
-5.38621e-08
6.39758e-06
-5.43688e-08
6.40188e-06
-5.29674e-08
6.40537e-06
-5.08934e-08
6.40818e-06
-4.86309e-08
6.41038e-06
-4.62713e-08
6.41202e-06
-4.3891e-08
6.41317e-06
-4.15679e-08
6.41391e-06
-3.93523e-08
6.41429e-06
-3.72627e-08
6.41436e-06
-3.53126e-08
6.41417e-06
-3.34982e-08
6.41379e-06
-3.18203e-08
-3.02586e-08
6.41325e-06
5.5412e-06
8.95038e-09
5.55033e-06
-4.84979e-08
5.55835e-06
-5.55912e-08
5.56605e-06
-5.85386e-08
5.57252e-06
-6.03289e-08
5.57685e-06
-5.86996e-08
5.5791e-06
-5.52157e-08
5.57967e-06
-5.14602e-08
5.57892e-06
-4.78853e-08
5.57714e-06
-4.44943e-08
5.57456e-06
-4.13059e-08
5.57135e-06
-3.83629e-08
5.56767e-06
-3.56734e-08
5.56364e-06
-3.32293e-08
5.55935e-06
-3.10274e-08
5.55491e-06
-2.90508e-08
5.55039e-06
-2.73008e-08
-2.57287e-08
5.54586e-06
4.86004e-06
-2.34861e-08
4.86539e-06
-5.38413e-08
4.86524e-06
-5.54477e-08
4.86218e-06
-5.5472e-08
4.85701e-06
-5.51625e-08
4.84951e-06
-5.1204e-08
4.83982e-06
-4.5525e-08
4.82843e-06
-4.00731e-08
4.81587e-06
-3.53187e-08
4.8026e-06
-3.1223e-08
4.78901e-06
-2.77152e-08
4.77538e-06
-2.47329e-08
4.7619e-06
-2.21975e-08
4.74871e-06
-2.00383e-08
4.73589e-06
-1.82089e-08
4.72351e-06
-1.66761e-08
4.71169e-06
-1.54777e-08
-1.51332e-08
4.70109e-06
4.17919e-06
4.12535e-06
4.0699e-06
4.01443e-06
3.95927e-06
3.90806e-06
3.86254e-06
3.82246e-06
3.78715e-06
3.75592e-06
3.72821e-06
3.70347e-06
3.68128e-06
3.66124e-06
3.64303e-06
3.62635e-06
3.61088e-06
3.59574e-06
1.73766e-08
-1.74106e-08
3.18195e-08
-1.4491e-08
3.8691e-08
-6.90529e-09
3.78496e-08
8.06892e-10
3.04325e-08
7.39146e-09
1.79276e-08
1.24756e-08
1.73234e-09
1.61728e-08
-1.70782e-08
1.87873e-08
-3.77272e-08
2.06287e-08
-5.96688e-08
2.19264e-08
-8.25557e-08
2.28682e-08
-1.06155e-07
2.35901e-08
-1.30363e-07
2.41918e-08
-1.55125e-07
2.47552e-08
-1.805e-07
2.53604e-08
-2.06606e-07
2.60944e-08
-2.33637e-07
2.70194e-08
-2.61806e-07
2.81494e-08
-2.91325e-07
2.95092e-08
-3.2133e-07
2.99796e-08
-3.49767e-07
2.8428e-08
-3.77486e-07
2.77001e-08
-4.06743e-07
2.92491e-08
-4.379e-07
3.11494e-08
-4.73559e-07
3.56516e-08
-5.16859e-07
4.33001e-08
-5.58523e-07
4.16529e-08
-5.94744e-07
3.62237e-08
-6.35266e-07
4.05065e-08
-6.77885e-07
4.26211e-08
-7.20488e-07
4.25836e-08
-7.62834e-07
4.23461e-08
-8.05981e-07
4.31259e-08
-8.49489e-07
4.3507e-08
-8.92661e-07
4.31465e-08
-9.35769e-07
4.31051e-08
-9.78889e-07
4.30941e-08
-1.02194e-06
4.3049e-08
-1.06492e-06
4.2955e-08
-1.10776e-06
4.28287e-08
-1.15045e-06
4.26744e-08
-1.19296e-06
4.25034e-08
-1.2353e-06
4.23173e-08
-1.27743e-06
4.21238e-08
-1.31938e-06
4.19217e-08
-1.3611e-06
4.17155e-08
-1.40263e-06
4.15023e-08
-1.44392e-06
4.12846e-08
-1.485e-06
4.10581e-08
-1.52583e-06
4.08246e-08
-1.56643e-06
4.05786e-08
-1.60676e-06
4.03212e-08
-1.64683e-06
4.00469e-08
-1.68659e-06
3.97565e-08
-1.72606e-06
3.94445e-08
-1.76518e-06
3.91121e-08
-1.80396e-06
3.8754e-08
-1.84235e-06
3.83714e-08
-1.88033e-06
3.79592e-08
-1.91787e-06
3.75192e-08
-1.95494e-06
3.70463e-08
-1.99151e-06
3.65428e-08
-2.02754e-06
3.60043e-08
-2.06299e-06
3.54334e-08
-2.09785e-06
3.48259e-08
-2.13206e-06
3.41849e-08
-2.16559e-06
3.35067e-08
-2.19841e-06
3.27945e-08
-2.23049e-06
3.20454e-08
-2.26177e-06
3.12628e-08
-2.29225e-06
3.04446e-08
-2.32187e-06
2.95943e-08
-2.3506e-06
2.87102e-08
-2.37843e-06
2.77961e-08
-2.4053e-06
2.68506e-08
-2.43121e-06
2.58777e-08
-2.45612e-06
2.48774e-08
-2.48001e-06
2.38544e-08
-2.50285e-06
2.28089e-08
-2.52463e-06
2.17453e-08
-2.54533e-06
2.06648e-08
-2.56494e-06
1.95715e-08
-2.58345e-06
1.84666e-08
-2.60084e-06
1.73519e-08
-2.6171e-06
1.62279e-08
-2.63224e-06
1.5097e-08
-2.64624e-06
1.39615e-08
-2.6591e-06
1.28244e-08
-2.67082e-06
1.16893e-08
-2.6814e-06
1.05551e-08
-2.69084e-06
9.41729e-09
-2.69915e-06
8.27165e-09
-2.7063e-06
7.11818e-09
-2.7123e-06
5.95354e-09
-2.71711e-06
4.77193e-09
-2.72071e-06
3.56106e-09
-2.72305e-06
2.3058e-09
-2.72408e-06
9.8851e-10
-2.72375e-06
-3.77871e-10
-2.72214e-06
-1.65587e-09
-2.71942e-06
-2.76753e-09
-2.71567e-06
-3.81557e-09
-2.71088e-06
-4.86016e-09
-2.70506e-06
-5.91497e-09
-2.69817e-06
-6.98233e-09
-2.69021e-06
-8.07151e-09
-2.68112e-06
-9.17878e-09
-2.67091e-06
-1.03174e-08
-2.65952e-06
-1.14847e-08
-2.64692e-06
-1.26973e-08
-2.63305e-06
-1.39514e-08
-2.61789e-06
-1.52663e-08
-2.60133e-06
-1.6636e-08
-2.58335e-06
-1.80833e-08
-2.56383e-06
-1.95994e-08
-2.54272e-06
-2.12098e-08
-2.5199e-06
-2.29021e-08
-2.49529e-06
-2.47038e-08
-2.46874e-06
-2.66028e-08
-2.44017e-06
-2.8632e-08
-2.40948e-06
-3.07839e-08
-2.37654e-06
-3.30849e-08
-2.34118e-06
-3.55076e-08
-2.30326e-06
-3.80759e-08
-2.2626e-06
-4.0753e-08
-2.21911e-06
-4.3577e-08
-2.17259e-06
-4.65138e-08
-2.12298e-06
-4.95996e-08
-2.07009e-06
-5.27945e-08
-2.01386e-06
-5.61235e-08
-1.95415e-06
-5.95447e-08
-1.89089e-06
-6.30719e-08
-1.824e-06
-6.66696e-08
-1.75343e-06
-7.03414e-08
-1.67909e-06
-7.40853e-08
-1.60098e-06
-7.78607e-08
-1.51913e-06
-8.15953e-08
-1.43363e-06
-8.52832e-08
-1.34455e-06
-8.89044e-08
-1.25201e-06
-9.24316e-08
-1.15613e-06
-9.58201e-08
-1.05711e-06
-9.90151e-08
-9.55172e-07
-1.0198e-07
-8.50586e-07
-1.04682e-07
-7.43611e-07
-1.07106e-07
-6.34573e-07
-1.09217e-07
-5.23752e-07
-1.11027e-07
-4.11563e-07
-1.12433e-07
-2.98374e-07
-1.13456e-07
-1.84185e-07
-1.14484e-07
-6.86565e-08
-1.15842e-07
4.86114e-08
-1.1759e-07
1.66386e-07
-1.18092e-07
2.82753e-07
-1.16684e-07
3.96888e-07
-1.14447e-07
5.08233e-07
-1.11654e-07
6.16388e-07
-1.08454e-07
7.21024e-07
-1.04931e-07
8.21909e-07
-1.01167e-07
9.18845e-07
-9.72093e-08
1.01171e-06
-9.31177e-08
1.1004e-06
-8.89408e-08
1.18491e-06
-8.473e-08
1.26521e-06
-8.05208e-08
1.34134e-06
-7.6331e-08
1.41335e-06
-7.21912e-08
1.48131e-06
-6.81299e-08
1.54531e-06
-6.41497e-08
1.6054e-06
-6.02437e-08
1.66167e-06
-5.64025e-08
1.71416e-06
-5.26125e-08
1.76288e-06
-4.88321e-08
1.80775e-06
-4.49805e-08
1.84856e-06
-4.09126e-08
1.88483e-06
-3.63633e-08
1.9155e-06
-3.07595e-08
1.93809e-06
-2.26798e-08
1.94518e-06
-7.1725e-09
1.91673e-06
2.83868e-08
9.39345e-08
1.82275e-06
8.29403e-09
-2.57321e-08
8.07177e-09
-1.43e-08
2.81937e-09
-1.67188e-09
-5.99718e-09
9.606e-09
-1.79636e-08
1.93443e-08
-3.29755e-08
2.74734e-08
-5.08592e-08
3.40444e-08
-7.13218e-08
3.92386e-08
-9.40176e-08
4.33131e-08
-1.18638e-07
4.65389e-08
-1.44946e-07
4.91659e-08
-1.72767e-07
5.14054e-08
-2.02013e-07
5.34289e-08
-2.32641e-07
5.53771e-08
-2.64657e-07
5.73681e-08
-2.98066e-07
5.94954e-08
-3.32869e-07
6.18134e-08
-3.69023e-07
6.42912e-08
-4.06281e-07
6.6759e-08
-4.45098e-07
6.87827e-08
-4.86795e-07
7.01167e-08
-5.30783e-07
7.16776e-08
-5.75721e-07
7.4181e-08
-6.21828e-07
7.72524e-08
-6.66961e-07
8.07789e-08
-7.07623e-07
8.39602e-08
-7.50548e-07
8.4572e-08
-7.97996e-07
8.3671e-08
-8.41853e-07
8.43574e-08
-8.84249e-07
8.50149e-08
-9.26836e-07
8.5163e-08
-9.69602e-07
8.51094e-08
-1.01165e-06
8.51609e-08
-1.05321e-06
8.50672e-08
-1.09474e-06
8.46631e-08
-1.13583e-06
8.41966e-08
-1.17648e-06
8.37363e-08
-1.21671e-06
8.32713e-08
-1.25656e-06
8.27915e-08
-1.29603e-06
8.22988e-08
-1.33517e-06
8.17955e-08
-1.37395e-06
8.12859e-08
-1.41242e-06
8.07713e-08
-1.45055e-06
8.02534e-08
-1.48837e-06
7.97311e-08
-1.52587e-06
7.9204e-08
-1.56305e-06
7.8669e-08
-1.59989e-06
7.81239e-08
-1.63641e-06
7.75644e-08
-1.67258e-06
7.69874e-08
-1.7084e-06
7.6388e-08
-1.74385e-06
7.57626e-08
-1.77892e-06
7.5106e-08
-1.81359e-06
7.44151e-08
-1.84784e-06
7.36849e-08
-1.88165e-06
7.29126e-08
-1.915e-06
7.20939e-08
-1.94787e-06
7.12264e-08
-1.98023e-06
7.03063e-08
-2.01206e-06
6.9332e-08
-2.04333e-06
6.83003e-08
-2.07401e-06
6.72102e-08
-2.10408e-06
6.60592e-08
-2.13351e-06
6.48474e-08
-2.16227e-06
6.35727e-08
-2.19034e-06
6.22359e-08
-2.21769e-06
6.08357e-08
-2.24428e-06
5.93737e-08
-2.2701e-06
5.78493e-08
-2.29512e-06
5.62648e-08
-2.31932e-06
5.46205e-08
-2.34266e-06
5.29192e-08
-2.36513e-06
5.11619e-08
-2.3867e-06
4.93519e-08
-2.40736e-06
4.74909e-08
-2.42708e-06
4.55829e-08
-2.44585e-06
4.36307e-08
-2.46366e-06
4.16391e-08
-2.48048e-06
3.96111e-08
-2.49631e-06
3.75518e-08
-2.51114e-06
3.54647e-08
-2.52494e-06
3.33546e-08
-2.53773e-06
3.12245e-08
-2.54948e-06
2.90779e-08
-2.56019e-06
2.69178e-08
-2.56987e-06
2.47481e-08
-2.57851e-06
2.25722e-08
-2.5861e-06
2.03945e-08
-2.59264e-06
1.82189e-08
-2.59815e-06
1.60444e-08
-2.60262e-06
1.38673e-08
-2.60605e-06
1.16862e-08
-2.60846e-06
9.4996e-09
-2.60984e-06
7.3085e-09
-2.6102e-06
5.10956e-09
-2.60957e-06
2.90265e-09
-2.60798e-06
6.88734e-10
-2.6055e-06
-1.51659e-09
-2.60222e-06
-3.68457e-09
-2.59811e-06
-5.79402e-09
-2.59305e-06
-7.87068e-09
-2.58695e-06
-9.95031e-09
-2.57981e-06
-1.20537e-08
-2.5716e-06
-1.41869e-08
-2.56229e-06
-1.63574e-08
-2.55186e-06
-1.85706e-08
-2.54027e-06
-2.08335e-08
-2.5275e-06
-2.31563e-08
-2.5135e-06
-2.55499e-08
-2.49822e-06
-2.80277e-08
-2.48164e-06
-3.06017e-08
-2.46367e-06
-3.32874e-08
-2.44427e-06
-3.60976e-08
-2.42336e-06
-3.90496e-08
-2.40087e-06
-4.21564e-08
-2.37669e-06
-4.54365e-08
-2.35076e-06
-4.89014e-08
-2.32294e-06
-5.25676e-08
-2.29313e-06
-5.64501e-08
-2.26122e-06
-6.05746e-08
-2.22712e-06
-6.49551e-08
-2.19069e-06
-6.96095e-08
-2.15178e-06
-7.45297e-08
-2.11022e-06
-7.97214e-08
-2.06588e-06
-8.51708e-08
-2.0186e-06
-9.08955e-08
-1.96825e-06
-9.6883e-08
-1.91468e-06
-1.03149e-07
-1.85777e-06
-1.09668e-07
-1.79738e-06
-1.16445e-07
-1.73339e-06
-1.23442e-07
-1.6657e-06
-1.30655e-07
-1.59421e-06
-1.38036e-07
-1.51885e-06
-1.45571e-07
-1.43958e-06
-1.53214e-07
-1.35642e-06
-1.6089e-07
-1.26936e-06
-1.68524e-07
-1.17848e-06
-1.7606e-07
-1.08388e-06
-1.83426e-07
-9.85693e-07
-1.90577e-07
-8.84102e-07
-1.97394e-07
-7.79339e-07
-2.03798e-07
-6.71667e-07
-2.09683e-07
-5.61413e-07
-2.15004e-07
-4.4891e-07
-2.19684e-07
-3.34545e-07
-2.2369e-07
-2.18684e-07
-2.26997e-07
-1.01539e-07
-2.29715e-07
1.66869e-08
-2.31813e-07
1.35216e-07
-2.33165e-07
2.52915e-07
-2.33685e-07
3.68375e-07
-2.33214e-07
4.81333e-07
-2.31206e-07
5.92119e-07
-2.27642e-07
7.00432e-07
-2.22924e-07
8.05926e-07
-2.17326e-07
9.08308e-07
-2.11005e-07
1.00732e-06
-2.04119e-07
1.10276e-06
-1.96773e-07
1.19446e-06
-1.89087e-07
1.28233e-06
-1.81144e-07
1.36628e-06
-1.73051e-07
1.44627e-06
-1.64875e-07
1.5223e-06
-1.56701e-07
1.5944e-06
-1.48565e-07
1.66261e-06
-1.40528e-07
1.72698e-06
-1.3262e-07
1.78758e-06
-1.24869e-07
1.8445e-06
-1.17266e-07
1.8978e-06
-1.09803e-07
1.94753e-06
-1.02436e-07
1.9937e-06
-9.50895e-08
2.03624e-06
-8.76041e-08
2.07497e-06
-7.97183e-08
2.10946e-06
-7.09349e-08
2.13895e-06
-6.03154e-08
2.16185e-06
-4.56496e-08
2.17723e-06
-2.26079e-08
2.18395e-06
2.16164e-08
1.0613e-07
2.17172e-06
-4.44551e-09
-2.13078e-08
-1.49534e-08
-3.81285e-09
-2.78895e-08
1.12519e-08
-4.25317e-08
2.42377e-08
-5.87641e-08
3.55678e-08
-7.67001e-08
4.54009e-08
-9.64868e-08
5.3823e-08
-1.18206e-07
6.09509e-08
-1.41859e-07
6.69583e-08
-1.67382e-07
7.20572e-08
-1.94693e-07
7.64697e-08
-2.23696e-07
8.04046e-08
-2.54318e-07
8.40445e-08
-2.86486e-07
8.75409e-08
-3.20134e-07
9.10095e-08
-3.55168e-07
9.45228e-08
-3.91456e-07
9.80951e-08
-4.28834e-07
1.0166e-07
-4.67148e-07
1.05067e-07
-5.06502e-07
1.08128e-07
-5.47148e-07
1.10758e-07
-5.88697e-07
1.1322e-07
-6.30273e-07
1.15752e-07
-6.71293e-07
1.18269e-07
-7.11101e-07
1.20582e-07
-7.49455e-07
1.22312e-07
-7.87913e-07
1.23025e-07
-8.27251e-07
1.23007e-07
-8.65904e-07
1.23006e-07
-9.03843e-07
1.22951e-07
-9.4145e-07
1.22765e-07
-9.78833e-07
1.22489e-07
-1.01583e-06
1.22154e-07
-1.05244e-06
1.21673e-07
-1.08882e-06
1.21036e-07
-1.12495e-06
1.20327e-07
-1.16081e-06
1.19589e-07
-1.19638e-06
1.1884e-07
-1.23168e-06
1.18086e-07
-1.26672e-06
1.17331e-07
-1.30151e-06
1.16576e-07
-1.33605e-06
1.15822e-07
-1.37035e-06
1.15069e-07
-1.40442e-06
1.14314e-07
-1.43825e-06
1.13555e-07
-1.47183e-06
1.12788e-07
-1.50518e-06
1.12008e-07
-1.53827e-06
1.11211e-07
-1.57111e-06
1.10391e-07
-1.60367e-06
1.09542e-07
-1.63594e-06
1.08658e-07
-1.66792e-06
1.07733e-07
-1.69958e-06
1.06762e-07
-1.73091e-06
1.05738e-07
-1.76189e-06
1.04657e-07
-1.7925e-06
1.03512e-07
-1.82272e-06
1.023e-07
-1.85251e-06
1.01015e-07
-1.88187e-06
9.96549e-08
-1.91076e-06
9.8215e-08
-1.93917e-06
9.66925e-08
-1.96705e-06
9.5085e-08
-1.99439e-06
9.33902e-08
-2.02116e-06
9.1607e-08
-2.04733e-06
8.97338e-08
-2.07288e-06
8.77705e-08
-2.09777e-06
8.57168e-08
-2.12198e-06
8.35733e-08
-2.14549e-06
8.1341e-08
-2.16825e-06
7.90215e-08
-2.19026e-06
7.66168e-08
-2.21148e-06
7.41294e-08
-2.2319e-06
7.15621e-08
-2.25147e-06
6.89187e-08
-2.2702e-06
6.62025e-08
-2.28805e-06
6.34183e-08
-2.305e-06
6.05708e-08
-2.32104e-06
5.76655e-08
-2.33615e-06
5.47075e-08
-2.35032e-06
5.17028e-08
-2.36353e-06
4.86572e-08
-2.37576e-06
4.55763e-08
-2.38702e-06
4.24656e-08
-2.39729e-06
3.93303e-08
-2.40657e-06
3.61756e-08
-2.41484e-06
3.30066e-08
-2.42212e-06
2.98286e-08
-2.42838e-06
2.66469e-08
-2.43364e-06
2.34659e-08
-2.43789e-06
2.02875e-08
-2.44115e-06
1.71105e-08
-2.44341e-06
1.39343e-08
-2.44468e-06
1.07603e-08
-2.44498e-06
7.58924e-09
-2.44431e-06
4.42327e-09
-2.44269e-06
1.26335e-09
-2.44013e-06
-1.88457e-09
-2.43666e-06
-5.01303e-09
-2.43225e-06
-8.11135e-09
-2.42688e-06
-1.11874e-08
-2.42051e-06
-1.42677e-08
-2.41311e-06
-1.73766e-08
-2.40468e-06
-2.05279e-08
-2.39518e-06
-2.37301e-08
-2.38459e-06
-2.69938e-08
-2.37289e-06
-3.03252e-08
-2.36003e-06
-3.37383e-08
-2.34599e-06
-3.72441e-08
-2.33072e-06
-4.08618e-08
-2.31418e-06
-4.46057e-08
-2.29633e-06
-4.84987e-08
-2.2771e-06
-5.25571e-08
-2.25644e-06
-5.68062e-08
-2.23426e-06
-6.12645e-08
-2.2105e-06
-6.59595e-08
-2.18507e-06
-7.09104e-08
-2.15787e-06
-7.61431e-08
-2.12879e-06
-8.16759e-08
-2.09773e-06
-8.75386e-08
-2.06457e-06
-9.37568e-08
-2.02923e-06
-1.0036e-07
-1.99154e-06
-1.0736e-07
-1.95139e-06
-1.14768e-07
-1.90859e-06
-1.22577e-07
-1.86302e-06
-1.30795e-07
-1.81452e-06
-1.3942e-07
-1.76296e-06
-1.4846e-07
-1.70819e-06
-1.57908e-07
-1.65007e-06
-1.67756e-07
-1.58848e-06
-1.77984e-07
-1.5233e-06
-1.88564e-07
-1.45441e-06
-1.99463e-07
-1.38173e-06
-2.10627e-07
-1.3052e-06
-2.21999e-07
-1.22481e-06
-2.33505e-07
-1.14056e-06
-2.45041e-07
-1.05248e-06
-2.56517e-07
-9.6064e-07
-2.67824e-07
-8.65168e-07
-2.78845e-07
-7.66233e-07
-2.89473e-07
-6.64048e-07
-2.99562e-07
-5.58863e-07
-3.0897e-07
-4.50986e-07
-3.17566e-07
-3.40754e-07
-3.25243e-07
-2.28548e-07
-3.31914e-07
-1.14715e-07
-3.37545e-07
3.51844e-10
-3.42098e-07
1.1608e-07
-3.45471e-07
2.31763e-07
-3.47533e-07
3.46746e-07
-3.48179e-07
4.60373e-07
-3.47351e-07
5.72014e-07
-3.44889e-07
6.81378e-07
-3.40614e-07
7.88334e-07
-3.34636e-07
8.92601e-07
-3.27237e-07
9.939e-07
-3.18664e-07
1.09197e-06
-3.09122e-07
1.18661e-06
-2.98793e-07
1.27763e-06
-2.8784e-07
1.36492e-06
-2.76414e-07
1.44839e-06
-2.64653e-07
1.52799e-06
-2.52684e-07
1.6037e-06
-2.40619e-07
1.67553e-06
-2.2856e-07
1.74352e-06
-2.16586e-07
1.80772e-06
-2.0476e-07
1.86822e-06
-1.9314e-07
1.92509e-06
-1.81758e-07
1.97842e-06
-1.70621e-07
2.0283e-06
-1.59699e-07
2.07478e-06
-1.48936e-07
2.11788e-06
-1.38209e-07
2.15757e-06
-1.27309e-07
2.19371e-06
-1.15869e-07
2.226e-06
-1.03242e-07
2.25392e-06
-8.82496e-08
2.27667e-06
-6.84253e-08
2.29358e-06
-3.95281e-08
2.30635e-06
8.8359e-09
9.35902e-08
2.31889e-06
-1.42128e-08
-7.11295e-09
-3.16271e-08
1.3586e-08
-5.00114e-08
2.96269e-08
-6.90697e-08
4.32882e-08
-8.88654e-08
5.53567e-08
-1.09581e-07
6.61103e-08
-1.31429e-07
7.56654e-08
-1.54594e-07
8.41105e-08
-1.79202e-07
9.15599e-08
-2.05307e-07
9.81591e-08
-2.32915e-07
1.04072e-07
-2.61977e-07
1.09463e-07
-2.92417e-07
1.14479e-07
-3.24124e-07
1.19244e-07
-3.56961e-07
1.23841e-07
-3.90755e-07
1.2831e-07
-4.25302e-07
1.32637e-07
-4.60403e-07
1.36755e-07
-4.95903e-07
1.40562e-07
-5.31732e-07
1.43951e-07
-5.67861e-07
1.46883e-07
-6.04085e-07
1.49439e-07
-6.40051e-07
1.51714e-07
-6.75488e-07
1.53702e-07
-7.10242e-07
1.55332e-07
-7.44415e-07
1.56483e-07
-7.78453e-07
1.57059e-07
-8.12604e-07
1.57154e-07
-8.46589e-07
1.56987e-07
-8.80284e-07
1.56644e-07
-9.13689e-07
1.56166e-07
-9.468e-07
1.55598e-07
-9.7961e-07
1.54959e-07
-1.01217e-06
1.54232e-07
-1.04456e-06
1.53417e-07
-1.07678e-06
1.52546e-07
-1.10884e-06
1.51642e-07
-1.14072e-06
1.50724e-07
-1.17244e-06
1.49801e-07
-1.20399e-06
1.48878e-07
-1.23538e-06
1.47958e-07
-1.2666e-06
1.47039e-07
-1.29765e-06
1.4612e-07
-1.32854e-06
1.45197e-07
-1.35926e-06
1.44266e-07
-1.3898e-06
1.43321e-07
-1.42015e-06
1.42356e-07
-1.45031e-06
1.41365e-07
-1.48026e-06
1.40339e-07
-1.51e-06
1.39272e-07
-1.5395e-06
1.38155e-07
-1.56875e-06
1.36983e-07
-1.59774e-06
1.35746e-07
-1.62645e-06
1.34438e-07
-1.65485e-06
1.33053e-07
-1.68293e-06
1.31584e-07
-1.71066e-06
1.30024e-07
-1.73802e-06
1.28369e-07
-1.76499e-06
1.26614e-07
-1.79154e-06
1.24754e-07
-1.81764e-06
1.22785e-07
-1.84326e-06
1.20704e-07
-1.86839e-06
1.18509e-07
-1.89299e-06
1.16198e-07
-1.91703e-06
1.13769e-07
-1.94049e-06
1.11221e-07
-1.96334e-06
1.08556e-07
-1.98555e-06
1.05772e-07
-2.00709e-06
1.02872e-07
-2.02793e-06
9.98578e-08
-2.04805e-06
9.67315e-08
-2.06743e-06
9.34967e-08
-2.08604e-06
9.01572e-08
-2.10384e-06
8.67173e-08
-2.12083e-06
8.31821e-08
-2.13698e-06
7.95572e-08
-2.15227e-06
7.58488e-08
-2.16668e-06
7.20635e-08
-2.18019e-06
6.82085e-08
-2.19279e-06
6.42908e-08
-2.20446e-06
6.03182e-08
-2.2152e-06
5.6298e-08
-2.22498e-06
5.22375e-08
-2.23381e-06
4.8144e-08
-2.24167e-06
4.40245e-08
-2.24856e-06
3.9886e-08
-2.25448e-06
3.57353e-08
-2.25943e-06
3.15788e-08
-2.26339e-06
2.74227e-08
-2.26638e-06
2.32696e-08
-2.2684e-06
1.91221e-08
-2.26946e-06
1.49805e-08
-2.26955e-06
1.0847e-08
-2.2687e-06
6.72335e-09
-2.2669e-06
2.6119e-09
-2.26416e-06
-1.48637e-09
-2.26049e-06
-5.56937e-09
-2.25588e-06
-9.63665e-09
-2.25032e-06
-1.36898e-08
-2.24378e-06
-1.77429e-08
-2.23625e-06
-2.18192e-08
-2.22772e-06
-2.59399e-08
-2.21816e-06
-3.01206e-08
-2.20756e-06
-3.43721e-08
-2.19589e-06
-3.87078e-08
-2.18311e-06
-4.31382e-08
-2.16921e-06
-4.76809e-08
-2.15414e-06
-5.23513e-08
-2.13787e-06
-5.7173e-08
-2.12034e-06
-6.21651e-08
-2.10152e-06
-6.73561e-08
-2.08134e-06
-7.27678e-08
-2.05975e-06
-7.84333e-08
-2.03667e-06
-8.43764e-08
-2.01203e-06
-9.06343e-08
-1.98574e-06
-9.72309e-08
-1.95771e-06
-1.04203e-07
-1.92784e-06
-1.11573e-07
-1.89601e-06