/*--------------------------------*- C++ -*----------------------------------*\
  =========                 |
  \\      /  F ield         | OpenFOAM: The Open Source CFD Toolbox
   \\    /   O peration     | Website:  https://openfoam.org
    \\  /    A nd           | Version:  8
     \\/     M anipulation  |
\*---------------------------------------------------------------------------*/
FoamFile
{
    version     2.0;
    format      ascii;
    class       volVectorField;
    location    "170";
    object      U;
}
// * * * * * * * * * * * * * * * * * * * * * * * * * * * * * * * * * * * * * //

dimensions      [0 1 -1 0 0 0 0];

internalField   nonuniform List<vector> 
12225
(
(9.85698 -0.886424 0)
(9.66663 -0.740751 0)
(9.45568 -0.429481 0)
(9.22445 -0.222214 0)
(9.00637 -0.106451 0)
(8.81419 -0.045856 0)
(8.64719 -0.0151624 0)
(8.50494 0.000472073 0)
(8.3831 0.00841749 0)
(8.28021 0.0123122 0)
(8.19153 0.0140583 0)
(8.11511 0.0150755 0)
(8.04788 0.0155223 0)
(7.98832 0.0157473 0)
(7.93405 0.0159024 0)
(7.88651 0.0160457 0)
(7.82894 0.0175103 0)
(7.81903 0.0147323 0)
(10.0545 0.227558 0)
(10.1211 0.326926 0)
(10.1196 0.261576 0)
(10.0855 0.186557 0)
(10.0434 0.134686 0)
(9.99665 0.101139 0)
(9.94391 0.0793212 0)
(9.88508 0.0646064 0)
(9.82366 0.0543145 0)
(9.76103 0.0467468 0)
(9.69946 0.0410074 0)
(9.63946 0.036501 0)
(9.58198 0.0329074 0)
(9.52729 0.030156 0)
(9.47505 0.0278755 0)
(9.4271 0.0274924 0)
(9.37842 0.0250635 0)
(9.34562 0.0365004 0)
(10.0035 0.0579198 0)
(10.0303 0.0560116 0)
(10.056 0.0337936 0)
(10.0703 0.0329135 0)
(10.0769 0.0406724 0)
(10.0777 0.0465788 0)
(10.0724 0.0494041 0)
(10.0612 0.0503645 0)
(10.0459 0.0502844 0)
(10.0274 0.0495996 0)
(10.0068 0.0485984 0)
(9.98439 0.0474958 0)
(9.96106 0.0464046 0)
(9.93715 0.0454881 0)
(9.91287 0.0446566 0)
(9.88907 0.0447604 0)
(9.86512 0.0446487 0)
(9.84329 0.0486926 0)
(9.99779 0.0110571 0)
(10.011 0.0266169 0)
(10.035 0.0371672 0)
(10.0525 0.0481102 0)
(10.0643 0.0554869 0)
(10.0733 0.0582313 0)
(10.0794 0.0584172 0)
(10.0822 0.0576965 0)
(10.0825 0.0566766 0)
(10.0809 0.0555201 0)
(10.0777 0.0543051 0)
(10.0732 0.0531573 0)
(10.0676 0.0520883 0)
(10.0613 0.0512323 0)
(10.0543 0.0505278 0)
(10.047 0.0504911 0)
(10.0397 0.0505107 0)
(10.0328 0.0522485 0)
(9.99935 0.0072025 0)
(10.009 0.0316669 0)
(10.0274 0.0439436 0)
(10.0418 0.0499548 0)
(10.0527 0.0536565 0)
(10.0628 0.0552965 0)
(10.0714 0.0555969 0)
(10.0781 0.0553333 0)
(10.0832 0.0548256 0)
(10.087 0.0541703 0)
(10.0896 0.0534296 0)
(10.0914 0.0527082 0)
(10.0924 0.0520377 0)
(10.0929 0.0515225 0)
(10.0928 0.0511527 0)
(10.0926 0.0512009 0)
(10.0924 0.0513884 0)
(10.0926 0.0521752 0)
(10.0003 0.00918409 0)
(10.0083 0.0311856 0)
(10.0227 0.0409702 0)
(10.0349 0.0454322 0)
(10.045 0.0490924 0)
(10.0547 0.051446 0)
(10.0636 0.0524512 0)
(10.0712 0.0527153 0)
(10.0776 0.0526229 0)
(10.0831 0.052316 0)
(10.0879 0.0518779 0)
(10.0919 0.0514064 0)
(10.0954 0.0509523 0)
(10.0985 0.0505946 0)
(10.1012 0.0503461 0)
(10.1038 0.0503343 0)
(10.1065 0.0504245 0)
(10.1095 0.0506257 0)
(10.0005 0.00895176 0)
(10.0071 0.0271044 0)
(10.0191 0.0364449 0)
(10.0301 0.0414373 0)
(10.0395 0.0454785 0)
(10.0486 0.0481653 0)
(10.0571 0.0494616 0)
(10.0647 0.0499663 0)
(10.0715 0.0500857 0)
(10.0775 0.0499703 0)
(10.083 0.049705 0)
(10.0879 0.0493767 0)
(10.0924 0.049042 0)
(10.0966 0.0487582 0)
(10.1005 0.0485419 0)
(10.1043 0.0484411 0)
(10.1082 0.048369 0)
(10.1123 0.0482071 0)
(10.0004 0.0079242 0)
(10.006 0.0234018 0)
(10.0161 0.0327728 0)
(10.0262 0.0381559 0)
(10.0351 0.042171 0)
(10.0435 0.0448783 0)
(10.0516 0.0463195 0)
(10.059 0.0469916 0)
(10.0657 0.0472635 0)
(10.0718 0.0472848 0)
(10.0775 0.0471405 0)
(10.0828 0.0469089 0)
(10.0877 0.0466467 0)
(10.0923 0.0463955 0)
(10.0968 0.0461684 0)
(10.1012 0.0459718 0)
(10.1056 0.0457365 0)
(10.1101 0.0453347 0)
(10.0004 0.0069698 0)
(10.0051 0.0204531 0)
(10.0137 0.0294966 0)
(10.0228 0.0349238 0)
(10.0311 0.0387971 0)
(10.0391 0.0414855 0)
(10.0467 0.0430506 0)
(10.0539 0.0438658 0)
(10.0604 0.0442583 0)
(10.0665 0.0443825 0)
(10.0722 0.0443251 0)
(10.0775 0.0441583 0)
(10.0826 0.0439353 0)
(10.0874 0.0436883 0)
(10.0921 0.0434245 0)
(10.0967 0.0431327 0)
(10.1013 0.0427537 0)
(10.1059 0.0421889 0)
(10.0004 0.00614022 0)
(10.0043 0.0178912 0)
(10.0116 0.0263244 0)
(10.0198 0.0316518 0)
(10.0276 0.0354014 0)
(10.035 0.0380567 0)
(10.0423 0.039704 0)
(10.0492 0.0406251 0)
(10.0555 0.0411071 0)
(10.0615 0.0413069 0)
(10.0671 0.041311 0)
(10.0725 0.0411862 0)
(10.0776 0.0409805 0)
(10.0824 0.0407205 0)
(10.0872 0.0404097 0)
(10.0918 0.0400317 0)
(10.0964 0.0395381 0)
(10.101 0.0388648 0)
(10.0003 0.00538149 0)
(10.0037 0.015585 0)
(10.0099 0.0232915 0)
(10.0172 0.0284235 0)
(10.0244 0.032033 0)
(10.0314 0.0346139 0)
(10.0383 0.0362884 0)
(10.0449 0.0372756 0)
(10.051 0.0378199 0)
(10.0569 0.0380727 0)
(10.0624 0.038119 0)
(10.0677 0.0380195 0)
(10.0727 0.0378179 0)
(10.0776 0.0375369 0)
(10.0823 0.0371793 0)
(10.0869 0.0367298 0)
(10.0914 0.0361524 0)
(10.0958 0.0354117 0)
(10.0003 0.00471731 0)
(10.0032 0.0136465 0)
(10.0086 0.0206494 0)
(10.0152 0.0255179 0)
(10.0219 0.0289632 0)
(10.0285 0.0314402 0)
(10.035 0.0330971 0)
(10.0413 0.0341118 0)
(10.0472 0.0346901 0)
(10.0529 0.034973 0)
(10.0583 0.0350426 0)
(10.0635 0.0349548 0)
(10.0685 0.0347491 0)
(10.0733 0.0344466 0)
(10.0779 0.0340508 0)
(10.0824 0.0335509 0)
(10.0868 0.032921 0)
(10.0911 0.0321482 0)
(10.0003 0.0041035 0)
(10.0028 0.0118797 0)
(10.0075 0.018154 0)
(10.0134 0.0226825 0)
(10.0196 0.0259287 0)
(10.0258 0.0282758 0)
(10.032 0.0298818 0)
(10.038 0.0308959 0)
(10.0438 0.0314885 0)
(10.0493 0.0317866 0)
(10.0546 0.0318679 0)
(10.0597 0.0317841 0)
(10.0645 0.0315712 0)
(10.0692 0.0312491 0)
(10.0738 0.0308232 0)
(10.0782 0.0302878 0)
(10.0824 0.0296261 0)
(10.0866 0.0288414 0)
(10.0002 0.00346942 0)
(10.0024 0.0100431 0)
(10.0064 0.0154768 0)
(10.0117 0.0195403 0)
(10.0174 0.0225036 0)
(10.0232 0.0246606 0)
(10.029 0.0261644 0)
(10.0347 0.0271393 0)
(10.0402 0.02772 0)
(10.0455 0.0280149 0)
(10.0507 0.0280949 0)
(10.0556 0.0280066 0)
(10.0604 0.0277825 0)
(10.065 0.0274414 0)
(10.0694 0.0269914 0)
(10.0736 0.0264322 0)
(10.0777 0.0257555 0)
(10.0817 0.0249766 0)
(10.0002 0.00281094 0)
(10.002 0.00813492 0)
(10.0055 0.0126276 0)
(10.0101 0.0160958 0)
(10.0153 0.0186736 0)
(10.0206 0.0205645 0)
(10.026 0.0219007 0)
(10.0314 0.0227833 0)
(10.0367 0.0233137 0)
(10.0418 0.0235783 0)
(10.0467 0.0236381 0)
(10.0515 0.0235339 0)
(10.0561 0.0232938 0)
(10.0606 0.0229363 0)
(10.0648 0.0224709 0)
(10.069 0.0219031 0)
(10.0729 0.0212308 0)
(10.0767 0.0204777 0)
(10.0002 0.00212721 0)
(10.0017 0.00615691 0)
(10.0047 0.00961414 0)
(10.0087 0.0123529 0)
(10.0134 0.0144252 0)
(10.0183 0.0159559 0)
(10.0233 0.0170443 0)
(10.0283 0.0177668 0)
(10.0333 0.0181949 0)
(10.0382 0.0183922 0)
(10.043 0.0184064 0)
(10.0476 0.0182709 0)
(10.052 0.0180091 0)
(10.0563 0.0176378 0)
(10.0604 0.0171679 0)
(10.0643 0.0166075 0)
(10.0681 0.0159595 0)
(10.0717 0.0152505 0)
(10.0002 0.00141504 0)
(10.0015 0.00409445 0)
(10.0041 0.0064193 0)
(10.0076 0.00829308 0)
(10.0118 0.00972791 0)
(10.0163 0.0107886 0)
(10.0209 0.0115363 0)
(10.0257 0.0120197 0)
(10.0304 0.0122837 0)
(10.035 0.0123685 0)
(10.0396 0.0123066 0)
(10.044 0.0121215 0)
(10.0482 0.0118311 0)
(10.0523 0.0114484 0)
(10.0563 0.0109838 0)
(10.06 0.0104458 0)
(10.0636 0.00983938 0)
(10.067 0.00918991 0)
(10.0001 0.000657712 0)
(10.0013 0.00189506 0)
(10.0036 0.00296986 0)
(10.0069 0.00383497 0)
(10.0107 0.00448941 0)
(10.0149 0.00495593 0)
(10.0192 0.00525749 0)
(10.0237 0.00541381 0)
(10.0282 0.0054439 0)
(10.0326 0.00536536 0)
(10.037 0.00519295 0)
(10.0412 0.00493821 0)
(10.0452 0.00461056 0)
(10.0492 0.00421782 0)
(10.0529 0.0037669 0)
(10.0565 0.00326447 0)
(10.06 0.0027144 0)
(10.0632 0.00213893 0)
(10.0001 -0.000188183 0)
(10.0013 -0.000563874 0)
(10.0035 -0.000908465 0)
(10.0066 -0.00121538 0)
(10.0103 -0.00148528 0)
(10.0143 -0.00173225 0)
(10.0185 -0.00197395 0)
(10.0229 -0.00222302 0)
(10.0272 -0.00248687 0)
(10.0315 -0.00277193 0)
(10.0357 -0.00308282 0)
(10.0398 -0.00342291 0)
(10.0437 -0.00379325 0)
(10.0475 -0.00419416 0)
(10.0511 -0.00462441 0)
(10.0546 -0.00508202 0)
(10.0579 -0.00556599 0)
(10.061 -0.00606038 0)
(10.0001 -0.000998034 0)
(10.0013 -0.00292422 0)
(10.0037 -0.00463825 0)
(10.007 -0.00606309 0)
(10.0109 -0.00719686 0)
(10.015 -0.00809917 0)
(10.0194 -0.00883176 0)
(10.0238 -0.00943653 0)
(10.0281 -0.00994845 0)
(10.0324 -0.010399 0)
(10.0366 -0.0108138 0)
(10.0407 -0.0112095 0)
(10.0446 -0.011598 0)
(10.0483 -0.0119868 0)
(10.0518 -0.0123816 0)
(10.0552 -0.0127843 0)
(10.0584 -0.0131979 0)
(10.0615 -0.0136116 0)
(10.0002 -0.00169661 0)
(10.0015 -0.00498574 0)
(10.0041 -0.0078978 0)
(10.0078 -0.0102341 0)
(10.012 -0.0120169 0)
(10.0165 -0.0133961 0)
(10.0211 -0.0144781 0)
(10.0256 -0.0153199 0)
(10.0301 -0.0159788 0)
(10.0345 -0.0165134 0)
(10.0387 -0.0169688 0)
(10.0428 -0.0173734 0)
(10.0467 -0.0177472 0)
(10.0504 -0.0181035 0)
(10.0539 -0.0184525 0)
(10.0573 -0.0187991 0)
(10.0605 -0.0191482 0)
(10.0635 -0.0194928 0)
(10.0002 -0.00236002 0)
(10.0017 -0.00702257 0)
(10.0047 -0.0111541 0)
(10.009 -0.0143118 0)
(10.0137 -0.0165966 0)
(10.0186 -0.0183192 0)
(10.0234 -0.0196393 0)
(10.0283 -0.0206283 0)
(10.033 -0.0213674 0)
(10.0375 -0.0219382 0)
(10.0418 -0.0223973 0)
(10.0459 -0.0227818 0)
(10.0498 -0.0231178 0)
(10.0535 -0.0234256 0)
(10.0571 -0.0237176 0)
(10.0604 -0.0240026 0)
(10.0636 -0.024285 0)
(10.0666 -0.0245617 0)
(10.0002 -0.00298091 0)
(10.0018 -0.00908475 0)
(10.0054 -0.0144317 0)
(10.0105 -0.018312 0)
(10.0159 -0.0210472 0)
(10.0212 -0.023061 0)
(10.0264 -0.0245085 0)
(10.0315 -0.025515 0)
(10.0364 -0.0262351 0)
(10.041 -0.0267786 0)
(10.0454 -0.0272023 0)
(10.0496 -0.0275419 0)
(10.0536 -0.027827 0)
(10.0573 -0.0280799 0)
(10.0609 -0.0283149 0)
(10.0642 -0.0285407 0)
(10.0674 -0.0287625 0)
(10.0704 -0.0289783 0)
(10.0001 -0.00352824 0)
(10.0018 -0.0115417 0)
(10.0063 -0.0178719 0)
(10.0123 -0.021963 0)
(10.0183 -0.0250236 0)
(10.0241 -0.0274267 0)
(10.0297 -0.0290589 0)
(10.0351 -0.0300635 0)
(10.0402 -0.030711 0)
(10.045 -0.0311665 0)
(10.0495 -0.0314976 0)
(10.0538 -0.031745 0)
(10.0578 -0.0319428 0)
(10.0616 -0.0321147 0)
(10.0651 -0.0322746 0)
(10.0685 -0.0324295 0)
(10.0716 -0.0325836 0)
(10.0745 -0.0327327 0)
(9.99991 -0.00337804 0)
(10.0016 -0.0149609 0)
(10.0073 -0.0227144 0)
(10.0143 -0.0262212 0)
(10.0206 -0.0288034 0)
(10.0269 -0.0311641 0)
(10.0332 -0.032881 0)
(10.0391 -0.033965 0)
(10.0445 -0.0346611 0)
(10.0495 -0.0351219 0)
(10.0542 -0.0354177 0)
(10.0585 -0.0356029 0)
(10.0625 -0.0357236 0)
(10.0662 -0.035811 0)
(10.0697 -0.0358831 0)
(10.0728 -0.0359499 0)
(10.0758 -0.0360162 0)
(10.0785 -0.0360805 0)
(9.9986 -0.000396077 0)
(9.99909 -0.0157511 0)
(10.0076 -0.0274209 0)
(10.0166 -0.0324783 0)
(10.0238 -0.0348508 0)
(10.0307 -0.036203 0)
(10.0377 -0.0369514 0)
(10.0442 -0.037415 0)
(10.05 -0.0377608 0)
(10.0551 -0.0380058 0)
(10.0597 -0.038149 0)
(10.0638 -0.0382156 0)
(10.0674 -0.0382361 0)
(10.0705 -0.0382315 0)
(10.0733 -0.0382172 0)
(10.0758 -0.0382015 0)
(10.0779 -0.0381882 0)
(10.0798 -0.0381756 0)
(9.99488 0.001337 0)
(9.99288 -0.00808883 0)
(10.006 -0.0203453 0)
(10.0202 -0.0322674 0)
(10.0307 -0.0404664 0)
(10.0393 -0.0441349 0)
(10.0468 -0.0450445 0)
(10.053 -0.0448973 0)
(10.0579 -0.0444281 0)
(10.0618 -0.0438307 0)
(10.0647 -0.0431845 0)
(10.0669 -0.0425467 0)
(10.0684 -0.0419518 0)
(10.0692 -0.0414081 0)
(10.0696 -0.040925 0)
(10.0695 -0.0404992 0)
(10.069 -0.0401279 0)
(10.0683 -0.0397854 0)
(9.99473 -0.0305604 0)
(9.99926 -0.0228692 0)
(10.0147 -0.00263082 0)
(10.0304 -0.00190259 0)
(10.0435 -0.0116498 0)
(10.0533 -0.0209113 0)
(10.0594 -0.0272663 0)
(10.0619 -0.0314922 0)
(10.0616 -0.0342654 0)
(10.0592 -0.0359605 0)
(10.0552 -0.0368911 0)
(10.0499 -0.0373239 0)
(10.0436 -0.0374492 0)
(10.0366 -0.0373869 0)
(10.0291 -0.0372273 0)
(10.0212 -0.0370255 0)
(10.0131 -0.0368467 0)
(10.0048 -0.0366591 0)
(10.0273 -0.182757 0)
(10.0763 -0.288312 0)
(10.0872 -0.247752 0)
(10.0777 -0.186515 0)
(10.0664 -0.140291 0)
(10.0538 -0.108215 0)
(10.0365 -0.0858736 0)
(10.0146 -0.0704123 0)
(9.98945 -0.0596423 0)
(9.96243 -0.0518675 0)
(9.93447 -0.0460447 0)
(9.90617 -0.0415469 0)
(9.87801 -0.0379911 0)
(9.85033 -0.0351164 0)
(9.82336 -0.032751 0)
(9.7972 -0.0308315 0)
(9.77213 -0.0293162 0)
(9.74815 -0.0284985 0)
(9.93574 0.68932 0)
(9.86861 0.609606 0)
(9.76455 0.380625 0)
(9.62666 0.217445 0)
(9.48593 0.119271 0)
(9.35727 0.0631909 0)
(9.24276 0.0315802 0)
(9.14124 0.013621 0)
(9.05158 0.00326846 0)
(8.97263 -0.00279241 0)
(8.90275 -0.00634771 0)
(8.8406 -0.00846707 0)
(8.78492 -0.00971788 0)
(8.73484 -0.0104648 0)
(8.68943 -0.0109684 0)
(8.64811 -0.0112378 0)
(8.60993 -0.0114459 0)
(8.5746 -0.0121073 0)
(0.00900678 -0.0192933 -5.96807e-19)
(0.0237544 -0.0210845 4.17102e-19)
(0.0326509 -0.0123939 0)
(0.0353736 -0.00176581 0)
(0.0314966 0.00734359 0)
(0.0223695 0.0139666 -1.75849e-19)
(0.00937087 0.0182929 0)
(-0.00637585 0.0208772 0)
(-0.0240511 0.0223173 0)
(-0.0430969 0.0230827 0)
(-0.0631179 0.0234863 1.01415e-19)
(-0.0838465 0.0237282 0)
(-0.105151 0.0239483 0)
(-0.127017 0.0242858 0)
(-0.149477 0.0249315 0)
(-0.172601 0.0261163 7.58324e-20)
(-0.196525 0.0279694 0)
(-0.221361 0.0304301 0)
(-0.247032 0.0333216 0)
(-0.27361 0.0325903 0)
(-0.300824 0.0253183 0)
(-0.326255 0.0221518 0)
(-0.350947 0.0273536 0)
(-0.378396 0.034115 6.45157e-20)
(-0.407319 0.0480244 -6.44415e-20)
(-0.439151 0.066948 7.15688e-20)
(-0.479296 0.0479791 8.97123e-20)
(-0.520729 0.0160002 0)
(-0.553071 0.023305 0)
(-0.590609 0.0289104 -8.39975e-20)
(-0.629176 0.0301752 -7.88333e-20)
(-0.667625 0.0318347 0)
(-0.705667 0.0363435 0)
(-0.745039 0.0381515 -6.93745e-20)
(-0.785035 0.0369724 0)
(-0.82422 0.0367623 0)
(-0.863614 0.0366229 6.23565e-20)
(-0.903013 0.0364382 0)
(-0.9424 0.0361803 5.84716e-20)
(-0.981733 0.0358855 1.13457e-19)
(-1.02099 0.0355623 0)
(-1.06014 0.0352256 0)
(-1.09919 0.0348783 0)
(-1.13811 0.0345285 0)
(-1.17691 0.0341757 0)
(-1.21558 0.0338248 9.67941e-20)
(-1.25411 0.0334729 9.45662e-20)
(-1.2925 0.0331228 9.24587e-20)
(-1.33074 0.0327705 0)
(-1.36883 0.0324177 -8.85655e-20)
(-1.40675 0.0320594 0)
(-1.44451 0.0316969 8.5043e-20)
(-1.48207 0.0313256 8.34025e-20)
(-1.51944 0.0309463 0)
(-1.5566 0.0305543 0)
(-1.59352 0.030151 0)
(-1.63018 0.0297319 7.75051e-20)
(-1.66656 0.0292986 0)
(-1.70264 0.0288465 0)
(-1.7384 0.0283778 0)
(-1.77379 0.0278888 0)
(-1.8088 0.0273814 0)
(-1.84338 0.0268521 0)
(-1.87753 0.0263035 0)
(-1.91119 0.0257323 0)
(-1.94433 0.0251415 -6.69516e-20)
(-1.97693 0.0245282 0)
(-2.00895 0.023896 0)
(-2.04036 0.0232423 6.39578e-20)
(-2.07112 0.0225708 6.29955e-20)
(-2.10119 0.0218794 0)
(-2.13056 0.0211716 -6.11121e-20)
(-2.15918 0.0204457 6.01869e-20)
(-2.18703 0.0197058 0)
(-2.21407 0.0189504 -5.83593e-20)
(-2.24029 0.0181834 0)
(-2.26564 0.0174048 0)
(-2.29011 0.0166188 5.56498e-20)
(-2.31368 0.015825 0)
(-2.33633 0.0150278 -5.38466e-20)
(-2.35802 0.014228 0)
(-2.37876 0.0134297 5.20316e-20)
(-2.39853 0.0126335 5.11163e-20)
(-2.4173 0.0118438 5.01935e-20)
(-2.43509 0.0110627 9.85259e-20)
(-2.45186 0.0102956 -9.66466e-20)
(-2.46763 0.0095439 0)
(-2.48237 0.00880978 0)
(-2.49609 0.00809397 0)
(-2.50877 0.00738911 -8.89293e-20)
(-2.52044 0.00668989 -8.69422e-20)
(-2.53107 0.00598857 8.49304e-20)
(-2.54067 0.00527936 0)
(-2.54922 0.00455458 -8.08319e-20)
(-2.55669 0.0038076 -7.87446e-20)
(-2.56308 0.00303265 -7.66321e-20)
(-2.56833 0.0022297 0)
(-2.57242 0.0014077 0)
(-2.57528 0.000606793 0)
(-2.5768 -6.92327e-05 -6.7944e-20)
(-2.57726 -0.000603675 0)
(-2.57677 -0.00108582 0)
(-2.57531 -0.00155013 6.11488e-20)
(-2.57288 -0.00200182 0)
(-2.56947 -0.00244347 0)
(-2.56506 -0.0028777 5.41297e-20)
(-2.55961 -0.00330376 0)
(-2.5531 -0.00372691 0)
(-2.5455 -0.00414692 -4.68771e-20)
(-2.53676 -0.00457072 -4.44038e-20)
(-2.52685 -0.00499735 0)
(-2.5157 -0.005435 3.9366e-20)
(-2.50327 -0.00588188 0)
(-2.48948 -0.00634793 -3.41915e-20)
(-2.47426 -0.00683056 0)
(-2.45752 -0.00734223 -2.88541e-20)
(-2.43918 -0.00788007 -2.61119e-20)
(-2.41913 -0.00845907 0)
(-2.39725 -0.00907713 0)
(-2.37343 -0.00975246 0)
(-2.34759 -0.0104844 0)
(-2.31959 -0.0112884 0)
(-2.28928 -0.0121579 0)
(-2.2565 -0.0131109 0)
(-2.22108 -0.0141412 -1.18897e-21)
(-2.18288 -0.0152777 -2.52816e-21)
(-2.14175 -0.0165177 0)
(-2.09755 -0.017893 0)
(-2.05014 -0.0194005 0)
(-1.99939 -0.021068 0)
(-1.94518 -0.0228861 -5.00955e-20)
(-1.88739 -0.0248689 0)
(-1.82593 -0.0270123 7.35423e-20)
(-1.76071 -0.0293086 -8.69249e-20)
(-1.69167 -0.0318048 0)
(-1.61869 -0.034448 0)
(-1.54185 -0.0371474 0)
(-1.46116 -0.039987 1.55618e-19)
(-1.37664 -0.0429214 1.77595e-19)
(-1.28839 -0.0459085 0)
(-1.19652 -0.0489252 2.29046e-19)
(-1.10117 -0.0519395 2.59178e-19)
(-1.00254 -0.0549237 -2.92746e-19)
(-0.900836 -0.0578566 0)
(-0.79633 -0.0607266 0)
(-0.689292 -0.0635135 -4.18951e-19)
(-0.580026 -0.0662193 0)
(-0.468844 -0.0687809 0)
(-0.356222 -0.0711791 0)
(-0.242314 -0.0734611 0)
(-0.127833 -0.0754303 7.56708e-19)
(-0.0105707 -0.075623 7.77566e-19)
(0.109313 -0.0737099 0)
(0.22813 -0.0711631 7.1463e-19)
(0.345506 -0.0684408 0)
(0.460712 -0.0656387 0)
(0.573244 -0.062798 6.51059e-19)
(0.682724 -0.0599409 0)
(0.788859 -0.0570949 6.20766e-19)
(0.891409 -0.0542636 0)
(0.990203 -0.0514658 0)
(1.0851 -0.0487207 5.86073e-19)
(1.17603 -0.0460391 0)
(1.26298 -0.0434336 5.67716e-19)
(1.34592 -0.0408993 0)
(1.42488 -0.0384482 0)
(1.49991 -0.036097 0)
(1.57107 -0.0338384 -5.38342e-19)
(1.63843 -0.0316667 0)
(1.70204 -0.029574 5.26561e-19)
(1.76195 -0.0275517 0)
(1.81817 -0.0255832 0)
(1.87066 -0.0236392 0)
(1.91925 -0.0216691 0)
(1.9636 -0.0195859 0)
(2.00279 -0.0171979 0)
(2.03558 -0.0141058 0)
(2.05576 -0.00880113 -1.00698e-18)
(2.06347 0.00308117 0)
(1.97743 0.0226345 0)
(0.00479676 -0.0474428 1.3354e-18)
(0.00839125 -0.0332275 -6.91249e-19)
(0.00557202 -0.0127417 0)
(-0.000693018 0.00600105 2.05756e-19)
(-0.00987985 0.0218678 0)
(-0.0219296 0.0344711 7.57149e-20)
(-0.0366404 0.0439775 -1.37216e-19)
(-0.053785 0.0508795 -1.26324e-19)
(-0.0730764 0.0557795 0)
(-0.0942191 0.0592424 -1.10154e-19)
(-0.116965 0.0617292 -5.20807e-20)
(-0.141131 0.0635862 0)
(-0.166619 0.0650677 0)
(-0.193394 0.066371 0)
(-0.22145 0.0676682 0)
(-0.250794 0.0691184 -4.39035e-20)
(-0.281396 0.0708495 0)
(-0.313216 0.0728873 8.62639e-20)
(-0.346057 0.0751025 0)
(-0.380344 0.0769855 0)
(-0.416803 0.0780467 -8.38528e-20)
(-0.455129 0.0792702 0)
(-0.494838 0.0815448 8.09879e-20)
(-0.535647 0.084078 -4.06768e-20)
(-0.576691 0.0869957 4.11222e-20)
(-0.615656 0.0907009 -4.1961e-20)
(-0.655377 0.0934827 -4.27583e-20)
(-0.695906 0.0943835 0)
(-0.736576 0.0962286 0)
(-0.775469 0.0974429 3.77051e-20)
(-0.81405 0.0976834 -3.61501e-20)
(-0.852879 0.097383 0)
(-0.891543 0.0970941 0)
(-0.929894 0.096815 3.30547e-20)
(-0.967888 0.0961367 0)
(-1.00564 0.0952428 0)
(-1.04306 0.0943098 -3.07657e-20)
(-1.08015 0.0933299 0)
(-1.11693 0.0923023 2.92697e-20)
(-1.15342 0.0912421 -5.76512e-20)
(-1.18963 0.0901598 0)
(-1.22559 0.0890687 0)
(-1.26129 0.0879738 -1.08373e-19)
(-1.29675 0.0868822 -1.06387e-19)
(-1.33196 0.0857938 -1.04493e-19)
(-1.36693 0.0847113 5.11758e-20)
(-1.40167 0.0836313 -5.06406e-20)
(-1.43616 0.082554 -1.49099e-19)
(-1.4704 0.0814743 9.76946e-20)
(-1.50438 0.080391 4.82416e-20)
(-1.5381 0.0792978 0)
(-1.57154 0.0781931 -4.67842e-20)
(-1.60469 0.0770708 4.57758e-20)
(-1.63754 0.0759294 0)
(-1.67007 0.0747632 0)
(-1.70226 0.0735716 0)
(-1.73409 0.0723493 -4.35178e-20)
(-1.76554 0.0710964 0)
(-1.7966 0.0698081 8.43656e-20)
(-1.82722 0.0684855 0)
(-1.85741 0.0671246 8.2097e-20)
(-1.88711 0.0657269 0)
(-1.91633 0.0642896 -7.9911e-20)
(-1.94502 0.0628151 0)
(-1.97316 0.0613008 7.77902e-20)
(-2.00073 0.0597498 -3.82525e-20)
(-2.02769 0.0581602 0)
(-2.05404 0.0565358 -7.46957e-20)
(-2.07973 0.0548755 -3.69496e-20)
(-2.10474 0.0531839 -3.64396e-20)
(-2.12905 0.0514605 0)
(-2.15264 0.0497099 -3.52317e-20)
(-2.17548 0.0479324 -3.49153e-20)
(-2.19755 0.0461328 0)
(-2.21883 0.0443117 3.38959e-20)
(-2.2393 0.0424746 -6.66151e-20)
(-2.25895 0.0406233 0)
(-2.27775 0.0387635 -3.2349e-20)
(-2.29568 0.0368971 0)
(-2.31275 0.0350295 9.37877e-20)
(-2.32893 0.0331629 0)
(-2.3442 0.0313022 -9.0599e-20)
(-2.35857 0.0294484 -2.96847e-20)
(-2.37202 0.0276048 2.90695e-20)
(-2.38454 0.0257722 5.70468e-20)
(-2.39613 0.0239551 -5.59402e-20)
(-2.40678 0.0221565 0)
(-2.4165 0.0203817 0)
(-2.42527 0.018635 0)
(-2.43309 0.0169161 1.54095e-19)
(-2.43996 0.015221 5.01654e-20)
(-2.4459 0.0135466 -4.89487e-20)
(-2.4509 0.0118921 0)
(-2.45495 0.0102547 -4.6524e-20)
(-2.45807 0.00862836 4.52121e-20)
(-2.46026 0.00700425 4.39384e-20)
(-2.46155 0.00537422 0)
(-2.46197 0.00373754 0)
(-2.4616 0.00211637 0)
(-2.46056 0.000581523 3.86991e-20)
(-2.45868 -0.000838903 0)
(-2.45584 -0.00220457 -7.21567e-20)
(-2.45204 -0.00355827 -1.04094e-19)
(-2.44723 -0.00490788 6.67217e-20)
(-2.44141 -0.00625981 0)
(-2.43454 -0.00761878 3.06998e-20)
(-2.42659 -0.0089877 0)
(-2.41753 -0.0103743 5.56715e-20)
(-2.40731 -0.0117836 -2.65316e-20)
(-2.3959 -0.0132255 -2.5128e-20)
(-2.38325 -0.014705 0)
(-2.36931 -0.0162332 -6.65106e-20)
(-2.35401 -0.0178141 4.15559e-20)
(-2.33728 -0.0194603 1.92466e-20)
(-2.31905 -0.0211746 0)
(-2.29923 -0.0229701 1.6357e-20)
(-2.27773 -0.0248477 4.48945e-20)
(-2.25444 -0.0268197 0)
(-2.22925 -0.0288883 2.40841e-20)
(-2.20205 -0.0310717 2.10805e-20)
(-2.17274 -0.0333727 1.80391e-20)
(-2.14118 -0.0358036 0)
(-2.10723 -0.0383512 0)
(-2.07074 -0.0410212 0)
(-2.03153 -0.0437954 -2.79069e-21)
(-1.98946 -0.0466896 -8.2316e-22)
(-1.94437 -0.049688 0)
(-1.89612 -0.0528052 5.18144e-21)
(-1.84456 -0.0560194 8.95687e-21)
(-1.78954 -0.0593386 0)
(-1.73093 -0.0627406 1.75715e-20)
(-1.6686 -0.0662318 4.29323e-20)
(-1.60243 -0.0697828 -2.67975e-20)
(-1.53231 -0.0734017 -3.03645e-20)
(-1.45817 -0.077051 0)
(-1.37999 -0.080698 0)
(-1.29778 -0.0843301 0)
(-1.21152 -0.0878922 -5.61476e-20)
(-1.12127 -0.0913601 6.0585e-20)
(-1.02715 -0.0947302 1.39132e-19)
(-0.929297 -0.0979483 -7.93866e-20)
(-0.827891 -0.100975 8.45058e-20)
(-0.723165 -0.103767 9.76204e-20)
(-0.615397 -0.106311 0)
(-0.504905 -0.108582 0)
(-0.392036 -0.110573 -1.24274e-19)
(-0.277149 -0.112272 0)
(-0.160679 -0.113703 0)
(-0.0425447 -0.114882 3.19492e-19)
(0.0768887 -0.115914 0)
(0.19634 -0.116751 1.68093e-19)
(0.314449 -0.116402 -1.78773e-19)
(0.430482 -0.114478 0)
(0.544529 -0.111655 1.83917e-19)
(0.656611 -0.108309 0)
(0.766374 -0.104612 0)
(0.873479 -0.100661 -2.02477e-19)
(0.977633 -0.096535 4.08386e-19)
(1.07859 -0.09229 -2.1008e-19)
(1.17616 -0.0879809 0)
(1.27018 -0.0836477 0)
(1.36055 -0.0793342 2.15806e-19)
(1.4472 -0.0750711 0)
(1.53008 -0.0708916 2.21232e-19)
(1.6092 -0.0668094 0)
(1.68457 -0.0628468 0)
(1.75623 -0.0590138 0)
(1.82424 -0.0553155 2.31925e-19)
(1.88864 -0.0517422 0)
(1.9495 -0.0482868 -2.34654e-19)
(2.00688 -0.0449307 0)
(2.06079 -0.0416402 0)
(2.11119 -0.0383493 4.74018e-19)
(2.15793 -0.0349514 -4.7614e-19)
(2.20073 -0.0312458 0)
(2.23887 -0.0268559 0)
(2.27161 -0.0208295 0)
(2.29488 -0.0110355 1.46952e-18)
(2.31582 0.00903485 0)
(2.31113 0.046157 -1.01916e-18)
(-0.00353878 -0.0480088 -1.13831e-21)
(-0.00909765 -0.0197913 6.66046e-19)
(-0.0186806 0.00656166 0)
(-0.0307594 0.0293338 -2.66798e-19)
(-0.0445137 0.0488077 0)
(-0.0597239 0.0651594 0)
(-0.0765069 0.0785629 2.41782e-23)
(-0.0949908 0.0893153 8.28122e-20)
(-0.115221 0.0978371 7.82277e-20)
(-0.137166 0.104606 7.45566e-20)
(-0.160758 0.11009 0)
(-0.185918 0.114711 0)
(-0.21258 0.118819 -6.67765e-20)
(-0.240696 0.122701 -1.30112e-19)
(-0.270206 0.126577 1.27418e-19)
(-0.301031 0.130594 0)
(-0.333064 0.134811 1.23749e-19)
(-0.366151 0.139147 -6.11739e-20)
(-0.400138 0.143334 0)
(-0.435038 0.146941 1.18331e-19)
(-0.471026 0.149692 5.80261e-20)
(-0.508019 0.152294 -1.13182e-19)
(-0.545474 0.155377 -5.56054e-20)
(-0.582757 0.158776 0)
(-0.619423 0.162289 1.07251e-19)
(-0.655079 0.1651 1.05598e-19)
(-0.69017 0.165626 0)
(-0.72533 0.164448 1.00309e-19)
(-0.760475 0.163475 0)
(-0.79508 0.16217 9.42832e-20)
(-0.829375 0.160443 4.58115e-20)
(-0.863604 0.158633 0)
(-0.897672 0.156968 0)
(-0.931393 0.155206 0)
(-0.964799 0.153262 0)
(-0.998021 0.151291 0)
(-1.03105 0.149329 0)
(-1.06387 0.147379 7.82091e-20)
(-1.09649 0.145438 -1.1517e-19)
(-1.1289 0.143511 0)
(-1.16114 0.141598 0)
(-1.19319 0.139704 0)
(-1.22506 0.137828 1.68613e-22)
(-1.25677 0.135971 7.04789e-20)
(-1.28831 0.13413 1.38539e-19)
(-1.31968 0.132302 -1.36377e-19)
(-1.35087 0.130481 -6.70592e-20)
(-1.38188 0.128664 6.62304e-20)
(-1.41271 0.126844 -1.77124e-22)
(-1.44334 0.125016 6.41409e-20)
(-1.47377 0.123172 0)
(-1.50398 0.121308 6.23413e-20)
(-1.53395 0.119417 -1.75929e-22)
(-1.56368 0.117493 0)
(-1.59314 0.115533 0)
(-1.62233 0.113532 -5.90135e-20)
(-1.65121 0.111485 0)
(-1.67977 0.10939 0)
(-1.70798 0.107243 5.65339e-20)
(-1.73583 0.105044 1.11909e-19)
(-1.76329 0.102789 -5.53804e-20)
(-1.79034 0.100478 0)
(-1.81695 0.0981102 5.39338e-20)
(-1.84309 0.0956865 0)
(-1.86875 0.0932068 5.22247e-20)
(-1.89389 0.0906725 5.18136e-20)
(-1.91849 0.0880848 -1.01959e-19)
(-1.94253 0.0854462 -5.01572e-20)
(-1.96597 0.0827587 0)
(-1.98879 0.0800258 9.78249e-20)
(-2.01097 0.0772503 0)
(-2.03248 0.0744364 1.42718e-19)
(-2.05329 0.0715878 9.36901e-20)
(-2.0734 0.068709 9.23033e-20)
(-2.09276 0.0658044 -9.09094e-20)
(-2.11137 0.0628792 1.34347e-19)
(-2.1292 0.0599386 0)
(-2.14623 0.0569886 0)
(-2.16245 0.0540343 -8.52362e-20)
(-2.17783 0.0510814 -1.25742e-19)
(-2.19237 0.0481353 0)
(-2.20606 0.0452013 4.04708e-20)
(-2.21886 0.0422837 0)
(-2.23079 0.0393866 -1.16789e-19)
(-2.24183 0.0365137 -5.74848e-23)
(-2.25197 0.0336691 4.41381e-23)
(-2.26121 0.0308567 7.3186e-20)
(-2.26954 0.0280808 0)
(-2.27695 0.0253451 -6.99898e-20)
(-2.28345 0.0226499 5.18441e-24)
(-2.28903 0.0199932 0)
(-2.29371 0.0173739 0)
(-2.29748 0.0147925 0)
(-2.30035 0.01225 6.16138e-20)
(-2.30233 0.00974662 0)
(-2.30342 0.00728362 0)
(-2.30364 0.00486541 0)
(-2.30301 0.00250245 0)
(-2.30152 0.000209189 0)
(-2.29916 -0.0020195 5.10559e-20)
(-2.29587 -0.004215 0)
(-2.29164 -0.0063986 4.7314e-20)
(-2.28644 -0.00857867 4.54747e-20)
(-2.28024 -0.0107614 -4.36287e-20)
(-2.27303 -0.0129531 0)
(-2.26477 -0.0151584 -3.99192e-20)
(-2.25543 -0.0173851 0)
(-2.24498 -0.0196412 -3.61895e-20)
(-2.23337 -0.0219381 3.4318e-20)
(-2.22056 -0.0242858 9.75949e-20)
(-2.20651 -0.0266969 0)
(-2.19116 -0.0291824 8.63157e-20)
(-2.17445 -0.0317556 2.70748e-20)
(-2.15631 -0.0344278 0)
(-2.13666 -0.0372129 4.62981e-20)
(-2.11542 -0.0401219 4.24976e-20)
(-2.0925 -0.0431662 -5.78727e-20)
(-2.06778 -0.0463553 0)
(-2.04116 -0.0497029 -1.53388e-20)
(-2.01253 -0.0532238 -1.33937e-20)
(-1.98178 -0.0569302 -3.46355e-20)
(-1.94878 -0.0608283 0)
(-1.9134 -0.0649146 0)
(-1.87546 -0.0691831 0)
(-1.83481 -0.0736282 -3.73546e-21)
(-1.79131 -0.0782502 0)
(-1.74479 -0.0830445 0)
(-1.6951 -0.088009 -3.21213e-21)
(-1.64211 -0.0931304 -5.53088e-21)
(-1.58565 -0.0983986 0)
(-1.52561 -0.103791 0)
(-1.46183 -0.109291 -2.61702e-20)
(-1.39421 -0.114866 0)
(-1.32267 -0.120488 3.75682e-20)
(-1.24712 -0.12612 4.27027e-20)
(-1.16758 -0.131703 0)
(-1.08404 -0.137187 0)
(-0.99649 -0.142519 -6.32537e-20)
(-0.90504 -0.147638 -1.66353e-21)
(-0.80982 -0.152502 -1.8338e-21)
(-0.710995 -0.157034 0)
(-0.608776 -0.16117 -1.95939e-19)
(-0.503426 -0.164848 0)
(-0.395254 -0.168028 0)
(-0.2846 -0.170675 0)
(-0.171852 -0.17278 1.40669e-19)
(-0.0573029 -0.174346 0)
(0.0586035 -0.175377 -3.11994e-19)
(0.175158 -0.175765 -1.66934e-19)
(0.291681 -0.175391 0)
(0.407518 -0.17426 -1.81854e-19)
(0.521988 -0.172343 0)
(0.634628 -0.169486 0)
(0.745259 -0.165731 -6.04172e-19)
(0.853671 -0.161277 4.14522e-19)
(0.959565 -0.156282 0)
(1.06265 -0.150863 4.40611e-19)
(1.16269 -0.145125 -2.29159e-19)
(1.25946 -0.139152 0)
(1.35281 -0.133025 0)
(1.44262 -0.126811 0)
(1.52879 -0.120577 -7.45631e-19)
(1.61129 -0.114372 0)
(1.69008 -0.108248 -2.58701e-19)
(1.76519 -0.102234 0)
(1.83665 -0.0963624 0)
(1.9045 -0.0906556 0)
(1.96882 -0.085127 0)
(2.02968 -0.0797731 0)
(2.08715 -0.0745806 0)
(2.14131 -0.0695218 -5.57944e-19)
(2.19216 -0.0645434 0)
(2.23971 -0.0595513 -2.84662e-19)
(2.28384 -0.0543876 8.58005e-19)
(2.32434 -0.0487702 0)
(2.36069 -0.0421823 0)
(2.39251 -0.033484 -5.85529e-19)
(2.41754 -0.0206645 -5.93643e-19)
(2.43981 0.00157278 6.00373e-19)
(2.45092 0.0422064 6.18429e-19)
(-0.0105353 -0.0288048 -1.99117e-18)
(-0.0220986 0.00701412 -7.98654e-19)
(-0.0361587 0.0361887 -2.90389e-19)
(-0.0524961 0.0608805 -1.04485e-19)
(-0.0698274 0.0822061 0)
(-0.0878579 0.100637 1.51222e-19)
(-0.106778 0.116422 -6.9074e-20)
(-0.126806 0.129793 0)
(-0.14809 0.141051 -6.11901e-20)
(-0.170714 0.150555 0)
(-0.194703 0.158685 1.12688e-19)
(-0.220038 0.165808 0)
(-0.24667 0.172248 5.29334e-20)
(-0.274524 0.178267 1.03193e-19)
(-0.303491 0.184052 -1.00901e-19)
(-0.333425 0.189697 0)
(-0.364147 0.195182 -9.7094e-20)
(-0.395459 0.200368 0)
(-0.427191 0.205031 0)
(-0.459267 0.208939 -9.15013e-20)
(-0.491657 0.212032 0)
(-0.52427 0.21457 1.18444e-22)
(-0.556867 0.216828 0)
(-0.58917 0.218803 0)
(-0.621007 0.220332 -4.85401e-23)
(-0.652341 0.221079 -7.88949e-20)
(-0.683349 0.220684 -7.68991e-20)
(-0.714283 0.219375 -7.50416e-20)
(-0.745172 0.217717 0)
(-0.775891 0.215789 -1.42479e-19)
(-0.806424 0.213614 0)
(-0.836785 0.211292 -6.78738e-20)
(-0.866946 0.208896 0)
(-0.896889 0.206392 0)
(-0.92666 0.203778 6.36999e-20)
(-0.956308 0.201122 0)
(-0.985844 0.198467 -6.12815e-20)
(-1.01527 0.195833 -4.65046e-23)
(-1.04458 0.193228 1.18226e-19)
(-1.07377 0.190656 -1.16134e-19)
(-1.10286 0.188119 0)
(-1.13184 0.185614 0)
(-1.1607 0.18314 -5.51984e-20)
(-1.18946 0.180692 0)
(-1.21811 0.178265 -5.36476e-20)
(-1.24664 0.175851 5.28519e-20)
(-1.27505 0.173445 5.20831e-20)
(-1.30332 0.171037 0)
(-1.33146 0.168621 -5.06178e-20)
(-1.35945 0.166188 -4.99173e-20)
(-1.38727 0.163731 9.83181e-20)
(-1.41492 0.16124 -4.8572e-20)
(-1.44238 0.15871 -4.7924e-20)
(-1.46964 0.156133 0)
(-1.49667 0.153503 0)
(-1.52345 0.150815 4.60625e-20)
(-1.54998 0.148063 0)
(-1.57622 0.145243 0)
(-1.60216 0.142353 -8.86007e-20)