/*--------------------------------*- C++ -*----------------------------------*\
  =========                 |
  \\      /  F ield         | OpenFOAM: The Open Source CFD Toolbox
   \\    /   O peration     | Website:  https://openfoam.org
    \\  /    A nd           | Version:  8
     \\/     M anipulation  |
\*---------------------------------------------------------------------------*/
FoamFile
{
    version     2.0;
    format      ascii;
    class       volScalarField;
    location    "160";
    object      p;
}
// * * * * * * * * * * * * * * * * * * * * * * * * * * * * * * * * * * * * * //

dimensions      [0 2 -2 0 0 0 0];

internalField   nonuniform List<scalar> 
404911
(
-1.47325
-1.47147
-1.46975
-1.45913
-1.47425
-1.47181
-1.46879
-1.46458
-1.46218
-1.46066
-1.49033
-1.48734
-1.48366
-1.47874
-1.47421
-1.46982
-1.49425
-1.49107
-1.48792
-1.48441
-1.49942
-1.49558
-1.4923
-1.5044
-1.50153
-1.49921
-1.50766
-1.50567
-1.50316
-1.51595
-1.5135
-1.50845
-1.50588
-1.50118
-1.51905
-1.51482
-1.50991
-1.53062
-1.52696
-1.52251
-1.51744
-1.53508
-1.53172
-1.52774
-1.52434
-1.52091
-1.5382
-1.534
-1.52879
-1.52563
-1.54471
-1.54074
-1.53629
-1.5321
-1.54506
-1.54222
-1.565
-1.47297
-1.47383
-1.47296
-1.48615
-1.48226
-1.49423
-1.49084
-1.4878
-1.49893
-1.49525
-1.49122
-1.50354
-1.50063
-1.50778
-1.50478
-1.50197
-1.51248
-1.50843
-1.50341
-1.50225
-1.51942
-1.51416
-1.52584
-1.52175
-1.53302
-1.52881
-1.52415
-1.5389
-1.53506
-1.5455
-1.54148
-1.53508
-1.54693
-1.54305
-1.56921
-1.56912
-1.5651
-1.58075
-1.5765
-1.5716
-1.5873
-1.58352
-1.57728
-1.59117
-1.58952
-1.58558
-1.58965
-0.829816
-0.821852
-0.811799
-0.876159
-0.859724
-0.85479
-0.841059
-0.834587
-0.826697
-0.818104
-0.805592
-0.896945
-0.890599
-0.868587
-0.854674
-0.84407
-0.837827
-0.830601
-0.818334
-0.786734
-0.929355
-0.920448
-0.910204
-0.901427
-0.893202
-0.885214
-0.871412
-0.858659
-0.847139
-0.840429
-0.83285
-0.821132
-0.807722
-0.805763
-0.791887
-0.784277
-0.950239
-0.941919
-0.932736
-0.923732
-0.91424
-0.9048
-0.896215
-0.887989
-0.879509
-0.863909
-0.852624
-0.845023
-0.835516
-0.82729
-0.79382
-0.969362
-0.961554
-0.952839
-0.944878
-0.93567
-0.926479
-0.91636
-0.906538
-0.89737
-0.889116
-0.880877
-0.87065
-0.857555
-0.850195
-0.842484
-0.980593
-0.973928
-0.965621
-0.95772
-0.949522
-0.939761
-0.930392
-0.919463
-0.9097
-0.899822
-0.89132
-0.88244
-0.872938
-0.86302
-0.852695
-0.840463
-0.999306
-0.992327
-0.985466
-0.97803
-0.969564
-0.962998
-0.953675
-0.943335
-0.934476
-0.922361
-0.913767
-0.904366
-0.895903
-0.886982
-0.877341
-0.866803
-0.856904
-1.02508
-1.01762
-1.01237
-1.00501
-0.996307
-0.98845
-0.981874
-0.974728
-0.968193
-0.959393
-0.946522
-0.9367
-0.926886
-0.918246
-0.909728
-0.901248
-0.891086
-0.880438
-1.03821
-1.02923
-1.02224
-1.01591
-1.00846
-0.999857
-0.992387
-0.985349
-0.977973
-0.971368
-0.963541
-0.952982
-0.939242
-0.931172
-0.923179
-0.915099
-0.904645
-0.895182
-1.05725
-1.05017
-1.04273
-1.03426
-1.02676
-1.01979
-1.01196
-1.00408
-0.99657
-0.988354
-0.981377
-0.974066
-0.965914
-0.956047
-0.944891
-0.934893
-0.927494
-0.919222
-1.06933
-1.0607
-1.05335
-1.04661
-1.03817
-1.03015
-1.02384
-1.0163
-1.00714
-1.0004
-0.992562
-0.984747
-0.977438
-0.968834
-0.959565
-0.950204
-0.941425
-1.08689
-1.08063
-1.07316
-1.06568
-1.05706
-1.04985
-1.04254
-1.03377
-1.02749
-1.02074
-1.01238
-1.00398
-0.995706
-0.988551
-0.980531
-0.972806
-0.964439
-1.10031
-1.0953
-1.08992
-1.08358
-1.07718
-1.06836
-1.0599
-1.05207
-1.04717
-1.03967
-1.03111
-1.02402
-1.01557
-1.00738
-1.00011
-0.991993
-0.983379
-0.975773
-1.12155
-1.11533
-1.10422
-1.09873
-1.09108
-1.08617
-1.08024
-1.07147
-1.06241
-1.05602
-1.05032
-1.04343
-1.03573
-1.02734
-1.01918
-1.01155
-1.00367
-0.995204
-1.13716
-1.13152
-1.1251
-1.11823
-1.10841
-1.10252
-1.09517
-1.08753
-1.0822
-1.0735
-1.06574
-1.05807
-1.05166
-1.04366
-1.03627
-1.03021
-1.02273
-1.01539
-1.14618
-1.14006
-1.13422
-1.12832
-1.12137
-1.11206
-1.10563
-1.09894
-1.08977
-1.08384
-1.07512
-1.06803
-1.06175
-1.05485
-1.04597
-1.03613
-1.0303
-1.02641
-1.16081
-1.15548
-1.14965
-1.14298
-1.13684
-1.13049
-1.12273
-1.11478
-1.10791
-1.10157
-1.0929
-1.08679
-1.07925
-1.07262
-1.06428
-1.05827
-1.04994
-1.04241
-1.16809
-1.16318
-1.15804
-1.1524
-1.14573
-1.13922
-1.13386
-1.1258
-1.11609
-1.11048
-1.10515
-1.09702
-1.08758
-1.08042
-1.0748
-1.06603
-1.05844
-1.05159
-1.18633
-1.17989
-1.17193
-1.16764
-1.16151
-1.15579
-1.14964
-1.1421
-1.13641
-1.12871
-1.11876
-1.11323
-1.10877
-1.10153
-1.0921
-1.08349
-1.07605
-1.06968
-1.19246
-1.18897
-1.18283
-1.17426
-1.1707
-1.16457
-1.15867
-1.15324
-1.14597
-1.1398
-1.13206
-1.12169
-1.11596
-1.11153
-1.10506
-1.09684
-1.09
-1.20596
-1.20168
-1.19604
-1.19156
-1.18637
-1.17987
-1.17489
-1.16957
-1.16331
-1.15629
-1.14901
-1.14175
-1.13447
-1.12451
-1.11895
-1.11323
-1.1071
-1.10008
-1.21334
-1.20836
-1.20295
-1.19824
-1.19442
-1.19058
-1.18506
-1.17963
-1.17405
-1.16806
-1.16045
-1.15308
-1.14491
-1.13659
-1.12803
-1.1213
-1.11618
-1.10959
-1.22079
-1.21578
-1.21052
-1.205
-1.20037
-1.19693
-1.1927
-1.18792
-1.1825
-1.17797
-1.17294
-1.16459
-1.15538
-1.14746
-1.13944
-1.13055
-1.12569
-1.11706
-1.23352
-1.22957
-1.22369
-1.21773
-1.21185
-1.20712
-1.20366
-1.19939
-1.19436
-1.18958
-1.18521
-1.18123
-1.17693
-1.17063
-1.16025
-1.15157
-1.14453
-1.13712
-1.24816
-1.243
-1.23698
-1.23129
-1.22596
-1.22023
-1.21339
-1.20875
-1.20544
-1.2012
-1.19681
-1.19273
-1.18688
-1.18312
-1.17925
-1.17332
-1.16623
-1.15726
-1.25584
-1.2517
-1.24589
-1.24035
-1.23496
-1.22929
-1.22333
-1.2163
-1.20969
-1.20704
-1.20289
-1.19866
-1.19431
-1.1888
-1.18509
-1.1813
-1.17564
-1.16955
-1.268
-1.26406
-1.25945
-1.25454
-1.24951
-1.24374
-1.2381
-1.23266
-1.22708
-1.221
-1.20953
-1.2062
-1.20371
-1.19957
-1.1954
-1.19134
-1.18991
-1.18157
-1.27396
-1.26987
-1.26672
-1.26242
-1.25755
-1.25233
-1.2468
-1.24118
-1.23574
-1.23049
-1.22562
-1.21824
-1.21058
-1.20571
-1.20136
-1.19709
-1.1945
-1.18935
-1.27937
-1.27544
-1.27202
-1.26888
-1.26472
-1.26007
-1.25492
-1.24944
-1.24409
-1.23883
-1.23363
-1.22844
-1.22276
-1.21643
-1.21099
-1.20579
-1.20114
-1.19759
-1.28603
-1.28243
-1.27714
-1.27446
-1.27071
-1.2671
-1.26269
-1.25774
-1.25208
-1.24725
-1.24212
-1.23673
-1.23156
-1.22611
-1.22096
-1.21543
-1.21006
-1.20448
-1.29896
-1.29303
-1.28969
-1.28605
-1.28058
-1.27697
-1.27331
-1.2701
-1.26542
-1.26164
-1.25449
-1.25027
-1.24521
-1.23971
-1.23449
-1.22906
-1.22433
-1.21985
-1.30303
-1.30056
-1.29679
-1.29242
-1.28865
-1.2849
-1.28093
-1.27691
-1.2733
-1.26809
-1.26407
-1.2576
-1.25325
-1.24822
-1.24273
-1.23729
-1.23209
-1.2267
-1.30867
-1.30584
-1.30242
-1.29866
-1.29472
-1.29089
-1.28737
-1.2836
-1.27956
-1.27546
-1.27124
-1.26648
-1.26127
-1.25635
-1.25112
-1.24551
-1.23904
-1.23428
-1.31607
-1.31081
-1.30734
-1.3046
-1.30145
-1.29793
-1.29432
-1.29014
-1.28594
-1.28184
-1.27773
-1.27347
-1.26873
-1.26372
-1.259
-1.25402
-1.24821
-1.32344
-1.32148
-1.31669
-1.31284
-1.309
-1.30646
-1.30382
-1.30098
-1.2982
-1.29312
-1.2883
-1.28436
-1.28055
-1.27629
-1.27134
-1.26667
-1.26169
-1.25728
-1.32908
-1.32604
-1.32231
-1.31818
-1.31398
-1.31089
-1.3093
-1.30615
-1.30291
-1.30054
-1.29594
-1.29077
-1.28699
-1.28339
-1.27894
-1.27401
-1.26916
-1.26394
-1.33611
-1.33165
-1.32814
-1.32406
-1.32031
-1.31552
-1.31241
-1.31263
-1.30909
-1.30525
-1.30298
-1.29967
-1.29338
-1.28942
-1.2856
-1.28087
-1.27494
-1.27018
-1.34442
-1.34225
-1.33822
-1.33388
-1.32967
-1.32606
-1.32337
-1.31957
-1.31477
-1.31501
-1.31195
-1.30731
-1.30412
-1.30095
-1.29578
-1.29177
-1.28774
-1.28295
-1.35202
-1.34827
-1.34371
-1.34005
-1.33584
-1.33172
-1.32812
-1.32581
-1.32368
-1.31874
-1.31762
-1.31487
-1.30987
-1.30655
-1.30321
-1.2987
-1.29414
-1.29034
-1.35907
-1.3548
-1.35076
-1.34633
-1.34219
-1.3382
-1.3341
-1.33007
-1.32789
-1.3275
-1.32323
-1.32046
-1.31718
-1.31219
-1.30873
-1.30539
-1.30085
-1.29692
-1.36843
-1.36099
-1.35751
-1.3533
-1.34885
-1.34481
-1.34086
-1.33669
-1.33211
-1.32889
-1.32774
-1.32425
-1.32212
-1.31886
-1.31429
-1.31083
-1.30696
-1.30344
-1.37236
-1.36839
-1.36456
-1.35989
-1.35586
-1.3518
-1.34784
-1.34388
-1.3399
-1.33496
-1.33006
-1.32759
-1.32509
-1.32333
-1.32029
-1.31681
-1.31372
-1.38139
-1.37979
-1.37472
-1.3714
-1.3673
-1.36273
-1.35826
-1.35442
-1.35082
-1.34693
-1.34314
-1.33909
-1.33174
-1.32732
-1.32567
-1.3244
-1.32187
-1.31864
-1.38893
-1.38528
-1.38151
-1.3774
-1.3737
-1.36961
-1.36536
-1.36026
-1.35652
-1.35343
-1.34994
-1.3462
-1.34239
-1.3363
-1.32931
-1.32755
-1.32544
-1.3237
-1.39454
-1.39158
-1.38817
-1.38441
-1.38049
-1.37662
-1.3726
-1.36904
-1.36284
-1.36019
-1.35564
-1.3526
-1.34877
-1.34472
-1.3405
-1.33563
-1.33205
-1.32944
-1.40101
-1.39802
-1.39478
-1.39124
-1.38734
-1.38352
-1.37958
-1.37571
-1.37261
-1.36745
-1.36343
-1.35855
-1.35517
-1.35133
-1.34727
-1.34317
-1.3394
-1.3361
-1.40593
-1.40388
-1.40091
-1.39782
-1.39415
-1.39027
-1.38624
-1.38229
-1.37842
-1.37478
-1.37096
-1.3666
-1.36219
-1.3582
-1.3541
-1.35015
-1.34556
-1.34256
-1.41025
-1.40708
-1.40512
-1.40289
-1.40004
-1.39656
-1.39278
-1.38874
-1.38469
-1.38087
-1.37716
-1.37335
-1.36928
-1.36517
-1.361
-1.3569
-1.3526
-1.3487
-1.41526
-1.41145
-1.40826
-1.40601
-1.40418
-1.4017
-1.3986
-1.39522
-1.39152
-1.38751
-1.38369
-1.38008
-1.37643
-1.37226
-1.36794
-1.36373
-1.35985
-1.35631
-1.41958
-1.4169
-1.41301
-1.40897
-1.40703
-1.40545
-1.40324
-1.40061
-1.39763
-1.39441
-1.39041
-1.38634
-1.38311
-1.37946
-1.37517
-1.37084
-1.36667
-1.3618
-1.42786
-1.42484
-1.42203
-1.4183
-1.41539
-1.41124
-1.40802
-1.40735
-1.40513
-1.40259
-1.40028
-1.39757
-1.3941
-1.38867
-1.3856
-1.38199
-1.37782
-1.37323
-1.36923
-1.43318
-1.42915
-1.42568
-1.42231
-1.42048
-1.41823
-1.41566
-1.41033
-1.40941
-1.40768
-1.40479
-1.40152
-1.39866
-1.395
-1.39088
-1.38776
-1.38413
-1.37969
-1.4343
-1.43127
-1.42807
-1.4251
-1.42262
-1.42067
-1.41906
-1.41535
-1.41138
-1.40843
-1.40577
-1.40229
-1.39962
-1.39657
-1.39311
-1.38983
-1.38571
-1.44531
-1.44144
-1.43685
-1.43338
-1.42997
-1.42694
-1.42423
-1.42242
-1.42124
-1.41794
-1.41301
-1.40938
-1.40639
-1.40347
-1.40086
-1.39799
-1.39498
-1.39224
-1.45117
-1.44789
-1.4434
-1.43936
-1.43554
-1.432
-1.42868
-1.42549
-1.42316
-1.42088
-1.41775
-1.41418
-1.41083
-1.40731
-1.4048
-1.40228
-1.39955
-1.39768
-1.45809
-1.4536
-1.4501
-1.44588
-1.44174
-1.43792
-1.43441
-1.43083
-1.42699
-1.42403
-1.42093
-1.41816
-1.41539
-1.41216
-1.40933
-1.40668
-1.40426
-1.40102
-1.4586
-1.45566
-1.45209
-1.44805
-1.44399
-1.44027
-1.43697
-1.434
-1.43009
-1.42639
-1.42237
-1.42053
-1.4179
-1.41475
-1.41176
-1.40911
-1.40651
-1.46187
-1.46061
-1.45723
-1.45401
-1.4502
-1.44621
-1.44266
-1.43931
-1.43615
-1.43269
-1.42911
-1.42493
-1.4225
-1.41973
-1.41671
-1.41367
-1.41107
-1.46894
-1.46528
-1.46352
-1.46243
-1.45874
-1.45606
-1.45252
-1.44875
-1.44495
-1.44173
-1.43799
-1.43506
-1.43106
-1.42772
-1.42464
-1.42168
-1.41849
-1.41548
-1.4747
-1.47115
-1.46794
-1.46617
-1.46407
-1.46111
-1.45814
-1.4549
-1.45136
-1.44788
-1.44474
-1.44056
-1.43764
-1.43383
-1.43014
-1.42711
-1.42304
-1.4789
-1.47559
-1.47275
-1.47014
-1.46817
-1.46622
-1.4631
-1.46005
-1.45694
-1.45381
-1.45036
-1.44735
-1.44283
-1.4397
-1.43624
-1.43262
-1.42933
-1.48498
-1.48264
-1.47983
-1.47703
-1.47457
-1.472
-1.47011
-1.46899
-1.46516
-1.46184
-1.45863
-1.45491
-1.45192
-1.4492
-1.44564
-1.44232
-1.43856
-1.43516
-1.48878
-1.48649
-1.48393
-1.48125
-1.47868
-1.47568
-1.47316
-1.47108
-1.46938
-1.46636
-1.46399
-1.4613
-1.45685
-1.45356
-1.45085
-1.44784
-1.44421
-1.44038
-1.49447
-1.49081
-1.48829
-1.48598
-1.48308
-1.47984
-1.47676
-1.47414
-1.47171
-1.46925
-1.46703
-1.4645
-1.46209
-1.45911
-1.45566
-1.45229
-1.44926
-1.4461
-1.49829
-1.49567
-1.4924
-1.49034
-1.48756
-1.48463
-1.48125
-1.47788
-1.47522
-1.47254
-1.46976
-1.46679
-1.46387
-1.4613
-1.45835
-1.45563
-1.45287
-1.44989
-1.50358
-1.50246
-1.50028
-1.49649
-1.49397
-1.49165
-1.48908
-1.48602
-1.48305
-1.47944
-1.47653
-1.47375
-1.47049
-1.46705
-1.46438
-1.4612
-1.45859
-1.4559
-1.45348
-1.50756
-1.50639
-1.50457
-1.50198
-1.49879
-1.49632
-1.49345
-1.49053
-1.4879
-1.48476
-1.48124
-1.47868
-1.47636
-1.47344
-1.47023
-1.46688
-1.46317
-1.46106
-1.4581
-1.51318
-1.50862
-1.50664
-1.50402
-1.50104
-1.49844
-1.49544
-1.49251
-1.48962
-1.4867
-1.48316
-1.48077
-1.47819
-1.47516
-1.4721
-1.46907
-1.4656
-1.46214
-1.51864
-1.51395
-1.51049
-1.50823
-1.50518
-1.50245
-1.50008
-1.49767
-1.49456
-1.49153
-1.48858
-1.48498
-1.48271
-1.48
-1.47686
-1.47388
-1.47113
-1.52614
-1.52129
-1.51619
-1.51272
-1.50991
-1.50712
-1.50433
-1.50198
-1.49945
-1.4968
-1.49361
-1.49028
-1.48739
-1.48458
-1.48154
-1.47836
-1.47687
-1.53327
-1.52905
-1.52449
-1.51895
-1.51537
-1.51227
-1.50924
-1.50655
-1.50402
-1.50152
-1.49896
-1.49538
-1.49213
-1.48933
-1.48646
-1.48336
-1.48036
-1.54498
-1.54046
-1.53616
-1.532
-1.52725
-1.52211
-1.51852
-1.51498
-1.51165
-1.50911
-1.50679
-1.50345
-1.50067
-1.4967
-1.49388
-1.49106
-1.48788
-1.48383
-1.5514
-1.54704
-1.54234
-1.53772
-1.53439
-1.53003
-1.52565
-1.52233
-1.5179
-1.51449
-1.51155
-1.50812
-1.50464
-1.50164
-1.49854
-1.4959
-1.49312
-1.55909
-1.55439
-1.55035
-1.54552
-1.54095
-1.5372
-1.53272
-1.52857
-1.52536
-1.52093
-1.51726
-1.51391
-1.51013
-1.50717
-1.50356
-1.50097
-1.4984
-1.56721
-1.56205
-1.55783
-1.55315
-1.54813
-1.54409
-1.53949
-1.53591
-1.5318
-1.52861
-1.52394
-1.51973
-1.51618
-1.51252
-1.50904
-1.50548
-1.50244
-1.57458
-1.56981
-1.56545
-1.56072
-1.55605
-1.55068
-1.5463
-1.54272
-1.53828
-1.53457
-1.53074
-1.52665
-1.52225
-1.51859
-1.51498
-1.51089
-1.50788
-1.58201
-1.57763
-1.57318
-1.56879
-1.56438
-1.55931
-1.55432
-1.54893
-1.54492
-1.54146
-1.53738
-1.53327
-1.52885
-1.52476
-1.52102
-1.5177
-1.5133
-1.58771
-1.585
-1.5814
-1.57597
-1.57101
-1.56692
-1.56315
-1.55825
-1.55314
-1.54901
-1.54445
-1.5403
-1.5365
-1.53188
-1.52738
-1.52301
-1.52053
-1.59166
-1.58698
-1.5836
-1.57841
-1.5736
-1.56903
-1.56562
-1.56123
-1.55609
-1.55197
-1.54701
-1.54321
-1.53914
-1.53461
-1.52893
-1.52548
-1.59839
-1.59411
-1.5898
-1.58498
-1.58017
-1.57614
-1.5722
-1.56845
-1.56416
-1.55917
-1.55471
-1.55
-1.54609
-1.54192
-1.53699
-1.61786
-1.61017
-1.60306
-1.59748
-1.59258
-1.58775
-1.58362
-1.57968
-1.57505
-1.57074
-1.56612
-1.5611
-1.55716
-1.55316
-1.54891
-1.5445
-1.63299
-1.62241
-1.61496
-1.60884
-1.60215
-1.59579
-1.59079
-1.58721
-1.58289
-1.57849
-1.57409
-1.56938
-1.5638
-1.55984
-1.55549
-1.5518
-1.64658
-1.63826
-1.62949
-1.62142
-1.61468
-1.60842
-1.60114
-1.59484
-1.59015
-1.58582
-1.58159
-1.57754
-1.57286
-1.56724
-1.56142
-1.55816
-1.66937
-1.66212
-1.65379
-1.64493
-1.63668
-1.62735
-1.62
-1.61381
-1.60798
-1.60109
-1.59526
-1.58919
-1.58469
-1.58053
-1.57635
-1.57101
-1.68666
-1.67611
-1.66772
-1.66013
-1.65182
-1.64224
-1.63362
-1.62604
-1.61855
-1.61307
-1.60693
-1.59941
-1.59283
-1.58908
-1.58501
-1.58031
-1.70052
-1.69092
-1.68161
-1.67299
-1.6654
-1.65794
-1.64639
-1.64037
-1.63352
-1.62709
-1.62327
-1.6147
-1.60303
-1.59399
-1.59105
-1.58848
-1.71555
-1.70693
-1.69605
-1.6845
-1.6775
-1.669
-1.6602
-1.64922
-1.64304
-1.63694
-1.63246
-1.629
-1.62175
-1.6121
-1.60109
-1.59458
-1.73078
-1.72313
-1.71347
-1.7045
-1.69322
-1.68285
-1.67488
-1.66708
-1.65542
-1.64725
-1.64087
-1.63659
-1.63215
-1.6267
-1.61995
-1.61155
-1.74591
-1.73788
-1.72887
-1.71904
-1.71055
-1.70091
-1.69079
-1.68169
-1.67306
-1.6625
-1.653
-1.64554
-1.64119
-1.63674
-1.63052
-1.75816
-1.75179
-1.74451
-1.73475
-1.7257
-1.71763
-1.70665
-1.69779
-1.6901
-1.68112
-1.66981
-1.66088
-1.65135
-1.64589
-1.64028
-1.63548
-1.76801
-1.76217
-1.75616
-1.74847
-1.73943
-1.73128
-1.72357
-1.71228
-1.70446
-1.69624
-1.68713
-1.67606
-1.66703
-1.65721
-1.65105
-1.64265
-1.77625
-1.772
-1.76618
-1.75992
-1.75211
-1.74271
-1.73466
-1.72834
-1.72049
-1.71082
-1.70244
-1.69395
-1.68483
-1.67498
-1.66638
-1.78091
-1.77588
-1.7705
-1.76245
-1.75605
-1.7463
-1.73776
-1.73102
-1.72378
-1.71466
-1.70682
-1.69864
-1.69004
-1.68133
-1.79433
-1.7876
-1.77962
-1.77428
-1.766
-1.76383
-1.75051
-1.74246
-1.73564
-1.72799
-1.72022
-1.71235
-1.70315
-1.8151
-1.808
-1.80051
-1.79411
-1.78359
-1.77607
-1.77064
-1.76223
-1.75486
-1.74693
-1.73997
-1.73336
-1.72542
-1.71859
-1.82813
-1.81997
-1.81245
-1.80583
-1.79778
-1.78907
-1.77886
-1.77315
-1.76714
-1.75901
-1.75132
-1.74448
-1.73717
-1.72949
-1.84396
-1.8344
-1.8256
-1.81575
-1.81019
-1.80239
-1.79343
-1.78553
-1.77761
-1.77075
-1.76292
-1.75467
-1.74873
-1.74082
-1.85928
-1.85002
-1.84207
-1.83116
-1.82299
-1.81428
-1.80534
-1.79865
-1.7906
-1.78271
-1.77535
-1.76842
-1.76021
-1.751
-1.87355
-1.86396
-1.85556
-1.84834
-1.83643
-1.83473
-1.81766
-1.808
-1.79995
-1.79382
-1.7868
-1.77952
-1.77092
-1.76519
-1.88734
-1.87887
-1.86683
-1.85993
-1.85234
-1.8413
-1.83977
-1.82216
-1.80873
-1.8002
-1.79625
-1.79012
-1.78147
-1.86221
-1.85751
-1.84915
-1.84041
-1.82993
-1.81937
-1.8077
-1.80134
-1.79593
-1.86647
-1.86291
-1.8551
-1.84614
-1.83369
-1.82498
-1.81387
-1.80779
-1.88132
-1.87037
-1.86486
-1.85784
-1.84999
-1.84067
-1.82966
-1.90122
-1.8887
-1.87757
-1.86895
-1.86155
-1.85463
-1.84652
-1.89416
-1.88489
-1.8754
-1.86644
-1.85698
-1.93004
-1.91504
-1.89807
-1.88939
-1.88036
-1.87118
-1.9975
-1.99181
-1.95496
-1.94123
-1.89778
-1.99999
-1.98792
-1.97984
-1.97325
-1.96667
-1.93281
-2.0173
-1.9761
-1.97224
-1.96297
-1.94797
-2.02427
-1.99978
-1.97995
-0.302658
-0.277356
-0.245456
-0.376836
-0.372686
-0.356521
-0.333356
-0.317982
-0.305408
-0.298909
-0.237668
-0.207364
-0.44859
-0.433294
-0.423862
-0.400938
-0.38864
-0.372611
-0.352142
-0.336948
-0.321237
-0.303242
-0.302602
-0.272247
-0.253602
-0.246782
-0.212869
-0.507407
-0.491567
-0.468668
-0.455488
-0.435754
-0.425715
-0.408649
-0.389429
-0.376369
-0.360118
-0.343758
-0.331368
-0.311569
-0.295721
-0.27826
-0.254752
-0.238536
-0.223421
-0.18029
-0.163865
-0.12742
-0.0908954
-0.564336
-0.546597
-0.52603
-0.509408
-0.49565
-0.477264
-0.460699
-0.445501
-0.429046
-0.412317
-0.396612
-0.380771
-0.366413
-0.35324
-0.345206
-0.307081
-0.291983
-0.27431
-0.256949
-0.239374
-0.216661
-0.193563
-0.16698
-0.607572
-0.599903
-0.583196
-0.568313
-0.547553
-0.530688
-0.51384
-0.49791
-0.482258
-0.466371
-0.451012
-0.433738
-0.417389
-0.401073
-0.389381
-0.373856
-0.364368
-0.337216
-0.316981
-0.289192
-0.276771
-0.261151
-0.242402
-0.219056
-0.194553
-0.634326
-0.625903
-0.613587
-0.602389
-0.588793
-0.57507
-0.558091
-0.536049
-0.518634
-0.500554
-0.486941
-0.472916
-0.458033
-0.439089
-0.420348
-0.406137
-0.392898
-0.379221
-0.36885
-0.350427
-0.32388
-0.292764
-0.279726
-0.264366
-0.244985
-0.660582
-0.651726
-0.639479
-0.630903
-0.619903
-0.606335
-0.593783
-0.580193
-0.561815
-0.545057
-0.527744
-0.504315
-0.491954
-0.479391
-0.466397
-0.448231
-0.426535
-0.410395
-0.397899
-0.384411
-0.371425
-0.353897
-0.331116
-0.304282
-0.288009
-0.681466
-0.67502
-0.666517
-0.655823
-0.643151
-0.635368
-0.625975
-0.610985
-0.597519
-0.586859
-0.569579
-0.552275
-0.53398
-0.515163
-0.495853
-0.483734
-0.473201
-0.45361
-0.434094
-0.417136
-0.40395
-0.389995
-0.373286
-0.357114
-0.337609
-0.725873
-0.719811
-0.703104
-0.689564
-0.679719
-0.670144
-0.657049
-0.64732
-0.638271
-0.629712
-0.617512
-0.601309
-0.590261
-0.576596
-0.559142
-0.539529
-0.518771
-0.498908
-0.488523
-0.477249
-0.459581
-0.442635
-0.428261
-0.411364
-0.396204
-0.381944
-0.759437
-0.751313
-0.740818
-0.732364
-0.720064
-0.707521
-0.696098
-0.683497
-0.672563
-0.661638
-0.653009
-0.642293
-0.632808
-0.620066
-0.606451
-0.594399
-0.580891
-0.564756
-0.544795
-0.529015
-0.509528
-0.493774
-0.479172
-0.463913
-0.448849
-0.43457
-0.419318
-0.769424
-0.7619
-0.752461
-0.744414
-0.735885
-0.72528
-0.711383
-0.700823
-0.688876
-0.677843
-0.667248
-0.65652
-0.647094
-0.638595
-0.62334
-0.611329
-0.59981
-0.585682
-0.569062
-0.54923
-0.533465
-0.521327
-0.501364
-0.48803
-0.471668
-0.800926
-0.792708
-0.782557
-0.771558
-0.764452
-0.754862
-0.74707
-0.738901
-0.729393
-0.717679
-0.704473
-0.693126
-0.6826
-0.671642
-0.660485
-0.650066
-0.641731
-0.627297
-0.616225
-0.604971
-0.590552
-0.573446
-0.556299
-0.545137
-0.523585
-0.813987
-0.803328
-0.795254
-0.785477
-0.777048
-0.772989
-0.759941
-0.750101
-0.740128
-0.730718
-0.721208
-0.709081
-0.696625
-0.685668
-0.674462
-0.664026
-0.653712
-0.64458
-0.631016
-0.621011
-0.610041
-0.595162
-0.578172
-0.563509
-0.852343
-0.841353
-0.834928
-0.818742
-0.807971
-0.798659
-0.788248
-0.779333
-0.771692
-0.761578
-0.752329
-0.743115
-0.733562
-0.721645
-0.712194
-0.699194
-0.688363
-0.678126
-0.668127
-0.658468
-0.647316
-0.634595
-0.625019
-0.612995
-0.60095
-0.873587
-0.865829
-0.856472
-0.845602
-0.836851
-0.825497
-0.814996
-0.804989
-0.795617
-0.780071
-0.76997
-0.76279
-0.754578
-0.744656
-0.735804
-0.72672
-0.714822
-0.702824
-0.69143
-0.681498
-0.672091
-0.662033
-0.647166
-0.638103
-0.629629
-0.89774
-0.8888
-0.879078
-0.869418
-0.858965
-0.848777
-0.838534
-0.830077
-0.820895
-0.811561
-0.800402
-0.785129
-0.770063
-0.764421
-0.756471
-0.748082
-0.738993
-0.728145
-0.717619
-0.706034
-0.694454
-0.6844
-0.675398
-0.665553
-0.65338
-0.930144
-0.922622
-0.910556
-0.901669
-0.893198
-0.883893
-0.874784
-0.861887
-0.852402
-0.842768
-0.83491
-0.826203
-0.816381
-0.805895
-0.793763
-0.775389
-0.76635
-0.75889
-0.751578
-0.742363
-0.728374
-0.719522
-0.708353
-0.696384
-0.687252
-0.677219
-0.953074
-0.94098
-0.933096
-0.924255
-0.914913
-0.90655
-0.897967
-0.889445
-0.879528
-0.866932
-0.857205
-0.846599
-0.838653
-0.829634
-0.818872
-0.809294
-0.801176
-0.788599
-0.7754
-0.763074
-0.755745
-0.746713
-0.732569
-0.719622
-0.708324
-0.697692
-0.966347
-0.964063
-0.956946
-0.946349
-0.937615
-0.929078
-0.91985
-0.910925
-0.902444
-0.893887
-0.884396
-0.87229
-0.861286
-0.850265
-0.842194
-0.833032
-0.821431
-0.810112
-0.803762
-0.793982
-0.781957
-0.769418
-0.758293
-0.748865
-0.734001
-0.72032
-0.708664
-0.989995
-0.980132
-0.973138
-0.966905
-0.959362
-0.950861
-0.941729
-0.932816
-0.923851
-0.91474
-0.905762
-0.896888
-0.887439
-0.877197
-0.865712
-0.85486
-0.845994
-0.836637
-0.823525
-0.81207
-0.803958
-0.793069
-0.782093
-0.77175
-0.760801
-0.749306
-0.737596
-1.00012
-0.99227
-0.984783
-0.977413
-0.970453
-0.962625
-0.954564
-0.945717
-0.936677
-0.927344
-0.917794
-0.908246
-0.898884
-0.889715
-0.880295
-0.870247
-0.859826
-0.849793
-0.839565
-0.827908
-0.813947
-0.805341
-0.793085
-0.784118
-0.774001
-0.763904
-1.01553
-1.01169
-1.00402
-0.996368
-0.988466
-0.980999
-0.974067
-0.966714
-0.958943
-0.950538
-0.941599
-0.931572
-0.921109
-0.911122
-0.9016
-0.892562
-0.883667
-0.874239
-0.864318
-0.85393
-0.842819
-0.831407
-0.817375
-0.80647
-0.797499
-0.78823
-1.03701
-1.03046
-1.02059
-1.01425
-1.00749
-0.999891
-0.992106
-0.98505
-0.978021
-0.970625
-0.962946
-0.954627
-0.945589
-0.935845
-0.924671
-0.91487
-0.90545
-0.896491
-0.887528
-0.878214
-0.868517
-0.857889
-0.847803
-0.836726
-0.823628
-0.813186
-1.04987
-1.04109
-1.03329
-1.0255
-1.01806
-1.01136
-1.00388
-0.996408
-0.988869
-0.981575
-0.9743
-0.966532
-0.9582
-0.948737
-0.938342
-0.928337
-0.919174
-0.910156
-0.901045
-0.891678
-0.882129
-0.872409
-0.861941
-0.851201
-0.840658
-1.07004
-1.06083
-1.05311
-1.04498
-1.03731
-1.02925
-1.02213
-1.01533
-1.00772
-1.00004
-0.992446
-0.985029
-0.977796
-0.970175
-0.962168
-0.95283
-0.941872
-0.93233
-0.92382
-0.914837
-0.905162
-0.895415
-0.88615
-0.876725
-0.865737
-0.855566
-1.08774
-1.08077
-1.07362
-1.0653
-1.05701
-1.04897
-1.04115
-1.03303
-1.02609
-1.01912
-1.01158
-1.00391
-0.996255
-0.988769
-0.981518
-0.973981
-0.965956
-0.957386
-0.947245
-0.936844
-0.928094
-0.918924
-0.910117
-0.900419
-0.890034
-0.878767
-1.10289
-1.09797
-1.09098
-1.08482
-1.07746
-1.06874
-1.06038
-1.05247
-1.04469
-1.03684
-1.02992
-1.0229
-1.01544
-1.0079
-1.00022
-0.99264
-0.985369
-0.978018
-0.969459
-0.960802
-0.951555
-0.941285
-0.931646
-0.922745
-0.913457
-0.903853
-0.894903
-1.11435
-1.10682
-1.09959
-1.09367
-1.0877
-1.08033
-1.0719
-1.06349
-1.05574
-1.04825
-1.04107
-1.03409
-1.02696
-1.0193
-1.01161
-1.00374
-0.996097
-0.988806
-0.981393
-0.973103
-0.964138
-0.954764
-0.945394
-0.936145
-0.926841
-0.916401
-1.13002
-1.12338
-1.11655
-1.1096
-1.10199
-1.09633
-1.09029
-1.08281
-1.07478
-1.06657
-1.05872
-1.05178
-1.04539
-1.03865
-1.03103
-1.02298
-1.0151
-1.00701
-0.999113
-0.991831
-0.984103
-0.976269
-0.967509
-0.958541
-0.951694
-0.940213
-1.14026
-1.1333
-1.12671
-1.12091
-1.11325
-1.10555
-1.09998
-1.09277
-1.08526
-1.07744
-1.06954
-1.06169
-1.0547
-1.04865
-1.04215
-1.03458
-1.02652
-1.01885
-1.01112
-1.0034
-0.99578
-0.988231
-0.981304
-0.971159
-0.963087
-1.15533
-1.1494
-1.14309
-1.13698
-1.13035
-1.12457
-1.11713
-1.10923
-1.10253
-1.09509
-1.08751
-1.08015
-1.07256
-1.06481
-1.05749
-1.0506
-1.04372
-1.03735
-1.02966
-1.02228
-1.01504
-1.00737
-0.999928
-0.992562
-0.986823
-1.16377
-1.1583
-1.15257
-1.14589
-1.13968
-1.13351
-1.12744
-1.11997
-1.11191
-1.10496
-1.09774
-1.09051
-1.0837
-1.07629
-1.06852
-1.06133
-1.05424
-1.04541
-1.03847
-1.03165
-1.02542
-1.0185
-1.01118
-1.00356
-0.99452
-1.1798
-1.17296
-1.16635
-1.16118
-1.15506
-1.14884
-1.14254
-1.13631
-1.12977
-1.12209
-1.11419
-1.10745
-1.1006
-1.09357
-1.0869
-1.08006
-1.07271
-1.06466
-1.05745
-1.0495
-1.04189
-1.03559
-1.02985
-1.02206
-1.0151
-1.18827
-1.18258
-1.17533
-1.1688
-1.16362
-1.15789
-1.15177
-1.14587
-1.13921
-1.132
-1.12452
-1.11693
-1.11043
-1.10384
-1.09637
-1.0891
-1.08249
-1.075
-1.06669
-1.05941
-1.05235
-1.0458
-1.03917
-1.0328
-1.02543
-1.20222
-1.19648
-1.19142
-1.18589
-1.17866
-1.17263
-1.16748
-1.16115
-1.15499
-1.14912
-1.14246
-1.13511
-1.12769
-1.11993
-1.11347
-1.1075
-1.10056
-1.09268
-1.08501
-1.07713
-1.06964
-1.06196
-1.05467
-1.04814
-1.04298
-1.20893
-1.2038
-1.19852
-1.19378
-1.18873
-1.18248
-1.17654
-1.1715
-1.16512
-1.15862
-1.15245
-1.14584
-1.13851
-1.13095
-1.12297
-1.11646
-1.11086
-1.10453
-1.09732
-1.08951
-1.08095
-1.0732
-1.06614
-1.06023
-1.22152
-1.21722
-1.21168
-1.20642
-1.20081
-1.1961
-1.19159
-1.18641
-1.18083
-1.17629
-1.17007
-1.16312
-1.15645
-1.14952
-1.14174
-1.13387
-1.12587
-1.11942
-1.11367
-1.10726
-1.10023
-1.09278
-1.08484
-1.07618
-1.06954
-1.22943
-1.22459
-1.2189
-1.21323
-1.20803
-1.20263
-1.19818
-1.19423
-1.18971
-1.1848
-1.1804
-1.17443
-1.16744
-1.1603
-1.15323
-1.14548
-1.13705
-1.1288
-1.12215
-1.11612
-1.10956
-1.1025
-1.09537
-1.08829
-1.2416
-1.23722
-1.23176
-1.22666
-1.22087
-1.21506
-1.20971
-1.20469
-1.20045
-1.19667
-1.19211
-1.18762
-1.18339
-1.17811
-1.17166
-1.16406
-1.15648
-1.14876
-1.14057
-1.13236
-1.12523
-1.11887
-1.11294
-1.10593
-1.09857
-1.24915
-1.24484
-1.23948
-1.23411
-1.22865
-1.22292
-1.21707
-1.21143
-1.20681
-1.20283
-1.19908
-1.19455
-1.19018
-1.186
-1.18143
-1.17605
-1.16901
-1.16065
-1.15249
-1.14467
-1.13705
-1.12959
-1.12191
-1.11593
-1.26136
-1.25723
-1.25262
-1.24798
-1.24224
-1.23683
-1.23125
-1.22539
-1.21946
-1.21344
-1.20908
-1.2052
-1.20125
-1.19701
-1.19276
-1.18845
-1.18414
-1.17947
-1.17354
-1.16583
-1.15755
-1.14964
-1.1423
-1.13336
-1.12581
-1.26866
-1.26475
-1.2605
-1.25565
-1.2507
-1.24545
-1.23999
-1.23427
-1.22828
-1.22232
-1.21592
-1.21142
-1.20761
-1.20345
-1.19914
-1.19492
-1.19066
-1.18665
-1.18206
-1.1764
-1.16958
-1.16195
-1.15344
-1.14617
-1.27494
-1.27091
-1.26752
-1.26329
-1.25879
-1.25395
-1.24881
-1.24332
-1.23743
-1.23141
-1.22576
-1.21947
-1.2133
-1.20936
-1.20541
-1.20098
-1.19651
-1.19252
-1.18885
-1.18396
-1.17816
-1.17189
-1.16508
-1.15711
-1.28473
-1.28122
-1.27736
-1.27381
-1.27013
-1.26623
-1.26182
-1.25719
-1.25215
-1.24657
-1.2406
-1.23458
-1.22919
-1.22412
-1.21786
-1.212
-1.2072
-1.20294
-1.19841
-1.1945
-1.19045
-1.18581
-1.18034
-1.17418
-1.16744
-1.29163
-1.28757
-1.28364
-1.27978
-1.2761
-1.27269
-1.26889
-1.26466
-1.26021
-1.25532
-1.24972
-1.24383
-1.2379
-1.23229
-1.22735
-1.22226
-1.21681
-1.21159
-1.20678
-1.20205
-1.19769
-1.1933
-1.18794
-1.18311
-1.29766
-1.29509
-1.29014
-1.28626
-1.2823
-1.27875
-1.27537
-1.27139
-1.26728
-1.26319
-1.2585
-1.2529
-1.24723
-1.24149
-1.23581
-1.23045
-1.22532
-1.2203
-1.2153
-1.21056
-1.20557
-1.20096
-1.19595
-1.19107
-1.30456
-1.30039
-1.29729
-1.293
-1.2891
-1.28529
-1.28154
-1.27793
-1.27388
-1.26979
-1.26591
-1.26149
-1.25592
-1.25056
-1.24506
-1.23949
-1.23399
-1.22871
-1.22376
-1.21897
-1.21397
-1.20884
-1.20391
-1.31413
-1.31042
-1.30632
-1.30326
-1.29967
-1.29579
-1.29199
-1.28834
-1.28463
-1.28071
-1.27653
-1.27228
-1.26819
-1.26388
-1.25866
-1.2536
-1.24834
-1.24296
-1.23747
-1.23216
-1.22712
-1.22201
-1.2175
-1.21327
-1.32006
-1.31649
-1.31253
-1.30873
-1.30534
-1.30202
-1.29841
-1.29486
-1.29141
-1.28758
-1.28341
-1.2791
-1.27476
-1.27058
-1.2662
-1.26137
-1.25644
-1.25135
-1.24607
-1.24065
-1.23491
-1.23
-1.22442
-1.21997
-1.32589
-1.3219
-1.31824
-1.31451
-1.31077
-1.30748
-1.30439
-1.3011
-1.29787
-1.29471
-1.29064
-1.28618
-1.28176
-1.27734
-1.27301
-1.2686
-1.26398
-1.25919
-1.25422
-1.24905
-1.2437
-1.23841
-1.23401
-1.33487
-1.33242
-1.32807
-1.32426
-1.32009
-1.31622
-1.3126
-1.30949
-1.30673
-1.30362
-1.30051
-1.29759
-1.2936
-1.28901
-1.28459
-1.28022
-1.27582
-1.27127
-1.26672
-1.26203
-1.2572
-1.25198
-1.24658
-1.24241
-1.34017
-1.33764
-1.33397
-1.32965
-1.32583
-1.32185
-1.31809
-1.31438
-1.31165
-1.30936
-1.30622
-1.30293
-1.3
-1.29628
-1.29174
-1.28746
-1.28323
-1.27873
-1.27399
-1.26947
-1.26464
-1.2598
-1.25517
-1.24897
-1.34837
-1.34362
-1.33944
-1.33563
-1.33164
-1.32765
-1.32385
-1.32035
-1.31658
-1.3142
-1.31215
-1.30899
-1.30538
-1.30226
-1.29875
-1.29435
-1.29004
-1.28593
-1.28134
-1.2765
-1.2718
-1.26709
-1.26157
-1.25697
-1.35395
-1.34962
-1.34581
-1.34168
-1.3377
-1.33367
-1.32958
-1.326
-1.32289
-1.31932
-1.31682
-1.3147
-1.31149
-1.30772
-1.3043
-1.30082
-1.2966
-1.29232
-1.28815
-1.28349
-1.27874
-1.27439
-1.269
-1.36463
-1.36042
-1.35674
-1.35236
-1.34809
-1.34401
-1.34
-1.33582
-1.33161
-1.32794
-1.32529
-1.32252
-1.31947
-1.31714
-1.31398
-1.31019
-1.30664
-1.30305
-1.29895
-1.29461
-1.29033
-1.28555
-1.28078
-1.27632
-1.37005
-1.36754
-1.36326
-1.35915
-1.35467
-1.35056
-1.34648
-1.34241
-1.33814
-1.33372
-1.32977
-1.32725
-1.32515
-1.32205