# vtk DataFile Version 2.0
track0
ASCII
DATASET POLYDATA
POINTS 12070 float
-0.0205 0.001 1e-05
-0.02052 0.000999985 1e-05
-0.02054 0.000999974 1e-05
-0.02056 0.000999965 1e-05
-0.02058 0.000999959 1e-05
-0.0206 0.000999956 1e-05
-0.0205 0.00367778 1e-05
-0.02052 0.00367778 1e-05
-0.02054 0.00367777 1e-05
-0.02056 0.00367777 1e-05
-0.02058 0.00367777 1e-05
-0.0206 0.00367777 1e-05
-0.0205 0.00635556 1e-05
-0.02052 0.00635555 1e-05
-0.02054 0.00635555 1e-05
-0.02056 0.00635555 1e-05
-0.02058 0.00635555 1e-05
-0.0206 0.00635555 1e-05
-0.0205 0.00903333 1e-05
-0.02052 0.00903333 1e-05
-0.02054 0.00903333 1e-05
-0.02056 0.00903333 1e-05
-0.02058 0.00903333 1e-05
-0.0206 0.00903333 1e-05
-0.0205 0.0117111 1e-05
-0.02052 0.0117111 1e-05
-0.02054 0.0117111 1e-05
-0.02056 0.0117111 1e-05
-0.02058 0.0117111 1e-05
-0.0206 0.0117111 1e-05
-0.0205 0.0143889 1e-05
-0.02052 0.0143889 1e-05
-0.02054 0.0143889 1e-05
-0.02056 0.0143889 1e-05
-0.02058 0.0143889 1e-05
-0.0206 0.0143889 1e-05
-0.0205 0.0170667 1e-05
-0.02052 0.0170667 1e-05
-0.02054 0.0170667 1e-05
-0.02056 0.0170667 1e-05
-0.02058 0.0170667 1e-05
-0.0206 0.0170667 1e-05
-0.0205 0.0197444 1e-05
-0.02052 0.0197444 1e-05
-0.02054 0.0197444 1e-05
-0.02056 0.0197444 1e-05
-0.02058 0.0197444 1e-05
-0.0206 0.0197444 1e-05
-0.0205 0.0224222 1e-05
-0.02052 0.0224222 1e-05
-0.02054 0.0224222 1e-05
-0.02056 0.0224222 1e-05
-0.02058 0.0224222 1e-05
-0.0206 0.0224222 1e-05
-0.0205 0.0251 1e-05
-0.02052 0.0250998 1e-05
-0.02054 0.0250997 1e-05
-0.02056 0.0250995 1e-05
-0.02058 0.0250995 1e-05
-0.0206 0.0250994 1e-05
-0.0205 0.001 1e-05
-0.0202034 0.00100022 1e-05
-0.0199069 0.00100067 1e-05
-0.0196103 0.00100132 1e-05
-0.0193137 0.00100219 1e-05
-0.0190172 0.00100326 1e-05
-0.0187132 0.00100466 1e-05
-0.0184093 0.00100588 1e-05
-0.0181054 0.0010071 1e-05
-0.0178015 0.00100832 1e-05
-0.0174976 0.00100953 1e-05
-0.0172058 0.00101083 1e-05
-0.016914 0.00101193 1e-05
-0.0166222 0.00101303 1e-05
-0.0163305 0.00101413 1e-05
-0.0160387 0.00101523 1e-05
-0.0157586 0.00101636 1e-05
-0.0154784 0.00101745 1e-05
-0.0151983 0.00101856 1e-05
-0.0149182 0.00101972 1e-05
-0.0146381 0.0010209 1e-05
-0.0143747 0.00102209 1e-05
-0.0141113 0.00102327 1e-05
-0.0138479 0.00102449 1e-05
-0.0135846 0.00102574 1e-05
-0.0133621 0.00102682 1e-05
-0.0133484 0.00102689 1e-05
-0.0133347 0.00102695 1e-05
-0.0133209 0.00102702 1e-05
-0.0133072 0.00102709 1e-05
-0.0132934 0.00102716 1e-05
-0.0130353 0.00102845 1e-05
-0.0127771 0.00102975 1e-05
-0.0125189 0.00103107 1e-05
-0.0122607 0.00103241 1e-05
-0.0120025 0.00103376 1e-05
-0.0117547 0.00103507 1e-05
-0.0115068 0.00103638 1e-05
-0.0112589 0.0010377 1e-05
-0.0110111 0.00103903 1e-05
-0.0107632 0.00104036 1e-05
-0.0105252 0.00104163 1e-05
-0.0102873 0.00104291 1e-05
-0.0100493 0.00104419 1e-05
-0.00981133 0.00104547 1e-05
-0.00957337 0.00104675 1e-05
-0.00934491 0.00104797 1e-05
-0.00911645 0.0010492 1e-05
-0.00888799 0.00105042 1e-05
-0.00865954 0.00105163 1e-05
-0.00843108 0.00105285 1e-05
-0.00821175 0.00105401 1e-05
-0.00799242 0.00105517 1e-05
-0.00777309 0.00105632 1e-05
-0.00755376 0.00105747 1e-05
-0.00733443 0.00105862 1e-05
-0.00712387 0.00105971 1e-05
-0.0069133 0.0010608 1e-05
-0.00670273 0.00106189 1e-05
-0.00649216 0.00106298 1e-05
-0.0062816 0.00106406 1e-05
-0.00607944 0.00106508 1e-05
-0.00587729 0.00106611 1e-05
-0.00567514 0.00106714 1e-05
-0.00547298 0.00106816 1e-05
-0.00527083 0.00106917 1e-05
-0.00507675 0.00107014 1e-05
-0.00488267 0.00107111 1e-05
-0.0046886 0.00107207 1e-05
-0.00449452 0.00107303 1e-05
-0.00430044 0.00107399 1e-05
-0.00411412 0.0010749 1e-05
-0.0039278 0.00107582 1e-05
-0.00374147 0.00107673 1e-05
-0.00355515 0.00107763 1e-05
-0.00336883 0.00107854 1e-05
-0.00318995 0.0010794 1e-05
-0.00301107 0.00108026 1e-05
-0.00283219 0.00108112 1e-05
-0.00265331 0.00108198 1e-05
-0.00247443 0.00108284 1e-05
-0.0023027 0.00108366 1e-05
-0.00213097 0.00108448 1e-05
-0.00195924 0.00108531 1e-05
-0.0017875 0.00108613 1e-05
-0.00161577 0.00108695 1e-05
-0.0014509 0.00108773 1e-05
-0.00128603 0.00108852 1e-05
-0.00112116 0.00108931 1e-05
-0.000956289 0.0010901 1e-05
-0.000791418 0.0010909 1e-05
-0.000633135 0.00109166 1e-05
-0.000474851 0.00109243 1e-05
-0.000316567 0.00109321 1e-05
-0.000158284 0.00109399 1e-05
0 0.00109477 1e-05
0.000105677 0.00109529 1e-05
0.000211355 0.00109581 1e-05
0.000317032 0.00109632 1e-05
0.00042271 0.00109684 1e-05
0.000528387 0.00109736 1e-05
0.000634886 0.00109787 1e-05
0.000741385 0.00109838 1e-05
0.000847885 0.00109889 1e-05
0.000954384 0.0010994 1e-05
0.00106088 0.0010999 1e-05
0.00116821 0.00110039 1e-05
0.00127554 0.00110089 1e-05
0.00138286 0.00110137 1e-05
0.00149019 0.00110185 1e-05
0.00159752 0.00110232 1e-05
0.00170568 0.00110279 1e-05
0.00181384 0.00110325 1e-05
0.001922 0.0011037 1e-05
0.00203016 0.00110415 1e-05
0.00213833 0.00110458 1e-05
0.00224733 0.001105 1e-05
0.00235633 0.00110543 1e-05
0.00246533 0.00110584 1e-05
0.00257434 0.00110624 1e-05
0.00268334 0.00110663 1e-05
0.00279319 0.00110702 1e-05
0.00290304 0.0011074 1e-05
0.00301289 0.00110777 1e-05
0.00312274 0.00110813 1e-05
0.00323259 0.00110849 1e-05
0.00334329 0.00110883 1e-05
0.003454 0.00110917 1e-05
0.0035647 0.00110951 1e-05
0.0036754 0.00110983 1e-05
0.00378611 0.00111015 1e-05
0.00389767 0.00111046 1e-05
0.00400924 0.00111076 1e-05
0.0041208 0.00111106 1e-05
0.00423237 0.00111135 1e-05
0.00434393 0.00111163 1e-05
0.00445636 0.0011119 1e-05
0.00456879 0.00111216 1e-05
0.00468123 0.00111242 1e-05
0.00479366 0.00111267 1e-05
0.00490609 0.00111291 1e-05
0.0050194 0.00111314 1e-05
0.0051327 0.00111337 1e-05
0.00524601 0.00111359 1e-05
0.00535932 0.0011138 1e-05
0.00547262 0.00111401 1e-05
0.00558681 0.0011142 1e-05
0.005701 0.00111439 1e-05
0.00581518 0.00111457 1e-05
0.00592937 0.00111474 1e-05
0.00604356 0.00111491 1e-05
0.00615863 0.00111506 1e-05
0.00627371 0.00111521 1e-05
0.00638878 0.00111536 1e-05
0.00650386 0.00111549 1e-05
0.00661893 0.00111562 1e-05
0.0067349 0.00111574 1e-05
0.00685087 0.00111585 1e-05
0.00696684 0.00111595 1e-05
0.00708281 0.00111605 1e-05
0.00719878 0.00111614 1e-05
0.00731565 0.00111622 1e-05
0.00743252 0.00111629 1e-05
0.00754939 0.00111636 1e-05
0.00766626 0.00111641 1e-05
0.00778313 0.00111646 1e-05
0.00779184 0.00111646 1e-05
0.00780055 0.00111647 1e-05
0.00780925 0.00111647 1e-05
0.00781796 0.00111647 1e-05
0.00782663 0.00111648 1e-05
0.00793571 0.00111651 1e-05
0.00804479 0.00111654 1e-05
0.00815387 0.00111656 1e-05
0.00826295 0.00111657 1e-05
0.00837203 0.00111658 1e-05
0.00849073 0.00111658 1e-05
0.00860942 0.00111657 1e-05
0.00872812 0.00111655 1e-05
0.00884682 0.00111653 1e-05
0.00896551 0.00111649 1e-05
0.00908513 0.00111645 1e-05
0.00920475 0.00111639 1e-05
0.00932437 0.00111633 1e-05
0.00944398 0.00111627 1e-05
0.0095636 0.00111619 1e-05
0.00968415 0.00111609 1e-05
0.0098047 0.001116 1e-05
0.00992525 0.0011159 1e-05
0.0100458 0.00111578 1e-05
0.0101663 0.00111566 1e-05
0.0102878 0.00111552 1e-05
0.0104093 0.00111538 1e-05
0.0105308 0.00111523 1e-05
0.0106523 0.00111507 1e-05
0.0107738 0.00111491 1e-05
0.0108962 0.00111472 1e-05
0.0110186 0.00111453 1e-05
0.0111411 0.00111433 1e-05
0.0112635 0.00111413 1e-05
0.0113859 0.00111392 1e-05
0.0115093 0.00111368 1e-05
0.0116327 0.00111344 1e-05
0.0117561 0.0011132 1e-05
0.0118795 0.00111295 1e-05
0.0120028 0.00111268 1e-05
0.0121272 0.0011124 1e-05
0.0122515 0.00111211 1e-05
0.0123759 0.00111182 1e-05
0.0125002 0.00111152 1e-05
0.0126245 0.0011112 1e-05
0.0127498 0.00111087 1e-05
0.0128752 0.00111053 1e-05
0.0130005 0.00111019 1e-05
0.0131258 0.00110983 1e-05
0.0132511 0.00110947 1e-05
0.0133774 0.00110908 1e-05
0.0135036 0.00110869 1e-05
0.0136299 0.0011083 1e-05
0.0137562 0.00110789 1e-05
0.0138825 0.00110747 1e-05
0.0140098 0.00110703 1e-05
0.014137 0.00110659 1e-05
0.0142643 0.00110614 1e-05
0.0143915 0.00110568 1e-05
0.0145188 0.00110521 1e-05
0.0146471 0.00110472 1e-05
0.0147753 0.00110422 1e-05
0.0149036 0.00110372 1e-05
0.0150318 0.0011032 1e-05
0.0151601 0.00110267 1e-05
0.0152893 0.00110213 1e-05
0.0154186 0.00110158 1e-05
0.0155478 0.00110102 1e-05
0.0156771 0.00110044 1e-05
0.0158063 0.00109986 1e-05
0.0159366 0.00109927 1e-05
0.0160668 0.00109866 1e-05
0.0161971 0.00109804 1e-05
0.0163274 0.00109741 1e-05
0.0164576 0.00109677 1e-05
0.0165889 0.00109612 1e-05
0.0167201 0.00109546 1e-05
0.0168514 0.00109478 1e-05
0.0169827 0.00109409 1e-05
0.0171139 0.0010934 1e-05
0.0172462 0.00109269 1e-05
0.0173785 0.00109197 1e-05
0.0175108 0.00109124 1e-05
0.0176431 0.00109049 1e-05
0.0177754 0.00108974 1e-05
0.0179087 0.00108898 1e-05
0.018042 0.00108821 1e-05
0.0181753 0.00108741 1e-05
0.0183087 0.00108661 1e-05
0.018442 0.0010858 1e-05
0.0185763 0.00108498 1e-05
0.0187107 0.00108415 1e-05
0.018845 0.0010833 1e-05
0.0189794 0.00108243 1e-05
0.0191137 0.00108156 1e-05
0.0192491 0.00108069 1e-05
0.0193845 0.0010798 1e-05
0.0195199 0.00107889 1e-05
0.0196553 0.00107796 1e-05
0.0197907 0.00107704 1e-05
0.0199272 0.00107611 1e-05
0.0200636 0.00107516 1e-05
0.0202001 0.00107419 1e-05
0.0203365 0.0010732 1e-05
0.020473 0.00107222 1e-05
0.0206105 0.00107124 1e-05
0.020748 0.00107023 1e-05
0.0208855 0.00106919 1e-05
0.021023 0.00106815 1e-05
0.0211606 0.00106711 1e-05
0.0212991 0.00106606 1e-05
0.0214377 0.001065 1e-05
0.0215763 0.0010639 1e-05
0.0217149 0.00106279 1e-05
0.0218535 0.0010617 1e-05
0.0219931 0.0010606 1e-05
0.0221328 0.00105947 1e-05
0.0222724 0.00105831 1e-05
0.0224121 0.00105714 1e-05
0.0225517 0.00105598 1e-05
0.0226925 0.00105482 1e-05
0.0228332 0.00105364 1e-05
0.022974 0.00105242 1e-05
0.0231147 0.00105119 1e-05
0.0232555 0.00104997 1e-05
0.0233973 0.00104875 1e-05
0.0235391 0.0010475 1e-05
0.023681 0.00104622 1e-05
0.0238228 0.00104493 1e-05
0.0239647 0.00104365 1e-05
0.0241076 0.00104236 1e-05
0.0242505 0.00104105 1e-05
0.0243935 0.00103971 1e-05
0.0245364 0.00103835 1e-05
0.0246794 0.00103701 1e-05
0.0248234 0.00103566 1e-05
0.0249675 0.00103429 1e-05
0.0251115 0.00103288 1e-05
0.0252556 0.00103147 1e-05
[...]
POINT_DATA 12070
 FIELD attributes 1
U 3 12070 float
10.0004 	0.00731839 	0 10.0004 	0.00585471 	0 10.0003 	0.00439103 	0 10.0002 	0.00292736 	0 10.0001 	0.00146368 	0 10 	0 	0
10.0001 	0.000880022 	0 10 	0.000704017 	0 10 	0.000528013 	0 10 	0.000352009 	0 10 	0.000176004 	0 10 	0 	0
10.0001 	0.000467403 	0 10.0001 	0.000373732 	0 10.0001 	0.000280061 	0 10 	0.000186391 	0 10 	9.27197e-05 	0 10 	0 	0
10 	0.000267634 	0 10 	0.000214107 	0 10 	0.00016058 	0 10 	0.000107054 	0 10 	5.35268e-05 	0 10 	0 	0
10 	8.19704e-05 	0 10 	6.55763e-05 	0 10 	4.91822e-05 	0 10 	3.27882e-05 	0 10 	1.63941e-05 	0 10 	0 	0
10 	-2.48095e-05 	0 10 	-1.98476e-05 	0 10 	-1.48857e-05 	0 10 	-9.92378e-06 	0 10 	-4.96189e-06 	0 10 	0 	0
10 	-0.000215141 	0 10 	-0.000172113 	0 10 	-0.000129085 	0 10 	-8.60564e-05 	0 10 	-4.30282e-05 	0 10 	0 	0
10 	-0.000377178 	0 10 	-0.000301743 	0 10 	-0.000226307 	0 10 	-0.000150871 	0 10 	-7.54357e-05 	0 10 	0 	0
9.99999 	-0.000427153 	0 9.99999 	-0.000341722 	0 9.99999 	-0.000256292 	0 10 	-0.000170861 	0 10 	-8.54306e-05 	0 10 	0 	0
9.17387 	0.0870992 	0 9.1308 	0.0696794 	0 9.08741 	0.0522593 	0 9.04368 	0.0348389 	0 8.99962 	0.0174184 	0 8.95524 	0 	0
10.0004 	0.00731839 	0 10.0024 	0.0151689 	0 10.0045 	0.022188 	0 10.0065 	0.0291629 	0 10.0085 	0.0360938 	0 10.0135 	0.0463092 	0 10.0163 	0.0402086 	0 10.0207 	0.0401674 	0 10.0252 	0.0401264 	0 10.0296 	0.0400856 	0 10.0356 	0.0445465 	0 10.0384 	0.0379066 	0 10.0424 	0.0378632 	0 10.0464 	0.0378196 	0 10.0504 	0.0377761 	0 10.0545 	0.0408776 	0 10.0567 	0.0388007 	0 10.0591 	0.0401106 	0 10.0616 	0.0414222 	0 10.064 	0.0427354 	0 10.0661 	0.0451939 	0 10.0677 	0.0453056 	0 10.069 	0.0465082 	0 10.0703 	0.0477119 	0 10.0717 	0.0489168 	0 10.0728 	0.0499353 	0 10.0729 	0.0499986 	0 10.0729 	0.050062 	0 10.073 	0.0501253 	0 10.0731 	0.0501887 	0 10.0731 	0.0502425 	0 10.0737 	0.0508707 	0 10.0742 	0.0514928 	0 10.0747 	0.0521155 	0 10.0752 	0.0527387 	0 10.0757 	0.0531977 	0 10.0756 	0.0534954 	0 10.0752 	0.0536877 	0 10.0749 	0.05388 	0 10.0745 	0.0540724 	0 10.074 	0.0540264 	0 10.0735 	0.0541743 	0 10.0724 	0.0541537 	0 10.0713 	0.0541331 	0 10.0702 	0.0541125 	0 10.0687 	0.0538226 	0 10.0683 	0.0539071 	0 10.0667 	0.0537775 	0 10.065 	0.053648 	0 10.0634 	0.0535183 	0 10.0608 	0.0531024 	0 10.0608 	0.0531623 	0 10.0588 	0.0529733 	0 10.0567 	0.0527843 	0 10.0547 	0.0525952 	0 10.0511 	0.0521075 	0 10.0517 	0.0521687 	0 10.0494 	0.0519559 	0 10.0471 	0.0517431 	0 10.0448 	0.0515302 	0 10.0401 	0.051011 	0 10.0416 	0.0510958 	0 10.039 	0.0508822 	0 10.0365 	0.0506685 	0 10.0339 	0.0504547 	0 10.0282 	0.0499221 	0 10.0306 	0.0500398 	0 10.0279 	0.0498453 	0 10.0253 	0.0496507 	0 10.0226 	0.049456 	0 10.0156 	0.0489367 	0 10.0192 	0.0491016 	0 10.0165 	0.0489313 	0 10.0137 	0.048761 	0 10.0109 	0.0485907 	0 10.0028 	0.0480787 	0 10.0076 	0.0482973 	0 10.0048 	0.0482037 	0 10.0021 	0.04811 	0 9.9993 	0.0480164 	0 9.98999 	0.0475968 	0 9.99615 	0.0479183 	0 9.99341 	0.0478651 	0 9.99066 	0.0478119 	0 9.98791 	0.0477587 	0 9.97739 	0.0473167 	0 9.98495 	0.0476901 	0 9.98232 	0.0478666 	0 9.97968 	0.0480431 	0 9.97704 	0.0482197 	0 9.96539 	0.0480857 	0 9.97453 	0.0486452 	1.03983e-21 9.97265 	0.0488106 	6.95643e-21 9.97077 	0.0489759 	1.28728e-20 9.96888 	0.0491413 	1.8789e-20 9.95689 	0.0488032 	1.58696e-20 9.96743 	0.0491092 	1.10784e-19 9.96586 	0.0489372 	1.02948e-19 9.9643 	0.0487651 	9.5109e-20 9.96273 	0.048593 	8.72681e-20 9.95056 	0.0479645 	-1.76207e-20 9.96105 	0.0478898 	-4.78856e-20 9.95952 	0.0475103 	-5.32527e-20 9.95799 	0.0471308 	-5.86175e-20 9.95645 	0.0467513 	-6.398e-20 9.94437 	0.0460966 	-2.47965e-20 9.9544 	0.045796 	-2.18619e-20 9.9526 	0.0451039 	-1.51831e-20 9.9508 	0.0444117 	-8.50501e-21 9.94899 	0.0437194 	-1.82751e-21 9.93693 	0.0428266 	8.40032e-21 9.94654 	0.0424813 	-6.26551e-21 9.94444 	0.0415911 	-2.78848e-20 9.94233 	0.0407007 	-4.95066e-20 9.94022 	0.0398102 	-7.11311e-20 9.92811 	0.0386309 	-1.01896e-19 9.93719 	0.0383992 	-1.4566e-19 9.9347 	0.0375379 	-1.31321e-19 9.9322 	0.0366764 	-1.16973e-19 9.92969 	0.0358146 	-1.02615e-19 9.91747 	0.0345126 	-3.46075e-20 9.92588 	0.0344063 	4.2171e-20 9.92296 	0.0336305 	5.78724e-20 9.92003 	0.0328546 	7.35625e-20 9.9171 	0.0320784 	8.92412e-20 9.90483 	0.0307584 	4.26161e-20 9.91248 	0.0306773 	-5.78586e-20 9.90914 	0.0299345 	-6.49645e-20 9.90578 	0.0291915 	-7.20528e-20 9.90243 	0.0284483 	-7.91236e-20 9.89019 	0.0271496 	-3.85116e-22 9.89697 	0.0270259 	7.41784e-20 9.89317 	0.0262924 	6.33442e-20 9.88937 	0.0255586 	5.24926e-20 9.88555 	0.0248245 	4.16234e-20 9.87343 	0.0235845 	-3.24725e-20 9.87915 	0.0233979 	-9.83383e-20 9.87485 	0.0226723 	-1.24102e-19 9.87056 	0.0219465 	-1.4986e-19 9.86625 	0.0212204 	-1.7561e-19 9.85434 	0.0200633 	-1.5705e-19 9.85877 	0.0198134 	-1.82251e-19 9.85397 	0.0191 	-1.67841e-19 9.84916 	0.0183862 	-1.53426e-19 9.84435 	0.0176722 	-1.39006e-19 9.83281 	0.0166086 	-9.56707e-20 9.8357 	0.016304 	-8.07754e-20 9.83039 	0.0156065 	-5.93395e-20 9.82508 	0.0149088 	-3.79057e-20 9.81976 	0.0142108 	-1.6474e-20 9.80885 	0.0132398 	2.72568e-21 9.80987 	0.0128719 	0 9.80407 	0.0121838 	0 9.79827 	0.0114955 	0 9.79246 	0.0108069 	0 9.78248 	0.00992236 	0 9.78126 	0.00947608 	-1.85833e-20 9.77498 	0.00879337 	-4.05359e-20 9.7687 	0.00811031 	-6.24906e-20 9.7624 	0.00742692 	-8.44473e-20 9.75373 	0.00663329 	-1.07554e-19 9.74986 	0.00609115 	-1.14429e-19 9.74311 	0.00541387 	-1.1527e-19 9.73635 	0.00473621 	-1.16105e-19 9.72958 	0.00405818 	-1.16933e-19 9.72263 	0.0033714 	-1.17307e-19 9.72231 	0.00333198 	-1.14178e-19 9.72178 	0.00328226 	-1.11686e-19 9.72125 	0.00323254 	-1.09194e-19 9.72072 	0.00318281 	-1.06702e-19 9.72019 	0.00313329 	-1.0422e-19 9.71345 	0.00250662 	-7.29616e-20 9.7067 	0.00187958 	-4.1713e-20 9.69994 	0.00125217 	-1.04745e-20 9.69317 	0.000624375 	2.0754e-20 9.68051 	-0.000267021 	5.89163e-20 9.67819 	-0.000704454 	6.00117e-20 9.67046 	-0.0013785 	6.13083e-20 9.66272 	-0.00205303 	6.26023e-20 9.65497 	-0.00272804 	6.38935e-20 9.63513 	-0.00391953 	6.71807e-20 9.63804 	-0.00413236 	5.30492e-20 9.62989 	-0.00480333 	3.89151e-20 9.62173 	-0.00547483 	2.47795e-20 9.61356 	-0.00614685 	1.06425e-20 9.58745 	-0.00754025 	-1.0768e-21 9.59527 	-0.00757615 	-1.00457e-20 9.58673 	-0.00824563 	-2.35385e-20 9.57818 	-0.00891567 	-3.70299e-20 9.56961 	-0.00958628 	-5.05198e-20 9.53775 	-0.0111269 	-6.40256e-20 9.55005 	-0.0110389 	-6.47097e-20 9.54114 	-0.011709 	-7.32018e-20 9.53223 	-0.0123796 	-8.16901e-20 9.5233 	-0.0130509 	-9.01743e-20 9.48632 	-0.014681 	-1.10908e-19 9.50259 	-0.0145208 	-1.68696e-19 9.49335 	-0.0151913 	-1.57675e-19 9.48409 	-0.0158624 	-1.4667e-19 9.47483 	-0.0165341 	-1.35681e-19 9.43343 	-0.0181927 	-4.78058e-20 9.45309 	-0.0180121 	-3.10019e-20 9.44354 	-0.0186832 	-2.18386e-20 9.43398 	-0.019355 	-1.26744e-20 9.4244 	-0.0200275 	-3.50917e-21 9.37935 	-0.0216572 	0 9.4018 	-0.0215081 	0 9.39197 	-0.0221818 	0 9.38213 	-0.0228561 	0 9.37227 	-0.0235312 	0 9.32431 	-0.0250791 	0 9.34895 	-0.0250138 	2.18e-21 9.33888 	-0.0256906 	1.06899e-20 9.32878 	-0.0263682 	1.91988e-20 9.31867 	-0.0270466 	2.77067e-20 9.26855 	-0.0284576 	4.79618e-20 9.29482 	-0.0285241 	1.79893e-19 9.28452 	-0.0292031 	1.83308e-19 9.2742 	-0.0298828 	1.86742e-19 9.26387 	-0.0305634 	1.90194e-19 9.21227 	-0.0317855 	4.81858e-20 9.23965 	-0.0320247 	2.61619e-20 9.22915 	-0.0327046 	1.85132e-20 9.21864 	-0.0333852 	1.08634e-20 9.20707 	-0.0340743 	3.80521e-21 9.15567 	-0.0350561 	1.97353e-20 9.18116 	-0.0355171 	1.20878e-19 9.17301 	-0.0361818 	1.29308e-19 9.16232 	-0.0368626 	1.30804e-19 9.14668 	-0.0375489 	1.17109e-19 9.09892 	-0.0382661 	4.49503e-21 9.12109 	-0.0389457 	-1.15112e-19 9.11633 	-0.0396255 	-1.46736e-19 9.10549 	-0.0403061 	-1.58532e-19 9.08649 	-0.0409376 	-1.48464e-19 9.04218 	-0.041415 	-7.05163e-20 9.06125 	-0.0422897 	-2.05924e-19 9.05934 	-0.0430281 	-2.48598e-19 9.04837 	-0.0437083 	-2.51332e-19 9.02667 	-0.0442401 	-2.0081e-19 8.98561 	-0.0445037 	-5.419e-20 9.00181 	-0.0455506 	-2.84883e-20 9.00223 	-0.0463846 	-1.28127e-20 8.99116 	-0.0470641 	-4.428e-21 8.96736 	-0.0474584 	0 8.92932 	-0.0475334 	0 8.94291 	-0.0487293 	0 8.9452 	-0.0496895 	0 8.93405 	-0.0503682 	0 8.90869 	-0.0505947 	2.25177e-21 8.87345 	-0.0505063 	6.07109e-21 8.88465 	-0.0518303 	2.43409e-21 8.88842 	-0.0529412 	0 8.87721 	-0.0536191 	0 8.85077 	-0.0536539 	2.71367e-21 8.81809 	-0.0534255 	6.53807e-21 8.82714 	-0.0548565 	2.9008e-21 8.83204 	-0.0561359 	1.53238e-21 8.82079 	-0.0568132 	9.10609e-21 8.79367 	-0.0566403 	2.81198e-20 8.76335 	-0.0562953 	4.94461e-20 8.77044 	-0.0578161 	1.94475e-19 8.77619 	-0.0592783 	3.29466e-19 8.76491 	-0.0599557 	3.3359e-19 8.73746 	-0.0595634 	1.9508e-19 8.70929 	-0.0591221 	5.00664e-20 8.71465 	-0.0607158 	2.90606e-20 8.71995 	-0.0623112 	8.05636e-21 8.70846 	-0.0629464 	3.05342e-22 8.68223 	-0.0624274 	3.97603e-21 8.65601 	-0.061908 	7.64655e-21 8.6598 	-0.0635554 	4.16871e-21 8.66354 	-0.0652045 	6.91906e-22 8.65245 	-0.0658096 	2.53729e-21 8.628 	-0.0652342 	-1.94881e-21 8.60356 	-0.0646584 	-6.43381e-21 8.60597 	-0.0663516 	-5.65842e-20 8.60832 	-0.0680465 	-1.06739e-19 8.59768 	-0.068622 	-1.08334e-19 8.57484 	-0.0679992 	-6.24754e-20 8.55201 	-0.067376 	-1.66151e-20 8.5532 	-0.0691037 	9.76342e-20 8.55433 	-0.0708332 	2.11877e-19 8.54417 	-0.0713805 	2.2173e-19 8.52277 	-0.0707239 	1.26523e-19 8.50139 	-0.0700669 	3.13149e-20 8.50152 	-0.0718209 	1.81512e-20 8.50158 	-0.0735766 	4.98301e-21 8.49193 	-0.0740986 	3.61665e-22 8.47182 	-0.073422 	5.73048e-21 8.45173 	-0.0727448 	1.11012e-20 8.45093 	-0.0745117 	4.62336e-21 8.45006 	-0.0762803 	-1.86088e-21 8.44093 	-0.0767769 	-2.36372e-20 8.42198 	-0.0760924 	-8.12487e-20 8.40305 	-0.0754074 	-1.38863e-19 8.40143 	-0.0771694 	-2.89444e-19 8.39974 	-0.078933 	-4.40018e-19 8.39114 	-0.0794059 	-4.221e-19 8.37324 	-0.0787332 	-2.49472e-19 8.35536 	-0.07806 	-7.68441e-20 8.35301 	-0.0798137 	6.5905e-20 8.35039 	-0.0815228 	2.03621e-19 8.34196 	-0.0819484 	2.00765e-19 8.3256 	-0.0813714 	1.04076e-19 8.30867 	-0.0807199 	4.57626e-22 8.30568 	-0.0824625 	-1.02305e-19 8.30169 	-0.0839717 	-1.88515e-19 8.29339 	-0.0844083 	-1.9903e-19 8.27904 	-0.084021 	-1.31984e-19 8.26297 	-0.0833977 	-4.27607e-20 8.25941 	-0.0851278 	-2.99255e-20 8.25431 	-0.0864406 	-1.72071e-20 8.24614 	-0.08689 	-4.72439e-21 8.23353 	-0.0866933 	1.46907e-20 8.21825 	-0.0861029 	3.83293e-20 8.21418 	-0.08782 	1.31919e-20 8.2082 	-0.0889417 	-3.14927e-21 8.20014 	-0.0894053 	-9.77547e-21 8.18906 	-0.0893981 	-5.39259e-21 8.17448 	-0.0888438 	1.17749e-20 8.16996 	-0.0905481 	-7.36651e-21 8.1633 	-0.0914851 	-1.90788e-20 8.15535 	-0.0919645 	-2.63593e-20 8.14558 	-0.0921443 	-3.8907e-20 8.13165 	-0.0916287 	-6.36693e-20 8.12673 	-0.0933209 	6.04224e-20 8.11954 	-0.0940807 	8.97566e-20 8.11169 	-0.0945771 	9.23072e-20 8.10307 	-0.0949408 	7.99443e-20 8.08973 	-0.0944659 	-2.62979e-20 8.08445 	-0.0961471 	7.83369e-20 8.07687 	-0.0967374 	8.82864e-20 8.06912 	-0.0972523 	9.16658e-20 8.06134 	-0.0977677 	9.50325e-20 8.04868 	-0.0973636 	1.06966e-20 8.0429 	-0.0989295 	-6.85328e-22 8.03525 	-0.0994641 	-4.71142e-22 8.02757 	-0.099999 	-2.56984e-22 8.01988 	-0.100534 	-4.28538e-23 8.00848 	-0.10033 	1.81699e-20 8.00218 	-0.101714 	0 7.99461 	-0.10227 	0 7.98701 	-0.102826 	0 7.97939 	-0.103382 	0 7.9691 	-0.103374 	1.43517e-20 7.96241 	-0.104584 	0 7.9549 	-0.105162 	0 7.94738 	-0.105741 	0 7.93983 	-0.10632 	0 7.93049 	-0.106504 	0 7.92352 	-0.107547 	0 7.91608 	-0.10815 	0 7.90861 	-0.108753 	0 7.90112 	-0.109356 	0 7.89262 	-0.109727 	-6.00595e-21 7.88546 	-0.110613 	0 7.87807 	-0.11124 	0 7.87065 	-0.111868 	0 7.86321 	-0.112497 	0 7.85545 	-0.113051 	-3.91818e-21 7.85199 	-0.113446 	0 7.84848 	-0.113759 	0 7.84497 	-0.114072 	0 7.84145 	-0.114385 	0 7.838 	-0.114691 	0 7.83402 	-0.115035 	0 7.83002 	-0.115379 	0 7.82602 	-0.115723 	0 7.82202 	-0.116067 	0 7.81846 	-0.116321 	0 7.81078 	-0.117086 	-9.77601e-21 7.80324 	-0.117771 	-2.06602e-20 7.79567 	-0.118455 	-3.15425e-20 7.78808 	-0.11914 	-4.24227e-20 7.78179 	-0.119567 	-5.33152e-20 7.7738 	-0.120514 	-4.92481e-20 7.76629 	-0.121228 	-4.8445e-20 7.75874 	-0.121942 	-4.76378e-20 7.75117 	-0.122657 	-4.68265e-20 7.74575 	-0.12295 	-5.15033e-20 7.73745 	-0.124074 	-3.96743e-20 7.72995 	-0.124818 	-2.78187e-20 7.72242 	-0.125562 	-1.5961e-20 7.71487 	-0.126307 	-4.10122e-21 7.71029 	-0.126473 	0 7.70169 	-0.12777 	-1.56967e-21 7.69419 	-0.128545 	-6.91846e-21 7.68667 	-0.129321 	-1.22661e-20 7.67912 	-0.130097 	-1.76127e-20 7.67538 	-0.130146 	-2.29316e-20 7.66645 	-0.131614 	-6.02955e-20 7.65896 	-0.132424 	-8.25092e-20 7.65143 	-0.133235 	-1.04725e-19 7.64407 	-0.13401 	-1.25215e-19 7.64094 	-0.133984 	-1.06861e-19 7.63189 	-0.13553 	-7.85412e-20 7.62418 	-0.136468 	-6.37999e-20 7.61665 	-0.137315 	-5.10912e-20 7.61014 	-0.137965 	-4.80008e-20 7.60692 	-0.137996 	-7.50902e-20 7.59789 	-0.139561 	-9.06409e-20 7.58982 	-0.140683 	-8.2718e-20 7.58226 	-0.141567 	-6.21807e-20 7.57659 	-0.142098 	-3.42915e-20 7.57328 	-0.142186 	2.78832e-21 7.56424 	-0.143772 	7.47393e-21 7.55581 	-0.145075 	7.71963e-21 7.54823 	-0.145998 	1.99695e-21 7.54336 	-0.146415 	0 7.53996 	-0.146561 	0 7.53091 	-0.14817 	0 7.52211 	-0.149651 	0 7.51449 	-0.150613 	0 7.5104 	-0.150923 	0 7.50688 	-0.151128 	0 7.49782 	-0.152761 	0 7.4887 	-0.154394 	0 7.48128 	-0.155364 	-1.88218e-20 7.47765 	-0.155628 	-3.84614e-20 7.47401 	-0.155891 	-5.81003e-20 7.46493 	-0.15755 	-3.66457e-20 7.45578 	-0.159209 	-1.51826e-20 7.44882 	-0.160211 	3.23882e-21 7.44506 	-0.160534 	7.74408e-21 7.44129 	-0.160857 	1.22491e-20 7.43217 	-0.162543 	4.81139e-20 7.42299 	-0.164229 	8.39766e-20 7.41647 	-0.165267 	9.33735e-20 7.41257 	-0.165649 	7.69049e-20 7.40866 	-0.166031 	6.04328e-20 7.39949 	-0.167747 	3.36185e-20 7.39026 	-0.169462 	6.79298e-21 7.38416 	-0.170536 	7.68617e-21 7.38011 	-0.170978 	1.79701e-20 7.37605 	-0.17142 	2.82558e-20 7.36683 	-0.173166 	9.79962e-20 7.35754 	-0.174912 	1.67741e-19 7.35189 	-0.176004 	1.66324e-19 7.34764 	-0.176526 	9.96793e-20 7.34342 	-0.177028 	3.07795e-20 7.33413 	-0.178806 	2.15223e-20 7.3256 	-0.18044 	1.44501e-20 7.31989 	-0.181567 	1.50616e-20 7.3151 	-0.182298 	2.22561e-20 7.31071 	-0.18286 	3.22608e-20 7.30135 	-0.184671 	1.00114e-19 7.29361 	-0.186186 	1.3504e-19 7.28776 	-0.18736 	1.32196e-19 7.28245 	-0.188298 	1.01881e-19 7.27786 	-0.18892 	3.49092e-20 7.26842 	-0.190765 	2.59693e-20 7.26146 	-0.192164 	1.68969e-20 7.25546 	-0.193386 	7.77355e-21 7.2496 	-0.194529 	0 7.24483 	-0.19521 	0 7.23529 	-0.19709 	0 7.22907 	-0.198378 	0 7.22291 	-0.199648 	0 7.2167 	-0.200918 	0 7.21154 	-0.201733 	0 7.20269 	-0.203509 	0 7.1964 	-0.204827 	0 7.19006 	-0.206145 	0 7.18368 	-0.207463 	0 7.17795 	-0.20849 	9.63227e-21 7.16986 	-0.210148 	4.72508e-21 7.16339 	-0.211513 	1.41545e-20 7.15687 	-0.212879 	2.35872e-20 7.1503 	-0.214244 	3.30231e-20 7.14399 	-0.215481 	4.3614e-20 7.13789 	-0.216755 	6.70367e-20 7.13249 	-0.2179 	7.03751e-20 7.12707 	-0.219045 	7.3693e-20 7.12161 	-0.22019 	7.69903e-20 7.11642 	-0.221272 	8.00867e-20 7.11502 	-0.221551 	8.10813e-20 7.11363 	-0.221831 	8.20749e-20 7.11223 	-0.222111 	8.30675e-20 7.11083 	-0.22239 	8.40591e-20 7.10968 	-0.222641 	8.75098e-20 7.10251 	-0.224127 	7.23783e-20 7.09543 	-0.225584 	5.96101e-20 7.0883 	-0.22704 	4.68164e-20 7.08111 	-0.228497 	3.3997e-20 7.07542 	-0.229782 	3.92996e-20 7.06732 	-0.231459 	3.62071e-20 7.06001 	-0.232963 	3.46311e-20 7.05266 	-0.234466 	3.30476e-20 7.04525 	-0.235969 	3.14564e-20 7.04064 	-0.237159 	3.90209e-20 7.03157 	-0.239028 	2.91247e-20 7.02403 	-0.240578 	2.79608e-20 7.01644 	-0.242128 	2.67893e-20 7.0088 	-0.243677 	2.56101e-20 7.00527 	-0.244774 	4.16771e-20 6.99544 	-0.246788 	5.75608e-20 6.98743 	-0.248429 	5.32737e-20 6.97959 	-0.250025 	4.65015e-20 6.97294 	-0.251487 	3.34994e-20 6.96927 	-0.252623 	5.21611e-21 6.9592 	-0.254675 	1.55024e-21 6.95015 	-0.256513 	-1.56311e-22 6.94205 	-0.258153 	-4.33456e-23 6.93652 	-0.259514 	0 6.93257 	-0.260702 	0 6.92224 	-0.262791 	0 6.91212 	-0.264826 	-1.9272e-21 6.90376 	-0.266509 	-1.63121e-20 6.89935 	-0.267769 	-2.68781e-20 6.89511 	-0.269007 	-3.72406e-20 6.88452 	-0.271134 	-2.40815e-20 6.87385 	-0.273261 	-1.09097e-20 6.86588 	-0.274963 	2.08516e-21 6.86138 	-0.276249 	9.80675e-21 6.85684 	-0.277534 	1.75323e-20 6.84597 	-0.279697 	1.10305e-20 6.83502 	-0.281859 	4.53423e-21 6.82737 	-0.283612 	9.74477e-21 6.82256 	-0.28494 	3.18782e-20 6.8177 	-0.286269 	5.40114e-20 6.80654 	-0.288463 	3.06851e-20 6.79533 	-0.290655 	7.44272e-21 6.78815 	-0.292421 	-3.06074e-21 6.78281 	-0.293827 	-7.23384e-21 6.77762 	-0.295195 	-1.07374e-20 6.76616 	-0.297418 	-6.47556e-20 6.75617 	-0.299481 	-1.01193e-19 6.74868 	-0.30128 	-1.08663e-19 6.74209 	-0.302895 	-9.28982e-20 6.73655 	-0.304298 	-5.06207e-20 6.72478 	-0.306547 	-9.38661e-20 6.71603 	-0.308478 	-9.9594e-20 6.70821 	-0.310306 	-9.33002e-20 6.70035 	-0.312129 	-8.64516e-20 6.69446 	-0.313565 	-4.1531e-20 6.68295 	-0.315777 	-7.86927e-20 6.67485 	-0.317634 	-6.83314e-20 6.66668 	-0.31949 	-5.79458e-20 6.65845 	-0.321347 	-4.7536e-20 6.65127 	-0.322992 	-1.50915e-20 6.64104 	-0.325064 	-1.21418e-20 6.63259 	-0.326948 	-9.05868e-21 6.62407 	-0.328831 	-5.97766e-21 6.61548 	-0.330715 	-2.8988e-21 6.60695 	-0.332576 	0 6.60573 	-0.332817 	0 6.60472 	-0.333039 	0 6.6037 	-0.333261 	0 6.60268 	-0.333483 	0 6.60166 	-0.333703 	0 6.59347 	-0.335387 	0 6.58523 	-0.337071 	0 6.57693 	-0.338754 	0 6.56857 	-0.340437 	0 6.56113 	-0.341987 	0 6.55108 	-0.344069 	-1.42442e-21 6.54138 	-0.345994 	-4.13437e-21 6.5316 	-0.347919 	-6.84214e-21 6.52175 	-0.349843 	-9.5477e-21 6.51395 	-0.35148 	-1.21161e-20 6.503 	-0.353748 	1.51845e-20 6.49285 	-0.355699 	1.90985e-20 6.48266 	-0.357639 	2.2237e-20 6.47317 	-0.359474 	1.42732e-20 6.46535 	-0.361075 	-1.86414e-20 6.45397 	-0.363351 	-1.04223e-20 6.44286 	-0.3655 	-2.12855e-21 6.43223 	-0.36745 	6.28555e-21 6.42352 	-0.369134 	1.18931e-20 6.41529 	-0.370746 	1.67305e-20 6.40346 	-0.373024 	1.06362e-20 6.39155 	-0.375302 	4.53693e-21 6.38097 	-0.377235 	7.55743e-21 6.37238 	-0.378853 	2.13171e-20 6.36372 	-0.38047 	3.50783e-20 6.35143 	-0.382746 	4.26557e-20 6.33906 	-0.385021 	5.02303e-20 6.32872 	-0.386988 	4.05655e-20 6.31969 	-0.388606 	1.80539e-20 6.31059 	-0.390223 	-4.46996e-21 6.29785 	-0.392491 	1.49093e-20 6.28576 	-0.39466 	2.75007e-20 6.2754 	-0.396594 	2.37428e-20 6.26544 	-0.398368 	7.4748e-21 6.2559 	-0.399979 	-2.15002e-20 6.24267 	-0.402233 	-1.43977e-20 6.23148 	-0.404214 	-5.20635e-21 6.22067 	-0.406134 	4.43564e-21 6.20978 	-0.408055 	1.40772e-20 6.19959 	-0.409714 	1.6497e-20 6.18683 	-0.411829 	1.79977e-20 6.17563 	-0.413733 	1.91942e-20 6.16436 	-0.415636 	2.03985e-20 6.153 	-0.417539 	2.16107e-20 6.14166 	-0.419408 	2.32657e-20 6.13978 	-0.419706 	2.26705e-20 6.13811 	-0.419977 	2.20739e-20 6.13643 	-0.420248 	2.14773e-20 6.13476 	-0.42052 	2.08809e-20 6.13309 	-0.420788 	2.02904e-20 6.12354 	-0.422405 	1.57378e-20 6.11392 	-0.424022 	1.11824e-20 6.10425 	-0.425638 	6.62442e-21 6.09452 	-0.427254 	2.0637e-21 6.08484 	-0.428711 	-4.47492e-21 6.07377 	-0.430772 	0 6.06212 	-0.432633 	0 6.05039 	-0.434494 	0 6.03859 	-0.436345 	-2.78075e-22 6.02691 	-0.437867 	-9.93178e-21 6.0157 	-0.440024 	-2.47274e-21 6.00385 	-0.441961 	2.31354e-21 5.99165 	-0.443789 	5.77266e-21 5.97949 	-0.445412 	1.46472e-20 5.96734 	-0.4469 	2.7114e-20 5.95565 	-0.449015 	4.77755e-20 5.94387 	-0.45113 	6.84401e-20 5.9313 	-0.452882 	6.93916e-20 5.91875 	-0.454326 	5.1886e-20 5.90612 	-0.45577 	3.43791e-20 5.89395 	-0.457835 	3.65766e-20 5.88169 	-0.459899 	3.87798e-20 5.86941 	-0.461654 	3.15503e-20 5.85638 	-0.463044 	1.51604e-20 5.84326 	-0.464434 	-1.2309e-21 5.83061 	-0.46644 	-2.76122e-20 5.81795 	-0.468306 	-4.53916e-20 5.80532 	-0.469964 	-5.04386e-20 5.79238 	-0.471524 	-4.76565e-20 5.77878 	-0.472853 	-2.63295e-20 5.76564 	-0.474782 	6.04505e-21 5.75262 	-0.476371 	-1.65246e-22 5.73951 	-0.47796 	-6.41138e-21 5.72632 	-0.479548 	-1.26936