# vtk DataFile Version 2.0
track0
ASCII
DATASET POLYDATA
POINTS 12070 float
-0.0205 0.001 1e-05
-0.02052 0.000999985 1e-05
-0.02054 0.000999974 1e-05
-0.02056 0.000999965 1e-05
-0.02058 0.000999959 1e-05
-0.0206 0.000999956 1e-05
-0.0205 0.00367778 1e-05
-0.02052 0.00367778 1e-05
-0.02054 0.00367777 1e-05
-0.02056 0.00367777 1e-05
-0.02058 0.00367777 1e-05
-0.0206 0.00367777 1e-05
-0.0205 0.00635556 1e-05
-0.02052 0.00635555 1e-05
-0.02054 0.00635555 1e-05
-0.02056 0.00635555 1e-05
-0.02058 0.00635555 1e-05
-0.0206 0.00635555 1e-05
-0.0205 0.00903333 1e-05
-0.02052 0.00903333 1e-05
-0.02054 0.00903333 1e-05
-0.02056 0.00903333 1e-05
-0.02058 0.00903333 1e-05
-0.0206 0.00903333 1e-05
-0.0205 0.0117111 1e-05
-0.02052 0.0117111 1e-05
-0.02054 0.0117111 1e-05
-0.02056 0.0117111 1e-05
-0.02058 0.0117111 1e-05
-0.0206 0.0117111 1e-05
-0.0205 0.0143889 1e-05
-0.02052 0.0143889 1e-05
-0.02054 0.0143889 1e-05
-0.02056 0.0143889 1e-05
-0.02058 0.0143889 1e-05
-0.0206 0.0143889 1e-05
-0.0205 0.0170667 1e-05
-0.02052 0.0170667 1e-05
-0.02054 0.0170667 1e-05
-0.02056 0.0170667 1e-05
-0.02058 0.0170667 1e-05
-0.0206 0.0170667 1e-05
-0.0205 0.0197444 1e-05
-0.02052 0.0197444 1e-05
-0.02054 0.0197444 1e-05
-0.02056 0.0197444 1e-05
-0.02058 0.0197444 1e-05
-0.0206 0.0197444 1e-05
-0.0205 0.0224222 1e-05
-0.02052 0.0224222 1e-05
-0.02054 0.0224222 1e-05
-0.02056 0.0224222 1e-05
-0.02058 0.0224222 1e-05
-0.0206 0.0224222 1e-05
-0.0205 0.0251 1e-05
-0.02052 0.0250998 1e-05
-0.02054 0.0250997 1e-05
-0.02056 0.0250995 1e-05
-0.02058 0.0250995 1e-05
-0.0206 0.0250994 1e-05
-0.0205 0.001 1e-05
-0.0202034 0.00100022 1e-05
-0.0199069 0.00100067 1e-05
-0.0196103 0.00100132 1e-05
-0.0193137 0.00100219 1e-05
-0.0190172 0.00100326 1e-05
-0.0187132 0.00100466 1e-05
-0.0184093 0.00100588 1e-05
-0.0181054 0.0010071 1e-05
-0.0178015 0.00100832 1e-05
-0.0174976 0.00100953 1e-05
-0.0172058 0.00101083 1e-05
-0.016914 0.00101193 1e-05
-0.0166222 0.00101303 1e-05
-0.0163305 0.00101413 1e-05
-0.0160387 0.00101523 1e-05
-0.0157586 0.00101636 1e-05
-0.0154784 0.00101745 1e-05
-0.0151983 0.00101856 1e-05
-0.0149182 0.00101972 1e-05
-0.0146381 0.0010209 1e-05
-0.0143747 0.00102209 1e-05
-0.0141113 0.00102327 1e-05
-0.0138479 0.00102449 1e-05
-0.0135846 0.00102574 1e-05
-0.0133621 0.00102682 1e-05
-0.0133484 0.00102689 1e-05
-0.0133347 0.00102695 1e-05
-0.0133209 0.00102702 1e-05
-0.0133072 0.00102709 1e-05
-0.0132934 0.00102716 1e-05
-0.0130353 0.00102845 1e-05
-0.0127771 0.00102975 1e-05
-0.0125189 0.00103107 1e-05
-0.0122607 0.00103241 1e-05
-0.0120025 0.00103376 1e-05
-0.0117547 0.00103507 1e-05
-0.0115068 0.00103638 1e-05
-0.0112589 0.0010377 1e-05
-0.0110111 0.00103903 1e-05
-0.0107632 0.00104036 1e-05
-0.0105252 0.00104163 1e-05
-0.0102873 0.00104291 1e-05
-0.0100493 0.00104419 1e-05
-0.00981133 0.00104547 1e-05
-0.00957337 0.00104675 1e-05
-0.00934491 0.00104797 1e-05
-0.00911645 0.0010492 1e-05
-0.00888799 0.00105042 1e-05
-0.00865954 0.00105163 1e-05
-0.00843108 0.00105285 1e-05
-0.00821175 0.00105401 1e-05
-0.00799242 0.00105517 1e-05
-0.00777309 0.00105632 1e-05
-0.00755376 0.00105747 1e-05
-0.00733443 0.00105862 1e-05
-0.00712387 0.00105971 1e-05
-0.0069133 0.0010608 1e-05
-0.00670273 0.00106189 1e-05
-0.00649216 0.00106298 1e-05
-0.0062816 0.00106406 1e-05
-0.00607944 0.00106508 1e-05
-0.00587729 0.00106611 1e-05
-0.00567514 0.00106714 1e-05
-0.00547298 0.00106816 1e-05
-0.00527083 0.00106917 1e-05
-0.00507675 0.00107014 1e-05
-0.00488267 0.00107111 1e-05
-0.0046886 0.00107207 1e-05
-0.00449452 0.00107303 1e-05
-0.00430044 0.00107399 1e-05
-0.00411412 0.0010749 1e-05
-0.0039278 0.00107582 1e-05
-0.00374147 0.00107673 1e-05
-0.00355515 0.00107763 1e-05
-0.00336883 0.00107854 1e-05
-0.00318995 0.0010794 1e-05
-0.00301107 0.00108026 1e-05
-0.00283219 0.00108112 1e-05
-0.00265331 0.00108198 1e-05
-0.00247443 0.00108284 1e-05
-0.0023027 0.00108366 1e-05
-0.00213097 0.00108448 1e-05
-0.00195924 0.00108531 1e-05
-0.0017875 0.00108613 1e-05
-0.00161577 0.00108695 1e-05
-0.0014509 0.00108773 1e-05
-0.00128603 0.00108852 1e-05
-0.00112116 0.00108931 1e-05
-0.000956289 0.0010901 1e-05
-0.000791418 0.0010909 1e-05
-0.000633135 0.00109166 1e-05
-0.000474851 0.00109243 1e-05
-0.000316567 0.00109321 1e-05
-0.000158284 0.00109399 1e-05
0 0.00109477 1e-05
0.000105677 0.00109529 1e-05
0.000211355 0.00109581 1e-05
0.000317032 0.00109632 1e-05
0.00042271 0.00109684 1e-05
0.000528387 0.00109736 1e-05
0.000634886 0.00109787 1e-05
0.000741385 0.00109838 1e-05
0.000847885 0.00109889 1e-05
0.000954384 0.0010994 1e-05
0.00106088 0.0010999 1e-05
0.00116821 0.00110039 1e-05
0.00127554 0.00110089 1e-05
0.00138286 0.00110137 1e-05
0.00149019 0.00110185 1e-05
0.00159752 0.00110232 1e-05
0.00170568 0.00110279 1e-05
0.00181384 0.00110325 1e-05
0.001922 0.0011037 1e-05
0.00203016 0.00110415 1e-05
0.00213833 0.00110458 1e-05
0.00224733 0.001105 1e-05
0.00235633 0.00110543 1e-05
0.00246533 0.00110584 1e-05
0.00257434 0.00110624 1e-05
0.00268334 0.00110663 1e-05
0.00279319 0.00110702 1e-05
0.00290304 0.0011074 1e-05
0.00301289 0.00110777 1e-05
0.00312274 0.00110813 1e-05
0.00323259 0.00110849 1e-05
0.00334329 0.00110883 1e-05
0.003454 0.00110917 1e-05
0.0035647 0.00110951 1e-05
0.0036754 0.00110983 1e-05
0.00378611 0.00111015 1e-05
0.00389767 0.00111046 1e-05
0.00400924 0.00111076 1e-05
0.0041208 0.00111106 1e-05
0.00423237 0.00111135 1e-05
0.00434393 0.00111163 1e-05
0.00445636 0.0011119 1e-05
0.00456879 0.00111216 1e-05
0.00468123 0.00111242 1e-05
0.00479366 0.00111267 1e-05
0.00490609 0.00111291 1e-05
0.0050194 0.00111314 1e-05
0.0051327 0.00111337 1e-05
0.00524601 0.00111359 1e-05
0.00535932 0.0011138 1e-05
0.00547262 0.00111401 1e-05
0.00558681 0.0011142 1e-05
0.005701 0.00111439 1e-05
0.00581518 0.00111457 1e-05
0.00592937 0.00111474 1e-05
0.00604356 0.00111491 1e-05
0.00615863 0.00111506 1e-05
0.00627371 0.00111521 1e-05
0.00638878 0.00111536 1e-05
0.00650386 0.00111549 1e-05
0.00661893 0.00111562 1e-05
0.0067349 0.00111574 1e-05
0.00685087 0.00111585 1e-05
0.00696684 0.00111595 1e-05
0.00708281 0.00111605 1e-05
0.00719878 0.00111614 1e-05
0.00731565 0.00111622 1e-05
0.00743252 0.00111629 1e-05
0.00754939 0.00111636 1e-05
0.00766626 0.00111641 1e-05
0.00778313 0.00111646 1e-05
0.00779184 0.00111646 1e-05
0.00780055 0.00111647 1e-05
0.00780925 0.00111647 1e-05
0.00781796 0.00111647 1e-05
0.00782663 0.00111648 1e-05
0.00793571 0.00111651 1e-05
0.00804479 0.00111654 1e-05
0.00815387 0.00111656 1e-05
0.00826295 0.00111657 1e-05
0.00837203 0.00111658 1e-05
0.00849073 0.00111658 1e-05
0.00860942 0.00111657 1e-05
0.00872812 0.00111655 1e-05
0.00884682 0.00111653 1e-05
0.00896551 0.00111649 1e-05
0.00908513 0.00111645 1e-05
0.00920475 0.00111639 1e-05
0.00932437 0.00111633 1e-05
0.00944398 0.00111627 1e-05
0.0095636 0.00111619 1e-05
0.00968415 0.00111609 1e-05
0.0098047 0.001116 1e-05
0.00992525 0.0011159 1e-05
0.0100458 0.00111578 1e-05
0.0101663 0.00111566 1e-05
0.0102878 0.00111552 1e-05
0.0104093 0.00111538 1e-05
0.0105308 0.00111523 1e-05
0.0106523 0.00111507 1e-05
0.0107738 0.00111491 1e-05
0.0108962 0.00111472 1e-05
0.0110186 0.00111453 1e-05
0.0111411 0.00111433 1e-05
0.0112635 0.00111413 1e-05
0.0113859 0.00111392 1e-05
0.0115093 0.00111368 1e-05
0.0116327 0.00111344 1e-05
0.0117561 0.0011132 1e-05
0.0118795 0.00111295 1e-05
0.0120028 0.00111268 1e-05
0.0121272 0.0011124 1e-05
0.0122515 0.00111211 1e-05
0.0123759 0.00111182 1e-05
0.0125002 0.00111152 1e-05
0.0126245 0.0011112 1e-05
0.0127498 0.00111087 1e-05
0.0128752 0.00111053 1e-05
0.0130005 0.00111019 1e-05
0.0131258 0.00110983 1e-05
0.0132511 0.00110947 1e-05
0.0133774 0.00110908 1e-05
0.0135036 0.00110869 1e-05
0.0136299 0.0011083 1e-05
0.0137562 0.00110789 1e-05
0.0138825 0.00110747 1e-05
0.0140098 0.00110703 1e-05
0.014137 0.00110659 1e-05
0.0142643 0.00110614 1e-05
0.0143915 0.00110568 1e-05
0.0145188 0.00110521 1e-05
0.0146471 0.00110472 1e-05
0.0147753 0.00110422 1e-05
0.0149036 0.00110372 1e-05
0.0150318 0.0011032 1e-05
0.0151601 0.00110267 1e-05
0.0152893 0.00110213 1e-05
0.0154186 0.00110158 1e-05
0.0155478 0.00110102 1e-05
0.0156771 0.00110044 1e-05
0.0158063 0.00109986 1e-05
0.0159366 0.00109927 1e-05
0.0160668 0.00109866 1e-05
0.0161971 0.00109804 1e-05
0.0163274 0.00109741 1e-05
0.0164576 0.00109677 1e-05
0.0165889 0.00109612 1e-05
0.0167201 0.00109546 1e-05
0.0168514 0.00109478 1e-05
0.0169827 0.00109409 1e-05
0.0171139 0.0010934 1e-05
0.0172462 0.00109269 1e-05
0.0173785 0.00109197 1e-05
0.0175108 0.00109124 1e-05
0.0176431 0.00109049 1e-05
0.0177754 0.00108974 1e-05
0.0179087 0.00108898 1e-05
0.018042 0.00108821 1e-05
0.0181753 0.00108741 1e-05
0.0183087 0.00108661 1e-05
0.018442 0.0010858 1e-05
0.0185763 0.00108498 1e-05
0.0187107 0.00108415 1e-05
0.018845 0.0010833 1e-05
0.0189794 0.00108243 1e-05
0.0191137 0.00108156 1e-05
0.0192491 0.00108069 1e-05
0.0193845 0.0010798 1e-05
0.0195199 0.00107889 1e-05
0.0196553 0.00107796 1e-05
0.0197907 0.00107704 1e-05
0.0199272 0.00107611 1e-05
0.0200636 0.00107516 1e-05
0.0202001 0.00107419 1e-05
0.0203365 0.0010732 1e-05
0.020473 0.00107222 1e-05
0.0206105 0.00107124 1e-05
0.020748 0.00107023 1e-05
0.0208855 0.00106919 1e-05
0.021023 0.00106815 1e-05
0.0211606 0.00106711 1e-05
0.0212991 0.00106606 1e-05
0.0214377 0.001065 1e-05
0.0215763 0.0010639 1e-05
0.0217149 0.00106279 1e-05
0.0218535 0.0010617 1e-05
0.0219931 0.0010606 1e-05
0.0221328 0.00105947 1e-05
0.0222724 0.00105831 1e-05
0.0224121 0.00105714 1e-05
0.0225517 0.00105598 1e-05
0.0226925 0.00105482 1e-05
0.0228332 0.00105364 1e-05
0.022974 0.00105242 1e-05
0.0231147 0.00105119 1e-05
0.0232555 0.00104997 1e-05
0.0233973 0.00104875 1e-05
0.0235391 0.0010475 1e-05
0.023681 0.00104622 1e-05
0.0238228 0.00104493 1e-05
0.0239647 0.00104365 1e-05
0.0241076 0.00104236 1e-05
0.0242505 0.00104105 1e-05
0.0243935 0.00103971 1e-05
0.0245364 0.00103835 1e-05
0.0246794 0.00103701 1e-05
0.0248234 0.00103566 1e-05
0.0249675 0.00103429 1e-05
0.0251115 0.00103288 1e-05
0.0252556 0.00103147 1e-05
[...]
POINT_DATA 12070
 FIELD attributes 2
p 1 12070 float
-5.18927 -5.18595 -5.18264 -5.17932 -5.17601 -5.1727
-5.34163 -5.3416 -5.34158 -5.34156 -5.34154 -5.34152
-5.51576 -5.51564 -5.51552 -5.51539 -5.51527 -5.51516
-5.60913 -5.60908 -5.60902 -5.60897 -5.60892 -5.60886
-5.6543 -5.65419 -5.65408 -5.65397 -5.65385 -5.65374
-5.66096 -5.6608 -5.66064 -5.66048 -5.66032 -5.66016
-5.63416 -5.63409 -5.63402 -5.63395 -5.63388 -5.63381
-5.56471 -5.56467 -5.56463 -5.56459 -5.56455 -5.56451
-5.4435 -5.44351 -5.44351 -5.44352 -5.44353 -5.44353
-3.23093 -3.25026 -3.26946 -3.28853 -3.30747 -3.32627
-5.18927 -5.18856 -5.18494 -5.18124 -5.17746 -5.16908 -5.18292 -5.19788 -5.21284 -5.2278 -5.25221 -5.27396 -5.30387 -5.33378 -5.3637 -5.39642 -5.41204 -5.43371 -5.45539 -5.47706 -5.50036 -5.5192 -5.54005 -5.56091 -5.58177 -5.5994 -5.60048 -5.60157 -5.60265 -5.60373 -5.60481 -5.62643 -5.64805 -5.66966 -5.69128 -5.71262 -5.73133 -5.74984 -5.76835 -5.78687 -5.80481 -5.82036 -5.83563 -5.8509 -5.86618 -5.88089 -5.89458 -5.90801 -5.92144 -5.93487 -5.94785 -5.96044 -5.97277 -5.98509 -5.99742 -6.00931 -6.02096 -6.03229 -6.04362 -6.05496 -6.06586 -6.07663 -6.0871 -6.09757 -6.10805 -6.11815 -6.12822 -6.13799 -6.14776 -6.15752 -6.16696 -6.17644 -6.18567 -6.19491 -6.20414 -6.21317 -6.22222 -6.2309 -6.23958 -6.24826 -6.25675 -6.26549 -6.27431 -6.28313 -6.29195 -6.30109 -6.31049 -6.31948 -6.32848 -6.33747 -6.34653 -6.35661 -6.36815 -6.37968 -6.39122 -6.40362 -6.41548 -6.4291 -6.44273 -6.45635 -6.4696 -6.48168 -6.49356 -6.50543 -6.5173 -6.52793 -6.53671 -6.54608 -6.55546 -6.56483 -6.57465 -6.58338 -6.59226 -6.60114 -6.61002 -6.61891 -6.62751 -6.63499 -6.64246 -6.64993 -6.6564 -6.66359 -6.66942 -6.67524 -6.68106 -6.6857 -6.69167 -6.69653 -6.70138 -6.70624 -6.71009 -6.71511 -6.71921 -6.72331 -6.72741 -6.73071 -6.73474 -6.73803 -6.74132 -6.74461 -6.74732 -6.75041 -6.75295 -6.75548 -6.75802 -6.76021 -6.76265 -6.76472 -6.76679 -6.76887 -6.77075 -6.7729 -6.77481 -6.77673 -6.77864 -6.78045 -6.78244 -6.78428 -6.78612 -6.78796 -6.78975 -6.7916 -6.79338 -6.79516 -6.79694 -6.79871 -6.79885 -6.79898 -6.79911 -6.79924 -6.79937 -6.80099 -6.80262 -6.80425 -6.80587 -6.80765 -6.80926 -6.81103 -6.81281 -6.81458 -6.81675 -6.81818 -6.82004 -6.82189 -6.82375 -6.82632 -6.82758 -6.82957 -6.83157 -6.83356 -6.83663 -6.83771 -6.83983 -6.84196 -6.84409 -6.84764 -6.84851 -6.85075 -6.85298 -6.85521 -6.8592 -6.85989 -6.86224 -6.86458 -6.86692 -6.87133 -6.87191 -6.87438 -6.87685 -6.87932 -6.88413 -6.88462 -6.88723 -6.88984 -6.89244 -6.89759 -6.89805 -6.90078 -6.90352 -6.90625 -6.91168 -6.91215 -6.91502 -6.91788 -6.92081 -6.92639 -6.9271 -6.92993 -6.93292 -6.93624 -6.94171 -6.94278 -6.94552 -6.94863 -6.9523 -6.95766 -6.95907 -6.96177 -6.96501 -6.96896 -6.9742 -6.97596 -6.97865 -6.98201 -6.9862 -6.99132 -6.99341 -6.99613 -6.99961 -7.00399 -7.009 -7.0114 -7.01419 -7.01779 -7.02231 -7.02722 -7.02991 -7.0328 -7.03651 -7.04115 -7.04598 -7.04893 -7.05194 -7.05575 -7.06046 -7.06522 -7.0684 -7.07159 -7.07552 -7.08022 -7.08491 -7.08832 -7.09173 -7.09576 -7.10041 -7.10506 -7.10869 -7.11232 -7.11643 -7.12103 -7.12563 -7.12945 -7.13327 -7.13745 -7.142 -7.14655 -7.15052 -7.15449 -7.15872 -7.16323 -7.16774 -7.17183 -7.17591 -7.1802 -7.18469 -7.18918 -7.19334 -7.19751 -7.20185 -7.20634 -7.21083 -7.21506 -7.21929 -7.22368 -7.22817 -7.23267 -7.23694 -7.24124 -7.24566 -7.25014 -7.25466 -7.25896 -7.26331 -7.26774 -7.27223 -7.27675 -7.28106 -7.28544 -7.28989 -7.29437 -7.2989 -7.30322 -7.30762 -7.31206 -7.31653 -7.32106 -7.32537 -7.32978 -7.33422 -7.33867 -7.34318 -7.34748 -7.35189 -7.35631 -7.36073 -7.36522 -7.36949 -7.37388 -7.37827 -7.38266 -7.3871 -7.39136 -7.3957 -7.40005 -7.40439 -7.40877 -7.41299 -7.41728 -7.42157 -7.42586 -7.43017 -7.43434 -7.43856 -7.44278 -7.447 -7.45123 -7.45533 -7.45946 -7.46359 -7.46773 -7.47186 -7.47378 -7.4757 -7.47762 -7.47955 -7.48143 -7.48354 -7.48566 -7.48778 -7.48989 -7.49202 -7.49593 -7.49985 -7.50377 -7.50769 -7.51162 -7.51542 -7.5192 -7.52299 -7.52679 -7.53059 -7.53426 -7.5379 -7.54154 -7.54518 -7.54882 -7.55233 -7.55579 -7.55924 -7.5627 -7.56613 -7.56947 -7.57271 -7.57595 -7.57919 -7.58239 -7.58553 -7.58855 -7.59156 -7.59455 -7.59751 -7.60042 -7.60323 -7.60599 -7.60872 -7.61141 -7.61408 -7.61667 -7.61916 -7.6216 -7.62399 -7.62638 -7.62874 -7.63093 -7.63302 -7.6351 -7.63718 -7.63927 -7.64113 -7.64285 -7.64457 -7.64632 -7.64806 -7.64959 -7.65092 -7.65225 -7.65363 -7.65501 -7.65616 -7.65707 -7.65798 -7.65895 -7.65992 -7.66067 -7.66112 -7.66158 -7.66211 -7.66264 -7.66294 -7.66292 -7.66289 -7.66294 -7.66294 -7.66274 -7.6623 -7.66175 -7.6613 -7.66072 -7.65999 -7.6591 -7.65799 -7.657 -7.65579 -7.65449 -7.65313 -7.65144 -7.64987 -7.64797 -7.64606 -7.64416 -7.64189 -7.63962 -7.63706 -7.63451 -7.63197 -7.62917 -7.62613 -7.62289 -7.61966 -7.61643 -7.61308 -7.60997 -7.60675 -7.60354 -7.60034 -7.59731 -7.59654 -7.59577 -7.595 -7.59423 -7.59343 -7.5888 -7.58414 -7.57948 -7.57482 -7.56999 -7.56474 -7.55927 -7.55381 -7.54835 -7.54253 -7.53665 -7.53033 -7.52402 -7.51771 -7.51084 -7.50425 -7.49711 -7.48991 -7.48254 -7.47473 -7.46724 -7.45941 -7.45129 -7.44277 -7.434 -7.42556 -7.41703 -7.40794 -7.39821 -7.38844 -7.37901 -7.36959 -7.35946 -7.34866 -7.33786 -7.32741 -7.31696 -7.30582 -7.29395 -7.28208 -7.27057 -7.25906 -7.24678 -7.23387 -7.2209 -7.20829 -7.19539 -7.18199 -7.16826 -7.15415 -7.14041 -7.12605 -7.11149 -7.09693 -7.08165 -7.06662 -7.05085 -7.03509 -7.01934 -7.00319 -6.98659 -6.9696 -6.95261 -6.93562 -6.9186 -6.91652 -6.9144 -6.91228 -6.91015 -6.90805 -6.89206 -6.87608 -6.8601 -6.84413 -6.82787 -6.8088 -6.78944 -6.77008 -6.75074 -6.73074 -6.7107 -6.69006 -6.66941 -6.64852 -6.62707 -6.60571 -6.58413 -6.56216 -6.53956 -6.51679 -6.49411 -6.47143 -6.44806 -6.42394 -6.39983 -6.37581 -6.3518 -6.32705 -6.30159 -6.27614 -6.25077 -6.22516 -6.19896 -6.17247 -6.14567 -6.11896 -6.09155 -6.064 -6.03646 -6.00843 -5.98006 -5.95114 -5.92224 -5.89335 -5.86439 -5.8601 -5.85574 -5.85138 -5.84701 -5.84269 -5.81688 -5.79107 -5.76528 -5.73949 -5.71341 -5.68215 -5.65068 -5.61923 -5.58777 -5.55573 -5.52328 -5.49063 -5.45789 -5.4248 -5.39148 -5.35774 -5.32402 -5.28994 -5.25538 -5.22082 -5.18583 -5.15085 -5.11544 -5.07969 -5.04393 -5.00774 -4.97135 -4.93468 -4.89794 -4.86105 -4.82369 -4.78588 -4.74809 -4.7103 -4.67243 -4.65296 -4.63335 -4.61374 -4.59414 -4.57513 -4.55579 -4.53646 -4.51712 -4.4978 -4.47831 -4.43857 -4.39877 -4.35898 -4.31921 -4.27898 -4.23835 -4.19765 -4.15693 -4.11596 -4.07482 -4.03328 -3.99175 -3.95008 -3.90814 -3.8662 -3.82383 -3.78148 -3.73884 -3.69619 -3.65352 -3.61041 -3.56714 -3.52381 -3.48048 -3.43718 -3.39929 -3.36129 -3.3233 -3.28532 -3.24899 -3.24271 -3.23643 -3.23016 -3.22388 -3.21757 -3.17309 -3.12862 -3.08416 -3.03971 -2.99509 -2.95005 -2.90513 -2.86024 -2.81528 -2.77024 -2.72481 -2.67939 -2.63409 -2.58876 -2.54342 -2.49767 -2.45194 -2.40617 -2.36056 -2.31499 -2.26901 -2.22303 -2.17706 -2.1311 -2.08529 -2.05726 -2.02924 -2.00123 -1.97322 -1.94586 -1.92761 -1.90935 -1.8911 -1.87285 -1.85459 -1.8082 -1.76192 -1.71566 -1.6694 -1.62312 -1.57651 -1.53005 -1.48375 -1.43746 -1.39117 -1.34455 -1.29794 -1.25146 -1.2052 -1.15893 -1.11233 -1.06577 -1.01925 -0.972794 -0.926606 -0.880108 -0.833679 -0.787255 -0.740837 -0.69441 -0.694132 -0.693855 -0.693578 -0.6933 -0.693023 -0.646892 -0.600765 -0.554643 -0.508526 -0.46242 -0.415825 -0.369562 -0.323358 -0.277187 -0.231027 -0.184647 -0.138272 -0.0922 -0.0462975 -0.000382757 0.0457536 0.0918711 0.137921 0.18376 0.22939 0.275241 0.321009 0.366775 0.412538 0.458191 0.468211 0.478216 0.488222 0.498227 0.508193 0.54378 0.579366 0.61495 0.650533 0.686105 0.731805 0.777111 0.822414 0.867705 0.912991 0.958422 1.00385 1.04888 1.09384 1.1388 1.18392 1.22903 1.27412 1.31891 1.36357 1.40837 1.45317 1.49795 1.54274 1.58734 1.60313 1.61892 1.6347 1.65049 1.66621 1.69503 1.72385 1.75266 1.78148 1.81033 1.855 1.89938 1.94375 1.98815 2.03261 2.07713 2.12164 2.1658 2.21004 2.2543 2.2986 2.34291 2.38735 2.43151 2.47561 2.51976 2.56404 2.60835 2.65266 2.69679 2.71639 2.73607 2.75574 2.77542 2.79496 2.81959 2.84422 2.86885 2.89348 2.9182 2.96266 3.00694 3.05123 3.09557 3.14011 3.18466 3.22919 3.27354 3.31814 3.36275 3.40738 3.45201 3.49693 3.54172 3.58649 3.63127 3.67634 3.72148 3.76662 3.81169 3.83021 3.84888 3.86754 3.8862 3.90465 3.93144 3.95824 3.98504 4.01183 4.03883 4.08465 4.13041 4.17616 4.22207 4.26829 4.31452 4.36075 4.40706 4.45375 4.50046 4.54719 4.59398 4.64124 4.68851 4.73582 4.78316 4.83107 4.87898 4.9269 4.97486 4.97863 4.98245 4.98627 4.99009 4.99389 5.03863 5.08337 5.1281 5.17284 5.21814 5.26736 5.3167 5.36608 5.416 5.46612 5.51626 5.5664 5.6171 5.66818 5.71933 5.77049 5.82221 5.87416 5.92611 5.97827 5.99302 6.00801 6.023 6.03798 6.05269 6.09072 6.12874 6.16677 6.20481 6.24354 6.29727 6.35131 6.40545 6.46032 6.51553 6.57057 6.6256 6.68149 6.73797 6.7946 6.84965 6.90562 6.96171 7.0178 7.06987 7.07211 7.07434 7.07657 7.07882 7.08109 7.13973 7.19842 7.25711 7.31604 7.37595 7.43562 7.4953 7.55578 7.61706 7.67851 7.73969 7.8016 7.86386 7.92612 7.98862 7.99093 7.99326 7.99561 7.99796 8.0003 8.06131 8.12233 8.18335 8.24467 8.30682 8.37107 8.43532 8.50027 8.56596 8.63184 8.67991 8.72836 8.77705 8.82575 8.87224 8.89036 8.90848 8.9266 8.9448 8.96315 9.03001 9.09722 9.16444 9.2322 9.30025 9.36801 9.43593 9.50422 9.57252 9.64117 9.6521 9.66307 9.67406 9.68505 9.69598 9.75378 9.81158 9.86939 9.92734 9.9855 10.0544 10.1233 10.1923 10.2615 10.3308 10.3615 10.3922 10.4229 10.4536 10.4842 10.5226 10.5609 10.5993 10.6376 10.676 10.7447 10.8134 10.882 10.9505 11.019 11.0652 11.1113 11.1572 11.2031 11.2499 11.2716 11.2932 11.3148 11.3363 11.3578 11.4248 11.4919 11.5588 11.6252 11.6913 11.7543 11.8168 11.8789 11.941 12.0071 12.009 12.0109 12.0128 12.0147 12.0166 12.0804 12.1442 12.208 12.2712 12.3338 12.3957 12.4576 12.5185 12.5791 12.6394 12.665 12.6903 12.7154 12.7405 12.7669 12.8004 12.8338 12.8673 12.9005 12.9332 12.9903 13.0472 13.1037 13.1591 13.2142 13.2685 13.3223 13.3753 13.4283 13.4807 13.4948 13.5086 13.5223 13.536 13.5504 13.5873 13.6242 13.6611 13.6979 13.7339 13.7826 13.831 13.8791 13.9263 13.9733 14.0193 14.0651 14.1099 14.1542 14.1978 14.238 14.2786 14.3191 14.3596 14.4117 14.4118 14.4119 14.412 14.412 14.4121 14.4498 14.4874 14.5248 14.5621 14.5953 14.626 14.6613 14.6974 14.7389 14.7848 14.8299 14.8748 14.901 14.9085 14.9159 14.9207 14.9263 14.9322 14.938 14.9443 14.9458 14.9473 14.9488 14.9503 14.9519 14.9555 14.9591 14.9626 14.9661 14.9709 14.9749 14.977 14.9788 14.9788 14.9779 14.9736 14.9692 14.962 14.9519 14.9417 14.9278 14.9129 14.8964 14.8795 14.8612 14.8388 14.8143 14.7896 14.7649 14.7399 14.7355 14.7309 14.7262 14.7215 14.7166 14.6895 14.6622 14.6348 14.6074 14.5784 14.5392 14.4982 14.4571 14.4153 14.3709 14.3223 14.2728 14.2219 14.1683 14.114 14.0555 13.9969 13.9351 13.8702 13.8052 13.7358 13.6663 13.5936 13.5178 13.442 13.3615 13.2797 13.1951 13.1089 13.0211 12.9283 12.8322 12.7351 12.6379 12.5373 12.4305 12.3199 12.2092 12.0986 11.9858 11.8629 11.7378 11.6126 11.4875 11.3618 11.3189 11.2754 11.2318 11.1883 11.1401 11.0437 10.9473 10.8509 10.7544 10.6565 10.5 10.3421 10.1842 10.0263 9.8653 9.69163 9.51248 9.33328 9.15404 8.96678 8.7703 8.57135 8.37238 8.17332 7.97125 7.76221 7.53251 7.29957 7.06018 6.80207 6.53503 6.2804 6.0334 5.79609 5.56997 5.3359 5.06462 4.73575 4.33692 3.90758 3.46264 3.04552 2.77029 2.64102 2.53443 2.42369 2.3132 1.80126 0.899911 0