/*--------------------------------*- C++ -*----------------------------------*\
  =========                 |
  \\      /  F ield         | OpenFOAM: The Open Source CFD Toolbox
   \\    /   O peration     | Website:  https://openfoam.org
    \\  /    A nd           | Version:  8
     \\/     M anipulation  |
\*---------------------------------------------------------------------------*/
FoamFile
{
    version     2.0;
    format      ascii;
    class       volScalarField;
    location    "230";
    object      epsilon;
}
// * * * * * * * * * * * * * * * * * * * * * * * * * * * * * * * * * * * * * //

dimensions      [0 2 -3 0 0 0 0];

internalField   nonuniform List<scalar> 
12225
(
285.523
270.703
257.919
243.806
232.467
223.079
216.819
212.695
212.741
213.957
217.234
220.928
228.093
232.821
241.288
246.749
256.183
259.937
52.4931
91.8813
106.975
114.746
124.845
136.778
152.692
169.896
191.108
210.922
235.22
255.47
281.035
299.318
324.676
339.467
363.404
378.949
20.5287
34.872
44.676
50.4682
55.3965
59.6058
64.6653
69.6402
76.318
83.1798
91.4352
99.3121
108.17
116.924
125.536
135.273
142.48
153.909
16.0023
19.4862
24.0818
27.5633
30.4969
32.8688
35.1555
37.2926
39.5026
41.9168
44.3359
47.2008
49.6795
53.0371
55.4066
59.2419
61.3696
65.6693
15.0385
15.7123
17.3992
19.0783
20.6394
22.0257
23.2462
24.4308
25.444
26.5943
27.523
28.7575
29.6314
30.9844
31.8105
33.2698
34.0416
35.66
14.7897
14.8256
15.2495
15.8676
16.5677
17.2869
17.9237
18.5841
19.1191
19.7338
20.1931
20.7986
21.2081
21.8221
22.1968
22.828
23.1598
23.866
14.7658
14.6146
14.641
14.7257
14.9351
15.2199
15.4916
15.8088
16.0709
16.3825
16.618
16.9201
17.1307
17.4268
17.6151
17.9137
18.0705
18.4107
14.7687
14.5866
14.466
14.3801
14.3677
14.3896
14.4394
14.5334
14.6185
14.7366
14.8308
14.9564
15.0476
15.1761
15.2605
15.393
15.4623
15.623
14.768
14.591
14.4349
14.2963
14.185
14.1044
14.0399
14.0066
13.9814
13.9785
13.9808
13.9917
14.0036
14.0299
14.0461
14.081
14.0967
14.1512
14.7665
14.594
14.432
14.282
14.143
14.0219
13.9115
13.8193
13.737
13.6698
13.6102
13.5633
13.5181
13.4872
13.4515
13.4343
13.4017
13.4009
14.7659
14.5945
14.4322
14.2803
14.1362
14.0032
13.8782
13.7644
13.6582
13.5629
13.4736
13.3952
13.3198
13.2561
13.1915
13.1408
13.0838
13.0451
14.7657
14.5943
14.4321
14.2798
14.1353
13.9999
13.8715
13.7518
13.6385
13.5337
13.4341
13.343
13.2557
13.1771
13.1003
13.0328
12.9647
12.9074
14.7657
14.5941
14.432
14.2794
14.1349
13.9989
13.8699
13.7485
13.6332
13.5249
13.422
13.3257
13.2338
13.1483
13.0663
12.9906
12.9172
12.8502
14.7657
14.5939
14.4318
14.279
14.1346
13.9983
13.8691
13.7472
13.6315
13.5223
13.4184
13.3203
13.227
13.139
13.055
12.9759
12.9002
12.8291
14.7657
14.5938
14.4317
14.2787
14.1342
13.9977
13.8686
13.7464
13.6307
13.5211
13.4171
13.3185
13.2248
13.136
13.0516
12.9714
12.8951
12.8227
14.7657
14.5937
14.4316
14.2785
14.1339
13.9973
13.8681
13.7458
13.63
13.5202
13.4161
13.3174
13.2236
13.1346
13.05
12.9696
12.8931
12.8204
14.7657
14.5937
14.4315
14.2783
14.1337
13.997
13.8677
13.7453
13.6294
13.5195
13.4154
13.3165
13.2227
13.1336
13.0489
12.9684
12.8918
12.819
14.7657
14.5937
14.4314
14.2782
14.1335
13.9968
13.8674
13.745
13.629
13.5191
13.4148
13.3159
13.222
13.1328
13.0481
12.9675
12.8909
12.818
14.7657
14.5937
14.4314
14.2782
14.1335
13.9967
13.8673
13.7448
13.6288
13.5189
13.4146
13.3156
13.2217
13.1325
13.0477
12.9671
12.8904
12.8174
14.7657
14.5937
14.4314
14.2782
14.1336
13.9968
13.8674
13.745
13.629
13.519
13.4148
13.3159
13.2219
13.1327
13.0479
12.9673
12.8907
12.8177
14.7657
14.5937
14.4315
14.2784
14.1337
13.997
13.8677
13.7453
13.6294
13.5196
13.4154
13.3166
13.2229
13.1338
13.0493
12.9689
12.8926
12.82
14.7657
14.5937
14.4316
14.2785
14.1341
13.9974
13.8685
13.7464
13.6312
13.522
13.419
13.3214
13.2293
13.1418
13.0595
12.981
12.9073
12.8368
14.7659
14.5937
14.4318
14.2788
14.1353
14.0002
13.8742
13.756
13.6463
13.5435
13.4485
13.3591
13.277
13.1992
13.1282
13.0601
12.9988
12.9386
14.7661
14.5928
14.4329
14.2844
14.1515
14.0321
13.9289
13.8375
13.7593
13.6894
13.6306
13.5769
13.5328
13.4905
13.4574
13.423
13.3988
13.3693
14.7641
14.5936
14.461
14.3603
14.3029
14.2767
14.2796
14.294
14.3202
14.3529
14.3959
14.4345
14.4824
14.5217
14.572
14.6089
14.6616
14.6939
14.757
14.6921
14.7579
14.9172
15.1828
15.4611
15.7475
16.0121
16.2723
16.5038
16.7361
16.9386
17.1507
17.331
17.531
17.6937
17.8889
18.036
14.9575
15.4344
16.5693
17.6884
18.7053
19.5678
20.3372
20.9969
21.6195
22.1661
22.719
23.2109
23.7401
24.2045
24.7329
25.1829
25.7252
26.1662
16.2579
20.9389
25.015
27.7588
29.7844
31.3586
32.7768
34.0585
35.3594
36.6165
37.9757
39.2975
40.762
42.1462
43.7184
45.1744
46.8846
48.3594
29.9428
47.2251
54.8705
58.6736
61.614
64.4323
67.5799
70.9796
74.7388
78.7151
82.9865
87.346
91.9071
96.4526
101.103
105.626
110.178
114.58
165.79
160.073
154.899
149.564
144.479
139.678
135.613
132.11
129.27
126.973
125.319
124.045
123.339
122.829
122.826
122.982
123.269
123.827
0.271956
0.317932
0.580448
0.822292
1.07465
1.35252
1.66283
2.00864
2.38678
2.79006
3.21009
3.63938
4.07198
4.50357
4.93093
5.35152
5.76291
6.16262
6.54775
6.91516
7.2613
7.58253
7.87469
8.1331
8.3513
8.52076
8.63155
8.6718
8.59934
8.37197
7.91548
8.14731
8.39246
8.85878
40.245
45.7815
43.7445
42.8434
42.0689
40.6966
45.2047
47.8156
51.5081
54.9394
58.7486
62.6197
66.7127
70.9509
75.3756
79.9718
84.7508
89.713
94.8626
100.203
105.738
111.47
117.401
123.536
129.876
136.424
143.18
150.147
157.325
164.715
172.316
180.129
188.151
196.382
204.819
213.46
222.299
231.336
240.562
249.976
259.567
269.333
279.263
289.352
299.587
309.965
320.469
331.095
341.826
352.655
363.564
374.544
385.576
396.649
407.741
418.838
429.916
440.952
451.92
462.792
473.545
484.159
494.642
505.056
515.333
525.456
535.426
545.226
554.843
564.26
573.462
582.436
591.167
599.644
607.851
615.779
623.411
630.742
637.753
644.44
650.786
656.787
662.429
667.708
672.611
677.138
681.274
685.011
688.333
691.239
693.711
695.742
697.285
698.09
699.082
699.869
699.691
699.084
697.904
696.346
694.402
692.02
689.189
685.919
682.209
678.064
673.495
668.492
663.044
657.158
650.839
644.094
636.928
629.351
621.373
613.006
604.263
595.16
585.715
575.95
565.89
555.565
545.011
534.277
523.498
513.577
507.307
501.938
496.484
490.858
485.072
479.148
473.111
466.986
460.797
454.565
448.307
442.041
435.773
429.449
423.04
416.535
409.797
402.27
394.102
365.748
1.29631
0.785215
0.790703
0.895893
1.05693
1.2616
1.50722
1.79025
2.10529
2.44578
2.80531
3.1785
3.56139
3.95129
4.34653
4.74612
5.14956
5.55663
5.96748
6.38257
6.80285
7.22963
7.66469
8.10961
8.56872
9.08442
9.66733
10.3628
11.2599
12.5387
13.6517
14.7689
17.1975
19.1672
22.6863
23.8475
24.318
24.9447
25.9327
26.9235
28.8229
30.4801
32.2712
34.0733
35.9556
37.8888
39.8925
41.9606
44.0991
46.3076
48.5884
50.9426
53.3713
55.8756
58.4564
61.1146
63.8508
66.6656
69.5593
72.5323
75.5846
78.7163
81.9271
85.2168
88.5846
92.0301
95.552
99.1496
102.821
106.566
110.381
114.266
118.217
122.234
126.312
130.449
134.642
138.889
143.185
147.527
151.91
156.331
160.785
165.267
169.773
174.296
178.83
183.37
187.909
192.44
196.954
201.445
205.904
210.327
214.711
219.064
223.407
227.792
232.149
236.447
240.686
244.859
248.96
252.983
256.923
260.774
264.531
268.188
271.742
275.186
278.516
281.727
284.814
287.775
290.603
293.296
295.849
298.259
300.523
302.637
304.598
306.4
308.039
309.512
310.816
311.945
312.894
313.661
314.345
314.866
315.113
315.181
315.043
314.752
314.304
313.676
312.863
311.868
310.69
309.328
307.783
306.054
304.137
302.034
299.747
297.276
294.623
291.79
288.781
285.6
282.249
278.735
275.064
271.243
267.281
263.187
258.974
254.661
250.296
246.071
242.485
239.131
235.774
232.367
228.909
225.408
221.875
218.321
214.758
211.195
207.643
204.113
200.611
197.133
193.671
190.231
186.829
183.496
180.575
176.214
2.68052
1.36238
1.21787
1.26138
1.38321
1.56022
1.78353
2.04724
2.34533
2.67139
3.01941
3.38447
3.76309
4.1532
4.55392
4.96523
5.38784
5.82304
6.27287
6.74022
7.22917
7.74529
8.29615
8.89212
9.5452
10.2445
11.0062
11.8396
12.7489
13.7232
14.7505
15.8523
17.1107
18.3473
19.6365
20.731
21.6971
22.7515
23.901
25.1796
26.5821
27.9989
29.4694
30.9869
32.5592
34.1843
35.8645
37.5997
39.391
41.2389
43.1443
45.1079
47.1301
49.2117
51.3532
53.555
55.8175
58.141
60.5259
62.9721
65.4798
68.0489
70.6792
73.3705
76.1223
78.9342
81.8053
84.7351
87.7224
90.7662
93.8652
97.0181
100.223
103.479
106.783
110.134
113.529
116.966
120.442
123.954
127.499
131.075
134.677
138.302
141.946
145.606
149.276
152.953
156.632
160.309
163.979
167.638
171.284
174.914
178.529
182.13
185.723
189.305
192.852
196.355
199.81
203.212
206.555
209.835
213.048
216.187
219.25
222.232
225.128
227.935
230.648
233.264
235.779
238.19
240.492
242.683
244.76
246.72
248.56
250.278
251.869
253.331
254.662
255.857
256.916
257.837
258.619
259.265
259.791
260.172
260.366
260.409
260.294
260.051
259.669
259.14
258.461
257.634
256.657
255.531
254.255
252.828
251.251
249.525
247.649
245.626
243.457
241.144
238.69
236.097
233.369
230.51
227.526
224.42
221.202
217.876
214.455
210.952
207.402
203.891
200.573
197.35
194.135
190.897
187.635
184.354
181.062
177.769
174.484
171.215
167.969
164.759
161.592
158.471
155.401
152.399
149.49
146.758
144.401
141.926
4.18772
1.99317
1.69151
1.68054
1.77923
1.94353
2.15793
2.41443
2.70688
3.02954
3.37721
3.74556
4.13147
4.53307
4.94966
5.38143
5.82936
6.29502
6.78072
7.28949
7.82518
8.39243
8.99628
9.64139
10.3306
11.0627
11.8372
12.6513
13.5023
14.374
15.2742
16.2198
17.2186
18.2648
19.3546
20.4391
21.5455
22.708
23.9313
25.2203
26.5523
27.9221
29.3358
30.7957
32.3045
33.8634
35.4735
37.1358
38.8509
40.6197
42.4429
44.3212
46.2551
48.2453
50.2924
52.3967
54.5589
56.7793
59.0583
61.3963
63.7934
66.2497
68.7653
71.3401
73.9739
76.6664
79.4172
82.2257
85.0912
88.0128
90.9896
94.0205
97.1039
100.239
103.423
106.654
109.931
113.252
116.613
120.013
123.448
126.915
130.411
133.933
137.478
141.04
144.618
148.206
151.8
155.398
158.994
162.586
166.17
169.744
173.307
176.855
180.387
183.893
187.363
190.789
194.168
197.493
200.76
203.963
207.098
210.159
213.143
216.045
218.86
221.584
224.214
226.744
229.173
231.495
233.708
235.809
237.794
239.661
241.406
243.028
244.524
245.89
247.124
248.225
249.191
250.019
250.711
251.267
251.69
251.955
252.053
252.009
251.824
251.499
251.033
250.422
249.666
248.765
247.718
246.526
245.19
243.709
242.084
240.317
238.408
236.359
234.173
231.851
229.396
226.812
224.101
221.269
218.32
215.259
212.092
208.828
205.477
202.054
198.585
195.118
191.719
188.361
185.007
181.642
178.264
174.88
171.497
168.124
164.77
161.442
158.145
154.891
151.691
148.552
145.484
142.508
139.654
137.004
134.678
132.486
5.66398
2.6264
2.16606
2.10295
2.17714
2.32876
2.53527
2.7861
3.07445
3.39487
3.7427
4.11406
4.50603
4.91675
5.34534
5.79174
6.2566
6.74107
7.24688
7.77622
8.33179
8.91662
9.53381
10.1859
10.8741
11.5976
12.3536
13.1376
13.9437
14.7804
15.6566
16.5796
17.5573
18.5915
19.6616
20.7642
21.9032
23.0845
24.311
25.5812
26.9032
28.2707
29.684
31.1446
32.654
34.2137
35.825
37.4888
39.2062
40.9782
42.8058
44.6901
46.632
48.6319
50.6907
52.8089
54.9874
57.2268
59.5279
61.891
64.3167
66.8055
69.3575
71.9731
74.6523
77.395
80.2012
83.0704
86.0022
88.996
92.051
95.1662
98.3403
101.572
104.86
108.202
111.596
115.041
118.532
122.069
125.648
129.265
132.918
136.603
140.316
144.054
147.811
151.585
155.371
159.165
162.961
166.757
170.548
174.329
178.097
181.845
185.567
189.257
192.908
196.512
200.064
203.559
206.99
210.352
213.639
216.846
219.968
223
225.937
228.774
231.506
234.131
236.642
239.038
241.313
243.466
245.492
247.388
249.152
250.782
252.273
253.625
254.834
255.899
256.818
257.591
258.217
258.696
259.022
259.171
259.17
259.019
258.715
258.261
257.656
256.899
255.991
254.931
253.72
252.36
250.851
249.195
247.393
245.446
243.356
241.127
238.759
236.256
233.622
230.858
227.971
224.964
221.841
218.61
215.278
211.852
208.344
204.767
201.144
197.504
193.881
190.272
186.663
183.049
179.431
175.816
172.211
168.626
165.068
161.547
158.069
154.647
151.29
148.007
144.813
141.727
138.784
136.055
133.616
131.325
7.05231
3.23318
2.61905
2.50468
2.5536
2.69148
2.88903
3.13298
3.41561
3.73147
4.07619
4.4462
4.83879
5.25207
5.68499
6.13721
6.60901
7.10114
7.61478
8.15144
8.71302
9.3016
9.91938
10.5684
11.25
11.9648
12.7127
13.4925
14.304
15.1497
16.034
16.9616
17.9361
18.9579
20.0236
21.131
22.2803
23.473
24.7108
25.9952
27.3281
28.7094
30.1399
31.6205
33.1526
34.7377
36.3769
38.0717
39.8232
41.6328
43.5014
45.4303
47.4204
49.4732
51.5899
53.7716
56.0195
58.3346
60.7179
63.1702
65.6925
68.2854
70.9496
73.6856
76.4938
79.3744
82.3276
85.3532
88.4509
91.6204
94.8609
98.1715
101.551
104.998
108.512
112.089
115.729
119.428
123.184
126.994
130.855
134.763
138.715
142.707
146.734
150.792
154.877
158.983
163.106
167.24
171.381
175.523
179.66
183.787
187.898
191.985
196.042
200.062
204.037
207.96
211.825
215.625
219.353
223.004
226.57
230.045
233.423
236.7
239.868
242.922
245.859
248.672
251.357
253.91
256.327
258.605
260.739
262.727
264.566
266.253
267.785
269.16
270.376
271.431
272.324
273.054
273.62
274.023
274.242
274.29
274.171
273.887
273.438
272.824
272.044
271.101
269.994
268.726
267.298
265.711
263.968
262.07
260.019
257.818
255.47
252.977
250.342
247.569
244.662
241.624
238.46
235.176
231.777
228.27
224.662
220.964
217.185
213.339
209.444
205.522
201.595
197.667
193.738
189.807
185.878
181.96
178.06
174.188
170.353
166.564
162.83
159.161
155.569
152.063
148.66
145.383
142.262
139.361
136.721
134.187
8.31233
3.79323
3.03411
2.86946
2.89243
3.01517
3.20201
3.437
3.71142
4.01956
4.3572
4.72103
5.10851
5.51784
5.94792
6.39829
6.86903
7.36069
7.87417
8.4107
8.97177
9.55907
10.1744
10.8197
11.4965
12.2062
12.95
13.7285
14.5428
15.3944
16.2856
17.2188
18.1961
19.2186
20.2861
21.3986
22.5564
23.7606
25.0126
26.3137
27.6654
29.0688
30.525
32.0354
33.6013
35.2243
36.9059
38.6477
40.4512
42.318
44.2497
46.2478
48.3138
50.4495
52.6564
54.9361
57.29
59.7197
62.2265
64.8118
67.4767
70.2224
73.0499
75.9601
78.9537
82.0311
85.1929
88.439
91.7695
95.1841
98.6821
102.263
105.925
109.667
113.488
117.385
121.357
125.399
129.51
133.687
137.924
142.22
146.568
150.965
155.406
159.886
164.398
168.939
173.5
178.078
182.664
187.253
191.838
196.411
200.964
205.491
209.983
214.431
218.828
223.166
227.437
231.634
235.748
239.773
243.7
247.523
251.235
254.829
258.298
261.636
264.838
267.898
270.81
273.571
276.175
278.619
280.899
283.012
284.954
286.722
288.314
289.727
290.961
292.012
292.88
293.565
294.066
294.373
294.484
294.411
294.154
293.713
293.088
292.281
291.293
290.126
288.782
287.263
285.572
283.712
281.684
279.493
277.14
274.63
271.966
269.151
266.188
263.084
259.841
256.464
252.96
249.333
245.591
241.741
237.791
233.75
229.63
225.444
221.206
216.936
212.65
208.357
204.061
199.766
195.48
191.21
186.967
182.759
178.598
174.492
170.451
166.486
162.608
158.83
155.168
151.645
148.291
145.157
142.26
139.422
9.41553
4.29166
3.39978
3.18628
3.18326
3.28927
3.46354
3.68748
3.95126
4.24884
4.57605
4.92976
5.30765
5.70806
6.12998
6.57295
7.03703
7.52267
8.03067
8.56214
9.11848
9.70121
10.312
10.9526
11.6247
12.33
13.07
13.8462
14.6599
15.5128
16.4066
17.3424
18.3218
19.3469
20.4185
21.5374
22.7046
23.9213
25.1889
26.5089
27.8829
29.3124
30.7991
32.3448
33.9511
35.6199
37.353
39.1525
41.0201
42.958
44.968
47.0523
49.213
51.452
53.7714
56.1734
58.6598
61.2326
63.8937
66.6448
69.4877
72.4238
75.4547
78.5815
81.8054
85.1271
88.5473
92.0664
95.6844
99.4013
103.216
107.129
111.138
115.242
119.439
123.726
128.102
132.562
137.104
141.724
146.417
151.179
156.005
160.89
165.827
170.811
175.834
180.892
185.975
191.077
196.191
201.308
206.42
211.518
216.593
221.637
226.639
231.591
236.484
241.308
246.054
250.714
255.278
259.738
264.085
268.312
272.409
276.369
280.185
283.85
287.356
290.699
293.871
296.868
299.684
302.316
304.759
307.01
309.065
310.922
312.577
314.029
315.275
316.315
317.149
317.774
318.189
318.382
318.369
318.149
317.723
317.092
316.259
315.223
313.989
312.559
310.937
309.125
307.128
304.948
302.591
300.059
297.358
294.49
291.461
288.274
284.936
281.45
277.823
274.059
270.165
266.148
262.014
257.772
253.43
248.999
244.488
239.912
235.284
230.62
225.935
221.241
216.544
211.852
207.174
202.519
197.897
193.319
188.796
184.338
179.955
175.658
171.46
167.373
163.415
159.608
155.979
152.571
149.38
146.208
10.3452
4.71932
3.70942
3.44764
3.42013
3.50853
3.66874
3.87989
4.13114
4.41608
4.73049
5.07142
5.43674
5.82499
6.23528
6.66729
7.12115
7.59734
8.09612
8.61888
9.16707
9.7422
10.3459
10.9797
11.6455
12.345
13.0798
13.8516
14.6622
15.5131
16.4062
17.3419
18.3223
19.3501
20.4265
21.5526
22.73
23.9603
25.2451
26.586
27.9845
29.4431
30.9642
32.5499
34.2024
35.9239
37.7169
39.5836
41.5264
43.5479
45.6506
47.8371
50.1099
52.4716
54.925
57.4725
60.1167
62.8601
65.705
68.6539
71.7088
74.8718
78.1447
81.5292
85.0266
88.6383
92.3649
96.2072
100.165
104.239
108.428
112.732
117.148
121.676
126.313
131.057
135.904
140.85
145.893
151.027
156.247
161.548
166.923
172.367
177.873
183.433
189.039
194.685
200.36
206.057
211.766
217.477
223.182
228.869
234.529
240.151
245.723
251.236
256.679
262.042
267.313
272.484
277.543
282.48
287.286
291.952
296.467
300.824
305.013
309.028
312.859
316.501
319.947
323.19
326.227
329.05
331.658
334.044
336.207
338.144
339.851
341.326
342.569
343.578
344.353
344.895
345.192
345.252
345.08
344.677
344.046
343.187
342.104
340.8
339.278
337.543
335.598
333.449
331.1
328.557
325.824
322.907
319.811
316.541
313.103
309.502
305.745
301.836
297.783
293.592
289.269
284.822
280.258
275.587
270.816
265.956
261.019
256.016
250.963
245.873
240.761
235.638
230.516
225.402
220.308
215.243
210.219
205.247
200.337
195.502
190.752
186.098
181.554
177.133
172.852
168.732
164.798
161.083
157.573
154.053
11.0942
5.07125
3.95984
3.65346
3.60204
3.67233
3.81747
4.01465
4.25209
4.52305
4.82326
5.14988
5.50096
5.87516
6.27153
6.6902
7.13166
7.59687
8.08633
8.60059
9.14079
9.70832
10.3047
10.9316
11.5908
12.2839
13.0128
13.7793
14.5851
15.432
16.3217
17.2561
18.2371
19.2667
20.3468
21.4792
22.6658
23.9087
25.2101
26.5723
27.998
29.4899
31.0503
32.6822
34.3884
36.1717
38.0348
39.9807
42.0124
44.1329
46.3453
48.6529
51.0588
53.5662
56.1785
58.8987
61.7301
64.6757
67.7385
70.9213
74.2268
77.6576
81.2159
84.9037
88.7228
92.6745
96.76
100.98
105.335
109.824
114.447
119.203
124.09
129.107
134.25
139.516
144.902
150.403
156.014
161.731
167.546
173.454
179.446
185.517
191.657
197.858
204.111
210.406
216.734
223.083
229.444
235.805
242.155
248.481
254.773
261.018
267.203
273.317
279.348
285.283
291.111
296.82
302.398
307.834
313.118
318.238
323.185
327.947
332.517
336.884
341.041
344.98
348.693
352.175
355.419
358.421
361.175
363.679
365.928
367.92
369.652
371.122
372.33
373.275
373.957
374.373
374.522
374.408
374.034
373.405
372.523
371.392
370.014
368.394
366.537
364.449
362.135
359.602
356.855
353.902
350.748
347.401
343.867
340.152
336.264
332.209
327.994
323.626
319.112
314.458
309.674
304.765
299.741
294.611
289.382
284.067
278.676
273.222
267.718
262.18
256.62
251.052
245.487
239.936
234.409
228.919
223.477
218.094
212.783
207.555
202.421
197.394
192.486
187.713
183.089
178.636
174.374
170.332
166.484
162.61
11.663
5.3468
4.15183
3.8057
3.73141
3.78362
3.91317
4.09568
4.31862
4.57493
4.86021
5.17174
5.50826
5.86945
6.25407
6.66149
7.09172
7.54495
8.02142
8.52269
9.05034
9.60587
10.1909
10.807
11.4559
12.1396
12.8599
13.6186
14.4179
15.2598
16.1464
17.0799
18.0625
19.0964
20.1841
21.3278
22.5301
23.7935
25.1207
26.5142
27.9761
29.5081
31.116
32.8043
34.5762
36.4352
38.3846
40.4277
42.5681
44.8097
47.1561
49.6113
52.1792
54.8636
57.6685
60.5977
63.6551
66.8443
70.1689
73.6322
77.2375
80.9876
84.8853
88.9328
93.132
97.4845
101.992
106.654
111.471
116.443
121.569
126.847
132.276
137.852
143.572
149.433
155.428
161.554
167.804
174.172
180.65
187.23
193.904
200.663
207.498
214.397
221.351
228.348
235.377
242.425
249.48
256.53
263.561
270.56
277.513
284.407
291.228
297.962
304.595
311.115
317.507
323.759
329.858
335.792
341.548
347.114
352.48
357.633
362.565
367.265
371.724
375.933
379.886
383.576
386.995
390.14
393.005
395.586
397.88
399.885
401.598
403.018
404.144
404.976
405.515
405.759
405.71
405.369
404.741
403.832
402.647
401.189
399.464
397.476
395.232
392.74
390.006
387.039
383.846
380.436
376.816
372.995
368.981
364.782
360.405
355.86
351.153
346.293
341.286
336.143
330.869
325.475
319.967
314.355
308.649
302.859
296.997
291.074
285.106
279.106
273.087
267.063
261.047
255.05
249.085
243.162
237.294
231.494
225.774
220.145
214.62
209.21
203.93
198.793
193.815
189.016
184.412
180.029
175.833
171.605
12.062
5.54963
4.28903
3.90862
3.81299
3.84765
3.96161
4.12925
4.33741
4.57943
4.85191
5.15119
5.47505
5.82173
6.19048
6.58188
6.99635
7.43447
7.89733
8.38612
8.902
9.44637
10.0208
10.6271
11.2671
11.9428
12.6563
13.4096
14.2052
15.0453
15.9325
16.8692
17.8581
18.9021
20.0038
21.1662
22.3922
23.6853
25.0486
26.4844
27.9949
29.5831
31.2569
33.0205
34.8788
36.837
38.8988
41.0679
43.3487
45.7457
48.2633
50.9064
53.6794
56.5871
59.634
62.8246
66.1634
69.6547
73.3024
77.1105
81.0825
85.2215
89.5305
94.0118
98.6674
103.499
108.507
113.691
119.053
124.59
130.301
136.184
142.235
148.452
154.829
161.362
168.044
174.868
181.829
188.916
196.122
203.437
210.851
218.353
225.932
233.577
241.273
249.01
256.772
264.547
272.321
280.078
287.805
295.486
303.105
310.648
318.1
325.445
332.668
339.755
346.69
353.461
360.052
366.45
372.643
378.616
384.359
389.859
395.106
400.088
404.798
409.224
413.361
417.201
420.737
423.965
426.879
429.476
431.753
433.707
435.338
436.643
437.623
438.277
438.609
438.618
438.308
437.671
436.726
435.476
433.926
432.081
429.948
427.534
424.847
421.896
418.689
415.237
411.549
407.634
403.503
399.166
394.632
389.911
385.012
379.944
374.716
369.336
363.814
358.158
352.376
346.477
340.47
334.363
328.167
321.892
315.55
309.153
302.714
296.248
289.768
283.288
276.822
270.38
263.976
257.623
251.331
245.115
238.987
232.958
227.042
221.249
215.595
210.092
204.756
199.604
194.653
189.922
185.375
180.798
12.3071
5.68698
4.37705
3.96794
3.85293
3.87103
3.9701
4.12465
4.32088
4.55049
4.80809
5.09116
5.3986
5.72969
6.0844
6.46251
6.86431
7.29044
7.74184
8.21969
8.72535
9.26036
9.82644
10.4255
11.0596
11.731
12.442
13.1952
13.9932
14.8386
15.7345
16.6837
17.6897
18.7562
19.8863
21.0827
22.3491
23.6884
25.1012
26.5949
28.1759
29.85
31.6222
33.4976
35.4818
37.5805
39.7989
42.1418
44.6144
47.2222
49.9705
52.8647
55.9103
59.1124
62.4764
66.0074
69.7102
73.5895
77.6498
81.8949
86.3286
90.9541
95.7739
100.79
106.004
111.418
117.03
122.841
128.849
135.053
141.449
148.034
154.804
161.753
168.875
176.165
183.613
191.211
198.952
206.823
214.816
222.918
231.119
239.404
247.761
256.177
264.637
273.126
281.629
290.132
298.618
307.07
315.474
323.811
332.067
340.223
348.264
356.174
363.936
371.533
378.952
386.176
393.192
399.983
406.538
412.841
418.881
424.646
430.124
435.304
440.176
444.733
448.965
452.866
456.43
459.651
462.525
465.049
467.221
469.037
470.498
471.604
472.352
472.746
472.789
472.49
471.828
470.824
469.488
467.824
465.838
463.538
460.932
458.029
454.839
451.371
447.637
443.648
439.415
434.951
430.267
425.375
420.285
415.009
409.558
403.941
398.169
392.25
386.194
380.011
373.708
367.297
360.784
354.178
347.491
340.731
333.91
327.041
320.136
313.211
306.278
299.352
292.445
285.569
278.739
271.965
265.262
258.641
252.115
245.696
239.397
233.23
227.208
221.345
215.654
210.153
204.855
199.778
194.883
189.966
12.393
5.75832
4.41936
3.98894
3.85794
3.86334
3.95051
4.09163
4.27262
4.48682
4.7302
5.00029
5.29542
5.61477
5.95809
6.32545
6.7173
7.13436
7.57769
8.04857
8.54859
9.07952
9.64327
10.242
10.8781
11.5541
12.2729
13.0379
13.8522
14.7185
15.6402
16.6208
17.6637
18.7715
19.9466
21.1955
22.5238
23.9371
25.4414
27.042
28.745
30.5568
32.4835
34.5312
36.7069
39.0171
41.4674
44.0643
46.8144
49.7241
52.7998
56.0476
59.4733
63.0826
66.8813
70.8745
75.0673
79.4644
84.0698
88.8873
93.92
99.1703
104.64
110.331
116.242
122.374
128.726
135.294
142.077
149.071
156.27
163.67
171.264
179.045
187.005
195.134
203.424
211.863
220.441
229.145
237.964
246.883
255.89
264.969
274.105
283.284
292.489
301.705
310.914
320.1
329.245
338.334
347.346
356.267
365.077
373.759
382.297
390.672
398.869
406.87
414.659
422.222
429.542
436.605
443.398
449.905
456.116
462.017
467.597
472.846
477.754
482.312
486.512
490.348
493.815
496.907
499.62
501.953
503.902
505.466
506.646
507.444
507.855
507.885
507.554
506.825
505.727
504.268
502.455
500.296
497.797
494.968
491.819
488.361
484.605
480.562
476.247
471.671
466.848
461.792
456.517
451.035
445.36
439.504
433.479
427.296
420.964
414.496
407.899
401.185
394.362
387.439
380.425
373.328
366.158
358.924
351.638
344.313
336.96
329.594
322.228
314.875
307.549
300.262
293.027
285.855
278.761
271.756
264.853
258.064
251.402
244.877
238.503
232.294
226.261
220.421
214.785
209.371
204.138
198.898
12.3705
5.77125
4.42264
3.98128
3.83902
3.8313
3.90397
4.03168
4.20111
4.4046
4.63785
4.89837
5.18477
5.49639
5.83306
6.19502
6.58287
6.99755
7.44033
7.91283
8.41709
8.95581
9.53066
10.1441
10.7989
11.4983
12.2452
13.0423
13.8909
14.797
15.7659
16.8025
17.9118
19.0997
20.3719
21.7336
23.1913
24.7516
26.422
28.2093
30.1205
32.1631
34.3444
36.6719
39.1535
41.7964
44.6081
47.5964
50.7694
54.1349
57.6999
61.4704
65.4522
69.6505
74.0706
78.7171
83.5941
88.7054
94.0538
99.6415
105.47
111.54
117.852
124.403
131.194
138.219
145.477
152.962
160.669
168.591
176.721
185.051
193.573
202.275
211.148
220.181
229.361
238.676
248.113
257.657
267.295
277.011
286.79
296.616
306.473
316.344
326.212
336.06
345.871
355.626
365.309
374.901
384.383
393.739
402.951
411.999
420.868
429.54
437.998
446.225
454.206
461.924
469.366
476.517
483.363
489.89
496.087
501.942
507.443
512.581
517.346
521.731
525.729
529.333
532.538
535.34
537.737
539.726
541.306
542.477
543.238
543.597
543.544
543.106
542.243
540.99
539.353
537.339
534.956
532.212
529.116
525.681
521.917
517.837
513.454
508.781
503.833
498.625
493.172
487.489
481.593
475.497
469.217
462.765
456.156
449.4
442.508
435.492
428.36
421.124
413.793
406.374
398.878
391.31
383.681
376
368.277
360.524
352.754
344.979
337.213
329.468
321.757
314.093
306.488
298.953
291.501
284.144
276.896
269.767
262.77
255.916
249.216
242.683
236.329
230.169
224.213
218.478
212.924
207.384
12.2897
5.75854
4.40522
3.95114
3.79537
3.7771
3.8406
3.9601
4.12215
4.31941
4.54775
4.80487
5.08969
5.40208
5.74218
6.1102
6.50707
6.93412
7.39298
7.88546
8.41328
8.97735
9.58131
10.2295
10.926
11.6751
12.4813
13.3499
14.2864
15.296
16.3846
17.5588
18.8255
20.1923
21.6667
23.2565
24.9696
26.8149
28.8011
30.937
33.2313
35.6929
38.3305
41.1523
44.1659
47.3785
50.8001
54.4399
58.3074
62.4137
66.7656
71.3654
76.2164
81.3215
86.6836
92.3047
98.1861
104.328
110.731
117.394
124.314
131.488
138.912
146.583
154.493
162.636
171.006
179.593
188.389
197.384
206.568
215.93
225.457
235.138
244.959
254.908
264.97
275.13
285.375
295.689
306.056
316.461
326.888
337.32
347.74
358.132
368.478
378.761
388.964
399.069
409.059
418.917
428.624
438.164
447.519
456.672
465.606
474.305
482.753
490.933
498.832
506.433
513.724
520.691
527.322
533.602
539.522
545.071
550.239
555.015
559.393
563.365
566.926
570.07
572.792
575.091
576.963
578.409
579.426
580.017
580.177
579.936
579.258
578.154
576.64
574.725
572.415
569.72
566.649
563.21
559.417
555.281
550.816
546.036
540.954
535.586
529.948
524.057
517.93
511.583
505.035
498.3
491.396
484.336
477.136
469.805
462.357
454.8
447.146
439.404
431.585
423.695
415.743
407.735
399.679
391.585
383.461
375.32
367.172
359.03
350.906
342.812
334.76
326.761
318.828
310.971
303.202
295.535
287.98
280.548
273.252
266.1
259.106
252.279
245.631
239.176
232.922
226.888
221.033
215.218
12.1166
5.71124
4.3608
3.90204
3.74246
3.72155
3.78359
3.90352
4.06873
4.27167
4.5083
4.77663
5.07565
5.40472
5.76279
6.15236
6.57553
7.03462
7.53231
8.07173
8.65662
9.29202
9.98179
10.731
11.5455
12.4315
13.396
14.4467
15.5917
16.8392
18.1977
19.6766
21.2858
23.0357
24.9368
26.9999
29.2357
31.6552
34.2693
37.0886
40.1231
43.3826
46.8762
50.6126
54.5991
58.8428
63.3513
68.1322
73.1923
78.5393
84.176
90.0984
96.304
102.79
109.553
116.59
123.895
131.463
139.288
147.362
155.679
164.23
173.006
181.997
191.193
200.583
210.157
219.903
229.808
239.861
250.049
260.358
270.777
281.291
291.886
302.549
313.266
324.022
334.802
345.592
356.378
367.144
377.875
388.556
399.171
409.705
420.143
430.467
440.663
450.715
460.606
470.322
479.845
489.161
498.253
507.107
515.706
524.037
532.084
539.833
547.271
554.384
561.161
567.589
573.657
579.355
584.67
589.595
594.122
598.241
601.946
605.229
608.09
610.522
612.519
614.087
615.213
615.91
616.166
615.998
615.406
614.358
612.894
611.01
608.715
606.018
602.927
599.453
595.605
591.395
586.836
581.942
576.727
571.206
565.394
559.308
552.966
546.385
539.583
532.58
525.394
518.042
510.54
502.906
495.151
487.29
479.332
471.287
463.166
454.977
446.731
438.434
430.093
421.713
413.302
404.867
396.417
387.961
379.511
371.076
362.669
354.299
345.979
337.719
329.528
321.418
313.401
305.487
297.688
290.014
282.476
275.083
267.846
260.773
253.878
247.17
240.658
234.362
228.24
222.189
11.9243
5.63522
4.30451
3.85493
3.70315
3.69189
3.76587
3.89958
4.07937
4.29895
4.55614
4.84999
5.18064
5.54934
5.95821
6.40957
6.90684
7.4542
8.05652
8.71947
9.4496
10.2546
11.1424
12.1214
13.201
14.3917
15.7048
17.1526
18.7479
20.5038
22.4339
24.5517
26.8713
29.4068
32.1721
35.1803
38.4439
41.9746
45.7834
49.8802
54.2723
58.9659
63.9661
69.2776
74.9021
80.8395
87.0897
93.6563
100.535
107.732
115.219
122.986
131.022
139.316
147.856
156.63
165.625
174.83
184.233
193.82
203.579
213.499
223.566
233.769
244.096
254.533
265.07
275.693
286.392
297.154
307.968
318.822
329.703
340.601
351.503
362.397
373.272
384.115
394.916
405.662
416.34
426.939
437.446
447.848
458.133
468.288
478.3
488.156
497.842
507.345
516.652
525.749
534.622
543.258
551.644
559.765
567.61
575.164
582.415
589.351
595.96
602.229
608.15
613.712
618.904
623.717
628.141
632.169
635.796
639.013
641.811
644.186
646.144
647.672
648.759