/*--------------------------------*- C++ -*----------------------------------*\
  =========                 |
  \\      /  F ield         | OpenFOAM: The Open Source CFD Toolbox
   \\    /   O peration     | Website:  https://openfoam.org
    \\  /    A nd           | Version:  8
     \\/     M anipulation  |
\*---------------------------------------------------------------------------*/
FoamFile
{
    version     2.0;
    format      ascii;
    class       volScalarField;
    location    "230";
    object      k;
}
// * * * * * * * * * * * * * * * * * * * * * * * * * * * * * * * * * * * * * //

dimensions      [0 2 -2 0 0 0 0];

internalField   nonuniform List<scalar> 
12225
(
0.362814
0.34399
0.327748
0.309814
0.295406
0.283475
0.275522
0.270281
0.27034
0.271873
0.276068
0.280661
0.28987
0.295839
0.306597
0.313358
0.324082
0.333976
0.440186
0.468698
0.461605
0.448369
0.450348
0.45831
0.474566
0.498511
0.524419
0.552085
0.580769
0.606128
0.633863
0.653854
0.679754
0.693222
0.717434
0.728313
0.39054
0.417874
0.420232
0.416827
0.411628
0.407803
0.40802
0.410035
0.414567
0.421383
0.430737
0.4397
0.451187
0.461147
0.472843
0.483573
0.493484
0.506103
0.377546
0.386982
0.391406
0.391343
0.390221
0.387896
0.385663
0.384079
0.382884
0.382896
0.383387
0.384322
0.386299
0.388466
0.390911
0.394254
0.396512
0.401009
0.374562
0.37609
0.378412
0.378666
0.378263
0.377205
0.375489
0.373737
0.37201
0.370455
0.369259
0.368105
0.367381
0.366805
0.366443
0.366337
0.366349
0.366707
0.373814
0.37271
0.372645
0.372384
0.371761
0.370817
0.369553
0.368082
0.366571
0.364976
0.363528
0.362063
0.360755
0.359529
0.358397
0.357427
0.35644
0.355784
0.373782
0.371742
0.370386
0.369287
0.368234
0.367114
0.365915
0.364587
0.363238
0.361808
0.360422
0.359024
0.357678
0.356383
0.355121
0.353967
0.352794
0.351804
0.37382
0.37156
0.369634
0.367977
0.366501
0.365108
0.363775
0.362429
0.361108
0.359766
0.358451
0.357144
0.355864
0.354623
0.353402
0.35225
0.351099
0.350053
0.373832
0.371553
0.369449
0.367525
0.365777
0.364154
0.362645
0.361199
0.359817
0.358473
0.35717
0.355903
0.354668
0.353475
0.352308
0.351196
0.350098
0.349073
0.373831
0.37156
0.369418
0.367405
0.365529
0.363773
0.362133
0.360585
0.359122
0.357728
0.356395
0.355118
0.353889
0.35271
0.35157
0.350482
0.34942
0.348421
0.373829
0.37156
0.369413
0.367378
0.365458
0.363645
0.361937
0.360324
0.358799
0.357353
0.355979
0.354672
0.353425
0.352236
0.351094
0.350009
0.348959
0.347969
0.373828
0.371558
0.369409
0.36737
0.365439
0.363609
0.361875
0.360234
0.358677
0.357202
0.3558
0.354468
0.3532
0.351995
0.350842
0.349748
0.348695
0.347701
0.373827
0.371556
0.369405
0.367365
0.36543
0.363593
0.361851
0.360197
0.358626
0.357134
0.355716
0.354368
0.353084
0.351864
0.3507
0.349594
0.348535
0.347532
0.373826
0.371555
0.369401
0.367359
0.365422
0.363583
0.361837
0.360178
0.3586
0.357101
0.355674
0.354317
0.353024
0.351794
0.350622
0.349506
0.34844
0.347427
0.373826
0.371553
0.369398
0.367355
0.365416
0.363575
0.361826
0.360164
0.358584
0.357081
0.355651
0.354289
0.352993
0.351758
0.35058
0.349458
0.348388
0.347368
0.373826
0.371552
0.369396
0.367351
0.36541
0.363567
0.361817
0.360153
0.358572
0.357067
0.355634
0.354271
0.352971
0.351734
0.350554
0.349429
0.348356
0.347333
0.373825
0.371551
0.369394
0.367348
0.365406
0.363562
0.36181
0.360145
0.358562
0.357055
0.355621
0.354256
0.352955
0.351716
0.350534
0.349408
0.348333
0.347308
0.373825
0.371551
0.369393
0.367346
0.365403
0.363558
0.361805
0.360139
0.358555
0.357047
0.355612
0.354245
0.352943
0.351703
0.35052
0.349392
0.348316
0.34729
0.373825
0.37155
0.369393
0.367346
0.365402
0.363557
0.361804
0.360137
0.358552
0.357043
0.355608
0.35424
0.352938
0.351697
0.350513
0.349384
0.348308
0.34728
0.373825
0.371551
0.369393
0.367347
0.365404
0.363559
0.361806
0.36014
0.358555
0.357047
0.355611
0.354244
0.352942
0.3517
0.350517
0.349388
0.348312
0.347285
0.373825
0.371551
0.369395
0.367349
0.365407
0.363563
0.361811
0.360146
0.358562
0.357055
0.355621
0.354255
0.352955
0.351715
0.350534
0.349407
0.348333
0.347307
0.373826
0.371552
0.369397
0.367352
0.365412
0.363571
0.361822
0.360161
0.358583
0.357083
0.355656
0.354298
0.353006
0.351775
0.350602
0.349483
0.348417
0.347398
0.373826
0.371554
0.369399
0.367359
0.365429
0.363602
0.361875
0.36024
0.358691
0.35722
0.355823
0.354493
0.353227
0.352018
0.350866
0.349763
0.348711
0.3477
0.373828
0.371551
0.369412
0.367417
0.365556
0.363819
0.362189
0.360651
0.359189
0.357793
0.356456
0.355171
0.353936
0.352745
0.3516
0.350495
0.349436
0.34841
0.373823
0.371554
0.369604
0.367893
0.366339
0.364892
0.363495
0.362122
0.360761
0.359413
0.358081
0.35677
0.355488
0.354238
0.353029
0.351855
0.350734
0.349645
0.373788
0.371991
0.371113
0.370266
0.36936
0.368311
0.367048
0.36563
0.364121
0.362575
0.36103
0.359522
0.358073
0.356682
0.355381
0.354141
0.353009
0.351924
0.374355
0.375572
0.377775
0.377858
0.377288
0.375886
0.373835
0.371641
0.369505
0.367482
0.365664
0.364084
0.36271
0.361535
0.36061
0.359818
0.359289
0.358801
0.379125
0.394296
0.398249
0.396573
0.392538
0.387603
0.383646
0.380448
0.378268
0.376853
0.376497
0.376741
0.377415
0.378691
0.380441
0.382422
0.384827
0.387138
0.408394
0.42754
0.422416
0.411056
0.402226
0.397924
0.398626
0.400964
0.40607
0.413056
0.421
0.42983
0.438837
0.448192
0.457309
0.466553
0.475324
0.484183
0.36605
0.353416
0.341988
0.33021
0.318982
0.308382
0.299411
0.291671
0.285404
0.280334
0.276682
0.273867
0.272312
0.271174
0.271211
0.271473
0.272189
0.27339
0.000932219
0.00498628
0.00909334
0.0128656
0.0167933
0.0211204
0.0259613
0.0313704
0.0373071
0.0436607
0.050302
0.0571083
0.0639817
0.0708424
0.0776283
0.0842817
0.090749
0.0969699
0.10288
0.108406
0.113466
0.117971
0.121833
0.124959
0.127275
0.128727
0.129187
0.128803
0.127388
0.125832
0.124566
0.128604
0.132791
0.136155
0.133024
0.138378
0.141362
0.14447
0.145826
0.146282
0.157061
0.162622
0.170895
0.178291
0.186377
0.194405
0.202716
0.211137
0.219749
0.22851
0.237438
0.246526
0.255775
0.265185
0.274754
0.284483
0.29437
0.304414
0.314612
0.324963
0.335463
0.346111
0.356901
0.36783
0.378893
0.390086
0.401401
0.412834
0.424377
0.436025
0.447768
0.4596
0.471511
0.483494
0.495537
0.507634
0.519771
0.531941
0.54413
0.556331
0.568528
0.580714
0.592872
0.604995
0.617064
0.629073
0.641
0.652838
0.664566
0.676171
0.687631
0.698926
0.710033
0.720929
0.731595
0.742016
0.752207
0.762239
0.772037
0.781599
0.790925
0.800006
0.808832
0.817393
0.82568
0.833684
0.841395
0.848809
0.855914
0.862707
0.869177
0.875322
0.881132
0.886606
0.891733
0.896513
0.900937
0.905006
0.908713
0.912058
0.915034
0.917636
0.919853
0.921687
0.923124
0.924161
0.924761
0.924707
0.925173
0.924697
0.923844
0.922564
0.920778
0.918643
0.916166
0.913292
0.910063
0.906442
0.90244
0.898059
0.893307
0.888184
0.882668
0.876766
0.870479
0.863808
0.856756
0.849328
0.841527
0.833358
0.824828
0.815945
0.806719
0.797162
0.78729
0.777124
0.766688
0.756015
0.745191
0.734677
0.727225
0.721407
0.715564
0.709541
0.703337
0.696969
0.690459
0.68383
0.677103
0.670298
0.663431
0.65652
0.649567
0.642529
0.635354
0.62804
0.620448
0.612017
0.602883
0.572777
0.00445852
0.016514
0.0244396
0.0304464
0.0358363
0.0412082
0.0468818
0.0529813
0.0595046
0.066378
0.0735028
0.0807816
0.0881343
0.0954978
0.102824
0.110072
0.117202
0.124172
0.130934
0.137433
0.143608
0.149393
0.154726
0.159557
0.163855
0.167618
0.170944
0.174155
0.177903
0.183501
0.192788
0.201682
0.209554
0.217682
0.224335
0.22975
0.239373
0.251989
0.26621
0.283428
0.296803
0.308683
0.321405
0.334483
0.347999
0.361848
0.376035
0.390538
0.40536
0.420495
0.435947
0.451715
0.467801
0.484207
0.500933
0.517981
0.535352
0.553046
0.571062
0.589399
0.608057
0.627033
0.646324
0.665925
0.685833
0.706043
0.726546
0.747337
0.768407
0.789748
0.811348
0.833198
0.855285
0.877597
0.900119
0.922838
0.945737
0.968802
0.992013
1.01535
1.03881
1.06235
1.08596
1.10963
1.13332
1.15702
1.1807
1.20433
1.22791
1.25138
1.27474
1.29793
1.32093
1.34371
1.36621
1.38837
1.41015
1.43144
1.45237
1.47299
1.49326
1.51318
1.53273
1.55187
1.5706
1.5889
1.60674
1.62411
1.641
1.65738
1.67325
1.68858
1.70337
1.7176
1.73125
1.74432
1.7568
1.76867
1.77992
1.79055
1.80054
1.80989
1.81856
1.82657
1.83389
1.84053
1.84647
1.85171
1.85637
1.86022
1.86343
1.86586
1.86732
1.86804
1.86811
1.86738
1.866
1.86385
1.86093
1.85724
1.85277
1.84751
1.84145
1.83459
1.82693
1.81846
1.80917
1.79908
1.78817
1.77646
1.76394
1.75063
1.73654
1.72168
1.70608
1.68976
1.67276
1.65511
1.6369
1.61833
1.59978
1.58104
1.56186
1.54227
1.52234
1.50213
1.4817
1.4611
1.44041
1.41966
1.39892
1.37821
1.35758
1.33696
1.31632
1.29576
1.27513
1.25448
1.23388
1.18914
0.00922928
0.0276979
0.0380706
0.0458239
0.0527015
0.0593555
0.0661082
0.0731109
0.0804052
0.0879653
0.0957335
0.103645
0.111645
0.119689
0.127746
0.135795
0.143816
0.151789
0.159697
0.167516
0.175231
0.182831
0.190323
0.197746
0.205183
0.212779
0.220745
0.229369
0.238967
0.249758
0.26154
0.273272
0.284927
0.296766
0.308773
0.321492
0.336278
0.352187
0.368985
0.386012
0.402394
0.418748
0.435474
0.452602
0.470148
0.488099
0.506447
0.525187
0.544316
0.563833
0.583738
0.604031
0.624713
0.645785
0.667247
0.689101
0.711345
0.733979
0.757003
0.780412
0.804206
0.828381
0.852931
0.877853
0.903139
0.928782
0.954774
0.981107
1.00777
1.03475
1.06203
1.08961
1.11747
1.14559
1.17395
1.20254
1.23134
1.26033
1.28948
1.31878
1.34821
1.37773
1.40732
1.43696
1.46663
1.49629
1.52591
1.55546
1.58492
1.61426
1.64344
1.67242
1.70117
1.72967
1.75787
1.78574
1.81326
1.84042
1.86719
1.89356
1.9195
1.94498
1.96998
1.99446
2.0184
2.04178
2.06457
2.08675
2.10829
2.12918
2.1494
2.16892
2.18773
2.20581
2.22315
2.23973
2.25553
2.27054
2.28475
2.29815
2.31072
2.32245
2.33332
2.34332
2.35245
2.36068
2.36803
2.37449
2.38008
2.38473
2.38845
2.39118
2.39274
2.39333
2.39304
2.39184
2.38968
2.38655
2.38244
2.37733
2.37123
2.36412
2.35599
2.34685
2.33669
2.3255
2.31328
2.30004
2.28577
2.27049
2.25419
2.23689
2.21861
2.19937
2.17919
2.15811
2.13617
2.11342
2.08996
2.06598
2.04168
2.01695
1.99172
1.96602
1.93992
1.91349
1.88681
1.85996
1.83302
1.80603
1.77909
1.75224
1.72554
1.699
1.67265
1.64657
1.62074
1.59537
1.57008
1.53026
0.0144337
0.0380481
0.0506979
0.0599529
0.0679863
0.0755866
0.0831324
0.0908146
0.0987138
0.106842
0.115174
0.12367
0.132293
0.141012
0.149809
0.158674
0.167603
0.176596
0.185656
0.194789
0.204009
0.213337
0.222816
0.232507
0.242502
0.252915
0.263879
0.275525
0.287951
0.30116
0.315003
0.32921
0.343757
0.358733
0.374247
0.390477
0.407604
0.425451
0.443867
0.462634
0.48161
0.500867
0.520489
0.540514
0.560963
0.581846
0.603167
0.624925
0.647124
0.669763
0.692845
0.716372
0.740344
0.764764
0.789633
0.81495
0.840718
0.866934
0.893599
0.92071
0.948265
0.97626
1.00469
1.03355
1.06284
1.09254
1.12264
1.15315
1.18404
1.2153
1.24692
1.27889
1.31118
1.34378
1.37668
1.40984
1.44325
1.47689
1.51073
1.54475
1.57892
1.6132
1.64758
1.68203
1.7165
1.75098
1.78542
1.81979
1.85406
1.8882
1.92216
1.95591
1.98942
2.02266
2.05558
2.08815
2.12035
2.15213
2.18347
2.21434
2.2447
2.2745
2.30373
2.33235
2.36031
2.38761
2.41419
2.44004
2.46513
2.48943
2.51292
2.53558
2.55738
2.5783
2.59832
2.61744
2.63562
2.65286
2.66913
2.68443
2.69874
2.71204
2.72433
2.73558
2.74578
2.75494
2.76304
2.77008
2.77607
2.78095
2.78474
2.78732
2.78859
2.78879
2.7879
2.78592
2.78282
2.77859
2.7732
2.76667
2.75898
2.75012
2.74009
2.7289
2.71652
2.70297
2.68824
2.67233
2.65525
2.63701
2.61761
2.59707
2.57542
2.55266
2.52884
2.50399
2.47818
2.45147
2.42395
2.39579
2.36712
2.33791
2.30815
2.27789
2.2472
2.21615
2.18485
2.15338
2.12182
2.09025
2.05875
2.02739
1.99626
1.96541
1.9349
1.90486
1.87538
1.84672
1.8183
1.78085
0.0195371
0.0476057
0.0623359
0.0729781
0.0820576
0.0904833
0.0986991
0.10694
0.115327
0.12391
0.132696
0.141671
0.150817
0.160117
0.169562
0.179152
0.188893
0.198798
0.208882
0.219166
0.229678
0.240453
0.251534
0.262979
0.274856
0.28724
0.300205
0.313817
0.328111
0.343075
0.358652
0.374767
0.391394
0.408548
0.426262
0.444571
0.4635
0.483016
0.503064
0.523583
0.544527
0.565897
0.587704
0.609964
0.632688
0.655886
0.679565
0.703731
0.728387
0.753537
0.779186
0.805335
0.831989
0.859151
0.886821
0.915002
0.943696
0.972902
1.00262
1.03285
1.06359
1.09484
1.12659
1.15883
1.19157
1.22479
1.25848
1.29264
1.32724
1.36229
1.39776
1.43363
1.46989
1.50652
1.5435
1.5808
1.6184
1.65628
1.6944
1.73274
1.77127
1.80995
1.84875
1.88764
1.92659
1.96555
2.00448
2.04336
2.08213
2.12077
2.15922
2.19746
2.23543
2.27311
2.31044
2.34738
2.3839
2.41995
2.4555
2.49049
2.52489
2.55866
2.59175
2.62414
2.65577
2.68662
2.71664
2.74581
2.77409
2.80145
2.82787
2.85331
2.87776
2.90118
2.92356
2.94488
2.96511
2.98424
3.00225
3.01913
3.03486
3.04943
3.06282
3.07502
3.08602
3.09582
3.1044
3.11176
3.1179
3.12279
3.12642
3.12865
3.1295
3.12912
3.12751
3.12465
3.12052
3.1151
3.10841
3.10042
3.09115
3.08058
3.06872
3.05555
3.04109
3.02533
3.00827
2.98992
2.97028
2.94936
2.92717
2.90373
2.87907
2.8532
2.82618
2.79804
2.76886
2.7387
2.70766
2.67588
2.64345
2.61041
2.57678
2.54261
2.50799
2.47301
2.43776
2.40234
2.36683
2.33134
2.29596
2.26077
2.22587
2.19135
2.15733
2.12395
2.09138
2.0599
2.02887
1.99172
0.0243411
0.0562076
0.0728008
0.0847124
0.0947518
0.10393
0.112747
0.121478
0.13028
0.139237
0.148386
0.157741
0.167302
0.177066
0.187036
0.197219
0.207629
0.218284
0.229208
0.240429
0.251979
0.263893
0.276211
0.288979
0.302242
0.316051
0.330448
0.34547
0.361135
0.377444
0.394375
0.411903
0.430008
0.44868
0.467921
0.487734
0.508119
0.529069
0.550571
0.572602
0.595148
0.6182
0.641759
0.66583
0.690419
0.715533
0.741181
0.767369
0.794102
0.821388
0.849232
0.877638
0.906612
0.936157
0.966278
0.996977
1.02826
1.06012
1.09257
1.1256
1.15922
1.19342
1.2282
1.26354
1.29946
1.33594
1.37296
1.41053
1.44862
1.48723
1.52633
1.56591
1.60595
1.64642
1.68731
1.72859
1.77022
1.81219
1.85446
1.89699
1.93976
1.98272
2.02585
2.06909
2.11241
2.15577
2.19912
2.24242
2.28563
2.32869
2.37157
2.41421
2.45657
2.4986
2.54025
2.58148
2.62222
2.66243
2.70206
2.74107
2.7794
2.81701
2.85385
2.88989
2.92506
2.95933
2.99267
3.02502
3.05635
3.08664
3.11584
3.14392
3.17086
3.19662
3.22119
3.24455
3.26666
3.28751
3.30709
3.32538
3.34236
3.35801
3.37233
3.3853
3.39691
3.40716
3.41605
3.42356
3.42969
3.43442
3.43774
3.43948
3.4398
3.43872
3.43626
3.4324
3.42715
3.42048
3.41241
3.40294
3.39206
3.37978
3.36609
3.351
3.33451
3.31662
3.29733
3.27665
3.25459
3.23116
3.20637
3.18025
3.15281
3.12409
3.09414
3.06301
3.03076
2.99748
2.96325
2.92819
2.89239
2.85592
2.81881
2.78114
2.743
2.70447
2.66567
2.62669
2.58765
2.54863
2.50975
2.47111
2.43282
2.39501
2.35781
2.32141
2.28602
2.25191
2.21843
2.18063
0.0287048
0.0637495
0.0819613
0.0949971
0.105897
0.115754
0.125113
0.134282
0.143446
0.152716
0.162159
0.17181
0.18169
0.191811
0.202187
0.212831
0.223763
0.235007
0.246589
0.258539
0.270888
0.283669
0.296917
0.310665
0.324949
0.339799
0.355244
0.371306
0.387998
0.405324
0.42328
0.441855
0.461038
0.48082
0.501194
0.522158
0.54371
0.565849
0.588569
0.611866
0.635733
0.660168
0.685171
0.710745
0.736896
0.763632
0.790959
0.818886
0.847421
0.876572
0.906345
0.936748
0.967788
0.999472
1.0318
1.06479
1.09843
1.13274
1.16771
1.20335
1.23965
1.27662
1.31425
1.35254
1.39149
1.43108
1.4713
1.51215
1.55362
1.59568
1.63832
1.68152
1.72525
1.7695
1.81424
1.85944
1.90506
1.95108
1.99746
2.04416
2.09115
2.13838
2.18581
2.2334
2.28109
2.32885
2.37661
2.42434
2.47198
2.51947
2.56677
2.61382
2.66056
2.70693
2.75289
2.79836
2.8433
2.88765
2.93134
2.97433
3.01656
3.05798
3.09853
3.13816
3.17682
3.21446
3.25104
3.28651
3.32083
3.35396
3.38585
3.41649
3.44582
3.47383
3.50049
3.52577
3.54964
3.5721
3.59312
3.61268
3.63077
3.64737
3.66248
3.67607
3.68815
3.69871
3.70775
3.71527
3.72125
3.72569
3.72853
3.7297
3.72934
3.72745
3.72403
3.71909
3.71262
3.70463
3.69513
3.68412
3.6716
3.65758
3.64207
3.62507
3.60658
3.58661
3.56517
3.54225
3.51788
3.49207
3.46483
3.43619
3.40617
3.37481
3.34216
3.30826
3.2732
3.23704
3.19988
3.16182
3.12295
3.08335
3.04307
3.00221
2.96084
2.91908
2.87703
2.8348
2.7925
2.75024
2.70815
2.66633
2.62491
2.58405
2.54389
2.50467
2.4666
2.42992
2.39402
2.35506
0.032528
0.0701688
0.0897408
0.103735
0.115379
0.12583
0.135668
0.145222
0.1547
0.164235
0.173916
0.183798
0.193919
0.204307
0.214984
0.225972
0.237296
0.248981
0.261055
0.273546
0.286486
0.299902
0.313824
0.32828
0.343294
0.358891
0.375089
0.391906
0.409351
0.427431
0.446148
0.465498
0.485478
0.506084
0.527312
0.549161
0.57163
0.59472
0.618432
0.642765
0.66772
0.693298
0.719503
0.746341
0.773817
0.80194
0.83072
0.860165
0.890286
0.921093
0.952594
0.984799
1.01772
1.05136
1.08573
1.12084
1.15669
1.19329
1.23064
1.26875
1.30762
1.34724
1.38762
1.42876
1.47064
1.51327
1.55662
1.60069
1.64547
1.69094
1.73708
1.78386
1.83127
1.87928
1.92785
1.97696
2.02657
2.07664
2.12714
2.17802
2.22923
2.28074
2.3325
2.38444
2.43652
2.48869
2.54089
2.59306
2.64514
2.69708
2.7488
2.80026
2.85137
2.90209
2.95234
3.00206
3.05118
3.09964
3.14737
3.19432
3.24041
3.28559
3.32981
3.37299
3.41509
3.45605
3.49582
3.53434
3.57156
3.60746
3.64197
3.67506
3.70671
3.73686
3.7655
3.79259
3.81812
3.84206
3.86439
3.8851
3.90417
3.92158
3.93734
3.95142
3.96383
3.97456
3.98361
3.99099
3.99668
4.00068
4.00292
4.00344
4.00227
3.99943
3.99494
3.9888
3.98103
3.97164
3.96064
3.94804
3.93385
3.91808
3.90074
3.88183
3.86138
3.83938
3.81584
3.79078
3.76421
3.73614
3.7066
3.6756
3.64318
3.60937
3.57422
3.53779
3.50013
3.46133
3.42148
3.38068
3.339
3.29655
3.25338
3.2096
3.16529
3.12057
3.07554
3.03032
2.98502
2.93978
2.89471
2.84995
2.80563
2.76191
2.71898
2.67707
2.6364
2.5972
2.55885
2.51821
0.0357515
0.0754525
0.0961248
0.110902
0.123161
0.134111
0.144354
0.154237
0.163982
0.173738
0.183609
0.193668
0.203968
0.214548
0.225439
0.236671
0.248272
0.260268
0.272688
0.285559
0.298909
0.312764
0.327149
0.342087
0.3576
0.373706
0.390421
0.407759
0.425731
0.444344
0.463603
0.48351
0.504068
0.525277
0.547139
0.569656
0.59283
0.616666
0.641166
0.666336
0.692181
0.718705
0.745915
0.77382
0.80243
0.831754
0.861804
0.892593
0.92413
0.95643
0.989504
1.02336
1.05802
1.09349
1.12977
1.16688
1.20483
1.24362
1.28326
1.32376
1.36511
1.40733
1.4504
1.49433
1.5391
1.58473
1.63118
1.67845
1.72653
1.77539
1.82502
1.87538
1.92646
1.97823
2.03064
2.08367
2.13728
2.19141
2.24604
2.30111
2.35657
2.41237
2.46845
2.52476
2.58124
2.63782
2.69445
2.75105
2.80756
2.86392
2.92005
2.97588
3.03135
3.08637
3.14087
3.19478
3.24804
3.30055
3.35226
3.4031
3.45299
3.50186
3.54966
3.59631
3.64176
3.68594
3.72879
3.77025
3.81028
3.84883
3.88584
3.92128
3.9551
3.98727
4.01776
4.04653
4.07357
4.09885
4.12236
4.14406
4.16396
4.18204
4.19829
4.21271
4.22529
4.23604
4.24495
4.25203
4.25729
4.26071
4.26224
4.26195
4.25984
4.25593
4.25025
4.24283
4.23367
4.2228
4.21023
4.19599
4.18008
4.16254
4.14336
4.12257
4.10018
4.07621
4.05065
4.02354
3.99488
3.96469
3.933
3.89982
3.86518
3.82913
3.79169
3.75294
3.71293
3.67173
3.62944
3.58615
3.54195
3.49692
3.45114
3.40472
3.35775
3.31033
3.26259
3.21465
3.16662
3.11864
3.07084
3.02335
2.97633
2.92995
2.88441
2.83994
2.79677
2.75508
2.71429
2.67169
0.0383489
0.0796242
0.101146
0.116533
0.129276
0.140626
0.151196
0.161346
0.171306
0.181238
0.191256
0.201446
0.21187
0.222578
0.233609
0.244998
0.256775
0.268969
0.281608
0.294719
0.308328
0.322457
0.33713
0.352367
0.368188
0.38461
0.401648
0.419314
0.437622
0.45658
0.476197
0.49648
0.517435
0.539068
0.561384
0.58439
0.608094
0.632501
0.657621
0.683461
0.71003
0.737339
0.765397
0.794216
0.823809
0.854189
0.885371
0.917369
0.950198
0.983873
1.01841
1.05382
1.09012
1.12732
1.16544
1.20448
1.24447
1.2854
1.32728
1.37013
1.41393
1.45871
1.50445
1.55116
1.59883
1.64744
1.69699
1.74747
1.79885
1.85112
1.90425
1.95821
2.01298
2.06852
2.12479
2.18175
2.23935
2.29756
2.35632
2.41557
2.47526
2.53533
2.59573
2.65637
2.71721
2.77816
2.83917
2.90014
2.96103
3.02173
3.08219
3.14231
3.20203
3.26125
3.3199
3.37789
3.43516
3.4916
3.54716
3.60175
3.65529
3.70771
3.75894
3.80891
3.85754
3.90478
3.95054
3.99479
4.03745
4.07848
4.11781
4.15541
4.19124
4.22525
4.25741
4.28768
4.31605
4.34249
4.36699
4.38951
4.41006
4.42862
4.44519
4.45976
4.47234
4.48293
4.49153
4.49816
4.50282
4.50551
4.50622
4.50496
4.50176
4.49665
4.48967
4.48085
4.47021
4.45777
4.44358
4.42765
4.41
4.39067
4.36967
4.34702
4.32274
4.29686
4.26938
4.24032
4.20971
4.17755
4.14387
4.10869
4.07204
4.03395
3.99447
3.95364
3.91152
3.8682
3.82374
3.77824
3.73179
3.68448
3.63639
3.58763
3.53829
3.48848
3.43832
3.38793
3.33745
3.287
3.23671
3.18674
3.13725
3.08841
3.04043
2.99354
2.94796
2.90386
2.86066
2.81601
0.0403211
0.0827408
0.104882
0.120716
0.133817
0.145464
0.15628
0.16663
0.176752
0.186812
0.196933
0.207207
0.217705
0.228484
0.239591
0.251063
0.262933
0.275232
0.287986
0.301221
0.31496
0.329226
0.344042
0.359427
0.3754
0.391978
0.409177
0.427013
0.445498
0.464646
0.484468
0.504974
0.526177
0.548086
0.570711
0.594064
0.618155
0.642997
0.668602
0.694983
0.722154
0.750128
0.778919
0.808542
0.839014
0.870353
0.902577
0.935703
0.969749
1.00473
1.04067
1.07759
1.11549
1.15439
1.19432
1.23528
1.27729
1.32035
1.36449
1.40969
1.45597
1.50333
1.55177
1.60129
1.65187
1.70351
1.7562
1.80991
1.86464
1.92034
1.977
2.03459
2.09306
2.15238
2.21251
2.2734
2.33499
2.39725
2.46011
2.5235
2.58737
2.65166
2.71629
2.78118
2.84628
2.9115
2.97675
3.04198
3.10708
3.17198
3.23659
3.30083
3.36461
3.42784
3.49043
3.5523
3.61335
3.67351
3.73268
3.79078
3.84774
3.90346
3.95787
4.0109
4.06247
4.11251
4.16094
4.20771
4.25275
4.296
4.3374
4.37692
4.4145
4.4501
4.48368
4.51522
4.54468
4.57205
4.5973
4.62041
4.64139
4.66021
4.67688
4.6914
4.70377
4.714
4.72211
4.7281
4.732
4.7338
4.73352
4.73116
4.72671
4.72027
4.71187
4.70154
4.68933
4.67527
4.65939
4.64173
4.62232
4.6012
4.57839
4.55393
4.52783
4.50013
4.47083
4.43996
4.40754
4.37359
4.33812
4.30115
4.26271
4.22283
4.18155
4.13891
4.09497
4.04979
4.00347
3.95607
3.9077
3.85843
3.80836
3.75758
3.70619
3.65431
3.60205
3.54953
3.49689
3.44426
3.39178
3.33959
3.28787
3.2368
3.18658
3.13744
3.08959
3.04319
2.99767
2.95098
0.0417039
0.0849011
0.107445
0.123575
0.136915
0.148761
0.159741
0.170223
0.180447
0.190584
0.200761
0.211076
0.221605
0.23241
0.243537
0.255029
0.266919
0.279238
0.292013
0.305269
0.319029
0.333317
0.348154
0.363561
0.379558
0.396164
0.413397
0.431274
0.449812
0.469028
0.488937
0.509554
0.530894
0.552973
0.575806
0.599407
0.623793
0.648978
0.674982
0.701824
0.729522
0.758093
0.787555
0.81793
0.849238
0.8815
0.914739
0.948977
0.984233
1.02053
1.05788
1.09632
1.13585
1.1765
1.21829
1.26122
1.30531
1.35057
1.39702
1.44466
1.49349
1.54352
1.59473
1.64714
1.70072
1.75546
1.81135
1.86837
1.92648
1.98567
2.0459
2.10713
2.16932
2.23242
2.29639
2.36118
2.42672
2.49295
2.55983
2.62726
2.6952
2.76356
2.83226
2.90124
2.9704
3.03967
3.10896
3.17819
3.24725
3.31607
3.38456
3.45262
3.52015
3.58706
3.65327
3.71866
3.78316
3.84667
3.9091
3.97036
4.03036
4.08901
4.14624
4.20196
4.25609
4.30856
4.3593
4.40822
4.45528
4.5004
4.54353
4.58461
4.62361
4.66047
4.69516
4.72764
4.75789
4.78589
4.8116
4.83503
4.85616
4.87499
4.89151
4.90572
4.91765
4.92731
4.9347
4.93986
4.9428
4.94354
4.94212
4.93845
4.93262
4.92473
4.9148
4.90288
4.88902
4.87327
4.85566
4.83625
4.81509
4.7922
4.76763
4.74142
4.71359
4.68417
4.65319
4.62067
4.58662
4.55106
4.51402
4.4755
4.43553
4.39413
4.35134
4.30719
4.26174
4.21504
4.16718
4.11824
4.06829
4.01742
3.96572
3.91329
3.86022
3.80662
3.75261
3.69832
3.64386
3.58938
3.53502
3.48092
3.42726
3.37421
3.32199
3.2708
3.22086
3.1723
3.12461
3.07598
0.0425527
0.0862042
0.108963
0.125254
0.138723
0.150674
0.161738
0.172283
0.182553
0.192719
0.202909
0.213222
0.223736
0.234512
0.245604
0.257053
0.268897
0.281167
0.293892
0.307087
0.320779
0.334995
0.349758
0.365091
0.381016
0.397554
0.414729
0.432559
0.451066
0.470271
0.490194
0.510856
0.532276
0.554474
0.577471
0.601285
0.625934
0.651432
0.677811
0.705098
0.733314
0.762485
0.792634
0.823787
0.85597
0.889209
0.923528
0.958952
0.995506
1.03321
1.07209
1.11217
1.15346
1.19599
1.23977
1.28482
1.33115
1.37878
1.4277
1.47793
1.52947
1.58231
1.63645
1.69188
1.74858
1.80654
1.86574
1.92614
1.98772
2.05044
2.11426
2.17914
2.24503
2.31188
2.37962
2.44821
2.51758
2.58766
2.65837
2.72966
2.80143
2.87361
2.94612
3.01887
3.09178
3.16475
3.2377
3.31054
3.38316
3.45548
3.52739
3.5988
3.66962
3.73974
3.80906
3.87749
3.94492
4.01127
4.07644
4.14033
4.20285
4.26392
4.32345
4.38135
4.43754
4.49193
4.54447
4.59507
4.64366
4.69018
4.73457
4.77678
4.81676
4.85446
4.88985
4.92288
4.95354
4.98179
5.00763
5.03103
5.05199
5.0705
5.08658
5.10021
5.11143
5.12026
5.12671
5.13081
5.1326
5.13211
5.12936
5.12421
5.11688
5.10742
5.09586
5.08227
5.06671
5.04922
5.02987
5.00871
4.98581
4.9612
4.93494
4.90708
4.87763
4.84665
4.81416
4.78017
4.7447
4.70778
4.66942
4.62963
4.58842
4.54582
4.50184
4.45652
4.40991
4.36207
4.31305
4.26294
4.21181
4.15974
4.10682
4.05314
3.99879
3.94388
3.88852
3.83284
3.77695
3.72099
3.6651
3.60944
3.55415
3.49944
3.44548
3.39251
3.34069
3.29019
3.24051
3.19012
0.0428484
0.086676
0.109537
0.125889
0.139396
0.151373
0.162451
0.172999
0.183258
0.193397
0.203547
0.213805
0.224252
0.234952
0.245956
0.25731
0.269051
0.281215
0.293836
0.306925
0.32051
0.334614
0.349265
0.364487
0.380305
0.396744
0.413829
0.431585
0.450037
0.469211
0.489132
0.509826
0.531319
0.553636
0.576803
0.600845
0.625787
0.651653
0.678474
0.706285
0.735118
0.765002
0.795968
0.828047
0.861269
0.895664
0.931262
0.968087
1.00617
1.04552
1.08618
1.12816
1.17148
1.21616
1.26222
1.30967
1.35852
1.40878
1.46045
1.51353
1.56802
1.62391
1.68119
1.73984
1.79984
1.86117
1.92379
1.98767
2.05277
2.11904
2.18645
2.25493
2.32443
2.3949
2.46626
2.53845
2.6114
2.68504
2.75928
2.83406
2.90928
2.98486
3.06071
3.13676
3.21289
3.28903
3.36507
3.44092
3.51648
3.59166
3.66635
3.74046
3.81388
3.88651
3.95826
4.02902
4.09868
4.16717
4.23436
4.30018
4.36453
4.42732
4.48846
4.54785
4.60543
4.66111
4.7148
4.76644
4.81596
4.86328
4.90837
4.95114
4.99156
5.02958
5.06516
5.09827
5.12887
5.15695
5.18249
5.20546
5.22588
5.24373
5.25902
5.27176
5.28198
5.2897
5.29496
5.29778
5.29821
5.29636
5.29201
5.2853
5.27634
5.26521
5.25195
5.23664
5.21933
5.2001
5.17902
5.15616
5.13158
5.10534
5.0775
5.04811
5.01722
4.98486
4.95106
4.91584
4.87922
4.84122
4.80184
4.7611
4.71899
4.67554
4.63075
4.58466
4.5373
4.48872
4.43897
4.38813
4.33626
4.28344
4.22976
4.17528
4.1201
4.06433
4.00806
3.95142
3.89453
3.83751
3.78051
3.72366
3.66713
3.61109
3.55573
3.50125
3.44784
3.39564
3.34422
3.2923
0.0427718
0.0865701
0.109386
0.125707
0.139184
0.151125
0.162159
0.172656
0.182856
0.192932
0.203009
0.213189
0.223549
0.234152
0.245052
0.256291
0.267908
0.279934
0.292396
0.305318
0.318728
0.332658
0.34714
0.362203
0.377876
0.394191
0.411179
0.428871
0.447299
0.466494
0.48649
0.507317
0.529007
0.551592
0.575108
0.599594
0.625064
0.65153
0.679015
0.707598
0.737316
0.768206
0.800303
0.833643
0.868263
0.904205
0.941489
0.98014
1.02018
1.06165
1.10455
1.1489
1.19473
1.24204
1.29084
1.34114
1.39295
1.44627
1.50109
1.5574
1.61519
1.67444
1.73513
1.79723
1.86071
1.92554
1.99167
2.05906
2.12766
2.19741
2.26827
2.34017
2.41305
2.48683
2.56145
2.63684
2.71292
2.78961
2.86683
2.94449
3.02252
3.10081
3.1793
3.25787
3.33644
3.41492
3.49321
3.57122
3.64883
3.72597
3.80253
3.8784
3.95349
4.0277
4.10093
4.17307
4.24404
4.31372
4.38202
4.44886
4.51413
4.57774
4.63961
4.69966
4.75778
4.81391
4.86797
4.91988
4.96957
5.01698
5.06205
5.10472
5.14493
5.18266
5.21785
5.25047
5.28049
5.30789
5.33265
5.35476
5.37421
5.391
5.40515
5.41666
5.42557
5.43191
5.43571
5.43703
5.43599
5.43248
5.42642
5.41802
5.40735
5.39448
5.37949
5.36243
5.3434
5.32246
5.29971
5.27522
5.24908
5.22134
5.19209
5.16137
5.12925
5.09575
5.06091
5.02476
4.9873
4.94855
4.90852
4.86721
4.82461
4.78073
4.73556
4.68914
4.64149
4.59264
4.54265
4.49157
4.43947
4.3864
4.33245
4.27768
4.22218
4.16604
4.10936
4.05226
3.99484
3.93724
3.87958
3.82199
3.76462
3.70765
3.65126
3.59564
3.54095
3.48737
3.43448
3.38134
0.0424811
0.0861003
0.108744
0.124939
0.138289
0.1501
0.161002
0.171363
0.181426
0.19136
0.201293
0.211321
0.221523
0.23196
0.242687
0.253746
0.265176
0.277014
0.289293
0.302047
0.315316
0.329129
0.343517
0.358516
0.374163
0.390493
0.407544
0.425355
0.443966
0.463421
0.483775
0.505047
0.527274
0.550493
0.574737
0.600022
0.626372
0.653866
0.682576
0.712549
0.743826
0.776442
0.810435
0.845837
0.882678
0.920977
0.960767
1.00208
1.04493
1.08937
1.13538
1.18297
1.23214
1.2829
1.33524
1.38916
1.44464
1.50168
1.56025
1.62033
1.68189
1.7449
1.80932
1.87512
1.94225
2.01065
2.08028
2.15109
2.22301
2.29599
2.36995
2.44484
2.52058
2.59711
2.67434
2.7522
2.83062
2.90952
2.9888
3.0684
3.14823
3.22819
3.30821
3.3882
3.46806
3.5477
3.62704
3.70597
3.78441
3.86226
3.93943
4.01582
4.09133
4.16586
4.23933
4.31163
4.38266
4.45234
4.52056
4.58724
4.65228
4.7156
4.77711
4.83672
4.89436
4.94993
5.00336
5.05458
5.10353
5.15014
5.19434
5.23609
5.27533
5.31201
5.3461
5.37756
5.40637
5.43249
5.45591
5.47662
5.49462
5.5099
5.52247
5.53236
5.5396
5.54423
5.54628
5.5459
5.54315
5.5377
5.52983
5.51963
5.50715
5.49249
5.47572
5.45692
5.43618
5.4136
5.38926
5.36327
5.3357
5.30664
5.27617
5.24436
5.21126
5.17691
5.14135
5.1046
5.06666
5.02756
4.98729
4.94583
4.90318
4.85933
4.81427
4.76801
4.72057
4.67198
4.62227
4.57148
4.51968
4.4669
4.41322
4.3587
4.30341
4.24744
4.19087
4.13382
4.07639
4.0187
3.96085
3.90299
3.84524
3.78776
3.73073
3.67433
3.61872
3.56407
3.51003
3.45597
0.0418963
0.0852032
0.107505
0.123447
0.136574
0.148179
0.158886
0.169062
0.178947
0.188711
0.19848
0.208351
0.218401
0.228696
0.239288
0.250223
0.261546
0.273297
0.285517
0.298248
0.311532
0.325408
0.339918
0.35511
0.371036
0.387741
0.405261
0.423646
0.442941
0.463183
0.484387
0.5066
0.529904
0.554364
0.580041
0.607004
0.635305
0.664989
0.696111
0.728716
0.762842
0.798522
0.835786
0.874657
0.915153
0.957284
1.00106
1.0465
1.0936
1.14233
1.1927
1.24468
1.29827
1.35344
1.41018
1.46846
1.52825
1.58951
1.6522
1.71629
1.78172
1.84845
1.91644
1.98562
2.05595
2.12736
2.19981
2.27322
2.34755
2.42272
2.49867
2.57533
2.65264
2.73054
2.80894
2.88777
2.96697