/*--------------------------------*- C++ -*----------------------------------*\
  =========                 |
  \\      /  F ield         | OpenFOAM: The Open Source CFD Toolbox
   \\    /   O peration     | Website:  https://openfoam.org
    \\  /    A nd           | Version:  8
     \\/     M anipulation  |
\*---------------------------------------------------------------------------*/
FoamFile
{
    version     2.0;
    format      ascii;
    class       volScalarField;
    location    "230";
    object      nut;
}
// * * * * * * * * * * * * * * * * * * * * * * * * * * * * * * * * * * * * * //

dimensions      [0 2 -1 0 0 0 0];

internalField   nonuniform List<scalar> 
12225
(
4.14925e-05
3.93405e-05
3.74833e-05
3.54324e-05
3.37846e-05
3.242e-05
3.15106e-05
3.09111e-05
3.0918e-05
3.1092e-05
3.15753e-05
3.20889e-05
3.31541e-05
3.38324e-05
3.50625e-05
3.58154e-05
3.68979e-05
3.86195e-05
0.00033221
0.00021518
0.000179268
0.00015768
0.000146207
0.000138212
0.000132746
0.000131646
0.000129515
0.000130057
0.000129055
0.000129429
0.000128668
0.00012855
0.000128085
0.000127406
0.000127472
0.000125979
0.000668671
0.000450667
0.00035575
0.000309839
0.000275277
0.000251105
0.000231705
0.000217282
0.000202678
0.000192123
0.000182622
0.000175208
0.000169375
0.000163689
0.00016029
0.000155581
0.000153828
0.000149781
0.000801682
0.000691667
0.000572545
0.000500064
0.000449374
0.000411992
0.000380773
0.00035601
0.000334003
0.000314786
0.000298375
0.000281632
0.000270342
0.000256076
0.000248219
0.000236138
0.00023057
0.000220388
0.000839623
0.00081019
0.0007407
0.000676418
0.000623926
0.000581389
0.000545866
0.000514562
0.000489516
0.000464434
0.00044587
0.000424068
0.000409944
0.000390813
0.000379914
0.000363039
0.000354831
0.00033939
0.000850344
0.000843277
0.000819552
0.000786528
0.00075077
0.000715886
0.000685755
0.000656133
0.000632548
0.000607521
0.000589001
0.000567252
0.000552289
0.000533106
0.000520811
0.000503674
0.000493718
0.00047735
0.000851579
0.000851018
0.0008433
0.000833477
0.000817111
0.000796951
0.00077787
0.000756737
0.0007389
0.000719149
0.000703536
0.000685625
0.000672128
0.00065593
0.000644332
0.00062948
0.000619891
0.000605025
0.000851581
0.000851815
0.000850038
0.000847462
0.000841401
0.00083375
0.000824824
0.000813434
0.000802811
0.000790473
0.000779717
0.000767543
0.000757431
0.000745787
0.000736563
0.000725476
0.000717511
0.000705904
0.000851673
0.00085153
0.000851015
0.000850343
0.000848875
0.00084617
0.000843027
0.000838305
0.000833403
0.000827362
0.000821219
0.000814771
0.000808435
0.000801508
0.000795302
0.000788331
0.000782536
0.000774964
0.000851754
0.000851386
0.000851043
0.000850633
0.000850247
0.000849368
0.000848404
0.000846781
0.000844956
0.00084253
0.000839924
0.0008368
0.000833797
0.000830153
0.000826978
0.000822922
0.000819931
0.000815296
0.000851784
0.000851358
0.000851012
0.000850613
0.000850329
0.000849905
0.000849525
0.000848929
0.000848303
0.000847393
0.000846466
0.000845177
0.000843991
0.000842352
0.000840998
0.000839034
0.000837643
0.000835365
0.000851788
0.000851359
0.000850995
0.000850605
0.000850292
0.000849938
0.000849646
0.00084928
0.000848955
0.000848504
0.000848098
0.000847508
0.000846998
0.000846244
0.000845642
0.000844721
0.000844059
0.000842977
0.000851786
0.000851363
0.000850985
0.000850604
0.000850269
0.000849926
0.00084963
0.000849313
0.000849042
0.000848729
0.000848462
0.000848126
0.000847844
0.000847466
0.000847156
0.000846726
0.000846387
0.000845902
0.000851783
0.000851364
0.000850978
0.000850602
0.000850256
0.000849916
0.000849607
0.0008493
0.000849022
0.00084874
0.000848488
0.000848224
0.000847988
0.000847735
0.000847508
0.000847258
0.000847033
0.000846783
0.000851781
0.000851364
0.000850973
0.000850598
0.000850246
0.000849908
0.000849591
0.000849286
0.000849
0.000848723
0.000848463
0.000848211
0.000847975
0.000847744
0.000847527
0.000847316
0.000847114
0.000846919
0.00085178
0.000851363
0.000850969
0.000850594
0.000850239
0.000849901
0.00084958
0.000849275
0.000848984
0.000848707
0.000848443
0.000848191
0.000847951
0.000847721
0.000847502
0.000847292
0.000847092
0.000846901
0.000851779
0.000851362
0.000850967
0.000850591
0.000850234
0.000849895
0.000849572
0.000849265
0.000848973
0.000848694
0.000848428
0.000848174
0.000847932
0.000847701
0.00084748
0.000847269
0.000847067
0.000846873
0.000851779
0.000851362
0.000850965
0.000850588
0.000850231
0.00084989
0.000849567
0.000849259
0.000848965
0.000848685
0.000848418
0.000848163
0.000847919
0.000847687
0.000847464
0.000847251
0.000847048
0.000846853
0.000851779
0.000851362
0.000850965
0.000850588
0.00085023
0.000849889
0.000849565
0.000849256
0.000848962
0.000848681
0.000848413
0.000848158
0.000847913
0.00084768
0.000847456
0.000847243
0.000847038
0.000846843
0.000851779
0.000851362
0.000850966
0.000850589
0.000850231
0.000849891
0.000849567
0.000849259
0.000848965
0.000848685
0.000848417
0.000848161
0.000847917
0.000847683
0.000847459
0.000847245
0.00084704
0.000846844
0.000851779
0.000851363
0.000850967
0.000850592
0.000850235
0.000849897
0.000849573
0.000849267
0.000848972
0.000848693
0.000848424
0.000848168
0.000847919
0.000847683
0.00084745
0.00084723
0.000847012
0.000846805
0.000851778
0.000851366
0.000850968
0.000850599
0.00085024
0.000849907
0.00084958
0.000849274
0.000848964
0.000848671
0.000848364
0.000848071
0.000847756
0.000847455
0.000847122
0.00084681
0.000846456
0.000846135
0.000851773
0.000851376
0.000850971
0.000850615
0.000850241
0.000849889
0.000849478
0.000849054
0.000848529
0.000847978
0.0008473
0.000846604
0.000845766
0.000844938
0.000843954
0.000843028
0.000841917
0.000840938
0.000851767
0.000851415
0.000850964
0.000850548
0.000849861
0.000848966
0.00084761
0.000845976
0.000843904
0.000841636
0.000838954
0.000836213
0.000833115
0.000830112
0.000826761
0.000823678
0.000820182
0.000817175
0.000851859
0.00085138
0.000850195
0.000848243
0.00084447
0.000839354
0.000832765
0.000825658
0.000817961
0.00081001
0.000801616
0.000793626
0.000785329
0.000777704
0.00076974
0.000762697
0.000755119
0.00074879
0.000852108
0.000847667
0.000839902
0.000827146
0.000808707
0.000789645
0.000769974
0.000751412
0.000733303
0.000716893
0.000700931
0.000686777
0.000672826
0.000660667
0.000648374
0.000637936
0.000626948
0.000618015
0.000843241
0.000822507
0.000775184
0.000726458
0.000684895
0.00064985
0.00061846
0.000592018
0.000568379
0.000548309
0.000529685
0.000513987
0.000498748
0.000486012
0.000473197
0.000462703
0.000451617
0.0004428
0.000795685
0.000668241
0.000570625
0.000509904
0.000465604
0.000431182
0.000404145
0.000382479
0.000364198
0.000349067
0.000335939
0.000325059
0.000314504
0.000306233
0.000297957
0.000291364
0.000284278
0.000278928
0.000501314
0.000348357
0.000292673
0.00025918
0.000236322
0.000221177
0.00021162
0.000203854
0.000198563
0.000195075
0.000192221
0.000190367
0.000188582
0.000187438
0.000186165
0.000185471
0.000184555
0.000184142
7.27385e-05
7.02256e-05
6.79542e-05
6.56138e-05
6.33828e-05
6.12762e-05
5.94944e-05
5.79552e-05
5.67109e-05
5.57032e-05
5.49776e-05
5.44181e-05
5.41096e-05
5.38813e-05
5.38975e-05
5.39328e-05
5.40915e-05
5.43241e-05
2.87594e-07
7.03818e-06
1.28211e-05
1.81166e-05
2.36184e-05
2.96826e-05
3.64792e-05
4.40942e-05
5.24824e-05
6.14907e-05
7.09407e-05
8.06516e-05
9.04793e-05
0.000100293
0.00010999
0.000119463
0.000128613
0.000137325
0.000145484
0.000152948
0.000159573
0.000165189
0.000169644
0.000172792
0.000174571
0.000175027
0.000174017
0.00017218
0.000169837
0.000170213
0.000176427
0.000182699
0.000189098
0.000188336
3.95723e-05
3.76431e-05
4.11136e-05
4.38444e-05
4.54935e-05
4.73223e-05
4.91129e-05
4.97773e-05
5.10299e-05
5.20736e-05
5.32146e-05
5.43183e-05
5.54383e-05
5.65476e-05
5.76587e-05
5.87646e-05
5.98688e-05
6.09693e-05
6.20674e-05
6.31622e-05
6.42542e-05
6.5343e-05
6.64288e-05
6.75113e-05
6.85905e-05
6.9666e-05
7.07378e-05
7.18054e-05
7.28687e-05
7.39273e-05
7.49809e-05
7.60289e-05
7.70712e-05
7.81071e-05
7.91364e-05
8.01584e-05
8.11727e-05
8.21788e-05
8.31761e-05
8.41642e-05
8.51424e-05
8.61103e-05
8.70671e-05
8.80125e-05
8.89458e-05
8.98664e-05
9.07737e-05
9.16673e-05
9.25464e-05
9.34105e-05
9.4259e-05
9.50913e-05
9.59068e-05
9.67047e-05
9.74843e-05
9.82448e-05
9.89851e-05
9.97042e-05
0.000100401
0.000101075
0.000101724
0.000102348
0.00010295
0.000103535
0.000104095
0.000104634
0.000105151
0.000105646
0.000106118
0.000106568
0.000106994
0.000107398
0.000107779
0.000108136
0.000108469
0.000108779
0.000109065
0.000109327
0.000109565
0.00010978
0.00010997
0.000110136
0.000110279
0.000110397
0.000110492
0.000110563
0.00011061
0.000110633
0.000110632
0.000110607
0.000110556
0.000110482
0.00011038
0.00011024
0.000110195
0.000109957
0.000109783
0.000109574
0.000109334
0.000109071
0.000108788
0.000108479
0.000108155
0.000107808
0.000107439
0.000107049
0.000106637
0.000106207
0.000105754
0.000105279
0.000104782
0.000104262
0.000103721
0.000103157
0.000102571
0.000101963
0.000101331
0.000100677
0.0001
9.93004e-05
9.85781e-05
9.78338e-05
9.70677e-05
9.62801e-05
9.54691e-05
9.45865e-05
9.38232e-05
9.33153e-05
9.28186e-05
9.23086e-05
9.17833e-05
9.1243e-05
9.06892e-05
9.01228e-05
8.95452e-05
8.89574e-05
8.83606e-05
8.77558e-05
8.71423e-05
8.65198e-05
8.58802e-05
8.52248e-05
8.45442e-05
8.38013e-05
8.30042e-05
8.07294e-05
1.38011e-06
3.12577e-05
6.79858e-05
9.31234e-05
0.000109356
0.00012114
0.000131242
0.000141115
0.000151367
0.000162134
0.000173328
0.000184776
0.000196296
0.000207726
0.000218923
0.000229751
0.000240073
0.000249735
0.000258559
0.000266337
0.000272841
0.000277835
0.00028111
0.000282537
0.000281997
0.000278346
0.000272046
0.000263413
0.000252976
0.000241695
0.000245029
0.000247873
0.000229809
0.000222499
0.000199652
0.00019921
0.000212063
0.000229102
0.000245949
0.000268533
0.00027507
0.000281353
0.000288093
0.000295512
0.000303132
0.000311018
0.000319013
0.000327136
0.000335346
0.000343647
0.000352028
0.000360488
0.000369026
0.000377643
0.00038634
0.000395117
0.000403975
0.000412917
0.000421943
0.000431053
0.000440249
0.00044953
0.000458897
0.000468348
0.000477883
0.0004875
0.000497198
0.000506973
0.000516824
0.000526746
0.000536737
0.000546792
0.000556907
0.000567077
0.000577297
0.00058756
0.000597863
0.000608197
0.000618557
0.000628937
0.00063933
0.000649728
0.000660126
0.000670516
0.000680893
0.00069125
0.000701581
0.000711882
0.000722145
0.000732365
0.000742536
0.000752645
0.000762677
0.000772606
0.000782384
0.000791924
0.000801075
0.000809565
0.000817772
0.00082586
0.000833804
0.000841607
0.000849263
0.000856769
0.000864118
0.000871307
0.000878332
0.000885189
0.000891874
0.000898386
0.00090472
0.000910875
0.00091685
0.00092264
0.000928246
0.000933664
0.000938894
0.000943934
0.000948783
0.00095344
0.000957907
0.00096218
0.00096626
0.000970145
0.000973839
0.000977347
0.000980681
0.000983848
0.000986653
0.000989114
0.000991753
0.000994121
0.000996117
0.000997803
0.000999302
0.00100053
0.00100164
0.00100252
0.00100318
0.0010036
0.00100379
0.00100373
0.00100345
0.00100292
0.00100215
0.00100113
0.000999854
0.000998324
0.000996533
0.000994478
0.000992153
0.000989556
0.000986684
0.000983535
0.000980108
0.000976404
0.000972419
0.000968134
0.000963458
0.000957888
0.000949901
0.000940787
0.000931175
0.000921278
0.000911178
0.000900921
0.000890538
0.000880054
0.000869493
0.000858874
0.000848221
0.00083754
0.000826834
0.000816064
0.000805197
0.000794346
0.000783259
0.000771871
0.000758808
0.000722215
2.85996e-06
5.06805e-05
0.000107108
0.000149823
0.000180717
0.000203225
0.000220533
0.000234984
0.000248089
0.000260692
0.00027318
0.000285661
0.000298109
0.000310432
0.000322519
0.000334249
0.000345493
0.000356103
0.000365904
0.0003747
0.000382276
0.000388421
0.000392959
0.000395777
0.000396953
0.00039775
0.00039846
0.000399921
0.000403131
0.000409097
0.000417361
0.000423974
0.000427012
0.000432016
0.000436975
0.000448706
0.000469069
0.000490658
0.000512676
0.000532592
0.000548222
0.000563649
0.000579157
0.000594972
0.000610996
0.000627235
0.000643644
0.000660217
0.000676937
0.000693803
0.000710811
0.000727961
0.000745254
0.000762692
0.000780277
0.000798009
0.000815892
0.000833926
0.000852111
0.000870448
0.000888935
0.000907573
0.000926358
0.000945288
0.00096436
0.000983569
0.00100291
0.00102238
0.00104197
0.00106167
0.00108147
0.00110137
0.00112136
0.00114142
0.00116155
0.00118174
0.00120196
0.00122222
0.0012425
0.00126278
0.00128306
0.00130332
0.00132354
0.00134371
0.00136383
0.00138386
0.00140381
0.00142365
0.00144338
0.00146296
0.00148238
0.00150162
0.00152063
0.00153937
0.00155779
0.00157579
0.0015933
0.00161032
0.00162702
0.00164345
0.00165959
0.00167542
0.00169094
0.00170614
0.001721
0.00173552
0.00174969
0.0017635
0.00177695
0.00179002
0.00180271
0.00181502
0.00182694
0.00183847
0.00184961
0.00186034
0.00187067
0.0018806
0.00189011
0.00189923
0.00190793
0.00191622
0.0019241
0.00193156
0.00193861
0.00194524
0.00195145
0.00195723
0.00196247
0.00196725
0.00197193
0.00197611
0.00197956
0.0019824
0.00198483
0.00198688
0.00198851
0.00198967
0.00199036
0.00199058
0.00199031
0.00198955
0.0019883
0.00198655
0.0019843
0.00198153
0.00197823
0.00197441
0.00197004
0.00196513
0.00195966
0.00195363
0.00194704
0.00193989
0.00193217
0.00192389
0.00191504
0.00190559
0.00189542
0.00188408
0.00187044
0.00185522
0.00183906
0.00182229
0.00180507
0.00178748
0.00176958
0.00175144
0.00173308
0.00171456
0.00169593
0.00167718
0.00165832
0.00163938
0.00162031
0.00160111
0.00158145
0.00156086
0.00153645
0.00148496
4.47734e-06
6.53678e-05
0.000136756
0.000192492
0.000233805
0.00026457
0.000288235
0.000307425
0.000323988
0.000339117
0.000353503
0.0003675
0.000381252
0.000394787
0.000408078
0.00042107
0.000433695
0.000445868
0.000457493
0.000468464
0.000478679
0.000488076
0.000496673
0.000504633
0.000512328
0.000520391
0.000529421
0.000540045
0.000552679
0.000567882
0.000584675
0.000601374
0.000617656
0.000634121
0.000651289
0.000671383
0.000694008
0.000717404
0.000740935
0.000763781
0.000786198
0.000808611
0.000831125
0.000853818
0.000876695
0.000899765
0.000923023
0.000946468
0.000970098
0.000993912
0.00101791
0.0010421
0.00106647
0.00109104
0.00111581
0.00114078
0.00116594
0.00119131
0.00121688
0.00124264
0.00126861
0.00129476
0.00132111
0.00134764
0.00137435
0.00140123
0.00142827
0.00145547
0.00148282
0.0015103
0.0015379
0.00156561
0.00159342
0.00162131
0.00164926
0.00167727
0.00170532
0.00173338
0.00176145
0.0017895
0.00181751
0.00184548
0.00187337
0.00190117
0.00192885
0.00195641
0.00198381
0.00201104
0.00203806
0.00206486
0.00209141
0.00211767
0.0021436
0.00216916
0.00219429
0.00221895
0.00224311
0.00226681
0.00229011
0.00231301
0.0023355
0.00235757
0.00237919
0.00240036
0.00242107
0.00244129
0.00246101
0.00248023
0.00249894
0.00251712
0.00253477
0.00255188
0.00256844
0.00258445
0.0025999
0.00261478
0.0026291
0.00264286
0.00265604
0.00266864
0.00268067
0.00269212
0.00270299
0.00271328
0.00272297
0.00273208
0.00274059
0.00274848
0.00275573
0.00276254
0.00276897
0.0027746
0.00277917
0.00278317
0.00278654
0.00278938
0.00279161
0.0027932
0.00279414
0.00279444
0.00279407
0.00279303
0.00279131
0.0027889
0.00278579
0.00278197
0.00277742
0.00277214
0.00276611
0.00275931
0.00275175
0.00274341
0.00273429
0.00272438
0.00271369
0.00270221
0.00268995
0.00267686
0.00266284
0.00264754
0.00263036
0.0026116
0.00259169
0.00257094
0.00254953
0.00252756
0.00250513
0.0024823
0.00245913
0.00243568
0.00241209
0.00238832
0.00236438
0.00234029
0.00231604
0.00229156
0.00226656
0.00224033
0.00220942
0.0021544
6.06513e-06
7.76603e-05
0.000161454
0.000227928
0.000278351
0.000316414
0.000345815
0.000369426
0.000389348
0.000407033
0.000423419
0.000439073
0.000454309
0.000469289
0.00048409
0.000498744
0.000513261
0.000527638
0.000541865
0.000555931
0.000569828
0.000583581
0.000597269
0.000611064
0.00062526
0.000640271
0.000656575
0.000674654
0.000694871
0.000716695
0.000739421
0.000762413
0.000785261
0.000808005
0.000831718
0.000856663
0.000882744
0.000909587
0.000936885
0.00096448
0.000991922
0.00101948
0.00104722
0.00107515
0.00110328
0.00113162
0.00116016
0.00118892
0.0012179
0.00124709
0.0012765
0.00130613
0.00133596
0.00136603
0.00139632
0.00142685
0.00145762
0.00148861
0.00151983
0.00155128
0.00158295
0.00161484
0.00164694
0.00167924
0.00171174
0.00174442
0.00177727
0.00181029
0.00184346
0.00187676
0.00191019
0.00194372
0.00197734
0.00201103
0.00204478
0.00207856
0.00211235
0.00214614
0.00217991
0.00221362
0.00224727
0.00228083
0.00231428
0.00234759
0.00238074
0.00241371
0.00244646
0.00247898
0.00251124
0.00254321
0.00257486
0.00260615
0.00263705
0.00266754
0.00269758
0.00272715
0.00275625
0.00278487
0.00281301
0.00284068
0.00286786
0.00289453
0.00292066
0.00294625
0.00297128
0.00299573
0.00301959
0.00304284
0.00306547
0.00308748
0.00310884
0.00312956
0.00314962
0.00316902
0.00318776
0.00320581
0.00322319
0.00323989
0.0032559
0.00327123
0.00328587
0.00329981
0.00331306
0.00332561
0.00333745
0.00334859
0.00335902
0.00336872
0.00337778
0.00338643
0.00339433
0.00340114
0.00340698
0.00341215
0.00341665
0.00342044
0.00342351
0.00342583
0.00342739
0.00342818
0.0034282
0.00342743
0.00342585
0.00342347
0.00342025
0.00341619
0.00341127
0.00340548
0.00339879
0.00339119
0.00338267
0.00337322
0.00336282
0.00335149
0.0033392
0.00332597
0.00331179
0.00329662
0.00328039
0.00326287
0.00324377
0.00322319
0.00320139
0.0031786
0.00315499
0.00313067
0.00310573
0.00308025
0.00305432
0.00302799
0.00300141
0.00297451
0.00294735
0.00292
0.00289246
0.00286469
0.00283642
0.00280686
0.00277265
0.00271863
7.56121e-06
8.79434e-05
0.000182125
0.000257861
0.000316421
0.000361186
0.000396003
0.000423918
0.00044723
0.000467594
0.000486155
0.000503665
0.000520602
0.000537258
0.000553814
0.000570387
0.000587057
0.000603889
0.000620934
0.000638239
0.000655848
0.000673815
0.000692214
0.000711158
0.000730805
0.000751363
0.00077306
0.000796104
0.000820589
0.000846337
0.00087301
0.000900255
0.000927826
0.000955711
0.000984117
0.00101318
0.00104292
0.00107325
0.00110403
0.00113515
0.00116649
0.00119805
0.00122983
0.00126183
0.00129405
0.00132648
0.00135914
0.00139203
0.00142514
0.00145849
0.00149208
0.0015259
0.00155998
0.0015943
0.00162885
0.00166364
0.00169866
0.00173392
0.0017694
0.0018051
0.00184102
0.00187716
0.0019135
0.00195003
0.00198675
0.00202364
0.0020607
0.00209791
0.00213526
0.00217272
0.0022103
0.00224796
0.0022857
0.00232349
0.00236132
0.00239916
0.002437
0.00247482
0.00251259
0.00255029
0.0025879
0.00262539
0.00266275
0.00269995
0.00273695
0.00277375
0.00281031
0.0028466
0.00288259
0.00291827
0.0029536
0.00298854
0.00302308
0.00305719
0.00309083
0.003124
0.00315668
0.00318885
0.0032205
0.00325163
0.00328221
0.00331223
0.00334166
0.00337048
0.00339868
0.00342624
0.00345314
0.00347938
0.00350492
0.00352977
0.00355391
0.00357733
0.00360002
0.00362198
0.00364319
0.00366365
0.00368336
0.00370231
0.0037205
0.00373792
0.00375458
0.00377048
0.0037856
0.00379994
0.00381352
0.00382631
0.00383833
0.00384957
0.00386028
0.00387026
0.00387942
0.00388736
0.00389448
0.0039008
0.00390638
0.00391119
0.00391519
0.00391838
0.00392076
0.0039223
0.003923
0.00392285
0.00392183
0.00391992
0.00391711
0.00391338
0.00390871
0.00390307
0.00389645
0.00388884
0.0038802
0.00387054
0.00385982
0.00384806
0.00383524
0.00382136
0.00380642
0.00379039
0.00377321
0.00375476
0.00373489
0.00371363
0.00369114
0.00366756
0.00364305
0.0036177
0.00359161
0.00356487
0.00353755
0.00350974
0.00348152
0.00345294
0.00342406
0.00339494
0.0033656
0.00333605
0.00330607
0.00327493
0.00323966
0.0031893
8.92129e-06
9.64243e-05
0.000199264
0.00028305
0.000348937
0.000399946
0.000439973
0.000472171
0.000498974
0.000522197
0.000543146
0.000562735
0.000581581
0.000600098
0.000618561
0.000637159
0.000656031
0.000675282
0.000695
0.000715256
0.000736111
0.000757618
0.000779833
0.000802812
0.000826623
0.000851345
0.000877056
0.00090382
0.000931651
0.000960472
0.000990134
0.00102047
0.00105132
0.00108264
0.00111444
0.00114673
0.00117953
0.00121279
0.00124646
0.00128048
0.00131478
0.00134935
0.00138415
0.00141919
0.00145445
0.00148994
0.00152565
0.00156159
0.00159775
0.00163415
0.00167078
0.00170764
0.00174474
0.00178208
0.00181964
0.00185743
0.00189544
0.00193368
0.00197214
0.00201081
0.00204969
0.00208877
0.00212804
0.0021675
0.00220713
0.00224693
0.00228688
0.00232697
0.00236719
0.00240751
0.00244793
0.00248844
0.002529
0.00256961
0.00261025
0.00265089
0.00269151
0.00273211
0.00277265
0.0028131
0.00285346
0.0028937
0.00293379
0.0029737
0.00301342
0.00305291
0.00309216
0.00313113
0.00316979
0.00320813
0.00324611
0.0032837
0.00332089
0.00335763
0.00339392
0.00342972
0.00346502
0.0034998
0.00353405
0.00356773
0.00360085
0.00363336
0.00366525
0.00369651
0.0037271
0.00375702
0.00378623
0.00381474
0.00384251
0.00386955
0.00389582
0.00392133
0.00394606
0.00397
0.00399315
0.00401549
0.00403703
0.00405775
0.00407766
0.00409676
0.00411504
0.0041325
0.00414913
0.00416495
0.00417994
0.00419411
0.00420745
0.00422013
0.00423212
0.00424328
0.00425345
0.00426253
0.0042708
0.00427825
0.00428488
0.0042907
0.00429569
0.00429984
0.00430314
0.00430558
0.00430716
0.00430785
0.00430764
0.00430652
0.00430447
0.00430146
0.00429747
0.00429248
0.00428646
0.00427939
0.00427126
0.00426203
0.0042517
0.00424025
0.00422767
0.00421396
0.00419912
0.00418312
0.00416593
0.00414748
0.00412769
0.00410657
0.0040842
0.00406071
0.00403618
0.00401073
0.00398443
0.00395737
0.00392964
0.00390131
0.00387247
0.0038432
0.00381357
0.00378366
0.00375352
0.00372319
0.00369254
0.00366092
0.00362587
0.00358028
1.01137e-05
0.000103254
0.000213192
0.000303956
0.00037638
0.000433225
0.000478271
0.000514728
0.000545113
0.000571353
0.000594881
0.000616734
0.000637649
0.000658143
0.000678571
0.000699186
0.000720168
0.000741656
0.000763755
0.000786542
0.000810077
0.000834402
0.000859552
0.000885551
0.000912418
0.000940167
0.000968807
0.000998335
0.00102873
0.00105995
0.0010919
0.00112453
0.00115775
0.00119145
0.00122562
0.00126023
0.00129527
0.00133071
0.00136652
0.00140267
0.00143911
0.00147581
0.00151276
0.00154993
0.00158732
0.00162493
0.00166275
0.00170078
0.00173902
0.00177748
0.00181616
0.00185505
0.00189417
0.00193349
0.00197303
0.00201278
0.00205274
0.0020929
0.00213327
0.00217384
0.0022146
0.00225554
0.00229667
0.00233797
0.00237944
0.00242106
0.00246282
0.00250472
0.00254673
0.00258885
0.00263107
0.00267336
0.00271572
0.00275812
0.00280055
0.00284299
0.00288542
0.00292782
0.00297017
0.00301246
0.00305465
0.00309672
0.00313866
0.00318044
0.00322202
0.0032634
0.00330454
0.00334541
0.00338599
0.00342625
0.00346617
0.00350572
0.00354486
0.00358358
0.00362185
0.00365965
0.00369695
0.00373373
0.00376996
0.00380563
0.00384072
0.00387519
0.00390902
0.00394219
0.00397469
0.00400648
0.00403755
0.00406788
0.00409746
0.00412626
0.00415427
0.00418147
0.00420787
0.00423344
0.00425817
0.00428207
0.00430511
0.00432731
0.00434865
0.00436914
0.00438877
0.00440754
0.00442545
0.00444251
0.00445871
0.00447406
0.0044886
0.00450251
0.00451554
0.00452773
0.00453886
0.00454907
0.0045584
0.00456689
0.00457454
0.00458137
0.00458735
0.00459249
0.00459679
0.00460023
0.0046028
0.00460449
0.00460529
0.00460518
0.00460413
0.00460212
0.00459913
0.00459513
0.0045901
0.004584
0.00457682
0.00456852
0.00455909
0.00454851
0.00453677
0.00452386
0.00450976
0.00449447
0.00447796
0.00446019
0.00444112
0.00442075
0.00439914
0.00437635
0.00435247
0.00432757
0.00430175
0.00427507
0.00424762
0.00421948
0.00419074
0.00416148
0.00413181
0.0041018
0.00407156
0.00404115
0.00401049
0.00397907
0.00394492
0.00390348
1.11196e-05
0.00010857
0.000224186
0.000321069
0.000399157
0.00046137
0.000511193
0.000551825
0.000585819
0.000615169
0.000641394
0.000665627
0.000688698
0.000711207
0.000733578
0.00075611
0.000779016
0.000802457
0.000826603
0.000851498
0.000877182
0.000903689
0.000931037
0.000959234
0.000988276
0.00101815
0.00104884
0.00108031
0.00111254
0.00114546
0.00117903
0.00121327
0.00124808
0.00128332
0.001319
0.00135509
0.00139157
0.0014284
0.00146557
0.00150306
0.00154086
0.00157892
0.00161719
0.00165567
0.00169434
0.0017332
0.00177225
0.00181148
0.00185091
0.00189052
0.00193033
0.00197032
0.00201051
0.0020509
0.00209147
0.00213223
0.00217319
0.00221433
0.00225566
0.00229718
0.00233888
0.00238076
0.00242281
0.00246502
0.0025074
0.00254994
0.00259262
0.00263543
0.00267838
0.00272144
0.00276461
0.00280787
0.00285121
0.00289461
0.00293806
0.00298155
0.00302505
0.00306855
0.00311203
0.00315546
0.00319883
0.00324212
0.0032853
0.00332834
0.00337123
0.00341394
0.00345644
0.00349871
0.00354071
0.00358243
0.00362382
0.00366488
0.00370556
0.00374584
0.00378569
0.00382509
0.00386401
0.00390241
0.00394028
0.00397759
0.00401431
0.00405042
0.00408589
0.00412069
0.0041548
0.0041882
0.00422086
0.00425276
0.00428389
0.00431422
0.00434373
0.00437242
0.00440027
0.00442726
0.00445339
0.00447864
0.00450302
0.00452651
0.00454911
0.00457082
0.00459164
0.00461158
0.00463063
0.00464879
0.00466607
0.00468247
0.00469815
0.00471301
0.00472703
0.00474017
0.00475229
0.00476352
0.00477387
0.00478335
0.004792
0.00479981
0.00480681
0.00481297
0.00481831
0.0048228
0.00482646
0.00482926
0.0048312
0.00483224
0.00483239
0.0048316
0.00482985
0.00482712
0.00482337
0.00481857
0.00481269
0.00480571
0.0047976
0.00478832
0.00477787
0.00476624
0.00475339
0.00473933
0.00472404
0.00470749
0.00468966
0.00467054
0.00465016
0.00462857
0.00460584
0.00458202
0.00455718
0.00453141
0.00450478
0.00447737
0.00444926
0.00442056
0.00439137
0.0043618
0.00433195
0.00430194
0.00427173
0.00424093
0.00420797
0.00417007
1.19303e-05
0.000112517
0.000232523
0.00033453
0.000417571
0.000484651
0.000538947
0.000583592
0.000621134
0.000653595
0.000682547
0.000709189
0.000734417
0.000758904
0.000783158
0.000807474
0.000832064
0.000857061
0.000882637
0.000908933
0.000936017
0.000963922
0.00099266
0.00102223
0.00105261
0.00108379
0.00111574
0.00114841
0.00118177
0.00121578
0.0012504
0.00128559
0.00132129
0.00135744
0.00139401
0.00143097
0.00146829
0.00150594
0.0015439
0.00158212
0.00162058
0.00165922
0.00169805
0.00173703
0.00177617
0.00181544
0.00185486
0.00189443
0.00193416
0.00197405
0.0020141
0.00205431
0.00209469
0.00213524
0.00217597
0.00221686
0.00225794
0.00229919
0.00234063
0.00238224
0.00242404
0.00246602
0.00250818
0.00255053
0.00259304
0.00263573
0.00267859
0.00272161
0.00276479
0.00280812
0.00285158
0.00289518
0.00293889
0.00298272
0.00302663
0.00307063
0.00311468
0.00315878
0.00320291
0.00324705
0.00329117
0.00333526
0.00337929
0.00342324
0.00346708
0.00351078
0.00355433
0.00359769
0.00364083
0.00368373
0.00372635
0.00376867
0.00381065
0.00385226
0.00389348
0.00393427
0.0039746
0.00401445
0.00405377
0.00409254
0.00413074
0.00416833
0.00420528
0.00424157
0.00427716
0.00431203
0.00434616
0.00437952
0.00441208
0.00444383
0.00447475
0.00450482
0.00453403
0.00456235
0.00458978
0.00461631
0.00464192
0.00466662
0.00469041
0.00471326
0.0047352
0.00475622
0.00477633
0.00479553
0.00481383
0.00483127
0.00484791
0.00486371
0.00487866
0.00489271
0.00490584
0.00491805
0.00492935
0.00493979
0.00494942
0.00495823
0.00496624
0.00497344
0.00497985
0.00498547
0.00499027
0.00499427
0.00499745
0.00499979
0.00500127
0.00500187
0.00500156
0.00500031
0.00499808
0.00499485
0.00499058
0.00498522
0.00497875
0.00497114
0.00496237
0.0049524
0.00494123
0.00492883
0.00491519
0.00490029
0.00488412
0.00486666
0.00484793
0.00482795
0.00480678
0.00478445
0.00476104
0.00473661
0.00471123
0.00468498
0.00465795
0.00463023
0.00460194
0.00457319
0.00454413
0.00451486
0.00448543
0.00445552
0.00442388
0.00438896
1.25458e-05
0.000115236
0.000238456
0.000344616
0.000431909
0.000503322
0.000561721
0.000610135
0.00065107
0.000686544
0.000718165
0.000747159
0.000774398
0.000800492
0.000826075
0.000851599
0.000877368
0.000903616
0.000930539
0.000958154
0.000986478
0.00101553
0.00104533
0.00107587
0.00110713
0.0011391
0.00117174
0.00120501
0.00123889
0.00127332
0.00130827
0.00134368
0.00137952
0.00141575
0.00145233
0.00148924
0.00152642
0.00156387
0.00160157
0.00163951
0.0016777
0.00171622
0.00175486
0.00179356
0.00183233
0.00187116
0.00191009
0.00194912
0.00198828
0.00202755
0.00206697
0.00210652
0.00214622
0.00218608
0.00222611
0.00226631
0.00230669
0.00234725
0.00238801
0.00242897
0.00247013
0.0025115
0.00255309
0.00259489
0.00263691
0.00267915
0.00272161
0.00276429
0.00280718
0.00285027
0.00289357
0.00293707
0.00298074
0.0030246
0.00306861
0.00311277
0.00315707
0.00320148
0.00324599
0.00329058
0.00333522
0.00337989
0.00342457
0.00346924
0.00351386
0.00355841
0.00360286
0.00364718
0.00369134
0.00373531
0.00377905
0.00382253
0.00386572
0.00390858
0.00395109
0.00399319
0.00403487
0.00407609
0.00411681
0.004157
0.00419662
0.00423565
0.00427405
0.00431178
0.00434882
0.00438514
0.0044207
0.00445549
0.00448947
0.00452263
0.00455493
0.00458637
0.00461691
0.00464655
0.00467526
0.00470305
0.0047299
0.00475579
0.00478074
0.00480473
0.00482777
0.00484986
0.00487101
0.00489123
0.00491053
0.00492895
0.00494651
0.00496325
0.00497914
0.00499414
0.00500825
0.00502143
0.00503364
0.00504504
0.00505564
0.00506546
0.0050745
0.00508278
0.0050903
0.00509707
0.00510309
0.00510836
0.00511287
0.00511661
0.00511956
0.00512169
0.00512298
0.0051234
0.00512291
0.00512147
0.00511904
0.00511557
0.00511104
0.00510539
0.00509861
0.00509065
0.0050815
0.00507112
0.00505951
0.00504664
0.00503249
0.00501705
0.00500033
0.00498232
0.00496308
0.00494262
0.004921
0.00489829
0.00487453
0.00484982
0.00482422
0.00479785
0.00477081
0.00474323
0.00471525
0.00468702
0.0046586
0.00462975
0.0045995
0.00456714
1.29771e-05
0.000116897
0.000242248
0.000351626
0.000442463
0.000517634
0.000579697
0.000631548
0.000675637
0.000713847
0.000747633
0.000778417
0.000807263
0.000835022
0.000862282
0.000889345
0.000916493
0.000943933
0.000971777
0.00100011
0.001029
0.0010585
0.00108863
0.00111939
0.00115076
0.00118273
0.00121527
0.00124834
0.00128191
0.00131595
0.00135041
0.00138525
0.00142044
0.00145593
0.0014917
0.00152772
0.00156396
0.00160038
0.00163698
0.00167382
0.00171096
0.00174841
0.00178591
0.00182344
0.00186097
0.00189847
0.00193598
0.00197356
0.00201123
0.00204901
0.0020869
0.00212493
0.00216311
0.00220146
0.00223999
0.00227872