/*--------------------------------*- C++ -*----------------------------------*\
  =========                 |
  \\      /  F ield         | OpenFOAM: The Open Source CFD Toolbox
   \\    /   O peration     | Website:  https://openfoam.org
    \\  /    A nd           | Version:  8
     \\/     M anipulation  |
\*---------------------------------------------------------------------------*/
FoamFile
{
    version     2.0;
    format      ascii;
    class       volScalarField;
    location    "230";
    object      p;
}
// * * * * * * * * * * * * * * * * * * * * * * * * * * * * * * * * * * * * * //

dimensions      [0 2 -2 0 0 0 0];

internalField   nonuniform List<scalar> 
12225
(
-1.05585
-3.24444
-4.34448
-4.66518
-4.84654
-5.01569
-5.14739
-5.24278
-5.3197
-5.38749
-5.448
-5.50354
-5.55421
-5.60179
-5.64668
-5.68473
-5.73208
-5.70782
-4.21928
-4.98775
-5.14823
-5.05604
-5.04359
-5.11156
-5.18928
-5.25525
-5.31517
-5.373
-5.42812
-5.47967
-5.52841
-5.57463
-5.61934
-5.65927
-5.70525
-5.73816
-4.62041
-4.60543
-4.73281
-4.81122
-4.90619
-5.02647
-5.13386
-5.21893
-5.29104
-5.35677
-5.41737
-5.47291
-5.52488
-5.57364
-5.62074
-5.6641
-5.71317
-5.75621
-4.49847
-4.44158
-4.68321
-4.84157
-4.94338
-5.04968
-5.14753
-5.22778
-5.29681
-5.36026
-5.41928
-5.47389
-5.52526
-5.57377
-5.62084
-5.66572
-5.71413
-5.76182
-4.48812
-4.51258
-4.74066
-4.88226
-4.96595
-5.0581
-5.14946
-5.22737
-5.29518
-5.35774
-5.41629
-5.47081
-5.52227
-5.57117
-5.61874
-5.665
-5.71332
-5.76308
-4.54607
-4.59503
-4.76933
-4.89327
-4.97485
-5.06277
-5.15094
-5.22763
-5.29484
-5.35685
-5.41502
-5.46943
-5.52089
-5.57
-5.6178
-5.66468
-5.71271
-5.76225
-4.60639
-4.65065
-4.78585
-4.90221
-4.98601
-5.07023
-5.15426
-5.22906
-5.29536
-5.35664
-5.41424
-5.46837
-5.51969
-5.56881
-5.61661
-5.6636
-5.71106
-5.75938
-4.6599
-4.69756
-4.80753
-4.91585
-4.99889
-5.07856
-5.15808
-5.2307
-5.29593
-5.35638
-5.41333
-5.46709
-5.51816
-5.56715
-5.61476
-5.6615
-5.70813
-5.75485
-4.7096
-4.74274
-4.83367
-4.93165
-5.01176
-5.08719
-5.16243
-5.23267
-5.29662
-5.3561
-5.41229
-5.46553
-5.51623
-5.56491
-5.61212
-5.6583
-5.70389
-5.74888
-4.7566
-4.78586
-4.86139
-4.94861
-5.02484
-5.09642
-5.1676
-5.23518
-5.2976
-5.35594
-5.41122
-5.46378
-5.51393
-5.5621
-5.60871
-5.65408
-5.69848
-5.74175
-4.80086
-4.82635
-4.88955
-4.96672
-5.03842
-5.10626
-5.17353
-5.23828
-5.29893
-5.35598
-5.41019
-5.46189
-5.51132
-5.55879
-5.60462
-5.64902
-5.69214
-5.73374
-4.83881
-4.86116
-4.91535
-4.98417
-5.05129
-5.11569
-5.17954
-5.24161
-5.30047
-5.35619
-5.4093
-5.46008
-5.5087
-5.55539
-5.60036
-5.64375
-5.68566
-5.72582
-4.87385
-4.89357
-4.94039
-5.00176
-5.06424
-5.12523
-5.18584
-5.24526
-5.30224
-5.35654
-5.40847
-5.45823
-5.50594
-5.55174
-5.59578
-5.63812
-5.67883
-5.71765
-4.91055
-4.92774
-4.96774
-5.02174
-5.07904
-5.13618
-5.19329
-5.24975
-5.3045
-5.35708
-5.40756
-5.45605
-5.5026
-5.54729
-5.59017
-5.63128
-5.67065
-5.70805
-4.94765
-4.96243
-4.99641
-5.04347
-5.09533
-5.14828
-5.2017
-5.25497
-5.30717
-5.35772
-5.40647
-5.45343
-5.49858
-5.54191
-5.58344
-5.62316
-5.66106
-5.697
-4.98318
-4.9958
-5.02471
-5.06564
-5.11217
-5.16083
-5.21052
-5.26052
-5.30997
-5.35824
-5.40504
-5.45024
-5.49376
-5.53554
-5.57554
-5.61374
-5.65014
-5.68461
-5.01423
-5.0251
-5.05004
-5.08595
-5.12779
-5.17246
-5.21864
-5.2655
-5.31222
-5.35814
-5.40286
-5.44617
-5.48793
-5.52804
-5.56644
-5.60308
-5.63797
-5.67102
-5.03645
-5.04609
-5.06833
-5.10076
-5.13917
-5.18075
-5.22412
-5.2684
-5.31276
-5.35656
-5.39934
-5.44085
-5.48091
-5.51939
-5.55623
-5.59139
-5.62485
-5.65658
-5.04294
-5.05209
-5.07328
-5.1044
-5.14145
-5.18166
-5.22364
-5.2665
-5.30946
-5.35187
-5.39329
-5.43343
-5.47214
-5.50931
-5.54486
-5.57878
-5.61107
-5.64173
-5.02658
-5.03634
-5.05892
-5.09197
-5.13092
-5.17255
-5.21544
-5.25887
-5.30214
-5.34459
-5.38582
-5.42561
-5.46384
-5.50044
-5.53537
-5.56863
-5.60024
-5.63026
-4.99958
-5.01036
-5.03561
-5.0726
-5.11532
-5.15977
-5.20478
-5.24993
-5.29446
-5.33771
-5.37937
-5.41935
-5.45761
-5.4941
-5.52883
-5.56182
-5.59314
-5.62285
-4.96425
-4.97606
-5.00539
-5.04894
-5.09717
-5.14509
-5.19283
-5.24047
-5.28692
-5.33141
-5.37383
-5.41429
-5.45279
-5.48936
-5.52405
-5.55692
-5.58807
-5.61759
-4.92363
-4.93552
-4.96995
-5.02319
-5.07868
-5.13057
-5.18139
-5.23175
-5.28017
-5.32596
-5.36928
-5.41037
-5.44927
-5.48603
-5.52077
-5.55364
-5.58471
-5.61415
-4.87988
-4.89084
-4.9326
-4.99698
-5.05911
-5.11573
-5.17127
-5.22505
-5.27523
-5.32196
-5.36599
-5.40757
-5.44674
-5.48361
-5.51837
-5.55118
-5.58218
-5.61151
-4.83291
-4.83841
-4.90105
-4.97922
-5.04111
-5.0993
-5.16037
-5.21865
-5.27109
-5.31905
-5.36398
-5.40616
-5.44561
-5.48256
-5.51729
-5.55003
-5.58096
-5.61024
-4.78958
-4.75325
-4.86276
-4.9737
-5.0359
-5.09112
-5.15326
-5.21292
-5.26606
-5.3147
-5.36033
-5.40304
-5.44283
-5.47997
-5.51481
-5.54762
-5.57857
-5.60787
-4.8038
-4.64484
-4.77374
-4.92778
-5.01784
-5.08914
-5.158
-5.21883
-5.27155
-5.31975
-5.36494
-5.40712
-5.44632
-5.48291
-5.5172
-5.54951
-5.58005
-5.60907
-4.92698
-4.74659
-4.76074
-4.83284
-4.92116
-5.02032
-5.11094
-5.18464
-5.24626
-5.30132
-5.35155
-5.39724
-5.43896
-5.47737
-5.51298
-5.54624
-5.57762
-5.60772
-4.63435
-5.22544
-5.31424
-5.18996
-5.13557
-5.16267
-5.20958
-5.25275
-5.29423
-5.33633
-5.37774
-5.41699
-5.45387
-5.48852
-5.521
-5.55148
-5.58017
-5.60885
-1.64502
-3.40832
-4.41299
-4.7121
-4.86123
-5.00479
-5.11876
-5.19964
-5.26379
-5.32058
-5.37175
-5.41771
-5.45931
-5.49746
-5.53268
-5.56476
-5.59354
-5.61729
-6.49249
-6.49255
-6.493
-6.4939
-6.49511
-6.4966
-6.49836
-6.50042
-6.50279
-6.50553
-6.50865
-6.51221
-6.51624
-6.52078
-6.52588
-6.53157
-6.53792
-6.54497
-6.55277
-6.56141
-6.571
-6.58163
-6.59331
-6.60579
-6.61877
-6.63241
-6.64735
-6.66335
-6.67943
-6.69501
-6.71077
-6.72885
-6.74976
-6.77377
-6.80139
-6.8319
-6.86236
-6.88816
-6.90992
-6.92919
-6.94997
-6.97455
-7.00054
-7.02764
-7.05544
-7.08375
-7.11241
-7.14131
-7.17033
-7.19938
-7.22836
-7.2572
-7.28578
-7.31403
-7.34184
-7.36911
-7.39574
-7.42163
-7.44664
-7.47068
-7.49359
-7.51527
-7.53555
-7.55432
-7.57141
-7.58666
-7.59992
-7.61103
-7.6198
-7.62607
-7.62965
-7.63038
-7.62804
-7.62246
-7.61345
-7.60083
-7.58439
-7.56396
-7.53932
-7.51031
-7.47672
-7.43839
-7.39511
-7.34673
-7.29305
-7.23393
-7.1692
-7.09876
-7.02243
-6.94005
-6.85149
-6.75659
-6.65526
-6.5475
-6.43337
-6.31294
-6.1861
-6.05243
-5.91163
-5.7638
-5.60907
-5.44748
-5.27907
-5.10386
-4.92185
-4.7331
-4.53763
-4.33551
-4.12681
-3.91161
-3.69
-3.46208
-3.22796
-2.98777
-2.74164
-2.48971
-2.23213
-1.96905
-1.70067
-1.42719
-1.14881
-0.865755
-0.578208
-0.286395
0.00945365
0.309074
0.612211
0.918582
1.22791
1.5399
1.85422
2.17053
2.48847
2.80769
3.12785
3.4486
3.76956
4.09034
4.41054
4.72977
5.04765
5.36379
5.67776
5.98916
6.29757
6.60257
6.90374
7.20065
7.49291
7.78008
8.06178
8.33762
8.60724
8.8703
9.12646
9.37545
9.617
9.85089
10.077
10.2954
10.5058
10.708
10.9018
11.0872
11.2643
11.433
11.5934
11.7458
11.8901
12.0267
12.1556
12.277
12.3914
12.499
12.6004
12.6964
12.7891
12.8807
12.9859
13.1025
-6.49084
-6.49126
-6.49192
-6.49269
-6.49337
-6.49404
-6.49488
-6.49605
-6.49762
-6.49963
-6.50211
-6.50507
-6.50854
-6.51252
-6.51706
-6.52217
-6.5279
-6.53428
-6.54135
-6.54916
-6.55773
-6.56702
-6.57697
-6.58747
-6.59871
-6.61104
-6.62397
-6.63701
-6.65076
-6.66649
-6.68552
-6.7063
-6.72719
-6.74763
-6.76694
-6.7851
-6.80363
-6.82722
-6.85577
-6.88794
-6.92042
-6.94952
-6.97785
-7.00603
-7.03432
-7.0628
-7.09146
-7.12024
-7.1491
-7.17795
-7.20673
-7.23535
-7.26373
-7.29179
-7.31943
-7.34655
-7.37306
-7.39885
-7.4238
-7.4478
-7.47072
-7.49243
-7.51279
-7.53167
-7.54891
-7.56436
-7.57786
-7.58925
-7.59835
-7.60499
-7.60899
-7.61018
-7.60835
-7.60334
-7.59495
-7.58298
-7.56726
-7.54758
-7.52375
-7.4956
-7.46292
-7.42555
-7.38328
-7.33596
-7.2834
-7.22545
-7.16193
-7.09274
-7.01771
-6.93672
-6.84965
-6.75636
-6.65671
-6.55061
-6.43794
-6.31858
-6.19238
-6.05939
-5.91975
-5.77342
-5.6203
-5.46038
-5.29365
-5.12013
-4.93984
-4.75279
-4.55905
-4.35866
-4.15169
-3.93822
-3.71833
-3.49214
-3.25974
-3.02126
-2.77683
-2.52658
-2.27067
-2.00925
-1.74251
-1.47063
-1.19384
-0.912332
-0.626302
-0.335965
-0.0415606
0.256658
0.558427
0.863476
1.17154
1.48233
1.79552
2.11076
2.4277
2.74599
3.0653
3.38528
3.70555
4.02572
4.34541
4.66422
4.98179
5.2977
5.61157
5.92297
6.2315
6.53673
6.83825
7.13565
7.4285
7.7164
7.99895
8.27576
8.54647
8.81073
9.06822
9.31865
9.56182
9.79739
10.025
10.2443
10.4554
10.6583
10.8529
11.0392
11.2171
11.3869
11.5484
11.7019
11.8474
11.9851
12.1152
12.2379
12.3536
12.4625
12.5655
12.6632
12.758
12.8517
12.9583
13.0673
-6.48597
-6.48724
-6.48905
-6.49046
-6.49129
-6.49186
-6.49249
-6.49337
-6.49462
-6.49633
-6.49851
-6.5012
-6.50442
-6.50818
-6.5125
-6.51742
-6.52296
-6.52914
-6.536
-6.54357
-6.55186
-6.56085
-6.57049
-6.58073
-6.59169
-6.60357
-6.6164
-6.63018
-6.64526
-6.66224
-6.68149
-6.70249
-6.72433
-6.74634
-6.76756
-6.78745
-6.80666
-6.82737
-6.85089
-6.87719
-6.90506
-6.93288
-6.96068
-6.98853
-7.01649
-7.04457
-7.07277
-7.10106
-7.12941
-7.15774
-7.186
-7.21412
-7.24201
-7.2696
-7.29681
-7.32352
-7.34966
-7.37511
-7.39975
-7.42349
-7.44619
-7.46772
-7.48795
-7.50675
-7.52395
-7.53941
-7.55298
-7.56448
-7.57375
-7.58062
-7.5849
-7.58643
-7.58501
-7.58046
-7.57259
-7.56122
-7.54614
-7.52718
-7.50414
-7.47683
-7.44506
-7.40866
-7.36744
-7.32123
-7.26985
-7.21313
-7.15092
-7.08306
-7.0094
-6.92982
-6.84422
-6.75247
-6.65446
-6.5501
-6.43925
-6.32177
-6.1975
-6.06646
-5.92872
-5.7843
-5.63313
-5.47521
-5.31051
-5.13905
-4.96084
-4.7759
-4.58428
-4.38603
-4.18122
-3.96991
-3.75221
-3.5282
-3.298
-3.0617
-2.81947
-2.5714
-2.31767
-2.05842
-1.79384
-1.52411
-1.24945
-0.970034
-0.686073
-0.397773
-0.105378
0.190865
0.490689
0.793838
1.10005
1.40905
1.7205
2.03405
2.34938
2.66614
2.98399
3.30258
3.62155
3.9405
4.25906
4.57684
4.89347
5.20855
5.52169
5.83247
6.14049
6.44535
6.74661
7.04388
7.33673
7.62477
7.90759
8.18482
8.45606
8.72098
8.97923
9.2305
9.47452
9.7111
9.94005
10.1612
10.3744
10.5795
10.7763
10.965
11.1453
11.3173
11.4811
11.6369
11.7846
11.9246
12.0568
12.1817
12.2996
12.4108
12.516
12.6161
12.7136
12.8091
12.9163
13.011
-6.4784
-6.48067
-6.48413
-6.48682
-6.48849
-6.48962
-6.4906
-6.49165
-6.49295
-6.49461
-6.4967
-6.49927
-6.50235
-6.50597
-6.51016
-6.51493
-6.52031
-6.52633
-6.53301
-6.54037
-6.54844
-6.5572
-6.56665
-6.57679
-6.5877
-6.59951
-6.61234
-6.6263
-6.64156
-6.6583
-6.67662
-6.6963
-6.71693
-6.73815
-6.75956
-6.78092
-6.80233
-6.82444
-6.84779
-6.87255
-6.89843
-6.92494
-6.95183
-6.97901
-7.0064
-7.03397
-7.06169
-7.08952
-7.11742
-7.14532
-7.17316
-7.20088
-7.2284
-7.25565
-7.28253
-7.30897
-7.33485
-7.36008
-7.38454
-7.40813
-7.43072
-7.45219
-7.47239
-7.49119
-7.50845
-7.524
-7.5377
-7.54938
-7.55888
-7.56601
-7.57061
-7.57249
-7.57147
-7.56736
-7.55998
-7.54914
-7.53465
-7.51632
-7.49395
-7.46736
-7.43636
-7.40077
-7.3604
-7.31509
-7.26465
-7.20893
-7.14775
-7.08097
-7.00842
-6.92997
-6.84551
-6.75491
-6.65807
-6.55489
-6.44526
-6.32907
-6.2062
-6.07665
-5.94041
-5.79749
-5.64784
-5.49146
-5.32833
-5.15846
-4.98184
-4.79853
-4.60854
-4.41194
-4.20879
-3.99916
-3.78313
-3.56081
-3.3323
-3.0977
-2.85715
-2.61078
-2.35873
-2.10116
-1.83825
-1.57018
-1.29716
-1.01936
-0.736989
-0.450259
-0.159412
0.135307
0.433635
0.735324
1.04012
1.34773
1.65783
1.97007
2.28414
2.59971
2.91643
3.23394
3.55187
3.86986
4.18753
4.50448
4.82036
5.13476
5.44728
5.75754
6.06512
6.36961
6.67061
6.96771
7.26049
7.54855
7.83149
8.10893
8.3805
8.64587
8.90471
9.15671
9.40159
9.63919
9.86931
10.0918
10.3065
10.5132
10.7118
10.9022
11.0842
11.2581
11.4237
11.5812
11.7308
11.8725
12.0065
12.1331
12.2527
12.3656
12.4725
12.5743
12.6731
12.7682
12.8724
12.9517
-6.47007
-6.47336
-6.47866
-6.48288
-6.48562
-6.48758
-6.48919
-6.49071
-6.49235
-6.49425
-6.49651
-6.4992
-6.50238
-6.50608
-6.51033
-6.51516
-6.52061
-6.52671
-6.53347
-6.54093
-6.54911
-6.55802
-6.56768
-6.5781
-6.58935
-6.60151
-6.61469
-6.62898
-6.64446
-6.66119
-6.67914
-6.69815
-6.71797
-6.73841
-6.75931
-6.78065
-6.80253
-6.82515
-6.84866
-6.87308
-6.89826
-6.92404
-6.95028
-6.97687
-7.00374
-7.03085
-7.05814
-7.08556
-7.11307
-7.14061
-7.16811
-7.19552
-7.22275
-7.24973
-7.27638
-7.3026
-7.3283
-7.35338
-7.37772
-7.40122
-7.42375
-7.44519
-7.46539
-7.48423
-7.50155
-7.51721
-7.53103
-7.54288
-7.55256
-7.55992
-7.56477
-7.56694
-7.56624
-7.56248
-7.55549
-7.54506
-7.53101
-7.51314
-7.49128
-7.46521
-7.43478
-7.39977
-7.36002
-7.31535
-7.26559
-7.21056
-7.15011
-7.08408
-7.01232
-6.93469
-6.85106
-6.76131
-6.66532
-6.56301
-6.45426
-6.339
-6.21713
-6.08862
-5.95345
-5.81159
-5.66303
-5.50774
-5.34571
-5.17695
-5.00147
-4.81929
-4.63046
-4.43504
-4.23306
-4.02463
-3.8098
-3.58869
-3.36139
-3.12801
-2.88867
-2.64351
-2.39267
-2.13631
-1.8746
-1.60774
-1.33588
-1.05924
-0.778005
-0.492397
-0.202644
0.0909943
0.388277
0.688951
0.992765
1.29942
1.60858
1.91993
2.23315
2.54793
2.8639
3.18071
3.498
3.81538
4.1325
4.44897
4.76442
5.07845
5.39068
5.70069
6.0081
6.31249
6.61345
6.91057
7.20346
7.4917
7.77492
8.05274
8.32478
8.59071
8.85019
9.10292
9.34862
9.58706
9.81803
10.0414
10.257
10.4647
10.6643
10.8557
11.0389
11.2139
11.3807
11.5394
11.69
11.8329
11.9681
12.0958
12.2165
12.3304
12.4383
12.5406
12.6394
12.7329
12.8328
12.8982
-6.46265
-6.46692
-6.47386
-6.47951
-6.48336
-6.48622
-6.48858
-6.49072
-6.49287
-6.49518
-6.4978
-6.50079
-6.50424
-6.50819
-6.51269
-6.51776
-6.52346
-6.5298
-6.53682
-6.54456
-6.55304
-6.56229
-6.57232
-6.58317
-6.59487
-6.60747
-6.62105
-6.63564
-6.65131
-6.66805
-6.68584
-6.70455
-6.72404
-6.74417
-6.76486
-6.78609
-6.80792
-6.83045
-6.85372
-6.87772
-6.90239
-6.92762
-6.95333
-6.97944
-7.00587
-7.03257
-7.0595
-7.08658
-7.11378
-7.14103
-7.16828
-7.19545
-7.22247
-7.24927
-7.27575
-7.30184
-7.32743
-7.35243
-7.37672
-7.40019
-7.42272
-7.44418
-7.46444
-7.48335
-7.50078
-7.51655
-7.53053
-7.54254
-7.55242
-7.55999
-7.56507
-7.56749
-7.56706
-7.5636
-7.55691
-7.54681
-7.5331
-7.5156
-7.49411
-7.46845
-7.43842
-7.40384
-7.36453
-7.32032
-7.27102
-7.21648
-7.15653
-7.09102
-7.01978
-6.9427
-6.85964
-6.77048
-6.6751
-6.5734
-6.46528
-6.35067
-6.22949
-6.10169
-5.96725
-5.82614
-5.67832
-5.52379
-5.36254
-5.19456
-5.01988
-4.83852
-4.65052
-4.45593
-4.25482
-4.04725
-3.83331
-3.61309
-3.38669
-3.15422
-2.91579
-2.67155
-2.42163
-2.16619
-1.90541
-1.63945
-1.3685
-1.09275
-0.812382
-0.527633
-0.23873
0.0540807
0.35056
0.650463
0.953526
1.25944
1.56789
1.87856
2.19116
2.50535
2.82077
3.13707
3.45389
3.77086
4.08761
4.40377
4.71896
5.03278
5.34486
5.65478
5.96215
6.26656
6.56762
6.8649
7.15803
7.44659
7.73021
8.00848
8.28105
8.54757
8.80769
9.06111
9.30755
9.54673
9.77845
10.0025
10.2188
10.4272
10.6276
10.8198
11.0038
11.1796
11.3473
11.5068
11.6583
11.802
11.938
12.0665
12.1878
12.3023
12.4106
12.513
12.611
12.7021
12.7978
12.8511
-6.45737
-6.46247
-6.47069
-6.47751
-6.48237
-6.48609
-6.48921
-6.49201
-6.49473
-6.49754
-6.5006
-6.504
-6.50783
-6.51214
-6.51698
-6.5224
-6.52843
-6.53512
-6.54249
-6.55058
-6.55942
-6.56904
-6.57945
-6.5907
-6.6028
-6.61578
-6.62968
-6.64451
-6.6603
-6.67704
-6.69469
-6.7132
-6.73246
-6.75241
-6.77299
-6.79416
-6.81593
-6.83834
-6.86141
-6.88511
-6.9094
-6.93425
-6.95956
-6.9853
-7.01139
-7.03778
-7.06442
-7.09126
-7.11823
-7.14528
-7.17235
-7.19937
-7.22627
-7.25296
-7.27938
-7.30541
-7.33098
-7.35597
-7.38028
-7.4038
-7.42639
-7.44793
-7.46828
-7.48731
-7.50487
-7.5208
-7.53494
-7.54713
-7.55719
-7.56496
-7.57026
-7.5729
-7.5727
-7.56948
-7.56303
-7.55318
-7.53974
-7.5225
-7.50128
-7.47589
-7.44614
-7.41184
-7.37283
-7.32891
-7.27991
-7.22568
-7.16604
-7.10084
-7.02993
-6.95319
-6.87047
-6.78167
-6.68665
-6.58533
-6.47762
-6.36342
-6.24268
-6.11534
-5.98136
-5.84072
-5.6934
-5.53937
-5.37863
-5.21117
-5.03704
-4.85623
-4.66882
-4.47482
-4.27433
-4.06738
-3.85409
-3.63453
-3.4088
-3.17701
-2.93928
-2.69574
-2.44654
-2.19181
-1.93175
-1.66651
-1.39628
-1.12122
-0.841557
-0.557494
-0.269276
0.0228729
0.318707
0.617989
0.920434
1.22575
1.53362
1.84375
2.15585
2.46956
2.78454
3.10043
3.41688
3.73353
4.04999
4.36592
4.68091
4.9946
5.30657
5.61646
5.92384
6.22835
6.52955
6.82706
7.12046
7.40938
7.6934
7.97215
8.24524
8.51233
8.77306
9.02714
9.27424
9.51412
9.74653
9.97129
10.1883
10.3973
10.5983
10.7912
10.9759
11.1524
11.3207
11.4809
11.633
11.7773
11.9139
12.0429
12.1647
12.2795
12.3878
12.4897
12.5866
12.675
12.767
12.8097
-6.45495
-6.46064
-6.46972
-6.47741
-6.48308
-6.48756
-6.49136
-6.49478
-6.49806
-6.50139
-6.50492
-6.50876
-6.513
-6.51771
-6.52294
-6.52874
-6.53514
-6.5422
-6.54994
-6.55839
-6.56758
-6.57755
-6.58831
-6.59988
-6.61229
-6.62556
-6.63969
-6.6547
-6.67058
-6.68732
-6.70489
-6.72326
-6.74237
-6.76218
-6.78263
-6.80372
-6.82542
-6.84773
-6.87065
-6.89416
-6.91822
-6.94281
-6.96788
-6.99336
-7.01922
-7.04541
-7.07187
-7.09855
-7.12539
-7.15233
-7.17932
-7.20628
-7.23314
-7.25982
-7.28624
-7.31231
-7.33792
-7.36298
-7.38738
-7.41099
-7.4337
-7.45537
-7.47586
-7.49504
-7.51276
-7.52885
-7.54316
-7.55553
-7.56577
-7.57373
-7.57921
-7.58203
-7.58202
-7.57897
-7.57271
-7.56304
-7.54976
-7.53269
-7.51164
-7.48641
-7.45682
-7.42268
-7.38382
-7.34005
-7.29121
-7.23712
-7.17763
-7.11258
-7.04182
-6.96523
-6.88267
-6.79403
-6.69919
-6.59806
-6.49054
-6.37655
-6.25603
-6.12894
-5.99522
-5.85485
-5.7078
-5.55406
-5.39362
-5.2265
-5.0527
-4.87226
-4.68523
-4.49164
-4.29156
-4.08507
-3.87224
-3.65316
-3.42793
-3.19665
-2.95945
-2.71645
-2.4678
-2.21365
-1.95416
-1.68949
-1.41981
-1.14532
-0.86622
-0.582718
-0.29505
-0.00344147
0.291871
0.590637
0.892574
1.19739
1.5048
1.8145
2.12618
2.4395
2.75412
3.06968
3.38583
3.7022
4.01844
4.33417
4.64901
4.96259
5.27452
5.5844
5.89184
6.19646
6.49783
6.79557
7.08927
7.37854
7.66296
7.94216
8.21576
8.48339
8.7447
8.99937
9.2471
9.48761
9.72066
9.94606
10.1637
10.3733
10.5749
10.7684
10.9536
11.1307
11.2995
11.4602
11.6129
11.7576
11.8946
12.0239
12.1459
12.2608
12.3688
12.4701
12.5655
12.6512
12.7398
12.7732
-6.45563
-6.46165
-6.47119
-6.47943
-6.48569
-6.49075
-6.49512
-6.49907
-6.50286
-6.50665
-6.51062
-6.51488
-6.51951
-6.5246
-6.5302
-6.53635
-6.54311
-6.5505
-6.55857
-6.56734
-6.57685
-6.58711
-6.59814
-6.60997
-6.62261
-6.63607
-6.65036
-6.66547
-6.68141
-6.69815
-6.71568
-6.73397
-6.75298
-6.77268
-6.79304
-6.81405
-6.83567
-6.8579
-6.88073
-6.90412
-6.92806
-6.95251
-6.97743
-7.00278
-7.02852
-7.0546
-7.08098
-7.10759
-7.13439
-7.16132
-7.18831
-7.2153
-7.24221
-7.26896
-7.29546
-7.32162
-7.34735
-7.37254
-7.39707
-7.42083
-7.44369
-7.46553
-7.48619
-7.50554
-7.52342
-7.53969
-7.55417
-7.5667
-7.5771
-7.58521
-7.59083
-7.59379
-7.59391
-7.59098
-7.58482
-7.57525
-7.56206
-7.54506
-7.52407
-7.49889
-7.46934
-7.43524
-7.3964
-7.35264
-7.30381
-7.24972
-7.19023
-7.12517
-7.05442
-6.97782
-6.89526
-6.80662
-6.71179
-6.61068
-6.50318
-6.38924
-6.26878
-6.14176
-6.00812
-5.86786
-5.72092
-5.56731
-5.40702
-5.24007
-5.06646
-4.88624
-4.69944
-4.50612
-4.30633
-4.10015
-3.88765
-3.66893
-3.44407
-3.21319
-2.9764
-2.73384
-2.48564
-2.23195
-1.97291
-1.70871
-1.4395
-1.16547
-0.886833
-0.603801
-0.316587
-0.0254296
0.269445
0.567771
0.869282
1.17369
1.48071
1.79005
2.10139
2.41438
2.72869
3.04397
3.35986
3.67601
3.99207
4.30764
4.62238
4.93589
5.2478
5.55771
5.86524
6.16998
6.47155
6.76953
7.06353
7.35314
7.63796
7.9176
8.19168
8.45982
8.72166
8.97689
9.22518
9.46627
9.6999
9.92586
10.144
10.3542
10.5563
10.7502
10.9359
11.1134
11.2827
11.4438
11.5968
11.7419
11.8791
12.0087
12.1307
12.2454
12.353
12.4533
12.5472
12.6302
12.7157
12.7412
-6.45932
-6.46545
-6.47507
-6.48354
-6.49015
-6.49561
-6.50039
-6.50476
-6.50895
-6.51313
-6.51747
-6.52207
-6.52704
-6.53244
-6.53834
-6.5448
-6.55184
-6.55951
-6.56785
-6.57687
-6.58661
-6.59709
-6.60832
-6.62033
-6.63312
-6.6467
-6.66107
-6.67624
-6.6922
-6.70893
-6.72642
-6.74465
-6.7636
-6.78323
-6.80353
-6.82448
-6.84606
-6.86825
-6.89103
-6.91438
-6.93827
-6.96267
-6.98755
-7.01287
-7.03858
-7.06466
-7.09104
-7.11769
-7.14454
-7.17153
-7.19861
-7.22569
-7.25272
-7.2796
-7.30624
-7.33256
-7.35846
-7.38381
-7.40852
-7.43246
-7.4555
-7.47751
-7.49835
-7.51787
-7.53591
-7.55233
-7.56695
-7.57961
-7.59013
-7.59834
-7.60405
-7.60708
-7.60725
-7.60436
-7.59822
-7.58865
-7.57544
-7.55842
-7.53738
-7.51214
-7.48252
-7.44832
-7.40938
-7.36551
-7.31655
-7.26233
-7.2027
-7.13751
-7.0666
-6.98987
-6.90717
-6.81839
-6.72344
-6.6222
-6.5146
-6.40056
-6.28002
-6.15294
-6.01926
-5.87896
-5.73202
-5.57842
-5.41817
-5.25127
-5.07775
-4.89764
-4.71098
-4.51782
-4.31823
-4.11227
-3.90002
-3.68158
-3.45702
-3.22647
-2.99002
-2.74783
-2.50001
-2.24671
-1.98807
-1.72427
-1.45546
-1.18184
-0.903612
-0.620987
-0.334179
-0.0434197
0.251056
0.548989
0.850118
1.15416
1.46083
1.76985
2.08086
2.39355
2.70759
3.02261
3.33828
3.65424
3.97013
4.28559
4.60024
4.91371
5.22562
5.53558
5.8432
6.14809
6.44986
6.74808
7.04238
7.33234
7.61755
7.89762
8.17215
8.44077
8.70312
8.95886
9.20767
9.44927
9.68341
9.90988
10.1285
10.3391
10.5417
10.736
10.9221
11.0999
11.2695
11.4309
11.5842
11.7295
11.8669
11.9965
12.1184
12.2328
12.3398
12.4391
12.5313
12.6117
12.6945
12.713
-6.46572
-6.47173
-6.48113
-6.48955
-6.49627
-6.50193
-6.50697
-6.51161
-6.51607
-6.52053
-6.52513
-6.52999
-6.5352
-6.54084
-6.54696
-6.55362
-6.56086
-6.56872
-6.57723
-6.58641
-6.59629
-6.6069
-6.61825
-6.63035
-6.64322
-6.65685
-6.67127
-6.68645
-6.70241
-6.71912
-6.73658
-6.75477
-6.77368
-6.79328
-6.81355
-6.83449
-6.85606
-6.87825
-6.90105
-6.92442
-6.94834
-6.97277
-6.99769
-7.02306
-7.04884
-7.07499
-7.10146
-7.12821
-7.15518
-7.18231
-7.20954
-7.23678
-7.26398
-7.29103
-7.31786
-7.34437
-7.37045
-7.396
-7.42089
-7.44501
-7.46823
-7.4904
-7.51139
-7.53105
-7.54922
-7.56574
-7.58045
-7.59317
-7.60374
-7.61198
-7.6177
-7.62071
-7.62084
-7.61789
-7.61167
-7.60199
-7.58866
-7.57149
-7.55029
-7.52487
-7.49504
-7.46063
-7.42146
-7.37736
-7.32815
-7.27368
-7.21379
-7.14833
-7.07716
-7.00016
-6.91721
-6.82819
-6.73299
-6.63152
-6.5237
-6.40947
-6.28875
-6.1615
-6.02768
-5.88726
-5.74023
-5.58656
-5.42626
-5.25935
-5.08585
-4.90578
-4.71921
-4.52616
-4.32672
-4.12093
-3.90889
-3.69068
-3.46639
-3.23612
-2.99999
-2.75813
-2.51066
-2.25772
-1.99946
-1.73603
-1.46761
-1.19437
-0.916541
-0.634307
-0.347904
-0.0575419
0.236532
0.534082
0.834834
1.13852
1.44486
1.75354
2.06424
2.37663
2.69039
3.00518
3.32063
3.63641
3.95216
4.26751
4.58209
4.89553
5.20745
5.51747
5.82519
6.13023
6.43219
6.73067
7.02525
7.31555
7.60113
7.88161
8.15658
8.42565
8.68846
8.94467
9.19395
9.43601
9.6706
9.8975
10.1165
10.3275
10.5304
10.7251
10.9115
11.0896
11.2594
11.4211
11.5745
11.7199
11.8573
11.9868
12.1085
12.2225
12.3287
12.4269
12.5174
12.5953
12.6755
12.6882
-6.47437
-6.4801
-6.489
-6.49712
-6.50375
-6.50943
-6.51455
-6.51931
-6.52391
-6.52851
-6.53325
-6.53825
-6.54358
-6.54934
-6.55557
-6.56233
-6.56966
-6.57759
-6.58617
-6.59541
-6.60535
-6.61601
-6.62739
-6.63953
-6.65241
-6.66607
-6.68048
-6.69566
-6.7116
-6.7283
-6.74575
-6.76392
-6.78282
-6.80242
-6.82271
-6.84368
-6.86529
-6.88753
-6.91038
-6.93381
-6.9578
-6.98233
-7.00735
-7.03284
-7.05875
-7.08505
-7.11168
-7.1386
-7.16574
-7.19305
-7.22046
-7.24789
-7.27528
-7.30253
-7.32955
-7.35625
-7.38251
-7.40823
-7.43328
-7.45755
-7.48089
-7.50318
-7.52426
-7.54398
-7.5622
-7.57875
-7.59345
-7.60615
-7.61667
-7.62483
-7.63044
-7.63333
-7.6333
-7.63017
-7.62374
-7.61384
-7.60026
-7.58282
-7.56133
-7.53561
-7.50547
-7.47073
-7.43121
-7.38675
-7.33718
-7.28235
-7.22209
-7.15626
-7.08473
-7.00738
-6.92408
-6.83472
-6.73919
-6.63742
-6.52931
-6.4148
-6.29383
-6.16636
-6.03234
-5.89175
-5.74457
-5.59078
-5.43041
-5.26345
-5.08993
-4.90989
-4.72337
-4.53042
-4.3311
-4.12549
-3.91365
-3.69566
-3.47163
-3.24166
-3.00586
-2.76434
-2.51724
-2.26469
-2.00681
-1.74378
-1.47576
-1.20294
-0.925531
-0.643725
-0.357747
-0.0678137
0.225845
0.522988
0.823346
1.12666
1.43264
1.74098
2.05133
2.36342
2.6769
2.99143
3.30666
3.62226
3.93785
4.25309
4.56759
4.88099
5.19291
5.50297
5.81079
6.11596
6.41811
6.71682
7.01168
7.30229
7.58822
7.86908
8.14445
8.41393
8.67716
8.93379
9.18349
9.42596
9.66095
9.88822
10.1076
10.3189
10.5221
10.717
10.9037
11.082
11.252
11.4137
11.5673
11.7127
11.85
11.9794
12.1008
12.2142
12.3196
12.4165
12.5054
12.5809
12.6588
12.6665
-6.48474
-6.49006
-6.49828
-6.50591
-6.51225
-6.51778
-6.5228
-6.52752
-6.5321
-6.53669
-6.54143
-6.54643
-6.55176
-6.5575
-6.56371
-6.57045
-6.57776
-6.58568
-6.59424
-6.60347
-6.61339
-6.62403
-6.6354
-6.64751
-6.66037
-6.674
-6.6884
-6.70356
-6.71949
-6.73617
-6.75361
-6.7718
-6.79072
-6.81035
-6.83068
-6.85169
-6.87336
-6.89567
-6.9186
-6.94214
-6.96625
-6.99091
-7.01608
-7.04174
-7.06783
-7.09431
-7.12113
-7.14823
-7.17556
-7.20305
-7.23064
-7.25825
-7.28581
-7.31322
-7.3404
-7.36723
-7.39362
-7.41944
-7.44458
-7.4689
-7.49228
-7.51458
-7.53564
-7.55533
-7.57347
-7.58992
-7.60449
-7.61704
-7.62737
-7.63531
-7.64068
-7.6433
-7.64298
-7.63954
-7.63278
-7.62252
-7.60856
-7.59073
-7.56884
-7.54269
-7.51211
-7.47693
-7.43697
-7.39206
-7.34204
-7.28675
-7.22604
-7.15977
-7.0878
-7.01002
-6.92632
-6.83656
-6.74066
-6.63853
-6.53009
-6.41528
-6.29403
-6.16631
-6.03207
-5.89129
-5.74396
-5.59006
-5.4296
-5.26261
-5.08909
-4.9091
-4.72265
-4.52983
-4.33067
-4.12526
-3.91365
-3.69595
-3.47222
-3.2426
-3.00716
-2.76605
-2.51936
-2.26723
-2.0098
-1.74722
-1.47966
-1.20732
-0.930376
-0.649056
-0.363554
-0.0740918
0.219115
0.515802
0.815727
1.11863
1.42421
1.73214
2.04212
2.35387
2.66704
2.98128
3.29628
3.61166
3.92708
4.24217
4.55657
4.86991
5.18181
5.4919
5.79978
6.10507
6.40738
6.70628
7.00139
7.29228
7.57854
7.85973
8.13545
8.4053
8.6689
8.9259
9.17595
9.41877
9.65409
9.88167
10.1013
10.3129
10.5163
10.7114
10.8982
11.0767
11.2468
11.4086
11.5621
11.7075
11.8447
11.9738
12.0948
12.2076
12.3122
12.4078
12.495
12.5683
12.6439
12.6475
-6.49633
-6.50116
-6.50858
-6.51556
-6.52147
-6.52666
-6.53141
-6.53591
-6.54029
-6.54472
-6.5493
-6.55414
-6.55932
-6.56492
-6.57101
-6.57763
-6.58482
-6.59263
-6.60109
-6.61023
-6.62006
-6.63062
-6.64192
-6.65397
-6.66678
-6.68036
-6.69472
-6.70986
-6.72577
-6.74244
-6.75988
-6.77807
-6.797
-6.81666
-6.83703
-6.8581
-6.87984
-6.90225
-6.92529
-6.94896
-6.97322
-6.99804
-7.02338
-7.04921
-7.07547
-7.10211
-7.12909
-7.15634
-7.1838
-7.21142
-7.23912
-7.26683
-7.29448
-7.32196
-7.34918
-7.37604
-7.40242
-7.42822
-7.4533
-7.47754
-7.5008
-7.52295
-7.54384
-7.56332
-7.58123
-7.59741
-7.61169
-7.62391
-7.6339
-7.64147
-7.64645
-7.64865
-7.6479
-7.644
-7.63677
-7.62603
-7.61158
-7.59325
-7.57084
-7.54418
-7.51308
-7.47738
-7.4369
-7.39147
-7.34094
-7.28514
-7.22394
-7.15719
-7.08476
-7.00654
-6.92241
-6.83225
-6.73596
-6.63348
-6.52471
-6.4096
-6.28809
-6.16014
-6.02571
-5.88477
-5.73732
-5.58334
-5.42286
-5.25587
-5.08241
-4.90251
-4.71621
-4.52357
-4.32465
-4.11951
-3.90822
-3.69086
-3.46753
-3.23833
-3.00336
-2.76272
-2.51653
-2.26491
-2.008
-1.74596
-1.47895
-1.20716
-0.930784
-0.650023
-0.365069
-0.0761381
0.216534
0.512699
0.81213
1.11456
1.41966
1.72711
2.03667
2.34802
2.66083
2.97475
3.28945
3.60457
3.91977
4.23468
4.54894
4.86218
5.17402
5.48409
5.79201
6.09737
6.39979
6.69886
6.99417
7.2853
7.57182
7.8533
8.12932
8.39948
8.66339
8.92068
9.17103
9.41413
9.64971
9.87754
10.0974
10.3092
10.5128
10.708
10.8949
11.0734
11.2435
11.4054
11.5589
11.7041
11.8411
11.9699
12.0904
12.2026
12.3062
12.4006
12.4862
12.5574
12.6307
12.6311
-6.50872
-6.513
-6.51956
-6.52579
-6.53109
-6.53578
-6.54008
-6.54416
-6.54817
-6.55223
-6.55648
-6.56102
-6.56592
-6.57126
-6.5771
-6.58349
-6.59048
-6.5981
-6.60639
-6.61537
-6.62507
-6.63551
-6.64669
-6.65864
-6.67136
-6.68486
-6.69915
-6.71422
-6.73008
-6.74672
-6.76414
-6.78232
-6.80125
-6.82093
-6.84133
-6.86246
-6.88428
-6.90678
-6.92994
-6.95372
-6.97808
-7.00301
-7.02845
-7.05436
-7.08069
-7.10739
-7.1344
-7.16167
-7.18913
-7.21673
-7.2444
-7.27205
-7.29961
-7.32699
-7.35408
-7.38077
-7.40696
-7.43253
-7.45736
-7.48131
-7.50427
-7.52607
-7.54659
-7.56567
-7.58316
-7.59889
-7.61271
-7.62445
-7.63393
-7.64098
-7.64543
-7.64708
-7.64577
-7.64131
-7.63351
-7.62219
-7.60717
-7.58825
-7.56526
-7.53803
-7.50636
-7.47009
-7.42906
-7.38309
-7.33203
-7.27571
-7.21402
-7.14679
-7.07392
-6.99527
-6.91073
-6.8202
-6.72357
-6.62077
-6.51172
-6.39637
-6.27466
-6.14654
-6.01198
-5.87097
-5.72349
-5.56952
-5.4091
-5.24222
-5.06891
-4.88921
-4.70317
-4.51082
-4.31224
-4.10748
-3.89662
-3.67973
-3.45691
-3.22825
-2.99385
-2.7538
-2.50822
-2.25721
-2.00094
-1.73954
-1.4732
-1.20208
-0.926373
-0.646256
-0.361946
-0.0736508
0.218381
0.513944
0.812798
1.11464
1.41915
1.72607
2.03512
2.34601
2.65838
2.9719
3.28623
3.60103
3.91595
4.23062
4.54468
4.85776
5.16948
5.47948
5.78737
6.09275
6.39522
6.6944
6.98985
7.28115
7.56787
7.84957
8.12582
8.39621
8.66034
8.91786
9.16843
9.41173
9.64751
9.8755
10.0955
10.3074
10.5111
10.7064
10.8933
11.0718
11.242
11.4037
11.5571
11.7022
11.839
11.9674
12.0875
12.199
12.3016
12.3948
12.4787
12.548
12.6192
12.617
-6.52205
-6.52581
-6.5315
-6.53689
-6.54144
-6.5454
-6.549
-6.55243
-6.55581
-6.55931
-6.56302
-6.56706
-6.57151
-6.57644
-6.58191
-6.58796
-6.59463
-6.60197
-6.60999
-6.61873
-6.62821
-6.63844
-6.64943
-6.6612
-6.67376
-6.6871
-6.70125
-6.71619
-6.73193
-6.74846
-6.76578
-6.78388
-6.80275
-6.82239
-6.84276
-6.86387
-6.88568
-6.90816
-6.93128
-6.95501
-6.97932
-7.00417
-7.02951
-7.0553
-7.08148
-7.10802
-7.13485
-7.16191
-7.18915
-7.2165
-7.2439
-7.27127
-7.29851
-7.32553
-7.35224
-7.37852
-7.40427
-7.42937
-7.4537
-7.47714
-7.49955
-7.5208
-7.54074
-7.55922
-7.5761
-7.59122
-7.60441
-7.6155
-7.62434
-7.63075
-7.63454
-7.63555
-7.63359
-7.62849
-7.62005
-7.6081
-7.59245
-7.57292
-7.54934
-7.52152
-7.48928
-7.45246
-7.41089
-7.36441
-7.31286
-7.25609
-7.19397
-7.12634
-7.05308
-6.97407
-6.88921
-6.79838
-6.7015
-6.59848
-6.48926
-6.37378
-6.25198
-6.12381
-5.98926
-5.8483
-5.70091
-5.5471
-5.38687
-5.22024
-5.04723
-4.86788
-4.68223
-4.49033
-4.29224
-4.08803
-3.87775
-3.66149
-3.43933
-3.21136
-2.97768
-2.73837
-2.49354
-2.24331
-1.98782
-1.72722
-1.46169
-1.19138
-0.916461
-0.637133
-0.353611
-0.0661068
0.225166
0.520011
0.81815
1.11926
1.42306
1.72932
2.03777