/*--------------------------------*- C++ -*----------------------------------*\
  =========                 |
  \\      /  F ield         | OpenFOAM: The Open Source CFD Toolbox
   \\    /   O peration     | Website:  https://openfoam.org
    \\  /    A nd           | Version:  8
     \\/     M anipulation  |
\*---------------------------------------------------------------------------*/
FoamFile
{
    version     2.0;
    format      ascii;
    class       surfaceScalarField;
    location    "230";
    object      phi;
}
// * * * * * * * * * * * * * * * * * * * * * * * * * * * * * * * * * * * * * //

dimensions      [0 3 -1 0 0 0 0];

internalField   nonuniform List<scalar> 
24170
(
3.12901e-06
5.94006e-08
3.04663e-06
8.23785e-08
2.97353e-06
7.30913e-08
2.9049e-06
6.86311e-08
2.84058e-06
6.43255e-08
2.78326e-06
5.7318e-08
2.73394e-06
4.93179e-08
2.69199e-06
4.19436e-08
2.65633e-06
3.56629e-08
2.6259e-06
3.04306e-08
2.59972e-06
2.61785e-08
2.57696e-06
2.27605e-08
2.55695e-06
2.00113e-08
2.53913e-06
1.78197e-08
2.52312e-06
1.60096e-08
2.50791e-06
1.52018e-08
2.49402e-06
1.38865e-08
1.87491e-08
2.47527e-06
3.45306e-06
2.35854e-08
3.45701e-06
7.84368e-08
3.45055e-06
7.95511e-08
3.43909e-06
8.00862e-08
3.42431e-06
7.91015e-08
3.40706e-06
7.45664e-08
3.38785e-06
6.85322e-08
3.36733e-06
6.24646e-08
3.34618e-06
5.68037e-08
3.32501e-06
5.16051e-08
3.30429e-06
4.69011e-08
3.28429e-06
4.27563e-08
3.26522e-06
3.90815e-08
3.24711e-06
3.59296e-08
3.23004e-06
3.30739e-08
3.21399e-06
3.12532e-08
3.19925e-06
2.86272e-08
3.0265e-08
3.18773e-06
3.66816e-06
1.7942e-08
3.6792e-06
6.73951e-08
3.68543e-06
7.33226e-08
3.68946e-06
7.60504e-08
3.69106e-06
7.75015e-08
3.6901e-06
7.55296e-08
3.68697e-06
7.16651e-08
3.68213e-06
6.73007e-08
3.67598e-06
6.29487e-08
3.66885e-06
5.8736e-08
3.66102e-06
5.47377e-08
3.65272e-06
5.10519e-08
3.64415e-06
4.76482e-08
3.63547e-06
4.4611e-08
3.62675e-06
4.17976e-08
3.61835e-06
3.96478e-08
3.60973e-06
3.725e-08
3.65942e-08
3.6034e-06
3.92585e-06
1.74812e-08
3.93592e-06
5.73238e-08
3.94257e-06
6.667e-08
3.94811e-06
7.05078e-08
3.95253e-06
7.30845e-08
3.95548e-06
7.25782e-08
3.95715e-06
6.99914e-08
3.95779e-06
6.6662e-08
3.95758e-06
6.31557e-08
3.95668e-06
5.96415e-08
3.95521e-06
5.62071e-08
3.9533e-06
5.29627e-08
3.95104e-06
4.99082e-08
3.94853e-06
4.71195e-08
3.94581e-06
4.45172e-08
3.94313e-06
4.23208e-08
3.94024e-06
4.014e-08
3.85375e-08
3.9383e-06
4.2082e-06
1.64086e-08
4.21599e-06
4.95379e-08
4.22168e-06
6.09708e-08
4.22679e-06
6.54007e-08
4.23154e-06
6.83336e-08
4.23552e-06
6.86034e-08
4.23869e-06
6.68194e-08
4.24117e-06
6.41803e-08
4.24307e-06
6.12584e-08
4.24447e-06
5.82403e-08
4.24545e-06
5.52218e-08
4.2461e-06
5.2311e-08
4.24648e-06
4.95326e-08
4.24665e-06
4.69451e-08
4.24666e-06
4.45103e-08
4.24665e-06
4.23266e-08
4.24657e-06
4.02171e-08
3.8269e-08
4.24684e-06
4.51071e-06
1.47856e-08
4.51688e-06
4.33638e-08
4.52213e-06
5.57206e-08
4.52695e-06
6.05817e-08
4.53167e-06
6.36184e-08
4.53592e-06
6.43512e-08
4.5396e-06
6.31416e-08
4.54276e-06
6.10141e-08
4.54549e-06
5.85299e-08
4.54784e-06
5.58875e-08
4.54987e-06
5.31929e-08
4.55163e-06
5.05463e-08
4.55318e-06
4.79901e-08
4.55455e-06
4.55667e-08
4.5558e-06
4.3262e-08
4.55702e-06
4.11104e-08
4.55821e-06
3.9022e-08
3.69493e-08
4.55953e-06
4.83433e-06
1.31752e-08
4.83963e-06
3.80652e-08
4.84475e-06
5.05945e-08
4.84946e-06
5.5876e-08
4.85409e-06
5.89826e-08
4.85842e-06
6.00303e-08
4.86229e-06
5.92652e-08
4.86576e-06
5.75442e-08
4.86888e-06
5.5409e-08
4.8717e-06
5.30695e-08
4.87425e-06
5.06395e-08
4.87658e-06
4.8213e-08
4.87873e-06
4.58418e-08
4.88074e-06
4.35585e-08
4.88264e-06
4.13607e-08
4.8845e-06
3.92533e-08
4.88634e-06
3.7183e-08
3.50829e-08
4.8882e-06
5.18105e-06
1.17086e-08
5.18575e-06
3.33581e-08
5.19076e-06
4.5591e-08
5.19541e-06
5.12226e-08
5.2e-06
5.43942e-08
5.20436e-06
5.56678e-08
5.20836e-06
5.52652e-08
5.21201e-06
5.3889e-08
5.21537e-06
5.2051e-08
5.21847e-06
4.99715e-08
5.22134e-06
4.77698e-08
5.22402e-06
4.55358e-08
5.22653e-06
4.33256e-08
5.22892e-06
4.11677e-08
5.23122e-06
3.90655e-08
5.23346e-06
3.70132e-08
5.23566e-06
3.49755e-08
3.29009e-08
5.23784e-06
5.55269e-06
1.03529e-08
5.55689e-06
2.9161e-08
5.5617e-06
4.07828e-08
5.56631e-06
4.66123e-08
5.57087e-06
4.98274e-08
5.57528e-06
5.12598e-08
5.57939e-06
5.11569e-08
5.58319e-06
5.00846e-08
5.58673e-06
4.85118e-08
5.59004e-06
4.66666e-08
5.59313e-06
4.46713e-08
5.59606e-06
4.26138e-08
5.59883e-06
4.05514e-08
5.60148e-06
3.85123e-08
5.60405e-06
3.65036e-08
5.60654e-06
3.45188e-08
5.60898e-06
3.25338e-08
3.05204e-08
5.61136e-06
5.95104e-06
9.08964e-09
5.95479e-06
2.5413e-08
5.95936e-06
3.62088e-08
5.96392e-06
4.20556e-08
5.96846e-06
4.52783e-08
5.97291e-06
4.68128e-08
5.97712e-06
4.69507e-08
5.98106e-06
4.61455e-08
5.98475e-06
4.48135e-08
5.98824e-06
4.31842e-08
5.99152e-06
4.13818e-08
5.99465e-06
3.94921e-08
5.99762e-06
3.75721e-08
6.00048e-06
3.56518e-08
6.00325e-06
3.37415e-08
6.00593e-06
3.18387e-08
6.00853e-06
2.99284e-08
2.80021e-08
6.01105e-06
6.37798e-06
7.91832e-09
6.38135e-06
2.20493e-08
6.38568e-06
3.18797e-08
6.39016e-06
3.7569e-08
6.39469e-06
4.07526e-08
6.39916e-06
4.23389e-08
6.40345e-06
4.26592e-08
6.40751e-06
4.20824e-08
6.41136e-06
4.09683e-08
6.415e-06
3.95394e-08
6.41846e-06
3.79201e-08
6.42176e-06
3.61933e-08
6.42492e-06
3.44154e-08
6.42795e-06
3.26182e-08
6.43088e-06
3.08158e-08
6.4337e-06
2.90106e-08
6.43644e-06
2.71961e-08
2.53782e-08
6.43906e-06
5.74176e-06
6.99201e-09
5.74434e-06
1.94659e-08
5.74781e-06
2.84098e-08
5.75154e-06
3.38403e-08
5.75534e-06
3.69491e-08
5.75914e-06
3.85455e-08
5.76282e-06
3.89755e-08
5.76634e-06
3.856e-08
5.7697e-06
3.76122e-08
5.77289e-06
3.63415e-08
5.77594e-06
3.48703e-08
5.77886e-06
3.32791e-08
5.78165e-06
3.1623e-08
5.78433e-06
2.99353e-08
5.78692e-06
2.8233e-08
5.7894e-06
2.6523e-08
5.79179e-06
2.48042e-08
2.30923e-08
5.79408e-06
6.99914e-06
6.00827e-09
7.00187e-06
1.6732e-08
7.00564e-06
2.46448e-08
7.0098e-06
2.96725e-08
7.01412e-06
3.26279e-08
7.01848e-06
3.41902e-08
7.02275e-06
3.47006e-08
7.02688e-06
3.4434e-08
7.03084e-06
3.36541e-08
7.03463e-06
3.25511e-08
7.03825e-06
3.12424e-08
7.04173e-06
2.98047e-08
7.04506e-06
2.82913e-08
7.04826e-06
2.67362e-08
7.05133e-06
2.51593e-08
7.05428e-06
2.35721e-08
7.05711e-06
2.19781e-08
2.04006e-08
7.0598e-06
8.53188e-06
4.97479e-09
8.53474e-06
1.38751e-08
8.53877e-06
2.06124e-08
8.54337e-06
2.50728e-08
8.54822e-06
2.77706e-08
8.55318e-06
2.92355e-08
8.5581e-06
2.97806e-08
8.5629e-06
2.96367e-08
8.56753e-06
2.90173e-08
8.572e-06
2.80869e-08
8.57628e-06
2.69533e-08
8.5804e-06
2.56881e-08
8.58435e-06
2.4341e-08
8.58814e-06
2.29462e-08
8.59177e-06
2.15254e-08
8.59525e-06
2.00937e-08
8.59857e-06
1.86587e-08
1.72474e-08
8.60173e-06
1.04003e-05
3.90071e-09
1.04033e-05
1.09148e-08
1.04075e-05
1.63346e-08
1.04126e-05
2.00501e-08
1.0418e-05
2.23612e-08
1.04236e-05
2.36451e-08
1.04292e-05
2.41622e-08
1.04347e-05
2.40998e-08
1.04401e-05
2.36224e-08
1.04453e-05
2.2863e-08
1.04504e-05
2.19147e-08
1.04552e-05
2.08408e-08
1.04599e-05
1.96862e-08
1.04643e-05
1.8483e-08
1.04686e-05
1.72536e-08
1.04727e-05
1.60145e-08
1.04766e-05
1.47757e-08
1.35654e-08
1.04802e-05
1.26779e-05
2.79098e-09
1.2681e-05
7.84564e-09
1.26855e-05
1.18099e-08
1.26909e-05
1.4599e-08
1.26969e-05
1.63728e-08
1.27032e-05
1.73706e-08
1.27096e-05
1.77822e-08
1.27159e-05
1.77468e-08
1.27222e-05
1.73821e-08
1.27283e-05
1.67854e-08
1.27341e-05
1.60296e-08
1.27398e-05
1.51658e-08
1.27453e-05
1.42315e-08
1.27505e-05
1.32541e-08
1.27555e-05
1.22542e-08
1.27603e-05
1.12478e-08
1.27648e-05
1.02448e-08
9.27201e-09
1.27691e-05
1.54543e-05
1.63489e-09
1.54576e-05
4.62169e-09
1.54624e-05
6.98112e-09
1.54683e-05
8.65993e-09
1.5475e-05
9.732e-09
1.5482e-05
1.03225e-08
1.54893e-05
1.05409e-08
1.54965e-05
1.04711e-08
1.55037e-05
1.01835e-08
1.55108e-05
9.73791e-09
1.55176e-05
9.18101e-09
1.55242e-05
8.54739e-09
1.55306e-05
7.8631e-09
1.55367e-05
7.14825e-09
1.55426e-05
6.41848e-09
1.55481e-05
5.68669e-09
1.55534e-05
4.96082e-09
4.26395e-09
1.55584e-05
1.88389e-05
3.92416e-10
1.88424e-05
1.11857e-09
1.88477e-05
1.67467e-09
1.88543e-05
2.04238e-09
1.88618e-05
2.24164e-09
1.88698e-05
2.30024e-09
1.88781e-05
2.24001e-09
1.88865e-05
2.08076e-09
1.88948e-05
1.84264e-09
1.8903e-05
1.54402e-09
1.8911e-05
1.20023e-09
1.89187e-05
8.24036e-10
1.89262e-05
4.26343e-10
1.89333e-05
1.65242e-11
1.89401e-05
-3.97441e-10
1.89466e-05
-8.08268e-10
1.89528e-05
-1.21174e-09
-1.59033e-09
1.89586e-05
2.29648e-05
-1.0376e-09
2.29688e-05
-2.95286e-09
2.2975e-05
-4.52879e-09
2.29828e-05
-5.72975e-09
2.29916e-05
-6.57598e-09
2.30011e-05
-7.15378e-09
2.30109e-05
-7.55051e-09
2.30208e-05
-7.8207e-09
2.30306e-05
-8.00107e-09
2.30403e-05
-8.12275e-09
2.30497e-05
-8.20955e-09
2.30588e-05
-8.2758e-09
2.30675e-05
-8.32953e-09
2.30759e-05
-8.37491e-09
2.3084e-05
-8.41409e-09
2.30916e-05
-8.44705e-09
2.30989e-05
-8.47456e-09
-8.4858e-09
2.31057e-05
1.68118e-05
-2.16015e-09
1.6815e-05
-6.12339e-09
1.68198e-05
-9.35798e-09
1.68258e-05
-1.17261e-08
1.68325e-05
-1.32864e-08
1.68396e-05
-1.42668e-08
1.68469e-05
-1.48548e-08
1.68543e-05
-1.51541e-08
1.68615e-05
-1.52436e-08
1.68686e-05
-1.51954e-08
1.68754e-05
-1.50622e-08
1.6882e-05
-1.48769e-08
1.68884e-05
-1.46602e-08
1.68944e-05
-1.44259e-08
1.69002e-05
-1.41827e-08
1.69057e-05
-1.39353e-08
1.69109e-05
-1.3687e-08
-1.34311e-08
1.69158e-05
1.46356e-05
-3.23827e-09
1.46387e-05
-9.21005e-09
1.46434e-05
-1.40716e-08
1.46492e-05
-1.74689e-08
1.46555e-05
-1.95721e-08
1.4662e-05
-2.08313e-08
1.46687e-05
-2.15164e-08
1.46753e-05
-2.17634e-08
1.46818e-05
-2.17034e-08
1.4688e-05
-2.14528e-08
1.4694e-05
-2.10871e-08
1.46998e-05
-2.06512e-08
1.47053e-05
-2.01751e-08
1.47106e-05
-1.96801e-08
1.47156e-05
-1.91793e-08
1.47203e-05
-1.86804e-08
1.47248e-05
-1.81882e-08
-1.76985e-08
1.47291e-05
1.27411e-05
-4.24787e-09
1.27443e-05
-1.23374e-08
1.27491e-05
-1.89017e-08
1.27547e-05
-2.31141e-08
1.27607e-05
-2.55518e-08
1.27669e-05
-2.69887e-08
1.2773e-05
-2.76876e-08
1.27791e-05
-2.77977e-08
1.27849e-05
-2.75262e-08
1.27905e-05
-2.70382e-08
1.27958e-05
-2.64236e-08
1.28009e-05
-2.57337e-08
1.28057e-05
-2.50057e-08
1.28103e-05
-2.42652e-08
1.28147e-05
-2.35277e-08
1.28188e-05
-2.28013e-08
1.28227e-05
-2.20911e-08
-2.13942e-08
1.28264e-05
1.10918e-05
-5.09143e-09
1.1095e-05
-1.55589e-08
1.11001e-05
-2.40269e-08
1.11057e-05
-2.87377e-08
1.11115e-05
-3.12862e-08
1.11173e-05
-3.28012e-08
1.1123e-05
-3.34143e-08
1.11285e-05
-3.33076e-08
1.11338e-05
-3.27834e-08
1.11388e-05
-3.20393e-08
1.11435e-05
-3.1167e-08
1.1148e-05
-3.0223e-08
1.11523e-05
-2.92506e-08
1.11563e-05
-2.82783e-08
1.11601e-05
-2.73214e-08
1.11636e-05
-2.6388e-08
1.1167e-05
-2.5482e-08
-2.46012e-08
1.11702e-05
9.65582e-06
-5.6983e-09
9.65924e-06
-1.89824e-08
9.66459e-06
-2.93714e-08
9.67008e-06
-3.42332e-08
9.67564e-06
-3.68428e-08
9.6812e-06
-3.83584e-08
9.68653e-06
-3.87446e-08
9.69155e-06
-3.83326e-08
9.69629e-06
-3.75252e-08
9.70077e-06
-3.65165e-08
9.70499e-06
-3.53854e-08
9.70895e-06
-3.41914e-08
9.71269e-06
-3.29822e-08
9.71619e-06
-3.17872e-08
9.71949e-06
-3.06214e-08
9.7226e-06
-2.9492e-08
9.72552e-06
-2.84012e-08
-2.73452e-08
9.72826e-06
8.40532e-06
-5.66854e-09
8.40964e-06
-2.32966e-08
8.41487e-06
-3.46054e-08
8.4199e-06
-3.92594e-08
8.42526e-06
-4.22067e-08
8.43066e-06
-4.3764e-08
8.43575e-06
-4.38274e-08
8.44045e-06
-4.30355e-08
8.44481e-06
-4.18909e-08
8.44887e-06
-4.05699e-08
8.45262e-06
-3.91419e-08
8.4561e-06
-3.76695e-08
8.45932e-06
-3.62021e-08
8.4623e-06
-3.47675e-08
8.46506e-06
-3.33809e-08
8.46762e-06
-3.20485e-08
8.46999e-06
-3.07721e-08
-2.95483e-08
8.47219e-06
7.31455e-06
-2.93036e-09
7.32119e-06
-2.99391e-08
7.32674e-06
-4.01554e-08
7.33169e-06
-4.42093e-08
7.33708e-06
-4.76024e-08
7.3424e-06
-4.90824e-08
7.34728e-06
-4.87025e-08
7.35169e-06
-4.74453e-08
7.35566e-06
-4.58656e-08
7.35921e-06
-4.41221e-08
7.36236e-06
-4.22949e-08
7.36515e-06
-4.0457e-08
7.36761e-06
-3.86609e-08
7.36977e-06
-3.69307e-08
7.37167e-06
-3.52818e-08
7.37334e-06
-3.37167e-08
7.37481e-06
-3.22359e-08
-3.083e-08
7.37609e-06
6.36245e-06
4.68592e-09
6.37189e-06
-3.93803e-08
6.37932e-06
-4.75815e-08
6.38596e-06
-5.08489e-08
6.39224e-06
-5.38827e-08
6.39755e-06
-5.43932e-08
6.40184e-06
-5.29947e-08
6.40532e-06
-5.09232e-08
6.40811e-06
-4.86625e-08
6.41029e-06
-4.63039e-08
6.41192e-06
-4.39244e-08
6.41307e-06
-4.16012e-08
6.41379e-06
-3.93849e-08
6.41415e-06
-3.72938e-08
6.41421e-06
-3.53418e-08
6.41402e-06
-3.35249e-08
6.41363e-06
-3.1844e-08
-3.02793e-08
6.41308e-06
5.5412e-06
8.94852e-09
5.55032e-06
-4.85028e-08
5.55834e-06
-5.5599e-08
5.56604e-06
-5.85497e-08
5.5725e-06
-6.03428e-08
5.57682e-06
-5.87162e-08
5.57906e-06
-5.52343e-08
5.57962e-06
-5.14804e-08
5.57886e-06
-4.79067e-08
5.57708e-06
-4.45165e-08
5.57448e-06
-4.13284e-08
5.57126e-06
-3.83852e-08
5.56757e-06
-3.56951e-08
5.56353e-06
-3.32499e-08
5.55924e-06
-3.10466e-08
5.55478e-06
-2.90681e-08
5.55025e-06
-2.73162e-08
-2.57419e-08
5.54571e-06
4.86004e-06
-2.34876e-08
4.86538e-06
-5.38447e-08
4.86524e-06
-5.54531e-08
4.86217e-06
-5.54795e-08
4.857e-06
-5.51714e-08
4.84949e-06
-5.12143e-08
4.8398e-06
-4.55364e-08
4.8284e-06
-4.00852e-08
4.81582e-06
-3.53311e-08
4.80254e-06
-3.12357e-08
4.78894e-06
-2.77278e-08
4.7753e-06
-2.47448e-08
4.76182e-06
-2.22087e-08
4.74861e-06
-2.00485e-08
4.73578e-06
-1.82179e-08
4.7234e-06
-1.66838e-08
4.71157e-06
-1.54841e-08
-1.51381e-08
4.70096e-06
4.17919e-06
4.12534e-06
4.06989e-06
4.01441e-06
3.95924e-06
3.90803e-06
3.86249e-06
3.8224e-06
3.78707e-06
3.75584e-06
3.72811e-06
3.70336e-06
3.68116e-06
3.66111e-06
3.64289e-06
3.6262e-06
3.61072e-06
3.59558e-06
1.292e-08
-1.2933e-08
2.64806e-08
-1.3576e-08
3.47382e-08
-8.27634e-09
3.67421e-08
-2.01499e-09
3.2906e-08
3.8184e-09
2.43106e-08
8.58562e-09
1.21234e-08
1.21682e-08
-2.63425e-09
1.47484e-08
-1.92822e-08
1.66294e-08
-3.73411e-08
1.80513e-08
-5.65298e-08
1.91716e-08
-7.66544e-08
2.01178e-08
-9.76322e-08
2.09618e-08
-1.19381e-07
2.17419e-08
-1.41873e-07
2.24767e-08
-1.65057e-07
2.31766e-08
-1.8892e-07
2.38473e-08
-2.13421e-07
2.44941e-08
-2.38557e-07
2.51198e-08
-2.6429e-07
2.57274e-08
-2.90621e-07
2.63144e-08
-3.175e-07
2.68732e-08
-3.4491e-07
2.73904e-08
-3.72783e-07
2.78599e-08
-4.01081e-07
2.8276e-08
-4.29772e-07
2.86641e-08
-4.59073e-07
2.92708e-08
-4.89583e-07
3.0468e-08
-5.22684e-07
3.30657e-08
-5.61539e-07
3.87928e-08
-5.98689e-07
3.71113e-08
-6.30631e-07
3.18748e-08
-6.67021e-07
3.63673e-08
-7.04596e-07
3.75348e-08
-7.35143e-07
3.05483e-08
-7.74024e-07
3.88684e-08
-8.22495e-07
4.8479e-08
-8.69702e-07
4.7205e-08
-9.20215e-07
5.05249e-08
-9.64432e-07
4.422e-08
-9.98092e-07
3.36709e-08
-1.03625e-06
3.81572e-08
-1.07699e-06
4.07486e-08
-1.11914e-06
4.21525e-08
-1.16194e-06
4.28039e-08
-1.20503e-06
4.30832e-08
-1.24819e-06
4.31648e-08
-1.29133e-06
4.31363e-08
-1.33437e-06
4.30389e-08
-1.37727e-06
4.2897e-08
-1.41999e-06
4.27231e-08
-1.46252e-06
4.25252e-08
-1.50483e-06
4.23069e-08
-1.54691e-06
4.20705e-08
-1.58873e-06
4.1816e-08
-1.63028e-06
4.15435e-08
-1.67154e-06
4.12517e-08
-1.71249e-06
4.09393e-08
-1.7531e-06
4.06045e-08
-1.79336e-06
4.02457e-08
-1.83323e-06
3.98607e-08
-1.87269e-06
3.9448e-08
-1.9117e-06
3.90055e-08
-1.95024e-06
3.85315e-08
-1.98828e-06
3.80243e-08
-2.02577e-06
3.74824e-08
-2.06269e-06
3.69043e-08
-2.09899e-06
3.62889e-08
-2.13463e-06
3.56352e-08
-2.16958e-06
3.49422e-08
-2.2038e-06
3.42092e-08
-2.23725e-06
3.34356e-08
-2.26988e-06
3.26209e-08
-2.30166e-06
3.17649e-08
-2.33253e-06
3.08674e-08
-2.36248e-06
2.99284e-08
-2.39144e-06
2.89484e-08
-2.41938e-06
2.79275e-08
-2.44626e-06
2.68665e-08
-2.47204e-06
2.57655e-08
-2.49668e-06
2.46255e-08
-2.52014e-06
2.3447e-08
-2.54239e-06
2.22314e-08
-2.56339e-06
2.09787e-08
-2.58309e-06
1.96903e-08
-2.60147e-06
1.83654e-08
-2.61849e-06
1.70045e-08
-2.63411e-06
1.56054e-08
-2.64828e-06
1.41673e-08
-2.66097e-06
1.26879e-08
-2.67214e-06
1.11633e-08
-2.68174e-06
9.58842e-09
-2.68971e-06
7.9558e-09
-2.69598e-06
6.25325e-09
-2.70046e-06
4.46392e-09
-2.70305e-06
2.57786e-09
-2.7037e-06
6.37616e-10
-2.70252e-06
-1.19676e-09
-2.6997e-06
-2.83869e-09
-2.69534e-06
-4.38261e-09
-2.68945e-06
-5.90452e-09
-2.68206e-06
-7.42388e-09
-2.67314e-06
-8.94697e-09
-2.6627e-06
-1.04756e-08
-2.65073e-06
-1.20072e-08
-2.63723e-06
-1.35423e-08
-2.62219e-06
-1.50772e-08
-2.60562e-06
-1.66135e-08
-2.58751e-06
-1.81476e-08
-2.56787e-06
-1.96821e-08
-2.54669e-06
-2.12127e-08
-2.52398e-06
-2.27427e-08
-2.49974e-06
-2.42672e-08
-2.47398e-06
-2.57897e-08
-2.4467e-06
-2.73049e-08
-2.41791e-06
-2.88166e-08
-2.38761e-06
-3.03186e-08
-2.35581e-06
-3.18148e-08
-2.32251e-06
-3.32997e-08
-2.28775e-06
-3.47784e-08
-2.25152e-06
-3.62474e-08
-2.21384e-06
-3.77097e-08
-2.17472e-06
-3.9157e-08
-2.13417e-06
-4.05918e-08
-2.09219e-06
-4.2004e-08
-2.04881e-06
-4.34006e-08
-2.00404e-06
-4.47733e-08
-1.9579e-06
-4.61286e-08
-1.9104e-06
-4.74624e-08
-1.86159e-06
-4.87725e-08
-1.81148e-06
-5.00512e-08
-1.7601e-06
-5.13128e-08
-1.70748e-06
-5.25319e-08
-1.65366e-06
-5.372e-08
-1.59867e-06
-5.48749e-08
-1.54255e-06
-5.6e-08
-1.48533e-06
-5.70906e-08
-1.42705e-06
-5.81476e-08
-1.36776e-06
-5.91698e-08
-1.30749e-06
-6.01545e-08
-1.24629e-06
-6.10992e-08
-1.18421e-06
-6.19991e-08
-1.12129e-06
-6.28537e-08
-1.05757e-06
-6.36589e-08
-9.93118e-07
-6.44154e-08
-9.27976e-07
-6.51177e-08
-8.622e-07
-6.57663e-08
-7.95851e-07
-6.63547e-08
-7.28989e-07
-6.68838e-08
-6.6168e-07
-6.73463e-08
-5.93991e-07
-6.77427e-08
-5.25997e-07
-6.80638e-08
-4.57771e-07
-6.83115e-08
-3.89394e-07
-6.84764e-08
-3.20946e-07
-6.85627e-08
-2.52509e-07
-6.85647e-08
-1.84152e-07
-6.84964e-08
-1.15932e-07
-6.83681e-08
-4.79189e-08
-6.81711e-08
1.99394e-08
-6.80178e-08
8.76479e-08
-6.78693e-08
1.54915e-07
-6.74229e-08
2.21475e-07
-6.67146e-08
2.87218e-07
-6.58934e-08
3.52065e-07
-6.49966e-08
4.15954e-07
-6.4033e-08
4.78823e-07
-6.30119e-08
5.40617e-07
-6.19336e-08
6.01281e-07
-6.08014e-08
6.60755e-07
-5.96092e-08
7.18969e-07
-5.8348e-08
7.75835e-07
-5.69969e-08
8.31218e-07
-5.55146e-08
8.84907e-07
-5.38191e-08
9.36532e-07
-5.17532e-08
9.85392e-07
-4.89888e-08
1.02996e-06
-4.46923e-08
1.06671e-06
-3.68716e-08
1.08481e-06
-1.82132e-08
3.20373e-08
1.05268e-06
8.41608e-09
-2.13619e-08
9.68643e-09
-1.48601e-08
6.18456e-09
-4.78561e-09
-4.95504e-10
4.65822e-09
-9.80904e-09
1.31233e-08
-2.16442e-08
2.0415e-08
-3.59352e-08
2.64508e-08
-5.24951e-08
3.1303e-08
-7.10367e-08
3.51626e-08
-9.12543e-08
3.82639e-08
-1.12915e-07
4.08243e-08
-1.35821e-07
4.30189e-08
-1.59841e-07
4.49738e-08
-1.84878e-07
4.67736e-08
-2.10884e-07
4.8474e-08
-2.37825e-07
5.01125e-08
-2.65703e-07
5.17163e-08
-2.94522e-07
5.33071e-08
-3.24314e-07
5.49026e-08
-3.55109e-07
5.65178e-08
-3.8697e-07
5.81655e-08
-4.19963e-07
5.9861e-08
-4.54212e-07
6.16287e-08
-4.89868e-07
6.35055e-08
-5.27131e-07
6.55247e-08
-5.66218e-07
6.77324e-08
-6.07197e-07
7.0229e-08
-6.49861e-07
7.31013e-08
-6.93074e-07
7.62519e-08
-7.33407e-07
7.90882e-08
-7.75962e-07
7.96391e-08
-8.22716e-07
7.85956e-08
-8.65325e-07
7.89601e-08
-9.06796e-07
7.89872e-08
-9.55048e-07
7.8796e-08
-9.98128e-07
8.19413e-08
-1.03659e-06
8.69436e-08
-1.07816e-06
8.87744e-08
-1.117e-06
8.93708e-08
-1.15964e-06
8.68597e-08
-1.2092e-06
8.32416e-08
-1.25368e-06
8.2637e-08
-1.29562e-06
8.26913e-08
-1.33625e-06
8.2783e-08
-1.37618e-06
8.27368e-08
-1.41564e-06
8.25451e-08
-1.45472e-06
8.22442e-08
-1.49345e-06
8.18656e-08
-1.53185e-06
8.14309e-08
-1.56991e-06
8.09538e-08
-1.60763e-06
8.04422e-08
-1.645e-06
7.99004e-08
-1.68203e-06
7.93298e-08
-1.71869e-06
7.87301e-08
-1.75498e-06
7.80998e-08
-1.79088e-06
7.74364e-08
-1.82637e-06
7.6737e-08
-1.86143e-06
7.59986e-08
-1.89605e-06
7.52174e-08
-1.9302e-06
7.43902e-08
-1.96386e-06
7.35135e-08
-1.997e-06
7.25841e-08
-2.0296e-06
7.15987e-08
-2.06163e-06
7.05544e-08
-2.09306e-06
6.94484e-08
-2.12387e-06
6.82784e-08
-2.15401e-06
6.70421e-08
-2.18347e-06
6.57376e-08
-2.2122e-06
6.43632e-08
-2.24019e-06
6.29177e-08
-2.26738e-06
6.13999e-08
-2.29376e-06
5.98091e-08
-2.31929e-06
5.81447e-08
-2.34394e-06
5.64064e-08
-2.36768e-06
5.45942e-08
-2.39047e-06
5.27082e-08
-2.41227e-06
5.07493e-08
-2.43307e-06
4.87181e-08
-2.45283e-06
4.66155e-08
-2.47152e-06
4.44424e-08
-2.4891e-06
4.22004e-08
-2.50556e-06
3.98906e-08
-2.52085e-06
3.75145e-08
-2.53496e-06
3.50733e-08
-2.54784e-06
3.25685e-08
-2.55949e-06
3.0001e-08
-2.56987e-06
2.73721e-08
-2.57895e-06
2.46826e-08
-2.58672e-06
2.19341e-08
-2.59316e-06
1.91268e-08
-2.59827e-06
1.62606e-08
-2.60202e-06
1.33357e-08
-2.60443e-06
1.03534e-08
-2.6055e-06
7.31868e-09
-2.60529e-06
4.24483e-09
-2.60389e-06
1.16353e-09
-2.60138e-06
-1.87929e-09
-2.59772e-06
-4.87251e-09
-2.59272e-06
-7.85102e-09
-2.58628e-06
-1.08372e-08
-2.57836e-06
-1.38346e-08
-2.56896e-06
-1.68443e-08
-2.55806e-06
-1.98674e-08
-2.54566e-06
-2.29018e-08
-2.53175e-06
-2.59451e-08
-2.51632e-06
-2.89943e-08
-2.49938e-06
-3.20469e-08
-2.48092e-06
-3.51008e-08
-2.46094e-06
-3.81545e-08
-2.43944e-06
-4.12066e-08
-2.41642e-06
-4.42553e-08
-2.39188e-06
-4.72999e-08
-2.36583e-06
-5.03382e-08
-2.33827e-06
-5.33693e-08
-2.3092e-06
-5.6391e-08
-2.27863e-06
-5.94021e-08
-2.24656e-06
-6.23999e-08
-2.213e-06
-6.53823e-08
-2.17796e-06
-6.83479e-08
-2.14144e-06
-7.12975e-08
-2.10348e-06
-7.42298e-08
-2.06407e-06
-7.71436e-08
-2.02322e-06
-8.00322e-08
-1.98094e-06
-8.28916e-08
-1.93725e-06
-8.5715e-08
-1.89216e-06
-8.8503e-08
-1.84568e-06
-9.12511e-08
-1.79784e-06
-9.39614e-08
-1.74866e-06
-9.66269e-08
-1.69816e-06
-9.92489e-08
-1.64635e-06
-1.01823e-07
-1.59328e-06
-1.04342e-07
-1.53897e-06
-1.06789e-07
-1.48347e-06
-1.09171e-07
-1.42679e-06
-1.11489e-07
-1.36898e-06
-1.13743e-07
-1.31007e-06
-1.15927e-07
-1.2501e-06
-1.18041e-07
-1.18913e-06
-1.2008e-07
-1.12718e-06
-1.22042e-07
-1.0643e-06
-1.2392e-07
-1.00055e-06
-1.2571e-07
-9.35962e-07
-1.27405e-07
-8.70592e-07
-1.29003e-07
-8.04492e-07
-1.30496e-07
-7.37718e-07
-1.31882e-07
-6.70329e-07
-1.33151e-07
-6.02388e-07
-1.34302e-07
-5.33961e-07
-1.35322e-07
-4.6512e-07
-1.3621e-07
-3.95937e-07
-1.36953e-07
-3.26493e-07
-1.37547e-07
-2.56867e-07
-1.3798e-07
-1.87145e-07
-1.38252e-07
-1.17408e-07
-1.38356e-07
-4.77227e-08
-1.38316e-07
2.18587e-08
-1.38144e-07
9.12348e-08
-1.37817e-07
1.60285e-07
-1.37293e-07
2.28784e-07
-1.36593e-07
2.96495e-07
-1.35654e-07
3.63403e-07
-1.34408e-07
4.29521e-07
-1.32908e-07
4.94786e-07
-1.31236e-07
5.59135e-07
-1.29422e-07
6.22512e-07
-1.27487e-07
6.84863e-07
-1.25439e-07
7.46141e-07
-1.23288e-07
8.06296e-07
-1.21033e-07
8.65278e-07
-1.18668e-07
9.23024e-07
-1.1617e-07
9.79451e-07
-1.13501e-07
1.03444e-06
-1.10576e-07
1.08778e-06
-1.07242e-07
1.13914e-06
-1.03195e-07
1.18793e-06
-9.78515e-08
1.23298e-06
-8.98217e-08
1.2724e-06
-7.63661e-08
1.3036e-06
-4.94823e-08
1.01824e-08
1.32539e-06
-1.78912e-09
-1.95838e-08
-9.79598e-09
-6.86378e-09
-2.02219e-08
5.63278e-09
-3.21907e-08
1.66223e-08
-4.54714e-08
2.63986e-08
-6.00962e-08
3.50362e-08
-7.6194e-08
4.25434e-08
-9.38575e-08
4.89631e-08
-1.13106e-07
5.44061e-08
-1.3388e-07
5.90342e-08
-1.56086e-07
6.30251e-08
-1.79615e-07
6.65443e-08
-2.04376e-07
6.97296e-08
-2.30294e-07
7.26874e-08
-2.57322e-07
7.54962e-08
-2.85427e-07
7.82137e-08
-3.14599e-07
8.08822e-08
-3.44831e-07
8.35348e-08
-3.76132e-07
8.61973e-08
-4.0851e-07
8.88915e-08
-4.41987e-07
9.16363e-08
-4.7658e-07
9.445e-08
-5.12309e-07
9.73505e-08
-5.4916e-07
1.0035e-07
-5.8709e-07
1.03445e-07
-6.25981e-07
1.06612e-07
-6.65561e-07
1.09795e-07
-7.05357e-07
1.12879e-07
-7.44763e-07
1.15641e-07
-7.83429e-07
1.17733e-07
-8.22584e-07
1.18779e-07
-8.62948e-07
1.18941e-07
-9.03058e-07
1.1906e-07
-9.4332e-07
1.19237e-07
-9.8428e-07
1.19752e-07
-1.02352e-06
1.21174e-07
-1.05964e-06
1.23062e-07
-1.09478e-06
1.23914e-07
-1.12926e-06
1.23852e-07
-1.16512e-06
1.22721e-07
-1.20297e-06
1.21092e-07
-1.24028e-06
1.19952e-07
-1.27676e-06
1.19177e-07
-1.31255e-06
1.18568e-07
-1.34781e-06
1.18e-07
-1.38268e-06
1.17416e-07
-1.41724e-06
1.16798e-07
-1.45151e-06
1.16142e-07
-1.48554e-06
1.15451e-07
-1.51931e-06
1.14724e-07
-1.55283e-06
1.13964e-07
-1.5861e-06
1.13168e-07
-1.61911e-06
1.12335e-07
-1.65184e-06
1.11462e-07
-1.68429e-06
1.10544e-07
-1.71643e-06
1.09577e-07
-1.74825e-06
1.08556e-07
-1.77974e-06
1.07478e-07
-1.81086e-06
1.06335e-07
-1.8416e-06
1.05124e-07
-1.87193e-06
1.0384e-07
-1.90183e-06
1.02479e-07
-1.93127e-06
1.01035e-07
-1.96022e-06
9.95045e-08
-1.98866e-06
9.78844e-08
-2.01656e-06
9.61709e-08
-2.04388e-06
9.43611e-08
-2.0706e-06
9.24523e-08
-2.09669e-06
9.04424e-08
-2.12211e-06
8.83294e-08
-2.14682e-06
8.61119e-08
-2.17081e-06
8.37889e-08
-2.19403e-06
8.13595e-08
-2.21645e-06
7.88235e-08
-2.23804e-06
7.61808e-08
-2.25877e-06
7.34318e-08
-2.2786e-06
7.05773e-08
-2.29751e-06
6.76185e-08
-2.31546e-06
6.45565e-08
-2.33241e-06
6.1393e-08
-2.34835e-06
5.813e-08
-2.36324e-06
5.47694e-08
-2.37704e-06
5.13135e-08
-2.38974e-06
4.77645e-08
-2.4013e-06
4.4125e-08
-2.41171e-06
4.03975e-08
-2.42093e-06
3.65848e-08
-2.42894e-06
3.26903e-08
-2.43572e-06
2.87176e-08
-2.44127e-06
2.46704e-08
-2.44557e-06
2.05525e-08
-2.44861e-06
1.63688e-08
-2.45038e-06
1.21263e-08
-2.45091e-06
7.83524e-09
-2.45018e-06
3.51189e-09
-2.4482e-06
-8.22464e-10
-2.44494e-06
-5.15187e-09
-2.44033e-06
-9.48643e-09
-2.43435e-06
-1.38482e-08
-2.42695e-06
-1.82441e-08
-2.41812e-06
-2.26702e-08
-2.40786e-06
-2.71228e-08
-2.39615e-06
-3.15986e-08
-2.38297e-06
-3.60931e-08
-2.36834e-06
-4.06023e-08
-2.35223e-06
-4.51215e-08
-2.33465e-06
-4.96478e-08
-2.31559e-06
-5.41773e-08
-2.29505e-06
-5.87083e-08
-2.27304e-06
-6.32375e-08
-2.24955e-06
-6.7764e-08
-2.22458e-06
-7.22843e-08
-2.19813e-06
-7.67975e-08
-2.17021e-06
-8.13001e-08
-2.14082e-06
-8.5791e-08
-2.10997e-06
-9.02665e-08
-2.07765e-06
-9.47242e-08
-2.04388e-06
-9.91603e-08
-2.00866e-06
-1.03574e-07
-1.972e-06
-1.07963e-07
-1.93391e-06
-1.12327e-07
-1.89441e-06
-1.16661e-07
-1.85351e-06
-1.20959e-07
-1.81121e-06
-1.25213e-07
-1.76752e-06
-1.29419e-07
-1.72245e-06
-1.33571e-07
-1.67604e-06
-1.37669e-07
-1.62829e-06
-1.41709e-07
-1.57922e-06
-1.45686e-07
-1.52885e-06
-1.49597e-07
-1.47722e-06
-1.53438e-07
-1.42434e-06
-1.57193e-07
-1.37025e-06
-1.60849e-07
-1.31497e-06
-1.64407e-07
-1.25855e-06
-1.67868e-07
-1.20102e-06
-1.71228e-07
-1.14242e-06
-1.74482e-07
-1.08279e-06
-1.77627e-07
-1.02217e-06
-1.80657e-07
-9.60601e-07
-1.83567e-07
-8.98139e-07
-1.8635e-07
-8.34825e-07
-1.88996e-07
-7.70709e-07
-1.91499e-07
-7.05843e-07
-1.93851e-07
-6.40282e-07
-1.96044e-07
-5.74084e-07
-1.9807e-07
-5.07312e-07
-1.99919e-07
-4.4003e-07
-2.01582e-07
-3.72308e-07
-2.03047e-07
-3.0422e-07
-2.04303e-07
-2.35842e-07
-2.0534e-07
-1.67254e-07
-2.06145e-07
-9.85408e-08
-2.06709e-07
-2.97736e-08
-2.07035e-07
3.89656e-08
-2.07115e-07
1.07572e-07
-2.06941e-07
1.75921e-07
-2.06515e-07
2.43898e-07
-2.05816e-07
3.11407e-07
-2.04825e-07
3.78327e-07
-2.03535e-07
4.44547e-07
-2.01899e-07
5.10016e-07
-1.99901e-07
5.74683e-07
-1.97599e-07
6.38482e-07
-1.95058e-07
7.01349e-07
-1.92314e-07
7.63232e-07
-1.89393e-07
8.24081e-07
-1.86312e-07
8.83852e-07
-1.83083e-07
9.42501e-07
-1.79707e-07
9.99984e-07
-1.76175e-07
1.05625e-06
-1.72457e-07
1.11121e-06
-1.68492e-07
1.16477e-06
-1.64163e-07
1.21676e-06
-1.59252e-07
1.26688e-06
-1.53348e-07
1.31469e-06
-1.45684e-07
1.35948e-06
-1.34643e-07
1.40031e-06
-1.17228e-07
1.43726e-06
-8.64505e-08
-2.75181e-08
1.47494e-06
-1.01701e-08
-9.42405e-09
-2.41446e-08
7.10176e-09
-3.92022e-08
2.06842e-08
-5.49073e-08
3.23236e-08
-7.12341e-08
4.27211e-08
-8.82875e-08
5.20865e-08
-1.0623e-07
6.0482e-08
-1.25217e-07
6.7947e-08
-1.45365e-07
7.455e-08
-1.6673e-07
8.03961e-08
-1.89322e-07
8.56135e-08
-2.13115e-07
9.03346e-08
-2.38071e-07
9.46814e-08
-2.64144e-07
9.87568e-08
-2.91295e-07
1.02643e-07
-3.19486e-07
1.06401e-07
-3.48685e-07
1.10077e-07
-3.78859e-07
1.13704e-07
-4.09971e-07
1.17305e-07
-4.41976e-07
1.20893e-07
-4.74824e-07
1.24478e-07
-5.08439e-07
1.28062e-07
-5.42731e-07
1.31638e-07
-5.77571e-07
1.35185e-07
-6.12798e-07
1.38664e-07
-6.48209e-07
1.42015e-07
-6.83573e-07
1.45151e-07
-7.18664e-07
1.47958e-07
-7.53328e-07
1.50295e-07
-7.87633e-07
1.52025e-07
-8.21951e-07
1.53087e-07
-8.56609e-07
1.53586e-07
-8.91398e-07
1.53841e-07
-9.26229e-07
1.54059e-07
-9.60877e-07
1.54396e-07
-9.94636e-07
1.54929e-07
-1.02703e-06
1.55451e-07
-1.05866e-06
1.55547e-07
-1.08998e-06
1.55168e-07
-1.1216e-06
1.54344e-07
-1.15378e-06
1.53267e-07
-1.18604e-06
1.52216e-07
-1.21813e-06
1.51269e-07
-1.24997e-06
1.50404e-07
-1.28155e-06
1.49582e-07
-1.3129e-06
1.4877e-07
-1.34406e-06
1.47949e-07
-1.37502e-06
1.47107e-07
-1.40581e-06
1.46238e-07
-1.43642e-06
1.45335e-07
-1.46685e-06
1.44395e-07
-1.4971e-06
1.43413e-07
-1.52715e-06
1.42382e-07
-1.55699e-06
1.41298e-07
-1.5866e-06
1.40155e-07
-1.61597e-06
1.38945e-07
-1.64508e-06
1.37663e-07
-1.67391e-06
1.36302e-07
-1.70243e-06
1.34856e-07
-1.73063e-06
1.33318e-07
-1.75847e-06
1.31682e-07
-1.78594e-06
1.29943e-07
-1.81301e-06
1.28095e-07
-1.83964e-06
1.26133e-07
-1.86581e-06
1.24053e-07
-1.89149e-06
1.21849e-07
-1.91665e-06
1.19518e-07
-1.94126e-06
1.17058e-07
-1.96529e-06
1.14465e-07
-1.9887e-06
1.11737e-07
-2.01147e-06
1.08872e-07
-2.03355e-06
1.05868e-07
-2.05492e-06
1.02726e-07
-2.07554e-06
9.94438e-08
-2.09539e-06
9.60223e-08
-2.11442e-06
9.24619e-08
-2.13261e-06
8.87636e-08
-2.14993e-06
8.49288e-08
-2.16634e-06
8.09594e-08
-2.1818e-06
7.68574e-08
-2.19631e-06
7.26255e-08
-2.20981e-06
6.82665e-08
-2.22228e-06
6.37836e-08
-2.2337e-06
5.91802e-08
-2.24404e-06
5.44599e-08
-2.25328e-06
4.96269e-08
-2.26138e-06
4.46856e-08
-2.26834e-06
3.96411e-08
-2.27412e-06
3.44988e-08
-2.27872e-06
2.92644e-08
-2.28212e-06
2.39443e-08
-2.2843e-06
1.85458e-08
-2.28525e-06
1.30777e-08
-2.28497e-06
7.55076e-09
-2.28345e-06
1.97764e-09
-2.28065e-06
-3.62953e-09
-2.27654e-06
-9.26553e-09
-2.27109e-06
-1.49376e-08
-2.26429e-06
-2.0656e-08
-2.25612e-06
-2.64223e-08
-2.24657e-06
-3.22317e-08
-2.23563e-06
-3.80787e-08
-2.22329e-06
-4.39578e-08
-2.20953e-06
-4.98627e-08
-2.19436e-06
-5.57882e-08
-2.17777e-06
-6.17283e-08
-2.15976e-06
-6.76791e-08
-2.14031e-06
-7.36358e-08
-2.11944e-06
-7.95958e-08
-2.09714e-06
-8.5555e-08
-2.0734e-06
-9.15115e-08
-2.04824e-06
-9.74613e-08
-2.02164e-06
-1.03403e-07
-1.99362e-06
-1.09332e-07
-1.96418e-06
-1.15247e-07
-1.93331e-06
-1.21142e-07
-1.90102e-06