/*--------------------------------*- C++ -*----------------------------------*\
  =========                 |
  \\      /  F ield         | OpenFOAM: The Open Source CFD Toolbox
   \\    /   O peration     | Website:  https://openfoam.org
    \\  /    A nd           | Version:  8
     \\/     M anipulation  |
\*---------------------------------------------------------------------------*/
FoamFile
{
    version     2.0;
    format      ascii;
    class       volVectorField;
    location    "230";
    object      U;
}
// * * * * * * * * * * * * * * * * * * * * * * * * * * * * * * * * * * * * * //

dimensions      [0 1 -1 0 0 0 0];

internalField   nonuniform List<vector> 
12225
(
(9.85697 -0.886448 0)
(9.66665 -0.740745 0)
(9.45572 -0.429482 0)
(9.22453 -0.222213 0)
(9.0065 -0.106459 0)
(8.81439 -0.0458702 0)
(8.64751 -0.0151751 0)
(8.50533 0.00044812 0)
(8.38367 0.00838587 0)
(8.28092 0.0122723 0)
(8.19252 0.0139959 0)
(8.11636 0.014994 0)
(8.04963 0.0154042 0)
(7.99063 0.0155645 0)
(7.9374 0.0156204 0)
(7.8912 0.0154613 0)
(7.83732 0.0167964 0)
(7.82783 0.0110108 0)
(10.0545 0.227568 0)
(10.121 0.326911 0)
(10.1196 0.261572 0)
(10.0856 0.18654 0)
(10.0434 0.134668 0)
(9.99673 0.101113 0)
(9.94402 0.0792837 0)
(9.88528 0.0645635 0)
(9.82392 0.0542563 0)
(9.76141 0.0466689 0)
(9.69996 0.0408999 0)
(9.64015 0.0363487 0)
(9.58286 0.0326865 0)
(9.52849 0.029819 0)
(9.47667 0.0273563 0)
(9.42905 0.0265173 0)
(9.38156 0.0234719 0)
(9.34725 0.0322443 0)
(10.0035 0.0579187 0)
(10.0303 0.0560075 0)
(10.0561 0.0337801 0)
(10.0703 0.0328968 0)
(10.077 0.0406456 0)
(10.0778 0.0465426 0)
(10.0726 0.0493567 0)
(10.0614 0.0503014 0)
(10.0462 0.050199 0)
(10.0278 0.0494852 0)
(10.0072 0.048442 0)
(9.98505 0.0472786 0)
(9.96193 0.0460961 0)
(9.93831 0.0450278 0)
(9.91442 0.043965 0)
(9.89106 0.0435687 0)
(9.8678 0.0427578 0)
(9.84601 0.044807 0)
(9.99779 0.0110539 0)
(10.011 0.0266089 0)
(10.035 0.0371513 0)
(10.0525 0.0480862 0)
(10.0644 0.0554525 0)
(10.0734 0.0581843 0)
(10.0795 0.0583536 0)
(10.0824 0.0576115 0)
(10.0828 0.0565629 0)
(10.0813 0.0553676 0)
(10.0782 0.0540975 0)
(10.0739 0.0528704 0)
(10.0685 0.051684 0)
(10.0624 0.0506417 0)
(10.0556 0.049654 0)
(10.0487 0.049096 0)
(10.0417 0.0483596 0)
(10.0347 0.0486486 0)
(9.99935 0.00719841 0)
(10.009 0.0316552 0)
(10.0275 0.0439231 0)
(10.0418 0.0499236 0)
(10.0528 0.0536121 0)
(10.0629 0.0552363 0)
(10.0716 0.0555158 0)
(10.0784 0.0552261 0)
(10.0835 0.0546832 0)
(10.0873 0.0539803 0)
(10.0901 0.0531734 0)
(10.092 0.0523579 0)
(10.0932 0.051551 0)
(10.0939 0.0508288 0)
(10.094 0.0501514 0)
(10.094 0.0497015 0)
(10.0939 0.0491934 0)
(10.0938 0.0489608 0)
(10.0003 0.00917875 0)
(10.0083 0.0311708 0)
(10.0227 0.0409445 0)
(10.035 0.0453935 0)
(10.045 0.0490377 0)
(10.0548 0.0513722 0)
(10.0638 0.0523526 0)
(10.0714 0.0525854 0)
(10.0779 0.0524514 0)
(10.0835 0.0520889 0)
(10.0883 0.0515746 0)
(10.0925 0.0509971 0)
(10.0961 0.050393 0)
(10.0994 0.0498176 0)
(10.1023 0.0492583 0)
(10.105 0.0487909 0)
(10.1076 0.0482821 0)
(10.1103 0.0477363 0)
(10.0005 0.00894523 0)
(10.0071 0.0270862 0)
(10.0191 0.0364136 0)
(10.0302 0.0413905 0)
(10.0396 0.045413 0)
(10.0487 0.0480772 0)
(10.0573 0.0493449 0)
(10.0649 0.0498132 0)
(10.0717 0.049885 0)
(10.0778 0.0497067 0)
(10.0834 0.049357 0)
(10.0884 0.0489136 0)
(10.093 0.0484209 0)
(10.0973 0.0479175 0)
(10.1013 0.0474017 0)
(10.1052 0.0468958 0)
(10.109 0.0463234 0)
(10.1128 0.0456026 0)
(10.0004 0.00791648 0)
(10.006 0.0233801 0)
(10.0161 0.0327357 0)
(10.0263 0.0381007 0)
(10.0351 0.0420943 0)
(10.0436 0.0447756 0)
(10.0517 0.0461843 0)
(10.0592 0.0468154 0)
(10.066 0.0470344 0)
(10.0721 0.0469866 0)
(10.0779 0.0467515 0)
(10.0832 0.0463991 0)
(10.0882 0.0459761 0)
(10.093 0.0455109 0)
(10.0975 0.0450053 0)
(10.1018 0.0444563 0)
(10.1061 0.0438113 0)
(10.1104 0.0429877 0)
(10.0004 0.00696086 0)
(10.0051 0.020428 0)
(10.0137 0.0294538 0)
(10.0229 0.0348603 0)
(10.0312 0.0387093 0)
(10.0391 0.0413684 0)
(10.0468 0.0428973 0)
(10.054 0.0436672 0)
(10.0606 0.0440022 0)
(10.0668 0.0440528 0)
(10.0725 0.0439002 0)
(10.0779 0.0436103 0)
(10.0831 0.0432286 0)
(10.0879 0.0427787 0)
(10.0926 0.0422629 0)
(10.0972 0.0416703 0)
(10.1016 0.0409601 0)
(10.106 0.0400744 0)
(10.0004 0.00613004 0)
(10.0043 0.0178626 0)
(10.0116 0.026276 0)
(10.0199 0.0315802 0)
(10.0276 0.0353026 0)
(10.0351 0.0379256 0)
(10.0424 0.0395334 0)
(10.0493 0.0404056 0)
(10.0557 0.0408266 0)
(10.0617 0.0409495 0)
(10.0674 0.0408565 0)
(10.0728 0.0406095 0)
(10.0779 0.0402512 0)
(10.0828 0.0398037 0)
(10.0875 0.03927 0)
(10.0921 0.0386389 0)
(10.0965 0.0378799 0)
(10.1009 0.0369614 0)
(10.0003 0.00537009 0)
(10.0037 0.0155533 0)
(10.0099 0.0232378 0)
(10.0173 0.0283441 0)
(10.0245 0.0319241 0)
(10.0315 0.0344699 0)
(10.0384 0.0361022 0)
(10.045 0.0370377 0)
(10.0512 0.0375185 0)
(10.0571 0.037693 0)
(10.0626 0.0376426 0)
(10.0679 0.0374247 0)
(10.073 0.0370799 0)
(10.0778 0.0366295 0)
(10.0825 0.0360784 0)
(10.087 0.0354189 0)
(10.0913 0.0346301 0)
(10.0956 0.0337013 0)
(10.0003 0.00470485 0)
(10.0032 0.0136119 0)
(10.0086 0.0205909 0)
(10.0152 0.0254318 0)
(10.0219 0.0288454 0)
(10.0285 0.0312853 0)
(10.0351 0.0328979 0)
(10.0414 0.0338593 0)
(10.0474 0.034373 0)
(10.0531 0.0345777 0)
(10.0585 0.0345529 0)
(10.0637 0.0343524 0)
(10.0687 0.0340145 0)
(10.0734 0.0335605 0)
(10.078 0.0329975 0)
(10.0824 0.0323225 0)
(10.0867 0.0315223 0)
(10.0908 0.0306017 0)
(10.0003 0.00408998 0)
(10.0028 0.0118426 0)
(10.0075 0.0180913 0)
(10.0134 0.0225904 0)
(10.0197 0.0258033 0)
(10.0259 0.0281117 0)
(10.0321 0.0296721 0)
(10.0381 0.030632 0)
(10.0439 0.0311602 0)
(10.0494 0.0313816 0)
(10.0547 0.0313726 0)
(10.0598 0.0311836 0)
(10.0646 0.0308505 0)
(10.0693 0.0303949 0)
(10.0738 0.0298263 0)
(10.0781 0.0291462 0)
(10.0822 0.0283478 0)
(10.0862 0.0274477 0)
(10.0002 0.00345483 0)
(10.0024 0.0100035 0)
(10.0064 0.0154102 0)
(10.0117 0.0194425 0)
(10.0174 0.022371 0)
(10.0232 0.0244881 0)
(10.029 0.0259455 0)
(10.0347 0.0268663 0)
(10.0403 0.0273839 0)
(10.0456 0.0276055 0)
(10.0507 0.0276012 0)
(10.0557 0.0274176 0)
(10.0604 0.0270879 0)
(10.0649 0.0266333 0)
(10.0693 0.026066 0)
(10.0735 0.0253918 0)
(10.0774 0.0246098 0)
(10.0813 0.0237448 0)
(10.0002 0.00279535 0)
(10.002 0.0080934 0)
(10.0055 0.0125576 0)
(10.0101 0.0159934 0)
(10.0153 0.0185354 0)
(10.0206 0.0203858 0)
(10.026 0.0216759 0)
(10.0314 0.0225059 0)
(10.0367 0.0229763 0)
(10.0418 0.0231732 0)
(10.0468 0.0231573 0)
(10.0515 0.0229701 0)
(10.0561 0.0226412 0)
(10.0605 0.0221914 0)
(10.0647 0.0216342 0)
(10.0687 0.0209793 0)
(10.0725 0.0202302 0)
(10.0762 0.0194163 0)
(10.0002 0.00211085 0)
(10.0017 0.00611422 0)
(10.0047 0.0095422 0)
(10.0088 0.0122478 0)
(10.0134 0.0142842 0)
(10.0183 0.0157752 0)
(10.0233 0.0168193 0)
(10.0283 0.0174924 0)
(10.0333 0.0178659 0)
(10.0382 0.0180031 0)
(10.0429 0.0179524 0)
(10.0475 0.0177482 0)
(10.0519 0.0174156 0)
(10.0561 0.0169735 0)
(10.0601 0.0164357 0)
(10.064 0.0158137 0)
(10.0676 0.0151136 0)
(10.0711 0.0143657 0)
(10.0002 0.00139837 0)
(10.0015 0.00405192 0)
(10.0041 0.00634767 0)
(10.0076 0.00818886 0)
(10.0118 0.00958892 0)
(10.0163 0.0106121 0)
(10.0209 0.011319 0)
(10.0256 0.0117583 0)
(10.0303 0.0119749 0)
(10.035 0.0120096 0)
(10.0395 0.0118953 0)
(10.0438 0.0116569 0)
(10.048 0.0113136 0)
(10.0521 0.0108804 0)
(10.0559 0.0103696 0)
(10.0596 0.00979183 0)
(10.0631 0.00915376 0)
(10.0665 0.00848366 0)
(10.0001 0.000641471 0)
(10.0013 0.00185463 0)
(10.0036 0.00290181 0)
(10.0069 0.00373632 0)
(10.0107 0.00435886 0)
(10.0148 0.00479185 0)
(10.0192 0.00505808 0)
(10.0237 0.00517744 0)
(10.0281 0.0051692 0)
(10.0325 0.00505159 0)
(10.0368 0.00484011 0)
(10.041 0.00454735 0)
(10.045 0.00418382 0)
(10.0489 0.00375868 0)
(10.0526 0.00328 0)
(10.0561 0.00275575 0)
(10.0595 0.0021907 0)
(10.0627 0.00160872 0)
(10.0001 -0.000202948 0)
(10.0012 -0.000599722 0)
(10.0034 -0.000968692 0)
(10.0066 -0.00130224 0)
(10.0102 -0.00159934 0)
(10.0143 -0.00187399 0)
(10.0185 -0.00214406 0)
(10.0228 -0.00242163 0)
(10.0271 -0.00271401 0)
(10.0314 -0.00302679 0)
(10.0355 -0.00336424 0)
(10.0396 -0.00372866 0)
(10.0435 -0.00412063 0)
(10.0472 -0.00453938 0)
(10.0508 -0.00498326 0)
(10.0542 -0.00544939 0)
(10.0574 -0.00593654 0)
(10.0605 -0.00642757 0)
(10.0001 -0.00101073 0)
(10.0013 -0.0029547 0)
(10.0037 -0.00468912 0)
(10.007 -0.00613611 0)
(10.0108 -0.00729193 0)
(10.015 -0.00821637 0)
(10.0193 -0.0089708 0)
(10.0237 -0.00959714 0)
(10.028 -0.0101296 0)
(10.0323 -0.0105997 0)
(10.0365 -0.0110321 0)
(10.0405 -0.0114433 0)
(10.0443 -0.0118444 0)
(10.048 -0.0122427 0)
(10.0515 -0.012643 0)
(10.0549 -0.0130475 0)
(10.0581 -0.0134584 0)
(10.0611 -0.0138647 0)
(10.0002 -0.00170734 0)
(10.0015 -0.00501149 0)
(10.0041 -0.00794052 0)
(10.0078 -0.0102952 0)
(10.012 -0.0120961 0)
(10.0164 -0.0134932 0)
(10.021 -0.0145926 0)
(10.0255 -0.0154512 0)
(10.03 -0.0161257 0)
(10.0344 -0.0166747 0)
(10.0386 -0.0171425 0)
(10.0426 -0.0175576 0)
(10.0465 -0.0179391 0)
(10.0502 -0.0183006 0)
(10.0537 -0.0186514 0)
(10.057 -0.0189967 0)
(10.0601 -0.0193408 0)
(10.0631 -0.0196766 0)
(10.0002 -0.00236892 0)
(10.0016 -0.00704397 0)
(10.0047 -0.0111895 0)
(10.009 -0.0143623 0)
(10.0137 -0.0166619 0)
(10.0185 -0.0183988 0)
(10.0234 -0.0197328 0)
(10.0282 -0.0207347 0)
(10.0328 -0.0214859 0)
(10.0373 -0.0220673 0)
(10.0416 -0.0225355 0)
(10.0457 -0.0229269 0)
(10.0496 -0.023268 0)
(10.0533 -0.0235782 0)
(10.0568 -0.0238704 0)
(10.0601 -0.0241523 0)
(10.0633 -0.0244293 0)
(10.0663 -0.0246969 0)
(10.0002 -0.00298815 0)
(10.0018 -0.00910224 0)
(10.0054 -0.0144606 0)
(10.0105 -0.018353 0)
(10.0159 -0.0211002 0)
(10.0211 -0.0231255 0)
(10.0263 -0.024584 0)
(10.0314 -0.0256007 0)
(10.0363 -0.02633 0)
(10.0409 -0.0268815 0)
(10.0453 -0.0273119 0)
(10.0495 -0.0276565 0)
(10.0534 -0.0279447 0)
(10.0571 -0.0281987 0)
(10.0606 -0.0284329 0)
(10.064 -0.0286554 0)
(10.0671 -0.0288717 0)
(10.0701 -0.0290794 0)
(10.0001 -0.00353401 0)
(10.0018 -0.0115556 0)
(10.0062 -0.0178949 0)
(10.0123 -0.0219958 0)
(10.0183 -0.0250659 0)
(10.024 -0.0274782 0)
(10.0296 -0.029119 0)
(10.035 -0.0301315 0)
(10.0401 -0.0307862 0)
(10.0449 -0.0312478 0)
(10.0494 -0.0315838 0)
(10.0536 -0.0318349 0)
(10.0576 -0.0320347 0)
(10.0614 -0.0322072 0)
(10.0649 -0.0323657 0)
(10.0682 -0.0325177 0)
(10.0713 -0.0326665 0)
(10.0742 -0.0328089 0)
(9.99991 -0.0033825 0)
(10.0016 -0.0149718 0)
(10.0073 -0.0227323 0)
(10.0142 -0.0262468 0)
(10.0206 -0.0288365 0)
(10.0268 -0.0312043 0)
(10.0331 -0.0329279 0)
(10.039 -0.0340181 0)
(10.0444 -0.0347196 0)
(10.0494 -0.0351851 0)
(10.054 -0.0354846 0)
(10.0583 -0.0356725 0)
(10.0623 -0.0357947 0)
(10.066 -0.0358822 0)
(10.0694 -0.035953 0)
(10.0726 -0.0360171 0)
(10.0755 -0.0360791 0)
(10.0782 -0.0361376 0)
(9.9986 -0.000399386 0)
(9.99909 -0.0157593 0)
(10.0075 -0.0274344 0)
(10.0166 -0.0324976 0)
(10.0238 -0.0348761 0)
(10.0306 -0.0362337 0)
(10.0376 -0.0369872 0)
(10.0441 -0.0374555 0)
(10.0499 -0.0378055 0)
(10.055 -0.038054 0)
(10.0595 -0.0382 0)
(10.0636 -0.0382688 0)
(10.0672 -0.0382902 0)
(10.0703 -0.0382856 0)
(10.0731 -0.0382702 0)
(10.0755 -0.0382521 0)
(10.0777 -0.0382354 0)
(10.0795 -0.038218 0)
(9.99488 0.00133467 0)
(9.99288 -0.00809463 0)
(10.006 -0.0203548 0)
(10.0202 -0.0322812 0)
(10.0307 -0.0404845 0)
(10.0392 -0.0441571 0)
(10.0467 -0.0450705 0)
(10.0529 -0.0449269 0)
(10.0578 -0.0444608 0)
(10.0616 -0.043866 0)
(10.0646 -0.043222 0)
(10.0668 -0.0425859 0)
(10.0682 -0.0419917 0)
(10.0691 -0.0414478 0)
(10.0694 -0.0409639 0)
(10.0692 -0.0405364 0)
(10.0688 -0.0401624 0)
(10.068 -0.0398164 0)
(9.99473 -0.030562 0)
(9.99925 -0.0228733 0)
(10.0147 -0.00263777 0)
(10.0304 -0.00191273 0)
(10.0434 -0.011663 0)
(10.0533 -0.0209274 0)
(10.0594 -0.0272851 0)
(10.0619 -0.0315134 0)
(10.0615 -0.0342888 0)
(10.0591 -0.0359856 0)
(10.055 -0.0369178 0)
(10.0497 -0.0373516 0)
(10.0435 -0.0374774 0)
(10.0364 -0.0374149 0)
(10.0289 -0.0372546 0)
(10.021 -0.0370517 0)
(10.0128 -0.036871 0)
(10.0046 -0.0366812 0)
(10.0273 -0.182758 0)
(10.0763 -0.288314 0)
(10.0871 -0.247756 0)
(10.0777 -0.186521 0)
(10.0664 -0.140299 0)
(10.0537 -0.108225 0)
(10.0365 -0.0858853 0)
(10.0145 -0.0704255 0)
(9.98937 -0.0596569 0)
(9.96233 -0.0518831 0)
(9.93435 -0.046061 0)
(9.90603 -0.0415635 0)
(9.87785 -0.0380076 0)
(9.85014 -0.0351325 0)
(9.82315 -0.0327662 0)
(9.79698 -0.0308452 0)
(9.77189 -0.0293285 0)
(9.74789 -0.0285088 0)
(9.93574 0.689319 0)
(9.86861 0.609605 0)
(9.76453 0.380622 0)
(9.62663 0.217441 0)
(9.48588 0.119266 0)
(9.35719 0.0631849 0)
(9.24266 0.0315733 0)
(9.14111 0.0136134 0)
(9.05142 0.00326025 0)
(8.97244 -0.00280106 0)
(8.90253 -0.0063566 0)
(8.84035 -0.00847589 0)
(8.78465 -0.00972663 0)
(8.73454 -0.0104729 0)
(8.68911 -0.0109759 0)
(8.64776 -0.011245 0)
(8.60957 -0.0114519 0)
(8.57422 -0.0121123 0)
(0.00573364 -0.0135774 -7.55876e-19)
(0.0185739 -0.018895 5.99201e-19)
(0.028116 -0.0140135 0)
(0.0329229 -0.00582905 0)
(0.032064 0.00229582 0)
(0.0263003 0.00876864 -2.8743e-19)
(0.0168451 0.013246 0)
(0.00468662 0.0160463 0)
(-0.00941958 0.0176793 0)
(-0.0249515 0.0186308 0)
(-0.0415905 0.0192455 1.56407e-19)
(-0.0591457 0.0197192 0)
(-0.0775053 0.0201445 0)
(-0.0966007 0.0205607 0)
(-0.116387 0.0209818 0)
(-0.136828 0.0214146 9.32334e-20)
(-0.157898 0.0218623 0)
(-0.179569 0.0223281 0)
(-0.20182 0.0228127 0)
(-0.224636 0.0233225 0)
(-0.248014 0.0238772 0)
(-0.27197 0.02453 0)
(-0.296493 0.0253813 0)
(-0.321482 0.0265704 5.9878e-20)
(-0.346813 0.0281877 -5.7969e-20)
(-0.372534 0.0303441 5.64297e-20)
(-0.398791 0.0337566 5.53689e-20)
(-0.425886 0.0390328 0)
(-0.454304 0.0468421 0)
(-0.484223 0.0587563 -6.10688e-20)
(-0.518432 0.0354141 -7.76097e-20)
(-0.554203 -0.00487602 0)
(-0.583166 -0.00747726 0)
(-0.61635 -0.0121729 -7.54041e-20)
(-0.650619 -0.0277459 0)
(-0.684374 0.0204299 0)
(-0.719308 0.0711962 4.09266e-20)
(-0.765036 0.0844964 0)
(-0.807086 0.103358 4.45272e-20)
(-0.848446 0.0785454 1.0911e-19)
(-0.888648 0.029323 0)
(-0.920276 0.0307192 0)
(-0.956542 0.0325739 0)
(-0.994612 0.0338716 0)
(-1.03378 0.034346 0)
(-1.07338 0.0344541 9.99742e-20)
(-1.11319 0.0343691 9.72728e-20)
(-1.15308 0.0341871 9.47413e-20)
(-1.19297 0.0339442 0)
(-1.23281 0.0336662 -9.01333e-20)
(-1.27256 0.0333638 0)
(-1.31219 0.0330457 8.60472e-20)
(-1.3517 0.0327151 8.41723e-20)
(-1.39106 0.0323749 0)
(-1.43025 0.0320252 0)
(-1.46926 0.0316664 0)
(-1.50808 0.0312976 7.75865e-20)
(-1.54669 0.0309184 0)
(-1.58506 0.030527 0)
(-1.62317 0.0301227 0)
(-1.66101 0.0297039 0)
(-1.69855 0.0292698 0)
(-1.73575 0.0288188 0)
(-1.7726 0.0283502 0)
(-1.80906 0.0278626 0)
(-1.84511 0.0273555 -6.64347e-20)
(-1.8807 0.0268279 0)
(-1.9158 0.0262796 0)
(-1.95039 0.0257099 6.34319e-20)
(-1.98442 0.0251187 6.24832e-20)
(-2.01785 0.0245057 0)
(-2.05065 0.0238708 -6.06494e-20)
(-2.08278 0.0232141 5.97596e-20)
(-2.1142 0.0225358 0)
(-2.14487 0.0218361 -5.80237e-20)
(-2.17475 0.0211154 0)
(-2.20381 0.0203744 0)
(-2.232 0.0196139 5.54992e-20)
(-2.25928 0.0188343 0)
(-2.28562 0.0180364 -5.38477e-20)
(-2.31097 0.0172211 0)
(-2.3353 0.016389 5.22057e-20)
(-2.35858 0.0155406 5.13842e-20)
(-2.38075 0.0146765 5.05602e-20)
(-2.4018 0.0137973 9.94645e-20)
(-2.42167 0.0129034 -9.77977e-20)
(-2.44034 0.0119952 0)
(-2.45777 0.0110715 0)
(-2.47391 0.01013 0)
(-2.48874 0.00916282 -9.0973e-20)
(-2.50219 0.00815894 -8.92163e-20)
(-2.51424 0.00710572 8.74349e-20)
(-2.52482 0.00599379 0)
(-2.53387 0.00482074 -8.37901e-20)
(-2.54132 0.00359826 -8.19258e-20)
(-2.5471 0.00236259 -8.00346e-20)
(-2.55109 0.00118409 0)
(-2.5532 0.000147376 0)
(-2.55373 -0.000751431 0)
(-2.55283 -0.00159103 -7.20349e-20)
(-2.5505 -0.00241229 0)
(-2.54674 -0.00322436 0)
(-2.54156 -0.00403047 6.5499e-20)
(-2.53494 -0.004831 0)
(-2.52688 -0.00562507 0)
(-2.51736 -0.00641267 5.8455e-20)
(-2.50638 -0.00719267 0)
(-2.49393 -0.00796583 0)
(-2.48001 -0.00873113 -5.08465e-20)
(-2.46461 -0.00948983 -4.8174e-20)
(-2.44773 -0.0102407 0)
(-2.42937 -0.0109852 4.26092e-20)
(-2.40952 -0.0117219 0)
(-2.38818 -0.0124525 -3.67317e-20)
(-2.36535 -0.0131751 0)
(-2.34103 -0.013892 -3.05154e-20)
(-2.31522 -0.014601 -2.72708e-20)
(-2.28792 -0.0153047 0)
(-2.25914 -0.0160015 0)
(-2.22887 -0.0166943 0)
(-2.19714 -0.0173817 0)
(-2.16394 -0.0180652 0)
(-2.12927 -0.018741 0)
(-2.09315 -0.019411 0)
(-2.05556 -0.0200717 2.58602e-21)
(-2.01653 -0.0207282 -6.89544e-21)
(-1.97605 -0.0213803 0)
(-1.93415 -0.0220328 0)
(-1.89083 -0.0226971 0)
(-1.8461 -0.0233416 0)
(-1.8 -0.0239595 -6.18864e-20)
(-1.75254 -0.0245914 0)
(-1.70374 -0.0252141 8.38908e-20)
(-1.65362 -0.0258401 -9.55962e-20)
(-1.60223 -0.0264644 0)
(-1.54957 -0.0270888 0)
(-1.49569 -0.0277137 0)
(-1.4406 -0.0283413 1.47899e-19)
(-1.38436 -0.0289717 1.62559e-19)
(-1.32698 -0.0296052 0)
(-1.26851 -0.0302413 1.94132e-19)
(-1.20899 -0.0308792 2.11169e-19)
(-1.14844 -0.0315196 -2.29133e-19)
(-1.08692 -0.0321624 0)
(-1.02447 -0.0328079 0)
(-0.961132 -0.0334547 -2.89423e-19)
(-0.896951 -0.0341025 0)
(-0.831982 -0.0347487 0)
(-0.766277 -0.0353927 0)
(-0.699897 -0.0360313 0)
(-0.632903 -0.0366632 4.17882e-19)
(-0.565361 -0.0372835 4.49094e-19)
(-0.49734 -0.0378911 0)
(-0.428916 -0.0384822 5.18675e-19)
(-0.360165 -0.0390591 0)
(-0.291171 -0.0396242 0)
(-0.221995 -0.0401842 6.45372e-19)
(-0.152699 -0.040722 0)
(-0.0834668 -0.0411829 7.49666e-19)
(-0.0141781 -0.0412101 0)
(0.0553013 -0.0404804 0)
(0.124735 -0.0393526 7.58681e-19)
(0.193767 -0.0381778 0)
(0.262266 -0.0370176 7.20709e-19)
(0.330127 -0.0358817 0)
(0.397274 -0.0347693 0)
(0.463641 -0.0336801 0)
(0.529167 -0.0326106 -6.62297e-19)
(0.593795 -0.0315587 0)
(0.657462 -0.030519 6.39104e-19)
(0.7201 -0.0294853 0)
(0.781626 -0.028447 0)
(0.841927 -0.0273867 0)
(0.900812 -0.0262722 0)
(0.958027 -0.0250425 0)
(1.01285 -0.0235814 0)
(1.0649 -0.0215863 0)
(1.10866 -0.0183841 -1.15523e-18)
(1.15047 -0.0117463 0)
(1.12989 0.00619221 0)
(0.0045826 -0.0372072 1.70713e-18)
(0.00921072 -0.032112 -8.62977e-19)
(0.00763179 -0.0162873 0)
(0.00308421 -0.000620086 2.67119e-19)
(-0.00395621 0.0133796 0)
(-0.0133604 0.0249947 1.00705e-19)
(-0.025035 0.0340456 -1.83349e-19)
(-0.0388359 0.0407917 -1.68688e-19)
(-0.0545393 0.0457203 0)
(-0.0718735 0.0493575 -1.4455e-19)
(-0.0905977 0.0521428 -6.72812e-20)
(-0.110522 0.0543894 0)
(-0.131506 0.0562965 0)
(-0.15345 0.0579826 0)
(-0.176294 0.0595152 0)
(-0.200003 0.0609357 -4.96616e-20)
(-0.224566 0.0622708 0)
(-0.249984 0.0635426 9.02454e-20)
(-0.276279 0.0647681 0)
(-0.303484 0.0659614 0)
(-0.331648 0.06713 -8.04883e-20)
(-0.360836 0.0682777 0)
(-0.391114 0.0694076 7.61625e-20)
(-0.422564 0.0705255 -3.74953e-20)
(-0.455365 0.0716089 3.70814e-20)
(-0.489736 0.0726231 -3.70137e-20)
(-0.52577 0.0736191 -3.73702e-20)
(-0.563402 0.0747652 0)
(-0.60204 0.0763631 0)
(-0.639871 0.0789942 4.14723e-20)
(-0.679647 0.0823795 -4.37844e-20)
(-0.720103 0.0851552 0)
(-0.760449 0.0884244 0)
(-0.79878 0.0899715 3.63267e-20)
(-0.840134 0.0895832 0)
(-0.879012 0.0882904 0)
(-0.916724 0.0888109 -2.93677e-20)
(-0.953313 0.0864482 0)
(-0.990369 0.0847061 2.91206e-20)
(-1.03 0.084386 -6.09622e-20)
(-1.07166 0.0853067 0)
(-1.11444 0.0871954 0)
(-1.15409 0.0881909 -1.13534e-19)
(-1.19213 0.0884623 -1.11104e-19)
(-1.22934 0.0882472 -1.08792e-19)
(-1.2661 0.0877068 5.31345e-20)
(-1.30252 0.0869703 -5.24104e-20)
(-1.33866 0.0861128 -1.53934e-19)
(-1.37454 0.0851796 1.0063e-19)
(-1.41017 0.0841975 4.95645e-20)
(-1.44555 0.0831817 0)
(-1.48068 0.0821413 -4.78796e-20)
(-1.51554 0.0810806 4.67946e-20)
(-1.55013 0.0800018 0)
(-1.58443 0.0789045 0)
(-1.61844 0.077788 0)
(-1.65215 0.0766499 -4.4229e-20)
(-1.68552 0.0754885 0)
(-1.71856 0.074301 8.5603e-20)
(-1.75123 0.073085 0)
(-1.78351 0.0718379 8.319e-20)
(-1.81539 0.0705578 0)
(-1.84684 0.0692421 -8.09051e-20)
(-1.87784 0.0678893 0)
(-1.90835 0.0664975 7.87255e-20)
(-1.93836 0.0650655 -3.87076e-20)
(-1.96782 0.0635922 0)
(-1.99673 0.0620771 -7.56089e-20)
(-2.02503 0.0605194 -3.74187e-20)
(-2.05272 0.0589193 -3.69179e-20)
(-2.07975 0.0572767 0)
(-2.10609 0.0555921 -3.57146e-20)
(-2.13171 0.0538659 -3.54408e-20)
(-2.15659 0.052099 0)
(-2.18069 0.0502922 3.44679e-20)
(-2.20398 0.048447 -6.77812e-20)
(-2.22643 0.0465647 0)
(-2.248 0.044647 -3.30088e-20)
(-2.26867 0.0426958 0)
(-2.28841 0.0407126 9.59341e-20)
(-2.30718 0.0386995 0)
(-2.32496 0.0366585 -9.29655e-20)
(-2.34172 0.0345915 -3.05254e-20)
(-2.35743 0.0325 2.99092e-20)
(-2.37205 0.0303854 5.88061e-20)
(-2.38557 0.0282487 -5.77803e-20)
(-2.39796 0.0260909 0)
(-2.40918 0.0239134 0)
(-2.41922 0.0217185 0)
(-2.42805 0.0195075 1.60699e-19)
(-2.43567 0.0172798 5.2456e-20)
(-2.44205 0.0150322 -5.13021e-20)
(-2.44719 0.0127592 0)
(-2.4511 0.010453 -4.89588e-20)
(-2.45379 0.00810961 4.7714e-20)
(-2.45532 0.00574309 4.64774e-20)
(-2.45578 0.00340528 0)
(-2.45528 0.00117961 0)
(-2.45361 -0.000915872 0)
(-2.45061 -0.00293964 4.12243e-20)
(-2.44623 -0.00492949 0)
(-2.44046 -0.00689548 -7.70973e-20)
(-2.43328 -0.00884202 -1.11277e-19)
(-2.42468 -0.0107691 7.1379e-20)
(-2.41464 -0.0126752 0)
(-2.40317 -0.0145589 3.28824e-20)
(-2.39025 -0.0164186 0)
(-2.37587 -0.0182537 5.93091e-20)
(-2.36003 -0.0200631 -2.82718e-20)
(-2.34272 -0.021847 -2.66797e-20)
(-2.32394 -0.0236041 0)
(-2.30369 -0.025335 -6.93142e-20)
(-2.28195 -0.0270381 4.29846e-20)
(-2.25874 -0.0287142 1.95208e-20)
(-2.23404 -0.0303615 0)
(-2.20786 -0.0319807 1.5973e-20)
(-2.18019 -0.0335694 4.30392e-20)
(-2.15103 -0.0351284 0)
(-2.1204 -0.0366561 2.14704e-20)
(-2.08828 -0.038155 1.76687e-20)
(-2.05469 -0.0396244 1.38029e-20)
(-2.01964 -0.0410654 0)
(-1.98312 -0.0424732 0)
(-1.94514 -0.0438473 0)
(-1.90571 -0.0451827 7.85668e-22)
(-1.86482 -0.0464822 3.65937e-21)
(-1.82249 -0.0477427 0)
(-1.77874 -0.0489678 1.51764e-20)
(-1.73356 -0.0501495 1.96124e-20)
(-1.68699 -0.0512972 0)
(-1.63902 -0.0524105 2.96174e-20)
(-1.58969 -0.0534814 6.68145e-20)
(-1.53902 -0.0545005 -3.91206e-20)
(-1.48703 -0.0554736 -4.20873e-20)
(-1.43374 -0.0564036 0)
(-1.3792 -0.0572939 0)
(-1.32341 -0.0581409 0)
(-1.26642 -0.0589462 -6.45314e-20)
(-1.20827 -0.0597087 6.77674e-20)
(-1.14898 -0.0604285 1.48642e-19)
(-1.08859 -0.0611031 -8.1036e-20)
(-1.02715 -0.0617315 8.44725e-20)
(-0.964681 -0.0623122 9.26244e-20)
(-0.901241 -0.0628453 0)
(-0.836869 -0.0633293 0)
(-0.771614 -0.0637642 -1.08476e-19)
(-0.705527 -0.0641475 0)
(-0.638663 -0.0644787 0)
(-0.571082 -0.0647554 2.5849e-19)
(-0.502847 -0.0649767 0)
(-0.434025 -0.0651393 1.41639e-19)
(-0.364689 -0.0652417 -1.51502e-19)
(-0.294915 -0.0652818 0)
(-0.224783 -0.0652591 1.63383e-19)
(-0.154371 -0.06517 0)
(-0.083772 -0.0650212 0)
(-0.0130164 -0.0648243 -1.87968e-19)
(0.0578482 -0.0645752 3.80307e-19)
(0.128679 -0.0642761 -1.93952e-19)
(0.199303 -0.0638118 0)
(0.269451 -0.0629837 0)
(0.339012 -0.0618655 1.9881e-19)
(0.408004 -0.0606289 0)
(0.4764 -0.0593393 2.03822e-19)
(0.544131 -0.0580169 0)
(0.611133 -0.0566718 0)
(0.677347 -0.0553082 0)
(0.742722 -0.0539293 2.14828e-19)
(0.807205 -0.0525348 0)
(0.870744 -0.0511221 -2.18406e-19)
(0.933278 -0.0496818 0)
(0.994732 -0.0481984 0)
(1.055 -0.0466388 4.44124e-19)
(1.11391 -0.0449423 -4.46967e-19)
(1.17123 -0.0429858 0)
(1.22637 -0.0405406 0)
(1.27886 -0.0369985 0)
(1.32558 -0.0312711 1.38114e-18)
(1.36946 -0.0191918 0)
(1.3903 0.00791469 -9.61014e-19)
(-0.00128933 -0.0419804 -9.31551e-22)
(-0.00531417 -0.0228484 8.24364e-19)
(-0.0130828 -0.00123434 0)
(-0.0228711 0.0180126 -3.31699e-19)
(-0.0341101 0.0348963 0)
(-0.0465283 0.0494111 0)
(-0.0601926 0.0615547 4.66648e-23)
(-0.0752261 0.0714584 1.03381e-19)
(-0.091688 0.0794123 9.73545e-20)
(-0.109558 0.0857969 9.2263e-20)
(-0.128764 0.090998 0)
(-0.149213 0.0953509 0)
(-0.170815 0.0991159 -7.97519e-20)
(-0.193497 0.102481 -1.5268e-19)
(-0.217208 0.105577 1.46481e-19)
(-0.241912 0.108495 0)
(-0.267595 0.111302 1.35728e-19)
(-0.29425 0.114048 -6.56228e-20)
(-0.321881 0.116778 0)
(-0.350499 0.119526 1.23039e-19)
(-0.380123 0.122324 5.99178e-20)
(-0.410772 0.1252 -1.16634e-19)
(-0.442452 0.128181 -5.71564e-20)
(-0.475152 0.131292 0)
(-0.508855 0.134555 1.10487e-19)
(-0.54353 0.138002 1.0951e-19)
(-0.579024 0.141662 0)
(-0.614997 0.145488 1.08997e-19)
(-0.650978 0.149251 0)
(-0.686606 0.152366 1.08924e-19)
(-0.722392 0.153538 5.3625e-20)
(-0.758656 0.153094 0)
(-0.795211 0.15292 0)
(-0.831764 0.152414 0)
(-0.868641 0.151634 0)
(-0.904818 0.152721 0)
(-0.939268 0.154714 0)
(-0.97197 0.154498 8.38322e-20)
(-1.00419 0.153265 -1.24204e-19)
(-1.03693 0.150107 0)
(-1.07087 0.14615 0)
(-1.10542 0.143824 0)
(-1.13943 0.142179 1.86276e-22)
(-1.17282 0.140719 7.54947e-20)
(-1.20572 0.139239 1.47961e-19)
(-1.23825 0.137688 -1.4523e-19)
(-1.27052 0.136071 -7.12272e-20)
(-1.30257 0.134401 7.01389e-20)
(-1.33442 0.132693 -1.61475e-22)
(-1.36609 0.130956 6.76294e-20)
(-1.39758 0.129196 0)
(-1.42889 0.127415 6.54627e-20)
(-1.46002 0.125613 -1.63556e-22)
(-1.49095 0.123789 0)
(-1.52167 0.12194 0)
(-1.55218 0.120063 -6.15721e-20)
(-1.58244 0.118153 0)
(-1.61246 0.116207 0)
(-1.64221 0.114221 5.87957e-20)
(-1.67166 0.11219 1.16266e-19)
(-1.70081 0.110112 -5.74876e-20)
(-1.72962 0.107983 0)
(-1.75807 0.105799 5.59246e-20)
(-1.78614 0.103559 0)
(-1.8138 0.10126 5.41151e-20)
(-1.84103 0.0989001 5.36832e-20)
(-1.86779 0.0964788 -1.05623e-19)
(-1.89406 0.093995 -5.1955e-20)
(-1.91981 0.0914483 0)
(-1.94501 0.0888386 1.0138e-19)
(-1.96963 0.0861665 0)
(-1.99363 0.0834327 1.48033e-19)
(-2.017 0.0806382 9.72242e-20)
(-2.03969 0.0777846 9.5847e-20)
(-2.06167 0.0748735 -9.44704e-20)
(-2.08292 0.071907 1.39745e-19)
(-2.1034 0.0688876 0)
(-2.12308 0.0658177 0)
(-2.14193 0.0627003 -8.8928e-20)
(-2.15992 0.0595379 -1.3137e-19)
(-2.17701 0.056334 0)
(-2.19319 0.0530913 4.24124e-20)
(-2.20841 0.0498133 0)
(-2.22266 0.0465028 -1.2273e-19)
(-2.23589 0.0431629 -1.03632e-22)
(-2.24809 0.0397964 8.95296e-23)
(-2.25924 0.0364061 7.72973e-20)
(-2.26929 0.0329947 0)
(-2.27825 0.0295658 -7.42034e-20)
(-2.28607 0.0261228 -3.06622e-23)
(-2.29276 0.0226697 0)
(-2.2983 0.0192118 0)
(-2.30267 0.0157565 0)
(-2.3059 0.0123144 6.60164e-20)
(-2.30796 0.00890139 0)
(-2.30887 0.00553903 0)
(-2.3086 0.00224393 0)
(-2.30712 -0.000997229 0)
(-2.30436 -0.00421057 0)
(-2.30029 -0.00740079 5.5227e-20)
(-2.29488 -0.0105635 0)
(-2.28812 -0.0136973 5.12194e-20)
(-2.27999 -0.0168007 4.92351e-20)
(-2.27048 -0.0198713 -4.72224e-20)
(-2.25957 -0.0229066 0)
(-2.24727 -0.0259036 -4.31121e-20)
(-2.23356 -0.0288606 0)
(-2.21842 -0.0317755 -3.8889e-20)
(-2.20187 -0.0346474 3.67353e-20)
(-2.18388 -0.0374751 1.04216e-19)
(-2.16446 -0.0402581 0)
(-2.14359 -0.0429951 9.09353e-20)
(-2.12129 -0.0456857 2.84854e-20)
(-2.09753 -0.0483287 0)
(-2.07233 -0.0509236 4.71614e-20)
(-2.04568 -0.0534691 4.24959e-20)
(-2.01757 -0.055964 -5.62853e-20)
(-1.98801 -0.0584067 0)
(-1.95699 -0.0607973 -1.36797e-20)
(-1.92453 -0.0631361 -1.12242e-20)
(-1.89062 -0.0654234 -2.70922e-20)
(-1.85527 -0.0676576 0)
(-1.81848 -0.0698353 0)
(-1.78027 -0.0719527 0)
(-1.74062 -0.0740069 4.84342e-22)
(-1.69954 -0.0759972 0)
(-1.65706 -0.0779231 0)
(-1.61317 -0.0797849 -9.39221e-21)
(-1.56788 -0.0815803 -1.20933e-20)
(-1.52122 -0.0833092 0)
(-1.47319 -0.0849711 0)
(-1.42382 -0.0865586 -4.07358e-20)
(-1.37313 -0.0880638 0)
(-1.32114 -0.08949 5.20753e-20)
(-1.26788 -0.0908392 5.66075e-20)
(-1.21337 -0.0921129 0)
(-1.15765 -0.0933089 0)
(-1.10075 -0.0944274 -7.41874e-20)
(-1.0427 -0.0954672 -1.32767e-21)
(-0.983548 -0.0964274 -1.35289e-21)
(-0.923323 -0.0973052 0)
(-0.862067 -0.0980985 -1.98488e-19)
(-0.79982 -0.0988047 0)
(-0.736626 -0.0994228 0)
(-0.672534 -0.0999502 0)
(-0.607594 -0.100386 1.25511e-19)
(-0.54186 -0.100726 0)
(-0.47539 -0.100968 -2.74339e-19)
(-0.408246 -0.101109 -1.45448e-19)
(-0.340495 -0.101146 0)
(-0.272208 -0.101076 -1.59102e-19)
(-0.203459 -0.100895 0)
(-0.134325 -0.100599 0)
(-0.0648883 -0.10019 -5.36845e-19)
(0.00478834 -0.0996724 3.68685e-19)
(0.0746168 -0.0990514 0)
(0.144472 -0.0983219 3.85967e-19)
(0.214241 -0.0974628 -1.98703e-19)
(0.283814 -0.0964669 0)
(0.353082 -0.0953426 0)
(0.421922 -0.0940687 0)
(0.490251 -0.0926308 -6.40215e-19)
(0.558024 -0.0910614 0)
(0.625182 -0.0893996 -2.22147e-19)
(0.691655 -0.0876654 0)
(0.757382 -0.0858732 0)
(0.822308 -0.0840312 0)
(0.886384 -0.082146 0)
(0.949564 -0.0802191 0)
(1.0118 -0.0782479 0)
(1.07304 -0.0762197 -4.88181e-19)
(1.13322 -0.074111 0)
(1.19224 -0.0718722 -2.50877e-19)
(1.24995 -0.069413 7.58213e-19)
(1.30615 -0.0665594 0)
(1.36037 -0.0629812 0)
(1.41229 -0.0579541 -5.20567e-19)
(1.45996 -0.0500876 -5.28645e-19)
(1.50621 -0.0359051 5.35469e-19)
(1.5403 -0.00743681 5.52931e-19)
(-0.00683653 -0.0290962 -2.58953e-18)
(-0.0165097 -0.00155953 -9.84242e-19)
(-0.0281044 0.0229477 -3.55644e-19)
(-0.0414823 0.0439595 -1.274e-19)
(-0.0557643 0.0623849 0)
(-0.0706273 0.078541 1.84935e-19)
(-0.0861849 0.0925466 -8.45683e-20)
(-0.102615 0.104519 0)
(-0.12005 0.114654 -7.47947e-20)
(-0.13857 0.123217 0)
(-0.158204 0.130508 1.36323e-19)
(-0.178941 0.136817 0)
(-0.200752 0.142396 6.29573e-20)
(-0.2236 0.147448 1.21369e-19)
(-0.247448 0.152128 -1.17194e-19)
(-0.272263 0.15655 0)
(-0.298016 0.160798 -1.0979e-19)
(-0.324679 0.164933 0)
(-0.352225 0.169001 0)
(-0.380619 0.173036 -1.00573e-19)
(-0.409821 0.177059 0)
(-0.439777 0.181088 9.94347e-23)
(-0.47041 0.185127 0)
(-0.501617 0.189163 0)
(-0.533274 0.193149 -4.66354e-23)
(-0.565232 0.197011 -8.74619e-20)
(-0.597309 0.200635 -8.59497e-20)
(-0.629299 0.203847 -8.44598e-20)
(-0.66103 0.206383 0)
(-0.692467 0.207919 -1.63174e-19)
(-0.723792 0.208179 0)
(-0.755236 0.207365 -7.76415e-20)
(-0.786857 0.206199 0)
(-0.818575 0.204985 0)
(-0.850253 0.204054 7.10839e-20)
(-0.881478 0.203792 0)
(-0.911773 0.203722 -6.78216e-20)
(-0.941194 0.202789 4.76621e-23)
(-0.970229 0.20094 1.30223e-19)
(-0.999315 0.198153 -1.27716e-19)
(-1.02877 0.194932 0)
(-1.05852 0.192024 0)
(-1.08827 0.189437 -6.01314e-20)
(-1.11788 0.187046 0)
(-1.14729 0.184743 -5.80536e-20)
(-1.17654 0.18247 5.70274e-20)
(-1.20563 0.1802 5.60416e-20)
(-1.23459 0.177922 0)
(-1.26342 0.175631 -5.41845e-20)
(-1.29214 0.173325 -5.33088e-20)
(-1.32075 0.171 1.04795e-19)
(-1.34923 0.168653 -5.16515e-20)
(-1.37757 0.166281 -5.08654e-20)
(-1.40578 0.163878 0)
(-1.43384 0.161439 0)
(-1.46173 0.158958 4.86524e-20)
(-1.48943 0.15643 0)