/*--------------------------------*- C++ -*----------------------------------*\
  =========                 |
  \\      /  F ield         | OpenFOAM: The Open Source CFD Toolbox
   \\    /   O peration     | Website:  https://openfoam.org
    \\  /    A nd           | Version:  8
     \\/     M anipulation  |
\*---------------------------------------------------------------------------*/
FoamFile
{
    version     2.0;
    format      ascii;
    class       volScalarField;
    location    "145";
    object      epsilon;
}
// * * * * * * * * * * * * * * * * * * * * * * * * * * * * * * * * * * * * * //

dimensions      [0 2 -3 0 0 0 0];

internalField   nonuniform List<scalar> 
12225
(
285.521
270.701
257.91
243.819
232.44
223.114
216.764
212.711
212.743
213.964
217.25
220.885
228.205
232.659
241.744
245.887
257.687
264.267
52.4836
91.9123
106.942
114.797
124.798
136.858
152.639
169.996
191.119
211.041
235.344
255.622
281.373
299.548
325.458
339.706
366.263
375.119
20.3165
34.8741
44.6544
50.4967
55.3669
59.6469
64.6259
69.6946
76.2828
83.257
91.422
99.4368
108.185
117.164
125.602
135.76
142.807
154.935
15.3445
19.7047
24.1011
27.5821
30.4827
32.8878
35.1383
37.3158
39.4845
41.9468
44.3231
47.2444
49.679
53.1045
55.4468
59.3397
61.5847
65.9443
14.6495
15.8631
17.3628
19.0806
20.6316
22.0337
23.239
24.4401
25.4377
26.605
27.5195
28.7713
29.6346
31.0039
31.8309
33.2967
34.1312
35.7343
14.7065
14.8767
15.2001
15.8695
16.5635
17.2899
17.9208
18.5875
19.1172
19.7376
20.1928
20.8034
21.211
21.8292
22.2063
22.8381
23.199
23.8891
14.7421
14.6201
14.6247
14.737
14.9288
15.2202
15.4902
15.8101
16.0704
16.3839
16.6184
16.9219
17.1324
17.4299
17.6196
17.9179
18.0898
18.4187
14.7626
14.5867
14.4636
14.3814
14.3667
14.39
14.4379
14.5341
14.6184
14.737
14.831
14.9571
15.0484
15.1775
15.2627
15.3944
15.4736
15.6252
14.7666
14.5909
14.4345
14.2964
14.1849
14.1044
14.0396
14.0067
13.9814
13.9786
13.9809
13.9918
14.0043
14.03
14.0478
14.0805
14.1048
14.1483
14.7663
14.594
14.432
14.2821
14.1429
14.0219
13.9115
13.8193
13.7369
13.6698
13.6102
13.5633
13.5181
13.4872
13.4518
13.4345
13.4027
13.4018
14.7658
14.5945
14.4321
14.2803
14.1361
14.0032
13.8781
13.7644
13.6581
13.5628
13.4734
13.3951
13.3197
13.256
13.1915
13.1408
13.0839
13.0454
14.7657
14.5943
14.4321
14.2798
14.1353
13.9998
13.8715
13.7518
13.6384
13.5336
13.434
13.3429
13.2556
13.1769
13.1001
13.0327
12.9646
12.9074
14.7657
14.5941
14.432
14.2794
14.1349
13.9989
13.8698
13.7484
13.6331
13.5249
13.4219
13.3256
13.2337
13.1482
13.0662
12.9905
12.9171
12.8502
14.7657
14.5939
14.4318
14.279
14.1346
13.9983
13.8691
13.7472
13.6315
13.5222
13.4184
13.3203
13.2269
13.1389
13.0549
12.9758
12.9002
12.8291
14.7657
14.5938
14.4317
14.2787
14.1342
13.9977
13.8686
13.7464
13.6306
13.521
13.417
13.3185
13.2248
13.136
13.0516
12.9715
12.8952
12.8228
14.7657
14.5937
14.4316
14.2785
14.1339
13.9973
13.8681
13.7458
13.63
13.5202
13.4161
13.3174
13.2237
13.1346
13.0501
12.9697
12.8933
12.8206
14.7657
14.5937
14.4315
14.2783
14.1337
13.997
13.8677
13.7453
13.6294
13.5196
13.4154
13.3166
13.2228
13.1337
13.049
12.9685
12.892
12.8192
14.7657
14.5937
14.4314
14.2782
14.1335
13.9968
13.8674
13.745
13.629
13.5191
13.4149
13.316
13.2221
13.133
13.0482
12.9677
12.891
12.8182
14.7657
14.5937
14.4314
14.2782
14.1335
13.9967
13.8673
13.7449
13.6288
13.5189
13.4146
13.3157
13.2218
13.1326
13.0478
12.9672
12.8905
12.8176
14.7657
14.5937
14.4314
14.2783
14.1336
13.9968
13.8674
13.745
13.629
13.5191
13.4148
13.316
13.222
13.1328
13.048
12.9675
12.8908
12.8179
14.7657
14.5937
14.4315
14.2784
14.1338
13.997
13.8678
13.7453
13.6295
13.5196
13.4155
13.3167
13.223
13.1339
13.0495
12.969
12.8928
12.8201
14.7657
14.5937
14.4316
14.2785
14.1341
13.9975
13.8685
13.7464
13.6312
13.5221
13.4191
13.3214
13.2294
13.1419
13.0596
12.9811
12.9075
12.8369
14.7658
14.5937
14.4318
14.2788
14.1353
14.0002
13.8742
13.756
13.6464
13.5435
13.4485
13.3592
13.2771
13.1993
13.1283
13.0602
12.9989
12.9387
14.7655
14.5928
14.4328
14.2844
14.1515
14.0321
13.929
13.8375
13.7593
13.6894
13.6307
13.5769
13.5328
13.4905
13.4574
13.423
13.3988
13.3693
14.7592
14.5932
14.4603
14.3602
14.3029
14.2766
14.2805
14.2921
14.321
14.3531
14.3958
14.4344
14.4823
14.5216
14.5718
14.6087
14.6614
14.6936
14.7213
14.6911
14.754
14.9176
15.1828
15.461
15.7475
16.0119
16.2722
16.5036
16.7358
16.9383
17.1504
17.3305
17.5305
17.6931
17.8883
18.0354
14.7477
15.5124
16.5472
17.6841
18.7043
19.5674
20.337
20.9965
21.619
22.1655
22.7182
23.21
23.739
24.2032
24.7315
25.1814
25.7236
26.1645
15.9872
20.992
25.0238
27.7603
29.7845
31.3581
32.7764
34.057
35.3583
36.6148
37.9735
39.2948
40.7589
42.1426
43.7142
45.1696
46.8792
48.3537
29.9032
47.218
54.8692
58.6726
61.6129
64.4301
67.5781
70.9739
74.734
78.7083
82.978
87.3353
91.8946
96.4378
101.087
105.607
110.16
114.56
165.798
160.075
154.899
149.564
144.479
139.677
135.614
132.108
129.27
126.973
125.319
124.043
123.338
122.822
122.838
122.956
123.28
123.823
1.61387
1.26455
2.04844
2.77638
3.49389
4.19866
4.88593
5.54705
6.17052
6.74454
7.25515
7.68444
8.00523
8.15381
8.0312
7.43407
7.49069
7.74794
8.00925
8.24721
8.55
8.87048
38.5012
40.5419
43.0599
45.6462
41.0811
46.4767
49.9997
54.1904
58.4707
62.9554
67.6031
72.4332
77.4296
82.613
87.9643
93.5115
99.2343
105.165
111.28
117.613
124.13
130.862
137.787
144.942
152.299
159.901
167.717
175.792
184.092
192.663
201.47
210.561
219.899
229.535
239.426
249.625
260.089
270.872
281.925
293.307
304.965
316.962
329.239
341.86
354.763
368.014
381.548
395.432
409.6
424.115
438.91
454.048
469.458
485.2
501.202
517.521
534.085
550.943
568.018
585.348
602.854
620.562
638.385
656.333
674.32
692.343
710.339
728.315
746.32
764.472
782.658
800.755
818.756
836.6
854.242
871.616
888.662
905.306
921.475
937.088
952.065
966.321
979.77
992.324
1003.89
1014.38
1023.69
1031.72
1038.39
1043.46
1046.34
1047.3
1046.98
1045.21
1041.91
1036.51
1029.38
1020.47
1009.84
997.383
983.056
967.393
950.495
932.458
913.489
893.67
873.226
852.239
830.926
809.366
787.763
766.188
744.865
724.007
704.402
688.324
674.588
661.103
647.68
634.409
621.404
608.704
596.339
584.319
572.661
561.366
550.435
539.854
529.626
519.754
510.25
501.117
492.362
483.979
475.964
468.306
461.013
454.077
447.484
441.204
435.219
429.508
424.065
418.876
413.935
409.226
404.744
400.476
396.41
392.557
388.891
385.419
382.085
378.802
375.392
371.511
366.221
344.727
4.75636
2.78664
2.70574
2.97548
3.40208
3.92044
4.50158
5.12526
5.77533
6.44011
7.10921
7.77058
8.45053
9.16987
9.98919
10.8633
11.796
12.7696
13.9089
15.3629
17.315
20.091
24.2851
25.561
26.9172
28.3922
29.5331
31.7346
33.807
35.9689
38.1887
40.4793
42.8413
45.2786
47.7829
50.3598
53.0091
55.7362
58.5409
61.4285
64.3981
67.4541
70.5935
73.8215
77.1374
80.5469
84.0487
87.6485
91.3446
95.1429
99.0412
103.045
107.152
111.369
115.692
120.128
124.671
129.33
134.099
138.985
143.982
149.097
154.324
159.67
165.128
170.704
176.391
182.195
188.107
194.133
200.265
206.507
212.851
219.298
225.84
232.479
239.203
246.014
252.899
259.857
266.872
273.943
281.052
288.194
295.351
302.517
309.677
316.826
323.963
331.107
338.285
345.552
352.991
360.405
367.77
375.07
382.286
389.397
396.381
403.212
409.866
416.314
422.527
428.473
434.121
439.436
444.382
448.924
453.018
456.618
459.669
462.111
463.82
464.817
465.106
464.986
464.109
462.407
459.966
456.785
452.88
448.263
442.946
437.045
430.596
423.654
416.274
408.512
400.431
392.087
383.543
374.854
366.082
357.276
348.503
339.852
331.527
323.903
316.83
309.969
303.235
296.64
290.209
283.954
277.881
271.993
266.295
260.787
255.471
250.342
245.399
240.639
236.063
231.669
227.457
223.423
219.565
215.874
212.349
208.981
205.764
202.688
199.744
196.924
194.224
191.635
189.157
186.781
184.506
182.325
180.237
178.247
176.361
174.573
172.877
171.27
169.738
168.321
167.26
165.507
8.73559
4.49213
3.9318
3.97879
4.26582
4.69996
5.24132
5.8683
6.5673
7.33151
8.16053
9.06281
10.0269
11.0517
12.1354
13.236
14.2942
15.4049
16.6061
17.9623
19.437
21.0645
22.7443
24.17
25.6213
27.1175
28.6889
30.4105
32.1664
33.9709
35.8279
37.7408
39.7104
41.7372
43.8211
45.9684
48.1769
50.4478
52.7822
55.1818
57.6474
60.1807
62.7822
65.4539
68.1968
71.013
73.9034
76.87
79.9134
83.0355
86.2369
89.5193
92.883
96.3298
99.8596
103.474
107.173
110.957
114.826
118.781
122.821
126.947
131.158
135.454
139.833
144.296
148.84
153.466
158.169
162.951
167.807
172.737
177.737
182.806
187.938
193.133
198.384
203.689
209.043
214.442
219.88
225.353
230.855
236.383
241.93
247.494
253.073
258.666
264.277
269.913
275.582
281.291
287.028
292.746
298.43
304.07
309.651
315.16
320.58
325.894
331.084
336.128
341.003
345.686
350.148
354.363
358.3
361.926
365.206
368.102
370.576
372.591
374.065
375.036
375.425
375.464
374.881
373.686
371.901
369.535
366.597
363.109
359.095
354.606
349.676
344.35
338.668
332.68
326.429
319.965
313.335
306.584
299.755
292.894
286.043
279.268
272.664
266.358
260.334
254.494
248.796
243.237
237.826
232.57
227.475
222.544
217.779
213.18
208.749
204.481
200.373
196.424
192.63
188.987
185.492
182.141
178.929
175.851
172.9
170.072
167.36
164.758
162.258
159.854
157.542
155.317
153.174
151.11
149.122
147.207
145.363
143.594
141.902
140.29
138.76
137.324
135.994
134.842
133.982
133.417
12.877
6.34526
5.31292
5.18496
5.38741
5.77905
6.30459
6.93765
7.66246
8.46879
9.34918
10.2972
11.3031
12.3546
13.4345
14.5753
15.7202
16.8539
18.009
19.2014
20.4771
21.8301
23.2368
24.6621
26.1373
27.6696
29.2514
30.902
32.6
34.3462
36.1418
37.988
39.8856
41.8348
43.8347
45.8881
47.998
50.1665
52.3946
54.6838
57.0349
59.4494
61.9281
64.4726
67.084
69.7639
72.5134
75.3339
78.2261
81.1913
84.2304
87.3444
90.5341
93.8005
97.1438
100.565
104.064
107.642
111.298
115.032
118.845
122.736
126.703
130.748
134.868
139.062
143.33
147.669
152.079
156.556
161.099
165.706
170.373
175.099
179.88
184.712
189.594
194.52
199.489
204.496
209.537
214.611
219.712
224.84
229.99
235.162
240.354
245.566
250.798
256.053
261.331
266.626
271.923
277.204
282.457
287.674
292.843
297.953
302.99
307.939
312.783
317.505
322.083
326.494
330.715
334.717
338.472
341.948
345.113
347.929
350.363
352.379
353.941
355.029
355.555
355.723
355.315
354.343
352.814
350.734
348.114
344.974
341.339
337.244
332.724
327.819
322.57
317.023
311.22
305.21
299.035
292.74
286.367
279.957
273.555
267.212
260.987
254.943
249.092
243.405
237.865
232.468
227.22
222.126
217.191
212.418
207.809
203.363
199.081
194.958
190.992
187.18
183.516
179.997
176.618
173.373
170.257
167.264
164.388
161.624
158.964
156.404
153.937
151.558
149.261
147.042
144.896
142.822
140.815
138.874
136.998
135.189
133.45
131.785
130.199
128.712
127.345
126.169
125.262
124.737
16.8974
8.20803
6.71021
6.41539
6.53199
6.87717
7.37582
7.99286
8.70765
9.50593
10.3762
11.3082
12.2915
13.3153
14.3682
15.4411
16.5535
17.6937
18.8686
20.0908
21.3736
22.711
24.0942
25.5237
27.0045
28.5371
30.1202
31.7544
33.4362
35.1651
36.9427
38.7712
40.6522
42.5871
44.5778
46.6269
48.7339
50.8998
53.1254
55.4121
57.7608
60.173
62.6496
65.1922
67.8019
70.4804
73.2292
76.0497
78.9423
81.9082
84.9483
88.0638
91.2554
94.5241
97.8706
101.295
104.799
108.382
112.043
115.784
119.604
123.502
127.479
131.532
135.661
139.865
144.143
148.492
152.911
157.398
161.95
166.565
171.24
175.972
180.759
185.597
190.482
195.412
200.383
205.392
210.436
215.513
220.618
225.75
230.907
236.086
241.285
246.503
251.737
256.986
262.247
267.512
272.77
278.012
283.23
288.414
293.556
298.645
303.67
308.616
313.47
318.214
322.828
327.291
331.58
335.667
339.524
343.12
346.42
349.391
351.998
354.204
355.979
357.296
358.04
358.393
358.19
357.425
356.096
354.208
351.772
348.803
345.327
341.373
336.976
332.176
327.015
321.537
315.791
309.821
303.674
297.397
291.034
284.627
278.221
271.858
265.585
259.444
253.456
247.618
241.927
236.385
230.997
225.767
220.701
215.8
211.067
206.502
202.102
197.865
193.787
189.864
186.092
182.464
178.976
175.621
172.393
169.285
166.292
163.407
160.624
157.936
155.339
152.825
150.39
148.03
145.741
143.518
141.361
139.268
137.238
135.273
133.379
131.559
129.822
128.19
126.689
125.383
124.332
123.589
20.6425
9.98264
8.03639
7.5764
7.60327
7.89413
8.35425
8.93973
9.62552
10.395
11.2353
12.1361
13.0887
14.0857
15.1213
16.1929
17.3018
18.4487
19.6366
20.8701
22.1534
23.4873
24.8716
26.3068
27.7933
29.3313
30.9203
32.5601
34.2506
35.9923
37.7862
39.6338
41.5365
43.4956
45.5126
47.5888
49.7251
51.9226
54.1823
56.5056
58.8934
61.3474
63.8685
66.4585
69.1183
71.8497
74.6535
77.5312
80.4845
83.5147
86.6231
89.8109
93.0793
96.4294
99.8619
103.378
106.977
110.661
114.43
118.283
122.22
126.242
130.348
134.536
138.805
143.156
147.585
152.091
156.672
161.327
166.051
170.843
175.7
180.619
185.596
190.627
195.71
200.841
206.017
211.233
216.487
221.776
227.096
232.444
237.817
243.213
248.628
254.058
259.5
264.95
270.4
275.847
281.283
286.702
292.098
297.461
302.785
308.06
313.275
318.419
323.477
328.433
333.269
337.964
342.496
346.836
350.958
354.828
358.413
361.677
364.582
367.09
369.167
370.779
371.852
372.411
372.461
371.919
370.788
369.068
366.769
363.905
360.498
356.577
352.178
347.34
342.107
336.527
330.649
324.523
318.201
311.729
305.158
298.53
291.89
285.281
278.743
272.312
266.012
259.853
253.842
247.985
242.287
236.754
231.392
226.203
221.188
216.347
211.678
207.177
202.842
198.667
194.648
190.777
187.048
183.456
179.993
176.652
173.426
170.31
167.295
164.376
161.546
158.8
156.133
153.54
151.017
148.561
146.17
143.843
141.58
139.383
137.257
135.21
133.252
131.405
129.697
128.185
126.911
125.846
23.9904
11.5976
9.2334
8.60721
8.54765
8.77894
9.19442
9.74164
10.3918
11.1269
11.934
12.8033
13.7273
14.7003
15.7184
16.7796
17.8836
19.0309
20.2232
21.4625
22.7509
24.0896
25.4794
26.9211
28.4152
29.962
31.5618
33.2152
34.9225
36.6848
38.5031
40.3788
42.313
44.3071
46.3624
48.4802
50.6618
52.9083
55.2211
57.6016
60.051
62.5709
65.1628
67.8281
70.5685
73.3856
76.2808
79.2559
82.3126
85.4526
88.6773
91.9883
95.387
98.8748
102.453
106.122
109.883
113.737
117.684
121.725
125.859
130.086
134.406
138.818
143.321
147.914
152.594
157.36
162.211
167.142
172.152
177.237
182.394
187.62
192.911
198.262
203.671
209.132
214.641
220.196
225.79
231.421
237.085
242.777
248.493
254.23
259.983
265.747
271.519
277.293
283.063
288.826
294.573
300.301
306.003
311.671
317.299
322.879
328.4
333.851
339.22
344.492
349.65
354.674
359.54
364.224
368.695
372.922
376.87
380.499
383.77
386.643
389.076
391.031
392.461
393.304
393.62
393.32
392.395
390.843
388.667
385.883
382.51
378.575
374.114
369.169
363.785
358.015
351.91
345.526
338.917
332.135
325.231
318.255
311.251
304.262
297.33
290.49
283.767
277.18
270.74
264.458
258.342
252.399
246.634
241.05
235.648
230.428
225.387
220.524
215.833
211.309
206.946
202.738
198.678
194.759
190.973
187.314
183.772
180.342
177.016
173.788
170.65
167.598
164.625
161.728
158.901
156.143
153.451
150.825
148.266
145.775
143.36
141.027
138.789
136.669
134.695
132.916
131.356
129.936
26.8667
13.0052
10.2642
9.47832
9.33641
9.509
9.87913
10.3872
11.0014
11.7023
12.4772
13.3168
14.2143
15.1648
16.1651
17.2131
18.3083
19.4507
20.6411
21.8805
23.1703
24.5115
25.9051
27.3521
28.8532
30.4092
32.0208
33.6892
35.4151
37.1999
39.0448
40.9512
42.9204
44.954
47.0533
49.2199
51.455
53.7604
56.1373
58.5876
61.1126
63.7143
66.3942
69.1543
71.9962
74.9221
77.9338
81.0333
84.2225
87.5035
90.8782
94.3484
97.9159
101.582
105.349
109.218
113.19
117.266
121.447
125.732
130.123
134.62
139.221
143.926
148.734
153.644
158.654
163.762
168.965
174.26
179.645
185.115
190.667
196.297
202
207.772
213.607
219.502
225.45
231.447
237.487
243.566
249.678
255.818
261.98
268.16
274.353
280.552
286.753
292.951
299.139
305.311
311.463
317.589
323.682
329.736
335.745
341.701
347.595
353.417
359.155
364.796
370.324
375.72
380.962
386.025
390.881
395.496
399.835
403.857
407.52
410.78
413.59
415.908
417.688
418.866
419.449
419.402
418.688
417.301
415.244
412.527
409.169
405.195
400.643
395.555
389.981
383.974
377.591
370.89
363.93
356.767
349.456
342.051
334.6
327.149
319.74
312.409
305.188
298.097
291.153
284.371
277.761
271.33
265.085
259.03
253.165
247.491
242.004
236.703
231.582
226.636
221.858
217.242
212.78
208.464
204.287
200.24
196.316
192.506
188.804
185.202
181.694
178.273
174.934
171.672
168.483
165.365
162.316
159.335
156.424
153.586
150.828
148.158
145.59
143.146
140.853
138.753
136.857
135.059
29.2377
14.1824
11.1143
10.1832
9.96406
10.0812
10.4081
10.8789
11.4591
12.1283
12.8734
13.6853
14.5578
15.4864
16.4681
17.501
18.5843
19.7178
20.9019
22.137
23.4241
24.7644
26.1589
27.6087
29.1149
30.6786
32.3009
33.9832
35.7269
37.5338
39.4054
41.3432
43.349
45.4246
47.5714
49.7914
52.0863
54.4577
56.9076
59.4378
62.0503
64.747
67.5301
70.4018
73.3641
76.4195
79.5703
82.8188
86.1673
89.6185
93.1744
96.8375
100.61
104.494
108.491
112.603
116.831
121.178
125.643
130.228
134.932
139.757
144.701
149.764
154.945
160.242
165.654
171.177
176.809
182.548
188.388
194.327
200.358
206.479
212.682
218.964
225.317
231.735
238.213
244.744
251.321
257.939
264.589
271.266
277.963
284.674
291.391
298.108
304.82
311.519
318.2
324.855
331.479
338.065
344.608
351.101
357.537
363.91
370.21
376.43
382.558
388.583
394.49
400.262
405.879
411.317
416.547
421.538
426.254
430.653
434.692
438.322
441.495
444.16
446.27
447.768
448.625
448.815
448.301
447.066
445.114
442.451
439.095
435.071
430.414
425.168
419.384
413.117
406.427
399.377
392.028
384.442
376.679
368.795
360.845
352.877
344.937
337.064
329.291
321.644
314.145
306.809
299.65
292.677
285.898
279.315
272.931
266.746
260.757
254.962
249.354
243.929
238.68
233.598
228.677
223.909
219.284
214.794
210.432
206.188
202.055
198.026
194.093
190.251
186.493
182.815
179.212
175.684
172.227
168.843
165.533
162.3
159.153
156.1
153.157
150.343
147.685
145.22
142.945
140.746
31.0999
15.1245
11.7847
10.7268
10.4374
10.5039
10.7908
11.2273
11.7764
12.4165
13.1342
13.9207
14.7696
15.6768
16.6394
17.6557
18.725
19.8473
21.0232
22.2513
23.5328
24.8693
26.2622
27.7129
29.2227
30.7928
32.4243
34.1181
35.8784
37.7069
39.6053
41.5756
43.62
45.7405
47.9392
50.2182
52.5796
55.0255
57.5582
60.18
62.8931
65.7
68.6032
71.6054
74.709
77.917
81.2321
84.6571
88.1948
91.8482
95.62
99.5129
103.53
107.673
111.944
116.347
120.881
125.55
130.355
135.296
140.374
145.588
150.94
156.427
162.05
167.805
173.691
179.705
185.843
192.103
198.479
204.966
211.56
218.254
225.042
231.917
238.872
245.899
252.991
260.14
267.337
274.575
281.845
289.138
296.447
303.763
311.077
318.383
325.671
332.935
340.167
347.359
354.503
361.593
368.621
375.581
382.467
389.27
395.984
402.599
409.107
415.498
421.758
427.873
433.825
439.591
445.146
450.458
455.494
460.212
464.567
468.51
471.988
474.947
477.335
479.1
480.198
480.586
480.243
479.128
477.255
474.63
471.264
467.179
462.41
456.998
450.995
444.458
437.45
430.035
422.28
414.251
406.012
397.624
389.146
380.631
372.128
363.68
355.324
347.089
339
331.076
323.333
315.781
308.428
301.279
294.337
287.6
281.068
274.736
268.599
262.652
256.887
251.297
245.873
240.606
235.489
230.511
225.665
220.941
216.333
211.831
207.428
203.119
198.898
194.759
190.7
186.718
182.811
178.981
175.23
171.562
167.985
164.509
161.15
157.928
154.865
151.996
149.307
146.687
32.472
15.8389
12.2854
11.1216
10.7705
10.7919
11.0426
11.4478
11.9685
12.5822
13.275
14.0381
14.8657
15.7522
16.6954
17.694
18.7477
19.8568
21.0223
22.2415
23.5162
24.8481
26.2387
27.6896
29.2026
30.7793
32.421
34.1289
35.9093
37.7614
39.6888
41.695
43.7825
45.954
48.2121
50.5592
52.998
55.5311
58.161
60.8907
63.7229
66.6607
69.7068
72.8646
76.1372
79.5278
83.0398
86.6764
90.4411
94.3372
98.368
102.537
106.846
111.3
115.9
120.649
125.549
130.602
135.809
141.172
146.692
152.367
158.198
164.184
170.323
176.614
183.053
189.637
196.363
203.225
210.218
217.337
224.575
231.925
239.38
246.93
254.568
262.284
270.069
277.913
285.805
293.737
301.697
309.675
317.662
325.645
333.616
341.565
349.481
357.356
365.179
372.942
380.635
388.249
395.777
403.211
410.542
417.764
424.869
431.849
438.697
445.402
451.955
458.343
464.55
470.558
476.344
481.88
487.134
492.066
496.632
500.783
504.464
507.621
510.198
512.141
513.399
513.928
513.697
512.65
510.816
508.199
504.802
500.644
495.753
490.172
483.95
477.144
469.818
462.04
453.878
445.403
436.683
427.785
418.771
409.699
400.622
391.587
382.633
373.795
365.101
356.571
348.224
340.073
332.125
324.387
316.861
309.548
302.445
295.548
288.853
282.354
276.042
269.909
263.949
258.151
252.506
247.005
241.64
236.4
231.279
226.268
221.359
216.547
211.826
207.19
202.638
198.165
193.773
189.462
185.235
181.097
177.056
173.125
169.316
165.651
162.151
158.845
155.716
152.657
33.3784
16.3385
12.6312
11.3845
10.9808
10.9642
11.1822
11.5593
12.0547
12.644
13.3136
14.0551
14.8633
15.7324
16.6598
17.644
18.6842
19.7803
20.932
22.1401
23.4066
24.7334
26.1224
27.5758
29.0958
30.6845
32.3438
34.0754
35.8813
37.7646
39.7292
41.7794
43.9202
46.155
48.4866
50.9183
53.453
56.094
58.8446
61.708
64.6877
67.7873
71.0104
74.3608
77.8421
81.4582
85.2131
89.1105
93.1543
97.3485
101.697
106.202
110.869
115.7
120.698
125.867
131.207
136.721
142.411
148.278
154.321
160.542
166.938
173.509
180.253
187.167
194.247
201.49
208.89
216.441
224.139
231.974
239.941
248.029
256.23
264.533
272.93
281.408
289.956
298.562
307.214
315.901
324.608
333.324
342.036
350.732
359.399
368.025
376.598
385.107
393.539
401.882
410.126
418.26
426.274
434.158
441.903
449.501
456.944
464.224
471.335
478.268
485.016
491.568
497.912
504.034
509.914
515.53
520.852
525.846
530.471
534.678
538.415
541.627
544.259
546.256
547.565
548.134
547.927
546.868
545.012
542.355
538.894
534.642
529.621
523.868
517.431
510.365
502.734
494.606
486.053
477.148
467.962
458.566
449.028
439.408
429.765
420.149
410.603
401.166
391.867
382.732
373.78
365.024
356.476
348.141
340.023
332.122
324.435
316.959
309.689
302.619
295.741
289.046
282.527
276.174
269.978
263.929
258.019
252.237
246.577
241.029
235.586
230.242
224.993
219.832
214.757
209.767
204.86
200.04
195.309
190.674
186.143
181.727
177.443
173.309
169.345
165.578
161.987
158.479
33.8936
16.6514
12.8417
11.5335
11.0865
11.0393
11.2293
11.5813
12.0547
12.6248
13.2765
14.0002
14.7889
15.6381
16.5468
17.5142
18.5397
19.6238
20.7675
21.9717
23.238
24.5681
25.9644
27.4295
28.9664
30.579
32.2676
34.0349
35.8837
37.8169
39.8365
41.9522
44.1686
46.4899
48.9209
51.4662
54.1291
56.9135
59.8232
62.8624
66.0352
69.3459
72.7989
76.3986
80.1492
84.0554
88.1215
92.3518
96.7508
101.323
106.071
111
116.114
121.415
126.907
132.592
138.472
144.55
150.825
157.299
163.972
170.842
177.909
185.169
192.621
200.26
208.081
216.08
224.25
232.584
241.075
249.713
258.49
267.394
276.415
285.542
294.761
304.061
313.426
322.844
332.3
341.779
351.267
360.748
370.207
379.63
389.002
398.307
407.532
416.663
425.684
434.583
443.344
451.954
460.401
468.674
476.761
484.653
492.341
499.818
507.076
514.11
520.912
527.477
533.796
539.858
545.65
551.155
556.351
561.208
565.691
569.757
573.356
576.437
578.946
580.83
582.042
582.51
582.201
581.018
579.058
576.297
572.727
568.35
563.186
557.262
550.62
543.313
535.403
526.955
518.043
508.741
499.123
489.263
479.232
469.096
458.915
448.745
438.632
428.617
418.735
409.012
399.469
390.123
380.985
372.061
363.356
354.87
346.601
338.546
330.698
323.052
315.601
308.336
301.248
294.329
287.568
280.956
274.485
268.145
261.927
255.824
249.829
243.935
238.137
232.431
226.814
221.285
215.844
210.495
205.24
200.087
195.045
190.127
185.347
180.724
176.277
172.032
167.966
164.001
33.9121
16.7576
12.922
11.5817
11.1057
11.0367
11.2076
11.5414
11.9954
12.5443
13.1758
13.8813
14.6553
15.4942
16.3954
17.3579
18.3813
19.4664
20.6143
21.8273
23.108
24.4571
25.8771
27.3714
28.9436
30.5968
32.3296
34.1491
36.0607
38.0701
40.1825
42.4039
44.7396
47.195
49.7755
52.4869
55.3344
58.3226
61.4565
64.7414
68.1822
71.7841
75.5522
79.4914
83.6068
87.9033
92.3859
97.0591
101.928
106.995
112.267
117.746
123.435
129.338
135.457
141.793
148.35
155.126
162.123
169.34
176.775
184.426
192.292
200.367
208.648
217.129
225.803
234.664
243.705
252.915
262.285
271.806
281.464
291.249
301.147
311.145
321.228
331.38
341.588
351.833
362.1
372.371
382.63
392.859
403.041
413.158
423.194
433.13
442.951
452.639
462.178
471.55
480.739
489.728
498.502
507.047
515.351
523.402
531.189
538.705
545.943
552.899
559.567
565.944
572.027
577.809
583.284
588.442
593.27
597.747
601.845
605.526
608.749
611.468
613.633
615.196
616.13
616.319
615.714
614.29
612.128
609.186
605.449
600.914
595.591
589.5
582.673
575.157
567.006
558.286
549.066
539.421
529.427
519.159
508.69
498.09
487.423
476.746
466.112
455.564
445.137
434.863
424.764
414.858
405.157
395.67
386.4
377.349
368.514
359.891
351.477
343.264
335.246
327.414
319.759
312.272
304.945
297.767
290.73
283.825
277.043
270.376
263.819
257.364
251.007
244.744
238.573
232.494
226.507
220.616
214.825
209.142
203.577
198.143
192.855
187.732
182.791
178.059
173.509
169.087
33.7741
16.7471
12.9134
11.5608
11.0685
10.9821
11.1333
11.4489
11.8882
12.4278
13.0531
13.7553
14.5289
15.3708
16.28
17.2543
18.2936
19.3991
20.5725
21.8159
23.131
24.5178
25.9824
27.5294
29.1637
30.8902
32.7137
34.6396
36.6737
38.8223
41.092
43.4889
46.0194
48.6901
51.5074
54.4782
57.6087
60.9055
64.3754
68.0249
71.8602
75.887
80.1109
84.5374
89.172
94.0196
99.0852
104.373
109.888
115.632
121.611
127.825
134.278
140.972
147.906
155.083
162.5
170.158
178.055
186.188
194.553
203.146
211.963
220.997
230.241
239.688
249.329
259.156
269.157
279.321
289.638
300.094
310.676
321.369
332.16
343.031
353.968
364.952
375.967
386.994
398.015
409.011
419.962
430.85
441.655
452.358
462.939
473.38
483.661
493.762
503.666
513.351
522.798
531.988
540.904
549.529
557.848
565.847
573.516
580.845
587.829
594.465
600.75
606.682
612.264
617.496
622.377
626.904
631.077
634.887
638.317
641.333
643.904
645.995
647.556
648.545
648.947
648.65
647.553
645.777
643.302
640.097
636.137
631.412
625.921
619.676
612.696
605.018
596.687
587.763
578.311
568.402
558.112
547.516
536.689
525.704
514.626
503.517
492.43
481.412
470.503
459.735
449.133
438.717
428.501
418.492
408.696
399.114
389.744
380.584
371.627
362.87
354.303
345.92
337.712
329.67
321.785
314.049
306.451
298.985
291.641
284.412
277.292
270.276
263.358
256.537
249.809
243.176
236.639
230.202
223.871
217.654
211.561
205.607
199.806
194.178
188.74
183.518
178.486
173.612
33.3844
16.6382
12.8353
11.478
10.9738
10.8786
11.0272
11.3435
11.7868
12.3353
12.9736
13.693
14.4887
15.3575
16.2972
17.3053
18.3847
19.5377
20.7673
22.0769
23.4709
24.9532
26.5286
28.2029
29.982
31.8726
33.8815
36.0156
38.2822
40.6889
43.2434
45.9536
48.827
51.8714
55.0941
58.5021
62.1039
65.9089
69.9266
74.1667
78.6344
83.3354
88.2751
93.4586
98.8906
104.575
110.516
116.716
123.177
129.902
136.89
144.143
151.66
159.439
167.479
175.776
184.327
193.127
202.172
211.455
220.969
230.707
240.66
250.82
261.175
271.717
282.433
293.311
304.339
315.503
326.79
338.185
349.673
361.239
372.865
384.535
396.232
407.937
419.632
431.297
442.912
454.458
465.914
477.26
488.474
499.537
510.428
521.126
531.611
541.861
551.855
561.571
570.986
580.08
588.833
597.226
605.243
612.869
620.09
626.899
633.291
639.266
644.822
649.962
654.694
659.026
662.96
666.503
669.667
672.463
674.888
676.902
678.497
679.65
680.305
680.416
680.038
678.907
677.214
674.929
672.023
668.466
664.229
659.288
653.629
647.252
640.164
632.387
623.955
614.915
605.325
595.251
584.765
573.942
562.856
551.582
540.186
528.732
517.277
505.87
494.552
483.359
472.319
461.451
450.773
440.292
430.015
419.943
410.076
400.41
390.941
381.664
372.571
363.656
354.911
346.328
337.897
329.611
321.461
313.438
305.537
297.749
290.069
282.492
275.014
267.633
260.348
253.16
246.072
239.088
232.215
225.462
218.841
212.366
206.053
199.92
193.986
188.277
182.767
177.452
32.6137
16.3801
12.6655
11.3419
10.8607
10.7876
10.9622
11.3075
11.7829
12.3647
13.0404
13.8046
14.6542
15.5877
16.6055
17.7088
18.8995
20.1813
21.5583
23.0361
24.6205
26.3183
28.1362
30.0821
32.1642
34.3912
36.7719
39.3157
42.032
44.9306
48.0211
51.3133
54.8165
58.5401
62.4931
66.6847
71.124
75.8212
80.7869
86.0284
91.5518
97.3615
103.46
109.85
116.533
123.508
130.774
138.331
146.177
154.307
162.717
171.403
180.359
189.577
199.051
208.771
218.73
228.917
239.323
249.937
260.748
271.745
282.915
294.246
305.726
317.341
329.078
340.922
352.861
364.878
376.961
389.092
401.259
413.443
425.63
437.802
449.942
462.033
474.057
485.993
497.824
509.528
521.086
532.476
543.679
554.674
565.441
575.959
586.204
596.157
605.794
615.091
624.025
632.573
640.711
648.423
655.691
662.499
668.832
674.685
680.057
684.95
689.363
693.303
696.79
699.841
702.45
704.632
706.424
707.862
708.964
709.644
709.957
709.905
709.368
708.252
706.755
704.796
702.367
699.458
696.049
692.105
687.589
682.459
676.688
670.254
663.152
655.389
646.986
637.97
628.389
618.304
607.779
596.885
585.697
574.285
562.72
551.066
539.38
527.714
516.113
504.614
493.246
482.033
470.992
460.132
449.461
438.98
428.69
418.588
408.672
398.935
389.371
379.976
370.741
361.658
352.722
343.922
335.253
326.706
318.276
309.955
301.74
293.626
285.609
277.69
269.867
262.142
254.52
247.006
239.607
232.334
225.199
218.218
211.406
204.784
198.369
192.188
186.217
180.482
31.7591
16.0369
12.4621
11.2131
10.7908
10.773
10.9991
11.3979
11.9367
12.5975
13.3696
14.2477
15.2304
16.3184
17.5145
18.8223
20.2469
21.7942
23.4717
25.2874
27.2505
29.3708
31.6588
34.1256
36.7827
39.6419
42.7149
46.014
49.5513
53.3389
57.3879
61.7097
66.3145
71.2122
76.4112
81.9198
87.7451
93.8938
100.37
107.185
114.342
121.837
129.662
137.811
146.277
155.051
164.125
173.488
183.13
193.04
203.205
213.614
224.252
235.107
246.164
257.408
268.828
280.407
292.133
303.991
315.969
328.05
340.224
352.476
364.792
377.16
389.564
401.994
414.434
426.874
439.298
451.695
464.05
476.351
488.581
500.73
512.78
524.716
536.523
548.183
559.679
570.991
582.101
592.989
603.636
614.024
624.133
633.941
643.426
652.566
661.338
669.719
677.682
685.201
692.254
698.824
704.895
710.449
715.472
719.962
723.923
727.363
730.272
732.664
734.579
736.055
737.044
737.577
737.733
737.585
737.197
736.301
735.036
733.492
731.599
729.356
726.802
723.933
720.739
717.213
713.341