/*--------------------------------*- C++ -*----------------------------------*\
  =========                 |
  \\      /  F ield         | OpenFOAM: The Open Source CFD Toolbox
   \\    /   O peration     | Website:  https://openfoam.org
    \\  /    A nd           | Version:  8
     \\/     M anipulation  |
\*---------------------------------------------------------------------------*/
FoamFile
{
    version     2.0;
    format      ascii;
    class       volScalarField;
    location    "145";
    object      k;
}
// * * * * * * * * * * * * * * * * * * * * * * * * * * * * * * * * * * * * * //

dimensions      [0 2 -2 0 0 0 0];

internalField   nonuniform List<scalar> 
12225
(
0.362835
0.343994
0.327739
0.309831
0.295372
0.283519
0.275453
0.2703
0.27034
0.27191
0.276035
0.280798
0.28987
0.295938
0.306747
0.313789
0.325892
0.330759
0.440285
0.46873
0.461615
0.448367
0.450351
0.458323
0.474398
0.49881
0.524241
0.552464
0.580691
0.606579
0.633999
0.654397
0.680347
0.693792
0.719966
0.726475
0.39042
0.417849
0.420243
0.416822
0.41164
0.4078
0.408005
0.410041
0.414472
0.421543
0.430667
0.439901
0.451176
0.461444
0.472946
0.484125
0.493895
0.507488
0.377049
0.387162
0.391468
0.391342
0.39026
0.387882
0.385657
0.384083
0.382869
0.382897
0.383367
0.384376
0.38628
0.388552
0.390964
0.394402
0.39678
0.401488
0.374436
0.376091
0.378429
0.378664
0.378275
0.3772
0.375487
0.373738
0.372006
0.370454
0.36925
0.368116
0.36737
0.366827
0.366453
0.366392
0.366433
0.36686
0.373781
0.372703
0.372659
0.372365
0.371773
0.370817
0.369553
0.368082
0.366569
0.364976
0.363522
0.362065
0.360747
0.359532
0.358394
0.357439
0.356454
0.355828
0.373775
0.371739
0.370388
0.369283
0.368235
0.367114
0.365914
0.364586
0.363236
0.361807
0.360417
0.359022
0.357671
0.356379
0.355114
0.353964
0.352791
0.35181
0.373819
0.371559
0.369635
0.367976
0.3665
0.365107
0.363774
0.362428
0.361105
0.359765
0.358447
0.35714
0.355858
0.354617
0.353394
0.352243
0.351091
0.350047
0.373832
0.371553
0.369449
0.367525
0.365776
0.364153
0.362644
0.361198
0.359815
0.358471
0.357166
0.355899
0.354662
0.353469
0.3523
0.351188
0.350089
0.349066
0.373831
0.37156
0.369418
0.367405
0.365529
0.363772
0.362132
0.360584
0.35912
0.357726
0.356392
0.355114
0.353884
0.352705
0.351563
0.350475
0.349413
0.348414
0.373829
0.37156
0.369413
0.367378
0.365458
0.363645
0.361937
0.360323
0.358797
0.357351
0.355977
0.354669
0.353421
0.352231
0.351089
0.350004
0.348954
0.347965
0.373828
0.371558
0.369409
0.367371
0.365439
0.363608
0.361875
0.360233
0.358676
0.3572
0.355798
0.354466
0.353197
0.351991
0.350839
0.349744
0.348692
0.347698
0.373827
0.371556
0.369405
0.367365
0.36543
0.363593
0.361851
0.360196
0.358625
0.357133
0.355714
0.354366
0.353082
0.351862
0.350698
0.349592
0.348533
0.34753
0.373826
0.371555
0.369401
0.36736
0.365422
0.363583
0.361837
0.360177
0.3586
0.3571
0.355673
0.354316
0.353023
0.351793
0.35062
0.349505
0.348439
0.347427
0.373826
0.371553
0.369398
0.367355
0.365416
0.363575
0.361826
0.360164
0.358584
0.357081
0.35565
0.354289
0.352992
0.351757
0.35058
0.349459
0.348389
0.34737
0.373826
0.371552
0.369396
0.367351
0.36541
0.363567
0.361817
0.360153
0.358572
0.357066
0.355634
0.35427
0.352972
0.351734
0.350555
0.34943
0.348358
0.347335
0.373825
0.371551
0.369394
0.367348
0.365406
0.363562
0.36181
0.360145
0.358562
0.357055
0.355622
0.354256
0.352956
0.351717
0.350536
0.34941
0.348336
0.347311
0.373825
0.371551
0.369393
0.367346
0.365403
0.363558
0.361806
0.36014
0.358555
0.357048
0.355613
0.354246
0.352945
0.351705
0.350522
0.349395
0.348319
0.347294
0.373825
0.37155
0.369393
0.367346
0.365402
0.363557
0.361804
0.360137
0.358552
0.357044
0.355609
0.354242
0.352939
0.351698
0.350515
0.349387
0.34831
0.347284
0.373825
0.371551
0.369393
0.367347
0.365404
0.363559
0.361806
0.36014
0.358555
0.357048
0.355612
0.354246
0.352943
0.351702
0.350519
0.349391
0.348314
0.347288
0.373826
0.371551
0.369395
0.367349
0.365407
0.363563
0.361812
0.360146
0.358563
0.357056
0.355622
0.354257
0.352957
0.351717
0.350536
0.349409
0.348335
0.34731
0.373826
0.371552
0.369397
0.367352
0.365412
0.363571
0.361823
0.360162
0.358584
0.357084
0.355658
0.3543
0.353008
0.351777
0.350604
0.349485
0.348419
0.3474
0.373826
0.371554
0.369399
0.36736
0.365429
0.363603
0.361875
0.360241
0.358691
0.357221
0.355824
0.354495
0.353228
0.35202
0.350867
0.349765
0.348712
0.347703
0.373828
0.371551
0.369412
0.367417
0.365556
0.36382
0.36219
0.360652
0.35919
0.357794
0.356457
0.355172
0.353937
0.352747
0.351602
0.350497
0.349438
0.348412
0.373823
0.371554
0.369604
0.367893
0.366339
0.364892
0.363495
0.362123
0.360762
0.359414
0.358082
0.356771
0.355489
0.354239
0.35303
0.351856
0.350735
0.349646
0.373781
0.37199
0.371113
0.370265
0.36936
0.368312
0.367048
0.36563
0.364121
0.362576
0.361031
0.359523
0.358074
0.356683
0.355382
0.354142
0.35301
0.351924
0.374297
0.375564
0.377778
0.377858
0.377291
0.375886
0.373835
0.371641
0.369505
0.367482
0.365663
0.364084
0.362709
0.361534
0.360608
0.359816
0.359287
0.358799
0.378732
0.394394
0.398294
0.396566
0.392559
0.387608
0.383641
0.380455
0.378264
0.37685
0.376493
0.376745
0.377394
0.37869
0.380434
0.382413
0.384816
0.387127
0.408344
0.427538
0.422423
0.411049
0.402225
0.397919
0.398551
0.401109
0.405974
0.413024
0.420978
0.429806
0.438809
0.448161
0.457272
0.466516
0.475282
0.484141
0.366033
0.353411
0.341988
0.330209
0.318982
0.308382
0.299408
0.291673
0.285402
0.280331
0.276679
0.273863
0.272306
0.271177
0.271169
0.271511
0.272144
0.273374
0.00549967
0.019779
0.0320191
0.0433993
0.0546547
0.0657668
0.0766481
0.0871444
0.0969942
0.105911
0.113527
0.119469
0.123276
0.124492
0.123198
0.119619
0.121852
0.126712
0.130771
0.133684
0.134435
0.130201
0.116084
0.131498
0.143019
0.148743
0.147675
0.159262
0.166819
0.176026
0.185008
0.194288
0.20365
0.213171
0.222793
0.232561
0.242428
0.252448
0.262573
0.27286
0.28326
0.293826
0.304489
0.315309
0.326236
0.337333
0.348546
0.359938
0.371455
0.383161
0.394997
0.407029
0.419196
0.431563
0.444071
0.456785
0.469639
0.482701
0.495903
0.509315
0.522864
0.536621
0.550513
0.564613
0.578842
0.593274
0.607828
0.62258
0.637446
0.652502
0.667665
0.683007
0.698444
0.71405
0.729736
0.745574
0.761477
0.77751
0.793592
0.809783
0.825994
0.842279
0.858549
0.874849
0.891081
0.90728
0.923352
0.939314
0.955096
0.970707
0.986156
1.00149
1.01685
1.03199
1.04695
1.06165
1.0761
1.09023
1.10401
1.11739
1.13032
1.14275
1.15463
1.16589
1.17647
1.18632
1.19537
1.20357
1.21085
1.21713
1.22234
1.22646
1.22887
1.23023
1.22998
1.22852
1.22594
1.22204
1.21654
1.20963
1.20131
1.19161
1.18033
1.16771
1.15396
1.13913
1.12336
1.10669
1.08931
1.07125
1.05271
1.03372
1.01447
0.99502
0.975556
0.956258
0.937696
0.921868
0.908498
0.895408
0.882381
0.86943
0.856603
0.843922
0.831406
0.81907
0.806948
0.795069
0.783463
0.77215
0.761147
0.750463
0.740105
0.730078
0.720395
0.71106
0.70208
0.693438
0.68513
0.677133
0.669444
0.662041
0.654927
0.648087
0.641524
0.635219
0.629172
0.623362
0.617787
0.612443
0.607322
0.602419
0.597723
0.593182
0.588748
0.584333
0.579798
0.574759
0.568351
0.544414
0.0163543
0.0430777
0.0602264
0.0737046
0.0858624
0.0975736
0.109076
0.120349
0.13123
0.141504
0.150918
0.159257
0.166398
0.172547
0.178795
0.187706
0.197673
0.206924
0.215754
0.224437
0.232952
0.241501
0.251347
0.265915
0.280064
0.291486
0.310821
0.328434
0.343655
0.359023
0.374751
0.390831
0.40719
0.423815
0.440683
0.457798
0.47515
0.492756
0.510614
0.528751
0.547174
0.565924
0.584925
0.604183
0.623697
0.643487
0.66355
0.683907
0.704554
0.725512
0.746775
0.768362
0.790266
0.812507
0.835077
0.857993
0.881245
0.90485
0.928796
0.953099
0.977745
1.00275
1.0281
1.05381
1.07985
1.10626
1.133
1.1601
1.18752
1.2153
1.24339
1.27183
1.30059
1.32968
1.35907
1.38878
1.41879
1.4491
1.47969
1.51058
1.54173
1.57315
1.6048
1.63669
1.66877
1.70103
1.73343
1.76593
1.79848
1.83104
1.86351
1.8958
1.9278
1.95975
1.99164
2.02343
2.05506
2.08647
2.11759
2.14833
2.17861
2.20833
2.23736
2.2656
2.29292
2.31917
2.34421
2.3679
2.39009
2.41064
2.42931
2.44583
2.46002
2.47184
2.48027
2.48665
2.48933
2.49056
2.48822
2.48281
2.47437
2.46296
2.44868
2.43167
2.41209
2.3901
2.36587
2.33962
2.31154
2.28184
2.25076
2.21851
2.18532
2.15139
2.11694
2.08222
2.04753
2.01329
1.97953
1.94602
1.91284
1.88008
1.84787
1.8163
1.78543
1.75533
1.72604
1.69759
1.67
1.6433
1.6175
1.59258
1.56855
1.54539
1.52309
1.50161
1.48095
1.46107
1.44194
1.42353
1.4058
1.38872
1.37225
1.35637
1.34104
1.32622
1.3119
1.29803
1.28459
1.27162
1.25906
1.24689
1.2351
1.22365
1.21251
1.20166
1.19092
1.18036
1.16728
1.13366
0.0300213
0.066585
0.0875626
0.103625
0.117849
0.131307
0.144445
0.157428
0.170266
0.182908
0.195286
0.207391
0.219326
0.231374
0.243989
0.257519
0.271413
0.285335
0.299383
0.313749
0.328592
0.344102
0.360575
0.378231
0.396399
0.415097
0.435462
0.455755
0.475839
0.496074
0.516602
0.53746
0.558637
0.580126
0.601914
0.623999
0.646376
0.669051
0.692026
0.715309
0.738903
0.762815
0.78704
0.811588
0.836464
0.861682
0.887248
0.913176
0.939471
0.966146
0.993204
1.02065
1.0485
1.07675
1.10541
1.13448
1.16396
1.19386
1.22417
1.2549
1.28603
1.31758
1.34953
1.38188
1.41463
1.44777
1.48129
1.51519
1.54946
1.58408
1.61906
1.65438
1.69003
1.726
1.76228
1.79886
1.83572
1.87286
1.91026
1.94792
1.98581
2.02392
2.06224
2.10075
2.13943
2.17826
2.21722
2.2563
2.29547
2.33471
2.37402
2.41334
2.45265
2.49193
2.53115
2.57026
2.6092
2.64789
2.68625
2.72419
2.76161
2.79837
2.83436
2.86941
2.90337
2.93606
2.96729
2.99686
3.02456
3.05017
3.07345
3.09413
3.11203
3.12695
3.13856
3.14689
3.15095
3.15271
3.15048
3.14446
3.13469
3.12126
3.10429
3.08393
3.06034
3.03375
3.00436
2.97243
2.9382
2.90196
2.86397
2.82452
2.78386
2.74226
2.69998
2.65731
2.61455
2.57205
2.52993
2.48816
2.44682
2.406
2.36583
2.32642
2.28786
2.25022
2.21356
2.17791
2.14331
2.10977
2.07729
2.04589
2.01553
1.98622
1.95792
1.93061
1.90425
1.87882
1.85428
1.83058
1.80768
1.78556
1.76415
1.74343
1.72335
1.70388
1.68499
1.66663
1.64879
1.63146
1.61462
1.59826
1.58236
1.56692
1.55196
1.5375
1.52346
1.50997
1.49566
1.46795
0.0442958
0.0887892
0.113703
0.132401
0.148654
0.163834
0.178574
0.193183
0.2078
0.222476
0.237228
0.252081
0.267104
0.282423
0.298187
0.314474
0.331197
0.3483
0.365825
0.383861
0.402488
0.421787
0.441823
0.462605
0.484033
0.506088
0.528813
0.551909
0.575268
0.598918
0.622891
0.647202
0.671852
0.69684
0.722161
0.747815
0.773799
0.800118
0.826775
0.853776
0.881125
0.90883
0.936895
0.965332
0.994147
1.02335
1.05296
1.08298
1.11342
1.14428
1.17559
1.20734
1.23954
1.2722
1.30532
1.3389
1.37294
1.40745
1.44243
1.47787
1.51376
1.55011
1.5869
1.62414
1.66181
1.6999
1.7384
1.7773
1.8166
1.85627
1.8963
1.93668
1.97739
2.01842
2.05976
2.10138
2.14327
2.18542
2.22781
2.27042
2.31324
2.35625
2.39945
2.44281
2.48632
2.52996
2.57372
2.61759
2.66154
2.70557
2.74966
2.79377
2.83787
2.88193
2.9259
2.96973
3.01337
3.05673
3.09974
3.14231
3.18431
3.22563
3.26613
3.30564
3.344
3.381
3.41645
3.45011
3.48174
3.5111
3.53791
3.56192
3.58289
3.60058
3.61479
3.62527
3.63111
3.63391
3.6325
3.62685
3.61697
3.60295
3.58489
3.56295
3.53731
3.5082
3.47585
3.44055
3.40258
3.36226
3.31988
3.27576
3.23021
3.18353
3.13603
3.08803
3.03982
2.99172
2.9439
2.89643
2.84943
2.80299
2.75726
2.71235
2.66836
2.62536
2.58343
2.54259
2.5029
2.46435
2.42697
2.39075
2.35567
2.32173
2.28888
2.25711
2.22638
2.19664
2.16786
2.14
2.11301
2.08684
2.06145
2.03679
2.01283
1.98953
1.96684
1.94475
1.92322
1.90225
1.88182
1.86194
1.8426
1.82384
1.8057
1.78824
1.7715
1.75565
1.73968
1.71547
0.0581758
0.109579
0.138243
0.159543
0.177803
0.194645
0.21086
0.226874
0.242917
0.259117
0.275542
0.292243
0.309267
0.32668
0.34455
0.362929
0.381829
0.401264
0.421261
0.441861
0.463099
0.485003
0.507581
0.530819
0.554679
0.579124
0.604112
0.629565
0.655427
0.681677
0.708307
0.735315
0.762695
0.790447
0.818568
0.847058
0.875918
0.905154
0.934767
0.964765
0.995153
1.02594
1.05713
1.08874
1.12077
1.15324
1.18616
1.21954
1.25338
1.28771
1.32252
1.35782
1.39363
1.42994
1.46676
1.5041
1.54195
1.58032
1.6192
1.65859
1.69848
1.73888
1.77976
1.82113
1.86296
1.90525
1.94799
1.99115
2.03473
2.0787
2.12305
2.16776
2.21281
2.25818
2.30384
2.34979
2.39599
2.44243
2.48908
2.53594
2.58298
2.63018
2.67753
2.72501
2.7726
2.8203
2.86808
2.91593
2.96384
3.01178
3.05974
3.10769
3.15559
3.20341
3.25112
3.29866
3.34598
3.39301
3.43968
3.4859
3.53155
3.57653
3.62068
3.66386
3.70589
3.74656
3.78566
3.82294
3.85816
3.89104
3.9213
3.94866
3.97283
3.99356
4.01062
4.02374
4.03226
4.03666
4.03696
4.03262
4.02367
4.01017
3.99222
3.96994
3.94353
3.91321
3.87926
3.84195
3.8016
3.75855
3.71313
3.66569
3.61657
3.56612
3.51467
3.46255
3.41008
3.35754
3.30516
3.25308
3.20143
3.15036
3.1
3.05047
3.00188
2.95432
2.90786
2.86254
2.81841
2.77548
2.73377
2.69327
2.65397
2.61585
2.57889
2.54305
2.5083
2.47459
2.44188
2.41012
2.37927
2.34927
2.32009
2.29168
2.26399
2.23698
2.21063
2.18489
2.15977
2.13524
2.1113
2.08797
2.06526
2.04323
2.02194
2.00152
1.98208
1.9638
1.94589
1.92283
0.0711188
0.128344
0.160403
0.184125
0.204271
0.222658
0.240203
0.257421
0.274615
0.291975
0.30962
0.327628
0.346057
0.364962
0.384388
0.404378
0.424959
0.446156
0.467989
0.490476
0.513631
0.537456
0.561942
0.587073
0.612817
0.639144
0.666018
0.693401
0.721258
0.749568
0.778314
0.807487
0.837079
0.867089
0.897512
0.928349
0.959602
0.991274
1.02337
1.05589
1.08885
1.12225
1.15611
1.19043
1.22522
1.2605
1.29627
1.33255
1.36935
1.40668
1.44455
1.48296
1.52193
1.56145
1.60155
1.64221
1.68344
1.72524
1.76761
1.81054
1.85403
1.89807
1.94264
1.98775
2.03336
2.07948
2.12608
2.17314
2.22064
2.26856
2.31688
2.36558
2.41462
2.46399
2.51366
2.56359
2.61378
2.66418
2.71478
2.76555
2.81646
2.86751
2.91866
2.9699
3.02121
3.07256
3.12395
3.17535
3.22674
3.27812
3.32945
3.38071
3.43188
3.48292
3.5338
3.58449
3.63493
3.68507
3.73484
3.78417
3.83295
3.88108
3.92843
3.97484
4.02016
4.06417
4.10667
4.1474
4.18611
4.22251
4.25629
4.28717
4.31481
4.33893
4.35927
4.37551
4.3873
4.39429
4.39699
4.39482
4.38773
4.37573
4.35888
4.3373
4.31118
4.28073
4.24622
4.20795
4.16626
4.1215
4.07403
4.02424
3.97249
3.91916
3.86459
3.80914
3.75315
3.6969
3.64065
3.58459
3.5289
3.47373
3.41923
3.36554
3.31277
3.26103
3.21039
3.1609
3.11261
3.06554
3.01971
2.97511
2.93175
2.88958
2.84861
2.80877
2.77005
2.7324
2.69576
2.6601
2.62536
2.5915
2.55847
2.52622
2.49472
2.46391
2.43378
2.4043
2.37545
2.34723
2.31965
2.29273
2.26651
2.24105
2.21647
2.19291
2.17054
2.14957
2.12932
2.1058
0.0826903
0.144648
0.179643
0.205511
0.227353
0.247145
0.26589
0.284169
0.302343
0.32065
0.33925
0.358251
0.377731
0.397749
0.418348
0.439566
0.461428
0.483955
0.50716
0.531053
0.555634
0.580899
0.606833
0.63342
0.660635
0.688452
0.716843
0.745783
0.775246
0.805214
0.835671
0.866607
0.898014
0.929888
0.962226
0.995028
1.02829
1.06203
1.09624
1.13092
1.16609
1.20176
1.23793
1.27461
1.31182
1.34957
1.38786
1.42672
1.46615
1.50617
1.54678
1.588
1.62983
1.67228
1.71536
1.75907
1.80341
1.84838
1.89398
1.94021
1.98705
2.0345
2.08254
2.13117
2.18036
2.2301
2.28036
2.33113
2.38238
2.43408
2.4862
2.53872
2.59161
2.64483
2.69834
2.75213
2.80614
2.86036
2.91475
2.96928
3.02392
3.07864
3.13341
3.18822
3.24302
3.29782
3.35257
3.40726
3.46187
3.51637
3.57076
3.625
3.67908
3.73298
3.78665
3.84009
3.89325
3.94608
3.99854
4.05055
4.10205
4.15294
4.2031
4.2524
4.30069
4.34777
4.39344
4.43745
4.47955
4.51944
4.55681
4.59133
4.62267
4.6505
4.67449
4.69434
4.70972
4.72027
4.72597
4.72676
4.72235
4.71273
4.69789
4.67795
4.65305
4.6234
4.58928
4.55099
4.50887
4.4633
4.41465
4.36333
4.30972
4.25423
4.19722
4.13908
4.08014
4.02074
3.96113
3.90157
3.84225
3.78336
3.72506
3.66751
3.61083
3.55513
3.5005
3.447
3.39468
3.34358
3.2937
3.24506
3.19764
3.15144
3.10642
3.06255
3.01979
2.97811
2.93745
2.89776
2.85901
2.82114
2.7841
2.74784
2.71234
2.67755
2.64345
2.61001
2.57723
2.54511
2.51367
2.48294
2.45297
2.42387
2.39575
2.36879
2.34319
2.31917
2.29613
2.271
0.0926286
0.158286
0.195715
0.223405
0.246724
0.267763
0.287585
0.306816
0.325856
0.344978
0.364371
0.384169
0.404466
0.425333
0.446817
0.468954
0.49177
0.515282
0.539499
0.564424
0.590057
0.616388
0.643405
0.671093
0.699431
0.728399
0.757975
0.78814
0.818875
0.850164
0.881994
0.914355
0.947241
0.980648
1.01457
1.04901
1.08398
1.11946
1.15547
1.19202
1.22911
1.26675
1.30495
1.34372
1.38308
1.42303
1.4636
1.50479
1.54661
1.58909
1.63222
1.67603
1.72051
1.76569
1.81156
1.85814
1.90541
1.95339
2.00206
2.05143
2.10148
2.15221
2.2036
2.25563
2.30829
2.36155
2.41539
2.46978
2.5247
2.5801
2.63597
2.69225
2.74891
2.80592
2.86324
2.92082
2.97861
3.03659
3.09472
3.15294
3.21122
3.26954
3.32784
3.3861
3.4443
3.50238
3.56034
3.61815
3.67578
3.7332
3.79042
3.84739
3.9041
3.96055
4.0167
4.07254
4.12804
4.18318
4.23792
4.29222
4.34601
4.39923
4.45179
4.50357
4.55444
4.60423
4.65275
4.69978
4.74505
4.78827
4.82914
4.8673
4.90241
4.9341
4.96202
4.98581
5.00514
5.01969
5.02918
5.03354
5.03255
5.02607
5.01408
4.99662
4.97382
4.94588
4.91305
4.87563
4.83397
4.78844
4.73943
4.68735
4.63262
4.57564
4.51683
4.45657
4.39524
4.33318
4.27069
4.20804
4.14548
4.0832
4.02139
3.96023
3.89986
3.84039
3.78193
3.72454
3.66828
3.6132
3.55931
3.50663
3.45515
3.40486
3.35573
3.30774
3.26085
3.21502
3.17019
3.12634
3.08341
3.04134
3.00011
2.95965
2.91995
2.88096
2.84266
2.80504
2.7681
2.73184
2.69629
2.6615
2.62755
2.59453
2.5626
2.53195
2.5028
2.47536
2.44908
2.42139
0.100816
0.169244
0.20861
0.23779
0.262351
0.284467
0.305235
0.325312
0.34512
0.364954
0.38502
0.405471
0.426415
0.447931
0.470074
0.492884
0.516387
0.5406
0.565532
0.591187
0.617562
0.644651
0.672444
0.700927
0.730087
0.759907
0.790372
0.821466
0.853175
0.885488
0.918392
0.951883
0.985953
1.0206
1.05582
1.09162
1.128
1.16497
1.20252
1.24067
1.27942
1.31879
1.35879
1.39942
1.44071
1.48266
1.5253
1.56862
1.61266
1.65742
1.70291
1.74915
1.79614
1.84391
1.89245
1.94176
1.99186
2.04274
2.0944
2.14682
2.20001
2.25395
2.30863
2.36401
2.4201
2.47684
2.53423
2.59222
2.65079
2.70989
2.76948
2.82952
2.88996
2.95077
3.01188
3.07325
3.13483
3.19656
3.25841
3.32031
3.38221
3.44409
3.50587
3.56754
3.62903
3.69033
3.75138
3.81217
3.87267
3.93284
3.99268
4.05215
4.11124
4.16995
4.22825
4.28615
4.34362
4.40066
4.45724
4.51335
4.56895
4.624
4.67843
4.73217
4.78511
4.83711
4.88801
4.9376
4.98564
5.03186
5.07595
5.11755
5.1563
5.19182
5.22372
5.25162
5.27514
5.29393
5.30769
5.31621
5.31923
5.3166
5.3082
5.29403
5.27419
5.24883
5.21819
5.18254
5.14221
5.09756
5.04901
4.99695
4.94183
4.88406
4.82409
4.76232
4.69915
4.63495
4.57006
4.50477
4.43935
4.37403
4.30904
4.24454
4.18071
4.11767
4.05553
3.99439
3.9343
3.87531
3.81746
3.76076
3.70521
3.65081
3.59753
3.54534
3.49423
3.44414
3.39503
3.34686
3.29959
3.25317
3.20756
3.16272
3.11862
3.07522
3.03252
2.9905
2.94917
2.90854
2.86866
2.82958
2.79139
2.75421
2.7182
2.68357
2.65055
2.61935
2.58944
2.55875
0.10724
0.17764
0.218481
0.248832
0.274399
0.297407
0.318978
0.339782
0.360252
0.380693
0.401323
0.422303
0.44375
0.465751
0.488367
0.511644
0.535611
0.560289
0.585689
0.611819
0.638677
0.66626
0.694562
0.723576
0.753291
0.783698
0.814785
0.846544
0.878961
0.912032
0.945747
0.980103
1.0151
1.05073
1.087
1.12391
1.16146
1.19967
1.23853
1.27806
1.31827
1.35916
1.40076
1.44307
1.48611
1.52989
1.57444
1.61976
1.66587
1.71278
1.76052
1.80908
1.8585
1.90876
1.95989
2.01189
2.06475
2.11848
2.17308
2.22854
2.28484
2.34197
2.39992
2.45866
2.51816
2.5784
2.63934
2.70095
2.76318
2.826
2.88934
2.95316
3.01741
3.08204
3.14697
3.21215
3.27753
3.34304
3.40861
3.47418
3.53971
3.60512
3.67035
3.73537
3.80011
3.86453
3.92858
3.99223
4.05545
4.11819
4.18044
4.24218
4.30339
4.36405
4.42417
4.48374
4.54276
4.60123
4.65915
4.71653
4.77336
4.82962
4.88529
4.94033
4.99466
5.0482
5.10081
5.15232
5.20253
5.25117
5.29796
5.34256
5.38459
5.42367
5.45938
5.49132
5.51906
5.54224
5.56049
5.57354
5.58111
5.58291
5.57883
5.56871
5.55264
5.53072
5.50314
5.47013
5.43202
5.38914
5.34188
5.29066
5.23593
5.17812
5.11769
5.05506
4.99067
4.9249
4.85813
4.79068
4.72285
4.6549
4.58706
4.51955
4.45254
4.38618
4.32059
4.25587
4.1921
4.12933
4.06761
4.00695
3.94737
3.88886
3.83142
3.77502
3.71962
3.66521
3.61173
3.55915
3.50743
3.45652
3.4064
3.35702
3.30835
3.26038
3.2131
3.1665
3.12059
3.0754
3.03098
2.9874
2.94476
2.90319
2.86286
2.82401
2.78684
2.75157
2.7177
2.68354
0.111968
0.183664
0.225569
0.256797
0.283137
0.30685
0.329067
0.350461
0.371471
0.392403
0.413479
0.434863
0.45668
0.47902
0.501949
0.525519
0.549762
0.574705
0.600365
0.626752
0.65387
0.681721
0.710304
0.739615
0.769652
0.800411
0.831887
0.864074
0.896966
0.930563
0.964858
0.999849
1.03554
1.07193
1.10902
1.14683
1.18535
1.2246
1.26458
1.30531
1.34679
1.38905
1.43209
1.47593
1.5206
1.56609
1.61244
1.65965
1.70775
1.75675
1.80667
1.85751
1.9093
1.96203
2.01573
2.07038
2.12601
2.18259
2.24014
2.29863
2.35806
2.41841
2.47965
2.54177
2.60473
2.6685
2.73303
2.79829
2.86423
2.93079
2.99792
3.06556
3.13364
3.20211
3.27089
3.3399
3.40909
3.47836
3.54766
3.6169
3.68601
3.75491
3.82355
3.89185
3.95975
4.02719
4.09412
4.16048
4.22624
4.29135
4.35579
4.41953
4.48254
4.54482
4.60636
4.66716
4.72724
4.78661
4.84529
4.90331
4.96068
5.01743
5.07358
5.1291
5.184
5.23822
5.29168
5.34426
5.39579
5.44606
5.49479
5.54169
5.58638
5.62848
5.66758
5.70323
5.73502
5.76253
5.78535
5.80313
5.81555
5.82233
5.82315
5.81785
5.8063
5.78864
5.76499
5.73553
5.70054
5.66032
5.61526
5.56576
5.51226
5.45521
5.39508
5.33233
5.26739
5.2007
5.13265
5.0636
4.99387
4.92375
4.85352
4.78338
4.71355
4.64418
4.57542
4.50737
4.44013
4.37377
4.30833
4.24384
4.18033
4.1178
4.05625
3.99565
3.93599
3.87724
3.81936
3.76232
3.70609
3.65062
3.5959
3.54188
3.48855
3.43589
3.3839
3.33257
3.28195
3.23205
3.18294
3.1347
3.08744
3.0413
2.99648
2.95318
2.91164
2.87205
2.83398
2.79602
0.115087
0.187538
0.23015
0.261988
0.288883
0.313113
0.33581
0.357647
0.37906
0.400353
0.421748
0.44341
0.465463
0.488003
0.511099
0.534807
0.559165
0.584205
0.609948
0.63641
0.663601
0.69153
0.7202
0.749614
0.779774
0.810685
0.842348
0.874766
0.907939
0.941866
0.976548
1.01198
1.04818
1.08514
1.12289
1.16142
1.20075
1.24088
1.28183
1.32362
1.36626
1.40976
1.45415
1.49944
1.54564
1.59279
1.64089
1.68996
1.74002
1.79109
1.84318
1.89631
1.95048
2.00571
2.062
2.11936
2.17778
2.23727
2.29781
2.3594
2.42201
2.48563
2.55023
2.61578
2.68225
2.74959
2.81776
2.88671
2.95639
3.02673
3.09766
3.16913
3.24106
3.31336
3.38597
3.4588
3.53176
3.60476
3.67772
3.75056
3.82317
3.89549
3.96741
4.03887
4.10978
4.18008
4.24969
4.31855
4.38662
4.45383
4.52016
4.58555
4.65
4.71348
4.77598
4.83751
4.8981
4.95776
5.01653
5.07445
5.13159
5.18798
5.2437
5.29877
5.35324
5.40712
5.46039
5.51298
5.56478
5.61564
5.66532
5.71357
5.76005
5.8044
5.84621
5.88505
5.92049
5.95206
5.97933
6.00188
6.01931
6.03131
6.03756
6.03772
6.0315
6.0189
6.00003
5.97503
5.94409
5.9075
5.86558
5.81873
5.76738
5.71198
5.653
5.59093
5.52623
5.45934
5.3907
5.32068
5.24965
5.17793
5.10581
5.03352
4.9613
4.88933
4.81775
4.74671
4.6763
4.6066
4.53767
4.46956
4.4023
4.33589
4.27035
4.20566
4.14181
4.07878
4.01655
3.95508
3.89434
3.83431
3.77496
3.71628
3.65823
3.60083
3.54406
3.48795
3.43253
3.37783
3.32393
3.27093
3.21894
3.16811
3.11864
3.07076
3.02468
2.98061
2.93814
2.89617
0.116851
0.18953
0.232513
0.264717
0.291961
0.316524
0.339537
0.361662
0.383333
0.40485
0.426432
0.448243
0.470406
0.493016
0.516145
0.539851
0.56418
0.589168
0.614842
0.641227
0.668341
0.696202
0.724823
0.754189
0.784317
0.815224
0.846923
0.879421
0.912725
0.94684
0.981768
1.01751
1.05406
1.09147
1.12975
1.1689
1.20894
1.24986
1.2917
1.33448
1.37821
1.42291
1.46861
1.51533
1.56308
1.61188
1.66176
1.71273
1.7648
1.81801
1.87235
1.92783
1.98448
2.0423
2.10128
2.16144
2.22277
2.28526
2.3489
2.41367
2.47956
2.54653
2.61456
2.68361
2.75365
2.82461
2.89645
2.96911
3.04252
3.11663
3.19135
3.26661
3.34232
3.4184
3.49475
3.57129
3.6479
3.7245
3.80098
3.87725
3.95319
4.0287
4.1037
4.17808
4.25175
4.32462
4.39662
4.46766
4.53768
4.60662
4.67443
4.74105
4.80645
4.87061
4.93352
4.99518
5.05562
5.11485
5.17294
5.22995
5.28596
5.34106
5.39533
5.44888
5.5018
5.55418
5.60605
5.65743
5.70828
5.7585
5.80793
5.85638
5.90356
5.94916
5.9928
6.03407
6.07251
6.10767
6.13907
6.16622
6.18867
6.20603
6.21794
6.22405
6.22398
6.21728
6.20406
6.18442
6.15851
6.12654
6.08879
6.0456
5.9974
5.94462
5.88774
5.82726
5.76365
5.6974
5.62894
5.5587
5.48706
5.41438
5.34097
5.2671
5.19302
5.11892
5.04499
4.97136
4.89816
4.82547
4.75337
4.68193
4.61116
4.54112
4.47179
4.40319
4.33532
4.26815
4.20167
4.13587
4.07071
4.00618
3.94227
3.87895
3.81623
3.75409
3.69256
3.63166
3.57142
3.51191
3.45319
3.39538
3.33861
3.28303
3.22885
3.17629
3.12558
3.07692
3.02995
2.98384
0.116897
0.189576
0.232776
0.265198
0.292641
0.317387
0.340564
0.362835
0.384625
0.406232
0.427867
0.449694
0.471834
0.494385
0.517421
0.541004
0.565183
0.589998
0.615484
0.641672
0.66859
0.696265
0.724724
0.75394
0.783945
0.814763
0.84641
0.878902
0.912251
0.946471
0.98157
1.01756
1.05445
1.0923
1.13111
1.17088
1.21162
1.25333
1.29606
1.33985
1.38471
1.43067
1.47776
1.52599
1.57539
1.62597
1.67776
1.73078
1.78503
1.84053
1.89728
1.95531
2.01462
2.0752
2.13705
2.20018
2.26457
2.33022
2.3971
2.46519
2.53446
2.60489
2.67642
2.74903
2.82266
2.89725
2.97274
3.04907
3.12617
3.20395
3.28234
3.36125
3.44058
3.52023
3.60011
3.68011
3.76012
3.84003
3.91972
3.99908
4.07799
4.15634
4.23402
4.31091
4.3869
4.46191
4.53582
4.60856
4.68003
4.75016
4.81888
4.88614
4.95188
5.01607
5.07869
5.13975
5.19925
5.25724
5.31377
5.36893
5.42283
5.47557
5.5273
5.57815
5.6283
5.6779
5.72707
5.77592
5.82447
5.8727
5.92053
5.96786
6.01449
6.06015
6.10453
6.14724
6.18786
6.22592
6.26092
6.29232
6.31961
6.34237
6.36011
6.37242
6.37899
6.37923
6.37258
6.35923
6.33936
6.31307
6.28056
6.24213
6.19816
6.14907
6.09533
6.03744
5.9759
5.9112
5.84381
5.77418
5.70273
5.62983
5.55583
5.48104
5.40571
5.33007
5.25432
5.17861
5.10309
5.02785
4.95299
4.87858
4.80466
4.73129
4.65847
4.58623
4.51456
4.44348
4.37296
4.303
4.23358
4.1647
4.09635
4.02852
3.96121
3.89444
3.82822
3.76259
3.6976
3.63332
3.56982
3.50723
3.44569
3.38537
3.32647
3.26922
3.21384
3.16056
3.10905
3.05878
0.116416
0.188776
0.231849
0.264214
0.291626
0.316351
0.339507
0.361747
0.383494
0.405041
0.426599
0.448327
0.470345
0.492751
0.515619
0.539014
0.562985
0.587578
0.61283
0.638778
0.665451
0.692874
0.721062
0.75005
0.779871
0.810553
0.842123
0.874604
0.908019
0.942388
0.977731
1.01407
1.0514
1.08977
1.12917
1.16964
1.21119
1.25382
1.29761
1.34258
1.38878
1.43622
1.48493
1.53492
1.58623
1.63888
1.69287
1.74823
1.80496
1.86307
1.92256
1.98343
2.04568
2.1093
2.17429
2.24064
2.30832
2.37732
2.4476
2.51915
2.59191
2.66585
2.74093
2.81708
2.89426
2.97239
3.0514
3.13123
3.2118
3.29301
3.37477
3.45699
3.53957
3.6224
3.70537
3.78837
3.87127
3.95396
4.0363
4.11818
4.19946
4.28002
4.35974
4.43848
4.51613
4.59257
4.66769
4.74138
4.81356
4.88412
4.95298
5.02007
5.08532
5.14869
5.21015
5.2697
5.32734
5.38311
5.43706
5.48933
5.54002
5.58928
5.63727
5.68418
5.73028
5.77579
5.82091
5.86584
5.91071
5.95554
6.00019
6.04471
6.08917
6.1334
6.17716
6.22014
6.26196
6.30219
6.34029
6.37574
6.40792
6.43611
6.45977
6.47852
6.49197
6.49973
6.5009
6.4949
6.48212
6.46263
6.43651
6.404
6.36543
6.32119
6.27173
6.21754
6.15912
6.097
6.03166
5.96358
5.89319
5.82092
5.74714
5.67218
5.59632
5.51981
5.44287
5.36568
5.28839
5.21113
5.13399
5.05708
4.98044
4.90414
4.8282
4.75266
4.67754
4.60283
4.52855
4.4547
4.38127
4.30826
4.23568
4.16352
4.09181
4.02057
3.94982
3.8796
3.80999
3.74105
3.67288
3.60561
3.53939
3.4744
3.41084
3.34894
3.28894
3.23107
3.17507
3.12066
0.115035
0.186669
0.229328
0.261457
0.288681
0.31323
0.336214
0.358281
0.379847
0.401201
0.422551
0.444053
0.465829
0.487974
0.510568
0.533675
0.55735
0.581643
0.606599
0.63226
0.658669
0.685864
0.713885
0.742767
0.772544
0.803254
0.834932
0.867608
0.901312
0.936074
0.971927
1.0089
1.04705
1.08634
1.12681
1.16847
1.21134
1.25542
1.30076
1.34743
1.39548
1.44493
1.4958
1.54812
1.60191
1.65721
1.71401
1.77233
1.83213
1.89343
1.95621
2.02045
2.08615
2.15329
2.22184
2.29178
2.36307
2.4357
2.5096
2.58476
2.6611
2.73859
2.81717
2.89677
2.97732
3.05876
3.141
3.22396
3.30756
3.39171
3.4763
3.56124
3.64642
3.73172
3.81703
3.90223
3.9872
4.0718
4.1559
4.23937
4.32207
4.40387
4.48462
4.56419
4.64246
4.71929
4.79455
4.86813
4.93992
5.00981
5.0777
5.1435
5.20712
5.26851
5.32765
5.3845
5.43907
5.49139
5.5415
5.58959
5.63578
5.68024
5.72315
5.76471
5.80499
5.84447
5.88355
5.92252
5.96165
6.00107
6.04081
6.08138
6.12261
6.16434
6.20639
6.24854
6.29046
6.33177
6.37197
6.41056
6.44694
6.48069
6.51091
6.53695
6.5583
6.57446
6.58487
6.58809
6.58396
6.57254
6.55408
6.52878
6.49693
6.45883
6.41491
6.36563
6.31153
6.25313
6.19091
6.1254
6.05705
5.98632
5.91362
5.83929
5.76366
5.687
5.60955
5.53151
5.45304
5.37431
5.29542
5.21648
5.13757
5.05876
4.98009
4.90162
4.82337
4.74536
4.66761
4.59013
4.51293
4.43603
4.35944
4.28317
4.20725
4.13171
4.05659
3.98195
3.90786
3.8344
3.76169
3.68986
3.61906
3.54949
3.48137
3.41492
3.35037
3.288
3.22757
3.16911
0.112393
0.18307
0.225192
0.256929
0.283815
0.308055
0.33075
0.352545
0.373852
0.394955
0.41606
0.437322
0.458866
0.48079
0.503178
0.526099
0.549616
0.573786
0.598661
0.624295
0.650739
0.678038
0.70624
0.735391
0.765543
0.796748
0.82907
0.862511
0.897105
0.932898
0.969928
1.00823
1.0478
1.08861
1.13073
1.17422
1.21913
1.26552
1.31339
1.36278
1.41372
1.46623
1.52032
1.576
1.6333
1.69219
1.75269
1.81476
1.87839
1.94354
2.01019
2.07832
2.14789
2.21885
2.29119
2.36484
2.43977
2.51593
2.59327
2.67173
2.75126
2.83178
2.91325
2.99558
3.07872
3.16257
3.24706
3.3321
3.41761
3.50349
3.58965
3.67598
3.76238
3.84874
3.93494
4.02086
4.10637
4.19134
4.27565
4.35915
4.44169
4.52314
4.60336
4.68219
4.75951
4.83518
4.90906
4.98101
5.05092
5.11866
5.18412
5.24719
5.30776
5.36578
5.42121
5.47403
5.52421
5.57177
5.61666
5.65898
5.69898
5.7369
5.77296
5.80742
5.84108
5.87405
5.9067
5.93938
5.97245
6.00611
6.04034
6.07577
6.11243
6.15033
6.18943
6.22961
6.27064
6.31219
6.35384
6.39515
6.43545
6.47457
6.51064
6.54337
6.57214
6.59628
6.61514
6.62782
6.63424
6.63345
6.62426
6.6079
6.58421
6.55356
6.51645