/*--------------------------------*- C++ -*----------------------------------*\
  =========                 |
  \\      /  F ield         | OpenFOAM: The Open Source CFD Toolbox
   \\    /   O peration     | Website:  https://openfoam.org
    \\  /    A nd           | Version:  8
     \\/     M anipulation  |
\*---------------------------------------------------------------------------*/
FoamFile
{
    version     2.0;
    format      ascii;
    class       volScalarField;
    location    "145";
    object      nut;
}
// * * * * * * * * * * * * * * * * * * * * * * * * * * * * * * * * * * * * * //

dimensions      [0 2 -1 0 0 0 0];

internalField   nonuniform List<scalar> 
12225
(
4.14977e-05
3.9342e-05
3.74826e-05
3.54343e-05
3.37808e-05
3.24251e-05
3.15028e-05
3.09133e-05
3.09178e-05
3.10993e-05
3.15655e-05
3.21265e-05
3.31379e-05
3.38786e-05
3.50307e-05
3.60398e-05
3.70934e-05
3.72582e-05
0.00033242
0.000215137
0.000179331
0.000157609
0.000146264
0.000138139
0.000132698
0.000131727
0.000129419
0.000130161
0.000128952
0.000129544
0.000128569
0.000128664
0.000128
0.000127526
0.000127372
0.000126624
0.000675239
0.000450586
0.000355941
0.000309658
0.00027544
0.000250928
0.000231828
0.000217119
0.000202678
0.00019209
0.000182589
0.000175148
0.000169343
0.000163564
0.000160277
0.000155377
0.000153732
0.000149604
0.000833848
0.000684634
0.000572265
0.000499721
0.000449674
0.000411725
0.000380947
0.000355795
0.000334131
0.000314563
0.000298429
0.000281453
0.000270317
0.000255865
0.000248108
0.000235926
0.000230075
0.000219994
0.00086134
0.000802492
0.000742319
0.00067633
0.000624202
0.000581164
0.000546027
0.000514368
0.000489627
0.000464246
0.000445905
0.00042389
0.000409874
0.000390614
0.000379691
0.000362855
0.000354062
0.000338967
0.000855002
0.000840352
0.000822279
0.000786354
0.00075101
0.000715765
0.000685863
0.000656009
0.000632601
0.000607402
0.000588987
0.000567128
0.000552189
0.000532941
0.000520578
0.000503485
0.000492925
0.000477007
0.000852915
0.000850687
0.00084425
0.000832824
0.000817464
0.000796935
0.000777932
0.000756675
0.000738912
0.000719085
0.000703502
0.000685543
0.000672036
0.0006558
0.000644141
0.000629321
0.000619218
0.000604782
0.000851927
0.000851808
0.000850181
0.000847384
0.000841463
0.000833724
0.000824901
0.000813391
0.000802806
0.000790442
0.000779687
0.000767492
0.000757362
0.000745697
0.000736424
0.000725376
0.000716953
0.000705783
0.000851754
0.000851538
0.000851039
0.000850334
0.000848883
0.000846166
0.000843037
0.000838296
0.000833397
0.000827348
0.000821197
0.000814746
0.000808371
0.000801474
0.00079517
0.000788324
0.000782047
0.000775091
0.000851771
0.000851387
0.000851048
0.000850631
0.000850248
0.000849366
0.000848406
0.000846778
0.000844952
0.000842524
0.000839914
0.000836785
0.000833775
0.000830124
0.000826934
0.000822875
0.000819838
0.000815214
0.000851788
0.000851358
0.000851012
0.000850613
0.000850329
0.000849904
0.000849525
0.000848927
0.000848301
0.00084739
0.000846461
0.000845169
0.000843981
0.000842337
0.000840979
0.000839008
0.00083761
0.000835323
0.000851789
0.000851359
0.000850996
0.000850605
0.000850292
0.000849938
0.000849645
0.000849279
0.000848954
0.000848502
0.000848096
0.000847503
0.000846992
0.000846237
0.000845633
0.000844709
0.000844045
0.00084296
0.000851786
0.000851363
0.000850986
0.000850604
0.000850269
0.000849926
0.000849629
0.000849312
0.000849041
0.000848727
0.00084846
0.000848123
0.00084784
0.000847462
0.000847152
0.00084672
0.000846381
0.000845896
0.000851783
0.000851364
0.000850978
0.000850602
0.000850256
0.000849916
0.000849607
0.000849299
0.000849022
0.000848739
0.000848487
0.000848223
0.000847987
0.000847733
0.000847506
0.000847256
0.000847031
0.000846782
0.000851781
0.000851364
0.000850973
0.000850598
0.000850246
0.000849908
0.000849591
0.000849286
0.000848999
0.000848723
0.000848463
0.000848211
0.000847974
0.000847744
0.000847527
0.000847316
0.000847115
0.00084692
0.00085178
0.000851363
0.000850969
0.000850594
0.000850239
0.000849901
0.00084958
0.000849275
0.000848984
0.000848707
0.000848443
0.000848191
0.000847951
0.000847721
0.000847503
0.000847294
0.000847094
0.000846903
0.000851779
0.000851362
0.000850967
0.000850591
0.000850234
0.000849895
0.000849572
0.000849265
0.000848973
0.000848694
0.000848429
0.000848175
0.000847933
0.000847702
0.000847482
0.000847271
0.000847069
0.000846877
0.000851779
0.000851362
0.000850965
0.000850588
0.000850231
0.00084989
0.000849567
0.000849259
0.000848966
0.000848686
0.000848419
0.000848164
0.000847921
0.000847689
0.000847467
0.000847254
0.000847051
0.000846857
0.000851779
0.000851362
0.000850965
0.000850588
0.00085023
0.000849889
0.000849565
0.000849257
0.000848963
0.000848682
0.000848415
0.000848159
0.000847915
0.000847682
0.000847459
0.000847246
0.000847041
0.000846846
0.000851779
0.000851362
0.000850966
0.000850589
0.000850232
0.000849892
0.000849568
0.00084926
0.000848966
0.000848686
0.000848418
0.000848163
0.000847919
0.000847685
0.000847462
0.000847248
0.000847043
0.000846847
0.000851779
0.000851363
0.000850967
0.000850592
0.000850235
0.000849897
0.000849573
0.000849267
0.000848973
0.000848695
0.000848425
0.00084817
0.000847921
0.000847685
0.000847453
0.000847233
0.000847015
0.000846808
0.000851778
0.000851366
0.000850968
0.000850599
0.00085024
0.000849908
0.00084958
0.000849275
0.000848965
0.000848672
0.000848366
0.000848073
0.000847758
0.000847457
0.000847125
0.000846813
0.000846459
0.000846138
0.000851777
0.000851374
0.000850972
0.000850615
0.000850241
0.00084989
0.000849479
0.000849055
0.00084853
0.000847979
0.000847302
0.000846606
0.000845769
0.000844942
0.000843957
0.000843032
0.000841921
0.000840943
0.000851802
0.00085141
0.00085097
0.000850549
0.000849861
0.000848968
0.000847608
0.000845981
0.000843905
0.000841638
0.000838957
0.000836218
0.000833121
0.000830118
0.000826769
0.000823686
0.000820191
0.000817185
0.000852138
0.000851403
0.000850234
0.000848253
0.000844473
0.000839357
0.000832714
0.000825766
0.000817917
0.000810006
0.000801622
0.000793635
0.00078534
0.000777717
0.000769754
0.000762712
0.000755136
0.000748808
0.000854142
0.000847718
0.000840126
0.000827123
0.000808709
0.00078965
0.000769976
0.000751423
0.000733311
0.000716904
0.000700944
0.000686793
0.000672844
0.000660686
0.000648395
0.000637958
0.000626972
0.000618038
0.00085497
0.000818337
0.00077623
0.000726637
0.000684941
0.000649862
0.000618466
0.00059203
0.000568391
0.000548323
0.000529701
0.000514007
0.000498766
0.000486034
0.00047322
0.000462727
0.000451642
0.000442824
0.000807486
0.00066688
0.000570553
0.000509858
0.000465653
0.0004312
0.000404139
0.000382509
0.000364202
0.000349078
0.00033595
0.000325089
0.000314492
0.00030626
0.000297975
0.000291381
0.000284295
0.000278945
0.000501854
0.000348405
0.000292691
0.000259176
0.000236325
0.000221179
0.000211546
0.000204019
0.000198482
0.000195062
0.00019222
0.00019037
0.000188583
0.00018744
0.000186165
0.000185474
0.000184553
0.000184141
7.27285e-05
7.0223e-05
6.79539e-05
6.56135e-05
6.33827e-05
6.12764e-05
5.94928e-05
5.79571e-05
5.67101e-05
5.57025e-05
5.4977e-05
5.44175e-05
5.41076e-05
5.38854e-05
5.38755e-05
5.39597e-05
5.4069e-05
5.43194e-05
1.68674e-06
2.78428e-05
4.50439e-05
6.1056e-05
7.69465e-05
9.27139e-05
0.000108218
0.000123214
0.000137218
0.000149682
0.00015988
0.000167164
0.000170854
0.000171066
0.000170087
0.000173227
0.000178398
0.000186506
0.000192163
0.000195027
0.000190241
0.000171998
3.15001e-05
3.8386e-05
4.27521e-05
4.36223e-05
4.77762e-05
4.91167e-05
5.00918e-05
5.14606e-05
5.26846e-05
5.39635e-05
5.52133e-05
5.64625e-05
5.76948e-05
5.89207e-05
6.01315e-05
6.13367e-05
6.25287e-05
6.37166e-05
6.48926e-05
6.60642e-05
6.72216e-05
6.83754e-05
6.95184e-05
7.06588e-05
7.17901e-05
7.29199e-05
7.40418e-05
7.51632e-05
7.62774e-05
7.73917e-05
7.84994e-05
7.96075e-05
8.07095e-05
8.18122e-05
8.29087e-05
8.4006e-05
8.50971e-05
8.61889e-05
8.72742e-05
8.836e-05
8.9439e-05
9.05185e-05
9.15906e-05
9.26629e-05
9.37273e-05
9.47914e-05
9.58473e-05
9.69024e-05
9.79489e-05
9.89941e-05
0.00010003
0.000101064
0.000102089
0.000103111
0.000104122
0.00010513
0.000106127
0.000107121
0.000108102
0.000109079
0.000110043
0.000111
0.000111942
0.000112876
0.000113792
0.000114695
0.000115577
0.000116439
0.000117276
0.000118079
0.000118901
0.000119701
0.000120486
0.000121253
0.000122002
0.000122731
0.000123439
0.000124124
0.000124786
0.00012542
0.000126026
0.0001266
0.000127139
0.000127641
0.000128103
0.000128524
0.000128901
0.000129228
0.0001295
0.000129739
0.000129893
0.000130062
0.000130047
0.000129957
0.000129823
0.00012967
0.000129395
0.000129047
0.000128618
0.00012813
0.000127548
0.000126855
0.000126089
0.000125245
0.000124329
0.000123344
0.000122297
0.00012119
0.000120031
0.000118824
0.000117579
0.000116298
0.000114992
0.000113671
0.000112343
0.000111119
0.000110116
0.000109148
0.000108192
0.000107237
0.000106274
0.000105303
0.000104322
0.000103332
0.000102338
0.000101346
0.000100363
9.9396e-05
9.84489e-05
9.75221e-05
9.66155e-05
9.57286e-05
9.48635e-05
9.40219e-05
9.32056e-05
9.2412e-05
9.16379e-05
9.08786e-05
9.01351e-05
8.94073e-05
8.86995e-05
8.80112e-05
8.73446e-05
8.66969e-05
8.60695e-05
8.54594e-05
8.4867e-05
8.4294e-05
8.37405e-05
8.32025e-05
8.26826e-05
8.21647e-05
8.16471e-05
8.11244e-05
8.05956e-05
8.00281e-05
7.93838e-05
7.73793e-05
5.06097e-06
5.99332e-05
0.000120651
0.000164314
0.000195031
0.000218561
0.000237868
0.000254338
0.000268371
0.000279824
0.00028834
0.000293757
0.000294886
0.000292209
0.000288021
0.0002919
0.000298127
0.000301778
0.00030121
0.000295093
0.000282068
0.000261263
0.000234125
0.000248972
0.000262257
0.000269325
0.000294412
0.000305917
0.000314399
0.000322523
0.000330975
0.000339616
0.000348316
0.000357028
0.000365783
0.000374547
0.000383313
0.000392074
0.000400838
0.000409614
0.000418428
0.000427317
0.000436192
0.000445038
0.000453863
0.000462672
0.000471475
0.000480277
0.00048909
0.000497915
0.000506765
0.00051564
0.00052455
0.000533497
0.000542489
0.000551528
0.00056062
0.000569765
0.000578971
0.000588236
0.000597566
0.000606959
0.000616421
0.00062595
0.000635553
0.000645228
0.000654979
0.000664807
0.000674717
0.000684709
0.000694791
0.000704964
0.000715234
0.000725604
0.00073608
0.000746667
0.000757375
0.000768209
0.000779183
0.000790309
0.000801597
0.00081306
0.000824708
0.000836551
0.000848592
0.000860833
0.000873266
0.000885869
0.000898586
0.000911315
0.000923894
0.000936079
0.000947552
0.000959077
0.000970707
0.000982439
0.000994265
0.00100617
0.00101815
0.00103018
0.00104222
0.00105426
0.00106625
0.00107817
0.00108996
0.00110157
0.00111296
0.00112408
0.00113489
0.0011454
0.00115548
0.00116507
0.00117428
0.00118304
0.00119038
0.00119683
0.00120167
0.00120729
0.00121142
0.00121456
0.00121671
0.00121794
0.00121831
0.00121766
0.00121607
0.00121356
0.00121017
0.00120595
0.00120093
0.00119518
0.00118874
0.00118169
0.00117407
0.00116594
0.00115732
0.00114817
0.00113811
0.00112627
0.00111312
0.00109957
0.00108597
0.00107242
0.00105895
0.00104561
0.00103245
0.00101953
0.00100689
0.000994535
0.000982506
0.000970831
0.000959525
0.000948592
0.00093802
0.000927795
0.000917895
0.000908302
0.000899004
0.000889989
0.000881231
0.000872709
0.000864409
0.000856331
0.00084847
0.000840812
0.00083334
0.000826035
0.000818878
0.000811853
0.000804942
0.000798195
0.000791575
0.000785016
0.000778472
0.000771928
0.000765381
0.000758792
0.000752016
0.000744963
0.000733168
0.000698864
9.2856e-06
8.88265e-05
0.000175504
0.000242897
0.000293015
0.000330159
0.000358269
0.000380097
0.000397295
0.000410688
0.000420595
0.000427127
0.000431774
0.000435954
0.000441498
0.000450924
0.000463816
0.000475655
0.000485769
0.000493224
0.00049995
0.000505902
0.000514472
0.000532698
0.00055196
0.000571864
0.00059488
0.000614724
0.000633521
0.000651971
0.000670401
0.000688847
0.000707291
0.000725711
0.000744095
0.000762343
0.000780503
0.000798581
0.000816583
0.000834515
0.000852389
0.000870209
0.000887973
0.000905686
0.000923364
0.000941019
0.000958668
0.000976326
0.000994009
0.00101173
0.0010295
0.00104733
0.00106523
0.00108322
0.00110129
0.00111946
0.00113773
0.0011561
0.00117459
0.0011932
0.00121192
0.00123076
0.00124972
0.0012688
0.001288
0.00130734
0.00132679
0.00134638
0.00136609
0.00138593
0.00140591
0.00142602
0.00144628
0.00146668
0.00148723
0.00150793
0.0015288
0.00154984
0.00157106
0.00159248
0.0016141
0.00163593
0.00165798
0.00168025
0.00170274
0.00172543
0.0017483
0.00177132
0.00179443
0.00181755
0.0018406
0.00186349
0.0018862
0.00190907
0.00193212
0.00195534
0.00197872
0.00200222
0.00202581
0.00204947
0.00207314
0.00209676
0.00212028
0.00214361
0.00216668
0.00218939
0.00221164
0.00223335
0.00225439
0.00227469
0.00229412
0.00231254
0.00233015
0.00234646
0.00236146
0.00237376
0.00238359
0.00239389
0.00240197
0.00240812
0.00241236
0.00241472
0.00241523
0.00241382
0.00241055
0.00240548
0.00239867
0.00239022
0.00238022
0.00236877
0.00235598
0.00234197
0.00232685
0.00231073
0.00229368
0.00227565
0.00225636
0.00223529
0.00221273
0.00218939
0.00216572
0.00214192
0.00211812
0.00209442
0.00207094
0.00204775
0.00202493
0.00200252
0.00198057
0.00195912
0.0019382
0.00191783
0.00189801
0.00187873
0.00185997
0.00184171
0.00182394
0.00180663
0.00178976
0.00177331
0.00175726
0.00174158
0.00172627
0.00171131
0.00169666
0.0016823
0.00166821
0.00165435
0.00164071
0.0016273
0.0016141
0.00160103
0.00158804
0.00157511
0.00156222
0.00154926
0.00153599
0.00152179
0.00150267
0.00145362
1.37137e-05
0.000111818
0.000219005
0.000304284
0.000369158
0.000418015
0.000455219
0.000484138
0.000507183
0.000526002
0.000541751
0.000555398
0.000568074
0.000581049
0.000595658
0.000610653
0.000627997
0.000647813
0.000668804
0.000690649
0.000711999
0.000733456
0.000756069
0.000780967
0.000806737
0.000833092
0.000860397
0.000887135
0.000913619
0.000939937
0.000966177
0.000992374
0.00101853
0.00104465
0.00107076
0.00109681
0.00112273
0.00114852
0.00117417
0.0011997
0.00122511
0.00125043
0.00127567
0.00130083
0.00132594
0.00135102
0.00137609
0.00140117
0.00142628
0.00145144
0.00147667
0.00150199
0.00152739
0.00155291
0.00157855
0.00160432
0.00163022
0.00165627
0.00168246
0.0017088
0.0017353
0.00176196
0.00178877
0.00181574
0.00184287
0.00187016
0.0018976
0.0019252
0.00195295
0.00198086
0.00200892
0.00203713
0.00206551
0.00209404
0.00212272
0.00215157
0.00218059
0.00220977
0.00223913
0.00226866
0.00229838
0.00232828
0.00235836
0.00238863
0.00241906
0.00244964
0.00248036
0.00251117
0.00254205
0.00257295
0.00260381
0.00263464
0.00266552
0.00269655
0.00272777
0.00275916
0.00279069
0.00282234
0.00285408
0.00288586
0.00291763
0.00294932
0.00298086
0.00301216
0.00304313
0.00307366
0.00310362
0.0031329
0.00316137
0.00318888
0.00321528
0.00324042
0.00326421
0.00328643
0.00330753
0.00332514
0.0033397
0.00335403
0.00336596
0.00337538
0.00338229
0.00338667
0.00338851
0.00338781
0.00338458
0.0033789
0.00337085
0.00336052
0.00334804
0.00333354
0.00331714
0.00329901
0.00327929
0.00325813
0.00323562
0.0032118
0.00318656
0.00315967
0.00313132
0.00310199
0.00307204
0.00304175
0.00301129
0.00298081
0.00295045
0.00292031
0.00289049
0.00286104
0.00283204
0.00280354
0.00277559
0.00274822
0.00272143
0.00269525
0.00266965
0.00264464
0.0026202
0.00259632
0.00257298
0.00255015
0.00252781
0.00250594
0.00248452
0.00246353
0.00244294
0.00242271
0.00240283
0.00238328
0.00236403
0.00234508
0.00232641
0.00230798
0.00228974
0.00227171
0.00225384
0.00223601
0.00221791
0.00219871
0.00217452
0.00212331
1.80264e-05
0.000131661
0.000256326
0.000357088
0.000435587
0.000495814
0.000542528
0.000579575
0.000609897
0.00063568
0.00065854
0.000679733
0.000700333
0.000721333
0.000743613
0.000767727
0.000792667
0.000819001
0.000846458
0.000874618
0.000903051
0.000932168
0.000962365
0.000993555
0.00102539
0.00105773
0.00109049
0.00112336
0.00115631
0.00118929
0.00122224
0.0012551
0.00128784
0.00132041
0.0013528
0.00138494
0.0014169
0.00144868
0.00148029
0.00151175
0.00154308
0.00157429
0.0016054
0.00163642
0.00166739
0.00169831
0.0017292
0.0017601
0.00179102
0.001822
0.00185306
0.00188421
0.00191547
0.00194686
0.00197838
0.00201005
0.00204187
0.00207385
0.00210599
0.00213831
0.0021708
0.00220346
0.00223629
0.0022693
0.00230247
0.00233581
0.00236931
0.00240297
0.00243678
0.00247075
0.00250486
0.00253911
0.00257351
0.00260804
0.0026427
0.0026775
0.00271243
0.00274748
0.00278266
0.00281797
0.0028534
0.00288895
0.00292461
0.00296039
0.00299627
0.00303223
0.00306828
0.00310439
0.00314054
0.00317673
0.00321293
0.00324918
0.00328553
0.00332203
0.00335868
0.00339548
0.0034324
0.00346943
0.00350653
0.00354367
0.00358078
0.00361782
0.00365471
0.00369136
0.00372768
0.00376356
0.00379887
0.00383347
0.00386723
0.00389998
0.00393155
0.00396176
0.00399042
0.0040173
0.00404329
0.00406577
0.00408531
0.00410302
0.00411892
0.00413197
0.00414216
0.00414943
0.00415376
0.00415511
0.0041535
0.00414899
0.00414164
0.00413156
0.00411886
0.00410367
0.00408615
0.00406646
0.00404476
0.00402121
0.00399597
0.0039691
0.00394065
0.00391058
0.00387904
0.00384635
0.00381282
0.0037787
0.0037442
0.00370949
0.00367473
0.00364003
0.00360552
0.00357127
0.00353737
0.0035039
0.0034709
0.00343842
0.00340649
0.00337514
0.00334437
0.00331419
0.00328459
0.00325558
0.00322714
0.00319925
0.0031719
0.00314505
0.0031187
0.00309283
0.0030674
0.0030424
0.00301781
0.00299361
0.00296979
0.00294635
0.00292327
0.00290053
0.00287809
0.00285599
0.0028342
0.00281259
0.0027909
0.0027682
0.00274091
0.00269245
2.2052e-05
0.000148507
0.000288141
0.000402724
0.000493916
0.000565216
0.000621575
0.000667122
0.000705125
0.000738095
0.000767921
0.000796017
0.000823456
0.000851056
0.00087941
0.000908851
0.000939386
0.000971067
0.0010038
0.00103742
0.00107178
0.00110686
0.00114267
0.00117912
0.00121608
0.00125346
0.00129114
0.001329
0.00136696
0.00140493
0.00144284
0.00148063
0.00151826
0.00155569
0.00159291
0.0016299
0.00166667
0.00170323
0.0017396
0.00177579
0.00181181
0.00184769
0.00188345
0.00191911
0.00195469
0.00199022
0.00202574
0.00206127
0.00209682
0.00213241
0.00216806
0.00220379
0.00223963
0.00227558
0.00231165
0.00234786
0.00238422
0.00242073
0.0024574
0.00249424
0.00253123
0.00256839
0.00260571
0.00264318
0.00268081
0.00271859
0.00275651
0.00279456
0.00283273
0.00287103
0.00290943
0.00294794
0.00298654
0.00302522
0.00306399
0.00310282
0.00314171
0.00318065
0.00321965
0.00325868
0.00329776
0.00333686
0.00337599
0.00341513
0.0034543
0.00349347
0.00353265
0.00357184
0.00361105
0.0036503
0.00368961
0.00372899
0.00376844
0.00380801
0.00384768
0.00388746
0.00392735
0.00396733
0.00400738
0.00404747
0.00408757
0.00412763
0.00416759
0.00420738
0.00424692
0.00428609
0.0043248
0.00436291
0.00440027
0.00443672
0.0044721
0.0045062
0.00453883
0.00456976
0.00459938
0.00462677
0.0046511
0.00467275
0.00469275
0.00470996
0.00472421
0.00473538
0.00474339
0.00474819
0.00474977
0.00474813
0.00474334
0.00473547
0.00472463
0.00471092
0.00469451
0.00467554
0.00465419
0.00463062
0.004605
0.00457746
0.0045481
0.00451702
0.00448435
0.00445035
0.00441527
0.00437934
0.00434279
0.00430579
0.00426851
0.0042311
0.00419368
0.00415636
0.00411923
0.00408239
0.00404589
0.0040098
0.00397417
0.00393902
0.00390439
0.0038703
0.00383675
0.00380375
0.00377129
0.00373938
0.00370799
0.00367712
0.00364676
0.00361688
0.00358748
0.00355853
0.00353004
0.00350199
0.00347437
0.0034472
0.00342048
0.0033942
0.00336837
0.00334301
0.00331811
0.00329361
0.00326926
0.0032442
0.00321533
0.0031713
2.56516e-05
0.000162367
0.000314559
0.00044162
0.000544248
0.000626187
0.000692025
0.000746043
0.00079168
0.000831631
0.000867954
0.000902187
0.000935458
0.000968578
0.0010021
0.00103635
0.00107151
0.00110762
0.00114468
0.0011826
0.0012213
0.00126071
0.00130075
0.00134132
0.00138234
0.0014237
0.00146531
0.00150706
0.00154887
0.00159066
0.00163236
0.00167392
0.00171528
0.00175643
0.00179734
0.00183801
0.00187844
0.00191863
0.0019586
0.00199836
0.00203792
0.00207732
0.00211657
0.0021557
0.00219473
0.00223368
0.00227259
0.00231148
0.00235036
0.00238927
0.00242823
0.00246724
0.00250633
0.00254553
0.00258483
0.00262425
0.0026638
0.00270349
0.00274332
0.0027833
0.00282342
0.00286368
0.00290409
0.00294463
0.0029853
0.00302609
0.00306699
0.003108
0.00314909
0.00319026
0.0032315
0.0032728
0.00331414
0.0033555
0.00339688
0.00343826
0.00347964
0.00352099
0.00356231
0.00360359
0.00364483
0.00368601
0.00372712
0.00376817
0.00380916
0.00385007
0.00389093
0.00393173
0.00397249
0.00401323
0.00405397
0.00409472
0.0041355
0.00417634
0.00421724
0.00425823
0.0042993
0.00434045
0.0043817
0.00442302
0.0044644
0.00450582
0.00454725
0.00458862
0.00462989
0.00467097
0.00471177
0.00475217
0.00479204
0.00483124
0.0048696
0.00490693
0.00494304
0.00497771
0.00501088
0.0050427
0.00507173
0.00509835
0.00512273
0.00514479
0.00516394
0.00518001
0.00519286
0.00520237
0.00520851
0.00521124
0.00521058
0.00520659
0.00519932
0.00518887
0.00517538
0.00515898
0.00513983
0.00511811
0.00509397
0.00506759
0.00503911
0.00500867
0.00497645
0.00494266
0.00490751
0.00487125
0.00483407
0.00479619
0.00475777
0.00471897
0.00467993
0.00464078
0.00460163
0.00456257
0.0045237
0.00448508
0.00444678
0.00440884
0.0043713
0.00433421
0.00429757
0.00426141
0.00422573
0.00419055
0.00415586
0.00412165
0.00408793
0.00405469
0.00402193
0.00398964
0.00395783
0.00392649
0.00389564
0.00386529
0.00383546
0.00380619
0.00377748
0.00374938
0.00372193
0.00369508
0.00366866
0.00364193
0.00361231
0.00357229
2.87421e-05
0.000173384
0.000335866
0.00047391
0.000586792
0.000678592
0.000753451
0.000815641
0.000868655
0.000915276
0.000957659
0.000997438
0.00103581
0.00107365
0.00111154
0.00114986
0.00118883
0.00122856
0.00126909
0.00131038
0.00135238
0.00139502
0.00143822
0.0014819
0.00152594
0.00157028
0.0016148
0.00165943
0.00170408
0.00174866
0.00179312
0.00183741
0.00188148
0.00192531
0.00196887
0.00201217
0.0020552
0.00209796
0.00214047
0.00218275
0.0022248
0.00226666
0.00230833
0.00234986
0.00239126
0.00243255
0.00247378
0.00251495
0.0025561
0.00259724
0.0026384
0.0026796
0.00272086
0.00276219
0.00280361
0.00284513
0.00288676
0.00292851
0.00297038
0.00301237
0.00305449
0.00309673
0.00313908
0.00318155
0.00322412
0.00326678
0.00330952
0.00335233
0.0033952
0.0034381
0.00348103
0.00352397
0.00356689
0.00360979
0.00365264
0.00369543
0.00373814
0.00378075
0.00382326
0.00386565
0.0039079
0.00395001
0.00399198
0.00403379
0.00407544
0.00411695
0.00415831
0.00419953
0.00424064
0.00428165
0.00432259
0.00436347
0.00440431
0.00444516
0.00448603
0.00452695
0.00456794
0.00460903
0.00465024
0.00469158
0.00473307
0.0047747
0.00481648
0.00485838
0.00490038
0.00494243
0.00498445
0.00502637
0.00506807
0.00510944
0.00515031
0.00519052
0.00522988
0.0052682
0.00530526
0.0053412
0.00537521
0.00540712
0.00543682
0.00546437
0.00548927
0.00551122
0.00552997
0.00554537
0.00555731
0.00556573
0.00557059
0.00557189
0.00556966
0.00556397
0.00555491
0.00554259
0.00552717
0.00550879
0.00548762
0.00546385
0.00543764
0.00540917
0.00537863
0.00534621
0.00531214
0.00527664
0.00523992
0.00520219
0.00516362
0.00512441
0.00508469
0.00504462
0.00500431
0.00496389
0.00492345
0.00488307
0.00484284
0.00480282
0.00476306
0.00472361
0.0046845
0.00464577
0.00460744
0.00456952
0.00453202
0.00449497
0.00445836
0.0044222
0.00438651
0.00435128
0.00431654
0.0042823
0.00424859
0.00421543
0.00418286
0.00415093
0.00411968
0.00408918
0.00405949
0.00403063
0.00400248
0.00397442
0.00394439
0.00390706
3.12865e-05
0.000181769
0.000352396
0.000499742
0.000621688
0.000722425
0.00080564
0.0008755
0.000935475
0.000988366
0.00103638
0.0010812
0.00112412
0.00116604
0.00120762
0.00124931
0.00129136
0.00133394
0.00137712
0.00142093
0.00146535
0.0015103
0.00155573
0.00160156
0.00164769
0.00169405
0.00174057
0.00178714
0.00183368
0.00188012
0.00192639
0.00197245
0.00201825
0.00206378
0.00210901
0.00215395
0.00219857
0.0022429
0.00228695
0.00233073
0.00237426
0.00241755
0.00246065
0.00250356
0.00254632
0.00258895
0.00263148
0.00267394
0.00271634
0.00275872
0.0028011
0.00284349
0.00288592
0.00292841
0.00297096
0.00301361
0.00305634
0.00309917
0.00314212
0.00318517
0.00322833
0.00327159
0.00331496
0.00335842
0.00340197
0.00344559
0.00348927
0.00353299
0.00357674
0.0036205
0.00366425
0.00370796
0.00375163
0.00379522
0.00383872
0.00388209
0.00392533
0.00396841
0.00401132
0.00405402
0.00409652
0.00413879
0.00418084
0.00422264
0.0042642
0.00430552
0.0043466
0.00438746
0.00442812
0.00446859
0.0045089
0.00454908
0.00458916
0.00462917
0.00466916
0.00470918
0.00474925
0.00478943
0.00482977
0.00487031
0.00491109
0.00495215
0.00499352
0.00503522
0.00507726
0.00511962
0.00516228
0.00520519
0.00524827
0.00529142
0.00533451
0.0053774
0.00541993
0.00546189
0.00550307
0.00554339
0.00558247
0.00561994
0.00565566
0.00568951
0.00572096
0.00574971
0.00577535
0.0057977
0.00581658
0.00583186
0.00584347
0.00585133
0.00585543
0.00585578
0.00585245
0.00584551
0.00583508
0.00582131
0.00580435
0.00578438
0.00576159
0.00573616
0.0057083
0.00567822
0.00564613
0.00561226
0.00557684
0.00554006
0.00550214
0.00546325
0.00542357
0.00538326
0.00534245
0.00530129
0.00525987
0.00521832
0.0051767
0.00513512
0.00509363
0.00505229
0.00501116
0.00497027
0.00492967
0.00488939
0.00484946
0.00480989
0.0047707
0.00473193
0.00469359
0.0046557
0.0046183
0.00458141
0.00454506
0.00450932
0.00447422
0.00443984
0.00440625
0.00437354
0.00434179
0.00431107
0.00428133
0.00425208
0.00422167
0.00418663
3.32812e-05
0.000187777
0.000364545
0.000519501
0.000649252
0.000757874
0.000848618
0.00092548
0.000991848
0.0010505
0.00110364
0.001153
0.00119991
0.00124535
0.00129003
0.00133442
0.00137886
0.00142352
0.00146852
0.00151402
0.00156002
0.00160644
0.00165323
0.00170031
0.00174762
0.00179511
0.00184271
0.00189041
0.00193798
0.00198537
0.00203254
0.00207945
0.00212604
0.00217231
0.00221824
0.00226382
0.00230906
0.00235396
0.00239855
0.00244283
0.00248683
0.00253058
0.00257409
0.00261741
0.00266054
0.00270354
0.00274641
0.00278919
0.00283191
0.00287459
0.00291725
0.00295992
0.00300263
0.00304538
0.0030882
0.0031311
0.00317408
0.00321717
0.00326037
0.00330367
0.00334709
0.00339062
0.00343424
0.00347797
0.00352177
0.00356565
0.00360959
0.00365356
0.00369756
0.00374155
0.00378552
0.00382944
0.00387328
0.00391702
0.00396063
0.00400408
0.00404735
0.00409042
0.00413324
0.00417581
0.0042181
0.0042601
0.00430178
0.00434314
0.00438418
0.00442488
0.00446525
0.00450531
0.00454507
0.00458454
0.00462376
0.00466276
0.00470158
0.00474027
0.00477888
0.00481747
0.0048561
0.00489484
0.00493377
0.00497296
0.00501248
0.00505242
0.00509284
0.0051338
0.00517536
0.00521755
0.0052604
0.00530388
0.00534796
0.00539259
0.00543766
0.00548306
0.00552864
0.00557422
0.00561961
0.0056646
0.0057089
0.00575229
0.0057944
0.00583517
0.00587399
0.00591029
0.00594381
0.00597404
0.00600087
0.00602409
0.00604354
0.00605909
0.00607066
0.00607822
0.00608176
0.00608134
0.00607703
0.00606896
0.00605727
0.00604214
0.00602375
0.0060023
0.005978
0.00595108
0.00592175
0.00589026
0.00585682
0.00582168
0.00578503
0.00574707
0.00570801
0.00566801
0.00562723
0.00558581
0.0055439
0.0055016
0.00545903
0.00541628
0.00537344
0.00533057
0.00528774
0.00524502
0.00520246
0.00516009
0.00511797
0.00507613
0.0050346
0.00499342
0.00495263
0.00491227
0.00487237
0.00483298
0.00479416
0.00475596
0.00471846
0.00468175
0.00464591
0.00461107
0.00457733
0.00454481
0.00451349
0.00448302
0.0044521
0.00441843
3.47476e-05
0.000191675
0.000372746
0.000533647
0.000669884
0.000785234
0.000882551
0.000965604
0.00103765
0.00110142
0.00115908
0.00121238
0.00126264
0.00131101
0.00135821
0.00140473
0.00145092
0.001497
0.0015431
0.00158954
0.00163628
0.0016833
0.00173057
0.00177802
0.00182562
0.00187332
0.00192108
0.00196889
0.00201645
0.00206389
0.00211106
0.00215788
0.00220432
0.00225035
0.00229598
0.00234121
0.00238604
0.00243049
0.00247459
0.00251836
0.00256182
0.002605
0.00264794
0.00269067
0.00273321
0.00277561
0.00281788
0.00286007
0.00290219
0.00294429
0.00298638
0.00302849
0.00307065
0.00311287
0.00315518
0.00319758
0.00324011
0.00328275
0.00332553
0.00336845
0.00341151
0.0034547
0.00349803
0.00354148
0.00358505
0.00362871
0.00367245
0.00371626
0.0037601
0.00380396
0.0038478
0.00389159
0.00393532
0.00397893
0.00402241
0.00406571
0.0041088
0.00415165
0.00419422
0.00423649
0.00427843
0.00432
0.00436119
0.00440198
0.00444236
0.00448232
0.00452185
0.00456096
0.00459967
0.00463799
0.00467596
0.0047136
0.00475097
0.00478811
0.0048251
0.00486201
0.00489891
0.00493591
0.0049731
0.00501059
0.00504849
0.00508691
0.00512597
0.00516577
0.00520643
0.00524803
0.00529065
0.00533431
0.00537904
0.0054248
0.00547155
0.00551921
0.00556766
0.00561675
0.00566628
0.00571605
0.00576577
0.00581522
0.00586401
0.00591216
0.00595881
0.00600347
0.00604558
0.00608468
0.00612034
0.00615244
0.00618072
0.00620499
0.00622507
0.00624088
0.00625235
0.00625948
0.00626232
0.00626095
0.0062555
0.00624613
0.00623303
0.0062164
0.00619646
0.00617344
0.00614758
0.00611912
0.00608831
0.00605538
0.00602057
0.00598409
0.00594614
0.00590693
0.00586663
0.0058254
0.00578339
0.00574074
0.00569757
0.00565399
0.00561011
0.00556601
0.00552178
0.00547748
0.00543319
0.00538897
0.00534487
0.00530095
0.00525726
0.00521384
0.00517075
0.00512804
0.00508577
0.00504399
0.00500279
0.00496223
0.0049224
0.00488341
0.00484537
0.00480843
0.00477271
0.00473835
0.00470541
0.00467362
0.00464198
0.00460898
3.57131e-05
0.000193735
0.000377417
0.000542616
0.000683996
0.000804761
0.000907618
0.000995912
0.00107276
0.00114089
0.00120241
0.00125898
0.00131189
0.00136236
0.00141118
0.00145895
0.00150608
0.00155289
0.00159962
0.00164641
0.00169324
0.00174013
0.00178705
0.00183396
0.00188083
0.00192765
0.0019744
0.00202109
0.0020677
0.00211415
0.00216033
0.00220611
0.00225137
0.00229613
0.00234042
0.00238423
0.00242758
0.00247051
0.00251304
0.00255522
0.00259709
0.00263867
0.00268002
0.00272116
0.00276214
0.002803
0.00284376
0.00288447
0.00292515
0.00296584
0.00300657
0.00304737
0.00308827
0.00312928
0.00317043
0.00321174
0.00325323
0.0032949
0.00333677
0.00337884
0.00342112
0.0034636
0.00350628
0.00354914
0.00359219
0.00363539
0.00367873
0.00372218
0.00376573
0.00380933
0.00385296
0.00389658
0.00394015
0.00398363
0.00402699
0.00407017