/*--------------------------------*- C++ -*----------------------------------*\
  =========                 |
  \\      /  F ield         | OpenFOAM: The Open Source CFD Toolbox
   \\    /   O peration     | Website:  https://openfoam.org
    \\  /    A nd           | Version:  8
     \\/     M anipulation  |
\*---------------------------------------------------------------------------*/
FoamFile
{
    version     2.0;
    format      ascii;
    class       volScalarField;
    location    "145";
    object      p;
}
// * * * * * * * * * * * * * * * * * * * * * * * * * * * * * * * * * * * * * //

dimensions      [0 2 -2 0 0 0 0];

internalField   nonuniform List<scalar> 
12225
(
-1.43275
-3.62073
-4.72037
-5.04067
-5.22139
-5.38977
-5.52059
-5.61471
-5.69007
-5.75584
-5.8138
-5.86597
-5.91215
-5.95345
-5.98941
-6.01311
-6.0409
-5.97067
-4.59521
-5.36381
-5.52413
-5.43148
-5.41845
-5.48567
-5.56244
-5.62718
-5.68556
-5.74142
-5.79403
-5.8423
-5.88672
-5.92695
-5.96366
-5.99092
-6.02323
-6.02705
-4.99587
-4.98146
-5.10865
-5.18665
-5.28104
-5.40061
-5.50702
-5.59091
-5.6615
-5.72534
-5.7835
-5.83591
-5.88381
-5.9271
-5.96717
-6.00045
-6.04008
-6.07149
-4.87447
-4.8177
-5.05907
-5.21703
-5.31827
-5.42386
-5.52076
-5.59987
-5.66742
-5.72905
-5.78577
-5.83746
-5.88514
-5.9289
-5.9702
-6.00788
-6.05096
-6.09681
-4.86456
-4.88883
-5.1166
-5.25778
-5.3409
-5.43235
-5.52281
-5.5996
-5.66601
-5.72684
-5.78325
-5.83512
-5.88334
-5.92829
-5.97143
-6.01302
-6.05908
-6.11121
-4.9227
-4.97139
-5.14537
-5.26888
-5.34991
-5.43714
-5.52444
-5.60006
-5.66596
-5.72637
-5.78259
-5.83467
-5.88339
-5.92939
-5.97404
-6.01828
-6.06616
-6.12004
-4.98307
-5.02709
-5.16199
-5.27793
-5.3612
-5.44475
-5.52797
-5.60177
-5.66685
-5.72668
-5.78257
-5.83473
-5.88384
-5.93067
-5.97646
-6.02237
-6.07109
-6.12449
-5.03661
-5.07409
-5.18378
-5.29171
-5.37424
-5.45329
-5.53205
-5.60375
-5.66789
-5.72706
-5.78256
-5.83472
-5.88412
-5.93157
-5.97815
-6.02494
-6.07369
-6.12553
-5.08636
-5.11937
-5.21005
-5.30765
-5.3873
-5.46215
-5.53671
-5.60612
-5.66913
-5.72753
-5.78254
-5.83456
-5.8841
-5.93191
-5.97887
-6.02589
-6.07405
-6.12385
-5.13346
-5.16261
-5.23791
-5.3248
-5.4006
-5.47167
-5.54224
-5.60912
-5.67074
-5.72822
-5.78259
-5.83429
-5.88376
-5.93162
-5.97857
-6.02529
-6.07243
-6.12008
-5.17784
-5.20325
-5.26625
-5.34312
-5.41444
-5.48184
-5.54859
-5.61275
-5.67277
-5.72916
-5.78275
-5.83394
-5.8831
-5.93071
-5.97731
-6.02335
-6.06921
-6.11472
-5.21594
-5.23822
-5.29224
-5.3608
-5.42759
-5.49161
-5.55503
-5.61664
-5.67501
-5.73026
-5.78299
-5.83353
-5.8822
-5.92935
-5.97536
-6.02054
-6.06509
-6.10875
-5.25116
-5.27081
-5.31748
-5.37863
-5.44084
-5.50152
-5.56179
-5.62087
-5.67751
-5.73153
-5.78329
-5.83306
-5.88108
-5.92758
-5.97284
-6.01702
-6.06023
-6.10217
-5.28809
-5.30523
-5.34511
-5.39893
-5.45603
-5.51294
-5.56982
-5.62607
-5.68064
-5.73313
-5.78366
-5.8324
-5.87949
-5.92507
-5.96928
-6.01222
-6.05387
-6.09402
-5.32549
-5.34023
-5.37413
-5.42108
-5.4728
-5.52562
-5.57893
-5.63213
-5.68433
-5.73498
-5.78399
-5.8314
-5.87726
-5.92162
-5.9645
-6.00594
-6.0459
-6.08419
-5.36141
-5.37401
-5.40289
-5.44376
-5.49024
-5.53888
-5.58858
-5.63865
-5.68827
-5.73681
-5.78404
-5.82983
-5.87418
-5.91702
-5.95836
-5.99811
-6.03631
-6.07274
-5.39296
-5.40383
-5.42877
-5.4647
-5.50657
-5.55132
-5.59764
-5.6447
-5.69172
-5.73805
-5.78331
-5.82731
-5.86993
-5.91108
-5.95069
-5.98871
-6.02509
-6.05977
-5.41578
-5.42545
-5.44774
-5.48025
-5.51877
-5.56051
-5.60412
-5.6487
-5.69346
-5.73775
-5.78113
-5.82334
-5.86422
-5.90366
-5.94154
-5.97785
-6.01251
-6.04553
-5.42297
-5.43216
-5.45344
-5.48468
-5.52191
-5.56236
-5.60463
-5.64785
-5.69125
-5.73418
-5.77617
-5.81698
-5.85641
-5.89439
-5.93079
-5.96562
-5.99882
-6.03045
-5.40719
-5.417
-5.43967
-5.47288
-5.51203
-5.55393
-5.59712
-5.64094
-5.68462
-5.72759
-5.76934
-5.80974
-5.84857
-5.88586
-5.92146
-5.95545
-5.98774
-6.0185
-5.38057
-5.3914
-5.41676
-5.45391
-5.49686
-5.54158
-5.58691
-5.63242
-5.67738
-5.72108
-5.76325
-5.80375
-5.84258
-5.87962
-5.91495
-5.9485
-5.98042
-6.01066
-5.34552
-5.35738
-5.38683
-5.43055
-5.47901
-5.5272
-5.57526
-5.62326
-5.67012
-5.71504
-5.75793
-5.79886
-5.83786
-5.87493
-5.91011
-5.94347
-5.97511
-6.00508
-5.3051
-5.31703
-5.35158
-5.405
-5.46072
-5.51289
-5.56402
-5.61474
-5.66355
-5.70975
-5.75351
-5.79505
-5.83438
-5.8716
-5.90676
-5.94007
-5.97154
-6.00138
-5.2615
-5.2725
-5.31437
-5.37893
-5.44129
-5.49818
-5.55404
-5.60817
-5.65873
-5.70586
-5.7503
-5.79231
-5.83189
-5.86916
-5.90431
-5.9375
-5.96887
-5.99851
-5.21467
-5.22016
-5.28291
-5.36126
-5.42338
-5.48185
-5.54323
-5.60185
-5.65466
-5.70302
-5.74834
-5.79091
-5.83076
-5.86809
-5.90319
-5.93628
-5.96754
-5.99709
-5.17145
-5.13505
-5.24468
-5.35579
-5.41822
-5.47372
-5.53617
-5.59618
-5.64968
-5.6987
-5.74471
-5.78781
-5.82797
-5.86548
-5.90067
-5.93381
-5.96507
-5.99461
-5.18557
-5.02662
-5.15566
-5.3099
-5.40018
-5.47176
-5.54094
-5.60211
-5.65519
-5.70376
-5.74934
-5.79187
-5.83145
-5.8684
-5.90304
-5.93566
-5.96649
-5.99574
-5.30831
-5.12836
-5.14267
-5.21497
-5.30352
-5.40296
-5.49389
-5.56793
-5.62991
-5.68535
-5.73593
-5.78198
-5.82407
-5.86285
-5.89879
-5.93236
-5.96402
-5.99431
-5.01563
-5.60725
-5.69621
-5.57212
-5.51796
-5.54534
-5.59256
-5.63606
-5.67789
-5.72037
-5.76213
-5.80173
-5.83898
-5.87399
-5.9068
-5.93759
-5.96654
-5.99541
-2.02739
-3.79021
-4.795
-5.09429
-5.24363
-5.38747
-5.50174
-5.58296
-5.64746
-5.70461
-5.75614
-5.80245
-5.84441
-5.88292
-5.91846
-5.95083
-5.97988
-6.0038
-7.01541
-7.0151
-7.01571
-7.01785
-7.02106
-7.02508
-7.02976
-7.03504
-7.04087
-7.04732
-7.05433
-7.06141
-7.06791
-7.07408
-7.08046
-7.08793
-7.0976
-7.10955
-7.12298
-7.13839
-7.15587
-7.17463
-7.19458
-7.21455
-7.23295
-7.25139
-7.27021
-7.29046
-7.31286
-7.33667
-7.36148
-7.38717
-7.41348
-7.44036
-7.46761
-7.49522
-7.52301
-7.551
-7.579
-7.60705
-7.63499
-7.66284
-7.69045
-7.71786
-7.7449
-7.77161
-7.79782
-7.82358
-7.84872
-7.87327
-7.89705
-7.92009
-7.94218
-7.96335
-7.98336
-8.00225
-8.01978
-8.03594
-8.05049
-8.06342
-8.07445
-8.08356
-8.09045
-8.09508
-8.09716
-8.09661
-8.09312
-8.0866
-8.07673
-8.0634
-8.04628
-8.02525
-7.99995
-7.97016
-7.93544
-7.89552
-7.84998
-7.79851
-7.74069
-7.67619
-7.60462
-7.52568
-7.43902
-7.34431
-7.24115
-7.12907
-7.00755
-6.87598
-6.73379
-6.58033
-6.41486
-6.23675
-6.04552
-5.84078
-5.62213
-5.38917
-5.1415
-4.8788
-4.6008
-4.30733
-3.9983
-3.67374
-3.33377
-2.97871
-2.60904
-2.2254
-1.82865
-1.41979
-1.00005
-0.570794
-0.133615
0.309792
0.757543
1.20772
1.65829
2.10729
2.55269
2.99251
3.42484
3.84801
4.2604
4.66048
5.04679
5.41816
5.77362
6.11255
6.43445
6.73912
7.02642
7.29649
7.54951
7.7859
8.00612
8.21075
8.40046
8.57597
8.73802
8.88779
9.02622
9.15379
9.27098
9.37849
9.47703
9.56742
9.65038
9.72667
9.79699
9.86202
9.9224
9.97873
10.0316
10.0814
10.1288
10.1743
10.2181
10.2607
10.3025
10.3439
10.385
10.4262
10.4677
10.5097
10.5524
10.596
10.6406
10.6862
10.7331
10.7812
10.8306
10.8813
10.9335
10.9871
11.0423
11.0993
11.1582
11.2197
11.2853
11.3563
11.4458
11.5453
-7.01171
-7.01237
-7.01345
-7.01509
-7.01691
-7.01893
-7.02139
-7.02446
-7.02814
-7.03236
-7.03683
-7.04118
-7.04545
-7.05048
-7.05656
-7.06425
-7.07353
-7.08334
-7.09412
-7.10561
-7.11768
-7.13143
-7.14722
-7.16437
-7.18418
-7.20685
-7.23157
-7.25691
-7.28179
-7.30684
-7.33229
-7.35825
-7.38466
-7.4115
-7.43865
-7.46609
-7.49369
-7.52143
-7.54919
-7.57695
-7.6046
-7.63214
-7.65945
-7.68653
-7.71327
-7.73967
-7.76561
-7.79109
-7.81598
-7.84028
-7.86387
-7.8867
-7.90865
-7.92966
-7.9496
-7.96841
-7.98592
-8.00207
-8.01668
-8.02968
-8.04086
-8.05013
-8.05727
-8.06217
-8.0646
-8.06443
-8.06141
-8.05539
-8.04611
-8.0334
-8.017
-7.99672
-7.97228
-7.94346
-7.90992
-7.87135
-7.82737
-7.77764
-7.72176
-7.65939
-7.59013
-7.51362
-7.42946
-7.33727
-7.2366
-7.12697
-7.00783
-6.87864
-6.73888
-6.58803
-6.42556
-6.25101
-6.0639
-5.8637
-5.64991
-5.42209
-5.17982
-4.92276
-4.65061
-4.36319
-4.06035
-3.7421
-3.4085
-3.05986
-2.69655
-2.31921
-1.92855
-1.52557
-1.11136
-0.687268
-0.254749
0.184499
0.628718
1.07596
1.52432
1.97177
2.41634
2.85602
3.28896
3.71341
4.12774
4.53034
4.91977
5.29475
5.65429
5.99767
6.32436
6.63404
6.92656
7.20194
7.46037
7.70217
7.92778
8.13771
8.33263
8.51326
8.6802
8.83408
8.9759
9.10664
9.22692
9.33745
9.43893
9.53214
9.61778
9.69662
9.76932
9.83658
9.899
9.95721
10.0117
10.0631
10.1119
10.1585
10.2033
10.2469
10.2894
10.3313
10.3728
10.4144
10.456
10.4981
10.5408
10.5843
10.6286
10.674
10.7205
10.7682
10.8172
10.8675
10.9192
10.9724
11.0272
11.0839
11.1426
11.2041
11.2702
11.3415
11.4318
11.5238
-7.00217
-7.00489
-7.00858
-7.01167
-7.01386
-7.01565
-7.01749
-7.01964
-7.02218
-7.02512
-7.02833
-7.03167
-7.03526
-7.03968
-7.04549
-7.05311
-7.06253
-7.07315
-7.08477
-7.09732
-7.11055
-7.12455
-7.13933
-7.15489
-7.17201
-7.19136
-7.21279
-7.23582
-7.25966
-7.28411
-7.30906
-7.33447
-7.36029
-7.38647
-7.41293
-7.43965
-7.46652
-7.49352
-7.52055
-7.54759
-7.57456
-7.60142
-7.62809
-7.65455
-7.68071
-7.70655
-7.73198
-7.75696
-7.78141
-7.80529
-7.82849
-7.85097
-7.87261
-7.89334
-7.91305
-7.93165
-7.94902
-7.96506
-7.97962
-7.99259
-8.00382
-8.01317
-8.02046
-8.02557
-8.02829
-8.02846
-8.02588
-8.02035
-8.01166
-7.99959
-7.98392
-7.96443
-7.94086
-7.91296
-7.88046
-7.84308
-7.80048
-7.75234
-7.69829
-7.63799
-7.57105
-7.4971
-7.41574
-7.32653
-7.22902
-7.12271
-7.00705
-6.88152
-6.74561
-6.59883
-6.44073
-6.27083
-6.08871
-5.89382
-5.68568
-5.4638
-5.22779
-4.97725
-4.71192
-4.43153
-4.13595
-3.8251
-3.49906
-3.15805
-2.8024
-2.43268
-2.04952
-1.65385
-1.24667
-0.829269
-0.402983
0.0305402
0.469654
0.912458
1.35712
1.80161
2.244
2.68229
3.11468
3.53936
3.95472
4.35907
4.75098
5.12909
5.49243
5.84014
6.17168
6.4866
6.78473
7.06599
7.33055
7.5786
7.81056
8.02691
8.22811
8.41478
8.5877
8.7476
8.89542
9.03194
9.1578
9.27361
9.38012
9.478
9.56803
9.65089
9.72731
9.79794
9.86342
9.92434
9.9813
10.0348
10.0854
10.1336
10.1797
10.2243
10.2677
10.3102
10.3522
10.3939
10.4357
10.4778
10.5204
10.5636
10.6076
10.6526
10.6986
10.7458
10.7943
10.844
10.8952
10.9479
11.0022
11.0584
11.117
11.1784
11.2447
11.3155
11.4056
11.4832
-6.98698
-6.99207
-6.99935
-7.00493
-7.00852
-7.01103
-7.01307
-7.01498
-7.01695
-7.01914
-7.02162
-7.02447
-7.02783
-7.03207
-7.03758
-7.0447
-7.05348
-7.06376
-7.07534
-7.08819
-7.10216
-7.11716
-7.13296
-7.14953
-7.16704
-7.18585
-7.20607
-7.22766
-7.25028
-7.27374
-7.29783
-7.32247
-7.34754
-7.37299
-7.39873
-7.42472
-7.45087
-7.47717
-7.50351
-7.52989
-7.55621
-7.58246
-7.60856
-7.63447
-7.66012
-7.68548
-7.71046
-7.73505
-7.75913
-7.78268
-7.80559
-7.82781
-7.84924
-7.8698
-7.88938
-7.90789
-7.92521
-7.94125
-7.95585
-7.96892
-7.98029
-7.98983
-7.99738
-8.00278
-8.00587
-8.00647
-8.00439
-7.99944
-7.9914
-7.98007
-7.96522
-7.94662
-7.92402
-7.89716
-7.86578
-7.82959
-7.78828
-7.74155
-7.68906
-7.63046
-7.5654
-7.49349
-7.41434
-7.32751
-7.23255
-7.12897
-7.01622
-6.8938
-6.76122
-6.618
-6.46367
-6.29777
-6.11981
-5.9293
-5.72573
-5.50865
-5.27762
-5.03226
-4.77225
-4.49735
-4.20736
-3.90221
-3.58193
-3.24669
-2.89683
-2.53279
-2.15524
-1.76498
-1.363
-0.95048
-0.528766
-0.0993777
0.336033
0.775685
1.21773
1.6602
2.10113
2.53859
2.97075
3.39583
3.81215
4.21799
4.6119
4.99253
5.35888
5.71005
6.04543
6.36454
6.66715
6.95314
7.22259
7.47572
7.71285
7.93438
8.14083
8.33278
8.51096
8.67608
8.82899
8.97038
9.1009
9.22116
9.33187
9.43371
9.52744
9.61372
9.6933
9.7668
9.8349
9.89817
9.95723
10.0126
10.0648
10.1143
10.1616
10.2071
10.2512
10.2943
10.3367
10.3786
10.4205
10.4625
10.5048
10.5478
10.5914
10.6359
10.6815
10.7281
10.776
10.8251
10.8756
10.9277
10.9814
11.037
11.095
11.1558
11.2214
11.29
11.3762
11.4381
-6.96999
-6.97754
-6.98872
-6.99721
-7.0027
-7.00652
-7.00943
-7.01187
-7.01414
-7.01651
-7.01916
-7.02229
-7.0261
-7.03086
-7.0368
-7.04415
-7.05297
-7.06325
-7.07487
-7.08777
-7.10184
-7.11703
-7.13319
-7.1503
-7.16832
-7.18734
-7.20738
-7.22843
-7.25036
-7.27307
-7.29641
-7.32032
-7.34466
-7.3694
-7.39444
-7.41975
-7.44525
-7.4709
-7.49662
-7.5224
-7.54815
-7.57386
-7.59945
-7.62488
-7.65009
-7.67505
-7.69967
-7.72392
-7.74771
-7.77099
-7.79368
-7.81571
-7.83698
-7.85743
-7.87693
-7.8954
-7.91272
-7.9288
-7.94348
-7.95667
-7.9682
-7.97795
-7.98575
-7.99147
-7.99492
-7.99594
-7.99433
-7.98992
-7.98249
-7.97185
-7.95777
-7.94002
-7.91836
-7.89253
-7.86226
-7.82728
-7.78728
-7.74195
-7.69097
-7.634
-7.57068
-7.50065
-7.4235
-7.33881
-7.24614
-7.145
-7.03487
-6.91526
-6.78566
-6.64562
-6.49458
-6.33211
-6.15766
-5.97078
-5.77091
-5.55765
-5.33048
-5.08907
-4.83304
-4.56212
-4.2761
-3.97487
-3.65846
-3.32698
-2.98076
-2.62018
-2.24589
-1.85862
-1.45939
-1.04927
-0.629665
-0.201968
0.232074
0.67082
1.11231
1.55469
1.99589
2.43407
2.86729
3.29384
3.71186
4.11974
4.51586
4.89905
5.26811
5.62228
5.96079
6.28323
6.58925
6.87883
7.15192
7.40875
7.64955
7.87476
8.08483
8.28037
8.462
8.63049
8.78655
8.93094
9.06425
9.18718
9.30036
9.40455
9.50041
9.58871
9.67009
9.74526
9.81481
9.87941
9.93959
9.99595
10.049
10.0992
10.147
10.193
10.2374
10.2806
10.3231
10.365
10.4068
10.4486
10.4907
10.5333
10.5765
10.6206
10.6657
10.7118
10.7591
10.8078
10.8578
10.9093
10.9624
11.0174
11.0747
11.1345
11.1986
11.2643
11.3455
11.3932
-6.95477
-6.96457
-6.97912
-6.99031
-6.9978
-7.00321
-7.0074
-7.01088
-7.01403
-7.01719
-7.02061
-7.02455
-7.02921
-7.03479
-7.04148
-7.04942
-7.05868
-7.06926
-7.0811
-7.09416
-7.10834
-7.12359
-7.13982
-7.15699
-7.17506
-7.19403
-7.21386
-7.23454
-7.25597
-7.27811
-7.30084
-7.32411
-7.34783
-7.37195
-7.39639
-7.4211
-7.44602
-7.47111
-7.4963
-7.52157
-7.54685
-7.57211
-7.59727
-7.62232
-7.64718
-7.67182
-7.69616
-7.72016
-7.74373
-7.76684
-7.78938
-7.8113
-7.83249
-7.85289
-7.87238
-7.89087
-7.90825
-7.92442
-7.93924
-7.95259
-7.96432
-7.97432
-7.98242
-7.98847
-7.9923
-7.99375
-7.99263
-7.98876
-7.98194
-7.97197
-7.95864
-7.94171
-7.92096
-7.89613
-7.86696
-7.83316
-7.79446
-7.75053
-7.70105
-7.6457
-7.5841
-7.5159
-7.4407
-7.35808
-7.26759
-7.16878
-7.06112
-6.94411
-6.81731
-6.68014
-6.53213
-6.37273
-6.20145
-6.01775
-5.82113
-5.6111
-5.3872
-5.14901
-4.89616
-4.62833
-4.34529
-4.04691
-3.73316
-3.40417
-3.06016
-2.70155
-2.32889
-1.94297
-1.54468
-1.13518
-0.715778
-0.287959
0.146632
0.586221
1.02892
1.47279
1.91583
2.35609
2.79164
3.22065
3.64127
4.05179
4.45067
4.83665
5.2086
5.56564
5.90711
6.23254
6.54156
6.83405
7.11
7.36958
7.61304
7.84077
8.05324
8.25105
8.43479
8.60523
8.76305
8.90901
9.04375
9.16797
9.28233
9.38758
9.48439
9.57352
9.65561
9.73138
9.80142
9.8664
9.92687
9.98342
10.0365
10.0868
10.1346
10.1804
10.2246
10.2676
10.3098
10.3514
10.3928
10.4343
10.4759
10.5181
10.5609
10.6046
10.6492
10.6949
10.7418
10.7899
10.8394
10.8904
10.943
10.9974
11.0538
11.1126
11.1748
11.2374
11.314
11.3492
-6.94396
-6.95554
-6.97253
-6.98586
-6.99515
-7.00213
-7.00771
-7.01241
-7.01667
-7.02087
-7.0253
-7.03021
-7.0358
-7.04227
-7.04972
-7.0583
-7.06803
-7.07897
-7.09106
-7.1043
-7.11859
-7.1339
-7.15016
-7.16732
-7.18534
-7.20419
-7.22382
-7.2442
-7.26526
-7.28696
-7.30922
-7.332
-7.35521
-7.37882
-7.40276
-7.42698
-7.45142
-7.47606
-7.50082
-7.52569
-7.55059
-7.5755
-7.60035
-7.62512
-7.64972
-7.67414
-7.69829
-7.72214
-7.74559
-7.7686
-7.79108
-7.81297
-7.83416
-7.85459
-7.87414
-7.89273
-7.91023
-7.92654
-7.94153
-7.9551
-7.96708
-7.97736
-7.98578
-7.99218
-7.99642
-7.99831
-7.99769
-7.99437
-7.98816
-7.97886
-7.96626
-7.95014
-7.93027
-7.9064
-7.87828
-7.84563
-7.80817
-7.76559
-7.71758
-7.66378
-7.60386
-7.53744
-7.46412
-7.38349
-7.2951
-7.19849
-7.09315
-6.97861
-6.85434
-6.71986
-6.57459
-6.41798
-6.24955
-6.06868
-5.87493
-5.6677
-5.4466
-5.2111
-4.96085
-4.69547
-4.41471
-4.11841
-3.80649
-3.47907
-3.1363
-2.77862
-2.40648
-2.02072
-1.62215
-1.212
-0.791474
-0.3622
0.0742706
0.515995
0.961153
1.40767
1.85364
2.29695
2.73572
3.16791
3.59176
4.00539
4.40742
4.79644
5.17148
5.53151
5.87591
6.20406
6.5157
6.81061
7.08883
7.35045
7.5958
7.82522
8.03923
8.23837
8.42332
8.59473
8.7534
8.9
9.03528
9.15988
9.27457
9.38
9.47696
9.5661
9.64817
9.72378
9.79366
9.85835
9.91852
9.97466
10.0274
10.0771
10.1244
10.1697
10.2134
10.2558
10.2974
10.3385
10.3793
10.4202
10.4613
10.503
10.5453
10.5884
10.6325
10.6777
10.7241
10.7718
10.8208
10.8712
10.9233
10.9769
11.0325
11.09
11.1503
11.2098
11.2822
11.3068
-6.93904
-6.95171
-6.97012
-6.98489
-6.99557
-7.00388
-7.01071
-7.01659
-7.02195
-7.02719
-7.03262
-7.03848
-7.04495
-7.05222
-7.06038
-7.06955
-7.07974
-7.09102
-7.10334
-7.11672
-7.1311
-7.14644
-7.16268
-7.1798
-7.19772
-7.21643
-7.23586
-7.256
-7.27677
-7.29814
-7.32003
-7.34244
-7.36526
-7.38848
-7.41203
-7.43589
-7.45997
-7.48428
-7.50873
-7.53331
-7.55795
-7.58263
-7.60728
-7.63187
-7.65634
-7.68065
-7.70472
-7.72851
-7.75194
-7.77495
-7.79746
-7.8194
-7.84067
-7.8612
-7.88087
-7.89961
-7.91728
-7.93379
-7.94901
-7.96282
-7.97508
-7.98566
-7.99442
-8.0012
-8.00584
-8.00819
-8.00806
-8.00529
-7.99968
-7.99103
-7.97915
-7.96382
-7.9448
-7.92187
-7.89477
-7.86323
-7.82697
-7.78569
-7.73907
-7.68678
-7.62847
-7.56375
-7.49224
-7.41352
-7.32714
-7.23263
-7.12949
-7.01723
-6.89536
-6.7633
-6.62053
-6.46649
-6.30058
-6.12228
-5.931
-5.72624
-5.50748
-5.27424
-5.02607
-4.76259
-4.48352
-4.18865
-3.8779
-3.55128
-3.20899
-2.85135
-2.47889
-2.09231
-1.69253
-1.28067
-0.858069
-0.426255
0.0130458
0.457941
0.906449
1.35655
1.80621
2.25333
2.69588
3.13182
3.55929
3.97652
4.38202
4.77441
5.15258
5.51555
5.86263
6.19323
6.50706
6.8039
7.0838
7.34687
7.59343
7.82385
8.03866
8.23841
8.4238
8.5955
8.75428
8.90084
9.03596
9.1603
9.27464
9.37966
9.47613
9.56473
9.64621
9.72119
9.79039
9.85436
9.91378
9.96915
10.0211
10.07
10.1165
10.161
10.2039
10.2455
10.2864
10.3267
10.3668
10.407
10.4475
10.4885
10.5302
10.5728
10.6163
10.661
10.7069
10.7541
10.8026
10.8525
10.9039
10.9568
11.0114
11.0675
11.1258
11.1823
11.2509
11.2666
-6.94034
-6.95341
-6.97225
-6.9877
-6.99927
-7.00854
-7.01634
-7.02318
-7.02948
-7.03562
-7.0419
-7.04857
-7.05579
-7.06372
-7.07246
-7.08211
-7.09268
-7.10424
-7.11676
-7.13026
-7.14468
-7.16002
-7.17622
-7.19326
-7.21107
-7.22964
-7.2489
-7.26883
-7.28937
-7.31049
-7.33212
-7.35425
-7.37679
-7.39975
-7.42303
-7.44663
-7.47049
-7.49458
-7.51884
-7.54326
-7.56776
-7.59233
-7.61689
-7.64143
-7.66587
-7.69017
-7.71426
-7.7381
-7.76159
-7.78469
-7.80731
-7.82938
-7.85079
-7.87148
-7.89133
-7.91026
-7.92814
-7.94488
-7.96035
-7.97443
-7.98698
-7.99788
-8.00697
-8.01412
-8.01917
-8.02196
-8.02231
-8.02006
-8.01503
-8.00701
-7.99582
-7.98124
-7.96305
-7.94102
-7.9149
-7.88442
-7.84931
-7.80928
-7.76401
-7.71316
-7.65639
-7.59331
-7.52354
-7.44665
-7.36218
-7.26968
-7.16863
-7.05854
-6.93886
-6.80912
-6.66862
-6.51691
-6.35329
-6.17727
-5.98818
-5.78556
-5.56878
-5.33739
-5.09087
-4.82883
-4.55094
-4.25695
-3.94676
-3.62032
-3.27783
-2.91951
-2.54597
-2.15778
-1.75598
-1.34157
-0.916044
-0.48085
-0.037905
0.410952
0.863581
1.31801
1.77202
2.22358
2.67046
3.11073
3.54225
3.96343
4.37254
4.76835
5.14955
5.5153
5.86474
6.19744
6.51298
6.81126
7.09226
7.35619
7.60331
7.83409
8.04901
8.24874
8.43388
8.60523
8.76345
8.90938
9.0437
9.16723
9.28063
9.38472
9.48017
9.56778
9.64818
9.72212
9.7902
9.85311
9.9114
9.96571
10.0165
10.0644
10.1099
10.1533
10.1952
10.2359
10.2758
10.3153
10.3546
10.394
10.4338
10.4742
10.5153
10.5573
10.6003
10.6445
10.6899
10.7366
10.7846
10.834
10.8847
10.9369
10.9904
11.0451
11.1014
11.155
11.2201
11.2284
-6.94737
-6.96024
-6.97866
-6.99409
-7.00601
-7.0158
-7.02423
-7.03173
-7.03871
-7.04554
-7.05246
-7.05974
-7.06751
-7.07594
-7.08511
-7.0951
-7.10595
-7.1177
-7.13035
-7.14392
-7.15836
-7.17367
-7.18981
-7.20676
-7.22446
-7.2429
-7.26201
-7.28179
-7.30216
-7.32311
-7.34457
-7.36652
-7.38889
-7.41168
-7.43481
-7.45828
-7.48202
-7.50602
-7.53021
-7.55458
-7.57906
-7.60364
-7.62823
-7.65282
-7.67733
-7.70173
-7.72593
-7.7499
-7.77353
-7.7968
-7.81958
-7.84183
-7.86344
-7.88433
-7.90439
-7.92354
-7.94165
-7.95863
-7.97435
-7.98869
-8.00152
-8.01271
-8.02213
-8.02962
-8.03504
-8.03823
-8.03902
-8.03725
-8.03274
-8.02531
-8.01475
-8.00087
-7.98345
-7.96227
-7.93706
-7.90759
-7.87358
-7.83473
-7.79074
-7.74127
-7.68597
-7.62446
-7.55635
-7.4812
-7.39857
-7.30798
-7.20891
-7.10085
-6.98331
-6.85563
-6.71732
-6.5677
-6.4062
-6.23218
-6.04507
-5.84426
-5.62918
-5.39928
-5.15404
-4.89304
-4.61588
-4.32233
-4.01217
-3.68539
-3.34208
-2.98254
-2.60722
-2.21683
-1.81228
-1.3947
-0.96549
-0.526285
-0.0789468
0.374514
0.832012
1.29141
1.75049
2.20703
2.6588
3.10366
3.53958
3.96479
4.37762
4.77672
5.16083
5.52904
5.88057
6.21493
6.53175
6.83094
7.11252
7.3767
7.6238
7.85431
8.06876
8.26781
8.45212
8.62248
8.7796
8.92431
9.05734
9.1795
9.29151
9.39417
9.48818
9.57434
9.65329
9.72579
9.79244
9.85394
9.91085
9.9638
10.0133
10.0599
10.1041
10.1464
10.1871
10.2268
10.2657
10.3042
10.3426
10.3812
10.4203
10.4599
10.5004
10.5419
10.5844
10.6281
10.6731
10.7193
10.7668
10.8156
10.8658
10.9171
10.9696
11.0229
11.0772
11.128
11.19
11.192
-6.95918
-6.97135
-6.98867
-7.00347
-7.01523
-7.02513
-7.0338
-7.04165
-7.04903
-7.05627
-7.06361
-7.07127
-7.07941
-7.08815
-7.09758
-7.10778
-7.11879
-7.13065
-7.14336
-7.15693
-7.17135
-7.18661
-7.20267
-7.21952
-7.23712
-7.25545
-7.27445
-7.29412
-7.31438
-7.33524
-7.35661
-7.37848
-7.40078
-7.42351
-7.4466
-7.47004
-7.49378
-7.5178
-7.54203
-7.56647
-7.59103
-7.61572
-7.64044
-7.66517
-7.68984
-7.71442
-7.73881
-7.76297
-7.78681
-7.81028
-7.83327
-7.85573
-7.87755
-7.89866
-7.91894
-7.9383
-7.95663
-7.97382
-7.98976
-8.00433
-8.0174
-8.02884
-8.03851
-8.04629
-8.05201
-8.05553
-8.05669
-8.05533
-8.05127
-8.04434
-8.03434
-8.02109
-8.00436
-7.98393
-7.95957
-7.93103
-7.89803
-7.86029
-7.81749
-7.76932
-7.71541
-7.65539
-7.58886
-7.51537
-7.43448
-7.3457
-7.2485
-7.14239
-7.02677
-6.90111
-6.76475
-6.61706
-6.45747
-6.28525
-6.09987
-5.90062
-5.68695
-5.45823
-5.21395
-4.95363
-4.67684
-4.38331
-4.07277
-3.7452
-3.40062
-3.03936
-2.66178
-2.26866
-1.8608
-1.4395
-1.00604
-0.562237
-0.109895
0.348797
0.811778
1.27669
1.74134
2.20325
2.66025
3.10993
3.55041
3.97963
4.39613
4.79831
5.18511
5.55544
5.90869
6.24424
6.56189
6.86145
7.14307
7.40693
7.65345
7.88309
8.09649
8.29427
8.47721
8.646
8.80151
8.94446
9.07573
9.19603
9.30623
9.40701
9.49922
9.58353
9.66072
9.73142
9.79638
9.85616
9.91145
9.96279
10.0108
10.0559
10.0987
10.1397
10.1792
10.2176
10.2555
10.293
10.3305
10.3682
10.4065
10.4455
10.4854
10.5263
10.5683
10.6116
10.6561
10.7019
10.749
10.7973
10.8468
10.8974
10.9488
11.0007
11.0531
11.1013
11.1603
11.1573
-6.97456
-6.98566
-7.00136
-7.01505
-7.02622
-7.03582
-7.04438
-7.05226
-7.05974
-7.06714
-7.07466
-7.08251
-7.0908
-7.09968
-7.10922
-7.1195
-7.13055
-7.14241
-7.1551
-7.16863
-7.18298
-7.19817
-7.21414
-7.23091
-7.24842
-7.26667
-7.28561
-7.30522
-7.32543
-7.34626
-7.36761
-7.38948
-7.4118
-7.43457
-7.45772
-7.48125
-7.50508
-7.52922
-7.55359
-7.57818
-7.60292
-7.6278
-7.65272
-7.67768
-7.70257
-7.72737
-7.75199
-7.77638
-7.80044
-7.82413
-7.84734
-7.87001
-7.89202
-7.91331
-7.93377
-7.9533
-7.97178
-7.98914
-8.00522
-8.01995
-8.03316
-8.04477
-8.05461
-8.06257
-8.0685
-8.07225
-8.07367
-8.07261
-8.0689
-8.06236
-8.05282
-8.04007
-8.02393
-8.00417
-7.98055
-7.95283
-7.92075
-7.88402
-7.84233
-7.79536
-7.74275
-7.68412
-7.61905
-7.54712
-7.46786
-7.38077
-7.28534
-7.18101
-7.06724
-6.94336
-6.8088
-6.6629
-6.50498
-6.3344
-6.15047
-5.95257
-5.74004
-5.51226
-5.26866
-5.00872
-4.73202
-4.43818
-4.12698
-3.7983
-3.45218
-3.08882
-2.70866
-2.31235
-1.90082
-1.47525
-1.03711
-0.588155
-0.130363
0.334117
0.803015
1.27394
1.74446
2.2121
2.67444
3.12915
3.57411
4.00735
4.42725
4.83231
5.2214
5.59352
5.94801
6.28432
6.60224
6.90167
7.18275
7.44574
7.69109
7.91932
8.13109
8.32709
8.50809
8.67485
8.82823
8.969
9.09804
9.21612
9.32408
9.42267
9.51271
9.59489
9.66999
9.73868
9.80165
9.85953
9.91298
9.96256
10.0089
10.0524
10.0937
10.1332
10.1714
10.2086
10.2453
10.2817
10.3183
10.3552
10.3927
10.431
10.4703
10.5107
10.5522
10.595
10.6392
10.6845
10.7312
10.779
10.8279
10.8777
10.9282
10.9786
11.0292
11.0751
11.1314
11.1243
-6.99223
-7.00202
-7.01576
-7.02798
-7.0382
-7.04717
-7.0553
-7.0629
-7.07023
-7.07752
-7.08499
-7.09279
-7.10106
-7.10991
-7.1194
-7.12963
-7.14061
-7.1524
-7.165
-7.17845
-7.19272
-7.20782
-7.22372
-7.24042
-7.25788
-7.27609
-7.29499
-7.31458
-7.3348
-7.35563
-7.37702
-7.39896
-7.42138
-7.44427
-7.46757
-7.49126
-7.51527
-7.5396
-7.56417
-7.58899
-7.61397
-7.63908
-7.66426
-7.68946
-7.71459
-7.73963
-7.76448
-7.78908
-7.81335
-7.83722
-7.86059
-7.8834
-7.90554
-7.92693
-7.94747
-7.96707
-7.98562
-8.00301
-8.01913
-8.03387
-8.04712
-8.05875
-8.06862
-8.07663
-8.08262
-8.08647
-8.08802
-8.08712
-8.08361
-8.07734
-8.06812
-8.05576
-8.04008
-8.02085
-7.99786
-7.97086
-7.93958
-7.90374
-7.86305
-7.81717
-7.76574
-7.70838
-7.64468
-7.57419
-7.49645
-7.41094
-7.31714
-7.21448
-7.10235
-6.98021
-6.8473
-6.70304
-6.54668
-6.37758
-6.195
-5.99829
-5.78674
-5.55974
-5.31666
-5.05695
-4.78014
-4.48581
-4.17373
-3.84368
-3.49575
-3.12999
-2.74692
-2.34705
-1.93143
-1.50113
-1.05783
-0.603258
-0.139571
0.33111
0.806263
1.2835
1.7601
2.23364
2.70139
3.16112
3.61042
4.0475
4.47046
4.87805
5.26896
5.64241
5.99758
6.33413
6.65174
6.95047
7.23041
7.49196
7.73555
7.96182
8.1714
8.3651
8.54364
8.70791
8.85867
8.99687
9.12326
9.23877
9.34415
9.44026
9.52781
9.60763
9.68039
9.74685
9.80764
9.86346
9.91489
9.96259
10.0071
10.0489
10.0886
10.1266
10.1634
10.1993
10.2348
10.2702
10.3058
10.3419
10.3786
10.4163
10.455
10.4948
10.536
10.5784
10.6221
10.6672
10.7134
10.7608
10.8092
10.8582
10.9077
10.9568
11.0057
11.0494
11.103
11.0928
-7.01103
-7.01936
-7.03095
-7.04145
-7.05045
-7.0585
-7.06593
-7.07298
-7.07987
-7.08683
-7.094
-7.10157
-7.10962
-7.11827
-7.1276
-7.13766
-7.1485
-7.16015
-7.17263
-7.18595
-7.20011
-7.21512
-7.23094
-7.24758
-7.26499
-7.28317
-7.30207
-7.32167
-7.34193
-7.36282
-7.38431
-7.40638
-7.42895
-7.45202
-7.47551
-7.49941
-7.52364
-7.5482
-7.57301
-7.59806
-7.62328
-7.64864
-7.67404
-7.69946
-7.7248
-7.75002
-7.77502
-7.79976
-7.82413
-7.84808
-7.87149
-7.89432
-7.91645
-7.9378
-7.95827
-7.97778
-7.99621
-8.01348
-8.02946
-8.04406
-8.05715
-8.06863
-8.07837
-8.08625
-8.09214
-8.09591
-8.09743
-8.09654
-8.09309
-8.08694
-8.0779
-8.0658
-8.05046
-8.03165
-8.00917
-7.98277
-7.9522
-7.91717
-7.87738
-7.8325
-7.78218
-7.72602
-7.66361
-7.59451
-7.51822
-7.43424
-7.34201
-7.24096
-7.13051
-7.00993
-6.87867
-6.73595
-6.5811
-6.41336
-6.23204
-6.0364
-5.82574
-5.59938
-5.35666
-5.09701
-4.81988
-4.52484
-4.21158
-3.87992
-3.5298
-3.16136
-2.77496
-2.37122
-1.95105
-1.51571
-1.06684
-0.606362
-0.136418
0.340664
0.822336
1.30596
1.78878
2.26811
2.74124
3.20572
3.65919
4.09967
4.52537
4.93492
5.32715
5.70127
6.05657
6.39269
6.70939
7.00676
7.28498
7.54447
7.78573
8.00946
8.21635
8.40722
8.58286
8.74416
8.89196
9.02716
9.15062
9.26322
9.36577
9.45911
9.544
9.62123
9.69149
9.75555
9.81404
9.86765
9.91699
9.96268
10.0053
10.0454
10.0834
10.1199
10.1552
10.1899
10.2242
10.2585
10.2932
10.3284
10.3644
10.4015
10.4396
10.479
10.5198
10.5618
10.6053
10.65
10.6959
10.7429
10.7907
10.839
10.8875
10.9354
10.9827
11.0244
11.0755
11.0629
-7.02992
-7.03673
-7.04613
-7.05479
-7.06236
-7.06926
-7.07573
-7.08197
-7.08818
-7.09454
-7.10122
-7.10834
-7.11601
-7.12434
-7.13336
-7.14317
-7.15376
-7.16521
-7.17749
-7.19065
-7.20467
-7.21955
-7.23527
-7.25184
-7.2692
-7.28736
-7.30625
-7.32589
-7.34621
-7.36721
-7.38882
-7.41103
-7.43377
-7.45702
-7.48071
-7.50481
-7.52925
-7.55402
-7.57903
-7.60426
-7.62965
-7.65515
-7.68068
-7.7062
-7.73161
-7.75687
-7.78188
-7.80659
-7.83088
-7.85472
-7.87799
-7.90063
-7.92254
-7.94364
-7.96383
-7.98304
-8.00115
-8.01807
-8.03371
-8.04795
-8.0607
-8.07183
-8.08124
-8.08882
-8.09444
-8.09797
-8.09929
-8.09826
-8.09474
-8.08857
-8.0796
-8.06764
-8.05254
-8.03406
-8.01201
-7.98614
-7.9562
-7.92192
-7.88298
-7.83907
-7.78981
-7.73483
-7.67369
-7.60595
-7.5311
-7.44862
-7.35794
-7.25846
-7.14955
-7.03056
-6.9008
-6.75952
-6.60604
-6.43955
-6.25934
-6.06461
-5.85467
-5.62878
-5.38625
-5.12645
-4.84878
-4.55282
-4.23815
-3.90463
-3.55208
-3.18069
-2.79069
-2.38282
-1.95788
-1.5173
-1.06269
-0.596179
-0.11988
0.363628
0.851806
1.34169
1.83057
2.31538
2.79354
3.26229
3.71946
4.16279
4.5907
5.00158
5.39451
5.76857
6.12331
6.45827
6.77342
7.06877
7.34466
7.60148
7.83991
8.06056
8.2643
8.45188
8.62424
8.78219
8.92671
9.05861
9.17889
9.28835
9.3879
9.47829
9.56038
9.63488
9.70257
9.76411
9.82024
9.87157
9.91879
9.96244
10.0032
10.0414
10.0778
10.1128
10.1467
10.1801
10.2133
10.2466
10.2804
10.3148
10.3501
10.3866
10.4242
10.4632
10.5036
10.5454
10.5886
10.633
10.6786
10.7252
10.7725
10.8202
10.8679
10.9145
10.9603
11.0002
11.0489
11.0346
-7.04883
-7.05417
-7.06144
-7.06818
-7.07415
-7.07964
-7.08484
-7.08997
-7.09518
-7.10068
-7.10657
-7.11301
-7.12007
-7.12785
-7.1364
-7.14577
-7.15599
-7.1671
-7.17909
-7.19199
-7.20577
-7.22046
-7.23601
-7.25245
-7.2697
-7.28779
-7.30664
-7.32626
-7.34659
-7.36762
-7.38928
-7.41155
-7.43436
-7.45769
-7.48145
-7.50565
-7.53018
-7.55503
-7.58011
-7.60539
-7.63077
-7.65625
-7.6817
-7.70711
-7.73235
-7.7574
-7.78215
-7.80655
-7.83051
-7.85396
-7.87681
-7.899
-7.92042
-7.94102
-7.96067
-7.97933
-7.99686
-8.01322
-8.02827
-8.04196
-8.05414
-8.06474
-8.07364
-8.08075
-8.08593
-8.08909
-8.09008
-8.08879
-8.08508
-8.07881
-8.06981
-8.05795
-8.043
-8.02481
-8.00314
-7.97777
-7.94846
-7.91488
-7.8768
-7.83382
-7.78564
-7.73181
-7.67194
-7.60552
-7.53209
-7.45104
-7.36185
-7.26389
-7.15647
-7.03893
-6.91055
-6.77064
-6.61838
-6.45303
-6.27376
-6.07981
-5.87042
-5.64484
-5.40234
-5.14222
-4.86389
-4.56683
-4.25068
-3.91512
-3.56004
-3.1855
-2.79184
-2.37966
-1.94995
-1.50405
-1.04377
-0.571237
-0.0887753
0.401023
0.895352
1.39122
1.88559
2.3754
2.85786
3.33031
3.79041
4.23599
4.66531
5.07691
5.46978
5.8431
6.19645
6.52954
6.8424
7.13511
7.40803
7.66167
7.89669
8.11385
8.31398
8.49795
8.66666
8.82102
8.96196
9.09041
9.20731
9.31351
9.40991
9.49731
9.57651
9.64825
9.7133
9.77234
9.82608
9.87516
9.92023
9.96188
10.0007
10.0372
10.072
10.1055
10.1381
10.1702
10.2023
10.2346
10.2675
10.3012
10.3359
10.3718
10.4091
10.4477
10.4878
10.5293