/*--------------------------------*- C++ -*----------------------------------*\
  =========                 |
  \\      /  F ield         | OpenFOAM: The Open Source CFD Toolbox
   \\    /   O peration     | Website:  https://openfoam.org
    \\  /    A nd           | Version:  8
     \\/     M anipulation  |
\*---------------------------------------------------------------------------*/
FoamFile
{
    version     2.0;
    format      ascii;
    class       surfaceScalarField;
    location    "145";
    object      phi;
}
// * * * * * * * * * * * * * * * * * * * * * * * * * * * * * * * * * * * * * //

dimensions      [0 3 -1 0 0 0 0];

internalField   nonuniform List<scalar> 
24170
(
3.12889e-06
5.95177e-08
3.04662e-06
8.2264e-08
2.97351e-06
7.31105e-08
2.90484e-06
6.86679e-08
2.84047e-06
6.43608e-08
2.78309e-06
5.73752e-08
2.73372e-06
4.93717e-08
2.6917e-06
4.20139e-08
2.65594e-06
3.57537e-08
2.62539e-06
3.05519e-08
2.59904e-06
2.63396e-08
2.57605e-06
2.29855e-08
2.55573e-06
2.03208e-08
2.53743e-06
1.8299e-08
2.5207e-06
1.67206e-08
2.50423e-06
1.64683e-08
2.48808e-06
1.61484e-08
2.55009e-08
2.46258e-06
3.45314e-06
2.36271e-08
3.45702e-06
7.83821e-08
3.45054e-06
7.95884e-08
3.43907e-06
8.0131e-08
3.42427e-06
7.91556e-08
3.407e-06
7.46361e-08
3.38774e-06
6.86247e-08
3.36717e-06
6.25797e-08
3.34597e-06
5.69519e-08
3.32472e-06
5.17975e-08
3.3039e-06
4.71542e-08
3.28378e-06
4.31009e-08
3.26455e-06
3.95489e-08
3.24622e-06
3.66219e-08
3.22889e-06
3.40419e-08
3.21239e-06
3.29677e-08
3.19718e-06
3.13579e-08
3.63771e-08
3.1863e-06
3.66826e-06
1.78861e-08
3.67918e-06
6.746e-08
3.6854e-06
7.3364e-08
3.68943e-06
7.61033e-08
3.69101e-06
7.75755e-08
3.69001e-06
7.56249e-08
3.68685e-06
7.17917e-08
3.68196e-06
6.74607e-08
3.67576e-06
6.31564e-08
3.66855e-06
5.90043e-08
3.66061e-06
5.50898e-08
3.65218e-06
5.15237e-08
3.64344e-06
4.82878e-08
3.63454e-06
4.55251e-08
3.62549e-06
4.3089e-08
3.61671e-06
4.17414e-08
3.60761e-06
4.04567e-08
4.20564e-08
3.60193e-06
3.92587e-06
1.74042e-08
3.93591e-06
5.74182e-08
3.94255e-06
6.67232e-08
3.94807e-06
7.05758e-08
3.95246e-06
7.31796e-08
3.95538e-06
7.27018e-08
3.95702e-06
7.01529e-08
3.95761e-06
6.6868e-08
3.95734e-06
6.34211e-08
3.95635e-06
5.9984e-08
3.95479e-06
5.66536e-08
3.95275e-06
5.35549e-08
3.95033e-06
5.07049e-08
3.94762e-06
4.82268e-08
3.94464e-06
4.60662e-08
3.94174e-06
4.46451e-08
3.93868e-06
4.35093e-08
4.34867e-08
3.93725e-06
4.20819e-06
1.63401e-08
4.21597e-06
4.96339e-08
4.22166e-06
6.10364e-08
4.22674e-06
6.54899e-08
4.23147e-06
6.84545e-08
4.23541e-06
6.87599e-08
4.23854e-06
6.70213e-08
4.24097e-06
6.4437e-08
4.2428e-06
6.15859e-08
4.24413e-06
5.86597e-08
4.24502e-06
5.5763e-08
4.24555e-06
5.30191e-08
4.24578e-06
5.04709e-08
4.24579e-06
4.82146e-08
4.24562e-06
4.62432e-08
4.24549e-06
4.47673e-08
4.24544e-06
4.35631e-08
4.27583e-08
4.24617e-06
4.51069e-06
1.47415e-08
4.51687e-06
4.34439e-08
4.52211e-06
5.57981e-08
4.5269e-06
6.06916e-08
4.53159e-06
6.37647e-08
4.53581e-06
6.45404e-08
4.53944e-06
6.33838e-08
4.54255e-06
6.13208e-08
4.54522e-06
5.89183e-08
4.54749e-06
5.63808e-08
4.54943e-06
5.38231e-08
4.55109e-06
5.13595e-08
4.55251e-06
4.90492e-08
4.55376e-06
4.6963e-08
4.55488e-06
4.51125e-08
4.55606e-06
4.35848e-08
4.55738e-06
4.22471e-08
4.10033e-08
4.55913e-06
4.8343e-06
1.31569e-08
4.83962e-06
3.81303e-08
4.84473e-06
5.06865e-08
4.84941e-06
5.60086e-08
4.85402e-06
5.91575e-08
4.8583e-06
6.02552e-08
4.86213e-06
5.95507e-08
4.86555e-06
5.79031e-08
4.86861e-06
5.58596e-08
4.87135e-06
5.36359e-08
4.87382e-06
5.13545e-08
4.87606e-06
4.91211e-08
4.8781e-06
4.70017e-08
4.88002e-06
4.50484e-08
4.88185e-06
4.32747e-08
4.88373e-06
4.17023e-08
4.88574e-06
4.02357e-08
3.87373e-08
4.88801e-06
5.18103e-06
1.17095e-08
5.18574e-06
3.34146e-08
5.19073e-06
4.56961e-08
5.19536e-06
5.13757e-08
5.19992e-06
5.45961e-08
5.20424e-06
5.59268e-08
5.2082e-06
5.5592e-08
5.2118e-06
5.42975e-08
5.2151e-06
5.25596e-08
5.21813e-06
5.06047e-08
5.22092e-06
4.85593e-08
5.22352e-06
4.65229e-08
5.22595e-06
4.45618e-08
5.22828e-06
4.27164e-08
5.23056e-06
4.09961e-08
5.23287e-06
3.9392e-08
5.23527e-06
3.78298e-08
3.61905e-08
5.23782e-06
5.55268e-06
1.03664e-08
5.55687e-06
2.92191e-08
5.56167e-06
4.09026e-08
5.56626e-06
4.67869e-08
5.57079e-06
5.00578e-08
5.57516e-06
5.1554e-08
5.57923e-06
5.15255e-08
5.58299e-06
5.05417e-08
5.58647e-06
4.90758e-08
5.58971e-06
4.73609e-08
5.59274e-06
4.55255e-08
5.5956e-06
4.3664e-08
5.59832e-06
4.18405e-08
5.60095e-06
4.00883e-08
5.60353e-06
3.84131e-08
5.60613e-06
3.67961e-08
5.60878e-06
3.51782e-08
3.34791e-08
5.61149e-06
5.95103e-06
9.11111e-09
5.95477e-06
2.54758e-08
5.95933e-06
3.63411e-08
5.96387e-06
4.22488e-08
5.96839e-06
4.5534e-08
5.9728e-06
4.71383e-08
5.97696e-06
4.73566e-08
5.98086e-06
4.66454e-08
5.98451e-06
4.5425e-08
5.98794e-06
4.39289e-08
5.99117e-06
4.22858e-08
5.99425e-06
4.05855e-08
5.9972e-06
3.88884e-08
6.00006e-06
3.72245e-08
6.00287e-06
3.55982e-08
6.00568e-06
3.39912e-08
6.00849e-06
3.23604e-08
3.06573e-08
6.01131e-06
6.37798e-06
7.94489e-09
6.38133e-06
2.21213e-08
6.38565e-06
3.20256e-08
6.39011e-06
3.77813e-08
6.39461e-06
4.10331e-08
6.39905e-06
4.26944e-08
6.40331e-06
4.30996e-08
6.40733e-06
4.26205e-08
6.41113e-06
4.16202e-08
6.41474e-06
4.0324e-08
6.41816e-06
3.88593e-08
6.42143e-06
3.73107e-08
6.42459e-06
3.57349e-08
6.42765e-06
3.41611e-08
6.43065e-06
3.25945e-08
6.43362e-06
3.10228e-08
6.43656e-06
2.94163e-08
2.77561e-08
6.43946e-06
5.74176e-06
7.02219e-09
5.74433e-06
1.95442e-08
5.74779e-06
2.85655e-08
5.7515e-06
3.40667e-08
5.75528e-06
3.72477e-08
5.75905e-06
3.89228e-08
5.76271e-06
3.94404e-08
5.7662e-06
3.91244e-08
5.76953e-06
3.82904e-08
5.7727e-06
3.715e-08
5.77574e-06
3.58264e-08
5.77864e-06
3.44015e-08
5.78145e-06
3.29284e-08
5.78417e-06
3.14353e-08
5.78684e-06
2.99313e-08
5.78945e-06
2.84087e-08
5.79202e-06
2.68502e-08
2.52517e-08
5.79452e-06
6.99914e-06
6.04148e-09
7.00186e-06
1.68183e-08
7.00561e-06
2.48114e-08
7.00976e-06
2.99137e-08
7.01406e-06
3.29448e-08
7.0184e-06
3.45885e-08
7.02264e-06
3.51884e-08
7.02675e-06
3.50213e-08
7.03068e-06
3.4353e-08
7.03445e-06
3.33744e-08
7.03808e-06
3.22042e-08
7.04156e-06
3.09164e-08
7.04492e-06
2.95625e-08
7.04819e-06
2.81708e-08
7.05137e-06
2.67525e-08
7.05447e-06
2.53088e-08
7.05749e-06
2.38288e-08
2.23288e-08
7.06041e-06
8.53188e-06
5.01151e-09
8.53472e-06
1.39691e-08
8.53874e-06
2.07902e-08
8.54333e-06
2.53285e-08
8.54817e-06
2.81047e-08
8.5531e-06
2.96527e-08
8.558e-06
3.02871e-08
8.56278e-06
3.02406e-08
8.5674e-06
2.97273e-08
8.57186e-06
2.89129e-08
8.57616e-06
2.79025e-08
8.58031e-06
2.67679e-08
8.58432e-06
2.55531e-08
8.5882e-06
2.42883e-08
8.59197e-06
2.29871e-08
8.59562e-06
2.16573e-08
8.59916e-06
2.02976e-08
1.89304e-08
8.60255e-06
1.04003e-05
3.94015e-09
1.04032e-05
1.10165e-08
1.04075e-05
1.65219e-08
1.04125e-05
2.03179e-08
1.04179e-05
2.27087e-08
1.04235e-05
2.40752e-08
1.04291e-05
2.46792e-08
1.04346e-05
2.47087e-08
1.044e-05
2.43291e-08
1.04453e-05
2.36712e-08
1.04503e-05
2.28292e-08
1.04552e-05
2.18609e-08
1.046e-05
2.08105e-08
1.04646e-05
1.97026e-08
1.0469e-05
1.85573e-08
1.04733e-05
1.73828e-08
1.04774e-05
1.6187e-08
1.49947e-08
1.04813e-05
1.26779e-05
2.83283e-09
1.2681e-05
7.95249e-09
1.26855e-05
1.20036e-08
1.26909e-05
1.48732e-08
1.26969e-05
1.67254e-08
1.27032e-05
1.78026e-08
1.27096e-05
1.82952e-08
1.27159e-05
1.8343e-08
1.27222e-05
1.80626e-08
1.27283e-05
1.75514e-08
1.27343e-05
1.68792e-08
1.274e-05
1.60966e-08
1.27456e-05
1.52359e-08
1.2751e-05
1.43235e-08
1.27562e-05
1.33742e-08
1.27611e-05
1.24034e-08
1.27659e-05
1.14157e-08
1.04429e-08
1.27705e-05
1.54543e-05
1.6773e-09
1.54576e-05
4.73084e-09
1.54624e-05
7.17409e-09
1.54683e-05
8.93031e-09
1.5475e-05
1.00759e-08
1.5482e-05
1.07389e-08
1.54893e-05
1.10289e-08
1.54966e-05
1.10296e-08
1.55039e-05
1.08107e-08
1.5511e-05
1.0431e-08
1.55179e-05
9.93556e-09
1.55247e-05
9.35738e-09
1.55312e-05
8.72027e-09
1.55375e-05
8.04236e-09
1.55435e-05
7.33735e-09
1.55493e-05
6.61679e-09
1.55548e-05
5.88746e-09
5.17552e-09
1.55601e-05
1.88389e-05
4.33174e-10
1.88424e-05
1.22375e-09
1.88477e-05
1.85643e-09
1.88543e-05
2.29403e-09
1.88619e-05
2.55808e-09
1.88699e-05
2.67844e-09
1.88783e-05
2.67705e-09
1.88867e-05
2.5731e-09
1.88951e-05
2.38629e-09
1.89034e-05
2.1339e-09
1.89115e-05
1.83043e-09
1.89194e-05
1.48731e-09
1.8927e-05
1.11441e-09
1.89343e-05
7.19998e-10
1.89413e-05
3.114e-10
1.89481e-05
-1.04565e-10
1.89545e-05
-5.23797e-10
-9.25679e-10
1.89606e-05
2.29648e-05
-1.00222e-09
2.29689e-05
-2.85979e-09
2.29751e-05
-4.37169e-09
2.29829e-05
-5.51455e-09
2.29917e-05
-6.30892e-09
2.30013e-05
-6.83802e-09
2.30111e-05
-7.19137e-09
2.30211e-05
-7.42156e-09
2.30311e-05
-7.56839e-09
2.30409e-05
-7.66072e-09
2.30504e-05
-7.72583e-09
2.30597e-05
-7.77586e-09
2.30686e-05
-7.82193e-09
2.30772e-05
-7.86594e-09
2.30854e-05
-7.91268e-09
2.30933e-05
-7.95963e-09
2.31007e-05
-8.00947e-09
-8.04643e-09
2.31079e-05
1.68118e-05
-2.13004e-09
1.6815e-05
-6.04308e-09
1.68199e-05
-9.22427e-09
1.68259e-05
-1.15443e-08
1.68326e-05
-1.3061e-08
1.68398e-05
-1.40033e-08
1.68472e-05
-1.45557e-08
1.68546e-05
-1.48264e-08
1.68619e-05
-1.48897e-08
1.6869e-05
-1.48234e-08
1.6876e-05
-1.4675e-08
1.68827e-05
-1.44834e-08
1.68891e-05
-1.42636e-08
1.68953e-05
-1.40355e-08
1.69012e-05
-1.38016e-08
1.69068e-05
-1.35721e-08
1.69121e-05
-1.33442e-08
-1.31145e-08
1.69172e-05
1.46357e-05
-3.21319e-09
1.46387e-05
-9.14203e-09
1.46435e-05
-1.39605e-08
1.46492e-05
-1.73184e-08
1.46556e-05
-1.93869e-08
1.46622e-05
-2.06144e-08
1.46689e-05
-2.12728e-08
1.46756e-05
-2.1496e-08
1.46821e-05
-2.14182e-08
1.46884e-05
-2.11531e-08
1.46945e-05
-2.07793e-08
1.47004e-05
-2.03392e-08
1.4706e-05
-1.98653e-08
1.47113e-05
-1.93765e-08
1.47164e-05
-1.88878e-08
1.47212e-05
-1.84045e-08
1.47258e-05
-1.79331e-08
-1.74649e-08
1.47302e-05
1.27411e-05
-4.22672e-09
1.27443e-05
-1.22795e-08
1.27491e-05
-1.88117e-08
1.27548e-05
-2.29922e-08
1.27608e-05
-2.54019e-08
1.2767e-05
-2.68136e-08
1.27732e-05
-2.74909e-08
1.27793e-05
-2.75833e-08
1.27852e-05
-2.72976e-08
1.27908e-05
-2.67997e-08
1.27962e-05
-2.61796e-08
1.28014e-05
-2.54876e-08
1.28063e-05
-2.47631e-08
1.28109e-05
-2.40286e-08
1.28153e-05
-2.33031e-08
1.28195e-05
-2.25902e-08
1.28235e-05
-2.18986e-08
-2.12202e-08
1.28272e-05
1.10918e-05
-5.07253e-09
1.1095e-05
-1.55105e-08
1.11001e-05
-2.39553e-08
1.11058e-05
-2.86413e-08
1.11116e-05
-3.11666e-08
1.11174e-05
-3.2662e-08
1.11232e-05
-3.32578e-08
1.11287e-05
-3.31372e-08
1.1134e-05
-3.26025e-08
1.11391e-05
-3.18512e-08
1.11439e-05
-3.09747e-08
1.11484e-05
-3.00309e-08
1.11527e-05
-2.90608e-08
1.11568e-05
-2.80959e-08
1.11606e-05
-2.71471e-08
1.11642e-05
-2.6227e-08
1.11677e-05
-2.53346e-08
-2.44706e-08
1.11709e-05
9.65582e-06
-5.67523e-09
9.65925e-06
-1.89474e-08
9.66461e-06
-2.93177e-08
9.67013e-06
-3.41591e-08
9.67571e-06
-3.67492e-08
9.6813e-06
-3.82487e-08
9.68666e-06
-3.86216e-08
9.69172e-06
-3.8199e-08
9.6965e-06
-3.73834e-08
9.70101e-06
-3.63696e-08
9.70527e-06
-3.52357e-08
9.70928e-06
-3.40422e-08
9.71305e-06
-3.28362e-08
9.7166e-06
-3.16463e-08
9.71994e-06
-3.04885e-08
9.72308e-06
-2.93687e-08
9.72603e-06
-2.82892e-08
-2.72465e-08
9.72881e-06
8.4053e-06
-5.62456e-09
8.40965e-06
-2.32925e-08
8.4149e-06
-3.45679e-08
8.41994e-06
-3.92039e-08
8.42532e-06
-4.21346e-08
8.43075e-06
-4.36796e-08
8.43586e-06
-4.37324e-08
8.44059e-06
-4.29324e-08
8.44499e-06
-4.17819e-08
8.44908e-06
-4.04563e-08
8.45287e-06
-3.9027e-08
8.45638e-06
-3.75554e-08
8.45963e-06
-3.60911e-08
8.46264e-06
-3.46609e-08
8.46543e-06
-3.32803e-08
8.46802e-06
-3.19555e-08
8.47041e-06
-3.06885e-08
-2.9474e-08
8.47264e-06
7.3145e-06
-2.84413e-09
7.3212e-06
-2.9989e-08
7.32676e-06
-4.01331e-08
7.33172e-06
-4.41661e-08
7.33714e-06
-4.75487e-08
7.34248e-06
-4.9019e-08
7.34737e-06
-4.8631e-08
7.35181e-06
-4.73679e-08
7.35581e-06
-4.57837e-08
7.35939e-06
-4.40369e-08
7.36257e-06
-4.22079e-08
7.36539e-06
-4.03724e-08
7.36787e-06
-3.85784e-08
7.37006e-06
-3.68517e-08
7.37199e-06
-3.52073e-08
7.37368e-06
-3.36482e-08
7.37516e-06
-3.21749e-08
-3.07763e-08
7.37646e-06
6.36244e-06
4.786e-09
6.3719e-06
-3.94578e-08
6.37934e-06
-4.75672e-08
6.38599e-06
-5.08157e-08
6.39228e-06
-5.38439e-08
6.39761e-06
-5.4348e-08
6.40192e-06
-5.29428e-08
6.40542e-06
-5.08673e-08
6.40824e-06
-4.8604e-08
6.41044e-06
-4.62415e-08
6.41209e-06
-4.38626e-08
6.41326e-06
-4.154e-08
6.41401e-06
-3.93261e-08
6.4144e-06
-3.72379e-08
6.41448e-06
-3.52887e-08
6.41431e-06
-3.34766e-08
6.41393e-06
-3.1801e-08
-3.02435e-08
6.41339e-06
5.54129e-06
8.95552e-09
5.55033e-06
-4.84918e-08
5.55835e-06
-5.55881e-08
5.56606e-06
-5.85322e-08
5.57253e-06
-6.03164e-08
5.57687e-06
-5.86864e-08
5.57913e-06
-5.51986e-08
5.5797e-06
-5.14426e-08
5.57897e-06
-4.78675e-08
5.5772e-06
-4.44748e-08
5.57462e-06
-4.12872e-08
5.57143e-06
-3.83449e-08
5.56776e-06
-3.5656e-08
5.56373e-06
-3.32144e-08
5.55946e-06
-3.10117e-08
5.55502e-06
-2.90369e-08
5.5505e-06
-2.72917e-08
-2.57198e-08
5.54598e-06
4.86019e-06
-2.36277e-08
4.86538e-06
-5.36853e-08
4.86524e-06
-5.54444e-08
4.86218e-06
-5.54769e-08
4.85702e-06
-5.51533e-08
4.84952e-06
-5.11947e-08
4.83984e-06
-4.55184e-08
4.82847e-06
-4.00637e-08
4.8159e-06
-3.53057e-08
4.80264e-06
-3.12136e-08
4.78906e-06
-2.77066e-08
4.77544e-06
-2.47242e-08
4.76197e-06
-2.21884e-08
4.74879e-06
-2.0033e-08
4.73598e-06
-1.82013e-08
4.72361e-06
-1.66706e-08
4.7118e-06
-1.54776e-08
-1.51326e-08
4.70121e-06
4.17905e-06
4.12536e-06
4.06992e-06
4.01444e-06
3.95929e-06
3.90809e-06
3.86258e-06
3.82251e-06
3.78721e-06
3.75599e-06
3.72828e-06
3.70356e-06
3.68137e-06
3.66134e-06
3.64314e-06
3.62647e-06
3.61099e-06
3.59586e-06
2.03378e-08
-2.03826e-08
3.74499e-08
-1.71933e-08
4.59854e-08
-8.56037e-09
4.61291e-08
-2.05387e-10
3.91755e-08
6.94758e-09
2.65836e-08
1.25275e-08
9.97362e-09
1.66213e-08
-9.60413e-09
1.9505e-08
-3.10729e-08
2.14862e-08
-5.39461e-08
2.27987e-08
-7.76009e-08
2.36712e-08
-1.02033e-07
2.43707e-08
-1.27312e-07
2.52899e-08
-1.54682e-07
2.73159e-08
-1.86065e-07
3.13949e-08
-2.16545e-07
3.04192e-08
-2.4143e-07
2.49078e-08
-2.69608e-07
2.81211e-08
-3.01891e-07
3.2306e-08
-3.37815e-07
3.58613e-08
-3.76555e-07
3.87619e-08
-4.18055e-07
4.14194e-08
-4.62097e-07
4.40494e-08
-5.07836e-07
4.56593e-08
-5.48878e-07
4.10462e-08
-5.99715e-07
5.07659e-08
-6.53185e-07
5.3468e-08
-6.95195e-07
4.19242e-08
-7.38785e-07
4.35877e-08
-7.83759e-07
4.48928e-08
-8.29347e-07
4.5597e-08
-8.7529e-07
4.58701e-08
-9.21171e-07
4.58956e-08
-9.66994e-07
4.57615e-08
-1.0125e-06
4.55368e-08
-1.0578e-06
4.52504e-08
-1.1027e-06
4.49362e-08
-1.14735e-06
4.46023e-08
-1.19159e-06
4.42697e-08
-1.23558e-06
4.39377e-08
-1.27917e-06
4.36211e-08
-1.32253e-06
4.33133e-08
-1.36553e-06
4.30249e-08
-1.40832e-06
4.27469e-08
-1.45078e-06
4.24901e-08
-1.49306e-06
4.22436e-08
-1.53504e-06
4.20168e-08
-1.57688e-06
4.1797e-08
-1.61844e-06
4.1592e-08
-1.65988e-06
4.13881e-08
-1.70105e-06
4.11946e-08
-1.74211e-06
4.09964e-08
-1.7829e-06
4.08029e-08
-1.82357e-06
4.06008e-08
-1.86395e-06
4.03997e-08
-1.9042e-06
4.01824e-08
-1.94415e-06
3.99598e-08
-1.98393e-06
3.97169e-08
-2.02338e-06
3.94651e-08
-2.06262e-06
3.91858e-08
-2.10149e-06
3.88927e-08
-2.14011e-06
3.85693e-08
-2.1783e-06
3.82293e-08
-2.21619e-06
3.78527e-08
-2.2536e-06
3.74552e-08
-2.29064e-06
3.70163e-08
-2.32715e-06
3.65528e-08
-2.36321e-06
3.60436e-08
-2.39867e-06
3.55056e-08
-2.4336e-06
3.49159e-08
-2.46783e-06
3.42908e-08
-2.50145e-06
3.36062e-08
-2.53426e-06
3.28785e-08
-2.56636e-06
3.20841e-08
-2.59755e-06
3.12422e-08
-2.62789e-06
3.03276e-08
-2.65721e-06
2.93576e-08
-2.68552e-06
2.83079e-08
-2.71265e-06
2.71929e-08
-2.73862e-06
2.59806e-08
-2.76322e-06
2.46834e-08
-2.78646e-06
2.32701e-08
-2.8081e-06
2.17509e-08
-2.82814e-06
2.00898e-08
-2.84632e-06
1.82977e-08
-2.86258e-06
1.63375e-08
-2.87666e-06
1.42107e-08
-2.88839e-06
1.18707e-08
-2.89749e-06
9.29581e-09
-2.90373e-06
6.4928e-09
-2.90697e-06
3.48524e-09
-2.9072e-06
4.64385e-10
-2.90453e-06
-2.44371e-09
-2.899e-06
-5.30508e-09
-2.89055e-06
-8.24312e-09
-2.87904e-06
-1.12921e-08
-2.86436e-06
-1.44735e-08
-2.84638e-06
-1.77832e-08
-2.82498e-06
-2.12251e-08
-2.80003e-06
-2.4789e-08
-2.77141e-06
-2.84689e-08
-2.73902e-06
-3.22524e-08
-2.70277e-06
-3.61252e-08
-2.66259e-06
-4.00743e-08
-2.61838e-06
-4.40798e-08
-2.57013e-06
-4.81241e-08
-2.5178e-06
-5.21815e-08
-2.4614e-06
-5.62286e-08
-2.40097e-06
-6.024e-08
-2.33657e-06
-6.41761e-08
-2.26832e-06
-6.80243e-08
-2.19631e-06
-7.17515e-08
-2.12072e-06
-7.53282e-08
-2.0417e-06
-7.87285e-08
-1.9595e-06
-8.19053e-08
-1.87441e-06
-8.47747e-08
-1.7867e-06
-8.74038e-08
-1.69666e-06
-8.97381e-08
-1.60464e-06
-9.17745e-08
-1.51093e-06
-9.34545e-08
-1.41584e-06
-9.47757e-08
-1.31971e-06
-9.56927e-08
-1.22301e-06
-9.62432e-08
-1.1261e-06
-9.64042e-08
-1.02945e-06
-9.62413e-08
-9.33356e-07
-9.57153e-08
-8.38227e-07
-9.48916e-08
-7.44312e-07
-9.37237e-08
-6.5198e-07
-9.22848e-08
-5.61443e-07
-9.0536e-08
-4.73029e-07
-8.85565e-08
-3.86906e-07
-8.63091e-08
-3.03349e-07
-8.38773e-08
-2.22514e-07
-8.11955e-08
-1.44564e-07
-7.84261e-08
-6.93891e-08
-7.56806e-08
3.01765e-09
-7.30025e-08
7.2843e-08
-7.04334e-08
1.39587e-07
-6.74217e-08
2.02693e-07
-6.37699e-08
2.6204e-07
-5.99942e-08
3.17697e-07
-5.62204e-08
3.69717e-07
-5.25114e-08
4.18204e-07
-4.88986e-08
4.63249e-07
-4.54049e-08
5.04993e-07
-4.20448e-08
5.43562e-07
-3.88291e-08
5.79117e-07
-3.57676e-08
6.11803e-07
-3.2866e-08
6.41796e-07
-3.01342e-08
6.69255e-07
-2.75759e-08
6.94369e-07
-2.51991e-08
7.17308e-07
-2.30048e-08
7.38269e-07
-2.09997e-08
7.57429e-07
-1.91848e-08
7.74996e-07
-1.75657e-08
7.91147e-07
-1.61401e-08
8.06093e-07
-1.49094e-08
8.20006e-07
-1.38696e-08
8.33094e-07
-1.30215e-08
8.45525e-07
-1.23586e-08
8.57496e-07
-1.18771e-08
8.69159e-07
-1.15671e-08
8.80698e-07
-1.14223e-08
8.92245e-07
-1.14305e-08
9.03961e-07
-1.15817e-08
9.15949e-07
-1.18567e-08
9.28338e-07
-1.2241e-08
9.41195e-07
-1.27132e-08
9.54605e-07
-1.32534e-08
9.68584e-07
-1.3827e-08
9.83145e-07
-1.43972e-08
9.98201e-07
-1.48974e-08
1.01361e-06
-1.52367e-08
1.02901e-06
-1.52367e-08
1.04376e-06
-1.45696e-08
1.05635e-06
-1.24121e-08
1.06306e-06
-6.53901e-09
1.05475e-06
8.46845e-09
5.14129e-08
1.00344e-06
1.03394e-08
-3.07634e-08
1.13944e-08
-1.82982e-08
6.65974e-09
-3.84485e-09
-2.18104e-09
8.60513e-09
-1.45611e-08
1.93193e-08
-3.03832e-08
2.83191e-08
-4.94295e-08
3.5664e-08
-7.14965e-08
4.15371e-08
-9.62283e-08
4.62165e-08
-1.23498e-07
5.00316e-08
-1.5318e-07
5.33528e-08
-1.8542e-07
5.65787e-08
-2.20218e-07
6.00877e-08
-2.57033e-07
6.41063e-08
-2.9396e-07
6.83212e-08
-3.34621e-07
7.10605e-08
-3.81847e-07
7.21377e-08
-4.28384e-07
7.46423e-08
-4.73975e-07
7.78998e-08
-5.19329e-07
8.11943e-08
-5.64774e-07
8.42064e-08
-6.10281e-07
8.69008e-08
-6.55521e-07
8.92836e-08
-7.00938e-07
9.10462e-08
-7.51741e-07
9.18418e-08
-7.9483e-07
9.38291e-08
-8.36256e-07
9.48839e-08
-8.86718e-07
9.2357e-08
-9.34527e-07
9.13865e-08
-9.80531e-07
9.08695e-08
-1.02534e-06
9.03955e-08
-1.06934e-06
8.98425e-08
-1.11265e-06
8.92038e-08
-1.1554e-06
8.84956e-08
-1.19761e-06
8.77427e-08
-1.23934e-06
8.69663e-08
-1.28059e-06
8.61864e-08
-1.32142e-06
8.54162e-08
-1.36182e-06
8.46675e-08
-1.40184e-06
8.39457e-08
-1.44147e-06
8.32565e-08
-1.48078e-06
8.26007e-08
-1.51973e-06
8.19801e-08
-1.55839e-06
8.13917e-08
-1.59673e-06
8.08344e-08
-1.6348e-06
8.03026e-08
-1.67257e-06
7.97934e-08
-1.71008e-06
7.93001e-08
-1.7473e-06
7.88194e-08
-1.78427e-06
7.83434e-08
-1.82095e-06
7.78689e-08
-1.85736e-06
7.73885e-08
-1.89346e-06
7.69002e-08
-1.92927e-06
7.63964e-08
-1.96475e-06
7.58743e-08
-1.99992e-06
7.53262e-08
-2.03472e-06
7.47507e-08
-2.06916e-06
7.41401e-08
-2.10319e-06
7.34928e-08
-2.13683e-06
7.28012e-08
-2.17001e-06
7.20653e-08
-2.20273e-06
7.12777e-08
-2.23493e-06
7.0438e-08
-2.26663e-06
6.95377e-08
-2.29774e-06
6.8577e-08
-2.32827e-06
6.75472e-08
-2.35816e-06
6.6449e-08
-2.38739e-06
6.52731e-08
-2.41589e-06
6.40203e-08
-2.44365e-06
6.26799e-08
-2.47059e-06
6.12522e-08
-2.4967e-06
5.97254e-08
-2.5219e-06
5.81003e-08
-2.54616e-06
5.63644e-08
-2.56942e-06
5.45176e-08
-2.59163e-06
5.25457e-08
-2.61271e-06
5.04481e-08
-2.63259e-06
4.82086e-08
-2.65119e-06
4.5823e-08
-2.66846e-06
4.32709e-08
-2.68428e-06
4.05464e-08
-2.6986e-06
3.76283e-08
-2.71131e-06
3.45113e-08
-2.72235e-06
3.11759e-08
-2.73162e-06
2.76216e-08
-2.73905e-06
2.38352e-08
-2.74459e-06
1.98207e-08
-2.7482e-06
1.55677e-08
-2.74987e-06
1.1095e-08
-2.74964e-06
6.40635e-09
-2.74755e-06
1.53939e-09
-2.74342e-06
-3.51965e-09
-2.73692e-06
-8.81089e-09
-2.72775e-06
-1.4349e-08
-2.71573e-06
-2.01428e-08
-2.70071e-06
-2.61948e-08
-2.68256e-06
-3.25127e-08
-2.66114e-06
-3.90907e-08
-2.63635e-06
-4.59255e-08
-2.60805e-06
-5.30025e-08
-2.57613e-06
-6.03066e-08
-2.5405e-06
-6.78152e-08
-2.50107e-06
-7.55012e-08
-2.45775e-06
-8.33358e-08
-2.41048e-06
-9.12807e-08
-2.35923e-06
-9.92985e-08
-2.30398e-06
-1.07338e-07
-2.24476e-06
-1.15353e-07
-2.1816e-06
-1.23282e-07
-2.11459e-06
-1.31068e-07
-2.04382e-06
-1.38647e-07
-1.96947e-06
-1.45963e-07
-1.89169e-06
-1.52949e-07
-1.8107e-06
-1.59556e-07
-1.72675e-06
-1.65685e-07
-1.64012e-06
-1.71239e-07
-1.55112e-06
-1.7622e-07
-1.4601e-06
-1.80613e-07
-1.3674e-06
-1.84347e-07
-1.27335e-06
-1.87373e-07
-1.17829e-06
-1.89647e-07
-1.08262e-06
-1.91141e-07
-9.8673e-07
-1.91865e-07
-8.91057e-07
-1.91832e-07
-7.95983e-07
-1.91088e-07
-7.01887e-07
-1.89643e-07
-6.09097e-07
-1.87546e-07
-5.17937e-07
-1.84807e-07
-4.2869e-07
-1.81488e-07
-3.4163e-07
-1.77606e-07
-2.56993e-07
-1.73237e-07
-1.74998e-07
-1.68391e-07
-9.5815e-08
-1.6318e-07
-1.94883e-08
-1.57676e-07
5.38941e-08
-1.51986e-07
1.24089e-07
-1.46075e-07
1.90825e-07
-1.39954e-07
2.53802e-07
-1.33651e-07
3.13135e-07
-1.27015e-07
3.69157e-07
-1.20061e-07
4.21932e-07
-1.13027e-07
4.71516e-07
-1.06032e-07
5.17963e-07
-9.91547e-08
5.61344e-07
-9.24472e-08
6.01745e-07
-8.59527e-08
6.39277e-07
-7.96997e-08
6.74057e-07
-7.37167e-08
7.06223e-07
-6.80207e-08
7.35916e-07
-6.26334e-08
7.63292e-07
-5.75666e-08
7.88509e-07
-5.28394e-08
8.11738e-07
-4.84574e-08
8.33147e-07
-4.44366e-08
8.52919e-07
-4.07777e-08
8.71229e-07
-3.74956e-08
8.88265e-07
-3.45862e-08
9.04204e-07
-3.20599e-08
9.19236e-07
-2.9905e-08
9.33533e-07
-2.81288e-08
9.47281e-07
-2.67148e-08
9.60644e-07
-2.5666e-08
9.73798e-07
-2.49576e-08
9.86888e-07
-2.45862e-08
1.00008e-06
-2.45208e-08
1.01348e-06
-2.47545e-08
1.02725e-06
-2.52475e-08
1.04148e-06
-2.59834e-08
1.05626e-06
-2.69147e-08
1.07168e-06
-2.80188e-08
1.08778e-06
-2.92348e-08
1.10459e-06
-3.05191e-08
1.12211e-06
-3.17776e-08
1.14025e-06
-3.29111e-08
1.15888e-06
-3.3724e-08
1.17769e-06
-3.39153e-08
1.19616e-06
-3.28908e-08
1.21323e-06
-2.93371e-08
1.22753e-06
-2.06825e-08
1.23669e-06
-5.52887e-10
4.94938e-08
1.23872e-06
-4.11537e-09
-2.66775e-08
-1.5035e-08
-7.41145e-09
-2.87627e-08
9.87127e-09
-4.46107e-08
2.44331e-08
-6.24098e-08
3.71124e-08
-8.22994e-08
4.81872e-08
-1.04428e-07
5.77879e-08
-1.28976e-07
6.60617e-08
-1.55984e-07
7.32207e-08
-1.85508e-07
7.95324e-08
-2.17454e-07
8.52956e-08
-2.5169e-07
9.07952e-08
-2.87842e-07
9.62377e-08
-3.25409e-07
1.0166e-07
-3.63918e-07
1.0683e-07
-4.04126e-07
1.11259e-07
-4.46773e-07
1.14785e-07
-4.90212e-07
1.18073e-07
-5.33577e-07
1.21266e-07
-5.76639e-07
1.24245e-07
-6.19312e-07
1.26879e-07
-6.61538e-07
1.29114e-07
-7.03178e-07
1.30921e-07
-7.44379e-07
1.32233e-07
-7.85583e-07
1.33042e-07
-8.25368e-07
1.33599e-07
-8.64173e-07
1.33685e-07
-9.04579e-07
1.32748e-07
-9.44849e-07
1.31651e-07
-9.84557e-07
1.30562e-07
-1.02364e-06
1.29473e-07
-1.06218e-06
1.28366e-07
-1.10022e-06
1.27237e-07
-1.13783e-06
1.26093e-07
-1.17504e-06
1.24946e-07
-1.21189e-06
1.23808e-07
-1.2484e-06
1.22693e-07
-1.2846e-06
1.21609e-07
-1.3205e-06
1.20564e-07
-1.35613e-06
1.19563e-07
-1.39148e-06
1.18607e-07
-1.42659e-06
1.17696e-07
-1.46144e-06
1.1683e-07
-1.49606e-06
1.16004e-07
-1.53044e-06
1.15215e-07
-1.5646e-06
1.14455e-07
-1.59852e-06
1.13718e-07
-1.63222e-06
1.12997e-07
-1.66568e-06
1.12285e-07
-1.69892e-06
1.11574e-07
-1.73191e-06
1.10857e-07
-1.76465e-06
1.10126e-07
-1.79713e-06
1.09375e-07
-1.82934e-06
1.08597e-07
-1.86125e-06
1.07784e-07
-1.89286e-06
1.06931e-07
-1.92415e-06
1.0603e-07
-1.95509e-06
1.05077e-07
-1.98567e-06
1.04064e-07
-2.01586e-06
1.02985e-07
-2.04564e-06
1.01837e-07
-2.07499e-06
1.00613e-07
-2.10386e-06
9.93071e-08
-2.13224e-06
9.7914e-08
-2.16009e-06
9.64285e-08
-2.18739e-06
9.48439e-08
-2.2141e-06
9.31554e-08
-2.24018e-06
9.13561e-08
-2.26559e-06
8.94405e-08
-2.29031e-06
8.74008e-08
-2.31428e-06
8.52307e-08
-2.33746e-06
8.29212e-08
-2.35981e-06
8.04659e-08
-2.38129e-06
7.78544e-08
-2.40184e-06
7.5079e-08
-2.42141e-06
7.21279e-08
-2.43994e-06
6.89914e-08
-2.45738e-06
6.56555e-08
-2.47364e-06
6.21076e-08
-2.48868e-06
5.83306e-08
-2.50242e-06
5.43106e-08
-2.51479e-06
5.00303e-08
-2.52573e-06
4.5477e-08
-2.53516e-06
4.06364e-08
-2.543e-06
3.55017e-08
-2.54919e-06
3.00638e-08
-2.55365e-06
2.43205e-08
-2.55629e-06
1.82691e-08
-2.55703e-06
1.19037e-08
-2.55576e-06
5.22916e-09
-2.55236e-06
-1.77663e-09
-2.54666e-06
-9.14492e-09
-2.5385e-06
-1.69014e-08
-2.52773e-06
-2.50622e-08
-2.51418e-06
-3.36217e-08
-2.49774e-06
-4.25837e-08
-2.47825e-06
-5.19407e-08
-2.45561e-06
-6.16891e-08
-2.42968e-06
-7.18142e-08
-2.40035e-06
-8.22993e-08
-2.3675e-06
-9.31185e-08
-2.33105e-06
-1.04239e-07
-2.29091e-06
-1.15623e-07
-2.24699e-06
-1.27221e-07
-2.19926e-06
-1.38981e-07
-2.14767e-06
-1.5084e-07
-2.09223e-06
-1.62727e-07
-2.03295e-06
-1.74562e-07
-1.9699e-06
-1.86261e-07
-1.90315e-06
-1.97732e-07
-1.83282e-06
-2.08875e-07
-1.75909e-06
-2.19597e-07
-1.68213e-06
-2.29797e-07
-1.60219e-06
-2.39392e-07
-1.51949e-06
-2.48263e-07
-1.43434e-06
-2.56282e-07
-1.34705e-06
-2.63393e-07
-1.25799e-06
-2.69582e-07
-1.16749e-06
-2.74763e-07
-1.0759e-06
-2.78868e-07
-9.83563e-07
-2.81842e-07
-8.9088e-07
-2.83661e-07
-7.98226e-07
-2.84325e-07
-7.06021e-07
-2.83871e-07
-6.14617e-07
-2.82332e-07
-5.24388e-07
-2.79761e-07
-4.35633e-07
-2.76203e-07
-3.48674e-07
-2.71717e-07
-2.63759e-07
-2.66365e-07
-1.81156e-07
-2.60216e-07
-1.01057e-07
-2.53354e-07
-2.36212e-08
-2.45884e-07
5.10124e-08
-2.37881e-07
1.22645e-07
-2.29407e-07
1.91096e-07
-2.20544e-07
2.56252e-07
-2.11359e-07
3.18075e-07
-2.01914e-07
3.76506e-07
-1.92238e-07
4.31637e-07
-1.82311e-07
4.83613e-07
-1.72206e-07
5.32513e-07
-1.62084e-07
5.78406e-07
-1.52058e-07
6.21364e-07
-1.42223e-07
6.61467e-07
-1.32642e-07
6.98815e-07
-1.23377e-07
7.33519e-07
-1.14467e-07
7.65706e-07
-1.05956e-07
7.95512e-07
-9.78689e-08
8.23083e-07
-9.02383e-08
8.48573e-07
-8.30829e-08
8.7214e-07
-7.64281e-08
8.93952e-07
-7.02857e-08
9.14178e-07
-6.46746e-08
9.32992e-07
-5.96006e-08
9.50569e-07
-5.50776e-08
9.67084e-07
-5.11049e-08
9.82714e-07
-4.76892e-08
9.97631e-07
-4.48216e-08
1.01201e-06
-4.25018e-08
1.02601e-06
-4.07135e-08
1.0398e-06
-3.94486e-08
1.05354e-06
-3.86812e-08
1.06736e-06
-3.83937e-08
1.0814e-06
-3.85515e-08
1.09579e-06
-3.91303e-08
1.11064e-06
-4.00847e-08
1.12605e-06
-4.13788e-08
1.14211e-06
-4.29564e-08
1.15888e-06
-4.47705e-08
1.1764e-06
-4.67462e-08
1.19471e-06
-4.88078e-08
1.21378e-06
-5.08341e-08
1.23356e-06
-5.26731e-08
1.25391e-06
-5.40653e-08
1.27461e-06
-5.45959e-08
1.29524e-06
-5.35077e-08
1.3152e-06
-4.92821e-08
1.33379e-06
-3.92569e-08
1.35091e-06
-1.76652e-08
2.98487e-08
1.37055e-06
-1.58269e-08
-1.0872e-08
-3.51586e-08
1.18956e-08
-5.55637e-08
3.02688e-08
-7.68705e-08
4.57235e-08
-9.91579e-08
5.93951e-08
-1.22658e-07
7.167e-08
-1.47587e-07
8.27124e-08
-1.74185e-07
9.26412e-08
-2.02563e-07
1.01595e-07
-2.32787e-07
1.09739e-07
-2.64742e-07
1.17248e-07
-2.98235e-07
1.24274e-07
-3.32906e-07
1.30907e-07
-3.68403e-07
1.37147e-07
-4.04463e-07
1.42889e-07
-4.41181e-07
1.4797e-07
-4.78714e-07
1.52319e-07
-5.16723e-07
1.56076e-07
-5.54798e-07
1.5934e-07
-5.92694e-07
1.62134e-07
-6.30259e-07
1.64444e-07
-6.67417e-07
1.66265e-07
-7.041e-07
1.67603e-07
-7.40333e-07
1.68458e-07
-7.76139e-07
1.68847e-07
-8.11374e-07
1.68825e-07
-8.46099e-07
1.68408e-07
-8.80906e-07
1.67546e-07
-9.15673e-07
1.66415e-07
-9.50265e-07
1.65142e-07
-9.84587e-07
1.63792e-07
-1.01863e-06
1.62397e-07
-1.05238e-06
1.6098e-07
-1.08585e-06
1.59559e-07
-1.11906e-06
1.58149e-07
-1.15203e-06
1.56764e-07
-1.18475e-06
1.55414e-07
-1.21726e-06
1.54108e-07
-1.24955e-06
1.52851e-07
-1.28164e-06
1.51645e-07
-1.31353e-06
1.50492e-07
-1.34523e-06
1.4939e-07
-1.37674e-06
1.48335e-07
-1.40806e-06
1.47324e-07
-1.4392e-06
1.46349e-07
-1.47015e-06
1.45403e-07
-1.50091e-06
1.44478e-07
-1.53148e-06
1.43565e-07
-1.56184e-06
1.42656e-07
-1.59201e-06
1.4174e-07
-1.62196e-06
1.4081e-07
-1.65169e-06
1.39855e-07
-1.68119e-06
1.38868e-07
-1.71043e-06
1.3784e-07
-1.73941e-06
1.36763e-07
-1.76811e-06
1.35628e-07
-1.79651e-06
1.34429e-07
-1.8246e-06
1.33156e-07
-1.85234e-06
1.31803e-07
-1.87973e-06
1.30364e-07
-1.90673e-06
1.2883e-07
-1.93332e-06
1.27196e-07
-1.95947e-06
1.25455e-07
-1.98516e-06
1.23599e-07
-2.01036e-06
1.21622e-07
-2.03503e-06
1.19517e-07
-2.05916e-06
1.17276e-07
-2.08269e-06
1.14892e-07
-2.10561e-06
1.12357e-07
-2.12786e-06
1.09663e-07
-2.14943e-06
1.068e-07
-2.17025e-06
1.03758e-07
-2.19031e-06
1.00528e-07
-2.20954e-06
9.70973e-08
-2.2279e-06
9.34549e-08
-2.24535e-06
8.95874e-08
-2.26183e-06
8.54812e-08
-2.27728e-06
8.11204e-08
-2.29164e-06
7.64885e-08
-2.30486e-06
7.15672e-08
-2.31687e-06
6.63387e-08
-2.3276e-06
6.07844e-08
-2.33699e-06
5.4887e-08
-2.34496e-06
4.86303e-08
-2.35144e-06
4.20006e-08
-2.35633e-06
3.49853e-08
-2.35955e-06
2.75733e-08
-2.361e-06
1.97511e-08
-2.36055e-06
1.15095e-08
-2.35809e-06
2.81903e-09
-2.35349e-06
-6.33177e-09
-2.34661e-06
-1.59821e-08
-2.33733e-06
-2.61505e-08
-2.32551e-06
-3.68503e-08
-2.31102e-06
-4.80818e-08
-2.29374e-06
-5.98451e-08
-2.27353e-06
-7.21324e-08
-2.25027e-06
-8.49342e-08
-2.22384e-06
-9.82325e-08
-2.19413e-06
-1.12002e-07
-2.16103e-06
-1.26211e-07
-2.12445e-06
-1.40815e-07
-2.08431e-06
-1.55763e-07
-2.04053e-06
-1.70989e-07
-1.99306e-06
-1.86426e-07
-1.94188e-06
-2.01984e-07
-1.887e-06
-2.17572e-07
-1.82842e-06
-2.33083e-07
-1.76622e-06
-2.48401e-07
-1.70048e-06
-2.63401e-07
-1.63133e-06
-2.77951e-07
-1.55893e-06
-2.9192e-07
-1.48347e-06
-3.0517e-07
-1.40519e-06
-3.17581e-07
-1.32434e-06
-3.29017e-07
-1.24121e-06
-3.39325e-07
-1.15612e-06
-3.48399e-07
-1.06944e-06