/*--------------------------------*- C++ -*----------------------------------*\
  =========                 |
  \\      /  F ield         | OpenFOAM: The Open Source CFD Toolbox
   \\    /   O peration     | Website:  https://openfoam.org
    \\  /    A nd           | Version:  8
     \\/     M anipulation  |
\*---------------------------------------------------------------------------*/
FoamFile
{
    version     2.0;
    format      ascii;
    class       volVectorField;
    location    "145";
    object      U;
}
// * * * * * * * * * * * * * * * * * * * * * * * * * * * * * * * * * * * * * //

dimensions      [0 1 -1 0 0 0 0];

internalField   nonuniform List<vector> 
12225
(
(9.85701 -0.886579 0)
(9.66626 -0.740735 0)
(9.45572 -0.429404 0)
(9.22435 -0.222147 0)
(9.00626 -0.106378 0)
(8.81398 -0.0457877 0)
(8.64688 -0.0151043 0)
(8.50457 0.000535506 0)
(8.38258 0.00847536 0)
(8.27957 0.0123845 0)
(8.19065 0.0141115 0)
(8.11397 0.0151843 0)
(8.04635 0.0155993 0)
(7.98622 0.0159801 0)
(7.93126 0.0160008 0)
(7.88227 0.0173401 0)
(7.82171 0.0209272 0)
(7.81135 0.0174926 0)
(10.0545 0.227681 0)
(10.1213 0.326999 0)
(10.1196 0.261656 0)
(10.0855 0.186628 0)
(10.0433 0.134728 0)
(9.99658 0.101184 0)
(9.94381 0.0793687 0)
(9.88488 0.0646538 0)
(9.82342 0.0543729 0)
(9.76066 0.046818 0)
(9.699 0.0411096 0)
(9.63884 0.036633 0)
(9.58116 0.0331069 0)
(9.52627 0.0304436 0)
(9.47358 0.0283241 0)
(9.42552 0.027951 0)
(9.37547 0.0258377 0)
(9.34324 0.0404552 0)
(10.0035 0.0581581 0)
(10.0305 0.0559546 0)
(10.056 0.0338009 0)
(10.0703 0.0329178 0)
(10.0769 0.0406893 0)
(10.0777 0.0466034 0)
(10.0723 0.04944 0)
(10.061 0.0504136 0)
(10.0457 0.0503535 0)
(10.027 0.049694 0)
(10.0063 0.0487285 0)
(9.98378 0.0476796 0)
(9.96027 0.0466635 0)
(9.93612 0.0458816 0)
(9.91146 0.0452358 0)
(9.88725 0.0457918 0)
(9.86273 0.0462544 0)
(9.84079 0.051824 0)
(9.99772 0.0109533 0)
(10.0111 0.0266312 0)
(10.035 0.0371521 0)
(10.0524 0.048112 0)
(10.0642 0.0555025 0)
(10.0732 0.05826 0)
(10.0792 0.0584619 0)
(10.082 0.0577609 0)
(10.0823 0.0567659 0)
(10.0806 0.0556444 0)
(10.0773 0.0544755 0)
(10.0726 0.0533981 0)
(10.0669 0.0524284 0)
(10.0604 0.0517353 0)
(10.053 0.0512617 0)
(10.0455 0.0517046 0)
(10.0379 0.0524292 0)
(10.0311 0.0553301 0)
(9.99935 0.00710633 0)
(10.009 0.0317142 0)
(10.0274 0.0439465 0)
(10.0417 0.0499693 0)
(10.0527 0.0536847 0)
(10.0627 0.0553389 0)
(10.0713 0.0556584 0)
(10.078 0.0554176 0)
(10.0829 0.0549406 0)
(10.0866 0.0543266 0)
(10.0892 0.0536426 0)
(10.0909 0.053003 0)
(10.0918 0.0524493 0)
(10.092 0.052113 0)
(10.0918 0.0520041 0)
(10.0914 0.0525031 0)
(10.0911 0.0533196 0)
(10.0914 0.0549686 0)
(10.0003 0.00915819 0)
(10.0083 0.0312358 0)
(10.0227 0.0409938 0)
(10.0349 0.0454614 0)
(10.0449 0.0491344 0)
(10.0546 0.0515036 0)
(10.0635 0.0525299 0)
(10.071 0.0528206 0)
(10.0774 0.0527639 0)
(10.0828 0.0525048 0)
(10.0875 0.0521318 0)
(10.0914 0.051752 0)
(10.0948 0.051427 0)
(10.0978 0.0512569 0)
(10.1003 0.0512769 0)
(10.1028 0.0516734 0)
(10.1055 0.0522952 0)
(10.1088 0.053141 0)
(10.0004 0.00893468 0)
(10.0071 0.0271419 0)
(10.019 0.0364752 0)
(10.0301 0.0414782 0)
(10.0395 0.0455327 0)
(10.0485 0.0482373 0)
(10.057 0.0495575 0)
(10.0646 0.0500928 0)
(10.0712 0.0502525 0)
(10.0772 0.0501908 0)
(10.0826 0.0499977 0)
(10.0874 0.0497684 0)
(10.0918 0.0495699 0)
(10.0959 0.0494754 0)
(10.0998 0.0495195 0)
(10.1036 0.0497782 0)
(10.1075 0.0501458 0)
(10.1119 0.0504705 0)
(10.0004 0.00791381 0)
(10.0059 0.0234244 0)
(10.0161 0.0328073 0)
(10.0262 0.0382054 0)
(10.035 0.042236 0)
(10.0434 0.0449642 0)
(10.0515 0.0464323 0)
(10.0588 0.0471388 0)
(10.0655 0.0474555 0)
(10.0716 0.0475354 0)
(10.0772 0.0474687 0)
(10.0824 0.0473408 0)
(10.0872 0.0472169 0)
(10.0918 0.0471505 0)
(10.0962 0.0471657 0)
(10.1006 0.047279 0)
(10.1051 0.0474015 0)
(10.1099 0.0473677 0)
(10.0004 0.0069662 0)
(10.005 0.0204675 0)
(10.0136 0.0295337 0)
(10.0228 0.0349793 0)
(10.0311 0.0388719 0)
(10.039 0.0415843 0)
(10.0466 0.0431794 0)
(10.0537 0.0440326 0)
(10.0602 0.0444737 0)
(10.0663 0.0446606 0)
(10.0719 0.0446842 0)
(10.0772 0.0446229 0)
(10.0822 0.0445362 0)
(10.087 0.0444639 0)
(10.0917 0.0444189 0)
(10.0963 0.0443895 0)
(10.101 0.044298 0)
(10.1059 0.0440126 0)
(10.0004 0.00614115 0)
(10.0043 0.0179029 0)
(10.0116 0.0263637 0)
(10.0198 0.0317128 0)
(10.0275 0.0354848 0)
(10.035 0.0381672 0)
(10.0422 0.0398476 0)
(10.049 0.0408098 0)
(10.0554 0.0413436 0)
(10.0613 0.0416087 0)
(10.0669 0.0416954 0)
(10.0722 0.041675 0)
(10.0772 0.0416 0)
(10.0821 0.0415011 0)
(10.0869 0.041383 0)
(10.0916 0.0412238 0)
(10.0963 0.0409588 0)
(10.101 0.0404983 0)
(10.0003 0.00538514 0)
(10.0036 0.0155973 0)
(10.0099 0.0233334 0)
(10.0172 0.0284895 0)
(10.0244 0.0321243 0)
(10.0314 0.0347348 0)
(10.0382 0.036445 0)
(10.0447 0.0374756 0)
(10.0509 0.0380737 0)
(10.0567 0.0383931 0)
(10.0622 0.0385216 0)
(10.0674 0.0385229 0)
(10.0724 0.0384435 0)
(10.0773 0.0383076 0)
(10.082 0.0381162 0)
(10.0867 0.037847 0)
(10.0913 0.0374498 0)
(10.096 0.0368718 0)
(10.0003 0.00472276 0)
(10.0032 0.0136621 0)
(10.0086 0.0206951 0)
(10.0152 0.0255894 0)
(10.0218 0.029062 0)
(10.0284 0.0315706 0)
(10.0349 0.0332649 0)
(10.0412 0.0343247 0)
(10.0471 0.0349577 0)
(10.0528 0.0353071 0)
(10.0582 0.0354567 0)
(10.0633 0.0354647 0)
(10.0683 0.0353716 0)
(10.0731 0.0351982 0)
(10.0778 0.034945 0)
(10.0824 0.0345938 0)
(10.0869 0.0341078 0)
(10.0913 0.0334617 0)
(10.0003 0.00410997 0)
(10.0027 0.0118967 0)
(10.0075 0.0182021 0)
(10.0134 0.0227578 0)
(10.0196 0.0260329 0)
(10.0258 0.0284131 0)
(10.0319 0.0300578 0)
(10.0379 0.0311179 0)
(10.0437 0.0317653 0)
(10.0492 0.0321285 0)
(10.0545 0.0322867 0)
(10.0595 0.0322925 0)
(10.0644 0.0321819 0)
(10.0692 0.0319732 0)
(10.0738 0.0316681 0)
(10.0782 0.0312547 0)
(10.0826 0.0307067 0)
(10.0869 0.0300212 0)
(10.0002 0.0034769 0)
(10.0024 0.0100627 0)
(10.0064 0.0155284 0)
(10.0117 0.0196204 0)
(10.0174 0.0226139 0)
(10.0231 0.0248051 0)
(10.0289 0.0263482 0)
(10.0346 0.027369 0)
(10.0401 0.0280033 0)
(10.0455 0.0283608 0)
(10.0506 0.0285126 0)
(10.0555 0.0285059 0)
(10.0603 0.0283715 0)
(10.0649 0.0281268 0)
(10.0694 0.0277752 0)
(10.0738 0.027312 0)
(10.078 0.0267208 0)
(10.0821 0.026016 0)
(10.0002 0.00281938 0)
(10.002 0.00815779 0)
(10.0055 0.0126832 0)
(10.0101 0.0161811 0)
(10.0153 0.0187901 0)
(10.0206 0.0207157 0)
(10.026 0.0220911 0)
(10.0314 0.0230184 0)
(10.0366 0.0235998 0)
(10.0417 0.0239223 0)
(10.0467 0.0240467 0)
(10.0515 0.0240133 0)
(10.0561 0.0238488 0)
(10.0606 0.0235688 0)
(10.065 0.0231803 0)
(10.0692 0.0226833 0)
(10.0732 0.0220728 0)
(10.0771 0.0213709 0)
(10.0002 0.00213646 0)
(10.0017 0.00618301 0)
(10.0047 0.00967344 0)
(10.0087 0.0124425 0)
(10.0134 0.0145463 0)
(10.0182 0.0161114 0)
(10.0233 0.0172378 0)
(10.0283 0.0180023 0)
(10.0333 0.0184771 0)
(10.0382 0.0187252 0)
(10.043 0.0187945 0)
(10.0476 0.018717 0)
(10.0521 0.018515 0)
(10.0564 0.0182025 0)
(10.0606 0.0177884 0)
(10.0646 0.0172774 0)
(10.0684 0.0166698 0)
(10.0721 0.0159946 0)
(10.0002 0.00142486 0)
(10.0015 0.00412333 0)
(10.0041 0.00648112 0)
(10.0076 0.0083849 0)
(10.0118 0.00985022 0)
(10.0163 0.0109436 0)
(10.0209 0.0117263 0)
(10.0257 0.0122475 0)
(10.0304 0.0125515 0)
(10.0351 0.0126788 0)
(10.0396 0.0126606 0)
(10.0441 0.0125202 0)
(10.0484 0.0122733 0)
(10.0525 0.0119321 0)
(10.0565 0.0115042 0)
(10.0603 0.0109974 0)
(10.064 0.0104134 0)
(10.0675 0.009783 0)
(10.0001 0.000667577 0)
(10.0013 0.00192558 0)
(10.0036 0.00303143 0)
(10.0069 0.00392455 0)
(10.0107 0.00460684 0)
(10.0149 0.00510253 0)
(10.0193 0.00543447 0)
(10.0237 0.00562235 0)
(10.0282 0.00568474 0)
(10.0327 0.00563891 0)
(10.0371 0.00549884 0)
(10.0413 0.00527548 0)
(10.0454 0.00497693 0)
(10.0494 0.00461015 0)
(10.0532 0.00418056 0)
(10.0568 0.0036942 0)
(10.0603 0.00315342 0)
(10.0636 0.0025847 0)
(10.0001 -0.000179015 0)
(10.0013 -0.000534092 0)
(10.0035 -0.000851539 0)
(10.0066 -0.00113407 0)
(10.0103 -0.0013805 0)
(10.0143 -0.00160324 0)
(10.0186 -0.00182086 0)
(10.0229 -0.00204546 0)
(10.0273 -0.00228566 0)
(10.0316 -0.00254739 0)
(10.0358 -0.00283677 0)
(10.0399 -0.00315687 0)
(10.0439 -0.00351039 0)
(10.0477 -0.00389737 0)
(10.0514 -0.00431821 0)
(10.0549 -0.00477054 0)
(10.0582 -0.00525483 0)
(10.0614 -0.00575079 0)
(10.0001 -0.000990074 0)
(10.0013 -0.00289733 0)
(10.0037 -0.00458888 0)
(10.007 -0.00599371 0)
(10.0109 -0.00710806 0)
(10.0151 -0.00799128 0)
(10.0194 -0.00870471 0)
(10.0238 -0.00929149 0)
(10.0282 -0.0097857 0)
(10.0325 -0.0102205 0)
(10.0368 -0.0106204 0)
(10.0408 -0.0110042 0)
(10.0447 -0.0113826 0)
(10.0485 -0.0117652 0)
(10.0521 -0.0121562 0)
(10.0555 -0.0125599 0)
(10.0588 -0.0129774 0)
(10.0618 -0.0133972 0)
(10.0002 -0.00168989 0)
(10.0015 -0.00496248 0)
(10.0041 -0.00785638 0)
(10.0078 -0.0101763 0)
(10.012 -0.0119432 0)
(10.0165 -0.0133069 0)
(10.0211 -0.0143735 0)
(10.0257 -0.0152011 0)
(10.0302 -0.0158463 0)
(10.0346 -0.0163691 0)
(10.0389 -0.0168137 0)
(10.043 -0.0172103 0)
(10.0469 -0.0175775 0)
(10.0506 -0.017931 0)
(10.0542 -0.018279 0)
(10.0576 -0.0186287 0)
(10.0608 -0.0189831 0)
(10.0638 -0.0193341 0)
(10.0002 -0.00235422 0)
(10.0017 -0.00700225 0)
(10.0047 -0.0111205 0)
(10.009 -0.0142652 0)
(10.0138 -0.0165375 0)
(10.0186 -0.0182473 0)
(10.0235 -0.0195555 0)
(10.0283 -0.0205328 0)
(10.033 -0.0212616 0)
(10.0376 -0.0218229 0)
(10.0419 -0.0222745 0)
(10.046 -0.0226524 0)
(10.05 -0.022985 0)
(10.0537 -0.0232905 0)
(10.0573 -0.0235843 0)
(10.0607 -0.0238719 0)
(10.0639 -0.0241611 0)
(10.0669 -0.0244434 0)
(10.0002 -0.00297531 0)
(10.0018 -0.0090671 0)
(10.0054 -0.0144059 0)
(10.0105 -0.018276 0)
(10.0159 -0.0210009 0)
(10.0212 -0.0230046 0)
(10.0264 -0.0244424 0)
(10.0315 -0.0254399 0)
(10.0365 -0.0261518 0)
(10.0411 -0.0266881 0)
(10.0456 -0.0271058 0)
(10.0498 -0.0274408 0)
(10.0538 -0.0277231 0)
(10.0575 -0.0279753 0)
(10.0611 -0.0282116 0)
(10.0645 -0.0284406 0)
(10.0677 -0.0286677 0)
(10.0707 -0.0288894 0)
(10.0001 -0.00352121 0)
(10.0018 -0.0115302 0)
(10.0063 -0.0178554 0)
(10.0123 -0.0219374 0)
(10.0184 -0.0249886 0)
(10.0241 -0.0273833 0)
(10.0298 -0.0290075 0)
(10.0352 -0.0300048 0)
(10.0403 -0.0306459 0)
(10.0451 -0.0310959 0)
(10.0497 -0.0314224 0)
(10.0539 -0.0316668 0)
(10.058 -0.0318625 0)
(10.0618 -0.0320345 0)
(10.0653 -0.0321951 0)
(10.0687 -0.0323531 0)
(10.0718 -0.0325104 0)
(10.0748 -0.032665 0)
(9.99991 -0.00336697 0)
(10.0016 -0.0149677 0)
(10.0073 -0.0227076 0)
(10.0143 -0.0262035 0)
(10.0207 -0.0287765 0)
(10.0269 -0.03113 0)
(10.0332 -0.0328404 0)
(10.0392 -0.0339187 0)
(10.0446 -0.0346099 0)
(10.0496 -0.0350664 0)
(10.0543 -0.035359 0)
(10.0587 -0.0355423 0)
(10.0627 -0.0356623 0)
(10.0664 -0.0357496 0)
(10.0698 -0.0358227 0)
(10.073 -0.0358915 0)
(10.076 -0.0359608 0)
(10.0787 -0.0360286 0)
(9.99859 -0.000376004 0)
(9.99904 -0.0157833 0)
(10.0076 -0.027413 0)
(10.0166 -0.0324591 0)
(10.0238 -0.034826 0)
(10.0307 -0.0361733 0)
(10.0377 -0.0369172 0)
(10.0443 -0.0373772 0)
(10.05 -0.0377198 0)
(10.0552 -0.0379615 0)
(10.0598 -0.0381025 0)
(10.0639 -0.0381691 0)
(10.0675 -0.0381895 0)
(10.0707 -0.0381852 0)
(10.0735 -0.0381716 0)
(10.076 -0.0381576 0)
(10.0781 -0.0381472 0)
(10.08 -0.0381369 0)
(9.99487 0.0014097 0)
(9.99288 -0.00811355 0)
(10.0061 -0.0203137 0)
(10.0202 -0.0322388 0)
(10.0307 -0.0404393 0)
(10.0393 -0.0441073 0)
(10.0468 -0.0450151 0)
(10.053 -0.0448667 0)
(10.058 -0.0443959 0)
(10.0618 -0.043796 0)
(10.0649 -0.0431491 0)
(10.0671 -0.0425119 0)
(10.0685 -0.0419176 0)
(10.0694 -0.0413744 0)
(10.0698 -0.0408917 0)
(10.0697 -0.0404676 0)
(10.0692 -0.0400987 0)
(10.0685 -0.0397591 0)
(9.9947 -0.0305746 0)
(9.99944 -0.0228426 0)
(10.0147 -0.00260624 0)
(10.0304 -0.00188195 0)
(10.0435 -0.0116294 0)
(10.0534 -0.0208914 0)
(10.0595 -0.0272464 0)
(10.062 -0.0314704 0)
(10.0617 -0.0342424 0)
(10.0593 -0.0359362 0)
(10.0553 -0.0368672 0)
(10.05 -0.0373003 0)
(10.0438 -0.0374261 0)
(10.0368 -0.0373647 0)
(10.0293 -0.0372049 0)
(10.0214 -0.0370051 0)
(10.0133 -0.0368287 0)
(10.0051 -0.0366433 0)
(10.0274 -0.183005 0)
(10.0766 -0.28832 0)
(10.0871 -0.247813 0)
(10.0777 -0.186548 0)
(10.0664 -0.140308 0)
(10.0538 -0.108224 0)
(10.0366 -0.0858737 0)
(10.0146 -0.0704121 0)
(9.98951 -0.0596381 0)
(9.96251 -0.0518602 0)
(9.93457 -0.0460367 0)
(9.90629 -0.0415379 0)
(9.87815 -0.0379814 0)
(9.85049 -0.0351059 0)
(9.82353 -0.0327441 0)
(9.7974 -0.0308225 0)
(9.77234 -0.0293082 0)
(9.74837 -0.028497 0)
(9.93575 0.689542 0)
(9.86829 0.609598 0)
(9.76461 0.380611 0)
(9.62668 0.217419 0)
(9.48598 0.119252 0)
(9.35733 0.0631717 0)
(9.24286 0.0315612 0)
(9.14133 0.0136109 0)
(9.05171 0.00325847 0)
(8.97278 -0.00280195 0)
(8.90293 -0.00635535 0)
(8.8408 -0.0084733 0)
(8.78514 -0.00971999 0)
(8.73507 -0.0104781 0)
(8.68968 -0.01096 0)
(8.64837 -0.0112387 0)
(8.6102 -0.0114659 0)
(8.57486 -0.0121083 0)
(0.0108017 -0.0220376 -6.12386e-19)
(0.0284615 -0.0235063 3.42274e-19)
(0.0382149 -0.0138036 0)
(0.0422919 -0.00255903 0)
(0.0391111 0.00719404 0)
(0.0301348 0.0144336 -1.36588e-19)
(0.0168822 0.0192674 0)
(0.000555581 0.0222096 0)
(-0.0179145 0.0238549 0)
(-0.0379033 0.0247603 0)
(-0.0589899 0.0255435 8.3286e-20)
(-0.0807615 0.0270153 0)
(-0.103062 0.0301368 0)
(-0.125426 0.0364767 0)
(-0.146957 0.0471725 0)
(-0.175351 0.0362264 1.29699e-19)
(-0.207567 0.00417753 0)
(-0.227676 0.00182234 0)
(-0.25454 0.00491999 0)
(-0.285338 0.00854079 0)
(-0.319276 0.0129579 0)
(-0.35542 0.0192229 0)
(-0.394015 0.0272603 0)
(-0.433042 0.0341244 9.22564e-20)
(-0.477969 0.0253876 -7.12961e-20)
(-0.518311 0.0694381 5.62126e-20)
(-0.555423 0.0824205 6.67562e-20)
(-0.606889 0.0396729 0)
(-0.643882 0.0392987 0)
(-0.683983 0.0401985 -6.88136e-20)
(-0.725141 0.0406721 -6.5941e-20)
(-0.766756 0.0407101 0)
(-0.808531 0.0405133 0)
(-0.850288 0.0401622 -5.87188e-20)
(-0.89192 0.0397243 0)
(-0.933363 0.0392292 0)
(-0.974582 0.0387095 5.3161e-20)
(-1.01556 0.0381764 0)
(-1.05628 0.0376495 5.01304e-20)
(-1.09676 0.0371307 9.75477e-20)
(-1.137 0.0366325 0)
(-1.177 0.0361495 0)
(-1.21679 0.0356877 0)
(-1.25638 0.0352411 0)
(-1.29578 0.0348186 0)
(-1.335 0.0344125 8.45166e-20)
(-1.37406 0.0340292 8.27562e-20)
(-1.41298 0.0336593 8.10832e-20)
(-1.45176 0.0333081 0)
(-1.49041 0.0329659 -7.79743e-20)
(-1.52895 0.0326389 0)
(-1.56737 0.0323162 7.51357e-20)
(-1.60568 0.0320048 7.38046e-20)
(-1.64387 0.0316952 0)
(-1.68193 0.031393 0)
(-1.71987 0.0310866 0)
(-1.75766 0.0307836 6.89592e-20)
(-1.7953 0.030474 0)
(-1.83277 0.0301648 0)
(-1.87006 0.0298442 0)
(-1.90715 0.0295215 0)
(-1.94402 0.029186 0)
(-1.98064 0.0288462 0)
(-2.01698 0.0284898 0)
(-2.05303 0.0281271 0)
(-2.08876 0.027746 -6.00358e-20)
(-2.12414 0.0273585 0)
(-2.15913 0.0269528 0)
(-2.1937 0.0265418 5.74568e-20)
(-2.22781 0.0261136 5.66258e-20)
(-2.26142 0.0256809 0)
(-2.2945 0.0252301 -5.50013e-20)
(-2.32699 0.0247711 5.42062e-20)
(-2.35884 0.0242845 0)
(-2.39001 0.0237743 -5.26452e-20)
(-2.42043 0.0232152 0)
(-2.45004 0.0226104 0)
(-2.47878 0.0219377 5.03589e-20)
(-2.50656 0.0211991 0)
(-2.53331 0.0203688 -4.88523e-20)
(-2.55895 0.0194528 0)
(-2.58338 0.018434 4.73432e-20)
(-2.60648 0.0173273 4.65848e-20)
(-2.62817 0.0161237 4.5823e-20)
(-2.64829 0.0148473 9.01161e-20)
(-2.66672 0.0134945 -8.85799e-20)
(-2.68328 0.0120873 0)
(-2.69778 0.0106125 0)
(-2.71002 0.00907244 0)
(-2.71971 0.00747268 -8.2354e-20)
(-2.72668 0.00581395 -8.07561e-20)
(-2.73071 0.00417686 7.90866e-20)
(-2.73201 0.00260414 0)
(-2.73072 0.00104813 -7.5501e-20)
(-2.72673 -0.000563775 -7.35887e-20)
(-2.71993 -0.0022525 -7.15813e-20)
(-2.7102 -0.00403438 0)
(-2.69741 -0.00591197 0)
(-2.68144 -0.00789228 0)
(-2.66216 -0.00997469 -6.23144e-20)
(-2.63944 -0.0121605 0)
(-2.61316 -0.0144479 0)
(-2.58323 -0.0168334 5.3571e-20)
(-2.54955 -0.0193154 0)
(-2.51202 -0.0218863 0)
(-2.47059 -0.0245409 4.26248e-20)
(-2.42522 -0.0272643 0)
(-2.37587 -0.0300469 0)
(-2.32256 -0.0328701 -2.87625e-20)
(-2.26533 -0.0356996 -2.33629e-20)
(-2.20424 -0.0385397 0)
(-2.13937 -0.0413582 1.12252e-20)
(-2.07086 -0.0441057 0)
(-1.99884 -0.046798 2.8704e-21)
(-1.92351 -0.0494049 0)
(-1.84511 -0.0518774 1.91266e-20)
(-1.76383 -0.0542334 2.81174e-20)
(-1.68005 -0.0564067 0)
(-1.59401 -0.0584144 0)
(-1.506 -0.0602083 0)
(-1.4163 -0.0617817 0)
(-1.32523 -0.0630991 0)
(-1.23317 -0.0641777 0)
(-1.14054 -0.0650109 0)
(-1.04773 -0.0656181 1.24352e-19)
(-0.95511 -0.0659759 -1.39853e-19)
(-0.863017 -0.0661127 0)
(-0.771773 -0.0660017 0)
(-0.681677 -0.065678 0)
(-0.593023 -0.0651204 0)
(-0.50607 -0.0643689 -4.63563e-19)
(-0.421071 -0.063405 0)
(-0.338237 -0.0622728 5.52899e-19)
(-0.25781 -0.0609482 -6.0156e-19)
(-0.179927 -0.0594568 0)
(-0.104763 -0.0578173 0)
(-0.0323694 -0.0559676 0)
(0.038052 -0.0535344 7.68742e-19)
(0.106042 -0.0505268 7.50056e-19)
(0.170551 -0.0472871 0)
(0.231587 -0.0440827 7.19923e-19)
(0.28911 -0.0409735 7.07497e-19)
(0.343153 -0.0379879 -6.96416e-19)
(0.393776 -0.0351348 0)
(0.441061 -0.0324206 0)
(0.485111 -0.029843 -6.69701e-19)
(0.526049 -0.027403 0)
(0.564006 -0.0250977 0)
(0.599125 -0.0229268 0)
(0.631558 -0.0208885 0)
(0.661461 -0.0189821 6.40061e-19)
(0.689 -0.017205 6.35591e-19)
(0.714346 -0.015556 0)
(0.737675 -0.0140323 6.27601e-19)
(0.759171 -0.0126338 0)
(0.779021 -0.0113609 0)
(0.797414 -0.0102138 6.17113e-19)
(0.814541 -0.00918892 0)
(0.830593 -0.00828464 6.10586e-19)
(0.845761 -0.00750001 0)
(0.860233 -0.00683356 0)
(0.874193 -0.00627873 6.0083e-19)
(0.887821 -0.00582846 0)
(0.901288 -0.00547498 5.94002e-19)
(0.914759 -0.00521155 0)
(0.928385 -0.00503168 0)
(0.942304 -0.004927 0)
(0.956639 -0.00488684 -5.78663e-19)
(0.971498 -0.00490072 0)
(0.986963 -0.00495744 5.6997e-19)
(1.00309 -0.00504075 0)
(1.0199 -0.00513228 0)
(1.03738 -0.00520486 0)
(1.05538 -0.00522161 0)
(1.07373 -0.00511682 0)
(1.0917 -0.00477577 0)
(1.10901 -0.0039077 0)
(1.12034 -0.00175521 -1.07225e-18)
(1.13159 0.0031961 0)
(1.08682 0.0182936 0)
(0.00564645 -0.0560917 1.34512e-18)
(0.0113223 -0.0403429 -5.62455e-19)
(0.0086924 -0.0169027 0)
(0.00269668 0.00358988 1.67119e-19)
(-0.00663489 0.0208807 0)
(-0.0192267 0.0347244 6.18672e-20)
(-0.0348319 0.0452836 -1.1258e-19)
(-0.0532385 0.0530328 -1.04417e-19)
(-0.0741993 0.0585891 0)
(-0.0975066 0.0625845 -9.3212e-20)
(-0.122998 0.0656234 -4.50751e-20)
(-0.150523 0.0682487 0)
(-0.180004 0.0709533 0)
(-0.211141 0.0742526 0)
(-0.243115 0.0785536 0)
(-0.280042 0.0821059 -5.64009e-20)
(-0.320251 0.0832347 0)
(-0.362055 0.0866437 1.0946e-19)
(-0.403302 0.0911885 0)
(-0.444138 0.0955841 0)
(-0.484947 0.0993477 -9.0588e-20)
(-0.525927 0.102611 0)
(-0.566838 0.105712 7.94006e-20)
(-0.607703 0.108116 -3.71365e-20)
(-0.651768 0.108388 3.43628e-20)
(-0.691094 0.107498 -3.15987e-20)
(-0.731996 0.108562 -3.21434e-20)
(-0.773774 0.106902 0)
(-0.818123 0.1067 0)
(-0.860634 0.106446 2.97713e-20)
(-0.90188 0.10583 -2.87667e-20)
(-0.94229 0.104866 0)
(-0.982086 0.103666 0)
(-1.02138 0.102308 2.69398e-20)
(-1.06022 0.100863 0)
(-1.09865 0.0993713 0)
(-1.1367 0.0978728 -2.52727e-20)
(-1.17439 0.0963859 0)
(-1.21174 0.094932 2.41319e-20)
(-1.24878 0.0935167 -4.77669e-20)
(-1.28553 0.0921517 0)
(-1.322 0.0908354 0)
(-1.35821 0.0895737 -9.0406e-20)
(-1.39418 0.0883596 -8.89697e-20)
(-1.42992 0.0871955 -8.75991e-20)
(-1.46545 0.0860718 4.29599e-20)
(-1.50077 0.0849896 -4.26996e-20)
(-1.53589 0.0839374 -1.25921e-19)
(-1.57082 0.0829152 8.2663e-20)
(-1.60555 0.0819105 4.09518e-20)
(-1.64008 0.0809243 0)
(-1.67442 0.0799445 -3.98828e-20)
(-1.70854 0.0789733 3.90174e-20)
(-1.74245 0.0779994 0)
(-1.77613 0.0770248 0)
(-1.80957 0.0760367 0)
(-1.84275 0.0750385 -3.74575e-20)
(-1.87566 0.0740191 0)
(-1.90827 0.0729823 7.27879e-20)
(-1.94057 0.0719157 0)
(-1.97253 0.0708254 7.10665e-20)
(-2.00414 0.0697005 0)
(-2.03535 0.0685466 -6.93957e-20)
(-2.06614 0.0673507 0)
(-2.09649 0.0661196 6.77643e-20)
(-2.12637 0.0648399 -3.33257e-20)
(-2.15573 0.0635195 0)
(-2.18455 0.0621444 -6.5368e-20)
(-2.21279 0.0607227 -3.24358e-20)
(-2.24041 0.0592394 -3.20393e-20)
(-2.26736 0.0577032 0)
(-2.2936 0.0560996 -3.09687e-20)
(-2.3191 0.0544397 -3.08515e-20)
(-2.3438 0.0527105 0)
(-2.36766 0.0509233 3.00588e-20)
(-2.39062 0.0490618 -5.90586e-20)
(-2.41262 0.0471341 0)
(-2.43359 0.0451213 -2.88575e-20)
(-2.45346 0.0430267 0)
(-2.47216 0.0408246 8.38687e-20)
(-2.48962 0.0385153 0)
(-2.50575 0.0360722 -8.13528e-20)
(-2.52048 0.033495 -2.67573e-20)
(-2.53371 0.0307574 2.61227e-20)
(-2.54538 0.0278637 5.13792e-20)
(-2.55541 0.0247935 -5.04976e-20)
(-2.56372 0.0215531 0)
(-2.57027 0.0181254 0)
(-2.57503 0.0145238 0)
(-2.578 0.0107718 1.40677e-19)
(-2.57922 0.0069219 4.59356e-20)
(-2.57874 0.00305483 -4.485e-20)
(-2.57623 -0.00081432 0)
(-2.57129 -0.00473447 -4.24247e-20)
(-2.56375 -0.00875904 4.13201e-20)
(-2.55346 -0.012901 4.00408e-20)
(-2.54028 -0.0171715 0)
(-2.52407 -0.0215634 0)
(-2.5047 -0.0260758 0)
(-2.48206 -0.0306951 3.42581e-20)
(-2.45601 -0.0354112 0)
(-2.42645 -0.040207 -6.21379e-20)
(-2.39328 -0.0450639 -8.75694e-20)
(-2.35641 -0.0499635 5.47343e-20)
(-2.31574 -0.0548808 0)
(-2.27123 -0.0597936 2.36154e-20)
(-2.22284 -0.0646699 0)
(-2.17055 -0.0694826 3.7009e-20)
(-2.11438 -0.0741979 -1.65578e-20)
(-2.05438 -0.0787842 -1.39164e-20)
(-1.99061 -0.0832049 0)
(-1.9232 -0.0874342 -2.11534e-20)
(-1.85228 -0.0914417 8.29101e-21)
(-1.77803 -0.0951844 -1.84485e-22)
(-1.70068 -0.0985985 0)
(-1.62043 -0.101628 -7.47149e-21)
(-1.53757 -0.104317 -3.1589e-20)
(-1.45243 -0.10665 0)
(-1.36532 -0.108583 -3.62341e-20)
(-1.27655 -0.110088 -4.45925e-20)
(-1.18644 -0.11115 -5.3172e-20)
(-1.09533 -0.111751 0)
(-1.00362 -0.111911 0)
(-0.9117 -0.111634 0)
(-0.819971 -0.110963 4.30546e-20)
(-0.7288 -0.109901 5.07569e-20)
(-0.638531 -0.108487 0)
(-0.549483 -0.106721 1.17144e-19)
(-0.461953 -0.104649 1.26516e-19)
(-0.376219 -0.102274 0)
(-0.292531 -0.0996481 1.48146e-19)
(-0.211126 -0.0967726 3.0882e-19)
(-0.132188 -0.0936854 -1.66403e-19)
(-0.05592 -0.0904019 -1.69821e-19)
(0.0177896 -0.0871115 0)
(0.0887148 -0.0838275 0)
(0.156497 -0.080396 0)
(0.220862 -0.0765346 -1.92559e-19)
(0.281708 -0.0721811 1.91648e-19)
(0.339276 -0.0676273 3.93942e-19)
(0.393763 -0.0630996 -2.01847e-19)
(0.445215 -0.0586819 2.01121e-19)
(0.493668 -0.0544192 2.07024e-19)
(0.539169 -0.0503344 0)
(0.581784 -0.0464432 0)
(0.621602 -0.0427531 -2.10807e-19)
(0.658726 -0.0392706 0)
(0.693273 -0.0359974 0)
(0.725374 -0.0329367 4.34397e-19)
(0.75517 -0.0300888 0)
(0.782809 -0.0274561 2.19075e-19)
(0.808448 -0.0250365 -2.21692e-19)
(0.832251 -0.0228308 0)
(0.854388 -0.0208351 2.22259e-19)
(0.875034 -0.0190504 0)
(0.894367 -0.0174708 0)
(0.912568 -0.0160955 -2.24987e-19)
(0.929819 -0.0149161 4.49876e-19)
(0.946302 -0.0139303 -2.25458e-19)
(0.962198 -0.0131276 0)
(0.977684 -0.0125041 0)
(0.992931 -0.0120466 2.24997e-19)
(1.00811 -0.0117486 0)
(1.02337 -0.0115951 2.24572e-19)
(1.03887 -0.0115784 0)
(1.05474 -0.0116796 0)
(1.07111 -0.0118865 0)
(1.08809 -0.0121779 2.22824e-19)
(1.10576 -0.0125404 0)
(1.12421 -0.0129487 -2.21334e-19)
(1.14348 -0.0133811 0)
(1.16359 -0.0138001 0)
(1.1845 -0.0141629 4.37021e-19)
(1.20611 -0.0143933 -4.35062e-19)
(1.22823 -0.0143652 0)
(1.25035 -0.0138461 0)
(1.27212 -0.0122509 0)
(1.29048 -0.00852392 1.28932e-18)
(1.3095 0.000708517 0)
(1.30922 0.0235143 -8.75151e-19)
(-0.00379618 -0.0585817 -1.38418e-21)
(-0.0088717 -0.0274941 5.48258e-19)
(-0.0190901 0.00276444 0)
(-0.0320434 0.0282012 -2.22399e-19)
(-0.0470124 0.049888 0)
(-0.0637879 0.0682167 0)
(-0.082485 0.0834314 1.33929e-22)
(-0.103276 0.0958763 6.97413e-20)
(-0.126269 0.106039 6.61089e-20)
(-0.151504 0.114504 6.36419e-20)
(-0.178937 0.121904 0)
(-0.208413 0.128857 0)
(-0.239689 0.135879 -5.9146e-20)
(-0.272465 0.143213 -1.17931e-19)
(-0.306519 0.150481 1.18547e-19)
(-0.342306 0.156334 0)
(-0.379838 0.160454 1.16895e-19)
(-0.418566 0.164657 -5.66481e-20)
(-0.457581 0.168996 0)
(-0.496465 0.173038 1.04225e-19)
(-0.535064 0.176439 4.98397e-20)
(-0.573326 0.179069 -9.55591e-20)
(-0.611152 0.180831 -4.57864e-20)
(-0.648472 0.181507 0)
(-0.685516 0.181002 8.45277e-20)
(-0.721824 0.180812 8.16159e-20)
(-0.757797 0.179833 0)
(-0.793987 0.176591 7.79352e-20)
(-0.830653 0.173769 0)
(-0.867014 0.171223 7.42146e-20)
(-0.90288 0.168745 3.63417e-20)
(-0.938268 0.16624 0)
(-0.973233 0.163694 0)
(-1.00783 0.161123 0)
(-1.04209 0.158551 0)
(-1.07606 0.156003 0)
(-1.10976 0.153502 0)
(-1.14321 0.151063 6.32728e-20)
(-1.17643 0.148698 -9.34502e-20)
(-1.20943 0.146413 0)
(-1.24223 0.144211 0)
(-1.27484 0.142092 0)
(-1.30727 0.140054 1.96303e-22)
(-1.33953 0.138092 5.79646e-20)
(-1.37162 0.1362 1.14173e-19)
(-1.40354 0.134368 -1.12676e-19)
(-1.4353 0.132589 -5.55164e-20)
(-1.46691 0.130852 5.50223e-20)
(-1.49835 0.12915 -2.02569e-22)
(-1.52963 0.127471 5.34931e-20)
(-1.56074 0.125809 0)
(-1.59168 0.124154 5.22402e-20)
(-1.62243 0.1225 -2.02211e-22)
(-1.65298 0.120838 0)
(-1.68333 0.119163 0)
(-1.71346 0.117465 -4.99026e-20)
(-1.74335 0.115742 0)
(-1.77298 0.113984 0)
(-1.80235 0.11219 4.80585e-20)
(-1.83142 0.11035 9.54384e-20)
(-1.86017 0.108465 -4.73819e-20)
(-1.88858 0.106526 0)
(-1.91663 0.104533 4.63316e-20)
(-1.9443 0.102478 0)
(-1.97154 0.10036 4.49238e-20)
(-1.99833 0.0981714 4.4776e-20)
(-2.02465 0.0959123 -8.81601e-20)
(-2.05046 0.0935749 -4.33895e-20)
(-2.07573 0.0911583 0)
(-2.10042 0.088654 8.50735e-20)
(-2.12449 0.0860605 0)
(-2.1479 0.0833688 1.24662e-19)
(-2.17062 0.0805777 8.19527e-20)
(-2.19259 0.0776785 8.08995e-20)
(-2.21379 0.0746702 -7.9838e-20)
(-2.23414 0.0715437 1.183e-19)
(-2.25361 0.0682971 0)
(-2.27213 0.0649188 0)
(-2.28964 0.0614036 -7.54823e-20)
(-2.30609 0.0577368 -1.11674e-19)
(-2.3214 0.053912 0)
(-2.33552 0.0499145 3.61541e-20)
(-2.34836 0.0457394 0)
(-2.35987 0.0413756 -1.04624e-19)
(-2.36998 0.0368244 -2.04554e-22)
(-2.37861 0.0320823 1.8587e-22)
(-2.38568 0.0271563 6.59332e-20)
(-2.39113 0.0220481 0)
(-2.39486 0.0167672 -6.32968e-20)
(-2.39678 0.0113196 -1.07916e-22)
(-2.39679 0.00570348 0)
(-2.39475 -0.000107635 0)
(-2.39048 -0.00613397 0)
(-2.38383 -0.0123753 5.5773e-20)
(-2.37464 -0.0188253 0)
(-2.36278 -0.0254816 0)
(-2.34811 -0.0323376 0)
(-2.33051 -0.0393843 0)
(-2.30983 -0.0466083 0)
(-2.28597 -0.0539916 4.46052e-20)
(-2.2588 -0.0615121 0)
(-2.22822 -0.069142 3.98536e-20)
(-2.19413 -0.0768506 3.74127e-20)
(-2.15643 -0.0846022 -3.48453e-20)
(-2.11506 -0.0923577 0)
(-2.06996 -0.100073 -2.93004e-20)
(-2.0211 -0.1077 0)
(-1.96848 -0.115187 -2.31653e-20)
(-1.91213 -0.122477 1.98639e-20)
(-1.85208 -0.129513 5.10022e-20)
(-1.78844 -0.136234 0)
(-1.72132 -0.142589 2.9131e-20)
(-1.65088 -0.148519 7.36686e-21)
(-1.57731 -0.153982 0)
(-1.50083 -0.158896 -3.86499e-21)
(-1.42167 -0.163181 -1.24337e-20)
(-1.34013 -0.166831 3.33371e-20)
(-1.25653 -0.169858 0)
(-1.1712 -0.172208 2.13533e-20)
(-1.08446 -0.17385 2.61114e-20)
(-0.996627 -0.17476 8.9407e-20)
(-0.908068 -0.174934 0)
(-0.819153 -0.17439 0)
(-0.730269 -0.173163 0)
(-0.641789 -0.171292 4.68675e-20)
(-0.554068 -0.168818 0)
(-0.467433 -0.165782 0)
(-0.38219 -0.162224 -6.49711e-20)
(-0.298618 -0.158196 -6.96793e-20)
(-0.216978 -0.15374 0)
(-0.137492 -0.148909 0)
(-0.0603743 -0.143753 -1.6655e-19)
(0.0142941 -0.138378 0)
(0.0863053 -0.13284 1.80069e-19)
(0.155445 -0.127108 1.82502e-19)
(0.221563 -0.121194 0)
(0.284584 -0.115183 0)
(0.344444 -0.109108 -1.97745e-19)
(0.40114 -0.102937 -2.47703e-21)
(0.454792 -0.096707 -2.32301e-21)
(0.505509 -0.0905304 0)
(0.553354 -0.0844793 -4.32201e-19)
(0.598382 -0.0786055 0)
(0.640655 -0.0729439 0)
(0.680254 -0.0675225 0)
(0.717273 -0.0623593 2.29978e-19)
(0.751823 -0.0574705 0)
(0.784024 -0.0528648 -4.67709e-19)
(0.81401 -0.0485521 -2.37348e-19)
(0.841923 -0.0445372 0)
(0.867913 -0.0408265 -2.41276e-19)
(0.892137 -0.0374205 0)
(0.914757 -0.0343223 0)
(0.935941 -0.0315293 -7.36142e-19)
(0.955861 -0.0290424 4.92829e-19)
(0.97469 -0.0268558 0)
(0.992601 -0.0249672 4.96853e-19)
(1.00977 -0.0233662 -2.49597e-19)
(1.02637 -0.022048 0)
(1.04258 -0.0209992 0)
(1.05855 -0.0202118 0)
(1.07446 -0.0196678 -7.53004e-19)
(1.09045 -0.0193556 0)
(1.10668 -0.0192539 -2.51257e-19)
(1.12327 -0.0193488 0)
(1.14036 -0.0196147 0)
(1.15806 -0.0200324 0)
(1.17648 -0.0205726 0)
(1.19568 -0.0212133 0)
(1.21574 -0.0219182 0)
(1.23671 -0.0226541 -4.97292e-19)
(1.25859 -0.0233664 0)
(1.28135 -0.0239907 -2.47468e-19)
(1.30491 -0.0244156 7.39986e-19)
(1.32911 -0.0244656 0)
(1.35354 -0.0238126 0)
(1.37801 -0.0217772 -4.89717e-19)
(1.40053 -0.0171102 -4.8999e-19)
(1.42467 -0.00701199 4.92332e-19)
(1.43908 0.0162459 4.99441e-19)
(-0.012121 -0.0379045 -1.92524e-18)
(-0.0245819 0.00156227 -6.55342e-19)
(-0.0401388 0.0350823 -2.41227e-19)
(-0.0583784 0.0629863 -8.70643e-20)
(-0.0778229 0.0870943 0)
(-0.0982043 0.108093 1.26596e-19)
(-0.119736 0.126324 -5.78307e-20)
(-0.142666 0.142084 0)
(-0.167163 0.155733 -5.16357e-20)
(-0.193307 0.167693 0)
(-0.221069 0.178409 9.51341e-20)
(-0.250302 0.188276 0)
(-0.280759 0.197561 4.48425e-20)
(-0.312159 0.206308 8.73454e-20)
(-0.344285 0.214285 -8.52259e-20)
(-0.377088 0.221057 0)
(-0.410571 0.226483 -8.09144e-20)
(-0.444597 0.231025 0)
(-0.478851 0.234881 0)
(-0.513069 0.238031 -7.37605e-20)
(-0.547079 0.240395 0)
(-0.580782 0.241935 6.84822e-23)
(-0.614107 0.242637 0)
(-0.647015 0.24248 0)
(-0.679536 0.241512 -3.67243e-23)
(-0.711661 0.239971 -6.16477e-20)
(-0.743455 0.237743 -6.01424e-20)
(-0.775121 0.234613 -5.86858e-20)
(-0.806807 0.231182 0)
(-0.838413 0.227675 -1.12157e-19)
(-0.869846 0.224152 0)
(-0.901067 0.220632 -5.3759e-20)
(-0.932065 0.217128 0)
(-0.962848 0.213657 0)
(-0.993427 0.210237 5.07867e-20)
(-1.02381 0.206886 0)
(-1.05402 0.20362 -4.90739e-20)
(-1.08407 0.200448 -7.00345e-23)
(-1.11396 0.197379 9.51556e-20)
(-1.1437 0.194414 -9.36653e-20)
(-1.1733 0.191555 0)
(-1.20276 0.188798 0)
(-1.23209 0.186137 -4.48153e-20)
(-1.2613 0.183566 0)
(-1.29037 0.181074 -4.38336e-20)
(-1.31932 0.178651 4.32909e-20)
(-1.34815 0.176287 4.27671e-20)
(-1.37684 0.173969 0)
(-1.40539 0.171686 -4.17692e-20)
(-1.43381 0.169426 -4.12918e-20)
(-1.46208 0.167179 8.14618e-20)
(-1.4902 0.164933 -4.03727e-20)
(-1.51816 0.162681 -3.99285e-20)
(-1.54593 0.160412 0)
(-1.57352 0.158118 0)
(-1.60091 0.15579 3.86447e-20)
(-1.62808 0.15342 0)
(-1.65501 0.151002 0)
(-1.68168 0.148529 -7.48293e-20)
(-1.70809 0.145994 -7.40259e-20)
(-1.73419 0.143393 0)