# vtk DataFile Version 2.0
track0
ASCII
DATASET POLYDATA
POINTS 12040 float
-0.0205 0.001 1e-05
-0.02052 0.000999985 1e-05
-0.02054 0.000999974 1e-05
-0.02056 0.000999965 1e-05
-0.02058 0.000999959 1e-05
-0.0206 0.000999956 1e-05
-0.0205 0.00367778 1e-05
-0.02052 0.00367778 1e-05
-0.02054 0.00367777 1e-05
-0.02056 0.00367777 1e-05
-0.02058 0.00367777 1e-05
-0.0206 0.00367777 1e-05
-0.0205 0.00635556 1e-05
-0.02052 0.00635555 1e-05
-0.02054 0.00635555 1e-05
-0.02056 0.00635555 1e-05
-0.02058 0.00635555 1e-05
-0.0206 0.00635555 1e-05
-0.0205 0.00903333 1e-05
-0.02052 0.00903333 1e-05
-0.02054 0.00903333 1e-05
-0.02056 0.00903333 1e-05
-0.02058 0.00903333 1e-05
-0.0206 0.00903333 1e-05
-0.0205 0.0117111 1e-05
-0.02052 0.0117111 1e-05
-0.02054 0.0117111 1e-05
-0.02056 0.0117111 1e-05
-0.02058 0.0117111 1e-05
-0.0206 0.0117111 1e-05
-0.0205 0.0143889 1e-05
-0.02052 0.0143889 1e-05
-0.02054 0.0143889 1e-05
-0.02056 0.0143889 1e-05
-0.02058 0.0143889 1e-05
-0.0206 0.0143889 1e-05
-0.0205 0.0170667 1e-05
-0.02052 0.0170667 1e-05
-0.02054 0.0170667 1e-05
-0.02056 0.0170667 1e-05
-0.02058 0.0170667 1e-05
-0.0206 0.0170667 1e-05
-0.0205 0.0197444 1e-05
-0.02052 0.0197444 1e-05
-0.02054 0.0197444 1e-05
-0.02056 0.0197444 1e-05
-0.02058 0.0197444 1e-05
-0.0206 0.0197444 1e-05
-0.0205 0.0224222 1e-05
-0.02052 0.0224222 1e-05
-0.02054 0.0224222 1e-05
-0.02056 0.0224222 1e-05
-0.02058 0.0224222 1e-05
-0.0206 0.0224222 1e-05
-0.0205 0.0251 1e-05
-0.02052 0.0250998 1e-05
-0.02054 0.0250997 1e-05
-0.02056 0.0250995 1e-05
-0.02058 0.0250995 1e-05
-0.0206 0.0250994 1e-05
-0.0205 0.001 1e-05
-0.0202034 0.00100022 1e-05
-0.0199069 0.00100067 1e-05
-0.0196103 0.00100132 1e-05
-0.0193137 0.00100219 1e-05
-0.0190172 0.00100326 1e-05
-0.0187132 0.00100466 1e-05
-0.0184093 0.00100588 1e-05
-0.0181054 0.0010071 1e-05
-0.0178015 0.00100832 1e-05
-0.0174976 0.00100953 1e-05
-0.0172058 0.00101083 1e-05
-0.016914 0.00101193 1e-05
-0.0166222 0.00101303 1e-05
-0.0163305 0.00101413 1e-05
-0.0160387 0.00101522 1e-05
-0.0157586 0.00101636 1e-05
-0.0154784 0.00101744 1e-05
-0.0151983 0.00101856 1e-05
-0.0149182 0.00101971 1e-05
-0.0146381 0.0010209 1e-05
-0.0143745 0.00102208 1e-05
-0.0141109 0.00102327 1e-05
-0.0138473 0.00102449 1e-05
-0.0135837 0.00102574 1e-05
-0.013361 0.00102682 1e-05
-0.0133475 0.00102688 1e-05
-0.013334 0.00102695 1e-05
-0.0133205 0.00102702 1e-05
-0.013307 0.00102709 1e-05
-0.0132934 0.00102715 1e-05
-0.0130353 0.00102844 1e-05
-0.0127771 0.00102974 1e-05
-0.0125189 0.00103106 1e-05
-0.0122607 0.0010324 1e-05
-0.0120025 0.00103375 1e-05
-0.0117547 0.00103506 1e-05
-0.0115068 0.00103637 1e-05
-0.0112589 0.00103769 1e-05
-0.0110111 0.00103902 1e-05
-0.0107632 0.00104034 1e-05
-0.0105252 0.00104162 1e-05
-0.0102873 0.0010429 1e-05
-0.0100493 0.00104418 1e-05
-0.00981133 0.00104545 1e-05
-0.00957337 0.00104673 1e-05
-0.00934491 0.00104795 1e-05
-0.00911645 0.00104917 1e-05
-0.00888799 0.00105039 1e-05
-0.00865954 0.00105161 1e-05
-0.00843108 0.00105282 1e-05
-0.00821175 0.00105398 1e-05
-0.00799242 0.00105513 1e-05
-0.00777309 0.00105629 1e-05
-0.00755376 0.00105744 1e-05
-0.00733443 0.00105858 1e-05
-0.00712387 0.00105967 1e-05
-0.0069133 0.00106076 1e-05
-0.00670273 0.00106185 1e-05
-0.00649216 0.00106293 1e-05
-0.0062816 0.00106401 1e-05
-0.00607944 0.00106503 1e-05
-0.00587729 0.00106605 1e-05
-0.00567514 0.00106708 1e-05
-0.00547298 0.00106809 1e-05
-0.00527083 0.0010691 1e-05
-0.00507675 0.00107007 1e-05
-0.00488267 0.00107103 1e-05
-0.0046886 0.00107199 1e-05
-0.00449452 0.00107295 1e-05
-0.00430044 0.0010739 1e-05
-0.00411412 0.0010748 1e-05
-0.0039278 0.00107571 1e-05
-0.00374147 0.00107661 1e-05
-0.00355515 0.00107751 1e-05
-0.00336883 0.00107841 1e-05
-0.00318995 0.00107926 1e-05
-0.00301107 0.00108011 1e-05
-0.00283219 0.00108096 1e-05
-0.00265331 0.00108181 1e-05
-0.00247443 0.00108266 1e-05
-0.0023027 0.00108346 1e-05
-0.00213097 0.00108427 1e-05
-0.00195924 0.00108508 1e-05
-0.0017875 0.00108588 1e-05
-0.00161577 0.00108668 1e-05
-0.0014509 0.00108745 1e-05
-0.00128603 0.00108821 1e-05
-0.00112116 0.00108898 1e-05
-0.000956289 0.00108974 1e-05
-0.000791418 0.00109051 1e-05
-0.000633135 0.00109124 1e-05
-0.000474851 0.00109198 1e-05
-0.000316567 0.00109271 1e-05
-0.000158284 0.00109344 1e-05
0 0.00109418 1e-05
0.000105677 0.00109466 1e-05
0.000211355 0.00109514 1e-05
0.000317032 0.00109563 1e-05
0.00042271 0.0010961 1e-05
0.000528387 0.00109658 1e-05
0.000634886 0.00109705 1e-05
0.000741385 0.00109752 1e-05
0.000847885 0.00109799 1e-05
0.000954384 0.00109846 1e-05
0.00106088 0.00109892 1e-05
0.00116821 0.00109938 1e-05
0.00127554 0.00109984 1e-05
0.00138286 0.00110029 1e-05
0.00149019 0.00110073 1e-05
0.00159752 0.00110117 1e-05
0.00170568 0.0011016 1e-05
0.00181384 0.00110203 1e-05
0.001922 0.00110245 1e-05
0.00203016 0.00110286 1e-05
0.00213833 0.00110327 1e-05
0.00224733 0.00110366 1e-05
0.00235633 0.00110405 1e-05
0.00246533 0.00110444 1e-05
0.00257434 0.00110481 1e-05
0.00268334 0.00110517 1e-05
0.00279319 0.00110553 1e-05
0.00290304 0.00110588 1e-05
0.00301289 0.00110623 1e-05
0.00312274 0.00110656 1e-05
0.00323259 0.00110689 1e-05
0.00334329 0.00110721 1e-05
0.003454 0.00110753 1e-05
0.0035647 0.00110783 1e-05
0.0036754 0.00110814 1e-05
0.00378611 0.00110843 1e-05
0.00389767 0.00110871 1e-05
0.00400924 0.00110899 1e-05
0.0041208 0.00110926 1e-05
0.00423237 0.00110953 1e-05
0.00434393 0.00110978 1e-05
0.00445636 0.00111003 1e-05
0.00456879 0.00111027 1e-05
0.00468123 0.00111051 1e-05
0.00479366 0.00111074 1e-05
0.00490609 0.00111096 1e-05
0.0050194 0.00111117 1e-05
0.0051327 0.00111137 1e-05
0.00524601 0.00111157 1e-05
0.00535932 0.00111176 1e-05
0.00547262 0.00111195 1e-05
0.00558681 0.00111212 1e-05
0.005701 0.00111229 1e-05
0.00581518 0.00111245 1e-05
0.00592937 0.00111261 1e-05
0.00604356 0.00111275 1e-05
0.00615863 0.00111289 1e-05
0.00627371 0.00111302 1e-05
0.00638878 0.00111315 1e-05
0.00650386 0.00111326 1e-05
0.00661893 0.00111337 1e-05
0.0067349 0.00111347 1e-05
0.00685087 0.00111357 1e-05
0.00696684 0.00111366 1e-05
0.00708281 0.00111374 1e-05
0.00719878 0.00111381 1e-05
0.00728186 0.00111386 1e-05
0.00736494 0.0011139 1e-05
0.00744802 0.00111394 1e-05
0.00753109 0.00111397 1e-05
0.00761094 0.001114 1e-05
0.00764537 0.00111402 1e-05
0.00767981 0.00111403 1e-05
0.00771425 0.00111404 1e-05
0.00774869 0.00111405 1e-05
0.00778313 0.00111406 1e-05
0.00790091 0.00111408 1e-05
0.00801869 0.0011141 1e-05
0.00813647 0.00111411 1e-05
0.00825425 0.00111412 1e-05
0.00837203 0.00111411 1e-05
0.00849073 0.0011141 1e-05
0.00860942 0.00111408 1e-05
0.00872812 0.00111405 1e-05
0.00884682 0.00111401 1e-05
0.00896551 0.00111397 1e-05
0.00908513 0.00111391 1e-05
0.00920475 0.00111385 1e-05
0.00932437 0.00111378 1e-05
0.00944398 0.00111371 1e-05
0.0095636 0.00111362 1e-05
0.00968415 0.00111352 1e-05
0.0098047 0.00111342 1e-05
0.00992525 0.00111331 1e-05
0.0100458 0.00111319 1e-05
0.0101663 0.00111307 1e-05
0.0102878 0.00111292 1e-05
0.0104093 0.00111278 1e-05
0.0105308 0.00111262 1e-05
0.0106523 0.00111246 1e-05
0.0107738 0.0011123 1e-05
0.0108962 0.0011121 1e-05
0.0110186 0.00111192 1e-05
0.0111411 0.00111172 1e-05
0.0112635 0.00111152 1e-05
0.0113859 0.0011113 1e-05
0.0115093 0.00111107 1e-05
0.0116327 0.00111083 1e-05
0.0117561 0.00111059 1e-05
0.0118795 0.00111034 1e-05
0.0120028 0.00111008 1e-05
0.0121272 0.0011098 1e-05
0.0122515 0.00110952 1e-05
0.0123759 0.00110924 1e-05
0.0125002 0.00110894 1e-05
0.0126245 0.00110864 1e-05
0.0127498 0.00110831 1e-05
0.0128752 0.00110798 1e-05
0.0130005 0.00110765 1e-05
0.0131258 0.0011073 1e-05
0.0132511 0.00110695 1e-05
0.0133774 0.00110658 1e-05
0.0135036 0.0011062 1e-05
0.0136299 0.00110582 1e-05
0.0137562 0.00110543 1e-05
0.0138825 0.00110503 1e-05
0.0140098 0.00110461 1e-05
0.014137 0.00110418 1e-05
0.0142643 0.00110375 1e-05
0.0143915 0.00110331 1e-05
0.0145188 0.00110286 1e-05
0.0146471 0.00110239 1e-05
0.0147753 0.00110191 1e-05
0.0149036 0.00110143 1e-05
0.0150318 0.00110094 1e-05
0.0151601 0.00110044 1e-05
0.0152893 0.00109992 1e-05
0.0154186 0.0010994 1e-05
0.0155478 0.00109886 1e-05
0.0156771 0.00109832 1e-05
0.0158063 0.00109777 1e-05
0.0159366 0.0010972 1e-05
0.0160668 0.00109662 1e-05
0.0161971 0.00109604 1e-05
0.0163274 0.00109544 1e-05
0.0164576 0.00109484 1e-05
0.0165889 0.00109422 1e-05
0.0167201 0.0010936 1e-05
0.0168514 0.00109296 1e-05
0.0169827 0.00109231 1e-05
0.0171139 0.00109166 1e-05
0.0172462 0.00109099 1e-05
0.0173785 0.00109032 1e-05
0.0175108 0.00108962 1e-05
0.0176431 0.00108892 1e-05
0.0177754 0.00108822 1e-05
0.0179087 0.00108751 1e-05
0.018042 0.00108678 1e-05
0.0181753 0.00108603 1e-05
0.0183087 0.00108528 1e-05
0.018442 0.00108452 1e-05
0.0185763 0.00108376 1e-05
0.0187107 0.00108298 1e-05
0.018845 0.00108218 1e-05
0.0189794 0.00108137 1e-05
0.0191137 0.00108057 1e-05
0.0192491 0.00107975 1e-05
0.0193845 0.00107892 1e-05
0.0195199 0.00107807 1e-05
0.0196553 0.00107721 1e-05
0.0197907 0.00107635 1e-05
0.0199272 0.00107549 1e-05
0.0200636 0.00107461 1e-05
0.0202001 0.0010737 1e-05
0.0203365 0.00107279 1e-05
0.020473 0.00107188 1e-05
0.0206105 0.00107096 1e-05
0.020748 0.00107003 1e-05
0.0208855 0.00106907 1e-05
0.021023 0.0010681 1e-05
0.0211606 0.00106714 1e-05
0.0212991 0.00106618 1e-05
0.0214377 0.00106519 1e-05
0.0215763 0.00106418 1e-05
0.0217149 0.00106316 1e-05
0.0218535 0.00106215 1e-05
0.0219931 0.00106114 1e-05
0.0221328 0.0010601 1e-05
0.0222724 0.00105904 1e-05
0.0224121 0.00105796 1e-05
0.0225517 0.0010569 1e-05
0.0226925 0.00105583 1e-05
0.0228332 0.00105474 1e-05
0.022974 0.00105363 1e-05
0.0231147 0.0010525 1e-05
0.0232555 0.00105138 1e-05
0.0233973 0.00105027 1e-05
0.0235391 0.00104912 1e-05
0.023681 0.00104795 1e-05
0.0238228 0.00104677 1e-05
0.0239647 0.0010456 1e-05
0.0241076 0.00104443 1e-05
0.0242505 0.00104323 1e-05
0.0243935 0.00104201 1e-05
0.0245364 0.00104077 1e-05
0.0246794 0.00103955 1e-05
0.0248234 0.00103833 1e-05
0.0249675 0.00103708 1e-05
0.0251115 0.0010358 1e-05
0.0252556 0.00103451 1e-05
[...]
POINT_DATA 12040
 FIELD attributes 2
p 1 12040 float
-4.85126 -4.84795 -4.84463 -4.84132 -4.838 -4.83469
-5.00351 -5.00349 -5.00347 -5.00344 -5.00342 -5.0034
-5.1774 -5.17728 -5.17716 -5.17703 -5.17691 -5.1768
-5.27045 -5.27039 -5.27034 -5.27029 -5.27023 -5.27018
-5.31527 -5.31516 -5.31505 -5.31493 -5.31482 -5.31471
-5.32161 -5.32145 -5.32129 -5.32113 -5.32097 -5.32081
-5.29453 -5.29446 -5.29438 -5.29431 -5.29424 -5.29417
-5.22487 -5.22483 -5.22479 -5.22475 -5.22471 -5.22467
-5.10353 -5.10354 -5.10354 -5.10355 -5.10356 -5.10356
-2.89091 -2.91024 -2.92944 -2.94851 -2.96745 -2.98625
-4.85126 -4.85055 -4.84694 -4.84325 -4.83947 -4.8311 -4.84496 -4.85994 -4.87492 -4.8899 -4.91433 -4.93611 -4.96606 -4.996 -5.02595 -5.05871 -5.07438 -5.0961 -5.11782 -5.13954 -5.16288 -5.1818 -5.20273 -5.22366 -5.24459 -5.26228 -5.26335 -5.26442 -5.26549 -5.26656 -5.26762 -5.28931 -5.31099 -5.33268 -5.35437 -5.37578 -5.39457 -5.41317 -5.43177 -5.45037 -5.4684 -5.48405 -5.49943 -5.51481 -5.53019 -5.54501 -5.55883 -5.57239 -5.58596 -5.59952 -5.61264 -5.62539 -5.63788 -5.65037 -5.66286 -5.67492 -5.68677 -5.69831 -5.70985 -5.7214 -5.73252 -5.74353 -5.75427 -5.76501 -5.77575 -5.78614 -5.79652 -5.80664 -5.81675 -5.82687 -5.83666 -5.84654 -5.85622 -5.86589 -5.87557 -5.88504 -5.89458 -5.90384 -5.9131 -5.92236 -5.93141 -5.94073 -5.95017 -5.95962 -5.96906 -5.97867 -5.98851 -5.99806 -6.00762 -6.01717 -6.02659 -6.0366 -6.04755 -6.05849 -6.06944 -6.0807 -6.09099 -6.10222 -6.11344 -6.12467 -6.13545 -6.14525 -6.15461 -6.16398 -6.17334 -6.18183 -6.18924 -6.1976 -6.20595 -6.21431 -6.22335 -6.23159 -6.24021 -6.24884 -6.25747 -6.2662 -6.27441 -6.28161 -6.28881 -6.29601 -6.30233 -6.30913 -6.31464 -6.32014 -6.32565 -6.33008 -6.33578 -6.34044 -6.34509 -6.34974 -6.35344 -6.35835 -6.36237 -6.36638 -6.3704 -6.3736 -6.37755 -6.38076 -6.38396 -6.38717 -6.38978 -6.39273 -6.39514 -6.39755 -6.39996 -6.402 -6.40424 -6.40613 -6.40802 -6.4099 -6.4116 -6.41349 -6.41517 -6.41685 -6.41853 -6.42012 -6.42182 -6.42341 -6.42499 -6.42657 -6.42812 -6.42924 -6.4303 -6.43136 -6.43243 -6.43345 -6.43389 -6.43434 -6.43478 -6.43522 -6.43569 -6.4371 -6.43855 -6.44 -6.44145 -6.44308 -6.44432 -6.44577 -6.44722 -6.44867 -6.45053 -6.45157 -6.45307 -6.45456 -6.45606 -6.45828 -6.45911 -6.46072 -6.46233 -6.46394 -6.46663 -6.46729 -6.46903 -6.47077 -6.4725 -6.47566 -6.4761 -6.47793 -6.47977 -6.4816 -6.4852 -6.48544 -6.48738 -6.48932 -6.49126 -6.49531 -6.49541 -6.49749 -6.49956 -6.50164 -6.50612 -6.50613 -6.50834 -6.51056 -6.51277 -6.51761 -6.51757 -6.51992 -6.52227 -6.52462 -6.52977 -6.52972 -6.53221 -6.5347 -6.53733 -6.54259 -6.54284 -6.54523 -6.54786 -6.5509 -6.5561 -6.55669 -6.559 -6.56177 -6.56517 -6.57031 -6.57124 -6.57351 -6.57642 -6.58015 -6.5852 -6.58648 -6.58875 -6.59181 -6.5958 -6.60076 -6.60239 -6.60471 -6.6079 -6.61211 -6.61699 -6.61896 -6.62135 -6.62468 -6.62907 -6.63388 -6.63616 -6.63866 -6.64212 -6.64666 -6.6514 -6.65397 -6.6566 -6.66019 -6.66485 -6.66954 -6.67239 -6.67523 -6.67897 -6.68363 -6.68829 -6.69139 -6.69448 -6.69835 -6.70299 -6.70764 -6.71098 -6.71432 -6.71831 -6.72296 -6.7276 -6.73118 -6.73477 -6.73887 -6.74349 -6.74812 -6.75192 -6.75572 -6.75991 -6.76451 -6.7691 -6.77308 -6.77706 -6.78133 -6.7859 -6.79048 -6.79459 -6.7987 -6.80305 -6.80763 -6.81221 -6.81643 -6.82065 -6.82508 -6.82968 -6.83429 -6.83861 -6.84295 -6.84744 -6.85206 -6.85671 -6.8611 -6.86553 -6.87009 -6.87473 -6.87941 -6.88386 -6.88838 -6.89298 -6.89764 -6.90236 -6.90685 -6.91143 -6.91607 -6.92075 -6.9255 -6.93002 -6.93465 -6.93932 -6.94401 -6.94878 -6.95333 -6.958 -6.96268 -6.96738 -6.97216 -6.97672 -6.98141 -6.98611 -6.9908 -6.99558 -7.00015 -7.00484 -7.00953 -7.01422 -7.01897 -7.02355 -7.02823 -7.0329 -7.03757 -7.04229 -7.04686 -7.0515 -7.05614 -7.06078 -7.06545 -7.07 -7.0746 -7.07919 -7.08379 -7.0884 -7.09291 -7.09744 -7.10198 -7.10651 -7.11105 -7.1127 -7.11435 -7.116 -7.11765 -7.11928 -7.12209 -7.12491 -7.12773 -7.13055 -7.13337 -7.13775 -7.14212 -7.1465 -7.15088 -7.15527 -7.15954 -7.16382 -7.16809 -7.17236 -7.17665 -7.18082 -7.18498 -7.18913 -7.19329 -7.19747 -7.20151 -7.20553 -7.20954 -7.21356 -7.21758 -7.22149 -7.22534 -7.22919 -7.23304 -7.23688 -7.24063 -7.24429 -7.24796 -7.25162 -7.25526 -7.25883 -7.26232 -7.26578 -7.26923 -7.27266 -7.27602 -7.27932 -7.28255 -7.28576 -7.28894 -7.29207 -7.29515 -7.29814 -7.30107 -7.30397 -7.30685 -7.30971 -7.31242 -7.31503 -7.31764 -7.32023 -7.32283 -7.32523 -7.32752 -7.3298 -7.33208 -7.33437 -7.33646 -7.33839 -7.34033 -7.34227 -7.34422 -7.34597 -7.34753 -7.34908 -7.35065 -7.35224 -7.35363 -7.35477 -7.35591 -7.3571 -7.35828 -7.35927 -7.35999 -7.36069 -7.36145 -7.36216 -7.3627 -7.36303 -7.36326 -7.36356 -7.36376 -7.36382 -7.36373 -7.36347 -7.36328 -7.36292 -7.36247 -7.36195 -7.36116 -7.36045 -7.35948 -7.35849 -7.3575 -7.35617 -7.35486 -7.3533 -7.35173 -7.35016 -7.34835 -7.34637 -7.34419 -7.34202 -7.33984 -7.33752 -7.33482 -7.332 -7.32919 -7.32637 -7.32352 -7.32247 -7.32139 -7.32031 -7.31922 -7.31817 -7.31579 -7.31341 -7.31103 -7.30866 -7.3062 -7.30216 -7.29801 -7.29387 -7.28973 -7.28537 -7.28075 -7.27587 -7.27098 -7.26611 -7.26086 -7.25565 -7.24999 -7.24434 -7.23867 -7.2325 -7.22658 -7.22022 -7.21377 -7.20712 -7.20013 -7.19339 -7.18639 -7.1791 -7.17144 -7.16357 -7.15598 -7.14834 -7.14018 -7.13143 -7.12267 -7.1142 -7.10573 -7.09664 -7.08695 -7.07726 -7.06787 -7.05848 -7.04847 -7.03783 -7.02718 -7.01684 -7.0065 -6.99552 -6.98391 -6.97227 -6.96095 -6.94941 -6.9374 -6.92502 -6.91237 -6.90004 -6.88723 -6.87417 -6.86103 -6.84733 -6.83394 -6.81981 -6.80569 -6.79158 -6.777 -6.76225 -6.74703 -6.73182 -6.71662 -6.70124 -6.69212 -6.68283 -6.67354 -6.66425 -6.65534 -6.64829 -6.64124 -6.6342 -6.62715 -6.61999 -6.60278 -6.58546 -6.56815 -6.55085 -6.53312 -6.51506 -6.49658 -6.47812 -6.45963 -6.44046 -6.42137 -6.40188 -6.38224 -6.36225 -6.34188 -6.32161 -6.30125 -6.28042 -6.25887 -6.23729 -6.21582 -6.19435 -6.17222 -6.14941 -6.1266 -6.10391 -6.08123 -6.05783 -6.03378 -6.00973 -5.98581 -5.96158 -5.93686 -5.91192 -5.88663 -5.86147 -5.83556 -5.80959 -5.78362 -5.75723 -5.73047 -5.70323 -5.67599 -5.64877 -5.62151 -5.61904 -5.61654 -5.61403 -5.61152 -5.60903 -5.58312 -5.55721 -5.5313 -5.50541 -5.47923 -5.44978 -5.42012 -5.39047 -5.36081 -5.33057 -5.29999 -5.26919 -5.23829 -5.20705 -5.17554 -5.14372 -5.1119 -5.07968 -5.04693 -5.01418 -4.98111 -4.94804 -4.91448 -4.8805 -4.84652 -4.81221 -4.77773 -4.74284 -4.70782 -4.67262 -4.6371 -4.60105 -4.56495 -4.52886 -4.49258 -4.46426 -4.43567 -4.40708 -4.3785 -4.35128 -4.34233 -4.33339 -4.32444 -4.31549 -4.30644 -4.26813 -4.22978 -4.19143 -4.15309 -4.11425 -4.07504 -4.03555 -3.99607 -3.95635 -3.91624 -3.87589 -3.83554 -3.79492 -3.75373 -3.71253 -3.6711 -3.62967 -3.58778 -3.54555 -3.5033 -3.46081 -3.4181 -3.37506 -3.33198 -3.28872 -3.24516 -3.20112 -3.15708 -3.11305 -3.06897 -3.05676 -3.04446 -3.03215 -3.01985 -3.00774 -2.97506 -2.94239 -2.90972 -2.87706 -2.84409 -2.79838 -2.75254 -2.70672 -2.66078 -2.61439 -2.56784 -2.52125 -2.47456 -2.42738 -2.38015 -2.33275 -2.28536 -2.23762 -2.18963 -2.14163 -2.09344 -2.04506 -1.99643 -1.94781 -1.89908 -1.85007 -1.80074 -1.75142 -1.70211 -1.65278 -1.65257 -1.65234 -1.65212 -1.6519 -1.65168 -1.60195 -1.55223 -1.50252 -1.45281 -1.40275 -1.35225 -1.30172 -1.2512 -1.20046 -1.14953 -1.09846 -1.04741 -0.996225 -0.944816 -0.893383 -0.841811 -0.790191 -0.738304 -0.686431 -0.634537 -0.582499 -0.530156 -0.477822 -0.425497 -0.373152 -0.363926 -0.354658 -0.34539 -0.336123 -0.326933 -0.283417 -0.239908 -0.196405 -0.152908 -0.109165 -0.0559866 -0.00285314 0.0502698 0.103538 0.15697 0.210486 0.263991 0.317536 0.371195 0.424884 0.478666 0.532494 0.586465 0.640399 0.694299 0.744939 0.795721 0.846496 0.897264 0.945954 0.949764 0.953573 0.957383 0.961193 0.965017 1.01941 1.07379 1.12816 1.18252 1.2371 1.29172 1.34626 1.40074 1.45534 1.51 1.5647 1.61939 1.67416 1.72881 1.7835 1.83823 1.89302 1.94782 2.00262 2.05736 2.07685 2.09635 2.11586 2.13536 2.15459 2.18998 2.22537 2.26076 2.29615 2.33161 2.38659 2.4414 2.4962 2.55103 2.60592 2.66081 2.7157 2.7705 2.82522 2.87997 2.93473 2.98949 3.04423 3.09897 3.15358 3.18179 3.20999 3.23818 3.26637 3.29403 3.32058 3.34712 3.37366 3.4002 3.42675 3.4814 3.53588 3.59036 3.64483 3.69931 3.75377 3.80822 3.86252 3.9167 3.97091 4.02511 4.07925 4.13335 4.18745 4.24141 4.2659 4.29034 4.31478 4.33922 4.36329 4.39281 4.42233 4.45185 4.48137 4.51085 4.56469 4.61832 4.67195 4.7255 4.77905 4.83255 4.88606 4.93941 4.99253 5.0457 5.09884 5.15186 5.20482 5.25778 5.31069 5.3214 5.33207 5.34274 5.35342 5.36402 5.40608 5.44813 5.49018 5.53222 5.57417 5.62672 5.67915 5.73147 5.78362 5.83579 5.8879 5.94 5.9919 6.04366 6.09537 6.13639 6.17724 6.21808 6.25891 6.29897 6.30976 6.32054 6.33133 6.34212 6.35287 6.40409 6.45523 6.50637 6.55744 6.60841 6.65925 6.71008 6.7607 6.81111 6.86155 6.91187 6.96205 7.01212 7.06219 7.11219 7.12445 7.13665 7.14885 7.16104 7.17318 7.21072 7.24825 7.28578 7.32327 7.36061 7.41003 7.45938 7.50858 7.55751 7.60646 7.6553 7.70406 7.75261 7.80114 7.84949 7.87117 7.89273 7.91427 7.9358 7.95725 7.98382 8.01039 8.03696 8.0635 8.0899 8.13769 8.18535 8.23294 8.28025 8.32752 8.37469 8.42181 8.46864 8.5154 8.56203 8.58678 8.6114 8.63597 8.66055 8.68516 8.70688 8.7286 8.75032 8.772 8.79356 8.83955 8.88536 8.93114 8.97664 9.02205 9.06734 9.11261 9.15753 9.20238 9.24708 9.27194 9.29664 9.32129 9.34593 9.3708 9.39044 9.41008 9.42972 9.44933 9.4688 9.51276 9.55655 9.60032 9.64379 9.68716 9.73036 9.77355 9.81636 9.85909 9.90167 9.92674 9.95162 9.97645 10.0013 10.0266 10.0438 10.061 10.0782 10.0954 10.1125 10.1542 10.1957 10.2372 10.2785 10.3195 10.3604 10.4013 10.4417 10.4821 10.5223 10.5506 10.5787 10.6067 10.6347 10.6638 10.6752 10.6866 10.698 10.7094 10.7207 10.7598 10.7987 10.8377 10.8764 10.9149 10.9531 10.9913 11.0291 11.0667 11.1042 11.1414 11.1782 11.2149 11.2517 11.2883 11.2894 11.2904 11.2914 11.2924 11.2934 11.3284 11.3635 11.3984 11.4334 11.4679 11.5031 11.5383 11.5732 11.6077 11.6421 11.6762 11.7102 11.7439 11.7774 11.8107 11.8345 11.858 11.8815 11.9051 11.9308 11.9394 11.9481 11.9568 11.9654 11.974 12.0058 12.0373 12.0687 12.1001 12.1309 12.1612 12.1915 12.2222 12.2538 12.2853 12.3162 12.3472 12.3721 12.3932 12.4131 12.4322 12.4606 12.4913 12.5219 12.5577 12.5706 12.5783 12.5843 12.5904 12.5967 12.6147 12.6326 12.6505 12.6657 12.671 12.6781 12.6863 12.6957 12.71 12.7243 12.7376 12.7508 12.7633 12.7756 12.7876 12.7945 12.8 12.8053 12.8106 12.8166 12.82 12.8235 12.827 12.8303 12.833 12.8387 12.8435 12.8482 12.852 12.8547 12.8558 12.8568 12.8561 12.8538 12.8514 12.8471 12.8417 12.8352 12.8286 12.8205 12.8145 12.8071 12.7997 12.7922 12.7837 12.779 12.7742 12.7694 12.7647 12.7591 12.7417 12.7231 12.7044 12.685 12.6636 12.6392 12.6145 12.5874 12.5578 12.528 12.495 12.4619 12.4257 12.3868 12.3476 12.3049 12.2595 12.2129 12.1663 12.1172 12.0745 12.0291 11.9838 11.9384 11.8825 11.8723 11.8622 11.8521 11.842 11.8314 11.7633 11.6946 11.6258 11.5569 11.4844 11.4059 11.3234 11.2406 11.1555 11.0672 10.9737 10.8794 10.7811 10.6772 10.5731 10.4634 10.3535 10.237 10.114 9.99087 9.86146 9.73149 9.59575 9.45601 9.31502 9.16723 9.0127 8.85303 8.69154 8.52192 8.3445 8.16479 7.98505 7.80527 7.62409 7.42079 7.20131 6.98186 6.76246 6.53874 6.44975 6.36476 6.27976 6.19476 6.10336 5.95956 5.81576 5.67197 5.52818 5.38984 5.10407 4.79097 4.47744 4.1635 3.78222 3.39137 3.12306 2.854 2.58423 2.49375 2.41147 2.01876 1.5786 0.917245 0