# vtk DataFile Version 2.0
track0
ASCII
DATASET POLYDATA
POINTS 12060 float
-0.0205 0.001 1e-05
-0.02052 0.000999985 1e-05
-0.02054 0.000999974 1e-05
-0.02056 0.000999965 1e-05
-0.02058 0.000999959 1e-05
-0.0206 0.000999956 1e-05
-0.0205 0.00367778 1e-05
-0.02052 0.00367778 1e-05
-0.02054 0.00367777 1e-05
-0.02056 0.00367777 1e-05
-0.02058 0.00367777 1e-05
-0.0206 0.00367777 1e-05
-0.0205 0.00635556 1e-05
-0.02052 0.00635555 1e-05
-0.02054 0.00635555 1e-05
-0.02056 0.00635555 1e-05
-0.02058 0.00635555 1e-05
-0.0206 0.00635555 1e-05
-0.0205 0.00903333 1e-05
-0.02052 0.00903333 1e-05
-0.02054 0.00903333 1e-05
-0.02056 0.00903333 1e-05
-0.02058 0.00903333 1e-05
-0.0206 0.00903333 1e-05
-0.0205 0.0117111 1e-05
-0.02052 0.0117111 1e-05
-0.02054 0.0117111 1e-05
-0.02056 0.0117111 1e-05
-0.02058 0.0117111 1e-05
-0.0206 0.0117111 1e-05
-0.0205 0.0143889 1e-05
-0.02052 0.0143889 1e-05
-0.02054 0.0143889 1e-05
-0.02056 0.0143889 1e-05
-0.02058 0.0143889 1e-05
-0.0206 0.0143889 1e-05
-0.0205 0.0170667 1e-05
-0.02052 0.0170667 1e-05
-0.02054 0.0170667 1e-05
-0.02056 0.0170667 1e-05
-0.02058 0.0170667 1e-05
-0.0206 0.0170667 1e-05
-0.0205 0.0197444 1e-05
-0.02052 0.0197444 1e-05
-0.02054 0.0197444 1e-05
-0.02056 0.0197444 1e-05
-0.02058 0.0197444 1e-05
-0.0206 0.0197444 1e-05
-0.0205 0.0224222 1e-05
-0.02052 0.0224222 1e-05
-0.02054 0.0224222 1e-05
-0.02056 0.0224222 1e-05
-0.02058 0.0224222 1e-05
-0.0206 0.0224222 1e-05
-0.0205 0.0251 1e-05
-0.02052 0.0250998 1e-05
-0.02054 0.0250997 1e-05
-0.02056 0.0250995 1e-05
-0.02058 0.0250995 1e-05
-0.0206 0.0250994 1e-05
-0.0205 0.001 1e-05
-0.0202034 0.00100022 1e-05
-0.0199069 0.00100067 1e-05
-0.0196103 0.00100132 1e-05
-0.0193137 0.00100219 1e-05
-0.0190172 0.00100326 1e-05
-0.0187132 0.00100466 1e-05
-0.0184093 0.00100588 1e-05
-0.0181054 0.0010071 1e-05
-0.0178015 0.00100832 1e-05
-0.0174976 0.00100954 1e-05
-0.0172058 0.00101083 1e-05
-0.016914 0.00101193 1e-05
-0.0166222 0.00101303 1e-05
-0.0163305 0.00101413 1e-05
-0.0160387 0.00101523 1e-05
-0.0157586 0.00101637 1e-05
-0.0154784 0.00101745 1e-05
-0.0151983 0.00101857 1e-05
-0.0149182 0.00101972 1e-05
-0.0146381 0.00102091 1e-05
-0.0143754 0.0010221 1e-05
-0.0141127 0.00102328 1e-05
-0.01385 0.00102449 1e-05
-0.0135873 0.00102574 1e-05
-0.0133655 0.00102682 1e-05
-0.0133511 0.00102689 1e-05
-0.0133367 0.00102696 1e-05
-0.0133223 0.00102703 1e-05
-0.0133079 0.0010271 1e-05
-0.0132934 0.00102718 1e-05
-0.0130353 0.00102846 1e-05
-0.0127771 0.00102977 1e-05
-0.0125189 0.00103109 1e-05
-0.0122607 0.00103243 1e-05
-0.0120025 0.00103378 1e-05
-0.0117547 0.00103509 1e-05
-0.0115068 0.00103641 1e-05
-0.0112589 0.00103773 1e-05
-0.0110111 0.00103906 1e-05
-0.0107632 0.00104039 1e-05
-0.0105252 0.00104167 1e-05
-0.0102873 0.00104296 1e-05
-0.0100493 0.00104424 1e-05
-0.00981133 0.00104552 1e-05
-0.00957337 0.0010468 1e-05
-0.00934491 0.00104803 1e-05
-0.00911645 0.00104925 1e-05
-0.00888799 0.00105048 1e-05
-0.00865954 0.0010517 1e-05
-0.00843108 0.00105292 1e-05
-0.00821175 0.00105408 1e-05
-0.00799242 0.00105524 1e-05
-0.00777309 0.0010564 1e-05
-0.00755376 0.00105756 1e-05
-0.00733443 0.00105871 1e-05
-0.00712387 0.00105981 1e-05
-0.0069133 0.00106091 1e-05
-0.00670273 0.001062 1e-05
-0.00649216 0.00106309 1e-05
-0.0062816 0.00106418 1e-05
-0.00607944 0.00106521 1e-05
-0.00587729 0.00106625 1e-05
-0.00567514 0.00106728 1e-05
-0.00547298 0.00106831 1e-05
-0.00527083 0.00106934 1e-05
-0.00507675 0.00107031 1e-05
-0.00488267 0.00107129 1e-05
-0.0046886 0.00107226 1e-05
-0.00449452 0.00107324 1e-05
-0.00430044 0.00107421 1e-05
-0.00411412 0.00107513 1e-05
-0.0039278 0.00107606 1e-05
-0.00374147 0.00107698 1e-05
-0.00355515 0.00107791 1e-05
-0.00336883 0.00107883 1e-05
-0.00318995 0.00107971 1e-05
-0.00301107 0.00108059 1e-05
-0.00283219 0.00108148 1e-05
-0.00265331 0.00108236 1e-05
-0.00247443 0.00108325 1e-05
-0.0023027 0.0010841 1e-05
-0.00213097 0.00108495 1e-05
-0.00195924 0.00108581 1e-05
-0.0017875 0.00108667 1e-05
-0.00161577 0.00108753 1e-05
-0.0014509 0.00108836 1e-05
-0.00128603 0.00108919 1e-05
-0.00112116 0.00109004 1e-05
-0.00095629 0.0010909 1e-05
-0.000791418 0.00109176 1e-05
-0.000633135 0.0010926 1e-05
-0.000474851 0.00109345 1e-05
-0.000316568 0.00109432 1e-05
-0.000158284 0.00109519 1e-05
0 0.00109608 1e-05
0.000105677 0.00109667 1e-05
0.000211355 0.00109727 1e-05
0.000317032 0.00109787 1e-05
0.00042271 0.00109848 1e-05
0.000528387 0.00109908 1e-05
0.000634886 0.00109968 1e-05
0.000741385 0.00110028 1e-05
0.000847885 0.00110088 1e-05
0.000954384 0.00110147 1e-05
0.00106088 0.00110205 1e-05
0.00116821 0.00110263 1e-05
0.00127554 0.0011032 1e-05
0.00138286 0.00110377 1e-05
0.00149019 0.00110432 1e-05
0.00159752 0.00110486 1e-05
0.00170568 0.0011054 1e-05
0.00181384 0.00110593 1e-05
0.001922 0.00110644 1e-05
0.00203016 0.00110695 1e-05
0.00213833 0.00110744 1e-05
0.00224733 0.00110793 1e-05
0.00235633 0.00110841 1e-05
0.00246533 0.00110888 1e-05
0.00257434 0.00110934 1e-05
0.00268334 0.00110979 1e-05
0.00279319 0.00111022 1e-05
0.00290304 0.00111066 1e-05
0.00301289 0.00111108 1e-05
0.00312274 0.0011115 1e-05
0.00323259 0.0011119 1e-05
0.00334329 0.00111229 1e-05
0.003454 0.00111268 1e-05
0.0035647 0.00111306 1e-05
0.0036754 0.00111343 1e-05
0.00378611 0.00111379 1e-05
0.00389767 0.00111414 1e-05
0.00400924 0.00111449 1e-05
0.0041208 0.00111482 1e-05
0.00423237 0.00111515 1e-05
0.00434393 0.00111547 1e-05
0.00445636 0.00111577 1e-05
0.00456879 0.00111607 1e-05
0.00468123 0.00111637 1e-05
0.00479366 0.00111665 1e-05
0.00490609 0.00111692 1e-05
0.0050194 0.00111719 1e-05
0.0051327 0.00111744 1e-05
0.00524601 0.00111769 1e-05
0.00535932 0.00111793 1e-05
0.00547262 0.00111816 1e-05
0.00558681 0.00111838 1e-05
0.005701 0.0011186 1e-05
0.00581518 0.0011188 1e-05
0.00592937 0.001119 1e-05
0.00604356 0.00111918 1e-05
0.00615863 0.00111936 1e-05
0.00627371 0.00111953 1e-05
0.00638878 0.00111969 1e-05
0.00650386 0.00111985 1e-05
0.00661893 0.00111999 1e-05
0.0067349 0.00112013 1e-05
0.00685087 0.00112025 1e-05
0.00696684 0.00112037 1e-05
0.00708281 0.00112048 1e-05
0.00719878 0.00112058 1e-05
0.00731565 0.00112067 1e-05
0.00743252 0.00112076 1e-05
0.00754939 0.00112083 1e-05
0.00766626 0.0011209 1e-05
0.00778313 0.00112096 1e-05
0.00787319 0.00112099 1e-05
0.00796324 0.00112102 1e-05
0.00805329 0.00112105 1e-05
0.00814334 0.00112107 1e-05
0.00822906 0.00112109 1e-05
0.00825766 0.00112109 1e-05
0.00828625 0.00112109 1e-05
0.00831485 0.00112109 1e-05
0.00834344 0.0011211 1e-05
0.00837203 0.0011211 1e-05
0.00849073 0.0011211 1e-05
0.00860942 0.00112109 1e-05
0.00872812 0.00112108 1e-05
0.00884682 0.00112105 1e-05
0.00896551 0.00112102 1e-05
0.00908513 0.00112097 1e-05
0.00920475 0.00112091 1e-05
0.00932437 0.00112085 1e-05
0.00944398 0.00112078 1e-05
0.0095636 0.0011207 1e-05
0.00968415 0.0011206 1e-05
0.0098047 0.00112049 1e-05
0.00992525 0.00112038 1e-05
0.0100458 0.00112026 1e-05
0.0101663 0.00112013 1e-05
0.0102878 0.00111997 1e-05
0.0104093 0.00111982 1e-05
0.0105308 0.00111966 1e-05
0.0106523 0.00111948 1e-05
0.0107738 0.0011193 1e-05
0.0108962 0.00111909 1e-05
0.0110186 0.00111889 1e-05
0.0111411 0.00111867 1e-05
0.0112635 0.00111845 1e-05
0.0113859 0.00111821 1e-05
0.0115093 0.00111795 1e-05
0.0116327 0.00111769 1e-05
0.0117561 0.00111742 1e-05
0.0118795 0.00111713 1e-05
0.0120028 0.00111684 1e-05
0.0121272 0.00111653 1e-05
0.0122515 0.00111621 1e-05
0.0123759 0.00111588 1e-05
0.0125002 0.00111554 1e-05
0.0126245 0.00111519 1e-05
0.0127498 0.00111482 1e-05
0.0128752 0.00111444 1e-05
0.0130005 0.00111406 1e-05
0.0131258 0.00111366 1e-05
0.0132511 0.00111325 1e-05
0.0133774 0.00111282 1e-05
0.0135036 0.00111238 1e-05
0.0136299 0.00111194 1e-05
0.0137562 0.00111148 1e-05
0.0138825 0.00111101 1e-05
0.0140098 0.00111052 1e-05
0.014137 0.00111002 1e-05
0.0142643 0.00110951 1e-05
0.0143915 0.00110899 1e-05
0.0145188 0.00110845 1e-05
0.0146471 0.0011079 1e-05
0.0147753 0.00110734 1e-05
0.0149036 0.00110677 1e-05
0.0150318 0.00110618 1e-05
0.0151601 0.00110559 1e-05
0.0152893 0.00110498 1e-05
0.0154186 0.00110435 1e-05
0.0155478 0.00110371 1e-05
0.0156771 0.00110306 1e-05
0.0158063 0.0011024 1e-05
0.0159366 0.00110173 1e-05
0.0160668 0.00110103 1e-05
0.0161971 0.00110033 1e-05
0.0163273 0.00109961 1e-05
0.0164576 0.00109888 1e-05
0.0165889 0.00109815 1e-05
0.0167201 0.00109739 1e-05
0.0168514 0.00109662 1e-05
0.0169827 0.00109583 1e-05
0.0171139 0.00109504 1e-05
0.0172462 0.00109423 1e-05
0.0173785 0.00109341 1e-05
0.0175108 0.00109257 1e-05
0.0176431 0.00109171 1e-05
0.0177754 0.00109085 1e-05
0.0179087 0.00108998 1e-05
0.018042 0.00108909 1e-05
0.0181753 0.00108818 1e-05
0.0183087 0.00108725 1e-05
0.018442 0.00108632 1e-05
0.0185763 0.00108539 1e-05
0.0187107 0.00108443 1e-05
0.018845 0.00108344 1e-05
0.0189794 0.00108244 1e-05
0.0191137 0.00108144 1e-05
0.0192491 0.00108044 1e-05
0.0193845 0.00107941 1e-05
0.0195199 0.00107835 1e-05
0.0196553 0.00107728 1e-05
0.0197907 0.00107621 1e-05
0.0199272 0.00107514 1e-05
0.0200636 0.00107404 1e-05
0.0202001 0.0010729 1e-05
0.0203365 0.00107176 1e-05
0.020473 0.00107062 1e-05
0.0206105 0.00106947 1e-05
0.020748 0.0010683 1e-05
0.0208855 0.00106709 1e-05
0.021023 0.00106587 1e-05
0.0211606 0.00106466 1e-05
0.0212991 0.00106344 1e-05
0.0214377 0.0010622 1e-05
0.0215763 0.00106091 1e-05
0.0217149 0.00105962 1e-05
0.0218535 0.00105833 1e-05
0.0219931 0.00105704 1e-05
0.0221328 0.00105572 1e-05
0.0222724 0.00105436 1e-05
0.0224121 0.001053 1e-05
0.0225517 0.00105163 1e-05
0.0226925 0.00105027 1e-05
0.0228332 0.00104887 1e-05
0.022974 0.00104744 1e-05
0.0231147 0.00104599 1e-05
0.0232555 0.00104455 1e-05
0.0233973 0.00104311 1e-05
0.0235391 0.00104163 1e-05
0.023681 0.00104012 1e-05
0.0238228 0.0010386 1e-05
0.0239647 0.00103708 1e-05
0.0241076 0.00103556 1e-05
0.0242505 0.001034 1e-05
0.0243935 0.00103241 1e-05
0.0245364 0.0010308 1e-05
0.0246794 0.0010292 1e-05
0.0248234 0.0010276 1e-05
0.0249675 0.00102596 1e-05
0.0251115 0.00102429 1e-05
0.0252556 0.0010226 1e-05
[...]
POINT_DATA 12060
 FIELD attributes 1
U 3 12060 float
10.0004 	0.00731847 	0 10.0004 	0.00585477 	0 10.0003 	0.00439108 	0 10.0002 	0.00292739 	0 10.0001 	0.00146369 	0 10 	0 	0
10.0001 	0.000881631 	0 10 	0.000705305 	0 10 	0.000528979 	0 10 	0.000352653 	0 10 	0.000176326 	0 10 	0 	0
10.0001 	0.000470182 	0 10.0001 	0.000375954 	0 10.0001 	0.000281725 	0 10 	0.000187496 	0 10 	9.32667e-05 	0 10 	0 	0
10 	0.000270246 	0 10 	0.000216197 	0 10 	0.000162148 	0 10 	0.000108099 	0 10 	5.40493e-05 	0 10 	0 	0
10 	8.44582e-05 	0 10 	6.75665e-05 	0 10 	5.06749e-05 	0 10 	3.37833e-05 	0 10 	1.68916e-05 	0 10 	0 	0
10 	-2.26045e-05 	0 10 	-1.80836e-05 	0 10 	-1.35627e-05 	0 10 	-9.04181e-06 	0 10 	-4.52091e-06 	0 10 	0 	0
10 	-0.000213587 	0 10 	-0.00017087 	0 10 	-0.000128152 	0 10 	-8.54349e-05 	0 10 	-4.27174e-05 	0 10 	0 	0
10 	-0.00037615 	0 10 	-0.00030092 	0 10 	-0.00022569 	0 10 	-0.00015046 	0 10 	-7.52301e-05 	0 10 	0 	0
9.99999 	-0.000426513 	0 9.99999 	-0.000341211 	0 9.99999 	-0.000255908 	0 10 	-0.000170605 	0 10 	-8.53027e-05 	0 10 	0 	0
9.17387 	0.0870993 	0 9.1308 	0.0696795 	0 9.08741 	0.0522593 	0 9.04368 	0.034839 	0 8.99962 	0.0174184 	0 8.95524 	0 	0
10.0004 	0.00731847 	0 10.0024 	0.0151702 	0 10.0045 	0.0221906 	0 10.0065 	0.0291667 	0 10.0085 	0.0360989 	0 10.0135 	0.0463157 	0 10.0163 	0.0402171 	0 10.0207 	0.0401783 	0 10.0251 	0.0401397 	0 10.0296 	0.0401012 	0 10.0355 	0.0445643 	0 10.0384 	0.0379277 	0 10.0424 	0.0378865 	0 10.0464 	0.0378453 	0 10.0504 	0.0378041 	0 10.0545 	0.0409062 	0 10.0566 	0.038833 	0 10.0591 	0.0401454 	0 10.0615 	0.0414594 	0 10.0639 	0.0427751 	0 10.0661 	0.0452343 	0 10.0676 	0.0453479 	0 10.0689 	0.0465505 	0 10.0702 	0.0477543 	0 10.0715 	0.0489592 	0 10.0726 	0.0499776 	0 10.0727 	0.0500443 	0 10.0728 	0.0501109 	0 10.0729 	0.0501775 	0 10.0729 	0.0502442 	0 10.073 	0.0503008 	0 10.0735 	0.050933 	0 10.074 	0.0515588 	0 10.0745 	0.0521852 	0 10.075 	0.052812 	0 10.0755 	0.0532742 	0 10.0754 	0.0535773 	0 10.075 	0.0537745 	0 10.0746 	0.0539717 	0 10.0743 	0.0541691 	0 10.0737 	0.0541277 	0 10.0732 	0.0542827 	0 10.0721 	0.0542688 	0 10.071 	0.0542549 	0 10.0699 	0.054241 	0 10.0683 	0.0539577 	0 10.0679 	0.0540516 	0 10.0663 	0.0539311 	0 10.0646 	0.0538107 	0 10.0629 	0.0536901 	0 10.0604 	0.0532836 	0 10.0603 	0.0533565 	0 10.0582 	0.0531802 	0 10.0562 	0.0530039 	0 10.0541 	0.0528275 	0 10.0505 	0.0523532 	0 10.0511 	0.052433 	0 10.0487 	0.0522386 	0 10.0463 	0.0520441 	0 10.044 	0.0518496 	0 10.0393 	0.0513505 	0 10.0407 	0.0514627 	0 10.0381 	0.0512763 	0 10.0355 	0.0510898 	0 10.0329 	0.0509033 	0 10.0271 	0.0504009 	0 10.0295 	0.0505598 	0 10.0267 	0.0504076 	0 10.024 	0.0502554 	0 10.0213 	0.0501032 	0 10.0142 	0.0496322 	0 10.0178 	0.0498614 	0 10.0149 	0.0497576 	0 10.0121 	0.0496537 	0 10.0092 	0.0495499 	0 10.001 	0.0491136 	0 10.0057 	0.0494384 	0 10.0029 	0.0494644 	0 9.99998 	0.0494904 	0 9.9971 	0.0495164 	0 9.98765 	0.0492352 	0 9.99378 	0.0497414 	0 9.99092 	0.0498936 	0 9.98805 	0.0500459 	0 9.98518 	0.0501982 	0 9.97449 	0.0499779 	0 9.98211 	0.0506509 	0 9.97943 	0.0512218 	0 9.97675 	0.0517928 	0 9.97408 	0.0523639 	0 9.96234 	0.0526568 	0 9.97176 	0.0537109 	8.5257e-22 9.97011 	0.0544273 	6.05505e-21 9.96846 	0.0551437 	1.12568e-20 9.96682 	0.0558604 	1.64577e-20 9.95496 	0.0559666 	1.37583e-20 9.96608 	0.0566282 	9.87865e-20 9.96497 	0.0567008 	9.19615e-20 9.96386 	0.0567735 	8.51375e-20 9.96274 	0.0568461 	7.83144e-20 9.95075 	0.0562918 	-1.58829e-20 9.96202 	0.0561564 	-4.32051e-20 9.96094 	0.0556164 	-4.79744e-20 9.95986 	0.0550764 	-5.27408e-20 9.95877 	0.0545363 	-5.75042e-20 9.9467 	0.0537115 	-2.1628e-20 9.95753 	0.0532071 	-1.91453e-20 9.95595 	0.0522428 	-1.32394e-20 9.95436 	0.0512783 	-7.33417e-21 9.95276 	0.0503138 	-1.42973e-21 9.94037 	0.0491886 	7.73858e-21 9.95074 	0.048739 	-4.92677e-21 9.94865 	0.0476547 	-2.40469e-20 9.94656 	0.0465703 	-4.31698e-20 9.94446 	0.0454856 	-6.22955e-20 9.93171 	0.0440766 	-8.99399e-20 9.94161 	0.0438264 	-1.31491e-19 9.93904 	0.0428436 	-1.18843e-19 9.93646 	0.0418605 	-1.06185e-19 9.93387 	0.0408771 	-9.35187e-20 9.92079 	0.039359 	-3.03149e-20 9.93012 	0.0392323 	4.12077e-20 9.92705 	0.0383461 	5.51556e-20 9.92398 	0.0374595 	6.90921e-20 9.92089 	0.0365727 	8.3017e-20 9.90756 	0.035049 	3.75328e-20 9.91624 	0.034913 	-5.79372e-20 9.91266 	0.034053 	-6.42989e-20 9.90907 	0.0331927 	-7.06427e-20 9.90547 	0.0323321 	-7.69684e-20 9.89194 	0.0308561 	-2.84241e-22 9.89985 	0.0306703 	7.28374e-20 9.89572 	0.0298264 	6.33048e-20 9.89159 	0.0289822 	5.37544e-20 9.88745 	0.0281377 	4.41863e-20 9.87379 	0.0267475 	-2.76118e-20 9.88076 	0.0265111 	-8.99901e-20 9.87606 	0.025683 	-1.12885e-19 9.87136 	0.0248545 	-1.35774e-19 9.86666 	0.0240258 	-1.58656e-19 9.85298 	0.022728 	-1.36939e-19 9.85878 	0.0224489 	-1.64053e-19 9.85352 	0.0216369 	-1.51283e-19 9.84825 	0.0208246 	-1.38509e-19 9.84297 	0.020012 	-1.25729e-19 9.82946 	0.0188003 	-8.29171e-20 9.83382 	0.0184871 	-7.06862e-20 9.828 	0.0176938 	-5.16631e-20 9.82216 	0.0169001 	-3.26421e-20 9.81632 	0.016106 	-1.36232e-20 9.80325 	0.0149738 	2.96951e-21 9.80581 	0.0146173 	0 9.79944 	0.0138379 	0 9.79306 	0.0130582 	0 9.78668 	0.0122781 	0 9.77439 	0.0112231 	0 9.77473 	0.0108018 	-1.54923e-20 9.76784 	0.010032 	-3.49846e-20 9.76093 	0.00926185 	-5.4479e-20 9.75402 	0.00849124 	-7.39755e-20 9.74293 	0.00752359 	-9.5157e-20 9.7406 	0.00701186 	-1.04706e-19 9.73319 	0.00625083 	-1.05401e-19 9.72578 	0.00548932 	-1.0609e-19 9.71835 	0.00472735 	-1.06773e-19 9.70893 	0.00386923 	-1.03352e-19 9.7053 	0.00341362 	-7.46063e-20 9.69927 	0.00283806 	-5.16951e-20 9.69323 	0.00226221 	-2.87909e-20 9.68719 	0.00168606 	-5.8935e-21 9.68143 	0.00113732 	1.58966e-20 9.67949 	0.000953091 	2.31724e-20 9.67754 	0.000768828 	3.04476e-20 9.6756 	0.000584533 	3.77221e-20 9.67365 	0.000400206 	4.49958e-20 9.67015 	0.000144814 	5.38973e-20 9.66313 	-0.000543782 	5.4945e-20 9.65469 	-0.00129563 	5.60387e-20 9.64624 	-0.00204808 	5.71297e-20 9.63777 	-0.00280112 	5.8218e-20 9.62149 	-0.00388908 	6.04711e-20 9.61969 	-0.00434796 	4.78969e-20 9.61081 	-0.00509889 	3.53208e-20 9.60192 	-0.00585048 	2.27433e-20 9.59301 	-0.00660272 	1.01644e-20 9.57048 	-0.00789615 	-7.37551e-22 9.57352 	-0.00818323 	-9.62891e-21 9.56424 	-0.00893739 	-2.16413e-20 9.55494 	-0.00969226 	-3.36523e-20 9.54563 	-0.0104479 	-4.56618e-20 9.51745 	-0.0118859 	-5.76828e-20 9.52483 	-0.0120595 	-5.93334e-20 9.51517 	-0.0128188 	-6.6779e-20 9.5055 	-0.013579 	-7.42207e-20 9.49582 	-0.0143399 	-8.16584e-20 9.46271 	-0.0158582 	-9.86365e-20 9.47387 	-0.0159746 	-1.42211e-19 9.46388 	-0.0167397 	-1.32417e-19 9.45387 	-0.0175057 	-1.2264e-19 9.44385 	-0.0182724 	-1.12879e-19 9.40659 	-0.019807 	-4.1791e-20 9.4209 	-0.019925 	-2.76266e-20 9.41061 	-0.0206969 	-1.95799e-20 9.4003 	-0.0214697 	-1.15322e-20 9.38998 	-0.0222434 	-3.48346e-21 9.34936 	-0.0237303 	0 9.36622 	-0.0239114 	0 9.35566 	-0.0246908 	0 9.34509 	-0.0254711 	0 9.33449 	-0.0262524 	0 9.2913 	-0.027627 	0 9.31012 	-0.0279256 	2.27443e-21 9.29932 	-0.0287115 	9.72816e-21 9.28851 	-0.0294983 	1.71809e-20 9.27767 	-0.0302861 	2.46326e-20 9.23265 	-0.0314901 	4.19516e-20 9.25287 	-0.0319534 	1.52662e-19 9.24187 	-0.0327447 	1.55771e-19 9.23085 	-0.0335371 	1.589e-19 9.21981 	-0.0343305 	1.62049e-19 9.17363 	-0.0353133 	4.21677e-20 9.19476 	-0.0359798 	2.32697e-20 9.18358 	-0.0367757 	1.64873e-20 9.17238 	-0.0375726 	9.70369e-21 9.16116 	-0.0383706 	2.9189e-21 9.11444 	-0.0390921 	1.66643e-20 9.13506 	-0.0399899 	1.06295e-19 9.12471 	-0.0407931 	1.10508e-19 9.11336 	-0.0415943 	1.12005e-19 9.09881 	-0.0423631 	1.0354e-19 9.05526 	-0.0428263 	3.83814e-21 9.07266 	-0.0439389 	-1.02018e-19 9.06552 	-0.0447893 	-1.2666e-19 9.05404 	-0.0455945 	-1.37017e-19 9.03642 	-0.046279 	-1.30425e-19 8.99625 	-0.0465155 	-6.13176e-20 9.01071 	-0.047814 	-1.81365e-19 9.00622 	-0.0487564 	-2.15912e-19 8.99464 	-0.0495665 	-2.18568e-19 8.97461 	-0.0501234 	-1.77354e-19 8.93756 	-0.0501675 	-4.74843e-20 8.94936 	-0.0516296 	-2.48022e-20 8.94703 	-0.0527016 	-1.13678e-20 8.93537 	-0.0535166 	-4.02605e-21 8.91353 	-0.0539083 	0 8.87934 	-0.0537853 	0 8.88875 	-0.0553808 	0 8.88814 	-0.0566088 	0 8.87642 	-0.0574283 	0 8.85328 	-0.0576285 	1.93616e-21 8.8217 	-0.0573707 	5.30287e-21 8.82896 	-0.0590801 	2.10496e-21 8.82971 	-0.0604881 	0 8.81796 	-0.0613135 	0 8.79396 	-0.061302 	2.36471e-21 8.76475 	-0.060934 	5.73631e-21 8.77011 	-0.0627354 	2.53858e-21 8.7719 	-0.0643378 	1.35958e-21 8.76014 	-0.0651672 	7.9616e-21 8.73565 	-0.0649275 	2.47167e-20 8.70856 	-0.0644694 	4.35445e-20 8.71224 	-0.0663328 	1.71926e-19 8.71482 	-0.0681293 	2.91996e-19 8.70306 	-0.0689635 	2.95869e-19 8.67839 	-0.0685014 	1.72497e-19 8.65322 	-0.0679884 	4.4151e-20 8.6554 	-0.069912 	2.56303e-20 8.65752 	-0.0718376 	7.11149e-21 8.64569 	-0.0726239 	3.14286e-22 8.62224 	-0.0720626 	3.54981e-21 8.5988 	-0.0715009 	6.78517e-21 8.59968 	-0.0734681 	3.73071e-21 8.6005 	-0.0754374 	6.77366e-22 8.58917 	-0.0761908 	1.98092e-21 8.56725 	-0.0755888 	-1.89053e-21 8.54534 	-0.0749863 	-5.76097e-21 8.5451 	-0.0769742 	-5.01778e-20 8.5448 	-0.0789642 	-9.45998e-20 8.534 	-0.0796855 	-9.61871e-20 8.51343 	-0.0790667 	-5.5595e-20 8.49288 	-0.0784474 	-1.50008e-20 8.49167 	-0.0804431 	8.58261e-20 8.49039 	-0.0824408 	1.86646e-19 8.48016 	-0.0831345 	1.95573e-19 8.46079 	-0.08252 	1.11438e-19 8.44143 	-0.0819051 	2.73035e-20 8.43938 	-0.0838951 	1.55601e-20 8.43726 	-0.085887 	3.81222e-21 8.42759 	-0.0865575 	-5.90464e-22 8.40929 	-0.0859677 	4.21315e-21 8.39101 	-0.0853775 	9.01814e-21 8.38821 	-0.0873574 	3.14856e-21 8.38534 	-0.0893392 	-2.72754e-21 8.37624 	-0.0899902 	-1.97637e-20 8.35891 	-0.0894339 	-7.06701e-20 8.34159 	-0.0888772 	-1.21579e-19 8.33813 	-0.0908431 	-2.54334e-19 8.33459 	-0.0928109 	-3.87083e-19 8.32608 	-0.0934445 	-3.69924e-19 8.30962 	-0.0929275 	-2.17697e-19 8.29318 	-0.0924101 	-6.54687e-20 8.28912 	-0.0943605 	6.07462e-20 8.28446 	-0.0961471 	1.71155e-19 8.2759 	-0.0967527 	1.68468e-19 8.26141 	-0.096457 	9.17936e-20 8.24575 	-0.0959825 	4.50654e-22 8.24117 	-0.0979172 	-9.00921e-20 8.23547 	-0.0994843 	-1.57737e-19 8.22702 	-0.100108 	-1.66763e-19 8.21424 	-0.100031 	-1.17445e-19 8.1993 	-0.0996014 	-3.87895e-20 8.19425 	-0.101521 	-2.76053e-20 8.18773 	-0.102876 	-1.6521e-20 8.17937 	-0.103519 	-5.56076e-21 8.16809 	-0.103657 	1.02767e-20 8.15379 	-0.103274 	3.11393e-20 8.14833 	-0.105179 	8.80117e-21 8.14116 	-0.106332 	-3.52311e-21 8.1329 	-0.106995 	-9.33674e-21 8.1229 	-0.107343 	-8.51601e-21 8.1092 	-0.107008 	6.66456e-21 8.10336 	-0.108901 	-1.04596e-20 8.09572 	-0.109859 	-1.92446e-20 8.08754 	-0.110544 	-2.55838e-20 8.07865 	-0.111097 	-3.40128e-20 8.06548 	-0.110811 	-5.57502e-20 8.05931 	-0.112694 	5.33148e-20 8.05133 	-0.113467 	6.13002e-20 8.04322 	-0.114174 	6.31911e-20 8.03507 	-0.114882 	6.50652e-20 8.0226 	-0.114692 	-2.36252e-20 8.01595 	-0.116432 	5.77795e-20 8.00793 	-0.117163 	6.02679e-20 7.99988 	-0.117894 	6.27408e-20 7.9918 	-0.118625 	6.51981e-20 7.98053 	-0.118657 	7.5014e-21 7.97344 	-0.120199 	-3.64133e-22 7.96548 	-0.120954 	-2.57952e-22 7.95748 	-0.12171 	-1.5179e-22 7.94945 	-0.122467 	-4.56474e-23 7.93922 	-0.122715 	1.13601e-20 7.93182 	-0.124067 	0 7.9239 	-0.124849 	0 7.91595 	-0.125631 	0 7.90796 	-0.126414 	0 7.89864 	-0.126874 	7.48763e-21 7.89102 	-0.128044 	0 7.88314 	-0.128853 	0 7.87522 	-0.129662 	0 7.86727 	-0.130472 	0 7.85874 	-0.131138 	0 7.85226 	-0.132 	0 7.84568 	-0.132701 	0 7.83908 	-0.133403 	0 7.83246 	-0.134105 	0 7.82611 	-0.134776 	0 7.82472 	-0.134918 	0 7.82332 	-0.135061 	0 7.82193 	-0.135204 	0 7.82053 	-0.135347 	0 7.8193 	-0.135456 	0 7.81118 	-0.136355 	0 7.80309 	-0.137224 	0 7.79497 	-0.138094 	0 7.78681 	-0.138964 	0 7.77978 	-0.139609 	0 7.77129 	-0.140711 	0 7.76321 	-0.141612 	0 7.75509 	-0.142513 	0 7.74694 	-0.143415 	0 7.74088 	-0.143906 	0 7.73202 	-0.145208 	-4.86789e-21 7.72394 	-0.146142 	-1.42622e-20 7.71582 	-0.147077 	-2.36541e-20 7.70766 	-0.148012 	-3.30437e-20 7.70256 	-0.148358 	-4.24598e-20 7.69331 	-0.149857 	-3.49296e-20 7.68522 	-0.150827 	-3.41001e-20 7.67709 	-0.151797 	-3.32657e-20 7.66892 	-0.152768 	-3.24264e-20 7.66476 	-0.152975 	-4.05496e-20 7.65512 	-0.154666 	-3.02219e-20 7.64701 	-0.155674 	-1.98517e-20 7.63887 	-0.156681 	-9.47905e-21 7.63109 	-0.157616 	0 7.62745 	-0.157767 	0 7.61772 	-0.159511 	0 7.60929 	-0.160691 	-3.6861e-21 7.60112 	-0.161738 	-8.23806e-21 7.59432 	-0.162527 	-1.27974e-20 7.5906 	-0.16274 	-1.73755e-20 7.58087 	-0.164504 	-5.05272e-20 7.572 	-0.165889 	-7.58748e-20 7.56381 	-0.166977 	-9.51312e-20 7.55797 	-0.16763 	-9.56083e-20 7.55416 	-0.167906 	-7.98559e-20 7.54441 	-0.169693 	-5.51921e-20 7.5351 	-0.171279 	-3.4628e-20 7.52688 	-0.172411 	-2.33295e-20 7.52199 	-0.172934 	-3.84922e-20 7.51808 	-0.173275 	-6.16333e-20 7.50832 	-0.175088 	-7.47699e-20 7.49856 	-0.176872 	-8.65027e-20 7.49032 	-0.178046 	-6.891e-20 7.48633 	-0.178452 	-3.7247e-20 7.48233 	-0.178859 	-5.58387e-21 7.47254 	-0.180701 	-1.86524e-21 7.46268 	-0.182544 	1.84676e-21 7.45507 	-0.183722 	0 7.45098 	-0.184196 	0 7.44687 	-0.18467 	0 7.43705 	-0.186545 	0 7.42716 	-0.18842 	0 7.42008 	-0.189633 	0 7.41588 	-0.190175 	0 7.41166 	-0.190718 	0 7.40181 	-0.19263 	0 7.39188 	-0.194541 	0 7.38532 	-0.195791 	-3.66657e-21 7.381 	-0.196404 	-2.03221e-20 7.37666 	-0.197017 	-3.69758e-20 7.36676 	-0.198968 	-1.84187e-20 7.35683 	-0.200914 	5.20083e-25 7.35085 	-0.20217 	6.61671e-23 7.3463 	-0.202897 	3.60808e-21 7.34183 	-0.203584 	7.40871e-21 7.33189 	-0.205581 	3.7713e-20 7.32297 	-0.207392 	5.92074e-20 7.31689 	-0.208709 	5.7333e-20 7.31175 	-0.209675 	4.78215e-20 7.30714 	-0.210438 	3.38714e-20 7.29715 	-0.212484 	1.06927e-20 7.28924 	-0.214166 	4.90236e-21 7.28305 	-0.215544 	1.35913e-20 7.2773 	-0.216746 	2.22739e-20 7.27255 	-0.217584 	3.09401e-20 7.26251 	-0.21968 	8.99329e-20 7.25558 	-0.221237 	9.79435e-20 7.24927 	-0.222679 	9.5059e-20 7.24293 	-0.224117 	9.17116e-20 7.23802 	-0.225034 	3.36328e-20 7.22833 	-0.227115 	2.6944e-20 7.22196 	-0.228626 	2.7624e-20 7.21554 	-0.230137 	2.83107e-20 7.20907 	-0.231648 	2.9004e-20 7.20353 	-0.232811 	3.49513e-20 7.19486 	-0.234771 	6.8044e-20 7.18837 	-0.236356 	6.50647e-20 7.18182 	-0.23794 	6.20648e-20 7.17522 	-0.239524 	5.90441e-20 7.16904 	-0.240939 	3.77816e-20 7.16143 	-0.242773 	3.03537e-20 7.15486 	-0.244423 	2.28473e-20 7.14823 	-0.246073 	1.53445e-20 7.14154 	-0.247722 	7.84539e-21 7.13528 	-0.249255 	8.81232e-22 7.13512 	-0.249291 	6.92875e-22 7.13497 	-0.249327 	5.04517e-22 7.13481 	-0.249363 	3.16157e-22 7.13466 	-0.249399 	1.27795e-22 7.13453 	-0.249431 	-2.88726e-23 7.12756 	-0.251174 	0 7.12055 	-0.252913 	0 7.11347 	-0.254652 	0 7.10633 	-0.25639 	0 7.10065 	-0.257956 	0 7.09271 	-0.259936 	0 7.08554 	-0.261762 	0 7.07831 	-0.263588 	0 7.07101 	-0.265413 	0 7.06668 	-0.266901 	-2.59944e-21 7.05773 	-0.269118 	1.60442e-21 7.0504 	-0.271036 	8.56042e-21 7.043 	-0.272954 	1.55122e-20 7.03558 	-0.274867 	2.24235e-20 7.03257 	-0.27629 	2.545e-20 7.02296 	-0.27868 	-8.09284e-21 7.01508 	-0.28076 	-1.09562e-20 7.00751 	-0.282774 	-7.5077e-21 7.00148 	-0.284615 	8.74596e-21 6.99828 	-0.286147 	4.77395e-20 6.9885 	-0.288628 	6.54875e-21 6.97953 	-0.290959 	-2.24745e-20 6.97176 	-0.293077 	-3.41131e-20 6.96715 	-0.294854 	-1.4645e-20 6.96373 	-0.296501 	1.68445e-20 6.95378 	-0.299078 	1.20634e-20 6.94373 	-0.301655 	7.2738e-21 6.93612 	-0.303847 	6.64379e-21 6.93252 	-0.305615 	1.67766e-20 6.92887 	-0.307382 	2.69092e-20 6.91873 	-0.310064 	1.61998e-20 6.90849 	-0.312744 	5.48763e-21 6.90138 	-0.315037 	6.81488e-21 6.89754 	-0.316934 	2.0513e-20 6.89365 	-0.318831 	3.42134e-20 6.8833 	-0.321625 	4.73585e-20 6.87285 	-0.324418 	6.05032e-20 6.86623 	-0.326811 	5.69803e-20 6.86212 	-0.328833 	3.36022e-20 6.85795 	-0.330855 	1.02215e-20 6.84738 	-0.333755 	7.31648e-21 6.83789 	-0.336539 	4.36916e-21 6.83147 	-0.339016 	1.30343e-21 6.82619 	-0.341308 	0 6.82173 	-0.343463 	0 6.81093 	-0.346479 	0 6.80299 	-0.349219 	2.35679e-21 6.7963 	-0.351833 	5.77532e-21 6.78966 	-0.354426 	8.4023e-21 6.7849 	-0.356735 	-3.98458e-23 6.77435 	-0.359847 	1.06228e-20 6.76745 	-0.362614 	1.45968e-20 6.76046 	-0.365379 	1.85785e-20 6.75338 	-0.368142 	2.25678e-20 6.74731 	-0.370746 	2.79366e-20 6.73848 	-0.373776 	2.62404e-20 6.7314 	-0.376636 	2.73201e-20 6.72423 	-0.379494 	2.84101e-20 6.71697 	-0.382351 	2.95106e-20 6.71026 	-0.384957 	3.05244e-20 6.70996 	-0.385065 	3.05691e-20 6.70966 	-0.385173 	3.06139e-20 6.70936 	-0.385281 	3.06586e-20 6.70906 	-0.385389 	3.07034e-20 6.7088 	-0.385491 	3.05016e-20 6.70082 	-0.388545 	2.414e-20 6.69275 	-0.391592 	1.73802e-20 6.68458 	-0.394637 	1.06413e-20 6.67631 	-0.397679 	3.92324e-21 6.6692 	-0.400549 	-9.65384e-21 6.66033 	-0.403917 	-1.35538e-20 6.65184 	-0.407118 	-2.07759e-20 6.64324 	-0.410316 	-2.79822e-20 6.63457 	-0.413506 	-3.5241e-20 6.62822 	-0.416376 	-4.57463e-20 6.61863 	-0.41999 	-3.25355e-20 6.60945 	-0.423424 	-2.47724e-20 6.60038 	-0.426783 	-1.92111e-20 6.59253 	-0.429971 	-2.41274e-20 6.58569 	-0.433018 	-3.77172e-20 6.57561 	-0.436794 	-6.02101e-22 6.56541 	-0.440562 	3.59406e-20 6.55605 	-0.444061 	4.23293e-20 6.54878 	-0.447286 	1.11215e-20 6.5414 	-0.450511 	-2.01012e-20 6.53079 	-0.454452 	-1.22352e-20 6.52004 	-0.45839 	-4.37284e-21 6.51096 	-0.462069 	0 6.50311 	-0.465478 	0 6.49515 	-0.468886 	0 6.48397 	-0.472999 	0 6.47323 	-0.477041 	0 6.46415 	-0.480872 	0 6.45533 	-0.484576 	0 6.44672 	-0.488164 	0 6.43492 	-0.492449 	0 6.42498 	-0.496503 	1.54847e-22 6.41525 	-0.500513 	3.36845e-22 6.40539 	-0.50452 	5.19059e-22 6.39587 	-0.508361 	-8.84788e-22 6.38641 	-0.511912 	8.96369e-21 6.37806 	-0.515326 	1.9666e-21 6.36962 	-0.518739 	-5.05542e-21 6.36108 	-0.522148 	-1.21025e-20 6.35315 	-0.525276 	-1.85941e-20 6.35113 	-0.526111 	-2.00057e-20 6.34911 	-0.526945 	-2.14181e-20 6.34708 	-0.52778 	-2.28315e-20 6.34505 	-0.528614 	-2.42456e-20 6.34301 	-0.529414 	-2.17906e-20 6.33292 	-0.533825 	-2.88619e-20 6.32252 	-0.538187 	-2.93882e-20 6.31197 	-0.542544 	-2.99659e-20 6.30127 	-0.546898 	-3.05954e-20 6.29039 	-0.551041 	7.85661e-21 6.28036 	-0.555836 	3.80255e-20 6.26922 	-0.560379 	4.93753e-20 6.25788 	-0.564902 	5.9692e-20 6.24635 	-0.569304 	4.45701e-20 6.23461 	-0.573557 	-2.18929e-21 6.22378 	-0.578514 	-1.70274e-20 6.21278 	-0.583465 	-3.18922e-20 6.20057 	-0.588105 	-4.40393e-20 6.18807 	-0.592504 	-5.5314e-20 6.1754 	-0.596903 	-6.66277e-20 6.16369 	-0.601991 	-9.70871e-20 6.15181 	-0.607075 	-1.27577e-19 6.13957 	-0.611914 	-1.18912e-19 6.1261 	-0.616434 	-8.21257e-20 6.11242 	-0.620947 	-4.4836e-20 6.09978 	-0.626139 	-3.0512e-20 6.0868 	-0.63119 	-1.9214e-20 6.07354 	-0.636153 	-9.81011e-21 6.06009 	-0.64111 	-4.28387e-22 6.04551 	-0.645845 	3.90125e-21 6.03502 	-0.649928 	2.03144e-20 6.02418 	-0.653843 	1.54249e-20 6.01321 	-0.657755 	1.04956e-20 6.00214 	-0.661662 	5.52626e-21 5.99185 	-0.665252 	9.20137e-22 5.98844 	-0.666501 	-5.93079e-22 5.98501 	-0.667749 	-2.11013e-21 5.98158 	-0.668997 	-3.63102e-21 5.97813 	-0.670244 	-5.15576e-21 5.97466 	-0.671444 	-9.36992e-24 5.96057 	-0.676719 	-3.79269e-21 5.94604 	-0.681899 	-1.0159e-20 5.93132 	-0.687074 	-1.65095e-20 5.9164 	-0.692242 	-2.28438e-20 5.90118 	-0.697152 	-4.74447e-20 5.88659 	-0.702703 	-8.71939e-20 5.87133 	-0.708092 	-1.11392e-19 5.85542 	-0.713327 	-1.20854e-19 5.83911 	-0.718361 	-8.44902e-20 5.82255 	-0.723356 	-3.85391e-20 5.8067 	-0.728994 	-2.31424e-20 5.79063 	-0.734625 	-7.74834e-21 5.77397 	-0.739988 	-1.51712e-21 5.75625 	-0.744985 	2.24096e-22 5.73829 	-0.749982 	1.94481e-21 5.72112 	-0.755632 	2.39687e-20 5.70352 	-0.761099 	2.39061e-20 5.68555 	-0.766437 	8.2374e-21 5.66735 	-0.771767 	-7.52822e-21 5.64809 	-0.776803 	-3.70365e-20 5.6385 	-0.779688 	-3.84503e-20 5.62863 	-0.782407 	-3.29827e-20 5.6187 	-0.785125 	-2.75204e-20 5.60871 	-0.787841 	-2.20632e-20 5.59919 	-0.790407 	-1.69082e-20 5.59005 	-0.793019 	-1.5889e-20 5.58085 	-0.79563 	-1.4896e-20 5.57159 	-0.798239 	-1.39294e-20 5.56228