# vtk DataFile Version 2.0
track0
ASCII
DATASET POLYDATA
POINTS 12060 float
-0.0205 0.001 1e-05
-0.02052 0.000999985 1e-05
-0.02054 0.000999974 1e-05
-0.02056 0.000999965 1e-05
-0.02058 0.000999959 1e-05
-0.0206 0.000999956 1e-05
-0.0205 0.00367778 1e-05
-0.02052 0.00367778 1e-05
-0.02054 0.00367777 1e-05
-0.02056 0.00367777 1e-05
-0.02058 0.00367777 1e-05
-0.0206 0.00367777 1e-05
-0.0205 0.00635556 1e-05
-0.02052 0.00635555 1e-05
-0.02054 0.00635555 1e-05
-0.02056 0.00635555 1e-05
-0.02058 0.00635555 1e-05
-0.0206 0.00635555 1e-05
-0.0205 0.00903333 1e-05
-0.02052 0.00903333 1e-05
-0.02054 0.00903333 1e-05
-0.02056 0.00903333 1e-05
-0.02058 0.00903333 1e-05
-0.0206 0.00903333 1e-05
-0.0205 0.0117111 1e-05
-0.02052 0.0117111 1e-05
-0.02054 0.0117111 1e-05
-0.02056 0.0117111 1e-05
-0.02058 0.0117111 1e-05
-0.0206 0.0117111 1e-05
-0.0205 0.0143889 1e-05
-0.02052 0.0143889 1e-05
-0.02054 0.0143889 1e-05
-0.02056 0.0143889 1e-05
-0.02058 0.0143889 1e-05
-0.0206 0.0143889 1e-05
-0.0205 0.0170667 1e-05
-0.02052 0.0170667 1e-05
-0.02054 0.0170667 1e-05
-0.02056 0.0170667 1e-05
-0.02058 0.0170667 1e-05
-0.0206 0.0170667 1e-05
-0.0205 0.0197444 1e-05
-0.02052 0.0197444 1e-05
-0.02054 0.0197444 1e-05
-0.02056 0.0197444 1e-05
-0.02058 0.0197444 1e-05
-0.0206 0.0197444 1e-05
-0.0205 0.0224222 1e-05
-0.02052 0.0224222 1e-05
-0.02054 0.0224222 1e-05
-0.02056 0.0224222 1e-05
-0.02058 0.0224222 1e-05
-0.0206 0.0224222 1e-05
-0.0205 0.0251 1e-05
-0.02052 0.0250998 1e-05
-0.02054 0.0250997 1e-05
-0.02056 0.0250995 1e-05
-0.02058 0.0250995 1e-05
-0.0206 0.0250994 1e-05
-0.0205 0.001 1e-05
-0.0202034 0.00100022 1e-05
-0.0199069 0.00100067 1e-05
-0.0196103 0.00100132 1e-05
-0.0193137 0.00100219 1e-05
-0.0190172 0.00100326 1e-05
-0.0187132 0.00100466 1e-05
-0.0184093 0.00100588 1e-05
-0.0181054 0.0010071 1e-05
-0.0178015 0.00100832 1e-05
-0.0174976 0.00100954 1e-05
-0.0172058 0.00101083 1e-05
-0.016914 0.00101193 1e-05
-0.0166222 0.00101303 1e-05
-0.0163305 0.00101413 1e-05
-0.0160387 0.00101523 1e-05
-0.0157586 0.00101637 1e-05
-0.0154784 0.00101745 1e-05
-0.0151983 0.00101857 1e-05
-0.0149182 0.00101972 1e-05
-0.0146381 0.00102091 1e-05
-0.0143754 0.0010221 1e-05
-0.0141127 0.00102328 1e-05
-0.01385 0.00102449 1e-05
-0.0135873 0.00102574 1e-05
-0.0133655 0.00102682 1e-05
-0.0133511 0.00102689 1e-05
-0.0133367 0.00102696 1e-05
-0.0133223 0.00102703 1e-05
-0.0133079 0.0010271 1e-05
-0.0132934 0.00102718 1e-05
-0.0130353 0.00102846 1e-05
-0.0127771 0.00102977 1e-05
-0.0125189 0.00103109 1e-05
-0.0122607 0.00103243 1e-05
-0.0120025 0.00103378 1e-05
-0.0117547 0.00103509 1e-05
-0.0115068 0.00103641 1e-05
-0.0112589 0.00103773 1e-05
-0.0110111 0.00103906 1e-05
-0.0107632 0.00104039 1e-05
-0.0105252 0.00104167 1e-05
-0.0102873 0.00104296 1e-05
-0.0100493 0.00104424 1e-05
-0.00981133 0.00104552 1e-05
-0.00957337 0.0010468 1e-05
-0.00934491 0.00104803 1e-05
-0.00911645 0.00104925 1e-05
-0.00888799 0.00105048 1e-05
-0.00865954 0.0010517 1e-05
-0.00843108 0.00105292 1e-05
-0.00821175 0.00105408 1e-05
-0.00799242 0.00105524 1e-05
-0.00777309 0.0010564 1e-05
-0.00755376 0.00105756 1e-05
-0.00733443 0.00105871 1e-05
-0.00712387 0.00105981 1e-05
-0.0069133 0.00106091 1e-05
-0.00670273 0.001062 1e-05
-0.00649216 0.00106309 1e-05
-0.0062816 0.00106418 1e-05
-0.00607944 0.00106521 1e-05
-0.00587729 0.00106625 1e-05
-0.00567514 0.00106728 1e-05
-0.00547298 0.00106831 1e-05
-0.00527083 0.00106934 1e-05
-0.00507675 0.00107031 1e-05
-0.00488267 0.00107129 1e-05
-0.0046886 0.00107226 1e-05
-0.00449452 0.00107324 1e-05
-0.00430044 0.00107421 1e-05
-0.00411412 0.00107513 1e-05
-0.0039278 0.00107606 1e-05
-0.00374147 0.00107698 1e-05
-0.00355515 0.00107791 1e-05
-0.00336883 0.00107883 1e-05
-0.00318995 0.00107971 1e-05
-0.00301107 0.00108059 1e-05
-0.00283219 0.00108148 1e-05
-0.00265331 0.00108236 1e-05
-0.00247443 0.00108325 1e-05
-0.0023027 0.0010841 1e-05
-0.00213097 0.00108495 1e-05
-0.00195924 0.00108581 1e-05
-0.0017875 0.00108667 1e-05
-0.00161577 0.00108753 1e-05
-0.0014509 0.00108836 1e-05
-0.00128603 0.00108919 1e-05
-0.00112116 0.00109004 1e-05
-0.00095629 0.0010909 1e-05
-0.000791418 0.00109176 1e-05
-0.000633135 0.0010926 1e-05
-0.000474851 0.00109345 1e-05
-0.000316568 0.00109432 1e-05
-0.000158284 0.00109519 1e-05
0 0.00109608 1e-05
0.000105677 0.00109667 1e-05
0.000211355 0.00109727 1e-05
0.000317032 0.00109787 1e-05
0.00042271 0.00109848 1e-05
0.000528387 0.00109908 1e-05
0.000634886 0.00109968 1e-05
0.000741385 0.00110028 1e-05
0.000847885 0.00110088 1e-05
0.000954384 0.00110147 1e-05
0.00106088 0.00110205 1e-05
0.00116821 0.00110263 1e-05
0.00127554 0.0011032 1e-05
0.00138286 0.00110377 1e-05
0.00149019 0.00110432 1e-05
0.00159752 0.00110486 1e-05
0.00170568 0.0011054 1e-05
0.00181384 0.00110593 1e-05
0.001922 0.00110644 1e-05
0.00203016 0.00110695 1e-05
0.00213833 0.00110744 1e-05
0.00224733 0.00110793 1e-05
0.00235633 0.00110841 1e-05
0.00246533 0.00110888 1e-05
0.00257434 0.00110934 1e-05
0.00268334 0.00110979 1e-05
0.00279319 0.00111022 1e-05
0.00290304 0.00111066 1e-05
0.00301289 0.00111108 1e-05
0.00312274 0.0011115 1e-05
0.00323259 0.0011119 1e-05
0.00334329 0.00111229 1e-05
0.003454 0.00111268 1e-05
0.0035647 0.00111306 1e-05
0.0036754 0.00111343 1e-05
0.00378611 0.00111379 1e-05
0.00389767 0.00111414 1e-05
0.00400924 0.00111449 1e-05
0.0041208 0.00111482 1e-05
0.00423237 0.00111515 1e-05
0.00434393 0.00111547 1e-05
0.00445636 0.00111577 1e-05
0.00456879 0.00111607 1e-05
0.00468123 0.00111637 1e-05
0.00479366 0.00111665 1e-05
0.00490609 0.00111692 1e-05
0.0050194 0.00111719 1e-05
0.0051327 0.00111744 1e-05
0.00524601 0.00111769 1e-05
0.00535932 0.00111793 1e-05
0.00547262 0.00111816 1e-05
0.00558681 0.00111838 1e-05
0.005701 0.0011186 1e-05
0.00581518 0.0011188 1e-05
0.00592937 0.001119 1e-05
0.00604356 0.00111918 1e-05
0.00615863 0.00111936 1e-05
0.00627371 0.00111953 1e-05
0.00638878 0.00111969 1e-05
0.00650386 0.00111985 1e-05
0.00661893 0.00111999 1e-05
0.0067349 0.00112013 1e-05
0.00685087 0.00112025 1e-05
0.00696684 0.00112037 1e-05
0.00708281 0.00112048 1e-05
0.00719878 0.00112058 1e-05
0.00731565 0.00112067 1e-05
0.00743252 0.00112076 1e-05
0.00754939 0.00112083 1e-05
0.00766626 0.0011209 1e-05
0.00778313 0.00112096 1e-05
0.00787319 0.00112099 1e-05
0.00796324 0.00112102 1e-05
0.00805329 0.00112105 1e-05
0.00814334 0.00112107 1e-05
0.00822906 0.00112109 1e-05
0.00825766 0.00112109 1e-05
0.00828625 0.00112109 1e-05
0.00831485 0.00112109 1e-05
0.00834344 0.0011211 1e-05
0.00837203 0.0011211 1e-05
0.00849073 0.0011211 1e-05
0.00860942 0.00112109 1e-05
0.00872812 0.00112108 1e-05
0.00884682 0.00112105 1e-05
0.00896551 0.00112102 1e-05
0.00908513 0.00112097 1e-05
0.00920475 0.00112091 1e-05
0.00932437 0.00112085 1e-05
0.00944398 0.00112078 1e-05
0.0095636 0.0011207 1e-05
0.00968415 0.0011206 1e-05
0.0098047 0.00112049 1e-05
0.00992525 0.00112038 1e-05
0.0100458 0.00112026 1e-05
0.0101663 0.00112013 1e-05
0.0102878 0.00111997 1e-05
0.0104093 0.00111982 1e-05
0.0105308 0.00111966 1e-05
0.0106523 0.00111948 1e-05
0.0107738 0.0011193 1e-05
0.0108962 0.00111909 1e-05
0.0110186 0.00111889 1e-05
0.0111411 0.00111867 1e-05
0.0112635 0.00111845 1e-05
0.0113859 0.00111821 1e-05
0.0115093 0.00111795 1e-05
0.0116327 0.00111769 1e-05
0.0117561 0.00111742 1e-05
0.0118795 0.00111713 1e-05
0.0120028 0.00111684 1e-05
0.0121272 0.00111653 1e-05
0.0122515 0.00111621 1e-05
0.0123759 0.00111588 1e-05
0.0125002 0.00111554 1e-05
0.0126245 0.00111519 1e-05
0.0127498 0.00111482 1e-05
0.0128752 0.00111444 1e-05
0.0130005 0.00111406 1e-05
0.0131258 0.00111366 1e-05
0.0132511 0.00111325 1e-05
0.0133774 0.00111282 1e-05
0.0135036 0.00111238 1e-05
0.0136299 0.00111194 1e-05
0.0137562 0.00111148 1e-05
0.0138825 0.00111101 1e-05
0.0140098 0.00111052 1e-05
0.014137 0.00111002 1e-05
0.0142643 0.00110951 1e-05
0.0143915 0.00110899 1e-05
0.0145188 0.00110845 1e-05
0.0146471 0.0011079 1e-05
0.0147753 0.00110734 1e-05
0.0149036 0.00110677 1e-05
0.0150318 0.00110618 1e-05
0.0151601 0.00110559 1e-05
0.0152893 0.00110498 1e-05
0.0154186 0.00110435 1e-05
0.0155478 0.00110371 1e-05
0.0156771 0.00110306 1e-05
0.0158063 0.0011024 1e-05
0.0159366 0.00110173 1e-05
0.0160668 0.00110103 1e-05
0.0161971 0.00110033 1e-05
0.0163273 0.00109961 1e-05
0.0164576 0.00109888 1e-05
0.0165889 0.00109815 1e-05
0.0167201 0.00109739 1e-05
0.0168514 0.00109662 1e-05
0.0169827 0.00109583 1e-05
0.0171139 0.00109504 1e-05
0.0172462 0.00109423 1e-05
0.0173785 0.00109341 1e-05
0.0175108 0.00109257 1e-05
0.0176431 0.00109171 1e-05
0.0177754 0.00109085 1e-05
0.0179087 0.00108998 1e-05
0.018042 0.00108909 1e-05
0.0181753 0.00108818 1e-05
0.0183087 0.00108725 1e-05
0.018442 0.00108632 1e-05
0.0185763 0.00108539 1e-05
0.0187107 0.00108443 1e-05
0.018845 0.00108344 1e-05
0.0189794 0.00108244 1e-05
0.0191137 0.00108144 1e-05
0.0192491 0.00108044 1e-05
0.0193845 0.00107941 1e-05
0.0195199 0.00107835 1e-05
0.0196553 0.00107728 1e-05
0.0197907 0.00107621 1e-05
0.0199272 0.00107514 1e-05
0.0200636 0.00107404 1e-05
0.0202001 0.0010729 1e-05
0.0203365 0.00107176 1e-05
0.020473 0.00107062 1e-05
0.0206105 0.00106947 1e-05
0.020748 0.0010683 1e-05
0.0208855 0.00106709 1e-05
0.021023 0.00106587 1e-05
0.0211606 0.00106466 1e-05
0.0212991 0.00106344 1e-05
0.0214377 0.0010622 1e-05
0.0215763 0.00106091 1e-05
0.0217149 0.00105962 1e-05
0.0218535 0.00105833 1e-05
0.0219931 0.00105704 1e-05
0.0221328 0.00105572 1e-05
0.0222724 0.00105436 1e-05
0.0224121 0.001053 1e-05
0.0225517 0.00105163 1e-05
0.0226925 0.00105027 1e-05
0.0228332 0.00104887 1e-05
0.022974 0.00104744 1e-05
0.0231147 0.00104599 1e-05
0.0232555 0.00104455 1e-05
0.0233973 0.00104311 1e-05
0.0235391 0.00104163 1e-05
0.023681 0.00104012 1e-05
0.0238228 0.0010386 1e-05
0.0239647 0.00103708 1e-05
0.0241076 0.00103556 1e-05
0.0242505 0.001034 1e-05
0.0243935 0.00103241 1e-05
0.0245364 0.0010308 1e-05
0.0246794 0.0010292 1e-05
0.0248234 0.0010276 1e-05
0.0249675 0.00102596 1e-05
0.0251115 0.00102429 1e-05
0.0252556 0.0010226 1e-05
[...]
POINT_DATA 12060
 FIELD attributes 2
p 1 12060 float
-5.27218 -5.26886 -5.26555 -5.26223 -5.25892 -5.25561
-5.4248 -5.42478 -5.42476 -5.42473 -5.42471 -5.42469
-5.5995 -5.59938 -5.59926 -5.59913 -5.59901 -5.5989
-5.69358 -5.69353 -5.69347 -5.69342 -5.69337 -5.69331
-5.73948 -5.73937 -5.73926 -5.73915 -5.73903 -5.73892
-5.7468 -5.74664 -5.74648 -5.74632 -5.74616 -5.746
-5.72056 -5.72049 -5.72042 -5.72035 -5.72027 -5.7202
-5.6515 -5.65146 -5.65142 -5.65138 -5.65134 -5.6513
-5.53053 -5.53053 -5.53054 -5.53055 -5.53055 -5.53056
-3.31805 -3.33738 -3.35658 -3.37565 -3.39458 -3.41338
-5.27218 -5.27146 -5.26782 -5.26411 -5.26032 -5.25192 -5.26573 -5.28065 -5.29558 -5.3105 -5.33488 -5.35658 -5.38644 -5.4163 -5.44616 -5.47883 -5.49438 -5.51598 -5.53757 -5.55917 -5.58238 -5.60108 -5.62178 -5.64248 -5.66319 -5.68068 -5.68181 -5.68295 -5.68408 -5.68521 -5.68634 -5.70782 -5.72931 -5.75079 -5.77228 -5.79348 -5.81202 -5.83037 -5.84872 -5.86707 -5.88484 -5.90019 -5.91525 -5.93032 -5.94538 -5.95988 -5.97331 -5.98648 -5.99965 -6.01282 -6.02553 -6.0378 -6.04979 -6.06178 -6.07378 -6.08532 -6.09657 -6.10748 -6.11838 -6.12929 -6.13975 -6.15001 -6.15993 -6.16986 -6.17978 -6.18932 -6.19874 -6.20779 -6.21684 -6.22589 -6.23459 -6.24323 -6.25154 -6.25984 -6.26815 -6.27627 -6.28428 -6.29174 -6.29921 -6.30667 -6.31399 -6.32154 -6.32908 -6.33661 -6.34415 -6.35232 -6.36089 -6.36879 -6.37669 -6.38459 -6.39302 -6.40346 -6.41657 -6.42968 -6.44278 -6.45805 -6.47367 -6.49311 -6.51254 -6.53198 -6.55119 -6.56874 -6.58664 -6.60454 -6.62244 -6.6382 -6.65016 -6.66184 -6.67353 -6.68522 -6.69677 -6.70648 -6.71569 -6.7249 -6.73411 -6.74314 -6.75247 -6.76042 -6.76837 -6.77631 -6.78297 -6.79098 -6.79747 -6.80396 -6.81045 -6.81547 -6.82182 -6.82693 -6.83203 -6.83714 -6.84111 -6.84598 -6.84988 -6.85378 -6.85768 -6.86085 -6.86462 -6.86768 -6.87074 -6.8738 -6.87642 -6.87944 -6.88193 -6.88443 -6.88692 -6.88914 -6.89169 -6.89384 -6.89599 -6.89814 -6.9001 -6.90239 -6.90438 -6.90637 -6.90836 -6.91022 -6.91236 -6.9143 -6.91623 -6.91816 -6.92001 -6.92207 -6.924 -6.92593 -6.92786 -6.92975 -6.93132 -6.93283 -6.93434 -6.93585 -6.93728 -6.93776 -6.93824 -6.93872 -6.9392 -6.93974 -6.94177 -6.94387 -6.94596 -6.94806 -6.9505 -6.95244 -6.95474 -6.95704 -6.95934 -6.96234 -6.96416 -6.96667 -6.96918 -6.97169 -6.97527 -6.97695 -6.97963 -6.9823 -6.98498 -6.98907 -6.9906 -6.99342 -6.99624 -6.99907 -7.00363 -7.00505 -7.00804 -7.01103 -7.01402 -7.01903 -7.02039 -7.02356 -7.02672 -7.02988 -7.03529 -7.03665 -7.03998 -7.04331 -7.04664 -7.05238 -7.0538 -7.05728 -7.06077 -7.06426 -7.07025 -7.07177 -7.07541 -7.07905 -7.08269 -7.08886 -7.09061 -7.09433 -7.09812 -7.10214 -7.10819 -7.11035 -7.11401 -7.11795 -7.1223 -7.1282 -7.13076 -7.13442 -7.13849 -7.14313 -7.14889 -7.15183 -7.15552 -7.15972 -7.16456 -7.17019 -7.17346 -7.17722 -7.18152 -7.1865 -7.19198 -7.19552 -7.19935 -7.20373 -7.20879 -7.21414 -7.21792 -7.22184 -7.22629 -7.2314 -7.23664 -7.24064 -7.24467 -7.2492 -7.25433 -7.25948 -7.26368 -7.26788 -7.27247 -7.27746 -7.28245 -7.28675 -7.29106 -7.29564 -7.30045 -7.30526 -7.30962 -7.31398 -7.31854 -7.3233 -7.32806 -7.33252 -7.33698 -7.34158 -7.34633 -7.35108 -7.3556 -7.36012 -7.36475 -7.36948 -7.3742 -7.37873 -7.38327 -7.38789 -7.39256 -7.39724 -7.40174 -7.40625 -7.41084 -7.41547 -7.4201 -7.42456 -7.42903 -7.43358 -7.43816 -7.44275 -7.44715 -7.45159 -7.45608 -7.46061 -7.46515 -7.46949 -7.47387 -7.47831 -7.48276 -7.48724 -7.49152 -7.49584 -7.50021 -7.50459 -7.50899 -7.51319 -7.51745 -7.52173 -7.52602 -7.53035 -7.53446 -7.53865 -7.54284 -7.54704 -7.55127 -7.55529 -7.55939 -7.56348 -7.56758 -7.57171 -7.57564 -7.57963 -7.58362 -7.58761 -7.59162 -7.59546 -7.59933 -7.6032 -7.60708 -7.61096 -7.61468 -7.61843 -7.62218 -7.62592 -7.62968 -7.63269 -7.63572 -7.63874 -7.64177 -7.64466 -7.64528 -7.6459 -7.64652 -7.64714 -7.64775 -7.65124 -7.65473 -7.65822 -7.66171 -7.66521 -7.66855 -7.67188 -7.67521 -7.67854 -7.68188 -7.68506 -7.68822 -7.69138 -7.69454 -7.6977 -7.70073 -7.70371 -7.70669 -7.70968 -7.71266 -7.71554 -7.71834 -7.72114 -7.72394 -7.72673 -7.72945 -7.73208 -7.7347 -7.7373 -7.73988 -7.74241 -7.74486 -7.74726 -7.74963 -7.75197 -7.75428 -7.75655 -7.75871 -7.76082 -7.76291 -7.765 -7.76708 -7.769 -7.77083 -7.77266 -7.77452 -7.77638 -7.77806 -7.77961 -7.78117 -7.78278 -7.78439 -7.78583 -7.78708 -7.78833 -7.78968 -7.79102 -7.7922 -7.79313 -7.79406 -7.79512 -7.79619 -7.79706 -7.79765 -7.79821 -7.79894 -7.79962 -7.80015 -7.80046 -7.80065 -7.80104 -7.8013 -7.80145 -7.80149 -7.80128 -7.80131 -7.80111 -7.80086 -7.80062 -7.79997 -7.79957 -7.79889 -7.79822 -7.79755 -7.79659 -7.79566 -7.79452 -7.79339 -7.79227 -7.79098 -7.78947 -7.78784 -7.78622 -7.7846 -7.78311 -7.78307 -7.78304 -7.78301 -7.78297 -7.78294 -7.78081 -7.77868 -7.77656 -7.77445 -7.77218 -7.76968 -7.76695 -7.76423 -7.76151 -7.75844 -7.75557 -7.75219 -7.74881 -7.74543 -7.74145 -7.73809 -7.73412 -7.73003 -7.7257 -7.72094 -7.71686 -7.71245 -7.70757 -7.70215 -7.69653 -7.69165 -7.68678 -7.68098 -7.6744 -7.66782 -7.66207 -7.65633 -7.64966 -7.64205 -7.63445 -7.62777 -7.62109 -7.61349 -7.60477 -7.59606 -7.58835 -7.58035 -7.57151 -7.56202 -7.55204 -7.54314 -7.53339 -7.52324 -7.51302 -7.5016 -7.49121 -7.47961 -7.46802 -7.45645 -7.44415 -7.4319 -7.41901 -7.40614 -7.39327 -7.38154 -7.38106 -7.38058 -7.38009 -7.37961 -7.37911 -7.36457 -7.35002 -7.33548 -7.32096 -7.30581 -7.2903 -7.27399 -7.2577 -7.24139 -7.22371 -7.20683 -7.18898 -7.17075 -7.15169 -7.13193 -7.11304 -7.09413 -7.07366 -7.05167 -7.02968 -7.00863 -6.9876 -6.96494 -6.94057 -6.9162 -6.89286 -6.86906 -6.84379 -6.81766 -6.79073 -6.76493 -6.73728 -6.70932 -6.68139 -6.65219 -6.62829 -6.60318 -6.5781 -6.55303 -6.53003 -6.52394 -6.51785 -6.51177 -6.50568 -6.49937 -6.46613 -6.43266 -6.39921 -6.36579 -6.33088 -6.29593 -6.25946 -6.22293 -6.18549 -6.1469 -6.10878 -6.07069 -6.03053 -5.98842 -5.9463 -5.90474 -5.8632 -5.8196 -5.77385 -5.72804 -5.68285 -5.6361 -5.5884 -5.54072 -5.4913 -5.45327 -5.4137 -5.37414 -5.33461 -5.29828 -5.2858 -5.27332 -5.26085 -5.24838 -5.2354 -5.18109 -5.12625 -5.07146 -5.01671 -4.95917 -4.90239 -4.84455 -4.78571 -4.72447 -4.66266 -4.60169 -4.54076 -4.47746 -4.41167 -4.34583 -4.28082 -4.21414 -4.1463 -4.07851 -4.0091 -3.97345 -3.93643 -3.89942 -3.86242 -3.82745 -3.79258 -3.75772 -3.72288 -3.68806 -3.65193 -3.57829 -3.50333 -3.42844 -3.3525 -3.27486 -3.19789 -3.12099 -3.04208 -2.96121 -2.88022 -2.7998 -2.71854 -2.63615 -2.55382 -2.47011 -2.43038 -2.38987 -2.3493 -2.30875 -2.27018 -2.22546 -2.18075 -2.13607 -2.09136 -2.04567 -1.95957 -1.87261 -1.78573 -1.69802 -1.60964 -1.52153 -1.43349 -1.3448 -1.25532 -1.16561 -1.08351 -1.00111 -0.918708 -0.836374 -0.761229 -0.752178 -0.743128 -0.73408 -0.725022 -0.715916 -0.625202 -0.534512 -0.44391 -0.353366 -0.262514 -0.171601 -0.0807829 0.00972736 0.0999492 0.190443 0.279281 0.367307 0.454994 0.542592 0.622895 0.626284 0.629672 0.633061 0.636441 0.6398 0.728959 0.817996 0.906947 0.995405 1.08323 1.17124 1.25915 1.34573 1.43109 1.51673 1.58493 1.65189 1.71821 1.78447 1.84719 1.86543 1.88367 1.90191 1.92002 1.93785 2.02053 2.1026 2.1846 2.26517 2.3451 2.42509 2.505 2.58246 2.65931 2.73581 2.77234 2.80807 2.84331 2.87853 2.91305 2.95276 2.99246 3.03215 3.07143 3.10998 3.18312 3.25571 3.32753 3.39717 3.46693 3.53639 3.6048 3.67183 3.73885 3.80545 3.81426 3.82287 3.83136 3.83985 3.84833 3.90472 3.96112 4.01751 4.07334 4.12809 4.19058 4.25307 4.31404 4.37352 4.43301 4.48353 4.53304 4.58203 4.63103 4.68057 4.68869 4.69681 4.70493 4.71299 4.72091 4.7764 4.83152 4.88667 4.94121 4.99496 5.04769 5.10046 5.15227 5.20266 5.25297 5.29078 5.3279 5.36479 5.4017 5.43982 5.45121 5.46261 5.47401 5.48535 5.49644 5.54345 5.58986 5.6363 5.68216 5.72722 5.77171 5.81623 5.85969 5.90176 5.94373 5.98507 6.0254 6.06558 6.1058 6.14671 6.14712 6.14752 6.14791 6.14831 6.14871 6.18665 6.22464 6.26266 6.30051 6.33713 6.37402 6.41096 6.44643 6.48088 6.51526 6.54958 6.58345 6.61663 6.64985 6.68183 6.69731 6.71229 6.72724 6.7422 6.75788 6.77396 6.79004 6.80613 6.8222 6.83776 6.86798 6.89721 6.92648 6.95524 6.98352 7.01168 7.03988 7.06715 7.09342 7.11962 7.14576 7.1715 7.19687 7.22229 7.24671 7.26114 7.27517 7.28922 7.30327 7.31838 7.32786 7.33733 7.34681 7.3563 7.36555 7.38827 7.41053 7.43281 7.45499 7.47668 7.4982 7.51958 7.54023 7.5604 7.58054 7.60055 7.62058 7.64023 7.659 7.67773 7.69639 7.71481 7.73308 7.75137 7.76885 7.78553 7.80198 7.81845 7.83492 7.85381 7.85394 7.85407 7.8542 7.85433 7.85446 7.87064 7.88682 7.90301 7.91921 7.9352 7.95097 7.96617 7.98138 7.99652 8.01149 8.02642 8.04117 8.05552 8.06971 8.08386 8.09801 8.11217 8.12595 8.13941 8.15286 8.16635 8.17983 8.19322 8.20615 8.21903 8.23196 8.24486 8.25773 8.27047 8.28287 8.29535 8.30781 8.32027 8.33272 8.34489 8.35704 8.36919 8.38134 8.39349 8.40558 8.4084 8.41121 8.41403 8.41685 8.41973 8.42886 8.43799 8.44712 8.45625 8.46539 8.47734 8.48918 8.50102 8.51287 8.52477 8.53676 8.54858 8.56039 8.57222 8.58415 8.59618 8.60812 8.61999 8.63194 8.64395 8.65607 8.66817 8.68018 8.69236 8.70454 8.71683 8.72913 8.74145 8.75386 8.76627 8.7788 8.79134 8.80404 8.81675 8.82947 8.84231 8.85521 8.86828 8.88135 8.89442 8.90763 8.92099 8.93444 8.9479 8.96138 8.97503 8.9889 9.00278 9.01666 9.03057 9.04479 9.05913 9.07348 9.08782 9.10217 9.10284 9.10351 9.10418 9.10485 9.10552 9.11965 9.13378 9.14791 9.16204 9.17629 9.19156 9.20688 9.2222 9.23752 9.25309 9.26884 9.28468 9.30054 9.31651 9.33264 9.34893 9.36525 9.38167 9.39833 9.41502 9.43186 9.44871 9.46576 9.483 9.50026 9.51766 9.53507 9.55275 9.57055 9.58837 9.60633 9.62446 9.6427 9.66097 9.67936 9.69792 9.71672 9.73553 9.75434 9.77321 9.7816 9.79006 9.79853 9.80699 9.81534 9.82623 9.83712 9.84801 9.85891 9.86991 9.8897 9.90956 9.92942 9.94928 9.96945 9.98971 10.0101 10.0305 10.0511 10.0718 10.0926 10.1135 10.1345 10.1558 10.177 10.1984 10.2198 10.2414 10.2633 10.2851 10.307 10.3291 10.3513 10.3736 10.396 10.4185 10.4413 10.4641 10.4869 10.5097 10.5175 10.5254 10.5332 10.5411 10.5491 10.5646 10.58 10.5954 10.6108 10.6264 10.6502 10.6737 10.6973 10.7209 10.7446 10.7683 10.7926 10.8171 10.8428 10.8691 10.8955 10.9218 10.9425 10.9581 10.9737 10.989 11.0044 11.0311 11.0687 11.1062 11.1439 11.1712 11.1891 11.207 11.2171 11.2193 11.2238 11.2285 11.2332 11.2381 11.245 11.2518 11.2586 11.2657 11.277 11.2944 11.3118 11.3291 11.3467 11.3644 11.3819 11.3995 11.4152 11.4292 11.443 11.4564 11.469 11.4815 11.494 11.5065 11.5068 11.5071 11.5074 11.5077 11.508 11.5186 11.5292 11.5398 11.5502 11.56 11.5693 11.5783 11.5862 11.5928 11.5993 11.6049 11.6103 11.6139 11.6165 11.6184 11.6191 11.6175 11.6159 11.6142 11.6121 11.612 11.6119 11.6118 11.6117 11.6116 11.6053 11.5989 11.5924 11.5859 11.577 11.5657 11.5529 11.5389 11.5221 11.5048 11.485 11.4651 11.4417 11.4147 11.3877 11.3578 11.3251 11.2902 11.2552 11.2168 11.1837 11.147 11.1103 11.0735 11.0286 11.0196 11.0106 11.0016 10.9926 10.9828 10.9238 10.8636 10.8033 10.7429 10.6765 10.6051 10.5294 10.4521 10.3702 10.2852 10.1955 10.1057 10.0074 9.90114 9.79473 9.683 9.57119 9.45106 9.32307 9.19484 9.06066 8.91986 8.77192 8.62147 8.46275 8.29693 8.12423 7.95149 7.77872 7.60268 7.41943 7.22317 7.02694 6.83075 6.55538 6.55381 6.55225 6.55068 6.54912 6.54747 6.31536 6.08329 5.85121 5.61913 5.39267 5.12712 4.81707 4.50656 4.19562 3.80121 3.37844 3.09727 2.81812 2.5722 2.45172 2.32683 2.03989 1.6025 0.856025 0