/*--------------------------------*- C++ -*----------------------------------*\
| =========                 |                                                 |
| \\      /  F ield         | OpenFOAM: The Open Source CFD Toolbox           |
|  \\    /   O peration     | Version:  2312                                  |
|   \\  /    A nd           | Website:  www.openfoam.com                      |
|    \\/     M anipulation  |                                                 |
\*---------------------------------------------------------------------------*/
FoamFile
{
    version     2.0;
    format      ascii;
    arch        "LSB;label=64;scalar=64";
    class       volScalarField;
    location    "40";
    object      omega;
}
// * * * * * * * * * * * * * * * * * * * * * * * * * * * * * * * * * * * * * //

dimensions      [0 0 -1 0 0 0 0];

internalField   nonuniform List<scalar> 
404911
(
322.964
205.611
3464.52
1549.52
235.26
263.019
217.666
626.902
367.047
303.077
293.713
361.346
236.155
281.162
494.985
1147.44
326.819
230.624
261.586
414.22
680.819
302.561
717.92
594.668
255.151
1037.98
378.004
228.981
245.343
1082.13
314.187
234.742
334.037
586.422
292.111
263.22
450.002
517.093
298.068
247.992
426.338
1110.67
285.377
201.676
223.892
459.794
416.941
222.236
240.219
950.809
460.754
383.541
328.521
1434.01
405.703
662.77
9418.7
184.248
394.894
283.905
278.949
147.089
222.092
47.3442
104.229
257.355
66.4104
470.334
192.165
54.4574
195.573
17.5034
178.866
128.743
54.6372
672.233
2325.27
302.173
101.948
227.902
79.6687
214.099
21.8391
168.521
240.534
93.9742
427.185
74.5296
1213.55
457.827
342.569
3038.44
143.387
255.024
224.218
125.939
198.721
282.947
88.4264
304.056
719.535
195.052
145.603
585.508
1334.81
582.636
306.509
774.432
387.331
302.717
246.964
257.262
256.401
272.528
2383.04
579.519
272.5
4619.01
662.5
214.386
215.733
220.194
229.487
303.519
1397.69
372.706
260.366
246.645
228.208
584.826
545
584.753
224.16
203.188
242.029
235.558
279.542
272.238
207.618
329.703
1278.77
377.278
256.198
232.351
223.645
217.693
218.79
212.376
586.726
532.902
229.439
211.159
232.183
1884.08
321.35
1088.62
315.242
219.348
202.383
208.597
206.043
210.994
215.35
216.354
214.241
218.025
229.539
234.038
245.627
314.059
467.188
659.881
519.225
475.056
498.176
497.029
577.229
206.822
215.068
213.236
220.573
223.481
241.437
269.844
258.855
243.567
346.853
783.613
524.79
452
469.357
364.595
401.249
598.686
498.263
197.22
209.75
215.206
228.455
240.098
253.454
282.315
1253.5
1090.19
308.767
646.008
354.264
308.799
292.873
553.309
492.484
365.461
433.908
506.982
510.042
188.241
217.403
235.052
232.086
261.301
568.146
959.078
671.261
305.47
356.099
282.01
306.545
357.477
320.532
503.455
569.118
576.576
400.737
178.347
214.305
231.306
255.212
354.279
1288.45
1325.13
350.857
169.375
308.67
285.251
259.687
218.345
284.082
565.175
383.063
270.253
305.141
330.439
346.231
553.974
212.705
260.109
1191.34
544.63
217.165
143.441
333.658
274.133
302.054
228.225
311.501
307.69
339.576
302.942
316.082
325.612
424.889
536.914
610.53
482.004
539.445
263.086
209.553
514.836
316.608
250.468
346.967
324.456
269.916
364.035
254.844
256.334
439.693
411.891
492.656
533.686
1773.22
415.208
213.322
186.701
196.851
224.251
258.973
297.894
266.594
287.717
269.963
225.427
292.648
273.103
529.54
446.033
500.425
310.7
1130.47
1055.42
969.532
338.1
394.729
190.826
141.175
254.071
239.619
291.699
281.841
261.737
302.315
301.82
299.932
355.39
410.433
242.474
632.7
1187.63
295.954
177.662
193.123
266.156
300.299
262.651
141.832
233.582
243.6
265.391
225.597
164.68
254.933
364.632
327.47
602.474
331.064
538.903
205.223
158.348
193.043
200.462
348.359
290.96
285.204
183.592
210.044
169.044
170.168
198.094
137.395
259.004
392.182
237.084
1095.31
1218.3
316.976
189.595
164.835
182.743
214.893
187.749
191.436
197.54
221.1
169.837
237.024
259.982
276.06
140.235
163.315
483.019
952.752
407.972
177.517
143.741
235.487
246.339
223.634
204.097
171.947
124.018
117.664
104.631
178.357
240.047
304.018
293.351
169.893
328.767
791.442
1177.5
972.762
420.725
350.777
285.466
216.077
219.439
199.168
210.749
140.434
142.477
144.05
137.608
168.372
250.95
246.455
190.053
523.258
481.955
199.536
188.373
238.546
283.655
133.059
146.974
279.111
202.46
275.718
154.525
167.905
177.84
191.407
164.05
170.047
329.334
1037.33
223.089
149.316
202.763
177.53
203.85
165.47
138.469
187.022
244.876
229.102
304.052
243.429
213.611
205.65
219.61
184.498
363.251
481.405
166.559
209.995
212.993
179.601
156.752
155.769
95.9278
99.994
177.197
325.773
278.094
328.528
276.869
221.996
240.361
208.512
1051.1
286.453
142.9
170.505
171.998
183.051
147.757
130.271
179.738
104.604
130.02
165.991
217.243
275.392
290.497
304.235
203.464
340.106
1260.51
512.241
205.765
164.345
176.856
159.836
142.199
181.724
126.295
108.157
104.385
112.198
137.602
143.138
152.682
278.527
147.522
238.368
1107.17
1190.3
271.011
144.273
224.627
187.105
159.916
135.335
124.206
114.843
155.359
88.7804
114.664
169.545
186.884
188.582
172.054
196.483
361.181
483.692
181.387
167.124
177.501
172.724
154.932
129.572
150.907
161.14
83.3687
92.7913
91.7616
143.347
226.976
242.589
214.232
217.542
1083.38
1197.39
271.324
146.692
168.241
169.348
161.528
154.698
145.807
125.355
124.337
152.644
115.595
129.759
132.192
212.094
228.004
218.595
312.854
960.853
185.657
162.73
168.318
160.662
155.628
145.679
150.618
158.53
135.241
103.431
127.815
151.067
177.835
204.422
197.013
241.515
375.369
300.85
145.279
187.17
162.779
151.346
150.11
151.804
145.009
150.431
147.907
135.237
127.981
142.392
166.326
201.88
204.18
197.393
574.152
274.164
168.925
217.622
149.477
143.056
133.196
144.333
134.287
143.381
138.068
139.594
146.839
155.916
190.603
179.807
151.277
285.809
1192.45
1224.29
209.869
150.75
180.085
154.821
140.931
146.416
143.147
146.081
114.835
142.568
141.244
147.313
161.988
187.293
228.16
194.614
516.055
992.792
195.258
155.961
162.805
148.939
127.232
118.6
123.228
117.942
128.032
88.5941
144.51
162.926
166.018
176.177
198.594
202.126
1128.09
332.892
166.629
161.514
171.257
172.971
158.852
143.112
132.944
132.847
118.492
109.636
127.342
156.448
169.4
196.382
140.157
213.277
1168.79
318.114
149.526
154.819
163.118
157.777
173.652
126.927
130.569
129.194
129.043
125.216
127.536
154.9
181.764
188.419
151.776
306.951
1099.03
240.177
149.492
164.516
164.71
155.26
127.903
152.32
141.511
117.785
127.476
129.692
133.206
153.104
179.597
195.71
177.94
503.206
482.463
176.204
182.197
203.009
184.937
162.525
145.526
96.2465
124.458
128.294
77.9369
128.718
151.271
154.14
178.271
186.83
201.553
1071.05
317.816
149.15
155.558
160.706
152.122
166.24
143.122
133.665
104.376
65.5956
141.059
61.6811
125.165
167.902
174.235
196.305
252.397
1208.4
1111.49
211.412
138.946
164.917
160.478
145.013
120.484
163.246
88.0655
86.1423
82.6335
69.3115
133.95
148.91
179.509
193.93
144.822
281.639
1104.81
199.056
155.2
165.018
154.878
143.235
131.886
107.398
144.014
111.166
115.237
71.5502
87.3
132.621
163.737
178.2
163.593
478.146
1088.77
199.613
155.681
162.132
155.327
147.068
141.136
133.703
112.587
105.666
81.3525
58.7233
65.81
113.893
170.884
160.065
183.831
978.607
1082.54
195.341
153.82
159.673
149.366
147.292
142.612
136.492
135.867
137.22
88.8796
90.2306
73.1579
111.236
188.658
187.268
252.539
1211.5
315.908
171.394
161.505
165.495
151.324
139.259
141.688
144.815
124.93
123.605
106.653
82.6156
77.0207
115.994
186.174
187.926
280.773
1210.42
285.706
147.941
160.939
165.625
157.364
147.363
130.912
141.871
141.072
117.862
94.3306
46.8794
73.9325
119.71
176.572
186.256
274.067
1161.1
198.21
161.088
185.148
165.529
151.835
139.32
147.785
143.916
138.359
131.362
108.912
87.7922
132.29
169.483
189.293
183.865
286.233
1037.78
195.25
152.758
153.964
147.354
140.699
133.039
138.422
121.878
99.9702
138.587
133.141
125.027
119.742
146.469
178.081
148.426
298.828
1106.14
195.66
151.183
157.049
141.286
131.582
128.619
115.964
110.821
120.089
97.9492
138.593
148.254
153.652
160.859
194.537
149.147
314.848
1111.34
203.036
155.494
162.115
143.627
132.106
134.338
122.695
120.543
117.279
107.018
111.322
133.229
151.54
171.859
166.94
156.918
469.639
1046.73
195.32
156.221
164.943
149.552
134.931
132.522
139.591
136.037
138.146
135.653
118.998
123.607
145.379
168.348
177.056
191.978
1044.41
334.136
191.082
164.959
173.999
151.986
127.889
113.453
125.702
137.043
126.367
130.48
136.013
138.597
149.197
169.972
171.562
195.412
1133.03
336.634
184.197
153.122
181.3
153.052
134.041
118.251
106.875
119.438
92.7961
104.488
128.646
141.677
147.989
168.441
176.235
192.735
1100.29
1240.21
241.944
177.72
154.767
159.066
172.918
124.282
82.6013
92.3309
65.9711
47.0657
25.2925
48.4257
149.381
156.253
169.493
179.14
211.534
1089.59
1127.74
196.962
137.668
221.785
171.997
130.069
129.538
77.6687
37.2672
31.1647
31.928
20.7689
30.351
106.267
163.058
170.865
170.453
255.499
209.924
167.295
167.07
152.439
134.978
111.266
74.3455
59.8017
24.7825
20.8263
17.1485
58.0085
122.922
159.799
166.166
140.749
269.931
1064.64
208.152
154.253
165.258
154.024
143.268
131.943
109.093
75.6999
76.5333
17.8466
15.5052
30.9489
135.155
165.073
175.127
153.412
322.137
1103.94
198.889
152.424
159.756
149.929
144.55
143.319
140.796
112.799
70.3773
62.5818
19.1322
26.9876
119.417
171.432
182.57
158.2
483.25
1194.97
197.62
156.374
163.932
150.914
144.224
135.754
142.233
113.25
92.849
58.9194
68.3547
55.2754
131.378
178.841
162.975
164.857
909.786
178.883
194.783
172.793
154.896
146.642
143.521
125.266
96.1197
38.612
41.1488
94.276
113.358
136.881
177.453
176.303
191.581
1015.02
800.128
315.241
164.578
146.614
146.491
145.671
140.465
116.58
73.3309
25.5349
49.4679
141.454
148.388
158.716
198.816
195.508
1112.94
2229.71
315.27
270.771
203.236
139.515
138.428
141.539
139.441
138.369
102.504
77.0088
43.2295
128.182
169.161
174.697
141.22
219.673
1164.94
315.698
168.188
176.395
164.209
136.441
136.88
131.119
127.769
126.125
69.1413
59.5918
79.6026
143.889
175.989
189.401
147.837
294.279
301.515
172.683
182.11
151.302
118.771
126.477
143.384
131.757
105.969
83.9967
29.8668
73.5351
152.521
165.957
179.12
155.805
322.451
1252.85
266.94
169.212
196.483
176.452
113.969
113.305
109.753
126.879
113.832
56.6558
41.3738
71.431
130.677
159.682
167.021
179.444
920.63
1016.22
201.369
180.657
170.012
148.868
97.8477
108.374
137.103
70.3185
51.6537
61.4061
45.0016
64.1859
107.052
157.951
161.697
191.348
1048.4
892.631
157.065
333.881
209.817
106.141
81.9515
42.5577
14.4361
43.3708
36.2576
31.2971
49.6093
94.4926
113.905
175.407
199.745
193.441
1055.5
484.656
147.5
211.16
155.109
77.8135
56.729
38.5718
16.8385
18.1565
55.7111
53.3723
89.3984
118.115
138.269
206.732
271.233
197.448
1089.64
1073.81
263.211
149.418
187.021
153.036
72.8948
30.4688
3.68257
5.21156
25.4992
77.0172
95.9415
139.076
161.98
163.672
203.036
222.633
341.229
1108.38
972.71
165.852
214.297
190.687
150.952
68.1612
11.556
2.09874
3.89485
29.2771
60.7986
96.41
125.028
126.607
161.485
175.502
172.135
221.511
1140.41
245.287
190.649
159.384
103.254
55.5943
7.20229
2.32864
4.44825
20.2119
61.3525
98.5896
136.988
142.019
161.589
191.957
143.373
273.016
1265.83
282.408
174.016
176.902
93.0058
43.3573
2.96043
2.24127
9.99251
14.2588
40.975
66.0674
143.464
150.584
168.009
189.191
153.551
317.758
289.985
187.657
192.524
119.9
40.1937
3.29413
1.96095
3.46755
29.9881
24.8083
79.7985
139.44
159.637
167.228
189.495
159.181
484.762
259.691
305.687
236.452
123.193
53.3329
2.66112
2.34001
5.03834
13.4916
25.5107
47.7012
132.585
161.795
178.243
166.9
165.145
930.652
1031.52
188.121
254.63
261.421
117.013
65.957
8.58058
3.60693
11.5537
23.0065
71.4225
77.436
109.628
175.146
180.508
183.549
206.945
1042
973.039
196.087
237.792
232.245
112.228
56.836
4.04419
2.67689
15.2045
42.576
62.9801
100.562
162.588
193.595
188.112
144.118
287.964
910.268
165.264
170.949
169.899
101.905
67.0076
6.99239
3.02511
5.62302
38.3058
79.9088
104.413
154.45
179.18
185.162
154.301
331.77
923.578
162.594
165.397
163.394
117.3
54.0695
4.18263
4.47372
40.4499
72.708
74.8852
137.881
180.837
179.996
193.429
161.048
337.3
937.229
167.149
171.763
170.731
140.264
94.2201
7.78726
4.43941
31.8195
70.2377
80.0308
156.593
187.149
184.487
171.809
166.701
926.126
946.909
162.896
193.706
167.886
134.121
101.302
107.612
23.287
17.8965
71.8882
104.509
189.288
184.499
186.304
181.117
200.717
1036.05
317.107
164.91
224.445
219.425
111.99
59.0065
48.0777
93.8123
101.745
82.6099
101.66
150.676
172.391
182.204
185.389
210.191
1118.89
372.761
398.356
204.034
89.5117
45.0403
3.92815
11.676
109.92
96.5995
104.429
156.522
172.5
176.052
184.67
255.967
1258.33
354.251
345.437
245.153
148.944
4.38239
2.89714
4.74899
47.7577
102.235
105.359
170.449
177.775
182.794
154.839
303.819
323.904
291.483
293.464
248.507
177.925
5.56968
3.7822
14.998
40.7482
112.694
138.866
148.571
178.774
184.177
157.223
334.837
352.416
155.836
207.052
254.609
252.747
94.2824
7.10005
6.05144
77.2211
164.129
212.321
242.726
210.855
242.62
186.523
919.532
367.815
172.092
223.301
280.7
309.677
317.184
150.458
183.336
155.774
176.12
200.383
217.817
258.893
345.053
216.924
1107.99
1273.53
334.184
204.976
192.133
256.513
306.17
307.609
297.695
266.4
279.806
327.139
290.402
221.877
240.255
308.964
522.744
1324.12
258.963
163.108
210.67
217.559
282.095
304.465
271.083
96.6199
208.4
274.031
281.553
318.051
336.978
397.638
280.739
1092.25
239.693
179.471
174.021
194.474
238.405
242.302
347.929
212.105
185.087
237.338
259.078
282.673
322.901
376.331
872.739
353.046
180.879
617.006
438.633
293.902
194.993
182.747
199.076
150.153
165.166
227.445
201.82
185.594
225.26
323.729
4147.78
364.644
598.15
390.391
319.159
342.32
308.325
198.976
250.676
270.021
301.788
232.805
219.73
191.937
223.61
337.161
864.834
1156.42
701.064
343.152
315.437
338.032
300.526
197.986
232.161
267.392
289.439
285.802
226.197
239.206
239.66
367.705
1264.6
250.58
484.48
333.982
248.766
240.779
173.936
242.871
262.385
296.528
287.609
344.74
154.975
236.784
277.306
1489.91
1246
257.056
190.41
360.609
306.512
300.896
214.883
163.655
248.75
272.816
287.885
287.236
327.973
186.473
371.942
1323.92
606.283
235.581
192.946
509.937
340.141
294.469
280.741
233.829
275.59
293.11
301.122
325.044
162.518
215.39
393.343
1203.59
589.947
504.464
372.008
331.602
274.35
267.306
245.497
284.703
273.976
341.288
193.705
286.686
1246.13
760.977
583.385
502.96
412.808
353.093
329.627
288.018
240.059
318.452
306.288
159.305
214.301
367.299
1235.17
251.981
193.03
533.701
410.778
308.737
308.163
358.25
275.558
300.49
291.568
184.452
243.55
586.769
1311.02
254.69
199.825
541.589
496.965
301.844
335.776
464.501
380.835
408.934
371.878
198.527
263.693
1277.32
1236.15
257.43
600.464
530.771
518.05
385.284
303.228
253.433
296.105
356.983
529.489
210.957
271.188
1361.76
1284.64
265.202
626.736
532.896
536.939
488.148
280.357
305.237
278.41
385.206
529.515
216.362
359.54
1409.57
1224.8
255.801
225.635
556.319
503.937
542.992
372.145
261.276
301.006
347.172
192.925
244.938
364.716
1504.7
1498.63
1214.67
199.199
195.382
520.155
525.297
644.25
368.278
305.127
376.613
558.316
225.435
368.571
189.663
552.314
516.628
516.887
173.045
534.653
575.564
585.55
560.281
197.192
184.472
516.312
607.992
205.003
245.584
321.248
1238.77
6302.66
633.358
183.773
529.35
578.502
246.659
405.968
2855.62
2144.62
555.021
841.773
252.747
281.96
1233.21
506.684
836.051
261.048
274.974
632.998
910.366
681.919
282.872
250.333
297.918
1236.56
1201.91
310.043
2002.66
918.1
565.675
369.01
208.15
202.268
249.636
258.177
693.411
306.318
225.555
410.25
735.25
1555.33
1393.35
6457.93
525.079
1506.15
599.616
567.421
1403.71
611.916
411.815
353.119
334.535
302.922
286.275
259.312
348.704
1430.44
624.42
402.019
306.84
300.643
276.002
258.705
257.881
274.107
279.789
277.924
259.124
262.501
275.158
251.02
1352.98
586.376
320.025
286.434
264.809
261.549
260.475
258.843
258.796
259.549
265.493
247.166
242.759
251.343
255.95
245.213
254.109
252.972
273.466
378.067
426.78
889.176
1054.33
570.063
310.533
271.642
257.602
242.386
245.392
261.435
272.631
271.002
264.912
267.851
274.494
242.619
601.386
600.336
240.103
243.899
231.691
254.149
271.648
300.931
658.255
608.935
352.716
284.247
266.764
226.06
209.765
215.844
224.694
241.145
257.703
270.884
268.943
274.073
250.49
244.9
244.807
226.271
568.884
612.239
228.698
241.668
249.886
275.876
318.894
1334.68
467.024
225.249
172.793
162.974
207.366
230.011
545.569
682.931
759.31
180.465
212.105
239.721
215.897
192.159
196.079
221.096
230.004
221.362
207.969
547.99
614.551
237.36
258.459
307.623
650.028
1556.18
422.177
365.003
313.297
271.939
279.668
258.105
269.504
350.111
450.65
450.754
551.232
174.59
197.673
271.624
388.357
784.855
193.619
218.542
233.282
245.724
609.585
621.348
281.568
630.884
1297.69
363.89
458.287
373.741
239.401
230.479
240.917
279.265
191.512
128.269
317.534
431.682
497.735
448.768
403.345
554.596
193.517
339.937
694.792
217.249
242.768
257.78
281.165
310.603
602.989
474.752
1407
338.708
418.086
373.243
322.013
183.303
209.51
223.606
218.298
260.344
193.525
166.963
272.445
332.565
382.247
401.251
328.248
252.896
145.408
323.214
175.358
238.1
281.852
392.39
649.844
1162.15
444.23
203.686
222.42
305.242
270.442
292.827
162.505
178.21
183.098
232.52
222.448
139.422
163.752
174.81
192.348
192.784
202.956
282.173
282.581
272.859
212.346
207.818
213.592
255.479
582.639
1211.58
264.198
172.075
279.534
264.367
237.488
297.275
167.17
171.049
178.071
175.731
192.286
258.107
238.044
194.482
199.854
184.481
182.394
199.353
226.696
335.21
193.053
628.751
591.161
712.551
4604.04
806.23
1418.63
335.85
289.42
260.589
215.783
187.874
129.536
175.481
197.795
192.449
202.718
208.286
170.807
213.065
193.091
245.447
193.398
208.249
222.952
241.024
225.419
163.816
606.523
1721.27
1331.49
388.76
285.863
229.009
204.047
235.508
107.826
77.6754
37.1664
47.5907
149.784
228.881
164.097
142.382
163.947
180.85
208.381
242.307
256.969
258.695
233.518
150.544
228.159
489.732
484.851
202.514
223.546
322.385
294.662
195.833
176.09
199.65
101.686
51.3556
39.308
38.4016
38.7196
49.0253
97.5222
56.5496
55.2327
140.15
259.985
259.309
346.013
319.075
145.322
220.909
521.523
463.707
212.852
197.146
230.706
207.682
186.626
170.374
181.594
180.223
92.622
52.4507
44.3636
40.9095
44.1651
36.4252
50.7414
51.6277
73.1869
111.701
197.449
341.462
398.264
629.046
213.055
518.005
416.003
178.076
245.502
246.819
219.117
200.023
175.581
156.438
175.713
146.046
151.984
90.5035
66.2334
57.8482
60.266
44.5216
49.1423
100.141
179.166
246.596
268.721
372.691
409.737
572.247
920.868
1203.82
403.815
173.928
225.574
213.317
200.46
198.153
214.474
197.785
173.63
141.217
104.11
78.3166
108.994
80.5573
54.3964
55.5408
50.2516
61.907
62.8058
132.5
247.511
332.777
396.213
497.525
448.415
1187.23
400.399
167.124
211.785
211.36
204.165
202.061
153.194
117.129
90.4629
70.1507
98.948
89.614
74.9331
74.9684
118.083
114.148
80.0425
125.841
74.4189
158.963
212.867
297.303
400.802
502.624
481.3
1076.04
286.364
167.151
220.882
220.373
216.046
210.64
169.183
114.84
71.0598
46.4455
32.4974
40.308
82.6174
96.3575
95.3134
86.268
117.286
133.771
115.336
167.341
195.448
231.16
236.404
375.421
353.745
1402.27
1287.95
301.611
160.439
196.175
215.004
210.014
192.276
174.737
137.879
104.712
81.8764
62.5572
50.593
52.2751
55.4026
65.7992
73.5055
91.6004
98.8956
74.8456
78.9177
177.589
227.979
271.727
290.378
217.827
1602.2
449.644
174.027
234.901
226.483
214.352
168.232
131.906
109.127
95.4721
88.7027
87.9176
82.5981
76.266
65.7994
65.3929
68.3839
68.9044
70.2367
88.2883
126.683
57.5873
116.358
251.802
283.319
212.661
490.396
499.002
211.682
192.073
213.841
209.065
174.587
98.5831
40.1087
25.5201
26.3428
34.678
58.047
84.8345
84.0752
77.9493
74.2343
80.8709
90.8308
96.479
120.168
158.689
174.331
227.356
276.455
217.822
511.314
1059.31
262.46
187.997
214.829
210.331
189.529
99.5702
46.9997
22.5144
10.7321
8.27828
8.3598
12.3686
35.5858
80.0985
91.7763
83.0439
82.3645
96.83
124.928
157.593
218.836
233.529
235.429
183.493
459.866
439.722
171.44
204.124
213.31
188.456
112.14
42.1088
18.4325
10.5605
8.62845
6.43646
6.1969
7.06778
15.5603
47.3559
85.5636
100.085
100.15
116.824
148.399
175.61
218.41
246.423
294.398
309.825
500.161
193.009
244.626
230.238
212.831
131.528
42.0086
21.455
5.41809
3.73907
4.60835
5.05883
4.28311
4.54676
6.37047
19.7807
60.4125
93.0529
111.03
141.983
175.683
216.105
219.165
223.567
186.614
870.042
1000.69
249.669
187.665
223.063
221.72
210.101
111.782
35.8013
6.05196
2.90194
2.03034
2.17823
2.98392
3.37242
3.01923
3.89344
7.36336
17.0298
48.9018
108.784
168.682
220.373
228.731
208.763
160.661
431.585
1004.18
264.9
189.194
219.921
205.981
199.17
165.313
86.9166
36.0187
7.23669
2.68615
2.1139
1.84923
1.78028
2.03094
2.53263
3.74591
8.08177
22.8346
40.7369
117.632
221.183
234.17
244.211
257.655
272.622
1136.41
442.22
212.63
221.741
207.49
194.128
139.728
98.6027
55.9184
23.6613
5.23851
2.4632
2.05326
2.02346
2.0114
1.89023
2.93976
7.81316
13.8605
27.5113
61.5254
182.52
230.163
254.49
260.794
254.922
971.801
829.083
217.684
243.64
214.36
185.479
138.592
87.5497
54.9626
41.2774
15.8322
3.81022
2.55454
4.03634
9.25518
2.99168
2.1355
3.43425
16.1357
39.8438
67.914
111.622
214.894
252.028
262.281
263.384
974.649
270.787
185.775
197.295
188.267
143.057
51.8363
28.4562
27.4851
20.7197
11.596
4.85169
2.95854
11.2444
25.1239
20.1513
3.99233
4.07141
15.6989
60.9967
125.32
214.468
247.289
237.118
239.919
971.305
833.502
178.337
192.418
196.658
177.279
108.691
59.93
15.3129
11.444
13.6603
13.4861
14.8244
15.1755
14.4467
21.9309
28.0334
13.1368
8.31322
32.7184
80.2161
188.554
233.29
257.025
284.645
432.33
295.575
190.904
202.479
204.204
133.739
80.3789
49.8132
31.6202
9.36884
7.42351
11.6251
16.2494
18.3764
20.5956
23.5929
34.7006
31.083
24.6147
60.1241
177.912
222.336
242.285
274.313
270.978
1012.54
1015.12
233.599
199.219
198.851
192.907
115.002
58.2932
37.8849
25.0044
15.7914
10.6337
9.68158
10.8723
13.0422
10.2082
7.52457
21.0475
57.6781
78.7953
116.187
197.031
251.356
231.706
188.009
914.356
368.063
216.476
219.224
199.335
135.378
86.2934
42.0905
23.4865
18.2325
10.45
9.10887
13.7334
14.522
13.2473
12.2201
8.59286
9.8978
40.5809
125.915
202.341
226.933
247.022
281.616
297.192
1293.45
778.021
169.171
185.939
192.603
159.525
52.6382
30.3972
24.3171
11.6781
5.62608
5.45682
4.91869
6.54447
16.7005
22.1003
21.1817
28.552
46.5072
73.2633
137.849
203.921
220.66
255.593
260.042
979.472
235.757
220.873
193.261
184.604
128.952
65.6396
16.6299
7.37239
5.57222
4.45002
3.55032
3.0075
2.88233
6.03039
21.6452
38.5151
39.6003
51.6826
81.7569
164.567
212.687
233.762
166.419
459.587
757.263
168.249
178.4
178.451
147.935
97.7286
71.1533
34.4374
12.7968
5.21268
3.70728
2.55849
2.5439
2.59728
4.37912
10.1516
31.5615
53.2619
74.9253
114.877
180.021
215.928
242.312
255.67
1078.4
268.052
178.578
183.795
179.463
116.804
77.6058
50.1966
31.7759
15.964
6.73108
4.69106
4.13374
3.3924
6.99927
7.35005
6.76455
22.2818
60.1883
96.7254
154.674
202.545
217.516
239.1
438.683
766.582
167.1
180.127
181.466
156.185
97.0904
54.6102
33.9912
21.8389
14.1834
9.58914
7.34272
7.47826
8.51137
9.41446
12.2584
11.3973
23.9042
60.773
165.775
206.233
219.289
197.666
189.974
941.741
266.037
175.633
183.915
184.578
129.773
79.4011
47.9649
30.7818
18.8472
9.5364
6.60661
7.70372
8.24688
12.3833
18.4245
21.5641
33.5388
54.7755
78.559
160.845
215.54
217.347
221.377
290.18
779.444
166.496
174.64
176.783
151.944
99.0723
66.3117
43.8644
28.3431
19.9851
11.5481
7.2403
5.50518
6.54882
7.31275
17.9578
31.5587
38.2995
57.7249
112.431
164.11
225.31
208.646
183.434
910.886
273.702
163.657
172.012
173.626
116.984
72.3627
47.5485
33.9766
27.3158
19.8279
12.6358
6.91418
6.18672
6.45956
6.99951
10.8634
28.196
44.27
73.2077
130.309
196.205
221.419
265.087
292.355
231.361
201.437
175.702
152.634
90.6832
54.0387
38.3465
30.6017
28.0029
24.905
17.4942
9.82487
6.14868
5.74879
7.47021
16.0919
33.4713
55.2094
91.2675
172.787
211.376
236.882
164.886
771.858
807.539
162.846
169.109
162.721
112.838
66.9904
43.2039
31.393
27.9401
26.3003
26.9866
25.926
19.3442
11.5288
9.89067
11.3015
18.3938
40.558
94.6574
127.625
182.784
216.905
253.33
259.872
1085.55
772.019
192.317
175.627
161.336
104.086
50.8263
34.072
27.488
24.1591
23.5477
24.1385
25.7904
26.0144
22.9136
19.854
21.8073
27.0131
39.5333
72.4268
123.411
185.63
208.245
261.22
718.578
393.081
188.442
176.655
161.809
79.1889
36.8014
23.473
22.7858
18.6511
14.7301
16.05
21.9213
24.4319
25.981
26.5304
28.4843
36.5673
51.8483
92.9388
147.107
201.708
218.88
202.884
857.41
233.342
211.3
188.223
157.223
85.8912
45.873
14.2773
14.3592
18.1085
11.7379
6.85643
9.77974
20.8533
25.3144
27.8535
30.9105
38.4851
62.5905
106.662
178.662
193.719
234.968
269.823
781.432
202.041
198.007
174.297
120.922
74.4718
47.0669
31.5655
19.1532
18.7385
17.8328
10.2002
5.95098
9.28137
20.7088
28.3996
31.8627
41.3326
67.4072
114.788
191.778
211.771
163.151
783.687
411.163
184.75
179.998
172.99
110.624
66.3665
42.7615
31.1951
24.0009
22.8347
22.3306
21.0035
15.2066
12.3763
16.3223
24.8589
33.2138
47.4329
76.3507
129.905
196.085
215.172
208.357
1047.9
226.746
214.842
184.539
171.759
95.1934
54.8969
36.6483
24.958
13.6657
10.4397
15.3262
20.9574
22.701
21.4237
20.8055
25.4648
33.7665
51.3607
94.568
150.652
190.657
207.234
254.831
810.855
166.056
170.789
168.415
141.475
90.2823
50.25
33.5215
25.0041
14.5143
6.94516
6.41185
12.2038
20.7576
24.5144
26.534
28.8046
36.9695
56.5301
98.2351
170.981
186.485
209.816
418.558
398.007
173.917
171.429
169.29
111.076
73.8616
51.3724
31.5013
21.0036
13.6503
8.40187
5.54278
5.37821
9.93117
19.4296
28.2304
31.8645
41.2986
67.7034
109.146
188.842
202.3
158.77
757.635
278.54
159.764
160.832
156.062
93.1337
52.1253
35.684
25.2305
15.3658
7.66321
5.62357
5.06555
5.53188
5.27205
6.58358
17.8521
35.1077
44.5833
74.299
127.543
184.332
214.254
214.294
1055.47
234.9
211.56
179.888
143.236
89.9222
52.776
33.3003
24.4285
15.8784
7.5915
4.43628
4.00431
4.40577
5.67419
6.38547
10.4644
26.5459
51.2521
87.4317
150.488
194.011
186.198
227.191
980.005
166.809
161.25
168.926
117.281
71.3196
48.3191
32.8381
26.5429
22.0167
13.3582
6.5879
4.33995
3.90065
4.53381
8.11219
15.7413
27.0099
48.9945
101.498
174.262
184.401
224.096
403.135
788.224
159.902
169.917
167.473
113.677
66.6966
41.7501
33.0723
29.1445
25.8329
22.7526
14.9049
7.59034
5.13177
3.26287
4.94442
14.4998
32.9986
56.5548
110.647
182.158
206.803
166.906
803.539
727.979
183.82
175.159
167.793
109.652
63.3185
39.772
29.5883
27.3766
26.3136
24.6911
21.9387
16.3202
8.71744
5.70313
4.66424
9.38487
28.9736
66.9223
128.866
190.436
180.249
225.222
281.892
157.96
161.725
156.688
102.78
60.8813
37.8263
27.754
23.4514
23.5612
23.4498
20.0902
14.2546
10.5142
7.39029
6.74901
11.0992
29.5869
68.8483
139.341
193.957
207.497
284.991
272.159
158.949
160.582
153.603
91.3183
53.1451
36.0896
26.8008
23.9896
21.778
22.2095
22.9498
17.3331
8.33198
4.68041
6.0143
13.5258
31.6986
72.9742
160.238
194.842
219.24
718.113
238.559
212.729
178.857
129.47
81.0307
48.2752
32.7012
25.1367
20.519
18.9598
19.6769
23.0618
22.4058
16.6411
9.17176
8.51112
15.9977
35.2207
73.7113
162.825
202.078
219.313
752.177
233.789
176.494
170.045
120.157
69.9664
41.8644
30.1898
23.6842
18.8549
12.2036
7.83139
10.8646
21.0375
24.4934
21.7202
18.4803
23.2393
42.1054
83.4444
172.715
181.31
212.476
893.836
223.122
174.133
167.932
121.007
69.5516
41.9329
28.548
24.5495
21.599
16.7408
9.5919
5.67193
8.59453
19.1255
26.5967
29.1863
31.3472
47.4669
89.7138
172.074
190.944
178.375
1000.47
954.557
176.053
168.848
169.512
123.153
72.1503
43.6614
29.0631
23.8189
22.8295
21.2114
18.3274
14.2652
11.6327
13.9447
20.1103
25.7153
36.3448
51.2317
93.3721
159.73
190.418
212.896
761.454
202.006
200
174.208
121.338
69.9687
45.4575
30.1845
23.1606
21.3254
21.1887
20.8324
20.5889
20.5156
18.7941
19.8033
25.0855
35.4727
59.5137
106.802
175.945
199.942
218.143
748.96
186.977
173.218
163.688
107.359
63.6769
40.7994
31.0729
22.5403
19.2239
18.1581
18.2571
18.3758
20.1061
22.7899
24.388
26.2759
35.7344
61.0928
115.943
190.694
173.921
225.982
397.68
173.026
168.052
159.924
96.1966
55.834
31.8467
21.6928
20.8831
17.5049
13.8475
10.9038
10.562
12.9871
19.9447
24.0399
28.2863
39.1929
62.4709
116.642
188.766
207.821
286.395
275.601
154.017
161.928
155.853
99.3738
56.9708
30.1992
13.1574
7.97729
9.85703
9.89215
7.16741
3.88478
3.80531
8.85128
21.8756
30.1689
40.4081
69.0686
119.974
190.705
207.977
684.073
280.931
157.008
161.619
133.721
86.1602
59.7733
34.946
18.3861
7.74177
4.28712
3.10078
3.23134
3.03937
2.8592
4.37372
11.9276
29.2128
45.8369
75.0182
126.526
183.099
207.894
717.639
242.086
165.413
164.798
138.425
74.5187
46.673
31.7101
23.4256
15.406
7.35498
4.14453
1.80784
1.74596
2.48801
6.3402
12.9932
25.0706
44.3216
84.8045
160.19
171.638
199.02
746.482
229.414
178.365
172.78
127.631
74.7757
45.915
30.9887
25.4335
21.6571
15.3121
7.43237
3.017
1.59953
1.90725
4.63922
14.0816
28.8398
46.7545
89.9929
172.76
177.843
160.251
814.259
241.462
183.013
169.658
121.84
66.9328
42.1368
28.9694
25.2383
22.514
20.0512
14.3639
6.87824
2.85987
1.9827
3.89027
13.0456
28.1446
48.6296
93.4411
164.564
184.687
209.081
1018.07
232.92
185.167
167.052
124.293
65.9319
41.8416
29.3991
24.2086
19.6468
14.2712
11.6667
9.34952
6.00664
4.31929
5.40685
12.5445
28.2044
48.1251
97.6518
173.303
188.261
220.938
952.683
174.671
175.912
163.72
96.3406
62.032
37.4453
29.8149
26.7759
23.3071
16.061
7.79209
3.98543
5.52689
9.20837
12.4657
17.9495
30.9795
54.1837
98.7342
174.348
193.997
226.124
759.42
229.329
194.712
135.093
31.7071
25.0964
29.8753
27.2903
25.3812
24.7097
21.9966
13.7905
5.45207
2.89022
7.63862
19.2916
28.1058
36.4468
61.2209
110.215
173.595
194.441
232.762
760.994
195.739
178.804
151.188
33.7193
5.77305
9.88113
21
24.9374
23.3275
19.4119
16.4514
10.4064
5.91844
4.95573
14.509
31.9098
47.345
71.7341
124.999
184.415
193.418
218.398
410.874
180.921
175.442
152.436
70.5721
18.7104
10.1735
14.876
21.2163
22.5158
17.9116
10.7506
6.6449
6.16492
8.46687
13.6887
27.0643
48.0244
85.5771
144.35
188.585
207.004
255.791
269.038
162.421
168.067
155
91.2841
46.7363
20.4382
13.5133
13.2379
16.9541
17.2548