/*--------------------------------*- C++ -*----------------------------------*\
| =========                 |                                                 |
| \\      /  F ield         | OpenFOAM: The Open Source CFD Toolbox           |
|  \\    /   O peration     | Version:  2312                                  |
|   \\  /    A nd           | Website:  www.openfoam.com                      |
|    \\/     M anipulation  |                                                 |
\*---------------------------------------------------------------------------*/
FoamFile
{
    version     2.0;
    format      ascii;
    arch        "LSB;label=64;scalar=64";
    class       volScalarField;
    location    "40";
    object      p;
}
// * * * * * * * * * * * * * * * * * * * * * * * * * * * * * * * * * * * * * //

dimensions      [0 2 -2 0 0 0 0];

internalField   nonuniform List<scalar> 
404911
(
-2.35452
-2.34674
-2.34339
-2.36151
-2.36666
-2.353
-2.34688
-2.35113
-2.35705
-2.35955
-2.39432
-2.39502
-2.39169
-2.37599
-2.362
-2.35174
-2.40837
-2.40374
-2.39895
-2.39174
-2.42739
-2.41851
-2.41565
-2.43828
-2.43291
-2.43689
-2.45353
-2.44344
-2.43356
-2.48119
-2.46999
-2.46098
-2.45114
-2.43711
-2.49586
-2.48136
-2.47698
-2.5137
-2.51132
-2.50366
-2.50432
-2.5318
-2.52609
-2.51835
-2.50991
-2.50245
-2.54138
-2.53371
-2.52683
-2.51825
-2.54963
-2.54749
-2.54319
-2.52984
-2.55321
-2.54809
-2.5828
-2.35364
-2.37098
-2.35827
-2.39313
-2.38808
-2.41099
-2.4045
-2.39878
-2.42586
-2.41783
-2.41056
-2.43927
-2.43261
-2.45322
-2.44502
-2.4372
-2.46995
-2.46137
-2.45195
-2.44389
-2.49013
-2.48039
-2.51007
-2.50228
-2.52653
-2.51824
-2.50878
-2.54269
-2.53493
-2.55477
-2.5499
-2.54496
-2.56084
-2.55604
-2.59397
-2.60132
-2.59451
-2.62148
-2.61477
-2.607
-2.63423
-2.62873
-2.62197
-2.64778
-2.63846
-2.63457
-2.64989
-1.14032
-1.12763
-1.11381
-1.2035
-1.18592
-1.175
-1.1567
-1.14629
-1.13442
-1.12639
-1.10742
-1.23738
-1.22768
-1.20034
-1.1816
-1.16497
-1.15319
-1.14236
-1.12983
-1.07889
-1.27716
-1.26544
-1.25381
-1.24263
-1.23232
-1.22529
-1.20784
-1.19019
-1.17407
-1.15968
-1.14729
-1.13555
-1.11805
-1.09968
-1.08454
-1.06511
-1.30786
-1.2953
-1.28382
-1.27039
-1.25841
-1.24707
-1.23548
-1.22548
-1.21851
-1.20037
-1.18322
-1.1701
-1.15582
-1.14499
-1.08929
-1.34281
-1.32807
-1.31294
-1.29924
-1.28803
-1.27583
-1.26386
-1.25257
-1.24075
-1.22896
-1.21825
-1.20457
-1.19084
-1.17824
-1.16767
-1.36607
-1.3511
-1.33747
-1.32352
-1.30745
-1.29486
-1.27969
-1.26862
-1.2577
-1.24562
-1.23524
-1.22425
-1.20995
-1.19791
-1.18454
-1.17094
-1.39976
-1.38607
-1.37503
-1.35818
-1.34527
-1.33105
-1.31535
-1.3046
-1.28944
-1.27349
-1.26179
-1.25164
-1.24089
-1.23005
-1.21662
-1.20461
-1.18999
-1.44815
-1.43395
-1.42274
-1.41023
-1.39694
-1.38225
-1.36663
-1.35024
-1.33677
-1.32169
-1.31155
-1.29458
-1.27951
-1.26769
-1.25766
-1.24663
-1.236
-1.22094
-1.47012
-1.45531
-1.4436
-1.43154
-1.41921
-1.40593
-1.39138
-1.37666
-1.35878
-1.34476
-1.33209
-1.31882
-1.2993
-1.28571
-1.27532
-1.26471
-1.25309
-1.24264
-1.50665
-1.49306
-1.48135
-1.46442
-1.45169
-1.43903
-1.42679
-1.41431
-1.39904
-1.38376
-1.36663
-1.35308
-1.34021
-1.32711
-1.3105
-1.29301
-1.28195
-1.27132
-1.52932
-1.51333
-1.49973
-1.48807
-1.47314
-1.45868
-1.44693
-1.4345
-1.42065
-1.4067
-1.39125
-1.37569
-1.36254
-1.34865
-1.33426
-1.31976
-1.30233
-1.56046
-1.54874
-1.53688
-1.52495
-1.50963
-1.49645
-1.48317
-1.46846
-1.45668
-1.44283
-1.42837
-1.41455
-1.39844
-1.38189
-1.3702
-1.35863
-1.3477
-1.58774
-1.57614
-1.56669
-1.55697
-1.54585
-1.53182
-1.51854
-1.5049
-1.49124
-1.47752
-1.46687
-1.45255
-1.4373
-1.42298
-1.40632
-1.39071
-1.37829
-1.36556
-1.61473
-1.60675
-1.59563
-1.58323
-1.57243
-1.56554
-1.55336
-1.53955
-1.5271
-1.51322
-1.4995
-1.4849
-1.47343
-1.45989
-1.44672
-1.43042
-1.41484
-1.39849
-1.64144
-1.63055
-1.62134
-1.61289
-1.59864
-1.58838
-1.57821
-1.57006
-1.56038
-1.54696
-1.53434
-1.52125
-1.51191
-1.49538
-1.48138
-1.46748
-1.45559
-1.43757
-1.65959
-1.64847
-1.63757
-1.62782
-1.61879
-1.60527
-1.59456
-1.58509
-1.57461
-1.56689
-1.55373
-1.53882
-1.52672
-1.51827
-1.50359
-1.48914
-1.4712
-1.46163
-1.68555
-1.67483
-1.66575
-1.6553
-1.64425
-1.63352
-1.62375
-1.61458
-1.60223
-1.59225
-1.58118
-1.57191
-1.5602
-1.54762
-1.5317
-1.52354
-1.51384
-1.49868
-1.70309
-1.6907
-1.6823
-1.67296
-1.66276
-1.64962
-1.64064
-1.62945
-1.61856
-1.60961
-1.60041
-1.58928
-1.57782
-1.56676
-1.55544
-1.53897
-1.52862
-1.51726
-1.72942
-1.72184
-1.71256
-1.70197
-1.69101
-1.6825
-1.67158
-1.65857
-1.64611
-1.63464
-1.62398
-1.61364
-1.60562
-1.59547
-1.58556
-1.57399
-1.56114
-1.54886
-1.74405
-1.73429
-1.72818
-1.71656
-1.70807
-1.69889
-1.68942
-1.67781
-1.66557
-1.65215
-1.64176
-1.63109
-1.61934
-1.61105
-1.60062
-1.59132
-1.58127
-1.76803
-1.75921
-1.75063
-1.74038
-1.73151
-1.72296
-1.71465
-1.70679
-1.69693
-1.68477
-1.67325
-1.65949
-1.64889
-1.63788
-1.62695
-1.61737
-1.60692
-1.59755
-1.78253
-1.77411
-1.76505
-1.75675
-1.74762
-1.73887
-1.72954
-1.72106
-1.71416
-1.70653
-1.69343
-1.68161
-1.66769
-1.65641
-1.64414
-1.63447
-1.62478
-1.61439
-1.79742
-1.78805
-1.78012
-1.77141
-1.7627
-1.75378
-1.74535
-1.73549
-1.72729
-1.7202
-1.71277
-1.70274
-1.69025
-1.67708
-1.6642
-1.65011
-1.64149
-1.63175
-1.82178
-1.81243
-1.80359
-1.7947
-1.78657
-1.77812
-1.76896
-1.75979
-1.75063
-1.74237
-1.7333
-1.72442
-1.71766
-1.70922
-1.69742
-1.68457
-1.67305
-1.663
-1.84447
-1.83584
-1.82691
-1.81781
-1.80882
-1.80034
-1.79226
-1.78367
-1.77512
-1.7653
-1.75719
-1.74939
-1.74056
-1.73012
-1.72279
-1.71383
-1.70311
-1.69428
-1.85959
-1.85068
-1.84214
-1.83285
-1.82395
-1.81465
-1.8065
-1.7985
-1.78902
-1.77938
-1.77105
-1.7636
-1.75545
-1.74688
-1.73717
-1.72956
-1.71936
-1.71018
-1.88018
-1.87303
-1.86477
-1.85691
-1.84812
-1.83887
-1.82948
-1.82042
-1.81245
-1.80516
-1.7952
-1.78644
-1.77769
-1.76927
-1.76058
-1.75296
-1.74567
-1.73462
-1.89262
-1.88639
-1.8793
-1.87113
-1.86302
-1.85432
-1.84516
-1.83583
-1.82648
-1.81806
-1.81064
-1.8023
-1.79347
-1.78457
-1.77619
-1.76632
-1.75788
-1.75076
-1.90551
-1.89946
-1.89252
-1.88497
-1.87751
-1.86923
-1.86003
-1.8512
-1.84216
-1.83288
-1.82409
-1.81582
-1.8075
-1.79939
-1.79099
-1.78294
-1.77367
-1.764
-1.91785
-1.91117
-1.90489
-1.89883
-1.8906
-1.88347
-1.87549
-1.8671
-1.8572
-1.84887
-1.83989
-1.83092
-1.82248
-1.8142
-1.80574
-1.79756
-1.78882
-1.77928
-1.94196
-1.93308
-1.92375
-1.91586
-1.90986
-1.90369
-1.89627
-1.88967
-1.8819
-1.8738
-1.86334
-1.8551
-1.8471
-1.83826
-1.82986
-1.82154
-1.81273
-1.80391
-1.95442
-1.94767
-1.94003
-1.9313
-1.92295
-1.91659
-1.90979
-1.90221
-1.89517
-1.88776
-1.88052
-1.87077
-1.86143
-1.85337
-1.84507
-1.83701
-1.8285
-1.81973
-1.96941
-1.96152
-1.95402
-1.94647
-1.93874
-1.9301
-1.92178
-1.91495
-1.90769
-1.90038
-1.89355
-1.88596
-1.87747
-1.86885
-1.85992
-1.85136
-1.84246
-1.83316
-1.98239
-1.97518
-1.96733
-1.96046
-1.95318
-1.94516
-1.93766
-1.92923
-1.92118
-1.91385
-1.90621
-1.89876
-1.8911
-1.88264
-1.87512
-1.86687
-1.85852
-2.0012
-1.99572
-1.98808
-1.98039
-1.97318
-1.96569
-1.95921
-1.95175
-1.94362
-1.9354
-1.92697
-1.91959
-1.91218
-1.9048
-1.89718
-1.88911
-1.8809
-1.87201
-2.0156
-2.008
-2.00089
-1.99388
-1.98676
-1.9793
-1.97187
-1.96513
-1.95803
-1.95037
-1.94126
-1.93395
-1.92573
-1.9186
-1.91108
-1.90315
-1.89601
-1.88767
-2.02686
-2.02071
-2.01367
-2.00691
-1.99983
-1.99248
-1.98559
-1.9779
-1.97085
-1.96475
-1.95699
-1.94903
-1.94163
-1.9321
-1.92456
-1.91737
-1.90812
-1.90047
-2.04758
-2.04139
-2.03288
-2.02588
-2.01877
-2.01192
-2.00553
-1.99854
-1.99207
-1.98438
-1.97716
-1.97043
-1.9632
-1.95506
-1.94796
-1.93923
-1.93139
-1.92348
-2.06227
-2.05493
-2.04714
-2.03924
-2.03149
-2.02375
-2.01665
-2.0106
-2.00403
-1.99706
-1.98975
-1.9827
-1.97614
-1.96943
-1.96147
-1.95424
-1.94614
-1.93731
-2.07427
-2.06826
-2.06098
-2.05314
-2.04536
-2.0372
-2.02949
-2.02205
-2.01561
-2.0103
-2.00493
-1.99598
-1.98912
-1.98273
-1.97507
-1.96729
-1.96014
-1.95199
-2.08918
-2.08111
-2.0741
-2.06691
-2.05985
-2.05209
-2.04421
-2.03654
-2.02864
-2.02086
-2.01475
-2.00954
-2.00165
-1.99486
-1.98826
-1.98168
-1.97325
-1.96646
-2.10184
-2.09458
-2.08734
-2.08002
-2.07289
-2.06598
-2.05857
-2.05012
-2.04265
-2.0358
-2.02715
-2.01999
-2.01471
-2.00707
-2.00039
-1.99394
-1.98753
-2.12165
-2.11423
-2.10785
-2.10127
-2.09423
-2.0864
-2.07857
-2.07122
-2.064
-2.05595
-2.04848
-2.04269
-2.03511
-2.02748
-2.02044
-2.01443
-2.00679
-1.99986
-2.13504
-2.1286
-2.12116
-2.11437
-2.10725
-2.10034
-2.0934
-2.08499
-2.07683
-2.06853
-2.06127
-2.05446
-2.04835
-2.04184
-2.03329
-2.02609
-2.02048
-2.01324
-2.14737
-2.14103
-2.13443
-2.1276
-2.12109
-2.11345
-2.1063
-2.10006
-2.09278
-2.08549
-2.07455
-2.06666
-2.05991
-2.0535
-2.04708
-2.03941
-2.03253
-2.02588
-2.16051
-2.15377
-2.14676
-2.14039
-2.13397
-2.12746
-2.11966
-2.11257
-2.10582
-2.09877
-2.09202
-2.08296
-2.07362
-2.06591
-2.05921
-2.05245
-2.04531
-2.0386
-2.17269
-2.16646
-2.15961
-2.1526
-2.14638
-2.13997
-2.13288
-2.12542
-2.11811
-2.11082
-2.1048
-2.09836
-2.09062
-2.08182
-2.07339
-2.06639
-2.05916
-2.05056
-2.18516
-2.17906
-2.17209
-2.16498
-2.15854
-2.15266
-2.14604
-2.13903
-2.13137
-2.12393
-2.11609
-2.10945
-2.10338
-2.0967
-2.08847
-2.08044
-2.07296
-2.06581
-2.19816
-2.1922
-2.18522
-2.17784
-2.17082
-2.16494
-2.15907
-2.15212
-2.14461
-2.13709
-2.12961
-2.12202
-2.1148
-2.1085
-2.1021
-2.09448
-2.08673
-2.08006
-2.21027
-2.20403
-2.19744
-2.19059
-2.1848
-2.1759
-2.17007
-2.16495
-2.15835
-2.15104
-2.14343
-2.13504
-2.12841
-2.12124
-2.11438
-2.10781
-2.10091
-2.09228
-2.22926
-2.22152
-2.21628
-2.20951
-2.20334
-2.19688
-2.19059
-2.18255
-2.17589
-2.17059
-2.16505
-2.15772
-2.15091
-2.14158
-2.13446
-2.12751
-2.12047
-2.11354
-2.10756
-2.24367
-2.23542
-2.22777
-2.22148
-2.21544
-2.20909
-2.20285
-2.19566
-2.18906
-2.18215
-2.17551
-2.16995
-2.1635
-2.15662
-2.14881
-2.14067
-2.1341
-2.12685
-2.24854
-2.24173
-2.23458
-2.22803
-2.22099
-2.21439
-2.20875
-2.20261
-2.19477
-2.18772
-2.18139
-2.17431
-2.16885
-2.16248
-2.15525
-2.14801
-2.14064
-2.26925
-2.262
-2.25425
-2.24701
-2.23998
-2.23304
-2.22608
-2.21949
-2.21415
-2.20778
-2.20026
-2.19375
-2.18685
-2.18013
-2.17369
-2.16731
-2.16048
-2.15412
-2.28069
-2.27493
-2.26766
-2.26039
-2.2533
-2.2461
-2.23866
-2.2309
-2.22418
-2.21911
-2.21313
-2.20577
-2.19936
-2.19237
-2.1855
-2.17952
-2.17272
-2.16562
-2.29759
-2.28794
-2.28085
-2.27351
-2.26642
-2.25938
-2.25264
-2.24577
-2.23756
-2.22993
-2.2238
-2.21857
-2.21157
-2.20523
-2.19844
-2.19181
-2.18547
-2.17842
-2.30123
-2.29491
-2.28799
-2.28051
-2.27277
-2.26556
-2.25924
-2.25333
-2.24527
-2.23724
-2.22884
-2.22349
-2.21738
-2.21095
-2.20412
-2.19742
-2.1904
-2.3174
-2.30962
-2.30206
-2.29452
-2.28732
-2.27941
-2.27162
-2.26509
-2.25947
-2.25187
-2.24371
-2.23527
-2.22838
-2.22234
-2.2163
-2.20929
-2.20253
-2.33735
-2.32837
-2.32235
-2.31591
-2.30813
-2.30085
-2.29394
-2.28645
-2.27758
-2.2704
-2.26425
-2.25769
-2.25029
-2.24185
-2.23453
-2.2281
-2.2217
-2.21573
-2.34657
-2.34096
-2.33428
-2.32845
-2.32123
-2.31376
-2.30668
-2.3001
-2.29269
-2.28507
-2.27795
-2.27072
-2.26352
-2.25659
-2.24891
-2.24156
-2.23365
-2.3619
-2.35378
-2.34601
-2.33937
-2.33424
-2.32743
-2.31975
-2.31196
-2.30642
-2.29992
-2.29221
-2.28487
-2.27689
-2.26957
-2.26319
-2.25505
-2.2491
-2.38173
-2.37525
-2.36768
-2.36018
-2.35282
-2.34631
-2.33998
-2.33377
-2.32526
-2.31836
-2.31142
-2.30538
-2.29894
-2.2917
-2.28444
-2.27644
-2.26927
-2.26183
-2.39464
-2.38735
-2.38177
-2.37413
-2.36645
-2.35836
-2.35157
-2.34516
-2.33879
-2.33001
-2.32467
-2.31715
-2.30945
-2.30385
-2.29721
-2.29012
-2.28255
-2.27481
-2.40783
-2.40021
-2.39248
-2.38686
-2.38042
-2.37233
-2.3627
-2.35488
-2.3493
-2.34371
-2.33578
-2.32861
-2.32157
-2.31519
-2.30912
-2.30255
-2.2954
-2.28816
-2.42089
-2.41495
-2.40663
-2.39974
-2.39291
-2.38647
-2.37854
-2.36871
-2.35898
-2.35249
-2.34789
-2.34034
-2.3329
-2.32595
-2.31962
-2.31383
-2.30683
-2.30009
-2.43914
-2.43267
-2.42584
-2.41985
-2.41234
-2.40506
-2.39823
-2.3912
-2.38523
-2.37602
-2.367
-2.36004
-2.35287
-2.34576
-2.33907
-2.33153
-2.32596
-2.32094
-2.3121
-2.45658
-2.44739
-2.44007
-2.43296
-2.42561
-2.41829
-2.41084
-2.4039
-2.39741
-2.39066
-2.38238
-2.37443
-2.36732
-2.36067
-2.35307
-2.34539
-2.33732
-2.3309
-2.32516
-2.4631
-2.45464
-2.44792
-2.44052
-2.4328
-2.42501
-2.41674
-2.40994
-2.40334
-2.39584
-2.38804
-2.3803
-2.37312
-2.36647
-2.35911
-2.35171
-2.3435
-2.3366
-2.47844
-2.46956
-2.4613
-2.45432
-2.4472
-2.43973
-2.43242
-2.42481
-2.41728
-2.40935
-2.4031
-2.39375
-2.3866
-2.37969
-2.37291
-2.3662
-2.35924
-2.49625
-2.48658
-2.47755
-2.46919
-2.46115
-2.45398
-2.44662
-2.43907
-2.4319
-2.42469
-2.41587
-2.40902
-2.4009
-2.39347
-2.38685
-2.3795
-2.37186
-2.51567
-2.50362
-2.49539
-2.48688
-2.47833
-2.47075
-2.4626
-2.45299
-2.44529
-2.43879
-2.4316
-2.42289
-2.41571
-2.40783
-2.40046
-2.39396
-2.38723
-2.54493
-2.53834
-2.52742
-2.5161
-2.50659
-2.49702
-2.48802
-2.47927
-2.46984
-2.46128
-2.45283
-2.44621
-2.43864
-2.42999
-2.42227
-2.41507
-2.40754
-2.39921
-2.55835
-2.55157
-2.54581
-2.53607
-2.52631
-2.51694
-2.5075
-2.49955
-2.48872
-2.47841
-2.46984
-2.4611
-2.45288
-2.44587
-2.43826
-2.43017
-2.42239
-2.57198
-2.56517
-2.55801
-2.551
-2.54363
-2.53493
-2.52647
-2.51608
-2.50718
-2.49669
-2.48603
-2.47707
-2.46867
-2.46095
-2.45235
-2.44475
-2.43694
-2.58782
-2.57943
-2.57213
-2.56448
-2.55766
-2.55082
-2.54259
-2.53487
-2.52491
-2.51451
-2.50408
-2.49356
-2.48415
-2.47575
-2.46774
-2.45828
-2.45222
-2.60086
-2.59355
-2.58602
-2.57933
-2.57254
-2.5646
-2.55699
-2.55033
-2.54277
-2.53202
-2.52192
-2.51174
-2.50146
-2.49231
-2.48357
-2.47515
-2.46632
-2.61652
-2.60713
-2.59954
-2.59287
-2.5863
-2.58013
-2.57215
-2.56419
-2.55704
-2.54877
-2.53948
-2.52976
-2.51978
-2.50968
-2.50034
-2.49175
-2.48279
-2.63088
-2.62437
-2.61596
-2.60703
-2.5999
-2.59226
-2.58678
-2.5796
-2.57143
-2.5632
-2.55486
-2.54583
-2.53629
-2.52725
-2.51709
-2.508
-2.49946
-2.64157
-2.63147
-2.6241
-2.61615
-2.60787
-2.59977
-2.59285
-2.58558
-2.57809
-2.56963
-2.56025
-2.55167
-2.54273
-2.5346
-2.52328
-2.51496
-2.66091
-2.64887
-2.63898
-2.62898
-2.62202
-2.61448
-2.6066
-2.59959
-2.59157
-2.58445
-2.57602
-2.56742
-2.55772
-2.54951
-2.54088
-2.69192
-2.68512
-2.66669
-2.65657
-2.64506
-2.63638
-2.62916
-2.62119
-2.61356
-2.60531
-2.59723
-2.58962
-2.58222
-2.57409
-2.56371
-2.55631
-2.71442
-2.70213
-2.68936
-2.67607
-2.66491
-2.65276
-2.64332
-2.63626
-2.62779
-2.61981
-2.61147
-2.60322
-2.59531
-2.58761
-2.58
-2.57131
-2.73541
-2.72629
-2.71547
-2.70022
-2.68848
-2.67638
-2.66546
-2.6529
-2.64279
-2.63605
-2.62864
-2.6216
-2.61172
-2.60176
-2.59379
-2.58741
-2.77312
-2.75733
-2.74624
-2.73707
-2.72553
-2.71233
-2.6999
-2.68899
-2.67822
-2.66856
-2.65378
-2.64509
-2.63538
-2.62949
-2.62026
-2.6106
-2.79874
-2.78642
-2.77199
-2.75814
-2.74873
-2.73609
-2.72304
-2.71121
-2.70096
-2.69042
-2.68166
-2.67102
-2.65816
-2.64536
-2.63631
-2.63003
-2.82087
-2.80679
-2.794
-2.78418
-2.77154
-2.75985
-2.74704
-2.73395
-2.72237
-2.7118
-2.70075
-2.69252
-2.68101
-2.67208
-2.65866
-2.64644
-2.8449
-2.8337
-2.81749
-2.80172
-2.79209
-2.7824
-2.77016
-2.75485
-2.74241
-2.73192
-2.72308
-2.71369
-2.70546
-2.69694
-2.68567
-2.67174
-2.865
-2.85726
-2.84331
-2.83004
-2.8154
-2.80308
-2.79378
-2.78115
-2.76705
-2.75065
-2.74207
-2.73206
-2.7242
-2.71464
-2.70476
-2.69662
-2.88808
-2.87623
-2.86333
-2.85043
-2.83859
-2.82444
-2.81346
-2.80377
-2.79269
-2.77835
-2.76399
-2.75063
-2.74063
-2.7326
-2.72444
-2.91124
-2.9022
-2.8868
-2.87243
-2.85971
-2.84713
-2.83538
-2.82415
-2.81316
-2.80196
-2.78923
-2.77614
-2.75973
-2.75132
-2.74041
-2.73264
-2.93112
-2.92057
-2.91186
-2.89912
-2.88312
-2.86855
-2.85545
-2.84499
-2.8339
-2.82297
-2.8106
-2.79916
-2.78794
-2.77191
-2.76157
-2.75151
-2.95228
-2.94071
-2.92888
-2.91953
-2.90777
-2.89259
-2.8781
-2.86491
-2.85529
-2.84331
-2.83234
-2.81992
-2.81119
-2.79895
-2.78488
-2.96463
-2.95262
-2.94223
-2.93019
-2.91561
-2.90209
-2.88815
-2.87585
-2.86541
-2.85364
-2.84286
-2.82965
-2.81932
-2.80689
-2.98836
-2.97948
-2.96483
-2.95211
-2.94037
-2.92792
-2.91379
-2.89846
-2.8873
-2.87443
-2.86521
-2.85274
-2.84057
-3.02665
-3.01418
-3.00221
-2.99179
-2.97756
-2.96383
-2.95039
-2.93907
-2.92413
-2.91048
-2.89797
-2.88605
-2.8745
-2.86082
-3.05408
-3.03868
-3.02429
-3.01194
-3.00048
-2.98959
-2.97469
-2.96323
-2.94956
-2.93601
-2.9225
-2.90814
-2.89742
-2.88452
-3.08044
-3.06612
-3.05256
-3.03695
-3.02399
-3.01227
-3.00121
-2.98643
-2.97471
-2.9593
-2.94698
-2.92933
-2.91898
-2.90566
-3.10807
-3.09433
-3.08229
-3.06374
-3.04753
-3.03491
-3.02389
-3.01328
-2.99973
-2.98677
-2.97235
-2.95783
-2.94395
-2.93039
-3.13051
-3.11573
-3.10397
-3.091
-3.0726
-3.05664
-3.04571
-3.03371
-3.02275
-3.00996
-2.99545
-2.98492
-2.96874
-2.9565
-3.15331
-3.14269
-3.12491
-3.11547
-3.10078
-3.08577
-3.07067
-3.05747
-3.04517
-3.03264
-3.02023
-3.00447
-2.99401
-3.12441
-3.11687
-3.0954
-3.08022
-3.06632
-3.05921
-3.04407
-3.03165
-3.01476
-3.13053
-3.12439
-3.107
-3.09039
-3.07215
-3.06647
-3.05208
-3.03907
-3.16003
-3.14217
-3.13029
-3.11987
-3.10277
-3.08475
-3.07592
-3.19014
-3.17066
-3.15762
-3.13972
-3.12736
-3.11314
-3.09778
-3.18182
-3.16831
-3.15309
-3.13832
-3.12535
-3.22811
-3.20955
-3.19339
-3.18032
-3.16472
-3.14981
-3.3087
-3.29456
-3.2562
-3.24488
-3.19235
-3.31543
-3.30119
-3.29106
-3.28182
-3.26995
-3.23187
-3.35406
-3.2886
-3.28047
-3.27038
-3.25887
-3.36989
-3.34089
-3.30194
-0.367534
-0.34751
-0.327226
-0.481813
-0.46699
-0.44318
-0.420677
-0.400622
-0.37855
-0.357432
-0.336753
-0.258268
-0.569194
-0.551214
-0.531608
-0.512017
-0.493755
-0.474511
-0.453389
-0.427829
-0.404416
-0.381144
-0.361567
-0.340612
-0.317764
-0.294248
-0.27213
-0.644868
-0.625096
-0.59888
-0.57798
-0.556997
-0.537839
-0.519887
-0.500104
-0.482391
-0.460439
-0.437423
-0.412396
-0.387384
-0.365851
-0.345217
-0.320736
-0.296492
-0.277574
-0.247685
-0.215644
-0.184702
-0.133494
-0.719668
-0.698196
-0.674808
-0.652278
-0.630252
-0.606001
-0.583895
-0.564444
-0.544693
-0.525027
-0.507757
-0.488194
-0.467878
-0.448597
-0.430839
-0.391956
-0.371609
-0.350498
-0.326288
-0.301624
-0.279178
-0.256006
-0.220078
-0.778924
-0.76251
-0.743279
-0.727619
-0.70494
-0.682506
-0.66071
-0.636857
-0.612424
-0.590398
-0.570723
-0.552076
-0.532093
-0.513253
-0.494864
-0.472619
-0.460328
-0.43512
-0.406998
-0.375317
-0.356067
-0.333545
-0.311638
-0.286164
-0.25553
-0.818667
-0.805562
-0.787881
-0.7715
-0.753151
-0.740067
-0.720027
-0.695577
-0.670712
-0.641593
-0.620098
-0.600605
-0.580981
-0.557527
-0.538217
-0.517557
-0.499813
-0.479578
-0.467877
-0.44898
-0.416552
-0.382863
-0.362648
-0.341698
-0.316787
-0.859822
-0.842691
-0.825103
-0.81132
-0.798132
-0.781637
-0.766335
-0.750467
-0.722721
-0.704249
-0.681076
-0.654446
-0.629769
-0.61314
-0.593728
-0.568334
-0.551642
-0.52299
-0.50661
-0.488345
-0.473249
-0.459907
-0.429551
-0.395395
-0.370021
-0.904497
-0.885723
-0.869496
-0.853705
-0.833784
-0.818341
-0.804631
-0.788561
-0.773032
-0.760352
-0.735362
-0.713382
-0.689931
-0.666627
-0.640061
-0.622237
-0.605455
-0.574962
-0.557563
-0.529752
-0.512409
-0.495429
-0.480197
-0.461548
-0.432482
-0.959074
-0.952259
-0.930625
-0.911946
-0.894552
-0.878901
-0.86008
-0.842109
-0.825531
-0.812229
-0.795494
-0.778223
-0.762813
-0.746438
-0.725368
-0.702088
-0.676588
-0.648047
-0.633565
-0.616463
-0.588978
-0.560098
-0.538218
-0.521822
-0.50358
-0.486144
-1.01447
-1.00196
-0.984613
-0.971455
-0.951809
-0.933515
-0.919135
-0.902133
-0.886171
-0.866824
-0.850764
-0.836017
-0.820086
-0.801495
-0.783933
-0.767563
-0.751581
-0.736338
-0.717666
-0.69084
-0.656349
-0.636879
-0.616654
-0.59476
-0.572788
-0.547694
-0.533607
-1.03666
-1.02476
-1.00804
-0.992336
-0.976829
-0.95862
-0.940033
-0.927199
-0.911592
-0.894865
-0.877313
-0.85797
-0.843255
-0.828267
-0.808248
-0.789234
-0.773066
-0.758557
-0.742912
-0.723592
-0.699283
-0.682519
-0.647778
-0.6271
-0.598098
-1.0893
-1.07909
-1.0589
-1.04554
-1.03007
-1.01627
-0.998352
-0.984696
-0.966207
-0.948717
-0.933888
-0.918397
-0.901529
-0.884412
-0.866137
-0.850525
-0.834527
-0.815845
-0.795871
-0.779548
-0.764721
-0.747936
-0.729253
-0.71694
-0.681765
-1.11363
-1.09601
-1.08088
-1.06577
-1.05354
-1.03811
-1.02182
-1.00607
-0.990262
-0.973506
-0.957336
-0.940101
-0.925366
-0.907731
-0.890239
-0.873035
-0.857596
-0.841383
-0.824022
-0.805433
-0.788054
-0.771124
-0.753541
-0.733415
-1.16825
-1.15061
-1.14188
-1.12181
-1.10672
-1.08856
-1.07486
-1.06013
-1.04448
-1.02666
-1.01129
-0.99501
-0.979668
-0.962979
-0.949222
-0.931755
-0.914587
-0.896844
-0.878858
-0.863933
-0.849631
-0.826517
-0.811029
-0.795653
-0.777042
-1.20158
-1.18901
-1.17527
-1.15957
-1.1445
-1.13099
-1.11462
-1.09609
-1.08298
-1.06772
-1.05106
-1.03357
-1.01596
-0.999483
-0.986155
-0.973033
-0.95604
-0.939097
-0.922254
-0.904652
-0.885841
-0.87189
-0.85034
-0.83149
-0.816333
-1.23515
-1.2222
-1.20839
-1.19587
-1.18193
-1.16785
-1.15273
-1.13949
-1.12461
-1.10821
-1.09008
-1.0762
-1.05846
-1.0399
-1.02115
-1.00761
-0.993319
-0.978485
-0.96245
-0.944962
-0.929246
-0.912476
-0.892492
-0.878305
-0.860185
-1.27984
-1.26832
-1.25356
-1.24126
-1.22955
-1.21665
-1.20379
-1.18825
-1.17453
-1.15969
-1.14679
-1.13416
-1.11999
-1.10148
-1.08453
-1.06898
-1.04871
-1.03125
-1.01703
-1.00187
-0.983823
-0.968783
-0.953472
-0.93527
-0.917575
-0.898236
-1.31129
-1.29719
-1.28407
-1.27212
-1.25981
-1.24737
-1.23607
-1.22517
-1.21235
-1.1966
-1.1818
-1.1672
-1.15356
-1.14146
-1.12767
-1.10999
-1.09274
-1.07694
-1.05792
-1.04173
-1.02478
-1.00996
-0.993128
-0.97638
-0.95981
-0.942398
-1.33793
-1.32871
-1.31753
-1.30358
-1.29027
-1.27758
-1.26558
-1.25372
-1.2423
-1.23076
-1.21919
-1.20474
-1.18898
-1.1747
-1.16088
-1.14734
-1.134
-1.11684
-1.10063
-1.08471
-1.06612
-1.05057
-1.03359
-1.01756
-1.00296
-0.983894
-0.965903
-1.37885
-1.36206
-1.34818
-1.33603
-1.32304
-1.30951
-1.29588
-1.28357
-1.27107
-1.25894
-1.2474
-1.23576
-1.22408
-1.21133
-1.19742
-1.18318
-1.16957
-1.15506
-1.14017
-1.12578
-1.10831
-1.09255
-1.07631
-1.05874
-1.04222
-1.02545
-1.01489
-1.39854
-1.38466
-1.37036
-1.3567
-1.34293
-1.32922
-1.31538
-1.30136
-1.28891
-1.2766
-1.26428
-1.25249
-1.2409
-1.22927
-1.217
-1.20416
-1.19076
-1.17695
-1.16268
-1.14685
-1.13286
-1.11857
-1.10133
-1.08594
-1.0682
-1.04961
-1.43163
-1.41959
-1.40695
-1.39296
-1.37872
-1.36494
-1.3507
-1.33571
-1.32111
-1.30712
-1.2945
-1.28239
-1.2697
-1.25788
-1.24642
-1.23506
-1.22298
-1.21026
-1.19759
-1.18401
-1.16933
-1.15401
-1.13762
-1.12337
-1.10932
-1.09275
-1.466
-1.4516
-1.43911
-1.42685
-1.41347
-1.39992
-1.38666
-1.37248
-1.35771
-1.34275
-1.32776
-1.31294
-1.30006
-1.28782
-1.27544
-1.26342
-1.25205
-1.24078
-1.22886
-1.2166
-1.20458
-1.19048
-1.17631
-1.16103
-1.14566
-1.1303
-1.49023
-1.47288
-1.45997
-1.44765
-1.43527
-1.42196
-1.40803
-1.39412
-1.37993
-1.36422
-1.3493
-1.33414
-1.31935
-1.30683
-1.29432
-1.28177
-1.26951
-1.25811
-1.24675
-1.235
-1.22316
-1.21182
-1.19741
-1.184
-1.16911
-1.52422
-1.51071
-1.49728
-1.48267
-1.46782
-1.45536
-1.44277
-1.43005
-1.41631
-1.40202
-1.38747
-1.37252
-1.35715
-1.34165
-1.32654
-1.31407
-1.30132
-1.28861
-1.27659
-1.26496
-1.25355
-1.24186
-1.23005
-1.21869
-1.20526
-1.18995
-1.55326
-1.54268
-1.53058
-1.51851
-1.5058
-1.49182
-1.47804
-1.46471
-1.45145
-1.43766
-1.42403
-1.40945
-1.39528
-1.38064
-1.36574
-1.35044
-1.33716
-1.32369
-1.30999
-1.29616
-1.28392
-1.27257
-1.26102
-1.24887
-1.23782
-1.22269
-1.58175
-1.57205
-1.56226
-1.55133
-1.53948
-1.52697
-1.51403
-1.49993
-1.48739
-1.47435
-1.46019
-1.44733
-1.43325
-1.41845
-1.40382
-1.38905
-1.37464
-1.35981
-1.34696
-1.33349
-1.31957
-1.30323
-1.29178
-1.27995
-1.26895
-1.25666
-1.2442
-1.60167
-1.59083
-1.58048
-1.57014
-1.55907
-1.54807
-1.53594
-1.52296
-1.50938
-1.49665
-1.48367
-1.47008
-1.4571
-1.44213
-1.4269
-1.41224
-1.39763
-1.38311
-1.36948
-1.35637
-1.34319
-1.32952
-1.3136
-1.30037
-1.28786
-1.27543
-1.62671
-1.61675
-1.60709
-1.59749
-1.58768
-1.57745
-1.56664
-1.5556
-1.54381
-1.53217
-1.5192
-1.50543
-1.49351
-1.4803
-1.46856
-1.45107
-1.43483
-1.41999
-1.40582
-1.3911
-1.37889
-1.36553
-1.34999
-1.33685
-1.32397
-1.31017
-1.64367
-1.63414
-1.62447
-1.6142
-1.6045
-1.59338
-1.583
-1.57359
-1.56328
-1.55276
-1.54171
-1.52762
-1.51273
-1.50133
-1.48929
-1.47541
-1.4589
-1.4438
-1.42857
-1.4142
-1.39956
-1.38785
-1.37416
-1.35945
-1.34609
-1.67091
-1.66093
-1.6505
-1.64099
-1.63096
-1.62083
-1.6109
-1.60091
-1.58702
-1.57913
-1.56908
-1.55934
-1.54839
-1.53437
-1.52093
-1.50938
-1.49838
-1.48103
-1.46568
-1.45294
-1.43769
-1.4234
-1.40852
-1.3966
-1.38176
-1.68837
-1.67897
-1.66832
-1.65782
-1.64787
-1.63776
-1.62715
-1.61745
-1.60835
-1.59316
-1.58484
-1.57487
-1.56487
-1.55333
-1.53897
-1.52739
-1.51661
-1.5049
-1.48859
-1.47213
-1.46037
-1.4456
-1.43227
-1.41796
-1.40426
-1.71524
-1.70537
-1.69584
-1.68621
-1.67537
-1.66534
-1.65505
-1.64446
-1.63345
-1.62307
-1.61421
-1.60234
-1.592
-1.58098
-1.57113
-1.55944
-1.54414
-1.53323
-1.52238
-1.50983
-1.49806
-1.48117
-1.46715
-1.45375
-1.43914
-1.73215
-1.72174
-1.71238
-1.7025
-1.69298
-1.68272
-1.67247
-1.6618
-1.65062
-1.64004
-1.62833
-1.61886
-1.6088
-1.59822
-1.58841
-1.57906
-1.56625
-1.55254
-1.54054
-1.52886
-1.51622
-1.50554
-1.49196
-1.47652
-1.46235
-1.75552
-1.74638
-1.73763
-1.72876
-1.71967
-1.70976
-1.69974
-1.6905
-1.68058
-1.66868
-1.65571
-1.6452
-1.63345
-1.62474
-1.6151
-1.60461
-1.59387
-1.58396
-1.57289
-1.5606
-1.54926
-1.53689
-1.52369
-1.5116
-1.50065
-1.77079
-1.76219
-1.75315
-1.74382
-1.73476
-1.72582
-1.71768
-1.70725
-1.69732
-1.68806
-1.67733
-1.66367
-1.65077
-1.63968
-1.6311
-1.62097
-1.61104
-1.60075
-1.59101
-1.57987
-1.56725
-1.55633
-1.54514
-1.53153
-1.79335
-1.78557
-1.77656
-1.76798
-1.75941
-1.75065
-1.74102
-1.73184
-1.72379
-1.71669
-1.70804
-1.6973
-1.68491
-1.67231
-1.65818
-1.64753
-1.63807
-1.62775
-1.61751
-1.60735
-1.5978
-1.58693
-1.57414
-1.56306
-1.55558
-1.80911
-1.80063
-1.79169
-1.78254
-1.77405
-1.76512
-1.75622
-1.74752
-1.73838
-1.72959
-1.72205
-1.71514
-1.70688
-1.69429
-1.68239
-1.66696
-1.6554
-1.64486
-1.63468
-1.62436
-1.61435
-1.60419
-1.59406
-1.57984
-1.83142
-1.82406
-1.81503
-1.80604
-1.79738
-1.78869
-1.78002
-1.77142
-1.76255
-1.75365
-1.74473
-1.73565
-1.72712
-1.71933
-1.71193
-1.70175
-1.69052
-1.67658
-1.66424
-1.65194
-1.6412
-1.63118
-1.62122
-1.61101
-1.60156
-1.84633
-1.83841
-1.83013
-1.82112
-1.81228
-1.80343
-1.79463
-1.78594
-1.77732
-1.76843
-1.75975
-1.75138
-1.74236
-1.73374
-1.7251
-1.71666
-1.70698
-1.69618
-1.6848
-1.67255
-1.66062
-1.64879
-1.63889
-1.62927
-1.86698
-1.86023
-1.85231
-1.84449
-1.83577
-1.8272
-1.81805
-1.8092
-1.80045
-1.79175
-1.78307
-1.77403
-1.76533
-1.75702
-1.74866
-1.74036
-1.73158
-1.72306
-1.71376
-1.70316
-1.69283
-1.68034
-1.6686
-1.65673
-1.64495
-1.88135
-1.87436
-1.86682
-1.85855
-1.85023
-1.8417
-1.83303
-1.82415
-1.81509
-1.80636
-1.7978
-1.78917
-1.78072
-1.77183
-1.76298
-1.7547
-1.74658
-1.7384
-1.72943
-1.72
-1.71027
-1.69979
-1.68758
-1.67639
-1.89366
-1.88673
-1.88018
-1.87259
-1.86486
-1.8566
-1.84781
-1.83898
-1.82994
-1.82096
-1.81228
-1.8038
-1.79516
-1.78665
-1.77802
-1.7693
-1.76067
-1.75278
-1.74502
-1.73564
-1.72596
-1.71678
-1.70647
-1.69424
-1.91457
-1.90633
-1.89946
-1.89282
-1.8861
-1.87875
-1.87103
-1.8629
-1.85423
-1.84525
-1.83613
-1.82711
-1.81836
-1.80975
-1.80118
-1.79277
-1.78434
-1.77568
-1.76634
-1.75845
-1.75094
-1.74216
-1.73205
-1.72319
-1.7128
-1.92885
-1.92026
-1.91257
-1.90591
-1.89907
-1.89203
-1.8846
-1.87699
-1.86897
-1.86055
-1.85173
-1.84258
-1.83353
-1.82477
-1.81606
-1.80753
-1.79923
-1.79082
-1.78236
-1.7735
-1.76531
-1.75694
-1.74827
-1.7371
-1.94269
-1.93533
-1.92589
-1.91831
-1.91127
-1.90461
-1.89788
-1.89045
-1.88291
-1.87495
-1.8668
-1.85825
-1.84927
-1.84019
-1.83143
-1.82284
-1.81421
-1.80577
-1.79726
-1.78866
-1.77977
-1.77194
-1.76274
-1.75563
-1.9558
-1.94853
-1.94158
-1.93322
-1.92478
-1.91728
-1.91062
-1.90321
-1.89613
-1.88876
-1.88092
-1.87288
-1.86443
-1.85582
-1.84698
-1.83824
-1.82975
-1.82129
-1.81277
-1.80424
-1.79563
-1.78688
-1.77764
-1.97756
-1.97051
-1.9624
-1.95489
-1.94774
-1.93984
-1.93174
-1.92401
-1.91682
-1.90942
-1.90181
-1.89432
-1.88681
-1.87905
-1.87064
-1.86212
-1.85358
-1.84503
-1.83659
-1.82825
-1.82006
-1.81098
-1.80308
-1.79558
-1.99249
-1.98353
-1.97607
-1.96887
-1.9614
-1.95383
-1.94627
-1.93847
-1.93067
-1.92315
-1.9155
-1.90768
-1.90009
-1.8928
-1.88514
-1.87687
-1.86847
-1.85992
-1.8517
-1.84316
-1.83473
-1.82707
-1.81679
-1.80893
-2.00365
-1.99701
-1.98895
-1.98166
-1.97465
-1.96746
-1.9601
-1.95262
-1.94501
-1.93732
-1.92985
-1.92201
-1.91396
-1.90612
-1.89864
-1.89098
-1.88293
-1.87479
-1.86635
-1.85824
-1.84992
-1.84151
-1.83392
-2.02255
-2.017
-2.00939
-2.00254
-1.99531
-1.98768
-1.98045
-1.97326
-1.96599
-1.95865
-1.95101
-1.9435
-1.93625
-1.92851
-1.92031
-1.91229
-1.9046
-1.89695
-1.88925
-1.88124
-1.87307
-1.86487
-1.85647
-1.84772
-2.03751
-2.02933
-2.02271
-2.0153
-2.00791
-2.00062
-1.99334
-1.98633
-1.97916
-1.97193
-1.96478
-1.95663
-1.94951
-1.94243
-1.93496
-1.92672
-1.91867
-1.91077
-1.903
-1.89558
-1.88756
-1.87905
-1.87187
-1.86247
-2.0501
-2.04265
-2.03467
-2.02775
-2.02104
-2.0137
-2.00642
-1.99929
-1.99212
-1.98502
-1.97796
-1.97138
-1.96335
-1.95557
-1.94853
-1.94131
-1.93287
-1.92493
-1.91719
-1.9091
-1.90179
-1.89396
-1.88479
-1.87713
-2.06259
-2.05561
-2.04848
-2.04114
-2.03336
-2.0263
-2.01909
-2.01175
-2.00477
-1.99767
-1.99074
-1.98376
-1.97732
-1.97006
-1.96189
-1.95496
-1.94747
-1.93907
-1.93099
-1.92322
-1.91524
-1.90779
-1.90018
-2.08413
-2.07642
-2.06911
-2.06195
-2.05467
-2.04713
-2.03937
-2.03192
-2.02442
-2.01711
-2.01012
-2.0032
-1.99664
-1.98967
-1.98299
-1.97641
-1.9687
-1.96139
-1.95388
-1.94568
-1.93736
-1.92919
-1.92158
-1.91296
-2.09484
-2.08903
-2.08209
-2.07494
-2.06802
-2.0607
-2.05316
-2.04535
-2.03757
-2.03006
-2.02282
-2.01574
-2.00886
-2.00225
-1.99559
-1.98876
-1.98217
-1.9749
-1.96753
-1.96
-1.95232
-1.94373
-1.93538
-1.92797
-2.10972
-2.10287
-2.09573
-2.08822
-2.08123
-2.0741
-2.0669
-2.05947
-2.05161
-2.04375
-2.03617