/*--------------------------------*- C++ -*----------------------------------*\
  =========                 |
  \\      /  F ield         | OpenFOAM: The Open Source CFD Toolbox
   \\    /   O peration     | Website:  https://openfoam.org
    \\  /    A nd           | Version:  8
     \\/     M anipulation  |
\*---------------------------------------------------------------------------*/
FoamFile
{
    version     2.0;
    format      ascii;
    class       volScalarField;
    location    "150";
    object      p;
}
// * * * * * * * * * * * * * * * * * * * * * * * * * * * * * * * * * * * * * //

dimensions      [0 2 -2 0 0 0 0];

internalField   nonuniform List<scalar> 
404911
(
-1.06391
-1.06358
-1.06374
-1.05697
-1.06367
-1.06332
-1.06263
-1.06073
-1.05889
-1.05799
-1.07392
-1.07198
-1.06917
-1.0668
-1.06327
-1.0611
-1.0741
-1.07237
-1.0709
-1.06887
-1.07623
-1.07328
-1.07133
-1.07746
-1.07627
-1.07551
-1.07547
-1.07655
-1.07545
-1.07878
-1.07838
-1.07477
-1.0743
-1.07097
-1.07838
-1.07614
-1.07266
-1.08376
-1.08193
-1.07903
-1.07474
-1.08451
-1.08285
-1.0796
-1.0777
-1.0765
-1.0856
-1.08262
-1.07845
-1.07634
-1.08912
-1.08527
-1.08288
-1.08011
-1.08945
-1.08562
-1.09513
-1.06475
-1.06299
-1.0639
-1.07106
-1.0689
-1.07395
-1.07223
-1.07097
-1.07585
-1.07319
-1.07079
-1.07654
-1.07567
-1.07592
-1.07498
-1.07403
-1.07726
-1.07423
-1.07077
-1.07196
-1.0792
-1.0758
-1.08091
-1.07825
-1.08363
-1.08067
-1.07717
-1.08621
-1.08356
-1.08891
-1.08636
-1.08173
-1.08959
-1.08644
-1.10003
-1.0974
-1.09505
-1.10345
-1.10138
-1.09827
-1.10515
-1.10288
-1.0992
-1.1042
-1.10436
-1.1019
-1.10208
-0.702925
-0.699042
-0.692126
-0.739524
-0.724111
-0.722528
-0.708797
-0.705212
-0.701359
-0.696557
-0.68494
-0.751746
-0.748601
-0.730808
-0.718011
-0.709968
-0.705551
-0.701743
-0.691735
-0.670949
-0.773137
-0.767479
-0.759869
-0.754283
-0.748624
-0.741644
-0.727858
-0.718077
-0.710092
-0.70469
-0.698552
-0.689259
-0.682161
-0.68888
-0.677502
-0.67093
-0.786214
-0.780796
-0.774595
-0.768512
-0.762293
-0.75601
-0.750107
-0.743171
-0.734976
-0.720224
-0.711683
-0.70638
-0.698127
-0.693961
-0.67787
-0.796202
-0.792494
-0.787135
-0.782394
-0.776572
-0.769947
-0.762296
-0.755723
-0.749813
-0.743579
-0.736504
-0.727502
-0.715256
-0.710705
-0.705237
-0.802558
-0.798283
-0.793214
-0.789494
-0.784749
-0.779072
-0.772773
-0.76375
-0.756637
-0.749295
-0.743608
-0.735811
-0.727764
-0.719841
-0.712348
-0.701912
-0.812418
-0.809317
-0.805934
-0.80137
-0.795491
-0.792301
-0.786358
-0.779902
-0.774665
-0.764902
-0.758521
-0.751588
-0.745813
-0.738369
-0.730356
-0.721983
-0.714767
-0.8261
-0.82216
-0.819735
-0.816182
-0.811135
-0.807364
-0.80436
-0.79974
-0.796226
-0.790363
-0.780725
-0.774964
-0.767486
-0.760877
-0.75495
-0.748942
-0.74014
-0.731179
-0.832119
-0.826011
-0.822918
-0.820777
-0.817394
-0.812438
-0.80861
-0.805002
-0.800773
-0.797762
-0.793121
-0.785087
-0.775908
-0.769616
-0.763783
-0.758255
-0.749688
-0.742042
-0.841826
-0.837822
-0.832674
-0.826882
-0.823562
-0.821063
-0.817779
-0.813934
-0.810458
-0.805694
-0.801683
-0.79703
-0.791673
-0.78416
-0.777457
-0.771319
-0.765783
-0.759824
-0.848198
-0.841982
-0.837581
-0.833679
-0.828543
-0.823926
-0.821542
-0.817169
-0.811863
-0.810396
-0.806988
-0.801887
-0.797009
-0.790623
-0.783298
-0.778625
-0.776003
-0.857862
-0.854275
-0.84945
-0.844306
-0.838863
-0.83548
-0.831011
-0.824177
-0.821339
-0.817884
-0.813466
-0.810061
-0.806306
-0.802562
-0.797354
-0.792846
-0.786395
-0.865187
-0.86303
-0.859219
-0.854211
-0.850179
-0.844379
-0.839642
-0.83537
-0.832952
-0.825946
-0.820848
-0.818518
-0.814867
-0.81152
-0.807196
-0.802528
-0.797791
-0.793244
-0.880047
-0.875378
-0.866572
-0.864205
-0.858653
-0.85445
-0.851798
-0.846573
-0.841297
-0.837121
-0.833397
-0.828577
-0.823875
-0.819605
-0.816415
-0.813841
-0.808171
-0.802633
-0.888199
-0.885595
-0.881003
-0.875216
-0.868714
-0.86664
-0.861219
-0.853963
-0.851342
-0.846878
-0.843836
-0.838842
-0.832185
-0.826134
-0.822303
-0.820305
-0.816837
-0.814096
-0.89126
-0.888093
-0.885266
-0.882064
-0.876611
-0.871379
-0.868749
-0.863916
-0.855306
-0.850851
-0.84736
-0.845783
-0.841612
-0.834399
-0.82588
-0.819569
-0.819768
-0.818595
-0.898284
-0.895017
-0.892449
-0.888946
-0.885913
-0.882926
-0.877211
-0.871601
-0.8685
-0.864387
-0.85652
-0.852001
-0.848248
-0.847663
-0.842909
-0.836726
-0.827674
-0.824193
-0.90131
-0.899401
-0.8961
-0.89299
-0.890254
-0.88736
-0.884212
-0.879367
-0.871778
-0.868014
-0.864351
-0.857957
-0.851199
-0.847097
-0.845529
-0.841009
-0.834292
-0.828257
-0.913304
-0.908244
-0.902372
-0.901001
-0.897761
-0.894472
-0.891632
-0.888016
-0.885485
-0.880348
-0.872957
-0.869027
-0.866485
-0.861034
-0.853749
-0.84774
-0.844164
-0.840938
-0.915168
-0.913587
-0.90786
-0.901518
-0.901376
-0.898137
-0.894677
-0.892156
-0.888995
-0.886095
-0.880926
-0.873419
-0.869339
-0.867118
-0.863057
-0.856792
-0.852771
-0.923698
-0.921212
-0.91694
-0.91384
-0.909688
-0.904683
-0.903291
-0.900611
-0.896403
-0.891923
-0.888403
-0.884743
-0.88009
-0.873439
-0.869239
-0.865607
-0.861774
-0.857214
-0.928224
-0.924044
-0.919806
-0.916977
-0.914958
-0.912161
-0.908341
-0.905298
-0.902939
-0.899355
-0.893723
-0.889137
-0.884831
-0.879871
-0.874175
-0.869098
-0.865377
-0.860817
-0.932751
-0.928433
-0.924007
-0.919554
-0.916909
-0.91604
-0.913035
-0.90961
-0.906131
-0.903673
-0.90148
-0.896008
-0.888892
-0.884229
-0.879744
-0.873335
-0.870996
-0.862918
-0.942089
-0.939167
-0.93353
-0.928288
-0.923227
-0.91928
-0.917122
-0.916449
-0.91366
-0.910215
-0.90789
-0.905843
-0.903751
-0.899116
-0.891811
-0.886565
-0.882506
-0.877523
-0.953903
-0.949651
-0.943966
-0.938606
-0.934043
-0.928868
-0.922371
-0.919059
-0.916844
-0.915661
-0.913776
-0.911686
-0.908188
-0.905956
-0.904097
-0.900332
-0.895687
-0.889364
-0.958682
-0.955923
-0.950687
-0.945803
-0.94108
-0.935965
-0.93003
-0.922419
-0.917992
-0.917768
-0.915462
-0.913046
-0.910961
-0.908095
-0.905738
-0.903773
-0.899903
-0.895705
-0.966544
-0.964379
-0.960889
-0.957025
-0.953003
-0.948002
-0.943044
-0.938099
-0.93238
-0.92527
-0.91436
-0.914374
-0.914344
-0.912423
-0.909848
-0.908204
-0.908936
-0.900607
-0.970292
-0.966914
-0.96518
-0.96222
-0.958449
-0.954227
-0.949932
-0.945288
-0.94018
-0.934852
-0.929774
-0.922735
-0.916755
-0.914198
-0.912531
-0.910139
-0.909145
-0.904556
-0.972891
-0.970068
-0.967703
-0.965846
-0.96286
-0.959234
-0.955286
-0.951352
-0.94718
-0.942197
-0.937051
-0.932179
-0.9273
-0.922242
-0.918605
-0.915387
-0.912167
-0.909929
-0.977409
-0.974144
-0.969998
-0.968707
-0.966146
-0.96339
-0.959941
-0.956781
-0.952543
-0.94874
-0.944046
-0.938838
-0.934205
-0.929733
-0.925973
-0.921846
-0.917878
-0.913351
-0.986583
-0.981754
-0.979506
-0.976244
-0.971491
-0.969718
-0.967279
-0.964355
-0.960105
-0.95839
-0.953333
-0.950007
-0.945466
-0.940205
-0.935544
-0.931128
-0.927678
-0.924871
-0.987076
-0.985941
-0.983727
-0.980761
-0.977972
-0.975177
-0.97258
-0.969751
-0.966119
-0.96097
-0.958272
-0.954149
-0.950911
-0.946652
-0.941756
-0.936798
-0.932254
-0.927653
-0.9892
-0.987723
-0.985578
-0.983385
-0.981251
-0.97906
-0.976844
-0.97433
-0.971436
-0.967688
-0.96375
-0.959538
-0.955488
-0.951751
-0.947624
-0.942929
-0.936804
-0.932595
-0.99363
-0.989097
-0.986974
-0.985699
-0.98379
-0.981982
-0.980574
-0.978487
-0.97532
-0.972375
-0.96919
-0.965304
-0.960708
-0.956256
-0.952622
-0.948755
-0.943614
-0.997112
-0.996084
-0.991829
-0.98895
-0.986675
-0.985747
-0.984107
-0.982335
-0.982002
-0.979672
-0.975912
-0.973131
-0.970516
-0.966858
-0.962073
-0.958007
-0.9538
-0.95052
-1.00026
-0.998087
-0.994743
-0.991192
-0.987926
-0.986563
-0.987231
-0.985166
-0.982545
-0.982434
-0.980601
-0.976566
-0.97377
-0.971362
-0.967676
-0.963221
-0.958547
-0.95373
-1.00523
-1.00111
-0.998253
-0.99478
-0.991411
-0.987126
-0.985797
-0.988447
-0.986953
-0.983183
-0.982479
-0.981407
-0.977018
-0.974102
-0.971363
-0.967436
-0.961749
-0.957354
-1.00991
-1.00892
-1.00548
-1.00167
-0.998013
-0.994861
-0.992521
-0.989166
-0.985757
-0.989057
-0.987808
-0.983525
-0.981169
-0.980097
-0.977118
-0.974351
-0.971298
-0.967177
-1.01471
-1.01212
-1.00822
-1.0054
-1.00183
-0.998101
-0.994809
-0.992931
-0.991492
-0.987495
-0.989744
-0.989515
-0.984976
-0.982197
-0.980224
-0.977462
-0.974252
-0.971744
-1.01904
-1.01584
-1.01276
-1.00922
-1.00561
-1.002
-0.998075
-0.99425
-0.992743
-0.993069
-0.989744
-0.990134
-0.989444
-0.985434
-0.982785
-0.980703
-0.97735
-0.974633
-1.02608
-1.01893
-1.01661
-1.01365
-1.01001
-1.00638
-1.00252
-0.998171
-0.993708
-0.991798
-0.991919
-0.988932
-0.989189
-0.988052
-0.985298
-0.98306
-0.980056
-0.977536
-1.02655
-1.02346
-1.02068
-1.01711
-1.0142
-1.01111
-1.00775
-1.00374
-0.999252
-0.993842
-0.99125
-0.990192
-0.988228
-0.988227
-0.987123
-0.985394
-0.983754
-1.03186
-1.03168
-1.02691
-1.0244
-1.02135
-1.01773
-1.01431
-1.01176
-1.00927
-1.00567
-1.0012
-0.995634
-0.988864
-0.987652
-0.987548
-0.987351
-0.986567
-0.984674
-1.0366
-1.03402
-1.03108
-1.02778
-1.02483
-1.02143
-1.01789
-1.01401
-1.01226
-1.01059
-1.00778
-1.00374
-0.998804
-0.991686
-0.986782
-0.987426
-0.98669
-0.98622
-1.03886
-1.03722
-1.0349
-1.03223
-1.02929
-1.02622
-1.02262
-1.01905
-1.01376
-1.014
-1.0113
-1.00901
-1.00532
-1.00086
-0.996353
-0.992198
-0.990104
-0.988724
-1.04218
-1.0404
-1.03851
-1.03626
-1.03355
-1.03093
-1.02796
-1.02454
-1.02113
-1.01586
-1.01396
-1.01165
-1.00935
-1.00599
-1.00209
-0.998066
-0.994915
-0.992397
-1.04339
-1.04299
-1.04122
-1.03966
-1.03734
-1.0349
-1.03238
-1.02968
-1.02652
-1.02297
-1.01916
-1.01557
-1.01247
-1.00957
-1.0063
-1.00301
-0.998714
-0.996634
-1.04436
-1.04226
-1.0417
-1.04091
-1.0396
-1.03768
-1.03555
-1.03318
-1.03065
-1.02789
-1.02476
-1.02107
-1.01709
-1.01339
-1.01001
-1.00682
-1.00298
-0.999848
-1.04637
-1.04331
-1.04116
-1.0404
-1.04005
-1.03911
-1.03767
-1.03613
-1.03417
-1.03164
-1.02903
-1.02634
-1.02303
-1.01878
-1.01455
-1.0109
-1.00751
-1.00459
-1.04841
-1.04634
-1.04274
-1.03969
-1.03957
-1.03968
-1.03894
-1.03791
-1.03701
-1.03589
-1.03331
-1.03005
-1.02767
-1.02448
-1.0202
-1.01603
-1.01195
-1.0074
-1.05327
-1.05112
-1.04922
-1.04595
-1.04349
-1.03962
-1.03797
-1.03996
-1.03945
-1.03813
-1.03734
-1.03704
-1.03544
-1.03066
-1.02824
-1.02505
-1.02115
-1.01647
-1.01264
-1.05535
-1.0524
-1.04996
-1.04741
-1.0468
-1.04506
-1.04255
-1.03754
-1.03988
-1.04059
-1.03902
-1.03656
-1.03556
-1.03369
-1.03073
-1.02835
-1.02514
-1.02081
-1.05439
-1.05225
-1.0504
-1.04866
-1.04723
-1.04598
-1.04447
-1.04074
-1.03932
-1.0392
-1.03843
-1.03601
-1.03429
-1.03259
-1.03049
-1.02787
-1.02402
-1.06115
-1.05864
-1.05478
-1.0523
-1.05
-1.04823
-1.0467
-1.04577
-1.04512
-1.04191
-1.03903
-1.03769
-1.03671
-1.03538
-1.03376
-1.03199
-1.02994
-1.02786
-1.06325
-1.06171
-1.0583
-1.05536
-1.0524
-1.04991
-1.0479
-1.04616
-1.04473
-1.04286
-1.04027
-1.0386
-1.037
-1.03529
-1.03432
-1.03303
-1.03141
-1.03039
-1.06697
-1.06382
-1.0619
-1.05906
-1.05582
-1.05285
-1.05028
-1.04817
-1.04657
-1.04433
-1.04111
-1.03893
-1.0377
-1.03616
-1.03515
-1.03401
-1.03276
-1.03056
-1.06627
-1.06455
-1.06231
-1.05941
-1.05631
-1.05341
-1.05081
-1.04897
-1.04805
-1.04616
-1.04158
-1.04035
-1.03882
-1.03706
-1.03556
-1.0341
-1.03267
-1.0653
-1.06606
-1.06452
-1.0623
-1.05969
-1.05682
-1.05409
-1.05127
-1.04899
-1.04823
-1.04682
-1.04305
-1.04123
-1.03942
-1.03746
-1.03554
-1.0341
-1.06838
-1.06548
-1.0649
-1.06568
-1.06359
-1.0621
-1.05992
-1.05763
-1.05502
-1.05241
-1.04916
-1.04819
-1.04619
-1.04386
-1.04167
-1.0396
-1.03732
-1.03562
-1.0709
-1.0678
-1.06582
-1.06543
-1.06494
-1.0636
-1.06207
-1.06021
-1.05833
-1.05709
-1.05501
-1.05091
-1.04895
-1.04673
-1.04418
-1.04219
-1.03887
-1.07103
-1.0693
-1.06808
-1.06656
-1.06598
-1.06569
-1.06423
-1.06235
-1.06013
-1.05827
-1.05732
-1.05621
-1.05235
-1.04986
-1.04739
-1.04476
-1.04241
-1.07209
-1.07122
-1.06991
-1.06887
-1.06819
-1.06717
-1.06676
-1.06707
-1.06511
-1.06279
-1.06055
-1.05787
-1.05638
-1.05547
-1.05348
-1.05118
-1.04811
-1.04561
-1.07294
-1.07199
-1.07081
-1.06972
-1.06887
-1.06754
-1.06681
-1.06662
-1.0667
-1.06509
-1.0636
-1.06203
-1.05908
-1.05694
-1.05538
-1.05367
-1.05086
-1.04822
-1.07558
-1.07349
-1.07246
-1.07145
-1.07028
-1.06875
-1.06732
-1.06588
-1.0652
-1.0646
-1.06396
-1.06267
-1.06131
-1.05923
-1.05754
-1.05527
-1.05275
-1.0504
-1.07602
-1.07446
-1.07289
-1.07309
-1.07187
-1.07043
-1.06855
-1.06698
-1.06573
-1.064
-1.06272
-1.06139
-1.05989
-1.05856
-1.05671
-1.05535
-1.05356
-1.05072
-1.07733
-1.07721
-1.07629
-1.07359
-1.073
-1.07306
-1.07213
-1.07022
-1.0684
-1.0666
-1.06511
-1.06351
-1.0617
-1.05988
-1.05855
-1.05665
-1.05545
-1.0541
-1.05232
-1.07744
-1.07782
-1.0772
-1.07606
-1.07451
-1.07399
-1.07302
-1.07181
-1.07073
-1.06869
-1.06682
-1.06592
-1.06486
-1.0631
-1.06136
-1.05962
-1.05712
-1.05608
-1.05378
-1.08134
-1.07767
-1.07717
-1.07626
-1.07524
-1.07452
-1.0729
-1.07219
-1.07137
-1.06972
-1.06754
-1.06656
-1.06515
-1.06324
-1.06145
-1.05969
-1.0575
-1.05463
-1.08249
-1.0791
-1.07733
-1.07675
-1.07525
-1.07401
-1.07345
-1.07308
-1.07201
-1.07124
-1.07009
-1.06768
-1.06646
-1.06491
-1.06293
-1.06105
-1.05926
-1.08454
-1.082
-1.07889
-1.0776
-1.07652
-1.07502
-1.07366
-1.07263
-1.0724
-1.07219
-1.07102
-1.06909
-1.06772
-1.06603
-1.06406
-1.06201
-1.06211
-1.08587
-1.08479
-1.08267
-1.07925
-1.07803
-1.07619
-1.0747
-1.0739
-1.07282
-1.07233
-1.07218
-1.07033
-1.06855
-1.06707
-1.06551
-1.06337
-1.06155
-1.09172
-1.08815
-1.08575
-1.08468
-1.08279
-1.07958
-1.07807
-1.07609
-1.07474
-1.07417
-1.07329
-1.07176
-1.0713
-1.06912
-1.06778
-1.06635
-1.06429
-1.06102
-1.09417
-1.09092
-1.08704
-1.08469
-1.08403
-1.08215
-1.07935
-1.07788
-1.07564
-1.07483
-1.07422
-1.07239
-1.0706
-1.06934
-1.06821
-1.06688
-1.06527
-1.09822
-1.09452
-1.0918
-1.08863
-1.0859
-1.08451
-1.082
-1.07991
-1.07829
-1.0759
-1.07512
-1.07447
-1.07244
-1.07093
-1.0689
-1.06794
-1.06676
-1.10207
-1.09835
-1.09544
-1.09254
-1.08993
-1.08785
-1.08488
-1.08314
-1.08108
-1.07984
-1.07719
-1.07538
-1.07411
-1.07255
-1.07057
-1.06843
-1.06668
-1.1049
-1.10184
-1.09913
-1.09647
-1.0935
-1.09072
-1.08751
-1.08577
-1.08355
-1.08178
-1.07999
-1.07788
-1.07532
-1.07364
-1.07202
-1.06941
-1.0682
-1.10804
-1.10528
-1.10268
-1.10013
-1.09769
-1.09462
-1.09119
-1.08796
-1.08593
-1.08396
-1.08141
-1.07937
-1.07682
-1.0746
-1.07278
-1.07121
-1.06845
-1.10978
-1.10851
-1.10652
-1.10338
-1.10042
-1.09777
-1.09573
-1.09263
-1.08946
-1.0872
-1.08396
-1.08122
-1.07928
-1.07673
-1.07409
-1.07107
-1.07045
-1.11084
-1.1082
-1.1061
-1.10338
-1.10078
-1.09784
-1.0959
-1.09265
-1.08966
-1.08762
-1.08403
-1.08176
-1.07923
-1.07644
-1.07204
-1.07043
-1.11305
-1.11026
-1.10845
-1.1051
-1.10236
-1.10053
-1.09886
-1.09653
-1.09324
-1.08956
-1.08733
-1.08473
-1.08232
-1.0794
-1.07582
-1.12578
-1.11895
-1.11404
-1.1109
-1.10871
-1.10528
-1.10289
-1.10091
-1.09895
-1.09698
-1.09367
-1.08961
-1.08714
-1.08494
-1.08218
-1.0793
-1.13512
-1.12601
-1.12062
-1.11619
-1.11143
-1.10786
-1.1055
-1.10353
-1.10097
-1.09894
-1.09698
-1.09436
-1.09064
-1.08766
-1.08421
-1.08199
-1.14226
-1.13521
-1.12809
-1.12437
-1.11968
-1.11538
-1.10999
-1.10597
-1.10364
-1.10096
-1.09825
-1.09591
-1.09422
-1.09115
-1.08642
-1.08406
-1.15644
-1.15166
-1.14521
-1.13809
-1.131
-1.12653
-1.12274
-1.11943
-1.11573
-1.10968
-1.10527
-1.10193
-1.09953
-1.09607
-1.09416
-1.09138
-1.1677
-1.1585
-1.15194
-1.14761
-1.14249
-1.13474
-1.12985
-1.12583
-1.1213
-1.11797
-1.11252
-1.10635
-1.10212
-1.10108
-1.0989
-1.09493
-1.17431
-1.1681
-1.16093
-1.15379
-1.14938
-1.14578
-1.13695
-1.13453
-1.13106
-1.12738
-1.12611
-1.11767
-1.10667
-1.0995
-1.09937
-1.09957
-1.18102
-1.1765
-1.17072
-1.1626
-1.15652
-1.14972
-1.14448
-1.13775
-1.1351
-1.13189
-1.12947
-1.12868
-1.12265
-1.11289
-1.10341
-1.1011
-1.18865
-1.18442
-1.17912
-1.17434
-1.16704
-1.15977
-1.15353
-1.14875
-1.14084
-1.13617
-1.13232
-1.13043
-1.12787
-1.12419
-1.11865
-1.11136
-1.19653
-1.19161
-1.18597
-1.18046
-1.17564
-1.16961
-1.16447
-1.15802
-1.15237
-1.14558
-1.13973
-1.13468
-1.1312
-1.12845
-1.12351
-1.20134
-1.19791
-1.19425
-1.18829
-1.18232
-1.17765
-1.17024
-1.16618
-1.16223
-1.15647
-1.14872
-1.14454
-1.13796
-1.13261
-1.12766
-1.12424
-1.20434
-1.20165
-1.19817
-1.19353
-1.18889
-1.18487
-1.1799
-1.17062
-1.16718
-1.16432
-1.15853
-1.1502
-1.14484
-1.13859
-1.13357
-1.12594
-1.20711
-1.20518
-1.20223
-1.1985
-1.19301
-1.18849
-1.18552
-1.18257
-1.17688
-1.17078
-1.16711
-1.16242
-1.15527
-1.14786
-1.1429
-1.20794
-1.20605
-1.20374
-1.19832
-1.19497
-1.18897
-1.18498
-1.18216
-1.17772
-1.1717
-1.16801
-1.16302
-1.15689
-1.15051
-1.21237
-1.20957
-1.20523
-1.20359
-1.19935
-1.20073
-1.19055
-1.18585
-1.18354
-1.17911
-1.17339
-1.16911
-1.16266
-1.22418
-1.22005
-1.21547
-1.21174
-1.20414
-1.20121
-1.1993
-1.19401
-1.19054
-1.18606
-1.18318
-1.18001
-1.17495
-1.17169
-1.2293
-1.2256
-1.22131
-1.21794
-1.21157
-1.20535
-1.20034
-1.1984
-1.19496
-1.19084
-1.18692
-1.18321
-1.17878
-1.17393
-1.23661
-1.23143
-1.22706
-1.22142
-1.21834
-1.21183
-1.20631
-1.20312
-1.19992
-1.19575
-1.19136
-1.18641
-1.1829
-1.17762
-1.24432
-1.23841
-1.23494
-1.22867
-1.22414
-1.21741
-1.21097
-1.2086
-1.2048
-1.20113
-1.19654
-1.19317
-1.18775
-1.18047
-1.25094
-1.24535
-1.24019
-1.23729
-1.23069
-1.23156
-1.21551
-1.20907
-1.20574
-1.20433
-1.20124
-1.19701
-1.19136
-1.18836
-1.25881
-1.25357
-1.24603
-1.24121
-1.23821
-1.23029
-1.23168
-1.2142
-1.2042
-1.20102
-1.2033
-1.20112
-1.19474
-1.24049
-1.23831
-1.23395
-1.22936
-1.22197
-1.21263
-1.20499
-1.20443
-1.20306
-1.24257
-1.24072
-1.23602
-1.23238
-1.22386
-1.21715
-1.20882
-1.20663
-1.24859
-1.24383
-1.24063
-1.2344
-1.23123
-1.22659
-1.21847
-1.26276
-1.25166
-1.24537
-1.24161
-1.23616
-1.23276
-1.2284
-1.25344
-1.24785
-1.2424
-1.23642
-1.22964
-1.28252
-1.26921
-1.25629
-1.24851
-1.24238
-1.2363
-1.33975
-1.33429
-1.30715
-1.29418
-1.25596
-1.34276
-1.33114
-1.32504
-1.32094
-1.31531
-1.28835
-1.35621
-1.32039
-1.31851
-1.30857
-1.29413
-1.35835
-1.3365
-1.32167
-0.300941
-0.276835
-0.243336
-0.344564
-0.346149
-0.33657
-0.317397
-0.308207
-0.301254
-0.299998
-0.235212
-0.214848
-0.396218
-0.384129
-0.380873
-0.360203
-0.353402
-0.34316
-0.326806
-0.317605
-0.308082
-0.294567
-0.300522
-0.272369
-0.25689
-0.256948
-0.22358
-0.44577
-0.431729
-0.409161
-0.399496
-0.381768
-0.377712
-0.364879
-0.349518
-0.342194
-0.331876
-0.321581
-0.31669
-0.298734
-0.286214
-0.2726
-0.253855
-0.24347
-0.2352
-0.189213
-0.17438
-0.131346
-0.0802746
-0.496897
-0.478913
-0.45959
-0.444596
-0.433607
-0.416774
-0.401913
-0.38997
-0.377371
-0.365378
-0.354045
-0.342748
-0.334364
-0.327781
-0.327456
-0.287269
-0.277846
-0.262635
-0.252111
-0.240534
-0.22296
-0.20516
-0.179676
-0.532424
-0.529365
-0.513196
-0.499252
-0.47816
-0.46367
-0.449138
-0.434783
-0.420607
-0.406933
-0.39412
-0.380658
-0.369158
-0.356436
-0.3498
-0.337874
-0.333094
-0.304141
-0.292726
-0.27087
-0.26153
-0.252779
-0.240475
-0.222298
-0.202018
-0.55141
-0.546194
-0.536863
-0.530066
-0.519406
-0.505918
-0.488449
-0.468703
-0.455614
-0.438572
-0.425395
-0.412718
-0.398776
-0.384287
-0.371979
-0.360507
-0.349629
-0.339423
-0.331634
-0.312509
-0.295903
-0.27177
-0.261908
-0.251687
-0.238888
-0.572265
-0.566427
-0.556935
-0.550161
-0.542741
-0.534097
-0.525116
-0.509891
-0.49072
-0.475728
-0.463595
-0.443495
-0.430351
-0.417098
-0.401004
-0.385735
-0.376419
-0.363637
-0.352212
-0.341348
-0.331154
-0.313885
-0.29723
-0.278826
-0.267725
-0.588144
-0.581874
-0.575169
-0.568158
-0.559534
-0.553408
-0.546252
-0.536545
-0.529893
-0.518345
-0.501114
-0.483894
-0.467837
-0.451955
-0.433682
-0.419807
-0.405662
-0.387063
-0.379142
-0.367399
-0.355867
-0.344657
-0.330289
-0.318277
-0.304182
-0.628564
-0.62364
-0.606982
-0.593692
-0.584346
-0.577308
-0.567857
-0.561319
-0.554413
-0.547275
-0.540721
-0.533234
-0.523602
-0.509252
-0.493352
-0.475195
-0.456655
-0.436361
-0.42386
-0.410608
-0.391264
-0.384943
-0.375287
-0.360712
-0.348819
-0.337271
-0.654431
-0.648615
-0.640147
-0.632775
-0.621242
-0.608993
-0.598361
-0.587876
-0.578886
-0.570065
-0.563957
-0.556501
-0.549885
-0.542077
-0.534928
-0.52713
-0.516004
-0.501453
-0.481958
-0.467949
-0.446535
-0.42808
-0.413633
-0.402191
-0.389999
-0.379098
-0.365606
-0.660721
-0.654955
-0.647889
-0.642024
-0.634722
-0.625533
-0.613231
-0.602596
-0.592397
-0.582356
-0.573992
-0.565254
-0.558581
-0.552987
-0.5441
-0.536649
-0.529909
-0.519277
-0.504927
-0.485442
-0.467897
-0.454677
-0.432578
-0.41908
-0.407828
-0.682795
-0.674735
-0.667566
-0.659303
-0.655236
-0.648887
-0.643065
-0.638082
-0.629804
-0.618674
-0.605707
-0.596171
-0.587257
-0.577609
-0.567653
-0.558405
-0.553388
-0.546176
-0.538787
-0.531736
-0.521338
-0.506223
-0.487899
-0.473802
-0.447706
-0.69339
-0.684805
-0.678276
-0.669097
-0.661752
-0.660913
-0.652004
-0.644956
-0.638691
-0.632241
-0.62224
-0.610389
-0.600319
-0.590739
-0.580222
-0.570392
-0.561186
-0.555349
-0.548177
-0.541093
-0.533668
-0.522308
-0.506948
-0.49161
-0.724465
-0.714814
-0.708953
-0.69469
-0.688054
-0.680969
-0.669816
-0.661815
-0.658039
-0.652296
-0.646262
-0.639927
-0.633733
-0.623357
-0.61382
-0.602624
-0.593177
-0.582837
-0.573604
-0.565936
-0.557818
-0.549412
-0.542079
-0.532716
-0.524876
-0.738869
-0.733772
-0.72645
-0.716778
-0.7092
-0.700377
-0.693896
-0.685889
-0.675456
-0.660529
-0.655198
-0.652168
-0.647506
-0.640811
-0.634037
-0.626517
-0.616147
-0.604919
-0.593592
-0.583518
-0.575028
-0.567508
-0.557661
-0.550715
-0.544664
-0.75567
-0.749581
-0.742534
-0.735145
-0.726458
-0.717806
-0.70893
-0.703335
-0.697923
-0.691336
-0.680135
-0.665374
-0.654037
-0.652701
-0.64914
-0.643102
-0.636694
-0.626893
-0.617679
-0.606987
-0.596135
-0.58681
-0.577814
-0.568979
-0.559854
-0.778648
-0.77369
-0.763414
-0.756823
-0.751314
-0.744646
-0.737999
-0.726604
-0.719226
-0.710866
-0.705566
-0.700074
-0.692992
-0.684252
-0.674393
-0.658087
-0.653927
-0.650203
-0.64473
-0.638245
-0.626286
-0.618224
-0.608147
-0.597441
-0.589528
-0.579898
-0.794225
-0.783993
-0.77863
-0.771813
-0.765013
-0.759418
-0.753602
-0.74759
-0.739345
-0.728571
-0.721615
-0.712337
-0.706102
-0.699083
-0.690963
-0.685727
-0.682158
-0.671833
-0.660418
-0.651913
-0.648727
-0.640591
-0.627448
-0.61605
-0.606281
-0.596885
-0.797961
-0.799147
-0.794811
-0.78601
-0.77994
-0.77449
-0.768049
-0.761769
-0.755977
-0.749737
-0.741345
-0.730565
-0.722398
-0.712935
-0.706186
-0.698732
-0.690014
-0.685019
-0.685309
-0.678571
-0.668096
-0.659002
-0.651248
-0.641745
-0.626299
-0.613943
-0.604098
-0.813208
-0.805966
-0.801627
-0.798112
-0.793575
-0.788037
-0.782071
-0.776434
-0.770482
-0.764032
-0.757652
-0.75097
-0.742865
-0.733643
-0.724228
-0.714861
-0.70733
-0.699894
-0.689231
-0.683132
-0.683866
-0.676304
-0.667599
-0.660655
-0.653254
-0.641926
-0.628435
-0.816662
-0.811864
-0.806897
-0.802327
-0.798558
-0.794141
-0.789794
-0.784708
-0.77928
-0.772846
-0.765526
-0.758438
-0.751327
-0.74381
-0.735767
-0.72728
-0.718348
-0.709898
-0.701318
-0.691045
-0.681584
-0.679331
-0.672589
-0.666704
-0.659649
-0.652672
-0.823039
-0.822582
-0.817255
-0.812572
-0.807662
-0.803241
-0.799539
-0.796174
-0.792541
-0.788204
-0.783353
-0.776205
-0.767286
-0.759274
-0.752078
-0.744894
-0.737465
-0.729525
-0.721393
-0.71337
-0.704699
-0.69489
-0.683674
-0.677376
-0.672556
-0.666737
-0.836996
-0.833463
-0.825336
-0.821624
-0.817795
-0.813277
-0.808819
-0.805359
-0.801929
-0.798169
-0.79433
-0.789925
-0.784958
-0.778825
-0.769154
-0.761065
-0.753887
-0.74679
-0.739268
-0.731557
-0.724001
-0.715982
-0.708692
-0.699986
-0.689078
-0.681758
-0.843159
-0.837233
-0.83211
-0.82696
-0.82237
-0.818638
-0.814717
-0.810851
-0.807107
-0.803409
-0.79963
-0.795452
-0.790914
-0.785445
-0.778441
-0.770663
-0.763448
-0.756538
-0.749149
-0.741264
-0.733495
-0.725763
-0.717629
-0.709328
-0.700783
-0.854213
-0.8474
-0.842183
-0.837047
-0.832228
-0.826866
-0.823474
-0.820233
-0.816019
-0.811979
-0.808107
-0.804235
-0.800464
-0.796376
-0.792072
-0.786632
-0.779001
-0.772002
-0.76567
-0.758787
-0.750864
-0.742586
-0.734955
-0.727365
-0.717934
-0.710086
-0.86334
-0.858897
-0.854311
-0.848274
-0.842431
-0.837332
-0.832387
-0.827207
-0.824228
-0.82105
-0.817061
-0.813061
-0.80914
-0.805216
-0.801394
-0.797075
-0.792148
-0.787206
-0.781277
-0.773727
-0.767027
-0.759782
-0.753031
-0.745142
-0.735988
-0.726195
-0.87118
-0.868763
-0.863206
-0.859523
-0.854835
-0.848396
-0.842517
-0.837711
-0.833121
-0.828308
-0.825002
-0.821451
-0.817685
-0.813869
-0.80988
-0.805901
-0.802188
-0.798226
-0.79249
-0.786727
-0.781885
-0.775135
-0.767536
-0.760422
-0.753059
-0.744891
-0.737511
-0.878033
-0.872483
-0.867027
-0.862828
-0.859096
-0.85422
-0.848254
-0.842632
-0.838419
-0.834375
-0.830128
-0.826213
-0.822381
-0.818407
-0.814476
-0.810147
-0.805985
-0.802313
-0.798513
-0.793619
-0.787331
-0.781279
-0.775181
-0.768769
-0.761618
-0.75254
-0.887269
-0.88255
-0.877521
-0.872425
-0.866684
-0.863222
-0.859133
-0.853628
-0.848235
-0.843354
-0.839273
-0.835408
-0.831503
-0.827525
-0.823496
-0.819359
-0.815343
-0.810857
-0.806001
-0.802336
-0.798001
-0.793313
-0.787597
-0.781808
-0.778293
-0.768679
-0.892493
-0.887494
-0.882993
-0.879199
-0.87307
-0.867969
-0.865491
-0.859939
-0.853563
-0.848478
-0.844576
-0.840698
-0.836141
-0.831805
-0.82813
-0.824531
-0.820313
-0.816511
-0.812846
-0.808003
-0.803181
-0.798658
-0.794855
-0.787158
-0.782527
-0.898981
-0.895624
-0.891963
-0.888457
-0.883994
-0.880172
-0.874411
-0.869399
-0.866575
-0.86071
-0.85397
-0.849155
-0.845918
-0.842377
-0.837442
-0.831707
-0.827386
-0.825153
-0.82114
-0.817003
-0.813386
-0.808655
-0.803693
-0.799019
-0.796621
-0.901669
-0.898357
-0.895209
-0.891469
-0.888329
-0.884841
-0.880916
-0.875144
-0.869993
-0.867132
-0.861767
-0.855738
-0.851258
-0.848058
-0.844754
-0.840095
-0.834241
-0.826971
-0.823713
-0.820498
-0.817276
-0.813175
-0.808498
-0.803105
-0.795835
-0.911508
-0.906353
-0.9014
-0.898416
-0.894861
-0.891775
-0.888892
-0.88569
-0.881501
-0.875796
-0.870523
-0.867057
-0.862257
-0.856771
-0.852694
-0.849771
-0.847205
-0.841939
-0.836093
-0.829447
-0.824572
-0.821425
-0.8187
-0.813077
-0.808739
-0.91552
-0.911925
-0.906208
-0.901458
-0.898713
-0.895535
-0.892384
-0.890259
-0.887025
-0.882414
-0.877293
-0.871962
-0.867646
-0.862834
-0.856973
-0.852458
-0.84978
-0.846587
-0.841311
-0.835551
-0.829996
-0.825852
-0.821939
-0.817821
-0.812853
-0.924756
-0.919851
-0.916477
-0.912675
-0.90658
-0.902651
-0.90048
-0.896772
-0.893209
-0.891007
-0.888292
-0.884016
-0.879258
-0.873633
-0.86893
-0.864738
-0.859625
-0.854163
-0.849855
-0.845551
-0.840943
-0.835134
-0.829329
-0.824796
-0.822332
-0.927943
-0.923795
-0.919562
-0.916357
-0.912771
-0.907538
-0.903406
-0.901502
-0.898106
-0.894337
-0.891446
-0.888716
-0.88507
-0.88069
-0.874781
-0.869903
-0.866236
-0.862129
-0.857411
-0.852429
-0.846625
-0.841263
-0.836169
-0.832664
-0.937054
-0.933603
-0.928633
-0.924248
-0.919691
-0.916411
-0.913425
-0.909359
-0.905122
-0.903076
-0.899721
-0.895758
-0.892502
-0.889348
-0.885514
-0.88087
-0.875236
-0.870373
-0.866476
-0.862351
-0.857973
-0.853275
-0.847893
-0.840841
-0.835499
-0.942017
-0.937904
-0.93291
-0.927877
-0.923727
-0.919522
-0.916581
-0.914195
-0.910873
-0.907218
-0.904679
-0.900911
-0.896657
-0.892936
-0.889438
-0.885984
-0.881196
-0.875448
-0.870587
-0.866184
-0.861794
-0.857346
-0.852978
-0.848508
-0.950889
-0.947132
-0.94234
-0.937999
-0.93289
-0.927685
-0.92339
-0.919572
-0.916874
-0.91491
-0.911787
-0.908631
-0.906035
-0.902615
-0.898542
-0.893872
-0.889674
-0.886012
-0.881519
-0.875998
-0.870731
-0.866026
-0.862439
-0.858074
-0.853024
-0.955861
-0.952318
-0.94753
-0.94279
-0.938117
-0.933194
-0.928002
-0.923211
-0.919629
-0.917109
-0.91546
-0.912846
-0.909982
-0.907447
-0.904693
-0.901439
-0.896843
-0.891574
-0.886923
-0.88226
-0.877249
-0.871932
-0.866099
-0.862163
-0.964544
-0.961206
-0.957589
-0.953875
-0.948705
-0.943874
-0.93913
-0.934055
-0.928708
-0.923296
-0.919966
-0.917541
-0.915697
-0.913572
-0.911049
-0.90849
-0.905913
-0.903171
-0.899562
-0.894611
-0.889259
-0.884163
-0.879405
-0.872249
-0.866659
-0.968709
-0.96578
-0.962555
-0.958794
-0.954924
-0.950514
-0.945746
-0.940758
-0.935458
-0.929826
-0.923603
-0.920266
-0.91822
-0.916045
-0.913742
-0.91138
-0.908972
-0.90664
-0.903753
-0.900146
-0.895827
-0.890887
-0.884727
-0.879833
-0.971934
-0.968756
-0.966546
-0.963539
-0.96029
-0.956699
-0.952538
-0.94785
-0.942673
-0.937209
-0.931798
-0.925354
-0.920105
-0.91817
-0.916302
-0.913874
-0.911271
-0.909107
-0.907027
-0.903497
-0.899335
-0.895147
-0.890612
-0.884906
-0.978296
-0.975686
-0.972518
-0.969805
-0.967298
-0.964857
-0.961825
-0.958417
-0.954429
-0.949826
-0.944625
-0.939078
-0.9341
-0.929278
-0.923575
-0.919276
-0.91643
-0.914258
-0.911583
-0.909219
-0.906319
-0.902806
-0.898891
-0.894522
-0.889481
-0.982269
-0.97943
-0.976373
-0.973193
-0.970342
-0.968218
-0.965938
-0.963079
-0.959778
-0.956001
-0.951526
-0.946457
-0.940989
-0.935902
-0.931739
-0.927497
-0.923234
-0.919515
-0.916358
-0.913155
-0.910094
-0.906832
-0.902492
-0.899219
-0.985061
-0.984201
-0.980362
-0.977428
-0.974101
-0.97141
-0.969425
-0.966861
-0.963977
-0.96097
-0.95749
-0.953037
-0.948211
-0.943033
-0.937912
-0.933369
-0.929329
-0.925591
-0.921874
-0.918415
-0.914632
-0.91109
-0.907225
-0.903322
-0.989085
-0.985971
-0.984515
-0.981558
-0.978758
-0.975699
-0.97283
-0.970666
-0.967915
-0.964793
-0.961881
-0.958742
-0.954297
-0.949849
-0.945039
-0.940049
-0.935307
-0.931047
-0.927359
-0.923864
-0.92005
-0.915935
-0.912014
-0.994869
-0.992005
-0.988772
-0.9869
-0.984814
-0.982492
-0.980033
-0.977441
-0.974837
-0.972325
-0.969372
-0.965901
-0.962565
-0.959306
-0.955207
-0.951166
-0.946712
-0.942053
-0.937264
-0.932755
-0.92879
-0.924799
-0.92141
-0.918373
-0.997863
-0.995065
-0.991966
-0.989037
-0.986857
-0.985102
-0.983099
-0.981091
-0.979003
-0.976457
-0.973724
-0.970695
-0.96721
-0.9637
-0.960023
-0.956128
-0.952241
-0.948112
-0.943667
-0.93895
-0.933798
-0.929858
-0.925333
-0.9216
-1.00118
-0.997546
-0.994626
-0.991812
-0.989036
-0.987006
-0.985425
-0.983672
-0.98206
-0.980528
-0.977949
-0.9749
-0.971817
-0.968438
-0.964785
-0.960914
-0.957099
-0.953383
-0.949422
-0.945059
-0.94039
-0.935848