/*--------------------------------*- C++ -*----------------------------------*\
| =========                 |                                                 |
| \\      /  F ield         | OpenFOAM: The Open Source CFD Toolbox           |
|  \\    /   O peration     | Version:  2312                                  |
|   \\  /    A nd           | Website:  www.openfoam.com                      |
|    \\/     M anipulation  |                                                 |
\*---------------------------------------------------------------------------*/
FoamFile
{
    version     2.0;
    format      ascii;
    arch        "LSB;label=64;scalar=64";
    class       volScalarField;
    location    "120";
    object      omega;
}
// * * * * * * * * * * * * * * * * * * * * * * * * * * * * * * * * * * * * * //

dimensions      [0 0 -1 0 0 0 0];

internalField   nonuniform List<scalar> 
404911
(
286.44
221.246
3450.55
1536.67
202.912
226.055
191.799
606.339
344.761
283.602
244.063
325.923
204.394
299.629
442.019
1122.23
264.741
212.507
233.079
367.601
511.425
259.438
704.737
496.608
218.823
978.302
268.229
193.361
253.458
987.512
234.187
191.252
342.058
482.185
236.354
180.136
334.825
432.778
233.812
149.987
246.69
1011.68
222.492
135.604
157.557
395.927
329.069
136.306
157.869
870.092
390.762
297.732
196.003
1343.65
342.1
582.456
9403.06
165.311
318.647
219.121
256.89
156.228
174.114
94.1558
85.8438
149.426
184.527
436.036
129.474
117.159
138.53
53.0038
179.209
102.844
50.4561
599.891
2269.52
237.452
85.0728
186.026
84.4122
198.36
49.2164
134.261
158.259
76.1256
298.206
81.0031
1130.21
243.477
190.606
2966.08
144.007
237.001
147.337
110.294
130.616
228.627
98.9075
228.507
649.771
154.344
130.192
498.333
1283.97
525.949
267.839
710.937
356.545
284.986
225.746
231.08
222.537
237.88
2328.07
557.176
245.058
4586.95
627.607
206.943
207.126
204.281
205.579
287.01
1368.51
354.258
240.836
226.231
203.236
558.292
497.379
543.395
203.624
190.528
198.642
189.304
246.754
260.88
193.378
296.903
1227.45
340.657
224.697
207.336
205.986
198.401
195.203
180.812
530.532
469.991
187.375
178.432
199.719
1816.29
300.573
1024.32
277.381
196.1
184.893
193.948
192.013
194.358
190.274
182.89
175.967
171.965
174.684
177.607
195.562
274.986
424.372
616.937
472.113
438.047
435.212
439.961
528.358
187.569
185.855
175.435
176.329
177.238
189.604
207.113
217.888
219.356
312.498
735.311
485.583
412.353
405.841
286.236
352.539
542.201
461.849
176.662
177.966
175.236
186.85
198.223
208.594
244.644
1208.18
1026.42
277.885
614.561
314.439
269.478
243.132
415.212
413.757
307.504
349.319
427.732
453.116
161.489
180.077
191.434
195.206
224.876
524.34
896.163
626.594
285.155
259.754
197.292
227.681
247.501
255.417
366.328
389.143
389.653
276.727
144.786
185.876
195.58
220.609
320.999
1248.73
1253.58
302.925
145.494
209.606
187.835
174.683
172.365
202.593
411.988
294.729
224.369
203.175
221.447
291.883
483.997
187.805
233.534
1149.87
481.558
179.279
125.924
268.147
194.77
177.574
171.776
184.693
177.749
186.143
160.897
198.788
248.38
382.002
466.597
552.3
447.306
498.29
223.144
167.492
433.878
220.498
177.265
190.533
170.966
177.349
189.84
170.318
173.923
331.353
358.927
442.235
491.954
1726.47
379.174
194.201
169.97
152.472
160.858
173.348
183.54
163.65
172.55
166.885
174.439
181.23
193.578
435.748
389.906
452.207
261.287
1061.49
1013.82
916.788
316.333
257.366
143.181
130.119
187.824
158.873
179.69
177.838
177.444
168.233
166.121
184.988
238.806
354.792
198.054
565.624
1142.69
270.276
161.158
163.149
169.707
169.905
173.624
118.738
182.132
152.506
184.992
146.93
136.708
157.558
163.528
216.874
552.022
275.593
490.518
173.916
126.671
130.123
134.747
238.019
156.988
165.074
111.544
134.714
112.722
119.722
150.964
120.735
156.121
237.087
202.1
1032.1
1173.5
281.87
160.986
132.051
119.168
114.117
143.799
137.249
114.233
108.923
102.363
144.555
144.81
161.875
131.909
149.338
392.84
932.174
370.64
158.385
131.776
194.284
210.02
133.924
138.438
133.092
105.116
97.9921
101.635
118.787
142.203
155.344
183.752
154.733
308.94
756.576
1142.29
927.039
332.884
193.816
172.264
172.183
163.226
121.266
136.439
116.387
109.473
108.83
114.146
131.488
179.081
171.202
168.528
475.393
463.27
186.268
163.687
151.53
143.695
135.525
122.853
174.263
126.711
171.359
131.311
129.546
126.206
144.24
134.102
157.759
309.171
1012.12
207.593
138.554
166.39
122.977
122.472
127.931
110.964
121.628
134.951
149.431
171.421
173.1
152.279
144.516
202.265
177.77
349.188
457.786
155.611
183.84
155.099
118.751
113.525
127.652
107.997
92.1756
113.588
172.961
153.163
150.093
173.976
165.813
208.577
200.276
1042.11
270.235
130.618
122.225
107.567
108.032
106.919
114.883
138.741
82.9774
81.3416
99.037
131.368
154.79
177.418
233.984
187.27
316.336
1237.2
484.075
189.999
133.752
118.02
108.06
100.217
107.19
110.371
93.5733
89.904
81.3861
93.4904
107.944
121.108
210.143
128.808
206.115
1055.45
1150.68
248.806
131.687
166.458
125.253
111.253
103.095
97.7793
94.3493
103.268
87.1322
96.5143
124.659
122.505
127.496
134.074
173.564
324.64
442.226
160.122
127.228
112.674
107.078
104.311
101.44
105.824
109.55
87.2599
88.2896
98.2611
122.808
150.614
170.7
163.159
201.575
1047.77
1154.25
237.562
123.094
114.244
104.084
99.9124
97.1085
96.406
96.0111
101.155
113.627
105.93
108.791
114.93
133.832
151.042
193.959
297.747
923.166
162.258
128.521
111.616
100.597
96.0165
91.1794
90.1793
90.823
92.0136
91.6164
100.306
104.816
111.188
122.314
150.136
216.378
350.911
287.39
134.314
149.713
120.921
104.171
94.4714
90.7963
85.817
82.6118
85.8142
91.0362
98.0233
106.225
111.841
134.83
150.946
183.49
538.152
264.47
153.387
149.782
120.41
108.123
96.199
95.4534
87.2689
80.5137
80.5116
87.1917
97.1705
106.991
124.862
127.732
142.264
271.688
1157.04
1200.83
201.118
127.999
133.16
119.908
109.382
100.969
95.7166
101.499
85.4175
81.4539
86.9766
97.3685
107.996
120.205
166.724
183.743
490.069
967.273
182.896
128.781
110.386
104.719
102.441
97.926
90.5512
86.504
93.7194
90.6742
89.4704
96.9321
109.768
119.164
149.845
191.575
1105.05
312.159
156.763
134.753
116.5
109.052
106.245
100.805
91.5147
81.9575
77.2592
80.6761
89.2748
100.053
107.274
140.884
130.797
200.332
1141.74
295.787
138.084
115.787
108.156
103.568
108.67
111.379
83.0705
83.4146
83.6836
87.8254
94.8807
104.34
113.675
123.919
141.864
294.07
1066.43
217.124
134.507
117.463
105.682
100.09
94.0647
103.699
100.453
71.2849
76.0985
88.1637
96.7175
105.265
115.472
139.733
166.216
475.326
458.159
164.052
163.53
152.384
113.301
102.158
92.6193
79.265
99.5859
83.0065
62.2541
80.9943
100.034
105.479
115.422
137.84
185.315
1039.77
302.079
140.081
114.664
107.334
99.9998
101.018
107.272
87.9082
83.9674
66.8356
89.4463
82.3994
98.3444
106.084
111.72
146.732
236.505
1174.19
1086.67
201.743
130.973
119.191
105.659
99.3338
91.6815
101.701
98.6309
86.9058
79.6962
62.041
91.4669
103.736
105.747
120.658
131.766
266.561
1079.93
189.94
125.972
109.156
100.37
95.2137
91.2283
86.8339
98.412
97.3681
90.472
76.9786
75.791
94.476
106.839
115.702
146.253
445.485
1061.66
186.991
126.166
106.678
100.814
94.2538
88.0848
84.9039
83.0669
81.6574
75.688
85.6594
71.8203
97.7376
116.762
138.719
162.817
935.126
1055.44
181.1
124.542
105.588
98.5554
94.8995
88.0166
82.4081
81.7727
83.2217
71.2574
70.144
85.8663
101.302
119.845
157.391
225.791
1163.84
295.234
158.679
128.482
108.079
97.9569
91.395
85.9821
80.6105
77.3677
79.8156
79.6839
73.4124
84.7302
103.64
116.634
151.139
250.369
1184.82
271.225
135.741
115.449
106.26
96.608
88.2711
80.6845
76.7323
78.0627
74.5868
80.7294
89.9013
90.2199
107.771
110.331
149.197
245.222
1138.06
188.735
139.034
136.687
107.439
98.7023
88.9721
80.6251
73.9067
74.0524
77.8277
79.1673
83.3708
97.0727
110.044
125.665
136.353
261.978
1016.51
186.148
126.556
105.585
99.6012
94.8868
89.1449
85.2091
87.5499
79.8696
76.2906
78.4031
85.5974
93.3302
102.153
123.91
131.974
276.817
1085.83
187.478
126.245
106.981
98.3719
94.8428
88.1304
81.387
78.9684
89.4698
88.9937
78.8298
83.5367
93.219
101.212
123.264
139.624
296.297
1083.21
190.878
129.343
107.517
98.7984
92.4147
85.1007
76.9356
73.072
69.3188
71.1429
76.1818
85.9307
93.8494
104.356
118.292
153.37
449.14
1012.48
179.663
126.117
107.3
97.7172
89.6973
79.0586
70.2884
63.8242
64.9756
68.7921
78.203
88.7253
97.0353
104.898
127.555
181.075
1024.93
306.452
173.736
124.126
108.102
97.5515
86.1279
74.5814
62.9386
56.4968
54.9992
64.6555
77.4706
88.8462
98.0385
105.948
122.93
181.739
1106.75
310.527
167.694
120.218
108.984
101.675
82.1859
74.0436
62.3887
53.3653
46.922
54.386
76.7602
90.2539
96.6698
106.556
126.368
179.286
1069.19
1196.97
217.781
160.755
123.507
104.84
103.391
95.9936
62.8215
67.545
52.1695
52.2221
49.2659
64.6425
92.6494
99.0535
105.177
134.883
193.579
1054.95
1078.78
178.114
124.323
175.387
120.472
98.3114
96.532
89.9389
64.6151
53.9329
48.8545
47.3963
75.5111
104.152
105.302
109.388
128.566
241.247
182.021
120.385
104.241
99.1646
95.9756
91.2128
77.8328
71.2618
60.4613
58.5618
46.3124
72.6791
89.7582
103.495
122.671
127.299
254.071
1003.46
178.181
117.22
98.9779
95.5002
94.8549
93.3596
86.426
71.3887
78.8418
51.8389
42.2785
59.3873
95.7106
103.219
132.012
136.635
298.829
1039.3
166.507
113.173
96.5264
94.8745
95.1124
91.1319
90.4141
83.4048
64.2
68.9459
53.1072
68.7508
99.6921
101.4
125.146
143.156
450.638
1140.11
164.591
116.89
100.532
95.8497
94.3543
90.0642
86.4263
87.7096
76.891
58.8664
76.5187
94.4745
98.7408
106.008
115.316
150.62
876.554
153.53
136.09
114.616
99.8335
92.2395
91.2227
85.9393
83.7
83.8673
64.7354
75.3791
84.6819
91.4911
105.009
128.268
174.091
979.59
756.795
229.137
116.314
97.9658
89.6215
85.6862
87.4165
81.9764
72.5569
70.3237
66.1396
87.3836
91.8832
100.704
133.845
179.968
1078.06
2193.34
297.08
162.84
136.803
91.8504
81.6383
80.9922
79.0717
82.4086
78.6195
78.1688
80.4704
91.4594
94.4251
104.001
127.597
201.486
1127.22
281.437
133.693
121.736
99.4867
78.1037
71.9175
72.4392
71.6011
80.2735
82.8276
70.2584
73.2215
89.0834
93.1923
107.318
133.388
271.854
262.005
129.297
112.968
86.8232
67.8863
63.37
63.8742
74.0493
66.2689
82.5371
64.3248
72.7903
92.5659
96.7079
109
137.297
290.664
1192.85
226.031
129.865
114.764
100.945
79.4976
77.3346
65.3299
52.9559
70.527
61.6182
59.6266
79.8787
100.695
110.722
121.966
155.765
868.748
966.607
172.387
128.434
104.519
95.7883
79.4387
147.085
141.352
65.7001
44.4003
64.1607
73.0756
85.4532
104.892
127.835
149.38
165.893
998.57
839.538
134.672
225.358
151.66
99.3058
58.4688
74.2816
102.653
174.715
82.6228
51.7256
76.4814
104.699
122.661
143.985
176.904
173.053
1014.94
448.837
126.062
133.838
117.122
90.0481
53.9382
75.2858
68.6921
84.7762
99.4496
70.1029
92.525
112.43
120.389
135.317
193.609
183.592
1060.9
1042.27
239.72
124.697
128.027
124.772
94.1686
46.8897
51.9585
82.2075
102.1
71.3781
96.0131
111.507
114.032
109.375
127.412
157.825
323.426
1074.83
938.156
151.949
166.717
124.055
119.391
94.1708
43.6612
22.2687
31.1236
53.2268
62.959
87.0201
94.739
99.233
106.086
113.589
131.158
203.758
1110.35
229.31
143.188
121.039
117.46
78.3409
44.5343
25.5418
21.4763
33.1697
47.227
77.5632
93.8043
99.7586
106.772
122.782
132.529
261.699
1235.9
265.097
142.395
142.386
128.358
81.1408
32.1957
51.9027
61.1963
32.6307
44.0173
64.3059
98.6162
102.995
108.508
124.273
143.275
304.44
270.774
152.678
156.04
140.431
97.5021
29.4677
25.1871
49.8392
47.2318
44.8746
78.3579
105.652
107.12
110.631
129.868
150.031
460.4
238.456
241.888
177.353
148.626
104.429
24.9301
17.7761
23.0027
36.4122
51.1214
71.8935
111.839
112.131
118.439
126.348
158.003
911.317
990.243
170.124
152.812
146.523
140.875
99.3092
35.13
19.0921
23.7719
38.6066
68.9643
102.253
120.476
121.401
121.233
151.557
194.281
1016.81
942.038
177.553
161.465
141.346
133.88
96.9599
28.9471
22.7522
27.0679
43.2203
72.1876
111.286
121.097
120.644
132.605
134.739
280.269
879.039
151.657
120.332
118.355
124.478
99.4107
43.4887
24.9039
30.9983
50.7745
82.7127
117.759
112.861
114.423
132.408
143.994
319.858
891.832
148.939
119.905
114.707
119.85
97.2613
34.0149
29.3723
43.3059
64.9106
87.9966
115.86
112.508
110.62
129.082
153.007
322.022
906.748
152.604
123.958
116.132
113.411
95.3753
35.9133
30.6839
38.3628
60.8519
89.9642
112.34
107.789
109.878
122.163
161.93
909.494
922.774
155.386
136.969
129.219
122.226
76.4136
54.455
35.7862
41.8445
58.9793
86.9048
110.233
104.293
109.861
125.068
187.377
1013.64
307.004
159.626
176.42
158.761
111.361
95.5182
146.749
130.545
64.7235
57.505
77.1076
97.8307
102.813
107.16
137.123
189.809
1085.26
362.173
354.219
178.951
127.495
53.7448
52.1002
83.5597
170.303
79.667
73.3028
105.514
110.099
123.445
135.149
232.507
1213.65
351.817
218.611
176.484
163.17
55.1426
39.3939
57.7796
90.9732
112.519
114.476
136.871
118.334
130.603
131.805
276.453
328.029
222.194
193.076
178.336
160.079
94.9657
54.849
71.3678
96.5521
134.662
138.431
120.637
129.462
128.802
135.395
301.528
353.548
158.046
157.226
182.704
186.353
147.108
81.5467
101.449
150.104
162.029
150.469
155.349
139.669
183.016
165.412
871.969
358.376
165.749
165.385
173.984
189.367
202.061
127.027
148.005
161.439
168.806
163.484
170.728
173.839
213.295
191.699
1066.63
1245.99
326.515
189.877
147.409
183.332
197.685
177.032
187.519
148.612
180.402
179.184
166.251
149.073
203.167
246.847
489.924
1287.45
238.046
154.638
173.522
143.246
224.772
206.405
159.53
116.738
155.91
159.571
156.951
166.514
187.994
288.59
254.409
1034.15
222.039
168.369
141.112
132.12
163.868
196.062
286.776
176.544
156.282
170.964
173.066
175.676
190.167
296.598
844.319
312.67
167.443
575.597
301.158
191.913
132.942
158.091
122.85
142.045
162.192
154.747
140.273
153.895
196.661
326.032
4151.24
316.677
567.116
267.033
196.413
174.635
147.276
141.126
183.347
161.782
156.39
171.792
171.777
168.788
207.751
324.147
840.081
1086.13
648.832
327.962
192.052
162.337
148.956
112.801
124.003
162.248
163.552
190.033
200.488
224.412
220.53
359.391
1209.73
208.021
454.126
232.727
156.486
124.957
108.454
130.578
146.354
160.22
173.61
189.431
149.195
216.349
262.56
1483.74
1201.99
230.016
170.573
322.917
220.727
168.834
116.417
102.429
148.172
160.841
178.966
183.962
182.322
176.255
352.956
1303.35
592.484
220.424
180.161
487.868
310.943
190.395
138.387
139.223
148.787
159.903
174.265
241.297
151.987
190.674
360.252
1159.58
561.163
484.545
353.057
241.118
155.284
136.62
130.568
168.455
170.93
236.596
174.439
247.653
1189.53
739.092
533.091
457.531
379.845
237.064
268.773
149.497
135.535
166.121
222.04
148.02
186.978
337.877
1191.8
217.889
176.401
502.297
387.225
179.294
248.402
257.776
156.911
185.058
213.752
172.967
218.784
547.789
1232.85
221.749
183.824
503.766
432.15
243.309
217.003
319.687
283.81
288.37
340.385
183.339
234.892
1229.02
1141.82
210.021
549.851
493.157
477.426
329.508
221.511
214.1
220.724
303.734
486.408
186.999
242.638
1315.75
1213.25
209.034
551.249
483.699
486.298
452.637
226.305
225.154
201.114
280.639
498.587
192.712
328.953
1366.82
1177.71
228.393
181.646
505.812
457.83
490.075
317.749
190.745
210.634
329.059
184.033
211.068
337.292
1482.11
1480.55
1181.88
200.003
178.959
480.219
472.987
597.72
317.023
260.737
368.132
533.405
216.956
359.416
189.755
526.566
468.664
480.654
174.009
540.17
553.447
575.974
539.47
193.143
172.204
488.155
576.855
204.089
228.616
308.797
1217.04
6337.9
609.302
176.405
521.965
568.426
244.959
411.024
2836.45
2143.43
529.599
819.338
232.445
265.771
1226.2
513.531
819.155
239.22
257.605
625.783
855.124
630.548
292.814
237.96
283.89
1224.51
1192.68
293.602
1936.92
809.486
549.128
364.889
213.544
196.576
221.942
216.148
677.43
307.985
214.4
380.636
706.483
1551.65
1363.46
6488.91
528.392
1537.14
616.355
583.165
1458.5
648.463
441.255
336.723
320.573
298.07
276.917
265.552
351.418
1497.14
667.045
434.23
324.563
307.077
284.338
270.092
266.768
272.098
268.666
263.196
249.826
252.058
258.091
250.013
1373.67
611.889
337.548
303.381
276.876
271.34
264.748
257.749
259.959
258.574
259.77
246.858
236.868
243.676
256.922
256.293
262.1
260.915
268.25
364.808
435.117
908.208
1018.64
549.358
301.469
270.561
265.833
254.105
248.728
248.8
245.781
242.873
242.521
245.444
251.198
231.666
613.304
608.044
260.535
270.733
253.779
263.852
262.863
292.899
643.141
571.261
334.163
261.061
241.083
219.313
208.795
216.52
225.148
231.11
229.029
228.081
223.1
231.388
230.035
236.12
239.352
224.58
565.499
610.607
234.472
259.414
264.881
281.146
320.488
1340.57
437.958
207.251
164.325
157.793
198.67
211.826
458.458
679.747
840.732
195.363
214.832
220.486
205.284
194.468
199.581
222.57
229.759
219.992
208.172
535.306
593.497
241.797
270.335
316.908
665.292
1551.87
405.279
296.987
259.885
207.183
203.926
197.927
220.784
243.087
240.381
234.158
448.336
192.882
210.621
248.829
223.61
680.564
203.182
227.511
239.851
243.024
609.103
610.428
289.872
641.109
1306.07
332.85
343.943
280.51
205.159
186.773
196.789
213.673
205.466
187.723
283.732
232.391
226.311
226.405
329.232
508.852
191.391
220.773
557.375
225.952
241.988
245.628
254.732
288.364
587.691
441.825
1394.01
336.683
256.063
222.678
228.924
161.186
164.226
173.481
188.29
207.166
191.798
155.831
260.045
230.626
227.836
227.215
213.775
193.526
171.439
217.853
198.968
248.139
271.835
392.496
651.542
1107.03
410.006
188.583
181.818
216.957
189.638
195.245
160.227
151.209
142.099
181.287
183.469
173.7
160.216
154.438
157.669
157.389
161.617
205.628
191.59
248.659
215.593
223.876
233.034
266.724
586.131
1203.88
231.252
148.716
220.11
198.574
174.472
186.638
157.677
168.763
171.083
173.392
165.144
156.058
161.425
192.232
138.481
156.444
164.201
170.465
178.359
298.62
187.051
622.407
599.862
734.314
4664.51
793.731
1406.43
311.032
212.264
169.245
163.383
156.484
181.709
207.795
178.443
167.997
174.385
173.583
161.691
188.514
194.716
172.161
154.969
178.695
179.233
177.525
177.111
160.03
609.743
1732.52
1316.6
350.123
210.729
162.49
149.636
156.883
158.128
141.249
116.204
115.465
202.922
171.076
167.772
137.88
216.811
210.78
201.711
200.811
221.003
201.222
185.721
145.406
222.208
484.026
475.782
200.905
194.785
206.238
182.641
144.413
133.923
139.214
156.321
135.914
119.26
110.342
117.601
99.7446
136.036
128.149
126.475
197.24
202.377
220.136
266.261
243.135
143.27
212.071
501.184
449.681
203.649
162.254
172.474
147.536
141.064
134.543
135.979
132.304
136.931
145.159
137.194
125.308
108.92
107.887
125.046
138.784
166.904
181.402
224.848
254.249
263.314
424.997
199.698
487.739
414.391
177.649
196.125
180.825
152.001
140.023
137.341
132.719
130.832
125.276
126.825
130.731
129.212
137.935
108.058
105.509
123.116
139.928
172.195
189.431
239.829
290.14
292.152
419.436
874.903
1198.36
404.996
176.042
178.016
150.786
145.05
143.179
144.025
138.942
124.987
114.538
101.067
102.833
112.606
130.275
133.604
125.894
133.499
127.47
126.05
138.766
161.608
229.256
264.919
401.777
421.037
1177.87
398.339
165.613
171.945
146.884
139.908
138.9
139.468
139.168
137.668
107.587
78.4223
77.2353
79.5215
84.4512
105.792
109.056
124.291
134.739
147.441
132.099
148.295
157.601
192.726
386.854
463.003
1063.08
274.773
160.124
180.549
148.773
137.566
133.985
127.565
123.283
117.894
112.519
104.19
73.4567
74.7518
75.4193
84.2399
94.2004
95.6502
89.4443
106.26
134.484
132.539
144.892
171.97
229.79
337.06
1383.45
1268.26
292.047
154.611
143.336
135.922
134.322
132.852
117.468
100.119
88.1041
83.9561
84.2065
83.4675
82.19
78.7931
83.331
86.9774
105.703
119.316
125.918
107.696
144.197
155.756
182.71
222.509
206.593
1578.11
430.412
163.338
183.303
146.058
134.682
133.484
121.346
90.4563
66.5557
62.7443
62.6897
64.2394
68.7585
74.1656
77.4328
83.06
94.1969
109.408
123.006
132.922
143.963
159.906
184.232
229.447
200.071
467.624
478.764
199.28
152.806
137.672
131.183
131.791
126.614
109.866
52.7907
45.7823
46.4528
49.6443
54.4021
61.1991
71.8016
82.4773
94.5006
108.231
121.503
128.315
130.47
139.613
149.263
188.575
194.675
475.222
1035.79
252.507
152.235
154.083
134.429
130.458
130.529
116.559
63.0155
41.449
32.9644
34.6605
38.3739
45.1838
54.8852
67.0486
84.4896
102.425
118.021
129.679
135.89
141.413
151.851
167.935
164.684
418.821
422.75
163.258
144.83
129.541
125.303
121.308
110.288
62.2707
38.2219
31.1168
28.247
28.5142
31.9154
36.632
45.3705
55.7383
74.4836
101.305
119.812
132.359
137.803
142.27
171.448
216.5
300.792
475.849
182.083
183.279
145.51
128.999
121.54
116.398
73.5916
39.4944
28.3575
25.1499
24.5926
25.2668
26.9847
30.2768
36.9564
47.6692
64.2671
95.7233
120.375
132.591
139.98
145.446
160.64
183.438
859.05
966.591
233.247
150.256
152.801
131.025
122.626
112.988
102.287
59.9077
37.7922
29.1128
24.9854
23.9361
24.6069
27.1823
30.2849
34.6513
44.1112
62.4404
104.708
123.563
135.393
149.473
158.965
163.025
427.876
962.835
242.475
153.328
157.64
132.136
123.591
112.972
96.3615
74.5737
48.5126
36.7884
34.9204
28.8335
26.3985
25.9038
29.2271
35.4344
44.1476
65.4234
114.113
133.299
140.728
146.153
174.013
213.405
273.861
1130.48
417.61
174.409
155.868
129.509
125.713
118.884
101.211
79.9781
54.1036
35.6026
31.4495
35.342
41.1436
33.5339
31.9201
35.659
48.99
75.1948
112.321
132.659
140.529
149.866
175.086
215.434
251.425
965.031
805.087
204.875
184.055
139.792
123.819
118.907
109.078
89.7898
73.2107
46.2339
31.0531
30.9639
39.9042
47.8417
47.5232
41.7011
42.8021
65.4275
107.261
125.803
131.054
138.947
180.013
213.488
246.593
951.338
256.617
151.973
132.073
121.351
117.183
116.752
96.8775
61.0629
61.505
46.3487
34.1122
32.0399
42.4051
59.2217
60.8221
50.7346
57.8773
93.7858
117.735
123.906
131.34
146.801
169.402
226.138
943.35
796.439
163.494
140.306
122.771
116.548
109.23
101.104
94.2186
57.1692
46.602
50.0278
44.4553
38.913
44.4427
59.451
74.8019
84.5012
86.8209
110.03
119.556
129.27
142.867
172.105
216.789
409.52
264.709
151.344
129.425
119.718
110.099
94.1936
76.7075
62.8812
54.2734
39.661
39.501
42.2036
41.3648
42.062
50.8953
74.9912
89.6853
105.645
118.047
129.164
133.582
161.821
210.926
257.169
986.795
958.441
204.742
139.577
121.438
117.395
104.082
77.6592
53.4291
43.5891
38.4379
34.2533
32.1128
36.0437
41.5905
46.8532
52.4411
69.3528
95.9989
107.103
119.778
131.766
144.173
155.896
173.934
890.087
338.978
167.646
149.079
124.579
114.859
97.0644
58.5779
41.7331
32.8594
29.1963
28.5654
30.3559
35.7424
47.6624
65.0008
85.7866
97.5671
113.227
116.552
120.59
133.674
151.325
193.714
281.182
1259.24
742.935
151.56
133.04
118.115
110.551
109.907
86.7812
42.3676
30.8223
25.5433
23.7012
23.9392
26.7062
33.6466
45.4687
63.1339
87.4767
103.912
114.103
121.748
125.608
133.568
177.654
242.27
942.492
217.293
173.858
129.746
116.378
107.229
98.3026
92.7039
59.1872
30.2406
23.9726
22.6437
22.5657
24.0289
28.4816
38.1796
53.0118
75.3201
101.603
117.563
126.501
138.635
155.133
152.102
430.049
722.293
152.564
129.318
113.385
108.157
102.272
92.8089
81.3518
66.525
41.6683
25.7782
23.7714
25.0866
25.0084
26.8706
34.215
48.9683
71.9492
100.574
118.978
129.494
140.245
185.798
241.009
1036.56
245.43
142.493
120.169
112.028
105.888
96.6933
85.503
66.4493
51.9277
40.7075
29.2466
24.2818
26.707
31.0982
33.2121
35.1491
51.6081
86.122
106.141
121.723
133.017
157.754
189.318
415.909
727.155
149.592
128.464
116.176
108.772
99.3975
87.8693
72.8694
54.664
38.0344
32.291
27.2464
25.0985
27.8044
36.4962
51.4408
62.9079
74.6601
99.6583
122.137
130.354
141.221
151.865
183.649
936.248
242.408
138.846
118.226
110.23
105.445
94.086
79.0739
65.4439
50.1635
37.7764
26.7189
24.4044
23.7743
27.2035
36.994
53.6047
79.9963
98.5444
112.306
127.331
136.2
159.371
196.978
282.528
742.412
148.75
126.283
111.059
105.96
96.5309
83.209
71.5179
61.3499
47.9298
37.0033
29.1949
24.4771
23.9623
26.4517
35.1578
50.3445
70.7327
97.2036
117.468
128.849
143.652
152.232
168.946
889.392
249.934
133.514
114.099
107.422
102.231
89.7623
70.5736
57.6707
53.9259
49.0529
39.2407
30.1466
26.3349
27.11
32.4796
45.0549
62.1728
81.0455
99.4102
117.904
129.676
139.449
203.468
268.499
209.741
168.611
120.213
106.641
99.1103
85.2643
62.2401
48.4787
44.5171
45.1709
43.8051
39.0311
33.453
33.1322
40.4708
56.336
82.6575
96.3608
107.139
119.861
137.435
160.903
148.803
739.411
771.575
145.067
125.289
109.629
102.567
96.2522
81.6948
57.0042
42.5861
37.497
37.7821
41.1285
43.4592
44.3397
46.7089
53.156
65.9547
83.0323
97.5416
109.146
118.677
137.213
205.468
234.33
1032.89
738.66
161.251
121.64
106.751
101.308
95.8951
81.0315
53.579
39.2093
33.089
32.1879
34.6491
39.855
46.436
53.039
61.8351
72.6542
84.9455
96.7582
107.397
116.838
130.798
207.541
678.298
368.615
153.758
119.866
106.3
99.3093
94.0425
82.5522
54.0405
38.5019
30.9533
28.0631
29.5438
33.7526
40.6247
50.2131
62.8495
78.5606
91.2358
103.909
111.857
121.828
140.983
184.325
815.859
212.173
173.824
125.229
107.713
95.7265
85.5307
78.1752
61.0315
42.83
32.7745
27.0774
25.7038
29.7518
36.9021
46.9559
59.5012
76.5471
95.6506
110.421
119.111
123.354
170.745
246.658
741.053
173.823
146.07
113.871
105.504
93.3728
75.8758
62.092
54.2553
45.7108
36.3573
30.7443
27.6993
28.9085
35.8052
46.5963
60.5035
78.4048
95.346
110.639
118.271
147.304
145.43
751.736
380.788
148.947
117.056
105.682
99.8797
90.3126
71.9047
53.6516
43.935
38.1021
35.0051
32.5379
31.9843
33.8312
39.4529
49.7743
62.6592
81.5473
97.301
106.638
118.837
137.615
189.34
999.621
204.002
171.889
122.885
106.439
96.8618
84.0277
66.9293
49.8676
40.8028
30.8053
28.7689
30.1444
32.8246
37.6333
45.0724
54.8647
68.6457
85.4529
101.068
108.511
118.347
148.684
236.464
774.453
148.236
124.769
107.821
102.363
93.8989
80.9571
62.7436
45.5635
35.4246
28.6467
24.1983
25.1331
29.2171
35.7688
45.5525
57.2486
73.7271
90.5142
103.767
112.997
119.09
158.387
385.329
374.401
144.982
114.486
106.915
99.4604
90.4186
79.6828
62.3748
42.5059
30.1085
24.6731
22.2089
21.4402
24.1685
30.5257
41.1446
54.6845
73.6282
93.9367
104.869
112.561
141.285
141.769
727.811
259.572
130.6
111.202
103.89
96.1456
84.8577
73.0641
59.729
43.1307
27.8492
20.4965
18.9443
19.6493
21.7836
26.9138
37.512
53.5146
75.5969
94.7393
105.366
112.156
141.998
192.824
1011.94
218.046
172.742
121.108
105.59
94.0741
80.6349
68.5966
56.4139
44.5846
32.4338
20.8234
16.6562
16.9803
20.238
27.0673
40.5974
56.1222
80.7775
98.727
106.638
120.832
134.997
209.374
939.89
153.162
119.889
108.943
104.863
91.9103
73.8715
60.9926
53.2429
45.3056
35.946
26.5849
18.917
16.0072
17.6912
24.2581
38.2573
58.258
85.3817
102.892
111.877
119.706
171.467
369.817
749.263
142.178
125.204
109.243
104.932
94.167
74.1082
55.4171
45.2034
41.7774
37.4797
30.5545
23.7905
19.0802
17.6304
22.143
36.0527
61.8222
88.7783
103.965
112.454
141.598
149.541
773.312
696.276
152.97
117.95
108.507
103.304
93.1137
75.0118
54.8222
43.0905
36.6684
34.7161
31.0999
26.0135
21.8595
21.1755
24.4517
37.8665
67.8332
91.681
104.299
119.812
129.584
207.869
260.219
128.025
108.065
102.145
99.5786
90.8887
72.896
53.0594
41.5561
34.4707
33.0814
31.7891
27.2275
22.5536
21.9883
27.6698
43.5191
71.5148
92.0803
104.526
121.894
170.421
256.982
251.078
128.3
108.623
103.704
97.8835
87.5837
70.6953
50.5683
38.6673
32.2302
30.8369
32.2401
32.722
30.4648
27.6916
32.8683
48.2704
73.4691
92.1758
105.962
118.12
177.148
675.6
220.428
174.169
120.634
104.015
95.3736
85.6399
70.8896
51.5142
37.2973
29.3073
27.4811
29.6559
33.9481
38.3121
43.0505
50.6548
64.8095
79.4406
91.8272
103.943
137.567
168.367
708.382
217.596
134.196
109.759
102.326
93.334
80.7029
67.4753
52.7311
39.5376
29.0944
24.4936
24.8766
29.1559
35.8693
44.862
55.8075
69.3364
81.6179
92.087
104.557
124.437
179.696
841.565
206.904
130.627
108.465
101.649
91.6828
77.0615
61.5542
50.5064
40.4614
31.9587
26.7038
24.5098
26.4008
31.2591
39.3408
51.3578
67.8796
82.7595
93.4481
103.543
129.413
147.573
942.101
910.44
157.724
123.772
108.01
101.834
90.5206
72.6984
56.0751
46.0791
37.5469
31.7915
29.1983
28.3023
29.2794
33.2125
40.0961
51.0359
67.419
84.5085
96.2783
103.957
125.637
186.307
724.337
168.229
145.033
112.234
101.522
89.1947
68.8539
50.1872
40.6514
33.1231
28.3398
27.0068
28.3806
31.5961
37.2966
45.2362
55.613
70.2896
86.7813
98.8374
104.04
127.251
195.383
716.119
153.507
113.371
101.64
96.3747
86.1266
65.5742
45.3543
34.8243
28.5939
24.7727
23.3376
24.5857
28.6493
35.6897
46.0601
58.2465
73.4549
87.7871
99.0627
110.31
119.103
203.438
373.382
141.344
109.735
100.151
93.9489
83.3277
67.1382
43.6824
29.6662
24.6374
21.5785
20.0135
20.4723
23.672
30.6985
41.6592
56.0044
75.0889
89.92
99.3051
109.68
144.698
253.276
255.313
124.437
103.761
97.3369
92.0637
82.7517
68.795
49.3105
28.4706
20.503
18.1692
16.9139
17.054
19.7411
25.9629
37.9378
53.7489
74.4041
89.7338
98.5879
110.948
145.943
638.759
258.596
125.458
103.772
95.0519
89.2278
81.5865
70.8262
52.6579
35.9117
20.5145
14.7961
13.6154
14.126
17.1296
24.5268
38.3946
53.578
75.1662
90.4851
97.8405
110.179
150.182
676.56
220.503
127.586
106.35
95.1515
86.5253
76.503
65.9802
53.7612
40.5743
27.5586
17.3473
11.9205
11.8203
14.9185
22.4771
36.7476
54.044
78.125
93.1118
102.205
108.533
150.639
706.944
206.574
129.738
102.975
92.8153
83.17
70.0979
56.7599
48.9556
42.0286
32.5319
23.3141
15.8377
11.6809
13.6351
21.1167
36.2821
54.0865
79.5194
94.5431
105.272
125.867
139.494
777.149
213.859
132.166
102.077
90.889
78.7414
61.5839
49.6153
42.5838
37.182
32.9594
27.2198
21.4568
17.0313
16.2949
23.2298
38.9824
57.3007
80.7831
96.029
105.503
132.516
183.261
969.777
205.842
140.193
108.985
91.9497
73.8989
51.7502
43.4555
38.4025
33.4732
28.1987
24.4685
22.2107
22.3907
25.1974
33.6122
47.0339
63.6219
81.0597
95.1057
106.322
135.539
196.366
907.617
151.039
129.293
117.844
96.3426
67.9285
44.1089
37.8809
34.4696
31.2884
26.7965
22.2089
19.2844
20.5825
26.925
38.762
53.0738
70.2869
84.6194
94.6013
103.902
136.059
199.178
723.912
173.269
136.389
107.819
96.7294
60.1598
37.3946
33.641
31.5509
29.3797
26.6106
22.936
19.9744
18.8642
24.1762
36.3974
53.0922
73.2832
87.2738
96.3619
101.694
129.964
205.259
732.752
159.045
117.459
100.976
94.0541
77.1045
38.2956
30.5005
29.4895
27.9758
25.3427
22.8056
21.1946
21.5698
24.2935
34.6544
51.1983
73.819
88.6655
97.1914
107.73
126.609
194.709
389.981
148.757
113.916
100.812
91.9173
76.4527
50.2801
31.5677
27.5928
26.9051
24.5928
21.275
19.3072
20.5102
25.8305
35.892
51.9199
76.8766
90.7744
97.5538
110.247
142.744
230.91
251.523
132.233
112.251