/*--------------------------------*- C++ -*----------------------------------*\
| =========                 |                                                 |
| \\      /  F ield         | OpenFOAM: The Open Source CFD Toolbox           |
|  \\    /   O peration     | Version:  2312                                  |
|   \\  /    A nd           | Website:  www.openfoam.com                      |
|    \\/     M anipulation  |                                                 |
\*---------------------------------------------------------------------------*/
FoamFile
{
    version     2.0;
    format      ascii;
    arch        "LSB;label=64;scalar=64";
    class       volScalarField;
    location    "120";
    object      p;
}
// * * * * * * * * * * * * * * * * * * * * * * * * * * * * * * * * * * * * * //

dimensions      [0 2 -2 0 0 0 0];

internalField   nonuniform List<scalar> 
404911
(
0.258188
0.259316
0.266021
0.271674
0.256469
0.259572
0.265827
0.269537
0.270496
0.271092
0.260528
0.253173
0.254616
0.257159
0.260548
0.265664
0.256918
0.256555
0.255172
0.255413
0.254856
0.254149
0.253166
0.25381
0.254868
0.244575
0.255446
0.254396
0.256394
0.259682
0.258663
0.257361
0.256045
0.261918
0.261182
0.259571
0.256178
0.264298
0.262183
0.261087
0.259105
0.264165
0.264076
0.262827
0.262039
0.259755
0.265014
0.264251
0.264432
0.264605
0.265977
0.266718
0.265024
0.262642
0.265992
0.265954
0.27231
0.253537
0.253795
0.254639
0.255036
0.255493
0.25654
0.255501
0.254882
0.255691
0.256798
0.256075
0.255128
0.254492
0.256379
0.255422
0.254791
0.25823
0.257333
0.256631
0.255665
0.260338
0.259678
0.262005
0.261083
0.263545
0.262875
0.261713
0.264799
0.264236
0.265246
0.26546
0.264954
0.265792
0.265702
0.267109
0.267738
0.268068
0.27045
0.269336
0.268918
0.270558
0.269968
0.269037
0.268931
0.270531
0.270846
0.269483
0.157786
0.158781
0.15983
0.168036
0.17152
0.159978
0.167064
0.160295
0.159718
0.158865
0.157836
0.171656
0.170034
0.168652
0.168253
0.164394
0.162885
0.160062
0.159704
0.156276
0.178443
0.174999
0.174975
0.172396
0.171579
0.171656
0.169347
0.168595
0.165311
0.163559
0.162176
0.160797
0.158117
0.152735
0.157033
0.155931
0.182426
0.180598
0.179628
0.176568
0.174115
0.172719
0.171807
0.170999
0.169677
0.169913
0.167011
0.164079
0.163534
0.162588
0.152967
0.186357
0.184561
0.183964
0.18198
0.179895
0.177768
0.175203
0.173493
0.172236
0.171842
0.170375
0.169185
0.168145
0.165416
0.164401
0.187359
0.187934
0.185929
0.184793
0.183887
0.182149
0.179138
0.176171
0.174036
0.173286
0.172218
0.171882
0.170137
0.168275
0.166067
0.167657
0.193754
0.189364
0.187205
0.187152
0.185834
0.185822
0.184674
0.181998
0.179339
0.176614
0.174816
0.173438
0.172576
0.17186
0.170665
0.16892
0.168367
0.194424
0.193711
0.192753
0.193551
0.191334
0.18989
0.188785
0.187806
0.186565
0.185438
0.183527
0.180262
0.178239
0.176177
0.174601
0.173002
0.172899
0.172738
0.194641
0.195434
0.193892
0.193373
0.193229
0.192514
0.191589
0.189791
0.188223
0.187336
0.186327
0.184996
0.181277
0.179112
0.177163
0.174156
0.175008
0.173081
0.198167
0.196742
0.19495
0.194513
0.194637
0.193865
0.193756
0.193
0.192321
0.191032
0.189345
0.187984
0.187318
0.186064
0.182722
0.180893
0.178495
0.177373
0.201265
0.200127
0.197918
0.195942
0.195565
0.195058
0.194479
0.194335
0.193461
0.192554
0.191388
0.189983
0.188749
0.187265
0.186975
0.183915
0.179185
0.203942
0.2036
0.201119
0.20115
0.199481
0.197596
0.196735
0.195606
0.194719
0.194992
0.194254
0.193185
0.191876
0.190277
0.189373
0.187965
0.186067
0.20814
0.207048
0.204055
0.204736
0.204071
0.202135
0.200308
0.19875
0.197357
0.196396
0.19622
0.195315
0.19469
0.193842
0.192361
0.190793
0.189697
0.188914
0.208344
0.205468
0.207166
0.206368
0.204554
0.204863
0.20414
0.202873
0.201462
0.199785
0.198754
0.198041
0.196614
0.196248
0.195338
0.193669
0.193185
0.193414
0.21307
0.211201
0.208986
0.208574
0.207565
0.207387
0.20537
0.205418
0.204421
0.203411
0.202235
0.200421
0.199907
0.198614
0.197826
0.196776
0.196808
0.195492
0.215568
0.214559
0.211885
0.209812
0.208581
0.207657
0.207161
0.206098
0.20545
0.205104
0.203478
0.201711
0.201009
0.200234
0.198203
0.198494
0.198812
0.195417
0.219204
0.217784
0.214944
0.21541
0.213086
0.210516
0.209401
0.209014
0.207943
0.206625
0.206021
0.205948
0.204577
0.202749
0.201443
0.200124
0.198306
0.19656
0.221482
0.220675
0.218936
0.217759
0.216486
0.213664
0.212076
0.209477
0.209271
0.208264
0.207024
0.205954
0.206031
0.205036
0.203666
0.203327
0.201433
0.200487
0.22138
0.2212
0.220063
0.22199
0.220276
0.218368
0.217718
0.215199
0.213265
0.210478
0.209109
0.208451
0.207384
0.20609
0.205524
0.20505
0.204063
0.203321
0.224719
0.222841
0.222439
0.221971
0.222765
0.221761
0.219437
0.218393
0.216527
0.214973
0.212166
0.209516
0.208566
0.207113
0.207002
0.20621
0.204817
0.226565
0.225358
0.224426
0.223509
0.222847
0.222758
0.222939
0.222377
0.220933
0.219142
0.217479
0.215611
0.213646
0.210859
0.209861
0.207535
0.206771
0.206539
0.226837
0.226163
0.225847
0.224927
0.224647
0.223856
0.22328
0.223147
0.222739
0.221621
0.220567
0.219194
0.217247
0.21484
0.21296
0.210875
0.209114
0.207341
0.228831
0.227858
0.226879
0.226667
0.22577
0.22521
0.224903
0.224397
0.224106
0.223457
0.222276
0.220947
0.220009
0.218238
0.216677
0.216724
0.21147
0.210933
0.22986
0.228528
0.228324
0.228226
0.227805
0.227201
0.226337
0.226283
0.225425
0.224966
0.224527
0.223794
0.222596
0.222076
0.220032
0.219667
0.216647
0.21484
0.231712
0.231066
0.230071
0.228958
0.22884
0.228396
0.228186
0.227822
0.227347
0.226748
0.226527
0.225798
0.224708
0.224112
0.222652
0.222031
0.219608
0.220356
0.232804
0.231819
0.231332
0.230128
0.229199
0.228763
0.22855
0.228259
0.228255
0.22764
0.227215
0.227031
0.226479
0.225445
0.225075
0.223512
0.221781
0.220441
0.233922
0.23369
0.233115
0.232363
0.23161
0.230389
0.229464
0.22884
0.228587
0.228222
0.228406
0.228395
0.227829
0.226867
0.226903
0.226394
0.221838
0.226265
0.233797
0.234179
0.233844
0.233559
0.232816
0.231994
0.23098
0.22984
0.229054
0.228693
0.228395
0.228461
0.228447
0.228095
0.227629
0.228369
0.226613
0.226205
0.23405
0.23456
0.234516
0.234282
0.233863
0.23333
0.23256
0.231587
0.230458
0.229456
0.228913
0.228732
0.228779
0.228653
0.228174
0.228007
0.227675
0.226708
0.234368
0.2336
0.234174
0.234235
0.234529
0.234159
0.233714
0.233018
0.232273
0.231169
0.230079
0.22935
0.22898
0.228856
0.228821
0.228196
0.227627
0.227983
0.234633
0.236724
0.235197
0.233464
0.233707
0.234304
0.234446
0.234186
0.234038
0.233482
0.232793
0.231849
0.23084
0.229977
0.229509
0.228949
0.228709
0.227918
0.237399
0.235989
0.235912
0.235686
0.234634
0.234184
0.234352
0.234398
0.234077
0.233813
0.233838
0.233307
0.232452
0.231552
0.230657
0.229968
0.229082
0.229512
0.23923
0.237899
0.236954
0.236944
0.236351
0.235601
0.234929
0.234761
0.234683
0.234461
0.23416
0.233998
0.233656
0.233012
0.232296
0.231896
0.231839
0.231018
0.238412
0.239348
0.238663
0.237658
0.237106
0.23665
0.236414
0.235302
0.235253
0.235015
0.23475
0.234496
0.234189
0.233922
0.233384
0.232734
0.232725
0.240831
0.238764
0.239352
0.2396
0.239115
0.238337
0.237623
0.237009
0.237047
0.236097
0.235728
0.235382
0.235041
0.234595
0.234395
0.234105
0.233756
0.232773
0.241514
0.240527
0.239856
0.239658
0.239807
0.239517
0.23873
0.238169
0.237773
0.237628
0.236699
0.236155
0.235813
0.235207
0.234704
0.234399
0.233991
0.235104
0.240408
0.240935
0.240608
0.240498
0.240065
0.240054
0.240009
0.239472
0.238769
0.238237
0.238142
0.237597
0.236656
0.236361
0.235704
0.23544
0.235552
0.234936
0.243202
0.241435
0.240852
0.240592
0.240606
0.240564
0.240205
0.239891
0.240364
0.239989
0.23929
0.238503
0.2381
0.2378
0.237186
0.236834
0.236272
0.235695
0.242511
0.242228
0.242162
0.241428
0.241127
0.240704
0.240577
0.240321
0.239952
0.240514
0.240328
0.239752
0.238993
0.238514
0.238155
0.237736
0.236832
0.236379
0.244079
0.24275
0.242415
0.242211
0.241725
0.241332
0.24091
0.240748
0.240645
0.240432
0.240464
0.240634
0.240122
0.239302
0.239129
0.238516
0.238103
0.237492
0.241668
0.244208
0.243472
0.242919
0.242556
0.24203
0.241584
0.241178
0.240998
0.241079
0.240993
0.240657
0.240598
0.240349
0.239777
0.239678
0.239484
0.238079
0.244774
0.244771
0.243951
0.243769
0.243231
0.242815
0.24232
0.241878
0.24146
0.24131
0.241398
0.241205
0.241008
0.24073
0.240423
0.240374
0.239206
0.24625
0.24412
0.244472
0.244228
0.244323
0.244083
0.243619
0.243148
0.242652
0.242172
0.241798
0.241561
0.241966
0.2418
0.241053
0.241013
0.24076
0.240694
0.244815
0.244951
0.2449
0.244445
0.244319
0.244424
0.244342
0.244073
0.24354
0.24305
0.242476
0.242007
0.241717
0.241694
0.241996
0.241602
0.241523
0.241389
0.245778
0.245195
0.244937
0.244829
0.244359
0.244379
0.24443
0.244363
0.244303
0.243932
0.24339
0.242683
0.242135
0.241895
0.24169
0.241637
0.241389
0.241187
0.245307
0.245865
0.2457
0.244975
0.244936
0.244456
0.244438
0.244403
0.244211
0.243904
0.244141
0.243762
0.243125
0.242506
0.24213
0.241909
0.241478
0.241172
0.247566
0.245886
0.24599
0.245887
0.24551
0.245154
0.244753
0.244583
0.244515
0.244441
0.244172
0.244117
0.244011
0.243642
0.243088
0.242832
0.242342
0.241889
0.24752
0.247708
0.247265
0.246618
0.24643
0.246093
0.245733
0.245347
0.245054
0.244876
0.244745
0.244503
0.244379
0.24422
0.243956
0.243428
0.243382
0.242859
0.247765
0.24783
0.24795
0.247839
0.247257
0.247055
0.246794
0.246452
0.246076
0.245719
0.24538
0.245008
0.244686
0.244496
0.244483
0.244376
0.243552
0.242432
0.248403
0.248103
0.248204
0.248129
0.247909
0.247632
0.247518
0.247344
0.246982
0.246539
0.246062
0.245813
0.24527
0.244894
0.244662
0.244547
0.244368
0.244995
0.247966
0.247896
0.247658
0.24842
0.248368
0.248118
0.248305
0.247824
0.247584
0.24764
0.247385
0.24722
0.246687
0.246227
0.245635
0.245193
0.244864
0.244701
0.244819
0.249202
0.249118
0.248619
0.248004
0.24822
0.248348
0.248158
0.248626
0.248422
0.248037
0.247877
0.247512
0.247325
0.247039
0.246714
0.246239
0.245928
0.245498
0.249014
0.24902
0.248567
0.248264
0.248265
0.248338
0.248333
0.248586
0.248611
0.248397
0.248126
0.247623
0.247273
0.246863
0.246521
0.24598
0.246641
0.249033
0.249349
0.24913
0.248734
0.248552
0.248316
0.24833
0.248426
0.248283
0.248257
0.248495
0.248382
0.248189
0.247754
0.247538
0.247236
0.246945
0.245786
0.250279
0.249161
0.249612
0.249127
0.248819
0.248598
0.248436
0.248458
0.248586
0.248421
0.248315
0.248568
0.248662
0.24846
0.248278
0.247781
0.247522
0.246662
0.249207
0.251101
0.250153
0.249724
0.249336
0.249088
0.248899
0.248622
0.248457
0.248244
0.248425
0.248265
0.248593
0.248649
0.248583
0.248604
0.24811
0.248692
0.251896
0.251223
0.250603
0.250059
0.249639
0.249415
0.249254
0.248972
0.249059
0.248584
0.248364
0.248199
0.248245
0.248316
0.248347
0.248091
0.248427
0.251594
0.252208
0.251383
0.25091
0.250449
0.250013
0.249825
0.249726
0.249422
0.24938
0.249073
0.248707
0.248526
0.248424
0.248589
0.248631
0.247958
0.252418
0.252685
0.25309
0.252804
0.251975
0.251369
0.250893
0.250399
0.250111
0.250051
0.250006
0.249573
0.249407
0.249186
0.249032
0.248668
0.248458
0.249438
0.253185
0.252484
0.252378
0.252659
0.252793
0.252353
0.251867
0.251347
0.250925
0.250591
0.250137
0.24982
0.249673
0.249487
0.249429
0.248989
0.249659
0.254019
0.254607
0.253399
0.253509
0.253101
0.252898
0.252501
0.252213
0.251661
0.251201
0.251227
0.250794
0.250445
0.250234
0.249895
0.249498
0.24953
0.255773
0.255462
0.254896
0.254726
0.254405
0.253988
0.253928
0.253507
0.252555
0.252203
0.251872
0.2516
0.251589
0.251379
0.250966
0.250562
0.250101
0.249573
0.256954
0.255898
0.255508
0.255336
0.254879
0.254244
0.254273
0.255033
0.254515
0.253003
0.252384
0.252202
0.251858
0.251684
0.251719
0.251275
0.251166
0.250481
0.255203
0.256182
0.255995
0.255829
0.255381
0.254766
0.253639
0.253906
0.254674
0.254663
0.253533
0.252741
0.252469
0.252294
0.251873
0.251996
0.251506
0.251153
0.256679
0.255926
0.25567
0.256185
0.255909
0.255442
0.255148
0.254108
0.253247
0.253391
0.254003
0.253558
0.25292
0.252545
0.252275
0.251928
0.251699
0.252089
0.257002
0.256461
0.255807
0.256043
0.256014
0.256053
0.25561
0.255106
0.255256
0.254881
0.253899
0.253566
0.253765
0.253558
0.253078
0.252633
0.25213
0.251358
0.251888
0.257923
0.258609
0.25683
0.256389
0.256113
0.256146
0.256137
0.255705
0.255241
0.254977
0.254589
0.25401
0.253692
0.253585
0.253306
0.253046
0.253603
0.251695
0.251309
0.254643
0.258208
0.256973
0.256633
0.256423
0.256164
0.256109
0.256091
0.255683
0.255204
0.254687
0.254232
0.254028
0.253923
0.253602
0.253302
0.253272
0.25327
0.258024
0.257306
0.257885
0.25744
0.256793
0.255862
0.255809
0.256182
0.256215
0.255947
0.255495
0.255126
0.254712
0.254369
0.254073
0.253788
0.253268
0.261034
0.259445
0.258643
0.25823
0.257784
0.257032
0.256162
0.255447
0.25594
0.256603
0.256403
0.25615
0.255475
0.25512
0.254968
0.254963
0.253668
0.263307
0.262096
0.260877
0.259614
0.259108
0.258368
0.257724
0.257057
0.256594
0.25688
0.257084
0.256885
0.256594
0.256046
0.255926
0.255072
0.254807
0.264296
0.26532
0.26367
0.263368
0.262008
0.260935
0.260272
0.259347
0.258542
0.258049
0.257699
0.257541
0.257509
0.257579
0.257197
0.256754
0.256115
0.257241
0.266357
0.266328
0.265184
0.2645
0.264111
0.262907
0.261638
0.260994
0.260317
0.259384
0.258687
0.258313
0.258048
0.257838
0.257591
0.256974
0.25724
0.266328
0.266075
0.26577
0.265729
0.265031
0.264471
0.263491
0.26231
0.261587
0.260914
0.260094
0.259238
0.258905
0.258305
0.258305
0.257566
0.256712
0.266306
0.266882
0.26621
0.265811
0.265542
0.265251
0.264742
0.26404
0.263111
0.262305
0.261398
0.260658
0.260054
0.259385
0.258827
0.258529
0.258822
0.26827
0.26708
0.26665
0.266077
0.266192
0.265803
0.265785
0.265269
0.264511
0.263527
0.26255
0.26203
0.261463
0.2609
0.260554
0.260276
0.259491
0.268038
0.268842
0.267982
0.266772
0.26683
0.267186
0.267038
0.266426
0.265771
0.264774
0.263734
0.262861
0.262613
0.262148
0.261515
0.260557
0.261093
0.272105
0.269851
0.269047
0.268452
0.267474
0.267291
0.268486
0.26867
0.267488
0.266139
0.264957
0.264073
0.263551
0.263206
0.262889
0.262249
0.261024
0.269795
0.270582
0.269608
0.269604
0.268724
0.267906
0.267508
0.268304
0.267833
0.266589
0.265417
0.264645
0.264243
0.263772
0.264526
0.262181
0.27075
0.271836
0.270754
0.270358
0.269863
0.269326
0.268697
0.268522
0.268612
0.268394
0.267112
0.265935
0.265232
0.263903
0.263667
0.270772
0.27075
0.269121
0.270769
0.270091
0.2703
0.270125
0.270006
0.269294
0.269028
0.268686
0.267984
0.266958
0.266064
0.265301
0.265071
0.271784
0.272299
0.271238
0.270237
0.269681
0.26902
0.269539
0.269987
0.270036
0.269768
0.269172
0.268677
0.26722
0.267313
0.266545
0.264633
0.278043
0.27517
0.27369
0.272635
0.271026
0.271146
0.269986
0.269249
0.269197
0.268973
0.269833
0.26941
0.269064
0.268617
0.268599
0.267212
0.288395
0.282589
0.278462
0.276926
0.275246
0.273915
0.272925
0.272758
0.27246
0.272063
0.271058
0.270088
0.26902
0.26934
0.269117
0.268762
0.2888
0.287621
0.285464
0.28234
0.279384
0.277101
0.276891
0.275214
0.273268
0.273203
0.27299
0.273282
0.273011
0.271693
0.270977
0.271193
0.293939
0.291726
0.288631
0.286166
0.284436
0.281255
0.278848
0.277845
0.277293
0.275372
0.274002
0.273953
0.273902
0.274908
0.27445
0.272697
0.297522
0.295996
0.292653
0.289875
0.287806
0.286086
0.283954
0.280946
0.278727
0.277544
0.27678
0.275284
0.273465
0.273805
0.273952
0.273523
0.300813
0.295854
0.296305
0.295907
0.29317
0.289369
0.287609
0.286952
0.284434
0.281083
0.280168
0.27712
0.277922
0.277269
0.274682
0.276459
0.299648
0.29924
0.298166
0.298008
0.29678
0.294602
0.291681
0.289683
0.288286
0.286853
0.284248
0.282398
0.280744
0.278176
0.278656
0.30233
0.301355
0.298685
0.299792
0.298898
0.297461
0.295532
0.293603
0.291621
0.289792
0.288917
0.287152
0.284828
0.282688
0.281651
0.278028
0.303282
0.303659
0.303124
0.30156
0.300403
0.300064
0.298253
0.296423
0.294646
0.292874
0.29096
0.289383
0.28776
0.286815
0.28439
0.284751
0.307954
0.305228
0.30456
0.30385
0.30182
0.301221
0.300538
0.299418
0.297769
0.296055
0.294507
0.292659
0.29055
0.289109
0.288053
0.306847
0.303955
0.305296
0.305008
0.303531
0.30271
0.30145
0.300073
0.298528
0.297022
0.295133
0.294022
0.291083
0.291069
0.306518
0.304088
0.305433
0.306022
0.30587
0.30439
0.303556
0.302237
0.300942
0.300055
0.298176
0.296245
0.295743
0.310003
0.307964
0.30663
0.30541
0.306627
0.306456
0.30642
0.30571
0.304444
0.303165
0.301931
0.300285
0.299738
0.296992
0.312273
0.310795
0.310548
0.308742
0.308675
0.307672
0.307753
0.307196
0.306635
0.305444
0.303947
0.302689
0.301573
0.30136
0.314819
0.312835
0.311823
0.309762
0.310002
0.309324
0.309517
0.309043
0.308611
0.308883
0.3065
0.305745
0.304374
0.304326
0.314722
0.315749
0.313195
0.312131
0.311609
0.309397
0.310208
0.310511
0.310633
0.310007
0.30927
0.306804
0.306202
0.305958
0.31727
0.314726
0.31467
0.314771
0.315877
0.314427
0.310821
0.310152
0.310952
0.310152
0.311535
0.310966
0.30936
0.306307
0.320686
0.318563
0.314671
0.313713
0.314539
0.311784
0.311213
0.310444
0.309724
0.309461
0.311394
0.311313
0.312217
0.312111
0.312764
0.312869
0.310132
0.310001
0.308603
0.309161
0.309816
0.310434
0.312639
0.312404
0.310575
0.310895
0.311735
0.31001
0.310188
0.309072
0.317577
0.314927
0.312406
0.3138
0.308793
0.308546
0.311987
0.324649
0.320909
0.312469
0.316468
0.312335
0.308242
0.305336
0.324237
0.316237
0.314148
0.312814
0.310642
0.327456
0.32633
0.315374
0.324703
0.31726
0.313858
0.3243
0.331352
0.329939
0.327519
0.319144
0.325931
0.325185
0.327306
0.328447
0.33158
0.313553
0.333522
0.327251
0.320429
0.325094
0.324693
0.340352
0.331647
0.324064
0.0607722
0.0615425
0.0650559
0.0822051
0.0738003
0.0723956
0.0720301
0.0669863
0.0625033
0.05868
0.0662956
0.0466824
0.0902421
0.0875587
0.0779934
0.0817519
0.078491
0.0758423
0.0757752
0.0730812
0.0690208
0.0651083
0.0585889
0.0599556
0.0594686
0.053586
0.0500213
0.0993158
0.0942379
0.0949161
0.0895278
0.0895067
0.0814553
0.0801385
0.080988
0.0782297
0.0758217
0.0736614
0.0696461
0.0666081
0.0620805
0.0586363
0.0590414
0.0536267
0.0447311
0.0509629
0.041145
0.0262633
0.0194613
0.108758
0.110731
0.106078
0.103004
0.0962962
0.0938938
0.0913582
0.0870157
0.0842595
0.082188
0.0815221
0.0799451
0.0769694
0.0745474
0.0693367
0.0719606
0.0639856
0.0628171
0.0598699
0.0536764
0.048943
0.0437493
0.0385501
0.122198
0.116822
0.116516
0.112738
0.113643
0.107495
0.103505
0.0988249
0.0966485
0.0936142
0.0889195
0.0860684
0.0839102
0.0832874
0.0785288
0.0789489
0.0751485
0.0769006
0.070635
0.0677006
0.0624878
0.0611724
0.0553847
0.0511528
0.0467533
0.123996
0.119792
0.121534
0.119539
0.116538
0.110856
0.114666
0.109169
0.104899
0.100776
0.0973739
0.0945365
0.0919209
0.0874213
0.0864484
0.0854364
0.0824773
0.0813268
0.0776309
0.0723903
0.0680374
0.0710914
0.0658107
0.0626979
0.058932
0.130175
0.126037
0.123366
0.122055
0.119989
0.119307
0.11741
0.116233
0.114866
0.110898
0.105441
0.100155
0.098499
0.0926062
0.0932101
0.0889001
0.0873464
0.0887747
0.0837206
0.0821037
0.0787075
0.0772072
0.0712667
0.0721323
0.0691335
0.135011
0.136051
0.130722
0.127179
0.124231
0.122755
0.120527
0.119469
0.11757
0.117082
0.116544
0.113839
0.109132
0.102406
0.0993425
0.0964284
0.0867065
0.0884908
0.087085
0.0871459
0.0857005
0.0814626
0.0804631
0.0770333
0.0759874
0.142709
0.134246
0.133075
0.137778
0.135711
0.132706
0.129678
0.126323
0.124082
0.121976
0.120538
0.118477
0.117737
0.116681
0.114745
0.110428
0.106339
0.102389
0.0985882
0.094565
0.0895882
0.0911308
0.0869268
0.0875223
0.08338
0.0767355
0.15082
0.148382
0.147662
0.142486
0.138673
0.138231
0.137269
0.135918
0.13381
0.130986
0.128285
0.124777
0.122655
0.121392
0.120088
0.118287
0.116459
0.113936
0.111412
0.107886
0.104281
0.101851
0.0998983
0.0971903
0.0970963
0.0910822
0.0902857
0.152857
0.151478
0.149423
0.147819
0.144781
0.141961
0.13883
0.137768
0.136651
0.134693
0.132464
0.130087
0.126939
0.124237
0.121342
0.121047
0.119337
0.116881
0.113816
0.1122
0.108424
0.10054
0.107509
0.100636
0.101515
0.156867
0.155091
0.154775
0.153733
0.151927
0.150171
0.148523
0.146383
0.143955
0.141665
0.139521
0.137776
0.135702
0.133314
0.131451
0.129104
0.126166
0.122189
0.121868
0.120344
0.117623
0.114969
0.112114
0.10666
0.105634
0.156703
0.158208
0.156209
0.155022
0.15399
0.152339
0.151122
0.149134
0.147578
0.144954
0.142363
0.141174
0.138822
0.136072
0.133904
0.132573
0.130017
0.127427
0.123034
0.1234
0.122251
0.119046
0.11526
0.111267
0.162635
0.163386
0.158102
0.157058
0.157933
0.15695
0.155131
0.154178
0.153622
0.151557
0.149497
0.147856
0.146111
0.142812
0.141339
0.139155
0.136862
0.134133
0.132835
0.130656
0.128211
0.125947
0.124836
0.122793
0.119589
0.170785
0.166999
0.164738
0.163089
0.159996
0.158458
0.15775
0.156877
0.155188
0.154093
0.15349
0.151711
0.149623
0.14754
0.145934
0.144165
0.14183
0.139668
0.137016
0.134257
0.133008
0.131354
0.128849
0.127778
0.12527
0.172807
0.171839
0.170502
0.168825
0.16735
0.164556
0.162002
0.159622
0.158273
0.157145
0.155619
0.154062
0.152826
0.151475
0.149212
0.147941
0.146104
0.143582
0.142147
0.139651
0.136566
0.135103
0.133382
0.132173
0.128206
0.177351
0.174944
0.175158
0.173449
0.171905
0.171107
0.169576
0.168825
0.166225
0.163393
0.161282
0.159436
0.157573
0.156076
0.154716
0.153421
0.152033
0.150097
0.148339
0.146195
0.143285
0.142205
0.140196
0.137015
0.134435
0.133285
0.181878
0.183898
0.179266
0.177076
0.175424
0.173533
0.17197
0.170649
0.170348
0.169905
0.167554
0.164717
0.16269
0.160787
0.158362
0.156314
0.154734
0.153726
0.153686
0.151488
0.148756
0.146189
0.14418
0.142786
0.138509
0.135771
0.190007
0.183507
0.181094
0.1816
0.180221
0.177704
0.175694
0.174023
0.172462
0.171332
0.170454
0.170259
0.16825
0.165945
0.163726
0.161997
0.160391
0.158361
0.155823
0.154089
0.154065
0.152283
0.149386
0.146018
0.14329
0.140472
0.139122
0.188362
0.18983
0.187252
0.185124
0.183713
0.182196
0.180652
0.178676
0.17665
0.17473
0.173152
0.172116
0.171337
0.170311
0.168833
0.166831
0.16453
0.16298
0.162508
0.161226
0.15745
0.155846
0.154314
0.152311
0.149464
0.146204
0.145428
0.191266
0.189864
0.188154
0.186959
0.18577
0.18471
0.183397
0.1816
0.179704
0.177511
0.175508
0.173791
0.172644
0.171844
0.170908
0.169423
0.167433
0.165014
0.163718
0.163142
0.162251
0.15984
0.158238
0.155166
0.151616
0.150134
0.193944
0.190614
0.191149
0.190436
0.189147
0.187736
0.18648
0.18583
0.184203
0.182581
0.180631
0.17834
0.17615
0.174359
0.173115
0.172305
0.171473
0.170129
0.168195
0.165828
0.164522
0.162593
0.162338
0.160724
0.157725
0.156158
0.196805
0.19386
0.193992
0.191762
0.191577
0.191193
0.189912
0.1888
0.187385
0.18645
0.185104
0.183545
0.181559
0.179175
0.176747
0.174875
0.1736
0.172718
0.171908
0.17072
0.168908
0.166901
0.164871
0.163028
0.162517
0.161487
0.195874
0.196145
0.194638
0.193768
0.193105
0.19246
0.191984
0.190637
0.189567
0.188441
0.187391
0.186038
0.184382
0.182347
0.180211
0.17766
0.175563
0.174133
0.173106
0.172374
0.171434
0.169921
0.168213
0.165785
0.164512
0.199773
0.200162
0.197962
0.19635
0.195037
0.194204
0.19414
0.193331
0.192707
0.191759
0.190656
0.189419
0.188271
0.186975
0.185265
0.18319
0.181047
0.178739
0.176655
0.17506
0.173823
0.173027
0.171942
0.170351
0.168964
0.168172
0.204557
0.204059
0.202292
0.200276
0.199084
0.197327
0.195783
0.194882
0.194585
0.194154
0.193572
0.192705
0.191616
0.190332
0.189135
0.187955
0.186499
0.184681
0.182376
0.179989
0.178055
0.176477
0.174864
0.173827
0.172707
0.17369
0.209425
0.204966
0.204352
0.203949
0.203045
0.201467
0.19994
0.19844
0.196842
0.195749
0.195131
0.194703
0.194119
0.19335
0.192303
0.191012
0.189935
0.188888
0.187532
0.186202
0.184185
0.181796
0.179568
0.177576
0.176109
0.17526
0.173216
0.207172
0.207654
0.206668
0.205338
0.204613
0.203736
0.202438
0.200966
0.199509
0.19809
0.196914
0.195993
0.195505
0.194845
0.193877
0.192757
0.191527
0.19059
0.189685
0.188298
0.186893
0.185078
0.183403
0.181558
0.179381
0.17772
0.212051
0.210183
0.208647
0.207568
0.207276
0.206289
0.204984
0.204155
0.2032
0.201836
0.200384
0.198971
0.197966
0.197036
0.196272
0.195555
0.194505
0.193165
0.192064
0.190969
0.190157
0.188841
0.18756
0.185743
0.182347
0.182458
0.211869
0.211866
0.210305
0.208965
0.207659
0.207797
0.206908
0.20518
0.204472
0.203658
0.202433
0.201124
0.199776
0.198872
0.198069
0.197115
0.196287
0.195369
0.193904
0.192937
0.191459
0.190207
0.189058
0.187877
0.186253
0.216157
0.215301
0.21397
0.21235
0.210678
0.209285
0.208012
0.2078
0.207131
0.205718
0.204817
0.204125
0.202922
0.201623
0.200332
0.19951
0.199208
0.198116
0.196934
0.196146
0.194877
0.193681
0.192625
0.190704
0.187129
0.218216
0.217332
0.216453
0.214904
0.213303
0.211719
0.210116
0.208588
0.2079
0.207081
0.206187
0.205382
0.204529
0.203451
0.201858
0.200571
0.199664
0.199305
0.198861
0.197913
0.196701
0.195345
0.193629
0.193908
0.19384
0.220536
0.220469
0.219673
0.218522
0.217525
0.21607
0.214441
0.212863
0.211165
0.209643
0.208643
0.207694
0.206753
0.206077
0.205401
0.204425
0.202677
0.201052
0.200102
0.199156
0.19888
0.198069
0.197022
0.196249
0.194015
0.222362
0.221805
0.221127
0.221134
0.220159
0.218669
0.217114
0.215611
0.213843
0.212075
0.210413
0.209289
0.208234
0.207128
0.206427
0.205942
0.205276
0.203887
0.202394
0.201215
0.200268
0.199601
0.199057
0.197938
0.196411
0.223871
0.224067
0.223049
0.22242
0.221863
0.222388
0.221646
0.219803
0.218088
0.216506
0.214801
0.21301
0.211071
0.209616
0.208429
0.207083
0.206453
0.205951
0.205285
0.204481
0.2033
0.202169
0.201659
0.20092
0.199674
0.226762
0.225471
0.224496
0.223655
0.223057
0.222567
0.22287
0.222732
0.22101
0.219107
0.217539
0.215923
0.21422
0.212137
0.210179
0.208726
0.207228
0.206282
0.206001
0.205654
0.204923
0.204251
0.203544
0.200357
0.229176
0.226677
0.226442
0.225995
0.225148
0.224328
0.223614
0.223172
0.223065
0.223075
0.221922
0.220232
0.218611
0.217027
0.215349
0.213351
0.211261
0.209575
0.208078
0.207039
0.206319
0.205784
0.20501
0.204053
0.203594
0.229011
0.228328
0.227878
0.227191
0.226594
0.225926
0.22536
0.224479
0.223968
0.223849
0.223699
0.22272
0.221188
0.21975
0.218452
0.21668
0.214716
0.212589
0.21059
0.209107
0.208022
0.207243
0.206497
0.204985
0.231429
0.229936
0.229551
0.228754
0.228076
0.227688
0.227307
0.22676
0.226266
0.225449
0.22497
0.224739
0.224459
0.223551
0.222074
0.220834
0.219806
0.218223
0.216193
0.214243
0.212137
0.210498
0.208962
0.207281
0.206221
0.232184
0.231349
0.230617
0.229794
0.229009
0.228438
0.228049
0.227817
0.227442
0.227004
0.226312
0.225698
0.22528
0.224853
0.22398
0.222473
0.221292
0.220676
0.21914
0.217245
0.215374
0.213488
0.211443
0.210334
0.233055
0.23258
0.232199
0.231564
0.230865
0.230058
0.229239
0.228725
0.228476
0.228231
0.227916
0.227533
0.22704
0.226451
0.225775
0.225128
0.224199
0.222789
0.221465
0.221018
0.219617
0.217904
0.215766
0.215317
0.214139
0.233479
0.233223
0.232936
0.232567
0.232
0.231248
0.230333
0.229425
0.228867
0.228699
0.228529
0.228249
0.227867
0.227477
0.226966
0.22644
0.225836
0.224837
0.223421
0.222285
0.221256
0.219883
0.218618
0.217056
0.233355
0.233919
0.233501
0.233342
0.233017
0.23244
0.23162
0.230663
0.229669
0.229017
0.228803
0.228718
0.228644
0.228318
0.227824
0.227162
0.226909
0.226409
0.225336
0.224174
0.22316
0.222155
0.220702
0.21976
0.2344
0.233774
0.233804
0.233864
0.233821
0.233713
0.233361
0.232815
0.231988
0.231041
0.230022
0.22924
0.228881
0.228769
0.228772
0.228564
0.228062
0.227283
0.226992
0.226718
0.225728
0.224404
0.2233
0.222792
0.221785
0.235847
0.234922
0.234025
0.233799
0.234062
0.234124
0.234006
0.233693
0.233165
0.232373
0.231459
0.230484
0.229592
0.229052
0.228835
0.228776
0.228573
0.228141
0.227436
0.226818
0.226458
0.22589
0.225369
0.223715
0.237557
0.235626
0.235297
0.234247
0.233791
0.234145
0.234348
0.234259
0.233984
0.2335
0.232685
0.231908
0.231025
0.230133
0.229387
0.229019
0.228935
0.228721
0.22831
0.227774
0.227098
0.226212
0.225989
0.225463
0.237128
0.237209
0.236422
0.235647
0.234682
0.23388
0.233955
0.234391
0.23438
0.234206
0.233833
0.233035
0.232396
0.231669
0.230865
0.230111
0.22952
0.229272
0.229132
0.228663
0.228248
0.228132
0.227713
0.238921
0.238504
0.237958
0.237468
0.236969
0.236261
0.235404
0.234494
0.234117
0.234284
0.234381
0.234328
0.234127
0.23356
0.232997
0.232337
0.231616
0.230928
0.230308
0.229898
0.229556
0.229151
0.228538
0.22718
0.239171
0.239167
0.238648
0.238271
0.237924
0.237491
0.236916
0.236271
0.2354
0.234752
0.234584
0.234509
0.23446
0.234335
0.233965
0.233515
0.23291
0.232277
0.231608
0.230943
0.230607
0.230289
0.230243
0.228709
0.240425
0.239707
0.239625
0.239147
0.238845
0.238447
0.237971
0.237417
0.236952
0.236176
0.235456
0.235084
0.234758
0.234547
0.234411
0.234193
0.23383
0.233319
0.232808
0.232237
0.231506
0.231098
0.230095
0.241192
0.24044
0.240522
0.239965
0.239876
0.239695
0.239379
0.238955
0.238435
0.23792
0.237521
0.236869
0.236052
0.235536
0.235057
0.234678
0.234445
0.234322
0.234102
0.233669
0.233221
0.232879
0.232363
0.230057
0.242827
0.241049
0.240736
0.240515
0.240175
0.240075
0.240057
0.239841
0.239429
0.238861
0.238409
0.23808
0.237505
0.23663
0.236028
0.235537
0.235026
0.234682
0.234524
0.234361
0.233999
0.233747
0.233277
0.234627
0.241608
0.241956
0.241501
0.240948
0.240625
0.240349
0.240212
0.240258
0.240192
0.239856
0.239329
0.238836
0.23851
0.23808
0.237323
0.23666
0.236114
0.235572
0.235132
0.23489
0.2347
0.234277
0.23397
0.233555
0.241971
0.242388
0.242035
0.241549
0.241091
0.240796
0.240594
0.240448
0.240426
0.240408
0.24023
0.239783
0.23919
0.238777
0.238396
0.237864
0.237344
0.236706
0.236086
0.235645
0.235273
0.234854
0.234675
0.242881
0.244019
0.242662
0.242641
0.24237
0.241957
0.241362
0.240949
0.240772
0.240648
0.240565
0.240527
0.240437
0.240098
0.239535
0.239045
0.238627
0.238149
0.237707
0.237212
0.23648
0.236007
0.235523
0.235144
0.245787
0.243154
0.243687
0.243317
0.243008
0.242721
0.242287
0.241776
0.241277
0.240988
0.240828
0.24077
0.240704
0.240645
0.240374
0.239909
0.239455
0.239063
0.238579
0.238093
0.237619
0.237005
0.236225
0.236096
0.243922
0.244751
0.244049
0.243804
0.243637
0.243343
0.242984
0.242544
0.242049
0.241608
0.241291
0.241057
0.240969
0.240893
0.240806
0.240602
0.240283
0.239957
0.239542
0.239014
0.238439
0.237571
0.236912
0.245602
0.244842
0.24443
0.244214
0.244084
0.243942
0.243637
0.243226
0.242752