/*--------------------------------*- C++ -*----------------------------------*\
| =========                 |                                                 |
| \\      /  F ield         | OpenFOAM: The Open Source CFD Toolbox           |
|  \\    /   O peration     | Version:  5.x                                   |
|   \\  /    A nd           | Web:      www.OpenFOAM.org                      |
|    \\/     M anipulation  |                                                 |
\*---------------------------------------------------------------------------*/
FoamFile
{
    version     2.0;
    format      ascii;
    class       volScalarField;
    location    "500";
    object      k;
}
// * * * * * * * * * * * * * * * * * * * * * * * * * * * * * * * * * * * * * //

dimensions      [0 2 -2 0 0 0 0];

internalField   nonuniform List<scalar> 
20540
(
0.000116727
7.23789e-05
0.000116727
7.37889e-05
0.000116727
7.75824e-05
0.000116727
8.37066e-05
0.000116727
9.11666e-05
0.000116727
9.84709e-05
0.000116727
0.000103844
0.000116727
0.000105662
0.000116727
0.000103192
0.000116727
9.69149e-05
0.000116727
8.69524e-05
0.000116727
7.48415e-05
0.000116727
6.41453e-05
0.000116727
5.73148e-05
0.000116727
5.43272e-05
0.000116727
5.34528e-05
0.000116727
5.32647e-05
0.000116727
5.32317e-05
0.000116727
5.32268e-05
0.000116727
5.32263e-05
0.000116727
5.32265e-05
0.000116727
5.32271e-05
0.000116727
5.32278e-05
0.000116727
5.32288e-05
0.000116727
5.323e-05
0.000116727
5.32315e-05
0.000116727
5.32331e-05
0.000116727
5.32348e-05
0.000116727
5.32366e-05
0.000116727
5.32383e-05
0.000116727
5.32395e-05
0.000116727
5.324e-05
0.000116727
5.324e-05
0.000116727
5.32394e-05
0.000116727
5.32383e-05
0.000116727
5.32367e-05
0.000116727
5.3235e-05
0.000116727
5.32333e-05
0.000116727
5.32317e-05
0.000116727
5.32303e-05
0.000116727
5.3229e-05
0.000116727
5.3228e-05
0.000116727
5.32272e-05
0.000116727
5.32267e-05
0.000116727
5.32264e-05
0.000116727
5.32265e-05
0.000116727
5.32284e-05
0.000116727
5.32419e-05
0.000116727
5.33217e-05
0.000116727
5.37215e-05
0.000116727
5.52974e-05
0.000116727
5.96793e-05
0.000116727
6.79751e-05
0.000116727
7.92388e-05
0.000116727
9.06554e-05
0.000116727
9.9105e-05
0.000116727
0.000104232
0.000116727
0.000105603
0.000116727
0.00010306
0.000116727
9.74306e-05
0.000116727
9.03052e-05
0.000116727
8.32467e-05
0.000116727
7.75661e-05
0.000116727
7.40945e-05
0.000116727
7.27849e-05
0.0237521
0.025826
0.0230746
0.0209516
0.019395
0.0182546
0.0173881
0.0167102
0.0161628
0.015713
0.0153363
0.0150177
0.0147434
0.0145056
0.014298
0.0141145
0.0139514
0.013806
0.0136759
0.0135584
0.0134517
0.0133547
0.0132665
0.0131861
0.0131128
0.0130456
0.0129838
0.0129265
0.0128733
0.012824
0.0127781
0.0127355
0.0126958
0.0126589
0.0126244
0.0125923
0.0125624
0.0125346
0.0125086
0.0124844
0.0124619
0.0124409
0.0124216
0.0124039
0.0123879
0.0123735
0.012361
0.0123504
0.0123419
0.0123358
0.0123321
0.0123313
0.0123335
0.0123393
0.012349
0.012363
0.0123818
0.0124061
0.0124364
0.0124734
0.0125179
0.0125717
0.0126358
0.0126835
0.0127353
0.0127918
0.0128517
0.012915
0.0129822
0.0130535
0.013129
0.0132091
0.013294
0.0133839
0.0134793
0.0135808
0.0136889
0.0138047
0.0139297
0.014066
0.0142172
0.0143893
0.0145939
0.0148571
0.0152439
0.0159915
0.0179701
0.0280282
0.768927
0.833996
0.746266
0.678447
0.628625
0.59207
0.564261
0.542486
0.524892
0.510425
0.498306
0.48805
0.479216
0.471554
0.464865
0.458949
0.453691
0.449003
0.444806
0.441016
0.437575
0.434447
0.431601
0.429009
0.426642
0.424476
0.422479
0.420631
0.418915
0.417322
0.415841
0.414464
0.413183
0.411989
0.410877
0.409841
0.408876
0.407976
0.407137
0.406356
0.405628
0.404953
0.404329
0.403758
0.403239
0.402776
0.402371
0.402029
0.401755
0.401557
0.401439
0.401411
0.401484
0.401669
0.401981
0.402433
0.403041
0.403823
0.4048
0.405995
0.407432
0.409165
0.411231
0.412771
0.414447
0.416267
0.418195
0.420235
0.422398
0.424693
0.427126
0.429704
0.432434
0.435327
0.438392
0.44165
0.44512
0.448834
0.452836
0.457193
0.462011
0.467476
0.473936
0.482169
0.494079
0.516437
0.571127
0.770404
4.54927
5.0776
4.68291
4.35393
4.10328
3.91473
3.76858
3.65246
3.55751
3.47866
3.41205
3.35529
3.30609
3.26319
3.22556
3.19214
3.16233
3.13567
3.11173
3.09005
3.07032
3.05235
3.03597
3.02102
3.00736
2.99482
2.98326
2.97254
2.96257
2.9533
2.94468
2.93666
2.92918
2.92221
2.91571
2.90965
2.904
2.89873
2.89382
2.88923
2.88496
2.881
2.87733
2.87397
2.87091
2.86818
2.86578
2.86374
2.86211
2.8609
2.86015
2.85991
2.86024
2.86122
2.86292
2.86542
2.8688
2.87317
2.87864
2.88534
2.89339
2.9031
2.91451
2.92296
2.93239
2.94256
2.95323
2.9645
2.9764
2.98899
3.00228
3.01632
3.0311
3.04669
3.06312
3.08047
3.0988
3.11825
3.13899
3.16127
3.1855
3.21238
3.24314
3.28051
3.33042
3.41287
3.56324
3.88893
6.97786
8.33365
8.00671
7.64246
7.34758
7.12003
6.94071
6.79643
6.6772
6.57737
6.49241
6.41958
6.3561
6.3005
6.25153
6.20787
6.16878
6.13373
6.10218
6.07353
6.0474
6.02355
6.00178
5.98187
5.96366
5.94693
5.93147
5.91711
5.90375
5.89132
5.87974
5.86894
5.85888
5.8495
5.84074
5.83256
5.82494
5.81782
5.81117
5.80495
5.79916
5.79376
5.78876
5.78416
5.77996
5.77617
5.77282
5.76993
5.76755
5.76571
5.76442
5.76375
5.76378
5.7646
5.7663
5.76896
5.77269
5.7776
5.78382
5.79149
5.80073
5.81198
5.82468
5.83373
5.84445
5.85628
5.86853
5.8813
5.89468
5.90873
5.92346
5.93889
5.95502
5.97187
5.98946
6.00781
6.02695
6.04694
6.06787
6.08987
6.11314
6.13804
6.16521
6.19602
6.23261
6.28346
6.34267
6.44123
7.5877
9.6687
9.51796
9.18899
8.90099
8.67336
8.49185
8.34469
8.22235
8.1195
8.03167
7.95621
7.89025
7.83239
7.78138
7.73579
7.69494
7.65828
7.62526
7.59525
7.56785
7.54281
7.51995
7.49906
7.47992
7.46235
7.4461
7.431
7.41694
7.40385
7.39165
7.38029
7.36969
7.3598
7.35058
7.34196
7.33392
7.3264
7.31938
7.31281
7.30668
7.30095
7.29564
7.29073
7.28622
7.28214
7.2785
7.27531
7.27262
7.27046
7.26882
7.26777
7.26738
7.26773
7.2689
7.27099
7.27406
7.27824
7.28361
7.29032
7.29843
7.30843
7.31931
7.32675
7.33598
7.34649
7.35736
7.36859
7.38026
7.39244
7.40511
7.4183
7.43199
7.44618
7.46085
7.476
7.4916
7.50766
7.52417
7.54115
7.5586
7.57659
7.59517
7.61452
7.63372
7.65264
7.64616
7.62786
7.24522
10.0115
10.1323
9.88363
9.62735
9.41489
9.24165
9.09957
8.98048
8.87987
8.7936
8.7193
8.65415
8.59692
8.5464
8.50116
8.46058
8.42413
8.39131
8.36144
8.33412
8.30915
8.28635
8.26551
8.24643
8.2289
8.21267
8.19758
8.18353
8.17044
8.15825
8.14689
8.13629
8.12641
8.11719
8.10857
8.10053
8.09301
8.08598
8.07939
8.07322
8.06745
8.06209
8.05711
8.05253
8.04834
8.04457
8.04123
8.03834
8.03594
8.034
8.03257
8.03173
8.03154
8.03206
8.03336
8.03552
8.03862
8.04274
8.04798
8.05438
8.06241
8.07079
8.07621
8.08325
8.09158
8.10025
8.10918
8.11839
8.12792
8.13776
8.14793
8.15839
8.16913
8.18012
8.19133
8.20272
8.21425
8.22586
8.23749
8.24905
8.26041
8.27132
8.28127
8.2876
8.28587
8.24575
8.2013
6.44782
9.813
10.2881
10.161
9.95569
9.76936
9.61172
9.47961
9.3673
9.27161
9.18902
9.11761
9.05469
8.99928
8.95029
8.90628
8.86673
8.83119
8.79917
8.76998
8.74323
8.71877
8.69642
8.67599
8.65728
8.64009
8.62416
8.60934
8.59552
8.58264
8.57064
8.55947
8.54906
8.53935
8.53028
8.52182
8.51391
8.50652
8.49959
8.49308
8.48698
8.48127
8.47593
8.47096
8.46637
8.46214
8.4583
8.45484
8.4518
8.44919
8.44697
8.44519
8.44389
8.44314
8.44298
8.44346
8.44465
8.44659
8.44936
8.45303
8.45758
8.46347
8.46937
8.47292
8.47763
8.48355
8.48993
8.49652
8.50328
8.51022
8.51732
8.52459
8.53198
8.53949
8.54707
8.55468
8.56226
8.56977
8.57712
8.58421
8.59089
8.59693
8.60191
8.60496
8.60319
8.59165
8.54417
8.49984
5.44537
9.26443
10.1589
10.2019
10.0722
9.92488
9.78984
9.67235
9.57012
9.48184
9.40485
9.33787
9.27841
9.22587
9.1793
9.13727
9.0994
9.06535
9.03464
9.00656
8.98079
8.95718
8.9356
8.91589
8.89783
8.88122
8.86582
8.85145
8.83804
8.82554
8.8139
8.80306
8.79296
8.78355
8.77477
8.76657
8.7589
8.75173
8.745
8.73867
8.73272
8.72714
8.7219
8.71701
8.71247
8.70827
8.70441
8.70091
8.69777
8.69501
8.69258
8.69052
8.68885
8.68761
8.68686
8.68662
8.68694
8.68785
8.6894
8.69165
8.69455
8.6985
8.70223
8.70422
8.70697
8.71071
8.71487
8.71925
8.72373
8.7283
8.73292
8.73759
8.74227
8.74695
8.75158
8.75612
8.76052
8.76472
8.76862
8.77213
8.77508
8.7772
8.778
8.77648
8.7696
8.75238
8.70269
8.66047
4.36915
8.4502
9.80357
10.0689
10.0384
9.94364
9.8398
9.74262
9.6545
9.57662
9.50752
9.44679
9.39227
9.34382
9.30068
9.26149
9.22605
9.19412
9.16529
9.13884
9.11448
9.09212
9.07168
9.053
9.03589
9.02014
9.0055
8.99181
8.97902
8.96708
8.95596
8.94562
8.93598
8.927
8.91863
8.91081
8.90351
8.89667
8.89024
8.88418
8.87848
8.8731
8.86805
8.86331
8.85889
8.85479
8.85099
8.84751
8.84435
8.84151
8.83895
8.83668
8.83472
8.83311
8.83186
8.83102
8.83059
8.83061
8.8311
8.8321
8.83356
8.8358
8.83769
8.83841
8.83956
8.84144
8.8437
8.84614
8.84867
8.85122
8.85376
8.85627
8.85872
8.86109
8.86333
8.86541
8.86728
8.86888
8.87011
8.87087
8.87099
8.87017
8.86789
8.86304
8.85261
8.83204
8.78299
8.74308
3.31125
7.42011
9.23343
9.7743
9.87754
9.85159
9.78953
9.71974
9.65078
9.58701
9.52863
9.4764
9.42862
9.38572
9.34726
9.31195
9.27983
9.25081
9.22455
9.20031
9.17788
9.15724
9.13836
9.1211
9.10529
9.09072
9.07712
9.06437
9.05243
9.04127
9.03088
9.02121
9.01221
9.00383
8.99602
8.98873
8.98192
8.97554
8.96953
8.96385
8.95849
8.95342
8.94864
8.94415
8.93995
8.93602
8.93236
8.92899
8.92588
8.92305
8.92045
8.91807
8.91592
8.91403
8.91241
8.91108
8.91005
8.90934
8.90896
8.90891
8.90915
8.90994
8.91031
8.91003
8.90993
8.91031
8.91098
8.9118
8.91267
8.91355
8.91437
8.91512
8.91577
8.91629
8.91664
8.91679
8.91668
8.91627
8.91546
8.91414
8.91213
8.90913
8.90457
8.89728
8.88439
8.86185
8.81487
8.77719
2.3422
6.21793
8.44204
9.30896
9.58791
9.65567
9.6483
9.61473
9.57132
9.52634
9.48226
9.44134
9.40255
9.36709
9.33484
9.30469
9.27702
9.25187
9.22901
9.20771
9.18785
9.16952
9.15272
9.13735
9.12325
9.11025
9.09805
9.08655
9.07574
9.06563
9.05621
9.04744
9.03929
9.0317
9.02464
9.01804
9.01189
9.00611
9.00066
8.9955
8.9906
8.98596
8.98157
8.97743
8.97354
8.96989
8.96647
8.96329
8.96034
8.95762
8.95508
8.9527
8.95047
8.94843
8.94657
8.9449
8.94343
8.94217
8.94109
8.94022
8.93949
8.93911
8.93828
8.93722
8.93617
8.93542
8.93483
8.93435
8.93389
8.93342
8.93287
8.93222
8.93145
8.93052
8.9294
8.92806
8.92645
8.92451
8.92216
8.91928
8.91569
8.91106
8.90478
8.89569
8.88107
8.85749
8.81339
8.77793
1.50328
4.89038
7.42156
8.64634
9.15136
9.34665
9.41411
9.42766
9.41794
9.39767
9.37249
9.34643
9.31953
9.29385
9.26977
9.24643
9.22462
9.20456
9.18616
9.1687
9.15222
9.13691
9.12285
9.10995
9.09811
9.08715
9.07677
9.06691
9.0576
9.04887
9.04072
9.03314
9.0261
9.01955
9.01345
9.00777
9.00247
8.99749
8.99277
8.98828
8.984
8.97993
8.97606
8.97241
8.96895
8.9657
8.96264
8.95977
8.95709
8.95459
8.95224
8.94997
8.9478
8.94574
8.94379
8.94195
8.94021
8.93856
8.93701
8.93554
8.93409
8.93282
8.93109
8.92947
8.92776
8.92619
8.92468
8.92322
8.92174
8.92022
8.91861
8.9169
8.91504
8.91302
8.91079
8.90834
8.9056
8.90253
8.89903
8.89499
8.8902
8.88433
8.87675
8.8663
8.85049
8.82651
8.78583
8.75268
0.833696
3.53086
6.17577
7.75395
8.53376
8.89967
9.07094
9.15076
9.18504
9.19698
9.19657
9.18993
9.17866
9.16581
9.15237
9.13796
9.12382
9.11042
9.0978
9.08535
9.07328
9.06192
9.05142
9.04175
9.03283
9.02451
9.01649
9.00876
9.00139
8.99446
8.98798
8.98194
8.97634
8.97114
8.9663
8.9618
8.9576
8.95364
8.94986
8.94625
8.94277
8.93945
8.93628
8.93326
8.9304
8.9277
8.92514
8.92274
8.92046
8.91832
8.9163
8.91429
8.91232
8.9104
8.90852
8.90666
8.90484
8.90302
8.9012
8.89936
8.89744
8.89557
8.89324
8.89125
8.88911
8.88701
8.88488
8.88273
8.88053
8.87826
8.87588
8.87339
8.87074
8.86791
8.86488
8.86161
8.85806
8.85415
8.84981
8.84489
8.8392
8.83237
8.82377
8.81226
8.79569
8.77185
8.73489
8.70415
0.369255
2.2913
4.74053
6.60345
7.68901
8.27435
8.58815
8.76046
8.85817
8.91431
8.9462
8.96475
8.97403
8.9779
8.97828
8.97556
8.97148
8.96673
8.96161
8.95565
8.94933
8.94313
8.93727
8.93178
8.92663
8.9217
8.91673
8.91176
8.90692
8.90232
8.89801
8.89398
8.89025
8.88678
8.88357
8.88058
8.87779
8.87514
8.87258
8.87009
8.86766
8.86531
8.86305
8.86088
8.85881
8.85684
8.85497
8.85319
8.8515
8.84988
8.84834
8.84677
8.84517
8.84356
8.84192
8.84025
8.83853
8.83674
8.83487
8.8329
8.83076
8.82856
8.82591
8.82372
8.82136
8.81896
8.81646
8.81389
8.81123
8.80847
8.80558
8.80256
8.79937
8.79599
8.7924
8.78855
8.7844
8.77989
8.77492
8.76934
8.76294
8.75535
8.74593
8.73364
8.71667
8.6934
8.66029
8.632
0.119743
1.24476
3.24675
5.18763
6.56841
7.41462
7.91738
8.2195
8.40662
8.52614
8.60477
8.65866
8.695
8.72054
8.73879
8.75146
8.76053
8.76704
8.7716
8.77407
8.77527
8.77581
8.77598
8.7759
8.77562
8.77507
8.77401
8.77262
8.77108
8.76952
8.76801
8.76659
8.76527
8.76405
8.76293
8.76188
8.7609
8.75993
8.75893
8.75788
8.7568
8.75571
8.75463
8.75356
8.75253
8.75154
8.75057
8.74965
8.74874
8.74786
8.74699
8.74606
8.74504
8.74394
8.74275
8.74145
8.74004
8.7385
8.73681
8.73494
8.73283
8.73056
8.72784
8.72562
8.7232
8.7207
8.71805
8.71528
8.71238
8.70935
8.70616
8.70282
8.69929
8.69556
8.69159
8.68735
8.68278
8.67783
8.67238
8.66628
8.65931
8.65109
8.64102
8.62817
8.61113
8.58883
8.55947
8.5336
0.0282505
0.498173
1.89483
3.61103
5.14321
6.25873
6.99241
7.46874
7.78263
7.99347
8.13929
8.24421
8.32027
8.37701
8.42043
8.45353
8.4798
8.50087
8.51788
8.53141
8.5425
8.55187
8.5599
8.56684
8.57283
8.57792
8.58195
8.58521
8.58796
8.59036
8.59251
8.59447
8.59628
8.59797
8.59954
8.60099
8.60234
8.60352
8.60451
8.60532
8.60598
8.60653
8.60698
8.60737
8.60769
8.60797
8.60821
8.60841
8.60856
8.60866
8.60871
8.60866
8.60845
8.60809
8.60757
8.60688
8.60601
8.60495
8.60366
8.60213
8.60028
8.5982
8.59565
8.59355
8.59122
8.58877
8.58614
8.58334
8.58038
8.57725
8.57394
8.57044
8.56673
8.56279
8.55859
8.55409
8.54923
8.54395
8.53813
8.53161
8.52416
8.51542
8.50484
8.49166
8.47485
8.45383
8.42799
8.40445
0.0052347
0.125554
0.824423
2.1195
3.51992
4.77405
5.74106
6.43019
6.9138
7.25354
7.4975
7.67771
7.81171
7.91383
7.99402
8.05761
8.109
8.15099
8.18574
8.21423
8.23842
8.25937
8.27767
8.2937
8.30777
8.32012
8.33081
8.3402
8.34858
8.35617
8.36309
8.36946
8.37534
8.38078
8.38583
8.39051
8.39485
8.3988
8.40236
8.40558
8.40851
8.41119
8.41365
8.41592
8.41803
8.41998
8.42179
8.42346
8.42501
8.42642
8.42769
8.42882
8.4297
8.43036
8.43078
8.43096
8.43089
8.43055
8.42992
8.42897
8.42763
8.42597
8.42381
8.42196
8.41985
8.41759
8.41511
8.41242
8.40954
8.40645
8.40314
8.39961
8.39584
8.39181
8.38747
8.3828
8.37774
8.3722
8.36607
8.35919
8.35133
8.34217
8.33123
8.31794
8.30164
8.28213
8.25947
8.23809
0.000816237
0.0197719
0.217675
0.899646
1.969
3.10388
4.15866
5.02917
5.71043
6.21788
6.59812
6.88714
7.10675
7.27708
7.41286
7.52189
7.61041
7.68316
7.74387
7.79497
7.8388
7.87681
7.91
7.93908
7.96468
7.9872
8.00682
8.02433
8.04015
8.05455
8.06774
8.07987
8.09105
8.10138
8.11093
8.11976
8.12795
8.1355
8.14243
8.14882
8.15472
8.1602
8.16529
8.17004
8.17447
8.17861
8.18249
8.18611
8.18948
8.19261
8.19551
8.19817
8.20051
8.20253
8.20422
8.20559
8.20661
8.20728
8.20756
8.20745
8.20687
8.20586
8.20432
8.20285
8.20108
8.19912
8.19691
8.19444
8.19174
8.18879
8.18559
8.18212
8.17837
8.17431
8.16991
8.16513
8.15991
8.15416
8.14776
8.14057
8.13237
8.12288
8.11173
8.09854
8.08297
8.06509
8.0452
8.02573
0.000128971
0.00230174
0.0316557
0.216579
0.737828
1.54721
2.46194
3.34162
4.13393
4.79724
5.33708
5.77084
6.10979
6.37932
6.59826
6.77602
6.92113
7.04104
7.14174
7.22744
7.30109
7.36478
7.42015
7.46855
7.5111
7.5487
7.58195
7.61175
7.63869
7.66321
7.68562
7.70615
7.72501
7.74237
7.75836
7.77313
7.78677
7.79925
7.81071
7.82131
7.83116
7.84032
7.84888
7.85688
7.86438
7.8714
7.87799
7.88416
7.88994
7.89533
7.90035
7.90502
7.90929
7.9131
7.91647
7.91938
7.92185
7.92384
7.92534
7.92634
7.92677
7.92667
7.92596
7.92503
7.92373
7.92218
7.92033
7.91818
7.91574
7.91301
7.90997
7.90661
7.90292
7.89888
7.89445
7.88958
7.8842
7.87825
7.8716
7.86411
7.8556
7.84587
7.83466
7.82174
7.80703
7.79074
7.77319
7.75529
4.15694e-05
0.000232848
0.00303869
0.0266249
0.140892
0.452142
0.988024
1.67605
2.39192
3.07479
3.69546
4.24594
4.71255
5.10479
5.43726
5.7123
5.94003
6.13073
6.29268
6.43213
6.55227
6.65591
6.74579
6.82423
6.89318
6.95423
7.00856
7.05737
7.10149
7.14153
7.17797
7.21121
7.24159
7.26942
7.29497
7.31848
7.34015
7.3601
7.37849
7.39552
7.41133
7.42605
7.4398
7.45266
7.46472
7.47603
7.48664
7.49659
7.50592
7.51466
7.52283
7.53045
7.53754
7.54402
7.54988
7.55511
7.55971
7.56368
7.567
7.56966
7.57156
7.57273
7.57314
7.57288
7.57216
7.57111
7.5697
7.56791
7.56575
7.56322
7.56031
7.55702
7.55332
7.54919
7.5446
7.53953
7.53391
7.52767
7.5207
7.51288
7.50407
7.49412
7.4829
7.47032
7.45644
7.44152
7.42579
7.40901
3.25187e-05
3.76013e-05
0.000240682
0.00208583
0.0132491
0.0601059
0.19398
0.467279
0.8769
1.38583
1.9415
2.47459
2.97749
3.43733
3.85293
4.22299
4.54603
4.82682
5.07236
5.28903
5.47706
5.63996
5.78205
5.90677
6.01698
6.11507
6.20297
6.28232
6.35405
6.4189
6.47762
6.53093
6.57946
6.62377
6.66433
6.70156
6.73584
6.76745
6.79664
6.82368
6.84881
6.87221
6.89407
6.91453
6.9337
6.95167
6.96853
6.98433
6.99915
7.01303
7.02603
7.03817
7.04949
7.06004
7.06967
7.07839
7.08622
7.09317
7.09921
7.10435
7.10853
7.11176
7.11402
7.11495
7.11529
7.11516
7.11455
7.11346
7.1119
7.10988
7.10739
7.10443
7.101
7.09708
7.09264
7.08755
7.08172
7.07512
7.06769
7.05935
7.0501
7.03985
7.02854
7.01617
7.00288
6.9889
6.97436
6.95807
3.17605e-05
2.2706e-05
2.96122e-05
0.000137489
0.000829898
0.00411929
0.0165418
0.0540359
0.14101
0.303005
0.554509
0.87475
1.24799
1.65044
2.05141
2.43379
2.7929
3.12483
3.4288
3.70594
3.95973
4.18946
4.39612
4.58173
4.74876
4.8998
5.03718
5.16271
5.27606
5.37826
5.47082
5.55496
5.63167
5.70181
5.76613
5.82528
5.87981
5.93021
5.97691
6.02029
6.06067
6.09837
6.13363
6.16664
6.19752
6.22642
6.25349
6.27882
6.30254
6.32474
6.34551
6.36491
6.38302
6.39994
6.41563
6.42996
6.44297
6.45467
6.46508
6.47418
6.48197
6.48842
6.49357
6.49626
6.49817
6.49941
6.49999
6.49992
6.49922
6.49791
6.49598
6.49345
6.49032
6.48657
6.48222
6.47719
6.47147
6.46503
6.45783
6.44984
6.44074
6.43054
6.41931
6.40714
6.39427
6.38087
6.36697
6.35062
3.17099e-05
2.17903e-05
1.69036e-05
1.88549e-05
5.01397e-05
0.000210062
0.000846471
0.00300797
0.00930762
0.0251987
0.0598603
0.123526
0.226396
0.375392
0.568167
0.794883
1.04838
1.31956
1.5984
1.87598
2.14143
2.39341
2.63057
2.85227
3.05857
3.25007
3.42769
3.59245
3.74478
3.88702
4.01926
4.14189
4.25548
4.36066
4.45812
4.54852
4.63252
4.71072
4.78368
4.8519
4.91583
4.97584
5.03224
5.08499
5.1341
5.17991
5.2227
5.26271
5.30015
5.33521
5.36803
5.39875
5.42748
5.45434
5.47953
5.50285
5.5242
5.54362
5.56114
5.57677
5.59051
5.60236
5.61232
5.61797
5.62252
5.62609
5.62874
5.63047
5.63133
5.63133
5.6305
5.62886
5.62642
5.6232
5.6192
5.61442
5.60886
5.60253
5.59542
5.58755
5.57883
5.56929
5.55897
5.54788
5.53598
5.52345
5.51026
5.49404
3.17078e-05
2.17455e-05
1.62947e-05
1.31301e-05
1.2165e-05
1.67776e-05
4.03058e-05
0.000124289
0.000379048
0.00106821
0.00277341
0.00659296
0.0144085
0.0290548
0.054033
0.0928759
0.148972
0.224974
0.322273
0.440795
0.575264
0.722991
0.881292
1.04726
1.2179
1.39026
1.56165
1.72995
1.89521
2.05281
2.20276
2.34511
2.47995
2.60746
2.72786
2.84145
2.94853
3.04946
3.14461
3.23432
3.31896
3.39884
3.47427
3.54544
3.61251
3.67573
3.73531
3.79178
3.84532
3.89601
3.94396
3.98924
4.03196
4.07219
4.11002
4.14582
4.17913
4.20984
4.23797
4.26354
4.28652
4.30692
4.32472
4.33526
4.34429
4.35195
4.35831
4.36341
4.36731
4.37005
4.37167
4.37223
4.37174
4.37026
4.3678
4.36441
4.36012
4.35495
4.34894
4.34214
4.33457
4.32629
4.31737
4.30789
4.29784
4.2873
4.2762
4.26207
3.17085e-05
2.1744e-05
1.62718e-05
1.29124e-05
1.07095e-05
9.31307e-06
8.89005e-06
1.05728e-05
1.76949e-05
3.84776e-05
9.1456e-05
0.000214137
0.000477641
0.00101
0.00202628
0.00385936
0.0069942
0.0120876
0.0199669
0.0316061
0.0478942
0.0696844
0.0977436
0.132689
0.174931
0.224637
0.281716
0.345847
0.416602
0.491864
0.570893
0.652959
0.737356
0.823405
0.910462
0.997925
1.08524
1.17189
1.25744
1.34149
1.42372
1.50386
1.58173
1.65748
1.73123
1.80286
1.87223
1.93863
2.00196
2.06233
2.11982
2.17451
2.22647
2.27577
2.32245
2.36658
2.40867
2.44808
2.48478
2.51876
2.54998
2.57839
2.60394
2.6195
2.63337
2.64567
2.65648
2.66584
2.67384
2.68053
2.68597
2.69023
2.69336
2.69541
2.69644
2.69651
2.69567
2.69397
2.69147
2.68823
2.68431
2.67975
2.67457
2.66875
2.66235
2.65542
2.64794
2.63846
3.17094e-05
2.17443e-05
1.62714e-05
1.2906e-05
1.06661e-05
9.08854e-06
7.93836e-06
7.10625e-06
6.5889e-06
6.53032e-06
7.34004e-06
9.90951e-06
1.59795e-05
2.87358e-05
5.3681e-05
9.97702e-05
0.000180953
0.000318158
0.000541917
0.000895622
0.00143684
0.00223969
0.00339638
0.00501738
0.00723012
0.0101762
0.0140075
0.0188812
0.024956
0.0323486
0.0411606
0.0514749
0.0633529
0.0768335
0.0919314
0.108638
0.12692
0.146724
0.167974
0.190579
0.214431
0.239411
0.265393
0.292249
0.319856
0.348087
0.37681
0.40568
0.434518
0.463198
0.491602
0.519614
0.547124
0.574023
0.600206
0.625566
0.650014
0.673835
0.696928
0.719204
0.740571
0.760937
0.780205
0.792377
0.803715
0.814246
0.823987
0.832958
0.841181
0.84868
0.85548
0.861606
0.867087
0.87195
0.876226
0.879945
0.883138
0.885837
0.888074
0.889884
0.891298
0.892351
0.893056
0.893416
0.893464
0.893231
0.892745
0.891996
3.17105e-05
2.17447e-05
1.62716e-05
1.2906e-05
1.06652e-05
9.08341e-06
7.91626e-06
7.02518e-06
6.32737e-06
5.77276e-06
5.33374e-06
5.00256e-06
4.79425e-06
4.7555e-06
4.97993e-06
5.6301e-06
6.96765e-06
9.39259e-06
1.34955e-05
2.01221e-05
3.04364e-05
4.59901e-05
6.87985e-05
0.000101419
0.000147033
0.000209532
0.000293606
0.00040483
0.000549715
0.000735516
0.000970227
0.00126245
0.00162129
0.00205616
0.00257661
0.00319207
0.00391165
0.00474389
0.00569648
0.00677606
0.00798797
0.009336
0.0108222
0.0124468
0.0142081
0.0161019
0.0181219
0.0202567
0.0224926
0.0248127
0.0271976
0.0296247
0.0320687
0.0345015
0.0368917
0.0392049
0.0413905
0.0436114
0.0458649
0.0481393
0.0504218
0.0526991
0.0549577
0.0564298
0.0578465
0.0592061
0.0605067
0.0617469
0.0629258
0.0640431
0.0650986
0.0660927
0.0670262
0.0679002
0.068716
0.0694753
0.0701801
0.0708325
0.0714349
0.0719898
0.0724999
0.0729679
0.0733965
0.0737886
0.0741471
0.0744746
0.0747741
0.07507
3.17116e-05
2.17451e-05
1.62719e-05
1.29062e-05
1.06653e-05
9.08339e-06
7.91593e-06
7.02379e-06
6.32276e-06
5.75928e-06
5.2978e-06
4.9141e-06
4.59124e-06
4.31745e-06
4.08476e-06
3.88844e-06
3.72672e-06
3.60099e-06
3.51621e-06
3.48158e-06
3.51144e-06
3.62623e-06
3.8536e-06
4.22955e-06
4.7997e-06
5.62054e-06
6.76071e-06
8.30233e-06
1.03416e-05
1.29891e-05
1.63696e-05
2.06212e-05
2.58936e-05
3.23471e-05
4.01498e-05
4.94755e-05
6.04996e-05
7.33957e-05
8.833e-05
0.000105455
0.000124903
0.000146776
0.000171134
0.000197986
0.000227273
0.000258853
0.000292475
0.000327762
0.000364191
0.000401077
0.000437545
0.000472519
0.000504705
0.000532589
0.000554379
0.000568211
0.000582864
0.000598301
0.000614474
0.000631323
0.000648775
0.000666743
0.000685125
0.000697424
0.00070951
0.000721345
0.000732893
0.000744124
0.000755012
0.000765536
0.000775679
0.000785428
0.000794774
0.000803714
0.000812245
0.00082037
0.000828094
0.000835423
0.000842366
0.000848935
0.000855142
0.000861001
0.000866526
0.000871731
0.000876634
0.00088125
0.000885596
0.000889935
3.17128e-05
2.17455e-05
1.62721e-05
1.29064e-05
1.06654e-05
9.08347e-06
7.91599e-06
7.02382e-06
6.32274e-06
5.75913e-06
5.29736e-06
4.91295e-06
4.58857e-06
4.31163e-06
4.07279e-06
3.86499e-06
3.68282e-06
3.52208e-06
3.37947e-06
3.25241e-06
3.13885e-06
3.03723e-06
2.94635e-06
2.86535e-06
2.79367e-06
2.731e-06
2.67731e-06
2.6328e-06
2.59792e-06
2.57333e-06
2.5599e-06
2.55872e-06
2.57103e-06
2.59825e-06
2.64191e-06
2.7036e-06
2.785e-06
2.88769e-06
3.01322e-06
3.16288e-06
3.33766e-06
3.53809e-06
3.76404e-06
4.01451e-06
4.28741e-06
4.57926e-06
4.88488e-06
5.19709e-06
5.50651e-06
5.80134e-06
6.06729e-06
6.28769e-06
6.44386e-06
6.51513e-06
6.52497e-06
6.53497e-06
6.54497e-06
6.55481e-06
6.56431e-06
6.57327e-06
6.5815e-06
6.58878e-06
6.59487e-06
6.59912e-06
6.6027e-06
6.60557e-06
6.60775e-06
6.60924e-06
6.61007e-06
6.61026e-06
6.60986e-06
6.6089e-06
6.60742e-06
6.60548e-06
6.60312e-06
6.60037e-06
6.5973e-06
6.59395e-06
6.59034e-06
6.58653e-06
6.58255e-06
6.57844e-06
6.57422e-06
6.56993e-06
6.5656e-06
6.56125e-06
6.55691e-06
6.55458e-06
3.17139e-05
2.17459e-05
1.62724e-05
1.29065e-05
1.06655e-05
9.08355e-06
7.91604e-06
7.02386e-06
6.32277e-06
5.75916e-06
5.29737e-06
4.91296e-06
4.58856e-06
4.31159e-06
4.07268e-06
3.86478e-06
3.68242e-06
3.52134e-06
3.37818e-06
3.25022e-06
3.13527e-06
3.03154e-06
2.93755e-06
2.85205e-06
2.77403e-06
2.70259e-06
2.63701e-06
2.57664e-06
2.52095e-06
2.46946e-06
2.42177e-06
2.37753e-06
2.33642e-06
2.29819e-06
2.2626e-06
2.22943e-06
2.19851e-06
2.16967e-06
2.14278e-06
2.11768e-06
2.09427e-06
2.07243e-06
2.05205e-06
2.03303e-06
2.01524e-06
1.99859e-06
1.98295e-06
1.96818e-06
1.95413e-06
1.94067e-06
1.9276e-06
1.91477e-06
1.90204e-06
1.88993e-06
1.87841e-06
1.86743e-06
1.85698e-06
1.84702e-06
1.83752e-06
1.82847e-06
1.81982e-06
1.81158e-06
1.8037e-06
1.79869e-06
1.79397e-06
1.7895e-06
1.78528e-06
1.78129e-06
1.77751e-06
1.77395e-06
1.77057e-06
1.76739e-06
1.76438e-06
1.76153e-06
1.75884e-06
1.7563e-06
1.7539e-06
1.75163e-06
1.74948e-06
1.74745e-06
1.74554e-06
1.74372e-06
1.74201e-06
1.74038e-06
1.73885e-06
1.73739e-06
1.73602e-06
1.73472e-06
3.17146e-05
2.17462e-05
1.62726e-05
1.29066e-05
1.06656e-05
9.08358e-06
7.91606e-06
7.02388e-06
6.32278e-06
5.75916e-06
5.29738e-06
4.91296e-06
4.58856e-06
4.31159e-06
4.07268e-06
3.86478e-06
3.68242e-06
3.52134e-06
3.37817e-06
3.2502e-06
3.13525e-06
3.0315e-06
2.93749e-06
2.85197e-06
2.7739e-06
2.70241e-06
2.63675e-06
2.57629e-06
2.52046e-06
2.46879e-06
2.42088e-06
2.37636e-06
2.3349e-06
2.29624e-06
2.26013e-06
2.22634e-06
2.19468e-06
2.16498e-06
2.13708e-06
2.11084e-06
2.08613e-06
2.06284e-06
2.04086e-06
2.0201e-06
2.00048e-06
1.98192e-06
1.96434e-06
1.94769e-06
1.93189e-06
1.9169e-06
1.90266e-06
1.88913e-06
1.87627e-06
1.86404e-06
1.8524e-06
1.84132e-06
1.83077e-06
1.82071e-06
1.81113e-06
1.80199e-06
1.79328e-06
1.78498e-06
1.77705e-06
1.77201e-06
1.76726e-06
1.76276e-06
1.75852e-06
1.75451e-06
1.75072e-06
1.74714e-06
1.74376e-06
1.74056e-06
1.73754e-06
1.73469e-06
1.73199e-06
1.72945e-06
1.72704e-06
1.72476e-06
1.72261e-06
1.72058e-06
1.71866e-06
1.71684e-06
1.71512e-06
1.7135e-06
1.71196e-06
1.7105e-06
1.70913e-06
1.70782e-06
3.1715e-05
2.17463e-05
1.62726e-05
1.29067e-05
1.06656e-05
9.0836e-06
7.91608e-06
7.02388e-06
6.32279e-06
5.75917e-06
5.29738e-06
4.91297e-06
4.58856e-06
4.31159e-06
4.07269e-06
3.86478e-06
3.68242e-06
3.52134e-06
3.37817e-06
3.2502e-06
3.13525e-06
3.0315e-06
2.93749e-06
2.85197e-06
2.7739e-06
2.70241e-06
2.63675e-06
2.57628e-06
2.52045e-06
2.46879e-06
2.42088e-06
2.37635e-06
2.3349e-06
2.29624e-06
2.26012e-06
2.22633e-06
2.19467e-06
2.16496e-06
2.13705e-06
2.11081e-06
2.08609e-06
2.06279e-06
2.04081e-06
2.02004e-06
2.00042e-06
1.98185e-06
1.96426e-06
1.9476e-06
1.93179e-06
1.9168e-06
1.90256e-06
1.88903e-06
1.87616e-06
1.86393e-06
1.85229e-06
1.8412e-06
1.83064e-06
1.82058e-06
1.81099e-06
1.80185e-06
1.79313e-06
1.78481e-06
1.77687e-06
1.77182e-06
1.76706e-06
1.76255e-06
1.7583e-06
1.75428e-06
1.75047e-06
1.74688e-06
1.74348e-06
1.74027e-06
1.73724e-06
1.73437e-06
1.73165e-06
1.72909e-06
1.72666e-06
1.72437e-06
1.7222e-06
1.72015e-06
1.71821e-06
1.71638e-06
1.71464e-06
1.713e-06
1.71145e-06
1.70998e-06
1.70858e-06
1.70727e-06
3.1715e-05
2.17463e-05
1.62726e-05
1.29067e-05
1.06656e-05
9.0836e-06
7.91608e-06
7.02388e-06
6.32279e-06
5.75917e-06
5.29738e-06
4.91297e-06
4.58856e-06
4.31159e-06
4.07268e-06
3.86478e-06
3.68242e-06
3.52134e-06
3.37817e-06
3.2502e-06
3.13525e-06
3.0315e-06
2.93749e-06
2.85197e-06
2.7739e-06
2.70241e-06
2.63675e-06
2.57628e-06
2.52045e-06
2.46879e-06
2.42088e-06
2.37635e-06
2.3349e-06
2.29624e-06
2.26012e-06
2.22633e-06
2.19467e-06
2.16496e-06
2.13705e-06
2.11081e-06
2.08609e-06
2.06279e-06
2.04081e-06
2.02004e-06
2.00041e-06
1.98184e-06
1.96426e-06
1.94759e-06
1.93179e-06
1.91679e-06
1.90255e-06
1.88902e-06
1.87615e-06
1.86392e-06
1.85227e-06
1.84118e-06
1.83062e-06
1.82055e-06
1.81096e-06
1.80181e-06
1.79309e-06
1.78477e-06
1.77684e-06
1.7718e-06
1.76704e-06
1.76254e-06
1.7583e-06
1.7543e-06
1.75052e-06
1.74696e-06
1.74361e-06
1.74045e-06
1.73748e-06
1.73468e-06
1.73205e-06
1.72959e-06
1.72728e-06
1.72512e-06
1.7231e-06
1.72122e-06
1.71947e-06
1.71784e-06
1.71633e-06
1.71493e-06
1.71364e-06
1.71244e-06
1.71135e-06
1.71034e-06
3.17146e-05
2.17462e-05
1.62726e-05
1.29066e-05
1.06656e-05
9.08358e-06
7.91606e-06
7.02388e-06
6.32278e-06
5.75916e-06
5.29738e-06
4.91296e-06
4.58856e-06
4.31159e-06
4.07268e-06
3.86478e-06
3.68242e-06
3.52134e-06
3.37817e-06
3.2502e-06
3.13525e-06
3.0315e-06
2.93749e-06
2.85197e-06
2.7739e-06
2.70241e-06
2.63675e-06
2.57628e-06
2.52046e-06
2.46879e-06
2.42088e-06
2.37635e-06
2.3349e-06
2.29624e-06
2.26012e-06
2.22633e-06
2.19468e-06
2.16497e-06
2.13707e-06
2.11082e-06
2.08611e-06
2.06282e-06
2.04084e-06
2.02008e-06
2.00046e-06
1.98189e-06
1.96432e-06
1.94767e-06
1.93188e-06
1.9169e-06
1.90269e-06
1.88919e-06
1.87637e-06
1.86419e-06
1.85263e-06
1.84165e-06
1.83125e-06
1.8214e-06
1.81212e-06
1.80341e-06
1.79531e-06
1.78788e-06
1.78122e-06
1.77721e-06
1.77371e-06
1.77073e-06
1.76829e-06
1.76643e-06
1.76515e-06
1.7645e-06
1.76451e-06
1.76519e-06
1.76658e-06
1.7687e-06
1.77156e-06
1.77518e-06
1.77957e-06
1.78473e-06
1.79065e-06
1.79733e-06
1.80475e-06
1.81289e-06
1.82173e-06
1.83122e-06
1.84133e-06
1.85202e-06
1.86324e-06
1.87496e-06
3.17139e-05
2.17459e-05
1.62724e-05
1.29065e-05
1.06655e-05
9.08354e-06
7.91604e-06
7.02386e-06
6.32277e-06
5.75915e-06
5.29737e-06
4.91296e-06
4.58855e-06
4.31159e-06
4.07268e-06
3.86478e-06
3.68242e-06
3.52134e-06
3.37817e-06
3.25021e-06
3.13526e-06
3.03152e-06
2.93752e-06
2.85201e-06
2.77396e-06
2.7025e-06
2.63688e-06
2.57646e-06
2.5207e-06
2.46913e-06
2.42133e-06
2.37695e-06
2.33569e-06
2.29725e-06
2.26142e-06
2.22797e-06
2.19671e-06
2.1675e-06
2.14017e-06
2.1146e-06
2.09068e-06
2.06831e-06
2.04742e-06
2.02792e-06
2.00977e-06