/*--------------------------------*- C++ -*----------------------------------*\
| =========                 |                                                 |
| \\      /  F ield         | OpenFOAM: The Open Source CFD Toolbox           |
|  \\    /   O peration     | Version:  5.x                                   |
|   \\  /    A nd           | Web:      www.OpenFOAM.org                      |
|    \\/     M anipulation  |                                                 |
\*---------------------------------------------------------------------------*/
FoamFile
{
    version     2.0;
    format      ascii;
    class       volScalarField;
    location    "500";
    object      nut;
}
// * * * * * * * * * * * * * * * * * * * * * * * * * * * * * * * * * * * * * //

dimensions      [0 2 -1 0 0 0 0];

internalField   nonuniform List<scalar> 
20540
(
5.56952e-09
7.19849e-09
5.56952e-09
7.34248e-09
5.56952e-09
7.72603e-09
5.56952e-09
8.34408e-09
5.56952e-09
9.09696e-09
5.56952e-09
9.8347e-09
5.56952e-09
1.03787e-08
5.56952e-09
1.05659e-08
5.56952e-09
1.03223e-08
5.56952e-09
9.69641e-09
5.56952e-09
8.70074e-09
5.56952e-09
7.48945e-09
5.56952e-09
6.41938e-09
5.56952e-09
5.73599e-09
5.56952e-09
5.43712e-09
5.56952e-09
5.34968e-09
5.56952e-09
5.33092e-09
5.56952e-09
5.32767e-09
5.56952e-09
5.32719e-09
5.56952e-09
5.32714e-09
5.56952e-09
5.32713e-09
5.56952e-09
5.32713e-09
5.56952e-09
5.32714e-09
5.56952e-09
5.32714e-09
5.56952e-09
5.32714e-09
5.56952e-09
5.32715e-09
5.56952e-09
5.32716e-09
5.56952e-09
5.32716e-09
5.56952e-09
5.32717e-09
5.56952e-09
5.32718e-09
5.56952e-09
5.32718e-09
5.56952e-09
5.32718e-09
5.56952e-09
5.32718e-09
5.56952e-09
5.32718e-09
5.56952e-09
5.32718e-09
5.56952e-09
5.32717e-09
5.56952e-09
5.32716e-09
5.56952e-09
5.32716e-09
5.56952e-09
5.32715e-09
5.56952e-09
5.32714e-09
5.56952e-09
5.32714e-09
5.56952e-09
5.32714e-09
5.56952e-09
5.32713e-09
5.56952e-09
5.32713e-09
5.56952e-09
5.32713e-09
5.56952e-09
5.32715e-09
5.56952e-09
5.32734e-09
5.56952e-09
5.32865e-09
5.56952e-09
5.33659e-09
5.56952e-09
5.37653e-09
5.56952e-09
5.53415e-09
5.56952e-09
5.97253e-09
5.56952e-09
6.80251e-09
5.56952e-09
7.92927e-09
5.56952e-09
9.07094e-09
5.56952e-09
9.91501e-09
5.56952e-09
1.04256e-08
5.56952e-09
1.05588e-08
5.56952e-09
1.02991e-08
5.56952e-09
9.72946e-09
5.56952e-09
9.00979e-09
5.56952e-09
8.29731e-09
5.56952e-09
7.72381e-09
5.56952e-09
7.37252e-09
5.56952e-09
7.23864e-09
3.34357e-09
3.63551e-09
3.2482e-09
2.94935e-09
2.73023e-09
2.56969e-09
2.44771e-09
2.35228e-09
2.27522e-09
2.2119e-09
2.15888e-09
2.11404e-09
2.07542e-09
2.04194e-09
2.01273e-09
1.98689e-09
1.96393e-09
1.94347e-09
1.92515e-09
1.90861e-09
1.89359e-09
1.87994e-09
1.86752e-09
1.85621e-09
1.84588e-09
1.83642e-09
1.82772e-09
1.81965e-09
1.81217e-09
1.80522e-09
1.79877e-09
1.79277e-09
1.78718e-09
1.78198e-09
1.77713e-09
1.77262e-09
1.76841e-09
1.76449e-09
1.76083e-09
1.75742e-09
1.75425e-09
1.7513e-09
1.74858e-09
1.74609e-09
1.74383e-09
1.74181e-09
1.74005e-09
1.73856e-09
1.73737e-09
1.7365e-09
1.73598e-09
1.73587e-09
1.73619e-09
1.737e-09
1.73836e-09
1.74033e-09
1.74298e-09
1.7464e-09
1.75066e-09
1.75587e-09
1.76214e-09
1.76971e-09
1.77874e-09
1.78545e-09
1.79274e-09
1.8007e-09
1.80913e-09
1.81804e-09
1.82749e-09
1.83753e-09
1.84816e-09
1.85944e-09
1.87138e-09
1.88405e-09
1.89748e-09
1.91176e-09
1.92698e-09
1.94328e-09
1.96088e-09
1.98007e-09
2.00135e-09
2.02557e-09
2.05437e-09
2.09143e-09
2.14587e-09
2.25112e-09
2.52964e-09
3.94552e-09
6.01581e-07
6.7928e-07
6.15012e-07
5.62774e-07
5.23828e-07
4.95029e-07
4.73004e-07
4.55691e-07
4.41659e-07
4.30091e-07
4.2038e-07
4.12148e-07
4.05046e-07
3.9888e-07
3.93489e-07
3.88717e-07
3.84472e-07
3.80684e-07
3.7729e-07
3.74223e-07
3.71438e-07
3.68903e-07
3.66596e-07
3.64494e-07
3.62574e-07
3.60816e-07
3.59195e-07
3.57694e-07
3.56301e-07
3.55006e-07
3.53804e-07
3.52684e-07
3.51643e-07
3.50672e-07
3.49768e-07
3.48925e-07
3.48139e-07
3.47407e-07
3.46724e-07
3.46088e-07
3.45495e-07
3.44945e-07
3.44436e-07
3.4397e-07
3.43547e-07
3.43168e-07
3.42837e-07
3.42556e-07
3.42331e-07
3.42166e-07
3.42066e-07
3.42038e-07
3.42091e-07
3.42234e-07
3.42478e-07
3.42835e-07
3.43317e-07
3.43939e-07
3.44716e-07
3.45667e-07
3.46811e-07
3.48194e-07
3.49831e-07
3.5104e-07
3.52368e-07
3.53822e-07
3.55357e-07
3.56977e-07
3.58692e-07
3.6051e-07
3.62434e-07
3.64473e-07
3.66627e-07
3.68909e-07
3.71324e-07
3.73886e-07
3.76612e-07
3.79525e-07
3.82659e-07
3.86066e-07
3.8983e-07
3.94096e-07
3.99141e-07
4.05591e-07
4.1499e-07
4.32954e-07
4.77711e-07
6.4966e-07
8.31859e-06
1.01532e-05
9.68874e-06
9.16351e-06
8.73541e-06
8.40439e-06
8.14361e-06
7.93414e-06
7.76141e-06
7.61704e-06
7.49443e-06
7.3895e-06
7.29819e-06
7.21835e-06
7.14814e-06
7.0856e-06
7.0297e-06
6.9796e-06
6.93456e-06
6.89369e-06
6.85643e-06
6.82243e-06
6.79139e-06
6.76305e-06
6.73711e-06
6.7133e-06
6.69131e-06
6.67092e-06
6.65195e-06
6.6343e-06
6.61789e-06
6.6026e-06
6.58835e-06
6.57506e-06
6.56266e-06
6.55109e-06
6.5403e-06
6.53022e-06
6.52081e-06
6.51203e-06
6.50383e-06
6.49621e-06
6.48915e-06
6.48266e-06
6.47675e-06
6.47144e-06
6.46675e-06
6.46274e-06
6.45945e-06
6.45696e-06
6.45528e-06
6.45453e-06
6.4548e-06
6.45622e-06
6.45894e-06
6.46308e-06
6.4688e-06
6.47628e-06
6.4857e-06
6.4973e-06
6.51125e-06
6.52826e-06
6.54784e-06
6.56187e-06
6.5778e-06
6.59555e-06
6.61424e-06
6.63381e-06
6.65437e-06
6.67605e-06
6.69888e-06
6.72292e-06
6.7482e-06
6.7748e-06
6.80276e-06
6.83223e-06
6.86332e-06
6.89626e-06
6.93135e-06
6.9691e-06
7.01028e-06
7.05633e-06
7.10993e-06
7.17726e-06
7.27281e-06
7.44848e-06
7.83032e-06
8.96453e-06
2.1461e-05
2.88991e-05
2.9556e-05
2.8989e-05
2.83177e-05
2.7741e-05
2.72631e-05
2.68683e-05
2.6536e-05
2.62544e-05
2.60124e-05
2.58036e-05
2.56204e-05
2.54594e-05
2.53172e-05
2.51898e-05
2.50755e-05
2.49727e-05
2.48801e-05
2.47957e-05
2.47185e-05
2.46477e-05
2.4583e-05
2.45238e-05
2.44696e-05
2.44198e-05
2.43737e-05
2.43308e-05
2.4291e-05
2.42539e-05
2.42194e-05
2.41872e-05
2.41573e-05
2.41294e-05
2.41033e-05
2.40789e-05
2.40561e-05
2.40348e-05
2.40148e-05
2.39961e-05
2.39785e-05
2.39621e-05
2.39468e-05
2.39326e-05
2.39195e-05
2.39076e-05
2.38968e-05
2.38873e-05
2.3879e-05
2.38721e-05
2.38665e-05
2.38623e-05
2.38597e-05
2.38588e-05
2.38598e-05
2.3863e-05
2.38686e-05
2.38767e-05
2.38876e-05
2.39017e-05
2.3919e-05
2.39412e-05
2.39649e-05
2.39796e-05
2.39957e-05
2.40174e-05
2.40423e-05
2.4068e-05
2.40943e-05
2.41216e-05
2.415e-05
2.41796e-05
2.42105e-05
2.42428e-05
2.42765e-05
2.43118e-05
2.43489e-05
2.43882e-05
2.443e-05
2.44753e-05
2.45256e-05
2.45836e-05
2.46552e-05
2.47537e-05
2.49139e-05
2.52524e-05
2.61769e-05
2.91514e-05
3.8136e-05
5.40201e-05
5.78481e-05
5.80107e-05
5.73654e-05
5.66344e-05
5.59595e-05
5.53768e-05
5.48721e-05
5.44366e-05
5.40571e-05
5.37268e-05
5.34342e-05
5.31754e-05
5.29459e-05
5.27392e-05
5.25528e-05
5.2385e-05
5.22334e-05
5.20948e-05
5.19674e-05
5.18505e-05
5.17435e-05
5.16454e-05
5.15555e-05
5.14728e-05
5.13961e-05
5.13247e-05
5.12582e-05
5.11963e-05
5.11387e-05
5.10851e-05
5.10351e-05
5.09885e-05
5.0945e-05
5.09044e-05
5.08664e-05
5.08307e-05
5.07973e-05
5.07658e-05
5.07362e-05
5.07085e-05
5.06826e-05
5.06584e-05
5.0636e-05
5.06155e-05
5.05968e-05
5.05799e-05
5.05651e-05
5.05523e-05
5.05413e-05
5.05323e-05
5.05254e-05
5.05209e-05
5.0519e-05
5.05201e-05
5.05244e-05
5.05321e-05
5.05436e-05
5.05592e-05
5.0579e-05
5.06058e-05
5.06342e-05
5.06509e-05
5.06648e-05
5.06864e-05
5.07148e-05
5.07454e-05
5.07768e-05
5.08092e-05
5.08428e-05
5.0878e-05
5.09147e-05
5.09534e-05
5.09942e-05
5.10376e-05
5.10841e-05
5.11344e-05
5.11898e-05
5.12522e-05
5.13252e-05
5.14149e-05
5.15337e-05
5.17095e-05
5.20112e-05
5.26487e-05
5.43844e-05
5.83705e-05
5.67282e-05
8.34298e-05
9.32594e-05
9.56364e-05
9.56348e-05
9.50389e-05
9.42849e-05
9.35909e-05
9.29662e-05
9.24144e-05
9.1925e-05
9.1494e-05
9.11078e-05
9.07638e-05
9.04571e-05
9.01788e-05
8.99268e-05
8.96994e-05
8.94936e-05
8.93048e-05
8.91308e-05
8.89708e-05
8.88243e-05
8.869e-05
8.85669e-05
8.84534e-05
8.8348e-05
8.82495e-05
8.81575e-05
8.80717e-05
8.79917e-05
8.79173e-05
8.7848e-05
8.77833e-05
8.77231e-05
8.76668e-05
8.76142e-05
8.75649e-05
8.75187e-05
8.74752e-05
8.74343e-05
8.73958e-05
8.73599e-05
8.73264e-05
8.72954e-05
8.72669e-05
8.72411e-05
8.72179e-05
8.71976e-05
8.71802e-05
8.71653e-05
8.71531e-05
8.7144e-05
8.71384e-05
8.71366e-05
8.71389e-05
8.71459e-05
8.71579e-05
8.71754e-05
8.7199e-05
8.72284e-05
8.72695e-05
8.73087e-05
8.7331e-05
8.73574e-05
8.7388e-05
8.74183e-05
8.74536e-05
8.74912e-05
8.75307e-05
8.75723e-05
8.76164e-05
8.76633e-05
8.77136e-05
8.77678e-05
8.78269e-05
8.78919e-05
8.79647e-05
8.80475e-05
8.81445e-05
8.82618e-05
8.84108e-05
8.86134e-05
8.89169e-05
8.93656e-05
9.01424e-05
9.17121e-05
9.61739e-05
7.56835e-05
0.000114783
0.000133615
0.000139911
0.000140952
0.000140823
0.000140323
0.000139729
0.000139126
0.000138557
0.000138031
0.000137554
0.000137117
0.00013672
0.000136363
0.000136035
0.000135735
0.000135462
0.000135215
0.000134986
0.000134774
0.000134578
0.000134398
0.000134233
0.000134082
0.000133942
0.000133812
0.00013369
0.000133575
0.000133468
0.000133368
0.000133275
0.000133188
0.000133108
0.000133032
0.000132962
0.000132897
0.000132836
0.000132778
0.000132724
0.000132672
0.000132624
0.000132579
0.000132536
0.000132497
0.000132461
0.000132428
0.000132399
0.000132373
0.000132351
0.000132332
0.000132315
0.000132303
0.000132295
0.000132291
0.000132292
0.000132299
0.000132311
0.00013233
0.000132357
0.00013239
0.000132439
0.000132484
0.00013251
0.00013254
0.000132579
0.000132627
0.000132681
0.000132739
0.000132801
0.000132867
0.000132937
0.000133011
0.00013309
0.000133176
0.000133268
0.000133369
0.000133481
0.000133606
0.000133748
0.000133916
0.000134122
0.000134387
0.000134757
0.000135327
0.000136381
0.000138361
0.000143548
9.35927e-05
0.000146059
0.000176476
0.000189989
0.000193979
0.000195344
0.000195658
0.000195534
0.000195209
0.000194811
0.000194387
0.000193974
0.000193569
0.000193189
0.000192838
0.000192505
0.000192195
0.00019191
0.00019165
0.000191405
0.000191176
0.000190962
0.000190765
0.000190584
0.000190418
0.000190264
0.000190119
0.000189982
0.000189853
0.000189732
0.000189619
0.000189514
0.000189416
0.000189325
0.00018924
0.000189161
0.000189087
0.000189018
0.000188953
0.000188892
0.000188834
0.000188779
0.000188727
0.000188679
0.000188634
0.000188593
0.000188556
0.000188523
0.000188494
0.00018847
0.000188449
0.000188431
0.000188419
0.000188411
0.000188408
0.000188412
0.000188422
0.000188439
0.000188465
0.0001885
0.000188544
0.000188607
0.000188667
0.000188704
0.000188745
0.000188795
0.000188855
0.000188925
0.000189001
0.000189083
0.000189172
0.000189267
0.00018937
0.000189481
0.000189602
0.000189734
0.000189879
0.000190041
0.000190224
0.000190434
0.000190681
0.000190983
0.000191367
0.000191891
0.000192665
0.000194002
0.000196319
0.00020196
0.00010896
0.000175374
0.000219345
0.000244261
0.000254063
0.000258369
0.000260441
0.000261433
0.000261845
0.000261958
0.000261897
0.000261752
0.000261543
0.000261312
0.000261076
0.00026083
0.000260587
0.000260357
0.000260141
0.000259931
0.000259727
0.000259534
0.000259354
0.000259189
0.000259035
0.000258893
0.000258756
0.000258625
0.0002585
0.000258382
0.000258271
0.000258167
0.000258071
0.000257982
0.000257899
0.000257822
0.00025775
0.000257683
0.00025762
0.000257559
0.000257502
0.000257448
0.000257397
0.000257349
0.000257305
0.000257265
0.000257229
0.000257198
0.000257172
0.000257151
0.000257134
0.000257122
0.000257114
0.000257113
0.000257119
0.000257132
0.000257153
0.000257184
0.000257225
0.000257279
0.000257344
0.000257435
0.000257522
0.000257581
0.000257646
0.00025772
0.000257806
0.000257904
0.000258012
0.000258129
0.000258256
0.000258394
0.000258543
0.000258705
0.000258882
0.000259075
0.000259289
0.000259526
0.000259794
0.0002601
0.000260458
0.000260887
0.000261423
0.000262132
0.000263132
0.00026475
0.000267343
0.000273226
0.000119504
0.000200448
0.000259562
0.000298131
0.000319497
0.000328958
0.000334291
0.000337455
0.000339373
0.000340576
0.000341325
0.000341804
0.000342077
0.00034223
0.000342307
0.000342312
0.000342278
0.000342224
0.000342158
0.000342074
0.000341977
0.000341876
0.000341778
0.000341685
0.000341598
0.000341514
0.000341429
0.000341342
0.000341256
0.000341173
0.000341094
0.000341019
0.000340951
0.000340887
0.000340828
0.000340774
0.000340723
0.000340676
0.000340631
0.000340588
0.000340547
0.000340507
0.00034047
0.000340435
0.000340404
0.000340376
0.000340353
0.000340335
0.000340321
0.000340314
0.000340312
0.000340315
0.000340324
0.00034034
0.000340365
0.000340399
0.000340445
0.000340502
0.000340574
0.000340662
0.000340765
0.000340903
0.000341039
0.000341135
0.00034124
0.000341355
0.000341485
0.000341631
0.000341789
0.000341962
0.000342149
0.000342351
0.00034257
0.000342807
0.000343065
0.000343346
0.000343656
0.000343998
0.000344381
0.000344815
0.000345315
0.000345906
0.000346626
0.000347547
0.000348792
0.000350681
0.000353502
0.000359455
0.000117953
0.000218012
0.000293983
0.000348241
0.000384528
0.000404957
0.000415828
0.000422818
0.000427468
0.000430703
0.000432998
0.000434692
0.000435926
0.000436861
0.000437584
0.000438123
0.000438538
0.00043887
0.000439137
0.000439339
0.00043949
0.000439607
0.000439703
0.000439785
0.000439855
0.000439913
0.000439955
0.000439981
0.000439996
0.000440005
0.000440011
0.000440015
0.000440019
0.000440023
0.000440027
0.000440032
0.000440038
0.000440043
0.000440048
0.00044005
0.000440051
0.000440051
0.00044005
0.000440051
0.000440053
0.000440058
0.000440066
0.000440079
0.000440097
0.000440122
0.000440151
0.000440187
0.00044023
0.000440281
0.000440344
0.000440418
0.000440507
0.000440611
0.000440734
0.000440879
0.000441046
0.000441257
0.000441471
0.000441622
0.00044179
0.000441968
0.000442165
0.000442382
0.000442617
0.00044287
0.000443142
0.000443436
0.000443751
0.000444092
0.000444461
0.000444861
0.000445297
0.000445777
0.000446307
0.000446902
0.000447577
0.000448361
0.000449295
0.000450453
0.000451954
0.000454097
0.000457104
0.000462994
0.000100246
0.000223986
0.000318588
0.000390474
0.000443129
0.000479637
0.000502058
0.00051536
0.000524619
0.000531355
0.000536362
0.000540218
0.000543187
0.000545549
0.000547464
0.000549
0.000550264
0.000551328
0.000552234
0.000552988
0.000553623
0.000554168
0.000554648
0.000555075
0.000555458
0.000555799
0.000556095
0.00055635
0.000556573
0.000556772
0.000556952
0.000557117
0.000557271
0.000557415
0.00055755
0.000557678
0.000557798
0.000557911
0.000558015
0.000558111
0.000558199
0.00055828
0.000558357
0.00055843
0.000558502
0.000558573
0.000558646
0.000558721
0.000558801
0.000558887
0.000558977
0.000559073
0.000559177
0.000559291
0.000559419
0.000559561
0.000559721
0.000559902
0.000560107
0.000560341
0.000560604
0.000560923
0.000561251
0.000561484
0.000561739
0.000562008
0.0005623
0.000562617
0.000562956
0.000563319
0.000563707
0.000564123
0.000564567
0.000565043
0.000565554
0.000566104
0.0005667
0.000567349
0.00056806
0.000568847
0.000569729
0.000570734
0.000571907
0.000573317
0.000575077
0.000577451
0.000580603
0.000586327
7.32322e-05
0.000216555
0.00032827
0.000419435
0.000490254
0.000544006
0.000583287
0.000610754
0.000627374
0.000639836
0.000649333
0.000656822
0.000662735
0.000667539
0.000671513
0.000674786
0.00067754
0.000679895
0.000681929
0.000683669
0.000685171
0.000686489
0.000687662
0.000688714
0.000689663
0.000690517
0.000691276
0.00069195
0.000692556
0.000693106
0.00069361
0.000694075
0.000694507
0.00069491
0.000695287
0.00069564
0.000695972
0.000696282
0.000696571
0.000696839
0.000697089
0.000697322
0.000697542
0.00069775
0.00069795
0.000698144
0.000698334
0.000698523
0.000698713
0.000698907
0.000699104
0.000699303
0.000699511
0.00069973
0.000699964
0.000700216
0.000700488
0.000700787
0.000701115
0.000701481
0.000701884
0.000702355
0.000702845
0.000703191
0.000703565
0.000703956
0.000704375
0.000704823
0.000705299
0.000705805
0.000706342
0.000706912
0.000707516
0.00070816
0.000708846
0.00070958
0.000710367
0.000711216
0.000712136
0.000713144
0.000714258
0.000715506
0.000716932
0.0007186
0.000720607
0.000723177
0.000726433
0.000731916
4.23735e-05
0.000195192
0.000317694
0.000428166
0.000519082
0.000591793
0.000649109
0.00069355
0.000726978
0.000750762
0.000767368
0.000780706
0.000791387
0.00080019
0.000807563
0.000813721
0.000818963
0.000823485
0.000827421
0.00083083
0.000833809
0.000836446
0.000838805
0.000840928
0.000842847
0.000844583
0.00084614
0.00084754
0.00084881
0.000849971
0.000851039
0.000852026
0.000852943
0.000853798
0.000854595
0.000855342
0.000856042
0.000856697
0.000857307
0.000857876
0.000858407
0.000858904
0.000859373
0.000859818
0.000860241
0.000860648
0.000861041
0.000861425
0.000861803
0.000862179
0.000862556
0.000862927
0.000863304
0.000863692
0.000864094
0.000864515
0.000864959
0.000865434
0.000865943
0.000866498
0.000867098
0.00086778
0.000868488
0.000868986
0.000869515
0.000870066
0.000870647
0.000871262
0.00087191
0.000872592
0.00087331
0.000874067
0.000874865
0.000875708
0.000876599
0.000877544
0.000878549
0.000879624
0.000880777
0.000882025
0.000883386
0.000884888
0.000886567
0.00088848
0.000890708
0.000893426
0.000896733
0.000901924
1.70099e-05
0.000139837
0.000286183
0.000409533
0.000520957
0.000614552
0.000691546
0.000754474
0.000805631
0.000846444
0.000879032
0.000904634
0.000922713
0.000937828
0.000950624
0.00096139
0.00097063
0.000978657
0.000985689
0.000991822
0.00099722
0.00100203
0.00100634
0.00101023
0.00101375
0.00101694
0.00101983
0.00102243
0.00102481
0.00102699
0.00102901
0.00103087
0.0010326
0.00103421
0.00103571
0.00103712
0.00103843
0.00103966
0.00104081
0.00104189
0.00104289
0.00104383
0.00104472
0.00104556
0.00104636
0.00104712
0.00104785
0.00104856
0.00104925
0.00104992
0.00105059
0.00105124
0.00105189
0.00105254
0.0010532
0.00105388
0.00105458
0.00105532
0.00105609
0.00105691
0.00105778
0.00105875
0.00105975
0.00106044
0.00106117
0.00106192
0.00106271
0.00106353
0.00106438
0.00106528
0.00106621
0.00106718
0.0010682
0.00106927
0.00107039
0.00107157
0.00107281
0.00107413
0.00107553
0.00107702
0.00107863
0.00108037
0.00108229
0.00108441
0.00108681
0.00108961
0.0010929
0.00109776
4.44982e-06
7.5956e-05
0.000232166
0.000364155
0.000488012
0.000602119
0.000699937
0.000783142
0.000853396
0.000912513
0.000962313
0.0010039
0.00103824
0.00106727
0.0010914
0.00110924
0.00112469
0.00113822
0.00115014
0.00116058
0.00116981
0.00117807
0.0011855
0.00119221
0.00119831
0.00120385
0.00120887
0.00121343
0.0012176
0.00122144
0.00122498
0.00122826
0.00123131
0.00123416
0.00123681
0.00123929
0.00124161
0.00124377
0.0012458
0.00124769
0.00124947
0.00125114
0.00125271
0.00125419
0.0012556
0.00125694
0.00125823
0.00125946
0.00126065
0.0012618
0.00126293
0.00126402
0.00126509
0.00126616
0.00126722
0.00126829
0.00126938
0.00127049
0.00127164
0.00127283
0.00127408
0.00127542
0.00127681
0.00127776
0.00127874
0.00127974
0.00128077
0.00128184
0.00128294
0.00128408
0.00128525
0.00128647
0.00128774
0.00128905
0.00129041
0.00129184
0.00129332
0.00129488
0.00129652
0.00129824
0.00130008
0.00130203
0.00130413
0.00130641
0.0013089
0.00131171
0.0013149
0.00131936
8.46852e-07
2.51254e-05
0.000138156
0.000300004
0.000422853
0.000546881
0.000662798
0.000766307
0.000856975
0.000935975
0.00100443
0.00106357
0.00111502
0.00115968
0.00119842
0.00123159
0.00126045
0.00128584
0.00130837
0.00132579
0.0013409
0.00135448
0.00136675
0.00137787
0.001388
0.00139722
0.00140558
0.0014132
0.0014202
0.00142664
0.00143261
0.00143814
0.00144329
0.00144809
0.00145256
0.00145675
0.00146066
0.00146433
0.00146775
0.00147095
0.00147395
0.00147677
0.00147943
0.00148195
0.00148433
0.00148659
0.00148875
0.00149081
0.0014928
0.00149471
0.00149655
0.00149834
0.00150007
0.00150177
0.00150344
0.0015051
0.00150676
0.00150842
0.00151011
0.00151183
0.0015136
0.00151545
0.00151734
0.00151861
0.00151991
0.00152122
0.00152256
0.00152392
0.0015253
0.00152672
0.00152817
0.00152965
0.00153118
0.00153274
0.00153435
0.00153602
0.00153773
0.00153951
0.00154135
0.00154327
0.00154528
0.00154738
0.00154959
0.00155192
0.00155441
0.00155711
0.00156009
0.00156409
1.32628e-07
4.46319e-06
5.15083e-05
0.000176036
0.000334483
0.000454718
0.000576855
0.000692917
0.000802178
0.000900963
0.000988537
0.0010669
0.00113682
0.00119888
0.00125391
0.00130299
0.00134666
0.00138568
0.0014207
0.00145173
0.0014794
0.00150426
0.00152673
0.00154715
0.0015658
0.00158239
0.00159579
0.00160808
0.0016194
0.00162986
0.00163956
0.00164857
0.00165696
0.00166478
0.00167209
0.00167893
0.00168534
0.00169132
0.00169691
0.00170214
0.00170705
0.00171167
0.00171603
0.00172015
0.00172405
0.00172775
0.00173127
0.00173463
0.00173784
0.00174093
0.00174389
0.00174675
0.0017495
0.00175216
0.00175476
0.0017573
0.0017598
0.00176227
0.00176473
0.0017672
0.00176969
0.00177223
0.00177479
0.00177649
0.00177819
0.00177989
0.00178159
0.0017833
0.00178501
0.00178674
0.00178849
0.00179025
0.00179204
0.00179386
0.0017957
0.00179757
0.00179949
0.00180144
0.00180343
0.00180547
0.00180756
0.0018097
0.0018119
0.00181416
0.0018165
0.00181897
0.00182162
0.00182502
2.09673e-08
5.3076e-07
9.1745e-06
6.22639e-05
0.000178034
0.000324118
0.000455749
0.000569869
0.000685893
0.000796317
0.000898634
0.000995858
0.00108438
0.00116436
0.00123682
0.00130282
0.0013628
0.00141729
0.00146676
0.00151194
0.00155302
0.00159041
0.00162455
0.00165585
0.00168464
0.00171111
0.00173527
0.00175743
0.00177786
0.00179676
0.00181426
0.00183051
0.00184564
0.00185974
0.00187291
0.00188524
0.00189681
0.00190672
0.00191555
0.00192385
0.00193165
0.001939
0.00194594
0.0019525
0.00195872
0.00196462
0.00197022
0.00197556
0.00198065
0.00198552
0.00199019
0.00199467
0.00199896
0.00200309
0.00200707
0.00201093
0.00201469
0.00201835
0.00202195
0.00202549
0.00202899
0.00203247
0.00203592
0.00203819
0.00204041
0.00204259
0.00204474
0.00204686
0.00204896
0.00205105
0.00205311
0.00205517
0.00205722
0.00205927
0.00206131
0.00206336
0.0020654
0.00206745
0.0020695
0.00207155
0.0020736
0.00207565
0.00207769
0.00207972
0.00208175
0.00208383
0.002086
0.00208862
6.75843e-09
5.38072e-08
9.16232e-07
9.58903e-06
5.12466e-05
0.000142622
0.000267495
0.000410315
0.000528642
0.000633776
0.000740137
0.000845753
0.000945519
0.00103848
0.0011263
0.00120883
0.00128534
0.00135586
0.00142069
0.00148045
0.00153567
0.00158674
0.00163405
0.00167793
0.00171863
0.00175647
0.00179177
0.00182458
0.00185508
0.00188342
0.0019098
0.00193439
0.00195736
0.00197887
0.00199904
0.00201799
0.00203582
0.00205253
0.00206819
0.0020829
0.00209674
0.00210979
0.0021221
0.00213375
0.00214478
0.00215525
0.00216519
0.00217465
0.00218366
0.00219226
0.00220048
0.00220837
0.00221591
0.00222335
0.00223048
0.00223734
0.00224395
0.00225036
0.0022566
0.00226269
0.00226813
0.0022729
0.00227754
0.00228055
0.00228344
0.00228625
0.00228896
0.0022916
0.00229416
0.00229665
0.00229908
0.00230146
0.00230377
0.00230605
0.00230827
0.00231044
0.00231257
0.00231463
0.00231663
0.00231857
0.00232044
0.00232223
0.00232394
0.00232557
0.00232713
0.00232866
0.00233019
0.00233183
5.28694e-09
8.69034e-09
7.28233e-08
7.80426e-07
5.79891e-06
2.79774e-05
8.42025e-05
0.000175871
0.000289258
0.000416455
0.000551437
0.0006428
0.000736527
0.000830594
0.000924127
0.00101528
0.00110187
0.00118329
0.00125979
0.00133188
0.00140042
0.00146514
0.00152605
0.00158319
0.00163666
0.00168667
0.00173353
0.00177743
0.00181847
0.00185691
0.00189298
0.00192692
0.00195888
0.00198903
0.00201748
0.00204436
0.00206977
0.00209387
0.00211672
0.00213837
0.00215886
0.00217826
0.00219663
0.00221405
0.00223058
0.00224628
0.0022612
0.0022754
0.0022889
0.00230177
0.00231405
0.00232579
0.00233699
0.00234789
0.00235848
0.00236861
0.00237832
0.00238766
0.00239668
0.00240539
0.00241389
0.00242185
0.00242968
0.00243597
0.00244185
0.00244682
0.00245198
0.00245723
0.0024625
0.00246788
0.00247347
0.00247934
0.0024856
0.00249237
0.00249983
0.00250352
0.00250565
0.00250764
0.00250948
0.00251118
0.00251273
0.00251412
0.00251536
0.00251643
0.00251738
0.00251823
0.00251899
0.00251946
5.16361e-09
5.24779e-09
8.96164e-09
5.15833e-08
3.71137e-07
2.12367e-06
9.42343e-06
3.16809e-05
7.79619e-05
0.000149204
0.000241089
0.00034346
0.000454756
0.000572529
0.000677335
0.000756592
0.000836271
0.000915571
0.000993885
0.00107076
0.00114619
0.00121895
0.0012884
0.0013543
0.00141669
0.00147577
0.00153184
0.00158512
0.00163516
0.00168297
0.00172862
0.00177215
0.00181359
0.00185302
0.00189048
0.00192604
0.0019598
0.00199185
0.0020223
0.00205123
0.00207872
0.00210484
0.00212967
0.00215327
0.00217569
0.00219699
0.00221723
0.00223648
0.00225482
0.00227231
0.00228902
0.00230502
0.00232034
0.00233498
0.00234934
0.00236317
0.00237638
0.00238904
0.00240119
0.00241286
0.00242417
0.00243484
0.00244511
0.00245318
0.00246091
0.00246744
0.00247408
0.0024808
0.00248753
0.00249436
0.0025014
0.00250877
0.00251658
0.00252499
0.0025342
0.00254441
0.00255588
0.0025689
0.00258385
0.0026009
0.00260215
0.00260311
0.0026038
0.00260426
0.00260452
0.00260462
0.00260455
0.00260373
5.1553e-09
5.03611e-09
5.11561e-09
7.07496e-09
2.24497e-08
1.09092e-07
4.98594e-07
1.96873e-06
6.60395e-06
1.86739e-05
4.39669e-05
8.53838e-05
0.000142437
0.000212961
0.000293216
0.000379365
0.000470672
0.000566095
0.000664204
0.00076346
0.000830166
0.000893414
0.000955995
0.00101769
0.00107828
0.00113764
0.00119566
0.00125223
0.00130704
0.00136047
0.00141216
0.0014619
0.00150959
0.00155522
0.0015988
0.00164038
0.00168006
0.00171792
0.00175407
0.00178862
0.00182166
0.00185327
0.00188354
0.00191238
0.00193977
0.00196579
0.00199054
0.00201429
0.00203711
0.00205906
0.00208017
0.00210047
0.00212
0.00213875
0.00215685
0.00217459
0.00219163
0.00220794
0.00222357
0.00223855
0.00225294
0.00226655
0.00227934
0.00228904
0.0022985
0.00230654
0.00231452
0.00232249
0.00233043
0.0023384
0.0023465
0.00235488
0.00236365
0.002373
0.0023831
0.00239422
0.00240656
0.00242032
0.00243569
0.00245277
0.00247152
0.00249173
0.00251292
0.00252907
0.00252883
0.00252832
0.00252752
0.00252557
5.15486e-09
5.02568e-09
4.93127e-09
4.92683e-09
5.44702e-09
8.71591e-09
2.37787e-08
8.18791e-08
2.75012e-07
8.43233e-07
2.353e-06
5.92451e-06
1.34446e-05
2.74123e-05
4.9985e-05
8.19001e-05
0.000122732
0.000171466
0.000227023
0.000288503
0.000353018
0.000419995
0.0004891
0.000559942
0.000632046
0.000704861
0.000777812
0.000850375
0.000922033
0.000967422
0.00101173
0.001055
0.00109727
0.0011385
0.00117871
0.00121786
0.00125596
0.00129301
0.001329
0.00136395
0.00139787
0.00143078
0.00146267
0.00149353
0.00152331
0.00155203
0.0015797
0.00160647
0.00163238
0.00165742
0.00168157
0.00170485
0.00172727
0.00174887
0.00176955
0.00178966
0.00180927
0.00182807
0.0018461
0.00186339
0.00188
0.00189582
0.0019105
0.00192127
0.00193201
0.00194132
0.00195041
0.0019594
0.0019683
0.00197718
0.00198614
0.00199528
0.00200474
0.00201464
0.00202514
0.00203636
0.00204846
0.00206156
0.00207579
0.00209117
0.00210769
0.00212507
0.00214298
0.00216099
0.00217853
0.00219554
0.00221459
0.00220982
5.15485e-09
5.02527e-09
4.92429e-09
4.84509e-09
4.79529e-09
4.83812e-09
5.24499e-09
6.96672e-09
1.28488e-08
3.04538e-08
7.81785e-08
1.96155e-07
4.65597e-07
1.04082e-06
2.19274e-06
4.3528e-06
8.14774e-06
1.43831e-05
2.39475e-05
3.76454e-05
5.58299e-05
7.84864e-05
0.000105326
0.000135917
0.000169795
0.000206525
0.000245723
0.000287056
0.000330272
0.000374112
0.000418419
0.000463059
0.00050791
0.000552852
0.000597763
0.00064252
0.000687
0.000731081
0.000774643
0.000817577
0.00085978
0.000901168
0.000941668
0.000981307
0.0010201
0.00105799
0.0010949
0.00112049
0.00114267
0.00116407
0.00118473
0.00120466
0.0012239
0.00124246
0.00126037
0.00127752
0.00129439
0.00131075
0.00132663
0.00134205
0.00135708
0.0013717
0.00138527
0.00139516
0.00140536
0.00141443
0.00142334
0.00143217
0.00144097
0.0014498
0.00145874
0.00146787
0.00147728
0.00148706
0.00149729
0.00150807
0.00151946
0.00153154
0.00154434
0.00155788
0.00157215
0.00158723
0.00159756
0.00159767
0.00159747
0.00159698
0.0015962
0.00159458
5.15485e-09
5.02526e-09
4.92408e-09
4.84266e-09
4.77581e-09
4.72144e-09
4.68349e-09
4.68249e-09
4.7845e-09
5.1689e-09
6.27574e-09
9.08248e-09
1.55983e-08
2.97068e-08
5.8485e-08
1.1406e-07
2.1623e-07
3.9597e-07
7.00105e-07
1.19716e-06
1.98062e-06
3.1729e-06
4.92661e-06
7.42162e-06
1.08566e-05
1.5435e-05
2.1347e-05
2.8751e-05
3.7759e-05
4.83758e-05
6.05493e-05
7.41806e-05
8.914e-05
0.000105281
0.000122455
0.000140513
0.00015932
0.000178749
0.000198685
0.000219025
0.000239674
0.000260546
0.000281562
0.000302656
0.000323766
0.000344836
0.000365807
0.000386451
0.000406682
0.000426463
0.000445756
0.000464524
0.000482731
0.000500338
0.000517309
0.0005336
0.000549179
0.000564355
0.000579097
0.000593376
0.000607164
0.000620431
0.000633141
0.000641244
0.000648888
0.00065609
0.000662864
0.000669221
0.000675174
0.000680739
0.000685928
0.000690756
0.000695238
0.000699388
0.000703221
0.000706753
0.00071
0.000712977
0.0007157
0.000718184
0.000720445
0.000722498
0.000724346
0.000725983
0.000727424
0.000728684
0.000729778
0.0007308
5.15486e-09
5.02526e-09
4.92408e-09
4.84261e-09
4.77536e-09
4.71875e-09
4.67042e-09
4.62905e-09
4.59456e-09
4.56926e-09
4.56035e-09
4.5851e-09
4.67999e-09
4.91652e-09
5.42641e-09
6.4385e-09
8.33111e-09
1.17031e-08
1.74707e-08
2.69922e-08
4.22035e-08
6.5774e-08
1.01281e-07
1.53399e-07
2.28101e-07
3.32871e-07
4.76921e-07
6.71408e-07
9.29575e-07
1.26646e-06
1.69887e-06
2.24506e-06
2.92445e-06
3.7571e-06
4.76319e-06
5.96229e-06
7.37272e-06
9.01078e-06
1.089e-05
1.30206e-05
1.54089e-05
1.80566e-05
2.0961e-05
2.41143e-05
2.75044e-05
3.11141e-05
3.49212e-05
3.88959e-05
4.30036e-05
4.72063e-05
5.14627e-05
5.57283e-05
5.99559e-05
6.4096e-05
6.80963e-05
7.19017e-05
7.54352e-05
7.89772e-05
8.25255e-05
8.60634e-05
8.95742e-05
9.30413e-05
9.64484e-05
9.86528e-05
0.000100765
0.000102784
0.000104709
0.000106541
0.00010828
0.000109927
0.000111483
0.00011295
0.000114331
0.000115627
0.000116841
0.000117977
0.000119037
0.000120025
0.000120944
0.000121798
0.00012259
0.000123325
0.000124005
0.000124634
0.000125217
0.000125756
0.000126256
0.000126754
5.15486e-09
5.02526e-09
4.92408e-09
4.84261e-09
4.77535e-09
4.7187e-09
4.67019e-09
4.62811e-09
4.5912e-09
4.55857e-09