/*--------------------------------*- C++ -*----------------------------------*\
| =========                 |                                                 |
| \\      /  F ield         | OpenFOAM: The Open Source CFD Toolbox           |
|  \\    /   O peration     | Version:  5.x                                   |
|   \\  /    A nd           | Web:      www.OpenFOAM.org                      |
|    \\/     M anipulation  |                                                 |
\*---------------------------------------------------------------------------*/
FoamFile
{
    version     2.0;
    format      ascii;
    class       volScalarField;
    location    "500";
    object      omega;
}
// * * * * * * * * * * * * * * * * * * * * * * * * * * * * * * * * * * * * * //

dimensions      [0 0 -1 0 0 0 0];

internalField   nonuniform List<scalar> 
20540
(
20958.2
10054.7
20958.2
10049.6
20958.2
10041.7
20958.2
10031.9
20958.2
10021.7
20958.2
10012.6
20958.2
10005.4
20958.2
10000.4
20958.2
9997
20958.2
9994.93
20958.2
9993.69
20958.2
9992.93
20958.2
9992.45
20958.2
9992.14
20958.2
9991.92
20958.2
9991.76
20958.2
9991.64
20958.2
9991.56
20958.2
9991.53
20958.2
9991.54
20958.2
9991.59
20958.2
9991.69
20958.2
9991.83
20958.2
9992.01
20958.2
9992.23
20958.2
9992.49
20958.2
9992.78
20958.2
9993.09
20958.2
9993.41
20958.2
9993.72
20958.2
9993.93
20958.2
9994.03
20958.2
9994.03
20958.2
9993.93
20958.2
9993.72
20958.2
9993.43
20958.2
9993.12
20958.2
9992.81
20958.2
9992.53
20958.2
9992.27
20958.2
9992.05
20958.2
9991.87
20958.2
9991.73
20958.2
9991.62
20958.2
9991.56
20958.2
9991.54
20958.2
9991.56
20958.2
9991.62
20958.2
9991.73
20958.2
9991.87
20958.2
9992.05
20958.2
9992.29
20958.2
9992.65
20958.2
9993.19
20958.2
9994.05
20958.2
9995.45
20958.2
9997.74
20958.2
10001.4
20958.2
10006.7
20958.2
10014
20958.2
10023
20958.2
10033
20958.2
10042.5
20958.2
10050.1
20958.2
10055.1
7.10382e+06
7.10382e+06
7.10382e+06
7.10382e+06
7.10382e+06
7.10382e+06
7.10382e+06
7.10382e+06
7.10382e+06
7.10382e+06
7.10382e+06
7.10382e+06
7.10382e+06
7.10382e+06
7.10382e+06
7.10382e+06
7.10382e+06
7.10382e+06
7.10382e+06
7.10382e+06
7.10382e+06
7.10382e+06
7.10382e+06
7.10382e+06
7.10382e+06
7.10382e+06
7.10382e+06
7.10382e+06
7.10382e+06
7.10382e+06
7.10382e+06
7.10382e+06
7.10382e+06
7.10382e+06
7.10382e+06
7.10382e+06
7.10382e+06
7.10382e+06
7.10382e+06
7.10382e+06
7.10382e+06
7.10382e+06
7.10382e+06
7.10382e+06
7.10382e+06
7.10382e+06
7.10382e+06
7.10382e+06
7.10382e+06
7.10382e+06
7.10382e+06
7.10382e+06
7.10382e+06
7.10382e+06
7.10382e+06
7.10382e+06
7.10382e+06
7.10382e+06
7.10382e+06
7.10382e+06
7.10382e+06
7.10382e+06
7.10382e+06
7.10382e+06
7.10382e+06
7.10382e+06
7.10382e+06
7.10382e+06
7.10382e+06
7.10382e+06
7.10382e+06
7.10382e+06
7.10382e+06
7.10382e+06
7.10382e+06
7.10382e+06
7.10382e+06
7.10382e+06
7.10382e+06
7.10382e+06
7.10382e+06
7.10382e+06
7.10382e+06
7.10382e+06
7.10382e+06
7.10382e+06
7.10382e+06
7.10382e+06
1.27818e+06
1.22776e+06
1.21342e+06
1.20554e+06
1.20006e+06
1.19603e+06
1.19293e+06
1.19047e+06
1.18846e+06
1.18678e+06
1.18537e+06
1.18416e+06
1.18311e+06
1.1822e+06
1.18139e+06
1.18068e+06
1.18004e+06
1.17946e+06
1.17895e+06
1.17848e+06
1.17806e+06
1.17767e+06
1.17732e+06
1.177e+06
1.1767e+06
1.17643e+06
1.17618e+06
1.17595e+06
1.17573e+06
1.17553e+06
1.17535e+06
1.17517e+06
1.17501e+06
1.17486e+06
1.17471e+06
1.17458e+06
1.17446e+06
1.17435e+06
1.17424e+06
1.17414e+06
1.17405e+06
1.17396e+06
1.17389e+06
1.17382e+06
1.17375e+06
1.1737e+06
1.17365e+06
1.17361e+06
1.17359e+06
1.17357e+06
1.17357e+06
1.17359e+06
1.17362e+06
1.17367e+06
1.17374e+06
1.17384e+06
1.17396e+06
1.17411e+06
1.1743e+06
1.17453e+06
1.1748e+06
1.17511e+06
1.17551e+06
1.17585e+06
1.17618e+06
1.17649e+06
1.17683e+06
1.1772e+06
1.17761e+06
1.17804e+06
1.17849e+06
1.17898e+06
1.17949e+06
1.18004e+06
1.18062e+06
1.18124e+06
1.18191e+06
1.18262e+06
1.18339e+06
1.18423e+06
1.18516e+06
1.1862e+06
1.18739e+06
1.18881e+06
1.19058e+06
1.19282e+06
1.19555e+06
1.18586e+06
543628
500100
483335
475138
469729
465796
462766
460348
458359
456694
455278
454061
453001
452069
451246
450511
449853
449261
448728
448243
447802
447400
447032
446696
446387
446103
445841
445597
445369
445156
444958
444773
444600
444438
444288
444147
444016
443895
443782
443677
443579
443489
443406
443331
443264
443205
443156
443116
443088
443072
443071
443086
443119
443172
443249
443352
443483
443645
443844
444083
444367
444697
445109
445445
445802
446144
446496
446877
447285
447718
448177
448661
449172
449710
450276
450873
451502
452166
452868
453613
454405
455248
456143
457070
457928
458197
455057
433813
303313
276122
261932
255615
251879
249325
247428
245940
244730
243725
242873
242144
241510
240954
240463
240026
239634
239282
238964
238676
238414
238176
237958
237758
237575
237407
237252
237107
236973
236847
236729
236620
236517
236421
236331
236247
236169
236097
236029
235967
235909
235856
235807
235762
235723
235688
235658
235635
235618
235608
235607
235615
235634
235665
235710
235770
235847
235943
236059
236198
236364
236556
236786
236967
237184
237395
237600
237815
238043
238285
238539
238806
239084
239374
239675
239986
240308
240638
240976
241318
241658
241983
242266
242438
242294
241157
236390
220379
184887
171828
160577
155361
152468
150592
149254
148225
147400
146721
146150
145664
145244
144877
144554
144268
144011
143781
143574
143387
143216
143061
142920
142791
142672
142563
142463
142370
142283
142202
142127
142056
141990
141928
141870
141816
141766
141719
141676
141635
141598
141563
141531
141502
141476
141452
141432
141415
141402
141393
141389
141390
141397
141411
141432
141462
141501
141550
141610
141682
141769
141868
141983
142070
142182
142298
142409
142521
142638
142760
142887
143019
143154
143293
143434
143577
143719
143859
143994
144119
144228
144305
144324
144224
143849
142738
139436
130680
118906
115698
107268
102902
100555
99063.5
98018.3
97227
96599.4
96087.5
95660.6
95299.1
94988
94717.5
94480.2
94270.1
94082.9
93915.2
93764.4
93628.1
93504.4
93391.9
93289.3
93195.5
93109.6
93030.8
92958.2
92891
92828.6
92770.4
92716.1
92665.4
92617.9
92573.5
92531.9
92493.1
92456.8
92423
92391.4
92362
92334.7
92309.4
92285.9
92264.3
92244.6
92226.7
92210.8
92197
92185.4
92176.2
92169.7
92166.2
92166.2
92169.9
92177.8
92190.2
92207.6
92230.5
92259.3
92294.4
92336.6
92385.2
92439.7
92478.2
92530.7
92589.1
92645.1
92700.1
92755.8
92812.9
92871
92929.9
92989.2
93048
93105.7
93161.2
93213.2
93259.9
93298.6
93325.5
93334.5
93315
93247
93088.3
92738.2
91919.8
89909
85275.8
79644.8
82251.9
76294
72624.5
70632
69373.4
68496.9
67842.7
67329.8
66915.5
66572.4
66283.7
66036.4
65822.5
65635.6
65470.6
65324
65193.1
65075.6
64969.5
64873.4
64786
64706.4
64633.7
64567.1
64506.1
64449.9
64398
64349.8
64305
64263.2
64224.2
64187.8
64153.7
64121.8
64092
64064.1
64038
64013.6
63990.8
63969.5
63949.7
63931.3
63914.2
63898.4
63883.9
63870.7
63858.8
63848.3
63839.3
63831.9
63826.2
63822.4
63820.7
63821.3
63824.4
63830.2
63838.9
63850.5
63865.4
63883.7
63904.7
63927.4
63941.5
63962.7
63988.7
64013.5
64037.1
64060
64082.4
64104.3
64125.2
64145
64163.1
64178.8
64191.3
64199.6
64202.3
64197.3
64181.7
64151.1
64098
64008.7
63855.3
63573.1
62997.3
61752.8
59212.6
54623.4
60512.7
56757.3
53697.3
51924.1
50807.2
50035.4
49466.3
49025.1
48672.1
48382.1
48139.8
47933.3
47755.6
47601
47465.1
47344.6
47237.4
47141.4
47054.9
46976.6
46905.5
46840.8
46781.8
46727.9
46678.4
46632.9
46590.9
46551.9
46515.8
46482.1
46450.8
46421.5
46394.1
46368.5
46344.5
46322
46301
46281.3
46262.9
46245.6
46229.5
46214.4
46200.2
46187.1
46174.9
46163.5
46153.1
46143.5
46134.8
46127.1
46120.3
46114.6
46110
46106.6
46104.5
46103.7
46104.3
46106.2
46109.5
46114.3
46119.6
46124.9
46126.4
46130.9
46138.5
46145.7
46151.9
46157.1
46161.1
46164
46165.4
46165.1
46162.7
46157.7
46149.6
46137.4
46120.2
46096.4
46063.9
46019.6
45958
45870
45736.8
45517.3
45114.8
44329.3
42882.2
37822.1
45432.4
43573.4
41129.4
39511.6
38486.2
37781.2
37266.2
36871.1
36557.9
36302.5
36090.6
35911.1
35757.4
35624.4
35507.8
35404.8
35313.5
35232.1
35158.8
35092.5
35032.5
34977.9
34928.2
34882.8
34841.3
34803
34767.7
34735.1
34704.8
34676.6
34650.5
34626
34603.2
34581.9
34561.9
34543.2
34525.6
34509.2
34493.7
34479.2
34465.6
34452.8
34440.8
34429.5
34418.9
34408.9
34399.6
34390.8
34382.6
34374.9
34367.7
34361
34354.9
34349.4
34344.3
34339.8
34335.8
34332.2
34328.9
34325.9
34322.4
34318.1
34313.1
34308.9
34306.4
34303.7
34300.1
34295.6
34289.9
34282.8
34274.3
34264
34251.7
34237
34219.4
34198.5
34173.3
34142.8
34105.6
34059.2
34000
33921.6
33811.4
33643.2
33359.9
32852.8
31999.5
26892.6
34464.9
34154.8
32363.7
30915.9
29947.8
29284.5
28803.1
28437.1
28149.4
27916.5
27724.6
27562.9
27425.2
27306.7
27203.1
27112
27031.5
26959.9
26895.7
26837.7
26785.2
26737.7
26694.4
26655
26618.9
26585.7
26555.1
26526.8
26500.6
26476.3
26453.7
26432.6
26413
26394.6
26377.4
26361.3
26346.2
26332.1
26318.7
26306.2
26294.3
26283.2
26272.7
26262.7
26253.3
26244.4
26235.9
26227.8
26220
26212.6
26205.4
26198.3
26191.5
26184.9
26178.3
26171.8
26165.3
26158.7
26151.8
26144.6
26136.3
26126.9
26118.8
26110.4
26102.8
26094.8
26086.1
26076.5
26065.9
26054.1
26040.9
26026.2
26009.7
25991.1
25970.2
25946.5
25919.5
25888.3
25851.9
25808.7
25756
25689.3
25600.2
25471.9
25270.4
24935.9
24418
19857
26215.6
27088.1
25969.4
24754.1
23843.7
23202.6
22739.7
22390.7
22118.1
21899.1
21719.6
21569.1
21441.8
21332.7
21237.6
21154.4
21081.1
21016.2
20958.1
20905.7
20858.4
20815.7
20776.9
20741.5
20709.2
20679.5
20652.1
20626.9
20603.5
20581.8
20561.7
20543
20525.5
20509.3
20494
20479.8
20466.4
20453.8
20442
20430.8
20420.3
20410.3
20400.9
20391.9
20383.4
20375.3
20367.5
20359.9
20352.6
20345.5
20338.4
20331.4
20324.3
20317.2
20310
20302.6
20294.9
20286.8
20278.2
20268.8
20258.3
20246.6
20237.2
20227.2
20217.3
20207
20196
20184.3
20171.6
20158
20143.2
20127.1
20109.6
20090.4
20069.3
20046
20020.1
19991.1
19958
19919.9
19874.7
19819.4
19748.3
19650.4
19505.7
19280.9
18959
14995.9
19844.8
21556.2
21102.9
20183.7
19369.3
18751
18293.3
17952
17686.2
17474.2
17301.2
17157.1
17035.8
16932.2
16842.3
16764
16695.2
16634.6
16580.3
16531.5
16487.6
16448
16412.1
16379.5
16349.7
16322.3
16297.1
16273.9
16252.4
16232.5
16214.1
16197
16181
16166.2
16152.3
16139.3
16127.1
16115.6
16104.8
16094.6
16085
16075.8
16067.2
16058.9
16051.1
16043.5
16036.2
16029.1
16022.2
16015.4
16008.6
16001.7
15994.8
15987.6
15980.3
15972.6
15964.5
15955.9
15946.6
15936.6
15925.2
15912.8
15903.3
15893.1
15882.7
15871.7
15860.2
15848
15835.1
15821.4
15806.7
15790.9
15774.1
15755.9
15736.2
15714.8
15691.5
15665.7
15636.9
15604.3
15566.5
15521.3
15464.9
15390.1
15285.3
15132.2
14928
11384.3
15202.5
17080.2
17239.6
16667.3
15999.9
15430.4
14982.7
14640.5
14374
14163.1
13991.5
13849.7
13730.7
13629.5
13542
13466.1
13399.7
13341.3
13289.1
13242.3
13200.4
13162.6
13128.5
13097.5
13069.2
13043.3
13019.4
12997.3
12977
12958.3
12940.9
12924.8
12909.8
12895.8
12882.8
12870.6
12859.2
12848.5
12838.3
12828.7
12819.7
12811.1
12803
12795.2
12787.8
12780.6
12773.7
12767
12760.4
12753.9
12747.4
12740.8
12734
12727.1
12719.9
12712.3
12704.3
12695.8
12686.5
12676.5
12665.3
12653.2
12644.1
12634.4
12624.4
12613.8
12602.8
12591.1
12578.9
12566
12552.3
12537.9
12522.5
12506.1
12488.5
12469.7
12449.3
12427.1
12402.7
12375.4
12344.2
12307.7
12263.1
12206
12129.6
12024.4
11892.3
8714.29
11738.7
13385.9
14037.2
13846.5
13377.3
12894.7
12479.3
12142.4
11873.7
11658.3
11482.9
11339.6
11219.7
11117.7
11030.3
10954.7
10888.8
10830.8
10779.2
10733.1
10691.8
10654.8
10621.3
10591
10563.4
10538.1
10514.8
10493.4
10473.7
10455.5
10438.6
10423
10408.5
10395.1
10382.5
10370.7
10359.7
10349.4
10339.6
10330.4
10321.6
10313.4
10305.5
10298.1
10290.9
10284
10277.4
10270.9
10264.6
10258.3
10252
10245.7
10239.3
10232.6
10225.7
10218.4
10210.8
10202.6
10193.8
10184.3
10173.7
10162.4
10154
10145.1
10136
10126.3
10116.2
10105.7
10094.6
10083
10070.8
10058
10044.4
10030.1
10014.9
9998.76
9981.42
9962.7
9942.28
9919.72
9894.3
9864.94
9829.86
9786.23
9730.41
9657.6
9570.66
7039.61
8901.5
10550.7
11274.9
11465.5
11245
10893.9
10541.2
10230
9968.31
9751.02
9571.46
9423.3
9298.65
9192.69
9102.92
9025.62
8958.24
8898.95
8846.42
8799.73
8758.07
8720.72
8687.07
8656.6
8628.86
8603.45
8580.14
8558.72
8539.02
8520.86
8504.09
8488.57
8474.17
8460.78
8448.3
8436.65
8425.73
8415.47
8405.8
8396.67
8388.05
8379.88
8372.14
8364.77
8357.73
8350.97
8344.45
8338.11
8331.91
8325.8
8319.76
8313.67
8307.47
8301.11
8294.53
8287.67
8280.45
8272.8
8264.61
8255.78
8246.12
8235.77
8228.28
8220.35
8212.17
8203.62
8194.69
8185.38
8175.67
8165.53
8154.94
8143.85
8132.23
8120.01
8107.12
8093.48
8078.95
8063.38
8046.54
8028.07
8007.49
7984.03
7956.54
7923.3
7882.45
7831.85
7773.66
6348.68
6558.71
8161.55
9017.55
9348.95
9405.24
9234.48
8984.66
8727.15
8490.41
8283.04
8105.87
7954.86
7825.82
7715.27
7621.02
7539.66
7468.58
7405.93
7350.99
7302.44
7259.23
7220.53
7185.67
7154.1
7125.39
7099.16
7075.18
7053.2
7033.01
7014.42
6997.26
6981.39
6966.68
6953.02
6940.28
6928.4
6917.27
6906.81
6896.98
6887.71
6878.97
6870.7
6862.87
6855.43
6848.34
6841.55
6835.01
6828.68
6822.52
6816.47
6810.54
6804.59
6798.59
6792.48
6786.2
6779.72
6772.95
6765.82
6758.27
6750.2
6741.46
6732.15
6725.5
6718.52
6711.34
6703.87
6696.12
6688.06
6679.7
6671.01
6661.97
6652.55
6642.72
6632.44
6621.65
6610.29
6598.26
6585.44
6571.65
6556.66
6540.09
6521.45
6499.99
6474.77
6444.9
6409.61
6370.08
6181.37
4997.1
5967.35
7045.69
7554.5
7724.06
7753.93
7654.37
7488.96
7304.42
7125.7
6963.26
6818.02
6690.07
6578.34
6480.87
6395.68
6320.69
6254.27
6195.72
6143.93
6097.81
6056.47
6019.21
5985.44
5954.74
5926.95
5901.63
5878.47
5857.22
5837.66
5819.63
5802.95
5787.49
5773.13
5759.76
5747.29
5735.61
5724.67
5714.4
5704.74
5695.65
5687.07
5678.96
5671.26
5663.94
5656.95
5650.24
5643.78
5637.51
5631.4
5625.44
5619.52
5613.61
5607.65
5601.59
5595.39
5588.99
5582.33
5575.34
5567.95
5560.06
5551.72
5545.83
5539.71
5533.43
5526.95
5520.26
5513.35
5506.21
5498.83
5491.18
5483.26
5475.02
5466.45
5457.5
5448.12
5438.23
5427.74
5416.53
5404.41
5391.15
5376.41
5359.76
5340.71
5318.92
5294.21
5267.03
6154.31
4429.99
4226.02
5110.58
5886.69
6263.93
6393.08
6418.21
6381.16
6285.33
6164.14
6037.62
5913.02
5796.5
5690.97
5595.99
5510.81
5434.47
5366.08
5304.82
5250.07
5201.03
5156.89
5116.95
5080.64
5047.54
5017.45
4990.01
4964.91
4941.87
4920.68
4901.14
4883.07
4866.32
4850.76
4836.27
4822.74
4810.14
4798.39
4787.4
4777.08
4767.38
4758.24
4749.61
4741.43
4733.68
4726.28
4719.22
4712.44
4705.89
4699.55
4693.37
4687.35
4681.38
4675.42
4669.44
4663.39
4657.22
4650.88
4644.31
4637.46
4630.25
4622.71
4617.45
4612.04
4606.54
4600.89
4595.11
4589.18
4583.08
4576.82
4570.37
4563.71
4556.84
4549.71
4542.31
4534.58
4526.48
4517.93
4508.84
4499.09
4488.51
4476.92
4464.06
4449.74
4433.88
4416.51
4397.62
6151.03
4336.68
3450.4
3478.4
4144.32
4773.58
5131.88
5289.82
5325.67
5317.6
5280.59
5221.31
5140.8
5054.27
4969.53
4887.9
4810.57
4738.54
4672.39
4612.05
4557.23
4507.38
4461.94
4420.4
4382.33
4347.38
4315.23
4285.71
4258.61
4233.69
4210.73
4189.53
4169.91
4151.7
4134.76
4118.96
4104.2
4090.41
4077.52
4065.46
4054.13
4043.49
4033.47
4024.01
4015.06
4006.58
3998.53
3990.84
3983.5
3976.45
3969.65
3963.06
3956.7
3950.46
3944.29
3938.16
3932.05
3925.89
3919.66
3913.3
3906.76
3900.01
3893.06
3888.27
3883.41
3878.49
3873.51
3868.45
3863.29
3858.04
3852.67
3847.18
3841.56
3835.78
3829.82
3823.66
3817.27
3810.61
3803.62
3796.24
3788.38
3779.96
3770.86
3760.97
3750.23
3738.66
3726.37
3713.11
6150.74
4327.44
3316.51
2776.6
2749.29
3170.2
3693.62
4084.8
4299.13
4402.58
4429.43
4421.6
4398.1
4362.63
4321.66
4271.42
4215.99
4159.67
4105.04
4053.49
4004.87
3959.01
3915.89
3875.52
3837.86
3802.82
3770.26
3740.1
3712.2
3686.39
3662.47
3640.27
3619.6
3600.33
3582.32
3565.46
3549.66
3534.8
3520.82
3507.67
3495.29
3483.64
3472.65
3462.27
3452.47
3443.18
3434.37
3425.98
3417.99
3410.34
3403
3395.93
3389.13
3382.53
3376.06
3369.7
3363.42
3357.17
3350.92
3344.62
3338.25
3331.75
3325.14
3320.64
3316.12
3311.59
3307.04
3302.46
3297.83
3293.15
3288.4
3283.58
3278.67
3273.65
3268.51
3263.24
3257.82
3252.21
3246.39
3240.3
3233.9
3227.12
3219.92
3212.26
3204.14
3195.62
3186.78
3177.33
6150.76
4326.79
3305.02
2672.68
2284.76
2148.37
2303.73
2656.95
3031.55
3327.67
3514.25
3617.43
3669.57
3683.51
3674.77
3659.22
3637.6
3611.26
3582.63
3553.91
3522.75
3489.71
3456.22
3423.18
3391.17
3360.58
3331.61
3304.38
3278.81
3254.72
3231.98
3210.51
3190.23
3171.06
3152.96
3135.85
3119.68
3104.4
3089.94
3076.26
3063.33
3051.11
3039.55
3028.63
3018.28
3008.48
2999.17
2990.33
2981.9
2973.85
2966.14
2958.73
2951.6
2944.75
2938.08
2931.56
2925.16
2918.84
2912.58
2906.35
2900.09
2893.78
2887.41
2883.12
2878.84
2874.59
2870.36
2866.12
2861.88
2857.62
2853.33
2849
2844.62
2840.18
2835.66
2831.04
2826.3
2821.43
2816.39
2811.17
2805.75
2800.12
2794.25
2788.14
2781.81
2775.32
2768.72
2761.74
6150.83
4326.78
3304.33
2665.37
2236.1
1939.7
1755.39
1705.63
1808.7
2030.81
2300.01
2546.88
2744.31
2882.72
2967.71
3020.39
3049.35
3060.02
3057.64
3047.33
3035.11
3021.22
3005.61
2988.64
2970.86
2952.87
2935.23
2918.28
2901.19
2883.82
2866.47
2849.35
2832.6
2816.33
2800.6
2785.46
2770.94
2757.04
2743.77
2731.11
2719.06
2707.61
2696.73
2686.4
2676.56
2667.18
2658.24
2649.69
2641.52
2633.68
2626.14
2618.88
2611.87
2605.1
2598.55
2592.15
2585.86
2579.66
2573.54
2567.45
2561.38
2555.3
2549.19
2545.11
2541.06
2537.06
2533.09
2529.14
2525.21
2521.29
2517.36
2513.42
2509.45
2505.45
2501.41
2497.3
2493.1
2488.8
2484.39
2479.85
2475.16
2470.33
2465.36
2460.25
2455.06
2449.82
2444.56
2439.05
6150.93
4326.82
3304.33
2665.01
2233.43
1925.54
1697.72
1527.87
1409.4
1349.41
1361.49
1446.72
1589.44
1762.72
1937.71
2095.3
2227.41
2330.98
2406.49
2457.21
2492.31
2516.06
2530.63
2537.83
2539.27
2536.43
2530.65
2523.13
2514.98
2506.77
2498.35
2489.7
2480.84
2471.84
2462.77
2453.71
2444.73
2435.91
2427.3
2418.97
2410.95
2403.27
2395.93
2388.79
2381.72
2374.78
2367.98
2361.34
2354.85
2348.52
2342.33
2336.28
2330.37
2324.57
2318.93
2313.38
2307.86
2302.37
2296.9
2291.42
2285.91
2280.36
2274.77
2271.02
2267.29
2263.6
2259.93
2256.28
2252.64
2249
2245.35
2241.7
2238.02
2234.31
2230.57
2226.77
2222.92
2219
2215
2210.92
2206.74
2202.46
2198.09
2193.64
2189.15
2184.63
2180.11
2175.37
6151.05
4326.87
3304.36
2665.02
2233.33
1924.94
1695.04
1517.96
1378.3
1266.81
1178.67
1112.83
1071.7
1059.92
1080.98
1134.02
1213.79
1312.06
1419.56
1527.87
1629.56
1721.43
1801.87
1870.3
1926.92
1972.38
2007.74
2034.34
2054.57
2070.28
2082.25
2091.1
2097.33
2101.38
2103.6
2104.32
2103.8
2102.3
2100.03
2097.19
2093.94
2090.43
2086.77
2083.09
2079.41
2075.74
2072.06
2068.43
2064.84
2061.29
2057.77
2054.26
2050.77
2047.28
2043.79
2040.35
2036.85
2033.27
2029.57
2025.76
2021.8
2017.7
2013.43
2010.52
2007.57
2004.59
2001.58
1998.53
1995.45
1992.33
1989.16
1985.94
1982.67
1979.35
1975.96
1972.51
1968.98
1965.39
1961.72
1957.98
1954.17
1950.29
1946.36
1942.39
1938.39
1934.37
1930.33
1926.06
6151.2
4326.93
3304.4
2665.04
2233.34
1924.94
1694.96
1517.62
1377.16
1263.47
1169.84
1091.67
1025.87
970.386
924.089
886.639
858.422
840.397
833.776
839.572
857.86
887.854
928.007
976.246
1030.25
1087.7
1146.48
1204.81
1261.39
1314.75
1364.41
1410.1
1451.75
1489.38
1523.12
1553.14
1579.68
1602.96
1623.25
1640.82
1655.91
1668.79
1679.71
1689.05
1697.12
1704.04
1709.96
1715.03
1719.37
1723.05
1726.16
1728.74
1730.86
1732.54
1733.84
1734.79
1735.47
1735.7
1735.46
1734.79
1733.66
1732.08
1730.06
1728.52
1726.8
1724.91
1722.88
1720.7
1718.39
1715.94
1713.36
1710.66
1707.84
1704.91
1701.86
1698.71
1695.46
1692.11
1688.67
1685.14
1681.55
1677.88
1674.16
1670.4
1666.6
1662.77
1658.9
1654.64
6151.37
4327
3304.45
2665.07
2233.36
1924.95
1694.97
1517.62
1377.14
1263.39
1169.59
1091.06
1024.44
967.314
917.859
874.717
836.854
803.491
774.051
748.125
725.448
705.881
689.395
676.05
665.966
659.295
656.179
656.714
660.928
668.693
679.787
693.913
710.713
729.791
750.739
773.15
796.635
820.836
845.427
870.123
894.677
918.883
942.571
965.614
987.923
1009.43
1030.08
1049.76
1068.45
1086.14
1102.85
1118.6
1133.39
1147.27
1160.25
1172.35
1183.61
1193.99
1203.47
1212.05
1219.72
1226.46
1232.28
1235.69
1238.6
1241.06
1243.07
1244.67
1245.87
1246.7
1247.19
1247.34
1247.18
1246.73
1246.02
1245.05
1243.86
1242.45
1240.85
1239.08
1237.15
1235.09
1232.91
1230.63
1228.26
1225.81
1223.31
1220.57
6151.57
4327.07
3304.5
2665.1
2233.38
1924.96
1694.98
1517.63
1377.14
1263.39
1169.59
1091.05
1024.42
967.249
917.721
874.443
836.341
802.571
772.463
745.479
721.182
699.214
679.283
661.143
644.595
629.47
615.629
602.957
591.361
580.763
571.101
562.324
554.392
547.274
540.942
535.376
530.557
526.468
523.092
520.409
518.4
517.04
516.303
516.159
516.575
517.514
518.935
520.794
523.04
525.623
528.491
531.592
534.872
538.278
541.758
545.258
548.69
552.202
555.767
559.347
562.905
566.405
569.815
572.005
574.076
576.027
577.855
579.56
581.141
582.598
583.933
585.149
586.248
587.235
588.113
588.888
589.564
590.147
590.644
591.059
591.4
591.674
591.885
592.042
592.149
592.214
592.243
592.248
6151.78
4327.15
3304.55
2665.14
2233.4
1924.98
1694.99
1517.64
1377.15
1263.4
1169.59
1091.05
1024.42
967.251
917.721
874.441
836.334
802.557
772.437
745.434
721.108
699.096
679.099
660.866
644.187
628.882
614.799
601.807
589.793
578.658
568.319
558.699
549.734
541.367
533.545
526.223
519.362
512.924
506.878
501.194
495.847
490.812
486.067
481.593
477.372
473.386
469.62
466.06
462.69
459.498
456.471
453.596
450.861
448.254
445.762
443.373
441.103
438.947
436.897
434.949
433.097
431.335
429.659
428.596
427.593
426.646
425.753
424.91
424.114
423.362
422.651
421.98
421.346
420.747
420.181
419.646
419.14
418.661
418.208
417.78
417.375
416.991
416.627
416.282
415.954
415.643
415.347
415.067
6152
4327.23
3304.6
2665.17
2233.43
1924.99
1695
1517.65
1377.16
1263.4
1169.6
1091.06
1024.42
967.254
917.724
874.444
836.337
802.559
772.439
745.435
721.108
699.096
679.098
660.864
644.183
628.876
614.789
601.793
589.772
578.631
568.282
558.651
549.671
541.285
533.442
526.094
519.202
512.729
506.641
500.91
495.509
490.412
485.6
481.051
476.747
472.673
468.812
465.151
461.677
458.379
455.245
452.266
449.432
446.735
444.167
441.721
439.39
437.168
435.049
433.028
431.1
429.261
427.504
426.387
425.331
424.334
423.39
422.499
421.655
420.858
420.104
419.392
418.718
418.08
417.477
416.907
416.368
415.858
415.375
414.919
414.486
414.077
413.69
413.323
412.975
412.645
412.333
412.037
6152.2
4327.31
3304.65
2665.2
2233.45
1925.01
1695.01
1517.66
1377.16
1263.41
1169.6
1091.06
1024.43
967.257
917.727
874.446
836.339
802.561
772.44
745.437
721.11
699.097
679.099
660.865
644.184
628.876
614.79
601.793
589.773
578.631
568.282
558.651
549.671
541.285
533.441
526.094
519.201
512.728
506.64
500.908
495.506
490.409
485.595
481.046
476.741
472.666
468.804
465.142
461.667
458.368
455.233
452.253
449.419
446.721
444.153
441.706
439.375
437.152
435.032
433.01
431.081
429.24
427.482
426.363
425.307
424.307
423.362
422.468
421.623
420.824
420.067
419.352
418.675
418.034
417.428
416.854
416.311
415.797
415.31
414.849
414.413
413.999
413.607
413.236
412.884
412.55
412.234
411.934
6152.34
4327.37
3304.69
2665.22
2233.46
1925.02
1695.02
1517.66
1377.17
1263.41
1169.61
1091.06
1024.43
967.259
917.728
874.447
836.34
802.562
772.441
745.437
721.11
699.098
679.1
660.866
644.184
628.877
614.79
601.794
589.773
578.632
568.282
558.651
549.671
541.285
533.441
526.094
519.201
512.728
506.64
500.908
495.506
490.409
485.595
481.046
476.741
472.666
468.804
465.142
461.667
458.367
455.232
452.252
449.417
446.719
444.15
441.702
439.37
437.147
435.026
433.003
431.073
429.23
427.47
426.35
425.291
424.29
423.343
422.448
421.6
420.798
420.039
419.321
418.641
417.998
417.388
416.811
416.265
415.748
415.257
414.793
414.353
413.936
413.541
413.166
412.811
412.474
412.155
411.852
6152.41
4327.39
3304.7
2665.23
2233.47
1925.02
1695.02
1517.66
1377.17
1263.41
1169.61
1091.06
1024.43
967.259
917.729
874.448
836.34
802.562
772.442
745.438
721.111
699.098
679.1
660.866
644.185
628.877
614.791
601.794
589.774
578.632
568.283
558.651
549.671
541.286
533.442
526.094
519.201
512.728
506.64
500.908
495.506
490.409
485.595
481.045
476.741
472.665
468.803
465.141
461.666
458.366
455.231
452.25
449.415
446.716
444.147
441.699
439.366
437.142
435.02
432.996
431.064
429.22
427.458
426.337
425.277
424.274
423.326
422.428
421.579
420.775
420.014
419.294
418.611
417.966
417.354
416.774
416.225
415.705
415.212
414.745
414.302
413.883
413.485
413.107
412.75
412.41
412.088
411.783
6152.41
4327.39
3304.7
2665.23
2233.47
1925.02
1695.02
1517.66
1377.17
1263.41
1169.61
1091.06
1024.43
967.259
917.729
874.448
836.34
802.562
772.442
745.438
721.111
699.098
679.1
660.866
644.185
628.877
614.791
601.794
589.774
578.632
568.282
558.651
549.671
541.285
533.442
526.094
519.201
512.728
506.64
500.908
495.506
490.409
485.595
481.045
476.741
472.665
468.803
465.14
461.665
458.365
455.229
452.248
449.413
446.714
444.144
441.695
439.362
437.137
435.014
432.989
431.055
429.21
427.446
426.324
425.263
424.259
423.309
422.409
421.559
420.753
419.99
419.268
418.584
417.936
417.322
416.741
416.189
415.667
415.172
414.703
414.258
413.836
413.436
413.057
412.697
412.355
412.031
411.724
6152.34
4327.37
3304.69
2665.22
2233.46
1925.02
1695.02
1517.66
1377.17
1263.41
1169.61
1091.06
1024.43
967.259
917.728
874.447
836.34
802.562
772.441
745.438
721.11
699.098
679.1
660.866
644.184
628.877
614.79
601.794
589.773
578.632
568.282
558.651
549.671
541.285
533.441
526.094
519.201
512.728
506.64
500.908
495.505
490.408
485.595
481.045
476.74
472.664
468.802
465.14
461.664
458.364
455.228
452.247
449.411
446.711
444.141
441.692
439.358
437.132
435.008
432.982
431.047
429.2
427.435
426.312
425.249
424.244
423.293
422.392
421.54
420.733
419.969
419.245
418.559
417.91
417.294
416.711
416.158
415.634
415.137
414.666
414.22
413.796
413.395
413.013
412.652
412.309
411.983
411.674
6152.2
4327.31
3304.65
2665.2
2233.45
1925.01
1695.01
1517.66
1377.16
1263.41
1169.6
1091.06
1024.43
967.257
917.727
874.446
836.339
802.561
772.441
745.437
721.11
699.097
679.099
660.865
644.184
628.876
614.79
601.793
589.773
578.631
568.282
558.651
549.671
541.285
533.441
526.094
519.201
512.727
506.639
500.908
495.505
490.408
485.595
481.045
476.74
472.664
468.801
465.139
461.663
458.363
455.227
452.245
449.409
446.709
444.138
441.689
439.354
437.127
435.003
432.976
431.04
429.192
427.426
426.302
425.239
424.233
423.28
422.379
421.526
420.718
419.953
419.228
418.542
417.891
417.275
416.691
416.138
415.613
415.116
414.644
414.197
413.773
413.37
412.989
412.627
412.283
411.958
411.648
6152.01
4327.24
3304.61
2665.17
2233.43
1925
1695
1517.65
1377.16
1263.4
1169.6
1091.06
1024.42
967.254
917.724
874.444
836.337
802.559
772.439
745.435
721.108
699.096
679.098
660.864
644.183
628.876
614.789
601.792
589.772
578.631
568.281
558.65
549.671
541.285
533.441
526.094
519.201
512.728
506.64
500.909
495.507
490.41
485.597
481.047
476.743
472.667
468.806
465.144
461.669
458.37
455.235
452.255
449.42
446.723
444.154
441.708
439.377
437.155
435.037
433.017
431.091
429.253
427.501
426.387
425.335
424.341
423.402
422.516
421.678
420.887
420.139
419.434
418.767
418.137
417.543
416.981
416.45
415.949
415.476
415.029
414.607
414.209
413.832
413.476
413.14
412.822
412.522
412.238
6151.8
4327.16
3304.55
2665.14
2233.4
1924.98
1694.99
1517.64
1377.15
1263.4
1169.59
1091.05
1024.42
967.251
917.721
874.441
836.335
802.557
772.437
745.434
721.107
699.095
679.098
660.865
644.185
628.878
614.794
601.799
589.782
578.644
568.3
558.675
549.703
541.327
533.495
526.161
519.286
512.833
506.768
501.064
495.694
490.634
485.862
481.36
477.11
473.096
469.304
465.721
462.335
459.137
456.117
453.267
450.58
448.051
445.674
443.446
441.365
439.427
437.631
435.977
434.465
433.094
431.864
431.119
430.453
429.862
429.342
428.887
428.494
428.157
427.874
427.64
427.45
427.302
427.192
427.116
427.07
427.053
427.06
427.09
427.139
427.206
427.287
427.382
427.488
427.603
427.726
427.856
6151.59
4327.08
3304.5
2665.11
2233.38
1924.96
1694.98
1517.63
1377.14
1263.39
1169.59
1091.05
1024.41
967.248
917.719
874.441
836.336
802.562
772.448
745.454
721.141
699.15
679.185
660.998
644.383
629.168
615.208
602.379
590.58
579.725
569.741
560.57
552.161
544.473
537.474
531.135
525.434
520.351
515.869
511.973
508.651
505.887
503.67
501.986
500.82
500.158
499.986
500.287
501.047
502.25
503.881
505.927
508.372
511.201
514.399
517.953
521.851
526.08
530.628
535.485
540.638
546.071
551.761
555.61
559.476
563.341
567.192
571.017
574.808
578.554
582.249
585.884
589.454
592.953
596.375
599.717
602.976
606.147
609.23
612.222
615.123
617.931
620.647
623.271
625.802
628.244
630.595
632.87
6151.4
4327.01
3304.45
2665.07
2233.36
1924.95
1694.97
1517.62
1377.14
1263.39
1169.59
1091.05
1024.42
967.274
917.777
874.56
836.564
802.98
773.181
746.694
723.172
702.376
684.166
668.481
655.334
644.791
636.953
631.932
629.826
630.693
634.54
641.287
650.763
662.736
676.937
693.065
710.811
729.866
749.932
770.732
792.01
813.542
835.128
856.6
877.816
898.659
919.038
938.882
958.147
976.806
994.843
1012.25
1029.01
1045.09
1060.52
1075.32
1089.52
1103.15
1116.24
1128.82
1140.92
1152.56
1163.76
1170.94
1177.79
1184.32
1190.53
1196.45
1202.09
1207.47
1212.58
1217.46
1222.11
1226.53
1230.75
1234.76
1238.59
1242.22
1245.69
1248.98
1252.12
1255.1
1257.94
1260.64
1263.2
1265.64
1267.95
1270.16
6151.23
4326.94
3304.41
2665.05
2233.34
1924.94
1694.96
1517.62
1377.14
1263.42
1169.68
1091.3
1025.02
968.6
920.53
879.971
846.659
820.872
803.326
794.99
796.766
809.13
831.72
863.566
903.204
948.886
998.768
1051.07
1104.2
1156.79
1207.8
1256.36
1301.77
1343.83
1382.48
1417.74
1449.73
1478.57
1504.45
1527.56
1548.1
1566.27
1582.27
1596.31
1608.58
1619.25
1628.5
1636.51
1643.53
1649.74
1655.22
1660.08
1664.4
1668.27
1671.77
1674.94
1677.84
1680.5
1682.96
1685.26
1687.42
1689.46
1691.39
1692.64
1693.84
1694.98
1696.08
1697.13
1698.13
1699.1
1700.03
1700.93
1701.79
1702.62
1703.42
1704.18
1704.91
1705.62
1706.29
1706.94
1707.56
1708.15
1708.71