/*--------------------------------*- C++ -*----------------------------------*\
| =========                 |                                                 |
| \\      /  F ield         | OpenFOAM: The Open Source CFD Toolbox           |
|  \\    /   O peration     | Version:  5.x                                   |
|   \\  /    A nd           | Web:      www.OpenFOAM.org                      |
|    \\/     M anipulation  |                                                 |
\*---------------------------------------------------------------------------*/
FoamFile
{
    version     2.0;
    format      ascii;
    class       volScalarField;
    location    "500";
    object      p;
}
// * * * * * * * * * * * * * * * * * * * * * * * * * * * * * * * * * * * * * //

dimensions      [0 2 -2 0 0 0 0];

internalField   nonuniform List<scalar> 
20540
(
-42.9716
-41.7023
-42.9716
-41.7037
-42.9716
-41.7051
-42.9716
-41.7063
-42.9716
-41.7073
-42.9716
-41.7086
-42.9716
-41.7106
-42.9716
-41.7136
-42.9716
-41.7178
-42.9716
-41.7238
-42.9716
-41.7321
-42.9716
-41.7431
-42.9716
-41.7574
-42.9716
-41.7756
-42.9716
-41.798
-42.9716
-41.8252
-42.9716
-41.8578
-42.9716
-41.8967
-42.9717
-41.943
-42.9717
-41.9979
-42.9718
-42.0627
-42.972
-42.1386
-42.9722
-42.227
-42.9726
-42.3289
-42.973
-42.4448
-42.9737
-42.5746
-42.9746
-42.7168
-42.9758
-42.8676
-42.9772
-43.0201
-42.9787
-43.1621
-42.9798
-43.2611
-42.9804
-43.3091
-42.9804
-43.309
-42.9798
-43.2608
-42.9787
-43.1632
-42.9773
-43.0264
-42.976
-42.8792
-42.9748
-42.7328
-42.9739
-42.5939
-42.9732
-42.4662
-42.9727
-42.3514
-42.9724
-42.2497
-42.9721
-42.1609
-42.972
-42.084
-42.9719
-42.0179
-42.9718
-41.9614
-42.9717
-41.9135
-42.9717
-41.8729
-42.9717
-41.8386
-42.9717
-41.8099
-42.9717
-41.7858
-42.9717
-41.766
-42.9717
-41.7499
-42.9717
-41.7373
-42.9717
-41.7277
-42.9717
-41.7204
-42.9717
-41.7151
-42.9717
-41.7113
-42.9717
-41.7087
-42.9717
-41.7069
-42.9717
-41.7057
-42.9717
-41.7047
-42.9717
-41.7036
-42.9717
-41.7021
-42.9717
-41.7008
-45.7428
-54.4128
-60.4079
-65.0607
-69.1473
-73.0057
-76.6796
-80.1429
-83.4043
-86.4851
-89.4033
-92.1711
-94.8018
-97.3028
-99.6813
-101.949
-104.113
-106.182
-108.162
-110.058
-111.876
-113.623
-115.303
-116.917
-118.469
-119.959
-121.39
-122.762
-124.076
-125.336
-126.545
-127.705
-128.818
-129.888
-130.917
-131.907
-132.861
-133.782
-134.67
-135.529
-136.36
-137.165
-137.945
-138.705
-139.445
-140.17
-140.884
-141.589
-142.292
-142.998
-143.712
-144.442
-145.193
-145.973
-146.791
-147.655
-148.575
-149.561
-150.623
-151.776
-153.028
-154.411
-155.871
-157.421
-158.727
-159.951
-161.222
-162.554
-163.94
-165.384
-166.882
-168.44
-170.057
-171.739
-173.485
-175.303
-177.197
-179.176
-181.248
-183.428
-185.734
-188.194
-190.845
-193.752
-196.996
-200.809
-204.939
-211.826
-45.7425
-54.4123
-60.4078
-65.0606
-69.1472
-73.0056
-76.6795
-80.1429
-83.4042
-86.485
-89.4033
-92.171
-94.8018
-97.3028
-99.6813
-101.949
-104.113
-106.182
-108.162
-110.058
-111.876
-113.623
-115.303
-116.917
-118.469
-119.959
-121.39
-122.762
-124.076
-125.336
-126.545
-127.705
-128.818
-129.888
-130.917
-131.907
-132.861
-133.782
-134.67
-135.529
-136.36
-137.165
-137.945
-138.705
-139.445
-140.17
-140.884
-141.589
-142.292
-142.998
-143.712
-144.442
-145.193
-145.973
-146.791
-147.655
-148.575
-149.561
-150.624
-151.776
-153.028
-154.411
-155.871
-157.421
-158.727
-159.951
-161.222
-162.554
-163.94
-165.384
-166.882
-168.44
-170.057
-171.739
-173.485
-175.304
-177.197
-179.176
-181.248
-183.429
-185.735
-188.195
-190.846
-193.753
-196.998
-200.812
-204.946
-211.798
-45.7404
-54.4112
-60.4074
-65.0604
-69.1471
-73.0055
-76.6794
-80.1428
-83.4042
-86.485
-89.4033
-92.171
-94.8017
-97.3027
-99.6812
-101.949
-104.113
-106.182
-108.162
-110.058
-111.876
-113.623
-115.303
-116.917
-118.469
-119.959
-121.39
-122.762
-124.076
-125.336
-126.545
-127.705
-128.818
-129.888
-130.917
-131.907
-132.861
-133.782
-134.67
-135.529
-136.36
-137.165
-137.945
-138.705
-139.445
-140.17
-140.884
-141.589
-142.292
-142.998
-143.712
-144.442
-145.193
-145.973
-146.791
-147.655
-148.575
-149.561
-150.624
-151.776
-153.029
-154.411
-155.871
-157.422
-158.727
-159.951
-161.222
-162.554
-163.941
-165.384
-166.882
-168.441
-170.058
-171.739
-173.486
-175.304
-177.198
-179.177
-181.249
-183.429
-185.736
-188.196
-190.848
-193.755
-197
-200.815
-204.944
-211.731
-45.7362
-54.4087
-60.4067
-65.06
-69.1468
-73.0053
-76.6792
-80.1427
-83.4041
-86.4849
-89.4032
-92.1709
-94.8016
-97.3027
-99.6812
-101.949
-104.113
-106.182
-108.162
-110.058
-111.876
-113.623
-115.303
-116.917
-118.469
-119.959
-121.39
-122.762
-124.076
-125.336
-126.545
-127.705
-128.818
-129.888
-130.917
-131.907
-132.861
-133.782
-134.67
-135.529
-136.36
-137.165
-137.945
-138.705
-139.445
-140.17
-140.884
-141.589
-142.292
-142.998
-143.712
-144.442
-145.193
-145.973
-146.791
-147.656
-148.575
-149.561
-150.624
-151.776
-153.029
-154.412
-155.872
-157.422
-158.727
-159.951
-161.222
-162.554
-163.941
-165.384
-166.883
-168.441
-170.058
-171.74
-173.487
-175.305
-177.199
-179.178
-181.25
-183.431
-185.738
-188.198
-190.85
-193.757
-197.003
-200.815
-204.926
-211.614
-45.7313
-54.4044
-60.4052
-65.0592
-69.1462
-73.0049
-76.6789
-80.1424
-83.4038
-86.4847
-89.403
-92.1707
-94.8015
-97.3025
-99.6811
-101.948
-104.113
-106.182
-108.162
-110.057
-111.876
-113.623
-115.303
-116.917
-118.469
-119.959
-121.389
-122.762
-124.076
-125.336
-126.545
-127.705
-128.818
-129.888
-130.916
-131.907
-132.861
-133.782
-134.67
-135.529
-136.36
-137.165
-137.945
-138.705
-139.445
-140.17
-140.884
-141.589
-142.292
-142.998
-143.712
-144.442
-145.193
-145.973
-146.791
-147.656
-148.576
-149.561
-150.624
-151.776
-153.029
-154.412
-155.872
-157.422
-158.728
-159.952
-161.223
-162.555
-163.942
-165.385
-166.884
-168.442
-170.06
-171.741
-173.488
-175.307
-177.201
-179.18
-181.253
-183.433
-185.741
-188.201
-190.853
-193.76
-197.004
-200.808
-204.885
-211.436
-45.727
-54.3985
-60.4028
-65.0579
-69.1454
-73.0043
-76.6784
-80.142
-83.4035
-86.4843
-89.4027
-92.1705
-94.8013
-97.3023
-99.6809
-101.948
-104.113
-106.182
-108.162
-110.057
-111.876
-113.623
-115.303
-116.917
-118.469
-119.959
-121.389
-122.762
-124.076
-125.336
-126.545
-127.705
-128.818
-129.888
-130.916
-131.907
-132.861
-133.782
-134.67
-135.529
-136.36
-137.165
-137.945
-138.705
-139.445
-140.17
-140.884
-141.589
-142.292
-142.998
-143.712
-144.442
-145.193
-145.973
-146.791
-147.656
-148.576
-149.562
-150.624
-151.777
-153.029
-154.412
-155.873
-157.423
-158.728
-159.953
-161.224
-162.556
-163.943
-165.387
-166.885
-168.444
-170.061
-171.743
-173.49
-175.309
-177.203
-179.183
-181.255
-183.437
-185.744
-188.205
-190.856
-193.762
-197.002
-200.791
-204.816
-211.183
-45.7238
-54.3912
-60.3995
-65.0561
-69.1442
-73.0034
-76.6777
-80.1414
-83.403
-86.4839
-89.4024
-92.1702
-94.801
-97.3021
-99.6806
-101.948
-104.113
-106.182
-108.161
-110.057
-111.875
-113.623
-115.303
-116.917
-118.469
-119.959
-121.389
-122.762
-124.076
-125.336
-126.545
-127.705
-128.818
-129.888
-130.916
-131.907
-132.861
-133.781
-134.67
-135.529
-136.36
-137.165
-137.945
-138.705
-139.445
-140.17
-140.884
-141.589
-142.292
-142.998
-143.712
-144.442
-145.193
-145.973
-146.791
-147.656
-148.576
-149.562
-150.624
-151.777
-153.03
-154.413
-155.873
-157.424
-158.729
-159.954
-161.225
-162.557
-163.944
-165.388
-166.887
-168.446
-170.063
-171.745
-173.492
-175.312
-177.206
-179.186
-181.259
-183.44
-185.747
-188.208
-190.858
-193.762
-196.994
-200.757
-204.711
-210.842
-45.7221
-54.3828
-60.3951
-65.0536
-69.1426
-73.0022
-76.6768
-80.1407
-83.4024
-86.4834
-89.4019
-92.1697
-94.8006
-97.3017
-99.6803
-101.948
-104.112
-106.182
-108.161
-110.057
-111.875
-113.623
-115.302
-116.917
-118.468
-119.959
-121.389
-122.761
-124.076
-125.336
-126.545
-127.705
-128.818
-129.888
-130.916
-131.907
-132.861
-133.781
-134.67
-135.529
-136.36
-137.164
-137.945
-138.705
-139.445
-140.17
-140.883
-141.589
-142.292
-142.998
-143.712
-144.442
-145.193
-145.973
-146.792
-147.656
-148.576
-149.562
-150.625
-151.777
-153.03
-154.414
-155.874
-157.425
-158.73
-159.955
-161.226
-162.559
-163.946
-165.39
-166.889
-168.448
-170.065
-171.748
-173.495
-175.314
-177.209
-179.188
-181.262
-183.443
-185.75
-188.209
-190.858
-193.756
-196.976
-200.7
-204.565
-210.397
-45.7222
-54.3737
-60.3896
-65.0503
-69.1405
-73.0007
-76.6756
-80.1397
-83.4015
-86.4827
-89.4012
-92.1692
-94.8001
-97.3013
-99.6799
-101.947
-104.112
-106.181
-108.161
-110.057
-111.875
-113.623
-115.302
-116.917
-118.468
-119.958
-121.389
-122.761
-124.076
-125.336
-126.545
-127.705
-128.818
-129.887
-130.916
-131.906
-132.861
-133.781
-134.67
-135.529
-136.36
-137.164
-137.945
-138.704
-139.445
-140.17
-140.883
-141.589
-142.292
-142.998
-143.712
-144.442
-145.193
-145.973
-146.792
-147.656
-148.576
-149.563
-150.625
-151.778
-153.031
-154.414
-155.875
-157.426
-158.732
-159.956
-161.227
-162.56
-163.947
-165.391
-166.891
-168.45
-170.068
-171.75
-173.497
-175.317
-177.211
-179.191
-181.264
-183.445
-185.751
-188.208
-190.853
-193.743
-196.944
-200.614
-204.368
-209.834
-45.7246
-54.364
-60.3833
-65.046
-69.1376
-72.9986
-76.674
-80.1384
-83.4004
-86.4817
-89.4004
-92.1684
-94.7994
-97.3007
-99.6793
-101.947
-104.112
-106.181
-108.16
-110.056
-111.875
-113.622
-115.302
-116.916
-118.468
-119.958
-121.389
-122.761
-124.076
-125.336
-126.545
-127.704
-128.818
-129.887
-130.916
-131.906
-132.861
-133.781
-134.67
-135.529
-136.359
-137.164
-137.945
-138.704
-139.445
-140.17
-140.883
-141.589
-142.292
-142.998
-143.712
-144.442
-145.193
-145.974
-146.792
-147.656
-148.577
-149.563
-150.626
-151.778
-153.032
-154.415
-155.876
-157.427
-158.733
-159.957
-161.229
-162.561
-163.949
-165.393
-166.892
-168.451
-170.069
-171.752
-173.499
-175.319
-177.213
-179.192
-181.265
-183.444
-185.749
-188.203
-190.842
-193.719
-196.891
-200.488
-204.11
-209.143
-45.7299
-54.354
-60.3762
-65.0408
-69.1339
-72.9959
-76.6719
-80.1366
-83.399
-86.4805
-89.3993
-92.1675
-94.7986
-97.2999
-99.6786
-101.946
-104.111
-106.18
-108.16
-110.056
-111.874
-113.622
-115.301
-116.916
-118.467
-119.958
-121.388
-122.761
-124.075
-125.335
-126.544
-127.704
-128.817
-129.887
-130.916
-131.906
-132.86
-133.781
-134.669
-135.528
-136.359
-137.164
-137.945
-138.704
-139.445
-140.17
-140.883
-141.589
-142.292
-142.998
-143.712
-144.442
-145.193
-145.974
-146.792
-147.656
-148.577
-149.563
-150.626
-151.779
-153.032
-154.416
-155.877
-157.427
-158.734
-159.959
-161.23
-162.563
-163.95
-165.394
-166.894
-168.453
-170.071
-171.753
-173.5
-175.319
-177.213
-179.192
-181.263
-183.44
-185.742
-188.191
-190.82
-193.677
-196.81
-200.312
-203.778
-208.321
-45.738
-54.3436
-60.3687
-65.0347
-69.1291
-72.9923
-76.6692
-80.1344
-83.3971
-86.4789
-89.3979
-92.1662
-94.7974
-97.2989
-99.6777
-101.945
-104.11
-106.18
-108.159
-110.055
-111.873
-113.621
-115.301
-116.915
-118.467
-119.957
-121.388
-122.76
-124.075
-125.335
-126.544
-127.704
-128.817
-129.887
-130.915
-131.906
-132.86
-133.78
-134.669
-135.528
-136.359
-137.164
-137.944
-138.704
-139.444
-140.17
-140.883
-141.588
-142.292
-142.998
-143.712
-144.441
-145.193
-145.973
-146.792
-147.656
-148.577
-149.563
-150.626
-151.779
-153.032
-154.416
-155.877
-157.428
-158.734
-159.959
-161.23
-162.563
-163.951
-165.395
-166.894
-168.453
-170.071
-171.753
-173.499
-175.317
-177.21
-179.187
-181.256
-183.431
-185.727
-188.167
-190.782
-193.611
-196.69
-200.07
-203.355
-207.373
-45.7483
-54.3328
-60.3612
-65.0279
-69.1235
-72.9878
-76.6656
-80.1316
-83.3947
-86.4768
-89.3961
-92.1646
-94.796
-97.2976
-99.6765
-101.944
-104.109
-106.179
-108.158
-110.054
-111.873
-113.62
-115.3
-116.915
-118.466
-119.957
-121.387
-122.76
-124.074
-125.334
-126.543
-127.703
-128.816
-129.886
-130.915
-131.905
-132.859
-133.78
-134.669
-135.528
-136.359
-137.163
-137.944
-138.703
-139.444
-140.169
-140.883
-141.588
-142.291
-142.997
-143.712
-144.441
-145.192
-145.973
-146.792
-147.656
-148.577
-149.563
-150.626
-151.779
-153.032
-154.416
-155.878
-157.427
-158.734
-159.959
-161.23
-162.562
-163.95
-165.394
-166.893
-168.451
-170.068
-171.749
-173.495
-175.312
-177.203
-179.177
-181.242
-183.411
-185.699
-188.127
-190.72
-193.51
-196.516
-199.747
-202.827
-206.311
-45.7607
-54.3216
-60.3541
-65.0209
-69.1171
-72.9824
-76.661
-80.1278
-83.3916
-86.4742
-89.3938
-92.1626
-94.7942
-97.2959
-99.675
-101.943
-104.108
-106.177
-108.157
-110.053
-111.872
-113.62
-115.299
-116.914
-118.466
-119.956
-121.386
-122.759
-124.074
-125.334
-126.543
-127.703
-128.816
-129.885
-130.914
-131.905
-132.859
-133.779
-134.668
-135.527
-136.358
-137.163
-137.944
-138.703
-139.444
-140.169
-140.882
-141.588
-142.291
-142.997
-143.711
-144.441
-145.192
-145.973
-146.791
-147.656
-148.576
-149.563
-150.626
-151.778
-153.032
-154.415
-155.877
-157.426
-158.732
-159.958
-161.228
-162.56
-163.947
-165.39
-166.889
-168.446
-170.062
-171.741
-173.485
-175.299
-177.188
-179.158
-181.217
-183.378
-185.653
-188.061
-190.623
-193.359
-196.271
-199.326
-202.175
-205.151
-45.776
-54.3098
-60.3474
-65.014
-69.1103
-72.9761
-76.6556
-80.1231
-83.3876
-86.4707
-89.3908
-92.1599
-94.7918
-97.2937
-99.673
-101.941
-104.106
-106.176
-108.156
-110.052
-111.87
-113.618
-115.298
-116.913
-118.464
-119.955
-121.385
-122.758
-124.073
-125.333
-126.542
-127.702
-128.815
-129.885
-130.913
-131.904
-132.858
-133.779
-134.668
-135.526
-136.357
-137.162
-137.943
-138.702
-139.443
-140.168
-140.881
-141.587
-142.29
-142.996
-143.711
-144.44
-145.191
-145.972
-146.79
-147.655
-148.575
-149.562
-150.624
-151.777
-153.03
-154.412
-155.876
-157.422
-158.728
-159.955
-161.223
-162.554
-163.941
-165.383
-166.88
-168.435
-170.049
-171.726
-173.467
-175.277
-177.16
-179.123
-181.174
-183.322
-185.579
-187.959
-190.476
-193.14
-195.933
-198.785
-201.388
-203.909
-45.7951
-54.2963
-60.3413
-65.0076
-69.1034
-72.9694
-76.6494
-80.1176
-83.3827
-86.4663
-89.3869
-92.1565
-94.7887
-97.2909
-99.6704
-101.939
-104.104
-106.174
-108.154
-110.05
-111.869
-113.617
-115.297
-116.911
-118.463
-119.953
-121.384
-122.757
-124.071
-125.332
-126.541
-127.701
-128.814
-129.884
-130.912
-131.903
-132.857
-133.778
-134.667
-135.526
-136.356
-137.161
-137.942
-138.701
-139.442
-140.167
-140.881
-141.586
-142.289
-142.995
-143.71
-144.439
-145.19
-145.971
-146.789
-147.653
-148.573
-149.559
-150.622
-151.774
-153.027
-154.408
-155.872
-157.416
-158.72
-159.948
-161.214
-162.543
-163.928
-165.369
-166.863
-168.416
-170.027
-171.7
-173.436
-175.239
-177.115
-179.067
-181.104
-183.233
-185.463
-187.804
-190.261
-192.831
-195.478
-198.107
-200.453
-202.593
-45.8187
-54.2805
-60.3354
-65.002
-69.0971
-72.9628
-76.6429
-80.1114
-83.3769
-86.4611
-89.3821
-92.1521
-94.7847
-97.2872
-99.6671
-101.936
-104.101
-106.171
-108.151
-110.048
-111.866
-113.615
-115.295
-116.909
-118.461
-119.952
-121.383
-122.755
-124.07
-125.33
-126.539
-127.699
-128.813
-129.882
-130.911
-131.902
-132.856
-133.777
-134.665
-135.524
-136.355
-137.16
-137.941
-138.7
-139.441
-140.166
-140.879
-141.585
-142.288
-142.994
-143.708
-144.437
-145.188
-145.969
-146.786
-147.651
-148.57
-149.556
-150.618
-151.769
-153.021
-154.4
-155.865
-157.404
-158.707
-159.935
-161.198
-162.525
-163.908
-165.345
-166.836
-168.384
-169.99
-171.656
-173.384
-175.178
-177.041
-178.979
-180.995
-183.096
-185.287
-187.573
-189.951
-192.403
-194.878
-197.271
-199.365
-201.203
-45.8474
-54.2622
-60.3295
-64.9971
-69.0915
-72.9567
-76.6364
-80.105
-83.3707
-86.4551
-89.3765
-92.1469
-94.7799
-97.2827
-99.6629
-101.932
-104.097
-106.168
-108.148
-110.045
-111.864
-113.612
-115.292
-116.907
-118.459
-119.95
-121.38
-122.753
-124.068
-125.328
-126.537
-127.697
-128.811
-129.881
-130.909
-131.9
-132.854
-133.775
-134.664
-135.523
-136.354
-137.159
-137.939
-138.699
-139.44
-140.165
-140.878
-141.583
-142.286
-142.992
-143.706
-144.435
-145.185
-145.965
-146.782
-147.646
-148.565
-149.55
-150.61
-151.761
-153.011
-154.387
-155.853
-157.386
-158.685
-159.913
-161.173
-162.495
-163.874
-165.306
-166.791
-168.333
-169.93
-171.587
-173.303
-175.082
-176.927
-178.841
-180.827
-182.889
-185.027
-187.239
-189.514
-191.823
-194.106
-196.258
-198.118
-199.728
-45.8814
-54.2411
-60.3231
-64.993
-69.0869
-72.9513
-76.6306
-80.0989
-83.3643
-86.4489
-89.3705
-92.141
-94.7742
-97.2774
-99.6578
-101.927
-104.093
-106.163
-108.144
-110.041
-111.86
-113.608
-115.288
-116.904
-118.456
-119.947
-121.378
-122.75
-124.065
-125.326
-126.535
-127.695
-128.808
-129.878
-130.907
-131.898
-132.852
-133.773
-134.662
-135.521
-136.352
-137.157
-137.937
-138.697
-139.437
-140.162
-140.875
-141.581
-142.283
-142.989
-143.703
-144.431
-145.181
-145.96
-146.776
-147.639
-148.557
-149.54
-150.599
-151.747
-152.995
-154.367
-155.833
-157.357
-158.65
-159.877
-161.132
-162.448
-163.82
-165.244
-166.721
-168.252
-169.837
-171.479
-173.177
-174.934
-176.753
-178.633
-180.577
-182.583
-184.648
-186.764
-188.911
-191.054
-193.131
-195.049
-196.702
-198.143
-45.9218
-54.2164
-60.3156
-64.9889
-69.0832
-72.9471
-76.6257
-80.0933
-83.3586
-86.443
-89.3642
-92.1347
-94.7682
-97.2715
-99.6521
-101.921
-104.087
-106.158
-108.139
-110.036
-111.855
-113.604
-115.284
-116.899
-118.452
-119.943
-121.374
-122.747
-124.062
-125.322
-126.532
-127.692
-128.805
-129.875
-130.904
-131.894
-132.849
-133.77
-134.659
-135.518
-136.349
-137.154
-137.935
-138.694
-139.434
-140.159
-140.872
-141.577
-142.279
-142.984
-143.697
-144.425
-145.174
-145.952
-146.767
-147.628
-148.544
-149.525
-150.581
-151.725
-152.97
-154.335
-155.801
-157.312
-158.597
-159.821
-161.068
-162.374
-163.737
-165.15
-166.613
-168.128
-169.695
-171.314
-172.986
-174.712
-176.491
-178.324
-180.208
-182.138
-184.107
-186.101
-188.097
-190.055
-191.92
-193.622
-195.098
-196.415
-45.9695
-54.1875
-60.3065
-64.9842
-69.0793
-72.9439
-76.6224
-80.0894
-83.354
-86.4373
-89.3581
-92.1291
-94.7625
-97.2656
-99.646
-101.915
-104.081
-106.152
-108.133
-110.03
-111.85
-113.598
-115.279
-116.894
-118.447
-119.938
-121.369
-122.742
-124.058
-125.318
-126.528
-127.688
-128.801
-129.871
-130.9
-131.891
-132.845
-133.766
-134.655
-135.514
-136.345
-137.15
-137.931
-138.69
-139.43
-140.155
-140.867
-141.572
-142.274
-142.978
-143.69
-144.416
-145.164
-145.94
-146.753
-147.611
-148.524
-149.501
-150.553
-151.692
-152.93
-154.287
-155.749
-157.243
-158.515
-159.733
-160.969
-162.261
-163.608
-165.003
-166.446
-167.937
-169.476
-171.064
-172.698
-174.379
-176.105
-177.872
-179.675
-181.506
-183.352
-185.198
-187.019
-188.779
-190.434
-191.939
-193.266
-194.491
-46.0256
-54.1541
-60.2955
-64.9788
-69.0745
-72.94
-76.6194
-80.0871
-83.3516
-86.4339
-89.3542
-92.1248
-94.7569
-97.2592
-99.6399
-101.91
-104.076
-106.147
-108.128
-110.024
-111.844
-113.592
-115.273
-116.888
-118.441
-119.932
-121.364
-122.737
-124.053
-125.313
-126.523
-127.683
-128.797
-129.866
-130.895
-131.886
-132.84
-133.761
-134.65
-135.509
-136.34
-137.145
-137.925
-138.685
-139.425
-140.149
-140.861
-141.565
-142.266
-142.969
-143.679
-144.404
-145.149
-145.922
-146.732
-147.586
-148.494
-149.466
-150.51
-151.641
-152.87
-154.213
-155.667
-157.138
-158.391
-159.597
-160.817
-162.088
-163.411
-164.78
-166.192
-167.648
-169.147
-170.686
-172.266
-173.883
-175.533
-177.209
-178.906
-180.611
-182.311
-183.989
-185.618
-187.172
-188.622
-189.945
-191.141
-192.287
-46.0909
-54.116
-60.2821
-64.9726
-69.069
-72.9352
-76.6155
-80.0839
-83.349
-86.4318
-89.3527
-92.1231
-94.7543
-97.2557
-99.6362
-101.905
-104.071
-106.14
-108.121
-110.018
-111.838
-113.586
-115.267
-116.882
-118.435
-119.927
-121.358
-122.732
-124.047
-125.308
-126.517
-127.678
-128.791
-129.861
-130.89
-131.88
-132.835
-133.755
-134.644
-135.503
-136.334
-137.138
-137.919
-138.678
-139.417
-140.141
-140.852
-141.555
-142.255
-142.956
-143.665
-144.386
-145.128
-145.897
-146.701
-147.549
-148.45
-149.413
-150.447
-151.565
-152.779
-154.104
-155.542
-156.981
-158.207
-159.393
-160.589
-161.83
-163.119
-164.449
-165.817
-167.222
-168.662
-170.135
-171.636
-173.162
-174.705
-176.259
-177.815
-179.364
-180.889
-182.372
-183.795
-185.14
-186.393
-187.545
-188.611
-189.667
-46.1663
-54.0731
-60.266
-64.9655
-69.0626
-72.9297
-76.611
-80.0802
-83.3456
-86.4288
-89.35
-92.1208
-94.7525
-97.2546
-99.6355
-101.905
-104.069
-106.138
-108.117
-110.014
-111.834
-113.582
-115.262
-116.876
-118.428
-119.919
-121.35
-122.723
-124.039
-125.301
-126.511
-127.672
-128.786
-129.856
-130.885
-131.875
-132.83
-133.75
-134.639
-135.498
-136.328
-137.132
-137.912
-138.67
-139.41
-140.132
-140.842
-141.543
-142.241
-142.939
-143.644
-144.362
-145.099
-145.861
-146.657
-147.495
-148.385
-149.335
-150.353
-151.453
-152.644
-153.942
-155.354
-156.749
-157.936
-159.09
-160.249
-161.446
-162.685
-163.959
-165.264
-166.597
-167.954
-169.333
-170.728
-172.132
-173.537
-174.936
-176.317
-177.67
-178.981
-180.237
-181.426
-182.541
-183.576
-184.528
-185.42
-186.321
-46.2524
-54.0256
-60.2466
-64.9576
-69.0553
-72.9233
-76.6058
-80.0758
-83.3418
-86.4253
-89.3468
-92.1179
-94.7498
-97.2521
-99.6332
-101.902
-104.068
-106.137
-108.117
-110.014
-111.834
-113.582
-115.261
-116.875
-118.426
-119.916
-121.347
-122.719
-124.035
-125.298
-126.507
-127.668
-128.781
-129.85
-130.879
-131.868
-132.822
-133.742
-134.63
-135.487
-136.317
-137.12
-137.899
-138.657
-139.394
-140.116
-140.825
-141.524
-142.219
-142.915
-143.615
-144.327
-145.057
-145.811
-146.596
-147.42
-148.293
-149.223
-150.218
-151.29
-152.448
-153.706
-155.075
-156.414
-157.549
-158.654
-159.759
-160.894
-162.062
-163.257
-164.474
-165.708
-166.955
-168.209
-169.464
-170.712
-171.945
-173.153
-174.326
-175.453
-176.524
-177.53
-178.462
-179.314
-180.084
-180.774
-181.399
-182.009
-46.3492
-53.9741
-60.2237
-64.949
-69.0472
-72.916
-76.5999
-80.0709
-83.3375
-86.4213
-89.3432
-92.1146
-94.7469
-97.2494
-99.6307
-101.9
-104.065
-106.135
-108.115
-110.012
-111.832
-113.579
-115.259
-116.873
-118.424
-119.914
-121.345
-122.718
-124.035
-125.298
-126.508
-127.669
-128.782
-129.852
-130.88
-131.87
-132.823
-133.742
-134.629
-135.486
-136.314
-137.116
-137.893
-138.648
-139.384
-140.103
-140.808
-141.505
-142.196
-142.885
-143.578
-144.281
-145
-145.74
-146.509
-147.313
-148.161
-149.06
-150.02
-151.049
-152.157
-153.355
-154.652
-155.913
-156.981
-158.011
-159.035
-160.079
-161.147
-162.232
-163.327
-164.427
-165.526
-166.618
-167.695
-168.75
-169.773
-170.756
-171.689
-172.562
-173.365
-174.089
-174.723
-175.259
-175.684
-175.988
-176.162
-176.214
-46.4554
-53.9199
-60.1971
-64.9396
-69.0383
-72.9079
-76.5934
-80.0655
-83.3328
-86.417
-89.3392
-92.1111
-94.7437
-97.2465
-99.6279
-101.898
-104.063
-106.133
-108.113
-110.01
-111.83
-113.578
-115.257
-116.871
-118.422
-119.912
-121.343
-122.715
-124.032
-125.295
-126.505
-127.666
-128.78
-129.85
-130.878
-131.868
-132.821
-133.739
-134.626
-135.482
-136.31
-137.111
-137.887
-138.64
-139.374
-140.09
-140.792
-141.483
-142.167
-142.849
-143.532
-144.223
-144.926
-145.648
-146.394
-147.171
-147.986
-148.845
-149.757
-150.73
-151.77
-152.885
-154.078
-155.243
-156.231
-157.162
-158.075
-159
-159.939
-160.883
-161.825
-162.758
-163.678
-164.577
-165.449
-166.286
-167.081
-167.826
-168.514
-169.138
-169.692
-170.167
-170.561
-170.866
-171.08
-171.2
-171.222
-171.146
-46.5686
-53.865
-60.1672
-64.9297
-69.029
-72.8992
-76.5863
-80.0597
-83.3277
-86.4123
-89.3349
-92.1072
-94.7402
-97.2433
-99.625
-101.895
-104.061
-106.131
-108.111
-110.008
-111.828
-113.575
-115.254
-116.868
-118.419
-119.909
-121.34
-122.712
-124.03
-125.292
-126.503
-127.665
-128.779
-129.849
-130.878
-131.868
-132.82
-133.739
-134.624
-135.479
-136.305
-137.104
-137.877
-138.628
-139.357
-140.069
-140.765
-141.449
-142.124
-142.794
-143.463
-144.137
-144.819
-145.515
-146.231
-146.97
-147.74
-148.547
-149.395
-150.292
-151.242
-152.249
-153.313
-154.346
-155.216
-156.02
-156.795
-157.573
-158.354
-159.128
-159.888
-160.629
-161.345
-162.032
-162.684
-163.296
-163.865
-164.386
-164.855
-165.272
-165.635
-165.944
-166.2
-166.406
-166.565
-166.681
-166.759
-166.806
-46.6834
-53.8121
-60.1352
-64.9197
-69.0196
-72.8902
-76.5791
-80.0537
-83.3225
-86.4075
-89.3305
-92.1032
-94.7366
-97.24
-99.6219
-101.892
-104.058
-106.128
-108.108
-110.006
-111.826
-113.573
-115.252
-116.866
-118.417
-119.906
-121.337
-122.71
-124.027
-125.29
-126.501
-127.663
-128.777
-129.848
-130.876
-131.866
-132.818
-133.736
-134.62
-135.474
-136.298
-137.094
-137.865
-138.611
-139.336
-140.042
-140.731
-141.405
-142.068
-142.724
-143.375
-144.026
-144.681
-145.343
-146.017
-146.708
-147.42
-148.156
-148.922
-149.72
-150.553
-151.423
-152.326
-153.191
-153.908
-154.557
-155.172
-155.778
-156.374
-156.954
-157.51
-158.039
-158.537
-159.001
-159.428
-159.815
-160.161
-160.463
-160.722
-160.938
-161.112
-161.245
-161.341
-161.401
-161.43
-161.433
-161.412
-161.374
-46.7907
-53.7654
-60.1039
-64.9103
-69.0109
-72.8816
-76.5722
-80.048
-83.3175
-86.4029
-89.3263
-92.0995
-94.7332
-97.2369
-99.6191
-101.89
-104.056
-106.126
-108.106
-110.004
-111.824
-113.571
-115.25
-116.863
-118.414
-119.904
-121.334
-122.707
-124.024
-125.287
-126.499
-127.661
-128.776
-129.847
-130.876
-131.865
-132.817
-133.733
-134.617
-135.468
-136.29
-137.083
-137.85
-138.592
-139.31
-140.008
-140.686
-141.347
-141.994
-142.629
-143.255
-143.876
-144.493
-145.11
-145.73
-146.355
-146.989
-147.634
-148.291
-148.961
-149.646
-150.342
-151.045
-151.696
-152.224
-152.689
-153.117
-153.525
-153.914
-154.278
-154.613
-154.918
-155.19
-155.429
-155.632
-155.801
-155.934
-156.033
-156.099
-156.133
-156.137
-156.113
-156.063
-155.991
-155.899
-155.789
-155.664
-155.526
-46.8657
-53.7342
-60.0811
-64.9036
-69.0048
-72.8756
-76.5673
-80.044
-83.314
-86.3997
-89.3234
-92.0968
-94.7308
-97.2348
-99.6171
-101.888
-104.054
-106.124
-108.105
-110.003
-111.822
-113.57
-115.248
-116.862
-118.412
-119.902
-121.332
-122.705
-124.022
-125.285
-126.497
-127.659
-128.775
-129.846
-130.874
-131.863
-132.815
-133.73
-134.612
-135.462
-136.281
-137.071
-137.833
-138.569
-139.28
-139.968
-140.634
-141.28
-141.909
-142.52
-143.118
-143.703
-144.277
-144.842
-145.4
-145.952
-146.498
-147.04
-147.578
-148.109
-148.632
-149.143
-149.638
-150.07
-150.405
-150.688
-150.932
-151.151
-151.344
-151.509
-151.644
-151.747
-151.819
-151.859
-151.869
-151.848
-151.798
-151.721
-151.618
-151.49
-151.341
-151.171
-150.984
-150.782
-150.567
-150.341
-150.106
-149.864
-46.9022
-53.7194
-60.0695
-64.9002
-69.0017
-72.8725
-76.5648
-80.0419
-83.3122
-86.398
-89.3218
-92.0954
-94.7296
-97.2337
-99.6161
-101.887
-104.053
-106.124
-108.104
-110.002
-111.822
-113.569
-115.247
-116.861
-118.411
-119.9
-121.331
-122.704
-124.021
-125.284
-126.496
-127.658
-128.774
-129.845
-130.873
-131.862
-132.813
-133.728
-134.608
-135.456
-136.273
-137.059
-137.817
-138.547
-139.251
-139.929
-140.583
-141.214
-141.822
-142.41
-142.978
-143.527
-144.058
-144.571
-145.066
-145.544
-146.004
-146.445
-146.866
-147.262
-147.632
-147.97
-148.269
-148.5
-148.662
-148.781
-148.866
-148.921
-148.947
-148.944
-148.91
-148.847
-148.756
-148.637
-148.491
-148.321
-148.128
-147.914
-147.68
-147.429
-147.163
-146.883
-146.593
-146.293
-145.986
-145.674
-145.358
-145.04
-46.9022
-53.7195
-60.0694
-64.9
-69.0017
-72.8724
-76.5648
-80.0418
-83.3122
-86.3979
-89.3218
-92.0955
-94.7296
-97.2337
-99.6161
-101.887
-104.053
-106.124
-108.104
-110.002
-111.822
-113.569
-115.247
-116.86
-118.411
-119.9
-121.33
-122.703
-124.02
-125.284
-126.496
-127.658
-128.774
-129.844
-130.873
-131.861
-132.811
-133.725
-134.604
-135.45
-136.264
-137.048
-137.801
-138.525
-139.221
-139.89
-140.531
-141.147
-141.736
-142.299
-142.838
-143.35
-143.837
-144.298
-144.732
-145.138
-145.513
-145.856
-146.164
-146.432
-146.656
-146.832
-146.952
-147
-147.006
-146.98
-146.923
-146.835
-146.718
-146.571
-146.396
-146.195
-145.968
-145.717
-145.445
-145.153
-144.844
-144.518
-144.179
-143.828
-143.468
-143.1
-142.726
-142.348
-141.968
-141.587
-141.208
-140.83
-46.8658
-53.7345
-60.0807
-64.9032
-69.0047
-72.8755
-76.5673
-80.0438
-83.314
-86.3995
-89.3234
-92.0969
-94.7309
-97.235
-99.6173
-101.888
-104.054
-106.125
-108.105
-110.003
-111.822
-113.57
-115.248
-116.861
-118.411
-119.901
-121.331
-122.704
-124.021
-125.284
-126.496
-127.659
-128.774
-129.845
-130.873
-131.861
-132.81
-133.723
-134.601
-135.445
-136.257
-137.037
-137.786
-138.504
-139.193
-139.852
-140.481
-141.081
-141.651
-142.191
-142.7
-143.178
-143.623
-144.033
-144.408
-144.744
-145.039
-145.289
-145.491
-145.64
-145.731
-145.759
-145.717
-145.604
-145.471
-145.318
-145.139
-144.93
-144.691
-144.424
-144.131
-143.814
-143.476
-143.119
-142.743
-142.353
-141.95
-141.536
-141.113
-140.683
-140.249
-139.811
-139.373
-138.934
-138.498
-138.065
-137.636
-137.214
-46.7921
-53.7654
-60.1028
-64.9094
-69.0105
-72.8814
-76.5721
-80.0477
-83.3174
-86.4026
-89.3263
-92.0995
-94.7334
-97.2372
-99.6194
-101.89
-104.056
-106.126
-108.106
-110.004
-111.824
-113.571
-115.249
-116.862
-118.413
-119.902
-121.333
-122.705
-124.023
-125.286
-126.497
-127.66
-128.775
-129.845
-130.873
-131.86
-132.809
-133.721
-134.598
-135.441
-136.251
-137.028
-137.773
-138.486
-139.167
-139.817
-140.435
-141.02
-141.572
-142.089
-142.571
-143.015
-143.419
-143.782
-144.101
-144.371
-144.591
-144.756
-144.861
-144.902
-144.873
-144.768
-144.582
-144.325
-144.071
-143.807
-143.523
-143.211
-142.869
-142.5
-142.109
-141.697
-141.267
-140.821
-140.362
-139.892
-139.413
-138.927
-138.438
-137.945
-137.453
-136.961
-136.473
-135.989
-135.511
-135.039
-134.576
-134.122
-46.6889
-53.8106
-60.1327
-64.9181
-69.0188
-72.8896
-76.5787
-80.0531
-83.3222
-86.4069
-89.3304
-92.1032
-94.7367
-97.2402
-99.6222
-101.893
-104.058
-106.129
-108.109
-110.006
-111.826
-113.573
-115.251
-116.864
-118.415
-119.904
-121.335
-122.708
-124.025
-125.288
-126.499
-127.661
-128.776
-129.846
-130.873
-131.86
-132.808
-133.72
-134.596
-135.437
-136.245
-137.02
-137.761
-138.47
-139.146
-139.788
-140.396
-140.968
-141.504
-142.003
-142.461
-142.877
-143.248
-143.572
-143.844
-144.061
-144.219
-144.314
-144.342
-144.296
-144.172
-143.963
-143.664
-143.293
-142.943
-142.594