/*--------------------------------*- C++ -*----------------------------------*\
| =========                 |                                                 |
| \\      /  F ield         | OpenFOAM: The Open Source CFD Toolbox           |
|  \\    /   O peration     | Version:  5.x                                   |
|   \\  /    A nd           | Web:      www.OpenFOAM.org                      |
|    \\/     M anipulation  |                                                 |
\*---------------------------------------------------------------------------*/
FoamFile
{
    version     2.0;
    format      ascii;
    class       surfaceScalarField;
    location    "500";
    object      phi;
}
// * * * * * * * * * * * * * * * * * * * * * * * * * * * * * * * * * * * * * //

dimensions      [0 3 -1 0 0 0 0];

internalField   nonuniform List<scalar> 
40747
(
1.48835e-05
-2.95959e-09
6.96895e-06
7.91451e-06
1.80047e-05
-6.31287e-09
1.35961e-05
1.13776e-05
2.17806e-05
-1.01712e-08
1.96878e-05
1.56888e-05
2.63482e-05
-1.45022e-08
2.53775e-05
2.06585e-05
3.18736e-05
-1.9183e-08
3.07892e-05
2.6462e-05
3.85575e-05
-2.3944e-08
3.59788e-05
3.3368e-05
4.66427e-05
-2.82928e-08
4.0947e-05
4.16744e-05
5.64228e-05
-3.14222e-08
4.5655e-05
5.17149e-05
6.82531e-05
-3.21104e-08
5.00363e-05
6.38719e-05
8.25634e-05
-2.86301e-08
5.40083e-05
7.85914e-05
9.98735e-05
-1.86846e-08
5.74655e-05
9.64164e-05
0.000120812
6.28005e-10
6.02642e-05
0.000118014
0.000146141
3.28274e-08
6.22526e-05
0.000144153
0.000176781
8.20186e-08
6.33477e-05
0.000175686
0.000213845
1.52781e-07
6.36187e-05
0.000213575
0.000258683
2.49929e-07
6.32988e-05
0.000259004
0.000312926
3.78156e-07
6.26163e-05
0.000313609
0.000378546
5.41671e-07
6.16807e-05
0.000379483
0.000457934
7.4381e-07
6.05121e-05
0.000459104
0.000553977
9.86493e-07
5.90876e-05
0.000555404
0.000670172
1.26938e-06
5.73648e-05
0.000671898
0.000810748
1.58859e-06
5.52899e-05
0.000812827
0.000980824
1.93495e-06
5.2799e-05
0.00098332
0.00118659
2.29152e-06
4.98181e-05
0.00118958
0.00143555
2.63054e-06
4.62615e-05
0.00143911
0.00173675
2.90987e-06
4.20297e-05
0.00174099
0.00210117
3.06951e-06
3.70075e-05
0.00210621
0.00254208
3.02964e-06
3.10583e-05
0.00254804
0.00307551
2.69321e-06
2.40163e-05
0.00308257
0.00372086
1.9595e-06
1.56727e-05
0.00372922
0.00356543
1.03704e-06
7.79917e-06
0.00357332
0.00356554
1.05375e-08
-1.77994e-08
0.00357337
0.00356554
-1.01577e-06
-7.83506e-06
0.00357337
0.00356543
-1.9377e-06
-1.571e-05
0.00357332
0.00360798
-2.65191e-06
-2.37995e-05
0.00361609
0.00300121
-2.99234e-06
-3.06647e-05
0.00300809
0.00249647
-3.04976e-06
-3.64972e-05
0.00250231
0.00207662
-2.91279e-06
-4.14489e-05
0.00208158
0.00172738
-2.65559e-06
-4.56455e-05
0.00173159
0.0014369
-2.33497e-06
-4.91942e-05
0.00144045
0.00119527
-1.9917e-06
-5.2187e-05
0.00119827
0.000994287
-1.65336e-06
-5.47041e-05
0.000996811
0.000827108
-1.33736e-06
-5.68149e-05
0.000829225
0.000688046
-1.05369e-06
-5.85795e-05
0.000689816
0.000572372
-8.07102e-07
-6.00496e-05
0.000573846
0.00047615
-5.98827e-07
-6.12677e-05
0.000477372
0.000396109
-4.2774e-07
-6.22633e-05
0.000397108
0.000329527
-2.9121e-07
-6.30389e-05
0.000330305
0.00027414
-1.85651e-07
-6.35383e-05
0.000274641
0.000228065
-1.06903e-07
-6.36033e-05
0.000228131
0.000189735
-5.05403e-08
-6.29984e-05
0.000189132
0.000157849
-1.2202e-08
-6.15697e-05
0.000156421
0.000131321
1.2133e-08
-5.93234e-05
0.000129075
0.000109252
2.59933e-08
-5.63685e-05
0.000106297
9.08912e-05
3.23543e-08
-5.28501e-05
8.7373e-05
7.56159e-05
3.36318e-08
-4.88852e-05
7.16512e-05
6.29075e-05
3.171e-08
-4.45573e-05
5.85797e-05
5.23346e-05
2.7982e-08
-3.99383e-05
4.77156e-05
4.35384e-05
2.34187e-08
-3.50838e-05
3.86839e-05
3.62203e-05
1.8653e-08
-3.00227e-05
3.11593e-05
3.01322e-05
1.40651e-08
-2.47463e-05
2.48558e-05
2.50671e-05
9.85896e-09
-1.91937e-05
1.95145e-05
2.08535e-05
6.1229e-09
-1.32426e-05
1.49024e-05
1.7348e-05
2.87272e-09
-6.77998e-06
1.08854e-05
1.44319e-05
7.65197e-06
1.28128e-06
6.63323e-06
1.07886e-06
2.02422e-07
1.02299e-06
5.58733e-08
9.86299e-07
3.66888e-08
9.5934e-07
2.69587e-08
9.38799e-07
2.05422e-08
9.22601e-07
1.6199e-08
9.09472e-07
1.31294e-08
8.98594e-07
1.0878e-08
8.89437e-07
9.1572e-09
8.81627e-07
7.81073e-09
8.74884e-07
6.7417e-09
8.68997e-07
5.88702e-09
8.63826e-07
5.17126e-09
8.59246e-07
4.5796e-09
8.55158e-07
4.08687e-09
8.51496e-07
3.66187e-09
8.48205e-07
3.29091e-09
8.45231e-07
2.97285e-09
8.4253e-07
2.7007e-09
8.40069e-07
2.46025e-09
8.37823e-07
2.24571e-09
8.3577e-07
2.05187e-09
8.33891e-07
1.8782e-09
8.32167e-07
1.72364e-09
8.30577e-07
1.58904e-09
8.29103e-07
1.47315e-09
8.27731e-07
1.37147e-09
8.26452e-07
1.27745e-09
8.25262e-07
1.18962e-09
8.24152e-07
1.10921e-09
8.23117e-07
1.03439e-09
8.22153e-07
9.64244e-10
8.21254e-07
8.98505e-10
8.20417e-07
8.36983e-10
8.19638e-07
7.79378e-10
8.18913e-07
7.25357e-10
8.18238e-07
6.74752e-10
8.17611e-07
6.27377e-10
8.1703e-07
5.82412e-10
8.16492e-07
5.38735e-10
8.15997e-07
4.95216e-10
8.15547e-07
4.50784e-10
8.15143e-07
4.04381e-10
8.14789e-07
3.55047e-10
8.14488e-07
3.016e-10
8.14246e-07
2.42045e-10
8.14072e-07
1.75381e-10
8.13971e-07
1.01273e-10
8.13955e-07
1.68053e-11
8.14036e-07
-8.00328e-11
8.14226e-07
-1.88373e-10
8.14538e-07
-3.09505e-10
8.14986e-07
-4.45959e-10
8.15589e-07
-5.9931e-10
8.16364e-07
-7.71457e-10
8.17333e-07
-9.64119e-10
8.1852e-07
-1.18149e-09
8.19954e-07
-1.42572e-09
8.21668e-07
-1.70596e-09
8.23691e-07
-2.01013e-09
8.26155e-07
-2.45216e-09
8.29259e-07
-3.08702e-09
8.31315e-07
-2.03715e-09
8.3323e-07
-1.88562e-09
8.35488e-07
-2.23063e-09
8.38038e-07
-2.51606e-09
8.40777e-07
-2.7056e-09
8.43703e-07
-2.88648e-09
8.46821e-07
-3.07963e-09
8.50151e-07
-3.28664e-09
8.53698e-07
-3.50995e-09
8.57493e-07
-3.75166e-09
8.61548e-07
-4.01739e-09
8.65904e-07
-4.3137e-09
8.70593e-07
-4.64772e-09
8.75681e-07
-5.03826e-09
8.81235e-07
-5.49952e-09
8.87371e-07
-6.0736e-09
8.9425e-07
-6.80689e-09
9.02132e-07
-7.80545e-09
9.11454e-07
-9.24108e-09
9.2305e-07
-1.15214e-08
9.38722e-07
-1.56007e-08
9.63053e-07
-2.42722e-08
1.01299e-06
-4.98881e-08
1.18133e-06
-1.68325e-07
-1.32575e-06
2.50702e-06
4.74026e-06
1.32706e-05
4.13235e-06
8.1034e-07
3.92381e-06
2.64419e-07
3.78667e-06
1.73823e-07
3.68567e-06
1.27963e-07
3.60857e-06
9.76451e-08
3.5477e-06
7.70709e-08
3.49832e-06
6.25147e-08
3.45737e-06
5.18294e-08
3.42286e-06
4.36585e-08
3.39342e-06
3.72539e-08
3.36799e-06
3.21707e-08
3.34578e-06
2.80973e-08
3.32626e-06
2.46892e-08
3.30897e-06
2.18679e-08
3.29354e-06
1.95206e-08
3.27971e-06
1.74932e-08
3.26727e-06
1.57239e-08
3.25604e-06
1.42077e-08
3.24582e-06
1.29104e-08
3.23652e-06
1.17665e-08
3.22802e-06
1.07427e-08
3.22025e-06
9.81935e-09
3.21314e-06
8.99001e-09
3.2066e-06
8.25214e-09
3.20058e-06
7.60796e-09
3.195e-06
7.05256e-09
3.18981e-06
6.56402e-09
3.18497e-06
6.11296e-09
3.18047e-06
5.69202e-09
3.17627e-06
5.30561e-09
3.17235e-06
4.94691e-09
3.16871e-06
4.61132e-09
3.16531e-06
4.29758e-09
3.16214e-06
4.00447e-09
3.15919e-06
3.73047e-09
3.15644e-06
3.47382e-09
3.15388e-06
3.23365e-09
3.1515e-06
3.00885e-09
3.14929e-06
2.79552e-09
3.14724e-06
2.58844e-09
3.14536e-06
2.38237e-09
3.14364e-06
2.17235e-09
3.14209e-06
1.95356e-09
3.14073e-06
1.72163e-09
3.13956e-06
1.47107e-09
3.13861e-06
1.19329e-09
3.1379e-06
8.8351e-10
3.13746e-06
5.39679e-10
3.13733e-06
1.4973e-10
3.13755e-06
-2.96076e-10
3.13816e-06
-7.94743e-10
3.13921e-06
-1.35126e-09
3.14075e-06
-1.97736e-09
3.14284e-06
-2.68011e-09
3.14554e-06
-3.46817e-09
3.14894e-06
-4.34958e-09
3.15312e-06
-5.3423e-09
3.15817e-06
-6.45641e-09
3.16422e-06
-7.73145e-09
3.17136e-06
-9.1164e-09
3.18006e-06
-1.11256e-08
3.19053e-06
-1.35111e-08
3.19772e-06
-9.1737e-09
3.20483e-06
-8.92033e-09
3.21282e-06
-1.01495e-08
3.22171e-06
-1.13204e-08
3.23127e-06
-1.2186e-08
3.24148e-06
-1.29945e-08
3.25235e-06
-1.38509e-08
3.26392e-06
-1.47512e-08
3.27623e-06
-1.57248e-08
3.28934e-06
-1.67622e-08
3.30333e-06
-1.79073e-08
3.31828e-06
-1.91649e-08
3.33433e-06
-2.05922e-08
3.35165e-06
-2.22326e-08
3.37046e-06
-2.41773e-08
3.39111e-06
-2.65611e-08
3.41408e-06
-2.96025e-08
3.44015e-06
-3.36978e-08
3.47069e-06
-3.9587e-08
3.50823e-06
-4.88816e-08
3.55839e-06
-6.56012e-08
3.63546e-06
-1.01207e-07
3.78831e-06
-2.02628e-07
4.18796e-06
-5.67968e-07
-2.41895e-06
5.28101e-06
9.22749e-06
1.97319e-05
8.2047e-06
1.83314e-06
7.83171e-06
6.37406e-07
7.59229e-06
4.13249e-07
7.41644e-06
3.03812e-07
7.28189e-06
2.32197e-07
7.17534e-06
1.8362e-07
7.08865e-06
1.4921e-07
7.01657e-06
1.23912e-07
6.95569e-06
1.04534e-07
6.90363e-06
8.93171e-08
6.85858e-06
7.72229e-08
6.81916e-06
6.75138e-08
6.78446e-06
5.93837e-08
6.75369e-06
5.26426e-08
6.72618e-06
4.70281e-08
6.7015e-06
4.2173e-08
6.67929e-06
3.7932e-08
6.6592e-06
3.42928e-08
6.64094e-06
3.11753e-08
6.62427e-06
2.84251e-08
6.60905e-06
2.59608e-08
6.59513e-06
2.37378e-08
6.58238e-06
2.17396e-08
6.57067e-06
1.99614e-08
6.55987e-06
1.8408e-08
6.54985e-06
1.70683e-08
6.54052e-06
1.58897e-08
6.53183e-06
1.4803e-08
6.52373e-06
1.37891e-08
6.51618e-06
1.28569e-08
6.50913e-06
1.19914e-08
6.50256e-06
1.11813e-08
6.49643e-06
1.04233e-08
6.49072e-06
9.71434e-09
6.4854e-06
9.05101e-09
6.48045e-06
8.42932e-09
6.47584e-06
7.84735e-09
6.47154e-06
7.30243e-09
6.46756e-06
6.78554e-09
6.46386e-06
6.28434e-09
6.46046e-06
5.78632e-09
6.45736e-06
5.27959e-09
6.45456e-06
4.75255e-09
6.45209e-06
4.19461e-09
6.44997e-06
3.59248e-09
6.44824e-06
2.92611e-09
6.44694e-06
2.18361e-09
6.44612e-06
1.35927e-09
6.44585e-06
4.27493e-10
6.44619e-06
-6.35928e-10
6.44723e-06
-1.82798e-09
6.44904e-06
-3.15893e-09
6.45173e-06
-4.65509e-09
6.45539e-06
-6.33326e-09
6.46015e-06
-8.21363e-09
6.46613e-06
-1.03157e-08
6.47349e-06
-1.26799e-08
6.48239e-06
-1.53309e-08
6.49304e-06
-1.83602e-08
6.50561e-06
-2.16423e-08
6.52093e-06
-2.64048e-08
6.53887e-06
-3.14053e-08
6.55151e-06
-2.17542e-08
6.56443e-06
-2.175e-08
6.57848e-06
-2.41179e-08
6.59395e-06
-2.66963e-08
6.61062e-06
-2.87499e-08
6.62839e-06
-3.06567e-08
6.6473e-06
-3.26454e-08
6.66739e-06
-3.47223e-08
6.68872e-06
-3.6953e-08
6.7114e-06
-3.93211e-08
6.73552e-06
-4.19195e-08
6.76124e-06
-4.47615e-08
6.78873e-06
-4.79716e-08
6.81828e-06
-5.16396e-08
6.85022e-06
-5.59663e-08
6.88507e-06
-6.1228e-08
6.92356e-06
-6.78923e-08
6.96684e-06
-7.67739e-08
7.01687e-06
-8.94156e-08
7.07728e-06
-1.09096e-07
7.15581e-06
-1.43956e-07
7.27099e-06
-2.16241e-07
7.47918e-06
-4.10712e-07
7.91131e-06
-1.0001e-06
-3.17798e-06
8.67018e-06
1.4205e-05
2.61854e-05
1.27045e-05
3.33366e-06
1.21459e-05
1.19601e-06
1.18054e-05
7.53782e-07
1.15602e-05
5.49022e-07
1.13739e-05
4.18505e-07
1.12268e-05
3.30745e-07
1.11072e-05
2.68792e-07
1.10078e-05
2.23302e-07
1.09238e-05
1.88475e-07
1.0852e-05
1.61125e-07
1.07899e-05
1.39381e-07
1.07355e-05
1.21915e-07
1.06876e-05
1.07294e-07
1.06451e-05
9.51579e-08
1.0607e-05
8.50408e-08
1.05729e-05
7.6291e-08
1.05422e-05
6.86459e-08
1.05144e-05
6.20764e-08
1.04892e-05
5.64401e-08
1.04661e-05
5.14662e-08
1.04451e-05
4.70092e-08
1.04258e-05
4.29906e-08
1.04082e-05
3.93781e-08
1.0392e-05
3.61635e-08
1.0377e-05
3.33542e-08
1.03631e-05
3.09313e-08
1.03502e-05
2.88008e-08
1.03382e-05
2.68394e-08
1.0327e-05
2.501e-08
1.03165e-05
2.33266e-08
1.03067e-05
2.17633e-08
1.02976e-05
2.02985e-08
1.02891e-05
1.89257e-08
1.02812e-05
1.764e-08
1.02738e-05
1.64355e-08
1.02669e-05
1.53056e-08
1.02605e-05
1.42469e-08
1.02546e-05
1.3255e-08
1.0249e-05
1.23142e-08
1.02439e-05
1.14028e-08
1.02392e-05
1.0498e-08
1.02349e-05
9.5784e-09
1.02311e-05
8.62268e-09
1.02276e-05
7.61133e-09
1.02247e-05
6.51993e-09
1.02223e-05
5.31242e-09
1.02205e-05
3.96637e-09
1.02194e-05
2.47048e-09
1.02191e-05
7.82294e-10
1.02196e-05
-1.1431e-09
1.02211e-05
-3.30677e-09
1.02237e-05
-5.72527e-09
1.02274e-05
-8.44253e-09
1.02326e-05
-1.14891e-08
1.02393e-05
-1.49011e-08
1.02477e-05
-1.87141e-08
1.02581e-05
-2.29986e-08
1.02706e-05
-2.77998e-08
1.02855e-05
-3.32821e-08
1.03031e-05
-3.92007e-08
1.03245e-05
-4.77873e-08
1.03493e-05
-5.60741e-08
1.0367e-05
-3.94615e-08
1.03856e-05
-4.01952e-08
1.04053e-05
-4.375e-08
1.04268e-05
-4.80915e-08
1.04499e-05
-5.17813e-08
1.04746e-05
-5.52199e-08
1.05009e-05
-5.87654e-08
1.05287e-05
-6.24463e-08
1.05582e-05
-6.63747e-08
1.05896e-05
-7.05314e-08
1.06228e-05
-7.5066e-08
1.06582e-05
-8.0007e-08
1.06959e-05
-8.55573e-08
1.07363e-05
-9.18662e-08
1.07798e-05
-9.92622e-08
1.08269e-05
-1.08189e-07
1.08786e-05
-1.19398e-07
1.09362e-05
-1.34175e-07
1.1002e-05
-1.5494e-07
1.10798e-05
-1.86728e-07
1.11778e-05
-2.41783e-07
1.13136e-05
-3.51899e-07
1.15347e-05
-6.31664e-07
1.19106e-05
-1.37599e-06
-3.70346e-06
1.24359e-05
1.98533e-05
3.27941e-05
1.77852e-05
5.40167e-06
1.69794e-05
2.00186e-06
1.65093e-05
1.22385e-06
1.61794e-05
8.79015e-07
1.59317e-05
6.66146e-07
1.57374e-05
5.25068e-07
1.558e-05
4.26209e-07
1.54494e-05
3.5387e-07
1.53393e-05
2.98597e-07
1.52452e-05
2.55246e-07
1.51638e-05
2.20799e-07
1.50925e-05
1.93136e-07
1.50298e-05
1.70002e-07
1.49742e-05
1.50792e-07
1.49245e-05
1.34768e-07
1.48798e-05
1.20917e-07
1.48397e-05
1.08818e-07
1.48033e-05
9.84097e-08
1.47703e-05
8.94675e-08
1.47402e-05
8.15751e-08
1.47127e-05
7.45066e-08
1.46875e-05
6.81382e-08
1.46645e-05
6.24153e-08
1.46433e-05
5.73235e-08
1.46238e-05
5.28723e-08
1.46057e-05
4.90325e-08
1.45888e-05
4.56586e-08
1.45731e-05
4.25576e-08
1.45585e-05
3.96674e-08
1.45448e-05
3.70067e-08
1.4532e-05
3.45357e-08
1.45201e-05
3.22184e-08
1.4509e-05
3.00438e-08
1.44986e-05
2.80045e-08
1.44889e-05
2.60915e-08
1.448e-05
2.42952e-08
1.44716e-05
2.26108e-08
1.44638e-05
2.10314e-08
1.44566e-05
1.95334e-08
1.44499e-05
1.8083e-08
1.44438e-05
1.66449e-08
1.44382e-05
1.51846e-08
1.44331e-05
1.36682e-08
1.44287e-05
1.20643e-08
1.44249e-05
1.03336e-08
1.44218e-05
8.41924e-09
1.44194e-05
6.28425e-09
1.4418e-05
3.90949e-09
1.44176e-05
1.23224e-09
1.44182e-05
-1.821e-09
1.44202e-05
-5.26006e-09
1.44236e-05
-9.1077e-09
1.44286e-05
-1.34286e-08
1.44354e-05
-1.82713e-08
1.44442e-05
-2.36927e-08
1.44552e-05
-2.97496e-08
1.44688e-05
-3.655e-08
1.44852e-05
-4.4166e-08
1.45048e-05
-5.28556e-08
1.45279e-05
-6.22141e-08
1.45559e-05
-7.57226e-08
1.45878e-05
-8.79312e-08
1.46111e-05
-6.26783e-08
1.46358e-05
-6.4809e-08
1.46618e-05
-6.96247e-08
1.46898e-05
-7.60291e-08
1.47199e-05
-8.17824e-08
1.4752e-05
-8.71958e-08
1.47861e-05
-9.2741e-08
1.48223e-05
-9.84697e-08
1.48606e-05
-1.0455e-07
1.49012e-05
-1.1096e-07
1.49441e-05
-1.17916e-07
1.49897e-05
-1.25465e-07
1.50382e-05
-1.33898e-07
1.50899e-05
-1.43433e-07
1.51454e-05
-1.5454e-07
1.52053e-05
-1.67847e-07
1.52705e-05
-1.84413e-07
1.53426e-05
-2.06023e-07
1.54239e-05
-2.35997e-07
1.55185e-05
-2.81108e-07
1.56343e-05
-3.57355e-07
1.57867e-05
-5.04182e-07
1.60122e-05
-8.57025e-07
1.6339e-05
-1.70284e-06
-4.10612e-06
1.67415e-05
2.65195e-05
3.96426e-05
2.38012e-05
8.11993e-06
2.26702e-05
3.1329e-06
2.20285e-05
1.86549e-06
2.15894e-05
1.31816e-06
2.12647e-05
9.90843e-07
2.1012e-05
7.77797e-07
2.0808e-05
6.30197e-07
2.06392e-05
5.22672e-07
2.0497e-05
4.40737e-07
2.03757e-05
3.76589e-07
2.02708e-05
3.25673e-07
2.01792e-05
2.84808e-07
2.00985e-05
2.50678e-07
2.00269e-05
2.22336e-07
1.9963e-05
1.98688e-07
1.99057e-05
1.78264e-07
1.9854e-05
1.60432e-07
1.98074e-05
1.45081e-07
1.9765e-05
1.31879e-07
1.97263e-05
1.20226e-07
1.9691e-05
1.09797e-07
1.96587e-05
1.00408e-07
1.96292e-05
9.19736e-08
1.9602e-05
8.44704e-08
1.9577e-05
7.79088e-08
1.95538e-05
7.22462e-08
1.95321e-05
6.72737e-08
1.9512e-05
6.2711e-08
1.94932e-05
5.84619e-08
1.94756e-05
5.45501e-08
1.94593e-05
5.09176e-08
1.9444e-05
4.75099e-08
1.94297e-05
4.43092e-08
1.94164e-05
4.13045e-08
1.9404e-05
3.84833e-08
1.93925e-05
3.58322e-08
1.93817e-05
3.33442e-08
1.93718e-05
3.10099e-08
1.93625e-05
2.87957e-08
1.93539e-05
2.66534e-08
1.93461e-05
2.45314e-08
1.93389e-05
2.23793e-08
1.93324e-05
2.01469e-08
1.93267e-05
1.77874e-08
1.93218e-05
1.52429e-08
1.93178e-05
1.24303e-08
1.93147e-05
9.29341e-09
1.93129e-05
5.80274e-09
1.93122e-05
1.87158e-09
1.9313e-05
-2.61187e-09
1.93154e-05
-7.67091e-09
1.93197e-05
-1.3334e-08
1.93259e-05
-1.96905e-08
1.93345e-05
-2.68118e-08
1.93456e-05
-3.47809e-08
1.93596e-05
-4.36804e-08
1.93767e-05
-5.36653e-08
1.93974e-05
-6.48404e-08
1.94222e-05
-7.7579e-08
1.94513e-05
-9.12778e-08
1.94865e-05
-1.10892e-07
1.95264e-05
-1.27731e-07
1.95557e-05
-9.19234e-08
1.95872e-05
-9.62037e-08
1.96202e-05
-1.02531e-07
1.96557e-05
-1.11364e-07
1.96937e-05
-1.19616e-07
1.97341e-05
-1.27464e-07
1.9777e-05
-1.3548e-07
1.98224e-05
-1.43732e-07
1.98705e-05
-1.52449e-07
1.99213e-05
-1.61606e-07
1.9975e-05
-1.71495e-07
2.00319e-05
-1.82182e-07
2.00922e-05
-1.94057e-07
2.01563e-05
-2.07413e-07
2.02249e-05
-2.22875e-07
2.02985e-05
-2.4127e-07
2.03784e-05
-2.63983e-07
2.04659e-05
-2.93319e-07
2.05637e-05
-3.33514e-07
2.06759e-05
-3.93029e-07
2.08102e-05
-4.91425e-07
2.09806e-05
-6.74423e-07
2.12156e-05
-1.09184e-06
2.15178e-05
-2.00515e-06
-4.44013e-06
2.18516e-05
3.45651e-05
4.67519e-05
3.11177e-05
1.15673e-05
2.95674e-05
4.68316e-06
2.87012e-05
2.73169e-06
2.81222e-05
1.89718e-06
2.76992e-05
1.41389e-06
2.73722e-05
1.10476e-06
2.71093e-05
8.93091e-07
2.68923e-05
7.39661e-07
2.671e-05
6.23116e-07
2.65545e-05
5.32076e-07
2.64202e-05
4.59913e-07
2.6303e-05
4.02049e-07
2.61999e-05
3.53788e-07
2.61085e-05
3.13725e-07
2.60269e-05
2.80299e-07
2.59537e-05
2.51454e-07
2.58878e-05
2.26287e-07
2.58283e-05
2.04615e-07
2.57742e-05
1.85963e-07
2.57249e-05
1.69501e-07
2.56799e-05
1.54776e-07
2.56388e-05
1.41531e-07
2.56011e-05
1.29638e-07
2.55665e-05
1.19058e-07
2.55346e-05
1.09802e-07
2.55051e-05
1.0181e-07
2.54776e-05
9.47944e-08
2.54519e-05
8.83667e-08
2.5428e-05
8.23867e-08
2.54056e-05
7.68819e-08
2.53848e-05
7.17722e-08
2.53653e-05
6.69788e-08
2.53471e-05
6.24746e-08
2.53302e-05
5.82434e-08
2.53144e-05
5.42682e-08
2.52997e-05
5.05304e-08
2.5286e-05
4.70208e-08
2.52733e-05
4.37261e-08
2.52615e-05
4.0601e-08
2.52506e-05
3.75792e-08
2.52406e-05
3.45895e-08
2.52314e-05
3.15613e-08
2.52231e-05
2.84243e-08
2.52158e-05
2.51126e-08
2.52095e-05
2.15451e-08
2.52043e-05
1.76059e-08
2.52004e-05
1.32147e-08
2.51979e-05
8.32857e-09
2.51969e-05
2.83279e-09
2.51977e-05
-3.43454e-09
2.52006e-05
-1.05158e-08
2.52057e-05
-1.84441e-08
2.52134e-05
-2.73388e-08
2.52239e-05
-3.7299e-08
2.52376e-05
-4.84397e-08
2.52548e-05
-6.08754e-08
2.5276e-05
-7.48173e-08
2.53016e-05
-9.04103e-08
2.53322e-05
-1.08166e-07
2.53682e-05
-1.27243e-07
2.54117e-05
-1.5429e-07
2.54607e-05
-1.76597e-07
2.54968e-05
-1.27975e-07
2.5536e-05
-1.3522e-07
2.5577e-05
-1.43435e-07
2.5621e-05
-1.55136e-07
2.56679e-05
-1.66369e-07
2.57177e-05
-1.77152e-07
2.57706e-05
-1.88155e-07
2.58265e-05
-1.99452e-07
2.58856e-05
-2.11341e-07
2.5948e-05
-2.23789e-07
2.60138e-05
-2.37173e-07
2.60834e-05
-2.5158e-07
2.6157e-05
-2.67511e-07
2.62352e-05
-2.8534e-07
2.63184e-05
-3.05863e-07
2.64076e-05
-3.30123e-07
2.65037e-05
-3.59856e-07
2.66087e-05
-3.97917e-07
2.6725e-05
-4.49483e-07
2.68569e-05
-5.24696e-07
2.70123e-05
-6.4652e-07
2.72039e-05
-8.6587e-07
2.74544e-05
-1.34212e-06
2.77491e-05
-2.29989e-06
-4.72649e-06
2.80351e-05
4.43803e-05
5.40865e-05
4.01384e-05
1.58092e-05
3.80576e-05
6.76397e-06
3.68961e-05
3.89322e-06
3.61354e-05
2.65785e-06
3.55848e-05
1.96449e-06
3.51619e-05
1.52763e-06
3.48234e-05
1.2316e-06
3.45449e-05
1.0182e-06
3.43113e-05
8.56711e-07
3.41125e-05
7.30897e-07
3.39411e-05
6.31344e-07
3.37915e-05
5.51609e-07
3.36601e-05
4.85208e-07
3.35437e-05
4.30128e-07
3.34398e-05
3.84183e-07
3.33467e-05
3.4457e-07
3.32629e-05
3.10037e-07
3.31872e-05
2.80302e-07
3.31185e-05
2.547e-07
3.30559e-05
2.32105e-07
3.29987e-05
2.11907e-07
3.29465e-05
1.93754e-07
3.28987e-05
1.77463e-07
3.28548e-05
1.62971e-07
3.28143e-05
1.50288e-07
3.27767e-05
1.39329e-07
3.27418e-05
1.29709e-07
3.27093e-05
1.20908e-07
3.26789e-05
1.12729e-07
3.26506e-05
1.05202e-07
3.26242e-05
9.82183e-08
3.25995e-05
9.16695e-08
3.25764e-05
8.55153e-08
3.25549e-05
7.97321e-08
3.25349e-05
7.42968e-08
3.25163e-05
6.91846e-08
3.24989e-05
6.43827e-08
3.24827e-05
5.9873e-08
3.24678e-05
5.55955e-08
3.24539e-05
5.1462e-08
3.24411e-05
4.73773e-08
3.24294e-05
4.32462e-08
3.24189e-05
3.89734e-08
3.24095e-05
3.44692e-08
3.24014e-05
2.96243e-08
3.23948e-05
2.42827e-08
3.23897e-05
1.83339e-08
3.23863e-05
1.17175e-08
3.23848e-05
4.28744e-09
3.23856e-05
-4.18297e-09
3.23888e-05
-1.37629e-08
3.23949e-05
-2.44886e-08
3.24041e-05
-3.65153e-08
3.24168e-05
-4.99756e-08
3.24334e-05
-6.50233e-08
3.24544e-05
-8.18108e-08
3.24802e-05
-1.00617e-07
3.25115e-05
-1.21635e-07
3.25489e-05
-1.45538e-07
3.2593e-05
-1.71213e-07
3.2646e-05
-2.072e-07
3.27055e-05
-2.35971e-07
3.27495e-05
-1.71868e-07
3.27974e-05
-1.82981e-07
3.28477e-05
-1.93558e-07
3.29014e-05
-2.08629e-07
3.29586e-05
-2.23397e-07
3.30194e-05
-2.37679e-07
3.30837e-05
-2.52247e-07
3.31517e-05
-2.67176e-07
3.32234e-05
-2.82839e-07
3.32991e-05
-2.99192e-07
3.33788e-05
-3.16706e-07
3.34629e-05
-3.35489e-07
3.35518e-05
-3.56167e-07
3.3646e-05
-3.79205e-07
3.3746e-05
-4.05587e-07
3.38528e-05
-4.36594e-07
3.39677e-05
-4.74341e-07
3.40924e-05
-5.22276e-07
3.42299e-05
-5.86558e-07
3.43846e-05
-6.79028e-07
3.45642e-05
-8.25774e-07
3.47803e-05
-1.08174e-06
3.50492e-05
-1.6109e-06
3.53452e-05
-2.59594e-06
-4.97057e-06
3.55888e-05
5.64035e-05
6.15549e-05
5.1332e-05
2.08808e-05
4.85926e-05
9.5034e-06
4.70372e-05
5.44869e-06
4.60351e-05
3.65994e-06
4.53168e-05
2.68281e-06
4.47687e-05
2.07566e-06
4.43322e-05
1.66814e-06
4.39743e-05
1.37614e-06
4.36749e-05
1.15609e-06
4.34206e-05
9.85196e-07
4.32017e-05
8.50264e-07
4.30109e-05
7.42351e-07
4.28435e-05
6.52629e-07
4.26953e-05
5.78292e-07
4.25632e-05
5.16315e-07
4.24448e-05
4.62926e-07
4.23384e-05
4.16431e-07
4.22423e-05
3.76411e-07
4.21551e-05
3.41952e-07
4.20756e-05
3.11544e-07
4.20031e-05
2.84377e-07
4.19369e-05
2.59983e-07
4.18763e-05
2.38103e-07
4.18206e-05
2.18644e-07
4.17693e-05
2.01607e-07
4.17217e-05
1.86875e-07
4.16775e-05
1.7394e-07
4.16362e-05
1.62121e-07
4.15978e-05
1.51148e-07
4.1562e-05
1.41055e-07
4.15285e-05
1.31696e-07
4.14972e-05
1.22926e-07
4.14681e-05
1.14686e-07
4.14408e-05
1.06942e-07
4.14155e-05
9.96633e-08
4.13918e-05
9.28167e-08
4.13698e-05
8.6385e-08
4.13494e-05
8.03433e-08
4.13304e-05
7.46128e-08
4.13128e-05
6.90789e-08
4.12965e-05
6.3617e-08
4.12817e-05
5.81021e-08
4.12682e-05
5.24084e-08
4.12563e-05
4.64171e-08
4.1246e-05
3.99844e-08
4.12373e-05
3.2906e-08
4.12306e-05
2.50335e-08
4.12261e-05
1.62849e-08
4.12239e-05
6.47935e-09
4.12244e-05
-4.69206e-09
4.1228e-05
-1.73358e-08
4.1235e-05
-3.14896e-08
4.12459e-05
-4.73508e-08
4.1261e-05
-6.50923e-08
4.12809e-05
-8.49141e-08
4.13062e-05
-1.07014e-07
4.13374e-05
-1.31752e-07
4.13752e-05
-1.59377e-07
4.14205e-05
-1.90751e-07
4.14738e-05
-2.24455e-07
4.15379e-05
-2.71107e-07
4.16096e-05
-3.07549e-07
4.16627e-05
-2.24819e-07
4.17207e-05
-2.40801e-07
4.17818e-05
-2.54361e-07
4.18468e-05
-2.73407e-07
4.1916e-05
-2.92358e-07
4.19894e-05
-3.1079e-07
4.20671e-05
-3.29584e-07
4.2149e-05
-3.48813e-07
4.22354e-05
-3.68938e-07
4.23264e-05
-3.89891e-07
4.24222e-05
-4.12257e-07
4.25232e-05
-4.3616e-07
4.26297e-05
-4.62372e-07
4.27423e-05
-4.91451e-07
4.28617e-05
-5.24594e-07
4.29888e-05
-5.63342e-07
4.31252e-05
-6.10226e-07
4.32727e-05
-6.69328e-07
4.34345e-05
-7.47829e-07
4.36151e-05
-8.59264e-07
4.38223e-05
-1.03252e-06
4.40662e-05
-1.32542e-06
4.43567e-05
-1.90113e-06
4.46602e-05
-2.89967e-06
-5.17418e-06
4.48632e-05
7.114e-05
6.90064e-05
6.52562e-05
2.67646e-05
6.17259e-05
1.30337e-05
5.96464e-05
7.52828e-06
5.83165e-05
4.98981e-06
5.73757e-05
3.62357e-06
5.66628e-05
2.78863e-06
5.60978e-05
2.23307e-06
5.56365e-05
1.83748e-06
5.52519e-05
1.54075e-06
5.49259e-05
1.31115e-06
5.46458e-05
1.13035e-06
5.44022e-05
9.86002e-07
5.41886e-05
8.66192e-07
5.39998e-05
7.67095e-07
5.38316e-05
6.84539e-07
5.3681e-05
6.1348e-07
5.35457e-05
5.51672e-07
5.34236e-05
4.98516e-07
5.33128e-05
4.52758e-07
5.3212e-05
4.12382e-07
5.312e-05
3.76332e-07
5.3036e-05
3.43991e-07
5.29591e-05
3.15006e-07
5.28885e-05
2.89234e-07
5.28234e-05
2.66667e-07
5.27631e-05
2.47135e-07
5.27071e-05
2.29979e-07
5.26549e-05
2.14317e-07
5.26062e-05
1.99794e-07
5.25608e-05
1.8644e-07
5.25185e-05
1.74068e-07
5.24789e-05
1.62484e-07
5.2442e-05
1.51606e-07
5.24075e-05
1.41386e-07
5.23754e-05
1.3178e-07
5.23455e-05
1.22747e-07
5.23176e-05
1.14262e-07
5.22917e-05
1.06291e-07
5.22676e-05
9.8732e-08
5.22452e-05
9.14369e-08
5.22246e-05
8.4246e-08
5.22057e-05
7.69983e-08
5.21886e-05
6.95309e-08
5.21733e-05
6.16896e-08
5.216e-05
5.32891e-08
5.21489e-05
4.40664e-08
5.21401e-05
3.38272e-08
5.21339e-05
2.24625e-08
5.21307e-05
9.75355e-09
5.21307e-05
-4.71101e-09
5.21345e-05
-2.10892e-08
5.21424e-05
-3.94185e-08
5.21551e-05
-5.9946e-08
5.21729e-05
-8.28914e-08
5.21965e-05
-1.08511e-07
5.22266e-05
-1.37054e-07
5.22639e-05
-1.68977e-07
5.23092e-05
-2.04598e-07
5.23636e-05
-2.44993e-07
5.24277e-05
-2.8841e-07
5.25044e-05
-3.477e-07
5.25904e-05
-3.93305e-07
5.2654e-05
-2.8824e-07
5.27237e-05
-3.10185e-07
5.27971e-05
-3.27514e-07
5.28753e-05
-3.51257e-07
5.29585e-05
-3.75156e-07
5.30466e-05
-3.98496e-07
5.31396e-05
-4.22284e-07
5.32378e-05
-4.46585e-07
5.33412e-05
-4.71959e-07
5.345e-05
-4.98315e-07
5.35644e-05
-5.26359e-07
5.36849e-05
-5.56239e-07
5.38118e-05
-5.8888e-07
5.39457e-05
-6.24956e-07
5.40875e-05
-6.65891e-07
5.42382e-05
-7.13517e-07
5.43993e-05
-7.70816e-07
5.45731e-05
-8.42546e-07
5.47628e-05
-9.3694e-07
5.49733e-05
-1.06918e-06
5.52117e-05
-1.27051e-06
5.5487e-05
-1.60036e-06
5.58013e-05
-2.21522e-06
5.61165e-05
-3.21511e-06
-5.34102e-06
5.62825e-05
8.91971e-05
7.62258e-05
8.25809e-05
3.33809e-05
7.81423e-05
1.74723e-05
7.53815e-05
1.02891e-05
7.36005e-05
6.77084e-06
7.23579e-05
4.86623e-06
7.14254e-05
3.72115e-06
7.06905e-05
2.9679e-06
7.00931e-05
2.43489e-06
6.95968e-05
2.03709e-06
6.91774e-05
1.73057e-06
6.88178e-05
1.48994e-06
6.85056e-05
1.29824e-06
6.82323e-05
1.13941e-06
6.79911e-05
1.00834e-06
6.77764e-05
8.9926e-07
6.75844e-05
8.0544e-07
6.74121e-05
7.23945e-07
6.72567e-05
6.53956e-07
6.71157e-05
5.93747e-07
6.69874e-05
5.4062e-07
6.68705e-05
4.93212e-07
6.67638e-05
4.50725e-07
6.66661e-05
4.12683e-07
6.65764e-05
3.78872e-07
6.64938e-05
3.49269e-07
6.64173e-05
3.23626e-07
6.63462e-05
3.01082e-07
6.628e-05
2.80517e-07
6.62183e-05
2.61469e-07
6.61608e-05
2.43964e-07
6.61071e-05
2.2776e-07
6.60569e-05
2.12604e-07
6.60102e-05
1.98383e-07
6.59665e-05
1.8503e-07
6.59258e-05
1.72484e-07
6.58879e-05
1.60691e-07
6.58525e-05
1.4962e-07
6.58196e-05
1.39221e-07
6.5789e-05
1.29361e-07
6.57606e-05
1.19851e-07
6.57343e-05
1.10491e-07
6.57103e-05
1.01074e-07
6.56884e-05
9.13938e-08
6.56689e-05
8.12533e-08
6.56518e-05
7.04175e-08
6.56373e-05
5.85527e-08
6.56257e-05
4.54086e-08
6.56173e-05
3.08435e-08
6.56125e-05
1.45972e-08
6.56117e-05
-3.86549e-09
6.56154e-05
-2.47734e-08
6.56242e-05
-4.81657e-08
6.56386e-05
-7.43444e-08
6.56594e-05
-1.03585e-07
6.56871e-05
-1.36208e-07
6.57227e-05
-1.72527e-07
6.57669e-05
-2.13111e-07
6.58208e-05
-2.58357e-07
6.58855e-05
-3.09586e-07
6.5962e-05
-3.64698e-07
6.60534e-05
-4.38884e-07
6.61558e-05
-4.95516e-07
6.62317e-05
-3.63762e-07
6.63147e-05
-3.92858e-07
6.64025e-05
-4.14928e-07
6.64959e-05
-4.4422e-07
6.65952e-05
-4.73969e-07
6.67003e-05
-5.03112e-07
6.68113e-05
-5.3279e-07
6.69283e-05
-5.63062e-07
6.70514e-05
-5.94601e-07
6.71808e-05
-6.27289e-07
6.73169e-05
-6.61967e-07
6.74599e-05
-6.98813e-07
6.76104e-05
-7.3892e-07
6.77691e-05
-7.83094e-07
6.79368e-05
-8.33006e-07
6.81148e-05
-8.90815e-07
6.83046e-05
-9.59981e-07
6.85088e-05
-1.04598e-06
6.87307e-05
-1.1581e-06
6.89751e-05
-1.31306e-06
6.9249e-05
-1.54378e-06
6.95589e-05
-1.90987e-06
6.98989e-05
-2.555e-06
7.02274e-05
-3.54399e-06
-5.47759e-06
7.03628e-05
0.000111313
8.29267e-05
0.000104111
4.05825e-05
9.86832e-05
2.29006e-05
9.50728e-05
1.38996e-05
9.26798e-05
9.16385e-06
9.10155e-05
6.53055e-06
8.97835e-05
4.95318e-06
8.88213e-05
3.93008e-06
8.80428e-05
3.21339e-06
8.73986e-05
2.68131e-06
8.68559e-05
2.27322e-06
8.63918e-05
1.95401e-06
8.59898e-05
1.70034e-06
8.56386e-05
1.4905e-06
8.53291e-05
1.3179e-06
8.50539e-05
1.17445e-06
8.48082e-05
1.05113e-06
8.45879e-05
9.44181e-07
8.43893e-05
8.52518e-07
8.42093e-05
7.73752e-07
8.40457e-05
7.04241e-07
8.38966e-05
6.42242e-07
8.37606e-05
5.86744e-07
8.36362e-05
5.37107e-07
8.3522e-05
4.93023e-07
8.34168e-05
4.54439e-07
8.33194e-05
4.20994e-07
8.32289e-05
3.91555e-07
8.31447e-05
3.64711e-07
8.30663e-05
3.39872e-07
8.29932e-05
3.17061e-07
8.2925e-05
2.95965e-07
8.28613e-05
2.76259e-07
8.28019e-05
2.57789e-07
8.27465e-05
2.4046e-07
8.26948e-05
2.24189e-07
8.26466e-05
2.08906e-07
8.26016e-05
1.9457e-07
8.25597e-05
1.81111e-07
8.25208e-05
1.68352e-07
8.24846e-05
1.56057e-07
8.24511e-05
1.4397e-07
8.24204e-05
1.31835e-07
8.23924e-05
1.19393e-07
8.23673e-05
1.06395e-07
8.23451e-05
9.25452e-08
8.23263e-05
7.74265e-08
8.2311e-05
6.0721e-08
8.22996e-05
4.22471e-08
8.22925e-05
2.16972e-08
8.22903e-05
-1.60337e-09
8.22935e-05
-2.79841e-08
8.23029e-05
-5.74954e-08
8.23191e-05
-9.04937e-08
8.23429e-05
-1.27319e-07
8.23752e-05
-1.68372e-07
8.24168e-05
-2.14035e-07
8.24688e-05
-2.65015e-07
8.25324e-05
-3.21801e-07
8.2609e-05
-3.85989e-07
8.26997e-05
-4.55129e-07
8.28079e-05
-5.46791e-07
8.29295e-05
-6.16802e-07
8.30194e-05
-4.53259e-07
8.31178e-05
-4.90791e-07
8.32222e-05
-5.18798e-07
8.33332e-05
-5.54638e-07
8.34511e-05
-5.91297e-07
8.35759e-05
-6.273e-07
8.37077e-05
-6.6392e-07
8.38465e-05
-7.01219e-07
8.39925e-05
-7.39992e-07
8.41459e-05
-7.80099e-07
8.4307e-05
-8.2252e-07
8.44763e-05
-8.67484e-07
8.46542e-05
-9.16257e-07
8.48416e-05
-9.69804e-07
8.50394e-05
-1.03006e-06
8.52489e-05
-1.09954e-06
8.5472e-05
-1.18221e-06
8.57111e-05
-1.28429e-06
8.59699e-05
-1.41606e-06
8.62532e-05
-1.59555e-06
8.65665e-05
-1.85651e-06
8.69139e-05
-2.2568e-06
8.72806e-05
-2.9215e-06
8.7622e-05
-3.88595e-06
-5.59328e-06
8.77363e-05
0.00013832
8.87598e-05
0.000130793
4.81104e-05
0.000124376
2.9317e-05
0.000119759
1.85168e-05
0.000116567
1.23558e-05
0.000114317
8.78111e-06
0.00011266
6.60952e-06
0.000111384
5.20657e-06
0.000110361
4.23581e-06
0.000109519
3.52381e-06
0.000108812
2.98037e-06
0.000108209
2.55704e-06
0.000107687
2.22152e-06
0.000107233
1.94445e-06
0.000106834
1.7175e-06
0.000106479
1.52919e-06
0.000106163
1.36729e-06
0.00010588
1.22718e-06
0.000105625
1.10744e-06
0.000105394