/*--------------------------------*- C++ -*----------------------------------*\
| =========                 |                                                 |
| \\      /  F ield         | OpenFOAM: The Open Source CFD Toolbox           |
|  \\    /   O peration     | Version:  5.x                                   |
|   \\  /    A nd           | Web:      www.OpenFOAM.org                      |
|    \\/     M anipulation  |                                                 |
\*---------------------------------------------------------------------------*/
FoamFile
{
    version     2.0;
    format      ascii;
    class       volVectorField;
    location    "500";
    object      U;
}
// * * * * * * * * * * * * * * * * * * * * * * * * * * * * * * * * * * * * * //

dimensions      [0 1 -1 0 0 0 0];

internalField   nonuniform List<vector> 
20540
(
(44.178 -5.99739e-07 0)
(44.2185 0.00500467 0)
(44.178 -1.8892e-06 0)
(44.2185 0.0142203 0)
(44.1781 -3.35177e-06 0)
(44.2185 0.0229489 0)
(44.1781 -5.01418e-06 0)
(44.2185 0.0308761 0)
(44.1781 -6.85421e-06 0)
(44.2185 0.0382536 0)
(44.1781 -8.79394e-06 0)
(44.2184 0.0453162 0)
(44.1781 -1.06804e-05 0)
(44.2184 0.052114 0)
(44.1782 -1.2252e-05 0)
(44.2184 0.0585987 0)
(44.1782 -1.30956e-05 0)
(44.2185 0.0646843 0)
(44.1783 -1.26047e-05 0)
(44.2186 0.0702744 0)
(44.1785 -9.94762e-06 0)
(44.2187 0.0752095 0)
(44.1786 -4.04972e-06 0)
(44.219 0.0793201 0)
(44.1789 6.40902e-06 0)
(44.2193 0.0824623 0)
(44.1792 2.29766e-05 0)
(44.2196 0.0844699 0)
(44.1796 4.73905e-05 0)
(44.2201 0.0853586 0)
(44.18 8.15054e-05 0)
(44.2206 0.0853098 0)
(44.1806 0.000127187 0)
(44.2212 0.0846018 0)
(44.1813 0.000186188 0)
(44.222 0.0834875 0)
(44.1821 0.000260011 0)
(44.2229 0.0820639 0)
(44.183 0.000349725 0)
(44.224 0.0803201 0)
(44.1842 0.000455672 0)
(44.2252 0.0782062 0)
(44.1855 0.000577037 0)
(44.2267 0.0756562 0)
(44.187 0.000711221 0)
(44.2285 0.0725907 0)
(44.1888 0.000852987 0)
(44.2305 0.0689172 0)
(44.1908 0.000993352 0)
(44.2327 0.0645284 0)
(44.193 0.00111824 0)
(44.2353 0.0593001 0)
(44.1955 0.00120708 0)
(44.238 0.053088 0)
(44.1981 0.00123164 0)
(44.241 0.0457229 0)
(44.2007 0.00115619 0)
(44.244 0.037002 0)
(44.2032 0.000940396 0)
(44.2468 0.0266715 0)
(44.2049 0.000605679 0)
(44.2487 0.0157792 0)
(44.2057 0.00021181 0)
(44.2497 0.00523986 0)
(44.2057 -0.000202977 0)
(44.2496 -0.00527274 0)
(44.2049 -0.000596662 0)
(44.2487 -0.0158121 0)
(44.2032 -0.000927254 0)
(44.2468 -0.0265344 0)
(44.2009 -0.00113992 0)
(44.2441 -0.036576 0)
(44.1983 -0.00121978 0)
(44.2412 -0.0451009 0)
(44.1958 -0.0012034 0)
(44.2384 -0.0523413 0)
(44.1934 -0.00112365 0)
(44.2357 -0.0584839 0)
(44.1912 -0.00100697 0)
(44.2332 -0.0636849 0)
(44.1892 -0.000873027 0)
(44.2309 -0.0680779 0)
(44.1874 -0.000735581 0)
(44.2289 -0.0717786 0)
(44.1859 -0.000603678 0)
(44.2272 -0.0748871 0)
(44.1845 -0.000482817 0)
(44.2257 -0.0774905 0)
(44.1834 -0.000375942 0)
(44.2244 -0.079664 0)
(44.1824 -0.000284231 0)
(44.2233 -0.0814713 0)
(44.1816 -0.000207679 0)
(44.2223 -0.082964 0)
(44.1809 -0.000145516 0)
(44.2215 -0.0841717 0)
(44.1803 -9.6501e-05 0)
(44.2209 -0.0850611 0)
(44.1798 -5.9103e-05 0)
(44.2203 -0.0854663 0)
(44.1794 -3.16364e-05 0)
(44.2199 -0.0851201 0)
(44.179 -1.23704e-05 0)
(44.2195 -0.0837993 0)
(44.1788 3.63868e-07 0)
(44.2191 -0.081395 0)
(44.1785 8.09009e-06 0)
(44.2189 -0.0779669 0)
(44.1784 1.21378e-05 0)
(44.2187 -0.0737076 0)
(44.1783 1.36177e-05 0)
(44.2185 -0.0687032 0)
(44.1782 1.34175e-05 0)
(44.2185 -0.0631537 0)
(44.1781 1.22124e-05 0)
(44.2184 -0.0571596 0)
(44.1781 1.04864e-05 0)
(44.2184 -0.0508095 0)
(44.1781 8.56414e-06 0)
(44.2184 -0.0441742 0)
(44.178 6.64842e-06 0)
(44.2185 -0.0372861 0)
(44.178 4.85657e-06 0)
(44.2185 -0.0300826 0)
(44.178 3.24647e-06 0)
(44.2185 -0.0223392 0)
(44.178 1.83082e-06 0)
(44.2185 -0.0138374 0)
(44.178 5.81668e-07 0)
(44.2185 -0.00486213 0)
(4.31957 0.00488349 0)
(3.30989 3.89618e-06 0)
(3.10323 -7.63546e-07 0)
(2.97643 1.34305e-06 0)
(2.88458 1.37625e-06 0)
(2.81581 1.19587e-06 0)
(2.76226 1.04092e-06 0)
(2.71939 9.20631e-07 0)
(2.68413 8.25803e-07 0)
(2.65467 7.48417e-07 0)
(2.62965 6.81534e-07 0)
(2.6082 6.21348e-07 0)
(2.58954 5.67372e-07 0)
(2.57319 5.10357e-07 0)
(2.55878 4.56726e-07 0)
(2.54595 4.05258e-07 0)
(2.53447 3.56674e-07 0)
(2.52417 3.11528e-07 0)
(2.5149 2.77415e-07 0)
(2.50649 2.54973e-07 0)
(2.49884 2.43646e-07 0)
(2.49186 2.42391e-07 0)
(2.48548 2.48766e-07 0)
(2.47965 2.61141e-07 0)
(2.47431 2.75234e-07 0)
(2.4694 2.88031e-07 0)
(2.46486 2.94709e-07 0)
(2.46064 2.92794e-07 0)
(2.4567 2.79636e-07 0)
(2.45304 2.57561e-07 0)
(2.44963 2.30562e-07 0)
(2.44644 2.00756e-07 0)
(2.44348 1.72184e-07 0)
(2.44071 1.48238e-07 0)
(2.43813 1.3139e-07 0)
(2.43573 1.22666e-07 0)
(2.4335 1.21779e-07 0)
(2.43142 1.27742e-07 0)
(2.42949 1.38787e-07 0)
(2.42769 1.51556e-07 0)
(2.42603 1.63119e-07 0)
(2.4245 1.70971e-07 0)
(2.42309 1.73043e-07 0)
(2.42182 1.67454e-07 0)
(2.42069 1.52646e-07 0)
(2.41971 1.27713e-07 0)
(2.4189 9.08587e-08 0)
(2.41828 4.24278e-08 0)
(2.41786 -1.58206e-08 0)
(2.41768 -8.57474e-08 0)
(2.41776 -1.66537e-07 0)
(2.41815 -2.52868e-07 0)
(2.41888 -3.44259e-07 0)
(2.42 -4.4399e-07 0)
(2.42154 -5.56534e-07 0)
(2.42357 -6.8832e-07 0)
(2.42614 -8.44254e-07 0)
(2.42932 -1.03624e-06 0)
(2.43318 -1.26751e-06 0)
(2.43782 -1.5363e-06 0)
(2.44338 -1.93055e-06 0)
(2.44971 -2.0699e-06 0)
(2.45846 -4.13558e-06 0)
(2.46606 -3.10249e-06 0)
(2.47205 -1.01837e-06 0)
(2.478 -4.00243e-06 0)
(2.48521 -4.94112e-06 0)
(2.49309 -5.4406e-06 0)
(2.50149 -6.13903e-06 0)
(2.51045 -7.07997e-06 0)
(2.52001 -8.1515e-06 0)
(2.53021 -9.44158e-06 0)
(2.54109 -1.08601e-05 0)
(2.55272 -1.25573e-05 0)
(2.56518 -1.4454e-05 0)
(2.57858 -1.67549e-05 0)
(2.59305 -1.94943e-05 0)
(2.60878 -2.30095e-05 0)
(2.62605 -2.76304e-05 0)
(2.64523 -3.40826e-05 0)
(2.66693 -4.36349e-05 0)
(2.69208 -5.85691e-05 0)
(2.72239 -8.47717e-05 0)
(2.76098 -0.000134937 0)
(2.81606 -0.0002687 0)
(2.9021 -0.000662353 0)
(3.12594 -0.00374103 0)
(3.75982 -0.0588313 0)
(12.8494 0.0148065 0)
(10.4712 0.000579301 0)
(9.83379 0.000182552 0)
(9.44245 0.000130033 0)
(9.15829 0.000100174 0)
(8.94506 7.93795e-05 0)
(8.77878 6.49801e-05 0)
(8.64555 5.46593e-05 0)
(8.53585 4.70015e-05 0)
(8.44413 4.10699e-05 0)
(8.36619 3.63536e-05 0)
(8.29935 3.25624e-05 0)
(8.24115 2.94921e-05 0)
(8.19014 2.6854e-05 0)
(8.14518 2.46369e-05 0)
(8.10513 2.27678e-05 0)
(8.06928 2.11111e-05 0)
(8.03711 1.96273e-05 0)
(8.00814 1.83527e-05 0)
(7.98187 1.72735e-05 0)
(7.95794 1.63246e-05 0)
(7.93611 1.54744e-05 0)
(7.91617 1.47049e-05 0)
(7.89793 1.40149e-05 0)
(7.88122 1.34037e-05 0)
(7.86586 1.28792e-05 0)
(7.85165 1.24349e-05 0)
(7.83845 1.20367e-05 0)
(7.82614 1.16345e-05 0)
(7.81469 1.12223e-05 0)
(7.80401 1.0819e-05 0)
(7.79405 1.04203e-05 0)
(7.78476 1.00288e-05 0)
(7.77611 9.65277e-06 0)
(7.76804 9.2988e-06 0)
(7.76053 8.96962e-06 0)
(7.75353 8.66455e-06 0)
(7.74702 8.38302e-06 0)
(7.74096 8.12145e-06 0)
(7.73532 7.86502e-06 0)
(7.7301 7.59402e-06 0)
(7.72527 7.28747e-06 0)
(7.72084 6.9238e-06 0)
(7.71683 6.47991e-06 0)
(7.71324 5.93222e-06 0)
(7.71012 5.25166e-06 0)
(7.7075 4.39395e-06 0)
(7.70544 3.32744e-06 0)
(7.70401 2.02963e-06 0)
(7.70328 4.28749e-07 0)
(7.70335 -1.53869e-06 0)
(7.70433 -3.87941e-06 0)
(7.70632 -6.6481e-06 0)
(7.70944 -9.94379e-06 0)
(7.71384 -1.38548e-05 0)
(7.71966 -1.84906e-05 0)
(7.72709 -2.39679e-05 0)
(7.73632 -3.0479e-05 0)
(7.74756 -3.81745e-05 0)
(7.76107 -4.74096e-05 0)
(7.77726 -5.80109e-05 0)
(7.79587 -7.35059e-05 0)
(7.8208 -9.4866e-05 0)
(7.84194 -9.79215e-05 0)
(7.86002 -9.63332e-05 0)
(7.87793 -0.000120099 0)
(7.89875 -0.000142553 0)
(7.92145 -0.00016123 0)
(7.94569 -0.000180873 0)
(7.97152 -0.000203234 0)
(7.99901 -0.000228245 0)
(8.02827 -0.000256709 0)
(8.05942 -0.000288642 0)
(8.09263 -0.000325384 0)
(8.12807 -0.000367363 0)
(8.16604 -0.000416625 0)
(8.20687 -0.000474826 0)
(8.25106 -0.000545649 0)
(8.29927 -0.000634016 0)
(8.35247 -0.000748747 0)
(8.41215 -0.00090508 0)
(8.48069 -0.00113256 0)
(8.56235 -0.0014957 0)
(8.66517 -0.00216032 0)
(8.80943 -0.00361653 0)
(9.03721 -0.00802718 0)
(9.57677 -0.0264588 0)
(10.7863 -0.149391 0)
(20.3767 0.0248121 0)
(17.1395 0.00192573 0)
(16.1845 0.000654275 0)
(15.6181 0.000447884 0)
(15.2095 0.000343629 0)
(14.9023 0.00027292 0)
(14.6621 0.000224006 0)
(14.469 0.000188854 0)
(14.3095 0.00016272 0)
(14.1759 0.000142439 0)
(14.0621 0.000126287 0)
(13.9643 0.000113298 0)
(13.879 0.000102768 0)
(13.8041 9.37496e-05 0)
(13.7379 8.61667e-05 0)
(13.679 7.97812e-05 0)
(13.6261 7.41212e-05 0)
(13.5787 6.90472e-05 0)
(13.5359 6.46575e-05 0)
(13.497 6.09065e-05 0)
(13.4616 5.75761e-05 0)
(13.4293 5.4557e-05 0)
(13.3998 5.18006e-05 0)
(13.3728 4.93053e-05 0)
(13.348 4.70872e-05 0)
(13.3252 4.5183e-05 0)
(13.3042 4.35879e-05 0)
(13.2846 4.21899e-05 0)
(13.2663 4.08215e-05 0)
(13.2493 3.94474e-05 0)
(13.2334 3.81152e-05 0)
(13.2186 3.68056e-05 0)
(13.2047 3.55118e-05 0)
(13.1919 3.42511e-05 0)
(13.1798 3.30391e-05 0)
(13.1686 3.18836e-05 0)
(13.1582 3.0785e-05 0)
(13.1485 2.97457e-05 0)
(13.1395 2.87602e-05 0)
(13.1311 2.77894e-05 0)
(13.1233 2.67745e-05 0)
(13.1161 2.56497e-05 0)
(13.1095 2.43453e-05 0)
(13.1035 2.27851e-05 0)
(13.0981 2.08899e-05 0)
(13.0934 1.85587e-05 0)
(13.0895 1.56422e-05 0)
(13.0864 1.20233e-05 0)
(13.0842 7.61129e-06 0)
(13.0831 2.17319e-06 0)
(13.0831 -4.52635e-06 0)
(13.0844 -1.25513e-05 0)
(13.0872 -2.20836e-05 0)
(13.0917 -3.34513e-05 0)
(13.0981 -4.69508e-05 0)
(13.1066 -6.29424e-05 0)
(13.1174 -8.18191e-05 0)
(13.1308 -0.000104199 0)
(13.1472 -0.000130607 0)
(13.1668 -0.000162235 0)
(13.1904 -0.000198361 0)
(13.2176 -0.000251415 0)
(13.2533 -0.000313857 0)
(13.2833 -0.000335126 0)
(13.3103 -0.000345807 0)
(13.3368 -0.000408845 0)
(13.3668 -0.000479103 0)
(13.3995 -0.000542987 0)
(13.4344 -0.00060899 0)
(13.4716 -0.000682636 0)
(13.5111 -0.000764348 0)
(13.5531 -0.000856685 0)
(13.5977 -0.000959837 0)
(13.6451 -0.00107774 0)
(13.6955 -0.00121175 0)
(13.7494 -0.00136793 0)
(13.8071 -0.00155087 0)
(13.8693 -0.00177133 0)
(13.9367 -0.00204281 0)
(14.0107 -0.00239035 0)
(14.093 -0.00285544 0)
(14.1865 -0.00351956 0)
(14.2962 -0.00455439 0)
(14.4317 -0.00639824 0)
(14.6154 -0.0102847 0)
(14.8928 -0.021203 0)
(15.4744 -0.0577958 0)
(16.4629 -0.215873 0)
(25.8042 0.033902 0)
(21.9326 0.00389742 0)
(20.7216 0.00141155 0)
(20.0481 0.00093765 0)
(19.5751 0.000714028 0)
(19.2229 0.000566568 0)
(18.9485 0.000465312 0)
(18.7283 0.000392664 0)
(18.5465 0.000338672 0)
(18.3942 0.000296759 0)
(18.2645 0.000263362 0)
(18.1529 0.000236491 0)
(18.0556 0.0002147 0)
(17.9702 0.00019607 0)
(17.8947 0.000180403 0)
(17.8273 0.000167212 0)
(17.767 0.000155532 0)
(17.7127 0.000145062 0)
(17.6638 0.000135974 0)
(17.6194 0.000128169 0)
(17.5789 0.000121205 0)
(17.542 0.000114858 0)
(17.5082 0.000109035 0)
(17.4773 0.000103734 0)
(17.449 9.90033e-05 0)
(17.4229 9.49305e-05 0)
(17.3988 9.15263e-05 0)
(17.3764 8.85721e-05 0)
(17.3554 8.57297e-05 0)
(17.3359 8.29123e-05 0)
(17.3178 8.02021e-05 0)
(17.3008 7.75535e-05 0)
(17.2849 7.4935e-05 0)
(17.2701 7.23676e-05 0)
(17.2564 6.98738e-05 0)
(17.2435 6.74656e-05 0)
(17.2316 6.51441e-05 0)
(17.2204 6.29173e-05 0)
(17.2101 6.07797e-05 0)
(17.2004 5.86621e-05 0)
(17.1915 5.64532e-05 0)
(17.1833 5.40239e-05 0)
(17.1757 5.12341e-05 0)
(17.1688 4.79295e-05 0)
(17.1627 4.39468e-05 0)
(17.1574 3.90757e-05 0)
(17.1529 3.3008e-05 0)
(17.1494 2.54905e-05 0)
(17.1469 1.63201e-05 0)
(17.1456 5.04056e-06 0)
(17.1457 -8.85691e-06 0)
(17.1473 -2.55804e-05 0)
(17.1506 -4.55044e-05 0)
(17.1559 -6.92844e-05 0)
(17.1633 -9.75349e-05 0)
(17.1732 -0.000130994 0)
(17.1857 -0.000170473 0)
(17.2013 -0.000217213 0)
(17.2204 -0.000272315 0)
(17.2432 -0.00033822 0)
(17.2705 -0.000413333 0)
(17.302 -0.000523188 0)
(17.343 -0.000640885 0)
(17.3772 -0.000698867 0)
(17.4091 -0.000741116 0)
(17.4403 -0.000853439 0)
(17.4749 -0.000989876 0)
(17.5123 -0.00112147 0)
(17.5524 -0.00125765 0)
(17.5951 -0.001408 0)
(17.6404 -0.00157401 0)
(17.6885 -0.00176055 0)
(17.7394 -0.00196842 0)
(17.7935 -0.00220475 0)
(17.851 -0.00247255 0)
(17.9122 -0.00278283 0)
(17.9775 -0.00314439 0)
(18.0476 -0.00357681 0)
(18.1233 -0.00410479 0)
(18.2057 -0.00477337 0)
(18.2968 -0.00565641 0)
(18.3991 -0.00689748 0)
(18.5174 -0.00879309 0)
(18.6602 -0.0120816 0)
(18.8466 -0.0187522 0)
(19.1105 -0.036252 0)
(19.6004 -0.0866746 0)
(20.2216 -0.261201 0)
(29.7334 0.0431475 0)
(25.4153 0.00656536 0)
(23.946 0.00246999 0)
(23.1671 0.00159072 0)
(22.6374 0.00119623 0)
(22.249 0.000944377 0)
(21.9489 0.000773939 0)
(21.7089 0.000652596 0)
(21.5115 0.000562698 0)
(21.3462 0.000493028 0)
(21.2055 0.000437579 0)
(21.0847 0.000392988 0)
(20.9794 0.000356842 0)
(20.8869 0.000326003 0)
(20.8053 0.000300071 0)
(20.7324 0.000278241 0)
(20.6672 0.000258944 0)
(20.6085 0.000241663 0)
(20.5556 0.000226634 0)
(20.5076 0.000213686 0)
(20.4639 0.000202103 0)
(20.424 0.000191525 0)
(20.3875 0.000181799 0)
(20.3542 0.000172917 0)
(20.3236 0.000164969 0)
(20.2955 0.000158108 0)
(20.2694 0.00015237 0)
(20.2452 0.000147416 0)
(20.2226 0.000142699 0)
(20.2016 0.000138063 0)
(20.1819 0.000133628 0)
(20.1636 0.000129316 0)
(20.1465 0.000125055 0)
(20.1305 0.000120864 0)
(20.1156 0.000116771 0)
(20.1017 0.000112789 0)
(20.0888 0.000108919 0)
(20.0768 0.000105176 0)
(20.0656 0.000101554 0)
(20.0552 9.79513e-05 0)
(20.0456 9.41939e-05 0)
(20.0367 9.0076e-05 0)
(20.0285 8.53706e-05 0)
(20.0211 7.98252e-05 0)
(20.0145 7.31709e-05 0)
(20.0088 6.50588e-05 0)
(20.0039 5.49803e-05 0)
(20.0001 4.25053e-05 0)
(19.9975 2.7283e-05 0)
(19.9961 8.59109e-06 0)
(19.9962 -1.44352e-05 0)
(19.998 -4.22322e-05 0)
(20.0016 -7.54153e-05 0)
(20.0073 -0.000115033 0)
(20.0154 -0.000162107 0)
(20.0261 -0.000217854 0)
(20.0398 -0.00028362 0)
(20.0567 -0.000361423 0)
(20.0773 -0.000453094 0)
(20.1021 -0.000562653 0)
(20.1317 -0.00068731 0)
(20.1658 -0.000868684 0)
(20.2098 -0.0010514 0)
(20.2463 -0.00116355 0)
(20.2813 -0.00125618 0)
(20.3157 -0.00142503 0)
(20.353 -0.00164038 0)
(20.3933 -0.0018565 0)
(20.4365 -0.00208154 0)
(20.4823 -0.00232879 0)
(20.531 -0.00260094 0)
(20.5825 -0.00290554 0)
(20.6372 -0.00324423 0)
(20.695 -0.00362784 0)
(20.7563 -0.00406136 0)
(20.8214 -0.00456141 0)
(20.8907 -0.00514166 0)
(20.9648 -0.00583149 0)
(21.0445 -0.006668 0)
(21.1308 -0.00771789 0)
(21.2254 -0.00908943 0)
(21.3307 -0.0109904 0)
(21.4509 -0.0138414 0)
(21.593 -0.018661 0)
(21.7723 -0.0280621 0)
(22.0112 -0.051303 0)
(22.4091 -0.11127 0)
(22.7885 -0.294487 0)
(32.7279 0.0528467 0)
(28.1632 0.0101515 0)
(26.4442 0.00396913 0)
(25.5543 0.00248204 0)
(24.9673 0.00183657 0)
(24.5442 0.00143872 0)
(24.2209 0.00117471 0)
(23.9635 0.000989028 0)
(23.7523 0.000852044 0)
(23.5759 0.000746145 0)
(23.4259 0.000662011 0)
(23.2972 0.000594421 0)
(23.1851 0.00053967 0)
(23.0868 0.000493055 0)
(22.9999 0.000453873 0)
(22.9225 0.000420894 0)
(22.8532 0.000391794 0)
(22.7909 0.000365768 0)
(22.7347 0.000343107 0)
(22.6838 0.000323537 0)
(22.6374 0.000306003 0)
(22.595 0.000289978 0)
(22.5564 0.000275227 0)
(22.521 0.000261732 0)
(22.4885 0.000249629 0)
(22.4587 0.000239154 0)
(22.4311 0.000230384 0)
(22.4054 0.000222834 0)
(22.3815 0.0002157 0)
(22.3592 0.000208733 0)
(22.3384 0.000202101 0)
(22.3189 0.000195677 0)
(22.3008 0.000189339 0)
(22.2838 0.000183095 0)
(22.268 0.000176973 0)
(22.2533 0.00017099 0)
(22.2396 0.000165143 0)
(22.2268 0.000159454 0)
(22.215 0.000153917 0)
(22.2039 0.000148393 0)
(22.1937 0.000142632 0)
(22.1843 0.000136333 0)
(22.1756 0.00012916 0)
(22.1678 0.000120736 0)
(22.1608 0.00011066 0)
(22.1547 9.84052e-05 0)
(22.1495 8.32114e-05 0)
(22.1455 6.44192e-05 0)
(22.1426 4.14863e-05 0)
(22.1411 1.3363e-05 0)
(22.1411 -2.1283e-05 0)
(22.1429 -6.3203e-05 0)
(22.1466 -0.000113308 0)
(22.1525 -0.000173133 0)
(22.1609 -0.000244217 0)
(22.1721 -0.000328387 0)
(22.1863 -0.000427663 0)
(22.204 -0.000545035 0)
(22.2256 -0.000683261 0)
(22.2514 -0.000848349 0)
(22.2823 -0.00103592 0)
(22.3179 -0.00130723 0)
(22.3635 -0.0015683 0)
(22.4011 -0.00175464 0)
(22.4379 -0.00191987 0)
(22.4742 -0.00215777 0)
(22.5133 -0.0024697 0)
(22.5553 -0.00279128 0)
(22.6003 -0.00312829 0)
(22.648 -0.00349764 0)
(22.6985 -0.00390325 0)
(22.752 -0.00435577 0)
(22.8086 -0.00485787 0)
(22.8684 -0.00542465 0)
(22.9317 -0.0060634 0)
(22.9988 -0.00679718 0)
(23.07 -0.00764519 0)
(23.1458 -0.00864781 0)
(23.2271 -0.00985581 0)
(23.3147 -0.0113595 0)
(23.4101 -0.013304 0)
(23.5155 -0.0159638 0)
(23.6343 -0.0198834 0)
(23.7726 -0.0263548 0)
(23.9425 -0.0385262 0)
(24.1591 -0.0670217 0)
(24.4924 -0.133635 0)
(24.7337 -0.321779 0)
(35.1152 0.0629835 0)
(30.4846 0.0147956 0)
(28.5335 0.00604912 0)
(27.5285 0.00369079 0)
(26.8849 0.00268392 0)
(26.4275 0.0020858 0)
(26.081 0.00169587 0)
(25.8064 0.0014248 0)
(25.5818 0.00122586 0)
(25.3945 0.00107255 0)
(25.2356 0.000951039 0)
(25.0993 0.00085355 0)
(24.9808 0.000774657 0)
(24.8768 0.000707629 0)
(24.7851 0.000651323 0)
(24.7034 0.000603939 0)
(24.6303 0.000562202 0)
(24.5645 0.000524928 0)
(24.5053 0.000492454 0)
(24.4516 0.000464359 0)
(24.4027 0.00043916 0)
(24.3581 0.000416124 0)
(24.3173 0.000394914 0)
(24.2801 0.000375491 0)
(24.2459 0.000358045 0)
(24.2145 0.000342913 0)
(24.1854 0.000330219 0)
(24.1584 0.00031931 0)
(24.1332 0.000309065 0)
(24.1097 0.000299114 0)
(24.0878 0.000289673 0)
(24.0674 0.000280562 0)
(24.0483 0.000271586 0)
(24.0304 0.000262735 0)
(24.0138 0.000254038 0)
(23.9983 0.000245509 0)
(23.9838 0.000237144 0)
(23.9704 0.000228969 0)
(23.9579 0.000220983 0)
(23.9463 0.000212997 0)
(23.9355 0.00020467 0)
(23.9256 0.000195585 0)
(23.9165 0.00018527 0)
(23.9082 0.000173192 0)
(23.9008 0.00015878 0)
(23.8943 0.00014129 0)
(23.8888 0.000119644 0)
(23.8845 9.28919e-05 0)
(23.8814 6.02463e-05 0)
(23.8796 2.02634e-05 0)
(23.8795 -2.89984e-05 0)
(23.8812 -8.8712e-05 0)
(23.8849 -0.000160138 0)
(23.8908 -0.000245413 0)
(23.8993 -0.000346722 0)
(23.9107 -0.000466654 0)
(23.9252 -0.000608068 0)
(23.9433 -0.000775159 0)
(23.9653 -0.000971837 0)
(23.9917 -0.00120654 0)
(24.0233 -0.00147301 0)
(24.0598 -0.00185534 0)
(24.1062 -0.00221019 0)
(24.1442 -0.00249332 0)
(24.1819 -0.00275747 0)
(24.2192 -0.00308008 0)
(24.2593 -0.00350842 0)
(24.3024 -0.00395918 0)
(24.3482 -0.00443427 0)
(24.3968 -0.00495429 0)
(24.4483 -0.00552433 0)
(24.5027 -0.00615864 0)
(24.5602 -0.00686096 0)
(24.6209 -0.00765134 0)
(24.6849 -0.00853966 0)
(24.7527 -0.00955635 0)
(24.8245 -0.0107267 0)
(24.9007 -0.0121035 0)
(24.9822 -0.0137526 0)
(25.0696 -0.0157901 0)
(25.1645 -0.0184005 0)
(25.2685 -0.0219286 0)
(25.3849 -0.0270443 0)
(25.5186 -0.0352975 0)
(25.6797 -0.0502751 0)
(25.8778 -0.0835334 0)
(26.1655 -0.154884 0)
(26.3237 -0.344935 0)
(37.0761 0.073505 0)
(32.5421 0.0206088 0)
(30.3883 0.00887545 0)
(29.2625 0.00532431 0)
(28.5604 0.00380391 0)
(28.0668 0.00293164 0)
(27.6955 0.0023722 0)
(27.4028 0.00198799 0)
(27.1641 0.00170761 0)
(26.9656 0.00149237 0)
(26.7975 0.00132223 0)
(26.6536 0.00118595 0)
(26.5286 0.0010758 0)
(26.419 0.000982403 0)
(26.3224 0.000904014 0)
(26.2364 0.000838066 0)
(26.1595 0.000780067 0)
(26.0904 0.000728348 0)
(26.0281 0.000683288 0)
(25.9716 0.00064426 0)
(25.9203 0.000609227 0)
(25.8735 0.000577207 0)
(25.8307 0.000547731 0)
(25.7916 0.000520726 0)
(25.7557 0.000496442 0)
(25.7227 0.000475339 0)
(25.6922 0.000457595 0)
(25.6639 0.000442354 0)
(25.6375 0.00042811 0)
(25.6129 0.000414335 0)
(25.5899 0.000401304 0)
(25.5685 0.000388767 0)
(25.5484 0.000376438 0)
(25.5297 0.000364281 0)
(25.5123 0.00035232 0)
(25.496 0.000340567 0)
(25.4809 0.000329013 0)
(25.4668 0.000317692 0)
(25.4537 0.000306601 0)
(25.4415 0.000295495 0)
(25.4302 0.000283922 0)
(25.4197 0.000271321 0)
(25.4101 0.000257053 0)
(25.4014 0.00024039 0)
(25.3936 0.000220552 0)
(25.3867 0.000196524 0)
(25.3809 0.00016684 0)
(25.3763 0.000130182 0)
(25.3729 8.54597e-05 0)
(25.3709 3.07604e-05 0)
(25.3706 -3.66377e-05 0)
(25.3721 -0.000118452 0)
(25.3756 -0.000216353 0)
(25.3815 -0.000333217 0)
(25.39 -0.000472024 0)
(25.4013 -0.000636295 0)
(25.4159 -0.00082992 0)
(25.4341 -0.00105856 0)
(25.4564 -0.00132755 0)
(25.483 -0.00164825 0)
(25.5149 -0.00201223 0)
(25.5518 -0.00252969 0)
(25.5985 -0.0029968 0)
(25.6366 -0.00340084 0)
(25.6747 -0.00379344 0)
(25.7125 -0.00422257 0)
(25.7531 -0.00479175 0)
(25.7965 -0.00539885 0)
(25.8427 -0.00604166 0)
(25.8917 -0.00674484 0)
(25.9434 -0.0075146 0)
(25.9981 -0.00836927 0)
(26.0557 -0.00931367 0)
(26.1165 -0.0103736 0)
(26.1806 -0.0115617 0)
(26.2483 -0.0129168 0)
(26.3199 -0.014471 0)
(26.3957 -0.0162908 0)
(26.4765 -0.0184587 0)
(26.5631 -0.021119 0)
(26.6565 -0.0244985 0)
(26.7585 -0.029016 0)
(26.8719 -0.0354683 0)
(27.0009 -0.0456587 0)
(27.1536 -0.0635515 0)
(27.3356 -0.101305 0)
(27.5861 -0.176057 0)
(27.6904 -0.364802 0)
(38.7097 0.0843113 0)
(34.4203 0.027665 0)
(32.1079 0.0126382 0)
(30.8524 0.00751329 0)
(30.0841 0.00527653 0)
(29.55 0.00403232 0)
(29.1513 0.00324715 0)
(28.8387 0.00271325 0)
(28.5848 0.00232596 0)
(28.3743 0.00202991 0)
(28.1964 0.00179663 0)
(28.0445 0.00161018 0)
(27.9125 0.00145969 0)
(27.7971 0.00133231 0)
(27.6954 0.00122555 0)
(27.605 0.00113577 0)
(27.5241 0.00105692 0)
(27.4515 0.000986717 0)
(27.3861 0.000925587 0)
(27.3269 0.000872612 0)
(27.273 0.000825038 0)
(27.2239 0.000781568 0)
(27.179 0.000741579 0)
(27.138 0.000704943 0)
(27.1004 0.000671974 0)
(27.0659 0.000643274 0)
(27.0339 0.00061908 0)
(27.0043 0.000598286 0)
(26.9766 0.000578922 0)
(26.9508 0.000560267 0)
(26.9268 0.000542657 0)
(26.9044 0.000525764 0)
(26.8834 0.000509187 0)
(26.8638 0.000492857 0)
(26.8456 0.000476783 0)
(26.8286 0.000460975 0)
(26.8127 0.000445417 0)
(26.7979 0.00043015 0)
(26.7842 0.000415167 0)
(26.7714 0.000400152 0)
(26.7596 0.000384519 0)
(26.7486 0.000367531 0)
(26.7385 0.000348345 0)
(26.7293 0.000325998 0)
(26.7211 0.00029945 0)
(26.7139 0.000267356 0)
(26.7077 0.000227778 0)
(26.7027 0.000178947 0)
(26.699 0.000119394 0)
(26.6967 4.66689e-05 0)
(26.6961 -4.29368e-05 0)
(26.6974 -0.000151837 0)
(26.7007 -0.000282176 0)
(26.7064 -0.000437728 0)
(26.7147 -0.000622431 0)
(26.726 -0.000840934 0)
(26.7405 -0.00109837 0)
(26.7586 -0.00140217 0)
(26.7808 -0.00175937 0)
(26.8075 -0.00218482 0)
(26.8394 -0.00266771 0)
(26.8763 -0.00334725 0)
(26.9229 -0.00394801 0)
(26.9608 -0.00449952 0)
(26.9988 -0.00505309 0)
(27.0368 -0.00561394 0)
(27.0775 -0.00635113 0)
(27.1209 -0.00714532 0)
(27.1671 -0.00798919 0)
(27.2159 -0.00891192 0)
(27.2675 -0.00992084 0)
(27.322 -0.011039 0)
(27.3793 -0.0122724 0)
(27.4398 -0.0136533 0)
(27.5034 -0.0151974 0)
(27.5705 -0.0169532 0)
(27.6413 -0.0189601 0)
(27.7162 -0.0213002 0)
(27.7959 -0.0240742 0)
(27.8809 -0.0274576 0)
(27.9725 -0.0317231 0)
(28.0721 -0.0373677 0)
(28.1821 -0.0453181 0)
(28.3061 -0.0576136 0)
(28.4506 -0.0785196 0)
(28.6181 -0.120435 0)
(28.8377 -0.197582 0)
(28.9062 -0.381648 0)
(40.0731 0.0951615 0)
(36.1614 0.0359712 0)
(33.7503 0.0175427 0)
(32.3625 0.0104441 0)
(31.5136 0.0072239 0)
(30.9336 0.00546935 0)
(30.5036 0.00438209 0)
(30.1685 0.00364961 0)
(29.8976 0.0031214 0)
(29.6737 0.00271938 0)
(29.4851 0.0024038 0)
(29.3242 0.00215218 0)
(29.1848 0.00194943 0)
(29.063 0.00177816 0)
(28.9559 0.00163483 0)
(28.8607 0.00151439 0)
(28.7756 0.00140873 0)
(28.6993 0.00131482 0)
(28.6306 0.00123313 0)
(28.5684 0.00116235 0)
(28.5118 0.00109876 0)
(28.4603 0.00104069 0)
(28.4133 0.000987331 0)
(28.3703 0.000938467 0)
(28.3309 0.000894478 0)
(28.2947 0.000856132 0)
(28.2612 0.000823718 0)
(28.2301 0.000795811 0)
(28.2012 0.000769887 0)
(28.1742 0.000744988 0)
(28.1491 0.000721528 0)
(28.1256 0.000699078 0)
(28.1036 0.000677107 0)
(28.0832 0.000655494 0)
(28.0641 0.000634234 0)
(28.0463 0.000613325 0)
(28.0296 0.000592747 0)
(28.0142 0.000572548 0)
(27.9998 0.000552706 0)
(27.9864 0.000532816 0)
(27.974 0.000512127 0)
(27.9625 0.000489694 0)
(27.9519 0.000464426 0)
(27.9422 0.000435071 0)
(27.9335 0.000400274 0)
(27.9259 0.000358292 0)
(27.9193 0.000306612 0)
(27.9139 0.000242917 0)
(27.9099 0.000165275 0)
(27.9073 7.06196e-05 0)
(27.9063 -4.59841e-05 0)
(27.9073 -0.000187839 0)
(27.9103 -0.000357635 0)
(27.9157 -0.000560232 0)
(27.9238 -0.000800708 0)
(27.9348 -0.00108507 0)
(27.949 -0.00141993 0)
(27.9669 -0.00181483 0)
(27.9889 -0.00227887 0)
(28.0153 -0.00283094 0)
(28.047 -0.00345781 0)
(28.0837 -0.00433029 0)
(28.1298 -0.00509056 0)
(28.1673 -0.00581929 0)
(28.205 -0.00657023 0)
(28.2428 -0.00729375 0)
(28.2832 -0.0082311 0)
(28.3264 -0.00924841 0)
(28.3722 -0.0103321 0)
(28.4206 -0.0115165 0)
(28.4717 -0.0128101 0)
(28.5256 -0.0142415 0)
(28.5824 -0.0158179 0)
(28.642 -0.0175789 0)
(28.7048 -0.0195438 0)
(28.771 -0.0217717 0)
(28.8407 -0.0243106 0)
(28.9143 -0.0272595 0)
(28.9924 -0.0307398 0)
(29.0756 -0.0349609 0)
(29.165 -0.0402454 0)
(29.2618 -0.0471727 0)
(29.3682 -0.0568011 0)
(29.4871 -0.0713829 0)
(29.6237 -0.0954062 0)
(29.778 -0.14111 0)
(29.9706 -0.219831 0)
(30.0152 -0.395655 0)
(41.2155 0.105769 0)
(37.785 0.0454548 0)
(35.3478 0.0237935 0)
(33.839 0.0143564 0)
(32.8937 0.00982046 0)
(32.2569 0.0073601 0)
(31.7908 0.00586085 0)
(31.4297 0.00486332 0)
(31.1391 0.00414855 0)
(30.9 0.00360682 0)
(30.6992 0.00318335 0)
(30.5283 0.00284662 0)
(30.3805 0.00257588 0)
(30.2516 0.00234756 0)
(30.1384 0.0021569 0)
(30.0378 0.00199686 0)
(29.9481 0.00185658 0)
(29.8677 0.00173211 0)
(29.7955 0.00162402 0)
(29.73 0.00153042 0)
(29.6705 0.00144633 0)
(29.6164 0.00136959 0)
(29.567 0.00129916 0)
(29.5219 0.00123474 0)
(29.4805 0.00117676 0)
(29.4425 0.00112617 0)
(29.4073 0.0010833 0)
(29.3747 0.00104628 0)
(29.3444 0.00101194 0)
(29.3161 0.000979042 0)
(29.2897 0.000948082 0)
(29.2651 0.000918518 0)
(29.2422 0.000889665 0)
(29.2207 0.000861339 0)
(29.2007 0.000833514 0)
(29.1821 0.000806173 0)
(29.1647 0.000779291 0)
(29.1485 0.000752925 0)
(29.1334 0.00072703 0)
(29.1193 0.000701074 0)
(29.1063 0.000674109 0)
(29.0942 0.00064494 0)
(29.083 0.000612176 0)
(29.0729 0.000574218 0)
(29.0637 0.00052933 0)
(29.0555 0.000475286 0)
(29.0485 0.000408883 0)
(29.0427 0.000327136 0)
(29.0382 0.00022755 0)
(29.0353 0.000106358 0)
(29.0339 -4.28663e-05 0)
(29.0345 -0.000224566 0)
(29.0372 -0.000442084 0)
(29.0422 -0.000701556 0)
(29.0499 -0.00100942 0)
(29.0605 -0.00137329 0)
(29.0744 -0.00180154 0)
(29.0919 -0.00230622 0)
(29.1134 -0.00289888 0)
(29.1395 -0.00360312 0)
(29.1707 -0.00440333 0)
(29.2069 -0.00550413 0)
(29.2523 -0.00645547 0)
(29.2891 -0.00739478 0)
(29.3263 -0.00838348 0)
(29.3637 -0.00930708 0)
(29.4036 -0.0104824 0)
(29.4462 -0.011765 0)
(29.4914 -0.0131337 0)
(29.5391 -0.0146287 0)
(29.5895 -0.0162599 0)
(29.6426 -0.0180622 0)
(29.6984 -0.0200441 0)
(29.7571 -0.0222537 0)
(29.8188 -0.0247143 0)
(29.8836 -0.0274968 0)
(29.952 -0.0306591 0)
(30.024 -0.0343191 0)
(30.1004 -0.0386211 0)
(30.1815 -0.0438117 0)
(30.2684 -0.0502673 0)
(30.3623 -0.0586527 0)
(30.4649 -0.0701559 0)
(30.5787 -0.0872105 0)
(30.7074 -0.114435 0)
(30.8492 -0.163481 0)
(31.0178 -0.243012 0)
(31.0464 -0.407181 0)
(42.1842 0.115927 0)
(39.2974 0.0559731 0)
(36.9154 0.0315549 0)
(35.3111 0.0195213 0)
(34.2634 0.0133103 0)
(33.554 0.00987618 0)
(33.0421 0.007804 0)
(32.6504 0.0064454 0)
(32.3368 0.0054812 0)
(32.0798 0.00475446 0)
(31.8647 0.00418871 0)
(31.6822 0.0037402 0)
(31.5247 0.00338052 0)
(31.3877 0.00307751 0)
(31.2675 0.00282525 0)
(31.1609 0.0026138 0)
(31.0659 0.00242853 0)
(30.981 0.00226443 0)
(30.9046 0.00212221 0)
(30.8355 0.00199921 0)
(30.7728 0.00188874 0)
(30.7157 0.00178798 0)
(30.6637 0.00169568 0)
(30.6161 0.00161139 0)
(30.5726 0.00153558 0)
(30.5325 0.00146944 0)
(30.4956 0.00141325 0)
(30.4613 0.00136458 0)
(30.4293 0.00131944 0)
(30.3996 0.00127625 0)
(30.3719 0.00123565 0)
(30.3461 0.00119694 0)
(30.322 0.00115926 0)
(30.2995 0.00112236 0)
(30.2785 0.00108618 0)
(30.2589 0.00105068 0)
(30.2406 0.00101585 0)
(30.2236 0.000981762 0)
(30.2077 0.000948316 0)
(30.1929 0.000914818 0)
(30.1792 0.000880071 0)
(30.1664 0.000842579 0)
(30.1547 0.000800599 0)
(30.1439 0.000752112 0)
(30.1342 0.000694922 0)
(30.1255 0.000626227 0)
(30.118 0.000541992 0)
(30.1117 0.000438425 0)
(30.1068 0.000312353 0)
(30.1033 0.000159185 0)
(30.1016 -2.92279e-05 0)
(30.1017 -0.000258821 0)
(30.1039 -0.000533784 0)
(30.1085 -0.000861684 0)
(30.1157 -0.00125058 0)
(30.1258 -0.00171 0)
(30.1392 -0.00225036 0)
(30.1562 -0.00288669 0)
(30.1772 -0.00363343 0)
(30.2026 -0.0045196 0)
(30.2332 -0.00552755 0)
(30.2687 -0.00689709 0)
(30.3132 -0.00807837 0)
(30.3492 -0.00926569 0)
(30.3857 -0.0105368 0)
(30.4224 -0.0117053 0)
(30.4616 -0.0131625 0)
(30.5034 -0.0147597 0)
(30.5478 -0.0164664 0)
(30.5947 -0.0183291 0)
(30.6441 -0.0203594 0)
(30.6961 -0.0225994 0)
(30.7508 -0.0250594 0)
(30.8083 -0.0277969 0)
(30.8687 -0.03084 0)
(30.9321 -0.0342728 0)
(30.9988 -0.0381645 0)
(31.0691 -0.0426537 0)
(31.1435 -0.0479106 0)
(31.2224 -0.0542215 0)
(31.3067 -0.0620209 0)
(31.3975 -0.0720593 0)
(31.4962 -0.0856471 0)
(31.6047 -0.105352 0)
(31.7255 -0.135808 0)
(31.8554 -0.187647 0)
(32.0019 -0.267171 0)
(32.0202 -0.416843 0)
(42.9935 0.125217 0)
(40.6872 0.0672517 0)
(38.4539 0.0408924 0)
(36.7954 0.0262135 0)
(35.6516 0.0179932 0)
(34.8583 0.0132658 0)
(34.2865 0.0103972 0)
(33.8541 0.00852961 0)
(33.5128 0.00722081 0)
(33.2346 0.00624757 0)
(33.0025 0.00549232 0)
(32.8063 0.00489642 0)
(32.6373 0.00441974 0)
(32.4907 0.00401807 0)
(32.3624 0.0036852 0)
(32.2487 0.00340672 0)
(32.1476 0.00316248 0)
(32.0573 0.00294656 0)
(31.9762 0.00275994 0)
(31.9029 0.00259883 0)
(31.8364 0.00245413 0)
(31.7759 0.00232223 0)
(31.7208 0.00220165 0)
(31.6705 0.0020918 0)
(31.6245 0.00199314 0)
(31.5822 0.00190716 0)
(31.5431 0.00183401 0)
(31.5069 0.00177042 0)
(31.4732 0.00171138 0)
(31.4418 0.00165496 0)
(31.4126 0.00160193 0)
(31.3854 0.00155142 0)
(31.3599 0.00150237 0)
(31.3362 0.00145444 0)
(31.3141 0.00140755 0)
(31.2934 0.00136165 0)
(31.2742 0.00131673 0)
(31.2562 0.0012729 0)
(31.2395 0.00123001 0)
(31.2239 0.00118711 0)
(31.2094 0.0011427 0)
(31.1959 0.00109492 0)
(31.1834 0.00104161 0)
(31.172 0.000980251 0)
(31.1617 0.000908096 0)
(31.1524 0.000821657 0)
(31.1443 0.000715899 0)
(31.1374 0.000586062 0)
(31.132 0.000428157 0)
(31.128 0.000236587 0)