# vtk DataFile Version 2.0
track0
ASCII
DATASET POLYDATA
POINTS 12045 float
-0.0205 0.001 1e-05
-0.02052 0.000999985 1e-05
-0.02054 0.000999974 1e-05
-0.02056 0.000999965 1e-05
-0.02058 0.000999959 1e-05
-0.0206 0.000999956 1e-05
-0.0205 0.00367778 1e-05
-0.02052 0.00367778 1e-05
-0.02054 0.00367777 1e-05
-0.02056 0.00367777 1e-05
-0.02058 0.00367777 1e-05
-0.0206 0.00367777 1e-05
-0.0205 0.00635556 1e-05
-0.02052 0.00635555 1e-05
-0.02054 0.00635555 1e-05
-0.02056 0.00635555 1e-05
-0.02058 0.00635555 1e-05
-0.0206 0.00635555 1e-05
-0.0205 0.00903333 1e-05
-0.02052 0.00903333 1e-05
-0.02054 0.00903333 1e-05
-0.02056 0.00903333 1e-05
-0.02058 0.00903333 1e-05
-0.0206 0.00903333 1e-05
-0.0205 0.0117111 1e-05
-0.02052 0.0117111 1e-05
-0.02054 0.0117111 1e-05
-0.02056 0.0117111 1e-05
-0.02058 0.0117111 1e-05
-0.0206 0.0117111 1e-05
-0.0205 0.0143889 1e-05
-0.02052 0.0143889 1e-05
-0.02054 0.0143889 1e-05
-0.02056 0.0143889 1e-05
-0.02058 0.0143889 1e-05
-0.0206 0.0143889 1e-05
-0.0205 0.0170667 1e-05
-0.02052 0.0170667 1e-05
-0.02054 0.0170667 1e-05
-0.02056 0.0170667 1e-05
-0.02058 0.0170667 1e-05
-0.0206 0.0170667 1e-05
-0.0205 0.0197444 1e-05
-0.02052 0.0197444 1e-05
-0.02054 0.0197444 1e-05
-0.02056 0.0197444 1e-05
-0.02058 0.0197444 1e-05
-0.0206 0.0197444 1e-05
-0.0205 0.0224222 1e-05
-0.02052 0.0224222 1e-05
-0.02054 0.0224222 1e-05
-0.02056 0.0224222 1e-05
-0.02058 0.0224222 1e-05
-0.0206 0.0224222 1e-05
-0.0205 0.0251 1e-05
-0.02052 0.0250998 1e-05
-0.02054 0.0250997 1e-05
-0.02056 0.0250995 1e-05
-0.02058 0.0250995 1e-05
-0.0206 0.0250994 1e-05
-0.0205 0.001 1e-05
-0.0202034 0.00100022 1e-05
-0.0199069 0.00100067 1e-05
-0.0196103 0.00100132 1e-05
-0.0193137 0.00100219 1e-05
-0.0190172 0.00100326 1e-05
-0.0187132 0.00100466 1e-05
-0.0184093 0.00100588 1e-05
-0.0181054 0.0010071 1e-05
-0.0178015 0.00100832 1e-05
-0.0174976 0.00100953 1e-05
-0.0172058 0.00101083 1e-05
-0.016914 0.00101193 1e-05
-0.0166222 0.00101303 1e-05
-0.0163305 0.00101413 1e-05
-0.0160387 0.00101523 1e-05
-0.0157586 0.00101637 1e-05
-0.0154784 0.00101745 1e-05
-0.0151983 0.00101857 1e-05
-0.0149182 0.00101972 1e-05
-0.0146381 0.00102091 1e-05
-0.014375 0.00102209 1e-05
-0.014112 0.00102328 1e-05
-0.013849 0.00102449 1e-05
-0.0135859 0.00102574 1e-05
-0.0133638 0.00102682 1e-05
-0.0133497 0.00102689 1e-05
-0.0133357 0.00102696 1e-05
-0.0133216 0.00102703 1e-05
-0.0133075 0.0010271 1e-05
-0.0132934 0.00102717 1e-05
-0.0130353 0.00102846 1e-05
-0.0127771 0.00102976 1e-05
-0.0125189 0.00103108 1e-05
-0.0122607 0.00103242 1e-05
-0.0120025 0.00103377 1e-05
-0.0117547 0.00103508 1e-05
-0.0115068 0.0010364 1e-05
-0.0112589 0.00103772 1e-05
-0.0110111 0.00103905 1e-05
-0.0107632 0.00104038 1e-05
-0.0105252 0.00104165 1e-05
-0.0102873 0.00104294 1e-05
-0.0100493 0.00104422 1e-05
-0.00981133 0.0010455 1e-05
-0.00957337 0.00104678 1e-05
-0.00934491 0.001048 1e-05
-0.00911645 0.00104923 1e-05
-0.00888799 0.00105045 1e-05
-0.00865954 0.00105167 1e-05
-0.00843108 0.00105288 1e-05
-0.00821175 0.00105404 1e-05
-0.00799242 0.00105521 1e-05
-0.00777309 0.00105636 1e-05
-0.00755376 0.00105752 1e-05
-0.00733443 0.00105867 1e-05
-0.00712387 0.00105976 1e-05
-0.0069133 0.00106086 1e-05
-0.00670273 0.00106195 1e-05
-0.00649216 0.00106304 1e-05
-0.0062816 0.00106412 1e-05
-0.00607944 0.00106515 1e-05
-0.00587729 0.00106618 1e-05
-0.00567514 0.00106721 1e-05
-0.00547298 0.00106824 1e-05
-0.00527083 0.00106926 1e-05
-0.00507675 0.00107023 1e-05
-0.00488267 0.0010712 1e-05
-0.0046886 0.00107217 1e-05
-0.00449452 0.00107314 1e-05
-0.00430044 0.00107411 1e-05
-0.00411412 0.00107502 1e-05
-0.0039278 0.00107594 1e-05
-0.00374147 0.00107686 1e-05
-0.00355515 0.00107778 1e-05
-0.00336883 0.00107869 1e-05
-0.00318995 0.00107956 1e-05
-0.00301107 0.00108043 1e-05
-0.00283219 0.00108131 1e-05
-0.00265331 0.00108218 1e-05
-0.00247443 0.00108305 1e-05
-0.0023027 0.00108388 1e-05
-0.00213097 0.00108472 1e-05
-0.00195924 0.00108556 1e-05
-0.0017875 0.0010864 1e-05
-0.00161577 0.00108725 1e-05
-0.0014509 0.00108805 1e-05
-0.00128603 0.00108886 1e-05
-0.00112116 0.00108968 1e-05
-0.000956289 0.0010905 1e-05
-0.000791418 0.00109133 1e-05
-0.000633135 0.00109213 1e-05
-0.000474851 0.00109294 1e-05
-0.000316568 0.00109376 1e-05
-0.000158284 0.00109458 1e-05
0 0.00109541 1e-05
0.000105677 0.00109597 1e-05
0.000211355 0.00109653 1e-05
0.000317032 0.00109709 1e-05
0.00042271 0.00109764 1e-05
0.000528387 0.0010982 1e-05
0.000634886 0.00109876 1e-05
0.000741385 0.00109931 1e-05
0.000847885 0.00109986 1e-05
0.000954384 0.00110041 1e-05
0.00106088 0.00110095 1e-05
0.00116821 0.00110149 1e-05
0.00127554 0.00110202 1e-05
0.00138286 0.00110254 1e-05
0.00149019 0.00110306 1e-05
0.00159752 0.00110356 1e-05
0.00170568 0.00110406 1e-05
0.00181384 0.00110456 1e-05
0.001922 0.00110504 1e-05
0.00203016 0.00110552 1e-05
0.00213833 0.00110598 1e-05
0.00224733 0.00110644 1e-05
0.00235633 0.00110689 1e-05
0.00246533 0.00110733 1e-05
0.00257434 0.00110776 1e-05
0.00268334 0.00110818 1e-05
0.00279319 0.00110859 1e-05
0.00290304 0.001109 1e-05
0.00301289 0.0011094 1e-05
0.00312274 0.00110979 1e-05
0.00323259 0.00111017 1e-05
0.00334329 0.00111054 1e-05
0.003454 0.00111091 1e-05
0.0035647 0.00111127 1e-05
0.0036754 0.00111162 1e-05
0.00378611 0.00111196 1e-05
0.00389767 0.00111229 1e-05
0.00400924 0.00111262 1e-05
0.0041208 0.00111294 1e-05
0.00423237 0.00111325 1e-05
0.00434393 0.00111355 1e-05
0.00445636 0.00111384 1e-05
0.00456879 0.00111413 1e-05
0.00468123 0.00111441 1e-05
0.00479366 0.00111468 1e-05
0.00490609 0.00111494 1e-05
0.0050194 0.00111519 1e-05
0.0051327 0.00111544 1e-05
0.00524601 0.00111568 1e-05
0.00535932 0.00111591 1e-05
0.00547262 0.00111613 1e-05
0.00558681 0.00111634 1e-05
0.005701 0.00111655 1e-05
0.00581518 0.00111675 1e-05
0.00592937 0.00111694 1e-05
0.00604356 0.00111712 1e-05
0.00615863 0.0011173 1e-05
0.00627371 0.00111746 1e-05
0.00638878 0.00111762 1e-05
0.00650386 0.00111778 1e-05
0.00661893 0.00111792 1e-05
0.0067349 0.00111805 1e-05
0.00685087 0.00111818 1e-05
0.00696684 0.0011183 1e-05
0.00708281 0.00111841 1e-05
0.00719878 0.00111851 1e-05
0.00731565 0.00111861 1e-05
0.00743252 0.00111869 1e-05
0.00754939 0.00111877 1e-05
0.00766626 0.00111884 1e-05
0.00778313 0.00111891 1e-05
0.00783637 0.00111893 1e-05
0.0078896 0.00111895 1e-05
0.00794284 0.00111897 1e-05
0.00799607 0.00111899 1e-05
0.00804788 0.00111901 1e-05
0.00811271 0.00111903 1e-05
0.00817754 0.00111905 1e-05
0.00824237 0.00111906 1e-05
0.0083072 0.00111907 1e-05
0.00837203 0.00111908 1e-05
0.00849073 0.00111909 1e-05
0.00860942 0.00111909 1e-05
0.00872812 0.00111909 1e-05
0.00884682 0.00111907 1e-05
0.00896551 0.00111905 1e-05
0.00908513 0.00111901 1e-05
0.00920475 0.00111897 1e-05
0.00932437 0.00111892 1e-05
0.00944398 0.00111886 1e-05
0.0095636 0.00111879 1e-05
0.00968415 0.00111871 1e-05
0.0098047 0.00111862 1e-05
0.00992525 0.00111853 1e-05
0.0100458 0.00111842 1e-05
0.0101663 0.00111831 1e-05
0.0102878 0.00111817 1e-05
0.0104093 0.00111804 1e-05
0.0105308 0.0011179 1e-05
0.0106523 0.00111774 1e-05
0.0107738 0.00111758 1e-05
0.0108962 0.0011174 1e-05
0.0110186 0.00111721 1e-05
0.0111411 0.00111702 1e-05
0.0112635 0.00111682 1e-05
0.0113859 0.00111661 1e-05
0.0115093 0.00111637 1e-05
0.0116327 0.00111614 1e-05
0.0117561 0.0011159 1e-05
0.0118795 0.00111564 1e-05
0.0120028 0.00111538 1e-05
0.0121272 0.00111509 1e-05
0.0122515 0.00111481 1e-05
0.0123759 0.00111451 1e-05
0.0125002 0.00111421 1e-05
0.0126245 0.00111389 1e-05
0.0127498 0.00111355 1e-05
0.0128752 0.00111321 1e-05
0.0130005 0.00111286 1e-05
0.0131258 0.0011125 1e-05
0.0132511 0.00111213 1e-05
0.0133774 0.00111174 1e-05
0.0135036 0.00111134 1e-05
0.0136299 0.00111094 1e-05
0.0137562 0.00111052 1e-05
0.0138825 0.00111009 1e-05
0.0140098 0.00110965 1e-05
0.014137 0.00110919 1e-05
0.0142643 0.00110873 1e-05
0.0143915 0.00110826 1e-05
0.0145188 0.00110777 1e-05
0.0146471 0.00110727 1e-05
0.0147753 0.00110676 1e-05
0.0149036 0.00110624 1e-05
0.0150318 0.0011057 1e-05
0.0151601 0.00110516 1e-05
0.0152893 0.0011046 1e-05
0.0154186 0.00110403 1e-05
0.0155478 0.00110345 1e-05
0.0156771 0.00110286 1e-05
0.0158063 0.00110225 1e-05
0.0159366 0.00110164 1e-05
0.0160668 0.00110101 1e-05
0.0161971 0.00110036 1e-05
0.0163274 0.00109971 1e-05
0.0164576 0.00109905 1e-05
0.0165889 0.00109837 1e-05
0.0167201 0.00109768 1e-05
0.0168514 0.00109698 1e-05
0.0169827 0.00109626 1e-05
0.0171139 0.00109554 1e-05
0.0172462 0.00109481 1e-05
0.0173785 0.00109405 1e-05
0.0175108 0.00109329 1e-05
0.0176431 0.00109251 1e-05
0.0177754 0.00109172 1e-05
0.0179087 0.00109093 1e-05
0.018042 0.00109012 1e-05
0.0181753 0.00108928 1e-05
0.0183087 0.00108844 1e-05
0.018442 0.00108759 1e-05
0.0185763 0.00108674 1e-05
0.0187107 0.00108586 1e-05
0.018845 0.00108497 1e-05
0.0189794 0.00108406 1e-05
0.0191137 0.00108315 1e-05
0.0192491 0.00108223 1e-05
0.0193845 0.0010813 1e-05
0.0195199 0.00108033 1e-05
0.0196553 0.00107936 1e-05
0.0197907 0.00107838 1e-05
0.0199272 0.00107741 1e-05
0.0200636 0.00107641 1e-05
0.0202001 0.00107538 1e-05
0.0203365 0.00107433 1e-05
0.020473 0.0010733 1e-05
0.0206105 0.00107226 1e-05
0.020748 0.00107119 1e-05
0.0208855 0.0010701 1e-05
0.021023 0.00106899 1e-05
0.0211606 0.00106789 1e-05
0.0212991 0.00106678 1e-05
0.0214377 0.00106565 1e-05
0.0215763 0.00106449 1e-05
0.0217149 0.00106332 1e-05
0.0218535 0.00106215 1e-05
0.0219931 0.00106098 1e-05
0.0221328 0.00105978 1e-05
0.0222724 0.00105855 1e-05
0.0224121 0.00105731 1e-05
0.0225517 0.00105608 1e-05
0.0226925 0.00105484 1e-05
0.0228332 0.00105358 1e-05
0.022974 0.00105228 1e-05
0.0231147 0.00105097 1e-05
0.0232555 0.00104967 1e-05
0.0233973 0.00104837 1e-05
0.0235391 0.00104703 1e-05
0.023681 0.00104566 1e-05
0.0238228 0.00104429 1e-05
0.0239647 0.00104292 1e-05
0.0241076 0.00104154 1e-05
0.0242505 0.00104014 1e-05
0.0243935 0.0010387 1e-05
0.0245364 0.00103725 1e-05
0.0246794 0.00103581 1e-05
0.0248234 0.00103437 1e-05
0.0249675 0.00103289 1e-05
0.0251115 0.00103138 1e-05
0.0252556 0.00102987 1e-05
[...]
POINT_DATA 12045
 FIELD attributes 2
p 1 12045 float
-3.6854 -3.68209 -3.67877 -3.67545 -3.67214 -3.66883
-3.8379 -3.83788 -3.83786 -3.83784 -3.83781 -3.83779
-4.01237 -4.01224 -4.01212 -4.012 -4.01188 -4.01177
-4.10616 -4.10611 -4.10606 -4.106 -4.10595 -4.1059
-4.15179 -4.15168 -4.15157 -4.15146 -4.15134 -4.15123
-4.15888 -4.15872 -4.15856 -4.1584 -4.15824 -4.15808
-4.13246 -4.13239 -4.13232 -4.13224 -4.13217 -4.1321
-4.06329 -4.06325 -4.06321 -4.06317 -4.06313 -4.06309
-3.94226 -3.94227 -3.94227 -3.94228 -3.94229 -3.94229
-1.72976 -1.74909 -1.76829 -1.78736 -1.8063 -1.82509
-3.6854 -3.68468 -3.68105 -3.67734 -3.67356 -3.66516 -3.67898 -3.69392 -3.70886 -3.7238 -3.74818 -3.7699 -3.79978 -3.82966 -3.85954 -3.89222 -3.90781 -3.92943 -3.95105 -3.97267 -3.99592 -4.01468 -4.03544 -4.05621 -4.07698 -4.09453 -4.09564 -4.09674 -4.09785 -4.09896 -4.10006 -4.1216 -4.14313 -4.16467 -4.18621 -4.20747 -4.22607 -4.24449 -4.2629 -4.28132 -4.29916 -4.31459 -4.32974 -4.3449 -4.36005 -4.37464 -4.38818 -4.40146 -4.41474 -4.42802 -4.44085 -4.45326 -4.4654 -4.47753 -4.48967 -4.50137 -4.5128 -4.5239 -4.535 -4.5461 -4.55676 -4.56725 -4.57743 -4.58761 -4.59778 -4.60758 -4.61731 -4.6267 -4.63608 -4.64547 -4.65452 -4.66356 -4.67231 -4.68106 -4.68982 -4.69837 -4.70688 -4.71494 -4.723 -4.73105 -4.73894 -4.74706 -4.75522 -4.76338 -4.77154 -4.78016 -4.7891 -4.79751 -4.80591 -4.81432 -4.82299 -4.83315 -4.84531 -4.85747 -4.86963 -4.88327 -4.89678 -4.91297 -4.92916 -4.94535 -4.96125 -4.97576 -4.99029 -5.00482 -5.01934 -5.03225 -5.04245 -5.05283 -5.06321 -5.0736 -5.08415 -5.09337 -5.10245 -5.11153 -5.12061 -5.12957 -5.13857 -5.14632 -5.15407 -5.16183 -5.16841 -5.17598 -5.1821 -5.18822 -5.19435 -5.19916 -5.20526 -5.21019 -5.21512 -5.22005 -5.22393 -5.22886 -5.23284 -5.23683 -5.24082 -5.24405 -5.24798 -5.25118 -5.25439 -5.25759 -5.26028 -5.26338 -5.26594 -5.2685 -5.27106 -5.27329 -5.27583 -5.27798 -5.28014 -5.28229 -5.28426 -5.28653 -5.28854 -5.29055 -5.29256 -5.29445 -5.29658 -5.29854 -5.30049 -5.30245 -5.30433 -5.30636 -5.30829 -5.31022 -5.31214 -5.31405 -5.31495 -5.31583 -5.3167 -5.31757 -5.31842 -5.31949 -5.32055 -5.32162 -5.32268 -5.32385 -5.32572 -5.3277 -5.32968 -5.33166 -5.334 -5.33572 -5.33783 -5.33994 -5.34204 -5.34485 -5.34643 -5.34872 -5.351 -5.35329 -5.35663 -5.35804 -5.36047 -5.3629 -5.36532 -5.36915 -5.37038 -5.37292 -5.37546 -5.378 -5.38227 -5.38335 -5.38601 -5.38867 -5.39133 -5.39603 -5.39699 -5.39979 -5.40259 -5.4054 -5.41048 -5.41139 -5.41433 -5.41727 -5.42022 -5.42563 -5.42654 -5.42962 -5.4327 -5.43578 -5.44145 -5.4424 -5.44561 -5.44881 -5.45202 -5.45788 -5.45902 -5.46227 -5.46561 -5.46919 -5.47492 -5.47644 -5.4796 -5.48305 -5.48697 -5.49256 -5.49445 -5.49756 -5.50114 -5.50534 -5.51079 -5.51303 -5.51615 -5.51984 -5.52426 -5.52957 -5.53213 -5.53529 -5.53909 -5.54367 -5.54885 -5.5517 -5.55492 -5.55881 -5.56351 -5.56856 -5.57167 -5.57497 -5.57895 -5.58371 -5.58865 -5.59199 -5.5954 -5.59945 -5.60425 -5.6091 -5.61264 -5.6162 -5.62032 -5.62505 -5.62977 -5.63348 -5.6372 -5.64136 -5.64597 -5.65059 -5.65444 -5.6583 -5.66251 -5.66707 -5.67162 -5.67563 -5.67964 -5.6839 -5.68841 -5.69292 -5.69702 -5.70113 -5.70542 -5.70988 -5.71434 -5.71848 -5.72263 -5.72692 -5.73133 -5.73575 -5.73989 -5.74404 -5.74832 -5.7527 -5.75709 -5.76122 -5.76537 -5.76963 -5.77398 -5.77833 -5.78245 -5.78659 -5.79082 -5.79513 -5.79945 -5.80352 -5.80764 -5.81184 -5.81609 -5.82036 -5.82439 -5.82847 -5.83262 -5.8368 -5.84103 -5.84498 -5.84902 -5.85311 -5.85721 -5.86138 -5.86526 -5.86924 -5.87325 -5.87726 -5.88135 -5.88514 -5.88906 -5.89298 -5.8969 -5.90089 -5.9046 -5.90841 -5.91223 -5.91605 -5.91992 -5.92353 -5.92723 -5.93093 -5.93463 -5.93837 -5.94188 -5.94544 -5.94901 -5.95258 -5.95617 -5.95954 -5.96296 -5.96637 -5.96979 -5.97322 -5.97608 -5.97896 -5.98184 -5.98473 -5.98748 -5.98788 -5.98828 -5.98867 -5.98907 -5.98947 -5.99255 -5.99564 -5.99873 -6.00182 -6.00492 -6.00782 -6.01071 -6.01361 -6.01651 -6.01942 -6.02212 -6.0248 -6.02749 -6.03018 -6.03287 -6.03536 -6.03781 -6.04026 -6.04271 -6.04515 -6.0474 -6.04959 -6.05178 -6.05397 -6.05613 -6.05812 -6.06004 -6.06195 -6.06385 -6.06573 -6.06743 -6.06908 -6.0707 -6.07229 -6.07387 -6.07528 -6.07664 -6.07795 -6.07922 -6.08048 -6.08157 -6.08264 -6.08361 -6.08453 -6.08543 -6.08618 -6.08694 -6.08756 -6.08809 -6.08863 -6.08902 -6.08941 -6.08967 -6.08982 -6.08997 -6.08998 -6.09 -6.08988 -6.0896 -6.08932 -6.08892 -6.08853 -6.088 -6.08729 -6.08658 -6.08575 -6.08492 -6.08394 -6.0828 -6.08163 -6.08035 -6.07903 -6.0776 -6.07604 -6.07441 -6.07267 -6.07084 -6.06893 -6.06696 -6.06484 -6.06263 -6.06026 -6.05787 -6.05546 -6.05285 -6.05012 -6.04721 -6.0443 -6.0414 -6.03833 -6.03503 -6.0316 -6.02817 -6.02474 -6.02121 -6.01732 -6.01334 -6.00937 -6.00541 -6.00141 -5.99961 -5.99779 -5.99596 -5.99414 -5.99236 -5.98969 -5.98701 -5.98434 -5.98167 -5.97895 -5.97397 -5.96895 -5.96392 -5.9589 -5.95373 -5.9483 -5.94271 -5.93712 -5.93153 -5.92569 -5.91981 -5.91364 -5.90748 -5.90129 -5.89478 -5.88835 -5.88169 -5.87495 -5.86807 -5.86098 -5.85396 -5.84684 -5.83952 -5.83193 -5.82425 -5.81664 -5.80905 -5.80111 -5.79283 -5.78455 -5.77636 -5.76817 -5.75964 -5.75076 -5.74188 -5.7331 -5.72433 -5.7152 -5.70573 -5.69626 -5.68691 -5.67751 -5.66777 -5.65778 -5.64771 -5.63779 -5.62766 -5.61731 -5.60685 -5.59617 -5.58565 -5.57477 -5.56383 -5.5529 -5.54166 -5.53048 -5.51896 -5.50744 -5.49593 -5.48427 -5.47237 -5.4603 -5.44824 -5.43618 -5.42485 -5.42467 -5.42449 -5.42431 -5.42413 -5.42395 -5.41131 -5.39868 -5.38606 -5.37344 -5.36068 -5.34754 -5.33428 -5.32103 -5.30778 -5.29423 -5.28063 -5.26674 -5.25285 -5.23884 -5.22455 -5.21029 -5.19589 -5.18129 -5.16633 -5.15126 -5.13628 -5.1213 -5.10587 -5.08995 -5.07404 -5.05827 -5.04252 -5.02622 -5.00939 -4.99256 -4.97593 -4.95921 -4.94196 -4.92437 -4.90664 -4.88913 -4.87122 -4.85309 -4.83493 -4.81636 -4.79791 -4.77891 -4.75991 -4.74091 -4.72174 -4.70879 -4.69559 -4.6824 -4.6692 -4.6566 -4.64978 -4.64297 -4.63615 -4.62934 -4.62245 -4.60166 -4.58083 -4.56001 -4.5392 -4.51806 -4.49642 -4.47455 -4.45269 -4.43071 -4.40828 -4.38557 -4.36273 -4.33973 -4.31625 -4.29262 -4.26876 -4.24491 -4.22054 -4.19555 -4.17057 -4.14541 -4.12026 -4.09437 -4.06792 -4.04145 -4.01489 -3.98787 -3.96037 -3.93277 -3.90473 -3.87654 -3.84738 -3.81822 -3.78908 -3.75967 -3.74559 -3.73116 -3.71674 -3.70232 -3.68843 -3.67191 -3.65541 -3.6389 -3.6224 -3.60549 -3.57322 -3.54061 -3.50802 -3.47544 -3.44154 -3.40781 -3.37344 -3.33882 -3.30328 -3.26715 -3.23128 -3.19543 -3.15837 -3.11998 -3.08157 -3.04348 -3.0054 -2.96566 -2.92501 -2.88417 -2.84371 -2.80198 -2.75968 -2.7174 -2.67416 -2.64055 -2.60578 -2.57101 -2.53625 -2.50393 -2.49328 -2.48263 -2.47198 -2.46134 -2.45031 -2.40317 -2.35571 -2.30827 -2.26085 -2.21132 -2.16234 -2.11244 -2.06203 -2.00995 -1.95715 -1.90508 -1.85304 -1.79896 -1.74285 -1.68668 -1.6313 -1.57498 -1.51702 -1.45878 -1.39915 -1.34764 -1.29404 -1.24046 -1.18689 -1.13804 -1.12925 -1.12047 -1.11168 -1.1029 -1.09375 -1.02955 -0.965029 -0.900535 -0.835993 -0.768463 -0.701952 -0.634801 -0.566534 -0.495418 -0.424063 -0.353752 -0.283473 -0.210325 -0.135476 -0.0601049 0.0142001 0.0914356 0.168875 0.246285 0.323981 0.326614 0.329344 0.33208 0.334817 0.337543 0.415404 0.493224 0.571004 0.648866 0.729806 0.812435 0.895462 0.980161 1.06772 1.15552 1.24221 1.32947 1.41906 1.50895 1.60055 1.64897 1.69864 1.74857 1.79849 1.84539 1.88893 1.93247 1.97599 2.01974 2.06468 2.15892 2.25463 2.35038 2.44811 2.54685 2.64445 2.742 2.84184 2.94226 3.04392 3.09692 3.15063 3.20466 3.25866 3.30947 3.35825 3.40702 3.45577 3.50479 3.55462 3.65759 3.7612 3.86511 3.97053 4.07657 4.18152 4.28684 4.39287 4.49882 4.60586 4.62135 4.6369 4.6525 4.66809 4.68344 4.77488 4.86625 4.95754 5.04903 5.14137 5.24835 5.35521 5.46208 5.56937 5.67742 5.73134 5.78513 5.83876 5.89237 5.9433 5.9969 6.05047 6.10402 6.15745 6.21099 6.31687 6.42263 6.52802 6.63268 6.73812 6.80783 6.87709 6.94566 7.01419 7.07884 7.11415 7.14945 7.18474 7.21976 7.25469 7.35641 7.45792 7.5589 7.65832 7.75845 7.82795 7.89691 7.9648 8.03266 8.09744 8.12733 8.1572 8.18707 8.21659 8.24596 8.34139 8.43652 8.53103 8.62369 8.71687 8.77858 8.83976 8.89977 8.95976 9.01822 9.04846 9.07869 9.10892 9.13854 9.168 9.25585 9.34363 9.42991 9.51437 9.59908 9.6409 9.68238 9.72274 9.7631 9.80325 9.84489 9.88653 9.92816 9.96877 10.0091 10.0885 10.1679 10.2454 10.3215 10.3975 10.4201 10.4424 10.4642 10.4859 10.5077 10.5599 10.6121 10.6643 10.715 10.7653 10.8361 10.9069 10.9751 11.0434 11.1108 11.1194 11.1279 11.1362 11.1444 11.1528 11.2104 11.268 11.3257 11.3818 11.437 11.4994 11.5612 11.6213 11.6814 11.7409 11.7435 11.746 11.7484 11.7508 11.7533 11.8087 11.8641 11.9196 11.9737 12.0267 12.081 12.1349 12.1872 12.2396 12.2911 12.2972 12.3032 12.3091 12.3149 12.3209 12.3648 12.4088 12.4528 12.496 12.5381 12.5848 12.6315 12.6767 12.7213 12.7653 12.7858 12.8059 12.8257 12.8454 12.8666 12.8885 12.9104 12.9323 12.954 12.975 13.0146 13.0538 13.0927 13.1303 13.1677 13.2036 13.2392 13.2739 13.3086 13.3426 13.3539 13.3649 13.3758 13.3866 13.3982 13.4193 13.4403 13.4613 13.4823 13.5025 13.5322 13.5616 13.5909 13.6193 13.6474 13.674 13.7007 13.7265 13.752 13.7773 13.8011 13.8242 13.8473 13.8704 13.8933 13.8967 13.8999 13.9032 13.9065 13.9099 13.9276 13.9453 13.9629 13.9806 13.9978 14.0166 14.0353 14.054 14.0723 14.0904 14.1071 14.1237 14.14 14.156 14.1719 14.1865 14.2011 14.2152 14.2293 14.2433 14.256 14.2685 14.2808 14.2931 14.3053 14.3163 14.3269 14.3376 14.3483 14.359 14.3607 14.3623 14.364 14.3656 14.3673 14.375 14.3827 14.3903 14.398 14.4055 14.4135 14.4214 14.4294 14.4373 14.4451 14.4518 14.4585 14.4652 14.4718 14.4784 14.4839 14.4894 14.4949 14.5004 14.5059 14.5103 14.5148 14.5193 14.5238 14.5282 14.5318 14.5353 14.5389 14.5425 14.546 14.5488 14.5515 14.5542 14.557 14.5597 14.5618 14.5638 14.5658 14.5678 14.5699 14.5713 14.5727 14.5741 14.5756 14.577 14.5779 14.5788 14.5797 14.5806 14.5816 14.582 14.5825 14.583 14.5836 14.5841 14.5842 14.5845 14.5847 14.5849 14.5852 14.5852 14.5853 14.5854 14.5855 14.5856 14.5856 14.5857 14.5858 14.5859 14.5861 14.5863 14.5867 14.5872 14.5876 14.588 14.5886 14.5893 14.59 14.5907 14.5913 14.5929 14.5948 14.5967 14.5985 14.6004 14.6007 14.6008 14.6009 14.601 14.6004 14.6012 14.6029 14.6045 14.606 14.6088 14.6091 14.6053 14.6015 14.5977 14.5934 14.5904 14.5874 14.5844 14.5813 14.5727 14.5495 14.5266 14.5036 14.4806 14.4577 14.4327 14.4086 14.3847 14.3608 14.337 14.3114 14.2856 14.2594 14.2324 14.2053 14.1762 14.1472 14.1173 14.0866 14.056 14.0232 13.9905 13.9569 13.9223 13.8877 13.8508 13.8138 13.776 13.7375 13.6985 13.6573 13.6152 13.5727 13.53 13.4862 13.4397 13.3919 13.3441 13.2964 13.2477 13.1948 13.141 13.0872 13.0334 12.9794 12.9701 12.9607 12.9513 12.9418 12.9322 12.8814 12.8307 12.7799 12.7291 12.6777 12.6108 12.5429 12.475 12.407 12.3372 12.2628 12.186 12.1091 12.0318 11.9524 11.8687 11.7834 11.6967 11.6082 11.5186 11.4243 11.3298 11.2318 11.1303 11.0288 10.9222 10.8155 10.7049 10.5906 10.4762 10.3562 10.2363 10.1114 9.98121 9.85098 9.71472 9.57747 9.43675 9.29329 9.14834 8.99688 8.83974 8.67867 8.51567 8.34581 8.16857 7.99055 7.81246 7.63436 7.45532 7.26033 7.04594 6.83157 6.61724 6.39264 6.1622 5.94237 5.72255 5.50274 5.28388 5.25799 5.22811 5.19824 5.16837 5.13741 4.85957 4.58143 4.30299 4.02427 3.7113 3.39295 3.13768 2.88128 2.62383 2.49505 2.35448 1.91541 1.48234 0.94325 0