# vtk DataFile Version 2.0
track0
ASCII
DATASET POLYDATA
POINTS 12045 float
-0.0205 0.001 1e-05
-0.02052 0.000999985 1e-05
-0.02054 0.000999974 1e-05
-0.02056 0.000999965 1e-05
-0.02058 0.000999959 1e-05
-0.0206 0.000999956 1e-05
-0.0205 0.00367778 1e-05
-0.02052 0.00367778 1e-05
-0.02054 0.00367777 1e-05
-0.02056 0.00367777 1e-05
-0.02058 0.00367777 1e-05
-0.0206 0.00367777 1e-05
-0.0205 0.00635556 1e-05
-0.02052 0.00635555 1e-05
-0.02054 0.00635555 1e-05
-0.02056 0.00635555 1e-05
-0.02058 0.00635555 1e-05
-0.0206 0.00635555 1e-05
-0.0205 0.00903333 1e-05
-0.02052 0.00903333 1e-05
-0.02054 0.00903333 1e-05
-0.02056 0.00903333 1e-05
-0.02058 0.00903333 1e-05
-0.0206 0.00903333 1e-05
-0.0205 0.0117111 1e-05
-0.02052 0.0117111 1e-05
-0.02054 0.0117111 1e-05
-0.02056 0.0117111 1e-05
-0.02058 0.0117111 1e-05
-0.0206 0.0117111 1e-05
-0.0205 0.0143889 1e-05
-0.02052 0.0143889 1e-05
-0.02054 0.0143889 1e-05
-0.02056 0.0143889 1e-05
-0.02058 0.0143889 1e-05
-0.0206 0.0143889 1e-05
-0.0205 0.0170667 1e-05
-0.02052 0.0170667 1e-05
-0.02054 0.0170667 1e-05
-0.02056 0.0170667 1e-05
-0.02058 0.0170667 1e-05
-0.0206 0.0170667 1e-05
-0.0205 0.0197444 1e-05
-0.02052 0.0197444 1e-05
-0.02054 0.0197444 1e-05
-0.02056 0.0197444 1e-05
-0.02058 0.0197444 1e-05
-0.0206 0.0197444 1e-05
-0.0205 0.0224222 1e-05
-0.02052 0.0224222 1e-05
-0.02054 0.0224222 1e-05
-0.02056 0.0224222 1e-05
-0.02058 0.0224222 1e-05
-0.0206 0.0224222 1e-05
-0.0205 0.0251 1e-05
-0.02052 0.0250998 1e-05
-0.02054 0.0250997 1e-05
-0.02056 0.0250995 1e-05
-0.02058 0.0250995 1e-05
-0.0206 0.0250994 1e-05
-0.0205 0.001 1e-05
-0.0202034 0.00100022 1e-05
-0.0199069 0.00100067 1e-05
-0.0196103 0.00100132 1e-05
-0.0193137 0.00100219 1e-05
-0.0190172 0.00100326 1e-05
-0.0187132 0.00100466 1e-05
-0.0184093 0.00100588 1e-05
-0.0181054 0.0010071 1e-05
-0.0178015 0.00100832 1e-05
-0.0174976 0.00100953 1e-05
-0.0172058 0.00101083 1e-05
-0.016914 0.00101193 1e-05
-0.0166222 0.00101303 1e-05
-0.0163305 0.00101413 1e-05
-0.0160387 0.00101523 1e-05
-0.0157586 0.00101637 1e-05
-0.0154784 0.00101745 1e-05
-0.0151983 0.00101857 1e-05
-0.0149182 0.00101972 1e-05
-0.0146381 0.00102091 1e-05
-0.014375 0.00102209 1e-05
-0.014112 0.00102328 1e-05
-0.013849 0.00102449 1e-05
-0.0135859 0.00102574 1e-05
-0.0133638 0.00102682 1e-05
-0.0133497 0.00102689 1e-05
-0.0133357 0.00102696 1e-05
-0.0133216 0.00102703 1e-05
-0.0133075 0.0010271 1e-05
-0.0132934 0.00102717 1e-05
-0.0130353 0.00102846 1e-05
-0.0127771 0.00102976 1e-05
-0.0125189 0.00103108 1e-05
-0.0122607 0.00103242 1e-05
-0.0120025 0.00103377 1e-05
-0.0117547 0.00103508 1e-05
-0.0115068 0.0010364 1e-05
-0.0112589 0.00103772 1e-05
-0.0110111 0.00103905 1e-05
-0.0107632 0.00104038 1e-05
-0.0105252 0.00104165 1e-05
-0.0102873 0.00104294 1e-05
-0.0100493 0.00104422 1e-05
-0.00981133 0.0010455 1e-05
-0.00957337 0.00104678 1e-05
-0.00934491 0.001048 1e-05
-0.00911645 0.00104923 1e-05
-0.00888799 0.00105045 1e-05
-0.00865954 0.00105167 1e-05
-0.00843108 0.00105288 1e-05
-0.00821175 0.00105404 1e-05
-0.00799242 0.00105521 1e-05
-0.00777309 0.00105636 1e-05
-0.00755376 0.00105752 1e-05
-0.00733443 0.00105867 1e-05
-0.00712387 0.00105976 1e-05
-0.0069133 0.00106086 1e-05
-0.00670273 0.00106195 1e-05
-0.00649216 0.00106304 1e-05
-0.0062816 0.00106412 1e-05
-0.00607944 0.00106515 1e-05
-0.00587729 0.00106618 1e-05
-0.00567514 0.00106721 1e-05
-0.00547298 0.00106824 1e-05
-0.00527083 0.00106926 1e-05
-0.00507675 0.00107023 1e-05
-0.00488267 0.0010712 1e-05
-0.0046886 0.00107217 1e-05
-0.00449452 0.00107314 1e-05
-0.00430044 0.00107411 1e-05
-0.00411412 0.00107502 1e-05
-0.0039278 0.00107594 1e-05
-0.00374147 0.00107686 1e-05
-0.00355515 0.00107778 1e-05
-0.00336883 0.00107869 1e-05
-0.00318995 0.00107956 1e-05
-0.00301107 0.00108043 1e-05
-0.00283219 0.00108131 1e-05
-0.00265331 0.00108218 1e-05
-0.00247443 0.00108305 1e-05
-0.0023027 0.00108388 1e-05
-0.00213097 0.00108472 1e-05
-0.00195924 0.00108556 1e-05
-0.0017875 0.0010864 1e-05
-0.00161577 0.00108725 1e-05
-0.0014509 0.00108805 1e-05
-0.00128603 0.00108886 1e-05
-0.00112116 0.00108968 1e-05
-0.000956289 0.0010905 1e-05
-0.000791418 0.00109133 1e-05
-0.000633135 0.00109213 1e-05
-0.000474851 0.00109294 1e-05
-0.000316568 0.00109376 1e-05
-0.000158284 0.00109458 1e-05
0 0.00109541 1e-05
0.000105677 0.00109597 1e-05
0.000211355 0.00109653 1e-05
0.000317032 0.00109709 1e-05
0.00042271 0.00109764 1e-05
0.000528387 0.0010982 1e-05
0.000634886 0.00109876 1e-05
0.000741385 0.00109931 1e-05
0.000847885 0.00109986 1e-05
0.000954384 0.00110041 1e-05
0.00106088 0.00110095 1e-05
0.00116821 0.00110149 1e-05
0.00127554 0.00110202 1e-05
0.00138286 0.00110254 1e-05
0.00149019 0.00110306 1e-05
0.00159752 0.00110356 1e-05
0.00170568 0.00110406 1e-05
0.00181384 0.00110456 1e-05
0.001922 0.00110504 1e-05
0.00203016 0.00110552 1e-05
0.00213833 0.00110598 1e-05
0.00224733 0.00110644 1e-05
0.00235633 0.00110689 1e-05
0.00246533 0.00110733 1e-05
0.00257434 0.00110776 1e-05
0.00268334 0.00110818 1e-05
0.00279319 0.00110859 1e-05
0.00290304 0.001109 1e-05
0.00301289 0.0011094 1e-05
0.00312274 0.00110979 1e-05
0.00323259 0.00111017 1e-05
0.00334329 0.00111054 1e-05
0.003454 0.00111091 1e-05
0.0035647 0.00111127 1e-05
0.0036754 0.00111162 1e-05
0.00378611 0.00111196 1e-05
0.00389767 0.00111229 1e-05
0.00400924 0.00111262 1e-05
0.0041208 0.00111294 1e-05
0.00423237 0.00111325 1e-05
0.00434393 0.00111355 1e-05
0.00445636 0.00111384 1e-05
0.00456879 0.00111413 1e-05
0.00468123 0.00111441 1e-05
0.00479366 0.00111468 1e-05
0.00490609 0.00111494 1e-05
0.0050194 0.00111519 1e-05
0.0051327 0.00111544 1e-05
0.00524601 0.00111568 1e-05
0.00535932 0.00111591 1e-05
0.00547262 0.00111613 1e-05
0.00558681 0.00111634 1e-05
0.005701 0.00111655 1e-05
0.00581518 0.00111675 1e-05
0.00592937 0.00111694 1e-05
0.00604356 0.00111712 1e-05
0.00615863 0.0011173 1e-05
0.00627371 0.00111746 1e-05
0.00638878 0.00111762 1e-05
0.00650386 0.00111778 1e-05
0.00661893 0.00111792 1e-05
0.0067349 0.00111805 1e-05
0.00685087 0.00111818 1e-05
0.00696684 0.0011183 1e-05
0.00708281 0.00111841 1e-05
0.00719878 0.00111851 1e-05
0.00731565 0.00111861 1e-05
0.00743252 0.00111869 1e-05
0.00754939 0.00111877 1e-05
0.00766626 0.00111884 1e-05
0.00778313 0.00111891 1e-05
0.00783637 0.00111893 1e-05
0.0078896 0.00111895 1e-05
0.00794284 0.00111897 1e-05
0.00799607 0.00111899 1e-05
0.00804788 0.00111901 1e-05
0.00811271 0.00111903 1e-05
0.00817754 0.00111905 1e-05
0.00824237 0.00111906 1e-05
0.0083072 0.00111907 1e-05
0.00837203 0.00111908 1e-05
0.00849073 0.00111909 1e-05
0.00860942 0.00111909 1e-05
0.00872812 0.00111909 1e-05
0.00884682 0.00111907 1e-05
0.00896551 0.00111905 1e-05
0.00908513 0.00111901 1e-05
0.00920475 0.00111897 1e-05
0.00932437 0.00111892 1e-05
0.00944398 0.00111886 1e-05
0.0095636 0.00111879 1e-05
0.00968415 0.00111871 1e-05
0.0098047 0.00111862 1e-05
0.00992525 0.00111853 1e-05
0.0100458 0.00111842 1e-05
0.0101663 0.00111831 1e-05
0.0102878 0.00111817 1e-05
0.0104093 0.00111804 1e-05
0.0105308 0.0011179 1e-05
0.0106523 0.00111774 1e-05
0.0107738 0.00111758 1e-05
0.0108962 0.0011174 1e-05
0.0110186 0.00111721 1e-05
0.0111411 0.00111702 1e-05
0.0112635 0.00111682 1e-05
0.0113859 0.00111661 1e-05
0.0115093 0.00111637 1e-05
0.0116327 0.00111614 1e-05
0.0117561 0.0011159 1e-05
0.0118795 0.00111564 1e-05
0.0120028 0.00111538 1e-05
0.0121272 0.00111509 1e-05
0.0122515 0.00111481 1e-05
0.0123759 0.00111451 1e-05
0.0125002 0.00111421 1e-05
0.0126245 0.00111389 1e-05
0.0127498 0.00111355 1e-05
0.0128752 0.00111321 1e-05
0.0130005 0.00111286 1e-05
0.0131258 0.0011125 1e-05
0.0132511 0.00111213 1e-05
0.0133774 0.00111174 1e-05
0.0135036 0.00111134 1e-05
0.0136299 0.00111094 1e-05
0.0137562 0.00111052 1e-05
0.0138825 0.00111009 1e-05
0.0140098 0.00110965 1e-05
0.014137 0.00110919 1e-05
0.0142643 0.00110873 1e-05
0.0143915 0.00110826 1e-05
0.0145188 0.00110777 1e-05
0.0146471 0.00110727 1e-05
0.0147753 0.00110676 1e-05
0.0149036 0.00110624 1e-05
0.0150318 0.0011057 1e-05
0.0151601 0.00110516 1e-05
0.0152893 0.0011046 1e-05
0.0154186 0.00110403 1e-05
0.0155478 0.00110345 1e-05
0.0156771 0.00110286 1e-05
0.0158063 0.00110225 1e-05
0.0159366 0.00110164 1e-05
0.0160668 0.00110101 1e-05
0.0161971 0.00110036 1e-05
0.0163274 0.00109971 1e-05
0.0164576 0.00109905 1e-05
0.0165889 0.00109837 1e-05
0.0167201 0.00109768 1e-05
0.0168514 0.00109698 1e-05
0.0169827 0.00109626 1e-05
0.0171139 0.00109554 1e-05
0.0172462 0.00109481 1e-05
0.0173785 0.00109405 1e-05
0.0175108 0.00109329 1e-05
0.0176431 0.00109251 1e-05
0.0177754 0.00109172 1e-05
0.0179087 0.00109093 1e-05
0.018042 0.00109012 1e-05
0.0181753 0.00108928 1e-05
0.0183087 0.00108844 1e-05
0.018442 0.00108759 1e-05
0.0185763 0.00108674 1e-05
0.0187107 0.00108586 1e-05
0.018845 0.00108497 1e-05
0.0189794 0.00108406 1e-05
0.0191137 0.00108315 1e-05
0.0192491 0.00108223 1e-05
0.0193845 0.0010813 1e-05
0.0195199 0.00108033 1e-05
0.0196553 0.00107936 1e-05
0.0197907 0.00107838 1e-05
0.0199272 0.00107741 1e-05
0.0200636 0.00107641 1e-05
0.0202001 0.00107538 1e-05
0.0203365 0.00107433 1e-05
0.020473 0.0010733 1e-05
0.0206105 0.00107226 1e-05
0.020748 0.00107119 1e-05
0.0208855 0.0010701 1e-05
0.021023 0.00106899 1e-05
0.0211606 0.00106789 1e-05
0.0212991 0.00106678 1e-05
0.0214377 0.00106565 1e-05
0.0215763 0.00106449 1e-05
0.0217149 0.00106332 1e-05
0.0218535 0.00106215 1e-05
0.0219931 0.00106098 1e-05
0.0221328 0.00105978 1e-05
0.0222724 0.00105855 1e-05
0.0224121 0.00105731 1e-05
0.0225517 0.00105608 1e-05
0.0226925 0.00105484 1e-05
0.0228332 0.00105358 1e-05
0.022974 0.00105228 1e-05
0.0231147 0.00105097 1e-05
0.0232555 0.00104967 1e-05
0.0233973 0.00104837 1e-05
0.0235391 0.00104703 1e-05
0.023681 0.00104566 1e-05
0.0238228 0.00104429 1e-05
0.0239647 0.00104292 1e-05
0.0241076 0.00104154 1e-05
0.0242505 0.00104014 1e-05
0.0243935 0.0010387 1e-05
0.0245364 0.00103725 1e-05
0.0246794 0.00103581 1e-05
0.0248234 0.00103437 1e-05
0.0249675 0.00103289 1e-05
0.0251115 0.00103138 1e-05
0.0252556 0.00102987 1e-05
[...]
POINT_DATA 12045
 FIELD attributes 1
U 3 12045 float
10.0004 	0.00731839 	0 10.0004 	0.00585471 	0 10.0003 	0.00439104 	0 10.0002 	0.00292736 	0 10.0001 	0.00146368 	0 10 	0 	0
10.0001 	0.000880953 	0 10 	0.000704763 	0 10 	0.000528572 	0 10 	0.000352381 	0 10 	0.000176191 	0 10 	0 	0
10.0001 	0.000468881 	0 10.0001 	0.000374915 	0 10.0001 	0.000280949 	0 10 	0.000186983 	0 10 	9.3016e-05 	0 10 	0 	0
10 	0.000269339 	0 10 	0.000215472 	0 10 	0.000161604 	0 10 	0.000107736 	0 10 	5.38679e-05 	0 10 	0 	0
10 	8.37107e-05 	0 10 	6.69686e-05 	0 10 	5.02264e-05 	0 10 	3.34843e-05 	0 10 	1.67421e-05 	0 10 	0 	0
10 	-2.3197e-05 	0 10 	-1.85576e-05 	0 10 	-1.39182e-05 	0 10 	-9.2788e-06 	0 10 	-4.6394e-06 	0 10 	0 	0
10 	-0.000213924 	0 10 	-0.000171139 	0 10 	-0.000128354 	0 10 	-8.55695e-05 	0 10 	-4.27847e-05 	0 10 	0 	0
10 	-0.000376335 	0 10 	-0.000301068 	0 10 	-0.000225801 	0 10 	-0.000150534 	0 10 	-7.5267e-05 	0 10 	0 	0
9.99999 	-0.000426622 	0 9.99999 	-0.000341297 	0 9.99999 	-0.000255973 	0 10 	-0.000170649 	0 10 	-8.53243e-05 	0 10 	0 	0
9.17387 	0.0870993 	0 9.1308 	0.0696794 	0 9.08741 	0.0522593 	0 9.04368 	0.0348389 	0 8.99962 	0.0174184 	0 8.95524 	0 	0
10.0004 	0.00731839 	0 10.0024 	0.0151694 	0 10.0045 	0.022189 	0 10.0065 	0.0291644 	0 10.0085 	0.0360959 	0 10.0135 	0.0463119 	0 10.0163 	0.0402122 	0 10.0207 	0.0401721 	0 10.0252 	0.0401323 	0 10.0296 	0.0400927 	0 10.0355 	0.0445549 	0 10.0384 	0.0379167 	0 10.0424 	0.0378744 	0 10.0464 	0.0378321 	0 10.0504 	0.0377897 	0 10.0545 	0.0408916 	0 10.0566 	0.0388166 	0 10.0591 	0.0401278 	0 10.0615 	0.0414407 	0 10.0639 	0.0427552 	0 10.0661 	0.0452142 	0 10.0676 	0.0453271 	0 10.0689 	0.0465299 	0 10.0703 	0.0477339 	0 10.0716 	0.048939 	0 10.0727 	0.0499577 	0 10.0728 	0.0500226 	0 10.0728 	0.0500876 	0 10.0729 	0.0501526 	0 10.073 	0.0502175 	0 10.0731 	0.0502727 	0 10.0736 	0.0509032 	0 10.0741 	0.0515274 	0 10.0746 	0.0521521 	0 10.0751 	0.0527773 	0 10.0756 	0.0532381 	0 10.0754 	0.0535388 	0 10.0751 	0.0537337 	0 10.0747 	0.0539288 	0 10.0743 	0.054124 	0 10.0738 	0.0540805 	0 10.0733 	0.0542322 	0 10.0722 	0.0542152 	0 10.0711 	0.0541982 	0 10.07 	0.0541812 	0 10.0685 	0.0538949 	0 10.0681 	0.0539844 	0 10.0664 	0.0538597 	0 10.0648 	0.0537349 	0 10.0631 	0.0536102 	0 10.0605 	0.0531992 	0 10.0605 	0.0532659 	0 10.0585 	0.0530835 	0 10.0564 	0.0529011 	0 10.0544 	0.0527186 	0 10.0508 	0.0522379 	0 10.0514 	0.0523086 	0 10.049 	0.0521052 	0 10.0467 	0.0519018 	0 10.0443 	0.0516983 	0 10.0396 	0.0511893 	0 10.0411 	0.051288 	0 10.0385 	0.051088 	0 10.0359 	0.050888 	0 10.0333 	0.0506879 	0 10.0275 	0.0501704 	0 10.03 	0.0503087 	0 10.0273 	0.0501353 	0 10.0245 	0.0499619 	0 10.0218 	0.0497885 	0 10.0149 	0.0492933 	0 10.0184 	0.0494901 	0 10.0156 	0.0493526 	0 10.0128 	0.0492151 	0 10.01 	0.0490776 	0 10.0018 	0.0486026 	0 10.0066 	0.0488725 	0 10.0038 	0.0488376 	0 10.0009 	0.0488027 	0 9.9981 	0.0487678 	0 9.98872 	0.0484168 	0 9.99487 	0.0488271 	0 9.99206 	0.0488681 	0 9.98925 	0.0489092 	0 9.98644 	0.0489502 	0 9.97583 	0.0486076 	0 9.98341 	0.0491206 	0 9.98075 	0.0494818 	0 9.97808 	0.049843 	0 9.97542 	0.0502043 	0 9.96371 	0.050272 	0 9.97298 	0.0510693 	6.58012e-22 9.9712 	0.051502 	4.53247e-21 9.96943 	0.0519349 	8.40658e-21 9.96765 	0.0523678 	1.22803e-20 9.95572 	0.0522473 	1.0319e-20 9.96653 	0.052722 	7.3058e-20 9.96517 	0.0526707 	6.79261e-20 9.96382 	0.0526195 	6.27939e-20 9.96247 	0.0525683 	5.76613e-20 9.95037 	0.0519837 	-1.17981e-20 9.96123 	0.0518809 	-3.19872e-20 9.9599 	0.051429 	-3.55188e-20 9.95858 	0.0509771 	-3.90485e-20 9.95725 	0.0505252 	-4.25764e-20 9.94516 	0.0497973 	-1.62524e-20 9.95557 	0.0494069 	-1.43637e-20 9.95386 	0.0485929 	-9.95475e-21 9.95215 	0.0477788 	-5.54633e-21 9.95043 	0.0469646 	-1.13839e-21 9.93821 	0.0459687 	5.66553e-21 9.94818 	0.0455844 	-3.94724e-21 9.94607 	0.0446116 	-1.83478e-20 9.94397 	0.0436385 	-3.27501e-20 9.94185 	0.0426653 	-4.71544e-20 9.92943 	0.0413845 	-6.77918e-20 9.9389 	0.0411533 	-9.79438e-20 9.93636 	0.0402436 	-8.83996e-20 9.93382 	0.0393337 	-7.88489e-20 9.93127 	0.0384235 	-6.92916e-20 9.91863 	0.0370279 	-2.29025e-20 9.92748 	0.036921 	2.96015e-20 9.92449 	0.0361021 	4.00904e-20 9.92148 	0.035283 	5.05713e-20 9.91848 	0.0344636 	6.10441e-20 9.90569 	0.033057 	2.83728e-20 9.91383 	0.0329608 	-4.11786e-20 9.91037 	0.032173 	-4.59489e-20 9.90691 	0.0313849 	-5.07067e-20 9.90344 	0.0305966 	-5.54522e-20 9.89058 	0.0292243 	-2.11473e-22 9.8979 	0.0290853 	5.23357e-20 9.89395 	0.0283123 	4.50867e-20 9.88999 	0.027539 	3.78255e-20 9.88602 	0.0267654 	3.05519e-20 9.87316 	0.0254651 	-2.1394e-20 9.87949 	0.025271 	-6.70306e-20 9.87501 	0.0245112 	-8.4324e-20 9.87053 	0.0237512 	-1.01613e-19 9.86604 	0.0229908 	-1.18897e-19 9.85328 	0.0217784 	-1.04471e-19 9.85838 	0.0215316 	-1.23194e-19 9.85338 	0.0207874 	-1.13543e-19 9.84836 	0.0200429 	-1.03888e-19 9.84334 	0.019298 	-9.42295e-20 9.83085 	0.0181773 	-6.34824e-20 9.83447 	0.0178854 	-5.38539e-20 9.82893 	0.0171585 	-3.94587e-20 9.82339 	0.0164312 	-2.50649e-20 9.81784 	0.0157037 	-1.06726e-20 9.80588 	0.0146696 	2.0439e-21 9.80768 	0.0143218 	0 9.80163 	0.0136043 	0 9.79557 	0.0128865 	0 9.78951 	0.0121684 	0 9.7784 	0.0112147 	0 9.778 	0.0107943 	-1.21122e-20 9.77145 	0.0100831 	-2.68956e-20 9.76489 	0.00937153 	-4.16806e-20 9.75832 	0.00865961 	-5.64669e-20 9.74845 	0.00779386 	-7.22953e-20 9.74541 	0.00728058 	-7.83252e-20 9.73837 	0.00657572 	-7.88811e-20 9.73132 	0.00587045 	-7.94325e-20 9.72426 	0.00516477 	-7.99795e-20 9.71607 	0.0044055 	-7.86967e-20 9.71404 	0.00415468 	-6.58213e-20 9.71065 	0.00383777 	-5.55471e-20 9.70725 	0.00352077 	-4.52746e-20 9.70386 	0.00320368 	-3.50037e-20 9.70055 	0.00289499 	-2.50096e-20 9.69637 	0.00250635 	-1.24901e-20 9.69218 	0.00211756 	2.68533e-23 9.68799 	0.00172863 	1.25413e-20 9.68379 	0.00133955 	2.50533e-20 9.6761 	0.000792072 	4.03358e-20 9.67126 	0.000230127 	4.11123e-20 9.66322 	-0.000473183 	4.19695e-20 9.65516 	-0.00117702 	4.28248e-20 9.6471 	-0.00188138 	4.36783e-20 9.62934 	-0.00300159 	4.56159e-20 9.6297 	-0.00333678 	3.60846e-20 9.62123 	-0.00403804 	2.65515e-20 9.61274 	-0.00473988 	1.70174e-20 9.60424 	-0.0054423 	7.48231e-21 9.58025 	-0.00676632 	-6.33267e-22 9.58546 	-0.00692719 	-7.09379e-21 9.57659 	-0.00762965 	-1.62172e-20 9.56771 	-0.00833273 	-2.53396e-20 9.55881 	-0.00903644 	-3.44609e-20 9.52913 	-0.0105079 	-4.35918e-20 9.53874 	-0.0105499 	-4.45469e-20 9.5295 	-0.0112557 	-5.02681e-20 9.52025 	-0.0119622 	-5.59865e-20 9.51098 	-0.0126693 	-6.17021e-20 9.47629 	-0.0142276 	-7.50734e-20 9.48976 	-0.0142037 	-1.10589e-19 9.48019 	-0.0149129 	-1.03132e-19 9.4706 	-0.0156228 	-9.56867e-20 9.46099 	-0.0163335 	-8.8253e-20 9.42201 	-0.0179176 	-3.20991e-20 9.43876 	-0.0178822 	-2.10809e-20 9.42887 	-0.0185958 	-1.49089e-20 9.41898 	-0.0193102 	-8.73615e-21 9.40906 	-0.0200253 	-2.56272e-21 9.36656 	-0.0215757 	0 9.38597 	-0.0215847 	0 9.37582 	-0.0223039 	0 9.36564 	-0.0230238 	0 9.35545 	-0.0237446 	0 9.3102 	-0.0252032 	0 9.33169 	-0.0253105 	1.66238e-21 9.32128 	-0.0260348 	7.4076e-21 9.31086 	-0.02676 	1.31521e-20 9.30042 	-0.027486 	1.88959e-20 9.25315 	-0.0287948 	3.23004e-20 9.27616 	-0.0290478 	1.18368e-19 9.26554 	-0.0297758 	1.20694e-19 9.25489 	-0.0305048 	1.23033e-19 9.24423 	-0.0312346 	1.25385e-19 9.19563 	-0.032342 	3.24523e-20 9.21965 	-0.0327801 	1.78653e-20 9.20883 	-0.0335107 	1.2676e-20 9.198 	-0.0342423 	7.48581e-21 9.18714 	-0.0349748 	2.29481e-21 9.13783 	-0.0358387 	1.29948e-20 9.16108 	-0.036498 	8.16304e-20 9.15142 	-0.0372277 	8.52936e-20 9.14042 	-0.0379613 	8.63526e-20 9.12577 	-0.0386818 	7.93518e-20 9.07993 	-0.0392825 	2.96448e-21 9.09988 	-0.0401601 	-7.82252e-20 9.09354 	-0.0409166 	-9.74796e-20 9.08239 	-0.0416518 	-1.05459e-19 9.06449 	-0.0423077 	-1.00294e-19 9.02209 	-0.042673 	-4.73612e-20 9.03899 	-0.043744 	-1.39474e-19 9.03541 	-0.0445718 	-1.65975e-19 9.02415 	-0.0453091 	-1.67896e-19 9.00365 	-0.0458558 	-1.36272e-19 8.96445 	-0.0460147 	-3.65887e-20 8.97856 	-0.0472555 	-1.91335e-20 8.97724 	-0.0481923 	-8.81467e-21 8.96588 	-0.0489317 	-3.13846e-21 8.94339 	-0.0493312 	0 8.90715 	-0.0493098 	0 8.91873 	-0.0506957 	0 8.91923 	-0.0517715 	0 8.90779 	-0.0525123 	0 8.88383 	-0.0527343 	1.47622e-21 8.85031 	-0.0525591 	4.08152e-21 8.8596 	-0.0540667 	1.60251e-21 8.86152 	-0.0553044 	0 8.85002 	-0.0560469 	0 8.82507 	-0.0560695 	1.79673e-21 8.79404 	-0.0557666 	4.40564e-21 8.80126 	-0.0573759 	1.92658e-21 8.80428 	-0.0587936 	1.14458e-21 8.79275 	-0.0595375 	6.28431e-21 8.76719 	-0.0593441 	1.90677e-20 8.73842 	-0.0589353 	3.36059e-20 8.7438 	-0.0606233 	1.32606e-19 8.74764 	-0.0622292 	2.23067e-19 8.73609 	-0.0629756 	2.2594e-19 8.71026 	-0.0625621 	1.33026e-19 8.68353 	-0.0620749 	3.40415e-20 8.68728 	-0.0638272 	1.97281e-20 8.69097 	-0.0655815 	5.41602e-21 8.67922 	-0.0662869 	1.75927e-22 8.65432 	-0.0657362 	2.68797e-21 8.62944 	-0.0651851 	5.19988e-21 8.63175 	-0.0669821 	2.8228e-21 8.63399 	-0.0687809 	4.46515e-22 8.62268 	-0.0694547 	1.88457e-21 8.59944 	-0.0688572 	-1.1292e-21 8.57623 	-0.0682592 	-4.14219e-21 8.57726 	-0.0700926 	-3.83975e-20 8.57823 	-0.0719279 	-7.26565e-20 8.5674 	-0.0725728 	-7.37224e-20 8.54566 	-0.0719423 	-4.23919e-20 8.52393 	-0.0713113 	-1.10599e-20 8.52386 	-0.073177 	6.71213e-20 8.52373 	-0.0750446 	1.45297e-19 8.51341 	-0.075662 	1.51991e-19 8.49299 	-0.0750053 	8.67751e-20 8.47259 	-0.0743481 	2.15587e-20 8.47156 	-0.0762233 	1.24953e-20 8.47046 	-0.0781004 	3.42866e-21 8.46067 	-0.0786915 	2.27742e-22 8.44144 	-0.0780327 	3.89794e-21 8.42222 	-0.0773736 	7.56938e-21 8.42034 	-0.0792471 	3.11443e-21 8.41839 	-0.0811225 	-1.34524e-21 8.40915 	-0.0816908 	-1.61468e-20 8.39097 	-0.0810464 	-5.56676e-20 8.37282 	-0.0804015 	-9.51903e-20 8.37019 	-0.0822651 	-1.98473e-19 8.3675 	-0.0841305 	-3.0175e-19 8.3588 	-0.084679 	-2.8931e-19 8.34159 	-0.0840608 	-1.70901e-19 8.32439 	-0.0834421 	-5.24924e-20 8.3211 	-0.0852925 	4.54819e-20 8.31749 	-0.087078 	1.38524e-19 8.30893 	-0.0875829 	1.36506e-19 8.29326 	-0.0870905 	7.13595e-20 8.27693 	-0.0865043 	3.01074e-22 8.27305 	-0.0883396 	-7.01999e-20 8.26822 	-0.0899132 	-1.28061e-19 8.25978 	-0.0904319 	-1.35197e-19 8.24596 	-0.0901447 	-9.07291e-20 8.23042 	-0.0895955 	-2.94915e-20 8.22601 	-0.0914151 	-2.07295e-20 8.2202 	-0.0927827 	-1.20422e-20 8.21187 	-0.0933165 	-3.48905e-21 8.19968 	-0.0932327 	9.61618e-21 8.18484 	-0.0927231 	2.58592e-20 8.17997 	-0.0945274 	8.54015e-21 8.17338 	-0.0956962 	-2.31333e-21 8.16514 	-0.0962465 	-6.8766e-21 8.15436 	-0.0963629 	-4.47228e-21 8.14017 	-0.0958949 	7.3121e-21 8.13487 	-0.0976849 	-5.89145e-21 8.12768 	-0.0986629 	-1.36415e-20 8.11954 	-0.0992307 	-1.86379e-20 8.10997 	-0.0995434 	-2.67246e-20 8.09636 	-0.0991184 	-4.37318e-20 8.09069 	-0.100895 	4.16935e-20 8.08306 	-0.10169 	5.80518e-20 8.07499 	-0.102277 	5.97073e-20 8.06647 	-0.102782 	5.50049e-20 8.05339 	-0.102401 	-1.81052e-20 8.04738 	-0.104166 	5.39017e-20 8.03943 	-0.104787 	5.69696e-20 8.03143 	-0.105393 	5.9141e-20 8.02341 	-0.106 	6.13022e-20 8.01122 	-0.105749 	6.97817e-21 8.00467 	-0.107332 	-3.81416e-22 7.99675 	-0.107958 	-2.64753e-22 7.98882 	-0.108585 	-1.48108e-22 7.98085 	-0.109213 	-3.14812e-23 7.96981 	-0.10917 	1.14027e-20 7.96283 	-0.110564 	0 7.95496 	-0.111212 	0 7.94708 	-0.111861 	0 7.93916 	-0.11251 	0 7.92912 	-0.112669 	8.61498e-21 7.92182 	-0.113883 	0 7.914 	-0.114553 	0 7.90615 	-0.115224 	0 7.89828 	-0.115895 	0 7.88911 	-0.116251 	0 7.88158 	-0.117293 	0 7.8738 	-0.117986 	0 7.86598 	-0.118679 	0 7.85814 	-0.119373 	0 7.84972 	-0.119923 	-2.59525e-21 7.84293 	-0.120718 	0 7.83605 	-0.121353 	0 7.82915 	-0.121989 	0 7.82222 	-0.122625 	0 7.81558 	-0.123233 	0 7.8146 	-0.123321 	0 7.81362 	-0.123408 	0 7.81263 	-0.123496 	0 7.81165 	-0.123583 	0 7.81078 	-0.123648 	0 7.80278 	-0.124412 	0 7.7948 	-0.125156 	0 7.78678 	-0.1259 	0 7.77874 	-0.126645 	0 7.7717 	-0.127187 	0 7.76336 	-0.128141 	-5.72888e-21 7.75537 	-0.128911 	-1.31791e-20 7.74736 	-0.12968 	-2.06279e-20 7.73931 	-0.13045 	-2.80751e-20 7.73318 	-0.130843 	-3.5535e-20 7.72449 	-0.131982 	-3.16457e-20 7.7165 	-0.132777 	-3.10531e-20 7.70848 	-0.133572 	-3.04573e-20 7.70043 	-0.134367 	-2.98583e-20 7.69518 	-0.134618 	-3.4186e-20 7.68613 	-0.135937 	-2.60513e-20 7.67812 	-0.136758 	-1.78929e-20 7.67009 	-0.13758 	-9.73289e-21 7.66203 	-0.138402 	-1.57125e-21 7.65765 	-0.138517 	0 7.64822 	-0.140012 	-4.48561e-22 7.6402 	-0.140862 	-4.0985e-21 7.63214 	-0.141711 	-7.7476e-21 7.62411 	-0.142551 	-1.13958e-20 7.62052 	-0.142549 	-1.50436e-20 7.61088 	-0.144145 	-4.1532e-20 7.60266 	-0.145097 	-5.78896e-20 7.59457 	-0.145976 	-7.30993e-20 7.58743 	-0.146672 	-8.21748e-20 7.58375 	-0.14672 	-6.95568e-20 7.57409 	-0.148329 	-5.0118e-20 7.56546 	-0.14947 	-3.77791e-20 7.55733 	-0.150378 	-2.89607e-20 7.55107 	-0.150936 	-3.19184e-20 7.54728 	-0.151033 	-5.03336e-20 7.53759 	-0.152653 	-6.08319e-20 7.52854 	-0.153978 	-6.07284e-20 7.52036 	-0.154916 	-4.67562e-20 7.51495 	-0.15534 	-2.55108e-20 7.51105 	-0.155485 	-3.19666e-22 7.50133 	-0.157118 	2.76015e-21 7.49185 	-0.158623 	4.48156e-21 7.48361 	-0.15959 	5.21555e-22 7.47904 	-0.159885 	0 7.47502 	-0.16008 	0 7.46526 	-0.161725 	0 7.45543 	-0.163371 	0 7.44743 	-0.164333 	0 7.44329 	-0.164575 	0 7.43914 	-0.164817 	0 7.42932 	-0.166476 	0 7.41945 	-0.168136 	0 7.41192 	-0.16912 	-9.17068e-21 7.40765 	-0.169409 	-2.24226e-20 7.40337 	-0.169698 	-3.56738e-20 7.39349 	-0.171372 	-2.10957e-20 7.38356 	-0.173047 	-6.51155e-21 7.37649 	-0.174054 	1.31912e-21 7.37207 	-0.174389 	4.33936e-21 7.36765 	-0.174725 	7.35944e-21 7.35771 	-0.176414 	3.15784e-20 7.34771 	-0.178104 	5.57959e-20 7.34108 	-0.179135 	5.80784e-20 7.33652 	-0.179516 	4.6928e-20 7.33194 	-0.179897 	3.57749e-20 7.32193 	-0.181603 	1.75798e-20 7.312 	-0.183284 	2.93733e-22 7.30579 	-0.184307 	7.16403e-21 7.30093 	-0.18479 	1.40309e-20 7.29619 	-0.185216 	2.08986e-20 7.2861 	-0.186938 	6.76416e-20 7.27706 	-0.18847 	1.00493e-19 7.27072 	-0.189523 	9.85139e-20 7.26528 	-0.19021 	6.88618e-20 7.26038 	-0.190678 	2.27343e-20 7.25021 	-0.192417 	1.66086e-20 7.24202 	-0.193803 	1.40036e-20 7.23554 	-0.194886 	1.44138e-20 7.22953 	-0.195772 	1.69604e-20 7.22446 	-0.196283 	2.35931e-20 7.21419 	-0.198039 	6.87602e-20 7.20685 	-0.199282 	7.62994e-20 7.20023 	-0.200394 	7.42697e-20 7.19364 	-0.201477 	7.00283e-20 7.18839 	-0.202028 	2.54987e-20 7.17825 	-0.203762 	1.96156e-20 7.17151 	-0.204903 	1.35728e-20 7.16473 	-0.206043 	7.53206e-21 7.15792 	-0.207183 	1.49341e-21 7.15213 	-0.20791 	0 7.14286 	-0.209494 	0 7.13597 	-0.210662 	0 7.12904 	-0.21183 	0 7.12206 	-0.212998 	0 7.11566 	-0.213925 	0 7.10725 	-0.215361 	0 7.10019 	-0.216556 	0 7.09309 	-0.217751 	0 7.08595 	-0.218946 	0 7.07894 	-0.220073 	1.45622e-21 7.07565 	-0.220635 	1.78208e-21 7.07275 	-0.221127 	4.27121e-21 7.06984 	-0.22162 	6.76067e-21 7.06692 	-0.222113 	9.25045e-21 7.06407 	-0.222594 	1.16793e-20 7.05959 	-0.223325 	1.49464e-20 7.05509 	-0.224057 	1.82127e-20 7.05058 	-0.224788 	2.14782e-20 7.04605 	-0.22552 	2.4743e-20 7.04231 	-0.226158 	2.74639e-20 7.0343 	-0.227499 	2.47511e-20 7.02669 	-0.228746 	2.792e-20 7.01903 	-0.229994 	3.10737e-20 7.01132 	-0.231242 	3.42123e-20 7.00573 	-0.232242 	5.05564e-20 6.99678 	-0.233761 	2.93652e-20 6.98898 	-0.235033 	2.09231e-20 6.98115 	-0.236305 	1.24657e-20 6.97326 	-0.237577 	3.99294e-21 6.96885 	-0.238447 	2.15974e-20 6.95893 	-0.240143 	1.83154e-20 6.95096 	-0.241438 	1.71831e-20 6.94293 	-0.242734 	1.60464e-20 6.93532 	-0.243978 	1.58219e-20 6.93166 	-0.24477 	2.36619e-20 6.92133 	-0.246526 	1.54776e-20 6.91258 	-0.247959 	1.27499e-20 6.90437 	-0.249278 	1.195e-20 6.89799 	-0.250386 	1.59376e-20 6.89414 	-0.251208 	2.64817e-20 6.88362 	-0.252979 	3.6486e-20 6.87385 	-0.254594 	4.12612e-20 6.86545 	-0.255936 	3.69543e-20 6.86032 	-0.25691 	2.24584e-20 6.85627 	-0.257761 	4.53938e-21 6.84557 	-0.259548 	2.24771e-21 6.8348 	-0.261335 	-4.24115e-23 6.82652 	-0.26267 	0 6.8223 	-0.263551 	0 6.81806 	-0.264432 	0 6.80717 	-0.266236 	0 6.79621 	-0.26804 	0 6.78836 	-0.269399 	-4.21082e-21 6.78395 	-0.270309 	-1.06831e-20 6.7795 	-0.271218 	-1.71526e-20 6.76843 	-0.273039 	-8.89504e-21 6.75729 	-0.274858 	-6.30331e-22 6.74986 	-0.276239 	3.79482e-21 6.74525 	-0.277174 	8.51486e-21 6.74061 	-0.27811 	1.32369e-20 6.72935 	-0.279944 	9.29506e-21 6.71856 	-0.28172 	5.91428e-21 6.71154 	-0.283084 	6.46665e-21 6.70621 	-0.284137 	1.71231e-20 6.70137 	-0.285097 	3.07995e-20 6.68992 	-0.286945 	1.63641e-20 6.68053 	-0.288566 	5.83081e-21 6.67332 	-0.289949 	-5.8446e-22 6.66684 	-0.291195 	-5.50817e-21 6.6618 	-0.292183 	-7.59508e-21 6.65017 	-0.294047 	-4.05329e-20 6.6422 	-0.295516 	-4.91541e-20 6.6348 	-0.296919 	-5.36735e-20 6.62736 	-0.298322 	-5.81817e-20 6.62191 	-0.299374 	-3.51764e-20 6.6111 	-0.301149 	-5.44099e-20 6.60358 	-0.302574 	-5.05809e-20 6.596 	-0.303999 	-4.67429e-20 6.58838 	-0.305423 	-4.28959e-20 6.58173 	-0.306676 	-2.83686e-20 6.57243 	-0.308295 	-3.504e-20 6.56475 	-0.30974 	-2.88253e-20 6.55702 	-0.311184 	-2.25988e-20 6.54924 	-0.312629 	-1.63603e-20 6.54188 	-0.313985 	-1.04892e-20 6.54175 	-0.314007 	-1.03927e-20 6.54162 	-0.314029 	-1.02962e-20 6.5415 	-0.31405 	-1.01996e-20 6.54137 	-0.314072 	-1.01031e-20 6.54126 	-0.314091 	-1.01855e-20 6.53299 	-0.315565 	-7.94011e-21 6.52467 	-0.317036 	-5.71941e-21 6.51629 	-0.318507 	-3.49763e-21 6.50785 	-0.319978 	-1.27477e-21 6.50052 	-0.321282 	0 6.49153 	-0.322937 	0 6.48301 	-0.324434 	0 6.47444 	-0.32593 	0 6.46581 	-0.327426 	0 6.45945 	-0.328589 	0 6.44975 	-0.330407 	0 6.44101 	-0.331935 	-1.54182e-21 6.43224 	-0.333452 	-3.14e-21 6.42424 	-0.334855 	-4.70624e-21 6.41811 	-0.335988 	-6.19805e-21 6.4082 	-0.337816 	9.75714e-21 6.39869 	-0.339522 	1.97065e-20 6.38974 	-0.341062 	2.14853e-20 6.38278 	-0.342327 	7.66694e-21 6.37647 	-0.343497 	-1.1539e-20 6.36636 	-0.345349 	-6.74676e-21 6.35617 	-0.3472 	-1.95564e-21 6.34744 	-0.348757 	2.52424e-21 6.34101 	-0.350003 	5.33736e-21 6.33454 	-0.351248 	8.14932e-21 6.32423 	-0.353165 	4.63423e-21 6.31384 	-0.355081 	1.11662e-21 6.30557 	-0.356705 	3.66129e-21 6.29897 	-0.358046 	1.16441e-20 6.29232 	-0.359387 	1.96276e-20 6.2818 	-0.361389 	2.39695e-20 6.27163 	-0.363341 	2.65729e-20 6.26376 	-0.365012 	1.93123e-20 6.25663 	-0.366515 	8.12745e-21 6.24979 	-0.367944 	-4.80319e-21 6.23908 	-0.37003 	6.33877e-21 6.23008 	-0.371901 	9.02769e-21 6.222 	-0.373652 	6.96961e-21 6.21394 	-0.375384 	3.79934e-21 6.20687 	-0.376885 	-1.28212e-20 6.19632 	-0.378994 	-8.54311e-21 6.18808 	-0.380815 	-3.03416e-21 6.17978 	-0.382635 	2.47457e-21 6.17141 	-0.384453 	7.98306e-21 6.16346 	-0.386161 	1.12663e-20 6.15693 	-0.387526 	1.17937e-20 6.15133 	-0.388779 	1.2221e-20 6.1457 	-0.390032 	1.26501e-20 6.14004 	-0.391284 	1.30811e-20 6.13459 	-0.39248 	1.34945e-20 6.13177 	-0.393127 	1.41312e-20 6.12894 	-0.393775 	1.47692e-20 6.1261 	-0.394423 	1.54087e-20 6.12326 	-0.39507 	1.60495e-20 6.12048 	-0.395657 	1.30195e-20 6.11239 	-0.397682 	9.98574e-21 6.10408 	-0.399649 	6.96894e-21 6.0957 	-0.401613 	3.95016e-21 6.08724 	-0.403577 	9.29399e-22 6.07901 	-0.405305 	-3.7423e-21 6.07111 	-0.407573 	0 6.06254 	-0.409622 	0 6.0539 	-0.41167 	0 6.04527 	-0.413645 	-1.21671e-21 6.03688 	-0.415365 	-6.68372e-21 6.0288 	-0.417744 	-2.39759e-21 6.02035 	-0.420019 	8.8204e-22 6.01144 	-0.422163 	2.88451e-21 6.00275 	-0.424068 	8.82298e-21 5.99407 	-0.425898 	1.59689e-20 5.98572 	-0.428374 	2.78117e-20 5.97728 	-0.430848 	3.96562e-20 5.96839 	-0.433065 	4.03571e-20 5.95949 	-0.435015 	3.02846e-20 5.95051 	-0.436964 	2.02117e-20 5.94187 	-0.439546 	2.14847e-20 5.93314 	-0.442126 	2.27611e-20 5.92462 	-0.444446 	1.84601e-20 5.91541 	-0.446531 	9.02765e-21 5.90611 	-0.448611 	-4.81913e-22 5.89717 	-0.45131 	-1.58469e-20 5.88828 	-0.453874 	-2.52569e-20 5.87946 	-0.456292 	-2.82979e-20 5.87042 	-0.458667 	-2.81257e-20 5.86078 	-0.460887 	-1.56875e-20 5.85153 	-0.463688 	2.07179e-21 5.84245 	-0.466245 	-1.45346e-21 5.83327 	-0.468799 	-5.00427e-21 5.824 	-0.47135